/*--------------------------------*- C++ -*----------------------------------*\
  =========                 |
  \\      /  F ield         | OpenFOAM: The Open Source CFD Toolbox
   \\    /   O peration     | Website:  https://openfoam.org
    \\  /    A nd           | Version:  7
     \\/     M anipulation  |
\*---------------------------------------------------------------------------*/
FoamFile
{
    version     2.0;
    format      ascii;
    class       volVectorField;
    location    "18";
    object      U;
}
// * * * * * * * * * * * * * * * * * * * * * * * * * * * * * * * * * * * * * //

dimensions      [0 1 -1 0 0 0 0];

internalField   nonuniform List<vector> 
8800
(
(0.9801 -0.0915189 0)
(1.00233 -0.0587477 0)
(0.999616 -0.0321393 0)
(1.00002 -0.0165247 0)
(1.00006 -0.0088196 0)
(1.00001 -0.00503635 0)
(0.999997 -0.00293737 0)
(0.99999 -0.00167258 0)
(0.999987 -0.000809046 0)
(1.00005 -0.000134493 0)
(0.999989 0.000553485 0)
(0.999986 0.00129983 0)
(0.999993 0.00231447 0)
(0.999998 0.00391255 0)
(1.00004 0.00668711 0)
(1.00006 0.0120233 0)
(0.999891 0.0230966 0)
(0.999092 0.0431713 0)
(1.00717 0.0790419 0)
(0.775011 0.0478402 0)
(0.359061 -0.014744 0)
(1.04655 -0.0724354 0)
(1.08851 -0.0659698 0)
(1.04945 -0.0508165 0)
(1.02549 -0.0375571 0)
(1.01265 -0.0257487 0)
(1.00651 -0.0166139 0)
(1.00358 -0.0101959 0)
(1.00214 -0.00564202 0)
(1.00149 -0.0021214 0)
(1.00137 0.00100737 0)
(1.00172 0.00428199 0)
(1.0027 0.00816055 0)
(1.00476 0.0134722 0)
(1.00899 0.0211265 0)
(1.01795 0.0316105 0)
(1.03589 0.0444392 0)
(1.06752 0.0579545 0)
(1.09483 0.0700013 0)
(0.845862 0.0554783 0)
(0.217973 -0.00136935 0)
(1.07584 -0.0504942 0)
(1.09956 -0.0487718 0)
(1.06453 -0.0398747 0)
(1.03989 -0.0324036 0)
(1.02368 -0.0251596 0)
(1.01389 -0.0179775 0)
(1.00845 -0.011455 0)
(1.00564 -0.00583333 0)
(1.0045 -0.000742099 0)
(1.00484 0.00418014 0)
(1.00667 0.00937408 0)
(1.01057 0.0153349 0)
(1.01788 0.0221158 0)
(1.0306 0.0292799 0)
(1.05074 0.0364305 0)
(1.08042 0.0442514 0)
(1.10604 0.0516169 0)
(0.943869 0.0408456 0)
(0.217619 0.00138361 0)
(0.177046 -0.000618761 0)
(1.01986 -0.0351717 0)
(1.10574 -0.0410048 0)
(1.07786 -0.0359924 0)
(1.05233 -0.0299954 0)
(1.03507 -0.0241496 0)
(1.02322 -0.0184186 0)
(1.01538 -0.0125958 0)
(1.01074 -0.00675862 0)
(1.00874 -0.000789771 0)
(1.00931 0.00515564 0)
(1.01246 0.0108934 0)
(1.0185 0.0165776 0)
(1.02817 0.0221758 0)
(1.04244 0.0277715 0)
(1.06327 0.0335798 0)
(1.09412 0.0394841 0)
(1.09509 0.0411554 0)
(0.83177 0.022487 0)
(0.176451 0.000629644 0)
(0.155494 -0.000448767 0)
(0.95955 -0.0251718 0)
(1.10485 -0.0343404 0)
(1.08816 -0.0317411 0)
(1.06102 -0.0271536 0)
(1.0428 -0.0223336 0)
(1.03042 -0.0173322 0)
(1.02185 -0.01214 0)
(1.01635 -0.00661258 0)
(1.01379 -0.000557031 0)
(1.01447 0.0055319 0)
(1.01831 0.0111282 0)
(1.02514 0.0162522 0)
(1.03535 0.0210919 0)
(1.05022 0.0258002 0)
(1.07246 0.0302989 0)
(1.10188 0.0344155 0)
(1.0714 0.032935 0)
(0.745874 0.0139863 0)
(0.154609 0.000461917 0)
(0.141366 -0.000319558 0)
(0.904146 -0.0184316 0)
(1.09751 -0.0288835 0)
(1.09616 -0.028092 0)
(1.06858 -0.024549 0)
(1.04937 -0.0206019 0)
(1.03627 -0.0161261 0)
(1.02729 -0.0112192 0)
(1.02137 -0.00594324 0)
(1.01842 -0.000187558 0)
(1.01917 0.0055715 0)
(1.02333 0.0108467 0)
(1.03047 0.0156305 0)
(1.04116 0.0200353 0)
(1.0569 0.0239907 0)
(1.0801 0.0274473 0)
(1.10446 0.0300798 0)
(1.04118 0.026441 0)
(0.681884 0.00958509 0)
(0.140131 0.000334804 0)
(0.131489 -0.000226613 0)
(0.857371 -0.0134113 0)
(1.08585 -0.0236664 0)
(1.10117 -0.0239006 0)
(1.07467 -0.0208915 0)
(1.0552 -0.0176554 0)
(1.04161 -0.0139728 0)
(1.0321 -0.00978154 0)
(1.0259 -0.00507283 0)
(1.02285 0.000265528 0)
(1.02349 0.00567103 0)
(1.02766 0.010387 0)
(1.03512 0.0144748 0)
(1.04629 0.0180227 0)
(1.06235 0.0210945 0)
(1.08579 0.0238743 0)
(1.10401 0.0257253 0)
(1.0095 0.0208289 0)
(0.634385 0.00679901 0)
(0.12983 0.000245574 0)
(0.124578 -0.000166824 0)
(0.820095 -0.00951775 0)
(1.07244 -0.0187137 0)
(1.10457 -0.019665 0)
(1.08023 -0.0170939 0)
(1.0602 -0.0143387 0)
(1.0464 -0.0114456 0)
(1.03666 -0.00805427 0)
(1.03012 -0.00397811 0)
(1.02683 0.000847209 0)
(1.0274 0.00569875 0)
(1.03171 0.00978257 0)
(1.03932 0.0130119 0)
(1.05057 0.0156031 0)
(1.0669 0.0179061 0)
(1.09088 0.0203112 0)
(1.10155 0.0214517 0)
(0.979646 0.0159815 0)
(0.599444 0.00481503 0)
(0.122403 0.000190438 0)
(0.11991 -0.000113098 0)
(0.792078 -0.00606138 0)
(1.05855 -0.0138228 0)
(1.10636 -0.0157277 0)
(1.08456 -0.0142578 0)
(1.06388 -0.0122445 0)
(1.05002 -0.00970772 0)
(1.04055 -0.00657704 0)
(1.03419 -0.00280997 0)
(1.03083 0.00153126 0)
(1.03123 0.0058018 0)
(1.03522 0.00941935 0)
(1.04237 0.0122679 0)
(1.05335 0.0144778 0)
(1.07007 0.0161548 0)
(1.0943 0.0174476 0)
(1.0969 0.0173291 0)
(0.95327 0.011443 0)
(0.574772 0.00311353 0)
(0.117104 0.000143072 0)
(0.117537 -3.12615e-05 0)
(0.773513 -0.00293229 0)
(1.04477 -0.00860045 0)
(1.10532 -0.0112619 0)
(1.08707 -0.0108006 0)
(1.0669 -0.00929018 0)
(1.05311 -0.00725637 0)
(1.0435 -0.00465146 0)
(1.03698 -0.00144568 0)
(1.0334 0.0023661 0)
(1.03364 0.00610224 0)
(1.03749 0.00901499 0)
(1.04461 0.0111119 0)
(1.05555 0.0125711 0)
(1.07178 0.0135856 0)
(1.09464 0.0140412 0)
(1.08917 0.0126402 0)
(0.931595 0.00704899 0)
(0.55951 0.00163672 0)
(0.113958 6.91558e-05 0)
(0.117054 2.3851e-05 0)
(0.763137 -0.0011521 0)
(1.03377 -0.0047133 0)
(1.10319 -0.00686281 0)
(1.08874 -0.00676184 0)
(1.06929 -0.00581177 0)
(1.056 -0.00437445 0)
(1.04675 -0.00232915 0)
(1.04041 0.000249322 0)
(1.03684 0.00337163 0)
(1.03671 0.00639987 0)
(1.04007 0.00849586 0)
(1.04652 0.00979459 0)
(1.05675 0.0104375 0)
(1.07262 0.010689 0)
(1.09351 0.0104857 0)
(1.08093 0.00888635 0)
(0.9159 0.00442842 0)
(0.550838 0.000917782 0)
(0.112507 2.16076e-05 0)
(0.117356 3.80599e-05 0)
(0.757076 -0.000567929 0)
(1.0262 -0.00311508 0)
(1.10168 -0.00468247 0)
(1.08969 -0.00454399 0)
(1.0708 -0.0035534 0)
(1.05759 -0.00232733 0)
(1.04845 -0.000647375 0)
(1.04216 0.00165986 0)
(1.03855 0.00449055 0)
(1.03804 0.00711718 0)
(1.04092 0.00883546 0)
(1.04702 0.00973547 0)
(1.05692 0.0100886 0)
(1.07212 0.00990274 0)
(1.09159 0.00924641 0)
(1.07381 0.00757316 0)
(0.904066 0.00374406 0)
(0.544601 0.000818381 0)
(0.111605 1.95176e-05 0)
(0.11783 3.40743e-05 0)
(0.752441 -0.000311161 0)
(1.01959 -0.00266765 0)
(1.10038 -0.00462517 0)
(1.0911 -0.00450794 0)
(1.07254 -0.00372463 0)
(1.05963 -0.00237044 0)
(1.05085 -0.000302765 0)
(1.0448 0.00249961 0)
(1.04104 0.00576699 0)
(1.04009 0.00868732 0)
(1.04234 0.0105587 0)
(1.04765 0.0114003 0)
(1.05685 0.0112822 0)
(1.07139 0.0109442 0)
(1.08946 0.0103119 0)
(1.06646 0.00807563 0)
(0.892878 0.00380578 0)
(0.538634 0.000892247 0)
(0.110595 3.45883e-05 0)
(0.118392 3.75759e-05 0)
(0.748819 9.99615e-05 0)
(1.01188 -0.00207379 0)
(1.09715 -0.00520273 0)
(1.09154 -0.0062708 0)
(1.0745 -0.00555132 0)
(1.06212 -0.00375642 0)
(1.05376 -0.000812298 0)
(1.04778 0.00299514 0)
(1.04369 0.00729774 0)
(1.04224 0.0111378 0)
(1.04379 0.0137221 0)
(1.04822 0.015272 0)
(1.05645 0.0156568 0)
(1.06999 0.0149464 0)
(1.08544 0.0131361 0)
(1.05603 0.00891714 0)
(0.880948 0.00378602 0)
(0.532623 0.000959027 0)
(0.109325 5.30318e-05 0)
(0.119234 4.44586e-05 0)
(0.74712 0.000740194 0)
(1.00395 -0.000692861 0)
(1.09074 -0.00427123 0)
(1.09082 -0.00654468 0)
(1.07647 -0.00620028 0)
(1.06562 -0.00413221 0)
(1.05782 -0.000419112 0)
(1.05181 0.0041954 0)
(1.04728 0.00934651 0)
(1.04518 0.0138925 0)
(1.04598 0.0169345 0)
(1.04951 0.0186247 0)
(1.05595 0.0189427 0)
(1.06743 0.0179966 0)
(1.07734 0.0145582 0)
(1.0422 0.00868148 0)
(0.869275 0.00349506 0)
(0.52689 0.000987226 0)
(0.107866 6.43684e-05 0)
(0.120512 6.05463e-05 0)
(0.747858 0.00136097 0)
(0.998296 0.001153 0)
(1.08341 -0.00158224 0)
(1.08863 -0.00416028 0)
(1.07832 -0.00418695 0)
(1.06966 -0.00184848 0)
(1.06248 0.00205721 0)
(1.05632 0.00686757 0)
(1.05124 0.0121188 0)
(1.04827 0.0165222 0)
(1.04813 0.0191715 0)
(1.05037 0.0203301 0)
(1.05495 0.0200895 0)
(1.06271 0.0182141 0)
(1.06668 0.0137089 0)
(1.02808 0.00779103 0)
(0.859161 0.00331247 0)
(0.521418 0.00106396 0)
(0.106269 7.37061e-05 0)
(0.122373 8.4694e-05 0)
(0.751258 0.00206039 0)
(0.996759 0.00309896 0)
(1.07852 0.00195861 0)
(1.08647 0.00057572 0)
(1.08029 0.000799492 0)
(1.07353 0.00298071 0)
(1.06699 0.00658408 0)
(1.06068 0.0110393 0)
(1.05489 0.0156985 0)
(1.05083 0.0192266 0)
(1.04946 0.0207763 0)
(1.05017 0.020752 0)
(1.05283 0.0196324 0)
(1.05646 0.0166652 0)
(1.05606 0.0121959 0)
(1.01617 0.00717948 0)
(0.850636 0.00347294 0)
(0.515762 0.00122666 0)
(0.104464 8.46445e-05 0)
(0.124902 0.000114187 0)
(0.757395 0.00277101 0)
(0.998767 0.00468383 0)
(1.07739 0.00528637 0)
(1.08639 0.00540141 0)
(1.08246 0.00640683 0)
(1.0771 0.00885798 0)
(1.07108 0.0123166 0)
(1.06451 0.016312 0)
(1.0578 0.0201368 0)
(1.05239 0.0224596 0)
(1.04947 0.022687 0)
(1.04856 0.0214394 0)
(1.04894 0.0189692 0)
(1.04998 0.0156192 0)
(1.0469 0.0115312 0)
(1.00658 0.00733343 0)
(0.842728 0.00398732 0)
(0.509328 0.00148658 0)
(0.10231 0.000101405 0)
(0.12819 0.000151693 0)
(0.766083 0.0035947 0)
(1.00402 0.00646761 0)
(1.07972 0.00831527 0)
(1.08865 0.00977978 0)
(1.08566 0.011994 0)
(1.08091 0.0150863 0)
(1.0749 0.0187181 0)
(1.06774 0.0224892 0)
(1.05981 0.0255733 0)
(1.0528 0.0266565 0)
(1.04814 0.0255383 0)
(1.0455 0.0230995 0)
(1.04418 0.0197683 0)
(1.04345 0.0160637 0)
(1.03889 0.0121755 0)
(0.998084 0.00831872 0)
(0.834213 0.00483005 0)
(0.501558 0.0018462 0)
(0.0996757 0.000125173 0)
(0.132442 0.000203285 0)
(0.77749 0.00471418 0)
(1.01227 0.00863307 0)
(1.08499 0.0116371 0)
(1.09332 0.0142901 0)
(1.09038 0.017728 0)
(1.08543 0.021724 0)
(1.07886 0.0259011 0)
(1.07064 0.029751 0)
(1.06105 0.0323007 0)
(1.05205 0.032287 0)
(1.04559 0.0299148 0)
(1.04132 0.0262978 0)
(1.03856 0.0221723 0)
(1.03662 0.0180245 0)
(1.03113 0.0139953 0)
(0.989451 0.00997475 0)
(0.82426 0.00596122 0)
(0.49195 0.00229714 0)
(0.0964138 0.000155273 0)
(0.138018 0.000273131 0)
(0.792191 0.00621008 0)
(1.02337 0.0113503 0)
(1.09297 0.0154411 0)
(1.10034 0.0193368 0)
(1.09684 0.024066 0)
(1.09113 0.0292271 0)
(1.0834 0.0342655 0)
(1.07352 0.0384498 0)
(1.06171 0.0406373 0)
(1.05036 0.0396024 0)
(1.04187 0.0360006 0)
(1.03596 0.0312117 0)
(1.03192 0.0261522 0)
(1.029 0.0213298 0)
(1.02275 0.0168234 0)
(0.979705 0.0122674 0)
(0.812116 0.00742062 0)
(0.48003 0.00285512 0)
(0.0923954 0.000191595 0)
(0.145424 0.00038067 0)
(0.81119 0.00832505 0)
(1.03785 0.0150095 0)
(1.10382 0.0203436 0)
(1.10987 0.0256098 0)
(1.10533 0.0318288 0)
(1.09827 0.038375 0)
(1.0887 0.0444364 0)
(1.07647 0.0490789 0)
(1.06184 0.0509557 0)
(1.0477 0.0488517 0)
(1.03692 0.0439038 0)
(1.02928 0.0378138 0)
(1.02396 0.0316169 0)
(1.02012 0.025865 0)
(1.01306 0.0205822 0)
(0.968142 0.0151927 0)
(0.79712 0.0092513 0)
(0.465253 0.00354311 0)
(0.087471 0.000236184 0)
(0.155429 0.000547498 0)
(0.835872 0.0114496 0)
(1.05668 0.0201519 0)
(1.11811 0.0269204 0)
(1.12232 0.0338586 0)
(1.11609 0.0418704 0)
(1.10692 0.0500043 0)
(1.09474 0.0571971 0)
(1.07941 0.0622834 0)
(1.0613 0.0637019 0)
(1.0439 0.0603272 0)
(1.03057 0.0538231 0)
(1.02106 0.046212 0)
(1.01436 0.0386296 0)
(1.00952 0.0316831 0)
(1.00149 0.0253635 0)
(0.95408 0.0188852 0)
(0.778794 0.011541 0)
(0.447155 0.00436527 0)
(0.081517 0.000280877 0)
(0.169307 0.000812074 0)
(0.868127 0.0161493 0)
(1.08126 0.0274256 0)
(1.13676 0.0359441 0)
(1.13838 0.0451913 0)
(1.12952 0.0553673 0)
(1.11724 0.0652246 0)
(1.10147 0.0734907 0)
(1.08218 0.0787628 0)
(1.05988 0.0793482 0)
(1.03873 0.0743398 0)
(1.02257 0.0659859 0)
(1.01098 0.0565974 0)
(1.00275 0.0473776 0)
(0.99675 0.0389762 0)
(0.987485 0.0313725 0)
(0.936813 0.0235231 0)
(0.756401 0.0144036 0)
(0.425243 0.00536667 0)
(0.0743889 0.000331093 0)
(0.189322 0.0012905 0)
(0.911262 0.0237206 0)
(1.1137 0.0385147 0)
(1.16115 0.0493554 0)
(1.15869 0.0615617 0)
(1.14585 0.0741002 0)
(1.12914 0.085479 0)
(1.10859 0.0943353 0)
(1.08442 0.0991975 0)
(1.05727 0.0983342 0)
(1.03195 0.0911817 0)
(1.01269 0.0806291 0)
(0.998801 0.0692155 0)
(0.988801 0.0581481 0)
(0.981391 0.0480762 0)
(0.970483 0.0389535 0)
(0.915505 0.0294224 0)
(0.728849 0.0180812 0)
(0.398669 0.00666115 0)
(0.0659403 0.000388102 0)
(0.218888 0.00238344 0)
(0.971584 0.0373544 0)
(1.15622 0.0573269 0)
(1.19254 0.0710968 0)
(1.18324 0.086242 0)
(1.16444 0.10053 0)
(1.14172 0.112465 0)
(1.11527 0.120819 0)
(1.08546 0.12422 0)
(1.05298 0.120999 0)
(1.02325 0.11106 0)
(1.00072 0.0979419 0)
(0.984348 0.0843066 0)
(0.972356 0.071275 0)
(0.963204 0.0594297 0)
(0.950008 0.0486376 0)
(0.88916 0.0371191 0)
(0.694936 0.0228911 0)
(0.36726 0.00841552 0)
(0.0564047 0.000427304 0)
(0.25988 0.00907582 -1.54577e-20)
(1.05253 0.0653059 -1.21255e-20)
(1.20712 0.0897494 3.48734e-21)
(1.2284 0.106644 0)
(1.20961 0.122992 1.85594e-35)
(1.18326 0.137059 -9.93036e-23)
(1.15346 0.147827 -8.60022e-22)
(1.12038 0.154297 0)
(1.08439 0.155181 4.06118e-35)
(1.04611 0.148908 -3.23714e-21)
(1.01148 0.135836 0)
(0.98519 0.120055 -4.79797e-21)
(0.965808 0.104229 -1.4764e-20)
(0.951223 0.0893887 -7.1716e-21)
(0.939586 0.0761436 -2.27269e-21)
(0.923096 0.0641163 -1.37979e-21)
(0.855179 0.0505263 0)
(0.651308 0.0320914 9.92294e-22)
(0.329872 0.0134172 1.17675e-21)
(0.0477064 0.00158982 2.08374e-20)
(0.286362 0.0254912 -2.65332e-20)
(1.11786 0.110335 5.06808e-22)
(1.2507 0.137826 -1.58501e-21)
(1.26059 0.155725 0)
(1.23331 0.170363 3.00521e-21)
(1.1996 0.182659 2.09765e-21)
(1.16278 0.19153 -3.78596e-22)
(1.12296 0.195838 -4.79354e-21)
(1.08039 0.19426 0)
(1.0355 0.185191 1.37185e-20)
(0.994781 0.169402 1.54793e-20)
(0.9634 0.151424 5.04291e-21)
(0.93969 0.133884 2.01641e-20)
(0.921247 0.117588 2.99139e-20)
(0.905786 0.103071 0)
(0.884096 0.089987 4.4776e-20)
(0.811339 0.0745607 6.55284e-20)
(0.606055 0.0513637 7.31999e-20)
(0.302491 0.0250496 -8.48659e-20)
(0.0429915 0.00370505 -1.55635e-21)
(0.282884 0.0413603 0)
(1.15563 0.168312 -7.93217e-21)
(1.28298 0.198609 0)
(1.28565 0.214538 1.32948e-20)
(1.25171 0.22571 0)
(1.2117 0.234516 7.92324e-21)
(1.16861 0.240137 -5.0052e-23)
(1.1226 0.241309 -6.17801e-21)
(1.07393 0.236581 -1.54883e-21)
(1.02297 0.224344 6.56254e-21)
(0.976688 0.20586 3.64566e-20)
(0.940741 0.186051 -2.85786e-22)
(0.913204 0.167418 -1.52244e-20)
(0.891438 0.150594 -2.98116e-20)
(0.873046 0.135843 3.62793e-20)
(0.849193 0.122537 -6.53398e-20)
(0.780476 0.105611 -8.98355e-21)
(0.592692 0.0775889 0)
(0.311917 0.0411587 1.25448e-22)
(0.0491938 0.00697988 0)
(0.273728 0.0550887 -1.94893e-19)
(1.17329 0.22926 8.06381e-20)
(1.30371 0.26445 4.35311e-20)
(1.30205 0.278074 -8.54215e-21)
(1.26355 0.285365 1.31075e-20)
(1.21879 0.290134 -1.85724e-20)
(1.17068 0.291878 -1.0176e-21)
(1.11942 0.289356 0)
(1.06542 0.281073 -2.42889e-20)
(1.0091 0.265419 0)
(0.95804 0.244148 -1.85099e-20)
(0.918325 0.222596 -2.65845e-20)
(0.887826 0.203118 -1.7139e-20)
(0.863685 0.186068 -2.22999e-20)
(0.843473 0.171428 0)
(0.819288 0.158273 0)
(0.75659 0.1412 -6.06465e-20)
(0.589595 0.108709 1.21276e-20)
(0.324704 0.0608909 -7.06897e-21)
(0.0560715 0.01102 -8.25554e-21)
(0.26462 0.0673637 1.429e-19)
(1.17843 0.289671 0)
(1.31489 0.331076 -1.20955e-19)
(1.31078 0.342774 -3.16799e-20)
(1.26907 0.346367 -2.48816e-20)
(1.22085 0.34716 0)
(1.16887 0.344984 -4.69114e-21)
(1.11343 0.338621 4.73358e-21)
(1.05496 0.326634 1.01297e-20)
(0.994084 0.307403 3.36744e-20)
(0.939074 0.283237 0)
(0.896453 0.259852 -5.80111e-20)
(0.863917 0.2394 -3.74428e-20)
(0.838349 0.222014 -2.26331e-20)
(0.81724 0.207481 1.4969e-19)
(0.793622 0.194641 1.84361e-20)
(0.737051 0.177236 8.82602e-20)
(0.584999 0.140064 -4.26746e-19)
(0.330481 0.0803908 2.53513e-19)
(0.0599009 0.0149118 -3.06761e-19)
(0.256644 0.0784017 1.50078e-19)
(1.17576 0.347564 -2.79846e-20)
(1.31898 0.39645 2.11097e-20)
(1.31344 0.40682 5.78791e-20)
(1.26948 0.406938 3.61748e-20)
(1.21864 0.404014 1.66159e-21)
(1.16362 0.398125 4.48398e-21)
(1.1048 0.388024 2.38013e-21)
(1.04266 0.372323 -2.24098e-20)
(0.977909 0.349452 0)
(0.91969 0.322238 -2.47054e-20)
(0.874885 0.296776 -1.49783e-21)
(0.840914 0.275031 -4.20367e-20)
(0.814476 0.256978 0)
(0.793088 0.242189 -3.26914e-20)
(0.770476 0.229209 -7.9735e-20)
(0.718809 0.210839 2.2122e-19)
(0.576629 0.168553 -2.20417e-19)
(0.329745 0.0973397 3.13117e-19)
(0.0608522 0.0181555 -3.26511e-19)
(0.250202 0.0886345 -4.2583e-22)
(1.16835 0.402424 3.4026e-20)
(1.31788 0.459648 1.00383e-19)
(1.31145 0.469098 -3.5182e-20)
(1.26584 0.466053 2.05463e-20)
(1.21297 0.459761 0)
(1.15555 0.450405 1.07185e-20)
(1.09395 0.436788 -6.96496e-22)
(1.02873 0.417493 -9.76836e-21)
(0.96069 0.390968 0)
(0.89961 0.360535 -2.39047e-20)
(0.852975 0.332725 -3.4222e-20)
(0.81798 0.309346 4.60501e-20)
(0.791151 0.290193 -2.96933e-20)
(0.769891 0.274653 -1.44172e-19)
(0.748334 0.261098 8.89337e-20)
(0.700258 0.24117 2.82092e-20)
(0.564566 0.193632 0)
(0.32423 0.111633 -3.04485e-19)
(0.0600866 0.0207677 -1.11926e-20)
(0.245171 0.0983726 2.44417e-20)
(1.15821 0.454121 -3.90033e-20)
(1.31297 0.52012 -5.47982e-20)
(1.30599 0.528905 -1.08445e-19)
(1.25915 0.523133 9.88261e-20)
(1.20469 0.513831 -5.44836e-20)
(1.14531 0.501302 -2.26225e-20)
(1.08135 0.484409 -3.20697e-22)
(1.01342 0.46171 1.11498e-20)
(0.942466 0.431615 -8.22305e-20)
(0.878885 0.397827 -2.97771e-20)
(0.83079 0.367339 0)
(0.795089 0.342018 5.0416e-20)
(0.768081 0.321395 6.26053e-20)
(0.747046 0.304726 7.738e-20)
(0.726403 0.290075 -9.70709e-20)
(0.680766 0.26829 -2.92678e-20)
(0.54944 0.215332 3.47083e-20)
(0.315124 0.123232 0)
(0.0581914 0.0227388 -2.43924e-20)
(0.241333 0.107751 -2.82656e-19)
(1.14673 0.502806 1.78188e-19)
(1.30536 0.577549 6.01449e-20)
(1.29798 0.585955 -8.24406e-20)
(1.25015 0.57784 5.8681e-20)
(1.19443 0.56585 -3.86529e-21)
(1.13342 0.55047 2.25291e-20)
(1.06747 0.530583 -6.87937e-22)
(0.997163 0.50472 -1.78291e-20)
(0.923583 0.471168 1.61809e-22)
(0.857757 0.433959 -8.8182e-20)
(0.808243 0.400542 8.77997e-20)
(0.771903 0.372923 -5.66363e-20)
(0.744784 0.350485 7.07764e-20)
(0.724052 0.332323 0)
(0.70416 0.316311 -5.27148e-20)
(0.660066 0.292177 -1.25946e-21)
(0.531898 0.233683 -1.51835e-19)
(0.303378 0.132437 -2.24402e-20)
(0.0553671 0.0240663 0)
(0.238488 0.11687 0)
(1.13469 0.548711 1.93073e-19)
(1.2958 0.631909 1.39728e-19)
(1.2881 0.640147 9.27513e-20)
(1.23951 0.629967 5.68819e-20)
(1.18277 0.615614 0)
(1.12042 0.597694 1.96201e-20)
(1.05274 0.575114 -1.20193e-21)
(0.980323 0.546354 3.76869e-20)
(0.90422 0.509548 -9.8466e-21)
(0.836058 0.468919 -6.47972e-20)
(0.785088 0.432422 4.37406e-20)
(0.748186 0.402121 -1.93478e-21)
(0.721027 0.377509 7.44568e-20)
(0.700598 0.357561 4.8991e-20)
(0.681261 0.339853 -1.14892e-19)
(0.638081 0.312971 1.39255e-19)
(0.512195 0.24882 4.16163e-20)
(0.289498 0.139276 1.72086e-19)
(0.0518256 0.0247122 -4.60809e-19)
(0.236505 0.125856 -7.21517e-20)
(1.12263 0.592023 1.11082e-19)
(1.28496 0.68324 -8.65348e-20)
(1.27695 0.691425 -1.07165e-19)
(1.22772 0.679445 0)
(1.17015 0.663005 4.60523e-20)
(1.10668 0.642844 -5.73352e-20)
(1.03748 0.617873 -3.71687e-21)
(0.963078 0.586506 0)
(0.884508 0.546664 -1.54959e-19)
(0.813965 0.502716 1.76833e-19)
(0.761355 0.463036 0)
(0.723695 0.429813 6.71444e-20)
(0.696467 0.402707 -1.94744e-21)
(0.676299 0.380672 -1.54883e-19)
(0.657395 0.360963 6.09491e-20)
(0.614662 0.3309 0)
(0.490626 0.260911 2.25693e-19)
(0.273814 0.14379 0)
(0.047772 0.0247674 -2.19699e-19)
(0.235193 0.13473 8.03033e-20)
(1.11079 0.632964 1.26626e-19)
(1.27338 0.731564 -9.07298e-20)
(1.26493 0.739844 0)
(1.21518 0.726261 7.7295e-20)
(1.15694 0.707984 0)
(1.09251 0.685857 7.34187e-20)
(1.02196 0.658794 9.28241e-21)
(0.94571 0.625139 2.94094e-21)
(0.864749 0.582573 -7.65179e-20)
(0.791721 0.535429 1.7008e-20)
(0.737206 0.492429 0)
(0.698386 0.456042 -1.42736e-19)
(0.670952 0.426124 2.01295e-21)
(0.651045 0.401724 0)
(0.632478 0.379729 2.42868e-21)
(0.589802 0.34607 2.05182e-19)
(0.467095 0.269836 -1.97761e-19)
(0.256381 0.145921 5.83991e-20)
(0.043193 0.0241696 0)
(0.234195 0.143371 0)
(1.09933 0.671682 1.4133e-19)
(1.26135 0.777026 1.06005e-19)
(1.25238 0.785469 -2.20022e-21)
(1.20224 0.77045 4.7988e-20)
(1.14345 0.750565 1.08164e-19)
(1.07821 0.72673 -2.38901e-20)
(1.00646 0.697863 4.93286e-21)
(0.928512 0.662237 2.08059e-20)
(0.845144 0.617291 -1.18645e-19)
(0.769421 0.567218 -3.04945e-21)
(0.712766 0.520907 -5.78864e-20)
(0.672535 0.481165 2.34205e-19)
(0.644541 0.448144 -2.40696e-21)
(0.624751 0.421067 -1.22309e-19)
(0.606366 0.396406 -2.24058e-19)
(0.563315 0.358656 0)
(0.441547 0.27574 0)
(0.237209 0.14555 6.41635e-20)
(0.038236 0.0229134 -3.75271e-20)
(0.23376 0.151864 9.94859e-20)
(1.08846 0.708128 -3.08987e-19)
(1.24906 0.819753 -1.13458e-19)
(1.23958 0.828358 0)
(1.18913 0.812069 -1.49085e-21)
(1.12992 0.790781 1.28798e-19)
(1.06401 0.765474 -7.79317e-20)
(0.991216 0.735077 -4.07602e-20)
(0.911647 0.697799 1.87697e-20)
(0.825876 0.650857 -9.02981e-20)
(0.747264 0.598146 -1.49084e-19)
(0.688056 0.548677 1.54231e-19)
(0.646143 0.505529 0)
(0.617229 0.469165 -5.49653e-20)
(0.597353 0.438979 -1.34481e-19)
(0.578937 0.411224 -1.62499e-19)
(0.535059 0.368659 -1.97648e-19)
(0.413822 0.278464 5.91594e-20)
(0.216202 0.142339 -3.47144e-20)
(0.0328631 0.0209574 4.11262e-22)
(0.233377 0.160148 0)
(1.0783 0.742357 0)
(1.23673 0.859864 2.43913e-21)
(1.22673 0.868602 0)
(1.17607 0.8512 -1.79188e-19)
(1.11652 0.82869 -1.13013e-19)
(1.05007 0.802115 0)
(0.976353 0.770441 -8.84536e-21)
(0.89529 0.731831 1.81969e-20)
(0.807153 0.683291 -2.07292e-19)
(0.725448 0.628356 0)
(0.663252 0.575937 -9.86678e-20)
(0.619117 0.529273 -2.97136e-21)
(0.588943 0.489236 -2.45961e-21)
(0.56875 0.455594 1.43528e-19)
(0.550079 0.424162 -4.21382e-22)
(0.504922 0.37599 -4.29701e-19)
(0.383653 0.277713 1.29074e-19)
(0.193444 0.136301 3.83164e-20)
(0.027106 0.0183258 0)
(0.232998 0.168177 -3.64773e-19)
(1.0686 0.774803 -1.89267e-19)
(1.22448 0.897469 -2.82983e-19)
(1.214 0.906317 3.96033e-19)
(1.16318 0.887919 -3.34883e-19)
(1.10341 0.864352 0)
(1.03652 0.836699 -6.47339e-20)
(0.962017 0.803983 1.69028e-20)
(0.879587 0.764347 3.66755e-21)
(0.789134 0.714617 1.65814e-20)
(0.704171 0.657905 1.85773e-19)
(0.638593 0.602885 -3.36237e-20)
(0.591558 0.552781 -1.44425e-19)
(0.559539 0.508772 -6.5365e-20)
(0.538707 0.4711 8.00912e-20)
(0.519583 0.435293 -3.53532e-22)
(0.472702 0.380487 1.18049e-19)
(0.350789 0.273258 -2.80174e-19)
(0.168821 0.127205 3.33781e-19)
(0.021207 0.0151805 4.83478e-20)
(0.232511 0.175859 1.33768e-19)
(1.05932 0.805482 -1.03408e-19)
(1.21242 0.932687 5.88768e-21)
(1.20148 0.941624 2.23082e-19)
(1.15059 0.922337 7.79158e-20)
(1.09067 0.89784 2.24663e-19)
(1.02348 0.869276 -2.81566e-20)
(0.948314 0.835728 7.93587e-20)
(0.864651 0.795347 2.45805e-21)
(0.771959 0.744825 -1.10941e-19)
(0.683635 0.68686 0)
(0.614291 0.629692 -1.5159e-19)
(0.563761 0.576354 2.09699e-19)
(0.529049 0.528197 0)
(0.507 0.485816 -1.71381e-19)
(0.487146 0.444447 1.06561e-19)
(0.438332 0.381662 -1.27614e-19)
(0.315918 0.264717 -1.53642e-19)
(0.143369 0.115438 -2.71905e-19)
(0.0153432 0.0116154 -2.12148e-19)
(0.232199 0.183297 -1.46871e-19)
(1.05031 0.834405 1.10557e-19)
(1.20064 0.96562 2.62889e-19)
(1.18927 0.974621 3.0625e-19)
(1.13837 0.954544 -1.63112e-19)
(1.07839 0.929241 1.54115e-19)
(1.011 0.899904 -8.77125e-20)
(0.935308 0.865717 9.59132e-20)
(0.850549 0.824849 7.69763e-21)
(0.755748 0.773915 1.03647e-19)
(0.664018 0.715229 3.92205e-19)
(0.59059 0.65645 0)
(0.535901 0.600304 0)
(0.497482 0.548004 -7.56252e-20)
(0.473238 0.500109 0)
(0.452102 0.451384 2.32285e-19)
(0.401389 0.378375 2.79241e-19)
(0.279651 0.251197 0)
(0.118366 0.101178 0)
(0.0100199 0.00800456 2.31188e-19)
(0.231624 0.19023 1.61723e-19)
(1.04161 0.861589 1.31845e-19)
(1.18917 0.996393 1.88777e-19)
(1.17742 1.00544 -2.72681e-19)
(1.12658 0.984648 -1.81369e-19)
(1.06662 0.958631 -2.03517e-19)
(0.999142 0.928645 1.29493e-19)
(0.923044 0.893983 3.33928e-22)
(0.837344 0.852856 -4.6973e-21)
(0.740584 0.80187 -5.9431e-21)
(0.645506 0.743008 1.98085e-19)
(0.567755 0.683224 0)
(0.508325 0.624853 2.11296e-19)
(0.464998 0.568819 1.59094e-19)
(0.436882 0.514834 4.0837e-19)
(0.413124 0.456004 1.2526e-19)
(0.360718 0.368702 -1.54453e-19)
(0.243504 0.23025 -9.07908e-20)
(0.0976348 0.0843756 0)
(0.00658365 0.00497898 2.51476e-19)
(0.231243 0.197076 -3.55193e-19)
(1.03318 0.887151 0)
(1.17803 1.02509 2.10411e-19)
(1.16597 1.03417 -2.23017e-19)
(1.11527 1.01274 2.04563e-19)
(1.05539 0.986098 2.96057e-19)
(0.987925 0.955559 -2.97956e-19)
(0.911545 0.920564 3.86218e-21)
(0.825058 0.879376 0)
(0.726528 0.828649 -9.21618e-20)
(0.628232 0.770145 -4.07146e-19)
(0.54605 0.710011 2.04005e-20)
(0.481483 0.650125 2.8623e-19)
(0.432055 0.591251 0)
(0.397616 0.531206 2.75328e-19)
(0.36818 0.459365 0)
(0.312383 0.35035 0)
(0.207309 0.193861 -1.01326e-19)
(0.0944743 0.0552081 0)
(0.0259109 0.0114725 6.79831e-20)
(0.230551 0.203289 -3.8764e-19)
(1.02501 0.911398 0)
(1.16723 1.0519 3.40288e-19)
(1.15488 1.06103 0)
(1.10438 1.03907 -1.10709e-19)
(1.04463 1.01192 0)
(0.977283 0.98095 -2.20316e-20)
(0.900714 0.945789 -1.62182e-20)
(0.813581 0.904761 -2.1057e-21)
(0.713442 0.854629 -8.70086e-20)
(0.612089 0.797044 1.04163e-20)
(0.525389 0.737335 1.68996e-19)
(0.455264 0.676628 2.76672e-19)
(0.398545 0.616263 3.97819e-20)
(0.354596 0.551545 2.15128e-19)
(0.314123 0.464885 0)
(0.244757 0.325348 3.3791e-19)
(0.146215 0.128234 -2.00572e-19)
(0.0583408 0.0613145 2.30869e-19)
(-0.0649654 0.393279 -2.70258e-19)
(0.229862 0.209228 3.15711e-19)
(1.01687 0.93423 4.99439e-19)
(1.15666 1.07717 0)
(1.14403 1.08644 4.68448e-21)
(1.09377 1.06419 3.00204e-19)
(1.03412 1.03674 -5.69867e-19)
(0.966945 1.00558 -1.30258e-19)
(0.890199 0.970554 0)
(0.802457 0.930057 -3.70618e-20)
(0.700761 0.881074 -1.90206e-21)
(0.5963 0.825152 0)
(0.504811 0.766956 0)
(0.428567 0.706257 2.41618e-19)
(0.363628 0.645788 -1.24149e-19)
(0.306248 0.579809 -2.13726e-19)
(0.246941 0.480955 0)
(0.136979 0.308748 1.71539e-19)
(0.0270606 0.438047 -2.02425e-19)
(0.0467705 1.76743 -1.04411e-19)
(0.0815587 2.74923 -1.35684e-19)
(0.229074 0.214326 -2.30707e-19)
(1.00903 0.95577 -6.29451e-19)
(1.14633 1.10086 1.95704e-19)
(1.13343 1.11025 1.88439e-19)
(1.08347 1.08788 0)
(1.02389 1.06028 -4.07149e-19)
(0.957074 1.02914 -2.17025e-19)
(0.880155 0.994444 1.05161e-20)
(0.791912 0.954763 -5.07869e-21)
(0.688815 0.907363 5.96784e-20)
(0.581417 0.853757 1.76307e-19)
(0.485253 0.798245 1.70678e-19)
(0.402632 0.738541 2.35727e-19)
(0.329712 0.678101 -2.81433e-19)
(0.258851 0.617459 -3.14426e-19)
(0.173209 0.51601 0)
(0.0759437 0.804983 0)
(0.133447 2.46034 8.84083e-20)
(0.138174 3.16123 0)
(0.139676 3.37172 2.0055e-19)
(0.230608 0.219267 0)
(1.00198 0.976115 0)
(1.13602 1.12284 0)
(1.12285 1.13225 5.23744e-20)
(1.07317 1.10993 2.67464e-19)
(1.01373 1.08242 -3.09725e-19)
(0.947568 1.05153 -1.54948e-19)
(0.870537 1.01736 1.18308e-20)
(0.781911 0.978747 -7.90593e-20)
(0.677626 0.933352 -1.00417e-20)
(0.567579 0.882725 3.11095e-19)
(0.467051 0.830945 -2.00319e-20)
(0.377997 0.774058 2.61584e-20)
(0.298187 0.710803 3.98713e-20)
(0.217908 0.66146 1.00224e-21)
(0.139638 0.908418 1.75094e-21)
(0.181081 2.59026 -4.34931e-19)
(0.202881 3.2655 -1.63455e-19)
(0.185089 3.42398 7.4708e-20)
(0.165937 3.45104 -7.5329e-20)
(0.148456 0.176817 1.31517e-19)
(0.988444 0.998258 0)
(1.12553 1.1433 -3.82064e-19)
(1.11308 1.15307 -4.85601e-19)
(1.06362 1.13111 5.55828e-19)
(1.00452 1.1038 3.28601e-19)
(0.93833 1.07288 1.80678e-19)
(0.861432 1.03942 -1.99291e-19)
(0.772636 1.00209 8.21422e-20)
(0.667567 0.958979 0)
(0.555389 0.911831 1.29204e-19)
(0.451081 0.864393 -1.2476e-19)
(0.355901 0.814215 0)
(0.269387 0.747278 3.45088e-20)
(0.201919 0.844004 8.26195e-20)
(0.187447 2.23891 -1.03078e-19)
(0.27514 3.30287 1.14443e-19)
(0.251355 3.44539 5.32172e-20)
(0.210141 3.47224 6.03604e-20)
(0.182202 3.48478 6.88487e-20)
(0.271216 0.253682 -2.44666e-19)
(0.970883 1.00422 0)
(1.1059 1.16553 3.90747e-19)
(1.0993 1.18374 5.02842e-19)
(1.0482 1.16194 -5.70751e-19)
(0.988998 1.13515 -3.47985e-19)
(0.922408 1.10561 -2.76547e-19)
(0.845395 1.07335 -1.47755e-20)
(0.755975 1.03825 -1.13775e-19)
(0.64919 0.999205 -1.93648e-20)
(0.533504 0.958875 4.3232e-21)
(0.423266 0.920213 9.19641e-20)
(0.316666 0.884459 2.0521e-20)
(0.246538 0.98106 -3.00233e-20)
(0.279311 2.13355 -7.0561e-20)
(0.354869 3.30075 4.43296e-20)
(0.342636 3.4861 -3.49117e-20)
(0.300279 3.51247 -1.90198e-20)
(0.256967 3.54431 1.82402e-20)
(0.194722 3.53584 8.51277e-22)
(0.257738 0.249333 0)
(0.966892 1.02408 1.02696e-19)
(1.09759 1.18696 -7.73913e-20)
(1.08936 1.20514 -5.6044e-20)
(1.03862 1.1834 -3.74534e-19)
(0.979671 1.15682 3.39591e-19)
(0.913017 1.12743 1.85671e-19)
(0.836258 1.09596 -1.54159e-20)
(0.746988 1.06235 1.3923e-19)
(0.639961 1.02622 -1.38748e-20)
(0.523144 0.990868 -1.42571e-19)
(0.410688 0.95909 1.29271e-20)
(0.306188 0.945548 -1.72616e-20)
(0.291428 1.37469 -2.38214e-20)
(0.39253 2.97299 1.8835e-20)
(0.433167 3.47274 8.32498e-22)
(0.38283 3.55464 -6.6459e-20)
(0.339912 3.58291 -7.2359e-20)
(0.281963 3.60978 9.5035e-20)
(0.210754 3.60402 4.19617e-20)
(0.240521 0.246581 2.51687e-19)
(0.960981 1.0463 6.91025e-19)
(1.0886 1.2101 -2.20872e-19)
(1.07898 1.22789 -2.12705e-19)
(1.02855 1.206 0)
(0.969924 1.17943 4.95694e-19)
(0.903524 1.15024 2.82556e-19)
(0.827309 1.11951 -1.61325e-20)
(0.738533 1.08744 1.45139e-20)
(0.631804 1.05437 8.61885e-20)
(0.514629 1.0242 -3.13411e-20)
(0.401683 1.00014 -8.24527e-20)
(0.311967 1.04744 -1.06901e-19)
(0.370866 1.95132 1.17798e-19)
(0.493091 3.33933 3.91695e-20)
(0.492128 3.54939 0)
(0.432105 3.60399 0)
(0.390895 3.65831 8.91217e-20)
(0.311282 3.7319 0)
(0.224287 3.69817 1.92478e-19)
(0.228605 0.246807 -3.67041e-19)
(0.953102 1.06932 -5.745e-19)
(1.07814 1.23418 0)
(1.06739 1.25134 5.33973e-21)
(1.01731 1.22903 -3.63766e-19)
(0.959136 1.20233 7.35448e-19)
(0.89333 1.17336 1.89544e-19)
(0.817888 1.14326 -1.98073e-20)
(0.729887 1.11263 1.52107e-19)
(0.623911 1.08253 -8.42139e-21)
(0.507222 1.05763 0)
(0.396113 1.04288 0)
(0.339696 1.22306 -7.02846e-20)
(0.471965 2.60066 1.8357e-20)
(0.58428 3.48402 -2.89147e-20)
(0.546811 3.59405 0)
(0.503635 3.65853 2.00415e-19)
(0.448424 3.74899 -3.07895e-19)