/*--------------------------------*- C++ -*----------------------------------*\
  =========                 |
  \\      /  F ield         | OpenFOAM: The Open Source CFD Toolbox
   \\    /   O peration     | Website:  https://openfoam.org
    \\  /    A nd           | Version:  7
     \\/     M anipulation  |
\*---------------------------------------------------------------------------*/
FoamFile
{
    version     2.0;
    format      ascii;
    class       volScalarField;
    location    "6.5";
    object      p;
}
// * * * * * * * * * * * * * * * * * * * * * * * * * * * * * * * * * * * * * //

dimensions      [1 -1 -2 0 0 0 0];

internalField   nonuniform List<scalar> 
19968
(
1
1
1
1
1
1
1
1
1
1
1
1
1
1
1
1
1
1
1
1
1
1
1
1
1
1
1
1
1
1
1
1
1
1
1
1
1
1
1
1
1
1
1
1
1
1
1
1
1.55432
8.04874
10.4194
10.46
10.5195
10.5799
10.6417
10.699
10.7516
10.8019
10.8524
10.9044
10.9586
11.0128
11.0647
11.1131
11.1591
11.2071
11.2593
11.3123
11.3612
11.403
11.4382
11.4698
11.5021
11.5386
11.5802
11.6236
11.6646
11.7009
11.7332
11.7634
11.7928
11.8209
11.8461
11.8677
11.8869
11.906
11.9271
11.9499
11.9722
11.9909
12.0048
12.0148
12.0227
12.0292
12.0349
12.0382
1
1
1
1
1
1
1
1
1
1
1
1
1
1
1
1
1
1
1
1
1
1
1
1
1
1
1
1
1
1
1
1
1
1
1
1
1
1
1
1
1
1
1
1
1
1
1
1
1.52615
7.98712
10.4089
10.455
10.5176
10.5776
10.6393
10.6969
10.7493
10.7993
10.8497
10.9018
10.9563
11.0105
11.0623
11.1103
11.1561
11.2039
11.2558
11.3084
11.3571
11.399
11.4343
11.4662
11.4986
11.5353
11.5767
11.6196
11.6599
11.6958
11.728
11.7583
11.7879
11.8162
11.8416
11.8633
11.8823
11.9012
11.9219
11.9442
11.9659
11.9844
11.9983
12.0085
12.0163
12.0225
12.0276
12.0306
1
1
1
1
1
1
1
1
1
1
1
1
1
1
1
1
1
1
1
1
1
1
1
1
1
1
1
1
1
1
1
1
1
1
1
1
1
1
1
1
1
1
1
1
1
1
1
1
1.4601
7.8449
10.4008
10.4414
10.5078
10.5682
10.6309
10.6894
10.7421
10.7923
10.8428
10.8948
10.9498
11.004
11.0559
11.1036
11.1494
11.1968
11.2481
11.3001
11.3486
11.3908
11.4268
11.4592
11.492
11.5286
11.5694
11.6114
11.651
11.6865
11.7186
11.749
11.7788
11.8074
11.833
11.8548
11.8738
11.8924
11.9126
11.9344
11.9559
11.9746
11.9891
11.9996
12.0073
12.0127
12.0168
12.0189
1
1
1
1
1
1
1
1
1
1
1
1
1
1
1
1
1
1
1
1
1
1
1
1
1
1
1
1
1
1
1
1
1
1
1
1
1
1
1
1
1
1
1
1
1
1
1
1
1.36402
7.60789
10.3888
10.4268
10.4954
10.5565
10.62
10.6795
10.733
10.7836
10.8342
10.8861
10.9416
10.9959
11.0477
11.0949
11.1403
11.187
11.2372
11.2882
11.3363
11.3787
11.4153
11.4485
11.482
11.5187
11.5588
11.5996
11.6382
11.6731
11.705
11.7354
11.7654
11.794
11.8196
11.8413
11.86
11.878
11.8971
11.9177
11.9385
11.9573
11.9727
11.9841
11.9921
11.9971
12.0002
12.0018
1
1
1
1
1
1
1
1
1
1
1
1
1
1
1
1
1
1
1
1
1
1
1
1
1
1
1
1
1
1
1
1
1
1
1
1
1
1
1
1
1
1
1
1
1
1
1
1
1.23719
7.27706
10.3895
10.4182
10.4844
10.5447
10.6077
10.6674
10.7215
10.7724
10.823
10.8747
10.9306
10.9851
11.0367
11.0835
11.1285
11.1744
11.2234
11.2732
11.3206
11.363
11.4005
11.4349
11.4695
11.5066
11.546
11.5856
11.623
11.6573
11.6891
11.7196
11.7496
11.7784
11.8042
11.8259
11.8444
11.8614
11.879
11.8978
11.9171
11.9351
11.9502
11.9615
11.9689
11.9729
11.9746
11.9754
1
1
1
1
1
1
1
1
1
1
1
1
1
1
1
1
1
1
1
1
1
1
1
1
1
1
1
1
1
1
1
1
1
1
1
1
1
1
1
1
1
1
1
1
1
1
1
1
1.02473
6.74813
10.3933
10.4206
10.4761
10.5368
10.5996
10.6598
10.7147
10.7654
10.8154
10.8664
10.9219
10.976
11.0268
11.0727
11.1164
11.1609
11.2078
11.2554
11.3009
11.3424
11.3796
11.4144
11.4495
11.4865
11.5247
11.5624
11.598
11.631
11.662
11.6922
11.722
11.7508
11.7768
11.7988
11.8172
11.8338
11.8505
11.8684
11.887
11.9052
11.921
11.9331
11.9408
11.9447
11.9459
11.9467
1
1
1
1
1
1
1
1
1
1
1
1
1
1
1
1
1
1
1
1
1
1
1
1
1
1
1
1
1
1
1
1
1
1
1
1
1
1
1
1
1
1
1
1
1
1
1
1
1.00018
6.01242
10.298
10.38
10.4316
10.4971
10.561
10.6223
10.6787
10.7309
10.7815
10.8327
10.8875
10.941
10.9907
11.0362
11.0794
11.1236
11.1699
11.2164
11.2611
11.3023
11.3399
11.3757
11.4121
11.4498
11.4879
11.5245
11.5587
11.5908
11.6215
11.6518
11.6821
11.7113
11.7377
11.7602
11.7788
11.7951
11.811
11.8279
11.8459
11.8637
11.8797
11.8921
11.9001
11.9046
11.9058
11.9073
1
1
1
1
1
1
1
1
1
1
1
1
1
1
1
1
1
1
1
1
1
1
1
1
1
1
1
1
1
1
1
1
1
1
1
1
1
1
1
1
1
1
1
1
1
1
1
1
1
5.06178
10.1512
10.3507
10.4013
10.4712
10.5356
10.5972
10.6542
10.7069
10.7573
10.8075
10.8604
10.9123
10.9602
11.0051
11.0477
11.0914
11.1364
11.1812
11.2243
11.2644
11.3017
11.3375
11.374
11.4117
11.4489
11.4839
11.5163
11.5467
11.5763
11.6061
11.6363
11.6657
11.6924
11.7149
11.7332
11.7489
11.764
11.7797
11.7964
11.8132
11.8285
11.8406
11.849
11.8544
11.8564
11.8589
1
1
1
1
1
1
1
1
1
1
1
1
1
1
1
1
1
1
1
1
1
1
1
1
1
1
1
1
1
1
1
1
1
1
1
1
1
1
1
1
1
1
1
1
1
1
1
1
1
3.97484
9.85481
10.3217
10.3714
10.4421
10.5059
10.5671
10.6241
10.6772
10.7273
10.7762
10.8264
10.8759
10.9217
10.9653
11.0074
11.0502
11.0935
11.1361
11.177
11.2151
11.2509
11.2856
11.3215
11.3588
11.3953
11.4287
11.4589
11.4871
11.515
11.5438
11.5736
11.6029
11.6295
11.6519
11.6701
11.6856
11.7002
11.7151
11.7309
11.7466
11.7612
11.7732
11.7822
11.7889
11.7921
11.7958
1
1
1
1
1
1
1
1
1
1
1
1
1
1
1
1
1
1
1
1
1
1
1
1
1
1
1
1
1
1
1
1
1
1
1
1
1
1
1
1
1
1
1
1
1
1
1
1
1
2.84722
9.30877
10.3023
10.3656
10.4316
10.4895
10.5458
10.5994
10.6505
10.699
10.7459
10.7927
10.8389
10.8823
10.924
10.9652
11.0071
11.0487
11.0891
11.1277
11.1634
11.1971
11.2294
11.2633
11.2987
11.3332
11.3639
11.3906
11.415
11.4395
11.4659
11.4943
11.5232
11.5499
11.5726
11.5913
11.6072
11.6217
11.6357
11.6496
11.663
11.6756
11.6864
11.6951
11.7022
11.706
11.7102
1
1
1
1
1
1
1
1
1
1
1
1
1
1
1
1
1
1
1
1
1
1
1
1
1
1
1
1
1
1
1
1
1
1
1
1
1
1
1
1
1
1
1
1
1
1
1
1
1
1.82753
8.37333
10.3326
10.3318
10.3966
10.4472
10.5014
10.5547
10.6062
10.6552
10.7023
10.7476
10.7921
10.835
10.8759
10.9159
10.9566
10.9972
11.0364
11.0739
11.1079
11.1397
11.17
11.2017
11.235
11.2675
11.2956
11.3186
11.3382
11.3574
11.3783
11.4021
11.4274
11.4515
11.4722
11.4892
11.5034
11.5162
11.5283
11.5402
11.5519
11.5635
11.5741
11.5831
11.5907
11.5948
11.5992
1
1
1
1
1
1
1
1
1
1
1
1
1
1
1
1
1
1
1
1
1
1
1
1
1
1
1
1
1
1
1
1
1
1
1
1
1
1
1
1
1
1
1
1
1
1
1
1
1
1.03185
6.70287
10.3498
10.3684
10.3996
10.4392
10.4841
10.531
10.5776
10.6228
10.6667
10.7079
10.7466
10.7843
10.8203
10.856
10.8934
10.9309
10.9668
11.0016
11.0332
11.0621
11.0894
11.1172
11.1471
11.1769
11.2031
11.2235
11.2396
11.2539
11.2694
11.2882
11.31
11.3326
11.3531
11.37
11.3835
11.3946
11.404
11.4118
11.4185
11.4243
11.4287
11.4317
11.4341
11.4347
11.4368
1
1
1
1
1
1
1
1
1
1
1
1
1
1
1
1
1
1
1
1
1
1
1
1
1
1
1
1
1
1
1
1
1
1
1
1
1
1
1
1
1
1
1
1
1
1
1
1
1
1.00006
4.61122
9.91155
10.1962
10.2625
10.3264
10.3808
10.4313
10.4784
10.5233
10.5665
10.6078
10.6461
10.6826
10.7183
10.7525
10.7878
10.8242
10.8594
10.8938
10.9257
10.9534
10.9788
11.0032
11.0298
11.0576
11.0827
11.1018
11.115
11.1246
11.1337
11.1455
11.1613
11.1796
11.1964
11.2082
11.2149
11.2179
11.2185
11.2176
11.2188
11.2213
11.2248
11.227
11.2288
11.2285
11.2298
1
1
1
1
1
1
1
1
1
1
1
1
1
1
1
1
1
1
1
1
1
1
1
1
1
1
1
1
1
1
1
1
1
1
1
1
1
1
1
1
1
1
1
1
1
1
1
1
1
1
2.39295
8.77811
10.1513
10.1985
10.2736
10.329
10.3779
10.4222
10.4646
10.5053
10.5444
10.5804
10.6134
10.645
10.675
10.705
10.7373
10.7699
10.8015
10.831
10.855
10.875
10.8924
10.9114
10.9329
10.9537
10.9691
10.9772
10.9802
10.981
10.9829
10.9893
11.0009
11.0124
11.0189
11.0195
11.0143
11.0056
10.9978
10.9927
10.9863
10.976
10.9567
10.9313
10.9036
10.8803
1
1
1
1
1
1
1
1
1
1
1
1
1
1
1
1
1
1
1
1
1
1
1
1
1
1
1
1
1
1
1
1
1
1
1
1
1
1
1
1
1
1
1
1
1
1
1
1
1
1
1.05933
6.37253
10.2304
10.2352
10.2633
10.2936
10.3238
10.3545
10.3867
10.4206
10.4552
10.4887
10.5178
10.5439
10.5684
10.5923
10.619
10.6477
10.6758
10.702
10.7234
10.7388
10.7502
10.7609
10.7738
10.7879
10.7987
10.8033
10.8001
10.7907
10.7806
10.7749
10.7747
10.7757
10.7709
10.7549
10.7268
10.6905
10.6516
10.6118
10.5694
10.5233
10.4806
10.4401
10.4176
10.4057
1
1
1
1
1
1
1
1
1
1
1
1
1
1
1
1
1
1
1
1
1
1
1
1
1
1
1
1
1
1
1
1
1
1
1
1
1
1
1
1
1
1
1
1
1
1
1
1
1
1
1.00009
3.25934
9.30301
10.0824
10.1175
10.1556
10.1919
10.2272
10.2622
10.2991
10.3369
10.3736
10.4061
10.4329
10.4546
10.4725
10.4898
10.5097
10.5316
10.5541
10.5745
10.5885
10.5962
10.5988
10.6002
10.6037
10.6069
10.6052
10.5946
10.5746
10.5489
10.5242
10.5045
10.4868
10.4636
10.4271
10.3742
10.3091
10.2397
10.1718
10.1051
10.0371
9.95384
9.8711
9.75458
9.84108
1
1
1
1
1
1
1
1
1
1
1
1
1
1
1
1
1
1
1
1
1
1
1
1
1
1
1
1
1
1
1
1
1
1
1
1
1
1
1
1
1
1
1
1
1
1
1
1
1
1
1
1.23069
7.32387
10.1011
10.0809
10.0972
10.123
10.148
10.1744
10.2055
10.2417
10.2786
10.3124
10.338
10.3549
10.3653
10.373
10.3832
10.3973
10.4138
10.4308
10.4436
10.4495
10.4456
10.4369
10.4282
10.4205
10.4106
10.3932
10.3647
10.3259
10.2822
10.2394
10.1984
10.1525
10.0923
10.0096
9.90356
9.77515
9.62681
9.44065
9.19783
8.8305
8.28004
7.35238
5.46046
1
1
1
1
1
1
1
1
1
1
1
1
1
1
1
1
1
1
1
1
1
1
1
1
1
1
1
1
1
1
1
1
1
1
1
1
1
1
1
1
1
1
1
1
1
1
1
1
1
1
1
1.00173
4.66237
9.69791
9.91495
9.96495
10.0106
10.045
10.0746
10.1023
10.1334
10.1664
10.2
10.2287
10.2494
10.261
10.2646
10.2669
10.2724
10.283
10.2957
10.3074
10.3132
10.3064
10.2915
10.2732
10.2545
10.2349
10.2103
10.176
10.1293
10.0714
10.0076
9.94209
9.87119
9.78676
9.6751
9.53213
9.34876
9.13163
8.85271
8.50339
7.999
7.3387
6.13808
4.52878
1
1
1
1
1
1
1
1
1
1
1
1
1
1
1
1
1
1
1
1
1
1
1
1
1
1
1
1
1
1
1
1
1
1
1
1
1
1
1
1
1
1
1
1
1
1
1
1
1
1
1
0.999996
1.98189
8.28532
9.85808
9.89242
9.94486
9.9763
10.0053
10.0305
10.0578
10.0835
10.1107
10.1374
10.1577
10.1676
10.1666
10.1618
10.1595
10.1626
10.169
10.1754
10.1773
10.1682
10.1486
10.1219
10.0911
10.0581
10.0221
9.97927
9.92442
9.85524
9.7729
9.68362
9.58592
9.47617
9.33791
9.16478
8.94271
8.67452
8.34404
7.927
7.40095
6.64959
5.65003
4.55569
1
1
1
1
1
1
1
1
1
1
1
1
1
1
1
1
1
1
1
1
1
1
1
1
1
1
1
1
1
1
1
1
1
1
1
1
1
1
1
1
1
1
1
1
1
1
1
1
1
1
1
0.999999
1.03462
5.43027
9.677
9.82418
9.86309
9.89713
9.931
9.96257
9.9911
10.0063
10.0196
10.0357
10.0498
10.0561
10.0534
10.0469
10.0414
10.0389
10.0383
10.0363
10.0313
10.0185
9.99544
9.96309
9.92334
9.87864
9.83011
9.77675
9.71267
9.63421
9.53811
9.43017
9.31019
9.1779
9.01928
8.82448
8.58143
8.28627
7.93361
7.50059
6.97714
6.30957
5.54748
4.72707
1
1
1
1
1
1
1
1
1
1
1
1
1
1
1
1
1
1
1
1
1
1
1
1
1
1
1
1
1
1
1
1
1
1
1
1
1
1
1
1
1
1
1
1
1
1
1
1
1
1
1
1
1.00001
2.21233
8.41307
9.77103
9.78405
9.82628
9.85319
9.88437
9.91168
9.92755
9.93952
9.94899
9.9551
9.953
9.94523
9.93506
9.92575
9.91765
9.91006
9.90027
9.88746
9.86837
9.84015
9.80207
9.75495
9.70134
9.64227
9.57859
9.50482
9.41741
9.31067
9.18891
9.05314
8.90355
8.7311
8.52494
8.27563
7.9759
7.62915
7.20483
6.72768
6.17416
5.57099
4.9312
1
1
1
1
1
1
1
1
1
1
1
1
1
1
1
1
1
1
1
1
1
1
1
1
1
1
1
1
1
1
1
1
1
1
1
1
1
1
1
1
1
1
1
1
1
1
1
1
1
1
1
1
0.999999
1.0479
5.4566
9.63083
9.74744
9.772
9.78941
9.80951
9.82784
9.83753
9.84605
9.85325
9.85565
9.85078
9.84126
9.82882
9.81547
9.80125
9.78633
9.7694
9.74866
9.72215
9.68596
9.64025
9.5855
9.52488
9.45866
9.38685
9.3047
9.20893
9.0941
8.9635
8.81824
8.65807
8.47748
8.26809
8.02311
7.73275
7.40434
7.01152
6.59632
6.1278
5.64037
5.11346
1
1
1
1
1
1
1
1
1
1
1
1
1
1
1
1
1
1
1
1
1
1
1
1
1
1
1
1
1
1
1
1
1
1
1
1
1
1
1
1
1
1
1
1
1
1
1
1
1
1
1
1
1
1.00005
2.02386
8.18416
9.74297
9.70294
9.71932
9.73764
9.74416
9.74502
9.74693
9.74953
9.7494
9.74421
9.73488
9.72213
9.70434
9.68219
9.65883
9.63468
9.60865
9.57797
9.53596
9.4832
9.42131
9.35409
9.28154
9.20266
9.11304
9.0105
8.89202
8.75896
8.61066
8.44575
8.26098
8.05207
7.81704
7.54112
7.23664
6.88841
6.52762
6.1217
5.71236
5.26999
1
1
1
1
1
1
1
1
1
1
1
1
1
1
1
1
1
1
1
1
1
1
1
1
1
1
1
1
1
1
1
1
1
1
1
1
1
1
1
1
1
1
1
1
1
1
1
1
1
1
1
1
1
1
1.03258
4.84193
9.37341
9.62945
9.6287
9.64512
9.65935
9.66471
9.66597
9.66434
9.66005
9.65268
9.64302
9.63054
9.6083
9.57749
9.54401
9.51085
9.47664
9.44039
9.39414
9.33646
9.26897
9.19612
9.11776
9.03163
8.93334
8.82397
8.70377
8.57202
8.42639
8.26325
8.08032
7.87446
7.6503
7.38948
7.11072
6.80501
6.48649
6.13236
5.78261
5.40287
1
1
1
1
1
1
1
1
1
1
1
1
1
1
1
1
1
1
1
1
1
1
1
1
1
1
1
1
1
1
1
1
1
1
1
1
1
1
1
1
1
1
1
1
1
1
1
1
1
1
1
1
1
1
1.00002
1.50518
7.53712
9.65071
9.59837
9.59403
9.58364
9.5794
9.5732
9.56466
9.55473
9.54356
9.53258
9.52003
9.49599
9.46039
9.42173
9.38235
9.34049
9.29959
9.25138
9.19345
9.12532
9.04964
8.96651
8.87348
8.76756
8.65347
8.53242
8.40288
8.26241
8.10526
7.93022
7.72924
7.51405
7.27047
7.01399
6.74257
6.45727
6.14816
5.84117
5.50955
1
1
1
1
1
1
1
1
1
1
1
1
1
1
1
1
1
1
1
1
1
1
1
1
1
1
1
1
1
1
1
1
1
1
1
1
1
1
1
1
1
1
1
1
1
1
1
1
1
1
1
1
1
1
1
1.00763
3.8212
8.93892
9.41977
9.4639
9.47884
9.47577
9.4692
9.46046
9.44845
9.43297
9.41583
9.40118
9.37755
9.34301
9.30403
9.26227
9.21299
9.16565
9.11254
9.0543
8.98762
8.9126
8.82657
8.72796
8.61832
8.50192
8.37963
8.25058
8.11418
7.96366
7.80044
7.60747
7.40407
7.17929
6.94057
6.69648
6.43846
6.16879
5.88916
5.59913
1
1
1
1
1
1
1
1
1
1
1
1
1
1
1
1
1
1
1
1
1
1
1
1
1
1
1
1
1
1
1
1
1
1
1
1
1
1
1
1
1
1
1
1
1
1
1
1
1
1
1
1
1
1
1
1
1.21376
6.19375
9.39602
9.40734
9.39245
9.38175
9.37782
9.37176
9.36029
9.34177
9.31728
9.29768
9.27217
9.2358
9.1957
9.15119
9.09675
9.04094
8.98148
8.92203
8.85722
8.78282
8.69674
8.59615
8.4871
8.37153
8.25035
8.12131
7.98621
7.83876
7.68424
7.50079
7.31238
7.10518
6.88436
6.66324
6.42755
6.18656
5.92919
5.67535
1
1
1
1
1
1
1
1
1
1
1
1
1
1
1
1
1
1
1
1
1
1
1
1
1
1
1
1
1
1
1
1
1
1
1
1
1
1
1
1
1
1
1
1
1
1
1
1
1
1
1
1
1
1
1
1
1.00139
2.17156
8.03
9.30595
9.25592
9.26481
9.26754
9.2661
9.25789
9.24052
9.21428
9.18971
9.16548
9.12749
9.08586
9.03982
8.98403
8.92314
8.85978
8.79847
8.73332
8.65513
8.5686
8.47024
8.36514
8.25533
8.1373
8.00977
7.87651
7.729
7.57986
7.40619
7.23216
7.04157
6.84169
6.63833
6.42194
6.20326
5.96935
5.74348
1
1
1
1
1
1
1
1
1
1
1
1
1
1
1
1
1
1
1
1
1
1
1
1
1
1
1
1
1
1
1
1
1
1
1
1
1
1
1
1
1
1
1
1
1
1
1
1
1
1
1
1
1
1
1
1
1
1.03933
4.1716
8.89145
9.16188
9.17937
9.18351
9.17786
9.16875
9.1498
9.121
9.09082
9.06468
9.0247
8.97933
8.93169
8.87707
8.81663
8.75493
8.69051
8.62306
8.54126
8.45137
8.35575
8.25235
8.14815
8.03751
7.91617
7.78613
7.63918
7.49217
7.32749
7.16387
6.98668
6.80647
6.61621
6.41966
6.21705
6.00677
5.80058
1
1
1
1
1
1
1
1
1
1
1
1
1
1
1
1
1
1
1
1
1
1
1
1
1
1
1
1
1
1
1
1
1
1
1
1
1
1
1
1
1
1
1
1
1
1
1
1
1
1
1
1
1
1
1
1
1
1.00008
1.25752
5.73449
9.02148
9.15072
9.12285
9.11629
9.10386
9.08028
9.04581
9.00763
8.97475
8.93297
8.88359
8.83194
8.77672
8.7183
8.65888
8.59325
8.52441
8.44152
8.35007
8.25355
8.15083
8.04603
7.94004
7.82709
7.70232
7.5634
7.41964
7.26446
7.10776
6.94258
6.77553
6.59602
6.41805
6.22907
6.04047
5.8469
1
1
1
1
1
1
1
1
1
1
1
1
1
1
1
1
1
1
1
1
1
1
1
1
1
1
1
1
1
1
1
1
1
1
1
1
1
1
1
1
1
1
1
1
1
1
1
1
1
1
1
1
1
1
1
1
1
1
1.00209
1.6283
7.25621
9.16539
9.10487
9.06475
9.02438
8.98853
8.94974
8.90943
8.87379
8.8335
8.78629
8.73363
8.67975
8.62335
8.56577
8.50109
8.42945
8.3499
8.2576
8.16181
8.06099
7.95661
7.85165
7.74224
7.6234
7.49516
7.35927
7.2153
7.06604
6.9118
6.75235
6.58331
6.41828
6.241
6.06806
5.88656
1
1
1
1
1
1
1
1
1
1
1
1
1
1
1
1
1
1
1
1
1
1
1
1
1
1
1
1
1
1
1
1
1
1
1
1
1
1
1
1
1
1
1
1
1
1
1
1
1
1
1
1
1
1
1
1
1
1
1
1.01138
3.02534
8.3144
8.96013
8.89887
8.87016
8.84423
8.82011
8.79266
8.76534
8.7321
8.69143
8.6444
8.59065
8.5353
8.477
8.41217
8.33956
8.26267
8.17373
8.08054
7.98224
7.87972
7.77552
7.66653
7.55081
7.42961
7.30184
7.16856
7.02827
6.88468
6.73336
6.57647
6.41943
6.25343
6.09071
5.92221
1
1
1
1
1
1
1
1
1
1
1
1
1
1
1
1
1
1
1
1
1
1
1
1
1
1
1
1
1
1
1
1
1
1
1
1
1
1
1
1
1
1
1
1
1
1
1
1
1
1
1
1
1
1
1
1
1
1
1
1.00002
1.10663
4.35873
8.60313
8.79533
8.77055
8.76872
8.75322
8.73143
8.70309
8.6673
8.62417
8.57571
8.52157
8.4621
8.40416
8.33665
8.26195
8.18492
8.09873
8.00745
7.91194
7.81241
7.71098
7.60414
7.49115
7.37446
7.25324
7.12781
6.9958
6.86079
6.71767
6.57118
6.42144
6.26582
6.1107
5.9546
1
1
1
1
1
1
1
1
1
1
1
1
1
1
1
1
1
1
1
1
1
1
1
1
1
1
1
1
1
1
1
1
1
1
1
1
1
1
1
1
1
1
1
1
1
1
1
1
1
1
1
1
1
1
1
1
1
1
1
1
1.00049
1.29214
5.1835
8.58028
8.71401
8.71464
8.70263
8.67696
8.64473
8.60643
8.5618
8.51143
8.45624
8.39467
8.33229
8.26416
8.18877
8.11096
8.02693
7.93846
7.8461
7.7501
7.65189
7.5491
7.43988
7.32642
7.21109
7.09159
6.96641
6.8374
6.70132
6.56313
6.4218
6.27585
6.12821
5.98299
1
1
1
1
1
1
1
1
1
1
1
1
1
1
1
1
1
1
1
1
1
1
1
1
1
1
1
1
1
1
1
1
1
1
1
1
1
1
1
1
1
1
1
1
1
1
1
1
1
1
1
1
1
1
1
1
1
1
1
1
1
1.00279
1.48825
5.85372
8.5781
8.68785
8.65984
8.627
8.58947
8.54689
8.50019
8.44985
8.39433
8.33231
8.2683
8.19996
8.12634
8.04859
7.96593
7.87945
7.78944
7.69625
7.60112
7.50254
7.39814
7.28779
7.17617
7.06122
6.94165
6.81687
6.6866
6.55446
6.421
6.28347
6.14379
6.00746
1
1
1
1
1
1
1
1
1
1
1
1
1
1
1
1
1
1
1
1
1
1
1
1
1
1
1
1
1
1
1
1
1
1
1
1
1
1
1
1
1
1
1
1
1
1
1
1
1
1
1
1
1
1
1
1
1
1
1
1
1
1
1.00713
1.71372
6.4339
8.56104
8.60841
8.57833
8.53526
8.4902
8.44087
8.38891
8.33126
8.2698
8.20681
8.13875
8.06612
7.98922
7.90862
7.82482
7.73747
7.64697
7.55416
7.45834
7.35781
7.25131
7.14187
7.03026
6.91479
6.79465
6.67145
6.54574
6.42005
6.29037
6.15861
6.02902
1
1
1
1
1
1
1
1
1
1
1
1
1
1
1
1
1
1
1
1
1
1
1
1
1
1
1
1
1
1
1
1
1
1
1
1
1
1
1
1
1
1
1
1
1
1
1
1
1
1
1
1
1
1
1
1
1
1
1
1
1
1
1.00001
1.01442
1.97392
6.87782
8.53002
8.5367
8.49925
8.44669
8.39475
8.33839
8.2758
8.21271
8.1482
8.08039
8.00946
7.93518
7.85777
7.7773
7.69325
7.60564
7.51446
7.41982
7.32126
7.2177
7.10989
7.00066
6.88917
6.77569
6.66026
6.54132
6.42177
6.29885
6.17373
6.04939
1
1
1
1
1
1
1
1
1
1
1
1
1
1
1
1
1
1
1
1
1
1
1
1
1
1
1
1
1
1
1
1
1
1
1
1
1
1
1
1
1
1
1
1
1
1
1
1
1
1
1
1
1
1
1
1
1
1
1
1
1
1
1
1.00003
1.02599
2.23342
7.26071
8.49331
8.45586
8.40681
8.34555
8.28366
8.22012
8.15604
8.08949
8.02248
7.95337
7.88171
7.80734
7.73002
7.64896
7.56385
7.47455
7.38156
7.2852
7.18468
7.08025
6.97465
6.86791
6.76061
6.65125
6.53771
6.42241
6.30536
6.18593
6.0667
1
1
1
1
1
1
1
1
1
1
1
1
1
1
1
1
1
1
1
1
1
1
1
1
1
1
1
1
1
1
1
1
1
1
1
1
1
1
1
1
1
1
1
1
1
1
1
1
1
1
1
1
1
1
1
1
1
1
1
1
1
1
1
1
1.00008
1.04101
2.60997
7.49977
8.38924
8.33832
8.29313
8.23041
8.16535
8.10154
8.03841
7.9746
7.90812
7.83827
7.7652
7.68893
7.60886
7.52502
7.43723
7.34625
7.25253
7.15551
7.05555
6.95418
6.85159
6.74842
6.6432
6.53393
6.42243
6.31085
6.19711
6.08269
1
1
1
1
1
1
1
1
1
1
1
1
1
1
1
1
1
1
1
1
1
1
1
1
1
1
1
1
1
1
1
1
1
1
1
1
1
1
1
1
1
1
1
1
1
1
1
1
1
1
1
1
1
1
1
1
1
1
1
1
1
1
1
1
1
1.00015
1.06868
2.90033
7.56009
8.27721
8.22272
8.16634
8.11176
8.05369
7.99482
7.93288
7.86747
7.79864
7.72623
7.65047
7.57135
7.48906
7.40363
7.31545
7.22451
7.13071
7.03474
6.9374
6.83868
6.73873
6.63671
6.53072
6.42269
6.31537
6.2068
6.09572
1
1
1
1
1
1
1
1
1
1
1
1
1
1
1
1
1
1
1
1
1
1
1
1
1
1
1
1
1
1
1
1
1
1
1
1
1
1
1
1
1
1
1
1
1
1
1
1
1
1
1
1
1
1
1
1
1
1
1
1
1
1
1
1
1
1
1.00032
1.0963
3.00221
7.49099
8.16564
8.11682
8.06718
8.016
7.96101
7.90113
7.83615
7.76593
7.69198
7.61587
7.53726
7.45625
7.37288
7.2871
7.19872
7.1078
7.0152
6.92118
6.82579
6.72832
6.62918
6.526
6.42192
6.31747
6.2137
6.10455
1
1
1
1
1
1
1
1
1
1
1
1
1
1
1
1
1
1
1
1
1
1
1
1
1
1
1
1
1
1
1
1
1
1
1
1
1
1
1
1
1
1
1
1
1
1
1
1
1
1
1
1
1
1
1
1
1
1
1
1
1
1
1
1
1
1
1
1.00054
1.10897
2.9465
7.36409
8.08155
8.03785
7.98876
7.93165
7.86976
7.80421
7.7341
7.66049
7.58433
7.50596
7.42592
7.34421
7.26051
7.17469
7.08668
6.99708
6.90624
6.8138
6.7191
6.62228
6.52211
6.42119
6.31854
6.21614
6.10981
1
1
1
1
1
1
1
1
1
1
1
1
1
1
1
1
1
1
1
1
1
1
1
1
1
1
1
1
1
1
1
1
1
1
1
1
1
1
1
1
1
1
1
1
1
1
1
1
1
1
1
1
1
1
1
1
1
1
1
1
1
1
1
1
1
1
1
1
1.00068
1.1047
2.87018
7.18573
7.98913
7.95447
7.89502
7.83388
7.76615
7.69793
7.62804
7.55426
7.4777
7.39923
7.31906
7.23717
7.15353
7.06826
6.98132
6.8927
6.80238
6.70942
6.61442
6.51464
6.41566
6.31453
6.21808
6.11645
1
1
1
1
1
1
1
1
1
1
1
1
1
1
1
1
1
1
1
1
1
1
1
1
1
1
1
1
1
1
1
1
1
1
1
1
1
1
1
1
1
1
1
1
1
1
1
1
1
1
1
1
1
1
1
1
1
1
1
1
1
1
1
1
1
1
1
1
1
1.00064
1.09698
2.7414
6.93994
7.88825
7.86248
7.79708
7.7329
7.66436
7.59554
7.524
7.45024
7.3738
7.29522
7.21448
7.13302
7.04928
6.96474
6.87782
6.78805
6.69499
6.6012
6.50646
6.41387
6.31877
6.24166
6.17316
1
1
1
1
1
1
1
1
1
1
1
1
1
1
1
1
1
1
1
1
1
1
1
1
1
1
1
1
1
1
1
1
1
1
1
1
1
1
1
1
1
1
1
1
1
1
1
1
1
1
1
1
1
1
1
1
1
1
1
1
1
1
1
1
1
1
1
1
1
1
1.00058
1.08424
2.5557
6.61525
7.76912
7.76398
7.69698
7.63456
7.56608
7.49596
7.42357
7.34917
7.27252
7.19423
7.11448
7.03256
6.94783
6.86073
6.77252
6.68421
6.59315
6.50682
6.44397
6.4044
6.40942
6.47924
1
1
1
1
1
1
1
1
1
1
1
1
1
1
1
1
1
1
1
1
1
1
1
1
1
1
1
1
1
1
1
1
1
1
1
1
1
1
1
1
1
1
1
1
1
1
1
1
1
1
1
1
1
1
1
1
1
1
1
1
1
1
1
1
1
1
1
1
1
1
1
1.00048
1.06745
2.32841
6.17213
7.63991
7.67629
7.60477
7.53971
7.46851
7.39692
7.32376
7.24912
7.1733
7.09564
7.01345
6.93207
6.84605
6.75894
6.68956
6.6371
6.62573
6.67449
6.83367
7.06798
7.34558
1
1
1
1
1
1
1
1
1
1
1
1
1
1
1
1
1
1
1
1
1
1
1
1
1
1
1
1
1
1
1
1
1
1
1
1
1
1
1
1
1
1
1
1
1
1
1
1
1
1
1
1
1
1
1
1
1
1
1
1
1
1
1
1
1
1
1
1
1
1
1
1
1.00035
1.04964
2.06734
5.60129
7.48524
7.60098
7.50656
7.43856
7.36835
7.30039
7.22989
7.15431
7.07638
6.99733
6.91731
6.8543
6.81692
6.83453
6.95145
7.18851
7.48765
7.83185
8.06308
8.20127
1
1
1
1
1
1
1
1
1
1
1
1
1
1
1
1
1
1
1
1
1
1
1
1
1
1
1
1
1
1
1
1
1
1
1
1
1
1
1
1
1
1
1
1
1
1
1
1
1
1
1
1
1
1
1
1
1
1
1
1
1
1
1
1
1
1
1
1
1
1
1
1
1
1.00022
1.03284
1.79635
4.86833
7.30581
7.49598
7.41298
7.35208
7.28757
7.20833
7.1362
7.06305
7.00724
6.98922
7.04051
7.23492
7.55864
7.96119
8.2998
8.50218
8.57469
8.56092
8.52523
1
1
1
1
1
1
1
1
1
1
1
1
1
1
1
1
1
1
1
1
1
1
1
1
1
1
1
1
1
1
1
1
1
1
1
1
1
1
1
1
1
1
1
1
1
1
1
1
1
1
1
1
1
1
1
1
1
1
1
1
1
1
1
1
1
1
1
1
1
1
1
1
1
1
1.00012
1.01932
1.53246
4.08996
7.00677
7.39695
7.35259
7.2825
7.19396
7.13391
7.13112
7.23807
7.50283
7.91268
8.40952
8.75839
8.96124
9.04139
9.00666
8.89568
8.7657
8.66822
1
1
1
1
1
1
1
1
1
1
1
1
1
1
1
1
1
1
1
1
1
1
1
1
1
1
1
1
1
1
1
1
1
1
1
1
1
1
1
1
1
1
1
1
1
1
1
1
1
1
1
1
1
1
1
1
1
1
1
1
1
1
1
1
1
1
1
1
1
1
1
1
1
1
1
1.00006
1.00969
1.32026
3.34104
6.54636
7.30989
7.20884
7.23635
7.43149
7.77996
8.32262
8.83989
9.1891
9.38919
9.38712
9.30795
9.22595
9.13399
9.00447
8.87522
8.7788
1
1
1
1
1
1
1
1
1
1
1
1
1
1
1
1
1
1
1
1
1
1
1
1
1
1
1
1
1
1
1
1
1
1
1
1
1
1
1
1
1
1
1
1
1
1
1
1
1
1
1
1
1
1
1
1
1
1
1
1
1
1
1
1
1
1
1
1
1
1
1
1
1
1
1
1
1.00002
1.00423
1.17403
2.6661
5.93304
7.14605
8.12582
8.6719
9.22966
9.63961
9.77866
9.7976
9.72204
9.60161
9.44368
9.30373
9.18749
9.07867
8.97281
8.88494
1
1
1
1
1
1
1
1
1
1
1
1
1
1
1
1
1
1
1
1
1
1
1
1
1
1
1
1
1
1
1
1
1
1
1
1
1
1
1
1
1
1
1
1
1
1
1
1
1
1
1
1
1
1
1
1
1
1
1
1
1
1
1
1
1
1
1
1
1
1
1
1
1
1
1
1
1
1.00001
1.00156
1.08609
2.05341
6.48291
10.0113
10.1503
10.2173
10.1836
10.0607
9.91788
9.76993
9.64264
9.51663
9.39161
9.28993
9.2106
9.13114
9.04656
1
1
1
1
1
1
1
1
1
1
1
1
1
1
1
1
1
1
1
1
1
1
1
1
1
1
1
1
1
1
1
1
1
1
1
1
1
1
1
1
1
1
1
1
1
1
1
1
1
1
1
1
1
1
1
1
1
1
1
1
1
1
1
1
1
1
1
1
1
1
1
1
1
1
1
1
1
1
1
1.00058
1.03264
4.85779
10.7044
10.6881
10.5138
10.317
10.1284
9.96453
9.83734
9.73649
9.62577
9.49033
9.38367
9.3197
9.25346
9.17745
1
1
1
1
1
1
1
1
1
1
1
1
1
1
1
1
1
1
1
1
1
1
1
1
1
1
1
1
1
1
1
1
1
1
1
1
1
1
1
1
1
1
1
1
1
1
1
1
1
1
1
1
1
1
1
1
1
1
1
1
1
1
1
1
1
1
1
1
1
1
1
1
1
1
1
1
1
1
1
1
1.00009
3.52562
9.81245
10.2887
10.1991
10.1095
10.0041
9.91399
9.82611
9.73739
9.64847
9.56322
9.51085
9.47969
9.42392
9.34817
1
1
1
1
1
1
1
1
1
1
1
1
1
1
1
1
1
1
1
1
1
1
1
1
1
1
1
1
1
1
1
1
1
1
1
1
1
1
1
1
1
1
1
1
1
1
1
1
1
1
1
1
1
1
1
1
1
1
1
1
1
1
1
1
1
1
1
1
1
1
1
1
1
1
1
1
1
1
1
1
1
1.94717
8.522
10.2832
10.1469
10.1139
10.0578
10.0182
9.95818
9.89694
9.83019
9.77323
9.7173
9.65005
9.56969
9.49338
1
1
1
1
1
1
1
1
1
1
1
1
1
1
1
1
1
1
1
1
1
1
1
1
1
1
1
1
1
1
1
1
1
1
1
1
1
1
1
1
1
1
1
1
1
1
1
1
1
1
1
1
1
1
1
1
1
1
1
1
1
1
1
1
1
1
1
1
1
1
1
1
1
1
1
1
1
1
1
1
1
1.04053
6.48425
10.157
10.1784
10.143
10.1006
10.0512
9.98834
9.92757
9.86817
9.81421
9.74854
9.68085
9.60746
9.54412
1
1
1
1
1
1
1
1
1
1
1
1
1
1
1
1
1
1
1
1
1
1
1
1
1
1
1
1
1
1
1
1
1
1
1
1
1
1
1
1
1
1
1
1
1
1
1
1
1
1
1
1
1
1
1
1
1
1
1
1
1
1
1
1
1
1
1
1
1
1
1
1
1
1
1
1
1
1
1
1
1
1.00005
4.30638
9.6694
10.1115
10.0749
10.0569
10.0317
9.99765
9.95704
9.9103
9.86525
9.81561
9.76689
9.71582
9.66241
1
1
1
1
1
1
1
1
1
1
1
1
1
1
1
1
1
1
1
1
1
1
1
1
1
1
1
1
1
1
1
1
1
1
1
1
1
1
1
1
1
1
1
1
1
1
1
1
1
1
1
1
1
1
1
1
1
1
1
1
1
1
1
1
1
1
1
1
1
1
1
1
1
1
1
1
1
1
1
1
1
1
2.35591
8.65768
10.2142
10.1625
10.1201
10.0771
10.0409
10.0017
9.95815
9.91066
9.85916
9.80842
9.75455
9.70225
1
1
1
1
1
1
1
1
1
1
1
1
1
1
1
1
1
1
1
1
1
1
1
1
1
1
1
1
1
1
1
1
1
1
1
1
1
1
1
1
1
1
1
1
1
1
1
1
1
1
1
1
1
1
1
1
1
1
1
1
1
1
1
1
1
1
1
1
1
1
1
1
1
1
1
1
1
1
1
1
1
1
1.10266
7.12552
10.2859
10.2249
10.1523
10.0952
10.0471
10.0096
9.97177
9.93254
9.89017
9.84655
9.79793
9.74393
1
1
1
1
1
1
1
1
1
1
1
1
1
1
1
1
1
1
1
1
1
1
1
1
1
1
1
1
1
1
1
1
1
1
1
1
1
1
1
1
1
1
1
1
1
1
1
1
1
1
1
1
1
1
1
1
1
1
1
1
1
1
1
1
1
1
1
1
1
1
1
1
1
1
1
1
1
1
1
1
1
1
1.00033
5.27386
10.0044
10.1766
10.1447
10.1179
10.082
10.044
10.0018
9.95855
9.9134
9.86727
9.82081
9.77356
1
1
1
1
1
1
1
1
1
1
1
1
1
1
1
1
1
1
1
1
1
1
1
1
1
1
1
1
1
1
1
1
1
1
1
1
1
1
1
1
1
1
1
1
1
1
1
1
1
1
1
1
1
1
1
1
1
1
1
1
1
1
1
1
1
1
1
1
1
1
1
1
1
1
1
1
1
1
1
1
1
1
1
3.40021
9.40849
10.2196
10.1667
10.1384
10.0998
10.0579
10.0146
9.97072
9.92647
9.88149
9.83671
9.79062
1
1
1
1
1
1
1
1
1
1
1
1
1
1
1
1
1
1
1
1
1
1
1
1
1
1
1
1
1
1
1
1
1
1
1
1
1
1
1
1
1
1
1
1
1
1
1
1
1
1
1
1
1
1
1
1
1
1
1
1
1
1
1
1
1
1
1
1
1
1
1
1
1
1
1
1
1
1
1
1
1
1
1
1.97386
8.5297
10.3363
10.246
10.1982
10.149
10.1014
10.0546
10.0085
9.96278
9.9166
9.87024
9.82312
1
1
1
1
1
1
1
1
1
1
1
1
1
1
1
1
1
1
1
1
1
1
1
1
1
1
1
1
1
1
1
1
1
1
1
1
1
1
1
1
1
1
1
1
1
1
1
1
1
1
1
1
1
1
1
1
1
1
1
1
1
1
1
1
1
1
1
1
1
1
1
1
1
1
1
1
1
1
1
1
1
1
1
1.10834
7.14221
10.3596
10.2793
10.2142
10.1629
10.1175
10.0734
10.0299
9.98626
9.94194
9.89671
9.85036
1
1
1
1
1
1
1
1
1
1
1
1
1
1
1
1
1
1
1
1
1
1
1
1
1
1
1
1
1
1
1
1
1
1
1
1
1
1
1
1
1
1
1
1
1
1
1
1
1
1
1
1
1
1
1
1
1
1
1
1
1
1
1
1
1
1
1
1
1
1
1
1
1
1
1
1
1
1
1
1
1
1
1
1.00057
5.62945
10.1496
10.2471
10.2039
10.1725
10.1349
10.0962
10.056
10.0141
9.97089
9.92651
9.88083
1
1
1
1
1
1
1
1
1
1
1
1
1
1
1
1
1
1
1
1
1
1
1
1
1
1
1
1
1
1
1
1
1
1
1
1
1
1
1
1
1
1
1
1
1
1
1
1
1
1
1
1
1
1
1
1
1
1
1
1
1
1
1
1
1
1
1
1
1
1
1
1
1
1
1
1
1
1
1
1
1
1
1
1
4.20412
9.79693
10.2675
10.22
10.195
10.1597
10.1233
10.0841
10.0426
9.99953
9.95529
9.90999
1
1
1
1
1
1
1
1
1
1
1
1
1
1
1
1
1
1
1
1
1
1
1
1
1
1
1
1
1
1
1
1
1
1
1
1
1
1
1
1
1
1
1
1
1
1
1
1
1
1
1
1
1
1
1
1
1
1
1
1
1
1
1
1
1
1
1
1
1
1
1
1
1
1
1
1
1
1
1
1
1
1
1
1
2.94625
9.29863
10.3196
10.2551
10.2245
10.1845
10.1448
10.1036
10.0619
10.0191
9.97555
9.93177
1
1
1
1
1
1
1
1
1
1
1
1
1
1
1
1
1
1
1
1
1
1
1
1
1
1
1
1
1
1
1
1
1
1
1
1
1
1
1
1
1
1
1
1
1
1
1
1
1
1
1
1
1
1
1
1
1
1
1
1
1
1
1
1
1
1
1
1
1
1
1
1
1
1
1
1
1
1
1
1
1
1
1
1
1.97454
8.6015
10.3725
10.2949
10.2554
10.2125
10.1712
10.1296
10.0876
10.0445
10.0004
9.95621
1
1
1
1
1
1
1
1
1
1
1
1
1
1
1
1
1
1
1
1
1
1
1
1
1
1
1
1
1
1
1
1
1
1
1
1
1
1
1
1
1
1
1
1
1
1
1
1
1
1
1
1
1
1
1
1
1
1
1
1
1
1
1
1
1
1
1
1
1
1
1
1
1
1
1
1
1
1
1
1
1
1
1
1
1.37545
7.71035
10.4229
10.3346
10.2805
10.2327
10.1888
10.1455
10.1025
10.0596
10.0159
9.97239
1
1
1
1
1
1
1
1
1
1
1
1
1
1
1
1
1
1
1
1
1
1
1
1
1
1
1
1
1
1
1
1
1
1
1
1
1
1
1
1
1
1
1
1
1
1
1
1
1
1
1
1
1
1
1
1
1
1
1
1
1
1
1
1
1
1
1
1
1
1
1
1
1
1
1
1
1
1
1
1
1
1
1
1
1.0096
6.72886
10.3634
10.3585
10.2946
10.2536
10.21
10.1666
10.1226
10.079
10.0345
9.99011
1
1
1
1
1
1
1
1
1
1
1
1
1
1
1
1
1
1
1
1
1
1
1
1
1
1
1
1
1
1
1
1
1
1
1
1
1
1
1
1
1
1
1
1
1
1
1
1
1
1
1
1
1
1
1
1
1
1
1
1
1
1
1
1
1
1
1
1
1
1
1
1
1
1
1
1
1
1
1
1
1
1
1
1
1.00001
5.76604
10.2431
10.3511
10.2923
10.2582
10.2162
10.1745
10.1315
10.0888
10.0454
10.0015
1
1
1
1
1
1
1
1
1
1
1
1
1
1
1
1
1
1
1
1
1
1
1
1
1
1
1
1
1
1
1
1
1
1
1
1
1
1
1
1
1
1
1
1
1
1
1
1
1
1
1
1
1
1
1
1
1
1
1
1
1
1
1
1
1
1
1
1
1
1
1
1
1
1
1
1
1
1
1
1
1
1
1
1
1
4.84283
10.0952
10.3782
10.3177
10.2854
10.2443
10.2029
10.1598
10.1165
10.0725
10.0278
1
1
1
1
1
1
1
1
1
1
1
1
1
1
1
1
1
1
1
1
1
1
1
1
1
1
1
1
1
1
1
1
1
1
1
1
1
1
1
1
1
1
1
1
1
1
1
1
1
1
1
1
1
1
1
1
1
1
1
1
1
1
1
1
1
1
1
1
1
1
1
1
1
1
1
1
1
1
1
1
1
1
1
1
1
4.06509
9.89392
10.4124
10.3374
10.3011
10.2582
10.2159
10.1726
10.1291
10.0853
10.0407
1
1
1
1
1
1
1
1
1
1
1
1
1
1
1
1
1
1
1
1
1
1
1
1
1
1
1
1
1
1
1
1
1
1
1
1
1
1
1
1
1
1
1
1
1
1
1
1
1
1
1
1
1
1
1
1
1
1
1
1
1
1
1
1
1
1
1
1
1
1
1
1
1
1
1
1
1
1
1
1
1
1
1
1
1
3.44445
9.65566
10.4372
10.3532
10.3169
10.2739
10.2303
10.1855
10.141
10.0967
10.052
1
1
1
1
1
1
1
1
1
1
1
1
1
1
1
1
1
1
1
1
1
1
1
1
1
1
1
1
1
1
1
1
1
1
1
1
1
1
1
1
1
1
1
1
1
1
1
1
1
1
1
1
1
1
1
1
1
1
1
1
1
1
1
1
1
1
1
1
1
1
1
1
1
1
1
1
1
1
1
1
1
1
1
1
1
2.93462
9.44777
10.4536
10.3634
10.3236
10.2791
10.2357
10.1919
10.1479
10.1039
10.0598
1
1
1
1
1
1
1
1
1
1
1
1
1
1
1
1
1
1
1
1
1
1
1
1
1
1
1
1
1
1
1
1
1
1
1
1
1
1
1
1
1
1
1
1
1
1
1
1
1
1
1
1
1
1
1
1
1
1
1
1
1
1
1
1
1
1
1
1
1
1
1
1
1
1
1
1
1
1
1
1
1
1
1
1
1
2.56624
9.22709
10.4512
10.363
10.3235
10.2797
10.2378
10.1955
10.1524
10.1092
10.0658
1
1
1
1
1
1
1
1
1
1
1
1
1
1
1
1
1
1
1
1
1
1
1
1
1
1
1
1
1
1
1
1
1
1
1
1
1
1
1
1
1
1
1
1
1
1
1
1
1
1
1
1
1
1
1
1
1
1
1
1
1
1
1
1
1
1
1
1
1
1
1
1
1
1
1
1
1
1
1
1
1
1
1
1
1
2.30931
9.02165
10.4344
10.3537
10.317
10.2752
10.235
10.1942
10.1526
10.111
10.0689
1
1
1
1
1
1
1
1
1
1
1
1
1
1
1
1
1
1
1
1
1
1
1
1
1
1
1
1
1
1
1
1
1
1
1
1
1
1
1
1
1
1
1
1
1
1
1
1
1
1
1
1
1
1
1
1
1
1
1
1
1
1
1
1
1
1
1
1
1
1
1
1
1
1
1
1
1
1
1
1
1
1
1
1
1
2.12743
8.84403
10.4146
10.3428
10.309
10.2694
10.2314
10.1923
10.1525
10.1125
10.0711
1
1
1
1
1
1
1
1
1
1
1
1
1
1
1
1
1
1
1
1
1
1
1
1
1
1
1
1
1
1
1
1
1
1
1
1
1
1
1
1
1
1
1
1
1
1
1
1
1
1
1
1
1
1
1
1
1
1
1
1
1
1
1
1
1
1
1
1
1
1
1
1
1
1
1
1
1
1
1
1
1
1
1
1
1
2.00002
8.70363
10.3998
10.3345
10.3021
10.2641
10.2273
10.1895
10.1511
10.1121
10.072
1
1
1
1
1
1
1
1
1
1
1
1
1
1
1
1
1
1
1
1
1
1
1
1
1
1
1
1
1
1
1
1
1
1
1
1
1
1
1
1
1
1
1
1
1
1
1
1
1
1
1
1
1
1
1
1
1
1
1
1
1
1
1
1
1
1
1
1
1
1
1
1
1
1
1
1
1
1
1
1
1
1
1
1
1
1.91744
8.60491
10.3902
10.3292
10.2969
10.2599
10.2237
10.1867
10.1491
10.1107
10.0721
1
1
1
1
1
1
1
1
1
1
1
1
1
1
1
1
1
1
1
1
1
1
1
1
1
1
1
1
1
1
1
1
1
1
1
1
1
1
1
1
1
1
1
1
1
1
1
1
1
1
1
1
1
1
1
1
1
1
1
1
1
1
1
1
1
1
1
1
1
1
1
1
1
1
1
1
1
1
1
1
1
1
1
1
1
1.88083
8.55175
10.3783
10.3224
10.2917
10.2559
10.2207
10.1848
10.1482
10.1108
10.0733
1.13387
0.228188
0.027902
0.022715
0.0509795
0.0767421
0.0902782
0.114053
0.172415
0.250961
0.323401
0.396757
0.477699
0.542469
0.600346
0.695233