/*--------------------------------*- C++ -*----------------------------------*\
  =========                 |
  \\      /  F ield         | OpenFOAM: The Open Source CFD Toolbox
   \\    /   O peration     | Website:  https://openfoam.org
    \\  /    A nd           | Version:  7
     \\/     M anipulation  |
\*---------------------------------------------------------------------------*/
FoamFile
{
    version     2.0;
    format      ascii;
    class       volScalarField;
    location    "6.5";
    object      rho;
}
// * * * * * * * * * * * * * * * * * * * * * * * * * * * * * * * * * * * * * //

dimensions      [1 -3 0 0 0 0 0];

internalField   nonuniform List<scalar> 
19968
(
1.40001
1.40001
1.40001
1.40001
1.40001
1.40001
1.40001
1.40001
1.40001
1.40001
1.40001
1.40001
1.40001
1.40001
1.40001
1.40001
1.40001
1.40001
1.40001
1.40001
1.40001
1.40001
1.40001
1.40001
1.40001
1.40001
1.40001
1.40001
1.40001
1.40001
1.40001
1.40001
1.40001
1.40001
1.40001
1.40001
1.40001
1.40001
1.40001
1.40001
1.40001
1.40001
1.40001
1.40001
1.40001
1.40001
1.40001
1.40001
1.71066
4.58429
5.42181
5.43939
5.46244
5.48419
5.5053
5.52438
5.54253
5.56141
5.58166
5.60286
5.62412
5.64384
5.66126
5.6771
5.69305
5.71119
5.73174
5.75244
5.7705
5.78464
5.79581
5.80626
5.81804
5.83217
5.84824
5.86443
5.87899
5.89145
5.90258
5.91333
5.92411
5.9345
5.94373
5.95145
5.95818
5.9649
5.97238
5.98055
5.98852
5.99521
6.00017
6.00372
6.00651
6.0088
6.01082
6.01201
1.40001
1.40001
1.40001
1.40001
1.40001
1.40001
1.40001
1.40001
1.40001
1.40001
1.40001
1.40001
1.40001
1.40001
1.40001
1.40001
1.40001
1.40001
1.40001
1.40001
1.40001
1.40001
1.40001
1.40001
1.40001
1.40001
1.40001
1.40001
1.40001
1.40001
1.40001
1.40001
1.40001
1.40001
1.40001
1.40001
1.40001
1.40001
1.40001
1.40001
1.40001
1.40001
1.40001
1.40001
1.40001
1.40001
1.40001
1.40001
1.69484
4.55993
5.41765
5.43744
5.46154
5.48311
5.50428
5.52369
5.542
5.56085
5.58099
5.60205
5.62326
5.64284
5.66022
5.676
5.69202
5.71015
5.73059
5.75111
5.76904
5.78315
5.79437
5.80493
5.81681
5.831
5.84698
5.86298
5.87731
5.88963
5.90071
5.91151
5.92237
5.93284
5.94211
5.94985
5.95655
5.96319
5.97052
5.97848
5.98628
5.99289
5.99787
6.00147
6.00425
6.00642
6.00825
6.00932
1.40001
1.40001
1.40001
1.40001
1.40001
1.40001
1.40001
1.40001
1.40001
1.40001
1.40001
1.40001
1.40001
1.40001
1.40001
1.40001
1.40001
1.40001
1.40001
1.40001
1.40001
1.40001
1.40001
1.40001
1.40001
1.40001
1.40001
1.40001
1.40001
1.40001
1.40001
1.40001
1.40001
1.40001
1.40001
1.40001
1.40001
1.40001
1.40001
1.40001
1.40001
1.40001
1.40001
1.40001
1.40001
1.40001
1.40001
1.40001
1.65902
4.50805
5.41495
5.43207
5.45737
5.47911
5.50102
5.5214
5.54039
5.55948
5.57936
5.59975
5.62051
5.63984
5.65737
5.67339
5.68969
5.70786
5.72808
5.74828
5.76601
5.78013
5.79155
5.80236
5.81443
5.82861
5.84436
5.86002
5.87407
5.88625
5.89732
5.90818
5.91911
5.92966
5.939
5.94679
5.95349
5.96005
5.96721
5.975
5.9827
5.9894
5.99458
5.99831
6.00104
6.00295
6.0044
6.00517
1.40001
1.40001
1.40001
1.40001
1.40001
1.40001
1.40001
1.40001
1.40001
1.40001
1.40001
1.40001
1.40001
1.40001
1.40001
1.40001
1.40001
1.40001
1.40001
1.40001
1.40001
1.40001
1.40001
1.40001
1.40001
1.40001
1.40001
1.40001
1.40001
1.40001
1.40001
1.40001
1.40001
1.40001
1.40001
1.40001
1.40001
1.40001
1.40001
1.40001
1.40001
1.40001
1.40001
1.40001
1.40001
1.40001
1.40001
1.40001
1.60612
4.42025
5.41083
5.42604
5.45193
5.47421
5.49707
5.51865
5.53857
5.55792
5.57729
5.59662
5.61664
5.63571
5.65351
5.6699
5.68652
5.70462
5.72442
5.74404
5.7614
5.7755
5.78721
5.7984
5.81076
5.82498
5.84045
5.85567
5.86935
5.88135
5.89238
5.90325
5.91421
5.92478
5.93415
5.94192
5.94853
5.95485
5.96164
5.96903
5.9765
5.98326
5.98873
5.99279
5.99562
5.99741
5.99852
5.99907
1.40001
1.40001
1.40001
1.40001
1.40001
1.40001
1.40001
1.40001
1.40001
1.40001
1.40001
1.40001
1.40001
1.40001
1.40001
1.40001
1.40001
1.40001
1.40001
1.40001
1.40001
1.40001
1.40001
1.40001
1.40001
1.40001
1.40001
1.40001
1.40001
1.40001
1.40001
1.40001
1.40001
1.40001
1.40001
1.40001
1.40001
1.40001
1.40001
1.40001
1.40001
1.40001
1.40001
1.40001
1.40001
1.40001
1.40001
1.40001
1.53587
4.29907
5.41181
5.4222
5.44689
5.46932
5.49279
5.51519
5.53564
5.55477
5.57337
5.59174
5.6113
5.63029
5.64843
5.66531
5.68227
5.70028
5.71951
5.7384
5.75528
5.7694
5.78154
5.79329
5.80609
5.82041
5.83559
5.85034
5.86366
5.8755
5.88651
5.89742
5.90841
5.91903
5.92846
5.93628
5.94281
5.94885
5.95512
5.96188
5.96881
5.9753
5.98072
5.98475
5.98736
5.98877
5.98938
5.98966
1.40001
1.40001
1.40001
1.40001
1.40001
1.40001
1.40001
1.40001
1.40001
1.40001
1.40001
1.40001
1.40001
1.40001
1.40001
1.40001
1.40001
1.40001
1.40001
1.40001
1.40001
1.40001
1.40001
1.40001
1.40001
1.40001
1.40001
1.40001
1.40001
1.40001
1.40001
1.40001
1.40001
1.40001
1.40001
1.40001
1.40001
1.40001
1.40001
1.40001
1.40001
1.40001
1.40001
1.40001
1.40001
1.40001
1.40001
1.40001
1.41573
4.10282
5.41324
5.42202
5.44242
5.46576
5.49016
5.51336
5.534
5.5523
5.56967
5.58713
5.60625
5.62512
5.64341
5.66075
5.67785
5.69545
5.71368
5.73137
5.74739
5.76125
5.7736
5.78568
5.79868
5.81287
5.82753
5.84157
5.85428
5.86576
5.87659
5.88739
5.89832
5.90893
5.91844
5.92638
5.93295
5.93886
5.94485
5.95127
5.95802
5.96457
5.97027
5.97459
5.97735
5.97875
5.97916
5.97945
1.40001
1.40001
1.40001
1.40001
1.40001
1.40001
1.40001
1.40001
1.40001
1.40001
1.40001
1.40001
1.40001
1.40001
1.40001
1.40001
1.40001
1.40001
1.40001
1.40001
1.40001
1.40001
1.40001
1.40001
1.40001
1.40001
1.40001
1.40001
1.40001
1.40001
1.40001
1.40001
1.40001
1.40001
1.40001
1.40001
1.40001
1.40001
1.40001
1.40001
1.40001
1.40001
1.40001
1.40001
1.40001
1.40001
1.40001
1.40001
1.40014
3.80259
5.3743
5.40563
5.42568
5.45146
5.47675
5.50057
5.52154
5.53986
5.55694
5.5741
5.59285
5.61164
5.62994
5.64765
5.66485
5.68225
5.69981
5.71671
5.73227
5.74625
5.75911
5.77178
5.78519
5.79945
5.81383
5.82738
5.83971
5.85101
5.86184
5.87272
5.88375
5.8945
5.9042
5.91233
5.91901
5.92486
5.93061
5.93672
5.94323
5.94968
5.95545
5.95992
5.96282
5.96441
5.96487
5.96539
1.40001
1.40001
1.40001
1.40001
1.40001
1.40001
1.40001
1.40001
1.40001
1.40001
1.40001
1.40001
1.40001
1.40001
1.40001
1.40001
1.40001
1.40001
1.40001
1.40001
1.40001
1.40001
1.40001
1.40001
1.40001
1.40001
1.40001
1.40001
1.40001
1.40001
1.40001
1.40001
1.40001
1.40001
1.40001
1.40001
1.40001
1.40001
1.40001
1.40001
1.40001
1.40001
1.40001
1.40001
1.40001
1.40001
1.40001
1.40001
1.40001
3.40121
5.32179
5.39726
5.4174
5.44449
5.4693
5.4927
5.51375
5.53248
5.54973
5.56674
5.58497
5.60338
5.6211
5.63828
5.6548
5.67142
5.68798
5.70396
5.71898
5.73284
5.74584
5.75857
5.77186
5.78575
5.79951
5.81234
5.82401
5.83485
5.8454
5.85613
5.86711
5.87787
5.88763
5.89583
5.90248
5.90816
5.9136
5.9193
5.9254
5.9315
5.93707
5.94149
5.94453
5.94646
5.94719
5.94809
1.40001
1.40001
1.40001
1.40001
1.40001
1.40001
1.40001
1.40001
1.40001
1.40001
1.40001
1.40001
1.40001
1.40001
1.40001
1.40001
1.40001
1.40001
1.40001
1.40001
1.40001
1.40001
1.40001
1.40001
1.40001
1.40001
1.40001
1.40001
1.40001
1.40001
1.40001
1.40001
1.40001
1.40001
1.40001
1.40001
1.40001
1.40001
1.40001
1.40001
1.40001
1.40001
1.40001
1.40001
1.40001
1.40001
1.40001
1.40001
1.40001
2.92295
5.23079
5.39642
5.41334
5.43911
5.46265
5.48529
5.50615
5.52518
5.54275
5.55971
5.57725
5.59479
5.61131
5.62724
5.64257
5.65804
5.67344
5.68847
5.70285
5.71624
5.72886
5.74108
5.75383
5.76713
5.78022
5.79228
5.80318
5.81331
5.82331
5.83366
5.84442
5.85507
5.86477
5.87294
5.87959
5.88524
5.89056
5.89602
5.90178
5.90754
5.91288
5.91729
5.92058
5.92303
5.9242
5.92554
1.40001
1.40001
1.40001
1.40001
1.40001
1.40001
1.40001
1.40001
1.40001
1.40001
1.40001
1.40001
1.40001
1.40001
1.40001
1.40001
1.40001
1.40001
1.40001
1.40001
1.40001
1.40001
1.40001
1.40001
1.40001
1.40001
1.40001
1.40001
1.40001
1.40001
1.40001
1.40001
1.40001
1.40001
1.40001
1.40001
1.40001
1.40001
1.40001
1.40001
1.40001
1.40001
1.40001
1.40001
1.40001
1.40001
1.40001
1.40001
1.40001
2.38724
5.05431
5.4013
5.4199
5.44256
5.46336
5.48372
5.50298
5.52117
5.53837
5.5549
5.5713
5.58738
5.60234
5.61659
5.63052
5.64479
5.65915
5.6733
5.68704
5.69973
5.7116
5.72278
5.73437
5.74651
5.75847
5.76929
5.77883
5.78761
5.79639
5.80578
5.81592
5.82628
5.83594
5.84422
5.85107
5.85688
5.86219
5.86732
5.87243
5.87739
5.88204
5.88605
5.88926
5.89188
5.89324
5.89476
1.40001
1.40001
1.40001
1.40001
1.40001
1.40001
1.40001
1.40001
1.40001
1.40001
1.40001
1.40001
1.40001
1.40001
1.40001
1.40001
1.40001
1.40001
1.40001
1.40001
1.40001
1.40001
1.40001
1.40001
1.40001
1.40001
1.40001
1.40001
1.40001
1.40001
1.40001
1.40001
1.40001
1.40001
1.40001
1.40001
1.40001
1.40001
1.40001
1.40001
1.40001
1.40001
1.40001
1.40001
1.40001
1.40001
1.40001
1.40001
1.40001
1.86939
4.73447
5.41777
5.41202
5.43326
5.45161
5.47148
5.49088
5.50944
5.527
5.54382
5.55987
5.57539
5.58994
5.60337
5.61626
5.62957
5.64324
5.65691
5.67035
5.68254
5.69371
5.70392
5.71436
5.72531
5.73614
5.74575
5.75377
5.7607
5.7674
5.7747
5.78299
5.79188
5.80047
5.80796
5.81416
5.81937
5.82405
5.82849
5.83288
5.83726
5.84159
5.84556
5.84892
5.85169
5.85312
5.85472
1.40001
1.40001
1.40001
1.40001
1.40001
1.40001
1.40001
1.40001
1.40001
1.40001
1.40001
1.40001
1.40001
1.40001
1.40001
1.40001
1.40001
1.40001
1.40001
1.40001
1.40001
1.40001
1.40001
1.40001
1.40001
1.40001
1.40001
1.40001
1.40001
1.40001
1.40001
1.40001
1.40001
1.40001
1.40001
1.40001
1.40001
1.40001
1.40001
1.40001
1.40001
1.40001
1.40001
1.40001
1.40001
1.40001
1.40001
1.40001
1.40001
1.42344
4.08839
5.40965
5.41935
5.43272
5.44841
5.4657
5.48335
5.50055
5.51706
5.533
5.54793
5.56181
5.5749
5.58683
5.59824
5.61025
5.62267
5.63504
5.64747
5.6588
5.66886
5.67783
5.68661
5.696
5.70557
5.71417
5.72103
5.72644
5.7312
5.7363
5.74252
5.74994
5.75779
5.76504
5.7711
5.77599
5.77998
5.78343
5.78636
5.78893
5.79124
5.793
5.79419
5.7951
5.79529
5.79604
1.40001
1.40001
1.40001
1.40001
1.40001
1.40001
1.40001
1.40001
1.40001
1.40001
1.40001
1.40001
1.40001
1.40001
1.40001
1.40001
1.40001
1.40001
1.40001
1.40001
1.40001
1.40001
1.40001
1.40001
1.40001
1.40001
1.40001
1.40001
1.40001
1.40001
1.40001
1.40001
1.40001
1.40001
1.40001
1.40001
1.40001
1.40001
1.40001
1.40001
1.40001
1.40001
1.40001
1.40001
1.40001
1.40001
1.40001
1.40001
1.40001
1.40005
3.20364
5.24447
5.36167
5.38821
5.41186
5.43159
5.44993
5.46691
5.48298
5.49841
5.51334
5.52724
5.5404
5.55281
5.5642
5.57573
5.58778
5.5998
5.61191
5.62322
5.63277
5.64101
5.64851
5.65663
5.66526
5.67326
5.67936
5.68343
5.68617
5.68866
5.69205
5.69699
5.70303
5.70871
5.71276
5.71499
5.71596
5.7161
5.71586
5.71641
5.71748
5.71887
5.71986
5.72086
5.72115
5.72192
1.40001
1.40001
1.40001
1.40001
1.40001
1.40001
1.40001
1.40001
1.40001
1.40001
1.40001
1.40001
1.40001
1.40001
1.40001
1.40001
1.40001
1.40001
1.40001
1.40001
1.40001
1.40001
1.40001
1.40001
1.40001
1.40001
1.40001
1.40001
1.40001
1.40001
1.40001
1.40001
1.40001
1.40001
1.40001
1.40001
1.40001
1.40001
1.40001
1.40001
1.40001
1.40001
1.40001
1.40001
1.40001
1.40001
1.40001
1.40001
1.40001
1.4
2.17258
4.88879
5.36824
5.37821
5.40221
5.42081
5.43758
5.45272
5.46692
5.4804
5.49356
5.50608
5.51783
5.52915
5.53957
5.54963
5.56033
5.57121
5.58198
5.59217
5.60028
5.6066
5.61166
5.61711
5.62344
5.62972
5.63423
5.63613
5.63613
5.63528
5.63477
5.63602
5.63929
5.64277
5.6445
5.64426
5.6421
5.63863
5.63565
5.63374
5.6314
5.62775
5.62129
5.6135
5.60552
5.5985
1.40001
1.40001
1.40001
1.40001
1.40001
1.40001
1.40001
1.40001
1.40001
1.40001
1.40001
1.40001
1.40001
1.40001
1.40001
1.40001
1.40001
1.40001
1.40001
1.40001
1.40001
1.40001
1.40001
1.40001
1.40001
1.40001
1.40001
1.40001
1.40001
1.40001
1.40001
1.40001
1.40001
1.40001
1.40001
1.40001
1.40001
1.40001
1.40001
1.40001
1.40001
1.40001
1.40001
1.40001
1.40001
1.40001
1.40001
1.40001
1.40001
1.40001
1.44323
3.96904
5.39195
5.39449
5.40496
5.41573
5.42617
5.43624
5.44615
5.45609
5.46626
5.47678
5.48667
5.49602
5.50478
5.51293
5.52162
5.53082
5.53985
5.54845
5.55545
5.56018
5.56325
5.5658
5.56912
5.57294
5.57551
5.57581
5.57335
5.5685
5.56332
5.55997
5.55867
5.55794
5.55526
5.54841
5.53733
5.52343
5.5087
5.49385
5.4781
5.46115
5.44595
5.43269
5.42683
5.42391
1.40001
1.40001
1.40001
1.40001
1.40001
1.40001
1.40001
1.40001
1.40001
1.40001
1.40001
1.40001
1.40001
1.40001
1.40001
1.40001
1.40001
1.40001
1.40001
1.40001
1.40001
1.40001
1.40001
1.40001
1.40001
1.40001
1.40001
1.40001
1.40001
1.40001
1.40001
1.40001
1.40001
1.40001
1.40001
1.40001
1.40001
1.40001
1.40001
1.40001
1.40001
1.40001
1.40001
1.40001
1.40001
1.40001
1.40001
1.40001
1.40001
1.40001
1.40006
2.60751
5.09001
5.3513
5.36009
5.37359
5.38702
5.39939
5.41037
5.42078
5.43105
5.44157
5.4519
5.46122
5.46889
5.47478
5.47985
5.48533
5.49149
5.49817
5.5045
5.5087
5.51038
5.51006
5.50931
5.50924
5.50887
5.50676
5.50148
5.49241
5.48137
5.47075
5.46194
5.45395
5.44397
5.42913
5.40831
5.38311
5.35651
5.33077
5.30586
5.28062
5.24735
5.20849
5.15302
5.1712
1.40001
1.40001
1.40001
1.40001
1.40001
1.40001
1.40001
1.40001
1.40001
1.40001
1.40001
1.40001
1.40001
1.40001
1.40001
1.40001
1.40001
1.40001
1.40001
1.40001
1.40001
1.40001
1.40001
1.40001
1.40001
1.40001
1.40001
1.40001
1.40001
1.40001
1.40001
1.40001
1.40001
1.40001
1.40001
1.40001
1.40001
1.40001
1.40001
1.40001
1.40001
1.40001
1.40001
1.40001
1.40001
1.40001
1.40001
1.40001
1.40001
1.40001
1.40001
1.55259
4.38157
5.37109
5.35876
5.36323
5.37226
5.38081
5.3885
5.39642
5.40539
5.41512
5.42512
5.43338
5.43883
5.44157
5.44268
5.44407
5.44669
5.45054
5.45516
5.45857
5.45945
5.45706
5.45258
5.44786
5.44341
5.43812
5.43002
5.41783
5.40184
5.38392
5.36629
5.34927
5.33047
5.30632
5.27373
5.23242
5.18278
5.12581
5.05473
4.96185
4.818
4.59277
4.18433
3.27938
1.40001
1.40001
1.40001
1.40001
1.40001
1.40001
1.40001
1.40001
1.40001
1.40001
1.40001
1.40001
1.40001
1.40001
1.40001
1.40001
1.40001
1.40001
1.40001
1.40001
1.40001
1.40001
1.40001
1.40001
1.40001
1.40001
1.40001
1.40001
1.40001
1.40001
1.40001
1.40001
1.40001
1.40001
1.40001
1.40001
1.40001
1.40001
1.40001
1.40001
1.40001
1.40001
1.40001
1.40001
1.40001
1.40001
1.40001
1.40001
1.40001
1.40001
1.4
1.40109
3.2408
5.20502
5.30779
5.32714
5.34324
5.35431
5.3625
5.36874
5.37546
5.38313
5.39231
5.40102
5.40728
5.40987
5.40903
5.40699
5.40577
5.4067
5.40915
5.41165
5.41222
5.40892
5.40196
5.39339
5.38462
5.37555
5.3647
5.35025
5.33114
5.3078
5.2821
5.25572
5.22723
5.19353
5.14939
5.09328
5.02166
4.93701
4.82823
4.69128
4.48965
4.21616
3.69121
2.9277
1.40001
1.40001
1.40001
1.40001
1.40001
1.40001
1.40001
1.40001
1.40001
1.40001
1.40001
1.40001
1.40001
1.40001
1.40001
1.40001
1.40001
1.40001
1.40001
1.40001
1.40001
1.40001
1.40001
1.40001
1.40001
1.40001
1.40001
1.40001
1.40001
1.40001
1.40001
1.40001
1.40001
1.40001
1.40001
1.40001
1.40001
1.40001
1.40001
1.40001
1.40001
1.40001
1.40001
1.40001
1.40001
1.40001
1.40001
1.40001
1.40001
1.40001
1.40001
1.4
1.97797
4.74819
5.31347
5.31624
5.33241
5.34217
5.35015
5.3554
5.36037
5.36457
5.37041
5.37756
5.38301
5.38439
5.38137
5.37579
5.37079
5.3682
5.36759
5.36741
5.36621
5.36172
5.35261
5.34047
5.3268
5.31247
5.29713
5.27927
5.25688
5.22907
5.19623
5.16069
5.12178
5.07807
5.02319
4.95466
4.86686
4.76069
4.62925
4.46204
4.24741
3.93268
3.49556
2.98502
1.40001
1.40001
1.40001
1.40001
1.40001
1.40001
1.40001
1.40001
1.40001
1.40001
1.40001
1.40001
1.40001
1.40001
1.40001
1.40001
1.40001
1.40001
1.40001
1.40001
1.40001
1.40001
1.40001
1.40001
1.40001
1.40001
1.40001
1.40001
1.40001
1.40001
1.40001
1.40001
1.40001
1.40001
1.40001
1.40001
1.40001
1.40001
1.40001
1.40001
1.40001
1.40001
1.40001
1.40001
1.40001
1.40001
1.40001
1.40001
1.40001
1.40001
1.40001
1.4
1.42576
3.57237
5.21613
5.29702
5.31494
5.32654
5.33649
5.34405
5.3489
5.34842
5.34843
5.35116
5.35403
5.35382
5.34959
5.34268
5.33565
5.33004
5.32598
5.32208
5.31773
5.31114
5.30012
5.28534
5.26781
5.2486
5.2281
5.20588
5.17966
5.14804
5.10971
5.06682
5.01912
4.96641
4.90314
4.82539
4.72818
4.60968
4.4671
4.29029
4.07299
3.78984
3.45684
3.07997
1.40001
1.40001
1.40001
1.40001
1.40001
1.40001
1.40001
1.40001
1.40001
1.40001
1.40001
1.40001
1.40001
1.40001
1.40001
1.40001
1.40001
1.40001
1.40001
1.40001
1.40001
1.40001
1.40001
1.40001
1.40001
1.40001
1.40001
1.40001
1.40001
1.40001
1.40001
1.40001
1.40001
1.40001
1.40001
1.40001
1.40001
1.40001
1.40001
1.40001
1.40001
1.40001
1.40001
1.40001
1.40001
1.40001
1.40001
1.40001
1.40001
1.40001
1.40001
1.40001
1.4
2.10638
4.81503
5.2954
5.29518
5.30913
5.31773
5.32586
5.33007
5.32984
5.32982
5.33041
5.33047
5.32735
5.32084
5.31209
5.30293
5.29442
5.28695
5.27951
5.27158
5.26173
5.24807
5.23049
5.20948
5.18617
5.161
5.13427
5.10384
5.06833
5.02549
4.97689
4.92273
4.86293
4.7938
4.7109
4.61021
4.48847
4.34642
4.1708
3.97024
3.7331
3.46822
3.17883
1.40001
1.40001
1.40001
1.40001
1.40001
1.40001
1.40001
1.40001
1.40001
1.40001
1.40001
1.40001
1.40001
1.40001
1.40001
1.40001
1.40001
1.40001
1.40001
1.40001
1.40001
1.40001
1.40001
1.40001
1.40001
1.40001
1.40001
1.40001
1.40001
1.40001
1.40001
1.40001
1.40001
1.40001
1.40001
1.40001
1.40001
1.40001
1.40001
1.40001
1.40001
1.40001
1.40001
1.40001
1.40001
1.40001
1.40001
1.40001
1.40001
1.40001
1.40001
1.40001
1.4
1.43586
3.59905
5.22055
5.28058
5.29288
5.2996
5.30429
5.30578
5.30429
5.30402
5.3047
5.3041
5.30037
5.2935
5.28395
5.27294
5.26154
5.25076
5.24024
5.22884
5.21529
5.19796
5.17683
5.15208
5.12516
5.09634
5.06568
5.03132
4.99194
4.94535
4.89271
4.8343
4.76986
4.69701
4.61222
4.51247
4.39346
4.25759
4.09338
3.91731
3.71538
3.50091
3.26346
1.40001
1.40001
1.40001
1.40001
1.40001
1.40001
1.40001
1.40001
1.40001
1.40001
1.40001
1.40001
1.40001
1.40001
1.40001
1.40001
1.40001
1.40001
1.40001
1.40001
1.40001
1.40001
1.40001
1.40001
1.40001
1.40001
1.40001
1.40001
1.40001
1.40001
1.40001
1.40001
1.40001
1.40001
1.40001
1.40001
1.40001
1.40001
1.40001
1.40001
1.40001
1.40001
1.40001
1.40001
1.40001
1.40001
1.40001
1.40001
1.40001
1.40001
1.40001
1.40001
1.40001
1.40003
2.01157
4.75425
5.29557
5.27605
5.27946
5.28164
5.27906
5.27522
5.27364
5.27361
5.27281
5.26962
5.26358
5.25452
5.24204
5.22753
5.21347
5.20001
5.18617
5.17074
5.15085
5.12643
5.09813
5.06769
5.03537
5.00099
4.96285
4.92002
4.87119
4.8168
4.75641
4.68939
4.61422
4.52899
4.43255
4.31862
4.19171
4.04506
3.89114
3.71582
3.53546
3.33647
1.40001
1.40001
1.40001
1.40001
1.40001
1.40001
1.40001
1.40001
1.40001
1.40001
1.40001
1.40001
1.40001
1.40001
1.40001
1.40001
1.40001
1.40001
1.40001
1.40001
1.40001
1.40001
1.40001
1.40001
1.40001
1.40001
1.40001
1.40001
1.40001
1.40001
1.40001
1.40001
1.40001
1.40001
1.40001
1.40001
1.40001
1.40001
1.40001
1.40001
1.40001
1.40001
1.40001
1.40001
1.40001
1.40001
1.40001
1.40001
1.40001
1.40001
1.40001
1.40001
1.40001
1.40001
1.42443
3.33984
5.13946
5.25071
5.24764
5.25064
5.25206
5.25064
5.24917
5.2478
5.24575
5.24219
5.23673
5.22863
5.21521
5.19793
5.18011
5.16311
5.14627
5.12897
5.10753
5.08096
5.04991
5.01647
4.98091
4.94267
4.90017
4.85377
4.80338
4.74857
4.6883
4.62105
4.54573
4.46092
4.36817
4.25969
4.14274
4.01324
3.87675
3.72298
3.56904
3.39888
1.40001
1.40001
1.40001
1.40001
1.40001
1.40001
1.40001
1.40001
1.40001
1.40001
1.40001
1.40001
1.40001
1.40001
1.40001
1.40001
1.40001
1.40001
1.40001
1.40001
1.40001
1.40001
1.40001
1.40001
1.40001
1.40001
1.40001
1.40001
1.40001
1.40001
1.40001
1.40001
1.40001
1.40001
1.40001
1.40001
1.40001
1.40001
1.40001
1.40001
1.40001
1.40001
1.40001
1.40001
1.40001
1.40001
1.40001
1.40001
1.40001
1.40001
1.40001
1.40001
1.40001
1.40001
1.40002
1.72173
4.51455
5.2761
5.25122
5.24398
5.23356
5.22682
5.22136
5.21672
5.21198
5.20678
5.20086
5.19329
5.1801
5.16153
5.14205
5.12291
5.10347
5.08489
5.0632
5.03679
5.0054
4.97042
4.9323
4.89052
4.84413
4.79502
4.74344
4.6886
4.6294
4.56348
4.49027
4.4064
4.3164
4.2142
4.10584
3.9902
3.86742
3.73295
3.59771
3.44945
1.40001
1.40001
1.40001
1.40001
1.40001
1.40001
1.40001
1.40001
1.40001
1.40001
1.40001
1.40001
1.40001
1.40001
1.40001
1.40001
1.40001
1.40001
1.40001
1.40001
1.40001
1.40001
1.40001
1.40001
1.40001
1.40001
1.40001
1.40001
1.40001
1.40001
1.40001
1.40001
1.40001
1.40001
1.40001
1.40001
1.40001
1.40001
1.40001
1.40001
1.40001
1.40001
1.40001
1.40001
1.40001
1.40001
1.40001
1.40001
1.40001
1.40001
1.40001
1.40001
1.40001
1.40001
1.40001
1.40564
2.9054
5.01713
5.1954
5.20334
5.20266
5.19722
5.1912
5.1856
5.17929
5.17154
5.16256
5.15393
5.14116
5.12338
5.10405
5.08427
5.06228
5.0417
5.01876
4.99288
4.96249
4.92784
4.88836
4.84391
4.79546
4.74478
4.69202
4.63666
4.57824
4.51398
4.44443
4.36264
4.27636
4.18095
4.07919
3.97447
3.86293
3.7453
3.622
3.49243
1.40001
1.40001
1.40001
1.40001
1.40001
1.40001
1.40001
1.40001
1.40001
1.40001
1.40001
1.40001
1.40001
1.40001
1.40001
1.40001
1.40001
1.40001
1.40001
1.40001
1.40001
1.40001
1.40001
1.40001
1.40001
1.40001
1.40001
1.40001
1.40001
1.40001
1.40001
1.40001
1.40001
1.40001
1.40001
1.40001
1.40001
1.40001
1.40001
1.40001
1.40001
1.40001
1.40001
1.40001
1.40001
1.40001
1.40001
1.40001
1.40001
1.40001
1.40001
1.40001
1.40001
1.40001
1.40001
1.40001
1.54831
3.95359
5.19038
5.1867
5.1792
5.17265
5.16841
5.16337
5.15655
5.14656
5.13349
5.1219
5.10785
5.08896
5.06898
5.04809
5.02415
5.00046
4.97545
4.94977
4.92081
4.88693
4.84767
4.8024
4.75397
4.70327
4.6506
4.59483
4.53641
4.47265
4.40569
4.32662
4.24535
4.15611
4.06089
3.96513
3.8627
3.75704
3.64324
3.5297
1.40001
1.40001
1.40001
1.40001
1.40001
1.40001
1.40001
1.40001
1.40001
1.40001
1.40001
1.40001
1.40001
1.40001
1.40001
1.40001
1.40001
1.40001
1.40001
1.40001
1.40001
1.40001
1.40001
1.40001
1.40001
1.40001
1.40001
1.40001
1.40001
1.40001
1.40001
1.40001
1.40001
1.40001
1.40001
1.40001
1.40001
1.40001
1.40001
1.40001
1.40001
1.40001
1.40001
1.40001
1.40001
1.40001
1.40001
1.40001
1.40001
1.40001
1.40001
1.40001
1.40001
1.40001
1.40001
1.40001
1.40107
2.10526
4.7568
5.17616
5.14872
5.14764
5.14352
5.1384
5.13132
5.12062
5.10558
5.09048
5.07551
5.05533
5.03403
5.01201
4.98721
4.96129
4.93474
4.90862
4.88008
4.84526
4.80625
4.76211
4.71533
4.66691
4.61544
4.5602
4.50241
4.43832
4.37298
4.29708
4.22074
4.13733
4.04992
3.96083
3.86581
3.76934
3.66546
3.56412
1.40001
1.40001
1.40001
1.40001
1.40001
1.40001
1.40001
1.40001
1.40001
1.40001
1.40001
1.40001
1.40001
1.40001
1.40001
1.40001
1.40001
1.40001
1.40001
1.40001
1.40001
1.40001
1.40001
1.40001
1.40001
1.40001
1.40001
1.40001
1.40001
1.40001
1.40001
1.40001
1.40001
1.40001
1.40001
1.40001
1.40001
1.40001
1.40001
1.40001
1.40001
1.40001
1.40001
1.40001
1.40001
1.40001
1.40001
1.40001
1.40001
1.40001
1.40001
1.40001
1.40001
1.40001
1.40001
1.40001
1.40001
1.42972
3.08802
5.03636
5.12986
5.12956
5.12677
5.12021
5.11221
5.10017
5.08328
5.06476
5.04758
5.02572
5.00202
4.9786
4.95358
4.92723
4.9009
4.87336
4.84397
4.80793
4.76784
4.72502
4.67902
4.63297
4.5846
4.53204
4.47574
4.412
4.34748
4.27495
4.20233
4.12371
4.0437
3.95939
3.87217
3.78197
3.68818
3.59527
1.40001
1.40001
1.40001
1.40001
1.40001
1.40001
1.40001
1.40001
1.40001
1.40001
1.40001
1.40001
1.40001
1.40001
1.40001
1.40001
1.40001
1.40001
1.40001
1.40001
1.40001
1.40001
1.40001
1.40001
1.40001
1.40001
1.40001
1.40001
1.40001
1.40001
1.40001
1.40001
1.40001
1.40001
1.40001
1.40001
1.40001
1.40001
1.40001
1.40001
1.40001
1.40001
1.40001
1.40001
1.40001
1.40001
1.40001
1.40001
1.40001
1.40001
1.40001
1.40001
1.40001
1.40001
1.40001
1.40001
1.40001
1.40007
1.57625
3.78218
5.0899
5.13043
5.11779
5.11164
5.10222
5.08793
5.06831
5.04612
5.02555
5.00222
4.9761
4.95031
4.92431
4.89801
4.87189
4.8433
4.81293
4.77617
4.73528
4.69197
4.64615
4.5998
4.55339
4.50443
4.45058
4.39049
4.32763
4.25918
4.18934
4.11543
4.04044
3.96011
3.88027
3.79546
3.7105
3.62302
1.40001
1.40001
1.40001
1.40001
1.40001
1.40001
1.40001
1.40001
1.40001
1.40001
1.40001
1.40001
1.40001
1.40001
1.40001
1.40001
1.40001
1.40001
1.40001
1.40001
1.40001
1.40001
1.40001
1.40001
1.40001
1.40001
1.40001
1.40001
1.40001
1.40001
1.40001
1.40001
1.40001
1.40001
1.40001
1.40001
1.40001
1.40001
1.40001
1.40001
1.40001
1.40001
1.40001
1.40001
1.40001
1.40001
1.40001
1.40001
1.40001
1.40001
1.40001
1.40001
1.40001
1.40001
1.40001
1.40001
1.40001
1.40001
1.40163
1.79986
4.47903
5.17258
5.14053
5.11622
5.0921
5.0701
5.04689
5.02273
5.00032
4.97709
4.9514
4.92447
4.89832
4.87206
4.84587
4.81685
4.78459
4.74847
4.70661
4.66307
4.6176
4.57109
4.52492
4.47738
4.42616
4.37081
4.31167
4.2483
4.18187
4.11268
4.04084
3.96455
3.88992
3.80987
3.73142
3.64887
1.40001
1.40001
1.40001
1.40001
1.40001
1.40001
1.40001
1.40001
1.40001
1.40001
1.40001
1.40001
1.40001
1.40001
1.40001
1.40001
1.40001
1.40001
1.40001
1.40001
1.40001
1.40001
1.40001
1.40001
1.40001
1.40001
1.40001
1.40001
1.40001
1.40001
1.40001
1.40001
1.40001
1.40001
1.40001
1.40001
1.40001
1.40001
1.40001
1.40001
1.40001
1.40001
1.40001
1.40001
1.40001
1.40001
1.40001
1.40001
1.40001
1.40001
1.40001
1.40001
1.40001
1.40001
1.40001
1.40001
1.40001
1.40001
1.40001
1.40873
2.5639
4.90016
5.10556
5.07577
5.05552
5.03547
5.01611
4.99558
4.97548
4.954
4.93094
4.90563
4.87852
4.85169
4.82415
4.79398
4.76024
4.72416
4.68268
4.63932
4.59409
4.54771
4.50136
4.45369
4.40365
4.35134
4.29586
4.23735
4.17505
4.1106
4.04229
3.97123
3.89994
3.82464
3.75059
3.67365
1.40001
1.40001
1.40001
1.40001
1.40001
1.40001
1.40001
1.40001
1.40001
1.40001
1.40001
1.40001
1.40001
1.40001
1.40001
1.40001
1.40001
1.40001
1.40001
1.40001
1.40001
1.40001
1.40001
1.40001
1.40001
1.40001
1.40001
1.40001
1.40001
1.40001
1.40001
1.40001
1.40001
1.40001
1.40001
1.40001
1.40001
1.40001
1.40001
1.40001
1.40001
1.40001
1.40001
1.40001
1.40001
1.40001
1.40001
1.40001
1.40001
1.40001
1.40001
1.40001
1.40001
1.40001
1.40001
1.40001
1.40001
1.40001
1.40001
1.40002
1.47846
3.20252
4.98547
5.03819
5.02495
5.01984
5.0075
4.99145
4.97213
4.94981
4.92537
4.89895
4.87078
4.84102
4.81234
4.77964
4.74361
4.70608
4.66442
4.62063
4.57549
4.52942
4.48349
4.43613
4.38681
4.33616
4.28339
4.2283
4.16969
4.10906
4.04437
3.97782
3.90965
3.83882
3.76813
3.6968
1.40001
1.40001
1.40001
1.40001
1.40001
1.40001
1.40001
1.40001
1.40001
1.40001
1.40001
1.40001
1.40001
1.40001
1.40001
1.40001
1.40001
1.40001
1.40001
1.40001
1.40001
1.40001
1.40001
1.40001
1.40001
1.40001
1.40001
1.40001
1.40001
1.40001
1.40001
1.40001
1.40001
1.40001
1.40001
1.40001
1.40001
1.40001
1.40001
1.40001
1.40001
1.40001
1.40001
1.40001
1.40001
1.40001
1.40001
1.40001
1.40001
1.40001
1.40001
1.40001
1.40001
1.40001
1.40001
1.40001
1.40001
1.40001
1.40001
1.40001
1.40042
1.59961
3.58816
4.9829
5.01001
5.0051
4.99668
4.98249
4.96464
4.94361
4.91971
4.89336
4.86499
4.83399
4.8026
4.76852
4.73092
4.69178
4.64974
4.60593
4.56099
4.51536
4.46983
4.42333
4.37484
4.32495
4.27426
4.22143
4.16558
4.10744
4.04568
3.98259
3.91792
3.85118
3.78373
3.71731
1.40001
1.40001
1.40001
1.40001
1.40001
1.40001
1.40001
1.40001
1.40001
1.40001
1.40001
1.40001
1.40001
1.40001
1.40001
1.40001
1.40001
1.40001
1.40001
1.40001
1.40001
1.40001
1.40001
1.40001
1.40001
1.40001
1.40001
1.40001
1.40001
1.40001
1.40001
1.40001
1.40001
1.40001
1.40001
1.40001
1.40001
1.40001
1.40001
1.40001
1.40001
1.40001
1.40001
1.40001
1.40001
1.40001
1.40001
1.40001
1.40001
1.40001
1.40001
1.40001
1.40001
1.40001
1.40001
1.40001
1.40001
1.40001
1.40001
1.40001
1.40001
1.40222
1.72152
3.90325
5.00873
5.00746
4.99238
4.97457
4.955
4.93341
4.91001
4.88485
4.85728
4.82665
4.79471
4.76033
4.72302
4.68336
4.64128
4.59764
4.55295
4.50768
4.46252
4.41681
4.3694
4.31992
4.27001
4.21849
4.16455
4.1078
4.04808
3.98716
3.9255
3.86209
3.7979
3.73531
1.40001
1.40001
1.40001
1.40001
1.40001
1.40001
1.40001
1.40001
1.40001
1.40001
1.40001
1.40001
1.40001
1.40001
1.40001
1.40001
1.40001
1.40001
1.40001
1.40001
1.40001
1.40001
1.40001
1.40001
1.40001
1.40001
1.40001
1.40001
1.40001
1.40001
1.40001
1.40001
1.40001
1.40001
1.40001
1.40001
1.40001
1.40001
1.40001
1.40001
1.40001
1.40001
1.40001
1.40001
1.40001
1.40001
1.40001
1.40001
1.40001
1.40001
1.40001
1.40001
1.40001
1.40001
1.40001
1.40001
1.40001
1.40001
1.40001
1.40001
1.40001
1.40001
1.40563
1.85681
4.18427
5.0168
5.00012
4.97654
4.95175
4.92687
4.90102
4.87463
4.84614
4.81594
4.78473
4.75079
4.7142
4.67517
4.63421
4.59185
4.54829
4.50389
4.45919
4.41389
4.36719
4.3184
4.26848
4.2175
4.16449
4.10892
4.0515
3.99265
3.93372
3.87314
3.81192
3.75192
1.40001
1.40001
1.40001
1.40001
1.40001
1.40001
1.40001
1.40001
1.40001
1.40001
1.40001
1.40001
1.40001
1.40001
1.40001
1.40001
1.40001
1.40001
1.40001
1.40001
1.40001
1.40001
1.40001
1.40001
1.40001
1.40001
1.40001
1.40001
1.40001
1.40001
1.40001
1.40001
1.40001
1.40001
1.40001
1.40001
1.40001
1.40001
1.40001
1.40001
1.40001
1.40001
1.40001
1.40001
1.40001
1.40001
1.40001
1.40001
1.40001
1.40001
1.40001
1.40001
1.40001
1.40001
1.40001
1.40001
1.40001
1.40001
1.40001
1.40001
1.40001
1.40001
1.40002
1.41127
2.00991
4.39177
5.02642
4.99947
4.96865
4.93584
4.90555
4.87435
4.84133
4.80873
4.77581
4.74142
4.70545
4.66781
4.6287
4.58836
4.54671
4.5039
4.45993
4.41487
4.3685
4.32025
4.27025
4.21939
4.16709
4.11341
4.05844
4.00167
3.94457
3.88615
3.82711
3.7688
1.40001
1.40001
1.40001
1.40001
1.40001
1.40001
1.40001
1.40001
1.40001
1.40001
1.40001
1.40001
1.40001
1.40001
1.40001
1.40001
1.40001
1.40001
1.40001
1.40001
1.40001
1.40001
1.40001
1.40001
1.40001
1.40001
1.40001
1.40001
1.40001
1.40001
1.40001
1.40001
1.40001
1.40001
1.40001
1.40001
1.40001
1.40001
1.40001
1.40001
1.40001
1.40001
1.40001
1.40001
1.40001
1.40001
1.40001
1.40001
1.40001
1.40001
1.40001
1.40001
1.40001
1.40001
1.40001
1.40001
1.40001
1.40001
1.40001
1.40001
1.40001
1.40001
1.40001
1.40004
1.42013
2.15827
4.57039
5.02541
4.9939
4.95833
4.91928
4.88149
4.84464
4.80865
4.77224
4.73611
4.69946
4.66208
4.62393
4.58493
4.54471
4.50314
4.46008
4.41573
4.37015
4.32289
4.27382
4.22392
4.17301
4.1213
4.0682
4.01296
3.95685
3.90014
3.84278
3.78596
1.40001
1.40001
1.40001
1.40001
1.40001
1.40001
1.40001
1.40001
1.40001
1.40001
1.40001
1.40001
1.40001
1.40001
1.40001
1.40001
1.40001
1.40001
1.40001
1.40001
1.40001
1.40001
1.40001
1.40001
1.40001
1.40001
1.40001
1.40001
1.40001
1.40001
1.40001
1.40001
1.40001
1.40001
1.40001
1.40001
1.40001
1.40001
1.40001
1.40001
1.40001
1.40001
1.40001