/*--------------------------------*- C++ -*----------------------------------*\
  =========                 |
  \\      /  F ield         | OpenFOAM: The Open Source CFD Toolbox
   \\    /   O peration     | Website:  https://openfoam.org
    \\  /    A nd           | Version:  7
     \\/     M anipulation  |
\*---------------------------------------------------------------------------*/
FoamFile
{
    version     2.0;
    format      ascii;
    class       volVectorField;
    location    "6.5";
    object      U;
}
// * * * * * * * * * * * * * * * * * * * * * * * * * * * * * * * * * * * * * //

dimensions      [0 1 -1 0 0 0 0];

internalField   nonuniform List<vector> 
19968
(
(3 -3.83196e-17 0)
(3 2.98633e-16 0)
(3 4.31467e-16 0)
(3 4.02916e-16 0)
(3 1.4327e-16 0)
(3 1.36102e-16 0)
(3 6.16133e-16 0)
(3 5.98945e-16 0)
(3 1.35445e-16 0)
(3 2.99048e-16 0)
(3 3.32259e-16 0)
(3 5.21482e-16 0)
(3 5.80585e-16 0)
(3 3.88564e-16 0)
(3 7.88537e-16 0)
(3 1.14087e-15 0)
(3 1.8436e-15 0)
(3 1.25914e-15 0)
(3 9.78519e-16 0)
(3 6.50764e-16 0)
(3 2.2761e-15 0)
(3 2.93515e-15 0)
(3 2.70702e-15 0)
(3 1.94873e-15 0)
(3 1.36873e-15 0)
(3 8.79796e-16 0)
(3 6.37401e-16 0)
(3 3.0773e-16 0)
(3 2.21849e-16 0)
(3 -8.9067e-17 0)
(3 -4.32527e-16 0)
(3 -9.7883e-16 0)
(3 -9.01084e-16 0)
(3 -3.1738e-16 0)
(3 -1.87973e-17 0)
(3 5.10832e-16 0)
(3 6.92392e-16 0)
(3 6.96033e-16 0)
(3 5.09777e-16 0)
(3 1.27142e-16 0)
(3 -1.52931e-16 0)
(3 6.54609e-18 0)
(3 3.45917e-16 0)
(3 3.45508e-16 0)
(3 7.12162e-16 0)
(3 1.21376e-15 0)
(3 9.20894e-16 0)
(3 2.36083e-16 0)
(2.80525 0.0018579 0)
(0.971278 0.00538598 0)
(0.758669 0.0088328 0)
(0.74256 0.00732566 0)
(0.72796 0.00730987 0)
(0.713805 0.00791551 0)
(0.698622 0.00891182 0)
(0.682518 0.00990581 0)
(0.665964 0.0101259 0)
(0.650154 0.00920459 0)
(0.635722 0.00808675 0)
(0.621893 0.00792808 0)
(0.607421 0.00875519 0)
(0.591784 0.00979392 0)
(0.575763 0.0100126 0)
(0.560538 0.00952303 0)
(0.545918 0.00935517 0)
(0.530887 0.00954847 0)
(0.515114 0.00965752 0)
(0.499021 0.0097105 0)
(0.483043 0.00988336 0)
(0.467413 0.0101007 0)
(0.452177 0.010228 0)
(0.437109 0.0102887 0)
(0.421744 0.0103801 0)
(0.405697 0.0105155 0)
(0.388979 0.0106409 0)
(0.372034 0.0107312 0)
(0.35534 0.0108113 0)
(0.339021 0.0109121 0)
(0.322834 0.0110334 0)
(0.306428 0.0111527 0)
(0.2896 0.0112602 0)
(0.272399 0.0113662 0)
(0.255045 0.011481 0)
(0.237735 0.0116075 0)
(0.220519 0.0117497 0)
(0.203306 0.0119144 0)
(0.185948 0.0121036 0)
(0.168342 0.0123177 0)
(0.150465 0.0125603 0)
(0.132301 0.0128321 0)
(0.113761 0.0131327 0)
(0.0947019 0.0134517 0)
(0.0749939 0.013805 0)
(0.0544839 0.0141946 0)
(0.0332366 0.0144453 0)
(0.0113532 0.0148297 0)
(3 -2.82755e-16 0)
(3 -1.68117e-16 0)
(3 1.63743e-16 0)
(3 4.93293e-16 0)
(3 3.61149e-17 0)
(3 -2.00613e-16 0)
(3 -1.33317e-17 0)
(3 1.99906e-16 0)
(3 2.42886e-16 0)
(3 1.04486e-15 0)
(3 1.20469e-15 0)
(3 1.2219e-15 0)
(3 9.76265e-16 0)
(3 7.74666e-16 0)
(3 7.44711e-16 0)
(3 1.32808e-15 0)
(3 2.24883e-15 0)
(3 9.66534e-16 0)
(3 7.29138e-16 0)
(3 4.37626e-16 0)
(3 1.45409e-15 0)
(3 2.61283e-15 0)
(3 2.71723e-15 0)
(3 1.47029e-15 0)
(3 7.11284e-16 0)
(3 1.01697e-15 0)
(3 5.07347e-16 0)
(3 -3.4292e-16 0)
(3 -4.15715e-16 0)
(3 -1.50382e-15 0)
(3 -1.79209e-15 0)
(3 -1.8304e-15 0)
(3 -1.40482e-15 0)
(3 -2.36325e-16 0)
(3 -7.08902e-17 0)
(3 4.73792e-17 0)
(3 2.48089e-16 0)
(3 1.33003e-15 0)
(3 1.37012e-15 0)
(3 1.00796e-15 0)
(3 -2.31234e-16 0)
(3 -3.62835e-16 0)
(3 -1.18251e-16 0)
(3 5.00177e-18 0)
(3 1.93244e-17 0)
(3 -1.65892e-16 0)
(3 -4.6465e-16 0)
(3 -1.05234e-15 0)
(2.81661 0.0107417 0)
(0.974456 0.0258664 0)
(0.75484 0.0308686 0)
(0.738917 0.0232721 0)
(0.723663 0.022067 0)
(0.709333 0.023448 0)
(0.694294 0.026205 0)
(0.678711 0.0289853 0)
(0.66284 0.0298411 0)
(0.647541 0.0279201 0)
(0.633029 0.0251887 0)
(0.618606 0.0245366 0)
(0.603827 0.0266159 0)
(0.588238 0.0293961 0)
(0.572401 0.029998 0)
(0.557373 0.0288276 0)
(0.542707 0.0285023 0)
(0.527567 0.0291407 0)
(0.51166 0.0294801 0)
(0.495447 0.0296164 0)
(0.47939 0.0300831 0)
(0.463726 0.0306884 0)
(0.448463 0.0310612 0)
(0.433339 0.0312601 0)
(0.417892 0.0315263 0)
(0.401785 0.0319 0)
(0.385056 0.0322698 0)
(0.368124 0.032585 0)
(0.351425 0.0328936 0)
(0.335067 0.0332493 0)
(0.318823 0.0336347 0)
(0.302364 0.0339882 0)
(0.285499 0.0342936 0)
(0.268278 0.0345934 0)
(0.250915 0.0349245 0)
(0.233606 0.0352941 0)
(0.216414 0.0357144 0)
(0.199264 0.036211 0)
(0.182016 0.0367993 0)
(0.164563 0.037483 0)
(0.146863 0.0382606 0)
(0.12889 0.0391108 0)
(0.110574 0.0400162 0)
(0.0918085 0.0409508 0)
(0.0725037 0.0419647 0)
(0.0525399 0.0431006 0)
(0.0319582 0.0438296 0)
(0.010893 0.0448972 0)
(3 1.26941e-17 0)
(3 -2.01989e-16 0)
(3 -9.59231e-17 0)
(3 2.96588e-17 0)
(3 2.71709e-17 0)
(3 -1.26239e-15 0)
(3 -2.6575e-15 0)
(3 -2.76102e-15 0)
(3 -1.40871e-15 0)
(3 -9.42299e-16 0)
(3 -1.68131e-16 0)
(3 -2.93777e-16 0)
(3 -1.24806e-15 0)
(3 -5.83451e-16 0)
(3 1.86883e-15 0)
(3 2.55045e-15 0)
(3 1.74967e-15 0)
(3 2.10732e-16 0)
(3 -7.44031e-16 0)
(3 -9.76427e-16 0)
(3 -1.14079e-16 0)
(3 3.4655e-16 0)
(3 1.65941e-15 0)
(3 1.82931e-15 0)
(3 9.35017e-16 0)
(3 7.8925e-16 0)
(3 9.1853e-16 0)
(3 7.97374e-16 0)
(3 -2.44457e-16 0)
(3 -9.49088e-16 0)
(3 -1.63578e-15 0)
(3 -1.99538e-15 0)
(3 2.96019e-16 0)
(3 5.62665e-16 0)
(3 4.45024e-16 0)
(3 3.03178e-18 0)
(3 -2.2021e-16 0)
(3 -2.04221e-16 0)
(3 1.19715e-15 0)
(3 1.88328e-15 0)
(3 2.00615e-15 0)
(3 9.39717e-16 0)
(3 5.9401e-16 0)
(3 3.57147e-16 0)
(3 1.99656e-18 0)
(3 1.89564e-16 0)
(3 -2.60268e-16 0)
(3 -2.31198e-16 0)
(2.84719 0.0181856 0)
(0.989009 0.0466923 0)
(0.759241 0.0507332 0)
(0.744382 0.0413445 0)
(0.727521 0.039693 0)
(0.711948 0.0414928 0)
(0.69616 0.0451871 0)
(0.680487 0.0488374 0)
(0.664899 0.0498528 0)
(0.649896 0.0473613 0)
(0.635193 0.0437914 0)
(0.620026 0.0429784 0)
(0.604731 0.0460743 0)
(0.588983 0.050133 0)
(0.573111 0.0508895 0)
(0.558131 0.0491324 0)
(0.54332 0.0488248 0)
(0.528038 0.0500304 0)
(0.511939 0.0507156 0)
(0.495507 0.0509929 0)
(0.479234 0.051719 0)
(0.463377 0.0526281 0)
(0.447921 0.0531924 0)
(0.432578 0.0535355 0)
(0.416909 0.0540046 0)
(0.400629 0.0546315 0)
(0.3838 0.0552483 0)
(0.366794 0.0557836 0)
(0.349982 0.056304 0)
(0.333456 0.0568901 0)
(0.317022 0.057524 0)
(0.300389 0.0581161 0)
(0.283392 0.0586367 0)
(0.26608 0.0591462 0)
(0.248656 0.0596998 0)
(0.231314 0.0603089 0)
(0.214123 0.0609921 0)
(0.197019 0.0617873 0)
(0.179858 0.0627169 0)
(0.162505 0.0637853 0)
(0.144877 0.0649938 0)
(0.126936 0.0663134 0)
(0.108649 0.0677213 0)
(0.0899703 0.0691785 0)
(0.0708586 0.0707435 0)
(0.0512271 0.0725194 0)
(0.0310699 0.0736278 0)
(0.0105692 0.0752918 0)
(3 1.60643e-16 0)
(3 4.14609e-16 0)
(3 2.91285e-16 0)
(3 -3.16678e-16 0)
(3 -3.84681e-16 0)
(3 -5.297e-16 0)
(3 -1.06801e-15 0)
(3 -1.37599e-15 0)
(3 -1.25467e-15 0)
(3 -1.1175e-15 0)
(3 -1.00331e-15 0)
(3 -1.51431e-15 0)
(3 -1.54489e-15 0)
(3 -7.29398e-16 0)
(3 8.99055e-16 0)
(3 1.56632e-15 0)
(3 1.44433e-15 0)
(3 6.47003e-16 0)
(3 2.7478e-16 0)
(3 7.84974e-16 0)
(3 1.30706e-15 0)
(3 1.71765e-15 0)
(3 1.71985e-15 0)
(3 1.36233e-15 0)
(3 1.06033e-15 0)
(3 3.59507e-16 0)
(3 3.18196e-17 0)
(3 -5.79208e-16 0)
(3 -1.05137e-15 0)
(3 -5.71643e-16 0)
(3 -3.10203e-16 0)
(3 -7.19099e-17 0)
(3 8.40745e-16 0)
(3 1.03219e-15 0)
(3 1.3027e-15 0)
(3 1.36664e-15 0)
(3 1.12055e-15 0)
(3 8.26005e-16 0)
(3 9.31484e-16 0)
(3 1.53099e-15 0)
(3 2.0857e-15 0)
(3 2.54354e-15 0)
(3 2.7859e-15 0)
(3 2.83909e-15 0)
(3 2.09262e-15 0)
(3 2.24805e-15 0)
(3 1.7451e-15 0)
(3 1.18306e-15 0)
(2.88848 0.0224448 0)
(1.0099 0.0675421 0)
(0.760868 0.0680611 0)
(0.746876 0.0598966 0)
(0.729996 0.0590518 0)
(0.714113 0.0610639 0)
(0.698187 0.0649505 0)
(0.682799 0.0686864 0)
(0.667748 0.0696894 0)
(0.653131 0.0672838 0)
(0.638382 0.0637375 0)
(0.622745 0.0630635 0)
(0.607106 0.0669101 0)
(0.591288 0.0717474 0)
(0.57543 0.0724823 0)
(0.560479 0.070289 0)
(0.545565 0.0701015 0)
(0.530297 0.0719429 0)
(0.514199 0.073108 0)
(0.497737 0.0736364 0)
(0.481406 0.0746408 0)
(0.465476 0.0758226 0)
(0.449903 0.0765825 0)
(0.434373 0.0771309 0)
(0.418464 0.0778642 0)
(0.401952 0.0787702 0)
(0.384919 0.0796485 0)
(0.367691 0.0804302 0)
(0.350571 0.0811916 0)
(0.333638 0.082024 0)
(0.316734 0.0829111 0)
(0.299618 0.0837411 0)
(0.28216 0.0844654 0)
(0.264433 0.0851537 0)
(0.246652 0.0858807 0)
(0.229024 0.0866672 0)
(0.211637 0.0875429 0)
(0.194451 0.088563 0)
(0.177328 0.0897628 0)
(0.160108 0.0911554 0)
(0.142657 0.0927532 0)
(0.124896 0.0945259 0)
(0.106797 0.0964425 0)
(0.0883381 0.0984462 0)
(0.0694938 0.100566 0)
(0.0502098 0.102987 0)
(0.0303884 0.10445 0)
(0.0103571 0.106705 0)
(3 -8.17429e-17 0)
(3 -1.0907e-16 0)
(3 -3.97571e-16 0)
(3 -4.3892e-16 0)
(3 -7.57757e-17 0)
(3 5.774e-16 0)
(3 7.79224e-16 0)
(3 1.17568e-15 0)
(3 1.27044e-15 0)
(3 1.00939e-15 0)
(3 3.02707e-16 0)
(3 -3.42402e-16 0)
(3 -4.20902e-16 0)
(3 -7.6024e-16 0)
(3 -9.25678e-16 0)
(3 -6.85697e-16 0)
(3 -3.81927e-16 0)
(3 1.52383e-16 0)
(3 8.6802e-17 0)
(3 3.62762e-16 0)
(3 2.12945e-16 0)
(3 -2.69735e-16 0)
(3 -1.11458e-15 0)
(3 -1.47026e-15 0)
(3 -8.64746e-16 0)
(3 -6.51845e-16 0)
(3 -3.71447e-16 0)
(3 -2.70002e-16 0)
(3 -1.93791e-16 0)
(3 8.72628e-16 0)
(3 2.02735e-15 0)
(3 1.87235e-15 0)
(3 1.2111e-15 0)
(3 9.65136e-16 0)
(3 1.19277e-15 0)
(3 1.84666e-15 0)
(3 1.84857e-15 0)
(3 1.6478e-15 0)
(3 1.52512e-15 0)
(3 1.18851e-15 0)
(3 1.45906e-15 0)
(3 2.02349e-15 0)
(3 2.45492e-15 0)
(3 2.86981e-15 0)
(3 2.4373e-15 0)
(3 1.18527e-15 0)
(3 9.17144e-16 0)
(3 5.4315e-16 0)
(2.93695 0.0333563 0)
(1.03713 0.0959978 0)
(0.764651 0.0849907 0)
(0.750848 0.0789175 0)
(0.733941 0.0799032 0)
(0.71767 0.0823123 0)
(0.701467 0.0857649 0)
(0.686257 0.0887597 0)
(0.671891 0.0894918 0)
(0.657991 0.0875461 0)
(0.643711 0.0846736 0)
(0.628298 0.0845564 0)
(0.612862 0.0889838 0)
(0.597287 0.0942013 0)
(0.581598 0.0948641 0)
(0.566697 0.0923876 0)
(0.551738 0.092302 0)
(0.536642 0.0947321 0)
(0.520763 0.0964836 0)
(0.504476 0.0974158 0)
(0.488249 0.0987816 0)
(0.472352 0.100266 0)
(0.456733 0.101293 0)
(0.441067 0.102198 0)
(0.424945 0.103368 0)
(0.408183 0.104691 0)
(0.390895 0.105954 0)
(0.373363 0.10712 0)
(0.355822 0.108265 0)
(0.338329 0.109468 0)
(0.320756 0.11071 0)
(0.302905 0.111868 0)
(0.284681 0.11287 0)
(0.266181 0.113778 0)
(0.247637 0.114671 0)
(0.229269 0.115569 0)
(0.211186 0.116502 0)
(0.193373 0.117542 0)
(0.175717 0.118747 0)
(0.158063 0.120163 0)
(0.140271 0.121846 0)
(0.122263 0.1238 0)
(0.104043 0.126018 0)
(0.0856456 0.128463 0)
(0.0670673 0.131096 0)
(0.0483093 0.134208 0)
(0.0291025 0.136066 0)
(0.00993195 0.138962 0)
(3 1.40557e-16 0)
(3 1.07039e-16 0)
(3 -7.68988e-17 0)
(3 4.49628e-16 0)
(3 6.79039e-16 0)
(3 8.82084e-16 0)
(3 1.55352e-15 0)
(3 1.70286e-15 0)
(3 1.33776e-15 0)
(3 1.07802e-15 0)
(3 1.1018e-15 0)
(3 1.50247e-16 0)
(3 -5.12455e-16 0)
(3 -7.65057e-16 0)
(3 -3.6452e-16 0)
(3 -4.56896e-17 0)
(3 2.05207e-16 0)
(3 4.42324e-16 0)
(3 3.33646e-16 0)
(3 -7.76213e-17 0)
(3 -1.48601e-15 0)
(3 -1.84806e-15 0)
(3 -1.99581e-15 0)
(3 -2.06976e-15 0)
(3 -1.92615e-15 0)
(3 -1.31627e-15 0)
(3 -1.05285e-15 0)
(3 -7.04339e-16 0)
(3 1.67312e-16 0)
(3 1.76765e-16 0)
(3 8.64491e-16 0)
(3 1.41486e-15 0)
(3 5.17147e-16 0)
(3 1.79542e-17 0)
(3 9.48456e-17 0)
(3 -8.58152e-17 0)
(3 9.08739e-17 0)
(3 3.15429e-16 0)
(3 6.86165e-16 0)
(3 6.34107e-16 0)
(3 9.96342e-16 0)
(3 1.84008e-15 0)
(3 2.1559e-15 0)
(3 2.56671e-15 0)
(3 1.69633e-15 0)
(3 2.303e-16 0)
(3 -1.80008e-16 0)
(3 -6.93057e-17 0)
(2.99612 0.00267252 0)
(1.10304 0.116768 0)
(0.777091 0.0940357 0)
(0.761968 0.0975255 0)
(0.74536 0.101315 0)
(0.728205 0.104651 0)
(0.711232 0.107368 0)
(0.695519 0.10876 0)
(0.681264 0.108509 0)
(0.66778 0.106954 0)
(0.653947 0.10516 0)
(0.639002 0.105902 0)
(0.623956 0.110795 0)
(0.608675 0.116241 0)
(0.59309 0.117039 0)
(0.578147 0.114474 0)
(0.563146 0.114325 0)
(0.548283 0.117083 0)
(0.532788 0.119392 0)
(0.516846 0.12087 0)
(0.500864 0.122731 0)
(0.485097 0.124584 0)
(0.469537 0.125932 0)
(0.45389 0.127317 0)
(0.437759 0.129093 0)
(0.420973 0.130977 0)
(0.403672 0.132737 0)
(0.386106 0.134417 0)
(0.368434 0.136109 0)
(0.350663 0.137859 0)
(0.332667 0.139649 0)
(0.31428 0.14136 0)
(0.29543 0.142891 0)
(0.276239 0.144277 0)
(0.256952 0.145583 0)
(0.237793 0.146811 0)
(0.218871 0.147975 0)
(0.200173 0.149142 0)
(0.181595 0.150386 0)
(0.162986 0.151778 0)
(0.144214 0.153418 0)
(0.125223 0.155361 0)
(0.106072 0.15763 0)
(0.0868702 0.16027 0)
(0.0676573 0.163162 0)
(0.0485436 0.166791 0)
(0.0290847 0.168935 0)
(0.00994908 0.172394 0)
(3 9.80967e-17 0)
(3 3.43136e-16 0)
(3 1.11354e-15 0)
(3 1.20229e-15 0)
(3 1.31771e-15 0)
(3 1.3711e-15 0)
(3 1.42005e-15 0)
(3 1.18527e-15 0)
(3 8.97173e-16 0)
(3 1.18862e-15 0)
(3 1.25226e-15 0)
(3 1.23932e-15 0)
(3 1.6688e-15 0)
(3 1.59208e-15 0)
(3 1.52169e-15 0)
(3 7.60314e-16 0)
(3 3.98091e-16 0)
(3 2.38884e-16 0)
(3 1.89485e-16 0)
(3 1.35405e-16 0)
(3 2.03123e-16 0)
(3 1.59611e-16 0)
(3 -4.36812e-16 0)
(3 -4.8673e-16 0)
(3 -4.53698e-17 0)
(3 7.44957e-17 0)
(3 -9.43373e-16 0)
(3 -1.19646e-15 0)
(3 -7.49772e-16 0)
(3 4.34375e-16 0)
(3 3.90398e-16 0)
(3 -1.10426e-16 0)
(3 -1.63984e-15 0)
(3 -1.83223e-15 0)
(3 -2.28234e-15 0)
(3 -2.60581e-15 0)
(3 -2.34399e-15 0)
(3 -1.4828e-15 0)
(3 -1.01084e-15 0)
(3 6.4264e-18 0)
(3 5.46889e-16 0)
(3 1.45914e-15 0)
(3 1.58689e-15 0)
(3 1.7568e-15 0)
(3 2.00929e-15 0)
(3 2.08133e-15 0)
(3 1.94471e-15 0)
(3 1.28681e-15 0)
(3.00003 6.28944e-05 0)
(1.2211 0.135288 0)
(0.777934 0.110283 0)
(0.757087 0.119906 0)
(0.741228 0.126793 0)
(0.723597 0.130636 0)
(0.706696 0.132114 0)
(0.691157 0.13148 0)
(0.677106 0.129896 0)
(0.663798 0.128459 0)
(0.650193 0.127803 0)
(0.635639 0.12962 0)
(0.620997 0.135076 0)
(0.606146 0.140844 0)
(0.590885 0.142038 0)
(0.576163 0.139478 0)
(0.561366 0.139021 0)
(0.546912 0.141785 0)
(0.532061 0.144583 0)
(0.516771 0.146788 0)
(0.501358 0.149383 0)
(0.486015 0.151752 0)
(0.47079 0.15347 0)
(0.455473 0.155384 0)
(0.439706 0.157852 0)
(0.423312 0.160362 0)
(0.406463 0.162638 0)
(0.389399 0.164854 0)
(0.372201 0.167135 0)
(0.354802 0.169463 0)
(0.337065 0.171803 0)
(0.318841 0.174058 0)
(0.300084 0.176118 0)
(0.280925 0.177986 0)
(0.261614 0.179712 0)
(0.242369 0.181278 0)
(0.223287 0.182672 0)
(0.204342 0.183955 0)
(0.185421 0.185212 0)
(0.166366 0.186533 0)
(0.147049 0.188052 0)
(0.127439 0.189878 0)
(0.107642 0.192038 0)
(0.0878476 0.19473 0)
(0.0681285 0.197708 0)
(0.0487385 0.201746 0)
(0.0290765 0.204128 0)
(0.00999219 0.208098 0)
(3 -2.1095e-18 0)
(3 5.92064e-17 0)
(3 2.29287e-16 0)
(3 2.31538e-16 0)
(3 2.46764e-16 0)
(3 2.15079e-16 0)
(3 -4.68317e-16 0)
(3 -1.4002e-15 0)
(3 -1.67815e-15 0)
(3 -1.52216e-15 0)
(3 -1.10492e-15 0)
(3 -8.99415e-17 0)
(3 1.44081e-15 0)
(3 1.92382e-15 0)
(3 1.43678e-15 0)
(3 1.85433e-16 0)
(3 -7.53926e-17 0)
(3 -6.84219e-16 0)
(3 -6.43931e-16 0)
(3 -7.89393e-16 0)
(3 -7.49098e-16 0)
(3 -6.00262e-16 0)
(3 -2.10278e-16 0)
(3 3.97501e-17 0)
(3 -1.77199e-16 0)
(3 -8.30192e-17 0)
(3 -1.08846e-15 0)
(3 -1.2532e-15 0)
(3 -9.9699e-16 0)
(3 -7.65163e-16 0)
(3 -9.19172e-16 0)
(3 -1.33651e-15 0)
(3 -1.80646e-15 0)
(3 -2.45013e-15 0)
(3 -3.09451e-15 0)
(3 -3.53653e-15 0)
(3 -3.53627e-15 0)
(3 -3.49993e-15 0)
(3 -3.00839e-15 0)
(3 -2.48569e-15 0)
(3 -2.04411e-15 0)
(3 -9.31676e-16 0)
(3 -9.24946e-16 0)
(3 -1.30645e-15 0)
(3 -1.31199e-15 0)
(3 -1.93888e-16 0)
(3 6.01058e-16 0)
(3 1.06052e-15 0)
(3 1.19571e-07 0)
(1.42832 0.163623 0)
(0.790763 0.133333 0)
(0.756819 0.143698 0)
(0.741115 0.152923 0)
(0.723173 0.156643 0)
(0.706716 0.156665 0)
(0.69146 0.154336 0)
(0.677235 0.151581 0)
(0.663552 0.150068 0)
(0.649826 0.150285 0)
(0.635576 0.152946 0)
(0.62149 0.158644 0)
(0.607406 0.164464 0)
(0.592825 0.166137 0)
(0.578473 0.163921 0)
(0.563929 0.163091 0)
(0.549777 0.165475 0)
(0.535576 0.168505 0)
(0.521069 0.171472 0)
(0.506442 0.174961 0)
(0.491744 0.177945 0)
(0.477068 0.17995 0)
(0.462313 0.182295 0)
(0.447144 0.185498 0)
(0.431325 0.188785 0)
(0.415034 0.191719 0)
(0.39854 0.194595 0)
(0.381873 0.197621 0)
(0.364881 0.200726 0)
(0.347389 0.203844 0)
(0.329259 0.206914 0)
(0.310455 0.209827 0)
(0.291118 0.212538 0)
(0.271511 0.215058 0)
(0.251859 0.21734 0)
(0.232265 0.219338 0)
(0.212705 0.221086 0)
(0.193063 0.222661 0)
(0.173179 0.224157 0)
(0.152932 0.225714 0)
(0.132318 0.227502 0)
(0.11149 0.229509 0)
(0.0907172 0.232172 0)
(0.0700915 0.235053 0)
(0.0500021 0.239347 0)
(0.0297353 0.241896 0)
(0.0102593 0.246284 0)
(3 -3.91311e-17 0)
(3 -9.43805e-17 0)
(3 -3.58114e-16 0)
(3 -6.84627e-16 0)
(3 -1.31679e-15 0)
(3 -1.54343e-15 0)
(3 -2.0199e-15 0)
(3 -2.70361e-15 0)
(3 -2.77327e-15 0)
(3 -2.6705e-15 0)
(3 -1.76274e-15 0)
(3 -8.13686e-16 0)
(3 -1.10784e-15 0)
(3 -1.38236e-15 0)
(3 -7.78152e-16 0)
(3 -3.28581e-17 0)
(3 9.29309e-17 0)
(3 5.1698e-17 0)
(3 -2.92784e-16 0)
(3 -5.20248e-16 0)
(3 -9.04166e-16 0)
(3 -7.50197e-16 0)
(3 -4.14386e-16 0)
(3 -1.24022e-16 0)
(3 -9.14231e-16 0)
(3 -1.158e-15 0)
(3 -6.42901e-16 0)
(3 -3.99563e-16 0)
(3 -2.75295e-16 0)
(3 -9.85843e-16 0)
(3 -1.59275e-15 0)
(3 -1.49264e-15 0)
(3 -1.49142e-15 0)
(3 -1.74203e-15 0)
(3 -2.16328e-15 0)
(3 -2.49734e-15 0)
(3 -3.15364e-15 0)
(3 -3.21035e-15 0)
(3 -3.18955e-15 0)
(3 -2.9951e-15 0)
(3 -2.70899e-15 0)
(3 -2.53938e-15 0)
(3 -2.41732e-15 0)
(3 -2.22692e-15 0)
(3 -2.10877e-15 0)
(3 -1.76154e-15 0)
(3 -1.06767e-15 0)
(3 -7.60371e-16 0)
(3 2.63789e-10 0)
(1.74723 0.183531 0)
(0.817773 0.160616 0)
(0.763196 0.171908 0)
(0.746367 0.180794 0)
(0.728128 0.182928 0)
(0.711746 0.181529 0)
(0.695933 0.178795 0)
(0.680543 0.175855 0)
(0.665453 0.174277 0)
(0.650631 0.174728 0)
(0.635902 0.177412 0)
(0.621783 0.182635 0)
(0.608153 0.188289 0)
(0.594024 0.190849 0)
(0.579606 0.189694 0)
(0.564846 0.188745 0)
(0.550352 0.190356 0)
(0.536171 0.193164 0)
(0.52202 0.196747 0)
(0.507935 0.201236 0)
(0.493723 0.204988 0)
(0.479494 0.207218 0)
(0.465314 0.209846 0)
(0.45093 0.213805 0)
(0.435971 0.21807 0)
(0.420532 0.221855 0)
(0.404936 0.225516 0)
(0.38921 0.229424 0)
(0.373118 0.233487 0)
(0.356403 0.237575 0)
(0.338892 0.241656 0)
(0.320535 0.245637 0)
(0.301468 0.249422 0)
(0.281974 0.252968 0)
(0.262303 0.256201 0)
(0.242561 0.259046 0)
(0.22271 0.261514 0)
(0.202604 0.263661 0)
(0.182058 0.265573 0)
(0.160949 0.267369 0)
(0.139304 0.269275 0)
(0.117321 0.271174 0)
(0.0953656 0.27379 0)
(0.073555 0.27643 0)
(0.0523953 0.280822 0)
(0.031121 0.283463 0)
(0.0107711 0.288182 0)
(3 -3.33338e-17 0)
(3 -2.11584e-16 0)
(3 -4.96986e-16 0)
(3 -7.85554e-16 0)
(3 -7.84454e-16 0)
(3 -7.12835e-16 0)
(3 -5.16548e-16 0)
(3 -2.5343e-16 0)
(3 -8.2674e-16 0)
(3 -9.13492e-16 0)
(3 -7.04233e-16 0)
(3 -1.85903e-15 0)
(3 -3.1382e-15 0)
(3 -2.78605e-15 0)
(3 -1.69284e-15 0)
(3 -6.51819e-16 0)
(3 -3.35271e-17 0)
(3 3.17381e-16 0)
(3 -4.59411e-18 0)
(3 5.61118e-16 0)
(3 1.06242e-15 0)
(3 1.44919e-15 0)
(3 7.43716e-16 0)
(3 5.96253e-16 0)
(3 6.89569e-16 0)
(3 7.41908e-16 0)
(3 5.15084e-16 0)
(3 -1.48437e-16 0)
(3 -1.06447e-15 0)
(3 -1.05714e-15 0)
(3 -7.32019e-16 0)
(3 -1.05329e-15 0)
(3 -1.34857e-15 0)
(3 -1.23256e-15 0)
(3 -9.97586e-16 0)
(3 -7.52809e-16 0)
(3 -7.18944e-16 0)
(3 -5.60364e-16 0)
(3 1.00698e-16 0)
(3 7.73874e-16 0)
(3 -2.37164e-16 0)
(3 -1.38274e-15 0)
(3 -1.80548e-15 0)
(3 -1.48103e-15 0)
(3 -1.26399e-15 0)
(3 -1.725e-15 0)
(3 -2.56662e-15 0)
(3 -3.49819e-15 0)
(3 5.39434e-13 0)
(2.17448 0.186648 0)
(0.860189 0.199848 0)
(0.757541 0.201269 0)
(0.743755 0.20964 0)
(0.729417 0.210572 0)
(0.715516 0.209331 0)
(0.700926 0.20729 0)
(0.685788 0.204883 0)
(0.670364 0.203236 0)
(0.655088 0.203184 0)
(0.640223 0.204805 0)
(0.626176 0.208558 0)
(0.612961 0.213666 0)
(0.599265 0.217467 0)
(0.584584 0.218174 0)
(0.569267 0.217652 0)
(0.554012 0.218217 0)
(0.539267 0.220072 0)
(0.524924 0.223665 0)
(0.510933 0.228874 0)
(0.496752 0.233329 0)
(0.482436 0.235537 0)
(0.46824 0.237921 0)
(0.454094 0.242243 0)
(0.439573 0.247415 0)
(0.42458 0.252065 0)
(0.409535 0.25644 0)
(0.394583 0.261186 0)
(0.379456 0.266292 0)
(0.36377 0.271523 0)
(0.347243 0.276815 0)
(0.329735 0.282117 0)
(0.311327 0.287304 0)
(0.292298 0.292281 0)
(0.272919 0.296947 0)
(0.253303 0.301186 0)
(0.233391 0.304951 0)
(0.213008 0.308232 0)
(0.191949 0.311073 0)
(0.170086 0.31353 0)
(0.147479 0.315891 0)
(0.124339 0.317893 0)
(0.101116 0.320557 0)
(0.0779649 0.322879 0)
(0.0554935 0.327206 0)
(0.0329624 0.329829 0)
(0.0114084 0.334805 0)
(3 5.14333e-17 0)
(3 5.61451e-17 0)
(3 1.38827e-16 0)
(3 9.57934e-17 0)
(3 -7.67461e-17 0)
(3 -1.61022e-16 0)
(3 -1.86579e-16 0)
(3 -2.26207e-16 0)
(3 -5.83418e-17 0)
(3 -4.66758e-16 0)
(3 -1.26737e-15 0)
(3 -2.51418e-15 0)
(3 -2.41355e-15 0)
(3 -2.1498e-15 0)
(3 -2.08033e-15 0)
(3 -1.82863e-15 0)
(3 -8.42077e-16 0)
(3 -9.46347e-17 0)
(3 5.42746e-16 0)
(3 6.50517e-16 0)
(3 6.03177e-16 0)
(3 5.73419e-16 0)
(3 7.17247e-16 0)
(3 9.24506e-16 0)
(3 1.13566e-15 0)
(3 7.34366e-16 0)
(3 -2.57755e-16 0)
(3 -9.0834e-16 0)
(3 -1.14017e-15 0)
(3 -1.31767e-15 0)
(3 -1.50461e-15 0)
(3 -1.48204e-15 0)
(3 -6.42082e-16 0)
(3 -2.77707e-17 0)
(3 2.38898e-16 0)
(3 4.23925e-16 0)
(3 1.31664e-16 0)
(3 -3.12502e-16 0)
(3 -3.40545e-17 0)
(3 -2.85999e-17 0)
(3 -9.27356e-17 0)
(3 -5.92126e-16 0)
(3 -1.14565e-15 0)
(3 -8.4982e-16 0)
(3 -6.96585e-16 0)
(3 -9.79861e-16 0)
(3 -1.55808e-15 0)
(3 -2.24612e-15 0)
(3 -1.29545e-15 0)
(2.68939 0.166453 0)
(0.962442 0.249115 0)
(0.780922 0.233716 0)
(0.771163 0.227094 0)
(0.755956 0.229207 0)
(0.741831 0.230294 0)
(0.72661 0.231132 0)
(0.71062 0.23131 0)
(0.694171 0.231184 0)
(0.677763 0.231379 0)
(0.661808 0.231961 0)
(0.646586 0.234095 0)
(0.632388 0.238875 0)
(0.61835 0.244646 0)
(0.603176 0.248384 0)
(0.587122 0.249383 0)
(0.570939 0.249275 0)
(0.555133 0.249938 0)
(0.539862 0.2532 0)
(0.525303 0.259079 0)
(0.510581 0.264603 0)
(0.495436 0.26716 0)
(0.480297 0.269106 0)
(0.465324 0.27337 0)
(0.45025 0.279231 0)
(0.434687 0.284682 0)
(0.419078 0.289532 0)
(0.403793 0.294744 0)
(0.388674 0.300589 0)
(0.373245 0.306783 0)
(0.357098 0.31318 0)
(0.340021 0.31977 0)
(0.32206 0.326441 0)
(0.303508 0.333036 0)
(0.284671 0.339404 0)
(0.265643 0.345365 0)
(0.246278 0.350814 0)
(0.226266 0.355668 0)
(0.205285 0.359945 0)
(0.183105 0.363656 0)
(0.159739 0.367168 0)
(0.135343 0.370003 0)
(0.110476 0.373339 0)
(0.0853583 0.37575 0)
(0.0607864 0.380136 0)
(0.0361305 0.382739 0)
(0.0124896 0.38802 0)
(3 3.78872e-17 0)
(3 -2.09892e-17 0)
(3 -1.90854e-16 0)
(3 -9.81752e-17 0)
(3 -1.97692e-16 0)
(3 -2.36856e-16 0)
(3 -3.01155e-16 0)
(3 -1.03648e-16 0)
(3 2.76508e-16 0)
(3 -3.69007e-16 0)
(3 -4.77613e-16 0)
(3 -3.97027e-16 0)
(3 -9.00313e-16 0)
(3 -1.05157e-15 0)
(3 -1.21061e-15 0)
(3 -1.45356e-15 0)
(3 -1.20018e-15 0)
(3 -8.09694e-16 0)
(3 -3.78674e-16 0)
(3 1.91593e-16 0)
(3 5.02728e-16 0)
(3 4.83862e-16 0)
(3 5.23203e-16 0)
(3 -2.52183e-17 0)
(3 -5.59121e-18 0)
(3 -3.80521e-16 0)
(3 -1.22316e-15 0)
(3 -1.27119e-15 0)
(3 -1.32658e-15 0)
(3 -1.22018e-15 0)
(3 -1.1176e-15 0)
(3 -1.71629e-16 0)
(3 4.37411e-18 0)
(3 3.53023e-16 0)
(3 1.05414e-15 0)
(3 1.25841e-15 0)
(3 9.02013e-16 0)
(3 4.20168e-16 0)
(3 -1.54449e-16 0)
(3 -4.38063e-16 0)
(3 -2.97314e-16 0)
(3 -9.65626e-16 0)
(3 -1.45e-15 0)
(3 -9.85862e-16 0)
(3 -9.22854e-16 0)
(3 1.14883e-17 0)
(3 4.66506e-16 0)
(3 1.00388e-15 0)
(3 8.1587e-16 0)
(3.01983 0.00999532 0)
(1.14958 0.278279 0)
(0.806893 0.233353 0)
(0.793921 0.247911 0)
(0.779868 0.254614 0)
(0.765565 0.257907 0)
(0.751004 0.26013 0)
(0.736077 0.261314 0)
(0.720764 0.261727 0)
(0.705125 0.261843 0)
(0.689414 0.261469 0)
(0.673922 0.261758 0)
(0.659179 0.265179 0)
(0.645428 0.271404 0)
(0.631169 0.277325 0)
(0.615634 0.280346 0)
(0.599475 0.280365 0)
(0.583265 0.279925 0)
(0.567283 0.282406 0)
(0.552214 0.288654 0)
(0.537265 0.295679 0)
(0.521529 0.299639 0)
(0.505515 0.301527 0)
(0.489534 0.305494 0)
(0.473641 0.311962 0)
(0.457235 0.3186 0)
(0.440556 0.324284 0)
(0.424212 0.330002 0)
(0.408281 0.3365 0)
(0.392312 0.343597 0)
(0.375785 0.351028 0)
(0.358397 0.358809 0)
(0.340118 0.366939 0)
(0.321198 0.375287 0)
(0.301954 0.38369 0)
(0.282465 0.391941 0)
(0.262529 0.399873 0)
(0.241749 0.407309 0)
(0.219796 0.414109 0)
(0.196469 0.420203 0)
(0.171845 0.425823 0)
(0.146041 0.430259 0)
(0.119642 0.434819 0)
(0.0926826 0.437724 0)
(0.0659872 0.442124 0)
(0.0391992 0.444478 0)
(0.0133632 0.449816 0)
(3 -3.20948e-17 0)
(3 1.83063e-17 0)
(3 -1.45481e-16 0)
(3 1.49212e-16 0)
(3 4.23997e-16 0)
(3 5.74948e-16 0)
(3 8.21039e-16 0)
(3 9.99764e-16 0)
(3 1.00099e-15 0)
(3 1.09064e-15 0)
(3 5.34471e-16 0)
(3 1.9397e-16 0)
(3 -1.67853e-16 0)
(3 -1.72685e-16 0)
(3 -5.76585e-17 0)
(3 -1.9263e-16 0)
(3 -5.69851e-16 0)
(3 -9.8472e-16 0)
(3 -8.83419e-16 0)
(3 -5.50417e-16 0)
(3 4.30065e-17 0)
(3 7.55161e-17 0)
(3 -2.90201e-16 0)
(3 -8.75771e-16 0)
(3 -1.36277e-15 0)
(3 -1.40292e-15 0)
(3 -1.26702e-15 0)
(3 -8.22514e-16 0)
(3 -1.99274e-16 0)
(3 -1.95846e-16 0)
(3 9.25041e-17 0)
(3 2.35771e-16 0)
(3 1.02873e-17 0)
(3 -1.57374e-16 0)
(3 7.22371e-16 0)
(3 1.63112e-15 0)
(3 2.4096e-15 0)
(3 1.83985e-15 0)
(3 4.25964e-16 0)
(3 -5.284e-16 0)
(3 -1.39805e-15 0)
(3 -1.43139e-15 0)
(3 -1.54843e-15 0)
(3 -1.42833e-15 0)
(3 -1.2138e-15 0)
(3 -5.467e-16 0)
(3 2.55757e-16 0)
(3 2.1839e-15 0)
(3 2.4895e-15 0)
(3.00029 9.83945e-06 0)
(1.56054 0.311175 0)
(0.824943 0.278129 0)
(0.780252 0.2794 0)
(0.767433 0.28579 0)
(0.754342 0.288004 0)
(0.74194 0.290068 0)
(0.729285 0.292054 0)
(0.716285 0.293941 0)
(0.702858 0.295619 0)
(0.689023 0.296259 0)
(0.675033 0.296175 0)
(0.661248 0.298116 0)
(0.648494 0.303714 0)
(0.63625 0.31112 0)
(0.622879 0.316511 0)
(0.608507 0.31791 0)
(0.593751 0.317369 0)
(0.578779 0.319017 0)
(0.564622 0.324923 0)
(0.551183 0.332972 0)
(0.53684 0.338652 0)
(0.521811 0.340968 0)
(0.506505 0.344287 0)
(0.491307 0.350645 0)
(0.475716 0.358164 0)
(0.45948 0.364751 0)
(0.443241 0.370837 0)
(0.427367 0.377624 0)
(0.411601 0.38529 0)
(0.395435 0.393528 0)
(0.378499 0.402287 0)
(0.360658 0.411713 0)
(0.342073 0.421735 0)
(0.323127 0.432183 0)
(0.304011 0.442822 0)
(0.284518 0.453292 0)
(0.264399 0.463471 0)
(0.242998 0.472895 0)
(0.220287 0.481465 0)
(0.195854 0.489448 0)
(0.169356 0.496252 0)
(0.141109 0.5037 0)
(0.11074 0.509831 0)
(0.0792828 0.51627 0)
(0.0470412 0.519372 0)
(0.015772 0.524553 0)
(3 2.04228e-17 0)
(3 7.07033e-17 0)
(3 4.94718e-16 0)
(3 8.05396e-16 0)
(3 8.82098e-16 0)
(3 9.83873e-16 0)
(3 1.08306e-15 0)
(3 1.04868e-15 0)
(3 1.48665e-15 0)
(3 1.74209e-15 0)
(3 1.52661e-15 0)
(3 1.37068e-15 0)
(3 1.15005e-15 0)
(3 5.9704e-16 0)
(3 4.22624e-18 0)
(3 -2.96266e-16 0)
(3 -2.15485e-17 0)
(3 -1.26477e-16 0)
(3 -2.72712e-16 0)
(3 -3.63985e-16 0)
(3 -7.22762e-17 0)
(3 -3.18633e-16 0)
(3 -9.88296e-16 0)
(3 -1.24494e-15 0)
(3 -1.42677e-15 0)
(3 -1.53803e-15 0)
(3 -1.40233e-15 0)
(3 -7.72797e-16 0)
(3 -3.22626e-16 0)
(3 -5.42006e-17 0)
(3 -2.47801e-17 0)
(3 1.291e-18 0)
(3 -3.77285e-17 0)
(3 -5.77766e-16 0)
(3 -7.53353e-16 0)
(3 -6.66027e-16 0)
(3 -1.77943e-16 0)
(3 -1.62084e-16 0)
(3 -1.14715e-15 0)
(3 -1.42036e-15 0)
(3 -1.29241e-15 0)
(3 -1.33791e-15 0)
(3 -1.4445e-15 0)
(3 -1.6618e-15 0)
(3 -1.26291e-15 0)
(3 -1.43443e-16 0)
(3 2.61247e-16 0)
(3 6.39701e-16 0)
(3 9.15886e-16 0)
(3 1.81297e-08 0)
(2.38927 0.281956 0)
(0.920952 0.338422 0)
(0.793222 0.317501 0)
(0.780528 0.31122 0)
(0.766293 0.313557 0)
(0.753643 0.316613 0)
(0.741229 0.31962 0)
(0.728901 0.322517 0)
(0.716448 0.325414 0)
(0.703572 0.327456 0)
(0.690299 0.327999 0)
(0.676885 0.328983 0)
(0.664063 0.333229 0)
(0.652444 0.340507 0)
(0.640524 0.347377 0)
(0.627425 0.350626 0)
(0.613647 0.35091 0)
(0.599367 0.352198 0)
(0.585511 0.357527 0)
(0.572854 0.366222 0)
(0.559774 0.374148 0)
(0.54566 0.378303 0)
(0.53105 0.381717 0)
(0.51647 0.387948 0)
(0.501851 0.39643 0)
(0.486456 0.404732 0)
(0.470566 0.412121 0)
(0.454788 0.419752 0)
(0.439046 0.428345 0)
(0.423231 0.437805 0)
(0.406849 0.447955 0)
(0.389685 0.458947 0)
(0.371503 0.470832 0)
(0.352666 0.483494 0)
(0.333438 0.496846 0)
(0.313308 0.510522 0)
(0.292427 0.524466 0)
(0.270216 0.538384 0)
(0.24576 0.552029 0)
(0.21878 0.565707 0)
(0.188955 0.578616 0)
(0.157373 0.591914 0)
(0.124546 0.603976 0)
(0.0906861 0.613637 0)
(0.055365 0.61857 0)
(0.0176943 0.621894 0)
(3 8.13426e-17 0)
(3 1.58247e-16 0)
(3 3.9555e-16 0)
(3 2.47261e-16 0)
(3 4.51037e-16 0)
(3 6.77354e-16 0)
(3 8.03886e-16 0)
(3 8.93991e-16 0)
(3 1.31913e-15 0)
(3 1.36959e-15 0)
(3 1.54984e-15 0)
(3 1.53556e-15 0)
(3 1.40423e-15 0)
(3 1.15464e-15 0)
(3 4.24088e-16 0)
(3 4.35993e-16 0)
(3 4.42397e-16 0)
(3 4.26368e-16 0)
(3 5.30042e-16 0)
(3 5.01645e-17 0)
(3 -6.01534e-16 0)
(3 -6.25808e-16 0)
(3 -6.7239e-16 0)
(3 -8.75343e-16 0)
(3 -9.22502e-16 0)
(3 -8.3736e-16 0)
(3 -7.00332e-16 0)
(3 -8.21641e-17 0)
(3 1.56652e-16 0)
(3 1.82138e-16 0)
(3 1.98328e-16 0)
(3 3.25409e-17 0)
(3 1.20455e-16 0)
(3 -7.30047e-16 0)
(3 -1.45931e-15 0)
(3 -2.48412e-15 0)
(3 -3.20351e-15 0)
(3 -3.32312e-15 0)
(3 -2.43864e-15 0)
(3 -2.03877e-15 0)
(3 -1.55943e-15 0)
(3 -2.02511e-15 0)
(3 -2.07668e-15 0)
(3 -1.33204e-15 0)
(3 -7.05518e-16 0)
(3 -4.85266e-16 0)
(3 -7.99083e-16 0)
(3 -1.1204e-15 0)
(3 -9.53139e-16 0)
(3 -6.79776e-09 0)
(3.02814 0.0173377 0)
(1.25858 0.3776 0)
(0.843811 0.324619 0)
(0.822519 0.334215 0)
(0.805168 0.337627 0)
(0.790086 0.339903 0)
(0.776063 0.342503 0)
(0.762495 0.345674 0)
(0.749184 0.349817 0)
(0.735788 0.354212 0)
(0.721941 0.357325 0)
(0.707912 0.358957 0)
(0.694224 0.361836 0)
(0.681726 0.367839 0)
(0.669937 0.375248 0)
(0.657336 0.380937 0)
(0.643694 0.383624 0)
(0.629462 0.385609 0)
(0.615326 0.390364 0)
(0.60242 0.398898 0)
(0.590078 0.408476 0)
(0.576831 0.415303 0)
(0.562922 0.419766 0)
(0.548936 0.425757 0)
(0.535244 0.434672 0)
(0.521071 0.444755 0)
(0.506045 0.454304 0)
(0.490391 0.46353 0)
(0.474966 0.473461 0)
(0.459741 0.484473 0)
(0.444367 0.496482 0)
(0.428313 0.509374 0)
(0.411361 0.52339 0)
(0.393485 0.538664 0)
(0.374745 0.555245 0)
(0.355527 0.573073 0)
(0.335736 0.592074 0)
(0.315017 0.611978 0)
(0.292625 0.632231 0)
(0.268242 0.652425 0)
(0.241526 0.671185 0)
(0.212225 0.68754 0)
(0.180579 0.703406 0)
(0.143232 0.722013 0)
(0.0968679 0.744246 0)
(0.0369726 0.763817 0)
(3 -8.35025e-17 0)
(3 -2.65761e-17 0)
(3 -4.4077e-17 0)
(3 -1.33118e-16 0)
(3 -4.76391e-16 0)
(3 -6.10352e-16 0)