/*--------------------------------*- C++ -*----------------------------------*\
  =========                 |
  \\      /  F ield         | OpenFOAM: The Open Source CFD Toolbox
   \\    /   O peration     | Website:  https://openfoam.org
    \\  /    A nd           | Version:  7
     \\/     M anipulation  |
\*---------------------------------------------------------------------------*/
FoamFile
{
    version     2.0;
    format      ascii;
    class       volScalarField;
    location    "9";
    object      p;
}
// * * * * * * * * * * * * * * * * * * * * * * * * * * * * * * * * * * * * * //

dimensions      [0 2 -2 0 0 0 0];

internalField   nonuniform List<scalar> 
16000
(
-1.2416568e-05
-0.00016192744
-0.00047218893
-0.00086872717
-0.0012791159
-0.0016591713
-0.0019785642
-0.0022189064
-0.0023698308
-0.0024257329
-0.002383773
-0.0022426816
-0.0020020561
-0.0016622649
-0.0012247714
-0.00069267569
-7.1308022e-05
0.00063110479
0.0014028946
0.0022286301
0.0030889928
0.0039610308
0.0048187275
0.0056339746
0.0063779106
0.0070225818
0.0075427945
0.0079179864
0.008134047
0.0081848626
0.008073416
0.0078123789
0.0074241758
0.006940587
0.0064017646
0.0058542505
0.0053525932
0.004952264
0.0047144634
0.0046747146
0.00011955898
-2.644662e-05
-0.00027410268
-0.00057818568
-0.00089406893
-0.0011880688
-0.001436415
-0.0016233006
-0.0017385157
-0.0017757334
-0.001731195
-0.0016027293
-0.0013892283
-0.0010905941
-0.00070793425
-0.00024395037
0.00029661113
0.00090644509
0.0015752738
0.0022896388
0.0030327916
0.0037850303
0.0045240255
0.0052258208
0.0058659586
0.006420897
0.0068696044
0.0071951662
0.0073863151
0.0074387087
0.0073558059
0.0071492642
0.0068388185
0.0064516683
0.006021415
0.0055864262
0.0051874802
0.0048673284
0.0046706141
0.0046341477
0.00042826325
0.00021260565
-3.9712999e-05
-0.00031395749
-0.00058830432
-0.00083865227
-0.0010475472
-0.0012030744
-0.0012971146
-0.001324299
-0.0012810893
-0.0011651137
-0.00097488543
-0.00070980677
-0.00037035503
4.153639e-05
0.00052205273
0.0010650398
0.0016616281
0.0023000312
0.0029654544
0.0036402151
0.0043042804
0.0049360072
0.0055132105
0.0060145003
0.0064207494
0.0067165951
0.006891876
0.0069428055
0.0068727372
0.0066924394
0.0064198417
0.0060792579
0.0057001406
0.0053154133
0.0049592554
0.0046654711
0.0044698926
0.0044017505
0.00083927146
0.00051257867
0.00021668091
-6.3751612e-05
-0.00032834966
-0.00056109131
-0.00075049453
-0.00088934092
-0.00097262652
-0.00099679134
-0.00095915814
-0.00085758185
-0.0006903618
-0.00045633903
-0.00015515602
0.00021228531
0.00064337339
0.0011333189
0.0016747431
0.0022574051
0.0028680519
0.0034904716
0.0041060004
0.0046941937
0.0052338328
0.0057042373
0.0060867285
0.0063661361
0.0065322398
0.0065809376
0.0065149983
0.0063442802
0.0060853755
0.0057606922
0.0053970276
0.0050238007
0.00467129
0.0043690118
0.00414278
0.0040074131
0.0012782
0.0008258478
0.0004690145
0.00016478979
-0.00010662803
-0.00033618027
-0.00051809227
-0.00065004261
-0.00073040216
-0.00075766584
-0.00073027521
-0.00064648054
-0.00050437735
-0.0003021527
-3.8474428e-05
0.00028698582
0.00067304984
0.0011164718
0.0016114593
0.0021492928
0.0027180842
0.0033028192
0.0038857087
0.0044468503
0.0049652104
0.0054199405
0.0057918752
0.0060651121
0.006228535
0.0062770545
0.0062124005
0.0060433427
0.0057852853
0.0054592356
0.0050901984
0.0047052819
0.0043323833
0.0039984154
0.0037187174
0.0034952799
0.0016931087
0.0011101706
0.00068339745
0.00034422562
5.4439243e-05
-0.00018297586
-0.00036754032
-0.00050156288
-0.00058669057
-0.00062350249
-0.00061159005
-0.00054958365
-0.00043532987
-0.00026626246
-3.9916712e-05
0.00024544371
0.00059025768
0.00099297694
0.0014494744
0.0019525562
0.0024915988
0.0030525184
0.003618028
0.0041682462
0.004681658
0.0051364661
0.0055121689
0.0057912634
0.0059608992
0.0060142631
0.0059514965
0.00577999
0.0055139846
0.0051734733
0.0047824377
0.0043668225
0.0039536809
0.0035692294
0.0032201919
0.0028942163
0.0020397998
0.0013277905
0.00082759255
0.00044710683
0.00013126154
-0.00012229585
-0.00031784099
-0.00046190838
-0.00055914786
-0.00061207833
-0.00062133303
-0.0005857942
-0.00050292431
-0.0003692775
-0.0001810935
6.4965633e-05
0.00037113837
0.00073773802
0.0011624088
0.0016395241
0.0021597082
0.0027096754
0.0032723707
0.003827526
0.0043525988
0.004824163
0.0052195837
0.005518879
0.0057065704
0.0057732853
0.0057168847
0.0055429242
0.0052643464
0.0049003786
0.0044746428
0.0040130001
0.0035431486
0.0030924315
0.0026607755
0.0022230042
0.0022806156
0.0014447274
0.00087148234
0.00044696939
0.00010052572
-0.0001749805
-0.00038803817
-0.00054899959
-0.00066521891
-0.00074088665
-0.00077743402
-0.00077381074
-0.00072692943
-0.00063228219
-0.00048460953
-0.0002787536
-1.0481793e-05
0.00032256522
0.00071999322
0.0011778922
0.0016882201
0.0022384993
0.0028117928
0.0033871928
0.0039407184
0.0044467285
0.0048796995
0.0052162715
0.0054373513
0.0055300198
0.0054889721
0.0053172576
0.0050261681
0.0046342216
0.0041651969
0.0036458453
0.0031059091
0.0025755999
0.0020498498
0.0014923611
0.0023826079
0.0014301357
0.00078657013
0.00031761066
-6.1845438e-05
-0.00036330678
-0.0005991182
-0.00078306291
-0.00092484341
-0.0010300094
-0.001100531
-0.0011352039
-0.0011301759
-0.0010796465
-0.00097663504
-0.00081393581
-0.0005850745
-0.0002853912
8.6956428e-05
0.00053005147
0.0010374136
0.0015975461
0.0021936901
0.0028042235
0.0034034583
0.0039630436
0.0044538359
0.0048481459
0.0051221493
0.0052581868
0.005246641
0.0050870953
0.0047885619
0.0043686687
0.0038516869
0.0032661098
0.0026450518
0.0020232748
0.0013921919
0.00070532748
0.0023162039
0.0012557143
0.00054593747
3.358294e-05
-0.00037992137
-0.00071021863
-0.00097323331
-0.0011858226
-0.0013596986
-0.0015014722
-0.0016133955
-0.0016938667
-0.0017380325
-0.0017385587
-0.0016865006
-0.0015723545
-0.001387108
-0.0011234478
-0.0007769123
-0.00034702631
0.00016168454
0.00073914566
0.0013689798
0.002028985
0.0026916738
0.0033256075
0.0038973293
0.004373813
0.0047252261
0.0049277159
0.0049658668
0.004834462
0.0045392387
0.0040964372
0.0035309146
0.0028736043
0.0021622606
0.0014378573
0.00068941083
-0.00013940022
0.0020543447
0.00089541672
0.00012451943
-0.00042923408
-0.00087698743
-0.001238366
-0.0015326295
-0.0017793994
-0.0019921051
-0.0021781607
-0.0023398597
-0.0024749629
-0.0025773824
-0.0026380295
-0.0026457512
-0.0025884515
-0.0024542296
-0.00223269
-0.0019162462
-0.0015014735
-0.00099037735
-0.00039082785
0.00028151502
0.0010042816
0.001748318
0.0024788918
0.0031576268
0.0037451199
0.0042040855
0.0045027241
0.0046179251
0.0045378537
0.004263484
0.0038087292
0.0031987885
0.002467524
0.0016585355
0.00082070003
-5.8562307e-05
-0.0010456939
0.0015723529
0.00032557776
-0.00050057863
-0.0010931574
-0.0015749267
-0.0019693452
-0.0022987931
-0.0025854049
-0.0028440918
-0.0030828505
-0.0033038025
-0.0035038739
-0.003675551
-0.0038077899
-0.0038869947
-0.0038981654
-0.0038261064
-0.0036568341
-0.0033790188
-0.0029854832
-0.0024746427
-0.0018523622
-0.0011317297
-0.00033483603
0.00050786229
0.001358382
0.0021729814
0.0029048744
0.0035077456
0.0039397827
0.0041678021
0.0041709294
0.0039432345
0.0034947569
0.002850309
0.0020468652
0.0011349912
0.00017324069
-0.00085200431
-0.0020181205
0.00084820176
-0.00047478771
-0.0013497583
-0.0019782599
-0.0024936097
-0.0029229499
-0.0032916097
-0.0036240179
-0.0039363725
-0.004237081
-0.0045279388
-0.0048049031
-0.0050589072
-0.0052767927
-0.005442301
-0.0055372218
-0.0055426389
-0.0054404068
-0.0052147221
-0.004853826
-0.0043517413
-0.0037101918
-0.0029395287
-0.0020602867
-0.0011033571
-0.00010956427
0.00087182733
0.0017857915
0.0025753601
0.0031863631
0.0035726465
0.0037011518
0.003556067
0.0031411824
0.0024794999
0.0016108318
0.00059368207
-0.00050182636
-0.0016899339
-0.0030601916
-0.00013706569
-0.0015236452
-0.002440517
-0.0031018355
-0.0036502473
-0.0041164236
-0.0045284836
-0.0049129543
-0.0052871706
-0.0056598413
-0.0060323636
-0.0063996741
-0.0067510943
-0.0070712534
-0.0073410581
-0.0075388053
-0.0076414386
-0.0076260508
-0.0074715549
-0.00716058
-0.006681503
-0.0060305927
-0.0052138492
-0.0042487896
-0.0031654517
-0.0020065997
-0.00082673181
0.00031035156
0.0013355197
0.0021797244
0.0027804442
0.0030884833
0.0030741379
0.0027314739
0.0020792754
0.0011592212
3.8450756e-05
-0.0011993321
-0.002568618
-0.0041726662
-0.0013988559
-0.0028355249
-0.0037869896
-0.0044778715
-0.0050587742
-0.0055637159
-0.0060234366
-0.0064663916
-0.0069109609
-0.0073661287
-0.007832912
-0.0083052656
-0.008770924
-0.0092122814
-0.0096073128
-0.0099306067
-0.010154588
-0.010250999
-0.010192635
-0.0099553927
-0.0095205892
-0.0088774715
-0.0080257439
-0.0069779787
-0.0057615098
-0.0044195072
-0.0030107739
-0.0016078654
-0.00029323284
0.00084671013
0.0017292952
0.0022844111
0.002463252
0.0022452802
0.0016412977
0.00069283206
-0.00052415324
-0.0019103085
-0.0034799728
-0.0053517866
-0.0029484715
-0.0044210443
-0.0053995031
-0.006116566
-0.006729264
-0.0072747358
-0.0077861757
-0.0082938454
-0.0088171472
-0.009365406
-0.0099393723
-0.010532147
-0.011130001
-0.011713174
-0.01225671
-0.012731369
-0.013104761
-0.013342756
-0.013411227
-0.013278217
-0.012916495
-0.012306473
-0.01143939
-0.01032049
-0.0089719468
-0.0074350574
-0.0057711685
-0.0040607443
-0.0024000342
-0.00089494486
0.00034780796
0.0012317087
0.001682349
0.0016580069
0.0011559329
0.0002139621
-0.001083821
-0.0026204718
-0.0044097345
-0.0065872905
-0.0047926146
-0.0062865525
-0.0072842516
-0.0080239509
-0.0086674374
-0.0092547077
-0.009821273
-0.010399142
-0.011008805
-0.011660081
-0.012353665
-0.013082038
-0.013830235
-0.014576541
-0.015293189
-0.015947109
-0.016500927
-0.01691423
-0.01714528
-0.017153216
-0.016900801
-0.016357727
-0.01550441
-0.014336016
-0.012866529
-0.011132308
-0.0091944927
-0.0071395065
-0.0050768038
-0.0031330932
-0.0014427211
-0.00013449834
0.00068384594
0.00094090058
0.00061250407
-0.00027288239
-0.0016252126
-0.0033084501
-0.0053353103
-0.007860063
-0.0069329765
-0.0084338842
-0.0094430832
-0.010201618
-0.010874273
-0.011503637
-0.012127453
-0.012779492
-0.013481495
-0.014244039
-0.015068077
-0.015945817
-0.016861404
-0.017791482
-0.018705721
-0.019567362
-0.020334021
-0.020958772
-0.021391745
-0.021582305
-0.021481907
-0.021047712
-0.020246921
-0.019061677
-0.017494297
-0.015572394
-0.013353103
-0.010925527
-0.0084102614
-0.0059547512
-0.0037236098
-0.0018836708
-0.00058458724
6.207418e-05
1.4184504e-07
-0.00075985718
-0.0021263039
-0.0039436167
-0.0062232162
-0.009139313
-0.0093660461
-0.010860301
-0.011873481
-0.012646668
-0.013345879
-0.014016037
-0.014697112
-0.015424771
-0.016222296
-0.017101405
-0.01806375
-0.019101725
-0.020199042
-0.021331128
-0.022465459
-0.023561862
-0.024573091
-0.025445673
-0.026121328
-0.026539044
-0.02663794
-0.02636108
-0.025660229
-0.024501615
-0.022872176
-0.02078643
-0.018292737
-0.015478185
-0.01247065
-0.0094362973
-0.0065709142
-0.004084073
-0.0021761477
-0.0010109997
-0.00069040079
-0.001233986
-0.0025561717
-0.0044833121
-0.0070258771
-0.010379106
-0.012083161
-0.013558722
-0.014568862
-0.015351987
-0.016073656
-0.016780928
-0.017516111
-0.01831708
-0.019209118
-0.020205633
-0.021309551
-0.022514024
-0.023802879
-0.025150846
-0.026523663
-0.027878147
-0.029162493
-0.030316855
-0.031274535
-0.031963861
-0.032310977
-0.032243685
-0.03169647
-0.030617193
-0.028973692
-0.026762839
-0.024018765
-0.020820555
-0.017297589
-0.013630307
-0.010044024
-0.0067936656
-0.0041382149
-0.0023068769
-0.0014634855
-0.0016743775
-0.0028720573
-0.0048694071
-0.0076776728
-0.011514055
-0.015070865
-0.016518301
-0.01751923
-0.018306867
-0.019044799
-0.019782135
-0.020563857
-0.021430607
-0.022410384
-0.02351903
-0.024761473
-0.026132302
-0.027616083
-0.029187413
-0.030810816
-0.032440575
-0.034020742
-0.03548546
-0.03675985
-0.037761651
-0.038403823
-0.038598296
-0.038261043
-0.037319684
-0.035719726
-0.033436084
-0.030482979
-0.026924613
-0.022884339
-0.01854982
-0.014170993
-0.010047477
-0.0065023626
-0.0038427937
-0.0023133192
-0.0020480623
-0.0030153538
-0.0050239409
-0.0080901052
-0.012454109
-0.018311698
-0.019725476
-0.0207123
-0.021498041
-0.022243158
-0.022998939
-0.02381372
-0.024731863
-0.025785121
-0.02699278
-0.028362666
-0.02989158
-0.031565487
-0.033359428
-0.035237228
-0.037151119
-0.039041485
-0.040836914
-0.042454793
-0.043802643
-0.044780479
-0.045284435
-0.045211876
-0.044467398
-0.042973519
-0.040679238
-0.037573488
-0.033698462
-0.029162767
-0.024151849
-0.018931807
-0.013841987
-0.0092710445
-0.0056142524
-0.003216184
-0.0023040367
-0.0029063217
-0.0048436477
-0.0081458615
-0.013078226
-0.021785456
-0.02316552
-0.024135112
-0.024911175
-0.02565049
-0.026407053
-0.027233773
-0.028180238
-0.029283457
-0.030567482
-0.032044128
-0.033713263
-0.035562907
-0.037569063
-0.039695286
-0.041892165
-0.044096832
-0.04623279
-0.048210222
-0.049927029
-0.051270881
-0.052122535
-0.052360637
-0.051868079
-0.050541815
-0.048302782
-0.045110486
-0.040978598
-0.035992006
-0.030322893
-0.024241799
-0.018118002
-0.012401606
-0.0075815411
-0.0041199407
-0.0023651414
-0.002437187
-0.0041931691
-0.0076916443
-0.013226855
-0.025470959
-0.02682472
-0.027776229
-0.028532838
-0.029248079
-0.029979874
-0.030787746
-0.031728803
-0.032847416
-0.034174126
-0.035726025
-0.037506946
-0.039507551
-0.041705174
-0.044063358
-0.046531259
-0.049043017
-0.051517397
-0.053857872
-0.055953386
-0.057680083
-0.058904263
-0.059486781
-0.059289228
-0.058183527
-0.05606135
-0.052850145
-0.04853003
-0.043154083
-0.03686986
-0.029938378
-0.022744552
-0.015789354
-0.0096539612
-0.004930826
-0.0021175896
-0.0014633986
-0.0028967168
-0.006529538
-0.012693066
-0.029348504
-0.03069337
-0.031628689
-0.032353029
-0.0330187
-0.033689913
-0.034436086
-0.035325225
-0.036411948
-0.037735453
-0.039319575
-0.04117298
-0.043289398
-0.045647612
-0.048211112
-0.05092753
-0.053727982
-0.056526603
-0.05922046
-0.061690098
-0.063800972
-0.065406025
-0.066349697
-0.066473719
-0.065625502
-0.063668657
-0.060497649
-0.056056091
-0.050359169
-0.043519674
-0.035774669
-0.027507208
-0.019252306
-0.011673513
-0.0054983351
-0.0013982196
0.00020713578
-0.00072796853
-0.0044066821
-0.011212169
-0.033403262
-0.034769922
-0.035693971
-0.03636836
-0.036948882
-0.037510276
-0.038136947
-0.038912637
-0.03990601
-0.041167539
-0.042729352
-0.044605664
-0.046793378
-0.049272461
-0.052005887
-0.054939252
-0.058000218
-0.06109803
-0.064123336
-0.06694858
-0.069429175
-0.071405741
-0.072707729
-0.073158784
-0.072583443
-0.070819182
-0.067728486
-0.063217924
-0.057261532
-0.049929887
-0.041423264
-0.032104502
-0.022521145
-0.01340063
-0.0055996821
1.9990924e-05
0.002826901
0.002602145
-0.0010027697
-0.0084494201
-0.037630151
-0.039066877
-0.039987298
-0.040585974
-0.041031351
-0.041415977
-0.041846905
-0.042430273
-0.043253576
-0.044381502
-0.045855908
-0.047696882
-0.049904095
-0.052457864
-0.055319627
-0.05843191
-0.061717997
-0.06508153
-0.06840632
-0.07155661
-0.074378077
-0.07669976
-0.078337242
-0.079097474
-0.078785364
-0.077213572
-0.074215212
-0.069661485
-0.06348504
-0.055710458
-0.046491887
-0.036155476
-0.02523803
-0.01450544
-0.0049262815
0.0024430037
0.0067234846
0.0074600958
0.0040853451
-0.0039850428
-0.04204118
-0.0436194
-0.044544961
-0.045028408
-0.045267592
-0.045384902
-0.045521178
-0.045813723
-0.046374484
-0.047285286
-0.048598636
-0.050340088
-0.052510879
-0.055090075
-0.058035864
-0.061286057
-0.064758094
-0.068348816
-0.071934311
-0.075370086
-0.078491941
-0.081117634
-0.083049617
-0.084079369
-0.08399389
-0.082583735
-0.079655596
-0.075048187
-0.068655046
-0.060454757
-0.05055066
-0.039220036
-0.026967472
-0.014568348
-0.0030755711
0.0062694423
0.012315756
0.014307497
0.011363293
0.0027050989
-0.046677272
-0.048498474
-0.049434676
-0.049739722
-0.049670417
-0.0493982
-0.049113211
-0.048994746
-0.049185132
-0.049785528
-0.050858871
-0.052434533
-0.054512966
-0.057069404
-0.060056252
-0.063404302
-0.067023143
-0.070801132
-0.074605435
-0.078281751
-0.081655409
-0.084532721
-0.086703011
-0.087942657
-0.088023945
-0.086713943
-0.083797647
-0.079084379
-0.072431993
-0.063775941
-0.053168576
-0.040831773
-0.027221257
-0.013093697
0.00044769246
0.011999957
0.020130567
0.023722939
0.021465683
0.012276882
-0.051628437
-0.053831711
-0.054770597
-0.054793265
-0.054266368
-0.053439843
-0.052573468
-0.051900666
-0.051599127
-0.051789646
-0.052543278
-0.053889675
-0.055824608
-0.058315696
-0.061306184
-0.064716859
-0.068446971
-0.072374312
-0.076355971
-0.080226038
-0.083798397
-0.086867411
-0.089208494
-0.090581673
-0.090754189
-0.089454826
-0.086458209
-0.081545612
-0.074542243
-0.065344218
-0.053955655
-0.040541541
-0.025498297
-0.0095400865
0.0062153917
0.020237417
0.030817799
0.036429102
0.035193804
0.025560996
-0.057070029
-0.059837244
-0.060735287
-0.060301361
-0.059097521
-0.057494935
-0.055847289
-0.054453364
-0.053528003
-0.053208197
-0.053567464
-0.054629565
-0.056379756
-0.058772935
-0.061739033
-0.065185205
-0.068997726
-0.073041782
-0.077161447
-0.081179126
-0.084896136
-0.088093445
-0.090533048
-0.091961158
-0.092116084
-0.090726551
-0.087533353
-0.082293793
-0.074803452
-0.064921766
-0.052607497
-0.037969609
-0.021339549
-0.0033706716
0.014839011
0.031670827
0.045159478
0.053326261
0.05357149
0.043637031
-0.063330651
-0.066879896
-0.06761154
-0.066426504
-0.064221468
-0.0615458
-0.058871177
-0.056567501
-0.054881622
-0.05395703
-0.053859217
-0.054596519
-0.056135642
-0.058412388
-0.061338096
-0.064802921
-0.068677128
-0.072811073
-0.077034703
-0.081156933
-0.084965459
-0.088227128
-0.090689223
-0.092082063
-0.092123757
-0.09052598
-0.087003957
-0.081288756
-0.073144918
-0.062394599
-0.048950917
-0.032865488
-0.014399083
0.0058725537
0.026903617
0.04703256
0.0640646
0.075531141
0.07792868
0.067968095
-0.071024032
-0.075564785
-0.07582653
-0.073391663
-0.069706445
-0.06556332
-0.061565577
-0.058146282
-0.055566704
-0.053957699
-0.053359859
-0.053752682
-0.055073722
-0.057232361
-0.060116114
-0.063594185
-0.06751832
-0.071722295
-0.076020852
-0.080208488
-0.084058681
-0.087323742
-0.089735515
-0.091007535
-0.090838759
-0.088919111
-0.084938078
-0.078597361
-0.069626184
-0.057804139
-0.042991966
-0.025175903
-0.0045342965
0.018462785
0.042858047
0.067008962
0.088529597
0.10441233
0.11002892
0.1006592
-0.08131688
-0.086890928
-0.08600292
-0.08147853
-0.075611693
-0.069485496
-0.063817433
-0.059068994
-0.055478423
-0.053131766
-0.052020206
-0.052075946
-0.05319591
-0.055254481
-0.058110189
-0.061608089
-0.065579578
-0.069840887
-0.074191158
-0.078410444
-0.082258192
-0.085472465
-0.087769913
-0.088847231
-0.088384039
-0.086047548
-0.081499211
-0.074407634
-0.064460153
-0.051383854
-0.034972756
-0.015126901
0.0080876235
0.034337327
0.062833016
0.092054786
0.11950566
0.14158387
0.15226683
0.1449645
-0.096496214
-0.10249264
-0.098976292
-0.090967498
-0.081915066
-0.073152453
-0.065427421
-0.059149977
-0.054468851
-0.051376265
-0.049779952
-0.049543757
-0.050509888
-0.052510045
-0.055369563
-0.058907442
-0.062934218
-0.067248903
-0.071635862
-0.075861837
-0.079673561
-0.082796252
-0.084932807
-0.085764389
-0.08495239
-0.082141547
-0.076964413
-0.06905317
-0.058046226
-0.043605404
-0.025436915
-0.0033219702
0.022834187
0.052912796
0.086397376
0.12205269
0.1575649
0.18875322
0.20790547
0.20611774
-0.12113009
-0.12498932
-0.11569905
-0.10194481
-0.088325558
-0.076148117
-0.065985515
-0.058044918
-0.052277944
-0.048512522
-0.046530637
-0.046103291
-0.047005485
-0.049020707
-0.051939567
-0.055555652
-0.059660415
-0.064037972
-0.068460451
-0.072683963
-0.076445319
-0.079459746
-0.081419354
-0.081992768
-0.080826156
-0.077543446
-0.071751136
-0.063043334
-0.051004966
-0.035221081
-0.015286914
0.0091765117
0.038493804
0.072872168
0.11224956
0.15599202
0.20237039
0.24727697
0.28106335
0.29210744
-0.1642958
-0.15827663
-0.13701555
-0.11406497
-0.094062367
-0.077629525
-0.064766295
-0.055202107
-0.048522472
-0.044297863
-0.042137262
-0.041698147
-0.042682063
-0.044825186
-0.047887438
-0.051642111
-0.055866812
-0.060335758
-0.064813534
-0.069050005
-0.072776368
-0.075702166
-0.077513206
-0.077870607
-0.076410879
-0.072737623
-0.066441428
-0.057079894
-0.044185779
-0.027263304
-0.0057809649
0.020838222
0.053226771
0.092065513
0.13801317
0.19153757
0.25238163
0.31723463
0.37599903
0.41509429
-0.24616379
-0.20618622
-0.16202158
-0.12546268
-0.097127132
-0.075906072
-0.060545832
-0.049822372
-0.042722306
-0.038471921
-0.036484232
-0.036305764
-0.037576749
-0.040000415
-0.043319378
-0.047298041
-0.051709615
-0.056326257
-0.060911662
-0.065215306
-0.068968052
-0.071878861
-0.07363243
-0.07388835
-0.07228143
-0.068396614
-0.061824024
-0.052091116
-0.038690093
-0.021056214
0.0014600471
0.029637523
0.064457091
0.10720505
0.15959134
0.22388748
0.30261201
0.39524137
0.49595667
0.60292021
-0.42531642
-0.26559901
-0.17711473
-0.12457493
-0.089107884
-0.06514083
-0.049394791
-0.039270476
-0.033063389
-0.029729807
-0.028586689
-0.029150809
-0.031060878
-0.034030106
-0.037814267
-0.042190562
-0.046943511
-0.051855036
-0.056697204
-0.061226764
-0.065181012
-0.068274628
-0.070197007
-0.070609064
-0.069132494
-0.065413216
-0.058983458
-0.04937503
-0.036067551
-0.018463135
0.0041508894
0.032674075
0.068326606
0.11289362
0.16916596
0.2417331
0.33777521
0.4656226
0.64276074
0.92056686
-0.79317382
-0.32429924
-0.14887889
-0.087654583
-0.055331593
-0.036037712
-0.025168864
-0.019298942
-0.016453756
-0.015697947
-0.016536544
-0.018645988
-0.02178514
-0.025755318
-0.03037624
-0.035471715
-0.040860815
-0.046351835
-0.051737657
-0.056792049
-0.061266684
-0.064888784
-0.067359463
-0.068353963
-0.067528346
-0.064470502
-0.058771343
-0.049973098
-0.037565434
-0.020967925
0.00050660228
0.027721735
0.061853397
0.10467247
0.15918543
0.23124665
0.33356211
0.49379962
0.78972263
1.3834834
-3.41564e-05
-0.00017521671
-0.00048153052
-0.00087578691
-0.0012844928
-0.0016632434
-0.0019817152
-0.0022213812
-0.0023717549
-0.0024272514
-0.0023850482
-0.0022438031
-0.002003051
-0.0016631563
-0.0012255762
-0.00069338809
-7.1928927e-05
0.00063056259
0.0014024317
0.0022282552
0.0030887272
0.0039608885
0.0048187029
0.005634052
0.0063780809
0.0070228422
0.0075431278
0.0079183663
0.0081344495
0.008185266
0.0080737967
0.0078127094
0.0074244291
0.0069407386
0.0064017964
0.0058541721
0.0053523915
0.0049519255
0.0047139844
0.0046744682
0.00010619012
-3.7119919e-05
-0.00028233001
-0.0005843109
-0.00089847459
-0.0011911697
-0.0014385503
-0.0016246461
-0.0017392578
-0.0017760966
-0.0017313401
-0.0016027374
-0.0013891537
-0.0010904846
-0.00070782008
-0.00024384791
0.00029666511
0.00090640534
0.0015751322
0.0022893993
0.0030324584
0.0037845979
0.0045234851
0.00522517
0.0058652064
0.0064200631
0.0068687057
0.0071942199
0.0073853461
0.0074377485
0.0073548868
0.0071484138
0.0068380573
0.0064510113
0.0060208713
0.0055859996
0.0051871764
0.004867079
0.0046703321
0.004634107
0.00041913781
0.0002042049
-4.6594441e-05
-0.00031933572
-0.0005924668
-0.00084184472
-0.0010499093
-0.001204752
-0.001298315
-0.0013251988
-0.0012817853
-0.0011656714
-0.00097535447
-0.00071020625
-0.00037069514
4.1237595e-05
0.00052176224
0.0010647331
0.0016613205
0.002299738
0.0029651755
0.0036399463
0.0043040157
0.0049357419
0.0055129484
0.0060142466
0.0064204988
0.0067163412
0.0068916208
0.0069425565
0.0068724978
0.0066922063
0.0064196093
0.0060790209
0.0056998973
0.0053151653
0.0049590066
0.004665203
0.0044695709
0.0044015741
0.00083262757
0.00050605517
0.00021129192
-6.8126373e-05
-0.00033191621
-0.00056387171
-0.00075256546
-0.00089087351
-0.00097379485
-0.00099770782
-0.00095989475
-0.00085819926
-0.00069089445
-0.00045679138
-0.00015554548
0.00021192848
0.00064302279
0.0011329692
0.0016744164
0.0022571134
0.0028677866
0.0034902262
0.0041057771
0.0046939913
0.0052336506
0.0057040739
0.0060865767
0.0063659899
0.0065320976
0.0065808015
0.0065148666
0.0063441449
0.0060852267
0.0057605209
0.0053968293
0.0050235756
0.0046710353
0.0043687339
0.0041424974
0.0040071277
0.0012734864
0.00082080713
0.00046488484
0.00016134564
-0.00010946103
-0.00033836001
-0.0005197191
-0.00065126853
-0.00073133872
-0.00075839357
-0.00073086095
-0.00064696622
-0.00050477842
-0.00030248155
-3.8766604e-05
0.0002866991
0.00067275389
0.0011161731
0.0016111746
0.0021490217
0.0027178158
0.0033025495
0.0038854428
0.0044465882
0.004964952
0.005419684
0.005791616
0.0060648504
0.0062282765
0.0062768055
0.006212161
0.006043108
0.00578505
0.0054589955
0.0050899524
0.0047050277
0.0043321038
0.0039981429
0.0037185451
0.0034949138
0.0016899204
0.0011062
0.00068024467
0.00034162053
5.2281456e-05
-0.00018466442
-0.0003688395
-0.00050256974
-0.0005874761
-0.0006241299
-0.00061210588
-0.00055000808
-0.00043567309
-0.00026654954
-4.019185e-05
0.00024516383
0.00058997294
0.00099269524
0.0014492064
0.0019522937
0.0024913298
0.0030522451
0.0036177592
0.0041679801
0.0046813901
0.0051361935
0.0055118922
0.0057909868
0.0059606289
0.0060140033
0.0059512457
0.0057797434
0.0055137383
0.0051732249
0.0047821881
0.004366567
0.0039533873
0.003568957
0.0032201091
0.002893763
0.002037722
0.0013245795
0.00082527025
0.00044524318
0.0001296572
-0.00012360375
-0.0003188787
-0.00046273348
-0.00055981532
-0.00061263171
-0.00062178892
-0.00058616252
-0.00050322936
-0.00036955178
-0.00018137311
6.4683042e-05
0.00037086395
0.00073747041
0.0011621475
0.0016392632
0.0021594417
0.0027094078
0.0032721081
0.0038272641
0.0043523331
0.0048238913
0.0052193095
0.0055186091
0.00570631
0.0057730354
0.0057166414
0.0055426831
0.0052641055
0.0049001362
0.0044743997
0.0040127486
0.0035428423
0.0030921582
0.002660785
0.0022224669
0.0022793747
0.0014421247
0.00086985072
0.00044568026
9.9333028e-05
-0.00017598192
-0.00038884795
-0.00054966725
-0.00066577821
-0.00074135183
-0.00077780938
-0.00077411622
-0.00072720299
-0.00063254683
-0.00048488089
-0.00027902177
-1.0738239e-05
0.00032231289
0.00071973866
0.0011776332
0.0016879571
0.0022382369
0.0028115319
0.0033869268
0.0039404447
0.0044464492
0.0048794207
0.0052159997
0.00543709
0.0055297679
0.0054887259
0.0053170134
0.005025925
0.0046339799
0.0041649568
0.0036455948
0.003105588
0.0025753266
0.002049956
0.0014917331
0.0023820675
0.0014279894
0.00078542357
0.00031672469
-6.2733464e-05
-0.00036407049
-0.00059975164
-0.00078360247
-0.00092529765
-0.0010303792
-0.0011008306
-0.0011354634
-0.001130429
-0.0010798996
-0.00097688795
-0.00081417945
-0.00058531139
-0.00028563145
8.670968e-05
0.0005297998
0.0010371584
0.0015972888
0.0021934278
0.0028039509
0.0034031761
0.003962757
0.0044535524
0.0048478713
0.0051218849
0.0052579305
0.0052463902
0.005086847
0.0047883155
0.0043684266
0.0038514498
0.0032658601
0.0026447147
0.0020230022
0.0013924011
0.00070460714
0.0023161932
0.0012538298
0.00054510312
3.2985824e-05
-0.00038058383
-0.00071080943
-0.00097373242
-0.0011862477
-0.0013600486
-0.0015017561
-0.0016136404
-0.0016940999
-0.001738269
-0.0017387909
-0.0016867279
-0.0015725739
-0.0013873271
-0.0011236756
-0.00077714818
-0.00034726588
0.00016144157
0.00073889445
0.0013687157
0.0020287069
0.0026913861
0.0033253171
0.0038970434
0.0043735365
0.0047249587
0.0049274551
0.0049656118
0.0048342106
0.0045389898
0.0040961945
0.0035306803
0.0028733555
0.002161906
0.0014375859
0.00068973184
-0.00014021758
0.0020546805
0.00089365788
0.00012390061
-0.00042961807
-0.00087748835
-0.0012388288
-0.0015330128
-0.001779715
-0.0019923635
-0.0021783843
-0.0023400721
-0.0024751755
-0.0025775962
-0.002638233
-0.0026459492
-0.0025886487
-0.0024544334
-0.0022329026
-0.0019164657
-0.0015016976
-0.00099060651
-0.00039107405
0.00028124973
0.0010040003
0.0017480282
0.0024786008
0.0031573403
0.0037448417
0.0042038146
0.0045024581
0.0046176658
0.0045376004
0.0042632333
0.0038084851
0.0031985556
0.0024672754
0.001658161
0.00082042838
-5.8118554e-05
-0.0010466193
0.0015729291
0.00032389261
-0.00050104381
-0.0010933932
-0.0015753091
-0.001969696
-0.0022990687
-0.0025856299
-0.0028442882
-0.0030830395
-0.0033039932
-0.0035040616
-0.0036757336
-0.0038079631
-0.0038871674
-0.0038983424
-0.0038262925
-0.0036570275
-0.0033792181
-0.0029856925
-0.0024748711
-0.0018526061
-0.0011319943
-0.00033511646
0.00050757483
0.0013580936
0.0021726956
0.0029045941
0.0035074705
0.0039395113
0.0041675385
0.0041706749
0.0039429829
0.0034945111
0.0028500766
0.0020466157
0.0011345934
0.00017296673
-0.00085142291
-0.0020191701
0.00084896898
-0.00047642955
-0.0013501177
-0.0019783831
-0.0024938887
-0.002923199
-0.0032917987
-0.0036241834
-0.0039365347
-0.0042372459
-0.004528103
-0.0048050582
-0.0050590555
-0.0052769375
-0.0054424516
-0.0055373786
-0.0055428028
-0.005440576
-0.0052148996
-0.0048540191
-0.0043519571
-0.0037104292
-0.002939788
-0.0020605611
-0.0011036383
-0.00010984786
0.00087154299
0.0017855089
0.0025750811
0.0031860871
0.0035723786
0.0037008957
0.0035558146
0.0031409351
0.0024792694
0.0016105821
0.00059325733
-0.00050210365
-0.0016891959
-0.0030613847
-0.0001361498
-0.0015252664
-0.0024407929
-0.0031018578
-0.0036504355
-0.0041165988
-0.0045286236
-0.0049130915
-0.0052873117
-0.0056599803
-0.0060324945
-0.0063997945
-0.0067512124
-0.0070713745
-0.0073411865
-0.0075389379
-0.007641576
-0.0076261941
-0.0074717113
-0.0071607581
-0.006681706
-0.00603082
-0.0052140976
-0.0042490524
-0.0031657231
-0.0020068773
-0.00082701462
0.00031006663
0.0013352375
0.0021794454
0.0027801725
0.0030882243
0.0030738836
0.0027312254
0.0020790496
0.0011589749
3.7995976e-05
-0.0011996118
-0.0025677005
-0.0041740287
-0.0013978278
-0.0028371212
-0.0037871852
-0.0044778079
-0.0050588999
-0.005563851
-0.0060235513
-0.0064665072
-0.0069110738
-0.007366232
-0.0078330068
-0.0083053551
-0.0087710164
-0.0092123799
-0.0096074165
-0.0099307123
-0.010154698
-0.010251119
-0.010192774
-0.0099555578
-0.0095207792
-0.0088776845
-0.0080259759
-0.0069782252
-0.0057617684
-0.0044197768
-0.0030110536
-0.0016081514
-0.00029351712
0.00084642958
0.0017290206
0.0022841484
0.0024629946
0.0022450301
0.0016410778
0.00069259202
-0.00052464059
-0.0019105883
-0.0034788451
-0.0053533499
-0.0029473573
-0.0044226105
-0.0053996384
-0.0061164528
-0.0067293637
-0.0072748546
-0.0077862711
-0.0082939328
-0.0088172254