/*--------------------------------*- C++ -*----------------------------------*\
  =========                 |
  \\      /  F ield         | OpenFOAM: The Open Source CFD Toolbox
   \\    /   O peration     | Website:  https://openfoam.org
    \\  /    A nd           | Version:  7
     \\/     M anipulation  |
\*---------------------------------------------------------------------------*/
FoamFile
{
    version     2.0;
    format      ascii;
    class       surfaceScalarField;
    location    "9";
    object      phi;
}
// * * * * * * * * * * * * * * * * * * * * * * * * * * * * * * * * * * * * * //

dimensions      [0 3 -1 0 0 0 0];

internalField   nonuniform List<scalar> 
45600
(
2.7782987e-07
-2.6781719e-07
6.7621043e-10
3.9590665e-07
-1.1838248e-07
3.5878316e-10
1.2261902e-07
2.7293907e-07
2.5220395e-10
-5.6679874e-07
6.8927218e-07
1.9059858e-10
-1.6314249e-06
1.0644824e-06
1.4516531e-10
-3.0016403e-06
1.3700825e-06
1.0993838e-10
-4.6039792e-06
1.6022641e-06
8.5070313e-11
-6.3709528e-06
1.7669347e-06
6.6816475e-11
-8.243544e-06
1.8725414e-06
5.194638e-11
-1.0170631e-05
1.9270269e-06
4.0995316e-11
-1.2107214e-05
1.9365426e-06
3.4426658e-11
-1.4012296e-05
1.9050627e-06
3.0276474e-11
-1.584686e-05
1.8345476e-06
2.6862351e-11
-1.7572295e-05
1.7254134e-06
2.4064657e-11
-1.9149472e-05
1.5771528e-06
2.1728305e-11
-2.0538526e-05
1.3890292e-06
1.9233318e-11
-2.169932e-05
1.1607746e-06
1.6763172e-11
-2.2592583e-05
8.932498e-07
1.4638376e-11
-2.3181612e-05
5.8901981e-07
1.2497099e-11
-2.3434427e-05
2.5280911e-07
1.0123248e-11
-2.3326229e-05
-1.0820597e-07
7.1701381e-12
-2.2841911e-05
-4.843237e-07
3.8433983e-12
-2.1978531e-05
-8.6338501e-07
6.657394e-13
-2.074735e-05
-1.2311845e-06
-2.0884031e-12
-1.9175263e-05
-1.5720845e-06
-4.5962604e-12
-1.7305401e-05
-1.8698563e-06
-7.0286548e-12
-1.5196677e-05
-2.108716e-06
-8.9985657e-12
-1.2922195e-05
-2.2744717e-06
-1.0256232e-11
-1.0566502e-05
-2.3556835e-06
-1.0867195e-11
-8.2217714e-06
-2.3447227e-06
-1.0890645e-11
-5.9831383e-06
-2.2386265e-06
-1.0278186e-11
-3.9434658e-06
-2.0396677e-06
-8.9234441e-12
-2.1878292e-06
-1.7556334e-06
-6.8399587e-12
-7.8785828e-07
-1.3999693e-06
-4.0914891e-12
2.0451904e-07
-9.9237766e-07
-8.5976083e-13
7.6502233e-07
-5.6050507e-07
2.1154335e-12
9.0513617e-07
-1.4011786e-07
5.4455133e-12
6.9181815e-07
2.133095e-07
9.1393933e-12
2.8635039e-07
4.0545452e-07
1.2932578e-11
2.8634419e-07
6.221261e-12
1.3023896e-07
-3.9836212e-07
3.6093205e-10
-3.050742e-07
3.1661415e-07
2.436355e-10
-1.6072272e-06
1.5749688e-06
2.386131e-10
-3.839465e-06
2.9213043e-06
1.776466e-10
-6.9297419e-06
4.1545753e-06
1.2777498e-10
-1.0746536e-05
5.1867958e-06
8.9935383e-11
-1.5135814e-05
5.9915042e-06
6.1928045e-11
-1.994281e-05
6.5738878e-06
3.9023315e-11
-2.5021952e-05
6.9516411e-06
2.1523124e-11
-3.0239574e-05
7.1446259e-06
1.0532767e-11
-3.5472796e-05
7.1697649e-06
4.2078225e-12
-4.0606705e-05
7.038981e-06
2.340525e-13
-4.5531216e-05
6.7590595e-06
-2.1622822e-12
-5.0138523e-05
6.3327133e-06
-3.1739153e-12
-5.4321713e-05
5.7603357e-06
-3.311246e-12
-5.7974786e-05
5.0420987e-06
-2.9714532e-12
-6.0994141e-05
4.1801334e-06
-1.5654614e-12
-6.328148e-05
3.1805931e-06
1.1527571e-12
-6.4747899e-05
2.0554379e-06
4.1066443e-12
-6.5318867e-05
8.2377138e-07
6.9456422e-12
-6.4939952e-05
-4.8713535e-07
9.6637427e-12
-6.358196e-05
-1.8423329e-06
1.2539074e-11
-6.1246638e-05
-3.1987256e-06
1.567343e-11
-5.7970585e-05
-4.507257e-06
1.8873762e-11
-5.3828033e-05
-5.7146561e-06
2.1814984e-11
-4.8931607e-05
-6.766301e-06
2.4184805e-11
-4.3430759e-05
-7.6095858e-06
2.6064493e-11
-3.7507637e-05
-8.197618e-06
2.7446821e-11
-3.1370385e-05
-8.4929628e-06
2.8102957e-11
-2.524403e-05
-8.4711082e-06
2.7848975e-11
-1.9359336e-05
-8.1233505e-06
2.6655235e-11
-1.3940138e-05
-7.458894e-06
2.466534e-11
-9.1896415e-06
-6.5061557e-06
2.2074458e-11
-5.2760303e-06
-5.3136024e-06
1.9053885e-11
-2.3174656e-06
-3.9509609e-06
1.5768979e-11
-3.6594031e-07
-2.5120444e-06
1.237036e-11
6.1552584e-07
-1.1215913e-06
8.8111826e-12
7.775057e-07
5.1326798e-08
7.2348125e-12
4.0821827e-07
7.7473912e-07
8.178347e-12
6.9456225e-07
1.0978835e-12
-2.7235419e-07
-1.2635097e-07
2.4636809e-10
-1.6118558e-06
1.6559891e-06
2.4364259e-10
-4.2395458e-06
4.2024604e-06
1.9957885e-10
-8.1686553e-06
6.8502135e-06
1.5598188e-10
-1.3291214e-05
9.2770186e-06
1.2072212e-10
-1.9430146e-05
1.1325673e-05
9.2589157e-11
-2.6377346e-05
1.2938644e-05
6.8507034e-11
-3.3917858e-05
1.4114331e-05
4.8653133e-11
-4.1842841e-05
1.4876571e-05
3.4814525e-11
-4.9954609e-05
1.5256373e-05
2.6096217e-11
-5.8066863e-05
1.5282017e-05
2.0184342e-11
-6.6002476e-05
1.497459e-05
1.6176118e-11
-7.3590604e-05
1.434717e-05
1.3603211e-11
-8.0664337e-05
1.3406424e-05
1.1585752e-11
-8.7059692e-05
1.2155674e-05
9.8640126e-12
-9.2616327e-05
1.0598725e-05
8.6657942e-12
-9.7180104e-05
8.7439063e-06
8.4249885e-12
-0.00010060742
6.607904e-06
8.8949275e-12
-0.00010277102
4.219031e-06
8.9206244e-12
-0.00010356695
1.6196937e-06
8.5035004e-12
-0.00010292188
-1.1322175e-06
8.0873674e-12
-0.00010080068
-3.9635506e-06
7.7961007e-12
-9.7213009e-05
-6.7864089e-06
7.6779225e-12
-9.2218675e-05
-9.5016018e-06
7.6954841e-12
-8.593086e-05
-1.2002479e-05
7.6004046e-12
-7.8516733e-05
-1.4180434e-05
7.3589235e-12
-7.0194938e-05
-1.5931388e-05
7.2662083e-12
-6.1229654e-05
-1.7162911e-05
7.3627887e-12
-5.1921174e-05
-1.7801453e-05
7.4037545e-12
-4.2593171e-05
-1.7799123e-05
7.2208551e-12
-3.3577068e-05
-1.7139465e-05
6.9433063e-12
-2.5194132e-05
-1.584184e-05
6.7620558e-12
-1.7735987e-05
-1.3964311e-05
6.7423354e-12
-1.1444188e-05
-1.1605409e-05
6.872e-12
-6.4893415e-06
-8.9058142e-06
7.0543972e-12
-2.9496122e-06
-6.0517816e-06
7.1946109e-12
-7.8846889e-07
-3.2827426e-06
7.2172679e-12
1.6785803e-07
-9.050073e-07
7.7754944e-12
2.5472292e-07
6.8786806e-07
9.332261e-12
9.4928183e-07
4.7630357e-12
-7.3670532e-07
6.1021875e-07
1.7937158e-10
-3.1364974e-06
4.0555661e-06
1.8919777e-10
-7.2408263e-06
8.3065783e-06
1.5629416e-10
-1.2967691e-05
1.2576951e-05
1.2687889e-10
-2.0144934e-05
1.6454193e-05
1.0343876e-10
-2.854479e-05
1.9725469e-05
8.0638487e-11
-3.7912348e-05
2.2306124e-05
6.0062096e-11
-4.7985643e-05
2.4187561e-05
4.4448961e-11
-5.8507481e-05
2.539837e-05
3.3884332e-11
-6.923059e-05
2.5979465e-05
2.6580164e-11
-7.9918372e-05
2.5969792e-05
2.1363759e-11
-9.0343296e-05
2.5399498e-05
1.7906587e-11
-0.00010028459
2.4288444e-05
1.5448342e-11
-0.00010952656
2.2648367e-05
1.3119509e-11
-0.00011785826
2.0487359e-05
1.1295085e-11
-0.0001250751
1.7815558e-05
1.0349002e-11
-0.00013098242
1.4651216e-05
1.0168366e-11
-0.00013540093
1.1026416e-05
1.0142307e-11
-0.00013817384
6.9919236e-06
9.4757081e-12
-0.00013917491
2.6207601e-06
8.4600633e-12
-0.00013831713
-1.9900135e-06
7.6965156e-12
-0.00013556134
-6.7193542e-06
7.1181294e-12
-0.00013092371
-1.142405e-05
6.4748881e-12
-0.00012448177
-1.594354e-05
5.8720593e-12
-0.00011637806
-2.0106195e-05
5.2838374e-12
-0.00010682066
-2.3737838e-05
4.7390688e-12
-9.6080234e-05
-2.6671815e-05
4.4029004e-12
-8.4483072e-05
-2.8760078e-05
4.2417844e-12
-7.2399986e-05
-2.9884546e-05
4.1250039e-12
-6.0231217e-05
-2.99679e-05
3.9475702e-12
-4.8387729e-05
-2.8982962e-05
3.8197652e-12
-3.726958e-05
-2.6959998e-05
3.9236522e-12
-2.7242268e-05
-2.399163e-05
4.3166598e-12
-1.861209e-05
-2.0235594e-05
4.9699671e-12
-1.1601552e-05
-1.5916357e-05
5.7489789e-12
-6.325749e-06
-1.132759e-05
6.5265112e-12
-2.7704987e-06
-6.8379989e-06
7.3851849e-12
-7.7501044e-07
-2.9005026e-06
8.0601567e-12
-1.7790943e-08
-6.9358307e-08
8.1975698e-12
9.3148463e-07
7.7039819e-12
-1.2095194e-06
1.8196106e-06
1.2725753e-10
-4.7133316e-06
7.5591851e-06
1.4619179e-10
-1.035364e-05
1.3946774e-05
1.1977021e-10
-1.7919718e-05
2.0142963e-05
9.9888807e-11
-2.715363e-05
2.5688039e-05
8.216402e-11
-3.7766756e-05
3.0338521e-05
6.321783e-11
-4.945655e-05
3.3995847e-05
4.7182036e-11
-6.1919424e-05
3.6650397e-05
3.5554585e-11
-7.4858664e-05
3.8337595e-05
2.7162635e-11
-8.7987751e-05
3.9108544e-05
2.110577e-11
-0.00010103048
3.9012508e-05
1.6988029e-11
-0.00011371936
3.8088367e-05
1.4085707e-11
-0.00012579374
3.6362803e-05
1.1632294e-11
-0.00013699864
3.3853242e-05
9.5374351e-12
-0.00014708515
3.0573865e-05
8.4738126e-12
-0.00015581285
2.6543254e-05
8.3154862e-12
-0.00016295414
2.1792501e-05
8.5832259e-12
-0.00016830058
1.6372851e-05
8.6616701e-12
-0.00017167078
1.0362113e-05
8.2577915e-12
-0.00017291934
3.8693068e-06
7.8625582e-12
-0.00017194629
-2.9630784e-06
7.7842098e-12
-0.00016870637
-9.9592882e-06
7.8212315e-12
-0.00016321734
-1.6913091e-05
7.7125655e-12
-0.00015556664
-2.3594249e-05
7.6010268e-12
-0.0001459156
-2.9757239e-05
7.4959873e-12
-0.00013450049
-3.5152953e-05
7.4411054e-12
-0.00012162972
-3.9542591e-05
7.519717e-12
-0.00010767671
-4.2713104e-05
7.5914832e-12
-9.3068054e-05
-4.4493208e-05
7.4956744e-12
-7.8267118e-05
-4.4768847e-05
7.223152e-12
-6.375318e-05
-4.349691e-05
6.9461942e-12
-4.9997046e-05
-4.0716142e-05
6.8082155e-12
-3.7434125e-05
-3.6554561e-05
6.8226316e-12
-2.6436437e-05
-3.1233292e-05
6.9619738e-12
-1.728519e-05
-2.5067613e-05
7.1332383e-12
-1.0145715e-05
-1.8467072e-05
7.3729308e-12
-5.0466322e-06
-1.1937088e-05
8.1085545e-12
-1.8657788e-06
-6.0813623e-06
7.9030198e-12
-3.2667842e-07
-1.6084631e-06
4.9960745e-12
6.0479745e-07
9.886265e-12
-1.6649355e-06
3.4844333e-06
8.6078684e-11
-6.263582e-06
1.2157725e-05
1.1515895e-10
-1.343851e-05
2.1121647e-05
9.1438411e-11
-2.2837078e-05
2.9541473e-05
7.5554034e-11
-3.4102301e-05
3.6953183e-05
6.2581158e-11
-4.6876098e-05
4.3112247e-05
4.8972228e-11
-6.0805211e-05
4.7924909e-05
3.7679296e-11
-7.5546125e-05
5.1391292e-05
2.9201467e-11
-9.0767751e-05
5.3559214e-05
2.2782263e-11
-0.00010615163
5.4492408e-05
1.8196417e-11
-0.00012139036
5.4251228e-05
1.4960288e-11
-0.00013618538
5.2883363e-05
1.2309688e-11
-0.00015024488
5.0422286e-05
9.9540663e-12
-0.00016328298
4.6891333e-05
8.326142e-12
-0.00017502055
4.231143e-05
7.97966e-12
-0.00018518807
3.671077e-05
8.1172278e-12
-0.00019353055
3.0134984e-05
8.2584262e-12
-0.00019981438
2.2656676e-05
8.1702063e-12
-0.00020383567
1.4383386e-05
7.7737535e-12
-0.0002054297
5.4633241e-06
7.6141224e-12
-0.00020448096
-3.9118321e-06
7.8025526e-12
-0.00020093299
-1.3507264e-05
7.9271032e-12
-0.00019479759
-2.3048497e-05
7.7955449e-12
-0.00018616239
-3.2229462e-05
7.717748e-12
-0.00017519614
-4.0723492e-05
7.7716376e-12
-0.00016215096
-4.8198142e-05
7.9058147e-12
-0.00014736053
-5.4333028e-05
8.0269947e-12
-0.00013123374
-5.8839905e-05
8.0213303e-12
-0.00011424308
-6.1483877e-05
7.8370847e-12
-9.6907673e-05
-6.2104266e-05
7.5329066e-12
-7.977105e-05
-6.0633544e-05
7.2720874e-12
-6.3374467e-05
-5.7112735e-05
7.1523635e-12
-4.8227001e-05
-5.1702035e-05
7.1434905e-12
-3.4774269e-05
-4.4686033e-05
7.2045985e-12
-2.3368019e-05
-3.647387e-05
7.2404825e-12
-1.4239138e-05
-2.7595961e-05
7.4084618e-12
-7.4767746e-06
-1.8699459e-05
8.5151556e-12
-3.0167046e-06
-1.0541438e-05
7.9001726e-12
-6.4231613e-07
-3.9828537e-06
2.400063e-12
-3.7530216e-08
1.2237691e-11
-2.0950606e-06
5.5794494e-06
5.6095011e-11
-7.7507679e-06
1.7813374e-05
9.3128135e-11
-1.6420701e-05
2.979152e-05
6.7352535e-11
-2.760875e-05
4.0729457e-05
5.405053e-11
-4.0853449e-05
5.0197815e-05
4.6529912e-11
-5.5722367e-05
5.798112e-05
3.7932244e-11
-7.1809164e-05
6.4011681e-05
3.0096184e-11
-8.8731067e-05
6.8313188e-05
2.3929916e-11
-0.00010612599
7.0954133e-05
1.9358142e-11
-0.00012364895
7.2015346e-05
1.6049483e-11
-0.0001409681
7.157036e-05
1.3222044e-11
-0.00015776116
6.9676405e-05
1.0682076e-11
-0.00017371273
6.6373842e-05
8.8471437e-12
-0.00018851322
6.1691814e-05
7.9547806e-12
-0.00020185972
5.5657926e-05
8.1093954e-12
-0.00021345899
4.8310043e-05
8.1958487e-12
-0.00022303257
3.9708554e-05
7.9588353e-12
-0.0002303237
2.9947796e-05
7.7614493e-12
-0.00023510592
1.9165592e-05
7.5770287e-12
-0.00023719277
7.5501615e-06
7.5665887e-12
-0.00023644826
-4.6563593e-06
7.7292077e-12
-0.00023279738
-1.7158151e-05
7.7610441e-12
-0.00022623643
-2.9609459e-05
7.6163408e-12
-0.00021684195
-4.1623947e-05
7.593752e-12
-0.00020477785
-5.27876e-05
7.7079444e-12
-0.00019029956
-6.2676438e-05
7.8787129e-12
-0.00017375434
-7.0878257e-05
7.9510831e-12
-0.00015557664
-7.7017616e-05
7.8291557e-12
-0.00013627772
-8.0782803e-05
7.5505403e-12
-0.00011642898
-8.195302e-05
7.2489487e-12
-9.6638866e-05
-8.0423669e-05
7.0544422e-12
-7.7524146e-05
-7.6227465e-05
6.9907556e-12
-5.9676837e-05
-6.9549352e-05
6.9880217e-12
-4.3629079e-05
-6.0733799e-05
7.0298574e-12
-2.9818785e-05
-5.0284171e-05
7.0507966e-12
-1.8559364e-05
-3.8855389e-05
7.2953275e-12
-1.0016935e-05
-2.7241897e-05
8.8837229e-12
-4.1985528e-06
-1.6359827e-05
7.9255883e-12
-9.5480888e-07
-7.2265972e-06
-2.7633721e-13
-9.9235333e-07
1.4507408e-11
-2.4981512e-06
8.0775859e-06
3.3501153e-11
-9.1581751e-06
2.4473329e-05
7.548403e-11
-1.9259133e-05
3.9892404e-05
4.7321215e-11
-3.2166733e-05
5.3636999e-05
3.7388015e-11
-4.7315579e-05
6.5346619e-05
3.4591057e-11
-6.4197936e-05
7.4863459e-05
2.9043576e-11
-8.2353957e-05
8.2167692e-05
2.3485714e-11
-0.00010136272
8.7321943e-05
1.9363691e-11
-0.00012083402
9.0425422e-05
1.6221182e-11
-0.0001404008
9.1582102e-05
1.3491593e-11
-0.00015971239
9.0881933e-05
1.0886139e-11
-0.0001784291
8.8393099e-05
8.8596165e-12
-0.0001962184
8.4163138e-05
7.9338244e-12
-0.0002127532
7.8226613e-05
7.6751214e-12
-0.00022771228
7.0617005e-05
7.8702748e-12
-0.00024078299
6.138075e-05
7.7775027e-12
-0.00025166608
5.0591639e-05
7.4375858e-12
-0.00026008246
3.8364167e-05
7.31822e-12
-0.00026578163
2.4864749e-05
7.3827371e-12
-0.00026855146
1.0319977e-05
7.5122391e-12
-0.00026822904
-4.9787947e-06
7.6285786e-12
-0.00026471195
-2.0675246e-05
7.6094059e-12
-0.00025797003
-3.6351384e-05
7.5686948e-12
-0.00024805622
-5.1537767e-05
7.7146806e-12
-0.00023511617
-6.5727655e-05
7.9361248e-12
-0.0002193954
-7.8397214e-05
8.1009009e-12
-0.00020124269
-8.9030981e-05
8.0858533e-12
-0.00018110838
-9.7151935e-05
7.8821472e-12
-0.00015953634
-0.00010235486
7.5793614e-12
-0.00013714846
-0.00010434091
7.3056451e-12
-0.00011462137
-0.00010295077
7.1399941e-12
-9.2655736e-05
-9.8193111e-05
7.0841637e-12
-7.1939584e-05
-9.0265513e-05
7.0503875e-12
-5.3108326e-05
-7.9565065e-05
7.0116208e-12
-3.6704917e-05
-6.6687587e-05
6.9613654e-12
-2.3144281e-05
-5.2416033e-05
7.2642227e-12
-1.2686172e-05
-3.7700016e-05
9.3133211e-12
-5.4205042e-06
-2.3625502e-05
7.9286427e-12
-1.2684727e-06
-1.1378625e-05
-3.0802266e-12
-2.260843e-06
1.6955282e-11
-2.8735469e-06
1.0951117e-05
1.4589261e-11
-1.0476011e-05
3.2075714e-05
6.2248089e-11
-2.1927134e-05
5.1343474e-05
3.3253275e-11
-3.6463491e-05
6.8173328e-05
2.5695308e-11
-5.3420447e-05
8.230356e-05
2.5754954e-11
-7.2217333e-05
9.3660342e-05
2.2149616e-11
-9.234251e-05
0.00010229286
1.8371405e-11
-0.00011333902
0.00010831844
1.5648527e-11
-0.00013479162
0.000111878
1.3174256e-11
-0.00015631527
0.00011310573
1.072455e-11
-0.00017754546
0.00011211211
8.6873365e-12
-0.00019813066
0.00010897828
7.5277282e-12
-0.00021772693
0.00010375941
7.3385866e-12
-0.00023599518
9.6494858e-05
7.3380462e-12
-0.00025260065
8.7222472e-05
7.3352614e-12
-0.00026721492
7.599502e-05
7.0662066e-12
-0.00027952007
6.2896776e-05
6.8702262e-12
-0.0002892148
4.8058882e-05
6.9677424e-12
-0.00029602245
3.1672387e-05
7.156289e-12
-0.00029970064
1.3998156e-05
7.2990975e-12
-0.00030005242
-4.6270272e-06
7.4032489e-12
-0.00029693829
-2.3789379e-05
7.4616024e-12
-0.0002902898
-4.299988e-05
7.6091037e-12
-0.00028012271
-6.1704865e-05
7.9083692e-12
-0.00026654989
-7.9300484e-05
8.1853268e-12
-0.00024979238
-9.5154735e-05
8.312011e-12
-0.0002301871
-0.00010863627
8.2199437e-12
-0.00020818944
-0.0001191496
7.9629745e-12
-0.00018436883
-0.00012617547
7.6693863e-12
-0.00015939568
-0.00012931408
7.433761e-12
-0.00013401862
-0.00012832784
7.272223e-12
-0.00010903208
-0.00012317965
7.2026407e-12
-8.5235621e-05
-0.00011406199
7.1461891e-12
-6.3387687e-05
-0.00010141301
7.0213003e-12
-4.4158348e-05
-8.5916933e-05
6.8753899e-12
-2.8085843e-05
-6.8488546e-05
7.2407578e-12
-1.5542229e-05
-5.024364e-05
9.7782449e-12
-6.7128928e-06
-3.2454845e-05
7.9052794e-12
-1.5932532e-06
-1.6498259e-05
-6.0681875e-12
-3.8541159e-06
1.9447869e-11
-3.2200345e-06
1.4171134e-05
2.8953449e-13
-1.1695661e-05
4.0551282e-05
5.4656452e-11
-2.4402517e-05
6.4050312e-05
2.419803e-11
-4.0459175e-05
8.4229984e-05
1.7317817e-11
-5.9109177e-05
0.00010095356
1.9213024e-11
-7.9703781e-05
0.00011425494
1.7134814e-11
-0.0001016831
0.00012427216
1.4475262e-11
-0.00012455735
0.00013119268
1.2328563e-11
-0.00014788973
0.00013521036
1.0149913e-11
-0.00017128129
0.00013649728
8.2353467e-12
-0.00019435839
0.0001351892
7.1031646e-12
-0.00021676273
0.00013138262
6.764393e-12
-0.00023814428
0.00012514097
6.857863e-12
-0.00025815698
0.00011650756
6.7353105e-12
-0.00027645702
0.00010552251
6.5934752e-12
-0.00029270365
9.2241642e-05
6.3612986e-12
-0.00030656224
7.6755352e-05
6.3557652e-12
-0.00031770945
5.9206083e-05
6.6070364e-12
-0.00032584048
3.9803395e-05
6.8409986e-12
-0.00033067821
1.883588e-05
6.9480162e-12
-0.00033198476
-3.320484e-06
7.0466713e-12
-0.00032957368
-2.620047e-05
7.2856785e-12
-0.00032332621
-4.9247355e-05
7.6576274e-12
-0.0003132067
-7.1824378e-05
8.0660487e-12
-0.00029927954
-9.322766e-05
8.3429633e-12
-0.00028172503
-0.00011270925
8.42163e-12
-0.0002608527
-0.00012950861
8.2915465e-12
-0.00023710958
-0.00014289273
8.0182113e-12
-0.00021108111
-0.00015220396
7.7536849e-12
-0.00018348199
-0.00015691321
7.5651311e-12
-0.00015513527
-0.00015667457
7.3962734e-12
-0.00012693883
-0.0001513761
7.2909133e-12
-9.9820282e-05
-0.00014118054
7.2194204e-12
-7.4683302e-05
-0.00012655
7.036706e-12
-5.2350497e-05
-0.00010824975
6.7950092e-12
-3.3509055e-05
-8.7329995e-05
7.2138073e-12
-1.8665836e-05
-6.508687e-05
1.0283879e-11
-8.1179424e-06
-4.3002746e-05
7.8712476e-12
-1.9425329e-06
-2.2673658e-05
-9.3102502e-12
-5.7966713e-06
2.2067077e-11
-3.5354707e-06
1.7706601e-05
-9.0653834e-12
-1.2807489e-05
4.9823265e-05
5.1010645e-11
-2.6663044e-05
7.7905863e-05
1.7947136e-11
-4.4115141e-05
0.00010168208
1.1136669e-11
-6.4324675e-05
0.00012116308
1.4528187e-11
-8.6581405e-05
0.00013651166
1.3423291e-11
-0.00011028208
0.00014797281
1.1116029e-11
-0.00013490818
0.00015581876
9.1536136e-12
-0.00016000525
0.00016030742
7.4962155e-12
-0.00018516461
0.00016165664
6.483648e-12
-0.00021000797
0.00016003256
6.1592973e-12
-0.00023417518
0.00015554983
6.1652352e-12
-0.00025731516
0.00014828095
6.200795e-12
-0.00027907981
0.00013827221
5.9028692e-12
-0.00029912075
0.00012556344
5.7451633e-12
-0.00031708853
0.00011020941
5.720066e-12
-0.00033263425
9.2301061e-05
5.9089866e-12
-0.00034541336
7.1985181e-05
6.1677807e-12
-0.00035509171
4.9481738e-05
6.3655078e-12
-0.00036135393
2.5098093e-05
6.4991566e-12
-0.00036391545
-7.5897309e-07
6.6462223e-12
-0.00036253354
-2.7582379e-05
7.1404841e-12
-0.00035702786
-5.4753042e-05
7.6940469e-12
-0.00034729688
-8.1555369e-05
8.1588242e-12
-0.00033333986
-0.00010718469
8.4058959e-12
-0.00031527832
-0.0001307708
8.4393567e-12
-0.000293376
-0.00015141095
8.3074523e-12
-0.00026805455
-0.00016821419
8.0674242e-12
-0.00023990164
-0.00018035688
7.8570016e-12
-0.00020966791
-0.00018714695
7.7144302e-12
-0.00017824973
-0.00018809275
7.5197254e-12
-0.00014665587
-0.00018296997
7.3473453e-12
-0.00011595819
-0.00017187823
7.2708744e-12
-8.7229418e-05
-0.00015527878
7.0779607e-12
-6.1473622e-05
-0.00013400555
6.7545935e-12
-3.9557448e-05
-0.00010924617
7.2105677e-12
-2.215069e-05
-8.2493638e-05
1.0862839e-11
-9.6843677e-06
-5.5469076e-05
7.8787638e-12
-2.3312372e-06
-3.0026775e-05
-1.2869918e-11
-8.1279339e-06
2.4984941e-11
-3.8168489e-06
2.1523468e-05
-1.5556601e-11
-1.3800277e-05
5.9806663e-05
4.8873498e-11
-2.8684798e-05
9.2790379e-05
1.3491405e-11
-4.7391279e-05
0.00012038856
6.8387221e-12
-6.9008267e-05
0.00014278005
1.1089983e-11
-9.2771646e-05
0.00016027502
1.0174272e-11
-0.00011804053
0.00017324168
7.9933744e-12
-0.00014427229
0.00018205051
6.5238956e-12
-0.000170999
0.00018703413
5.6982524e-12
-0.00019780643
0.00018846407
5.4790693e-12
-0.00022431609
0.00018654222
5.5313404e-12
-0.00025017071
0.00018140446
5.4450796e-12
-0.00027502313
0.00017313337
5.295337e-12
-0.00029852824
0.00016177731
5.0234712e-12
-0.00032033783
0.00014737302
5.0077114e-12
-0.00034009801
0.00012996958
5.1327094e-12
-0.00035744893
0.00010965197
5.3972613e-12
-0.00037202688
8.656312e-05
5.6093074e-12
-0.00038346881
6.0923654e-05
5.7817223e-12
-0.00039141971
3.3048986e-05
6.0673837e-12
-0.00039554223
3.363542e-06
6.6245964e-12
-0.00039553343
-2.7591181e-05
7.0726619e-12
-0.00039113913
-5.9147348e-05
7.6734813e-12
-0.00038217859
-9.0515918e-05
8.1331618e-12
-0.00036856905
-0.00012079424
8.3369698e-12
-0.00035035347
-0.00014898639
8.3638314e-12
-0.00032772835
-0.00017403608
8.2894759e-12
-0.00030106839
-0.00019487416
8.1312291e-12
-0.00027094411
-0.00021048117
7.978981e-12
-0.00023812758
-0.00021996349
7.869209e-12
-0.0002035816
-0.00022263874
7.6441606e-12
-0.00016842878
-0.0002181228
7.3807392e-12
-0.00013389919
-0.00020640782
7.2960012e-12
-0.00010125896
-0.00018791902
7.1296659e-12
-7.1725939e-05
-0.00016353857
6.739049e-12
-4.6382514e-05
-0.00013458961
7.2377759e-12
-2.6096852e-05
-0.00010277931
1.153709e-11
-1.1464149e-05
-7.0101787e-05
7.9455588e-12
-2.7749953e-06
-3.8715911e-05
-1.6862047e-11
-1.0902958e-05
2.8337583e-11
-4.0605458e-06
2.5584045e-05
-2.071337e-11
-1.4661519e-05
7.0407596e-05
4.7617661e-11
-3.04423e-05
0.00010857114
1.0420732e-11
-5.0245854e-05
0.00014019211
3.5746806e-12
-7.3099334e-05
0.00016563352
8.0931518e-12
-9.8192908e-05
0.00018536858
7.2254661e-12
-0.00012485415
0.00019990291
5.4808803e-12
-0.00015252115
0.0002097175
4.8006963e-12
-0.00018071672
0.00021522971
4.7027753e-12
-0.00020902517
0.00021677252
4.782991e-12
-0.00023707211
0.00021458916
4.7618873e-12
-0.00026450782
0.00020884016
4.4980892e-12
-0.00029099399
0.00019961954
4.2988184e-12
-0.00031619372
0.00018697703
4.1990553e-12
-0.00033976425
0.00017094354
4.3694511e-12
-0.0003613523
0.00015155761
4.5490989e-12
-0.00038059169
0.00012889135
4.7548264e-12
-0.00039710333
0.00010307476
4.9078216e-12
-0.00041049783
7.4318146e-05
5.1468682e-12
-0.0004203811
4.2932253e-05
5.5997802e-12
-0.00042636345
9.3458832e-06
6.2600879e-12
-0.00042807448
-2.5880157e-05
6.8831292e-12
-0.0004251802
-6.2041631e-05
7.5203513e-12
-0.00041740844
-9.8287686e-05
7.9596769e-12
-0.00040457803
-0.00013362467
8.1551233e-12
-0.00038663265
-0.00016693177
8.2250241e-12
-0.00036367717
-0.00019699158
8.2467247e-12
-0.00033601282
-0.00022253853
8.1955054e-12
-0.0003041668
-0.00024232719
8.0919467e-12
-0.00026891007
-0.00025522024
8.0029061e-12
-0.00023125667
-0.00026029215
7.7687434e-12
-0.00019243885
-0.00025694062
7.4261677e-12
-0.00015385414
-0.00024499255
7.3204706e-12
-0.00011698517
-0.000224788
7.1725836e-12
-8.3298691e-05
-0.00019722505
6.6860508e-12
-5.4135393e-05
-0.00016375291
7.242638e-12
-3.0606122e-05
-0.00012630859
1.2318665e-11
-1.3510593e-05
-8.7197323e-05
8.0421735e-12
-3.2897711e-06
-4.893671e-05
-2.1404396e-11
-1.4192761e-05
3.2212946e-11
-4.2626561e-06
2.9846729e-05
-2.4727235e-11
-1.537826e-05
8.1523151e-05
4.7020069e-11
-3.1909747e-05
0.00012510261
7.9998617e-12
-5.263705e-05
0.00016091941
6.45317e-13
-7.6537162e-05
0.00018953362
5.4600696e-12
-0.00010276277
0.00021159418
5.0819888e-12
-0.00013061597
0.00022775612
4.0586353e-12
-0.00015952024
0.00023862177
3.9800602e-12
-0.00018899316
0.00024470263
4.0912246e-12
-0.00021862141
0.00024640078
4.0307681e-12
-0.00024803879
0.00024400654
3.7972133e-12
-0.00027690757
0.00023770894
3.4905903e-12
-0.00030490332
0.00022761528
3.4260678e-12
-0.00033170276
0.00021377647
3.5119577e-12
-0.00035697444
0.00019621521
3.7226112e-12
-0.0003803718
0.00017495496
3.8449586e-12
-0.00040152844
0.00015004799
3.9852818e-12
-0.00042005581
0.00012160212
4.1579876e-12
-0.00043554338
8.9805716e-05
4.5366149e-12
-0.00044756218
5.4951044e-05
5.1647619e-12
-0.00045567221
1.745591e-05
5.8877853e-12
-0.00045943539
-2.2116975e-05
6.5911131e-12
-0.00045843363
-6.3043399e-05
7.2058317e-12
-0.00045229457
-0.00010442675
7.6239593e-12
-0.00044072423
-0.00014519502
7.8718551e-12
-0.00042354656
-0.00018410945
8.0508974e-12
-0.00040074832
-0.00021978984
8.202394e-12
-0.00037252606
-0.00025076079
8.263845e-12
-0.0003393301
-0.00027552317
8.1839318e-12
-0.00030189802
-0.00029265233
8.0926531e-12
-0.00026126917
-0.000300921
7.8807145e-12
-0.00021877086
-0.00029943894
7.5110443e-12
-0.00017596928
-0.00028779414
7.376028e-12
-0.0001345829
-0.00026617438
7.2057451e-12
-9.6363681e-05
-0.00023544428
6.5479133e-12
-6.2959537e-05
-0.00019715706
7.1421208e-12
-3.5778428e-05
-0.00015348971
1.3189763e-11
-1.5877059e-05
-0.0001070987
8.1112196e-12
-3.8917027e-06
-6.0922037e-05
-2.6611399e-11
-1.8084501e-05
3.678255e-11
-4.419407e-06
3.4266156e-05
-2.7757409e-11
-1.5938282e-05
9.3041976e-05
4.6298582e-11
-3.3063039e-05
0.00014222735
5.6733672e-12
-5.4525784e-05
0.00018238215
-1.8458477e-12
-7.9264486e-05
0.00021427232
3.6454318e-12
-0.00010640228
0.00023873197
3.9159661e-12
-0.00013522143
0.00025657528
3.3285366e-12
-0.00016513507
0.00026853541
3.3520529e-12
-0.00019565911
0.00027522668
3.2740301e-12
-0.0002263861
0.00027712777
2.9974164e-12
-0.00025696171
0.00027458215
2.7502474e-12
-0.00028706448
0.00026781171
2.5965326e-12
-0.00031638875
0.00025693954
2.6796681e-12
-0.00034463054
0.00024201826
2.8551533e-12
-0.00037147615
0.0002230608
3.005657e-12
-0.00039659282
0.00020007162
3.0634102e-12
-0.00041962172
0.00017307688
3.2050513e-12
-0.00044017294
0.00014215333
3.4852496e-12
-0.00045782306
0.00010745584
4.0315427e-12
-0.00047211597
6.9243949e-05
4.7863175e-12
-0.00048256778
2.7907714e-05
5.5108454e-12
-0.0004886773
-1.600746e-05
6.1763362e-12
-0.00048994296
-6.1777753e-05
6.7309694e-12
-0.00048588805
-0.00010848168
7.1492906e-12
-0.0004760951
-0.00015498797
7.4989287e-12
-0.00046024986
-0.00019995471
7.8212215e-12
-0.00043819413
-0.00024184558
8.1118965e-12
-0.00040998494
-0.00027896998
8.2949938e-12
-0.00037595487
-0.00030955326
8.2450042e-12
-0.00033676529
-0.00033184191
8.136637e-12
-0.00029344169
-0.00034424461
7.9636842e-12
-0.00024737798
-0.00034550265
7.6192078e-12
-0.00020029817
-0.00033487396
7.4638193e-12
-0.00015416816
-0.00031230439
7.2539111e-12
-0.00011106006
-0.00027855238
6.3766271e-12
-7.2983321e-05
-0.0002352338
6.9618058e-12
-4.1708491e-05
-0.00018476456
1.4134327e-11
-1.8615953e-05
-0.00013019125
8.117474e-12
-4.5970337e-06
-7.494092e-05
-3.270593e-11
-2.2681576e-05
4.2208021e-11
-4.5276467e-06
3.8793822e-05
-3.0080308e-11
-1.6331562e-05
0.00010484585
4.5422805e-11
-3.3882376e-05
0.00015977816
3.9246942e-12
-5.5879461e-05
0.00020437924
-3.2811951e-12
-8.1232363e-05
0.00023962522
2.8932563e-12
-0.0001090419
0.00026654151
3.4463701e-12
-0.00013857548
0.00028610887
2.7666986e-12
-0.00016923948
0.00029919941
2.5336473e-12
-0.00020055116
0.00030653835
2.2690605e-12
-0.00023211183
0.00030868844
1.9741086e-12
-0.00026358237
0.00030605268
1.8752547e-12
-0.0002946615
0.00029889083
1.9127584e-12
-0.00032506711
0.00028734514
2.0378774e-12
-0.00035452034
0.00027147148
2.1660337e-12
-0.00038273205
0.00025127251
2.2222677e-12
-0.0004093914
0.00022673097
2.2969138e-12
-0.0004341563
0.00019784179
2.5352715e-12
-0.00045664583
0.00016464286
2.9574291e-12
-0.00047643484
0.00012724485
3.6092102e-12
-0.00049305168
8.5860784e-05
4.3761896e-12
-0.00050597976
4.0835785e-05
5.0352303e-12
-0.00051466462
-7.3226046e-06
5.6257271e-12
-0.000518528
-5.7914375e-05
6.1468086e-12
-0.00051699085
-0.00011001884
6.6113631e-12
-0.00050950721
-0.00016247163
7.0870747e-12
-0.00049561052
-0.0002138514
7.5432738e-12
-0.00047497276
-0.00026248334
7.9454362e-12
-0.00044747512
-0.00030646764
8.2562494e-12
-0.00041328573
-0.00034374266
8.2848891e-12
-0.00037293626
-0.00037219139
8.1667024e-12
-0.00032738425
-0.00038979663
8.0214349e-12
-0.0002780444
-0.00039484251
7.7054168e-12
-0.00022677071
-0.00038614765
7.5339503e-12
-0.00017577517
-0.00036329994
7.2889434e-12
-0.00012747935
-0.00032684821
6.2069007e-12
-8.4311752e-05
-0.0002784014
6.8285033e-12
-4.8482187e-05
-0.00022059413
1.5266891e-11
-2.1777681e-05
-0.00015689576
8.1993082e-12
-5.422059e-06
-9.1296499e-05
-3.9873071e-11
-2.8103684e-05
4.8545178e-11
-4.585377e-06
4.3379225e-05
-3.1746234e-11
-1.6551933e-05
0.00011681237
4.4861208e-11
-3.435531e-05
0.00017758154
3.2026947e-12
-5.6676473e-05
0.00022670042
-3.7769877e-12
-8.2406099e-05
0.00026535485
2.5431499e-12
-0.00011062886
0.00029476427
2.8916377e-12
-0.00014060133
0.00031608133
1.9364562e-12
-0.00017172591
0.00033032399
1.507909e-12
-0.00020352353
0.00033833596
1.2640701e-12
-0.00023560668
0.00034077158
1.1382447e-12
-0.00026765424
0.00033810023
1.1934267e-12
-0.00029938871
0.00033062529
1.2939914e-12
-0.0003305561
0.00031851253
1.3608098e-12
-0.00036090839
0.00030182377
1.4260378e-12
-0.00039018819
0.00028055231
1.4724641e-12
-0.00041811525
0.00025465804
1.6731719e-12
-0.00044437467
0.00022410121
2.0603515e-12
-0.00046860663
0.00018887482
2.5974673e-12
-0.00049039815
0.00014903637
3.2599375e-12
-0.00050927719
0.00010473982
3.932554e-12
-0.00052471035
5.6268943e-05
4.4926089e-12
-0.00053610548
4.0725238e-06
5.0161165e-12
-0.00054282123
-5.1198637e-05
5.5386245e-12
-0.00054418565
-0.00010865442
6.0864608e-12
-0.00053952706
-0.00016713023
6.6981746e-12
-0.00052821957
-0.00022515891
7.2771653e-12
-0.00050974564
-0.00028095728
7.7560341e-12
-0.00048377607
-0.00033243722
8.180598e-12
-0.00045026486
-0.00037725388
8.3436102e-12
-0.00040955133
-0.00041290493
8.2533359e-12
-0.00036245563
-0.00043689233
8.1270864e-12
-0.00031034705
-0.0004469511
7.8013413e-12
-0.00025515953
-0.00044133518
7.5600986e-12
-0.00019933035
-0.00041912913
7.2101626e-12
-0.00014564798
-0.00038053059
5.8761469e-12
-9.7016604e-05
-0.00032703278
6.6202496e-12
-5.6172153e-05
-0.0002614386
1.6591588e-11
-2.540936e-05
-0.00018765856
8.4578091e-12
-6.3830234e-06
-0.00011032279
-4.8101793e-11
-3.4486763e-05
5.5928335e-11
-4.5923221e-06
4.797158e-05
-3.2453715e-11
-1.6598901e-05
0.00012881891
4.4616184e-11
-3.4480144e-05
0.00019546279
3.0105233e-12
-5.6911279e-05
0.00024913156
-4.139001e-12
-8.2771981e-05