/*--------------------------------*- C++ -*----------------------------------*\
  =========                 |
  \\      /  F ield         | OpenFOAM: The Open Source CFD Toolbox
   \\    /   O peration     | Website:  https://openfoam.org
    \\  /    A nd           | Version:  7
     \\/     M anipulation  |
\*---------------------------------------------------------------------------*/
FoamFile
{
    version     2.0;
    format      ascii;
    class       surfaceScalarField;
    location    "9";
    object      phi_0;
}
// * * * * * * * * * * * * * * * * * * * * * * * * * * * * * * * * * * * * * //

dimensions      [0 3 -1 0 0 0 0];

internalField   nonuniform List<scalar> 
45600
(
2.7256985e-07
-2.7302419e-07
5.3070176e-10
3.9279218e-07
-1.2058885e-07
3.7231001e-10
1.2054551e-07
2.7203848e-07
2.0253726e-10
-5.6828706e-07
6.8874532e-07
1.0113308e-10
-1.6324856e-06
1.064124e-06
4.8632069e-11
-3.0023322e-06
1.3698148e-06
2.3104049e-11
-4.6043737e-06
1.6020336e-06
9.6417346e-12
-6.3710936e-06
1.7667032e-06
3.0852546e-12
-8.2434279e-06
1.8723237e-06
2.1447882e-12
-1.0170261e-05
1.9268364e-06
3.7976678e-12
-1.2106629e-05
1.9363624e-06
5.6047813e-12
-1.4011521e-05
1.9048835e-06
7.1961229e-12
-1.5845899e-05
1.834377e-06
8.4053482e-12
-1.7571157e-05
1.7252566e-06
8.9338329e-12
-1.9148182e-05
1.577011e-06
9.0967944e-12
-2.0537104e-05
1.3889066e-06
9.5533364e-12
-2.1697793e-05
1.1606775e-06
9.7949063e-12
-2.2590986e-05
8.9318322e-07
8.9835122e-12
-2.3179972e-05
5.8898231e-07
7.3241995e-12
-2.3432782e-05
2.5280161e-07
4.9577647e-12
-2.3324608e-05
-1.0817845e-07
2.4864719e-12
-2.2840346e-05
-4.84258e-07
2.3870418e-13
-2.1977058e-05
-8.6328295e-07
-2.1323968e-12
-2.0746006e-05
-1.2310519e-06
-4.7857776e-12
-1.9174079e-05
-1.5719253e-06
-7.2953307e-12
-1.7304391e-05
-1.8696757e-06
-9.2281108e-12
-1.5195857e-05
-2.1085233e-06
-1.0898588e-11
-1.2921572e-05
-2.2742753e-06
-1.2372183e-11
-1.0566068e-05
-2.3554907e-06
-1.3315976e-11
-8.2215102e-06
-2.3445424e-06
-1.3462411e-11
-5.9830298e-06
-2.238468e-06
-1.2770609e-11
-3.9434834e-06
-2.0395381e-06
-1.1348321e-11
-2.1879387e-06
-1.7555365e-06
-9.1859308e-12
-7.880222e-07
-1.3999081e-06
-6.267858e-12
2.0433602e-07
-9.923542e-07
-2.8881052e-12
7.6485229e-07
-5.6051795e-07
5.8150366e-14
9.0500489e-07
-1.4015765e-07
3.2951818e-12
6.917434e-07
2.1325621e-07
7.1708693e-12
2.8632912e-07
4.0540733e-07
1.1335901e-11
2.8632535e-07
4.9545008e-12
1.2796713e-07
-4.0134316e-07
3.7462442e-10
-3.073577e-07
3.1440708e-07
2.7504366e-10
-1.6090473e-06
1.5735942e-06
1.5515656e-10
-3.8407167e-06
2.9203304e-06
7.3555136e-11
-6.9304187e-06
4.1537998e-06
2.5414006e-11
-1.0746666e-05
5.1860965e-06
-3.156881e-12
-1.5135428e-05
5.9908054e-06
-2.0582649e-11
-1.9941884e-05
6.5731943e-06
-2.7927316e-11
-2.5020474e-05
6.9509669e-06
-2.9010418e-11
-3.0237573e-05
7.1439619e-06
-2.8220826e-11
-3.5470307e-05
7.1691067e-06
-2.6627555e-11
-4.0603744e-05
7.0383443e-06
-2.4376247e-11
-4.5527805e-05
6.7584605e-06
-2.2157882e-11
-5.0134696e-05
6.3321628e-06
-1.9824636e-11
-5.4317523e-05
5.7598467e-06
-1.6642237e-11
-5.7970287e-05
5.0416871e-06
-1.2434749e-11
-6.0989405e-05
4.1798117e-06
-8.2929312e-12
-6.3276594e-05
3.1803708e-06
-5.1369568e-12
-6.4742938e-05
2.0553248e-06
-2.0441008e-12
-6.5313917e-05
8.2377846e-07
1.3125627e-12
-6.4935098e-05
-4.8699992e-07
4.9136923e-12
-6.3577294e-05
-1.8420709e-06
8.7417186e-12
-6.124225e-05
-3.1983431e-06
1.247064e-11
-5.7966555e-05
-4.5067649e-06
1.5920752e-11
-5.3824429e-05
-5.7140738e-06
1.9051752e-11
-4.8928478e-05
-6.765649e-06
2.1895733e-11
-4.3428135e-05
-7.6088877e-06
2.4020362e-11
-3.7505532e-05
-8.1969028e-06
2.5164135e-11
-3.1368787e-05
-8.4922617e-06
2.5425476e-11
-2.5242906e-05
-8.470451e-06
2.4961695e-11
-1.9358636e-05
-8.1227632e-06
2.3858311e-11
-1.3939796e-05
-7.4583998e-06
2.209123e-11
-9.1895781e-06
-6.5057739e-06
1.9672082e-11
-5.2761606e-06
-5.3133442e-06
1.673698e-11
-2.3177018e-06
-3.9508283e-06
1.3512452e-11
-3.6620135e-07
-2.51203e-06
1.0090136e-11
6.1530403e-07
-1.121673e-06
6.334581e-12
7.7736633e-07
5.1183392e-08
4.714172e-12
4.0816462e-07
7.7459544e-07
5.974315e-12
6.9448989e-07
-5.6229452e-13
-2.7325902e-07
-1.2828642e-07
1.9658456e-10
-1.6130992e-06
1.6541068e-06
1.6019857e-10
-4.2405795e-06
4.2009262e-06
1.0666681e-10
-8.1691771e-06
6.8488709e-06
5.030637e-11
-1.3291123e-05
9.2757305e-06
2.0107019e-11
-1.9429401e-05
1.1324349e-05
-7.8788276e-14
-2.6375871e-05
1.2937279e-05
-1.0546006e-11
-3.3915599e-05
1.411295e-05
-1.3536839e-11
-4.1839801e-05
1.4875179e-05
-1.3163036e-11
-4.9950809e-05
1.5254975e-05
-1.1569181e-11
-5.8062319e-05
1.5280636e-05
-9.4437308e-12
-6.5997215e-05
1.4973258e-05
-7.7590534e-12
-7.358467e-05
1.4345915e-05
-6.5829675e-12
-8.0657787e-05
1.3405274e-05
-4.893168e-12
-8.7052606e-05
1.2154663e-05
-2.4557111e-12
-9.2608796e-05
1.0597883e-05
5.4077213e-14
-9.717224e-05
8.7432569e-06
1.6659888e-12
-0.00010059935
6.6074686e-06
2.1654144e-12
-0.00010276286
4.2188341e-06
2.6335278e-12
-0.00010355883
1.6197526e-06
3.1947795e-12
-0.00010291394
-1.1318937e-06
3.6327125e-12
-0.00010079305
-3.9629653e-06
4.0859956e-12
-9.720582e-05
-6.785579e-06
4.4735117e-12
-9.2212045e-05
-9.5005506e-06
4.7148836e-12
-8.5924883e-05
-1.200124e-05
5.0004019e-12
-7.851148e-05
-1.4179051e-05
5.3324265e-12
-7.0190457e-05
-1.5929914e-05
5.3372101e-12
-6.1225964e-05
-1.7161404e-05
4.9571377e-12
-5.191826e-05
-1.779997e-05
4.5213518e-12
-4.2590989e-05
-1.7797723e-05
4.3214735e-12
-3.357555e-05
-1.7138205e-05
4.3054958e-12
-2.5193188e-05
-1.5840767e-05
4.3359716e-12
-1.7735508e-05
-1.396346e-05
4.4079714e-12
-1.1444053e-05
-1.1604803e-05
4.5535614e-12
-6.4894289e-06
-8.9054569e-06
4.8139361e-12
-2.9498048e-06
-6.0516578e-06
5.1077578e-12
-7.8866822e-07
-3.2828135e-06
5.1067534e-12
1.6771713e-07
-9.052075e-07
5.5755162e-12
2.5466539e-07
6.8763706e-07
7.2259804e-12
9.4915031e-07
2.9424099e-12
-7.3715241e-07
6.0878852e-07
9.0148831e-11
-3.1370688e-06
4.0539208e-06
8.5183117e-11
-7.2411282e-06
8.3049195e-06
5.0473154e-11
-1.296744e-05
1.2575194e-05
6.690277e-12
-2.0143989e-05
1.6452263e-05
6.0873003e-12
-2.8543017e-05
1.9723375e-05
-5.6596754e-12
-3.790963e-05
2.2303915e-05
-1.0680973e-11
-4.7981933e-05
2.418527e-05
-1.1672031e-11
-5.8502779e-05
2.539602e-05
-1.0728724e-11
-6.92249e-05
2.5977101e-05
-8.8068565e-12
-7.9911708e-05
2.5967467e-05
-6.8528405e-12
-9.0335701e-05
2.5397259e-05
-5.5535841e-12
-0.00010027613
2.4286341e-05
-4.2658779e-12
-0.00010951731
2.2646455e-05
-2.0864692e-12
-0.00011784833
2.0485689e-05
3.8155814e-13
-0.00012506463
1.7814174e-05
2.2355612e-12
-0.00013097154
1.4650162e-05
3.0229853e-12
-0.00013538981
1.1025731e-05
3.0867419e-12
-0.00013816262
6.9916438e-06
3.3233415e-12
-0.00013916378
2.6209098e-06
3.558833e-12
-0.00013830625
-1.9894281e-06
3.4403529e-12
-0.00013555088
-6.7183406e-06
3.248794e-12
-0.00013091383
-1.1422632e-05
3.2193623e-12
-0.00012447263
-1.594176e-05
3.1032939e-12
-0.00011636976
-2.0104111e-05
2.9288465e-12
-0.0001068133
-2.3735519e-05
2.7173975e-12
-9.607387e-05
-2.6669344e-05
2.2968058e-12
-8.447773e-05
-2.8757546e-05
1.7189661e-12
-7.2395653e-05
-2.988205e-05
1.2106944e-12
-6.0227846e-05
-2.9965533e-05
1.034345e-12
-4.8385241e-05
-2.8980811e-05
1.1895922e-12
-3.7267869e-05
-2.695814e-05
1.5401489e-12
-2.7241205e-05
-2.3990126e-05
2.0487248e-12
-1.8611532e-05
-2.023448e-05
2.7083153e-12
-1.1601353e-05
-1.5915644e-05
3.4805131e-12
-6.3257633e-06
-1.1327254e-05
4.344492e-12
-2.7706017e-06
-6.8379808e-06
5.2563924e-12
-7.7510709e-07
-2.9007067e-06
6.0003457e-12
-1.7833922e-08
-6.9642766e-08
6.2457936e-12
9.3130774e-07
5.8821729e-12
-1.2097114e-06
1.8184466e-06
3.1068876e-11
-4.7134153e-06
7.557587e-06
4.4160993e-11
-1.0353319e-05
1.3944814e-05
1.9288499e-11
-1.791874e-05
2.0140597e-05
2.6091626e-12
-2.7151787e-05
2.5685302e-05
-6.8747778e-12
-3.7763873e-05
3.0335491e-05
-1.2206895e-11
-4.9452527e-05
3.3992586e-05
-1.4444841e-11
-6.1914219e-05
3.664697e-05
-1.4369856e-11
-7.4852256e-05
3.8334072e-05
-1.2870749e-11
-8.7980141e-05
3.9105004e-05
-1.1191839e-11
-0.0001010217
3.9009032e-05
-9.9115932e-12
-0.00011370947
3.8085034e-05
-8.5554962e-12
-0.00012578281
3.6359689e-05
-6.4459192e-12
-0.00013698677
3.3850424e-05
-3.7134513e-12
-0.0001470725
3.0571417e-05
-1.3753073e-12
-0.00015579957
2.6541241e-05
2.7595099e-13
-0.0001629404
2.1790988e-05
1.169505e-12
-0.00016828657
1.6371894e-05
1.7270571e-12
-0.00017165668
1.0361759e-05
2.5133312e-12
-0.00017290536
3.8695853e-06
3.1704213e-12
-0.00017193263
-2.9621604e-06
3.5292894e-12
-0.00016869323
-9.9577487e-06
3.9066973e-12
-0.00016320491
-1.6910967e-05
4.4933341e-12
-0.00015555508
-2.3591599e-05
4.9668428e-12
-0.00014590505
-2.9754145e-05
5.2828007e-12
-0.00013449105
-3.5149516e-05
5.4155087e-12
-0.00012162147
-3.9538931e-05
5.2339123e-12
-0.00010766968
-4.270935e-05
4.8553813e-12
-9.3062237e-05
-4.4489493e-05
4.5226982e-12
-7.8262467e-05
-4.4765304e-05
4.4063309e-12
-6.3749616e-05
-4.3493665e-05
4.4483268e-12
-4.9994455e-05
-4.0713306e-05
4.53713e-12
-3.7432368e-05
-3.6552219e-05
4.6631458e-12
-2.6435353e-05
-3.1231501e-05
4.8286017e-12
-1.7284612e-05
-2.5066391e-05
4.9957653e-12
-1.0145478e-05
-1.8466392e-05
5.3203818e-12
-5.0465882e-06
-1.1936876e-05
6.0833554e-12
-1.8658098e-06
-6.0814922e-06
5.9170231e-12
-3.267024e-07
-1.6087535e-06
3.0913739e-12
6.0459401e-07
8.1361694e-12
-1.6649532e-06
3.4833854e-06
-6.3104686e-13
-6.2633126e-06
1.2155945e-05
2.207249e-11
-1.3437678e-05
2.111916e-05
-1.1626887e-12
-2.2835398e-05
2.9538324e-05
-1.067668e-11
-3.4099544e-05
3.6949469e-05
-1.2912704e-11
-4.6872112e-05
4.3108077e-05
-1.4748058e-11
-6.0799897e-05
4.7920384e-05
-1.5209018e-11
-7.5539437e-05
5.1386519e-05
-1.414733e-11
-9.0759663e-05
5.3554318e-05
-1.2575845e-11
-0.00010614214
5.4487505e-05
-1.1396601e-11
-0.00012137953
5.4246427e-05
-1.0266452e-11
-0.00013617327
5.2878773e-05
-8.4485056e-12
-0.00015023159
5.0418019e-05
-5.7929265e-12
-0.00016326865
4.688749e-05
-3.070059e-12
-0.00017500534
4.2308108e-05
-1.2879832e-12
-0.00018517216
3.6708056e-05
-3.8938758e-16
-0.00019351414
3.0132965e-05
9.0886051e-13
-0.00019979768
2.2655429e-05
1.6014692e-12
-0.00020381889
1.4382968e-05
2.4976173e-12
-0.00020541307
5.4637627e-06
3.1382078e-12
-0.00020446471
-3.9105321e-06
3.472097e-12
-0.00020091734
-1.3505125e-05
3.9799291e-12
-0.00019478274
-2.304557e-05
4.7698784e-12
-0.00018614852
-3.2225828e-05
5.371562e-12
-0.00017518341
-4.0719259e-05
5.6584204e-12
-0.00016213949
-4.8193445e-05
5.6791155e-12
-0.00014735041
-5.432802e-05
5.4906685e-12
-0.00013122501
-5.8834756e-05
5.1947403e-12
-0.00011423574
-6.1478761e-05
4.9479233e-12
-9.6901688e-05
-6.209936e-05
4.8631558e-12
-7.9766342e-05
-6.0629015e-05
4.8900304e-12
-6.3370923e-05
-5.7108732e-05
4.9462122e-12
-4.8224475e-05
-5.1698674e-05
5.0445414e-12
-3.477259e-05
-4.4683392e-05
5.1642307e-12
-2.3367007e-05
-3.6471978e-05
5.2151063e-12
-1.4238606e-05
-2.7594796e-05
5.5268364e-12
-7.4765536e-06
-1.8698935e-05
6.6731954e-12
-3.0166516e-06
-1.0541404e-05
5.9770474e-12
-6.4231696e-07
-3.9830897e-06
4.5901046e-13
-3.7736392e-08
1.0543907e-11
-2.0949649e-06
5.5783766e-06
-1.9036572e-11
-7.7502407e-06
1.7811207e-05
1.0750396e-11
-1.6419409e-05
2.9788327e-05
-1.1706209e-11
-2.7606403e-05
4.0725349e-05
-1.6689527e-11
-4.0849828e-05
5.0192923e-05
-1.4969662e-11
-5.5717341e-05
5.7975588e-05
-1.5082707e-11
-7.1802627e-05
6.4005677e-05
-1.4564952e-11
-8.8722964e-05
6.8306881e-05
-1.3167085e-11
-0.00010611631
7.0947683e-05
-1.2003763e-11
-0.0001236377
7.2008904e-05
-1.1153718e-11
-0.00014095535
7.1564077e-05
-9.5712064e-12
-0.000157747
6.9670425e-05
-7.1037806e-12
-0.00017369727
6.6368305e-05
-4.4409767e-12
-0.00018849662
6.1686846e-05
-2.2429672e-12
-0.00020184217
5.5653647e-05
-1.0509255e-12
-0.0002134407
4.8306573e-05
2.1360842e-14
-0.00022301373
3.9706002e-05
1.07215e-12
-0.00023030455
2.9946248e-05
1.7685934e-12
-0.0002350867
1.9165114e-05
2.4577753e-12
-0.00023717372
7.5507833e-06
3.0037371e-12
-0.00023642963
-4.6546355e-06
3.4134465e-12
-0.00023277941
-1.7155356e-05
4.0376515e-12
-0.00022621932
-2.9605657e-05
4.8386524e-12
-0.00021682591
-4.1619242e-05
5.370382e-12
-0.00020476305
-5.2782129e-05
5.5573807e-12
-0.00019028614
-6.2670365e-05
5.460143e-12
-0.00017374239
-7.0871771e-05
5.2283978e-12
-0.00015556622
-7.7010927e-05
4.984918e-12
-0.00013626886
-8.0776129e-05
4.8146915e-12
-0.00011642164
-8.1946583e-05
4.7429354e-12
-9.6632979e-05
-8.041768e-05
4.7378167e-12
-7.7519605e-05
-7.6222112e-05
4.7849639e-12
-5.9673497e-05
-6.9544788e-05
4.9370303e-12
-4.3626763e-05
-6.0730129e-05
5.1315193e-12
-2.9817302e-05
-5.0281445e-05
5.170095e-12
-1.8558513e-05
-3.8853588e-05
5.5492671e-12
-1.0016523e-05
-2.7240933e-05
7.1946151e-12
-4.198409e-06
-1.6359529e-05
6.0355431e-12
-9.5478627e-07
-7.2267116e-06
-2.305223e-12
-9.925374e-07
1.2775798e-11
-2.4979901e-06
8.0763726e-06
-3.015826e-11
-9.1574257e-06
2.4470638e-05
8.3958865e-12
-1.9257419e-05
3.9888355e-05
-1.4885055e-11
-3.2163789e-05
5.3631734e-05
-1.8949742e-11
-4.7311195e-05
6.5340335e-05
-1.5332715e-11
-6.4191964e-05
7.4856374e-05
-1.4183257e-11
-8.2346297e-05
8.2160034e-05
-1.3520479e-11
-0.00010135333
8.7313928e-05
-1.2723566e-11
-0.00012082289
9.0417255e-05
-1.1896545e-11
-0.00014038796
9.157398e-05
-1.0600576e-11
-0.00015969792
9.0874044e-05
-8.3579291e-12
-0.0001784131
8.8385618e-05
-5.7427369e-12
-0.00019620102
8.415623e-05
-3.6233887e-12
-0.00021273461
7.8220436e-05
-2.0178919e-12
-0.00022769268
7.061171e-05
-1.0166976e-12
-0.00024076259
6.1376481e-05
3.526532e-14
-0.00025164511
5.0588523e-05
1.0683229e-12
-0.00026006116
3.8362303e-05
1.7266635e-12
-0.00026576026
2.4864203e-05
2.2967298e-12
-0.00026853027
1.0320788e-05
2.8597659e-12
-0.00026820828
-4.9766283e-06
3.4627367e-12
-0.00026469188
-2.0671764e-05
4.26247e-12
-0.00025795087
-3.6346669e-05
5.0517943e-12
-0.00024803818
-5.153194e-05
5.4791503e-12
-0.00023509944
-6.5720878e-05
5.5861495e-12
-0.00021938012
-7.8389681e-05
5.4778767e-12
-0.00020122898
-8.9022917e-05
5.3005997e-12
-0.00018109632
-9.7143588e-05
5.1323732e-12
-0.00015952597
-0.00010234649
5.0129984e-12
-0.00013713976
-0.00010433279
4.9389002e-12
-0.00011461429
-0.00010294315
4.9045484e-12
-9.2650178e-05
-9.8186234e-05
4.923572e-12
-7.1935405e-05
-9.0259566e-05
5.0744853e-12
-5.3105349e-05
-7.9560189e-05
5.2962596e-12
-3.6702945e-05
-6.6683855e-05
5.2718305e-12
-2.3143096e-05
-5.2413442e-05
5.6459621e-12
-1.268556e-05
-3.7698477e-05
7.7335946e-12
-5.4202658e-06
-2.3624833e-05
6.0682001e-12
-1.2684244e-06
-1.1378548e-05
-5.1582721e-12
-2.2609778e-06
1.5114469e-11
-2.8733142e-06
1.0949724e-05
-3.4830914e-11
-1.0475057e-05
3.2072385e-05
1.1480406e-11
-2.1925072e-05
5.1338389e-05
-1.4801624e-11
-3.6460047e-05
6.8166715e-05
-1.9065673e-11
-5.3415403e-05
8.2295702e-05
-1.4369656e-11
-7.2210538e-05
9.3651535e-05
-1.3032988e-11
-9.2333872e-05
0.00010228339
-1.2925493e-11
-0.00011332851
0.00010830857
-1.2485444e-11
-0.00013477924
0.00011186799
-1.1298285e-11
-0.00015630107
0.00011309581
-9.2863227e-12
-0.00017752953
0.00011210252
-6.865033e-12
-0.00019811311
0.00010896921
-4.6939047e-12
-0.00021770794
0.00010375106
-3.1707972e-12
-0.00023597492
9.6487413e-05
-1.9491988e-12
-0.00025257933
8.7216118e-05
-9.7219672e-13
-0.00026719276
7.598992e-05
1.1835835e-13
-0.00027949731
6.289307e-05
9.81816e-13
-0.00028919169
4.805668e-05
1.5119034e-12
-0.00029599925
3.1671764e-05
2.1187236e-12
-0.00029967762
1.399915e-05
2.8491043e-12
-0.00030002983
-4.6244209e-06
3.6199273e-12
-0.00029691639
-2.3785209e-05
4.4835192e-12
-0.00029026882
-4.2994241e-05
5.1837884e-12
-0.00028010288
-6.1697897e-05
5.5227276e-12
-0.00026653139
-7.9292369e-05
5.6025836e-12
-0.00024977538
-9.5145695e-05
5.5360604e-12
-0.00023017174
-0.00010862656
5.4379074e-12
-0.00020817582
-0.00011913951
5.3529699e-12
-0.00018435701
-0.00012616531
5.2766411e-12
-0.00015938566
-0.00012930415
5.1936958e-12
-0.00013401036
-0.00012831846
5.1307519e-12
-0.00010902551
-0.00012317109
5.113996e-12
-8.5230596e-05
-0.00011405448
5.242595e-12
-6.338404e-05
-0.00010140675
5.4804308e-12
-4.4155877e-05
-8.5912025e-05
5.3912814e-12
-2.8084319e-05
-6.8485006e-05
5.7465116e-12
-1.5541415e-05
-5.024139e-05
8.2893604e-12
-6.7125583e-06
-3.2453698e-05
6.1365161e-12
-1.5931787e-06
-1.6497919e-05
-8.0589176e-12
-3.8541746e-06
1.7563064e-11
-3.2197354e-06
1.4169503e-05
-3.6469001e-11
-1.1694552e-05
4.0547184e-05
1.5823523e-11
-2.4400187e-05
6.4044033e-05
-1.3421671e-11
-4.0455328e-05
8.4221869e-05
-1.8002429e-11
-5.9103589e-05
0.00010094398
-1.3097115e-11
-7.9696311e-05
0.00011424427
-1.2318503e-11
-0.00010167366
0.00012426075
-1.2473897e-11
-0.00012454593
0.00013118084
-1.1640409e-11
-0.00014787634
0.0001351984
-9.8471438e-12
-0.00017126599
0.00013648548
-7.5988749e-12
-0.00019434129
0.00013517782
-5.5930544e-12
-0.00021674396
0.00013137188
-4.1039914e-12
-0.00023812402
0.00012513112
-2.9589795e-12
-0.00025813541
0.00011649881
-1.8399325e-12
-0.00027643436
0.00010551507
-9.5676676e-13
-0.00029268012
9.2235686e-05
7.1451284e-15
-0.00030653809
7.6751035e-05
7.3394946e-13
-0.00031768494
5.9203524e-05
1.2406377e-12
-0.00032581585
3.9802674e-05
1.9439018e-12
-0.00033065374
1.8837036e-05
2.851085e-12
-0.00033196071
-3.3174587e-06
3.7268275e-12
-0.00032955029
-2.6195634e-05
4.6043797e-12
-0.00032330372
-4.9240811e-05
5.1768224e-12
-0.00031318534
-7.1816281e-05
5.4585177e-12
-0.00029925951
-9.321821e-05
5.576421e-12
-0.00028170651
-0.0001126987
5.5967017e-12
-0.00026083585
-0.00012949723
5.5799652e-12
-0.00023709452
-0.00014288085
5.5667647e-12
-0.00021106792
-0.00015219192
5.5189142e-12
-0.0001834707
-0.00015690137
5.4142915e-12
-0.00015512587
-0.00015666329
5.3195553e-12
-0.00012693126
-0.0001513657
5.2687886e-12
-9.9814421e-05
-0.00014117133
5.3684216e-12
-7.4678987e-05
-0.00012654219
5.6079256e-12
-5.2347525e-05
-0.00010824349
5.4499725e-12
-3.3507189e-05
-8.732535e-05
5.807269e-12
-1.8664816e-05
-6.508377e-05
8.8606571e-12
-8.1175112e-06
-4.3001011e-05
6.2362331e-12
-1.9424323e-06
-2.2672984e-05
-1.1116585e-11
-5.7966283e-06
2.0266047e-11
-3.5351303e-06
1.7704666e-05
-3.7614271e-11
-1.2806277e-05
4.9818296e-05
2.0054489e-11
-2.6660514e-05
7.7898292e-05
-1.1679347e-11
-4.4110986e-05
0.00010167237
-1.6946019e-11
-6.4318678e-05
0.00012115169
-1.2263293e-11
-8.6573433e-05
0.00013649903
-1.1749075e-11
-0.00011027205
0.00014795937
-1.1478115e-11
-0.00013489609
0.00015580488
-9.9588876e-12
-0.00015999113
0.00016029346
-7.9769973e-12
-0.00018514853
0.0001616429
-6.1715634e-12
-0.00020999006
0.00016001934
-4.7988398e-12
-0.00023415558
0.0001555374
-3.7586737e-12
-0.00025729404
0.00014826958
-2.8001364e-12
-0.00027905736
0.00013826214
-1.737731e-12
-0.00029909718
0.00012555489
-9.8071022e-13
-0.00031706408
0.00011020259
-2.4907847e-13
-0.00033260916
9.2296117e-05
3.6743329e-13
-0.00034538788
7.1982243e-05
1.0199651e-12
-0.0003550661
4.9480891e-05
1.8955258e-12
-0.00036132844
2.5099374e-05
2.8744765e-12
-0.00036389034
-7.555695e-07
3.6843042e-12
-0.00036250905
-2.7576923e-05
4.5701731e-12
-0.00035700423
-5.4745641e-05
5.0539895e-12
-0.00034727433
-8.154619e-05
5.3224939e-12
-0.0003333186
-0.00010717394
5.5187316e-12
-0.00031525854
-0.00013075876
5.6620843e-12
-0.00029335788
-0.00015139791
5.7468828e-12
-0.00026803822
-0.00016820051
5.7928527e-12
-0.00023988721
-0.00018034294
5.7522708e-12
-0.00020965545
-0.00018713314
5.6192241e-12
-0.00017823926
-0.00018807949
5.5052918e-12
-0.00014664735
-0.00018295762
5.4402098e-12
-0.00011595152
-0.00017186716
5.4925393e-12
-8.7224449e-05
-0.00015526927
5.6868103e-12
-6.1470156e-05
-0.00013399779
5.4265496e-12
-3.9555241e-05
-0.00010924027
5.8000962e-12
-2.2149465e-05
-8.2489554e-05
9.4326795e-12
-9.6838397e-06
-5.5466646e-05
6.2967673e-12
-2.3311103e-06
-3.0025697e-05
-1.4519909e-11
-8.1277646e-06
2.3292292e-11
-3.8164903e-06
2.152119e-05
-3.8403038e-11
-1.3798994e-05
5.9800775e-05
2.4138015e-11
-2.8682135e-05
9.2781455e-05
-1.0448709e-11
-4.7386928e-05
0.00012037718
-1.6557532e-11
-6.9002015e-05
0.00014276677
-1.1495532e-11
-9.276336e-05
0.00016026038
-1.044932e-11
-0.00011803014
0.00017322616
-9.6599045e-12
-0.0001442598
0.00018203455
-8.0248543e-12
-0.00017098446
0.00018701813
-6.4462427e-12
-0.00019778993
0.00018844836
-5.2817262e-12
-0.00022429774
0.00018652715
-4.3970779e-12
-0.00025015068
0.00018139034
-3.5176406e-12
-0.00027500158
0.00017312049
-2.6308887e-12
-0.00029850536
0.00016176593
-1.7707903e-12
-0.00032031385
0.00014736338
-1.2088174e-12
-0.00034007314
0.00012996188
-5.8498298e-13
-0.00035742342
0.00010964639
5.2566024e-14
-0.00037200096
8.6559786e-05
8.7705236e-13
-0.00038344273
6.0922653e-05
1.8830153e-12
-0.00039139371
3.3050353e-05
2.9286789e-12
-0.00039551655
3.3672648e-06
3.9100574e-12
-0.00039550831
-2.7585169e-05
4.4486478e-12
-0.00039111479
-5.9139165e-05
4.812084e-12
-0.00038215525
-9.0505734e-05
5.1350791e-12
-0.00036854692
-0.00012078228
5.4608179e-12
-0.00035033276
-0.00014897292
5.7311616e-12
-0.00032770924
-0.00017402144
5.9037013e-12
-0.00030105104
-0.00019485871
5.9954186e-12
-0.00027092865
-0.00021046533
5.9711116e-12
-0.00023811411
-0.00021994769
5.8253755e-12
-0.00020357017
-0.00022262343
5.7012236e-12
-0.00016841938
-0.00021810842
5.6429492e-12
-0.00013389176
-0.00020639478
5.644214e-12
-0.00010125336
-0.00018790767
5.7466017e-12
-7.1721994e-05
-0.00016352917
5.3409815e-12
-4.6379972e-05
-0.0001345823
5.7285177e-12
-2.6095424e-05
-0.00010277411
1.0032148e-11
-1.1463524e-05
-7.0098556e-05
6.30635e-12
-2.7748423e-06
-3.8714357e-05
-1.8416152e-11
-1.0902636e-05
2.6732662e-11
-4.0601775e-06
2.5581415e-05
-3.8900898e-11
-1.46602e-05
7.0400773e-05
2.7485701e-11
-3.043958e-05
0.00010856084
-9.7111529e-12
-5.0241426e-05
0.00014017903
-1.6013951e-11
-7.3092987e-05
0.00016561834
-1.0001602e-11
-9.8184515e-05
0.00018535191
-8.4078829e-12
-0.00012484366
0.00019988532
-7.6399842e-12
-0.00015250856
0.00020969946
-6.5106622e-12
-0.00018070211
0.00021521167
-5.5781323e-12
-0.00020900862
0.00021675488
-4.8245552e-12
-0.00023705375
0.00021457228
-4.1333995e-12
-0.00026448779
0.00020882439
-3.3737358e-12
-0.00029097248
0.00019960519
-2.628336e-12
-0.00031617091
0.00018696437
-2.0065329e-12
-0.00033974036
0.00017093283
-1.6091237e-12
-0.00036132755
0.00015154906
-9.7734723e-13
-0.0003805663
0.00012888514
-1.8712744e-13
-0.00039707754
0.00010307102
8.0712563e-13
-0.00041047185
7.4316964e-05
1.8217328e-12
-0.00042035516
4.2933661e-05
2.7429092e-12
-0.00042633777
9.3498647e-06
3.5668526e-12
-0.00042804927
-2.587367e-05
4.0899605e-12
-0.00042515568
-6.203276e-05
4.4776821e-12
-0.00041738482
-9.8276604e-05
4.8951949e-12
-0.0004045555
-0.0001336116
5.3594614e-12
-0.00038661143
-0.000166917
5.7562158e-12
-0.00036365743
-0.00019697544
6.0180844e-12
-0.00033599476
-0.0002225214
6.1592409e-12
-0.00030415057
-0.00024230952
6.1769447e-12
-0.0002688958
-0.00025520248
6.045005e-12
-0.00023124444
-0.00026027479
5.9117463e-12
-0.0001924287
-0.00025692417
5.8583311e-12
-0.00015384602
-0.00024497746
5.8129384e-12
-0.000116979
-0.0002247747
5.8026768e-12
-8.3294294e-05
-0.00019721389
5.2387042e-12
-5.4132528e-05
-0.00016374407
5.6536097e-12
-3.0604496e-05
-0.00012630216
1.0733728e-11
-1.3509871e-05
-8.719319e-05
6.3542838e-12
-3.2895932e-06
-4.8934609e-05
-2.2929422e-11
-1.4192259e-05
3.0753238e-11
-4.2622859e-06
2.9843747e-05
-3.9491787e-11
-1.5376948e-05
8.1515394e-05
3.0179691e-11
-3.1907051e-05
0.00012509094
-8.5906817e-12
-5.2632667e-05
0.00016090466
-1.4588756e-11
-7.6530888e-05
0.00018951657
-7.8847989e-12
-0.00010275449
0.00021157552
-6.4472517e-12
-0.00013060564
0.00022773648
-6.263112e-12
-0.00015950787
0.00023860169
-5.7308801e-12
-0.00018897882
0.00024468261
-5.1862486e-12
-0.0002186052
0.00024638126
-4.5562118e-12
-0.00024802083
0.00024398792
-3.9301538e-12
-0.00027688802
0.00023769159
-3.3510475e-12
-0.00030488234
0.00022759952
-2.843183e-12
-0.00033168056
0.00021376259
-2.3930451e-12
-0.00035695121
0.00019620348
-1.9671843e-12
-0.00038034775
0.0001749456
-1.2276574e-12
-0.00040150378
0.00015004117
-3.1968994e-13
-0.00042003074
0.00012159798
7.2516983e-13
-0.00043551812
8.980434e-05
1.6432692e-12
-0.00044753692
5.4952455e-05
2.3806578e-12
-0.00045564715
1.7460088e-05
3.05222e-12
-0.00045941072
-2.21101e-05
3.5828621e-12
-0.00045840954
-6.3033949e-05
4.0607106e-12
-0.00045227124
-0.0001044149
4.6071883e-12
-0.00044070185
-0.00014518099
5.1979328e-12
-0.00042352533
-0.00018409353
5.6996998e-12
-0.00040072842
-0.00021977235
6.0474124e-12
-0.0003725077
-0.00025074213
6.2579367e-12
-0.00033931344
-0.00027550378
6.3647657e-12
-0.00030188323
-0.0002926327
6.2905832e-12
-0.00026125637
-0.00030090166
6.1448261e-12
-0.00021876011
-0.00029942042
6.0638476e-12
-0.0001759606
-0.00028777699
5.9743763e-12
-0.00013457623
-0.00026615908
5.8474639e-12
-9.6358876e-05
-0.00023543125
5.1309011e-12
-6.2956371e-05
-0.00019714658
5.6197021e-12
-3.5776613e-05
-0.00015348193
1.1599867e-11
-1.587624e-05
-0.00010709357
6.5278884e-12
-3.8915003e-06
-6.0919326e-05
-2.8184655e-11
-1.8083792e-05
3.5443441e-11
-4.4190502e-06
3.4262835e-05
-3.9875599e-11
-1.5937017e-05
9.3033323e-05
3.3094115e-11
-3.3060445e-05
0.00014221438
-6.6155171e-12
-5.4521571e-05
0.0001823658
-1.2690966e-11
-7.9258461e-05
0.00021425347
-6.0267335e-12
-0.00010639433
0.0002387114
-5.1679477e-12
-0.00013521154
0.00025655368
-5.535367e-12
-0.00016512324
0.00026851339
-5.3045516e-12
-0.00019564541
0.00027520479
-4.853909e-12
-0.00022637062
0.00027710648
-4.2779815e-12
-0.00025694459
0.0002745619
-3.8318877e-12
-0.00028704587
0.00026779287
-3.4930282e-12
-0.00031636882
0.00025692247
-3.1325248e-12
-0.00034460948
0.00024200326
-2.7200439e-12
-0.00037145414
0.00022304814
-2.165398e-12
-0.00039657007
0.00020006152
-1.3320907e-12
-0.00041959841
0.00017306952
-4.0674554e-13
-0.00044014926
0.00014214883
5.53061e-13
-0.00045779919
0.00010745427
1.2992167e-12
-0.00047209208
6.9245337e-05
1.8705913e-12
-0.00048254403
2.7912034e-05
2.4698226e-12
-0.00048865385
-1.6000282e-05
3.0347679e-12
-0.00048991996
-6.1767841e-05
3.6198551e-12
-0.00048586566
-0.0001084692
4.2913423e-12
-0.0004760735
-0.00015497316
4.9788672e-12
-0.00046022921
-0.00019993782
5.5692368e-12
-0.00043817463
-0.00024182695
6.0109411e-12
-0.00040996677
-0.00027894999
6.3131211e-12
-0.00037593821
-0.00030953235
6.5406502e-12
-0.00033675034
-0.00033182058
6.5648936e-12
-0.00029342859
-0.00034422341
6.4079569e-12
-0.00024736686
-0.00034548216
6.2570884e-12
-0.00020028909
-0.00033485477
6.111998e-12
-0.00015416109
-0.00031228708
5.8475334e-12
-0.00011105491
-0.00027853744
4.9447691e-12
-7.2979888e-05
-0.00023522161
5.5530055e-12
-4.1706502e-05
-0.00018475534
1.2652145e-11
-1.8615041e-05
-0.00013018503
6.8146455e-12
-4.5968048e-06
-7.4937536e-05
-3.4242334e-11
-2.2680639e-05
4.0897023e-11
-4.5273163e-06
3.8790181e-05
-3.9567492e-11
-1.6330387e-05
0.00010483636
3.6018092e-11
-3.3879965e-05
0.00015976396
-4.6582584e-12
-5.5875545e-05
0.00020436139
-1.1401707e-11
-8.1226766e-05
0.00023960469
-5.1822761e-12
-0.00010903452
0.00026651915
-4.7467664e-12
-0.00013856629
0.00028608545
-5.275152e-12
-0.00016922849
0.0002991756
-5.0616268e-12
-0.00020053844
0.00030651474
-4.6737236e-12
-0.00023209748
0.00030866553
-4.2384475e-12
-0.00026356652
0.00030603094
-3.998548e-12
-0.0002946443
0.00029887066
-3.8205325e-12
-0.00032504873
0.0002873269
-3.4301372e-12
-0.00035450096
0.00027145548
-2.8922184e-12
-0.00038271184
0.00025125903
-2.1805594e-12
-0.00040937054
0.00022672023
-1.3527106e-12
-0.00043413497
0.00019783395
-5.2709785e-13
-0.00045662418
0.00016463804
2.6933312e-13
-0.00047641303
0.00012724312
8.5351125e-13
-0.00049302985
8.5862144e-05
1.3283984e-12
-0.00050595802
4.0840209e-05
1.910119e-12
-0.00051464311
-7.3152002e-06
2.5281781e-12
-0.00051850683
-5.7904116e-05
3.1944862e-12
-0.00051697014
-0.0001100059
3.9457864e-12
-0.00050948709
-0.00016245621
4.6917772e-12
-0.00049559114
-0.00021383378
5.3664896e-12
-0.00047495429
-0.00026246381
5.9313744e-12
-0.00044745771
-0.00030644658
6.3496606e-12
-0.00041326958
-0.00034372048
6.6997387e-12
-0.00037292157
-0.00037216859
6.8512593e-12
-0.00032737122
-0.00038977377
6.7015261e-12
-0.00027803318
-0.0003948202
6.4642372e-12
-0.00022676142
-0.00038612654
6.2368536e-12
-0.00017576784
-0.00036328066
5.797082e-12
-0.00012747394
-0.00032683135
4.6314403e-12
-8.4308102e-05
-0.00027838745
5.3123566e-12
-4.8480046e-05
-0.00022058341
1.3819572e-11
-2.1776689e-05
-0.00015688839
7.0619116e-12
-5.4218029e-06
-9.129238e-05
-4.1219566e-11
-2.810249e-05
4.7267212e-11
-4.5850815e-06
4.33753e-05
-3.8653434e-11
-1.6550888e-05
0.00011680213
3.7959396e-11
-3.4353164e-05
0.00017756624
-3.693825e-12
-5.6672981e-05
0.00022668121
-1.1007871e-11
-8.2401098e-05
0.0002653328
-4.988014e-12
-0.00011062226
0.00029474031
-4.6074298e-12
-0.00014059309
0.00031605629
-5.1202153e-12
-0.00017171607
0.00033029858
-4.9221623e-12
-0.00020351214
0.00033831082
-4.6751594e-12
-0.00023559384
0.00034074724
-4.4228627e-12
-0.00026764009
0.00033807719
-4.2794109e-12
-0.00029937339
0.00033060396
-4.0714466e-12
-0.00033053977
0.00031849329
-3.5433045e-12
-0.00036089122
0.00030180694
-2.8680808e-12
-0.00039017034
0.00028053815
-2.0878925e-12
-0.00041809689
0.00025464677
-1.3838075e-12
-0.00044435593
0.000224093
-7.3430359e-13
-0.00046858767
0.00018886977
-1.1801067e-13
-0.00049037908
0.00014903452
3.6209315e-13
-0.0005092581
0.00010474117
8.2676177e-13
-0.00052469135
5.6273453e-05
1.4275359e-12
-0.00053608665
4.0800962e-06
2.0989017e-12
-0.00054280263
-5.1188135e-05
2.8149386e-12
-0.00054416737
-0.00010864116
3.5957714e-12
-0.00053950918
-0.00016711441
4.3567073e-12
-0.00052820219
-0.00022514078
5.0899064e-12
-0.00050972888
-0.00028093713
5.7918053e-12
-0.00048376008
-0.00033241538
6.3527967e-12
-0.00045024982
-0.00037723075
6.8158435e-12
-0.00040953743
-0.00041288099
7.1048039e-12
-0.0003624431
-0.00043686811
6.9825071e-12
-0.00031033608
-0.00044692723
6.6777593e-12
-0.0002551503
-0.00044131233
6.3720829e-12
-0.00019932295
-0.00041910801
5.7542133e-12
-0.00014564243
-0.00038051188
4.2899827e-12
-9.7012805e-05
-0.00032701708
4.9719577e-12
-5.616989e-05
-0.00026142634
1.511043e-11
-2.5408301e-05
-0.00018764999
7.2054683e-12
-6.3827453e-06
-0.00011031789