/*--------------------------------*- C++ -*----------------------------------*\
  =========                 |
  \\      /  F ield         | OpenFOAM: The Open Source CFD Toolbox
   \\    /   O peration     | Website:  https://openfoam.org
    \\  /    A nd           | Version:  7
     \\/     M anipulation  |
\*---------------------------------------------------------------------------*/
FoamFile
{
    version     2.0;
    format      ascii;
    class       volVectorField;
    location    "9";
    object      U;
}
// * * * * * * * * * * * * * * * * * * * * * * * * * * * * * * * * * * * * * //

dimensions      [0 1 -1 0 0 0 0];

internalField   nonuniform List<vector> 
16000
(
(6.6507029e-05 -6.4307862e-05 9.4277265e-07)
(0.00016161551 -5.3994004e-05 7.2974925e-06)
(0.00013801147 1.6304321e-06 2.0643278e-05)
(-5.4061584e-05 6.1866128e-05 3.7760045e-05)
(-0.00040983593 0.00011460525 5.5489367e-05)
(-0.00090269309 0.00015593049 7.1913739e-05)
(-0.0015031514 0.00018611585 8.5720332e-05)
(-0.0021825937 0.00020681851 9.6110121e-05)
(-0.0029155399 0.00021981544 0.00010263173)
(-0.0036799895 0.00022658045 0.00010504295)
(-0.0044568399 0.00022816131 0.00010322124)
(-0.0052290369 0.00022517816 9.7110058e-05)
(-0.0059807078 0.00021788553 8.669063e-05)
(-0.0066964172 0.00020626461 7.1978814e-05)
(-0.0073606553 0.00019012753 5.3037827e-05)
(-0.0079576038 0.00016922533 3.000138e-05)
(-0.0084711864 0.00014335201 3.1003668e-06)
(-0.0088853945 0.00011244228 -2.7308818e-05)
(-0.0091848641 7.665831e-05 -6.0721347e-05)
(-0.0093556599 3.6461223e-05 -9.6469378e-05)
(-0.0093862166 -7.3390717e-06 -0.00013371688)
(-0.0092683447 -5.3577824e-05 -0.00017147011)
(-0.0089982499 -0.00010071107 -0.00020860239)
(-0.0085774582 -0.00014688543 -0.00024389668)
(-0.0080135267 -0.00019001429 -0.00027610371)
(-0.0073204663 -0.00022789375 -0.00030401351)
(-0.0065187835 -0.00025834931 -0.00032653511)
(-0.0056350775 -0.00027940014 -0.0003427782)
(-0.0047011678 -0.00028942543 -0.00035213196)
(-0.0037527685 -0.00028731422 -0.00035433179)
(-0.002827774 -0.00027258088 -0.00034950677)
(-0.0019642613 -0.00024543227 -0.00033820537)
(-0.0011983208 -0.0002067861 -0.00032139837)
(-0.00056175293 -0.00015827501 -0.00030046159)
(-7.9661019e-05 -0.0001023576 -0.00027713336)
(0.00023140457 -4.261122e-05 -0.00025342906)
(0.00036744216 1.6271042e-05 -0.00023170962)
(0.00034209985 6.5138144e-05 -0.0002143764)
(0.00020282692 8.8175524e-05 -0.00020407896)
(5.6826541e-05 5.6768243e-05 -0.00018925471)
(5.7192802e-05 -0.00016032296 -4.8863441e-06)
(3.8800363e-05 -3.4805468e-05 1.4782916e-06)
(-0.000295388 0.00024895514 1.2940295e-05)
(-0.0010038244 0.00055701795 2.7034804e-05)
(-0.0020780233 0.00083728551 4.1687058e-05)
(-0.0034730594 0.0010686335 5.5331128e-05)
(-0.0051290437 0.0012464992 6.6859658e-05)
(-0.0069827288 0.0013738582 7.5533642e-05)
(-0.0089734512 0.0014561392 8.0878455e-05)
(-0.011045277 0.0014987856 8.2600699e-05)
(-0.013147063 0.0015061668 8.0524074e-05)
(-0.015231514 0.0014812035 7.4545737e-05)
(-0.01725388 0.0014254203 6.4613535e-05)
(-0.019170751 0.0013392521 5.072276e-05)
(-0.020939237 0.001222486 3.2924519e-05)
(-0.02251667 0.0010747683 1.1344146e-05)
(-0.023860914 0.00089612174 -1.3797122e-05)
(-0.024931248 0.0006874339 -4.2159312e-05)
(-0.025689795 0.00045088355 -7.3265255e-05)
(-0.026103371 0.00019027056 -0.00010648926)
(-0.02614566 -8.8777719e-05 -0.00014105233)
(-0.025799433 -0.00037872543 -0.00017603786)
(-0.025058769 -0.00067025598 -0.00021040722)
(-0.023931022 -0.00095254916 -0.0002430463)
(-0.022438208 -0.0012137495 -0.00027281779)
(-0.020617749 -0.001441606 -0.00029862698)
(-0.018522336 -0.0016242454 -0.00031949558)
(-0.016218806 -0.0017510262 -0.00033463689)
(-0.013785966 -0.0018134016 -0.000343527)
(-0.011311404 -0.0018057117 -0.00034596412)
(-0.0088874032 -0.001725829 -0.00034210913)
(-0.0066061309 -0.0015756059 -0.00033250414)
(-0.004554333 -0.0013611252 -0.00031806688)
(-0.0028076844 -0.0010928587 -0.00030006232)
(-0.0014248687 -0.00078603664 -0.00028005317)
(-0.00044146014 -0.00046158722 -0.00025982386)
(0.0001366905 -0.00014746295 -0.00024127108)
(0.00034278066 0.00011516287 -0.00022638157)
(0.00026833623 0.00026424012 -0.00021723131)
(8.8454654e-05 0.00020175165 -0.00020061157)
(1.4035684e-06 -0.00014198447 -1.8342014e-05)
(-0.00025446282 0.00029986257 -9.6932686e-06)
(-0.0010394884 0.0010154154 2.0071498e-06)
(-0.0023587895 0.0017762835 1.4727749e-05)
(-0.0041835337 0.0024761486 2.7459793e-05)
(-0.0064548129 0.0030655824 3.9081325e-05)
(-0.0090929525 0.0035279661 4.8778058e-05)
(-0.012011402 0.0038642565 5.5995964e-05)
(-0.015124539 0.0040829134 6.0358829e-05)
(-0.018350833 0.0041941577 6.1616229e-05)
(-0.021613587 0.0042069969 5.9601734e-05)
(-0.024840361 0.0041279527 5.4204306e-05)
(-0.027961806 0.0039608871 4.5354416e-05)
(-0.030910526 0.0037075318 3.3023559e-05)
(-0.033620347 0.0033684337 1.7233725e-05)
(-0.036026232 0.0029441128 -1.9249764e-06)
(-0.038064941 0.0024362759 -2.4274767e-05)
(-0.039676422 0.0018489664 -4.95296e-05)
(-0.040805881 0.0011895551 -7.7277875e-05)
(-0.041406379 0.00046948405 -0.00010697138)
(-0.041441742 -0.00029529566 -0.00013792163)
(-0.0408896 -0.0010842164 -0.00016930608)
(-0.039744287 -0.0018725047 -0.00020019293)
(-0.0380193 -0.0026319094 -0.00022957556)
(-0.035749061 -0.0033319103 -0.0002564223)
(-0.032989742 -0.0039413138 -0.0002797383)
(-0.029818921 -0.0044301542 -0.00029863368)
(-0.026333904 -0.0047717775 -0.00031239387)
(-0.022648651 -0.0049449543 -0.00032054644)
(-0.018889317 -0.004935843 -0.00032291539)
(-0.015188532 -0.004739642 -0.00031965663)
(-0.011678636 -0.0043618158 -0.00031127083)
(-0.0084841424 -0.0038188862 -0.00029859188)
(-0.0057136949 -0.0031389403 -0.00028275067)
(-0.0034517594 -0.0023622562 -0.00026511716)
(-0.0017501802 -0.0015427214 -0.00024722276)
(-0.00061980627 -0.00075084099 -0.00023065726)
(-2.1582304e-05 -7.938783e-05 -0.00021699242)
(0.00014795247 0.00034648253 -0.0002078945)
(7.1555063e-05 0.00034669084 -0.00019054815)
(-6.4152063e-05 5.5376714e-05 -3.6188291e-05)
(-0.00060071287 0.0010391972 -2.3689159e-05)
(-0.0019037612 0.0023545675 -9.9528566e-06)
(-0.0038889875 0.0037062609 3.0669299e-06)
(-0.0064901059 0.0049431413 1.535502e-05)
(-0.0096293583 0.0059890768 2.6161931e-05)
(-0.01320867 0.0068146286 3.4954883e-05)
(-0.017122743 0.0074173724 4.1400335e-05)
(-0.021266878 0.0078077031 4.5265613e-05)
(-0.025539935 0.0080000281 4.6383701e-05)
(-0.029845196 0.0080078342 4.4629137e-05)
(-0.034090028 0.0078413863 3.9901886e-05)
(-0.038184967 0.0075072441 3.2122238e-05)
(-0.042042811 0.007009001 2.1235591e-05)
(-0.045578161 0.0063487793 7.2256163e-06)
(-0.048707648 0.0055291239 -9.8654371e-06)
(-0.051350965 0.0045550126 -2.991619e-05)
(-0.053432702 0.0034357603 -5.2704376e-05)
(-0.05488489 0.0021866399 -7.7887429e-05)
(-0.055650099 0.00083007963 -0.0001049888)
(-0.055684846 -0.00060367664 -0.00013339159)
(-0.054963116 -0.0020765554 -0.00016234181)
(-0.053479663 -0.0035433237 -0.00019097157)
(-0.051252778 -0.0049529862 -0.00021832988)
(-0.048326281 -0.006250902 -0.00024342985)
(-0.044770421 -0.0073815444 -0.00026530956)
(-0.04068144 -0.0082917765 -0.00028310012)
(-0.036179603 -0.0089344447 -0.00029609595)
(-0.031405591 -0.0092720404 -0.0003038218)
(-0.026515247 -0.0092801492 -0.00030608696)
(-0.021672758 -0.0089504152 -0.00030302011)
(-0.017042528 -0.0082928168 -0.00029507965)
(-0.012780025 -0.0073371865 -0.00028303726)
(-0.0090220262 -0.0061341172 -0.00026793519)
(-0.0058766846 -0.0047556808 -0.00025101993)
(-0.0034138508 -0.0032967678 -0.00023365991)
(-0.0016557922 -0.0018780551 -0.00021726338)
(-0.00056848358 -0.00065079197 -0.00020320339)
(-5.6011485e-05 0.00019507374 -0.00019268087)
(3.6226799e-05 0.00040211137 -0.00017347491)
(-0.00012907827 0.00044505677 -5.5231306e-05)
(-0.00095619809 0.0022181471 -3.8294301e-05)
(-0.0028013692 0.0043010841 -2.1718589e-05)
(-0.0054754586 0.0063637094 -7.5845448e-06)
(-0.0088630921 0.0082271124 5.0253268e-06)
(-0.012861563 0.0097971787 1.5686983e-05)
(-0.017352549 0.011035566 2.4135148e-05)
(-0.022213198 0.011937715 3.026305e-05)
(-0.027322806 0.012515996 3.3993974e-05)
(-0.032564606 0.012788646 3.5257196e-05)
(-0.037826135 0.01277327 3.3979911e-05)
(-0.042998831 0.012483678 3.0080157e-05)
(-0.047977215 0.011929171 2.3468739e-05)
(-0.052658187 0.011115539 1.4061262e-05)
(-0.056940829 0.010047132 1.7963031e-06)
(-0.060726933 0.0087295282 -1.334151e-05)
(-0.063922353 0.0071723582 -3.1297761e-05)
(-0.066439175 0.0053919816 -5.1921974e-05)
(-0.0681986 0.0034137396 -7.4944975e-05)
(-0.069134366 0.0012735901 -9.9960804e-05)
(-0.069196488 -0.00098104225 -0.00012641628)
(-0.068355072 -0.0032913421 -0.00015361323)
(-0.066603901 -0.0055881268 -0.00018072445)
(-0.063963503 -0.0077939424 -0.00020682415)
(-0.060483394 -0.0098261603 -0.00023093401)
(-0.05624319 -0.011600998 -0.00025208429)
(-0.051352314 -0.013038294 -0.00026938352)
(-0.045948045 -0.014066776 -0.00028209215)
(-0.040191751 -0.01462949 -0.00028969329)
(-0.034263222 -0.014688976 -0.00029195023)
(-0.02835317 -0.014231819 -0.00028894329)
(-0.022654113 -0.013272219 -0.00028108025)
(-0.017349984 -0.0118544 -0.00026907757)
(-0.012605004 -0.010053923 -0.00025391235)
(-0.0085524782 -0.0079782601 -0.00023674769)
(-0.0052842432 -0.0057674446 -0.00021884441)
(-0.0028405903 -0.0035957679 -0.0002014997)
(-0.0012014229 -0.0016743716 -0.00018596647)
(-0.00029180993 -0.00025617621 -0.00017295959)
(-3.5993839e-06 0.00033607124 -0.00015130289)
(-0.0001897573 0.0010214109 -7.3225739e-05)
(-0.0013018115 0.0038407596 -5.1543502e-05)
(-0.0036881756 0.0068662188 -3.1712608e-05)
(-0.0070508856 0.0097591099 -1.594991e-05)
(-0.011219676 0.012330593 -2.4818767e-06)
(-0.016062302 0.014480047 8.5497739e-06)
(-0.021437864 0.016166958 1.7125112e-05)
(-0.027205804 0.017388141 2.3351921e-05)
(-0.033230916 0.018159511 2.7306202e-05)
(-0.03938341 0.018503659 2.9014707e-05)
(-0.045538312 0.018442345 2.8458045e-05)
(-0.051574638 0.017992829 2.5571901e-05)
(-0.05737445 0.017167131 2.0255883e-05)
(-0.06282221 0.015973393 1.2390977e-05)
(-0.067804721 0.014418603 1.8629898e-06)
(-0.072211856 0.012512048 -1.1409478e-05)
(-0.075938124 0.010268974 -2.7447224e-05)
(-0.078885048 0.0077140092 -4.6178423e-05)
(-0.08096424 0.0048840497 -6.7411181e-05)
(-0.082101028 0.0018303146 -9.0810464e-05)
(-0.0822384 -0.0013806117 -0.00011588206)
(-0.081341045 -0.004666917 -0.00014197124)
(-0.079399231 -0.0079329496 -0.00016827412)
(-0.07643223 -0.011071974 -0.00019386573)
(-0.072490975 -0.013970234 -0.0002177453)
(-0.06765963 -0.01651225 -0.00023889906)
(-0.062055751 -0.018587162 -0.00025637351)
(-0.055828717 -0.0200958 -0.00026935466)
(-0.049156175 -0.020958077 -0.00027724484)
(-0.042238331 -0.021120174 -0.00027972713)
(-0.035290081 -0.020560972 -0.00027680796)
(-0.028531141 -0.019297221 -0.00026883101)
(-0.022174582 -0.017387057 -0.00025645867)
(-0.016414392 -0.014931781 -0.00024062089)
(-0.011412999 -0.012076106 -0.00022243316)
(-0.0072897302 -0.0090076205 -0.00020310208)
(-0.0041096345 -0.0059563518 -0.00018388531)
(-0.0018738543 -0.0031940914 -0.00016600433)
(-0.00053571976 -0.0010347413 -0.00014977444)
(-4.1757027e-05 0.00014320854 -0.00012528094)
(-0.00024570952 0.0017753729 -8.8258048e-05)
(-0.0016302957 0.0058958354 -6.1683022e-05)
(-0.0045422734 0.010040364 -3.843867e-05)
(-0.0085773753 0.013882225 -2.0752326e-05)
(-0.013508889 0.017239132 -6.0678778e-06)
(-0.01917256 0.020016153 5.7185952e-06)
(-0.025403321 0.022178821 1.4807435e-05)
(-0.032042578 0.023730407 2.1503299e-05)
(-0.0389415 0.024693227 2.60224e-05)
(-0.045959101 0.025095644 2.8481629e-05)
(-0.052960395 0.024964153 2.8909813e-05)
(-0.059814858 0.024319618 2.7254807e-05)
(-0.06639513 0.02317678 2.3398923e-05)
(-0.072576211 0.021546155 1.7182076e-05)
(-0.078235401 0.019437489 8.4294559e-06)
(-0.083253057 0.01686404 -3.0150855e-06)
(-0.08751423 0.013847063 -1.7255868e-05)
(-0.090911101 0.010419995 -3.4307173e-05)
(-0.093346124 0.0066319517 -5.4059449e-05)
(-0.094735728 0.0025502305 -7.6250866e-05)
(-0.095014405 -0.0017384147 -0.00010044535)
(-0.094138954 -0.0061279084 -0.00012602519)
(-0.092092716 -0.010494499 -0.00015219718)
(-0.088889497 -0.014700073 -0.00017801837)
(-0.084576859 -0.01859709 -0.00020244028)
(-0.079238459 -0.022035103 -0.00022437336)
(-0.072995043 -0.024868678 -0.00024276496)
(-0.066003666 -0.02696638 -0.00025668577)
(-0.058454761 -0.028220354 -0.00026541582)
(-0.05056676 -0.028555828 -0.00026851909)
(-0.042578134 -0.027939838 -0.00026589596)
(-0.03473694 -0.026388389 -0.00025780482)
(-0.027288289 -0.023971432 -0.00024484772)
(-0.020460444 -0.020815283 -0.00022791895)
(-0.014450772 -0.017102493 -0.00020811727)
(-0.0094127696 -0.013069774 -0.00018664532)
(-0.0054431246 -0.0090047917 -0.00016479048)
(-0.0025704038 -0.0052413894 -0.00014382767)
(-0.00078073068 -0.0021544218 -0.00012375722)
(-7.7095132e-05 -0.00017555009 -9.6222318e-05)
(-0.00029733446 0.0026962823 -9.8701089e-05)
(-0.0019391937 0.0083643519 -6.7136094e-05)
(-0.0053526681 0.013801635 -4.0496118e-05)
(-0.010032973 0.0187094 -2.0759294e-05)
(-0.015698216 0.022926516 -4.6478779e-06)
(-0.022151632 0.026375597 8.1619166e-06)
(-0.02920353 0.029036983 1.8067119e-05)
(-0.036677375 0.030926364 2.5550392e-05)
(-0.04441151 0.032076211 3.0953422e-05)
(-0.052255263 0.032522813 3.4470662e-05)
(-0.060065692 0.032298488 3.6168451e-05)
(-0.067705167 0.031428142 3.5998301e-05)
(-0.075039505 0.029929312 3.3817033e-05)
(-0.081936834 0.027814789 2.9414628e-05)
(-0.08826732 0.025096901 2.2546289e-05)
(-0.093903801 0.021792673 1.297152e-05)
(-0.098723313 0.017929148 4.9348912e-07)
(-0.10260943 0.013548338 -1.4997166e-05)
(-0.10545534 0.0087113541 -3.3482137e-05)
(-0.1071675 0.0035014173 -5.4779659e-05)
(-0.10766983 -0.0019745434 -7.8515749e-05)
(-0.10690818 -0.0075858897 -0.00010411015)
(-0.10485495 -0.013179979 -0.00013077499)
(-0.10151371 -0.018585863 -0.00015753767)
(-0.096923382 -0.023619908 -0.00018328286)
(-0.091161703 -0.028093405 -0.00020681809)
(-0.084347433 -0.031822034 -0.00022695628)
(-0.076640844 -0.034636859 -0.00024261096)
(-0.068241886 -0.036396328 -0.00025289399)
(-0.059385554 -0.036998507 -0.00025720436)
(-0.050334152 -0.036392602 -0.0002552953)
(-0.04136642 -0.034588695 -0.00024730863)
(-0.032763865 -0.031664701 -0.00023376961)
(-0.024795115 -0.027769809 -0.00021553957)
(-0.017699774 -0.023124103 -0.0001937245)
(-0.011673303 -0.01801477 -0.00016956837)
(-0.006851406 -0.012789676 -0.00014445342)
(-0.003295975 -0.0078478682 -0.00011978899)
(-0.0010293239 -0.0036283241 -9.5344322e-05)
(-0.00011052896 -0.00061908173 -6.4590784e-05)
(-0.00034498979 0.0037730892 -0.0001031315)
(-0.0022273063 0.011223023 -6.6468026e-05)
(-0.0061126444 0.01812056 -3.6557993e-05)
(-0.011402978 0.024208017 -1.4751985e-05)
(-0.017764271 0.029358178 2.8971838e-06)
(-0.024968284 0.033522225 1.691575e-05)
(-0.032801344 0.036703982 2.7880694e-05)
(-0.041069681 0.038937872 3.6434079e-05)
(-0.049599828 0.040270797 4.3026536e-05)
(-0.058232859 0.040749647 4.7916015e-05)
(-0.066819724 0.040414064 5.1194456e-05)
(-0.075217833 0.039293685 5.2806217e-05)
(-0.083288482 0.037408999 5.2572207e-05)
(-0.090895211 0.034774863 5.0222002e-05)
(-0.097903152 0.031405725 4.5430767e-05)
(-0.10417935 0.0273217 3.7863146e-05)
(-0.10959402 0.02255476 2.7218276e-05)
(-0.1140226 0.017154467 1.3279597e-05)
(-0.11734864 0.0111928 -4.0387467e-06)
(-0.11946732 0.004767755 -2.4647704e-05)
(-0.12028965 -0.0019945745 -4.8245861e-05)
(-0.11974712 -0.0089396718 -7.4298485e-05)
(-0.11779686 -0.015886047 -0.000102026)
(-0.11442708 -0.022629095 -0.00013042266)
(-0.10966236 -0.028947107 -0.00015829382)
(-0.10356858 -0.034609761 -0.00018432095)
(-0.096256803 -0.039389017 -0.00020714857)
(-0.087885547 -0.043072177 -0.00022548877)
(-0.078660574 -0.045476567 -0.00023823335)
(-0.068831535 -0.046464974 -0.00024456087)
(-0.058684881 -0.045960621 -0.00024402398)
(-0.048532784 -0.043960266 -0.00023660331)
(-0.038698306 -0.040543931 -0.00022271808)
(-0.029497653 -0.035880004 -0.00020318826)
(-0.021221261 -0.030224984 -0.00017914271)
(-0.014115599 -0.023917999 -0.00015190628)
(-0.0083637576 -0.017370854 -0.00012301783)
(-0.0040673873 -0.011053271 -9.4099464e-05)
(-0.0012887124 -0.0054750704 -6.4757975e-05)
(-0.00014364472 -0.0011892703 -3.0518065e-05)
(-0.00038877933 0.0049944771 -0.00010026833)
(-0.0024933404 0.014445545 -5.8361491e-05)
(-0.0068165658 0.022961915 -2.5373037e-05)
(-0.012675235 0.030338057 -1.5481108e-06)
(-0.019687292 0.036491829 1.7686167e-05)
(-0.02759515 0.041413012 3.3047164e-05)
(-0.036162689 0.045137147 4.5278273e-05)
(-0.045180183 0.04772369 5.5164425e-05)
(-0.054463656 0.049238475 6.3249934e-05)
(-0.063847428 0.049741977 6.9842519e-05)
(-0.073178101 0.049282956 7.5047345e-05)
(-0.082310107 0.047896678 7.8789922e-05)
(-0.091102333 0.045606801 8.0844221e-05)
(-0.099415839 0.042429949 8.0868595e-05)
(-0.10711267 0.038381955 7.8447173e-05)
(-0.11405571 0.033484908 7.313787e-05)
(-0.12010946 0.027774238 6.4521747e-05)
(-0.1251417 0.02130527 5.2258683e-05)
(-0.129026 0.014158825 3.6140942e-05)
(-0.13164498 0.0064455345 1.614633e-05)
(-0.13289449 -0.0016913828 -7.5145607e-06)
(-0.13268828 -0.010075213 -3.4373026e-05)
(-0.13096383 -0.018496603 -6.3667336e-05)
(-0.12768868 -0.026717214 -9.4364927e-05)
(-0.12286701 -0.03447574 -0.00012518744)
(-0.11654633 -0.041496953 -0.00015467266)
(-0.10882353 -0.047503839 -0.00018126448)
(-0.099849445 -0.052232698 -0.00020342673)
(-0.089830884 -0.055450743 -0.00021977174)
(-0.079029263 -0.056975251 -0.00022919002)
(-0.067754722 -0.056692817 -0.00023096462)
(-0.056355258 -0.05457684 -0.00022485285)
(-0.045200804 -0.050701132 -0.00021112159)
(-0.034663065 -0.045247696 -0.00019052632)
(-0.025093092 -0.038507304 -0.00016422314)
(-0.016798913 -0.03087259 -0.00013365023)
(-0.010020921 -0.022824365 -0.00010056202)
(-0.0049083718 -0.014911021 -6.6870774e-05)
(-0.0015687565 -0.0077235149 -3.2073085e-05)
(-0.00017842221 -0.0018930668 6.0523333e-06)
(-0.00042855606 0.0063485053 -8.8939938e-05)
(-0.0027354979 0.018002743 -4.1606386e-05)
(-0.0074585228 0.028285372 -5.7772102e-06)
(-0.013837848 0.037052795 1.9973306e-05)
(-0.021448231 0.044277744 4.0801762e-05)
(-0.030005585 0.049997583 5.7609181e-05)
(-0.0392535 0.054287193 7.1294006e-05)
(-0.048968027 0.057237106 8.2770103e-05)
(-0.058956229 0.058936593 9.266206e-05)
(-0.069047264 0.059462852 0.000101315)
(-0.079085115 0.058875748 0.00010883562)
(-0.088923134 0.057217221 0.0001151195)
(-0.098419808 0.05451438 0.00011988322)
(-0.10743575 0.050785245 0.00012270378)
(-0.11583183 0.046046083 0.0001230628)
(-0.12346843 0.040319458 0.00012039768)
(-0.13020559 0.033642242 0.00011415495)
(-0.13590414 0.026073039 0.00010385099)
(-0.1404276 0.017698636 8.9132834e-05)
(-0.14364515 0.0086391879 6.9841187e-05)
(-0.14543558 -0.00094806658 4.6069392e-05)
(-0.14569196 -0.010866745 1.8183765e-05)
(-0.14432799 -0.020881912 -1.3087552e-05)
(-0.14128533 -0.030722322 -4.6704232e-05)
(-0.13654149 -0.04008624 -8.1310376e-05)
(-0.1301186 -0.048650612 -0.00011529053)
(-0.12209194 -0.056084063 -0.0001468597)
(-0.11259739 -0.062063895 -0.00017418515)
(-0.10183647 -0.066296743 -0.00019553256)
(-0.090077732 -0.068541959 -0.00020942284)
(-0.077652951 -0.068636069 -0.00021478118)
(-0.064947134 -0.066515934 -0.00021105707)
(-0.052381845 -0.062237748 -0.00019829575)
(-0.040392459 -0.055988982 -0.00017714452)
(-0.029401493 -0.048090954 -0.00014877545)
(-0.01979081 -0.038991097 -0.00011476278)
(-0.011870168 -0.029245473 -7.7132476e-05)
(-0.005846518 -0.019491618 -3.8165777e-05)
(-0.0018806535 -0.010415326 2.7135084e-06)
(-0.00021697038 -0.0027431434 4.5288163e-05)
(-0.00046397649 0.0078222033 -6.8079698e-05)
(-0.0029514385 0.021862321 -1.5103962e-05)
(-0.0080319115 0.034045592 2.3293545e-05)
(-0.014878305 0.044299044 5.0850015e-05)
(-0.023027507 0.052658831 7.3261299e-05)
(-0.03217222 0.059217837 9.1605611e-05)
(-0.042038286 0.064097179 0.00010692702)
(-0.052389548 0.067424112 0.00012025662)
(-0.06302582 0.069315714 0.00013228791)
(-0.073772731 0.069869079 0.00014339279)
(-0.08447336 0.069157286 0.00015366967)
(-0.094981817 0.067230119 0.00016297524)
(-0.10515815 0.064118494 0.00017096011)
(-0.11486454 0.05984143 0.00017711054)
(-0.12396267 0.054414533 0.00018079447)
(-0.13231226 0.047859062 0.00018131414)
(-0.13977045 0.04021088 0.00017796276)
(-0.14619218 0.031528798 0.0001700898)
(-0.15143153 0.021901969 0.0001571683)
(-0.155344 0.011456107 0.00013886455)
(-0.15778996 0.00035837099 0.00011510497)
(-0.1586398 -0.011179283 8.6162053e-05)
(-0.15778015 -0.022899385 5.2644745e-05)
(-0.15512178 -0.034499863 1.558029e-05)
(-0.1506094 -0.045638858 -2.3614817e-05)
(-0.14423238 -0.055943385 -6.3173849e-05)
(-0.13603601 -0.065022686 -0.00010106226)
(-0.12613242 -0.072486762 -0.00013510392)
(-0.11470943 -0.077970047 -0.00016314456)
(-0.10203566 -0.081159444 -0.00018323939)
(-0.088459986 -0.081824953 -0.00019384513)
(-0.074403469 -0.07985003 -0.0001939908)
(-0.060342643 -0.075257939 -0.0001834004)
(-0.046784341 -0.068229938 -0.00016254111)
(-0.034234198 -0.059111647 -0.00013256711)
(-0.0231621 -0.048405598 -9.5197231e-05)
(-0.013961905 -0.036750069 -5.2781037e-05)
(-0.0069113909 -0.024884471 -8.0513353e-06)
(-0.0022362592 -0.013606394 3.9614587e-05)
(-0.00026143684 -0.0037583365 8.7387242e-05)
(-0.00049456533 0.0094012509 -3.6735297e-05)
(-0.0031384157 0.025988536 2.2121332e-05)
(-0.008529531 0.040192092 6.2787814e-05)
(-0.015783456 0.052017127 9.2014954e-05)
(-0.024404881 0.061570509 0.00011598833)
(-0.034066793 0.069007488 0.00013595695)
(-0.044480019 0.074501521 0.00015310252)
(-0.055398321 0.078221744 0.00016856282)
(-0.06661601 0.080317196 0.00018309086)
(-0.077956814 0.080908013 0.00019707737)
(-0.089264565 0.080082671 0.00021060562)
(-0.10039591 0.077900101 0.00022348747)
(-0.11121439 0.07439548 0.00023530146)
(-0.1215858 0.069588487 0.00024543558)
(-0.13137478 0.063492925 0.00025313378)
(-0.14044244 0.05612681 0.00025754885)
(-0.14864498 0.047522267 0.00025780097)
(-0.15583322 0.037734814 0.00025304611)
(-0.16185306 0.026851775 0.00024254934)
(-0.16654705 0.014999697 0.00022576384)
(-0.16975731 0.0023505893 0.00020241159)
(-0.17133027 -0.010873312 0.00017257258)
(-0.171123 -0.024396373 0.00013672829)
(-0.16901166 -0.037889283 9.583367e-05)
(-0.16490254 -0.050971898 5.1325475e-05)
(-0.15874473 -0.063220613 5.1026077e-06)
(-0.15054447 -0.074181298 -4.0543496e-05)
(-0.14037974 -0.083388725 -8.3053497e-05)
(-0.12841384 -0.090392925 -0.0001197777)
(-0.1149054 -0.09479205 -0.00014819652)
(-0.10021248 -0.096270042 -0.00016616337)
(-0.084787989 -0.094635892 -0.00017214064)
(-0.069164264 -0.089859754 -0.0001653926)
(-0.053926119 -0.082100194 -0.00014609576)
(-0.039674263 -0.07171703 -0.00011532022)
(-0.026982676 -0.059266024 -7.4916602e-05)
(-0.016347188 -0.045474563 -2.7603242e-05)
(-0.0081333308 -0.031198549 2.3347209e-05)
(-0.0026477498 -0.017367482 7.8584414e-05)
(-0.00031399625 -0.0049638406 0.00013250165)
(-0.00051978026 0.011069788 5.9137552e-06)
(-0.0032935112 0.030342008 7.090492e-05)
(-0.0089440056 0.046669172 0.00011351883)
(-0.016540082 0.060140867 0.00014427194)
(-0.025560126 0.070940594 0.00016978332)
(-0.035660955 0.079291665 0.00019146564)
(-0.046541103 0.08542512 0.0002106304)
(-0.057946344 0.089556611 0.00022851269)
(-0.069667167 0.091871022 0.00024591819)
(-0.081526925 0.092514616 0.00026325166)
(-0.093371758 0.091593532 0.00028057809)
(-0.10506256 0.089177286 0.00029766206)
(-0.11646823 0.085305944 0.00031400713)
(-0.1274603 0.079999635 0.00032889832)
(-0.13790859 0.073269307 0.00034144755)
(-0.14767806 0.065127803 0.00035064519)
(-0.15662643 0.055600684 0.00035541894)
(-0.16460281 0.044736448 0.00035470337)
(-0.17144718 0.032616005 0.00034751782)
(-0.1769911 0.019361368 0.00033305437)
(-0.18105979 0.0051434608 0.0003107723)
(-0.18347613 -0.0098111914 0.00028049797)
(-0.18406679 -0.02521509 0.00024251039)
(-0.18267087 -0.040716994 0.00019762423)
(-0.17915163 -0.055902283 0.00014723662)
(-0.17341099 -0.070298111 9.3336675e-05)
(-0.16540663 -0.083384875 3.8459219e-05)
(-0.15517076 -0.094615514 -1.442833e-05)
(-0.14282886 -0.10344377 -6.2110632e-05)
(-0.12861599 -0.10936164 -0.00010137604)
(-0.11288729 -0.11194464 -0.00012931667)
(-0.096118909 -0.11090168 -0.00014364436)
(-0.07889596 -0.10612376 -0.00014297725)
(-0.061885238 -0.097723941 -0.00012703952)
(-0.045793903 -0.086060448 -9.6705234e-05)
(-0.031317683 -0.071736548 -5.3911537e-05)
(-0.019075671 -0.055574328 -1.777831e-06)
(-0.0095426119 -0.03856207 5.5789394e-05)
(-0.0031274503 -0.021784375 0.00011944927)
(-0.00037686927 -0.0063912958 0.00018066439)
(-0.00053908044 0.012810386 6.0534278e-05)
(-0.0034139368 0.034879783 0.000131922)
(-0.0092684252 0.053416099 0.0001761436)
(-0.017135861 0.068597798 0.00020827161)
(-0.026474308 0.080689399 0.00023529475)
(-0.036927829 0.089986725 0.00025878063)
(-0.04818524 0.096782758 0.00028016251)
(-0.059986251 0.10134373 0.00030076509)
(-0.072119038 0.10389398 0.00032144267)
(-0.084407936 0.10460892 0.00034261304)
(-0.096702803 0.10361472 0.00036432369)
(-0.10887034 0.10099309 0.00038629351)
(-0.12078666 0.096789857 0.0004079521)
(-0.13233111 0.091025631 0.0004284805)
(-0.14338114 0.083707678 0.00044685417)
(-0.15380825 0.074841931 0.00046189114)
(-0.1634747 0.064444683 0.00047230899)
(-0.17223105 0.05255371 0.00047679345)
(-0.17991472 0.039238803 0.00047407926)
(-0.18634948 0.024611754 0.00046304536)
(-0.1913466 0.0088358489 0.00044282252)
(-0.19470772 -0.0078653017 0.0004129106)
(-0.19623026 -0.025199896 0.00037329581)
(-0.1957157 -0.04280207 0.00032456288)
(-0.19298146 -0.060228998 0.00026798321)
(-0.18787653 -0.076962761 0.00020556474)
(-0.18030103 -0.092419042 0.0001400425)
(-0.17022891 -0.10596485 7.479109e-05)
(-0.15773246 -0.11694734 1.3645348e-05)
(-0.143006 -0.12473492 -3.9375342e-05)
(-0.12638467 -0.12877021 -8.0425949e-05)
(-0.10835367 -0.12863187 -0.00010624557)
(-0.089542404 -0.12409892 -0.00011456387)
(-0.070699456 -0.115208 -0.00010442582)
(-0.05264785 -0.10229201 -7.6334313e-05)
(-0.036223549 -0.085989804 -3.2219165e-05)
(-0.022193642 -0.067220614 2.4390554e-05)
(-0.011168733 -0.047121282 8.8858065e-05)
(-0.0036877386 -0.026957643 0.00016183297)
(-0.00045235563 -0.0080788388 0.00023171291)
(-0.00055200217 0.014604193 0.00012761534)
(-0.0034973906 0.039555752 0.00020566639)
(-0.0094971455 0.060367689 0.00025114283)
(-0.017560646 0.077309773 0.00028448881)
(-0.027131507 0.090730208 0.00031299134)
(-0.037844176 0.10100045 0.00033836257)
(-0.049380034 0.10847887 0.00036214993)
(-0.06147438 0.11348577 0.00038576228)
(-0.073914335 0.11628831 0.00041010169)
(-0.086526355 0.11709404 0.00043560186)
(-0.099165227 0.1160516 0.00046229789)
(-0.11170489 0.1132568 0.00048986885)
(-0.12403038 0.10876236 0.00051767611)
(-0.13603098 0.10258978 0.00054480054)
(-0.14759428 0.094742181 0.00057008133)
(-0.15860132 0.085217223 0.00059215853)
(-0.1689223 0.074019588 0.00060952581)
(-0.17841324 0.061172932 0.00062059566)
(-0.18691325 0.046731393 0.00062378089)
(-0.194243 0.030790842 0.000617595)
(-0.20020437 0.013500035 0.00060077123)
(-0.20458213 -0.0049283407 0.0005723986)
(-0.20714795 -0.024207044 0.00053206958)
(-0.20766763 -0.043964908 0.00048002811)
(-0.20591234 -0.06373992 0.00041730554)
(-0.20167455 -0.082976683 0.00034582267)
(-0.19478911 -0.10103078 0.00026843281)
(-0.18515949 -0.11718307 0.00018887845)
(-0.17278802 -0.13066698 0.00011163614)
(-0.15780773 -0.14071158 4.1631891e-05)
(-0.14051159 -0.14660127 -1.6170683e-05)
(-0.12137292 -0.1477503 -5.72826e-05)
(-0.10104977 -0.14378561 -7.8242751e-05)
(-0.080365955 -0.13462667 -7.7110754e-05)
(-0.060265822 -0.12054661 -5.3759343e-05)
(-0.041743503 -0.10219862 -9.9462502e-06)
(-0.02574184 -0.080595751 5.0422519e-05)
(-0.013039673 -0.057038287 0.00012188899)
(-0.0043409597 -0.033002038 0.00020507196)
(-0.00054287244 -0.010071139 0.00028520301)
(-0.00055823858 0.016431284 0.00020744704)
(-0.0035424529 0.044321487 0.00029243376)
(-0.0096267118 0.067455404 0.00033880497)
(-0.017807972 0.086194105 0.00037320399)
(-0.027520911 0.10097027 0.00040313866)
(-0.038393046 0.11223276 0.00043045384)
(-0.0501002 0.12040784 0.00045680495)
(-0.062374557 0.1258729 0.00048368224)
(-0.075003153 0.12894101 0.00051203846)
(-0.087815458 0.12985484 0.00054233027)
(-0.1006722 0.12878818 0.00057459001)
(-0.1134558 0.12585306 0.00060846791)
(-0.12606185 0.12111061 0.00064326785)
(-0.13839157 0.11458405 0.00067797979)
(-0.15034531 0.10627244 0.00071131227)
(-0.16181674 0.096164338 0.00074172734)
(-0.17268789 0.08425106 0.00076748661)
(-0.18282468 0.070539311 0.00078671046)
(-0.1920732 0.055063556 0.0007974575)
(-0.20025678 0.037898381 0.00079782714)
(-0.20717429 0.019171183 0.00078608739)
(-0.21260001 -0.00092467594 0.00076082853)
(-0.21628586 -0.022116417 0.00072113979)
(-0.21796682 -0.044038739 0.00066679631)
(-0.21737052 -0.066222289 0.00059844858)
(-0.21423232 -0.088085628 0.00051778759)
(-0.20831675 -0.10893362 0.00042765704)
(-0.19944609 -0.127966 0.00033207663)
(-0.18753579 -0.14430046 0.0002361371)
(-0.17263478 -0.15701475 0.00014573188)
(-0.15496667 -0.16521101 6.7109821e-05)
(-0.1349647 -0.16810234 6.2619924e-06)
(-0.11329097 -0.16511641 -3.1800726e-05)
(-0.090829219 -0.15600346 -4.3757036e-05)
(-0.068643816 -0.14092861 -2.8483849e-05)
(-0.04790225 -0.12052491 1.2697513e-05)
(-0.029752837 -0.095886334 7.5604588e-05)
(-0.015180973 -0.068487747 0.00015388818)
(-0.0050993028 -0.040045461 0.0002481154)
(-0.00065099085 -0.012419404 0.00034030731)
(-0.00055772183 0.018271228 0.00030010284)
(-0.0035490133 0.049127561 0.00039230946)
(-0.0096568806 0.074609053 0.00043921559)
(-0.017876752 0.095165337 0.00047449054)
(-0.027639179 0.11131242 0.00050578169)
(-0.038566798 0.12357698 0.00053505446)
(-0.050331215 0.1324549 0.00056406827)
(-0.062662406 0.13838319 0.00059439538)
(-0.075347991 0.14172379 0.00062704666)
(-0.08822113 0.14275755 0.00066251385)
(-0.10114932 0.14168621 0.00070084125)
(-0.11402459 0.13864048 0.00074166641)
(-0.12675456 0.13369189 0.00078425188)
(-0.13925437 0.1268667 0.00082751138)
(-0.1514396 0.11816053 0.00087003426)
(-0.16321984 0.10755278 0.00091011088)