/*--------------------------------*- C++ -*----------------------------------*\
  =========                 |
  \\      /  F ield         | OpenFOAM: The Open Source CFD Toolbox
   \\    /   O peration     | Website:  https://openfoam.org
    \\  /    A nd           | Version:  7
     \\/     M anipulation  |
\*---------------------------------------------------------------------------*/
FoamFile
{
    version     2.0;
    format      ascii;
    class       volVectorField;
    location    "9";
    object      U_0;
}
// * * * * * * * * * * * * * * * * * * * * * * * * * * * * * * * * * * * * * //

dimensions      [0 1 -1 0 0 0 0];

internalField   nonuniform List<vector> 
16000
(
(6.5408675e-05 -6.5391876e-05 5.0480483e-07)
(0.00015988121 -5.4488165e-05 6.9372485e-06)
(0.00013693334 1.4255646e-06 2.0412486e-05)
(-5.4772589e-05 6.1754553e-05 3.764013e-05)
(-0.00041034255 0.00011453562 5.5443305e-05)
(-0.0009030408 0.00015588286 7.1917288e-05)
(-0.0015033674 0.00018607835 8.5759245e-05)
(-0.0021826998 0.00020678322 9.6171643e-05)
(-0.0029155442 0.00021978438 0.00010270685)
(-0.0036798918 0.00022655519 0.00010512686)
(-0.0044566483 0.000228138 0.00010331129)
(-0.0052287641 0.00022515477 9.7203294e-05)
(-0.0059803595 0.00021786328 8.6784309e-05)
(-0.0066959959 0.00020624427 7.2070507e-05)
(-0.007360168 0.00019010905 5.312673e-05)
(-0.0079570595 0.0001692091 3.0087704e-05)
(-0.0084705944 0.00014333874 3.1855103e-06)
(-0.0088847671 0.00011243263 -2.7223958e-05)
(-0.0091842138 7.6651961e-05 -6.0637291e-05)
(-0.0093549999 3.6458378e-05 -9.638645e-05)
(-0.0093855601 -7.3375087e-06 -0.00013363566)
(-0.0092677043 -5.3571251e-05 -0.00017139042)
(-0.0089976392 -0.00010069969 -0.00020852338)
(-0.0085768922 -0.00014687009 -0.0002438178)
(-0.0080130189 -0.00018999546 -0.00027602509)
(-0.0073200259 -0.00022787208 -0.00030393537)
(-0.0065184167 -0.00025832613 -0.00032645744)
(-0.0056347888 -0.00027937652 -0.00034270222)
(-0.0047009569 -0.00028940229 -0.00035205939)
(-0.0037526308 -0.00028729274 -0.00035426344)
(-0.0028277022 -0.00027256234 -0.00034944278)
(-0.0019642458 -0.00024541764 -0.00033814588)
(-0.0011983493 -0.0002067759 -0.00032134355)
(-0.00056181088 -0.00015826963 -0.00030041114)
(-7.9733358e-05 -0.0001023574 -0.00027708651)
(0.00023133142 -4.2616131e-05 -0.00025338512)
(0.00036737992 1.62624e-05 -0.00023166805)
(0.00034205807 6.5128063e-05 -0.00021433637)
(0.00020280885 8.8167182e-05 -0.00020403934)
(5.6823243e-05 5.6765252e-05 -0.00018921712)
(5.668076e-05 -0.00016201363 -5.246032e-06)
(3.7829169e-05 -3.5736355e-05 1.1802363e-06)
(-0.0002962315 0.00024848143 1.2751089e-05)
(-0.0010044472 0.00055671875 2.6936141e-05)
(-0.0020784113 0.00083706964 4.1656089e-05)
(-0.0034732221 0.0010684576 5.5348934e-05)
(-0.0051289939 0.0012463347 6.6912112e-05)
(-0.0069824675 0.0013736975 7.5607034e-05)
(-0.0089729707 0.001455987 8.09651e-05)
(-0.011044581 0.0014986417 8.2697144e-05)
(-0.013146165 0.0015060259 8.0626914e-05)
(-0.015230423 0.0014810661 7.4651071e-05)
(-0.017252602 0.0014252906 6.4718336e-05)
(-0.019169299 0.0013391328 5.0824387e-05)
(-0.020937628 0.0012223791 3.3022445e-05)
(-0.022514926 0.0010746772 1.1439348e-05)
(-0.02385906 0.00089604949 -1.370307e-05)
(-0.024929316 0.00068738292 -4.2065943e-05)
(-0.025687817 0.00045085522 -7.3173832e-05)
(-0.02610138 0.00019026716 -0.00010640011)
(-0.02614369 -8.875359e-05 -0.00014096557)
(-0.02579752 -0.00037867339 -0.00017595319)
(-0.02505695 -0.00067017724 -0.00021032385)
(-0.023929331 -0.00095244652 -0.0002429636)
(-0.022436676 -0.001213627 -0.00027273545)
(-0.020616398 -0.0014414679 -0.00029854514)
(-0.018521183 -0.0016240974 -0.0003194146)
(-0.01621786 -0.0017508747 -0.00033455795)
(-0.013785227 -0.0018132532 -0.00034345164)
(-0.011310864 -0.001805573 -0.00034589317)
(-0.0088870439 -0.0017257062 -0.00034204274)
(-0.0066059293 -0.0015755042 -0.00033244218)
(-0.0045542597 -0.0013610486 -0.00031800921)
(-0.0028077061 -0.0010928096 -0.00030000867)
(-0.0014249502 -0.00078601579 -0.00028000303)
(-0.0004415671 -0.00046159318 -0.00025977656)
(0.00013658832 -0.00014749008 -0.00024122588)
(0.00034270617 0.00011512412 -0.00022633748)
(0.00026829882 0.00026420334 -0.00021718727)
(8.844534e-05 0.00020173458 -0.00020057022)
(1.1889323e-06 -0.00014300285 -1.8569352e-05)
(-0.00025493161 0.00029903836 -9.8803308e-06)
(-0.0010399675 0.0010148347 1.8895054e-06)
(-0.0023591144 0.0017758304 1.4672573e-05)
(-0.0041836283 0.0024757521 2.7457467e-05)
(-0.0064546517 0.0030651983 3.9118778e-05)
(-0.0090925128 0.0035275764 4.8842499e-05)
(-0.012010658 0.0038638664 5.607809e-05)
(-0.015123481 0.0040825261 6.0453413e-05)
(-0.018349465 0.0041937711 6.1719346e-05)
(-0.021611917 0.004206614 5.9709746e-05)
(-0.024838397 0.0041275827 5.431372e-05)
(-0.027959562 0.0039605382 4.5462057e-05)
(-0.030908023 0.0037072112 3.312734e-05)
(-0.033617611 0.00336815 1.7333951e-05)
(-0.036023299 0.0029438748 -1.8270829e-06)
(-0.038061851 0.0024360903 -2.4178142e-05)
(-0.039673224 0.0018488394 -4.9434512e-05)
(-0.040802623 0.0011894932 -7.7185741e-05)
(-0.04140311 0.00046949292 -0.00010688215)
(-0.041438517 -0.00029521248 -0.00013783515)
(-0.040886473 -0.0010840598 -0.00016922218)
(-0.039741312 -0.001872279 -0.00020011056)
(-0.038016526 -0.0026316208 -0.00022949385)
(-0.035746531 -0.0033315688 -0.00025634118)
(-0.032987491 -0.0039409319 -0.0002796577)
(-0.029816972 -0.0044297463 -0.00029855384)
(-0.02633227 -0.00477136 -0.00031231626)
(-0.022647333 -0.0049445443 -0.00032047268)
(-0.018888303 -0.0049354576 -0.00032284602)
(-0.015187799 -0.0047392968 -0.00031959134)
(-0.011678154 -0.0043615244 -0.00031120947)
(-0.0084838691 -0.0038186589 -0.00029853458)
(-0.005713584 -0.0031387835 -0.00028269724)
(-0.0034517617 -0.002362171 -0.00026506702)
(-0.0017502469 -0.0015427032 -0.00024717521)
(-0.00061989311 -0.00075087783 -0.00023061153)
(-2.1654775e-05 -7.9459447e-05 -0.00021694763)
(0.00014791276 0.00034640603 -0.00020784968)
(7.1544437e-05 0.00034664983 -0.00019050599)
(-6.426059e-05 5.4711673e-05 -3.6300816e-05)
(-0.00060094458 0.001038502 -2.3781876e-05)
(-0.0019039584 0.0023539421 -1.0004714e-05)
(-0.0038890142 0.0037056575 3.057724e-06)
(-0.0064898793 0.0049425169 1.5383628e-05)
(-0.0096288242 0.0059884145 2.6218731e-05)
(-0.013207778 0.006813937 3.5031959e-05)
(-0.017121461 0.0074166614 4.1492103e-05)
(-0.021265197 0.007806978 4.5368514e-05)
(-0.025537856 0.0079992983 4.6493613e-05)
(-0.029842722 0.0080071144 4.4741948e-05)
(-0.034087171 0.0078406918 4.0014448e-05)
(-0.038181748 0.0075065903 3.223187e-05)
(-0.04203926 0.0070084041 2.1341015e-05)
(-0.045574315 0.0063482557 7.328062e-06)
(-0.048703555 0.0055286879 -9.7648987e-06)
(-0.051346681 0.0045546777 -2.9817391e-05)
(-0.053428286 0.0034355385 -5.2608151e-05)
(-0.054880406 0.0021865434 -7.7794805e-05)
(-0.055645612 0.00083011672 -0.00010489946)
(-0.055680426 -0.00060350279 -0.00013330526)
(-0.054958833 -0.0020762467 -0.00016225838)
(-0.053475583 -0.003542888 -0.00019089002)
(-0.051248961 -0.0049524365 -0.00021824878)
(-0.048322782 -0.0062502557 -0.000243349)
(-0.044767283 -0.0073808241 -0.00026522932)
(-0.040678692 -0.0082910088 -0.00028302097)
(-0.036177261 -0.0089336588 -0.00029601916)
(-0.031403659 -0.0092712667 -0.00030374861)
(-0.026513712 -0.0092794178 -0.00030601794)
(-0.021671596 -0.0089497542 -0.00030295507)
(-0.0170417 -0.0082922507 -0.00029501832)
(-0.012779484 -0.007336734 -0.00028297965)
(-0.0090217167 -0.0061337898 -0.00026788118)
(-0.0058765477 -0.004755481 -0.00025096906)
(-0.003413827 -0.0032966877 -0.00023361161)
(-0.0016558267 -0.0018780751 -0.0002172169)
(-0.00056853067 -0.00065087959 -0.00020315792)
(-5.6042678e-05 0.00019496545 -0.00019263546)
(3.6217322e-05 0.00040204823 -0.00017343231)
(-0.00012913262 0.00044454879 -5.5265289e-05)
(-0.00095628086 0.0022175151 -3.8315787e-05)
(-0.0028013453 0.0043003788 -2.1714517e-05)
(-0.0054752174 0.0063629044 -7.5523809e-06)
(-0.0088625424 0.0082261999 5.0819503e-06)
(-0.012860629 0.0097961759 1.5762054e-05)
(-0.017351174 0.011034494 2.4225736e-05)
(-0.022211356 0.011936593 3.0365504e-05)
(-0.027320485 0.012514843 3.4104843e-05)
(-0.032561801 0.012787486 3.5373226e-05)
(-0.037822853 0.012772129 3.4096995e-05)
(-0.042995089 0.012482581 3.01949e-05)
(-0.047973039 0.011928143 2.3579762e-05)
(-0.052653615 0.011114606 1.4168794e-05)
(-0.056935912 0.010046319 1.9013834e-06)
(-0.06072173 0.0087288559 -1.3238863e-05)
(-0.063916931 0.0071718489 -3.1197539e-05)
(-0.066433606 0.0053916546 -5.1825047e-05)
(-0.068192958 0.0034136113 -7.4852139e-05)
(-0.06912873 0.0012736714 -9.9871683e-05)
(-0.069190941 -0.00098074852 -0.0001263307)
(-0.068349694 -0.0032908408 -0.00015353063)
(-0.06659877 -0.0055874301 -0.00018064356)
(-0.06395869 -0.0077930702 -0.00020674363)
(-0.060478959 -0.00982514 -0.00023085377)
(-0.056239183 -0.011599864 -0.00025200459)
(-0.05134877 -0.013037085 -0.0002693049)
(-0.045944987 -0.014065538 -0.00028201592)
(-0.040189184 -0.014628267 -0.0002896206)
(-0.034261134 -0.014687814 -0.00029188138)
(-0.028351537 -0.01423076 -0.00028887796)
(-0.022652895 -0.0132713 -0.0002810183)
(-0.01734913 -0.01185365 -0.00026901914)
(-0.012604452 -0.010053359 -0.00025385746)
(-0.0085521626 -0.0079778885 -0.000236696)
(-0.0052840961 -0.005767255 -0.0002187953)
(-0.0028405477 -0.0035957332 -0.00020145231)
(-0.0012014302 -0.001674447 -0.00018592013)
(-0.00029182613 -0.00025629782 -0.00017291379)
(-3.6056444e-06 0.0003359931 -0.00015126001)
(-0.00018977813 0.0010209783 -7.3203901e-05)
(-0.0013017917 0.0038401007 -5.151061e-05)
(-0.0036879814 0.0068653486 -3.1664373e-05)
(-0.0070504035 0.0097580272 -1.5885667e-05)
(-0.011218805 0.012329324 -2.4023384e-06)
(-0.016060965 0.014478629 8.6422269e-06)
(-0.021436012 0.016165422 1.7228968e-05)
(-0.027203407 0.017386522 2.3465148e-05)
(-0.033227962 0.018157847 2.7425169e-05)
(-0.039379893 0.018501989 2.9135798e-05)
(-0.045534243 0.018440706 2.8577946e-05)
(-0.05157004 0.017991259 2.5688518e-05)
(-0.057369359 0.017165667 2.0368609e-05)
(-0.062816671 0.015972071 1.2500423e-05)
(-0.067798795 0.014417456 1.9701263e-06)
(-0.072205614 0.012511109 -1.1305419e-05)
(-0.07593164 0.01026827 -2.7346428e-05)
(-0.078878404 0.0077135695 -4.6081761e-05)
(-0.080957521 0.0048838939 -6.7319332e-05)
(-0.082094323 0.0018304545 -9.0722535e-05)
(-0.082231802 -0.0013801736 -0.00011579777)
(-0.081334644 -0.0046661886 -0.00014189018)
(-0.079393111 -0.0079319485 -0.00016819467)
(-0.076426469 -0.011070728 -0.00019378629)
(-0.072485642 -0.013968781 -0.00021766586)
(-0.067654781 -0.016510637 -0.00023882013)
(-0.062051427 -0.018585444 -0.00025629579)
(-0.055824944 -0.020094036 -0.00026927916)
(-0.049152963 -0.020956329 -0.00027717239)
(-0.042235673 -0.021118502 -0.00027965794)
(-0.035287952 -0.020559436 -0.00027674185)
(-0.028529503 -0.019295872 -0.00026876802)
(-0.022173384 -0.017385935 -0.0002563991)
(-0.016413569 -0.014930912 -0.00024056491)
(-0.011412479 -0.0120755 -0.0002223805)
(-0.0072894391 -0.0090072662 -0.00020305205)
(-0.0041095 -0.0059562171 -0.00018383695)
(-0.0018738126 -0.0031941202 -0.00016595712)
(-0.00053571796 -0.0010348529 -0.00014972825)
(-4.1760291e-05 0.00014312395 -0.00012523806)
(-0.00024570999 0.0017749563 -8.8196097e-05)
(-0.0016302066 0.0058950607 -6.161133e-05)
(-0.0045419389 0.010039246 -3.8358971e-05)
(-0.0085766691 0.013880793 -2.0663833e-05)
(-0.013507712 0.017237432 -5.9696658e-06)
(-0.019170842 0.020014233 5.8267464e-06)
(-0.025401016 0.022176735 1.4923972e-05)
(-0.032039654 0.02372821 2.1625748e-05)
(-0.038937942 0.024690975 2.6147723e-05)
(-0.045954912 0.025093391 2.8606625e-05)
(-0.05295559 0.02496195 2.903161e-05)
(-0.059809465 0.024317516 2.7372543e-05)
(-0.066389192 0.02317483 2.3513187e-05)
(-0.072569785 0.021544401 1.7293347e-05)
(-0.078228555 0.019435975 8.5379904e-06)
(-0.083245869 0.016862807 -2.9107299e-06)
(-0.087506781 0.013846151 -1.7155775e-05)
(-0.09090348 0.010419437 -3.4211575e-05)
(-0.093338425 0.0066317717 -5.3969005e-05)
(-0.09472805 0.0025504404 -7.6164888e-05)
(-0.095006846 -0.0017378135 -0.00010036314)
(-0.094131611 -0.0061269264 -0.00012594598)
(-0.092085679 -0.010493159 -0.00015211922)
(-0.08888285 -0.014698413 -0.00017794012)
(-0.084570676 -0.018595158 -0.00020236187)
(-0.079232802 -0.02203296 -0.00022429542)
(-0.072989961 -0.024866391 -0.0002426882)
(-0.065999189 -0.026964026 -0.00025661094)
(-0.058450905 -0.028218011 -0.00026534343)
(-0.050563523 -0.028553576 -0.00026844932)
(-0.042575497 -0.027937752 -0.00026582892)
(-0.034734868 -0.026386536 -0.00025774081)
(-0.027286729 -0.023969866 -0.00024478709)
(-0.020459331 -0.020814039 -0.00022786187)
(-0.014450032 -0.017101586 -0.00020806344)
(-0.0094123226 -0.013069196 -0.0001865942)
(-0.0054428904 -0.0090045071 -0.00016474123)
(-0.0025703088 -0.0052413331 -0.00014377989)
(-0.00078070987 -0.0021544985 -0.00012371097)
(-7.7095669e-05 -0.00017563095 -9.6179905e-05)
(-0.00029732374 0.0026958313 -9.8610663e-05)
(-0.0019390519 0.0083633929 -6.7038475e-05)
(-0.0053522076 0.013800202 -4.039486e-05)
(-0.010032064 0.018707543 -2.0651566e-05)
(-0.015696768 0.022924299 -4.5333418e-06)
(-0.022149573 0.026373091 8.2827511e-06)
(-0.029200811 0.029034267 1.8193759e-05)
(-0.036673966 0.030923515 2.5680219e-05)
(-0.044407404 0.032073302 3.1083146e-05)
(-0.052250464 0.032519913 3.4597578e-05)
(-0.060060222 0.032295666 3.6291243e-05)
(-0.06769906 0.03142546 3.6117183e-05)
(-0.075032814 0.029926831 3.3932656e-05)
(-0.081929623 0.027812566 2.952665e-05)
(-0.088259663 0.025094991 2.2654445e-05)
(-0.093895779 0.021791129 1.3074641e-05)
(-0.098715014 0.017928017 5.9168087e-07)
(-0.10260095 0.013547656 -1.4904071e-05)
(-0.10544677 0.0087111495 -3.3394551e-05)
(-0.10715896 0.0035017032 -5.4696893e-05)
(-0.10766142 -0.0019737668 -7.8436721e-05)
(-0.10689999 -0.0075846367 -0.00010403354)
(-0.10484708 -0.013178279 -0.000130699)
(-0.10150625 -0.018583761 -0.0001574612)
(-0.09691641 -0.023617464 -0.00018320626)
(-0.091155287 -0.028090691 -0.00020674186)
(-0.084341626 -0.031819133 -0.00022688091)
(-0.076635686 -0.034633863 -0.00024253688)
(-0.068237399 -0.036393333 -0.00025282162)
(-0.059381743 -0.036995611 -0.00025713406)
(-0.050331004 -0.036389898 -0.00025522746)
(-0.041363905 -0.034586266 -0.0002472437)
(-0.032761933 -0.031662616 -0.00023370798)
(-0.024793702 -0.027768117 -0.00021548137)
(-0.017698805 -0.023122828 -0.00019366948)
(-0.011672693 -0.018013907 -0.00016951619)
(-0.006851068 -0.012789189 -0.00014440351)
(-0.0032958247 -0.0078476854 -0.000119741)
(-0.0010292831 -0.0036283384 -9.5298334e-05)
(-0.00011052646 -0.00061914796 -6.4549116e-05)
(-0.00034496699 0.0037725727 -0.00010302329)
(-0.0022271135 0.01122183 -6.6352804e-05)
(-0.0061120766 0.018118746 -3.6440282e-05)
(-0.011401902 0.024205656 -1.4629488e-05)
(-0.017762591 0.029355364 3.0245265e-06)
(-0.024965927 0.033519061 1.7046819e-05)
(-0.032798263 0.03670057 2.8014658e-05)
(-0.041065852 0.038934307 3.6568275e-05)
(-0.049595246 0.040267173 4.3158296e-05)
(-0.058227534 0.04074605 4.8043789e-05)
(-0.066813684 0.040410575 5.1318088e-05)
(-0.075211121 0.039290381 5.2925987e-05)
(-0.083281157 0.037405952 5.2688098e-05)
(-0.09088734 0.034772143 5.0333275e-05)
(-0.097894813 0.031403399 4.5537004e-05)
(-0.10417063 0.027319829 3.7963473e-05)
(-0.10958501 0.022553398 2.7313128e-05)
(-0.1140134 0.017153655 1.3368605e-05)
(-0.11733935 0.011192567 -3.9557475e-06)
(-0.11945805 0.0047681168 -2.4569454e-05)
(-0.12028051 -0.0019936193 -4.81708e-05)
(-0.1197382 -0.0089381413 -7.4225232e-05)
(-0.11778826 -0.015883976 -0.00010195297)
(-0.1144189 -0.022626537 -0.00013034913)
(-0.10965468 -0.028944131 -0.00015822007)
(-0.10356147 -0.034606451 -0.00018424723)
(-0.096250322 -0.039385468 -0.0002070751)
(-0.087879744 -0.043068497 -0.00022541583)
(-0.078655481 -0.045472871 -0.0002381614)
(-0.068827166 -0.046461377 -0.00024449048)
(-0.05868123 -0.045957236 -0.00024395575)
(-0.048529828 -0.043957194 -0.00023653777)
(-0.038696001 -0.040541258 -0.00022265565)
(-0.029495938 -0.035877794 -0.00020312914)
(-0.021220058 -0.030223273 -0.00017908668)
(-0.014114823 -0.023916788 -0.00015185323)
(-0.0083633135 -0.01737011 -0.00012296746)
(-0.0040671806 -0.011052918 -9.4051452e-05)
(-0.0012886514 -0.005474994 -6.4712422e-05)
(-0.0001436392 -0.0011893115 -3.0477283e-05)
(-0.00038874555 0.0049938759 -0.00010014722)
(-0.0024931073 0.014444067 -5.8233167e-05)
(-0.006815916 0.022959652 -2.5243232e-05)
(-0.012674025 0.030335122 -1.4149706e-06)
(-0.019685422 0.036488354 1.782223e-05)
(-0.027592549 0.041409128 3.3184702e-05)
(-0.036159313 0.04513298 4.5415851e-05)
(-0.045176012 0.047719358 5.5300067e-05)
(-0.054458688 0.049234089 6.3382098e-05)
(-0.063841681 0.049737641 6.9970596e-05)
(-0.073171608 0.049278765 7.5171351e-05)
(-0.082302918 0.047892721 7.8909569e-05)
(-0.091094511 0.045603163 8.0958769e-05)
(-0.099407453 0.042426712 8.0977381e-05)
(-0.1071038 0.038379198 7.8550048e-05)
(-0.11404645 0.033482699 7.3233872e-05)
(-0.1200999 0.027772635 6.4611373e-05)
(-0.12513194 0.02130432 5.2341895e-05)
(-0.12901615 0.014158558 3.6218066e-05)
(-0.13163514 0.006445967 1.6218984e-05)
(-0.13288476 -0.0016902538 -7.4445062e-06)
(-0.13267877 -0.010073409 -3.4304253e-05)
(-0.13095463 -0.018494164 -6.3598611e-05)
(-0.12767989 -0.026714199 -9.4295787e-05)
(-0.12285871 -0.034472225 -0.00012511782)
(-0.1165386 -0.041493033 -0.00015460244)
(-0.10881645 -0.047499623 -0.00018119372)
(-0.099843053 -0.052228308 -0.00020335573)
(-0.089825227 -0.055446309 -0.00021970101)
(-0.079024365 -0.056970907 -0.00022912027)
(-0.067750588 -0.056688696 -0.00023089665)
(-0.056351872 -0.054573063 -0.00022478729)
(-0.045198131 -0.050697804 -0.00021105887)
(-0.034661048 -0.045244899 -0.00019046668)
(-0.025091657 -0.038505089 -0.00016416644)
(-0.01679797 -0.030870969 -0.00013359661)
(-0.01002037 -0.022823309 -0.00010051142)
(-0.0049081083 -0.014910455 -6.6822839e-05)
(-0.0015686752 -0.0077233191 -3.2028068e-05)
(-0.00017841371 -0.0018930724 6.0922321e-06)
(-0.00042851575 0.0063477946 -8.880966e-05)
(-0.0027352389 0.018000935 -4.1469063e-05)
(-0.0074578143 0.028282609 -5.6399449e-06)
(-0.013836538 0.037049237 2.0112278e-05)
(-0.021446218 0.044273559 4.0941859e-05)
(-0.030002802 0.049992931 5.7748709e-05)
(-0.039249904 0.054282228 7.1431746e-05)
(-0.048963602 0.057231969 8.2905085e-05)
(-0.05895098 0.058931413 9.2793586e-05)
(-0.069041214 0.059457748 0.00010144255)
(-0.079078303 0.05887083 0.00010895861)
(-0.088915613 0.05721259 0.00011523708)
(-0.098411643 0.054510137 0.00011999449)
(-0.10742701 0.050781482 0.00012280814)
(-0.1158226 0.046042885 0.00012316023)
(-0.1234588 0.040316902 0.00012048735)
(-0.13019566 0.033640391 0.0001142374)
(-0.135894 0.026071942 0.00010392662)
(-0.14041736 0.017698325 8.9202737e-05)
(-0.14363491 0.0086396791 6.9907193e-05)
(-0.14542543 -0.00094677754 4.613322e-05)
(-0.14568202 -0.010864681 1.8246502e-05)
(-0.14431834 -0.020879117 -1.3024773e-05)
(-0.14127607 -0.03071886 -4.6640941e-05)
(-0.13653271 -0.040082196 -8.1246181e-05)
(-0.13011037 -0.048646087 -0.00011522502)
(-0.12208435 -0.056079176 -0.00014679279)
(-0.11259049 -0.062058782 -0.00017411717)
(-0.10183031 -0.066291549 -0.00019546412)
(-0.090072352 -0.068536835 -0.00020935478)
(-0.077648368 -0.068631168 -0.00021471443)
(-0.064943341 -0.066511398 -0.00021099229)
(-0.052378819 -0.062233704 -0.00019823331)
(-0.040390149 -0.055985533 -0.00017708481)
(-0.029399828 -0.048088168 -0.00014871849)
(-0.019789701 -0.038989002 -0.00011470895)
(-0.01186951 -0.02924405 -7.7081888e-05)
(-0.0058461974 -0.019490796 -3.8118118e-05)
(-0.0018805518 -0.010414983 2.7578231e-06)
(-0.00021695888 -0.0027431034 4.532708e-05)
(-0.00046393354 0.007821362 -6.7944734e-05)
(-0.0029511636 0.021860153 -1.4962503e-05)
(-0.0080311634 0.034042297 2.3433677e-05)
(-0.014876929 0.044294828 5.0990136e-05)
(-0.023025404 0.0526539 7.3400923e-05)
(-0.032169322 0.059212386 9.1743404e-05)
(-0.042034554 0.064091389 0.00010706272)
(-0.052384972 0.067418146 0.00012038977)
(-0.063020408 0.06930972 0.00013241775)
(-0.073766512 0.069863191 0.00014351827)
(-0.084466377 0.069151628 0.00015378966)
(-0.094974124 0.067224809 0.00016308861)
(-0.10514981 0.064113641 0.00017106602)
(-0.11485563 0.059837138 0.00017720853)
(-0.12395328 0.054410894 0.00018088438)
(-0.13230247 0.047856156 0.0001813954)
(-0.13976035 0.040208775 0.00017803639)
(-0.14618187 0.031527546 0.00017015663)
(-0.15142111 0.021901602 0.00015722982)
(-0.15533356 0.011456641 0.00013892257)
(-0.1577796 0.00035980102 0.00011516093)
(-0.15862961 -0.011176982 8.6217082e-05)
(-0.15777024 -0.02289626 5.2699831e-05)
(-0.15511222 -0.034495981 1.5636049e-05)
(-0.15060029 -0.045634307 -2.3557582e-05)
(-0.14422379 -0.055938273 -6.3114458e-05)
(-0.13602803 -0.065017142 -0.00010100057)
(-0.12612512 -0.072480931 -0.00013504036)
(-0.11470285 -0.077964087 -0.0001630798)
(-0.10202986 -0.081153523 -0.00018317429)
(-0.088455004 -0.081819241 -0.00019378065)
(-0.074399307 -0.079844693 -0.00019392759)
(-0.060339288 -0.075253127 -0.00018333883)
(-0.046781752 -0.068225778 -0.00016248175)
(-0.034232312 -0.05910823 -0.00013251023)
(-0.023160829 -0.04840297 -9.5143507e-05)
(-0.013961141 -0.036748225 -5.2730644e-05)
(-0.0069110134 -0.024883349 -8.0041954e-06)
(-0.0022361371 -0.013605875 3.9658063e-05)
(-0.00026142231 -0.0037582408 8.7424957e-05)
(-0.00049452078 0.0094002694 -3.660021e-05)
(-0.0031381322 0.025985995 2.2262119e-05)
(-0.0085287645 0.040188247 6.2926305e-05)
(-0.015782053 0.052012235 9.2152274e-05)
(-0.024402742 0.061564817 0.00011612437)
(-0.034063854 0.069001226 0.00013609122)
(-0.044476244 0.074494896 0.00015323507)
(-0.055393703 0.078214941 0.00016869299)
(-0.066610563 0.080310383 0.00018321739)
(-0.077950569 0.08090134 0.00019719866)
(-0.089257566 0.080076278 0.00021072037)
(-0.10038821 0.077894118 0.00022359452)
(-0.11120606 0.074390028 0.00023539995)
(-0.12157692 0.069583675 0.00024552516)
(-0.13136542 0.063488851 0.00025321432)
(-0.14043269 0.056123558 0.00025762017)
(-0.14863493 0.047519908 0.00025786448)
(-0.15582297 0.0377334 0.00025310308)
(-0.16184268 0.02685134 0.00024260141)
(-0.16653664 0.015000256 0.00022581252)
(-0.16974696 0.002352137 0.00020245802)
(-0.17132007 -0.010870804 0.00017261792)
(-0.17111303 -0.024392951 0.0001367737)
(-0.16900201 -0.037885017 9.5880057e-05)
(-0.16489328 -0.050966879 5.1373984e-05)
(-0.15873596 -0.063214952 5.1541325e-06)
(-0.15053626 -0.074175128 -4.0488781e-05)
(-0.14037217 -0.083382199 -8.2996031e-05)
(-0.12840697 -0.090386212 -0.00011971819)
(-0.11489929 -0.094785331 -0.00014813574)
(-0.10020718 -0.096263506 -0.00016610224)
(-0.084783512 -0.094629727 -0.00017207981)
(-0.069160617 -0.089854135 -0.00016533247)
(-0.053923277 -0.082095275 -0.00014603715)
(-0.03967217 -0.071712928 -0.00011526367)
(-0.02698125 -0.059262809 -7.4863136e-05)
(-0.016346321 -0.045472247 -2.7553009e-05)
(-0.0081328971 -0.031197086 2.3393901e-05)
(-0.0026476072 -0.017366758 7.8627327e-05)
(-0.00031397877 -0.0049636784 0.00013253822)
(-0.00051973484 0.011068665 6.0452936e-06)
(-0.003293228 0.03033909 7.1041275e-05)
(-0.0089432445 0.046664775 0.00011365238)
(-0.016538692 0.060135298 0.00014440417)
(-0.025558011 0.070934143 0.00016991446)
(-0.035658052 0.079284595 0.00019159565)
(-0.046537383 0.085417666 0.00021075874)
(-0.057941801 0.089548981 0.00022863823)
(-0.069661819 0.091863402 0.00024603922)
(-0.081520802 0.092507176 0.00026336638)
(-0.093364908 0.091586424 0.00028068528)
(-0.10505503 0.089170652 0.00029776059)
(-0.11646011 0.085299912 0.0003140961)
(-0.12745164 0.079994321 0.00032897746)
(-0.13789948 0.073264813 0.0003415169)
(-0.14766858 0.065124217 0.0003507052)
(-0.15661667 0.055598077 0.00035547129)
(-0.16459284 0.044734872 0.00035474938)
(-0.1714371 0.032615494 0.00034755902)
(-0.17698098 0.019361936 0.00033309195)
(-0.1810497 0.0051450998 0.00031080722)
(-0.18346617 -0.0098085093 0.00028053163)
(-0.18405702 -0.025211413 0.00024254415)
(-0.18266137 -0.040712392 0.00019765938)
(-0.17914247 -0.055896847 0.00014727458)
(-0.17340225 -0.070291954 9.3378479e-05)
(-0.16539839 -0.083378131 3.8505063e-05)
(-0.15516309 -0.09460834 -1.4378838e-05)
(-0.14282184 -0.10343634 -6.2058088e-05)
(-0.12860969 -0.10935415 -0.00010132105)
(-0.11288176 -0.11193729 -0.00012926001)
(-0.096114194 -0.11089468 -0.00014358676)
(-0.078892077 -0.10611732 -0.00014291918)
(-0.061882179 -0.097718228 -0.00012698206)
(-0.045791626 -0.086055615 -9.6649192e-05)
(-0.031316114 -0.071732696 -5.3858381e-05)
(-0.019074706 -0.055571494 -1.7276287e-06)
(-0.0095421231 -0.038560226 5.5835894e-05)
(-0.0031272869 -0.021783419 0.00011949221)
(-0.00037684878 -0.0063910562 0.00018070037)
(-0.00053903626 0.012809124 6.0659394e-05)
(-0.0034136636 0.034876496 0.00013205138)
(-0.0092676926 0.053411163 0.00017627065)
(-0.017134524 0.06859157 0.00020839796)
(-0.026472276 0.080682209 0.00023542042)
(-0.036925043 0.089978869 0.00025890521)
(-0.048181674 0.096774499 0.00028028476)
(-0.059981901 0.1013353 0.00030088367)
(-0.072113922 0.10388558 0.00032155582)
(-0.084402087 0.10460075 0.00034271898)
(-0.096696267 0.10360693 0.00036442132)
(-0.10886317 0.10098584 0.00038638162)
(-0.12077894 0.096783279 0.00040802973)
(-0.13232289 0.091019846 0.00042854775)
(-0.14337251 0.083702792 0.00044691136)
(-0.15379928 0.074838032 0.00046193917)
(-0.16346546 0.064441842 0.00047234944)
(-0.17222163 0.052551979 0.00047682754)
(-0.17990519 0.039238213 0.00047410823)
(-0.18633991 0.024612317 0.00046307017)
(-0.19133705 0.008837555 0.00044284412)
(-0.19469826 -0.0078624814 0.00041293074)
(-0.19622095 -0.025196011 0.00037331614)
(-0.19570661 -0.042797189 0.00032458504)
(-0.19297265 -0.060223209 0.00026800884)
(-0.18786807 -0.076956177 0.00020559494)
(-0.18029299 -0.092411796 0.0001400775)
(-0.17022135 -0.1059571 7.4830688e-05)
(-0.15772548 -0.11693926 1.3689166e-05)
(-0.14299966 -0.1247267 -3.9327625e-05)
(-0.12637904 -0.12876208 -8.0374943e-05)
(-0.10834881 -0.12862405 -0.00010619211)
(-0.08953836 -0.12409164 -0.00011450855)
(-0.070696231 -0.11520147 -0.00010436994)
(-0.052645421 -0.10228642 -7.6278982e-05)
(-0.036221856 -0.085985277 -3.2166376e-05)
(-0.022192588 -0.067217221 2.4440807e-05)
(-0.011168193 -0.04711902 8.8904458e-05)
(-0.0036875543 -0.02695643 0.00016187603)
(-0.00045233161 -0.008078512 0.00023174872)
(-0.00055196115 0.014602797 0.00012773273)
(-0.0034971368 0.039552117 0.00020578822)
(-0.0094964648 0.060362243 0.00025126306)
(-0.017559404 0.07730292 0.00028460878)
(-0.027129619 0.090722316 0.00031311057)
(-0.037841587 0.10099185 0.00033848002)
(-0.049376721 0.10846985 0.00036226412)
(-0.061470339 0.11347659 0.0003858719)
(-0.073909584 0.1162792 0.00041020514)
(-0.086520929 0.11708518 0.00043569739)
(-0.099159173 0.11604318 0.00046238436)
(-0.11169826 0.11324899 0.00048994508)
(-0.12402325 0.10875529 0.00051774124)
(-0.13602341 0.10258357 0.00054485512)
(-0.14758635 0.09473694 0.00057012591)
(-0.15859309 0.085213044 0.0005921942)
(-0.16891385 0.074016539 0.00060955376)
(-0.17840463 0.061171062 0.00062061684)
(-0.18690455 0.04673073 0.00062379633)
(-0.19423425 0.030791393 0.00061760558)
(-0.20019564 0.013501789 0.00060077811)
(-0.20457347 -0.0049254153 0.00057240387)
(-0.2071394 -0.024202996 0.0005320752)
(-0.20765924 -0.043959807 0.00048003591)
(-0.20590417 -0.063733852 0.00041731724)
(-0.20166664 -0.082969756 0.0003458394)
(-0.19478153 -0.10102312 0.00026845497)
(-0.1851523 -0.11717483 0.00018890621)
(-0.17278129 -0.13065834 0.00011166948)
(-0.15780155 -0.14070273 4.1670825e-05)
(-0.14050603 -0.14659244 -1.6126564e-05)
(-0.12136806 -0.14774172 -5.7234283e-05)
(-0.10104566 -0.14377754 -7.8191036e-05)
(-0.080362632 -0.13461935 -7.70571e-05)
(-0.060263286 -0.12054025 -5.3705171e-05)
(-0.041741712 -0.1021934 -9.893934e-06)
(-0.025740712 -0.080591766 5.0472859e-05)
(-0.013039087 -0.057035575 0.00012193566)
(-0.0043407561 -0.033000542 0.00020511485)
(-0.00054284454 -0.010070714 0.00028523851)
(-0.00055820197 0.016429766 0.00020755569)
(-0.0035422272 0.044317533 0.0002925474)
(-0.0096261067 0.067449491 0.0003389173)
(-0.017806866 0.086186677 0.00037331569)
(-0.027519226 0.10096173 0.00040324891)
(-0.038390731 0.11222347 0.00043056153)
(-0.050097232 0.12039812 0.00045690871)
(-0.062370935 0.12586303 0.00048378081)
(-0.074998896 0.12893123 0.00051213024)
(-0.0878106 0.12984537 0.00054241356)
(-0.10066678 0.1287792 0.00057466373)
(-0.11344989 0.12584474 0.00060853104)
(-0.1260555 0.1211031 0.00064331983)
(-0.13838486 0.11457747 0.00067802147)
(-0.15033829 0.1062669 0.00071134417)
(-0.16180948 0.096159924 0.00074175047)
(-0.17268046 0.084247839 0.00076750156)
(-0.18281713 0.070537328 0.00078671797)
(-0.19206558 0.055062834 0.00079745849)
(-0.20024914 0.037898923 0.00079782253)
(-0.20716667 0.019172973 0.0007860787)
(-0.21259244 -0.0009216731 0.00076081807)
(-0.21627837 -0.022112252 0.0007211297)
(-0.21795944 -0.04403348 0.00066678854)
(-0.21736328 -0.066216021 0.00059844489)
(-0.21422526 -0.08807845 0.00051778915)
(-0.20830991 -0.10892566 0.00042766456)
(-0.19943953 -0.12795739 0.00033209084)
(-0.18752956 -0.14429136 0.00023615841)
(-0.17262897 -0.15700537 0.00014576058)
(-0.15496136 -0.16520156 6.7145756e-05)
(-0.13495998 -0.16809307 6.3040321e-06)
(-0.11328692 -0.1651076 -3.1753663e-05)
(-0.090825887 -0.15599537 -4.370648e-05)
(-0.068641231 -0.14092149 -2.843164e-05)
(-0.047900396 -0.12051897 1.2749172e-05)
(-0.029751651 -0.095881739 7.5654761e-05)
(-0.015180347 -0.06848456 0.00015393577)
(-0.0050990828 -0.040043661 0.00024815869)
(-0.00065095958 -0.012418872 0.00034034256)
(-0.00055769169 0.018269606 0.00030020158)
(-0.0035488252 0.049123327 0.00039241302)
(-0.009656373 0.074602729 0.00043931771)
(-0.017875818 0.095157405 0.00047459142)
(-0.027637749 0.11130332 0.00050588054)
(-0.038564826 0.1235671 0.00053515045)
(-0.05032868 0.13244458 0.00056415987)
(-0.062659309 0.13837272 0.00059448139)
(-0.07534435 0.14171345 0.00062712551)
(-0.088216978 0.14274755 0.00066258385)
(-0.1011447 0.14167675 0.00070090159)
(-0.11401956 0.13863174 0.00074171633)
(-0.12674917 0.13368401 0.00078429102)
(-0.1392487 0.12685982 0.00082754056)
(-0.1514337 0.11815476 0.0008700537)
(-0.16321377 0.10754819 0.00091012136)
(-0.1744867 0.095017043 0.00094577139)