/*--------------------------------*- C++ -*----------------------------------*\
  =========                 |
  \\      /  F ield         | OpenFOAM: The Open Source CFD Toolbox
   \\    /   O peration     | Website:  https://openfoam.org
    \\  /    A nd           | Version:  7
     \\/     M anipulation  |
\*---------------------------------------------------------------------------*/
FoamFile
{
    version     2.0;
    format      ascii;
    class       volScalarField;
    location    "9.1";
    object      rho;
}
// * * * * * * * * * * * * * * * * * * * * * * * * * * * * * * * * * * * * * //

dimensions      [1 -3 0 0 0 0 0];

internalField   nonuniform List<scalar> 
19968
(
1.40001
1.40001
1.40001
1.40001
1.40001
1.40001
1.40001
1.40001
1.40001
1.40001
1.40001
1.40001
1.40001
1.40001
1.40001
1.40001
1.40001
1.40001
1.40001
1.40001
1.40001
1.40001
1.40001
1.40001
1.40001
1.40001
1.40001
1.40001
1.40001
1.40001
1.40001
1.40001
1.40001
1.40001
1.40001
1.40001
1.40001
1.40001
1.40001
1.40001
1.40001
1.40001
1.40001
1.40001
1.40001
1.40001
1.40001
1.40001
1.72681
4.59862
5.4063
5.43021
5.45962
5.48622
5.51088
5.53069
5.54623
5.56013
5.57524
5.59318
5.61388
5.63642
5.65964
5.68178
5.70178
5.71985
5.73641
5.75171
5.76622
5.7804
5.79441
5.80832
5.82221
5.83611
5.84981
5.86292
5.8751
5.88634
5.89709
5.90802
5.91955
5.93151
5.94316
5.95364
5.9625
5.96982
5.97607
5.98179
5.98741
5.99306
5.99859
6.00358
6.00753
6.01014
6.01149
6.01266
1.40001
1.40001
1.40001
1.40001
1.40001
1.40001
1.40001
1.40001
1.40001
1.40001
1.40001
1.40001
1.40001
1.40001
1.40001
1.40001
1.40001
1.40001
1.40001
1.40001
1.40001
1.40001
1.40001
1.40001
1.40001
1.40001
1.40001
1.40001
1.40001
1.40001
1.40001
1.40001
1.40001
1.40001
1.40001
1.40001
1.40001
1.40001
1.40001
1.40001
1.40001
1.40001
1.40001
1.40001
1.40001
1.40001
1.40001
1.40001
1.70806
4.57192
5.40199
5.42945
5.46076
5.48733
5.51163
5.53099
5.54617
5.55998
5.57524
5.59332
5.61397
5.63607
5.65878
5.68046
5.70033
5.71833
5.73482
5.75003
5.76448
5.77867
5.79275
5.80673
5.82067
5.83459
5.84834
5.86161
5.87406
5.88559
5.8965
5.90733
5.9185
5.92992
5.94106
5.95124
5.96008
5.9676
5.97411
5.98003
5.98568
5.99123
5.99657
6.00133
6.00506
6.00749
6.0087
6.00979
1.40001
1.40001
1.40001
1.40001
1.40001
1.40001
1.40001
1.40001
1.40001
1.40001
1.40001
1.40001
1.40001
1.40001
1.40001
1.40001
1.40001
1.40001
1.40001
1.40001
1.40001
1.40001
1.40001
1.40001
1.40001
1.40001
1.40001
1.40001
1.40001
1.40001
1.40001
1.40001
1.40001
1.40001
1.40001
1.40001
1.40001
1.40001
1.40001
1.40001
1.40001
1.40001
1.40001
1.40001
1.40001
1.40001
1.40001
1.40001
1.66639
4.51532
5.402
5.42819
5.4606
5.48649
5.51003
5.52879
5.54395
5.55818
5.57389
5.59213
5.61272
5.63437
5.65661
5.67782
5.6975
5.71535
5.73169
5.74679
5.76118
5.77538
5.78953
5.80357
5.81751
5.83141
5.84522
5.85872
5.8716
5.88364
5.89489
5.9057
5.9164
5.92704
5.9374
5.9471
5.9559
5.96375
5.97073
5.97703
5.98283
5.98832
5.99344
5.99794
6.00142
6.00365
6.00472
6.00572
1.40001
1.40001
1.40001
1.40001
1.40001
1.40001
1.40001
1.40001
1.40001
1.40001
1.40001
1.40001
1.40001
1.40001
1.40001
1.40001
1.40001
1.40001
1.40001
1.40001
1.40001
1.40001
1.40001
1.40001
1.40001
1.40001
1.40001
1.40001
1.40001
1.40001
1.40001
1.40001
1.40001
1.40001
1.40001
1.40001
1.40001
1.40001
1.40001
1.40001
1.40001
1.40001
1.40001
1.40001
1.40001
1.40001
1.40001
1.40001
1.60768
4.42189
5.40217
5.42921
5.45985
5.48444
5.50694
5.52536
5.54089
5.55585
5.57205
5.59013
5.6103
5.63135
5.6531
5.67387
5.69339
5.71113
5.72735
5.7423
5.75659
5.77075
5.78491
5.799
5.81298
5.82692
5.84089
5.85474
5.86814
5.8807
5.89224
5.90287
5.91287
5.92249
5.93182
5.94085
5.94948
5.95758
5.965
5.97165
5.9776
5.98298
5.98787
5.99211
5.99538
5.99751
5.99853
5.99955
1.40001
1.40001
1.40001
1.40001
1.40001
1.40001
1.40001
1.40001
1.40001
1.40001
1.40001
1.40001
1.40001
1.40001
1.40001
1.40001
1.40001
1.40001
1.40001
1.40001
1.40001
1.40001
1.40001
1.40001
1.40001
1.40001
1.40001
1.40001
1.40001
1.40001
1.40001
1.40001
1.40001
1.40001
1.40001
1.40001
1.40001
1.40001
1.40001
1.40001
1.40001
1.40001
1.40001
1.40001
1.40001
1.40001
1.40001
1.40001
1.53487
4.29845
5.40583
5.42993
5.45647
5.47931
5.50118
5.52035
5.53702
5.55284
5.56935
5.5871
5.60668
5.6271
5.64822
5.66849
5.68788
5.70563
5.72191
5.73688
5.75111
5.76517
5.77924
5.79327
5.80722
5.82121
5.83538
5.84963
5.86355
5.87662
5.88844
5.89895
5.90838
5.91712
5.92559
5.93404
5.9425
5.95077
5.95848
5.96529
5.9711
5.97603
5.98027
5.98379
5.98646
5.98816
5.98892
5.98977
1.40001
1.40001
1.40001
1.40001
1.40001
1.40001
1.40001
1.40001
1.40001
1.40001
1.40001
1.40001
1.40001
1.40001
1.40001
1.40001
1.40001
1.40001
1.40001
1.40001
1.40001
1.40001
1.40001
1.40001
1.40001
1.40001
1.40001
1.40001
1.40001
1.40001
1.40001
1.40001
1.40001
1.40001
1.40001
1.40001
1.40001
1.40001
1.40001
1.40001
1.40001
1.40001
1.40001
1.40001
1.40001
1.40001
1.40001
1.40001
1.41185
4.09783
5.41409
5.43325
5.45478
5.47658
5.49738
5.51665
5.53414
5.55069
5.56744
5.58495
5.60368
5.62288
5.64273
5.66207
5.681
5.6988
5.71531
5.73032
5.74435
5.75798
5.77153
5.78507
5.79861
5.81234
5.82647
5.84084
5.85495
5.86818
5.88003
5.89034
5.89932
5.90745
5.91529
5.92331
5.93166
5.94012
5.9482
5.9554
5.96144
5.96635
5.97037
5.97356
5.9759
5.97739
5.97803
5.97875
1.40001
1.40001
1.40001
1.40001
1.40001
1.40001
1.40001
1.40001
1.40001
1.40001
1.40001
1.40001
1.40001
1.40001
1.40001
1.40001
1.40001
1.40001
1.40001
1.40001
1.40001
1.40001
1.40001
1.40001
1.40001
1.40001
1.40001
1.40001
1.40001
1.40001
1.40001
1.40001
1.40001
1.40001
1.40001
1.40001
1.40001
1.40001
1.40001
1.40001
1.40001
1.40001
1.40001
1.40001
1.40001
1.40001
1.40001
1.40001
1.40009
3.79852
5.38535
5.4138
5.43324
5.45653
5.47841
5.49908
5.51831
5.53653
5.55428
5.57239
5.59102
5.60998
5.62933
5.64816
5.66679
5.68463
5.70151
5.71697
5.7313
5.74496
5.75821
5.77129
5.78445
5.79806
5.81233
5.82695
5.84123
5.85447
5.86624
5.87647
5.8854
5.89348
5.90124
5.90914
5.91741
5.92589
5.93409
5.94142
5.94754
5.95238
5.95616
5.95903
5.96101
5.96221
5.96265
5.96317
1.40001
1.40001
1.40001
1.40001
1.40001
1.40001
1.40001
1.40001
1.40001
1.40001
1.40001
1.40001
1.40001
1.40001
1.40001
1.40001
1.40001
1.40001
1.40001
1.40001
1.40001
1.40001
1.40001
1.40001
1.40001
1.40001
1.40001
1.40001
1.40001
1.40001
1.40001
1.40001
1.40001
1.40001
1.40001
1.40001
1.40001
1.40001
1.40001
1.40001
1.40001
1.40001
1.40001
1.40001
1.40001
1.40001
1.40001
1.40001
1.40001
3.4062
5.33433
5.3995
5.42155
5.44701
5.46977
5.4908
5.50992
5.52812
5.54583
5.56425
5.58307
5.6021
5.62085
5.6387
5.65624
5.6732
5.68964
5.70504
5.71936
5.73284
5.74556
5.75792
5.77039
5.78354
5.79758
5.81208
5.82616
5.83905
5.85041
5.86032
5.86913
5.87721
5.88497
5.89276
5.9008
5.90902
5.91703
5.92425
5.93029
5.93504
5.93864
5.94123
5.94284
5.94367
5.94381
5.94401
1.40001
1.40001
1.40001
1.40001
1.40001
1.40001
1.40001
1.40001
1.40001
1.40001
1.40001
1.40001
1.40001
1.40001
1.40001
1.40001
1.40001
1.40001
1.40001
1.40001
1.40001
1.40001
1.40001
1.40001
1.40001
1.40001
1.40001
1.40001
1.40001
1.40001
1.40001
1.40001
1.40001
1.40001
1.40001
1.40001
1.40001
1.40001
1.40001
1.40001
1.40001
1.40001
1.40001
1.40001
1.40001
1.40001
1.40001
1.40001
1.40001
2.93877
5.24278
5.38744
5.41166
5.4394
5.46285
5.48398
5.50256
5.52006
5.53689
5.55484
5.57381
5.59309
5.61147
5.62838
5.64461
5.66021
5.67556
5.6903
5.70407
5.71694
5.72887
5.74029
5.75188
5.7643
5.77779
5.7918
5.80534
5.81763
5.82842
5.83798
5.84669
5.85486
5.86268
5.87037
5.87813
5.88598
5.8937
5.90081
5.90692
5.9118
5.91548
5.91796
5.91932
5.9198
5.91956
5.91944
1.40001
1.40001
1.40001
1.40001
1.40001
1.40001
1.40001
1.40001
1.40001
1.40001
1.40001
1.40001
1.40001
1.40001
1.40001
1.40001
1.40001
1.40001
1.40001
1.40001
1.40001
1.40001
1.40001
1.40001
1.40001
1.40001
1.40001
1.40001
1.40001
1.40001
1.40001
1.40001
1.40001
1.40001
1.40001
1.40001
1.40001
1.40001
1.40001
1.40001
1.40001
1.40001
1.40001
1.40001
1.40001
1.40001
1.40001
1.40001
1.40001
2.4132
5.06327
5.3885
5.41219
5.44035
5.46439
5.48538
5.50264
5.51791
5.5321
5.54777
5.5657
5.5846
5.6026
5.61872
5.63373
5.64782
5.66159
5.67528
5.6882
5.70024
5.71126
5.72166
5.73219
5.7434
5.75561
5.76831
5.78057
5.79167
5.80149
5.81039
5.81879
5.82686
5.83465
5.84222
5.8497
5.85716
5.86449
5.87132
5.87727
5.88202
5.88547
5.88761
5.88846
5.8883
5.88746
5.8869
1.40001
1.40001
1.40001
1.40001
1.40001
1.40001
1.40001
1.40001
1.40001
1.40001
1.40001
1.40001
1.40001
1.40001
1.40001
1.40001
1.40001
1.40001
1.40001
1.40001
1.40001
1.40001
1.40001
1.40001
1.40001
1.40001
1.40001
1.40001
1.40001
1.40001
1.40001
1.40001
1.40001
1.40001
1.40001
1.40001
1.40001
1.40001
1.40001
1.40001
1.40001
1.40001
1.40001
1.40001
1.40001
1.40001
1.40001
1.40001
1.40001
1.88818
4.744
5.40613
5.40537
5.43207
5.45331
5.47483
5.49252
5.50819
5.52238
5.53699
5.55388
5.57209
5.58986
5.60583
5.62038
5.63352
5.64587
5.65841
5.6706
5.6821
5.69273
5.70254
5.71225
5.72235
5.73313
5.74416
5.75467
5.76405
5.7723
5.77982
5.78697
5.79383
5.80033
5.80651
5.81256
5.81871
5.82498
5.83118
5.83694
5.84182
5.84546
5.84769
5.84846
5.84801
5.8468
5.84598
1.40001
1.40001
1.40001
1.40001
1.40001
1.40001
1.40001
1.40001
1.40001
1.40001
1.40001
1.40001
1.40001
1.40001
1.40001
1.40001
1.40001
1.40001
1.40001
1.40001
1.40001
1.40001
1.40001
1.40001
1.40001
1.40001
1.40001
1.40001
1.40001
1.40001
1.40001
1.40001
1.40001
1.40001
1.40001
1.40001
1.40001
1.40001
1.40001
1.40001
1.40001
1.40001
1.40001
1.40001
1.40001
1.40001
1.40001
1.40001
1.40001
1.42534
4.10685
5.40977
5.4169
5.43398
5.45137
5.46985
5.4864
5.5017
5.51513
5.5278
5.54233
5.55847
5.57469
5.58954
5.60298
5.61472
5.62515
5.63582
5.64663
5.65702
5.66693
5.67608
5.68485
5.6937
5.70285
5.71208
5.72081
5.72857
5.73541
5.74173
5.74781
5.75362
5.75903
5.76408
5.76903
5.77417
5.77953
5.78483
5.7895
5.79294
5.79488
5.79504
5.79356
5.79152
5.78926
5.78774
1.40001
1.40001
1.40001
1.40001
1.40001
1.40001
1.40001
1.40001
1.40001
1.40001
1.40001
1.40001
1.40001
1.40001
1.40001
1.40001
1.40001
1.40001
1.40001
1.40001
1.40001
1.40001
1.40001
1.40001
1.40001
1.40001
1.40001
1.40001
1.40001
1.40001
1.40001
1.40001
1.40001
1.40001
1.40001
1.40001
1.40001
1.40001
1.40001
1.40001
1.40001
1.40001
1.40001
1.40001
1.40001
1.40001
1.40001
1.40001
1.40001
1.40005
3.2192
5.25076
5.36333
5.38851
5.41155
5.43125
5.44926
5.46594
5.48095
5.49447
5.50878
5.52449
5.54062
5.55565
5.56892
5.58027
5.59004
5.59972
5.60989
5.62012
5.62998
5.63913
5.64738
5.65527
5.66306
5.67079
5.67796
5.68415
5.68938
5.69398
5.69825
5.70208
5.70528
5.70784
5.71
5.71211
5.71431
5.71657
5.71854
5.71985
5.72033
5.71996
5.71861
5.71733
5.71588
5.715
1.40001
1.40001
1.40001
1.40001
1.40001
1.40001
1.40001
1.40001
1.40001
1.40001
1.40001
1.40001
1.40001
1.40001
1.40001
1.40001
1.40001
1.40001
1.40001
1.40001
1.40001
1.40001
1.40001
1.40001
1.40001
1.40001
1.40001
1.40001
1.40001
1.40001
1.40001
1.40001
1.40001
1.40001
1.40001
1.40001
1.40001
1.40001
1.40001
1.40001
1.40001
1.40001
1.40001
1.40001
1.40001
1.40001
1.40001
1.40001
1.40001
1.4
2.18577
4.89906
5.36353
5.37403
5.40056
5.41981
5.43669
5.4515
5.46491
5.47726
5.48995
5.50388
5.51848
5.53239
5.54451
5.55462
5.56303
5.57092
5.57933
5.58816
5.59666
5.60436
5.61094
5.61672
5.62218
5.62751
5.63233
5.63604
5.63849
5.63998
5.641
5.64166
5.64189
5.64158
5.64083
5.64015
5.63969
5.63953
5.63911
5.63758
5.6337
5.62753
5.61876
5.60942
5.60067
5.59302
1.40001
1.40001
1.40001
1.40001
1.40001
1.40001
1.40001
1.40001
1.40001
1.40001
1.40001
1.40001
1.40001
1.40001
1.40001
1.40001
1.40001
1.40001
1.40001
1.40001
1.40001
1.40001
1.40001
1.40001
1.40001
1.40001
1.40001
1.40001
1.40001
1.40001
1.40001
1.40001
1.40001
1.40001
1.40001
1.40001
1.40001
1.40001
1.40001
1.40001
1.40001
1.40001
1.40001
1.40001
1.40001
1.40001
1.40001
1.40001
1.40001
1.40001
1.44429
3.99186
5.38398
5.39324
5.4021
5.41426
5.42484
5.4349
5.44439
5.45381
5.46388
5.47538
5.48786
5.50001
5.5105
5.51893
5.52573
5.5319
5.53838
5.54535
5.5519
5.55727
5.56148
5.56482
5.5679
5.57092
5.57369
5.57524
5.57492
5.5727
5.5693
5.56533
5.56121
5.55632
5.55016
5.54314
5.53512
5.52575
5.51408
5.49912
5.48069
5.46018
5.44211
5.42729
5.42095
5.41833
1.40001
1.40001
1.40001
1.40001
1.40001
1.40001
1.40001
1.40001
1.40001
1.40001
1.40001
1.40001
1.40001
1.40001
1.40001
1.40001
1.40001
1.40001
1.40001
1.40001
1.40001
1.40001
1.40001
1.40001
1.40001
1.40001
1.40001
1.40001
1.40001
1.40001
1.40001
1.40001
1.40001
1.40001
1.40001
1.40001
1.40001
1.40001
1.40001
1.40001
1.40001
1.40001
1.40001
1.40001
1.40001
1.40001
1.40001
1.40001
1.40001
1.40001
1.40006
2.63956
5.06121
5.3448
5.36017
5.37543
5.38687
5.39726
5.40726
5.41774
5.4289
5.44072
5.45275
5.46403
5.47347
5.48067
5.48606
5.4905
5.49483
5.49932
5.50335
5.50599
5.50692
5.50641
5.5055
5.50509
5.50516
5.50472
5.50192
5.49558
5.48665
5.47609
5.4647
5.45229
5.43846
5.42297
5.4056
5.3861
5.36399
5.33915
5.31155
5.28165
5.24356
5.20154
5.14465
5.16413
1.40001
1.40001
1.40001
1.40001
1.40001
1.40001
1.40001
1.40001
1.40001
1.40001
1.40001
1.40001
1.40001
1.40001
1.40001
1.40001
1.40001
1.40001
1.40001
1.40001
1.40001
1.40001
1.40001
1.40001
1.40001
1.40001
1.40001
1.40001
1.40001
1.40001
1.40001
1.40001
1.40001
1.40001
1.40001
1.40001
1.40001
1.40001
1.40001
1.40001
1.40001
1.40001
1.40001
1.40001
1.40001
1.40001
1.40001
1.40001
1.40001
1.40001
1.40001
1.56335
4.37861
5.36819
5.35775
5.36374
5.37401
5.38295
5.39129
5.39953
5.40796
5.41677
5.42593
5.4348
5.44215
5.44723
5.45025
5.45209
5.45365
5.45544
5.45689
5.45715
5.45511
5.45071
5.44535
5.44088
5.43769
5.43444
5.42869
5.41925
5.40584
5.38889
5.36953
5.34841
5.32526
5.29933
5.26931
5.23404
5.19066
5.13678
5.06417
4.96562
4.81501
4.58324
4.17362
3.26559
1.40001
1.40001
1.40001
1.40001
1.40001
1.40001
1.40001
1.40001
1.40001
1.40001
1.40001
1.40001
1.40001
1.40001
1.40001
1.40001
1.40001
1.40001
1.40001
1.40001
1.40001
1.40001
1.40001
1.40001
1.40001
1.40001
1.40001
1.40001
1.40001
1.40001
1.40001
1.40001
1.40001
1.40001
1.40001
1.40001
1.40001
1.40001
1.40001
1.40001
1.40001
1.40001
1.40001
1.40001
1.40001
1.40001
1.40001
1.40001
1.40001
1.40001
1.4
1.40149
3.2362
5.17048
5.32863
5.33937
5.35072
5.35824
5.36436
5.37023
5.3771
5.38447
5.39245
5.40052
5.40743
5.41202
5.41419
5.41465
5.41411
5.41347
5.41304
5.41174
5.40846
5.40235
5.39384
5.3852
5.3775
5.37001
5.36109
5.34912
5.33257
5.31085
5.28471
5.25538
5.22265
5.18617
5.14317
5.0927
5.02888
4.94979
4.84136
4.69835
4.48757
4.21447
3.67327
2.9095
1.40001
1.40001
1.40001
1.40001
1.40001
1.40001
1.40001
1.40001
1.40001
1.40001
1.40001
1.40001
1.40001
1.40001
1.40001
1.40001
1.40001
1.40001
1.40001
1.40001
1.40001
1.40001
1.40001
1.40001
1.40001
1.40001
1.40001
1.40001
1.40001
1.40001
1.40001
1.40001
1.40001
1.40001
1.40001
1.40001
1.40001
1.40001
1.40001
1.40001
1.40001
1.40001
1.40001
1.40001
1.40001
1.40001
1.40001
1.40001
1.40001
1.40001
1.40001
1.4
1.95626
4.70408
5.3498
5.3365
5.34548
5.35044
5.35352
5.35668
5.36201
5.36748
5.37301
5.37833
5.38282
5.38545
5.38597
5.38437
5.381
5.37683
5.37283
5.36851
5.36301
5.35503
5.34393
5.33153
5.31893
5.30625
5.29268
5.27669
5.25621
5.23
5.19773
5.16084
5.11851
5.07135
5.0157
4.95109
4.87097
4.77167
4.64334
4.47292
4.25653
3.93157
3.48954
2.97405
1.40001
1.40001
1.40001
1.40001
1.40001
1.40001
1.40001
1.40001
1.40001
1.40001
1.40001
1.40001
1.40001
1.40001
1.40001
1.40001
1.40001
1.40001
1.40001
1.40001
1.40001
1.40001
1.40001
1.40001
1.40001
1.40001
1.40001
1.40001
1.40001
1.40001
1.40001
1.40001
1.40001
1.40001
1.40001
1.40001
1.40001
1.40001
1.40001
1.40001
1.40001
1.40001
1.40001
1.40001
1.40001
1.40001
1.40001
1.40001
1.40001
1.40001
1.40001
1.4
1.42471
3.55444
5.26003
5.30684
5.31913
5.32748
5.3325
5.33716
5.34358
5.34879
5.35242
5.35484
5.35648
5.35725
5.35599
5.3525
5.34697
5.34007
5.33256
5.32458
5.31567
5.30479
5.29119
5.27604
5.25986
5.2429
5.22453
5.20374
5.17848
5.1477
5.1102
5.06732
5.01738
4.96081
4.89468
4.8181
4.72669
4.61545
4.4781
4.30354
4.08422
3.80009
3.46221
3.07607
1.40001
1.40001
1.40001
1.40001
1.40001
1.40001
1.40001
1.40001
1.40001
1.40001
1.40001
1.40001
1.40001
1.40001
1.40001
1.40001
1.40001
1.40001
1.40001
1.40001
1.40001
1.40001
1.40001
1.40001
1.40001
1.40001
1.40001
1.40001
1.40001
1.40001
1.40001
1.40001
1.40001
1.40001
1.40001
1.40001
1.40001
1.40001
1.40001
1.40001
1.40001
1.40001
1.40001
1.40001
1.40001
1.40001
1.40001
1.40001
1.40001
1.40001
1.40001
1.40001
1.4
2.08481
4.81929
5.32696
5.30574
5.31026
5.31381
5.31813
5.3246
5.33014
5.33283
5.33324
5.33171
5.32934
5.32491
5.31906
5.31228
5.30454
5.2955
5.28486
5.27237
5.25751
5.24014
5.22159
5.20201
5.18169
5.15931
5.13402
5.10361
5.06767
5.02528
4.97761
4.92291
4.86022
4.78741
4.70281
4.60441
4.48793
4.35036
4.1819
3.97938
3.74465
3.47701
3.17968
1.40001
1.40001
1.40001
1.40001
1.40001
1.40001
1.40001
1.40001
1.40001
1.40001
1.40001
1.40001
1.40001
1.40001
1.40001
1.40001
1.40001
1.40001
1.40001
1.40001
1.40001
1.40001
1.40001
1.40001
1.40001
1.40001
1.40001
1.40001
1.40001
1.40001
1.40001
1.40001
1.40001
1.40001
1.40001
1.40001
1.40001
1.40001
1.40001
1.40001
1.40001
1.40001
1.40001
1.40001
1.40001
1.40001
1.40001
1.40001
1.40001
1.40001
1.40001
1.40001
1.4
1.43346
3.59379
5.24872
5.2799
5.28881
5.29183
5.29629
5.30267
5.30846
5.31117
5.30972
5.3059
5.30093
5.29346
5.28527
5.27693
5.268
5.25787
5.24586
5.23099
5.2129
5.19191
5.16971
5.14658
5.123
5.09715
5.06784
5.03256
4.99146
4.94445
4.89263
4.8349
4.76942
4.69405
4.60638
4.50568
4.38822
4.25615
4.09771
3.9179
3.72261
3.5083
3.26692
1.40001
1.40001
1.40001
1.40001
1.40001
1.40001
1.40001
1.40001
1.40001
1.40001
1.40001
1.40001
1.40001
1.40001
1.40001
1.40001
1.40001
1.40001
1.40001
1.40001
1.40001
1.40001
1.40001
1.40001
1.40001
1.40001
1.40001
1.40001
1.40001
1.40001
1.40001
1.40001
1.40001
1.40001
1.40001
1.40001
1.40001
1.40001
1.40001
1.40001
1.40001
1.40001
1.40001
1.40001
1.40001
1.40001
1.40001
1.40001
1.40001
1.40001
1.40001
1.40001
1.4
1.40002
2.02353
4.76824
5.28492
5.26822
5.26859
5.27032
5.27478
5.27925
5.2817
5.27905
5.27453
5.26822
5.258
5.24749
5.23778
5.22757
5.21656
5.2042
5.1886
5.16911
5.14598
5.12085
5.09437
5.06746
5.03825
5.00526
4.96619
4.92119
4.8704
4.81478
4.75435
4.68783
4.61316
4.52723
4.43008
4.31522
4.18995
4.04354
3.88632
3.72152
3.53467
3.33733
1.40001
1.40001
1.40001
1.40001
1.40001
1.40001
1.40001
1.40001
1.40001
1.40001
1.40001
1.40001
1.40001
1.40001
1.40001
1.40001
1.40001
1.40001
1.40001
1.40001
1.40001
1.40001
1.40001
1.40001
1.40001
1.40001
1.40001
1.40001
1.40001
1.40001
1.40001
1.40001
1.40001
1.40001
1.40001
1.40001
1.40001
1.40001
1.40001
1.40001
1.40001
1.40001
1.40001
1.40001
1.40001
1.40001
1.40001
1.40001
1.40001
1.40001
1.40001
1.40001
1.40001
1.40001
1.42537
3.36976
5.15778
5.23587
5.24057
5.24467
5.25108
5.25501
5.25667
5.25372
5.24951
5.24181
5.22954
5.21666
5.20419
5.19163
5.17848
5.16479
5.14783
5.12712
5.10295
5.07633
5.04777
5.01795
4.98519
4.9483
4.9061
4.85867
4.80564
4.74718
4.68407
4.61615
4.54226
4.45953
4.36949
4.26039
4.14375
4.01215
3.87378
3.72419
3.55994
3.39875
1.40001
1.40001
1.40001
1.40001
1.40001
1.40001
1.40001
1.40001
1.40001
1.40001
1.40001
1.40001
1.40001
1.40001
1.40001
1.40001
1.40001
1.40001
1.40001
1.40001
1.40001
1.40001
1.40001
1.40001
1.40001
1.40001
1.40001
1.40001
1.40001
1.40001
1.40001
1.40001
1.40001
1.40001
1.40001
1.40001
1.40001
1.40001
1.40001
1.40001
1.40001
1.40001
1.40001
1.40001
1.40001
1.40001
1.40001
1.40001
1.40001
1.40001
1.40001
1.40001
1.40001
1.40001
1.40002
1.74576
4.54503
5.27286
5.25146
5.23953
5.23503
5.23114
5.22712
5.22181
5.21632
5.20712
5.19409
5.17975
5.16592
5.15257
5.13822
5.12388
5.10612
5.08484
5.06026
5.03272
5.0027
4.97083
4.93537
4.89553
4.85115
4.80247
4.74893
4.6896
4.62522
4.55629
4.48342
4.40249
4.31844
4.21681
4.11226
3.99456
3.86848
3.73058
3.59283
3.4513
1.40001
1.40001
1.40001
1.40001
1.40001
1.40001
1.40001
1.40001
1.40001
1.40001
1.40001
1.40001
1.40001
1.40001
1.40001
1.40001
1.40001
1.40001
1.40001
1.40001
1.40001
1.40001
1.40001
1.40001
1.40001
1.40001
1.40001
1.40001
1.40001
1.40001
1.40001
1.40001
1.40001
1.40001
1.40001
1.40001
1.40001
1.40001
1.40001
1.40001
1.40001
1.40001
1.40001
1.40001
1.40001
1.40001
1.40001
1.40001
1.40001
1.40001
1.40001
1.40001
1.40001
1.40001
1.40001
1.40652
2.94139
5.02725
5.18697
5.19872
5.2056
5.20151
5.19429
5.18594
5.17845
5.16817
5.15593
5.14271
5.12911
5.11571
5.10049
5.08463
5.06528
5.04342
5.01843
4.99035
4.9593
4.92615
4.88903
4.84756
4.80204
4.75296
4.70017
4.64174
4.5779
4.50895
4.43678
4.35608
4.27477
4.18168
4.08838
3.97998
3.86565
3.7439
3.62552
3.49341
1.40001
1.40001
1.40001
1.40001
1.40001
1.40001
1.40001
1.40001
1.40001
1.40001
1.40001
1.40001
1.40001
1.40001
1.40001
1.40001
1.40001
1.40001
1.40001
1.40001
1.40001
1.40001
1.40001
1.40001
1.40001
1.40001
1.40001
1.40001
1.40001
1.40001
1.40001
1.40001
1.40001
1.40001
1.40001
1.40001
1.40001
1.40001
1.40001
1.40001
1.40001
1.40001
1.40001
1.40001
1.40001
1.40001
1.40001
1.40001
1.40001
1.40001
1.40001
1.40001
1.40001
1.40001
1.40001
1.40001
1.55354
3.98247
5.16751
5.18535
5.18427
5.17755
5.17122
5.16103
5.15034
5.13825
5.12479
5.11169
5.0979
5.08392
5.06788
5.0495
5.02801
5.00541
4.97901
4.94939
4.91736
4.88338
4.8453
4.80366
4.7582
4.70944
4.65768
4.60046
4.53896
4.47083
4.3999
4.32183
4.24178
4.15676
4.06826
3.96679
3.86642
3.75986
3.65005
3.52894
1.40001
1.40001
1.40001
1.40001
1.40001
1.40001
1.40001
1.40001
1.40001
1.40001
1.40001
1.40001
1.40001
1.40001
1.40001
1.40001
1.40001
1.40001
1.40001
1.40001
1.40001
1.40001
1.40001
1.40001
1.40001
1.40001
1.40001
1.40001
1.40001
1.40001
1.40001
1.40001
1.40001
1.40001
1.40001
1.40001
1.40001
1.40001
1.40001
1.40001
1.40001
1.40001
1.40001
1.40001
1.40001
1.40001
1.40001
1.40001
1.40001
1.40001
1.40001
1.40001
1.40001
1.40001
1.40001
1.40001
1.40115
2.11314
4.75082
5.18291
5.15616
5.15645
5.14913
5.13864
5.12554
5.11116
5.09599
5.08209
5.06794
5.05302
5.0362
5.01594
4.99262
4.96918
4.94104
4.90937
4.87599
4.84134
4.80298
4.76196
4.71778
4.67074
4.61981
4.56389
4.50597
4.4386
4.36995
4.29625
4.21845
4.1391
4.05205
3.96037
3.87107
3.77123
3.66779
3.56341
1.40001
1.40001
1.40001
1.40001
1.40001
1.40001
1.40001
1.40001
1.40001
1.40001
1.40001
1.40001
1.40001
1.40001
1.40001
1.40001
1.40001
1.40001
1.40001
1.40001
1.40001
1.40001
1.40001
1.40001
1.40001
1.40001
1.40001
1.40001
1.40001
1.40001
1.40001
1.40001
1.40001
1.40001
1.40001
1.40001
1.40001
1.40001
1.40001
1.40001
1.40001
1.40001
1.40001
1.40001
1.40001
1.40001
1.40001
1.40001
1.40001
1.40001
1.40001
1.40001
1.40001
1.40001
1.40001
1.40001
1.40001
1.43036
3.09338
5.03979
5.13494
5.13401
5.13111
5.12187
5.10922
5.09321
5.07504
5.05785
5.04164
5.02497
5.00645
4.98505
4.96046
4.93593
4.90715
4.87392
4.83893
4.80353
4.76588
4.72523
4.68279
4.63776
4.58796
4.53406
4.47607
4.41155
4.34521
4.27578
4.20205
4.12584
4.04328
3.96077
3.87604
3.78122
3.68766
3.5961
1.40001
1.40001
1.40001
1.40001
1.40001
1.40001
1.40001
1.40001
1.40001
1.40001
1.40001
1.40001
1.40001
1.40001
1.40001
1.40001
1.40001
1.40001
1.40001
1.40001
1.40001
1.40001
1.40001
1.40001
1.40001
1.40001
1.40001
1.40001
1.40001
1.40001
1.40001
1.40001
1.40001
1.40001
1.40001
1.40001
1.40001
1.40001
1.40001
1.40001
1.40001
1.40001
1.40001
1.40001
1.40001
1.40001
1.40001
1.40001
1.40001
1.40001
1.40001
1.40001
1.40001
1.40001
1.40001
1.40001
1.40001
1.40007
1.57702
3.78282
5.0848
5.13053
5.12419
5.11522
5.10252
5.08446
5.06355
5.04158
5.02085
5.00111
4.98025
4.95737
4.93192
4.90576
4.87768
4.84357
4.80775
4.77072
4.73306
4.69276
4.65109
4.60705
4.55939
4.50641
4.44935
4.38808
4.32389
4.25813
4.18804
4.11491
4.03954
3.96261
3.88162
3.79426
3.70922
3.62375
1.40001
1.40001
1.40001
1.40001
1.40001
1.40001
1.40001
1.40001
1.40001
1.40001
1.40001
1.40001
1.40001
1.40001
1.40001
1.40001
1.40001
1.40001
1.40001
1.40001
1.40001
1.40001
1.40001
1.40001
1.40001
1.40001
1.40001
1.40001
1.40001
1.40001
1.40001
1.40001
1.40001
1.40001
1.40001
1.40001
1.40001
1.40001
1.40001
1.40001
1.40001
1.40001
1.40001
1.40001
1.40001
1.40001
1.40001
1.40001
1.40001
1.40001
1.40001
1.40001
1.40001
1.40001
1.40001
1.40001
1.40001
1.40001
1.40165
1.80034
4.48053
5.16948
5.13619
5.11265
5.08821
5.06505
5.04192
5.01925
4.99707
4.97582
4.95478
4.93172
4.90584
4.87837
4.85008
4.8161
4.78012
4.74259
4.70472
4.66559
4.62422
4.58067
4.53369
4.48278
4.42816
4.36944
4.30721
4.24401
4.17636
4.10653
4.03758
3.96443
3.8886
3.80933
3.73113
3.6503
1.40001
1.40001
1.40001
1.40001
1.40001
1.40001
1.40001
1.40001
1.40001
1.40001
1.40001
1.40001
1.40001
1.40001
1.40001
1.40001
1.40001
1.40001
1.40001
1.40001
1.40001
1.40001
1.40001
1.40001
1.40001
1.40001
1.40001
1.40001
1.40001
1.40001
1.40001
1.40001
1.40001
1.40001
1.40001
1.40001
1.40001
1.40001
1.40001
1.40001
1.40001
1.40001
1.40001
1.40001
1.40001
1.40001
1.40001
1.40001
1.40001
1.40001
1.40001
1.40001
1.40001
1.40001
1.40001
1.40001
1.40001
1.40001
1.40001
1.40873
2.58076
4.89787
5.09825
5.06776
5.04985
5.03277
5.01536
4.99633
4.97648
4.95514
4.93296
4.90994
4.88328
4.85518
4.82635
4.79266
4.75688
4.71939
4.68119
4.64188
4.60049
4.55693
4.51035
4.46116
4.40878
4.3527
4.29315
4.23213
4.1671
4.10077
4.03632
3.96596
3.89606
3.82549
3.75351
3.67858
1.40001
1.40001
1.40001
1.40001
1.40001
1.40001
1.40001
1.40001
1.40001
1.40001
1.40001
1.40001
1.40001
1.40001
1.40001
1.40001
1.40001
1.40001
1.40001
1.40001
1.40001
1.40001
1.40001
1.40001
1.40001
1.40001
1.40001
1.40001
1.40001
1.40001
1.40001
1.40001
1.40001
1.40001
1.40001
1.40001
1.40001
1.40001
1.40001
1.40001
1.40001
1.40001
1.40001
1.40001
1.40001
1.40001
1.40001
1.40001
1.40001
1.40001
1.40001
1.40001
1.40001
1.40001
1.40001
1.40001
1.40001
1.40001
1.40001
1.40002
1.48154
3.21181
4.97923
5.03406
5.02168
5.01954
5.00977
4.99455
4.97543
4.95306
4.92834
4.90331
4.87434
4.84416
4.81245
4.77703
4.73991
4.70175
4.66281
4.62332
4.58094
4.53704
4.49128
4.44336
4.39263
4.33884
4.28211
4.22334
4.16183
4.09919
4.03742
3.97045
3.90713
3.84585
3.78105
3.71485
1.40001
1.40001
1.40001
1.40001
1.40001
1.40001
1.40001
1.40001
1.40001
1.40001
1.40001
1.40001
1.40001
1.40001
1.40001
1.40001
1.40001
1.40001
1.40001
1.40001
1.40001
1.40001
1.40001
1.40001
1.40001
1.40001
1.40001
1.40001
1.40001
1.40001
1.40001
1.40001
1.40001
1.40001
1.40001
1.40001
1.40001
1.40001
1.40001
1.40001
1.40001
1.40001
1.40001
1.40001
1.40001
1.40001
1.40001
1.40001
1.40001
1.40001
1.40001
1.40001
1.40001
1.40001
1.40001
1.40001
1.40001
1.40001
1.40001
1.40001
1.40044
1.60339
3.59641
4.98403
5.01159
5.00759
5.00064
4.98751
4.97022
4.94844
4.92364
4.89686
4.86648
4.83454
4.80037
4.76391
4.72613
4.68741
4.64772
4.60742
4.56514
4.5202
4.47497
4.42842
4.37901
4.32731
4.27351
4.21705
4.1591
4.10108
4.04316
3.9834
3.9299
3.87918
3.82457
3.77284
1.40001
1.40001
1.40001
1.40001
1.40001
1.40001
1.40001
1.40001
1.40001
1.40001
1.40001
1.40001
1.40001
1.40001
1.40001
1.40001
1.40001
1.40001
1.40001
1.40001
1.40001
1.40001
1.40001
1.40001
1.40001
1.40001
1.40001
1.40001
1.40001
1.40001
1.40001
1.40001
1.40001
1.40001
1.40001
1.40001
1.40001
1.40001
1.40001
1.40001
1.40001
1.40001
1.40001
1.40001
1.40001
1.40001
1.40001
1.40001
1.40001
1.40001
1.40001
1.40001
1.40001
1.40001
1.40001
1.40001
1.40001
1.40001
1.40001
1.40001
1.40001
1.40231
1.72598
3.91625
5.01243
5.01085
4.99569
4.97952
4.96094
4.93848
4.91424
4.88804
4.8587
4.82652
4.79196
4.75546
4.71754
4.67835
4.63805
4.59711
4.55489
4.51035
4.46524
4.41962
4.37159
4.32183
4.27046
4.21717
4.16423
4.11358
4.06509
4.01761
3.97884
3.94218
3.89982
3.86328
1.40001
1.40001
1.40001
1.40001
1.40001
1.40001
1.40001
1.40001
1.40001
1.40001
1.40001
1.40001
1.40001
1.40001
1.40001
1.40001
1.40001
1.40001
1.40001
1.40001
1.40001
1.40001
1.40001
1.40001
1.40001
1.40001
1.40001
1.40001
1.40001
1.40001
1.40001
1.40001
1.40001
1.40001
1.40001
1.40001
1.40001
1.40001
1.40001
1.40001
1.40001
1.40001
1.40001
1.40001
1.40001
1.40001
1.40001
1.40001
1.40001
1.40001
1.40001
1.40001
1.40001
1.40001
1.40001
1.40001
1.40001
1.40001
1.40001
1.40001
1.40001
1.40001
1.40579
1.86287
4.19795
5.01917
5.00342
4.98106
4.95644
4.93101
4.90448
4.87694
4.84705
4.81501
4.78107
4.7454
4.70828
4.66958
4.62957
4.58861
4.54663
4.50355
4.45983
4.41495
4.36906
4.32332
4.27687
4.23112
4.19084
4.15305
4.12006
4.08972
4.06532
4.03693
4.00104
3.96949
1.40001
1.40001
1.40001
1.40001
1.40001
1.40001
1.40001
1.40001
1.40001
1.40001
1.40001
1.40001
1.40001
1.40001
1.40001
1.40001
1.40001
1.40001
1.40001
1.40001
1.40001
1.40001
1.40001
1.40001
1.40001
1.40001
1.40001
1.40001
1.40001
1.40001
1.40001
1.40001
1.40001
1.40001
1.40001
1.40001
1.40001
1.40001
1.40001
1.40001
1.40001
1.40001
1.40001
1.40001
1.40001
1.40001
1.40001
1.40001
1.40001
1.40001
1.40001
1.40001
1.40001
1.40001
1.40001
1.40001
1.40001
1.40001
1.40001
1.40001
1.40001
1.40001
1.40002
1.41158
2.0175
4.40304
5.03019
5.00398
4.97279
4.93964
4.90773
4.87555
4.84169
4.80743
4.77244
4.73678
4.7002
4.66232
4.62312
4.58266
4.542
4.50078
4.45935
4.4182
4.37754
4.34108
4.30843
4.27844
4.25534
4.23412
4.21607
4.19373
4.17229
4.14046
4.10181
4.06564
1.40001
1.40001
1.40001
1.40001
1.40001
1.40001
1.40001
1.40001
1.40001
1.40001
1.40001
1.40001
1.40001
1.40001
1.40001
1.40001
1.40001
1.40001
1.40001
1.40001
1.40001
1.40001
1.40001
1.40001
1.40001
1.40001
1.40001
1.40001
1.40001
1.40001
1.40001
1.40001
1.40001
1.40001
1.40001
1.40001
1.40001
1.40001
1.40001
1.40001
1.40001
1.40001
1.40001
1.40001
1.40001
1.40001
1.40001
1.40001
1.40001
1.40001
1.40001
1.40001
1.40001
1.40001
1.40001
1.40001
1.40001
1.40001
1.40001
1.40001
1.40001
1.40001
1.40001
1.40004
1.42064
2.16648
4.5868
5.02729
4.996
4.96059
4.91988
4.88169
4.84431
4.80705
4.7693
4.73219
4.69475
4.65641
4.61714
4.57699
4.53775
4.49991
4.46471
4.43483
4.41053
4.3929
4.37859
4.36898
4.36111
4.34578
4.32806
4.29993
4.27124
4.23061
4.18646
4.14626
1.40001
1.40001
1.40001
1.40001
1.40001
1.40001
1.40001
1.40001
1.40001
1.40001
1.40001
1.40001
1.40001
1.40001
1.40001
1.40001
1.40001
1.40001
1.40001
1.40001
1.40001
1.40001
1.40001
1.40001
1.40001
1.40001
1.40001
1.40001
1.40001
1.40001
1.40001
1.40001
1.40001
1.40001
1.40001
1.40001
1.40001
1.40001
1.40001
1.40001
1.40001
1.40001