/*--------------------------------*- C++ -*----------------------------------*\
  =========                 |
  \\      /  F ield         | OpenFOAM: The Open Source CFD Toolbox
   \\    /   O peration     | Website:  https://openfoam.org
    \\  /    A nd           | Version:  7
     \\/     M anipulation  |
\*---------------------------------------------------------------------------*/
FoamFile
{
    version     2.0;
    format      ascii;
    class       volScalarField;
    location    "9.1";
    object      T;
}
// * * * * * * * * * * * * * * * * * * * * * * * * * * * * * * * * * * * * * //

dimensions      [0 0 0 1 0 0 0];

internalField   nonuniform List<scalar> 
19968
(
1
1
1
1
1
1
1
1
1
1
1
1
1
1
1
1
1
1
1
1
1
1
1
1
1
1
1
1
1
1
1
1
1
1
1
1
1
1
1
1
1
1
1
1
1
1
1
1
1.28288
2.46137
2.69326
2.6941
2.69672
2.69925
2.70252
2.70701
2.7128
2.71883
2.72389
2.72764
2.73046
2.73295
2.73567
2.73882
2.74245
2.74652
2.75076
2.7547
2.75798
2.76057
2.7627
2.76473
2.76698
2.76956
2.77235
2.77506
2.77749
2.77964
2.78166
2.78373
2.78593
2.7882
2.79038
2.79231
2.79393
2.79526
2.79642
2.7975
2.79858
2.79967
2.80073
2.80168
2.80241
2.80288
2.80312
2.80333
1
1
1
1
1
1
1
1
1
1
1
1
1
1
1
1
1
1
1
1
1
1
1
1
1
1
1
1
1
1
1
1
1
1
1
1
1
1
1
1
1
1
1
1
1
1
1
1
1.26963
2.45484
2.6924
2.69366
2.69665
2.69926
2.70265
2.7072
2.71292
2.71885
2.72385
2.72757
2.73036
2.7328
2.73544
2.73853
2.74215
2.74621
2.75044
2.75436
2.75762
2.76021
2.76235
2.76441
2.76667
2.76927
2.77207
2.77481
2.77729
2.7795
2.78155
2.7836
2.78573
2.7879
2.78998
2.79185
2.79347
2.79484
2.79605
2.79717
2.79826
2.79933
2.80035
2.80125
2.80194
2.80238
2.80259
2.80279
1
1
1
1
1
1
1
1
1
1
1
1
1
1
1
1
1
1
1
1
1
1
1
1
1
1
1
1
1
1
1
1
1
1
1
1
1
1
1
1
1
1
1
1
1
1
1
1
1.23698
2.43722
2.69128
2.69254
2.696
2.69894
2.70261
2.70731
2.71288
2.71854
2.72335
2.727
2.72983
2.73227
2.73493
2.73799
2.74159
2.74563
2.74982
2.7537
2.75694
2.75952
2.76169
2.76378
2.76608
2.76869
2.7715
2.77428
2.77684
2.77913
2.78125
2.7833
2.78534
2.78736
2.78929
2.79108
2.79268
2.79412
2.79541
2.7966
2.79772
2.79877
2.79976
2.80061
2.80125
2.80165
2.80184
2.80202
1
1
1
1
1
1
1
1
1
1
1
1
1
1
1
1
1
1
1
1
1
1
1
1
1
1
1
1
1
1
1
1
1
1
1
1
1
1
1
1
1
1
1
1
1
1
1
1
1.18943
2.40918
2.68942
2.69131
2.69527
2.69887
2.70299
2.70772
2.71289
2.718
2.72246
2.72603
2.72897
2.73153
2.73428
2.73738
2.74096
2.74494
2.74903
2.7528
2.75598
2.75858
2.7608
2.76296
2.76531
2.76794
2.77077
2.77358
2.77622
2.77861
2.78079
2.78282
2.78473
2.78655
2.78828
2.78992
2.79149
2.79297
2.79435
2.7956
2.79674
2.79777
2.79871
2.7995
2.80011
2.80049
2.80067
2.80085
1
1
1
1
1
1
1
1
1
1
1
1
1
1
1
1
1
1
1
1
1
1
1
1
1
1
1
1
1
1
1
1
1
1
1
1
1
1
1
1
1
1
1
1
1
1
1
1
1.12679
2.36979
2.68671
2.69022
2.69487
2.69915
2.70362
2.70809
2.71259
2.71701
2.7211
2.72469
2.72791
2.73081
2.73382
2.737
2.74053
2.74434
2.74821
2.7518
2.75488
2.75748
2.75979
2.76205
2.76447
2.76712
2.76993
2.77275
2.77544
2.77792
2.78017
2.78218
2.78398
2.78563
2.78718
2.7887
2.79023
2.79174
2.79317
2.79444
2.79554
2.79648
2.79728
2.79794
2.79842
2.79872
2.79885
2.799
1
1
1
1
1
1
1
1
1
1
1
1
1
1
1
1
1
1
1
1
1
1
1
1
1
1
1
1
1
1
1
1
1
1
1
1
1
1
1
1
1
1
1
1
1
1
1
1
1.00966
2.30093
2.68495
2.69044
2.69547
2.70029
2.70472
2.70869
2.7123
2.71583
2.71947
2.7232
2.72694
2.73044
2.73382
2.73707
2.74046
2.74395
2.74743
2.75065
2.75352
2.75607
2.75845
2.76081
2.76325
2.76584
2.76854
2.77127
2.77393
2.77643
2.7787
2.78069
2.78241
2.78392
2.78534
2.78676
2.78826
2.7898
2.79129
2.79263
2.79376
2.79469
2.79543
2.79602
2.79643
2.79669
2.79679
2.79692
1
1
1
1
1
1
1
1
1
1
1
1
1
1
1
1
1
1
1
1
1
1
1
1
1
1
1
1
1
1
1
1
1
1
1
1
1
1
1
1
1
1
1
1
1
1
1
1
1.00005
2.21135
2.68022
2.68726
2.69178
2.69683
2.70134
2.70532
2.70873
2.71196
2.71546
2.71943
2.72367
2.72784
2.73174
2.73527
2.73868
2.74196
2.74511
2.74804
2.75076
2.75337
2.7559
2.75843
2.76097
2.76354
2.76617
2.76882
2.77144
2.77392
2.7762
2.7782
2.77992
2.78141
2.7828
2.78419
2.78566
2.7872
2.7887
2.79006
2.7912
2.79209
2.79278
2.79329
2.79363
2.79383
2.79389
2.79398
1
1
1
1
1
1
1
1
1
1
1
1
1
1
1
1
1
1
1
1
1
1
1
1
1
1
1
1
1
1
1
1
1
1
1
1
1
1
1
1
1
1
1
1
1
1
1
1
1
2.08447
2.6709
2.68479
2.68882
2.6935
2.69775
2.70172
2.70531
2.70875
2.71232
2.71633
2.72063
2.72497
2.72911
2.73288
2.73638
2.73959
2.74255
2.74527
2.74788
2.75051
2.75318
2.75586
2.75847
2.76102
2.76356
2.76611
2.76863
2.77105
2.77328
2.77526
2.77698
2.77848
2.77985
2.78121
2.78264
2.78412
2.78558
2.7869
2.78801
2.78887
2.78951
2.78995
2.79021
2.79033
2.79033
2.79035
1
1
1
1
1
1
1
1
1
1
1
1
1
1
1
1
1
1
1
1
1
1
1
1
1
1
1
1
1
1
1
1
1
1
1
1
1
1
1
1
1
1
1
1
1
1
1
1
1
1.91009
2.64291
2.67885
2.68299
2.6878
2.69211
2.69634
2.70037
2.7043
2.70815
2.71222
2.71648
2.72082
2.72504
2.72899
2.73266
2.73593
2.73882
2.74143
2.74392
2.74651
2.74922
2.75197
2.75464
2.75719
2.75967
2.76214
2.76457
2.76691
2.76908
2.77105
2.77279
2.77433
2.77574
2.77709
2.77847
2.77988
2.78127
2.78257
2.78368
2.78455
2.78518
2.78559
2.78577
2.78582
2.78575
2.78572
1
1
1
1
1
1
1
1
1
1
1
1
1
1
1
1
1
1
1
1
1
1
1
1
1
1
1
1
1
1
1
1
1
1
1
1
1
1
1
1
1
1
1
1
1
1
1
1
1
1.68283
2.58582
2.67233
2.67721
2.68264
2.68712
2.6913
2.69539
2.69965
2.70373
2.70776
2.71185
2.71602
2.72016
2.72417
2.72801
2.73143
2.73438
2.73698
2.7394
2.74188
2.74451
2.74721
2.74987
2.75239
2.75481
2.75718
2.75948
2.76168
2.76374
2.76565
2.76741
2.769
2.77046
2.77184
2.77318
2.77453
2.77585
2.77708
2.77815
2.77898
2.77955
2.77986
2.77996
2.77989
2.77969
2.77958
1
1
1
1
1
1
1
1
1
1
1
1
1
1
1
1
1
1
1
1
1
1
1
1
1
1
1
1
1
1
1
1
1
1
1
1
1
1
1
1
1
1
1
1
1
1
1
1
1
1.38055
2.47973
2.6695
2.67269
2.67937
2.68283
2.68653
2.69035
2.69463
2.69885
2.70279
2.70669
2.71058
2.71452
2.71847
2.72241
2.726
2.72906
2.73176
2.73419
2.73658
2.73909
2.7417
2.74434
2.74689
2.74932
2.75164
2.75382
2.75583
2.75769
2.75943
2.76104
2.76252
2.76384
2.76504
2.76617
2.7673
2.76844
2.76955
2.77058
2.77142
2.77201
2.77232
2.7724
2.77229
2.77205
2.7719
1
1
1
1
1
1
1
1
1
1
1
1
1
1
1
1
1
1
1
1
1
1
1
1
1
1
1
1
1
1
1
1
1
1
1
1
1
1
1
1
1
1
1
1
1
1
1
1
1
1.01602
2.29829
2.67709
2.67773
2.68016
2.68277
2.68591
2.68909
2.69246
2.69573
2.69883
2.70207
2.70542
2.70884
2.71233
2.71593
2.71938
2.72237
2.72503
2.72738
2.72957
2.73183
2.73423
2.73675
2.73929
2.74175
2.74407
2.74618
2.74807
2.74979
2.7514
2.75295
2.75439
2.75567
2.75681
2.75784
2.75885
2.75985
2.76081
2.76163
2.76218
2.76241
2.76233
2.76197
2.76154
2.7611
2.76082
1
1
1
1
1
1
1
1
1
1
1
1
1
1
1
1
1
1
1
1
1
1
1
1
1
1
1
1
1
1
1
1
1
1
1
1
1
1
1
1
1
1
1
1
1
1
1
1
1
1.00003
2.01969
2.64577
2.66189
2.666
2.67106
2.6757
2.67979
2.68343
2.68674
2.68977
2.69288
2.69613
2.69949
2.70287
2.7063
2.70964
2.71264
2.71532
2.71771
2.7199
2.72207
2.72435
2.72676
2.72928
2.73177
2.73413
2.73624
2.73804
2.73959
2.74102
2.74239
2.74367
2.74478
2.74566
2.74631
2.74683
2.74729
2.74772
2.74805
2.7482
2.74818
2.74803
2.74763
2.74714
2.74657
2.74623
1
1
1
1
1
1
1
1
1
1
1
1
1
1
1
1
1
1
1
1
1
1
1
1
1
1
1
1
1
1
1
1
1
1
1
1
1
1
1
1
1
1
1
1
1
1
1
1
1
1
1.54969
2.51766
2.64664
2.65351
2.66179
2.66742
2.67219
2.67633
2.67995
2.68307
2.68598
2.68899
2.69218
2.69547
2.69874
2.70183
2.70456
2.70693
2.70906
2.71103
2.71291
2.71485
2.71689
2.71903
2.72123
2.72335
2.72522
2.72674
2.72792
2.72889
2.72982
2.73073
2.73156
2.73214
2.73241
2.73257
2.73268
2.73277
2.73273
2.73243
2.73165
2.73036
2.72824
2.72536
2.72219
2.71967
1
1
1
1
1
1
1
1
1
1
1
1
1
1
1
1
1
1
1
1
1
1
1
1
1
1
1
1
1
1
1
1
1
1
1
1
1
1
1
1
1
1
1
1
1
1
1
1
1
1
1.02838
2.25575
2.65623
2.65521
2.65653
2.65979
2.66381
2.66798
2.67159
2.67445
2.67688
2.67941
2.68231
2.68552
2.68877
2.69174
2.69426
2.69633
2.69813
2.6998
2.70138
2.7029
2.70448
2.70615
2.70792
2.70967
2.71126
2.7125
2.71325
2.71361
2.71387
2.71408
2.71422
2.71412
2.71373
2.71299
2.71185
2.71028
2.70812
2.70522
2.70159
2.69745
2.69342
2.68926
2.68631
2.68474
1
1
1
1
1
1
1
1
1
1
1
1
1
1
1
1
1
1
1
1
1
1
1
1
1
1
1
1
1
1
1
1
1
1
1
1
1
1
1
1
1
1
1
1
1
1
1
1
1
1
1.00005
1.7695
2.56131
2.63338
2.63925
2.64423
2.64899
2.65377
2.658
2.66144
2.66424
2.66695
2.66996
2.67337
2.6769
2.68013
2.68272
2.68464
2.68612
2.68743
2.68869
2.68988
2.69099
2.69198
2.69298
2.69404
2.6951
2.69587
2.69611
2.69588
2.69518
2.69415
2.69302
2.69172
2.69011
2.68802
2.68533
2.68197
2.6779
2.67308
2.6674
2.66113
2.65484
2.65187
2.64859
2.66312
1
1
1
1
1
1
1
1
1
1
1
1
1
1
1
1
1
1
1
1
1
1
1
1
1
1
1
1
1
1
1
1
1
1
1
1
1
1
1
1
1
1
1
1
1
1
1
1
1
1
1
1.11901
2.3438
2.63114
2.62999
2.63257
2.63707
2.64186
2.64639
2.65019
2.65322
2.6559
2.65876
2.66205
2.66562
2.66897
2.67159
2.67333
2.67447
2.67546
2.6765
2.67752
2.67819
2.67862
2.67882
2.67898
2.67923
2.67942
2.67925
2.67848
2.67684
2.67455
2.67193
2.66907
2.66579
2.66183
2.65682
2.65052
2.64233
2.63167
2.6167
2.5959
2.56518
2.52181
2.45775
2.33024
1
1
1
1
1
1
1
1
1
1
1
1
1
1
1
1
1
1
1
1
1
1
1
1
1
1
1
1
1
1
1
1
1
1
1
1
1
1
1
1
1
1
1
1
1
1
1
1
1
1
1
1.00116
2.01456
2.59724
2.61452
2.61821
2.62283
2.62762
2.63222
2.63624
2.63967
2.64263
2.64566
2.64915
2.65303
2.65678
2.65977
2.6617
2.66278
2.66363
2.66459
2.66557
2.66636
2.66665
2.66639
2.66574
2.66506
2.66449
2.66377
2.66244
2.66014
2.65689
2.65293
2.64843
2.64325
2.63721
2.62969
2.62042
2.60815
2.59232
2.5698
2.53916
2.49383
2.43641
2.32339
2.15934
1
1
1
1
1
1
1
1
1
1
1
1
1
1
1
1
1
1
1
1
1
1
1
1
1
1
1
1
1
1
1
1
1
1
1
1
1
1
1
1
1
1
1
1
1
1
1
1
1
1
1
0.999999
1.38746
2.42158
2.60151
2.60405
2.61001
2.61595
2.62103
2.62499
2.62829
2.63097
2.63368
2.63689
2.6407
2.64462
2.64794
2.64999
2.65106
2.65166
2.65228
2.65311
2.65391
2.65411
2.65367
2.65252
2.65105
2.64957
2.64793
2.64574
2.64265
2.6385
2.63326
2.62715
2.61992
2.61164
2.60152
2.58936
2.57372
2.5536
2.52669
2.48969
2.44154
2.36671
2.26082
2.13405
1
1
1
1
1
1
1
1
1
1
1
1
1
1
1
1
1
1
1
1
1
1
1
1
1
1
1
1
1
1
1
1
1
1
1
1
1
1
1
1
1
1
1
1
1
1
1
1
1
1
1
1
1.01509
2.11364
2.59685
2.59567
2.59793
2.60336
2.60896
2.61318
2.61638
2.61864
2.62076
2.62343
2.62692
2.63089
2.63432
2.63668
2.63788
2.63835
2.63869
2.63925
2.63986
2.63992
2.63944
2.63819
2.63637
2.63425
2.63172
2.62861
2.62461
2.61958
2.61325
2.6058
2.59686
2.58647
2.57403
2.55923
2.54108
2.51825
2.48915
2.45081
2.40096
2.33324
2.24795
2.14728
1
1
1
1
1
1
1
1
1
1
1
1
1
1
1
1
1
1
1
1
1
1
1
1
1
1
1
1
1
1
1
1
1
1
1
1
1
1
1
1
1
1
1
1
1
1
1
1
1
1
1
1
1.00001
1.45425
2.43567
2.58608
2.58964
2.59556
2.59996
2.60288
2.6051
2.60667
2.60817
2.61031
2.61307
2.61653
2.61975
2.62218
2.62354
2.6241
2.62439
2.62475
2.62511
2.62497
2.62427
2.62292
2.62096
2.61852
2.61543
2.61159
2.60672
2.60076
2.59347
2.58498
2.57491
2.56306
2.54898
2.53225
2.51233
2.48809
2.45863
2.42129
2.37471
2.31838
2.2511
2.17205
1
1
1
1
1
1
1
1
1
1
1
1
1
1
1
1
1
1
1
1
1
1
1
1
1
1
1
1
1
1
1
1
1
1
1
1
1
1
1
1
1
1
1
1
1
1
1
1
1
1
1
1
1
1.02023
2.11629
2.58521
2.58718
2.58935
2.59133
2.59303
2.59432
2.59529
2.59634
2.59767
2.59969
2.60254
2.60531
2.60752
2.60867
2.60894
2.60898
2.60914
2.6093
2.6091
2.60827
2.60684
2.60478
2.60217
2.59874
2.59441
2.58883
2.58205
2.57397
2.56469
2.55397
2.54141
2.52659
2.50893
2.4882
2.46338
2.4348
2.39939
2.35784
2.31107
2.25766
2.1948
1
1
1
1
1
1
1
1
1
1
1
1
1
1
1
1
1
1
1
1
1
1
1
1
1
1
1
1
1
1
1
1
1
1
1
1
1
1
1
1
1
1
1
1
1
1
1
1
1
1
1
1
1
1.00002
1.4134
2.41328
2.57467
2.57814
2.58169
2.58318
2.58365
2.5839
2.58449
2.58515
2.58668
2.58905
2.59117
2.59278
2.59333
2.59304
2.59259
2.59246
2.59243
2.59221
2.59144
2.59005
2.58793
2.58516
2.58145
2.57674
2.57075
2.56352
2.55496
2.54515
2.53402
2.5213
2.50657
2.48911
2.46891
2.44435
2.41697
2.38403
2.34764
2.30812
2.26195
2.21167
1
1
1
1
1
1
1
1
1
1
1
1
1
1
1
1
1
1
1
1
1
1
1
1
1
1
1
1
1
1
1
1
1
1
1
1
1
1
1
1
1
1
1
1
1
1
1
1
1
1
1
1
1
1
1.01546
2.03978
2.55994
2.56886
2.57137
2.57274
2.57358
2.57381
2.57438
2.57498
2.57657
2.57856
2.57997
2.58052
2.58017
2.579
2.5775
2.57652
2.57583
2.57527
2.57446
2.57317
2.5711
2.56814
2.56405
2.55885
2.55255
2.54519
2.53659
2.5266
2.51529
2.50254
2.48813
2.47139
2.45267
2.42925
2.40361
2.37391
2.34192
2.30617
2.26591
2.22546
1
1
1
1
1
1
1
1
1
1
1
1
1
1
1
1
1
1
1
1
1
1
1
1
1
1
1
1
1
1
1
1
1
1
1
1
1
1
1
1
1
1
1
1
1
1
1
1
1
1
1
1
1
1
1.00002
1.24085
2.35023
2.56441
2.56211
2.56206
2.56224
2.56222
2.56252
2.5634
2.56535
2.56732
2.56826
2.56814
2.56723
2.56539
2.56304
2.56125
2.55978
2.5587
2.55764
2.55619
2.554
2.55083
2.54636
2.54069
2.5341
2.52674
2.51842
2.50874
2.49768
2.48519
2.47137
2.45526
2.438
2.4163
2.39343
2.36697
2.33793
2.30542
2.2719
2.2366
1
1
1
1
1
1
1
1
1
1
1
1
1
1
1
1
1
1
1
1
1
1
1
1
1
1
1
1
1
1
1
1
1
1
1
1
1
1
1
1
1
1
1
1
1
1
1
1
1
1
1
1
1
1
1
1.00416
1.86022
2.50758
2.5397
2.54452
2.54761
2.54826
2.54889
2.55008
2.55241
2.55472
2.55589
2.55579
2.55485
2.55284
2.54999
2.54737
2.54503
2.54329
2.54172
2.5399
2.53737
2.53391
2.52906
2.52295
2.51599
2.50853
2.50054
2.49145
2.48104
2.46912
2.45596
2.44033
2.42399
2.40446
2.38438
2.36033
2.33414
2.30561
2.27724
2.24471
1
1
1
1
1
1
1
1
1
1
1
1
1
1
1
1
1
1
1
1
1
1
1
1
1
1
1
1
1
1
1
1
1
1
1
1
1
1
1
1
1
1
1
1
1
1
1
1
1
1
1
1
1
1
1
1
1.10164
2.20998
2.53342
2.53532
2.53561
2.53507
2.53567
2.53676
2.5391
2.54189
2.54345
2.54351
2.54283
2.54102
2.5381
2.53485
2.53183
2.52956
2.52729
2.52481
2.52182
2.518
2.51275
2.50628
2.49893
2.49117
2.48324
2.4745
2.46492
2.45365
2.44127
2.4267
2.41106
2.39372
2.37512
2.353
2.33048
2.30588
2.28005
2.25074
1
1
1
1
1
1
1
1
1
1
1
1
1
1
1
1
1
1
1
1
1
1
1
1
1
1
1
1
1
1
1
1
1
1
1
1
1
1
1
1
1
1
1
1
1
1
1
1
1
1
1
1
1
1
1
1
1.00068
1.45013
2.36235
2.51354
2.5136
2.51672
2.51889
2.52129
2.52425
2.52752
2.52958
2.52997
2.52956
2.52815
2.52556
2.52222
2.51895
2.51651
2.51377
2.5107
2.50725
2.50311
2.49756
2.49084
2.4832
2.4752
2.46693
2.45819
2.44936
2.43847
2.42693
2.41372
2.39898
2.38331
2.36541
2.34586
2.32649
2.3042
2.28025
2.25569
1
1
1
1
1
1
1
1
1
1
1
1
1
1
1
1
1
1
1
1
1
1
1
1
1
1
1
1
1
1
1
1
1
1
1
1
1
1
1
1
1
1
1
1
1
1
1
1
1
1
1
1
1
1
1
1
1
1.01807
1.89187
2.46803
2.49749
2.50297
2.50621
2.50826
2.51097
2.5139
2.51561
2.51576
2.51542
2.5142
2.51188
2.50888
2.50579
2.50348
2.50087
2.49765
2.49394
2.48963
2.48414
2.47726
2.46955
2.46136
2.45265
2.44375
2.43454
2.42413
2.41317
2.4011
2.38751
2.37281
2.35614
2.33906
2.32122
2.30059
2.27955
2.25873
1
1
1
1
1
1
1
1
1
1
1
1
1
1
1
1
1
1
1
1
1
1
1
1
1
1
1
1
1
1
1
1
1
1
1
1
1
1
1
1
1
1
1
1
1
1
1
1
1
1
1
1
1
1
1
1
1
1.00003
1.11735
2.12096
2.4756
2.49625
2.49742
2.49874
2.5003
2.50173
2.50223
2.5019
2.50102
2.49954
2.49734
2.49471
2.49205
2.48994
2.48796
2.48499
2.48145
2.47706
2.47169
2.46491
2.4572
2.44882
2.43999
2.43064
2.42108
2.41101
2.40035
2.38907
2.37635
2.3624
2.34745
2.33183
2.315
2.29639
2.27805
2.25909
1
1
1
1
1
1
1
1
1
1
1
1
1
1
1
1
1
1
1
1
1
1
1
1
1
1
1
1
1
1
1
1
1
1
1
1
1
1
1
1
1
1
1
1
1
1
1
1
1
1
1
1
1
1
1
1
1
1
1.00093
1.26698
2.26432
2.48062
2.48089
2.48262
2.48358
2.48453
2.4849
2.48485
2.48433
2.48322
2.48168
2.47974
2.47763
2.47582
2.47432
2.47189
2.46878
2.46469
2.4596
2.45332
2.44582
2.43748
2.42851
2.41918
2.40966
2.39974
2.38924
2.37838
2.36614
2.35287
2.33932
2.32442
2.30866
2.29195
2.27543
2.25814
1
1
1
1
1
1
1
1
1
1
1
1
1
1
1
1
1
1
1
1
1
1
1
1
1
1
1
1
1
1
1
1
1
1
1
1
1
1
1
1
1
1
1
1
1
1
1
1
1
1
1
1
1
1
1
1
1
1
1
1.00513
1.6585
2.37649
2.4584
2.45618
2.45836
2.46102
2.46331
2.46481
2.46554
2.46529
2.46459
2.46366
2.46229
2.46104
2.46001
2.45815
2.45558
2.45198
2.4473
2.44143
2.4343
2.4262
2.4174
2.40835
2.3991
2.38952
2.37943
2.36895
2.35724
2.34471
2.33204
2.3175
2.30272
2.28777
2.27251
2.25674
1
1
1
1
1
1
1
1
1
1
1
1
1
1
1
1
1
1
1
1
1
1
1
1
1
1
1
1
1
1
1
1
1
1
1
1
1
1
1
1
1
1
1
1
1
1
1
1
1
1
1
1
1
1
1
1
1
1
1
1.00001
1.04993
1.90911
2.41795
2.44515
2.44458
2.44644
2.44775
2.44875
2.4493
2.44912
2.44865
2.44828
2.44739
2.44652
2.44559
2.44397
2.44163
2.4384
2.43412
2.42881
2.42209
2.41446
2.40624
2.39774
2.38901
2.38001
2.3706
2.36071
2.34984
2.33814
2.32586
2.31193
2.29844
2.2854
2.2718
2.25799
1
1
1
1
1
1
1
1
1
1
1
1
1
1
1
1
1
1
1
1
1
1
1
1
1
1
1
1
1
1
1
1
1
1
1
1
1
1
1
1
1
1
1
1
1
1
1
1
1
1
1
1
1
1
1
1
1
1
1
1
1.00022
1.1334
2.02591
2.41325
2.43596
2.43757
2.43794
2.43749
2.43686
2.43593
2.43494
2.434
2.43279
2.43167
2.43038
2.42865
2.42634
2.42329
2.41934
2.41449
2.40851
2.40142
2.39401
2.38641
2.37848
2.37038
2.36193
2.35281
2.34286
2.3322
2.32097
2.30888
2.2982
2.28754
2.27572
2.26469
1
1
1
1
1
1
1
1
1
1
1
1
1
1
1
1
1
1
1
1
1
1
1
1
1
1
1
1
1
1
1
1
1
1
1
1
1
1
1
1
1
1
1
1
1
1
1
1
1
1
1
1
1
1
1
1
1
1
1
1
1
1.00125
1.21299
2.10407
2.40002
2.42867
2.42784
2.42733
2.4264
2.42494
2.42347
2.42203
2.42036
2.41849
2.41641
2.41403
2.41123
2.40789
2.40391
2.39929
2.39389
2.38761
2.38107
2.3745
2.36758
2.36047
2.35299
2.34464
2.33627
2.32791
2.31994
2.31124
2.30346
2.29595
2.28694
2.27933
1
1
1
1
1
1
1
1
1
1
1
1
1
1
1
1
1
1
1
1
1
1
1
1
1
1
1
1
1
1
1
1
1
1
1
1
1
1
1
1
1
1
1
1
1
1
1
1
1
1
1
1
1
1
1
1
1
1
1
1
1
1
1.0032
1.29578
2.15743
2.3899
2.41015
2.41274
2.4128
2.41246
2.4116
2.4103
2.40842
2.4061
2.40339
2.40032
2.39688
2.39302
2.38871
2.38398
2.3788
2.37324
2.36758
2.36181
2.35587
2.34983
2.34393
2.33807
2.33356
2.32938
2.32496
2.32033
2.31632
2.31104
2.30377
2.29747
1
1
1
1
1
1
1
1
1
1
1
1
1
1
1
1
1
1
1
1
1
1
1
1
1
1
1
1
1
1
1
1
1
1
1
1
1
1
1
1
1
1
1
1
1
1
1
1
1
1
1
1
1
1
1
1
1
1
1
1
1
1
1
1.0065
1.37939
2.19642
2.37683
2.39074
2.39443
2.39554
2.39607
2.39568
2.39453
2.39272
2.39021
2.38714
2.3836
2.37958
2.37508
2.37017
2.3651
2.35989
2.35465
2.34949
2.345
2.3416
2.3393
2.33875
2.33841
2.33777
2.33695
2.33474
2.33207
2.32668
2.31925
2.31221
1
1
1
1
1
1
1
1
1
1
1
1
1
1
1
1
1
1
1
1
1
1
1
1
1
1
1
1
1
1
1
1
1
1
1
1
1
1
1
1
1
1
1
1
1
1
1
1
1
1
1
1
1
1
1
1
1
1
1
1
1
1
1
1.00001
1.01176
1.45342
2.22791
2.36778
2.37041
2.37296
2.37437
2.37576
2.37576
2.37519
2.37381
2.37182
2.36914
2.36575
2.36169
2.35703
2.35224
2.34739
2.34332
2.33997
2.34017
2.34203
2.34404
2.34665
2.34973
2.3506
2.35019
2.34741
2.34369
2.33681
2.32861
2.32116
1
1
1
1
1
1
1
1
1
1
1
1
1
1
1
1
1
1
1
1
1
1
1
1
1
1
1
1
1
1
1
1
1
1
1
1
1
1
1
1
1
1
1
1
1
1
1
1
1
1
1
1
1
1
1
1
1
1
1
1
1
1
1
1
1.00003
1.0186
1.55499
2.2547
2.3541
2.35241
2.35342
2.3538
2.35425
2.35457
2.35442
2.35377
2.35234
2.34991
2.34673
2.34305
2.33961
2.33711
2.338
2.34114
2.34518
2.35075
2.35584
2.36143
2.36278
2.36135
2.35916
2.35505
2.34976
2.34167
2.33362
2.32681
1
1
1
1
1
1
1
1
1
1
1
1
1
1
1
1
1
1
1
1
1
1
1
1
1
1
1
1
1
1
1
1
1
1
1
1
1
1
1
1
1
1
1
1
1
1
1
1
1
1
1
1
1
1
1
1
1
1
1
1
1
1
1
1
1
1.00005
1.03228
1.61942
2.26394
2.34082
2.33803
2.33629
2.33563
2.33523
2.33483
2.33419
2.33314
2.33178
2.33004
2.32986
2.33123
2.33535
2.34263
2.35145
2.35957
2.36603
2.37117
2.3734
2.37132
2.3673
2.36345
2.35863
2.35232
2.34433
2.33776
2.33201
1
1
1
1
1
1
1
1
1
1
1
1
1
1
1
1
1
1
1
1
1
1
1
1
1
1
1
1
1
1
1
1
1
1
1
1
1
1
1
1
1
1
1
1
1
1
1
1
1
1
1
1
1
1
1
1
1
1
1
1
1
1
1
1
1
1
1.00013
1.04484
1.63862
2.25606
2.32823
2.32528
2.32308
2.32119
2.3193
2.31734
2.31511
2.31514
2.31675
2.32138
2.33184
2.3439
2.35662
2.36737
2.37491
2.37913
2.37975
2.37827
2.37397
2.36885
2.36498
2.36032
2.3539
2.34705
2.34221
2.33721
1
1
1
1
1
1
1
1
1
1
1
1
1
1
1
1
1
1
1
1
1
1
1
1
1
1
1
1
1
1
1
1
1
1
1
1
1
1
1
1
1
1
1
1
1
1
1
1
1
1
1
1
1
1
1
1
1
1
1
1
1
1
1
1
1
1
1
1.00022
1.05013
1.62396
2.23804
2.31693
2.31437
2.3117
2.30832
2.30465
2.30367
2.30582
2.3141
2.32823
2.34526
2.36077
2.37202
2.38126
2.38276
2.38192
2.38037
2.37761
2.37296
2.36865
2.36587
2.36178
2.35588
2.35072
2.34705
2.34228
1
1
1
1
1
1
1
1
1
1
1
1
1
1
1
1
1
1
1
1
1
1
1
1
1
1
1
1
1
1
1
1
1
1
1
1
1
1
1
1
1
1
1
1
1
1
1
1
1
1
1
1
1
1
1
1
1
1
1
1
1
1
1
1
1
1
1
1
1.00027
1.04777
1.60434
2.21585
2.3043
2.30221
2.29861
2.29722
2.30004
2.31229
2.33058
2.35106
2.36761
2.37697
2.38521
2.38487
2.38222
2.37997
2.37799
2.37497
2.37051
2.36753
2.36562
2.36187
2.35689
2.3535
2.35046
2.34579
1
1
1
1
1
1
1
1
1
1
1
1
1
1
1
1
1
1
1
1
1
1
1
1
1
1
1
1
1
1
1
1
1
1
1
1
1
1
1
1
1
1
1
1
1
1
1
1
1
1
1
1
1
1
1
1
1
1
1
1
1
1
1
1
1
1
1
1
1
1.00025
1.04384
1.57284
2.18604
2.28938
2.28914
2.29768
2.31654
2.34232
2.36426
2.37859
2.38596
2.38865
2.38735
2.38385
2.38014
2.37788
2.37576
2.3725
2.36877
2.36708
2.36556
2.36171
2.35712
2.35452
2.3516
2.34704
1
1
1
1
1
1
1
1
1
1
1
1
1
1
1
1
1
1
1
1
1
1
1
1
1
1
1
1
1
1
1
1
1
1
1
1
1
1
1
1
1
1
1
1
1
1
1
1
1
1
1
1
1
1
1
1
1
1
1
1
1
1
1
1
1
1
1
1
1
1
1.00022
1.03766
1.52569
2.14367
2.28771
2.32639
2.35328
2.37812
2.38837
2.3954
2.39256
2.38997
2.38586
2.38099
2.3779
2.3763
2.37374
2.36988
2.36725
2.36646
2.36487
2.36058
2.35645
2.35436
2.35155
2.34709
1
1
1
1
1
1
1
1
1
1
1
1
1
1
1
1
1
1
1
1
1
1
1
1
1
1
1
1
1
1
1
1
1
1
1
1
1
1
1
1
1
1
1
1
1
1
1
1
1
1
1
1
1
1
1
1
1
1
1
1
1
1
1
1
1
1
1
1
1
1
1
1.00018
1.02957
1.45058
2.18999
2.38551
2.3953
2.40043
2.40029
2.39759
2.39357
2.39022
2.38553
2.38139
2.37903
2.37734
2.37402
2.3694
2.36696
2.36596
2.36334
2.35812
2.35477
2.35346
2.35086
2.34642
1
1
1
1
1
1
1
1
1
1
1
1
1
1
1
1
1
1
1
1
1
1
1
1
1
1
1
1
1
1
1
1
1
1
1
1
1
1
1
1
1
1
1
1
1
1
1
1
1
1
1
1
1
1
1
1
1
1
1
1
1
1
1
1
1
1
1
1
1
1
1
1
1.00013
1.0195
1.77908
2.46687
2.46219
2.44828
2.43295
2.41807
2.40613
2.39701
2.38949
2.38438
2.38119
2.37862
2.37498
2.37106
2.36873
2.36713
2.36329
2.35752
2.35456
2.35316
2.34974
2.34479
1
1
1
1
1
1
1
1
1
1
1
1
1
1
1
1
1
1
1
1
1
1
1
1
1
1
1
1
1
1
1
1
1
1
1
1
1
1
1
1
1
1
1
1
1
1
1
1
1
1
1
1
1
1
1
1
1
1
1
1
1
1
1
1
1
1
1
1
1
1
1
1
1
1.00005
1.11216
2.32769
2.54616
2.5136
2.48477
2.46071
2.44132
2.42631
2.41448
2.4042
2.3962
2.38971
2.38332
2.37765
2.37346
2.36978
2.36416
2.35896
2.3563
2.35445
2.35018
2.34536
1
1
1
1
1
1
1
1
1
1
1
1
1
1
1
1
1
1
1
1
1
1
1
1
1
1
1
1
1
1
1
1
1
1
1
1
1
1
1
1
1
1
1
1
1
1
1
1
1
1
1
1
1
1
1
1
1
1
1
1
1
1
1
1
1
1
1
1
1
1
1
1
1
1
1.0008
1.8715
2.53541
2.54511
2.53679
2.52259
2.50414
2.4846
2.46591
2.44917
2.43499
2.42252
2.41048
2.39964
2.39049
2.38252
2.37441
2.36766
2.36301
2.35883
2.35282
2.3479
1
1
1
1
1
1
1
1
1
1
1
1
1
1
1
1
1
1
1
1
1
1
1
1
1
1
1
1
1
1
1
1
1
1
1
1
1
1
1
1
1
1
1
1
1
1
1
1
1
1
1
1
1
1
1
1
1
1
1
1
1
1
1
1
1
1
1
1
1
1
1
1
1
1
1
1.13389
2.36194
2.59114
2.58301
2.57089
2.55648
2.54012
2.52277
2.50532
2.48779
2.47053
2.45389
2.43889
2.42546
2.41385
2.40297
2.39251
2.38375
2.37537
2.36718
2.36017
1
1
1
1
1
1
1
1
1
1
1
1
1
1
1
1
1
1
1
1
1
1
1
1
1
1
1
1
1
1
1
1
1
1
1
1
1
1
1
1
1
1
1
1
1
1
1
1
1
1
1
1
1
1
1
1
1
1
1
1
1
1
1
1
1
1
1
1
1
1
1
1
1
1
1
1.00113
1.9451
2.56947
2.58292
2.57884
2.57401
2.56726
2.55849
2.5478
2.53529
2.52135
2.50645
2.49143
2.47661
2.46178
2.44736
2.43394
2.42154
2.41004
2.39941
2.38882
1
1
1
1
1
1
1
1
1
1
1
1
1
1
1
1
1
1
1
1
1
1
1
1
1
1
1
1
1
1
1
1
1
1
1
1
1
1
1
1
1
1
1
1
1
1
1
1
1
1
1
1
1
1
1
1
1
1
1
1
1
1
1
1
1
1
1
1
1
1
1
1
1
1
1
1
1.27926
2.40844
2.59659
2.58918
2.5858
2.58226
2.57775
2.57179
2.56447
2.55598
2.54627
2.53544
2.52357
2.51075
2.49734
2.48376
2.47012
2.45655
2.44316
2.43011
1
1
1
1
1
1
1
1
1
1
1
1
1
1
1
1
1
1
1
1
1
1
1
1
1
1
1
1
1
1
1
1
1
1
1
1
1
1
1
1
1
1
1
1
1
1
1
1
1
1
1
1
1
1
1
1
1
1
1
1
1
1
1
1
1
1
1
1
1
1
1
1
1
1
1
1
1.00591
2.11947
2.60437
2.60208
2.5971
2.59274
2.58842
2.58407
2.57922
2.57376
2.56769
2.56088
2.55322
2.54464
2.53524
2.52505
2.51422
2.5026
2.49032
2.47804
1
1
1
1
1
1
1
1
1
1
1
1
1
1
1
1
1
1
1
1
1
1
1
1
1
1
1
1
1
1
1
1
1
1
1
1
1
1
1
1
1
1
1
1
1
1
1
1
1
1
1
1
1
1
1
1
1
1
1
1
1
1
1
1
1
1
1
1
1
1
1
1
1
1
1
1
1
1.58221
2.4979
2.61449
2.60925
2.60462
2.60008
2.59548
2.59094
2.5864
2.58176
2.57687
2.57156
2.56559
2.55899
2.55195
2.54429
2.53602
2.52713
2.51779
1
1
1
1
1
1
1
1
1
1
1
1
1
1
1
1
1
1
1
1
1
1
1
1
1
1
1
1
1
1
1
1
1
1
1
1
1
1
1
1
1
1
1
1
1
1
1
1
1
1
1
1
1
1
1
1
1
1
1
1
1
1
1
1
1
1
1
1
1
1
1
1
1
1
1
1
1
1.03918
2.29054
2.62732
2.62306
2.6157
2.61055
2.60539
2.60045
2.59566
2.59102
2.58648
2.58193
2.5773
2.57244
2.56729
2.56158
2.55545
2.54901
2.5422
1
1
1
1
1
1
1
1
1
1
1
1
1
1
1
1
1
1
1
1
1
1
1
1
1
1
1
1
1
1
1
1
1
1
1
1
1
1
1
1
1
1
1
1
1
1
1
1
1
1
1
1
1
1
1
1
1
1
1
1
1
1
1
1
1
1
1
1
1
1
1
1
1
1
1
1
1
1.00009
1.94841
2.5918
2.6189
2.6156
2.61316
2.60977
2.60601
2.60195
2.59773
2.59353
2.58932
2.58509
2.58081
2.57638
2.57182
2.56712
2.56222
2.55703
1
1
1
1
1
1
1
1
1
1
1
1
1
1
1
1
1
1
1
1
1
1
1
1
1
1
1
1
1
1
1
1
1
1
1
1
1
1
1
1
1
1
1
1
1
1
1
1
1
1
1
1
1
1
1
1
1
1
1
1
1
1
1
1
1
1
1
1
1
1
1
1
1
1
1
1
1
1
1.45416
2.47198
2.63023
2.62442
2.62186
2.61826
2.61424
2.60999
2.60574
2.60158
2.59743
2.59323
2.58904
2.58477
2.5805
2.57615
2.57171
2.56715
1
1
1
1
1
1
1
1
1
1
1
1
1
1
1
1
1
1
1
1
1
1
1
1
1
1
1
1
1
1
1
1
1
1
1
1
1
1
1
1
1
1
1
1
1
1
1
1
1
1
1
1
1
1
1
1
1
1
1
1
1
1
1
1
1
1
1
1
1
1
1
1
1
1
1
1
1
1
1.02255
2.28481
2.6435
2.63974
2.63257
2.62714
2.62195
2.61721
2.61282
2.60865
2.60453
2.60035
2.59617
2.5919
2.58761
2.58327
2.57888
2.57447
1
1
1
1
1
1
1
1
1
1
1
1
1
1
1
1
1
1
1
1
1
1
1
1
1
1
1
1
1
1
1
1
1
1
1
1
1
1
1
1
1
1
1
1
1
1
1
1
1
1
1
1
1
1
1
1
1
1
1
1
1
1
1
1
1
1
1
1
1
1
1
1
1
1
1
1
1
1
1.00003
2.00343
2.62073
2.63598
2.63254
2.62967
2.62594
2.62239
2.61871
2.61495
2.61111
2.60714
2.60312
2.59897
2.59477
2.59052
2.58622
2.58191
1
1
1
1
1
1
1
1
1
1
1
1
1
1
1
1
1
1
1
1
1
1
1
1
1
1
1
1
1
1
1
1
1
1
1
1
1
1
1
1
1
1
1
1
1
1
1
1
1
1
1
1
1
1
1
1
1
1
1
1
1
1
1
1
1
1
1
1
1
1
1
1
1
1
1
1
1
1
1
1.60585
2.52903
2.64608
2.63991
2.63705
2.63365
2.63036
2.62675
2.62295
2.61902
2.615
2.61093
2.60678
2.60259
2.59835
2.59409
2.58981
1
1
1
1
1
1
1
1
1
1
1
1
1
1
1
1
1
1
1
1
1
1
1
1
1
1
1
1
1
1
1
1
1
1
1
1
1
1
1
1
1
1
1
1
1
1
1
1
1
1
1
1
1
1
1
1
1
1
1
1
1
1
1
1
1
1
1
1
1
1
1
1
1
1
1
1
1
1
1
1.15708
2.37601
2.64881
2.64182
2.63849
2.63595
2.63327
2.63026
2.62702
2.62354
2.61988
2.61611
2.61224
2.60831
2.60431
2.60028
2.59619
1
1
1
1
1
1
1
1
1
1
1
1
1
1
1
1
1
1
1
1
1
1
1
1
1
1
1
1
1
1
1
1
1
1
1
1
1
1
1
1
1
1
1
1
1
1
1
1
1
1
1
1
1
1
1
1
1
1
1
1
1
1
1
1
1
1
1
1
1
1
1
1
1
1
1
1
1
1
1
1.0021
2.21091
2.65431
2.65179
2.64635
2.64267
2.63884
2.63518
2.63161
2.62798
2.62429
2.62057
2.61681
2.61306
2.60924
2.60539
2.60146
1
1
1
1
1
1
1
1
1
1
1
1
1
1
1
1
1
1
1
1
1
1
1
1
1
1
1
1
1
1
1
1
1
1
1
1
1
1
1
1
1
1
1
1
1
1
1
1
1
1
1
1
1
1
1
1
1
1
1
1
1
1
1
1
1
1
1
1
1
1
1
1
1
1
1
1
1
1
1
1
1.97045
2.63251
2.65723
2.65303
2.64947
2.64526
2.64121
2.63719
2.63323
2.62931
2.62545
2.62163
2.61783
2.614
2.61013
2.6062
1
1
1
1
1
1
1
1
1
1
1
1
1
1
1
1
1
1
1
1
1
1
1
1
1
1
1
1
1
1
1
1
1
1
1
1
1
1
1
1
1
1
1
1
1
1
1
1
1
1
1
1
1
1
1
1
1
1
1
1
1
1
1
1
1
1
1
1
1
1
1
1
1
1
1
1
1
1
1
1
1.67728
2.56299
2.66098
2.6554
2.6523
2.64855
2.64479
2.64092
2.63709
2.63331
2.62954
2.62571
2.62181
2.61789
2.61396
2.61004
1
1
1
1
1
1
1
1
1
1
1
1
1
1
1
1
1
1
1
1
1
1
1
1
1
1
1
1
1
1
1
1
1
1
1
1
1
1
1
1
1
1
1
1
1
1
1
1
1
1
1
1
1
1
1
1
1
1
1
1
1
1
1
1
1
1
1
1
1
1
1
1
1
1
1
1
1
1
1
1
1.34267
2.45672
2.66189
2.6566
2.65426
2.65132
2.64816
2.64483
2.64143
2.63796
2.63441
2.63074
2.62695
2.62312
2.61922
2.6153
1
1
1
1
1
1
1
1
1
1
1
1
1
1
1
1
1
1
1
1
1
1
1
1
1
1
1
1
1
1
1
1
1
1
1
1
1
1
1
1
1
1
1
1
1
1
1
1
1
1
1
1
1
1
1
1
1
1
1
1
1
1
1
1
1
1
1
1
1
1
1
1
1
1
1
1
1
1
1
1
1.06006
2.33711
2.66912
2.66262
2.65761
2.65378
2.65046
2.64722
2.64395
2.64069
2.63736
2.63393
2.63041
2.62687
2.62325
2.61955
1
1
1
1
1
1
1
1
1
1
1
1
1
1
1
1
1
1
1
1
1
1
1
1
1
1
1
1
1
1
1
1
1
1
1
1
1
1
1
1
1
1
1
1
1
1
1
1
1
1
1
1
1
1
1
1
1
1
1
1
1
1
1
1
1
1
1
1
1
1
1
1
1
1
1
1
1
1
1
1
1.00044
2.20086
2.66679
2.66604
2.66154
2.65835
2.65497
2.65152
2.64804
2.64463
2.64123
2.63781
2.63439
2.631
2.62755
2.62399
1
1
1
1
1
1
1
1
1
1
1
1
1
1
1
1
1
1
1
1
1
1
1
1
1
1
1
1
1
1
1
1
1
1
1
1
1
1
1
1
1
1
1
1
1
1
1
1
1
1
1
1
1
1
1
1
1
1
1
1
1
1
1
1
1
1
1
1
1
1
1
1
1
1
1
1
1
1
1
1
1
2.03497
2.64981
2.66968
2.66564
2.66291
2.65947
2.65604
2.65252
2.64903
2.64553
2.64207
2.63863
2.63525
2.63184
2.62829
1
1
1
1
1
1
1
1
1
1
1
1
1
1
1
1
1
1
1
1
1
1
1
1
1
1
1
1
1
1
1
1
1
1
1
1
1
1
1
1
1
1
1
1
1
1
1
1
1
1
1
1
1
1
1
1
1
1
1
1
1
1
1
1
1
1
1
1
1
1
1
1
1
1
1
1
1
1
1
1
1
1.84933
2.61439
2.67244
2.66791
2.66564
2.6626
2.65951
2.65618
2.65275
2.64923
2.64571
2.64218
2.63868
2.63517
2.63156
1
1
1
1
1
1
1
1
1
1
1
1
1
1
1
1
1
1
1
1
1
1
1
1
1
1
1
1
1
1
1
1
1
1
1
1
1
1
1
1
1
1
1
1
1
1
1
1
1
1
1
1
1
1
1
1
1
1
1
1
1
1
1
1
1
1
1
1
1
1
1
1
1
1
1
1
1
1
1
1
1
1.65318
2.57255
2.67153
2.66626
2.66412
2.66136
2.65853
2.65545
2.65225
2.64892
2.64555
2.64208
2.6386
2.63511
2.6316
1
1
1
1
1
1
1
1
1
1
1
1
1
1
1
1
1
1
1
1
1
1
1
1
1
1
1
1
1
1
1
1
1
1
1
1
1
1
1
1
1
1
1
1
1
1
1
1
1
1
1
1
1
1
1
1
1
1
1
1
1
1
1
1
1
1
1
1
1
1
1
1
1
1
1
1
1
1
1
1
1
1.45715
2.51854
2.67226
2.6665
2.66415
2.66145
2.65876
2.6559
2.65294
2.64982
2.64661
2.64326
2.63989
2.63645
2.63303
1
1
1
1
1
1
1
1
1
1
1
1
1
1
1
1
1
1
1
1
1
1
1
1
1
1
1
1
1
1
1
1
1
1
1
1
1
1
1
1
1
1
1
1
1
1
1
1
1
1
1
1
1
1
1
1
1
1
1
1
1
1
1
1
1
1
1
1
1
1
1
1
1
1
1
1
1
1
1
1
1
1.296
2.45983
2.6757
2.66943
2.66625
2.66312
2.66018
2.65722
2.65421
2.65111
2.64795
2.64468
2.64136
2.63798
2.63461
1
1
1
1
1
1
1
1
1
1
1
1
1
1
1
1
1
1
1
1
1
1
1
1
1
1
1
1
1
1
1
1
1
1
1
1
1
1
1
1
1
1
1
1
1
1
1
1
1
1
1
1
1
1
1
1
1
1
1
1
1
1
1
1
1
1
1
1
1
1
1
1
1
1
1
1
1
1
1
1
1
1.17579
2.39731
2.67733
2.67294
2.66963
2.6664
2.66323
2.66004
2.65679
2.65355
2.65026
2.64696
2.64363
2.64025
2.63688
1
1
1
1
1
1
1
1
1
1
1
1
1
1
1
1
1
1
1
1
1
1
1
1
1
1
1
1
1
1
1
1
1
1
1
1
1
1
1
1
1
1
1
1
1
1
1
1
1
1
1
1
1
1
1
1
1
1
1
1
1
1
1
1
1
1
1
1
1
1
1
1
1
1
1
1
1
1
1
1
1
1.06565
2.33328
2.67769
2.67602
2.67207
2.66904
2.66583
2.66265
2.65937
2.65612
2.65279
2.64952
2.64619
2.64283
2.63945
1
1
1
1
1
1
1
1
1
1
1
1
1
1
1
1
1
1
1
1
1
1
1
1
1
1
1
1
1
1
1
1
1
1
1
1
1
1
1
1
1
1
1
1
1
1
1
1
1
1
1
1
1
1
1
1
1
1
1
1
1
1
1
1
1
1
1
1
1
1
1
1
1
1
1
1
1
1
1
1
1
1.00108
2.2739
2.67555
2.67711
2.67275
2.67013
2.66704
2.66402
2.66087
2.65775
2.65451
2.65133
2.64804
2.6447
2.64132
1
1
1
1
1
1
1
1
1
1
1
1
1
1
1
1
1
1
1
1
1
1
1
1
1
1
1
1
1
1
1
1
1
1
1
1
1
1
1
1
1
1
1
1
1
1
1
1
1
1
1
1
1
1
1
1
1
1
1
1
1
1
1
1
1
1
1
1
1
1
1
1
1
1
1
1
1
1
1
1
1
1
2.21138
2.67136
2.67736
2.67299
2.67058
2.66765
2.66479
2.66181
2.65884
2.65574
2.65269
2.64953
2.64631
2.64304
1
1
1
1
1
1
1
1
1
1
1
1
1
1
1
1
1
1
1
1
1
1
1
1
1
1
1
1
1
1
1
1
1
1
1
1
1
1
1
1
1
1
1
1
1
1
1
1
1
1
1
1
1
1
1
1
1
1
1
1
1
1
1
1
1
1
1
1
1
1
1
1
1
1
1
1
1
1
1
1
1
1
2.15713
2.66726
2.67809
2.67352
2.67108
2.66817
2.66532
2.66238
2.65941
2.65633
2.65327
2.65013
2.64693
2.64366
1
1
1
1
1
1
1
1
1
1
1
1
1
1
1
1
1
1
1
1
1
1
1
1
1
1
1
1
1
1
1
1
1
1
1
1
1
1
1
1
1
1
1
1
1
1
1
1
1
1
1
1
1
1
1
1
1
1
1
1
1
1
1
1
1
1
1
1
1
1
1
1
1
1
1
1
1
1
1
1
1
1
2.11456
2.6638
2.67891
2.67409
2.67155
2.66861
2.66573
2.6628
2.65983
2.65676
2.65368
2.65056
2.64738
2.64411
1
1
1
1
1
1
1
1
1
1
1
1
1
1
1
1
1
1
1
1
1
1
1
1
1
1
1
1
1
1
1
1
1
1
1
1
1
1
1
1
1
1
1
1
1
1
1
1
1
1
1