/*--------------------------------*- C++ -*----------------------------------*\
  =========                 |
  \\      /  F ield         | OpenFOAM: The Open Source CFD Toolbox
   \\    /   O peration     | Website:  https://openfoam.org
    \\  /    A nd           | Version:  7
     \\/     M anipulation  |
\*---------------------------------------------------------------------------*/
FoamFile
{
    version     2.0;
    format      ascii;
    class       volVectorField;
    location    "9.1";
    object      U;
}
// * * * * * * * * * * * * * * * * * * * * * * * * * * * * * * * * * * * * * //

dimensions      [0 1 -1 0 0 0 0];

internalField   nonuniform List<vector> 
19968
(
(3 9.65425e-18 0)
(3 -2.61062e-16 0)
(3 -2.45497e-16 0)
(3 -7.14923e-17 0)
(3 4.57765e-16 0)
(3 1.09025e-15 0)
(3 1.2931e-15 0)
(3 1.38252e-15 0)
(3 1.35611e-15 0)
(3 1.2372e-15 0)
(3 1.56892e-15 0)
(3 1.401e-15 0)
(3 1.37482e-15 0)
(3 1.07619e-15 0)
(3 6.87259e-16 0)
(3 -7.9798e-17 0)
(3 -2.13945e-16 0)
(3 -4.14612e-16 0)
(3 -5.72635e-16 0)
(3 -4.09991e-16 0)
(3 -1.54572e-16 0)
(3 2.32624e-16 0)
(3 6.97447e-16 0)
(3 1.03189e-15 0)
(3 1.44868e-15 0)
(3 1.45015e-15 0)
(3 7.81322e-16 0)
(3 7.3191e-17 0)
(3 -7.6428e-16 0)
(3 -7.5004e-16 0)
(3 9.89866e-18 0)
(3 5.35011e-16 0)
(3 5.11479e-16 0)
(3 -3.97337e-16 0)
(3 -4.71884e-16 0)
(3 -9.55036e-16 0)
(3 -2.03146e-15 0)
(3 -2.20372e-15 0)
(3 -2.02751e-15 0)
(3 -1.1415e-15 0)
(3 -5.58043e-16 0)
(3 -5.26497e-16 0)
(3 3.8323e-16 0)
(3 1.42952e-16 0)
(3 -6.07499e-17 0)
(3 -1.40164e-16 0)
(3 4.30495e-16 0)
(3 1.08153e-16 0)
(2.79242 0.00230962 0)
(0.968141 0.00666187 0)
(0.758865 0.00974299 0)
(0.742356 0.00708655 0)
(0.727488 0.00694486 0)
(0.713728 0.00766385 0)
(0.699012 0.00886795 0)
(0.683166 0.00993056 0)
(0.666787 0.00990023 0)
(0.65119 0.00895935 0)
(0.636533 0.00831433 0)
(0.621964 0.00851544 0)
(0.606704 0.00926982 0)
(0.5907 0.00980112 0)
(0.574848 0.0095112 0)
(0.559883 0.00899161 0)
(0.545314 0.00909448 0)
(0.530275 0.0096056 0)
(0.514668 0.0098989 0)
(0.499012 0.00984586 0)
(0.483591 0.00974368 0)
(0.46828 0.00977274 0)
(0.452824 0.00992382 0)
(0.43703 0.0101142 0)
(0.420864 0.0102592 0)
(0.40445 0.0103478 0)
(0.387957 0.0104358 0)
(0.371495 0.010563 0)
(0.355091 0.0107239 0)
(0.338707 0.0109022 0)
(0.322259 0.0110848 0)
(0.305655 0.0112506 0)
(0.288849 0.0113839 0)
(0.271879 0.0114909 0)
(0.254859 0.0115878 0)
(0.237905 0.0116862 0)
(0.221047 0.0117964 0)
(0.204188 0.0119293 0)
(0.187133 0.0120932 0)
(0.169654 0.01229 0)
(0.151555 0.0125185 0)
(0.13273 0.012778 0)
(0.113198 0.0130738 0)
(0.0931066 0.0133994 0)
(0.0726638 0.0137695 0)
(0.0520262 0.014191 0)
(0.0312386 0.0144759 0)
(0.0106732 0.0149331 0)
(3 1.14243e-16 0)
(3 9.1458e-17 0)
(3 1.23025e-16 0)
(3 4.52575e-16 0)
(3 1.59866e-15 0)
(3 2.37478e-15 0)
(3 3.01505e-15 0)
(3 2.35794e-15 0)
(3 1.19975e-15 0)
(3 6.83495e-16 0)
(3 8.73862e-16 0)
(3 1.06412e-15 0)
(3 1.38853e-15 0)
(3 1.24801e-15 0)
(3 3.47713e-16 0)
(3 -2.09018e-16 0)
(3 2.38395e-16 0)
(3 2.08167e-16 0)
(3 -1.39597e-17 0)
(3 2.69666e-16 0)
(3 2.58008e-16 0)
(3 8.67055e-16 0)
(3 9.20565e-16 0)
(3 6.05042e-16 0)
(3 7.77451e-16 0)
(3 1.1544e-15 0)
(3 9.29793e-16 0)
(3 -1.29152e-16 0)
(3 -7.41457e-16 0)
(3 -3.84087e-16 0)
(3 -7.68572e-17 0)
(3 2.51295e-16 0)
(3 7.27767e-16 0)
(3 4.15159e-16 0)
(3 -5.84951e-16 0)
(3 -6.90629e-16 0)
(3 -8.66558e-16 0)
(3 -1.26063e-15 0)
(3 -1.37833e-15 0)
(3 -9.56672e-16 0)
(3 -4.29144e-17 0)
(3 9.52388e-17 0)
(3 2.32939e-16 0)
(3 1.22065e-16 0)
(3 -8.15389e-16 0)
(3 -9.19169e-16 0)
(3 -3.42497e-16 0)
(3 5.5601e-16 0)
(2.80622 0.0129518 0)
(0.972348 0.0302116 0)
(0.754644 0.0336599 0)
(0.738765 0.0229837 0)
(0.722929 0.0207906 0)
(0.708924 0.0223028 0)
(0.694407 0.0256326 0)
(0.679072 0.0286106 0)
(0.663341 0.0289328 0)
(0.648193 0.0269124 0)
(0.633433 0.0253038 0)
(0.618587 0.0257236 0)
(0.603302 0.0277341 0)
(0.587406 0.0292938 0)
(0.571661 0.0287197 0)
(0.55663 0.0274777 0)
(0.541865 0.0277936 0)
(0.526777 0.0292328 0)
(0.511202 0.0300593 0)
(0.495606 0.0299759 0)
(0.480165 0.0297969 0)
(0.464745 0.029934 0)
(0.449165 0.0303282 0)
(0.433304 0.030807 0)
(0.417129 0.0311996 0)
(0.400722 0.0314779 0)
(0.384225 0.0317555 0)
(0.367751 0.0321192 0)
(0.351335 0.0325609 0)
(0.334926 0.0330567 0)
(0.318418 0.033589 0)
(0.301709 0.0341049 0)
(0.284772 0.0345541 0)
(0.267682 0.0349405 0)
(0.250587 0.0352921 0)
(0.233625 0.035624 0)
(0.216826 0.0359579 0)
(0.200073 0.036334 0)
(0.183148 0.0367942 0)
(0.165811 0.0373602 0)
(0.147877 0.0380386 0)
(0.129261 0.0388282 0)
(0.110005 0.0397401 0)
(0.0902693 0.0407492 0)
(0.0702761 0.0418772 0)
(0.0501973 0.0431523 0)
(0.0300507 0.0439903 0)
(0.0102475 0.0452789 0)
(3 -7.96434e-17 0)
(3 1.67361e-16 0)
(3 2.34548e-16 0)
(3 2.28913e-16 0)
(3 1.92407e-16 0)
(3 1.08092e-16 0)
(3 -1.20645e-16 0)
(3 -8.60813e-16 0)
(3 -1.30179e-15 0)
(3 -8.79121e-16 0)
(3 -1.76703e-15 0)
(3 -1.51846e-15 0)
(3 -9.66188e-16 0)
(3 -7.34107e-16 0)
(3 -1.86899e-16 0)
(3 -1.95372e-16 0)
(3 -5.39325e-16 0)
(3 1.03815e-16 0)
(3 3.05701e-16 0)
(3 2.96859e-16 0)
(3 2.30972e-16 0)
(3 1.52155e-16 0)
(3 2.45188e-16 0)
(3 2.3041e-16 0)
(3 3.80992e-16 0)
(3 2.49804e-16 0)
(3 -1.45652e-17 0)
(3 -1.8918e-16 0)
(3 4.31065e-16 0)
(3 1.1358e-15 0)
(3 4.44244e-16 0)
(3 1.21699e-15 0)
(3 1.9095e-15 0)
(3 1.72417e-15 0)
(3 -1.09001e-16 0)
(3 -3.27439e-16 0)
(3 3.19235e-16 0)
(3 5.199e-16 0)
(3 4.48727e-16 0)
(3 -2.98798e-16 0)
(3 -8.02851e-16 0)
(3 -1.13545e-15 0)
(3 -1.07293e-15 0)
(3 -5.27349e-16 0)
(3 4.53964e-16 0)
(3 -5.83155e-16 0)
(3 -8.33733e-16 0)
(3 8.46935e-17 0)
(2.84242 0.0210638 0)
(0.989141 0.0521166 0)
(0.759394 0.0548763 0)
(0.744476 0.0414545 0)
(0.726388 0.0375857 0)
(0.710756 0.0393258 0)
(0.695654 0.0441143 0)
(0.680362 0.0483299 0)
(0.665 0.048796 0)
(0.650144 0.0462475 0)
(0.635175 0.044148 0)
(0.619886 0.0447289 0)
(0.604394 0.0475826 0)
(0.588424 0.0497878 0)
(0.572609 0.0489691 0)
(0.557345 0.0472373 0)
(0.542235 0.0478342 0)
(0.526983 0.0500911 0)
(0.511316 0.0513537 0)
(0.495668 0.0512552 0)
(0.480104 0.0511181 0)
(0.464478 0.0514807 0)
(0.448672 0.0521558 0)
(0.43263 0.0529039 0)
(0.416333 0.0535441 0)
(0.399823 0.0540607 0)
(0.383211 0.0545917 0)
(0.366612 0.0552308 0)
(0.350076 0.0559541 0)
(0.333543 0.0567303 0)
(0.316884 0.0575439 0)
(0.299983 0.0583276 0)
(0.282824 0.0590161 0)
(0.265516 0.0596241 0)
(0.248251 0.060197 0)
(0.231194 0.0607521 0)
(0.214388 0.0613135 0)
(0.197704 0.0619382 0)
(0.180893 0.0626905 0)
(0.163684 0.0636042 0)
(0.145877 0.0646878 0)
(0.127394 0.0659347 0)
(0.108294 0.0673579 0)
(0.0887467 0.0689209 0)
(0.0689862 0.0706457 0)
(0.049211 0.0726173 0)
(0.029396 0.0738606 0)
(0.0100205 0.075823 0)
(3 -1.1052e-17 0)
(3 1.64027e-16 0)
(3 5.65069e-16 0)
(3 3.74743e-16 0)
(3 -1.01616e-16 0)
(3 8.28332e-17 0)
(3 -1.44568e-16 0)
(3 7.18135e-17 0)
(3 3.41632e-16 0)
(3 2.00373e-16 0)
(3 -1.35555e-16 0)
(3 -6.60478e-16 0)
(3 -1.07621e-15 0)
(3 -1.12224e-16 0)
(3 8.80493e-16 0)
(3 8.65615e-16 0)
(3 6.13701e-16 0)
(3 2.20086e-16 0)
(3 -5.14089e-16 0)
(3 -7.78843e-16 0)
(3 -6.88317e-16 0)
(3 -7.13919e-16 0)
(3 -5.49314e-16 0)
(3 1.79022e-16 0)
(3 5.68447e-16 0)
(3 6.84335e-16 0)
(3 3.98412e-16 0)
(3 -2.45098e-16 0)
(3 -4.44045e-17 0)
(3 -1.12243e-16 0)
(3 -2.7308e-16 0)
(3 5.80215e-17 0)
(3 3.53502e-16 0)
(3 4.19661e-16 0)
(3 -5.7202e-16 0)
(3 -9.4428e-16 0)
(3 -1.41775e-15 0)
(3 -1.06728e-15 0)
(3 -7.76186e-16 0)
(3 -7.98491e-16 0)
(3 -1.00945e-15 0)
(3 -7.37223e-16 0)
(3 -5.22707e-16 0)
(3 -3.21024e-16 0)
(3 -8.54036e-16 0)
(3 -1.37611e-15 0)
(3 -9.92738e-16 0)
(3 -1.04434e-15 0)
(2.88913 0.0242421 0)
(1.0123 0.0721332 0)
(0.760105 0.0739093 0)
(0.745778 0.0613074 0)
(0.728 0.0569187 0)
(0.711923 0.0582756 0)
(0.696908 0.0634267 0)
(0.682192 0.0681086 0)
(0.667578 0.0687168 0)
(0.653228 0.0662734 0)
(0.63835 0.0641288 0)
(0.622936 0.0647967 0)
(0.60749 0.068139 0)
(0.591689 0.0708441 0)
(0.575945 0.0700856 0)
(0.560512 0.0682115 0)
(0.545098 0.0691271 0)
(0.529687 0.0720448 0)
(0.513903 0.0736477 0)
(0.498155 0.0735874 0)
(0.482418 0.0736519 0)
(0.466547 0.0744024 0)
(0.450462 0.0754342 0)
(0.434173 0.076454 0)
(0.417676 0.0773565 0)
(0.400971 0.0781725 0)
(0.384126 0.0790245 0)
(0.367256 0.0799754 0)
(0.350413 0.0809815 0)
(0.33353 0.0820103 0)
(0.31646 0.0830521 0)
(0.299085 0.0840294 0)
(0.281413 0.0848698 0)
(0.263603 0.08561 0)
(0.245896 0.0863257 0)
(0.228498 0.0870433 0)
(0.211478 0.0877879 0)
(0.194719 0.0886266 0)
(0.177965 0.089643 0)
(0.160932 0.090883 0)
(0.143403 0.0923607 0)
(0.125282 0.0940666 0)
(0.106602 0.0960116 0)
(0.0874853 0.0981528 0)
(0.0681128 0.100478 0)
(0.0486826 0.103155 0)
(0.0290933 0.104795 0)
(0.00995638 0.107386 0)
(3 1.79677e-16 0)
(3 2.01089e-16 0)
(3 9.42534e-17 0)
(3 4.16522e-18 0)
(3 -1.46669e-16 0)
(3 -2.37877e-16 0)
(3 3.22846e-16 0)
(3 1.06934e-15 0)
(3 1.11979e-15 0)
(3 1.18662e-15 0)
(3 2.05289e-15 0)
(3 1.31031e-15 0)
(3 4.697e-16 0)
(3 3.47473e-16 0)
(3 7.31461e-16 0)
(3 1.42782e-15 0)
(3 1.82464e-15 0)
(3 9.54367e-16 0)
(3 -9.04321e-17 0)
(3 -9.13324e-16 0)
(3 -9.74523e-16 0)
(3 -6.02049e-16 0)
(3 -1.70807e-16 0)
(3 8.60365e-16 0)
(3 1.15572e-15 0)
(3 1.48383e-15 0)
(3 1.66231e-15 0)
(3 1.42258e-15 0)
(3 5.10715e-16 0)
(3 -6.16138e-16 0)
(3 -4.362e-16 0)
(3 2.86102e-16 0)
(3 4.48991e-16 0)
(3 6.94854e-16 0)
(3 6.74356e-16 0)
(3 4.95251e-16 0)
(3 2.35735e-16 0)
(3 4.64765e-16 0)
(3 7.31997e-16 0)
(3 7.27697e-16 0)
(3 1.34231e-16 0)
(3 -6.61611e-16 0)
(3 -3.98548e-16 0)
(3 -8.03371e-16 0)
(3 -1.4397e-15 0)
(3 -1.58402e-15 0)
(3 -1.33373e-15 0)
(3 -3.65175e-16 0)
(2.93826 0.0305155 0)
(1.03951 0.100426 0)
(0.761423 0.0917511 0)
(0.749713 0.0798987 0)
(0.733943 0.0771845 0)
(0.718054 0.0786438 0)
(0.702804 0.0836772 0)
(0.68819 0.0881056 0)
(0.673929 0.0888788 0)
(0.659644 0.087072 0)
(0.64458 0.0853252 0)
(0.628893 0.0859969 0)
(0.613428 0.0894307 0)
(0.597941 0.0924728 0)
(0.58246 0.0921257 0)
(0.567047 0.0905471 0)
(0.551509 0.0918778 0)
(0.53604 0.0953287 0)
(0.520221 0.0971709 0)
(0.50446 0.0971782 0)
(0.488671 0.0975847 0)
(0.472712 0.0989235 0)
(0.456491 0.100471 0)
(0.440068 0.101835 0)
(0.42348 0.103064 0)
(0.406687 0.104293 0)
(0.389697 0.105596 0)
(0.372595 0.10696 0)
(0.355429 0.108312 0)
(0.338131 0.109629 0)
(0.320544 0.110923 0)
(0.302544 0.112127 0)
(0.284151 0.113164 0)
(0.265553 0.114074 0)
(0.247019 0.11494 0)
(0.228783 0.115782 0)
(0.21095 0.116608 0)
(0.193452 0.117488 0)
(0.176077 0.11853 0)
(0.158574 0.119815 0)
(0.140756 0.121399 0)
(0.122548 0.123307 0)
(0.10399 0.125574 0)
(0.085179 0.128185 0)
(0.0662319 0.131051 0)
(0.0473395 0.13444 0)
(0.028259 0.136509 0)
(0.00969104 0.13972 0)
(3 9.40187e-17 0)
(3 7.74232e-17 0)
(3 8.38702e-17 0)
(3 -1.97679e-16 0)
(3 -2.89805e-16 0)
(3 -7.63683e-16 0)
(3 -6.21095e-16 0)
(3 -1.45986e-16 0)
(3 7.69907e-17 0)
(3 1.37841e-15 0)
(3 1.66449e-15 0)
(3 1.6014e-15 0)
(3 1.3787e-15 0)
(3 6.94556e-16 0)
(3 2.23556e-16 0)
(3 7.07386e-16 0)
(3 6.02898e-16 0)
(3 6.20016e-16 0)
(3 6.04415e-16 0)
(3 7.13531e-16 0)
(3 8.95907e-16 0)
(3 1.13886e-15 0)
(3 1.60457e-15 0)
(3 1.92408e-15 0)
(3 2.165e-15 0)
(3 2.41949e-15 0)
(3 2.72522e-15 0)
(3 2.82412e-15 0)
(3 2.88346e-15 0)
(3 2.34292e-15 0)
(3 2.16334e-15 0)
(3 2.29909e-15 0)
(3 2.39561e-15 0)
(3 2.20949e-15 0)
(3 2.01561e-15 0)
(3 1.99572e-15 0)
(3 2.19356e-15 0)
(3 2.2912e-15 0)
(3 2.47578e-15 0)
(3 2.61833e-15 0)
(3 1.99057e-15 0)
(3 9.22007e-16 0)
(3 3.53593e-16 0)
(3 -9.61748e-16 0)
(3 5.4794e-17 0)
(3 1.19068e-15 0)
(3 1.05961e-15 0)
(3 1.50694e-16 0)
(2.99799 0.00325239 0)
(1.10606 0.120972 0)
(0.77499 0.102844 0)
(0.759896 0.0950815 0)
(0.744909 0.0968971 0)
(0.728781 0.100126 0)
(0.713253 0.104882 0)
(0.698557 0.108251 0)
(0.684475 0.109054 0)
(0.670149 0.108436 0)
(0.654913 0.107619 0)
(0.639056 0.108081 0)
(0.62365 0.110835 0)
(0.608686 0.113654 0)
(0.593755 0.113802 0)
(0.578636 0.112924 0)
(0.563246 0.114845 0)
(0.547872 0.118733 0)
(0.532133 0.120662 0)
(0.51649 0.120626 0)
(0.50082 0.121363 0)
(0.485005 0.123416 0)
(0.468879 0.125654 0)
(0.452523 0.127438 0)
(0.43604 0.129012 0)
(0.419376 0.130716 0)
(0.402469 0.132589 0)
(0.385347 0.134502 0)
(0.368046 0.136346 0)
(0.350505 0.13811 0)
(0.332579 0.139829 0)
(0.314146 0.141446 0)
(0.295223 0.142885 0)
(0.275988 0.144193 0)
(0.256698 0.145457 0)
(0.23758 0.146679 0)
(0.218752 0.147831 0)
(0.200187 0.148949 0)
(0.181734 0.150135 0)
(0.163192 0.15148 0)
(0.144418 0.153067 0)
(0.125373 0.154973 0)
(0.106121 0.157275 0)
(0.0867691 0.160058 0)
(0.0673849 0.163161 0)
(0.0481674 0.167036 0)
(0.0287373 0.169398 0)
(0.00985767 0.17309 0)
(3 -4.73327e-17 0)
(3 -1.61827e-16 0)
(3 2.28218e-17 0)
(3 -1.67176e-16 0)
(3 -2.33541e-16 0)
(3 -1.11474e-16 0)
(3 -5.84783e-17 0)
(3 3.79899e-17 0)
(3 3.9625e-16 0)
(3 6.79618e-16 0)
(3 8.76564e-16 0)
(3 1.17468e-15 0)
(3 1.13959e-15 0)
(3 8.3665e-16 0)
(3 5.72358e-16 0)
(3 4.16939e-16 0)
(3 3.25377e-16 0)
(3 2.38884e-16 0)
(3 7.83322e-16 0)
(3 2.4542e-15 0)
(3 3.21674e-15 0)
(3 3.35502e-15 0)
(3 3.35243e-15 0)
(3 2.19564e-15 0)
(3 1.72806e-15 0)
(3 1.75097e-15 0)
(3 2.11065e-15 0)
(3 2.34637e-15 0)
(3 3.00312e-15 0)
(3 3.21369e-15 0)
(3 2.97581e-15 0)
(3 2.78604e-15 0)
(3 2.69881e-15 0)
(3 2.2196e-15 0)
(3 1.89068e-15 0)
(3 9.00656e-16 0)
(3 8.02938e-16 0)
(3 1.24804e-15 0)
(3 1.46146e-15 0)
(3 1.81622e-15 0)
(3 1.81536e-15 0)
(3 1.62073e-15 0)
(3 1.32431e-15 0)
(3 2.00727e-15 0)
(3 2.83743e-15 0)
(3 3.15993e-15 0)
(3 1.7508e-15 0)
(3 9.27275e-16 0)
(3.00004 3.44484e-05 0)
(1.22405 0.138663 0)
(0.779073 0.121226 0)
(0.754742 0.117449 0)
(0.738484 0.121053 0)
(0.721965 0.124124 0)
(0.707125 0.127691 0)
(0.693262 0.130419 0)
(0.679658 0.131872 0)
(0.665507 0.132805 0)
(0.650427 0.13326 0)
(0.634883 0.133213 0)
(0.619923 0.13449 0)
(0.605778 0.136695 0)
(0.591684 0.137477 0)
(0.577119 0.137748 0)
(0.562173 0.140625 0)
(0.547104 0.144974 0)
(0.531659 0.146891 0)
(0.516383 0.146712 0)
(0.50111 0.147704 0)
(0.485795 0.150516 0)
(0.470167 0.153598 0)
(0.454259 0.155912 0)
(0.438265 0.157855 0)
(0.422166 0.160067 0)
(0.405833 0.162581 0)
(0.389194 0.165119 0)
(0.372242 0.167509 0)
(0.354938 0.169762 0)
(0.337193 0.171943 0)
(0.318929 0.174014 0)
(0.30016 0.175896 0)
(0.28102 0.177623 0)
(0.261704 0.179289 0)
(0.242386 0.180886 0)
(0.223171 0.182358 0)
(0.204076 0.18371 0)
(0.185026 0.185027 0)
(0.165896 0.186397 0)
(0.146591 0.18791 0)
(0.127098 0.189693 0)
(0.107485 0.191848 0)
(0.08786 0.194611 0)
(0.0682381 0.197729 0)
(0.0488384 0.20193 0)
(0.0291528 0.204484 0)
(0.00999891 0.208551 0)
(3 -1.48686e-16 0)
(3 -3.49665e-16 0)
(3 -4.45737e-16 0)
(3 -4.39629e-16 0)
(3 -8.88192e-17 0)
(3 3.34655e-16 0)
(3 3.313e-17 0)
(3 1.1571e-16 0)
(3 2.19635e-16 0)
(3 1.75047e-16 0)
(3 3.22271e-16 0)
(3 4.38506e-16 0)
(3 6.15354e-16 0)
(3 6.85636e-16 0)
(3 6.92326e-16 0)
(3 5.40303e-16 0)
(3 9.12071e-16 0)
(3 1.05541e-15 0)
(3 1.77073e-15 0)
(3 2.60116e-15 0)
(3 2.6646e-15 0)
(3 2.75943e-15 0)
(3 2.44353e-15 0)
(3 1.94139e-15 0)
(3 1.63572e-15 0)
(3 1.15903e-15 0)
(3 1.01376e-15 0)
(3 1.52018e-15 0)
(3 2.27398e-15 0)
(3 2.73339e-15 0)
(3 2.84939e-15 0)
(3 2.75607e-15 0)
(3 2.07783e-15 0)
(3 1.68488e-15 0)
(3 1.1485e-15 0)
(3 1.05749e-15 0)
(3 9.53608e-16 0)
(3 6.73652e-16 0)
(3 5.59591e-16 0)
(3 1.02444e-15 0)
(3 7.21559e-16 0)
(3 4.87804e-16 0)
(3 1.65943e-15 0)
(3 3.47273e-15 0)
(3 3.81048e-15 0)
(3 2.90737e-15 0)
(3 2.70328e-15 0)
(3 2.6613e-15 0)
(3 6.49186e-08 0)
(1.42613 0.165029 0)
(0.793609 0.143616 0)
(0.756086 0.145443 0)
(0.737496 0.146282 0)
(0.720449 0.14712 0)
(0.705791 0.148959 0)
(0.692202 0.151399 0)
(0.678762 0.154171 0)
(0.664724 0.157147 0)
(0.649774 0.159052 0)
(0.634535 0.158407 0)
(0.619893 0.157663 0)
(0.606193 0.158686 0)
(0.592764 0.159966 0)
(0.57881 0.161606 0)
(0.56455 0.165642 0)
(0.550074 0.170501 0)
(0.535223 0.172326 0)
(0.520635 0.171824 0)
(0.506078 0.172867 0)
(0.491603 0.176318 0)
(0.476805 0.180339 0)
(0.461571 0.183327 0)
(0.44619 0.18565 0)
(0.430729 0.188348 0)
(0.41502 0.19157 0)
(0.398881 0.194887 0)
(0.382255 0.198028 0)
(0.365136 0.201015 0)
(0.347502 0.203955 0)
(0.329323 0.206831 0)
(0.31061 0.20954 0)
(0.291445 0.21208 0)
(0.271954 0.214521 0)
(0.252257 0.216845 0)
(0.232439 0.218968 0)
(0.212544 0.220858 0)
(0.192574 0.222574 0)
(0.172486 0.224187 0)
(0.15225 0.225767 0)
(0.131885 0.227484 0)
(0.111463 0.229443 0)
(0.0911017 0.232081 0)
(0.0707642 0.235026 0)
(0.0507047 0.239398 0)
(0.0302901 0.242047 0)
(0.0103588 0.246396 0)
(3 1.0451e-16 0)
(3 3.14443e-16 0)
(3 4.15335e-16 0)
(3 7.81244e-16 0)
(3 1.00725e-15 0)
(3 8.5058e-16 0)
(3 5.95091e-16 0)
(3 7.10615e-16 0)
(3 8.39848e-16 0)
(3 7.58455e-16 0)
(3 7.15982e-16 0)
(3 2.72827e-16 0)
(3 1.29681e-16 0)
(3 3.22908e-16 0)
(3 2.75213e-16 0)
(3 1.51297e-16 0)
(3 3.76529e-16 0)
(3 9.76154e-16 0)
(3 1.18782e-15 0)
(3 1.02297e-15 0)
(3 4.18064e-16 0)
(3 4.90338e-17 0)
(3 2.0219e-17 0)
(3 3.25315e-16 0)
(3 6.14253e-16 0)
(3 9.19264e-16 0)
(3 1.19128e-15 0)
(3 1.14734e-15 0)
(3 8.11218e-16 0)
(3 6.9733e-16 0)
(3 3.8507e-16 0)
(3 1.15551e-15 0)
(3 1.63184e-15 0)
(3 1.48068e-15 0)
(3 2.0686e-15 0)
(3 2.60375e-15 0)
(3 2.4815e-15 0)
(3 1.9423e-15 0)
(3 1.65372e-15 0)
(3 1.74505e-15 0)
(3 2.16742e-15 0)
(3 2.28915e-15 0)
(3 2.24916e-15 0)
(3 2.37327e-15 0)
(3 2.53193e-15 0)
(3 2.28986e-15 0)
(3 2.34288e-15 0)
(3 2.16032e-15 0)
(3 1.25192e-10 0)
(1.73526 0.184111 0)
(0.82228 0.169086 0)
(0.762908 0.179242 0)
(0.743182 0.17362 0)
(0.724776 0.170647 0)
(0.709004 0.170366 0)
(0.69441 0.172721 0)
(0.680366 0.177209 0)
(0.666144 0.182674 0)
(0.651045 0.186185 0)
(0.635725 0.185269 0)
(0.620989 0.182536 0)
(0.606867 0.181923 0)
(0.59322 0.1833 0)
(0.579245 0.186164 0)
(0.565174 0.191379 0)
(0.550858 0.196757 0)
(0.536178 0.198507 0)
(0.521837 0.197597 0)
(0.507565 0.198475 0)
(0.493623 0.20245 0)
(0.479592 0.207567 0)
(0.465095 0.211525 0)
(0.450452 0.214341 0)
(0.435848 0.217509 0)
(0.421105 0.221479 0)
(0.405892 0.225718 0)
(0.390065 0.229793 0)
(0.373646 0.233705 0)
(0.356673 0.237606 0)
(0.339146 0.24151 0)
(0.321044 0.245297 0)
(0.302381 0.248899 0)
(0.283213 0.252353 0)
(0.263597 0.255628 0)
(0.24358 0.258627 0)
(0.223206 0.261288 0)
(0.20252 0.263642 0)
(0.181551 0.265739 0)
(0.160335 0.2676 0)
(0.138941 0.269415 0)
(0.117467 0.271244 0)
(0.0960602 0.273751 0)
(0.0746497 0.276389 0)
(0.0534869 0.280794 0)
(0.0319925 0.283461 0)
(0.0109106 0.288035 0)
(3 3.34849e-17 0)
(3 9.9727e-18 0)
(3 -5.03566e-17 0)
(3 -1.41985e-16 0)
(3 -4.15193e-16 0)
(3 -7.05802e-16 0)
(3 6.72363e-17 0)
(3 5.23776e-16 0)
(3 5.79968e-16 0)
(3 -1.18702e-16 0)
(3 -6.40931e-16 0)
(3 -1.03259e-15 0)
(3 -1.20046e-15 0)
(3 -5.95106e-16 0)
(3 -5.04176e-16 0)
(3 -3.1421e-16 0)
(3 -6.86948e-17 0)
(3 6.41734e-17 0)
(3 -1.0658e-16 0)
(3 -7.18986e-16 0)
(3 -6.99478e-16 0)
(3 -3.90083e-16 0)
(3 1.67775e-18 0)
(3 1.00388e-16 0)
(3 -6.75178e-18 0)
(3 -6.69496e-17 0)
(3 -2.97289e-16 0)
(3 -3.59443e-16 0)
(3 -5.29924e-16 0)
(3 -1.4897e-15 0)
(3 -1.66045e-15 0)
(3 -1.69686e-15 0)
(3 -1.23955e-15 0)
(3 -5.7963e-17 0)
(3 6.09614e-17 0)
(3 -1.72542e-16 0)
(3 3.99389e-16 0)
(3 6.84573e-16 0)
(3 1.28585e-15 0)
(3 2.15245e-15 0)
(3 2.07687e-15 0)
(3 2.26415e-15 0)
(3 2.09814e-15 0)
(3 1.29722e-15 0)
(3 4.8385e-16 0)
(3 4.48363e-16 0)
(3 -2.39927e-17 0)
(3 -5.61685e-16 0)
(3 2.2136e-13 0)
(2.15058 0.189984 0)
(0.860692 0.2074 0)
(0.759922 0.21462 0)
(0.744584 0.205114 0)
(0.727228 0.199045 0)
(0.711412 0.196355 0)
(0.696682 0.197933 0)
(0.683156 0.203311 0)
(0.670089 0.210512 0)
(0.655991 0.215272 0)
(0.641207 0.214573 0)
(0.626575 0.210624 0)
(0.611891 0.208416 0)
(0.597602 0.20943 0)
(0.583327 0.213083 0)
(0.569241 0.219235 0)
(0.554879 0.225053 0)
(0.540008 0.226795 0)
(0.525359 0.225374 0)
(0.51069 0.225559 0)
(0.496507 0.229432 0)
(0.482667 0.235308 0)
(0.468463 0.240233 0)
(0.454084 0.243436 0)
(0.439838 0.246733 0)
(0.425633 0.251164 0)
(0.411076 0.256251 0)
(0.395927 0.261341 0)
(0.380234 0.26633 0)
(0.364083 0.271398 0)
(0.347468 0.276602 0)
(0.330297 0.281808 0)
(0.312482 0.286884 0)
(0.293984 0.29181 0)
(0.274786 0.296536 0)
(0.254883 0.300941 0)
(0.234296 0.304914 0)
(0.213095 0.308425 0)
(0.191372 0.311482 0)
(0.169231 0.314029 0)
(0.14681 0.316255 0)
(0.124225 0.31814 0)
(0.101649 0.320589 0)
(0.0789648 0.322815 0)
(0.0565372 0.327103 0)
(0.0338509 0.329687 0)
(0.0115008 0.334462 0)
(3 -1.13107e-16 0)
(3 -3.60242e-16 0)
(3 -9.32362e-16 0)
(3 -1.13994e-15 0)
(3 -1.65163e-15 0)
(3 -1.60159e-15 0)
(3 -1.11338e-15 0)
(3 -9.51526e-16 0)
(3 -7.53439e-16 0)
(3 -5.94361e-16 0)
(3 -8.81206e-16 0)
(3 -7.5461e-16 0)
(3 -5.96895e-16 0)
(3 -2.1897e-16 0)
(3 7.21202e-17 0)
(3 2.2308e-16 0)
(3 6.79298e-17 0)
(3 -2.96112e-16 0)
(3 -7.39994e-16 0)
(3 -1.04861e-15 0)
(3 -5.38529e-16 0)
(3 -2.62713e-16 0)
(3 -1.99475e-16 0)
(3 -1.53399e-16 0)
(3 -4.59367e-16 0)
(3 -9.68119e-16 0)
(3 -1.11403e-15 0)
(3 -1.21056e-15 0)
(3 -1.38194e-15 0)
(3 -1.17664e-15 0)
(3 -1.60199e-15 0)
(3 -1.9085e-15 0)
(3 -1.90132e-15 0)
(3 -1.28701e-15 0)
(3 -4.96495e-16 0)
(3 -4.18923e-16 0)
(3 -4.862e-16 0)
(3 -8.02764e-16 0)
(3 3.64626e-17 0)
(3 3.84429e-16 0)
(3 1.14971e-15 0)
(3 1.41929e-15 0)
(3 1.31573e-15 0)
(3 8.56022e-16 0)
(3 6.63389e-16 0)
(3 5.3122e-16 0)
(3 1.77982e-16 0)
(3 -2.54847e-16 0)
(3 6.08512e-16 0)
(2.67077 0.174123 0)
(0.96048 0.257537 0)
(0.783653 0.23968 0)
(0.775034 0.227561 0)
(0.755808 0.223646 0)
(0.738925 0.218904 0)
(0.721955 0.219891 0)
(0.706659 0.225868 0)
(0.69278 0.234598 0)
(0.678463 0.241352 0)
(0.663221 0.242532 0)
(0.647893 0.239145 0)
(0.632179 0.236307 0)
(0.616628 0.237067 0)
(0.601473 0.241341 0)
(0.586936 0.248385 0)
(0.57227 0.255007 0)
(0.556836 0.257521 0)
(0.541223 0.256308 0)
(0.52537 0.255907 0)
(0.50994 0.259343 0)
(0.495345 0.265688 0)
(0.480682 0.271685 0)
(0.465682 0.275474 0)
(0.450684 0.278702 0)
(0.435786 0.283178 0)
(0.420733 0.288779 0)
(0.405231 0.294672 0)
(0.389329 0.300552 0)
(0.37318 0.306614 0)
(0.356807 0.312997 0)
(0.340096 0.319604 0)
(0.322884 0.32625 0)
(0.305071 0.33284 0)
(0.286581 0.339281 0)
(0.267334 0.345408 0)
(0.247254 0.351054 0)
(0.226304 0.356126 0)
(0.204497 0.360622 0)
(0.18187 0.364444 0)
(0.158559 0.367768 0)
(0.134691 0.370409 0)
(0.110529 0.373388 0)
(0.0859516 0.375576 0)
(0.0615678 0.379881 0)
(0.036876 0.382403 0)
(0.012505 0.387464 0)
(3 -5.83024e-17 0)
(3 -5.94651e-17 0)
(3 4.64139e-17 0)
(3 7.63332e-18 0)
(3 4.27821e-17 0)
(3 -6.69214e-17 0)
(3 -7.94928e-16 0)
(3 -1.38618e-15 0)
(3 -1.32344e-15 0)
(3 -1.0776e-15 0)
(3 -8.55958e-16 0)
(3 -4.86804e-16 0)
(3 -3.32795e-16 0)
(3 -3.78241e-16 0)
(3 -7.39286e-16 0)
(3 -8.98867e-16 0)
(3 -1.15208e-15 0)
(3 -1.38362e-15 0)
(3 -8.01908e-16 0)
(3 3.51909e-16 0)
(3 -8.08215e-17 0)
(3 -1.13212e-15 0)
(3 -1.78535e-15 0)
(3 -1.90091e-15 0)
(3 -1.14383e-15 0)
(3 -5.63281e-16 0)
(3 2.90224e-16 0)
(3 4.28163e-16 0)
(3 2.7017e-16 0)
(3 -2.10192e-16 0)
(3 -2.99988e-16 0)
(3 -8.09687e-16 0)
(3 -4.63748e-16 0)
(3 2.53628e-16 0)
(3 7.97636e-16 0)
(3 8.76856e-16 0)
(3 6.19857e-16 0)
(3 3.81692e-16 0)
(3 4.11366e-17 0)
(3 -1.94383e-16 0)
(3 6.8206e-17 0)
(3 7.01659e-16 0)
(3 1.21445e-15 0)
(3 1.39964e-15 0)
(3 1.11957e-15 0)
(3 7.90624e-16 0)
(3 8.25613e-16 0)
(3 2.92079e-16 0)
(3 -2.10151e-16 0)
(3.02095 0.0107452 0)
(1.14735 0.281183 0)
(0.810663 0.236011 0)
(0.798028 0.249339 0)
(0.781704 0.252092 0)
(0.765382 0.250153 0)
(0.748316 0.250353 0)
(0.732289 0.254604 0)
(0.718239 0.26196 0)
(0.704842 0.268338 0)
(0.690763 0.270347 0)
(0.676086 0.267972 0)
(0.660592 0.264972 0)
(0.64475 0.265067 0)
(0.629328 0.269048 0)
(0.614799 0.276178 0)
(0.600468 0.283508 0)
(0.585233 0.287502 0)
(0.56928 0.287594 0)
(0.552788 0.287124 0)
(0.536349 0.289811 0)
(0.520899 0.296133 0)
(0.505824 0.30334 0)
(0.490208 0.308566 0)
(0.474221 0.312275 0)
(0.458162 0.316844 0)
(0.442045 0.322922 0)
(0.425625 0.329699 0)
(0.40888 0.336548 0)
(0.391992 0.343564 0)
(0.375036 0.351001 0)
(0.357913 0.358888 0)
(0.340422 0.36707 0)
(0.322389 0.375425 0)
(0.303674 0.383871 0)
(0.284112 0.392239 0)
(0.263532 0.40033 0)
(0.241799 0.407955 0)
(0.218905 0.414997 0)
(0.194945 0.421196 0)
(0.17018 0.426563 0)
(0.144826 0.430744 0)
(0.118935 0.434816 0)
(0.0927276 0.437348 0)
(0.0664257 0.441647 0)
(0.0397173 0.443886 0)
(0.0133282 0.448981 0)
(3 -1.8211e-16 0)
(3 -1.62324e-16 0)
(3 1.67798e-17 0)
(3 1.49212e-16 0)
(3 2.86228e-16 0)
(3 -9.80332e-18 0)
(3 -5.26032e-16 0)
(3 -6.53461e-16 0)
(3 -5.11404e-16 0)
(3 -5.84018e-16 0)
(3 -5.67678e-16 0)
(3 -6.66319e-16 0)
(3 -9.42419e-16 0)
(3 -1.47996e-15 0)
(3 -1.89457e-15 0)
(3 -1.66216e-15 0)
(3 -6.77004e-16 0)
(3 -5.56107e-16 0)
(3 3.87115e-16 0)
(3 4.0784e-16 0)
(3 -2.29469e-16 0)
(3 -6.56189e-16 0)
(3 -9.85168e-16 0)
(3 -1.22478e-15 0)
(3 -8.63746e-16 0)
(3 -3.55876e-16 0)
(3 1.88175e-17 0)
(3 4.93942e-16 0)
(3 4.74262e-16 0)
(3 3.30736e-16 0)
(3 5.60918e-16 0)
(3 1.52161e-15 0)
(3 2.05539e-15 0)
(3 1.80506e-15 0)
(3 1.36835e-15 0)
(3 1.0678e-15 0)
(3 6.1555e-16 0)
(3 3.3052e-16 0)
(3 1.01443e-16 0)
(3 7.47205e-17 0)
(3 1.0822e-16 0)
(3 3.13679e-16 0)
(3 5.94641e-16 0)
(3 1.18315e-15 0)
(3 5.67289e-17 0)
(3 -2.28258e-15 0)
(3 -1.82608e-15 0)
(3 -1.41339e-15 0)
(3 -1.43231e-15 0)
(3.00032 1.04039e-05 0)
(1.55278 0.310867 0)
(0.825505 0.276456 0)
(0.783612 0.281173 0)
(0.768761 0.286699 0)
(0.753811 0.28587 0)
(0.739233 0.285485 0)
(0.72533 0.288028 0)
(0.713098 0.293386 0)
(0.701905 0.299074 0)
(0.690231 0.302139 0)
(0.67769 0.301575 0)
(0.664079 0.299686 0)
(0.649628 0.299903 0)
(0.635248 0.303633 0)
(0.621627 0.310488 0)
(0.60858 0.318275 0)
(0.594957 0.32373 0)
(0.580515 0.325543 0)
(0.565407 0.325784 0)
(0.549986 0.327842 0)
(0.535278 0.333408 0)
(0.521388 0.341085 0)
(0.507018 0.347764 0)
(0.491794 0.352306 0)
(0.476104 0.356823 0)
(0.46027 0.362894 0)
(0.444232 0.370169 0)
(0.427823 0.37778 0)
(0.411133 0.385559 0)
(0.394306 0.393803 0)
(0.377355 0.402705 0)
(0.360158 0.412226 0)
(0.342531 0.422221 0)
(0.324346 0.432613 0)
(0.305441 0.443256 0)
(0.285617 0.453868 0)
(0.264668 0.46416 0)
(0.24243 0.473828 0)
(0.218805 0.48248 0)
(0.193907 0.490212 0)
(0.167536 0.496751 0)
(0.139805 0.503687 0)
(0.110189 0.509371 0)
(0.079251 0.51563 0)
(0.047258 0.518563 0)
(0.0156882 0.523457 0)
(3 5.84254e-17 0)
(3 -7.83836e-17 0)
(3 -1.27939e-16 0)
(3 1.00887e-16 0)
(3 1.80512e-16 0)
(3 3.40753e-16 0)
(3 4.77942e-16 0)
(3 1.36615e-16 0)
(3 -3.05319e-16 0)
(3 -5.27966e-17 0)
(3 -4.23211e-16 0)
(3 -1.25442e-15 0)
(3 -1.47505e-15 0)
(3 -1.7445e-15 0)
(3 -9.9261e-16 0)
(3 6.24565e-16 0)
(3 1.22669e-15 0)
(3 1.27377e-15 0)
(3 1.13923e-15 0)
(3 1.07427e-15 0)
(3 3.22366e-16 0)
(3 7.30856e-17 0)
(3 1.13778e-16 0)
(3 7.05377e-17 0)
(3 -7.57343e-16 0)
(3 -1.07615e-15 0)
(3 -7.06589e-16 0)
(3 1.36341e-16 0)
(3 3.23417e-16 0)
(3 5.88919e-16 0)
(3 5.24795e-16 0)
(3 4.89478e-16 0)
(3 6.40471e-16 0)
(3 5.50617e-16 0)
(3 4.77345e-16 0)
(3 2.72343e-16 0)
(3 4.00865e-16 0)
(3 2.58867e-16 0)
(3 2.76486e-16 0)
(3 5.38235e-16 0)
(3 5.52175e-16 0)
(3 -2.21221e-16 0)
(3 -8.92001e-16 0)
(3 -1.52148e-15 0)
(3 -1.56693e-15 0)
(3 -1.30983e-15 0)
(3 -1.01038e-15 0)
(3 -8.71631e-16 0)
(3 -1.0924e-15 0)
(3 1.92295e-08 0)
(2.37617 0.282242 0)
(0.919042 0.334639 0)
(0.793834 0.320285 0)
(0.781369 0.314118 0)
(0.76587 0.315299 0)
(0.752178 0.315489 0)
(0.739007 0.317331 0)
(0.726859 0.321199 0)
(0.715719 0.326014 0)
(0.704647 0.329832 0)
(0.692796 0.331217 0)
(0.679932 0.330926 0)
(0.666167 0.331719 0)
(0.652256 0.335254 0)
(0.638897 0.341502 0)
(0.626303 0.34905 0)
(0.61373 0.355404 0)
(0.600566 0.359064 0)
(0.58671 0.360875 0)
(0.572316 0.363133 0)
(0.55811 0.368025 0)
(0.544758 0.37578 0)
(0.531431 0.384153 0)
(0.517083 0.390774 0)
(0.501914 0.39631 0)
(0.486459 0.402869 0)
(0.470932 0.410959 0)
(0.455096 0.419814 0)
(0.438812 0.428889 0)
(0.422207 0.438373 0)
(0.405405 0.448562 0)
(0.388431 0.45962 0)
(0.371118 0.471469 0)
(0.353233 0.483997 0)
(0.334621 0.497261 0)
(0.314813 0.511 0)
(0.293457 0.525034 0)
(0.270188 0.539124 0)
(0.244634 0.552873 0)
(0.216888 0.56636 0)
(0.186941 0.579056 0)
(0.155674 0.591937 0)
(0.123374 0.603528 0)
(0.0900393 0.612945 0)
(0.0551152 0.61766 0)
(0.0175575 0.620678 0)
(3 5.343e-17 0)
(3 3.54312e-17 0)
(3 1.16424e-16 0)
(3 1.41193e-16 0)
(3 1.80285e-16 0)
(3 5.09878e-16 0)
(3 5.38716e-16 0)
(3 3.91564e-16 0)
(3 -2.27232e-16 0)
(3 -2.74462e-16 0)
(3 -2.11447e-16 0)
(3 -6.10373e-17 0)
(3 3.54713e-16 0)
(3 4.09374e-16 0)
(3 3.26394e-16 0)
(3 3.49464e-16 0)
(3 2.83295e-16 0)
(3 2.39354e-16 0)
(3 9.46051e-17 0)
(3 9.48246e-17 0)
(3 2.65002e-17 0)
(3 3.6509e-16 0)
(3 8.20935e-16 0)
(3 5.92861e-16 0)
(3 4.39634e-16 0)
(3 1.7866e-16 0)
(3 8.40126e-17 0)
(3 3.78602e-17 0)
(3 2.57137e-16 0)
(3 2.99371e-16 0)
(3 1.48086e-16 0)
(3 -8.74833e-17 0)
(3 -2.03331e-16 0)
(3 -1.43882e-16 0)
(3 -5.27025e-16 0)
(3 -4.49286e-16 0)
(3 6.14936e-16 0)
(3 1.24896e-15 0)
(3 1.30166e-15 0)
(3 6.99463e-16 0)
(3 2.80007e-16 0)
(3 5.71691e-17 0)
(3 -8.06656e-16 0)
(3 -1.6949e-15 0)
(3 -1.58756e-15 0)
(3 -1.55432e-15 0)
(3 -1.72299e-15 0)
(3 -2.45462e-15 0)
(3 -2.06685e-15 0)
(3 -8.21277e-09 0)
(3.02777 0.0178326 0)
(1.25167 0.374684 0)
(0.841749 0.328985 0)
(0.820114 0.33854 0)
(0.804937 0.337947 0)
(0.789832 0.338089 0)
(0.775457 0.340713 0)
(0.761573 0.345067 0)
(0.748503 0.350028 0)
(0.736101 0.354545 0)
(0.723647 0.357749 0)
(0.710491 0.359556 0)
(0.696583 0.361649 0)
(0.682439 0.365583 0)
(0.668644 0.371512 0)
(0.655546 0.378572 0)
(0.642913 0.38525 0)
(0.630188 0.390544 0)
(0.61695 0.394672 0)
(0.603104 0.398477 0)
(0.589049 0.403441 0)
(0.575516 0.410952 0)
(0.562555 0.420369 0)
(0.549105 0.429381 0)
(0.53475 0.436823 0)
(0.52003 0.444212 0)
(0.505369 0.452957 0)
(0.490599 0.463022 0)
(0.475222 0.473707 0)
(0.459413 0.484937 0)
(0.443141 0.496893 0)
(0.426657 0.509882 0)
(0.410078 0.524043 0)
(0.393061 0.539236 0)
(0.375568 0.555737 0)
(0.357026 0.573463 0)
(0.337118 0.592371 0)
(0.315586 0.612267 0)
(0.292233 0.632634 0)
(0.267021 0.6528 0)
(0.239873 0.671504 0)
(0.210464 0.687637 0)
(0.178915 0.703163 0)
(0.141901 0.721661 0)
(0.0959463 0.743701 0)
(0.0366575 0.762922 0)
(3 2.57712e-17 0)
(3 1.67984e-16 0)
(3 4.56983e-16 0)
(3 4.0259e-16 0)
(3 9.12991e-17 0)
(3 -1.86583e-16 0)
(3 -4.29616e-17 0)
(3 -1.44483e-16 0)
(3 2.01716e-16 0)
(3 7.41531e-16 0)
(3 9.16367e-16 0)
(3 1.62449e-15 0)