/*--------------------------------*- C++ -*----------------------------------*\
  =========                 |
  \\      /  F ield         | OpenFOAM: The Open Source CFD Toolbox
   \\    /   O peration     | Website:  https://openfoam.org
    \\  /    A nd           | Version:  7
     \\/     M anipulation  |
\*---------------------------------------------------------------------------*/
FoamFile
{
    version     2.0;
    format      ascii;
    class       volScalarField;
    location    "0.006";
    object      mag(U);
}
// * * * * * * * * * * * * * * * * * * * * * * * * * * * * * * * * * * * * * //

dimensions      [0 1 -1 0 0 0 0];

internalField   nonuniform List<scalar> 
1000
(
1.1203e-12
1.01528e-12
9.80267e-13
7.4687e-13
7.5854e-13
7.93549e-13
9.10248e-13
7.4687e-13
8.05219e-13
7.1186e-13
7.81879e-13
6.88521e-13
7.4687e-13
8.05219e-13
7.70209e-13
9.45257e-13
6.88521e-13
1.01528e-12
7.0019e-13
7.93549e-13
4.78463e-13
7.70209e-13
4.08444e-13
4.66794e-13
3.26756e-13
2.21727e-13
1.16698e-13
1.98387e-13
3.61765e-13
2.10057e-13
1.75048e-13
4.66794e-14
2.68406e-13
3.96775e-13
2.56736e-13
3.03416e-13
3.85105e-13
6.18502e-13
3.50095e-13
3.61765e-13
2.33397e-13
3.03416e-13
2.21727e-13
1.16698e-13
2.80076e-13
2.91746e-13
1.63378e-13
3.15086e-13
2.68406e-13
3.26756e-13
3.26756e-13
3.50095e-13
6.06832e-13
5.36813e-13
4.08444e-13
6.41841e-13
2.56736e-13
3.50095e-13
1.05029e-13
3.96775e-13
1.28368e-13
4.08444e-13
9.33587e-14
3.50095e-13
4.66794e-13
4.43454e-13
2.21727e-13
1.86717e-13
1.98387e-13
3.26756e-13
1.40038e-13
3.26756e-13
2.68406e-13
2.33397e-14
2.33397e-14
1.16698e-13
4.66794e-14
8.16889e-14
2.80076e-13
2.56736e-13
3.15086e-13
1.98387e-13
2.45067e-13
4.55124e-13
3.73435e-13
6.41841e-13
3.15086e-13
3.26756e-13
3.50095e-14
1.63378e-13
4.66794e-14
9.33587e-14
1.63378e-13
3.61765e-13
5.01803e-13
2.10057e-13
4.66794e-13
8.16889e-14
4.20114e-13
2.33397e-14
3.15086e-13
4.66794e-14
2.45067e-13
4.31784e-13
5.83492e-14
2.80076e-13
7.0019e-14
7.0019e-14
1.16698e-14
1.05029e-13
1.51708e-13
1.16698e-14
1.40038e-13
2.10057e-13
3.50095e-14
8.16889e-14
9.33587e-14
1.16698e-14
1.75048e-13
1.16698e-13
4.66794e-14
4.90133e-13
1.86717e-13
3.26756e-13
9.33587e-14
1.63378e-13
8.16889e-14
4.66794e-14
2.33397e-14
1.40038e-13
2.33397e-14
9.33587e-14
3.73435e-13
3.15086e-13
2.68406e-13
9.33587e-14
1.28368e-13
9.33587e-14
2.80076e-13
2.33397e-14
4.55124e-13
1.40038e-13
3.38425e-13
8.16889e-14
2.10057e-13
1.63378e-13
2.33397e-14
1.98387e-13
9.33587e-14
1.51708e-13
4.20114e-13
2.56736e-13
5.83492e-14
8.16889e-14
3.96775e-13
1.51708e-13
2.80076e-13
1.75048e-13
3.96775e-13
2.10057e-13
3.38425e-13
3.50095e-14
1.86717e-13
1.05029e-13
4.66794e-14
7.0019e-14
3.26756e-13
1.16698e-14
1.16698e-14
1.63378e-13
1.16698e-14
1.40038e-13
1.40038e-13
8.16889e-14
1.05029e-13
3.50095e-13
2.21727e-13
4.43454e-13
2.80076e-13
5.36813e-13
4.55124e-13
7.352e-13
3.50095e-13
4.78463e-13
1.59792e-26
5.83492e-14
1.16698e-13
1.51708e-13
6.06832e-13
7.81879e-13
1.56376e-12
2.24061e-12
3.73435e-12
6.64014e-12
1.14598e-11
2.02355e-11
3.5418e-11
6.17918e-11
1.06989e-10
1.8527e-10
3.18038e-10
5.45402e-10
9.28733e-10
1.57634e-09
2.65987e-09
4.4695e-09
7.47153e-09
1.24316e-08
2.05815e-08
3.39091e-08
5.55884e-08
9.0674e-08
1.47159e-07
2.37617e-07
3.8171e-07
6.10008e-07
9.69753e-07
1.53352e-06
2.41211e-06
3.77364e-06
5.87163e-06
9.08589e-06
1.39818e-05
2.13953e-05
3.25544e-05
4.92507e-05
7.40797e-05
0.000110776
0.000164672
0.000243331
0.000357395
0.000521729
0.000756932
0.00109132
0.00156352
0.00222575
0.00314802
0.00442342
0.0061745
0.00856124
0.0117904
0.0161265
0.0219049
0.0295459
0.0395706
0.0526181
0.069463
0.0910324
0.118423
0.152913
0.195976
0.249282
0.314698
0.394278
0.490248
0.604974
0.740929
0.900648
1.08668
1.30151
1.54755
1.82701
2.14192
2.49401
2.88475
3.31523
3.78622
4.29814
4.85107
5.44474
6.07859
6.7518
7.46332
8.21187
8.99606
9.81435
10.6651
11.5468
12.4577
13.396
14.3604
15.349
16.3604
17.3932
18.446
19.5174
20.6063
21.7114
22.8317
23.9662
25.1139
26.274
27.4458
28.6284
29.8211
31.0235
32.2348
33.4545
34.6822
35.9174
37.1596
38.4086
39.6638
40.925
42.1919
43.4641
44.7414
46.0236
47.3103
48.6014
49.8967
51.1959
52.4989
53.8054
55.1154
56.4286
57.7449
59.0642
60.3863
61.7111
63.0384
64.3682
65.7004
67.0347
68.3712
69.7098
71.0502
72.3926
73.7367
75.0825
76.4299
77.7789
79.1294
80.4813
81.8346
83.1892
84.545
85.9021
87.2603
88.6196
89.9799
91.3413
92.7037
94.067
95.4312
96.7963
98.1622
99.5289
100.896
102.265
103.634
105.003
106.374
107.745
109.116
110.488
111.861
113.234
114.608
115.982
117.357
118.733
120.108
121.485
122.861
124.238
125.616
126.993
128.372
129.75
131.129
132.508
133.888
135.268
136.648
138.028
139.409
140.79
142.172
143.553
144.935
146.317
147.699
149.081
150.464
151.847
153.23
154.613
155.997
157.38
158.764
160.148
161.532
162.916
164.301
165.685
167.07
168.454
169.839
171.224
172.609
173.994
175.379
176.764
178.15
179.535
180.921
182.307
183.693
185.079
186.465
187.85
189.237
190.623
192.009
193.395
194.781
196.168
197.554
198.94
200.327
201.713
203.1
204.486
205.873
207.26
208.646
210.033
211.419
212.806
214.193
215.579
216.966
218.352
219.739
221.126
222.512
223.899
225.286
226.672
228.059
229.445
230.832
232.218
233.605
234.991
236.378
237.764
239.151
240.537
241.924
243.31
244.696
246.082
247.469
248.855
250.241
251.627
253.013
254.399
255.785
257.171
258.557
259.942
261.328
262.714
264.099
265.485
266.87
268.256
269.641
271.027
272.412
273.797
275.182
276.567
277.952
279.337
280.722
282.107
283.491
284.876
286.26
287.645
289.029
290.413
291.798
293.182
294.566
295.95
297.334
298.717
300.101
301.485
302.868
304.251
305.635
307.018
308.401
309.784
311.167
312.55
313.932
315.315
316.697
318.079
319.462
320.844
322.226
323.608
324.989
326.371
327.753
329.134
330.515
331.896
333.277
334.658
336.039
337.419
338.8
340.18
341.56
342.94
344.32
345.7
347.08
348.459
349.838
351.218
352.597
353.975
355.354
356.733
358.111
359.489
360.867
362.245
363.623
365
366.377
367.754
369.131
370.508
371.885
373.261
374.637
376.013
377.389
378.764
380.139
381.514
382.889
384.264
385.638
387.012
388.386
389.76
391.133
392.507
393.88
395.252
396.625
397.997
399.369
400.74
402.111
403.482
404.853
406.223
407.593
408.963
410.333
411.702
413.07
414.439
415.807
417.175
418.542
419.909
421.275
422.642
424.007
425.373
426.737
428.102
429.466
430.83
432.193
433.555
434.917
436.279
437.64
439.001
440.361
441.72
443.079
444.438
445.795
447.152
448.509
449.865
451.22
452.574
453.928
455.281
456.634
457.985
459.336
460.686
462.035
463.383
464.73
466.077
467.422
468.767
470.11
471.453
472.794
474.134
475.473
476.811
478.148
479.484
480.818
482.151
483.482
484.812
486.141
487.468
488.794
490.117
491.44
492.76
494.079
495.396
496.71
498.023
499.334
500.643
501.949
503.253
504.555
505.854
507.151
508.444
509.736
511.024
512.309
513.591
514.87
516.146
517.418
518.687
519.952
521.213
522.47
523.722
524.971
526.215
527.454
528.688
529.917
531.141
532.359
533.572
534.779
535.979
537.173
538.361
539.541
540.714
541.88
543.038
544.188
545.329
546.462
547.585
548.699
549.804
550.898
551.981
553.054
554.115
555.165
556.202
557.227
558.239
559.237
560.222
561.192
562.147
563.087
564.011
564.918
565.809
566.683
567.54
568.378
569.197
569.998
570.779
571.541
572.282
573.003
573.703
574.381
575.039
575.674
576.288
576.88
577.45
577.997
578.522
579.025
579.506
579.965
580.402
580.817
581.211
581.584
581.936
582.267
582.579
582.872
583.146
583.402
583.64
583.861
584.066
584.256
584.43
584.591
584.738
584.872
584.995
585.106
585.207
585.298
585.381
585.454
585.52
585.578
585.63
585.676
585.716
585.752
585.783
585.81
585.833
585.853
585.87
585.884
585.896
585.906
585.915
585.921
585.927
585.931
585.934
585.937
585.939
585.94
585.94
585.94
585.94
585.939
585.938
585.937
585.936
585.935
585.934
585.932
585.931
585.929
585.928
585.927
585.925
585.924
585.923
585.921
585.92
585.919
585.918
585.917
585.916
585.915
585.914
585.914
585.913
585.912
585.912
585.911
585.911
585.911
585.91
585.91
585.91
585.91
585.909
585.909
585.909
585.909
585.909
585.909
585.909
585.909
585.91
585.91
585.91
585.91
585.91
585.91
585.91
585.911
585.911
585.911
585.911
585.912
585.912
585.912
585.912
585.912
585.912
585.912
585.912
585.911
585.911
585.91
585.909
585.907
585.906
585.904
585.901
585.898
585.895
585.892
585.888
585.884
585.879
585.874
585.869
585.864
585.859
585.854
585.849
585.844
585.84
585.836
585.833
585.832
585.831
585.832
585.832
585.832
585.833
585.836
585.84
585.846
585.852
585.859
585.867
585.875
585.884
585.892
585.901
585.909
585.917
585.925
585.932
585.939
585.945
585.951
585.955
585.959
585.963
585.966
585.97
585.973
585.975
585.978
585.98
585.982
585.984
585.986
585.988
585.99
585.992
585.994
585.996
585.997
585.999
586.001
586.003
586.005
586.007
586.009
586.011
586.013
586.016
586.018
586.02
586.022
586.024
586.026
586.028
586.03
586.032
586.033
586.035
586.037
586.038
586.04
586.042
586.044
586.045
586.047
586.049
586.051
586.052
586.054
586.056
586.058
586.06
586.063
586.065
586.068
586.07
586.073
586.076
586.08
586.083
586.086
586.09
586.093
586.096
586.099
586.102
586.105
586.108
586.11
586.112
586.115
586.117
586.119
586.121
586.123
586.125
586.127
586.129
586.132
586.134
586.137
586.141
586.144
586.147
586.151
586.155
586.159
586.162
586.166
586.169
586.171
586.174
586.176
586.177
586.179
586.181
586.183
586.185
586.189
586.193
586.198
586.203
586.209
586.214
586.219
586.224
586.227
586.23
586.232
586.232
586.231
586.227
586.218
586.205
586.177
586.14
586.034
585.993
585.78
585.521
584.849
583.534
580.946
575.762
565.097
544.507
514.188
413.863
)
;

boundaryField
{
    sides
    {
        type            calculated;
        value           nonuniform List<scalar> 2(413.863 1.1203e-12);
    }
    empty
    {
        type            empty;
    }
}


// ************************************************************************* //
