/*--------------------------------*- C++ -*----------------------------------*\
  =========                 |
  \\      /  F ield         | OpenFOAM: The Open Source CFD Toolbox
   \\    /   O peration     | Website:  https://openfoam.org
    \\  /    A nd           | Version:  7
     \\/     M anipulation  |
\*---------------------------------------------------------------------------*/
FoamFile
{
    version     2.0;
    format      ascii;
    class       volScalarField;
    location    "0.006";
    object      p;
}
// * * * * * * * * * * * * * * * * * * * * * * * * * * * * * * * * * * * * * //

dimensions      [1 -1 -2 0 0 0 0];

internalField   nonuniform List<scalar> 
1000
(
1e+06
1e+06
1e+06
1e+06
1e+06
1e+06
1e+06
1e+06
1e+06
1e+06
1e+06
1e+06
1e+06
1e+06
1e+06
1e+06
1e+06
1e+06
1e+06
1e+06
1e+06
1e+06
1e+06
1e+06
1e+06
1e+06
1e+06
1e+06
1e+06
1e+06
1e+06
1e+06
1e+06
1e+06
1e+06
1e+06
1e+06
1e+06
1e+06
1e+06
1e+06
1e+06
1e+06
1e+06
1e+06
1e+06
1e+06
1e+06
1e+06
1e+06
1e+06
1e+06
1e+06
1e+06
1e+06
1e+06
1e+06
1e+06
1e+06
1e+06
1e+06
1e+06
1e+06
1e+06
1e+06
1e+06
1e+06
1e+06
1e+06
1e+06
1e+06
1e+06
1e+06
1e+06
1e+06
1e+06
1e+06
1e+06
1e+06
1e+06
1e+06
1e+06
1e+06
1e+06
1e+06
1e+06
1e+06
1e+06
1e+06
1e+06
1e+06
1e+06
1e+06
1e+06
1e+06
1e+06
1e+06
1e+06
1e+06
1e+06
1e+06
1e+06
1e+06
1e+06
1e+06
1e+06
1e+06
1e+06
1e+06
1e+06
1e+06
1e+06
1e+06
1e+06
1e+06
1e+06
1e+06
1e+06
1e+06
1e+06
1e+06
1e+06
1e+06
1e+06
1e+06
1e+06
1e+06
1e+06
1e+06
1e+06
1e+06
1e+06
1e+06
1e+06
1e+06
1e+06
1e+06
1e+06
1e+06
1e+06
1e+06
1e+06
1e+06
1e+06
1e+06
1e+06
1e+06
1e+06
1e+06
1e+06
1e+06
1e+06
1e+06
1e+06
1e+06
1e+06
1e+06
1e+06
1e+06
1e+06
1e+06
1e+06
1e+06
1e+06
1e+06
1e+06
1e+06
1e+06
1e+06
1e+06
1e+06
1e+06
1e+06
1e+06
1e+06
1e+06
1e+06
1e+06
1e+06
1e+06
1e+06
1e+06
1e+06
1e+06
1e+06
1e+06
1e+06
1e+06
1e+06
1e+06
1e+06
1e+06
1e+06
1e+06
1e+06
1e+06
1e+06
1e+06
1e+06
1e+06
1e+06
1e+06
1e+06
1e+06
1e+06
1e+06
1e+06
1e+06
1e+06
1e+06
1e+06
1e+06
1e+06
1e+06
1e+06
1e+06
1e+06
1e+06
1e+06
1e+06
1e+06
1e+06
1e+06
1e+06
1e+06
1e+06
1e+06
1e+06
999999
999999
999999
999998
999997
999996
999994
999992
999988
999984
999977
999968
999956
999940
999919
999890
999853
999805
999742
999662
999560
999432
999272
999073
998830
998533
998176
997749
997243
996648
995956
995157
994242
993204
992034
990728
989281
987687
985946
984057
982020
979836
977510
975043
972443
969713
966860
963891
960812
957631
954354
950988
947539
944015
940422
936765
933049
929282
925466
921607
917710
913778
909815
905824
901809
897772
893716
889644
885558
881460
877351
873234
869111
864982
860850
856715
852579
848442
844306
840173
836041
831914
827790
823672
819560
815454
811354
807263
803179
799104
795039
790982
786936
782900
778874
774860
770857
766866
762886
758919
754964
751022
747093
743177
739274
735384
731509
727647
723799
719965
716145
712339
708548
704771
701009
697261
693528
689810
686107
682418
678745
675086
671443
667814
664201
660602
657019
653451
649898
646360
642837
639329
635837
632359
628897
625450
622018
618601
615199
611813
608441
605085
601743
598417
595105
591809
588527
585261
582009
578772
575550
572343
569150
565972
562809
559661
556527
553408
550303
547213
544137
541076
538029
534996
531978
528974
525985
523009
520048
517100
514167
511248
508343
505453
502576
499712
496862
494026
491204
488396
485601
482819
480051
477297
474556
471828
469114
466413
463725
461051
458389
455741
453105
450483
447874
445277
442694
440123
437565
435020
432487
429967
427460
424965
422482
420013
417555
415110
412677
410256
407847
405451
403067
400694
398334
395986
393649
391325
389012
386711
384422
382144
379878
377624
375381
373149
370929
368721
366523
364337
362163
359999
357847
355705
353575
351456
349348
347251
345164
343089
341024
338970
336926
334894
332871
330860
328859
326868
324888
322919
320959
319010
317071
315143
313224
311316
309418
307529
305651
303783
301924
300076
298237
296408
294589
292780
290980
289190
287409
285638
283876
282124
280381
278648
276924
275209
273503
271807
270120
268441
266772
265112
263461
261819
260186
258562
256947
255340
253742
252153
250573
249001
247438
245883
244337
242799
241270
239749
238237
236733
235237
233750
232271
230800
229337
227882
226436
224997
223566
222144
220729
219323
217924
216533
215149
213774
212406
211046
209694
208349
207012
205683
204361
203046
201739
200439
199147
197862
196585
195314
194051
192796
191547
190306
189071
187844
186624
185411
184205
183006
181814
180629
179451
178279
177115
175957
174806
173662
172524
171394
170269
169152
168041
166937
165839
164748
163663
162585
161513
160447
159388
158336
157289
156249
155216
154188
153167
152152
151143
150140
149144
148154
147169
146191
145219
144253
143293
142339
141391
140448
139512
138582
137658
136739
135826
134920
134019
133123
132234
131350
130473
129601
128734
127874
127019
126169
125326
124488
123656
122829
122008
121193
120384
119580
118781
117989
117202
116420
115644
114874
114109
113350
112597
111849
111107
110370
109639
108914
108195
107481
106773
106070
105373
104682
103997
103317
102644
101976
101314
100658
100007
99363.1
98724.8
98092.5
97466.3
96846.2
96232.3
95624.5
95023.1
94427.9
93839.1
93256.8
92680.9
92111.6
91548.9
90992.8
90443.6
89901.2
89365.7
88837.3
88315.9
87801.7
87294.8
86795.3
86303.2
85818.7
85341.9
84872.9
84411.7
83958.5
83513.4
83076.5
82647.9
82227.8
81816.2
81413.3
81019.1
80633.7
80257.4
79890.1
79532
79183.2
78843.7
78513.7
78193.2
77882.2
77580.9
77289.3
77007.5
76735.3
76473
76220.4
75977.6
75744.5
75521.1
75307.3
75103.1
74908.4
74723
74546.8
74379.8
74221.6
74072.3
73931.4
73799
73674.6
73558.2
73449.3
73347.9
73253.6
73166.1
73085.1
73010.4
72941.6
72878.5
72820.8
72768.1
72720.1
72676.6
72637.2
72602.1
72569.9
72541.5
72515.8
72493.3
72473.4
72455.9
72440.6
72427.2
72415.6
72405.6
72397.1
72389.8
72383.7
72378.7
72374.5
72371.2
72368.5
72366.5
72365
72363.9
72363.3
72363.1
72363.1
72363.3
72363.6
72364.3
72365.2
72366.1
72367.2
72368.3
72369.5
72370.7
72372
72373.3
72374.6
72375.9
72377.2
72378.5
72379.9
72381.2
72382.5
72383.7
72385
72386.2
72387.5
72388.7
72389.9
72391.1
72392.2
72393.4
72394.5
72395.6
72396.7
72397.8
72398.8
72399.9
72400.9
72401.9
72403
72404
72404.9
72405.9
72406.9
72407.9
72408.8
72409.8
72410.7
72411.7
72412.6
72413.5
72414.4
72415.3
72416.2
72417.1
72418
72418.8
72419.7
72420.5
72421.3
72422.1
72422.8
72423.5
72424.2
72424.8
72425.4
72426
72426.5
72427
72427.5
72427.9
72428.3
72428.6
72429
72429.3
72429.5
72429.8
72430
72430.2
72430.4
72430.7
72430.9
72431.1
72431.4
72431.7
72432
72432.4
72432.9
72433.4
72434.2
72434.8
72436.1
72437
72438.2
72438.5
72439.2
72440.5
72441.8
72443.3
72444.8
72446.2
72447.6
72449
72450.4
72451.7
72453
72454.2
72455.3
72456.3
72457.7
72458.2
72459.1
72459.7
72460.4
72460.8
72461.1
72461.4
72461.8
72462.2
72462.4
72462.6
72462.8
72463
72463.2
72463.4
72463.5
72463.7
72463.9
72464.2
72464.4
72464.6
72464.9
72465.2
72465.4
72465.7
72466
72466.3
72466.6
72466.9
72467.2
72467.5
72467.9
72468.2
72468.6
72468.9
72469.3
72469.7
72470.2
72470.6
72471.1
72471.5
72472
72472.5
72473.1
72473.6
72474.2
72474.7
72475.3
72475.9
72476.4
72477
72477.6
72478.2
72478.8
72479.3
72479.9
72480.4
72480.9
72481.4
72481.8
72482.3
72482.7
72483.1
72483.4
72483.8
72484.2
72484.6
72485
72485.4
72485.9
72486.5
72487
72487.7
72488.3
72489
72489.8
72490.5
72491.3
72492.1
72492.9
72493.7
72494.4
72495.2
72495.9
72496.5
72497.1
72497.7
72498.3
72498.9
72499.4
72500
72500.6
72501.3
72502
72502.8
72503.8
72504.8
72505.8
72507
72508.1
72509.1
72510.1
72510.9
72511.6
72512.1
72512.5
72512.9
72513.2
72513.5
72513.9
72514.3
72514.8
72515
72515
72514.9
72514.1
72512.6
72509.1
72504.4
72493
72486.4
72465.8
72406.1
72374.5
72095.7
71842.2
71000.1
69679.8
66691.5
61859.4
52512.4
34304.5
)
;

boundaryField
{
    sides
    {
        type            zeroGradient;
    }
    empty
    {
        type            empty;
    }
}


// ************************************************************************* //
