/*--------------------------------*- C++ -*----------------------------------*\
  =========                 |
  \\      /  F ield         | OpenFOAM: The Open Source CFD Toolbox
   \\    /   O peration     | Website:  https://openfoam.org
    \\  /    A nd           | Version:  7
     \\/     M anipulation  |
\*---------------------------------------------------------------------------*/
FoamFile
{
    version     2.0;
    format      ascii;
    class       surfaceScalarField;
    location    "0.006";
    object      phi;
}
// * * * * * * * * * * * * * * * * * * * * * * * * * * * * * * * * * * * * * //

dimensions      [1 0 -1 0 0 0 0];

internalField   nonuniform List<scalar> 
999
(
-4.54747e-11
-3.9563e-11
-3.50155e-11
-3.13776e-11
-3.09228e-11
-3.68345e-11
-3.36513e-11
-3.27418e-11
-3.13776e-11
-3.18323e-11
-3.09228e-11
-3.00133e-11
-3.36513e-11
-3.00133e-11
-3.86535e-11
-3.18323e-11
-3.5925e-11
-3.5925e-11
-3.22871e-11
-2.50111e-11
-2.59206e-11
-2.27374e-11
-1.90994e-11
-1.45519e-11
-1.09139e-11
-7.27596e-12
-5.91172e-12
-1.13687e-11
-1.13687e-11
-8.18545e-12
-5.91172e-12
-5.91172e-12
-1.18234e-11
-1.68257e-11
-1.00044e-11
-1.40972e-11
-2.09184e-11
-1.95541e-11
-1.63709e-11
-1.09139e-11
-1.09139e-11
-1.40972e-11
-5.00222e-12
-1.00044e-11
-1.18234e-11
-1.18234e-11
-8.18545e-12
-1.54614e-11
-1.04592e-11
-1.54614e-11
-1.22782e-11
-1.95541e-11
-2.31921e-11
-1.86446e-11
-2.31921e-11
-1.54614e-11
-1.63709e-11
-8.18545e-12
-1.31877e-11
-1.04592e-11
-1.04592e-11
-9.54969e-12
-8.18545e-12
-1.72804e-11
-1.77351e-11
-1.50067e-11
-7.7307e-12
-8.18545e-12
-1.18234e-11
-1.04592e-11
-1.13687e-11
-1.13687e-11
-5.45697e-12
4.54747e-13
-3.18323e-12
-3.63798e-12
-1.81899e-12
-8.18545e-12
-1.45519e-11
-8.18545e-12
-1.04592e-11
-1.13687e-11
-1.27329e-11
-1.86446e-11
-1.95541e-11
-2.04636e-11
-1.13687e-11
-9.09495e-12
-4.09273e-12
-3.63798e-12
-3.18323e-12
-3.63798e-12
-1.36424e-11
-1.86446e-11
-1.54614e-11
-1.63709e-11
-8.6402e-12
-1.18234e-11
-1.13687e-11
-4.09273e-12
-1.09139e-11
-5.00222e-12
2.27374e-12
1.04592e-11
5.45697e-12
7.7307e-12
1.81899e-12
3.18323e-12
-3.63798e-12
-5.00222e-12
-3.63798e-12
-3.18323e-12
-8.18545e-12
-5.00222e-12
-1.36424e-12
-1.36424e-12
-3.63798e-12
4.54747e-12
9.09495e-12
1.36424e-12
-1.09139e-11
-1.68257e-11
-8.6402e-12
-1.00044e-11
-3.63798e-12
-2.72848e-12
1.36424e-12
-3.18323e-12
-4.54747e-12
-1.36424e-12
-2.27374e-12
-9.09495e-12
-1.54614e-11
-1.18234e-11
-5.45697e-12
-3.63798e-12
-6.82121e-12
-6.36646e-12
-6.82121e-12
-1.04592e-11
-1.31877e-11
-7.7307e-12
-1.09139e-11
-5.91172e-12
-4.54747e-13
1.36424e-12
3.63798e-12
3.18323e-12
-8.18545e-12
-1.09139e-11
-5.00222e-12
7.27596e-12
3.18323e-12
-4.54747e-12
-6.36646e-12
-2.27374e-12
-1.09139e-11
-1.09139e-11
-1.40972e-11
-1.00044e-11
-6.82121e-12
-6.36646e-12
-4.54747e-12
-4.09273e-12
-3.18323e-12
-8.18545e-12
-1.13687e-11
3.18323e-12
-6.36646e-12
-9.09495e-13
-6.36646e-12
1.36424e-12
1.81899e-12
-6.82121e-12
-7.27596e-12
-1.45519e-11
-1.50067e-11
-1.18234e-11
-1.81899e-11
-2.31921e-11
-2.31921e-11
-2.59206e-11
-1.40972e-11
-1.13687e-11
1.36424e-12
4.09273e-12
5.45697e-12
1.36424e-11
2.68301e-11
4.95675e-11
7.04858e-11
1.12323e-10
1.91449e-10
3.42425e-10
5.9481e-10
1.04501e-09
1.82627e-09
3.17368e-09
5.50153e-09
9.4833e-09
1.62813e-08
2.7821e-08
4.73265e-08
8.01101e-08
1.34944e-07
2.26229e-07
3.77425e-07
6.26619e-07
1.03525e-06
1.70192e-06
2.78398e-06
4.53117e-06
7.33758e-06
1.18215e-05
1.89473e-05
3.02105e-05
4.79162e-05
7.55958e-05
0.000118627
0.000185145
0.000287386
0.000443625
0.000680992
0.00103948
0.00157767
0.00238074
0.00357175
0.00532714
0.00789813
0.0116397
0.0170499
0.0248216
0.0359119
0.0516317
0.073762
0.104702
0.147656
0.206865
0.287893
0.397967
0.546388
0.745004
1.00875
1.35627
1.81053
2.39956
3.15713
4.12341
5.34557
6.8783
8.78401
11.133
14.003
17.479
21.6518
26.6168
32.4726
39.3184
47.2521
56.368
66.7536
78.4881
91.6398
106.264
122.404
140.085
159.319
180.104
202.423
226.244
251.525
278.214
306.249
335.562
366.08
397.725
430.419
464.084
498.64
534.01
570.121
606.9
644.278
682.191
720.578
759.381
798.546
838.024
877.769
917.737
957.889
998.19
1038.61
1079.1
1119.66
1160.24
1200.84
1241.41
1281.95
1322.44
1362.85
1403.18
1443.41
1483.53
1523.52
1563.37
1603.08
1642.63
1682.01
1721.22
1760.25
1799.08
1837.72
1876.17
1914.4
1952.42
1990.22
2027.8
2065.15
2102.27
2139.16
2175.8
2212.21
2248.37
2284.29
2319.96
2355.37
2390.53
2425.44
2460.09
2494.48
2528.61
2562.48
2596.08
2629.42
2662.5
2695.31
2727.86
2760.14
2792.16
2823.9
2855.38
2886.6
2917.54
2948.22
2978.63
3008.77
3038.65
3068.26
3097.61
3126.68
3155.49
3184.04
3212.32
3240.34
3268.1
3295.59
3322.82
3349.78
3376.49
3402.94
3429.12
3455.05
3480.72
3506.13
3531.29
3556.19
3580.83
3605.22
3629.36
3653.25
3676.89
3700.27
3723.41
3746.3
3768.94
3791.34
3813.49
3835.39
3857.05
3878.48
3899.66
3920.6
3941.3
3961.76
3981.98
4001.98
4021.73
4041.26
4060.53
4079.62
4098.4
4117.06
4135.34
4153.61
4171.37
4189.25
4206.53
4223.93
4240.87
4257.63
4274.36
4290.5
4306.93
4322.58
4338.51
4353.92
4369.18
4384.36
4399.14
4413.83
4428.32
4442.49
4456.58
4470.41
4484.01
4497.46
4510.69
4523.68
4536.53
4549.16
4561.57
4573.81
4585.86
4597.69
4609.34
4620.81
4632.07
4643.15
4654.04
4664.75
4675.26
4685.59
4695.74
4705.7
4715.48
4725.08
4734.5
4743.74
4752.81
4761.69
4770.4
4778.94
4787.3
4795.49
4803.51
4811.36
4819.04
4826.55
4833.89
4841.06
4848.07
4854.92
4861.6
4868.12
4874.48
4880.68
4886.72
4892.6
4898.32
4903.89
4909.3
4914.56
4919.66
4924.62
4929.42
4934.07
4938.57
4942.92
4947.12
4951.18
4955.09
4958.86
4962.48
4965.96
4969.3
4972.5
4975.56
4978.48
4981.26
4983.9
4986.41
4988.79
4991.02
4993.13
4995.1
4996.94
4998.65
5000.23
5001.68
5003.01
5004.2
5005.27
5006.22
5007.04
5007.74
5008.31
5008.76
5009.09
5009.3
5009.4
5009.37
5009.23
5008.97
5008.59
5008.1
5007.49
5006.77
5005.94
5005
5003.95
5002.78
5001.51
5000.13
4998.64
4997.05
4995.35
4993.54
4991.63
4989.62
4987.51
4985.29
4982.97
4980.55
4978.03
4975.42
4972.7
4969.89
4966.98
4963.98
4960.88
4957.69
4954.41
4951.03
4947.56
4944
4940.35
4936.61
4932.78
4928.86
4924.86
4920.77
4916.6
4912.34
4907.99
4903.56
4899.05
4894.46
4889.78
4885.03
4880.2
4875.28
4870.29
4865.22
4860.07
4854.85
4849.55
4844.18
4838.73
4833.21
4827.61
4821.95
4816.21
4810.4
4804.52
4798.58
4792.56
4786.48
4780.32
4774.11
4767.82
4761.47
4755.06
4748.58
4742.04
4735.44
4728.77
4722.05
4715.26
4708.41
4701.51
4694.54
4687.52
4680.44
4673.3
4666.11
4658.86
4651.56
4644.21
4636.8
4629.34
4621.82
4614.26
4606.64
4598.98
4591.26
4583.5
4575.69
4567.83
4559.93
4551.98
4543.98
4535.94
4527.86
4519.73
4511.56
4503.35
4495.1
4486.81
4478.48
4470.1
4461.69
4453.25
4444.76
4436.24
4427.69
4419.1
4410.47
4401.82
4393.13
4384.41
4375.65
4366.87
4358.06
4349.22
4340.35
4331.46
4322.54
4313.59
4304.62
4295.62
4286.61
4277.57
4268.51
4259.43
4250.33
4241.21
4232.08
4222.93
4213.76
4204.59
4195.39
4186.19
4176.97
4167.75
4158.51
4149.27
4140.03
4130.77
4121.52
4112.26
4103
4093.74
4084.49
4075.23
4065.98
4056.74
4047.5
4038.28
4029.06
4019.86
4010.68
4001.51
3992.35
3983.22
3974.11
3965.03
3955.97
3946.94
3937.94
3928.98
3920.05
3911.16
3902.31
3893.5
3884.75
3876.03
3867.38
3858.77
3850.23
3841.74
3833.32
3824.97
3816.69
3808.48
3800.35
3792.31
3784.35
3776.47
3768.69
3761.01
3753.43
3745.95
3738.57
3731.32
3724.17
3717.15
3710.25
3703.48
3696.84
3690.33
3683.96
3677.74
3671.66
3665.73
3659.95
3654.32
3648.86
3643.55
3638.4
3633.42
3628.6
3623.95
3619.46
3615.14
3610.99
3607.01
3603.19
3599.53
3596.04
3592.72
3589.55
3586.54
3583.68
3580.97
3578.41
3575.99
3573.7
3571.55
3569.53
3567.63
3565.85
3564.18
3562.61
3561.15
3559.78
3558.5
3557.3
3556.17
3555.12
3554.14
3553.22
3552.35
3551.54
3550.77
3550.04
3549.35
3548.69
3548.06
3547.45
3546.87
3546.3
3545.75
3545.21
3544.68
3544.15
3543.63
3543.11
3542.6
3542.08
3541.56
3541.02
3540.48
3539.94
3539.39
3538.83
3538.26
3537.67
3537.07
3536.46
3535.83
3535.18
3534.52
3533.83
3533.13
3532.4
3531.65
3530.88
3530.09
3529.27
3528.42
3527.54
3526.64
3525.7
3524.73
3523.73
3522.69
3521.61
3520.49
3519.33
3518.12
3516.87
3515.57
3514.21
3512.8
3511.32
3509.79
3508.18
3506.49
3504.71
3502.84
3500.86
3498.76
3496.51
3494.09
3491.48
3488.64
3485.53
3482.11
3478.31
3474.09
3469.36
3464.05
3458.05
3451.28
3443.62
3434.95
3425.14
3414.05
3401.54
3387.45
3371.64
3353.95
3334.23
3312.34
3288.12
3261.46
3232.23
3200.34
3165.7
3128.26
3087.98
3044.86
2998.93
2950.23
2898.86
2844.92
2788.58
2730.01
2669.42
2607.03
2543.11
2477.94
2411.8
2345.01
2277.87
2210.7
2143.82
2077.53
2012.14
1947.92
1885.13
1824.05
1764.87
1707.8
1653.01
1600.63
1550.77
1503.52
1458.91
1416.99
1377.75
1341.17
1307.21
1275.8
1246.86
1220.31
1196.04
1173.94
1153.88
1135.76
1119.43
1104.79
1091.69
1080.03
1069.69
1060.53
1052.47
1045.39
1039.2
1033.8
1029.12
1025.07
1021.58
1018.58
1016.02
1013.83
1011.98
1010.42
1009.11
1008.01
1007.09
1006.34
1005.71
1005.2
1004.79
1004.45
1004.18
1003.97
1003.81
1003.68
1003.58
1003.51
1003.46
1003.43
1003.4
1003.39
1003.39
1003.4
1003.4
1003.42
1003.43
1003.45
1003.47
1003.49
1003.51
1003.53
1003.55
1003.57
1003.59
1003.61
1003.62
1003.64
1003.66
1003.68
1003.69
1003.71
1003.73
1003.74
1003.76
1003.77
1003.79
1003.8
1003.82
1003.83
1003.84
1003.86
1003.87
1003.88
1003.9
1003.91
1003.93
1003.94
1003.96
1003.97
1003.98
1004
1004.02
1004.03
1004.05
1004.06
1004.08
1004.09
1004.11
1004.13
1004.14
1004.16
1004.17
1004.19
1004.21
1004.22
1004.24
1004.26
1004.27
1004.29
1004.31
1004.32
1004.34
1004.36
1004.38
1004.4
1004.41
1004.43
1004.45
1004.47
1004.48
1004.5
1004.51
1004.53
1004.53
1004.54
1004.54
1004.54
1004.51
1004.48
1004.41
1004.33
1004.15
1003.88
1003.32
1002.02
1000.22
995.947
987.559
971.026
939.108
879.811
772.619
626.79
)
;

boundaryField
{
    sides
    {
        type            calculated;
        value           nonuniform List<scalar> 2(439.039 4.56348e-11);
    }
    empty
    {
        type            empty;
        value           nonuniform 0();
    }
}


// ************************************************************************* //
