/*--------------------------------*- C++ -*----------------------------------*\
  =========                 |
  \\      /  F ield         | OpenFOAM: The Open Source CFD Toolbox
   \\    /   O peration     | Website:  https://openfoam.org
    \\  /    A nd           | Version:  7
     \\/     M anipulation  |
\*---------------------------------------------------------------------------*/
FoamFile
{
    version     2.0;
    format      ascii;
    class       volScalarField;
    location    "0.006";
    object      rho;
}
// * * * * * * * * * * * * * * * * * * * * * * * * * * * * * * * * * * * * * //

dimensions      [1 -3 0 0 0 0 0];

internalField   nonuniform List<scalar> 
1000
(
9.97574
9.97574
9.97574
9.97574
9.97574
9.97574
9.97574
9.97574
9.97574
9.97574
9.97574
9.97574
9.97574
9.97574
9.97574
9.97574
9.97574
9.97574
9.97574
9.97574
9.97574
9.97574
9.97574
9.97574
9.97574
9.97574
9.97574
9.97574
9.97574
9.97574
9.97574
9.97574
9.97574
9.97574
9.97574
9.97574
9.97574
9.97574
9.97574
9.97574
9.97574
9.97574
9.97574
9.97574
9.97574
9.97574
9.97574
9.97574
9.97574
9.97574
9.97574
9.97574
9.97574
9.97574
9.97574
9.97574
9.97574
9.97574
9.97574
9.97574
9.97574
9.97574
9.97574
9.97574
9.97574
9.97574
9.97574
9.97574
9.97574
9.97574
9.97574
9.97574
9.97574
9.97574
9.97574
9.97574
9.97574
9.97574
9.97574
9.97574
9.97574
9.97574
9.97574
9.97574
9.97574
9.97574
9.97574
9.97574
9.97574
9.97574
9.97574
9.97574
9.97574
9.97574
9.97574
9.97574
9.97574
9.97574
9.97574
9.97574
9.97574
9.97574
9.97574
9.97574
9.97574
9.97574
9.97574
9.97574
9.97574
9.97574
9.97574
9.97574
9.97574
9.97574
9.97574
9.97574
9.97574
9.97574
9.97574
9.97574
9.97574
9.97574
9.97574
9.97574
9.97574
9.97574
9.97574
9.97574
9.97574
9.97574
9.97574
9.97574
9.97574
9.97574
9.97574
9.97574
9.97574
9.97574
9.97574
9.97574
9.97574
9.97574
9.97574
9.97574
9.97574
9.97574
9.97574
9.97574
9.97574
9.97574
9.97574
9.97574
9.97574
9.97574
9.97574
9.97574
9.97574
9.97574
9.97574
9.97574
9.97574
9.97574
9.97574
9.97574
9.97574
9.97574
9.97574
9.97574
9.97574
9.97574
9.97574
9.97574
9.97574
9.97574
9.97574
9.97574
9.97574
9.97574
9.97574
9.97574
9.97574
9.97574
9.97574
9.97574
9.97574
9.97574
9.97574
9.97574
9.97574
9.97574
9.97574
9.97574
9.97574
9.97574
9.97574
9.97574
9.97574
9.97574
9.97574
9.97574
9.97574
9.97574
9.97574
9.97574
9.97574
9.97574
9.97574
9.97574
9.97574
9.97574
9.97574
9.97574
9.97574
9.97574
9.97574
9.97574
9.97574
9.97574
9.97574
9.97574
9.97574
9.97574
9.97574
9.97574
9.97574
9.97574
9.97574
9.97574
9.97574
9.97574
9.97573
9.97573
9.97572
9.97571
9.9757
9.97568
9.97566
9.97563
9.97558
9.97552
9.97543
9.97532
9.97516
9.97496
9.9747
9.97435
9.97391
9.97334
9.97261
9.9717
9.97056
9.96914
9.96741
9.9653
9.96275
9.95971
9.9561
9.95187
9.94693
9.94123
9.93471
9.9273
9.91896
9.90964
9.8993
9.88791
9.87547
9.86195
9.84737
9.83174
9.81507
9.79738
9.77872
9.75911
9.73861
9.71724
9.69508
9.67215
9.6485
9.62419
9.59926
9.57376
9.54772
9.5212
9.49422
9.46683
9.43906
9.41094
9.38251
9.35379
9.3248
9.29558
9.26614
9.2365
9.20669
9.17672
9.1466
9.11636
9.086
9.05554
9.02498
8.99435
8.96365
8.93288
8.90207
8.87121
8.84031
8.80938
8.77843
8.74747
8.71649
8.6855
8.65452
8.62354
8.59256
8.5616
8.53066
8.49973
8.46883
8.43796
8.40712
8.37631
8.34554
8.31481
8.28411
8.25347
8.22287
8.19231
8.16181
8.13136
8.10096
8.07062
8.04034
8.01012
7.97996
7.94986
7.91982
7.88984
7.85994
7.83009
7.80032
7.77061
7.74098
7.71141
7.68191
7.65249
7.62314
7.59386
7.56465
7.53552
7.50646
7.47748
7.44857
7.41974
7.39099
7.36231
7.33371
7.30519
7.27674
7.24837
7.22008
7.19187
7.16374
7.13569
7.10772
7.07982
7.05201
7.02427
6.99662
6.96904
6.94155
6.91414
6.8868
6.85955
6.83237
6.80528
6.77827
6.75134
6.72449
6.69772
6.67103
6.64442
6.61789
6.59144
6.56507
6.53879
6.51257
6.48646
6.46039
6.43448
6.4085
6.38286
6.35684
6.33169
6.30535
6.28103
6.25398
6.23085
6.20286
6.18089
6.1524
6.13073
6.10286
6.08033
6.05404
6.03008
6.00534
5.98068
5.95629
5.93212
5.90738
5.88369
5.85914
5.83529
5.81125
5.78739
5.76346
5.73988
5.71606
5.69254
5.66901
5.64558
5.62219
5.59896
5.57571
5.55259
5.52953
5.50658
5.48365
5.46084
5.43809
5.41542
5.39281
5.3703
5.34784
5.32548
5.30317
5.28096
5.2588
5.23673
5.21473
5.19281
5.17095
5.14918
5.12747
5.10585
5.08429
5.0628
5.04139
5.02006
4.99879
4.9776
4.95648
4.93543
4.91446
4.89355
4.87272
4.85195
4.83127
4.81065
4.7901
4.76962
4.74922
4.72888
4.70862
4.68842
4.6683
4.64824
4.62826
4.60834
4.5885
4.56872
4.54902
4.52937
4.50981
4.4903
4.47087
4.4515
4.43221
4.41298
4.39382
4.37472
4.3557
4.33673
4.31784
4.29902
4.28026
4.26157
4.24294
4.22438
4.20589
4.18746
4.1691
4.1508
4.13257
4.1144
4.0963
4.07826
4.06029
4.04239
4.02454
4.00677
3.98905
3.9714
3.95381
3.93629
3.91883
3.90143
3.8841
3.86683
3.84962
3.83248
3.8154
3.79838
3.78142
3.76452
3.74769
3.73091
3.7142
3.69755
3.68096
3.66444
3.64797
3.63156
3.61522
3.59893
3.58271
3.56654
3.55044
3.53439
3.51841
3.50248
3.48662
3.47081
3.45506
3.43937
3.42374
3.40817
3.39265
3.3772
3.3618
3.34646
3.33118
3.31596
3.30079
3.28568
3.27063
3.25564
3.2407
3.22582
3.211
3.19623
3.18152
3.16686
3.15227
3.13772
3.12324
3.10881
3.09444
3.08012
3.06585
3.05164
3.03749
3.02339
3.00935
2.99536
2.98143
2.96755
2.95373
2.93996
2.92624
2.91258
2.89897
2.88542
2.87191
2.85847
2.84507
2.83174
2.81845
2.80522
2.79203
2.77891
2.76583
2.75281
2.73984
2.72693
2.71406
2.70125
2.68849
2.67579
2.66313
2.65053
2.63798
2.62548
2.61304
2.60064
2.5883
2.57601
2.56377
2.55159
2.53945
2.52737
2.51533
2.50335
2.49142
2.47954
2.46772
2.45594
2.44422
2.43255
2.42092
2.40935
2.39783
2.38637
2.37495
2.36359
2.35227
2.34101
2.3298
2.31864
2.30753
2.29648
2.28547
2.27452
2.26362
2.25277
2.24198
2.23123
2.22054
2.2099
2.19931
2.18878
2.1783
2.16787
2.1575
2.14717
2.13691
2.12669
2.11653
2.10643
2.09638
2.08638
2.07644
2.06656
2.05673
2.04696
2.03724
2.02758
2.01798
2.00844
1.99896
1.98953
1.98017
1.97086
1.96162
1.95244
1.94331
1.93426
1.92526
1.91633
1.90746
1.89866
1.88993
1.88126
1.87266
1.86414
1.85568
1.84729
1.83897
1.83073
1.82257
1.81448
1.80646
1.79853
1.79067
1.7829
1.77521
1.7676
1.76008
1.75264
1.7453
1.73804
1.73088
1.72381
1.71684
1.70997
1.7032
1.69653
1.68996
1.6835
1.67714
1.6709
1.66476
1.65875
1.65284
1.64706
1.64139
1.63585
1.63043
1.62514
1.61997
1.61494
1.61003
1.60526
1.60062
1.59612
1.59175
1.58752
1.58343
1.57947
1.57566
1.57198
1.56844
1.56504
1.56178
1.55866
1.55568
1.55282
1.55011
1.54752
1.54506
1.54273
1.54053
1.53845
1.53648
1.53463
1.53289
1.53126
1.52973
1.5283
1.52696
1.52572
1.52457
1.52349
1.52249
1.52157
1.52072
1.51992
1.51919
1.51851
1.51789
1.51731
1.51678
1.51628
1.51583
1.5154
1.51501
1.51464
1.5143
1.51398
1.51367
1.51338
1.51311
1.51284
1.51259
1.51234
1.51211
1.51186
1.51164
1.5114
1.51118
1.51094
1.51072
1.51048
1.51025
1.51001
1.50978
1.50953
1.50928
1.50902
1.50876
1.50849
1.50822
1.50794
1.50764
1.50734
1.50703
1.50671
1.50638
1.50604
1.50568
1.50532
1.50494
1.50455
1.50415
1.50373
1.5033
1.50284
1.50238
1.50189
1.5014
1.50087
1.50033
1.49976
1.49917
1.49855
1.49792
1.49724
1.49654
1.4958
1.49503
1.49421
1.49334
1.49241
1.49142
1.49035
1.48919
1.48792
1.48654
1.485
1.4833
1.48139
1.47927
1.47686
1.47415
1.47108
1.46761
1.46368
1.45924
1.45421
1.44856
1.44219
1.43506
1.4271
1.41824
1.40841
1.39758
1.38566
1.37264
1.35845
1.34308
1.32651
1.30872
1.28972
1.26953
1.24817
1.2257
1.20216
1.17764
1.1522
1.12594
1.09897
1.07141
1.04337
1.01499
0.986382
0.957701
0.929072
0.900633
0.87251
0.844829
0.817704
0.791246
0.765559
0.740736
0.71685
0.693967
0.672138
0.651403
0.631792
0.613322
0.595999
0.579817
0.564764
0.550815
0.537943
0.526106
0.515274
0.505381
0.496395
0.488257
0.480917
0.474318
0.46841
0.463139
0.458453
0.454303
0.450639
0.447417
0.444594
0.44213
0.439987
0.438129
0.436526
0.435147
0.433966
0.432958
0.432101
0.431376
0.430765
0.430253
0.429825
0.42947
0.429176
0.428934
0.428737
0.428577
0.428448
0.428345
0.428264
0.428201
0.428152
0.428115
0.428088
0.428069
0.428056
0.428049
0.428045
0.428044
0.428046
0.428049
0.428053
0.428059
0.428066
0.428073
0.42808
0.428088
0.428095
0.428102
0.428109
0.428116
0.428123
0.428129
0.428135
0.428141
0.428146
0.428151
0.428156
0.428161
0.428165
0.428169
0.428173
0.428177
0.42818
0.428184
0.428188
0.428191
0.428195
0.428199
0.428203
0.428207
0.428211
0.428216
0.42822
0.428225
0.42823
0.428235
0.42824
0.428245
0.42825
0.428254
0.428259
0.428264
0.428268
0.428273
0.428277
0.428281
0.428285
0.42829
0.428294
0.428298
0.428303
0.428308
0.428313
0.428319
0.428325
0.428331
0.428338
0.428344
0.42835
0.428355
0.42836
0.428364
0.428367
0.428371
0.428373
0.428377
0.42838
0.428384
0.428386
0.428387
0.428386
0.428387
0.428381
0.428381
0.428357
0.428361
0.428268
0.428322
0.428126
0.427992
0.427649
0.426897
0.42568
0.422924
0.417587
0.406881
0.39001
0.348996
0.281129
)
;

boundaryField
{
    sides
    {
        type            calculated;
        value           nonuniform List<scalar> 2(0.281129 9.97574);
    }
    empty
    {
        type            empty;
    }
}


// ************************************************************************* //
