/*--------------------------------*- C++ -*----------------------------------*\
  =========                 |
  \\      /  F ield         | OpenFOAM: The Open Source CFD Toolbox
   \\    /   O peration     | Website:  https://openfoam.org
    \\  /    A nd           | Version:  7
     \\/     M anipulation  |
\*---------------------------------------------------------------------------*/
FoamFile
{
    version     2.0;
    format      ascii;
    class       volScalarField;
    location    "0.006";
    object      T;
}
// * * * * * * * * * * * * * * * * * * * * * * * * * * * * * * * * * * * * * //

dimensions      [0 0 0 1 0 0 0];

internalField   nonuniform List<scalar> 
1000
(
348.432
348.432
348.432
348.432
348.432
348.432
348.432
348.432
348.432
348.432
348.432
348.432
348.432
348.432
348.432
348.432
348.432
348.432
348.432
348.432
348.432
348.432
348.432
348.432
348.432
348.432
348.432
348.432
348.432
348.432
348.432
348.432
348.432
348.432
348.432
348.432
348.432
348.432
348.432
348.432
348.432
348.432
348.432
348.432
348.432
348.432
348.432
348.432
348.432
348.432
348.432
348.432
348.432
348.432
348.432
348.432
348.432
348.432
348.432
348.432
348.432
348.432
348.432
348.432
348.432
348.432
348.432
348.432
348.432
348.432
348.432
348.432
348.432
348.432
348.432
348.432
348.432
348.432
348.432
348.432
348.432
348.432
348.432
348.432
348.432
348.432
348.432
348.432
348.432
348.432
348.432
348.432
348.432
348.432
348.432
348.432
348.432
348.432
348.432
348.432
348.432
348.432
348.432
348.432
348.432
348.432
348.432
348.432
348.432
348.432
348.432
348.432
348.432
348.432
348.432
348.432
348.432
348.432
348.432
348.432
348.432
348.432
348.432
348.432
348.432
348.432
348.432
348.432
348.432
348.432
348.432
348.432
348.432
348.432
348.432
348.432
348.432
348.432
348.432
348.432
348.432
348.432
348.432
348.432
348.432
348.432
348.432
348.432
348.432
348.432
348.432
348.432
348.432
348.432
348.432
348.432
348.432
348.432
348.432
348.432
348.432
348.432
348.432
348.432
348.432
348.432
348.432
348.432
348.432
348.432
348.432
348.432
348.432
348.432
348.432
348.432
348.432
348.432
348.432
348.432
348.432
348.432
348.432
348.432
348.432
348.432
348.432
348.432
348.432
348.432
348.432
348.432
348.432
348.432
348.432
348.432
348.432
348.432
348.432
348.432
348.432
348.432
348.432
348.432
348.432
348.432
348.432
348.432
348.432
348.432
348.432
348.432
348.432
348.432
348.432
348.432
348.432
348.432
348.432
348.432
348.432
348.432
348.432
348.432
348.432
348.432
348.432
348.432
348.432
348.432
348.432
348.432
348.432
348.432
348.431
348.431
348.431
348.43
348.43
348.429
348.428
348.426
348.424
348.421
348.417
348.413
348.406
348.398
348.388
348.375
348.359
348.34
348.315
348.286
348.25
348.207
348.157
348.097
348.028
347.948
347.857
347.753
347.635
347.504
347.359
347.199
347.024
346.833
346.628
346.407
346.171
345.921
345.657
345.379
345.088
344.785
344.469
344.143
343.806
343.458
343.102
342.736
342.362
341.981
341.593
341.198
340.796
340.389
339.977
339.56
339.138
338.712
338.282
337.848
337.411
336.971
336.527
336.081
335.633
335.181
334.728
334.273
333.815
333.356
332.895
332.432
331.968
331.502
331.035
330.567
330.097
329.627
329.155
328.683
328.209
327.735
327.26
326.784
326.308
325.831
325.353
324.875
324.397
323.917
323.438
322.958
322.478
321.997
321.516
321.035
320.554
320.072
319.591
319.109
318.627
318.145
317.662
317.18
316.698
316.215
315.733
315.251
314.768
314.286
313.804
313.322
312.839
312.357
311.875
311.393
310.912
310.43
309.949
309.467
308.986
308.505
308.024
307.543
307.063
306.582
306.102
305.622
305.143
304.663
304.184
303.705
303.226
302.747
302.269
301.791
301.313
300.836
300.358
299.881
299.404
298.928
298.452
297.976
297.5
297.025
296.55
296.075
295.6
295.126
294.652
294.179
293.706
293.232
292.761
292.286
291.818
291.339
290.881
290.388
289.952
289.429
289.035
288.463
288.121
287.504
287.194
286.571
286.241
285.664
285.269
284.767
284.307
283.847
283.378
282.903
282.459
281.969
281.525
281.051
280.59
280.125
279.667
279.196
278.741
278.275
277.815
277.353
276.894
276.431
275.973
275.513
275.054
274.594
274.137
273.677
273.22
272.762
272.306
271.848
271.393
270.937
270.482
270.026
269.572
269.117
268.663
268.209
267.756
267.304
266.851
266.399
265.948
265.496
265.045
264.595
264.145
263.695
263.246
262.797
262.349
261.901
261.453
261.006
260.559
260.112
259.666
259.221
258.775
258.331
257.886
257.442
256.998
256.555
256.112
255.67
255.227
254.786
254.345
253.904
253.463
253.023
252.584
252.145
251.706
251.267
250.829
250.392
249.954
249.518
249.081
248.646
248.21
247.775
247.34
246.906
246.472
246.039
245.605
245.173
244.741
244.309
243.877
243.447
243.016
242.586
242.156
241.727
241.298
240.87
240.441
240.014
239.587
239.16
238.734
238.308
237.882
237.457
237.032
236.608
236.184
235.761
235.338
234.916
234.494
234.072
233.651
233.23
232.81
232.39
231.97
231.551
231.133
230.714
230.297
229.879
229.462
229.046
228.63
228.215
227.799
227.385
226.97
226.557
226.143
225.73
225.318
224.906
224.494
224.083
223.672
223.262
222.852
222.443
222.034
221.626
221.218
220.811
220.403
219.997
219.591
219.185
218.78
218.375
217.971
217.567
217.164
216.761
216.358
215.957
215.555
215.154
214.754
214.354
213.954
213.555
213.157
212.758
212.361
211.964
211.567
211.171
210.776
210.38
209.986
209.592
209.198
208.805
208.413
208.02
207.629
207.238
206.847
206.457
206.068
205.679
205.291
204.903
204.516
204.129
203.743
203.357
202.972
202.588
202.204
201.821
201.438
201.056
200.674
200.293
199.913
199.533
199.154
198.775
198.397
198.02
197.643
197.267
196.892
196.517
196.143
195.77
195.397
195.025
194.654
194.284
193.914
193.545
193.177
192.809
192.442
192.076
191.711
191.346
190.983
190.62
190.258
189.897
189.537
189.178
188.819
188.462
188.106
187.75
187.396
187.042
186.69
186.338
185.988
185.639
185.29
184.943
184.598
184.253
183.91
183.568
183.227
182.888
182.55
182.213
181.878
181.545
181.213
180.882
180.553
180.226
179.901
179.577
179.255
178.935
178.618
178.302
177.988
177.676
177.367
177.059
176.754
176.452
176.152
175.855
175.56
175.268
174.979
174.693
174.41
174.13
173.853
173.58
173.31
173.043
172.781
172.522
172.267
172.015
171.769
171.526
171.287
171.054
170.824
170.6
170.38
170.165
169.956
169.751
169.552
169.358
169.17
168.987
168.81
168.638
168.473
168.313
168.16
168.012
167.87
167.735
167.605
167.482
167.364
167.253
167.148
167.048
166.955
166.867
166.785
166.708
166.637
166.572
166.511
166.456
166.405
166.36
166.318
166.282
166.249
166.22
166.195
166.174
166.156
166.142
166.13
166.122
166.115
166.112
166.112
166.112
166.115
166.12
166.126
166.135
166.145
166.156
166.168
166.182
166.197
166.213
166.23
166.248
166.266
166.286
166.306
166.327
166.348
166.372
166.394
166.418
166.442
166.469
166.494
166.521
166.547
166.576
166.604
166.634
166.664
166.695
166.727
166.759
166.793
166.827
166.863
166.899
166.937
166.975
167.015
167.055
167.098
167.141
167.186
167.232
167.28
167.329
167.38
167.433
167.487
167.544
167.602
167.664
167.727
167.793
167.861
167.933
168.006
168.084
168.165
168.251
168.34
168.435
168.535
168.642
168.756
168.88
169.013
169.16
169.319
169.497
169.693
169.914
170.16
170.44
170.755
171.113
171.52
171.982
172.508
173.105
173.783
174.551
175.42
176.401
177.504
178.744
180.131
181.681
183.406
185.322
187.444
189.787
192.367
195.202
198.307
201.7
205.399
209.421
213.784
218.505
223.6
229.089
234.982
241.3
248.048
255.243
262.889
270.993
279.552
288.568
298.026
307.918
318.215
328.896
339.924
351.256
362.846
374.638
386.571
398.578
410.589
422.531
434.331
445.915
457.215
468.163
478.703
488.776
498.347
507.375
515.836
523.714
531.002
537.703
543.824
549.386
554.408
558.917
562.943
566.519
569.678
572.455
574.883
576.996
578.826
580.403
581.756
582.911
583.893
584.723
585.422
586.007
586.494
586.898
587.231
587.503
587.725
587.904
588.048
588.162
588.252
588.322
588.375
588.416
588.445
588.466
588.48
588.489
588.494
588.496
588.495
588.494
588.49
588.486
588.48
588.475
588.47
588.464
588.459
588.454
588.45
588.445
588.441
588.437
588.434
588.43
588.427
588.424
588.421
588.418
588.416
588.414
588.411
588.41
588.408
588.406
588.405
588.404
588.403
588.402
588.401
588.401
588.4
588.4
588.4
588.4
588.399
588.399
588.398
588.398
588.397
588.396
588.395
588.394
588.393
588.392
588.39
588.389
588.388
588.387
588.386
588.386
588.386
588.386
588.386
588.387
588.387
588.387
588.387
588.387
588.386
588.385
588.384
588.383
588.381
588.38
588.377
588.376
588.375
588.376
588.375
588.378
588.375
588.378
588.365
588.369
588.325
588.361
588.233
588.335
588.035
588.25
587.015
586.623
583.525
579.994
569.727
551.306
523.003
424.138
)
;

boundaryField
{
    sides
    {
        type            zeroGradient;
    }
    empty
    {
        type            empty;
    }
}


// ************************************************************************* //
