/*--------------------------------*- C++ -*----------------------------------*\
  =========                 |
  \\      /  F ield         | OpenFOAM: The Open Source CFD Toolbox
   \\    /   O peration     | Website:  https://openfoam.org
    \\  /    A nd           | Version:  7
     \\/     M anipulation  |
\*---------------------------------------------------------------------------*/
FoamFile
{
    version     2.0;
    format      ascii;
    class       volVectorField;
    location    "0.006";
    object      U;
}
// * * * * * * * * * * * * * * * * * * * * * * * * * * * * * * * * * * * * * //

dimensions      [0 1 -1 0 0 0 0];

internalField   nonuniform List<vector> 
1000
(
(-1.1203e-12 0 0)
(-1.01528e-12 0 0)
(-9.80267e-13 0 0)
(-7.4687e-13 0 0)
(-7.5854e-13 0 0)
(-7.93549e-13 0 0)
(-9.10248e-13 0 0)
(-7.4687e-13 0 0)
(-8.05219e-13 0 0)
(-7.1186e-13 0 0)
(-7.81879e-13 0 0)
(-6.88521e-13 0 0)
(-7.4687e-13 0 0)
(-8.05219e-13 0 0)
(-7.70209e-13 0 0)
(-9.45257e-13 0 0)
(-6.88521e-13 0 0)
(-1.01528e-12 0 0)
(-7.0019e-13 0 0)
(-7.93549e-13 0 0)
(-4.78463e-13 0 0)
(-7.70209e-13 0 0)
(-4.08444e-13 0 0)
(-4.66794e-13 0 0)
(-3.26756e-13 0 0)
(-2.21727e-13 0 0)
(-1.16698e-13 0 0)
(-1.98387e-13 0 0)
(-3.61765e-13 0 0)
(-2.10057e-13 0 0)
(-1.75048e-13 0 0)
(-4.66794e-14 0 0)
(-2.68406e-13 0 0)
(-3.96775e-13 0 0)
(-2.56736e-13 0 0)
(-3.03416e-13 0 0)
(-3.85105e-13 0 0)
(-6.18502e-13 0 0)
(-3.50095e-13 0 0)
(-3.61765e-13 0 0)
(-2.33397e-13 0 0)
(-3.03416e-13 0 0)
(-2.21727e-13 0 0)
(-1.16698e-13 0 0)
(-2.80076e-13 0 0)
(-2.91746e-13 0 0)
(-1.63378e-13 0 0)
(-3.15086e-13 0 0)
(-2.68406e-13 0 0)
(-3.26756e-13 0 0)
(-3.26756e-13 0 0)
(-3.50095e-13 0 0)
(-6.06832e-13 0 0)
(-5.36813e-13 0 0)
(-4.08444e-13 0 0)
(-6.41841e-13 0 0)
(-2.56736e-13 0 0)
(-3.50095e-13 0 0)
(-1.05029e-13 0 0)
(-3.96775e-13 0 0)
(-1.28368e-13 0 0)
(-4.08444e-13 0 0)
(-9.33587e-14 0 0)
(-3.50095e-13 0 0)
(-4.66794e-13 0 0)
(-4.43454e-13 0 0)
(-2.21727e-13 0 0)
(-1.86717e-13 0 0)
(-1.98387e-13 0 0)
(-3.26756e-13 0 0)
(-1.40038e-13 0 0)
(-3.26756e-13 0 0)
(-2.68406e-13 0 0)
(2.33397e-14 0 0)
(2.33397e-14 0 0)
(-1.16698e-13 0 0)
(-4.66794e-14 0 0)
(-8.16889e-14 0 0)
(-2.80076e-13 0 0)
(-2.56736e-13 0 0)
(-3.15086e-13 0 0)
(-1.98387e-13 0 0)
(-2.45067e-13 0 0)
(-4.55124e-13 0 0)
(-3.73435e-13 0 0)
(-6.41841e-13 0 0)
(-3.15086e-13 0 0)
(-3.26756e-13 0 0)
(-3.50095e-14 0 0)
(-1.63378e-13 0 0)
(-4.66794e-14 0 0)
(-9.33587e-14 0 0)
(-1.63378e-13 0 0)
(-3.61765e-13 0 0)
(-5.01803e-13 0 0)
(-2.10057e-13 0 0)
(-4.66794e-13 0 0)
(-8.16889e-14 0 0)
(-4.20114e-13 0 0)
(-2.33397e-14 0 0)
(-3.15086e-13 0 0)
(-4.66794e-14 0 0)
(-2.45067e-13 0 0)
(4.31784e-13 0 0)
(-5.83492e-14 0 0)
(2.80076e-13 0 0)
(7.0019e-14 0 0)
(7.0019e-14 0 0)
(1.16698e-14 0 0)
(-1.05029e-13 0 0)
(-1.51708e-13 0 0)
(-1.16698e-14 0 0)
(-1.40038e-13 0 0)
(-2.10057e-13 0 0)
(3.50095e-14 0 0)
(-8.16889e-14 0 0)
(-9.33587e-14 0 0)
(1.16698e-14 0 0)
(1.75048e-13 0 0)
(1.16698e-13 0 0)
(-4.66794e-14 0 0)
(-4.90133e-13 0 0)
(-1.86717e-13 0 0)
(-3.26756e-13 0 0)
(-9.33587e-14 0 0)
(-1.63378e-13 0 0)
(8.16889e-14 0 0)
(-4.66794e-14 0 0)
(-2.33397e-14 0 0)
(-1.40038e-13 0 0)
(2.33397e-14 0 0)
(-9.33587e-14 0 0)
(-3.73435e-13 0 0)
(-3.15086e-13 0 0)
(-2.68406e-13 0 0)
(-9.33587e-14 0 0)
(-1.28368e-13 0 0)
(-9.33587e-14 0 0)
(-2.80076e-13 0 0)
(-2.33397e-14 0 0)
(-4.55124e-13 0 0)
(-1.40038e-13 0 0)
(-3.38425e-13 0 0)
(-8.16889e-14 0 0)
(-2.10057e-13 0 0)
(1.63378e-13 0 0)
(-2.33397e-14 0 0)
(1.98387e-13 0 0)
(-9.33587e-14 0 0)
(-1.51708e-13 0 0)
(-4.20114e-13 0 0)
(2.56736e-13 0 0)
(5.83492e-14 0 0)
(8.16889e-14 0 0)
(-3.96775e-13 0 0)
(1.51708e-13 0 0)
(-2.80076e-13 0 0)
(-1.75048e-13 0 0)
(-3.96775e-13 0 0)
(-2.10057e-13 0 0)
(-3.38425e-13 0 0)
(-3.50095e-14 0 0)
(-1.86717e-13 0 0)
(-1.05029e-13 0 0)
(-4.66794e-14 0 0)
(-7.0019e-14 0 0)
(-3.26756e-13 0 0)
(-1.16698e-14 0 0)
(1.16698e-14 0 0)
(-1.63378e-13 0 0)
(1.16698e-14 0 0)
(-1.40038e-13 0 0)
(1.40038e-13 0 0)
(-8.16889e-14 0 0)
(-1.05029e-13 0 0)
(-3.50095e-13 0 0)
(-2.21727e-13 0 0)
(-4.43454e-13 0 0)
(-2.80076e-13 0 0)
(-5.36813e-13 0 0)
(-4.55124e-13 0 0)
(-7.352e-13 0 0)
(-3.50095e-13 0 0)
(-4.78463e-13 0 0)
(-1.59792e-26 0 0)
(5.83492e-14 0 0)
(1.16698e-13 0 0)
(1.51708e-13 0 0)
(6.06832e-13 0 0)
(7.81879e-13 0 0)
(1.56376e-12 0 0)
(2.24061e-12 0 0)
(3.73435e-12 0 0)
(6.64014e-12 0 0)
(1.14598e-11 0 0)
(2.02355e-11 0 0)
(3.5418e-11 0 0)
(6.17918e-11 0 0)
(1.06989e-10 0 0)
(1.8527e-10 0 0)
(3.18038e-10 0 0)
(5.45402e-10 0 0)
(9.28733e-10 0 0)
(1.57634e-09 0 0)
(2.65987e-09 0 0)
(4.4695e-09 0 0)
(7.47153e-09 0 0)
(1.24316e-08 0 0)
(2.05815e-08 0 0)
(3.39091e-08 0 0)
(5.55884e-08 0 0)
(9.0674e-08 0 0)
(1.47159e-07 0 0)
(2.37617e-07 0 0)
(3.8171e-07 0 0)
(6.10008e-07 0 0)
(9.69753e-07 0 0)
(1.53352e-06 0 0)
(2.41211e-06 0 0)
(3.77364e-06 0 0)
(5.87163e-06 0 0)
(9.08589e-06 0 0)
(1.39818e-05 0 0)
(2.13953e-05 0 0)
(3.25544e-05 0 0)
(4.92507e-05 0 0)
(7.40797e-05 0 0)
(0.000110776 0 0)
(0.000164672 0 0)
(0.000243331 0 0)
(0.000357395 0 0)
(0.000521729 0 0)
(0.000756932 0 0)
(0.00109132 0 0)
(0.00156352 0 0)
(0.00222575 0 0)
(0.00314802 0 0)
(0.00442342 0 0)
(0.0061745 0 0)
(0.00856124 0 0)
(0.0117904 0 0)
(0.0161265 0 0)
(0.0219049 0 0)
(0.0295459 0 0)
(0.0395706 0 0)
(0.0526181 0 0)
(0.069463 0 0)
(0.0910324 0 0)
(0.118423 0 0)
(0.152913 0 0)
(0.195976 0 0)
(0.249282 0 0)
(0.314698 0 0)
(0.394278 0 0)
(0.490248 0 0)
(0.604974 0 0)
(0.740929 0 0)
(0.900648 0 0)
(1.08668 0 0)
(1.30151 0 0)
(1.54755 0 0)
(1.82701 0 0)
(2.14192 0 0)
(2.49401 0 0)
(2.88475 0 0)
(3.31523 0 0)
(3.78622 0 0)
(4.29814 0 0)
(4.85107 0 0)
(5.44474 0 0)
(6.07859 0 0)
(6.7518 0 0)
(7.46332 0 0)
(8.21187 0 0)
(8.99606 0 0)
(9.81435 0 0)
(10.6651 0 0)
(11.5468 0 0)
(12.4577 0 0)
(13.396 0 0)
(14.3604 0 0)
(15.349 0 0)
(16.3604 0 0)
(17.3932 0 0)
(18.446 0 0)
(19.5174 0 0)
(20.6063 0 0)
(21.7114 0 0)
(22.8317 0 0)
(23.9662 0 0)
(25.1139 0 0)
(26.274 0 0)
(27.4458 0 0)
(28.6284 0 0)
(29.8211 0 0)
(31.0235 0 0)
(32.2348 0 0)
(33.4545 0 0)
(34.6822 0 0)
(35.9174 0 0)
(37.1596 0 0)
(38.4086 0 0)
(39.6638 0 0)
(40.925 0 0)
(42.1919 0 0)
(43.4641 0 0)
(44.7414 0 0)
(46.0236 0 0)
(47.3103 0 0)
(48.6014 0 0)
(49.8967 0 0)
(51.1959 0 0)
(52.4989 0 0)
(53.8054 0 0)
(55.1154 0 0)
(56.4286 0 0)
(57.7449 0 0)
(59.0642 0 0)
(60.3863 0 0)
(61.7111 0 0)
(63.0384 0 0)
(64.3682 0 0)
(65.7004 0 0)
(67.0347 0 0)
(68.3712 0 0)
(69.7098 0 0)
(71.0502 0 0)
(72.3926 0 0)
(73.7367 0 0)
(75.0825 0 0)
(76.4299 0 0)
(77.7789 0 0)
(79.1294 0 0)
(80.4813 0 0)
(81.8346 0 0)
(83.1892 0 0)
(84.545 0 0)
(85.9021 0 0)
(87.2603 0 0)
(88.6196 0 0)
(89.9799 0 0)
(91.3413 0 0)
(92.7037 0 0)
(94.067 0 0)
(95.4312 0 0)
(96.7963 0 0)
(98.1622 0 0)
(99.5289 0 0)
(100.896 0 0)
(102.265 0 0)
(103.634 0 0)
(105.003 0 0)
(106.374 0 0)
(107.745 0 0)
(109.116 0 0)
(110.488 0 0)
(111.861 0 0)
(113.234 0 0)
(114.608 0 0)
(115.982 0 0)
(117.357 0 0)
(118.733 0 0)
(120.108 0 0)
(121.485 0 0)
(122.861 0 0)
(124.238 0 0)
(125.616 0 0)
(126.993 0 0)
(128.372 0 0)
(129.75 0 0)
(131.129 0 0)
(132.508 0 0)
(133.888 0 0)
(135.268 0 0)
(136.648 0 0)
(138.028 0 0)
(139.409 0 0)
(140.79 0 0)
(142.172 0 0)
(143.553 0 0)
(144.935 0 0)
(146.317 0 0)
(147.699 0 0)
(149.081 0 0)
(150.464 0 0)
(151.847 0 0)
(153.23 0 0)
(154.613 0 0)
(155.997 0 0)
(157.38 0 0)
(158.764 0 0)
(160.148 0 0)
(161.532 0 0)
(162.916 0 0)
(164.301 0 0)
(165.685 0 0)
(167.07 0 0)
(168.454 0 0)
(169.839 0 0)
(171.224 0 0)
(172.609 0 0)
(173.994 0 0)
(175.379 0 0)
(176.764 0 0)
(178.15 0 0)
(179.535 0 0)
(180.921 0 0)
(182.307 0 0)
(183.693 0 0)
(185.079 0 0)
(186.465 0 0)
(187.85 0 0)
(189.237 0 0)
(190.623 0 0)
(192.009 0 0)
(193.395 0 0)
(194.781 0 0)
(196.168 0 0)
(197.554 0 0)
(198.94 0 0)
(200.327 0 0)
(201.713 0 0)
(203.1 0 0)
(204.486 0 0)
(205.873 0 0)
(207.26 0 0)
(208.646 0 0)
(210.033 0 0)
(211.419 0 0)
(212.806 0 0)
(214.193 0 0)
(215.579 0 0)
(216.966 0 0)
(218.352 0 0)
(219.739 0 0)
(221.126 0 0)
(222.512 0 0)
(223.899 0 0)
(225.286 0 0)
(226.672 0 0)
(228.059 0 0)
(229.445 0 0)
(230.832 0 0)
(232.218 0 0)
(233.605 0 0)
(234.991 0 0)
(236.378 0 0)
(237.764 0 0)
(239.151 0 0)
(240.537 0 0)
(241.924 0 0)
(243.31 0 0)
(244.696 0 0)
(246.082 0 0)
(247.469 0 0)
(248.855 0 0)
(250.241 0 0)
(251.627 0 0)
(253.013 0 0)
(254.399 0 0)
(255.785 0 0)
(257.171 0 0)
(258.557 0 0)
(259.942 0 0)
(261.328 0 0)
(262.714 0 0)
(264.099 0 0)
(265.485 0 0)
(266.87 0 0)
(268.256 0 0)
(269.641 0 0)
(271.027 0 0)
(272.412 0 0)
(273.797 0 0)
(275.182 0 0)
(276.567 0 0)
(277.952 0 0)
(279.337 0 0)
(280.722 0 0)
(282.107 0 0)
(283.491 0 0)
(284.876 0 0)
(286.26 0 0)
(287.645 0 0)
(289.029 0 0)
(290.413 0 0)
(291.798 0 0)
(293.182 0 0)
(294.566 0 0)
(295.95 0 0)
(297.334 0 0)
(298.717 0 0)
(300.101 0 0)
(301.485 0 0)
(302.868 0 0)
(304.251 0 0)
(305.635 0 0)
(307.018 0 0)
(308.401 0 0)
(309.784 0 0)
(311.167 0 0)
(312.55 0 0)
(313.932 0 0)
(315.315 0 0)
(316.697 0 0)
(318.079 0 0)
(319.462 0 0)
(320.844 0 0)
(322.226 0 0)
(323.608 0 0)
(324.989 0 0)
(326.371 0 0)
(327.753 0 0)
(329.134 0 0)
(330.515 0 0)
(331.896 0 0)
(333.277 0 0)
(334.658 0 0)
(336.039 0 0)
(337.419 0 0)
(338.8 0 0)
(340.18 0 0)
(341.56 0 0)
(342.94 0 0)
(344.32 0 0)
(345.7 0 0)
(347.08 0 0)
(348.459 0 0)
(349.838 0 0)
(351.218 0 0)
(352.597 0 0)
(353.975 0 0)
(355.354 0 0)
(356.733 0 0)
(358.111 0 0)
(359.489 0 0)
(360.867 0 0)
(362.245 0 0)
(363.623 0 0)
(365 0 0)
(366.377 0 0)
(367.754 0 0)
(369.131 0 0)
(370.508 0 0)
(371.885 0 0)
(373.261 0 0)
(374.637 0 0)
(376.013 0 0)
(377.389 0 0)
(378.764 0 0)
(380.139 0 0)
(381.514 0 0)
(382.889 0 0)
(384.264 0 0)
(385.638 0 0)
(387.012 0 0)
(388.386 0 0)
(389.76 0 0)
(391.133 0 0)
(392.507 0 0)
(393.88 0 0)
(395.252 0 0)
(396.625 0 0)
(397.997 0 0)
(399.369 0 0)
(400.74 0 0)
(402.111 0 0)
(403.482 0 0)
(404.853 0 0)
(406.223 0 0)
(407.593 0 0)
(408.963 0 0)
(410.333 0 0)
(411.702 0 0)
(413.07 0 0)
(414.439 0 0)
(415.807 0 0)
(417.175 0 0)
(418.542 0 0)
(419.909 0 0)
(421.275 0 0)
(422.642 0 0)
(424.007 0 0)
(425.373 0 0)
(426.737 0 0)
(428.102 0 0)
(429.466 0 0)
(430.83 0 0)
(432.193 0 0)
(433.555 0 0)
(434.917 0 0)
(436.279 0 0)
(437.64 0 0)
(439.001 0 0)
(440.361 0 0)
(441.72 0 0)
(443.079 0 0)
(444.438 0 0)
(445.795 0 0)
(447.152 0 0)
(448.509 0 0)
(449.865 0 0)
(451.22 0 0)
(452.574 0 0)
(453.928 0 0)
(455.281 0 0)
(456.634 0 0)
(457.985 0 0)
(459.336 0 0)
(460.686 0 0)
(462.035 0 0)
(463.383 0 0)
(464.73 0 0)
(466.077 0 0)
(467.422 0 0)
(468.767 0 0)
(470.11 0 0)
(471.453 0 0)
(472.794 0 0)
(474.134 0 0)
(475.473 0 0)
(476.811 0 0)
(478.148 0 0)
(479.484 0 0)
(480.818 0 0)
(482.151 0 0)
(483.482 0 0)
(484.812 0 0)
(486.141 0 0)
(487.468 0 0)
(488.794 0 0)
(490.117 0 0)
(491.44 0 0)
(492.76 0 0)
(494.079 0 0)
(495.396 0 0)
(496.71 0 0)
(498.023 0 0)
(499.334 0 0)
(500.643 0 0)
(501.949 0 0)
(503.253 0 0)
(504.555 0 0)
(505.854 0 0)
(507.151 0 0)
(508.444 0 0)
(509.736 0 0)
(511.024 0 0)
(512.309 0 0)
(513.591 0 0)
(514.87 0 0)
(516.146 0 0)
(517.418 0 0)
(518.687 0 0)
(519.952 0 0)
(521.213 0 0)
(522.47 0 0)
(523.722 0 0)
(524.971 0 0)
(526.215 0 0)
(527.454 0 0)
(528.688 0 0)
(529.917 0 0)
(531.141 0 0)
(532.359 0 0)
(533.572 0 0)
(534.779 0 0)
(535.979 0 0)
(537.173 0 0)
(538.361 0 0)
(539.541 0 0)
(540.714 0 0)
(541.88 0 0)
(543.038 0 0)
(544.188 0 0)
(545.329 0 0)
(546.462 0 0)
(547.585 0 0)
(548.699 0 0)
(549.804 0 0)
(550.898 0 0)
(551.981 0 0)
(553.054 0 0)
(554.115 0 0)
(555.165 0 0)
(556.202 0 0)
(557.227 0 0)
(558.239 0 0)
(559.237 0 0)
(560.222 0 0)
(561.192 0 0)
(562.147 0 0)
(563.087 0 0)
(564.011 0 0)
(564.918 0 0)
(565.809 0 0)
(566.683 0 0)
(567.54 0 0)
(568.378 0 0)
(569.197 0 0)
(569.998 0 0)
(570.779 0 0)
(571.541 0 0)
(572.282 0 0)
(573.003 0 0)
(573.703 0 0)
(574.381 0 0)
(575.039 0 0)
(575.674 0 0)
(576.288 0 0)
(576.88 0 0)
(577.45 0 0)
(577.997 0 0)
(578.522 0 0)
(579.025 0 0)
(579.506 0 0)
(579.965 0 0)
(580.402 0 0)
(580.817 0 0)
(581.211 0 0)
(581.584 0 0)
(581.936 0 0)
(582.267 0 0)
(582.579 0 0)
(582.872 0 0)
(583.146 0 0)
(583.402 0 0)
(583.64 0 0)
(583.861 0 0)
(584.066 0 0)
(584.256 0 0)
(584.43 0 0)
(584.591 0 0)
(584.738 0 0)
(584.872 0 0)
(584.995 0 0)
(585.106 0 0)
(585.207 0 0)
(585.298 0 0)
(585.381 0 0)
(585.454 0 0)
(585.52 0 0)
(585.578 0 0)
(585.63 0 0)
(585.676 0 0)
(585.716 0 0)
(585.752 0 0)
(585.783 0 0)
(585.81 0 0)
(585.833 0 0)
(585.853 0 0)
(585.87 0 0)
(585.884 0 0)
(585.896 0 0)
(585.906 0 0)
(585.915 0 0)
(585.921 0 0)
(585.927 0 0)
(585.931 0 0)
(585.934 0 0)
(585.937 0 0)
(585.939 0 0)
(585.94 0 0)
(585.94 0 0)
(585.94 0 0)
(585.94 0 0)
(585.939 0 0)
(585.938 0 0)
(585.937 0 0)
(585.936 0 0)
(585.935 0 0)
(585.934 0 0)
(585.932 0 0)
(585.931 0 0)
(585.929 0 0)
(585.928 0 0)
(585.927 0 0)
(585.925 0 0)
(585.924 0 0)
(585.923 0 0)
(585.921 0 0)
(585.92 0 0)
(585.919 0 0)
(585.918 0 0)
(585.917 0 0)
(585.916 0 0)
(585.915 0 0)
(585.914 0 0)
(585.914 0 0)
(585.913 0 0)
(585.912 0 0)
(585.912 0 0)
(585.911 0 0)
(585.911 0 0)
(585.911 0 0)
(585.91 0 0)
(585.91 0 0)
(585.91 0 0)
(585.91 0 0)
(585.909 0 0)
(585.909 0 0)
(585.909 0 0)
(585.909 0 0)
(585.909 0 0)
(585.909 0 0)
(585.909 0 0)
(585.909 0 0)
(585.91 0 0)
(585.91 0 0)
(585.91 0 0)
(585.91 0 0)
(585.91 0 0)
(585.91 0 0)
(585.91 0 0)
(585.911 0 0)
(585.911 0 0)
(585.911 0 0)
(585.911 0 0)
(585.912 0 0)
(585.912 0 0)
(585.912 0 0)
(585.912 0 0)
(585.912 0 0)
(585.912 0 0)
(585.912 0 0)
(585.912 0 0)
(585.911 0 0)
(585.911 0 0)
(585.91 0 0)
(585.909 0 0)
(585.907 0 0)
(585.906 0 0)
(585.904 0 0)
(585.901 0 0)
(585.898 0 0)
(585.895 0 0)
(585.892 0 0)
(585.888 0 0)
(585.884 0 0)
(585.879 0 0)
(585.874 0 0)
(585.869 0 0)
(585.864 0 0)
(585.859 0 0)
(585.854 0 0)
(585.849 0 0)
(585.844 0 0)
(585.84 0 0)
(585.836 0 0)
(585.833 0 0)
(585.832 0 0)
(585.831 0 0)
(585.832 0 0)
(585.832 0 0)
(585.832 0 0)
(585.833 0 0)
(585.836 0 0)
(585.84 0 0)
(585.846 0 0)
(585.852 0 0)
(585.859 0 0)
(585.867 0 0)
(585.875 0 0)
(585.884 0 0)
(585.892 0 0)
(585.901 0 0)
(585.909 0 0)
(585.917 0 0)
(585.925 0 0)
(585.932 0 0)
(585.939 0 0)
(585.945 0 0)
(585.951 0 0)
(585.955 0 0)
(585.959 0 0)
(585.963 0 0)
(585.966 0 0)
(585.97 0 0)
(585.973 0 0)
(585.975 0 0)
(585.978 0 0)
(585.98 0 0)
(585.982 0 0)
(585.984 0 0)
(585.986 0 0)
(585.988 0 0)
(585.99 0 0)
(585.992 0 0)
(585.994 0 0)
(585.996 0 0)
(585.997 0 0)
(585.999 0 0)
(586.001 0 0)
(586.003 0 0)
(586.005 0 0)
(586.007 0 0)
(586.009 0 0)
(586.011 0 0)
(586.013 0 0)
(586.016 0 0)
(586.018 0 0)
(586.02 0 0)
(586.022 0 0)
(586.024 0 0)
(586.026 0 0)
(586.028 0 0)
(586.03 0 0)
(586.032 0 0)
(586.033 0 0)
(586.035 0 0)
(586.037 0 0)
(586.038 0 0)
(586.04 0 0)
(586.042 0 0)
(586.044 0 0)
(586.045 0 0)
(586.047 0 0)
(586.049 0 0)
(586.051 0 0)
(586.052 0 0)
(586.054 0 0)
(586.056 0 0)
(586.058 0 0)
(586.06 0 0)
(586.063 0 0)
(586.065 0 0)
(586.068 0 0)
(586.07 0 0)
(586.073 0 0)
(586.076 0 0)
(586.08 0 0)
(586.083 0 0)
(586.086 0 0)
(586.09 0 0)
(586.093 0 0)
(586.096 0 0)
(586.099 0 0)
(586.102 0 0)
(586.105 0 0)
(586.108 0 0)
(586.11 0 0)
(586.112 0 0)
(586.115 0 0)
(586.117 0 0)
(586.119 0 0)
(586.121 0 0)
(586.123 0 0)
(586.125 0 0)
(586.127 0 0)
(586.129 0 0)
(586.132 0 0)
(586.134 0 0)
(586.137 0 0)
(586.141 0 0)
(586.144 0 0)
(586.147 0 0)
(586.151 0 0)
(586.155 0 0)
(586.159 0 0)
(586.162 0 0)
(586.166 0 0)
(586.169 0 0)
(586.171 0 0)
(586.174 0 0)
(586.176 0 0)
(586.177 0 0)
(586.179 0 0)
(586.181 0 0)
(586.183 0 0)
(586.185 0 0)
(586.189 0 0)
(586.193 0 0)
(586.198 0 0)
(586.203 0 0)
(586.209 0 0)
(586.214 0 0)
(586.219 0 0)
(586.224 0 0)
(586.227 0 0)
(586.23 0 0)
(586.232 0 0)
(586.232 0 0)
(586.231 0 0)
(586.227 0 0)
(586.218 0 0)
(586.205 0 0)
(586.177 0 0)
(586.14 0 0)
(586.034 0 0)
(585.993 0 0)
(585.78 0 0)
(585.521 0 0)
(584.849 0 0)
(583.534 0 0)
(580.946 0 0)
(575.762 0 0)
(565.097 0 0)
(544.507 0 0)
(514.188 0 0)
(413.863 0 0)
)
;

boundaryField
{
    sides
    {
        type            zeroGradient;
    }
    empty
    {
        type            empty;
    }
}


// ************************************************************************* //
