/*--------------------------------*- C++ -*----------------------------------*\
  =========                 |
  \\      /  F ield         | OpenFOAM: The Open Source CFD Toolbox
   \\    /   O peration     | Website:  https://openfoam.org
    \\  /    A nd           | Version:  7
     \\/     M anipulation  |
\*---------------------------------------------------------------------------*/
FoamFile
{
    version     2.0;
    format      ascii;
    class       volScalarField;
    location    "3";
    object      p;
}
// * * * * * * * * * * * * * * * * * * * * * * * * * * * * * * * * * * * * * //

dimensions      [0 2 -2 0 0 0 0];

internalField   nonuniform List<scalar> 
16000
(
-5.6818068e-08
-0.00011975679
-0.00034100852
-0.00060725948
-0.00086501207
-0.0010828749
-0.0012396855
-0.0013229746
-0.0013261738
-0.0012464282
-0.0010831664
-0.00083725878
-0.0005105101
-0.00010549232
0.00037439656
0.00092477076
0.0015399726
0.0022127599
0.0029339965
0.0036924928
0.0044748628
0.0052655856
0.0060472524
0.0068010179
0.007507305
0.0081466572
0.0087007538
0.0091535701
0.0094925328
0.0097096139
0.0098022919
0.0097742543
0.0096358233
0.0094041947
0.0091036613
0.0087654093
0.008423632
0.0081273788
0.0079239985
0.0078566964
0.00011197229
-6.8234665e-06
-0.00018098004
-0.00037902259
-0.00056923935
-0.00072718379
-0.0008358153
-0.00088406546
-0.00086519297
-0.00077554586
-0.00061358875
-0.00037928687
-7.3705809e-05
0.00030115733
0.00074236227
0.0012459147
0.0018065575
0.0024175839
0.0030705922
0.0037553863
0.0044598994
0.0051703296
0.0058712816
0.0065463008
0.0071784327
0.0077509922
0.0082484534
0.0086574337
0.0089676903
0.0091730318
0.0092720949
0.0092688806
0.0091730415
0.0089998956
0.0087702237
0.0085096937
0.0082474494
0.008016481
0.0078539432
0.0077889587
0.00033152592
0.00016165887
-1.4989314e-05
-0.00019086042
-0.00035168013
-0.00047957351
-0.00056162446
-0.00058928697
-0.0005570052
-0.00046150891
-0.0003012247
-7.5837334e-05
0.00021398024
0.00056666271
0.00097972286
0.001449662
0.0019717713
0.0025399695
0.0031465983
0.0037823167
0.0044360771
0.0050951955
0.0057455792
0.006372139
0.0069593518
0.0074919448
0.0079557488
0.0083386249
0.008631355
0.0088284843
0.0089290215
0.0089368791
0.0088610345
0.0087153939
0.008518334
0.0082918884
0.0080607473
0.0078513311
0.0076889235
0.007588804
0.00060512745
0.00035707191
0.00015022851
-2.9661028e-05
-0.00018377691
-0.00029982417
-0.00036887731
-0.00038540959
-0.00034576078
-0.00024768898
-9.008876e-05
0.00012726764
0.00040387582
0.00073852289
0.0011291992
0.0015729768
0.0020657999
0.0026022847
0.0031755374
0.0037770283
0.0043965239
0.0050221647
0.0056406637
0.0062376668
0.0067983068
0.0073078814
0.0077526592
0.0081208037
0.0084032626
0.0085946114
0.008693706
0.0087040758
0.0086340175
0.0084963445
0.0083077281
0.0080877137
0.0078579821
0.007641106
0.0074519743
0.0072945647
0.00087978651
0.00054671797
0.00029851412
0.00010235345
-5.6573128e-05
-0.00017062822
-0.00023458336
-0.00024596261
-0.00020316524
-0.00010521581
4.8312243e-05
0.00025739754
0.00052161846
0.00084008737
0.0012113007
0.0016329467
0.0021016922
0.0026129327
0.0031605592
0.0037368248
0.0043322141
0.0049355001
0.0055339067
0.0061134575
0.0066594711
0.0071572373
0.0075928704
0.0079542325
0.0082318646
0.0084198579
0.0085165395
0.0085248571
0.0084524245
0.0083111801
0.0081165744
0.0078864711
0.0076407121
0.0073995968
0.0071693574
0.006941608
0.0011211659
0.00070213437
0.00040722455
0.00018725352
1.5609328e-05
-0.00010381769
-0.00016902396
-0.00018037709
-0.00013829056
-4.3101536e-05
0.00010486683
0.00030528831
0.00055779456
0.00086180833
0.0012163572
0.0016198056
0.0020695818
0.002561908
0.003091502
0.0036513671
0.00423259
0.0048243702
0.0054142514
0.0059883065
0.006531607
0.0070289395
0.0074656999
0.0078288733
0.00810804
0.0082963233
0.0083911397
0.008394628
0.0083137036
0.0081596634
0.0079472559
0.0076934904
0.0074175254
0.0071389552
0.0068573982
0.0065539328
0.0013018196
0.00079946596
0.00045595867
0.00020782215
1.8276369e-05
-0.00011179964
-0.00018314761
-0.00019867736
-0.00016066724
-7.0685371e-05
7.0223381e-05
0.00026143881
0.00050265509
0.00079363974
0.0011339856
0.0015227837
0.0019582828
0.0024375736
0.0029562403
0.003508016
0.0040844653
0.0046752879
0.0052679694
0.0058484005
0.006401033
0.0069096847
0.0073585161
0.0077330802
0.0080214295
0.0082151934
0.0083104526
0.0083082726
0.0082148121
0.0080409239
0.0078011457
0.0075124393
0.0071944052
0.0068674153
0.0065264747
0.0061441792
0.0014001876
0.0008184837
0.00042657666
0.00014825341
-6.2199159e-05
-0.00020637996
-0.00028738271
-0.00031035701
-0.00027923301
-0.00019667829
-6.4376587e-05
0.00011683518
0.00034677132
0.00062559527
0.00095352146
0.0013304372
0.0017554921
0.0022266992
0.0027405316
0.0032914369
0.0038714862
0.0044713248
0.0050777157
0.0056761489
0.0062502214
0.0067823972
0.0072551061
0.0076518935
0.0079586821
0.0081650283
0.0082651773
0.0082587614
0.0081510285
0.0079525063
0.0076779534
0.0073450315
0.0069748289
0.0065898281
0.0061820471
0.0057171503
0.0013984533
0.00074149897
0.00030238034
-6.7553695e-06
-0.0002397146
-0.00040021681
-0.00049339805
-0.00052639416
-0.00050458884
-0.00043158696
-0.00030957686
-0.00013952845
7.8567867e-05
0.00034536271
0.00066178845
0.0010286099
0.0014459641
0.0019128805
0.0024267776
0.0029831318
0.0035751164
0.004192229
0.0048225371
0.0054505217
0.0060584825
0.0066272101
0.0071369239
0.0075685613
0.0079052402
0.00813375
0.0082458562
0.0082392461
0.0081179717
0.0078922425
0.0075773724
0.0071923854
0.0067608325
0.0063085297
0.0058256893
0.0052719192
0.001281029
0.0005526009
6.7841571e-05
-0.0002719946
-0.00052823332
-0.00070650364
-0.00081379261
-0.00085899902
-0.00084877474
-0.00078752725
-0.00067783124
-0.00052067228
-0.00031573672
-6.1796511e-05
0.00024289398
0.00060009361
0.001011065
0.0014760272
0.0019935726
0.0025601572
0.0031696982
0.0038127633
0.004476778
0.0051456578
0.005800444
0.0064198966
0.0069815311
0.0074630302
0.0078439233
0.0081073702
0.008241808
0.0082422577
0.0081110857
0.0078580108
0.0074990958
0.0070552923
0.0065535379
0.0060241578
0.0054563176
0.0048037407
0.0010336633
0.00023710709
-0.00029162903
-0.00066168685
-0.000941556
-0.0011386492
-0.0012616699
-0.0013211397
-0.0013248498
-0.0012778739
-0.001183062
-0.0010413126
-0.00085190887
-0.00061294206
-0.00032173479
2.4611824e-05
0.00042866316
0.00089204414
0.0014147872
0.0019946599
0.0026265789
0.003301993
0.0040083949
0.0047292569
0.0054442718
0.0061299243
0.0067605584
0.0073098977
0.0077529617
0.0080682039
0.0082396127
0.0082585153
0.0081247999
0.0078472565
0.0074426923
0.0069344327
0.0063536961
0.0057365121
0.0050713926
0.0043056944
0.0006429282
-0.0002187709
-0.00078987571
-0.0011895633
-0.0014932403
-0.0017100774
-0.0018504241
-0.0019263356
-0.0019466478
-0.001917007
-0.0018404534
-0.0017177149
-0.0015475836
-0.0013273657
-0.0010533236
-0.00072125348
-0.00032707628
0.00013250834
0.00065929576
0.0012527769
0.0019093727
0.0026216447
0.0033777538
0.0041609968
0.0049498594
0.0057184645
0.0064375863
0.0070762516
0.0076039039
0.0079929566
0.008221474
0.0082756421
0.0081516442
0.0078565218
0.0074075371
0.0068306713
0.0061622972
0.00544543
0.0046680358
0.003770045
9.5954749e-05
-0.00082815068
-0.0014401074
-0.0018688495
-0.0021965307
-0.0024341021
-0.0025935442
-0.0026884023
-0.0027285058
-0.0027200324
-0.0026661582
-0.0025673857
-0.0024219519
-0.0022262899
-0.0019754795
-0.001663838
-0.0012855243
-0.00083524163
-0.00030900909
0.00029490506
0.00097505263
0.0017258081
0.002536616
0.0033911489
0.0042671025
0.0051363666
0.0059658875
0.0067192799
0.0073592162
0.0078504505
0.008163208
0.0082765323
0.008181081
0.0078807812
0.0073926349
0.0067453069
0.0059811688
0.0051516501
0.0042440888
0.0031894375
-0.00061963305
-0.0016035374
-0.0022549276
-0.0027122416
-0.0030642536
-0.0033237452
-0.0035043627
-0.0036211437
-0.003684909
-0.0037023717
-0.0036768376
-0.0036085699
-0.0034952249
-0.0033323048
-0.0031136063
-0.0028317978
-0.002479019
-0.0020475884
-0.0015308398
-0.00092414251
-0.00022601488
0.00056063582
0.0014275511
0.0023596198
0.0033345158
0.0043223536
0.0052862441
0.0061837955
0.0069696535
0.0075990099
0.0080318259
0.0082373068
0.0081979712
0.0079124894
0.0073962489
0.0066802226
0.0058135444
0.0048576837
0.0037991813
0.0025580571
-0.0015156853
-0.0025568145
-0.0032463019
-0.003731834
-0.0041086854
-0.004391543
-0.0045957841
-0.0047379938
-0.0048300405
-0.0048792202
-0.0048890221
-0.0048595156
-0.0047878006
-0.0046684412
-0.0044938932
-0.0042550298
-0.0039417164
-0.0035434893
-0.003050412
-0.0024541737
-0.0017493766
-0.00093505118
-1.5755543e-05
0.0009958375
0.002078623
0.0032018619
0.0043252365
0.0054000361
0.0063716911
0.0071837096
0.0077828304
0.0081249009
0.0081806607
0.0079403036
0.0074153031
0.0066379254
0.0056646268
0.0045687556
0.0033358919
0.0018728696
-0.0026033946
-0.0036991635
-0.004425491
-0.0049390199
-0.005341386
-0.0056492863
-0.005879929
-0.0060515497
-0.0061771813
-0.0062648146
-0.0063182413
-0.0063374519
-0.006319082
-0.0062568204
-0.0061417846
-0.005962975
-0.0057077599
-0.0053624928
-0.0049133533
-0.0043474713
-0.0036543152
-0.0028273902
-0.0018667534
-0.00077995863
0.0004147081
0.0016871478
0.0029946312
0.0042823221
0.0054855286
0.0065338984
0.0073575196
0.0078944555
0.0080987638
0.0079475003
0.0074445659
0.0066214942
0.0055421872
0.0042938756
0.0028610952
0.001135063
-0.0038931072
-0.005040952
-0.005802955
-0.0063443641
-0.0067730167
-0.0071077387
-0.0073677258
-0.007573023
-0.0077380009
-0.0078715395
-0.0079779265
-0.0080572668
-0.0081059163
-0.0081168421
-0.0080799193
-0.0079822697
-0.0078086213
-0.0075418038
-0.0071635053
-0.0066553718
-0.0060005102
-0.0051854496
-0.0042027419
-0.0030534396
-0.0017503444
-0.00032053469
0.0011927105
0.0027294144
0.0042144546
0.0055616841
0.0066808402
0.0074869017
0.0079108913
0.0079102279
0.0074756846
0.0066344848
0.0054572639
0.0040471338
0.0023876151
0.00035182978
-0.0053941259
-0.0065916491
-0.0073882903
-0.0079574986
-0.0084131521
-0.0087763454
-0.0090684664
-0.009311605
-0.0095217212
-0.0097088633
-0.0098780988
-0.010029931
-0.01016072
-0.010262968
-0.010325516
-0.010333723
-0.010269646
-0.010112347
-0.0098384965
-0.0094233585
-0.0088423316
-0.0080731002
-0.0070985507
-0.0059102331
-0.0045123663
-0.002925802
-0.0011914602
0.00062763993
0.0024466524
0.004162394
0.0056606729
0.0068274323
0.0075628119
0.0077958968
0.0074962506
0.0066809068
0.0054250552
0.0038493324
0.0019363304
-0.00046132094
-0.0071145282
-0.0083597584
-0.0091902007
-0.0097870737
-0.01027014
-0.01066295
-0.01098935
-0.0112738
-0.011534207
-0.011782159
-0.012023881
-0.012260672
-0.012489281
-0.012702119
-0.012887327
-0.013028753
-0.013105899
-0.013093974
-0.012964244
-0.012684819
-0.012222104
-0.011543062
-0.010618464
-0.0094271203
-0.0079609097
-0.0062303431
-0.0042698786
-0.0021420627
6.0727295e-05
0.0022183219
0.0041897748
0.0058259043
0.0069868489
0.0075622617
0.0074892371
0.0067654959
0.0054661863
0.0037301281
0.0015389168
-0.0012775133
-0.0090610885
-0.010352896
-0.011216612
-0.011840819
-0.012351051
-0.012773554
-0.013135018
-0.013462708
-0.013776966
-0.014091403
-0.014413891
-0.014747014
-0.015088409
-0.01543088
-0.015762328
-0.016065489
-0.016317595
-0.016490103
-0.016548698
-0.016453769
-0.016161645
-0.015626836
-0.014805516
-0.013660388
-0.01216683
-0.010320108
-0.0081429252
-0.0056922327
-0.0030638271
-0.0003928367
0.0021518342
0.0043805315
0.00610364
0.0071580235
0.0074333607
0.0068946183
0.0056085886
0.0037308973
0.0012414453
-0.0020544749
-0.011239313
-0.012578028
-0.013474969
-0.014125765
-0.014661748
-0.01511219
-0.015507163
-0.015877358
-0.016246186
-0.016629903
-0.017038632
-0.017476832
-0.017943611
-0.018432746
-0.018932469
-0.019424939
-0.01988557
-0.020282366
-0.020575499
-0.020717358
-0.020653429
-0.020324354
-0.019669485
-0.018632197
-0.017167155
-0.015248963
-0.012882307
-0.010111852
-0.0070305162
-0.0037837366
-0.00056694001
0.0023863882
0.0048276778
0.0065260928
0.0073051634
0.007078316
0.0058903273
0.0039086137
0.0011091397
-0.0027292039
-0.013653732
-0.015042007
-0.015972818
-0.016648734
-0.01720716
-0.017680919
-0.018104232
-0.018512094
-0.018931815
-0.019383085
-0.019878992
-0.02042655
-0.021026985
-0.021675695
-0.022361878
-0.023067736
-0.023767444
-0.024426038
-0.024998488
-0.02542923
-0.025652551
-0.025594299
-0.025175284
-0.024316798
-0.02294905
-0.02102047
-0.018511001
-0.01544511
-0.011904422
-0.0080370129
-0.0040597851
-0.00024992357
0.0030781418
0.0056109152
0.007083895
0.0073341999
0.0063637985
0.0043410262
0.0012325507
-0.0032110826
-0.016308507
-0.017752499
-0.01871876
-0.019417127
-0.019991799
-0.020479997
-0.020921242
-0.021356044
-0.02181674
-0.022327422
-0.022904983
-0.023559724
-0.024295667
-0.025110484
-0.025994972
-0.026932018
-0.027895187
-0.028847149
-0.029738186
-0.030505132
-0.031071165
-0.031347001
-0.031233964
-0.03062949
-0.029435732
-0.027570728
-0.024983051
-0.021668522
-0.017687454
-0.013179969
-0.0083751955
-0.0035889331
0.00079611341
0.0043711719
0.0067604067
0.0076940998
0.0071018722
0.0051334942
0.0017354097
-0.0033732068
-0.01920855
-0.020719499
-0.021723985
-0.022440167
-0.023020596
-0.023508262
-0.02394972
-0.024392723
-0.024876124
-0.025429621
-0.02607486
-0.026826184
-0.027691052
-0.028669982
-0.029755933
-0.030933029
-0.032174805
-0.03344217
-0.034681335
-0.03582211
-0.036777046
-0.037441983
-0.037698646
-0.037419824
-0.036477476
-0.034756098
-0.032167388
-0.028670617
-0.024294212
-0.019157605
-0.013488805
-0.0076312622
-0.0020316829
0.0027987293
0.0063511503
0.0082143998
0.0082066463
0.0064279612
0.0027845442
-0.0030416359
-0.022361328
-0.023957664
-0.025004535
-0.025730733
-0.026300108
-0.026763716
-0.027177768
-0.027599726
-0.028076921
-0.028646111
-0.029334732
-0.030161896
-0.031139011
-0.032269854
-0.033549899
-0.034964869
-0.036488671
-0.03808092
-0.03968432
-0.041222321
-0.042597573
-0.043691804
-0.044367742
-0.044473637
-0.043851162
-0.042349885
-0.039840513
-0.036239619
-0.031534105
-0.025809341
-0.019275906
-0.012288148
-0.0053443212
0.00094351713
0.0059178316
0.008990823
0.0098214097
0.0084144803
0.0046022138
-0.0019823733
-0.025779703
-0.027489866
-0.02858462
-0.029307896
-0.029840124
-0.030244275
-0.030590181
-0.030948475
-0.031377522
-0.031922848
-0.032618738
-0.033489666
-0.034551285
-0.035810739
-0.037266055
-0.03890459
-0.040700702
-0.042612898
-0.044580711
-0.046521771
-0.048329622
-0.049872889
-0.050996482
-0.051525291
-0.051271294
-0.05005149
-0.047692306
-0.044064376
-0.039105911
-0.032856209
-0.025491258
-0.017355303
-0.0089774496
-0.0010578576
0.0055922202
0.010178143
0.012146461
0.011345789
0.0074813188
0.0001144504
-0.029486365
-0.031352555
-0.032501448
-0.033200391
-0.033655691
-0.033948591
-0.034168463
-0.034403887
-0.034727476
-0.035195413
-0.035849782
-0.036720724
-0.037828044
-0.03918194
-0.040782573
-0.0426185
-0.044664159
-0.046876692
-0.049192411
-0.051523375
-0.053754624
-0.055742682
-0.057316082
-0.05827892
-0.058418055
-0.057509464
-0.055346709
-0.051751674
-0.046609522
-0.039904769
-0.031763527
-0.022497603
-0.012639992
-0.0029545082
0.0056035519
0.01201406
0.015459
0.015555561
0.011804154
0.003653438
-0.033520892
-0.035603965
-0.036812181
-0.037451261
-0.037769482
-0.03787672
-0.037890532
-0.037923781
-0.038067144
-0.038389331
-0.038940793
-0.039757108
-0.040861552
-0.042266457
-0.043973095
-0.045970198
-0.048231338
-0.0507115
-0.053343215
-0.056032738
-0.058656801
-0.061060584
-0.06305762
-0.064432566
-0.064947408
-0.064350353
-0.062395151
-0.058859556
-0.053576451
-0.046471561
-0.037610333
-0.027252225
-0.015904828
-0.0043617255
0.006303709
0.014845017
0.020136743
0.021480766
0.018065964
0.009157474
-0.037951201
-0.040336837
-0.04160403
-0.042123902
-0.042214324
-0.042030286
-0.041729722
-0.041457734
-0.041327124
-0.041420492
-0.041796407
-0.042494745
-0.043540687
-0.044946953
-0.046714162
-0.048829503
-0.051264094
-0.053969364
-0.056872935
-0.059874472
-0.062842071
-0.065609812
-0.067977194
-0.069711219
-0.070551794
-0.070221062
-0.068438813
-0.064942554
-0.059516208
-0.052027463
-0.04247633
-0.031055792
-0.018221364
-0.0047579674
0.0081831583
0.01914962
0.026683939
0.029689082
0.026905296
0.01729889
-0.042893027
-0.045698563
-0.047008885
-0.047309692
-0.047035391
-0.046411483
-0.045652543
-0.044944976
-0.044427117
-0.044195438
-0.04431483
-0.044826888
-0.045755867
-0.047112081
-0.048892823
-0.051081274
-0.053643848
-0.056526432
-0.059650045
-0.062906439
-0.066154189
-0.069215927
-0.071877444
-0.073889321
-0.074971317
-0.074821607
-0.073130699
-0.06960051
-0.063971077
-0.056056323
-0.045791708
-0.033296961
-0.018955658
-0.0035073763
0.011867754
0.025552264
0.035756395
0.040911764
0.039145057
0.028945299
-0.048544491
-0.051923747
-0.053224403
-0.053136907
-0.052290924
-0.051019691
-0.049614157
-0.048310543
-0.047273685
-0.04661104
-0.046389411
-0.046647383
-0.047403768
-0.048662348
-0.050413434
-0.052632954
-0.055279763
-0.058291715
-0.061581082
-0.065029957
-0.068486064
-0.071759712
-0.074622794
-0.076810339
-0.078022339
-0.07793456
-0.076211369
-0.072523036
-0.066570487
-0.058119135
-0.04704397
-0.033390797
-0.017459622
8.5465964e-05
0.018086134
0.034816463
0.048179752
0.056082504
0.055850506
0.045234476
-0.055250303
-0.059387617
-0.060543588
-0.059779427
-0.058048915
-0.055843288
-0.053549686
-0.051458277
-0.049755764
-0.048552593
-0.047909023
-0.047852882
-0.048390847
-0.049514537
-0.051202574
-0.053419675
-0.056113838
-0.059212089
-0.062615556
-0.066194821
-0.069785316
-0.073184063
-0.076148119
-0.078395429
-0.079608265
-0.079441241
-0.077532944
-0.073523568
-0.067077652
-0.057915442
-0.045854841
-0.030868885
-0.013167529
0.0066838724
0.027596872
0.047804223
0.064950239
0.07638027
0.078413244
0.067707372
-0.063626596
-0.068694341
-0.069393891
-0.067460967
-0.064374725
-0.060842396
-0.057358041
-0.054258138
-0.051735971
-0.049888737
-0.048755843
-0.048342664
-0.048634473
-0.04960348
-0.051210986
-0.053406029
-0.056122186
-0.059272799
-0.062745754
-0.066398276
-0.07005217
-0.073490204
-0.076454139
-0.078645077
-0.079726722
-0.079332265
-0.077074517
-0.072563398
-0.065426387
-0.055337511
-0.042055948
-0.025478894
-0.0057173788
0.016785597
0.04106174
0.0653796
0.087195702
0.10326647
0.10867688
0.098561659
-0.074817071
-0.080821342
-0.080378318
-0.076441193
-0.071297624
-0.065913176
-0.060871169
-0.056522521
-0.053033695
-0.050460097
-0.048798132
-0.048014197
-0.048060134
-0.048880031
-0.050411557
-0.052583617
-0.055312054
-0.058494175
-0.0620029
-0.065681013
-0.069336028
-0.072736166
-0.07560793
-0.077635826
-0.078464972
-0.077707254
-0.074949044
-0.069768015
-0.061750722
-0.050518681
-0.035762939
-0.017290512
0.0049065818
0.030539532
0.058839442
0.088207242
0.11603561
0.13847634
0.14913024
0.14115139
-0.091043411
-0.097345989
-0.094275853
-0.08693614
-0.07871853
-0.070804916
-0.063787016
-0.057955415
-0.053388204
-0.050053228
-0.047871922
-0.046749918
-0.0465912
-0.047302365
-0.048791421
-0.050963339
-0.053713998
-0.056923453
-0.060449158
-0.064119551
-0.0677284
-0.071030296
-0.073737658
-0.075519651
-0.076003846
-0.074782182
-0.071414881
-0.065446046
-0.056415146
-0.043880968
-0.027449397
-0.0068101534
0.018206793
0.047534346
0.080679413
0.11638731
0.15223319
0.18385951
0.20313888
0.20080847
-0.11674632
-0.12077607
-0.1119232
-0.098903964
-0.08620555
-0.074951248
-0.065541688
-0.058061631
-0.052397521
-0.048360894
-0.045755423
-0.044400337
-0.044136919
-0.04482632
-0.046343087
-0.048566872
-0.05137366
-0.0546272
-0.058170993
-0.061821073
-0.065359753
-0.068530612
-0.071034943
-0.072529801
-0.072629
-0.070908923
-0.066895212
-0.060111053
-0.050042291
-0.036173673
-0.018005305
0.0049282582
0.033022677
0.066534384
0.10542439
0.14905331
0.19565013
0.24092744
0.27492914
0.28560543
-0.16080755
-0.15482879
-0.13398191
-0.11180957
-0.092786359
-0.077321763
-0.065233506
-0.056130192
-0.049539729
-0.045023918
-0.042218878
-0.040833753
-0.040637895
-0.041445238
-0.043098728
-0.045456136
-0.048377591
-0.051714731
-0.055301326
-0.058945226
-0.062421579
-0.065467387
-0.067777486
-0.069002112
-0.068749796
-0.066596115
-0.061997425
-0.054494354
-0.043516897
-0.028471256
-0.0087359435
0.01634693
0.047474965
0.085371891
0.1307133
0.18395851
0.24481976
0.30991828
0.36887434
0.4077422
-0.24319522
-0.20312798
-0.15936033
-0.12361607
-0.096306445
-0.076087779
-0.06152211
-0.051270663
-0.044268454
-0.039737433
-0.037119486
-0.036012632
-0.036123572
-0.037231341
-0.039159369
-0.041754265
-0.044869537
-0.048352712
-0.052034901
-0.055722202
-0.059188615
-0.062170408
-0.06436179
-0.065411579
-0.064919706
-0.062430234
-0.057517865
-0.04956697
-0.038004068
-0.022183963
-0.0013708836
0.025291264
0.058844137
0.10061225
0.15231629
0.21621089
0.29477911
0.38745252
0.48827574
0.59506365
-0.42241833
-0.26247778
-0.17441081
-0.12274387
-0.088356217
-0.065442142
-0.05054175
-0.040943165
-0.03488995
-0.031332081
-0.029612556
-0.029296696
-0.030087089
-0.031770694
-0.034182553
-0.037180973
-0.040630093
-0.044386868
-0.048290839
-0.052155838
-0.055763248
-0.058856597
-0.06113751
-0.062263329
-0.061847063
-0.059423326
-0.054546943
-0.046642104
-0.03510993
-0.01927298
0.0016645704
0.028677969
0.063047992
0.10659915
0.1621346
0.23422508
0.33000456
0.45774524
0.63484725
0.91260595
-0.7899251
-0.32092107
-0.14590668
-0.08558245
-0.054408782
-0.036266794
-0.026362667
-0.02114586
-0.018577428
-0.017705388
-0.018053973
-0.019344449
-0.021398206
-0.024090632
-0.027322138
-0.03099975
-0.035024793
-0.039283611
-0.0436399
-0.047928172
-0.05194812
-0.055459857
-0.058179985
-0.059778462
-0.059879087
-0.058094437
-0.053890848
-0.046757315
-0.036112167
-0.021292609
-0.0015274744
0.024124826
0.056905795
0.09863333
0.15233631
0.22386094
0.32587154
0.48596756
0.78183548
1.3755537
-7.2103168e-06
-0.00012368089
-0.00034325618
-0.00060856933
-0.00086589486
-0.0010835472
-0.0012402479
-0.0013234837
-0.0013266545
-0.0012468878
-0.0010836125
-0.00083769296
-0.00051092836
-0.00010589364
0.00037401652
0.00092442246
0.0015396647
0.0022124884
0.0029337732
0.0036923283
0.0044747605
0.0052655512
0.0060472815
0.0068011118
0.0075074668
0.0081468814
0.0087010325
0.0091538911
0.0094928786
0.0097099704
0.0098026451
0.0097745841
0.0096361085
0.009404417
0.0091038016
0.0087654529
0.0084236221
0.0081272509
0.0079237562
0.0078565731
0.00010801711
-9.4745838e-06
-0.00018249541
-0.00037977154
-0.00056952353
-0.00072718443
-0.00083564242
-0.00088378523
-0.00086485096
-0.00077517101
-0.00061320276
-0.00037890905
-7.3350457e-05
0.00030148064
0.00074264461
0.0012461458
0.0018067349
0.002417692
0.003070628
0.0037553516
0.0044597847
0.0051701318
0.0058709989
0.0065459348
0.0071779915
0.0077504868
0.0082478946
0.008656832
0.0089670604
0.0091723938
0.0092714705
0.0092682889
0.0091724984
0.0089994157
0.0087698189
0.0085093738
0.0082472206
0.0080163185
0.0078537981
0.0077889352
0.00032947703
0.0001599765
-1.6052165e-05
-0.000191512
-0.00035208462
-0.00047982431
-0.00056178158
-0.00058938647
-0.00055707195
-0.00046155894
-0.00030126678
-7.5878132e-05
0.00021393587
0.00056661259
0.00097966723
0.0014495955
0.0019716985
0.0025398881
0.003146506
0.0037822181
0.0044359738
0.0050950848
0.0057454606
0.006372018
0.0069592281
0.007491818
0.0079556251
0.0083385044
0.0086312339
0.0088283622
0.0089289015
0.0089367618
0.0088609178
0.0087152754
0.0085182134
0.0082917646
0.0080606141
0.0078511899
0.0076887894
0.0075886727
0.00060417079
0.00035599084
0.00014956942
-3.0094504e-05
-0.00018410128
-0.00030005941
-0.0003690502
-0.00038554745
-0.00034587801
-0.00024779481
-9.0190472e-05
0.00012716493
0.00040377166
0.00073841662
0.001129093
0.0015728682
0.002065689
0.0026021732
0.0031754279
0.003776919
0.0043964189
0.0050220669
0.0056405696
0.0062375791
0.0067982291
0.0073078156
0.0077526047
0.008120757
0.0084032211
0.008594574
0.0086936677
0.0087040297
0.0086339612
0.0084962782
0.0083076491
0.0080876132
0.0078578459
0.0076409598
0.0074518887
0.0072943422
0.000879438
0.00054594218
0.00029813927
0.00010212949
-5.6757095e-05
-0.00017075472
-0.0002346617
-0.00024601258
-0.00020319861
-0.00010524076
4.8286798e-05
0.00025736762
0.00052158488
0.00084004814
0.0012112521
0.0016328896
0.0021016269
0.0026128534
0.0031604712
0.0037367292
0.0043321095
0.0049353859
0.0055337842
0.0061133315
0.0066593419
0.0071571074
0.0075927438
0.0079541078
0.0082317396
0.0084197335
0.0085164141
0.0085247283
0.0084522937
0.0083110502
0.0081164442
0.0078863308
0.00764054
0.0073994391
0.0071693383
0.0069413179
0.0011211805
0.00070149142
0.00040701279
0.0001871559
1.5504551e-05
-0.00010389032
-0.0001690627
-0.00018039628
-0.0001383015
-4.3109792e-05
0.00010485587
0.00030527334
0.00055777313
0.00086178073
0.0012163187
0.0016197538
0.0020695217
0.0025618349
0.0030914152
0.0036512683
0.0042324828
0.0048242522
0.0054141225
0.0059881712
0.0065314681
0.0070288
0.0074655622
0.0078287353
0.0081079007
0.0082961843
0.0083910001
0.0083944858
0.0083135607
0.0081595226
0.0079471174
0.0076933431
0.0074173368
0.0071387924
0.0068574453
0.0065535758
0.001302067
0.00079886107
0.00045584452
0.00020780989
1.8221787e-05
-0.00011183854
-0.00018316202
-0.00019868147
-0.00016066964
-7.0689207e-05
7.0215289e-05
0.00026142669
0.00050263389
0.00079361032
0.0011339466
0.0015227301
0.0019582188
0.0024374989
0.0029561531
0.0035079147
0.004084356
0.0046751676
0.0052678401
0.0058482655
0.0064008916
0.0069095417
0.0073583766
0.007732943
0.0080212918
0.0082150546
0.0083103127
0.008308132
0.0082146722
0.0080407848
0.0078010077
0.0075122913
0.0071942043
0.0068672504
0.0065265853
0.0061437575
0.0014005952
0.00081787414
0.00042652539
0.00014830503
-6.2214691e-05
-0.00020638954
-0.00028737322
-0.00031034288
-0.00027922125
-0.00019667112
-6.4374159e-05
0.0001168327
0.00034675673
0.0006255685
0.00095348481
0.001330388
0.0017554303
0.0022266233
0.0027404416
0.003291334
0.0038713762
0.0044711984
0.0050775785
0.0056760066
0.0062500735
0.006782247
0.0072549574
0.007651746
0.0079585346
0.0081648815
0.008265031
0.0082586156
0.0081508837
0.0079523615
0.0076778105
0.0073448791
0.0069746142
0.0065896618
0.0061822193
0.0057166637
0.001398984
0.00074086548
0.00030237026
-6.656099e-06
-0.00023969947
-0.00040020171
-0.00049337003
-0.0005263668
-0.00050456438
-0.00043156634
-0.00030956432
-0.00013952588
7.8557813e-05
0.0003453427
0.00066175794
0.0010285637
0.0014459018
0.0019128041
0.002426688
0.0029830242
0.0035749901
0.0041920921
0.004822394
0.0054503734
0.0060583278
0.0066270511
0.0071367629
0.0075683997
0.0079050812
0.0081335948
0.0082457021
0.0082390917
0.0081178175
0.0078920889
0.0075772239
0.0071922278
0.006760603
0.0063083606
0.0058259234
0.005271363
0.0012816606
0.0005519306
6.7859667e-05
-0.00027185731
-0.00052819622
-0.00070647424
-0.00081375109
-0.00085895824
-0.00084874019
-0.00078749984
-0.0006778134
-0.00052066414
-0.00031574102
-6.1810753e-05
0.00024286824
0.00060005074
0.0010110044
0.0014759516
0.0019934817
0.0025600468
0.0031695689
0.0038126215
0.0044766291
0.0051455023
0.0058002803
0.0064197267
0.0069813573
0.0074628558
0.0078437536
0.0081072061
0.0082416451
0.0082420937
0.0081109223
0.0078578502
0.0074989437
0.0070551293
0.0065532908
0.006023982
0.0054566172
0.0048031061
0.0010343802
0.00023639504
-0.00029159103
-0.00066152411
-0.00094150519
-0.0011386089
-0.0012616179
-0.0013210902
-0.0013248084
-0.0012778419
-0.0011830397
-0.0010412989
-0.00085190814
-0.00061295239
-0.00032175784
2.4571111e-05
0.00042860343
0.00089196869
0.0014146938
0.0019945469
0.0026264484
0.0033018478
0.0040082405
0.0047290932
0.0054440973
0.0061297417
0.0067603714
0.007309711
0.0077527807
0.0080680285
0.0082394389
0.0082583421
0.0081246289
0.0078470897
0.0074425358
0.0069342626
0.006353426
0.0057363248
0.0050717656
0.0043049703
0.00064371935
-0.00021953019
-0.00078982484
-0.0011893801
-0.0014931798
-0.0017100285
-0.0018503646
-0.0019262807
-0.0019466011
-0.0019169707
-0.0018404261
-0.0017176952
-0.0015475775
-0.0013273719
-0.0010533438
-0.00072129253
-0.00032713606
0.00013243222
0.00065920138
0.0012526624
0.0019092386
0.0026214946
0.0033775923
0.0041608228
0.0049496715
0.0057182665
0.0064373838
0.0070760507
0.0076037089
0.0079927671
0.0082212876
0.0082754592
0.0081514647
0.007856346
0.0074073732
0.0068304928
0.0061619994
0.0054452298
0.0046684963
0.0037692206
9.6813539e-05
-0.0008289602
-0.0014400487
-0.0018686477
-0.0021964608
-0.0024340441
-0.0025934758
-0.0026883403
-0.0027284519
-0.0027199882
-0.0026661227
-0.0025673583
-0.0024219394
-0.0022262912
-0.0019754957
-0.0016638744
-0.0012855827
-0.00083531643
-0.00030910205
0.00029479142
0.00097491576
0.0017256524
0.0025364452
0.0033909618
0.0042668992
0.0051361516
0.005965667
0.0067190607
0.0073590027
0.0078502428
0.0081630058
0.0082763371
0.00818089
0.0078805926
0.0073924617
0.0067451215
0.0059808428
0.0051514391
0.0042446578
0.0031884989
-0.00061871377
-0.001604399
-0.0022548621
-0.0027120214
-0.0030641746
-0.0033236804
-0.0035042864
-0.003621073
-0.0036848469
-0.0037023184
-0.0036767925
-0.0036085346
-0.0034952063
-0.0033323012
-0.0031136184
-0.0028318291
-0.0024790729
-0.0020476596
-0.0015309295
-0.00092425412
-0.00022615285
0.00056047599
0.00142737
0.0023594186
0.0033342972
0.0043221216
0.005286004
0.0061835543
0.0069694167
0.0075987792
0.0080316032
0.0082370948
0.0081977656
0.0079122869
0.0073960673
0.0066800318
0.0058131901
0.0048574627
0.0037998833
0.0025569804
-0.0015147099
-0.0025577255
-0.003246229
-0.0037315968
-0.0041085978
-0.0043914711
-0.0045957001
-0.0047379135
-0.0048299683
-0.004879157
-0.0048889677
-0.0048594731
-0.0047877761
-0.0046684326
-0.0044939004
-0.004255056
-0.0039417648
-0.0035435566
-0.0030504993
-0.0024542846
-0.0017495157
-0.00093521412
-1.5946164e-05
0.00099562361
0.0020783899
0.0032016127
0.0043249753
0.0053997702
0.0063714276
0.0071834521
0.0077825827
0.0081246672
0.0081804375
0.007940087
0.0074151128
0.0066377266
0.005664239
0.0045685229
0.0033367523
0.0018716205
-0.0026023659
-0.0037001194
-0.0044254104
-0.004938767
-0.0053412909
-0.0056492053
-0.0058798348
-0.0060514595
-0.0061770983
-0.0062647419
-0.0063181788
-0.0063374026
-0.006319051
-0.0062568066
-0.0061417878
-0.0059629972
-0.0057078042
-0.0053625584
-0.0049134409
-0.0043475846
-0.0036544596