/*--------------------------------*- C++ -*----------------------------------*\
  =========                 |
  \\      /  F ield         | OpenFOAM: The Open Source CFD Toolbox
   \\    /   O peration     | Website:  https://openfoam.org
    \\  /    A nd           | Version:  7
     \\/     M anipulation  |
\*---------------------------------------------------------------------------*/
FoamFile
{
    version     2.0;
    format      ascii;
    class       surfaceScalarField;
    location    "3";
    object      phi;
}
// * * * * * * * * * * * * * * * * * * * * * * * * * * * * * * * * * * * * * //

dimensions      [0 3 -1 0 0 0 0];

internalField   nonuniform List<scalar> 
45600
(
1.8113022e-07
-1.8122962e-07
1.5712914e-10
1.9819178e-07
-1.7173525e-08
1.0594279e-10
-8.7010471e-08
2.8513704e-07
6.0682263e-11
-6.8033388e-07
5.9328252e-07
3.5363166e-11
-1.5418569e-06
8.6150023e-07
2.3833593e-11
-2.6161102e-06
1.0742355e-06
1.8150778e-11
-3.8475358e-06
1.2314075e-06
1.5184783e-11
-5.1860274e-06
1.3384766e-06
1.3746859e-11
-6.5881207e-06
1.4020787e-06
1.2976631e-11
-8.0164739e-06
1.42834e-06
1.2408868e-11
-9.4387227e-06
1.4222364e-06
1.2044378e-11
-1.0826154e-05
1.3874194e-06
1.1722093e-11
-1.2152452e-05
1.3262872e-06
1.1292307e-11
-1.3392662e-05
1.2402e-06
1.083477e-11
-1.4522449e-05
1.1297771e-06
1.0260241e-11
-1.5517699e-05
9.9524123e-07
9.4035787e-12
-1.6354501e-05
8.3679153e-07
8.3116805e-12
-1.7009473e-05
6.5496757e-07
7.3291898e-12
-1.7460488e-05
4.5100639e-07
6.0272256e-12
-1.7687653e-05
2.2715927e-07
4.4415324e-12
-1.76746e-05
-1.3058133e-08
2.7619728e-12
-1.740987e-05
-2.6473549e-07
9.280408e-13
-1.6888453e-05
-5.2141363e-07
-7.864704e-13
-1.6113195e-05
-7.7525536e-07
-2.5362518e-12
-1.5095977e-05
-1.0172185e-06
-4.3686007e-12
-1.3858546e-05
-1.2374284e-06
-6.0543947e-12
-1.2432853e-05
-1.4256901e-06
-7.5238126e-12
-1.0860746e-05
-1.5721e-06
-8.6648086e-12
-9.1929995e-06
-1.6677353e-06
-9.3361131e-12
-7.4876542e-06
-1.7053355e-06
-9.6261203e-12
-5.8077207e-06
-1.6799301e-06
-9.5345537e-12
-4.2183683e-06
-1.5893473e-06
-8.9056546e-12
-2.7837675e-06
-1.4345933e-06
-7.699652e-12
-1.5636685e-06
-1.2200934e-06
-6.0034112e-12
-6.0964683e-07
-9.5402094e-07
-3.7883796e-12
4.0213867e-08
-6.4986329e-07
-1.1776603e-12
3.7180746e-07
-3.3159564e-07
2.6703728e-13
4.0135806e-07
-2.9556371e-08
3.4538839e-12
2.0645437e-07
1.9489273e-07
6.5396836e-12
2.0644898e-07
3.1144033e-12
2.1745054e-08
-2.0308848e-07
1.0678169e-10
-4.2878347e-07
4.3325108e-07
1.0767666e-10
-1.5468497e-06
1.403155e-06
4.3949572e-11
-3.3442192e-06
2.3906194e-06
2.1721457e-11
-5.7513772e-06
3.2686363e-06
8.2419373e-12
-8.6630438e-06
3.9858925e-06
1.8767919e-14
-1.1962174e-05
4.5305376e-06
-5.0139078e-12
-1.5533968e-05
4.9102745e-06
-8.1273221e-12
-1.9272075e-05
5.1401905e-06
-9.9189608e-12
-2.308028e-05
5.2365539e-06
-1.0871518e-11
-2.6871877e-05
5.2138418e-06
-1.1194813e-11
-3.0567943e-05
5.0834899e-06
-1.0957931e-11
-3.4095315e-05
4.8536644e-06
-1.0306096e-11
-3.7384765e-05
4.5296561e-06
-9.3768492e-12
-4.0369661e-05
4.1146766e-06
-8.1884449e-12
-4.2985301e-05
3.6108879e-06
-6.7019771e-12
-4.5169067e-05
3.0205564e-06
-5.1437704e-12
-4.6861329e-05
2.3472321e-06
-3.1348273e-12
-4.8007197e-05
1.5968724e-06
-1.0381615e-12
-4.8558887e-05
7.7884381e-07
1.0072699e-12
-4.8478767e-05
-9.3177438e-08
3.3249098e-12
-4.7742307e-05
-1.0012036e-06
5.7367742e-12
-4.6341819e-05
-1.921911e-06
8.1970369e-12
-4.4289285e-05
-2.8277946e-06
1.0613669e-11
-4.1618963e-05
-3.6875476e-06
1.2795075e-11
-3.8389018e-05
-4.4673843e-06
1.4658711e-11
-3.4681973e-05
-5.1327481e-06
1.6207172e-11
-3.0603725e-05
-5.650365e-06
1.7449585e-11
-2.6280978e-05
-5.9905016e-06
1.8270702e-11
-2.1857069e-05
-6.1292637e-06
1.8504447e-11
-1.7486265e-05
-6.0507517e-06
1.8109644e-11
-1.3326719e-05
-5.7489139e-06
1.7161933e-11
-9.5322831e-06
-5.2290508e-06
1.575329e-11
-6.2432852e-06
-4.5091099e-06
1.3919125e-11
-3.5759976e-06
-3.6213215e-06
1.1740493e-11
-1.6101928e-06
-2.6156783e-06
9.2768626e-12
-3.7566185e-07
-1.5661378e-06
6.6350115e-12
1.7564157e-07
-5.8087089e-07
4.7111393e-12
1.9851339e-07
1.7201457e-07
4.2092261e-12
4.0496106e-07
6.3289999e-13
-2.8376344e-07
8.0616491e-08
5.531598e-11
-1.4199727e-06
1.569405e-06
4.8792858e-11
-3.5165802e-06
3.4997344e-06
3.082532e-11
-6.5531433e-06
5.4271619e-06
1.8897328e-11
-1.0432288e-05
7.147763e-06
1.1731017e-11
-1.5014486e-05
8.5680793e-06
7.2738805e-12
-2.0142963e-05
9.6590083e-06
4.5567639e-12
-2.5659469e-05
1.0426775e-05
2.8858827e-12
-3.1412781e-05
1.0893502e-05
1.9361158e-12
-3.7262201e-05
1.1085973e-05
1.4511123e-12
-4.3077944e-05
1.1029583e-05
1.2205558e-12
-4.8739862e-05
1.0745406e-05
1.1832298e-12
-5.4135501e-05
1.0249301e-05
1.2868861e-12
-5.9158196e-05
9.5523483e-06
1.4537152e-12
-6.3705684e-05
8.6621597e-06
1.613552e-12
-6.7679523e-05
7.5847296e-06
1.9296269e-12
-7.0985548e-05
6.3265771e-06
2.1101838e-12
-7.3535318e-05
4.8969968e-06
2.3611401e-12
-7.5248643e-05
3.3101941e-06
2.6784612e-12
-7.605698e-05
1.5871764e-06
2.8589817e-12
-7.5907493e-05
-2.4266886e-07
2.9948024e-12
-7.4767527e-05
-2.1411707e-06
3.2111845e-12
-7.2629176e-05
-4.0602689e-06
3.4410816e-12
-6.9513413e-05
-5.9435717e-06
3.5099506e-12
-6.5473407e-05
-7.7275595e-06
3.5857848e-12
-6.0596627e-05
-9.3441656e-06
3.6765562e-12
-5.5005251e-05
-1.072413e-05
3.5877781e-12
-4.8854578e-05
-1.1801049e-05
3.4929524e-12
-4.232923e-05
-1.2515856e-05
3.5138623e-12
-3.5637084e-05
-1.2821415e-05
3.5408335e-12
-2.9000975e-05
-1.2686867e-05
3.4812936e-12
-2.264842e-05
-1.2101475e-05
3.4019852e-12
-1.6799633e-05
-1.1077843e-05
3.38704e-12
-1.1654067e-05
-9.654683e-06
3.4354476e-12
-7.3755879e-06
-7.8998074e-06
3.4992569e-12
-4.0763312e-06
-5.914942e-06
3.5906955e-12
-1.7982569e-06
-3.8442198e-06
3.8649589e-12
-4.9221988e-07
-1.8869146e-06
4.0977001e-12
3.4864265e-09
-3.2369765e-07
3.890259e-12
4.0844258e-07
3.5438455e-12
-6.1472317e-07
6.9531108e-07
2.5828028e-11
-2.4984417e-06
3.4530814e-06
3.1353857e-11
-5.6291903e-06
6.6304575e-06
1.9115282e-11
-9.919001e-06
9.7169561e-06
1.2571881e-11
-1.5226299e-05
1.2455048e-05
9.4075912e-12
-2.1376658e-05
1.4718426e-05
6.8225066e-12
-2.8180855e-05
1.6463194e-05
5.0143288e-12
-3.5448029e-05
1.7693939e-05
3.9982135e-12
-4.2993716e-05
1.843918e-05
3.3999951e-12
-5.0643683e-05
1.8735934e-05
3.0693306e-12
-5.8234837e-05
1.8620728e-05
2.9499094e-12
-6.5614342e-05
1.8124904e-05
2.9787691e-12
-7.2637967e-05
1.727292e-05
3.0210497e-12
-7.9168364e-05
1.6082743e-05
3.0820252e-12
-8.5073872e-05
1.4567661e-05
3.0812707e-12
-9.0228173e-05
1.2739026e-05
3.1497811e-12
-9.4511076e-05
1.060948e-05
3.2162828e-12
-9.7810477e-05
8.1963968e-06
3.2364913e-12
-0.00010002549
5.525197e-06
3.1762478e-12
-0.00010107056
2.6322563e-06
3.1696263e-12
-0.00010088043
-4.3280766e-07
3.0442953e-12
-9.941542e-05
-3.6061812e-06
2.8358909e-12
-9.6666959e-05
-6.8087272e-06
2.7274422e-12
-9.2662476e-05
-9.9480555e-06
2.543127e-12
-8.7469361e-05
-1.2920681e-05
2.25368e-12
-8.1197451e-05
-1.5616081e-05
1.9072408e-12
-7.3999511e-05
-1.7922072e-05
1.5794365e-12
-6.6069288e-05
-1.973127e-05
1.3543019e-12
-5.7636874e-05
-2.0948274e-05
1.2029603e-12
-4.8961216e-05
-2.149708e-05
1.0860627e-12
-4.0319871e-05
-2.1328215e-05
1.1118058e-12
-3.1996249e-05
-2.0425095e-05
1.3376599e-12
-2.4264739e-05
-1.8809354e-05
1.6349269e-12
-1.7374214e-05
-1.6545215e-05
1.9220784e-12
-1.1530478e-05
-1.3743549e-05
2.2915609e-12
-6.878288e-06
-1.0567135e-05
2.9152483e-12
-3.4834561e-06
-7.2390567e-06
3.9490662e-12
-1.3159134e-06
-4.0544652e-06
4.2416534e-12
-2.3833445e-07
-1.4012823e-06
2.4825304e-12
1.7010054e-07
6.0061361e-12
-9.3366365e-07
1.6289683e-06
9.4089718e-12
-3.561669e-06
6.0810573e-06
2.2499624e-11
-7.7273321e-06
1.0796101e-05
1.087149e-11
-1.3256055e-05
1.524567e-05
6.4953225e-12
-1.9949425e-05
1.9148408e-05
5.3355162e-12
-2.7592769e-05
2.2361763e-05
3.669012e-12
-3.5965105e-05
2.4835526e-05
2.2720714e-12
-4.4847616e-05
2.657645e-05
1.4490421e-12
-5.4029374e-05
2.7620933e-05
9.6782536e-13
-6.3310204e-05
2.8016759e-05
7.2368933e-13
-7.2501301e-05
2.781182e-05
7.379604e-13
-8.1424352e-05
2.7047952e-05
8.6775557e-13
-8.9909982e-05
2.5758546e-05
9.7401816e-13
-9.7796188e-05
2.3968944e-05
1.1375883e-12
-0.0001049273
2.1698779e-05
1.4109313e-12
-0.00011115392
1.8965636e-05
1.6568222e-12
-0.00011633391
1.5789473e-05
1.8922329e-12
-0.00012033483
1.2197319e-05
2.300052e-12
-0.00012303749
8.2278509e-06
2.5532275e-12
-0.00012434069
3.9354563e-06
2.7743867e-12
-0.00012416684
-6.0665928e-07
3.0333818e-12
-0.00012246795
-5.3050815e-06
3.3102769e-12
-0.00011923203
-1.0044649e-05
3.5513277e-12
-0.00011448876
-1.4691328e-05
3.6542897e-12
-0.00010831414
-1.9095298e-05
3.7464145e-12
-0.0001008336
-2.3096632e-05
3.7679531e-12
-9.2222766e-05
-2.6532914e-05
3.6745353e-12
-8.2705582e-05
-2.9248459e-05
3.6181884e-12
-7.2549218e-05
-3.1104639e-05
3.626189e-12
-6.2055659e-05
-3.1990643e-05
3.6087144e-12
-5.1549961e-05
-3.183392e-05
3.6359428e-12
-4.1365506e-05
-3.0609557e-05
3.7363212e-12
-3.1826788e-05
-2.8348076e-05
3.7910602e-12
-2.3230537e-05
-2.5141471e-05
3.7682467e-12
-1.582619e-05
-2.1147901e-05
3.7764574e-12
-9.79701e-06
-1.6596322e-05
4.0703375e-12
-5.2433597e-06
-1.1792715e-05
4.9893318e-12
-2.1702524e-06
-7.1275805e-06
4.5746996e-12
-4.8349987e-07
-3.0880384e-06
5.5249188e-13
-3.1340895e-07
7.8302736e-12
-1.2281018e-06
2.8570691e-06
-3.9259949e-13
-4.5700926e-06
9.4230266e-06
1.8647311e-11
-9.7412047e-06
1.5967202e-05
6.1417308e-12
-1.647512e-05
2.1979581e-05
2.8313304e-12
-2.4509393e-05
2.7182671e-05
3.0387886e-12
-3.3584214e-05
3.143658e-05
2.1062817e-12
-4.3445307e-05
3.4696616e-05
1.1236501e-12
-5.3847411e-05
3.697855e-05
5.5635887e-13
-6.4556852e-05
3.8330371e-05
3.1723226e-13
-7.5352574e-05
3.8812477e-05
2.3944383e-13
-8.6025738e-05
3.848498e-05
3.1803701e-13
-9.6378339e-05
3.7400548e-05
4.342356e-13
-0.00010622141
3.5601617e-05
6.2153752e-13
-0.00011537339
3.3120921e-05
8.0054392e-13
-0.00012365909
2.998448e-05
1.1178974e-12
-0.00013090971
2.6216252e-05
1.5029321e-12
-0.00013696403
2.1843798e-05
1.7413736e-12
-0.00014167106
1.6904352e-05
2.1219248e-12
-0.00014489397
1.1450758e-05
2.5165198e-12
-0.00014651533
5.5568128e-06
2.8663653e-12
-0.0001464433
-6.7868833e-07
3.1087626e-12
-0.00014461823
-7.1301609e-06
3.4214976e-12
-0.0001410202
-1.3642676e-05
3.7392065e-12
-0.00013567553
-2.0036009e-05
3.923304e-12
-0.00012866236
-2.6108472e-05
4.0285004e-12
-0.00012011477
-3.1644222e-05
4.0477299e-12
-0.00011022438
-3.6423308e-05
3.9918914e-12
-9.9238909e-05
-4.0233935e-05
4.0017256e-12
-8.7457175e-05
-4.2886377e-05
4.0398269e-12
-7.5220185e-05
-4.4227639e-05
4.0318769e-12
-6.2898275e-05
-4.4155835e-05
4.0491939e-12
-5.0874644e-05
-4.2633192e-05
4.1234568e-12
-3.9525973e-05
-3.9696754e-05
4.1432767e-12
-2.9201233e-05
-3.5466218e-05
4.0834676e-12
-2.0200183e-05
-3.0148958e-05
4.0180553e-12
-1.2753367e-05
-2.4043144e-05
4.273108e-12
-7.0058496e-06
-1.7540241e-05
5.470417e-12
-3.0073725e-06
-1.1126065e-05
4.7211072e-12
-7.1289621e-07
-5.3825164e-06
-1.3645358e-12
-1.026317e-06
9.6383844e-12
-1.4979964e-06
4.3550673e-06
-6.6795264e-12
-5.5141087e-06
1.3439122e-05
1.7543347e-11
-1.1647937e-05
2.2101017e-05
3.3107168e-12
-1.9543244e-05
2.9874886e-05
3.5562377e-13
-2.8871173e-05
3.6510592e-05
1.5830019e-12
-3.9323936e-05
4.1889338e-05
1.128018e-12
-5.0612446e-05
4.5985122e-05
4.1794367e-13
-6.2465386e-05
4.8831488e-05
1.1934117e-13
-7.4628482e-05
5.0493464e-05
6.9779655e-14
-8.6863248e-05
5.1047238e-05
1.1125854e-13
-9.8945063e-05
5.0566793e-05
2.3470311e-13
-0.00011066083
4.9116313e-05
3.5160981e-13
-0.00012180656
4.674734e-05
6.1466879e-13
-0.00013218533
4.3499687e-05
8.5343906e-13
-0.00014160605
3.94052e-05
1.1326342e-12
-0.00014988331
3.4493519e-05
1.5546261e-12
-0.00015683861
2.8799091e-05
1.8566812e-12
-0.00016230298
2.2368722e-05
2.164736e-12
-0.00016612123
1.5268999e-05
2.5304567e-12
-0.00016815754
7.5931275e-06
2.9378391e-12
-0.000168303
-5.3323058e-07
3.1695702e-12
-0.00016648018
-8.9529836e-06
3.4901576e-12
-0.00016265586
-1.7467004e-05
3.7501862e-12
-0.00015684597
-2.5845896e-05
3.9134852e-12
-0.00014912339
-3.3831055e-05
4.1005687e-12
-0.00013962347
-4.1144144e-05
4.1470817e-12
-0.00012854708
-4.7499708e-05
4.0441425e-12
-0.00011616026
-5.2620763e-05
3.9789801e-12
-0.00010278988
-5.6256758e-05
3.9954358e-12
-8.8814712e-05
-5.820281e-05
4.0247138e-12
-7.4651741e-05
-5.8318809e-05
4.0578591e-12
-6.0738085e-05
-5.6546855e-05
4.0774871e-12
-4.7509288e-05
-5.292556e-05
4.0555456e-12
-3.5375424e-05
-4.7600088e-05
4.0324237e-12
-2.4696927e-05
-4.0827459e-05
3.9998844e-12
-1.5762478e-05
-3.2977597e-05
4.290507e-12
-8.771641e-06
-2.4531085e-05
5.8271056e-12
-3.8252256e-06
-1.6072488e-05
4.7826884e-12
-9.2681568e-07
-8.280926e-06
-3.2088193e-12
-1.9531462e-06
1.1383995e-11
-1.7470495e-06
6.1021232e-06
-1.1002804e-11
-6.3976536e-06
1.8089707e-05
1.7678692e-11
-1.3448423e-05
2.9151775e-05
1.4869112e-12
-2.2458287e-05
3.8884751e-05
-1.4972556e-12
-3.303288e-05
4.708518e-05
4.5045856e-13
-4.4815763e-05
5.3672219e-05
2.7797208e-13
-5.7482477e-05
5.8651833e-05
-2.7510891e-13
-7.0736041e-05
6.2085047e-05
-4.0984709e-13
-8.4303147e-05
6.4060568e-05
-3.4099845e-13
-9.7930489e-05
6.4674581e-05
-2.0774677e-13
-0.00011138104
6.401734e-05
-7.0392183e-14
-0.00012443036
6.2165625e-05
7.2076128e-14
-0.00013686321
5.9180197e-05
4.2314321e-13
-0.00014847086
5.5107338e-05
7.7664315e-13
-0.00015904924
4.9983577e-05
1.0630446e-12
-0.00016839844
4.3842713e-05
1.4273631e-12
-0.00017632364
3.6724291e-05
1.7921665e-12
-0.00018263769
2.8682778e-05
2.2012988e-12
-0.00018716534
1.9796649e-05
2.6106626e-12
-0.0001897485
1.0176279e-05
2.9840194e-12
-0.00019025881
-2.2928427e-08
3.1907642e-12
-0.00018859137
-1.0620424e-05
3.6664791e-12
-0.00018469469
-2.1363685e-05
3.9769883e-12
-0.00017856541
-3.1975174e-05
4.125206e-12
-0.00017026254
-4.2133934e-05
4.2904498e-12
-0.00015991445
-5.1492233e-05
4.3567882e-12
-0.00014772406
-5.9690108e-05
4.3120371e-12
-0.00013397034
-6.6374488e-05
4.2803194e-12
-0.00011900536
-7.1221742e-05
4.2753957e-12
-0.00010324589
-7.3962282e-05
4.2570277e-12
-8.7159266e-05
-7.440544e-05
4.245382e-12
-7.1243644e-05
-7.2462484e-05
4.2290611e-12
-5.6003615e-05
-6.8165595e-05
4.2001867e-12
-4.1922798e-05
-6.1680908e-05
4.20188e-12
-2.9435806e-05
-5.3314454e-05
4.1451872e-12
-1.8902447e-05
-4.3510959e-05
4.4194434e-12
-1.0587282e-05
-3.2846259e-05
6.2284555e-12
-4.6477176e-06
-2.2012063e-05
4.8242969e-12
-1.1336255e-06
-1.1795015e-05
-4.9941105e-12
-3.0867864e-06
1.3137612e-11
-1.979355e-06
8.0814865e-06
-1.4330012e-11
-7.2289614e-06
2.3339295e-05
1.8372719e-11
-1.5153103e-05
3.7075907e-05
2.9218749e-13
-2.523195e-05
4.8963603e-05
-2.8790918e-12
-3.7008391e-05
5.8861617e-05
-4.3877446e-13
-5.0078361e-05
6.6742183e-05
-4.3782779e-13
-6.4082571e-05
7.2656043e-05
-8.1277101e-13
-7.869925e-05
7.6701729e-05
-7.9354752e-13
-9.3637629e-05
7.8998945e-05
-7.0929471e-13
-0.0001086319
7.9668847e-05
-5.982723e-13
-0.00012343553
7.8820965e-05
-3.6374763e-13
-0.00013781599
7.6546095e-05
-7.4752645e-14
-0.00015155017
7.2914371e-05
2.9160656e-13
-0.00016442053
6.7977694e-05
5.8030079e-13
-0.00017621255
6.1775596e-05
8.8473942e-13
-0.00018671351
5.4343667e-05
1.3403401e-12
-0.00019571288
4.5723663e-05
1.8080877e-12
-0.00020300458
3.5974477e-05
2.2155791e-12
-0.00020839108
2.5183149e-05
2.5999859e-12
-0.00021169008
1.3475274e-05
3.120807e-12
-0.00021273725
1.024234e-06
3.6635171e-12
-0.00021141053
-1.1947142e-05
3.9685495e-12
-0.00020762062
-2.5153602e-05
4.152468e-12
-0.0002013373
-3.8258497e-05
4.3021865e-12
-0.00019259589
-5.0875352e-05
4.4880444e-12
-0.00018150824
-6.2579887e-05
4.6138127e-12
-0.00016827091
-7.2927438e-05
4.6690667e-12
-0.00015316957
-8.1475833e-05
4.6863588e-12
-0.00013657825
-8.7813061e-05
4.6124227e-12
-0.00011895232
-9.1588218e-05
4.5018007e-12
-0.00010081428
-9.254349e-05
4.4685103e-12
-8.2732438e-05
-9.0544331e-05
4.4786101e-12
-6.5293321e-05
-8.5604715e-05
4.4718947e-12
-4.9069684e-05
-7.7904551e-05
4.4543671e-12
-3.4587022e-05
-6.7797121e-05
4.3050529e-12
-2.2292084e-05
-5.5805903e-05
4.5696471e-12
-1.2527057e-05
-4.2611298e-05
6.656896e-12
-5.5130281e-06
-2.9026102e-05
4.9036664e-12
-1.3454691e-06
-1.5962568e-05
-6.7883889e-12
-4.432271e-06
1.5015218e-11
-2.1983734e-06
1.0279869e-05
-1.7051858e-11
-8.0164561e-06
2.915736e-05
1.9440332e-11
-1.6774552e-05
4.5833997e-05
-5.2483254e-13
-2.7879963e-05
6.006901e-05
-3.9817849e-12
-4.0816409e-05
7.1798061e-05
-1.0758952e-12
-5.5134305e-05
8.1060078e-05
-8.5258865e-13
-7.0441005e-05
8.7962742e-05
-1.2041042e-12
-8.6391405e-05
9.2652126e-05
-1.18279e-12
-0.0001026791
9.5286642e-05
-1.0022361e-12
-0.00011902811
9.6017861e-05
-7.9507226e-13
-0.00013518519
9.4978043e-05
-5.1718812e-13
-0.00015091281
9.227371e-05
-2.3614757e-13
-0.00016598302
8.7984585e-05
1.2443402e-13
-0.00018017243
8.2167096e-05
4.1305907e-13
-0.0001932584
7.4861565e-05
7.4676372e-13
-0.00020501692
6.6102191e-05
1.2433866e-12
-0.00021522221
5.5928947e-05
1.7569124e-12
-0.00022364828
4.4400551e-05
2.1942004e-12
-0.00023007279
3.1607651e-05
2.6352266e-12
-0.00023428294
1.7685427e-05
3.2028617e-12
-0.00023608323
2.8245147e-06
3.7500289e-12
-0.0002353091
-1.2721274e-05
4.113438e-12
-0.00023183483
-2.8627871e-05
4.318777e-12
-0.00022559061
-4.4502723e-05
4.5094551e-12
-0.00021657646
-5.9889502e-05
4.7494194e-12
-0.0002048763
-7.4280051e-05
4.9294057e-12
-0.00019067003
-8.7133717e-05
5.0425989e-12
-0.00017424188
-9.7903982e-05
5.0588692e-12
-0.00015598316
-0.00010607179
4.9222373e-12
-0.00013638747
-0.00011118392
4.7587179e-12
-0.00011603726
-0.0001128937
4.7245695e-12
-9.5581101e-05
-0.00011100049
4.754725e-12
-7.5702389e-05
-0.00010548343
4.7399554e-12
-5.7081569e-05
-9.6525379e-05
4.6588952e-12
-4.0355303e-05
-8.4523395e-05
4.4125918e-12
-2.6076873e-05
-7.0084339e-05
4.7286156e-12
-1.468243e-05
-5.4005751e-05
7.1652171e-12
-6.4674394e-06
-3.72411e-05
5.0996804e-12
-1.5762617e-06
-2.0853739e-05
-8.6896332e-12
-6.0085495e-06
1.7132071e-11
-2.4066771e-06
1.2686559e-05
-1.9355502e-11
-8.7670694e-06
3.551773e-05
2.0651157e-11
-1.832387e-05
5.5390793e-05
-1.1020849e-12
-3.0416718e-05
7.2161862e-05
-4.7200062e-12
-4.4473938e-05
8.5855278e-05
-1.473514e-12
-6.0003071e-05
9.658921e-05
-1.1695472e-12
-7.658019e-05
0.00010453986
-1.5074599e-12
-9.3838814e-05
0.00010991075
-1.4369993e-12
-0.00011145906
0.00011290689
-1.2000203e-12
-0.00012915729
0.00011371608
-9.2806452e-13
-0.00014667636
0.00011249711
-6.4798149e-13
-0.00016377681
0.00010937416
-3.9821388e-13
-0.00018022903
0.00010443681
-2.130504e-14
-0.00019580667
9.7744727e-05
2.9951473e-13
-0.00021028147
8.9336367e-05
6.6873934e-13
-0.00022341988
7.9240605e-05
1.1807684e-12
-0.00023498154
6.7490603e-05
1.7323871e-12
-0.00024471995
5.4138961e-05
2.1881183e-12
-0.00025238566
3.9273359e-05
2.7107022e-12
-0.00025773203
2.303179e-05
3.2777299e-12
-0.00026052391
5.6163893e-06
3.7867978e-12
-0.00026054957
-1.2695617e-05
4.2090185e-12
-0.00025763432
-3.1543124e-05
4.4771101e-12
-0.00025165759
-5.0479454e-05
4.7475833e-12
-0.0002425711
-6.8975998e-05
5.0618562e-12
-0.00023041734
-8.6433811e-05
5.2953506e-12
-0.00021534677
-0.0001022043
5.4242612e-12
-0.00019763136
-0.00011561939
5.4132548e-12
-0.00017767225
-0.00012603091
5.2495286e-12
-0.00015599869
-0.00013285748
5.08547e-12
-0.00013325649
-0.00013563591
5.0386645e-12
-0.0001101844
-0.00013407259
5.0242712e-12
-8.7578945e-05
-0.0001280889
4.9601424e-12
-6.6249639e-05
-0.00011785469
4.8360393e-12
-4.6968632e-05
-0.00010380441
4.5369385e-12
-3.0420218e-05
-8.6632758e-05
4.9341904e-12
-1.715611e-05
-6.7269867e-05
7.8316086e-12
-7.5622691e-06
-4.683495e-05
5.4322637e-12
-1.8409023e-06
-2.6575099e-05
-1.0817047e-11
-7.8494712e-06
1.9548881e-11
-2.6059457e-06
1.5292523e-05
-2.1359525e-11
-9.4856186e-06
4.2397384e-05
2.2021451e-11
-1.9809015e-05
6.5714184e-05
-1.4755365e-12
-3.2852528e-05
8.5205382e-05
-5.313248e-12
-4.7992626e-05
0.00010099537
-1.7550047e-12
-6.4696781e-05
0.00011329336
-1.4172784e-12
-8.2512154e-05
0.00012235523
-1.7242996e-12
-0.00010105317
0.00012845176
-1.5913904e-12
-0.00011998888
0.0001318426
-1.3537117e-12
-0.00013903065
0.00013275785
-1.0555469e-12
-0.00015792047
0.00013138693
-7.9277942e-13
-0.00017642017
0.00012787386
-5.6959072e-13
-0.00019430177
0.0001223184
-1.7537561e-13
-0.00021133914
0.0001147821
1.7999358e-13
-0.00022730127
0.0001052985
5.8403213e-13
-0.00024194728
9.388661e-05
1.1325216e-12
-0.00025502351
8.056683e-05
1.7335456e-12
-0.00026626303
6.5378478e-05
2.2075433e-12
-0.00027538782
4.8398157e-05
2.7371069e-12
-0.00028211409
2.9758054e-05
3.322108e-12
-0.0002861609
9.6631983e-06
3.8908112e-12
-0.00028726275
-1.1593775e-05
4.3533255e-12
-0.00028518509
-3.3620793e-05
4.6844984e-12
-0.00027974411
-5.592043e-05
5.0478646e-12
-0.00027082884
-7.7891275e-05
5.4484614e-12
-0.00025842473
-9.8837919e-05
5.7411397e-12
-0.00024263701
-0.00011799203
5.8706885e-12
-0.00022371094
-0.00013454547
5.8269762e-12
-0.0002020461
-0.00014769576
5.6542809e-12
-0.00017820106
-0.00015670252
5.4972966e-12
-0.00015288535
-0.00016095163
5.406097e-12
-0.00012693627
-0.00016002167
5.3053252e-12
-0.00010128004
-0.00015374513
5.2035382e-12
-7.6879039e-05
-0.0001422557
5.0986526e-12
-5.4669652e-05
-0.0001260138
4.7554921e-12
-3.5497613e-05
-0.0001058048
5.1766221e-12
-2.0058629e-05
-8.2708859e-05
8.6371103e-12
-8.8523831e-06
-5.8041204e-05
5.8060591e-12
-2.1550093e-06
-3.3272465e-05
-1.3354046e-11
-1.0004502e-05
2.2255931e-11
-2.7970438e-06
1.8089585e-05
-2.318558e-11
-1.0174735e-05
4.9775057e-05
2.3478069e-11
-2.1234282e-05
7.6773729e-05
-1.7015155e-12
-3.5192492e-05
9.9163598e-05
-5.8506289e-12
-5.1377069e-05
0.00011717995
-2.0258731e-12
-6.9218056e-05
0.00013113435
-1.6814465e-12
-8.823609e-05
0.00014137327
-1.9810082e-12
-0.00010802887
0.00014824454
-1.7990184e-12
-0.00012825692
0.00015207065
-1.5621355e-12
-0.00014862947
0.0001531304
-1.2793073e-12
-0.00016889077
0.00015164822
-1.0294159e-12
-0.00018880733
0.00014779042
-7.9467773e-13
-0.00020815639
0.00014166746
-3.6380563e-13
-0.00022671563
0.00013334134
3.7480851e-14
-0.00024425465
0.00012283752
4.6781072e-13
-0.00026052818
0.00011016013
1.0570132e-12
-0.0002752715
9.5310151e-05
1.694215e-12
-0.00028819843
7.8305402e-05
2.1695477e-12
-0.00029900218
5.920191e-05
2.6958549e-12
-0.00030735978
3.8115642e-05
3.2958323e-12
-0.00031294031
1.5243731e-05
3.9696419e-12
-0.00031541788
-9.1162058e-06
4.5159679e-12
-0.00031448851
-3.4550173e-05
4.9551062e-12
-0.00030989269
-6.0516253e-05
5.4279486e-12
-0.00030144142
-8.6342546e-05
5.8961665e-12
-0.00028904551
-0.00011123384
6.2350065e-12
-0.00027274595
-0.0001342916
6.3942907e-12
-0.00025274249
-0.00015454893
6.3589323e-12
-0.00022941662
-0.00017102164
6.1913915e-12
-0.00020334439
-0.00018277476
6.0248459e-12
-0.00017529448
-0.00018900154
5.8639533e-12
-0.00014620756
-0.0001891086
5.6626703e-12
-0.00011715489
-0.00018279781
5.5370654e-12
-8.9277076e-05
-0.00017013352
5.4696995e-12
-6.3708028e-05
-0.00015158285
5.0223248e-12
-4.1492229e-05
-0.00012802061
5.3760529e-12
-2.3506216e-05
-0.00010069488
9.4570102e-12
-1.0395518e-05
-7.1151909e-05
6.1183845e-12
-2.5348935e-06
-4.1133078e-05
-1.6502199e-11
-1.253942e-05
2.5339616e-11
-2.9801601e-06
2.1069765e-05
-2.4818589e-11
-1.0835094e-05
5.7629973e-05
2.4989493e-11
-2.26005e-05
8.8539133e-05
-1.9003528e-12
-3.7436524e-05
0.00011399963
-6.3861353e-12
-5.4624603e-05
0.00013436803
-2.2899562e-12
-7.3559568e-05
0.00015006931
-1.8806137e-12
-9.3737677e-05
0.00016155137
-2.2131669e-12
-0.00011474215
0.00016924901
-2.051528e-12
-0.00013622751
0.00017355602
-1.8019567e-12
-0.00015790369
0.00017480657
-1.5469149e-12
-0.00017952041
0.00017326494
-1.3067359e-12
-0.00020085249
0.0001691225
-1.0232081e-12
-0.00022168621
0.00016250117
-5.4004958e-13
-0.0002418071
0.00015346223
-1.0376383e-13
-0.00026098939
0.00014201981
3.5119294e-13
-0.00027898728
0.00012815802
9.0997769e-13
-0.00029552844
0.00011185131
1.5605259e-12
-0.00031031012
9.3087076e-05
2.0634548e-12
-0.00032299836
7.1890149e-05
2.5993446e-12
-0.00033323102
4.8348296e-05
3.2369394e-12
-0.00034062516
2.2637878e-05
4.0014186e-12
-0.00034478998
-4.9513954e-06
4.6353689e-12
-0.00034534399
-3.3996163e-05
5.2513592e-12
-0.00034194067
-6.3919572e-05
5.8342781e-12
-0.0003342977
-9.3985526e-05
6.342228e-12
-0.00032223219
-0.00012329935
6.7301255e-12
-0.00030569892
-0.00015082488
6.9648547e-12
-0.00028482855
-0.0001754193
6.9947531e-12
-0.00025996163
-0.00019588856
6.8656018e-12
-0.00023167257
-0.00021106383
6.6912363e-12
-0.00020077734
-0.00021989678
6.4587378e-12
-0.00016831872
-0.00022156722
6.1478703e-12
-0.00013552476
-0.00021559178
5.9625819e-12
-0.00010373977
-0.00020191851
5.8741071e-12
-7.4332415e-05
-0.00018099021
5.2652012e-12
-4.8590839e-05
-0.00015376219
5.5346777e-12
-2.7619237e-05
-0.00012166649
1.0277233e-11
-1.2251993e-05
-8.6519158e-05
6.4077141e-12
-2.9976509e-06
-5.0387404e-05
-2.0359304e-11
-1.55371e-05
2.9067283e-11
-3.1549919e-06
2.4224781e-05
-2.6334062e-11
-1.1465901e-05
6.5940862e-05
2.6418924e-11
-2.3905771e-05
0.000100979
-2.1133056e-12
-3.9580265e-05
0.00012967413
-6.8772902e-12
-5.7726298e-05
0.00015251406
-2.5400504e-12
-7.7705058e-05
0.00017004808
-2.0849453e-12
-9.8990076e-05
0.00018283639
-2.4369098e-12
-0.00012115201
0.00019141094
-2.3296585e-12
-0.00014384167
0.00019624568
-2.0954708e-12
-0.00016677244
0.00019773734
-1.8314811e-12
-0.00018970273
0.00019619523
-1.5769208e-12
-0.0002124193
0.00019183908
-1.2326129e-12
-0.00023472157
0.00018480344
-7.1022089e-13
-0.00025640738
0.00017514805
-2.500446e-13
-0.00027726033
0.00016287276
2.0676331e-13
-0.00029703898
0.00014793667
7.5859439e-13
-0.00031546822
0.00013028055
1.4039011e-12
-0.00033223329
0.00010985214
1.952756e-12
-0.00034697694
8.6633798e-05
2.5328447e-12
-0.00035930059
6.0671947e-05
3.2163849e-12
-0.00036877018
3.2107463e-05
4.0359515e-12
-0.00037492859
1.2070141e-06
4.7255629e-12
-0.00037731176
-3.1612993e-05
5.528481e-12
-0.00037547725
-6.5754091e-05
6.2030867e-12
-0.00036903535
-0.00010042743
6.7590307e-12
-0.00035769029
-0.00013464442
7.228036e-12
-0.00034128631
-0.00016722886
7.5763132e-12
-0.00031985678
-0.00019684884
7.7110444e-12
-0.00029367135
-0.00022207399
7.6427439e-12
-0.00026327465
-0.00024146053
7.4676539e-12
-0.00022950811
-0.00025366333
7.1855723e-12
-0.000193506
-0.00025756933
6.777187e-12
-0.00015665812
-0.00025243966
6.4731464e-12
-0.00012053528
-0.00023804135
6.2819877e-12
-8.6780805e-05
-0.0002147447
5.5195189e-12
-5.6979181e-05
-0.00018356382
5.7666185e-12
-3.252061e-05
-0.00014612508
1.1249701e-11
-1.4484546e-05
-0.00010455522
6.7490353e-12
-3.5613122e-06
-6.1310614e-05
-2.4954974e-11
-1.9098446e-05
3.3723357e-11
-3.3209755e-06
2.7545781e-05
-2.7771668e-11
-1.2065587e-05
7.468545e-05
2.7723414e-11
-2.5146695e-05
0.00011406011
-2.3382534e-12
-4.16168e-05
0.00014614424
-7.3358881e-12
-6.0669057e-05
0.00017156632
-2.7578721e-12
-8.1631716e-05
0.00019101073
-2.3496792e-12
-0.00010395651
0.00020516119
-2.7299419e-12
-0.00012720292
0.00021465735
-2.6181047e-12
-0.00015101994
0.00022006271
-2.408845e-12
-0.00017512685
0.00022184425
-2.1077959e-12
-0.00019929383
0.00022036222
-1.8134117e-12
-0.00022332321
0.00021586845
-1.4298431e-12
-0.00024703176
0.000208512
-8.9945086e-13
-0.00027023443
0.00019835072
-3.997747e-13
-0.00029272957
0.0001853679
9.3474136e-14
-0.00031428603
0.00016949313
6.4274474e-13
-0.0003346323
0.00015062682
1.2865017e-12
-0.00035344821
0.00012866805
1.9002359e-12
-0.00037035979
0.00010354538
2.5396998e-12
-0.00038493808
7.5250235e-05
3.2866684e-12
-0.00039670295
4.3872327e-05
4.1874838e-12
-0.00040513213
9.6361888e-06
5.1562248e-12
-0.00040968093
-2.7064196e-05
5.8300167e-12
-0.00040980436
-6.5630667e-05
6.5295404e-12
-0.0004049948
-0.00010523699
7.1691879e-12
-0.00039482587
-0.00014481336
7.756382e-12
-0.00037900623
-0.00018304851
8.2317939e-12
-0.00035743986
-0.00021841522
8.4804918e-12
-0.00033028841
-0.00024922545
8.4751028e-12
-0.00029802814
-0.00027372081
8.2963921e-12
-0.00026149135
-0.00029020013
7.989945e-12
-0.00022187999
-0.0002971807
7.5172287e-12
-0.00018073926
-0.0002935804
7.0555666e-12
-0.00013988266
-0.00027889796
6.6878096e-12
-0.00010126802
-0.00025335934
5.7833845e-12
-6.6835909e-05
-0.00021799594
6.0755516e-12
-3.8333725e-05
-0.00017462727
1.2502959e-11
-1.7158088e-05
-0.00012573087
7.0927279e-12
-4.245009e-06
-7.4223661e-05
-3.0467273e-11
-2.3343495e-05
3.9438292e-11
-3.4775791e-06
3.1023386e-05
-2.91036e-11
-1.2632749e-05
8.3840597e-05
2.9057476e-11
-2.6320091e-05
0.00012774745
-2.4297006e-12
-4.3539127e-05
0.00016336329
-7.737326e-12
-6.343878e-05
0.00019146598
-2.9623663e-12
-8.531391e-05
0.00021288587
-2.5859162e-12
-0.00010859447
0.00022844176
-3.0346943e-12
-0.00013282939
0.00023889227
-2.9114312e-12
-0.00015766723
0.00024490055
-2.6980557e-12
-0.00018283525
0.00024701227
-2.3549981e-12
-0.00020811812
0.00024564509
-1.9999286e-12
-0.0002333372
0.00024108754
-1.5831771e-12
-0.00025833086
0.00023350566
-1.0349478e-12
-0.00028293614
0.000222956
-5.0732146e-13
-0.00030697208
0.00020940383
2.4859598e-14
-0.00033022465
0.0001927457
6.0866491e-13
-0.00035243378
0.00017283595
1.2573936e-12
-0.00037328267
0.00014951694
1.911086e-12
-0.00039239008
0.00012265278
2.6097573e-12
-0.00040930635
9.2166506e-05
3.4362688e-12
-0.00042351434
5.8080318e-05
4.3342149e-12
-0.0004344363
2.0558143e-05
5.2513435e-12
-0.00044144934
-2.0051157e-05
6.0816477e-12
-0.00044390845
-6.3171564e-05
6.8823661e-12
-0.00044118225
-0.00010796321
7.6163818e-12
-0.00043269993
-0.00015329569
8.3059955e-12
-0.00041801093
-0.00019773752
8.8806092e-12
-0.00039685587
-0.00023957029
9.2333356e-12
-0.00036924494
-0.00027683639
9.3058492e-12
-0.00033553647
-0.00030742929
9.1361464e-12
-0.00029650395
-0.00032923266
8.8132492e-12
-0.00025337571
-0.00034030895
8.2965906e-12
-0.00020782924
-0.00033912688
7.6778687e-12
-0.00016192445
-0.00032480275
7.0860824e-12
-0.00011796901
-0.00029731478
5.9731689e-12
-7.8324195e-05
-0.00025764075
6.3362006e-12
-4.5179344e-05
-0.00020777214
1.4067128e-11
-2.033916e-05
-0.00015057106
7.4705752e-12
-5.0691145e-06
-8.949367e-05
-3.7185856e-11
-2.8412655e-05
4.6272459e-11
-3.6246712e-06
3.4648082e-05
-3.0395045e-11
-1.3167347e-05