/*--------------------------------*- C++ -*----------------------------------*\
  =========                 |
  \\      /  F ield         | OpenFOAM: The Open Source CFD Toolbox
   \\    /   O peration     | Website:  https://openfoam.org
    \\  /    A nd           | Version:  7
     \\/     M anipulation  |
\*---------------------------------------------------------------------------*/
FoamFile
{
    version     2.0;
    format      ascii;
    class       surfaceScalarField;
    location    "3";
    object      phi_0;
}
// * * * * * * * * * * * * * * * * * * * * * * * * * * * * * * * * * * * * * //

dimensions      [0 3 -1 0 0 0 0];

internalField   nonuniform List<scalar> 
45600
(
1.7938522e-07
-1.8241316e-07
-1.8525729e-10
1.967964e-07
-1.7282629e-08
-1.1501161e-10
-8.8124204e-08
2.849761e-07
-5.8512917e-11
-6.8097204e-07
5.9288047e-07
-2.7978499e-11
-1.5417314e-06
8.6076895e-07
-1.1232618e-11
-2.6149301e-06
1.0731994e-06
-1.7308198e-12
-3.8450466e-06
1.2301141e-06
3.9270713e-12
-5.1820252e-06
1.3369724e-06
7.2758011e-12
-6.5824479e-06
1.400412e-06
9.2863534e-12
-8.0090079e-06
1.4265532e-06
1.0618824e-11
-9.4293929e-06
1.4203718e-06
1.129058e-11
-1.0814926e-05
1.3855241e-06
1.1509396e-11
-1.2139339e-05
1.3244076e-06
1.1485051e-11
-1.3377739e-05
1.2383868e-06
1.1128416e-11
-1.4505841e-05
1.1280915e-06
1.0513513e-11
-1.5499593e-05
9.9374956e-07
9.8003048e-12
-1.6335154e-05
8.3555624e-07
8.9735543e-12
-1.6989218e-05
6.5405436e-07
7.6823747e-12
-1.7439706e-05
4.5048028e-07
6.2782363e-12
-1.7666783e-05
2.2707498e-07
4.8028753e-12
-1.7654124e-05
-1.2659892e-08
3.1390068e-12
-1.739029e-05
-2.6383754e-07
1.4323815e-12
-1.6870272e-05
-5.2002133e-07
-4.9262394e-13
-1.6096876e-05
-7.7339584e-07
-2.4299892e-12
-1.5081921e-05
-1.0149503e-06
-4.2401372e-12
-1.3847073e-05
-1.2348414e-06
-5.9427486e-12
-1.2424166e-05
-1.4229001e-06
-7.3430209e-12
-1.0854911e-05
-1.5692461e-06
-8.2916476e-12
-9.1899362e-06
-1.6649668e-06
-8.9043403e-12
-7.4871225e-06
-1.7028027e-06
-9.1146867e-12
-5.8093359e-06
-1.6777756e-06
-8.7600802e-12
-4.2216299e-06
-1.5876969e-06
-7.8639329e-12
-2.7880865e-06
-1.4335365e-06
-6.497804e-12
-1.568416e-06
-1.2196664e-06
-4.5940941e-12
-6.142296e-07
-9.5418695e-07
-2.0932181e-12
3.6300135e-08
-6.5053429e-07
7.1523292e-13
3.6914388e-07
-3.328499e-07
2.1728806e-12
3.9999497e-07
-3.0859783e-08
5.4586622e-12
2.0613379e-07
1.9384946e-07
8.7822117e-12
2.0612556e-07
5.4216417e-12
2.0879546e-08
-2.0316496e-07
-1.1528351e-10
-4.295653e-07
4.332693e-07
-1.1461187e-10
-1.5469232e-06
1.4023921e-06
-5.1983818e-11
-3.3427572e-06
2.3887492e-06
-3.328287e-11
-5.7475619e-06
3.2655961e-06
-2.3199029e-11
-8.6561155e-06
3.9817711e-06
-1.8085816e-11
-1.1951472e-05
4.5254865e-06
-1.559074e-11
-1.5518946e-05
4.9044605e-06
-1.4190087e-11
-1.9252311e-05
5.1337832e-06
-1.3306049e-11
-2.3055466e-05
5.2297237e-06
-1.2493209e-11
-2.6841831e-05
5.2067531e-06
-1.1713632e-11
-3.0532614e-05
5.0763144e-06
-1.0945419e-11
-3.4054787e-05
4.84659e-06
-1.0057549e-11
-3.7339271e-05
4.5228855e-06
-8.9303503e-12
-4.0319593e-05
4.1084258e-06
-7.5855399e-12
-4.2931224e-05
3.6053877e-06
-6.162705e-12
-4.5111709e-05
3.0160455e-06
-4.4213063e-12
-4.6801595e-05
2.3439442e-06
-2.6634743e-12
-4.7946135e-05
1.5950248e-06
-6.4900513e-13
-4.8497672e-05
7.7861394e-07
1.66528e-12
-4.8418673e-05
-9.1664244e-08
3.8695343e-12
-4.7684634e-05
-9.9788661e-07
6.1296066e-12
-4.628785e-05
-1.9168156e-06
8.3753228e-12
-4.4240212e-05
-2.8210403e-06
1.0645344e-11
-4.157582e-05
-3.679349e-06
1.2871837e-11
-3.8352614e-05
-4.4580571e-06
1.4806556e-11
-3.4652832e-05
-5.1226969e-06
1.6339588e-11
-3.0582035e-05
-5.6400586e-06
1.7514913e-11
-2.6266566e-05
-5.980451e-06
1.8381767e-11
-2.1849395e-05
-6.1199885e-06
1.8902035e-11
-1.7484445e-05
-6.0427405e-06
1.8941447e-11
-1.3329578e-05
-5.7425816e-06
1.8349097e-11
-9.5384355e-06
-5.2246987e-06
1.7167095e-11
-6.2512378e-06
-4.5068837e-06
1.5577913e-11
-3.5842711e-06
-3.6211717e-06
1.3675341e-11
-1.61745e-06
-2.6173719e-06
1.1404736e-11
-3.8107973e-07
-1.569234e-06
8.7970934e-12
1.7255302e-07
-5.8450517e-07
6.8841106e-12
1.9751545e-07
1.6887483e-07
6.5155275e-12
4.036367e-07
2.8874306e-12
-2.8398664e-07
8.0883124e-08
-6.4325284e-11
-1.4195481e-06
1.5688859e-06
-4.7342142e-11
-3.5143756e-06
3.4972503e-06
-3.3472381e-11
-6.5479183e-06
5.4223092e-06
-2.1229691e-11
-1.0422826e-05
7.1405214e-06
-1.2318651e-11
-1.4999678e-05
8.5586353e-06
-7.1485587e-12
-2.0121852e-05
9.6476603e-06
-4.1399719e-12
-2.5631252e-05
1.0413866e-05
-2.0810586e-12
-3.1376841e-05
1.0879377e-05
-7.2484915e-13
-3.7218102e-05
1.1070985e-05
1.53895e-13
-4.3025445e-05
1.1014093e-05
7.4391365e-13
-4.8678918e-05
1.0729792e-05
1.2309445e-12
-5.4066287e-05
1.0233965e-05
1.6079367e-12
-5.9081125e-05
9.5377223e-06
1.8825846e-12
-6.362141e-05
8.6487083e-06
2.2234725e-12
-6.758896e-05
7.5729402e-06
2.4418171e-12
-7.0889859e-05
6.3169477e-06
2.7359895e-12
-7.3435922e-05
4.8900048e-06
2.9359225e-12
-7.5147177e-05
3.3062737e-06
3.0611613e-12
-7.5955257e-05
1.5866885e-06
3.3281246e-12
-7.5807447e-05
-2.3947791e-07
3.6014882e-12
-7.4671142e-05
-2.1341956e-06
3.650448e-12
-7.2538392e-05
-4.0495719e-06
3.5302557e-12
-6.943003e-05
-5.9294086e-06
3.5911522e-12
-6.5398999e-05
-7.7103853e-06
3.7544816e-12
-6.0532438e-05
-9.3246219e-06
3.8488144e-12
-5.4952105e-05
-1.0703031e-05
3.9388465e-12
-4.8812823e-05
-1.1779345e-05
3.9560805e-12
-4.2298698e-05
-1.2494581e-05
3.9097897e-12
-3.5617078e-05
-1.2801612e-05
3.9817438e-12
-2.8990305e-05
-1.2669517e-05
4.2408638e-12
-2.2645475e-05
-1.2087416e-05
4.5261928e-12
-1.6802489e-05
-1.1067692e-05
4.7258396e-12
-1.1660626e-05
-9.6487542e-06
4.941941e-12
-7.3837598e-06
-7.898047e-06
5.2539831e-12
-4.0842475e-06
-5.9168932e-06
5.5685678e-12
-1.8045066e-06
-3.8489844e-06
5.9640418e-12
-4.9599155e-07
-1.8930298e-06
6.2423941e-12
2.1055171e-09
-3.2923128e-07
5.9900824e-12
4.0573638e-07
5.5515971e-12
-6.1442704e-07
6.9535208e-07
-3.7491301e-11
-2.4964651e-06
3.4509507e-06
-2.3596155e-11
-5.6239728e-06
6.6247786e-06
-2.0833379e-11
-9.9089355e-06
9.7072883e-06
-1.4283467e-11
-1.5209861e-05
1.2441451e-05
-7.9901786e-12
-2.1352463e-05
1.4701244e-05
-4.1055879e-12
-2.8147711e-05
1.6442912e-05
-1.5809767e-12
-3.5404956e-05
1.7671108e-05
1.9453929e-13
-4.2939954e-05
1.8414373e-05
1.4129786e-12
-5.0578707e-05
1.8709741e-05
2.2709517e-12
-5.8158374e-05
1.8593759e-05
2.7987976e-12
-6.5526383e-05
1.8097799e-05
3.1347791e-12
-7.2538788e-05
1.7246368e-05
3.4238536e-12
-7.9058548e-05
1.6057481e-05
3.5904186e-12
-8.4954319e-05
1.4544479e-05
3.7766277e-12
-9.0100117e-05
1.2718738e-05
3.8590924e-12
-9.4376081e-05
1.0592911e-05
3.8614391e-12
-9.7670422e-05
8.1843409e-06
3.8109865e-12
-9.9882521e-05
5.5183675e-06
3.7283492e-12
-0.00010092707
2.6312369e-06
3.514699e-12
-0.00010073893
-4.2761837e-07
3.4147515e-12
-9.9278509e-05
-3.5946235e-06
3.3262406e-12
-9.6537166e-05
-6.7909193e-06
2.9259542e-12
-9.2542162e-05
-9.9244169e-06
2.4739884e-12
-8.73606e-05
-1.2891949e-05
2.1891009e-12
-8.1101919e-05
-1.5583307e-05
2.0492914e-12
-7.3918369e-05
-1.788658e-05
2.0073356e-12
-6.6003115e-05
-1.9694601e-05
1.8632547e-12
-5.7585601e-05
-2.0912097e-05
1.7219349e-12
-4.8924122e-05
-2.1463093e-05
1.7775881e-12
-4.0295621e-05
-2.129802e-05
1.9957716e-12
-3.1982968e-05
-2.0400071e-05
2.3141288e-12
-2.4260134e-05
-1.8790528e-05
2.7498095e-12
-1.7375747e-05
-1.6533146e-05
3.3568172e-12
-1.1535575e-05
-1.3738225e-05
4.02436e-12
-6.8845747e-06
-1.05679e-05
4.7085031e-12
-3.4890192e-06
-7.2445473e-06
5.7490729e-12
-1.3195103e-06
-4.0625456e-06
6.1349586e-12
-2.396505e-07
-1.4090964e-06
4.3636316e-12
1.6607871e-07
7.8168151e-12
-9.3281963e-07
1.6281954e-06
-2.5550847e-11
-3.5579334e-06
6.0760772e-06
-8.8675838e-12
-7.7186566e-06
1.0785515e-05
-1.3108868e-11
-1.3240469e-05
1.5229121e-05
-1.0682247e-11
-1.9925119e-05
1.9126107e-05
-6.4861601e-12
-2.7558137e-05
2.2334264e-05
-4.1205767e-12
-3.5918773e-05
2.4803552e-05
-2.5530574e-12
-4.4788461e-05
2.65408e-05
-1.2799873e-12
-5.3956535e-05
2.7582448e-05
-3.7167435e-13
-6.3223095e-05
2.7976305e-05
3.0778619e-13
-7.2399637e-05
2.77703e-05
7.3939542e-13
-8.1308163e-05
2.7006325e-05
1.0757729e-12
-8.9779638e-05
2.5717844e-05
1.4839015e-12
-9.7652427e-05
2.393027e-05
1.8294169e-12
-0.00010477125
2.1663305e-05
2.0686691e-12
-0.00011098709
1.8934577e-05
2.331036e-12
-0.00011615823
1.5764045e-05
2.6708501e-12
-0.00012015258
1.2178688e-05
2.8606699e-12
-0.00012285129
8.2170695e-06
3.082997e-12
-0.00012415343
3.9333802e-06
3.2423603e-12
-0.00012398161
-5.994481e-07
3.3979918e-12
-0.00012228787
-5.2883664e-06
3.5417605e-12
-0.0001190602
-1.001859e-05
3.6448703e-12
-0.0001143281
-1.4656523e-05
3.7519344e-12
-0.00010816726
-1.9052802e-05
3.7369946e-12
-0.00010070262
-2.3047949e-05
3.7749551e-12
-9.2109255e-05
-2.6479949e-05
3.9810567e-12
-8.2610432e-05
-2.9193429e-05
4.1464388e-12
-7.247258e-05
-3.1049955e-05
4.2131955e-12
-6.1996914e-05
-3.1938765e-05
4.2608311e-12
-5.1507756e-05
-3.1787184e-05
4.3336312e-12
-4.1337831e-05
-3.057e-05
4.4947118e-12
-3.1811112e-05
-2.8317251e-05
4.7973415e-12
-2.3223982e-05
-2.512028e-05
5.1745913e-12
-1.5825763e-05
-2.1136451e-05
5.4179632e-12
-9.7998575e-06
-1.6593812e-05
5.6588877e-12
-5.2470514e-06
-1.179736e-05
6.5873605e-12
-2.1730432e-06
-7.1365596e-06
6.2356093e-12
-4.8462154e-07
-3.0975197e-06
2.2205914e-12
-3.1855132e-07
9.4919892e-12
-1.2266935e-06
2.8549054e-06
-2.0087883e-11
-4.5644849e-06
9.4138756e-06
7.3759558e-13
-9.7288179e-06
1.5949858e-05
-8.1965146e-12
-1.6453612e-05
2.1953923e-05
-8.0457685e-12
-2.4476675e-05
2.7149176e-05
-4.5958219e-12
-3.3538482e-05
3.1396075e-05
-2.9822327e-12
-4.3385033e-05
3.4650107e-05
-2.0043329e-12
-5.3771356e-05
3.6927127e-05
-1.0633094e-12
-6.4464076e-05
3.8275168e-05
-3.9868087e-13
-7.5242442e-05
3.8754673e-05
1.310891e-13
-8.5897954e-05
3.842581e-05
5.1611751e-13
-9.6232961e-05
3.7341333e-05
8.8498967e-13
-0.00010605889
3.5543775e-05
1.2345039e-12
-0.0001151946
3.3065975e-05
1.6064326e-12
-0.00012346534
2.9934044e-05
1.8828474e-12
-0.00013070276
2.6171994e-05
2.0588458e-12
-0.0001367461
2.1807388e-05
2.435059e-12
-0.00014144481
1.6877387e-05
2.7556221e-12
-0.00014466242
1.143468e-05
3.0197373e-12
-0.00014628185
5.5528091e-06
3.2011531e-12
-0.00014621153
-6.6977168e-07
3.4016916e-12
-0.0001443918
-7.1080991e-06
3.5371699e-12
-0.00014080278
-1.3607615e-05
3.636458e-12
-0.0001354706
-1.9988707e-05
3.8399908e-12
-0.00012847309
-2.6050316e-05
3.9918814e-12
-0.00011994384
-3.1577203e-05
4.1235853e-12
-0.00011007384
-3.6349955e-05
4.294426e-12
-9.9110064e-05
-4.015721e-05
4.4169082e-12
-8.7350506e-05
-4.2809519e-05
4.5002292e-12
-7.51353e-05
-4.4153975e-05
4.6137804e-12
-6.283393e-05
-4.408856e-05
4.7107856e-12
-5.0828807e-05
-4.2575127e-05
4.8085585e-12
-3.9495958e-05
-3.9650105e-05
5.0624017e-12
-2.9183889e-05
-3.5432353e-05
5.4185079e-12
-2.019213e-05
-3.0128215e-05
5.596009e-12
-1.2751273e-05
-2.4034675e-05
5.8287737e-12
-7.0067275e-06
-1.7541913e-05
7.0084636e-12
-3.00889e-06
-1.1134403e-05
6.2335729e-12
-7.1368848e-07
-5.3927209e-06
1.798091e-13
-1.0322508e-06
1.1221572e-11
-1.4960189e-06
4.3509438e-06
-1.7778342e-11
-5.5065867e-06
1.342444e-05
7.0667739e-12
-1.1631729e-05
2.2075008e-05
-5.1872921e-12
-1.9515625e-05
2.9837826e-05
-6.2330886e-12
-2.8829784e-05
3.646334e-05
-3.0330639e-12
-3.9266778e-05
4.1833074e-05
-1.8508714e-12
-5.0537853e-05
4.5921184e-05
-1.247173e-12
-6.2372015e-05
4.8761291e-05
-5.8120507e-13
-7.4515317e-05
5.0418469e-05
-7.969236e-14
-8.6729604e-05
5.096896e-05
3.4601418e-13
-9.8790623e-05
5.0486829e-05
6.8813137e-13
-0.00011048566
4.9036375e-05
1.0625753e-12
-0.00012161117
4.6669276e-05
1.342169e-12
-0.00013197068
4.3425481e-05
1.6509223e-12
-0.00014137359
3.9336956e-05
1.9997138e-12
-0.00014963502
3.4433416e-05
2.1556685e-12
-0.00015657694
2.8749311e-05
2.4021893e-12
-0.00016203091
2.2331351e-05
2.7327626e-12
-0.00016584215
1.5245918e-05
3.0348414e-12
-0.00016787526
7.5859097e-06
3.1008535e-12
-0.00016802175
-5.2328067e-07
3.1797726e-12
-0.00016620403
-8.9258262e-06
3.4253536e-12
-0.00016238905
-1.7422595e-05
3.6320671e-12
-0.00015659263
-2.5785136e-05
3.8095821e-12
-0.0001488873
-3.3755651e-05
3.9278758e-12
-0.00013940792
-4.1056579e-05
4.0592155e-12
-0.00012835472
-4.7403168e-05
4.2566525e-12
-0.00011599292
-5.2519008e-05
4.3627198e-12
-0.00010264851
-5.6153938e-05
4.3988867e-12
-8.8699267e-05
-5.8103225e-05
4.4965507e-12
-7.4561196e-05
-5.8226635e-05
4.6053648e-12
-6.0670485e-05
-5.6465842e-05
4.7419791e-12
-4.7461871e-05
-5.2858722e-05
5.0290938e-12
-3.5344814e-05
-4.7549415e-05
5.3736576e-12
-2.4679369e-05
-4.0793666e-05
5.5119715e-12
-1.5754133e-05
-3.2959917e-05
5.8226577e-12
-8.7689126e-06
-2.4527141e-05
7.3405182e-12
-3.8250938e-06
-1.6078228e-05
6.298977e-12
-9.2717777e-07
-8.2906362e-06
-1.6849445e-12
-1.9594427e-06
1.2903924e-11
-1.7445128e-06
6.0954764e-06
-1.730867e-11
-6.3882234e-06
1.8068141e-05
1.1571457e-11
-1.3428399e-05
2.9115185e-05
-3.360544e-12
-2.2424554e-05
3.883399e-05
-5.179171e-12
-3.2982814e-05
4.7021603e-05
-2.0715583e-12
-4.4747176e-05
5.3597439e-05
-1.1994152e-12
-5.7393566e-05
5.8567575e-05
-8.6807795e-13
-7.0625357e-05
6.1993083e-05
-3.8557762e-13
-8.4169591e-05
6.3962703e-05
-5.8313845e-15
-9.7773317e-05
6.4572687e-05
2.9641429e-13
-0.00011119989
6.3913398e-05
6.2543015e-13
-0.00012422528
6.2061764e-05
1.0100951e-12
-0.00013663473
5.9078721e-05
1.2321746e-12
-0.00014821998
5.5010731e-05
1.4403023e-12
-0.00015877751
4.9894484e-05
1.8366827e-12
-0.00016810797
4.3763875e-05
2.1509532e-12
-0.00017601712
3.6658455e-05
2.4303505e-12
-0.00018231834
2.8632573e-05
2.6998115e-12
-0.00018683687
1.9764435e-05
2.9351949e-12
-0.00018941492
1.0163966e-05
2.9985501e-12
-0.00018992551
-1.2698358e-08
2.9921096e-12
-0.0001882623
-1.0589037e-05
3.4563744e-12
-0.00018437487
-2.1310033e-05
3.7400799e-12
-0.00017825964
-3.1900366e-05
3.9291802e-12
-0.0001699753
-4.2039997e-05
4.0452327e-12
-0.00015964974
-5.1382136e-05
4.233424e-12
-0.00014748521
-5.9567702e-05
4.4600446e-12
-0.00013375985
-6.6244373e-05
4.5441167e-12
-0.00011882475
-7.1089047e-05
4.5539207e-12
-0.00010309559
-7.3832386e-05
4.6409639e-12
-8.7038593e-05
-7.4283638e-05
4.7715344e-12
-7.1150822e-05
-7.2353616e-05
4.9377767e-12
-5.5935882e-05
-6.8073665e-05
5.2080415e-12
-4.1876587e-05
-6.1608716e-05
5.479138e-12
-2.9406993e-05
-5.3263267e-05
5.5400787e-12
-1.8886657e-05
-4.3480259e-05
5.892836e-12
-1.0580239e-05
-3.2833569e-05
7.7341704e-12
-4.6456105e-06
-2.2012865e-05
6.4362753e-12
-1.1334755e-06
-1.1802771e-05
-3.4908242e-12
-3.0929353e-06
1.4547622e-11
-1.9762794e-06
8.071774e-06
-1.7735628e-11
-7.2176812e-06
2.3309534e-05
1.5143852e-11
-1.5129376e-05
3.7026881e-05
-2.179895e-12
-2.5192282e-05
4.8896906e-05
-4.6316755e-12
-3.6949897e-05
5.877922e-05
-1.4613314e-12
-4.9998665e-05
6.6646207e-05
-7.6094897e-13
-6.3979733e-05
7.2548643e-05
-7.0717652e-13
-7.8571709e-05
7.6585058e-05
-4.2726565e-13
-9.3484187e-05
7.8875179e-05
-8.4202731e-14
-0.00010845173
7.9540226e-05
2.3749717e-13
-0.00012322819
7.868986e-05
5.0365662e-13
-0.0001375815
7.6415069e-05
7.5883787e-13
-0.000151289
7.2786213e-05
9.627537e-13
-0.00016413369
6.7855421e-05
1.244297e-12
-0.00017590164
6.1662429e-05
1.6422441e-12
-0.00018638073
5.4242955e-05
1.9319029e-12
-0.00019536106
4.5638782e-05
2.2262138e-12
-0.00020263718
3.5908689e-05
2.5603173e-12
-0.00020801219
2.5139444e-05
2.8712088e-12
-0.00021130443
1.3456201e-05
3.1820583e-12
-0.000212349
1.0318724e-06
3.7296426e-12
-0.00021102583
-1.1912208e-05
3.7116013e-12
-0.00020724477
-2.5091098e-05
3.9347875e-12
-0.0002009757
-3.8169438e-05
4.1968541e-12
-0.00019225375
-5.0761954e-05
4.3238912e-12
-0.00018119034
-6.2445549e-05
4.4701175e-12
-0.00016798138
-7.2776666e-05
4.6345069e-12
-0.00015291167
-8.1314088e-05
4.7271028e-12
-0.0001363542
-8.7646512e-05
4.8040228e-12
-0.00011876317
-9.1423427e-05
4.9145776e-12
-0.0001006598
-9.2387015e-05
5.0140193e-12
-8.2611135e-05
-9.0402283e-05
5.1356417e-12
-6.5202514e-05
-8.548229e-05
5.3589531e-12
-4.9005663e-05
-7.7805573e-05
5.5875408e-12
-3.4545303e-05
-6.7723634e-05
5.6168171e-12
-2.2267726e-05
-5.5757844e-05
6.001976e-12
-1.2515038e-05
-4.2586269e-05
8.1710378e-12
-5.5086447e-06
-2.901927e-05
6.5503403e-12
-1.3447318e-06
-1.5966683e-05
-5.3594976e-12
-4.437686e-06
1.6247352e-11
-2.1947901e-06
1.0266581e-05
-1.8600822e-11
-8.0034403e-06
2.9118169e-05
1.8010489e-11
-1.6747351e-05
4.5770793e-05
-1.4512337e-12
-2.7834725e-05
5.9984284e-05
-4.3835547e-12
-4.0750003e-05
7.1694498e-05
-1.1158686e-12
-5.5044173e-05
8.0940377e-05
-6.4178381e-13
-7.032506e-05
8.7829529e-05
-7.2479006e-13
-8.6247963e-05
9.2507961e-05
-4.7494402e-13
-0.00010250685
9.5134067e-05
-2.227756e-13
-0.00011882612
9.5859493e-05
4.3790694e-15
-0.00013495291
9.4816654e-05
2.4181321e-13
-0.00015065015
9.2112307e-05
5.4666052e-13
-0.0001656904
8.7826456e-05
8.212193e-13
-0.0001798508
8.2015816e-05
1.1489006e-12
-0.00019290934
7.4720968e-05
1.520088e-12
-0.00020464267
6.5976285e-05
1.767601e-12
-0.00021482568
5.5821794e-05
2.0362741e-12
-0.0002232331
4.4316107e-05
2.4610548e-12
-0.00022964323
3.1549574e-05
2.8482347e-12
-0.0002338439
1.7656871e-05
3.1602701e-12
-0.00023563995
2.8279195e-06
3.5401808e-12
-0.00023486758
-1.2684576e-05
3.7505666e-12
-0.00023140115
-2.8557526e-05
4.138258e-12
-0.00022517091
-4.4399688e-05
4.498925e-12
-0.00021617674
-5.9756131e-05
4.6571164e-12
-0.00020450217
-7.4120119e-05
4.7553173e-12
-0.00019032649
-8.6952349e-05
4.8699385e-12
-0.00017393308
-9.7707503e-05
4.9978012e-12
-0.00015571214
-0.00010586746
5.1460419e-12
-0.000136156
-0.00011097957
5.2647256e-12
-0.00011584571
-0.00011269731
5.291932e-12
-9.5428383e-05
-0.00011081962
5.3197833e-12
-7.5585985e-05
-0.00010532469
5.490923e-12
-5.6997692e-05
-9.6393874e-05
5.7113678e-12
-4.0299132e-05
-8.4422202e-05
5.7120816e-12
-2.6042889e-05
-7.0014097e-05
6.1018767e-12
-1.466481e-05
-5.3964362e-05
8.6121826e-12
-6.4604918e-06
-3.7223598e-05
6.5845766e-12
-1.5748631e-06
-2.0852309e-05
-7.4158054e-12
-6.0125687e-06
1.8073626e-11
-2.4026358e-06
1.2669237e-05
-1.9742098e-11
-8.7524889e-06
3.5468005e-05
2.0410864e-11
-1.8293545e-05
5.531185e-05
-1.0503651e-12
-3.036648e-05
7.2057223e-05
-4.510142e-12
-4.4400423e-05
8.572844e-05
-1.0394184e-12
-5.9903548e-05
9.6443501e-05
-6.4391712e-13
-7.6452424e-05
0.00010437841
-8.3913181e-13
-9.3680988e-05
0.00010973653
-6.707128e-13
-0.00011126973
0.00011272281
-4.7162394e-13
-0.00012893538
0.00011352514
-3.1617733e-13
-0.0001464212
0.00011230247
-1.158068e-13
-0.00016348817
0.00010917928
2.2298893e-13
-0.00017990721
0.00010424549
5.5182784e-13
-0.00019545251
9.756112e-05
9.2518965e-13
-0.0002098965
8.9164951e-05
1.3383857e-12
-0.00022300631
7.9086091e-05
1.6043772e-12
-0.00023454231
6.7357792e-05
1.860144e-12
-0.00024425877
5.4032566e-05
2.3196177e-12
-0.00025190697
3.9197782e-05
2.7589701e-12
-0.00025724098
2.2990876e-05
3.1123085e-12
-0.00026002623
5.6131717e-06
3.4618089e-12
-0.00026005162
-1.2659196e-05
3.8268739e-12
-0.00025714276
-3.1466385e-05
4.3346423e-12
-0.00025117925
-5.0363195e-05
4.7580093e-12
-0.00024211277
-6.8822621e-05
4.9634049e-12
-0.00022998551
-8.6247383e-05
5.1003871e-12
-0.00021494735
-0.00010199051
5.235592e-12
-0.00019726945
-0.00011538541
5.3847372e-12
-0.00017735181
-0.00012578511
5.5551812e-12
-0.00015572235
-0.00013260903
5.6487879e-12
-0.00013302533
-0.00013539434
5.6063683e-12
-0.00010999786
-0.0001338471
5.5675176e-12
-8.7434801e-05
-0.00012788776
5.7028258e-12
-6.6144113e-05
-0.00011768457
5.8801965e-12
-4.6896625e-05
-0.0001036697
5.7733554e-12
-3.0375639e-05
-8.6535091e-05
6.136817e-12
-1.7132303e-05
-6.720771e-05
9.0146038e-12
-7.552481e-06
-4.680343e-05
6.5661116e-12
-1.838769e-06
-2.6566013e-05
-9.7857552e-12
-7.8513578e-06
2.0147186e-11
-2.6015134e-06
1.5270769e-05
-2.1080784e-11
-9.4697129e-06
4.2336187e-05
2.241591e-11
-1.9776053e-05
6.5618185e-05
-9.4486668e-13
-3.2798071e-05
8.5079246e-05
-4.8333786e-12
-4.791311e-05
0.00010084348
-1.1466295e-12
-6.4589314e-05
0.00011311971
-7.635183e-13
-8.2374359e-05
0.00012216345
-1.0592404e-12
-0.00010088308
0.00012824525
-9.8265452e-13
-0.00011978491
0.00013162464
-7.7316768e-13
-0.00013879157
0.0001325318
-6.1163433e-13
-0.00015764544
0.00013115634
-3.8455548e-13
-0.00017610881
0.00012764265
-6.552483e-14
-0.0001939542
0.00012209087
2.2424299e-13
-0.00021095608
0.00011456301
6.1003266e-13
-0.00022688412
0.00010509299
1.0624123e-12
-0.00024149816
9.3700132e-05
1.3814283e-12
-0.00025454534
8.0404977e-05
1.6699862e-12
-0.00026575955
6.5246778e-05
2.1424518e-12
-0.0002748636
4.830183e-05
2.6385835e-12
-0.00028157446
2.9701734e-05
3.1325502e-12
-0.00028561192
9.6506345e-06
3.5714014e-12
-0.00028671112
-1.156e-05
4.0402336e-12
-0.00028463797
-3.3539532e-05
4.6005968e-12
-0.00027920898
-5.5792193e-05
5.0187177e-12
-0.0002703132
-7.7718401e-05
5.2714483e-12
-0.00025793592
-9.8624669e-05
5.4850566e-12
-0.00024218187
-0.00011774457
5.6720269e-12
-0.00022329552
-0.00013427176
5.8416267e-12
-0.00020167537
-0.00014740526
6.0022521e-12
-0.0001778786
-0.00015640581
6.047186e-12
-0.00015261308
-0.00016065986
5.9499005e-12
-0.00012671431
-0.00015974588
5.8744939e-12
-0.00010110659
-0.00015349549
5.9624895e-12
-7.6750462e-05
-0.00014204071
6.035506e-12
-5.4580664e-05
-0.00012583951
5.7634681e-12
-3.5441602e-05
-0.00010567416
6.1184613e-12
-2.0028108e-05
-8.2621216e-05
9.4365786e-12
-8.8394975e-06
-5.7992048e-05
6.6074564e-12
-2.1520699e-06
-3.3253428e-05
-1.2538238e-11
-1.000345e-05
2.2697625e-11
-2.7923068e-06
1.8063094e-05
-2.2521425e-11
-1.0157813e-05
4.9701672e-05
2.4177189e-11
-2.1199309e-05
7.6659677e-05
-9.8848065e-13
-3.5134824e-05
9.9014768e-05
-5.2283445e-12
-5.1292985e-05
0.00011700164
-1.3320469e-12
-6.9104522e-05
0.00013093125
-9.4140682e-13
-8.8090593e-05
0.00014114953
-1.299505e-12
-0.0001078493
0.00014800396
-1.287652e-12
-0.00012804153
0.00015181688
-1.0932618e-12
-0.00014837687
0.00015286713
-9.1171123e-13
-0.00016859993
0.00015137941
-5.7591132e-13
-0.00018847768
0.00014752041
-2.2661984e-13
-0.00020778788
0.00014140107
1.4545729e-14
-0.00022630881
0.00013308394
3.8211133e-13
-0.00024381076
0.00012259494
8.3047587e-13
-0.00026004922
0.00010993859
1.2027108e-12
-0.00027476031
9.5116071e-05
1.5587768e-12
-0.00028765871
7.8145183e-05
2.101987e-12
-0.00029843853
5.9081653e-05
2.6459035e-12
-0.00030677764
3.804084e-05
3.1808238e-12
-0.00031234595
1.5218943e-05
3.6641861e-12
-0.00031481827
-9.0876833e-06
4.2032012e-12
-0.0003138912
-3.4466611e-05
4.7995124e-12
-0.00030930563
-6.037776e-05
5.2394317e-12
-0.00030087276
-8.6151279e-05
5.5721983e-12
-0.00028850331
-0.00011099413
5.874801e-12
-0.0002722379
-0.00013400999
6.1209551e-12
-0.0002522756
-0.00015423406
6.3243578e-12
-0.00022899686
-0.00017068401
6.4822038e-12
-0.00020297635
-0.00018242633
6.4897463e-12
-0.00017498105
-0.00018865517
6.3502871e-12
-0.00014594968
-0.00018877726
6.227546e-12
-0.00011695137
-0.00018249381
6.2272558e-12
-8.9124599e-05
-0.00016986749
6.1685532e-12
-6.3601261e-05
-0.00015136285
5.7490587e-12
-4.1424145e-05
-0.00012785128
6.1472608e-12
-2.346855e-05
-0.00010057682
1.0047605e-11
-1.0379311e-05
-7.1081293e-05
6.7927991e-12
-2.531083e-06
-4.1101639e-05
-1.5719769e-11
-1.2534559e-05
2.5902084e-11
-2.9752271e-06
2.1038344e-05
-2.4053449e-11
-1.0817538e-05
5.7543958e-05
2.5681739e-11
-2.2564287e-05
8.8406425e-05
-1.0645034e-12
-3.7376885e-05
0.00011382737
-5.5735049e-12
-5.4537711e-05
0.00013416247
-1.4786127e-12
-7.344228e-05
0.00014983582
-1.1653576e-12
-9.3587356e-05
0.00016129461
-1.5657142e-12
-0.00011455655
0.00016897316
-1.5352359e-12
-0.00013600473
0.00017326507
-1.3641949e-12
-0.00015764216
0.00017450456
-1.2220502e-12
-0.00017921894
0.00017295619
-8.5959133e-13
-0.0002005103
0.00016881178
-4.7519681e-13
-0.00022130306
0.00016219383
-2.3142212e-13
-0.00024138335
0.00015316424
1.3583833e-13
-0.00026052611
0.0001417377
5.9553684e-13
-0.00027848632
0.00012789881
9.9611384e-13
-0.00029499252
0.00011162227
1.4317623e-12
-0.00030974284
9.2895508e-05
2.0688846e-12
-0.00032240427
7.1743083e-05
2.6951968e-12
-0.00033261558
4.8252138e-05
3.2973747e-12
-0.00033999469
2.2598053e-05
3.7839814e-12
-0.00034415157
-4.9308055e-06
4.3066886e-12
-0.00034470542
-3.3912766e-05
4.9667691e-12
-0.00034131021
-6.3772977e-05
5.4949978e-12
-0.0003336839
-9.377759e-05
5.9342024e-12
-0.00032164368
-0.00012303435
6.3178518e-12
-0.00030514409
-0.00015050958
6.6141368e-12
-0.00028431525
-0.00017506291
6.8447572e-12
-0.00025949678
-0.00019550249
6.9963751e-12
-0.00023126179
-0.00021066132
6.9803174e-12
-0.00020042458
-0.00021949238
6.8074502e-12
-0.00016802591
-0.00022117595
6.6165645e-12
-0.00013529151
-0.00021522821
6.4994425e-12
-0.0001035633
-0.00020159571
6.3211917e-12
-7.4207547e-05
-0.00018071861
5.7779103e-12
-4.8510313e-05
-0.00015354852
6.2388579e-12
-2.7574124e-05
-0.00012151302
1.0909104e-11
-1.2232289e-05
-8.6423135e-05
7.0645012e-12
-2.9929138e-06
-5.0340996e-05
-1.9495633e-11
-1.5527506e-05
2.9773467e-11
-3.1499945e-06
2.4188362e-05
-2.5563889e-11
-1.1448164e-05
6.5842102e-05
2.7039791e-11
-2.3869231e-05
0.00010082749
-1.2424636e-12
-3.9520128e-05
0.00012947828
-6.032952e-12
-5.7638685e-05
0.00015228103
-1.6763544e-12
-7.7586757e-05
0.00016978389
-1.4005417e-12
-9.8838355e-05
0.00018254621
-1.859135e-12
-0.00012096451
0.00019109931
-1.7901834e-12
-0.00014361634
0.00019591691
-1.5741705e-12
-0.00016650756
0.00019739578
-1.4449986e-12
-0.00018939693
0.00019584556
-1.1422972e-12
-0.00021207163
0.00019148649
-7.692113e-13
-0.00023433162
0.00018445381
-5.1057937e-13
-0.00025597532
0.00017480794
-7.7290387e-14
-0.00027678704
0.00016254943
4.1621497e-13
-0.00029652616
0.00014763792
8.6377493e-13
-0.00031491842
0.00013001453
1.320062e-12
-0.00033164997
0.00010962706
1.9821735e-12
-0.00034636452
8.6457628e-05
2.6989179e-12
-0.00035866441
6.0552026e-05
3.369689e-12
-0.00036811647
3.2050108e-05
3.8818515e-12
-0.0003742644
1.2171194e-06
4.3922331e-12
-0.00037664486
-3.1532317e-05
5.1615883e-12
-0.00037481595
-6.5601888e-05
5.8047357e-12
-0.00036838838
-0.00010020516
6.3714687e-12
-0.00035706656
-0.00013435618
6.845601e-12
-0.00034069466
-0.00016688148
7.1908568e-12
-0.00031930568
-0.00019645189
7.4344189e-12
-0.00029316855
-0.00022163962
7.5656643e-12
-0.00026282677
-0.00024100311
7.5177893e-12
-0.00022912019
-0.00025319897
7.2960553e-12
-0.00019318108
-0.00025711506
7.0163924e-12
-0.00015639685
-0.00025201245
6.7815937e-12
-0.00012033567
-0.0002376569
6.4956187e-12
-8.6638137e-05
-0.00021441614
5.7862076e-12
-5.6886203e-05
-0.00018330046
6.2899434e-12
-3.2467929e-05
-0.00014593131
1.1914489e-11
-1.4461235e-05
-0.00010442984
7.3122229e-12
-3.5556046e-06
-6.1246605e-05
-2.4187154e-11
-1.9083149e-05
3.431458e-11
-3.3160649e-06
2.750445e-05
-2.6969908e-11
-1.204819e-05
7.4574202e-05
2.8452866e-11
-2.5110879e-05
0.00011389018
-1.3740955e-12
-4.1557846e-05
0.00014592525
-6.5316786e-12
-6.0583114e-05
0.0001713063
-1.9706264e-12
-8.1515548e-05
0.00019071633
-1.6266487e-12
-0.00010380733
0.00020483799
-2.1025946e-12
-0.00012701827
0.00021431025
-2.0483852e-12
-0.00015079767
0.00021969632
-1.7835261e-12
-0.00017486511
0.00022146322
-1.6406919e-12
-0.00019899111
0.00021997157
-1.3867819e-12
-0.00022297842
0.0002154738
-1.0438105e-12
-0.00024664433
0.00020811972
-7.9660647e-13
-0.00026980438
0.000197968
-3.4551624e-13
-0.00029225764
0.00018500269
2.0460048e-13
-0.00031377373
0.00016915401
7.1929662e-13
-0.00033408201
0.0001503228
1.2374478e-12
-0.0003528632
0.00012840826
1.9131476e-12
-0.00036974427
0.0001033387
2.6588097e-12
-0.00038429716
7.5104905e-05
3.3667385e-12
-0.00039604259
4.3795537e-05
4.02057e-12
-0.00040445912
9.633639e-06
4.8252432e-12
-0.00040900275
-2.6988692e-05
5.4318171e-12
-0.00040912909
-6.5475553e-05
6.1236811e-12
-0.00040433098
-0.00010500327
6.8191675e-12
-0.00039418235
-0.00014450482
7.39421e-12
-0.00037839194
-0.0001826719
7.811784e-12
-0.00035686359
-0.00021798024
8.0982622e-12
-0.00032975849
-0.00024874473
8.2312926e-12
-0.00029755202
-0.00027320959
8.1487677e-12
-0.00026107515
-0.00028967585
7.8532983e-12
-0.00022152798
-0.00029666224
7.4689777e-12
-0.00018045335
-0.00029308709
7.1254995e-12
-0.00013966196
-0.00027844829
6.7192854e-12
-0.00010110863
-0.00025296947
5.7594197e-12
-6.6730928e-05
-0.00021767817
6.281147e-12
-3.8273584e-05
-0.00017438866
1.2997575e-11
-1.7131148e-05
-0.00012557228
7.5434776e-12
-4.2383015e-06
-7.4139426e-05
-3.0045021e-11
-2.3321492e-05
3.9690792e-11
-3.4729218e-06
3.0977398e-05
-2.8386475e-11
-1.2616273e-05
8.3717526e-05
2.9682745e-11
-2.6286166e-05
0.00012756007
-1.5751811e-12
-4.3483227e-05
0.00016312232
-7.0006807e-12
-6.3357159e-05
0.00019118023
-2.2558541e-12
-8.520337e-05
0.00021256254
-1.8892932e-12
-0.00010845221
0.00022808684
-2.3725976e-12
-0.00013265291
0.00023851096
-2.3502459e-12
-0.00015745431
0.00024449772
-2.0685262e-12
-0.00018258396
0.00024659287
-1.9263115e-12
-0.00020782687
0.00024521448
-1.6615089e-12
-0.00023300481
0.00024065175
-1.328172e-12
-0.00025795665
0.00023307156
-1.0347606e-12
-0.00028252004
0.00022253139
-5.9279363e-13
-0.00030651468
0.00020899734
-5.3605077e-14
-0.00032972733
0.00019236666
5.2925829e-13
-0.00035189874
0.00017249421
1.1358511e-12
-0.00037271295
0.00014922247
1.8276171e-12
-0.00039178959
0.00012241533
2.5894512e-12
-0.00040867985
9.199516e-05
3.3247034e-12
-0.00042286738
5.7983056e-05
4.0625285e-12
-0.00043377514
2.0541393e-05
4.8656419e-12
-0.0004407809
-1.9982933e-05
5.6072428e-12
-0.00044324022
-6.3016244e-05
6.4161843e-12
-0.00044052217
-0.00010772132
7.2380086e-12
-0.00043205636
-0.00015297065
7.9288228e-12
-0.00041739247
-0.0001973358
8.4624836e-12
-0.0003962712
-0.00023910152
8.8504286e-12
-0.0003687026
-0.00027631334
9.0345628e-12
-0.0003350445
-0.00030686769
8.9414646e-12
-0.00029606943
-0.00032865092
8.5779898e-12
-0.00025300418
-0.0003397275
8.0876881e-12
-0.00020752405
-0.00033856723
7.610197e-12
-0.00016168617
-0.00032428618
7.0062476e-12
-0.00011779494
-0.00029686071
5.7061682e-12
-7.8208228e-05
-0.00025726489
6.2541011e-12
-4.5112139e-05
-0.00020748477
1.421277e-11
-2.0308679e-05
-0.00015037575
7.7743252e-12
-5.0613981e-06
-8.9386672e-05
-3.7150137e-11
-2.8382935e-05
4.6105207e-11
-3.6204501e-06
3.4597876e-05