/*--------------------------------*- C++ -*----------------------------------*\
  =========                 |
  \\      /  F ield         | OpenFOAM: The Open Source CFD Toolbox
   \\    /   O peration     | Website:  https://openfoam.org
    \\  /    A nd           | Version:  7
     \\/     M anipulation  |
\*---------------------------------------------------------------------------*/
FoamFile
{
    version     2.0;
    format      ascii;
    class       volVectorField;
    location    "3";
    object      U;
}
// * * * * * * * * * * * * * * * * * * * * * * * * * * * * * * * * * * * * * //

dimensions      [0 1 -1 0 0 0 0];

internalField   nonuniform List<vector> 
16000
(
(4.5625441e-05 -4.5553874e-05 1.4710801e-07)
(9.7889191e-05 -3.0055131e-05 5.2692138e-06)
(4.835076e-05 1.4807853e-05 1.4810924e-05)
(-0.00012836642 5.9799995e-05 2.6316641e-05)
(-0.00042350012 9.7676688e-05 3.7465518e-05)
(-0.00081518654 0.00012651304 4.6892255e-05)
(-0.0012807795 0.00014695486 5.3678212e-05)
(-0.0017988754 0.00016036082 5.7282647e-05)
(-0.0023506555 0.00016805454 5.7420525e-05)
(-0.0029199806 0.00017111823 5.3967879e-05)
(-0.0034929854 0.00017035581 4.6899977e-05)
(-0.0040575451 0.00016630965 3.6254367e-05)
(-0.00460274 0.00015929809 2.2109058e-05)
(-0.005118384 0.00014946377 4.5754537e-06)
(-0.0055946623 0.00013682596 -1.6199417e-05)
(-0.0060218994 0.00012133449 -4.0025827e-05)
(-0.0063904738 0.00010292563 -6.6658815e-05)
(-0.0066908799 8.1575141e-05 -9.5784596e-05)
(-0.0069139404 5.7350216e-05 -0.000127008)
(-0.0070511527 3.0455793e-05 -0.00015984461)
(-0.0070951506 1.2711106e-06 -0.00019371479)
(-0.0070402439 -2.9631282e-05 -0.00022794668)
(-0.0068830156 -6.1450632e-05 -0.00026178645)
(-0.0066229257 -9.3187219e-05 -0.00029441839)
(-0.0062628374 -0.0001236603 -0.00032499506)
(-0.0058094325 -0.00015155715 -0.000352674)
(-0.0052734552 -0.00017550306 -0.00037666204)
(-0.0046697256 -0.0001941458 -0.00039626539)
(-0.0040168872 -0.00020625173 -0.00041093964)
(-0.0033368796 -0.00021079926 -0.00042033732)
(-0.002654139 -0.00020706178 -0.00042434929)
(-0.0019945676 -0.00019466881 -0.00042313503)
(-0.001384344 -0.00017364199 -0.00041714138)
(-0.00084862215 -0.00014440102 -0.00040711281)
(-0.00040991698 -0.0001077933 -0.00039410093)
(-8.5909266e-05 -6.5421136e-05 -0.00037945589)
(0.00011009685 -2.0584978e-05 -0.00036465918)
(0.0001764651 2.2948304e-05 -0.00035183181)
(0.00013453066 5.3034246e-05 -0.00034302499)
(4.5369832e-05 4.5233069e-05 -0.00031808238)
(3.1325158e-05 -9.8973966e-05 -4.7616754e-06)
(-2.1842471e-05 2.3277759e-05 3.7902443e-07)
(-0.00033020864 0.000245045 8.4529175e-06)
(-0.00091684063 0.00047238002 1.7646375e-05)
(-0.0017660219 0.00067254338 2.6482858e-05)
(-0.0028403212 0.00083356118 3.3822517e-05)
(-0.0040935241 0.0009539925 3.887111e-05)
(-0.0054782911 0.0010368959 4.1112807e-05)
(-0.0069500122 0.0010866474 4.023358e-05)
(-0.0084681164 0.0011075309 3.6063183e-05)
(-0.009996118 0.0011031473 2.8530035e-05)
(-0.011501055 0.0010762116 1.7632463e-05)
(-0.012952682 0.0010285627 3.4199132e-06)
(-0.014322664 0.00096129802 -1.4014836e-05)
(-0.015583918 0.00087498195 -3.4535044e-05)
(-0.016710197 0.00076989661 -5.7954894e-05)
(-0.017675982 0.00064631601 -8.4030055e-05)
(-0.018456696 0.00050478048 -0.00011244828)
(-0.019029236 0.0003463592 -0.00014281907)
(-0.019372817 0.00017288527 -0.00017466832)
(-0.019470062 -1.2861385e-05 -0.00020743451)
(-0.019308228 -0.00020702712 -0.00024047585)
(-0.01888057 -0.00040465086 -0.00027307629)
(-0.018187682 -0.00059972433 -0.0003044706)
(-0.017238623 -0.00078535854 -0.00033387033)
(-0.016051781 -0.00095406194 -0.00036049951)
(-0.014655323 -0.0010981251 -0.000383636)
(-0.013087105 -0.0012100835 -0.00040265734)
(-0.011393966 -0.0012832298 -0.00041708723)
(-0.0096303839 -0.0013121301 -0.0004266378)
(-0.0078564847 -0.0012930999 -0.00043124571)
(-0.0061354739 -0.0012246017 -0.00043109697)
(-0.0045305837 -0.001107551 -0.00042664046)
(-0.0031015997 -0.00094555927 -0.00041858864)
(-0.0019008755 -0.00074527924 -0.00040790797)
(-0.00096878924 -0.00051744263 -0.00039579227)
(-0.00032934813 -0.00027924087 -0.00038359698)
(1.8260052e-05 -5.4862459e-05 -0.0003728558)
(0.00011434712 0.00011046485 -0.00036529631)
(5.3769762e-05 0.0001339366 -0.00033718385)
(-1.2985007e-05 -5.1978684e-05 -1.4307423e-05)
(-0.00024708767 0.00033172727 -7.4798923e-06)
(-0.0008911307 0.00087958874 7.2189485e-07)
(-0.0019264762 0.0014361301 8.8923819e-06)
(-0.0033215151 0.0019336692 1.6366622e-05)
(-0.0050282885 0.0023429087 2.2311577e-05)
(-0.0069859352 0.002655757 2.6125722e-05)
(-0.0091301441 0.0028751289 2.741101e-05)
(-0.011398439 0.0030085155 2.5908771e-05)
(-0.01373227 0.0030644821 2.1466694e-05)
(-0.016077587 0.0030508912 1.401143e-05)
(-0.018384558 0.0029740993 3.5282666e-06)
(-0.020606848 0.0028387543 -9.9515374e-06)
(-0.022700789 0.0026479724 -2.635524e-05)
(-0.024624689 0.0024037574 -4.5567211e-05)
(-0.026338411 0.002107564 -6.7424594e-05)
(-0.027803337 0.0017609396 -9.1708599e-05)
(-0.028982751 0.0013661892 -0.00011813622)
(-0.029842637 0.00092700591 -0.00014635126)
(-0.030352885 0.00044903173 -0.00017591941)
(-0.030488807 -5.9705496e-05 -0.00020632676)
(-0.030232865 -0.0005885064 -0.00023698326)
(-0.029576527 -0.0011239674 -0.00026723348)
(-0.028522047 -0.0016501437 -0.00029637575)
(-0.027083996 -0.002149009 -0.00032368791)
(-0.02529038 -0.0026011756 -0.0003484596)
(-0.023183189 -0.0029868624 -0.00037003195)
(-0.020818177 -0.0032870625 -0.00038784022)
(-0.018263804 -0.003484831 -0.00040145556)
(-0.015599263 -0.0035665993 -0.00041062434)
(-0.012911591 -0.0035234108 -0.00041530053)
(-0.010291931 -0.0033520009 -0.00041566607)
(-0.0078310595 -0.0030556945 -0.00041213843)
(-0.0056142729 -0.0026451907 -0.0004053644)
(-0.0037157261 -0.0021394952 -0.00039619878)
(-0.0021922981 -0.0015676443 -0.00038566635)
(-0.0010768386 -0.00097197099 -0.00037491538)
(-0.00036942761 -0.00041262918 -0.00036517491)
(-2.8887551e-05 2.0776466e-05 -0.00035762123)
(2.8802568e-05 0.00018100652 -0.00032851681)
(-6.0138698e-05 0.00012658662 -2.6175287e-05)
(-0.00049317522 0.00093365058 -1.6582855e-05)
(-0.0015011832 0.0019251588 -6.9720449e-06)
(-0.0030017828 0.0029062961 1.3896636e-06)
(-0.0049371876 0.0037817949 8.5553067e-06)
(-0.0072465918 0.0045062494 1.3950781e-05)
(-0.0098564365 0.0050644058 1.7161105e-05)
(-0.012689377 0.0054581768 1.7929233e-05)
(-0.015669736 0.0056976138 1.6084623e-05)
(-0.018725576 0.005795451 1.1522879e-05)
(-0.02178944 0.0057640449 4.1925403e-06)
(-0.024798272 0.005613836 -5.9170364e-06)
(-0.027692826 0.0053528267 -1.8782499e-05)
(-0.03041693 0.004986748 -3.4347431e-05)
(-0.032916858 0.004519683 -5.2518424e-05)
(-0.035140991 0.0039549789 -7.3159184e-05)
(-0.037039892 0.0032963135 -9.6081137e-05)
(-0.038566851 0.0025488214 -0.0001210339)
(-0.03967891 0.0017201731 -0.00014769687)
(-0.040338339 0.00082152248 -0.00017567319)
(-0.040514472 -0.00013175842 -0.00020448704)
(-0.040185791 -0.001119645 -0.00023358678)
(-0.039342141 -0.0021173565 -0.00026235426)
(-0.037986861 -0.0030957448 -0.000290122)
(-0.036138604 -0.0040221067 -0.00031619851)
(-0.033832671 -0.0048614681 -0.00033989993)
(-0.031121653 -0.0055783002 -0.00036058753)
(-0.028075173 -0.0061385843 -0.00037771071)
(-0.024778584 -0.0065120982 -0.00039084846)
(-0.021330552 -0.0066747677 -0.0003997485)
(-0.017839492 -0.0066109081 -0.00040435753)
(-0.014418939 -0.0063152188 -0.00040483966)
(-0.011181979 -0.0057944593 -0.0004015809)
(-0.0082349159 -0.0050688739 -0.00039517727)
(-0.0056704424 -0.0041736432 -0.00038640412)
(-0.0035605818 -0.0031610068 -0.00037617039)
(-0.0019489613 -0.0021038705 -0.00036548437)
(-0.00084233994 -0.001101099 -0.00035539688)
(-0.00021157361 -0.00028731932 -0.00034660147)
(-4.7976371e-06 0.00013743152 -0.0003157772)
(-0.00010396233 0.00043785675 -3.8078453e-05)
(-0.00073296681 0.001837462 -2.5410701e-05)
(-0.0021063499 0.0033861332 -1.387566e-05)
(-0.0040709604 0.0048727695 -4.7554173e-06)
(-0.006536226 0.0061866409 2.6355866e-06)
(-0.0094249205 0.0072721197 7.9391382e-06)
(-0.012650057 0.0081093002 1.0912676e-05)
(-0.016122521 0.0086998664 1.1441283e-05)
(-0.019755872 0.0090565109 9.4503222e-06)
(-0.023467756 0.0091960577 4.8943387e-06)
(-0.027180401 0.0091353273 -2.2464893e-06)
(-0.030820508 0.0088889232 -1.1971283e-05)
(-0.034318697 0.0084683919 -2.4260543e-05)
(-0.037608824 0.0078823689 -3.9072919e-05)
(-0.040627414 0.0071374025 -5.6338437e-05)
(-0.043313401 0.0062392272 -7.5949682e-05)
(-0.045608314 0.0051942864 -9.7751606e-05)
(-0.047456941 0.0040113507 -0.00012152991)
(-0.04880854 0.0027030867 -0.00014700071)
(-0.04961853 0.0012874383 -0.00017380358)
(-0.049850582 -0.00021132098 -0.0002014959)
(-0.049478966 -0.0017619976 -0.00022955549)
(-0.048491097 -0.0033262508 -0.00025738816)
(-0.046890015 -0.0048592793 -0.00028434393)
(-0.044696477 -0.0063110106 -0.00030973984)
(-0.041950576 -0.0076280177 -0.00033289174)
(-0.038712575 -0.0087560958 -0.00035315382)
(-0.03506273 -0.0096433668 -0.0003699614)
(-0.031099915 -0.010243737 -0.00038287452)
(-0.026938935 -0.010520484 -0.00039161841)
(-0.022706485 -0.010449712 -0.0003961152)
(-0.018535809 -0.01002345 -0.00039650199)
(-0.014560247 -0.0092522424 -0.00039313298)
(-0.010905915 -0.008167228 -0.0003865635)
(-0.0076839881 -0.0068219295 -0.00037751206)
(-0.0049830446 -0.0052943365 -0.00036680935)
(-0.0028607836 -0.0036900082 -0.00035537796)
(-0.0013357923 -0.0021461957 -0.00034416363)
(-0.0003978055 -0.00083867495 -0.00033345804)
(-3.6678197e-05 -6.8476988e-06 -0.00030049623)
(-0.00014287524 0.00087198867 -4.8535636e-05)
(-0.00095697949 0.0030346558 -3.264246e-05)
(-0.0026841232 0.0052569843 -1.8935752e-05)
(-0.0051006839 0.0073290371 -8.7071959e-06)
(-0.008080602 0.0091365295 -7.2357859e-07)
(-0.01152753 0.010621097 4.8304188e-06)
(-0.01533973 0.011762479 7.8624804e-06)
(-0.019416389 0.012564367 8.3900783e-06)
(-0.023661439 0.013043154 6.4323734e-06)
(-0.027983942 0.013220208 2.0049146e-06)
(-0.032298018 0.013116991 -4.8772721e-06)
(-0.036522456 0.012752347 -1.4199108e-05)
(-0.040580037 0.012141427 -2.5943435e-05)
(-0.044396789 0.011295858 -4.0083467e-05)
(-0.047901417 0.010224795 -5.6573859e-05)
(-0.051025063 0.0089365715 -7.5338589e-05)
(-0.053701535 0.0074407084 -9.6258221e-05)
(-0.055868066 0.0057500573 -0.00011915681)
(-0.057466632 0.003882892 -0.00014378877)
(-0.058445814 0.0018647765 -0.00016982873)
(-0.058763155 -0.00027004001 -0.00019686216)
(-0.058387641 -0.0024779573 -0.00022438657)
(-0.057302658 -0.0047052834 -0.00025182265)
(-0.055508919 -0.0068895681 -0.00027852274)
(-0.053026834 -0.008961049 -0.00030379245)
(-0.049898569 -0.010845226 -0.00032692417)
(-0.04618925 -0.01246638 -0.00034723865)
(-0.041987053 -0.013751845 -0.00036413043)
(-0.037401957 -0.014636808 -0.0003771149)
(-0.032562979 -0.015069336 -0.00038587227)
(-0.027613813 -0.015015269 -0.00039028232)
(-0.022706917 -0.014462633 -0.00039044451)
(-0.017996254 -0.013425289 -0.00038668057)
(-0.013629041 -0.011945683 -0.00037951595)
(-0.009737157 -0.010096812 -0.00036963659)
(-0.0064288612 -0.0079838471 -0.00035783334)
(-0.0037798379 -0.0057460021 -0.0003449968)
(-0.0018246998 -0.0035583967 -0.00033204064)
(-0.00057538329 -0.0016349339 -0.00031894985)
(-6.432156e-05 -0.00024692777 -0.00028371231)
(-0.00017740854 0.0014189384 -5.6361181e-05)
(-0.0011640124 0.0045099411 -3.7170396e-05)
(-0.003227973 0.0075223269 -2.1204725e-05)
(-0.0060791175 0.010259469 -9.6658616e-06)
(-0.0095557462 0.012613782 -8.4879432e-07)
(-0.013540968 0.014531785 5.2008879e-06)
(-0.01791729 0.015998009 8.5188286e-06)
(-0.02257197 0.01702138 9.2409031e-06)
(-0.027399859 0.017623878 7.4729507e-06)
(-0.032302604 0.01783244 3.2877809e-06)
(-0.037187804 0.017673671 -3.2660156e-06)
(-0.041968149 0.017170846 -1.2159663e-05)
(-0.046560443 0.016342749 -2.3378813e-05)
(-0.050884672 0.015203931 -3.6912792e-05)
(-0.054863305 0.013766047 -5.274261e-05)
(-0.058420991 0.012039925 -7.0825902e-05)
(-0.061484755 0.010038087 -9.1081432e-05)
(-0.063984764 0.0077774628 -0.00011337378)
(-0.065855686 0.0052820503 -0.00013749752)
(-0.067038709 0.0025853224 -0.00016316118)
(-0.067484252 -0.00026797475 -0.00018997259)
(-0.067154207 -0.0032210328 -0.00021745245)
(-0.066025601 -0.0062035746 -0.00024501882)
(-0.06409432 -0.0091338747 -0.00027201549)
(-0.0613775 -0.011920381 -0.00029771918)
(-0.057916353 -0.01446494 -0.00032137736)
(-0.053777988 -0.016667313 -0.00034225332)
(-0.049056005 -0.018430732 -0.00035967496)
(-0.043869626 -0.019668215 -0.00037308654)
(-0.038361066 -0.020309282 -0.00038209879)
(-0.032691019 -0.020306558 -0.00038652942)
(-0.027032252 -0.019641771 -0.00038642802)
(-0.021561535 -0.01833067 -0.00038208103)
(-0.016450347 -0.016426541 -0.00037399323)
(-0.011855189 -0.014022269 -0.00036284078)
(-0.0079083605 -0.011251197 -0.00034941234)
(-0.0047078656 -0.0082872597 -0.00033461882)
(-0.0023078901 -0.0053439446 -0.00031941083)
(-0.00074389535 -0.0026727543 -0.00030355953)
(-8.7998466e-05 -0.00057530582 -0.00026597265)
(-0.0002085608 0.0020694796 -6.0623004e-05)
(-0.0013559948 0.0062467619 -3.8054833e-05)
(-0.0037389715 0.010163595 -1.9839583e-05)
(-0.0070057793 0.013645126 -6.8967078e-06)
(-0.010960363 0.016598947 2.8933453e-06)
(-0.015464997 0.018983561 9.5992906e-06)
(-0.020386036 0.020793661 1.3366417e-05)
(-0.025598742 0.022047173 1.4434881e-05)
(-0.030989274 0.022774138 1.2987308e-05)
(-0.036452727 0.023008563 9.1476606e-06)
(-0.041891406 0.02278302 2.9942034e-06)
(-0.047213363 0.022125572 -5.4341366e-06)
(-0.052330971 0.021058663 -1.6128559e-05)
(-0.05715966 0.019599581 -2.9096832e-05)
(-0.061616987 0.017762141 -4.4348983e-05)
(-0.065622136 0.015559221 -6.1879657e-05)
(-0.069095993 0.013005848 -8.1649356e-05)
(-0.071961822 0.010122524 -0.00010356564)
(-0.074146602 0.0069385043 -0.00012746449)
(-0.075583146 0.0034947173 -0.00015308769)
(-0.07621321 -0.00015370672 -0.00018006657)
(-0.075989336 -0.0039352831 -0.00020796566)
(-0.074879392 -0.0077636521 -0.00023616963)
(-0.072871342 -0.011536423 -0.00026400362)
(-0.069975615 -0.015138144 -0.00029070453)
(-0.066229025 -0.018444308 -0.00031545684)
(-0.061697488 -0.021326791 -0.00033744334)
(-0.056477438 -0.023660766 -0.00035589859)
(-0.050695622 -0.025332748 -0.00037016783)
(-0.044506888 -0.026249279 -0.00037976534)
(-0.0380897 -0.026345601 -0.00038442345)
(-0.031639312 -0.025593624 -0.00038412505)
(-0.025358823 -0.024008445 -0.00037911424)
(-0.019448589 -0.021652872 -0.00036988065)
(-0.01409506 -0.01863961 -0.00035711079)
(-0.0094600479 -0.015131227 -0.00034162583)
(-0.0056688 -0.011338234 -0.00032440565)
(-0.0027985551 -0.0075147632 -0.00030649977)
(-0.00090911687 -0.0039524684 -0.00028754108)
(-0.00010912083 -0.00098698004 -0.00024748515)
(-0.00023721317 0.0028160414 -6.0550591e-05)
(-0.0015355299 0.0082298708 -3.4473592e-05)
(-0.0042209598 0.013162579 -1.4063967e-05)
(-0.007885066 0.017467202 3.1189462e-07)
(-0.012299359 0.021073472 1.1149165e-05)
(-0.017305781 0.023958257 1.8614384e-05)
(-0.022754724 0.026131662 2.2948095e-05)
(-0.028509685 0.027624601 2.4482813e-05)
(-0.03444861 0.028478003 2.346868e-05)
(-0.040460821 0.028734812 2.0073333e-05)
(-0.0464444 0.028434662 1.4398632e-05)
(-0.052304021 0.027610908 6.4896356e-06)
(-0.057948972 0.02628971 -3.6540856e-06)
(-0.063291441 0.0244908 -1.6062916e-05)
(-0.06824521 0.022229583 -3.0780149e-05)
(-0.072724867 0.019520211 -4.7841247e-05)
(-0.076645633 0.016379283 -6.7252695e-05)
(-0.079923875 0.012829854 -8.8969408e-05)
(-0.082478409 0.0089054203 -0.00011287129)
(-0.084232445 0.0046535582 -0.00013874781)
(-0.085115956 0.00013910909 -0.00016628155)
(-0.085070617 -0.0045531107 -0.00019498421)
(-0.084052952 -0.0093193993 -0.00022430072)
(-0.08203809 -0.014035803 -0.00025350919)
(-0.079025852 -0.018561252 -0.00028178629)
(-0.075044787 -0.022742081 -0.00030823863)
(-0.070155954 -0.026418445 -0.0003319462)
(-0.064455594 -0.029432704 -0.00035202235)
(-0.058076002 -0.031639402 -0.00036768189)
(-0.051184066 -0.032916279 -0.00037831035)
(-0.043977075 -0.033175495 -0.00038352461)
(-0.036675584 -0.032374091 -0.00038321716)
(-0.029513489 -0.030522647 -0.00037757649)
(-0.022725857 -0.027691213 -0.00036707747)
(-0.016535719 -0.024011865 -0.00035243247)
(-0.011141118 -0.019677786 -0.00033452589)
(-0.0067004618 -0.014939119 -0.00031445199)
(-0.0033181626 -0.010095083 -0.00029341605)
(-0.0010799152 -0.0054832082 -0.00027096774)
(-0.00012950448 -0.0014812765 -0.00022820957)
(-0.00026402131 0.0036526447 -5.5469472e-05)
(-0.0017049819 0.010446055 -2.5686779e-05)
(-0.0046782055 0.016502613 -3.1558428e-06)
(-0.0087226843 0.021708037 1.2647719e-05)
(-0.013579569 0.026020048 2.4568129e-05)
(-0.019071422 0.029439594 3.2859951e-05)
(-0.025033296 0.031997186 3.7849854e-05)
(-0.03131747 0.033740757 3.9952494e-05)
(-0.037794305 0.034725154 3.9477091e-05)
(-0.044348185 0.03500436 3.6628537e-05)
(-0.050874002 0.034626374 3.152662e-05)
(-0.057274245 0.033630476 2.4217126e-05)
(-0.063456378 0.032046616 1.4685529e-05)
(-0.069330569 0.029896579 2.8745875e-06)
(-0.074807906 0.027196579 -1.1296796e-05)
(-0.079799192 0.023960928 -2.7910334e-05)
(-0.084214403 0.02020642 -4.702487e-05)
(-0.087962922 0.015957097 -6.865067e-05)
(-0.090954614 0.011249067 -9.2722194e-05)
(-0.093101736 0.0061350589 -0.00011907451)
(-0.09432162 0.00068823665 -0.00014742482)
(-0.094541193 -0.0049952697 -0.00017733453)
(-0.093701148 -0.010793714 -0.00020821877)
(-0.091760894 -0.016561131 -0.0002393293)
(-0.088705074 -0.022129307 -0.00026978429)
(-0.084549196 -0.027312504 -0.00029859589)
(-0.079344999 -0.031914841 -0.00032471833)
(-0.073184742 -0.035740206 -0.00034711363)
(-0.066203592 -0.038604402 -0.00036482969)
(-0.058579381 -0.040348901 -0.00037708317)
(-0.050529059 -0.040855207 -0.00038333612)
(-0.042301466 -0.040058549 -0.00038335701)
(-0.034166387 -0.037959433 -0.000377256)
(-0.026400443 -0.034631655 -0.00036548514)
(-0.019271233 -0.030225707 -0.00034879162)
(-0.013021266 -0.02496715 -0.00032814934)
(-0.0078495269 -0.019150152 -0.00030480997)
(-0.0038930776 -0.013125736 -0.0002801893)
(-0.0012667379 -0.007286062 -0.00025378918)
(-0.00015107523 -0.0020628299 -0.00020794041)
(-0.00028943084 0.0045745467 -4.4762845e-05)
(-0.0018661787 0.012884053 -1.1011677e-05)
(-0.0051143529 0.020168822 1.3563257e-05)
(-0.0095238068 0.026351375 3.0772348e-05)
(-0.014807303 0.031422555 4.3792121e-05)
(-0.020769187 0.035412584 5.2959491e-05)
(-0.027230048 0.038377113 5.8681111e-05)
(-0.034031718 0.040385087 6.1447207e-05)
(-0.041037779 0.041508399 6.1619957e-05)
(-0.048128599 0.041814335 5.943525e-05)
(-0.055196953 0.041360714 5.502562e-05)
(-0.062144347 0.040193476 4.8432825e-05)
(-0.068877685 0.038346453 3.9623651e-05)
(-0.075306353 0.035843004 2.8509173e-05)
(-0.08133986 0.03269917 1.4964945e-05)
(-0.086886091 0.028927991 -1.1437892e-06)
(-0.091850301 0.024544642 -1.9936432e-05)
(-0.096134927 0.019572035 -4.1488671e-05)
(-0.099640341 0.014046558 -6.5801884e-05)
(-0.10226661 0.0080236016 -9.277225e-05)
(-0.10391635 0.0015824313 -0.00012216343)
(-0.10449895 -0.0051700944 -0.00015357769)
(-0.10393563 -0.012096487 -0.00018643338)
(-0.10216559 -0.01902873 -0.00021996163)
(-0.099153266 -0.025770039 -0.00025321789)
(-0.09489574 -0.032099672 -0.00028510851)
(-0.089430073 -0.037781004 -0.00031444023)
(-0.082839678 -0.042572925 -0.0003399909)
(-0.075258801 -0.046244341 -0.00036059866)
(-0.066874082 -0.048591122 -0.00037526122)
(-0.057922207 -0.049454328 -0.00038323376)
(-0.048682942 -0.048738075 -0.00038411296)
(-0.039467264 -0.046425044 -0.00037789369)
(-0.03060104 -0.042587603 -0.0003649848)
(-0.02240582 -0.037392829 -0.0003461681)
(-0.015178654 -0.031100594 -0.0003225278)
(-0.0091685631 -0.024054755 -0.00029551447)
(-0.0045527878 -0.016667092 -0.00026681016)
(-0.0014809523 -0.0093960381 -0.0002358874)
(-0.00017578879 -0.0027420961 -0.00018637802)
(-0.00031371289 0.0055778602 -2.7849514e-05)
(-0.0020203452 0.015534145 1.0193049e-05)
(-0.0055319872 0.024147857 3.6737222e-05)
(-0.010292177 0.031382168 5.5324265e-05)
(-0.015987044 0.037265727 6.9451631e-05)
(-0.022403892 0.041862867 7.9537347e-05)
(-0.029349841 0.04525891 8.6064854e-05)
(-0.036657177 0.04754775 8.9595729e-05)
(-0.044183625 0.048821512 9.0540673e-05)
(-0.051806548 0.049163163 8.9162272e-05)
(-0.059417746 0.048641926 8.5601848e-05)
(-0.066918998 0.04731122 7.9893259e-05)
(-0.074217967 0.045208875 7.1980491e-05)
(-0.081224585 0.042359282 6.1738082e-05)
(-0.087848009 0.038777157 4.8992265e-05)
(-0.09399425 0.03447256 3.3547582e-05)
(-0.09956457 0.029456835 1.521424e-05)
(-0.10445477 0.023749131 -6.1614084e-06)
(-0.10855548 0.017383177 -3.0662724e-05)
(-0.11175366 0.01041394 -5.8266031e-05)
(-0.11393531 0.0029237797 -8.8804915e-05)
(-0.11498977 -0.0049723911 -0.00012193347)
(-0.1148153 -0.013123269 -0.00015710107)
(-0.11332617 -0.021339629 -0.00019353069)
(-0.11046118 -0.029395438 -0.00023022165)
(-0.10619292 -0.037032348 -0.00026597049)
(-0.10053737 -0.043968146 -0.00029941791)
(-0.093562871 -0.0499095 -0.00032912331)
(-0.085397419 -0.054568918 -0.00035366541)
(-0.07623273 -0.057685336 -0.00037176102)
(-0.066323879 -0.059047019 -0.00038238981)
(-0.055983225 -0.058514781 -0.00038490933)
(-0.045567947 -0.056042867 -0.00037914207)
(-0.035461379 -0.051694631 -0.00036541553)
(-0.026049816 -0.045650408 -0.0003445328)
(-0.017697054 -0.03820602 -0.00031770149)
(-0.010714218 -0.029761702 -0.00028661155)
(-0.005328982 -0.020801091 -0.00025327116)
(-0.0017345861 -0.01186337 -0.00021712865)
(-0.00020563017 -0.0035356601 -0.00016318757)
(-0.00033699589 0.0066592005 -4.1724738e-06)
(-0.002168134 0.018387594 3.8537462e-05)
(-0.0059325348 0.028427354 6.6980374e-05)
(-0.011029783 0.036786032 8.6918539e-05)
(-0.017120866 0.043534506 0.00010216259)
(-0.023977124 0.048775821 0.0001132127)
(-0.031393173 0.052629369 0.00012062837)
(-0.039192689 0.055217899 0.00012504052)
(-0.047228508 0.056657015 0.00012690599)
(-0.055376059 0.057047851 0.00012651211)
(-0.063527363 0.056472729 0.00012400653)
(-0.071585788 0.054993466 0.00011941265)
(-0.079461171 0.052652046 0.00011264863)
(-0.087065436 0.049473326 0.0001035484)
(-0.094308803 0.045469431 9.1883145e-05)
(-0.1010967 0.040645514 7.7388661e-05)
(-0.10732745 0.03500654 5.9793186e-05)
(-0.11289094 0.028564799 3.8850188e-05)
(-0.11766831 0.021347819 1.4374678e-05)
(-0.12153297 0.013406336 -1.3713872e-05)
(-0.12435311 0.0048219273 -4.5348102e-05)
(-0.12599589 -0.0042861949 -8.0266524e-05)
(-0.1263334 -0.013755797 -0.00011797817)
(-0.12525056 -0.023378325 -0.00015772351)
(-0.12265496 -0.032898763 -0.00019846516)
(-0.11848803 -0.042019234 -0.00023889577)
(-0.11273722 -0.050407353 -0.00027747801)
(-0.1054481 -0.057709989 -0.00031251955)
(-0.096735091 -0.063572627 -0.00034228416)
(-0.086789078 -0.067663936 -0.0003651324)
(-0.075880007 -0.069704202 -0.00037967939)
(-0.064352709 -0.069495269 -0.00038495045)
(-0.052614545 -0.066948624 -0.00038051095)
(-0.041114577 -0.062107643 -0.00036654358)
(-0.030315871 -0.055160117 -0.00034383946)
(-0.020663538 -0.046438411 -0.00031373089)
(-0.012546005 -0.036406382 -0.00027818632)
(-0.0062550754 -0.025632641 -0.00023960672)
(-0.0020402628 -0.014754481 -0.00019741271)
(-0.00024264375 -0.0044665006 -0.00013805057)
(-0.00035929769 0.0078153832 2.6804044e-05)
(-0.002309711 0.021436097 7.4603173e-05)
(-0.0063163623 0.032995302 0.00010487883)
(-0.011736908 0.04254856 0.00012614565)
(-0.018208407 0.050213223 0.00014252159)
(-0.025487102 0.056135506 0.00015459129)
(-0.033355948 0.060473206 0.00016299184)
(-0.041630879 0.063381857 0.00016842365)
(-0.050160781 0.065003863 0.00017138967)
(-0.058820217 0.065461134 0.0001722021)
(-0.067502648 0.064850921 0.00017101465)
(-0.076114398 0.063244476 0.00016783964)
(-0.084568974 0.060688181 0.00016256817)
(-0.092781881 0.05720682 0.00015499084)
(-0.10066603 0.052808621 0.00014481918)
(-0.10812787 0.047491767 0.00013171225)
(-0.11506429 0.041252062 0.00011530446)
(-0.12136048 0.034091472 9.5238326e-05)
(-0.12688901 0.026027266 7.1203937e-05)
(-0.13151011 0.017101442 4.2985968e-05)
(-0.13507379 0.0073900454 1.0515529e-05)
(-0.13742379 -0.0029881132 -2.6072368e-05)
(-0.13840354 -0.013864037 -6.6393515e-05)
(-0.13786479 -0.025013059 -0.00010974508)
(-0.13567858 -0.036152762 -0.00015508867)
(-0.13174827 -0.046944992 -0.00020103431)
(-0.12602449 -0.057003433 -0.00024586624)
(-0.11852074 -0.06590779 -0.00028761278)
(-0.10932837 -0.073225231 -0.00032416442)
(-0.098628672 -0.078539057 -0.00035343696)
(-0.086699947 -0.08148342 -0.00037356812)
(-0.073916567 -0.0817815 -0.00038312562)
(-0.060738005 -0.079283014 -0.00038129621)
(-0.047686525 -0.073995718 -0.00036801805)
(-0.035314791 -0.066105241 -0.00034400735)
(-0.0241662 -0.055978859 -0.00031070359)
(-0.014725307 -0.044151127 -0.00027038917)
(-0.0073659471 -0.03129049 -0.00022593364)
(-0.0024112356 -0.018152767 -0.00017672243)
(-0.0002889786 -0.0055642792 -0.0001107151)
(-0.00038055842 0.0090431863 6.559297e-05)
(-0.0024448862 0.024671316 0.00011894279)
(-0.0066830271 0.037839465 0.00015098909)
(-0.012412474 0.048654643 0.00017356816)
(-0.019247251 0.057284754 0.00019109961)
(-0.026929084 0.063923569 0.00020425614)
(-0.035229884 0.068771619 0.00021375545)
(-0.043958542 0.072021222 0.00022036994)
(-0.052960829 0.073845035 0.00022465137)
(-0.062111444 0.074388503 0.000226939)
(-0.071306479 0.073765807 0.00022739511)
(-0.08045659 0.072058825 0.00022602299)
(-0.089480511 0.069318721 0.00022268783)
(-0.098299043 0.065569769 0.0002171366)
(-0.10682964 0.060815048 0.00020901846)
(-0.11498171 0.0550437 0.00019790897)
(-0.12265266 0.048239477 0.00018333677)
(-0.12972494 0.040390338 0.00016481502)
(-0.13606422 0.031498866 0.00014188166)
(-0.14151896 0.021593243 0.00011415019)
(-0.14592178 0.010738427 8.1369588e-05)
(-0.14909293 -0.00095292353 4.3494542e-05)
(-0.15084603 -0.013310381 7.3724899e-07)
(-0.15099689 -0.026098137 -4.6313049e-05)
(-0.14937547 -0.039009674 -9.6674717e-05)
(-0.14584045 -0.051667578 -0.00014891802)
(-0.14029685 -0.06362941 -0.00020116772)
(-0.13271547 -0.074401382 -0.00025115828)
(-0.12315264 -0.083461157 -0.0002963516)
(-0.11176812 -0.090290353 -0.00033412004)
(-0.098838075 -0.094416024 -0.00036198635)
(-0.084759453 -0.095458543 -0.00037789693)
(-0.070042353 -0.093181113 -0.00038049066)
(-0.055287673 -0.087533982 -0.00036931141)
(-0.041150452 -0.078685347 -0.0003448934)
(-0.028291497 -0.067031855 -0.00030873609)
(-0.017314323 -0.053184462 -0.000263462)
(-0.0086977328 -0.037927602 -0.00021249485)
(-0.0028614665 -0.022159259 -0.00015517777)
(-0.00034694438 -0.0068656828 -8.1049569e-05)
(-0.00040067582 0.010339192 0.0001126788)
(-0.0025732848 0.028084565 0.00017207635)
(-0.0070316603 0.042946957 0.00020583492)
(-0.013054634 0.055087913 0.00022971598)
(-0.020233704 0.064729778 0.00024843435)
(-0.028296277 0.072118206 0.00026275562)
(-0.037003511 0.077500863 0.00027348288)
(-0.046157709 0.081110984 0.00028146533)
(-0.055602175 0.083155108 0.00028730883)
(-0.065212619 0.083805184 0.00029138503)
(-0.074888863 0.08319452 0.00029387024)
(-0.084547233 0.081417027 0.00029476406)
(-0.094113262 0.078529231 0.00029391007)
(-0.10351485 0.074554652 0.00029101458)
(-0.11267605 0.069490134 0.00028566447)
(-0.12151147 0.063313841 0.00027734819)
(-0.12992152 0.055994658 0.00026547823)
(-0.13778853 0.04750283 0.0002494198)
(-0.14497396 0.037821666 0.0002285301)
(-0.15131708 0.026960106 0.0002022106)
(-0.15663535 0.014965879 0.00016997151)
(-0.16072696 0.0019388168 0.00013151066)
(-0.1633764 -0.011956289 8.6830416e-05)
(-0.16436272 -0.026478823 3.6282381e-05)
(-0.16347152 -0.041303667 -1.9283e-05)
(-0.16051121 -0.056017635 -7.8465772e-05)
(-0.15533268 -0.070122445 -0.00013927857)
(-0.14785247 -0.083046609 -0.00019917097)
(-0.13807785 -0.094168355 -0.00025513407)
(-0.12613146 -0.1028511 -0.0003038956)
(-0.11227209 -0.10849162 -0.00034220381)
(-0.096906927 -0.11057881 -0.00036717795)
(-0.080590044 -0.10875794 -0.00037668103)
(-0.064002575 -0.1028918 -0.00036964581)
(-0.047913229 -0.093107866 -0.00034625424)
(-0.033120778 -0.07982031 -0.0003079716)
(-0.020374679 -0.063718995 -0.00025776612)
(-0.010287544 -0.045720901 -0.00019970946)
(-0.0034057161 -0.026893158 -0.00013309863)
(-0.00041907637 -0.0084148331 -4.9105308e-05)
(-0.00041954768 0.011699734 0.00016850945)
(-0.0026945686 0.031666715 0.00023448618)
(-0.0073614912 0.048304088 0.00026990294)
(-0.013661618 0.061830452 0.0002950805)
(-0.021163929 0.072526237 0.00031502166)
(-0.02958122 0.080693298 0.00033059043)
(-0.038663768 0.086630964 0.00034268249)
(-0.048207407 0.090617737 0.00035223129)
(-0.058053382 0.092897911 0.00035990485)
(-0.068079094 0.093673151 0.00036611623)
(-0.078189067 0.093098359 0.00037106475)
(-0.08830654 0.091281133 0.00037475532)
(-0.098365371 0.088284215 0.00037701853)
(-0.1083024 0.084130403 0.00037752713)
(-0.11805044 0.078809519 0.00037581022)
(-0.12753188 0.072287101 0.00037126884)
(-0.13665307 0.064514634 0.0003631927)
(-0.14529953 0.055441168 0.0003507831)
(-0.1533322 0.045026262 0.00033318839)
(-0.16058501 0.033254119 0.00030955493)
(-0.16686416 0.020148743 0.00027909697)
(-0.17194956 0.0057897213 0.00024118791)
(-0.17559913 -0.0096720546 0.00019548124)
(-0.17755639 -0.025999356 0.00014202596)
(-0.17756205 -0.042856435 8.1417477e-05)
(-0.17537047 -0.059800864 1.491525e-05)
(-0.17077108 -0.076282243 -5.5467788e-05)
(-0.16361464 -0.09165061 -0.0001269421)
(-0.15384366 -0.10517764 -0.00019601368)
(-0.14152464 -0.11609338 -0.00025867566)
(-0.12687849 -0.12364019 -0.00031072969)
(-0.11030355 -0.12714278 -0.00034822133)
(-0.092383992 -0.12608974 -0.00036794228)
(-0.07387659 -0.12021658 -0.00036791189)
(-0.055671337 -0.10957581 -0.00034770147)
(-0.038725533 -0.094577682 -0.00030857561)
(-0.023965421 -0.075987494 -0.00025381495)
(-0.012172978 -0.054870174 -0.00018823279)
(-0.0040596041 -0.032492165 -0.00011108168)
(-0.00050820781 -0.010263766 -1.5193628e-05)
(-0.00043712406 0.013120979 0.00023348757)
(-0.0028087173 0.035408395 0.00030661262)
(-0.0076725234 0.053896565 0.00034363939)
(-0.014232843 0.068862854 0.00037010971)
(-0.022035468 0.080649135 0.00039130685)
(-0.030777658 0.089617827 0.00040819989)
(-0.040198168 0.096124676 0.00042178655)
(-0.050086097 0.1004981 0.00043309541)