/*--------------------------------*- C++ -*----------------------------------*\
  =========                 |
  \\      /  F ield         | OpenFOAM: The Open Source CFD Toolbox
   \\    /   O peration     | Website:  https://openfoam.org
    \\  /    A nd           | Version:  7
     \\/     M anipulation  |
\*---------------------------------------------------------------------------*/
FoamFile
{
    version     2.0;
    format      ascii;
    class       volVectorField;
    location    "3";
    object      U_0;
}
// * * * * * * * * * * * * * * * * * * * * * * * * * * * * * * * * * * * * * //

dimensions      [0 1 -1 0 0 0 0];

internalField   nonuniform List<vector> 
16000
(
(4.530687e-05 -4.575187e-05 -3.2215829e-07)
(9.7245912e-05 -3.0039885e-05 4.5676496e-06)
(4.7827106e-05 1.4823394e-05 1.396261e-05)
(-0.00012875764 5.9782425e-05 2.5353058e-05)
(-0.00042363539 9.7613261e-05 3.641299e-05)
(-0.00081495346 0.00012640878 4.5767939e-05)
(-0.0012800688 0.00014681756 5.2494771e-05)
(-0.0017975953 0.00016019713 5.6049975e-05)
(-0.0023487341 0.00016787078 5.6146194e-05)
(-0.002917362 0.00017091924 5.2657759e-05)
(-0.003489631 0.00017014619 4.555985e-05)
(-0.0040534338 0.00016609464 3.4888968e-05)
(-0.0045978672 0.00015908256 2.072358e-05)
(-0.0051127668 0.00014925316 3.1755473e-06)
(-0.0055883402 0.00013662759 -1.7609019e-05)
(-0.0060149348 0.00012115646 -4.1440118e-05)
(-0.0063829554 0.00010277552 -6.8072603e-05)
(-0.0066829257 8.1461406e-05 -9.7193449e-05)
(-0.006905694 5.7281586e-05 -0.00012840939)
(-0.0070427793 3.0439863e-05 -0.00016123588)
(-0.007086836 1.3138415e-06 -0.00019509419)
(-0.0070321868 -2.9527159e-05 -0.00022931442)
(-0.0068754189 -6.1285057e-05 -0.0002631446)
(-0.0066159855 -9.2962709e-05 -0.00029577151)
(-0.0062567293 -0.0001233838 -0.00032634816)
(-0.0058043031 -0.00015124002 -0.00035403265)
(-0.0052694108 -0.00017516034 -0.00037803347)
(-0.0046668214 -0.00019379593 -0.0003976576)
(-0.0040151212 -0.00020591444 -0.00041236067)
(-0.0033361874 -0.00021049454 -0.00042179502)
(-0.0026543942 -0.00020680881 -0.00042584939)
(-0.0019955906 -0.00019448488 -0.00042468103)
(-0.0013859137 -0.00017353918 -0.00041873497)
(-0.00085049427 -0.00014438302 -0.00040875355)
(-0.00041183511 -0.00010785197 -0.00039578591)
(-8.7578583e-05 -6.5547232e-05 -0.00038118053)
(0.00010882852 -2.0812298e-05 -0.00036640617)
(0.0001756647 2.271107e-05 -0.00035359712)
(0.00013422848 5.2864652e-05 -0.00034479433)
(4.5331304e-05 4.5192639e-05 -0.00031972948)
(3.1190521e-05 -9.9210394e-05 -5.4583199e-06)
(-2.21812e-05 2.3316848e-05 -4.62951e-07)
(-0.00033044917 0.00024495955 7.5002413e-06)
(-0.00091664592 0.00047206476 1.6594939e-05)
(-0.0017650469 0.00067196963 2.5349684e-05)
(-0.0028382442 0.00083274981 3.2622173e-05)
(-0.0040900585 0.00095297922 3.7614806e-05)
(-0.0054731945 0.0010357176 3.9808964e-05)
(-0.0069430909 0.0010853412 3.8889027e-05)
(-0.0084592245 0.0011061322 3.468265e-05)
(-0.009985157 0.0011016897 2.7118724e-05)
(-0.011487978 0.0010747306 1.6194915e-05)
(-0.012937494 0.0010270965 1.9605133e-06)
(-0.014305428 0.00095988803 -1.5491202e-05)
(-0.015564758 0.0008736739 -3.6023745e-05)
(-0.016689303 0.00076874001 -5.9451301e-05)
(-0.017653614 0.00064536135 -8.5530372e-05)
(-0.018433181 0.00050407857 -0.00011394887)
(-0.019004967 0.00034595856 -0.00014431769)
(-0.019348242 0.00017282597 -0.00017616259)
(-0.019445675 -1.2550213e-05 -0.00020892299)
(-0.019284549 -0.00020633074 -0.00024195956)
(-0.018858121 -0.00040357355 -0.00027455747)
(-0.018166965 -0.00059828981 -0.00030595295)
(-0.01722009 -0.00078361225 -0.00033535827)
(-0.016035807 -0.00095207252 -0.0003619978)
(-0.014642179 -0.0010959814 -0.00038515056)
(-0.013076936 -0.0012078894 -0.00040419519)
(-0.011386778 -0.0012810986 -0.00041865533)
(-0.0096260338 -0.0013101767 -0.00042824219)
(-0.0078546838 -0.001291433 -0.00043289058)
(-0.0061358042 -0.0012233143 -0.00043278494)
(-0.004532524 -0.00110671 -0.00042837252)
(-0.0031045648 -0.00094519414 -0.00042036357)
(-0.0019042575 -0.00074537105 -0.0004097223)
(-0.00097200041 -0.00051793617 -0.00039764062)
(-0.00033195059 -0.00028009485 -0.00038547067)
(1.6550256e-05 -5.5814416e-05 -0.00037474656)
(0.00011359393 0.00010969252 -0.00036719022)
(5.3616167e-05 0.00013364427 -0.00033893824)
(-1.3054218e-05 -5.1893689e-05 -1.5124001e-05)
(-0.00024713262 0.00033171726 -8.4107982e-06)
(-0.00089071684 0.00087907411 -2.8103418e-07)
(-0.0019251111 0.0014349588 7.816118e-06)
(-0.0033186936 0.0019318209 1.5223962e-05)
(-0.0050235384 0.0023404351 2.111185e-05)
(-0.0069788398 0.002652744 2.4877283e-05)
(-0.0091203493 0.0028716738 2.6119755e-05)
(-0.01138566 0.0030047159 2.4580123e-05)
(-0.013716296 0.0030604365 2.0104861e-05)
(-0.016058281 0.0030466983 1.2620201e-05)
(-0.018361862 0.0029698616 2.1111334e-06)
(-0.020580786 0.0028345821 -1.1390449e-05)
(-0.022671479 0.0026439846 -2.7811552e-05)
(-0.024592342 0.0024000815 -4.7037542e-05)
(-0.026303339 0.0021043352 -6.8905362e-05)
(-0.027765958 0.001758297 -9.3196629e-05)
(-0.028943582 0.0013642672 -0.00011962833)
(-0.029802293 0.0009259282 -0.00014784538)
(-0.030312061 0.00044890099 -0.00017741422)
(-0.030448258 -5.8818392e-05 -0.00020782141)
(-0.030193384 -0.00058656876 -0.00023847813)
(-0.029538907 -0.0011209954 -0.00026873061)
(-0.028487046 -0.001646208 -0.00029787822)
(-0.027052298 -0.0021442364 -0.000325199)
(-0.025262558 -0.0025957479 -0.00034998375)
(-0.023159663 -0.0029810113 -0.00037157464)
(-0.020799186 -0.0032810582 -0.00038940656)
(-0.018249388 -0.0034789674 -0.00040305114)
(-0.015589246 -0.0035611739 -0.00041225464)
(-0.012905592 -0.0035187027 -0.0004169694)
(-0.010289381 -0.003348248 -0.00041737542)
(-0.0078312388 -0.0030530699 -0.00041388868)
(-0.0056163623 -0.0026437797 -0.00040715433)
(-0.0037188693 -0.002139274 -0.00039802505)
(-0.0021956786 -0.0015684741 -0.00038752366)
(-0.0010797837 -0.00097359739 -0.0003767965)
(-0.00037146528 -0.00041459143 -0.00036707129)
(-2.9839012e-05 1.9055038e-05 -0.00035952192)
(2.8596508e-05 0.00018021383 -0.00033027514)
(-6.0140592e-05 0.00012669254 -2.7066996e-05)
(-0.00049286545 0.00093322817 -1.7579712e-05)
(-0.0014999025 0.0019236836 -8.0195337e-06)
(-0.0029988811 0.0029035867 2.8769309e-07)
(-0.0049320317 0.0037778513 7.4010472e-06)
(-0.0072385941 0.0045011724 1.2748489e-05)
(-0.0098450776 0.0050583477 1.5916307e-05)
(-0.012674221 0.005451312 1.6646586e-05)
(-0.015650433 0.0056901223 1.4767582e-05)
(-0.018701868 0.0057875163 1.0174607e-05)
(-0.021761167 0.0057558562 2.816289e-06)
(-0.024765374 0.0056055914 -7.318273e-06)
(-0.027655355 0.0053447377 -2.0205593e-05)
(-0.030375056 0.0049790421 -3.5788942e-05)
(-0.032870877 0.0045126039 -5.397566e-05)
(-0.035091329 0.0039487803 -7.4629199e-05)
(-0.03698711 0.0032912529 -9.7561072e-05)
(-0.03851164 0.0025451471 -0.00012252146)
(-0.03962208 0.0017181091 -0.00014919037)
(-0.040280803 0.00082125369 -0.00017717109)
(-0.04045722 -0.00013010597 -0.00020598902)
(-0.040129855 -0.0011160204 -0.00023509299)
(-0.039288556 -0.0021117953 -0.00026386572)
(-0.037936618 -0.0030883793 -0.00029164144)
(-0.036092602 -0.0040131708 -0.00031772899)
(-0.03379167 -0.0048512941 -0.0003414449)
(-0.031086231 -0.0055673075 -0.00036215162)
(-0.028045683 -0.006127261 -0.00037929884)
(-0.024755132 -0.0065009741 -0.00039246597)
(-0.021312979 -0.0066643791 -0.00040140022)
(-0.017827381 -0.0066017598 -0.00040604691)
(-0.014411639 -0.0063077425 -0.00040656893)
(-0.011178641 -0.0057889735 -0.00040335077)
(-0.0082345555 -0.005065545 -0.00039698623)
(-0.0056720154 -0.0041724525 -0.00038824859)
(-0.0035630737 -0.0031617272 -0.00037804534)
(-0.0019514907 -0.0021060472 -0.00036738327)
(-0.0008442428 -0.0011040166 -0.00035731164)
(-0.00021252351 -0.00029003153 -0.00034852122)
(-5.0201394e-06 0.00013607818 -0.00031755488)
(-0.00010389058 0.00043775459 -3.90139e-05)
(-0.00073225878 0.001836158 -2.6450889e-05)
(-0.0021040738 0.003383053 -1.4956094e-05)
(-0.004066296 0.0048677376 -5.8787272e-06)
(-0.0065284179 0.006179701 1.4701302e-06)
(-0.0094132822 0.0072634444 6.7338571e-06)
(-0.01263399 0.008099126 9.6704764e-06)
(-0.016101524 0.0086884594 1.0165044e-05)
(-0.019729546 0.0090441505 8.1424989e-06)
(-0.02343581 0.0091830308 3.5571296e-06)
(-0.02714266 0.0091219325 -3.6105611e-06)
(-0.030776917 0.008875476 -1.3360089e-05)
(-0.034269335 0.0084552308 -2.5671757e-05)
(-0.03755391 0.0078698566 -4.0503852e-05)
(-0.040567318 0.007125925 -5.7786749e-05)
(-0.043248654 0.0062291845 -7.7413384e-05)
(-0.045539602 0.0051860801 -9.9228441e-05)
(-0.047385108 0.0040053675 -0.00012301774)
(-0.048734575 0.0026996745 -0.00014849836)
(-0.04954354 0.0012868808 -0.00017530917)
(-0.049775772 -0.00020883207 -0.00020300839)
(-0.049405591 -0.0017563896 -0.00023107548)
(-0.048420416 -0.0033175809 -0.00025891646)
(-0.046823244 -0.0048477499 -0.00028588208)
(-0.044634731 -0.0062969778 -0.00031129002)
(-0.041894816 -0.0076119887 -0.00033445733)
(-0.038663553 -0.0087387102 -0.00035473889)
(-0.035020945 -0.0096253681 -0.00037157041)
(-0.031065579 -0.010225933 -0.00038451271)
(-0.026911954 -0.010503694 -0.00039329095)
(-0.02268646 -0.010434712 -0.00039782593)
(-0.018522058 -0.010010911 -0.00039825313)
(-0.014551846 -0.00924267 -0.00039492504)
(-0.010901761 -0.0081609026 -0.00038839494)
(-0.007682884 -0.0068188613 -0.0003793799)
(-0.0049837945 -0.0052942265 -0.00036870912)
(-0.0028623025 -0.0036922206 -0.00035730334)
(-0.0013372091 -0.0021497386 -0.00034610678)
(-0.00039859985 -0.00084221164 -0.00033540835)
(-3.6882148e-05 -8.7047936e-06 -0.00030230506)
(-0.00014272801 0.00087144823 -4.949472e-05)
(-0.00095585144 0.0030319546 -3.3709372e-05)
(-0.0026807808 0.0052515804 -2.0038598e-05)
(-0.0050941262 0.0073208173 -9.8460696e-06)
(-0.0080699517 0.0091256202 -1.8985432e-06)
(-0.011512008 0.010607766 3.6212389e-06)
(-0.015318668 0.011747066 6.6209184e-06)
(-0.019389233 0.012547247 7.1177852e-06)
(-0.023627752 0.013024719 5.130955e-06)
(-0.027943407 0.013200863 6.7542651e-07)
(-0.032250447 0.013097161 -6.2332112e-06)
(-0.036467798 0.012732484 -1.5580165e-05)
(-0.040518391 0.012122016 -2.734769e-05)
(-0.044328417 0.01127742 -4.1509281e-05)
(-0.047826753 0.010207882 -5.8019567e-05)
(-0.050944721 0.0089217538 -7.6802551e-05)
(-0.053616314 0.0074285573 -9.7738865e-05)
(-0.055778942 0.0057411196 -0.00012065215)
(-0.057374749 0.003877661 -0.00014529722)
(-0.058352463 0.0018636536 -0.00017134778)
(-0.058669741 -0.00026677711 -0.00019839018)
(-0.058295631 -0.0024702145 -0.00022592533)
(-0.057213532 -0.0046931277 -0.00025337221)
(-0.055424118 -0.0068732738 -0.00028008372)
(-0.052947704 -0.0089411046 -0.00030536605)
(-0.049826292 -0.010822328 -0.00032851301)
(-0.046124787 -0.012441412 -0.00034884647)
(-0.041931085 -0.013725836 -0.00036576196)
(-0.037354848 -0.01461088 -0.00037877557)
(-0.032524748 -0.015044635 -0.00038756736)
(-0.027584129 -0.014992889 -0.00039201592)
(-0.022685114 -0.014443533 -0.00039221932)
(-0.017981373 -0.013410206 -0.00038849749)
(-0.013619895 -0.011935058 -0.00038137396)
(-0.0097324142 -0.01009072 -0.00037153308)
(-0.0064271499 -0.0079819485 -0.00035976414)
(-0.0037798632 -0.005747504 -0.00034695609)
(-0.0018253613 -0.003562035 -0.00033402112)
(-0.00057591912 -0.0016389786 -0.00032094135)
(-6.4489304e-05 -0.00024918014 -0.0002855643)
(-0.000177186 0.0014177294 -5.7332117e-05)
(-0.0011624575 0.0045053024 -3.8253686e-05)
(-0.0032235352 0.0075138416 -2.2323297e-05)
(-0.0060706065 0.01024715 -1.081709e-05)
(-0.0095421626 0.012597886 -2.0322027e-06)
(-0.013521444 0.014512704 3.9869339e-06)
(-0.017891092 0.015976206 7.2756743e-06)
(-0.022538497 0.016997352 7.969529e-06)
(-0.027358638 0.017598143 6.1738189e-06)
(-0.032253293 0.017805533 1.9611181e-06)
(-0.0371302 0.017646156 -4.6192504e-06)
(-0.041902199 0.017143327 -1.3538918e-05)
(-0.046486258 0.016315875 -2.4783079e-05)
(-0.050802542 0.0151784 -3.8341228e-05)
(-0.054773712 0.013742598 -5.4194079e-05)
(-0.058324618 0.012019322 -7.2299148e-05)
(-0.06138249 0.010021094 -9.2575412e-05)
(-0.063877695 0.0077648092 -0.00011488642)
(-0.065745096 0.0052743933 -0.00013902599)
(-0.066926048 0.0025832057 -0.00016470121)
(-0.067371129 -0.0002641176 -0.00019151897)
(-0.067042297 -0.0032111639 -0.00021901703)
(-0.06591659 -0.0061877119 -0.00024659738)
(-0.063989895 -0.0091123552 -0.00027360587)
(-0.061279257 -0.011893827 -0.00029932192)
(-0.057825727 -0.014434246 -0.00032299488)
(-0.053696181 -0.016633622 -0.00034388912)
(-0.048983927 -0.018395381 -0.00036133341)
(-0.043807839 -0.019632675 -0.00037477312)
(-0.038309754 -0.020275067 -0.00038381933)
(-0.032649967 -0.02027513 -0.0003882888)
(-0.027000856 -0.019614429 -0.00038822956)
(-0.021538838 -0.01830844 -0.00038392621)
(-0.016435098 -0.016410079 -0.00037588161)
(-0.011845936 -0.014011768 -0.00036477054)
(-0.0079035539 -0.011246321 -0.00035138004)
(-0.0047059846 -0.0082870942 -0.00033661937)
(-0.0023075752 -0.0053469747 -0.00032143727)
(-0.00074409385 -0.0026768705 -0.00030560231)
(-8.8118607e-05 -0.00057779785 -0.00026787898)
(-0.00020826494 0.0020673735 -6.1599429e-05)
(-0.0013540165 0.0062396385 -3.9149345e-05)
(-0.0037334407 0.010151258 -2.0970167e-05)
(-0.0069953155 0.013627784 -8.0588945e-06)
(-0.010943844 0.016577031 1.7012082e-06)
(-0.015441468 0.01895762 8.3788232e-06)
(-0.020354701 0.020764304 1.2118468e-05)
(-0.025558952 0.022015034 1.3159753e-05)
(-0.030940519 0.022739867 1.1684953e-05)
(-0.036394637 0.022972837 7.8177277e-06)
(-0.041823757 0.022746553 1.6363374e-06)
(-0.047136089 0.022089129 -6.8199823e-06)
(-0.052244181 0.021023071 -1.7541846e-05)
(-0.057063657 0.019565732 -3.05376e-05)
(-0.06151228 0.017730979 -4.581706e-05)
(-0.065509457 0.015531726 -6.3374159e-05)
(-0.068976298 0.012982999 -8.3168929e-05)
(-0.071836297 0.010105259 -0.00010510796)
(-0.074016641 0.006927665 -0.00012902645)
(-0.075450293 0.0034909959 -0.00015466127)
(-0.076079368 -0.00014987302 -0.00018162466)
(-0.075856384 -0.0039234928 -0.0002095676)
(-0.07474913 -0.0077440249 -0.00023778933)
(-0.072745762 -0.011509364 -0.00026563493)
(-0.069856589 -0.015104403 -0.00029234699)
(-0.066118267 -0.018404977 -0.00031711236)
(-0.061596485 -0.021283277 -0.00033911507)
(-0.05638737 -0.023614737 -0.00035759093)
(-0.050617303 -0.025286054 -0.00037188673)
(-0.044440717 -0.026203844 -0.00038151716)
(-0.038035626 -0.026303306 -0.00038621364)
(-0.031596838 -0.025556167 -0.00038595762)
(-0.025327027 -0.023977213 -0.00038099171)
(-0.019426185 -0.021628803 -0.00037180392)
(-0.014080482 -0.018623079 -0.00035907922)
(-0.009451562 -0.01512196 -0.00034363692)
(-0.0056646407 -0.011335244 -0.00032645506)
(-0.0027970696 -0.0075163234 -0.00030858081)
(-0.00090891203 -0.0039561184 -0.00028964524)
(-0.00010918506 -0.00098952298 -0.00024945688)
(-0.00023684678 0.0028128156 -6.1530799e-05)
(-0.0015331421 0.0082197261 -3.557828e-05)
(-0.0042143686 0.01314563 -1.5206689e-05)
(-0.0078727066 0.017443923 -8.6225374e-07)
(-0.012279991 0.021044516 9.9458452e-06)
(-0.017278362 0.023924363 1.7383258e-05)
(-0.022718394 0.026093602 2.1690236e-05)
(-0.028463749 0.027583157 2.3197904e-05)
(-0.034392516 0.028433969 2.2155695e-05)
(-0.040394163 0.028689012 1.8731294e-05)
(-0.046366921 0.028387964 1.3026769e-05)
(-0.052215631 0.027564249 5.0871423e-06)
(-0.057849764 0.026244105 -5.0878971e-06)
(-0.063181708 0.024447348 -1.7528883e-05)
(-0.068125469 0.022189452 -3.2278172e-05)
(-0.072595876 0.019484616 -4.9370651e-05)
(-0.076508397 0.016349442 -6.8812565e-05)
(-0.079779655 0.012806937 -9.0558102e-05)
(-0.082328713 0.0088904934 -0.00011448678)
(-0.084079058 0.0046475067 -0.00014039181)
(-0.084960659 0.00014252495 -0.00016797493)
(-0.084915484 -0.0045397216 -0.00019666079)
(-0.0839003 -0.0092961104 -0.00022598173)
(-0.081890066 -0.014003045 -0.00025519778)
(-0.078884602 -0.018519878 -0.00028348294)
(-0.074912333 -0.022693368 -0.00030994533)
(-0.070034097 -0.026364068 -0.00033366592)
(-0.064345831 -0.029374671 -0.00035375962)
(-0.057979446 -0.031579968 -0.00036944291)
(-0.051101382 -0.032857821 -0.00038010166)
(-0.04390843 -0.033120369 -0.00038535237)
(-0.036620633 -0.032324468 -0.00038508676)
(-0.029471385 -0.030480347 -0.0003794922)
(-0.022695301 -0.027657536 -0.00036904181)
(-0.016515043 -0.02398745 -0.00035444607)
(-0.011128402 -0.019662495 -0.00033658748)
(-0.0066936757 -0.014931957 -0.00031655806)
(-0.0033153265 -0.010094164 -0.00029556058)
(-0.0010792466 -0.0054857612 -0.00027314364)
(-0.00012950531 -0.0014836506 -0.0002302578)
(-0.00026358818 0.0036480871 -5.64557e-05)
(-0.0017022092 0.010432375 -2.6803763e-05)
(-0.0046706197 0.016480327 -4.3135315e-06)
(-0.0087085467 0.021677947 1.145757e-05)
(-0.013557525 0.025983075 2.3348586e-05)
(-0.01904035 0.029396696 3.1612403e-05)
(-0.024992272 0.031949316 3.6574681e-05)
(-0.031265744 0.033688855 3.8648995e-05)
(-0.03773128 0.034670163 3.8144033e-05)
(-0.044273411 0.034947252 3.5264105e-05)
(-0.050787179 0.034568175 3.0129e-05)
(-0.057175242 0.033572301 2.2784759e-05)
(-0.063345253 0.031989679 1.3217127e-05)
(-0.069207589 0.029842195 1.3686517e-06)
(-0.074673575 0.027146156 -1.2840589e-05)
(-0.079654269 0.023915933 -2.9491647e-05)
(-0.084059919 0.020168334 -4.8642924e-05)
(-0.087800184 0.015927356 -7.0303426e-05)
(-0.090785203 0.011228992 -9.4406285e-05)
(-0.092927493 0.0061257786 -0.00012078765)
(-0.094144592 0.0006906567 -0.00014916595)
(-0.094363642 -0.0049807889 -0.00017908503)
(-0.093525497 -0.010767048 -0.00020997728)
(-0.091589609 -0.016522685 -0.00024109389)
(-0.088540607 -0.022080006 -0.0002715542)
(-0.084393893 -0.027253789 -0.0003003722)
(-0.079201009 -0.031848642 -0.00032650337)
(-0.073053915 -0.035668881 -0.00034891155)
(-0.066087387 -0.038530632 -0.00036664648)
(-0.058478775 -0.040275556 -0.00037892559)
(-0.050444491 -0.040785178 -0.00038521145)
(-0.042232791 -0.039994553 -0.00038527253)
(-0.034112875 -0.037903808 -0.00037921798)
(-0.026360817 -0.03458616 -0.00036749794)
(-0.019243741 -0.030191339 -0.00035085753)
(-0.013003804 -0.024943997 -0.00033026884)
(-0.0078397844 -0.019137292 -0.00030698079)
(-0.0038887192 -0.013121189 -0.00028240661)
(-0.0012655469 -0.0072867986 -0.00025604737)
(-0.00015100495 -0.0020647853 -0.00021007627)
(-0.00028893722 0.0045684619 -4.5760615e-05)
(-0.0018630587 0.012866367 -1.2146709e-05)
(-0.0051058718 0.020140533 1.2384966e-05)
(-0.0095080723 0.026313672 2.9560183e-05)
(-0.014782858 0.031376667 4.2549004e-05)
(-0.02073483 0.03535971 5.1687058e-05)
(-0.027184796 0.038318404 5.7379512e-05)
(-0.033974765 0.040321646 6.0115318e-05)
(-0.040968475 0.04144132 6.0255656e-05)
(-0.04804644 0.041744739 5.8036086e-05)
(-0.055101585 0.041289789 5.3588873e-05)
(-0.062035584 0.040122514 4.6956249e-05)
(-0.068755533 0.038276871 3.8105246e-05)
(-0.075171037 0.035776346 2.6946554e-05)
(-0.081191847 0.032637095 1.335722e-05)
(-0.086726121 0.028872238 -2.7965695e-06)
(-0.091679403 0.024496978 -2.1633411e-05)
(-0.095954431 0.019534188 -4.322717e-05)
(-0.099451881 0.014020132 -6.7577261e-05)
(-0.10207211 0.0080099846 -9.4579616e-05)
(-0.103718 0.0015827058 -0.00012399718)
(-0.10429918 -0.0051552747 -0.00015542846)
(-0.10373705 -0.01206693 -0.00018829463)
(-0.10197093 -0.018984798 -0.00022182829)
(-0.098965269 -0.025712694 -0.00025508712)
(-0.094717088 -0.032030491 -0.00028697961)
(-0.089263275 -0.037702157 -0.00031631415)
(-0.082686961 -0.042487113 -0.00034187078)
(-0.075122002 -0.046154689 -0.00036248993)
(-0.066754541 -0.048501028 -0.00037717105)
(-0.057820681 -0.049367273 -0.0003851708)
(-0.04859954 -0.048657397 -0.00038608647)
(-0.039401426 -0.046353696 -0.00037991205)
(-0.030551549 -0.042527908 -0.00036705469)
(-0.022370874 -0.037346252 -0.00034829431)
(-0.015155975 -0.031067557 -0.0003247132)
(-0.0091555582 -0.024034505 -0.00029775867)
(-0.0045467441 -0.016657636 -0.00026910976)
(-0.0014791811 -0.009394154 -0.00023823818)
(-0.00017563918 -0.0027433527 -0.00018861211)
(-0.00031316707 0.0055700752 -2.8867359e-05)
(-0.0020169299 0.015512039 9.0316263e-06)
(-0.0055227493 0.024112981 3.5529858e-05)
(-0.010275095 0.03133615 5.4081134e-05)
(-0.015960573 0.037210137 6.8175838e-05)
(-0.022366763 0.041799164 7.8230385e-05)
(-0.029301009 0.045188448 8.47265e-05)
(-0.036595782 0.047471801 8.8224165e-05)
(-0.044108957 0.048741318 8.9132707e-05)
(-0.051718043 0.049079994 8.7714851e-05)
(-0.059314987 0.048557129 8.4111252e-05)
(-0.066801731 0.047226267 7.8356377e-05)
(-0.074086134 0.045125387 7.0394295e-05)
(-0.081078349 0.042279038 6.0099187e-05)
(-0.087687785 0.03870208 4.729927e-05)
(-0.093820738 0.034404679 3.1800331e-05)
(-0.099378776 0.029398223 1.3413693e-05)
(-0.10425802 0.023701831 -8.0122218e-06)
(-0.10834944 0.017349106 -3.2558118e-05)
(-0.11154031 0.010394787 -6.0199564e-05)
(-0.11371695 0.0029208903 -9.0768946e-05)
(-0.11476895 -0.0049581223 -0.00012391885)
(-0.11459482 -0.013091489 -0.00015909918)
(-0.11310897 -0.021290608 -0.00019553375)
(-0.11025029 -0.029330137 -0.00023222418)
(-0.10599133 -0.036952442 -0.00026796921)
(-0.10034793 -0.043876018 -0.00030141151)
(-0.093388211 -0.049808179 -0.00033111335)
(-0.085239767 -0.054461975 -0.00035565646)
(-0.076093819 -0.05757672 -0.00037376045)
(-0.066204831 -0.058940853 -0.00038440751)
(-0.055884461 -0.058415098 -0.0003869565)
(-0.045489132 -0.055953331 -0.00038122959)
(-0.035401418 -0.051618244 -0.00036755321)
(-0.026006897 -0.045589228 -0.00034672878)
(-0.017668759 -0.038160929 -0.00031996164)
(-0.01069768 -0.029732228 -0.00028893794)
(-0.0053211031 -0.020785329 -0.00025566188)
(-0.0017321794 -0.011857982 -0.00021958129)
(-0.00020539266 -0.0035359087 -0.00016552917)
(-0.00033640868 0.0066495732 -5.2221205e-06)
(-0.0021644905 0.018360732 3.7338271e-05)
(-0.0059227187 0.028385422 6.5732985e-05)
(-0.011011675 0.036731134 8.563377e-05)
(-0.017092855 0.043468576 0.00010084364)
(-0.023937882 0.048700591 0.00011186045)
(-0.031341602 0.0525464 0.00011924189)
(-0.039127872 0.05512863 0.00012361705)
(-0.047149677 0.056562833 0.00012544144)
(-0.055282582 0.05695017 0.00012500239)
(-0.063418754 0.05637305 0.00012244659)
(-0.071461721 0.054893439 0.00011779819)
(-0.079321513 0.052553501 0.0001109754)
(-0.086910277 0.049378282 0.0001018119)
(-0.094138492 0.045380084 9.0081337e-05)
(-0.10091188 0.040564194 7.5521047e-05)
(-0.10712909 0.034935645 5.7860901e-05)
(-0.11268034 0.028506712 3.6856399e-05)
(-0.11744713 0.021304798 1.2325981e-05)
(-0.12130322 0.013380399 -1.580955e-05)
(-0.12411714 0.0048147293 -4.7481429e-05)
(-0.12575637 -0.0042734878 -8.2427191e-05)
(-0.12609324 -0.013722619 -0.00012015499)
(-0.12501288 -0.02332481 -0.00015990555)
(-0.12242301 -0.032825822 -0.00020064342)
(-0.11826508 -0.041928598 -0.00024106334)
(-0.11252644 -0.050301576 -0.00027963042)
(-0.10525246 -0.0575924 -0.00031465603)
(-0.096557237 -0.063447229 -0.00034440789)
(-0.086631147 -0.067535238 -0.00036725045)
(-0.075743523 -0.069577 -0.00038180246)
(-0.064238459 -0.069374357 -0.00038709164)
(-0.052522489 -0.066838473 -0.0003826842)
(-0.041043809 -0.062012052 -0.00036876256)
(-0.030264638 -0.055081874 -0.00034611639)
(-0.02062933 -0.046378995 -0.00031607528)
(-0.012525715 -0.036365742 -0.00028060331)
(-0.0062452325 -0.025609076 -0.00024209635)
(-0.0020371702 -0.014744635 -0.00019997514)
(-0.0002423098 -0.0044654051 -0.00014050776)
(-0.00035868289 0.0078038117 2.5708778e-05)
(-0.0023059231 0.021404243 7.3352835e-05)
(-0.006306188 0.032945988 0.00010357888)
(-0.01171817 0.042484389 0.00012480745)
(-0.018179452 0.050136503 0.00014114795)
(-0.025446559 0.05604825 0.00015318231)
(-0.033302674 0.060377179 0.00016154539)
(-0.041563907 0.063278658 0.00016693571)
(-0.050079282 0.064895021 0.0001698551)
(-0.058723496 0.065348197 0.00017061537)
(-0.067390146 0.064735545 0.00016936907)
(-0.075985714 0.063128483 0.00016612939)
(-0.084423899 0.06057361 0.00016078746)
(-0.092620428 0.057095933 0.00015313392)
(-0.10048848 0.052703893 0.0001428832)
(-0.10793479 0.047395841 0.00012969615)
(-0.11485659 0.041167676 0.00011320902)
(-0.12113943 0.034021363 9.3067101e-05)
(-0.12665623 0.025974057 6.8964223e-05)
(-0.13126761 0.017067509 4.0686871e-05)
(-0.13482393 0.0073773805 8.1680735e-06)
(-0.13716926 -0.0029780401 -2.8455697e-05)
(-0.13814734 -0.013830409 -6.8798344e-05)
(-0.13761014 -0.024955828 -0.00011215658)
(-0.13542887 -0.036072743 -0.00015749331)
(-0.13150696 -0.046843918 -0.00020342036)
(-0.12579501 -0.056883981 -0.00024822518)
(-0.11830639 -0.065773543 -0.00028994061)
(-0.10913211 -0.073080587 -0.00032646196)
(-0.098453072 -0.07838907 -0.0003557101)
(-0.086546951 -0.081333569 -0.00037582787)
(-0.073787377 -0.081637386 -0.00038538689)
(-0.060632949 -0.079149995 -0.00038357632)
(-0.047604974 -0.073878507 -0.00037033507)
(-0.03525514 -0.066007498 -0.00034637819)
(-0.024125926 -0.055902822 -0.00031314238)
(-0.014701123 -0.04409732 -0.00027290496)
(-0.0073540425 -0.031257559 -0.00022852951)
(-0.0024074141 -0.018137456 -0.00017940187)
(-0.0002885399 -0.0055614795 -0.00011329546)
(-0.00037993302 0.0090296165 6.44369e-05)
(-0.0024410538 0.024634355 0.0001176267)
(-0.0066727556 0.037782611 0.00014962341)
(-0.012393576 0.048581009 0.00017216412)
(-0.019218059 0.057197024 0.00018965902)
(-0.026888204 0.063824028 0.00020277799)
(-0.035176139 0.06866223 0.00021223628)
(-0.043890921 0.071903739 0.00021880425)
(-0.052878454 0.073721116 0.00022303231)
(-0.062013559 0.07425983 0.00022525936)
(-0.071192459 0.073634178 0.00022564628)
(-0.080325964 0.071926237 0.00022419731)
(-0.089332997 0.069187417 0.00022077769)
(-0.098134582 0.065442257 0.00021513472)
(-0.10664844 0.060694086 0.00020692073)
(-0.11478427 0.054932249 0.00019571374)
(-0.12243982 0.048140622 0.00018104425)
(-0.12949791 0.040307183 0.00016242864)
(-0.13582457 0.03143441 0.00013940905)
(-0.14126865 0.021550234 0.00011160168)
(-0.14566313 0.010719213 7.8758177e-05)
(-0.14882861 -0.0009465477 4.0835529e-05)
(-0.150579 -0.013277321 -1.9511027e-06)
(-0.1507304 -0.026038126 -4.9011227e-05)
(-0.14911294 -0.038923386 -9.9363607e-05)
(-0.14558542 -0.051556699 -0.00015158019)
(-0.14005292 -0.063496677 -0.00020378946)
(-0.13248612 -0.074250567 -0.00025373103)
(-0.12294115 -0.083296994 -0.00029887251)
(-0.11157742 -0.090118392 -0.00033659272)
(-0.098670516 -0.094242404 -0.00036442133)
(-0.084616702 -0.095289682 -0.00038031058)
(-0.069925179 -0.093023316 -0.00038290368)
(-0.055195826 -0.087392981 -0.00037174663)
(-0.041082588 -0.078565819 -0.0003473733)
(-0.028245192 -0.066936966 -0.00031128059)
(-0.017286202 -0.053115491 -0.0002660852)
(-0.0086837112 -0.037883711 -0.00021520434)
(-0.0028568838 -0.022137436 -0.0001579813)
(-0.00034639281 -0.0068607978 -8.3760389e-05)
(-0.00040005943 0.010323626 0.00011144572)
(-0.0025695229 0.02804252 0.00017067923)
(-0.0070215919 0.042882605 0.00020438967)
(-0.013036114 0.055004867 0.00022823286)
(-0.020205083 0.064631082 0.00024691394)
(-0.028256162 0.072006404 0.00026119525)
(-0.036950708 0.077378105 0.00027187756)
(-0.046091177 0.080979167 0.00027980793)
(-0.055520995 0.083016013 0.00028559033)
(-0.065115987 0.083660614 0.00028959619)
(-0.074776101 0.083046416 0.00029200012)
(-0.084417815 0.081267554 0.00029280277)
(-0.093966844 0.078380837 0.00029184787)
(-0.10335132 0.074410089 0.00028884257)
(-0.11249553 0.069352444 0.00028337702)
(-0.12131441 0.063186303 0.00027494221)
(-0.12970871 0.055880702 0.00026295306)
(-0.13756108 0.047405929 0.00024677851)
(-0.14473337 0.037745193 0.00022578048)
(-0.15106522 0.026907183 0.00019936422)
(-0.15637444 0.014939211 0.00016704341)
(-0.16045956 0.0019405283 0.00012851957)
(-0.16310537 -0.011924815 8.3798821e-05)
(-0.16409119 -0.026417082 3.3235317e-05)
(-0.16320284 -0.041212157 -2.2319963e-05)
(-0.16024886 -0.055897944 -8.1468486e-05)
(-0.15508024 -0.069977306 -0.0001422268)
(-0.14761352 -0.0828799 -0.00020204998)
(-0.13785584 -0.093985057 -0.0002579357)
(-0.12592959 -0.10265717 -0.00030661978)
(-0.11209311 -0.1082938 -0.00034485952)
(-0.096752982 -0.1103843 -0.00036978233)
(-0.080462409 -0.108574 -0.00037925787)
(-0.063901487 -0.10272526 -0.00037222301)
(-0.047837744 -0.092964568 -0.0003488608)
(-0.033068715 -0.07970452 -0.00031063441)
(-0.020342705 -0.063632948 -0.00026050604)
(-0.010271405 -0.045664475 -0.00020253979)
(-0.0034003531 -0.026863762 -0.00013603277)
(-0.00041840399 -0.0084074662 -5.1952483e-05)
(-0.00041896199 0.011682238 0.00016718293)
(-0.0026910054 0.031619766 0.00023299305)
(-0.0073519602 0.048232504 0.00026836432)
(-0.013644074 0.061738312 0.00029350491)
(-0.021136778 0.072416919 0.00031340825)
(-0.029543095 0.080569583 0.00032893488)
(-0.038613478 0.08649517 0.00034097782)
(-0.048143901 0.090471889 0.00035046826)
(-0.057975714 0.092743906 0.00035807218)
(-0.067986432 0.09351291 0.00036420232)
(-0.0780807 0.092933958 0.00036905599)
(-0.088181904 0.091114904 0.00037263929)
(-0.098224087 0.088118808 0.00037478314)
(-0.10814431 0.083968813 0.00037516122)
(-0.11787563 0.078655065 0.00037330617)
(-0.12734075 0.072143375 0.00036862172)
(-0.13644632 0.064385405 0.00036040048)
(-0.14507821 0.055330264 0.00034784827)
(-0.15309771 0.044937417 0.0003301186)
(-0.16033908 0.033190808 0.00030636283)
(-0.16660886 0.02011401 0.00027579972)
(-0.17168726 0.0057860019 0.00023780781)
(-0.17533248 -0.0096430972 0.00019204574)
(-0.17728828 -0.02593698 0.00013856605)
(-0.17729557 -0.042760947 7.7965899e-05)
(-0.17510891 -0.059673713 1.1503946e-05)
(-0.17051782 -0.076126088 -5.8810581e-05)
(-0.16337317 -0.091469344 -0.00013019374)
(-0.15361745 -0.10497637 -0.00019915897)
(-0.14131704 -0.11587836 -0.00026170929)
(-0.12669258 -0.12341861 -0.00031365764)
(-0.1101419 -0.12692255 -0.00035106031)
(-0.092248455 -0.12587906 -0.00037071845)
(-0.073767997 -0.1200234 -0.00037065841)
(-0.055589295 -0.10940723 -0.00035045467)
(-0.038668281 -0.094439266 -0.00031137046)
(-0.023929841 -0.075882648 -0.00025668082)
(-0.012154791 -0.054799721 -0.0001911902)
(-0.0040534604 -0.032454153 -0.00011415104)
(-0.00050740737 -0.010253512 -1.8180415e-05)
(-0.00043659316 0.013101692 0.00023205174)
(-0.0028054924 0.035356897 0.00030500884)
(-0.0076638896 0.053818258 0.00034199394)
(-0.014216916 0.068762231 0.00036842901)
(-0.02201075 0.080529866 0.00038958814)
(-0.030742838 0.089482896 0.00040643699)
(-0.040152085 0.095976549 0.00041997035)
(-0.050027705 0.10033892 0.00043121416)