/*--------------------------------*- C++ -*----------------------------------*\
  =========                 |
  \\      /  F ield         | OpenFOAM: The Open Source CFD Toolbox
   \\    /   O peration     | Website:  https://openfoam.org
    \\  /    A nd           | Version:  7
     \\/     M anipulation  |
\*---------------------------------------------------------------------------*/
FoamFile
{
    version     2.0;
    format      ascii;
    class       volScalarField;
    location    "8";
    object      p;
}
// * * * * * * * * * * * * * * * * * * * * * * * * * * * * * * * * * * * * * //

dimensions      [0 2 -2 0 0 0 0];

internalField   nonuniform List<scalar> 
8800
(
0.40681
0.359141
0.320691
0.291962
0.271433
0.256979
0.246778
0.239644
0.235051
0.233016
0.233976
0.23767
0.243737
0.252462
0.264704
0.281975
0.306382
0.340049
0.382307
0.440989
0.237443
0.245164
0.25317
0.25676
0.25561
0.250963
0.244943
0.239323
0.234965
0.232269
0.231825
0.233906
0.237779
0.243059
0.249179
0.254882
0.258028
0.256961
0.251019
0.242021
0.215543
0.221947
0.226575
0.230136
0.232738
0.233893
0.233282
0.231554
0.22973
0.228778
0.229435
0.231316
0.233512
0.235007
0.234905
0.233029
0.230009
0.225942
0.220963
0.217127
0.20917
0.212055
0.215849
0.21921
0.221473
0.222969
0.223943
0.224356
0.224331
0.224335
0.224676
0.225197
0.225379
0.22492
0.223858
0.222137
0.219404
0.215668
0.212401
0.21098
0.206235
0.207491
0.210264
0.21323
0.215877
0.218
0.219456
0.2203
0.220744
0.221024
0.221379
0.221579
0.22133
0.220458
0.218834
0.216562
0.213843
0.210865
0.208838
0.208376
0.206033
0.206505
0.207657
0.209016
0.210407
0.211834
0.213181
0.214357
0.21525
0.215875
0.216166
0.216049
0.215493
0.21457
0.213416
0.212123
0.210847
0.209584
0.208801
0.208629
0.204647
0.204874
0.205551
0.206492
0.207538
0.208571
0.209613
0.210608
0.211474
0.21217
0.212558
0.212546
0.212188
0.211556
0.210821
0.209986
0.209118
0.208337
0.207918
0.207845
0.20228
0.202376
0.202699
0.203225
0.203838
0.204607
0.205478
0.206392
0.20729
0.208092
0.208599
0.208714
0.208523
0.208136
0.207663
0.2072
0.20679
0.20643
0.206264
0.206233
0.199239
0.199298
0.19951
0.199873
0.200334
0.200903
0.201584
0.202374
0.203244
0.204128
0.204806
0.205144
0.205216
0.205124
0.204941
0.204717
0.204485
0.204291
0.204206
0.204188
0.19582
0.195857
0.195998
0.196252
0.19661
0.197094
0.197724
0.19851
0.199439
0.200464
0.201353
0.201915
0.202198
0.202298
0.202292
0.202233
0.202153
0.202082
0.202052
0.20204
0.192034
0.192059
0.19217
0.192371
0.192678
0.193121
0.193733
0.194547
0.195576
0.196796
0.197949
0.198773
0.199293
0.1996
0.199764
0.199841
0.199867
0.199872
0.199873
0.199865
0.187894
0.18792
0.18802
0.188211
0.188515
0.188972
0.189631
0.190541
0.191743
0.193233
0.194714
0.19584
0.1966
0.197101
0.197413
0.197599
0.197705
0.197761
0.197783
0.197777
0.183383
0.183405
0.183515
0.183723
0.184058
0.184573
0.185332
0.186405
0.187855
0.189703
0.191586
0.193061
0.194115
0.194819
0.195279
0.195569
0.195744
0.195841
0.195882
0.195876
0.178462
0.178486
0.178614
0.178856
0.179252
0.179866
0.180781
0.18209
0.183882
0.186196
0.188593
0.190508
0.191872
0.192809
0.19343
0.193827
0.194071
0.19421
0.194267
0.194261
0.173042
0.173071
0.173227
0.173524
0.174011
0.174769
0.175903
0.177535
0.179779
0.182694
0.185733
0.188171
0.189926
0.191137
0.191944
0.192463
0.192784
0.192967
0.193044
0.193037
0.167005
0.16704
0.167237
0.167611
0.168224
0.169179
0.170608
0.172667
0.175501
0.179185
0.183031
0.186122
0.188351
0.189892
0.190921
0.191585
0.191996
0.192231
0.192329
0.192321
0.160185
0.160231
0.160483
0.16096
0.161744
0.162961
0.164782
0.167399
0.170996
0.175662
0.180522
0.184424
0.187236
0.189181
0.190481
0.19132
0.19184
0.192137
0.19226
0.19225
0.152361
0.152421
0.152747
0.153364
0.154375
0.155943
0.15828
0.161626
0.166207
0.172122
0.178256
0.183163
0.186696
0.189138
0.190769
0.191823
0.192476
0.192849
0.193004
0.192991
0.143236
0.143316
0.143743
0.144548
0.145865
0.147901
0.150921
0.155222
0.161072
0.168572
0.176297
0.182451
0.186872
0.189925
0.191965
0.193283
0.194099
0.194566
0.194758
0.194742
0.132403
0.132513
0.133077
0.13414
0.135877
0.138548
0.142481
0.148038
0.155525
0.165029
0.174733
0.182423
0.187934
0.19174
0.194283
0.195926
0.196943
0.197523
0.197762
0.197741
0.119295
0.119448
0.120203
0.121638
0.123967
0.127517
0.132686
0.139907
0.14951
0.161536
0.173676
0.183238
0.190081
0.19481
0.197975
0.200023
0.201288
0.202006
0.202301
0.202276
0.10309
0.103302
0.10434
0.106329
0.109529
0.114324
0.121199
0.130647
0.142987
0.158159
0.173263
0.185082
0.193536
0.199396
0.203336
0.205893
0.207472
0.208361
0.208724
0.208693
0.0825616
0.0828651
0.084349
0.0872139
0.0917281
0.0983379
0.107622
0.120083
0.135946
0.154996
0.173643
0.188137
0.198523
0.205769
0.210684
0.213904
0.215905
0.217026
0.217477
0.217432
0.0558114
0.0562757
0.0585439
0.0628891
0.0694831
0.0788509
0.0916083
0.108138
0.128473
0.152199
0.174978
0.19257
0.205232
0.214169
0.220331
0.224449
0.227061
0.228543
0.229131
0.22906
0.0195286
0.0203657
0.0243072
0.0314427
0.0415954
0.0553357
0.0731017
0.0950057
0.120846
0.150021
0.177456
0.198516
0.213782
0.224747
0.232508
0.237872
0.241422
0.243514
0.244361
0.244259
-0.032899
-0.0304586
-0.0221557
-0.00926658
0.00725859
0.0278151
0.0525015
0.0811952
0.113522
0.148782
0.181238
0.206016
0.224136
0.237439
0.247194
0.254283
0.259306
0.262534
0.263968
0.263841
-0.112298
-0.100396
-0.0813642
-0.058136
-0.0319999
-0.00242703
0.0306924
0.0672097
0.106748
0.148664
0.186617
0.215565
0.237038
0.253262
0.265717
0.275424
0.283023
0.288687
0.292007
0.292629
-0.196815
-0.17117
-0.140696
-0.107178
-0.0713007
-0.0326889
0.00882509
0.0532329
0.100312
0.149578
0.194028
0.228189
0.253975
0.273987
0.289929
0.302954
0.313787
0.323337
0.33041
0.331329
-0.260248
-0.232404
-0.193957
-0.1522
-0.107891
-0.0610753
-0.0117107
0.040171
0.094398
0.150564
0.200948
0.239557
0.268683
0.291285
0.30923
0.323745
0.335617
0.345404
0.351678
0.352642
-0.310789
-0.280899
-0.237981
-0.190648
-0.140204
-0.0868945
-0.0308804
0.0276359
0.0883543
0.150769
0.206304
0.248504
0.280001
0.304091
0.322889
0.33783
0.349886
0.359624
0.36593
0.366968
-0.351002
-0.32067
-0.2746
-0.223172
-0.168129
-0.109761
-0.0483574
0.0157757
0.0822251
0.150329
0.210585
0.255924
0.289324
0.314514
0.333879
0.349027
0.36106
0.370505
0.376743
0.377843
-0.384598
-0.354123
-0.30599
-0.251474
-0.192822
-0.130356
-0.0643988
0.00466268
0.0762976
0.149647
0.214259
0.262455
0.297558
0.323681
0.343485
0.358762
0.370748
0.380052
0.386145
0.387254
-0.413683
-0.383229
-0.333629
-0.276773
-0.215202
-0.149315
-0.079487
-0.00612775
0.0701806
0.14845
0.217315
0.268367
0.305187
0.332267
0.352547
0.368003
0.379987
0.389201
0.39514
0.396253
-0.439784
-0.409284
-0.358567
-0.299886
-0.236008
-0.167323
-0.0941776
-0.0169827
0.0636793
0.146751
0.219927
0.27398
0.312651
0.340796
0.361635
0.377331
0.389362
0.398515
0.404323
0.40543
-0.463792
-0.433194
-0.381623
-0.321459
-0.255673
-0.184638
-0.10864
-0.0280256
0.0567016
0.144481
0.222129
0.279439
0.320198
0.349592
0.371115
0.387138
0.399276
0.408382
0.414055
0.415188
-0.486469
-0.455655
-0.403341
-0.341956
-0.274596
-0.20157
-0.123115
-0.0394603
0.0490635
0.141516
0.223878
0.284796
0.327969
0.358857
0.381232
0.397685
0.409985
0.419117
0.424619
0.425823
-0.508044
-0.476983
-0.424038
-0.361672
-0.293013
-0.218332
-0.137775
-0.0514173
0.0406461
0.137745
0.225088
0.290028
0.336014
0.368708
0.39215
0.409171
0.421712
0.430885
0.436274
0.437492
-0.528822
-0.497421
-0.443904
-0.380763
-0.311013
-0.234984
-0.152678
-0.063969
0.0313553
0.133028
0.22562
0.295037
0.344297
0.37918
0.403966
0.421732
0.434621
0.443886
0.44918
0.450361
-0.548817
-0.517109
-0.463118
-0.399295
-0.328663
-0.251556
-0.167842
-0.0771533
0.0211269
0.12726
0.225325
0.299667
0.352705
0.390219
0.416687
0.435429
0.448814
0.458232
0.463479
0.464533
-0.568034
-0.536086
-0.481694
-0.417251
-0.345954
-0.26803
-0.183241
-0.0909572
0.00992446
0.120351
0.224034
0.30372
0.361036
0.401683
0.430243
0.450253
0.464341
0.474045
0.479242
0.480092
-0.586556
-0.554316
-0.499534
-0.434598
-0.362839
-0.284347
-0.198815
-0.105328
-0.0022493
0.112231
0.221612
0.306965
0.369026
0.413335
0.444505
0.466165
0.48117
0.491278
0.496485
0.497085
-0.604402
-0.571758
-0.516676
-0.451324
-0.37924
-0.300435
-0.21448
-0.1202
-0.0153466
0.102851
0.217941
0.309158
0.376338
0.424869
0.459212
0.483029
0.499229
0.509855
0.515082
0.515425
-0.621304
-0.588359
-0.532965
-0.467375
-0.395096
-0.316197
-0.230143
-0.135472
-0.0293055
0.092242
0.212911
0.310064
0.382591
0.435791
0.473969
0.500579
0.518429
0.529707
0.534823
0.534845
-0.637303
-0.6042
-0.548421
-0.482665
-0.410341
-0.331552
-0.24569
-0.151037
-0.0440366
0.0804328
0.206485
0.309538
0.38735
0.445406
0.48814
0.518489
0.538677
0.55058
0.555271
0.554889
-0.652473
-0.619044
-0.563034
-0.497155
-0.424909
-0.346415
-0.261018
-0.166775
-0.0594258
0.0674958
0.19869
0.307455
0.390275
0.452898
0.500672
0.536169
0.560257
0.573094
0.576075
0.574859
-0.666685
-0.632991
-0.576734
-0.510799
-0.438749
-0.360707
-0.27603
-0.182558
-0.0753477
0.0535418
0.189587
0.303802
0.390988
0.457453
0.51023
0.552146
0.582923
0.599441
0.598811
0.594422
-0.680058
-0.646042
-0.589546
-0.523628
-0.451894
-0.37447
-0.290775
-0.198462
-0.0919117
0.038437
0.179096
0.298508
0.389451
0.458648
0.515004
0.563499
0.604149
0.632798
0.635188
0.610457
-0.692556
-0.658202
-0.601562
-0.535798
-0.464567
-0.387972
-0.305622
-0.214993
-0.109799
0.0213172
0.166484
0.290981
0.38514
0.455328
0.511702
0.563886
0.610787
0.642497
0.636379
0.604871
-0.704122
-0.669483
-0.612634
-0.547116
-0.476518
-0.400912
-0.320308
-0.231799
-0.128664
0.00245674
0.151957
0.281288
0.377848
0.447641
0.496646
0.54372
0.580457
0.591825
0.528046
0.47983
-0.714095
-0.67992
-0.622455
-0.557025
-0.487279
-0.412967
-0.334607
-0.248712
-0.148396
-0.0182714
0.135382
0.27019
0.367559
0.436247
0.472435
0.494006
0.512852
0.472214
0.391894
0.338417
-0.767155
-0.686448
-0.631619
-0.566788
-0.498108
-0.425213
-0.348655
-0.266004
-0.169507
-0.041405
0.116456
0.256987
0.353243
0.421542
0.433589
0.422015
0.387279
0.315047
0.219756
0.167137
-0.710692
-0.697444
-0.642307
-0.580129
-0.512544
-0.441617
-0.369043
-0.291597
-0.20187
-0.0774734
0.0876852
0.235977
0.325423
0.369619
0.364313
0.217873
0.0790252
-0.0146426
-0.109722
-0.0550985
-0.735782
-0.707728
-0.652758
-0.590849
-0.523892
-0.454515
-0.384007
-0.310845
-0.227905
-0.109701
0.059129
0.21687
0.302292
0.312355
0.232563
0.0266988
-0.160636
-0.292752
-0.430594
-0.335168
-0.752263
-0.719762
-0.664587
-0.602194
-0.535754
-0.467796
-0.399847
-0.331894
-0.256554
-0.144935
0.0257436
0.193293
0.27452
0.249184
0.0892712
-0.192454
-0.431356
-0.614446
-0.818803
-0.711115
-0.767019
-0.732064
-0.675956
-0.612892
-0.546889
-0.480334
-0.415437
-0.353028
-0.286373
-0.18388
-0.00800481
0.172955
0.247909
0.175003
-0.0814481
-0.423921
-0.741883
-1.01613
-1.32011
-1.27187
-0.779472
-0.743802
-0.686889
-0.623336
-0.557761
-0.492697
-0.431123
-0.375059
-0.318935
-0.230192
-0.0542082
0.146597
0.220154
0.0888083
-0.250843
-0.648232
-1.04765
-1.41991
-1.84498
-2.20484
-0.790626
-0.754868
-0.697466
-0.633631
-0.568423
-0.504829
-0.446701
-0.397648
-0.35412
-0.283533
-0.109549
0.112959
0.187361
-0.0041563
-0.410476
-0.836587
-1.27953
-1.6561
-1.83652
-2.14199
-0.801005
-0.76515
-0.707581
-0.643619
-0.578809
-0.516692
-0.462221
-0.420962
-0.392779
-0.348183
-0.186883
0.0629472
0.139793
-0.133823
-0.562663
-0.983644
-1.39086
-1.64676
-1.70212
-1.75664
-0.81085
-0.774802
-0.717099
-0.653047
-0.588625
-0.527974
-0.477376
-0.444987
-0.436004
-0.42956
-0.303237
-0.0315258
0.0442579
-0.303365
-0.708399
-1.08782
-1.49023
-1.6936
-1.6652
-1.67896
-0.820162
-0.783785
-0.725812
-0.661607
-0.597441
-0.538154
-0.491445
-0.468842
-0.483518
-0.535077
-0.488303
-0.209754
-0.131756
-0.509381
-0.861806
-1.15868
-1.55642
-1.80507
-1.68097
-1.63952
-0.828878
-0.791899
-0.733478
-0.66895
-0.604812
-0.54655
-0.503451
-0.491218
-0.533947
-0.674484
-0.784041
-0.520597
-0.42613
-0.766331
-1.0294
-1.1538
-1.29988
-1.47168
-1.45832
-1.43611
-0.836764
-0.798957
-0.739845
-0.674718
-0.61023
-0.552413
-0.512166
-0.510228
-0.583155
-0.850697
-1.22779
-0.995157
-0.826501
-1.08096
-1.24023
-1.11265
-0.823365
-1.0725
-1.32333
-1.38858
-0.843444
-0.804673
-0.74462
-0.678555
-0.613172
-0.554975
-0.516087
-0.522038
-0.630114
-1.04135
-1.79242
-1.59606
-1.29256
-1.4555
-1.71713
-1.73482
-1.65111
-1.70248
-1.75715
-1.80054
-0.848894
-0.808897
-0.747533
-0.680139
-0.613213
-0.553456
-0.513783
-0.522688
-0.658188
-1.19158
-2.30356
-2.12245
-1.70641
-1.88579
-2.53969
-3.2462
-3.37864
-3.15554
-2.86907
-2.74414
-0.852944
-0.811473
-0.748465
-0.679268
-0.61005
-0.547394
-0.504086
-0.509447
-0.647067
-1.23802
-2.51394
-2.30878
-1.77579
-2.0282
-2.97061
-4.26499
-4.476
-3.89618
-3.37663
-3.18612
-0.855472
-0.812397
-0.747436
-0.675957
-0.603682
-0.536706
-0.486776
-0.480579
-0.594905
-1.1162
-2.23756
-1.89916
-1.29548
-1.34874
-1.94464
-2.72611
-2.82834
-2.38168
-2.00124
-1.85173
-0.856563
-0.811861
-0.74463
-0.670455
-0.594455
-0.521875
-0.462465
-0.437372
-0.502698
-0.843403
-1.50321
-1.03765
-0.380147
-0.0985429
-0.0695756
-0.154734
-0.160999
-0.0224102
0.0560143
0.0802747
-0.856645
-0.810235
-0.740424
-0.663213
-0.582933
-0.5039
-0.433226
-0.38445
-0.387183
-0.510293
-0.647592
-0.193302
0.332858
0.648778
0.850319
0.988113
1.08601
1.13394
1.1486
1.14964
-0.855925
-0.807688
-0.735181
-0.654627
-0.569945
-0.484152
-0.401627
-0.328766
-0.273698
-0.231089
-0.0796503
0.313895
0.693402
0.980209
1.16948
1.3026
1.39059
1.43831
1.45759
1.4597
-0.853513
-0.803829
-0.728716
-0.644876
-0.555897
-0.463751
-0.370398
-0.276884
-0.178998
-0.046797
0.1966
0.523881
0.807049
1.03526
1.19389
1.30397
1.37946
1.42754
1.45278
1.45762
-0.84672
-0.797046
-0.720168
-0.63341
-0.540726
-0.443269
-0.341226
-0.232583
-0.108181
0.062888
0.31182
0.583266
0.809352
0.987057
1.11628
1.20899
1.27551
1.32178
1.34919
1.35496
-0.834769
-0.785163
-0.707452
-0.618544
-0.523293
-0.422153
-0.314405
-0.196621
-0.0589886
0.122989
0.353013
0.578691
0.764127
0.908215
1.01616
1.09636
1.15614
1.19981
1.22383
1.23027
-0.811141
-0.763313
-0.687354
-0.597681
-0.501374
-0.398989
-0.28896
-0.167592
-0.0263394
0.151888
0.357446
0.546871
0.701011
0.821516
0.914031
0.98475
1.03895
1.07942
1.1023
1.109
-0.770011
-0.726335
-0.65508
-0.566764
-0.4725
-0.371654
-0.262925
-0.143192
-0.00548058
0.160814
0.341244
0.501
0.629788
0.731445
0.811202
0.873621
0.922544
0.959054
0.980656
0.987931
-0.708752
-0.672134
-0.604056
-0.52181
-0.432739
-0.337505
-0.234674
-0.121353
0.00712677
0.157705
0.313404
0.446114
0.552389
0.636717
0.703821
0.757511
0.799957
0.832517
0.854158
0.861179
-0.615077
-0.589982
-0.53054
-0.458149
-0.379208
-0.294063
-0.201353
-0.0991083
0.0155686
0.146388
0.276987
0.385115
0.469698
0.535965
0.588168
0.629918
0.663599
0.689364
0.705525
0.710128
-0.478167
-0.465675
-0.42545
-0.370894
-0.309184
-0.240269
-0.162961
-0.0760679
0.0223962
0.134501
0.245183
0.335642
0.405148
0.458268
0.498763
0.529453
0.552526
0.570506
0.58288
0.585971
-0.330496
-0.326018
-0.3035
-0.270058
-0.22883
-0.178975
-0.119929
-0.0503591
0.0308463
0.124645
0.217149
0.292033
0.348717
0.39099
0.421863
0.443964
0.459642
0.47003
0.475618
0.476741
-0.202523
-0.200343
-0.190509
-0.173223
-0.149093
-0.116923
-0.075235
-0.0227863
0.0413927
0.117611
0.193575
0.25475
0.300235
0.333076
0.3563
0.372201
0.382344
0.388367
0.391308
0.391689
-0.104589
-0.104741
-0.101978
-0.0947616
-0.0819961
-0.0623678
-0.034302
0.0037896
0.053013
0.113503
0.174658
0.223762
0.259845
0.285466
0.30279
0.313854
0.320633
0.324387
0.325884
0.325924
-0.0390484
-0.0399061
-0.0409312
-0.0391632
-0.033097
-0.0210986
-0.00201704
0.0255345
0.0627683
0.110032
0.158603
0.197602
0.225842
0.245322
0.258255
0.266485
0.271211
0.273465
0.274206
0.274167
0.000705235
-5.52668e-05
-0.00139822
-0.00135578
0.00150053
0.00856788
0.0215365
0.04158
0.069733
0.106339
0.144399
0.17496
0.197023
0.21225
0.222172
0.228139
0.231396
0.232874
0.233304
0.233257
0.0244358
0.0239945
0.0231683
0.0232077
0.025134
0.0298437
0.0390933
0.0534935
0.0745947
0.1028
0.132551
0.156508
0.173659
0.185229
0.192609
0.197045
0.19944
0.200476
0.200767
0.200731
0.0396462
0.0394099
0.038958
0.0390729
0.0404959
0.0440377
0.0507088
0.0615106
0.0774303
0.0990238
0.122025
0.140556
0.153776
0.162703
0.168397
0.171768
0.173541
0.17429
0.174497
0.174468
0.0494479
0.0493243
0.049092
0.0492821
0.0504076
0.0530368
0.0579774
0.0660773
0.0781791
0.0947546
0.112534
0.126901
0.137143
0.144009
0.148342
0.150891
0.152229
0.15279
0.152945
0.15292
0.0553924
0.0553302
0.0552282
0.0554536
0.056379
0.0584272
0.0622178
0.0683545
0.077563
0.090272
0.103973
0.115051
0.122927
0.128193
0.131509
0.133465
0.134474
0.134889
0.135001
0.13498
0.0585197
0.0584876
0.0584575
0.0586854
0.0594408
0.0610432
0.0639248
0.068644
0.0756984
0.0854516
0.0959969
0.104534
0.110602
0.114654
0.117201
0.118683
0.119449
0.119761
0.119842
0.119823
0.0595704
0.0595539
0.0595609
0.059774
0.0603903
0.0616457
0.0638637
0.0675172
0.0729233
0.0804156
0.0885301
0.0951
0.0997649
0.102873
0.104832
0.105959
0.106538
0.10677
0.106827
0.10681
0.0590619
0.0590526
0.059073
0.0592575
0.0597522
0.0607367
0.0624594
0.0652699
0.0694316
0.075191
0.0814304
0.086482
0.0900655
0.0924516
0.0939539
0.0948143
0.0952518
0.0954226
0.0954621
0.0954476
0.0573573
0.0573515
0.057374
0.0575266
0.0579191
0.0586889
0.0600241
0.0621823
0.0653921
0.0698219
0.0746196
0.0785013
0.0812513
0.0830665
0.0842427
0.0848886
0.0852169
0.0853424
0.0853692
0.085357
0.0547268
0.0547228
0.0547429
0.0548648
0.0551719
0.055768
0.056788
0.0584951
0.0609402
0.064345
0.0680313
0.0710125
0.0731261
0.0745363
0.0754047
0.0759009
0.076149
0.0762411
0.0762591
0.0762489
0.0513795
0.0513765
0.0513926
0.0514878
0.0517262
0.0521878
0.0529814
0.0542507
0.0561647
0.0587855
0.0616175
0.0639041
0.0655233
0.0666087
0.0672662
0.0676411
0.0678271
0.0678944
0.0679063
0.0678978
0.0474768
0.0474743
0.0474865
0.0475596
0.0477431
0.0480984
0.0487083
0.0496785
0.0511471
0.0531647
0.0553369
0.0570894
0.0583358
0.0591564
0.0596558
0.0599393
0.0600785
0.0601271
0.0601345
0.0601275
0.0431452
0.0431429
0.0431514
0.0432068
0.0433467
0.0436184
0.0440847
0.0448217
0.0459587
0.0474992
0.0491615
0.0505023
0.0514591
0.0520747
0.0524536
0.0526672
0.0527708
0.0528058
0.0528102
0.0528044
0.0384828
0.0384806
0.0384864
0.0385278
0.0386339
0.0388402
0.0391943
0.0397557
0.0405958
0.0417993
0.0430658
0.0440966
0.0448139
0.0452789
0.0455639
0.0457234
0.0457996
0.045824
0.0458262
0.0458216
0.0335682
0.033566
0.0335695
0.0335995
0.0336782
0.0338324
0.0340987
0.0345229
0.0351561
0.0360706
0.0370278
0.0378147
0.0383475
0.0386966
0.0389103
0.0390293
0.0390851
0.0391018
0.0391023
0.0390986
0.028462
0.02846
0.0284612
0.028482
0.0285393
0.0286529
0.0288502
0.0291657
0.0296329
0.0303248
0.0310428
0.0316354
0.0320254
0.0322829
0.0324399
0.0325265
0.0325663
0.0325774
0.0325769
0.0325738
0.023211
0.0232091
0.0232087
0.0232223
0.0232622
0.0233435
0.0234863
0.0237143
0.0240766
0.0245669
0.0250867
0.0255096
0.025809
0.0259955
0.026108
0.0261684
0.026195
0.0262009
0.0261993
0.0261968
0.0178519
0.0178499
0.0178481
0.0178558
0.0178821
0.0179382
0.0180376
0.0182008
0.018452
0.0187954
0.0191617
0.0194576
0.019664
0.0197949
0.0198721
0.0199133
0.0199302
0.0199327
0.0199306
0.0199287
0.012414
0.0124122
0.0124094
0.0124128
0.0124285
0.0124632
0.0125281
0.012634
0.0127947
0.0130165
0.0132537
0.0134441
0.0135763
0.0136613
0.013711
0.0137362
0.0137455
0.0137454
0.0137429
0.0137414
0.00692047
0.00691918
0.00691652
0.00691686
0.00692417
0.00694227
0.00697614
0.00703197
0.00711625
0.00723304
0.0073595
0.00746156
0.00753235
0.00757711
0.0076023
0.00761397
0.00761659
0.00761398
0.00761138
0.0076104
0.00138911
0.00138888
0.00138668
0.00138282
0.00138241
0.00138459
0.00138976
0.00139883
0.0014131
0.00143363
0.00145927
0.00148343
0.00150096
0.00151246
0.00151933
0.00152302
0.00152399
0.00152221
0.00151807
0.00151734
-0.928569
-0.642276
-0.334369
-0.0883643
0.110114
0.271725
0.410796
0.529964
0.588284
0.562774
-0.426013
-0.240114
-0.0509353
0.11087
0.248633
0.365057
0.460841
0.530146
0.5658
0.574011
-0.0955583
0.0236285
0.147727
0.258345
0.354095
0.434619
0.498679
0.544925
0.575663
0.590492
0.126118
0.206654
0.2928
0.370358
0.437948
0.494963
0.541028
0.57624
0.602783
0.618988
0.288553
0.346036
0.406234
0.462864
0.512838
0.555735
0.591414
0.620073
0.64265
0.65916
0.414617
0.456577
0.503095
0.547295
0.586875
0.62167
0.651439
0.675713
0.69494
0.711522
0.520689
0.554583
0.594368
0.631566
0.665849
0.696444
0.722827
0.744264
0.760663
0.777368
0.617362
0.649817
0.687418
0.722593
0.754902
0.783653
0.808104
0.8277
0.841667
0.858523
0.717625
0.75286
0.791858
0.82732
0.858913
0.886443
0.909432
0.927363
0.939681
0.957041
0.835992
0.874823
0.914836
0.950318
0.980648
1.00615
1.02714
1.04348
1.05524
1.07333
0.98302
1.02212
1.05887
1.09024
1.11653
1.1391
1.15854
1.17436
1.18701
1.20507
1.15894
1.19112
1.21765
1.24038
1.26071
1.27975
1.29772
1.31443
1.32993
1.34807
1.34835
1.36576
1.38103
1.39737
1.4134
1.42815
1.44156
1.45564
1.47334
1.49353
1.53036
1.53999
1.55169
1.5627
1.57216
1.58182
1.59263
1.60407
1.61551
1.63092
1.73771
1.7414
1.7266
1.71205
1.70592
1.71163
1.73023
1.76052
1.79258
1.81921
2.04438
1.90959
1.83298
1.79045
1.77294
1.77707
1.80436
1.86083
1.96366
2.18809
0.297252
0.295254
0.290849
0.28247
0.270575
0.258867
0.249101
0.241621
0.236327
0.233219
0.232717
0.235001
0.239516
0.24611
0.254873
0.265828
0.278013
0.288685
0.294642
0.297514
0.221057
0.226997
0.233694
0.238742
0.241745
0.241954
0.239724
0.236339
0.233106
0.230887
0.230533
0.232372
0.235498
0.239156
0.242301
0.243515
0.241949
0.237834
0.232108
0.225245
0.212231
0.214553
0.218486
0.222195
0.224827
0.226707
0.22782
0.227952
0.227333
0.226693
0.226718
0.227534
0.228626
0.229197
0.228739
0.227344
0.225191
0.222107
0.218132
0.214857
0.206972
0.207819
0.210597
0.214323
0.217435
0.219639
0.221085
0.221957
0.222375
0.222514
0.222749
0.223158
0.223315
0.222967
0.222031
0.220369
0.21783
0.214392
0.210906
0.209184
0.206227
0.206495
0.207785
0.209816
0.211834
0.213859
0.215651
0.217004
0.217907
0.218498
0.218897
0.219058
0.218826
0.21807
0.216727
0.214929
0.213024
0.211075
0.209317
0.208636
0.205466
0.205575
0.20617
0.207211
0.208351
0.209445
0.210526
0.211642
0.212618
0.213386
0.213893
0.214038
0.213773
0.213164
0.212362
0.211576
0.210521
0.209496
0.208669
0.208382
0.203584
0.203628
0.203923
0.204533
0.205246
0.206191
0.207275
0.208222
0.209154
0.209992
0.210612
0.210845
0.210704
0.210306
0.20968
0.208841
0.208273
0.207684
0.207271
0.207149
0.20081
0.20083
0.200984
0.201336
0.201804
0.202371
0.203047
0.20384
0.204701
0.205568
0.206306
0.206717
0.20679
0.206641
0.206388
0.206096
0.205788
0.205485
0.205291
0.20524
0.197579
0.197591
0.197694
0.197936
0.198293
0.198759
0.199352
0.200074
0.200918
0.201852
0.202745
0.203364
0.203661
0.203738
0.203679
0.203552
0.203399
0.20325
0.203157
0.203131
0.193968
0.193973
0.194049
0.19422
0.19449
0.194876
0.195405
0.196105
0.196989
0.19804
0.199141
0.200009
0.200543
0.200834
0.200973
0.201017
0.201011
0.200982
0.200962
0.200954
0.190009
0.190013
0.190075
0.190221
0.190465
0.190833
0.191364
0.192101
0.19308
0.194312
0.195683
0.196846
0.197643
0.198152
0.198462
0.198642
0.198739
0.198785
0.198807
0.19881
0.185686
0.185686
0.185751
0.1859
0.186151
0.186543
0.187126
0.187961
0.189107
0.190597
0.192316
0.193839
0.194913
0.19566
0.196144
0.196448
0.196633
0.196739
0.196792
0.196804
0.180979
0.180977
0.181048
0.181215
0.181502
0.181954
0.182638
0.183634
0.185022
0.186861
0.189027
0.190981
0.192421
0.193409
0.194075
0.194506
0.194775
0.194934
0.195015
0.195035
0.175821
0.175818
0.175903
0.176103
0.176448
0.176996
0.177832
0.179055
0.180776
0.183077
0.185812
0.188308
0.190151
0.191443
0.192318
0.19289
0.19325
0.193466
0.193576
0.193604
0.17011
0.170105
0.170212
0.170461
0.17089
0.171574
0.172618
0.174152
0.176313
0.179212
0.18267
0.185839
0.188185
0.189837
0.190959
0.191695
0.192161
0.192441
0.192585
0.19262
0.163706
0.1637
0.163835
0.164152
0.164697
0.165565
0.166889
0.168832
0.17157
0.175239
0.179614
0.18362
0.186587
0.188679
0.190101
0.191035
0.191627
0.191983
0.192166
0.192212
0.156419
0.15641
0.156586
0.156994
0.157695
0.158808
0.160502
0.162983
0.16647
0.171128
0.17666
0.181713
0.185449
0.188082
0.189871
0.191047
0.191792
0.192241
0.192472
0.192529
0.147989
0.147979
0.148209
0.148742
0.149653
0.151093
0.153278
0.156467
0.160926
0.166848
0.173842
0.180199
0.184885
0.188184
0.190425
0.191897
0.192831
0.193394
0.193683
0.193754
0.138064
0.138051
0.138359
0.139065
0.140262
0.142143
0.144984
0.149107
0.154831
0.162373
0.171203
0.179176
0.185034
0.189153
0.191949
0.193788
0.194955
0.19566
0.196021
0.196109
0.126155
0.12614
0.126561
0.127513
0.129104
0.131586
0.135316
0.140687
0.148068
0.157679
0.168803
0.178768
0.186062
0.191186
0.194666
0.196958
0.198418
0.199302
0.199757
0.199865
0.111581
0.111568
0.112163
0.113469
0.115615
0.118938
0.123898
0.130957
0.140516
0.152762
0.166728
0.179119
0.188157
0.194509
0.198833
0.20169
0.203519
0.204638
0.205217
0.205351
0.0933575
0.0933589
0.0942339
0.0960719
0.0990301
0.103581
0.110294
0.119669
0.132093
0.147669
0.165103
0.1804
0.19153
0.199375
0.204743
0.20831
0.210611
0.212038
0.212787
0.21296
0.0699392
0.0699832
0.0713451
0.0740378
0.0782893
0.0847509
0.0940428
0.106628
0.122805
0.142523
0.164099
0.182801
0.196391
0.206031
0.212697
0.217176
0.220095
0.221927
0.222909
0.223145
0.0387506
0.0389201
0.0411941
0.045433
0.0519511
0.0615357
0.0746888
0.0917278
0.112763
0.137523
0.163914
0.186491
0.202901
0.214665
0.222947
0.228635
0.232421
0.234836
0.236153
0.23648
-0.00481334
-0.00426907
0.000111278
0.0075835
0.0183686
0.0331322
0.052023
0.0751098
0.102238
0.132927
0.164724
0.191557
0.211091
0.225297
0.235563
0.242879
0.24797
0.251388
0.253327
0.253768
-0.0690791
-0.0667533
-0.0566251
-0.0420749
-0.0232536
-0.000252932
0.0267068
0.0574967
0.0918134
0.129115
0.166694
0.197988
0.220817
0.237684
0.250242
0.259619
0.266581
0.271663
0.274808
0.27525
-0.146465
-0.142146
-0.123382
-0.0971728
-0.0677028
-0.0351478
0.000574243
0.0394909
0.0814506
0.126035
0.170363
0.207269
0.234574
0.255294
0.27134
0.283971
0.294096
0.30213
0.306128
0.307898
-0.225467
-0.213993
-0.185841
-0.149642
-0.110602
-0.0689657
-0.0247188
0.0222181
0.0717532
0.123585
0.174683
0.217196
0.248822
0.273091
0.292216
0.307591
0.320088
0.330237
0.336831
0.339931
-0.283118
-0.270615
-0.237587
-0.194959
-0.148758
-0.0997828
-0.0481869
0.00592974
0.0624303
0.120996
0.178265
0.225568
0.260524
0.287132
0.307839
0.3242
0.33724
0.347604
0.354449
0.357622
-0.328956
-0.316165
-0.27979
-0.232701
-0.181474
-0.126989
-0.0695182
-0.00932258
0.0532942
0.117878
0.180652
0.232103
0.269716
0.297955
0.31961
0.336482
0.349742
0.360151
0.367116
0.370087
-0.366034
-0.353447
-0.315122
-0.264762
-0.2097
-0.150919
-0.0887268
-0.0234383
0.0445424
0.114631
0.182531
0.237761
0.277681
0.307259
0.329624
0.346803
0.360133
0.370472
0.377437
0.380356
-0.397611
-0.385246
-0.345607
-0.292877
-0.234817
-0.172528
-0.106351
-0.0366469
0.0361072
0.111202
0.183876
0.24269
0.284814
0.315661
0.338689
0.356167
0.369589
0.379908
0.38693
0.389795
-0.42539
-0.41318
-0.372624
-0.318082
-0.257689
-0.192551
-0.12303
-0.0495261
0.0275056
0.107302
0.184676
0.24714
0.291553
0.323746
0.347506
0.365331
0.378882
0.389203
0.396276
0.399093
-0.450598
-0.438464
-0.397202
-0.341231
-0.278976
-0.211525
-0.139188
-0.0623243
0.0186218
0.102914
0.184991
0.251273
0.298177
0.331886
0.356499
0.37476
0.388498
0.398844
0.40599
0.408754
-0.47406
-0.461944
-0.420068
-0.362932
-0.299128
-0.229738
-0.15501
-0.0752224
0.00928369
0.0978787
0.184745
0.255133
0.304835
0.340308
0.365953
0.384767
0.398763
0.409199
0.416311
0.419028
-0.496264
-0.484139
-0.441706
-0.383601
-0.318535
-0.247524
-0.17077
-0.0884277
-0.000671556
0.0920749
0.183847
0.258694
0.311578
0.349139
0.376048
0.395565
0.409905
0.420481
0.427624
0.430294
-0.517563
-0.505325
-0.462346
-0.403464
-0.337367
-0.265012
-0.186561
-0.10203
-0.011346
0.0853798
0.182173
0.261863
0.318376
0.35842
0.386889
0.4073
0.422107
0.432872
0.440055
0.442697
-0.538085
-0.525711
-0.482215
-0.422659
-0.355698
-0.28227
-0.202434
-0.116067
-0.022806
0.0776927
0.179592
0.264494
0.325126
0.368108
0.3985
0.420059
0.435484
0.446543
0.45377
0.456381
-0.557794
-0.545236
-0.501369
-0.441266
-0.373558
-0.299295
-0.218392
-0.130547
-0.0350699
0.0689245
0.175965
0.266426
0.331654
0.378079
0.410829
0.433864
0.450108
0.461558
0.468876
0.471493
-0.576812
-0.564038
-0.519751
-0.459203
-0.390939
-0.316057
-0.234381
-0.14543
-0.0481281
0.0590498
0.171165
0.267461
0.337728
0.388124
0.423734
0.448637
0.465979
0.47797
0.485445
0.488007
-0.595054
-0.582149
-0.537468
-0.476455
-0.407796
-0.33249
-0.250328
-0.160642
-0.0619415
0.0480527
0.165098
0.267401
0.343078
0.397927
0.436936
0.464183
0.482998
0.495791
0.503539
0.505988
-0.612521
-0.599403
-0.554433
-0.492986
-0.424062
-0.348527
-0.26615
-0.17609
-0.076432
0.0359496
0.157718
0.266086
0.347418
0.407056
0.450046
0.48029
0.500991
0.514793
0.522847
0.525151
-0.628988
-0.615771
-0.57048
-0.508743
-0.439654
-0.364072
-0.281752
-0.191672
-0.0915048
0.0228039
0.149012
0.263416
0.350407
0.415052
0.462526
0.496593
0.519912
0.534976
0.543187
0.545192
-0.644637
-0.631297
-0.585633
-0.523698
-0.454536
-0.379068
-0.297027
-0.207281
-0.10705
0.00870881
0.138998
0.259296
0.351779
0.421334
0.47366
0.51243
0.539591
0.556481
0.564359
0.565538
-0.659359
-0.645878
-0.599901
-0.537788
-0.46864
-0.393435
-0.311886
-0.222786
-0.122932
-0.0062553
0.127765
0.253711
0.351312
0.425416
0.482512
0.52668
0.55952
0.580202
0.587201
0.585353
-0.673223
-0.659565
-0.613227
-0.55098
-0.481941
-0.407115
-0.326247
-0.238091
-0.139028
-0.0219352
0.115421
0.246725
0.349047
0.426752
0.487484
0.537119
0.577611
0.606695
0.6169
0.606249
-0.686173
-0.672385
-0.625702
-0.563391
-0.494602
-0.420345
-0.340411
-0.253609
-0.155903
-0.0390415
0.101238
0.237859
0.344557
0.424964
0.487269
0.540959
0.589188
0.630575
0.647725
0.645389
-0.698236
-0.684176
-0.637307
-0.575006
-0.50663
-0.433134
-0.354349
-0.269324
-0.173605
-0.0577348
0.08498