/*--------------------------------*- C++ -*----------------------------------*\
  =========                 |
  \\      /  F ield         | OpenFOAM: The Open Source CFD Toolbox
   \\    /   O peration     | Website:  https://openfoam.org
    \\  /    A nd           | Version:  7
     \\/     M anipulation  |
\*---------------------------------------------------------------------------*/
FoamFile
{
    version     2.0;
    format      ascii;
    class       volScalarField;
    location    "4.95";
    object      T;
}
// * * * * * * * * * * * * * * * * * * * * * * * * * * * * * * * * * * * * * //

dimensions      [0 0 0 1 0 0 0];

internalField   nonuniform List<scalar> 
1000
(
0.00530594
0.00530601
0.00530615
0.00530636
0.00530665
0.00530701
0.00530745
0.00530796
0.00530854
0.0053092
0.00530994
0.00531076
0.00531166
0.00531263
0.00531369
0.00531482
0.00531604
0.00531734
0.00531873
0.0053202
0.00532175
0.00532339
0.00532511
0.00532693
0.00532883
0.00533082
0.00533289
0.00533506
0.00533732
0.00533968
0.00534212
0.00534466
0.0053473
0.00535003
0.00535285
0.00535577
0.0053588
0.00536191
0.00536513
0.00536845
0.00537187
0.0053754
0.00537902
0.00538275
0.00538659
0.00539053
0.00539458
0.00539873
0.005403
0.00540737
0.00541186
0.00541645
0.00542116
0.00542598
0.00543091
0.00543596
0.00544112
0.00544641
0.00545181
0.00545732
0.00546296
0.00546872
0.0054746
0.0054806
0.00548673
0.00549298
0.00549935
0.00550586
0.00551249
0.00551925
0.00552613
0.00553315
0.0055403
0.00554758
0.005555
0.00556255
0.00557023
0.00557806
0.00558602
0.00559412
0.00560235
0.00561073
0.00561925
0.00562792
0.00563673
0.00564568
0.00565478
0.00566402
0.00567342
0.00568296
0.00569265
0.0057025
0.0057125
0.00572265
0.00573295
0.00574342
0.00575404
0.00576481
0.00577575
0.00578685
0.00579811
0.00580953
0.00582111
0.00583286
0.00584478
0.00585686
0.00586911
0.00588154
0.00589413
0.00590689
0.00591983
0.00593294
0.00594623
0.00595969
0.00597333
0.00598715
0.00600115
0.00601534
0.0060297
0.00604425
0.00605899
0.00607391
0.00608901
0.00610431
0.0061198
0.00613548
0.00615135
0.00616741
0.00618367
0.00620013
0.00621678
0.00623363
0.00625069
0.00626794
0.0062854
0.00630306
0.00632092
0.006339
0.00635728
0.00637577
0.00639447
0.00641338
0.0064325
0.00645184
0.00647139
0.00649117
0.00651116
0.00653137
0.0065518
0.00657245
0.00659333
0.00661443
0.00663576
0.00665731
0.0066791
0.00670111
0.00672336
0.00674584
0.00676856
0.00679151
0.0068147
0.00683812
0.00686179
0.0068857
0.00690985
0.00693425
0.00695889
0.00698378
0.00700892
0.00703431
0.00705994
0.00708584
0.00711198
0.00713838
0.00716504
0.00719196
0.00721914
0.00724657
0.00727428
0.00730224
0.00733047
0.00735897
0.00738774
0.00741678
0.00744608
0.00747567
0.00750552
0.00753566
0.00756607
0.00759675
0.00762772
0.00765897
0.00769051
0.00772233
0.00775443
0.00778683
0.00781951
0.00785248
0.00788575
0.00791931
0.00795316
0.00798731
0.00802176
0.00805651
0.00809157
0.00812692
0.00816258
0.00819854
0.00823482
0.0082714
0.00830829
0.00834549
0.00838301
0.00842084
0.00845899
0.00849746
0.00853625
0.00857536
0.00861479
0.00865455
0.00869463
0.00873504
0.00877578
0.00881685
0.00885825
0.00889998
0.00894205
0.00898446
0.00902721
0.00907029
0.00911372
0.00915749
0.0092016
0.00924606
0.00929087
0.00933603
0.00938154
0.0094274
0.00947362
0.00952019
0.00956712
0.00961441
0.00966205
0.00971006
0.00975844
0.00980718
0.00985628
0.00990576
0.0099556
0.0100058
0.0100564
0.0101074
0.0101587
0.0102104
0.0102625
0.010315
0.0103678
0.0104211
0.0104747
0.0105287
0.0105831
0.0106379
0.0106931
0.0107487
0.0108047
0.0108611
0.0109178
0.010975
0.0110326
0.0110905
0.0111489
0.0112077
0.0112669
0.0113265
0.0113865
0.0114469
0.0115078
0.011569
0.0116307
0.0116928
0.0117553
0.0118182
0.0118816
0.0119454
0.0120096
0.0120742
0.0121393
0.0122048
0.0122707
0.012337
0.0124038
0.0124711
0.0125387
0.0126069
0.0126754
0.0127444
0.0128139
0.0128837
0.0129541
0.0130249
0.0130961
0.0131678
0.0132399
0.0133125
0.0133856
0.0134591
0.0135331
0.0136075
0.0136824
0.0137577
0.0138336
0.0139099
0.0139866
0.0140639
0.0141416
0.0142197
0.0142984
0.0143775
0.0144571
0.0145372
0.0146178
0.0146988
0.0147803
0.0148623
0.0149448
0.0150278
0.0151113
0.0151952
0.0152797
0.0153646
0.0154501
0.015536
0.0156225
0.0157094
0.0157968
0.0158847
0.0159732
0.0160621
0.0161516
0.0162415
0.016332
0.0164229
0.0165144
0.0166064
0.0166989
0.0167919
0.0168854
0.0169795
0.017074
0.0171691
0.0172647
0.0173608
0.0174575
0.0175546
0.0176523
0.0177505
0.0178493
0.0179486
0.0180484
0.0181487
0.0182496
0.018351
0.0184529
0.0185554
0.0186584
0.018762
0.018866
0.0189707
0.0190758
0.0191815
0.0192878
0.0193946
0.0195019
0.0196098
0.0197183
0.0198273
0.0199368
0.0200469
0.0201575
0.0202687
0.0203805
0.0204928
0.0206056
0.020719
0.020833
0.0209475
0.0210626
0.0211783
0.0212945
0.0214113
0.0215286
0.0216465
0.021765
0.021884
0.0220036
0.0221237
0.0222445
0.0223658
0.0224876
0.0226101
0.0227331
0.0228567
0.0229808
0.0231055
0.0232308
0.0233567
0.0234832
0.0236102
0.0237378
0.023866
0.0239947
0.0241241
0.024254
0.0243845
0.0245156
0.0246472
0.0247795
0.0249123
0.0250457
0.0251797
0.0253142
0.0254494
0.0255851
0.0257215
0.0258584
0.0259959
0.0261339
0.0262726
0.0264119
0.0265517
0.0266921
0.0268331
0.0269748
0.0271169
0.0272597
0.0274031
0.0275471
0.0276916
0.0278368
0.0279825
0.0281288
0.0282757
0.0284232
0.0285713
0.02872
0.0288693
0.0290192
0.0291696
0.0293207
0.0294723
0.0296246
0.0297774
0.0299308
0.0300848
0.0302394
0.0303946
0.0305504
0.0307068
0.0308637
0.0310213
0.0311794
0.0313382
0.0314975
0.0316574
0.031818
0.0319791
0.0321408
0.032303
0.0324659
0.0326294
0.0327934
0.0329581
0.0331233
0.0332891
0.0334555
0.0336225
0.0337901
0.0339582
0.034127
0.0342963
0.0344663
0.0346368
0.0348079
0.0349795
0.0351518
0.0353246
0.035498
0.035672
0.0358466
0.0360218
0.0361975
0.0363738
0.0365507
0.0367282
0.0369063
0.0370849
0.0372641
0.0374439
0.0376242
0.0378051
0.0379866
0.0381687
0.0383513
0.0385345
0.0387183
0.0389026
0.0390875
0.039273
0.039459
0.0396456
0.0398327
0.0400205
0.0402087
0.0403976
0.040587
0.0407769
0.0409674
0.0411585
0.0413501
0.0415422
0.0417349
0.0419282
0.042122
0.0423163
0.0425112
0.0427067
0.0429026
0.0430992
0.0432962
0.0434938
0.043692
0.0438906
0.0440898
0.0442896
0.0444898
0.0446906
0.0448919
0.0450938
0.0452961
0.045499
0.0457025
0.0459064
0.0461108
0.0463158
0.0465213
0.0467273
0.0469338
0.0471408
0.0473483
0.0475563
0.0477648
0.0479738
0.0481833
0.0483934
0.0486039
0.0488149
0.0490264
0.0492384
0.0494508
0.0496638
0.0498772
0.0500911
0.0503055
0.0505204
0.0507358
0.0509516
0.0511679
0.0513846
0.0516018
0.0518195
0.0520377
0.0522563
0.0524753
0.0526949
0.0529148
0.0531352
0.0533561
0.0535774
0.0537992
0.0540213
0.054244
0.054467
0.0546905
0.0549144
0.0551388
0.0553635
0.0555887
0.0558143
0.0560404
0.0562668
0.0564937
0.0567209
0.0569486
0.0571767
0.0574051
0.057634
0.0578632
0.0580929
0.0583229
0.0585533
0.0587842
0.0590153
0.0592469
0.0594788
0.0597112
0.0599438
0.0601769
0.0604103
0.060644
0.0608782
0.0611126
0.0613475
0.0615826
0.0618181
0.062054
0.0622902
0.0625267
0.0627636
0.0630007
0.0632383
0.0634761
0.0637142
0.0639527
0.0641915
0.0644306
0.0646699
0.0649096
0.0651496
0.0653899
0.0656305
0.0658713
0.0661125
0.0663539
0.0665956
0.0668376
0.0670799
0.0673224
0.0675652
0.0678082
0.0680515
0.068295
0.0685388
0.0687829
0.0690272
0.0692717
0.0695165
0.0697615
0.0700067
0.0702521
0.0704978
0.0707437
0.0709898
0.0712361
0.0714826
0.0717293
0.0719762
0.0722233
0.0724706
0.0727181
0.0729657
0.0732136
0.0734616
0.0737098
0.0739581
0.0742066
0.0744553
0.0747041
0.0749531
0.0752022
0.0754515
0.0757009
0.0759505
0.0762001
0.0764499
0.0766999
0.0769499
0.0772001
0.0774503
0.0777007
0.0779512
0.0782017
0.0784524
0.0787032
0.078954
0.079205
0.079456
0.079707
0.0799582
0.0802094
0.0804607
0.080712
0.0809634
0.0812148
0.0814663
0.0817178
0.0819694
0.082221
0.0824726
0.0827242
0.0829759
0.0832276
0.0834792
0.0837309
0.0839826
0.0842343
0.084486
0.0847376
0.0849893
0.0852409
0.0854925
0.0857441
0.0859956
0.0862471
0.0864986
0.08675
0.0870014
0.0872527
0.0875039
0.0877551
0.0880062
0.0882573
0.0885082
0.0887591
0.0890099
0.0892606
0.0895112
0.0897617
0.0900121
0.0902624
0.0905126
0.0907627
0.0910126
0.0912624
0.0915121
0.0917616
0.092011
0.0922603
0.0925094
0.0927584
0.0930072
0.0932558
0.0935042
0.0937525
0.0940007
0.0942486
0.0944963
0.0947439
0.0949913
0.0952384
0.0954854
0.0957321
0.0959787
0.096225
0.0964711
0.0967169
0.0969626
0.097208
0.0974531
0.097698
0.0979427
0.0981871
0.0984312
0.0986751
0.0989187
0.099162
0.0994051
0.0996479
0.0998903
0.100133
0.100374
0.100616
0.100857
0.101098
0.101339
0.101579
0.101819
0.102059
0.102298
0.102537
0.102776
0.103014
0.103252
0.10349
0.103727
0.103964
0.104201
0.104437
0.104672
0.104908
0.105143
0.105377
0.105611
0.105845
0.106079
0.106311
0.106544
0.106776
0.107008
0.107239
0.10747
0.1077
0.10793
0.108159
0.108388
0.108617
0.108845
0.109073
0.1093
0.109526
0.109752
0.109978
0.110203
0.110428
0.110652
0.110876
0.111099
0.111321
0.111543
0.111765
0.111986
0.112206
0.112426
0.112646
0.112864
0.113083
0.1133
0.113517
0.113734
0.11395
0.114165
0.11438
0.114594
0.114808
0.115021
0.115233
0.115445
0.115656
0.115866
0.116076
0.116285
0.116494
0.116702
0.116909
0.117115
0.117321
0.117527
0.117731
0.117935
0.118138
0.118341
0.118543
0.118744
0.118944
0.119144
0.119343
0.119541
0.119738
0.119935
0.120131
0.120327
0.120521
0.120715
0.120908
0.1211
0.121292
0.121482
0.121672
0.121861
0.122049
0.122237
0.122424
0.122609
0.122794
0.122979
0.123162
0.123344
0.123526
0.123707
0.123887
0.124066
0.124244
0.124421
0.124598
0.124773
0.124948
0.125122
0.125294
0.125466
0.125637
0.125807
0.125976
0.126144
0.126311
0.126478
0.126643
0.126807
0.12697
0.127132
0.127294
0.127454
0.127613
0.127771
0.127928
0.128085
0.12824
0.128394
0.128547
0.128698
0.128849
0.128999
0.129147
0.129295
0.129441
0.129586
0.129731
0.129874
0.130015
0.130156
0.130296
0.130434
0.130571
0.130707
0.130842
0.130975
0.131107
0.131238
0.131368
0.131497
0.131624
0.13175
0.131875
0.131998
0.13212
0.132241
0.132361
0.132479
0.132595
0.132711
0.132825
0.132938
0.133049
0.133159
0.133267
0.133374
0.13348
0.133584
0.133686
0.133788
0.133887
0.133985
0.134082
0.134177
0.134271
0.134363
0.134453
0.134542
0.134629
0.134715
0.134799
0.134881
0.134962
0.135041
0.135118
0.135194
0.135268
0.13534
0.13541
0.135479
0.135546
0.135611
0.135674
0.135736
0.135795
0.135853
0.135909
0.135963
0.136015
0.136065
0.136113
0.136159
0.136204
0.136246
0.136286
0.136324
0.13636
0.136394
0.136426
0.136455
0.136483
0.136508
0.136531
0.136552
0.136571
0.136587
0.136602
0.136613
0.136623
0.13663
0.136635
0.136637
)
;

boundaryField
{
    sides
    {
        type            zeroGradient;
    }
    empty
    {
        type            empty;
    }
}


// ************************************************************************* //
