/*--------------------------------*- C++ -*----------------------------------*\
  =========                 |
  \\      /  F ield         | OpenFOAM: The Open Source CFD Toolbox
   \\    /   O peration     | Website:  https://openfoam.org
    \\  /    A nd           | Version:  7
     \\/     M anipulation  |
\*---------------------------------------------------------------------------*/
FoamFile
{
    version     2.0;
    format      ascii;
    class       volScalarField;
    location    "7";
    object      p;
}
// * * * * * * * * * * * * * * * * * * * * * * * * * * * * * * * * * * * * * //

dimensions      [1 -1 -2 0 0 0 0];

internalField   nonuniform List<scalar> 
19968
(
1
1
1
1
1
1
1
1
1
1
1
1
1
1
1
1
1
1
1
1
1
1
1
1
1
1
1
1
1
1
1
1
1
1
1
1
1
1
1
1
1
1
1
1
1
1
1
1
1.55292
8.03956
10.4149
10.4611
10.5252
10.5834
10.6388
10.6916
10.7446
10.7996
10.8563
10.9118
10.9646
11.0149
11.0645
11.1135
11.1609
11.2075
11.2549
11.3026
11.3494
11.3946
11.4387
11.4816
11.5226
11.5606
11.5949
11.6259
11.6553
11.6852
11.717
11.7507
11.7848
11.8168
11.8446
11.8676
11.8868
11.9042
11.9221
11.9426
11.966
11.9902
12.0114
12.0264
12.0341
12.0358
12.0345
12.0318
1
1
1
1
1
1
1
1
1
1
1
1
1
1
1
1
1
1
1
1
1
1
1
1
1
1
1
1
1
1
1
1
1
1
1
1
1
1
1
1
1
1
1
1
1
1
1
1
1.52392
7.97555
10.4075
10.4563
10.5245
10.5833
10.6387
10.6917
10.7442
10.798
10.8537
10.9089
10.9622
11.0132
11.063
11.1118
11.1588
11.2051
11.2519
11.299
11.3452
11.39
11.4338
11.4765
11.5173
11.5551
11.5894
11.6208
11.6509
11.6815
11.7141
11.7484
11.7827
11.8144
11.8413
11.8632
11.8813
11.898
11.9158
11.9365
11.9601
11.9842
12.0051
12.0197
12.027
12.0286
12.0273
12.0246
1
1
1
1
1
1
1
1
1
1
1
1
1
1
1
1
1
1
1
1
1
1
1
1
1
1
1
1
1
1
1
1
1
1
1
1
1
1
1
1
1
1
1
1
1
1
1
1
1.45424
7.82954
10.4002
10.4491
10.5188
10.5772
10.6331
10.6864
10.7383
10.7909
10.8459
10.9011
10.9552
11.0073
11.0574
11.1061
11.1526
11.1988
11.2451
11.2917
11.3372
11.3814
11.4247
11.4668
11.5072
11.5448
11.5794
11.6114
11.6423
11.6738
11.7073
11.7423
11.777
11.8086
11.8349
11.8556
11.8723
11.8881
11.9055
11.9263
11.9502
11.9744
11.9951
12.0094
12.0166
12.0182
12.017
12.0146
1
1
1
1
1
1
1
1
1
1
1
1
1
1
1
1
1
1
1
1
1
1
1
1
1
1
1
1
1
1
1
1
1
1
1
1
1
1
1
1
1
1
1
1
1
1
1
1
1.35442
7.58769
10.3926
10.4457
10.5121
10.5695
10.625
10.6782
10.7295
10.7812
10.8358
10.8911
10.9462
10.9991
11.0489
11.0971
11.1429
11.1887
11.2347
11.2808
11.3256
11.3692
11.4117
11.4531
11.4928
11.5303
11.5653
11.5983
11.6304
11.6632
11.6977
11.7335
11.7683
11.7991
11.8239
11.8426
11.8575
11.8718
11.8886
11.9093
11.9332
11.9574
11.9779
11.9921
11.9995
12.0016
12.001
11.9991
1
1
1
1
1
1
1
1
1
1
1
1
1
1
1
1
1
1
1
1
1
1
1
1
1
1
1
1
1
1
1
1
1
1
1
1
1
1
1
1
1
1
1
1
1
1
1
1
1.23064
7.26625
10.3814
10.441
10.5028
10.5589
10.6139
10.6673
10.7184
10.7694
10.8233
10.8787
10.9341
10.9874
11.0369
11.0844
11.1296
11.1755
11.2215
11.2675
11.3119
11.3548
11.3963
11.4367
11.4758
11.5131
11.5487
11.5827
11.6161
11.6502
11.6857
11.722
11.7567
11.7869
11.8104
11.8276
11.841
11.8542
11.8701
11.8901
11.913
11.9358
11.9547
11.9675
11.9741
11.976
11.9754
11.974
1
1
1
1
1
1
1
1
1
1
1
1
1
1
1
1
1
1
1
1
1
1
1
1
1
1
1
1
1
1
1
1
1
1
1
1
1
1
1
1
1
1
1
1
1
1
1
1
1.0197
6.73588
10.3782
10.4449
10.5016
10.5581
10.612
10.664
10.7133
10.7623
10.8142
10.8687
10.9237
10.9766
11.025
11.071
11.1148
11.1599
11.2053
11.2507
11.294
11.3355
11.3754
11.4141
11.4518
11.4883
11.5237
11.5581
11.5921
11.6266
11.6622
11.6982
11.7321
11.7613
11.7838
11.8002
11.8132
11.8263
11.8423
11.8622
11.8848
11.9069
11.9251
11.9374
11.9439
11.9463
11.9463
11.9455
1
1
1
1
1
1
1
1
1
1
1
1
1
1
1
1
1
1
1
1
1
1
1
1
1
1
1
1
1
1
1
1
1
1
1
1
1
1
1
1
1
1
1
1
1
1
1
1
1.00013
6.00635
10.3053
10.3964
10.4508
10.5115
10.5673
10.6204
10.6704
10.7203
10.7724
10.8275
10.8828
10.9364
10.986
11.0327
11.0774
11.1233
11.1692
11.2147
11.2576
11.2985
11.3377
11.3757
11.4129
11.4494
11.4852
11.5202
11.555
11.5901
11.6257
11.661
11.6937
11.7217
11.7438
11.7606
11.7746
11.7887
11.8052
11.8249
11.8464
11.8669
11.8836
11.8949
11.9012
11.9039
11.9043
11.9042
1
1
1
1
1
1
1
1
1
1
1
1
1
1
1
1
1
1
1
1
1
1
1
1
1
1
1
1
1
1
1
1
1
1
1
1
1
1
1
1
1
1
1
1
1
1
1
1
1
5.06841
10.1748
10.3608
10.4192
10.4844
10.5415
10.5943
10.6437
10.6929
10.7437
10.7974
10.8519
10.9048
10.9543
11.0009
11.0459
11.0918
11.1373
11.1818
11.2233
11.2627
11.3005
11.3374
11.3738
11.4097
11.4451
11.48
11.5146
11.5493
11.584
11.6177
11.6485
11.6749
11.6963
11.7137
11.7289
11.7442
11.7611
11.7801
11.7999
11.8183
11.833
11.843
11.849
11.8516
11.8521
11.8524
1
1
1
1
1
1
1
1
1
1
1
1
1
1
1
1
1
1
1
1
1
1
1
1
1
1
1
1
1
1
1
1
1
1
1
1
1
1
1
1
1
1
1
1
1
1
1
1
1
3.98844
9.89292
10.3205
10.382
10.451
10.5101
10.5638
10.6131
10.6616
10.7111
10.7624
10.8155
10.8676
10.917
10.9632
11.0081
11.0533
11.0971
11.1397
11.1787
11.2159
11.2516
11.2867
11.3215
11.3558
11.39
11.4241
11.4581
11.4919
11.5252
11.5569
11.5855
11.6102
11.6311
11.6492
11.6659
11.6826
11.7003
11.7189
11.7375
11.7541
11.7672
11.776
11.7813
11.7838
11.7847
11.7851
1
1
1
1
1
1
1
1
1
1
1
1
1
1
1
1
1
1
1
1
1
1
1
1
1
1
1
1
1
1
1
1
1
1
1
1
1
1
1
1
1
1
1
1
1
1
1
1
1
2.86626
9.33434
10.3023
10.3654
10.4347
10.4948
10.5471
10.5932
10.6381
10.6844
10.7317
10.7822
10.8327
10.8809
10.9256
10.9691
11.0126
11.0541
11.0945
11.1313
11.1657
11.1987
11.2308
11.2628
11.2942
11.3257
11.3575
11.3894
11.4211
11.4519
11.4807
11.5067
11.5296
11.55
11.5688
11.5869
11.6051
11.6234
11.6415
11.6583
11.6724
11.6829
11.6898
11.6931
11.6943
11.6951
11.6951
1
1
1
1
1
1
1
1
1
1
1
1
1
1
1
1
1
1
1
1
1
1
1
1
1
1
1
1
1
1
1
1
1
1
1
1
1
1
1
1
1
1
1
1
1
1
1
1
1
1.8349
8.37987
10.3265
10.3328
10.405
10.4568
10.5073
10.5518
10.5959
10.6427
10.69
10.7401
10.7901
10.8375
10.8808
10.9227
10.9642
11.0035
11.042
11.0776
11.1103
11.1414
11.171
11.2003
11.2292
11.2581
11.2873
11.3163
11.3445
11.371
11.395
11.4162
11.4347
11.4515
11.4677
11.4839
11.5006
11.5176
11.5344
11.5497
11.5624
11.5717
11.5777
11.5803
11.5808
11.5813
11.5811
1
1
1
1
1
1
1
1
1
1
1
1
1
1
1
1
1
1
1
1
1
1
1
1
1
1
1
1
1
1
1
1
1
1
1
1
1
1
1
1
1
1
1
1
1
1
1
1
1
1.03247
6.70713
10.3417
10.3629
10.405
10.4466
10.4923
10.5327
10.5716
10.6127
10.6544
10.6993
10.7459
10.7896
10.8283
10.8651
10.9017
10.9367
10.9712
11.0041
11.0339
11.062
11.0887
11.1149
11.1411
11.1673
11.1936
11.2197
11.2447
11.2677
11.2878
11.305
11.3199
11.3338
11.3479
11.3629
11.3787
11.3946
11.4093
11.4213
11.4293
11.433
11.4321
11.4276
11.4233
11.4199
11.4172
1
1
1
1
1
1
1
1
1
1
1
1
1
1
1
1
1
1
1
1
1
1
1
1
1
1
1
1
1
1
1
1
1
1
1
1
1
1
1
1
1
1
1
1
1
1
1
1
1
1.00006
4.61742
9.91377
10.1963
10.2632
10.3256
10.3814
10.4287
10.4709
10.5127
10.5548
10.5982
10.6435
10.6867
10.7254
10.7611
10.7965
10.8304
10.8631
10.8943
10.9228
10.9493
10.975
11.0002
11.0253
11.0497
11.0734
11.0962
11.1176
11.1367
11.1526
11.1652
11.1746
11.1822
11.1896
11.1977
11.2067
11.2153
11.2223
11.2271
11.2294
11.2296
11.2273
11.2228
11.218
11.213
11.2092
1
1
1
1
1
1
1
1
1
1
1
1
1
1
1
1
1
1
1
1
1
1
1
1
1
1
1
1
1
1
1
1
1
1
1
1
1
1
1
1
1
1
1
1
1
1
1
1
1
1
2.39511
8.78888
10.1508
10.1946
10.2727
10.3312
10.3791
10.419
10.4566
10.4947
10.5339
10.5752
10.6153
10.6515
10.684
10.7155
10.7457
10.7739
10.8003
10.8246
10.8467
10.8682
10.8895
10.91
10.9289
10.9461
10.9617
10.9759
10.9883
10.9983
11.0046
11.0067
11.0059
11.0042
11.0038
11.0057
11.0082
11.0098
11.0086
11.0039
10.9943
10.9785
10.9533
10.9214
10.8879
10.859
1
1
1
1
1
1
1
1
1
1
1
1
1
1
1
1
1
1
1
1
1
1
1
1
1
1
1
1
1
1
1
1
1
1
1
1
1
1
1
1
1
1
1
1
1
1
1
1
1
1
1.05904
6.38733
10.2266
10.2392
10.2614
10.2935
10.3261
10.3569
10.3859
10.4154
10.447
10.4811
10.5161
10.5487
10.5778
10.6051
10.6311
10.6551
10.6769
10.6968
10.7143
10.7304
10.7465
10.7616
10.7741
10.7832
10.7895
10.7943
10.7988
10.8022
10.8016
10.796
10.7846
10.7695
10.7529
10.7359
10.717
10.6935
10.6627
10.6242
10.5786
10.5275
10.4787
10.431
10.402
10.3837
1
1
1
1
1
1
1
1
1
1
1
1
1
1
1
1
1
1
1
1
1
1
1
1
1
1
1
1
1
1
1
1
1
1
1
1
1
1
1
1
1
1
1
1
1
1
1
1
1
1
1.00009
3.29406
9.30424
10.0619
10.1067
10.1536
10.1969
10.2373
10.2731
10.3049
10.3349
10.3649
10.3953
10.4248
10.4526
10.4788
10.5034
10.5253
10.5438
10.5591
10.5713
10.5811
10.5901
10.5984
10.6037
10.6034
10.598
10.5893
10.58
10.5709
10.5599
10.5436
10.5202
10.4888
10.4504
10.4067
10.3588
10.3063
10.2487
10.1863
10.1187
10.0459
9.95498
9.8642
9.74023
9.82148
1
1
1
1
1
1
1
1
1
1
1
1
1
1
1
1
1
1
1
1
1
1
1
1
1
1
1
1
1
1
1
1
1
1
1
1
1
1
1
1
1
1
1
1
1
1
1
1
1
1
1
1.25199
7.36527
10.075
10.0674
10.0879
10.1214
10.1591
10.1954
10.2263
10.252
10.2749
10.2975
10.3205
10.3434
10.3656
10.3864
10.4044
10.4188
10.4293
10.436
10.4395
10.4408
10.4406
10.4385
10.4307
10.4159
10.3951
10.371
10.3467
10.3219
10.2931
10.2568
10.2095
10.149
10.0756
9.98984
9.89229
9.77722
9.63956
9.45744
9.21227
8.83862
8.28309
7.34531
5.45296
1
1
1
1
1
1
1
1
1
1
1
1
1
1
1
1
1
1
1
1
1
1
1
1
1
1
1
1
1
1
1
1
1
1
1
1
1
1
1
1
1
1
1
1
1
1
1
1
1
1
1
1.00217
4.68094
9.61724
9.90249
9.95152
10.0019
10.05
10.096
10.1322
10.158
10.1773
10.1945
10.2125
10.2313
10.25
10.2679
10.2838
10.2967
10.3055
10.3095
10.309
10.3043
10.2969
10.2879
10.2739
10.2532
10.2251
10.1907
10.1529
10.113
10.0696
10.0189
9.95639
9.87674
9.77773
9.65595
9.51444
9.342
9.13812
8.86768
8.52113
8.01415
7.35142
6.13864
4.51401
1
1
1
1
1
1
1
1
1
1
1
1
1
1
1
1
1
1
1
1
1
1
1
1
1
1
1
1
1
1
1
1
1
1
1
1
1
1
1
1
1
1
1
1
1
1
1
1
1
1
1
0.999996
1.96957
8.22845
9.86355
9.87964
9.93459
9.97976
10.0262
10.0615
10.084
10.1007
10.1145
10.1278
10.1416
10.1549
10.1671
10.1774
10.1845
10.1882
10.1877
10.1829
10.1726
10.1579
10.1398
10.1166
10.0877
10.0518
10.0085
9.95886
9.90394
9.84424
9.77617
9.69661
9.59773
9.47653
9.3248
9.14594
8.92924
8.6722
8.35347
7.94378
7.41673
6.6644
5.65111
4.57896
1
1
1
1
1
1
1
1
1
1
1
1
1
1
1
1
1
1
1
1
1
1
1
1
1
1
1
1
1
1
1
1
1
1
1
1
1
1
1
1
1
1
1
1
1
1
1
1
1
1
1
0.999999
1.03436
5.39125
9.66405
9.84878
9.88932
9.91814
9.94484
9.96706
9.98284
10.0011
10.0176
10.0308
10.0423
10.0528
10.0603
10.0646
10.0651
10.0615
10.0546
10.0451
10.0311
10.0123
9.98729
9.95584
9.91752
9.87221
9.81966
9.76064
9.69396
9.62075
9.53673
9.44067
9.32417
9.1844
9.01261
8.80845
8.56556
8.27709
7.93454
7.50804
6.99399
6.32399
5.54151
4.74787
1
1
1
1
1
1
1
1
1
1
1
1
1
1
1
1
1
1
1
1
1
1
1
1
1
1
1
1
1
1
1
1
1
1
1
1
1
1
1
1
1
1
1
1
1
1
1
1
1
1
1
1
1.00001
2.18055
8.37497
9.84697
9.81355
9.84743
9.87225
9.89052
9.90113
9.91363
9.92716
9.93725
9.94647
9.95361
9.95752
9.9561
9.94882
9.93604
9.92045
9.90377
9.88574
9.86421
9.83551
9.79854
9.75197
9.6969
9.6337
9.56486
9.48835
9.40467
9.30851
9.19813
9.06686
8.91238
8.72915
8.51403
8.26257
7.96652
7.62331
7.21092
6.73396
6.18556
5.57309
4.93919
1
1
1
1
1
1
1
1
1
1
1
1
1
1
1
1
1
1
1
1
1
1
1
1
1
1
1
1
1
1
1
1
1
1
1
1
1
1
1
1
1
1
1
1
1
1
1
1
1
1
1
1
0.999999
1.04577
5.44089
9.68434
9.74771
9.77223
9.78941
9.80477
9.81692
9.82822
9.84008
9.84679
9.85154
9.85355
9.8542
9.84882
9.83625
9.81679
9.79254
9.76634
9.73933
9.71161
9.67919
9.63939
9.58879
9.52737
9.45511
9.37655
9.2909
9.19837
9.09342
8.9726
8.83078
8.66629
8.47683
8.25945
8.01173
7.72323
7.4029
7.01613
6.59562
6.14365
5.62845
5.12096
1
1
1
1
1
1
1
1
1
1
1
1
1
1
1
1
1
1
1
1
1
1
1
1
1
1
1
1
1
1
1
1
1
1
1
1
1
1
1
1
1
1
1
1
1
1
1
1
1
1
1
1
1
1.00004
2.01165
8.15998
9.75
9.71307
9.72537
9.73171
9.73491
9.73784
9.74315
9.74658
9.74684
9.74447
9.74255
9.73328
9.71652
9.69444
9.66528
9.63299
9.59693
9.56019
9.52148
9.47808
9.42507
9.36038
9.28264
9.19742
9.10569
9.00691
8.89565
8.76768
8.6192
8.4495
8.25802
8.04272
7.80591
7.53057
7.24025
6.89109
6.52678
6.14115
5.70426
5.26947
1
1
1
1
1
1
1
1
1
1
1
1
1
1
1
1
1
1
1
1
1
1
1
1
1
1
1
1
1
1
1
1
1
1
1
1
1
1
1
1
1
1
1
1
1
1
1
1
1
1
1
1
1
1
1.03205
4.82912
9.40095
9.63716
9.63709
9.64429
9.65688
9.66234
9.66535
9.667
9.66189
9.65379
9.64626
9.63049
9.60826
9.58326
9.55118
9.51512
9.471
9.42339
9.374
9.32312
9.26586
9.19855
9.11845
9.03043
8.93557
8.83251
8.71651
8.58406
8.4328
8.26258
8.07376
7.8631
7.63595
7.37655
7.1107
6.80667
6.48666
6.15302
5.78469
5.40758
1
1
1
1
1
1
1
1
1
1
1
1
1
1
1
1
1
1
1
1
1
1
1
1
1
1
1
1
1
1
1
1
1
1
1
1
1
1
1
1
1
1
1
1
1
1
1
1
1
1
1
1
1
1
1.00002
1.52001
7.5619
9.66848
9.61704
9.60224
9.58508
9.57735
9.57154
9.56666
9.55784
9.54574
9.53305
9.51221
9.48608
9.45886
9.4275
9.39171
9.34506
9.29224
9.23465
9.17558
9.11253
9.04155
8.96039
8.87272
8.77756
8.67277
8.55445
8.41988
8.26845
8.10038
7.91846
7.71481
7.49796
7.25751
7.01102
6.74422
6.4551
6.16695
5.84974
5.52366
1
1
1
1
1
1
1
1
1
1
1
1
1
1
1
1
1
1
1
1
1
1
1
1
1
1
1
1
1
1
1
1
1
1
1
1
1
1
1
1
1
1
1
1
1
1
1
1
1
1
1
1
1
1
1
1.00805
3.84234
8.98137
9.42807
9.46335
9.47746
9.4715
9.4611
9.44999
9.43933
9.42737
9.41562
9.39451
9.36633
9.33641
9.30444
9.26886
9.22164
9.16812
9.10616
9.03999
8.96999
8.89462
8.81198
8.72489
8.63022
8.525
8.40636
8.27206
8.12319
7.95938
7.78718
7.59174
7.38906
7.16709
6.93857
6.69714
6.43329
6.17969
5.89904
5.6157
1
1
1
1
1
1
1
1
1
1
1
1
1
1
1
1
1
1
1
1
1
1
1
1
1
1
1
1
1
1
1
1
1
1
1
1
1
1
1
1
1
1
1
1
1
1
1
1
1
1
1
1
1
1
1
1
1.21431
6.25443
9.39449
9.415
9.39566
9.38025
9.36864
9.35524
9.34324
9.32896
9.31543
9.29217
9.25944
9.22411
9.18772
9.14927
9.10165
9.04916
8.9877
8.9194
8.8439
8.76335
8.67818
8.59015
8.49527
8.38975
8.27228
8.13982
7.99458
7.83555
7.67306
7.48658
7.30037
7.09594
6.8844
6.66314
6.42374
6.1932
5.93699
5.68778
1
1
1
1
1
1
1
1
1
1
1
1
1
1
1
1
1
1
1
1
1
1
1
1
1
1
1
1
1
1
1
1
1
1
1
1
1
1
1
1
1
1
1
1
1
1
1
1
1
1
1
1
1
1
1
1
1.00139
2.18501
8.03785
9.30337
9.26026
9.26705
9.26569
9.25774
9.24567
9.22863
9.21134
9.18934
9.15543
9.11706
9.0763
9.03303
8.98435
8.93203
8.87291
8.80604
8.72816
8.64351
8.55675
8.46478
8.36999
8.26412
8.14906
8.02109
7.88278
7.72789
7.57215
7.3972
7.22614
7.03695
6.84265
6.63955
6.42236
6.2072
5.97385
5.7502
1
1
1
1
1
1
1
1
1
1
1
1
1
1
1
1
1
1
1
1
1
1
1
1
1
1
1
1
1
1
1
1
1
1
1
1
1
1
1
1
1
1
1
1
1
1
1
1
1
1
1
1
1
1
1
1
1
1.0399
4.17587
8.88462
9.17077
9.18513
9.18499
9.17625
9.1621
9.14046
9.11605
9.09164
9.05641
9.01705
8.97544
8.92956
8.87983
8.82672
8.76644
8.70092
8.62209
8.53665
8.44715
8.35623
8.25866
8.1551
8.04131
7.91879
7.78706
7.63723
7.48754
7.32504
7.16423
6.98743
6.80778
6.62157
6.42069
6.21856
6.00867
5.80221
1
1
1
1
1
1
1
1
1
1
1
1
1
1
1
1
1
1
1
1
1
1
1
1
1
1
1
1
1
1
1
1
1
1
1
1
1
1
1
1
1
1
1
1
1
1
1
1
1
1
1
1
1
1
1
1
1
1.00008
1.25788
5.73542
9.00401
9.15901
9.1388
9.12442
9.10506
9.07383
9.0405
9.00685
8.96692
8.92435
8.88164
8.83494
8.78472
8.72959
8.66636
8.60062
8.52261
8.43801
8.34862
8.25481
8.15842
8.05527
7.94441
7.82638
7.6979
7.55918
7.41666
7.26467
7.11223
6.94565
6.77708
6.60489
6.4175
6.2309
6.03932
5.84715
1
1
1
1
1
1
1
1
1
1
1
1
1
1
1
1
1
1
1
1
1
1
1
1
1
1
1
1
1
1
1
1
1
1
1
1
1
1
1
1
1
1
1
1
1
1
1
1
1
1
1
1
1
1
1
1
1
1
1.00209
1.62997
7.2427
9.16025
9.11577
9.07334
9.0283
8.98647
8.94612
8.90649
8.86492
8.82322
8.78094
8.73759
8.6892
8.634
8.56956
8.50079
8.42578
8.34179
8.2548
8.16271
8.06713
7.9668
7.85954
7.74572
7.62385
7.49441
7.35958
7.21587
7.07002
6.91279
6.75312
6.5904
6.41576
6.24313
6.0656
5.88514
1
1
1
1
1
1
1
1
1
1
1
1
1
1
1
1
1
1
1
1
1
1
1
1
1
1
1
1
1
1
1
1
1
1
1
1
1
1
1
1
1
1
1
1
1
1
1
1
1
1
1
1
1
1
1
1
1
1
1
1.01142
3.03149
8.31372
8.95601
8.89713
8.86957
8.84419
8.8199
8.79161
8.76053
8.72649
8.68786
8.64375
8.59625
8.54206
8.47691
8.40755
8.33563
8.25471
8.17047
8.08107
7.98726
7.88831
7.78398
7.67474
7.55813
7.43463
7.30626
7.17025
7.03126
6.88367
6.73277
6.57822
6.41557
6.25467
6.08887
5.9184
1
1
1
1
1
1
1
1
1
1
1
1
1
1
1
1
1
1
1
1
1
1
1
1
1
1
1
1
1
1
1
1
1
1
1
1
1
1
1
1
1
1
1
1
1
1
1
1
1
1
1
1
1
1
1
1
1
1
1
1.00002
1.10777
4.35826
8.59773
8.79382
8.77074
8.77188
8.75682
8.7319
8.69945
8.66198
8.6201
8.57264
8.52145
8.46818
8.40159
8.3318
8.25997
8.18048
8.09734
8.00975
7.91734
7.82105
7.71915
7.61438
7.50256
7.38363
7.25992
7.13061
6.99837
6.85945
6.71622
6.56928
6.41717
6.2655
6.10911
5.9469
1
1
1
1
1
1
1
1
1
1
1
1
1
1
1
1
1
1
1
1
1
1
1
1
1
1
1
1
1
1
1
1
1
1
1
1
1
1
1
1
1
1
1
1
1
1
1
1
1
1
1
1
1
1
1
1
1
1
1
1
1.0005
1.29293
5.17956
8.58177
8.71766
8.71809
8.70743
8.68102
8.64684
8.60599
8.55969
8.50762
8.45168
8.39501
8.32858
8.25997
8.18787
8.1102
8.02879
7.94325
7.8525
7.75774
7.65893
7.55751
7.44997
7.33586
7.2164
7.09294
6.96705
6.83585
6.69951
6.56031
6.41776
6.27415
6.12562
5.97152
1
1
1
1
1
1
1
1
1
1
1
1
1
1
1
1
1
1
1
1
1
1
1
1
1
1
1
1
1
1
1
1
1
1
1
1
1
1
1
1
1
1
1
1
1
1
1
1
1
1
1
1
1
1
1
1
1
1
1
1
1
1.00281
1.48865
5.86023
8.58569
8.69167
8.66389
8.63225
8.59553
8.55149
8.50248
8.44828
8.39118
8.3316
8.26652
8.19862
8.12642
8.04964
7.96912
7.88503
7.79631
7.70292
7.60633
7.50784
7.40372
7.2936
7.17893
7.06106
6.94027
6.81422
6.68324
6.55133
6.41713
6.28089
6.13939
5.9947
1
1
1
1
1
1
1
1
1
1
1
1
1
1
1
1
1
1
1
1
1
1
1
1
1
1
1
1
1
1
1
1
1
1
1
1
1
1
1
1
1
1
1
1
1
1
1
1
1
1
1
1
1
1
1
1
1
1
1
1
1
1
1.00717
1.71621
6.44719
8.56446
8.61294
8.58348
8.54163
8.49699
8.44595
8.3905
8.33196
8.27118
8.2067
8.13794
8.06526
7.98938
7.91034
7.82803
7.74178
7.65098
7.55654
7.46014
7.35957
7.25298
7.1421
7.02875
6.91253
6.79146
6.66742
6.54322
6.41692
6.28667
6.15194
6.0178
1
1
1
1
1
1
1
1
1
1
1
1
1
1
1
1
1
1
1
1
1
1
1
1
1
1
1
1
1
1
1
1
1
1
1
1
1
1
1
1
1
1
1
1
1
1
1
1
1
1
1
1
1
1
1
1
1
1
1
1
1
1
1.00001
1.01453
1.97879
6.88934
8.53514
8.54163
8.50484
8.453
8.39898
8.3408
8.27833
8.21552
8.14998
8.08047
8.0081
7.93345
7.85623
7.77594
7.69232
7.60487
7.51337
7.41852
7.31981
7.21636
7.10888
6.999
6.88736
6.77237
6.65615
6.53913
6.41962
6.29395
6.16566
6.04197
1
1
1
1
1
1
1
1
1
1
1
1
1
1
1
1
1
1
1
1
1
1
1
1
1
1
1
1
1
1
1
1
1
1
1
1
1
1
1
1
1
1
1
1
1
1
1
1
1
1
1
1
1
1
1
1
1
1
1
1
1
1
1
1.00003
1.02623
2.23868
7.27575
8.49628
8.45818
8.40949
8.34711
8.28575
8.22292
8.15933
8.09212
8.02322
7.95245
7.87975
7.80454
7.72623
7.6445
7.55928
7.47019
7.37754
7.28133
7.18176
7.07918
6.97413
6.86771
6.75803
6.64762
6.53616
6.42157
6.29979
6.17723
6.06185
1
1
1
1
1
1
1
1
1
1
1
1
1
1
1
1
1
1
1
1
1
1
1
1
1
1
1
1
1
1
1
1
1
1
1
1
1
1
1
1
1
1
1
1
1
1
1
1
1
1
1
1
1
1
1
1
1
1
1
1
1
1
1
1
1.00008
1.04132
2.62631
7.51081
8.38758
8.33578
8.29205
8.23092
8.16694
8.10359
8.03981
7.97481
7.90728
7.83675
7.76285
7.68514
7.60374
7.51899
7.4311
7.34078
7.24818
7.15279
7.05472
6.95393
6.85185
6.74641
6.64039
6.53323
6.42203
6.30378
6.18606
6.07503
1
1
1
1
1
1
1
1
1
1
1
1
1
1
1
1
1
1
1
1
1
1
1
1
1
1
1
1
1
1
1
1
1
1
1
1
1
1
1
1
1
1
1
1
1
1
1
1
1
1
1
1
1
1
1
1
1
1
1
1
1
1
1
1
1
1.00015
1.06998
2.91283
7.56357
8.27468
8.22162
8.16553
8.11195
8.05483
7.99586
7.9335
7.86764
7.79845
7.72548
7.64857
7.56814
7.48465
7.39874
7.31098
7.22147
7.12952
7.03519
6.93799
6.83933
6.73682
6.63303
6.52791
6.41861
6.30328
6.19019
6.08422
1
1
1
1
1
1
1
1
1
1
1
1
1
1
1
1
1
1
1
1
1
1
1
1
1
1
1
1
1
1
1
1
1
1
1
1
1
1
1
1
1
1
1
1
1
1
1
1
1
1
1
1
1
1
1
1
1
1
1
1
1
1
1
1
1
1
1.00033
1.0976
3.01025
7.49146
8.16351
8.11466
8.06589
8.01517
7.96097
7.90167
7.83708
7.76747
7.69351
7.61659
7.53671
7.45441
7.37029
7.28466
7.19726
7.10749
7.015
6.91951
6.82271
6.72253
6.61965
6.51643
6.40952
6.30266
6.19776
6.09935
1
1
1
1
1
1
1
1
1
1
1
1
1
1
1
1
1
1
1
1
1
1
1
1
1
1
1
1
1
1
1
1
1
1
1
1
1
1
1
1
1
1
1
1
1
1
1
1
1
1
1
1
1
1
1
1
1
1
1
1
1
1
1
1
1
1
1
1.00055
1.10996
2.95192
7.36298
8.07856
8.03557
7.98654
7.93029
7.86939
7.8049
7.73571
7.66301
7.58687
7.50791
7.42706
7.34493
7.26133
7.17543
7.08717
6.99601
6.90151
6.80476
6.70499
6.60598
6.50787
6.41006
6.32063
6.24971
6.20549
1
1
1
1
1
1
1
1
1
1
1
1
1
1
1
1
1
1
1
1
1
1
1
1
1
1
1
1
1
1
1
1
1
1
1
1
1
1
1
1
1
1
1
1
1
1
1
1
1
1
1
1
1
1
1
1
1
1
1
1
1
1
1
1
1
1
1
1
1.00069
1.10541
2.87507
7.18242
7.98539
7.95137
7.8928
7.83252
7.7658
7.69816
7.62899
7.55582
7.47991
7.40218
7.32224
7.24004
7.15471
7.06608
6.97266
6.87896
6.78559
6.6928
6.60239
6.52996
6.4774
6.4604
6.49226
6.6069
1
1
1
1
1
1
1
1
1
1
1
1
1
1
1
1
1
1
1
1
1
1
1
1
1
1
1
1
1
1
1
1
1
1
1
1
1
1
1
1
1
1
1
1
1
1
1
1
1
1
1
1
1
1
1
1
1
1
1
1
1
1
1
1
1
1
1
1
1
1.00065
1.0976
2.74398
6.9365
7.88527
7.85961
7.79541
7.7318
7.66346
7.59446
7.52312
7.45122
7.37637
7.29869
7.21679
7.12957
7.04261
6.95098
6.86356
6.7794
6.72181
6.69798
6.71537
6.81184
6.96118
7.16042
7.36918
1
1
1
1
1
1
1
1
1
1
1
1
1
1
1
1
1
1
1
1
1
1
1
1
1
1
1
1
1
1
1
1
1
1
1
1
1
1
1
1
1
1
1
1
1
1
1
1
1
1
1
1
1
1
1
1
1
1
1
1
1
1
1
1
1
1
1
1
1
1
1.00059
1.0846
2.5569
6.61413
7.76664
7.76239
7.69571
7.63294
7.56402
7.49452
7.42403
7.35008
7.27199
7.19157
7.10486
7.0203
6.94528
6.90124
6.89871
6.95624
7.12226
7.34118
7.59426
7.76777
7.88369
7.92128
1
1
1
1
1
1
1
1
1
1
1
1
1
1
1
1
1
1
1
1
1
1
1
1
1
1
1
1
1
1
1
1
1
1
1
1
1
1
1
1
1
1
1
1
1
1
1
1
1
1
1
1
1
1
1
1
1
1
1
1
1
1
1
1
1
1
1
1
1
1
1
1.00048
1.06763
2.32971
6.1736
7.63943
7.6745
7.60299
7.5379
7.46806
7.3965
7.31965
7.24452
7.16304
7.09605
7.06088
7.07554
7.19425
7.41339
7.71012
8.0104
8.20307
8.31179
8.33662
8.29712
8.20026
1
1
1
1
1
1
1
1
1
1
1
1
1
1
1
1
1
1
1
1
1
1
1
1
1
1
1
1
1
1
1
1
1
1
1
1
1
1
1
1
1
1
1
1
1
1
1
1
1
1
1
1
1
1
1
1
1
1
1
1
1
1
1
1
1
1
1
1
1
1
1
1
1.00035
1.04978
2.06909
5.60562
7.48388
7.59997
7.50772
7.44011
7.36582
7.28547
7.22195
7.19443
7.23269
7.39834
7.69973
8.08036
8.39017
8.61517
8.68578
8.65117
8.6046
8.53873
8.44551
8.32716
1
1
1
1
1
1
1
1
1
1
1
1
1
1
1
1
1
1
1
1
1
1
1
1
1
1
1
1
1
1
1
1
1
1
1
1
1
1
1
1
1
1
1
1
1
1
1
1
1
1
1
1
1
1
1
1
1
1
1
1
1
1
1
1
1
1
1
1
1
1
1
1
1
1.00022
1.03295
1.79833
4.87686
7.30095
7.49411
7.38801
7.31473
7.29062
7.36014
7.58295
7.96783
8.4207
8.79362
8.99264
9.05654
9.05024
8.9632
8.85001
8.74602
8.65055
8.54896
8.43954
1
1
1
1
1
1
1
1
1
1
1
1
1
1
1
1
1
1
1
1
1
1
1
1
1
1
1
1
1
1
1
1
1
1
1
1
1
1
1
1
1
1
1
1
1
1
1
1
1
1
1
1
1
1
1
1
1
1
1
1
1
1
1
1
1
1
1
1
1
1
1
1
1
1
1.00012
1.01945
1.53538
4.07448
7.04981
7.35259
7.50177
7.74059
8.22775
8.78063
9.20254
9.40161
9.44373
9.37173
9.27011
9.17283
9.06058
8.96115
8.85865
8.76075
8.67324
8.58586
1
1
1
1
1
1
1
1
1
1
1
1
1
1
1
1
1
1
1
1
1
1
1
1
1
1
1
1
1
1
1
1
1
1
1
1
1
1
1
1
1
1
1
1
1
1
1
1
1
1
1
1
1
1
1
1
1
1
1
1
1
1
1
1
1
1
1
1
1
1
1
1
1
1
1
1.00006
1.00963
1.31979
3.34744
6.56361
8.41491
9.07154
9.53479
9.75892
9.81527
9.73802
9.64493
9.52254
9.39173
9.26282
9.15102
9.06986
8.98017
8.87737
8.79333
8.72486
1
1
1
1
1
1
1
1
1
1
1
1
1
1
1
1
1
1
1
1
1
1
1
1
1
1
1
1
1
1
1
1
1
1
1
1
1
1
1
1
1
1
1
1
1
1
1
1
1
1
1
1
1
1
1
1
1
1
1
1
1
1
1
1
1
1
1
1
1
1
1
1
1
1
1
1
1.00002
1.00439
1.17128
3.85689
9.81236
10.3445
10.2432
10.1232
9.99245
9.83555
9.6919
9.56477
9.45688
9.34851
9.25629
9.19445
9.128
9.03627
8.95658
8.89326
1
1
1
1
1
1
1
1
1
1
1
1
1
1
1
1
1
1
1
1
1
1
1
1
1
1
1
1
1
1
1
1
1
1
1
1
1
1
1
1
1
1
1
1
1
1
1
1
1
1
1
1
1
1
1
1
1
1
1
1
1
1
1
1
1
1
1
1
1
1
1
1
1
1
1
1
1
1.00001
1.00151
2.02384
9.19716
10.5801
10.3158
10.1443
9.98852
9.84974
9.73691
9.65392
9.58377
9.48455
9.38833
9.32295
9.25965
9.1691
9.08882
9.02276
1
1
1
1
1
1
1
1
1
1
1
1
1
1
1
1
1
1
1
1
1
1
1
1
1
1
1
1
1
1
1
1
1
1
1
1
1
1
1
1
1
1
1
1
1
1
1
1
1
1
1
1
1
1
1
1
1
1
1
1
1
1
1
1
1
1
1
1
1
1
1
1
1
1
1
1
1
1
1
1.09503
7.05325
10.364
10.0988
10.0257
9.93605
9.86397
9.80247
9.73299
9.65957
9.57865
9.51137
9.46511
9.40699
9.32233
9.23638
9.16122
1
1
1
1
1
1
1
1
1
1
1
1
1
1
1
1
1
1
1
1
1
1
1
1
1
1
1
1
1
1
1
1
1
1
1
1
1
1
1
1
1
1
1
1
1
1
1
1
1
1
1
1
1
1
1
1
1
1
1
1
1
1
1
1
1
1
1
1
1
1
1
1
1
1
1
1
1
1
1
1.0005
4.64747
9.73761
10.0127
10.0369
10.0058
9.95388
9.90249
9.84547
9.78293
9.72137
9.66123
9.594
9.51366
9.43056
9.35301
9.28695
1
1
1
1
1
1
1
1
1
1
1
1
1
1
1
1
1
1
1
1
1
1
1
1
1
1
1
1
1
1
1
1
1
1
1
1
1
1
1
1
1
1
1
1
1
1
1
1
1
1
1
1
1
1
1
1
1
1
1
1
1
1
1
1
1
1
1
1
1
1
1
1
1
1
1
1
1
1
1
1
2.39527
8.66885
10.0808
10.0109
9.98945
9.97403
9.92626
9.88423
9.83947
9.79115
9.7365
9.67398
9.60584
9.53882
9.4732
9.41012
1
1
1
1
1
1
1
1
1
1
1
1
1
1
1
1
1
1
1
1
1
1
1
1
1
1
1
1
1
1
1
1
1
1
1
1
1
1
1
1
1
1
1
1
1
1
1
1
1
1
1
1
1
1
1
1
1
1
1
1
1
1
1
1
1
1
1
1
1
1
1
1
1
1
1
1
1
1
1
1
1.08105
6.834
10.2012
10.1294
10.0634
10.0157
9.98424
9.9436
9.89757
9.84639
9.79018
9.73136
9.67166
9.61365
9.55828
9.49896
1
1
1
1
1
1
1
1
1
1
1
1
1
1
1
1
1
1
1
1
1
1
1
1
1
1
1
1
1
1
1
1
1
1
1
1
1
1
1
1
1
1
1
1
1
1
1
1
1
1
1
1
1
1
1
1
1
1
1
1
1
1
1
1
1
1
1
1
1
1
1
1
1
1
1
1
1
1
1
1
1.00014
4.61036
9.71967
10.0414
10.0219
10.0053
9.96894
9.92636
9.88508
9.84357
9.80104
9.75702
9.71006
9.66124
9.6114
9.56027
1
1
1
1
1
1
1
1
1
1
1
1
1
1
1
1
1
1
1
1
1
1
1
1
1
1
1
1
1
1
1
1
1
1
1
1
1
1
1
1
1
1
1
1
1
1
1
1
1
1
1
1
1
1
1
1
1
1
1
1
1
1
1
1
1
1
1
1
1
1
1
1
1
1
1
1
1
1
1
1
1
2.54346
8.84048
10.2106
10.1378
10.0898
10.0366
9.98615
9.94084
9.8976
9.85649
9.81632
9.77354
9.72767
9.67594
9.61943
1
1
1
1
1
1
1
1
1
1
1
1
1
1
1
1
1
1
1
1
1
1
1
1
1
1
1
1
1
1
1
1
1
1
1
1
1
1
1
1
1
1
1
1
1
1
1
1
1
1
1
1
1
1
1
1
1
1
1
1
1
1
1
1
1
1
1
1
1
1
1
1
1
1
1
1
1
1
1
1
1
1.19364
7.3427
10.2614
10.1719
10.1032
10.0496
10.0039
9.9613
9.91944
9.87828
9.83693
9.79394
9.74941
9.70319
9.65534
1
1
1
1
1
1
1
1
1
1
1
1
1
1
1
1
1
1
1
1
1
1
1
1
1
1
1
1
1
1
1
1
1
1
1
1
1
1
1
1
1
1
1
1
1
1
1
1
1
1
1
1
1
1
1
1
1
1
1
1
1
1
1
1
1
1
1
1
1
1
1
1
1
1
1
1
1
1
1
1
1
1.00132
5.50891
10.0439
10.1581
10.1201
10.0876
10.0449
10.0005
9.95578
9.91142
9.86698
9.82216
9.77653
9.73026
9.68266
1
1
1
1
1
1
1
1
1
1
1
1
1
1
1
1
1
1
1
1
1
1
1
1
1
1
1
1
1
1
1
1
1
1
1
1
1
1
1
1
1
1
1
1
1
1
1
1
1
1
1
1
1
1
1
1
1
1
1
1
1
1
1
1
1
1
1
1
1
1
1
1
1
1
1
1
1
1
1
1
1
0.999999
3.63544
9.50647
10.1683
10.1195
10.0921
10.0521
10.0116
9.96873
9.92602
9.88257
9.83883
9.79384
9.74802
9.70167
1
1
1
1
1
1
1
1
1
1
1
1
1
1
1
1
1
1
1
1
1
1
1
1
1
1
1
1
1
1
1
1
1
1
1
1
1
1
1
1
1
1
1
1
1
1
1
1
1
1
1
1
1
1
1
1
1
1
1
1
1
1
1
1
1
1
1
1
1
1
1
1
1
1
1
1
1
1
1
1
1
1
2.14767
8.65121
10.3067
10.2206
10.1748
10.1243
10.0769
10.0294
9.98316
9.93698
9.89064
9.84353
9.79612
9.74864
1
1
1
1
1
1
1
1
1
1
1
1
1
1
1
1
1
1
1
1
1
1
1
1
1
1
1
1
1
1
1
1
1
1
1
1
1
1
1
1
1
1
1
1
1
1
1
1
1
1
1
1
1
1
1
1
1
1
1
1
1
1
1
1
1
1
1
1
1
1
1
1
1
1
1
1
1
1
1
1
1
1
1.17677
7.29423
10.3409
10.2472
10.182
10.1338
10.0908
10.0489
10.0064
9.96262
9.91781
9.87181
9.82543
9.77859
1
1
1
1
1
1
1
1
1
1
1
1
1
1
1
1
1
1
1
1
1
1
1
1
1
1
1
1
1
1
1
1
1
1
1
1
1
1
1
1
1
1
1
1
1
1
1
1
1
1
1
1
1
1
1
1
1
1
1
1
1
1
1
1
1
1
1
1
1
1
1
1
1
1
1
1
1
1
1
1
1
1
1.00142
5.83137
10.1747
10.2386
10.1922
10.1568
10.1152
10.0737
10.0312
9.98822
9.94417
9.89878
9.85307
9.80666
1
1
1
1
1
1
1
1
1
1
1
1
1
1
1
1
1
1
1
1
1
1
1
1
1
1
1
1
1
1
1
1
1
1
1
1
1
1
1
1
1
1
1
1
1
1
1
1
1
1
1
1
1
1
1
1
1
1
1
1
1
1
1
1
1
1
1
1
1
1
1
1
1
1
1
1
1
1
1
1
1
1
1
4.40713
9.84883
10.2456
10.1988
10.1718
10.1345
10.0965
10.0562
10.0149
9.97202
9.9276
9.88248
9.83645
1
1
1
1
1
1
1
1
1
1
1
1
1
1
1
1
1
1
1
1
1
1
1
1
1
1
1
1
1
1
1
1
1
1
1
1
1
1
1
1
1
1
1
1
1
1
1
1
1
1
1
1
1
1
1
1
1
1
1
1
1
1
1
1
1
1
1
1
1
1
1
1
1
1
1
1
1
1
1
1
1
1
1
3.12846
9.36828
10.2967
10.2317
10.2003
10.1592
10.1183
10.0754
10.0322
9.98803
9.94353
9.89872
9.85342
1
1
1
1
1
1
1
1
1
1
1
1
1
1
1
1
1
1
1
1
1
1
1
1
1
1
1
1
1
1
1
1
1
1
1
1
1
1
1
1
1
1
1
1
1
1
1
1
1
1
1
1
1
1
1
1
1
1
1
1
1
1
1
1
1
1
1
1
1
1
1
1
1
1
1
1
1
1
1
1
1
1
1
2.11768
8.73173
10.3519
10.274
10.2368
10.1948
10.1537
10.1111
10.0685
10.0248
9.9809
9.93643
9.89127
1
1
1
1
1
1
1
1
1
1
1
1
1
1
1
1
1
1
1
1
1
1
1
1
1
1
1
1
1
1
1
1
1
1
1
1
1
1
1
1
1
1
1
1
1
1
1
1
1
1
1
1
1
1
1
1
1
1
1
1
1
1
1
1
1
1
1
1
1
1
1
1
1
1
1
1
1
1
1
1
1
1
1
1.4532
7.85044
10.4094
10.3168
10.2656
10.219
10.1747
10.1303
10.0867
10.0426
9.99869
9.95452
9.90955
1
1
1
1
1
1
1
1
1
1
1
1
1
1
1
1
1
1
1
1
1
1
1
1
1
1
1
1
1
1
1
1
1
1
1
1
1
1
1
1
1
1
1
1
1
1
1
1
1
1
1
1
1
1
1
1
1
1
1
1
1
1
1
1
1
1
1
1
1
1
1
1
1
1
1
1
1
1
1
1
1
1
1
1.0615
6.91415
10.3762
10.3407
10.2855
10.2432
10.1988
10.154
10.1094
10.0643
10.0195
9.9748
9.9293
1
1
1
1
1
1
1
1
1
1
1
1
1
1
1
1
1
1
1
1
1
1
1
1
1
1
1
1
1
1
1
1
1
1
1
1
1
1
1
1
1
1
1
1
1
1
1
1
1
1
1
1
1
1
1
1
1
1
1
1
1
1
1
1
1
1
1
1
1
1
1
1
1
1
1
1
1
1
1
1
1
1
1
1.00039
6.01151
10.2663
10.3391
10.2812
10.2457
10.2036
10.1619
10.1193
10.0759
10.0321
9.98821
9.94352
1
1
1
1
1
1
1
1
1
1
1
1
1
1
1
1
1
1
1
1
1
1
1
1
1
1
1
1
1
1
1
1
1
1
1
1
1
1
1
1
1
1
1
1
1
1
1
1
1
1
1
1
1
1
1
1
1
1
1
1
1
1
1
1
1
1
1
1
1
1
1
1
1
1
1
1
1
1
1
1
1
1
1
1
5.11187
10.1312
10.3532
10.2934
10.26
10.2186
10.1777
10.1357
10.0932
10.0506
10.0076
9.96404
1
1
1
1
1
1
1
1
1
1
1
1
1
1
1
1
1
1
1
1
1
1
1
1
1
1
1
1
1
1
1
1
1
1
1
1
1
1
1
1
1
1
1
1
1
1
1
1
1
1
1
1
1
1
1
1
1
1
1
1
1
1
1
1
1
1
1
1
1
1
1
1
1
1
1
1
1
1
1
1
1
1
1
1
4.33451
9.9499
10.3718
10.3013
10.2664
10.2252
10.185
10.1437
10.1017
10.0597
10.0169
9.97388
1
1
1
1
1
1
1
1
1
1
1
1
1
1
1
1
1
1
1
1
1
1
1
1
1
1
1
1
1
1
1
1
1
1
1
1
1
1
1
1
1
1
1
1
1
1
1
1
1
1
1
1
1
1
1
1
1
1
1
1
1
1
1
1
1
1
1
1
1
1
1
1
1
1
1
1
1
1
1
1
1
1
1
1
3.69598
9.72649
10.3862
10.3064
10.2706
10.2295
10.1901
10.1496
10.1083
10.0672
10.0255
9.98392
1
1
1
1
1
1
1
1
1
1
1
1
1
1
1
1
1
1
1
1
1
1
1
1
1
1
1
1
1
1
1
1
1
1
1
1
1
1
1
1
1
1
1
1
1
1
1
1
1
1
1
1
1
1
1
1
1
1
1
1
1
1
1
1
1
1
1
1
1
1
1
1
1
1
1
1
1
1
1
1
1
1
1
1
3.15112
9.5174
10.3979
10.3132
10.2772
10.2358
10.1965
10.1559
10.1149
10.0745
10.0335
9.99269
1
1
1
1
1
1
1
1
1
1
1
1
1
1
1
1
1
1
1
1
1
1
1
1
1
1
1
1
1
1
1
1
1
1
1
1
1
1
1
1
1
1
1
1
1
1
1
1
1
1
1
1
1
1
1
1
1
1
1
1
1
1
1
1
1
1
1
1
1
1
1
1
1
1
1
1
1
1
1
1
1
1
1
1
2.71511
9.30478
10.4023
10.3191
10.2836
10.2423
10.2032
10.1629
10.1226
10.0827
10.0422
10.0015
1
1
1
1
1
1
1
1
1
1
1
1
1
1
1
1
1
1
1
1
1
1
1
1
1
1
1
1
1
1
1
1
1
1
1
1
1
1
1
1
1
1
1
1
1
1
1
1
1
1
1
1
1
1
1
1
1
1
1
1
1
1
1
1
1
1
1
1
1
1
1
1
1
1
1
1
1
1
1
1
1
1
1
1
2.39909
9.08787
10.4035
10.3259
10.2905
10.2496
10.2105
10.1704
10.1304
10.0903
10.0494
10.0087
1
1
1
1
1
1
1
1
1
1
1
1
1
1
1
1
1
1
1
1
1
1
1
1
1
1
1
1
1
1
1
1
1
1
1
1
1
1
1
1
1
1
1
1
1
1
1
1
1
1
1
1
1
1
1
1
1
1
1
1
1
1
1
1
1
1
1
1
1
1
1
1
1
1
1
1
1
1
1
1
1
1
1
1
2.17945
8.89316
10.402
10.3301
10.295
10.2549
10.216
10.1761
10.1365
10.0962
10.055
10.0146
1
1
1
1
1
1
1
1
1
1
1
1
1
1
1
1
1
1
1
1
1
1
1
1
1
1
1
1
1
1
1
1
1
1
1
1
1
1
1
1
1
1
1
1
1
1
1
1
1
1
1
1
1
1
1
1
1
1
1
1
1
1
1
1
1
1
1
1
1
1
1
1
1
1
1
1
1
1
1
1
1
1
1
1
2.0302
8.73846
10.4014
10.3323
10.2976
10.2587
10.2204
10.1809
10.1413
10.1009
10.0596
10.0194
1
1
1
1
1
1
1
1
1
1
1
1
1
1
1
1
1
1
1
1
1
1
1
1
1
1
1
1
1
1
1
1
1
1
1
1
1
1
1
1
1
1
1
1
1
1
1
1
1
1
1
1
1
1
1
1
1
1
1
1
1
1
1
1
1
1
1
1
1
1
1
1
1
1
1
1
1
1
1
1
1
1
1
1
1.93547
8.63005
10.3997
10.3316
10.2972
10.2591
10.2212
10.1826
10.1435
10.1035
10.0626
10.0219
1
1
1
1
1
1
1
1
1
1
1
1
1
1
1
1
1
1
1
1
1
1
1
1
1
1
1
1
1
1
1
1
1
1
1
1
1
1
1
1
1
1
1
1
1
1
1
1
1
1
1
1
1
1
1
1
1
1
1
1
1
1
1
1
1
1
1
1
1
1
1
1
1
1
1
1
1
1
1
1
1
1
1
1
1.89465
8.57104
10.3912
10.3276
10.2963