/*--------------------------------*- C++ -*----------------------------------*\
  =========                 |
  \\      /  F ield         | OpenFOAM: The Open Source CFD Toolbox
   \\    /   O peration     | Website:  https://openfoam.org
    \\  /    A nd           | Version:  7
     \\/     M anipulation  |
\*---------------------------------------------------------------------------*/
FoamFile
{
    version     2.0;
    format      ascii;
    class       volScalarField;
    location    "7";
    object      rho;
}
// * * * * * * * * * * * * * * * * * * * * * * * * * * * * * * * * * * * * * //

dimensions      [1 -3 0 0 0 0 0];

internalField   nonuniform List<scalar> 
19968
(
1.40001
1.40001
1.40001
1.40001
1.40001
1.40001
1.40001
1.40001
1.40001
1.40001
1.40001
1.40001
1.40001
1.40001
1.40001
1.40001
1.40001
1.40001
1.40001
1.40001
1.40001
1.40001
1.40001
1.40001
1.40001
1.40001
1.40001
1.40001
1.40001
1.40001
1.40001
1.40001
1.40001
1.40001
1.40001
1.40001
1.40001
1.40001
1.40001
1.40001
1.40001
1.40001
1.40001
1.40001
1.40001
1.40001
1.40001
1.40001
1.71112
4.58756
5.41486
5.43372
5.46035
5.48571
5.50943
5.53004
5.54777
5.56395
5.58064
5.59905
5.61922
5.64024
5.66127
5.68117
5.69884
5.71472
5.73008
5.74581
5.76211
5.77888
5.79582
5.81238
5.82784
5.84163
5.85367
5.86449
5.87494
5.88572
5.89723
5.90935
5.92151
5.93287
5.94279
5.95106
5.95801
5.96429
5.97073
5.97808
5.98641
5.99501
6.00255
6.00788
6.01062
6.01122
6.01078
6.0098
1.40001
1.40001
1.40001
1.40001
1.40001
1.40001
1.40001
1.40001
1.40001
1.40001
1.40001
1.40001
1.40001
1.40001
1.40001
1.40001
1.40001
1.40001
1.40001
1.40001
1.40001
1.40001
1.40001
1.40001
1.40001
1.40001
1.40001
1.40001
1.40001
1.40001
1.40001
1.40001
1.40001
1.40001
1.40001
1.40001
1.40001
1.40001
1.40001
1.40001
1.40001
1.40001
1.40001
1.40001
1.40001
1.40001
1.40001
1.40001
1.69467
4.56092
5.41136
5.43229
5.46069
5.48609
5.50957
5.52999
5.54739
5.56314
5.57961
5.59806
5.61848
5.63975
5.66081
5.68059
5.69808
5.71383
5.72901
5.74453
5.76064
5.77727
5.79411
5.81057
5.82591
5.83963
5.8517
5.86267
5.87334
5.8844
5.89617
5.90851
5.92075
5.93201
5.94162
5.94948
5.95603
5.96207
5.96848
5.9759
5.9843
5.99287
6.0003
6.00547
6.0081
6.00866
6.00821
6.00726
1.40001
1.40001
1.40001
1.40001
1.40001
1.40001
1.40001
1.40001
1.40001
1.40001
1.40001
1.40001
1.40001
1.40001
1.40001
1.40001
1.40001
1.40001
1.40001
1.40001
1.40001
1.40001
1.40001
1.40001
1.40001
1.40001
1.40001
1.40001
1.40001
1.40001
1.40001
1.40001
1.40001
1.40001
1.40001
1.40001
1.40001
1.40001
1.40001
1.40001
1.40001
1.40001
1.40001
1.40001
1.40001
1.40001
1.40001
1.40001
1.65662
4.50589
5.40923
5.43107
5.46002
5.4846
5.50743
5.52738
5.54438
5.55995
5.57671
5.59554
5.6164
5.63793
5.6589
5.67848
5.69577
5.71151
5.7266
5.74198
5.75786
5.77426
5.79088
5.8071
5.82225
5.83588
5.84803
5.85923
5.87022
5.88162
5.89372
5.90632
5.9187
5.92992
5.93929
5.94674
5.95283
5.95853
5.96481
5.97227
5.98076
5.98937
5.99675
6.00184
6.00441
6.00498
6.00456
6.00368
1.40001
1.40001
1.40001
1.40001
1.40001
1.40001
1.40001
1.40001
1.40001
1.40001
1.40001
1.40001
1.40001
1.40001
1.40001
1.40001
1.40001
1.40001
1.40001
1.40001
1.40001
1.40001
1.40001
1.40001
1.40001
1.40001
1.40001
1.40001
1.40001
1.40001
1.40001
1.40001
1.40001
1.40001
1.40001
1.40001
1.40001
1.40001
1.40001
1.40001
1.40001
1.40001
1.40001
1.40001
1.40001
1.40001
1.40001
1.40001
1.60149
4.41467
5.40861
5.43222
5.45913
5.48188
5.50334
5.52266
5.53958
5.55564
5.57317
5.5926
5.61378
5.63529
5.65581
5.67491
5.69185
5.70762
5.72279
5.73817
5.75387
5.76997
5.78621
5.80205
5.8169
5.83045
5.84279
5.85439
5.86586
5.87774
5.89023
5.90307
5.91547
5.92645
5.93531
5.94207
5.94748
5.95269
5.95874
5.96617
5.9747
5.98329
5.99062
5.99567
5.9983
5.99906
5.99884
5.99821
1.40001
1.40001
1.40001
1.40001
1.40001
1.40001
1.40001
1.40001
1.40001
1.40001
1.40001
1.40001
1.40001
1.40001
1.40001
1.40001
1.40001
1.40001
1.40001
1.40001
1.40001
1.40001
1.40001
1.40001
1.40001
1.40001
1.40001
1.40001
1.40001
1.40001
1.40001
1.40001
1.40001
1.40001
1.40001
1.40001
1.40001
1.40001
1.40001
1.40001
1.40001
1.40001
1.40001
1.40001
1.40001
1.40001
1.40001
1.40001
1.53229
4.29425
5.40815
5.43247
5.45611
5.47698
5.49717
5.51628
5.53386
5.55089
5.56927
5.58917
5.61021
5.63118
5.65089
5.6693
5.686
5.70206
5.71766
5.73336
5.74905
5.76486
5.78057
5.79586
5.81033
5.82381
5.83643
5.84854
5.86057
5.87293
5.88578
5.8988
5.91118
5.92192
5.93037
5.93661
5.94151
5.94631
5.95208
5.95925
5.96744
5.97556
5.98234
5.98691
5.98927
5.98995
5.98976
5.98926
1.40001
1.40001
1.40001
1.40001
1.40001
1.40001
1.40001
1.40001
1.40001
1.40001
1.40001
1.40001
1.40001
1.40001
1.40001
1.40001
1.40001
1.40001
1.40001
1.40001
1.40001
1.40001
1.40001
1.40001
1.40001
1.40001
1.40001
1.40001
1.40001
1.40001
1.40001
1.40001
1.40001
1.40001
1.40001
1.40001
1.40001
1.40001
1.40001
1.40001
1.40001
1.40001
1.40001
1.40001
1.40001
1.40001
1.40001
1.40001
1.4127
4.09703
5.41091
5.43466
5.45499
5.47514
5.49419
5.5127
5.53052
5.54836
5.5673
5.58725
5.60747
5.62708
5.64524
5.66244
5.67865
5.69497
5.71112
5.72723
5.74282
5.75806
5.77287
5.78724
5.801
5.81417
5.82688
5.83931
5.85169
5.86428
5.87717
5.89005
5.90215
5.91255
5.92067
5.92667
5.93145
5.93623
5.94203
5.9492
5.9573
5.96521
5.97172
5.97614
5.97851
5.97936
5.97937
5.97912
1.40001
1.40001
1.40001
1.40001
1.40001
1.40001
1.40001
1.40001
1.40001
1.40001
1.40001
1.40001
1.40001
1.40001
1.40001
1.40001
1.40001
1.40001
1.40001
1.40001
1.40001
1.40001
1.40001
1.40001
1.40001
1.40001
1.40001
1.40001
1.40001
1.40001
1.40001
1.40001
1.40001
1.40001
1.40001
1.40001
1.40001
1.40001
1.40001
1.40001
1.40001
1.40001
1.40001
1.40001
1.40001
1.40001
1.40001
1.40001
1.4001
3.80025
5.38278
5.4157
5.43524
5.45709
5.47712
5.49647
5.51515
5.53422
5.55399
5.57423
5.59396
5.61278
5.63032
5.64717
5.66358
5.68057
5.69756
5.71433
5.73011
5.7451
5.75931
5.773
5.7863
5.79939
5.81238
5.82529
5.83813
5.851
5.86389
5.87647
5.88812
5.89813
5.90612
5.91232
5.91749
5.92266
5.92865
5.93573
5.94347
5.95084
5.95684
5.96095
5.96326
5.96422
5.96439
5.96436
1.40001
1.40001
1.40001
1.40001
1.40001
1.40001
1.40001
1.40001
1.40001
1.40001
1.40001
1.40001
1.40001
1.40001
1.40001
1.40001
1.40001
1.40001
1.40001
1.40001
1.40001
1.40001
1.40001
1.40001
1.40001
1.40001
1.40001
1.40001
1.40001
1.40001
1.40001
1.40001
1.40001
1.40001
1.40001
1.40001
1.40001
1.40001
1.40001
1.40001
1.40001
1.40001
1.40001
1.40001
1.40001
1.40001
1.40001
1.40001
1.40001
3.40489
5.33473
5.4013
5.42343
5.44832
5.47012
5.49015
5.50881
5.52734
5.54618
5.56552
5.58457
5.60278
5.61991
5.63629
5.65252
5.66947
5.6865
5.70326
5.71867
5.73302
5.74636
5.75917
5.77182
5.78456
5.79751
5.81054
5.82347
5.83624
5.84876
5.86071
5.87163
5.88107
5.88888
5.8953
5.90093
5.90652
5.91267
5.91953
5.92672
5.93336
5.9387
5.94236
5.94455
5.94552
5.94573
5.94584
1.40001
1.40001
1.40001
1.40001
1.40001
1.40001
1.40001
1.40001
1.40001
1.40001
1.40001
1.40001
1.40001
1.40001
1.40001
1.40001
1.40001
1.40001
1.40001
1.40001
1.40001
1.40001
1.40001
1.40001
1.40001
1.40001
1.40001
1.40001
1.40001
1.40001
1.40001
1.40001
1.40001
1.40001
1.40001
1.40001
1.40001
1.40001
1.40001
1.40001
1.40001
1.40001
1.40001
1.40001
1.40001
1.40001
1.40001
1.40001
1.40001
2.93006
5.24543
5.39096
5.41429
5.4411
5.4643
5.48503
5.50346
5.52102
5.53843
5.55609
5.57425
5.59204
5.609
5.62502
5.64089
5.65728
5.67358
5.6896
5.70412
5.71747
5.72976
5.74148
5.75319
5.7652
5.77769
5.79047
5.80322
5.81566
5.82758
5.83872
5.84878
5.8576
5.86522
5.87191
5.8781
5.88423
5.89067
5.89744
5.90419
5.91024
5.91506
5.91833
5.92031
5.92122
5.9216
5.92177
1.40001
1.40001
1.40001
1.40001
1.40001
1.40001
1.40001
1.40001
1.40001
1.40001
1.40001
1.40001
1.40001
1.40001
1.40001
1.40001
1.40001
1.40001
1.40001
1.40001
1.40001
1.40001
1.40001
1.40001
1.40001
1.40001
1.40001
1.40001
1.40001
1.40001
1.40001
1.40001
1.40001
1.40001
1.40001
1.40001
1.40001
1.40001
1.40001
1.40001
1.40001
1.40001
1.40001
1.40001
1.40001
1.40001
1.40001
1.40001
1.40001
2.39689
5.06239
5.39628
5.41713
5.44248
5.46566
5.48613
5.50351
5.5192
5.53436
5.54955
5.56616
5.58323
5.59982
5.61525
5.63036
5.6457
5.66072
5.67561
5.68912
5.70133
5.71243
5.72282
5.73323
5.74393
5.75527
5.7671
5.779
5.79053
5.80139
5.81139
5.82041
5.82853
5.83592
5.84284
5.84953
5.85617
5.86285
5.86943
5.87557
5.88076
5.88471
5.88731
5.88862
5.88908
5.8894
5.88942
1.40001
1.40001
1.40001
1.40001
1.40001
1.40001
1.40001
1.40001
1.40001
1.40001
1.40001
1.40001
1.40001
1.40001
1.40001
1.40001
1.40001
1.40001
1.40001
1.40001
1.40001
1.40001
1.40001
1.40001
1.40001
1.40001
1.40001
1.40001
1.40001
1.40001
1.40001
1.40001
1.40001
1.40001
1.40001
1.40001
1.40001
1.40001
1.40001
1.40001
1.40001
1.40001
1.40001
1.40001
1.40001
1.40001
1.40001
1.40001
1.40001
1.8739
4.73867
5.4158
5.41083
5.43436
5.45443
5.47476
5.49216
5.50793
5.52337
5.53845
5.55481
5.57176
5.58819
5.60324
5.61769
5.63201
5.64576
5.6595
5.67229
5.68379
5.69419
5.70363
5.71291
5.72242
5.73251
5.74306
5.75364
5.76369
5.77283
5.78094
5.78807
5.79447
5.80047
5.80635
5.8123
5.81838
5.82457
5.83067
5.83631
5.84105
5.84456
5.8469
5.84795
5.84817
5.84835
5.84826
1.40001
1.40001
1.40001
1.40001
1.40001
1.40001
1.40001
1.40001
1.40001
1.40001
1.40001
1.40001
1.40001
1.40001
1.40001
1.40001
1.40001
1.40001
1.40001
1.40001
1.40001
1.40001
1.40001
1.40001
1.40001
1.40001
1.40001
1.40001
1.40001
1.40001
1.40001
1.40001
1.40001
1.40001
1.40001
1.40001
1.40001
1.40001
1.40001
1.40001
1.40001
1.40001
1.40001
1.40001
1.40001
1.40001
1.40001
1.40001
1.40001
1.42393
4.09254
5.40958
5.41765
5.43388
5.4504
5.46862
5.48453
5.49926
5.51391
5.52811
5.5433
5.55934
5.57466
5.58827
5.60097
5.6134
5.62523
5.63712
5.64867
5.65904
5.66846
5.67698
5.6851
5.6934
5.70207
5.71118
5.72033
5.72896
5.73661
5.74311
5.74861
5.75349
5.75823
5.76319
5.76855
5.77423
5.77995
5.7853
5.78979
5.79288
5.79439
5.7942
5.79274
5.79125
5.79002
5.78902
1.40001
1.40001
1.40001
1.40001
1.40001
1.40001
1.40001
1.40001
1.40001
1.40001
1.40001
1.40001
1.40001
1.40001
1.40001
1.40001
1.40001
1.40001
1.40001
1.40001
1.40001
1.40001
1.40001
1.40001
1.40001
1.40001
1.40001
1.40001
1.40001
1.40001
1.40001
1.40001
1.40001
1.40001
1.40001
1.40001
1.40001
1.40001
1.40001
1.40001
1.40001
1.40001
1.40001
1.40001
1.40001
1.40001
1.40001
1.40001
1.40001
1.40005
3.20794
5.24908
5.36256
5.38852
5.41126
5.4314
5.44869
5.46423
5.47951
5.49447
5.50965
5.52554
5.54088
5.5546
5.56705
5.57903
5.59034
5.60132
5.61207
5.62196
5.63097
5.63935
5.6472
5.65492
5.66258
5.67031
5.67787
5.6849
5.69094
5.69573
5.69928
5.70186
5.704
5.70624
5.70889
5.71191
5.71489
5.71743
5.71929
5.72029
5.72047
5.71979
5.71838
5.71703
5.71562
5.71449
1.40001
1.40001
1.40001
1.40001
1.40001
1.40001
1.40001
1.40001
1.40001
1.40001
1.40001
1.40001
1.40001
1.40001
1.40001
1.40001
1.40001
1.40001
1.40001
1.40001
1.40001
1.40001
1.40001
1.40001
1.40001
1.40001
1.40001
1.40001
1.40001
1.40001
1.40001
1.40001
1.40001
1.40001
1.40001
1.40001
1.40001
1.40001
1.40001
1.40001
1.40001
1.40001
1.40001
1.40001
1.40001
1.40001
1.40001
1.40001
1.40001
1.4
2.17425
4.8955
5.36879
5.37689
5.40175
5.42165
5.43814
5.45169
5.46427
5.47699
5.4903
5.50464
5.51882
5.53159
5.54279
5.55326
5.56311
5.57233
5.58123
5.5896
5.59713
5.6042
5.61078
5.6168
5.62224
5.62724
5.63187
5.63604
5.63946
5.64186
5.64286
5.64246
5.64115
5.63969
5.63891
5.63907
5.6396
5.64002
5.63953
5.6378
5.63429
5.62871
5.6201
5.60997
5.59985
5.59073
1.40001
1.40001
1.40001
1.40001
1.40001
1.40001
1.40001
1.40001
1.40001
1.40001
1.40001
1.40001
1.40001
1.40001
1.40001
1.40001
1.40001
1.40001
1.40001
1.40001
1.40001
1.40001
1.40001
1.40001
1.40001
1.40001
1.40001
1.40001
1.40001
1.40001
1.40001
1.40001
1.40001
1.40001
1.40001
1.40001
1.40001
1.40001
1.40001
1.40001
1.40001
1.40001
1.40001
1.40001
1.40001
1.40001
1.40001
1.40001
1.40001
1.40001
1.443
3.97509
5.38926
5.39596
5.40471
5.41635
5.42738
5.437
5.44529
5.45379
5.46358
5.47506
5.48733
5.49871
5.50845
5.5171
5.52513
5.5326
5.53968
5.5464
5.55233
5.55754
5.56235
5.56641
5.56938
5.57123
5.57225
5.57283
5.57317
5.57302
5.57145
5.56797
5.56229
5.55542
5.54826
5.54115
5.53346
5.52428
5.51264
5.49832
5.48147
5.46274
5.44535
5.42939
5.42107
5.41577
1.40001
1.40001
1.40001
1.40001
1.40001
1.40001
1.40001
1.40001
1.40001
1.40001
1.40001
1.40001
1.40001
1.40001
1.40001
1.40001
1.40001
1.40001
1.40001
1.40001
1.40001
1.40001
1.40001
1.40001
1.40001
1.40001
1.40001
1.40001
1.40001
1.40001
1.40001
1.40001
1.40001
1.40001
1.40001
1.40001
1.40001
1.40001
1.40001
1.40001
1.40001
1.40001
1.40001
1.40001
1.40001
1.40001
1.40001
1.40001
1.40001
1.40001
1.40006
2.6225
5.08423
5.34328
5.35746
5.37452
5.38987
5.40285
5.41298
5.42148
5.42998
5.43944
5.44974
5.45977
5.46868
5.47649
5.48344
5.48965
5.49517
5.49999
5.50388
5.50669
5.50884
5.51022
5.51042
5.50885
5.50546
5.50094
5.49623
5.49156
5.48606
5.47823
5.46771
5.45445
5.43872
5.42117
5.40217
5.38173
5.35959
5.33603
5.31092
5.28391
5.24783
5.20599
5.14769
5.164
1.40001
1.40001
1.40001
1.40001
1.40001
1.40001
1.40001
1.40001
1.40001
1.40001
1.40001
1.40001
1.40001
1.40001
1.40001
1.40001
1.40001
1.40001
1.40001
1.40001
1.40001
1.40001
1.40001
1.40001
1.40001
1.40001
1.40001
1.40001
1.40001
1.40001
1.40001
1.40001
1.40001
1.40001
1.40001
1.40001
1.40001
1.40001
1.40001
1.40001
1.40001
1.40001
1.40001
1.40001
1.40001
1.40001
1.40001
1.40001
1.40001
1.40001
1.40001
1.56449
4.39095
5.35937
5.35478
5.36197
5.37353
5.38523
5.39519
5.40276
5.40892
5.41491
5.42155
5.42862
5.43531
5.44112
5.44602
5.45016
5.45366
5.45636
5.45789
5.4581
5.45713
5.45525
5.4527
5.4483
5.44115
5.4321
5.42202
5.41172
5.40091
5.38832
5.37284
5.35328
5.32882
5.29955
5.26576
5.2277
5.18321
5.13044
5.06105
4.9674
4.82121
4.59405
4.18156
3.27687
1.40001
1.40001
1.40001
1.40001
1.40001
1.40001
1.40001
1.40001
1.40001
1.40001
1.40001
1.40001
1.40001
1.40001
1.40001
1.40001
1.40001
1.40001
1.40001
1.40001
1.40001
1.40001
1.40001
1.40001
1.40001
1.40001
1.40001
1.40001
1.40001
1.40001
1.40001
1.40001
1.40001
1.40001
1.40001
1.40001
1.40001
1.40001
1.40001
1.40001
1.40001
1.40001
1.40001
1.40001
1.40001
1.40001
1.40001
1.40001
1.40001
1.40001
1.4
1.40142
3.24419
5.17415
5.30576
5.3247
5.34187
5.35687
5.37006
5.37901
5.38439
5.38821
5.39207
5.39667
5.40139
5.40549
5.40873
5.41136
5.41362
5.41512
5.41522
5.41362
5.41006
5.4052
5.39989
5.39285
5.38335
5.37149
5.35752
5.34207
5.32557
5.3075
5.28655
5.26104
5.22896
5.18954
5.14151
5.08601
5.01868
4.93925
4.83389
4.69819
4.4957
4.22138
3.69152
2.92199
1.40001
1.40001
1.40001
1.40001
1.40001
1.40001
1.40001
1.40001
1.40001
1.40001
1.40001
1.40001
1.40001
1.40001
1.40001
1.40001
1.40001
1.40001
1.40001
1.40001
1.40001
1.40001
1.40001
1.40001
1.40001
1.40001
1.40001
1.40001
1.40001
1.40001
1.40001
1.40001
1.40001
1.40001
1.40001
1.40001
1.40001
1.40001
1.40001
1.40001
1.40001
1.40001
1.40001
1.40001
1.40001
1.40001
1.40001
1.40001
1.40001
1.40001
1.40001
1.4
1.97149
4.73292
5.31898
5.31534
5.33099
5.34511
5.35862
5.3663
5.36915
5.37107
5.37308
5.37559
5.37813
5.37976
5.38014
5.37977
5.379
5.37786
5.37565
5.37182
5.36567
5.35768
5.34849
5.33743
5.32452
5.30945
5.29189
5.27188
5.24967
5.22545
5.19785
5.16567
5.12596
5.07763
5.01752
4.94683
4.86119
4.75946
4.63276
4.46863
4.25378
3.93891
3.49613
2.99446
1.40001
1.40001
1.40001
1.40001
1.40001
1.40001
1.40001
1.40001
1.40001
1.40001
1.40001
1.40001
1.40001
1.40001
1.40001
1.40001
1.40001
1.40001
1.40001
1.40001
1.40001
1.40001
1.40001
1.40001
1.40001
1.40001
1.40001
1.40001
1.40001
1.40001
1.40001
1.40001
1.40001
1.40001
1.40001
1.40001
1.40001
1.40001
1.40001
1.40001
1.40001
1.40001
1.40001
1.40001
1.40001
1.40001
1.40001
1.40001
1.40001
1.40001
1.40001
1.4
1.42563
3.561
5.21695
5.30907
5.32667
5.33649
5.34215
5.3437
5.34309
5.34509
5.34828
5.35094
5.35261
5.35285
5.35109
5.3477
5.34342
5.33861
5.33321
5.32696
5.31891
5.30882
5.29627
5.28142
5.26438
5.24524
5.22374
5.19988
5.17305
5.14358
5.10974
5.07103
5.02426
4.96837
4.8999
4.81853
4.72146
4.60567
4.46718
4.29309
4.07983
3.7959
3.45405
3.08963
1.40001
1.40001
1.40001
1.40001
1.40001
1.40001
1.40001
1.40001
1.40001
1.40001
1.40001
1.40001
1.40001
1.40001
1.40001
1.40001
1.40001
1.40001
1.40001
1.40001
1.40001
1.40001
1.40001
1.40001
1.40001
1.40001
1.40001
1.40001
1.40001
1.40001
1.40001
1.40001
1.40001
1.40001
1.40001
1.40001
1.40001
1.40001
1.40001
1.40001
1.40001
1.40001
1.40001
1.40001
1.40001
1.40001
1.40001
1.40001
1.40001
1.40001
1.40001
1.40001
1.4
2.09109
4.8052
5.32481
5.30925
5.31997
5.32362
5.32348
5.32175
5.32256
5.32551
5.32769
5.32884
5.32796
5.32466
5.31856
5.31044
5.30119
5.29179
5.28228
5.27217
5.26052
5.24579
5.22797
5.20695
5.18332
5.15706
5.12894
5.09796
5.06416
5.02534
4.98079
4.92795
4.86592
4.79242
4.70598
4.60449
4.48429
4.34372
4.17304
3.97263
3.73785
3.46902
3.18245
1.40001
1.40001
1.40001
1.40001
1.40001
1.40001
1.40001
1.40001
1.40001
1.40001
1.40001
1.40001
1.40001
1.40001
1.40001
1.40001
1.40001
1.40001
1.40001
1.40001
1.40001
1.40001
1.40001
1.40001
1.40001
1.40001
1.40001
1.40001
1.40001
1.40001
1.40001
1.40001
1.40001
1.40001
1.40001
1.40001
1.40001
1.40001
1.40001
1.40001
1.40001
1.40001
1.40001
1.40001
1.40001
1.40001
1.40001
1.40001
1.40001
1.40001
1.40001
1.40001
1.4
1.43433
3.5931
5.24664
5.28189
5.29264
5.29567
5.29652
5.29715
5.29911
5.30264
5.30433
5.30439
5.3022
5.29785
5.29003
5.27924
5.26684
5.25386
5.24035
5.2265
5.21198
5.1952
5.17542
5.15183
5.12474
5.09408
5.06146
5.02634
4.98858
4.94584
4.89673
4.83927
4.77278
4.69621
4.60818
4.50734
4.38914
4.25663
4.09501
3.91677
3.72207
3.49544
3.26671
1.40001
1.40001
1.40001
1.40001
1.40001
1.40001
1.40001
1.40001
1.40001
1.40001
1.40001
1.40001
1.40001
1.40001
1.40001
1.40001
1.40001
1.40001
1.40001
1.40001
1.40001
1.40001
1.40001
1.40001
1.40001
1.40001
1.40001
1.40001
1.40001
1.40001
1.40001
1.40001
1.40001
1.40001
1.40001
1.40001
1.40001
1.40001
1.40001
1.40001
1.40001
1.40001
1.40001
1.40001
1.40001
1.40001
1.40001
1.40001
1.40001
1.40001
1.40001
1.40001
1.40001
1.40003
2.00607
4.75289
5.30084
5.27881
5.2773
5.27399
5.27202
5.27196
5.27383
5.27508
5.27422
5.27102
5.26619
5.25707
5.24461
5.23121
5.21613
5.20034
5.18311
5.16498
5.14539
5.12357
5.09805
5.06855
5.0347
4.99858
4.96029
4.91935
4.87343
4.82081
4.76
4.69072
4.61262
4.52468
4.42748
4.31382
4.19282
4.04592
3.8906
3.72408
3.53175
3.3361
1.40001
1.40001
1.40001
1.40001
1.40001
1.40001
1.40001
1.40001
1.40001
1.40001
1.40001
1.40001
1.40001
1.40001
1.40001
1.40001
1.40001
1.40001
1.40001
1.40001
1.40001
1.40001
1.40001
1.40001
1.40001
1.40001
1.40001
1.40001
1.40001
1.40001
1.40001
1.40001
1.40001
1.40001
1.40001
1.40001
1.40001
1.40001
1.40001
1.40001
1.40001
1.40001
1.40001
1.40001
1.40001
1.40001
1.40001
1.40001
1.40001
1.40001
1.40001
1.40001
1.40001
1.40001
1.42403
3.33763
5.15162
5.25252
5.24779
5.24633
5.24851
5.24998
5.25142
5.25207
5.24952
5.24451
5.23797
5.22672
5.21263
5.19857
5.18239
5.16555
5.14578
5.12385
5.10011
5.07504
5.0472
5.01571
4.97989
4.94173
4.90136
4.85793
4.80932
4.75406
4.69121
4.62077
4.54279
4.45583
4.36176
4.25386
4.14232
4.01368
3.8767
3.73185
3.56985
3.40089
1.40001
1.40001
1.40001
1.40001
1.40001
1.40001
1.40001
1.40001
1.40001
1.40001
1.40001
1.40001
1.40001
1.40001
1.40001
1.40001
1.40001
1.40001
1.40001
1.40001
1.40001
1.40001
1.40001
1.40001
1.40001
1.40001
1.40001
1.40001
1.40001
1.40001
1.40001
1.40001
1.40001
1.40001
1.40001
1.40001
1.40001
1.40001
1.40001
1.40001
1.40001
1.40001
1.40001
1.40001
1.40001
1.40001
1.40001
1.40001
1.40001
1.40001
1.40001
1.40001
1.40001
1.40001
1.40002
1.7304
4.52344
5.2808
5.25629
5.24413
5.23226
5.2269
5.2239
5.22134
5.21678
5.20987
5.20126
5.18832
5.17336
5.1588
5.14327
5.1271
5.10713
5.08395
5.0575
5.0293
4.99893
4.96543
4.92844
4.88962
4.8484
4.80357
4.75328
4.69627
4.63232
4.56161
4.48527
4.40008
4.30927
4.20832
4.10417
3.99062
3.86638
3.7411
3.60152
3.45579
1.40001
1.40001
1.40001
1.40001
1.40001
1.40001
1.40001
1.40001
1.40001
1.40001
1.40001
1.40001
1.40001
1.40001
1.40001
1.40001
1.40001
1.40001
1.40001
1.40001
1.40001
1.40001
1.40001
1.40001
1.40001
1.40001
1.40001
1.40001
1.40001
1.40001
1.40001
1.40001
1.40001
1.40001
1.40001
1.40001
1.40001
1.40001
1.40001
1.40001
1.40001
1.40001
1.40001
1.40001
1.40001
1.40001
1.40001
1.40001
1.40001
1.40001
1.40001
1.40001
1.40001
1.40001
1.40001
1.40593
2.91475
5.02745
5.19506
5.20132
5.20213
5.19765
5.19185
5.18582
5.17957
5.17167
5.16248
5.14923
5.13386
5.11832
5.1029
5.08728
5.06773
5.04511
5.01771
4.98718
4.95422
4.91888
4.88096
4.8419
4.80039
4.75494
4.70399
4.64642
4.58257
4.51245
4.43883
4.35574
4.26962
4.17535
4.07793
3.97445
3.86057
3.75001
3.62641
3.49993
1.40001
1.40001
1.40001
1.40001
1.40001
1.40001
1.40001
1.40001
1.40001
1.40001
1.40001
1.40001
1.40001
1.40001
1.40001
1.40001
1.40001
1.40001
1.40001
1.40001
1.40001
1.40001
1.40001
1.40001
1.40001
1.40001
1.40001
1.40001
1.40001
1.40001
1.40001
1.40001
1.40001
1.40001
1.40001
1.40001
1.40001
1.40001
1.40001
1.40001
1.40001
1.40001
1.40001
1.40001
1.40001
1.40001
1.40001
1.40001
1.40001
1.40001
1.40001
1.40001
1.40001
1.40001
1.40001
1.40001
1.54864
3.97359
5.18098
5.19089
5.18269
5.17533
5.16881
5.16133
5.15365
5.14356
5.13231
5.1173
5.09963
5.0817
5.06455
5.04788
5.02837
5.00665
4.9801
4.94931
4.91458
4.87736
4.83842
4.79885
4.7571
4.71141
4.66081
4.60369
4.54076
4.4717
4.40094
4.32027
4.23977
4.15171
4.06052
3.96484
3.86099
3.75997
3.6468
3.53545
1.40001
1.40001
1.40001
1.40001
1.40001
1.40001
1.40001
1.40001
1.40001
1.40001
1.40001
1.40001
1.40001
1.40001
1.40001
1.40001
1.40001
1.40001
1.40001
1.40001
1.40001
1.40001
1.40001
1.40001
1.40001
1.40001
1.40001
1.40001
1.40001
1.40001
1.40001
1.40001
1.40001
1.40001
1.40001
1.40001
1.40001
1.40001
1.40001
1.40001
1.40001
1.40001
1.40001
1.40001
1.40001
1.40001
1.40001
1.40001
1.40001
1.40001
1.40001
1.40001
1.40001
1.40001
1.40001
1.40001
1.40107
2.11083
4.75249
5.17672
5.15319
5.15186
5.14683
5.13938
5.12991
5.11731
5.10318
5.08715
5.06834
5.04851
5.02916
5.01017
4.98995
4.96825
4.94283
4.91295
4.87756
4.8389
4.7994
4.75826
4.7166
4.67091
4.62151
4.56639
4.50621
4.43845
4.36974
4.29284
4.21757
4.13481
4.04995
3.9612
3.86601
3.77118
3.66769
3.56742
1.40001
1.40001
1.40001
1.40001
1.40001
1.40001
1.40001
1.40001
1.40001
1.40001
1.40001
1.40001
1.40001
1.40001
1.40001
1.40001
1.40001
1.40001
1.40001
1.40001
1.40001
1.40001
1.40001
1.40001
1.40001
1.40001
1.40001
1.40001
1.40001
1.40001
1.40001
1.40001
1.40001
1.40001
1.40001
1.40001
1.40001
1.40001
1.40001
1.40001
1.40001
1.40001
1.40001
1.40001
1.40001
1.40001
1.40001
1.40001
1.40001
1.40001
1.40001
1.40001
1.40001
1.40001
1.40001
1.40001
1.40001
1.43013
3.08925
5.03492
5.13644
5.13507
5.1305
5.12239
5.11162
5.09673
5.07917
5.06118
5.04109
5.0202
4.99975
4.97899
4.95767
4.93512
4.90892
4.87942
4.84356
4.8045
4.7638
4.72302
4.68024
4.63567
4.58716
4.53472
4.47764
4.41211
4.34572
4.27349
4.20177
4.12335
4.04383
3.96157
3.8727
3.78288
3.68932
3.59632
1.40001
1.40001
1.40001
1.40001
1.40001
1.40001
1.40001
1.40001
1.40001
1.40001
1.40001
1.40001
1.40001
1.40001
1.40001
1.40001
1.40001
1.40001
1.40001
1.40001
1.40001
1.40001
1.40001
1.40001
1.40001
1.40001
1.40001
1.40001
1.40001
1.40001
1.40001
1.40001
1.40001
1.40001
1.40001
1.40001
1.40001
1.40001
1.40001
1.40001
1.40001
1.40001
1.40001
1.40001
1.40001
1.40001
1.40001
1.40001
1.40001
1.40001
1.40001
1.40001
1.40001
1.40001
1.40001
1.40001
1.40001
1.40007
1.57653
3.78296
5.08586
5.13599
5.12597
5.11574
5.10259
5.08404
5.06332
5.04185
5.0194
4.99661
4.97507
4.95323
4.9309
4.90673
4.87863
4.84843
4.81238
4.7732
4.73213
4.68983
4.64732
4.60288
4.55577
4.50562
4.45046
4.39001
4.32689
4.25901
4.19051
4.1159
4.0405
3.96362
3.88011
3.7966
3.71041
3.62356
1.40001
1.40001
1.40001
1.40001
1.40001
1.40001
1.40001
1.40001
1.40001
1.40001
1.40001
1.40001
1.40001
1.40001
1.40001
1.40001
1.40001
1.40001
1.40001
1.40001
1.40001
1.40001
1.40001
1.40001
1.40001
1.40001
1.40001
1.40001
1.40001
1.40001
1.40001
1.40001
1.40001
1.40001
1.40001
1.40001
1.40001
1.40001
1.40001
1.40001
1.40001
1.40001
1.40001
1.40001
1.40001
1.40001
1.40001
1.40001
1.40001
1.40001
1.40001
1.40001
1.40001
1.40001
1.40001
1.40001
1.40001
1.40001
1.40163
1.80075
4.47469
5.17411
5.14512
5.11793
5.09138
5.06667
5.04233
5.01824
4.9945
4.9716
4.94952
4.9282
4.90568
4.88054
4.85107
4.81881
4.78319
4.74351
4.70273
4.66049
4.61781
4.57416
4.52841
4.48015
4.42815
4.37208
4.31266
4.24855
4.18289
4.1121
4.04023
3.96705
3.88872
3.81107
3.73084
3.64879
1.40001
1.40001
1.40001
1.40001
1.40001
1.40001
1.40001
1.40001
1.40001
1.40001
1.40001
1.40001
1.40001
1.40001
1.40001
1.40001
1.40001
1.40001
1.40001
1.40001
1.40001
1.40001
1.40001
1.40001
1.40001
1.40001
1.40001
1.40001
1.40001
1.40001
1.40001
1.40001
1.40001
1.40001
1.40001
1.40001
1.40001
1.40001
1.40001
1.40001
1.40001
1.40001
1.40001
1.40001
1.40001
1.40001
1.40001
1.40001
1.40001
1.40001
1.40001
1.40001
1.40001
1.40001
1.40001
1.40001
1.40001
1.40001
1.40001
1.40876
2.56721
4.90335
5.10296
5.07298
5.05274
5.03274
5.01334
4.99285
4.97223
4.95189
4.93058
4.90765
4.88414
4.85811
4.82716
4.79363
4.75833
4.71898
4.67846
4.63649
4.59376
4.55001
4.50496
4.45836
4.40857
4.35524
4.2989
4.23835
4.17576
4.10907
4.04083
3.97102
3.89774
3.82517
3.75019
3.67259
1.40001
1.40001
1.40001
1.40001
1.40001
1.40001
1.40001
1.40001
1.40001
1.40001
1.40001
1.40001
1.40001
1.40001
1.40001
1.40001
1.40001
1.40001
1.40001
1.40001
1.40001
1.40001
1.40001
1.40001
1.40001
1.40001
1.40001
1.40001
1.40001
1.40001
1.40001
1.40001
1.40001
1.40001
1.40001
1.40001
1.40001
1.40001
1.40001
1.40001
1.40001
1.40001
1.40001
1.40001
1.40001
1.40001
1.40001
1.40001
1.40001
1.40001
1.40001
1.40001
1.40001
1.40001
1.40001
1.40001
1.40001
1.40001
1.40001
1.40002
1.47924
3.20339
4.98296
5.03563
5.02296
5.01933
5.00762
4.99084
4.97056
4.94884
4.92544
4.90001
4.87354
4.84631
4.81322
4.77819
4.74176
4.70195
4.66088
4.6187
4.57559
4.53205
4.48717
4.44176
4.39355
4.34197
4.2876
4.22997
4.17031
4.10729
4.0422
3.97554
3.90675
3.83823
3.76755
3.69394
1.40001
1.40001
1.40001
1.40001
1.40001
1.40001
1.40001
1.40001
1.40001
1.40001
1.40001
1.40001
1.40001
1.40001
1.40001
1.40001
1.40001
1.40001
1.40001
1.40001
1.40001
1.40001
1.40001
1.40001
1.40001
1.40001
1.40001
1.40001
1.40001
1.40001
1.40001
1.40001
1.40001
1.40001
1.40001
1.40001
1.40001
1.40001
1.40001
1.40001
1.40001
1.40001
1.40001
1.40001
1.40001
1.40001
1.40001
1.40001
1.40001
1.40001
1.40001
1.40001
1.40001
1.40001
1.40001
1.40001
1.40001
1.40001
1.40001
1.40001
1.40042
1.60017
3.58681
4.98233
5.01032
5.00598
4.9986
4.9845
4.96631
4.94478
4.92059
4.89372
4.865
4.83559
4.8016
4.76611
4.72872
4.68886
4.64774
4.60556
4.56218
4.51822
4.47354
4.4285
4.38121
4.33103
4.27803
4.22258
4.16537
4.10539
4.04299
3.97941
3.91456
3.84948
3.78234
3.7126
1.40001
1.40001
1.40001
1.40001
1.40001
1.40001
1.40001
1.40001
1.40001
1.40001
1.40001
1.40001
1.40001
1.40001
1.40001
1.40001
1.40001
1.40001
1.40001
1.40001
1.40001
1.40001
1.40001
1.40001
1.40001
1.40001
1.40001
1.40001
1.40001
1.40001
1.40001
1.40001
1.40001
1.40001
1.40001
1.40001
1.40001
1.40001
1.40001
1.40001
1.40001
1.40001
1.40001
1.40001
1.40001
1.40001
1.40001
1.40001
1.40001
1.40001
1.40001
1.40001
1.40001
1.40001
1.40001
1.40001
1.40001
1.40001
1.40001
1.40001
1.40001
1.40224
1.72199
3.9063
5.01088
5.00922
4.99443
4.97752
4.95866
4.93664
4.91227
4.88533
4.85671
4.82646
4.79322
4.75811
4.72074
4.68126
4.64038
4.59846
4.55529
4.51097
4.46611
4.42111
4.37409
4.32456
4.27273
4.21894
4.16329
4.10497
4.04433
3.98338
3.92173
3.85956
3.79536
3.72984
1.40001
1.40001
1.40001
1.40001
1.40001
1.40001
1.40001
1.40001
1.40001
1.40001
1.40001
1.40001
1.40001
1.40001
1.40001
1.40001
1.40001
1.40001
1.40001
1.40001
1.40001
1.40001
1.40001
1.40001
1.40001
1.40001
1.40001
1.40001
1.40001
1.40001
1.40001
1.40001
1.40001
1.40001
1.40001
1.40001
1.40001
1.40001
1.40001
1.40001
1.40001
1.40001
1.40001
1.40001
1.40001
1.40001
1.40001
1.40001
1.40001
1.40001
1.40001
1.40001
1.40001
1.40001
1.40001
1.40001
1.40001
1.40001
1.40001
1.40001
1.40001
1.40001
1.40565
1.85844
4.1898
5.018
5.00225
4.97954
4.95546
4.93076
4.90398
4.87577
4.84639
4.81577
4.78319
4.74835
4.7115
4.67313
4.63348
4.59265
4.55049
4.50684
4.46215
4.41707
4.37048
4.32131
4.26999
4.21711
4.16253
4.10554
4.04712
3.98879
3.9299
3.86978
3.80814
3.74707
1.40001
1.40001
1.40001
1.40001
1.40001
1.40001
1.40001
1.40001
1.40001
1.40001
1.40001
1.40001
1.40001
1.40001
1.40001
1.40001
1.40001
1.40001
1.40001
1.40001
1.40001
1.40001
1.40001
1.40001
1.40001
1.40001
1.40001
1.40001
1.40001
1.40001
1.40001
1.40001
1.40001
1.40001
1.40001
1.40001
1.40001
1.40001
1.40001
1.40001
1.40001
1.40001
1.40001
1.40001
1.40001
1.40001
1.40001
1.40001
1.40001
1.40001
1.40001
1.40001
1.40001
1.40001
1.40001
1.40001
1.40001
1.40001
1.40001
1.40001
1.40001
1.40001
1.40002
1.41136
2.01264
4.39603
5.02845
5.00213
4.97176
4.93928
4.90793
4.87566
4.84218
4.80901
4.77501
4.73952
4.70297
4.66564
4.62738
4.58798
4.54732
4.50526
4.46171
4.41693
4.37053
4.32185
4.27102
4.21864
4.16502
4.10965
4.05372
3.99767
3.94096
3.88212
3.82272
3.76582
1.40001
1.40001
1.40001
1.40001
1.40001
1.40001
1.40001
1.40001
1.40001
1.40001
1.40001
1.40001
1.40001
1.40001
1.40001
1.40001
1.40001
1.40001
1.40001
1.40001
1.40001
1.40001
1.40001
1.40001
1.40001
1.40001
1.40001
1.40001
1.40001
1.40001
1.40001
1.40001
1.40001
1.40001
1.40001
1.40001
1.40001
1.40001
1.40001
1.40001
1.40001
1.40001
1.40001
1.40001
1.40001
1.40001
1.40001
1.40001
1.40001
1.40001
1.40001
1.40001
1.40001
1.40001
1.40001
1.40001
1.40001
1.40001
1.40001
1.40001
1.40001
1.40001
1.40001
1.40004
1.42031
2.16089
4.57676
5.02638
4.99493
4.95985
4.92059
4.8827
4.84591
4.80962
4.77242
4.7352
4.69792
4.66052
4.62263
4.58388
4.54403
4.50296
4.46044
4.41647
4.37085
4.3234
4.27413
4.22323
4.17126
4.11756
4.06349
4.00916
3.95387
3.89599
3.83841
3.78449
1.40001
1.40001
1.40001
1.40001
1.40001
1.40001
1.40001
1.40001
1.40001
1.40001
1.40001
1.40001
1.40001
1.40001
1.40001
1.40001
1.40001
1.40001
1.40001
1.40001
1.40001
1.40001
1.40001
1.40001
1.40001
1.40001
1.40001
1.40001
1.40001
1.40001
1.40001
1.40001
1.40001
1.40001
1.40001
1.40001
1.40001
1.40001
1.40001
1.40001
1.40001