/*--------------------------------*- C++ -*----------------------------------*\
  =========                 |
  \\      /  F ield         | OpenFOAM: The Open Source CFD Toolbox
   \\    /   O peration     | Website:  https://openfoam.org
    \\  /    A nd           | Version:  7
     \\/     M anipulation  |
\*---------------------------------------------------------------------------*/
FoamFile
{
    version     2.0;
    format      ascii;
    class       volScalarField;
    location    "7";
    object      T;
}
// * * * * * * * * * * * * * * * * * * * * * * * * * * * * * * * * * * * * * //

dimensions      [0 0 0 1 0 0 0];

internalField   nonuniform List<scalar> 
19968
(
1
1
1
1
1
1
1
1
1
1
1
1
1
1
1
1
1
1
1
1
1
1
1
1
1
1
1
1
1
1
1
1
1
1
1
1
1
1
1
1
1
1
1
1
1
1
1
1
1.27057
2.45346
2.69276
2.69532
2.6986
2.70099
2.70344
2.70672
2.71145
2.71741
2.72351
2.72843
2.73179
2.7341
2.73619
2.73868
2.74183
2.74565
2.74986
2.75396
2.75753
2.76049
2.76306
2.76553
2.76805
2.77062
2.77312
2.7754
2.77748
2.77951
2.78163
2.78391
2.78625
2.78846
2.79036
2.7919
2.79315
2.79428
2.79546
2.79684
2.79842
2.80005
2.80149
2.8025
2.80301
2.80312
2.80303
2.80285
1
1
1
1
1
1
1
1
1
1
1
1
1
1
1
1
1
1
1
1
1
1
1
1
1
1
1
1
1
1
1
1
1
1
1
1
1
1
1
1
1
1
1
1
1
1
1
1
1.25894
2.44815
2.69258
2.69479
2.69825
2.70076
2.70335
2.70677
2.71153
2.7174
2.72335
2.72817
2.73154
2.73391
2.73605
2.73855
2.74168
2.74547
2.74964
2.75369
2.75721
2.76015
2.76271
2.76516
2.76767
2.77024
2.77274
2.77506
2.77718
2.77925
2.78142
2.78375
2.78611
2.7883
2.79014
2.7916
2.79278
2.79386
2.79504
2.79643
2.79802
2.79965
2.80106
2.80204
2.80253
2.80264
2.80255
2.80237
1
1
1
1
1
1
1
1
1
1
1
1
1
1
1
1
1
1
1
1
1
1
1
1
1
1
1
1
1
1
1
1
1
1
1
1
1
1
1
1
1
1
1
1
1
1
1
1
1.22898
2.43268
2.69175
2.69353
2.69712
2.69996
2.70298
2.7067
2.71151
2.71716
2.72281
2.72744
2.73083
2.73332
2.73558
2.73816
2.74128
2.74504
2.74914
2.75312
2.75659
2.7595
2.76204
2.76448
2.76699
2.76956
2.77208
2.77442
2.7766
2.77873
2.78096
2.78334
2.78574
2.78792
2.78971
2.79108
2.79217
2.7932
2.79435
2.79574
2.79735
2.79899
2.80039
2.80135
2.80183
2.80194
2.80185
2.80169
1
1
1
1
1
1
1
1
1
1
1
1
1
1
1
1
1
1
1
1
1
1
1
1
1
1
1
1
1
1
1
1
1
1
1
1
1
1
1
1
1
1
1
1
1
1
1
1
1.18402
2.40625
2.69009
2.69208
2.69584
2.69932
2.70292
2.70694
2.71163
2.71683
2.722
2.72639
2.72983
2.73255
2.73498
2.73766
2.74077
2.74445
2.74843
2.7523
2.75571
2.75859
2.76113
2.76357
2.76608
2.76866
2.7712
2.77358
2.77582
2.77803
2.78034
2.78277
2.78517
2.7873
2.78899
2.79023
2.79119
2.79211
2.79322
2.79461
2.79622
2.79785
2.79924
2.80019
2.80068
2.80082
2.80077
2.80065
1
1
1
1
1
1
1
1
1
1
1
1
1
1
1
1
1
1
1
1
1
1
1
1
1
1
1
1
1
1
1
1
1
1
1
1
1
1
1
1
1
1
1
1
1
1
1
1
1.1244
2.36893
2.68743
2.69076
2.69494
2.69902
2.70312
2.70732
2.71163
2.71618
2.72077
2.72495
2.72857
2.73165
2.7344
2.73724
2.74033
2.74388
2.74765
2.75135
2.75466
2.75752
2.76009
2.76257
2.7651
2.76768
2.77023
2.77263
2.77492
2.7772
2.77958
2.78206
2.78447
2.78654
2.78813
2.78926
2.79011
2.79096
2.79201
2.79334
2.79488
2.79641
2.79768
2.79854
2.79897
2.79909
2.79905
2.79896
1
1
1
1
1
1
1
1
1
1
1
1
1
1
1
1
1
1
1
1
1
1
1
1
1
1
1
1
1
1
1
1
1
1
1
1
1
1
1
1
1
1
1
1
1
1
1
1
1.01053
2.30174
2.68523
2.69068
2.6952
2.69974
2.70411
2.70822
2.71198
2.71563
2.71943
2.72338
2.7273
2.73094
2.73418
2.73723
2.74022
2.74346
2.74684
2.75021
2.7533
2.7561
2.75869
2.76122
2.76375
2.7663
2.76877
2.77112
2.77338
2.77566
2.77806
2.78054
2.7829
2.7849
2.7864
2.78747
2.78829
2.78912
2.79017
2.7915
2.79301
2.79449
2.7957
2.79652
2.79695
2.7971
2.79709
2.79704
1
1
1
1
1
1
1
1
1
1
1
1
1
1
1
1
1
1
1
1
1
1
1
1
1
1
1
1
1
1
1
1
1
1
1
1
1
1
1
1
1
1
1
1
1
1
1
1
1.00006
2.21273
2.6803
2.68756
2.69191
2.69671
2.7011
2.70512
2.70866
2.71194
2.71542
2.71939
2.72365
2.72788
2.73172
2.73515
2.73826
2.74139
2.7445
2.74758
2.7505
2.75331
2.75602
2.75872
2.76137
2.76395
2.76639
2.76869
2.77093
2.77323
2.77565
2.7781
2.78039
2.78231
2.78377
2.78485
2.78573
2.78664
2.78772
2.78903
2.79046
2.79183
2.79293
2.79367
2.79408
2.79424
2.79426
2.79425
1
1
1
1
1
1
1
1
1
1
1
1
1
1
1
1
1
1
1
1
1
1
1
1
1
1
1
1
1
1
1
1
1
1
1
1
1
1
1
1
1
1
1
1
1
1
1
1
1
2.084
2.67019
2.6855
2.68962
2.69408
2.69795
2.70157
2.70498
2.70836
2.712
2.71609
2.72048
2.72485
2.72889
2.73252
2.73582
2.73898
2.74197
2.74486
2.7476
2.75036
2.75318
2.75603
2.75882
2.76142
2.7638
2.76602
2.7682
2.77046
2.77285
2.77524
2.77742
2.77924
2.78065
2.78175
2.78271
2.78369
2.7848
2.78606
2.78737
2.78858
2.78954
2.79018
2.79056
2.79072
2.79074
2.79075
1
1
1
1
1
1
1
1
1
1
1
1
1
1
1
1
1
1
1
1
1
1
1
1
1
1
1
1
1
1
1
1
1
1
1
1
1
1
1
1
1
1
1
1
1
1
1
1
1
1.90571
2.64042
2.68019
2.68453
2.68905
2.69279
2.69632
2.69983
2.70353
2.70755
2.71187
2.71638
2.72078
2.72488
2.72861
2.73208
2.73535
2.73831
2.74109
2.74368
2.74637
2.74921
2.75216
2.75502
2.75762
2.75995
2.76209
2.76422
2.76646
2.7688
2.77111
2.77319
2.77491
2.77629
2.77744
2.7785
2.77958
2.78074
2.78198
2.7832
2.78429
2.78512
2.78567
2.78599
2.78614
2.78618
2.7862
1
1
1
1
1
1
1
1
1
1
1
1
1
1
1
1
1
1
1
1
1
1
1
1
1
1
1
1
1
1
1
1
1
1
1
1
1
1
1
1
1
1
1
1
1
1
1
1
1
1.67416
2.58141
2.67283
2.67884
2.68419
2.68818
2.6915
2.69474
2.69848
2.70279
2.70732
2.71194
2.71631
2.72032
2.72399
2.72751
2.73087
2.7339
2.73669
2.73924
2.74183
2.74458
2.74746
2.75027
2.75281
2.75505
2.75712
2.75918
2.76134
2.76359
2.76579
2.76775
2.7694
2.77078
2.772
2.77317
2.77436
2.77558
2.77678
2.77788
2.77879
2.77944
2.77983
2.78002
2.78008
2.78011
2.7801
1
1
1
1
1
1
1
1
1
1
1
1
1
1
1
1
1
1
1
1
1
1
1
1
1
1
1
1
1
1
1
1
1
1
1
1
1
1
1
1
1
1
1
1
1
1
1
1
1
1.37087
2.47577
2.66944
2.67351
2.68055
2.68397
2.68692
2.68975
2.69326
2.6976
2.70222
2.70688
2.71121
2.7151
2.71863
2.72208
2.72548
2.7286
2.73148
2.73411
2.73664
2.73929
2.74203
2.74475
2.74725
2.74949
2.75154
2.75354
2.75559
2.75765
2.7596
2.76132
2.76275
2.76395
2.76504
2.76612
2.76725
2.7684
2.76952
2.77052
2.77133
2.77187
2.7722
2.77233
2.77236
2.77239
2.77238
1
1
1
1
1
1
1
1
1
1
1
1
1
1
1
1
1
1
1
1
1
1
1
1
1
1
1
1
1
1
1
1
1
1
1
1
1
1
1
1
1
1
1
1
1
1
1
1
1
1.01512
2.29442
2.67643
2.67794
2.68079
2.68333
2.68611
2.68862
2.69134
2.69461
2.69825
2.70221
2.70614
2.70966
2.71277
2.71581
2.71893
2.72191
2.72474
2.72733
2.7297
2.7321
2.73459
2.73714
2.7396
2.74186
2.74394
2.74594
2.74791
2.74984
2.75163
2.75319
2.75449
2.7556
2.75665
2.75773
2.75885
2.75997
2.76097
2.76174
2.7622
2.76238
2.76224
2.76184
2.76152
2.76129
2.76112
1
1
1
1
1
1
1
1
1
1
1
1
1
1
1
1
1
1
1
1
1
1
1
1
1
1
1
1
1
1
1
1
1
1
1
1
1
1
1
1
1
1
1
1
1
1
1
1
1
1.00003
2.01513
2.64415
2.66195
2.6665
2.67145
2.67594
2.6796
2.68276
2.68598
2.68938
2.69301
2.69673
2.70019
2.70327
2.70622
2.70927
2.71229
2.71514
2.71773
2.72005
2.72228
2.72462
2.72708
2.72956
2.7319
2.73404
2.73602
2.7379
2.73969
2.74131
2.74268
2.74375
2.74459
2.74532
2.74605
2.74679
2.74746
2.74796
2.74824
2.74833
2.74829
2.74806
2.74762
2.74711
2.74655
2.74618
1
1
1
1
1
1
1
1
1
1
1
1
1
1
1
1
1
1
1
1
1
1
1
1
1
1
1
1
1
1
1
1
1
1
1
1
1
1
1
1
1
1
1
1
1
1
1
1
1
1
1.54222
2.51343
2.64701
2.65441
2.66243
2.66778
2.67201
2.67562
2.67909
2.6826
2.68611
2.68961
2.69287
2.69581
2.69858
2.70143
2.70425
2.70686
2.70917
2.7112
2.71307
2.71502
2.71715
2.71934
2.72142
2.72328
2.72493
2.72644
2.72786
2.72919
2.73027
2.73097
2.73141
2.7317
2.73199
2.73237
2.73273
2.73293
2.73286
2.73254
2.73184
2.73065
2.72853
2.7255
2.72206
2.71926
1
1
1
1
1
1
1
1
1
1
1
1
1
1
1
1
1
1
1
1
1
1
1
1
1
1
1
1
1
1
1
1
1
1
1
1
1
1
1
1
1
1
1
1
1
1
1
1
1
1
1.02748
2.24958
2.65664
2.6566
2.65805
2.66065
2.66363
2.66687
2.67025
2.67367
2.67696
2.68009
2.68302
2.68576
2.68841
2.69112
2.6938
2.69623
2.6983
2.70005
2.70158
2.70309
2.70481
2.70664
2.70834
2.70973
2.71082
2.71175
2.71271
2.71364
2.71424
2.71453
2.71443
2.71399
2.7133
2.7125
2.71148
2.71002
2.70792
2.70517
2.70184
2.69801
2.69409
2.68971
2.68635
2.68424
1
1
1
1
1
1
1
1
1
1
1
1
1
1
1
1
1
1
1
1
1
1
1
1
1
1
1
1
1
1
1
1
1
1
1
1
1
1
1
1
1
1
1
1
1
1
1
1
1
1
1.00005
1.75851
2.56203
2.63634
2.64106
2.64491
2.64863
2.65273
2.65701
2.66107
2.66463
2.66771
2.67048
2.67315
2.6759
2.6788
2.68169
2.68423
2.68625
2.68778
2.689
2.6901
2.69135
2.69277
2.69403
2.69472
2.69502
2.69501
2.69494
2.69491
2.69481
2.6945
2.69369
2.69219
2.69007
2.68751
2.68453
2.6811
2.67711
2.67257
2.66739
2.66172
2.65577
2.6527
2.64903
2.66269
1
1
1
1
1
1
1
1
1
1
1
1
1
1
1
1
1
1
1
1
1
1
1
1
1
1
1
1
1
1
1
1
1
1
1
1
1
1
1
1
1
1
1
1
1
1
1
1
1
1
1
1.12036
2.34833
2.63186
2.63211
2.63394
2.63701
2.64106
2.64561
2.64992
2.65357
2.65654
2.65911
2.66159
2.66422
2.66709
2.67002
2.67261
2.67461
2.67598
2.67694
2.67774
2.67854
2.67942
2.68013
2.68028
2.68
2.67912
2.67787
2.67669
2.67561
2.67438
2.67263
2.67002
2.66638
2.66171
2.65599
2.64921
2.64086
2.63046
2.61615
2.59638
2.5666
2.52422
2.45924
2.32971
1
1
1
1
1
1
1
1
1
1
1
1
1
1
1
1
1
1
1
1
1
1
1
1
1
1
1
1
1
1
1
1
1
1
1
1
1
1
1
1
1
1
1
1
1
1
1
1
1
1
1
1.00116
2.02002
2.6022
2.61292
2.61652
2.6213
2.62654
2.63207
2.63711
2.6412
2.64435
2.64692
2.64933
2.65188
2.65473
2.65776
2.66057
2.66281
2.66435
2.66533
2.66598
2.66653
2.667
2.6673
2.66713
2.66647
2.66504
2.66301
2.66078
2.65854
2.65613
2.65324
2.64948
2.6444
2.63778
2.62926
2.619
2.60603
2.59015
2.56828
2.5392
2.49568
2.43807
2.32807
2.16278
1
1
1
1
1
1
1
1
1
1
1
1
1
1
1
1
1
1
1
1
1
1
1
1
1
1
1
1
1
1
1
1
1
1
1
1
1
1
1
1
1
1
1
1
1
1
1
1
1
1
1
0.999999
1.39864
2.43399
2.59618
2.60219
2.60899
2.61392
2.61947
2.62494
2.62941
2.63282
2.63541
2.63766
2.64
2.64267
2.64564
2.64852
2.65075
2.65228
2.65323
2.65386
2.65423
2.65435
2.65416
2.65358
2.65242
2.65048
2.64781
2.64468
2.64123
2.63747
2.63314
2.62799
2.62134
2.61287
2.60184
2.5884
2.57159
2.55095
2.52439
2.48876
2.441
2.36872
2.26296
2.1408
1
1
1
1
1
1
1
1
1
1
1
1
1
1
1
1
1
1
1
1
1
1
1
1
1
1
1
1
1
1
1
1
1
1
1
1
1
1
1
1
1
1
1
1
1
1
1
1
1
1
1
1
1.01577
2.11956
2.59341
2.59713
2.5992
2.60198
2.60622
2.61129
2.61572
2.61953
2.62229
2.62442
2.62661
2.62924
2.63208
2.63488
2.63711
2.63855
2.63941
2.63999
2.64032
2.64037
2.64002
2.63911
2.63746
2.63499
2.63175
2.62793
2.62352
2.61863
2.61295
2.60637
2.59817
2.58801
2.57509
2.55926
2.53986
2.51602
2.48667
2.44842
2.40001
2.33242
2.2461
2.1514
1
1
1
1
1
1
1
1
1
1
1
1
1
1
1
1
1
1
1
1
1
1
1
1
1
1
1
1
1
1
1
1
1
1
1
1
1
1
1
1
1
1
1
1
1
1
1
1
1
1
1
1
1.00001
1.4599
2.44007
2.58898
2.58775
2.59145
2.5962
2.60108
2.60471
2.6076
2.60971
2.6113
2.61316
2.61547
2.61811
2.62074
2.62283
2.62403
2.62457
2.62488
2.62512
2.62521
2.62491
2.62396
2.62203
2.61912
2.61529
2.61084
2.6057
2.59996
2.59325
2.58542
2.57585
2.56423
2.55004
2.53288
2.51225
2.48716
2.45703
2.41917
2.37313
2.31679
2.24915
2.17282
1
1
1
1
1
1
1
1
1
1
1
1
1
1
1
1
1
1
1
1
1
1
1
1
1
1
1
1
1
1
1
1
1
1
1
1
1
1
1
1
1
1
1
1
1
1
1
1
1
1
1
1
1
1.02075
2.11998
2.58415
2.58371
2.58494
2.588
2.59165
2.59455
2.59658
2.59798
2.59892
2.60015
2.60176
2.60406
2.60649
2.60848
2.60945
2.60944
2.60916
2.60884
2.60866
2.60835
2.60755
2.60574
2.60274
2.59855
2.59356
2.58783
2.58145
2.57405
2.56532
2.55475
2.54209
2.52706
2.5093
2.48849
2.46348
2.43481
2.39868
2.35753
2.31085
2.25432
2.19467
1
1
1
1
1
1
1
1
1
1
1
1
1
1
1
1
1
1
1
1
1
1
1
1
1
1
1
1
1
1
1
1
1
1
1
1
1
1
1
1
1
1
1
1
1
1
1
1
1
1
1
1
1
1.00003
1.4039
2.40359
2.57508
2.57602
2.58002
2.58333
2.58514
2.58595
2.58644
2.58674
2.58723
2.58817
2.59003
2.59206
2.59375
2.59448
2.59415
2.59334
2.59222
2.59136
2.59069
2.58987
2.58827
2.58547
2.58124
2.57602
2.57001
2.56329
2.55548
2.54621
2.53507
2.52186
2.50644
2.48854
2.46829
2.44397
2.41756
2.38452
2.34862
2.30866
2.2612
2.21135
1
1
1
1
1
1
1
1
1
1
1
1
1
1
1
1
1
1
1
1
1
1
1
1
1
1
1
1
1
1
1
1
1
1
1
1
1
1
1
1
1
1
1
1
1
1
1
1
1
1
1
1
1
1
1.01464
2.02562
2.55481
2.56868
2.57098
2.57362
2.57591
2.57664
2.57674
2.57686
2.57675
2.57705
2.57825
2.57958
2.58058
2.58083
2.58022
2.57886
2.57676
2.57478
2.57321
2.57189
2.57019
2.56754
2.56348
2.55834
2.55232
2.54544
2.5374
2.52789
2.51661
2.50341
2.48819
2.47055
2.45093
2.42773
2.40325
2.37422
2.34255
2.3083
2.26861
2.22608
1
1
1
1
1
1
1
1
1
1
1
1
1
1
1
1
1
1
1
1
1
1
1
1
1
1
1
1
1
1
1
1
1
1
1
1
1
1
1
1
1
1
1
1
1
1
1
1
1
1
1
1
1
1
1.00001
1.22978
2.34041
2.56323
2.56149
2.56347
2.5647
2.56526
2.56518
2.56512
2.565
2.56515
2.56598
2.56675
2.5671
2.56696
2.56618
2.5645
2.56174
2.55887
2.55631
2.55421
2.55206
2.54927
2.54534
2.54045
2.53458
2.52769
2.51958
2.51005
2.49894
2.48609
2.47162
2.45468
2.43596
2.4144
2.39158
2.36603
2.33737
2.30781
2.27395
2.23774
1
1
1
1
1
1
1
1
1
1
1
1
1
1
1
1
1
1
1
1
1
1
1
1
1
1
1
1
1
1
1
1
1
1
1
1
1
1
1
1
1
1
1
1
1
1
1
1
1
1
1
1
1
1
1
1.0038
1.84555
2.50106
2.54075
2.54718
2.55059
2.55118
2.55123
2.55119
2.55139
2.55205
2.5534
2.55424
2.5542
2.55377
2.55272
2.55076
2.54756
2.54413
2.54073
2.53771
2.53481
2.53157
2.52754
2.52275
2.51695
2.51003
2.5019
2.49244
2.48168
2.46943
2.45607
2.44011
2.42286
2.40315
2.3821
2.35907
2.33298
2.30709
2.27737
2.24633
1
1
1
1
1
1
1
1
1
1
1
1
1
1
1
1
1
1
1
1
1
1
1
1
1
1
1
1
1
1
1
1
1
1
1
1
1
1
1
1
1
1
1
1
1
1
1
1
1
1
1
1
1
1
1
1
1.09776
2.2036
2.53858
2.53927
2.53806
2.5375
2.53756
2.5376
2.53812
2.53921
2.54108
2.54218
2.542
2.54124
2.53978
2.53751
2.53409
2.53041
2.52662
2.52302
2.51934
2.51544
2.51104
2.50607
2.50014
2.49303
2.48481
2.47536
2.46489
2.45316
2.44091
2.42606
2.41064
2.39284
2.37364
2.35279
2.32926
2.30601
2.2792
2.25231
1
1
1
1
1
1
1
1
1
1
1
1
1
1
1
1
1
1
1
1
1
1
1
1
1
1
1
1
1
1
1
1
1
1
1
1
1
1
1
1
1
1
1
1
1
1
1
1
1
1
1
1
1
1
1
1
1.00063
1.44921
2.36782
2.51603
2.51581
2.5183
2.52039
2.52188
2.52324
2.52479
2.52703
2.52894
2.52896
2.52826
2.52664
2.52412
2.5207
2.51696
2.51316
2.50939
2.50524
2.50077
2.49604
2.49056
2.48442
2.47699
2.46861
2.45918
2.44905
2.43758
2.42601
2.41242
2.39869
2.38264
2.3654
2.34661
2.32574
2.30435
2.2803
2.25662
1
1
1
1
1
1
1
1
1
1
1
1
1
1
1
1
1
1
1
1
1
1
1
1
1
1
1
1
1
1
1
1
1
1
1
1
1
1
1
1
1
1
1
1
1
1
1
1
1
1
1
1
1
1
1
1
1
1.01799
1.89245
2.47045
2.49962
2.50419
2.50639
2.50797
2.50938
2.51076
2.51271
2.5149
2.51514
2.51463
2.51326
2.51084
2.50759
2.50398
2.50016
2.49647
2.49217
2.48754
2.48248
2.47697
2.47042
2.4629
2.45421
2.44477
2.43475
2.42337
2.41217
2.3997
2.38708
2.37245
2.35691
2.34004
2.32112
2.30143
2.28014
2.25873
1
1
1
1
1
1
1
1
1
1
1
1
1
1
1
1
1
1
1
1
1
1
1
1
1
1
1
1
1
1
1
1
1
1
1
1
1
1
1
1
1
1
1
1
1
1
1
1
1
1
1
1
1
1
1
1
1
1.00003
1.11703
2.12257
2.47857
2.49663
2.49599
2.49704
2.49817
2.49869
2.49969
2.50099
2.50104
2.50053
2.49933
2.49715
2.4942
2.49076
2.48696
2.48347
2.47937
2.47492
2.46995
2.46422
2.45772
2.45008
2.44134
2.43184
2.42157
2.41068
2.39973
2.38801
2.37612
2.36253
2.34821
2.33294
2.31554
2.29766
2.27875
2.25911
1
1
1
1
1
1
1
1
1
1
1
1
1
1
1
1
1
1
1
1
1
1
1
1
1
1
1
1
1
1
1
1
1
1
1
1
1
1
1
1
1
1
1
1
1
1
1
1
1
1
1
1
1
1
1
1
1
1
1.00092
1.26723
2.26604
2.47857
2.48043
2.482
2.48256
2.48311
2.48389
2.48476
2.48492
2.48462
2.48375
2.48218
2.47976
2.4767
2.47315
2.46973
2.46616
2.46201
2.45746
2.45206
2.44575
2.43838
2.42986
2.42046
2.41036
2.39982
2.38912
2.37781
2.36632
2.35353
2.34007
2.32581
2.30978
2.29343
2.27613
2.25807
1
1
1
1
1
1
1
1
1
1
1
1
1
1
1
1
1
1
1
1
1
1
1
1
1
1
1
1
1
1
1
1
1
1
1
1
1
1
1
1
1
1
1
1
1
1
1
1
1
1
1
1
1
1
1
1
1
1
1
1.00513
1.6532
2.37374
2.4571
2.45537
2.45757
2.46027
2.46301
2.46518
2.46666
2.46717
2.46686
2.4658
2.46406
2.46164
2.45853
2.45547
2.45253
2.44897
2.44497
2.44011
2.43422
2.42718
2.41902
2.41001
2.40019
2.38988
2.3794
2.36847
2.35737
2.34534
2.33267
2.31919
2.30437
2.2892
2.27307
2.25611
1
1
1
1
1
1
1
1
1
1
1
1
1
1
1
1
1
1
1
1
1
1
1
1
1
1
1
1
1
1
1
1
1
1
1
1
1
1
1
1
1
1
1
1
1
1
1
1
1
1
1
1
1
1
1
1
1
1
1
1.00001
1.04843
1.90473
2.4156
2.44486
2.44459
2.44667
2.44818
2.44943
2.45028
2.45043
2.45017
2.44933
2.44793
2.44629
2.44374
2.44121
2.43876
2.43574
2.43223
2.42789
2.42249
2.41602
2.40839
2.39999
2.39069
2.38074
2.37054
2.36004
2.34941
2.33811
2.32615
2.31341
2.29963
2.28536
2.27012
2.25388
1
1
1
1
1
1
1
1
1
1
1
1
1
1
1
1
1
1
1
1
1
1
1
1
1
1
1
1
1
1
1
1
1
1
1
1
1
1
1
1
1
1
1
1
1
1
1
1
1
1
1
1
1
1
1
1
1
1
1
1
1.0002
1.1312
2.02169
2.41143
2.43593
2.43816
2.43877
2.43825
2.43755
2.43659
2.4354
2.43388
2.43215
2.43053
2.42836
2.42629
2.42414
2.42155
2.41846
2.4146
2.40971
2.4038
2.39688
2.3892
2.38062
2.37132
2.3616
2.35168
2.34166
2.33114
2.3199
2.308
2.29525
2.28182
2.26735
2.25183
1
1
1
1
1
1
1
1
1
1
1
1
1
1
1
1
1
1
1
1
1
1
1
1
1
1
1
1
1
1
1
1
1
1
1
1
1
1
1
1
1
1
1
1
1
1
1
1
1
1
1
1
1
1
1
1
1
1
1
1
1
1.00121
1.2103
2.10029
2.39878
2.42919
2.42861
2.42795
2.42682
2.42516
2.42322
2.42105
2.41886
2.41674
2.41449
2.41232
2.41001
2.40737
2.40429
2.4006
2.39609
2.39065
2.38438
2.37746
2.36969
2.36119
2.35225
2.34313
2.33383
2.324
2.31351
2.30254
2.29083
2.27831
2.26465
2.25013
1
1
1
1
1
1
1
1
1
1
1
1
1
1
1
1
1
1
1
1
1
1
1
1
1
1
1
1
1
1
1
1
1
1
1
1
1
1
1
1
1
1
1
1
1
1
1
1
1
1
1
1
1
1
1
1
1
1
1
1
1
1
1.00312
1.29286
2.1543
2.38945
2.41055
2.41326
2.41316
2.41257
2.41118
2.40921
2.4069
2.40453
2.40204
2.39939
2.39656
2.3935
2.39011
2.38627
2.38184
2.3767
2.37088
2.36452
2.35751
2.3498
2.34169
2.33342
2.32492
2.31592
2.30644
2.29657
2.28599
2.27439
2.26167
2.24841
1
1
1
1
1
1
1
1
1
1
1
1
1
1
1
1
1
1
1
1
1
1
1
1
1
1
1
1
1
1
1
1
1
1
1
1
1
1
1
1
1
1
1
1
1
1
1
1
1
1
1
1
1
1
1
1
1
1
1
1
1
1
1
1.00637
1.37645
2.19405
2.37633
2.39065
2.39489
2.39595
2.39584
2.39499
2.39349
2.39171
2.38953
2.38689
2.38389
2.38057
2.37689
2.3728
2.36827
2.36321
2.35756
2.3514
2.34475
2.33764
2.33023
2.3227
2.31508
2.3071
2.29879
2.29004
2.28053
2.26978
2.25807
2.2462
1
1
1
1
1
1
1
1
1
1
1
1
1
1
1
1
1
1
1
1
1
1
1
1
1
1
1
1
1
1
1
1
1
1
1
1
1
1
1
1
1
1
1
1
1
1
1
1
1
1
1
1
1
1
1
1
1
1
1
1
1
1
1
1.00001
1.01156
1.4504
2.22561
2.36648
2.3707
2.37373
2.37492
2.37575
2.37564
2.37505
2.37385
2.37214
2.36987
2.36705
2.36367
2.35974
2.35525
2.35024
2.34468
2.33865
2.33225
2.3256
2.31881
2.31193
2.30502
2.29779
2.29032
2.28244
2.27378
2.2638
2.25306
2.24248
1
1
1
1
1
1
1
1
1
1
1
1
1
1
1
1
1
1
1
1
1
1
1
1
1
1
1
1
1
1
1
1
1
1
1
1
1
1
1
1
1
1
1
1
1
1
1
1
1
1
1
1
1
1
1
1
1
1
1
1
1
1
1
1
1.00003
1.01829
1.54764
2.2514
2.35417
2.35304
2.35414
2.35428
2.35453
2.35491
2.35494
2.3546
2.35365
2.35196
2.34948
2.3462
2.34217
2.33748
2.3322
2.32653
2.32056
2.31437
2.30804
2.30159
2.2951
2.28829
2.28129
2.27391
2.26576
2.25639
2.24649
2.23678
1
1
1
1
1
1
1
1
1
1
1
1
1
1
1
1
1
1
1
1
1
1
1
1
1
1
1
1
1
1
1
1
1
1
1
1
1
1
1
1
1
1
1
1
1
1
1
1
1
1
1
1
1
1
1
1
1
1
1
1
1
1
1
1
1
1.00005
1.03112
1.61261
2.26219
2.34118
2.33841
2.33666
2.33594
2.33558
2.33561
2.33554
2.33522
2.33444
2.33302
2.33083
2.32783
2.32405
2.31959
2.3146
2.30925
2.3036
2.29776
2.2917
2.28552
2.2789
2.272
2.26474
2.25674
2.24774
2.2385
2.22944
1
1
1
1
1
1
1
1
1
1
1
1
1
1
1
1
1
1
1
1
1
1
1
1
1
1
1
1
1
1
1
1
1
1
1
1
1
1
1
1
1
1
1
1
1
1
1
1
1
1
1
1
1
1
1
1
1
1
1
1
1
1
1
1
1
1
1.00012
1.04341
1.63319
2.25534
2.32846
2.32554
2.32343
2.32174
2.3204
2.31923
2.3181
2.31687
2.31544
2.3137
2.31148
2.30867
2.30524
2.30124
2.29675
2.29184
2.28658
2.28096
2.27511
2.26877
2.26194
2.25479
2.2469
2.23858
2.23018
2.22204
1
1
1
1
1
1
1
1
1
1
1
1
1
1
1
1
1
1
1
1
1
1
1
1
1
1
1
1
1
1
1
1
1
1
1
1
1
1
1
1
1
1
1
1
1
1
1
1
1
1
1
1
1
1
1
1
1
1
1
1
1
1
1
1
1
1
1
1.00021
1.04876
1.6194
2.23788
2.31721
2.31493
2.31257
2.30994
2.30728
2.30473
2.30218
2.29975
2.29736
2.29489
2.29226
2.28937
2.28612
2.28242
2.2783
2.27375
2.26872
2.26327
2.25728
2.25089
2.24422
2.23732
2.23091
2.22561
2.22568
1
1
1
1
1
1
1
1
1
1
1
1
1
1
1
1
1
1
1
1
1
1
1
1
1
1
1
1
1
1
1
1
1
1
1
1
1
1
1
1
1
1
1
1
1
1
1
1
1
1
1
1
1
1
1
1
1
1
1
1
1
1
1
1
1
1
1
1
1.00026
1.04657
1.60127
2.21614
2.305
2.3036
2.30062
2.29757
2.2941
2.29081
2.28756
2.28418
2.28082
2.27755
2.27424
2.27082
2.26716
2.26319
2.25876
2.25417
2.24919
2.24414
2.23902
2.23498
2.23387
2.23602
2.24129
2.25541
1
1
1
1
1
1
1
1
1
1
1
1
1
1
1
1
1
1
1
1
1
1
1
1
1
1
1
1
1
1
1
1
1
1
1
1
1
1
1
1
1
1
1
1
1
1
1
1
1
1
1
1
1
1
1
1
1
1
1
1
1
1
1
1
1
1
1
1
1
1.00024
1.04301
1.57058
2.18731
2.2919
2.29141
2.28831
2.28505
2.28135
2.27762
2.27374
2.26985
2.26582
2.26169
2.25737
2.25281
2.24835
2.24348
2.23929
2.23474
2.23356
2.23669
2.24184
2.25494
2.27247
2.29397
2.31606
1
1
1
1
1
1
1
1
1
1
1
1
1
1
1
1
1
1
1
1
1
1
1
1
1
1
1
1
1
1
1
1
1
1
1
1
1
1
1
1
1
1
1
1
1
1
1
1
1
1
1
1
1
1
1
1
1
1
1
1
1
1
1
1
1
1
1
1
1
1
1.00022
1.03712
1.52542
2.1507
2.27431
2.27882
2.27565
2.27247
2.26869
2.26478
2.26072
2.2563
2.25155
2.24651
2.24094
2.23586
2.23071
2.23106
2.23534
2.24464
2.26373
2.28679
2.31255
2.33174
2.34416
2.35339
1
1
1
1
1
1
1
1
1
1
1
1
1
1
1
1
1
1
1
1
1
1
1
1
1
1
1
1
1
1
1
1
1
1
1
1
1
1
1
1
1
1
1
1
1
1
1
1
1
1
1
1
1
1
1
1
1
1
1
1
1
1
1
1
1
1
1
1
1
1
1
1.00017
1.02947
1.46797
2.09799
2.25281
2.26705
2.26313
2.25986
2.25608
2.25201
2.24732
2.24241
2.23699
2.23166
2.23244
2.23572
2.24926
2.27124
2.29987
2.32823
2.34762
2.35899
2.36693
2.36574
2.36093
1
1
1
1
1
1
1
1
1
1
1
1
1
1
1
1
1
1
1
1
1
1
1
1
1
1
1
1
1
1
1
1
1
1
1
1
1
1
1
1
1
1
1
1
1
1
1
1
1
1
1
1
1
1
1
1
1
1
1
1
1
1
1
1
1
1
1
1
1
1
1
1
1.00012
1.02153
1.39632
2.02367
2.22628
2.25578
2.24955
2.24636
2.24201
2.23724
2.23264
2.23375
2.23896
2.25599
2.28406
2.318
2.34563
2.36574
2.37439
2.37426
2.37276
2.36946
2.36434
2.35774
1
1
1
1
1
1
1
1
1
1
1
1
1
1
1
1
1
1
1
1
1
1
1
1
1
1
1
1
1
1
1
1
1
1
1
1
1
1
1
1
1
1
1
1
1
1
1
1
1
1
1
1
1
1
1
1
1
1
1
1
1
1
1
1
1
1
1
1
1
1
1
1
1
1.00008
1.01412
1.31268
1.91811
2.19577
2.23853
2.23211
2.22727
2.22885
2.23801
2.26075
2.2962
2.33595
2.36782
2.38471
2.39323
2.39385
2.38883
2.38182
2.37523
2.36941
2.3635
2.35708
1
1
1
1
1
1
1
1
1
1
1
1
1
1
1
1
1
1
1
1
1
1
1
1
1
1
1
1
1
1
1
1
1
1
1
1
1
1
1
1
1
1
1
1
1
1
1
1
1
1
1
1
1
1
1
1
1
1
1
1
1
1
1
1
1
1
1
1
1
1
1
1
1
1
1.00004
1.00822
1.21977
1.78857
2.16175
2.20878
2.23025
2.25589
2.29936
2.34563
2.38107
2.39905
2.407
2.40271
2.39656
2.39126
2.38501
2.37968
2.37414
2.36886
2.36424
2.3595
1
1
1
1
1
1
1
1
1
1
1
1
1
1
1
1
1
1
1
1
1
1
1
1
1
1
1
1
1
1
1
1
1
1
1
1
1
1
1
1
1
1
1
1
1
1
1
1
1
1
1
1
1
1
1
1
1
1
1
1
1
1
1
1
1
1
1
1
1
1
1
1
1
1
1
1.00002
1.004
1.13504
1.66148
2.09683
2.28046
2.33739
2.37532
2.39304
2.40414
2.40045
2.39822
2.39422
2.3894
2.38375
2.37853
2.37523
2.37117
2.36604
2.36221
2.35923
1
1
1
1
1
1
1
1
1
1
1
1
1
1
1
1
1
1
1
1
1
1
1
1
1
1
1
1
1
1
1
1
1
1
1
1
1
1
1
1
1
1
1
1
1
1
1
1
1
1
1
1
1
1
1
1
1
1
1
1
1
1
1
1
1
1
1
1
1
1
1
1
1
1
1
1
1.00001
1.00173
1.0731
1.76759
2.44373
2.43956
2.42992
2.42111
2.41333
2.40359
2.39513
2.38806
2.38265
2.37728
2.37303
2.37103
2.36875
2.36475
2.36163
2.35942
1
1
1
1
1
1
1
1
1
1
1
1
1
1
1
1
1
1
1
1
1
1
1
1
1
1
1
1
1
1
1
1
1
1
1
1
1
1
1
1
1
1
1
1
1
1
1
1
1
1
1
1
1
1
1
1
1
1
1
1
1
1
1
1
1
1
1
1
1
1
1
1
1
1
1
1
1
1
1.00057
1.42645
2.53197
2.55628
2.52387
2.49123
2.46203
2.43845
2.42083
2.4089
2.39962
2.38972
2.3815
2.37652
2.37219
2.36643
2.36194
2.35853
1
1
1
1
1
1
1
1
1
1
1
1
1
1
1
1
1
1
1
1
1
1
1
1
1
1
1
1
1
1
1
1
1
1
1
1
1
1
1
1
1
1
1
1
1
1
1
1
1
1
1
1
1
1
1
1
1
1
1
1
1
1
1
1
1
1
1
1
1
1
1
1
1
1
1
1
1
1
1
1.05229
2.36933
2.65154
2.61521
2.58325
2.55006
2.51988
2.49319
2.46928
2.44943
2.43183
2.41794
2.40742
2.3971
2.38628
2.37684
2.36918
1
1
1
1
1
1
1
1
1
1
1
1
1
1
1
1
1
1
1
1
1
1
1
1
1
1
1
1
1
1
1
1
1
1
1
1
1
1
1
1
1
1
1
1
1
1
1
1
1
1
1
1
1
1
1
1
1
1
1
1
1
1
1
1
1
1
1
1
1
1
1
1
1
1
1
1
1
1
1
1.00027
2.04081
2.6479
2.64537
2.63648
2.62129
2.6018
2.58023
2.55694
2.53349
2.51103
2.48992
2.46992
2.4509
2.43352
2.41818
2.40512
1
1
1
1
1
1
1
1
1
1
1
1
1
1
1
1
1
1
1
1
1
1
1
1
1
1
1
1
1
1
1
1
1
1
1
1
1
1
1
1
1
1
1
1
1
1
1
1
1
1
1
1
1
1
1
1
1
1
1
1
1
1
1
1
1
1
1
1
1
1
1
1
1
1
1
1
1
1
1
1
1.5428
2.51828
2.65227
2.64595
2.64109
2.63579
2.6262
2.61438
2.60011
2.58352
2.56492
2.54493
2.5245
2.50464
2.48562
2.46752
1
1
1
1
1
1
1
1
1
1
1
1
1
1
1
1
1
1
1
1
1
1
1
1
1
1
1
1
1
1
1
1
1
1
1
1
1
1
1
1
1
1
1
1
1
1
1
1
1
1
1
1
1
1
1
1
1
1
1
1
1
1
1
1
1
1
1
1
1
1
1
1
1
1
1
1
1
1
1
1
1.0365
2.29954
2.65872
2.65444
2.64975
2.64524
2.64129
2.63608
2.62918
2.62037
2.60958
2.59708
2.58321
2.56838
2.55299
2.5365
1
1
1
1
1
1
1
1
1
1
1
1
1
1
1
1
1
1
1
1
1
1
1
1
1
1
1
1
1
1
1
1
1
1
1
1
1
1
1
1
1
1
1
1
1
1
1
1
1
1
1
1
1
1
1
1
1
1
1
1
1
1
1
1
1
1
1
1
1
1
1
1
1
1
1
1
1
1
1
1
1.00008
2.00759
2.61765
2.64521
2.64391
2.64269
2.63976
2.63612
2.63227
2.62797
2.62308
2.61748
2.6109
2.60321
2.5943
2.58417
1
1
1
1
1
1
1
1
1
1
1
1
1
1
1
1
1
1
1
1
1
1
1
1
1
1
1
1
1
1
1
1
1
1
1
1
1
1
1
1
1
1
1
1
1
1
1
1
1
1
1
1
1
1
1
1
1
1
1
1
1
1
1
1
1
1
1
1
1
1
1
1
1
1
1
1
1
1
1
1
1
1.58224
2.51492
2.65114
2.64718
2.64532
2.64263
2.63957
2.6366
2.63346
2.63025
2.62689
2.623
2.61834
2.61262
2.6062
1
1
1
1
1
1
1
1
1
1
1
1
1
1
1
1
1
1
1
1
1
1
1
1
1
1
1
1
1
1
1
1
1
1
1
1
1
1
1
1
1
1
1
1
1
1
1
1
1
1
1
1
1
1
1
1
1
1
1
1
1
1
1
1
1
1
1
1
1
1
1
1
1
1
1
1
1
1
1
1
1
1.0952
2.3482
2.6522
2.64707
2.64384
2.64135
2.63907
2.6368
2.6344
2.63178
2.62888
2.62557
2.62185
2.61786
2.6136
1
1
1
1
1
1
1
1
1
1
1
1
1
1
1
1
1
1
1
1
1
1
1
1
1
1
1
1
1
1
1
1
1
1
1
1
1
1
1
1
1
1
1
1
1
1
1
1
1
1
1
1
1
1
1
1
1
1
1
1
1
1
1
1
1
1
1
1
1
1
1
1
1
1
1
1
1
1
1
1
1
1.00068
2.14595
2.65209
2.6505
2.64679
2.64444
2.64176
2.63921
2.63667
2.63393
2.63092
2.6276
2.62398
2.62019
2.61628
1
1
1
1
1
1
1
1
1
1
1
1
1
1
1
1
1
1
1
1
1
1
1
1
1
1
1
1
1
1
1
1
1
1
1
1
1
1
1
1
1
1
1
1
1
1
1
1
1
1
1
1
1
1
1
1
1
1
1
1
1
1
1
1
1
1
1
1
1
1
1
1
1
1
1
1
1
1
1
1
1
1
1.84388
2.61043
2.65416
2.64931
2.64631
2.64284
2.63974
2.63671
2.63383
2.63085
2.62775
2.62442
2.6209
2.61728
1
1
1
1
1
1
1
1
1
1
1
1
1
1
1
1
1
1
1
1
1
1
1
1
1
1
1
1
1
1
1
1
1
1
1
1
1
1
1
1
1
1
1
1
1
1
1
1
1
1
1
1
1
1
1
1
1
1
1
1
1
1
1
1
1
1
1
1
1
1
1
1
1
1
1
1
1
1
1
1
1
1
1.47276
2.50525
2.66374
2.65735
2.65366
2.6495
2.64557
2.64177
2.6383
2.63491
2.63157
2.62817
2.62468
2.62111
1
1
1
1
1
1
1
1
1
1
1
1
1
1
1
1
1
1
1
1
1
1
1
1
1
1
1
1
1
1
1
1
1
1
1
1
1
1
1
1
1
1
1
1
1
1
1
1
1
1
1
1
1
1
1
1
1
1
1
1
1
1
1
1
1
1
1
1
1
1
1
1
1
1
1
1
1
1
1
1
1
1
1.09044
2.35316
2.66827
2.66197
2.65739
2.65367
2.65012
2.64662
2.64308
2.63951
2.63594
2.63235
2.62877
2.62519
1
1
1
1
1
1
1
1
1
1
1
1
1
1
1
1
1
1
1
1
1
1
1
1
1
1
1
1
1
1
1
1
1
1
1
1
1
1
1
1
1
1
1
1
1
1
1
1
1
1
1
1
1
1
1
1
1
1
1
1
1
1
1
1
1
1
1
1
1
1
1
1
1
1
1
1
1
1
1
1
1
1
1.00075
2.18968
2.66728
2.66664
2.66261
2.65942
2.65579
2.65222
2.64859
2.64493
2.64121
2.63743
2.63369
2.63
1
1
1
1
1
1
1
1
1
1
1
1
1
1
1
1
1
1
1
1
1
1
1
1
1
1
1
1
1
1
1
1
1
1
1
1
1
1
1
1
1
1
1
1
1
1
1
1
1
1
1
1
1
1
1
1
1
1
1
1
1
1
1
1
1
1
1
1
1
1
1
1
1
1
1
1
1
1
1
1
1
1
1
1.98182
2.64496
2.67111
2.66693
2.6639
2.66019
2.65662
2.65304
2.6495
2.64588
2.64216
2.63844
2.63474
1
1
1
1
1
1
1
1
1
1
1
1
1
1
1
1
1
1
1
1
1
1
1
1
1
1
1
1
1
1
1
1
1
1
1
1
1
1
1
1
1
1
1
1
1
1
1
1
1
1
1
1
1
1
1
1
1
1
1
1
1
1
1
1
1
1
1
1
1
1
1
1
1
1
1
1
1
1
1
1
1
1
1
1.73699
2.5935
2.67408
2.66874
2.6657
2.66198
2.65838
2.65481
2.65137
2.64793
2.64451
2.64107
2.63759
1
1
1
1
1
1
1
1
1
1
1
1
1
1
1
1
1
1
1
1
1
1
1
1
1
1
1
1
1
1
1
1
1
1
1
1
1
1
1
1
1
1
1
1
1
1
1
1
1
1
1
1
1
1
1
1
1
1
1
1
1
1
1
1
1
1
1
1
1
1
1
1
1
1
1
1
1
1
1
1
1
1
1
1.46885
2.51877
2.67285
2.66744
2.66517
2.66245
2.65972
2.65681
2.65386
2.6508
2.6477
2.64451
2.6412
1
1
1
1
1
1
1
1
1
1
1
1
1
1
1
1
1
1
1
1
1
1
1
1
1
1
1
1
1
1
1
1
1
1
1
1
1
1
1
1
1
1
1
1
1
1
1
1
1
1
1
1
1
1
1
1
1
1
1
1
1
1
1
1
1
1
1
1
1
1
1
1
1
1
1
1
1
1
1
1
1
1
1
1.22435
2.42373
2.67718
2.6707
2.66741
2.66443
2.66156
2.6586
2.65564
2.65258
2.64949
2.64632
2.64303
1
1
1
1
1
1
1
1
1
1
1
1
1
1
1
1
1
1
1
1
1
1
1
1
1
1
1
1
1
1
1
1
1
1
1
1
1
1
1
1
1
1
1
1
1
1
1
1
1
1
1
1
1
1
1
1
1
1
1
1
1
1
1
1
1
1
1
1
1
1
1
1
1
1
1
1
1
1
1
1
1
1
1
1.03442
2.32254
2.68155
2.67824
2.67351
2.66999
2.66645
2.66299
2.65961
2.65622
2.65286
2.64949
2.64606
1
1
1
1
1
1
1
1
1
1
1
1
1
1
1
1
1
1
1
1
1
1
1
1
1
1
1
1
1
1
1
1
1
1
1
1
1
1
1
1
1
1
1
1
1
1
1
1
1
1
1
1
1
1
1
1
1
1
1
1
1
1
1
1
1
1
1
1
1
1
1
1
1
1
1
1
1
1
1
1
1
1
1
1.0002
2.21295
2.67777
2.68156
2.6771
2.67415
2.6707
2.66728
2.66382
2.66033
2.65684
2.65337
2.64986
1
1
1
1
1
1
1
1
1
1
1
1
1
1
1
1
1
1
1
1
1
1
1
1
1
1
1
1
1
1
1
1
1
1
1
1
1
1
1
1
1
1
1
1
1
1
1
1
1
1
1
1
1
1
1
1
1
1
1
1
1
1
1
1
1
1
1
1
1
1
1
1
1
1
1
1
1
1
1
1
1
1
1
1
2.08926
2.66637
2.68474
2.68025
2.67768
2.67443
2.67115
2.66774
2.66426
2.66078
2.65727
2.65374
1
1
1
1
1
1
1
1
1
1
1
1
1
1
1
1
1
1
1
1
1
1
1
1
1
1
1
1
1
1
1
1
1
1
1
1
1
1
1
1
1
1
1
1
1
1
1
1
1
1
1
1
1
1
1
1
1
1
1
1
1
1
1
1
1
1
1
1
1
1
1
1
1
1
1
1
1
1
1
1
1
1
1
1
1.96807
2.64944
2.68759
2.6824
2.67973
2.67649
2.67323
2.66983
2.66634
2.66283
2.65926
2.65566
1
1
1
1
1
1
1
1
1
1
1
1
1
1
1
1
1
1
1
1
1
1
1
1
1
1
1
1
1
1
1
1
1
1
1
1
1
1
1
1
1
1
1
1
1
1
1
1
1
1
1
1
1
1
1
1
1
1
1
1
1
1
1
1
1
1
1
1
1
1
1
1
1
1
1
1
1
1
1
1
1
1
1
1
1.85572
2.63045
2.6901
2.68423
2.68141
2.67805
2.67472
2.67124
2.66769
2.66413
2.66053
2.65692
1
1
1
1
1
1
1
1
1
1
1
1
1
1
1
1
1
1
1
1
1
1
1
1
1
1
1
1
1
1
1
1
1
1
1
1
1
1
1
1
1
1
1
1
1
1
1
1
1
1
1
1
1
1
1
1
1
1
1
1
1
1
1
1
1
1
1
1
1
1
1
1
1
1
1
1
1
1
1
1
1
1
1
1
1.74489
2.61107
2.69175
2.68563
2.68293
2.67961
2.67624
2.67265
2.66896
2.66526
2.66153
2.65782
1
1
1
1
1
1
1
1
1
1
1
1
1
1
1
1
1
1
1
1
1
1
1
1
1
1
1
1
1
1
1
1
1
1
1
1
1
1
1
1
1
1
1
1
1
1
1
1
1
1
1
1
1
1
1
1
1
1
1
1
1
1
1
1
1
1
1
1
1
1
1
1
1
1
1
1
1
1
1
1
1
1
1
1
1.64254
2.58951
2.69194
2.6861
2.68372
2.68065
2.67743
2.67388
2.67015
2.66636
2.66249
2.65868
1
1
1
1
1
1
1
1
1
1
1
1
1
1
1
1
1
1
1
1
1
1
1
1
1
1
1
1
1
1
1
1
1
1
1
1
1
1
1
1
1
1
1
1
1
1
1
1
1
1
1
1
1
1
1
1
1
1
1
1
1
1
1
1
1
1
1
1
1
1
1
1
1
1
1
1
1
1
1
1
1
1
1
1
1.55895
2.56773
2.69147
2.68606
2.68385
2.68099
2.67792
2.67448
2.67082
2.66704
2.66316
2.65933
1
1
1
1
1
1
1
1
1
1
1
1
1
1
1
1
1
1
1
1
1
1
1
1
1
1
1
1
1
1
1
1
1
1
1
1
1
1
1
1
1
1
1
1
1
1
1
1
1
1
1
1
1
1
1
1
1
1
1
1
1
1
1
1
1
1
1
1
1
1
1
1
1
1
1
1
1
1
1
1
1
1
1
1
1.49504
2.54864
2.69058
2.68548
2.68322
2.68045
2.67753
2.67427
2.67082
2.66719
2.66343
2.65973
1
1
1
1
1
1
1
1
1
1
1
1
1
1
1
1
1
1
1
1
1
1
1
1
1
1
1
1
1
1
1
1
1
1
1
1
1
1
1
1
1
1
1
1
1
1
1
1
1
1
1
1
1
1
1
1
1
1
1
1
1
1
1
1
1
1
1
1
1
1
1
1
1
1
1
1
1
1
1
1
1
1
1
1
1.44808
2.53318
2.68974
2.68461
2.68209
2.67929
2.67648
2.67348
2.67033
2.66696
2.66343
2.65992
1
1
1
1
1
1
1
1
1
1
1
1
1
1
1
1
1
1
1
1
1
1
1
1
1
1
1
1
1
1
1
1
1
1
1
1
1
1
1
1
1
1
1
1
1
1
1
1
1
1
1
1
1
1
1
1
1
1
1
1
1
1
1
1
1
1
1
1
1
1
1
1
1
1
1
1
1
1
1
1
1
1
1
1
1.41639
2.52195
2.68902
2.68382
2.68106
2.67812
2.67528
2.67245
2.66956
2.66652
2.66328
2.65992
1
1
1
1
1
1
1
1
1
1
1
1
1
1
1
1
1
1
1
1
1
1
1
1
1
1
1
1
1
1
1
1
1
1
1
1
1
1
1
1
1
1
1
1
1
1
1
1
1
1
1
1
1
1
1
1
1
1
1
1
1
1
1
1
1
1
1
1
1
1
1
1
1
1
1
1
1
1
1
1
1
1
1
1
1.40256
2.51645
2.68831
2.68334
2.68067
2.67772
2.67488
2.6721
2.66929
2.66644
2.66336
2.66009
1.50444