/*--------------------------------*- C++ -*----------------------------------*\
  =========                 |
  \\      /  F ield         | OpenFOAM: The Open Source CFD Toolbox
   \\    /   O peration     | Website:  https://openfoam.org
    \\  /    A nd           | Version:  7
     \\/     M anipulation  |
\*---------------------------------------------------------------------------*/
FoamFile
{
    version     2.0;
    format      ascii;
    class       volVectorField;
    location    "7";
    object      U;
}
// * * * * * * * * * * * * * * * * * * * * * * * * * * * * * * * * * * * * * //

dimensions      [0 1 -1 0 0 0 0];

internalField   nonuniform List<vector> 
19968
(
(3 4.32382e-18 0)
(3 -3.18539e-17 0)
(3 -1.62885e-17 0)
(3 2.16351e-16 0)
(3 5.85695e-16 0)
(3 1.09558e-15 0)
(3 7.28072e-16 0)
(3 3.69737e-16 0)
(3 1.51436e-16 0)
(3 -1.91351e-16 0)
(3 -1.90123e-16 0)
(3 -1.18169e-16 0)
(3 5.75255e-16 0)
(3 6.33763e-16 0)
(3 4.95364e-16 0)
(3 6.3981e-16 0)
(3 6.54914e-16 0)
(3 7.15439e-16 0)
(3 5.89398e-16 0)
(3 4.96182e-16 0)
(3 6.50323e-16 0)
(3 6.69719e-16 0)
(3 5.37534e-16 0)
(3 2.74973e-16 0)
(3 -4.38359e-17 0)
(3 -6.90203e-17 0)
(3 1.37408e-17 0)
(3 2.33104e-16 0)
(3 5.25683e-16 0)
(3 9.18384e-16 0)
(3 9.10741e-16 0)
(3 6.94924e-16 0)
(3 4.15532e-16 0)
(3 3.75575e-16 0)
(3 5.94202e-16 0)
(3 1.25709e-15 0)
(3 1.2361e-15 0)
(3 1.46894e-15 0)
(3 1.94899e-15 0)
(3 1.38512e-15 0)
(3 3.42799e-16 0)
(3 6.54609e-18 0)
(3 5.53803e-16 0)
(3 1.10776e-15 0)
(3 1.35714e-15 0)
(3 8.35304e-16 0)
(3 9.42216e-16 0)
(3 -2.11673e-16 0)
(2.80688 0.00176867 0)
(0.973048 0.0045411 0)
(0.760587 0.0110023 0)
(0.740962 0.00848565 0)
(0.724921 0.00718447 0)
(0.711607 0.00694712 0)
(0.698639 0.00760156 0)
(0.684725 0.00884021 0)
(0.669105 0.0098964 0)
(0.65257 0.00983081 0)
(0.63662 0.00884938 0)
(0.621642 0.00824469 0)
(0.606808 0.00857207 0)
(0.591233 0.00935339 0)
(0.574995 0.00966062 0)
(0.559097 0.00929589 0)
(0.543974 0.00913885 0)
(0.529102 0.00952797 0)
(0.514041 0.00994124 0)
(0.498915 0.0100019 0)
(0.483859 0.00987926 0)
(0.468686 0.00985371 0)
(0.453143 0.00997685 0)
(0.437169 0.0101587 0)
(0.42091 0.0103059 0)
(0.404587 0.0103957 0)
(0.388339 0.010471 0)
(0.372158 0.0105681 0)
(0.355936 0.0106855 0)
(0.339518 0.0108161 0)
(0.32277 0.0109597 0)
(0.305666 0.011112 0)
(0.288362 0.0112696 0)
(0.271129 0.0114349 0)
(0.254183 0.0116041 0)
(0.237543 0.0117634 0)
(0.221021 0.011901 0)
(0.204323 0.0120202 0)
(0.187163 0.0121408 0)
(0.16935 0.0122887 0)
(0.150877 0.0124831 0)
(0.13192 0.0127314 0)
(0.112692 0.0130341 0)
(0.0932831 0.0133838 0)
(0.073585 0.0137726 0)
(0.0532596 0.0142058 0)
(0.0323856 0.0145031 0)
(0.0109094 0.0149583 0)
(3 -3.84486e-17 0)
(3 -3.66616e-16 0)
(3 -4.9792e-16 0)
(3 -2.39626e-16 0)
(3 3.0587e-16 0)
(3 1.23978e-15 0)
(3 1.02497e-15 0)
(3 4.44212e-16 0)
(3 2.58155e-16 0)
(3 6.76399e-17 0)
(3 -1.03363e-16 0)
(3 6.65395e-17 0)
(3 3.96038e-16 0)
(3 4.13296e-16 0)
(3 2.15381e-16 0)
(3 8.34374e-16 0)
(3 5.79406e-16 0)
(3 4.42294e-16 0)
(3 3.62679e-16 0)
(3 6.51394e-16 0)
(3 1.43882e-15 0)
(3 1.50836e-15 0)
(3 1.06817e-15 0)
(3 1.0224e-15 0)
(3 -5.56054e-16 0)
(3 -8.10233e-16 0)
(3 -1.68937e-17 0)
(3 8.07355e-16 0)
(3 1.19263e-15 0)
(3 1.23953e-15 0)
(3 9.66534e-16 0)
(3 4.09077e-16 0)
(3 7.12497e-16 0)
(3 1.60615e-15 0)
(3 1.89374e-15 0)
(3 2.5617e-15 0)
(3 3.40371e-15 0)
(3 3.19796e-15 0)
(3 2.4186e-15 0)
(3 2.45853e-15 0)
(3 2.30344e-15 0)
(3 1.88682e-15 0)
(3 1.43411e-15 0)
(3 7.98997e-16 0)
(3 8.28589e-16 0)
(3 9.36835e-17 0)
(3 -3.32318e-16 0)
(3 -6.14624e-16 0)
(2.81846 0.0109404 0)
(0.97555 0.0250715 0)
(0.756278 0.0343076 0)
(0.737859 0.0271889 0)
(0.721222 0.0227255 0)
(0.707327 0.020974 0)
(0.694109 0.0224277 0)
(0.680427 0.0258161 0)
(0.665307 0.0288469 0)
(0.649322 0.0290364 0)
(0.633698 0.0268983 0)
(0.618514 0.0253533 0)
(0.603419 0.026103 0)
(0.587879 0.0281702 0)
(0.571756 0.0290408 0)
(0.555937 0.0281641 0)
(0.540682 0.0277887 0)
(0.525695 0.0289014 0)
(0.510601 0.0300939 0)
(0.495485 0.0303297 0)
(0.480413 0.0301009 0)
(0.465149 0.0301231 0)
(0.449494 0.0304949 0)
(0.433447 0.0309965 0)
(0.417163 0.031424 0)
(0.400827 0.0317234 0)
(0.384548 0.0319762 0)
(0.368317 0.0322556 0)
(0.35204 0.03256 0)
(0.33558 0.032886 0)
(0.318812 0.0332512 0)
(0.301712 0.0336611 0)
(0.28442 0.0341253 0)
(0.267178 0.0346558 0)
(0.250179 0.0352278 0)
(0.233446 0.0357755 0)
(0.216835 0.0362387 0)
(0.200106 0.0366125 0)
(0.183006 0.0369614 0)
(0.165351 0.0373838 0)
(0.147117 0.0379617 0)
(0.128449 0.0387248 0)
(0.109547 0.0396644 0)
(0.0905112 0.0407379 0)
(0.0712569 0.041909 0)
(0.05147 0.0431928 0)
(0.0312284 0.0440429 0)
(0.0105035 0.0453095 0)
(3 -3.17777e-16 0)
(3 -1.4853e-16 0)
(3 -4.55554e-16 0)
(3 -1.03951e-15 0)
(3 -1.12948e-15 0)
(3 -8.00704e-16 0)
(3 -8.10747e-16 0)
(3 -6.61558e-16 0)
(3 -8.35243e-16 0)
(3 -9.47159e-16 0)
(3 -5.472e-16 0)
(3 -3.66675e-16 0)
(3 -5.77399e-16 0)
(3 -7.34107e-16 0)
(3 -2.06339e-16 0)
(3 8.495e-16 0)
(3 1.17135e-15 0)
(3 1.3042e-15 0)
(3 1.21936e-15 0)
(3 6.80789e-16 0)
(3 6.53781e-16 0)
(3 3.65989e-16 0)
(3 3.42385e-16 0)
(3 4.58824e-16 0)
(3 6.02401e-17 0)
(3 -5.95813e-16 0)
(3 2.18709e-16 0)
(3 1.07925e-15 0)
(3 1.29612e-15 0)
(3 2.2886e-17 0)
(3 -3.47914e-16 0)
(3 -5.61723e-16 0)
(3 1.89102e-16 0)
(3 1.89427e-15 0)
(3 1.64541e-15 0)
(3 1.1451e-15 0)
(3 1.50018e-15 0)
(3 1.34608e-15 0)
(3 1.20687e-15 0)
(3 1.17374e-15 0)
(3 1.27231e-15 0)
(3 1.53262e-15 0)
(3 3.89895e-16 0)
(3 2.01631e-16 0)
(3 3.32468e-16 0)
(3 -7.28687e-17 0)
(3 -1.02813e-15 0)
(3 -1.97103e-15 0)
(2.85081 0.0189149 0)
(0.991191 0.0474067 0)
(0.75955 0.0548627 0)
(0.743094 0.0458717 0)
(0.725892 0.0403595 0)
(0.710568 0.037747 0)
(0.695988 0.0397786 0)
(0.681779 0.0447358 0)
(0.666632 0.0489016 0)
(0.650896 0.0491205 0)
(0.635444 0.0462595 0)
(0.619948 0.0442031 0)
(0.604455 0.0453782 0)
(0.588808 0.048461 0)
(0.572622 0.0497618 0)
(0.556735 0.0484466 0)
(0.541214 0.0478896 0)
(0.526008 0.0495781 0)
(0.510782 0.0513757 0)
(0.495564 0.0517331 0)
(0.480374 0.0514864 0)
(0.464933 0.051684 0)
(0.449079 0.0523617 0)
(0.432852 0.0531603 0)
(0.416415 0.0538365 0)
(0.399929 0.0543581 0)
(0.383482 0.0548347 0)
(0.36707 0.0553478 0)
(0.350616 0.0558876 0)
(0.334006 0.0564577 0)
(0.317135 0.0570866 0)
(0.299985 0.0577689 0)
(0.282673 0.0585011 0)
(0.265384 0.0593008 0)
(0.248263 0.0601492 0)
(0.231332 0.0609695 0)
(0.214505 0.0616878 0)
(0.197629 0.0623033 0)
(0.18051 0.0629063 0)
(0.162971 0.0636281 0)
(0.144946 0.0645757 0)
(0.126511 0.0657865 0)
(0.107821 0.0672474 0)
(0.0889825 0.0688974 0)
(0.0699435 0.0706869 0)
(0.0504511 0.0726757 0)
(0.0305432 0.0739392 0)
(0.0102777 0.0758716 0)
(3 3.07116e-17 0)
(3 3.63564e-16 0)
(3 9.17477e-17 0)
(3 -1.26421e-16 0)
(3 -5.14612e-16 0)
(3 -4.32252e-16 0)
(3 -7.96023e-17 0)
(3 -1.32364e-16 0)
(3 -8.50952e-16 0)
(3 -1.18247e-15 0)
(3 -1.28174e-15 0)
(3 -1.22197e-15 0)
(3 -1.43352e-15 0)
(3 -9.98542e-16 0)
(3 5.45008e-17 0)
(3 7.63527e-16 0)
(3 1.52322e-15 0)
(3 2.16906e-15 0)
(3 2.298e-15 0)
(3 1.51816e-15 0)
(3 5.04267e-16 0)
(3 -2.24981e-17 0)
(3 -4.56505e-16 0)
(3 -1.33375e-15 0)
(3 -1.1485e-15 0)
(3 -7.63472e-16 0)
(3 -2.18762e-16 0)
(3 2.69987e-16 0)
(3 4.614e-16 0)
(3 -2.93219e-16 0)
(3 -9.18096e-16 0)
(3 -1.35266e-15 0)
(3 -1.0247e-15 0)
(3 -1.46898e-15 0)
(3 -1.68572e-15 0)
(3 -1.13454e-15 0)
(3 -4.43265e-16 0)
(3 7.00714e-16 0)
(3 4.90645e-16 0)
(3 -3.53012e-16 0)
(3 -9.21279e-16 0)
(3 -1.16878e-15 0)
(3 -1.01923e-15 0)
(3 -6.92257e-16 0)
(3 -2.78626e-16 0)
(3 3.73327e-16 0)
(3 9.56232e-16 0)
(3 -5.80298e-16 0)
(2.8942 0.022537 0)
(1.01406 0.0687037 0)
(0.760487 0.0733467 0)
(0.74428 0.0649225 0)
(0.727758 0.0600013 0)
(0.712261 0.0571397 0)
(0.697203 0.0591663 0)
(0.683087 0.0646368 0)
(0.668481 0.0692036 0)
(0.653405 0.0694605 0)
(0.638376 0.0665065 0)
(0.622902 0.0643204 0)
(0.607335 0.0658052 0)
(0.59185 0.0695969 0)
(0.575795 0.0713133 0)
(0.55993 0.0698275 0)
(0.544206 0.0692121 0)
(0.528833 0.0713545 0)
(0.513507 0.073617 0)
(0.49819 0.0740963 0)
(0.482858 0.0739683 0)
(0.467207 0.0745087 0)
(0.451101 0.075589 0)
(0.434608 0.0766978 0)
(0.41791 0.0776305 0)
(0.401147 0.0784304 0)
(0.384383 0.0792106 0)
(0.367618 0.0800209 0)
(0.350792 0.0808339 0)
(0.333817 0.0816642 0)
(0.316618 0.0825527 0)
(0.299185 0.083478 0)
(0.281601 0.0844157 0)
(0.263993 0.0853838 0)
(0.246462 0.0863781 0)
(0.229051 0.0873386 0)
(0.211772 0.0882113 0)
(0.194588 0.0890163 0)
(0.177389 0.0898652 0)
(0.160024 0.0909013 0)
(0.142375 0.0922366 0)
(0.124414 0.093907 0)
(0.106198 0.0958945 0)
(0.0877703 0.0981261 0)
(0.0690626 0.100522 0)
(0.0499108 0.103217 0)
(0.030192 0.104872 0)
(0.0102106 0.107419 0)
(3 1.9297e-16 0)
(3 1.12472e-16 0)
(3 4.99449e-17 0)
(3 2.16846e-16 0)
(3 4.38203e-16 0)
(3 9.76177e-16 0)
(3 1.52804e-15 0)
(3 1.6232e-15 0)
(3 1.1065e-15 0)
(3 9.03049e-16 0)
(3 5.7742e-16 0)
(3 2.15886e-16 0)
(3 -8.10817e-16 0)
(3 -7.20362e-16 0)
(3 -3.93975e-16 0)
(3 -5.61633e-16 0)
(3 -7.80704e-16 0)
(3 -1.137e-15 0)
(3 -1.00319e-15 0)
(3 -6.91781e-16 0)
(3 -2.56725e-16 0)
(3 -5.66602e-16 0)
(3 -1.02153e-15 0)
(3 -1.32405e-15 0)
(3 -1.44519e-15 0)
(3 -6.03106e-16 0)
(3 -8.23394e-16 0)
(3 -7.35241e-16 0)
(3 -7.69802e-16 0)
(3 -8.11096e-16 0)
(3 -1.01221e-15 0)
(3 -1.51282e-15 0)
(3 -1.17713e-15 0)
(3 -9.57854e-16 0)
(3 -8.0998e-16 0)
(3 -1.07327e-15 0)
(3 -1.39039e-15 0)
(3 -9.57539e-16 0)
(3 -8.98557e-16 0)
(3 -9.69319e-16 0)
(3 -9.69051e-16 0)
(3 -1.34839e-15 0)
(3 -1.59045e-15 0)
(3 -1.78702e-15 0)
(3 -1.55047e-15 0)
(3 -8.19563e-17 0)
(3 2.9642e-15 0)
(3 1.68188e-15 0)
(2.94023 0.0284482 0)
(1.0407 0.0984503 0)
(0.759975 0.09214 0)
(0.747303 0.0826146 0)
(0.733197 0.0793475 0)
(0.718553 0.0775568 0)
(0.703412 0.0798663 0)
(0.688973 0.0853901 0)
(0.674472 0.0898172 0)
(0.659719 0.0901804 0)
(0.644759 0.087648 0)
(0.62913 0.0856374 0)
(0.613376 0.0872549 0)
(0.598023 0.0914016 0)
(0.582274 0.0935103 0)
(0.566627 0.0922035 0)
(0.550896 0.0917988 0)
(0.535467 0.0943762 0)
(0.520088 0.0970139 0)
(0.504717 0.0976355 0)
(0.489311 0.0977646 0)
(0.473559 0.098841 0)
(0.457302 0.100488 0)
(0.440613 0.101989 0)
(0.423713 0.103239 0)
(0.406736 0.10443 0)
(0.389713 0.105663 0)
(0.372628 0.106913 0)
(0.355429 0.108118 0)
(0.338049 0.109304 0)
(0.320433 0.110524 0)
(0.302571 0.111735 0)
(0.284501 0.112884 0)
(0.266279 0.113986 0)
(0.24796 0.115055 0)
(0.229614 0.116058 0)
(0.211353 0.116965 0)
(0.193266 0.117808 0)
(0.175355 0.118711 0)
(0.157541 0.119833 0)
(0.139706 0.121306 0)
(0.121769 0.123193 0)
(0.103725 0.125502 0)
(0.0855706 0.128186 0)
(0.0672132 0.131111 0)
(0.0485352 0.134508 0)
(0.0293098 0.136581 0)
(0.00994814 0.139731 0)
(3 1.74403e-16 0)
(3 2.72038e-16 0)
(3 4.77331e-16 0)
(3 8.98089e-16 0)
(3 9.24424e-16 0)
(3 9.37084e-16 0)
(3 9.40056e-16 0)
(3 1.58017e-15 0)
(3 2.61968e-15 0)
(3 2.68148e-15 0)
(3 2.40064e-15 0)
(3 1.80871e-15 0)
(3 1.53523e-15 0)
(3 7.1148e-16 0)
(3 5.15479e-16 0)
(3 -5.57612e-16 0)
(3 -1.03441e-15 0)
(3 -2.93806e-15 0)
(3 -3.63058e-15 0)
(3 -3.39877e-15 0)
(3 -3.13178e-15 0)
(3 -2.58421e-15 0)
(3 -1.95773e-15 0)
(3 -1.20669e-15 0)
(3 -1.2873e-15 0)
(3 -1.41781e-15 0)
(3 -1.09093e-15 0)
(3 -1.72818e-15 0)
(3 -2.22307e-15 0)
(3 -2.20938e-15 0)
(3 -2.04204e-15 0)
(3 -1.51706e-15 0)
(3 -1.154e-15 0)
(3 -1.25551e-15 0)
(3 -1.54246e-15 0)
(3 -1.95158e-15 0)
(3 -1.90605e-15 0)
(3 -1.57572e-15 0)
(3 -9.89217e-16 0)
(3 -3.89738e-16 0)
(3 -6.11348e-16 0)
(3 -9.64914e-16 0)
(3 -3.65637e-16 0)
(3 7.05577e-17 0)
(3 1.4171e-15 0)
(3 2.34568e-15 0)
(3 2.82383e-15 0)
(3 2.43531e-15 0)
(2.99767 0.00291134 0)
(1.10574 0.12166 0)
(0.773195 0.104649 0)
(0.757853 0.0966104 0)
(0.74423 0.0970644 0)
(0.729484 0.0981691 0)
(0.714344 0.101809 0)
(0.699621 0.107053 0)
(0.685109 0.110536 0)
(0.670532 0.110987 0)
(0.655425 0.109385 0)
(0.63954 0.107772 0)
(0.623596 0.109097 0)
(0.608435 0.112923 0)
(0.593268 0.115151 0)
(0.578099 0.114343 0)
(0.562629 0.114481 0)
(0.547328 0.117539 0)
(0.53201 0.120449 0)
(0.516726 0.121109 0)
(0.501445 0.121473 0)
(0.485865 0.123168 0)
(0.469752 0.125528 0)
(0.453122 0.127499 0)
(0.43625 0.129081 0)
(0.419288 0.130722 0)
(0.40224 0.132539 0)
(0.385062 0.134389 0)
(0.367705 0.136153 0)
(0.350116 0.137873 0)
(0.332255 0.139618 0)
(0.314101 0.14132 0)
(0.29565 0.142881 0)
(0.276895 0.144302 0)
(0.257841 0.145633 0)
(0.238557 0.146883 0)
(0.219211 0.14804 0)
(0.199974 0.149122 0)
(0.180944 0.150224 0)
(0.162117 0.151476 0)
(0.143408 0.153007 0)
(0.124724 0.154915 0)
(0.106025 0.157261 0)
(0.0872868 0.160096 0)
(0.0683971 0.163236 0)
(0.0493501 0.167111 0)
(0.0297278 0.16948 0)
(0.0101211 0.173098 0)
(3 1.34454e-16 0)
(3 2.25985e-16 0)
(3 6.12619e-16 0)
(3 9.72022e-16 0)
(3 7.60227e-16 0)
(3 3.7733e-16 0)
(3 4.06088e-16 0)
(3 3.20769e-16 0)
(3 9.86047e-16 0)
(3 1.32597e-15 0)
(3 1.1553e-15 0)
(3 1.57057e-15 0)
(3 1.85462e-15 0)
(3 1.37797e-15 0)
(3 8.34939e-16 0)
(3 -2.33454e-16 0)
(3 -1.48037e-15 0)
(3 -2.28189e-15 0)
(3 -2.33129e-15 0)
(3 -2.54292e-15 0)
(3 -2.76606e-15 0)
(3 -2.28845e-15 0)
(3 -1.27303e-15 0)
(3 1.01541e-17 0)
(3 6.13103e-16 0)
(3 1.01575e-15 0)
(3 2.84699e-16 0)
(3 -6.79373e-16 0)
(3 -1.09315e-15 0)
(3 -2.02581e-15 0)
(3 -2.4374e-15 0)
(3 -1.32638e-15 0)
(3 -1.05812e-15 0)
(3 -1.88878e-15 0)
(3 -1.89452e-15 0)
(3 -1.30906e-15 0)
(3 -2.23492e-15 0)
(3 -2.49677e-15 0)
(3 -1.58044e-15 0)
(3 -6.84364e-16 0)
(3 -1.92378e-16 0)
(3 -7.74814e-16 0)
(3 3.9518e-16 0)
(3 1.11853e-15 0)
(3 1.35081e-15 0)
(3 1.44306e-15 0)
(3 2.21133e-15 0)
(3 1.55343e-15 0)
(3.00004 4.01619e-05 0)
(1.22286 0.140509 0)
(0.777917 0.123869 0)
(0.754515 0.117902 0)
(0.739007 0.120156 0)
(0.722995 0.12228 0)
(0.707956 0.126002 0)
(0.693838 0.130368 0)
(0.680151 0.133345 0)
(0.66617 0.134301 0)
(0.651273 0.134019 0)
(0.635478 0.132958 0)
(0.619645 0.133402 0)
(0.604859 0.136249 0)
(0.590573 0.138526 0)
(0.576206 0.138625 0)
(0.561387 0.139787 0)
(0.546571 0.143504 0)
(0.531561 0.146649 0)
(0.516583 0.147277 0)
(0.501652 0.147822 0)
(0.486548 0.150154 0)
(0.470991 0.153346 0)
(0.454858 0.155886 0)
(0.43845 0.157816 0)
(0.421955 0.159918 0)
(0.40537 0.162374 0)
(0.388624 0.164896 0)
(0.37166 0.167272 0)
(0.354427 0.169556 0)
(0.33688 0.171846 0)
(0.318982 0.17407 0)
(0.300703 0.17609 0)
(0.282011 0.17788 0)
(0.262887 0.179504 0)
(0.243388 0.181013 0)
(0.223669 0.182416 0)
(0.20393 0.183721 0)
(0.184329 0.184998 0)
(0.164933 0.186347 0)
(0.145714 0.187871 0)
(0.126605 0.189695 0)
(0.107541 0.191904 0)
(0.0884719 0.194702 0)
(0.0692558 0.197832 0)
(0.0499694 0.202016 0)
(0.0300798 0.204611 0)
(0.0102699 0.208597 0)
(3 -4.83969e-17 0)
(3 -6.03693e-17 0)
(3 -1.21725e-16 0)
(3 -5.70776e-16 0)
(3 -5.32407e-16 0)
(3 -1.12789e-16 0)
(3 -6.33021e-17 0)
(3 -2.16017e-16 0)
(3 -1.15949e-16 0)
(3 3.67911e-16 0)
(3 5.30565e-16 0)
(3 7.39374e-16 0)
(3 2.5277e-16 0)
(3 -4.09832e-16 0)
(3 -6.03721e-16 0)
(3 -5.0502e-16 0)
(3 -6.887e-16 0)
(3 -7.42078e-16 0)
(3 -1.2881e-15 0)
(3 -1.54156e-15 0)
(3 -1.64399e-15 0)
(3 -1.56844e-15 0)
(3 -1.61819e-15 0)
(3 -1.74617e-15 0)
(3 -1.36524e-15 0)
(3 -3.41457e-16 0)
(3 1.9602e-16 0)
(3 1.89422e-16 0)
(3 -5.53403e-16 0)
(3 -1.17403e-15 0)
(3 -1.17375e-15 0)
(3 -1.00864e-15 0)
(3 -8.99994e-16 0)
(3 -8.45497e-16 0)
(3 -7.87853e-16 0)
(3 -1.04087e-15 0)
(3 -2.31737e-15 0)
(3 -2.8789e-15 0)
(3 -2.44909e-15 0)
(3 -1.64094e-15 0)
(3 -9.29357e-16 0)
(3 -8.42958e-16 0)
(3 -9.17232e-16 0)
(3 -9.43862e-16 0)
(3 -3.12956e-16 0)
(3 -4.34545e-17 0)
(3 1.32623e-15 0)
(3 1.43468e-15 0)
(3 7.46234e-08 0)
(1.42733 0.167705 0)
(0.793476 0.146068 0)
(0.757012 0.144636 0)
(0.738569 0.1456 0)
(0.721161 0.146534 0)
(0.706069 0.148778 0)
(0.692497 0.151858 0)
(0.679508 0.154677 0)
(0.665964 0.156869 0)
(0.651191 0.158513 0)
(0.635289 0.158409 0)
(0.619378 0.157691 0)
(0.604622 0.158832 0)
(0.591012 0.160718 0)
(0.57749 0.161841 0)
(0.563572 0.164327 0)
(0.549553 0.168842 0)
(0.535122 0.172154 0)
(0.520728 0.172557 0)
(0.506426 0.17309 0)
(0.492106 0.175949 0)
(0.477447 0.180055 0)
(0.462078 0.183344 0)
(0.446293 0.185663 0)
(0.430356 0.188194 0)
(0.414296 0.191322 0)
(0.398018 0.194645 0)
(0.381445 0.197819 0)
(0.364522 0.200874 0)
(0.347192 0.203945 0)
(0.329399 0.206979 0)
(0.311102 0.209809 0)
(0.29227 0.212369 0)
(0.272887 0.214711 0)
(0.252996 0.216895 0)
(0.232727 0.218928 0)
(0.212274 0.220788 0)
(0.191827 0.222506 0)
(0.171513 0.224147 0)
(0.15138 0.225784 0)
(0.131406 0.227562 0)
(0.111532 0.229565 0)
(0.0916881 0.232199 0)
(0.0717378 0.235153 0)
(0.0517396 0.23948 0)
(0.0311556 0.242207 0)
(0.0106451 0.24648 0)
(3 2.71646e-17 0)
(3 -2.80848e-17 0)
(3 -3.06551e-16 0)
(3 -4.04712e-16 0)
(3 -2.9657e-16 0)
(3 -4.49552e-16 0)
(3 -7.1609e-16 0)
(3 -5.23221e-16 0)
(3 -5.81826e-16 0)
(3 -5.67458e-16 0)
(3 -5.65734e-16 0)
(3 -1.83022e-15 0)
(3 -1.95127e-15 0)
(3 -1.6586e-15 0)
(3 -1.49267e-15 0)
(3 -1.33299e-15 0)
(3 -1.22193e-15 0)
(3 -1.37366e-15 0)
(3 -1.36456e-15 0)
(3 -1.02852e-15 0)
(3 -4.29047e-16 0)
(3 -2.01417e-16 0)
(3 -1.16055e-16 0)
(3 8.078e-16 0)
(3 1.16672e-15 0)
(3 -2.07762e-16 0)
(3 -5.28725e-16 0)
(3 -2.63288e-16 0)
(3 1.56696e-17 0)
(3 9.69861e-17 0)
(3 -1.63711e-16 0)
(3 -9.77004e-16 0)
(3 -2.1949e-15 0)
(3 -1.64627e-15 0)
(3 -7.45287e-16 0)
(3 -3.75875e-16 0)
(3 -5.12858e-16 0)
(3 -8.16336e-16 0)
(3 -1.20068e-15 0)
(3 -1.78704e-15 0)
(3 -1.67404e-15 0)
(3 -6.86786e-16 0)
(3 -6.01556e-16 0)
(3 -7.20533e-16 0)
(3 -1.15117e-15 0)
(3 -2.13353e-15 0)
(3 -1.87058e-15 0)
(3 -1.70324e-15 0)
(3 1.59329e-10 0)
(1.74307 0.185664 0)
(0.82244 0.169133 0)
(0.764267 0.178604 0)
(0.743648 0.174734 0)
(0.724581 0.172329 0)
(0.708488 0.171509 0)
(0.694372 0.172968 0)
(0.68115 0.176017 0)
(0.667546 0.18023 0)
(0.652658 0.184318 0)
(0.636391 0.185593 0)
(0.620167 0.183862 0)
(0.604969 0.182851 0)
(0.591169 0.18386 0)
(0.5778 0.185856 0)
(0.564261 0.189733 0)
(0.550558 0.195106 0)
(0.536251 0.198533 0)
(0.522009 0.198571 0)
(0.507934 0.198865 0)
(0.4941 0.202116 0)
(0.48027 0.20726 0)
(0.465711 0.211621 0)
(0.450626 0.214494 0)
(0.435414 0.217439 0)
(0.420183 0.221247 0)
(0.404808 0.22548 0)
(0.389124 0.229615 0)
(0.373025 0.233604 0)
(0.356419 0.237622 0)
(0.339227 0.241661 0)
(0.321404 0.245545 0)
(0.302932 0.249153 0)
(0.283798 0.252494 0)
(0.264013 0.255618 0)
(0.243649 0.258526 0)
(0.222846 0.26117 0)
(0.201791 0.263549 0)
(0.180658 0.2657 0)
(0.159564 0.267643 0)
(0.138552 0.269533 0)
(0.117596 0.271392 0)
(0.0966828 0.273877 0)
(0.075654 0.276514 0)
(0.0545796 0.28088 0)
(0.0329007 0.28363 0)
(0.0112424 0.288135 0)
(3 8.86746e-18 0)
(3 1.08442e-16 0)
(3 2.55602e-16 0)
(3 1.71007e-16 0)
(3 -3.20241e-16 0)
(3 -1.3353e-15 0)
(3 -1.6173e-15 0)
(3 -1.57574e-15 0)
(3 -1.81144e-15 0)
(3 -2.45032e-15 0)
(3 -2.68769e-15 0)
(3 -3.54005e-15 0)
(3 -3.7466e-15 0)
(3 -3.36632e-15 0)
(3 -2.99053e-15 0)
(3 -2.93772e-15 0)
(3 -2.03457e-15 0)
(3 -9.41623e-16 0)
(3 -5.46177e-16 0)
(3 2.30524e-17 0)
(3 8.97136e-16 0)
(3 1.40699e-15 0)
(3 1.68269e-15 0)
(3 1.50358e-15 0)
(3 1.32259e-15 0)
(3 -6.61284e-16 0)
(3 -1.50706e-15 0)
(3 -1.99474e-15 0)
(3 -1.51814e-15 0)
(3 -1.2365e-15 0)
(3 -1.2314e-15 0)
(3 -1.8305e-15 0)
(3 -2.35085e-15 0)
(3 -1.99219e-15 0)
(3 4.69311e-18 0)
(3 1.25527e-15 0)
(3 1.87643e-15 0)
(3 1.3244e-16 0)
(3 -1.10907e-15 0)
(3 -2.01844e-15 0)
(3 -3.0963e-15 0)
(3 -2.13182e-15 0)
(3 -1.05289e-15 0)
(3 -6.33487e-16 0)
(3 -1.07056e-15 0)
(3 -2.21735e-15 0)
(3 -3.40009e-15 0)
(3 -3.52281e-15 0)
(3 3.14871e-13 0)
(2.16606 0.188795 0)
(0.860935 0.205113 0)
(0.760588 0.214037 0)
(0.744119 0.207257 0)
(0.726884 0.202408 0)
(0.711396 0.19837 0)
(0.6973 0.197747 0)
(0.684249 0.200626 0)
(0.671376 0.20639 0)
(0.657404 0.212598 0)
(0.641689 0.215251 0)
(0.625669 0.21308 0)
(0.610228 0.210188 0)
(0.595801 0.209996 0)
(0.582079 0.212412 0)
(0.568519 0.217412 0)
(0.554767 0.223539 0)
(0.540196 0.227049 0)
(0.525592 0.226625 0)
(0.511127 0.226226 0)
(0.497033 0.229249 0)
(0.483396 0.235036 0)
(0.469163 0.240427 0)
(0.454298 0.243788 0)
(0.439349 0.246833 0)
(0.424585 0.251023 0)
(0.409913 0.256074 0)
(0.395052 0.261235 0)
(0.37981 0.266282 0)
(0.36406 0.271403 0)
(0.347698 0.276672 0)
(0.330654 0.281935 0)
(0.312886 0.287016 0)
(0.294347 0.291854 0)
(0.274989 0.296453 0)
(0.254809 0.300784 0)
(0.233888 0.304753 0)
(0.212407 0.308299 0)
(0.190587 0.311414 0)
(0.168609 0.314052 0)
(0.146573 0.316378 0)
(0.124463 0.3183 0)
(0.102366 0.320781 0)
(0.0800581 0.322972 0)
(0.0577549 0.327223 0)
(0.0348422 0.329895 0)
(0.0118857 0.334568 0)
(3 -3.92316e-17 0)
(3 6.6219e-17 0)
(3 1.05247e-16 0)
(3 -1.4598e-16 0)
(3 -2.74866e-16 0)
(3 -3.75931e-16 0)
(3 -8.64887e-16 0)
(3 -1.66341e-15 0)
(3 -2.11341e-15 0)
(3 -2.35057e-15 0)
(3 -2.27476e-15 0)
(3 -1.68141e-15 0)
(3 -1.06029e-15 0)
(3 -6.65578e-16 0)
(3 -3.61056e-16 0)
(3 5.85402e-17 0)
(3 3.93652e-16 0)
(3 9.16111e-16 0)
(3 1.36545e-15 0)
(3 1.95341e-15 0)
(3 2.49707e-15 0)
(3 2.18524e-15 0)
(3 2.46003e-15 0)
(3 1.08233e-15 0)
(3 -3.14974e-16 0)
(3 -6.12175e-16 0)
(3 -7.64807e-16 0)
(3 -8.44539e-16 0)
(3 -6.4319e-16 0)
(3 -4.31173e-16 0)
(3 -1.44639e-16 0)
(3 -8.84892e-17 0)
(3 -1.28314e-16 0)
(3 -6.80662e-17 0)
(3 1.65023e-16 0)
(3 1.06194e-15 0)
(3 1.78042e-15 0)
(3 1.79294e-15 0)
(3 1.52068e-15 0)
(3 1.18698e-15 0)
(3 1.28403e-15 0)
(3 3.917e-17 0)
(3 -1.36056e-15 0)
(3 -1.50462e-15 0)
(3 -1.97597e-15 0)
(3 -2.31297e-15 0)
(3 -2.49495e-15 0)
(3 -2.73638e-15 0)
(3 -3.42775e-15 0)
(2.68568 0.169493 0)
(0.962816 0.253991 0)
(0.782759 0.239515 0)
(0.774155 0.228917 0)
(0.755691 0.227035 0)
(0.739359 0.222082 0)
(0.722976 0.220473 0)
(0.707748 0.223375 0)
(0.693574 0.230345 0)
(0.679342 0.238607 0)
(0.66357 0.243305 0)
(0.647164 0.242164 0)
(0.63102 0.238695 0)
(0.615357 0.237743 0)
(0.600501 0.24051 0)
(0.586287 0.246588 0)
(0.572104 0.253725 0)
(0.556956 0.257928 0)
(0.541432 0.257753 0)
(0.525861 0.256864 0)
(0.51056 0.259345 0)
(0.496095 0.26541 0)
(0.481395 0.271839 0)
(0.465901 0.275917 0)
(0.450195 0.278936 0)
(0.43475 0.28312 0)
(0.419662 0.288645 0)
(0.404585 0.294616 0)
(0.389234 0.300548 0)
(0.373487 0.306602 0)
(0.357275 0.31298 0)
(0.340549 0.319607 0)
(0.323258 0.32627 0)
(0.30533 0.332811 0)
(0.286662 0.33915 0)
(0.267161 0.345204 0)
(0.246793 0.350835 0)
(0.225622 0.355931 0)
(0.203787 0.360484 0)
(0.181388 0.364405 0)
(0.158516 0.367862 0)
(0.135116 0.370568 0)
(0.111408 0.373664 0)
(0.0871775 0.37584 0)
(0.0628632 0.380073 0)
(0.0379114 0.382676 0)
(0.0129157 0.387586 0)
(3 -3.79498e-18 0)
(3 -2.06956e-16 0)
(3 -2.10092e-16 0)
(3 1.67949e-16 0)
(3 2.41574e-16 0)
(3 2.85774e-16 0)
(3 -1.21601e-16 0)
(3 -1.00442e-16 0)
(3 -7.29805e-17 0)
(3 -2.91372e-17 0)
(3 -3.51407e-17 0)
(3 2.73094e-16 0)
(3 7.95829e-16 0)
(3 7.92065e-16 0)
(3 9.05555e-16 0)
(3 1.14997e-15 0)
(3 9.54469e-16 0)
(3 7.77434e-16 0)
(3 5.51158e-16 0)
(3 4.83368e-16 0)
(3 4.77078e-16 0)
(3 -1.02894e-16 0)
(3 -5.34882e-16 0)
(3 -4.48452e-16 0)
(3 -8.57492e-17 0)
(3 -1.56079e-16 0)
(3 1.6558e-18 0)
(3 3.28767e-16 0)
(3 6.74166e-16 0)
(3 6.84371e-16 0)
(3 1.16851e-15 0)
(3 1.23274e-15 0)
(3 9.79095e-16 0)
(3 -1.50369e-16 0)
(3 -1.3025e-15 0)
(3 -1.62087e-15 0)
(3 -1.46746e-15 0)
(3 -8.96366e-17 0)
(3 2.52754e-16 0)
(3 5.97577e-16 0)
(3 1.18721e-15 0)
(3 8.61975e-16 0)
(3 -3.14962e-16 0)
(3 -2.33252e-15 0)
(3 -2.17332e-15 0)
(3 -1.5051e-15 0)
(3 -3.41486e-16 0)
(3 7.89058e-16 0)
(3 -1.74882e-16 0)
(3.02032 0.0101218 0)
(1.14965 0.279548 0)
(0.808643 0.233907 0)
(0.797434 0.249814 0)
(0.781696 0.254822 0)
(0.766016 0.253528 0)
(0.749509 0.251854 0)
(0.733458 0.253071 0)
(0.718687 0.258532 0)
(0.705067 0.266024 0)
(0.690694 0.270973 0)
(0.675349 0.270906 0)
(0.659693 0.26775 0)
(0.643923 0.26609 0)
(0.628653 0.268378 0)
(0.614257 0.274588 0)
(0.600234 0.282389 0)
(0.58526 0.287822 0)
(0.569437 0.288978 0)
(0.553264 0.288288 0)
(0.53702 0.290054 0)
(0.521584 0.295884 0)
(0.506403 0.303337 0)
(0.490334 0.308932 0)
(0.473715 0.312562 0)
(0.457198 0.316844 0)
(0.441114 0.322796 0)
(0.425192 0.329632 0)
(0.409048 0.336535 0)
(0.392555 0.343508 0)
(0.375701 0.350897 0)
(0.358469 0.358794 0)
(0.340792 0.36703 0)
(0.322553 0.375396 0)
(0.30359 0.383764 0)
(0.283733 0.39203 0)
(0.26287 0.40006 0)
(0.240979 0.407665 0)
(0.218176 0.414748 0)
(0.194579 0.421051 0)
(0.170335 0.426572 0)
(0.145486 0.430925 0)
(0.120021 0.435159 0)
(0.0940583 0.437709 0)
(0.0676856 0.44196 0)
(0.0406998 0.444266 0)
(0.0136991 0.449199 0)
(3 1.38281e-17 0)
(3 -4.59858e-17 0)
(3 8.10718e-17 0)
(3 2.96166e-16 0)
(3 1.14783e-16 0)
(3 -2.30233e-16 0)
(3 -9.74188e-17 0)
(3 2.61982e-17 0)
(3 9.78392e-17 0)
(3 2.79333e-16 0)
(3 5.49779e-16 0)
(3 6.50138e-16 0)
(3 7.78159e-16 0)
(3 9.93757e-16 0)
(3 1.12409e-15 0)
(3 7.47258e-16 0)
(3 4.00653e-16 0)
(3 -5.13245e-16 0)
(3 -1.82025e-15 0)
(3 -2.16996e-15 0)
(3 -2.85626e-15 0)
(3 -2.81763e-15 0)
(3 -2.84045e-15 0)
(3 -2.58716e-15 0)
(3 -2.52003e-15 0)
(3 -1.72744e-15 0)
(3 -1.37724e-15 0)
(3 -1.08274e-15 0)
(3 -6.37072e-16 0)
(3 -3.97907e-16 0)
(3 -1.77108e-17 0)
(3 -2.44584e-17 0)
(3 -6.60187e-16 0)
(3 -1.37892e-15 0)
(3 -1.39621e-15 0)
(3 -1.87739e-15 0)
(3 -3.23279e-15 0)
(3 -3.30351e-15 0)
(3 -1.80589e-15 0)
(3 -1.0856e-15 0)
(3 -5.83685e-16 0)
(3 -8.09901e-16 0)
(3 -1.08308e-15 0)
(3 -6.59885e-16 0)
(3 -1.06246e-17 0)
(3 7.47903e-17 0)
(3 6.20079e-16 0)
(3 2.48393e-15 0)
(3 1.69045e-15 0)
(3.0003 9.9369e-06 0)
(1.55964 0.309673 0)
(0.824778 0.273727 0)
(0.783565 0.282228 0)
(0.768987 0.288648 0)
(0.754409 0.288255 0)
(0.740103 0.286671 0)
(0.726208 0.286667 0)
(0.713306 0.290195 0)
(0.701753 0.296453 0)
(0.689913 0.302083 0)
(0.676818 0.304026 0)
(0.663007 0.302581 0)
(0.648748 0.301307 0)
(0.634588 0.303218 0)
(0.621197 0.309036 0)
(0.608527 0.317102 0)
(0.595238 0.323794 0)
(0.58091 0.326646 0)
(0.565985 0.326917 0)
(0.55067 0.328245 0)
(0.535805 0.333202 0)
(0.521705 0.340883 0)
(0.507045 0.347912 0)
(0.491441 0.352576 0)
(0.475482 0.35693 0)
(0.459679 0.362865 0)
(0.444019 0.370139 0)
(0.428117 0.377763 0)
(0.411813 0.385446 0)
(0.39514 0.393586 0)
(0.378106 0.402474 0)
(0.360659 0.412091 0)
(0.342688 0.422191 0)
(0.324091 0.432581 0)
(0.304756 0.443109 0)
(0.284616 0.453612 0)
(0.263585 0.463804 0)
(0.241618 0.473464 0)
(0.218547 0.482187 0)
(0.194301 0.490132 0)
(0.168434 0.496899 0)
(0.141155 0.50398 0)
(0.111595 0.509728 0)
(0.080474 0.516052 0)
(0.0481482 0.519086 0)
(0.0159705 0.523875 0)
(3 -4.00817e-20 0)
(3 -1.04693e-16 0)
(3 -1.95174e-16 0)
(3 -2.73292e-16 0)
(3 3.70525e-16 0)
(3 6.18464e-16 0)
(3 9.80745e-16 0)
(3 8.00198e-16 0)
(3 5.74586e-16 0)
(3 4.5293e-16 0)
(3 6.11628e-16 0)
(3 8.44488e-16 0)
(3 1.08282e-15 0)
(3 1.22554e-15 0)
(3 1.194e-15 0)
(3 9.16892e-16 0)
(3 8.14507e-16 0)
(3 3.12014e-16 0)
(3 8.97737e-17 0)
(3 4.235e-17 0)
(3 -4.58148e-16 0)
(3 -1.15177e-15 0)
(3 -1.62849e-15 0)
(3 -2.24469e-15 0)
(3 -2.56393e-15 0)
(3 -2.38578e-15 0)
(3 -2.35239e-15 0)
(3 -2.36306e-15 0)
(3 -2.59109e-15 0)
(3 -2.92485e-15 0)
(3 -3.4187e-15 0)
(3 -3.27862e-15 0)
(3 -2.42604e-15 0)
(3 -1.98678e-15 0)
(3 -1.63033e-15 0)
(3 -1.30915e-15 0)
(3 -1.23032e-15 0)
(3 -1.5711e-15 0)
(3 -1.89258e-15 0)
(3 -1.76238e-15 0)
(3 -1.10824e-15 0)
(3 -1.10113e-15 0)
(3 -1.19018e-15 0)
(3 -2.23548e-16 0)
(3 2.45494e-16 0)
(3 -1.08364e-16 0)
(3 -8.26211e-16 0)
(3 -1.1158e-16 0)
(3 -1.68648e-16 0)
(3 1.8817e-08 0)
(2.38829 0.279287 0)
(0.919847 0.332452 0)
(0.794105 0.319196 0)
(0.781423 0.315606 0)
(0.766106 0.317741 0)
(0.752485 0.317172 0)
(0.739545 0.31674 0)
(0.727201 0.31858 0)
(0.715762 0.323232 0)
(0.704581 0.328831 0)
(0.692369 0.332564 0)
(0.679123 0.333245 0)
(0.665343 0.333035 0)
(0.651522 0.334904 0)
(0.638348 0.340136 0)
(0.626146 0.347867 0)
(0.613991 0.355257 0)
(0.601014 0.359813 0)
(0.587264 0.361773 0)
(0.572883 0.363557 0)
(0.55845 0.3679 0)
(0.544826 0.375504 0)
(0.531382 0.384128 0)
(0.51696 0.391049 0)
(0.501716 0.396624 0)
(0.486221 0.403073 0)
(0.470778 0.41107 0)
(0.455198 0.419834 0)
(0.439275 0.428751 0)
(0.423015 0.438045 0)
(0.406339 0.448192 0)
(0.389196 0.459342 0)
(0.371446 0.471372 0)
(0.352895 0.484044 0)
(0.333572 0.497252 0)
(0.313312 0.510862 0)
(0.29192 0.52474 0)
(0.269112 0.538778 0)
(0.244261 0.55255 0)
(0.217374 0.566219 0)
(0.188052 0.57911 0)
(0.157153 0.592123 0)
(0.124942 0.603806 0)
(0.0914552 0.61335 0)
(0.0561539 0.618253 0)
(0.0177986 0.621303 0)
(3 4.50562e-17 0)
(3 2.11281e-16 0)
(3 1.91788e-16 0)
(3 4.06363e-16 0)
(3 5.18027e-16 0)
(3 1.52311e-15 0)
(3 2.06274e-15 0)
(3 1.91001e-15 0)
(3 2.05044e-15 0)
(3 1.69617e-15 0)
(3 1.32375e-15 0)
(3 8.15419e-16 0)
(3 4.88694e-16 0)
(3 4.31704e-16 0)
(3 5.3853e-16 0)
(3 7.73736e-16 0)
(3 7.10358e-16 0)
(3 1.01253e-15 0)
(3 1.34788e-15 0)
(3 1.42067e-15 0)
(3 1.00902e-15 0)
(3 6.74921e-16 0)
(3 -1.33677e-16 0)
(3 -8.11144e-16 0)
(3 -5.95924e-16 0)
(3 -1.53797e-15 0)
(3 -1.82242e-15 0)
(3 -2.18678e-15 0)
(3 -2.40294e-15 0)
(3 -2.60075e-15 0)
(3 -3.00883e-15 0)
(3 -3.14392e-15 0)
(3 -2.51171e-15 0)
(3 -2.32944e-15 0)
(3 -2.3553e-15 0)
(3 -2.24407e-15 0)
(3 -2.36613e-15 0)
(3 -2.59181e-15 0)
(3 -3.11691e-15 0)
(3 -2.83428e-15 0)
(3 -2.22655e-15 0)
(3 -2.10606e-15 0)
(3 -2.04039e-15 0)
(3 -1.97961e-15 0)
(3 -9.34401e-16 0)
(3 -8.42548e-16 0)
(3 -1.18149e-15 0)
(3 -1.92428e-15 0)
(3 -1.8268e-15 0)
(3 -7.44536e-09 0)
(3.0277 0.0171693 0)
(1.25678 0.374225 0)
(0.842001 0.325024 0)
(0.820297 0.340186 0)
(0.804166 0.341874 0)
(0.78954 0.340669 0)
(0.775648 0.340435 0)
(0.762086 0.342281 0)
(0.749031 0.346625 0)
(0.736494 0.352669 0)
(0.723686 0.358319 0)
(0.70999 0.361711 0)
(0.695751 0.363424 0)
(0.681495 0.365821 0)
(0.667795 0.370549 0)
(0.655093 0.377533 0)
(0.642982 0.384942 0)
(0.630588 0.390844 0)
(0.617498 0.395025 0)
(0.603647 0.398526 0)
(0.589391 0.40313 0)
(0.575612 0.410487 0)
(0.562653 0.420065 0)
(0.549373 0.429433 0)
(0.535106 0.437216 0)
(0.520206 0.444722 0)
(0.505184 0.453462 0)
(0.490162 0.463377 0)
(0.475102 0.473888 0)
(0.459631 0.484679 0)
(0.444078 0.49636 0)
(0.427926 0.509253 0)
(0.411027 0.523607 0)
(0.393178 0.539171 0)
(0.374485 0.555863 0)
(0.355083 0.573612 0)
(0.335004 0.592408 0)
(0.31405 0.612173 0)
(0.291672 0.632436 0)
(0.267416 0.652605 0)
(0.240929 0.671336 0)
(0.211981 0.687544 0)
(0.180764 0.703165 0)
(0.143827 0.721813 0)
(0.097488 0.744144 0)
(0.0368592 0.763347 0)
(3 -6.4846e-17 0)
(3 4.27195e-17 0)
(3 8.1188e-17 0)
(3 -1.62435e-16 0)