/*--------------------------------*- C++ -*----------------------------------*\
  =========                 |
  \\      /  F ield         | OpenFOAM: The Open Source CFD Toolbox
   \\    /   O peration     | Website:  https://openfoam.org
    \\  /    A nd           | Version:  7
     \\/     M anipulation  |
\*---------------------------------------------------------------------------*/
FoamFile
{
    version     2.0;
    format      ascii;
    class       volScalarField;
    location    "2.6";
    object      p;
}
// * * * * * * * * * * * * * * * * * * * * * * * * * * * * * * * * * * * * * //

dimensions      [1 -1 -2 0 0 0 0];

internalField   nonuniform List<scalar> 
19968
(
1
1
1
1
1
1
1
1
1
1
1
1
1
1
1
1
1
1
1
1
1
1
1
1
1
1
1
1
1
1
1
1
1
1
1
1
1
1
1
1
1
1
1
1
1
1
1
1
1
4.41329
10.1655
10.4611
10.5052
10.5579
10.6078
10.6639
10.724
10.7855
10.8451
10.9016
10.9554
11.0093
11.0639
11.1186
11.1744
11.2302
11.2825
11.3292
11.3712
11.4087
11.4449
11.4846
11.5289
11.5743
11.6162
11.652
11.6825
11.7105
11.7383
11.7677
11.8003
11.8349
11.8689
11.8989
11.9224
11.9378
11.9459
11.9508
11.9572
11.9693
11.9885
12.0126
12.0358
12.0541
12.067
12.0732
1
1
1
1
1
1
1
1
1
1
1
1
1
1
1
1
1
1
1
1
1
1
1
1
1
1
1
1
1
1
1
1
1
1
1
1
1
1
1
1
1
1
1
1
1
1
1
1
1
4.33508
10.1275
10.4493
10.5006
10.5585
10.6123
10.6693
10.729
10.7891
10.8469
10.9015
10.9533
11.0057
11.0598
11.1146
11.17
11.2254
11.2777
11.3242
11.3663
11.4038
11.4403
11.4799
11.5242
11.5698
11.6121
11.6483
11.6789
11.7067
11.7342
11.7636
11.7962
11.8309
11.8648
11.8943
11.9169
11.9315
11.9391
11.9441
11.951
11.9637
11.9833
12.0071
12.0297
12.0476
12.0602
12.0664
1
1
1
1
1
1
1
1
1
1
1
1
1
1
1
1
1
1
1
1
1
1
1
1
1
1
1
1
1
1
1
1
1
1
1
1
1
1
1
1
1
1
1
1
1
1
1
1
1
4.15755
10.0613
10.4341
10.4901
10.5539
10.6127
10.6729
10.7334
10.7924
10.8484
10.9002
10.9491
10.9994
11.0526
11.1067
11.1616
11.2168
11.2694
11.3159
11.3584
11.3957
11.4319
11.4709
11.5149
11.561
11.6043
11.6415
11.6726
11.7003
11.7274
11.7567
11.7894
11.8243
11.858
11.887
11.9085
11.9218
11.9286
11.9335
11.9407
11.9539
11.9739
11.9973
12.0189
12.0359
12.0477
12.0536
1
1
1
1
1
1
1
1
1
1
1
1
1
1
1
1
1
1
1
1
1
1
1
1
1
1
1
1
1
1
1
1
1
1
1
1
1
1
1
1
1
1
1
1
1
1
1
1
1
3.87207
9.9478
10.4264
10.482
10.5474
10.6083
10.6705
10.7317
10.791
10.8469
10.8974
10.9435
10.9907
11.0417
11.0942
11.1482
11.2036
11.257
11.3041
11.3471
11.3841
11.4193
11.4571
11.5004
11.547
11.5918
11.6304
11.6622
11.6896
11.7161
11.7451
11.7778
11.8127
11.846
11.8739
11.8942
11.9064
11.9129
11.9181
11.926
11.9396
11.9595
11.9818
12.0019
12.0178
12.0284
12.0337
1
1
1
1
1
1
1
1
1
1
1
1
1
1
1
1
1
1
1
1
1
1
1
1
1
1
1
1
1
1
1
1
1
1
1
1
1
1
1
1
1
1
1
1
1
1
1
1
1
3.48586
9.76872
10.4218
10.4749
10.5367
10.597
10.6602
10.7223
10.7826
10.8398
10.8905
10.9351
10.9791
11.0268
11.0767
11.1292
11.1845
11.2385
11.2866
11.3302
11.3671
11.4013
11.4376
11.4798
11.5266
11.5728
11.6133
11.6463
11.6738
11.6998
11.7282
11.7605
11.7947
11.8269
11.8535
11.8725
11.8845
11.8917
11.8979
11.9067
11.9206
11.9397
11.9606
11.9794
11.994
12.0033
12.0081
1
1
1
1
1
1
1
1
1
1
1
1
1
1
1
1
1
1
1
1
1
1
1
1
1
1
1
1
1
1
1
1
1
1
1
1
1
1
1
1
1
1
1
1
1
1
1
1
1
3.00208
9.49832
10.4145
10.4669
10.5254
10.5832
10.645
10.7068
10.7677
10.8257
10.8769
10.9211
10.9635
11.0092
11.0575
11.1085
11.1627
11.2162
11.2642
11.308
11.3454
11.3791
11.4138
11.4536
11.4984
11.544
11.5854
11.62
11.6486
11.6749
11.7028
11.7342
11.767
11.7978
11.8234
11.8424
11.8555
11.8644
11.872
11.8814
11.8948
11.9122
11.9312
11.9489
11.9625
11.9707
11.9752
1
1
1
1
1
1
1
1
1
1
1
1
1
1
1
1
1
1
1
1
1
1
1
1
1
1
1
1
1
1
1
1
1
1
1
1
1
1
1
1
1
1
1
1
1
1
1
1
1
2.44087
9.10643
10.4199
10.4623
10.5171
10.5705
10.6295
10.6893
10.7493
10.8066
10.8574
10.9013
10.9432
10.9886
11.0366
11.0864
11.1384
11.1897
11.2364
11.2799
11.3182
11.3522
11.386
11.4235
11.4655
11.5096
11.5514
11.5877
11.6181
11.6451
11.6719
11.7005
11.7301
11.7581
11.7824
11.8019
11.8169
11.8278
11.8368
11.8465
11.859
11.8748
11.8921
11.909
11.9221
11.93
11.9348
1
1
1
1
1
1
1
1
1
1
1
1
1
1
1
1
1
1
1
1
1
1
1
1
1
1
1
1
1
1
1
1
1
1
1
1
1
1
1
1
1
1
1
1
1
1
1
1
1
1.84966
8.4849
10.4312
10.4615
10.5084
10.5565
10.6113
10.6681
10.7255
10.781
10.8315
10.8762
10.9186
10.9642
11.0126
11.0615
11.1108
11.1594
11.204
11.2459
11.2847
11.3195
11.3536
11.3897
11.4294
11.4716
11.5131
11.5505
11.5823
11.6091
11.6337
11.6583
11.684
11.7099
11.7343
11.7553
11.7725
11.7853
11.7952
11.8044
11.8157
11.8292
11.844
11.859
11.871
11.8782
11.883
1
1
1
1
1
1
1
1
1
1
1
1
1
1
1
1
1
1
1
1
1
1
1
1
1
1
1
1
1
1
1
1
1
1
1
1
1
1
1
1
1
1
1
1
1
1
1
1
1
1.36261
7.63941
10.4227
10.4249
10.4744
10.5223
10.577
10.6337
10.6909
10.746
10.7962
10.8408
10.8828
10.9277
10.9759
11.0246
11.0723
11.1189
11.1615
11.2006
11.2381
11.2725
11.3071
11.343
11.3815
11.4217
11.4616
11.4981
11.529
11.5541
11.5752
11.5954
11.6172
11.6415
11.667
11.6907
11.7109
11.7263
11.7381
11.7482
11.7596
11.7719
11.7849
11.798
11.8088
11.8156
11.8204
1
1
1
1
1
1
1
1
1
1
1
1
1
1
1
1
1
1
1
1
1
1
1
1
1
1
1
1
1
1
1
1
1
1
1
1
1
1
1
1
1
1
1
1
1
1
1
1
1
1.0103
6.37455
10.339
10.3947
10.4491
10.4991
10.5517
10.6058
10.6607
10.7148
10.7653
10.8104
10.852
10.8946
10.9405
10.9875
11.0335
11.0781
11.1186
11.154
11.1882
11.2199
11.2527
11.2875
11.3251
11.3636
11.4009
11.4345
11.4623
11.4841
11.5018
11.5186
11.5383
11.5627
11.5907
11.618
11.641
11.6575
11.6686
11.6769
11.6851
11.6931
11.7019
11.7103
11.7176
11.7223
11.7259
1
1
1
1
1
1
1
1
1
1
1
1
1
1
1
1
1
1
1
1
1
1
1
1
1
1
1
1
1
1
1
1
1
1
1
1
1
1
1
1
1
1
1
1
1
1
1
1
1
1.00002
4.8205
10.0425
10.3057
10.3704
10.4354
10.4923
10.5469
10.5999
10.6515
10.7
10.7437
10.7843
10.8254
10.8693
10.9146
10.9586
11
11.0375
11.0695
11.1005
11.1296
11.1605
11.1946
11.2318
11.2697
11.3056
11.3376
11.364
11.3844
11.4007
11.4162
11.4345
11.4582
11.4866
11.5152
11.5395
11.5567
11.5677
11.5759
11.5835
11.5909
11.5985
11.6056
11.6115
11.6158
11.619
1
1
1
1
1
1
1
1
1
1
1
1
1
1
1
1
1
1
1
1
1
1
1
1
1
1
1
1
1
1
1
1
1
1
1
1
1
1
1
1
1
1
1
1
1
1
1
1
1
1
3.08838
9.39809
10.2525
10.3218
10.3989
10.4561
10.5088
10.5584
10.6071
10.6534
10.6958
10.7354
10.7745
10.8154
10.8573
10.8981
10.9358
10.9699
10.999
11.0269
11.0542
11.0834
11.1157
11.1502
11.1838
11.2144
11.241
11.2627
11.2795
11.2926
11.3046
11.3187
11.3378
11.3625
11.3891
11.4129
11.4297
11.4397
11.4456
11.4487
11.4498
11.4506
11.4507
11.4508
11.4513
11.452
1
1
1
1
1
1
1
1
1
1
1
1
1
1
1
1
1
1
1
1
1
1
1
1
1
1
1
1
1
1
1
1
1
1
1
1
1
1
1
1
1
1
1
1
1
1
1
1
1
1
1.5884
8.00261
10.3193
10.314
10.3762
10.4171
10.4611
10.5046
10.5478
10.5892
10.6278
10.6643
10.7002
10.7372
10.7752
10.8123
10.8464
10.8774
10.9042
10.9291
10.9544
10.981
11.0108
11.0421
11.072
11.0982
11.1203
11.1385
11.1525
11.163
11.1715
11.1802
11.1914
11.2064
11.2237
11.2395
11.2498
11.2543
11.2545
11.2516
11.2495
11.2488
11.2482
11.2485
11.2487
11.2492
1
1
1
1
1
1
1
1
1
1
1
1
1
1
1
1
1
1
1
1
1
1
1
1
1
1
1
1
1
1
1
1
1
1
1
1
1
1
1
1
1
1
1
1
1
1
1
1
1
1
1.0122
5.55216
10.1271
10.2316
10.2722
10.318
10.3632
10.4078
10.4508
10.4917
10.5299
10.5661
10.6015
10.6376
10.6742
10.71
10.7429
10.7717
10.7957
10.8161
10.8364
10.8574
10.8821
10.9093
10.9355
10.9576
10.9749
10.9884
10.998
11.004
11.0073
11.0089
11.0103
11.0133
11.0188
11.0257
11.0317
11.0348
11.0323
11.0238
11.0115
10.9959
10.9737
10.9477
10.9209
10.8976
1
1
1
1
1
1
1
1
1
1
1
1
1
1
1
1
1
1
1
1
1
1
1
1
1
1
1
1
1
1
1
1
1
1
1
1
1
1
1
1
1
1
1
1
1
1
1
1
1
1
1.00001
2.85332
9.08799
10.1702
10.2016
10.2539
10.2985
10.3421
10.383
10.4212
10.4561
10.4881
10.5186
10.5494
10.5815
10.6139
10.6445
10.671
10.6917
10.707
10.7203
10.7335
10.7499
10.7704
10.7909
10.8072
10.8177
10.8237
10.8258
10.8238
10.8181
10.809
10.7965
10.7819
10.7671
10.7528
10.7375
10.7174
10.6874
10.6459
10.5957
10.5415
10.4943
10.4538
10.4333
10.4218
1
1
1
1
1
1
1
1
1
1
1
1
1
1
1
1
1
1
1
1
1
1
1
1
1
1
1
1
1
1
1
1
1
1
1
1
1
1
1
1
1
1
1
1
1
1
1
1
1
1
1
1.08655
6.56762
10.1545
10.1765
10.2012
10.2347
10.2659
10.2966
10.3268
10.3557
10.3822
10.4069
10.4317
10.4582
10.486
10.5134
10.5373
10.5546
10.5651
10.5721
10.5776
10.5845
10.5958
10.6092
10.6189
10.6218
10.6178
10.6089
10.5954
10.5775
10.5547
10.5258
10.491
10.4524
10.412
10.3701
10.3244
10.2705
10.2065
10.1335
10.0558
9.96519
9.88039
9.7629
9.85529
1
1
1
1
1
1
1
1
1
1
1
1
1
1
1
1
1
1
1
1
1
1
1
1
1
1
1
1
1
1
1
1
1
1
1
1
1
1
1
1
1
1
1
1
1
1
1
1
1
1
1
0.998774
3.66709
9.46216
10.0129
10.0666
10.1161
10.1517
10.1843
10.2171
10.2503
10.2804
10.3062
10.3293
10.3513
10.3733
10.3951
10.4141
10.4271
10.4344
10.4365
10.4356
10.4355
10.4387
10.444
10.4465
10.441
10.4271
10.4065
10.3801
10.349
10.3117
10.2663
10.2117
10.1487
10.0784
9.99996
9.91061
9.80066
9.66108
9.47082
9.2153
8.83751
8.28574
7.3605
5.48757
1
1
1
1
1
1
1
1
1
1
1
1
1
1
1
1
1
1
1
1
1
1
1
1
1
1
1
1
1
1
1
1
1
1
1
1
1
1
1
1
1
1
1
1
1
1
1
1
1
1
1
0.999812
1.51667
7.78128
10.0232
10.0202
10.0488
10.0762
10.104
10.1346
10.1677
10.1974
10.2207
10.2403
10.2582
10.2757
10.2921
10.3048
10.3119
10.3147
10.3113
10.3061
10.3009
10.2971
10.2937
10.2881
10.2754
10.2534
10.2223
10.1842
10.1401
10.0889
10.0285
9.95709
9.87269
9.77593
9.66242
9.53069
9.36472
9.15864
8.8782
8.51875
8.00445
7.35064
6.12747
4.50786
1
1
1
1
1
1
1
1
1
1
1
1
1
1
1
1
1
1
1
1
1
1
1
1
1
1
1
1
1
1
1
1
1
1
1
1
1
1
1
1
1
1
1
1
1
1
1
1
1
1
1
0.99999
1.00944
5.00354
9.75691
9.89638
9.92464
9.96327
10.0005
10.0388
10.0724
10.0961
10.1121
10.1277
10.1466
10.1664
10.1815
10.1892
10.1901
10.186
10.1782
10.1697
10.1604
10.1509
10.1393
10.1249
10.1049
10.0751
10.0346
9.98505
9.92725
9.86168
9.78558
9.69786
9.59312
9.47222
9.32778
9.15913
8.94987
8.69263
8.36417
7.9429
7.40608
6.65087
5.63097
4.5373
1
1
1
1
1
1
1
1
1
1
1
1
1
1
1
1
1
1
1
1
1
1
1
1
1
1
1
1
1
1
1
1
1
1
1
1
1
1
1
1
1
1
1
1
1
1
1
1
1
1
1
1
0.999993
2.05105
8.35796
9.84575
9.86815
9.90631
9.93571
9.96903
9.99599
10.0105
10.0186
10.0292
10.046
10.0636
10.0746
10.0765
10.0703
10.0592
10.0475
10.035
10.0215
10.0064
9.98577
9.96105
9.93113
9.89303
9.84403
9.78424
9.7136
9.63419
9.54308
9.44032
9.31872
9.17795
9.01127
8.81621
8.58219
8.29745
7.95014
7.51587
6.98252
6.31594
5.52939
4.71744
1
1
1
1
1
1
1
1
1
1
1
1
1
1
1
1
1
1
1
1
1
1
1
1
1
1
1
1
1
1
1
1
1
1
1
1
1
1
1
1
1
1
1
1
1
1
1
1
1
1
1
1
0.999999
1.03696
5.40728
9.68148
9.81829
9.83739
9.85679
9.88418
9.91061
9.92753
9.93677
9.94473
9.95572
9.96593
9.96918
9.96276
9.95047
9.93517
9.92048
9.90399
9.88511
9.86215
9.83307
9.79876
9.75872
9.71188
9.65403
9.58461
9.50274
9.41134
9.30807
9.19284
9.05897
8.90369
8.72245
8.51233
8.26786
7.97758
7.63943
7.22088
6.73541
6.18192
5.56952
4.92547
1
1
1
1
1
1
1
1
1
1
1
1
1
1
1
1
1
1
1
1
1
1
1
1
1
1
1
1
1
1
1
1
1
1
1
1
1
1
1
1
1
1
1
1
1
1
1
1
1
1
1
1
1
1.00002
2.10144
8.33418
9.75378
9.75021
9.77232
9.79006
9.80977
9.82869
9.84244
9.85226
9.85866
9.86052
9.85478
9.84109
9.8248
9.80811
9.79136
9.77125
9.74742
9.71838
9.68341
9.64213
9.59338
9.53777
9.47204
9.39522
9.30494
9.20376
9.09101
8.96606
8.82383
8.65985
8.47094
8.25479
8.00876
7.72506
7.40831
7.02371
6.60165
6.1461
5.63608
5.1183
1
1
1
1
1
1
1
1
1
1
1
1
1
1
1
1
1
1
1
1
1
1
1
1
1
1
1
1
1
1
1
1
1
1
1
1
1
1
1
1
1
1
1
1
1
1
1
1
1
1
1
1
1
1
1.0379
5.1252
9.5129
9.68784
9.67909
9.70347
9.71982
9.73547
9.74636
9.75256
9.75366
9.74874
9.73726
9.72048
9.70341
9.68735
9.66948
9.64635
9.61674
9.58069
9.53796
9.48857
9.4315
9.3682
9.29591
9.21306
9.11567
9.0061
8.88591
8.75498
8.60896
8.44261
8.25358
8.03851
7.80023
7.52526
7.23357
6.8909
6.52775
6.14267
5.708
5.28041
1
1
1
1
1
1
1
1
1
1
1
1
1
1
1
1
1
1
1
1
1
1
1
1
1
1
1
1
1
1
1
1
1
1
1
1
1
1
1
1
1
1
1
1
1
1
1
1
1
1
1
1
1
1
1.00003
1.70558
7.81995
9.6816
9.64183
9.63496
9.63884
9.64273
9.64652
9.64662
9.64224
9.63272
9.61936
9.60279
9.58532
9.5678
9.54664
9.51955
9.48488
9.44339
9.39513
9.34061
9.27839
9.2096
9.13232
9.04524
8.94354
8.82927
8.70494
8.57124
8.42374
8.25796
8.07269
7.8627
7.63659
7.37111
7.10494
6.79739
6.48026
6.1448
5.77586
5.40811
1
1
1
1
1
1
1
1
1
1
1
1
1
1
1
1
1
1
1
1
1
1
1
1
1
1
1
1
1
1
1
1
1
1
1
1
1
1
1
1
1
1
1
1
1
1
1
1
1
1
1
1
1
1
1
1.0151
4.29028
9.14858
9.49644
9.5208
9.53368
9.53713
9.5374
9.53457
9.52952
9.51974
9.50639
9.48935
9.46941
9.44822
9.42271
9.39149
9.35322
9.30823
9.25574
9.19667
9.12948
9.05602
8.97504
8.88516
8.78147
8.66499
8.53915
8.40442
8.25676
8.0936
7.91574
7.71372
7.4995
7.25338
7.01136
6.7329
6.45444
6.15436
5.83835
5.5141
1
1
1
1
1
1
1
1
1
1
1
1
1
1
1
1
1
1
1
1
1
1
1
1
1
1
1
1
1
1
1
1
1
1
1
1
1
1
1
1
1
1
1
1
1
1
1
1
1
1
1
1
1
1
1
1
1.28507
6.73771
9.5082
9.44569
9.44995
9.44904
9.44511
9.43866
9.43187
9.42157
9.40809
9.39038
9.36741
9.34144
9.30972
9.27259
9.22933
9.18011
9.12342
9.06101
8.9912
8.91551
8.83194
8.73888
8.63437
8.51782
8.3943
8.26076
8.11727
7.95551
7.78299
7.58815
7.38533
7.16328
6.94039
6.68912
6.44232
6.16744
5.89233
5.59965
1
1
1
1
1
1
1
1
1
1
1
1
1
1
1
1
1
1
1
1
1
1
1
1
1
1
1
1
1
1
1
1
1
1
1
1
1
1
1
1
1
1
1
1
1
1
1
1
1
1
1
1
1
1
1
1
1.00244
2.70789
8.41658
9.32437
9.3213
9.34224
9.3436
9.33821
9.32965
9.3183
9.30269
9.28331
9.25635
9.22496
9.18699
9.14452
9.09754
9.04618
8.98809
8.92563
8.8566
8.78137
8.69663
8.60138
8.49768
8.38462
8.2649
8.13381
7.99499
7.83327
7.6639
7.48078
7.28987
7.08948
6.88415
6.65815
6.43549
6.18418
5.94073
5.67604
1
1
1
1
1
1
1
1
1
1
1
1
1
1
1
1
1
1
1
1
1
1
1
1
1
1
1
1
1
1
1
1
1
1
1
1
1
1
1
1
1
1
1
1
1
1
1
1
1
1
1
1
1
1
1
1
1
1.0809
4.80957
9.06634
9.283
9.28928
9.2819
9.26852
9.24995
9.23062
9.20939
9.18719
9.15749
9.1235
9.08275
9.03694
8.98684
8.93312
8.87259
8.80856
8.73904
8.66319
8.57697
8.48
8.37669
8.26671
8.15002
8.02348
7.88669
7.73119
7.56686
7.39537
7.21389
7.02903
6.83796
6.63168
6.42764
6.19885
5.97984
5.73903
1
1
1
1
1
1
1
1
1
1
1
1
1
1
1
1
1
1
1
1
1
1
1
1
1
1
1
1
1
1
1
1
1
1
1
1
1
1
1
1
1
1
1
1
1
1
1
1
1
1
1
1
1
1
1
1
1
1.00025
1.37631
6.55369
9.2146
9.24095
9.22846
9.19456
9.16578
9.13652
9.10971
9.08509
9.05433
9.01913
8.97802
8.93159
8.87848
8.82207
8.75943
8.69531
8.62544
8.5495
8.46348
8.36749
8.26636
8.1598
8.04606
7.9231
7.78936
7.64246
7.48604
7.32535
7.15345
6.98049
6.80062
6.61006
6.42
6.21219
6.01245
5.7911
1
1
1
1
1
1
1
1
1
1
1
1
1
1
1
1
1
1
1
1
1
1
1
1
1
1
1
1
1
1
1
1
1
1
1
1
1
1
1
1
1
1
1
1
1
1
1
1
1
1
1
1
1
1
1
1
1
1
1.0042
2.30802
8.022
9.16851
9.10472
9.08671
9.06052
9.03495
9.00805
8.98562
8.95797
8.92475
8.88661
8.84249
8.79008
8.73089
8.66829
8.60119
8.53022
8.45199
8.36416
8.2688
8.16926
8.06612
7.95279
7.83125
7.70235
7.56358
7.41652
7.26673
7.10583
6.94412
6.7735
6.59586
6.4162
6.22542
6.03939
5.83604
1
1
1
1
1
1
1
1
1
1
1
1
1
1
1
1
1
1
1
1
1
1
1
1
1
1
1
1
1
1
1
1
1
1
1
1
1
1
1
1
1
1
1
1
1
1
1
1
1
1
1
1
1
1
1
1
1
1
1
1.04636
4.05147
8.70151
8.98562
8.94392
8.93935
8.92669
8.90628
8.88388
8.8593
8.82794
8.79378
8.75139
8.7006
8.64274
8.57772
8.51051
8.4379
8.35885
8.27017
8.17786
8.07954
7.97692
7.86596
7.74778
7.62371
7.49231
7.3538
7.21368
7.06344
6.91244
6.75144
6.58595
6.41586
6.23945
6.06344
5.877
1
1
1
1
1
1
1
1
1
1
1
1
1
1
1
1
1
1
1
1
1
1
1
1
1
1
1
1
1
1
1
1
1
1
1
1
1
1
1
1
1
1
1
1
1
1
1
1
1
1
1
1
1
1
1
1
1
1
1
1.00012
1.23766
5.17308
8.75183
8.86181
8.87437
8.87687
8.86165
8.83719
8.80523
8.76751
8.72801
8.6816
8.62844
8.569
8.50225
8.42951
8.3578
8.27699
8.18759
8.09658
7.99886
7.8969
7.79012
7.67563
7.55602
7.43001
7.29905
7.16611
7.0252
6.88312
6.73126
6.57573
6.41587
6.25234
6.08541
5.91462
1
1
1
1
1
1
1
1
1
1
1
1
1
1
1
1
1
1
1
1
1
1
1
1
1
1
1
1
1
1
1
1
1
1
1
1
1
1
1
1
1
1
1
1
1
1
1
1
1
1
1
1
1
1
1
1
1
1
1
1
1.00188
1.47299
6.03388
8.72984
8.85757
8.8429
8.8194
8.79055
8.75159
8.70926
8.66398
8.6133
8.55641
8.49417
8.42618
8.35206
8.27896
8.19819
8.11018
8.01966
7.92318
7.8229
7.71932
7.60921
7.4945
7.37416
7.2497
7.12227
6.98983
6.85459
6.71089
6.56331
6.41406
6.26114
6.10361
5.9463
1
1
1
1
1
1
1
1
1
1
1
1
1
1
1
1
1
1
1
1
1
1
1
1
1
1
1
1
1
1
1
1
1
1
1
1
1
1
1
1
1
1
1
1
1
1
1
1
1
1
1
1
1
1
1
1
1
1
1
1
1
1.00668
1.76584
6.76668
8.77458
8.81306
8.78421
8.74145
8.69817
8.65341
8.60271
8.54671
8.48488
8.41904
8.34897
8.27441
8.20004
8.12143
8.03736
7.94866
7.85536
7.75826
7.65757
7.55163
7.44166
7.32755
7.2088
7.08503
6.9583
6.82755
6.69193
6.55318
6.41353
6.26819
6.11988
5.97288
1
1
1
1
1
1
1
1
1
1
1
1
1
1
1
1
1
1
1
1
1
1
1
1
1
1
1
1
1
1
1
1
1
1
1
1
1
1
1
1
1
1
1
1
1
1
1
1
1
1
1
1
1
1
1
1
1
1
1
1
1
1.00001
1.01651
2.1613
7.50282
8.77949
8.73609
8.70257
8.65043
8.60202
8.54474
8.48291
8.41737
8.34876
8.27664
8.20237
8.12826
8.05179
7.97127
7.88576
7.79557
7.70143
7.60303
7.49997
7.39345
7.28408
7.17049
7.05058
6.92742
6.80311
6.67655
6.54643
6.41453
6.27576
6.13598
5.99726
1
1
1
1
1
1
1
1
1
1
1
1
1
1
1
1
1
1
1
1
1
1
1
1
1
1
1
1
1
1
1
1
1
1
1
1
1
1
1
1
1
1
1
1
1
1
1
1
1
1
1
1
1
1
1
1
1
1
1
1
1
1
1.00004
1.03608
3.02756
7.99401
8.6584
8.61008
8.57798
8.52714
8.46814
8.40503
8.33947
8.27185
8.20261
8.13089
8.0578
7.98264
7.90417
7.82224
7.73665
7.64712
7.55304
7.45455
7.35269
7.24785
7.13872
7.02258
6.90272
6.78427
6.66467
6.54227
6.41644
6.28411
6.15142
6.02007
1
1
1
1
1
1
1
1
1
1
1
1
1
1
1
1
1
1
1
1
1
1
1
1
1
1
1
1
1
1
1
1
1
1
1
1
1
1
1
1
1
1
1
1
1
1
1
1
1
1
1
1
1
1
1
1
1
1
1
1
1
1
1
1.00011
1.10527
3.74387
8.17222
8.54735
8.4888
8.43602
8.38492
8.32954
8.27077
8.20745
8.14037
8.07045
7.99875
7.92348
7.84553
7.765
7.68182
7.59554
7.50522
7.41075
7.31306
7.21211
7.1069
6.99497
6.88012
6.7669
6.65314
6.53767
6.41758
6.2916
6.16525
6.04077
1
1
1
1
1
1
1
1
1
1
1
1
1
1
1
1
1
1
1
1
1
1
1
1
1
1
1
1
1
1
1
1
1
1
1
1
1
1
1
1
1
1
1
1
1
1
1
1
1
1
1
1
1
1
1
1
1
1
1
1
1
1
1
1
1.00055
1.19674
4.17179
8.17513
8.42071
8.3572
8.30995
8.25803
8.20477
8.14934
8.08787
8.02039
7.95003
7.87698
7.80208
7.72373
7.64199
7.5567
7.46752
7.37434
7.27779
7.17888
7.07689
6.96962
6.86097
6.75346
6.64488
6.5345
6.41952
6.29899
6.17832
6.05976
1
1
1
1
1
1
1
1
1
1
1
1
1
1
1
1
1
1
1
1
1
1
1
1
1
1
1
1
1
1
1
1
1
1
1
1
1
1
1
1
1
1
1
1
1
1
1
1
1
1
1
1
1
1
1
1
1
1
1
1
1
1
1
1
1
1.00152
1.27225
4.37589
8.05505
8.31116
8.24883
8.19725
8.14717
8.09213
8.03402
7.97342
7.90772
7.8378
7.76293
7.68356
7.60185
7.51751
7.43029
7.33997
7.24648
7.15086
7.05287
6.95097
6.84794
6.74526
6.64059
6.53324
6.42218
6.30626
6.19082
6.07718
1
1
1
1
1
1
1
1
1
1
1
1
1
1
1
1
1
1
1
1
1
1
1
1
1
1
1
1
1
1
1
1
1
1
1
1
1
1
1
1
1
1
1
1
1
1
1
1
1
1
1
1
1
1
1
1
1
1
1
1
1
1
1
1
1
1
1.00268
1.32018
4.42426
7.91368
8.19955
8.14449
8.09638
8.04103
7.98465
7.92578
7.86487
7.80132
7.73061
7.65467
7.57419
7.49039
7.40408
7.31537
7.2238
7.12996
7.03408
6.93591
6.83679
6.73702
6.63553
6.5309
6.42312
6.31231
6.20184
6.09258
1
1
1
1
1
1
1
1
1
1
1
1
1
1
1
1
1
1
1
1
1
1
1
1
1
1
1
1
1
1
1
1
1
1
1
1
1
1
1
1
1
1
1
1
1
1
1
1
1
1
1
1
1
1
1
1
1
1
1
1
1
1
1
1
1
1
1
1.0036
1.34135
4.31094
7.76798
8.11882
8.05213
7.99832
7.94165
7.88493
7.82455
7.7592
7.69099
7.62025
7.54448
7.46495
7.38148
7.29437
7.20399
7.11115
7.01677
6.92149
6.82516
6.72773
6.62955
6.52767
6.42334
6.3175
6.21155
6.10759
1
1
1
1
1
1
1
1
1
1
1
1
1
1
1
1
1
1
1
1
1
1
1
1
1
1
1
1
1
1
1
1
1
1
1
1
1
1
1
1
1
1
1
1
1
1
1
1
1
1
1
1
1
1
1
1
1
1
1
1
1
1
1
1
1
1
1
1.00001
1.00411
1.3272
4.06518
7.61295
8.0374
7.95947
7.90619
7.84982
7.78832
7.72433
7.65782
7.58852
7.5165
7.44082
7.3606
7.27605
7.1878
7.09679
7.00427
6.91065
6.81606
6.72075
6.62446
6.52606
6.42587
6.32369
6.2239
6.12378
1
1
1
1
1
1
1
1
1
1
1
1
1
1
1
1
1
1
1
1
1
1
1
1
1
1
1
1
1
1
1
1
1
1
1
1
1
1
1
1
1
1
1
1
1
1
1
1
1
1
1
1
1
1
1
1
1
1
1
1
1
1
1
1
1
1
1
1
1.00001
1.00393
1.283
3.70456
7.4473
7.95582
7.88612
7.83446
7.77333
7.70895
7.64246
7.57223
7.49846
7.42028
7.33839
7.25379
7.16726
7.07929
6.98995
6.89941
6.80785
6.71466
6.62079
6.52627
6.42928
6.33274
6.23739
6.13931
1
1
1
1
1
1
1
1
1
1
1
1
1
1
1
1
1
1
1
1
1
1
1
1
1
1
1
1
1
1
1
1
1
1
1
1
1
1
1
1
1
1
1
1
1
1
1
1
1
1
1
1
1
1
1
1
1
1
1
1
1
1
1
1
1
1
1
1
1
1.00001
1.00317
1.21906
3.35734
7.2265
7.86794
7.82263
7.75658
7.69197
7.61993
7.54604
7.46886
7.38896
7.30732
7.22461
7.14141
7.05742
6.97249
6.88655
6.79875
6.70951
6.61974
6.52873
6.437
6.3447
6.25091
6.15785
1
1
1
1
1
1
1
1
1
1
1
1
1
1
1
1
1
1
1
1
1
1
1
1
1
1
1
1
1
1
1
1
1
1
1
1
1
1
1
1
1
1
1
1
1
1
1
1
1
1
1
1
1
1
1
1
1
1
1
1
1
1
1
1
1
1
1
1
1
1
1
1.00212
1.163
3.01557
6.93129
7.76698
7.7481
7.66819
7.59826
7.51958
7.44119
7.36177
7.28195
7.20178
7.12135
7.04001
6.95803
6.87498
6.79094
6.70656
6.6209
6.53453
6.4471
6.35742
6.2687
6.17977
1
1
1
1
1
1
1
1
1
1
1
1
1
1
1
1
1
1
1
1
1
1
1
1
1
1
1
1
1
1
1
1
1
1
1
1
1
1
1
1
1
1
1
1
1
1
1
1
1
1
1
1
1
1
1
1
1
1
1
1
1
1
1
1
1
1
1
1
1
1
1
1
1.00133
1.11658
2.66804
6.52635
7.64079
7.65157
7.56151
7.49235
7.41221
7.33445
7.25685
7.17955
7.10196
7.02358
6.9446
6.86551
6.78606
6.70549
6.62391
6.54127
6.45769
6.37373
6.28832
6.20031
1
1
1
1
1
1
1
1
1
1
1
1
1
1
1
1
1
1
1
1
1
1
1
1
1
1
1
1
1
1
1
1
1
1
1
1
1
1
1
1
1
1
1
1
1
1
1
1
1
1
1
1
1
1
1
1
1
1
1
1
1
1
1
1
1
1
1
1
1
1
1
1
1
1.00079
1.07865
2.3248
5.95533
7.48575
7.55428
7.45325
7.38253
7.30881
7.23528
7.16213
7.08877
7.01438
6.93952
6.86428
6.7877
6.71021
6.6319
6.55231
6.47216
6.38918
6.30485
6.22029
1
1
1
1
1
1
1
1
1
1
1
1
1
1
1
1
1
1
1
1
1
1
1
1
1
1
1
1
1
1
1
1
1
1
1
1
1
1
1
1
1
1
1
1
1
1
1
1
1
1
1
1
1
1
1
1
1
1
1
1
1
1
1
1
1
1
1
1
1
1
1
1
1
1
1.00044
1.04972
1.98184
5.18916
7.31383
7.44095
7.35977
7.29246
7.22529
7.15678
7.08506
7.01352
6.94117
6.86782
6.79396
6.71869
6.64241
6.56461
6.48353
6.40236
6.32194
6.23788
1
1
1
1
1
1
1
1
1
1
1
1
1
1
1
1
1
1
1
1
1
1
1
1
1
1
1
1
1
1
1
1
1
1
1
1
1
1
1
1
1
1
1
1
1
1
1
1
1
1
1
1
1
1
1
1
1
1
1
1
1
1
1
1
1
1
1
1
1
1
1
1
1
1
1
1.00023
1.02828
1.65224
4.33221
7.01844
7.34247
7.28212
7.2224
7.15178
7.08366
7.01311
6.94238
6.87189
6.79992
6.72635
6.65141
6.57332
6.49507
6.41684
6.33371
6.25139
1
1
1
1
1
1
1
1
1
1
1
1
1
1
1
1
1
1
1
1
1
1
1
1
1
1
1
1
1
1
1
1
1
1
1
1
1
1
1
1
1
1
1
1
1
1
1
1
1
1
1
1
1
1
1
1
1
1
1
1
1
1
1
1
1
1
1
1
1
1
1
1
1
1
1
1
1.0001
1.01376
1.38343
3.47772
6.57445
7.23009
7.23977
7.14448
7.07736
7.01238
6.9461
6.87682
6.80686
6.73477
6.65926
6.58444
6.50755
6.42589
6.34719
6.26952
1
1
1
1
1
1
1
1
1
1
1
1
1
1
1
1
1
1
1
1
1
1
1
1
1
1
1
1
1
1
1
1
1
1
1
1
1
1
1
1
1
1
1
1
1
1
1
1
1
1
1
1
1
1
1
1
1
1
1
1
1
1
1
1
1
1
1
1
1
1
1
1
1
1
1
1
1
1.00004
1.00564
1.19928
2.7328
5.87119
7.0896
7.18905
7.08661
7.01946
6.95428
6.88759
6.81711
6.74275
6.66978
6.5947
6.51575
6.44156
6.36528
6.28602
1
1
1
1
1
1
1
1
1
1
1
1
1
1
1
1
1
1
1
1
1
1
1
1
1
1
1
1
1
1
1
1
1
1
1
1
1
1
1
1
1
1
1
1
1
1
1
1
1
1
1
1
1
1
1
1
1
1
1
1
1
1
1
1
1
1
1
1
1
1
1
1
1
1
1
1
1
1
1.00001
1.00199
1.09265
2.10887
4.93625
6.8799
7.09014
7.03021
6.95337
6.88487
6.81693
6.74738
6.6767
6.60288
6.53155
6.4572
6.37863
6.30603
1
1
1
1
1
1
1
1
1
1
1
1
1
1
1
1
1
1
1
1
1
1
1
1
1
1
1
1
1
1
1
1
1
1
1
1
1
1
1
1
1
1
1
1
1
1
1
1
1
1
1
1
1
1
1
1
1
1
1
1
1
1
1
1
1
1
1
1
1
1
1
1
1
1
1
1
1
1
1
1
1.0006
1.03812
1.62492
3.89143
6.47033
6.97483
6.99007
6.89354
6.82478
6.76248
6.69421
6.62507
6.55392
6.47916
6.40962
6.33319
1
1
1
1
1
1
1
1
1
1
1
1
1
1
1
1
1
1
1
1
1
1
1
1
1
1
1
1
1
1
1
1
1
1
1
1
1
1
1
1
1
1
1
1
1
1
1
1
1
1
1
1
1
1
1
1
1
1
1
1
1
1
1
1
1
1
1
1
1
1
1
1
1
1
1
1
1
1
1
1
1
1.00016
1.01345
1.30176
2.8991
5.78625
6.84805
6.91145
6.84389
6.76573
6.69605
6.63575
6.56994
6.50318
6.43247
6.35811
1
1
1
1
1
1
1
1
1
1
1
1
1
1
1
1
1
1
1
1
1
1
1
1
1
1
1
1
1
1
1
1
1
1
1
1
1
1
1
1
1
1
1
1
1
1
1
1
1
1
1
1
1
1
1
1
1
1
1
1
1
1
1
1
1
1
1
1
1
1
1
1
1
1
1
1
1
1
1
1
1
1
1.00004
1.004
1.11899
2.16499
4.73233
6.58901
6.85455
6.82567
6.73698
6.65174
6.57069
6.49849
6.42441
6.37276
1
1
1
1
1
1
1
1
1
1
1
1
1
1
1
1
1
1
1
1
1
1
1
1
1
1
1
1
1
1
1
1
1
1
1
1
1
1
1
1
1
1
1
1
1
1
1
1
1
1
1
1
1
1
1
1
1
1
1
1
1
1
1
1
1
1
1
1
1
1
1
1
1
1
1
1
1
1
1
1
1
1
1
1.00001
1.00092
1.04369
1.593
3.64802
6.00125
6.71905
6.77907
6.71034
6.62749
6.54675
6.45384
6.37059
1
1
1
1
1
1
1
1
1
1
1
1
1
1
1
1
1
1
1
1
1
1
1
1
1
1
1
1
1
1
1
1
1
1
1
1
1
1
1
1
1
1
1
1
1
1
1
1
1
1
1
1
1
1
1
1
1
1
1
1
1
1
1
1
1
1
1
1
1
1
1
1
1
1
1
1
1
1
1
1
1
1
1
1
1
1.0002
1.01287
1.25566
2.60555
5.13779
6.47418
6.71003
6.69102
6.60974
6.5261
6.42046
1
1
1
1
1
1
1
1
1
1
1
1
1
1
1
1
1
1
1
1
1
1
1
1
1
1
1
1
1
1
1
1
1
1
1
1
1
1
1
1
1
1
1
1
1
1
1
1
1
1
1
1
1
1
1
1
1
1
1
1
1
1
1
1
1
1
1
1
1
1
1
1
1
1
1
1
1
1
1
1
1
1
1
1
1
1
1.00003
1.00315
1.08856
1.83164
4.06588
6.068
6.54554
6.58138
6.53654
6.47284
1
1
1
1
1
1
1
1
1
1
1
1
1
1
1
1
1
1
1
1
1
1
1
1
1
1
1
1
1
1
1
1
1
1
1
1
1
1
1
1
1
1
1
1
1
1
1
1
1
1
1
1
1
1
1
1
1
1
1
1
1
1
1
1
1
1
1
1
1
1
1
1
1
1
1
1
1
1
1
1
1
1
1
1
1
1
1
1
1.0006
1.02433
1.38399
2.87748
5.26955
6.45781
6.54066
6.45987
1
1
1
1
1
1
1
1
1
1
1
1
1
1
1
1
1
1
1
1
1
1
1
1
1
1
1
1
1
1
1
1
1
1
1
1
1
1
1
1
1
1
1
1
1
1
1
1
1
1
1
1
1
1
1
1
1
1
1
1
1
1
1
1
1
1
1
1
1
1
1
1
1
1
1
1
1
1
1
1
1
1
1
1
1
1
1
1
1
1.00009
1.00631
1.13012
2.01722
4.11842
6.03913
6.46665
1
1
1
1
1
1
1
1
1
1
1
1
1
1
1
1
1
1
1
1
1
1
1
1
1
1
1
1
1
1
1
1
1
1
1
1
1
1
1
1
1
1
1
1
1
1
1
1
1
1
1
1
1
1
1
1
1
1
1
1
1
1
1
1
1
1
1
1
1
1
1
1
1
1
1
1
1
1
1
1
1
1
1
1
1
1
1
1
1
1
1.00001
1.00111
1.0368
1.43344
2.97333
5.29121
1
1
1
1
1
1
1
1
1
1
1
1
1
1
1
1
1
1
1
1
1
1
1
1
1
1
1
1
1
1
1
1
1
1
1
1
1
1
1
1
1
1
1
1
1
1
1
1
1
1
1
1
1
1
1
1
1
1
1
1
1
1
1
1
1
1
1
1
1
1
1
1
1
1
1
1
1
1
1
1
1
1
1
1
1
1
1
1
1
1
1
1
1.00016
1.00814
1.1479
2.08147
1
1
1
1
1
1
1
1
1
1
1
1
1
1
1
1
1
1
1
1
1
1
1
1
1
1
1
1
1
1
1
1
1
1
1
1
1
1
1
1
1
1
1
1
1
1
1
1
1
1
1
1
1
1
1
1
1
1
1
1
1
1
1
1
1
1
1
1
1
1
1
1
1
1
1
1
1
1
1
1
1
1
1
1
1
1
1
1
1
1
1
1
1
1.00002
1.00149
1.03963
1
1
1
1
1
1
1
1
1
1
1
1
1
1
1
1
1
1
1
1
1
1
1
1
1
1
1
1
1
1
1
1
1
1
1
1
1
1
1
1
1
1
1
1
1
1
1
1
1
1
1
1
1
1
1
1
1
1
1
1
1
1
1
1
1
1
1
1
1
1
1
1
1
1
1
1
1
1
1
1
1
1
1
1
1
1
1
1
1
1
1
1
1
1
1
1.00016
1
1
1
1
1
1
1
1
1
1
1
1
1
1
1
1
1
1
1
1
1
1
1
1
1
1
1
1
1
1
1
1
1
1
1
1
1
1
1
1
1
1
1
1
1
1
1
1
1
1
1
1
1
1
1
1
1
1
1
1
1
1
1
1
1
1
1
1
1
1
1
1
1
1
1
1
1
1
1
1
1
1
1
1
1
1
1
1
1
1
1
1
1
1
1
1
1
1
1
1
1
1
1
1
1
1
1
1
1
1
1
1
1
1
1
1
1
1
1
1
1
1
1
1
1
1
1
1
1
1
1
1
1
1
1
1
1
1
1
1
1
1
1
1
1
1
1
1
1
1
1
1
1
1
1
1
1
1
1
1
1
1
1
1
1
1
1
1
1
1
1
1
1
1
1
1
1
1
1
1
1
1
1
1
1
1
1
1
1
1
1
1
1
1
1
1
1
1
1
1
1
1
1
1
1
1
1
1
1
1
1
1
1
1
1
1
1
1
1
1
1
1
1
1
1
1
1
1
1
1
1
1
1
1
1
1
1
1
1
1
1
1
1
1
1
1
1
1
1
1
1
1
1
1
1
1
1
1
1
1
1
1
1
1
1
1
1
1
1
1
1
1
1
1
1
1
1
1
1
1
1
1
1
1
1
1
1
1
1
1
1
1
1
1
1
1
1
1
1
1
1
1
1
1
1
1
1
1
1
1
1
1
1
1
1
1
1
1
1
1
1
1
1
1
1
1
1
1
1
1
1
1
1
1
1
1
1
1
1
1
1
1
1
1
1
1
1
1
1
1
1
1
1
1
1
1
1
1
1
1
1
1
1
1
1
1
1
1
1
1
1
1
1
1
1
1
1
1
1
1
1
1
1
1
1
1
1
1
1
1
1
1
1
1
1
1
1
1
1
1
1
1
1
1
1
1
1
1
1
1
1
1
1
1
1
1
1
1
1
1
1
1
1
1
1
1
1
1
1
1
1
1
1
1
1
1
1
1
1
1
1
1
1
1
1
1
1
1
1
1
1
1
1
1
1
1
1
1
1
1
1
1
1
1
1
1
1
1
1
1
1
1
1
1
1
1
1
1
1
1
1
1
1
1
1
1
1
1
1
1
1
1
1
1
1
1
1
1
1
1
1
1
1
1
1
1
1
1
1
1
1
1
1
1
1
1
1
1
1
1
1
1
1
1
1
1
1
1
1
1
1
1
1
1
1
1
1
1
1
1
1
1
1
1
1
1
1
1
1
1
1
1
1
1
1
1
1
1
1
1
1
1
1
1
1
1
1
1
1
1
1
1
1
1
1
1
1
1
1
1
1
1
1
1
1
1
1
1
1
1
1
1
1
1
1
1
1
1
1
1
1
1
1
1
1
1
1
1
1
1
1
1
1
1
1
1
1
1
1
1
1
1
1
1
1
1
1
1
1
1
1
1
1
1
1
1
1
1
1
1
1
1
1
1
1
1
1
1
1
1
1
1
1
1
1
1
1
1
1
1
1
1
1
1
1
1
1
1
1
1
1
1
1
1
1
1
1
1
1
1
1
1
1
1
1
1
1
1
1
1
1
1
1
1
1
1
1
1
1
1
1
1
1
1
1
1
1
1
1
1
1
1
1
1
1
1
1
1
1
1
1
1
1
1
1
1
1
1
1
1
1
1
1
1
1
1
1
1
1
1
1
1
1
1
1
1
1
1
1
1
1
1
1
1
1
1
1
1
1
1
1
1
1
1
1
1
1
1
1
1
1
1
1
1
1
1
1
1
1
1
1
1
1
1
1
1
1
1
1
1
1
1
1
1
1
1
1
1
1
1
1
1
1
1
1
1
1
1
1
1
1
1
1
1
1
1
1
1
1
1
1
1
1
1
1
1
1
1
1
1
1
1
1
1
1
1
1
1
1
1
1
1
1
1
1
1
1
1
1
1
1
1
1
1
1
1
1
1
1
1
1
1
1
1
1
1
1
1
1
1
1
1
1
1
1
1
1
1
1
1
1
1
1
1
1
1
1
1
1
1
1
1
1
1
1
1
1
1
1
1
1
1
1
1
1
1
1
1
1
1
1
1
1
1
1
1
1
1
1
1
1
1
1
1
1
1
1
1
1
1
1
1
1
1
1
1
1
1
1
1
1
1
1
1
1
1
1
1
1
1
1
1
1
1
1
1
1
1
1
1
1
1
1
1
1
1
1
1
1
1
1
1
1
1
1
1
1
1
1
1
1
1
1
1
1
1
1
1
1
1
1
1
1
1
1
1
1
1
1
1
1
1
1
1
1
1
1
1
1
1
1
1
1
1
1
1
1
1
1
1
1
1
1
1
1
1
1
1
1
1
1
1
1
1
1
1
1
1
1
1
1
1
1
1
1
1
1
1
1
1
1
1
1
1
1
1
1
1
1
1
1
1
1
1
1
1
1
1
1
1
1
1
1
1
1
1
1
1
1
1
1
1
1
1
1
1
1
1
1
1
1
1
1
1
1
1
1
1
1
1
1
1
1
1
1
1
1
1
1
1
1
1
1
1
1
1
1
1
1
1
1
1
1
1
1
1
1
1
1
1
1
1
1
1
1
1
1
1
1
1
1
1
1
1
1
1
1
1
1
1
1
1
1
1
1
1
1
1
1
1
1
1
1
1
1
1
1
1
1
1
1
1
1
1
1
1
1
1
1
1
1
1
1
1
1
1
1
1
1
1
1
1
1
1
1
1
1
1
1
1
1
1
1
1
1
1
1
1
1
1
1
1
1
1
1
1
1
1
1
1
1
1
1
1
1
1
1
1
1
1
1
1
1
1
1
1
1
1
1
1
1
1
1
1
1
1
1
1
1
1
1
1
1
1
1
1
1
1
1
1
1
1
1
1
1
1
1
1
1
1
1
1
1
1
1
1
1
1
1
1
1
1
1
1
1
1
1
1
1
1
1
1
1
1
1
1
1
1
1
1
1
1
1
1
1
1
1
1
1
1
1
1
1
1
1
1
1
1
1
1
1
1
1
1
1
1
1
1
1
1
1
1
1
1
1
1
1
1
1
1
1
1
1
1
1
1
1
1
1
1
1
1
1
1
1
1
1
1
1
1
1
1
1
1
1
1
1
1
1
1
1
1
1
1
1
1
1
1
1
1
1
1
1
1
1
1
1
1
1
1
1
1
1
1
1
1
1
1
1
1
1
1
1
1
1
1
1
1
1
1
1
1
1
1
1
1
1
1
1
1
1
1
1
1
1
1
1
1
1
1
1
1
1
1
1
1
1
1
1
1
1
1
1
1
1
1
1
1
1
1
1
1
1
1
1
1
1
1
1
1
1
1
1
1
1
1
1
1
1
1
1
1
1
1
1
1
1
1
1
1
1
1
1
1
1
1
1
1
1
1
1
1
1
1
1
1
1
1
1
1
1
1
1
1
1
1
1
1
1
1
1
1
1
1
1
1
1
1
1
1
1
1
1
1
1
1
1
1
1
1
1
1
1
1
1
1
1.16306
0.170917
0.0359087
0.0481632
0.0495127
0.0624852
0.0842997
0.118447
0.165676
0.229309
0.309833
0.404273
0.475671
0.542537
0.617443
0.695687
0.759106
0.835563
0.914771
0.938599
0.954859
0.959669
0.975265
0.993871
0.993302
1.01231
1.05156
1.09152
1.11816
1.13994
1.16248
1.17754
1.17992
1.18661
1.20093
1.22162
1.23891
1.24756
1.24702
1.24329
1.24513
1.2498
1.25713
1.27247
1.29179
1.29978
1.30353
1.30631
1.3095
1.31359
1.31693
1.3211
1.3275
1.33084
1.33052
1.3257
1.3206
1.3184
1.3192
1.32325
1.32965
1.33672
1.34271
1.34666
1.34788
1.34729
1.34421
1.33836
1.33189
1.32547
1.32189
1.33496
2.64967
6.4356
7.11627
6.96795
6.85227
6.73726
6.67765
6.62916
6.56428
6.48009
6.39719
6.32531
6.25753
6.19268
6.12423
6.04447
5.95567
5.8641
5.78043
5.70561
5.63604
5.569
5.50461
5.44372
5.38677
5.33029
5.27225
5.21352
5.15512
5.09813
5.04536
5.001
4.96669
4.93236
4.88667
4.83676
4.7837
4.72728
4.6747
4.6279
4.58561
4.55206
4.51853
4.48264
4.44956
4.41652
4.37905
4.33379
4.28167
4.22941
4.18492
4.14739
4.11185
4.07549
4.03588
3.99089
3.94349
3.90218
3.8682
3.83666
3.80858
3.78628
3.76204
3.73102
3.69722
3.65649
3.60685
3.55671
3.51448
3.47998
3.45117
3.42636
3.40376
3.38249
3.36142
3.33878
3.30935
3.27084
3.22792
3.18823
3.15885
3.13818
3.11987
3.1013
3.08163
3.05885
3.02916
2.99276
2.95698
2.92815
2.90481
2.88371
2.86257
2.839
2.81013
2.77507
2.73967
2.71161
2.69034
2.67234
2.6558
2.63988
2.6241
2.60802
2.59068
2.57006
2.54397
2.51392
2.48531
2.46081
2.43961
2.41993
2.40097
2.3817
2.36207
2.34356
2.32625
2.30958
2.29669
2.26907
2.00472
0.744964
0.371747
0.324258
0.243246
0.18421
0.184061
0.194614
0.207465
0.214739
0.22716
0.260527
0.312396
0.355054
0.407838
0.478706
0.55034
0.632187
0.723943
0.773308
0.819808
0.861447
0.894293
0.924444
0.962949
0.998642
1.03987
1.08419