/*--------------------------------*- C++ -*----------------------------------*\
  =========                 |
  \\      /  F ield         | OpenFOAM: The Open Source CFD Toolbox
   \\    /   O peration     | Website:  https://openfoam.org
    \\  /    A nd           | Version:  7
     \\/     M anipulation  |
\*---------------------------------------------------------------------------*/
FoamFile
{
    version     2.0;
    format      ascii;
    class       volVectorField;
    location    "2.6";
    object      U;
}
// * * * * * * * * * * * * * * * * * * * * * * * * * * * * * * * * * * * * * //

dimensions      [0 1 -1 0 0 0 0];

internalField   nonuniform List<vector> 
19968
(
(3 -1.18276e-16 0)
(3 -2.87714e-16 0)
(3 -1.76201e-16 0)
(3 -4.49953e-16 0)
(3 -5.28364e-16 0)
(3 -2.69011e-16 0)
(3 7.2429e-17 0)
(3 2.41807e-16 0)
(3 3.91305e-16 0)
(3 7.04161e-16 0)
(3 9.98563e-16 0)
(3 1.00122e-15 0)
(3 7.93802e-16 0)
(3 2.65964e-16 0)
(3 -2.16875e-17 0)
(3 3.03993e-16 0)
(3 3.61741e-16 0)
(3 -4.73247e-16 0)
(3 -5.40652e-16 0)
(3 -4.25982e-16 0)
(3 6.34331e-16 0)
(3 1.20276e-15 0)
(3 1.2678e-15 0)
(3 3.70921e-16 0)
(3 6.81031e-17 0)
(3 -6.82019e-16 0)
(3 -8.60449e-16 0)
(3 -9.55581e-16 0)
(3 -5.35072e-16 0)
(3 2.14767e-16 0)
(3 5.05628e-16 0)
(3 4.44394e-16 0)
(3 2.44958e-16 0)
(3 -1.8945e-16 0)
(3 -5.78492e-16 0)
(3 -8.21775e-16 0)
(3 -9.86693e-16 0)
(3 -8.23139e-16 0)
(3 -7.74855e-16 0)
(3 -1.10419e-15 0)
(3 -1.45889e-15 0)
(3 -1.8058e-15 0)
(3 -1.5144e-15 0)
(3 -9.76438e-16 0)
(3 -9.02957e-16 0)
(3 -8.11798e-16 0)
(3 -5.18321e-16 0)
(3 -3.0229e-16 0)
(3 -5.82635e-16 0)
(1.60499 0.0051042 0)
(0.792433 0.0043429 0)
(0.745423 0.0103555 0)
(0.729389 0.00822995 0)
(0.715262 0.00728852 0)
(0.702672 0.00738297 0)
(0.689329 0.00800232 0)
(0.674779 0.00896294 0)
(0.658888 0.0101357 0)
(0.641863 0.0113278 0)
(0.62396 0.011977 0)
(0.606353 0.0115013 0)
(0.590395 0.00983438 0)
(0.576645 0.00834039 0)
(0.563794 0.00814496 0)
(0.5502 0.0089095 0)
(0.534808 0.0102153 0)
(0.517451 0.0114312 0)
(0.499311 0.0115653 0)
(0.482219 0.0104668 0)
(0.466873 0.00951991 0)
(0.452203 0.00958494 0)
(0.43684 0.0102409 0)
(0.420026 0.0108471 0)
(0.402312 0.0109767 0)
(0.384853 0.0107149 0)
(0.368377 0.0105312 0)
(0.352854 0.0105805 0)
(0.33788 0.010728 0)
(0.322892 0.0109308 0)
(0.307335 0.0111373 0)
(0.290984 0.0112532 0)
(0.27402 0.011321 0)
(0.256752 0.011455 0)
(0.239313 0.0117205 0)
(0.22163 0.0120315 0)
(0.203609 0.0122389 0)
(0.185304 0.0123174 0)
(0.166912 0.0123343 0)
(0.148448 0.0124112 0)
(0.129996 0.0126121 0)
(0.111542 0.0129913 0)
(0.0929411 0.0134397 0)
(0.0736632 0.013861 0)
(0.0537682 0.0142174 0)
(0.0329166 0.0143552 0)
(0.0112544 0.0144889 0)
(3 -7.91034e-18 0)
(3 1.77983e-16 0)
(3 3.67332e-16 0)
(3 1.72641e-16 0)
(3 1.32819e-16 0)
(3 6.2392e-16 0)
(3 8.01022e-16 0)
(3 1.07025e-15 0)
(3 1.36262e-15 0)
(3 1.7676e-15 0)
(3 2.1412e-15 0)
(3 2.25003e-15 0)
(3 1.54122e-15 0)
(3 1.03424e-15 0)
(3 6.88724e-16 0)
(3 9.20899e-16 0)
(3 1.11383e-15 0)
(3 -2.59599e-17 0)
(3 -1.56472e-16 0)
(3 -1.22242e-16 0)
(3 3.03816e-16 0)
(3 2.81738e-16 0)
(3 -1.59425e-17 0)
(3 -1.68594e-16 0)
(3 -2.96479e-16 0)
(3 -1.19705e-15 0)
(3 -1.63033e-15 0)
(3 -1.36595e-15 0)
(3 -7.47042e-17 0)
(3 4.45537e-16 0)
(3 1.15485e-15 0)
(3 1.6357e-15 0)
(3 1.93347e-16 0)
(3 -5.36618e-16 0)
(3 -8.24168e-16 0)
(3 -1.44391e-15 0)
(3 -1.66564e-15 0)
(3 -1.76451e-15 0)
(3 -2.778e-15 0)
(3 -3.52189e-15 0)
(3 -3.22399e-15 0)
(3 -3.03493e-15 0)
(3 -2.77508e-15 0)
(3 -1.74586e-15 0)
(3 -1.46178e-15 0)
(3 -7.51209e-16 0)
(3 -2.50882e-16 0)
(3 7.49419e-16 0)
(3 9.92299e-16 0)
(1.62511 0.0265616 0)
(0.79252 0.0216711 0)
(0.742059 0.0336135 0)
(0.725339 0.0274648 0)
(0.709759 0.0228017 0)
(0.696103 0.0205349 0)
(0.682575 0.0213672 0)
(0.668408 0.0242314 0)
(0.653247 0.0282192 0)
(0.637176 0.0323463 0)
(0.620171 0.0348753 0)
(0.603108 0.0342915 0)
(0.587129 0.0305462 0)
(0.572564 0.0263449 0)
(0.558497 0.0248754 0)
(0.544215 0.0265194 0)
(0.528805 0.0300281 0)
(0.512001 0.0333961 0)
(0.494621 0.0340449 0)
(0.478139 0.031554 0)
(0.462774 0.0291707 0)
(0.447752 0.0292474 0)
(0.43223 0.0309979 0)
(0.415469 0.0326548 0)
(0.397937 0.033056 0)
(0.380622 0.0324479 0)
(0.364094 0.0320303 0)
(0.34837 0.0321884 0)
(0.333154 0.0325548 0)
(0.317986 0.0330511 0)
(0.302372 0.0335734 0)
(0.286089 0.0338807 0)
(0.269269 0.0341244 0)
(0.252157 0.0346131 0)
(0.234873 0.0354881 0)
(0.217367 0.0364771 0)
(0.199577 0.0371438 0)
(0.181616 0.0374404 0)
(0.16364 0.0375548 0)
(0.145638 0.0378356 0)
(0.127666 0.0384608 0)
(0.109701 0.039608 0)
(0.0915691 0.0410088 0)
(0.07271 0.0423662 0)
(0.0531937 0.0435677 0)
(0.0326299 0.0441169 0)
(0.0112096 0.0446974 0)
(3 1.5849e-16 0)
(3 9.5466e-16 0)
(3 1.36204e-15 0)
(3 1.19603e-15 0)
(3 8.72788e-16 0)
(3 5.89219e-16 0)
(3 1.56367e-16 0)
(3 4.31913e-16 0)
(3 1.06011e-15 0)
(3 1.22034e-15 0)
(3 1.93619e-15 0)
(3 2.18962e-15 0)
(3 1.86712e-15 0)
(3 1.93396e-15 0)
(3 1.65985e-15 0)
(3 6.16226e-16 0)
(3 2.86853e-16 0)
(3 2.8849e-16 0)
(3 2.95981e-16 0)
(3 1.80222e-16 0)
(3 -4.3483e-16 0)
(3 -1.24749e-15 0)
(3 -1.64044e-15 0)
(3 -1.53372e-15 0)
(3 -1.4123e-15 0)
(3 -1.71358e-15 0)
(3 -2.01197e-15 0)
(3 -1.95817e-15 0)
(3 -1.53232e-15 0)
(3 -1.35732e-15 0)
(3 -4.64551e-16 0)
(3 4.15111e-16 0)
(3 -1.2193e-16 0)
(3 -5.25946e-16 0)
(3 -4.88071e-16 0)
(3 -1.62204e-16 0)
(3 -4.09745e-16 0)
(3 -1.88088e-15 0)
(3 -1.92775e-15 0)
(3 -1.86854e-15 0)
(3 -1.84286e-15 0)
(3 -1.85957e-15 0)
(3 -1.48115e-15 0)
(3 -1.10567e-15 0)
(3 -5.1315e-16 0)
(3 -1.94365e-16 0)
(3 -6.53918e-16 0)
(3 -7.02605e-16 0)
(3 3.32441e-16 0)
(1.68107 0.0487178 0)
(0.799213 0.0406215 0)
(0.746078 0.0557916 0)
(0.729716 0.0487322 0)
(0.712231 0.0425389 0)
(0.695995 0.038181 0)
(0.680391 0.037947 0)
(0.665224 0.041126 0)
(0.650076 0.0466225 0)
(0.634807 0.0528996 0)
(0.618891 0.0571322 0)
(0.602548 0.0569841 0)
(0.586912 0.0524181 0)
(0.571823 0.0467055 0)
(0.556515 0.0442705 0)
(0.541188 0.0463231 0)
(0.525484 0.0513031 0)
(0.508959 0.0560546 0)
(0.492048 0.0569637 0)
(0.476053 0.0535494 0)
(0.460679 0.0501962 0)
(0.4453 0.0503694 0)
(0.42962 0.0530825 0)
(0.412905 0.0556473 0)
(0.395538 0.056323 0)
(0.378359 0.0555373 0)
(0.361743 0.055066 0)
(0.345714 0.0554131 0)
(0.330059 0.0559857 0)
(0.31444 0.0567009 0)
(0.298467 0.0574482 0)
(0.281939 0.0578766 0)
(0.264942 0.0582394 0)
(0.247647 0.0589885 0)
(0.230147 0.0602882 0)
(0.212416 0.0616986 0)
(0.194452 0.0625809 0)
(0.176482 0.0629583 0)
(0.158664 0.0631438 0)
(0.140983 0.0636553 0)
(0.123474 0.064702 0)
(0.106076 0.0665662 0)
(0.0885234 0.0688698 0)
(0.0703164 0.0711764 0)
(0.0514542 0.0733251 0)
(0.0315475 0.0744334 0)
(0.0108757 0.0756757 0)
(3 7.50961e-18 0)
(3 -3.92822e-16 0)
(3 -1.35632e-16 0)
(3 5.7892e-16 0)
(3 9.09992e-16 0)
(3 8.62421e-16 0)
(3 4.91168e-16 0)
(3 5.35854e-16 0)
(3 3.46273e-16 0)
(3 6.92256e-16 0)
(3 8.15728e-16 0)
(3 1.02399e-15 0)
(3 1.16047e-15 0)
(3 1.50728e-15 0)
(3 1.56727e-15 0)
(3 1.00947e-15 0)
(3 1.35739e-16 0)
(3 -5.96626e-16 0)
(3 -5.3265e-16 0)
(3 -3.51925e-16 0)
(3 -7.1616e-16 0)
(3 -1.02019e-15 0)
(3 -1.37995e-15 0)
(3 -2.10406e-15 0)
(3 -2.26684e-15 0)
(3 -1.64979e-15 0)
(3 -1.32318e-15 0)
(3 -1.26599e-15 0)
(3 -1.58502e-15 0)
(3 -1.82455e-15 0)
(3 -1.35429e-15 0)
(3 -2.57526e-16 0)
(3 4.55591e-16 0)
(3 5.63513e-16 0)
(3 5.60239e-16 0)
(3 7.07705e-16 0)
(3 6.56511e-16 0)
(3 4.1776e-17 0)
(3 -4.14234e-16 0)
(3 -1.67396e-16 0)
(3 7.1768e-17 0)
(3 4.64642e-16 0)
(3 7.34843e-16 0)
(3 8.7156e-16 0)
(3 3.71031e-16 0)
(3 -2.94891e-16 0)
(3 -4.54451e-16 0)
(3 5.14838e-16 0)
(3 5.78379e-17 0)
(1.77669 0.0693228 0)
(0.808438 0.059562 0)
(0.750622 0.0769629 0)
(0.733949 0.0716383 0)
(0.715492 0.0657067 0)
(0.698107 0.0596577 0)
(0.681196 0.057207 0)
(0.665301 0.0593729 0)
(0.650239 0.0651097 0)
(0.635776 0.0725076 0)
(0.620947 0.077993 0)
(0.605367 0.0787282 0)
(0.589958 0.0746123 0)
(0.574627 0.0685518 0)
(0.558651 0.0656225 0)
(0.542694 0.0678571 0)
(0.527022 0.0737138 0)
(0.510989 0.0792473 0)
(0.494569 0.0803537 0)
(0.478865 0.0765194 0)
(0.463295 0.0726149 0)
(0.447418 0.072913 0)
(0.431466 0.0764222 0)
(0.414751 0.0797631 0)
(0.397524 0.080774 0)
(0.380442 0.0800417 0)
(0.363699 0.0797472 0)
(0.347316 0.080436 0)
(0.331152 0.0813081 0)
(0.315006 0.0822826 0)
(0.298596 0.0832774 0)
(0.281723 0.0838718 0)
(0.264399 0.0844197 0)
(0.246694 0.0854643 0)
(0.228671 0.087131 0)
(0.210341 0.0888146 0)
(0.19181 0.0897277 0)
(0.173422 0.0900267 0)
(0.155333 0.0901522 0)
(0.137556 0.0907598 0)
(0.120105 0.0920371 0)
(0.102899 0.0943542 0)
(0.0855661 0.0973241 0)
(0.0678022 0.100413 0)
(0.0494927 0.103455 0)
(0.0302347 0.105138 0)
(0.0104476 0.107138 0)
(3 -3.16578e-16 0)
(3 -6.71789e-16 0)
(3 -9.38135e-16 0)
(3 -3.14856e-16 0)
(3 -2.26055e-17 0)
(3 8.91991e-16 0)
(3 1.31536e-15 0)
(3 6.74996e-16 0)
(3 4.37438e-16 0)
(3 -6.73074e-17 0)
(3 -9.55655e-16 0)
(3 -1.15325e-15 0)
(3 -7.13338e-16 0)
(3 1.83532e-16 0)
(3 2.61791e-16 0)
(3 2.00473e-16 0)
(3 3.9004e-17 0)
(3 1.43521e-16 0)
(3 -9.50018e-16 0)
(3 -1.19247e-15 0)
(3 -1.16505e-15 0)
(3 -9.2107e-16 0)
(3 -8.84174e-16 0)
(3 -9.78439e-16 0)
(3 -1.26795e-15 0)
(3 -1.07278e-15 0)
(3 -6.86038e-16 0)
(3 -3.71912e-16 0)
(3 -3.31147e-16 0)
(3 -6.22816e-17 0)
(3 5.29726e-16 0)
(3 7.38049e-16 0)
(3 8.78784e-16 0)
(3 9.65136e-16 0)
(3 1.03325e-15 0)
(3 1.21748e-15 0)
(3 1.3656e-15 0)
(3 1.06293e-15 0)
(3 5.50332e-16 0)
(3 6.47942e-16 0)
(3 1.12231e-15 0)
(3 1.7089e-15 0)
(3 1.55546e-15 0)
(3 8.53768e-16 0)
(3 3.19351e-16 0)
(3 1.13001e-16 0)
(3 3.10117e-16 0)
(3 5.52011e-16 0)
(3 5.65001e-16 0)
(1.91744 0.0878874 0)
(0.820575 0.0797815 0)
(0.753139 0.0987385 0)
(0.73623 0.0952858 0)
(0.717803 0.0907933 0)
(0.700544 0.0835444 0)
(0.683327 0.0788847 0)
(0.666874 0.0791358 0)
(0.65164 0.0841199 0)
(0.637547 0.0917786 0)
(0.623373 0.098155 0)
(0.608393 0.0999409 0)
(0.593137 0.0967762 0)
(0.577855 0.0911641 0)
(0.5619 0.0880204 0)
(0.546063 0.0901917 0)
(0.531085 0.0963631 0)
(0.516042 0.102267 0)
(0.500401 0.103734 0)
(0.48502 0.100093 0)
(0.469345 0.0960155 0)
(0.453086 0.0964339 0)
(0.436897 0.100584 0)
(0.420191 0.104626 0)
(0.403104 0.106117 0)
(0.386129 0.105705 0)
(0.369335 0.105789 0)
(0.352726 0.106932 0)
(0.33619 0.108178 0)
(0.319646 0.109454 0)
(0.302905 0.110742 0)
(0.285746 0.111592 0)
(0.268085 0.112452 0)
(0.249903 0.113911 0)
(0.23125 0.116001 0)
(0.212191 0.117956 0)
(0.192956 0.118869 0)
(0.173965 0.119068 0)
(0.155375 0.119114 0)
(0.137199 0.119765 0)
(0.119429 0.121143 0)
(0.101976 0.12364 0)
(0.0844006 0.126988 0)
(0.0666062 0.130577 0)
(0.04843 0.134327 0)
(0.0294119 0.136477 0)
(0.0101825 0.139205 0)
(3 6.86342e-17 0)
(3 6.44345e-16 0)
(3 3.80024e-16 0)
(3 -2.69602e-16 0)
(3 -5.56343e-16 0)
(3 -6.53683e-16 0)
(3 -5.32249e-16 0)
(3 -4.92908e-16 0)
(3 -1.09163e-16 0)
(3 -1.39697e-15 0)
(3 -1.85974e-15 0)
(3 -1.58437e-15 0)
(3 -8.80531e-16 0)
(3 -7.2698e-16 0)
(3 -6.64904e-16 0)
(3 -7.09919e-16 0)
(3 -3.19408e-16 0)
(3 -3.36136e-16 0)
(3 -4.81501e-18 0)
(3 -4.49928e-16 0)
(3 -1.17294e-15 0)
(3 -1.1669e-15 0)
(3 -1.15389e-15 0)
(3 -7.75151e-16 0)
(3 -5.4692e-16 0)
(3 -4.91271e-16 0)
(3 -3.80161e-16 0)
(3 -1.05549e-15 0)
(3 -6.14888e-18 0)
(3 7.64841e-16 0)
(3 1.5118e-15 0)
(3 1.5037e-15 0)
(3 1.09253e-15 0)
(3 3.818e-16 0)
(3 -4.90004e-17 0)
(3 -1.8123e-17 0)
(3 -2.13741e-16 0)
(3 -9.45338e-16 0)
(3 -1.10768e-15 0)
(3 -6.7743e-16 0)
(3 -4.04041e-16 0)
(3 1.05469e-16 0)
(3 4.63593e-16 0)
(3 4.59788e-16 0)
(3 4.01717e-16 0)
(3 1.20761e-15 0)
(3 1.07653e-15 0)
(3 1.10788e-17 0)
(3 -7.71381e-16 0)
(2.11344 0.103482 0)
(0.841565 0.103066 0)
(0.754235 0.121067 0)
(0.737864 0.118215 0)
(0.720322 0.115503 0)
(0.703538 0.108484 0)
(0.686495 0.102088 0)
(0.669676 0.100746 0)
(0.653954 0.104668 0)
(0.639608 0.112031 0)
(0.625521 0.118843 0)
(0.610809 0.121495 0)
(0.595689 0.119354 0)
(0.580433 0.114291 0)
(0.564515 0.111137 0)
(0.548744 0.113107 0)
(0.534131 0.11932 0)
(0.519687 0.125695 0)
(0.504402 0.128106 0)
(0.488861 0.12538 0)
(0.472806 0.121475 0)
(0.45601 0.121873 0)
(0.439394 0.126346 0)
(0.42254 0.130886 0)
(0.405552 0.132926 0)
(0.388809 0.133017 0)
(0.372339 0.133552 0)
(0.356093 0.135118 0)
(0.339872 0.13669 0)
(0.323578 0.138239 0)
(0.307016 0.139867 0)
(0.289899 0.141116 0)
(0.272076 0.142486 0)
(0.253521 0.144542 0)
(0.234349 0.147171 0)
(0.214728 0.149436 0)
(0.194992 0.150322 0)
(0.175589 0.15036 0)
(0.156677 0.150265 0)
(0.138223 0.150894 0)
(0.120183 0.152306 0)
(0.102448 0.154823 0)
(0.084608 0.158395 0)
(0.0665995 0.162295 0)
(0.0483041 0.166632 0)
(0.0291835 0.169156 0)
(0.0101459 0.172569 0)
(3 1.10216e-16 0)
(3 7.65155e-17 0)
(3 -2.96944e-17 0)
(3 -2.76248e-16 0)
(3 -1.00916e-15 0)
(3 -7.94185e-16 0)
(3 -7.89665e-16 0)
(3 -1.08101e-15 0)
(3 -1.13884e-15 0)
(3 -1.35236e-15 0)
(3 -1.00594e-15 0)
(3 -4.00805e-16 0)
(3 -8.84777e-17 0)
(3 -5.97446e-16 0)
(3 -1.69796e-15 0)
(3 -1.98669e-15 0)
(3 -1.4521e-15 0)
(3 2.34844e-16 0)
(3 1.3812e-15 0)
(3 1.67857e-15 0)
(3 9.01992e-16 0)
(3 4.06034e-16 0)
(3 -5.21645e-16 0)
(3 -6.40239e-16 0)
(3 -3.44308e-16 0)
(3 5.82063e-18 0)
(3 9.07925e-17 0)
(3 2.25521e-16 0)
(3 7.69158e-16 0)
(3 9.2722e-16 0)
(3 9.39798e-16 0)
(3 4.18775e-16 0)
(3 -6.43489e-17 0)
(3 -2.6886e-16 0)
(3 -6.54334e-16 0)
(3 -1.08688e-15 0)
(3 -8.25064e-16 0)
(3 -4.52675e-16 0)
(3 -7.28064e-16 0)
(3 -9.06548e-16 0)
(3 -1.2427e-15 0)
(3 -4.87995e-16 0)
(3 1.48758e-16 0)
(3 4.35819e-16 0)
(3 9.75121e-16 0)
(3 1.0916e-15 0)
(3 1.40742e-15 0)
(3 3.37478e-16 0)
(3 -1.79462e-15 0)
(2.36991 0.114119 0)
(0.877497 0.132552 0)
(0.755905 0.144517 0)
(0.740651 0.141508 0)
(0.724232 0.140095 0)
(0.708499 0.134014 0)
(0.692227 0.127042 0)
(0.675519 0.124006 0)
(0.659532 0.126856 0)
(0.645004 0.133757 0)
(0.630994 0.140666 0)
(0.616596 0.144084 0)
(0.601685 0.143032 0)
(0.586369 0.138825 0)
(0.57031 0.135666 0)
(0.554237 0.13722 0)
(0.539374 0.1432 0)
(0.525042 0.150117 0)
(0.50987 0.153892 0)
(0.494093 0.152579 0)
(0.47783 0.149071 0)
(0.460802 0.14922 0)
(0.443991 0.153558 0)
(0.427097 0.158171 0)
(0.4102 0.160572 0)
(0.393569 0.161191 0)
(0.37723 0.162232 0)
(0.361112 0.164308 0)
(0.344904 0.166369 0)
(0.328448 0.168388 0)
(0.311547 0.170596 0)
(0.293894 0.172532 0)
(0.275383 0.174679 0)
(0.25612 0.177524 0)
(0.236383 0.180758 0)
(0.216457 0.183274 0)
(0.196697 0.183978 0)
(0.17746 0.183673 0)
(0.158777 0.183302 0)
(0.140503 0.183843 0)
(0.122507 0.185333 0)
(0.104584 0.187924 0)
(0.0865599 0.191806 0)
(0.0681421 0.196065 0)
(0.0494444 0.201063 0)
(0.0298105 0.204027 0)
(0.0104271 0.208167 0)
(3 -1.64115e-16 0)
(3 -9.89422e-17 0)
(3 -1.37154e-16 0)
(3 -2.19764e-16 0)
(3 -3.0097e-16 0)
(3 -3.05654e-16 0)
(3 -7.92328e-16 0)
(3 -9.87473e-16 0)
(3 -1.13813e-15 0)
(3 -1.121e-15 0)
(3 -8.11769e-16 0)
(3 -4.91099e-16 0)
(3 -2.83392e-16 0)
(3 -3.63545e-16 0)
(3 -7.54155e-16 0)
(3 -4.6259e-16 0)
(3 -2.21969e-16 0)
(3 1.14238e-16 0)
(3 3.12674e-16 0)
(3 1.25111e-15 0)
(3 1.65785e-15 0)
(3 2.07669e-15 0)
(3 9.73907e-16 0)
(3 5.56626e-16 0)
(3 5.59541e-16 0)
(3 2.25563e-16 0)
(3 1.42018e-16 0)
(3 2.70425e-16 0)
(3 5.96067e-16 0)
(3 1.0979e-15 0)
(3 7.6646e-16 0)
(3 2.21835e-16 0)
(3 3.26621e-16 0)
(3 4.42835e-16 0)
(3 2.53613e-16 0)
(3 1.04739e-16 0)
(3 -1.34146e-16 0)
(3 2.95638e-16 0)
(3 3.35869e-16 0)
(3 1.76901e-17 0)
(3 1.12109e-16 0)
(3 4.18373e-16 0)
(3 1.617e-15 0)
(3 1.66366e-15 0)
(3 1.28782e-15 0)
(3 1.1523e-15 0)
(3 5.04626e-16 0)
(3 -2.85667e-16 0)
(3 -3.19103e-15 0)
(2.67223 0.103028 0)
(0.944102 0.157772 0)
(0.766682 0.164284 0)
(0.752181 0.162979 0)
(0.73708 0.162963 0)
(0.722302 0.15852 0)
(0.706781 0.152214 0)
(0.690287 0.148534 0)
(0.673947 0.150175 0)
(0.658844 0.156105 0)
(0.644424 0.162956 0)
(0.629819 0.167245 0)
(0.614724 0.16773 0)
(0.599089 0.164851 0)
(0.582659 0.161975 0)
(0.565966 0.163092 0)
(0.550393 0.16869 0)
(0.535838 0.176071 0)
(0.520787 0.181298 0)
(0.504933 0.181663 0)
(0.488713 0.178733 0)
(0.471787 0.178462 0)
(0.455014 0.182345 0)
(0.43811 0.186855 0)
(0.421043 0.189702 0)
(0.404047 0.191168 0)
(0.387249 0.193053 0)
(0.370657 0.195953 0)
(0.353915 0.198802 0)
(0.33682 0.201504 0)
(0.319212 0.204433 0)
(0.300815 0.207139 0)
(0.281611 0.210046 0)
(0.261844 0.213548 0)
(0.241918 0.21712 0)
(0.222149 0.219523 0)
(0.202808 0.219679 0)
(0.184007 0.218776 0)
(0.165536 0.218069 0)
(0.147134 0.218666 0)
(0.128649 0.220558 0)
(0.109845 0.223577 0)
(0.0909345 0.228081 0)
(0.0714586 0.232862 0)
(0.051781 0.238646 0)
(0.031109 0.242141 0)
(0.010907 0.247013 0)
(3 1.63439e-16 0)
(3 3.14443e-16 0)
(3 4.37434e-16 0)
(3 3.65054e-16 0)
(3 1.12254e-16 0)
(3 -2.80129e-16 0)
(3 -4.36175e-16 0)
(3 -4.12728e-16 0)
(3 -1.47221e-16 0)
(3 2.55197e-17 0)
(3 -7.21997e-17 0)
(3 -9.42594e-16 0)
(3 -1.02681e-15 0)
(3 -6.42062e-16 0)
(3 -3.25131e-16 0)
(3 1.4393e-16 0)
(3 -4.00604e-16 0)
(3 -5.96526e-16 0)
(3 -6.94241e-16 0)
(3 -7.67016e-16 0)
(3 -7.20012e-16 0)
(3 -7.94394e-16 0)
(3 -7.82695e-16 0)
(3 -3.89205e-16 0)
(3 -5.49605e-16 0)
(3 -6.09219e-16 0)
(3 -4.62429e-16 0)
(3 -1.0441e-15 0)
(3 -1.23658e-15 0)
(3 -1.40203e-15 0)
(3 -1.39018e-15 0)
(3 -1.6105e-15 0)
(3 -1.20414e-15 0)
(3 -9.3543e-16 0)
(3 -5.83231e-16 0)
(3 -1.18616e-15 0)
(3 -1.30841e-15 0)
(3 -1.09625e-15 0)
(3 -9.20761e-16 0)
(3 -6.23183e-16 0)
(3 -7.1898e-17 0)
(3 5.76515e-16 0)
(3 8.27484e-16 0)
(3 1.10996e-15 0)
(3 1.53381e-15 0)
(3 9.08701e-16 0)
(3 9.25082e-17 0)
(3 -1.19866e-15 0)
(3 -1.81901e-15 0)
(2.90666 0.0608072 0)
(1.02918 0.190025 0)
(0.775647 0.17876 0)
(0.766623 0.180702 0)
(0.753303 0.183229 0)
(0.739972 0.180898 0)
(0.725506 0.176134 0)
(0.709689 0.172692 0)
(0.693248 0.173865 0)
(0.677491 0.179521 0)
(0.662331 0.186587 0)
(0.647268 0.191493 0)
(0.632152 0.193065 0)
(0.616662 0.19155 0)
(0.600456 0.189238 0)
(0.583787 0.189904 0)
(0.567937 0.194832 0)
(0.553374 0.20232 0)
(0.538784 0.208764 0)
(0.523284 0.210816 0)
(0.507483 0.208589 0)
(0.491008 0.207807 0)
(0.47451 0.211132 0)
(0.457768 0.215703 0)
(0.440556 0.219326 0)
(0.423143 0.222056 0)
(0.405809 0.225156 0)
(0.388691 0.229155 0)
(0.371457 0.233008 0)
(0.353885 0.236491 0)
(0.335867 0.240133 0)
(0.317157 0.243538 0)
(0.297741 0.247021 0)
(0.27787 0.250891 0)
(0.257916 0.254442 0)
(0.23815 0.256447 0)
(0.218728 0.256051 0)
(0.199524 0.25493 0)
(0.180185 0.254599 0)
(0.16047 0.256135 0)
(0.140301 0.259323 0)
(0.119536 0.263514 0)
(0.0986188 0.269064 0)
(0.0771559 0.274476 0)
(0.0557001 0.280973 0)
(0.0333468 0.284948 0)
(0.0116505 0.290372 0)
(3 5.45855e-17 0)
(3 -6.03627e-17 0)
(3 2.02851e-16 0)
(3 2.51893e-16 0)
(3 2.10792e-16 0)
(3 1.66357e-16 0)
(3 5.10349e-16 0)
(3 7.34783e-16 0)
(3 5.41284e-16 0)
(3 5.70585e-16 0)
(3 2.34745e-16 0)
(3 -4.98041e-16 0)
(3 -1.30244e-15 0)
(3 -9.88985e-16 0)
(3 -6.58914e-16 0)
(3 -6.23685e-16 0)
(3 -8.28317e-16 0)
(3 -8.43153e-16 0)
(3 -7.29049e-16 0)
(3 -7.75254e-16 0)
(3 -8.75316e-16 0)
(3 -1.01255e-15 0)
(3 -1.13776e-15 0)
(3 -1.0496e-15 0)
(3 -1.01606e-15 0)
(3 -6.437e-16 0)
(3 -7.05235e-16 0)
(3 -6.90019e-16 0)
(3 -1.18404e-15 0)
(3 -1.8449e-15 0)
(3 -2.37083e-15 0)
(3 -3.31458e-15 0)
(3 -3.45512e-15 0)
(3 -3.09294e-15 0)
(3 -2.01745e-15 0)
(3 -1.47023e-15 0)
(3 -1.25349e-15 0)
(3 -1.09843e-15 0)
(3 -3.56482e-16 0)
(3 7.75537e-17 0)
(3 -2.3013e-16 0)
(3 -4.01565e-16 0)
(3 -4.51519e-16 0)
(3 -1.90374e-16 0)
(3 5.19017e-16 0)
(3 1.01105e-15 0)
(3 5.80892e-16 0)
(3 5.56648e-16 0)
(3 9.81488e-16 0)
(3.00503 0.00318293 0)
(1.17436 0.216314 0)
(0.787112 0.183428 0)
(0.775191 0.200967 0)
(0.760671 0.207008 0)
(0.747008 0.20678 0)
(0.733134 0.20387 0)
(0.718165 0.201511 0)
(0.702397 0.202746 0)
(0.687238 0.207941 0)
(0.67291 0.214258 0)
(0.658997 0.218469 0)
(0.645277 0.220032 0)
(0.631196 0.219324 0)
(0.616264 0.217647 0)
(0.600588 0.218071 0)
(0.585279 0.222316 0)
(0.571181 0.229496 0)
(0.557463 0.236545 0)
(0.542821 0.239933 0)
(0.527638 0.238731 0)
(0.511658 0.23794 0)
(0.495425 0.241152 0)
(0.478891 0.246314 0)
(0.461635 0.251067 0)
(0.443932 0.255212 0)
(0.426136 0.259609 0)
(0.40851 0.264755 0)
(0.390814 0.269705 0)
(0.372861 0.274064 0)
(0.354648 0.278497 0)
(0.33593 0.282727 0)
(0.316553 0.286952 0)
(0.296576 0.291453 0)
(0.276156 0.295426 0)
(0.255493 0.297806 0)
(0.234687 0.297934 0)
(0.213642 0.297642 0)
(0.192148 0.298387 0)
(0.170181 0.301249 0)
(0.14762 0.305682 0)
(0.124873 0.310772 0)
(0.102113 0.31684 0)
(0.0792027 0.322159 0)
(0.0567512 0.328613 0)
(0.0338545 0.332584 0)
(0.0117102 0.338124 0)
(3 -1.80266e-16 0)
(3 -1.95702e-16 0)
(3 -2.50696e-16 0)
(3 -1.2919e-16 0)
(3 -3.58815e-16 0)
(3 -3.18846e-16 0)
(3 -2.20159e-16 0)
(3 -1.05321e-16 0)
(3 -3.43768e-16 0)
(3 -7.05174e-16 0)
(3 -1.12969e-15 0)
(3 -1.28517e-15 0)
(3 -6.5398e-16 0)
(3 -3.33141e-16 0)
(3 -1.22641e-16 0)
(3 3.83924e-17 0)
(3 -2.27571e-16 0)
(3 -5.11022e-16 0)
(3 -8.00437e-16 0)
(3 -8.13552e-16 0)
(3 -5.55318e-16 0)
(3 -6.99248e-16 0)
(3 -1.18e-15 0)
(3 -8.45138e-16 0)
(3 -2.04162e-16 0)
(3 6.60491e-16 0)
(3 1.17609e-15 0)
(3 4.65065e-16 0)
(3 1.42572e-16 0)
(3 -3.80804e-16 0)
(3 -5.94605e-16 0)
(3 -7.90303e-16 0)
(3 -9.30866e-16 0)
(3 -2.29248e-16 0)
(3 -2.27859e-16 0)
(3 -3.68553e-16 0)
(3 -1.4033e-16 0)
(3 -5.05816e-17 0)
(3 7.04696e-16 0)
(3 8.61259e-16 0)
(3 7.7026e-16 0)
(3 3.2454e-17 0)
(3 -1.06628e-17 0)
(3 -1.27859e-16 0)
(3 -5.05181e-16 0)
(3 -6.87719e-16 0)
(3 1.7898e-15 0)
(3 2.27705e-15 0)
(3 2.21026e-15 0)
(3.00004 5.24185e-06 0)
(1.49478 0.247717 0)
(0.802365 0.217841 0)
(0.76059 0.226176 0)
(0.745582 0.228905 0)
(0.732012 0.227991 0)
(0.719035 0.226678 0)
(0.705314 0.226139 0)
(0.691034 0.228167 0)
(0.677337 0.233321 0)
(0.664463 0.239339 0)
(0.651961 0.2435 0)
(0.639635 0.245654 0)
(0.626945 0.24631 0)
(0.613371 0.246172 0)
(0.598935 0.247472 0)
(0.584464 0.25186 0)
(0.570749 0.258949 0)
(0.55766 0.266538 0)
(0.543957 0.271269 0)
(0.529721 0.271477 0)
(0.514918 0.271119 0)
(0.499937 0.274422 0)
(0.48496 0.280243 0)
(0.469386 0.285939 0)
(0.453444 0.290957 0)
(0.437435 0.296005 0)
(0.421581 0.301688 0)
(0.405617 0.307327 0)
(0.389264 0.312389 0)
(0.372593 0.317592 0)
(0.355383 0.322835 0)
(0.337366 0.328147 0)
(0.318437 0.333742 0)
(0.298516 0.338746 0)
(0.277758 0.34229 0)
(0.256299 0.343792 0)
(0.234209 0.345027 0)
(0.211359 0.347342 0)
(0.187787 0.35188 0)
(0.163304 0.357896 0)
(0.138254 0.364144 0)
(0.112964 0.370878 0)
(0.0874253 0.376005 0)
(0.0624007 0.382057 0)
(0.037201 0.385642 0)
(0.0127596 0.391066 0)
(3 4.10935e-17 0)
(3 6.2375e-17 0)
(3 -6.26009e-17 0)
(3 -1.91158e-16 0)
(3 -3.77246e-16 0)
(3 -5.35044e-16 0)
(3 -9.74482e-16 0)
(3 -1.22265e-15 0)
(3 -1.02205e-15 0)
(3 -8.78812e-16 0)
(3 -1.73012e-16 0)
(3 4.55854e-16 0)
(3 9.62558e-16 0)
(3 8.69016e-16 0)
(3 9.08762e-16 0)
(3 7.90863e-16 0)
(3 -1.2606e-16 0)
(3 -7.7763e-16 0)
(3 -1.16743e-15 0)
(3 -1.41157e-15 0)
(3 -1.26716e-15 0)
(3 -1.08723e-15 0)
(3 -4.13042e-16 0)
(3 6.00014e-16 0)
(3 7.89576e-16 0)
(3 1.14889e-15 0)
(3 1.67535e-15 0)
(3 1.23615e-15 0)
(3 7.96006e-16 0)
(3 6.13832e-16 0)
(3 5.81749e-16 0)
(3 7.19727e-16 0)
(3 7.09764e-16 0)
(3 3.88042e-17 0)
(3 -3.63051e-16 0)
(3 -8.25699e-16 0)
(3 -9.60858e-16 0)
(3 -1.26315e-15 0)
(3 -9.97711e-16 0)
(3 -7.68314e-16 0)
(3 -5.1855e-16 0)
(3 -8.21342e-16 0)
(3 -9.81876e-16 0)
(3 -9.40973e-16 0)
(3 -1.54488e-15 0)
(3 -2.27462e-15 0)
(3 -1.74585e-15 0)
(3 -5.1912e-16 0)
(3 1.13687e-16 0)
(3 9.97162e-09 0)
(2.06932 0.26594 0)
(0.856487 0.273411 0)
(0.762862 0.267569 0)
(0.74997 0.258664 0)
(0.735619 0.256408 0)
(0.722725 0.255756 0)
(0.709309 0.256153 0)
(0.695409 0.258108 0)
(0.681779 0.262251 0)
(0.668804 0.267093 0)
(0.656194 0.270569 0)
(0.64383 0.272735 0)
(0.631317 0.274151 0)
(0.618167 0.275076 0)
(0.604293 0.277026 0)
(0.590286 0.281573 0)
(0.576789 0.288542 0)
(0.564044 0.296284 0)
(0.551083 0.301874 0)
(0.537565 0.303292 0)
(0.523559 0.303235 0)
(0.509241 0.30639 0)
(0.495013 0.312674 0)
(0.480141 0.319293 0)
(0.464746 0.325126 0)
(0.449241 0.330835 0)
(0.433929 0.337241 0)
(0.418642 0.344047 0)
(0.402965 0.350569 0)
(0.386963 0.357357 0)
(0.370485 0.364493 0)
(0.353182 0.371839 0)
(0.334828 0.379516 0)
(0.315045 0.386656 0)
(0.29384 0.392554 0)
(0.271337 0.396643 0)
(0.247876 0.4005 0)
(0.223489 0.405257 0)
(0.198382 0.412036 0)
(0.172587 0.41993 0)
(0.146303 0.427455 0)
(0.119723 0.434845 0)
(0.0927778 0.43981 0)
(0.0661033 0.445074 0)
(0.0393858 0.447756 0)
(0.0132953 0.45268 0)
(3 -5.96485e-17 0)
(3 -3.68012e-17 0)
(3 -1.20989e-16 0)
(3 -1.69186e-16 0)
(3 1.57644e-16 0)
(3 6.97964e-17 0)
(3 -2.01511e-16 0)
(3 -4.17723e-16 0)
(3 -4.37928e-16 0)
(3 -3.23788e-16 0)
(3 -2.18664e-16 0)
(3 -3.87058e-17 0)
(3 -2.2296e-16 0)
(3 5.08069e-17 0)
(3 1.47464e-16 0)
(3 -5.8773e-18 0)
(3 -1.13683e-16 0)
(3 -5.74476e-16 0)
(3 -8.61988e-16 0)
(3 -6.79002e-16 0)
(3 4.53251e-16 0)
(3 6.48021e-16 0)
(3 1.00482e-15 0)
(3 7.7133e-16 0)
(3 3.42496e-16 0)
(3 -3.0383e-16 0)
(3 -4.9858e-16 0)
(3 -5.56161e-16 0)
(3 -5.26857e-16 0)
(3 -3.27492e-16 0)
(3 -2.19772e-16 0)
(3 -2.72442e-16 0)
(3 6.23333e-17 0)
(3 -6.24671e-17 0)
(3 -1.83841e-16 0)
(3 -2.57843e-16 0)
(3 -3.34934e-17 0)
(3 2.60105e-16 0)
(3 3.89226e-16 0)
(3 4.57411e-16 0)
(3 3.65388e-16 0)
(3 3.65725e-16 0)
(3 4.78303e-16 0)
(3 3.07557e-16 0)
(3 2.09805e-16 0)
(3 -6.91015e-17 0)
(3 -2.55518e-16 0)
(3 -2.95935e-16 0)
(3 -2.01578e-16 0)
(3 1.66856e-11 0)
(2.83872 0.129717 0)
(1.02676 0.318254 0)
(0.800949 0.292677 0)
(0.790018 0.278595 0)
(0.771436 0.277211 0)
(0.75569 0.277935 0)
(0.739979 0.280592 0)
(0.724245 0.283975 0)
(0.708786 0.288316 0)
(0.693962 0.293012 0)
(0.679632 0.296689 0)
(0.665756 0.299239 0)
(0.652185 0.30123 0)
(0.638514 0.302859 0)
(0.624469 0.305163 0)
(0.610391 0.309773 0)
(0.59677 0.316746 0)
(0.583897 0.324764 0)
(0.571165 0.331418 0)
(0.557875 0.334661 0)
(0.544046 0.335557 0)
(0.529777 0.3388 0)
(0.515613 0.345579 0)
(0.500893 0.353364 0)
(0.485423 0.360188 0)
(0.469718 0.366504 0)
(0.454182 0.37348 0)
(0.438851 0.381378 0)
(0.423258 0.389481 0)
(0.407357 0.397981 0)
(0.391102 0.407094 0)
(0.37417 0.416648 0)
(0.356349 0.4267 0)
(0.337157 0.436506 0)
(0.316431 0.445413 0)
(0.294225 0.452777 0)
(0.271036 0.459738 0)
(0.246952 0.467214 0)
(0.22202 0.476093 0)
(0.196506 0.485847 0)
(0.169494 0.495143 0)
(0.141125 0.504806 0)
(0.110835 0.512439 0)
(0.0794069 0.519202 0)
(0.0472531 0.522065 0)
(0.0157318 0.52642 0)
(3 5.80646e-18 0)
(3 -1.0177e-16 0)
(3 -5.752e-16 0)
(3 -6.24085e-16 0)
(3 9.86606e-17 0)
(3 6.03848e-16 0)
(3 9.51512e-16 0)
(3 9.60978e-16 0)
(3 9.69228e-16 0)
(3 9.0896e-16 0)
(3 5.35623e-16 0)
(3 4.93577e-17 0)
(3 -2.21789e-17 0)
(3 1.79012e-16 0)
(3 3.14093e-16 0)
(3 1.03967e-15 0)
(3 7.79428e-16 0)
(3 5.0495e-16 0)
(3 4.78569e-16 0)
(3 1.09585e-16 0)
(3 -4.17222e-16 0)
(3 -2.894e-16 0)
(3 -1.72703e-16 0)
(3 -1.75651e-15 0)
(3 -2.19267e-15 0)
(3 -2.24254e-15 0)
(3 -2.12145e-15 0)
(3 -9.365e-16 0)
(3 -5.53564e-16 0)
(3 -4.54307e-17 0)
(3 8.92275e-17 0)
(3 5.62559e-16 0)
(3 7.60325e-16 0)
(3 1.19958e-15 0)
(3 1.23155e-15 0)
(3 8.21919e-16 0)
(3 8.13047e-16 0)
(3 1.18262e-15 0)
(3 1.11254e-15 0)
(3 1.05565e-15 0)
(3 9.61434e-16 0)
(3 1.00363e-15 0)
(3 1.04028e-15 0)
(3 1.27609e-15 0)
(3 1.56097e-15 0)
(3 1.99055e-15 0)
(3 1.88951e-15 0)
(3 2.01072e-15 0)
(3 1.67594e-15 0)
(3 2.77563e-14 0)
(3.01238 0.00311893 0)
(1.37613 0.34174 0)
(0.830361 0.301113 0)
(0.804602 0.31459 0)
(0.788315 0.317421 0)
(0.771835 0.318119 0)
(0.755716 0.319665 0)
(0.739953 0.321839 0)
(0.724688 0.324716 0)
(0.709928 0.328114 0)
(0.695435 0.331038 0)
(0.681153 0.333019 0)
(0.66719 0.334462 0)
(0.653438 0.33575 0)
(0.63959 0.337714 0)
(0.625765 0.341945 0)
(0.612348 0.348744 0)
(0.599516 0.35695 0)
(0.587027 0.364562 0)
(0.5742 0.3696 0)
(0.560863 0.371876 0)
(0.547119 0.375332 0)
(0.533561 0.382334 0)
(0.519859 0.391203 0)
(0.50529 0.399267 0)
(0.490204 0.406303 0)
(0.475068 0.413717 0)
(0.460153 0.422472 0)
(0.445074 0.432065 0)
(0.429631 0.442298 0)
(0.413794 0.453315 0)
(0.397293 0.465037 0)
(0.380089 0.477472 0)
(0.361664 0.490109 0)
(0.341722 0.502398 0)
(0.319927 0.51371 0)
(0.296518 0.524805 0)
(0.271611 0.53658 0)
(0.24522 0.549789 0)
(0.217562 0.564376 0)
(0.187748 0.578956 0)
(0.156574 0.593947 0)
(0.124236 0.607212 0)
(0.0907047 0.61719 0)
(0.0553404 0.621511 0)
(0.0177447 0.623905 0)
(3 1.76246e-16 0)
(3 1.27543e-16 0)
(3 1.91788e-16 0)
(3 2.75174e-16 0)
(3 3.72882e-16 0)
(3 1.13233e-15 0)
(3 1.77245e-15 0)
(3 1.79278e-15 0)
(3 1.54522e-15 0)
(3 1.26073e-15 0)
(3 1.16185e-15 0)
(3 9.82895e-16 0)
(3 8.90636e-16 0)
(3 7.24786e-16 0)
(3 7.33918e-16 0)
(3 6.36964e-16 0)
(3 4.36815e-16 0)
(3 1.247e-15 0)
(3 1.51536e-15 0)
(3 1.29507e-15 0)
(3 -2.09513e-17 0)
(3 -6.19727e-17 0)
(3 -1.81128e-16 0)
(3 -8.16726e-16 0)
(3 -1.20163e-15 0)
(3 -1.42632e-15 0)
(3 -6.72419e-16 0)
(3 2.94864e-17 0)
(3 4.38569e-16 0)
(3 1.34609e-15 0)
(3 1.41253e-15 0)
(3 1.70451e-15 0)
(3 1.81754e-15 0)
(3 2.2901e-15 0)
(3 2.34797e-15 0)
(3 1.94003e-15 0)
(3 5.64693e-16 0)
(3 1.52251e-17 0)
(3 -1.35844e-16 0)
(3 -3.24931e-16 0)
(3 1.71148e-16 0)
(3 6.29378e-16 0)
(3 6.19679e-16 0)
(3 7.27916e-16 0)
(3 7.18026e-16 0)
(3 3.18617e-16 0)
(3 1.07106e-15 0)
(3 1.67087e-15 0)
(3 1.76555e-15 0)
(3 6.79726e-16 0)
(3.00005 7.62614e-06 0)
(2.17909 0.332609 0)
(0.888937 0.351833 0)
(0.801704 0.338057 0)
(0.794151 0.346925 0)
(0.781061 0.351122 0)
(0.768095 0.353467 0)
(0.755116 0.355302 0)
(0.742263 0.357742 0)
(0.7293 0.361242 0)
(0.715817 0.364969 0)
(0.701725 0.367808 0)
(0.687472 0.369599 0)
(0.673461 0.370866 0)
(0.659653 0.372474 0)
(0.646083 0.37603 0)
(0.63305 0.382234 0)
(0.620548 0.390199 0)
(0.608398 0.398236 0)
(0.59615 0.404615 0)
(0.583452 0.408418 0)
(0.570395 0.412254 0)
(0.557532 0.419259 0)
(0.54502 0.429034 0)
(0.531897 0.438856 0)
(0.517931 0.4473 0)
(0.503559 0.455507 0)
(0.489203 0.465127 0)
(0.474851 0.476288 0)
(0.460165 0.48846 0)
(0.445065 0.501562 0)
(0.429409 0.515555 0)
(0.413208 0.530539 0)
(0.396168 0.546263 0)
(0.378106 0.562504 0)
(0.358467 0.578659 0)
(0.337293 0.595196 0)
(0.314709 0.612688 0)
(0.291075 0.631728 0)
(0.266361 0.651957 0)
(0.239915 0.6716 0)
(0.211101 0.689162 0)
(0.180259 0.706378 0)
(0.143324 0.725882 0)
(0.0969586 0.747868 0)
(0.0369167 0.766608 0)
(3 3.37669e-17 0)
(3 9.33585e-17 0)
(3 6.0357e-16 0)
(3 8.10367e-16 0)
(3 5.33725e-16 0)
(3 4.26416e-16 0)
(3 3.86138e-16 0)
(3 5.16489e-16 0)
(3 2.79007e-16 0)