/*--------------------------------*- C++ -*----------------------------------*\
  =========                 |
  \\      /  F ield         | OpenFOAM: The Open Source CFD Toolbox
   \\    /   O peration     | Website:  https://openfoam.org
    \\  /    A nd           | Version:  7
     \\/     M anipulation  |
\*---------------------------------------------------------------------------*/
FoamFile
{
    version     2.0;
    format      ascii;
    class       volVectorField;
    location    "8.3";
    object      U;
}
// * * * * * * * * * * * * * * * * * * * * * * * * * * * * * * * * * * * * * //

dimensions      [0 1 -1 0 0 0 0];

internalField   nonuniform List<vector> 
19968
(
(3 7.36194e-17 0)
(3 -1.70445e-16 0)
(3 -8.02536e-17 0)
(3 -1.14136e-16 0)
(3 5.32391e-16 0)
(3 1.10091e-15 0)
(3 1.22913e-15 0)
(3 1.05736e-15 0)
(3 7.69765e-16 0)
(3 7.46804e-16 0)
(3 8.4398e-16 0)
(3 1.21444e-15 0)
(3 1.49209e-15 0)
(3 1.9024e-15 0)
(3 1.55079e-15 0)
(3 1.58863e-15 0)
(3 1.14531e-15 0)
(3 1.82396e-16 0)
(3 -1.62192e-16 0)
(3 -4.95278e-16 0)
(3 -7.08936e-16 0)
(3 -6.9487e-16 0)
(3 -7.54647e-17 0)
(3 4.72199e-16 0)
(3 9.74276e-16 0)
(3 3.25431e-16 0)
(3 5.89427e-16 0)
(3 1.54972e-15 0)
(3 2.24208e-15 0)
(3 1.32883e-15 0)
(3 4.84307e-16 0)
(3 -1.36623e-16 0)
(3 -6.39893e-16 0)
(3 -6.15884e-16 0)
(3 -5.07798e-17 0)
(3 8.46649e-16 0)
(3 1.03354e-15 0)
(3 3.86868e-16 0)
(3 -2.32653e-17 0)
(3 -1.98014e-16 0)
(3 -1.08042e-15 0)
(3 -1.03289e-15 0)
(3 -5.17613e-16 0)
(3 3.08195e-16 0)
(3 1.14926e-15 0)
(3 1.34702e-15 0)
(3 1.16609e-15 0)
(3 6.46526e-16 0)
(2.7968 0.00205211 0)
(0.965815 0.00602949 0)
(0.75956 0.00338846 0)
(0.748552 0.00965137 0)
(0.729493 0.0105912 0)
(0.712288 0.0103703 0)
(0.695735 0.00908638 0)
(0.680836 0.00786538 0)
(0.666911 0.00761324 0)
(0.652879 0.00819088 0)
(0.638017 0.00917489 0)
(0.622214 0.0099704 0)
(0.60616 0.00991446 0)
(0.590828 0.00919414 0)
(0.576159 0.00888753 0)
(0.56124 0.00925908 0)
(0.545659 0.00961971 0)
(0.529959 0.00962013 0)
(0.51457 0.00960584 0)
(0.499325 0.00980619 0)
(0.483945 0.0100258 0)
(0.468341 0.0100933 0)
(0.452482 0.0100995 0)
(0.436284 0.0101905 0)
(0.419746 0.0103557 0)
(0.403112 0.0105025 0)
(0.386744 0.0106061 0)
(0.370846 0.0107076 0)
(0.355321 0.010829 0)
(0.339848 0.0109567 0)
(0.324052 0.0110728 0)
(0.307683 0.011172 0)
(0.290747 0.0112631 0)
(0.273472 0.0113618 0)
(0.256112 0.0114768 0)
(0.238769 0.0116067 0)
(0.221369 0.0117487 0)
(0.203764 0.011905 0)
(0.18586 0.0120825 0)
(0.167664 0.0122888 0)
(0.149254 0.0125291 0)
(0.130707 0.0128045 0)
(0.112012 0.0131158 0)
(0.0930392 0.0134501 0)
(0.0736068 0.0138121 0)
(0.0534771 0.0142137 0)
(0.0326502 0.0144818 0)
(0.0111378 0.0148981 0)
(3 1.44781e-16 0)
(3 3.91751e-16 0)
(3 6.77804e-16 0)
(3 1.01244e-15 0)
(3 1.0846e-15 0)
(3 1.00056e-15 0)
(3 6.17793e-16 0)
(3 4.34032e-16 0)
(3 5.33e-16 0)
(3 9.5325e-16 0)
(3 1.67804e-15 0)
(3 2.14314e-15 0)
(3 2.35049e-15 0)
(3 1.71626e-15 0)
(3 9.89017e-16 0)
(3 8.24194e-16 0)
(3 3.40189e-16 0)
(3 -5.11358e-19 0)
(3 -1.61722e-15 0)
(3 -1.09438e-15 0)
(3 -1.67099e-15 0)
(3 -1.83049e-15 0)
(3 -2.4132e-15 0)
(3 -7.03014e-16 0)
(3 6.45118e-16 0)
(3 1.1035e-15 0)
(3 5.78603e-16 0)
(3 1.6268e-15 0)
(3 1.99172e-15 0)
(3 1.52965e-15 0)
(3 8.49471e-16 0)
(3 3.68359e-16 0)
(3 -1.3692e-15 0)
(3 -1.46295e-15 0)
(3 -1.41457e-15 0)
(3 -8.73859e-16 0)
(3 6.48591e-17 0)
(3 7.28731e-17 0)
(3 3.66129e-17 0)
(3 -2.44113e-16 0)
(3 -9.43794e-16 0)
(3 -1.65053e-15 0)
(3 -1.38559e-15 0)
(3 -2.13856e-16 0)
(3 7.36974e-16 0)
(3 3.43079e-16 0)
(3 -1.33819e-16 0)
(3 -6.55341e-16 0)
(2.8112 0.012184 0)
(0.971166 0.0286185 0)
(0.755038 0.0183212 0)
(0.741897 0.0265716 0)
(0.724785 0.0295874 0)
(0.708771 0.0297864 0)
(0.692928 0.0273344 0)
(0.677931 0.024329 0)
(0.663446 0.023343 0)
(0.649049 0.0247196 0)
(0.634182 0.0273523 0)
(0.618641 0.0295462 0)
(0.602947 0.029567 0)
(0.587849 0.0279046 0)
(0.573039 0.0271693 0)
(0.557962 0.0282234 0)
(0.542266 0.0292579 0)
(0.526467 0.0292458 0)
(0.510996 0.0291789 0)
(0.495716 0.0297492 0)
(0.480341 0.0304077 0)
(0.464733 0.0306607 0)
(0.448826 0.0307333 0)
(0.432553 0.0310009 0)
(0.415964 0.0314531 0)
(0.399317 0.0318721 0)
(0.382943 0.032206 0)
(0.367013 0.0325511 0)
(0.351424 0.0329425 0)
(0.33587 0.0333325 0)
(0.319998 0.0336793 0)
(0.303573 0.0339785 0)
(0.286603 0.0342648 0)
(0.269308 0.0345852 0)
(0.251936 0.0349583 0)
(0.234592 0.0353691 0)
(0.217214 0.035802 0)
(0.199674 0.0362629 0)
(0.181886 0.0367781 0)
(0.163851 0.0373781 0)
(0.145638 0.038087 0)
(0.127313 0.0389112 0)
(0.108869 0.0398523 0)
(0.0901985 0.0408744 0)
(0.0711544 0.0419732 0)
(0.0515434 0.0431873 0)
(0.0313628 0.0439795 0)
(0.010668 0.0451442 0)
(3 -2.40019e-16 0)
(3 -8.04919e-17 0)
(3 -2.61159e-16 0)
(3 -5.34086e-16 0)
(3 -9.59383e-16 0)
(3 -1.91847e-15 0)
(3 -1.99656e-15 0)
(3 -1.69671e-15 0)
(3 -1.31151e-15 0)
(3 -8.64541e-16 0)
(3 -3.20542e-17 0)
(3 3.23426e-16 0)
(3 7.20187e-16 0)
(3 5.24599e-16 0)
(3 3.76846e-16 0)
(3 -6.76499e-16 0)
(3 -8.45497e-16 0)
(3 -8.58439e-16 0)
(3 -9.67585e-16 0)
(3 -1.03961e-15 0)
(3 -1.07633e-15 0)
(3 -1.16001e-15 0)
(3 -1.90287e-15 0)
(3 -2.62719e-15 0)
(3 -1.63099e-15 0)
(3 1.18588e-16 0)
(3 3.49925e-16 0)
(3 6.95316e-16 0)
(3 7.76116e-16 0)
(3 1.07262e-15 0)
(3 1.52314e-15 0)
(3 1.80017e-15 0)
(3 1.14164e-15 0)
(3 3.29391e-16 0)
(3 -2.00921e-15 0)
(3 -2.30541e-15 0)
(3 -2.40715e-15 0)
(3 -1.5747e-15 0)
(3 2.34893e-16 0)
(3 4.69062e-16 0)
(3 7.52307e-16 0)
(3 7.64762e-16 0)
(3 2.63538e-16 0)
(3 2.93969e-16 0)
(3 1.51828e-15 0)
(3 2.16753e-15 0)
(3 1.97041e-15 0)
(3 1.94602e-15 0)
(2.8475 0.0200999 0)
(0.98846 0.0493467 0)
(0.758511 0.0359108 0)
(0.744049 0.0453108 0)
(0.72752 0.0491031 0)
(0.712017 0.0492342 0)
(0.696519 0.0462962 0)
(0.681149 0.0425032 0)
(0.665703 0.041138 0)
(0.650463 0.0431165 0)
(0.635241 0.0469429 0)
(0.619692 0.0500224 0)
(0.604168 0.049987 0)
(0.589199 0.0476759 0)
(0.574166 0.0467989 0)
(0.558869 0.0485718 0)
(0.542945 0.0502825 0)
(0.52688 0.0502856 0)
(0.511131 0.0501473 0)
(0.495633 0.051008 0)
(0.480114 0.0520393 0)
(0.464374 0.0524888 0)
(0.448309 0.0526965 0)
(0.431861 0.0531922 0)
(0.415126 0.0539362 0)
(0.398365 0.054613 0)
(0.381872 0.0551646 0)
(0.365779 0.0557394 0)
(0.349984 0.0563808 0)
(0.334209 0.0570162 0)
(0.318135 0.0575898 0)
(0.301554 0.0580963 0)
(0.284479 0.0585826 0)
(0.267115 0.0591168 0)
(0.249692 0.0597276 0)
(0.232314 0.0603946 0)
(0.214935 0.0610975 0)
(0.197439 0.0618468 0)
(0.179743 0.0626827 0)
(0.161833 0.0636481 0)
(0.143754 0.0647758 0)
(0.125553 0.0660697 0)
(0.107221 0.0675296 0)
(0.0886675 0.0691057 0)
(0.0697786 0.0707818 0)
(0.050417 0.072659 0)
(0.0305752 0.0738338 0)
(0.010372 0.0756218 0)
(3 -6.20965e-17 0)
(3 -4.48507e-16 0)
(3 -7.24964e-16 0)
(3 -9.84896e-16 0)
(3 -1.0297e-15 0)
(3 -7.06036e-16 0)
(3 -3.78386e-17 0)
(3 -1.37005e-16 0)
(3 -3.12665e-16 0)
(3 -9.41167e-16 0)
(3 -1.059e-15 0)
(3 -7.39365e-16 0)
(3 -6.16806e-16 0)
(3 3.6269e-17 0)
(3 4.44295e-16 0)
(3 3.5053e-16 0)
(3 -6.37986e-17 0)
(3 1.08716e-16 0)
(3 6.97057e-16 0)
(3 7.43211e-16 0)
(3 5.92435e-16 0)
(3 8.88716e-17 0)
(3 -8.06325e-17 0)
(3 -3.22141e-16 0)
(3 -9.35045e-16 0)
(3 -2.9015e-16 0)
(3 8.3461e-16 0)
(3 1.02173e-15 0)
(3 8.65115e-16 0)
(3 1.72536e-15 0)
(3 1.66197e-15 0)
(3 1.16708e-15 0)
(3 2.46773e-16 0)
(3 -3.18164e-16 0)
(3 -1.31182e-16 0)
(3 -6.47294e-16 0)
(3 -1.00939e-15 0)
(3 -9.32709e-16 0)
(3 -2.5182e-16 0)
(3 1.17832e-15 0)
(3 6.10055e-16 0)
(3 3.71834e-16 0)
(3 6.14192e-16 0)
(3 9.64368e-16 0)
(3 1.1599e-15 0)
(3 1.56127e-15 0)
(3 1.88895e-15 0)
(3 2.40812e-15 0)
(2.89531 0.0235883 0)
(1.01293 0.0678648 0)
(0.760387 0.0556825 0)
(0.744277 0.0645296 0)
(0.72895 0.0679232 0)
(0.714372 0.0680592 0)
(0.699522 0.0656437 0)
(0.684204 0.0621801 0)
(0.668286 0.0608416 0)
(0.652452 0.0630905 0)
(0.637005 0.0674741 0)
(0.621572 0.0709301 0)
(0.606328 0.0708307 0)
(0.591592 0.0682339 0)
(0.57656 0.0674462 0)
(0.561349 0.0699339 0)
(0.545505 0.0723646 0)
(0.529413 0.0725179 0)
(0.513548 0.0723681 0)
(0.497931 0.0734627 0)
(0.482334 0.0748152 0)
(0.466509 0.0755069 0)
(0.450302 0.0759613 0)
(0.433659 0.0767659 0)
(0.416714 0.0778253 0)
(0.399733 0.0787725 0)
(0.38297 0.0795724 0)
(0.366521 0.0804112 0)
(0.350285 0.0813224 0)
(0.334016 0.082208 0)
(0.317443 0.0830039 0)
(0.300397 0.0837018 0)
(0.282904 0.0843531 0)
(0.265163 0.0850438 0)
(0.247399 0.0858181 0)
(0.229732 0.0866609 0)
(0.212153 0.0875584 0)
(0.194584 0.0885344 0)
(0.176952 0.0896486 0)
(0.159228 0.0909582 0)
(0.141425 0.0925006 0)
(0.123545 0.0942688 0)
(0.105546 0.0962498 0)
(0.0873081 0.0983903 0)
(0.0687029 0.100639 0)
(0.0496315 0.103183 0)
(0.0300406 0.104717 0)
(0.0101998 0.107104 0)
(3 3.39188e-16 0)
(3 5.1568e-16 0)
(3 2.40472e-16 0)
(3 3.32048e-16 0)
(3 5.40113e-16 0)
(3 9.80608e-16 0)
(3 1.02292e-15 0)
(3 1.08707e-15 0)
(3 8.40645e-16 0)
(3 5.21996e-16 0)
(3 -7.2082e-16 0)
(3 -1.27731e-15 0)
(3 -1.11655e-15 0)
(3 -8.88735e-16 0)
(3 -6.73119e-16 0)
(3 3.51122e-16 0)
(3 4.42212e-16 0)
(3 5.64452e-16 0)
(3 6.09643e-16 0)
(3 5.71012e-16 0)
(3 2.43961e-16 0)
(3 -3.45059e-16 0)
(3 -3.9678e-16 0)
(3 4.61588e-16 0)
(3 1.35511e-15 0)
(3 1.9978e-15 0)
(3 2.45544e-15 0)
(3 2.33534e-15 0)
(3 2.0305e-15 0)
(3 2.25949e-15 0)
(3 1.81024e-15 0)
(3 9.46299e-16 0)
(3 3.86959e-16 0)
(3 4.02417e-16 0)
(3 7.00941e-16 0)
(3 2.47123e-16 0)
(3 -2.33936e-16 0)
(3 -7.89166e-16 0)
(3 -7.39046e-16 0)
(3 1.433e-17 0)
(3 8.16583e-16 0)
(3 2.46714e-16 0)
(3 -8.68218e-16 0)
(3 -7.41339e-16 0)
(3 -5.93405e-16 0)
(3 -3.32169e-17 0)
(3 4.25319e-16 0)
(3 8.88756e-16 0)
(2.94531 0.0279611 0)
(1.04151 0.0937139 0)
(0.76206 0.0795948 0)
(0.744776 0.0840184 0)
(0.731299 0.0860893 0)
(0.717995 0.0862656 0)
(0.704353 0.0847507 0)
(0.689848 0.0823752 0)
(0.674304 0.0817888 0)
(0.658425 0.0844493 0)
(0.642842 0.0890161 0)
(0.627431 0.0924209 0)
(0.612294 0.0922714 0)
(0.597613 0.089603 0)
(0.582579 0.088975 0)
(0.567579 0.0920646 0)
(0.552052 0.0952333 0)
(0.536164 0.0957551 0)
(0.52037 0.0957801 0)
(0.504748 0.0971366 0)
(0.489147 0.0988002 0)
(0.473305 0.099819 0)
(0.457027 0.100698 0)
(0.44024 0.101979 0)
(0.423103 0.103463 0)
(0.405894 0.104775 0)
(0.388833 0.10594 0)
(0.371975 0.107171 0)
(0.355208 0.108474 0)
(0.338318 0.109722 0)
(0.321077 0.110846 0)
(0.303352 0.11183 0)
(0.285178 0.112713 0)
(0.26674 0.113584 0)
(0.248249 0.114496 0)
(0.229843 0.115439 0)
(0.211555 0.116399 0)
(0.193351 0.117411 0)
(0.175192 0.118557 0)
(0.157066 0.119926 0)
(0.138991 0.121589 0)
(0.120978 0.123565 0)
(0.102993 0.125854 0)
(0.0849315 0.128438 0)
(0.0666475 0.131197 0)
(0.0479975 0.134418 0)
(0.0289579 0.136346 0)
(0.00983257 0.139358 0)
(3 5.17111e-17 0)
(3 2.88961e-16 0)
(3 2.19255e-16 0)
(3 4.53859e-16 0)
(3 7.17116e-16 0)
(3 1.17824e-15 0)
(3 1.24467e-15 0)
(3 1.01324e-15 0)
(3 6.2699e-16 0)
(3 8.8764e-16 0)
(3 8.64153e-17 0)
(3 -6.28214e-16 0)
(3 -1.01592e-15 0)
(3 -9.08903e-16 0)
(3 -7.96058e-16 0)
(3 -5.23766e-16 0)
(3 -1.90239e-17 0)
(3 4.55016e-16 0)
(3 3.97107e-16 0)
(3 -2.9339e-16 0)
(3 -1.78217e-15 0)
(3 -1.69998e-15 0)
(3 -1.38235e-15 0)
(3 -7.28613e-16 0)
(3 1.51156e-16 0)
(3 4.90266e-16 0)
(3 8.89067e-16 0)
(3 1.17835e-15 0)
(3 2.07539e-15 0)
(3 1.94522e-15 0)
(3 1.5118e-15 0)
(3 1.41909e-15 0)
(3 1.32945e-15 0)
(3 1.28718e-15 0)
(3 6.44845e-16 0)
(3 1.99539e-17 0)
(3 2.74125e-17 0)
(3 -5.26493e-16 0)
(3 -9.84986e-16 0)
(3 -8.97429e-16 0)
(3 -8.01732e-16 0)
(3 -2.41453e-16 0)
(3 -6.10216e-17 0)
(3 -8.55979e-16 0)
(3 -1.94821e-16 0)
(3 5.98376e-16 0)
(3 1.6096e-15 0)
(3 1.458e-15 0)
(2.99809 0.00190535 0)
(1.1054 0.115288 0)
(0.774493 0.0993835 0)
(0.75562 0.102158 0)
(0.741712 0.102835 0)
(0.728076 0.102924 0)
(0.714567 0.102567 0)
(0.70035 0.101887 0)
(0.685142 0.102753 0)
(0.669439 0.106272 0)
(0.653799 0.110939 0)
(0.638364 0.114044 0)
(0.623233 0.113865 0)
(0.608534 0.111138 0)
(0.593558 0.110412 0)
(0.57886 0.113693 0)
(0.563853 0.117436 0)
(0.548338 0.118549 0)
(0.532737 0.119039 0)
(0.517192 0.120771 0)
(0.501643 0.122714 0)
(0.485892 0.124045 0)
(0.469725 0.125442 0)
(0.453028 0.127339 0)
(0.435944 0.129349 0)
(0.418759 0.131102 0)
(0.401671 0.132733 0)
(0.384684 0.134496 0)
(0.36766 0.136356 0)
(0.350394 0.138158 0)
(0.332699 0.13983 0)
(0.314473 0.141341 0)
(0.295763 0.1427 0)
(0.27673 0.143983 0)
(0.257563 0.145252 0)
(0.238391 0.146495 0)
(0.219262 0.147693 0)
(0.200166 0.148868 0)
(0.181081 0.150104 0)
(0.162009 0.151508 0)
(0.142989 0.153179 0)
(0.124067 0.155174 0)
(0.105262 0.157515 0)
(0.0865124 0.16028 0)
(0.0676136 0.163276 0)
(0.0485903 0.166985 0)
(0.0292141 0.169193 0)
(0.00991237 0.172727 0)
(3 2.13423e-17 0)
(3 2.62342e-16 0)
(3 5.76262e-16 0)
(3 7.41759e-16 0)
(3 1.06321e-15 0)
(3 9.67128e-16 0)
(3 5.99994e-16 0)
(3 4.20296e-17 0)
(3 -1.49111e-16 0)
(3 -1.20245e-16 0)
(3 8.02657e-18 0)
(3 6.78007e-17 0)
(3 -1.17233e-17 0)
(3 -4.40064e-17 0)
(3 1.07791e-16 0)
(3 2.23033e-16 0)
(3 5.5564e-16 0)
(3 1.70934e-15 0)
(3 1.58722e-15 0)
(3 1.01606e-15 0)
(3 3.92989e-16 0)
(3 3.25239e-16 0)
(3 -3.03501e-16 0)
(3 -7.16993e-16 0)
(3 -1.48351e-15 0)
(3 -1.18589e-15 0)
(3 -4.46489e-16 0)
(3 -8.78191e-18 0)
(3 5.02537e-16 0)
(3 1.11305e-15 0)
(3 8.99401e-16 0)
(3 -6.1135e-16 0)
(3 -1.10659e-15 0)
(3 -1.18587e-15 0)
(3 -1.59155e-15 0)
(3 -1.52721e-15 0)
(3 -1.04725e-15 0)
(3 -4.97111e-16 0)
(3 -8.65414e-16 0)
(3 -1.75085e-15 0)
(3 -1.7719e-15 0)
(3 -1.72011e-15 0)
(3 -1.44289e-15 0)
(3 -1.64867e-15 0)
(3 -2.43035e-15 0)
(3 -2.23712e-15 0)
(3 -5.59913e-16 0)
(3 -1.01986e-15 0)
(3.00005 4.16794e-05 0)
(1.21554 0.137705 0)
(0.777672 0.121597 0)
(0.753567 0.125663 0)
(0.738768 0.124425 0)
(0.724104 0.123507 0)
(0.709933 0.12339 0)
(0.695351 0.123891 0)
(0.680143 0.126125 0)
(0.664724 0.130561 0)
(0.649462 0.135322 0)
(0.634546 0.138277 0)
(0.619923 0.138194 0)
(0.60564 0.135487 0)
(0.591084 0.134357 0)
(0.5769 0.137442 0)
(0.562683 0.141698 0)
(0.547833 0.143735 0)
(0.532704 0.145084 0)
(0.517488 0.147379 0)
(0.502203 0.14956 0)
(0.486767 0.151101 0)
(0.470992 0.152998 0)
(0.454734 0.155588 0)
(0.438092 0.158203 0)
(0.421368 0.160439 0)
(0.404757 0.162573 0)
(0.388214 0.164912 0)
(0.371544 0.167366 0)
(0.354527 0.16974 0)
(0.337008 0.171973 0)
(0.318931 0.174029 0)
(0.300363 0.175889 0)
(0.281453 0.177607 0)
(0.26235 0.179248 0)
(0.243144 0.180805 0)
(0.223861 0.18225 0)
(0.204485 0.183586 0)
(0.184997 0.184888 0)
(0.165417 0.186278 0)
(0.145811 0.187874 0)
(0.126278 0.189774 0)
(0.106894 0.192003 0)
(0.0876608 0.194785 0)
(0.0683044 0.19783 0)
(0.0490588 0.201901 0)
(0.0294329 0.204318 0)
(0.00999162 0.2083 0)
(3 5.60506e-18 0)
(3 -1.33658e-16 0)
(3 -3.26161e-16 0)
(3 -3.27768e-16 0)
(3 -3.31828e-16 0)
(3 -4.5223e-16 0)
(3 -7.11325e-16 0)
(3 -4.32024e-16 0)
(3 -4.43817e-16 0)
(3 -6.54269e-16 0)
(3 -3.79754e-16 0)
(3 -3.20822e-17 0)
(3 6.15354e-16 0)
(3 9.59503e-16 0)
(3 1.11663e-15 0)
(3 9.95462e-16 0)
(3 8.19497e-16 0)
(3 7.39118e-16 0)
(3 1.55472e-15 0)
(3 1.87599e-15 0)
(3 2.30201e-15 0)
(3 1.78354e-15 0)
(3 1.87651e-15 0)
(3 8.96067e-16 0)
(3 2.81817e-16 0)
(3 1.94705e-16 0)
(3 5.43175e-16 0)
(3 3.16712e-16 0)
(3 -4.14541e-16 0)
(3 -4.87438e-16 0)
(3 -2.71148e-16 0)
(3 -1.34422e-15 0)
(3 -1.75631e-15 0)
(3 -2.1724e-15 0)
(3 -2.09933e-15 0)
(3 -1.72361e-15 0)
(3 -1.80049e-15 0)
(3 -1.53657e-15 0)
(3 -1.27647e-15 0)
(3 -9.23487e-16 0)
(3 -7.82781e-16 0)
(3 -2.0265e-16 0)
(3 1.70522e-16 0)
(3 3.25184e-16 0)
(3 -1.6638e-16 0)
(3 -7.60909e-16 0)
(3 -9.41854e-16 0)
(3 -2.26831e-15 0)
(3 6.75438e-08 0)
(1.41192 0.169086 0)
(0.791333 0.14815 0)
(0.755796 0.151154 0)
(0.740043 0.147239 0)
(0.724141 0.145382 0)
(0.70912 0.145246 0)
(0.694072 0.146445 0)
(0.67893 0.149539 0)
(0.664004 0.154395 0)
(0.649356 0.158902 0)
(0.635103 0.161566 0)
(0.620954 0.161868 0)
(0.60681 0.159583 0)
(0.592356 0.157943 0)
(0.578268 0.160344 0)
(0.56466 0.164699 0)
(0.550601 0.167664 0)
(0.536234 0.170117 0)
(0.521715 0.173147 0)
(0.507039 0.175503 0)
(0.492263 0.177027 0)
(0.477232 0.179273 0)
(0.461764 0.182581 0)
(0.445837 0.185932 0)
(0.429746 0.188759 0)
(0.413729 0.191493 0)
(0.397721 0.19455 0)
(0.381462 0.1978 0)
(0.364695 0.200989 0)
(0.347284 0.204058 0)
(0.329221 0.20698 0)
(0.310607 0.209699 0)
(0.291595 0.212227 0)
(0.272305 0.214617 0)
(0.252788 0.21686 0)
(0.23304 0.218909 0)
(0.213032 0.220735 0)
(0.192761 0.222382 0)
(0.172268 0.223967 0)
(0.151664 0.225612 0)
(0.131106 0.227462 0)
(0.110727 0.229519 0)
(0.0905995 0.232206 0)
(0.0703969 0.235123 0)
(0.0505293 0.23941 0)
(0.0302806 0.241957 0)
(0.0102783 0.246291 0)
(3 -3.91311e-17 0)
(3 -1.34895e-16 0)
(3 1.09639e-16 0)
(3 1.55118e-16 0)
(3 3.14824e-16 0)
(3 2.98116e-16 0)
(3 5.72993e-16 0)
(3 6.14855e-16 0)
(3 3.61046e-16 0)
(3 7.7083e-17 0)
(3 9.35395e-17 0)
(3 3.90686e-16 0)
(3 5.97434e-16 0)
(3 9.60083e-16 0)
(3 5.33029e-16 0)
(3 1.51297e-16 0)
(3 1.99741e-16 0)
(3 4.56838e-16 0)
(3 9.85249e-16 0)
(3 1.78537e-15 0)
(3 2.25961e-15 0)
(3 1.70643e-15 0)
(3 2.44001e-15 0)
(3 3.06922e-15 0)
(3 3.00458e-15 0)
(3 2.13837e-15 0)
(3 -1.16218e-16 0)
(3 -1.30192e-15 0)
(3 -1.93637e-15 0)
(3 -2.02448e-15 0)
(3 -2.0826e-15 0)
(3 -1.45949e-15 0)
(3 3.53805e-16 0)
(3 7.66158e-16 0)
(3 -3.44503e-17 0)
(3 -9.02558e-16 0)
(3 -1.15372e-15 0)
(3 -1.59715e-15 0)
(3 -1.52111e-15 0)
(3 -1.19775e-15 0)
(3 -1.56723e-15 0)
(3 -1.22083e-15 0)
(3 -2.9586e-16 0)
(3 5.50134e-16 0)
(3 1.06974e-15 0)
(3 7.98208e-16 0)
(3 3.72423e-16 0)
(3 -9.59258e-16 0)
(3 1.84513e-10 0)
(1.72369 0.190459 0)
(0.820268 0.174218 0)
(0.763512 0.180833 0)
(0.74643 0.173871 0)
(0.72835 0.170983 0)
(0.711566 0.17018 0)
(0.695259 0.170944 0)
(0.679628 0.173799 0)
(0.664861 0.178337 0)
(0.650644 0.182455 0)
(0.636802 0.185312 0)
(0.622779 0.186757 0)
(0.608233 0.185725 0)
(0.593295 0.183802 0)
(0.578533 0.1849 0)
(0.564652 0.188564 0)
(0.550826 0.192067 0)
(0.536868 0.195639 0)
(0.522778 0.199552 0)
(0.508434 0.202121 0)
(0.494052 0.203449 0)
(0.479596 0.205895 0)
(0.464954 0.210016 0)
(0.44992 0.214383 0)
(0.434693 0.218031 0)
(0.419571 0.221495 0)
(0.404494 0.225398 0)
(0.389113 0.22961 0)
(0.373082 0.233796 0)
(0.35626 0.237883 0)
(0.338684 0.241869 0)
(0.320496 0.245681 0)
(0.301853 0.249275 0)
(0.282847 0.252667 0)
(0.263475 0.25584 0)
(0.243675 0.258731 0)
(0.223383 0.261278 0)
(0.202584 0.263491 0)
(0.181339 0.265473 0)
(0.159791 0.26733 0)
(0.138158 0.269247 0)
(0.116631 0.271167 0)
(0.0953568 0.273725 0)
(0.0740421 0.276393 0)
(0.0531328 0.280768 0)
(0.0318557 0.283383 0)
(0.0108187 0.288003 0)
(3 4.05184e-17 0)
(3 3.08898e-16 0)
(3 3.47038e-16 0)
(3 3.46846e-16 0)
(3 3.49533e-17 0)
(3 1.31189e-16 0)
(3 1.41088e-16 0)
(3 -1.19792e-16 0)
(3 -2.67573e-16 0)
(3 -1.18702e-16 0)
(3 -2.08368e-16 0)
(3 -3.6792e-16 0)
(3 -5.81507e-16 0)
(3 -6.16207e-16 0)
(3 -3.70539e-16 0)
(3 -3.77511e-16 0)
(3 -1.87619e-18 0)
(3 4.19367e-16 0)
(3 2.06412e-16 0)
(3 4.76698e-17 0)
(3 7.0723e-16 0)
(3 9.25189e-16 0)
(3 1.31695e-15 0)
(3 1.87636e-15 0)
(3 2.16661e-15 0)
(3 1.92003e-15 0)
(3 7.57742e-16 0)
(3 2.17308e-16 0)
(3 -7.72582e-16 0)
(3 -1.52839e-15 0)
(3 -1.34042e-15 0)
(3 -1.02164e-15 0)
(3 -4.37726e-16 0)
(3 -1.00164e-16 0)
(3 2.2277e-17 0)
(3 -1.02207e-16 0)
(3 1.60611e-17 0)
(3 -1.03184e-16 0)
(3 -1.41959e-16 0)
(3 6.34867e-17 0)
(3 4.41776e-17 0)
(3 -9.56064e-17 0)
(3 -3.35466e-16 0)
(3 6.28336e-17 0)
(3 6.66722e-16 0)
(3 5.57383e-16 0)
(3 -3.8622e-16 0)
(3 -4.87833e-16 0)
(3 4.3628e-13 0)
(2.14777 0.194761 0)
(0.85846 0.210559 0)
(0.761236 0.211986 0)
(0.746496 0.204993 0)
(0.730038 0.202016 0)
(0.714351 0.200471 0)
(0.698663 0.199958 0)
(0.683466 0.201263 0)
(0.66915 0.204407 0)
(0.655427 0.207798 0)
(0.641952 0.21112 0)
(0.628148 0.214199 0)
(0.613348 0.215081 0)
(0.597956 0.213452 0)
(0.58256 0.212963 0)
(0.568054 0.215068 0)
(0.554097 0.218385 0)
(0.54023 0.222774 0)
(0.526171 0.227555 0)
(0.511604 0.230361 0)
(0.496946 0.231163 0)
(0.482323 0.233239 0)
(0.467873 0.237804 0)
(0.453277 0.243146 0)
(0.438491 0.247607 0)
(0.423885 0.251646 0)
(0.409489 0.256244 0)
(0.394923 0.261399 0)
(0.379734 0.266667 0)
(0.363735 0.27191 0)
(0.346973 0.277157 0)
(0.329591 0.282341 0)
(0.31172 0.287363 0)
(0.293391 0.292182 0)
(0.274526 0.296759 0)
(0.254986 0.301007 0)
(0.234657 0.304824 0)
(0.213511 0.308146 0)
(0.191633 0.311025 0)
(0.169211 0.313514 0)
(0.146526 0.315829 0)
(0.123811 0.317831 0)
(0.10127 0.320377 0)
(0.0786241 0.322742 0)
(0.0564396 0.327079 0)
(0.0338713 0.329679 0)
(0.0114971 0.334539 0)
(3 -5.60213e-17 0)
(3 -3.87105e-16 0)
(3 -6.20072e-16 0)
(3 -6.49673e-16 0)
(3 -8.79298e-16 0)
(3 -9.43426e-16 0)
(3 -8.95108e-16 0)
(3 -6.35878e-16 0)
(3 -5.62036e-16 0)
(3 -4.8019e-16 0)
(3 -3.30501e-16 0)
(3 -1.2348e-15 0)
(3 -1.70502e-15 0)
(3 -1.71998e-15 0)
(3 -1.26771e-15 0)
(3 -1.14697e-15 0)
(3 -1.12079e-15 0)
(3 -1.46132e-15 0)
(3 -1.23361e-15 0)
(3 -9.34439e-16 0)
(3 -5.45245e-16 0)
(3 4.52532e-16 0)
(3 8.38134e-16 0)
(3 6.92807e-16 0)
(3 1.11486e-16 0)
(3 1.87019e-16 0)
(3 1.06864e-15 0)
(3 1.06614e-15 0)
(3 2.33237e-16 0)
(3 -5.45344e-16 0)
(3 -8.06157e-16 0)
(3 -8.70894e-16 0)
(3 -1.2633e-15 0)
(3 -1.08889e-15 0)
(3 -2.44648e-16 0)
(3 9.00755e-16 0)
(3 1.48156e-15 0)
(3 1.67541e-15 0)
(3 1.58112e-15 0)
(3 1.47241e-15 0)
(3 1.73064e-15 0)
(3 2.01029e-15 0)
(3 1.81271e-15 0)
(3 1.62835e-15 0)
(3 1.29804e-15 0)
(3 1.26997e-15 0)
(3 5.1042e-16 0)
(3 -1.23886e-16 0)
(3 2.30428e-15 0)
(2.67632 0.172719 0)
(0.959749 0.255511 0)
(0.782932 0.23795 0)
(0.775481 0.227346 0)
(0.758058 0.226798 0)
(0.742013 0.226075 0)
(0.725004 0.226209 0)
(0.708224 0.226723 0)
(0.692232 0.228723 0)
(0.677086 0.231804 0)
(0.662541 0.236141 0)
(0.648258 0.241464 0)
(0.633127 0.245078 0)
(0.617239 0.244865 0)
(0.60123 0.243349 0)
(0.585673 0.24375 0)
(0.570783 0.246633 0)
(0.556311 0.251874 0)
(0.541751 0.257963 0)
(0.526363 0.261709 0)
(0.510637 0.262379 0)
(0.494905 0.26387 0)
(0.479624 0.268505 0)
(0.464601 0.2747 0)
(0.449352 0.279975 0)
(0.434192 0.284334 0)
(0.419332 0.289195 0)
(0.404519 0.294921 0)
(0.389266 0.301037 0)
(0.373327 0.307271 0)
(0.356757 0.313667 0)
(0.339725 0.320198 0)
(0.322371 0.326733 0)
(0.304698 0.333157 0)
(0.286566 0.339387 0)
(0.267741 0.345308 0)
(0.247991 0.350773 0)
(0.227161 0.355658 0)
(0.20524 0.359969 0)
(0.18235 0.363719 0)
(0.158779 0.367143 0)
(0.13477 0.369959 0)
(0.110587 0.373114 0)
(0.0861007 0.375568 0)
(0.0617864 0.379997 0)
(0.0371088 0.382579 0)
(0.0126089 0.387729 0)
(3 -2.94455e-17 0)
(3 -1.13703e-17 0)
(3 5.28265e-17 0)
(3 1.48711e-16 0)
(3 5.56074e-17 0)
(3 -5.08898e-17 0)
(3 -4.22995e-16 0)
(3 -2.31901e-16 0)
(3 -6.97742e-17 0)
(3 -3.23435e-17 0)
(3 3.43205e-16 0)
(3 3.27601e-16 0)
(3 2.89231e-16 0)
(3 -2.88465e-16 0)
(3 -1.2555e-15 0)
(3 -1.4215e-15 0)
(3 -1.61379e-15 0)
(3 -1.66899e-15 0)
(3 -1.33095e-15 0)
(3 -1.13582e-15 0)
(3 -1.09081e-15 0)
(3 -8.65998e-16 0)
(3 -4.54724e-16 0)
(3 -3.68294e-16 0)
(3 -1.30415e-15 0)
(3 -1.43861e-15 0)
(3 -1.10773e-15 0)
(3 -5.33733e-16 0)
(3 7.25143e-18 0)
(3 1.32884e-16 0)
(3 -1.00858e-15 0)
(3 -1.15918e-15 0)
(3 -9.63934e-16 0)
(3 -7.75601e-16 0)
(3 -3.85495e-16 0)
(3 -1.77072e-17 0)
(3 5.55731e-16 0)
(3 1.12235e-15 0)
(3 1.11525e-15 0)
(3 9.40654e-16 0)
(3 8.40929e-16 0)
(3 9.03657e-16 0)
(3 6.95029e-16 0)
(3 6.33329e-16 0)
(3 -2.2067e-16 0)
(3 -1.58447e-16 0)
(3 9.12184e-16 0)
(3 1.48804e-15 0)
(3 2.08237e-15 0)
(3.02073 0.0105965 0)
(1.14682 0.280234 0)
(0.808123 0.234216 0)
(0.796403 0.248135 0)
(0.782305 0.25452 0)
(0.767253 0.257193 0)
(0.751204 0.258167 0)
(0.734768 0.257822 0)
(0.718538 0.258007 0)
(0.70298 0.259462 0)
(0.68825 0.262901 0)
(0.674525 0.268402 0)
(0.660597 0.273392 0)
(0.645571 0.274992 0)
(0.629937 0.273677 0)
(0.614175 0.272755 0)
(0.598736 0.274705 0)
(0.58392 0.280189 0)
(0.569358 0.287562 0)
(0.553768 0.293068 0)
(0.537357 0.294584 0)
(0.520733 0.295593 0)
(0.504491 0.299922 0)
(0.488882 0.306899 0)
(0.473038 0.313484 0)
(0.45696 0.31858 0)
(0.441042 0.323745 0)
(0.425277 0.329974 0)
(0.409263 0.33693 0)
(0.392677 0.344151 0)
(0.375535 0.351624 0)
(0.358011 0.359407 0)
(0.340264 0.367437 0)
(0.322286 0.375596 0)
(0.303889 0.383799 0)
(0.284756 0.39193 0)
(0.264548 0.399824 0)
(0.242984 0.407294 0)
(0.219997 0.414205 0)
(0.195788 0.420378 0)
(0.170816 0.425908 0)
(0.145348 0.430295 0)
(0.119605 0.434673 0)
(0.0932964 0.437548 0)
(0.0669937 0.441964 0)
(0.0401451 0.444282 0)
(0.0135241 0.449444 0)
(3 6.89356e-17 0)
(3 7.03522e-17 0)
(3 -4.6509e-18 0)
(3 -9.57098e-17 0)
(3 -2.43416e-16 0)
(3 -5.87877e-17 0)
(3 -1.09665e-16 0)
(3 -3.07508e-16 0)
(3 -1.65452e-16 0)
(3 -1.15604e-16 0)
(3 -8.39573e-17 0)
(3 1.63355e-16 0)
(3 3.43422e-16 0)
(3 2.06945e-16 0)
(3 -4.6178e-16 0)
(3 -8.20243e-16 0)
(3 -8.82126e-16 0)
(3 -6.38768e-16 0)
(3 -6.87481e-16 0)
(3 -1.09231e-15 0)
(3 -1.18773e-15 0)
(3 -1.39096e-15 0)
(3 -1.325e-15 0)
(3 -1.06559e-15 0)
(3 -6.86177e-16 0)
(3 -2.45661e-16 0)
(3 -3.9755e-16 0)
(3 -3.17362e-16 0)
(3 4.87098e-17 0)
(3 -1.10124e-16 0)
(3 -8.382e-16 0)
(3 -7.46979e-16 0)
(3 -6.11203e-16 0)
(3 -7.20695e-16 0)
(3 -1.13598e-15 0)
(3 -1.11507e-15 0)
(3 -5.63137e-16 0)
(3 1.2846e-16 0)
(3 5.60672e-16 0)
(3 4.72719e-16 0)
(3 -2.34671e-16 0)
(3 -5.74164e-16 0)
(3 -7.09569e-16 0)
(3 -1.03951e-15 0)
(3 -1.04848e-15 0)
(3 -9.23267e-16 0)
(3 3.20049e-16 0)
(3 1.79509e-15 0)
(3 1.97211e-15 0)
(3.00031 1.05425e-05 0)
(1.55858 0.311035 0)
(0.824036 0.276447 0)
(0.78124 0.277484 0)
(0.769331 0.285081 0)
(0.755887 0.288897 0)
(0.742536 0.291131 0)
(0.728615 0.291649 0)
(0.714448 0.291514 0)
(0.700479 0.29198 0)
(0.686986 0.294313 0)
(0.674493 0.299444 0)
(0.662556 0.305788 0)
(0.649671 0.309856 0)
(0.635928 0.310282 0)
(0.621749 0.309384 0)
(0.607392 0.310503 0)
(0.593475 0.315495 0)
(0.58031 0.323536 0)
(0.566428 0.330778 0)
(0.551332 0.333819 0)
(0.535761 0.334766 0)
(0.520247 0.338299 0)
(0.505571 0.34526 0)
(0.490894 0.352872 0)
(0.475583 0.358835 0)
(0.46 0.364155 0)
(0.444403 0.370475 0)
(0.428628 0.377917 0)
(0.412308 0.385915 0)
(0.395353 0.394277 0)
(0.377939 0.403119 0)
(0.360297 0.412481 0)
(0.342521 0.422299 0)
(0.324477 0.432444 0)
(0.305907 0.442792 0)
(0.28647 0.453198 0)
(0.265767 0.463364 0)
(0.243555 0.47297 0)
(0.219766 0.481691 0)
(0.194739 0.489681 0)
(0.168374 0.496471 0)
(0.140818 0.503727 0)
(0.111135 0.509719 0)
(0.0800279 0.516071 0)
(0.0477799 0.519093 0)
(0.0159378 0.524029 0)
(3 -5.2659e-17 0)
(3 -2.80089e-16 0)
(3 -2.39023e-16 0)
(3 -2.38213e-16 0)
(3 -2.69672e-16 0)
(3 -3.19906e-16 0)
(3 -4.45812e-16 0)
(3 -6.23436e-16 0)
(3 -6.41495e-16 0)
(3 -6.02372e-16 0)
(3 -8.32469e-16 0)
(3 -9.21169e-16 0)
(3 -6.76992e-16 0)
(3 -4.78724e-16 0)
(3 -2.38405e-16 0)
(3 -7.17217e-16 0)
(3 -6.50052e-16 0)
(3 -5.24042e-16 0)
(3 -2.28863e-16 0)
(3 -2.52901e-16 0)
(3 -3.55834e-16 0)
(3 -4.94029e-16 0)
(3 -4.41644e-16 0)
(3 4.42282e-17 0)
(3 9.52772e-16 0)
(3 1.92605e-15 0)
(3 2.43474e-16 0)
(3 -6.5002e-16 0)
(3 -4.95099e-16 0)
(3 4.0183e-16 0)
(3 9.63286e-16 0)
(3 9.74741e-16 0)
(3 8.21714e-16 0)
(3 1.32589e-16 0)
(3 -7.38736e-16 0)
(3 -2.07212e-15 0)
(3 -1.80036e-15 0)
(3 -1.36647e-15 0)
(3 -8.69437e-16 0)
(3 -7.77238e-16 0)
(3 -1.28364e-15 0)
(3 -1.98395e-15 0)
(3 -2.57581e-15 0)
(3 -1.38993e-15 0)
(3 -8.82889e-16 0)
(3 -3.12993e-16 0)
(3 5.95408e-17 0)
(3 2.1875e-16 0)
(3 3.28308e-16 0)
(3 1.7982e-08 0)
(2.3834 0.282966 0)
(0.918176 0.33803 0)
(0.792475 0.31062 0)
(0.780646 0.310618 0)
(0.767613 0.314942 0)
(0.755189 0.319342 0)
(0.742089 0.321663 0)
(0.728661 0.322072 0)
(0.715153 0.32213 0)
(0.701757 0.32344 0)
(0.689008 0.327533 0)
(0.677387 0.333945 0)
(0.665656 0.33969 0)
(0.653027 0.342242 0)
(0.639804 0.342353 0)
(0.626124 0.343182 0)
(0.612504 0.347434 0)
(0.59978 0.355439 0)
(0.587145 0.364163 0)
(0.573297 0.369546 0)
(0.558721 0.371559 0)
(0.543939 0.37469 0)
(0.529876 0.38138 0)
(0.516319 0.390067 0)
(0.50207 0.397843 0)
(0.487079 0.404322 0)
(0.471754 0.411272 0)
(0.45624 0.419566 0)
(0.440277 0.428824 0)
(0.423619 0.438574 0)
(0.406392 0.448873 0)
(0.388839 0.459855 0)
(0.371014 0.471553 0)
(0.352918 0.483923 0)
(0.334399 0.49687 0)
(0.315079 0.510371 0)
(0.294176 0.524262 0)
(0.271146 0.53833 0)
(0.245644 0.552196 0)
(0.217912 0.56601 0)
(0.187936 0.57904 0)
(0.156644 0.592171 0)
(0.124254 0.603945 0)
(0.090737 0.613368 0)
(0.0555573 0.618128 0)
(0.017795 0.621128 0)
(3 -1.91428e-17 0)
(3 1.2196e-16 0)
(3 2.00162e-16 0)
(3 2.33305e-16 0)
(3 1.63537e-16 0)
(3 4.65283e-17 0)
(3 -1.33979e-16 0)
(3 -3.36955e-16 0)
(3 -9.36213e-16 0)
(3 -1.13138e-15 0)
(3 -9.81835e-16 0)
(3 -9.62615e-16 0)
(3 -1.0158e-15 0)
(3 -3.66597e-16 0)
(3 9.48846e-16 0)
(3 1.03611e-15 0)
(3 9.97858e-16 0)
(3 5.82679e-16 0)
(3 5.49581e-16 0)
(3 6.05626e-16 0)
(3 4.25651e-16 0)
(3 2.39484e-16 0)
(3 -4.43561e-17 0)
(3 -1.35658e-16 0)
(3 -4.73109e-16 0)
(3 -5.10782e-16 0)
(3 -5.97055e-16 0)
(3 -7.77188e-16 0)
(3 -9.37523e-16 0)
(3 3.30075e-16 0)
(3 1.01059e-15 0)
(3 1.17417e-15 0)
(3 1.18393e-15 0)
(3 1.02845e-15 0)
(3 1.98703e-16 0)
(3 -2.81811e-16 0)
(3 -9.31423e-16 0)
(3 -1.65116e-15 0)
(3 -1.8441e-15 0)
(3 -1.67032e-15 0)
(3 -8.53245e-16 0)
(3 -8.86278e-16 0)
(3 -3.04229e-16 0)
(3 -7.03851e-17 0)
(3 3.41668e-17 0)
(3 1.39976e-16 0)
(3 7.80771e-16 0)
(3 8.02782e-16 0)
(3 1.13752e-15 0)
(3 -6.78047e-09 0)
(3.02923 0.0180183 0)
(1.24919 0.379008 0)
(0.840984 0.320069 0)
(0.821753 0.330229 0)
(0.806655 0.336719 0)
(0.792474 0.342642 0)
(0.778222 0.346218 0)
(0.76389 0.347757 0)
(0.749439 0.348726 0)
(0.734943 0.350308 0)
(0.720752 0.353793 0)
(0.707653 0.359789 0)
(0.695406 0.36652 0)
(0.682843 0.371478 0)
(0.669607 0.373936 0)
(0.655884 0.375628 0)
(0.642 0.379372 0)
(0.628796 0.386754 0)
(0.616395 0.39619 0)
(0.603413 0.403944 0)
(0.589525 0.408149 0)
(0.575299 0.411595 0)
(0.561501 0.417767 0)
(0.548606 0.426902 0)
(0.535543 0.436664 0)
(0.52152 0.445261 0)
(0.506728 0.453569 0)
(0.491796 0.46289 0)
(0.476551 0.473533 0)
(0.460718 0.484963 0)
(0.444296 0.497097 0)
(0.427382 0.510052 0)
(0.410057 0.524064 0)
(0.392506 0.539259 0)
(0.374743 0.555631 0)
(0.356456 0.573176 0)
(0.337079 0.591935 0)
(0.316122 0.611813 0)
(0.293135 0.632288 0)
(0.268021 0.65272 0)
(0.240732 0.671731 0)
(0.211046 0.688015 0)
(0.179331 0.703562 0)
(0.142218 0.721795 0)
(0.096236 0.743683 0)
(0.037011 0.763101 0)
(3 -3.54613e-18 0)
(3 2.21289e-16 0)
(3 1.77136e-16 0)
(3 2.26686e-16 0)
(3 1.40079e-17 0)
(3 -1.83918e-16 0)