# Field minima and maxima
# Time          	field           	min             	location(min)   	max             	location(max)   
0.001           	p               	-8.62321741e+00	(4.16666667e-03 9.95833333e-01 5.00000000e-01)	9.28807438e+00	(9.95833333e-01 9.95833333e-01 5.00000000e-01)
0.001           	U               	(-7.05912205e-06 7.05889774e-06 0.00000000e+00)	(4.16666667e-03 4.16666667e-03 5.00000000e-01)	(-7.05912205e-06 7.05889774e-06 0.00000000e+00)	(4.16666667e-03 4.16666667e-03 5.00000000e-01)
0.002           	p               	-4.43827167e+00	(4.16666667e-03 9.95833333e-01 5.00000000e-01)	4.68490416e+00	(9.95833333e-01 9.95833333e-01 5.00000000e-01)
0.002           	U               	(-9.60847764e-06 9.60720100e-06 0.00000000e+00)	(4.16666667e-03 4.16666667e-03 5.00000000e-01)	(-9.60847764e-06 9.60720100e-06 0.00000000e+00)	(4.16666667e-03 4.16666667e-03 5.00000000e-01)
0.003           	p               	-5.17485525e+00	(4.16666667e-03 9.95833333e-01 5.00000000e-01)	5.55756365e+00	(9.95833333e-01 9.95833333e-01 5.00000000e-01)
0.003           	U               	(-1.01962518e-05 1.01936964e-05 0.00000000e+00)	(4.16666667e-03 4.16666667e-03 5.00000000e-01)	(-1.01962518e-05 1.01936964e-05 0.00000000e+00)	(4.16666667e-03 4.16666667e-03 5.00000000e-01)
0.004           	p               	-4.36430573e+00	(4.16666667e-03 9.95833333e-01 5.00000000e-01)	4.69857243e+00	(9.95833333e-01 9.95833333e-01 5.00000000e-01)
0.004           	U               	(-9.33330491e-06 9.33094206e-06 0.00000000e+00)	(4.16666667e-03 4.16666667e-03 5.00000000e-01)	(-9.33330491e-06 9.33094206e-06 0.00000000e+00)	(4.16666667e-03 4.16666667e-03 5.00000000e-01)
0.005           	p               	-4.24636611e+00	(4.16666667e-03 9.95833333e-01 5.00000000e-01)	4.61387348e+00	(9.95833333e-01 9.95833333e-01 5.00000000e-01)
0.005           	U               	(-8.00174974e-06 7.99887829e-06 0.00000000e+00)	(4.16666667e-03 4.16666667e-03 5.00000000e-01)	(-8.00174974e-06 7.99887829e-06 0.00000000e+00)	(4.16666667e-03 4.16666667e-03 5.00000000e-01)
0.006           	p               	-4.00075957e+00	(4.16666667e-03 9.95833333e-01 5.00000000e-01)	4.37161858e+00	(9.95833333e-01 9.95833333e-01 5.00000000e-01)
0.006           	U               	(-6.54454105e-06 6.54294174e-06 0.00000000e+00)	(4.16666667e-03 4.16666667e-03 5.00000000e-01)	(-6.54454105e-06 6.54294174e-06 0.00000000e+00)	(4.16666667e-03 4.16666667e-03 5.00000000e-01)
0.007           	p               	-3.87379517e+00	(4.16666667e-03 9.95833333e-01 5.00000000e-01)	4.25645664e+00	(9.95833333e-01 9.95833333e-01 5.00000000e-01)
0.007           	U               	(-5.20855854e-06 5.20736411e-06 0.00000000e+00)	(4.16666667e-03 4.16666667e-03 5.00000000e-01)	(-5.20855854e-06 5.20736411e-06 0.00000000e+00)	(4.16666667e-03 4.16666667e-03 5.00000000e-01)
0.008           	p               	-3.75152073e+00	(4.16666667e-03 9.95833333e-01 5.00000000e-01)	4.15281637e+00	(9.95833333e-01 9.95833333e-01 5.00000000e-01)
0.008           	U               	(-4.05620675e-06 4.05554945e-06 0.00000000e+00)	(4.16666667e-03 4.16666667e-03 5.00000000e-01)	(-4.05620675e-06 4.05554945e-06 0.00000000e+00)	(4.16666667e-03 4.16666667e-03 5.00000000e-01)
0.009           	p               	-3.67931204e+00	(4.16666667e-03 9.95833333e-01 5.00000000e-01)	4.08132483e+00	(9.95833333e-01 9.95833333e-01 5.00000000e-01)
0.009           	U               	(-3.10033229e-06 3.10015416e-06 0.00000000e+00)	(4.16666667e-03 4.16666667e-03 5.00000000e-01)	(-3.10033229e-06 3.10015416e-06 0.00000000e+00)	(4.16666667e-03 4.16666667e-03 5.00000000e-01)
0.01            	p               	-3.60269407e+00	(4.16666667e-03 9.95833333e-01 5.00000000e-01)	4.01482781e+00	(9.95833333e-01 9.95833333e-01 5.00000000e-01)
0.01            	U               	(-2.31571970e-06 2.31570483e-06 0.00000000e+00)	(4.16666667e-03 4.16666667e-03 5.00000000e-01)	(-2.31571970e-06 2.31570483e-06 0.00000000e+00)	(4.16666667e-03 4.16666667e-03 5.00000000e-01)
0.011           	p               	-3.54345051e+00	(4.16666667e-03 9.95833333e-01 5.00000000e-01)	3.96338933e+00	(9.95833333e-01 9.95833333e-01 5.00000000e-01)
0.011           	U               	(-1.67135630e-06 1.67175149e-06 0.00000000e+00)	(4.16666667e-03 4.16666667e-03 5.00000000e-01)	(-1.67135630e-06 1.67175149e-06 0.00000000e+00)	(4.16666667e-03 4.16666667e-03 5.00000000e-01)
0.012           	p               	-3.49239209e+00	(4.16666667e-03 9.95833333e-01 5.00000000e-01)	3.92017614e+00	(9.95833333e-01 9.95833333e-01 5.00000000e-01)
0.012           	U               	(-1.13708233e-06 1.13783122e-06 0.00000000e+00)	(4.16666667e-03 4.16666667e-03 5.00000000e-01)	(-1.13708233e-06 1.13783122e-06 0.00000000e+00)	(4.16666667e-03 4.16666667e-03 5.00000000e-01)
0.013           	p               	-3.44901926e+00	(4.16666667e-03 9.95833333e-01 5.00000000e-01)	3.88146999e+00	(9.95833333e-01 9.95833333e-01 5.00000000e-01)
0.013           	U               	(-6.88379850e-07 6.89400822e-07 0.00000000e+00)	(4.16666667e-03 4.16666667e-03 5.00000000e-01)	(-6.88379850e-07 6.89400822e-07 0.00000000e+00)	(4.16666667e-03 4.16666667e-03 5.00000000e-01)
0.014           	p               	-3.41099138e+00	(4.16666667e-03 9.95833333e-01 5.00000000e-01)	3.84743951e+00	(9.95833333e-01 9.95833333e-01 5.00000000e-01)
0.014           	U               	(-3.06111877e-07 3.07430543e-07 0.00000000e+00)	(4.16666667e-03 4.16666667e-03 5.00000000e-01)	(-3.06111877e-07 3.07430543e-07 0.00000000e+00)	(4.16666667e-03 4.16666667e-03 5.00000000e-01)
0.015           	p               	-3.37745975e+00	(4.16666667e-03 9.95833333e-01 5.00000000e-01)	3.82001634e+00	(9.95833333e-01 9.95833333e-01 5.00000000e-01)
0.015           	U               	(2.38677757e-08 -2.22128340e-08 0.00000000e+00)	(4.16666667e-03 4.16666667e-03 5.00000000e-01)	(2.38677757e-08 -2.22128340e-08 0.00000000e+00)	(4.16666667e-03 4.16666667e-03 5.00000000e-01)
0.016           	p               	-3.34753228e+00	(4.16666667e-03 9.95833333e-01 5.00000000e-01)	3.79551898e+00	(9.95833333e-01 9.95833333e-01 5.00000000e-01)
0.016           	U               	(3.12039555e-07 -3.10142872e-07 0.00000000e+00)	(4.16666667e-03 4.16666667e-03 5.00000000e-01)	(3.12039555e-07 -3.10142872e-07 0.00000000e+00)	(4.16666667e-03 4.16666667e-03 5.00000000e-01)
0.017           	p               	-3.32064839e+00	(4.16666667e-03 9.95833333e-01 5.00000000e-01)	3.77375062e+00	(9.95833333e-01 9.95833333e-01 5.00000000e-01)
0.017           	U               	(5.66262337e-07 -5.64186921e-07 0.00000000e+00)	(4.16666667e-03 4.16666667e-03 5.00000000e-01)	(5.66262337e-07 -5.64186921e-07 0.00000000e+00)	(4.16666667e-03 4.16666667e-03 5.00000000e-01)
0.018           	p               	-3.29632381e+00	(4.16666667e-03 9.95833333e-01 5.00000000e-01)	3.75428950e+00	(9.95833333e-01 9.95833333e-01 5.00000000e-01)
0.018           	U               	(7.92561639e-07 -7.90252591e-07 0.00000000e+00)	(4.16666667e-03 4.16666667e-03 5.00000000e-01)	(7.92561639e-07 -7.90252591e-07 0.00000000e+00)	(4.16666667e-03 4.16666667e-03 5.00000000e-01)
0.019           	p               	-3.27418765e+00	(4.16666667e-03 9.95833333e-01 5.00000000e-01)	3.73685115e+00	(9.95833333e-01 9.95833333e-01 5.00000000e-01)
0.019           	U               	(9.95469452e-07 -9.92992884e-07 0.00000000e+00)	(4.16666667e-03 4.16666667e-03 5.00000000e-01)	(9.95469452e-07 -9.92992884e-07 0.00000000e+00)	(4.16666667e-03 4.16666667e-03 5.00000000e-01)
0.02            	p               	-3.25392158e+00	(4.16666667e-03 9.95833333e-01 5.00000000e-01)	3.72105740e+00	(9.95833333e-01 9.95833333e-01 5.00000000e-01)
0.02            	U               	(1.17868158e-06 -1.17602490e-06 0.00000000e+00)	(4.16666667e-03 4.16666667e-03 5.00000000e-01)	(1.17868158e-06 -1.17602490e-06 0.00000000e+00)	(4.16666667e-03 4.16666667e-03 5.00000000e-01)
0.021           	p               	-3.23533247e+00	(4.16666667e-03 9.95833333e-01 5.00000000e-01)	3.70674266e+00	(9.95833333e-01 9.95833333e-01 5.00000000e-01)
0.021           	U               	(1.34510401e-06 -1.34233636e-06 0.00000000e+00)	(4.16666667e-03 4.16666667e-03 5.00000000e-01)	(1.34510401e-06 -1.34233636e-06 0.00000000e+00)	(4.16666667e-03 4.16666667e-03 5.00000000e-01)
0.022           	p               	-3.21814642e+00	(4.16666667e-03 9.95833333e-01 5.00000000e-01)	3.69367662e+00	(9.95833333e-01 9.95833333e-01 5.00000000e-01)
0.022           	U               	(1.49720807e-06 -1.49432541e-06 0.00000000e+00)	(4.16666667e-03 4.16666667e-03 5.00000000e-01)	(1.49720807e-06 -1.49432541e-06 0.00000000e+00)	(4.16666667e-03 4.16666667e-03 5.00000000e-01)
0.023           	p               	-3.20222725e+00	(4.16666667e-03 9.95833333e-01 5.00000000e-01)	3.68177332e+00	(9.95833333e-01 9.95833333e-01 5.00000000e-01)
0.023           	U               	(1.63698053e-06 -1.63412382e-06 0.00000000e+00)	(4.16666667e-03 4.16666667e-03 5.00000000e-01)	(1.63698053e-06 -1.63412382e-06 0.00000000e+00)	(4.16666667e-03 4.16666667e-03 5.00000000e-01)
0.024           	p               	-3.18742181e+00	(4.16666667e-03 9.95833333e-01 5.00000000e-01)	3.67080654e+00	(9.95833333e-01 9.95833333e-01 5.00000000e-01)
0.024           	U               	(1.76626971e-06 -1.76340663e-06 0.00000000e+00)	(4.16666667e-03 4.16666667e-03 5.00000000e-01)	(1.76626971e-06 -1.76340663e-06 0.00000000e+00)	(4.16666667e-03 4.16666667e-03 5.00000000e-01)
0.025           	p               	-3.17361752e+00	(4.16666667e-03 9.95833333e-01 5.00000000e-01)	3.66071305e+00	(9.95833333e-01 9.95833333e-01 5.00000000e-01)
0.025           	U               	(1.88669095e-06 -1.88375870e-06 0.00000000e+00)	(4.16666667e-03 4.16666667e-03 5.00000000e-01)	(1.88669095e-06 -1.88375870e-06 0.00000000e+00)	(4.16666667e-03 4.16666667e-03 5.00000000e-01)
0.026           	p               	-3.16069975e+00	(4.16666667e-03 9.95833333e-01 5.00000000e-01)	3.65141460e+00	(9.95833333e-01 9.95833333e-01 5.00000000e-01)
0.026           	U               	(1.99194373e-06 -1.98928303e-06 0.00000000e+00)	(4.16666667e-03 4.16666667e-03 5.00000000e-01)	(1.99194373e-06 -1.98928303e-06 0.00000000e+00)	(4.16666667e-03 4.16666667e-03 5.00000000e-01)
0.027           	p               	-3.14858446e+00	(4.16666667e-03 9.95833333e-01 5.00000000e-01)	3.64279094e+00	(9.95833333e-01 9.95833333e-01 5.00000000e-01)
0.027           	U               	(2.08028730e-06 -2.07775327e-06 0.00000000e+00)	(4.16666667e-03 4.16666667e-03 5.00000000e-01)	(2.08028730e-06 -2.07775327e-06 0.00000000e+00)	(4.16666667e-03 4.16666667e-03 5.00000000e-01)
0.028           	p               	-3.13719171e+00	(4.16666667e-03 9.95833333e-01 5.00000000e-01)	3.63480794e+00	(9.95833333e-01 9.95833333e-01 5.00000000e-01)
0.028           	U               	(2.15944969e-06 -2.15715903e-06 0.00000000e+00)	(4.16666667e-03 4.16666667e-03 5.00000000e-01)	(2.15944969e-06 -2.15715903e-06 0.00000000e+00)	(4.16666667e-03 4.16666667e-03 5.00000000e-01)
0.029           	p               	-3.12645637e+00	(4.16666667e-03 9.95833333e-01 5.00000000e-01)	3.62754259e+00	(9.95833333e-01 9.95833333e-01 5.00000000e-01)
0.029           	U               	(2.23244863e-06 -2.23028078e-06 0.00000000e+00)	(4.16666667e-03 4.16666667e-03 5.00000000e-01)	(2.23244863e-06 -2.23028078e-06 0.00000000e+00)	(4.16666667e-03 4.16666667e-03 5.00000000e-01)
0.03            	p               	-3.11631736e+00	(4.16666667e-03 9.95833333e-01 5.00000000e-01)	3.62026594e+00	(9.95833333e-01 9.95833333e-01 5.00000000e-01)
0.03            	U               	(2.30007633e-06 -2.29789041e-06 0.00000000e+00)	(4.16666667e-03 4.16666667e-03 5.00000000e-01)	(2.30007633e-06 -2.29789041e-06 0.00000000e+00)	(4.16666667e-03 4.16666667e-03 5.00000000e-01)
0.031           	p               	-3.10672196e+00	(4.16666667e-03 9.95833333e-01 5.00000000e-01)	3.61374661e+00	(9.95833333e-01 9.95833333e-01 5.00000000e-01)
0.031           	U               	(2.36277252e-06 -2.36056888e-06 0.00000000e+00)	(4.16666667e-03 4.16666667e-03 5.00000000e-01)	(2.36277252e-06 -2.36056888e-06 0.00000000e+00)	(4.16666667e-03 4.16666667e-03 5.00000000e-01)
0.032           	p               	-3.09762561e+00	(4.16666667e-03 9.95833333e-01 5.00000000e-01)	3.60771552e+00	(9.95833333e-01 9.95833333e-01 5.00000000e-01)
0.032           	U               	(2.42099461e-06 -2.41875177e-06 0.00000000e+00)	(4.16666667e-03 4.16666667e-03 5.00000000e-01)	(2.42099461e-06 -2.41875177e-06 0.00000000e+00)	(4.16666667e-03 4.16666667e-03 5.00000000e-01)
0.033           	p               	-3.08898500e+00	(4.16666667e-03 9.95833333e-01 5.00000000e-01)	3.60201849e+00	(9.95833333e-01 9.95833333e-01 5.00000000e-01)
0.033           	U               	(2.47500960e-06 -2.47291413e-06 0.00000000e+00)	(4.16666667e-03 4.16666667e-03 5.00000000e-01)	(2.47500960e-06 -2.47291413e-06 0.00000000e+00)	(4.16666667e-03 4.16666667e-03 5.00000000e-01)
0.034           	p               	-3.08077061e+00	(4.16666667e-03 9.95833333e-01 5.00000000e-01)	3.59667749e+00	(9.95833333e-01 9.95833333e-01 5.00000000e-01)
0.034           	U               	(2.50874745e-06 -2.50645494e-06 0.00000000e+00)	(4.16666667e-03 4.16666667e-03 5.00000000e-01)	(2.50874745e-06 -2.50645494e-06 0.00000000e+00)	(4.16666667e-03 4.16666667e-03 5.00000000e-01)
0.035           	p               	-3.07294104e+00	(4.16666667e-03 9.95833333e-01 5.00000000e-01)	3.59164137e+00	(9.95833333e-01 9.95833333e-01 5.00000000e-01)
0.035           	U               	(2.53884076e-06 -2.53655930e-06 0.00000000e+00)	(4.16666667e-03 4.16666667e-03 5.00000000e-01)	(2.53884076e-06 -2.53655930e-06 0.00000000e+00)	(4.16666667e-03 4.16666667e-03 5.00000000e-01)
0.036           	p               	-3.06547270e+00	(4.16666667e-03 9.95833333e-01 5.00000000e-01)	3.58689671e+00	(9.95833333e-01 9.95833333e-01 5.00000000e-01)
0.036           	U               	(2.57011603e-06 -2.56786952e-06 0.00000000e+00)	(4.16666667e-03 4.16666667e-03 5.00000000e-01)	(2.57011603e-06 -2.56786952e-06 0.00000000e+00)	(4.16666667e-03 4.16666667e-03 5.00000000e-01)
0.037           	p               	-3.05833601e+00	(4.16666667e-03 9.95833333e-01 5.00000000e-01)	3.58242203e+00	(9.95833333e-01 9.95833333e-01 5.00000000e-01)
0.037           	U               	(2.60162919e-06 -2.59948772e-06 0.00000000e+00)	(4.16666667e-03 4.16666667e-03 5.00000000e-01)	(2.60162919e-06 -2.59948772e-06 0.00000000e+00)	(4.16666667e-03 4.16666667e-03 5.00000000e-01)
0.038           	p               	-3.05151419e+00	(4.16666667e-03 9.95833333e-01 5.00000000e-01)	3.57819362e+00	(9.95833333e-01 9.95833333e-01 5.00000000e-01)
0.038           	U               	(2.63247012e-06 -2.63040244e-06 0.00000000e+00)	(4.16666667e-03 4.16666667e-03 5.00000000e-01)	(2.63247012e-06 -2.63040244e-06 0.00000000e+00)	(4.16666667e-03 4.16666667e-03 5.00000000e-01)
0.039           	p               	-3.04498190e+00	(4.16666667e-03 9.95833333e-01 5.00000000e-01)	3.57419515e+00	(9.95833333e-01 9.95833333e-01 5.00000000e-01)
0.039           	U               	(2.66212934e-06 -2.66026171e-06 0.00000000e+00)	(4.16666667e-03 4.16666667e-03 5.00000000e-01)	(2.66212934e-06 -2.66026171e-06 0.00000000e+00)	(4.16666667e-03 4.16666667e-03 5.00000000e-01)
0.04            	p               	-3.03871578e+00	(4.16666667e-03 9.95833333e-01 5.00000000e-01)	3.57040796e+00	(9.95833333e-01 9.95833333e-01 5.00000000e-01)
0.04            	U               	(2.69041605e-06 -2.68896574e-06 0.00000000e+00)	(4.16666667e-03 4.16666667e-03 5.00000000e-01)	(2.69041605e-06 -2.68896574e-06 0.00000000e+00)	(4.16666667e-03 4.16666667e-03 5.00000000e-01)
0.041           	p               	-3.03270123e+00	(4.16666667e-03 9.95833333e-01 5.00000000e-01)	3.56670947e+00	(9.95833333e-01 9.95833333e-01 5.00000000e-01)
0.041           	U               	(2.71753947e-06 -2.71619276e-06 0.00000000e+00)	(4.16666667e-03 4.16666667e-03 5.00000000e-01)	(2.71753947e-06 -2.71619276e-06 0.00000000e+00)	(4.16666667e-03 4.16666667e-03 5.00000000e-01)
0.042           	p               	-3.02692626e+00	(4.16666667e-03 9.95833333e-01 5.00000000e-01)	3.56350725e+00	(9.95833333e-01 9.95833333e-01 5.00000000e-01)
0.042           	U               	(2.74339292e-06 -2.74200587e-06 0.00000000e+00)	(4.16666667e-03 4.16666667e-03 5.00000000e-01)	(2.74339292e-06 -2.74200587e-06 0.00000000e+00)	(4.16666667e-03 4.16666667e-03 5.00000000e-01)
0.043           	p               	-3.02136923e+00	(4.16666667e-03 9.95833333e-01 5.00000000e-01)	3.56019659e+00	(9.95833333e-01 9.95833333e-01 5.00000000e-01)
0.043           	U               	(2.76774928e-06 -2.76672262e-06 0.00000000e+00)	(4.16666667e-03 4.16666667e-03 5.00000000e-01)	(2.76774928e-06 -2.76672262e-06 0.00000000e+00)	(4.16666667e-03 4.16666667e-03 5.00000000e-01)
0.044           	p               	-3.01602166e+00	(4.16666667e-03 9.95833333e-01 5.00000000e-01)	3.55714547e+00	(9.95833333e-01 9.95833333e-01 5.00000000e-01)
0.044           	U               	(2.79097581e-06 -2.78998803e-06 0.00000000e+00)	(4.16666667e-03 4.16666667e-03 5.00000000e-01)	(2.79097581e-06 -2.78998803e-06 0.00000000e+00)	(4.16666667e-03 4.16666667e-03 5.00000000e-01)
0.045           	p               	-3.01086909e+00	(4.16666667e-03 9.95833333e-01 5.00000000e-01)	3.55421364e+00	(9.95833333e-01 9.95833333e-01 5.00000000e-01)
0.045           	U               	(2.81298923e-06 -2.81202775e-06 0.00000000e+00)	(4.16666667e-03 4.16666667e-03 5.00000000e-01)	(2.81298923e-06 -2.81202775e-06 0.00000000e+00)	(4.16666667e-03 4.16666667e-03 5.00000000e-01)
0.046           	p               	-3.00590110e+00	(4.16666667e-03 9.95833333e-01 5.00000000e-01)	3.55143541e+00	(9.95833333e-01 9.95833333e-01 5.00000000e-01)
0.046           	U               	(2.83386653e-06 -2.83286427e-06 0.00000000e+00)	(4.16666667e-03 4.16666667e-03 5.00000000e-01)	(2.83386653e-06 -2.83286427e-06 0.00000000e+00)	(4.16666667e-03 4.16666667e-03 5.00000000e-01)
0.047           	p               	-3.00110658e+00	(4.16666667e-03 9.95833333e-01 5.00000000e-01)	3.54877177e+00	(9.95833333e-01 9.95833333e-01 5.00000000e-01)
0.047           	U               	(2.85361808e-06 -2.85259616e-06 0.00000000e+00)	(4.16666667e-03 4.16666667e-03 5.00000000e-01)	(2.85361808e-06 -2.85259616e-06 0.00000000e+00)	(4.16666667e-03 4.16666667e-03 5.00000000e-01)
0.048           	p               	-2.99647664e+00	(4.16666667e-03 9.95833333e-01 5.00000000e-01)	3.54627909e+00	(9.95833333e-01 9.95833333e-01 5.00000000e-01)
0.048           	U               	(2.87231813e-06 -2.87124336e-06 0.00000000e+00)	(4.16666667e-03 4.16666667e-03 5.00000000e-01)	(2.87231813e-06 -2.87124336e-06 0.00000000e+00)	(4.16666667e-03 4.16666667e-03 5.00000000e-01)
0.049           	p               	-2.99200262e+00	(4.16666667e-03 9.95833333e-01 5.00000000e-01)	3.54386192e+00	(9.95833333e-01 9.95833333e-01 5.00000000e-01)
0.049           	U               	(2.88997327e-06 -2.88890052e-06 0.00000000e+00)	(4.16666667e-03 4.16666667e-03 5.00000000e-01)	(2.88997327e-06 -2.88890052e-06 0.00000000e+00)	(4.16666667e-03 4.16666667e-03 5.00000000e-01)
0.05            	p               	-2.98767488e+00	(4.16666667e-03 9.95833333e-01 5.00000000e-01)	3.54156906e+00	(9.95833333e-01 9.95833333e-01 5.00000000e-01)
0.05            	U               	(2.90658830e-06 -2.90567616e-06 0.00000000e+00)	(4.16666667e-03 4.16666667e-03 5.00000000e-01)	(2.90658830e-06 -2.90567616e-06 0.00000000e+00)	(4.16666667e-03 4.16666667e-03 5.00000000e-01)
0.051           	p               	-2.98348669e+00	(4.16666667e-03 9.95833333e-01 5.00000000e-01)	3.53937539e+00	(9.95833333e-01 9.95833333e-01 5.00000000e-01)
0.051           	U               	(2.92232519e-06 -2.92145577e-06 0.00000000e+00)	(4.16666667e-03 4.16666667e-03 5.00000000e-01)	(2.92232519e-06 -2.92145577e-06 0.00000000e+00)	(4.16666667e-03 4.16666667e-03 5.00000000e-01)
0.052           	p               	-2.97943070e+00	(4.16666667e-03 9.95833333e-01 5.00000000e-01)	3.53728089e+00	(9.95833333e-01 9.95833333e-01 5.00000000e-01)
0.052           	U               	(2.93721867e-06 -2.93632138e-06 0.00000000e+00)	(4.16666667e-03 4.16666667e-03 5.00000000e-01)	(2.93721867e-06 -2.93632138e-06 0.00000000e+00)	(4.16666667e-03 4.16666667e-03 5.00000000e-01)
0.053           	p               	-2.97550048e+00	(4.16666667e-03 9.95833333e-01 5.00000000e-01)	3.53527812e+00	(9.95833333e-01 9.95833333e-01 5.00000000e-01)
0.053           	U               	(2.95126932e-06 -2.95034662e-06 0.00000000e+00)	(4.16666667e-03 4.16666667e-03 5.00000000e-01)	(2.95126932e-06 -2.95034662e-06 0.00000000e+00)	(4.16666667e-03 4.16666667e-03 5.00000000e-01)
0.054           	p               	-2.97168975e+00	(4.16666667e-03 9.95833333e-01 5.00000000e-01)	3.53336215e+00	(9.95833333e-01 9.95833333e-01 5.00000000e-01)
0.054           	U               	(2.96451521e-06 -2.96356866e-06 0.00000000e+00)	(4.16666667e-03 4.16666667e-03 5.00000000e-01)	(2.96451521e-06 -2.96356866e-06 0.00000000e+00)	(4.16666667e-03 4.16666667e-03 5.00000000e-01)
0.055           	p               	-2.96799288e+00	(4.16666667e-03 9.95833333e-01 5.00000000e-01)	3.53152993e+00	(9.95833333e-01 9.95833333e-01 5.00000000e-01)
0.055           	U               	(2.97698767e-06 -2.97602565e-06 0.00000000e+00)	(4.16666667e-03 4.16666667e-03 5.00000000e-01)	(2.97698767e-06 -2.97602565e-06 0.00000000e+00)	(4.16666667e-03 4.16666667e-03 5.00000000e-01)
0.056           	p               	-2.96440448e+00	(4.16666667e-03 9.95833333e-01 5.00000000e-01)	3.52977391e+00	(9.95833333e-01 9.95833333e-01 5.00000000e-01)
0.056           	U               	(2.98872396e-06 -2.98774610e-06 0.00000000e+00)	(4.16666667e-03 4.16666667e-03 5.00000000e-01)	(2.98872396e-06 -2.98774610e-06 0.00000000e+00)	(4.16666667e-03 4.16666667e-03 5.00000000e-01)
0.057           	p               	-2.96091953e+00	(4.16666667e-03 9.95833333e-01 5.00000000e-01)	3.52807108e+00	(9.95833333e-01 9.95833333e-01 5.00000000e-01)
0.057           	U               	(2.99974835e-06 -2.99876596e-06 0.00000000e+00)	(4.16666667e-03 4.16666667e-03 5.00000000e-01)	(2.99974835e-06 -2.99876596e-06 0.00000000e+00)	(4.16666667e-03 4.16666667e-03 5.00000000e-01)
0.058           	p               	-2.95753438e+00	(4.16666667e-03 9.95833333e-01 5.00000000e-01)	3.52649963e+00	(9.95833333e-01 9.95833333e-01 5.00000000e-01)
0.058           	U               	(3.01010629e-06 -3.00909669e-06 0.00000000e+00)	(4.16666667e-03 4.16666667e-03 5.00000000e-01)	(3.01010629e-06 -3.00909669e-06 0.00000000e+00)	(4.16666667e-03 4.16666667e-03 5.00000000e-01)
0.059           	p               	-2.95424434e+00	(4.16666667e-03 9.95833333e-01 5.00000000e-01)	3.52493877e+00	(9.95833333e-01 9.95833333e-01 5.00000000e-01)
0.059           	U               	(3.01979284e-06 -3.01878609e-06 0.00000000e+00)	(4.16666667e-03 4.16666667e-03 5.00000000e-01)	(3.01979284e-06 -3.01878609e-06 0.00000000e+00)	(4.16666667e-03 4.16666667e-03 5.00000000e-01)
0.06            	p               	-2.95104887e+00	(4.16666667e-03 9.95833333e-01 5.00000000e-01)	3.52346203e+00	(9.95833333e-01 9.95833333e-01 5.00000000e-01)
0.06            	U               	(3.02885982e-06 -3.02783788e-06 0.00000000e+00)	(4.16666667e-03 4.16666667e-03 5.00000000e-01)	(3.02885982e-06 -3.02783788e-06 0.00000000e+00)	(4.16666667e-03 4.16666667e-03 5.00000000e-01)
0.061           	p               	-2.94797025e+00	(4.16666667e-03 9.95833333e-01 5.00000000e-01)	3.52203847e+00	(9.95833333e-01 9.95833333e-01 5.00000000e-01)
0.061           	U               	(3.03730500e-06 -3.03628655e-06 0.00000000e+00)	(4.16666667e-03 4.16666667e-03 5.00000000e-01)	(3.03730500e-06 -3.03628655e-06 0.00000000e+00)	(4.16666667e-03 4.16666667e-03 5.00000000e-01)
0.062           	p               	-2.94489101e+00	(4.16666667e-03 9.95833333e-01 5.00000000e-01)	3.52067480e+00	(9.95833333e-01 9.95833333e-01 5.00000000e-01)
0.062           	U               	(3.04517024e-06 -3.04412695e-06 0.00000000e+00)	(4.16666667e-03 4.16666667e-03 5.00000000e-01)	(3.04517024e-06 -3.04412695e-06 0.00000000e+00)	(4.16666667e-03 4.16666667e-03 5.00000000e-01)
0.063           	p               	-2.94188472e+00	(4.16666667e-03 9.95833333e-01 5.00000000e-01)	3.51936498e+00	(9.95833333e-01 9.95833333e-01 5.00000000e-01)
0.063           	U               	(3.05244779e-06 -3.05140058e-06 0.00000000e+00)	(4.16666667e-03 4.16666667e-03 5.00000000e-01)	(3.05244779e-06 -3.05140058e-06 0.00000000e+00)	(4.16666667e-03 4.16666667e-03 5.00000000e-01)
0.064           	p               	-2.93903136e+00	(4.16666667e-03 9.95833333e-01 5.00000000e-01)	3.51810802e+00	(9.95833333e-01 9.95833333e-01 5.00000000e-01)
0.064           	U               	(3.05915546e-06 -3.05811240e-06 0.00000000e+00)	(4.16666667e-03 4.16666667e-03 5.00000000e-01)	(3.05915546e-06 -3.05811240e-06 0.00000000e+00)	(4.16666667e-03 4.16666667e-03 5.00000000e-01)
