# Field minima and maxima
# Time          	field           	min             	location(min)   	max             	location(max)   
0.01            	p               	-2.23545174e+00	(1.25000000e-02 9.87500000e-01 4.50000000e-01)	2.46428452e+00	(9.87500000e-01 9.87500000e-01 5.50000000e-01)
0.01            	U               	(-2.90216327e-02 -3.11542356e-02 -8.70003617e-02)	(9.37500000e-01 9.37500000e-01 5.00000000e-02)	(1.34252597e-01 4.72079837e-02 1.13235996e-01)	(1.25000000e-02 9.87500000e-01 5.00000000e-02)
0.02            	p               	-1.14981823e+00	(1.25000000e-02 9.87500000e-01 8.50000000e-01)	1.24569253e+00	(9.87500000e-01 9.87500000e-01 1.50000000e-01)
0.02            	U               	(-5.48683670e-02 -6.14377142e-02 -2.05569829e-02)	(9.37500000e-01 9.37500000e-01 5.00000000e-02)	(2.12524119e-01 8.94348917e-02 4.65242324e-02)	(1.25000000e-02 9.87500000e-01 5.00000000e-02)
0.03            	p               	-1.37110900e+00	(1.25000000e-02 9.87500000e-01 5.50000000e-01)	1.56395563e+00	(9.87500000e-01 9.87500000e-01 4.50000000e-01)
0.03            	U               	(-7.38474109e-02 -8.79708154e-02 -3.20930421e-02)	(9.37500000e-01 9.37500000e-01 5.00000000e-02)	(2.50709124e-01 1.18420956e-01 5.54839051e-02)	(1.25000000e-02 9.87500000e-01 5.00000000e-02)
0.04            	p               	-1.13796031e+00	(1.25000000e-02 9.87500000e-01 1.50000000e-01)	1.33776206e+00	(9.87500000e-01 9.87500000e-01 8.50000000e-01)
0.04            	U               	(-8.66429982e-02 -1.11629842e-01 -2.22821030e-02)	(9.37500000e-01 9.37500000e-01 5.00000000e-02)	(2.67017677e-01 1.35729227e-01 4.60584237e-02)	(1.25000000e-02 9.87500000e-01 5.00000000e-02)
0.05            	p               	-1.12017960e+00	(1.25000000e-02 9.87500000e-01 8.50000000e-01)	1.36341206e+00	(9.87500000e-01 9.87500000e-01 1.50000000e-01)
0.05            	U               	(-9.39609447e-02 -1.32720679e-01 -2.27649020e-02)	(9.37500000e-01 9.37500000e-01 5.00000000e-02)	(2.73214746e-01 1.44866316e-01 4.53377656e-02)	(1.25000000e-02 9.87500000e-01 5.00000000e-02)
0.06            	p               	-1.05056614e+00	(1.25000000e-02 9.87500000e-01 1.50000000e-01)	1.31261796e+00	(9.87500000e-01 9.87500000e-01 8.50000000e-01)
0.06            	U               	(-1.01714074e-01 -1.04822989e-01 -1.59243766e-02)	(9.12500000e-01 9.12500000e-01 5.00000000e-02)	(2.75264037e-01 1.49172063e-01 4.25198497e-02)	(1.25000000e-02 9.87500000e-01 5.00000000e-02)
0.07            	p               	-1.02273120e+00	(1.25000000e-02 9.87500000e-01 1.50000000e-01)	1.30903324e+00	(9.87500000e-01 9.87500000e-01 1.50000000e-01)
0.07            	U               	(-1.09696653e-01 -1.17025926e-01 -1.52689849e-02)	(9.12500000e-01 9.12500000e-01 5.00000000e-02)	(2.75778663e-01 1.50911187e-01 4.13924455e-02)	(1.25000000e-02 9.87500000e-01 5.00000000e-02)
0.08            	p               	-9.91356833e-01	(1.25000000e-02 9.87500000e-01 1.50000000e-01)	1.29685377e+00	(9.87500000e-01 9.87500000e-01 8.50000000e-01)
0.08            	U               	(-1.15562496e-01 -1.28418665e-01 -1.42432828e-02)	(9.12500000e-01 9.12500000e-01 5.00000000e-02)	(2.75781735e-01 1.51434220e-01 4.01217755e-02)	(1.25000000e-02 9.87500000e-01 5.00000000e-02)
0.09            	p               	-9.74929952e-01	(1.25000000e-02 9.87500000e-01 1.50000000e-01)	1.28980911e+00	(9.87500000e-01 9.87500000e-01 1.50000000e-01)
0.09            	U               	(-1.19524182e-01 -1.39160481e-01 -1.36415874e-02)	(9.12500000e-01 9.12500000e-01 5.00000000e-02)	(4.53823604e-02 1.52741990e-01 1.67722017e-02)	(6.25000000e-02 9.62500000e-01 5.00000000e-02)
0.1             	p               	-9.56341936e-01	(1.25000000e-02 9.87500000e-01 1.50000000e-01)	1.28280881e+00	(9.87500000e-01 9.87500000e-01 8.50000000e-01)
0.1             	U               	(-1.21827066e-01 -1.49341741e-01 -1.30479221e-02)	(9.12500000e-01 9.12500000e-01 5.00000000e-02)	(5.21618869e-02 1.58705746e-01 1.60510871e-02)	(6.25000000e-02 9.62500000e-01 5.00000000e-02)
0.11            	p               	-9.42250130e-01	(1.25000000e-02 9.87500000e-01 1.50000000e-01)	1.27996419e+00	(9.87500000e-01 9.87500000e-01 1.50000000e-01)
0.11            	U               	(-1.23782599e-01 -1.57472387e-01 -1.15400552e-02)	(9.12500000e-01 8.87500000e-01 5.00000000e-02)	(5.75800909e-02 1.63572235e-01 1.54787733e-02)	(6.25000000e-02 9.62500000e-01 5.00000000e-02)
0.12            	p               	-9.29990008e-01	(1.25000000e-02 9.87500000e-01 1.50000000e-01)	1.27748025e+00	(9.87500000e-01 9.87500000e-01 8.50000000e-01)
0.12            	U               	(-1.28620200e-01 -1.67162762e-01 -1.11577570e-02)	(9.12500000e-01 8.87500000e-01 5.00000000e-02)	(6.19541494e-02 1.67557908e-01 1.49597215e-02)	(6.25000000e-02 9.62500000e-01 5.00000000e-02)
0.13            	p               	-9.19671616e-01	(1.25000000e-02 9.87500000e-01 1.50000000e-01)	1.27614634e+00	(9.87500000e-01 9.87500000e-01 8.50000000e-01)
0.13            	U               	(-1.32601017e-01 -1.76477905e-01 -1.08366448e-02)	(9.12500000e-01 8.87500000e-01 5.00000000e-02)	(6.55122282e-02 1.70835584e-01 1.45057621e-02)	(6.25000000e-02 9.62500000e-01 5.00000000e-02)
0.14            	p               	-9.10603900e-01	(1.25000000e-02 9.87500000e-01 1.50000000e-01)	1.27512523e+00	(9.87500000e-01 9.87500000e-01 8.50000000e-01)
0.14            	U               	(-1.35791107e-01 -1.85432672e-01 -1.05441655e-02)	(9.12500000e-01 8.87500000e-01 5.00000000e-02)	(6.84234442e-02 1.73543549e-01 1.40972357e-02)	(6.25000000e-02 9.62500000e-01 5.00000000e-02)
0.15            	p               	-9.02630454e-01	(1.25000000e-02 9.87500000e-01 8.50000000e-01)	1.27464109e+00	(9.87500000e-01 9.87500000e-01 1.50000000e-01)
0.15            	U               	(-1.38261264e-01 -1.94037436e-01 -1.02863591e-02)	(9.12500000e-01 8.87500000e-01 5.00000000e-02)	(7.08175308e-02 1.75792010e-01 1.37311544e-02)	(6.25000000e-02 9.62500000e-01 5.00000000e-02)
0.16            	p               	-8.95527166e-01	(1.25000000e-02 9.87500000e-01 1.50000000e-01)	1.27458904e+00	(9.87500000e-01 9.87500000e-01 1.50000000e-01)
0.16            	U               	(-1.40091668e-01 -2.02308091e-01 -1.00565271e-02)	(9.12500000e-01 8.87500000e-01 5.00000000e-02)	(7.27953502e-02 1.77668370e-01 1.33998822e-02)	(6.25000000e-02 9.62500000e-01 5.00000000e-02)
0.17            	p               	-8.89162908e-01	(1.25000000e-02 9.87500000e-01 1.50000000e-01)	1.27470536e+00	(9.87500000e-01 9.87500000e-01 8.50000000e-01)
0.17            	U               	(-1.41352800e-01 -2.10254426e-01 -9.84722780e-03)	(9.12500000e-01 8.87500000e-01 5.00000000e-02)	(7.44358118e-02 1.79241696e-01 1.30988763e-02)	(6.25000000e-02 9.62500000e-01 5.00000000e-02)
0.18            	p               	-8.83426390e-01	(1.25000000e-02 9.87500000e-01 1.50000000e-01)	1.27508221e+00	(9.87500000e-01 9.87500000e-01 8.50000000e-01)
0.18            	U               	(-1.42112149e-01 -2.17884601e-01 -9.65845711e-03)	(9.12500000e-01 8.87500000e-01 5.00000000e-02)	(7.58009293e-02 1.80566634e-01 1.28242104e-02)	(6.25000000e-02 9.62500000e-01 5.00000000e-02)
0.19            	p               	-8.78225315e-01	(1.25000000e-02 9.87500000e-01 1.50000000e-01)	1.27562050e+00	(9.87500000e-01 9.87500000e-01 8.50000000e-01)
0.19            	U               	(-1.44292497e-01 -1.69778324e-01 -7.61860837e-03)	(8.87500000e-01 8.62500000e-01 5.00000000e-02)	(7.69397351e-02 1.81686619e-01 1.25724981e-02)	(6.25000000e-02 9.62500000e-01 5.00000000e-02)
0.2             	p               	-8.73487105e-01	(1.25000000e-02 9.87500000e-01 1.50000000e-01)	1.27603239e+00	(9.87500000e-01 9.87500000e-01 8.50000000e-01)
0.2             	U               	(-1.46674157e-01 -1.75632428e-01 -7.45883057e-03)	(8.87500000e-01 8.62500000e-01 5.00000000e-02)	(7.78913187e-02 1.82636430e-01 1.23410451e-02)	(6.25000000e-02 9.62500000e-01 5.00000000e-02)
0.21            	p               	-8.69153289e-01	(1.25000000e-02 9.87500000e-01 1.50000000e-01)	1.27656143e+00	(9.87500000e-01 9.87500000e-01 5.50000000e-01)
0.21            	U               	(-1.48668299e-01 -1.81341259e-01 -7.31023007e-03)	(8.87500000e-01 8.62500000e-01 5.00000000e-02)	(7.86871162e-02 1.83444147e-01 1.21276205e-02)	(6.25000000e-02 9.62500000e-01 5.00000000e-02)
0.22            	p               	-8.65158576e-01	(1.25000000e-02 9.87500000e-01 1.50000000e-01)	1.27735773e+00	(9.87500000e-01 9.87500000e-01 8.50000000e-01)
0.22            	U               	(-1.50294778e-01 -1.86909923e-01 -7.16761769e-03)	(8.87500000e-01 8.62500000e-01 5.00000000e-02)	(7.93526011e-02 1.84132681e-01 1.19295342e-02)	(6.25000000e-02 9.62500000e-01 5.00000000e-02)
0.23            	p               	-8.61474702e-01	(1.25000000e-02 9.87500000e-01 1.50000000e-01)	1.27836732e+00	(9.87500000e-01 9.87500000e-01 5.50000000e-01)
0.23            	U               	(-1.51583470e-01 -1.92344462e-01 -7.04191896e-03)	(8.87500000e-01 8.62500000e-01 5.00000000e-02)	(7.99087194e-02 1.84721783e-01 1.17456631e-02)	(6.25000000e-02 9.62500000e-01 5.00000000e-02)
0.24            	p               	-8.58108229e-01	(1.25000000e-02 9.87500000e-01 1.50000000e-01)	1.27928070e+00	(9.87500000e-01 9.87500000e-01 5.50000000e-01)
0.24            	U               	(-1.52561175e-01 -1.97643366e-01 -6.91627071e-03)	(8.87500000e-01 8.62500000e-01 5.00000000e-02)	(8.03718659e-02 1.85224815e-01 1.15768212e-02)	(6.25000000e-02 9.62500000e-01 5.00000000e-02)
0.25            	p               	-8.54961002e-01	(1.25000000e-02 9.87500000e-01 1.50000000e-01)	1.28032435e+00	(9.87500000e-01 9.87500000e-01 5.50000000e-01)
0.25            	U               	(-1.53253300e-01 -2.02806859e-01 -6.80047997e-03)	(8.87500000e-01 8.62500000e-01 5.00000000e-02)	(8.07568795e-02 1.85653882e-01 1.14183173e-02)	(6.25000000e-02 9.62500000e-01 5.00000000e-02)
0.26            	p               	-8.52027226e-01	(1.25000000e-02 9.87500000e-01 4.50000000e-01)	1.28137740e+00	(9.87500000e-01 9.87500000e-01 5.50000000e-01)
0.26            	U               	(-1.53684824e-01 -2.07838692e-01 -6.69131980e-03)	(8.87500000e-01 8.62500000e-01 5.00000000e-02)	(8.10759842e-02 1.86020395e-01 1.12697931e-02)	(6.25000000e-02 9.62500000e-01 5.00000000e-02)
0.27            	p               	-8.49291717e-01	(1.25000000e-02 9.87500000e-01 4.50000000e-01)	1.28245248e+00	(9.87500000e-01 9.87500000e-01 5.50000000e-01)
0.27            	U               	(-1.55192912e-01 -1.65374783e-01 -5.38386123e-03)	(8.62500000e-01 8.37500000e-01 5.00000000e-02)	(8.13388559e-02 1.86333746e-01 1.11308145e-02)	(6.25000000e-02 9.62500000e-01 5.00000000e-02)
0.28            	p               	-8.46734696e-01	(1.25000000e-02 9.87500000e-01 4.50000000e-01)	1.28354510e+00	(9.87500000e-01 9.87500000e-01 5.50000000e-01)
0.28            	U               	(-1.56867104e-01 -1.69334145e-01 -5.28553247e-03)	(8.62500000e-01 8.37500000e-01 5.00000000e-02)	(8.15536072e-02 1.86601567e-01 1.10005114e-02)	(6.25000000e-02 9.62500000e-01 5.00000000e-02)
0.29            	p               	-8.44338988e-01	(1.25000000e-02 9.87500000e-01 4.50000000e-01)	1.28465250e+00	(9.87500000e-01 9.87500000e-01 5.50000000e-01)
0.29            	U               	(-1.58318365e-01 -1.73227095e-01 -5.19106895e-03)	(8.62500000e-01 8.37500000e-01 5.00000000e-02)	(8.17271270e-02 1.86830170e-01 1.08781102e-02)	(6.25000000e-02 9.62500000e-01 5.00000000e-02)
0.3             	p               	-8.42091035e-01	(1.25000000e-02 9.87500000e-01 4.50000000e-01)	1.28577025e+00	(9.87500000e-01 9.87500000e-01 5.50000000e-01)
0.3             	U               	(-1.59557459e-01 -1.77054625e-01 -5.10028303e-03)	(8.62500000e-01 8.37500000e-01 5.00000000e-02)	(8.18652881e-02 1.87024861e-01 1.07629964e-02)	(6.25000000e-02 9.62500000e-01 5.00000000e-02)
0.31            	p               	-8.39972231e-01	(1.25000000e-02 9.87500000e-01 4.50000000e-01)	1.28679120e+00	(9.87500000e-01 9.87500000e-01 5.50000000e-01)
0.31            	U               	(-1.60591171e-01 -1.80819250e-01 -5.01216641e-03)	(8.62500000e-01 8.37500000e-01 5.00000000e-02)	(8.19730934e-02 1.87190138e-01 1.06543054e-02)	(6.25000000e-02 9.62500000e-01 5.00000000e-02)
0.32            	p               	-8.37988826e-01	(1.25000000e-02 9.87500000e-01 4.50000000e-01)	1.28812670e+00	(9.87500000e-01 9.87500000e-01 5.50000000e-01)
0.32            	U               	(-1.61439509e-01 -1.84517885e-01 -4.92922377e-03)	(8.62500000e-01 8.37500000e-01 5.00000000e-02)	(8.20548431e-02 1.87329868e-01 1.05523310e-02)	(6.25000000e-02 9.62500000e-01 5.00000000e-02)
0.33            	p               	-8.36104718e-01	(1.25000000e-02 9.87500000e-01 4.50000000e-01)	1.28916043e+00	(9.87500000e-01 9.87500000e-01 5.50000000e-01)
0.33            	U               	(-1.62110777e-01 -1.88152493e-01 -4.84711174e-03)	(8.62500000e-01 8.37500000e-01 5.00000000e-02)	(8.21141866e-02 1.87447355e-01 1.04553837e-02)	(6.25000000e-02 9.62500000e-01 5.00000000e-02)
0.34            	p               	-8.34329735e-01	(1.25000000e-02 9.87500000e-01 4.50000000e-01)	1.29031774e+00	(9.87500000e-01 9.87500000e-01 5.50000000e-01)
0.34            	U               	(-1.62613813e-01 -1.91724137e-01 -4.76888862e-03)	(8.62500000e-01 8.37500000e-01 5.00000000e-02)	(8.21542593e-02 1.87545449e-01 1.03639108e-02)	(6.25000000e-02 9.62500000e-01 5.00000000e-02)
0.35            	p               	-8.32647745e-01	(1.25000000e-02 9.87500000e-01 4.50000000e-01)	1.29142543e+00	(9.87500000e-01 9.87500000e-01 5.50000000e-01)
0.35            	U               	(-1.62958862e-01 -1.95233475e-01 -4.69283828e-03)	(8.62500000e-01 8.37500000e-01 5.00000000e-02)	(8.21777566e-02 1.87626621e-01 1.02771535e-02)	(6.25000000e-02 9.62500000e-01 5.00000000e-02)
0.36            	p               	-8.31054028e-01	(1.25000000e-02 9.87500000e-01 4.50000000e-01)	1.29254415e+00	(9.87500000e-01 9.87500000e-01 5.50000000e-01)
0.36            	U               	(-1.64317980e-01 -1.57395412e-01 -3.81193171e-03)	(8.37500000e-01 8.12500000e-01 5.00000000e-02)	(8.21869957e-02 1.87693006e-01 1.01948783e-02)	(6.25000000e-02 9.62500000e-01 5.00000000e-02)
0.37            	p               	-8.29543655e-01	(1.25000000e-02 9.87500000e-01 4.50000000e-01)	1.29366488e+00	(9.87500000e-01 9.87500000e-01 5.50000000e-01)
0.37            	U               	(-1.65620762e-01 -1.60168157e-01 -3.74283475e-03)	(8.37500000e-01 8.12500000e-01 5.00000000e-02)	(8.21839820e-02 1.87746464e-01 1.01168440e-02)	(6.25000000e-02 9.62500000e-01 5.00000000e-02)
0.38            	p               	-8.28106718e-01	(1.25000000e-02 9.87500000e-01 4.50000000e-01)	1.29476727e+00	(9.87500000e-01 9.87500000e-01 5.50000000e-01)
0.38            	U               	(-1.66783474e-01 -1.62907310e-01 -3.67484346e-03)	(8.37500000e-01 8.12500000e-01 5.00000000e-02)	(8.21704425e-02 1.87788605e-01 1.00425740e-02)	(6.25000000e-02 9.62500000e-01 5.00000000e-02)
0.39            	p               	-8.26741067e-01	(1.25000000e-02 9.87500000e-01 4.50000000e-01)	1.29586259e+00	(9.87500000e-01 9.87500000e-01 5.50000000e-01)
0.39            	U               	(-1.67811220e-01 -1.65613047e-01 -3.60852729e-03)	(8.37500000e-01 8.12500000e-01 5.00000000e-02)	(8.21478757e-02 1.87820835e-01 9.97195513e-03)	(6.25000000e-02 9.62500000e-01 5.00000000e-02)
0.4             	p               	-8.25440860e-01	(1.25000000e-02 9.87500000e-01 4.50000000e-01)	1.29695550e+00	(9.87500000e-01 9.87500000e-01 5.50000000e-01)
0.4             	U               	(-1.68709453e-01 -1.68285916e-01 -3.54388881e-03)	(8.37500000e-01 8.12500000e-01 5.00000000e-02)	(8.21175817e-02 1.87844382e-01 9.90470084e-03)	(6.25000000e-02 9.62500000e-01 5.00000000e-02)
0.41            	p               	-8.24201847e-01	(1.25000000e-02 9.87500000e-01 4.50000000e-01)	1.29803469e+00	(9.87500000e-01 9.87500000e-01 5.50000000e-01)
0.41            	U               	(-1.69483467e-01 -1.70926195e-01 -3.48054756e-03)	(8.37500000e-01 8.12500000e-01 5.00000000e-02)	(8.20806905e-02 1.87860320e-01 9.84059953e-03)	(6.25000000e-02 9.62500000e-01 5.00000000e-02)
0.42            	p               	-8.23019842e-01	(1.25000000e-02 9.87500000e-01 4.50000000e-01)	1.29911013e+00	(9.87500000e-01 9.87500000e-01 5.50000000e-01)
0.42            	U               	(-1.70138567e-01 -1.73533923e-01 -3.41857951e-03)	(8.37500000e-01 8.12500000e-01 5.00000000e-02)	(8.20381849e-02 1.87869591e-01 9.77944217e-03)	(6.25000000e-02 9.62500000e-01 5.00000000e-02)
0.43            	p               	-8.21891547e-01	(1.25000000e-02 9.87500000e-01 4.50000000e-01)	1.30017566e+00	(9.87500000e-01 9.87500000e-01 7.50000000e-01)
0.43            	U               	(-1.70680061e-01 -1.76109144e-01 -3.35792843e-03)	(8.37500000e-01 8.12500000e-01 5.00000000e-02)	(8.19909218e-02 1.87873020e-01 9.72106226e-03)	(6.25000000e-02 9.62500000e-01 5.00000000e-02)
0.44            	p               	-8.20811364e-01	(1.25000000e-02 9.87500000e-01 4.50000000e-01)	1.30116754e+00	(9.87500000e-01 9.87500000e-01 5.50000000e-01)
0.44            	U               	(-1.71112409e-01 -1.78652617e-01 -3.29854782e-03)	(8.37500000e-01 8.12500000e-01 5.00000000e-02)	(8.19396442e-02 1.87871332e-01 9.66518525e-03)	(6.25000000e-02 9.62500000e-01 5.00000000e-02)
0.45            	p               	-8.19780697e-01	(1.25000000e-02 9.87500000e-01 4.50000000e-01)	1.30222289e+00	(9.87500000e-01 9.87500000e-01 5.50000000e-01)
0.45            	U               	(-1.71441179e-01 -1.81164170e-01 -3.24047261e-03)	(8.37500000e-01 8.12500000e-01 5.00000000e-02)	(8.18850061e-02 1.87865168e-01 9.61186439e-03)	(6.25000000e-02 9.62500000e-01 5.00000000e-02)
0.46            	p               	-8.18793707e-01	(1.25000000e-02 9.87500000e-01 4.50000000e-01)	1.30324521e+00	(9.87500000e-01 9.87500000e-01 5.50000000e-01)
0.46            	U               	(-1.72573633e-01 -1.46970381e-01 -2.64022292e-03)	(8.12500000e-01 7.87500000e-01 5.00000000e-02)	(8.18275784e-02 1.87855094e-01 9.56081571e-03)	(6.25000000e-02 9.62500000e-01 5.00000000e-02)
0.47            	p               	-8.17848124e-01	(1.25000000e-02 9.87500000e-01 4.50000000e-01)	1.30425579e+00	(9.87500000e-01 9.87500000e-01 5.50000000e-01)
0.47            	U               	(-1.73654663e-01 -1.48934940e-01 -2.58698611e-03)	(8.12500000e-01 7.87500000e-01 5.00000000e-02)	(8.17678581e-02 1.87841607e-01 9.51192176e-03)	(6.25000000e-02 9.62500000e-01 5.00000000e-02)
0.48            	p               	-8.16941868e-01	(1.25000000e-02 9.87500000e-01 4.50000000e-01)	1.30525482e+00	(9.87500000e-01 9.87500000e-01 5.50000000e-01)
0.48            	U               	(-1.74642168e-01 -1.50881430e-01 -2.53454121e-03)	(8.12500000e-01 7.87500000e-01 5.00000000e-02)	(8.17062801e-02 1.87825147e-01 9.46507526e-03)	(6.25000000e-02 9.62500000e-01 5.00000000e-02)
0.49            	p               	-8.16072603e-01	(1.25000000e-02 9.87500000e-01 4.50000000e-01)	1.30624666e+00	(9.87500000e-01 9.87500000e-01 5.50000000e-01)
0.49            	U               	(-1.75600116e-01 -1.90293633e-01 -2.98149292e-03)	(8.37500000e-01 7.87500000e-01 5.00000000e-02)	(8.16432245e-02 1.87806104e-01 9.42015667e-03)	(6.25000000e-02 9.62500000e-01 5.00000000e-02)
0.5             	p               	-8.15238406e-01	(1.25000000e-02 9.87500000e-01 4.50000000e-01)	1.30724179e+00	(9.87500000e-01 9.87500000e-01 5.50000000e-01)
0.5             	U               	(-1.76522921e-01 -1.92794534e-01 -2.93407517e-03)	(8.37500000e-01 7.87500000e-01 5.00000000e-02)	(8.15790236e-02 1.87784822e-01 9.37706589e-03)	(6.25000000e-02 9.62500000e-01 5.00000000e-02)
0.51            	p               	-8.14437708e-01	(1.25000000e-02 9.87500000e-01 4.50000000e-01)	1.30827999e+00	(9.87500000e-01 9.87500000e-01 7.50000000e-01)
0.51            	U               	(-1.77362797e-01 -1.95268161e-01 -2.88746267e-03)	(8.37500000e-01 7.87500000e-01 5.00000000e-02)	(8.15139683e-02 1.87761609e-01 9.33572123e-03)	(6.25000000e-02 9.62500000e-01 5.00000000e-02)
0.52            	p               	-8.13664841e-01	(1.25000000e-02 9.87500000e-01 4.50000000e-01)	1.30899886e+00	(9.87500000e-01 9.87500000e-01 5.50000000e-01)
0.52            	U               	(-1.78121830e-01 -1.97715114e-01 -2.84139682e-03)	(8.37500000e-01 7.87500000e-01 5.00000000e-02)	(8.14483066e-02 1.87736733e-01 9.29584808e-03)	(6.25000000e-02 9.62500000e-01 5.00000000e-02)
0.53            	p               	-8.12924157e-01	(1.25000000e-02 9.87500000e-01 4.50000000e-01)	1.30985436e+00	(9.87500000e-01 9.87500000e-01 7.50000000e-01)
0.53            	U               	(-1.78802465e-01 -2.00135375e-01 -2.79606111e-03)	(8.37500000e-01 7.87500000e-01 5.00000000e-02)	(8.13822617e-02 1.87710436e-01 9.25764144e-03)	(6.25000000e-02 9.62500000e-01 5.00000000e-02)
0.54            	p               	-8.12213786e-01	(1.25000000e-02 9.87500000e-01 4.50000000e-01)	1.31087669e+00	(9.87500000e-01 9.87500000e-01 5.50000000e-01)
0.54            	U               	(-1.79408878e-01 -2.02528405e-01 -2.75182332e-03)	(8.37500000e-01 7.87500000e-01 5.00000000e-02)	(8.13160357e-02 1.87682943e-01 9.22100582e-03)	(6.25000000e-02 9.62500000e-01 5.00000000e-02)
0.55            	p               	-8.11513856e-01	(1.25000000e-02 9.87500000e-01 4.50000000e-01)	1.31176583e+00	(9.87500000e-01 9.87500000e-01 7.50000000e-01)
0.55            	U               	(-1.79943749e-01 -2.04893999e-01 -2.70744401e-03)	(8.37500000e-01 7.87500000e-01 5.00000000e-02)	(8.12497821e-02 1.87654516e-01 9.18499988e-03)	(6.25000000e-02 9.62500000e-01 5.00000000e-02)
0.56            	p               	-8.10879715e-01	(1.25000000e-02 9.87500000e-01 4.50000000e-01)	1.31268492e+00	(9.87500000e-01 9.87500000e-01 7.50000000e-01)
0.56            	U               	(-1.80409536e-01 -2.07232800e-01 -2.66542352e-03)	(8.37500000e-01 7.87500000e-01 5.00000000e-02)	(8.11836629e-02 1.87625096e-01 9.15223375e-03)	(6.25000000e-02 9.62500000e-01 5.00000000e-02)
0.57            	p               	-8.10233290e-01	(1.25000000e-02 9.87500000e-01 4.50000000e-01)	1.31354733e+00	(9.87500000e-01 9.87500000e-01 7.50000000e-01)
0.57            	U               	(-1.80808945e-01 -2.09544647e-01 -2.62249312e-03)	(8.37500000e-01 7.87500000e-01 5.00000000e-02)	(8.11178069e-02 1.87594953e-01 9.11899695e-03)	(6.25000000e-02 9.62500000e-01 5.00000000e-02)
0.58            	p               	-8.09622984e-01	(1.25000000e-02 9.87500000e-01 4.50000000e-01)	1.31441201e+00	(9.87500000e-01 9.87500000e-01 7.50000000e-01)
0.58            	U               	(-1.81144670e-01 -2.11829448e-01 -2.58085264e-03)	(8.37500000e-01 7.87500000e-01 5.00000000e-02)	(2.72342675e-01 1.47499784e-01 3.27639107e-02)	(1.25000000e-02 9.87500000e-01 5.00000000e-02)
0.59            	p               	-8.09029847e-01	(1.25000000e-02 9.87500000e-01 4.50000000e-01)	1.31526075e+00	(9.87500000e-01 9.87500000e-01 7.50000000e-01)
0.59            	U               	(-1.81419349e-01 -2.14087269e-01 -2.53971850e-03)	(8.37500000e-01 7.87500000e-01 5.00000000e-02)	(8.09872704e-02 1.87533133e-01 9.05709996e-03)	(6.25000000e-02 9.62500000e-01 5.00000000e-02)
0.6             	p               	-8.08459962e-01	(1.25000000e-02 9.87500000e-01 4.50000000e-01)	1.31609869e+00	(9.87500000e-01 9.87500000e-01 7.50000000e-01)
0.6             	U               	(-1.81635571e-01 -2.16318152e-01 -2.49929993e-03)	(8.37500000e-01 7.87500000e-01 5.00000000e-02)	(8.09227747e-02 1.87501686e-01 9.02781262e-03)	(6.25000000e-02 9.62500000e-01 5.00000000e-02)
0.61            	p               	-8.07908973e-01	(1.25000000e-02 9.87500000e-01 4.50000000e-01)	1.31692325e+00	(9.87500000e-01 9.87500000e-01 7.50000000e-01)
0.61            	U               	(-1.81795855e-01 -2.18522127e-01 -2.45947841e-03)	(8.37500000e-01 7.87500000e-01 5.00000000e-02)	(8.08588879e-02 1.87470001e-01 8.99952136e-03)	(6.25000000e-02 9.62500000e-01 5.00000000e-02)
0.62            	p               	-8.07377976e-01	(1.25000000e-02 9.87500000e-01 4.50000000e-01)	1.31773488e+00	(9.87500000e-01 9.87500000e-01 7.50000000e-01)
0.62            	U               	(-1.81902660e-01 -2.20699213e-01 -2.42027426e-03)	(8.37500000e-01 7.87500000e-01 5.00000000e-02)	(8.07956777e-02 1.87438155e-01 8.97226682e-03)	(6.25000000e-02 9.62500000e-01 5.00000000e-02)
0.63            	p               	-8.06863477e-01	(1.25000000e-02 9.87500000e-01 4.50000000e-01)	1.31853239e+00	(9.87500000e-01 9.87500000e-01 7.50000000e-01)
0.63            	U               	(-1.81958333e-01 -2.22849353e-01 -2.38159358e-03)	(8.37500000e-01 7.87500000e-01 5.00000000e-02)	(2.72310473e-01 1.47470439e-01 3.26521770e-02)	(1.25000000e-02 9.87500000e-01 5.00000000e-02)
0.64            	p               	-8.06368843e-01	(1.25000000e-02 9.87500000e-01 4.50000000e-01)	1.31932848e+00	(9.87500000e-01 9.87500000e-01 7.50000000e-01)
0.64            	U               	(-1.82473557e-01 -2.19204933e-01 -2.33339044e-03)	(8.37500000e-01 7.62500000e-01 5.00000000e-02)	(8.06714639e-02 1.87374249e-01 8.92052393e-03)	(6.25000000e-02 9.62500000e-01 5.00000000e-02)
0.65            	p               	-8.05889085e-01	(1.25000000e-02 9.87500000e-01 4.50000000e-01)	1.32010259e+00	(9.87500000e-01 9.87500000e-01 7.50000000e-01)
0.65            	U               	(-1.83140848e-01 -2.21400149e-01 -2.29928592e-03)	(8.37500000e-01 7.62500000e-01 5.00000000e-02)	(8.06105408e-02 1.87342309e-01 8.89594984e-03)	(6.25000000e-02 9.62500000e-01 5.00000000e-02)
0.66            	p               	-8.05424238e-01	(1.25000000e-02 9.87500000e-01 4.50000000e-01)	1.32086776e+00	(9.87500000e-01 9.87500000e-01 7.50000000e-01)
0.66            	U               	(-1.83757611e-01 -2.23572857e-01 -2.26568657e-03)	(8.37500000e-01 7.62500000e-01 5.00000000e-02)	(8.05504425e-02 1.87310448e-01 8.87215724e-03)	(6.25000000e-02 9.62500000e-01 5.00000000e-02)
0.67            	p               	-8.04979048e-01	(1.25000000e-02 9.87500000e-01 3.50000000e-01)	1.32162280e+00	(9.87500000e-01 9.87500000e-01 7.50000000e-01)
0.67            	U               	(-1.84325454e-01 -2.25723039e-01 -2.23251399e-03)	(8.37500000e-01 7.62500000e-01 5.00000000e-02)	(8.04911984e-02 1.87278707e-01 8.84936879e-03)	(6.25000000e-02 9.62500000e-01 5.00000000e-02)
0.68            	p               	-8.04543954e-01	(1.25000000e-02 9.87500000e-01 2.50000000e-01)	1.32236533e+00	(9.87500000e-01 9.87500000e-01 7.50000000e-01)
0.68            	U               	(-1.84845962e-01 -2.27850661e-01 -2.19970984e-03)	(8.37500000e-01 7.62500000e-01 5.00000000e-02)	(8.04328248e-02 1.87247127e-01 8.82712842e-03)	(6.25000000e-02 9.62500000e-01 5.00000000e-02)
0.69            	p               	-8.04124813e-01	(1.25000000e-02 9.87500000e-01 2.50000000e-01)	1.32309886e+00	(9.87500000e-01 9.87500000e-01 7.50000000e-01)
0.69            	U               	(-1.85320728e-01 -2.29955688e-01 -2.16732228e-03)	(8.37500000e-01 7.62500000e-01 5.00000000e-02)	(8.03753338e-02 1.87215744e-01 8.80570940e-03)	(6.25000000e-02 9.62500000e-01 5.00000000e-02)
0.7             	p               	-8.03718725e-01	(1.25000000e-02 9.87500000e-01 2.50000000e-01)	1.32383002e+00	(9.87500000e-01 9.87500000e-01 7.50000000e-01)
0.7             	U               	(-1.85751451e-01 -2.32037987e-01 -2.13533117e-03)	(8.37500000e-01 7.62500000e-01 5.00000000e-02)	(8.03187362e-02 1.87184589e-01 8.78497119e-03)	(6.25000000e-02 9.62500000e-01 5.00000000e-02)
0.71            	p               	-8.03323859e-01	(1.25000000e-02 9.87500000e-01 2.50000000e-01)	1.32451473e+00	(9.87500000e-01 9.87500000e-01 5.50000000e-01)
0.71            	U               	(-1.86139203e-01 -2.34097881e-01 -2.10367471e-03)	(8.37500000e-01 7.62500000e-01 5.00000000e-02)	(8.02630350e-02 1.87153684e-01 8.76482554e-03)	(6.25000000e-02 9.62500000e-01 5.00000000e-02)
0.72            	p               	-8.02943786e-01	(1.25000000e-02 9.87500000e-01 2.50000000e-01)	1.32522925e+00	(9.87500000e-01 9.87500000e-01 7.50000000e-01)
0.72            	U               	(-1.86485740e-01 -2.36135348e-01 -2.07256786e-03)	(8.37500000e-01 7.62500000e-01 5.00000000e-02)	(8.02082375e-02 1.87123056e-01 8.74543681e-03)	(6.25000000e-02 9.62500000e-01 5.00000000e-02)
0.73            	p               	-8.02574330e-01	(1.25000000e-02 9.87500000e-01 2.50000000e-01)	1.32591515e+00	(9.87500000e-01 9.87500000e-01 7.50000000e-01)
0.73            	U               	(-1.86792576e-01 -2.38150312e-01 -2.04170921e-03)	(8.37500000e-01 7.62500000e-01 5.00000000e-02)	(8.01543441e-02 1.87092723e-01 8.72660627e-03)	(6.25000000e-02 9.62500000e-01 5.00000000e-02)
0.74            	p               	-8.02216719e-01	(1.25000000e-02 9.87500000e-01 2.50000000e-01)	1.32659751e+00	(9.87500000e-01 9.87500000e-01 7.50000000e-01)
0.74            	U               	(-1.87061147e-01 -2.40142766e-01 -2.01128595e-03)	(8.37500000e-01 7.62500000e-01 5.00000000e-02)	(8.01013540e-02 1.87062702e-01 8.70838897e-03)	(6.25000000e-02 9.62500000e-01 5.00000000e-02)
0.75            	p               	-8.01869662e-01	(1.25000000e-02 9.87500000e-01 2.50000000e-01)	1.32726777e+00	(9.87500000e-01 9.87500000e-01 7.50000000e-01)
0.75            	U               	(-1.87292872e-01 -2.42112764e-01 -1.98122642e-03)	(8.37500000e-01 7.62500000e-01 5.00000000e-02)	(8.00492630e-02 1.87033008e-01 8.69072172e-03)	(6.25000000e-02 9.62500000e-01 5.00000000e-02)
0.76            	p               	-8.01533482e-01	(1.25000000e-02 9.87500000e-01 2.50000000e-01)	1.32792878e+00	(9.87500000e-01 9.87500000e-01 7.50000000e-01)
0.76            	U               	(-1.87489121e-01 -2.44060349e-01 -1.95155149e-03)	(8.37500000e-01 7.62500000e-01 5.00000000e-02)	(7.99980667e-02 1.87003652e-01 8.67361741e-03)	(6.25000000e-02 9.62500000e-01 5.00000000e-02)
0.77            	p               	-8.01207322e-01	(1.25000000e-02 9.87500000e-01 2.50000000e-01)	1.32858048e+00	(9.87500000e-01 9.87500000e-01 7.50000000e-01)
0.77            	U               	(-1.83300436e-01 -2.35040252e-01 -1.92408639e-03)	(8.37500000e-01 7.37500000e-01 5.00000000e-02)	(7.99477586e-02 1.86974646e-01 8.65703335e-03)	(6.25000000e-02 9.62500000e-01 5.00000000e-02)
0.78            	p               	-8.00891202e-01	(1.25000000e-02 9.87500000e-01 7.50000000e-01)	1.32922353e+00	(9.87500000e-01 9.87500000e-01 7.50000000e-01)