/*--------------------------------*- C++ -*----------------------------------*\
  =========                 |
  \\      /  F ield         | OpenFOAM: The Open Source CFD Toolbox
   \\    /   O peration     | Website:  https://openfoam.org
    \\  /    A nd           | Version:  7
     \\/     M anipulation  |
\*---------------------------------------------------------------------------*/
FoamFile
{
    version     2.0;
    format      ascii;
    class       volScalarField;
    location    "36";
    object      p;
}
// * * * * * * * * * * * * * * * * * * * * * * * * * * * * * * * * * * * * * //

dimensions      [0 2 -2 0 0 0 0];

internalField   nonuniform List<scalar> 
16000
(
8.5211279e-06
-0.00013181783
-0.00044332093
-0.00084568237
-0.0012638951
-0.001652568
-0.0019808283
-0.0022298331
-0.0023889444
-0.0024524596
-0.0024174405
-0.0022824293
-0.0020468536
-0.001710956
-0.001276095
-0.00074528105
-0.00012382676
0.00058000029
0.0013544243
0.0021837949
0.0030484867
0.003925138
0.0047872609
0.0056062619
0.0063528204
0.0069985656
0.0075179461
0.0078901597
0.0081009937
0.008144402
0.0080236408
0.0077518407
0.0073519998
0.0068565191
0.0063062126
0.0057486129
0.0052388322
0.0048332245
0.0045934469
0.0045547518
0.0001530769
8.1608041e-06
-0.00024192781
-0.00055080984
-0.00087300533
-0.0011742059
-0.0014301688
-0.0016247131
-0.0017474751
-0.0017920121
-0.001754386
-0.0016322355
-0.0014243058
-0.0011303633
-0.000751398
-0.00029001483
0.00024907642
0.00085856282
0.0015281073
0.002244076
0.0029894724
0.0037442735
0.0044857721
0.005189606
0.0058309157
0.0063858055
0.0068329638
0.0071553019
0.0073414778
0.0073871835
0.0072960678
0.0070801675
0.0067597522
0.0063626071
0.0059228867
0.0054795131
0.0050736381
0.0047487904
0.0045502623
0.0045150012
0.0004717257
0.00025384433
-1.9926918e-06
-0.00028104172
-0.00056128681
-0.00081822308
-0.0010340645
-0.0011967554
-0.0012980878
-0.0013325387
-0.0012963889
-0.001187108
-0.0010030575
-0.00074348244
-0.0004087287
-6.1148586e-07
0.00047713429
0.0010183932
0.00161427
0.0022528288
0.0029190648
0.0035950297
0.0042603702
0.0048930904
0.0054706407
0.0059712759
0.0063755857
0.0066680546
0.0068384845
0.0068831399
0.0068055161
0.0066166587
0.0063349437
0.0059852577
0.0055976323
0.0052054558
0.0048432103
0.0045451128
0.004347632
0.0042804264
0.00089334006
0.00056208348
0.00026139216
-2.4393368e-05
-0.00029499796
-0.0005341473
-0.00073027641
-0.000876174
-0.00096677041
-0.00099836874
-0.00096815324
-0.00087383685
-0.00071354885
-0.00048595187
-0.00019053869
0.00017194783
0.00059903009
0.0010860027
0.0016254925
0.0022071481
0.0028175327
0.0034401946
0.0040561775
0.0046447048
0.0051842204
0.0056536959
0.0060341392
0.0063101779
0.0064715333
0.0065141846
0.0064410748
0.0062623019
0.0059947897
0.0056614139
0.0052895498
0.0049091562
0.0045508404
0.0042443962
0.004016372
0.0038807741
0.0013441379
0.00088447071
0.00052131813
0.00021100576
-6.6703552e-05
-0.00030276413
-0.00049149704
-0.0006306401
-0.00071853936
-0.00075363097
-0.00073425114
-0.00065849665
-0.00052428353
-0.00032960104
-7.2916562e-05
0.00024631489
0.00062708782
0.0010662814
0.0015581447
0.0020938957
0.0026615066
0.0032457378
0.0038285045
0.004389568
0.004907561
0.0053612962
0.0057312872
0.0060013769
0.0061603111
0.0062030335
0.0061314744
0.0059546969
0.0056884171
0.0053539869
0.0049768627
0.0045846954
0.004205827
0.0038673433
0.0035846433
0.0033609859
0.0017709865
0.0011778576
0.00074319549
0.00039715106
0.00010059189
-0.00014369946
-0.00033541293
-0.00047699774
-0.00057014428
-0.00061543031
-0.00061236751
-0.00055943004
-0.00045426131
-0.00029406091
-7.6106736e-05
0.00020162516
0.00053978861
0.00093699568
0.0013891985
0.0018891817
0.0024262325
0.0029860755
0.0035511208
0.0041011184
0.0046141848
0.005068168
0.0054422463
0.0057186398
0.0058842892
0.0059323109
0.0058629788
0.0056840008
0.0054100007
0.0050613152
0.0046622542
0.0042391816
0.0038196321
0.0034301597
0.0030776323
0.0027503184
0.0021286803
0.001403703
0.00089411398
0.00050588499
0.00018261881
-7.8358045e-05
-0.00028156381
-0.00043377692
-0.00053977717
-0.00060210865
-0.00062132295
-0.00059614692
-0.00052381787
-0.00040059396
-0.00022239175
1.4479862e-05
0.00031252523
0.00067225879
0.0010914536
0.0015645049
0.002081975
0.0026304151
0.0031924849
0.0037475342
0.0042725996
0.0047438299
0.0051382225
0.0054355024
0.0056199625
0.0056820856
0.0056197399
0.0054387053
0.0051523254
0.0047802573
0.0043464648
0.0038771166
0.0034003032
0.0029437948
0.0025075875
0.0020660506
0.0023786536
0.0015272513
0.00094317595
0.00050999975
0.00015541596
-0.00012813577
-0.00034952834
-0.00051944936
-0.00064542878
-0.0007317
-0.0007796193
-0.00078795763
-0.00075335052
-0.0006709225
-0.00053503466
-0.00034012801
-8.1636889e-05
0.00024307022
0.00063378539
0.0010866648
0.0015936221
0.0021420261
0.002714675
0.0032902927
0.0038444475
0.0043509916
0.0047839267
0.0051195188
0.0053384188
0.0054275451
0.0053815214
0.0052034748
0.0049049896
0.0045050387
0.0040278443
0.0035004911
0.0029530335
0.0024160842
0.0018846731
0.0013221608
0.0024870998
0.001516808
0.00086107801
0.00038261574
-5.689762e-06
-0.00031591169
-0.00056089004
-0.00075481529
-0.00090760623
-0.0010248702
-0.0011084901
-0.0011570318
-0.0011662979
-0.0011300546
-0.0010408817
-0.00089112055
-0.00067389797
-0.00038419622
-1.9914525e-05
0.00041715113
0.00092050838
0.0014785115
0.0020741382
0.0026854007
0.0032861529
0.0038474927
0.0043396973
0.0047345615
0.00500789
0.0051418118
0.0051266117
0.0049618646
0.0046567255
0.0042291778
0.0037039785
0.003110071
0.0024809211
0.0018516564
0.0012137144
0.00052022352
0.002423549
0.0013432937
0.00062025303
9.7684876e-05
-0.00032535235
-0.00066520148
-0.00093836183
-0.0011621591
-0.0013485533
-0.001504212
-0.0016312622
-0.0017278105
-0.0017885888
-0.0018057673
-0.001769893
-0.0016709331
-0.0014994046
-0.0012475637
-0.0009106158
-0.00048788613
1.6154703e-05
0.00059127067
0.0012208527
0.0018823016
0.002547643
0.003184865
0.0037598738
0.0042389972
0.004591849
0.0047942086
0.0048304871
0.0046954222
0.0043948079
0.0039451034
0.0033715808
0.0027057007
0.0019857
0.001252974
0.00049646717
-0.00034068295
0.0021602257
0.00098007693
0.00019510334
-0.00036944704
-0.00082739184
-0.0011991705
-0.0015046949
-0.001764106
-0.0019910942
-0.0021931009
-0.0023722378
-0.0025259151
-0.0026475715
-0.0027275529
-0.0027541151
-0.0027145431
-0.002596376
-0.0023887135
-0.0020835702
-0.001677236
-0.0011715503
-0.00057463256
9.7795801e-05
0.00082291118
0.0015710096
0.002306735
0.002991028
0.0035837567
0.0040469176
0.0043481191
0.0044638838
0.0043822318
0.0041041493
0.003643693
0.003026371
0.0022865567
0.0014684515
0.00062149578
-0.00026699797
-0.0012641713
0.0016719316
0.00040304133
-0.00043772012
-0.0010415539
-0.0015341337
-0.0019398439
-0.0022817979
-0.0025826766
-0.002857639
-0.0031146639
-0.0033556315
-0.0035770572
-0.0037708937
-0.0039254588
-0.0040264724
-0.0040582196
-0.0040048456
-0.0038517699
-0.0035871868
-0.0032035909
-0.0026992627
-0.0020797998
-0.0013587233
-0.00055846399
0.0002899521
0.0011478376
0.0019706831
0.0027108925
0.0033213118
0.003759332
0.0039911407
0.0039954959
0.0037663673
0.003313897
0.0026631477
0.0018515561
0.00093034643
-4.1207664e-05
-0.0010768051
-0.0022546434
0.00093626472
-0.00040915143
-0.0012989478
-0.001939019
-0.002465755
-0.0029073253
-0.0032898477
-0.0036383033
-0.0039691123
-0.004290616
-0.0046043129
-0.0049056836
-0.005185051
-0.0054285376
-0.0056191109
-0.0057377526
-0.0057647836
-0.0056813565
-0.0054710932
-0.0051218079
-0.0046272637
-0.0039890893
-0.0032177606
-0.0023341476
-0.0013697157
-0.000366055
0.00062668703
0.0015525442
0.0023535812
0.0029746624
0.0033687587
0.0035021521
0.0033586943
0.0029421698
0.0022757975
0.0013998338
0.00037347468
-0.00073230613
-0.0019317855
-0.0033154074
-6.5951775e-05
-0.0014746616
-0.0024062451
-0.0030792921
-0.0036396181
-0.0041189953
-0.004546354
-0.0049487648
-0.0053437553
-0.0057399243
-0.006138316
-0.0065333169
-0.0069135488
-0.0072628296
-0.0075612003
-0.0077860664
-0.0079135106
-0.0079198153
-0.0077832049
-0.0074857726
-0.0070155433
-0.0063686461
-0.0055511287
-0.0045807822
-0.0034881664
-0.0023168105
-0.0011221804
3.0827722e-05
0.0010719365
0.0019309473
0.0025442435
0.0028616839
0.0028529159
0.0025117711
0.0018571555
0.00093118776
-0.00019824911
-0.001446474
-0.0028279798
-0.0044469573
-0.0013501324
-0.0028080046
-0.0037737329
-0.004476343
-0.0050696187
-0.0055887226
-0.0060652128
-0.0065280716
-0.0069958362
-0.007477332
-0.0079731611
-0.0084766496
-0.0089747416
-0.0094489271
-0.0098762165
-0.01023022
-0.010482407
-0.010603612
-0.010565831
-0.010344307
-0.0099198975
-0.0092816206
-0.0084291717
-0.0073753429
-0.0061479303
-0.0047908241
-0.0033638129
-0.0019406621
-0.00060516344
0.00055488729
0.0014554848
0.0020253005
0.0022145533
0.0020021572
0.0013988308
0.00044648267
-0.00077812668
-0.0021745238
-0.0037570118
-0.0056451893
-0.0029273689
-0.0044195925
-0.005411535
-0.0061401536
-0.00676558
-0.0073261218
-0.0078557933
-0.0083853536
-0.0089343199
-0.0095117953
-0.010118043
-0.010745459
-0.01137944
-0.011999235
-0.012578823
-0.013087887
-0.013492986
-0.013758988
-0.013850874
-0.01373593
-0.013386352
-0.012782218
-0.011914674
-0.010789124
-0.0094281543
-0.0078737331
-0.0061881639
-0.0044531589
-0.0027664453
-0.0012355425
3.121581e-05
0.00093579835
0.0014024889
0.0013886637
0.00089119384
-5.1864723e-05
-0.0013556242
-0.002901873
-0.0047042421
-0.0068993949
-0.0048039188
-0.006315352
-0.0073254204
-0.0080763099
-0.0087327457
-0.0093359037
-0.0099221056
-0.010523812
-0.011161575
-0.011844922
-0.012573981
-0.013340453
-0.014128422
-0.014915099
-0.01567156
-0.016363561
-0.016952566
-0.017397076
-0.017654373
-0.017682759
-0.017444339
-0.01690836
-0.016055056
-0.014879664
-0.013396528
-0.011642634
-0.009680038
-0.0075963917
-0.0055026732
-0.0035273602
-0.0018066837
-0.00047129661
0.00036940007
0.00064270603
0.00032372026
-0.00055913809
-0.0019150929
-0.0036067561
-0.0056466116
-0.0081899053
-0.0069808192
-0.0084964881
-0.0095166075
-0.010285762
-0.010971435
-0.011617378
-0.012262113
-0.012939809
-0.013672209
-0.014469526
-0.015332074
-0.016251201
-0.01721002
-0.018184023
-0.019141637
-0.020044838
-0.02084998
-0.02150896
-0.02197085
-0.022184111
-0.022099482
-0.021673615
-0.020873429
-0.019681069
-0.018099135
-0.016155815
-0.013909112
-0.011449308
-0.0088984927
-0.0064059261
-0.0041382838
-0.0022645354
-0.00093638604
-0.00026712325
-0.00031407995
-0.0010671295
-0.0024340921
-0.0042580346
-0.0065500466
-0.0094852507
-0.0094537005
-0.01095946
-0.011981796
-0.01276482
-0.013476932
-0.014164179
-0.014867255
-0.015622162
-0.016452121
-0.017368427
-0.018372023
-0.019454364
-0.020598045
-0.021777258
-0.022958148
-0.0240992
-0.02515182
-0.026061279
-0.026768165
-0.027210501
-0.027326659
-0.027059163
-0.02635946
-0.025193725
-0.02354912
-0.021440675
-0.018917547
-0.016067929
-0.013021111
-0.0099450161
-0.0070375401
-0.004510576
-0.002566878
-0.0013724728
-0.0010307829
-0.0015622879
-0.0028811466
-0.0048124422
-0.0073662705
-0.010738681
-0.012212874
-0.013696246
-0.014713496
-0.015505455
-0.016239679
-0.016964288
-0.017722258
-0.018551728
-0.019477864
-0.020513592
-0.021661066
-0.022912429
-0.024250305
-0.025648093
-0.027070118
-0.028471769
-0.029799825
-0.03099312
-0.031983761
-0.032699075
-0.033064438
-0.03300711
-0.032461256
-0.031374782
-0.029715659
-0.027481239
-0.024706372
-0.021471148
-0.017906232
-0.014193681
-0.010560827
-0.0072649437
-0.0045675903
-0.0027005091
-0.0018297095
-0.0020228921
-0.003212749
-0.0052111093
-0.0080288617
-0.011883893
-0.015243762
-0.016694972
-0.017700716
-0.018495943
-0.019245799
-0.02000038
-0.020805276
-0.021701334
-0.02271638
-0.023865726
-0.025153468
-0.026573118
-0.028107959
-0.029731165
-0.031405752
-0.033084485
-0.034709931
-0.036214851
-0.03752314
-0.038551514
-0.03921217
-0.039416505
-0.039080132
-0.038131285
-0.036515176
-0.034207319
-0.031222634
-0.02762622
-0.023542553
-0.019160691
-0.014732374
-0.010559415
-0.0069674886
-0.0042664869
-0.0027035793
-0.0024148427
-0.0033693535
-0.0053751957
-0.0084484094
-0.012829812
-0.018527718
-0.019940977
-0.020930106
-0.021721938
-0.022478011
-0.023250524
-0.02408837
-0.025036069
-0.026125166
-0.027374373
-0.028790631
-0.030369601
-0.032095889
-0.033943022
-0.035873218
-0.037837089
-0.039773451
-0.041609453
-0.043261223
-0.044635273
-0.045630886
-0.046143809
-0.046071428
-0.045317986
-0.043806914
-0.041487672
-0.038349859
-0.034436492
-0.029857141
-0.024798383
-0.019527788
-0.014386567
-0.0097657312
-0.0060632982
-0.0036267108
-0.0026856644
-0.0032700667
-0.0052004327
-0.0085066127
-0.013454318
-0.022043309
-0.023418402
-0.024387599
-0.025167993
-0.025916921
-0.026689213
-0.027538302
-0.028513911
-0.029652832
-0.030978527
-0.032501882
-0.034221562
-0.036124152
-0.038184041
-0.04036308
-0.042610119
-0.044860629
-0.047036601
-0.049046929
-0.050788525
-0.052148391
-0.053006987
-0.053243043
-0.052739699
-0.051394582
-0.049129402
-0.04590448
-0.041734339
-0.03670473
-0.030988715
-0.024857909
-0.018682977
-0.012915917
-0.008048103
-0.0045445316
-0.002756387
-0.0028057562
-0.0045503572
-0.0080491478
-0.013596776
-0.025768122
-0.027112406
-0.028060676
-0.028819592
-0.029542695
-0.030288666
-0.031117546
-0.032086593
-0.033239994
-0.034607714
-0.036205897
-0.038037112
-0.0400905
-0.042341674
-0.044752353
-0.047269833
-0.049826481
-0.052339465
-0.054710929
-0.05682884
-0.058568757
-0.059796809
-0.060374092
-0.060162778
-0.059035592
-0.056885302
-0.053640406
-0.049282016
-0.043864089
-0.037534893
-0.03055616
-0.023313629
-0.01630951
-0.010126826
-0.0053605265
-0.0025111362
-0.0018303448
-0.0032480223
-0.0068771048
-0.01304926
-0.029681259
-0.031012199
-0.031941361
-0.032665729
-0.033337072
-0.0340203
-0.034785388
-0.03570057
-0.036820356
-0.038183426
-0.039812673
-0.041715448
-0.043883859
-0.046294843
-0.048909924
-0.051674735
-0.054518492
-0.057353636
-0.060075853
-0.062564705
-0.064685128
-0.066290031
-0.067224267
-0.067330316
-0.066457043
-0.064469131
-0.061262493
-0.056782013
-0.051043928
-0.044161719
-0.036372914
-0.028060891
-0.019761141
-0.012138212
-0.0059213645
-0.0017845302
-0.00015012831
-0.0010659522
-0.004736725
-0.011546253
-0.033766759
-0.035115224
-0.036030189
-0.036702096
-0.037285638
-0.037856233
-0.038498955
-0.039297927
-0.040321844
-0.041620761
-0.043225897
-0.045150106
-0.047388561
-0.049919233
-0.052702958
-0.055683172
-0.058785488
-0.061917343
-0.064967941
-0.067808712
-0.070294597
-0.072266297
-0.073553895
-0.073982149
-0.073376841
-0.0715774
-0.068448
-0.063896817
-0.057899241
-0.050526707
-0.041979886
-0.032621597
-0.022999178
-0.01384009
-0.0060017346
-0.00034743427
0.0024889223
0.0022859483
-0.0013070108
-0.0087524756
-0.038018473
-0.039433047
-0.04034153
-0.04093501
-0.041380283
-0.041770619
-0.042213943
-0.042817032
-0.043667633
-0.044830157
-0.046345601
-0.048232642
-0.050489102
-0.053093127
-0.056003821
-0.059161352
-0.062486783
-0.065881819
-0.069228738
-0.07239072
-0.075212991
-0.077524753
-0.079142378
-0.079874137
-0.079526555
-0.077914508
-0.07487319
-0.070275843
-0.064056881
-0.056242086
-0.046986165
-0.036615138
-0.025665142
-0.014901187
-0.0052912881
0.0021078063
0.0064156844
0.0071749271
0.0038155504
-0.0042480314
-0.0424474
-0.043999972
-0.0449109
-0.045386266
-0.04562175
-0.045740592
-0.045884838
-0.046192806
-0.046777011
-0.047719183
-0.049071022
-0.050856608
-0.053075177
-0.05570343
-0.058696997
-0.0619911
-0.065500761
-0.069120723
-0.072725456
-0.07616931
-0.07928765
-0.081898419
-0.083804998
-0.084800454
-0.08467354
-0.083217356
-0.080240936
-0.075585592
-0.069147075
-0.060905618
-0.050965484
-0.039604012
-0.027324964
-0.014902209
-0.0033869245
0.0059807241
0.012049822
0.014062987
0.011136539
0.002490817
-0.047093467
-0.048886176
-0.049805307
-0.050099236
-0.050022154
-0.049746619
-0.049464465
-0.049356517
-0.049566069
-0.050194406
-0.051303702
-0.052921756
-0.055046827
-0.057651543
-0.060685523
-0.064076696
-0.06773201
-0.071537523
-0.075358907
-0.079040165
-0.082406506
-0.085264316
-0.087404085
-0.088604283
-0.088637065
-0.087275438
-0.08430497
-0.079538367
-0.072836323
-0.06413638
-0.053492314
-0.041126493
-0.02749401
-0.0133498
0.00020549996
0.011771707
0.019918207
0.023528539
0.021289975
0.012118929
-0.052045669
-0.054218499
-0.055138231
-0.055146596
-0.054607351
-0.053772017
-0.052902759
-0.052235171
-0.051948372
-0.052163508
-0.052950883
-0.054338436
-0.056319479
-0.058858714
-0.06189653
-0.065350256
-0.06911642
-0.073070174
-0.077068289
-0.080940556
-0.084502599
-0.087548365
-0.08985493
-0.091186016
-0.091298179
-0.089944012
-0.086887606
-0.081915732
-0.074857372
-0.065611197
-0.05418327
-0.040739653
-0.02567663
-0.0097068363
0.0060549457
0.020081917
0.030669742
0.036293394
0.035075962
0.025465328
-0.057478343
-0.060214346
-0.061091579
-0.060639977
-0.059418713
-0.057801275
-0.056144653
-0.054750551
-0.053835718
-0.053537678
-0.053929145
-0.055031958
-0.056828567
-0.059270452
-0.062285477
-0.065775306
-0.069624478
-0.073695281
-0.077829938
-0.081849075
-0.085553789
-0.088725068
-0.091126086
-0.092505289
-0.092601254
-0.091148831
-0.087889639
-0.082584916
-0.075033781
-0.065098693
-0.052740785
-0.038070735
-0.021420464
-0.0034423825
0.014768198
0.031597035
0.045084268
0.05325615
0.053516519
0.043607289
-0.063719174
-0.067237924
-0.067947541
-0.066741198
-0.064513184
-0.06181625
-0.059126507
-0.056817598
-0.055138694
-0.054233901
-0.054167734
-0.05494633
-0.056533312
-0.058860793
-0.061836678
-0.065347184
-0.06925953
-0.073421218
-0.077660052
-0.081783543
-0.085578794
-0.088812797
-0.091233859
-0.092574186
-0.092554133
-0.090888467
-0.087295476
-0.081509835
-0.073299646
-0.062490352
-0.048997898
-0.032876092
-0.014386671
0.0058945965
0.026924178
0.04704459
0.064067311
0.075531002
0.077939207
0.068005096
-0.071381349
-0.075894049
-0.076132924
-0.073672782
-0.069958675
-0.06578784
-0.061769259
-0.058340522
-0.0557655
-0.054175575
-0.053610037
-0.054045933
-0.055417141
-0.057629235
-0.060565743
-0.064092025
-0.068056415
-0.0722898
-0.076604707
-0.080794177
-0.08463107
-0.087867858
-0.090237405
-0.091454982
-0.091221904
-0.089231141
-0.085175457
-0.078760072
-0.069717834
-0.057831776
-0.042965698
-0.025108256
-0.0044392834
0.018569982
0.042964689
0.067104873
0.088610637
0.10448313
0.11010469
0.10076058
-0.081631967
-0.087182186
-0.086270712
-0.08171676
-0.075815074
-0.069655229
-0.063961639
-0.059200929
-0.055614003
-0.053287173
-0.052209829
-0.052311322
-0.053484601
-0.055599879
-0.058511478
-0.062060465
-0.06607472
-0.070367558
-0.074735872
-0.078958246
-0.082793508
-0.085979865
-0.088234978
-0.089257238
-0.088728636
-0.086319314
-0.081694124
-0.074525114
-0.064503246
-0.051359085
-0.034889778
-0.014997925
0.0082485742
0.034515255
0.063013397
0.092225911
0.1196599
0.14172249
0.15240444
0.14512466
-0.09676032
-0.10273863
-0.099198402
-0.091155717
-0.082062975
-0.073261929
-0.065508281
-0.059217463
-0.054540647
-0.051469856
-0.049910654
-0.049723453
-0.05074629
-0.052806457
-0.055724958
-0.059316746
-0.063388817
-0.067737281
-0.072144266
-0.076375055
-0.080175775
-0.08327178
-0.085366952
-0.086144118
-0.085267027
-0.082383219
-0.077128693
-0.069138973
-0.058056039
-0.043545146
-0.025315589
-0.0031511126
0.023041206
0.053141634
0.086633697
0.12228335
0.15778119
0.18895201
0.20809822
0.20632806
-0.12133987
-0.12518751
-0.11587328
-0.10208138
-0.088417502
-0.076198476
-0.066005938
-0.058052409
-0.0522915
-0.04855043
-0.046608588
-0.046233225
-0.047195007
-0.04927293
-0.052253251
-0.055925553
-0.06007778
-0.064491195
-0.068935748
-0.073166108
-0.076918478
-0.079908227
-0.081828392
-0.08234919
-0.081119124
-0.077764824
-0.071896233
-0.06311068
-0.050996495
-0.035142081
-0.015145666
0.0093693112
0.038725756
0.07313003
0.11252013
0.15626294
0.20263123
0.24752349
0.2813013
0.2923569
-0.16445731
-0.15843304
-0.13714854
-0.11415762
-0.094107472
-0.07763137
-0.064738048
-0.055161965
-0.048490094
-0.04429176
-0.042173079
-0.041787664
-0.042832717
-0.045039972
-0.048165075
-0.051977406
-0.05625114
-0.060757694
-0.065259515
-0.069505064
-0.073224901
-0.076128695
-0.077903131
-0.078210883
-0.076690869
-0.072948127
-0.066578032
-0.057140936
-0.044172637
-0.027180622
-0.0056362828
0.021035075
0.053464416
0.092331923
0.13829657
0.19182722
0.25266834
0.31751175
0.3762689
0.41537107
-0.24629417
-0.20631822
-0.16213052
-0.12552916
-0.097143928
-0.075878445
-0.060487829
-0.049752624
-0.042660536
-0.038436503
-0.036490645
-0.036365695
-0.037697669
-0.040185483
-0.043567589
-0.047604576
-0.052066273
-0.056722069
-0.061333519
-0.065648671
-0.069397703
-0.072289638
-0.074010007
-0.074220226
-0.072558892
-0.068605911
-0.06196201
-0.052156185
-0.038683189
-0.020981376
0.0015960023
0.029825588
0.064686781
0.10746532
0.15987157
0.22417835
0.30290601
0.39553275
0.49624398
0.60321286
-0.42543894
-0.26573032
-0.17722154
-0.12463616
-0.089116785
-0.065102918
-0.049324128
-0.039185607
-0.032984002
-0.029674396
-0.028571041
-0.029187091
-0.031157167
-0.034190246
-0.038037964
-0.042473686
-0.047278529
-0.05223156
-0.057102618
-0.061646923
-0.065600965
-0.068679342
-0.07057202
-0.070940901
-0.069408187
-0.065630058
-0.059132606
-0.049453053
-0.036074966
-0.018403385
0.0042717133
0.032847684
0.068543164
0.11314263
0.16943723
0.2420178
0.33806669
0.46591645
0.64305526
0.92086284
-0.7933129
-0.32444212
-0.14899737
-0.087725337
-0.055345741
-0.03599944
-0.025091476
-0.019200928
-0.01635546
-0.015619039
-0.016494278
-0.018654095
-0.021853217
-0.025888586
-0.030575604
-0.035734002
-0.041179222
-0.046716472
-0.052136182
-0.057210369
-0.061689693
-0.065301087
-0.067746089
-0.068701118
-0.067824712
-0.064708147
-0.058941959
-0.050072607
-0.037593532
-0.020927282
0.00061058753
0.027881302
0.062059017
0.10491364
0.15945161
0.23152828
0.33385175
0.49409251
0.79001666
1.3837786
1.199774e-05
-0.00013086427
-0.00044305651
-0.00084561536
-0.0012640199
-0.0016528222
-0.0019811666
-0.002230231
-0.0023893856
-0.0024529296
-0.002417926
-0.0022829185
-0.0020473366
-0.0017114235
-0.0012765371
-0.00074568635
-0.00012418244
0.0005797075
0.0013542065
0.0021836609
0.0030484423
0.0039251885
0.0047874128
0.0056065195
0.0063531794
0.0069990098
0.0075184508
0.0078907023
0.0081015603
0.0081449807
0.0080242058
0.0077523456
0.0073523966
0.0068567873
0.00630637
0.0057486969
0.0052388163
0.0048330314
0.0045930403
0.0045545428
0.00015393382
8.6661795e-06
-0.00024148775
-0.0005503455
-0.00087250335
-0.0011736528
-0.0014295666
-0.0016240743
-0.0017468163
-0.0017913496
-0.0017537345
-0.0016316076
-0.0014237134
-0.0011298192
-0.00075091569
-0.00028960811
0.00024939461
0.0008587816
0.0015282197
0.0022440766
0.0029893551
0.0037440303
0.0044854013
0.0051891164
0.0058303264
0.0063851382
0.0068322337
0.0071545177
0.0073406556
0.0073863603
0.0072952952
0.0070794838
0.0067591598
0.006362088
0.0059224455
0.0054791989
0.0050735119
0.0047487653
0.0045501726
0.0045150721
0.00047220145
0.00025410657
-1.6858214e-06
-0.0002807841
-0.00056109837
-0.00081807394
-0.0010339409
-0.0011966513
-0.0012979991
-0.0013324643
-0.0012963294
-0.0011870638
-0.001003028
-0.00074346692
-0.00040872631
-6.2237057e-07
0.00047710861
0.0010183511
0.001614213
0.002252762
0.0029189939
0.0035949563
0.0042602906
0.0048929997
0.0054705412
0.0059711794
0.0063755049
0.0066679879
0.0068384133
0.0068830462
0.0068054063
0.0066165626
0.0063348805
0.0059852033
0.0055975367
0.0052053047
0.0048430588
0.0045449983
0.0043474961
0.0042804094
0.00089382345
0.00056213873
0.00026163418
-2.4173741e-05
-0.00029486821
-0.00053406429
-0.00073022567
-0.00087615174
-0.00096676998
-0.0009983849
-0.00096818368
-0.00087388056
-0.00071360473
-0.00048601808
-0.00019061217
0.00017187106
0.00059895293
0.0010859256
0.0016254149
0.0022070719
0.0028174642
0.0034401428
0.0040561465
0.0046446896
0.0051842109
0.0056536886
0.0060341438
0.0063102084
0.0064715876
0.0065142358
0.0064410917
0.0062622824
0.0059947656
0.0056614106
0.0052895444
0.0049090937
0.0045507003
0.0042442284
0.0040162268
0.0038806547
0.0013446763
0.00088431949
0.00052152994
0.00021125435
-6.6536728e-05
-0.00030262159
-0.00049136642
-0.00063052697
-0.00071844297
-0.00075354864
-0.00073418168
-0.00065844035
-0.00052424158
-0.0003295751
-7.2907625e-05
0.00024630804
0.00062706826
0.0010662514
0.001558103
0.0020938388
0.0026614332
0.0032456536
0.0038284203
0.0043894908
0.0049074863
0.0053612112
0.0057311856
0.0060012714
0.0061602248
0.0062029735
0.0061314157
0.0059546041
0.0056882872
0.00535386
0.004976776
0.0045846267
0.004205708
0.0038671989
0.0035846138
0.0033607716
0.0017716161
0.0011775194
0.00074337502
0.00039740374
0.00010074973
-0.00014356036
-0.00033527693
-0.00047687419
-0.00057003566
-0.00061533591
-0.00061228659
-0.00055936214
-0.00045420642
-0.00029402019
-7.6082774e-05
0.00020163027
0.00053977577
0.00093696896
0.0013891617
0.0018891341
0.0024261693
0.0029859931
0.0035510241
0.0041010205
0.0046140967
0.0050680864
0.0054421545
0.0057185257
0.0058841647
0.0059322049
0.005862905
0.0056839338
0.0054098994
0.0050611745
0.0046621188
0.0042390794
0.0038195105
0.0034300406
0.0030776907
0.0027500029
0.0021294117
0.0014031979
0.00089426768
0.00050614082
0.00018276212
-7.8234055e-05
-0.00028143883
-0.0004336614
-0.00053967415
-0.00060201872
-0.00062124685
-0.00059608481
-0.00052376897
-0.00040055728
-0.00022236794
1.4487797e-05
0.00031251427
0.00067222953
0.0010914113
0.0015644555
0.0020819195
0.0026303475
0.0031923989
0.0037474329
0.0042724979
0.0047437433
0.0051381497
0.0054354229
0.0056198575
0.0056819637
0.0056196337
0.0054386328
0.0051522611
0.00478016
0.0043463355
0.0038769857
0.0034001482
0.002943684
0.0025077525
0.0020656617
0.0023794884
0.0015265974
0.00094331152
0.0005102647
0.00015555369
-0.00012801645
-0.00034940485
-0.00051933359
-0.00064532307
-0.00073160463
-0.00077953597
-0.00078788826
-0.00075329605
-0.00067088194
-0.00053500616
-0.00034011166
-8.1636156e-05
0.000243051
0.00063374582
0.0010866108
0.0015935621
0.002141963
0.0027146026
0.0032902013
0.0038443374
0.0043508789
0.0047838316
0.0051194435
0.0053383406
0.0054274399
0.0053813947
0.0052033602
0.0049049061
0.0045049632
0.0040277464
0.003500361
0.002952843
0.0024159651
0.0018849441
0.0013216875
0.002488036
0.0015160221
0.00086120123
0.00038289149
-5.5550949e-06
-0.00031579294
-0.00056076342
-0.00075469587
-0.00090749629
-0.0010247689
-0.0011083982
-0.0011569515
-0.0011662321
-0.001130005
-0.0010408472
-0.00089109846
-0.00067388753
-0.0003842011
-1.9940541e-05
0.00041710213
0.00092044279
0.0014784396
0.0020740662
0.0026853226
0.0032860559
0.0038473736
0.0043395721
0.0047344546
0.0050078074
0.0051417306
0.0051265045
0.004961735
0.0046566051
0.0042290847
0.0037038985
0.0031099619
0.0024807138
0.0018515263
0.0012140838
0.00051965756
0.0024245811
0.0013423909
0.00062036974
9.7973222e-05
-0.00032521988
-0.00066508283
-0.00093823061
-0.0011620338
-0.0013484376
-0.001504105
-0.0016311638
-0.0017277212
-0.0017885108
-0.0018057043
-0.0017698478
-0.0016709048
-0.0014993894
-0.0012475598
-0.0009106265
-0.00048791828
1.6097984e-05
0.00059119299
0.0012207677
0.0018822193
0.0025475586
0.0031847635
0.0037597481
0.0042388626
0.0045917323
0.0047941184
0.0048304012
0.0046953131
0.0043946783
0.0039449831
0.0033714913
0.0027056041
0.0019854879
0.0012528439
0.00049694169
-0.00034135158
0.0021613459
0.00097907034
0.00019521823
-0.00036914311
-0.00082725905
-0.0011990514
-0.0015045589
-0.0017639733
-0.0019909699
-0.0021929854
-0.0023721317
-0.0025258181
-0.0026474834
-0.0027274758
-0.0027540537
-0.0027145012
-0.0025963532
-0.0023887053
-0.0020835731
-0.0016772519
-0.0011715855
-0.00057469792
9.7706136e-05
0.00082281262
0.0015709153
0.0023066427
0.0029909215
0.0035836263
0.0040467772
0.0043479957
0.0044637869
0.0043821401
0.0041040374
0.0036435674
0.0030262657
0.0022864541
0.0014682266
0.0006213721
-0.00026640104
-0.0012649536
0.0016731317
0.00040194335
-0.00043760498
-0.0010412325
-0.0015339968
-0.0019397221
-0.0022816569
-0.0025825365
-0.0028575051
-0.0031145369
-0.0033555139
-0.0035769504
-0.0037707967
-0.0039253707
-0.0040263951
-0.0040581584
-0.0040048058
-0.0038517518
-0.0035871855
-0.0032036015
-0.0026992872
-0.0020798439
-0.0013587969
-0.00055856479
0.00028983993
0.0011477303
0.001970581
0.0027107799
0.003321178
0.0037591894
0.0039910147
0.0039953939
0.0037662688
0.0033137858
0.002663043
0.0018514439
0.00093009474
-4.1329614e-05
-0.0010760672
-0.0022555524
0.00093753671
-0.00041032659
-0.0012988319
-0.0019386809
-0.002465611
-0.0029071974
-0.0032896999
-0.003638156
-0.0039689695
-0.0042904774
-0.0046041812
-0.0049055624
-0.0051849419
-0.0054284394
-0.0056190219
-0.0057376741
-0.0057647215
-0.0056813175
-0.005471079
-0.0051218141
-0.0046272845
-0.0039891202
-0.0032178113
-0.002334229
-0.001369827
-0.00036617988
0.00062656692
0.0015524316
0.0023534621
0.0029745269
0.0033686181
0.0035020271
0.0033585877
0.0029420689
0.0022757073
0.0013997232
0.00037319087
-0.00073243373
-0.0019308891
-0.0033164625
-6.4617619e-05
-0.0014758972
-0.0024061269
-0.0030789394
-0.0036394666
-0.0041188589
-0.0045461965
-0.0049486084
-0.0053436037
-0.0057397757
-0.0061381712
-0.0065331794
-0.0069134228
-0.0072627173
-0.0075611002
-0.0077859761
-0.0079134309
-0.0079197523
-0.0077831665
-0.0074857626
-0.0070155573
-0.0063686744
-0.0055511687
-0.0045808419
-0.0034882568
-0.0023169319
-0.0011223167
3.069598e-05
0.0010718139
0.0019308228
0.0025441094
0.0028615491
0.0028527933
0.0025116657
0.0018570772
0.00093108721
-0.00019856264
-0.0014466086
-0.0028269033
-0.0044481851
-0.0013487488
-0.0028092832
-0.0037736095
-0.0044759772
-0.0050694601
-0.0055885775
-0.0060650443
-0.0065279036
-0.0069956737
-0.0074771734
-0.0079730057
-0.0084764982
-0.0089745976
-0.0094487956
-0.0098761004
-0.010230118
-0.010482316
-0.010603533
-0.010565768
-0.010344271
-0.0099198921
-0.0092816422
-0.0084292109
-0.0073753951
-0.0061480018
-0.0047909255
-0.0033639443
-0.001940808
-0.00060530466
0.00055475695
0.0014553581
0.0020251715
0.0022144255
0.0020020434
0.001398756
0.00044639021
-0.00077847082
-0.0021746629
-0.0037557255
-0.0056466205
-0.0029259505
-0.0044208976
-0.0054114038
-0.006139775
-0.0067654139
-0.0073259688
-0.0078556143
-0.0083851731
-0.008934144