/*--------------------------------*- C++ -*----------------------------------*\
  =========                 |
  \\      /  F ield         | OpenFOAM: The Open Source CFD Toolbox
   \\    /   O peration     | Website:  https://openfoam.org
    \\  /    A nd           | Version:  7
     \\/     M anipulation  |
\*---------------------------------------------------------------------------*/
FoamFile
{
    version     2.0;
    format      ascii;
    class       surfaceScalarField;
    location    "36";
    object      phi;
}
// * * * * * * * * * * * * * * * * * * * * * * * * * * * * * * * * * * * * * //

dimensions      [0 3 -1 0 0 0 0];

internalField   nonuniform List<scalar> 
45600
(
2.7506882e-07
-2.8234091e-07
-8.1718654e-11
4.0328549e-07
-1.2819086e-07
-2.5744225e-11
1.3253556e-07
2.7075696e-07
-7.1387664e-12
-5.6232119e-07
6.9485848e-07
-1.8090022e-12
-1.6393173e-06
1.0769926e-06
3.3707072e-12
-3.0276256e-06
1.3883009e-06
6.8628823e-12
-4.6524676e-06
1.6248322e-06
9.1321994e-12
-6.4451003e-06
1.7926214e-06
1.074265e-11
-8.3454272e-06
1.9003149e-06
1.1910154e-11
-1.0301446e-05
1.9560066e-06
1.2689547e-11
-1.2267405e-05
1.9659458e-06
1.3106949e-11
-1.4201585e-05
1.9341657e-06
1.3207985e-11
-1.6064242e-05
1.8626441e-06
1.3041014e-11
-1.781603e-05
1.7517759e-06
1.2623188e-11
-1.9417057e-05
1.6010156e-06
1.1936145e-11
-2.0826661e-05
1.4095941e-06
1.0942345e-11
-2.200391e-05
1.1772399e-06
9.6024209e-12
-2.2908771e-05
9.0485376e-07
7.9047429e-12
-2.350387e-05
5.9509297e-07
5.8805348e-12
-2.3756703e-05
2.5283053e-07
3.6175291e-12
-2.3642142e-05
-1.1455959e-07
1.1994516e-12
-2.3145011e-05
-4.9712675e-07
-1.3627877e-12
-2.2262577e-05
-8.8242798e-07
-4.0984676e-12
-2.1006619e-05
-1.2559502e-06
-6.9547454e-12
-1.9404865e-05
-1.6017451e-06
-9.693204e-12
-1.7501558e-05
-1.903294e-06
-1.199318e-11
-1.5356972e-05
-2.1445682e-06
-1.3626664e-11
-1.3045755e-05
-2.311197e-06
-1.4648206e-11
-1.0654095e-05
-2.3916428e-06
-1.529585e-11
-8.2758087e-06
-2.3782748e-06
-1.5624885e-11
-6.007564e-06
-2.2682354e-06
-1.5253463e-11
-3.943536e-06
-2.0640153e-06
-1.3633184e-11
-2.1697918e-06
-1.7737262e-06
-1.071336e-11
-7.5853952e-07
-1.4112365e-06
-7.2390397e-12
2.3821977e-07
-9.9675622e-07
-4.250464e-12
7.9655312e-07
-5.583428e-07
-2.2696768e-12
9.2926679e-07
-1.3272212e-07
4.3020477e-13
7.0556389e-07
2.2370852e-07
5.2141623e-12
2.9045416e-07
4.1512489e-07
1.0978145e-11
2.9046647e-07
5.2778637e-12
1.3284023e-07
-4.1515808e-07
-2.3135179e-11
-3.0172884e-07
3.0639288e-07
-1.4657137e-11
-1.6154337e-06
1.5844739e-06
-1.2762904e-11
-3.8747306e-06
2.9541681e-06
-1.3467066e-11
-7.0073582e-06
4.2096343e-06
-1.4558637e-11
-1.0879763e-05
5.2607217e-06
-1.6040598e-11
-1.5335174e-05
6.0802598e-06
-1.7467059e-11
-2.021601e-05
6.6734753e-06
-1.8525497e-11
-2.5374068e-05
7.0583906e-06
-1.9109062e-11
-3.067328e-05
7.2552376e-06
-1.921256e-11
-3.5988546e-05
7.2812316e-06
-1.8894242e-11
-4.1202833e-05
7.1484715e-06
-1.8212021e-11
-4.6203975e-05
6.8638043e-06
-1.7179438e-11
-5.0882102e-05
6.4299194e-06
-1.5778832e-11
-5.5128234e-05
5.8471617e-06
-1.3988075e-11
-5.883432e-05
5.1156938e-06
-1.1796032e-11
-6.1894804e-05
4.2377351e-06
-9.2282565e-12
-6.4209609e-05
3.2196685e-06
-6.345095e-12
-6.5688358e-05
2.0738477e-06
-3.2595394e-12
-6.6255467e-05
8.1994144e-07
-1.9566407e-14
-6.5855982e-05
-5.1404709e-07
3.4006675e-12
-6.4460807e-05
-1.8923059e-06
7.0537404e-12
-6.2072475e-05
-3.2707653e-06
1.0754625e-11
-5.8729085e-05
-4.5993479e-06
1.4199461e-11
-5.4507071e-05
-5.8237725e-06
1.7091454e-11
-4.95219e-05
-6.8884853e-06
1.9351795e-11
-4.3926393e-05
-7.7400999e-06
2.1175277e-11
-3.7906448e-05
-8.3311652e-06
2.2744759e-11
-3.167414e-05
-8.6239673e-06
2.3848048e-11
-2.5458396e-05
-8.5940346e-06
2.3876722e-11
-1.9493606e-05
-8.233046e-06
2.2405525e-11
-1.4006718e-05
-7.5509338e-06
1.9828429e-11
-9.2032932e-06
-6.5771798e-06
1.7180364e-11
-5.2529096e-06
-5.3616322e-06
1.5055945e-11
-2.273987e-06
-3.9756725e-06
1.2793632e-11
-3.1727325e-07
-2.5150493e-06
9.112429e-12
6.5705698e-07
-1.107065e-06
3.6606847e-12
8.036668e-07
7.706675e-08
7.2893439e-13
4.1782773e-07
8.0093237e-07
2.6002022e-12
7.0831013e-07
-1.9151208e-12
-2.7360455e-07
-1.4154073e-07
-1.2844141e-11
-1.6275101e-06
1.6603068e-06
-7.6057263e-12
-4.2894296e-06
4.2464025e-06
-8.9000033e-12
-8.2746983e-06
6.9394441e-06
-7.471438e-12
-1.3474434e-05
9.409375e-06
-5.4650642e-12
-1.9708734e-05
1.1495026e-05
-4.3255899e-12
-2.676576e-05
1.313729e-05
-3.5849885e-12
-3.4426624e-05
1.4334342e-05
-3.0187865e-12
-4.2478637e-05
1.5110405e-05
-2.5740314e-12
-5.0720455e-05
1.5497058e-05
-2.1601206e-12
-5.8962298e-05
1.5523077e-05
-1.7259279e-12
-6.7023692e-05
1.5209867e-05
-1.2822703e-12
-7.4730532e-05
1.4570646e-05
-8.534649e-13
-8.1912718e-05
1.3612107e-05
-4.5023597e-13
-8.8403146e-05
1.233759e-05
-6.9144066e-14
-9.4038473e-05
1.0751022e-05
3.1568359e-13
-9.8661793e-05
8.8610545e-06
7.4481621e-13
-0.00010212709
6.684968e-06
1.2192108e-12
-0.00010430522
4.2519794e-06
1.6535318e-12
-0.000105091
1.6057189e-06
1.937225e-12
-0.00010441064
-1.1944107e-06
2.0570361e-12
-0.00010222945
-4.0734918e-06
2.1285612e-12
-9.8558516e-05
-6.9417032e-06
2.3097339e-12
-9.346e-05
-9.6978631e-06
2.630819e-12
-8.7050389e-05
-1.223338e-05
2.8868785e-12
-7.9500992e-05
-1.443788e-05
2.7965565e-12
-7.1035276e-05
-1.6205819e-05
2.3439816e-12
-6.1922722e-05
-1.7443727e-05
1.9345076e-12
-5.2469147e-05
-1.8077549e-05
2.0650105e-12
-4.3003679e-05
-1.8059501e-05
2.7164074e-12
-3.3862821e-05
-1.7373897e-05
3.1836127e-12
-2.5372226e-05
-1.6041527e-05
2.7860774e-12
-1.7826886e-05
-1.4122531e-05
1.8335904e-12
-1.1470413e-05
-1.1718121e-05
1.5766476e-12
-6.473874e-06
-8.972216e-06
2.7718162e-12
-2.9140495e-06
-6.0748576e-06
4.3841054e-12
-7.5122474e-07
-3.2698676e-06
4.395432e-12
1.9435392e-07
-8.6850665e-07
3.3206564e-12
2.6548601e-07
7.2977848e-07
3.9421968e-12
9.7379909e-07
4.5878004e-13
-7.4585785e-07
6.0433018e-07
-1.3050339e-11
-3.1796551e-06
4.0941068e-06
-1.6025843e-12
-7.3461279e-06
8.4128833e-06
-7.0192447e-12
-1.3163081e-05
1.2756404e-05
-6.3697159e-12
-2.0455843e-05
1.6702141e-05
-3.7630148e-12
-2.8992659e-05
2.0031844e-05
-2.4075227e-12
-3.8513899e-05
2.2658531e-05
-1.4716129e-12
-4.8752697e-05
2.457314e-05
-6.4566322e-13
-5.9447001e-05
2.5804709e-05
-1.2621613e-14
-7.034485e-05
2.6394907e-05
4.6865987e-13
-8.1205143e-05
2.6383368e-05
8.8296291e-13
-9.1795994e-05
2.5800718e-05
1.2677501e-12
-0.00010189242
2.4667074e-05
1.6206659e-12
-0.00011127464
2.2994323e-05
1.9204227e-12
-0.00011972779
2.0790739e-05
2.1309813e-12
-0.00012704361
1.8066845e-05
2.226527e-12
-0.00013302416
1.4841602e-05
2.237848e-12
-0.00013748742
1.1148222e-05
2.236085e-12
-0.00014027451
7.0390758e-06
2.2501254e-12
-0.00014125805
2.589257e-06
2.2081374e-12
-0.00014035077
-2.1016904e-06
1.9876393e-12
-0.00013751438
-6.9098817e-06
1.5037539e-12
-0.00013276702
-1.1689066e-05
8.9855458e-13
-0.00012618931
-1.627558e-05
4.4188763e-13
-0.00011792788
-2.0494801e-05
2.7618945e-13
-0.00010819591
-2.4169851e-05
2.1295531e-13
-9.7269869e-05
-2.7131853e-05
-1.3325659e-13
-8.5482407e-05
-2.9231188e-05
-8.8339958e-13
-7.3210947e-05
-3.0349015e-05
-1.5724404e-12
-6.0862269e-05
-3.0408185e-05
-1.4850502e-12
-4.8853456e-05
-2.9382707e-05
-4.9252086e-13
-3.7589903e-05
-2.7305069e-05
5.6469635e-13
-2.7441311e-05
-2.4271116e-05
6.9920095e-13
-1.8716691e-05
-2.044275e-05
9.6440173e-14
-1.1639464e-05
-1.6049461e-05
1.5569786e-13
-6.3235835e-06
-1.1390749e-05
1.8121442e-12
-2.751542e-06
-6.8418993e-06
4.0619421e-12
-7.571505e-07
-2.8628842e-06
4.8662545e-12
-9.5275998e-09
-1.7852441e-08
4.2114173e-12
9.6426542e-07
3.2228783e-12
-1.2279735e-06
1.8323187e-06
-1.4535338e-11
-4.7881237e-06
7.6542541e-06
4.3857172e-12
-1.0521561e-05
1.4146328e-05
-6.1428054e-12
-1.8214353e-05
2.0449205e-05
-7.2096097e-12
-2.7603957e-05
2.609175e-05
-4.8383247e-12
-3.8396314e-05
3.0824205e-05
-4.1340727e-12
-5.028307e-05
3.454529e-05
-3.7882302e-12
-6.2954796e-05
3.7244869e-05
-3.2810678e-12
-7.6109047e-05
3.8958964e-05
-2.7955084e-12
-8.9453781e-05
3.9739643e-05
-2.387882e-12
-0.00010270748
3.9637067e-05
-2.0144687e-12
-0.00011559753
3.8690776e-05
-1.6327632e-12
-0.00012785834
3.6927886e-05
-1.2167245e-12
-0.00013923019
3.4366176e-05
-7.5241902e-13
-0.00014945974
3.1020287e-05
-2.5919767e-13
-0.00015830246
2.6909572e-05
1.9867615e-13
-0.00016552723
2.2066364e-05
5.6728316e-13
-0.00017092273
1.6543728e-05
8.7069352e-13
-0.00017430558
1.042192e-05
1.208371e-12
-0.00017552934
3.8130175e-06
1.6507604e-12
-0.00017449412
-3.1369172e-06
2.1292794e-12
-0.00017115587
-1.0248125e-05
2.4409044e-12
-0.00016553479
-1.731015e-05
2.4425413e-12
-0.00015772189
-2.4088482e-05
2.2399658e-12
-0.00014788319
-3.0333511e-05
2.1666224e-12
-0.00013626059
-3.5792451e-05
2.4656706e-12
-0.00012316896
-4.0223487e-05
2.9456441e-12
-0.00010898871
-4.3411428e-05
3.0600332e-12
-9.4153795e-05
-4.5183933e-05
2.502812e-12
-7.913485e-05
-4.542714e-05
1.7402049e-12
-6.4418065e-05
-4.4099504e-05
1.7024838e-12
-5.048037e-05
-4.1242766e-05
2.6919774e-12
-3.7762139e-05
-3.6989337e-05
3.766444e-12
-2.6638818e-05
-3.1566062e-05
3.6805737e-12
-1.7393171e-05
-2.5295116e-05
2.5127838e-12
-1.0189923e-05
-1.8594015e-05
1.9928917e-12
-5.0547447e-06
-1.1977088e-05
3.4516031e-12
-1.8598331e-06
-6.0577896e-06
4.1872628e-12
-3.222289e-07
-1.5554514e-06
8.5515235e-13
6.4202705e-07
5.7873257e-12
-1.693172e-06
3.5255088e-06
-1.6997686e-11
-6.3714185e-06
1.2332493e-05
9.8086472e-12
-1.3671465e-05
2.1446381e-05
-5.2067746e-12
-2.3234073e-05
3.0011822e-05
-7.3283814e-12
-3.4695256e-05
3.7552938e-05
-4.5779152e-12
-4.7689833e-05
4.3818787e-05
-4.0341348e-12
-6.1857533e-05
4.8712994e-05
-3.9441986e-12
-7.6848075e-05
5.2235414e-05
-3.5831639e-12
-9.2323875e-05
5.4434768e-05
-3.150194e-12
-0.00010796027
5.5376046e-05
-2.7380832e-12
-0.00012344397
5.5120763e-05
-2.3468946e-12
-0.00013847069
5.3717503e-05
-1.9693957e-12
-0.00015274322
5.1200418e-05
-1.5921198e-12
-0.00016597053
4.7593488e-05
-1.1807203e-12
-0.00017786873
4.2918487e-05
-6.9495011e-13
-0.00018816404
3.7204883e-05
-1.483982e-13
-0.00019659788
3.0500203e-05
3.722214e-13
-0.00020293382
2.2879672e-05
7.7518172e-13
-0.00020696612
1.445422e-05
1.0693862e-12
-0.00020852928
5.3761681e-06
1.381388e-12
-0.00020750811
-4.1580964e-06
1.8340864e-12
-0.00020384767
-1.3908565e-05
2.3895401e-12
-0.00019756246
-2.3595361e-05
2.8039564e-12
-0.00018874396
-3.2906985e-05
2.8390529e-12
-0.00017756588
-4.1511593e-05
2.5553666e-12
-0.00016428625
-4.9072087e-05
2.3665582e-12
-0.00014924551
-5.5264236e-05
2.6642481e-12
-0.0001328599
-5.9797035e-05
3.3074869e-12
-0.00011560967
-6.2434158e-05
3.6110074e-12
-9.8021751e-05
-6.3015055e-05
3.0731742e-12
-8.064722e-05
-6.1474046e-05
2.1412405e-12
-6.4034178e-05
-5.7855823e-05
1.942136e-12
-4.869745e-05
-5.2326072e-05
2.9384401e-12
-3.5086901e-05
-4.5176603e-05
4.0804862e-12
-2.3556669e-05
-3.6825341e-05
3.9257108e-12
-1.4337866e-05
-2.7812826e-05
2.9620451e-12
-7.5174899e-06
-1.879748e-05
3.5255924e-12
-3.0267261e-06
-1.0548559e-05
3.451455e-12
-6.4248969e-07
-3.9396809e-06
-1.6909265e-12
-4.7164541e-10
8.5179181e-12
-2.1329393e-06
5.6584694e-06
-1.974429e-11
-7.8910807e-06
1.8090623e-05
1.464715e-11
-1.6717412e-05
3.0272719e-05
-4.4575049e-12
-2.810575e-05
4.1400168e-05
-7.4197666e-12
-4.1585099e-05
5.1032292e-05
-4.1561353e-12
-5.6714145e-05
5.8947838e-05
-3.5960223e-12
-7.3078289e-05
6.5077141e-05
-3.6245184e-12
-9.0287097e-05
6.9444225e-05
-3.3504926e-12
-0.00010797133
7.2119004e-05
-2.9877286e-12
-0.00012577927
7.3183991e-05
-2.608012e-12
-0.00014337274
7.2714235e-05
-2.2069859e-12
-0.00016042341
7.0768177e-05
-1.8012781e-12
-0.00017661018
6.7387188e-05
-1.4182153e-12
-0.00019161813
6.2601437e-05
-1.0638551e-12
-0.0002051395
5.643986e-05
-6.9031882e-13
-0.00021687682
4.8942207e-05
-2.3011343e-13
-0.00022654813
4.0171508e-05
3.1806941e-13
-0.00023389405
3.0225592e-05
8.4845588e-13
-0.00023868648
1.9246653e-05
1.22756e-12
-0.0002407384
7.428083e-06
1.4332425e-12
-0.00023991435
-4.9821556e-06
1.6099881e-12
-0.00023614101
-1.7681913e-05
1.9604463e-12
-0.00022941746
-3.0318913e-05
2.4933572e-12
-0.00021982414
-4.2500298e-05
2.9378375e-12
-0.00020752991
-5.3805831e-05
2.9485712e-12
-0.00019279608
-6.3805914e-05
2.5122109e-12
-0.00017597669
-7.208364e-05
2.110574e-12
-0.00015751363
-7.82601e-05
2.305815e-12
-0.00013792612
-8.2021666e-05
3.045894e-12
-0.00011779372
-8.3147449e-05
3.5338383e-12
-9.7732943e-05
-8.1534817e-05
3.0807116e-12
-7.8368118e-05
-7.7220658e-05
2.1040179e-12
-6.0297863e-05
-7.0396343e-05
1.8636818e-12
-4.4059524e-05
-6.141495e-05
2.8229681e-12
-3.0094425e-05
-5.0790434e-05
3.7515292e-12
-1.8717257e-05
-3.9189991e-05
3.7967988e-12
-1.009305e-05
-2.7421699e-05
4.4949803e-12
-4.2253124e-06
-1.6416307e-05
3.2136057e-12
-9.5848538e-07
-7.2065038e-06
-4.78622e-12
-9.5896621e-07
1.0500116e-11
-2.5450556e-06
8.203549e-06
-2.2537062e-11
-9.3288476e-06
2.48744e-05
1.8964373e-11
-1.9615366e-05
4.0559244e-05
-3.931844e-12
-3.2756853e-05
5.4541664e-05
-7.6841491e-12
-4.8175891e-05
6.6451335e-05
-3.9946788e-12
-6.5354096e-05
7.6126046e-05
-3.460638e-12
-8.3822145e-05
8.3545193e-05
-3.581749e-12
-0.00010315063
8.8772711e-05
-3.3574804e-12
-0.00012294162
9.1910003e-05
-3.0659003e-12
-0.00014282096
9.3063326e-05
-2.766022e-12
-0.00016243134
9.2324623e-05
-2.4168878e-12
-0.00018142687
8.9763711e-05
-2.0118433e-12
-0.00019946924
8.5429557e-05
-1.5800203e-12
-0.00021622603
7.9358231e-05
-1.1764685e-12
-0.00023137128
7.1585117e-05
-8.2661356e-13
-0.0002445883
6.2159224e-05
-4.7419022e-13
-0.00025557457
5.1157778e-05
-2.1251412e-14
-0.00026404865
3.8699671e-05
5.5762988e-13
-0.00026975866
2.4956652e-05
1.1476859e-12
-0.00027249208
1.0161501e-05
1.5661997e-12
-0.00027208666
-5.3875752e-06
1.7376672e-12
-0.0002684417
-2.1326877e-05
1.82849e-12
-0.00026152973
-3.7230893e-05
2.1000379e-12
-0.00025140738
-5.2622658e-05
2.6492619e-12
-0.00023822497
-6.6988242e-05
3.1935418e-12
-0.00022223362
-7.9797257e-05
3.2699182e-12
-0.00020378862
-9.0528645e-05
2.7601039e-12
-0.00018334761
-9.8701119e-05
2.1843714e-12
-0.0001614624
-0.00010390689
2.2657106e-12
-0.00013876326
-0.00010584659
3.0530502e-12
-0.00011593534
-0.00010436273
3.6745515e-12
-9.3687536e-05
-9.9468455e-05
3.3228265e-12
-7.2715427e-05
-9.1368461e-05
2.4215048e-12
-5.3660745e-05
-8.0469648e-05
2.1894027e-12
-3.7071085e-05
-6.7380101e-05
2.8373105e-12
-2.3363944e-05
-5.2897129e-05
3.7722885e-12
-1.2799313e-05
-3.7986332e-05
5.5252615e-12
-5.4648791e-06
-2.3750749e-05
3.453842e-12
-1.277258e-06
-1.1394122e-05
-7.859347e-12
-2.2362367e-06
1.277847e-11
-2.9284819e-06
1.1132058e-05
-2.5275921e-11
-1.0673671e-05
3.2619569e-05
2.2794095e-11
-2.2336173e-05
5.2221752e-05
-3.5734873e-12
-3.7135974e-05
6.9341475e-05
-7.9975962e-12
-5.439411e-05
8.3709474e-05
-3.9056769e-12
-7.3517627e-05
9.5249566e-05
-3.444176e-12
-9.3984299e-05
0.00010401187
-3.672149e-12
-0.00011532796
0.00011011637
-3.4633687e-12
-0.00013712517
0.00011370722
-3.1886322e-12
-0.00015898353
0.00011492168
-2.9402487e-12
-0.00018053177
0.00011387287
-2.6663337e-12
-0.00020141214
0.00011064408
-2.3296429e-12
-0.00022127502
0.00010529244
-1.9103747e-12
-0.00023977616
9.7859383e-05
-1.4398963e-12
-0.00025657636
8.8385312e-05
-1.0002919e-12
-0.00027134344
7.6926307e-05
-6.4058433e-13
-0.00028375656
6.3570901e-05
-3.0279942e-13
-0.00029351241
4.8455512e-05
1.4149606e-13
-0.0003003332
3.1777437e-05
7.5453333e-13
-0.00030397634
1.3804636e-05
1.4210877e-12
-0.00030424555
-5.1183635e-06
1.9022103e-12
-0.00030100295
-2.4569481e-05
2.0862063e-12
-0.0002941825
-4.4051355e-05
2.090036e-12
-0.00028380324
-6.3001929e-05
2.2656541e-12
-0.0002699822
-8.0809287e-05
2.8116495e-12
-0.00025294548
-9.6833974e-05
3.4562452e-12
-0.00023303598
-0.00011043814
3.6302729e-12
-0.00021071599
-0.00012102111
3.099532e-12
-0.00018656266
-0.00012806022
2.3937834e-12
-0.00016125482
-0.00013115443
2.3565646e-12
-0.00013554997
-0.00013006759
3.1107824e-12
-0.00011025147
-0.00012476695
3.7577967e-12
-8.6167376e-05
-0.00011545255
3.4918755e-12
-6.4063729e-05
-0.0001025733
2.6992431e-12
-4.461667e-05
-8.6827173e-05
2.3201789e-12
-2.8368531e-05
-6.9145273e-05
3.1641919e-12
-1.5693152e-05
-5.0661713e-05
6.0108437e-12
-6.7752204e-06
-3.2668684e-05
3.7732343e-12
-1.607035e-06
-1.65623e-05
-1.0713514e-11
-3.8432882e-06
1.5279735e-11
-3.2816988e-06
1.4413786e-05
-2.7863485e-11
-1.1915868e-05
4.1253715e-05
2.6183149e-11
-2.4855508e-05
6.5161398e-05
-3.3847838e-12
-4.1199915e-05
8.5685891e-05
-8.3627295e-12
-6.0176306e-05
0.00010268587
-3.8419589e-12
-8.1122246e-05
0.00011619551
-3.4413296e-12
-0.0001034663
0.00012635593
-3.8058763e-12
-0.00012670888
0.00013335895
-3.6343717e-12
-0.00015040464
0.00013740299
-3.3545667e-12
-0.00017414713
0.00013866417
-3.1030713e-12
-0.00019755593
0.00013728168
-2.8550895e-12
-0.00022026667
0.00013335482
-2.5906583e-12
-0.00024192387
0.00012694964
-2.2625698e-12
-0.00026217666
0.00011811217
-1.825177e-12
-0.00028067715
0.0001068858
-1.3094332e-12
-0.00029708128
9.333044e-05
-8.2146038e-13
-0.00031105193
7.7541553e-05
-4.3948985e-13
-0.00032226412
5.9667696e-05
-1.1411112e-13
-0.00033041218
3.9925493e-05
3.1026929e-13
-0.00033521895
1.8611403e-05
9.3250839e-13
-0.00033644711
-3.8902088e-06
1.6449746e-12
-0.00033391171
-2.710488e-05
2.2527423e-12
-0.00032749594
-5.0467125e-05
2.4624225e-12
-0.00031716686
-7.3331021e-05
2.3876937e-12
-0.00030299228
-9.4983872e-05
2.4475341e-12
-0.00028515681
-0.00011466945
2.9448205e-12
-0.00026397517
-0.00013161978
3.6448634e-12
-0.0002399006
-0.00014509567
3.9019973e-12
-0.00021352582
-0.00015443501
3.384733e-12
-0.00018557377
-0.00015910649
2.6154783e-12
-0.00015687657
-0.0001587648
2.4928102e-12
-0.00012834163
-0.0001533019
3.1640485e-12
-0.00010090606
-0.00014288812
3.7596491e-12
-7.5482467e-05
-0.00012799689
3.4883017e-12
-5.2901144e-05
-0.0001094085
2.5947907e-12
-3.3855115e-05
-8.8191311e-05
2.801066e-12
-1.8854785e-05
-6.5662049e-05
6.1513895e-12
-8.1982628e-06
-4.3325207e-05
3.7733811e-12
-1.9611623e-06
-2.2799386e-05
-1.3762422e-11
-5.8044695e-06
1.8051613e-11
-3.6023013e-06
1.8016119e-05
-3.0240604e-11
-1.3044869e-05
5.0696256e-05
2.9193378e-11
-2.7149285e-05
7.9265819e-05
-3.3320231e-12
-4.4907164e-05
0.00010344378
-8.8145059e-12
-6.5461498e-05
0.00012324021
-3.8511342e-12
-8.8087226e-05
0.00013882124
-3.4547587e-12
-0.0001121688
0.0001504375
-3.9453167e-12
-0.00013717741
0.00015836757
-3.8502743e-12
-0.00016264987
0.00016287545
-3.6043777e-12
-0.00018816992
0.00016418423
-3.3501815e-12
-0.00021335263
0.00016246439
-3.0774502e-12
-0.00023783201
0.00015783421
-2.8127315e-12
-0.00026125189
0.00015036952
-2.5547511e-12
-0.00028325981
0.0001401201
-2.2340275e-12
-0.0003035038
0.0001271298
-1.7791952e-12
-0.00032163163
0.00011145828
-1.2138618e-12
-0.00033729241
9.3202336e-05
-6.6189717e-13
-0.00035014035
7.2515632e-05
-2.3728575e-13
-0.00035984076
4.9625898e-05
8.4550876e-14
-0.0003660784
2.4849035e-05
4.6123491e-13
-0.00036856894
-1.3996733e-06
1.0214574e-12
-0.00036707132
-2.8602504e-05
1.8956253e-12
-0.00036140634
-5.6132099e-05
2.6005036e-12
-0.00035147455
-8.3262812e-05
2.85831e-12
-0.0003372778
-0.00010918063
2.7341606e-12
-0.00031894089
-0.00013300637
2.6787553e-12
-0.00029673173
-0.00015382895
3.0898281e-12
-0.00027107725
-0.00017075015
3.7817729e-12
-0.00024257161
-0.00018294064
4.0721107e-12
-0.00021197326
-0.00018970484
3.5781208e-12
-0.00018018758
-0.00019055048
2.8118796e-12
-0.00014823331
-0.00018525618
2.6612933e-12
-0.00011719275
-0.00017392867
3.2444844e-12
-8.8148944e-05
-0.0001570407
3.6432363e-12
-6.2115377e-05
-0.00013544207
3.0523183e-12
-3.9966487e-05
-0.00011034021
2.9766696e-12
-2.237761e-05
-8.3250937e-05
6.5209732e-12
-9.7826901e-06
-5.592013e-05
3.5871053e-12
-2.3546951e-06
-3.0227362e-05
-1.7312205e-11
-8.1591854e-06
2.1121019e-11
-3.8870486e-06
2.1903202e-05
-3.2399842e-11
-1.4048656e-05
6.0857833e-05
3.1844086e-11
-2.9192047e-05
9.4409215e-05
-3.3394114e-12
-4.8215257e-05
0.000122467
-9.3213529e-12
-7.0187834e-05
0.00014521279
-3.9716448e-12
-9.4330052e-05
0.00016296346
-3.5332116e-12
-0.0001199882
0.00017609565
-4.0906323e-12
-0.00014660907
0.00018498844
-4.0615168e-12
-0.00017371587
0.00018998225
-3.8860012e-12
-0.00020088684
0.0001913552
-3.6834358e-12
-0.00022773707
0.00018931462
-3.4110815e-12
-0.00025390379
0.00018400093
-3.0996358e-12
-0.00027903517
0.00017550091
-2.813388e-12
-0.00030278229
0.00016386722
-2.5567066e-12
-0.00032479393
0.00014914144
-2.2433006e-12
-0.00034471401
0.00013137835
-1.7749334e-12
-0.00036218122
0.00011066955
-1.1569093e-12
-0.0003768311
8.7165511e-05
-5.253821e-13
-0.00038830038
6.109518e-05
-3.7103285e-14
-0.00039623424
3.2782889e-05
3.0644321e-13
-0.00040029635
2.6624326e-06
7.0980779e-13
-0.00040018385
-2.8715011e-05
1.2802422e-12
-0.00039564403
-6.0671924e-05
2.1340759e-12
-0.00038649733
-9.2409506e-05
2.9234852e-12
-0.0003726626
-0.00012301536
3.2532785e-12
-0.00035418494
-0.00015148403
3.1111322e-12
-0.00033126377
-0.00017675012
2.9609014e-12
-0.00030427782
-0.00019773612
3.2652823e-12
-0.00027380298
-0.00021341548
3.8818847e-12
-0.00024061829
-0.00022288952
4.1353351e-12
-0.00020569517
-0.00022547359
3.6554834e-12
-0.00017016637
-0.00022078499
2.9602861e-12
-0.00013527317
-0.00020882188
2.8575576e-12
-0.00010229332
-0.00019002055
3.2249935e-12
-7.2455926e-05
-0.00016527946
3.034128e-12
-4.6853288e-05
-0.00013594285
3.2533556e-12
-2.6361361e-05
-0.00010374287
7.2997522e-12
-1.1580441e-05
-7.0701055e-05
3.5368551e-12
-2.8033145e-06
-3.9004466e-05
-2.1401325e-11
-1.0962523e-05
2.4541048e-11
-4.1321154e-06
2.6035353e-05
-3.4340961e-11
-1.4914092e-05
7.1639778e-05
3.4082567e-11
-3.0957124e-05
0.00011045225
-3.3638353e-12
-5.1080647e-05
0.00014259053
-9.8073407e-12
-7.4292264e-05
0.00016842441
-4.1753799e-12
-9.9766116e-05
0.00018843731
-3.710208e-12
-0.00012681668
0.00020314622
-4.2885816e-12
-0.00015487129
0.00021304306
-4.2722941e-12
-0.00018344393
0.00021855489
-4.143277e-12
-0.00021211149
0.00022002276
-4.020532e-12
-0.00024049343
0.00021769656
-3.8199861e-12
-0.00026823491
0.00021174242
-3.5152627e-12
-0.0002949935
0.00020225951
-3.1627011e-12
-0.00032042903
0.00018930275
-2.8471135e-12
-0.00034419638
0.0001729088
-2.5835857e-12
-0.00036594071
0.00015312269
-2.2762064e-12
-0.00038529502
0.00013002386
-1.7987491e-12
-0.00040187998
0.00010375048
-1.1301173e-12
-0.00041530641
7.452161e-05
-4.1009307e-13
-0.00042518074
4.2657222e-05
1.7990798e-13
-0.00043111393
8.5956267e-06
6.043419e-13
-0.00043273619
-2.7092759e-05
8.9545062e-13
-0.00042971413
-6.3693985e-05
1.4714083e-12
-0.00042177615
-0.00010034749
2.3620085e-12
-0.00040874169
-0.00013604982
3.2261316e-12
-0.00039055536
-0.00016967037
3.6218553e-12
-0.00036732348
-0.00019998201
3.4835189e-12
-0.00033934978
-0.00022570982
3.2661699e-12
-0.00030716535
-0.00024559992
3.4538221e-12
-0.00027154682
-0.00025850806
3.9305955e-12
-0.00023351599
-0.00026350441
4.0780361e-12
-0.00019431496
-0.00025998602
3.6244839e-12
-0.0001553529
-0.00024778395
3.092441e-12
-0.00011812526
-0.0002272482
2.9244217e-12
-8.4111823e-05
-0.00019929289
2.6136969e-12
-5.4665475e-05
-0.00016538919
3.2082702e-12
-3.0907337e-05
-0.00012750102
8.2313298e-12
-1.3644696e-05
-8.79637e-05
3.7005672e-12
-3.3229921e-06
-4.9326144e-05
-2.5997401e-11
-1.4285543e-05
2.8486208e-11
-4.333453e-06
3.0368843e-05
-3.6019505e-11
-1.562779e-05
8.2934082e-05
3.5836009e-11
-3.2417904e-05
0.00012724237
-3.4296669e-12
-5.34603e-05
0.00016363294
-1.0229056e-11
-7.7712451e-05
0.00019267656
-4.3956288e-12
-0.00010431099
0.00021503586
-3.9558659e-12
-0.0001325449
0.00023138013
-4.5675354e-12
-0.00016182692
0.00024232508
-4.5364213e-12
-0.00019166587
0.00024839383
-4.3983259e-12
-0.00022164123
0.00024999813
-4.3108201e-12
-0.00025138095
0.00024743629
-4.1991519e-12
-0.00028054263
0.00024090411
-3.9890281e-12
-0.0003087982
0.00023051508
-3.6546849e-12
-0.00033582176
0.00021632632
-3.2579143e-12
-0.00036128015
0.0001983672
-2.9021672e-12
-0.00038482593
0.00017666847
-2.6188714e-12
-0.00040609253
0.00015129047
-2.3111318e-12
-0.00042469175
0.0001223497
-1.827824e-12
-0.00044021382
9.0043677e-05
-1.1132506e-12
-0.00045223062
5.4674025e-05
-2.9238566e-13
-0.000460303
1.6668014e-05
4.0731845e-13
-0.00046399354
-2.3402219e-05
8.2154217e-13
-0.00046288445
-6.4803076e-05
1.1622635e-12
-0.00045660338
-0.00010662856
1.7323843e-12
-0.00044485606
-0.00014779714
2.623589e-12
-0.0004274661
-0.00018706032
3.5188584e-12
-0.0004044202
-0.00022302791
3.9509157e-12
-0.00037591559
-0.00025421443
3.8208455e-12
-0.00034240456
-0.00027911095
3.5558231e-12
-0.0003046286
-0.00029628402
3.6120855e-12
-0.00026363336
-0.00030449965
3.8895306e-12
-0.00022075511
-0.00030286426
3.9089975e-12
-0.00017757162
-0.00029096745
3.5574808e-12
-0.000135815
-0.00026900482
3.057448e-12
-9.7251924e-05
-0.00023785597
2.2694593e-12
-6.3544833e-05
-0.00019909629
2.9163031e-12
-3.6114686e-05
-0.00015493117
9.0930302e-12
-1.6028556e-05
-0.00010804983
3.9051108e-12
-3.929835e-06
-6.1424833e-05
-3.1221003e-11
-1.8215412e-05
3.3148698e-11
-4.4872223e-06
3.4856104e-05
-3.7355406e-11
-1.617732e-05
9.4624144e-05
3.7081928e-11
-3.3549894e-05
0.00014461495
-3.5793048e-12
-5.5314549e-05
0.0001853976
-1.0607475e-11
-8.0390361e-05
0.00021775238
-4.5996672e-12
-0.00010788479
0.00024253029
-4.2065375e-12
-0.00013706724
0.00026056258
-4.8893587e-12
-0.00016734026
0.0002725981
-4.87404e-12
-0.00019821119
0.00027926476
-4.7144109e-12
-0.0002292656
0.00028105255
-4.5994212e-12
-0.00026014366
0.00027831435
-4.5071591e-12
-0.00029051965
0.0002712801
-4.3923668e-12
-0.00032008481
0.00026008024
-4.1752312e-12
-0.00034853316
0.00024477468
-3.8134861e-12
-0.00037554991
0.00022538396
-3.3688544e-12
-0.00040080216
0.00020192072
-2.9594278e-12
-0.00042393157
0.00017441989
-2.6380436e-12
-0.00044454927
0.00014296741
-2.31715e-12
-0.00046223319
0.00010772759
-1.8246898e-12
-0.0004765286
6.8969437e-05
-1.0658141e-12
-0.00048695285
2.7092273e-05
-1.561004e-13
-0.00049300561
-1.7349452e-05
6.2763413e-13
-0.00049418561
-6.3623078e-05
1.1375133e-12
-0.0004900158
-0.00011079838
1.5141177e-12
-0.00048007772
-0.00015773522
2.0744172e-12
-0.00046405564
-0.0002030824
2.9394871e-12
-0.00044178973
-0.00024529382
3.811188e-12
-0.00041333573
-0.00028266844
4.231904e-12
-0.00037902594
-0.00031342075
4.0956841e-12
-0.00033952332
-0.00033578665
3.7801149e-12
-0.0002958575
-0.00034816547
3.6751587e-12
-0.00024942978
-0.00034929198
3.7402541e-12
-0.00020197495
-0.00033842228
3.7079494e-12
-0.00015547282
-0.00031550695
3.3003928e-12
-0.00011201158
-0.00028131722
2.1692547e-12
-7.3617489e-05
-0.00023749038
2.6816332e-12
-4.2076998e-05
-0.00018647167
9.9807872e-12
-1.8783999e-05
-0.00013134283
4.0339583e-12
-4.6400088e-06
-7.5568786e-05
-3.7305049e-11
-2.2855459e-05
3.8640853e-11
-4.5902818e-06
3.9446425e-05
-3.8292157e-11
-1.6552686e-05
0.00010658651
3.7852933e-11
-3.4333345e-05
0.00016239561
-3.8053951e-12
-5.6610882e-05
0.00020767515
-1.0980105e-11
-8.227718e-05
0.00024341868
-4.8172557e-12
-0.00011041818
0.0002706713
-4.4392835e-12
-0.00014028891
0.00029043332
-5.1922646e-12
-0.00017128551
0.0003035947
-5.2343224e-12
-0.00020291688
0.00031089614
-5.1000439e-12
-0.00023477768
0.00031291336
-4.9594519e-12
-0.00026652357
0.00031006025
-4.8160002e-12
-0.00029784945
0.00030260598
-4.6995732e-12
-0.00032847059
0.0002907014
-4.5766669e-12
-0.0003581067
0.00027441079
-4.3500009e-12
-0.00038646823
0.0002537455
-3.9611764e-12
-0.00041324484
0.00022869733
-3.4640097e-12
-0.00043809565
0.00019927071
-2.9860007e-12
-0.0004606415
0.00016551326
-2.6052576e-12
-0.00048045929
0.00012754539
-2.2518663e-12
-0.00049707943
8.558958e-05
-1.7403769e-12
-0.00050998717
4.000001e-05
-9.4541728e-13
-0.00051862936
-8.7072581e-06
3.3312191e-14
-0.00052242832
-5.9824117e-05
9.1584147e-13
-0.0005208046
-0.00011242209
1.5185506e-12
-0.00051321087
-0.00016532895
1.9493282e-12
-0.0004991782
-0.00021711508
2.5080091e-12
-0.00047837548
-0.00026609655
3.3160822e-12
-0.00045068058
-0.00031036334
4.1016876e-12
-0.00041625889
-0.00034784243
4.4516724e-12
-0.00037564084
-0.0003764047
4.2703956e-12
-0.00032978531
-0.00039402101
3.8685172e-12
-0.00028011189
-0.0003989654
3.6002383e-12
-0.00022848371
-0.00039005045
3.54648e-12
-0.00017712615
-0.00036686451
3.2833826e-12
-0.00012847764
-0.00032996572
2.0530218e-12
-8.4985575e-05
-0.00028098245
2.5637103e-12
-4.8878634e-05
-0.00022257862
1.109126e-11
-2.1960821e-05
-0.00015826065
4.1526811e-12
-5.469676e-06
-9.2059886e-05
-4.4424877e-11
-2.8325181e-05
4.5037198e-11
-4.6407181e-06
4.4087183e-05
-3.8834807e-11
-1.6747985e-05
0.00011869374
3.8177828e-11
-3.4756309e-05
0.00018040394
-4.0499866e-12
-5.732846e-05
0.00023024731
-1.1337593e-11
-8.3339261e-05
0.00026942949
-5.0906828e-12
-0.00011185972
0.00029919176
-4.693921e-12
-0.00014213475
0.00032070836
-5.4679745e-12
-0.00017355702
0.00033501698
-5.5577856e-12
-0.00020563944
0.00034297855
-5.4880344e-12
-0.0002379881
0.00034526202
-5.3837548e-12
-0.00027027701
0.00034234917
-5.2062199e-12
-0.00030222519
0.00033455417
-5.0119156e-12
-0.00033357652
0.00032205273
-4.8591393e-12
-0.00036408206
0.00030491633
-4.7133009e-12
-0.00039348458
0.00028314803
-4.4680756e-12
-0.00042150499
0.00025671775
-4.0481149e-12
-0.00044783031
0.00022559603
-3.4921884e-12
-0.00047210321
0.00018978617
-2.9323638e-12
-0.00049391351
0.0001493557
-2.4724974e-12
-0.00051279205
0.00010446813
-2.0647677e-12
-0.00052820805
5.5416012e-05
-1.5204526e-12
-0.00053957137
2.6560624e-06
-6.8883206e-13
-0.00054624181
-5.3153676e-05
3.3400082e-13
-0.00054754739
-0.00011111651
1.296568e-12
-0.00054281498
-0.00017006136
1.9895235e-12
-0.00053141579
-0.00022851428
2.4839941e-12
-0.00051282803
-0.00028468431
3.0362165e-12
-0.00048671736
-0.00033647401
3.7462345e-12
-0.00045303245
-0.00038152734
4.3753995e-12
-0.00041210822
-0.00041732892
4.5777852e-12
-0.00036476273
-0.00044136651
4.2785091e-12
-0.0003123668
-0.00045136134
3.7710408e-12
-0.00025686079
-0.00044555646
3.4366876e-12
-0.00020069379
-0.00042303151
3.0496202e-12
-0.00014667112
-0.00038398839
1.6830055e-12
-9.7717397e-05
-0.00032993618
2.3645247e-12
-5.6590326e-05
-0.00026370571
1.244388e-11
-2.5605323e-05
-0.00018924566
4.3519409e-12