/*--------------------------------*- C++ -*----------------------------------*\
  =========                 |
  \\      /  F ield         | OpenFOAM: The Open Source CFD Toolbox
   \\    /   O peration     | Website:  https://openfoam.org
    \\  /    A nd           | Version:  7
     \\/     M anipulation  |
\*---------------------------------------------------------------------------*/
FoamFile
{
    version     2.0;
    format      ascii;
    class       surfaceScalarField;
    location    "36";
    object      phi_0;
}
// * * * * * * * * * * * * * * * * * * * * * * * * * * * * * * * * * * * * * //

dimensions      [0 3 -1 0 0 0 0];

internalField   nonuniform List<scalar> 
45600
(
2.7506915e-07
-2.8234115e-07
-8.1645873e-11
4.0328563e-07
-1.2819088e-07
-2.5670174e-11
1.3253614e-07
2.7075637e-07
-7.0857216e-12
-5.6232084e-07
6.9485729e-07
-1.8001438e-12
-1.639318e-06
1.0769919e-06
3.3418445e-12
-3.0276268e-06
1.3883017e-06
6.8363973e-12
-4.6524679e-06
1.6248334e-06
9.135302e-12
-6.4450993e-06
1.7926213e-06
1.0752647e-11
-8.3454264e-06
1.9003134e-06
1.1893576e-11
-1.0301447e-05
1.9560056e-06
1.2659428e-11
-1.2267407e-05
1.9659465e-06
1.3112764e-11
-1.4201585e-05
1.9341674e-06
1.3276191e-11
-1.6064241e-05
1.8626451e-06
1.3147911e-11
-1.7816029e-05
1.7517751e-06
1.2721689e-11
-1.9417056e-05
1.6010136e-06
1.1992706e-11
-2.0826662e-05
1.4095925e-06
1.0956953e-11
-2.2003912e-05
1.1772407e-06
9.6122063e-12
-2.2908773e-05
9.0485733e-07
7.9550965e-12
-2.350387e-05
5.9509658e-07
5.9831109e-12
-2.37567e-05
2.5283016e-07
3.7073282e-12
-2.3642139e-05
-1.1456489e-07
1.1768515e-12
-2.3145012e-05
-4.9713229e-07
-1.5130321e-12
-2.2262582e-05
-8.8242672e-07
-4.2430653e-12
-2.1006624e-05
-1.2559404e-06
-6.90059e-12
-1.9404864e-05
-1.6017348e-06
-9.4104477e-12
-1.7501548e-05
-1.9032955e-06
-1.1698024e-11
-1.5356962e-05
-2.1445842e-06
-1.3640445e-11
-1.3045757e-05
-2.3112131e-06
-1.5032895e-11
-1.065411e-05
-2.3916385e-06
-1.5664633e-11
-8.275823e-06
-2.3782476e-06
-1.5457869e-11
-6.0075584e-06
-2.2682115e-06
-1.4529215e-11
-3.9435105e-06
-2.0640257e-06
-1.3058185e-11
-2.1697739e-06
-1.7737675e-06
-1.1051804e-11
-7.5855656e-07
-1.4112624e-06
-8.2959366e-12
2.3817918e-07
-9.9672704e-07
-4.8096041e-12
7.9653547e-07
-5.5828234e-07
-1.4420112e-12
9.293087e-07
-1.3270822e-07
1.8822426e-12
7.0563303e-07
2.2362733e-07
5.2724011e-12
2.9049267e-07
4.1499752e-07
8.7158832e-12
2.9040278e-07
2.0476303e-12
1.3284066e-07
-4.1515837e-07
-2.3071136e-11
-3.0172944e-07
3.0639326e-07
-1.4602743e-11
-1.6154339e-06
1.5844744e-06
-1.2706631e-11
-3.8747299e-06
2.9541677e-06
-1.343065e-11
-7.0073576e-06
4.2096329e-06
-1.4578483e-11
-1.0879764e-05
5.2607208e-06
-1.6109962e-11
-1.5335175e-05
6.0802606e-06
-1.7523547e-11
-2.021601e-05
6.6734768e-06
-1.8527572e-11
-2.5374066e-05
7.0583909e-06
-1.9084764e-11
-3.0673278e-05
7.2552362e-06
-1.9210272e-11
-3.5988546e-05
7.28123e-06
-1.8914225e-11
-4.1202834e-05
7.1484712e-06
-1.8210386e-11
-4.6203976e-05
6.8638054e-06
-1.712028e-11
-5.0882102e-05
6.4299207e-06
-1.5664715e-11
-5.5128233e-05
5.8471617e-06
-1.3858756e-11
-5.8834318e-05
5.1156915e-06
-1.1713156e-11
-6.1894803e-05
4.2377315e-06
-9.2321478e-12
-6.4209611e-05
3.2196667e-06
-6.423562e-12
-6.5688362e-05
2.07385e-06
-3.2985719e-12
-6.625547e-05
8.199464e-07
7.1215922e-14
-6.5855979e-05
-5.140449e-07
3.5715575e-12
-6.4460801e-05
-1.8923109e-06
7.1242914e-12
-6.2072472e-05
-3.2707749e-06
1.0587363e-11
-5.872909e-05
-4.5993527e-06
1.3892996e-11
-5.4507082e-05
-5.8237647e-06
1.6968326e-11
-4.9521906e-05
-6.8884695e-06
1.9660553e-11
-4.3926384e-05
-7.7400925e-06
2.173493e-11
-3.7906429e-05
-8.3311787e-06
2.2987937e-11
-3.1674132e-05
-8.6239921e-06
2.3390087e-11
-2.5458413e-05
-8.5940431e-06
2.3093081e-11
-1.9493635e-05
-8.2330214e-06
2.2232428e-11
-1.4006724e-05
-7.5508975e-06
2.0714041e-11
-9.2032605e-06
-6.5771763e-06
1.8293064e-11
-5.2528714e-06
-5.3616764e-06
1.4981966e-11
-2.2739949e-06
-3.9757186e-06
1.1320698e-11
-3.1733638e-07
-2.5150325e-06
7.9189118e-12
6.570028e-07
-1.1069805e-06
4.6251527e-12
8.0369047e-07
7.7145159e-08
3.4430502e-12
4.1792898e-07
8.0093448e-07
4.3843211e-12
7.0826033e-07
-3.1407583e-12
-2.7360362e-07
-1.4154164e-07
-1.2785333e-11
-1.6275106e-06
1.6603062e-06
-7.5793185e-12
-4.2894307e-06
4.2464029e-06
-8.8786449e-12
-8.2746987e-06
6.9394449e-06
-7.4358926e-12
-1.3474433e-05
9.4093748e-06
-5.4457013e-12
-1.9708733e-05
1.1495024e-05
-4.3703034e-12
-2.6765761e-05
1.3137289e-05
-3.6764284e-12
-3.4426625e-05
1.4334343e-05
-3.0839002e-12
-4.2478637e-05
1.5110407e-05
-2.5715143e-12
-5.0720454e-05
1.5497058e-05
-2.1196901e-12
-5.8962297e-05
1.5523075e-05
-1.6977788e-12
-6.7023691e-05
1.5209865e-05
-1.2808294e-12
-7.4730533e-05
1.4570645e-05
-8.557887e-13
-8.191272e-05
1.3612108e-05
-4.1987356e-13
-8.8403147e-05
1.2337592e-05
2.0824407e-14
-9.4038473e-05
1.0751023e-05
4.5006275e-13
-9.866179e-05
8.8610531e-06
8.4435426e-13
-0.00010212709
6.6849638e-06
1.1927153e-12
-0.00010430522
4.251976e-06
1.5083031e-12
-0.000105091
1.6057208e-06
1.8118313e-12
-0.00010441064
-1.1944035e-06
2.1095667e-12
-0.00010222945
-4.0734859e-06
2.3569577e-12
-9.8558507e-05
-6.9417064e-06
2.4942328e-12
-9.3459992e-05
-9.6978755e-06
2.5112581e-12
-8.7050392e-05
-1.2233391e-05
2.4781274e-12
-7.9501006e-05
-1.4437875e-05
2.4948608e-12
-7.1035288e-05
-1.6205799e-05
2.5848147e-12
-6.1922715e-05
-1.7443712e-05
2.6422773e-12
-5.2469123e-05
-1.807756e-05
2.5326004e-12
-4.3003663e-05
-1.8059534e-05
2.2836846e-12
-3.3862838e-05
-1.7373916e-05
2.1385672e-12
-2.5372264e-05
-1.6041503e-05
2.326564e-12
-1.7826901e-05
-1.4122482e-05
2.7542399e-12
-1.1470377e-05
-1.1718105e-05
3.0289316e-12
-6.4738186e-06
-8.9722654e-06
2.9246222e-12
-2.9140438e-06
-6.0749299e-06
2.6630676e-12
-7.5128726e-07
-3.2698863e-06
2.5623476e-12
1.9430191e-07
-8.6845736e-07
3.5399201e-12
2.6553578e-07
7.2982714e-07
5.6530291e-12
9.7378788e-07
7.6902101e-13
-7.4585686e-07
6.0432961e-07
-1.2987709e-11
-3.1796547e-06
4.0941055e-06
-1.5761521e-12
-7.3461285e-06
8.4128825e-06
-7.0317535e-12
-1.3163083e-05
1.2756405e-05
-6.3805849e-12
-2.0455843e-05
1.6702142e-05
-3.7479076e-12
-2.8992658e-05
2.0031844e-05
-2.40921e-12
-3.8513898e-05
2.265853e-05
-1.5354784e-12
-4.8752698e-05
2.4573139e-05
-7.476415e-13
-5.9447002e-05
2.580471e-05
-8.1541252e-14
-7.0344851e-05
2.6394908e-05
4.6975835e-13
-8.1205142e-05
2.6383369e-05
9.3056715e-13
-9.1795992e-05
2.5800716e-05
1.3153462e-12
-0.00010189242
2.4667072e-05
1.6341638e-12
-0.00011127464
2.2994321e-05
1.8948923e-12
-0.00011972779
2.0790739e-05
2.1047087e-12
-0.00012704361
1.8066848e-05
2.2650161e-12
-0.00013302416
1.4841605e-05
2.3577224e-12
-0.00013748741
1.1148222e-05
2.351722e-12
-0.00014027451
7.0390712e-06
2.2276498e-12
-0.00014125805
2.5892517e-06
2.0097153e-12
-0.00014035078
-2.1016899e-06
1.762217e-12
-0.00013751439
-6.9098731e-06
1.4888194e-12
-0.00013276702
-1.1689057e-05
1.1760097e-12
-0.0001261893
-1.627558e-05
7.6861493e-13
-0.00011792787
-2.0494815e-05
2.5116551e-13
-0.00010819591
-2.4169868e-05
-2.8020976e-13
-9.7269885e-05
-2.7131852e-05
-6.5499601e-13
-8.5482426e-05
-2.9231165e-05
-7.7815041e-13
-7.3210945e-05
-3.0348991e-05
-7.4629456e-13
-6.086224e-05
-3.0408192e-05
-7.5519852e-13
-4.885343e-05
-2.9382746e-05
-8.3459584e-13
-3.7589917e-05
-2.7305099e-05
-7.1403741e-13
-2.7441359e-05
-2.4271095e-05
-7.7708168e-14
-1.8716719e-05
-2.0442689e-05
9.9205617e-13
-1.1639432e-05
-1.6049423e-05
1.9727006e-12
-6.3235245e-06
-1.1390776e-05
2.4855735e-12
-2.7515368e-06
-6.8419556e-06
2.853184e-12
-7.5720351e-07
-2.8628996e-06
3.5813503e-12
-9.5378401e-09
-1.7825522e-08
4.4640508e-12
9.6427961e-07
3.7822504e-12
-1.2279735e-06
1.832319e-06
-1.4479979e-11
-4.7881229e-06
7.6542537e-06
4.4404316e-12
-1.052156e-05
1.4146327e-05
-6.1408767e-12
-1.8214354e-05
2.0449204e-05
-7.2579642e-12
-2.7603958e-05
2.6091751e-05
-4.8767677e-12
-3.8396314e-05
3.0824207e-05
-4.1427371e-12
-5.0283069e-05
3.454529e-05
-3.8027279e-12
-6.2954795e-05
3.7244868e-05
-3.3473286e-12
-7.6109048e-05
3.8958963e-05
-2.8926809e-12
-8.9453782e-05
3.9739643e-05
-2.4577213e-12
-0.00010270748
3.9637068e-05
-2.0220657e-12
-0.00011559753
3.8690777e-05
-1.5851524e-12
-0.00012785834
3.6927886e-05
-1.1529666e-12
-0.00013923019
3.4366174e-05
-7.3025186e-13
-0.00014945974
3.1020284e-05
-3.1520052e-13
-0.00015830247
2.6909571e-05
1.0513678e-13
-0.00016552723
2.2066367e-05
5.3947575e-13
-0.00017092274
1.6543733e-05
9.7124801e-13
-0.00017430558
1.0421922e-05
1.356994e-12
-0.00017552934
3.8130128e-06
1.6617461e-12
-0.00017449411
-3.1369252e-06
1.8972716e-12
-0.00017115588
-1.0248127e-05
2.106153e-12
-0.0001655348
-1.7310141e-05
2.3331236e-12
-0.0001577219
-2.4088468e-05
2.5499685e-12
-0.00014788318
-3.0333506e-05
2.6571404e-12
-0.00013626057
-3.5792467e-05
2.5830463e-12
-0.00012316895
-4.0223511e-05
2.3990625e-12
-0.00010898873
-4.3411435e-05
2.3028025e-12
-9.4153822e-05
-4.5183908e-05
2.4282721e-12
-7.9134854e-05
-4.5427106e-05
2.6609347e-12
-6.4418032e-05
-4.4099503e-05
2.7175972e-12
-5.0480333e-05
-4.1242809e-05
2.4996557e-12
-3.7762146e-05
-3.6989383e-05
2.3105885e-12
-2.663887e-05
-3.1566056e-05
2.534428e-12
-1.7393204e-05
-2.5295063e-05
3.0850251e-12
-1.0189892e-05
-1.8593977e-05
3.5625979e-12
-5.0546982e-06
-1.1977104e-05
3.9906306e-12
-1.8598451e-06
-6.0578223e-06
3.3712761e-12
-3.2225254e-07
-1.5554531e-06
3.3421687e-13
6.4204033e-07
5.9019666e-12
-1.693173e-06
3.5255089e-06
-1.697779e-11
-6.3714188e-06
1.2332494e-05
9.863808e-12
-1.3671463e-05
2.1446381e-05
-5.1628838e-12
-2.3234072e-05
3.001182e-05
-7.3549722e-12
-3.4695257e-05
3.7552938e-05
-4.6521268e-12
-4.7689835e-05
4.3818788e-05
-4.0861822e-12
-6.1857533e-05
4.8712996e-05
-3.9582088e-12
-7.6848074e-05
5.2235414e-05
-3.5969131e-12
-9.2323875e-05
5.4434767e-05
-3.203705e-12
-0.00010796028
5.5376044e-05
-2.8224165e-12
-0.00012344397
5.5120762e-05
-2.422794e-12
-0.00013847069
5.3717503e-05
-1.9981689e-12
-0.00015274322
5.120042e-05
-1.5539345e-12
-0.00016597053
4.7593489e-05
-1.1023766e-12
-0.00017786872
4.2918485e-05
-6.5895241e-13
-0.00018816404
3.7204879e-05
-2.2721227e-13
-0.00019659788
3.0500201e-05
2.0997031e-13
-0.00020293383
2.2879676e-05
6.7182236e-13
-0.00020696613
1.4454228e-05
1.1460609e-12
-0.00020852928
5.3761726e-06
1.5808689e-12
-0.0002075081
-4.1581006e-06
1.9201607e-12
-0.00020384766
-1.3908576e-05
2.1617388e-12
-0.00019756246
-2.3595367e-05
2.3646003e-12
-0.00018874397
-3.2906977e-05
2.6011483e-12
-0.00017756589
-4.1511573e-05
2.8608682e-12
-0.00016428624
-4.9072076e-05
3.0235631e-12
-0.00014924548
-5.5264251e-05
2.9719251e-12
-0.00013285988
-5.9797066e-05
2.7597228e-12
-0.00011560968
-6.2434173e-05
2.6276161e-12
-9.8021786e-05
-6.3015031e-05
2.7718431e-12
-8.064723e-05
-6.1474003e-05
3.0820805e-12
-6.4034143e-05
-5.7855809e-05
3.2093598e-12
-4.8697406e-05
-5.2326108e-05
3.0020823e-12
-3.5086905e-05
-4.517665e-05
2.7496242e-12
-2.3556718e-05
-3.6825343e-05
2.8024547e-12
-1.4337889e-05
-2.7812787e-05
3.3558542e-12
-7.517459e-06
-1.8797457e-05
4.5601913e-12
-3.026707e-06
-1.0548573e-05
3.6007753e-12
-6.4249958e-07
-3.9396969e-06
-2.115892e-12
-4.6989427e-10
8.2993007e-12
-2.1329397e-06
5.6584684e-06
-1.9752917e-11
-7.8910824e-06
1.8090624e-05
1.4654375e-11
-1.6717412e-05
3.027272e-05
-4.4095959e-12
-2.8105748e-05
4.1400168e-05
-7.3907155e-12
-4.1585098e-05
5.1032291e-05
-4.1957834e-12
-5.6714146e-05
5.8947837e-05
-3.6831527e-12
-7.307829e-05
6.5077142e-05
-3.6893973e-12
-9.0287098e-05
6.9444227e-05
-3.3690431e-12
-0.00010797133
7.2119004e-05
-2.9934903e-12
-0.00012577927
7.318399e-05
-2.638886e-12
-0.00014337274
7.2714234e-05
-2.2746349e-12
-0.00016042341
7.0768176e-05
-1.8890074e-12
-0.00017661018
6.7387188e-05
-1.4778108e-12
-0.00019161813
6.2601439e-05
-1.0410887e-12
-0.0002051395
5.6439862e-05
-5.945244e-13
-0.00021687682
4.8942206e-05
-1.6530835e-13
-0.00022654812
4.0171503e-05
2.3506433e-13
-0.00023389405
3.0225588e-05
6.2703833e-13
-0.00023868649
1.9246655e-05
1.0415035e-12
-0.00024073841
7.4280918e-06
1.4758477e-12
-0.00023991435
-4.9821477e-06
1.8724637e-12
-0.000236141
-1.7681916e-05
2.1626161e-12
-0.00022941745
-3.0318926e-05
2.3164055e-12
-0.00021982415
-4.250031e-05
2.4063378e-12
-0.00020752992
-5.3805825e-05
2.5452763e-12
-0.0001927961
-6.3805891e-05
2.7562141e-12
-0.00017597668
-7.208362e-05
2.9081502e-12
-0.0001575136
-7.826011e-05
2.8358613e-12
-0.0001379261
-8.2021702e-05
2.5663235e-12
-0.00011779373
-8.3147475e-05
2.3758125e-12
-9.7732983e-05
-8.15348e-05
2.5198286e-12
-7.8368134e-05
-7.7220613e-05
2.9007576e-12
-6.0297831e-05
-7.0396323e-05
3.1317107e-12
-4.4059484e-05
-6.1414979e-05
2.9871107e-12
-3.0094433e-05
-5.0790473e-05
2.6746045e-12
-1.8717296e-05
-3.9189992e-05
2.9925951e-12
-1.0093057e-05
-2.7421672e-05
4.810115e-12
-4.2252948e-06
-1.6416296e-05
3.7350141e-12
-9.5847772e-07
-7.2065128e-06
-4.7474384e-12
-9.5897391e-07
1.0284477e-11
-2.5450542e-06
8.2035476e-06
-2.2529928e-11
-9.328849e-06
2.4874399e-05
1.8927669e-11
-1.9615367e-05
4.0559245e-05
-3.9304196e-12
-3.2756852e-05
5.4541666e-05
-7.6391089e-12
-4.8175889e-05
6.6451335e-05
-3.96737e-12
-6.5354095e-05
7.6126044e-05
-3.5089712e-12
-8.3822146e-05
8.3545192e-05
-3.6712462e-12
-0.00010315063
8.8772712e-05
-3.425231e-12
-0.00012294163
9.1910005e-05
-3.0877004e-12
-0.00014282096
9.3063327e-05
-2.7595796e-12
-0.00016243134
9.2324623e-05
-2.417753e-12
-0.00018142687
8.9763709e-05
-2.0584697e-12
-0.00019946924
8.5429555e-05
-1.6802834e-12
-0.00021622603
7.9358232e-05
-1.2704682e-12
-0.00023137129
7.1585121e-05
-8.2204565e-13
-0.0002445883
6.2159227e-05
-3.5446877e-13
-0.00025557457
5.1157778e-05
9.3692582e-14
-0.00026404865
3.8699665e-05
5.0088833e-13
-0.00026975865
2.4956645e-05
8.868331e-13
-0.00027249208
1.0161501e-05
1.2925962e-12
-0.00027208667
-5.3875654e-06
1.7277523e-12
-0.00026844171
-2.1326866e-05
2.149632e-12
-0.00026152972
-3.7230892e-05
2.447162e-12
-0.00025140736
-5.2622673e-05
2.5706665e-12
-0.00023822497
-6.698826e-05
2.5963174e-12
-0.00022223364
-7.9797256e-05
2.6760745e-12
-0.00020378864
-9.052862e-05
2.8741848e-12
-0.00018334761
-9.8701092e-05
3.0562551e-12
-0.00016146237
-0.00010390689
3.0094312e-12
-0.00013876324
-0.00010584662
2.7263264e-12
-0.00011593535
-0.00010436276
2.5036301e-12
-9.3687576e-05
-9.9468445e-05
2.6401256e-12
-7.2715443e-05
-9.1368421e-05
3.0472695e-12
-5.3660714e-05
-8.046963e-05
3.2552152e-12
-3.7071054e-05
-6.7380124e-05
2.9422132e-12
-2.3363955e-05
-5.2897156e-05
2.9967371e-12
-1.2799336e-05
-3.7986331e-05
5.073821e-12
-5.4648811e-06
-2.3750734e-05
3.6297521e-12
-1.2772489e-06
-1.1394117e-05
-7.5995062e-12
-2.2362411e-06
1.2794046e-11
-2.9284798e-06
1.1132057e-05
-2.5228242e-11
-1.0673671e-05
3.2619568e-05
2.2773311e-11
-2.2336174e-05
5.2221752e-05
-3.618486e-12
-3.7135975e-05
6.9341476e-05
-7.9985471e-12
-5.4394109e-05
8.3709475e-05
-3.8637143e-12
-7.3517626e-05
9.5249566e-05
-3.4234958e-12
-9.3984299e-05
0.00010401187
-3.7145173e-12
-0.00011532796
0.00011011637
-3.5441947e-12
-0.00013712517
0.00011370722
-3.2591799e-12
-0.00015898353
0.00011492168
-2.9675136e-12
-0.00018053177
0.00011387287
-2.6442013e-12
-0.00020141213
0.00011064408
-2.2930191e-12
-0.00022127501
0.00010529244
-1.9283054e-12
-0.00023977616
9.785938e-05
-1.5471706e-12
-0.00025657636
8.8385312e-05
-1.1286333e-12
-0.00027134344
7.6926311e-05
-6.5832211e-13
-0.00028375656
6.3570907e-05
-1.5709772e-13
-0.0002935124
4.8455514e-05
3.2705599e-13
-0.00030033319
3.1777431e-05
7.5894783e-13
-0.00030397633
1.3804627e-05
1.1477505e-12
-0.00030424556
-5.1183663e-06
1.5395209e-12
-0.00030100297
-2.4569471e-05
1.9956432e-12
-0.0002941825
-4.4051339e-05
2.4434463e-12
-0.00028380323
-6.3001924e-05
2.7632166e-12
-0.00026998218
-8.0809302e-05
2.8734886e-12
-0.00025294547
-9.6833998e-05
2.8430149e-12
-0.000233036
-0.00011043814
2.8598542e-12
-0.00021071602
-0.00012102109
3.0328909e-12
-0.00018656266
-0.00012806019
3.2325139e-12
-0.00016125479
-0.00013115443
3.2091986e-12
-0.00013554994
-0.00013006762
2.9292714e-12
-0.00011025148
-0.00012476698
2.7077456e-12
-8.6167412e-05
-0.00011545254
2.8614038e-12
-6.406374e-05
-0.00010257327
3.1916935e-12
-4.4616645e-05
-8.682716e-05
3.0937081e-12
-2.8368514e-05
-6.9145289e-05
3.1917851e-12
-1.5693161e-05
-5.066173e-05
5.5425186e-12
-6.7752325e-06
-3.2668683e-05
3.5114728e-12
-1.6070356e-06
-1.6562292e-05
-1.064607e-11
-3.843286e-06
1.5382485e-11
-3.281698e-06
1.4413787e-05
-2.7808209e-11
-1.1915866e-05
4.1253714e-05
2.6219e-11
-2.4855507e-05
6.5161397e-05
-3.4130994e-12
-4.1199916e-05
8.568589e-05
-8.4078582e-12
-6.0176307e-05
0.00010268587
-3.8409792e-12
-8.1122245e-05
0.00011619551
-3.3978141e-12
-0.0001034663
0.00012635593
-3.7778663e-12
-0.00012670888
0.00013335895
-3.6585973e-12
-0.00015040464
0.00013740299
-3.422208e-12
-0.00017414713
0.00013866417
-3.1783641e-12
-0.00019755593
0.00013728168
-2.8891343e-12
-0.00022026667
0.00013335482
-2.5502915e-12
-0.00024192387
0.00012694965
-2.1819117e-12
-0.00026217666
0.00011811217
-1.8035959e-12
-0.00028067715
0.0001068858
-1.4128952e-12
-0.00029708128
9.3330438e-05
-9.8241194e-13
-0.00031105193
7.7541557e-05
-4.8963891e-13
-0.00032226412
5.9667703e-05
4.8909745e-14
-0.00033041217
3.9925496e-05
5.7723418e-13
-0.00033521894
1.8611397e-05
1.0305428e-12
-0.0003364471
-3.890221e-06
1.3934005e-12
-0.00033391172
-2.7104887e-05
1.808504e-12
-0.00032749596
-5.0467117e-05
2.2620209e-12
-0.00031716687
-7.3331003e-05
2.7262579e-12
-0.00030299227
-9.4983862e-05
3.0685613e-12
-0.00028515679
-0.00011466946
3.1704189e-12
-0.00026397515
-0.00013161981
3.0882592e-12
-0.00023990062
-0.00014509568
3.0384004e-12
-0.00021352585
-0.00015443499
3.1679094e-12
-0.00018557377
-0.00015910645
3.354219e-12
-0.00015687654
-0.00015876479
3.3301816e-12
-0.0001283416
-0.00015330192
3.0699063e-12
-0.00010090607
-0.00014288814
2.908718e-12
-7.5482495e-05
-0.00012799689
3.0147058e-12
-5.2901148e-05
-0.00010940848
2.9599859e-12
-3.3855098e-05
-8.8191302e-05
3.2898936e-12
-1.8854776e-05
-6.566206e-05
6.1702365e-12
-8.1982681e-06
-4.3325217e-05
3.5161513e-12
-1.9611683e-06
-2.2799386e-05
-1.3909495e-11
-5.8044664e-06
1.8063763e-11
-3.6023022e-06
1.801612e-05
-3.0228196e-11
-1.3044868e-05
5.0696257e-05
2.9253339e-11
-2.7149282e-05
7.9265818e-05
-3.2998865e-12
-4.4907163e-05
0.00010344378
-8.8416423e-12
-6.5461499e-05
0.00012324021
-3.8901824e-12
-8.8087227e-05
0.00013882124
-3.4500598e-12
-0.0001121688
0.0001504375
-3.901463e-12
-0.00013717741
0.00015836757
-3.8098484e-12
-0.00016264987
0.00016287545
-3.6026914e-12
-0.00018816992
0.00016418422
-3.4007284e-12
-0.00021335263
0.00016246439
-3.1582652e-12
-0.00023783201
0.00015783421
-2.8563302e-12
-0.00026125189
0.00015036953
-2.4983217e-12
-0.00028325981
0.0001401201
-2.1060113e-12
-0.00030350379
0.00012712979
-1.7055762e-12
-0.00032163163
0.00011145827
-1.2984712e-12
-0.00033729241
9.3202332e-05
-8.5305642e-13
-0.00035014035
7.2515635e-05
-3.3624723e-13
-0.00035984076
4.9625906e-05
2.4280934e-13
-0.00036607839
2.4849041e-05
8.0421176e-13
-0.00036856893
-1.3996776e-06
1.2359112e-12
-0.00036707131
-2.8602518e-05
1.7038428e-12
-0.00036140635
-5.6132111e-05
2.0987136e-12
-0.00035147457
-8.3262807e-05
2.5335507e-12
-0.00033727781
-0.00010918061
3.0047469e-12
-0.00031894088
-0.00013300636
3.3622149e-12
-0.00029673171
-0.00015382895
3.4575638e-12
-0.00027107724
-0.00017075018
3.3336613e-12
-0.00024257163
-0.00018294066
3.2240211e-12
-0.00021197329
-0.00018970482
3.2973426e-12
-0.00018018759
-0.00019055045
3.4355052e-12
-0.00014823328
-0.00018525617
3.3945984e-12
-0.00011719273
-0.00017392869
3.1978833e-12
-8.8148955e-05
-0.00015704072
3.0306594e-12
-6.2115396e-05
-0.00013544207
2.7438521e-12
-3.996649e-05
-0.00011034019
3.2011601e-12
-2.2377601e-05
-8.3250931e-05
6.80517e-12
-9.7826857e-06
-5.5920136e-05
3.6085959e-12
-2.3546976e-06
-3.0227367e-05
-1.7436151e-11
-8.1591859e-06
2.1044843e-11
-3.8870494e-06
2.1903202e-05
-3.2433717e-11
-1.4048656e-05
6.0857834e-05
3.1861391e-11
-2.9192046e-05
9.4409216e-05
-3.2803337e-12
-4.8215255e-05
0.000122467
-9.2889029e-12
-7.0187833e-05
0.00014521279
-3.9911201e-12
-9.4330052e-05
0.00016296346
-3.5635388e-12
-0.0001199882
0.00017609565
-4.088396e-12
-0.00014660907
0.00018498844
-4.0207143e-12
-0.00017371587
0.00018998225
-3.8280291e-12
-0.00020088684
0.0001913552
-3.6478861e-12
-0.00022773706
0.00018931462
-3.4405826e-12
-0.00025390379
0.00018400093
-3.1872723e-12
-0.00027903517
0.00017550092
-2.8726083e-12
-0.00030278229
0.00016386722
-2.4920699e-12
-0.00032479393
0.00014914145
-2.0691047e-12
-0.000344714
0.00013137835
-1.6377439e-12
-0.00036218122
0.00011066955
-1.2061595e-12
-0.0003768311
8.7165504e-05
-7.4250032e-13
-0.00038830039
6.109518e-05
-2.0298091e-13
-0.00039623425
3.2782898e-05
4.272701e-13
-0.00040029635
2.6624418e-06
1.1033637e-12
-0.00040018384
-2.8715012e-05
1.6129331e-12
-0.00039564401
-6.0671939e-05
2.032555e-12
-0.00038649733
-9.2409521e-05
2.4049842e-12
-0.00037266262
-0.00012301536
2.822823e-12
-0.00035418496
-0.00015148401
3.2862136e-12
-0.00033126377
-0.0001767501
3.641115e-12
-0.00030427779
-0.00019773612
3.720492e-12
-0.00027380296
-0.00021341551
3.5585914e-12
-0.0002406183
-0.00022288954
3.3939925e-12
-0.0002056952
-0.00022547358
3.3960344e-12
-0.00017016637
-0.00022078497
3.4694365e-12
-0.00013527315
-0.00020882188
3.4424341e-12
-0.0001022933
-0.00019002057
3.2199707e-12
-7.2455934e-05
-0.00016527947
2.6512678e-12
-4.68533e-05
-0.00013594284
3.0602959e-12
-2.6361362e-05
-0.00010374286
7.4169825e-12
-1.1580436e-05
-7.0701051e-05
3.6944568e-12
-2.803312e-06
-3.9004469e-05
-2.1376619e-11
-1.0962526e-05
2.4486551e-11
-4.1321143e-06
2.6035352e-05
-3.4371863e-11
-1.4914093e-05
7.1639778e-05
3.4040884e-11
-3.0957125e-05
0.00011045225
-3.3464327e-12
-5.1080646e-05
0.00014259053
-9.7486355e-12
-7.4292263e-05
0.00016842441
-4.1377694e-12
-9.9766115e-05
0.00018843731
-3.7167689e-12
-0.00012681668
0.00020314622
-4.3143494e-12
-0.0001548713
0.00021304306
-4.2807734e-12
-0.00018344393
0.00021855489
-4.1076813e-12
-0.00021211149
0.00022002276
-3.940263e-12
-0.00024049342
0.00021769656
-3.7453667e-12
-0.00026823491
0.00021174242
-3.5210014e-12
-0.0002949935
0.0002022595
-3.2578821e-12
-0.00032042903
0.00018930275
-2.9291348e-12
-0.00034419638
0.0001729088
-2.5232448e-12
-0.00036594071
0.00015312269
-2.064218e-12
-0.00038529501
0.00013002386
-1.5938059e-12
-0.00040187997
0.00010375047
-1.1307732e-12
-0.00041530641
7.4521601e-05
-6.4519215e-13
-0.00042518074
4.265722e-05
-6.443088e-14
-0.00043111394
8.5956355e-06
6.5425263e-13
-0.00043273619
-2.7092747e-05
1.2983177e-12
-0.00042971412
-6.3693983e-05
1.8960635e-12
-0.00042177614
-0.0001003475
2.3606778e-12
-0.00040874169
-0.00013604984
2.7354972e-12
-0.00039055537
-0.00016967037
3.134131e-12
-0.00036732349
-0.00019998199
3.5714278e-12
-0.00033934977
-0.0002257098
3.895174e-12
-0.00030716533
-0.00024559992
3.9354521e-12
-0.0002715468
-0.00025850808
3.7268945e-12
-0.000233516
-0.00026350442
3.5012411e-12
-0.00019431498
-0.00025998601
3.4331735e-12
-0.0001553529
-0.00024778394
3.4816579e-12
-0.00011812524
-0.00022724819
3.3549355e-12
-8.4111816e-05
-0.0001992929
2.6479949e-12
-5.466548e-05
-0.0001653892
2.993709e-12
-3.0907344e-05
-0.00012750102
8.1095848e-12
-1.3644697e-05
-8.7963695e-05
3.7482808e-12
-3.3229894e-06
-4.9326142e-05
-2.5923378e-11
-1.4285544e-05
2.8493105e-11
-4.3334505e-06
3.0368843e-05
-3.6008062e-11
-1.5627789e-05
8.293408e-05
3.5788815e-11
-3.2417905e-05
0.00012724237
-3.4717866e-12
-5.34603e-05
0.00016363294
-1.0210168e-11
-7.7712451e-05
0.00019267656
-4.3363161e-12
-0.00010431099
0.00021503586
-3.9087752e-12
-0.0001325449
0.00023138013
-4.5621124e-12
-0.00016182692
0.00024232508
-4.5649324e-12
-0.00019166587
0.00024839383
-4.4246025e-12
-0.00022164123
0.00024999813
-4.2823889e-12
-0.00025138095
0.00024743629
-4.0964181e-12
-0.00028054263
0.00024090411
-3.8748609e-12
-0.00030879819
0.00023051508
-3.6336644e-12
-0.00033582176
0.00021632632
-3.3577026e-12
-0.00036128016
0.0001983672
-3.0124071e-12
-0.00038482593
0.00017666847
-2.5794964e-12
-0.00040609253
0.00015129047
-2.080851e-12
-0.00042469175
0.00012234971
-1.5651234e-12
-0.00044021381
9.004367e-05
-1.0607598e-12
-0.00045223062
5.4674015e-05
-5.3415555e-13
-0.00046030301
1.666801e-05
8.5791216e-14
-0.00046399355
-2.3402212e-05
7.7784924e-13
-0.00046288446
-6.4803062e-05
1.528203e-12
-0.00045660337
-0.00010662856
2.2016898e-12
-0.00044485605
-0.00014779715
2.7079476e-12
-0.0004274661
-0.00018706034
3.090925e-12
-0.00040442021
-0.00022302792
3.465208e-12
-0.0003759156
-0.00025421442
3.8507659e-12
-0.00034240455
-0.00027911093
4.1038366e-12
-0.00030462858
-0.00029628402
4.069189e-12
-0.00026363335
-0.00030449967
3.7920533e-12
-0.00022075512
-0.00030286428
3.5145325e-12
-0.00017757163
-0.00029096744
3.4354009e-12
-0.000135815
-0.00026900481
3.3246864e-12
-9.7251916e-05
-0.00023785597
2.5654807e-12
-6.3544829e-05
-0.00019909629
2.9667041e-12
-3.6114689e-05
-0.00015493118
8.9795096e-12
-1.6028559e-05
-0.00010804983
3.8256511e-12
-3.9298353e-06
-6.142483e-05
-3.1220792e-11
-1.821541e-05
3.3160449e-11
-4.4872206e-06
3.4856104e-05
-3.732123e-11
-1.6177318e-05
9.4624143e-05
3.7083642e-11
-3.3549894e-05
0.00014461495
-3.6280034e-12
-5.531455e-05
0.0001853976
-1.0644516e-11
-8.0390361e-05
0.00021775238
-4.5820578e-12
-0.00010788479
0.00024253029
-4.1482363e-12
-0.00013706724
0.00026056258
-4.8353622e-12
-0.00016734026
0.0002725981
-4.8607086e-12
-0.00019821119
0.00027926476
-4.7514333e-12
-0.0002292656
0.00028105255
-4.6477974e-12
-0.00026014366
0.00027831436
-4.4901952e-12
-0.00029051965
0.0002712801
-4.2735215e-12
-0.00032008481
0.00026008024
-4.0251164e-12
-0.00034853315
0.00024477467
-3.7612153e-12
-0.00037554991
0.00022538396
-3.4658404e-12
-0.00040080216
0.00020192072
-3.100395e-12
-0.00042393158
0.00017441989
-2.6389261e-12
-0.00044454928
0.00014296742
-2.0981274e-12
-0.00046223318
0.0001077276
-1.5282853e-12
-0.00047652859
6.8969432e-05
-9.6514623e-13
-0.00048695285
2.7092262e-05
-3.8958992e-13
-0.00049300562
-1.7349459e-05
2.487501e-13
-0.00049418562
-6.3623072e-05
1.0009321e-12
-0.0004900158
-0.00011079837
1.8109606e-12
-0.00048007771
-0.00015773521
2.5394959e-12
-0.00046405563
-0.00020308241
3.0829664e-12
-0.00044178973
-0.00024529384
3.4689791e-12
-0.00041333574
-0.00028266844
3.8010801e-12
-0.00037902595
-0.00031342074
4.0967181e-12
-0.00033952332
-0.00033578663
4.2269008e-12
-0.00029585749
-0.00034816547
4.0707421e-12
-0.00024942977
-0.000349292
3.7263617e-12
-0.00020197496
-0.00033842228
3.470519e-12
-0.00015547283
-0.00031550695
3.2206954e-12
-0.00011201158
-0.00028131721
2.3270671e-12
-7.3617485e-05
-0.00023749038
2.8621476e-12
-4.2076996e-05
-0.00018647167
1.0017994e-11
-1.8784001e-05
-0.00013134284
3.9680514e-12
-4.6400102e-06
-7.5568785e-05
-3.7369129e-11
-2.2855457e-05
3.8609635e-11
-4.590282e-06
3.9446426e-05
-3.8286871e-11
-1.6552684e-05
0.00010658651
3.7891368e-11
-3.4333343e-05
0.00016239561
-3.8056383e-12
-5.6610882e-05
0.00020767515
-1.1021759e-11
-8.2277181e-05
0.00024341868
-4.8524127e-12
-0.00011041818
0.0002706713
-4.4305188e-12
-0.00014028891
0.00029043332
-5.1434065e-12
-0.00017128551
0.0003035947
-5.1771689e-12
-0.00020291688
0.00031089613
-5.0806199e-12
-0.00023477768
0.00031291335
-5.0058327e-12
-0.00026652358
0.00031006025
-4.8883056e-12
-0.00029784945
0.00030260598
-4.7011311e-12
-0.00032847059
0.0002907014
-4.4530966e-12
-0.0003581067
0.00027441079
-4.170789e-12
-0.00038646823
0.0002537455
-3.873675e-12
-0.00041324483
0.00022869733
-3.5493928e-12
-0.00043809566
0.00019927071
-3.1575386e-12
-0.00046064151
0.00016551326
-2.6639514e-12
-0.0004804593
0.0001275454
-2.0761551e-12
-0.00049707943
8.5589585e-05
-1.442284e-12
-0.00050998716
4.0000007e-05
-8.1037226e-13
-0.00051862935
-8.707269e-06
-1.7766057e-13
-0.00052242832
-5.9824125e-05
5.1187883e-13
-0.00052080461
-0.00011242209
1.3111482e-12
-0.00051321088
-0.00016532894
2.1657967e-12
-0.00049917819
-0.00021711508
2.931366e-12
-0.00047837546
-0.00026609655
3.4916796e-12
-0.00045068057
-0.00031036335
3.8566165e-12
-0.0004162589
-0.00034784244
4.1091987e-12
-0.00037564085
-0.00037640469
4.2572144e-12
-0.00032978531
-0.000394021
4.1996146e-12
-0.00028011188
-0.0003989654
3.9106081e-12
-0.00022848371
-0.00039005046
3.5811309e-12
-0.00017712615
-0.00036686452
3.1506094e-12
-0.00012847765
-0.00032996572
1.9899573e-12
-8.4985577e-05
-0.00028098245
2.6315388e-12
-4.8878632e-05
-0.00022257862
1.1174474e-11
-2.1960819e-05
-0.00015826065
4.1574733e-12
-5.469676e-06
-9.2059886e-05
-4.4479425e-11
-2.832518e-05
4.4978735e-11
-4.6407191e-06
4.4087183e-05
-3.8874872e-11
-1.6747985e-05
0.00011869374
3.8192815e-11
-3.4756308e-05
0.00018040394
-4.0128247e-12
-5.7328459e-05
0.00023024731
-1.1332677e-11
-8.3339261e-05
0.00026942949
-5.1256619e-12
-0.00011185972
0.00029919176
-4.7349977e-12
-0.00014213475
0.00032070836
-5.4801754e-12
-0.00017355702
0.00033501698
-5.5250712e-12
-0.00020563944
0.00034297856
-5.428174e-12
-0.0002379881
0.00034526202
-5.3556777e-12
-0.00027027701
0.00034234916
-5.2584059e-12
-0.00030222519
0.00033455417
-5.1074859e-12
-0.00033357652
0.00032205274
-4.8864852e-12
-0.00036408206
0.00030491634
-4.59854e-12
-0.00039348458
0.00028314803
-4.2702889e-12
-0.00042150499
0.00025671775
-3.9263111e-12
-0.0004478303
0.00022559603
-3.5599099e-12
-0.00047210321
0.00018978617
-3.1308769e-12
-0.00049391352
0.00014935571
-2.5971457e-12
-0.00051279206
0.00010446814
-1.9546524e-12
-0.00052820805
5.5416019e-05
-1.2488966e-12
-0.00053957136
2.6560607e-06
-5.3497383e-13
-0.00054624181
-5.3153686e-05
1.5915529e-13
-0.00054754739
-0.00011111652
9.0619285e-13
-0.00054281499
-0.00017006136
1.7478016e-12
-0.00053141579
-0.00022851427
2.6261628e-12
-0.00051282802
-0.00028468431
3.3942549e-12
-0.00048671735
-0.00033647401
3.9298139e-12
-0.00045303244
-0.00038152735
4.2241217e-12
-0.00041210823
-0.00041732893
4.3300264e-12
-0.00036476274
-0.0004413665
4.2504466e-12
-0.0003123668
-0.00045136133
3.9830375e-12
-0.00025686079
-0.00044555646
3.6517898e-12
-0.00020069379
-0.00042303151
3.093765e-12
-0.00014667112
-0.0003839884
1.6050091e-12
-9.77174e-05
-0.00032993618
2.3031377e-12
-5.6590327e-05
-0.0002637057
1.244464e-11
-2.5605322e-05
-0.00018924566
4.3608114e-12