/*--------------------------------*- C++ -*----------------------------------*\
  =========                 |
  \\      /  F ield         | OpenFOAM: The Open Source CFD Toolbox
   \\    /   O peration     | Website:  https://openfoam.org
    \\  /    A nd           | Version:  7
     \\/     M anipulation  |
\*---------------------------------------------------------------------------*/
FoamFile
{
    version     2.0;
    format      ascii;
    class       volVectorField;
    location    "36";
    object      U;
}
// * * * * * * * * * * * * * * * * * * * * * * * * * * * * * * * * * * * * * //

dimensions      [0 1 -1 0 0 0 0];

internalField   nonuniform List<vector> 
16000
(
(6.6032347e-05 -6.7344947e-05 -4.153618e-07)
(0.00016273723 -5.6361717e-05 5.6857598e-06)
(0.00014191715 4.6082093e-07 1.9185659e-05)
(-5.061931e-05 6.1890052e-05 3.6608176e-05)
(-0.00040997133 0.00011563078 5.4716775e-05)
(-0.00090902498 0.00015774374 7.1545244e-05)
(-0.001517711 0.00018850479 8.5757465e-05)
(-0.0022068863 0.00020960912 9.6538185e-05)
(-0.0029506019 0.00022287676 0.00010342706)
(-0.0037264655 0.00022981107 0.00010617725)
(-0.0045150512 0.0002314771 0.00010466161)
(-0.0052990139 0.00022850398 9.8817053e-05)
(-0.0060621937 0.00022114741 8.8618836e-05)
(-0.0067888646 0.00020938302 7.4077479e-05)
(-0.0074632166 0.00019301367 5.5251778e-05)
(-0.0080691177 0.00017178062 3.2272022e-05)
(-0.0085901702 0.00014547181 5.3681645e-06)
(-0.0090100503 0.00011402215 -2.51019e-05)
(-0.0093131028 7.7601688e-05 -5.8628372e-05)
(-0.0094851491 3.6687684e-05 -9.4533674e-05)
(-0.0095144489 -7.8861105e-06 -0.00013196816)
(-0.0093927302 -5.4923708e-05 -0.00016992049)
(-0.0091162239 -0.00010284305 -0.00020724402)
(-0.0086866017 -0.00014974899 -0.0002427009)
(-0.0081116912 -0.0001935118 -0.00027502164)
(-0.0074058955 -0.00023188601 -0.00030297782)
(-0.0065902209 -0.0002626605 -0.00032546314)
(-0.005691854 -0.00028382658 -0.0003415771)
(-0.004743259 -0.00029374768 -0.00035070463)
(-0.0037808158 -0.00029131158 -0.00035258404)
(-0.0028430628 -0.00027604674 -0.00034735599)
(-0.0019686544 -0.00024818869 -0.00033558845)
(-0.0011941477 -0.00020869715 -0.00031827698)
(-0.00055166761 -0.00015926096 -0.00029682481)
(-6.6504113e-05 -0.00010240681 -0.00027299962)
(0.00024492387 -4.175514e-05 -0.00024885952)
(0.00037893864 1.7848296e-05 -0.00022678893)
(0.00034977757 6.7071367e-05 -0.00020922632)
(0.00020618384 8.9853379e-05 -0.00019884171)
(5.7466489e-05 5.7409826e-05 -0.00018439868)
(5.7997083e-05 -0.00016704635 -6.6452538e-06)
(4.0873949e-05 -3.9967158e-05 -3.913252e-07)
(-0.00029497949 0.00024856212 1.1242222e-05)
(-0.0010110278 0.0005621229 2.5608264e-05)
(-0.0020992319 0.00084749671 4.0593225e-05)
(-0.003514092 0.0010831213 5.4601366e-05)
(-0.0051946905 0.0012643021 6.6505475e-05)
(-0.0070766344 0.0013940687 7.5553195e-05)
(-0.0090981554 0.0014779614 8.1262591e-05)
(-0.011202311 0.0015215277 8.3333994e-05)
(-0.01333704 0.0015292116 8.1584199e-05)
(-0.015454183 0.0015039762 7.5903328e-05)
(-0.017508155 0.0014473579 6.6233005e-05)
(-0.01945472 0.0013597787 5.2562385e-05)
(-0.02125016 0.0012410028 3.4937528e-05)
(-0.022850978 0.0010906596 1.3479603e-05)
(-0.024214229 0.00090877619 -1.159235e-05)
(-0.025298435 0.00069627696 -3.9938242e-05)
(-0.026065058 0.00045541566 -7.1077372e-05)
(-0.026480398 0.00019010814 -0.00010437564)
(-0.026517815 -9.3863753e-05 -0.0001390425)
(-0.026159987 -0.00038877387 -0.0001741466)
(-0.025401168 -0.00068508889 -0.00020863194)
(-0.024249168 -0.0009717576 -0.00024136564)
(-0.022726749 -0.001236693 -0.00027119168)
(-0.020872347 -0.0014674277 -0.00029699869)
(-0.018739911 -0.001651905 -0.00031779529)
(-0.016397717 -0.0017793493 -0.0003327865)
(-0.013926126 -0.0018411442 -0.00034144496)
(-0.011414316 -0.0018316346 -0.00034357079)
(-0.0089560959 -0.0017487771 -0.00033933402)
(-0.0066450032 -0.0015945878 -0.00032929422)
(-0.0045688978 -0.0013753889 -0.0003143933)
(-0.0028042275 -0.0011019642 -0.00029592314)
(-0.0014100236 -0.00078992054 -0.00027547284)
(-0.00042163506 -0.00046058846 -0.00025485377)
(0.00015577117 -0.00014255824 -0.00023598023)
(0.00035672973 0.00012231839 -0.00022087339)
(0.00027526444 0.00027113241 -0.00021163802)
(9.012352e-05 0.00020509922 -0.00019545613)
(1.9161456e-06 -0.00014896582 -2.0431324e-05)
(-0.00025605265 0.0002970165 -1.1812812e-05)
(-0.0010504557 0.0010236217 8.5546819e-08)
(-0.0023878309 0.0017975374 1.3065717e-05)
(-0.0042394477 0.0025099025 2.6101981e-05)
(-0.0065455667 0.0031100567 3.8053419e-05)
(-0.0092251286 0.0035809256 4.8093151e-05)
(-0.012190004 0.0039234335 5.5660621e-05)
(-0.015352993 0.0041461859 6.0374115e-05)
(-0.01863106 0.0042595917 6.1976814e-05)
(-0.021946083 0.0042728158 6.0295774e-05)
(-0.02522426 0.0041924762 5.5213298e-05)
(-0.028394926 0.0040224705 4.6653152e-05)
(-0.031389393 0.0037645248 3.4580218e-05)
(-0.034140222 0.0034191714 1.9010582e-05)
(-0.036581144 0.002986941 2.8694336e-08)
(-0.038647752 0.0024696073 -2.2191695e-05)
(-0.040278946 0.0018713607 -4.7366146e-05)
(-0.041419056 0.0011998102 -7.5081e-05)
(-0.042020505 0.0004667321 -0.00010478118)
(-0.04204677 -0.00031149775 -0.00013576881)
(-0.041475474 -0.0011138095 -0.00016720898)
(-0.04030132 -0.0019148742 -0.0001981549)
(-0.038538559 -0.0026858602 -0.00022758349)
(-0.036222756 -0.0033956765 -0.00025444609)
(-0.033411584 -0.0040126066 -0.00027773152)
(-0.03018443 -0.0045062483 -0.00029653699)
(-0.026640646 -0.0048496364 -0.00031014052)
(-0.022896383 -0.0050213872 -0.00031806739)
(-0.019080022 -0.0050076862 -0.00032014386)
(-0.015326331 -0.0048039526 -0.00031653308)
(-0.011769572 -0.0044160681 -0.00030774933)
(-0.0085358369 -0.0038611608 -0.00029464707)
(-0.0057348845 -0.0031681009 -0.00027838281)
(-0.0034517091 -0.0023781118 -0.00026035277)
(-0.0017379839 -0.0015461862 -0.00024211071)
(-0.00060368481 -0.00074418701 -0.00022526207)
(-8.0351172e-06 -6.6359184e-05 -0.00021139793)
(0.00015540854 0.00036039896 -0.00020221228)
(7.3553512e-05 0.00035438125 -0.00018529948)
(-6.4685369e-05 5.0422477e-05 -3.8683193e-05)
(-0.00060838392 0.001045757 -2.6144703e-05)
(-0.001930543 0.0023817334 -1.2163403e-05)
(-0.0039464438 0.003756516 1.1294677e-06)
(-0.0065890222 0.0050153116 1.3717818e-05)
(-0.009779209 0.0060800614 2.484213e-05)
(-0.013417138 0.0069205202 3.3965165e-05)
(-0.017395542 0.007534112 4.0751761e-05)
(-0.021607752 0.0079313952 4.4966055e-05)
(-0.025950714 0.0081270393 4.6436131e-05)
(-0.03032587 0.0081347675 4.5031091e-05)
(-0.03463882 0.0079650011 4.0644591e-05)
(-0.038798387 0.0076243744 3.3189618e-05)
(-0.042715707 0.0071165078 2.2603952e-05)
(-0.046303775 0.0064435538 8.8639735e-06)
(-0.049477692 0.0056081448 -7.9957881e-06)
(-0.052155748 0.0046154501 -2.786007e-05)
(-0.054261311 0.0034751133 -5.050996e-05)
(-0.055725439 0.0022028914 -7.5602498e-05)
(-0.056490041 0.00082185445 -0.00010265628)
(-0.05651134 -0.00063696645 -0.00013104644)
(-0.055763443 -0.0021345935 -0.00016000785)
(-0.054241667 -0.0036248122 -0.0001886587)
(-0.051965316 -0.0050556182 -0.00021603243)
(-0.048979663 -0.0063713909 -0.00024112631)
(-0.045356809 -0.0075157167 -0.00026296243)
(-0.041195191 -0.0084347266 -0.00028065775)
(-0.036617534 -0.0090807494 -0.00029349736)
(-0.031767142 -0.0094160265 -0.00030100281)
(-0.026802519 -0.0094162004 -0.00030298652)
(-0.021890418 -0.0090733036 -0.00029958527)
(-0.01719757 -0.0083980402 -0.0002912694)
(-0.012881384 -0.0074212961 -0.00027882687)
(-0.0090800535 -0.0061950227 -0.0002633215)
(-0.0059024835 -0.0047929309 -0.00024602545)
(-0.0034185009 -0.0033118154 -0.00022833139)
(-0.0016495344 -0.0018745299 -0.00021166374)
(-0.00055980087 -0.00063470522 -0.00019740988)
(-5.0113774e-05 0.00021500527 -0.00018680462)
(3.8095094e-05 0.00041383417 -0.00016799629)
(-0.00013086607 0.00044556073 -5.819944e-05)
(-0.00097095223 0.0022426838 -4.1134656e-05)
(-0.0028462159 0.0043591781 -2.4252281e-05)
(-0.0055648177 0.006457207 -9.8200025e-06)
(-0.0090094463 0.0083534697 3.0986112e-06)
(-0.013075465 0.0099514471 1.4078738e-05)
(-0.017642283 0.011211744 2.285729e-05)
(-0.022584683 0.012129581 2.9329467e-05)
(-0.027779635 0.012717523 3.3418194e-05)
(-0.033108115 0.012994145 3.5050689e-05)
(-0.038455495 0.012977365 3.41496e-05)
(-0.043711127 0.012681214 3.0626442e-05)
(-0.048767517 0.012115129 2.4384305e-05)
(-0.053519628 0.011284987 1.5329678e-05)
(-0.057864695 0.01019526 3.3912602e-06)
(-0.061702789 0.0088517424 -1.1456347e-05)
(-0.064938223 0.0072644416 -2.9166421e-05)
(-0.067481787 0.005450294 -4.9593786e-05)
(-0.069253696 0.0034354381 -7.2470878e-05)
(-0.070187069 0.0012568464 -9.7389174e-05)
(-0.07023172 -0.0010368483 -0.0001237893)
(-0.069358012 -0.0033854725 -0.00015096259)
(-0.067560459 -0.005718393 -0.00017806802)
(-0.064860795 -0.0079566836 -0.00020416416)
(-0.061310198 -0.010016301 -0.00022825691)
(-0.056990363 -0.011812188 -0.00024936064)
(-0.052013151 -0.013263139 -0.00026656913)
(-0.046518558 -0.014297144 -0.00027913136)
(-0.040670848 -0.014856889 -0.00028652409)
(-0.034652765 -0.014904997 -0.00028851179)
(-0.028657898 -0.014428607 -0.00028518349)
(-0.022881406 -0.013442966 -0.00027696049)
(-0.017509481 -0.011993824 -0.00026457452)
(-0.012708057 -0.010158715 -0.0002490197)
(-0.0086114666 -0.0080474988 -0.00023147997)
(-0.0053117554 -0.0058029583 -0.00021324005)
(-0.0028485215 -0.0036024729 -0.00019561709)
(-0.0012000356 -0.0016605413 -0.00017987308)
(-0.00028880959 -0.00023377668 -0.00016672691)
(-2.4713496e-06 0.00035046541 -0.00014549259)
(-0.00019286527 0.0010313027 -7.6679711e-05)
(-0.0013239878 0.0038925261 -5.4776211e-05)
(-0.0037518596 0.0069679908 -3.4571407e-05)
(-0.0071733034 0.0099108108 -1.8478019e-05)
(-0.011414812 0.012527391 -4.6823634e-06)
(-0.016341488 0.014714498 6.6804608e-06)
(-0.021809624 0.016430497 1.5597439e-05)
(-0.027675882 0.017672015 2.2183068e-05)
(-0.0338024 0.018455245 2.6515812e-05)
(-0.040056851 0.018803211 2.862247e-05)
(-0.046311839 0.018738076 2.8480328e-05)
(-0.05244406 0.018277406 2.6018423e-05)
(-0.058333354 0.017433435 2.1127156e-05)
(-0.063862059 0.016214494 1.3676305e-05)
(-0.068914988 0.014627823 3.5392909e-06)
(-0.073380197 0.012683109 -9.3780333e-06)
(-0.077150608 0.010396211 -2.5106148e-05)
(-0.080126448 0.0077926388 -4.3580573e-05)
(-0.082218387 0.0049104472 -6.4613028e-05)
(-0.083351214 0.001802284 -8.786781e-05)
(-0.083467818 -0.001463606 -0.00011284655)
(-0.082533258 -0.0048035766 -0.00013888532)
(-0.080538649 -0.0081200449 -0.00016516616)
(-0.077504583 -0.011304333 -0.00019074741)
(-0.073483759 -0.014240829 -0.0002146112)
(-0.06856253 -0.016812388 -0.00023572685)
(-0.062861002 -0.018906779 -0.0002531256)
(-0.056531397 -0.020423858 -0.00026598059)
(-0.049754413 -0.021283049 -0.00027368498)
(-0.042733398 -0.02143061 -0.00027591897)
(-0.035686353 -0.02084612 -0.00027269497)
(-0.028835911 -0.019547672 -0.00026437057)
(-0.022397705 -0.01759539 -0.00025162559)
(-0.01656776 -0.015093166 -0.00023540674)
(-0.011509866 -0.012188857 -0.00021684589)
(-0.0073438989 -0.0090736703 -0.00019716886)
(-0.0041345365 -0.0059816715 -0.00017765448)
(-0.0018815991 -0.0031890361 -0.00015953954)
(-0.00053619281 -0.0010143204 -0.00014314705)
(-4.1245702e-05 0.00015894957 -0.00011905458)
(-0.00025011677 0.0017985676 -9.2166494e-05)
(-0.0016597733 0.0059841349 -6.5276766e-05)
(-0.0046244575 0.010198609 -4.1590271e-05)
(-0.0087321716 0.014107013 -2.3535484e-05)
(-0.013751607 0.017522329 -8.4972309e-06)
(-0.019515082 0.020347111 3.6416767e-06)
(-0.025854148 0.022545919 1.3093085e-05)
(-0.032607012 0.024121998 2.0172984e-05)
(-0.039621883 0.025098105 2.5103519e-05)
(-0.046755011 0.025503174 2.8002962e-05)
(-0.053868799 0.025364226 2.8896972e-05)
(-0.060830245 0.024702535 2.7726319e-05)
(-0.067509637 0.023533172 2.4362485e-05)
(-0.073779762 0.021866977 1.8631424e-05)
(-0.079515872 0.019714122 1.0343249e-05)
(-0.084596495 0.01708849 -6.7366649e-07)
(-0.088905121 0.014012234 -1.4535802e-05)
(-0.092332697 0.01052001 -3.126717e-05)
(-0.094780816 0.0066624827 -5.0764302e-05)
(-0.096165462 0.0025088081 -7.2766519e-05)
(-0.096421116 -0.0018521433 -9.6834757e-05)
(-0.095505026 -0.0063119919 -0.00012234332)
(-0.09340143 -0.010744588 -0.00014848567)
(-0.090125477 -0.015009421 -0.00017430156)
(-0.085726501 -0.018956667 -0.0001987232)
(-0.080290338 -0.022433822 -0.00022064124)
(-0.07394028 -0.025293746 -0.0002389854)
(-0.066836239 -0.027403769 -0.00025281221)
(-0.059171752 -0.028655375 -0.00026139116)
(-0.051168503 -0.028973821 -0.00026428022)
(-0.043068243 -0.028326926 -0.00026138078)
(-0.035122193 -0.026732282 -0.00025296135)
(-0.027578337 -0.024262244 -0.00023964155)
(-0.020667345 -0.021046304 -0.00022233529)
(-0.014588349 -0.017270899 -0.00020215815)
(-0.0094958187 -0.013177224 -0.00018032796)
(-0.0054864891 -0.009057929 -0.00015815003)
(-0.0025879529 -0.0052522169 -0.00013691811)
(-0.00078446933 -0.002140534 -0.00011663581)
(-7.68735e-05 -0.00016053713 -8.9431003e-05)
(-0.00030295619 0.0027365271 -0.00010299009)
(-0.001975499 0.0084980996 -7.1019737e-05)
(-0.005452142 0.014028574 -4.3871802e-05)
(-0.010217974 0.019021388 -2.372708e-05)
(-0.015985183 0.023311094 -7.2318524e-06)
(-0.022552801 0.026818197 5.9570283e-06)
(-0.029727188 0.029522432 1.625426e-05)
(-0.037328211 0.03143978 2.4157743e-05)
(-0.045190988 0.032603406 3.0017485e-05)
(-0.053161894 0.033050376 3.403034e-05)
(-0.061095249 0.032813696 3.6259425e-05)
(-0.068850859 0.031918827 3.6647579e-05)
(-0.076292139 0.030383787 3.5038292e-05)
(-0.083284986 0.028221862 3.1204754e-05)
(-0.089697546 0.025446021 2.488467e-05)
(-0.095400885 0.022074172 1.5819527e-05)
(-0.10027056 0.01813457 3.7970475e-06)
(-0.10418903 0.013670803 -1.1305145e-05)
(-0.10704871 0.0087459293 -2.947747e-05)
(-0.10875572 0.0034454473 -5.0541291e-05)
(-0.10923405 -0.0021211631 -7.4120563e-05)
(-0.10842998 -0.0078205185 -9.9627653e-05)
(-0.10631683 -0.013497148 -0.00012626227)
(-0.10289944 -0.018977285 -0.00015303474)
(-0.098218423 -0.024074605 -0.00017880895)
(-0.092353555 -0.028597962 -0.00020236908)
(-0.085426032 -0.032360982 -0.00022250601)
(-0.077598897 -0.035193192 -0.0002381154)
(-0.069075164 -0.036952159 -0.00024829673)
(-0.060093118 -0.037535851 -0.00025244151)
(-0.050918472 -0.03689426 -0.00025030038)
(-0.041833357 -0.035039218 -0.00024201942)
(-0.033122483 -0.032051383 -0.00022813711)
(-0.025057299 -0.028083647 -0.00020953493)
(-0.017879649 -0.023360679 -0.00018733932)
(-0.01178648 -0.018174998 -0.00016281051)
(-0.0069140681 -0.012880397 -0.00013734596)
(-0.0033238378 -0.0078822629 -0.00011237324)
(-0.0010368627 -0.0036261493 -8.7665517e-05)
(-0.00011093492 -0.00060701929 -5.7226153e-05)
(-0.00035169309 0.0038338202 -0.00010768692)
(-0.0022696855 0.011410358 -7.0530932e-05)
(-0.0062274786 0.018427297 -4.0053006e-05)
(-0.011614748 0.024619954 -1.7802494e-05)
(-0.018090317 0.029857557 2.615083e-07)
(-0.025421022 0.034089875 1.4690805e-05)
(-0.033388716 0.03732071 2.6084964e-05)
(-0.041795672 0.039585244 3.5104911e-05)
(-0.050464968 0.040931438 4.2211686e-05)
(-0.059234589 0.041407234 4.7666026e-05)
(-0.067952672 0.041053179 5.1555541e-05)
(-0.076474036 0.039899662 5.3813564e-05)
(-0.084657591 0.037967836 5.4244884e-05)
(-0.092364706 0.035273267 5.2559524e-05)
(-0.099458582 0.031831286 4.8412301e-05)
(-0.10580462 0.02766318 4.1446954e-05)
(-0.11127168 0.022802461 3.1343849e-05)
(-0.11573422 0.017300627 1.7869705e-05)
(-0.11907516 0.011231984 9.26862e-07)
(-0.12118941 0.0046971935 -1.9401239e-05)
(-0.12198808 -0.0021747108 -4.2812818e-05)
(-0.12140312 -0.0092260675 -6.8766305e-05)
(-0.11939247 -0.016272193 -9.6469869e-05)
(-0.11594548 -0.023105287 -0.00012490054)
(-0.11108822 -0.029500579 -0.00015284207)
(-0.1048884 -0.035224939 -0.00017895038)
(-0.097459308 -0.04004791 -0.00020184348)
(-0.088962026 -0.043754919 -0.00022020968)
(-0.079605251 -0.046162113 -0.0002329232)
(-0.069641885 -0.047131957 -0.00023915215)
(-0.059361862 -0.046588359 -0.00023844456)
(-0.04908095 -0.044529873 -0.00023078139)
(-0.039125751 -0.041039497 -0.00021658908)
(-0.02981574 -0.036289759 -0.00019670378)
(-0.02144414 -0.030542381 -0.00017227621)
(-0.014259508 -0.024142638 -0.00014465193)
(-0.0084461218 -0.017509198 -0.00011538686)
(-0.0041057552 -0.011119104 -8.6120526e-05)
(-0.0013000794 -0.0054896944 -5.6460424e-05)
(-0.00014466069 -0.0011817413 -2.2508249e-05)
(-0.00039639232 0.0050786744 -0.00010493788)
(-0.0025408044 0.014693486 -6.2457782e-05)
(-0.0069442127 0.023357978 -2.8851692e-05)
(-0.012909247 0.030860808 -4.5501883e-06)
(-0.020045657 0.037117349 1.5129587e-05)
(-0.028090311 0.042116905 3.0936844e-05)
(-0.036802156 0.045895784 4.3641685e-05)
(-0.045967206 0.048514815 5.4050997e-05)
(-0.055397845 0.05004136 6.272072e-05)
(-0.064925214 0.050537303 6.996086e-05)
(-0.074393073 0.050052593 7.5870372e-05)
(-0.083653293 0.048623483 8.0361202e-05)
(-0.092562452 0.046274531 8.3188363e-05)
(-0.10097955 0.043023313 8.3987712e-05)
(-0.10876486 0.038886821 8.2319553e-05)
(-0.11577977 0.033888621 7.771716e-05)
(-0.12188763 0.02806601 6.9739395e-05)
(-0.12695539 0.021476597 5.8026127e-05)
(-0.13085611 0.014203876 4.2354472e-05)
(-0.13347226 0.0063614871 2.2693126e-05)
(-0.13469976 -0.0019040866 -7.5006249e-07)
(-0.13445282 -0.010412654 -2.7499155e-05)
(-0.13266959 -0.018951377 -5.678187e-05)
(-0.12931855 -0.027278402 -8.7546999e-05)
(-0.12440508 -0.035129033 -0.00011849306)
(-0.11797826 -0.042224886 -0.00014813089)
(-0.11013685 -0.048286162 -0.00017487493)
(-0.10103395 -0.053046896 -0.00019715953)
(-0.090879077 -0.056272745 -0.00021357166)
(-0.079936762 -0.057780331 -0.00022298435)
(-0.06852063 -0.057456691 -0.00022467182)
(-0.056982429 -0.055276921 -0.00021838919)
(-0.045695955 -0.051317902 -0.00020440666)
(-0.035036656 -0.045766097 -0.00018349038)
(-0.025358973 -0.038918054 -0.00015681563)
(-0.016973701 -0.031173319 -0.0001258443)
(-0.010123128 -0.023020492 -9.2353207e-05)
(-0.0049573031 -0.01501629 -5.8274835e-05)
(-0.0015839111 -0.007760172 -2.3102532e-05)
(-0.00018000464 -0.0018919999 1.4762652e-05)
(-0.00043687309 0.0064585692 -9.3540511e-05)
(-0.0027868514 0.018316903 -4.5561564e-05)
(-0.0075958986 0.028778324 -9.0772458e-06)
(-0.014088639 0.03769491 1.7176515e-05)
(-0.021830806 0.045038214 3.8480253e-05)
(-0.030532267 0.050846277 5.5772601e-05)
(-0.039931317 0.055195696 6.9982646e-05)
(-0.049799509 0.058179122 8.2048356e-05)
(-0.059940133 0.059887926 9.2606141e-05)
(-0.070179116 0.060401152 0.00010200201)
(-0.080357618 0.059780197 0.00011033417)
(-0.090326504 0.058068282 0.00011748217)
(-0.099942075 0.055293689 0.00012314081)
(-0.10906305 0.051475671 0.00012686113)
(-0.11754871 0.046631952 0.00012809695)
(-0.12525816 0.040786888 0.00012625685)
(-0.1320505 0.033979543 0.00012076114)
(-0.13778589 0.026271123 0.00011110276)
(-0.14232753 0.017751395 9.6910308e-05)
(-0.14554451 0.0085438121 7.8011345e-05)
(-0.14731571 -0.0011908591 5.4491529e-05)
(-0.14753461 -0.011252635 2.6728616e-05)
(-0.14611543 -0.021402753 -4.5465567e-06)
(-0.1430005 -0.031366231 -3.8272647e-05)
(-0.13816825 -0.040837686 -7.306802e-05)
(-0.13164196 -0.049490595 -0.00010728785)
(-0.1234984 -0.05699043 -0.0001391151)
(-0.1138753 -0.063011806 -0.00016668333)
(-0.10297654 -0.067259344 -0.00018822546)
(-0.091073517 -0.069491281 -0.00020223523)
(-0.078501385 -0.069544185 -0.00020762025)
(-0.065648981 -0.067356337 -0.0002038226)
(-0.052942008 -0.062986916 -0.00019088806)
(-0.040820055 -0.056628016 -0.00016947117)
(-0.029709663 -0.048607163 -0.00014075899)
(-0.019996218 -0.039379406 -0.00010634909)
(-0.01199217 -0.029509504 -6.8294839e-05)
(-0.0059060243 -0.019644352 -2.8903904e-05)
(-0.0018995941 -0.010479297 1.2404628e-05)
(-0.00021911058 -0.0027504911 5.4742965e-05)
(-0.00047276053 0.007959853 -7.2403969e-05)
(-0.003005306 0.022246664 -1.8720574e-05)
(-0.0081754803 0.034640708 2.0356398e-05)
(-0.015139636 0.045066385 4.8436895e-05)
(-0.023425071 0.05356016 7.1351871e-05)
(-0.032718087 0.060216898 9.0222466e-05)
(-0.042738977 0.065160509 0.00010612685)
(-0.053246922 0.068521221 0.00012012123)
(-0.064037879 0.070418872 0.00013291033)
(-0.074934237 0.070952911 0.00014486513)
(-0.085776308 0.070198351 0.00015607315)
(-0.096415822 0.068206605 0.00016637227)
(-0.1067108 0.065010079 0.00017538815)
(-0.11652173 0.060629343 0.00018257743)
(-0.12570894 0.055081775 0.00018727599)
(-0.13413109 0.048390746 0.00018875298)
(-0.14164461 0.040594622 0.00018627096)
(-0.14810401 0.031755104 0.00017915167)
(-0.15336318 0.021964574 0.00016684587)
(-0.15727765 0.011352258 0.00014900448)
(-0.15970801 8.9011656e-05 0.00012554767)
(-0.1605249 -0.011609442 9.67359e-05)
(-0.15961528 -0.023481693 6.3198143e-05)
(-0.1568904 -0.035221785 2.5977414e-05)
(-0.15229556 -0.046484019 -1.3483536e-05)
(-0.14582082 -0.056891688 -5.3385299e-05)
(-0.13751248 -0.066050532 -9.1657306e-05)
(-0.12748403 -0.073567423 -0.00012608541)
(-0.11592513 -0.079074254 -0.00015447651)
(-0.10310686 -0.082256237 -0.00017484934)
(-0.089381224 -0.082882836 -0.00018563152)
(-0.075173043 -0.080838445 -0.00018583465)
(-0.060963172 -0.076149007 -0.00017517758)
(-0.047263087 -0.06900036 -0.00015413216)
(-0.034583089 -0.059744611 -0.0001238649)
(-0.023397396 -0.048892504 -8.6116278e-05)
(-0.014103445 -0.037091895 -4.3266074e-05)
(-0.0069814327 -0.025092621 1.9194716e-06)
(-0.002259006 -0.013702948 5.0066799e-05)
(-0.00026414591 -0.0037760398 9.7623287e-05)
(-0.00050355074 0.0095674415 -4.0558473e-05)
(-0.0031932749 0.026445187 1.9057629e-05)
(-0.0086754033 0.040892097 6.0413482e-05)
(-0.016048492 0.052912583 9.0179068e-05)
(-0.024807362 0.062615413 0.00011468293)
(-0.034618416 0.070159217 0.00013522146)
(-0.045186792 0.075721399 0.00015301273)
(-0.0562615 0.079474999 0.00016921998)
(-0.067632969 0.081572541 0.00018460655)
(-0.07912171 0.082137086 0.00019956031)
(-0.090568868 0.081259509 0.00021415102)
(-0.10182885 0.079000765 0.00022816851)
(-0.11276335 0.075397883 0.00024116263)
(-0.12323669 0.070472441 0.00025248784)
(-0.13311238 0.064240352 0.00026135193)
(-0.14225077 0.056722065 0.00026687039)
(-0.15050759 0.047952505 0.00026812803)
(-0.15773346 0.037990332 0.00026424823)
(-0.16377428 0.026926302 0.00025446912)
(-0.16847277 0.014890603 0.00023822377)
(-0.17167132 0.0020590313 0.00021522205)
(-0.1732166 -0.011342255 0.00018553976)
(-0.17296592 -0.025033763 0.00014966446)
(-0.1707957 -0.038682243 0.0001085669)
(-0.16661243 -0.051903614 6.3710296e-05)
(-0.1603655 -0.064270373 1.7028718e-05)
(-0.15206156 -0.0753246 -2.9145441e-05)
(-0.14177938 -0.084597513 -7.2208739e-05)
(-0.12968348 -0.091636035 -0.00010946612)
(-0.11603435 -0.096035939 -0.00013835324)
(-0.10119274 -0.09747989 -0.00015668318)
(-0.085615077 -0.095777099 -0.00016288789)
(-0.069838045 -0.090899828 -0.00015621586)
(-0.054451418 -0.083010923 -0.00013684276)
(-0.040061181 -0.072476741 -0.00010584895)
(-0.027246484 -0.059861709 -6.5105978e-05)
(-0.016507704 -0.045903613 -1.7364315e-05)
(-0.0082137705 -0.031469865 3.4063718e-05)
(-0.0026743199 -0.017501842 8.9829644e-05)
(-0.00031729568 -0.0049938553 0.00014354697)
(-0.00052868034 0.011264647 2.8261773e-06)
(-0.0033477376 0.030871101 6.8617646e-05)
(-0.0090880507 0.047474047 0.00011191563)
(-0.016801583 0.061164139 0.00014321469)
(-0.025956885 0.07212839 0.00016928104)
(-0.036204178 0.080594901 0.00019157801)
(-0.047236291 0.086799852 0.00021145466)
(-0.058794241 0.090963757 0.00023017147)
(-0.070664653 0.093275757 0.00024854323)
(-0.082667718 0.09388566 0.00026696977)
(-0.094646993 0.092902516 0.0002854997)
(-0.10646127 0.090398312 0.00030387201)
(-0.11797781 0.08641537 0.00032155748)
(-0.12906689 0.080976097 0.00033780342)
(-0.13959747 0.074093907 0.00035168141)
(-0.14943401 0.065784407 0.00036214052)
(-0.15843403 0.056076239 0.00036806841)
(-0.16644669 0.04502127 0.00036836204)
(-0.17331222 0.032704003 0.00036200864)
(-0.17886252 0.019250182 0.00034817524)
(-0.18292317 0.0048345342 0.00032630466)
(-0.18531737 -0.01031257 0.00029621676)
(-0.18587198 -0.025899804 0.00025819296)
(-0.18442617 -0.04157207 0.00021306103)
(-0.18084314 -0.056910848 0.0001622424)
(-0.17502465 -0.071439345 0.00010776145)
(-0.16692827 -0.084633981 5.2197607e-05)
(-0.15658626 -0.095943781 -1.4307838e-06)
(-0.1441246 -0.10481882 -4.9854662e-05)
(-0.12977947 -0.11074795 -8.9808608e-05)
(-0.11390799 -0.11330452 -0.00011833379)
(-0.096989362 -0.11219671 -0.00013309844)
(-0.079612822 -0.10731674 -0.00013269091)
(-0.062450279 -0.098781322 -0.00011682411)
(-0.046214677 -0.086954988 -8.6377506e-05)
(-0.031607743 -0.072449905 -4.330872e-05)
(-0.019254151 -0.056099259 9.2281802e-06)
(-0.0096331374 -0.038903924 6.7280991e-05)
(-0.003157829 -0.021961652 0.00013150891)
(-0.00038078496 -0.0064355923 0.00019253555)
(-0.00054759887 0.013033166 5.8417343e-05)
(-0.0034658567 0.035479369 0.0001306346)
(-0.0094063951 0.054322964 0.00017551959)
(-0.017386393 0.06974528 0.00020819349)
(-0.026854432 0.082015883 0.00023579253)
(-0.03744815 0.091436743 0.00025993721)
(-0.048850771 0.098307137 0.000282099)
(-0.060797321 0.10289912 0.00030362733)
(-0.073072176 0.10544207 0.00032538395)
(-0.085496589 0.1061156 0.0003477792)
(-0.097917945 0.10504934 0.00037084109)
(-0.110201 0.10232798 0.00039425925)
(-0.12222041 0.098000022 0.00041742649)
(-0.13385451 0.09208878 0.00043948192)
(-0.14498014 0.084604363 0.00045935621)
(-0.15546857 0.075555801 0.00047582181)
(-0.16518213 0.064962749 0.0004875517)
(-0.17397174 0.052866565 0.00049318942)
(-0.18167529 0.039340756 0.00049143252)
(-0.18811715 0.024500889 0.00048112973)
(-0.19310911 0.0085140072 0.00046139046)
(-0.19645327 -0.0083925662 0.00043170379)
(-0.19794728 -0.025923364 0.00039205541)
(-0.19739264 -0.043708863 0.00034304042)
(-0.19460649 -0.061302516 0.00028595191)
(-0.1894373 -0.078182563 0.00022283139)
(-0.18178453 -0.093760674 0.00015645947)
(-0.17162148 -0.10739971 9.0266746e-05)
(-0.15902008 -0.11844266 2.8150421e-05)
(-0.14417481 -0.12625404 -2.580568e-05)
(-0.1274219 -0.13027327 -6.7694022e-05)
(-0.1092488 -0.1300771 -9.4197023e-05)
(-0.090288544 -0.12544457 -0.00010299951)
(-0.071294711 -0.11641495 -9.3120943e-05)
(-0.053096435 -0.10332683 -6.5060159e-05)
(-0.036536434 -0.086827866 -2.0764486e-05)
(-0.022388439 -0.067848914 3.6199942e-05)
(-0.011268761 -0.047540427 0.00010114388)
(-0.0037218427 -0.027182719 0.00017471482)
(-0.00045691142 -0.008139381 0.00024441147)
(-0.00055984437 0.014853261 0.00012669522)
(-0.0035453367 0.040221771 0.00020559279)
(-0.0096248068 0.061370771 0.00025169625)
(-0.017792801 0.078574519 0.00028557974)
(-0.027484125 0.092187633 0.00031467428)
(-0.038327156 0.10258894 0.00034074629)
(-0.049997926 0.11014416 0.00036538157)
(-0.062227199 0.11518035 0.00039001225)
(-0.074798406 0.11797047 0.00041554567)
(-0.087535019 0.11872694 0.00044240511)
(-0.10028947 0.11760245 0.00047060278)
(-0.11293389 0.11469631 0.00049978504)
(-0.12535205 0.11006441 0.00052927263)
(-0.13743243 0.10373138 0.00055810047)
(-0.14906226 0.095703591 0.00058505834)
(-0.16012261 0.08598216 0.00060873617)
(-0.17048406 0.07457541 0.00062757833)
(-0.18000323 0.061510783 0.00063995083)
(-0.18852003 0.04684625 0.00064422489)
(-0.19585596 0.030681468 0.00063887905)
(-0.20181372 0.013168866 0.00062262025)
(-0.20617874 -0.0054753452 0.0005945218)
(-0.20872309 -0.02496052 0.00055417163)
(-0.20921262 -0.044912154 0.00050182095)
(-0.20741815 -0.064864847 0.00043852037)
(-0.20313138 -0.084259644 0.00036622216)
(-0.19618605 -0.10244829 0.00028782423)
(-0.18648428 -0.11870743 0.00020712696)
(-0.17402711 -0.13226602 0.00012867544)
(-0.15894667 -0.14234852 5.7470516e-05)
(-0.14153584 -0.14823508 -1.4487961e-06)
(-0.12226911 -0.14933665 -4.3522618e-05)
(-0.10180729 -0.14527868 -6.52292e-05)
(-0.080978721 -0.13598181 -6.4586379e-05)
(-0.060733903 -0.12172371 -4.144923e-05)
(-0.042074312 -0.10316589 2.4143684e-06)
(-0.025950476 -0.081333236 6.3061181e-05)
(-0.01314824 -0.057540534 0.00013497417)
(-0.0043785965 -0.033279402 0.00021876634)
(-0.00054808308 -0.010149841 0.00029871121)
(-0.00056512246 0.016704134 0.00020793072)
(-0.003584821 0.045047809 0.00029376792)
(-0.0097399807 0.068546094 0.00034071398)
(-0.018014594 0.087565893 0.00037563323)
(-0.027835513 0.10254741 0.00040617014)
(-0.038824725 0.11394789 0.00043422432)
(-0.050653062 0.12220186 0.0004614889)
(-0.063048414 0.12769429 0.00048947519)
(-0.075794272 0.13074478 0.00051913862)
(-0.088717238 0.13160154 0.00055092227)
(-0.1016758 0.13044301 0.00058483214)
(-0.11455071 0.12738526 0.00062048217)
(-0.12723645 0.12249312 0.000657132)
(-0.13963366 0.11579341 0.00069372177)
(-0.15164252 0.10728887 0.00072890619)
(-0.163157 0.096971893 0.00076109264)
(-0.17405976 0.084837726 0.00078848866)
(-0.18421763 0.070897081 0.00080916399)
(-0.19347777 0.055188372 0.00082113167)
(-0.2016647 0.037789982 0.00082245226)
(-0.2085784 0.018832875 0.00081136336)
(-0.21399412 -0.0014862859 0.00078643482)
(-0.21766445 -0.022891658 0.00074674704)
(-0.2193246 -0.045015027 0.00069207842)
(-0.21870194 -0.067384146 0.00062309591)
(-0.21553095 -0.0894145 0.00054151984)
(-0.20957471 -0.11040752 0.00045023676)
(-0.20065357 -0.12955894 0.00035332355)
(-0.1886808 -0.14598188 0.0002559418)
(-0.17370326 -0.15874898 0.00016406693)
(-0.15594313 -0.16695711 8.4035229e-05)
(-0.1358334 -0.16981459 2.1923796e-05)
(-0.11403767 -0.16674578 -1.7178643e-05)
(-0.091443302 -0.15750013 -2.9890859e-05)
(-0.069120476 -0.14224564 -1.5055407e-05)
(-0.048244336 -0.12162259 2.6008319e-05)
(-0.029971801 -0.096736568 8.9084068e-05)
(-0.015296619 -0.069077566 0.00016775959)
(-0.0051401263 -0.040378987 0.00026259087)
(-0.00065685473 -0.012518069 0.00035458341)
(-0.00056338794 0.018564533 0.00030216868)
(-0.0035843173 0.049906094 0.000395216)
(-0.0097519574 0.075776042 0.00044262948)
(-0.018051161 0.096630822 0.00047839819)
(-0.027905936 0.11299473 0.00051029494)
(-0.038934096 0.12540356 0.00054033913)
(-0.05080275 0.13436219 0.0005703262)
(-0.063237892 0.14031585 0.00060184689)
(-0.07602379 0.14363372 0.00063591201)
(-0.088990871 0.14460279 0.00067299658)
(-0.10200451 0.14343008 0.0007131152)
(-0.11495518 0.1402509 0.00075586546)
(-0.12774955 0.13514101 0.0008004619)
(-0.14030232 0.12813081 0.00084576456)
(-0.15252914 0.11922004 0.00089030489)
(-0.16434007 0.10839231 0.00093231445)