/*--------------------------------*- C++ -*----------------------------------*\
  =========                 |
  \\      /  F ield         | OpenFOAM: The Open Source CFD Toolbox
   \\    /   O peration     | Website:  https://openfoam.org
    \\  /    A nd           | Version:  7
     \\/     M anipulation  |
\*---------------------------------------------------------------------------*/
FoamFile
{
    version     2.0;
    format      ascii;
    class       volVectorField;
    location    "36";
    object      U_0;
}
// * * * * * * * * * * * * * * * * * * * * * * * * * * * * * * * * * * * * * //

dimensions      [0 1 -1 0 0 0 0];

internalField   nonuniform List<vector> 
16000
(
(6.6032408e-05 -6.7344996e-05 -4.1530884e-07)
(0.00016273732 -5.6361722e-05 5.6858537e-06)
(0.00014191729 4.6071335e-07 1.9185766e-05)
(-5.0619131e-05 6.1889833e-05 3.6608329e-05)
(-0.0004099714 0.00011563066 5.4716955e-05)
(-0.00090902537 0.00015774389 7.1545373e-05)
(-0.0015177113 0.00018850502 8.5757496e-05)
(-0.0022068861 0.0002096091 9.6538191e-05)
(-0.0029506016 0.00022287649 0.00010342713)
(-0.0037264655 0.00022981087 0.00010617738)
(-0.0045150516 0.00023147722 0.00010466168)
(-0.0052990142 0.00022850429 9.8817004e-05)
(-0.0060621937 0.0002211476 8.8618723e-05)
(-0.0067888643 0.00020938289 7.4077385e-05)
(-0.0074632162 0.0001930133 5.5251737e-05)
(-0.0080691177 0.00017178033 3.2271995e-05)
(-0.0085901708 0.00014547196 5.3680557e-06)
(-0.0090100511 0.0001140228 -2.5102201e-05)
(-0.0093131033 7.760235e-05 -5.8628874e-05)
(-0.0094851486 3.6687634e-05 -9.453422e-05)
(-0.0095144478 -7.88706e-06 -0.00013196854)
(-0.0093927298 -5.4924716e-05 -0.00016992066)
(-0.009116225 -0.00010284284 -0.00020724423)
(-0.0086866037 -0.00014974722 -0.00024270147)
(-0.0081116921 -0.00019350992 -0.0002750226)
(-0.0074058933 -0.00023188624 -0.00030297867)
(-0.006590217 -0.00026266338 -0.00032546323)
(-0.0056918523 -0.00028382953 -0.0003415764)
(-0.0047432623 -0.00029374697 -0.00035070398)
(-0.0037808216 -0.00029130669 -0.00035258449)
(-0.0028430644 -0.00027604236 -0.00034735752)
(-0.0019686482 -0.00024819052 -0.00033558956)
(-0.0011941392 -0.00020870461 -0.00031827615)
(-0.00055166759 -0.00015926571 -0.00029682262)
(-6.6515593e-05 -0.00010240158 -0.00027299876)
(0.0002449125 -4.1744128e-05 -0.00024886184)
(0.00037894377 1.7851027e-05 -0.00022679277)
(0.00034979976 6.7056674e-05 -0.00020922696)
(0.00020620508 8.9830288e-05 -0.00019883677)
(5.7473423e-05 5.7398301e-05 -0.00018439074)
(5.799716e-05 -0.00016704646 -6.6452447e-06)
(4.0873917e-05 -3.9967093e-05 -3.9126317e-07)
(-0.00029497965 0.0002485621 1.1242255e-05)
(-0.0010110278 0.00056212259 2.56083e-05)
(-0.0020992316 0.0008474963 4.0593337e-05)
(-0.003514092 0.0010831213 5.4601545e-05)
(-0.005194691 0.0012643025 6.6505593e-05)
(-0.0070766348 0.0013940689 7.5553181e-05)
(-0.0090981552 0.0014779612 8.1262538e-05)
(-0.01120231 0.0015215272 8.3334025e-05)
(-0.01333704 0.0015292114 8.1584308e-05)
(-0.015454183 0.0015039764 7.59034e-05)
(-0.017508155 0.0014473583 6.6232955e-05)
(-0.019454721 0.0013597788 5.256222e-05)
(-0.02125016 0.0012410024 3.4937325e-05)
(-0.022850978 0.0010906588 1.347946e-05)
(-0.024214228 0.00090877565 -1.159238e-05)
(-0.025298435 0.00069627729 -3.9938261e-05)
(-0.026065059 0.00045541683 -7.107759e-05)
(-0.0264804 0.00019010907 -0.00010437621)
(-0.026517815 -9.3864341e-05 -0.00013904327)
(-0.026159985 -0.00038877593 -0.00017414718)
(-0.025401166 -0.00068509055 -0.00020863203)
(-0.024249169 -0.00097175664 -0.00024136545)
(-0.022726752 -0.0012366895 -0.00027119185)
(-0.020872351 -0.0014674249 -0.00029699965)
(-0.018739911 -0.0016519066 -0.00031779661)
(-0.016397711 -0.0017793551 -0.00033278701)
(-0.013926121 -0.0018411484 -0.00034144394)
(-0.011414318 -0.001831631 -0.00034356911)
(-0.0089561049 -0.0017487675 -0.00033933369)
(-0.0066450099 -0.0015945827 -0.00032929614)
(-0.0045688924 -0.0013753963 -0.00031439568)
(-0.0028042135 -0.0011019781 -0.00029592294)
(-0.0014100177 -0.000789924 -0.00027546965)
(-0.00042164901 -0.00046057327 -0.00025485128)
(0.00015574832 -0.00014253864 -0.00023598294)
(0.00035672381 0.00012231749 -0.00022088059)
(0.00027528915 0.00027110764 -0.00021164329)
(9.0141961e-05 0.00020507677 -0.00019545296)
(1.9163131e-06 -0.00014896606 -2.0431367e-05)
(-0.00025605257 0.00029701646 -1.1812771e-05)
(-0.001050456 0.0010236218 8.5564264e-08)
(-0.0023878312 0.0017975375 1.3065673e-05)
(-0.0042394476 0.0025099021 2.6101939e-05)
(-0.0065455663 0.0031100563 3.8053493e-05)
(-0.0092251286 0.0035809255 4.8093308e-05)
(-0.012190004 0.0039234339 5.566071e-05)
(-0.015352994 0.0041461863 6.0374064e-05)
(-0.01863106 0.0042595915 6.1976713e-05)
(-0.021946083 0.0042728152 6.0295738e-05)
(-0.02522426 0.0041924757 5.5213332e-05)
(-0.028394926 0.0040224705 4.6653176e-05)
(-0.031389394 0.0037645252 3.4580147e-05)
(-0.034140223 0.0034191718 1.901037e-05)
(-0.036581145 0.0029869408 2.8377606e-08)
(-0.038647752 0.0024696063 -2.2191982e-05)
(-0.040278945 0.0018713595 -4.7366258e-05)
(-0.041419056 0.00119981 -7.508097e-05)
(-0.042020506 0.00046673343 -0.00010478128)
(-0.042046772 -0.00031149593 -0.00013576933)
(-0.041475475 -0.0011138093 -0.00016720986)
(-0.040301318 -0.0019148767 -0.00019815566)
(-0.038538556 -0.0026858636 -0.00022758357)
(-0.036222755 -0.003395677 -0.00025444555)
(-0.033411588 -0.0040126025 -0.00027773117)
(-0.030184435 -0.0045062429 -0.00029653769)
(-0.026640647 -0.004849636 -0.00031014207)
(-0.022896377 -0.0050213943 -0.0003180683)
(-0.019080014 -0.0050076942 -0.00032014279)
(-0.015326331 -0.0048039515 -0.00031653072)
(-0.011769583 -0.0044160563 -0.00030774833)
(-0.0085358476 -0.0038611505 -0.00029464919)
(-0.0057348804 -0.0031681065 -0.00027838619)
(-0.0034516911 -0.0023781306 -0.00026035328)
(-0.0017379719 -0.0015461972 -0.00024210676)
(-0.0006036958 -0.00074417415 -0.00022525773)
(-8.0574665e-06 -6.633455e-05 -0.00021139883)
(0.000155408 0.00036040874 -0.00020221756)
(7.356237e-05 0.00035436888 -0.00018530047)
(-6.4685183e-05 5.0422191e-05 -3.8683354e-05)
(-0.00060838364 0.0010457566 -2.6144781e-05)
(-0.0019305431 0.0023817333 -1.2163428e-05)
(-0.0039464443 0.0037565163 1.1294274e-06)
(-0.0065890225 0.0050153118 1.3717704e-05)
(-0.0097792087 0.0060800611 2.4842042e-05)
(-0.013417137 0.0069205197 3.3965209e-05)
(-0.017395542 0.0075341119 4.0751883e-05)
(-0.021607753 0.0079313956 4.4966098e-05)
(-0.025950714 0.0081270396 4.6436028e-05)
(-0.03032587 0.0081347674 4.5030913e-05)
(-0.034638819 0.0079650004 4.0644437e-05)
(-0.038798386 0.0076243737 3.3189534e-05)
(-0.042715707 0.0071165075 2.2603926e-05)
(-0.046303775 0.0064435541 8.8639273e-06)
(-0.049477693 0.0056081456 -7.9959686e-06)
(-0.052155749 0.0046154504 -2.7860421e-05)
(-0.054261311 0.0034751124 -5.0510322e-05)
(-0.055725438 0.0022028899 -7.5602615e-05)
(-0.05649004 0.00082185375 -0.00010265609)
(-0.056511342 -0.00063696499 -0.00013104626)
(-0.055763446 -0.0021345907 -0.00016000814)
(-0.054241669 -0.0036248109 -0.00018865958)
(-0.051965315 -0.0050556206 -0.00021603337)
(-0.048979659 -0.0063713958 -0.00024112646)
(-0.045356806 -0.0075157191 -0.00026296156)
(-0.041195194 -0.0084347226 -0.00028065678)
(-0.036617541 -0.009080742 -0.00029349766)
(-0.031767146 -0.009416024 -0.00030100459)
(-0.026802512 -0.009416208 -0.00030298802)
(-0.021890408 -0.009073315 -0.00029958437)
(-0.017197568 -0.0083980416 -0.0002912664)
(-0.012881397 -0.0074212826 -0.000278825)
(-0.0090800685 -0.0061950077 -0.00026332356)
(-0.0059024828 -0.0047929331 -0.00024602991)
(-0.003418483 -0.003311835 -0.00022833325)
(-0.0016495217 -0.0018745446 -0.00021166071)
(-0.00055981012 -0.00063469865 -0.0001974064)
(-5.0126308e-05 0.0002150198 -0.00018680569)
(3.80931e-05 0.00041383452 -0.0001679982)
(-0.00013086606 0.00044556068 -5.8199699e-05)
(-0.00097095207 0.0022426835 -4.1134918e-05)
(-0.0028462156 0.0043591776 -2.4252454e-05)
(-0.0055648177 0.006457207 -9.82005e-06)
(-0.0090094468 0.0083534702 3.0985541e-06)
(-0.013075465 0.0099514474 1.407861e-05)
(-0.017642282 0.011211744 2.2857192e-05)
(-0.022584683 0.01212958 2.9329482e-05)
(-0.027779635 0.012717522 3.3418258e-05)
(-0.033108115 0.012994145 3.5050666e-05)
(-0.038455496 0.012977365 3.414943e-05)
(-0.043711127 0.012681214 3.0626165e-05)
(-0.048767517 0.012115128 2.4384012e-05)
(-0.053519628 0.011284986 1.5329479e-05)
(-0.057864695 0.01019526 3.3912265e-06)
(-0.061702789 0.0088517427 -1.1456281e-05)
(-0.064938224 0.0072644428 -2.9166455e-05)
(-0.067481788 0.005450295 -4.9594051e-05)
(-0.069253696 0.0034354375 -7.2471222e-05)
(-0.070187067 0.0012568444 -9.7389237e-05)
(-0.070231719 -0.0010368498 -0.00012378889)
(-0.069358012 -0.0033854713 -0.00015096202)
(-0.067560462 -0.0057183894 -0.00017806796)
(-0.064860798 -0.0079566808 -0.000204165)
(-0.061310197 -0.010016303 -0.00022825812)
(-0.056990357 -0.011812195 -0.00024936102)
(-0.052013146 -0.013263144 -0.00026656805)
(-0.04651856 -0.014297141 -0.00027912977)
(-0.040670857 -0.01485688 -0.00028652396)
(-0.034652771 -0.014904991 -0.00028851384)
(-0.028657892 -0.014428615 -0.00028518574)
(-0.022881392 -0.013442981 -0.00027695994)
(-0.017509476 -0.011993828 -0.0002645709)
(-0.012708069 -0.010158702 -0.00024901667)
(-0.0086114832 -0.008047481 -0.00023148125)
(-0.0053117559 -0.0058029564 -0.00021324416)
(-0.0028485064 -0.0036024872 -0.00019561866)
(-0.0012000288 -0.0016605506 -0.00017987066)
(-0.00028881656 -0.00023377175 -0.00016672552)
(-2.4756519e-06 0.00035047082 -0.00014549324)
(-0.00019286545 0.0010313027 -7.668e-05)
(-0.001323988 0.0038925263 -5.4776583e-05)
(-0.0037518593 0.0069679905 -3.4571772e-05)
(-0.0071733028 0.0099108103 -1.8478181e-05)
(-0.011414812 0.012527391 -4.6823641e-06)
(-0.016341488 0.014714499 6.6804546e-06)
(-0.021809625 0.016430498 1.5597344e-05)
(-0.027675882 0.017672015 2.2182963e-05)
(-0.0338024 0.018455244 2.6515767e-05)
(-0.04005685 0.01880321 2.8622441e-05)
(-0.046311839 0.018738076 2.8480226e-05)
(-0.052444061 0.018277406 2.6018198e-05)
(-0.058333354 0.017433435 2.1126809e-05)
(-0.063862059 0.016214494 1.3675916e-05)
(-0.068914987 0.014627822 3.5390392e-06)
(-0.073380196 0.012683108 -9.3779856e-06)
(-0.077150608 0.010396211 -2.5105852e-05)
(-0.080126449 0.0077926403 -4.3580319e-05)
(-0.082218389 0.004910449 -6.4613079e-05)
(-0.083351214 0.0018022839 -8.7868078e-05)
(-0.083467816 -0.0014636084 -0.00011284659)
(-0.082533256 -0.0048035792 -0.00013888474)
(-0.080538649 -0.0081200445 -0.0001651652)
(-0.077504586 -0.011304329 -0.00019074695)
(-0.073483764 -0.014240824 -0.00021461196)
(-0.06856253 -0.016812389 -0.00023572841)
(-0.062860995 -0.018906787 -0.00025312642)
(-0.05653139 -0.020423865 -0.00026597949)
(-0.049754413 -0.021283047 -0.00027368281)
(-0.042733408 -0.021430599 -0.00027591827)
(-0.035686363 -0.020846111 -0.00027269712)
(-0.028835907 -0.019547678 -0.00026437354)
(-0.022397689 -0.017595406 -0.00025162566)
(-0.016567752 -0.015093174 -0.00023540316)
(-0.011509876 -0.012188847 -0.00021684262)
(-0.007343913 -0.0090736553 -0.0001971697)
(-0.0041345352 -0.0059816702 -0.00017765737)
(-0.0018815893 -0.0031890454 -0.0001595398)
(-0.00053619093 -0.0010143238 -0.00014314563)
(-4.1247444e-05 0.00015895262 -0.00011905403)
(-0.00025011684 0.0017985674 -9.2166813e-05)
(-0.0016597737 0.0059841352 -6.527712e-05)
(-0.0046244578 0.01019861 -4.1590718e-05)
(-0.0087321711 0.014107012 -2.3535803e-05)
(-0.013751607 0.017522329 -8.4972949e-06)
(-0.019515083 0.020347111 3.6417728e-06)
(-0.025854148 0.022545919 1.3093143e-05)
(-0.032607012 0.024121998 2.0172918e-05)
(-0.039621883 0.025098105 2.5103382e-05)
(-0.046755011 0.025503174 2.8002815e-05)
(-0.053868798 0.025364225 2.8896825e-05)
(-0.060830245 0.024702535 2.7726156e-05)
(-0.067509637 0.023533172 2.436226e-05)
(-0.073779763 0.021866978 1.8631086e-05)
(-0.079515872 0.019714123 1.0342854e-05)
(-0.084596494 0.017088489 -6.7388577e-07)
(-0.08890512 0.014012232 -1.4535596e-05)
(-0.092332696 0.010520009 -3.1266557e-05)
(-0.094780817 0.0066624845 -5.0763656e-05)
(-0.096165464 0.0025088107 -7.276628e-05)
(-0.096421117 -0.0018521425 -9.6834963e-05)
(-0.095505024 -0.0063119945 -0.00012234344)
(-0.093401426 -0.010744592 -0.00014848507)
(-0.090125476 -0.015009422 -0.0001743003)
(-0.085726505 -0.018956662 -0.00019872231)
(-0.080290345 -0.022433816 -0.00022064186)
(-0.073940282 -0.025293745 -0.00023898735)
(-0.066836232 -0.027403777 -0.00025281364)
(-0.059171742 -0.028655385 -0.00026139027)
(-0.051168502 -0.028973822 -0.0002642776)
(-0.043068254 -0.028326914 -0.0002613794)
(-0.035122204 -0.026732271 -0.0002529632)
(-0.027578334 -0.024262247 -0.00023964466)
(-0.020667331 -0.021046319 -0.00022233561)
(-0.014588343 -0.017270907 -0.00020215498)
(-0.0094958278 -0.013177216 -0.00018032538)
(-0.0054864981 -0.0090579192 -0.00015815082)
(-0.0025879508 -0.0052522177 -0.00013691952)
(-0.00078446432 -0.002140539 -0.00011663569)
(-7.6872075e-05 -0.00016053826 -8.9430247e-05)
(-0.00030295593 0.0027365267 -0.0001029905)
(-0.001975499 0.0084980997 -7.1020048e-05)
(-0.0054521425 0.014028574 -4.3872165e-05)
(-0.010217974 0.019021388 -2.3727432e-05)
(-0.015985183 0.023311094 -7.23203e-06)
(-0.022552801 0.026818196 5.957098e-06)
(-0.029727188 0.029522432 1.6254452e-05)
(-0.037328211 0.03143978 2.4157856e-05)
(-0.045190989 0.032603407 3.0017428e-05)
(-0.053161894 0.033050376 3.4030139e-05)
(-0.061095249 0.032813695 3.6259151e-05)
(-0.068850859 0.031918827 3.6647324e-05)
(-0.076292138 0.030383787 3.5038122e-05)
(-0.083284987 0.028221863 3.120462e-05)
(-0.089697547 0.025446022 2.4884449e-05)
(-0.095400885 0.022074172 1.5819223e-05)
(-0.10027056 0.018134569 3.7969143e-06)
(-0.10418903 0.013670801 -1.1304772e-05)
(-0.10704871 0.0087459285 -2.9476544e-05)
(-0.10875573 0.003445449 -5.0540243e-05)
(-0.10923405 -0.0021211597 -7.4120029e-05)
(-0.10842999 -0.0078205167 -9.962786e-05)
(-0.10631683 -0.013497151 -0.00012626265)
(-0.10289944 -0.01897729 -0.00015303435)
(-0.09821842 -0.024074607 -0.00017880754)
(-0.092353558 -0.028597957 -0.00020236776)
(-0.08542604 -0.032360973 -0.00022250637)
(-0.077598901 -0.035193189 -0.00023811764)
(-0.069075158 -0.036952167 -0.0002482988)
(-0.060093106 -0.037535862 -0.00025244104)
(-0.050918469 -0.036894262 -0.00025029764)
(-0.041833367 -0.035039207 -0.00024201763)
(-0.033122494 -0.032051371 -0.00022813858)
(-0.025057296 -0.028083649 -0.00020953767)
(-0.017879638 -0.023360691 -0.00018733945)
(-0.011786476 -0.018175003 -0.00016280798)
(-0.0069140749 -0.012880392 -0.00013734442)
(-0.0033238427 -0.0078822578 -0.00011237369)
(-0.0010368613 -0.0036261501 -8.7666141e-05)
(-0.00011093328 -0.00060702171 -5.7226012e-05)
(-0.0003516927 0.0038338199 -0.00010768745)
(-0.002269685 0.011410358 -7.0531292e-05)
(-0.0062274787 0.018427297 -4.0053254e-05)
(-0.011614749 0.024619954 -1.7802707e-05)
(-0.018090317 0.029857557 2.6133631e-07)
(-0.025421021 0.034089874 1.4690799e-05)
(-0.033388715 0.037320709 2.6085157e-05)
(-0.041795672 0.039585244 3.510516e-05)
(-0.050464969 0.040931438 4.2211817e-05)
(-0.05923459 0.041407234 4.7665947e-05)
(-0.067952673 0.04105318 5.1555257e-05)
(-0.076474036 0.039899661 5.3813172e-05)
(-0.08465759 0.037967835 5.4244566e-05)
(-0.092364705 0.035273266 5.2559419e-05)
(-0.099458582 0.031831286 4.8412348e-05)
(-0.10580462 0.027663182 4.1446944e-05)
(-0.11127168 0.022802462 3.1343696e-05)
(-0.11573422 0.017300627 1.7869644e-05)
(-0.11907515 0.011231982 9.273108e-07)
(-0.12118941 0.0046971917 -1.9400115e-05)
(-0.12198808 -0.0021747094 -4.2811453e-05)
(-0.12140312 -0.0092260633 -6.8765528e-05)
(-0.11939247 -0.01627219 -9.6470147e-05)
(-0.11594548 -0.023105289 -0.00012490132)
(-0.11108822 -0.029500585 -0.00015284207)
(-0.1048884 -0.035224943 -0.000178949)
(-0.09745931 -0.040047906 -0.00020184178)
(-0.088962035 -0.043754909 -0.00022020967)
(-0.079605257 -0.046162107 -0.00023292547)
(-0.069641879 -0.047131963 -0.00023915462)
(-0.05936185 -0.046588371 -0.00023844447)
(-0.049080947 -0.044529877 -0.00023077882)
(-0.03912576 -0.041039488 -0.00021658732)
(-0.02981575 -0.036289749 -0.00019670501)
(-0.021444137 -0.030542383 -0.00017227831)
(-0.0142595 -0.024142647 -0.0001446518)
(-0.0084461202 -0.017509201 -0.00011538522)
(-0.0041057593 -0.011119101 -8.6119649e-05)
(-0.001300082 -0.0054896918 -5.6460601e-05)
(-0.00014466082 -0.0011817418 -2.2508488e-05)
(-0.00039639217 0.0050786746 -0.00010493842)
(-0.0025408039 0.014693486 -6.2458248e-05)
(-0.0069442122 0.023357977 -2.8851935e-05)
(-0.012909247 0.030860809 -4.5502366e-06)
(-0.020045658 0.037117349 1.5129588e-05)
(-0.028090311 0.042116905 3.0936879e-05)
(-0.036802156 0.045895784 4.364183e-05)
(-0.045967205 0.048514815 5.4051244e-05)
(-0.055397845 0.050041359 6.2720953e-05)
(-0.064925214 0.050537303 6.9960957e-05)
(-0.074393073 0.050052594 7.5870253e-05)
(-0.083653293 0.048623484 8.0360847e-05)
(-0.092562452 0.046274531 8.3187891e-05)
(-0.10097955 0.043023313 8.3987377e-05)
(-0.10876486 0.03888682 8.2319555e-05)
(-0.11577977 0.033888621 7.7717432e-05)
(-0.12188763 0.028066011 6.9739637e-05)
(-0.12695539 0.021476599 5.8026125e-05)
(-0.13085611 0.014203876 4.2354395e-05)
(-0.13347225 0.0063614842 2.2693472e-05)
(-0.13469976 -0.0019040895 -7.4895333e-07)
(-0.13445282 -0.010412654 -2.7497633e-05)
(-0.1326696 -0.018951372 -5.678092e-05)
(-0.12931855 -0.027278398 -8.7547367e-05)
(-0.12440508 -0.035129033 -0.00011849429)
(-0.11797825 -0.042224893 -0.00014813145)
(-0.11013684 -0.048286168 -0.00017487378)
(-0.10103395 -0.053046894 -0.00019715764)
(-0.090879086 -0.056272735 -0.0002135713)
(-0.079936769 -0.057780324 -0.00022298646)
(-0.068520625 -0.057456695 -0.00022467434)
(-0.056982419 -0.055276932 -0.00021838927)
(-0.045695951 -0.051317906 -0.00020440443)
(-0.035036664 -0.04576609 -0.00018348899)
(-0.02535898 -0.038918047 -0.00015681664)
(-0.016973699 -0.031173321 -0.00012584568)
(-0.010123123 -0.023020497 -9.2353111e-05)
(-0.0049573023 -0.015016291 -5.8273938e-05)
(-0.0015839133 -0.0077601705 -2.3102085e-05)
(-0.00018000574 -0.0018919989 1.4762569e-05)
(-0.00043687326 0.0064585697 -9.3540939e-05)
(-0.0027868514 0.018316903 -4.556204e-05)
(-0.0075958981 0.028778324 -9.0775605e-06)
(-0.014088638 0.03769491 1.7176505e-05)
(-0.021830806 0.045038214 3.8480434e-05)
(-0.030532268 0.050846277 5.5772809e-05)
(-0.039931317 0.055195696 6.9982843e-05)
(-0.049799508 0.058179122 8.2048563e-05)
(-0.059940133 0.059887925 9.2606333e-05)
(-0.070179116 0.060401151 0.00010200214)
(-0.080357618 0.059780197 0.0001103342)
(-0.090326505 0.058068282 0.00011748202)
(-0.099942076 0.05529369 0.00012314042)
(-0.10906305 0.051475671 0.00012686062)
(-0.11754871 0.046631951 0.0001280966)
(-0.12525816 0.040786887 0.00012625692)
(-0.1320505 0.033979543 0.0001207616)
(-0.13778589 0.026271124 0.00011110323)
(-0.14232753 0.017751397 9.6910403e-05)
(-0.14554451 0.0085438122 7.8011126e-05)
(-0.14731571 -0.0011908622 5.4491561e-05)
(-0.1475346 -0.011252639 2.6729463e-05)
(-0.14611543 -0.021402754 -4.5450717e-06)
(-0.14300051 -0.031366226 -3.8271596e-05)
(-0.13816826 -0.04083768 -7.3068434e-05)
(-0.13164196 -0.049490595 -0.00010728944)
(-0.1234984 -0.056990437 -0.00013911618)
(-0.1138753 -0.063011814 -0.00016668252)
(-0.10297654 -0.067259343 -0.00018822357)
(-0.091073525 -0.069491272 -0.00020223466)
(-0.078501392 -0.069544178 -0.00020762209)
(-0.065648977 -0.06735634 -0.00020382486)
(-0.052941999 -0.062986925 -0.00019088814)
(-0.040820053 -0.056628019 -0.00016946945)
(-0.029709668 -0.048607158 -0.00014075809)
(-0.019996222 -0.039379401 -0.00010634981)
(-0.011992169 -0.029509504 -6.8295726e-05)
(-0.0059060216 -0.019644355 -2.8903938e-05)
(-0.0018995937 -0.010479298 1.2404999e-05)
(-0.00021911102 -0.0027504905 5.4743119e-05)
(-0.00047276067 0.0079598532 -7.2404279e-05)
(-0.0030053063 0.022246665 -1.8720912e-05)
(-0.0081754802 0.034640709 2.0356085e-05)
(-0.015139636 0.045066385 4.8436821e-05)
(-0.02342507 0.05356016 7.1352083e-05)
(-0.032718087 0.060216898 9.022282e-05)
(-0.042738977 0.06516051 0.0001061272)
(-0.053246922 0.068521222 0.0001201215)
(-0.064037879 0.070418872 0.00013291047)
(-0.074934237 0.07095291 0.00014486516)
(-0.085776307 0.07019835 0.00015607312)
(-0.096415822 0.068206605 0.00016637222)
(-0.1067108 0.06501008 0.000175388)
(-0.11652173 0.060629344 0.00018257704)
(-0.12570894 0.055081776 0.00018727543)
(-0.13413109 0.048390745 0.00018875256)
(-0.1416446 0.04059462 0.00018627101)
(-0.14810401 0.031755103 0.00017915221)
(-0.15336318 0.021964576 0.00016684647)
(-0.15727765 0.011352261 0.0001490046)
(-0.15970802 8.9012698e-05 0.00012554721)
(-0.1605249 -0.011609445 9.6735464e-05)
(-0.15961527 -0.023481698 6.3198539e-05)
(-0.1568904 -0.035221787 2.5978695e-05)
(-0.15229556 -0.046484015 -1.3482451e-05)
(-0.14582082 -0.056891681 -5.3385687e-05)
(-0.13751249 -0.066050529 -9.1659082e-05)
(-0.12748403 -0.073567429 -0.00012608683)
(-0.11592512 -0.079074262 -0.00015447601)
(-0.10310686 -0.082256237 -0.0001748476)
(-0.089381232 -0.082882828 -0.00018563092)
(-0.075173049 -0.080838438 -0.00018583617)
(-0.060963169 -0.076149009 -0.00017517939)
(-0.04726308 -0.069000367 -0.00015413221)
(-0.034583088 -0.059744613 -0.00012386377)
(-0.0233974 -0.0488925 -8.6115756e-05)
(-0.014103447 -0.037091892 -4.3266558e-05)
(-0.0069814322 -0.025092622 1.9188827e-06)
(-0.0022590045 -0.01370295 5.0066645e-05)
(-0.00026414543 -0.0037760404 9.762337e-05)
(-0.00050355054 0.0095674412 -4.055878e-05)
(-0.0031932749 0.026445188 1.9057449e-05)
(-0.0086754036 0.040892098 6.0413307e-05)
(-0.016048492 0.052912583 9.017898e-05)
(-0.024807362 0.062615413 0.00011468306)
(-0.034618416 0.070159216 0.0001352218)
(-0.045186792 0.075721399 0.00015301317)
(-0.0562615 0.079474999 0.00016922037)
(-0.06763297 0.081572541 0.00018460677)
(-0.079121711 0.082137086 0.00019956029)
(-0.090568868 0.081259509 0.00021415083)
(-0.10182885 0.079000764 0.00022816831)
(-0.11276335 0.075397883 0.00024116252)
(-0.12323669 0.070472442 0.0002524877)
(-0.13311238 0.064240353 0.00026135154)
(-0.14225077 0.056722065 0.00026686974)
(-0.15050759 0.047952504 0.00026812743)
(-0.15773346 0.037990329 0.00026424811)
(-0.16377427 0.0269263 0.0002544696)
(-0.16847277 0.014890605 0.00023822442)
(-0.17167132 0.0020590349 0.00021522216)
(-0.1732166 -0.011342253 0.00018553906)
(-0.17296592 -0.025033766 0.00014966355)
(-0.1707957 -0.038682249 0.00010856679)
(-0.16661243 -0.051903617 6.3711296e-05)
(-0.1603655 -0.06427037 1.7029788e-05)
(-0.15206157 -0.075324593 -2.9145744e-05)
(-0.14177939 -0.08459751 -7.221051e-05)
(-0.12968347 -0.09163604 -0.00010946767)
(-0.11603434 -0.096035946 -0.00013835298)
(-0.10119274 -0.09747989 -0.00015668173)
(-0.085615083 -0.095777093 -0.00016288739)
(-0.069838049 -0.090899823 -0.00015621704)
(-0.054451416 -0.083010925 -0.00013684408)
(-0.040061177 -0.072476745 -0.00010584906)
(-0.027246483 -0.059861711 -6.5105348e-05)
(-0.016507706 -0.045903611 -1.7364063e-05)
(-0.0082137721 -0.031469864 3.4063387e-05)
(-0.0026743196 -0.017501842 8.9829238e-05)
(-0.0003172952 -0.0049938559 0.00014354682)
(-0.00052867989 0.011264646 2.8257835e-06)
(-0.003347737 0.030871101 6.861749e-05)
(-0.0090880508 0.047474047 0.00011191561)
(-0.016801584 0.061164139 0.0001432147)
(-0.025956885 0.07212839 0.00016928112)
(-0.036204177 0.080594901 0.00019157823)
(-0.04723629 0.086799851 0.00021145503)
(-0.05879424 0.090963757 0.00023017189)
(-0.070664653 0.093275757 0.00024854356)
(-0.082667719 0.09388566 0.00026696985)
(-0.094646993 0.092902517 0.00028549947)
(-0.10646127 0.090398312 0.00030387159)
(-0.11797781 0.086415369 0.00032155713)
(-0.12906689 0.080976096 0.00033780325)
(-0.13959747 0.074093908 0.00035168127)
(-0.14943401 0.065784409 0.00036214012)
(-0.15843403 0.05607624 0.00036806763)
(-0.16644669 0.045021269 0.00036836119)
(-0.17331222 0.032704 0.00036200825)
(-0.17886252 0.01925018 0.00034817556)
(-0.18292317 0.004834535 0.00032630531)
(-0.18531737 -0.010312566 0.00029621689)
(-0.18587199 -0.025899801 0.00025819213)
(-0.18442617 -0.041572071 0.00021305978)
(-0.18084314 -0.056910853 0.00016224191)
(-0.17502465 -0.071439349 0.0001077622)
(-0.16692827 -0.084633979 5.2198635e-05)
(-0.15658627 -0.095943775 -1.4309781e-06)
(-0.1441246 -0.10481882 -4.9856277e-05)
(-0.12977947 -0.11074795 -8.9810087e-05)
(-0.11390799 -0.11330452 -0.00011833371)
(-0.096989362 -0.11219671 -0.00013309739)
(-0.079612826 -0.10731673 -0.00013269059)
(-0.062450283 -0.098781318 -0.00011682496)
(-0.046214676 -0.086954989 -8.6378438e-05)
(-0.031607741 -0.072449907 -4.3308891e-05)
(-0.01925415 -0.05609926 9.2284603e-06)
(-0.0096331387 -0.038903923 6.728108e-05)
(-0.0031578298 -0.021961651 0.0001315087)
(-0.00038078503 -0.0064355921 0.00019253535)
(-0.00054759856 0.013033166 5.8416907e-05)
(-0.0034658559 0.035479368 0.00013063434)
(-0.0094063947 0.054322963 0.00017551958)
(-0.017386393 0.06974528 0.00020819362)
(-0.026854432 0.082015883 0.00023579266)
(-0.03744815 0.091436743 0.00025993737)
(-0.048850771 0.098307136 0.00028209923)
(-0.06079732 0.10289912 0.00030362763)
(-0.073072176 0.10544207 0.00032538427)
(-0.08549659 0.1061156 0.00034777941)
(-0.097917946 0.10504934 0.00037084103)
(-0.110201 0.10232798 0.00039425885)
(-0.12222041 0.098000022 0.0004174259)
(-0.13385451 0.092088779 0.00043948143)
(-0.14498014 0.084604362 0.00045935595)
(-0.15546857 0.075555802 0.00047582163)
(-0.16518213 0.064962751 0.00048755125)
(-0.17397174 0.052866566 0.00049318851)
(-0.18167529 0.039340755 0.00049143143)
(-0.18811715 0.024500886 0.00048112905)
(-0.19310911 0.0085140042 0.0004613906)
(-0.19645327 -0.008392566 0.00043170442)
(-0.19794729 -0.025923361 0.00039205563)
(-0.19739265 -0.043708859 0.00034303962)
(-0.19460649 -0.061302517 0.00028595056)
(-0.1894373 -0.078182567 0.0002228307)
(-0.18178452 -0.093760678 0.00015646003)
(-0.17162148 -0.10739971 9.0267693e-05)
(-0.15902009 -0.11844266 2.8150312e-05)
(-0.14417482 -0.12625404 -2.5807059e-05)
(-0.1274219 -0.13027327 -6.7695333e-05)
(-0.10924879 -0.1300771 -9.419713e-05)
(-0.090288544 -0.12544457 -0.00010299889)
(-0.071294714 -0.11641495 -9.3120789e-05)
(-0.053096437 -0.10332683 -6.5060735e-05)
(-0.036536433 -0.086827866 -2.0765115e-05)
(-0.022388438 -0.067848915 3.6199762e-05)
(-0.011268761 -0.047540427 0.00010114398)
(-0.0037218432 -0.027182719 0.00017471487)
(-0.00045691167 -0.0081393803 0.00024441143)
(-0.00055984442 0.014853262 0.00012669486)
(-0.0035453365 0.040221771 0.00020559245)
(-0.0096248062 0.06137077 0.00025169612)
(-0.017792801 0.078574519 0.00028557984)
(-0.027484125 0.092187633 0.00031467447)
(-0.038327157 0.10258894 0.00034074647)
(-0.049997926 0.11014416 0.00036538173)
(-0.062227199 0.11518035 0.00039001241)
(-0.074798406 0.11797047 0.00041554585)
(-0.087535019 0.11872693 0.00044240529)
(-0.10028947 0.11760245 0.00047060289)
(-0.11293389 0.11469632 0.00049978489)
(-0.12535205 0.11006441 0.00052927212)
(-0.13743243 0.10373138 0.00055809975)
(-0.14906226 0.09570359 0.0005850577)
(-0.16012261 0.085982159 0.00060873579)
(-0.17048407 0.07457541 0.00062757808)
(-0.18000323 0.061510785 0.00063995034)
(-0.18852003 0.046846252 0.00064422392)
(-0.19585596 0.030681468 0.00063887782)
(-0.20181372 0.013168863 0.0006226194)
(-0.20617874 -0.0054753486 0.00059452182)
(-0.20872309 -0.024960521 0.0005541723)
(-0.20921262 -0.04491215 0.00050182133)
(-0.20741815 -0.064864843 0.00043851976)
(-0.20313138 -0.084259643 0.00036622092)
(-0.19618604 -0.10244829 0.00028782352)
(-0.18648428 -0.11870743 0.00020712737)
(-0.17402711 -0.13226602 0.00012867623)
(-0.15894668 -0.14234851 5.7470428e-05)
(-0.14153584 -0.14823508 -1.4499261e-06)
(-0.12226911 -0.14933665 -4.3523737e-05)
(-0.10180729 -0.14527869 -6.5229482e-05)
(-0.08097872 -0.13598181 -6.4586124e-05)
(-0.060733904 -0.12172371 -4.1449186e-05)
(-0.042074314 -0.10316589 2.4140148e-06)
(-0.025950476 -0.081333236 6.306081e-05)
(-0.013148239 -0.057540535 0.00013497407)
(-0.0043785962 -0.033279402 0.00021876645)
(-0.00054808307 -0.010149841 0.00029871136)
(-0.00056512264 0.016704134 0.00020793046)
(-0.0035848212 0.04504781 0.00029376761)
(-0.0097399806 0.068546094 0.00034071375)
(-0.018014594 0.087565893 0.00037563318)
(-0.027835513 0.10254741 0.00040617026)
(-0.038824725 0.11394788 0.00043422451)
(-0.050653063 0.12220186 0.00046148909)
(-0.063048415 0.12769429 0.00048947533)
(-0.075794272 0.13074478 0.00051913868)
(-0.088717238 0.13160154 0.00055092231)
(-0.10167579 0.13044301 0.00058483222)
(-0.11455071 0.12738526 0.00062048222)
(-0.12723646 0.12249312 0.00065713183)
(-0.13963366 0.11579341 0.00069372124)
(-0.15164252 0.10728887 0.00072890539)
(-0.163157 0.096971892 0.00076109185)
(-0.17405976 0.084837724 0.00078848814)
(-0.18421763 0.07089708 0.00080916368)
(-0.19347777 0.055188373 0.00082113124)
(-0.2016647 0.037789984 0.00082245139)
(-0.2085784 0.018832875 0.00081136219)
(-0.21399412 -0.0014862883 0.00078643396)
(-0.21766444 -0.022891661 0.00074674707)
(-0.21932459 -0.045015028 0.00069207918)
(-0.21870194 -0.067384143 0.00062309649)
(-0.21553095 -0.089414496 0.00054151949)
(-0.20957471 -0.11040752 0.00045023574)
(-0.20065357 -0.12955895 0.00035332288)
(-0.18868079 -0.14598188 0.00025594203)
(-0.17370326 -0.15874898 0.00016406746)
(-0.15594313 -0.1669571 8.4035101e-05)
(-0.1358334 -0.16981459 2.1922902e-05)
(-0.11403767 -0.16674578 -1.7179565e-05)
(-0.0914433 -0.15750013 -2.9891228e-05)
(-0.069120476 -0.14224564 -1.5055368e-05)
(-0.048244337 -0.12162259 2.6008328e-05)
(-0.029971802 -0.096736567 8.9083921e-05)
(-0.015296619 -0.069077566 0.00016775948)
(-0.0051401258 -0.040378987 0.00026259095)
(-0.00065685452 -0.012518069 0.00035458364)
(-0.00056338789 0.018564533 0.00030216844)
(-0.0035843175 0.049906095 0.00039521581)
(-0.0097519578 0.075776043 0.00044262927)
(-0.018051161 0.096630821 0.00047839802)
(-0.027905935 0.11299473 0.0005102949)
(-0.038934095 0.12540356 0.00054033921)
(-0.05080275 0.13436219 0.00057032638)
(-0.063237892 0.14031585 0.0006018471)
(-0.07602379 0.14363372 0.00063591213)
(-0.088990871 0.14460279 0.00067299657)
(-0.1020045 0.14343008 0.00071311514)
(-0.11495518 0.1402509 0.00075586547)
(-0.12774955 0.13514101 0.00080046195)
(-0.14030232 0.12813081 0.00084576445)
(-0.15252914 0.11922004 0.00089030441)
(-0.16434007 0.10839231 0.00093231364)
(-0.17563382 0.095628825 0.00096976242)