/*--------------------------------*- C++ -*----------------------------------*\
  =========                 |
  \\      /  F ield         | OpenFOAM: The Open Source CFD Toolbox
   \\    /   O peration     | Website:  https://openfoam.org
    \\  /    A nd           | Version:  7
     \\/     M anipulation  |
\*---------------------------------------------------------------------------*/
FoamFile
{
    version     2.0;
    format      ascii;
    class       volScalarField;
    location    "1";
    object      p;
}
// * * * * * * * * * * * * * * * * * * * * * * * * * * * * * * * * * * * * * //

dimensions      [0 2 -2 0 0 0 0];

internalField   nonuniform List<scalar> 
16000
(
-2.0944473e-08
-0.00011562029
-0.00029749756
-0.00048018022
-0.00062900686
-0.00071880448
-0.00073611852
-0.00067529872
-0.00053525217
-0.00031753549
-2.5191975e-05
0.00033794765
0.00076763406
0.0012593481
0.0018083128
0.0024094294
0.0030571795
0.0037455199
0.004467789
0.0052166336
0.0059839618
0.0067609295
0.0075379568
0.0083047842
0.0090505667
0.0097640145
0.010433582
0.011047713
0.011595156
0.012065357
0.012448945
0.012738346
0.012928541
0.013018031
0.013010087
0.012914479
0.012750224
0.01254876
0.012352285
0.012229381
0.00011541493
-1.1292696e-06
-0.00013748868
-0.000266992
-0.00036688442
-0.00041835352
-0.00040977214
-0.0003349732
-0.00019135686
2.1268884e-05
0.00030149088
0.00064684556
0.0010541557
0.0015197035
0.0020392935
0.0026082469
0.0032213594
0.0038728441
0.0045562765
0.0052645531
0.0059898676
0.0067237158
0.0074569379
0.0081797825
0.0088820253
0.0095531287
0.010182453
0.010759525
0.011274368
0.01171791
0.012082462
0.012362284
0.012554252
0.012658625
0.012679886
0.012627728
0.012518507
0.012376317
0.012229044
0.012106407
0.00029865875
0.0001337727
-4.62283e-06
-0.00011729219
-0.00019696744
-0.00023020183
-0.00020797634
-0.00012522871
2.0585728e-05
0.00023014393
0.0005027243
0.00083658401
0.0012292071
0.0016774415
0.0021775581
0.0027252571
0.0033156463
0.0039432049
0.004601747
0.0052843971
0.0059835798
0.006691042
0.007397889
0.0080946786
0.0087715404
0.0094183492
0.010024947
0.010581423
0.011078457
0.011507714
0.011862312
0.012137338
0.01233041
0.012442259
0.012477243
0.012443815
0.012355547
0.012230937
0.012081879
0.011910651
0.00048770751
0.00026295983
0.00010193816
-1.3746734e-05
-8.9642631e-05
-0.00011670848
-8.8668523e-05
-2.2263543e-06
0.00014435687
0.00035157604
0.00061887279
0.00094484327
0.0013273794
0.0017637437
0.0022505952
0.002783983
0.0033593222
0.0039713616
0.004614153
0.005281032
0.0059646154
0.0066568253
0.0073489317
0.0080316528
0.0086952776
0.0093298479
0.0099253871
0.010472188
0.010961159
0.011384215
0.011734726
0.012007988
0.012201694
0.012316378
0.012355652
0.012326358
0.012239571
0.012109699
0.011936096
0.011703493
0.00064785483
0.00036311574
0.00017364676
4.695333e-05
-3.2723708e-05
-5.9769184e-05
-3.0334023e-05
5.7098413e-05
0.00020327943
0.00040828655
0.00067150048
0.00099167211
0.0013669668
0.0017949723
0.0022726832
0.0027964717
0.0033620487
0.0039644266
0.0045978863
0.005255955
0.0059314046
0.0066162724
0.0073019118
0.0079790841
0.0086380896
0.0092689526
0.0098616566
0.010406442
0.010894155
0.011316646
0.0116672
0.011940981
0.012135446
0.012250674
0.012289424
0.012257075
0.012162777
0.012018195
0.011813417
0.011520062
0.00075289475
0.00041346765
0.00019442176
5.2598779e-05
-3.5472785e-05
-6.6635494e-05
-3.8983415e-05
4.743218e-05
0.00019239426
0.00039548199
0.00065589939
0.00097243675
0.0013434355
0.0017667351
0.0022396155
0.0027587382
0.0033200891
0.0039189262
0.0045497384
0.0052062154
0.0058812388
0.006566898
0.0072545377
0.0079348446
0.0085979798
0.0092337677
0.0098319382
0.010382434
0.010875772
0.011303452
0.011658395
0.011935373
0.012131394
0.012245977
0.012281093
0.012241
0.012133626
0.01196917
0.011731481
0.011383103
0.0007865764
0.00039902133
0.00015136211
-7.4270867e-06
-0.00010649079
-0.00014432855
-0.00012049886
-3.6340388e-05
0.00010707347
0.00030883277
0.00056792286
0.00088311315
0.0012528597
0.0016752021
0.0021476655
0.002667171
0.0032299568
0.003831507
0.0044664938
0.0051287368
0.0058111813
0.0065059034
0.0072041478
0.0078964096
0.0085725636
0.0092220542
0.0098341474
0.010398253
0.010904304
0.011343194
0.011707228
0.011990575
0.012189658
0.012303406
0.012333151
0.012282427
0.012158616
0.011971531
0.011701171
0.011304126
0.00073900805
0.00030907889
3.4528342e-05
-0.00014165047
-0.00025285173
-0.00029865016
-0.00027967096
-0.00019826924
-5.6230028e-05
0.00014510612
0.00040451396
0.00072072436
0.0010922807
0.0015173939
0.0019938108
0.0025186935
0.0030885164
0.0036989738
0.0043449026
0.0050202236
0.005717904
0.0064299465
0.0071474121
0.0078604913
0.0085586302
0.0092307187
0.0098653537
0.01045118
0.010977302
0.011433756
0.011812007
0.012105439
0.012309783
0.012423397
0.01244715
0.01238424
0.012242091
0.01203096
0.011728642
0.011287765
0.00060375521
0.00013554495
-0.0001643326
-0.00035773971
-0.00048143128
-0.00053566793
-0.00052184716
-0.00044312158
-0.00030185376
-9.9743734e-05
0.00016180445
0.00048149039
0.00085794081
0.0012895309
0.0017742211
0.00230941
0.0028918034
0.0035173003
0.0041808938
0.0048765885
0.0055973416
0.0063350312
0.0070804611
0.0078234137
0.0085527678
0.0092566852
0.0099228861
0.010539015
0.011093091
0.011574038
0.011972245
0.012280128
0.012492626
0.01260754
0.012625441
0.012549532
0.012387777
0.012151517
0.011817365
0.011335079
0.00037613034
-0.0001281356
-0.00045238848
-0.00066279475
-0.00079899651
-0.00086170197
-0.00085288722
-0.00077635082
-0.00063493109
-0.00043062526
-0.00016498044
0.00016069181
0.00054511374
0.00098683337
0.0014840334
0.002034358
0.0026347569
0.0032813438
0.0039692732
0.0046926318
0.0054443526
0.0062161545
0.0069985223
0.0077807374
0.0085509802
0.0092965115
0.010003959
0.010659714
0.011250433
0.011763638
0.012188376
0.012515878
0.01274016
0.012858448
0.012871151
0.012781755
0.012599186
0.012336387
0.011969367
0.011445473
5.2101614e-05
-0.00048777217
-0.00083622747
-0.0010636084
-0.0012122849
-0.001283289
-0.0012790685
-0.0012039839
-0.0010612891
-0.00085323519
-0.0005814811
-0.00024732537
0.0001480706
0.00060345005
0.0011172427
0.0016873649
0.0023110381
0.0029846212
0.0037034573
0.0044617353
0.0052523704
0.0060669101
0.0068954804
0.0077267849
0.0085481837
0.0093458638
0.010105134
0.010810854
0.011447999
0.012002357
0.012461304
0.012814606
0.01305516
0.013179552
0.013188098
0.0130848
0.012879913
0.012588442
0.012186084
0.011617802
-0.00037244004
-0.00094905284
-0.00132234
-0.0015670104
-0.0017282355
-0.001807333
-0.0018071897
-0.0017327044
-0.0015875264
-0.0013741422
-0.0010943027
-0.00074926915
-0.00034005875
0.00013229951
0.00066652098
0.0012608391
0.0019127966
0.0026190496
0.0033751824
0.0041755341
0.0050130388
0.0058790907
0.0067634456
0.0076541773
0.0085377198
0.0093990184
0.010221824
0.010989157
0.011683943
0.012289828
0.012792102
0.013178691
0.013441088
0.013575077
0.013580891
0.013463219
0.01323399
0.012910731
0.012468949
0.011850979
-0.00090216431
-0.0015180126
-0.0019175235
-0.0021801911
-0.0023542401
-0.002441299
-0.0024447202
-0.0023699733
-0.0022211219
-0.0020008935
-0.0017111234
-0.0013530166
-0.00092741409
-0.00043507476
0.00012305486
0.00074558775
0.0014304596
0.0021747021
0.0029742232
0.0038235939
0.0047158428
0.0056422687
0.0065922864
0.0075533233
0.0085108102
0.0094482954
0.010347728
0.011189946
0.011955397
0.012625082
0.013181677
0.013610758
0.013901988
0.014050075
0.014055076
0.01392248
0.013666231
0.013306884
0.012819791
0.012144242
-0.0015426205
-0.0022013837
-0.0026292134
-0.0029109894
-0.0030983803
-0.0031934026
-0.0031999539
-0.0031241544
-0.0029705391
-0.0027421064
-0.002440783
-0.0020677033
-0.0016234995
-0.0011086098
-0.00052357723
0.00013067102
0.00085255718
0.0016395949
0.0024881326
0.0033930968
0.0043477322
0.0053433527
0.0063691155
0.0074118382
0.0084559165
0.0094833772
0.010474127
0.011406456
0.012257831
0.013005998
0.013630338
0.014113387
0.014442366
0.014610454
0.014617305
0.014469242
0.014182572
0.013781467
0.013241123
0.012497232
-0.002300453
-0.0030068688
-0.0034657621
-0.0037681503
-0.0039696541
-0.0040728016
-0.0040821637
-0.0040046394
-0.0038453266
-0.0036075508
-0.0032933524
-0.0029037879
-0.0024392473
-0.0018997932
-0.0012854882
-0.00059670382
0.00016558442
0.00099950751
0.0019020088
0.0028685397
0.0038927405
0.0049661149
0.0060777202
0.0072138752
0.0083579808
0.009490474
0.01058901
0.011628948
0.012584213
0.013428557
0.014137195
0.014688702
0.015066985
0.015262988
0.015275532
0.015111692
0.014790474
0.014340372
0.013736399
0.012909961
-0.0031835605
-0.003943371
-0.0044366914
-0.0047615685
-0.0049781958
-0.0050897841
-0.005101757
-0.0050219688
-0.004856211
-0.0046082179
-0.0042801833
-0.0038730871
-0.003387047
-0.0028216916
-0.0021765197
-0.0014512385
-0.00064608573
0.00023785007
0.0011982996
0.0022314602
0.0033316118
0.0044907027
0.0056979415
0.0069393644
0.0081975255
0.0094513004
0.010675951
0.011843551
0.01292387
0.0138858
0.014699298
0.015337751
0.015780525
0.016015269
0.016039235
0.015859953
0.015499431
0.014991313
0.014310356
0.013382794
-0.0042012392
-0.0050212143
-0.005552941
-0.0059025332
-0.0061354997
-0.0062559604
-0.0062704301
-0.00618795
-0.0060151782
-0.0057563695
-0.0054139297
-0.0049887759
-0.0044807289
-0.0038889266
-0.0032122186
-0.0024495314
-0.0016002165
-0.0006643952
0.0003566787
0.001460222
0.0026414684
0.003893156
0.0052050206
0.0065631661
0.0079496033
0.009341829
0.010712704
0.012030739
0.013260942
0.014366361
0.015310359
0.016059532
0.016586996
0.016875532
0.016919611
0.016726589
0.01632165
0.015744532
0.01496955
0.013916569
-0.0053643408
-0.0062523858
-0.0068271402
-0.0072039951
-0.0074546619
-0.0075844669
-0.0076013272
-0.007515769
-0.0073355397
-0.0070655616
-0.0067085336
-0.0062653389
-0.0057354871
-0.0051175764
-0.004409726
-0.0036099673
-0.0027166122
-0.0017286156
-0.00064595961
0.00052991087
0.0017955668
0.0031449836
0.0045689645
0.0060541848
0.007582627
0.0091308247
0.010669454
0.012163369
0.013572296
0.014852403
0.01595888
0.016849472
0.017488717
0.017852214
0.01792972
0.017727212
0.017272961
0.016613809
0.01572322
0.014512995
-0.0066854809
-0.0076508337
-0.0082739354
-0.0086808808
-0.0089506582
-0.0090901919
-0.0091092075
-0.009020097
-0.0088319808
-0.0085506358
-0.0081791628
-0.0077184582
-0.0071677217
-0.0065249771
-0.0057875461
-0.0049524642
-0.0040168608
-0.0029783265
-0.0018353072
-0.00058756131
0.00076327287
0.0022129861
0.0037540718
0.0053745618
0.0070571773
0.0087782251
0.010506768
0.012204239
0.013824802
0.015316782
0.016625431
0.0176971
0.018484609
0.018953037
0.019084403
0.018881149
0.018374015
0.017617921
0.016584673
0.015175578
-0.0081793348
-0.0092328633
-0.0099104099
-0.010350485
-0.01064068
-0.010790039
-0.010810627
-0.010717191
-0.010520581
-0.010227664
-0.0098420813
-0.0093648124
-0.008794768
-0.0081293847
-0.0073651457
-0.0064980188
-0.0055238371
-0.004438656
-0.0032391359
-0.0019229946
-0.0004895735
0.0010594236
0.0027188227
0.004479167
0.0063249971
0.0082335517
0.01017336
0.012103214
0.013971918
0.015719288
0.017278853
0.018582566
0.019567432
0.020183279
0.020399735
0.020212039
0.019651776
0.018782652
0.017573378
0.01591132
-0.0098630683
-0.011017682
-0.011756644
-0.012232981
-0.012544554
-0.012703239
-0.012724141
-0.012624983
-0.012418796
-0.012113825
-0.011714426
-0.011221753
-0.010634471
-0.0099494465
-0.0091623218
-0.0082679721
-0.0072608757
-0.0061354386
-0.0048863352
-0.0035089215
-0.0019997776
-0.0003574661
0.0014163552
0.0033157215
0.0053285491
0.0074347363
0.0096040521
0.011794233
0.01394976
0.016001957
0.017871173
0.019471672
0.020719517
0.021542752
0.021891627
0.021748102
0.021141217
0.02014345
0.018718009
0.016733573
-0.011756968
-0.013028165
-0.013836481
-0.014352089
-0.014685278
-0.014851727
-0.014870514
-0.014763139
-0.01454537
-0.014227182
-0.013813847
-0.013306805
-0.012704545
-0.012003412
-0.011198255
-0.010282898
-0.0092504888
-0.0080937656
-0.0068053189
-0.0053779165
-0.0038049658
-0.002081226
-0.0002038888
0.0018260577
0.0040017453
0.006308046
0.0087186128
0.011192841
0.013673212
0.016083846
0.01833136
0.020309235
0.021906559
0.023020915
0.023572968
0.023521659
0.022887049
0.021748794
0.020060675
0.017666408
-0.013885359
-0.015291939
-0.016178581
-0.016735982
-0.017089705
-0.01726059
-0.017272938
-0.017153058
-0.016920141
-0.016586301
-0.016157946
-0.015636927
-0.015021639
-0.014307993
-0.013490147
-0.012561
-0.011512501
-0.010335839
-0.0090215839
-0.0075598621
-0.0059406684
-0.0041544321
-0.0021929522
-5.0716878e-05
0.002272741
0.004770155
0.0074226954
0.010195558
0.013033376
0.015856375
0.018558746
0.021011173
0.023069411
0.024589679
0.025448708
0.025567314
0.024945124
0.023664222
0.021662581
0.018750934
-0.016277942
-0.017842932
-0.018817894
-0.01941849
-0.01978941
-0.019958578
-0.019957211
-0.019817753
-0.019563653
-0.019209613
-0.018763408
-0.018227407
-0.017599995
-0.01687676
-0.016051327
-0.015115888
-0.014061461
-0.012877971
-0.011554239
-0.010077954
-0.0084357417
-0.0066134243
-0.0045966575
-0.002372297
6.9892019e-05
0.0027337872
0.005612625
0.0086831451
0.011898601
0.015181554
0.018418187
0.021456931
0.024114819
0.026194147
0.02750856
0.027918283
0.027383155
0.025977029
0.023611457
0.020054072
-0.018971738
-0.020723593
-0.021797718
-0.022440723
-0.022821772
-0.022978648
-0.022951793
-0.022781487
-0.022496424
-0.022114376
-0.021644664
-0.021090239
-0.020449534
-0.019717917
-0.018888689
-0.017953635
-0.016903238
-0.015726641
-0.014411436
-0.012943387
-0.01130616
-0.0094811824
-0.0074477903
-0.0051839948
-0.0026680877
0.00011844753
0.0031861626
0.0065305619
0.010122549
0.013896967
0.017740989
0.021485956
0.024908032
0.027743129
0.029718136
0.030600979
0.030280659
0.028801811
0.026031295
0.021680506
-0.022013925
-0.023988129
-0.025172604
-0.025853231
-0.026231279
-0.026358447
-0.026287577
-0.026068954
-0.025737657
-0.02531497
-0.02481184
-0.024231757
-0.023573166
-0.022831295
-0.021999326
-0.021068998
-0.020030771
-0.018873654
-0.017584787
-0.016148859
-0.014547431
-0.012758263
-0.010754781
-0.0085059761
-0.0059773492
-0.00313271
6.1086283e-05
0.003626474
0.007563331
0.011832753
0.016337721
0.020904659
0.02527329
0.029104239
0.032011612
0.033629405
0.033728853
0.032287545
0.029095489
0.023789094
-0.025466057
-0.02770726
-0.02901248
-0.02971886
-0.030070991
-0.030140521
-0.029997063
-0.029703644
-0.029302969
-0.028820142
-0.028267611
-0.027649151
-0.026963041
-0.026204331
-0.025366243
-0.024440828
-0.023419088
-0.022290662
-0.021043202
-0.019661468
-0.018126197
-0.01641279
-0.01448995
-0.012318431
-0.0098502992
-0.0070303879
-0.0037981818
-9.6272464e-05
0.0041167408
0.0088455511
0.014029913
0.019512445
0.025011361
0.03011207
0.034292638
0.037003748
0.037833026
0.036627991
0.033045332
0.026615965
-0.029410438
-0.031975384
-0.033408553
-0.034116432
-0.034403969
-0.034371821
-0.034112377
-0.033704767
-0.033200536
-0.032628606
-0.032002421
-0.03132546
-0.03059538
-0.029806826
-0.028953072
-0.028026745
-0.027019897
-0.025923562
-0.024726926
-0.023416114
-0.021972587
-0.020371158
-0.018577631
-0.016546112
-0.014216281
-0.011514438
-0.0083490476
-0.0046215712
-0.00023724683
0.0048709275
0.010705162
0.017154613
0.023944607
0.03060099
0.036454041
0.040721154
0.04272242
0.042078726
0.038217091
0.030507991
-0.033960185
-0.036921583
-0.038481778
-0.039145308
-0.039304166
-0.039101699
-0.03866118
-0.038081752
-0.037424704
-0.036722142
-0.035987367
-0.035222444
-0.034423531
-0.033584303
-0.032697833
-0.031757358
-0.030756285
-0.029687627
-0.028542978
-0.027311012
-0.025975451
-0.024512401
-0.022886981
-0.021049307
-0.018929879
-0.016433617
-0.013441866
-0.009810641
-0.0053829009
-1.2531578e-05
0.0063918554
0.013802797
0.021995368
0.03047271
0.038428431
0.044809693
0.048575578
0.048986005
0.045082367
0.035972361
-0.039275901
-0.042727011
-0.044395011
-0.044930566
-0.044855687
-0.044376902
-0.043658885
-0.042824837
-0.041945751
-0.041055122
-0.040163917
-0.039270821
-0.038368964
-0.037449966
-0.036506001
-0.035530549
-0.034518292
-0.033464407
-0.032363348
-0.031207095
-0.029982731
-0.028669146
-0.02723274
-0.025621958
-0.023759982
-0.021536201
-0.018804792
-0.015376662
-0.011028987
-0.0055257353
0.0013358836
0.0096487861
0.019289872
0.029798677
0.04027653
0.049395611
0.055670493
0.057834182
0.054307965
0.043750981
-0.045595157
-0.049653035
-0.051370131
-0.051627706
-0.051148148
-0.050230975
-0.049094727
-0.047889609
-0.046694139
-0.045539276
-0.044429742
-0.043357569
-0.042310323
-0.041275685
-0.040243565
-0.039206714
-0.038160413
-0.037101562
-0.036027254
-0.034932765
-0.033808774
-0.032637533
-0.031387696
-0.0300074
-0.028414862
-0.026487567
-0.024056635
-0.020891045
-0.016703842
-0.011166613
-0.0039530804
0.0051783422
0.016257968
0.028936373
0.042303962
0.054804924
0.064466126
0.0693187
0.066842695
0.054933532
-0.053287988
-0.058087762
-0.059711206
-0.059423926
-0.05826377
-0.056663775
-0.054908082
-0.05317286
-0.051537534
-0.050022873
-0.048620643
-0.047310894
-0.046071572
-0.04488336
-0.043731588
-0.04260647
-0.041502432
-0.040416862
-0.039348395
-0.038294599
-0.037248842
-0.03619595
-0.035106161
-0.033927041
-0.032573381
-0.030914072
-0.028754787
-0.025833334
-0.021803988
-0.016250728
-0.0087245749
0.0011770777
0.013676542
0.028610948
0.04516996
0.061679721
0.075710973
0.084448616
0.084039373
0.071133426
-0.062967866
-0.068623787
-0.069833064
-0.068529489
-0.066248893
-0.063604973
-0.060950775
-0.058477402
-0.056250013
-0.054265163
-0.052490462
-0.050885499
-0.049412291
-0.048039825
-0.046745274
-0.045513504
-0.044335748
-0.04320781
-0.042127885
-0.041093822
-0.04009955
-0.039130221
-0.038155484
-0.037120337
-0.035933597
-0.034453323
-0.032468089
-0.029681818
-0.025699137
-0.020027523
-0.012106612
-0.0013758787
0.012595904
0.029891094
0.049918518
0.071054624
0.090546899
0.10466944
0.10782365
0.094779555
-0.075727731
-0.082186952
-0.08228555
-0.079143136
-0.075056408
-0.070852391
-0.066930546
-0.06346472
-0.06047524
-0.05790995
-0.055694168
-0.053753939
-0.052025966
-0.050460757
-0.04902236
-0.047686493
-0.046438117
-0.045268752
-0.044173553
-0.043147944
-0.042183446
-0.041262204
-0.040349603
-0.039384321
-0.038265388
-0.036836276
-0.034865552
-0.032025358
-0.027876071
-0.021858723
-0.013315649
-0.00153998
0.014107002
0.033985944
0.057834258
0.0842865
0.11051586
0.13195568
0.14092863
0.12963731
-0.093664631
-0.10024159
-0.097729304
-0.091344408
-0.084425067
-0.077963625
-0.072324146
-0.067591689
-0.063685419
-0.060463552
-0.057781119
-0.055511559
-0.053553354
-0.051829783
-0.05028583
-0.048883825
-0.047599247
-0.046416634
-0.045325546
-0.044316289
-0.04337493
-0.042477067
-0.0415797
-0.040610506
-0.039453966
-0.037934357
-0.03579544
-0.032673904
-0.028088713
-0.02141849
-0.011913459
0.0012661647
0.018960451
0.041830718
0.070036457
0.10269647
0.1373072
0.16874798
0.18716681
0.18162968
-0.12099518
-0.1250966
-0.1167905
-0.10485612
-0.093660763
-0.084084727
-0.076259672
-0.070042064
-0.065153186
-0.061296854
-0.058217912
-0.055712319
-0.053625321
-0.051844181
-0.050289542
-0.048907273
-0.047661406
-0.04652801
-0.045489641
-0.044529869
-0.04362731
-0.042748516
-0.041839025
-0.040811862
-0.039532936
-0.037803457
-0.035338204
-0.031734041
-0.026466053
-0.018849323
-0.0080422318
0.0069327581
0.027130065
0.053546433
0.086850159
0.12691127
0.1721517
0.21758376
0.25147231
0.25955101
-0.16628254
-0.16017947
-0.13983443
-0.11883639
-0.10147669
-0.087865928
-0.077517169
-0.069794798
-0.06406143
-0.059777366
-0.056526987
-0.054003814
-0.051988498
-0.050327991
-0.048917888
-0.047688386
-0.046593346
-0.045601619
-0.044689725
-0.043835085
-0.043009018
-0.042168776
-0.041247833
-0.040143699
-0.038702737
-0.036702126
-0.033825449
-0.029636685
-0.023558492
-0.014842512
-0.0025512959
0.014446642
0.03745813
0.067898166
0.10712608
0.15613757
0.2148829
0.28013245
0.33923056
0.37624587
-0.24921159
-0.2088207
-0.16552094
-0.13103229
-0.10552238
-0.087296638
-0.074590246
-0.065817777
-0.059751888
-0.055518871
-0.052513832
-0.050323223
-0.048668571
-0.04736527
-0.046292684
-0.045373005
-0.044556253
-0.043809167
-0.043106371
-0.042422572
-0.041724813
-0.040963898
-0.040064193
-0.038911028
-0.037335089
-0.03509394
-0.031844383
-0.027134735
-0.020338127
-0.010653046
0.0029437639
0.021737465
0.047318042
0.08162743
0.12699504
0.18617453
0.26194141
0.35376492
0.45468888
0.56004215
-0.42828224
-0.26781792
-0.18024594
-0.12994434
-0.097478544
-0.076682209
-0.063767238
-0.055775258
-0.050786609
-0.04765422
-0.045672494
-0.044393598
-0.043534061
-0.042917054
-0.042433919
-0.042019079
-0.04163346
-0.041252838
-0.040858834
-0.040431098
-0.039939597
-0.039336092
-0.038544087
-0.037446556
-0.035871061
-0.033571933
-0.030187734
-0.025277626
-0.018201953
-0.0081428983
0.0059559707
0.025459253
0.052145865
0.088401824
0.13758313
0.20470921
0.29715702
0.42316528
0.59953946
0.87691043
-0.79511477
-0.32572669
-0.15116587
-0.092221612
-0.063061284
-0.047186907
-0.039465962
-0.036085773
-0.034825553
-0.034620138
-0.034933558
-0.035466588
-0.036050441
-0.036594615
-0.037054691
-0.037412824
-0.037665754
-0.037816593
-0.0378683
-0.037817683
-0.037649081
-0.037326993
-0.036787016
-0.035924413
-0.034579771
-0.032523412
-0.02945957
-0.024906694
-0.018291946
-0.008849418
0.0044202276
0.02281187
0.048031526
0.082437526
0.12961334
0.19588295
0.29419483
0.4521386
0.74704476
1.3403188
5.3649787e-08
-0.00011561607
-0.00029751748
-0.00048028253
-0.00062917485
-0.00071901225
-0.0007363516
-0.00067554747
-0.00053550852
-0.00031779308
-2.5445888e-05
0.0003377012
0.00076739817
0.0012591253
0.0018081057
0.0024092405
0.0030570111
0.0037453746
0.0044676693
0.0052165413
0.0059838996
0.0067608994
0.0075379606
0.008304823
0.0090506409
0.0097641238
0.010433725
0.011047887
0.011595357
0.012065579
0.012449181
0.012738587
0.012928774
0.013018246
0.013010268
0.012914609
0.012750277
0.01254872
0.012352204
0.012229234
0.000115569
-1.0481527e-06
-0.00013730739
-0.00026673925
-0.00036658433
-0.00041801256
-0.00040940525
-0.00033459614
-0.0001909816
2.1633034e-05
0.00030183637
0.00064716637
0.0010544472
0.0015199618
0.0020395155
0.0026084302
0.0032215017
0.0038729433
0.0045563311
0.0052645612
0.0059898284
0.0067236286
0.0074568023
0.0081795983
0.008881793
0.0095528497
0.010182129
0.010759159
0.011273964
0.011717475
0.012082002
0.012361809
0.012553774
0.012658158
0.012679449
0.012627337
0.012518169
0.012376055
0.012228888
0.012106191
0.00029884403
0.00013375214
-4.5416605e-06
-0.00011720209
-0.00019690146
-0.00023014074
-0.00020791653
-0.00012517271
2.0636934e-05
0.00023018961
0.00050276344
0.00083661555
0.0012292303
0.001677456
0.0021775632
0.002725253
0.0033156331
0.0039431823
0.0046017155
0.005284357
0.0059835316
0.0066909865
0.0073978266
0.0080946097
0.0087714657
0.009418269
0.010024862
0.010581333
0.011078362
0.011507615
0.011862209
0.01213723
0.012330296
0.012442141
0.012477121
0.012443686
0.01235539
0.012230785
0.012081827
0.011910391
0.00048798111
0.00026286318
0.00010201252
-1.3662142e-05
-8.9604804e-05
-0.00011668519
-8.8651074e-05
-2.2159617e-06
0.00014436095
0.00035157467
0.00061886624
0.00094483133
0.0013273621
0.0017637212
0.0022505674
0.0027839504
0.0033592852
0.0039713204
0.0046141082
0.0052809845
0.0059645658
0.0066567744
0.0073488804
0.0080316015
0.0086952271
0.0093297985
0.009925339
0.010472142
0.010961112
0.011384168
0.011734677
0.012007935
0.012201635
0.01231631
0.012355575
0.012326262
0.012239423
0.012109556
0.01193612
0.011703147
0.00064820443
0.00036296322
0.0001737471
4.7087871e-05
-3.2637272e-05
-5.9692082e-05
-3.0258079e-05
5.7168708e-05
0.00020334293
0.00040834293
0.00067154903
0.000991712
0.0013669973
0.0017949931
0.0022726941
0.0027964722
0.003362039
0.0039644068
0.0045978566
0.0052559159
0.0059313565
0.0066162159
0.0073018474
0.0079790125
0.0086380118
0.0092688687
0.0098615671
0.010406348
0.010894055
0.011316541
0.011667089
0.011940864
0.012135322
0.012250543
0.012289289
0.012256927
0.012162577
0.012018024
0.011813495
0.011519645
0.00075330061
0.00041326105
0.00019452926
5.2752894e-05
-3.5374231e-05
-6.6546458e-05
-3.8894523e-05
4.7515114e-05
0.00019246968
0.00039554954
0.00065595827
0.00097248621
0.0013434748
0.0017667636
0.0022396329
0.0027587443
0.0033200835
0.0039189093
0.0045497104
0.0052061767
0.0058811896
0.0065668393
0.0072544701
0.0079347685
0.0085978962
0.009233677
0.009831841
0.01038233
0.010875662
0.011303336
0.011658273
0.011935243
0.012131257
0.012245832
0.012280946
0.01224084
0.012133406
0.011968991
0.01173161
0.011382633
0.0007870295
0.00039877013
0.00015147329
-7.2610113e-06
-0.00010638797
-0.00014423647
-0.00012040677
-3.6254861e-05
0.00010715082
0.00030890172
0.00056798276
0.00088316325
0.0012528994
0.0016752307
0.0021476825
0.0026671763
0.0032299504
0.0038314886
0.0044664641
0.0051286963
0.0058111302
0.0065058425
0.007204078
0.0078963316
0.0085724781
0.0092219615
0.0098340484
0.010398148
0.010904193
0.011343076
0.011707104
0.011990444
0.012189518
0.012303259
0.012333
0.012282263
0.012158385
0.011971348
0.011701339
0.011303612
0.00073950391
0.00030879315
3.4645777e-05
-0.0001414704
-0.00025274057
-0.00029855015
-0.00027957048
-0.00019817567
-5.6145198e-05
0.00014518199
0.00040458026
0.00072078016
0.0010923252
0.0015174266
0.0019938308
0.0025187008
0.0030885111
0.0036989557
0.004344872
0.0050201811
0.0057178502
0.0064298821
0.0071473377
0.007860408
0.0085585389
0.0092306199
0.009865248
0.010451068
0.010977183
0.011433631
0.011811875
0.012105299
0.012309635
0.012423242
0.012446992
0.012384067
0.012241845
0.012030769
0.011728839
0.011287208
0.00060429111
0.00013523101
-0.00016420789
-0.00035754555
-0.00048131088
-0.00053555892
-0.00052173722
-0.00044301881
-0.00030176022
-9.9659683e-05
0.00016187828
0.00048155292
0.00085799093
0.001289568
0.0017742448
0.0023094196
0.002891799
0.0035172822
0.004180862
0.0048765435
0.0055972839
0.0063349621
0.0070803812
0.0078233241
0.0085526692
0.0092565782
0.0099227717
0.010538893
0.011092963
0.011573903
0.011972103
0.012279978
0.012492468
0.012607374
0.012625273
0.012549349
0.012387515
0.012151316
0.011817584
0.01133448
0.00037670535
-0.0001284741
-0.00045225581
-0.00066258658
-0.00079886683
-0.00086158402
-0.0008527679
-0.00077623883
-0.00063482875
-0.00043053308
-0.00016489939
0.00016076077
0.00054516931
0.00098687463
0.00148406
0.0020343697
0.0026347534
0.0032813249
0.0039692391
0.0046925834
0.0054442905
0.0062160798
0.0069984356
0.00778064
0.0085508729
0.0092963953
0.010003835
0.010659582
0.011250294
0.011763492
0.012188224
0.012515718
0.012739991
0.012858271
0.012870972
0.012781561
0.012598907
0.012336174
0.011969607
0.01144483
5.2716345e-05
-0.00048813364
-0.00083608592
-0.0010633857
-0.0012121454
-0.0012831614
-0.0012789391
-0.0012038622
-0.0010611775
-0.00085313424
-0.00058139234
-0.00024724999
0.00014813157
0.00060349572
0.0011172723
0.0016873781
0.0023110346
0.0029846009
0.0037034205
0.0044616828
0.0052523029
0.0060668286
0.0068953856
0.0077266783
0.0085480662
0.0093457366
0.010104998
0.01081071
0.011447848
0.012002199
0.01246114
0.012814434
0.01305498
0.013179362
0.013187908
0.013084593
0.012879615
0.012588214
0.012186342
0.011617111
-0.00037178351
-0.0009494374
-0.0013221886
-0.0015667718
-0.0017280852
-0.0018071951
-0.0018070494
-0.0017325719
-0.0015874047
-0.0013740321
-0.0010942056
-0.00074918672
-0.00033999207
0.00013234962
0.00066655364
0.0012608536
0.0019127927
0.0026190273
0.0033751421
0.0041754764
0.0050129646
0.0058790008
0.006763341
0.0076540594
0.0085375901
0.0093988781
0.010221675
0.010988999
0.011683778
0.012289656
0.012791924
0.013178506
0.013440893
0.013574873
0.013580687
0.013462997
0.013233671
0.012910487
0.012469226
0.011850232
-0.00090146278
-0.0015184219
-0.0019173614
-0.0021799354
-0.0023540779
-0.0024411496
-0.0024445679
-0.0023698291
-0.0022209894
-0.0020007735
-0.0017110176
-0.0013529266
-0.00092734128
-0.00043502018
0.00012309023
0.00074560319
0.0014304548
0.0021746771
0.0029741784
0.0038235298
0.0047157602
0.0056421686
0.0065921701
0.0075531922
0.008510666
0.0094481398
0.010347562
0.011189772
0.011955216
0.012624894
0.013181483
0.013610558
0.013901779
0.014049857
0.014054857
0.013922241
0.013665887
0.01330662
0.012820092
0.012143432
-0.0015418697
-0.0022018204
-0.0026290394
-0.0029107149
-0.0030982051
-0.0031932407
-0.0031997886
-0.0031239978
-0.0029703949
-0.0027419757
-0.0024406678
-0.0020676054
-0.0016234204
-0.0011085508
-0.0005235394
0.00013068691
0.00085255087
0.0016395664
0.0024880823
0.0033930248
0.0043476396
0.0053432404
0.0063689852
0.0074116912
0.0084557549
0.009483203
0.010473942
0.011406262
0.01225763
0.013005791
0.013630125
0.014113168
0.014442139
0.014610219
0.01461707
0.014468986
0.014182199
0.013781181
0.013241452
0.012496346
-0.0022996475
-0.0030073367
-0.0034655752
-0.003767855
-0.0039694646
-0.004072626
-0.0040819842
-0.0040044691
-0.0038451698
-0.0036074087
-0.0032932272
-0.0029036817
-0.0024391618
-0.0018997298
-0.0012854481
-0.00059668795
0.00016557576
0.00099947429
0.0019019511
0.002868458
0.0038926356
0.0049659882
0.0060775732
0.0072137094
0.0083577984
0.0094902776
0.010588802
0.01162873
0.012583989
0.013428327
0.01413696
0.014688462
0.015066737
0.015262733
0.01527528
0.015111417
0.014790069
0.014340062
0.013736765
0.012908984
-0.0031826941
-0.0039438747
-0.0044364904
-0.0047612502
-0.0049779907
-0.0050895934
-0.0051015621
-0.0050217837
-0.0048560406
-0.0046080637
-0.0042800475
-0.0038729723
-0.0033869551
-0.0028216241
-0.0021764779
-0.0014512233
-0.00064609775
0.00023781061
0.0011982328
0.0022313666
0.0033314923
0.0044905585
0.0056977743
0.0069391761
0.0081973185
0.0094510776
0.010675715
0.011843305
0.012923617
0.013885542
0.014699037
0.015337487
0.015780254
0.016014991
0.016038962
0.015859656
0.015498991
0.014990978
0.014310772
0.013381709
-0.0042003046
-0.0050217596
-0.0055527246
-0.0059021893
-0.0061352774
-0.0062557534
-0.0062702185
-0.006187749
-0.0060149931
-0.0057562022
-0.0054137827
-0.0049886521
-0.0044806304
-0.0038888553
-0.0032121758
-0.0024495181
-0.0016002333
-0.00066444259
0.00035660075
0.0014601139
0.0026413311
0.0038929909
0.0052048291
0.006562951
0.0079493672
0.0093415748
0.010712435
0.012030459
0.013260654
0.014366069
0.015310066
0.016059238
0.016586697