/*--------------------------------*- C++ -*----------------------------------*\
  =========                 |
  \\      /  F ield         | OpenFOAM: The Open Source CFD Toolbox
   \\    /   O peration     | Website:  https://openfoam.org
    \\  /    A nd           | Version:  7
     \\/     M anipulation  |
\*---------------------------------------------------------------------------*/
FoamFile
{
    version     2.0;
    format      ascii;
    class       surfaceScalarField;
    location    "1";
    object      phi;
}
// * * * * * * * * * * * * * * * * * * * * * * * * * * * * * * * * * * * * * //

dimensions      [0 3 -1 0 0 0 0];

internalField   nonuniform List<scalar> 
45600
(
1.1853684e-07
-1.1851663e-07
-2.1373004e-12
2.2728642e-08
9.5807683e-08
-1.138927e-13
-3.5492157e-07
3.7764883e-07
5.3772258e-13
-9.8769792e-07
6.3277366e-07
2.762167e-12
-1.816241e-06
8.2853846e-07
4.5355082e-12
-2.7794443e-06
9.63197e-07
5.6093401e-12
-3.8239389e-06
1.0444875e-06
6.2929081e-12
-4.9063631e-06
1.0824161e-06
6.7155452e-12
-5.9928004e-06
1.0864285e-06
6.9208989e-12
-7.057234e-06
1.0644258e-06
6.9542989e-12
-8.0797958e-06
1.022555e-06
6.8551389e-12
-9.045126e-06
9.6532428e-07
6.6536226e-12
-9.9409916e-06
8.9585997e-07
6.3686548e-12
-1.0757212e-05
8.1621508e-07
6.0144613e-12
-1.1484891e-05
7.2767217e-07
5.5919846e-12
-1.2115908e-05
6.3101111e-07
5.0995348e-12
-1.2642639e-05
5.267268e-07
4.5449768e-12
-1.3057842e-05
4.1519855e-07
3.9225312e-12
-1.3354662e-05
2.9681732e-07
3.2339853e-12
-1.352674e-05
1.720778e-07
2.4908925e-12
-1.3568392e-05
4.1650849e-08
1.6785681e-12
-1.3474834e-05
-9.3557425e-08
8.1359121e-13
-1.3242476e-05
-2.3235797e-07
-1.0373003e-13
-1.2869256e-05
-3.7321853e-07
-1.0458141e-12
-1.2355045e-05
-5.1421028e-07
-2.004097e-12
-1.1702105e-05
-6.5293888e-07
-2.9518043e-12
-1.0915633e-05
-7.8646877e-07
-3.8542448e-12
-1.0004391e-05
-9.1123904e-07
-4.6960754e-12
-8.9814112e-06
-1.0229756e-06
-5.4194221e-12
-7.8647903e-06
-1.1166148e-06
-5.9866659e-12
-6.6785362e-06
-1.1862482e-06
-6.3680776e-12
-5.4534142e-06
-1.2251144e-06
-6.4924932e-12
-4.2277353e-06
-1.2256699e-06
-6.3060377e-12
-3.0479434e-06
-1.1797835e-06
-5.7886608e-12
-1.9687596e-06
-1.079176e-06
-4.904483e-12
-1.0522452e-06
-9.1650744e-07
-3.5312855e-12
-3.6408205e-07
-6.8815915e-07
-1.4328047e-12
3.705508e-08
-4.0113655e-07
1.0894311e-12
1.3071343e-07
-9.3658917e-08
2.1725684e-12
1.3071118e-07
3.7186491e-12
-9.2794445e-08
-2.5718439e-08
-4.159683e-12
-6.9390675e-07
6.9692019e-07
-2.3525932e-12
-1.8959857e-06
1.5797297e-06
-5.257789e-12
-3.6383565e-06
2.3751499e-06
-7.3302737e-12
-5.8159451e-06
3.0061346e-06
-8.7033757e-12
-8.3090025e-06
3.4562628e-06
-9.8884235e-12
-1.1002705e-05
3.7381991e-06
-1.0640659e-11
-1.3796562e-05
3.8762832e-06
-1.093574e-11
-1.660707e-05
3.8969461e-06
-1.088347e-11
-1.9366883e-05
3.8242469e-06
-1.0561262e-11
-2.2022426e-05
3.6781064e-06
-1.002009e-11
-2.4531029e-05
3.4739348e-06
-9.3041508e-12
-2.6858166e-05
3.2230023e-06
-8.4531688e-12
-2.8975115e-05
2.9331686e-06
-7.4909949e-12
-3.0857164e-05
2.6097254e-06
-6.4375267e-12
-3.2482354e-05
2.2562038e-06
-5.317642e-12
-3.3830698e-05
1.8750738e-06
-4.1284624e-12
-3.4883806e-05
1.4683099e-06
-2.8768115e-12
-3.5624818e-05
1.0378318e-06
-1.5812783e-12
-3.6038577e-05
5.8583967e-07
-2.3446569e-13
-3.6111999e-05
1.1507254e-07
1.1362496e-12
-3.5834606e-05
-3.7095112e-07
2.5301781e-12
-3.5199179e-05
-8.6778937e-07
3.9332904e-12
-3.4202585e-05
-1.369818e-06
5.3418225e-12
-3.2846739e-05
-1.8700631e-06
6.7352955e-12
-3.1139729e-05
-2.3599563e-06
8.0923759e-12
-2.9097127e-05
-2.8290781e-06
9.3978761e-12
-2.6743477e-05
-3.2648972e-06
1.0609397e-11
-2.4113941e-05
-3.6525203e-06
1.1698862e-11
-2.1256053e-05
-3.9745119e-06
1.2627154e-11
-1.8231451e-05
-4.2108601e-06
1.3332402e-11
-1.5117384e-05
-4.3391923e-06
1.3762289e-11
-1.2007659e-05
-4.3354061e-06
1.3856638e-11
-9.0124899e-06
-4.1749627e-06
1.3523076e-11
-6.2563649e-06
-3.8353102e-06
1.2665338e-11
-3.8723112e-06
-3.3005697e-06
1.133877e-11
-1.9897112e-06
-2.5707668e-06
9.803272e-12
-7.1265182e-07
-1.6782011e-06
7.5816818e-12
-8.8317743e-08
-7.1799496e-07
4.5324791e-12
4.2388867e-08
5.8381061e-12
-3.7701451e-07
3.5130023e-07
-5.0020989e-12
-1.5901641e-06
1.9100685e-06
5.9638602e-13
-3.6215366e-06
3.6111028e-06
-2.354117e-12
-6.376387e-06
5.130001e-06
-2.6130887e-12
-9.7144318e-06
6.3441798e-06
-1.9136432e-12
-1.3479781e-05
7.2216113e-06
-1.7716151e-12
-1.7520292e-05
7.7787098e-06
-1.7347545e-12
-2.1698826e-05
8.0548163e-06
-1.6243492e-12
-2.589792e-05
8.0960408e-06
-1.4851063e-12
-3.0020162e-05
7.9464905e-06
-1.3247911e-12
-3.3986161e-05
7.6441057e-06
-1.1351805e-12
-3.7731449e-05
7.219224e-06
-9.1479676e-13
-4.1203211e-05
6.6947643e-06
-6.7384939e-13
-4.4357323e-05
6.08728e-06
-4.1858437e-13
-4.7155973e-05
5.4083744e-06
-1.503045e-13
-4.9565923e-05
4.6661535e-06
1.164967e-13
-5.1557388e-05
3.8665391e-06
3.8312335e-13
-5.310344e-05
3.0143631e-06
6.5576374e-13
-5.417985e-05
2.114242e-06
9.1333203e-13
-5.4765272e-05
1.1712628e-06
1.1626041e-12
-5.4841727e-05
1.9152694e-07
1.3955222e-12
-5.4395284e-05
-8.173954e-07
1.6112461e-12
-5.3417027e-05
-1.8460489e-06
1.810113e-12
-5.1904167e-05
-2.8826802e-06
1.9986374e-12
-4.9861421e-05
-3.9128132e-06
2.1654175e-12
-4.7302598e-05
-4.9187832e-06
2.3238117e-12
-4.4252433e-05
-5.8792454e-06
2.4735906e-12
-4.0748644e-05
-6.7686901e-06
2.6083928e-12
-3.6844135e-05
-7.5570317e-06
2.7428189e-12
-3.2609257e-05
-8.2093904e-06
2.8759119e-12
-2.8133885e-05
-8.6862329e-06
3.0035068e-12
-2.352896e-05
-8.9441175e-06
3.13763e-12
-1.8926982e-05
-8.9373837e-06
3.2848071e-12
-1.4480676e-05
-8.6212697e-06
3.4260853e-12
-1.0358742e-05
-7.9572453e-06
3.5210454e-12
-6.7372016e-06
-6.9221106e-06
3.7516327e-12
-3.7845843e-06
-5.523386e-06
4.557629e-12
-1.6399334e-06
-3.8228537e-06
4.3979731e-12
-3.8210045e-07
-1.9758274e-06
1.5106001e-12
-3.3971736e-07
7.0293409e-12
-6.4586026e-07
9.9716579e-07
-7.3867659e-12
-2.4408165e-06
3.70502e-06
2.8030312e-12
-5.2534119e-06
6.4236989e-06
-2.1568337e-12
-8.9267511e-06
8.8033409e-06
-2.4533832e-12
-1.3281413e-05
1.0698842e-05
-1.0970885e-12
-1.8131215e-05
1.2071412e-05
-6.7540202e-13
-2.3297334e-05
1.2944827e-05
-5.0607275e-13
-2.8617758e-05
1.3375237e-05
-3.0140989e-13
-3.3951875e-05
1.3430156e-05
-1.18293e-13
-3.9181224e-05
1.3175838e-05
3.9746031e-14
-4.4207731e-05
1.267061e-05
1.9014736e-13
-4.8950658e-05
1.196215e-05
3.4641326e-13
-5.3343181e-05
1.1087286e-05
5.0343796e-13
-5.7329172e-05
1.0073269e-05
6.5516616e-13
-6.0860527e-05
8.9397278e-06
8.0443096e-13
-6.3895162e-05
7.7007878e-06
9.4712923e-13
-6.6395675e-05
6.3670517e-06
1.0745653e-12
-6.8328604e-05
4.9472926e-06
1.1960566e-12
-6.9664193e-05
3.4498311e-06
1.2991942e-12
-7.0376572e-05
1.8836418e-06
1.3765081e-12
-7.0444294e-05
2.5924947e-07
1.4366461e-12
-6.9851145e-05
-1.4105445e-06
1.476361e-12
-6.8587289e-05
-3.1099061e-06
1.4877376e-12
-6.6650619e-05
-4.8193493e-06
1.4882197e-12
-6.4048429e-05
-6.5150047e-06
1.4624991e-12
-6.0799332e-05
-8.167881e-06
1.4312908e-12
-5.693547e-05
-9.7431086e-06
1.3970687e-12
-5.2504927e-05
-1.1199233e-05
1.3620092e-12
-4.7574281e-05
-1.2487678e-05
1.349305e-12
-4.2231094e-05
-1.3552578e-05
1.3661529e-12
-3.6586062e-05
-1.4331266e-05
1.419167e-12
-3.0774378e-05
-1.4755802e-05
1.5287669e-12
-2.4955719e-05
-1.4756043e-05
1.7166964e-12
-1.931207e-05
-1.426492e-05
1.9721586e-12
-1.4042467e-05
-1.3226848e-05
2.232147e-12
-9.3537752e-06
-1.1610802e-05
2.7800519e-12
-5.4470624e-06
-9.4300998e-06
4.2943937e-12
-2.5003959e-06
-6.7695226e-06
4.149528e-12
-6.5189184e-07
-3.824329e-06
-7.083776e-13
-9.9161757e-07
9.3309187e-12
-8.7164083e-07
1.868814e-06
-9.4384797e-12
-3.1835485e-06
6.0169206e-06
4.4237027e-12
-6.6977923e-06
9.9379436e-06
-2.9098779e-12
-1.1189862e-05
1.3295412e-05
-3.9020085e-12
-1.6436778e-05
1.5945759e-05
-2.5068598e-12
-2.2222366e-05
1.7857001e-05
-2.2361463e-12
-2.8345017e-05
1.9067479e-05
-2.2025658e-12
-3.4623745e-05
1.9653966e-05
-2.0387173e-12
-4.090129e-05
1.9707701e-05
-1.8418863e-12
-4.7044324e-05
1.9318873e-05
-1.6351333e-12
-5.2941528e-05
1.8567815e-05
-1.4080914e-12
-5.8500462e-05
1.7521085e-05
-1.1568917e-12
-6.3644045e-05
1.6230869e-05
-8.8521778e-13
-6.830721e-05
1.4736435e-05
-6.0348627e-13
-7.2434084e-05
1.3066602e-05
-3.1496763e-13
-7.5975833e-05
1.1242538e-05
-1.5776325e-14
-7.8889197e-05
9.280417e-06
2.8159184e-13
-8.1135656e-05
7.1937514e-06
5.7246052e-13
-8.2681136e-05
4.995312e-06
8.6259526e-13
-8.349619e-05
2.6986954e-06
1.1363965e-12
-8.3556564e-05
3.1962227e-07
1.3945534e-12
-8.2844119e-05
-2.1229903e-06
1.6402765e-12
-8.1348091e-05
-4.6059355e-06
1.8653836e-12
-7.906666e-05
-7.1007827e-06
2.0747255e-12
-7.6008846e-05
-9.5728217e-06
2.2553448e-12
-7.2196713e-05
-1.1980015e-05
2.4321315e-12
-6.7667867e-05
-1.4271957e-05
2.5959482e-12
-6.2478154e-05
-1.6388949e-05
2.7444312e-12
-5.6704446e-05
-1.8261387e-05
2.8971975e-12
-5.0447281e-05
-1.9809743e-05
3.0566293e-12
-4.3833023e-05
-2.0945527e-05
3.2208769e-12
-3.7015066e-05
-2.1573761e-05
3.3970008e-12
-3.0173529e-05
-2.1597583e-05
3.6026309e-12
-2.3512743e-05
-2.0925708e-05
3.813125e-12
-1.7255941e-05
-1.9483651e-05
3.9214586e-12
-1.1636853e-05
-1.7229892e-05
4.2855311e-12
-6.8887403e-06
-1.4178216e-05
5.803308e-12
-3.232804e-06
-1.0425463e-05
4.9559562e-12
-8.7100773e-07
-6.1861219e-06
-2.2672172e-12
-1.8626361e-06
1.1259919e-11
-1.054661e-06
2.9234847e-06
-1.0957151e-11
-3.8097882e-06
8.7720392e-06
5.9916639e-12
-7.9389e-06
1.4067057e-05
-3.1176567e-12
-1.3153118e-05
1.8509633e-05
-4.4696959e-12
-1.9185016e-05
2.1977656e-05
-2.8583133e-12
-2.5787795e-05
2.4459781e-05
-2.5822752e-12
-3.2738019e-05
2.6017704e-05
-2.5780893e-12
-3.9838227e-05
2.6754174e-05
-2.4052861e-12
-4.6917969e-05
2.6787444e-05
-2.1873984e-12
-5.3832873e-05
2.6233778e-05
-1.9590867e-12
-6.0462115e-05
2.5197057e-05
-1.7074898e-12
-6.6704959e-05
2.376393e-05
-1.4342094e-12
-7.2477036e-05
2.2002947e-05
-1.1388951e-12
-7.7706847e-05
1.9966248e-05
-8.2567205e-13
-8.2332826e-05
1.7692583e-05
-5.047696e-13
-8.6301076e-05
1.5210788e-05
-1.7616931e-13
-8.956381e-05
1.2543153e-05
1.6217198e-13
-9.2078458e-05
9.7083992e-06
4.9030996e-13
-9.3807327e-05
6.724181e-06
8.0997756e-13
-9.4717778e-05
3.6091469e-06
1.1241849e-12
-9.4782829e-05
3.8467374e-07
1.4265603e-12
-9.398216e-05
-2.9236601e-06
1.7024413e-12
-9.2303504e-05
-6.2845939e-06
1.9598802e-12
-8.9744399e-05
-9.6598883e-06
2.2066248e-12
-8.6314331e-05
-1.3002894e-05
2.4243776e-12
-8.2037198e-05
-1.6257151e-05
2.6292397e-12
-7.6954114e-05
-1.9355043e-05
2.8176631e-12
-7.1126395e-05
-2.2216668e-05
3.0005157e-12
-6.4638598e-05
-2.4749185e-05
3.1877941e-12
-5.760134e-05
-2.6847004e-05
3.3690938e-12
-5.015353e-05
-2.839334e-05
3.5494746e-12
-4.2463569e-05
-2.9263724e-05
3.7470399e-12
-3.4728982e-05
-2.9332172e-05
3.9772209e-12
-2.7173956e-05
-2.8480738e-05
4.1973027e-12
-2.0044452e-05
-2.6613158e-05
4.2742304e-12
-1.3601008e-05
-2.3673339e-05
4.6358387e-12
-8.1102265e-06
-1.9669004e-05
6.3613787e-12
-3.8370992e-06
-1.4698595e-05
5.1830604e-12
-1.0426733e-06
-8.9805435e-06
-3.7318333e-12
-2.9053216e-06
1.2674976e-11
-1.2031685e-06
4.1266641e-06
-1.2232819e-11
-4.3353921e-06
1.1904253e-05
7.2853332e-12
-9.0006469e-06
1.8732314e-05
-3.224453e-12
-1.4852868e-05
2.4361858e-05
-4.8165973e-12
-2.1581911e-05
2.8706701e-05
-2.9819645e-12
-2.891029e-05
3.178816e-05
-2.670701e-12
-3.6592766e-05
3.3700181e-05
-2.6708466e-12
-4.4416215e-05
3.4577625e-05
-2.480506e-12
-5.2198602e-05
3.4569833e-05
-2.2432234e-12
-5.9786646e-05
3.3821823e-05
-1.9998811e-12
-6.7052377e-05
3.246279e-05
-1.7370823e-12
-7.3889111e-05
3.0600666e-05
-1.4532004e-12
-8.0207358e-05
2.8321196e-05
-1.1513104e-12
-8.5931092e-05
2.5689984e-05
-8.2944417e-13
-9.0994643e-05
2.2756137e-05
-4.9079628e-13
-9.5340317e-05
1.9556463e-05
-1.5391048e-13
-9.8916743e-05
1.611958e-05
1.8805632e-13
-0.00010167791
1.2469566e-05
5.3160725e-13
-0.00010358279
8.629062e-06
8.607802e-13
-0.00010459551
4.6218685e-06
1.1730641e-12
-0.00010468599
4.7515562e-07
1.4821927e-12
-0.00010383103
-3.7786221e-06
1.7676171e-12
-0.00010201584
-8.099785e-06
2.026948e-12
-9.9236023e-05
-1.2439713e-05
2.263353e-12
-9.5499944e-05
-1.6738975e-05
2.4804084e-12
-9.0831571e-05
-2.0925524e-05
2.6881889e-12
-8.5273613e-05
-2.4913003e-05
2.8711659e-12
-7.8890881e-05
-2.8599402e-05
3.0454691e-12
-7.1773688e-05
-3.1866379e-05
3.2275323e-12
-6.4040957e-05
-3.4579737e-05
3.4085482e-12
-5.5842672e-05
-3.6591627e-05
3.5935633e-12
-4.7361215e-05
-3.7745184e-05
3.7987488e-12
-3.8811106e-05
-3.7882286e-05
4.0380088e-12
-3.0436742e-05
-3.6855105e-05
4.2700985e-12
-2.250797e-05
-3.4541933e-05
4.3524782e-12
-1.5313793e-05
-3.0867521e-05
4.7512884e-12
-9.1552813e-06
-2.5827524e-05
6.6932311e-12
-4.3396114e-06
-1.951427e-05
5.3102328e-12
-1.1785787e-06
-1.2141571e-05
-4.8833517e-12
-4.0839136e-06
1.3883707e-11
-1.3270604e-06
5.4537369e-06
-1.3387236e-11
-4.7854999e-06
1.5362681e-05
8.2872176e-12
-9.9249391e-06
2.3871755e-05
-3.4059033e-12
-1.6349818e-05
3.0786741e-05
-5.2224053e-12
-2.3710208e-05
3.6067092e-05
-3.223785e-12
-3.1698539e-05
3.9776494e-05
-2.9004572e-12
-4.0047694e-05
4.2049338e-05
-2.914137e-12
-4.8528993e-05
4.3058926e-05
-2.7137615e-12
-5.6949411e-05
4.2990252e-05
-2.4602643e-12
-6.5147813e-05
4.2020227e-05
-2.200416e-12
-7.2990464e-05
4.0305443e-05
-1.9230809e-12
-8.036624e-05
3.7976444e-05
-1.6181249e-12
-8.7182025e-05
3.5136984e-05
-1.2903334e-12
-9.3358632e-05
3.1866593e-05
-9.4628491e-13
-9.8827444e-05
2.822495e-05
-5.8018803e-13
-0.00010352787
2.4256886e-05
-2.0922433e-13
-0.00010740555
1.9997266e-05
1.561107e-13
-0.00011041134
1.547536e-05
5.2321173e-13
-0.00011250086
1.0718576e-05
8.8811982e-13
-0.00011363461
5.7556247e-06
1.2322421e-12
-0.00011377872
6.1926669e-07
1.5617827e-12
-0.00011290607
-4.6512793e-06
1.8664876e-12
-0.00011099799
-1.0007862e-05
2.156128e-12
-0.00010804653
-1.5391179e-05
2.4147613e-12
-0.00010405713
-2.0728379e-05
2.6475097e-12
-9.9051894e-05
-2.5930762e-05
2.8656539e-12
-9.3073208e-05
-3.0891691e-05
3.06405e-12
-8.618763e-05
-3.5484981e-05
3.2570166e-12
-7.84898e-05
-3.9564212e-05
3.4469198e-12
-7.0106014e-05
-4.2963527e-05
3.6286933e-12
-6.1197058e-05
-4.5500587e-05
3.8221185e-12
-5.1959812e-05
-4.6982433e-05
4.0410954e-12
-4.2627166e-05
-4.7214935e-05
4.2856968e-12
-3.3465895e-05
-4.6016381e-05
4.5148689e-12
-2.4772398e-05
-4.3235436e-05
4.5852897e-12
-1.6866652e-05
-3.8773273e-05
5.0064606e-12
-1.0085319e-05
-3.2608864e-05
7.1182427e-12
-4.7755487e-06
-2.4824046e-05
5.5431802e-12
-1.2917638e-06
-1.5625349e-05
-5.716004e-12
-5.3756922e-06
1.5029197e-11
-1.4356007e-06
6.8893517e-06
-1.4468142e-11
-5.1866544e-06
1.9113724e-05
9.1051202e-12
-1.0758658e-05
2.944376e-05
-3.6167237e-12
-1.7712767e-05
3.7740855e-05
-5.6313009e-12
-2.5662132e-05
4.4016461e-05
-3.4918298e-12
-3.4269943e-05
4.8384307e-05
-3.161581e-12
-4.3247168e-05
5.1026567e-05
-3.1886865e-12
-5.2349418e-05
5.2161179e-05
-2.9806288e-12
-6.137277e-05
5.2013607e-05
-2.7129272e-12
-7.0148688e-05
5.0796148e-05
-2.437678e-12
-7.8538415e-05
4.8695173e-05
-2.1410694e-12
-8.642733e-05
4.5865362e-05
-1.8133293e-12
-9.3719698e-05
4.2429354e-05
-1.4535393e-12
-0.00010033412
3.8481021e-05
-1.0776719e-12
-0.00010619987
3.4090698e-05
-6.8603173e-13
-0.00011125407
2.9311082e-05
-2.8056211e-13
-0.00011543975
2.4182954e-05
1.2537079e-13
-0.00011870471
1.8740315e-05
5.2513472e-13
-0.00012100093
1.3014796e-05
9.2101221e-13
-0.00012228474
7.039437e-06
1.304401e-12
-0.0001225175
8.5202024e-07
1.672563e-12
-0.00012166684
-5.5019358e-06
2.0041217e-12
-0.00011970863
-1.1966078e-05
2.317309e-12
-0.00011662942
-1.847039e-05
2.5990584e-12
-0.00011242966
-2.4928139e-05
2.8612996e-12
-0.00010712745
-3.1232974e-05
3.1016635e-12
-0.00010076282
-3.7256318e-05
3.3166535e-12
-9.3402376e-05
-4.2845432e-05
3.5231719e-12
-8.514389e-05
-4.7822701e-05
3.7196757e-12
-7.6120613e-05
-5.1986807e-05
3.9072409e-12
-6.6504649e-05
-5.5116555e-05
4.110135e-12
-5.6508944e-05
-5.6978143e-05
4.3369664e-12
-4.6387355e-05
-5.7336529e-05
4.5849551e-12
-3.6432451e-05
-5.5971291e-05
4.8157037e-12
-2.6970956e-05
-5.2696936e-05
4.8698369e-12
-1.8357143e-05
-4.7387091e-05
5.3138563e-12
-1.0964971e-05
-4.0001044e-05
7.583004e-12
-5.1801875e-06
-3.0608835e-05
5.8386495e-12
-1.3939916e-06
-1.9411538e-05
-6.3705696e-12
-6.7697e-06
1.6155367e-11
-1.5367433e-06
8.4261094e-06
-1.5523888e-11
-5.5634102e-06
2.3140381e-05
9.8173897e-12
-1.1546993e-05
3.5427345e-05
-3.8477262e-12
-1.9009279e-05
4.5203147e-05
-6.0374517e-12
-2.7528465e-05
5.253565e-05
-3.7611616e-12
-3.6739086e-05
5.7594932e-05
-3.4208878e-12
-4.6330086e-05
6.0617571e-05
-3.460561e-12
-5.6041085e-05
6.1872181e-05
-3.2480282e-12
-6.5657126e-05
6.1629651e-05
-2.968145e-12
-7.5002404e-05
6.014143e-05
-2.6735459e-12
-8.3933552e-05
5.7626325e-05
-2.3506161e-12
-9.2333056e-05
5.4264868e-05
-2.0000369e-12
-0.00010010327
5.0199567e-05
-1.6116059e-12
-0.0001071613
4.5539052e-05
-1.1968227e-12
-0.0001134349
4.036431e-05
-7.7125558e-13
-0.0001188594
3.4735583e-05
-3.3901453e-13
-0.00012337546
2.8699015e-05
1.0307233e-13
-0.00012692774
2.2292594e-05
5.5000505e-13
-0.00012946424
1.5551299e-05
9.8756938e-13
-0.00013093636
8.5115505e-06
1.4023424e-12
-0.00013129955
1.2152067e-06
1.7985263e-12
-0.00013051471
-6.2867719e-06
2.1648561e-12
-0.00012855032
-1.3930478e-05
2.5139818e-12
-0.00012538525
-2.1635459e-05
2.8243082e-12
-0.00012101253
-2.9300856e-05
3.1107178e-12
-0.00011544379
-3.6801713e-05
3.3690557e-12
-0.00010871441
-4.3985704e-05
3.6006855e-12
-0.00010088909
-5.0670753e-05
3.8207502e-12
-9.2067551e-05
-5.6644246e-05
4.0253154e-12
-8.2389727e-05
-6.1664636e-05
4.2180695e-12
-7.2039979e-05
-6.5466308e-05
4.4193478e-12
-6.1249564e-05
-6.7768563e-05
4.6407688e-12
-5.0296814e-05
-6.8289285e-05
4.8958199e-12
-3.950457e-05
-6.676354e-05
5.1373107e-12
-2.9234766e-05
-6.2966745e-05
5.1727874e-12
-1.988043e-05
-5.6741433e-05
5.641248e-12
-1.1855795e-05
-4.8025687e-05
8.0782766e-12
-5.5856471e-06
-3.687899e-05
6.1906607e-12
-1.4951467e-06
-2.3502032e-05
-6.9377538e-12
-8.2648639e-06
1.7338577e-11
-1.637058e-06
1.0063183e-05
-1.6596504e-11
-5.9371208e-06
2.7440435e-05
1.048336e-11
-1.2330447e-05
4.1820674e-05
-4.1052337e-12
-2.0300946e-05
5.3173653e-05
-6.4608023e-12
-2.9392511e-05
6.1627219e-05
-4.0469717e-12
-3.9210999e-05
6.7413422e-05
-3.69988e-12
-4.9422958e-05
7.0829534e-05
-3.7526359e-12
-5.9751601e-05
7.220083e-05
-3.5292894e-12
-6.9970695e-05
7.184875e-05
-3.237305e-12
-7.9897178e-05
7.0067917e-05
-2.9275875e-12
-8.9383334e-05
6.7112485e-05
-2.574193e-12
-9.8309226e-05
6.3190763e-05
-2.1861906e-12
-0.00010657588
5.8466221e-05
-1.7682803e-12
-0.00011409952
5.3062695e-05
-1.3245509e-12
-0.00012080697
4.7071765e-05
-8.5935224e-13
-0.00012663215
4.0560764e-05
-3.8216234e-13
-0.00013151356
3.3580427e-05
1.0149158e-13
-0.00013539268
2.6171713e-05
5.8867175e-13
-0.00013821312
1.837174e-05
1.0671476e-12
-0.00013992054
1.0218965e-05
1.5236793e-12
-0.00014046327
1.7579348e-06
1.9573619e-12
-0.00013979378
-6.9562629e-06
2.3637521e-12
-0.000137871
-1.5853263e-05
2.7487542e-12
-0.0001346636
-2.484286e-05
3.0928467e-12
-0.00013015434
-3.381011e-05
3.4083058e-12
-0.00012434543
-4.2610628e-05
3.6892483e-12
-0.00011726474
-5.1066401e-05
3.9365994e-12
-0.0001089727
-5.8962795e-05
4.1630626e-12
-9.9569351e-05
-6.6047598e-05
4.3735199e-12
-8.9200889e-05
-7.2033103e-05
4.5743871e-12
-7.8064944e-05
-7.6602259e-05
4.7710198e-12
-6.6413742e-05
-7.9419771e-05
4.9795292e-12
-5.4554345e-05
-8.0148687e-05
5.2405865e-12
-4.2845424e-05
-7.8472467e-05
5.4918424e-12
-3.1690373e-05
-7.4121801e-05
5.5129739e-12
-2.152705e-05
-6.6904763e-05
6.0021739e-12
-1.2814875e-05
-5.6737872e-05
8.6282549e-12
-6.0205152e-06
-4.3673357e-05
6.6118717e-12
-1.6034442e-06
-2.7919095e-05
-7.4717517e-12
-9.8683265e-06
1.8662317e-11
-1.7418675e-06
1.1805067e-05
-1.7725199e-11
-6.3257586e-06
3.2024317e-05
1.1153214e-11
-1.314391e-05
4.863883e-05
-4.3900518e-12
-2.1641568e-05
6.1671318e-05
-6.9194206e-12
-3.1327525e-05
7.131318e-05
-4.3600281e-12
-4.1778116e-05
7.7864016e-05
-4.0005657e-12
-5.2636714e-05
8.1688136e-05
-4.071493e-12
-6.360954e-05
8.3173661e-05
-3.842144e-12
-7.4458769e-05
8.2697984e-05
-3.5279609e-12
-8.4994072e-05
8.0603226e-05
-3.1933285e-12
-9.506366e-05
7.7182076e-05
-2.8143177e-12
-0.00010454565
7.2672754e-05
-2.3906041e-12
-0.00011334035
6.7260925e-05
-1.9339361e-12
-0.00012136378
6.1086123e-05
-1.4532121e-12
-0.00012854243
5.4250425e-05
-9.4723356e-13
-0.00013480935
4.6827682e-05
-4.2118086e-13
-0.00014010117
3.8872254e-05
1.1348354e-13
-0.00014435624
3.0426777e-05
6.4762462e-13
-0.00014751343
2.1528934e-05
1.1694129e-12
-0.00014951192
1.2217449e-05
1.6718102e-12
-0.00015029165
2.5376638e-06
2.1510579e-12
-0.00014979484
-7.4530743e-06
2.6067379e-12
-0.00014796849
-1.7679616e-05
3.0332677e-12
-0.00014476813
-2.8043222e-05
3.4171858e-12
-0.00014016288
-3.8415362e-05
3.7625979e-12
-0.00013414186
-4.863165e-05
4.0674017e-12
-0.00012672183
-5.8486435e-05
4.3345648e-12
-0.00011795573
-6.77289e-05
4.569391e-12
-0.00010794155
-7.6061781e-05
4.7812961e-12
-9.6830709e-05
-8.3143953e-05
4.9818007e-12
-8.4834845e-05
-8.8598128e-05
5.1699229e-12
-7.2229972e-05
-9.202465e-05
5.368466e-12
-5.9356822e-05
-9.3021844e-05
5.6338014e-12
-4.6616676e-05
-9.1212618e-05
5.890775e-12
-3.4462386e-05
-8.6276097e-05
5.9122365e-12
-2.3384915e-05
-7.7982242e-05
6.4239747e-12
-1.389634e-05
-6.6226457e-05
9.2579394e-12
-6.5109327e-06
-5.1058771e-05
7.0982949e-12
-1.7259554e-06
-3.2704064e-05
-8.0447171e-12
-1.1594302e-05
2.0159813e-11
-1.8554711e-06
1.3660556e-05
-1.8940044e-11
-6.7442775e-06
3.6913113e-05
1.1868438e-11
-1.4016926e-05
5.5911483e-05
-4.7028105e-12
-2.307719e-05
7.0731589e-05
-7.4161483e-12
-3.3396515e-05
8.1632509e-05
-4.7047828e-12
-4.4519955e-05
8.898746e-05
-4.3327064e-12
-5.6066428e-05
9.3234614e-05
-4.4161547e-12
-6.7724352e-05
9.4831591e-05
-4.1797429e-12
-7.924395e-05
9.4217589e-05
-3.8443133e-12
-9.0427675e-05
9.1786955e-05
-3.4796897e-12
-0.00010112003
8.7874432e-05
-3.0687485e-12
-0.00011119779
8.2750524e-05
-2.6097533e-12
-0.00012056134
7.6624479e-05
-2.111598e-12
-0.00012912731
6.965209e-05
-1.5828757e-12
-0.00013682269
6.1945815e-05
-1.0259729e-12
-0.00014358036
5.3585348e-05
-4.4795018e-13
-0.00014933562
4.4627521e-05
1.3871782e-13
-0.00015402392
3.5115071e-05
7.2415949e-13
-0.00015757929
2.5084301e-05
1.2984824e-12
-0.00015993378
1.457194e-05
1.8576856e-12
-0.00016101777
3.6216488e-06
2.3928616e-12
-0.00016076133
-7.7095087e-06
2.9029575e-12
-0.00015909694
-1.934401e-05
3.3742353e-12
-0.00015596361
-3.1176555e-05
3.8027665e-12
-0.00015131279
-4.3066192e-05
4.1814091e-12
-0.00014511597
-5.4828467e-05
4.5125292e-12
-0.00013737409
-6.6228324e-05
4.8065411e-12
-0.00012812811
-7.6974879e-05
5.057071e-12
-0.00011747038
-8.671952e-05
5.2650366e-12
-0.0001055554
-9.5058939e-05
5.4517403e-12
-9.2608858e-05
-0.00010154468
5.6291827e-12
-7.8933214e-05
-0.0001057003
5.8216818e-12
-6.49084e-05
-0.00010704666
6.0777782e-12
-5.0986518e-05
-0.00010513451
6.3289782e-12
-3.7680104e-05
-9.9582519e-05
6.3513866e-12
-2.5544382e-05
-9.0117973e-05
6.9061877e-12
-1.5154868e-05
-7.6615981e-05
9.9863051e-12
-7.0825872e-06
-5.9131059e-05
7.6545847e-12
-1.8693059e-06
-3.7917337e-05
-8.721749e-12
-1.3463631e-05
2.18739e-11
-1.9814121e-06
1.5641988e-05
-2.0270576e-11
-7.2052723e-06
4.2136963e-05
1.2665765e-11
-1.4974681e-05
6.3680896e-05
-5.0458123e-12
-2.464731e-05
8.0404227e-05
-7.9612604e-12
-3.5653613e-05
9.2638815e-05
-5.080904e-12
-4.7504652e-05
0.0001008385
-4.6971184e-12
-5.9793056e-05
0.00010552302
-4.7935311e-12
-7.2188387e-05
0.00010722693
-4.5423347e-12
-8.4428526e-05
0.00010645774
-4.1832833e-12
-9.6308847e-05
0.00010366728
-3.7899814e-12
-0.0001076707
9.9236286e-05
-3.3406233e-12
-0.00011839038
9.347021e-05
-2.83895e-12
-0.00012836935
8.6603451e-05
-2.2938735e-12
-0.00013752597
7.8808714e-05
-1.7117818e-12
-0.00014578888
7.0208728e-05
-1.0973369e-12
-0.00015309181
6.0888275e-05
-4.6091119e-13
-0.00015936961
5.0905331e-05
1.8303202e-13
-0.00016455543
4.0300882e-05
8.2561307e-13
-0.00016857863
2.9107505e-05
1.4613597e-12
-0.00017136384
1.7357146e-05
2.0871858e-12
-0.00017283082
5.0886321e-06
2.6879345e-12
-0.00017289571
-7.6446219e-06
3.2564834e-12
-0.00017147365
-2.076608e-05
3.778893e-12
-0.00016848335
-3.4166858e-05
4.2615352e-12
-0.00016385378
-4.7695761e-05
4.6869558e-12
-0.0001575332
-6.1149049e-05
5.0502164e-12
-0.00014950051
-7.4261022e-05
5.3675853e-12
-0.00013977854
-8.669685e-05
5.631432e-12
-0.00012844851
-9.8049557e-05
5.8333757e-12
-0.00011566417
-0.00010784329
6.0038726e-12
-0.00010166392
-0.00011554493
6.1720846e-12
-8.6778736e-05
-0.00012058549
6.3585571e-12
-7.1433686e-05
-0.00012239172
6.5921796e-12
-5.6141504e-05
-0.00012042669
6.815647e-12
-4.1487419e-05
-0.00011423661
6.806711e-12
-2.8105829e-05
-0.00010349957
7.4272879e-12
-1.6650755e-05
-8.8071067e-05
1.0818391e-11
-7.7634149e-06
-6.8018408e-05
8.2979195e-12
-2.0405179e-06
-4.3640226e-05
-9.5464821e-12
-1.5504173e-05
2.3907091e-11
-2.1227578e-06
1.7764767e-05
-2.1747498e-11
-7.7197899e-06
4.7733984e-05
1.3569776e-11
-1.6039376e-05
7.2000486e-05
-5.4214027e-12
-2.6386765e-05
9.0751624e-05
-8.5646326e-12
-3.8146386e-05
0.00010439844
-5.4936235e-12
-5.0791638e-05
0.00011348376
-5.0938316e-12
-6.3886452e-05
0.00011861785
-5.2058818e-12
-7.708023e-05
0.00012042071
-4.9381577e-12
-9.0098114e-05
0.00011947563
-4.5476736e-12
-0.0001027287
0.00011629787
-4.1208859e-12
-0.00011481098
0.00011131857
-3.6304354e-12
-0.00012622194
0.00010488117
-3.0792222e-12
-0.00013686549
9.7247005e-05
-2.4784558e-12
-0.00014666324
8.8606464e-05
-1.8368622e-12
-0.00015554698
7.9092475e-05
-1.1610586e-12
-0.0001634528
6.8794101e-05
-4.6042136e-13
-0.00017031646
5.776899e-05
2.5093615e-13
-0.00017606984
4.6054264e-05
9.6347261e-13
-0.00018063837
3.3676031e-05
1.6713411e-12
-0.00018393932
2.0658093e-05
2.3694617e-12
-0.00018588122
7.0305318e-06
3.0417436e-12
-0.00018636462
-7.1612298e-06
3.6759862e-12
-0.00018528451
-2.184619e-05
4.2630684e-12
-0.00018253516
-3.691621e-05
4.8087812e-12
-0.00017801748
-5.2213443e-05
5.2909712e-12
-0.00017164953
-6.7517002e-05
5.6953694e-12
-0.0001633802
-8.2530361e-05
6.0358701e-12
-0.00015320572
-9.6871339e-05
6.309144e-12
-0.00014118812
-0.00011006717
6.5088311e-12
-0.00012747392
-0.00012155749
6.6654866e-12
-0.00011231072
-0.00013070813
6.8131009e-12
-9.605872e-05
-0.0001368375
6.9763198e-12
-7.9194056e-05
-0.00013925639
7.1935966e-12
-6.2301572e-05
-0.00013731919
7.392956e-12
-4.6055603e-05
-0.00013048259
7.3212886e-12
-3.1189476e-05
-0.0001183657
7.9903541e-12
-1.845644e-05
-0.00010080411
1.1739481e-11
-8.5869961e-06
-7.7887861e-05
8.9938775e-12
-2.2480217e-06
-4.997919e-05
-1.0613803e-11
-1.7752221e-05
2.6356608e-11
-2.282386e-06
2.0047176e-05
-2.3391824e-11
-8.2982113e-06
5.3749796e-05
1.4610567e-11
-1.7231812e-05
8.0934092e-05
-5.8301283e-12
-2.8327973e-05
0.00010184779
-9.2330785e-12
-4.0918659e-05
0.00011698913
-5.9487546e-12
-5.4434928e-05
0.00012700004
-5.5280788e-12
-6.8409026e-05
0.00013259195
-5.6509289e-12
-8.2468665e-05
0.00013448036
-5.3666645e-12
-9.6325882e-05
0.00013333285
-4.9417463e-12
-0.000109763
0.00012973499
-4.4729678e-12
-0.0001226178
0.00012417338
-3.9369042e-12
-0.00013476948
0.00011703285
-3.3303779e-12
-0.00014612623
0.00010860376
-2.6659152e-12
-0.00015661487
9.9095108e-05
-1.9565007e-12
-0.00016617241
8.8650014e-05
-1.2121043e-12
-0.00017473931
7.7361009e-05
-4.399248e-13
-0.00018225417
6.5283843e-05
3.4875818e-13
-0.00018864935
5.2449443e-05
1.1445401e-12
-0.00019384765
3.8874332e-05
1.936464e-12
-0.00019775979
2.4570232e-05
2.7148237e-12
-0.000200283
9.5537368e-06
3.4671729e-12
-0.00020130105
-6.1431847e-06
4.1804631e-12
-0.00020068618
-2.2461058e-05
4.8487677e-12
-0.00019830385
-3.9298549e-05
5.4608384e-12
-0.00019402058
-5.6496722e-05
6.002349e-12
-0.0001877159
-7.3821689e-05
6.4608945e-12
-0.00017929854
-9.0947723e-05
6.8347042e-12
-0.00016872678
-0.00010744311
7.1253596e-12
-0.0001560319
-0.00012276205
7.3374657e-12
-0.000141343
-0.0001362464
7.4800529e-12
-0.00012490985
-0.00014714128
7.571771e-12
-0.00010712007
-0.00015462729
7.6769293e-12
-8.8506005e-05
-0.00015787046
7.8766557e-12
-6.9737569e-05
-0.00015608763
8.0608803e-12
-5.1598604e-05
-0.00014862156
7.926281e-12
-3.4947323e-05
-0.000135017
8.612317e-12
-2.0664496e-05
-0.00011508695
1.2774565e-11
-9.596712e-06
-8.8955655e-05
9.7230605e-12
-2.5028861e-06
-5.7073004e-05
-1.2043665e-11
-2.0255136e-05
2.9291926e-11
-2.4632753e-06
2.2510477e-05
-2.5232314e-11
-8.9511775e-06
6.0237683e-05
1.5812888e-11
-1.857308e-05
9.0556e-05
-6.2766683e-12
-3.0503366e-05
0.00011377809
-9.9734345e-12
-4.401356e-05
0.00013049933
-6.4458387e-12
-5.8486649e-05
0.00014147314
-6.0035376e-12
-7.3419615e-05
0.00014752493
-6.137022e-12
-8.8416756e-05
0.00014947751
-5.8313451e-12
-0.00010317674
0.00014809284
-5.3697713e-12
-0.00011747642
0.00014403467
-4.8521057e-12
-0.00013115389
0.00013785085
-4.2615612e-12
-0.00014409257
0.00012997154
-3.5921023e-12
-0.00015620727
0.00012071846
-2.8557882e-12
-0.00016743251
0.00011032036
-2.0674433e-12
-0.00017771316
9.8930658e-05
-1.2414846e-12
-0.00018699675
8.66446e-05
-3.8620369e-13
-0.00019522734
7.3514432e-05
4.879865e-13
-0.00020234031
5.9562415e-05
1.3744872e-12
-0.00020825805
4.4792067e-05
2.26082e-12
-0.00021288638
2.9198561e-05
3.135238e-12
-0.00021611206
1.2779415e-05
3.9833668e-12
-0.00021780172
-4.4535312e-06
4.7882005e-12
-0.00021780274
-2.2460039e-05
5.5541276e-12
-0.00021594754
-4.1153761e-05
6.2403493e-12
-0.00021206144
-6.0382826e-05
6.8474605e-12
-0.00020597577
-7.9907362e-05
7.3719718e-12
-0.00019754661
-9.9376898e-05
7.7901837e-12
-0.00018667938
-0.00011831035
8.106871e-12
-0.00017335861
-0.00013608282
8.3437034e-12
-0.00015768054
-0.00015192448
8.4836385e-12
-0.00013988494
-0.00016493689
8.5141743e-12
-0.00012038078
-0.00017413146
8.5273447e-12
-9.9759523e-05
-0.00017849172
8.6604472e-12
-7.8789903e-05
-0.00017705726
8.7818368e-12
-5.8390078e-05
-0.00016902139
8.5662205e-12
-3.957689e-05
-0.00015383019
9.2768518e-12
-2.3397034e-05
-0.00013126682
1.3966772e-11
-1.0850719e-05
-0.00010150198
1.0522365e-11
-2.8203103e-06
-6.5103399e-05
-1.3967127e-11
-2.307548e-05