/*--------------------------------*- C++ -*----------------------------------*\
  =========                 |
  \\      /  F ield         | OpenFOAM: The Open Source CFD Toolbox
   \\    /   O peration     | Website:  https://openfoam.org
    \\  /    A nd           | Version:  7
     \\/     M anipulation  |
\*---------------------------------------------------------------------------*/
FoamFile
{
    version     2.0;
    format      ascii;
    class       surfaceScalarField;
    location    "1";
    object      phi_0;
}
// * * * * * * * * * * * * * * * * * * * * * * * * * * * * * * * * * * * * * //

dimensions      [0 3 -1 0 0 0 0];

internalField   nonuniform List<scalar> 
45600
(
1.1796311e-07
-1.1794215e-07
-2.1281141e-12
2.0502605e-08
9.7459952e-08
-1.3109499e-13
-3.5896386e-07
3.7946512e-07
4.0525899e-13
-9.9348264e-07
6.3451642e-07
2.6552466e-12
-1.8233089e-06
8.2982188e-07
4.4402907e-12
-2.7871097e-06
9.6379455e-07
5.4876792e-12
-3.8314513e-06
1.0443345e-06
6.1577949e-12
-4.9130087e-06
1.0815494e-06
6.5877878e-12
-5.9979619e-06
1.0849445e-06
6.8094278e-12
-7.0604204e-06
1.0624508e-06
6.8711471e-12
-8.0806501e-06
1.020223e-06
6.8034462e-12
-9.0434194e-06
9.627636e-07
6.6254477e-12
-9.9366114e-06
8.931864e-07
6.3500468e-12
-1.0750148e-05
8.1353081e-07
5.9959354e-12
-1.1475222e-05
7.2506799e-07
5.5696438e-12
-1.2103798e-05
6.285701e-07
5.0718946e-12
-1.2628331e-05
5.2452793e-07
4.5176171e-12
-1.3041654e-05
4.1331936e-07
3.8923964e-12
-1.3336992e-05
2.9533483e-07
3.1908833e-12
-1.350806e-05
1.7106747e-07
2.4394014e-12
-1.3549244e-05
4.1183781e-08
1.6274744e-12
-1.3455824e-05
-9.3419337e-08
7.7995074e-13
-1.3224255e-05
-2.3156836e-07
-1.1089533e-13
-1.28525e-05
-3.7175438e-07
-1.0304023e-12
-1.2340419e-05
-5.1208054e-07
-1.9796511e-12
-1.1690225e-05
-6.5019316e-07
-2.9216675e-12
-1.0907016e-05
-7.8320514e-07
-3.815513e-12
-9.9994043e-06
-9.0760905e-07
-4.662313e-12
-8.9802152e-06
-1.0191847e-06
-5.3985824e-12
-7.8672933e-06
-1.1129158e-06
-5.9736581e-12
-6.6843607e-06
-1.1829267e-06
-6.3629014e-12
-5.4618895e-06
-1.2224635e-06
-6.4993625e-12
-4.2379241e-06
-1.2239563e-06
-6.3202263e-12
-3.0587115e-06
-1.1792041e-06
-5.798062e-12
-1.9788946e-06
-1.079809e-06
-4.908008e-12
-1.0606315e-06
-9.1825609e-07
-3.5314985e-12
-3.6994018e-07
-6.906872e-07
-1.4024057e-12
3.3917679e-08
-4.0385728e-07
1.1562841e-12
1.2992818e-07
-9.6010928e-08
2.1532615e-12
1.2992603e-07
3.7535704e-12
-9.4428458e-08
-2.3509914e-08
-4.2273382e-12
-6.9856543e-07
7.0159707e-07
-2.4363531e-12
-1.9043397e-06
1.585241e-06
-5.4304055e-12
-3.6498034e-06
2.3799854e-06
-7.5060379e-12
-5.8292189e-06
3.0092453e-06
-8.8374071e-12
-8.3224456e-06
3.4570301e-06
-1.0006868e-11
-1.101452e-05
3.7364183e-06
-1.0751967e-11
-1.3805021e-05
3.8720612e-06
-1.1028152e-11
-1.6610663e-05
3.8905955e-06
-1.0954355e-11
-1.9364397e-05
3.8161937e-06
-1.0608855e-11
-2.2012984e-05
3.6688181e-06
-1.0043254e-11
-2.4514085e-05
3.4638718e-06
-9.3074747e-12
-2.6833484e-05
3.2125914e-06
-8.4484476e-12
-2.8942744e-05
2.9227947e-06
-7.4878681e-12
-3.0817406e-05
2.5997348e-06
-6.4360704e-12
-3.2435747e-05
2.2469136e-06
-5.3223748e-12
-3.3777998e-05
1.8667821e-06
-4.138589e-12
-3.4825979e-05
1.4613033e-06
-2.8932638e-12
-3.5563029e-05
1.0323875e-06
-1.619273e-12
-3.5974181e-05
5.8222222e-07
-2.8568067e-13
-3.6046521e-05
1.1352365e-07
1.0833145e-12
-3.5769713e-05
-3.7022853e-07
2.4906021e-12
-3.5136633e-05
-8.646522e-07
3.9107315e-12
-3.4144184e-05
-1.3642088e-06
5.332187e-12
-3.2794233e-05
-1.8620381e-06
6.7273574e-12
-3.1094721e-05
-2.3497131e-06
8.0845196e-12
-2.9060954e-05
-2.8169793e-06
9.4012786e-12
-2.6717087e-05
-3.251484e-06
1.061847e-11
-2.409777e-05
-3.6385103e-06
1.1700931e-11
-2.1249921e-05
-3.9607739e-06
1.2622004e-11
-1.8234497e-05
-4.1983606e-06
1.3324749e-11
-1.512806e-05
-4.3289113e-06
1.3742682e-11
-1.2023805e-05
-4.3282223e-06
1.3816235e-11
-9.0315039e-06
-4.1715152e-06
1.3490269e-11
-6.2754742e-06
-3.835848e-06
1.2671047e-11
-3.8889372e-06
-3.3048017e-06
1.1356151e-11
-2.001892e-06
-2.57774e-06
9.8175792e-12
-7.1947168e-07
-1.6862828e-06
7.6225695e-12
-9.0615731e-08
-7.2486885e-07
4.5685042e-12
3.9305644e-08
5.9339421e-12
-3.788745e-07
3.5536875e-07
-5.0618918e-12
-1.5957135e-06
1.9184352e-06
5.3274087e-13
-3.6308659e-06
3.620394e-06
-2.4837336e-12
-6.38841e-06
5.13753e-06
-2.7784161e-12
-9.7271989e-06
6.3480345e-06
-2.0585314e-12
-1.3490865e-05
7.2206959e-06
-1.8938123e-12
-1.7527116e-05
7.7726688e-06
-1.8393058e-12
-2.1698932e-05
8.0438766e-06
-1.7004985e-12
-2.5889168e-05
8.0808323e-06
-1.5306668e-12
-3.000085e-05
7.927877e-06
-1.3468068e-12
-3.3955078e-05
7.6230468e-06
-1.1446457e-12
-3.7687883e-05
7.1966777e-06
-9.2334942e-13
-4.1146923e-05
6.6716312e-06
-6.8976041e-13
-4.4288511e-05
6.0643815e-06
-4.4310829e-13
-4.7075231e-05
5.3864548e-06
-1.7497038e-13
-4.9474213e-05
4.6458951e-06
9.1129054e-14
-5.145601e-05
3.8485798e-06
3.5392481e-13
-5.2994014e-05
2.9993087e-06
6.2621102e-13
-5.4064297e-05
2.1026705e-06
8.7349797e-13
-5.464579e-05
1.1637161e-06
1.1161069e-12
-5.4720757e-05
1.8849087e-07
1.3518862e-12
-5.4275465e-05
-8.1552266e-07
1.5790295e-12
-5.330112e-05
-1.8389988e-06
1.7875371e-12
-5.1794968e-05
-2.8703642e-06
1.9815992e-12
-4.9761633e-05
-3.8953771e-06
2.1499243e-12
-4.7214688e-05
-4.8966607e-06
2.3185684e-12
-4.4178469e-05
-5.8532013e-06
2.4808238e-12
-4.0690113e-05
-6.7398439e-06
2.6184004e-12
-3.6801777e-05
-7.5268488e-06
2.7543357e-12
-3.2582923e-05
-8.1796279e-06
2.8921254e-12
-2.8122453e-05
-8.6588316e-06
3.0272413e-12
-2.3530332e-05
-8.921033e-06
3.1636831e-12
-1.893819e-05
-8.9203634e-06
3.2986533e-12
-1.4498118e-05
-8.6115884e-06
3.4430702e-12
-1.0378541e-05
-7.9554252e-06
3.577036e-12
-6.7556836e-06
-6.9276605e-06
3.8184444e-12
-3.7988207e-06
-5.5346047e-06
4.5940191e-12
-1.6483411e-06
-3.836764e-06
4.4353574e-12
-3.8493487e-07
-1.9882746e-06
1.540902e-12
-3.4563505e-07
7.0547568e-12
-6.4764078e-07
1.0030146e-06
-7.5163939e-12
-2.4456723e-06
3.7164621e-06
2.7118587e-12
-5.2609126e-06
6.4356353e-06
-2.2568922e-12
-8.9351808e-06
8.811799e-06
-2.5799085e-12
-1.3288182e-05
1.0701035e-05
-1.2168879e-12
-1.813326e-05
1.2065773e-05
-7.7673103e-13
-2.3291481e-05
1.2930888e-05
-5.9176291e-13
-2.8601025e-05
1.3353419e-05
-3.6313464e-13
-3.3921701e-05
1.3401507e-05
-1.5281424e-13
-3.9135605e-05
1.314178e-05
2.6926739e-14
-4.4145289e-05
1.2632728e-05
1.830668e-13
-4.8870649e-05
1.1922036e-05
3.3238817e-13
-5.3245469e-05
1.104645e-05
4.7523173e-13
-5.7214186e-05
1.0033096e-05
6.1523677e-13
-6.0729213e-05
8.901481e-06
7.6607332e-13
-6.3748944e-05
7.6656254e-06
9.1519898e-13
-6.6236418e-05
6.3360531e-06
1.0413085e-12
-6.8158585e-05
4.9214762e-06
1.1624114e-12
-6.9486073e-05
3.4301587e-06
1.2650496e-12
-7.0193362e-05
1.8710051e-06
1.3403243e-12
-7.0259308e-05
2.5443734e-07
1.3986784e-12
-6.9667934e-05
-1.4068966e-06
1.4420891e-12
-6.8409551e-05
-3.0973836e-06
1.4594333e-12
-6.6482076e-05
-4.7978383e-06
1.4719181e-12
-6.3892677e-05
-6.4847779e-06
1.4564455e-12
-6.0659657e-05
-8.129681e-06
1.4433793e-12
-5.6814645e-05
-9.6982145e-06
1.4238505e-12
-5.2404995e-05
-1.1149494e-05
1.39221e-12
-4.7496348e-05
-1.2435495e-05
1.3810281e-12
-4.2175163e-05
-1.3500814e-05
1.3896271e-12
-3.6550925e-05
-1.428307e-05
1.4301842e-12
-3.0757616e-05
-1.4714342e-05
1.5451331e-12
-2.4953825e-05
-1.4724154e-05
1.7420406e-12
-1.9320721e-05
-1.4244694e-05
1.9935799e-12
-1.4056939e-05
-1.3219208e-05
2.2647881e-12
-9.369486e-06
-1.1615113e-05
2.8275387e-12
-5.4601985e-06
-9.4438934e-06
4.3237833e-12
-2.5085741e-06
-6.7883907e-06
4.1681487e-12
-6.5479764e-07
-3.8420484e-06
-6.9163132e-13
-1.000441e-06
9.3771085e-12
-8.7292537e-07
1.8759473e-06
-9.585431e-12
-3.1865462e-06
6.0300757e-06
4.2914646e-12
-6.7013238e-06
9.9504139e-06
-3.0172259e-12
-1.1191534e-05
1.330201e-05
-4.0101995e-12
-1.6433387e-05
1.5942889e-05
-2.6038077e-12
-2.2210304e-05
1.7842691e-05
-2.3071061e-12
-2.8320647e-05
1.9041232e-05
-2.2535531e-12
-3.4583719e-05
1.9616491e-05
-2.0701105e-12
-4.0842781e-05
1.9660568e-05
-1.8563822e-12
-4.6965174e-05
1.9264173e-05
-1.6373565e-12
-5.2840319e-05
1.8507873e-05
-1.4119263e-12
-5.8376524e-05
1.7458242e-05
-1.1702404e-12
-6.3497427e-05
1.6167353e-05
-9.0807753e-13
-6.813863e-05
1.4674301e-05
-6.3269588e-13
-7.2244878e-05
1.300773e-05
-3.4314959e-13
-7.5767905e-05
1.1188654e-05
-3.6395591e-14
-7.8664979e-05
9.2331282e-06
2.6227987e-13
-8.0898071e-05
7.1545683e-06
5.449943e-13
-8.2433564e-05
4.9656524e-06
8.3014956e-13
-8.3242424e-05
2.6798642e-06
1.1004989e-12
-8.3300752e-05
3.1276425e-07
1.3479248e-12
-8.2590685e-05
-2.1169631e-06
1.5877522e-12
-8.110163e-05
-4.5864406e-06
1.818099e-12
-7.883179e-05
-7.0676803e-06
2.0429493e-12
-7.5790034e-05
-9.5265374e-06
2.2354245e-12
-7.199806e-05
-1.1921656e-05
2.4334753e-12
-6.7492871e-05
-1.4203406e-05
2.6157545e-12
-6.2329459e-05
-1.6312908e-05
2.7737679e-12
-5.6583604e-05
-1.8181351e-05
2.937371e-12
-5.0354555e-05
-1.9729864e-05
3.0934603e-12
-4.3767261e-05
-2.0870367e-05
3.241138e-12
-3.6973692e-05
-2.1507915e-05
3.4221204e-12
-3.0152669e-05
-2.154518e-05
3.6421896e-12
-2.3507519e-05
-2.0889846e-05
3.8336625e-12
-1.7260921e-05
-1.9465807e-05
3.9309973e-12
-1.1646638e-05
-1.7229398e-05
4.3254019e-12
-6.8986498e-06
-1.4191885e-05
5.8266382e-12
-3.2395962e-06
-1.0447448e-05
4.9362031e-12
-8.7357441e-07
-6.2080667e-06
-2.2668238e-12
-1.8740262e-06
1.1350922e-11
-1.0551829e-06
2.9311399e-06
-1.1066151e-11
-3.8101573e-06
8.7850413e-06
5.8604179e-12
-7.9370545e-06
1.4077313e-05
-3.2221636e-12
-1.3145943e-05
1.8510901e-05
-4.5627656e-12
-1.9168713e-05
2.196566e-05
-2.9430716e-12
-2.5758279e-05
2.4432257e-05
-2.6412968e-12
-3.2691287e-05
2.5974241e-05
-2.6146902e-12
-3.9770671e-05
2.6695875e-05
-2.4260061e-12
-4.6826609e-05
2.6716506e-05
-2.2018855e-12
-5.3715502e-05
2.6153066e-05
-1.9714708e-12
-6.0317363e-05
2.5109735e-05
-1.7219094e-12
-6.65323e-05
2.3673181e-05
-1.4536348e-12
-7.2276751e-05
2.1911806e-05
-1.1584884e-12
-7.7479973e-05
1.9877525e-05
-8.4241645e-13
-8.2081097e-05
1.7608855e-05
-5.1960438e-13
-8.6026869e-05
1.5134427e-05
-1.9170562e-13
-8.9270106e-05
1.2476367e-05
1.4599256e-13
-9.1768798e-05
9.6532596e-06
4.6384124e-13
-9.3485773e-05
6.6826276e-06
7.7226871e-13
-9.4388867e-05
3.5829587e-06
1.082911e-12
-9.4451508e-05
3.7540577e-07
1.379363e-12
-9.3653697e-05
-2.9147749e-06
1.6501529e-12
-9.1983366e-05
-6.2567737e-06
1.9168352e-12
-8.9438093e-05
-9.6129543e-06
2.1848103e-12
-8.6027201e-05
-1.2937434e-05
2.412998e-12
-8.1774187e-05
-1.6174673e-05
2.6296663e-12
-7.6719494e-05
-1.9258101e-05
2.8294034e-12
-7.0923483e-05
-2.2108921e-05
3.0216618e-12
-6.446948e-05
-2.4635355e-05
3.2192315e-12
-5.7466643e-05
-2.6732703e-05
3.3956305e-12
-5.0052274e-05
-2.828474e-05
3.5598055e-12
-4.2393136e-05
-2.9167054e-05
3.7613992e-12
-3.4685242e-05
-2.9253076e-05
4.0002636e-12
-2.7151565e-05
-2.8423526e-05
4.1895079e-12
-2.0037328e-05
-2.6580047e-05
4.2533672e-12
-1.3602957e-05
-2.3663773e-05
4.6739173e-12
-8.1156714e-06
-1.9679177e-05
6.4062471e-12
-3.8418575e-06
-1.4721267e-05
5.1645851e-12
-1.0446918e-06
-9.005228e-06
-3.7366807e-12
-2.9187304e-06
1.2783146e-11
-1.2028135e-06
4.1339646e-06
-1.2305863e-11
-4.3327554e-06
1.1914973e-05
7.1743255e-12
-8.992711e-06
1.8737271e-05
-3.3123531e-12
-1.4835773e-05
2.4353966e-05
-4.8865291e-12
-2.1551283e-05
2.8681172e-05
-3.0489826e-12
-2.8861612e-05
3.1742588e-05
-2.7227722e-12
-3.6521732e-05
3.3634362e-05
-2.710091e-12
-4.4319029e-05
3.4493174e-05
-2.5117694e-12
-5.2072201e-05
3.446968e-05
-2.2759222e-12
-5.9628833e-05
3.37097e-05
-2.0345979e-12
-6.686188e-05
3.2342784e-05
-1.7677418e-12
-7.3665579e-05
3.0476881e-05
-1.4753134e-12
-7.9951318e-05
2.8197547e-05
-1.1643803e-12
-8.5643894e-05
2.5570103e-05
-8.3853747e-13
-9.0678398e-05
2.2643362e-05
-4.9948567e-13
-9.4997846e-05
1.9453875e-05
-1.7113307e-13
-9.855153e-05
1.6030051e-05
1.6174852e-13
-0.00010129406
1.2395793e-05
4.9525776e-13
-0.00010318501
8.5735716e-06
8.1577038e-13
-0.00010418903
4.5869775e-06
1.1242551e-12
-0.00010427651
4.6289102e-07
1.4329913e-12
-0.00010342464
-3.76665e-06
1.719742e-12
-0.00010161887
-8.0625477e-06
1.990613e-12
-9.8854863e-05
-1.2376959e-05
2.2444287e-12
-9.5140857e-05
-1.6651442e-05
2.4733748e-12
-9.0500394e-05
-2.0815136e-05
2.6971077e-12
-8.4975463e-05
-2.4783034e-05
2.8907673e-12
-7.8629838e-05
-2.8454549e-05
3.0647232e-12
-7.1552475e-05
-3.1712719e-05
3.2427504e-12
-6.3860675e-05
-3.4424505e-05
3.4164974e-12
-5.5702615e-05
-3.6442803e-05
3.5921577e-12
-4.7258812e-05
-3.761086e-05
3.7980863e-12
-3.8742037e-05
-3.7769856e-05
4.0447786e-12
-3.0395236e-05
-3.6770331e-05
4.2634705e-12
-2.2487299e-05
-3.4487987e-05
4.3389573e-12
-1.5306934e-05
-3.0844143e-05
4.7850929e-12
-9.1556994e-06
-2.5830419e-05
6.7643236e-12
-4.3420868e-06
-1.9534885e-05
5.3308478e-12
-1.1799951e-06
-1.2167314e-05
-4.9062171e-12
-4.0987389e-06
1.3951386e-11
-1.3258191e-06
5.4597962e-06
-1.3436323e-11
-4.7797955e-06
1.5368938e-05
8.1938552e-12
-9.9107749e-06
2.3868252e-05
-3.4810842e-12
-1.6322587e-05
3.0765783e-05
-5.2757006e-12
-2.3664978e-05
3.6023564e-05
-3.279595e-12
-3.163039e-05
3.9708002e-05
-2.9544283e-12
-3.9952052e-05
4.1956026e-05
-2.9712529e-12
-4.8401911e-05
4.2943034e-05
-2.7755907e-12
-5.6787774e-05
4.2855544e-05
-2.5276096e-12
-6.4949459e-05
4.1871389e-05
-2.2632417e-12
-7.2754229e-05
4.0147556e-05
-1.9724083e-12
-8.0091941e-05
3.7814596e-05
-1.6471122e-12
-8.6870416e-05
3.4976024e-05
-1.3018001e-12
-9.301134e-05
3.1711028e-05
-9.5617374e-13
-9.8446908e-05
2.8078932e-05
-5.9680972e-13
-0.00010311729
2.4124256e-05
-2.3495257e-13
-0.00010696885
1.9881618e-05
1.2333743e-13
-0.00010995314
1.5380079e-05
4.8304194e-13
-0.00011202641
1.064684e-05
8.4450801e-13
-0.00011314979
5.710363e-06
1.1869164e-12
-0.00011328996
6.0305257e-07
1.5172383e-12
-0.00011242022
-4.6363833e-06
1.8236214e-12
-0.00011052226
-9.9605109e-06
2.1253756e-12
-0.00010758823
-1.5310992e-05
2.3960738e-12
-0.00010362348
-2.0616201e-05
2.638368e-12
-9.8649693e-05
-2.5788922e-05
2.8709334e-12
-9.2708523e-05
-3.0724205e-05
3.0783541e-12
-8.5865416e-05
-3.5297656e-05
3.2674449e-12
-7.8213541e-05
-3.9364596e-05
3.4474582e-12
-6.9877405e-05
-4.2760645e-05
3.6237374e-12
-6.1015772e-05
-4.530444e-05
3.8097739e-12
-5.1823409e-05
-4.6803226e-05
4.0208894e-12
-4.2531181e-05
-4.7062087e-05
4.2890242e-12
-3.3404135e-05
-4.5897382e-05
4.5535139e-12
-2.4737454e-05
-4.3154673e-05
4.6101476e-12
-1.6850604e-05
-3.8730999e-05
5.0236192e-12
-1.0080574e-05
-3.2600455e-05
7.1959004e-12
-4.7757414e-06
-2.4839723e-05
5.605535e-12
-1.2926107e-06
-1.5650438e-05
-5.7526336e-12
-5.3913644e-06
1.5045138e-11
-1.4335319e-06
6.8933424e-06
-1.4496553e-11
-5.1780446e-06
1.911344e-05
9.0308969e-12
-1.0738554e-05
2.9428763e-05
-3.6816085e-12
-1.767583e-05
3.7703064e-05
-5.6775122e-12
-2.5602886e-05
4.3950623e-05
-3.5471575e-12
-3.418308e-05
4.8288199e-05
-3.228386e-12
-4.3127858e-05
5.0900808e-05
-3.2724864e-12
-5.2193571e-05
5.2008751e-05
-3.0779666e-12
-6.1177221e-05
5.1839197e-05
-2.8153604e-12
-6.9911299e-05
5.060547e-05
-2.5271769e-12
-7.8258106e-05
4.8494365e-05
-2.2075104e-12
-8.6104051e-05
4.5660544e-05
-1.8550218e-12
-9.3354376e-05
4.2226352e-05
-1.4773972e-12
-9.99286e-05
3.8285253e-05
-1.1015231e-12
-0.00010575684
3.3907171e-05
-7.2063073e-13
-0.00011077702
2.9144443e-05
-3.1864367e-13
-0.00011493297
2.4037572e-05
9.2374316e-14
-0.00011817322
1.8620323e-05
4.8765031e-13
-0.00012045048
1.2924101e-05
8.7493088e-13
-0.00012172178
6.9816612e-06
1.2552002e-12
-0.0001219491
8.3037815e-07
1.6327592e-12
-0.00012110066
-5.4848306e-06
1.972158e-12
-0.00011915271
-1.1908466e-05
2.2961422e-12
-0.00011609203
-1.8371667e-05
2.58531e-12
-0.00011191905
-2.4789189e-05
2.8604125e-12
-0.00010665148
-3.1056486e-05
3.112742e-12
-0.00010032864
-3.7047047e-05
3.3252493e-12
-9.3015962e-05
-4.2610342e-05
3.5183288e-12
-8.4809641e-05
-4.7570919e-05
3.7043615e-12
-7.5840966e-05
-5.1729324e-05
3.8999424e-12
-6.6279784e-05
-5.4865626e-05
4.1097235e-12
-5.633664e-05
-5.6746374e-05
4.3217475e-12
-4.6263048e-05
-5.7135684e-05
4.5882596e-12
-3.6349519e-05
-5.5810916e-05
4.8720117e-12
-2.6921253e-05
-5.2582945e-05
4.9042376e-12
-1.8331749e-05
-4.7320509e-05
5.3134874e-12
-1.0955106e-05
-3.9977106e-05
7.6497716e-12
-5.1782063e-06
-3.0616629e-05
5.9250922e-12
-1.3943383e-06
-1.9434299e-05
-6.3597305e-12
-6.785719e-06
1.6153222e-11
-1.5339462e-06
8.4273031e-06
-1.554279e-11
-5.5521972e-06
2.3131681e-05
9.7572632e-12
-1.1521509e-05
3.5398077e-05
-3.9044692e-12
-1.8963486e-05
4.5145048e-05
-6.0873635e-12
-2.7456358e-05
5.2443498e-05
-3.8288231e-12
-3.6634971e-05
5.7466816e-05
-3.507745e-12
-4.6188873e-05
6.0454714e-05
-3.5705599e-12
-5.5858524e-05
6.1678405e-05
-3.3748014e-12
-6.5429977e-05
6.1410653e-05
-3.0955465e-12
-7.4728516e-05
5.9904014e-05
-2.778804e-12
-8.3611878e-05
5.7377732e-05
-2.4268323e-12
-9.1963617e-05
5.4012285e-05
-2.0584083e-12
-9.9687088e-05
4.9949825e-05
-1.6595104e-12
-0.00010670034
4.5298509e-05
-1.2370339e-12
-0.00011293202
4.0138854e-05
-8.1142157e-13
-0.00011831829
3.453071e-05
-3.7970888e-13
-0.00012280063
2.8519916e-05
6.7850917e-14
-0.00012632452
2.2144219e-05
5.1289563e-13
-0.00012883879
1.5438365e-05
9.4370948e-13
-0.0001302956
8.4384732e-06
1.3545321e-12
-0.00013065118
1.1859562e-06
1.7631665e-12
-0.00012986711
-6.2689032e-06
2.1437929e-12
-0.0001279124
-1.3863181e-05
2.5091052e-12
-0.00012476629
-2.1517781e-05
2.8291518e-12
-0.00012042187
-2.91336e-05
3.1275869e-12
-0.00011489052
-3.6587844e-05
3.3856149e-12
-0.00010820689
-4.3730678e-05
3.6031448e-12
-0.00010043452
-5.0382716e-05
3.8103093e-12
-9.1671438e-05
-5.6334003e-05
4.0025035e-12
-8.2055446e-05
-6.134532e-05
4.1964695e-12
-7.1768386e-05
-6.5152691e-05
4.4158586e-12
-6.1038785e-05
-6.7475981e-05
4.6383773e-12
-5.014225e-05
-6.8032225e-05
4.9007152e-12
-3.9399169e-05
-6.6554002e-05
5.1776528e-12
-2.9169573e-05
-6.2812546e-05
5.2162883e-12
-1.9845397e-05
-5.6644691e-05
5.6705993e-12
-1.1840795e-05
-4.7981717e-05
8.1277905e-12
-5.5815856e-06
-3.6875845e-05
6.2657337e-12
-1.4950613e-06
-2.3520817e-05
-6.8683283e-12
-8.2807975e-06
1.7310898e-11
-1.6336489e-06
1.0060967e-05
-1.6616374e-11
-5.9236733e-06
2.7421697e-05
1.0422923e-11
-1.2300283e-05
4.1774689e-05
-4.1617913e-12
-2.0247366e-05
5.3092139e-05
-6.5203842e-12
-2.9308993e-05
6.1505129e-05
-4.1315848e-12
-3.9091462e-05
6.7249287e-05
-3.808013e-12
-4.926203e-05
7.0625287e-05
-3.8813437e-12
-5.9544845e-05
7.1961225e-05
-3.6652452e-12
-6.9714748e-05
7.1580561e-05
-3.3692293e-12
-7.958982e-05
6.9779089e-05
-3.0392032e-12
-8.9023482e-05
6.6811399e-05
-2.6587412e-12
-9.7896886e-05
6.2885692e-05
-2.256734e-12
-0.00010611208
5.8165018e-05
-1.8333687e-12
-0.00011358624
5.2772671e-05
-1.3767154e-12
-0.00012024709
4.6799714e-05
-8.9766815e-13
-0.00012602944
4.0313059e-05
-4.1563768e-13
-0.00013087266
3.3363132e-05
6.5442781e-14
-0.0001347191
2.5990664e-05
5.4574716e-13
-0.00013751329
1.8232554e-05
1.0260837e-12
-0.00013920179
1.0126971e-05
1.4923736e-12
-0.00013973383
1.7179978e-06
1.9462658e-12
-0.00013906273
-6.9400109e-06
2.3666425e-12
-0.00013714812
-1.5777791e-05
2.7615089e-12
-0.00013395922
-2.4706683e-05
3.112082e-12
-0.00012947903
-3.3613789e-05
3.4348196e-12
-0.00012370961
-4.2357265e-05
3.7044394e-12
-0.00011667823
-5.0762071e-05
3.9367843e-12
-0.00010844414
-5.8616809e-05
4.1632195e-12
-9.9105628e-05
-6.5672515e-05
4.3562811e-12
-8.8806573e-05
-7.1644382e-05
4.5297873e-12
-7.7741798e-05
-7.6217472e-05
4.7449555e-12
-6.6160421e-05
-7.9057363e-05
4.9889354e-12
-5.436633e-05
-7.9826322e-05
5.256611e-12
-4.2715257e-05
-7.8205081e-05
5.5180995e-12
-3.1608225e-05
-7.3919583e-05
5.5826794e-12
-2.1481602e-05
-6.6771321e-05
6.0936544e-12
-1.2794446e-05
-5.6668883e-05
8.6838673e-12
-6.0143416e-06
-4.3655957e-05
6.6707531e-12
-1.6029625e-06
-2.7932189e-05
-7.3993865e-12
-9.8837785e-06
1.859113e-11
-1.7379633e-06
1.1798947e-05
-1.7754114e-11
-6.3104568e-06
3.1994181e-05
1.1075934e-11
-1.3109794e-05
4.857403e-05
-4.4560468e-12
-2.1581324e-05
6.1563675e-05
-6.993194e-12
-3.1234127e-05
7.1157936e-05
-4.4597104e-12
-4.1645084e-05
7.7660248e-05
-4.1179297e-12
-5.2458372e-05
8.1438578e-05
-4.2023463e-12
-6.3381215e-05
8.2884074e-05
-3.9704669e-12
-7.4176923e-05
8.2376275e-05
-3.6477619e-12
-8.4656344e-05
8.0258517e-05
-3.2976267e-12
-9.4668846e-05
7.6823905e-05
-2.9007419e-12
-0.00010409364
7.2310491e-05
-2.4655697e-12
-0.00011283207
6.6903446e-05
-2.0014363e-12
-0.00012080109
6.0741696e-05
-1.5047285e-12
-0.00012792813
5.392676e-05
-9.8206005e-13
-0.00013414713
4.6532055e-05
-4.516099e-13
-0.00013939564
3.8611648e-05
7.4719818e-14
-0.00014361296
3.0207984e-05
6.030515e-13
-0.00014673898
2.1358576e-05
1.1395083e-12
-0.00014871391
1.2101898e-05
1.6654467e-12
-0.00014947876
2.4828474e-06
2.1681837e-12
-0.00014897679
-7.4419865e-06
2.6331072e-12
-0.00014715594
-1.7598647e-05
3.05902e-12
-0.00014397249
-2.7890126e-05
3.4471055e-12
-0.00013939606
-3.8190225e-05
3.7990041e-12
-0.00013341582
-4.8337511e-05
4.0868502e-12
-0.00012604806
-5.8129834e-05
4.3332085e-12
-0.00011734462
-6.7320248e-05
4.5680965e-12
-0.00010740171
-7.5615432e-05
4.7658341e-12
-9.6368243e-05
-8.2677856e-05
4.9404093e-12
-8.4452759e-05
-8.8132961e-05
5.1580213e-12
-7.1927725e-05
-9.1582402e-05
5.411371e-12
-5.9130162e-05
-9.2623891e-05
5.6775607e-12
-4.645782e-05
-9.0877429e-05
5.9174947e-12
-3.4360591e-05
-8.6016819e-05
5.9528579e-12
-2.3327431e-05
-7.7804489e-05
6.4854297e-12
-1.3869689e-05
-6.6126636e-05
9.3295931e-12
-6.5023827e-06
-5.102327e-05
7.1867141e-12
-1.7250524e-06
-3.2709512e-05
-7.947578e-12
-1.1608851e-05
2.0098529e-11
-1.851179e-06
1.3650144e-05
-1.8981e-11
-6.7274768e-06
3.6870469e-05
1.1765252e-11
-1.3979549e-05
5.5826107e-05
-4.7862238e-12
-2.301135e-05
7.0595483e-05
-7.5027046e-12
-3.3294698e-05
8.1441288e-05
-4.8121537e-12
-4.4375271e-05
8.8740826e-05
-4.4465079e-12
-5.5872863e-05
9.2936175e-05
-4.5324327e-12
-6.7476953e-05
9.4488171e-05
-4.2872036e-12
-7.893894e-05
9.3838268e-05
-3.9428819e-12
-9.0062472e-05
9.1382055e-05
-3.5674802e-12
-0.00010069322
8.7454652e-05
-3.1453643e-12
-0.00011070905
8.2326325e-05
-2.6760995e-12
-0.00012001134
7.6205747e-05
-2.1691161e-12
-0.00012851769
6.924804e-05
-1.6275163e-12
-0.00013615599
6.1565071e-05
-1.0609518e-12
-0.00014286004
5.3236105e-05
-4.8147798e-13
-0.00014856611
4.4317722e-05
9.9485534e-14
-0.00015321066
3.4852534e-05
6.8924331e-13
-0.00015672884
2.4876757e-05
1.287305e-12
-0.0001590539
1.4426954e-05
1.8695618e-12
-0.00016011746
3.5464056e-06
2.4213908e-12
-0.00015985088
-7.7085686e-06
2.9392883e-12
-0.00015818784
-1.9261693e-05
3.4079777e-12
-0.00015506842
-3.1009551e-05
3.8421848e-12
-0.00015044484
-4.2813809e-05
4.2304033e-12
-0.00014428896
-5.4493393e-05
4.5489513e-12
-0.00013660147
-6.5817327e-05
4.8128027e-12
-0.0001274224
-7.6499322e-05
5.0435282e-12
-0.00011684231
-8.6195527e-05
5.2498906e-12
-0.00010501309
-9.4507085e-05
5.4472819e-12
-9.2157003e-05
-0.00010098905
5.6553928e-12
-7.8572486e-05
-0.00010516692
5.878156e-12
-6.4635124e-05
-0.00010656126
6.1527996e-12
-5.0792757e-05
-0.0001047198
6.4078988e-12
-3.7554208e-05
-9.9255375e-05
6.3531468e-12
-2.5472018e-05
-8.9886687e-05
6.8655474e-12
-1.5120462e-05
-7.6478202e-05
1.0019568e-11
-7.071049e-06
-5.9072691e-05
7.7537294e-12
-1.867865e-06
-3.7912687e-05
-8.5759149e-12
-1.3476739e-05
2.1891953e-11
-1.9768245e-06
1.5626989e-05
-2.0324177e-11
-7.1872857e-06
4.208092e-05
1.2538938e-11
-1.4934656e-05
6.3573482e-05
-5.146648e-12
-2.4576833e-05
8.0237668e-05
-8.056507e-12
-3.5544692e-05
9.2409151e-05
-5.1870408e-12
-4.734998e-05
0.00010054612
-4.7976988e-12
-5.9586249e-05
0.00010517245
-4.8875891e-12
-7.1924163e-05
0.00010682609
-4.622547e-12
-8.4102803e-05
0.00010601691
-4.2558817e-12
-9.5918745e-05
0.000103198
-3.8577506e-12
-0.00010721449
9.8750401e-05
-3.4002749e-12
-0.00011786741
9.2979246e-05
-2.8890684e-12
-0.00012777993
8.6118274e-05
-2.3382926e-12
-0.00013687135
7.833946e-05
-1.7524957e-12
-0.00014507119
6.9764918e-05
-1.1378362e-12
-0.00015231411
6.0479024e-05
-4.9840046e-13
-0.00015853596
5.0539571e-05
1.5108064e-13
-0.00016367094
3.9987522e-05
8.1058025e-13
-0.00016764968
2.8855493e-05
1.4696354e-12
-0.00017039813
1.7175398e-05
2.1064384e-12
-0.00017183752
4.9858006e-06
2.716906e-12
-0.00017188554
-7.6605531e-06
3.3029488e-12
-0.00017045887
-2.0688374e-05
3.829093e-12
-0.00016747765
-3.3990773e-05
4.3060341e-12
-0.00016287203
-4.7419426e-05
4.7260171e-12
-0.00015659102
-6.0774406e-05
5.0878784e-12
-0.00014861364
-7.3794718e-05
5.3897944e-12
-0.00013896203
-8.6150934e-05
5.6255551e-12
-0.00012771576
-9.7441801e-05
5.8395703e-12
-0.0001150259
-0.00010719695
6.0475201e-12
-0.00010112715
-0.00011488781
6.2091295e-12
-8.6345922e-05
-0.00011994816
6.3531472e-12
-7.1102211e-05
-0.00012180498
6.6374441e-12
-5.5903589e-05
-0.00011991843
6.9854109e-12
-4.133061e-05
-0.00011382836
6.9035751e-12
-2.8014079e-05
-0.00010320322
7.4048772e-12
-1.660605e-05
-8.7886243e-05
1.0772265e-11
-7.7477951e-06
-6.7930954e-05
8.3130529e-12
-2.0382944e-06
-4.3622179e-05
-9.4832748e-12
-1.5515057e-05
2.3991404e-11
-2.1179525e-06
1.7744963e-05
-2.1813182e-11
-7.7008856e-06
4.7663842e-05
1.3424098e-11
-1.5997237e-05
7.1869837e-05
-5.5340526e-12
-2.631249e-05
9.055293e-05
-8.661711e-12
-3.8031524e-05
0.00010412819
-5.590398e-12
-5.0628452e-05
0.00011314305
-5.1744122e-12
-6.3668162e-05
0.00011821217
-5.2772531e-12
-7.6801181e-05
0.00011995912
-4.9925966e-12
-8.9753857e-05
0.0001189696
-4.5930529e-12
-0.00010231597
0.00011576012
-4.1671015e-12
-0.00011432766
0.00011076209
-3.6736782e-12
-0.00012566691
0.0001043185
-3.1177606e-12
-0.00013623858
9.6689947e-05
-2.5164931e-12
-0.00014596514
8.8066028e-05
-1.8766498e-12
-0.00015477927
7.8579043e-05
-1.2024791e-12
-0.00016261793
6.8317691e-05
-4.9327919e-13
-0.00016941789
5.7339533e-05
2.3229614e-13
-0.00017511218
4.5681809e-05
9.6665108e-13
-0.00017962753
3.3370842e-05
1.6917559e-12
-0.00018288272
2.0430593e-05
2.3929525e-12
-0.000184788
6.8910688e-06
3.0763762e-12
-0.00018524572
-7.2028284e-06
3.7392781e-12
-0.00018415283
-2.1781267e-05
4.3345938e-12
-0.00018140547
-3.6738143e-05
4.854987e-12
-0.00017690621
-5.1918683e-05
5.307937e-12
-0.00017057441
-6.710622e-05
5.7211155e-12
-0.00016235955
-8.2009577e-05
6.0727059e-12
-0.00015225763
-9.6252867e-05
6.3250775e-12
-0.00014032928
-0.00010937015
6.5413246e-12
-0.00012671842
-0.00012080782
6.7540214e-12
-0.00011166872
-0.00012993752
6.8899553e-12
-9.5535273e-05
-0.00013608161
6.9586452e-12
-7.8788314e-05
-0.00013855194
7.1583337e-12
-6.2006429e-05
-0.00013670032
7.5226809e-12
-4.5858043e-05
-0.00012997675
7.4984413e-12
-3.1071669e-05
-0.00011798961
8.0698629e-12
-1.8397551e-05
-0.00010056037
1.1703209e-11
-8.5655541e-06
-7.776296e-05
8.9995943e-12
-2.2445952e-06
-4.9943128e-05
-1.0663806e-11
-1.7759679e-05
2.638966e-11
-2.2774291e-06
2.0022415e-05
-2.3465942e-11
-8.2786223e-06
5.3665022e-05
1.4454637e-11
-1.7188029e-05
8.0779249e-05
-5.9457414e-12
-2.8250649e-05
0.00010161556
-9.3260606e-12
-4.0798899e-05
0.00011667645
-6.0357339e-12
-5.4264566e-05
0.00012660873
-5.5908563e-12
-6.8180864e-05
0.00013212847
-5.7038991e-12
-8.2176636e-05
0.0001339549
-5.4029181e-12
-9.5965113e-05
0.00013275808
-4.966824e-12
-0.00010932978
0.0001291248
-4.5029744e-12
-0.00012210951
0.00012354182
-3.9712509e-12
-0.00013418444
0.00011639344
-3.3661779e-12
-0.00014546364
0.00010796915
-2.7035074e-12
-0.00015587474
9.8477125e-05
-1.9931235e-12
-0.00016535553
8.8059836e-05
-1.2430991e-12
-0.00017384735
7.6809516e-05
-4.5638844e-13
-0.00018128977
6.4781948e-05
3.469135e-13
-0.00018761631
5.2008358e-05
1.1617215e-12
-0.00019275119
3.8505713e-05
1.968264e-12
-0.00019660675
2.4286155e-05
2.7541952e-12
-0.00019908215
9.3664674e-06
3.5165835e-12
-0.00020006333
-6.221655e-06
4.2442595e-12
-0.00019942487
-2.2419732e-05
4.9151014e-12
-0.00019703462
-3.9128398e-05
5.5086353e-12
-0.00019276141
-5.6191901e-05
6.0258034e-12
-0.00018648671
-7.3380923e-05
6.4952487e-12
-0.00017812058
-9.0375716e-05
6.8921521e-12
-0.00016762165
-0.00010675181
7.1623578e-12
-0.00015502034
-0.00012197147
7.3543491e-12
-0.00014044335
-0.00013538481
7.5551132e-12
-0.00012413647
-0.00014624441
7.7443087e-12
-0.00010648172
-0.00015373636
7.8176405e-12
-8.8004613e-05
-0.00015702906
7.8402715e-12
-6.9367493e-05
-0.00015533745
8.03004e-12
-5.1346727e-05
-0.00014799753
7.9922123e-12
-3.4794075e-05
-0.00013454227
8.6446906e-12
-2.0585831e-05
-0.00011476863
1.276831e-11
-9.5668678e-06
-8.8781933e-05
9.8108633e-12
-2.4976012e-06
-5.7012383e-05
-1.206e-11
-2.0257309e-05
2.9231908e-11
-2.4582267e-06
2.2480667e-05
-2.531131e-11
-8.9311185e-06
6.0137899e-05
1.5653421e-11
-1.8528092e-05
9.0376227e-05
-6.3896436e-12
-3.0423702e-05
0.00011351118
-1.0060429e-11
-4.3889908e-05
0.00013014266
-6.5294298e-12
-5.8310416e-05
0.00014102924
-6.0583615e-12
-7.3183173e-05
0.00014700124
-6.181088e-12
-8.8113598e-05
0.00014888533
-5.8617959e-12
-0.00010280153
0.00014744601
-5.3889693e-12
-0.00011702492
0.0001433482
-4.8788116e-12
-0.00013062291
0.0001371398
-4.2957838e-12
-0.00014347977
0.00012925031
-3.6262842e-12
-0.00015551109
0.00012000048
-2.888961e-12
-0.00016665211
0.00010961815
-2.0975576e-12
-0.00017684839
9.8256115e-05
-1.2603315e-12
-0.00018604826
8.6009386e-05
-3.8605462e-13
-0.0001941967
7.2930391e-05
5.0242095e-13
-0.00020123025
5.904191e-05
1.4055077e-12
-0.00020707273
4.4348185e-05
2.3073983e-12
-0.00021163171
2.884514e-05
3.1992352e-12
-0.0002147961
1.2530848e-05
4.047998e-12
-0.00021643498
-4.5827743e-06
4.8298288e-12
-0.00021639855
-2.2456169e-05
5.5873598e-12
-0.0002145222
-4.1004754e-05
6.2902501e-12
-0.0002106343
-6.0079811e-05
6.8989345e-12
-0.00020456896
-7.9446268e-05
7.4232234e-12
-0.00019618449
-9.8760199e-05
7.8788279e-12
-0.00018538759
-0.00011754871
8.2076283e-12
-0.0001721627
-0.00013519637
8.364549e-12
-0.0001566042
-0.00015094332
8.4627234e-12
-0.000138948
-0.00016390062
8.6438299e-12
-0.00011959712
-0.00017308725
8.7809983e-12
-9.9135217e-05
-0.00017749097
8.7422718e-12
-7.8321933e-05
-0.00017615074
8.7877551e-12
-5.8065986e-05
-0.00016825349
8.6242634e-12
-3.9375601e-05
-0.00015323266
9.2424071e-12
-2.329094e-05
-0.0001308533
1.3891669e-11
-1.0808854e-05
-0.00010126403
1.0577797e-11
-2.8122117e-06