/*--------------------------------*- C++ -*----------------------------------*\
  =========                 |
  \\      /  F ield         | OpenFOAM: The Open Source CFD Toolbox
   \\    /   O peration     | Website:  https://openfoam.org
    \\  /    A nd           | Version:  7
     \\/     M anipulation  |
\*---------------------------------------------------------------------------*/
FoamFile
{
    version     2.0;
    format      ascii;
    class       volVectorField;
    location    "1";
    object      U;
}
// * * * * * * * * * * * * * * * * * * * * * * * * * * * * * * * * * * * * * //

dimensions      [0 1 -1 0 0 0 0];

internalField   nonuniform List<vector> 
16000
(
(3.417743e-05 -3.4046826e-05 -6.620509e-10)
(5.2166658e-05 -7.8570925e-06 5.005116e-06)
(-4.2346505e-05 3.4739182e-05 1.2879113e-05)
(-0.0002496251 7.2863596e-05 2.0789237e-05)
(-0.00054665942 0.00010100496 2.723337e-05)
(-0.00090962506 0.00011944161 3.1121574e-05)
(-0.001315299 0.0001299695 3.1871648e-05)
(-0.0017441005 0.00013448922 2.9239095e-05)
(-0.0021805893 0.00013459246 2.3176638e-05)
(-0.0026128877 0.00013149505 1.3751701e-05)
(-0.0030319453 0.00012607271 1.0960577e-06)
(-0.0034308363 0.00011892168 -1.4624434e-05)
(-0.0038041443 0.00011042237 -3.3225806e-05)
(-0.0041474661 0.00010079875 -5.4512413e-05)
(-0.0044570422 9.0169422e-05 -7.8277456e-05)
(-0.0047295057 7.8588946e-05 -0.00010430021)
(-0.0049617272 6.6079233e-05 -0.00013234179)
(-0.0051507397 5.265265e-05 -0.00016214058)
(-0.0052937202 3.8328499e-05 -0.00019340819)
(-0.0053880154 2.3144195e-05 -0.0002258263)
(-0.0054311997 7.1640286e-06 -0.00025904462)
(-0.0054211576 -9.5141037e-06 -0.00029268028)
(-0.0053561879 -2.6753545e-05 -0.00032631856)
(-0.0052351285 -4.4371082e-05 -0.00035951531)
(-0.0050575039 -6.2130716e-05 -0.00039180103)
(-0.0048236966 -7.9734733e-05 -0.00042268698)
(-0.0045351477 -9.6813462e-05 -0.0004516733)
(-0.004194591 -0.00011291308 -0.00047825973)
(-0.0038063202 -0.00012748144 -0.00050195916)
(-0.0033764918 -0.00013985346 -0.00052231462)
(-0.002913457 -0.00014923568 -0.00053892048)
(-0.0024281084 -0.00015469122 -0.00055144877)
(-0.0019342181 -0.00015512627 -0.00055968215)
(-0.0014487324 -0.00014927817 -0.00056355579)
(-0.00099198178 -0.00013571734 -0.00056321114)
(-0.00058765708 -0.00011293508 -0.00055907117)
(-0.00026175837 -7.975637e-05 -0.00055195891)
(-3.923469e-05 -3.6694599e-05 -0.00054323551)
(5.8836086e-05 9.90998e-06 -0.00053472921)
(3.7199709e-05 3.6987814e-05 -0.00049511365)
(8.8499496e-06 -5.2577201e-05 -4.9996522e-06)
(-0.00010031871 0.0001014957 5.0637728e-08)
(-0.00046280777 0.0003070366 6.3906062e-06)
(-0.0010608687 0.00049345318 1.2412355e-05)
(-0.0018555645 0.00063914187 1.7057413e-05)
(-0.0028007418 0.00074115168 1.9450374e-05)
(-0.0038483307 0.00080382563 1.9050637e-05)
(-0.0049546097 0.00083383085 1.557138e-05)
(-0.0060826795 0.00083785121 8.8915921e-06)
(-0.0072025258 0.0008216711 -9.9771902e-07)
(-0.0082902094 0.00078989968 -1.4030866e-05)
(-0.0093267435 0.00074598479 -3.0093301e-05)
(-0.010296928 0.00069236471 -4.9037276e-05)
(-0.011188307 0.00063067671 -7.068989e-05)
(-0.011990339 0.00056197299 -9.4856023e-05)
(-0.012693786 0.00048691683 -0.00012131807)
(-0.013290313 0.0004059459 -0.00014983398)
(-0.013772267 0.00031940075 -0.00018013459)
(-0.014132593 0.00022762265 -0.00021192111)
(-0.014364863 0.00013102601 -0.00024486312)
(-0.014463389 3.0154475e-05 -0.00027859758)
(-0.014423402 -7.4274044e-05 -0.00031272894)
(-0.014241296 -0.00018132327 -0.00034683117)
(-0.013914917 -0.00028980003 -0.00038045072)
(-0.013443925 -0.00039820801 -0.00041311205)
(-0.012830208 -0.00050469636 -0.00044432508)
(-0.012078366 -0.00060700153 -0.00047359494)
(-0.011196275 -0.00070238526 -0.00050043449)
(-0.010195715 -0.00078757118 -0.00052437982)
(-0.0090930616 -0.00085869161 -0.00054500896)
(-0.0079099937 -0.00091125735 -0.00056196428)
(-0.0066741726 -0.00094017053 -0.0005749789)
(-0.0054197694 -0.00093981169 -0.00058390759)
(-0.004187684 -0.00090424902 -0.0005887624)
(-0.0030252313 -0.00082767831 -0.00058975198)
(-0.0019848343 -0.00070540529 -0.00058732711)
(-0.0011203573 -0.00053609261 -0.00058224829)
(-0.00047983678 -0.000326491 -0.00057563657)
(-9.9162467e-05 -0.00010247413 -0.00056878913)
(1.1302958e-05 5.8885324e-05 -0.00052408222)
(-3.3648352e-05 4.0402108e-05 -1.2932961e-05)
(-0.00030832394 0.00046388911 -6.221508e-06)
(-0.00096350387 0.00095641693 2.1312769e-07)
(-0.0019359193 0.0014013213 5.4533553e-06)
(-0.0031693067 0.0017567008 9.1597418e-06)
(-0.0046049956 0.0020123699 1.0705641e-05)
(-0.006180368 0.0021739182 9.6719271e-06)
(-0.0078366319 0.0022538556 5.8232888e-06)
(-0.0095226219 0.0022663958 -9.5866655e-07)
(-0.011195479 0.0022248197 -1.0705431e-05)
(-0.012820103 0.0021403306 -2.3383436e-05)
(-0.01436804 0.0020217288 -3.8911618e-05)
(-0.01581614 0.0018755445 -5.7172963e-05)
(-0.017145274 0.0017064034 -7.8020872e-05)
(-0.018339255 0.0015174751 -0.00010128189)
(-0.019384012 0.0013109184 -0.00012675605)
(-0.020267023 0.0010882724 -0.0001542158)
(-0.020976982 0.00085077781 -0.00018340435)
(-0.021503655 0.00059962984 -0.00021403401)
(-0.021837897 0.00033617304 -0.00024578498)
(-0.021971787 6.2053813e-05 -0.00027830492)
(-0.021898866 -0.00022065218 -0.00031120997)
(-0.021614467 -0.00050932124 -0.00034408641)
(-0.02111613 -0.00080067261 -0.00037649508)
(-0.020404101 -0.0010906442 -0.00040797689)
(-0.019481922 -0.0013742597 -0.00043806089)
(-0.018357116 -0.0016454843 -0.00046627462)
(-0.017041967 -0.0018970772 -0.00049215713)
(-0.015554382 -0.0021204594 -0.00051527486)
(-0.013918797 -0.0023056259 -0.0005352402)
(-0.012167076 -0.0024411514 -0.00055173305)
(-0.010339269 -0.002514355 -0.00056452485)
(-0.0084840855 -0.0025117236 -0.00057350479)
(-0.0066587958 -0.0024197429 -0.00057870697)
(-0.0049282985 -0.0022263994 -0.00058033404)
(-0.0033628259 -0.0019239272 -0.00057877908)
(-0.0020325839 -0.0015138145 -0.00057467297)
(-0.00099867913 -0.0010150921 -0.00056887726)
(-0.00031389167 -0.00047953242 -0.00056194665)
(-3.2608043e-05 -3.461865e-05 -0.00051560698)
(-7.3049712e-05 0.00024869441 -2.1118801e-05)
(-0.00050604081 0.0010712302 -1.2228442e-05)
(-0.0014409444 0.0019350531 -4.7430391e-06)
(-0.002760046 0.0027016299 6.3741572e-07)
(-0.0043841229 0.003314875 4.168545e-06)
(-0.006242926 0.0037593452 5.4277596e-06)
(-0.0082630474 0.0040424405 4.1237115e-06)
(-0.010375343 0.0041829228 1.0330968e-07)
(-0.012519004 0.0042032911 -6.7143679e-06)
(-0.014642313 0.0041254174 -1.6352342e-05)
(-0.016702224 0.0039683575 -2.8784629e-05)
(-0.018663302 0.003747521 -4.3945921e-05)
(-0.020496372 0.0034746764 -6.1738175e-05)
(-0.022177136 0.0031584222 -8.2034067e-05)
(-0.023684978 0.0028048637 -0.0001046782)
(-0.025002025 0.0024183259 -0.00012948682)
(-0.026112482 0.0020020089 -0.00015624668)
(-0.027002224 0.0015585407 -0.00018471353)
(-0.027658608 0.0010904215 -0.00021461072)
(-0.028070476 0.00060037735 -0.00024562829)
(-0.0282283 9.1640497e-05 -0.00027742282)
(-0.028124456 -0.0004318116 -0.0003096186)
(-0.027753613 -0.00096504224 -0.00034180958)
(-0.027113241 -0.0015019413 -0.00037356405)
(-0.026204202 -0.0020350036 -0.00040443034)
(-0.025031482 -0.0025550914 -0.00043394526)
(-0.023605005 -0.0030511873 -0.00046164479)
(-0.021940576 -0.0035101551 -0.00048707744)
(-0.020060876 -0.0039165465 -0.00050982025)
(-0.017996498 -0.0042525142 -0.00052949726)
(-0.015786909 -0.0044979236 -0.00054580009)
(-0.013481203 -0.0046307874 -0.00055850982)
(-0.011138427 -0.0046281971 -0.00056751928)
(-0.0088272186 -0.004467989 -0.0005728532)
(-0.0066244993 -0.0041315085 -0.00057467969)
(-0.0046128428 -0.0036081264 -0.00057331675)
(-0.002874576 -0.0029024637 -0.00056927891)
(-0.0014828199 -0.0020448714 -0.00056323847)
(-0.0005127584 -0.0011077201 -0.00055516781)
(-7.1834384e-05 -0.00024531345 -0.00050663724)
(-0.00010458172 0.00055541138 -2.8053231e-05)
(-0.0006753331 0.0018991313 -1.6885557e-05)
(-0.0018615626 0.0032088291 -8.078927e-06)
(-0.0034918075 0.0043447816 -2.1870047e-06)
(-0.0054618006 0.0052470336 1.5200228e-06)
(-0.0076887983 0.0059000036 2.778169e-06)
(-0.010089553 0.0063152599 1.4091187e-06)
(-0.012586684 0.0065188921 -2.6573749e-06)
(-0.015112328 0.0065423506 -9.456334e-06)
(-0.017608505 0.0064167187 -1.8991383e-05)
(-0.020026561 0.0061695696 -3.123371e-05)
(-0.022326087 0.0058236143 -4.6125212e-05)
(-0.02447353 0.0053965361 -6.3580561e-05)
(-0.026440771 0.0049015324 -8.3487566e-05)
(-0.028203871 0.0043482001 -0.00010570645)
(-0.029742068 0.0037435169 -0.00013006846)
(-0.031037057 0.0030927679 -0.00015637413)
(-0.032072536 0.0024003473 -0.00018439147)
(-0.032833994 0.001670415 -0.00021385449)
(-0.033308691 0.00090742737 -0.00024446211)
(-0.033485814 0.00011656909 -0.00027587817)
(-0.033356782 -0.00069587724 -0.00030773229)
(-0.032915678 -0.0015221957 -0.00033962231)
(-0.03215982 -0.0023529024 -0.00037111853)
(-0.031090449 -0.0031764057 -0.0004017698)
(-0.029713556 -0.0039786508 -0.00043111212)
(-0.02804082 -0.0047427615 -0.00045867962)
(-0.026090661 -0.0054487138 -0.00048401836)
(-0.023889352 -0.0060731009 -0.00050670258)
(-0.021472129 -0.0065890885 -0.00052635317)
(-0.018884189 -0.0069666944 -0.00054265789)
(-0.016181419 -0.0071735772 -0.00055539174)
(-0.013430624 -0.0071765644 -0.00056443646)
(-0.010709009 -0.006944209 -0.00056979575)
(-0.0081027991 -0.0064507531 -0.00057159798)
(-0.0057047323 -0.0056820647 -0.00057009306)
(-0.0036083061 -0.0046442161 -0.00056570592)
(-0.0018995893 -0.0033746605 -0.00055898183)
(-0.0006779293 -0.0019571457 -0.00054946309)
(-0.00010182596 -0.00055352609 -0.00049869497)
(-0.00012876322 0.00094361393 -3.2601631e-05)
(-0.00081490769 0.0029189846 -1.9226249e-05)
(-0.0022197574 0.0047454708 -9.0453725e-06)
(-0.0041241465 0.0062947951 -2.4500389e-06)
(-0.0063993147 0.0075122029 1.647605e-06)
(-0.0089492808 0.0083877428 3.0972547e-06)
(-0.011680936 0.0089405198 1.8111148e-06)
(-0.014509409 0.0092058423 -2.2080766e-06)
(-0.017361038 0.009225223 -8.9503241e-06)
(-0.020173085 0.0090397004 -1.8396082e-05)
(-0.022892833 0.0086859465 -3.0508318e-05)
(-0.025476339 0.0081944796 -4.5230767e-05)
(-0.027886953 0.0075893547 -6.2486285e-05)
(-0.030093827 0.0068887807 -8.217439e-05)
(-0.032070612 0.0061062143 -0.00010416857)
(-0.033794404 0.0052516097 -0.00012831355)
(-0.035244989 0.0043326226 -0.00015442262)
(-0.036404357 0.0033556688 -0.00018227524)
(-0.037256464 0.0023268062 -0.00021161509)
(-0.037787206 0.0012524567 -0.00024214865)
(-0.037984584 0.00014000652 -0.00027354484)
(-0.037839021 -0.0010016746 -0.00030543575)
(-0.03734385 -0.0021617547 -0.00033741879)
(-0.036495936 -0.0033269686 -0.00036906077)
(-0.035296464 -0.0044811404 -0.00039990409)
(-0.033751852 -0.0056046951 -0.00042947546)
(-0.03187482 -0.0066741851 -0.00045729719)
(-0.029685557 -0.0076618794 -0.00048290149)
(-0.027212942 -0.0085355063 -0.00050584728)
(-0.024495749 -0.0092582831 -0.00052573924)
(-0.021583696 -0.0097894113 -0.0005422481)
(-0.018538181 -0.010085266 -0.00055513061)
(-0.015432492 -0.010101551 -0.00056424768)
(-0.012351261 -0.0097967115 -0.00056957696)
(-0.0093891728 -0.0091369412 -0.0005712102)
(-0.0066487902 -0.008103174 -0.00056934512)
(-0.0042351225 -0.0067003582 -0.00056434958)
(-0.0022480512 -0.0049684478 -0.00055670143)
(-0.00081015281 -0.0029950915 -0.00054565327)
(-0.00012359983 -0.00093940808 -0.00049276484)
(-0.00014738163 0.0013975839 -3.4060734e-05)
(-0.00092964904 0.0041019042 -1.855329e-05)
(-0.0025231291 0.0065112068 -7.0426836e-06)
(-0.004668448 0.0085155127 3.4158367e-07)
(-0.0072143076 0.01007208 4.9506689e-06)
(-0.010051358 0.01118185 6.7108144e-06)
(-0.013076463 0.011875102 5.6024567e-06)
(-0.016197419 0.01219873 1.6882616e-06)
(-0.01933527 0.012205811 -4.9819602e-06)
(-0.022423294 0.011948305 -1.4365918e-05)
(-0.025405636 0.011472628 -2.641641e-05)
(-0.028235781 0.010817569 -4.1076195e-05)
(-0.030874893 0.010013901 -5.8273469e-05)
(-0.033290219 0.0090851215 -7.7917044e-05)
(-0.035453695 0.0080487681 -9.9891814e-05)
(-0.03734085 0.0069179522 -0.00012405459)
(-0.038930003 0.0057028481 -0.0001502304)
(-0.040201744 0.0044120159 -0.0001782092)
(-0.041138676 0.0030535195 -0.00020774321)
(-0.041725383 0.001635854 -0.00023854496)
(-0.04194859 0.00016872771 -0.00027028631)
(-0.041797516 -0.0013362488 -0.00030259874)
(-0.041264394 -0.0028649201 -0.00033507502)
(-0.040345177 -0.0043999554 -0.00036727305)
(-0.039040406 -0.0059202126 -0.0003987219)
(-0.037356259 -0.0074000995 -0.0004289306)
(-0.03530575 -0.0088089726 -0.0004573999)
(-0.032910049 -0.010110643 -0.00048363722)
(-0.030199853 -0.011263111 -0.00050717436)
(-0.027216722 -0.012218691 -0.00052758767)
(-0.024014232 -0.01292476 -0.00054451935)
(-0.020658779 -0.013325376 -0.00055769812)
(-0.01722983 -0.013364061 -0.00056695759)
(-0.013819425 -0.012988025 -0.00057224801)
(-0.010531015 -0.012154072 -0.00057363142)
(-0.0074775926 -0.010836391 -0.00057127186)
(-0.0047764265 -0.0090361856 -0.00056551165)
(-0.0025416154 -0.0067921784 -0.00055681112)
(-0.00091679614 -0.0041912337 -0.00054424441)
(-0.00013947821 -0.0013859838 -0.00048934497)
(-0.00016225612 0.0019053094 -3.2002423e-05)
(-0.0010262596 0.005423958 -1.4369117e-05)
(-0.0027848072 0.0084771586 -1.6087004e-06)
(-0.0051449158 0.010976311 6.5842062e-06)
(-0.0079350727 0.012895377 1.175796e-05)
(-0.011032905 0.014250528 1.3888379e-05)
(-0.014325205 0.015086672 1.3005615e-05)
(-0.017712403 0.015464822 9.2196489e-06)
(-0.021110379 0.015451376 2.6133774e-06)
(-0.024448769 0.015110385 -6.7508861e-06)
(-0.027669084 0.014498781 -1.8816145e-05)
(-0.030722829 0.013664114 -3.3523361e-05)
(-0.0335696 0.012644197 -5.0804787e-05)
(-0.036175313 0.011468014 -7.0577221e-05)
(-0.038510705 0.010157304 -9.2735851e-05)
(-0.040550151 0.0087283993 -0.0001171487)
(-0.042270804 0.0071940167 -0.0001436518)
(-0.043652038 0.005564855 -0.00017204487)
(-0.044675159 0.0038509605 -0.00020208778)
(-0.045323358 0.0020628742 -0.00023349778)
(-0.045581872 0.00021261375 -0.00026594777)
(-0.045438362 -0.0016854464 -0.00029906578)
(-0.044883485 -0.0036137448 -0.00033243604)
(-0.043911676 -0.0055507116 -0.00036560231)
(-0.042522145 -0.0074699459 -0.0003980737)
(-0.040720066 -0.0093394005 -0.00042933346)
(-0.038517969 -0.011120635 -0.0004588512)
(-0.035937255 -0.012768226 -0.00048609878)
(-0.033009787 -0.014229501 -0.00051056943)
(-0.029779422 -0.015444782 -0.00053179968)
(-0.026303338 -0.016348412 -0.00054939259)
(-0.022652969 -0.016870839 -0.00056304041)
(-0.018914339 -0.016942046 -0.00057254462)
(-0.015187619 -0.016496561 -0.00057782882)
(-0.011586036 -0.015480208 -0.00057893354)
(-0.0082341228 -0.013858587 -0.00057600715)
(-0.0052623156 -0.011626989 -0.00056939386)
(-0.0027990822 -0.0088204945 -0.00055957509)
(-0.0010068795 -0.0055230959 -0.00054552282)
(-0.00015173468 -0.001881409 -0.00048863578)
(-0.00017491026 0.0024588164 -2.6148189e-05)
(-0.0011113599 0.0068681775 -6.2971154e-06)
(-0.0030191728 0.010622428 7.6404766e-06)
(-0.0055765094 0.013655246 1.6634541e-05)
(-0.0085936315 0.015960361 2.2389352e-05)
(-0.011935652 0.017572596 2.4912252e-05)
(-0.015479339 0.018554586 2.4269404e-05)
(-0.019117673 0.018983982 2.0607916e-05)
(-0.02276134 0.018942391 1.4037534e-05)
(-0.026336441 0.018507293 4.6372888e-06)
(-0.029782102 0.017747029 -7.5275054e-06)
(-0.033048197 0.016718479 -2.2396356e-05)
(-0.036093153 0.015466828 -3.9905389e-05)
(-0.038881962 0.014026715 -5.9979044e-05)
(-0.041384521 0.012424135 -8.2522462e-05)
(-0.043574346 0.010678616 -0.00010741464)
(-0.045427629 0.008805331 -0.00013450238)
(-0.046922619 0.006816991 -0.00016359494)
(-0.048039293 0.0047254718 -0.00019445944)
(-0.048759278 0.0025431966 -0.00022681702)
(-0.049066016 0.00028434111 -0.00026034013)
(-0.048945155 -0.0020340696 -0.00029465101)
(-0.048385184 -0.0043911084 -0.00032932191)
(-0.047378311 -0.0067608981 -0.00036387762)
(-0.0459216 -0.0091115593 -0.00039780086)
(-0.044018369 -0.011404181 -0.00043054101)
(-0.041679806 -0.01359189 -0.00046152693)
(-0.038926781 -0.015619157 -0.00049018391)
(-0.035791719 -0.017421512 -0.00051595476)
(-0.032320434 -0.018925937 -0.00053832423)
(-0.028573709 -0.02005221 -0.00055684531)
(-0.024628428 -0.020715504 -0.00057116525)
(-0.020578013 -0.020830524 -0.00058104872)
(-0.016532002 -0.020317362 -0.00058639333)
(-0.012614894 -0.019109115 -0.00058722592)
(-0.0089642713 -0.017161106 -0.00058369492)
(-0.0057248875 -0.014461196 -0.00057616958)
(-0.0030398682 -0.011039736 -0.00056518216)
(-0.0010889329 -0.0069778225 -0.00054964998)
(-0.00016221462 -0.002419008 -0.00049068309)
(-0.00018654585 0.0030536445 -1.6295145e-05)
(-0.0011908117 0.008424568 5.9676674e-06)
(-0.0032398324 0.012934588 2.1038239e-05)
(-0.0059856444 0.016539511 3.0822822e-05)
(-0.0092215718 0.019254864 3.7159613e-05)
(-0.012800603 0.021136847 4.0076418e-05)
(-0.016589507 0.022268585 3.9666398e-05)
(-0.020473695 0.022746802 3.6106736e-05)
(-0.02435856 0.022670274 2.9529299e-05)
(-0.028166662 0.022131364 2.0026938e-05)
(-0.031834851 0.021210831 7.6716239e-06)
(-0.035311586 0.019975535 -7.4756413e-06)
(-0.038554397 0.018478401 -2.535542e-05)
(-0.04152764 0.016759884 -4.5900186e-05)
(-0.044200653 0.014850251 -6.9025426e-05)
(-0.046546314 0.012772126 -9.4621576e-05)
(-0.048539997 0.010542957 -0.00012254675)
(-0.050158868 0.0081772275 -0.0001526202)
(-0.051381493 0.0056883594 -0.00018461656)
(-0.05218772 0.0030903543 -0.00021826082)
(-0.052558818 0.00039924656 -0.00025322426)
(-0.052477897 -0.0023655473 -0.00028912173)
(-0.051930588 -0.0051799119 -0.00032551065)
(-0.050906044 -0.0080137062 -0.0003618925)
(-0.049398254 -0.010829426 -0.00039771751)
(-0.047407679 -0.013580903 -0.00043239318)
(-0.044943191 -0.016212141 -0.00046529755)
(-0.042024251 -0.018656475 -0.0004957976)
(-0.038683196 -0.020836269 -0.00052327271)
(-0.034967476 -0.022663472 -0.00054714256)
(-0.030941596 -0.024041333 -0.00056689766)
(-0.026688521 -0.024867618 -0.00058213013)
(-0.022310239 -0.025039569 -0.00059256165)
(-0.017927289 -0.02446074 -0.00059806324)
(-0.013677384 -0.023049623 -0.00059865403)
(-0.0097131168 -0.020749779 -0.00059449573)
(-0.0061951548 -0.017540763 -0.00058600217)
(-0.0032820711 -0.013448236 -0.00057378049)
(-0.0011703605 -0.0085518742 -0.00055672032)
(-0.00017232387 -0.002996489 -0.00049546111)
(-0.00019809162 0.0036882467 -2.268787e-06)
(-0.001269554 0.010089471 2.2695484e-05)
(-0.0034588006 0.01540927 3.8891009e-05)
(-0.0063926141 0.019625095 4.9464979e-05)
(-0.0098478395 0.022775778 5.6382099e-05)
(-0.013665431 0.024941211 5.9684892e-05)
(-0.01770204 0.026227552 5.9488551e-05)
(-0.021835333 0.026752987 5.5996421e-05)
(-0.025965258 0.026635465 4.9359688e-05)
(-0.030010785 0.025983788 3.968301e-05)
(-0.03390655 0.024892247 2.7043568e-05)
(-0.037599747 0.023438407 1.1501752e-05)
(-0.04104723 0.021683349 -6.8884225e-06)
(-0.04421297 0.019673516 -2.8068506e-05)
(-0.047065983 0.017443428 -5.1965465e-05)
(-0.049578718 0.015018649 -7.8482395e-05)
(-0.051725862 0.012418639 -0.00010749006)
(-0.053483536 0.0096592999 -0.00013881912)
(-0.054828806 0.0067551837 -0.00017225297)
(-0.055739503 0.0037214167 -0.00020752135)
(-0.056194325 0.00057543046 -0.00024429473)
(-0.056173256 -0.0026613945 -0.00028217997)
(-0.055658304 -0.0059620927 -0.00032071781)
(-0.054634622 -0.0092924409 -0.00035938286)
(-0.05309203 -0.012609259 -0.00039758721)
(-0.051026953 -0.015858754 -0.00043468838)
(-0.048444761 -0.018975055 -0.00047000308)
(-0.04536243 -0.02187916 -0.00050282707)
(-0.041811373 -0.024478595 -0.00053246156)
(-0.037840231 -0.026668153 -0.00055824549)
(-0.033517324 -0.028332068 -0.00057959172)
(-0.028932422 -0.029347985 -0.00059602417)
(-0.024197479 -0.02959294 -0.00060721255)
(-0.019446041 -0.028951408 -0.00061299799)
(-0.014831466 -0.027325206 -0.00061339547)
(-0.01052392 -0.024644785 -0.00060859053)
(-0.0067022702 -0.020881049 -0.0005990588)
(-0.0035421163 -0.01605592 -0.00058550364)
(-0.0012574778 -0.010250226 -0.0005668006)
(-0.00018312244 -0.0036151619 -0.0005029202)
(-0.00021026033 0.0043634462 1.6108735e-05)
(-0.0013516454 0.011864723 4.4150936e-05)
(-0.0036863016 0.018049351 6.1500664e-05)
(-0.006815033 0.02291603 7.2878657e-05)
(-0.010497833 0.026528262 8.0379553e-05)
(-0.014563315 0.028991814 8.4058794e-05)
(-0.018857685 0.030438363 8.4052072e-05)
(-0.023250573 0.031009962 8.0587821e-05)
(-0.027636298 0.030845825 7.3835607e-05)
(-0.031930176 0.030072855 6.391103e-05)
(-0.036064685 0.028800089 5.0895542e-05)
(-0.039985915 0.02711661 3.4847811e-05)
(-0.043650267 0.025092113 1.5815135e-05)
(-0.047021594 0.022779219 -6.154631e-06)
(-0.050068858 0.020216669 -3.1001735e-05)
(-0.052764307 0.017432758 -5.8644016e-05)
(-0.055082119 0.01444861 -8.8967192e-05)
(-0.056997441 0.011281083 -0.00012181574)
(-0.05848579 0.0079453063 -0.00015698429)
(-0.059522771 0.0044569118 -0.00019420955)
(-0.060084112 0.00083408014 -0.00023316287)
(-0.06014606 -0.0029004711 -0.00027344399)
(-0.059686156 -0.0067174649 -0.00031457643)
(-0.058684483 -0.010578961 -0.0003560055)
(-0.057125417 -0.014436193 -0.00039710023)
(-0.054999921 -0.018227448 -0.00043716038)
(-0.052308378 -0.021876185 -0.00047543021)
(-0.049063867 -0.025289691 -0.00051111991)
(-0.045295711 -0.028358647 -0.00054343538)
(-0.04105302 -0.030958071 -0.00057161589)
(-0.036407829 -0.03295005 -0.00059497736)
(-0.031457408 -0.034188664 -0.00061295808)
(-0.026325231 -0.034527274 -0.00062516235)
(-0.021160239 -0.033828136 -0.00063139418)
(-0.016134472 -0.031973956 -0.00063166462)
(-0.011439028 -0.028880725 -0.00062619108)
(-0.007274214 -0.024510753 -0.00061552701)
(-0.0038352754 -0.018883912 -0.00060049344)
(-0.0013558434 -0.012085655 -0.00057995754)
(-0.00019543663 -0.0042793487 -0.00051301322)
(-0.00022360222 0.0050819745 3.9039547e-05)
(-0.0014404003 0.013756796 7.0614756e-05)
(-0.0039309139 0.020863995 8.9183369e-05)
(-0.0072679044 0.02642343 0.00010139829)
(-0.011193367 0.030524762 0.00010949577)
(-0.015522833 0.03330192 0.00011354531)
(-0.020091466 0.03491469 0.00011370438)
(-0.024760437 0.035531532 0.00011022796)
(-0.029418209 0.035315157 0.00010330491)
(-0.033976384 0.034412365 9.3062024e-05)
(-0.038365375 0.032948277 7.9584676e-05)
(-0.042530371 0.031024387 6.2928911e-05)
(-0.046427609 0.02871953 4.3133846e-05)
(-0.05002115 0.026092711 2.0234766e-05)
(-0.053280241 0.023186846 -5.7243044e-06)
(-0.056177249 0.020032716 -3.4678859e-05)
(-0.058686095 0.016652678 -6.6532893e-05)
(-0.060781119 0.013063974 -0.00010114835)
(-0.062436323 0.0092816114 -0.00013833492)
(-0.063624946 0.0053209241 -0.00017784009)
(-0.064319393 0.0011999781 -0.0002193396)
(-0.064491565 -0.0030580422 -0.00026242877)
(-0.064113646 -0.0074223456 -0.00030661527)
(-0.063159448 -0.011851891 -0.00035131431)
(-0.061606413 -0.016292632 -0.00039584828)
(-0.059438303 -0.020674781 -0.00043945198)
(-0.056648624 -0.024910359 -0.00048128582)
(-0.053244672 -0.02889142 -0.00052045856)
(-0.049252007 -0.032489448 -0.00055606076)
(-0.044718989 -0.035556494 -0.00058720872)
(-0.039720895 -0.037928591 -0.00061309676)
(-0.034362992 -0.039431883 -0.00063305386)
(-0.028781908 -0.039891611 -0.00064659924)
(-0.023144764 -0.039143795 -0.00065348679)
(-0.017646057 -0.037048984 -0.00065371938)
(-0.012502223 -0.033507135 -0.00064755165)
(-0.0079395053 -0.028472263 -0.00063563065)
(-0.0041767458 -0.021964543 -0.00061891871)
(-0.0014707574 -0.014078417 -0.00059627634)
(-0.00020997432 -0.0049960483 -0.00052570723)
(-0.00023855454 0.0058481107 6.6763858e-05)
(-0.0015385723 0.015776063 0.0001024001)
(-0.0041999053 0.02386776 0.00012228495)
(-0.0077640663 0.03016453 0.00013538847)
(-0.011953184 0.034784011 0.00014410664)
(-0.016568528 0.037890862 0.00014852659)
(-0.02143333 0.03967585 0.00014883122)
(-0.026399732 0.040336624 0.00014530587)
(-0.031350059 0.040061845 0.00013816126)
(-0.036192166 0.039020194 0.00012753679)
(-0.040854551 0.037354353 0.00011352211)
(-0.045281794 0.035179232 9.616997e-05)
(-0.049430351 0.032583394 7.5509763e-05)
(-0.053264933 0.029632466 5.1561876e-05)
(-0.056755527 0.026373496 2.435155e-05)
(-0.059875059 0.022839455 -6.0780913e-06)
(-0.062597587 0.019053442 -3.9653675e-05)
(-0.06489695 0.015032397 -7.6259566e-05)
(-0.066745803 0.010790343 -0.00011572593)
(-0.068115004 0.0063413151 -0.00015781678)
(-0.068973383 0.0017021474 -0.00020221795)
(-0.06928794 -0.0031046765 -0.00024852542)
(-0.069024586 -0.0080479813 -0.0002962349)
(-0.068149556 -0.013084588 -0.00034473324)
(-0.066631629 -0.018155801 -0.00039329468)
(-0.064445261 -0.023183862 -0.00044108326)
(-0.061574675 -0.028068712 -0.00048716441)
(-0.058018854 -0.032685588 -0.00053052832)
(-0.053797182 -0.036884094 -0.000570127)
(-0.048955319 -0.040489498 -0.00060492533)
(-0.043570657 -0.043306938 -0.00063396426)
(-0.037756536 -0.045129058 -0.00065643151)
(-0.031664311 -0.045747218 -0.00067173269)
(-0.025482461 -0.044965916 -0.00067955053)
(-0.019432595 -0.042619495 -0.00067986918)
(-0.013762245 -0.038589777 -0.00067298205)
(-0.0087297321 -0.032822839 -0.00065964585)
(-0.0045831664 -0.025342149 -0.00064099183)
(-0.0016078918 -0.016256566 -0.00061587385)
(-0.00022744646 -0.0057749093 -0.00054098655)
(-0.00025548706 0.0066674321 9.9569275e-05)
(-0.0016485591 0.017936249 0.00013986525)
(-0.0044996703 0.027079889 0.00016119389)
(-0.0083148506 0.034161897 0.00017525594)
(-0.012793809 0.039330161 0.00018463067)
(-0.017721917 0.042783106 0.00018942855)
(-0.022909291 0.044745771 0.00018986391)
(-0.028198314 0.045448158 0.00018625834)
(-0.03346485 0.045107638 0.00017884875)
(-0.038613009 0.043917003 0.00016778976)
(-0.043569611 0.042038156 0.00015317627)
(-0.048279033 0.039600554 0.00013505743)
(-0.052698471 0.036703155 0.00011345137)
(-0.056793868 0.033418494 8.8361e-05)
(-0.06053657 0.029797705 5.9789216e-05)
(-0.063900676 0.025875639 2.7753297e-05)
(-0.066860954 0.021675571 -7.7013995e-06)
(-0.069391238 0.017213342 -4.6487949e-05)
(-0.071463204 0.012500977 -8.8464184e-05)
(-0.073045509 0.0075499822 -0.00013341855)
(-0.074103315 0.0023745563 -0.00018105526)
(-0.074598291 -0.0030050454 -0.00023097914)
(-0.074489203 -0.0085588159 -0.00028268124)
(-0.073733324 -0.014242867 -0.00033552522)
(-0.072288828 -0.019994964 -0.00038873905)
(-0.070118339 -0.025729902 -0.00044141283)
(-0.067193774 -0.0313352 -0.00049250724)
(-0.063502435 -0.036667765 -0.00054087624)
(-0.059054131 -0.041552396 -0.00058530702)
(-0.053888789 -0.045783103 -0.00062457871)
(-0.048083782 -0.049128187 -0.00065753849)
(-0.041759844 -0.051339726 -0.00068318986)
(-0.035084309 -0.052167645 -0.00070078424)
(-0.0282705 -0.051377804 -0.00070990047)
(-0.02157283 -0.048772726 -0.00071048401)
(-0.01527737 -0.044213005 -0.000702863)
(-0.0096828288 -0.037636951 -0.0006879196)
(-0.0050745478 -0.029074977 -0.00066698683)
(-0.0017740609 -0.01865712 -0.0006389108)
(-0.0002487037 -0.006628573 -0.00055885162)
(-0.00027474486 0.0075466808 0.00013779772)
(-0.0017726143 0.02025412 0.00018342432)
(-0.0048362179 0.030523872 0.00020635307)
(-0.0089308549 0.038442881 0.0002214609)
(-0.013730564 0.044192133 0.00023153922)
(-0.01900272 0.04800748 0.00023672971)
(-0.024542829 0.050152107 0.00023728649)
(-0.030182625 0.050892045 0.00023357564)
(-0.035791163 0.050476548 0.00022586632)
(-0.041268863 0.049125058 0.00021433213)
(-0.04654122 0.047020585 0.00019907513)
(-0.051552961 0.04430842 0.00018014092)
(-0.056262706 0.04109868 0.00015753493)
(-0.060638396 0.037471144 0.0001312399)
(-0.064653549 0.033481016 0.0001012325)
(-0.068284259 0.029164695 6.7499111e-05)
(-0.071506812 0.02454502 3.0050779e-05)
(-0.074295779 0.01963584 -1.1061876e-05)
(-0.076622488 0.014446004 -5.5733311e-05)
(-0.078453837 0.0089830322 -0.00010378667)
(-0.079751494 0.00325676 -0.00015495591)
(-0.080471575 -0.0027167326 -0.00020886654)
(-0.080564974 -0.008910688 -0.00026501665)
(-0.079978631 -0.015282547 -0.00032275676)
(-0.078657994 -0.021768308 -0.00038127544)
(-0.076550919 -0.028276507 -0.00043959019)
(-0.073613284 -0.034682444 -0.00049655039)
(-0.069816337 -0.040823493 -0.00055085711)
(-0.0651556 -0.046496639 -0.00060110437)
(-0.059660754 -0.051459555 -0.00064584517)
(-0.053405509 -0.055436513 -0.00068368219)
(-0.046516039 -0.058130068 -0.00071337762)
(-0.039176188 -0.059238771 -0.0007339716)
(-0.031627698 -0.058480118 -0.00074488978)
(-0.024164562 -0.055616809 -0.00074600457)
(-0.017120942 -0.050483431 -0.00073766534)
(-0.010847089 -0.043010102 -0.00072089353)
(-0.0056766424 -0.033238478 -0.00069726259)
(-0.001978162 -0.021328287 -0.00066560763)
(-0.00027489998 -0.007573462 -0.00057931825)
(-0.00029669 0.0084937449 0.0001818516)
(-0.0019130666 0.022749414 0.00023355753)
(-0.0052156878 0.034227297 0.00025827129)
(-0.0096227739 0.043039349 0.00027452843)
(-0.014778682 0.04940321 0.00028536691)
(-0.02043019 0.053596602 0.00029097009)
(-0.026356373 0.055925505 0.00029164299)
(-0.032377286 0.056696303 0.00028780695)
(-0.038354815 0.056193829 0.00027977142)
(-0.044185832 0.054667103 0.00026773423)
(-0.049795004 0.0523224 0.00025180727)
(-0.055128136 0.049322306 0.00023203321)
(-0.060146153 0.045788982 0.0002084037)
(-0.064819974 0.041809859 0.00018087865)
(-0.06912632 0.037444227 0.00014940452)
(-0.073044354 0.032729714 0.00011393138)
(-0.076552954 0.027688078 7.4429064e-05)
(-0.079628477 0.022330208 3.0903205e-05)
(-0.082242865 0.016660463 -1.6587894e-05)
(-0.084362062 0.010680688 -6.7914787e-05)
(-0.085944772 0.0043942913 -0.0001228558)
(-0.086941697 -0.0021892482 -0.00018107319)
(-0.087295403 -0.0090491351 -0.00024208953)
(-0.086941277 -0.01614695 -0.00030525854)
(-0.085809873 -0.023419595 -0.0003697435)
(-0.083830998 -0.030771493 -0.00043449776)
(-0.080940025 -0.038066828 -0.00049825905)
(-0.077086602 -0.045122911 -0.00055956274)
(-0.072245645 -0.051706136 -0.00061678131)
(-0.066430078 -0.057532309 -0.00066819604)
(-0.059704162 -0.062273169 -0.00071210291)
(-0.052195565 -0.065570511 -0.00074694812)
(-0.044103755 -0.067058417 -0.00077148123)
(-0.0357021 -0.066392643 -0.00078490144)
(-0.02733197 -0.063284483 -0.00078695179)
(-0.019387671 -0.05753497 -0.00077797345)
(-0.012285853 -0.049064324 -0.00075913534)
(-0.0064237672 -0.037930283 -0.00073229538)
(-0.0022323127 -0.024332979 -0.00069626933)
(-0.00030769478 -0.0086311121 -0.00060242255)
(-0.00032174426 0.0095177577 0.00023220066)
(-0.0020725482 0.025445036 0.00029082244)