/*--------------------------------*- C++ -*----------------------------------*\
  =========                 |
  \\      /  F ield         | OpenFOAM: The Open Source CFD Toolbox
   \\    /   O peration     | Website:  https://openfoam.org
    \\  /    A nd           | Version:  7
     \\/     M anipulation  |
\*---------------------------------------------------------------------------*/
FoamFile
{
    version     2.0;
    format      ascii;
    class       volVectorField;
    location    "1";
    object      U_0;
}
// * * * * * * * * * * * * * * * * * * * * * * * * * * * * * * * * * * * * * //

dimensions      [0 1 -1 0 0 0 0];

internalField   nonuniform List<vector> 
16000
(
(3.4095604e-05 -3.3965274e-05 -5.9986737e-10)
(5.1763434e-05 -7.5781989e-06 5.0127465e-06)
(-4.3480016e-05 3.5025378e-05 1.289281e-05)
(-0.00025162211 7.3152329e-05 2.0776651e-05)
(-0.00054928937 0.00010124017 2.7180311e-05)
(-0.00091263615 0.00011958613 3.1014422e-05)
(-0.0013184 0.00013001358 3.1699312e-05)
(-0.0017469921 0.0001344388 2.8994e-05)
(-0.0021830009 0.00013446141 2.2854217e-05)
(-0.0026145956 0.00013130047 1.3349678e-05)
(-0.0030327795 0.00012583192 6.1385517e-07)
(-0.0034306805 0.00011865051 -1.5186201e-05)
(-0.0038029312 0.00011013448 -3.3865673e-05)
(-0.0041451721 0.00010050574 -5.5228265e-05)
(-0.0044536822 8.9881353e-05 -7.9066647e-05)
(-0.0047251288 7.8315013e-05 -0.00010515965)
(-0.004956415 6.5828383e-05 -0.00013326802)
(-0.0051446047 5.2434013e-05 -0.00016312995)
(-0.005286906 3.8151549e-05 -0.000194457)
(-0.0053806961 2.3018626e-05 -0.00022693104)
(-0.0054235791 7.0993761e-06 -0.00026020227)
(-0.0054134665 -9.5091243e-06 -0.00029388863)
(-0.0053486796 -2.6671903e-05 -0.00032757661)
(-0.0052280707 -4.4208532e-05 -0.00036082361)
(-0.0050511678 -6.1887025e-05 -0.00039316201)
(-0.0048183426 -7.9414958e-05 -0.00042410498)
(-0.004531007 -9.6429138e-05 -0.00045315459)
(-0.0041918451 -0.00011248309 -0.00047981222)
(-0.003805079 -0.00012703225 -0.00050359196)
(-0.0033767725 -0.00013941851 -0.00052403721)
(-0.0029151673 -0.00014885347 -0.00054074164)
(-0.0024310377 -0.00015440205 -0.00055337523)
(-0.0019380405 -0.00015496751 -0.00056171713)
(-0.001453025 -0.00014927802 -0.00056569748)
(-0.00099626349 -0.00013588734 -0.00056545146)
(-0.00059145163 -0.00011326004 -0.00056139505)
(-0.00026466001 -8.0182138e-05 -0.00055434555)
(-4.0924805e-05 -3.7132363e-05 -0.0005456614)
(5.8224721e-05 9.5216756e-06 -0.00053715288)
(3.7095246e-05 3.6882788e-05 -0.00049736791)
(8.5739944e-06 -5.2161334e-05 -5.0075163e-06)
(-0.00010149144 0.00010267681 5.0836635e-08)
(-0.0004654062 0.0003084009 6.3865086e-06)
(-0.0010649251 0.00049471835 1.238553e-05)
(-0.0018606562 0.00064004667 1.699358e-05)
(-0.0028062553 0.00074153981 1.9336748e-05)
(-0.0038535548 0.00080364756 1.8876538e-05)
(-0.0049588222 0.00083311127 1.532865e-05)
(-0.0060852216 0.00083666077 8.5743425e-06)
(-0.0072028473 0.00082010433 -1.3934972e-06)
(-0.008287891 0.00078805852 -1.4507662e-05)
(-0.0093215015 0.00074396795 -3.0652389e-05)
(-0.010288608 0.00069026228 -4.9678936e-05)
(-0.011176876 0.00062856882 -7.1413548e-05)
(-0.011975869 0.00055993118 -9.5660377e-05)
(-0.012676447 0.00048500657 -0.0001222012)
(-0.013270365 0.00040422921 -0.00015079347)
(-0.013750055 0.00031793802 -0.00018116775)
(-0.014108544 0.00022647333 -0.00021302509)
(-0.014339484 0.00013024782 -0.00024603522)
(-0.014437256 2.9801197e-05 -0.00027983543)
(-0.014397159 -7.4156123e-05 -0.0003140309)
(-0.014215633 -0.00018070019 -0.00034819664)
(-0.013890553 -0.00028865595 -0.00038188043)
(-0.013421579 -0.00039655168 -0.00041460824)
(-0.012810559 -0.00050256758 -0.00044589149)
(-0.012062015 -0.00060447675 -0.00047523673)
(-0.011183691 -0.00069958117 -0.00050215796)
(-0.010187187 -0.00078464465 -0.0005261919)
(-0.009088647 -0.00085583456 -0.00054691651)
(-0.0079094886 -0.00090868519 -0.00056397308)
(-0.0066770924 -0.00093810328 -0.0005770926)
(-0.0054253611 -0.00093844801 -0.00058612652)
(-0.0041949744 -0.00090373418 -0.00059108251)
(-0.0030331153 -0.00082806817 -0.00059216405)
(-0.0019922068 -0.00070662759 -0.00058981646)
(-0.0011262652 -0.00053791032 -0.00058479557)
(-0.00048363752 -0.00032850039 -0.00057821932)
(-0.00010085405 -0.00010418386 -0.00057137959)
(1.0929008e-05 5.8264822e-05 -0.00052647862)
(-3.3946154e-05 4.1554767e-05 -1.2945036e-05)
(-0.00030970805 0.00046649611 -6.2164981e-06)
(-0.00096651309 0.0009594123 2.1347322e-07)
(-0.0019403478 0.0014038935 5.4325783e-06)
(-0.0031744879 0.0017582634 9.1050815e-06)
(-0.0046100177 0.0020125844 1.0605681e-05)
(-0.0061842015 0.0021726717 9.5168346e-06)
(-0.0078382465 0.0022512084 5.6050033e-06)
(-0.0095210824 0.0022625255 -1.2465627e-06)
(-0.011190008 0.0022199704 -1.1067906e-05)
(-0.012810117 0.002134772 -2.3824197e-05)
(-0.014353154 0.0020157285 -3.943326e-05)
(-0.015796167 0.0018693525 -5.7777086e-05)
(-0.01712021 0.0017002458 -7.8708137e-05)
(-0.018309263 0.0015115565 -0.00010205212)
(-0.019349406 0.0013054259 -0.00012760834)
(-0.020228258 0.0010833816 -0.00015514867)
(-0.020934643 0.00084665654 -0.00018441592)
(-0.021458453 0.00059643951 -0.00021512214)
(-0.021790658 0.00033406647 -0.00024694754)
(-0.021923444 6.1169531e-05 -0.00027954003)
(-0.021850439 -0.00022019899 -0.00031251631)
(-0.021567045 -0.00050745093 -0.00034546353)
(-0.021070835 -0.00079735554 -0.00037794361)
(-0.020362045 -0.0010859166 -0.00040949866)
(-0.019444155 -0.0013682394 -0.00043965895)
(-0.018324561 -0.0016383835 -0.00046795309)
(-0.017015353 -0.0018892101 -0.00049392099)
(-0.015534169 -0.00211224 -0.00051712944)
(-0.013905116 -0.0022975534 -0.00053719054)
(-0.012159676 -0.002433779 -0.00055378302)
(-0.010337503 -0.0025082418 -0.00056667626)
(-0.0084869235 -0.0025073696 -0.00057575644)
(-0.006664895 -0.0024175108 -0.0005810538)
(-0.0049361225 -0.0022264318 -0.00058276663)
(-0.0033708157 -0.0019260659 -0.00058128353)
(-0.0020393604 -0.0015175375 -0.00057723148)
(-0.0010032558 -0.0010194937 -0.00057146913)
(-0.00031599026 -0.00048336143 -0.00056454584)
(-3.3060023e-05 -3.6317304e-05 -0.00051800203)
(-7.3349887e-05 0.00025071118 -2.1104452e-05)
(-0.00050732318 0.001075293 -1.2200322e-05)
(-0.0014435148 0.0019394662 -4.7215672e-06)
(-0.0027634538 0.0027050598 6.3752798e-07)
(-0.0043874515 0.0033163797 4.1358354e-06)
(-0.0062450047 0.003758388 5.351898e-06)
(-0.0082625958 0.0040388506 3.9955283e-06)
(-0.010371104 0.0041768211 -8.5108535e-08)
(-0.01250985 0.0041950027 -6.9697612e-06)
(-0.014627321 0.0041153881 -1.6680366e-05)
(-0.016680714 0.0039570836 -2.9189898e-05)
(-0.018634852 0.0037355002 -4.4432047e-05)
(-0.020460809 0.0034623783 -6.2307776e-05)
(-0.022134523 0.0031462767 -8.2688791e-05)
(-0.023635596 0.0027932612 -0.00010541877)
(-0.024946352 0.0024076245 -0.00013031314)
(-0.026051178 0.0019925429 -0.00015715796)
(-0.02693612 0.0015506262 -0.00018570846)
(-0.027588696 0.001084359 -0.0002156876)
(-0.027997894 0.00059644683 -0.00024678528)
(-0.028154318 9.00915e-05 -0.00027865824)
(-0.028050454 -0.00043077626 -0.0003109312)
(-0.027681053 -0.00096128791 -0.00034319882)
(-0.027043618 -0.0014954271 -0.00037503029)
(-0.026138998 -0.0020258099 -0.00040597499)
(-0.024972091 -0.002543447 -0.0004355708)
(-0.023552661 -0.0030374909 -0.00046335467)
(-0.021896262 -0.0034949867 -0.00048887584)
(-0.020025241 -0.0039006623 -0.00051171164)
(-0.017969779 -0.0042368183 -0.00053148576)
(-0.01576887 -0.0044834121 -0.00054788869)
(-0.013471113 -0.0046184629 -0.00056069953)
(-0.011135083 -0.0046189548 -0.00056980825)
(-0.0088290206 -0.004462484 -0.00057523604)
(-0.0066295905 -0.0041300157 -0.00057714705)
(-0.0046193051 -0.0036104128 -0.00057585517)
(-0.0028806633 -0.0029076936 -0.00057187128)
(-0.0014872053 -0.0020515726 -0.00056586484)
(-0.00051487197 -0.0011138283 -0.00055780287)
(-7.2312413e-05 -0.00024828281 -0.00050906814)
(-0.00010482395 0.0005580713 -2.7996899e-05)
(-0.00067622761 0.0019042125 -1.6819417e-05)
(-0.0018630436 0.003213956 -8.023193e-06)
(-0.0034931351 0.0043481095 -2.1542687e-06)
(-0.0054618048 0.0052472759 1.5196008e-06)
(-0.0076860758 0.0058964419 2.7352616e-06)
(-0.01008262 0.0063076919 1.3151658e-06)
(-0.012574116 0.006507533 -2.8101476e-06)
(-0.01509287 0.0065277133 -9.6749447e-06)
(-0.01758115 0.0063994956 -1.9282077e-05)
(-0.01999059 0.0061505316 -3.1601887e-05)
(-0.022281084 0.0058035379 -4.6575365e-05)
(-0.024419376 0.0053761585 -6.4116206e-05)
(-0.026377624 0.0048815324 -8.4111205e-05)
(-0.028132147 0.0043291972 -0.0001064196)
(-0.029662421 0.0037260799 -0.00013087172)
(-0.030950357 0.0030774263 -0.00015726726)
(-0.031979858 0.0023875994 -0.00018537356)
(-0.032736603 0.00166073 -0.00021492409)
(-0.033208025 0.00090123848 -0.00024561753)
(-0.033383469 0.00011425793 -0.00027711768)
(-0.033254481 -0.00069400525 -0.00030905452)
(-0.032815238 -0.0015159436 -0.00034102645)
(-0.032063098 -0.00234222 -0.00037260458)
(-0.030999282 -0.0031614307 -0.00040333873)
(-0.02962968 -0.0039597484 -0.00043276596)
(-0.027965778 -0.0047205562 -0.00046042135)
(-0.026025707 -0.0054241047 -0.0004858517)
(-0.023835348 -0.0060472523 -0.00050863155)
(-0.021429453 -0.0065633861 -0.00052838151)
(-0.018852672 -0.0069426609 -0.00054478825)
(-0.01616031 -0.0071527436 -0.00055762488)
(-0.013418611 -0.0071603029 -0.00056677041)
(-0.010704308 -0.006933538 -0.00057222519)
(-0.008103295 -0.0064461356 -0.00057411379)
(-0.0057081968 -0.0056832278 -0.00057268209)
(-0.0036126505 -0.0046500207 -0.0005683515)
(-0.0019031389 -0.0033830532 -0.00056166446)
(-0.00067977458 -0.0019652116 -0.00055215814)
(-0.00010226994 -0.00055761689 -0.00050118638)
(-0.0001289057 0.00094664532 -3.2488558e-05)
(-0.00081522585 0.0029244117 -1.9108717e-05)
(-0.0022197232 0.0047503071 -8.9436594e-06)
(-0.0041226958 0.0062967344 -2.3742661e-06)
(-0.0063950217 0.0075096551 1.6885868e-06)
(-0.008940529 0.0083798472 3.0950559e-06)
(-0.011666072 0.0089270825 1.757705e-06)
(-0.014486884 0.0091872138 -2.3203684e-06)
(-0.017329515 0.0092021461 -9.1287795e-06)
(-0.020131516 0.0090131567 -1.8647473e-05)
(-0.022840499 0.0086570241 -3.0838736e-05)
(-0.025412864 0.0081642746 -4.5645468e-05)
(-0.027812293 0.0075589116 -6.2989575e-05)
(-0.030008252 0.006859065 -8.2769535e-05)
(-0.031974681 0.0060781099 -0.00010485777)
(-0.033688944 0.0052259297 -0.00012909796)
(-0.035131077 0.0043101232 -0.00015530244)
(-0.036283301 0.0033370597 -0.00018324976)
(-0.037129789 0.0023127523 -0.00021268294)
(-0.037656637 0.0012435688 -0.00024330803)
(-0.037852025 0.00013681897 -0.00027479383)
(-0.037706526 -0.00099873776 -0.00030677263)
(-0.037213579 -0.0021524244 -0.00033884234)
(-0.036370103 -0.0033111832 -0.00037057054)
(-0.035177259 -0.0044591023 -0.00040150063)
(-0.033641359 -0.005576925 -0.00043116043)
(-0.03177491 -0.0066415643 -0.00045907328)
(-0.029597775 -0.0076256707 -0.00048477223)
(-0.027138394 -0.0084973396 -0.00050781662)
(-0.024434997 -0.009220095 -0.00052781097)
(-0.021536679 -0.009753329 -0.00054442503)
(-0.018504176 -0.010053433 -0.00055741373)
(-0.015410129 -0.010075898 -0.00056663538)
(-0.012338607 -0.009778699 -0.0005720643)
(-0.0093838879 -0.0091272878 -0.00057378841)
(-0.0066483521 -0.0081016185 -0.00057200142)
(-0.0042370994 -0.0067054902 -0.00056706761)
(-0.0022504001 -0.0049776435 -0.00055946187)
(-0.00081157824 -0.0030045788 -0.00054843214)
(-0.00012397953 -0.00094442346 -0.00049534139)
(-0.00014740832 0.0014006541 -3.3878975e-05)
(-0.00092930411 0.0041068587 -1.837338e-05)
(-0.0025213673 0.0065145593 -6.885232e-06)
(-0.004663862 0.0085145742 4.6910621e-07)
(-0.0072052168 0.010065019 5.0406488e-06)
(-0.010035947 0.011167717 6.755704e-06)
(-0.013052932 0.01185376 5.5946549e-06)
(-0.016164122 0.012170711 1.6201229e-06)
(-0.019290816 0.01217213 -5.1179947e-06)
(-0.022366623 0.011910272 -1.4577112e-05)
(-0.025336052 0.011431686 -2.6709483e-05)
(-0.028152961 0.010775166 -4.1457102e-05)
(-0.03077888 0.0099714231 -5.8747226e-05)
(-0.033181392 0.0090438501 -7.8487598e-05)
(-0.035332754 0.0080098806 -0.00010056195)
(-0.037208787 0.0068825335 -0.0001248259)
(-0.038788082 0.0056719081 -0.00015110332)
(-0.040051488 0.004386502 -0.00017918306)
(-0.040981851 0.0030343183 -0.0002088165)
(-0.041563979 0.0016237782 -0.00023971559)
(-0.041784805 0.00016448696 -0.00027155196)
(-0.041633717 -0.0013320922 -0.00030395717)
(-0.041103081 -0.0028520097 -0.00033652447)
(-0.040188914 -0.0043782097 -0.00036881256)
(-0.038891749 -0.0058898986 -0.00040035158)
(-0.037217654 -0.0073619035 -0.00043065178)
(-0.03517942 -0.0087640563 -0.00045921511)
(-0.032797864 -0.01006067 -0.00048555004)
(-0.030103204 -0.011210228 -0.000509189)
(-0.027136397 -0.012165452 -0.00052970833)
(-0.023950321 -0.012873974 -0.00054674941)
(-0.020610627 -0.013279885 -0.00056003928)
(-0.017196038 -0.013326446 -0.00056940897)
(-0.013797936 -0.012960275 -0.00057480538)
(-0.010519272 -0.012137243 -0.00057628655)
(-0.0074727733 -0.010830298 -0.00057401241)
(-0.0047757371 -0.0090391942 -0.0005683215)
(-0.0025426125 -0.0068011216 -0.00055967087)
(-0.00091775472 -0.0042014921 -0.00054713054)
(-0.00013978991 -0.0013916887 -0.00049203026)
(-0.00016216741 0.001908059 -3.1743932e-05)
(-0.001025241 0.0054275605 -1.4118814e-05)
(-0.0027812795 0.0084777558 -1.3881103e-06)
(-0.005137123 0.010970923 6.7701702e-06)
(-0.007921083 0.012882003 1.190277e-05)
(-0.011010714 0.014228192 1.3985164e-05)
(-0.014292881 0.015055349 1.3047074e-05)
(-0.017668215 0.015425271 9.198067e-06)
(-0.021052899 0.015404926 2.520863e-06)
(-0.024376935 0.015058712 -6.9221057e-06)
(-0.027582229 0.014443711 -1.90734e-05)
(-0.030620688 0.01360748 -3.3873282e-05)
(-0.033452293 0.012587747 -5.1253074e-05)
(-0.036043323 0.01141337 -7.1128435e-05)
(-0.038364851 0.010105961 -9.3393255e-05)
(-0.040391567 0.0086817366 -0.00011791418)
(-0.042100918 0.0071533217 -0.00014452584)
(-0.04347256 0.0055313378 -0.00017302669)
(-0.044488068 0.0038257552 -0.00020317554)
(-0.045130886 0.002047022 -0.00023468892)
(-0.045386487 0.00020702672 -0.00026723935)
(-0.045242734 -0.0016800422 -0.0003004549)
(-0.044690442 -0.0035968827 -0.00033392026)
(-0.043724141 -0.0055222724 -0.00036718005)
(-0.042343051 -0.0074302513 -0.00039974457)
(-0.040552248 -0.0092893038 -0.00043109847)
(-0.038364035 -0.011061592 -0.00046071284)
(-0.035799446 -0.012702333 -0.00048806084)
(-0.032889826 -0.01415947 -0.0005126366)
(-0.029678373 -0.015373848 -0.00053397691)
(-0.02622149 -0.01628015 -0.00055168424)
(-0.022589771 -0.016808881 -0.00056544928)
(-0.018868392 -0.016889726 -0.00057507095)
(-0.015156751 -0.016456499 -0.00058046937)
(-0.011567466 -0.015453889 -0.00058168094)
(-0.008224709 -0.013845984 -0.00057884963)
(-0.0052588664 -0.011626302 -0.00057231537)
(-0.0027987109 -0.0088280483 -0.00056255592)
(-0.001007387 -0.0055334359 -0.00054853949)
(-0.00015198888 -0.0018875644 -0.00049145224)
(-0.0001747162 0.0024608975 -2.5808482e-05)
(-0.0011097088 0.006869564 -5.9712731e-06)
(-0.003013967 0.010619014 7.9292622e-06)
(-0.0055656518 0.013643855 1.6883605e-05)
(-0.0085749444 0.015938901 2.2593024e-05)
(-0.011906948 0.017540128 2.5064135e-05)
(-0.015438559 0.01851125 2.4362318e-05)
(-0.019063008 0.018930811 2.0633952e-05)
(-0.022691327 0.018881066 1.3988382e-05)
(-0.026250013 0.018439887 4.5046098e-06)
(-0.029678614 0.01767578 -7.751708e-06)
(-0.03292743 0.016645625 -2.2719412e-05)
(-0.035955289 0.015394501 -4.0333662e-05)
(-0.038727559 0.013956895 -6.0517647e-05)
(-0.041214493 0.012358651 -8.3175033e-05)
(-0.043389937 0.010619163 -0.00010818322)
(-0.045230395 0.0087534941 -0.00013538737)
(-0.046714423 0.0067742681 -0.00016459527)
(-0.047822291 0.0046932723 -0.00019557281)
(-0.048535916 0.0025228216 -0.0002280402)
(-0.048839006 0.0002769378 -0.00026166938)
(-0.048717454 -0.0020275768 -0.00029608255)
(-0.048159945 -0.00437011 -0.00033085246)
(-0.047158821 -0.0067252079 -0.00036550483)
(-0.045711191 -0.0090615319 -0.00039952373)
(-0.043820298 -0.011340825 -0.0004323602)
(-0.041497116 -0.013516963 -0.00046344489)
(-0.038762136 -0.015535208 -0.00049220479)
(-0.035647236 -0.017331866 -0.00051808394)
(-0.032197516 -0.018834579 -0.00054056771)
(-0.028472901 -0.019963567 -0.00055920882)
(-0.024549327 -0.020634107 -0.00057365309)
(-0.020519247 -0.020760576 -0.00058366263)
(-0.016491293 -0.020262234 -0.00058913149)
(-0.012589225 -0.019070834 -0.00059008211)
(-0.0089501458 -0.017139899 -0.00058665802)
(-0.0057186686 -0.014455165 -0.00057922354)
(-0.0030381703 -0.011044734 -0.00056830669)
(-0.0010890321 -0.006987564 -0.00055282101)
(-0.00016242755 -0.0024253984 -0.0004936532)
(-0.00018626161 0.0030547434 -1.5872653e-05)
(-0.0011886002 0.0084229409 6.3716835e-06)
(-0.0032331162 0.012925992 2.1398125e-05)
(-0.005972002 0.016520658 3.1137745e-05)
(-0.0091985876 0.019223645 3.7424475e-05)
(-0.012765909 0.021092419 4.0285052e-05)
(-0.016540916 0.022211305 3.9811546e-05)
(-0.02040932 0.022678022 3.6180138e-05)
(-0.024276889 0.022592063 2.9522086e-05)
(-0.028066612 0.022046219 1.9930088e-05)
(-0.031715785 0.021121424 7.4763881e-06)
(-0.035173305 0.019884525 -7.7773411e-06)
(-0.038397117 0.018388316 -2.5770619e-05)
(-0.041351966 0.016673078 -4.6434508e-05)
(-0.044007551 0.014768899 -6.9682787e-05)
(-0.046337097 0.012698254 -9.5404063e-05)
(-0.048316308 0.010478471 -0.00012345461)
(-0.04992268 0.0081239384 -0.00015365194)
(-0.051135101 0.0056479827 -0.00018576923)
(-0.051933743 0.0030644871 -0.00021953031)
(-0.052300188 0.00038931305 -0.00025460582)
(-0.052217837 -0.00235838 -0.00029061048)
(-0.051672572 -0.0051548452 -0.00032710224)
(-0.050653735 -0.0079704437 -0.00036358358)
(-0.049155407 -0.010768319 -0.00039950633)
(-0.047178016 -0.013503091 -0.00043427992)
(-0.044730248 -0.016119673 -0.00046728462)
(-0.041831189 -0.018552372 -0.00049788953)
(-0.038512606 -0.020724508 -0.00052547577)
(-0.034821176 -0.022548859 -0.0005494641)
(-0.030820463 -0.023929247 -0.00056934514)
(-0.026592363 -0.024763611 -0.00058470983)
(-0.022237748 -0.024948852 -0.0005952773)
(-0.017876096 -0.024387577 -0.00060091485)
(-0.01364422 -0.022996721 -0.00060163685)
(-0.0096940893 -0.020717732 -0.00059759941)
(-0.0061861215 -0.017527655 -0.0005892107)
(-0.0032790772 -0.013449487 -0.00057707272)
(-0.0011700932 -0.0085603581 -0.00056007102)
(-0.00017251211 -0.0030029296 -0.00049860881)
(-0.00019773422 0.0036880942 -1.7641866e-06)
(-0.0012668685 0.010084129 2.3178244e-05)
(-0.003450781 0.015394442 3.932307e-05)
(-0.0063765377 0.019597459 4.9846855e-05)
(-0.0098210614 0.022733268 5.6708961e-05)
(-0.013625403 0.024883138 5.9950542e-05)
(-0.017646446 0.026154538 5.9685417e-05)
(-0.021762191 0.026666739 5.6115682e-05)
(-0.025872997 0.02653847 4.9391748e-05)
(-0.029898286 0.025878991 3.9618005e-05)
(-0.033773156 0.02478277 2.6871863e-05)
(-0.037445251 0.023327341 1.1214441e-05)
(-0.040871843 0.021573629 -7.2990626e-06)
(-0.044017302 0.019567874 -2.8608589e-05)
(-0.046851011 0.0173444 -5.2639163e-05)
(-0.049345773 0.014928606 -7.9291808e-05)
(-0.051476625 0.012339826 -0.00010843518)
(-0.053220037 0.0095938671 -0.00013989792)
(-0.054553432 0.0067051884 -0.00017346167)
(-0.055455006 0.0036887953 -0.00020885474)
(-0.055903822 0.00056193474 -0.00024574677)
(-0.055880214 -0.0026542972 -0.00028374444)
(-0.055366512 -0.0059333537 -0.00032238898)
(-0.054348126 -0.0092415926 -0.00036115612)
(-0.05281504 -0.012536593 -0.00039945975)
(-0.050763711 -0.015765501 -0.00043665974)
(-0.048199367 -0.018863531 -0.00047207547)
(-0.045138631 -0.021752859 -0.00050500541)
(-0.041612334 -0.024342184 -0.00053475315)
(-0.037668296 -0.026527332 -0.00056065932)
(-0.0333738 -0.028193277 -0.00058213736)
(-0.028817414 -0.029217939 -0.00059871037)
(-0.024109806 -0.029478021 -0.00061004562)
(-0.019383267 -0.02885695 -0.00061598032)
(-0.014790065 -0.027254759 -0.00061652411)
(-0.010499559 -0.02459945 -0.00061185628)
(-0.0066902298 -0.020858994 -0.00060244583)
(-0.0035377822 -0.016052171 -0.00058898972)
(-0.0012568605 -0.010256793 -0.00057035882)
(-0.00018329909 -0.0036214913 -0.00050627224)
(-0.00020984635 0.0043618213 1.6693222e-05)
(-0.0013485734 0.011855069 4.4711464e-05)
(-0.0036771932 0.018027383 6.2004535e-05)
(-0.0067968901 0.022878448 7.3327246e-05)
(-0.010467792 0.026473094 8.0767983e-05)
(-0.014518649 0.028918573 8.4380543e-05)
(-0.018795936 0.030347973 8.4298998e-05)
(-0.023169654 0.03090452 8.0750298e-05)
(-0.027534559 0.030728262 7.3903081e-05)
(-0.031806436 0.029946582 6.3872598e-05)
(-0.035918237 0.028668688 5.0740542e-05)
(-0.039816503 0.026983609 3.4566399e-05)
(-0.043458062 0.024960858 1.5398833e-05)
(-0.046807159 0.022652826 -6.712478e-06)
(-0.049833129 0.020098038 -3.1705593e-05)
(-0.052508581 0.017324617 -5.9495996e-05)
(-0.054808053 0.014353564 -8.9966971e-05)
(-0.056707067 0.01120165 -0.00012296062)
(-0.058181532 0.0078839231 -0.00015826945)
(-0.059207463 0.0044159046 -0.00019562846)
(-0.059761013 0.00081558992 -0.00023470798)
(-0.059818853 -0.0028946055 -0.00027510736)
(-0.05935893 -0.0066858661 -0.00031635057)
(-0.058361679 -0.010520909 -0.00035788414)
(-0.056811731 -0.014351842 -0.00039907912)
(-0.054700173 -0.018118051 -0.00043923805)
(-0.052027315 -0.021744283 -0.00047760846)
(-0.048805933 -0.025139237 -0.00051340395)
(-0.045064776 -0.028195022 -0.00054583363)
(-0.040852091 -0.030787939 -0.00057413918)
(-0.036238783 -0.032781032 -0.00059763777)
(-0.03132077 -0.0340288 -0.00061576738)
(-0.026220044 -0.034384314 -0.00062813015)
(-0.021084059 -0.033708697 -0.0006345259)
(-0.01608352 -0.03188264 -0.00063495975)
(-0.011408492 -0.028819319 -0.00062964213)
(-0.0072587112 -0.024477631 -0.00061911862)
(-0.0038294194 -0.018873762 -0.00060420224)
(-0.0013548446 -0.01208959 -0.00058375461)
(-0.00019560805 -0.0042854107 -0.00051660041)
(-0.00022314642 0.0050787017 3.9700787e-05)
(-0.0014370226 0.013742339 7.1251052e-05)
(-0.0039209186 0.020834119 8.9757689e-05)
(-0.007248044 0.026374894 0.00010191238)
(-0.011160568 0.030455731 0.00010994439)
(-0.01547419 0.033212143 0.00011392132)
(-0.020024373 0.034805429 0.00011399874)
(-0.024672685 0.035405299 0.00011042998)
(-0.029308045 0.035175346 0.00010340281)
(-0.033842537 0.034262864 9.304364e-05)
(-0.038207053 0.032793132 7.943813e-05)
(-0.042347233 0.030867566 6.2643271e-05)
(-0.046219735 0.028564788 4.2699734e-05)
(-0.049789008 0.025943545 1.9644864e-05)
(-0.053024668 0.023046525 -6.4748468e-06)
(-0.055899444 0.019904331 -3.5592188e-05)
(-0.058387629 0.016539211 -6.7608317e-05)
(-0.06046396 0.012968341 -0.00010238239)
(-0.062102865 0.009206671 -0.00013972156)
(-0.063278042 0.0052694484 -0.00017937127)
(-0.063962392 0.0011745694 -0.00022100592)
(-0.064128326 -0.003055087 -0.00026422018)
(-0.063748533 -0.0073892221 -0.00030852199)
(-0.062797295 -0.011787521 -0.00035332787)
(-0.061252432 -0.016196928 -0.00039796247)
(-0.05909795 -0.020548921 -0.00044166382)
(-0.056327394 -0.024757032 -0.00048359627)
(-0.052947836 -0.028715 -0.00052287287)
(-0.048984297 -0.032296036 -0.00055858835)
(-0.044484259 -0.035353782 -0.00058986245)
(-0.039521779 -0.037725504 -0.00061589165)
(-0.034200612 -0.03923797 -0.00063600541)
(-0.028655677 -0.039716225 -0.00064972111)
(-0.023052331 -0.038995095 -0.00065678832)
(-0.017583427 -0.036932889 -0.0006572034)
(-0.012464075 -0.033426351 -0.00065121304)
(-0.0079196994 -0.028425543 -0.00063945506)
(-0.0041689814 -0.021946314 -0.00062288206)
(-0.0014692735 -0.014078869 -0.00060034768)
(-0.0002101367 -0.0050016613 -0.00052956579)
(-0.00023806934 0.0058430545 6.7498343e-05)
(-0.0015349593 0.015756405 0.00010310963)
(-0.0041892018 0.023829334 0.00012292778)
(-0.0077428003 0.03010418 0.00013596627)
(-0.011918083 0.034700063 0.00014461347)
(-0.016516507 0.03778333 0.00014895432)
(-0.021361626 0.039546357 0.00014916964)
(-0.026305998 0.040188117 0.00014554287)
(-0.031232417 0.039898193 0.00013828357)
(-0.036049226 0.038845769 0.00012753073)
(-0.040685402 0.037173665 0.00011337433)
(-0.045085966 0.034996682 9.5868215e-05)
(-0.049207785 0.032403135 7.5043543e-05)
(-0.053015946 0.029458373 5.0923018e-05)
(-0.056480795 0.0262092 2.3534682e-05)
(-0.059575618 0.022688418 -7.0752168e-06)
(-0.06227485 0.018919036 -4.083e-05)
(-0.064552742 0.014917961 -7.7610778e-05)
(-0.06638241 0.010699203 -0.00011724471)
(-0.067735226 0.0062767511 -0.00015949332)
(-0.068580586 0.0016673044 -0.00020404059)
(-0.068886098 -0.0031069421 -0.0002504815)
(-0.0686183 -0.0080153183 -0.00029831177)
(-0.067744033 -0.013015426 -0.00034691952)
(-0.066232616 -0.018049672 -0.00039558147)
(-0.064058906 -0.023041736 -0.00044346535)
(-0.061207321 -0.027893312 -0.00048964125)
(-0.057676746 -0.032481628 -0.00053310466)
(-0.053486111 -0.036658371 -0.00057281297)
(-0.048680213 -0.040250776 -0.00060773584)
(-0.043335157 -0.043065566 -0.00063691771)
(-0.037562609 -0.0448963 -0.00065954778)
(-0.03151196 -0.045534302 -0.00067503043)
(-0.025369587 -0.044782868 -0.00068304414)
(-0.019355076 -0.042473886 -0.00068356605)
(-0.013714245 -0.038485543 -0.00067688051)
(-0.0087042557 -0.032759349 -0.00066373357)
(-0.0045728239 -0.025313704 -0.00064524469)
(-0.0016057181 -0.016252426 -0.00062025948)
(-0.00022758143 -0.0057798235 -0.00054515894)
(-0.00025498265 0.0066604911 0.00010037356)
(-0.0016447704 0.017911075 0.00014064539)
(-0.0044884126 0.027032385 0.00016190313)
(-0.0082924509 0.034089002 0.00017589543)
(-0.012756805 0.039230378 0.00018519342)
(-0.017667047 0.042656731 0.0001899051)
(-0.022833627 0.044594803 0.0001902425)
(-0.028099355 0.045275994 0.00018652512)
(-0.033340573 0.044918629 0.00017898863)
(-0.038461877 0.043716 0.00016778719)
(-0.043390556 0.041830127 0.00015301614)
(-0.048071417 0.039390321 0.00013472584)
(-0.052462047 0.036495256 0.00011293643)
(-0.056528744 0.033217164 8.7653414e-05)
(-0.060243197 0.029606928 5.8882893e-05)
(-0.063579852 0.025699245 2.6645729e-05)
(-0.066513854 0.021517331 -9.0088897e-06)
(-0.069019459 0.017077044 -4.7990254e-05)
(-0.071068831 0.012390454 -9.0152614e-05)
(-0.072631192 0.0074690863 -0.00013528129)
(-0.073672347 0.0023270642 -0.00018307801)
(-0.074154677 -0.0030156025 -0.00023314605)
(-0.07403771 -0.0085293993 -0.00028497607)
(-0.073279494 -0.014171252 -0.00033793283)
(-0.071838931 -0.01988012 -0.00039124684)
(-0.069679258 -0.025572411 -0.0004440123)
(-0.066772795 -0.031137653 -0.00049519533)
(-0.063106941 -0.036435083 -0.00054365634)
(-0.058691194 -0.041291997 -0.00058818937)
(-0.053564695 -0.045504829 -0.00062758008)
(-0.0478035 -0.048843922 -0.00066068083)
(-0.04152652 -0.051062659 -0.00068649796)
(-0.03489885 -0.051911196 -0.00070428277)
(-0.028131318 -0.051154261 -0.00071361049)
(-0.02147583 -0.048591746 -0.00071441922)
(-0.015216238 -0.044080171 -0.00070702693)
(-0.0096496222 -0.037552592 -0.00069230337)
(-0.0050605797 -0.029033476 -0.00067156732)
(-0.0017708552 -0.018646855 -0.00064365549)
(-0.00024877226 -0.0066324102 -0.00056338734)
(-0.00027422967 0.0075377819 0.00013866874)
(-0.0017687011 0.020223185 0.00018427275)
(-0.0048245406 0.03046686 0.00020712683)
(-0.0089075622 0.038356824 0.00022216021)
(-0.013692015 0.044075719 0.00023215566)
(-0.018945478 0.047861291 0.00023725212)
(-0.024463796 0.049978533 0.00023770117)
(-0.030079136 0.050694934 0.00023386662)
(-0.035661031 0.050260732 0.00022601627)
(-0.041110377 0.048895862 0.0002143233)
(-0.046353125 0.04678342 0.00019889021)
(-0.051334407 0.044068505 0.00017976398)
(-0.056013209 0.040860917 0.00015695228)
(-0.0603578 0.037240105 0.00013044078)
(-0.064342012 0.03326102 0.00010020978)
(-0.067942264 0.028959928 6.6249726e-05)
(-0.071135207 0.024359653 2.8576085e-05)
(-0.073895834 0.019474122 -1.2756103e-05)
(-0.076195981 0.014312315 -5.763699e-05)
(-0.078003153 0.0088818566 -0.0001058858)
(-0.079279732 0.0031925982 -0.00015723317)
(-0.079982654 -0.002739549 -0.00021130231)
(-0.080063724 -0.0088882725 -0.00026759027)
(-0.079470845 -0.015211825 -0.00032544823)
(-0.078150424 -0.021647466 -0.00038406718)
(-0.076051193 -0.0281055 -0.00044246897)
(-0.073129711 -0.034463493 -0.00049950921)
(-0.069357595 -0.040561523 -0.00055389665)
(-0.064730294 -0.046199541 -0.00060423387)
(-0.059276857 -0.051138195 -0.00064908253)
(-0.053069722 -0.055104377 -0.00068705268)
(-0.046233131 -0.057802485 -0.00071691143)
(-0.038948401 -0.058931705 -0.00073770061)
(-0.031454325 -0.058208599 -0.00074884346)
(-0.024041801 -0.055393135 -0.00075020514)
(-0.017042105 -0.050315392 -0.00074212409)
(-0.010803216 -0.042899472 -0.0007256073)
(-0.0056575139 -0.033180068 -0.00070221132)
(-0.0019734004 -0.021309729 -0.00067076075)
(-0.00027483427 -0.0075756341 -0.00058427443)
(-0.00029617142 0.0084828396 0.00018278691)
(-0.0019090755 0.022712536 0.00023447252)
(-0.0052037158 0.03416044 0.00025910824)
(-0.0095988146 0.042939623 0.00027528619)
(-0.01473893 0.049269482 0.00028603525)
(-0.020371038 0.053429747 0.00029153572)
(-0.026274553 0.0557283 0.00029208984)
(-0.032269961 0.056473049 0.00028811652)
(-0.038219616 0.055949831 0.0002799237)
(-0.044020855 0.054408144 0.00026770873)
(-0.049598776 0.052054312 0.00025158404)
(-0.054899561 0.049050679 0.00023159378)
(-0.059884464 0.045519047 0.00020773208)
(-0.064524692 0.041546492 0.00017996213)
(-0.068797246 0.037192054 0.00014823442)
(-0.072681577 0.032493252 0.00011250366)
(-0.076156901 0.027471885 7.2744724e-05)
(-0.079199984 0.022139001 2.8968433e-05)
(-0.081783279 0.016499189 -1.8761739e-05)
(-0.083873364 0.01055452 -7.031148e-05)
(-0.085429718 0.0043085419 -0.00012545479)
(-0.086403969 -0.0022293159 -0.00018385048)
(-0.086739744 -0.0090386169 -0.00024501898)
(-0.086373598 -0.016081694 -0.00030831404)
(-0.085237314 -0.023296736 -0.00037290095)
(-0.08326189 -0.030590053 -0.00043773742)
(-0.080383742 -0.037828344 -0.00050156794)
(-0.076553259 -0.044832007 -0.00056293673)
(-0.071745632 -0.05137093 -0.00062022671)
(-0.065973431 -0.057164545 -0.00067173032)
(-0.059299791 -0.061887932 -0.00071575388)
(-0.051850413 -0.065185451 -0.00075075159)
(-0.043821976 -0.066692427 -0.00077547748)
(-0.035484394 -0.06606406 -0.00078913024)
(-0.027175224 -0.063008948 -0.00079144673)
(-0.019285034 -0.05732323 -0.00078275693)
(-0.012227327 -0.048920289 -0.00076421347)
(-0.0063973458 -0.037849714 -0.00073765424)
(-0.0022252413 -0.024303054 -0.00070188386)
(-0.00030738819 -0.008630714 -0.00060786333)
(-0.00032122949 0.0095048209 0.00023319865)
(-0.0020685261 0.025402095 0.00029180316)