/*--------------------------------*- C++ -*----------------------------------*\
  =========                 |
  \\      /  F ield         | OpenFOAM: The Open Source CFD Toolbox
   \\    /   O peration     | Website:  https://openfoam.org
    \\  /    A nd           | Version:  7
     \\/     M anipulation  |
\*---------------------------------------------------------------------------*/
FoamFile
{
    version     2.0;
    format      ascii;
    class       volVectorField;
    location    "0.5";
    object      U;
}
// * * * * * * * * * * * * * * * * * * * * * * * * * * * * * * * * * * * * * //

dimensions      [0 1 -1 0 0 0 0];

internalField   nonuniform List<vector> 
19968
(
(3 -1.53672e-18 0)
(3 7.4703e-17 0)
(3 -4.5096e-18 0)
(3 -3.66081e-16 0)
(3 -2.38328e-16 0)
(3 -7.12221e-16 0)
(3 -8.66848e-16 0)
(3 -4.36862e-16 0)
(3 -1.17639e-16 0)
(3 1.22215e-16 0)
(3 3.67212e-17 0)
(3 -4.01254e-16 0)
(3 -1.18125e-15 0)
(3 -4.34102e-16 0)
(3 3.22326e-16 0)
(3 5.0718e-16 0)
(3 -2.3215e-17 0)
(3 -1.6593e-16 0)
(3 -2.97788e-16 0)
(3 -2.28207e-16 0)
(3 6.45893e-16 0)
(3 8.52297e-16 0)
(3 6.73558e-16 0)
(3 6.85193e-16 0)
(3 1.13808e-16 0)
(3 -2.11906e-16 0)
(3 -7.24364e-16 0)
(3 -7.73888e-16 0)
(3 -1.17178e-15 0)
(3 -1.30496e-15 0)
(3 -7.91374e-17 0)
(3 -1.76488e-16 0)
(3 -4.64635e-16 0)
(3 2.78001e-16 0)
(3 6.83737e-16 0)
(3 4.23961e-16 0)
(3 -6.19791e-17 0)
(3 -7.26993e-17 0)
(3 -3.96322e-16 0)
(3 -3.9283e-16 0)
(3 3.82483e-17 0)
(3 7.05464e-16 0)
(3 6.1092e-16 0)
(3 2.45026e-16 0)
(3 -3.49374e-16 0)
(3 -9.29955e-16 0)
(3 -1.03539e-15 0)
(3 -1.12016e-15 0)
(3 -1.52679e-15 0)
(3 -1.46497e-15 0)
(3 -5.59186e-16 0)
(3 3.29217e-16 0)
(3 7.53272e-16 0)
(3 5.50269e-16 0)
(3 2.76611e-16 0)
(3 -1.66731e-16 0)
(3 1.29862e-16 0)
(3 1.03296e-15 0)
(3 1.27625e-15 0)
(3 1.91436e-15 0)
(3 1.57829e-15 0)
(1.17526 0.00474271 0)
(0.676381 0.00138131 0)
(0.64608 0.0165519 0)
(0.623646 0.0157461 0)
(0.605379 0.0131663 0)
(0.584755 0.0114704 0)
(0.558113 0.0121172 0)
(0.528002 0.0125079 0)
(0.508313 0.0119643 0)
(0.49382 0.0119575 0)
(0.485593 0.0116799 0)
(0.467279 0.011597 0)
(0.436489 0.0112012 0)
(0.393958 0.0114478 0)
(0.364766 0.0114608 0)
(0.355204 0.0118328 0)
(0.357414 0.0125074 0)
(0.364134 0.0128 0)
(0.359961 0.0126979 0)
(0.340484 0.012894 0)
(0.307678 0.0127556 0)
(0.27124 0.0125386 0)
(0.240288 0.01267 0)
(0.224271 0.0129084 0)
(0.2153 0.0132308 0)
(0.206879 0.0137749 0)
(0.194505 0.014325 0)
(0.172489 0.0149395 0)
(0.14075 0.0148654 0)
(0.106138 0.0148 0)
(0.077913 0.0147179 0)
(0.0563906 0.0145773 0)
(0.0391779 0.0145113 0)
(0.0238791 0.0144655 0)
(0.0113794 0.0144437 0)
(3 -1.06465e-16 0)
(3 -3.23288e-16 0)
(3 -7.65748e-16 0)
(3 -1.47859e-15 0)
(3 -1.2636e-15 0)
(3 -4.64635e-16 0)
(3 -1.38756e-16 0)
(3 -1.6728e-16 0)
(3 6.33157e-17 0)
(3 5.93613e-17 0)
(3 -1.77801e-16 0)
(3 -6.83929e-16 0)
(3 -1.39904e-15 0)
(3 -7.45515e-16 0)
(3 7.43125e-17 0)
(3 3.12257e-16 0)
(3 1.76463e-16 0)
(3 1.18362e-16 0)
(3 -2.42582e-16 0)
(3 3.11206e-16 0)
(3 1.39875e-15 0)
(3 1.47262e-15 0)
(3 8.42631e-16 0)
(3 7.10199e-16 0)
(3 3.61459e-16 0)
(3 -2.0321e-16 0)
(3 -5.94639e-16 0)
(3 -1.30092e-15 0)
(3 -1.87076e-15 0)
(3 -2.32862e-15 0)
(3 -1.90138e-15 0)
(3 -2.19803e-15 0)
(3 -2.00215e-15 0)
(3 -6.7825e-16 0)
(3 5.5542e-16 0)
(3 1.24095e-16 0)
(3 -1.96092e-15 0)
(3 -2.0397e-15 0)
(3 -2.13387e-15 0)
(3 -1.40717e-15 0)
(3 -1.03287e-15 0)
(3 -1.49508e-16 0)
(3 6.03831e-17 0)
(3 -7.21119e-16 0)
(3 -1.14529e-15 0)
(3 -1.23194e-15 0)
(3 -7.6051e-16 0)
(3 -3.40038e-16 0)
(3 -3.25541e-16 0)
(3 -6.31923e-16 0)
(3 3.14749e-17 0)
(3 7.56178e-16 0)
(3 8.72292e-16 0)
(3 6.81465e-16 0)
(3 -8.29054e-17 0)
(3 -9.62301e-16 0)
(3 -1.0641e-15 0)
(3 1.57391e-16 0)
(3 9.04102e-16 0)
(3 7.27491e-16 0)
(3 3.93324e-15 0)
(1.19432 0.0292062 0)
(0.669135 0.0179587 0)
(0.639072 0.0427929 0)
(0.618123 0.0454772 0)
(0.599781 0.0397767 0)
(0.578594 0.0337993 0)
(0.551824 0.0349797 0)
(0.522347 0.0367236 0)
(0.502967 0.0360817 0)
(0.488213 0.0362028 0)
(0.479633 0.035316 0)
(0.461059 0.0347251 0)
(0.430485 0.0340605 0)
(0.388098 0.0344945 0)
(0.359354 0.0344731 0)
(0.350389 0.035414 0)
(0.352202 0.0370369 0)
(0.358299 0.0378324 0)
(0.353344 0.0375843 0)
(0.333153 0.0383288 0)
(0.299815 0.0381778 0)
(0.263289 0.0378201 0)
(0.232475 0.0381429 0)
(0.216395 0.0385477 0)
(0.207359 0.0389792 0)
(0.199115 0.0402658 0)
(0.187195 0.0418223 0)
(0.165974 0.0437889 0)
(0.135362 0.0439265 0)
(0.102151 0.0440507 0)
(0.0756669 0.0439758 0)
(0.0552257 0.0437921 0)
(0.0390362 0.0441446 0)
(0.0242259 0.0445532 0)
(0.0114029 0.0451224 0)
(3 1.41994e-16 0)
(3 -4.04095e-16 0)
(3 -6.83956e-16 0)
(3 -8.628e-16 0)
(3 -9.48257e-16 0)
(3 -3.90114e-16 0)
(3 7.7585e-16 0)
(3 5.29703e-16 0)
(3 -2.58227e-16 0)
(3 -1.31703e-16 0)
(3 -9.62551e-17 0)
(3 -3.35185e-16 0)
(3 -7.44261e-16 0)
(3 -6.99438e-16 0)
(3 -1.13216e-15 0)
(3 -1.52544e-15 0)
(3 -1.48415e-15 0)
(3 -1.25277e-15 0)
(3 -3.64775e-16 0)
(3 1.44265e-15 0)
(3 1.35928e-15 0)
(3 1.29738e-15 0)
(3 1.15965e-15 0)
(3 6.14435e-16 0)
(3 -6.22071e-16 0)
(3 -1.14791e-15 0)
(3 -1.06877e-15 0)
(3 -6.12203e-16 0)
(3 -1.49194e-16 0)
(3 3.09371e-17 0)
(3 -1.40005e-15 0)
(3 -2.29955e-15 0)
(3 -2.58824e-15 0)
(3 -1.8266e-15 0)
(3 -1.13687e-15 0)
(3 -1.26431e-15 0)
(3 -1.30234e-15 0)
(3 -1.73079e-15 0)
(3 -1.86133e-15 0)
(3 -1.62254e-15 0)
(3 -1.80024e-15 0)
(3 -2.07765e-15 0)
(3 -1.61111e-15 0)
(3 -2.48963e-15 0)
(3 -2.77935e-15 0)
(3 -2.76206e-15 0)
(3 -2.39806e-15 0)
(3 -2.109e-15 0)
(3 -8.67847e-16 0)
(3 -3.88669e-16 0)
(3 1.48763e-16 0)
(3 -1.22588e-17 0)
(3 1.18838e-16 0)
(3 2.64843e-17 0)
(3 -5.11983e-16 0)
(3 -5.71735e-16 0)
(3 -4.09522e-16 0)
(3 -5.03629e-16 0)
(3 1.34597e-16 0)
(3 5.28908e-16 0)
(3 -1.43016e-15 0)
(1.24541 0.0542694 0)
(0.670689 0.0384411 0)
(0.640092 0.0707165 0)
(0.618054 0.0764736 0)
(0.600112 0.0685374 0)
(0.579626 0.0590446 0)
(0.552519 0.0598168 0)
(0.523157 0.0622714 0)
(0.503686 0.0617505 0)
(0.48802 0.0620919 0)
(0.478786 0.060613 0)
(0.459761 0.0594752 0)
(0.429502 0.0592379 0)
(0.387249 0.0602437 0)
(0.358845 0.0602908 0)
(0.350221 0.0622239 0)
(0.351176 0.064373 0)
(0.356185 0.0651757 0)
(0.350203 0.0648073 0)
(0.329022 0.0660507 0)
(0.294775 0.0658739 0)
(0.257617 0.0657411 0)
(0.226207 0.0662377 0)
(0.209167 0.0666625 0)
(0.199605 0.0669897 0)
(0.191312 0.0684297 0)
(0.179533 0.0700692 0)
(0.158467 0.0722191 0)
(0.12818 0.0721661 0)
(0.0959603 0.0723544 0)
(0.0716301 0.0728412 0)
(0.0526545 0.0730568 0)
(0.0380936 0.0740641 0)
(0.0243058 0.0748455 0)
(0.0112864 0.0759104 0)
(3 6.18961e-17 0)
(3 -2.2999e-17 0)
(3 1.09322e-16 0)
(3 3.72004e-16 0)
(3 4.57023e-16 0)
(3 -8.27981e-17 0)
(3 -4.26599e-16 0)
(3 -8.73822e-19 0)
(3 -1.39483e-16 0)
(3 -2.99218e-16 0)
(3 -6.49255e-17 0)
(3 -1.62059e-16 0)
(3 -2.79671e-16 0)
(3 -1.04554e-15 0)
(3 -1.573e-15 0)
(3 -1.53111e-15 0)
(3 -1.57772e-15 0)
(3 -1.13781e-15 0)
(3 -5.62505e-16 0)
(3 -1.19749e-16 0)
(3 1.29925e-16 0)
(3 4.48277e-16 0)
(3 1.94782e-16 0)
(3 -2.34453e-16 0)
(3 -8.06848e-16 0)
(3 -1.73739e-15 0)
(3 -1.81645e-15 0)
(3 -7.0956e-16 0)
(3 1.40382e-15 0)
(3 9.59637e-16 0)
(3 -5.86995e-16 0)
(3 -1.40684e-15 0)
(3 -1.7552e-15 0)
(3 -1.94334e-15 0)
(3 -2.17785e-15 0)
(3 -1.15877e-15 0)
(3 -6.9498e-16 0)
(3 -1.19917e-15 0)
(3 -1.87021e-15 0)
(3 -2.63174e-15 0)
(3 -2.43829e-15 0)
(3 -2.22355e-15 0)
(3 -1.94834e-15 0)
(3 -1.8943e-15 0)
(3 -1.4386e-15 0)
(3 -1.05557e-15 0)
(3 -1.83888e-15 0)
(3 -3.34895e-15 0)
(3 -2.64324e-15 0)
(3 -1.93827e-15 0)
(3 -7.03691e-16 0)
(3 -5.919e-16 0)
(3 -1.10972e-15 0)
(3 -1.31713e-15 0)
(3 2.14628e-16 0)
(3 6.15602e-16 0)
(3 1.26146e-16 0)
(3 -8.58685e-16 0)
(3 -8.85415e-16 0)
(3 -8.91056e-16 0)
(3 -1.03616e-15 0)
(1.32915 0.078971 0)
(0.677556 0.0622753 0)
(0.639782 0.102667 0)
(0.616952 0.10682 0)
(0.600276 0.096034 0)
(0.581808 0.0836714 0)
(0.555334 0.0842201 0)
(0.527013 0.0879672 0)
(0.508085 0.0883171 0)
(0.491538 0.0890608 0)
(0.481747 0.0869229 0)
(0.46267 0.0850752 0)
(0.433695 0.0858858 0)
(0.392409 0.0874264 0)
(0.365079 0.0877138 0)
(0.356833 0.0911223 0)
(0.356378 0.0935868 0)
(0.36021 0.0944172 0)
(0.353104 0.0940688 0)
(0.331067 0.0958913 0)
(0.29619 0.0957413 0)
(0.258525 0.0962725 0)
(0.226173 0.0974078 0)
(0.207728 0.097952 0)
(0.197147 0.097942 0)
(0.188204 0.0990936 0)
(0.176064 0.0999657 0)
(0.154709 0.101228 0)
(0.12448 0.100655 0)
(0.0930646 0.100711 0)
(0.0704678 0.102003 0)
(0.052492 0.102805 0)
(0.0389065 0.104479 0)
(0.0254322 0.105447 0)
(0.0113904 0.10685 0)
(3 5.08984e-17 0)
(3 -3.20664e-17 0)
(3 2.93544e-16 0)
(3 5.36175e-16 0)
(3 5.24757e-16 0)
(3 3.25898e-16 0)
(3 -2.6928e-16 0)
(3 -1.74267e-16 0)
(3 3.34816e-17 0)
(3 -2.53074e-16 0)
(3 -7.52401e-16 0)
(3 -7.98693e-16 0)
(3 -3.92771e-16 0)
(3 -4.88371e-16 0)
(3 -9.19239e-16 0)
(3 -6.81647e-16 0)
(3 -2.58355e-16 0)
(3 -4.11562e-17 0)
(3 -4.89358e-16 0)
(3 -9.29506e-16 0)
(3 -3.29371e-16 0)
(3 -5.82912e-16 0)
(3 -7.209e-16 0)
(3 -3.72221e-17 0)
(3 3.17912e-17 0)
(3 -6.33813e-16 0)
(3 -1.00305e-15 0)
(3 -4.92512e-16 0)
(3 2.68245e-16 0)
(3 1.47422e-15 0)
(3 8.79301e-17 0)
(3 -7.23543e-16 0)
(3 -7.08017e-16 0)
(3 -7.59485e-16 0)
(3 -8.23875e-16 0)
(3 -8.04869e-16 0)
(3 -1.03877e-15 0)
(3 -8.83681e-16 0)
(3 -1.30711e-15 0)
(3 -3.46515e-15 0)
(3 -3.93898e-15 0)
(3 -3.73817e-15 0)
(3 -2.29792e-15 0)
(3 -7.18909e-16 0)
(3 -6.41159e-16 0)
(3 -6.47086e-16 0)
(3 -1.58146e-15 0)
(3 -2.15803e-15 0)
(3 -2.09406e-15 0)
(3 -2.00659e-15 0)
(3 -2.12372e-15 0)
(3 -2.14979e-15 0)
(3 -2.03716e-15 0)
(3 -1.31842e-15 0)
(3 -3.47815e-16 0)
(3 9.22085e-16 0)
(3 -4.6259e-18 0)
(3 -3.76078e-16 0)
(3 -1.48061e-15 0)
(3 -1.35392e-15 0)
(3 -5.27075e-15 0)
(1.45078 0.104284 0)
(0.690263 0.0954625 0)
(0.635449 0.138507 0)
(0.615231 0.134732 0)
(0.600695 0.119713 0)
(0.584325 0.106414 0)
(0.559464 0.108876 0)
(0.532255 0.114921 0)
(0.512723 0.116321 0)
(0.494894 0.117005 0)
(0.484118 0.114014 0)
(0.464887 0.111565 0)
(0.438639 0.114111 0)
(0.399453 0.116412 0)
(0.3737 0.11763 0)
(0.365212 0.122342 0)
(0.363047 0.124991 0)
(0.365647 0.125554 0)
(0.357582 0.125129 0)
(0.335455 0.127302 0)
(0.301075 0.127262 0)
(0.263737 0.128627 0)
(0.230687 0.130793 0)
(0.21092 0.131897 0)
(0.199089 0.131845 0)
(0.189131 0.132362 0)
(0.176502 0.132059 0)
(0.155196 0.131984 0)
(0.125712 0.130643 0)
(0.0953415 0.130328 0)
(0.073681 0.132436 0)
(0.0559286 0.134045 0)
(0.0421234 0.136295 0)
(0.0277802 0.137211 0)
(0.0118111 0.138758 0)
(3 9.89574e-18 0)
(3 1.50636e-16 0)
(3 2.56185e-16 0)
(3 3.74475e-16 0)
(3 4.26264e-16 0)
(3 5.74946e-16 0)
(3 4.57014e-16 0)
(3 -1.11103e-17 0)
(3 1.37424e-16 0)
(3 2.59368e-17 0)
(3 -2.73848e-16 0)
(3 1.56639e-17 0)
(3 5.55862e-16 0)
(3 8.45397e-16 0)
(3 9.41984e-16 0)
(3 1.1599e-15 0)
(3 1.4216e-15 0)
(3 1.2121e-15 0)
(3 6.29671e-16 0)
(3 4.03003e-16 0)
(3 5.09177e-16 0)
(3 7.02262e-16 0)
(3 8.02902e-16 0)
(3 7.38024e-16 0)
(3 1.17065e-15 0)
(3 1.09187e-15 0)
(3 9.22455e-16 0)
(3 7.12925e-16 0)
(3 -1.42316e-16 0)
(3 2.23522e-16 0)
(3 7.87536e-16 0)
(3 7.53435e-16 0)
(3 5.75167e-16 0)
(3 1.15392e-16 0)
(3 -2.08866e-16 0)
(3 -5.91527e-16 0)
(3 -5.82821e-16 0)
(3 -4.84426e-17 0)
(3 -1.84303e-16 0)
(3 -1.43468e-15 0)
(3 -2.21425e-15 0)
(3 -2.70074e-15 0)
(3 -1.44963e-15 0)
(3 -5.2613e-16 0)
(3 -6.41798e-16 0)
(3 -7.37632e-16 0)
(3 2.79802e-17 0)
(3 9.36575e-18 0)
(3 -2.81292e-16 0)
(3 -7.50473e-16 0)
(3 -1.21505e-15 0)
(3 -1.28556e-15 0)
(3 -4.80387e-17 0)
(3 3.40978e-16 0)
(3 5.47639e-16 0)
(3 8.67614e-16 0)
(3 4.04601e-16 0)
(3 4.39754e-16 0)
(3 -3.66894e-16 0)
(3 -1.10357e-15 0)
(3 -2.52484e-15 0)
(1.6144 0.136121 0)
(0.710275 0.146405 0)
(0.627634 0.167226 0)
(0.615384 0.154783 0)
(0.604976 0.137643 0)
(0.590016 0.129386 0)
(0.56709 0.137036 0)
(0.539025 0.145393 0)
(0.516989 0.146181 0)
(0.49798 0.145447 0)
(0.485964 0.141457 0)
(0.467677 0.139056 0)
(0.446219 0.143499 0)
(0.410408 0.147202 0)
(0.38544 0.149785 0)
(0.375102 0.155116 0)
(0.370852 0.158257 0)
(0.371542 0.158304 0)
(0.362623 0.15766 0)
(0.341352 0.160229 0)
(0.308382 0.160418 0)
(0.271821 0.162471 0)
(0.238137 0.16582 0)
(0.216698 0.16765 0)
(0.202966 0.168089 0)
(0.191268 0.168545 0)
(0.177833 0.167364 0)
(0.157292 0.165609 0)
(0.129764 0.163028 0)
(0.101149 0.162457 0)
(0.0798324 0.165083 0)
(0.0617137 0.167516 0)
(0.0465739 0.170392 0)
(0.0303064 0.171236 0)
(0.0121701 0.172787 0)
(3 -3.19788e-17 0)
(3 2.84338e-16 0)
(3 7.57009e-16 0)
(3 6.75224e-16 0)
(3 8.18342e-16 0)
(3 7.54945e-16 0)
(3 4.74602e-16 0)
(3 -2.77181e-16 0)
(3 -4.24414e-16 0)
(3 -3.14368e-16 0)
(3 -1.58802e-16 0)
(3 -2.24276e-16 0)
(3 -3.31206e-16 0)
(3 -2.19904e-16 0)
(3 6.2652e-16 0)
(3 1.16333e-15 0)
(3 1.34305e-15 0)
(3 1.20654e-15 0)
(3 1.30438e-15 0)
(3 1.31233e-15 0)
(3 1.5091e-15 0)
(3 2.19481e-15 0)
(3 2.97246e-15 0)
(3 2.32026e-15 0)
(3 9.44661e-16 0)
(3 3.6847e-16 0)
(3 1.40764e-16 0)
(3 -1.27248e-16 0)
(3 -5.81012e-16 0)
(3 -9.33703e-16 0)
(3 -8.00197e-16 0)
(3 -3.97604e-16 0)
(3 -2.38481e-16 0)
(3 -7.19382e-16 0)
(3 -1.34136e-15 0)
(3 -1.55361e-15 0)
(3 -1.81551e-15 0)
(3 -1.59869e-15 0)
(3 -9.60735e-16 0)
(3 -7.57963e-16 0)
(3 -1.42433e-15 0)
(3 -1.40293e-15 0)
(3 -1.13062e-15 0)
(3 -1.78745e-16 0)
(3 -1.03668e-16 0)
(3 7.34557e-17 0)
(3 4.26298e-16 0)
(3 4.58607e-16 0)
(3 1.91697e-16 0)
(3 -4.39319e-16 0)
(3 -1.24289e-15 0)
(3 -9.66227e-16 0)
(3 -1.13004e-16 0)
(3 1.43e-15 0)
(3 8.10175e-16 0)
(3 -1.15289e-15 0)
(3 -1.76485e-15 0)
(3 -8.54319e-16 0)
(3 -6.37916e-16 0)
(3 -7.77033e-16 0)
(3 5.2883e-16 0)
(1.84279 0.181306 0)
(0.729237 0.210969 0)
(0.629122 0.19053 0)
(0.626211 0.169529 0)
(0.613725 0.15548 0)
(0.599225 0.158075 0)
(0.57515 0.171739 0)
(0.543304 0.179065 0)
(0.518316 0.176407 0)
(0.499076 0.173478 0)
(0.488167 0.170065 0)
(0.473476 0.169535 0)
(0.456507 0.175604 0)
(0.424346 0.180697 0)
(0.398196 0.184194 0)
(0.384561 0.189516 0)
(0.377682 0.192585 0)
(0.376697 0.192389 0)
(0.368084 0.191681 0)
(0.3479 0.19472 0)
(0.317006 0.195373 0)
(0.281142 0.197852 0)
(0.247549 0.202172 0)
(0.224022 0.204731 0)
(0.208135 0.205978 0)
(0.194016 0.207019 0)
(0.179042 0.205922 0)
(0.159713 0.202741 0)
(0.135623 0.198757 0)
(0.109826 0.198002 0)
(0.088605 0.200725 0)
(0.0695845 0.203669 0)
(0.0520635 0.207219 0)
(0.0328242 0.208208 0)
(0.0124056 0.209824 0)
(3 2.18031e-17 0)
(3 1.48868e-16 0)
(3 -2.62397e-17 0)
(3 -3.49235e-17 0)
(3 -3.87861e-16 0)
(3 -4.17125e-16 0)
(3 -2.30577e-16 0)
(3 2.87222e-16 0)
(3 3.76485e-16 0)
(3 3.2896e-16 0)
(3 2.00835e-17 0)
(3 -1.80638e-16 0)
(3 -3.5277e-17 0)
(3 4.26801e-16 0)
(3 6.54881e-16 0)
(3 4.10405e-16 0)
(3 3.79899e-16 0)
(3 5.02639e-16 0)
(3 8.159e-16 0)
(3 1.40949e-15 0)
(3 1.95287e-15 0)
(3 1.88431e-15 0)
(3 1.77808e-15 0)
(3 8.10818e-16 0)
(3 3.02904e-16 0)
(3 -2.00184e-16 0)
(3 -9.30542e-16 0)
(3 -1.45224e-15 0)
(3 -1.42472e-15 0)
(3 -1.43577e-15 0)
(3 -8.1204e-16 0)
(3 -7.09783e-16 0)
(3 -6.29949e-16 0)
(3 -1.12825e-15 0)
(3 -2.01153e-15 0)
(3 -2.57868e-15 0)
(3 -3.27658e-15 0)
(3 -2.96833e-15 0)
(3 -2.64787e-15 0)
(3 -2.80149e-15 0)
(3 -2.50344e-15 0)
(3 -1.85704e-15 0)
(3 -9.29963e-16 0)
(3 -2.55167e-16 0)
(3 2.01122e-16 0)
(3 -2.49563e-16 0)
(3 -8.07483e-16 0)
(3 -1.16167e-15 0)
(3 -9.59953e-16 0)
(3 -3.31356e-16 0)
(3 -7.7844e-17 0)
(3 2.76768e-17 0)
(3 -5.96096e-16 0)
(3 -6.65073e-16 0)
(3 -1.24901e-15 0)
(3 -2.45174e-15 0)
(3 -2.58188e-15 0)
(3 -2.3594e-15 0)
(3 -1.62942e-15 0)
(3 -2.94556e-16 0)
(3 -3.72156e-15 0)
(2.22765 0.212564 0)
(0.769651 0.265031 0)
(0.64231 0.212683 0)
(0.642826 0.183901 0)
(0.626134 0.179578 0)
(0.608114 0.193298 0)
(0.580613 0.209073 0)
(0.547354 0.210894 0)
(0.521294 0.205662 0)
(0.50271 0.20329 0)
(0.493192 0.202826 0)
(0.48344 0.204494 0)
(0.470179 0.210498 0)
(0.440828 0.215734 0)
(0.411904 0.219521 0)
(0.393823 0.224699 0)
(0.383858 0.22763 0)
(0.382029 0.227143 0)
(0.375035 0.227458 0)
(0.355804 0.230808 0)
(0.326864 0.232073 0)
(0.291032 0.235056 0)
(0.257905 0.240245 0)
(0.231906 0.243434 0)
(0.214019 0.245669 0)
(0.19715 0.247544 0)
(0.179782 0.247264 0)
(0.161332 0.244079 0)
(0.141993 0.239428 0)
(0.119966 0.23832 0)
(0.0989022 0.240555 0)
(0.07858 0.243335 0)
(0.0580369 0.247154 0)
(0.035362 0.248468 0)
(0.0125912 0.250487 0)
(3 -5.40541e-17 0)
(3 -6.231e-16 0)
(3 -8.87138e-16 0)
(3 -9.3429e-16 0)
(3 -1.02845e-15 0)
(3 -8.42742e-16 0)
(3 -1.71484e-16 0)
(3 1.03684e-15 0)
(3 1.22825e-15 0)
(3 1.16606e-15 0)
(3 1.06182e-15 0)
(3 1.26119e-15 0)
(3 1.18147e-15 0)
(3 8.95197e-16 0)
(3 5.57919e-16 0)
(3 2.31913e-17 0)
(3 -1.95252e-16 0)
(3 -1.65571e-16 0)
(3 -2.51039e-16 0)
(3 -2.37421e-16 0)
(3 -1.12467e-16 0)
(3 -7.32869e-16 0)
(3 -1.606e-15 0)
(3 -1.35657e-15 0)
(3 -1.16362e-15 0)
(3 -1.67101e-15 0)
(3 -1.93964e-15 0)
(3 -2.96862e-15 0)
(3 -2.88987e-15 0)
(3 -2.98828e-15 0)
(3 -1.00652e-15 0)
(3 6.24411e-16 0)
(3 6.67652e-16 0)
(3 3.46233e-16 0)
(3 -5.20442e-16 0)
(3 -8.60693e-16 0)
(3 -5.91157e-16 0)
(3 -8.90578e-18 0)
(3 -8.05372e-16 0)
(3 -1.01197e-15 0)
(3 -7.78415e-16 0)
(3 -2.88592e-16 0)
(3 -7.54871e-16 0)
(3 -8.05076e-16 0)
(3 1.71317e-16 0)
(3 -2.45417e-16 0)
(3 -6.99382e-16 0)
(3 -4.95585e-16 0)
(3 -1.45438e-16 0)
(3 4.3369e-16 0)
(3 9.90598e-16 0)
(3 8.14484e-16 0)
(3 7.02795e-17 0)
(3 -1.42247e-15 0)
(3 -2.81149e-15 0)
(3 -2.68118e-15 0)
(3 -1.76307e-15 0)
(3 -4.88828e-16 0)
(3 2.60708e-16 0)
(3 5.72374e-16 0)
(3 -1.52123e-16 0)
(2.73364 0.149464 0)
(0.885828 0.278459 0)
(0.658182 0.219406 0)
(0.650682 0.208783 0)
(0.635196 0.221076 0)
(0.611557 0.239647 0)
(0.5846 0.245866 0)
(0.556132 0.239464 0)
(0.528466 0.236196 0)
(0.510495 0.237644 0)
(0.502087 0.241566 0)
(0.495724 0.243811 0)
(0.485341 0.248433 0)
(0.458428 0.25225 0)
(0.426395 0.255934 0)
(0.403607 0.260912 0)
(0.390123 0.264031 0)
(0.387809 0.263565 0)
(0.383206 0.264976 0)
(0.365379 0.268518 0)
(0.338324 0.270211 0)
(0.302597 0.274022 0)
(0.270433 0.280314 0)
(0.241753 0.283947 0)
(0.222495 0.286628 0)
(0.203549 0.289675 0)
(0.184384 0.291118 0)
(0.166648 0.289635 0)
(0.151462 0.285832 0)
(0.133027 0.284219 0)
(0.111904 0.285359 0)
(0.0896783 0.287342 0)
(0.0649882 0.290851 0)
(0.038737 0.29239 0)
(0.0132961 0.295447 0)
(3 -3.70663e-17 0)
(3 -1.03563e-16 0)
(3 1.20532e-17 0)
(3 4.3508e-16 0)
(3 8.27524e-16 0)
(3 1.14217e-15 0)
(3 1.22434e-15 0)
(3 1.17773e-15 0)
(3 1.1144e-15 0)
(3 1.0089e-15 0)
(3 1.06661e-15 0)
(3 4.49686e-16 0)
(3 -1.41918e-16 0)
(3 -8.62507e-16 0)
(3 -1.27714e-15 0)
(3 -1.28521e-15 0)
(3 -1.25712e-15 0)
(3 -5.15967e-16 0)
(3 -3.94366e-16 0)
(3 -1.65057e-15 0)
(3 -2.05257e-15 0)
(3 -1.91647e-15 0)
(3 -1.88513e-15 0)
(3 -2.13164e-15 0)
(3 -2.94964e-15 0)
(3 -3.08091e-15 0)
(3 -2.92441e-15 0)
(3 -2.40848e-15 0)
(3 -1.34436e-15 0)
(3 -9.25561e-16 0)
(3 -7.15473e-16 0)
(3 -2.47081e-16 0)
(3 3.71065e-16 0)
(3 8.58343e-16 0)
(3 1.01913e-15 0)
(3 6.8123e-16 0)
(3 5.67681e-16 0)
(3 1.1792e-15 0)
(3 2.29451e-15 0)
(3 2.44644e-15 0)
(3 1.7741e-15 0)
(3 1.37303e-15 0)
(3 2.85063e-16 0)
(3 -4.5786e-16 0)
(3 -5.97336e-16 0)
(3 -1.97106e-15 0)
(3 -1.26152e-15 0)
(3 3.19005e-16 0)
(3 4.51607e-16 0)
(3 4.33429e-16 0)
(3 4.54265e-16 0)
(3 2.73582e-16 0)
(3 -3.05914e-17 0)
(3 -2.25839e-17 0)
(3 -8.82051e-16 0)
(3 -1.62599e-15 0)
(3 -1.76583e-15 0)
(3 -1.13437e-15 0)
(3 -3.20417e-16 0)
(3 -1.34408e-16 0)
(3 -3.10727e-16 0)
(3.01065 0.00985979 0)
(1.12915 0.27864 0)
(0.693583 0.225915 0)
(0.657198 0.258337 0)
(0.627089 0.282 0)
(0.606045 0.286063 0)
(0.595992 0.276069 0)
(0.574184 0.267677 0)
(0.54694 0.26963 0)
(0.526563 0.277185 0)
(0.515478 0.283402 0)
(0.510069 0.284097 0)
(0.501955 0.286513 0)
(0.47864 0.288791 0)
(0.444743 0.293085 0)
(0.417225 0.298472 0)
(0.399841 0.302327 0)
(0.395851 0.302597 0)
(0.392779 0.30368 0)
(0.378465 0.307667 0)
(0.352141 0.309745 0)
(0.31783 0.314567 0)
(0.284766 0.322597 0)
(0.252599 0.326921 0)
(0.231042 0.330032 0)
(0.210737 0.334607 0)
(0.191361 0.338514 0)
(0.174867 0.340462 0)
(0.161722 0.339288 0)
(0.145353 0.337463 0)
(0.12373 0.336989 0)
(0.0991726 0.337341 0)
(0.0716902 0.339683 0)
(0.0419228 0.340768 0)
(0.0142212 0.345228 0)
(3 3.48426e-17 0)
(3 1.40641e-16 0)
(3 1.34847e-16 0)
(3 5.15078e-16 0)
(3 4.87264e-16 0)
(3 3.17183e-16 0)
(3 6.28173e-17 0)
(3 -1.19557e-16 0)
(3 3.88456e-17 0)
(3 -1.45794e-16 0)
(3 -3.38261e-16 0)
(3 -4.86597e-16 0)
(3 -4.72452e-16 0)
(3 -2.90829e-16 0)
(3 -2.7124e-16 0)
(3 -4.39487e-16 0)
(3 -6.17147e-16 0)
(3 -5.48669e-16 0)
(3 -6.13584e-16 0)
(3 -1.02872e-15 0)
(3 -1.6674e-15 0)
(3 -1.7518e-15 0)
(3 -2.43842e-15 0)
(3 -2.05204e-15 0)
(3 -1.62011e-15 0)
(3 -1.50643e-15 0)
(3 -8.57983e-16 0)
(3 3.53224e-16 0)
(3 6.30177e-16 0)
(3 5.71745e-16 0)
(3 6.03818e-16 0)
(3 5.21141e-16 0)
(3 8.13375e-16 0)
(3 1.02592e-15 0)
(3 1.26111e-15 0)
(3 1.48719e-15 0)
(3 1.3784e-15 0)
(3 6.41441e-16 0)
(3 7.19261e-16 0)
(3 8.18223e-16 0)
(3 9.14259e-16 0)
(3 1.32054e-15 0)
(3 4.70866e-16 0)
(3 -1.01154e-15 0)
(3 -2.4939e-15 0)
(3 -2.97949e-15 0)
(3 -1.47941e-15 0)
(3 -4.69739e-16 0)
(3 -4.26523e-16 0)
(3 -5.09295e-16 0)
(3 -4.51051e-16 0)
(3 1.07644e-16 0)
(3 8.75094e-16 0)
(3 1.2434e-15 0)
(3 6.26832e-16 0)
(3 -1.66452e-16 0)
(3 -7.89601e-16 0)
(3 -9.80785e-16 0)
(3 -1.05157e-15 0)
(3 -4.56731e-16 0)
(3 -6.13228e-16 0)
(3.0001 2.22324e-05 0)
(1.58741 0.300682 0)
(0.730962 0.281047 0)
(0.652078 0.319715 0)
(0.629899 0.323369 0)
(0.623104 0.313246 0)
(0.615627 0.300994 0)
(0.597766 0.298959 0)
(0.572175 0.307444 0)
(0.549417 0.319083 0)
(0.532893 0.323944 0)
(0.526708 0.322464 0)
(0.518074 0.324081 0)
(0.498751 0.327471 0)
(0.464438 0.333877 0)
(0.432018 0.340574 0)
(0.410661 0.344513 0)
(0.402952 0.345523 0)
(0.401461 0.345082 0)
(0.393035 0.348566 0)
(0.369875 0.351156 0)
(0.337816 0.357002 0)
(0.301579 0.366707 0)
(0.267794 0.372453 0)
(0.242195 0.376973 0)
(0.222663 0.382926 0)
(0.206198 0.389918 0)
(0.192521 0.395341 0)
(0.179722 0.397632 0)
(0.163116 0.396486 0)
(0.139275 0.39524 0)
(0.111329 0.394193 0)
(0.0807023 0.395501 0)
(0.0471986 0.395799 0)
(0.0164689 0.401592 0)
(3 2.05382e-17 0)
(3 -3.2327e-16 0)
(3 -5.56864e-16 0)
(3 -7.06299e-16 0)
(3 -5.39367e-16 0)
(3 -5.7573e-16 0)
(3 -6.95719e-16 0)
(3 -1.00165e-15 0)
(3 -1.23321e-15 0)
(3 -1.03132e-15 0)
(3 -9.45861e-16 0)
(3 -9.90836e-17 0)
(3 1.18725e-15 0)
(3 1.04543e-15 0)
(3 7.96937e-16 0)
(3 7.69785e-16 0)
(3 8.53294e-16 0)
(3 4.71954e-16 0)
(3 -7.43661e-16 0)
(3 -8.92288e-16 0)
(3 -1.04069e-15 0)
(3 -1.21335e-15 0)
(3 -1.86182e-15 0)
(3 -2.3075e-15 0)
(3 -1.12945e-15 0)
(3 3.45653e-16 0)
(3 6.52398e-16 0)
(3 4.89319e-16 0)
(3 -5.411e-17 0)
(3 -6.34145e-16 0)
(3 -3.57391e-16 0)
(3 -1.15938e-16 0)
(3 2.04863e-16 0)
(3 6.46964e-16 0)
(3 5.53693e-16 0)
(3 1.12258e-15 0)
(3 7.47364e-16 0)
(3 -2.6232e-17 0)
(3 -6.50977e-16 0)
(3 -4.21539e-16 0)
(3 -3.0568e-16 0)
(3 -5.82076e-17 0)
(3 -8.9331e-16 0)
(3 -1.21815e-15 0)
(3 -2.48352e-15 0)
(3 -3.20454e-15 0)
(3 -3.40378e-15 0)
(3 -3.40578e-15 0)
(3 -3.33257e-15 0)
(3 -2.6964e-15 0)
(3 -2.16542e-15 0)
(3 -5.4061e-16 0)
(3 1.21825e-15 0)
(3 1.94103e-15 0)
(3 2.1188e-15 0)
(3 9.53096e-16 0)
(3 4.64521e-16 0)
(3 2.15711e-16 0)
(3 -5.32372e-16 0)
(3 -6.37628e-16 0)
(3 -5.29736e-16 0)
(3 3.17282e-08 0)
(2.34372 0.274696 0)
(0.835947 0.362607 0)
(0.681155 0.355026 0)
(0.663684 0.338813 0)
(0.650511 0.336942 0)
(0.637212 0.336545 0)
(0.618978 0.344569 0)
(0.59422 0.356834 0)
(0.57035 0.363648 0)
(0.553298 0.36141 0)
(0.545908 0.359284 0)
(0.538527 0.36239 0)
(0.52292 0.368762 0)
(0.491586 0.37642 0)
(0.454909 0.385431 0)
(0.427757 0.388211 0)
(0.415259 0.389506 0)
(0.414012 0.389796 0)
(0.411324 0.390744 0)
(0.394383 0.394723 0)
(0.362578 0.40166 0)
(0.325445 0.412448 0)
(0.287284 0.421431 0)
(0.256854 0.429181 0)
(0.237367 0.437123 0)
(0.224752 0.450149 0)
(0.212572 0.458814 0)
(0.199162 0.463814 0)
(0.180262 0.464465 0)
(0.153533 0.46303 0)
(0.121587 0.461372 0)
(0.0876017 0.462794 0)
(0.0521004 0.462268 0)
(0.0188757 0.468431 0)
(3 -3.4554e-17 0)
(3 -2.19339e-17 0)
(3 5.39525e-17 0)
(3 -3.01092e-16 0)
(3 -3.53404e-16 0)
(3 -5.11935e-17 0)
(3 6.63041e-17 0)
(3 9.19354e-17 0)
(3 2.48457e-16 0)
(3 5.81672e-16 0)
(3 5.39988e-16 0)
(3 4.79122e-16 0)
(3 8.31554e-16 0)
(3 9.15906e-16 0)
(3 8.62565e-16 0)
(3 9.32552e-16 0)
(3 8.13438e-16 0)
(3 6.01609e-16 0)
(3 4.0059e-17 0)
(3 -3.06903e-16 0)
(3 -2.15466e-16 0)
(3 -3.07349e-16 0)
(3 -5.34624e-16 0)
(3 -8.92242e-16 0)
(3 -3.51149e-16 0)
(3 5.52835e-16 0)
(3 4.81627e-16 0)
(3 -1.47464e-16 0)
(3 -1.36773e-15 0)
(3 -1.72177e-15 0)
(3 -1.92653e-15 0)
(3 -2.18906e-15 0)
(3 -1.13442e-15 0)
(3 8.17788e-17 0)
(3 4.98312e-16 0)
(3 5.02757e-16 0)
(3 7.25444e-16 0)
(3 1.39067e-15 0)
(3 1.43599e-15 0)
(3 7.94307e-16 0)
(3 -1.36374e-16 0)
(3 -9.78568e-16 0)
(3 -6.26971e-16 0)
(3 -1.43399e-16 0)
(3 -8.41956e-16 0)
(3 -2.03874e-15 0)
(3 -2.93794e-15 0)
(3 -3.3489e-15 0)
(3 -2.37151e-15 0)
(3 -1.51849e-15 0)
(3 -1.35141e-15 0)
(3 -7.29827e-16 0)
(3 -2.12143e-16 0)
(3 -2.99736e-16 0)
(3 6.0472e-16 0)
(3 1.51502e-15 0)
(3 1.81634e-15 0)
(3 1.79072e-15 0)
(3 1.21917e-15 0)
(3 8.43682e-16 0)
(3 3.9078e-16 0)
(3 5.23377e-11 0)
(3.02826 0.0265246 0)
(1.14664 0.414856 0)
(0.733772 0.380633 0)
(0.695349 0.369234 0)
(0.672989 0.379995 0)
(0.653026 0.390896 0)
(0.637199 0.401449 0)
(0.617422 0.404925 0)
(0.594289 0.401785 0)
(0.578961 0.394387 0)
(0.569586 0.395428 0)
(0.566565 0.40323 0)
(0.554399 0.41203 0)
(0.528179 0.419449 0)
(0.489171 0.428009 0)
(0.453892 0.432308 0)
(0.433723 0.435709 0)
(0.428998 0.439377 0)
(0.429513 0.438474 0)
(0.420054 0.442986 0)
(0.394267 0.450997 0)
(0.356456 0.462234 0)
(0.317018 0.473605 0)
(0.284688 0.486923 0)
(0.263642 0.498365 0)
(0.254029 0.51206 0)
(0.243639 0.525578 0)
(0.230108 0.533831 0)
(0.209909 0.537919 0)
(0.18067 0.539154 0)
(0.143383 0.540196 0)
(0.101947 0.544954 0)
(0.061802 0.54526 0)
(0.0229284 0.55174 0)
(3 -5.51894e-17 0)
(3 2.37788e-17 0)
(3 3.54781e-16 0)
(3 3.58907e-16 0)
(3 1.29941e-16 0)
(3 1.38171e-16 0)
(3 3.86059e-16 0)
(3 6.5313e-16 0)
(3 8.01298e-16 0)
(3 1.22265e-15 0)
(3 1.26117e-15 0)
(3 8.99022e-16 0)
(3 3.58128e-16 0)
(3 2.86136e-16 0)
(3 7.22521e-16 0)
(3 8.74817e-16 0)
(3 1.46392e-15 0)
(3 1.65387e-15 0)
(3 1.48727e-15 0)
(3 7.37991e-16 0)
(3 -2.13996e-17 0)
(3 9.15996e-17 0)
(3 6.76246e-16 0)
(3 1.0493e-15 0)
(3 1.05535e-15 0)
(3 9.71712e-16 0)
(3 1.01154e-15 0)
(3 4.00989e-16 0)
(3 -3.70019e-17 0)
(3 -5.39504e-16 0)
(3 -8.50678e-16 0)
(3 -1.16753e-15 0)
(3 -1.14576e-15 0)
(3 -6.10314e-16 0)
(3 -1.3369e-16 0)
(3 1.63756e-16 0)
(3 8.13788e-16 0)
(3 9.88764e-16 0)
(3 1.02556e-15 0)
(3 9.9947e-16 0)
(3 1.2494e-15 0)
(3 1.09809e-15 0)
(3 2.37873e-16 0)
(3 -2.40467e-16 0)
(3 -3.56345e-16 0)
(3 -3.33427e-17 0)
(3 -4.06305e-17 0)
(3 3.02779e-16 0)
(3 1.21321e-15 0)
(3 1.15987e-15 0)
(3 1.24282e-15 0)
(3 1.32866e-15 0)
(3 1.53713e-15 0)
(3 1.44212e-15 0)
(3 1.45605e-15 0)
(3 1.84922e-15 0)
(3 2.96327e-15 0)
(3 3.24131e-15 0)
(3 2.81929e-15 0)
(3 2.40639e-15 0)
(3 2.05046e-15 0)
(3 7.05123e-14 0)
(3.00063 6.74944e-05 0)
(1.93731 0.403361 0)
(0.79236 0.444766 0)
(0.708214 0.415773 0)
(0.693865 0.420946 0)
(0.681568 0.430835 0)
(0.669787 0.436491 0)
(0.655268 0.437507 0)
(0.629203 0.438591 0)
(0.603731 0.436533 0)
(0.592901 0.443602 0)
(0.588667 0.453927 0)
(0.584383 0.459629 0)
(0.565981 0.465175 0)
(0.532502 0.468842 0)
(0.490987 0.477956 0)
(0.461356 0.484099 0)
(0.450355 0.49198 0)
(0.449509 0.494239 0)
(0.446906 0.497153 0)
(0.430219 0.506315 0)
(0.397991 0.516623 0)
(0.360195 0.530181 0)
(0.325927 0.548161 0)
(0.300795 0.564815 0)
(0.286556 0.582431 0)
(0.273238 0.599698 0)
(0.255924 0.615745 0)
(0.233406 0.627309 0)
(0.202288 0.637172 0)
(0.162532 0.644528 0)
(0.116579 0.653991 0)
(0.0709275 0.656187 0)
(0.0258988 0.662125 0)
(3 -2.1668e-18 0)
(3 1.33552e-16 0)
(3 6.28547e-17 0)
(3 -5.73241e-17 0)
(3 -2.13929e-16 0)
(3 -4.00021e-16 0)
(3 -4.41216e-16 0)
(3 -4.65285e-16 0)
(3 -3.58007e-16 0)
(3 -2.72498e-16 0)
(3 -1.17634e-16 0)
(3 7.8776e-17 0)
(3 -2.36325e-17 0)
(3 -2.16661e-16 0)
(3 -3.59328e-16 0)
(3 -1.79111e-16 0)
(3 4.72597e-16 0)
(3 5.96204e-16 0)
(3 5.26084e-16 0)
(3 4.9645e-16 0)
(3 3.70355e-16 0)
(3 4.49182e-16 0)
(3 8.08283e-16 0)
(3 1.20867e-15 0)
(3 1.56879e-15 0)
(3 1.67799e-15 0)
(3 1.57566e-15 0)
(3 1.65459e-15 0)
(3 2.3397e-15 0)
(3 2.26717e-15 0)
(3 1.33187e-15 0)
(3 8.02786e-16 0)
(3 3.30072e-16 0)
(3 3.49707e-16 0)
(3 4.05672e-16 0)
(3 2.86222e-16 0)
(3 2.98405e-16 0)
(3 4.38857e-16 0)
(3 6.38556e-16 0)
(3 8.0046e-16 0)
(3 1.06788e-15 0)
(3 1.25212e-15 0)
(3 5.34315e-16 0)
(3 -7.51681e-16 0)
(3 -4.54778e-16 0)
(3 5.14003e-16 0)
(3 1.52794e-15 0)
(3 1.6654e-15 0)
(3 1.50292e-15 0)
(3 1.42707e-15 0)
(3 1.42437e-15 0)
(3 1.63191e-15 0)
(3 1.74522e-15 0)
(3 1.72203e-15 0)
(3 2.12161e-15 0)
(3 2.58249e-15 0)
(3 1.51765e-15 0)
(3 1.10481e-15 0)
(3 1.01456e-15 0)
(3 1.63921e-15 0)
(3 1.92609e-15 0)
(3 2.30286e-15 0)
(3 1.86669e-07 0)
(3.01693 0.0482494 0)
(1.16987 0.498238 0)
(0.762289 0.448119 0)
(0.729278 0.448635 0)
(0.711013 0.47068 0)
(0.690256 0.482545 0)
(0.674332 0.484623 0)
(0.657486 0.482691 0)
(0.632544 0.485349 0)
(0.617618 0.492484 0)
(0.612242 0.50243 0)
(0.612415 0.506187 0)
(0.604702 0.508625 0)
(0.580168 0.512065 0)
(0.542922 0.522202 0)
(0.506098 0.532552 0)
(0.485665 0.545513 0)
(0.480258 0.55374 0)
(0.480393 0.556017 0)
(0.473459 0.564906 0)
(0.4519 0.57711 0)
(0.418324 0.592982 0)
(0.384574 0.614432 0)
(0.355185 0.637316 0)
(0.336045 0.66074 0)
(0.321473 0.685913 0)
(0.305297 0.710021 0)
(0.286825 0.730759 0)
(0.263028 0.746111 0)
(0.228523 0.756087 0)
(0.177914 0.776908 0)
(0.117389 0.800384 0)
(0.0473108 0.822755 0)
(3 1.45044e-16 0)
(3 1.02645e-16 0)
(3 1.18171e-17 0)
(3 -4.47277e-17 0)
(3 -8.72757e-17 0)
(3 -9.01642e-17 0)
(3 -6.91828e-17 0)
(3 -9.43426e-17 0)
(3 -2.07843e-16 0)
(3 -4.59435e-16 0)
(3 -8.10858e-16 0)
(3 -1.15845e-15 0)
(3 -1.24459e-15 0)
(3 -1.05928e-15 0)
(3 -7.66347e-16 0)
(3 -8.88198e-16 0)
(3 -1.91045e-15 0)
(3 -2.17114e-15 0)
(3 -1.92152e-15 0)
(3 -5.95438e-16 0)
(3 1.8349e-16 0)
(3 4.68249e-16 0)
(3 7.43934e-16 0)
(3 1.23203e-15 0)
(3 1.74076e-15 0)
(3 1.79699e-15 0)
(3 1.97402e-15 0)
(3 2.0431e-15 0)
(3 2.05808e-15 0)
(3 2.11457e-15 0)
(3 2.22035e-15 0)
(3 2.27614e-15 0)
(3 1.89605e-15 0)
(3 3.38541e-15 0)
(3 3.89886e-15 0)
(3 2.89782e-15 0)
(3 2.69479e-15 0)
(3 2.96844e-15 0)
(3 2.40088e-15 0)
(3 1.67066e-15 0)
(3 1.18784e-15 0)
(3 5.67272e-16 0)
(3 5.38848e-16 0)