/*--------------------------------*- C++ -*----------------------------------*\
  =========                 |
  \\      /  F ield         | OpenFOAM: The Open Source CFD Toolbox
   \\    /   O peration     | Website:  https://openfoam.org
    \\  /    A nd           | Version:  7
     \\/     M anipulation  |
\*---------------------------------------------------------------------------*/
FoamFile
{
    version     2.0;
    format      ascii;
    class       volScalarField;
    location    "25";
    object      p;
}
// * * * * * * * * * * * * * * * * * * * * * * * * * * * * * * * * * * * * * //

dimensions      [0 2 -2 0 0 0 0];

internalField   nonuniform List<scalar> 
16000
(
8.85944e-06
-0.00013137797
-0.0004428589
-0.00084521519
-0.0012634229
-0.0016520899
-0.001980343
-0.0022293424
-0.0023884516
-0.0024519653
-0.0024169426
-0.0022819263
-0.0020463465
-0.0017104474
-0.0012755871
-0.00074477416
-0.00012331925
0.00058051136
0.0013549404
0.0021843132
0.0030490018
0.0039256472
0.0047877684
0.0056067761
0.0063533453
0.006999094
0.0075184638
0.0078906606
0.0081014907
0.0081449183
0.0080241848
0.007752391
0.0073525246
0.0068570158
0.0063067207
0.0057491723
0.0052394333
0.0048337952
0.0045939392
0.0045551863
0.00015351638
8.615003e-06
-0.00024146574
-0.00055034195
-0.00087253374
-0.0011737317
-0.0014296894
-0.0016242263
-0.001746983
-0.0017915179
-0.001753891
-0.001631738
-0.0014238042
-0.0011298577
-0.00075088979
-0.00028950647
0.00024958282
0.00085906795
0.0015286154
0.0022445911
0.0029899934
0.0037447932
0.0044862841
0.005190112
0.0058314267
0.0063863312
0.0068334998
0.0071558294
0.0073419828
0.0073876767
0.0072965803
0.007080717
0.006760316
0.0063631414
0.0059233817
0.0054800168
0.0050742074
0.0047494161
0.0045508604
0.0045155075
0.00047218484
0.00025430241
-1.531345e-06
-0.00028057414
-0.00056081387
-0.00081774813
-0.0010335879
-0.0011962738
-0.0012975993
-0.0013320451
-0.0012958933
-0.0011866116
-0.0010025595
-0.00074298148
-0.00040822348
-1.0214597e-07
0.00047764504
0.0010189016
0.0016147757
0.0022533368
0.0029195817
0.0035955559
0.0042608972
0.0048936072
0.0054711461
0.0059717834
0.0063761118
0.0066685984
0.0068390224
0.0068836483
0.0068060039
0.0066171671
0.0063355024
0.0059858412
0.0055981798
0.0052059443
0.0048436976
0.0045456749
0.004348241
0.0042809958
0.0008938018
0.00056254441
0.00026185393
-2.3927751e-05
-0.00029452599
-0.00053367082
-0.00072979856
-0.00087569456
-0.00096628633
-0.00099787838
-0.00096765796
-0.00087333901
-0.00071305009
-0.00048545273
-0.00019003802
0.00017245276
0.00059954084
0.0010865167
0.0016260043
0.0022076554
0.0028180407
0.0034407122
0.004056708
0.0046452394
0.0051847436
0.005654202
0.0060346428
0.0063107023
0.0064720833
0.0065147334
0.0064415896
0.0062627872
0.005995294
0.0056619775
0.0052901487
0.0049097201
0.004551343
0.0042448993
0.0040169314
0.0038813517
0.0013446002
0.00088493468
0.00052178266
0.0002114705
-6.6234901e-05
-0.00030228936
-0.00049101807
-0.00063015962
-0.00071805705
-0.00075314442
-0.000733759
-0.00065799941
-0.00052378279
-0.00032909923
-7.241572e-05
0.00024681569
0.00062759285
0.0010667941
0.0015586628
0.0020944121
0.0026620167
0.0032462457
0.0038290222
0.0043901028
0.0049081046
0.0053618281
0.0057317955
0.0060018765
0.0061608332
0.0062035903
0.0061320366
0.0059552208
0.0056889003
0.0053544833
0.0049774221
0.004585294
0.0042063928
0.0038678617
0.0035851767
0.0033615435
0.0017714466
0.0011783215
0.00074366288
0.00039761786
0.00010105872
-0.00014322862
-0.00033493593
-0.0004765163
-0.00056966061
-0.00061494437
-0.00061187795
-0.0005589357
-0.00045376153
-0.00029355654
-7.5601084e-05
0.00020212855
0.00054029027
0.00093750121
0.0013897135
0.0018897049
0.0024267554
0.0029865899
0.0035516295
0.0041016357
0.0046147234
0.0050687212
0.0054427888
0.0057191523
0.0058847853
0.0059328295
0.0058635406
0.0056845756
0.0054105362
0.0050618039
0.0046627532
0.00423974
0.0038202203
0.0034307184
0.0030781705
0.0027508623
0.0021291386
0.0014041642
0.00089458123
0.00050635445
0.00018308731
-7.7889266e-05
-0.00028109064
-0.00043329742
-0.00053929258
-0.00060162066
-0.00062083226
-0.00059565353
-0.00052332064
-0.00040009094
-0.00022188296
1.4990419e-05
0.00031303251
0.00067276251
0.0010919604
0.0015650227
0.0020825046
0.0026309465
0.0031930059
0.0037480446
0.0042731159
0.0047443706
0.0051387845
0.0054360564
0.0056204814
0.0056825797
0.0056202541
0.0054392676
0.0051529064
0.0047808013
0.0043469656
0.0038776302
0.0034008649
0.0029443706
0.0025081468
0.0020666
0.0023791126
0.0015277109
0.00094364047
0.00051046914
0.00015588712
-0.00012766532
-0.0003490568
-0.00051897299
-0.00064494583
-0.00073121093
-0.00077912544
-0.00078746089
-0.00075285227
-0.00067042143
-0.00053452745
-0.00033961367
-8.1119778e-05
0.00024358353
0.00063429323
0.0010871741
0.0015941437
0.0021425633
0.0027152171
0.0032908225
0.0038449606
0.0043515058
0.004784467
0.0051200873
0.0053389839
0.0054280727
0.0053820181
0.0052039881
0.0049055514
0.0045056198
0.004028393
0.003501008
0.0029535657
0.0024166466
0.001885243
0.0013227245
0.0024875603
0.0015172694
0.00086154103
0.00038308267
-5.2183029e-06
-0.00031543839
-0.00056041642
-0.00075433938
-0.00090712509
-0.0010243822
-0.0011079947
-0.0011565303
-0.0011657936
-0.00112955
-0.0010403754
-0.00089060778
-0.00067337645
-0.00038367021
-1.9392171e-05
0.00041766601
0.00092102248
0.0014790382
0.0020746839
0.0026859546
0.0032866933
0.00384801
0.0043402093
0.0047350991
0.005008461
0.0051423847
0.0051271477
0.0049623679
0.0046572436
0.0042297401
0.0037045565
0.003110624
0.0024814562
0.0018522029
0.0012142787
0.00052079411
0.0024240096
0.0013437586
0.00062071839
9.8150833e-05
-0.00032488251
-0.00066472712
-0.00093788481
-0.0011616799
-0.0013480705
-0.0015037237
-0.0016307667
-0.0017273065
-0.0017880776
-0.0018052533
-0.0017693798
-0.0016704193
-0.0014988842
-0.0012470328
-0.00091007791
-0.00048735103
1.668024e-05
0.00059179194
0.0012213852
0.0018828557
0.0025482089
0.0031854172
0.0037603974
0.0042395089
0.0045923839
0.0047947792
0.0048310633
0.0046959648
0.004395321
0.0039456307
0.0033721445
0.0027062755
0.0019862601
0.001253525
0.00049702583
-0.00034011436
0.0021606854
0.00098054392
0.00019557324
-0.00036897801
-0.00082692181
-0.0011986962
-0.0015042156
-0.0017636224
-0.0019906061
-0.002192608
-0.0023717395
-0.0025254095
-0.0026470563
-0.0027270294
-0.0027535884
-0.002714018
-0.0025958515
-0.0023881828
-0.0020830272
-0.0016766831
-0.0011709987
-0.00057409266
9.8326865e-05
0.0008234503
0.0015715711
0.0023073114
0.0029915917
0.0035842886
0.0040474324
0.0043486536
0.0044644531
0.0043828081
0.0041046974
0.0036442187
0.0030269098
0.0022871221
0.0014690258
0.00062206338
-0.00026643381
-0.0012636036
0.0016723924
0.00040350887
-0.0004372467
-0.0010410793
-0.0015336593
-0.0019393675
-0.0022813167
-0.0025821892
-0.0028571448
-0.0031141629
-0.0033551251
-0.0035765459
-0.0037703751
-0.0039249296
-0.0040259333
-0.0040576763
-0.0040043043
-0.0038512309
-0.0035866427
-0.0032030335
-0.0026986924
-0.0020792289
-0.0013581661
-0.00055792076
0.00029049865
0.0011484053
0.0019712675
0.002711466
0.0033218529
0.0037598536
0.0039916783
0.0039960643
0.0037669424
0.0033144513
0.0026636875
0.0018521061
0.00093091492
-4.063151e-05
-0.0010762306
-0.0022540701
0.00093673076
-0.0004086817
-0.0012984723
-0.0019385392
-0.0024652736
-0.0029068427
-0.0032893619
-0.0036378118
-0.0039686128
-0.0042901069
-0.004603795
-0.0049051601
-0.0051845233
-0.0054280025
-0.0056185641
-0.0057371937
-0.005764219
-0.0056807944
-0.0054705356
-0.0051212476
-0.0046266901
-0.0039885007
-0.0032171696
-0.0023335718
-0.0013691588
-0.00036550012
0.00062726024
0.0015531343
0.0023541622
0.0029752131
0.0033692902
0.0035026958
0.0033592626
0.0029427441
0.0022763589
0.0014003869
0.00037403493
-0.00073173342
-0.0019312064
-0.003314827
-6.5477532e-05
-0.0014741854
-0.0024057661
-0.0030788083
-0.0036391298
-0.0041185039
-0.0045458597
-0.0049482661
-0.0053432497
-0.0057394084
-0.0061377879
-0.0065327787
-0.0069130049
-0.0072622817
-0.0075606449
-0.007785498
-0.0079129283
-0.0079192258
-0.0077826184
-0.0074851934
-0.0070149646
-0.0063680557
-0.0055505225
-0.0045801726
-0.0034875728
-0.0023162395
-0.0011216162
3.1406306e-05
0.0010725305
0.0019315341
0.0025448042
0.0028622278
0.0028534679
0.0025123406
0.0018577305
0.00093175612
-0.00019768493
-0.0014459048
-0.0028274022
-0.0044463741
-0.0013496498
-0.0028075186
-0.0037732463
-0.0044758537
-0.0050691243
-0.0055882227
-0.0060647082
-0.0065275621
-0.0069953208
-0.0074768081
-0.007972625
-0.0084760994
-0.0089741799
-0.0094483591
-0.0098756445
-0.01022964
-0.010481814
-0.010603004
-0.010565214
-0.010343694
-0.0099192946
-0.0092810223
-0.0084285647
-0.0073747211
-0.0061473048
-0.0047902148
-0.0033632277
-0.0019400874
-0.00060457887
0.00055548428
0.0014560762
0.0020258713
0.0022151102
0.0020027179
0.0013994029
0.00044705954
-0.00077755226
-0.0021739508
-0.0037564348
-0.0056446064
-0.0029268785
-0.0044190964
-0.0054110376
-0.0061396554
-0.0067650782
-0.0073256142
-0.0078552789
-0.0083848322
-0.0089337914
-0.0095112594
-0.010117497
-0.0107449
-0.011378865
-0.011998647
-0.012578227
-0.013087287
-0.013492379
-0.013758368
-0.013850239
-0.013735286
-0.013385712
-0.012781591
-0.011914056
-0.010788501
-0.009427519
-0.0078730946
-0.0061875408
-0.0044525597
-0.0027658587
-0.0012349509
3.181569e-05
0.00093639374
0.001403069
0.0013892323
0.00089176281
-5.1289138e-05
-0.0013550447
-0.0029012937
-0.0047036622
-0.0068988114
-0.0048034199
-0.0063148473
-0.0073249119
-0.0080757997
-0.0087322333
-0.0093353869
-0.0099215823
-0.010523281
-0.011161033
-0.011844371
-0.012573421
-0.013339883
-0.014127837
-0.014914497
-0.015670943
-0.016362936
-0.016951936
-0.017396441
-0.017653727
-0.017682099
-0.01744367
-0.016907696
-0.016054406
-0.014879026
-0.013395889
-0.011641986
-0.0096793887
-0.0075957566
-0.0055020602
-0.003526761
-0.0018060847
-0.00047069418
0.0003699983
0.00064329287
0.00032429778
-0.00055856206
-0.0019145135
-0.0036061739
-0.005646028
-0.0081893191
-0.006980309
-0.0084959745
-0.0095160893
-0.010285239
-0.01097091
-0.011616849
-0.012261579
-0.012939268
-0.013671657
-0.014468962
-0.015331498
-0.016250615
-0.017209423
-0.018183411
-0.019141007
-0.020044191
-0.020849323
-0.0215083
-0.021970187
-0.022183439
-0.0220988
-0.021672925
-0.020872744
-0.019680398
-0.018098479
-0.016155162
-0.013908454
-0.01144865
-0.0088978472
-0.0064053005
-0.0041376733
-0.0022639302
-0.00093578221
-0.0002665241
-0.00031348932
-0.001066546
-0.0024335108
-0.0042574516
-0.006549461
-0.0094846612
-0.0094531763
-0.010958935
-0.011981269
-0.012764288
-0.013476395
-0.014163637
-0.014866709
-0.01562161
-0.01645156
-0.017367853
-0.018371433
-0.019453761
-0.020597432
-0.021776634
-0.022957508
-0.024098541
-0.025151144
-0.026060593
-0.026767476
-0.027209812
-0.027325967
-0.027058462
-0.026358753
-0.025193022
-0.023548432
-0.021440002
-0.01891688
-0.016067261
-0.013020446
-0.0099443631
-0.0070369055
-0.0045099576
-0.0025662694
-0.0013718695
-0.0010301848
-0.0015616962
-0.0028805599
-0.0048118571
-0.0073656834
-0.010738089
-0.012212336
-0.013695708
-0.014712957
-0.015504913
-0.016239131
-0.016963735
-0.017721699
-0.018551163
-0.019477292
-0.020513009
-0.021660467
-0.022911813
-0.024249674
-0.025647452
-0.027069465
-0.028471102
-0.02979914
-0.030992418
-0.03198305
-0.032698363
-0.033063729
-0.033006401
-0.032460542
-0.031374062
-0.029714944
-0.027480537
-0.024705684
-0.021470469
-0.017905557
-0.014193012
-0.010560171
-0.0072643056
-0.0045669694
-0.0026999006
-0.0018291086
-0.0020222967
-0.003212158
-0.0052105209
-0.0080282722
-0.011883299
-0.015243211
-0.01669442
-0.017700165
-0.018495391
-0.019245243
-0.019999817
-0.020804705
-0.021700756
-0.022715796
-0.023865134
-0.025152863
-0.026572495
-0.028107316
-0.029730507
-0.031405082
-0.033083805
-0.034709238
-0.036214143
-0.037522417
-0.038550783
-0.039211441
-0.039415781
-0.03907941
-0.038130561
-0.03651445
-0.034206597
-0.031221923
-0.027625523
-0.023541866
-0.019160014
-0.014731707
-0.010558762
-0.0069668537
-0.004265869
-0.0027029743
-0.0024142458
-0.0033687611
-0.0053746052
-0.0084478179
-0.012829216
-0.018527155
-0.019940413
-0.020929541
-0.021721374
-0.022477445
-0.023249953
-0.024087792
-0.025035481
-0.02612457
-0.027373769
-0.028790017
-0.030368972
-0.032095241
-0.033942353
-0.035872533
-0.037836393
-0.039772747
-0.041608739
-0.043260497
-0.044634535
-0.045630143
-0.046143069
-0.046070694
-0.045317258
-0.043806186
-0.041486944
-0.038349135
-0.034435778
-0.029856441
-0.024797697
-0.019527115
-0.014385908
-0.0097650881
-0.0060626721
-0.0036261
-0.0026850648
-0.0032694735
-0.0051998418
-0.0085060204
-0.013453722
-0.022042733
-0.023417828
-0.024387024
-0.025167417
-0.025916344
-0.026688634
-0.027537718
-0.028513318
-0.029652227
-0.030977911
-0.032501256
-0.034220925
-0.036123499
-0.038183369
-0.040362387
-0.04260941
-0.044859911
-0.047035877
-0.049046199
-0.050787786
-0.052147645
-0.053006238
-0.053242298
-0.052738962
-0.051393852
-0.049128676
-0.045903757
-0.041733622
-0.036704023
-0.030988022
-0.024857232
-0.018682315
-0.012915271
-0.0080474738
-0.0045439172
-0.0027557846
-0.0028051618
-0.0045497662
-0.0080485562
-0.013596181
-0.025767533
-0.027111821
-0.028060093
-0.028819007
-0.029542109
-0.030288078
-0.031116954
-0.032085994
-0.033239385
-0.034607092
-0.036205262
-0.038036466
-0.040089841
-0.042340998
-0.044751658
-0.047269119
-0.049825753
-0.052338729
-0.054710191
-0.0568281
-0.058568014
-0.059796062
-0.060373346
-0.060162037
-0.059034859
-0.056884577
-0.053639688
-0.049281305
-0.043863386
-0.037534201
-0.030555483
-0.023312969
-0.016308867
-0.010126198
-0.0053599125
-0.0025105333
-0.00182975
-0.0032474319
-0.006876515
-0.013048668
-0.029680657
-0.031011603
-0.031940769
-0.032665138
-0.03333648
-0.034019704
-0.034784789
-0.035699966
-0.036819744
-0.038182802
-0.039812034
-0.041714794
-0.043883191
-0.046294162
-0.048909228
-0.051674022
-0.054517763
-0.057352896
-0.060075108
-0.06256396
-0.064684385
-0.06628929
-0.067223527
-0.067329579
-0.066456312
-0.06446841
-0.061261782
-0.056781311
-0.051043236
-0.044161038
-0.036372246
-0.028060238
-0.019760504
-0.012137589
-0.0059207542
-0.00178393
-0.00014953544
-0.001065364
-0.0047361384
-0.011545666
-0.033766147
-0.035114618
-0.036029588
-0.036701499
-0.037285041
-0.037855634
-0.038498352
-0.039297317
-0.040321228
-0.041620135
-0.043225258
-0.04514945
-0.047387889
-0.049918547
-0.052702259
-0.05568246
-0.058784762
-0.061916605
-0.064967196
-0.067807966
-0.070293854
-0.07226556
-0.073553163
-0.073981422
-0.07337612
-0.071576689
-0.068447299
-0.063896128
-0.057898564
-0.050526042
-0.041979234
-0.032620958
-0.022998552
-0.013839476
-0.0060011315
-0.00034683972
0.0024895104
0.0022865319
-0.0013064297
-0.0087518948
-0.038017854
-0.039432434
-0.04034092
-0.040934405
-0.041379682
-0.041770019
-0.042213339
-0.042816421
-0.043667013
-0.044829529
-0.046344962
-0.048231988
-0.050488431
-0.053092439
-0.056003119
-0.059160639
-0.06248606
-0.065881088
-0.069228
-0.072389979
-0.075212252
-0.077524021
-0.079141655
-0.079873422
-0.079525849
-0.077913812
-0.074872505
-0.070275171
-0.064056223
-0.056241441
-0.046985533
-0.036614519
-0.025664533
-0.014900588
-0.0052906964
0.0021083917
0.0064162648
0.0071755033
0.0038161236
-0.00424746
-0.042446776
-0.043999355
-0.044910285
-0.045385655
-0.045621144
-0.045739991
-0.045884237
-0.046192198
-0.046776393
-0.047718554
-0.049070383
-0.050855957
-0.053074511
-0.055702747
-0.058696298
-0.061990388
-0.065500041
-0.069119997
-0.072724727
-0.076168579
-0.07928692
-0.081897696
-0.083804284
-0.084799752
-0.08467285
-0.083216678
-0.080240271
-0.075584941
-0.069146439
-0.060904997
-0.050964876
-0.039603415
-0.027324376
-0.014901628
-0.0033863487
0.0059812963
0.012050391
0.014063553
0.011137102
0.0024913763
-0.047092839
-0.048885556
-0.049804691
-0.050098624
-0.050021547
-0.049746016
-0.049463865
-0.049355916
-0.049565459
-0.050193783
-0.051303066
-0.052921109
-0.055046167
-0.057650868
-0.060684832
-0.064075991
-0.067731295
-0.071536803
-0.075358186
-0.079039446
-0.08240579
-0.085263607
-0.087403385
-0.088603595
-0.088636391
-0.08727478
-0.084304327
-0.079537741
-0.072835712
-0.064135784
-0.053491731
-0.041125921
-0.027493447
-0.013349242
0.00020605598
0.011772262
0.019918761
0.023529091
0.021290524
0.012119474
-0.052045039
-0.054217879
-0.055137617
-0.055145986
-0.054606745
-0.053771415
-0.052902162
-0.052234575
-0.051947772
-0.052162897
-0.052950257
-0.054337796
-0.056318826
-0.058858049
-0.061895852
-0.065349564
-0.069115716
-0.073069463
-0.077067578
-0.080939847
-0.084501895
-0.087547669
-0.089854245
-0.091185344
-0.091297522
-0.089943373
-0.086886984
-0.081915129
-0.074856787
-0.065610628
-0.054182714
-0.040739108
-0.025676092
-0.0097063023
0.0060554789
0.020082451
0.030670277
0.036293929
0.035076494
0.025465855
-0.057477713
-0.060213726
-0.061090967
-0.060639371
-0.059418114
-0.057800679
-0.05614406
-0.054749961
-0.053835127
-0.053537081
-0.053928536
-0.055031333
-0.056827927
-0.059269799
-0.06228481
-0.065774629
-0.06962379
-0.073694585
-0.077829239
-0.081848377
-0.085553097
-0.088724386
-0.091125416
-0.092504634
-0.092600615
-0.09114821
-0.087889038
-0.082584335
-0.075033219
-0.065098149
-0.052740256
-0.038070218
-0.021419953
-0.0034418747
0.014768706
0.031597546
0.045084782
0.053256666
0.053517033
0.043607796
-0.06371855
-0.067237309
-0.067946934
-0.066740598
-0.064512593
-0.061815665
-0.059125926
-0.056817018
-0.055138114
-0.054233318
-0.054167142
-0.054945724
-0.05653269
-0.058860156
-0.061836026
-0.065346522
-0.069258858
-0.073420538
-0.077659369
-0.08178286
-0.085578115
-0.088812127
-0.091233203
-0.092573545
-0.092553511
-0.090887863
-0.087294893
-0.081509274
-0.073299105
-0.06248983
-0.048997393
-0.032875599
-0.014386185
0.0058950787
0.026924661
0.047045076
0.064067802
0.075531496
0.077939699
0.068005582
-0.071380734
-0.075893443
-0.076132325
-0.073672192
-0.069958094
-0.065787268
-0.061768693
-0.058339957
-0.055764934
-0.054175005
-0.053609459
-0.054045345
-0.055416538
-0.057628617
-0.06056511
-0.064091378
-0.068055758
-0.072289136
-0.076604039
-0.080793508
-0.084630405
-0.087867202
-0.090236762
-0.091454355
-0.091221295
-0.089230553
-0.08517489
-0.078759527
-0.069717312
-0.057831273
-0.042965213
-0.025107785
-0.0044388206
0.018570441
0.042965149
0.067105336
0.088611105
0.1044836
0.11010517
0.10076104
-0.081631364
-0.087181592
-0.086270126
-0.081716183
-0.075814507
-0.069654671
-0.06396109
-0.059200383
-0.055613456
-0.053286619
-0.052209266
-0.052310749
-0.053484015
-0.055599279
-0.058510862
-0.062059835
-0.066074079
-0.070366908
-0.074735217
-0.078957591
-0.082792857
-0.085979222
-0.088234347
-0.089256623
-0.08872804
-0.086318739
-0.081693571
-0.074524583
-0.064502738
-0.051358597
-0.034889309
-0.01499747
0.0082490189
0.034515695
0.063013836
0.092226353
0.11966035
0.14172295
0.15240489
0.1451251
-0.096759731
-0.10273805
-0.099197831
-0.091155156
-0.082062424
-0.073261388
-0.065507749
-0.059216934
-0.054540118
-0.051469321
-0.049910109
-0.049722895
-0.050745718
-0.05280587
-0.055724356
-0.059316131
-0.06338819
-0.067736644
-0.072143623
-0.076374411
-0.080175134
-0.083271147
-0.085366331
-0.086143513
-0.085266441
-0.082382653
-0.07712815
-0.069138452
-0.05805554
-0.043544669
-0.02531513
-0.0031506695
0.023041638
0.053142059
0.086634121
0.12228377
0.15778162
0.18895244
0.20809866
0.20632849
-0.1213393
-0.12518694
-0.11587272
-0.10208084
-0.088416968
-0.076197953
-0.066005422
-0.058051897
-0.052290987
-0.048549911
-0.046608059
-0.046232682
-0.047194448
-0.049272355
-0.052252661
-0.055924948
-0.060077163
-0.064490568
-0.068935114
-0.073165472
-0.076917845
-0.079907601
-0.081827777
-0.082348591
-0.081118544
-0.077764265
-0.071895697
-0.063110165
-0.050996002
-0.035141609
-0.015145213
0.0093697482
0.038726181
0.073130447
0.11252054
0.15626336
0.20263164
0.24752391
0.28130172
0.29235731
-0.16445676
-0.15843249
-0.137148
-0.11415709
-0.094106951
-0.077630862
-0.064737547
-0.055161467
-0.048489594
-0.044291253
-0.042172562
-0.041787133
-0.042832171
-0.045039408
-0.048164494
-0.05197681
-0.05625053
-0.060757074
-0.065258888
-0.069504435
-0.073224273
-0.076128073
-0.077902521
-0.078210288
-0.076690292
-0.072947572
-0.066577498
-0.057140424
-0.044172147
-0.027180151
-0.0056358309
0.021035511
0.05346484
0.092332338
0.13829698
0.19182763
0.25266874
0.31751216
0.37626931
0.41537148
-0.24629363
-0.20631768
-0.16212998
-0.12552863
-0.097143413
-0.075877943
-0.060487335
-0.049752134
-0.042660043
-0.038436004
-0.036490134
-0.036365171
-0.037697129
-0.040184926
-0.043567016
-0.047603986
-0.05206567
-0.056721454
-0.061332896
-0.065648046
-0.069397079
-0.07228902
-0.074009399
-0.074219632
-0.072558315
-0.068605355
-0.061961475
-0.052155672
-0.038682697
-0.020980903
0.0015964572
0.029826027
0.064687207
0.10746574
0.15987198
0.22417876
0.30290642
0.39553315
0.49624438
0.60321327
-0.4254384
-0.26572977
-0.177221
-0.12463563
-0.089116272
-0.065102417
-0.049323635
-0.039185118
-0.032983512
-0.0296739
-0.028570535
-0.029186571
-0.031156632
-0.034189695
-0.038037397
-0.042473103
-0.047277931
-0.05223095
-0.057102
-0.0616463
-0.065600343
-0.068678725
-0.070571413
-0.070940307
-0.06940761
-0.0656295
-0.059132068
-0.049452536
-0.036074469
-0.018402908
0.004272173
0.032848128
0.068543596
0.11314305
0.16943764
0.2420182
0.3380671
0.46591685
0.64305567
0.92086324
-0.79331235
-0.32444158
-0.14899683
-0.087724808
-0.055345226
-0.035998938
-0.025090983
-0.019200441
-0.016354973
-0.015618547
-0.016493776
-0.018653581
-0.021852688
-0.02588804
-0.030575041
-0.035733422
-0.041178627
-0.046715864
-0.052135564
-0.057209746
-0.061689069
-0.065300467
-0.067745478
-0.06870052
-0.067824129
-0.064707583
-0.058941414
-0.050072084
-0.03759303
-0.0209268
0.00061105207
0.027881751
0.062059452
0.10491406
0.15945202
0.23152869
0.33385215
0.49409291
0.79001707
1.383779
1.2475705e-05
-0.00013038603
-0.00044257701
-0.00084513402
-0.0012635361
-0.0016523345
-0.001980674
-0.0022297343
-0.0023888863
-0.0024524281
-0.0024174213
-0.0022824102
-0.0020468255
-0.001710911
-0.0012760243
-0.00074517338
-0.00012366863
0.00058022355
0.0013547252
0.0021841807
0.0030489607
0.0039257045
0.0047879284
0.0056070384
0.0063537031
0.0069995346
0.0075189704
0.0078912148
0.0081020722
0.008145503
0.008024742
0.0077528857
0.0073529264
0.0068573066
0.0063068985
0.0057492533
0.0052393954
0.0048335968
0.0045935654
0.0045550349
0.00015441204
9.1439418e-06
-0.0002410085
-0.00054986397
-0.00087201994
-0.0011731674
-0.0014290775
-0.0016235803
-0.0017463183
-0.0017908494
-0.0017532325
-0.0016311031
-0.0014232059
-0.001129309
-0.00075040379
-0.00028909575
0.00024990642
0.00085929395
0.0015287343
0.002244595
0.0029898766
0.0037445516
0.0044859196
0.0051896327
0.0058308455
0.0063856642
0.006832764
0.0071550439
0.0073411719
0.0073868725
0.007295818
0.0070800253
0.0067597095
0.0063626255
0.0059229665
0.0054797264
0.0050740744
0.0047493591
0.0045507536
0.0045156021
0.00047267805
0.00025458272
-1.208218e-06
-0.0002803036
-0.00056061496
-0.00081758879
-0.0010334538
-0.0011961605
-0.0012975036
-0.0013319651
-0.0012958281
-0.0011865609
-0.0010025231
-0.00074295943
-0.00040821608
-1.0973372e-07
0.00047762249
0.0010188649
0.0016147267
0.0022532779
0.0029195148
0.0035954822
0.0042608172
0.0048935222
0.0054710591
0.0059716988
0.0063760328
0.0066685238
0.0068389464
0.0068835661
0.0068059179
0.0066170858
0.0063354297
0.0059857665
0.0055980843
0.0052058241
0.0048435785
0.004545559
0.0043480841
0.0042809746
0.00089429823
0.00056261394
0.00026211037
-2.3695344e-05
-0.00029438611
-0.0005335791
-0.00072973871
-0.00087566269
-0.00096627723
-0.00099788772
-0.00096768291
-0.00087337744
-0.00071309996
-0.00048551187
-0.00019010416
0.0001723818
0.00059946706
0.0010864421
0.0016259316
0.002207588
0.0028179819
0.0034406661
0.0040566765
0.004645222
0.0051847385
0.0056542086
0.006034663
0.0063107372
0.0064721284
0.0065147764
0.0064416169
0.0062627945
0.0059952883
0.0056619647
0.0052901189
0.0049096525
0.0045512276
0.0042447562
0.0040167874
0.0038812262
0.0013451485
0.00088479398
0.00052200586
0.00021173107
-6.6057284e-05
-0.00030213799
-0.00049087973
-0.00063003822
-0.00071795179
-0.00075305376
-0.0007336826
-0.00065793759
-0.00052373603
-0.00032906784
-7.2399603e-05
0.00024681708
0.00062758018
0.0010667678
0.001558623
0.0020943594
0.0026619525
0.0032461735
0.003828946
0.0043900253
0.0049080254
0.0053617452
0.0057317087
0.0060017903
0.0061607544
0.00620352
0.0061319654
0.0059551358
0.0056887993
0.0053543797
0.0049773304
0.0045852047
0.0042062703
0.0038677353
0.0035851603
0.0033613329
0.0017720851
0.0011779921
0.00074385094
0.00039788024
0.00010122708
-0.00014307999
-0.00033479217
-0.00047638578
-0.00056954451
-0.00061484183
-0.00061178891
-0.00055886056
-0.000453701
-0.00029351152
-7.5572344e-05
0.00020214082
0.00054028663
0.00093748269
0.0013896809
0.0018896585
0.0024266952
0.0029865168
0.0035515468
0.0041015485
0.0046146355
0.0050686327
0.005442696
0.0057190528
0.0058846835
0.0059327344
0.0058634561
0.0056844924
0.0054104391
0.0050616903
0.004662641
0.0042396361
0.0038200863
0.0034306006
0.0030782397
0.0027505567
0.0021298783
0.001403668
0.00089474248
0.0005066175
0.00018323903
-7.7755772e-05
-0.00028095691
-0.00043317467
-0.00053918311
-0.00060152406
-0.00062074878
-0.00059558342
-0.00052326412
-0.00040004847
-0.00022185537
1.5002303e-05
0.00031302847
0.00067274336
0.0010919278
0.0015649784
0.0020824495
0.0026308802
0.0031929286
0.003747959
0.0042730278
0.0047442854
0.0051387026
0.0054359723
0.0056203895
0.0056824827
0.0056201622
0.0054391863
0.0051528257
0.0047807063
0.0043468591
0.0038775178
0.00340071
0.0029442552
0.0025083147
0.0020662192
0.0023799541
0.0015270657
0.00094378404
0.00051074049
0.00015603101
-0.00012753823
-0.00034892457
-0.00051884902
-0.00064483315
-0.00073110953
-0.0007790363
-0.00078738492
-0.0007527899
-0.00067037284
-0.00053449298
-0.0003395941
-8.1116131e-05
0.00024357064
0.00063426443
0.0010871316
0.0015940902
0.0021425
0.0027151437
0.0032907382
0.0038448673
0.0043514098
0.0047843754
0.0051200015
0.0053388975
0.0054279778
0.005381916
0.0052038896
0.0049054617
0.0045055308
0.0040282977
0.0035008956
0.0029533884
0.00241653
0.0018855142
0.0013222545
0.0024885016
0.0015164906
0.00086167248
0.00038336564
-5.0778565e-06
-0.00031531376
-0.00056028265
-0.00075421193
-0.00090700728
-0.0010242739
-0.0011078971
-0.0011564451
-0.001165722
-0.0011294927
-0.0010403325
-0.00089057943
-0.0006733633
-0.00038367342
-1.9412903e-05
0.00041762803
0.00092096989
0.001478974
0.002074611
0.0026858729
0.003286601
0.0038479078
0.0043401035
0.0047349984
0.0050083684
0.0051422931
0.0051270481
0.0049622607
0.0046571385
0.0042296434
0.0037044676
0.0031105182
0.0024812615
0.0018520828
0.0012146523
0.00052023052
0.0024250463
0.0013428609
0.00062084197
9.8446802e-05
-0.00032474342
-0.00066460305
-0.0009377481
-0.0011615481
-0.0013479475
-0.001503609
-0.0016306614
-0.0017272121
-0.0017879958
-0.0018051856
-0.0017693272
-0.0016703821
-0.0014988623
-0.0012470264
-0.00091008834
-0.0004873795
1.663414e-05
0.00059172853
0.0012213096
0.0018827724
0.0025481184
0.0031853173
0.0037602875
0.004239395
0.0045922757
0.0047946805
0.004830967
0.0046958614
0.0043952103
0.0039455235
0.0033720539
0.0027061747
0.0019860513
0.0012534038
0.00049750796
-0.00034077814
0.002161811
0.00097954173
0.00019569303
-0.00036866761
-0.00082678197
-0.0011985709
-0.0015040744
-0.0017634845
-0.0019904761
-0.0021924858
-0.0023716259
-0.0025253056
-0.0026469637
-0.0027269496
-0.0027535234
-0.0027139691
-0.0025958193
-0.0023881671
-0.0020830277
-0.0016767001
-0.0011710323
-0.00057414857
9.8252156e-05
0.00082336272
0.0015714764
0.0023072113
0.0029914838
0.0035841716
0.0040473121
0.0043485399
0.0044643497
0.0043827075
0.00410459
0.0036441079
0.0030268151
0.0022870208
0.0014688002
0.00062194307
-0.00026583055
-0.0012643795
0.0016735986
0.00040241619
-0.00043712737
-0.0010407531
-0.0015335163
-0.0019392391
-0.0022811696
-0.002582044
-0.0028570062
-0.0031140311
-0.0033550014
-0.0035764316
-0.0037702712
-0.0039248372
-0.0040258541
-0.0040576126
-0.004004258
-0.003851203
-0.0035866328
-0.0032030412
-0.0026987192
-0.0020792739
-0.0013582321
-0.00055800673
0.00029039877
0.0011482987
0.0019711573
0.0027113499
0.0033217296
0.0037597289
0.0039915617
0.003995958
0.0037668375
0.0033143435
0.0026635938
0.0018520025
0.00093066627
-4.075201e-05
-0.0010754893
-0.0022549738
0.00093800832
-0.00040985061
-0.0012983513
-0.001938197
-0.002465125
-0.0029067091
-0.0032892078
-0.0036376584
-0.0039684648
-0.0042899642
-0.0046036595
-0.0049050334
-0.0051844068
-0.0054278972
-0.0056184709
-0.0057371143
-0.0057641558
-0.0056807499
-0.0054705115
-0.005121244
-0.0046267071
-0.0039885345
-0.0032172232
-0.0023336478
-0.0013692561
-0.00036561201
0.00062714217
0.0015530142
0.0023540386
0.0029750855
0.0033691644
0.0035025793
0.0033591541
0.0029426395
0.0022762716
0.0014002842
0.00037375833
-0.0007318569
-0.0019303069
-0.0033158781
-6.4139026e-05
-0.0014754151
-0.0024056417
-0.0030784506
-0.0036389741
-0.0041183632
-0.0045456969
-0.0049481036
-0.0053430918
-0.0057392547
-0.0061376398
-0.0065326382
-0.006912874
-0.007262162
-0.0075605373
-0.0077854035
-0.0079128482
-0.0079191628
-0.0077825755
-0.0074851732
-0.0070149676
-0.0063680789
-0.0055505652
-0.0045802364
-0.0034876599
-0.0023163483
-0.0011217395
3.1277904e-05
0.001072402
0.0019314053
0.0025446756
0.0028621044
0.0028533527
0.0025122356
0.001857651
0.00093165829
-0.00019799224
-0.0014460332
-0.0028263209
-0.0044475976
-0.0013482623
-0.0028087927
-0.003773117
-0.0044754821
-0.0050689607
-0.0055880736
-0.0060645354
-0.0065273891
-0.0069951521
-0.007476643
-0.0079724645
-0.0084759451
-0.0089740337
-0.0094482233
-0.0098755209
-0.01022953
-0.010481718
-0.010602924
-0.010565152
-0.010343654
-0.0099192794
-0.009281032
-0.0084285973
-0.0073747749
-0.0061473805
-0.004790314
-0.0033633483
-0.0019402211
-0.00060471564
0.00055535037
0.0014559464
0.0020257463
0.002214991
0.0020026108
0.0013993304
0.00044696809
-0.00077789323
-0.0021740845
-0.0037551428
-0.0056460323
-0.0029254557
-0.0044203978
-0.0054109017
-0.0061392711
-0.0067649064
-0.0073254561
-0.0078550957
-0.0083846477
-0.0089336108