/*--------------------------------*- C++ -*----------------------------------*\
  =========                 |
  \\      /  F ield         | OpenFOAM: The Open Source CFD Toolbox
   \\    /   O peration     | Website:  https://openfoam.org
    \\  /    A nd           | Version:  7
     \\/     M anipulation  |
\*---------------------------------------------------------------------------*/
FoamFile
{
    version     2.0;
    format      ascii;
    class       surfaceScalarField;
    location    "25";
    object      phi;
}
// * * * * * * * * * * * * * * * * * * * * * * * * * * * * * * * * * * * * * //

dimensions      [0 3 -1 0 0 0 0];

internalField   nonuniform List<scalar> 
45600
(
2.7492288e-07
-2.8248295e-07
-8.4967921e-11
4.0320968e-07
-1.2825979e-07
-2.6780593e-11
1.3249144e-07
2.707266e-07
-7.6103982e-12
-5.6234622e-07
6.9484001e-07
-2.191521e-12
-1.6393308e-06
1.0769799e-06
3.0550981e-12
-3.0276306e-06
1.3882913e-06
6.603504e-12
-4.6524639e-06
1.6248243e-06
8.9358511e-12
-6.4450868e-06
1.7926136e-06
1.0581464e-11
-8.3454041e-06
1.9003059e-06
1.1737598e-11
-1.0301415e-05
1.9559967e-06
1.2495707e-11
-1.2267366e-05
1.965936e-06
1.2924253e-11
-1.4201537e-05
1.9341571e-06
1.3064872e-11
-1.6064185e-05
1.8626369e-06
1.2930778e-11
-1.7815965e-05
1.7517696e-06
1.2515668e-11
-1.9416984e-05
1.6010094e-06
1.180355e-11
-2.0826582e-05
1.4095875e-06
1.0778206e-11
-2.2003826e-05
1.1772335e-06
9.4323594e-12
-2.2908686e-05
9.048492e-07
7.7702445e-12
-2.3503784e-05
5.9509141e-07
5.8103749e-12
-2.3756616e-05
2.5283188e-07
3.5783107e-12
-2.3642056e-05
-1.1455682e-07
1.1095048e-12
-2.3144927e-05
-4.9712478e-07
-1.5483774e-12
-2.22625e-05
-8.8242764e-07
-4.3206653e-12
-2.1006552e-05
-1.2559498e-06
-7.081796e-12
-1.9404809e-05
-1.6017406e-06
-9.6584137e-12
-1.7501511e-05
-1.9032824e-06
-1.1894273e-11
-1.535693e-05
-2.1445513e-06
-1.3678503e-11
-1.3045717e-05
-2.3111825e-06
-1.4960938e-11
-1.0654066e-05
-2.3916392e-06
-1.5700131e-11
-8.2757962e-06
-2.3782814e-06
-1.5786527e-11
-6.0075698e-06
-2.2682386e-06
-1.504235e-11
-3.9435504e-06
-2.0639995e-06
-1.3355878e-11
-2.169798e-06
-1.7736945e-06
-1.084733e-11
-7.5853062e-07
-1.4112164e-06
-7.8520472e-12
2.3822886e-07
-9.967743e-07
-4.8019234e-12
7.9653916e-07
-5.583882e-07
-2.1886103e-12
9.292238e-07
-1.3274233e-07
1.0213495e-12
7.055077e-07
2.2377431e-07
5.3565857e-12
2.9042029e-07
4.1523356e-07
1.0091568e-11
2.9051289e-07
3.8239283e-12
1.3276674e-07
-4.1522546e-07
-2.4181165e-11
-3.0180325e-07
3.063243e-07
-1.5340532e-11
-1.6154887e-06
1.5844245e-06
-1.3260903e-11
-3.8747633e-06
2.9541296e-06
-1.3862731e-11
-7.0073677e-06
4.2096e-06
-1.4901448e-11
-1.087975e-05
5.2606883e-06
-1.6365683e-11
-1.5335139e-05
6.0802267e-06
-1.7748957e-11
-2.0215952e-05
6.6734428e-06
-1.8737089e-11
-2.5373984e-05
7.0583583e-06
-1.9277647e-11
-3.067317e-05
7.2552049e-06
-1.9389588e-11
-3.5988411e-05
7.2811984e-06
-1.909634e-11
-4.1202675e-05
7.1484388e-06
-1.841473e-11
-4.6203795e-05
6.8637735e-06
-1.7352971e-11
-5.0881902e-05
6.429892e-06
-1.5912519e-11
-5.5128015e-05
5.8471382e-06
-1.4095155e-11
-5.8834085e-05
5.1156739e-06
-1.1911994e-11
-6.1894555e-05
4.2377179e-06
-9.3851823e-12
-6.4209352e-05
3.219654e-06
-6.5546526e-12
-6.5688099e-05
2.073837e-06
-3.4477516e-12
-6.6255212e-05
8.1993702e-07
-1.1441392e-13
-6.5855734e-05
-5.1404295e-07
3.3858565e-12
-6.446057e-05
-1.8922934e-06
7.007709e-12
-6.2072249e-05
-3.2707473e-06
1.0570111e-11
-5.8728875e-05
-4.5993288e-06
1.3900866e-11
-5.4506883e-05
-5.8237538e-06
1.6855428e-11
-4.9521743e-05
-6.8884633e-06
1.9346175e-11
-4.3926269e-05
-7.7400674e-06
2.1339859e-11
-3.7906352e-05
-8.3311198e-06
2.2781532e-11
-3.1674059e-05
-8.6239185e-06
2.3516537e-11
-2.5458324e-05
-8.5940007e-06
2.3325808e-11
-1.9493554e-05
-8.2330361e-06
2.2108905e-11
-1.4006705e-05
-7.5509337e-06
2.006091e-11
-9.2033197e-06
-6.5771607e-06
1.7590713e-11
-5.2529431e-06
-5.3615859e-06
1.4964997e-11
-2.2739862e-06
-3.9756334e-06
1.204057e-11
-3.172324e-07
-2.5150673e-06
8.422323e-12
6.5708724e-07
-1.1071492e-06
3.8579083e-12
8.0363346e-07
7.6999926e-08
1.6552798e-12
4.1774063e-07
8.0092412e-07
3.0969422e-12
7.0833974e-07
-2.5539365e-12
-2.7363546e-07
-1.4157599e-07
-1.3315646e-11
-1.6275543e-06
1.6602507e-06
-8.1296382e-12
-4.2894656e-06
4.2463428e-06
-9.3714809e-12
-8.2747134e-06
6.9393842e-06
-7.846469e-12
-1.347442e-05
9.4093133e-06
-5.7688901e-12
-1.9708686e-05
1.149496e-05
-4.6211175e-12
-2.6765677e-05
1.313722e-05
-3.8869522e-12
-3.4426504e-05
1.433427e-05
-3.284476e-12
-4.2478478e-05
1.5110333e-05
-2.7748563e-12
-5.0720257e-05
1.5496986e-05
-2.3206674e-12
-5.8962061e-05
1.5523007e-05
-1.8907769e-12
-6.7023417e-05
1.5209799e-05
-1.4711753e-12
-7.4730222e-05
1.4570581e-05
-1.056024e-12
-8.1912377e-05
1.3612047e-05
-6.39437e-13
-8.8402778e-05
1.2337537e-05
-2.1466578e-13
-9.4038084e-05
1.0750978e-05
2.2006358e-13
-9.8661385e-05
8.8610207e-06
6.540332e-13
-0.00010212667
6.6849437e-06
1.0628279e-12
-0.0001043048
4.2519641e-06
1.4198046e-12
-0.00010509058
1.6057135e-06
1.7070669e-12
-0.00010441023
-1.1944035e-06
1.9394689e-12
-0.00010222906
-4.0734689e-06
2.1391881e-12
-9.8558149e-05
-6.9416633e-06
2.3195265e-12
-9.3459659e-05
-9.6978096e-06
2.4647557e-12
-8.7050076e-05
-1.2233321e-05
2.5233558e-12
-7.9500715e-05
-1.443782e-05
2.4528822e-12
-7.1035045e-05
-1.6205758e-05
2.2898959e-12
-6.1922541e-05
-1.7443657e-05
2.1645582e-12
-5.2469011e-05
-1.8077464e-05
2.2042363e-12
-4.3003571e-05
-1.805941e-05
2.3835399e-12
-3.3862729e-05
-1.7373825e-05
2.4945152e-12
-2.5372156e-05
-1.6041493e-05
2.358376e-12
-1.782686e-05
-1.4122521e-05
2.1095367e-12
-1.1470437e-05
-1.1718098e-05
2.1668337e-12
-6.4739157e-06
-8.9721606e-06
2.7680079e-12
-2.9140586e-06
-6.0748002e-06
3.488188e-12
-7.511919e-07
-3.2698628e-06
3.4536014e-12
1.9438877e-07
-8.6855764e-07
3.3631309e-12
2.6544726e-07
7.2972537e-07
4.5501293e-12
9.7380243e-07
5.723979e-13
-7.4587255e-07
6.0431005e-07
-1.3402605e-11
-3.1796739e-06
4.0940558e-06
-2.0165017e-12
-7.346136e-06
8.412811e-06
-7.4373317e-12
-1.3163066e-05
1.2756318e-05
-6.7403952e-12
-2.0455793e-05
1.6702043e-05
-4.0567151e-12
-2.8992565e-05
2.0031736e-05
-2.6601487e-12
-3.8513757e-05
2.2658415e-05
-1.7357655e-12
-4.8752505e-05
2.4573018e-05
-9.2422637e-13
-5.9446757e-05
2.5804585e-05
-2.6386824e-13
-7.0344556e-05
2.6394782e-05
2.7080465e-13
-8.1204797e-05
2.6383247e-05
7.237061e-13
-9.1795599e-05
2.5800602e-05
1.1146434e-12
-0.00010189198
2.4666966e-05
1.4465996e-12
-0.00011127416
2.2994223e-05
1.7154076e-12
-0.00011972727
2.079065e-05
1.918188e-12
-0.00012704307
1.806677e-05
2.0580161e-12
-0.0001330236
1.4841544e-05
2.1397366e-12
-0.00013748684
1.1148184e-05
2.1616936e-12
-0.00014027393
7.0390579e-06
2.1078654e-12
-0.00014125747
2.5892584e-06
1.9569156e-12
-0.00014035021
-2.1016705e-06
1.7061189e-12
-0.00013751384
-6.9098422e-06
1.3381407e-12
-0.00013276651
-1.1689004e-05
9.1297979e-13
-0.00012618884
-1.6275493e-05
5.0460105e-13
-0.00011792746
-2.0494691e-05
1.4806789e-13
-0.00010819552
-2.416973e-05
-1.9290313e-13
-9.7269528e-05
-2.7131733e-05
-5.8476104e-13
-8.5482122e-05
-2.9231074e-05
-1.0126663e-12
-7.3210728e-05
-3.03489e-05
-1.3078851e-12
-6.0862114e-05
-3.0408057e-05
-1.2463406e-12
-4.8853342e-05
-2.9382571e-05
-7.9087556e-13
-3.7589804e-05
-2.7304954e-05
-2.1132411e-13
-2.7441225e-05
-2.4271054e-05
1.636569e-13
-1.8716644e-05
-2.0442736e-05
3.7321407e-13
-1.1639478e-05
-1.6049454e-05
8.635906e-13
-6.3236289e-06
-1.1390715e-05
1.9587972e-12
-2.7515547e-06
-6.8418634e-06
3.3451625e-12
-7.5711377e-07
-2.862893e-06
4.150799e-12
-9.5169705e-09
-1.789273e-08
4.1780361e-12
9.6424987e-07
3.3887506e-12
-1.2279785e-06
1.8323018e-06
-1.4802526e-11
-4.7881232e-06
7.6541984e-06
4.0806852e-12
-1.0521541e-05
1.4146237e-05
-6.4732202e-12
-1.8214301e-05
2.0449084e-05
-7.5570101e-12
-2.7603862e-05
2.6091606e-05
-5.1513282e-12
-3.8396168e-05
3.0824045e-05
-4.3903287e-12
-5.0282865e-05
3.4545117e-05
-4.0120174e-12
-6.2954528e-05
3.7244686e-05
-3.5209265e-12
-7.6108716e-05
3.8958776e-05
-3.0527849e-12
-8.9453386e-05
3.9739455e-05
-2.6294533e-12
-0.00010270702
3.9636883e-05
-2.2157468e-12
-0.00011559702
3.8690601e-05
-1.7929702e-12
-0.00012785778
3.6927724e-05
-1.3561428e-12
-0.00013922958
3.4366029e-05
-9.1016667e-13
-0.00014945908
3.1020158e-05
-4.6745297e-13
-0.00015830177
2.6909463e-05
-4.0375664e-14
-0.00016552651
2.2066279e-05
3.6758275e-13
-0.00017092201
1.6543672e-05
7.6331689e-13
-0.00017430485
1.0421896e-05
1.1534977e-12
-0.00017552862
3.8130277e-06
1.5301989e-12
-0.00017449341
-3.1368751e-06
1.8626131e-12
-0.00017115519
-1.0248054e-05
2.0957453e-12
-0.00016553414
-1.7310053e-05
2.211021e-12
-0.00015772129
-2.4088358e-05
2.249097e-12
-0.00014788265
-3.0333356e-05
2.2951683e-12
-0.00013626011
-3.5792267e-05
2.4032264e-12
-0.00012316853
-4.0223287e-05
2.517901e-12
-0.00010898833
-4.3411234e-05
2.4995002e-12
-9.4153476e-05
-4.5183758e-05
2.2850914e-12
-7.913461e-05
-4.5426977e-05
2.0396235e-12
-6.4417905e-05
-4.4099336e-05
2.0651087e-12
-5.0480262e-05
-4.1242589e-05
2.4650499e-12
-3.7762043e-05
-3.6989184e-05
2.9294981e-12
-2.6638727e-05
-3.1565972e-05
3.0046777e-12
-1.7393117e-05
-2.5295091e-05
2.6587687e-12
-1.0189935e-05
-1.859401e-05
2.5893152e-12
-5.0547801e-06
-1.1977069e-05
3.5502364e-12
-1.8598307e-06
-6.0577796e-06
3.664071e-12
-3.2221509e-07
-1.5554717e-06
4.7406008e-13
6.4200854e-07
5.684953e-12
-1.6931698e-06
3.5254872e-06
-1.7239936e-11
-6.3714029e-06
1.2332421e-05
9.5537839e-12
-1.367142e-05
2.1446261e-05
-5.4541565e-12
-2.3233985e-05
3.0011659e-05
-7.6094937e-12
-3.4695115e-05
3.755274e-05
-4.8827319e-12
-4.7689631e-05
4.3818562e-05
-4.3105883e-12
-6.1857262e-05
4.8712751e-05
-4.1694704e-12
-7.6847731e-05
5.2235159e-05
-3.7852532e-12
-9.2323457e-05
5.4434508e-05
-3.3669501e-12
-0.00010795978
5.5375785e-05
-2.9740779e-12
-0.0001234434
5.5120508e-05
-2.582459e-12
-0.00013847006
5.3717259e-05
-2.1791565e-12
-0.00015274253
5.1200192e-05
-1.7555417e-12
-0.00016596979
4.7593286e-05
-1.3057642e-12
-0.00017786794
4.2918313e-05
-8.3353744e-13
-0.00018816321
3.720474e-05
-3.55851e-13
-0.00019659702
3.0500093e-05
1.0532546e-13
-0.00020293295
2.28796e-05
5.3717196e-13
-0.00020696526
1.445419e-05
9.4513677e-13
-0.00020852842
5.3761838e-06
1.3467184e-12
-0.00020750727
-4.1580324e-06
1.7474029e-12
-0.00020384685
-1.3908456e-05
2.1201466e-12
-0.00019756168
-2.3595213e-05
2.3977621e-12
-0.00018874323
-3.2906807e-05
2.5305766e-12
-0.00017756521
-4.1511386e-05
2.5483895e-12
-0.00016428566
-4.907185e-05
2.5670836e-12
-0.00014924499
-5.5263968e-05
2.6924467e-12
-0.00013285944
-5.9796749e-05
2.8856323e-12
-0.00011560927
-6.2433883e-05
2.9540042e-12
-9.8021416e-05
-6.3014814e-05
2.7578594e-12
-8.0646971e-05
-6.1473838e-05
2.4513443e-12
-6.403402e-05
-5.7855624e-05
2.4138154e-12
-4.8697351e-05
-5.2325872e-05
2.8184902e-12
-3.5086813e-05
-4.5176432e-05
3.2935915e-12
-2.3556585e-05
-3.682524e-05
3.2525923e-12
-1.4337824e-05
-2.7812793e-05
3.0142139e-12
-7.5175041e-06
-1.879747e-05
3.88755e-12
-3.0267397e-06
-1.0548546e-05
3.4163046e-12
-6.4248553e-07
-3.9396833e-06
-2.0071127e-12
-4.8653208e-10
8.2497527e-12
-2.1329311e-06
5.6584386e-06
-1.9968914e-11
-7.891052e-06
1.8090525e-05
1.4389581e-11
-1.6717346e-05
3.0272559e-05
-4.6764758e-12
-2.8105631e-05
4.1399953e-05
-7.6291331e-12
-4.1584915e-05
5.103203e-05
-4.4002973e-12
-5.6713888e-05
5.8947539e-05
-3.8716682e-12
-7.3077953e-05
6.5076817e-05
-3.8785221e-12
-9.028668e-05
6.9443887e-05
-3.5600983e-12
-0.00010797083
7.211866e-05
-3.1748092e-12
-0.00012577869
7.3183649e-05
-2.8015627e-12
-0.00014337208
7.2713902e-05
-2.4213594e-12
-0.00016042268
7.076786e-05
-2.0334222e-12
-0.00017660938
6.7386893e-05
-1.6393266e-12
-0.00019161726
6.2601172e-05
-1.2316716e-12
-0.00020513859
5.6439633e-05
-8.0008421e-13
-0.00021687587
4.8942025e-05
-3.4468864e-13
-0.00022654715
4.0171373e-05
1.1716046e-13
-0.00023389305
3.0225507e-05
5.5548455e-13
-0.00023868548
1.924662e-05
9.4465109e-13
-0.00024073741
7.4281059e-06
1.283091e-12
-0.00023991338
-4.9820735e-06
1.5968182e-12
-0.00023614008
-1.768177e-05
1.9235045e-12
-0.00022941657
-3.0318712e-05
2.2431456e-12
-0.0002198233
-4.250005e-05
2.4810632e-12
-0.00020752912
-5.3805551e-05
2.5540602e-12
-0.00019279537
-6.3805611e-05
2.4706011e-12
-0.00017597607
-7.2083311e-05
2.37563e-12
-0.0001575131
-7.8259743e-05
2.441167e-12
-0.00013792567
-8.2021293e-05
2.6649295e-12
-0.00011779332
-8.3147094e-05
2.811731e-12
-9.773261e-05
-8.1534512e-05
2.6632775e-12
-7.8367874e-05
-7.7220406e-05
2.359692e-12
-6.0297716e-05
-7.0396117e-05
2.3416385e-12
-4.4059435e-05
-6.1414738e-05
2.7560606e-12
-3.0094346e-05
-5.0790264e-05
3.0867859e-12
-1.8717189e-05
-3.9189896e-05
3.2587783e-12
-1.0093028e-05
-2.7421665e-05
4.4943715e-12
-4.2253192e-06
-1.6416294e-05
3.3460572e-12
-9.5848993e-07
-7.2064989e-06
-4.8715153e-12
-9.5897253e-07
1.0279856e-11
-2.5450432e-06
8.2035065e-06
-2.2718597e-11
-9.3288069e-06
2.4874269e-05
1.8711047e-11
-1.9615279e-05
4.0559033e-05
-4.1639282e-12
-3.2756704e-05
5.4541385e-05
-7.8698806e-12
-4.8175668e-05
6.6450999e-05
-4.1731674e-12
-6.5353789e-05
7.6125666e-05
-3.6859067e-12
-8.3821749e-05
8.3544782e-05
-3.8352017e-12
-0.00010315014
8.8772281e-05
-3.5952208e-12
-0.00012294105
9.1909566e-05
-3.2682252e-12
-0.00014282029
9.3062893e-05
-2.9408126e-12
-0.00016243059
9.2324205e-05
-2.5853195e-12
-0.00018142604
8.9763314e-05
-2.2032493e-12
-0.00019946833
8.542919e-05
-1.8088645e-12
-0.00021622506
7.9357903e-05
-1.4093106e-12
-0.00023137027
7.1584835e-05
-9.9974354e-13
-0.00024458724
6.2158997e-05
-5.6757821e-13
-0.00025557349
5.1157614e-05
-1.057684e-13
-0.00026404755
3.8699573e-05
3.737381e-13
-0.00026975754
2.4956622e-05
8.3542281e-13
-0.00027249097
1.0161538e-05
1.2353308e-12
-0.00027208558
-5.3874701e-06
1.5538872e-12
-0.00026844066
-2.1326703e-05
1.8368031e-12
-0.00026152874
-3.7230648e-05
2.1287905e-12
-0.00025140644
-5.2622345e-05
2.4440092e-12
-0.00023822409
-6.6987878e-05
2.7042932e-12
-0.00022223281
-7.9796861e-05
2.7853493e-12
-0.00020378789
-9.0528235e-05
2.6591311e-12
-0.00018334698
-9.8700696e-05
2.4873309e-12
-0.00016146188
-0.00010390644
2.5057128e-12
-0.00013876282
-0.00010584614
2.7523287e-12
-0.00011593496
-0.00010436231
2.9592011e-12
-9.368722e-05
-9.9468097e-05
2.8581489e-12
-7.2715202e-05
-9.1368172e-05
2.6005676e-12
-5.3660615e-05
-8.0469402e-05
2.5809271e-12
-3.7071006e-05
-6.7379887e-05
2.7633609e-12
-2.3363876e-05
-5.2896972e-05
3.2607506e-12
-1.2799269e-05
-3.7986251e-05
5.1431434e-12
-5.4648677e-06
-2.375072e-05
3.3819284e-12
-1.2772611e-06
-1.1394114e-05
-7.8644543e-12
-2.2362373e-06
1.2689039e-11
-2.9284681e-06
1.1132001e-05
-2.5411222e-11
-1.0673621e-05
3.2619401e-05
2.2587029e-11
-2.2336068e-05
5.2221483e-05
-3.8123129e-12
-3.7135799e-05
6.9341122e-05
-8.2067254e-12
-5.4393852e-05
8.3709054e-05
-4.0732911e-12
-7.3517277e-05
9.5249096e-05
-3.6147166e-12
-9.3983851e-05
0.00010401136
-3.8797485e-12
-0.00011532741
0.00011011585
-3.6962488e-12
-0.00013712453
0.00011370668
-3.4167833e-12
-0.00015898278
0.00011492115
-3.1404441e-12
-0.00018053094
0.00011387236
-2.8280804e-12
-0.00020141122
0.0001106436
-2.4699694e-12
-0.00022127403
0.000105292
-2.0766525e-12
-0.00023977511
9.7858989e-05
-1.663847e-12
-0.00025657524
8.8384975e-05
-1.2451652e-12
-0.00027134229
7.6926035e-05
-8.2197851e-13
-0.00028375538
6.3570703e-05
-3.8166443e-13
-0.00029351121
4.8455396e-05
9.3073105e-14
-0.000300332
3.1777407e-05
6.0127466e-13
-0.00030397514
1.3804691e-05
1.1015993e-12
-0.00030424437
-5.1182267e-06
1.5254525e-12
-0.00030100181
-2.4569267e-05
1.8615371e-12
-0.0002941814
-4.4051067e-05
2.114802e-12
-0.00028380221
-6.3001566e-05
2.369763e-12
-0.00026998124
-8.0808852e-05
2.6771563e-12
-0.00025294459
-9.6833485e-05
2.9635805e-12
-0.00023303516
-0.00011043762
3.0677678e-12
-0.00021071526
-0.00012102059
2.9195817e-12
-0.00018656204
-0.0001280597
2.6870832e-12
-0.00016125432
-0.00013115391
2.6555955e-12
-0.00013554956
-0.00013006707
2.8899316e-12
-0.00011025112
-0.00012476648
3.1081071e-12
-8.6167092e-05
-0.00011545216
3.047391e-12
-6.4063537e-05
-0.00010257299
2.804528e-12
-4.4616563e-05
-8.6826919e-05
2.5773959e-12
-2.8368465e-05
-6.9145071e-05
3.0686507e-12
-1.5693104e-05
-5.066158e-05
5.6468939e-12
-6.7751969e-06
-3.2668621e-05
3.4817645e-12
-1.6070315e-06
-1.6562281e-05
-1.083592e-11
-3.8432856e-06
1.5215709e-11
-3.2816843e-06
1.4413711e-05
-2.798774e-11
-1.1915811e-05
4.1253504e-05
2.6035512e-11
-2.4855389e-05
6.5161066e-05
-3.5842837e-12
-4.1199717e-05
8.5685458e-05
-8.5838261e-12
-6.0176018e-05
0.00010268536
-4.0337565e-12
-8.1121859e-05
0.00011619494
-3.5984163e-12
-0.00010346581
0.00012635532
-3.965136e-12
-0.00012670828
0.00013335832
-3.8219558e-12
-0.00015040394
0.00013740235
-3.5689411e-12
-0.00017414633
0.00013866355
-3.3257566e-12
-0.00019755504
0.00013728107
-3.054045e-12
-0.00022026569
0.00013335425
-2.7374201e-12
-0.00024192281
0.00012694912
-2.3727486e-12
-0.00026217554
0.00011811171
-1.9637523e-12
-0.00028067597
0.00010688541
-1.5255865e-12
-0.00029708005
9.3330125e-05
-1.0790164e-12
-0.00031105067
7.7541323e-05
-6.3538062e-13
-0.00032226284
5.9667558e-05
-1.8392585e-13
-0.0003304109
3.9925454e-05
3.0231846e-13
-0.00033521768
1.8611468e-05
8.2565562e-13
-0.00033644585
-3.8900423e-06
1.3370236e-12
-0.00033391048
-2.710462e-05
1.838859e-12
-0.00032749476
-5.0466782e-05
2.1912712e-12
-0.00031716574
-7.3330603e-05
2.416073e-12
-0.00030299124
-9.4983381e-05
2.6227982e-12
-0.00028515585
-0.00011466889
2.899088e-12
-0.00026397428
-0.00013161917
3.1882837e-12
-0.0002398998
-0.00014509504
3.3027034e-12
-0.00021352511
-0.00015443438
3.1372085e-12
-0.00018557318
-0.00015910588
2.8629015e-12
-0.0001568761
-0.00015876421
2.7917992e-12
-0.00012834125
-0.00015330133
2.9989187e-12
-0.00010090575
-0.00014288761
3.2113724e-12
-7.5482226e-05
-0.00012799648
3.1076284e-12
-5.2900992e-05
-0.00010940819
2.6274164e-12
-3.3855033e-05
-8.8191065e-05
2.9239561e-12
-1.8854739e-05
-6.5661873e-05
6.0533286e-12
-8.1982376e-06
-4.3325105e-05
3.5150474e-12
-1.9611544e-06
-2.2799345e-05
-1.3983065e-11
-5.8044632e-06
1.7920625e-11
-3.6022852e-06
1.8016025e-05
-3.0387907e-11
-1.3044808e-05
5.0695996e-05
2.9066169e-11
-2.7149156e-05
7.9265418e-05
-3.4743014e-12
-4.490695e-05
0.00010344326
-9.0023793e-12
-6.5461188e-05
0.0001232396
-4.0557e-12
-8.8086811e-05
0.00013882056
-3.6341579e-12
-0.00011216827
0.00015043678
-4.0972878e-12
-0.00013717678
0.00015836683
-3.998427e-12
-0.00016264913
0.00016287471
-3.7701131e-12
-0.00018816908
0.0001641835
-3.5461814e-12
-0.00021335169
0.00016246369
-3.2957615e-12
-0.00023783098
0.00015783355
-3.0109081e-12
-0.00026125078
0.00015036892
-2.6873082e-12
-0.00028325864
0.00014011956
-2.314242e-12
-0.00030350257
0.00012712935
-1.8869332e-12
-0.00032163036
0.00011145792
-1.4176243e-12
-0.00033729111
9.3202076e-05
-9.3280246e-13
-0.00035013902
7.2515476e-05
-4.5604561e-13
-0.00035983942
4.9625851e-05
1.4603513e-14
-0.00036607707
2.4849102e-05
4.9422316e-13
-0.00036856763
-1.3994896e-06
9.7580954e-13
-0.00036707004
-2.8602206e-05
1.6217462e-12
-0.0003614051
-5.61317e-05
2.1667351e-12
-0.00035147336
-8.3262327e-05
2.5399231e-12
-0.00033727668
-0.00010918007
2.7463887e-12
-0.00031893986
-0.00013300575
2.901481e-12
-0.00029673079
-0.00015382826
3.1292383e-12
-0.0002710764
-0.00017074942
3.3927922e-12
-0.00024257084
-0.0001829399
3.4898545e-12
-0.00021197259
-0.00018970412
3.2988497e-12
-0.00018018704
-0.0001905498
2.9989634e-12
-0.00014823289
-0.00018525553
2.9154383e-12
-0.00011719242
-0.00017392808
3.1163648e-12
-8.814868e-05
-0.00015704018
3.2144008e-12
-6.2115188e-05
-0.00013544166
2.7443748e-12
-3.9966377e-05
-0.0001103399
2.9383551e-12
-2.2377556e-05
-8.3250718e-05
6.5436927e-12
-9.7826661e-06
-5.5919991e-05
3.4895244e-12
-2.3546871e-06
-3.0227295e-05
-1.7496172e-11
-8.1591721e-06
2.0948456e-11
-3.8870302e-06
2.1903088e-05
-3.2565423e-11
-1.4048591e-05
6.0857523e-05
3.1690521e-11
-2.9191912e-05
9.4408742e-05
-3.4608179e-12
-4.8215033e-05
0.00012246639
-9.4586249e-12
-7.018751e-05
0.00014521208
-4.1479129e-12
-9.432962e-05
0.00016296268
-3.7232761e-12
-0.00011998766
0.00017609483
-4.2650465e-12
-0.00014660842
0.00018498759
-4.2122097e-12
-0.00017371511
0.0001899814
-4.0203246e-12
-0.00020088597
0.00019135437
-3.8235053e-12
-0.0002277361
0.00018931382
-3.5879608e-12
-0.00025390273
0.00018400018
-3.3149491e-12
-0.00027903404
0.00017550023
-3.0136657e-12
-0.00030278109
0.00016386661
-2.6792092e-12
-0.00032479268
0.00014914093
-2.29536e-12
-0.00034471271
0.00013137795
-1.8478778e-12
-0.0003621799
0.00011066926
-1.3419289e-12
-0.00037682975
8.7165338e-05
-8.0865145e-13
-0.00038829902
6.1095128e-05
-2.8680155e-13
-0.00039623288
3.2782959e-05
2.2371509e-13
-0.00040029501
2.6626265e-06
7.7618142e-13
-0.00040018254
-2.8714691e-05
1.3028826e-12
-0.00039564276
-6.0671483e-05
1.9148928e-12
-0.00038649611
-9.2408958e-05
2.4931717e-12
-0.00037266143
-0.00012301473
2.8967243e-12
-0.00035418385
-0.00015148333
3.0908897e-12
-0.00033126278
-0.00017674936
3.1971508e-12
-0.00030427692
-0.0001977353
3.3661131e-12
-0.00027380217
-0.00021341464
3.5741516e-12
-0.00024061757
-0.00022288868
3.6162833e-12
-0.00020569456
-0.00022547279
3.3820422e-12
-0.00017016588
-0.00022078425
3.0832971e-12
-0.0001352728
-0.0002088212
3.0426415e-12
-0.00010229304
-0.00019001994
3.1258257e-12
-7.2455717e-05
-0.00016527895
2.7193997e-12
-4.6853152e-05
-0.00013594246
3.0031484e-12
-2.636129e-05
-0.0001037426
7.2116984e-12
-1.1580414e-05
-7.0700879e-05
3.4948097e-12
-2.8033078e-06
-3.9004374e-05
-2.1501937e-11
-1.0962501e-05
2.439657e-11
-4.1320959e-06
2.6035219e-05
-3.4491493e-11
-1.4914025e-05
7.1639417e-05
3.3901451e-11
-3.0956986e-05
0.0001104517
-3.5112692e-12
-5.1080419e-05
0.00014258984
-9.9267069e-12
-7.4291935e-05
0.0001684236
-4.3082079e-12
-9.9765678e-05
0.00018843643
-3.873684e-12
-0.00012681613
0.00020314528
-4.4693813e-12
-0.00015487063
0.0002130421
-4.4479339e-12
-0.00018344316
0.00021855393
-4.2928896e-12
-0.00021211062
0.00022002183
-4.136915e-12
-0.00024049246
0.00021769567
-3.9322275e-12
-0.00026823386
0.00021174159
-3.673897e-12
-0.00029499237
0.00020225874
-3.3772627e-12
-0.00032042783
0.00018930208
-3.0539018e-12
-0.00034419513
0.00017290823
-2.7023859e-12
-0.00036593942
0.00015312223
-2.3038784e-12
-0.0003852937
0.00013002353
-1.8342413e-12
-0.00040187864
0.00010375028
-1.2895932e-12
-0.00041530505
7.4521552e-05
-7.0168754e-13
-0.00042517938
4.2657299e-05
-1.0553247e-13
-0.00043111259
8.5958345e-06
4.950559e-13
-0.00043273487
-2.7092422e-05
9.7980442e-13
-0.00042971286
-6.3693519e-05
1.5540131e-12
-0.00042177492
-0.0001003469
2.2060125e-12
-0.00040874051
-0.00013604912
2.8214652e-12
-0.00039055424
-0.00016966959
3.2452598e-12
-0.00036732244
-0.00019998117
3.4242766e-12
-0.00033934884
-0.00022570894
3.4827136e-12
-0.00030716452
-0.00024559899
3.5824834e-12
-0.00027154608
-0.00025850712
3.7018544e-12
-0.00023351534
-0.00026350349
3.6496839e-12
-0.00019431443
-0.00025998516
3.3785808e-12
-0.00015535248
-0.00024778317
3.1484911e-12
-0.00011812495
-0.0002272475
3.0323542e-12
-8.4111601e-05
-0.0001992923
2.5332669e-12
-5.4665324e-05
-0.00016538872
2.9769113e-12
-3.0907251e-05
-0.00012750068
8.0221775e-12
-1.364466e-05
-8.796348e-05
3.5813136e-12
-3.3229849e-06
-4.9326027e-05
-2.6087505e-11
-1.4285511e-05
2.837811e-11
-4.3334344e-06
3.036869e-05
-3.6136947e-11
-1.5627723e-05
8.2933671e-05
3.5666356e-11
-3.2417766e-05
0.00012724175
-3.6072861e-12
-5.3460073e-05
0.00016363215
-1.0372934e-11
-7.7712126e-05
0.00019267566
-4.5148522e-12
-0.00010431056
0.00021503487
-4.0819194e-12
-0.00013254436
0.00023137909
-4.7200764e-12
-0.00016182627
0.00024232402
-4.7135336e-12
-0.00019166511
0.00024839277
-4.578912e-12
-0.00022164038
0.0002499971
-4.4585418e-12
-0.00025138001
0.0002474353
-4.2967326e-12
-0.0002805416
0.00024090319
-4.0750809e-12
-0.0003087971
0.00023051424
-3.7966596e-12
-0.0003358206
0.00021632559
-3.4727921e-12
-0.00036127893
0.00019836658
-3.1195642e-12
-0.00038482467
0.00017666797
-2.7421822e-12
-0.00040609124
0.0001512901
-2.3223392e-12
-0.00042469045
0.00012234948
-1.8280881e-12
-0.00044021251
9.0043606e-05
-1.242418e-12
-0.0004522293
5.4674105e-05
-5.8529851e-13
-0.00046030169
1.6668237e-05
8.691196e-14
-0.00046399225
-2.340186e-05
6.728049e-13
-0.0004628832
-6.4802587e-05
1.2393739e-12
-0.00045660217
-0.00010662795
1.8503838e-12
-0.0004448549
-0.0001477964
2.5234693e-12
-0.000427465
-0.00018705948
3.1549698e-12
-0.00040441915
-0.00022302699
3.5757222e-12
-0.00037591462
-0.00025421346
3.7239853e-12
-0.00034240369
-0.00027910995
3.7253247e-12
-0.00030462785
-0.000296283
3.7349433e-12
-0.0002636327
-0.00030449863
3.727257e-12
-0.00022075455
-0.00030286329
3.5767184e-12
-0.00017757116
-0.00029096655
3.3416395e-12
-0.00013581466
-0.00026900402
3.0474534e-12
-9.7251684e-05
-0.00023785529
2.3044001e-12
-6.3544673e-05
-0.00019909573
2.8373647e-12
-3.6114591e-05
-0.00015493076
8.9126156e-12
-1.6028513e-05
-0.00010804956
3.723757e-12
-3.9298254e-06
-6.1424687e-05
-3.1360689e-11
-1.8215369e-05
3.3033468e-11
-4.4872054e-06
3.4855931e-05
-3.7458882e-11
-1.6177256e-05
9.4623686e-05
3.6950598e-11
-3.3549761e-05
0.00014461426
-3.7501944e-12
-5.531433e-05
0.00018539673
-1.0779293e-11
-8.0390047e-05
0.00021775138
-4.742774e-12
-0.00010788438
0.0002425292
-4.3256364e-12
-0.00013706672
0.00026056144
-5.0098587e-12
-0.00016733964
0.00027259694
-5.0185869e-12
-0.00019821046
0.0002792636
-4.8920772e-12
-0.00022926479
0.00028105142
-4.7872188e-12
-0.00026014276
0.00027831328
-4.6547553e-12
-0.00029051867
0.0002712791
-4.4753162e-12
-0.00032008376
0.00026007934
-4.2392728e-12
-0.00034853205
0.00024477388
-3.939132e-12
-0.00037554876
0.00022538329
-3.5825985e-12
-0.00040080097
0.00020192019
-3.19039e-12
-0.00042393035
0.00017441949
-2.7758547e-12
-0.00044454804
0.00014296717
-2.32504e-12
-0.00046223194
0.00010772751
-1.7985831e-12
-0.00047652735
6.896951e-05
-1.163782e-12
-0.00048695161
2.7092503e-05
-4.409351e-13
-0.00049300439
-1.7349073e-05
2.8077832e-13
-0.0004941844
-6.3622561e-05
9.4475474e-13
-0.00049001463
-0.00011079774
1.5603694e-12
-0.0004800766
-0.00015773445
2.1968141e-12
-0.00046405458
-0.00020308152
2.8783322e-12
-0.00044178872
-0.00024529284
3.496505e-12
-0.00041333477
-0.00028266739
3.878327e-12
-0.00037902506
-0.00031341966
3.9667951e-12
-0.00033952254
-0.00033578554
3.8836967e-12
-0.00029585683
-0.00034816437
3.7651173e-12
-0.00024942921
-0.00034929091
3.6246976e-12
-0.00020197448
-0.00033842127
3.4566484e-12
-0.00015547245
-0.00031550604
3.1063096e-12
-0.00011201132
-0.00028131644
2.1030108e-12
-7.3617317e-05
-0.00023748974
2.6523619e-12
-4.2076898e-05
-0.00018647118
9.8888434e-12
-1.8783953e-05
-0.0001313425
3.8779878e-12
-4.6399968e-06
-7.5568604e-05
-3.7471121e-11
-2.2855407e-05
3.8497396e-11
-4.5902659e-06
3.9446234e-05
-3.8413817e-11
-1.6552627e-05
0.00010658601
3.7742001e-11
-3.4333222e-05
0.00016239486
-3.9409505e-12
-5.6610679e-05
0.0002076742
-1.1145731e-11
-8.2276887e-05
0.00024341759
-4.9852714e-12
-0.00011041779
0.00027067011
-4.5851248e-12
-0.00014028843
0.00029043208
-5.3152513e-12
-0.00017128493
0.00030359344
-5.3507391e-12
-0.00020291621
0.00031089489
-5.2385525e-12
-0.00023477692
0.00031291214
-5.1398826e-12
-0.00026652274
0.0003100591
-5.0133899e-12
-0.00029784854
0.00030260491
-4.8520544e-12
-0.00032846963
0.00029070043
-4.6524594e-12
-0.00035810569
0.00027440994
-4.3969602e-12
-0.00038646718
0.00025374478
-4.0695446e-12
-0.00041324374
0.00022869676
-3.673464e-12
-0.00043809454
0.0001992703
-3.2321654e-12
-0.00046064037
0.000165513
-2.7679582e-12
-0.00048045815
0.00012754529
-2.2731475e-12
-0.0004970783
8.5589645e-05
-1.703125e-12
-0.00050998604
4.000024e-05
-1.0170586e-12
-0.00051862824
-8.7068686e-06
-2.3448831e-13
-0.00052242721
-5.9823578e-05
5.5766079e-13
-0.00052080352
-0.00011242142
1.2866718e-12
-0.00051320983
-0.00016532816
1.9493194e-12
-0.0004991772
-0.00021711417
2.6072669e-12
-0.00047837452
-0.00026609553
3.2756052e-12
-0.00045067967
-0.00031036223
3.8398601e-12
-0.00041625804
-0.00034784127
4.1351003e-12
-0.00037564007
-0.00037640351
4.1162838e-12
-0.00032978463
-0.00039401983
3.8977404e-12
-0.00028011131
-0.00039896424
3.6401452e-12
-0.00022848323
-0.00039004934
3.4539153e-12
-0.00017712577
-0.0003668635
3.0875962e-12
-0.00012847736
-0.00032996484
1.8739756e-12
-8.4985389e-05
-0.00028098172
2.4564546e-12
-4.8878527e-05
-0.00022257806
1.1010692e-11
-2.1960771e-05
-0.00015826026
4.0400936e-12
-5.4696629e-06
-9.2059665e-05
-4.4573141e-11
-2.8325115e-05
4.488619e-11
-4.6407032e-06
4.4086976e-05
-3.898209e-11
-1.6747932e-05
0.0001186932
3.8048243e-11
-3.4756199e-05
0.00018040313
-4.1646365e-12
-5.7328279e-05
0.00023024629
-1.1470899e-11
-8.3339e-05
0.00026942832
-5.2508301e-12
-0.00011185937
0.00029919049
-4.8624277e-12
-0.00014213432
0.00032070703
-5.6235648e-12
-0.0001735565
0.00033501564
-5.6875792e-12
-0.00020563884
0.00034297722
-5.6005711e-12
-0.00023798742
0.00034526074
-5.5165992e-12
-0.00027027626
0.00034234795
-5.3901724e-12
-0.00030222438
0.00033455304
-5.2210782e-12
-0.00033357566
0.00032205171
-5.0224254e-12
-0.00036408115
0.00030491544
-4.7903356e-12
-0.00039348364
0.00028314727
-4.5036023e-12
-0.00042150403
0.00025671715
-4.139235e-12
-0.00044782933
0.0002255956
-3.6942711e-12
-0.00047210221
0.0001897859
-3.1933655e-12
-0.00049391251
0.0001493556
-2.6673742e-12
-0.00051279106
0.00010446819
-2.1147993e-12
-0.00052820707
5.5416241e-05
-1.4896513e-12
-0.0005395704
2.656454e-06
-7.4298344e-13
-0.00054624085
-5.3153127e-05
9.0963514e-14
-0.00054754644
-0.00011111581
9.4606949e-13
-0.00054281405
-0.00017006054
1.7322989e-12
-0.00053141488
-0.00022851335
2.4331849e-12
-0.00051282716
-0.00028468327
3.0936922e-12
-0.00048671653
-0.00033647287
3.7104648e-12
-0.00045303167
-0.00038152613
4.1638787e-12
-0.00041210749
-0.00041732767
4.3044674e-12
-0.00036476208
-0.00044136525
4.105652e-12
-0.00031236623
-0.0004513601
3.7293641e-12
-0.00025686032
-0.00044555527
3.4209577e-12
-0.00020069341
-0.0004230304
2.958983e-12
-0.00014667083
-0.00038398741
1.519987e-12
-9.77172e-05
-0.00032993535
2.1971861e-12
-5.6590211e-05
-0.00026370507
1.2311153e-11
-2.560527e-05
-0.00018924521
4.2349198e-12
-6.4348791e-06