/*--------------------------------*- C++ -*----------------------------------*\
  =========                 |
  \\      /  F ield         | OpenFOAM: The Open Source CFD Toolbox
   \\    /   O peration     | Website:  https://openfoam.org
    \\  /    A nd           | Version:  7
     \\/     M anipulation  |
\*---------------------------------------------------------------------------*/
FoamFile
{
    version     2.0;
    format      ascii;
    class       surfaceScalarField;
    location    "25";
    object      phi_0;
}
// * * * * * * * * * * * * * * * * * * * * * * * * * * * * * * * * * * * * * //

dimensions      [0 3 -1 0 0 0 0];

internalField   nonuniform List<scalar> 
45600
(
2.7492286e-07
-2.8248305e-07
-8.4960745e-11
4.0320978e-07
-1.2825996e-07
-2.6780593e-11
1.3249157e-07
2.7072645e-07
-7.6103982e-12
-5.6234615e-07
6.9484001e-07
-2.191521e-12
-1.6393307e-06
1.0769801e-06
3.0550981e-12
-3.0276302e-06
1.3882915e-06
6.603504e-12
-4.6524634e-06
1.6248243e-06
8.9358511e-12
-6.4450864e-06
1.7926134e-06
1.0581464e-11
-8.3454039e-06
1.9003058e-06
1.1737598e-11
-1.0301415e-05
1.9559969e-06
1.2495707e-11
-1.2267366e-05
1.9659362e-06
1.2924253e-11
-1.4201536e-05
1.9341571e-06
1.3064872e-11
-1.6064185e-05
1.8626367e-06
1.2930778e-11
-1.7815964e-05
1.7517692e-06
1.2515668e-11
-1.9416983e-05
1.601009e-06
1.180355e-11
-2.0826581e-05
1.4095874e-06
1.0778206e-11
-2.2003826e-05
1.1772338e-06
9.4323594e-12
-2.2908685e-05
9.0484952e-07
7.7702445e-12
-2.3503783e-05
5.9509142e-07
5.8103749e-12
-2.3756615e-05
2.5283137e-07
3.5783107e-12
-2.3642055e-05
-1.1455757e-07
1.1095048e-12
-2.3144927e-05
-4.9712505e-07
-1.5483774e-12
-2.22625e-05
-8.8242689e-07
-4.3206653e-12
-2.1006552e-05
-1.2559483e-06
-7.081796e-12
-1.9404808e-05
-1.6017396e-06
-9.6584137e-12
-1.7501509e-05
-1.9032831e-06
-1.1894273e-11
-1.5356929e-05
-2.1445538e-06
-1.3678503e-11
-1.3045718e-05
-2.3111846e-06
-1.4960938e-11
-1.0654069e-05
-2.3916382e-06
-1.5700131e-11
-8.275798e-06
-2.3782772e-06
-1.5786527e-11
-6.0075683e-06
-2.2682351e-06
-1.504235e-11
-3.943546e-06
-2.0640014e-06
-1.3355878e-11
-2.1697953e-06
-1.7737017e-06
-1.084733e-11
-7.5853385e-07
-1.4112217e-06
-7.8520472e-12
2.3822205e-07
-9.9677003e-07
-4.8019234e-12
7.9653654e-07
-5.5837676e-07
-2.1886103e-12
9.2923283e-07
-1.3273622e-07
1.0213495e-12
7.0552361e-07
2.2375824e-07
5.3565857e-12
2.9043055e-07
4.1520685e-07
1.0091568e-11
2.9049951e-07
3.8239283e-12
1.3276667e-07
-4.1522549e-07
-2.4181165e-11
-3.0180312e-07
3.0632428e-07
-1.5340532e-11
-1.6154883e-06
1.5844244e-06
-1.3260903e-11
-3.8747629e-06
2.9541294e-06
-1.3862731e-11
-7.0073674e-06
4.2096001e-06
-1.4901448e-11
-1.087975e-05
5.2606886e-06
-1.6365683e-11
-1.5335138e-05
6.0802269e-06
-1.7748957e-11
-2.021595e-05
6.6734427e-06
-1.8737089e-11
-2.5373983e-05
7.0583579e-06
-1.9277647e-11
-3.0673169e-05
7.2552045e-06
-1.9389588e-11
-3.5988411e-05
7.2811983e-06
-1.909634e-11
-4.1202674e-05
7.1484388e-06
-1.841473e-11
-4.6203794e-05
6.8637734e-06
-1.7352971e-11
-5.0881901e-05
6.4298916e-06
-1.5912519e-11
-5.5128014e-05
5.8471375e-06
-1.4095155e-11
-5.8834084e-05
5.1156731e-06
-1.1911994e-11
-6.1894555e-05
4.2377175e-06
-9.3851823e-12
-6.4209352e-05
3.2196542e-06
-6.5546526e-12
-6.5688098e-05
2.0738377e-06
-3.4477516e-12
-6.625521e-05
8.1993753e-07
-1.1441392e-13
-6.5855732e-05
-5.1404324e-07
3.3858565e-12
-6.4460567e-05
-1.8922945e-06
7.007709e-12
-6.2072248e-05
-3.2707482e-06
1.0570111e-11
-5.8728875e-05
-4.5993282e-06
1.3900866e-11
-5.4506884e-05
-5.8237514e-06
1.6855428e-11
-4.9521742e-05
-6.8884607e-06
1.9346175e-11
-4.3926267e-05
-7.7400672e-06
2.1339859e-11
-3.7906349e-05
-8.3311232e-06
2.2781532e-11
-3.1674059e-05
-8.6239229e-06
2.3516537e-11
-2.5458328e-05
-8.5940009e-06
2.3325808e-11
-1.949356e-05
-8.2330301e-06
2.2108905e-11
-1.4006704e-05
-7.5509266e-06
2.006091e-11
-9.2033116e-06
-6.5771615e-06
1.7590713e-11
-5.2529349e-06
-5.3615965e-06
1.4964997e-11
-2.2739885e-06
-3.9756432e-06
1.204057e-11
-3.1724634e-07
-2.5150619e-06
8.422323e-12
6.5707606e-07
-1.1071281e-06
3.8579083e-12
8.0364119e-07
7.7014423e-08
1.6552798e-12
4.1776174e-07
8.0092196e-07
3.0969422e-12
7.083276e-07
-2.5539365e-12
-2.7363553e-07
-1.4157604e-07
-1.3315646e-11
-1.6275543e-06
1.6602509e-06
-8.1296382e-12
-4.2894652e-06
4.2463429e-06
-9.3714809e-12
-8.2747127e-06
6.939384e-06
-7.846469e-12
-1.3474419e-05
9.409313e-06
-5.7688901e-12
-1.9708685e-05
1.149496e-05
-4.6211175e-12
-2.6765676e-05
1.313722e-05
-3.8869522e-12
-3.4426502e-05
1.433427e-05
-3.284476e-12
-4.2478476e-05
1.5110333e-05
-2.7748563e-12
-5.0720255e-05
1.5496986e-05
-2.3206674e-12
-5.8962059e-05
1.5523006e-05
-1.8907769e-12
-6.7023416e-05
1.5209799e-05
-1.4711753e-12
-7.4730221e-05
1.4570581e-05
-1.056024e-12
-8.1912376e-05
1.3612047e-05
-6.39437e-13
-8.8402777e-05
1.2337537e-05
-2.1466578e-13
-9.4038082e-05
1.0750977e-05
2.2006358e-13
-9.8661383e-05
8.8610197e-06
6.540332e-13
-0.00010212667
6.684943e-06
1.0628279e-12
-0.00010430479
4.2519641e-06
1.4198046e-12
-0.00010509057
1.6057144e-06
1.7070669e-12
-0.00010441022
-1.1944023e-06
1.9394689e-12
-0.00010222906
-4.0734685e-06
2.1391881e-12
-9.8558146e-05
-6.9416644e-06
2.3195265e-12
-9.3459656e-05
-9.6978114e-06
2.4647557e-12
-8.7050076e-05
-1.2233321e-05
2.5233558e-12
-7.9500717e-05
-1.4437818e-05
2.4528822e-12
-7.1035045e-05
-1.6205754e-05
2.2898959e-12
-6.1922539e-05
-1.7443655e-05
2.1645582e-12
-5.2469006e-05
-1.8077467e-05
2.2042363e-12
-4.3003569e-05
-1.8059417e-05
2.3835399e-12
-3.3862733e-05
-1.7373827e-05
2.4945152e-12
-2.5372163e-05
-1.6041486e-05
2.358376e-12
-1.7826861e-05
-1.412251e-05
2.1095367e-12
-1.1470427e-05
-1.1718096e-05
2.1668337e-12
-6.4739027e-06
-8.972173e-06
2.7680079e-12
-2.9140577e-06
-6.0748171e-06
3.488188e-12
-7.5120623e-07
-3.2698667e-06
3.4536014e-12
1.943779e-07
-8.685457e-07
3.3631309e-12
2.6545618e-07
7.2973609e-07
4.5501293e-12
9.7379959e-07
5.723979e-13
-7.4587246e-07
6.0430993e-07
-1.3402605e-11
-3.179674e-06
4.0940558e-06
-2.0165017e-12
-7.3461358e-06
8.4128113e-06
-7.4373317e-12
-1.3163065e-05
1.2756318e-05
-6.7403952e-12
-2.0455792e-05
1.6702043e-05
-4.0567151e-12
-2.8992564e-05
2.0031736e-05
-2.6601487e-12
-3.8513756e-05
2.2658415e-05
-1.7357655e-12
-4.8752504e-05
2.4573018e-05
-9.2422637e-13
-5.9446756e-05
2.5804584e-05
-2.6386824e-13
-7.0344554e-05
2.6394782e-05
2.7080465e-13
-8.1204795e-05
2.6383247e-05
7.237061e-13
-9.1795598e-05
2.5800601e-05
1.1146434e-12
-0.00010189198
2.4666965e-05
1.4465996e-12
-0.00011127416
2.2994222e-05
1.7154076e-12
-0.00011972727
2.0790649e-05
1.918188e-12
-0.00012704307
1.806677e-05
2.0580161e-12
-0.0001330236
1.4841543e-05
2.1397366e-12
-0.00013748684
1.1148183e-05
2.1616936e-12
-0.00014027393
7.0390569e-06
2.1078654e-12
-0.00014125747
2.589258e-06
1.9569156e-12
-0.0001403502
-2.1016696e-06
1.7061189e-12
-0.00013751384
-6.9098403e-06
1.3381407e-12
-0.00013276651
-1.1689003e-05
9.1297979e-13
-0.00012618883
-1.6275493e-05
5.0460105e-13
-0.00011792746
-2.0494694e-05
1.4806789e-13
-0.00010819552
-2.4169731e-05
-1.9290313e-13
-9.726953e-05
-2.7131731e-05
-5.8476104e-13
-8.5482124e-05
-2.9231069e-05
-1.0126663e-12
-7.3210726e-05
-3.0348895e-05
-1.3078851e-12
-6.0862107e-05
-3.0408059e-05
-1.2463406e-12
-4.8853337e-05
-2.9382579e-05
-7.9087556e-13
-3.7589807e-05
-2.730496e-05
-2.1132411e-13
-2.7441235e-05
-2.4271049e-05
1.636569e-13
-1.8716649e-05
-2.0442723e-05
3.7321407e-13
-1.163947e-05
-1.6049446e-05
8.635906e-13
-6.3236144e-06
-1.1390723e-05
1.9587972e-12
-2.751553e-06
-6.8418768e-06
3.3451625e-12
-7.5712603e-07
-2.862896e-06
4.150799e-12
-9.5202446e-09
-1.7887194e-08
4.1780361e-12
9.6425246e-07
3.3887506e-12
-1.2279782e-06
1.8323017e-06
-1.4802526e-11
-4.788123e-06
7.6541983e-06
4.0806852e-12
-1.0521541e-05
1.4146237e-05
-6.4732202e-12
-1.8214301e-05
2.0449084e-05
-7.5570101e-12
-2.7603861e-05
2.6091606e-05
-5.1513282e-12
-3.8396167e-05
3.0824044e-05
-4.3903287e-12
-5.0282863e-05
3.4545116e-05
-4.0120174e-12
-6.2954526e-05
3.7244686e-05
-3.5209265e-12
-7.6108714e-05
3.8958776e-05
-3.0527849e-12
-8.9453385e-05
3.9739454e-05
-2.6294533e-12
-0.00010270702
3.9636882e-05
-2.2157468e-12
-0.00011559702
3.86906e-05
-1.7929702e-12
-0.00012785777
3.6927723e-05
-1.3561428e-12
-0.00013922958
3.4366028e-05
-9.1016667e-13
-0.00014945908
3.1020157e-05
-4.6745297e-13
-0.00015830177
2.6909462e-05
-4.0375664e-14
-0.00016552651
2.2066279e-05
3.6758275e-13
-0.00017092201
1.6543672e-05
7.6331689e-13
-0.00017430485
1.0421896e-05
1.1534977e-12
-0.00017552862
3.8130264e-06
1.5301989e-12
-0.0001744934
-3.1368761e-06
1.8626131e-12
-0.00017115519
-1.0248054e-05
2.0957453e-12
-0.00016553414
-1.7310051e-05
2.211021e-12
-0.00015772129
-2.4088356e-05
2.249097e-12
-0.00014788264
-3.0333356e-05
2.2951683e-12
-0.00013626011
-3.579227e-05
2.4032264e-12
-0.00012316852
-4.0223291e-05
2.517901e-12
-0.00010898833
-4.3411233e-05
2.4995002e-12
-9.415348e-05
-4.5183751e-05
2.2850914e-12
-7.9134609e-05
-4.5426969e-05
2.0396235e-12
-6.4417897e-05
-4.4099336e-05
2.0651087e-12
-5.0480253e-05
-4.1242598e-05
2.4650499e-12
-3.7762044e-05
-3.6989194e-05
2.9294981e-12
-2.6638738e-05
-3.156597e-05
3.0046778e-12
-1.7393124e-05
-2.5295079e-05
2.6587687e-12
-1.0189926e-05
-1.8594002e-05
2.5893152e-12
-5.0547684e-06
-1.1977074e-05
3.5502364e-12
-1.8598329e-06
-6.0577872e-06
3.664071e-12
-3.2221942e-07
-1.5554719e-06
4.7406008e-13
6.4201089e-07
5.684953e-12
-1.6931695e-06
3.5254873e-06
-1.7239936e-11
-6.3714024e-06
1.2332421e-05
9.5537839e-12
-1.367142e-05
2.1446261e-05
-5.4541565e-12
-2.3233985e-05
3.0011659e-05
-7.6094937e-12
-3.4695115e-05
3.755274e-05
-4.8827319e-12
-4.768963e-05
4.3818562e-05
-4.3105883e-12
-6.1857261e-05
4.871275e-05
-4.1694704e-12
-7.6847729e-05
5.2235158e-05
-3.7852532e-12
-9.2323455e-05
5.4434506e-05
-3.3669501e-12
-0.00010795978
5.5375784e-05
-2.9740779e-12
-0.0001234434
5.5120507e-05
-2.582459e-12
-0.00013847006
5.3717258e-05
-2.1791565e-12
-0.00015274253
5.1200191e-05
-1.7555417e-12
-0.00016596978
4.7593285e-05
-1.3057642e-12
-0.00017786794
4.2918311e-05
-8.3353744e-13
-0.00018816321
3.7204738e-05
-3.55851e-13
-0.00019659702
3.0500093e-05
1.0532546e-13
-0.00020293295
2.28796e-05
5.3717196e-13
-0.00020696525
1.4454191e-05
9.4513677e-13
-0.00020852842
5.3761836e-06
1.3467184e-12
-0.00020750726
-4.1580338e-06
1.7474029e-12
-0.00020384685
-1.3908457e-05
2.1201466e-12
-0.00019756168
-2.3595213e-05
2.3977621e-12
-0.00018874323
-3.2906804e-05
2.5305766e-12
-0.00017756521
-4.1511383e-05
2.5483895e-12
-0.00016428565
-4.9071848e-05
2.5670836e-12
-0.00014924498
-5.5263971e-05
2.6924467e-12
-0.00013285944
-5.9796754e-05
2.8856323e-12
-0.00011560927
-6.2433884e-05
2.9540042e-12
-9.8021422e-05
-6.3014808e-05
2.7578594e-12
-8.0646972e-05
-6.1473828e-05
2.4513443e-12
-6.4034011e-05
-5.7855621e-05
2.4138154e-12
-4.869734e-05
-5.2325879e-05
2.8184902e-12
-3.5086813e-05
-4.5176442e-05
3.2935915e-12
-2.3556595e-05
-3.682524e-05
3.2525923e-12
-1.4337828e-05
-2.7812784e-05
3.0142139e-12
-7.5174959e-06
-1.8797465e-05
3.88755e-12
-3.0267347e-06
-1.054855e-05
3.4163046e-12
-6.4248637e-07
-3.9396871e-06
-2.0071127e-12
-4.8627274e-10
8.2497527e-12
-2.132931e-06
5.6584388e-06
-1.9968914e-11
-7.8910515e-06
1.8090525e-05
1.4389581e-11
-1.6717345e-05
3.0272559e-05
-4.6764758e-12
-2.810563e-05
4.1399952e-05
-7.6291331e-12
-4.1584914e-05
5.103203e-05
-4.4002973e-12
-5.6713887e-05
5.8947539e-05
-3.8716682e-12
-7.3077952e-05
6.5076817e-05
-3.8785221e-12
-9.0286678e-05
6.9443886e-05
-3.5600983e-12
-0.00010797083
7.2118658e-05
-3.1748092e-12
-0.00012577869
7.3183648e-05
-2.8015627e-12
-0.00014337208
7.2713901e-05
-2.4213594e-12
-0.00016042267
7.0767859e-05
-2.0334222e-12
-0.00017660937
6.7386892e-05
-1.6393266e-12
-0.00019161726
6.2601172e-05
-1.2316716e-12
-0.00020513858
5.6439632e-05
-8.0008421e-13
-0.00021687587
4.8942023e-05
-3.4468864e-13
-0.00022654715
4.0171372e-05
1.1716046e-13
-0.00023389305
3.0225506e-05
5.5548455e-13
-0.00023868548
1.9246621e-05
9.4465109e-13
-0.00024073741
7.4281071e-06
1.283091e-12
-0.00023991338
-4.9820729e-06
1.5968182e-12
-0.00023614007
-1.7681771e-05
1.9235045e-12
-0.00022941656
-3.0318714e-05
2.2431456e-12
-0.0002198233
-4.2500051e-05
2.4810632e-12
-0.00020752912
-5.3805549e-05
2.5540602e-12
-0.00019279537
-6.3805606e-05
2.4706011e-12
-0.00017597607
-7.2083307e-05
2.37563e-12
-0.00015751309
-7.8259745e-05
2.441167e-12
-0.00013792566
-8.20213e-05
2.6649295e-12
-0.00011779332
-8.3147098e-05
2.811731e-12
-9.7732617e-05
-8.1534507e-05
2.6632775e-12
-7.8367876e-05
-7.7220395e-05
2.359692e-12
-6.0297707e-05
-7.0396112e-05
2.3416385e-12
-4.4059425e-05
-6.1414744e-05
2.7560605e-12
-3.0094347e-05
-5.0790272e-05
3.0867859e-12
-1.8717197e-05
-3.9189895e-05
3.2587783e-12
-1.0093028e-05
-2.7421659e-05
4.4943715e-12
-4.2253145e-06
-1.6416292e-05
3.3460572e-12
-9.5848785e-07
-7.2065017e-06
-4.8715153e-12
-9.5897413e-07
1.0279856e-11
-2.5450433e-06
8.2035065e-06
-2.2718597e-11
-9.3288067e-06
2.4874269e-05
1.8711047e-11
-1.9615278e-05
4.0559033e-05
-4.1639282e-12
-3.2756703e-05
5.4541384e-05
-7.8698806e-12
-4.8175667e-05
6.6450998e-05
-4.1731674e-12
-6.5353788e-05
7.6125665e-05
-3.6859067e-12
-8.3821748e-05
8.3544781e-05
-3.8352017e-12
-0.00010315014
8.877228e-05
-3.5952208e-12
-0.00012294104
9.1909565e-05
-3.2682252e-12
-0.00014282029
9.3062892e-05
-2.9408126e-12
-0.00016243058
9.2324203e-05
-2.5853195e-12
-0.00018142603
8.9763313e-05
-2.2032493e-12
-0.00019946833
8.5429189e-05
-1.8088645e-12
-0.00021622506
7.9357902e-05
-1.4093106e-12
-0.00023137026
7.1584835e-05
-9.9974354e-13
-0.00024458724
6.2158996e-05
-5.6757821e-13
-0.00025557348
5.1157612e-05
-1.057684e-13
-0.00026404755
3.8699571e-05
3.737381e-13
-0.00026975754
2.4956621e-05
8.3542281e-13
-0.00027249097
1.0161539e-05
1.2353308e-12
-0.00027208558
-5.3874684e-06
1.5538872e-12
-0.00026844066
-2.1326701e-05
1.8368031e-12
-0.00026152873
-3.7230648e-05
2.1287905e-12
-0.00025140643
-5.2622348e-05
2.4440092e-12
-0.00023822408
-6.698788e-05
2.7042932e-12
-0.00022223281
-7.979686e-05
2.7853493e-12
-0.00020378789
-9.0528229e-05
2.6591311e-12
-0.00018334698
-9.870069e-05
2.4873309e-12
-0.00016146187
-0.00010390644
2.5057128e-12
-0.00013876282
-0.00010584614
2.7523287e-12
-0.00011593496
-0.00010436232
2.9592011e-12
-9.3687228e-05
-9.9468094e-05
2.8581489e-12
-7.2715204e-05
-9.1368162e-05
2.6005676e-12
-5.3660607e-05
-8.0469398e-05
2.5809271e-12
-3.7070999e-05
-6.7379892e-05
2.7633609e-12
-2.3363878e-05
-5.2896978e-05
3.2607506e-12
-1.2799273e-05
-3.798625e-05
5.1431434e-12
-5.4648672e-06
-2.3750717e-05
3.3819284e-12
-1.2772593e-06
-1.1394114e-05
-7.8644543e-12
-2.2362385e-06
1.2689039e-11
-2.928468e-06
1.1132e-05
-2.5411222e-11
-1.0673621e-05
3.2619401e-05
2.2587029e-11
-2.2336068e-05
5.2221483e-05
-3.8123129e-12
-3.7135798e-05
6.9341121e-05
-8.2067254e-12
-5.439385e-05
8.3709053e-05
-4.0732911e-12
-7.3517276e-05
9.5249094e-05
-3.6147166e-12
-9.398385e-05
0.00010401136
-3.8797485e-12
-0.00011532741
0.00011011584
-3.6962488e-12
-0.00013712452
0.00011370668
-3.4167833e-12
-0.00015898278
0.00011492115
-3.1404441e-12
-0.00018053094
0.00011387236
-2.8280804e-12
-0.00020141122
0.0001106436
-2.4699694e-12
-0.00022127402
0.000105292
-2.0766525e-12
-0.0002397751
9.7858987e-05
-1.663847e-12
-0.00025657524
8.8384974e-05
-1.2451652e-12
-0.00027134228
7.6926035e-05
-8.2197851e-13
-0.00028375538
6.3570703e-05
-3.8166443e-13
-0.00029351121
4.8455395e-05
9.3073105e-14
-0.00030033199
3.1777405e-05
6.0127466e-13
-0.00030397513
1.380469e-05
1.1015993e-12
-0.00030424437
-5.1182267e-06
1.5254525e-12
-0.0003010018
-2.4569265e-05
1.8615371e-12
-0.0002941814
-4.4051064e-05
2.114802e-12
-0.0002838022
-6.3001565e-05
2.369763e-12
-0.00026998123
-8.0808855e-05
2.6771563e-12
-0.00025294458
-9.6833488e-05
2.9635805e-12
-0.00023303516
-0.00011043762
3.0677678e-12
-0.00021071526
-0.00012102059
2.9195817e-12
-0.00018656204
-0.0001280597
2.6870832e-12
-0.00016125431
-0.00013115391
2.6555955e-12
-0.00013554955
-0.00013006708
2.8899316e-12
-0.00011025112
-0.00012476648
3.1081071e-12
-8.6167099e-05
-0.00011545215
3.047391e-12
-6.4063538e-05
-0.00010257298
2.804528e-12
-4.4616556e-05
-8.6826916e-05
2.5773959e-12
-2.8368461e-05
-6.9145074e-05
3.0686507e-12
-1.5693106e-05
-5.0661584e-05
5.6468939e-12
-6.7751988e-06
-3.2668621e-05
3.4817645e-12
-1.6070315e-06
-1.656228e-05
-1.083592e-11
-3.8432857e-06
1.5215709e-11
-3.281684e-06
1.4413711e-05
-2.798774e-11
-1.1915811e-05
4.1253503e-05
2.6035512e-11
-2.4855389e-05
6.5161065e-05
-3.5842837e-12
-4.1199716e-05
8.5685457e-05
-8.5838261e-12
-6.0176017e-05
0.00010268536
-4.0337565e-12
-8.1121858e-05
0.00011619494
-3.5984163e-12
-0.00010346581
0.00012635531
-3.965136e-12
-0.00012670828
0.00013335832
-3.8219558e-12
-0.00015040394
0.00013740235
-3.5689411e-12
-0.00017414633
0.00013866354
-3.3257566e-12
-0.00019755503
0.00013728107
-3.054045e-12
-0.00022026569
0.00013335425
-2.7374201e-12
-0.00024192281
0.00012694912
-2.3727486e-12
-0.00026217553
0.00011811171
-1.9637523e-12
-0.00028067596
0.00010688541
-1.5255865e-12
-0.00029708005
9.3330124e-05
-1.0790164e-12
-0.00031105067
7.7541323e-05
-6.3538062e-13
-0.00032226284
5.9667559e-05
-1.8392585e-13
-0.00033041089
3.9925454e-05
3.0231846e-13
-0.00033521767
1.8611466e-05
8.2565562e-13
-0.00033644585
-3.8900444e-06
1.3370236e-12
-0.00033391048
-2.7104621e-05
1.838859e-12
-0.00032749476
-5.046678e-05
2.1912712e-12
-0.00031716573
-7.3330599e-05
2.416073e-12
-0.00030299123
-9.4983378e-05
2.6227982e-12
-0.00028515584
-0.00011466889
2.899088e-12
-0.00026397428
-0.00013161917
3.1882837e-12
-0.0002398998
-0.00014509504
3.3027035e-12
-0.00021352511
-0.00015443438
3.1372085e-12
-0.00018557318
-0.00015910587
2.8629015e-12
-0.0001568761
-0.0001587642
2.7917992e-12
-0.00012834125
-0.00015330134
2.9989187e-12
-0.00010090575
-0.00014288762
3.2113724e-12
-7.5482231e-05
-0.00012799648
3.1076284e-12
-5.2900992e-05
-0.00010940818
2.6274164e-12
-3.3855028e-05
-8.8191064e-05
2.9239561e-12
-1.8854737e-05
-6.5661876e-05
6.0533286e-12
-8.1982386e-06
-4.3325107e-05
3.5150474e-12
-1.9611553e-06
-2.2799345e-05
-1.3983065e-11
-5.8044629e-06
1.7920625e-11
-3.6022848e-06
1.8016025e-05
-3.0387907e-11
-1.3044807e-05
5.0695996e-05
2.9066169e-11
-2.7149155e-05
7.9265417e-05
-3.4743014e-12
-4.4906949e-05
0.00010344326
-9.0023793e-12
-6.5461187e-05
0.0001232396
-4.0557e-12
-8.808681e-05
0.00013882056
-3.6341579e-12
-0.00011216827
0.00015043678
-4.0972878e-12
-0.00013717678
0.00015836683
-3.998427e-12
-0.00016264913
0.0001628747
-3.7701131e-12
-0.00018816907
0.00016418349
-3.5461814e-12
-0.00021335169
0.00016246368
-3.2957615e-12
-0.00023783098
0.00015783355
-3.0109081e-12
-0.00026125078
0.00015036892
-2.6873082e-12
-0.00028325863
0.00014011956
-2.314242e-12
-0.00030350257
0.00012712934
-1.8869332e-12
-0.00032163036
0.00011145792
-1.4176243e-12
-0.0003372911
9.3202075e-05
-9.3280246e-13
-0.00035013902
7.2515476e-05
-4.5604561e-13
-0.00035983942
4.9625852e-05
1.4603513e-14
-0.00036607707
2.4849102e-05
4.9422316e-13
-0.00036856763
-1.3994906e-06
9.7580954e-13
-0.00036707003
-2.8602208e-05
1.6217462e-12
-0.0003614051
-5.6131701e-05
2.1667351e-12
-0.00035147336
-8.3262325e-05
2.5399231e-12
-0.00033727668
-0.00010918007
2.7463887e-12
-0.00031893985
-0.00013300575
2.901481e-12
-0.00029673079
-0.00015382826
3.1292383e-12
-0.0002710764
-0.00017074942
3.3927922e-12
-0.00024257085
-0.0001829399
3.4898545e-12
-0.00021197259
-0.00018970411
3.2988497e-12
-0.00018018704
-0.00019054979
2.9989634e-12
-0.00014823288
-0.00018525553
2.9154383e-12
-0.00011719242
-0.00017392808
3.1163648e-12
-8.8148681e-05
-0.00015704019
3.2144008e-12
-6.2115191e-05
-0.00013544166
2.7443748e-12
-3.9966376e-05
-0.0001103399
2.9383551e-12
-2.2377553e-05
-8.3250717e-05
6.5436927e-12
-9.7826651e-06
-5.5919993e-05
3.4895244e-12
-2.3546875e-06
-3.0227296e-05
-1.7496172e-11
-8.1591723e-06
2.0948456e-11
-3.8870301e-06
2.1903088e-05
-3.2565423e-11
-1.404859e-05
6.0857522e-05
3.1690521e-11
-2.9191911e-05
9.4408741e-05
-3.4608179e-12
-4.8215032e-05
0.00012246639
-9.4586249e-12
-7.0187508e-05
0.00014521208
-4.1479129e-12
-9.4329618e-05
0.00016296268
-3.7232761e-12
-0.00011998766
0.00017609482
-4.2650465e-12
-0.00014660841
0.00018498759
-4.2122097e-12
-0.0001737151
0.0001899814
-4.0203246e-12
-0.00020088597
0.00019135437
-3.8235053e-12
-0.0002277361
0.00018931382
-3.5879608e-12
-0.00025390273
0.00018400018
-3.3149491e-12
-0.00027903404
0.00017550023
-3.0136657e-12
-0.00030278109
0.00016386661
-2.6792092e-12
-0.00032479268
0.00014914093
-2.29536e-12
-0.00034471271
0.00013137794
-1.8478778e-12
-0.00036217989
0.00011066926
-1.3419289e-12
-0.00037682974
8.7165337e-05
-8.0865145e-13
-0.00038829902
6.1095129e-05
-2.8680155e-13
-0.00039623288
3.2782961e-05
2.2371509e-13
-0.00040029501
2.6626284e-06
7.7618142e-13
-0.00040018254
-2.8714691e-05
1.3028826e-12
-0.00039564275
-6.0671485e-05
1.9148928e-12
-0.0003864961
-9.2408959e-05
2.4931717e-12
-0.00037266143
-0.00012301473
2.8967243e-12
-0.00035418385
-0.00015148333
3.0908897e-12
-0.00033126277
-0.00017674936
3.1971508e-12
-0.00030427691
-0.0001977353
3.3661131e-12
-0.00027380217
-0.00021341464
3.5741516e-12
-0.00024061757
-0.00022288868
3.6162833e-12
-0.00020569457
-0.00022547278
3.3820422e-12
-0.00017016588
-0.00022078424
3.0832971e-12
-0.00013527279
-0.0002088212
3.0426415e-12
-0.00010229303
-0.00019001994
3.1258257e-12
-7.2455718e-05
-0.00016527896
2.7193997e-12
-4.6853153e-05
-0.00013594246
3.0031484e-12
-2.636129e-05
-0.0001037426
7.2116984e-12
-1.1580412e-05
-7.0700879e-05
3.4948097e-12
-2.8033074e-06
-3.9004376e-05
-2.1501937e-11
-1.0962501e-05
2.439657e-11
-4.1320959e-06
2.6035219e-05
-3.4491493e-11
-1.4914025e-05
7.1639417e-05
3.3901451e-11
-3.0956985e-05
0.0001104517
-3.5112692e-12
-5.1080418e-05
0.00014258983
-9.9267069e-12
-7.4291934e-05
0.0001684236
-4.3082079e-12
-9.9765676e-05
0.00018843643
-3.873684e-12
-0.00012681613
0.00020314528
-4.4693813e-12
-0.00015487063
0.0002130421
-4.4479339e-12
-0.00018344315
0.00021855392
-4.2928896e-12
-0.00021211061
0.00022002182
-4.136915e-12
-0.00024049246
0.00021769567
-3.9322275e-12
-0.00026823386
0.00021174159
-3.673897e-12
-0.00029499236
0.00020225874
-3.3772627e-12
-0.00032042783
0.00018930208
-3.0539018e-12
-0.00034419512
0.00017290823
-2.7023859e-12
-0.00036593941
0.00015312223
-2.3038784e-12
-0.00038529369
0.00013002353
-1.8342413e-12
-0.00040187863
0.00010375028
-1.2895932e-12
-0.00041530505
7.4521551e-05
-7.0168754e-13
-0.00042517938
4.2657299e-05
-1.0553247e-13
-0.00043111258
8.595837e-06
4.950559e-13
-0.00043273487
-2.7092419e-05
9.7980442e-13
-0.00042971285
-6.3693518e-05
1.5540131e-12
-0.00042177492
-0.0001003469
2.2060125e-12
-0.00040874051
-0.00013604912
2.8214652e-12
-0.00039055424
-0.00016966958
3.2452598e-12
-0.00036732244
-0.00019998116
3.4242766e-12
-0.00033934883
-0.00022570893
3.4827136e-12
-0.00030716451
-0.00024559899
3.5824834e-12
-0.00027154607
-0.00025850712
3.7018544e-12
-0.00023351534
-0.00026350349
3.6496839e-12
-0.00019431443
-0.00025998515
3.3785808e-12
-0.00015535248
-0.00024778317
3.1484911e-12
-0.00011812495
-0.0002272475
3.0323542e-12
-8.4111599e-05
-0.0001992923
2.5332669e-12
-5.4665325e-05
-0.00016538872
2.9769113e-12
-3.0907252e-05
-0.00012750068
8.0221775e-12
-1.364466e-05
-8.7963479e-05
3.5813136e-12
-3.3229843e-06
-4.9326028e-05
-2.6087505e-11
-1.4285512e-05
2.837811e-11
-4.3334342e-06
3.0368689e-05
-3.6136947e-11
-1.5627723e-05
8.293367e-05
3.5666356e-11
-3.2417765e-05
0.00012724175
-3.6072861e-12
-5.3460072e-05
0.00016363215
-1.0372934e-11
-7.7712124e-05
0.00019267566
-4.5148522e-12
-0.00010431056
0.00021503487
-4.0819194e-12
-0.00013254436
0.00023137909
-4.7200764e-12
-0.00016182627
0.00024232401
-4.7135336e-12
-0.00019166511
0.00024839277
-4.578912e-12
-0.00022164037
0.00024999709
-4.4585418e-12
-0.00025138
0.0002474353
-4.2967326e-12
-0.0002805416
0.00024090318
-4.0750809e-12
-0.00030879709
0.00023051424
-3.7966596e-12
-0.00033582059
0.00021632558
-3.4727921e-12
-0.00036127893
0.00019836658
-3.1195642e-12
-0.00038482466
0.00017666797
-2.7421822e-12
-0.00040609123
0.0001512901
-2.3223392e-12
-0.00042469044
0.00012234948
-1.8280881e-12
-0.0004402125
9.0043606e-05
-1.242418e-12
-0.0004522293
5.4674104e-05
-5.8529852e-13
-0.00046030169
1.6668238e-05
8.691196e-14
-0.00046399225
-2.3401858e-05
6.728049e-13
-0.00046288319
-6.4802583e-05
1.2393739e-12
-0.00045660216
-0.00010662794
1.8503838e-12
-0.0004448549
-0.0001477964
2.5234693e-12
-0.00042746499
-0.00018705948
3.1549698e-12
-0.00040441915
-0.00022302699
3.5757222e-12
-0.00037591462
-0.00025421346
3.7239853e-12
-0.00034240369
-0.00027910994
3.7253247e-12
-0.00030462784
-0.00029628299
3.7349433e-12
-0.0002636327
-0.00030449863
3.727257e-12
-0.00022075455
-0.00030286329
3.5767184e-12
-0.00017757116
-0.00029096655
3.3416395e-12
-0.00013581466
-0.00026900402
3.0474534e-12
-9.7251681e-05
-0.00023785529
2.3044001e-12
-6.3544672e-05
-0.00019909573
2.8373647e-12
-3.6114592e-05
-0.00015493076
8.9126156e-12
-1.6028513e-05
-0.00010804956
3.723757e-12
-3.9298254e-06
-6.1424687e-05
-3.1360689e-11
-1.821537e-05
3.3033468e-11
-4.487205e-06
3.485593e-05
-3.7458882e-11
-1.6177256e-05
9.4623685e-05
3.6950598e-11
-3.3549761e-05
0.00014461426
-3.7501944e-12
-5.531433e-05
0.00018539673
-1.0779293e-11
-8.0390046e-05
0.00021775138
-4.742774e-12
-0.00010788438
0.0002425292
-4.3256364e-12
-0.00013706672
0.00026056144
-5.0098587e-12
-0.00016733964
0.00027259694
-5.0185869e-12
-0.00019821046
0.0002792636
-4.8920772e-12
-0.00022926478
0.00028105142
-4.7872188e-12
-0.00026014276
0.00027831328
-4.6547553e-12
-0.00029051867
0.0002712791
-4.4753162e-12
-0.00032008376
0.00026007934
-4.2392728e-12
-0.00034853205
0.00024477388
-3.939132e-12
-0.00037554876
0.00022538329
-3.5825985e-12
-0.00040080096
0.00020192019
-3.19039e-12
-0.00042393035
0.00017441949
-2.7758547e-12
-0.00044454803
0.00014296717
-2.32504e-12
-0.00046223194
0.00010772751
-1.7985831e-12
-0.00047652735
6.896951e-05
-1.163782e-12
-0.00048695161
2.7092503e-05
-4.409351e-13
-0.00049300438
-1.7349073e-05
2.8077832e-13
-0.0004941844
-6.3622558e-05
9.4475474e-13
-0.00049001463
-0.00011079773
1.5603694e-12
-0.0004800766
-0.00015773445
2.1968141e-12
-0.00046405457
-0.00020308152
2.8783322e-12
-0.00044178871
-0.00024529284
3.496505e-12
-0.00041333477
-0.00028266739
3.878327e-12
-0.00037902506
-0.00031341965
3.9667951e-12
-0.00033952254
-0.00033578553
3.8836967e-12
-0.00029585683
-0.00034816436
3.7651173e-12
-0.0002494292
-0.00034929091
3.6246976e-12
-0.00020197448
-0.00033842127
3.4566484e-12
-0.00015547246
-0.00031550604
3.1063096e-12
-0.00011201132
-0.00028131644
2.1030108e-12
-7.3617315e-05
-0.00023748974
2.6523619e-12
-4.2076897e-05
-0.00018647118
9.8888434e-12
-1.8783953e-05
-0.0001313425
3.8779878e-12
-4.6399972e-06
-7.5568604e-05
-3.7471121e-11
-2.2855407e-05
3.8497396e-11
-4.5902657e-06
3.9446233e-05
-3.8413817e-11
-1.6552627e-05
0.00010658601
3.7742001e-11
-3.4333221e-05
0.00016239486
-3.9409505e-12
-5.6610678e-05
0.0002076742
-1.1145731e-11
-8.2276886e-05
0.00024341759
-4.9852714e-12
-0.00011041779
0.00027067011
-4.5851248e-12
-0.00014028843
0.00029043208
-5.3152513e-12
-0.00017128493
0.00030359344
-5.3507391e-12
-0.00020291621
0.00031089488
-5.2385525e-12
-0.00023477692
0.00031291214
-5.1398826e-12
-0.00026652274
0.0003100591
-5.0133899e-12
-0.00029784854
0.0003026049
-4.8520544e-12
-0.00032846962
0.00029070043
-4.6524594e-12
-0.00035810568
0.00027440994
-4.3969602e-12
-0.00038646717
0.00025374478
-4.0695446e-12
-0.00041324374
0.00022869676
-3.673464e-12
-0.00043809453
0.0001992703
-3.2321654e-12
-0.00046064036
0.000165513
-2.7679582e-12
-0.00048045815
0.00012754529
-2.2731475e-12
-0.00049707829
8.5589647e-05
-1.703125e-12
-0.00050998603
4.000024e-05
-1.0170586e-12
-0.00051862824
-8.7068689e-06
-2.3448831e-13
-0.00052242721
-5.9823577e-05
5.5766079e-13
-0.00052080352
-0.00011242141
1.2866718e-12
-0.00051320982
-0.00016532815
1.9493194e-12
-0.00049917719
-0.00021711417
2.6072669e-12
-0.00047837452
-0.00026609553
3.2756052e-12
-0.00045067967
-0.00031036223
3.8398601e-12
-0.00041625804
-0.00034784127
4.1351003e-12
-0.00037564007
-0.00037640351
4.1162838e-12
-0.00032978463
-0.00039401982
3.8977404e-12
-0.00028011131
-0.00039896424
3.6401452e-12
-0.00022848323
-0.00039004934
3.4539153e-12
-0.00017712577
-0.0003668635
3.0875962e-12
-0.00012847736
-0.00032996484
1.8739756e-12
-8.4985389e-05
-0.00028098172
2.4564546e-12
-4.8878526e-05
-0.00022257806
1.1010692e-11
-2.1960771e-05
-0.00015826026
4.0400936e-12
-5.4696632e-06
-9.2059665e-05
-4.4573141e-11
-2.8325115e-05
4.488619e-11
-4.6407032e-06
4.4086976e-05
-3.898209e-11
-1.6747932e-05
0.0001186932
3.8048243e-11
-3.4756199e-05
0.00018040313
-4.1646365e-12
-5.7328278e-05
0.00023024629
-1.1470899e-11
-8.3338999e-05
0.00026942832
-5.2508301e-12
-0.00011185937
0.00029919049
-4.8624277e-12
-0.00014213431
0.00032070703
-5.6235648e-12
-0.0001735565
0.00033501563
-5.6875792e-12
-0.00020563883
0.00034297722
-5.6005711e-12
-0.00023798742
0.00034526073
-5.5165992e-12
-0.00027027626
0.00034234794
-5.3901724e-12
-0.00030222438
0.00033455303
-5.2210782e-12
-0.00033357566
0.00032205171
-5.0224254e-12
-0.00036408115
0.00030491544
-4.7903356e-12
-0.00039348364
0.00028314727
-4.5036023e-12
-0.00042150403
0.00025671715
-4.139235e-12
-0.00044782932
0.0002255956
-3.6942711e-12
-0.00047210221
0.0001897859
-3.1933655e-12
-0.00049391251
0.0001493556
-2.6673742e-12
-0.00051279106
0.00010446819
-2.1147993e-12
-0.00052820706
5.5416243e-05
-1.4896513e-12
-0.0005395704
2.6564551e-06
-7.4298344e-13
-0.00054624085
-5.3153127e-05
9.0963514e-14
-0.00054754644
-0.00011111581
9.4606949e-13
-0.00054281404
-0.00017006054
1.7322989e-12
-0.00053141488
-0.00022851334
2.4331849e-12
-0.00051282716
-0.00028468327
3.0936922e-12
-0.00048671653
-0.00033647287
3.7104648e-12
-0.00045303166
-0.00038152613
4.1638787e-12
-0.00041210749
-0.00041732767
4.3044674e-12
-0.00036476207
-0.00044136524
4.105652e-12
-0.00031236623
-0.00045136009
3.7293641e-12
-0.00025686032
-0.00044555526
3.4209577e-12
-0.00020069341
-0.0004230304
2.958983e-12
-0.00014667083
-0.00038398741
1.519987e-12
-9.7717201e-05
-0.00032993535
2.1971861e-12
-5.6590211e-05
-0.00026370506
1.2311153e-11
-2.560527e-05
-0.00018924521
4.2349198e-12