/*--------------------------------*- C++ -*----------------------------------*\
  =========                 |
  \\      /  F ield         | OpenFOAM: The Open Source CFD Toolbox
   \\    /   O peration     | Website:  https://openfoam.org
    \\  /    A nd           | Version:  7
     \\/     M anipulation  |
\*---------------------------------------------------------------------------*/
FoamFile
{
    version     2.0;
    format      ascii;
    class       volVectorField;
    location    "25";
    object      U;
}
// * * * * * * * * * * * * * * * * * * * * * * * * * * * * * * * * * * * * * //

dimensions      [0 1 -1 0 0 0 0];

internalField   nonuniform List<vector> 
16000
(
(6.6000121e-05 -6.7376259e-05 -4.3188562e-07)
(0.00016268839 -5.6379257e-05 5.6658874e-06)
(0.00014189268 4.5332387e-07 1.9165279e-05)
(-5.0631908e-05 6.1886271e-05 3.6587645e-05)
(-0.00040997872 0.00011562863 5.4696082e-05)
(-0.00090902863 0.0001577424 7.1524339e-05)
(-0.0015177112 0.00018850392 8.5736298e-05)
(-0.0022068828 0.00020960838 9.6516811e-05)
(-0.0029505946 0.00022287583 0.00010340558)
(-0.0037264546 0.00022980985 0.0001061557)
(-0.004515037 0.0002314758 0.00010463991)
(-0.0052989963 0.00022850287 9.8795162e-05)
(-0.0060621727 0.00022114663 8.8596795e-05)
(-0.0067888401 0.00020938247 7.4055378e-05)
(-0.0074631887 0.00019301308 5.5229684e-05)
(-0.0080690871 0.00017177976 3.2249947e-05)
(-0.0085901376 0.00014547073 5.3460581e-06)
(-0.0090100165 0.00011402123 -2.5124132e-05)
(-0.0093130685 7.7601401e-05 -5.865077e-05)
(-0.0094851144 3.6688191e-05 -9.4556145e-05)
(-0.0095144142 -7.8852699e-06 -0.00013199053)
(-0.0093926961 -5.4923392e-05 -0.00016994268)
(-0.0091161916 -0.0001028438 -0.00020726616)
(-0.0086865726 -0.00014975025 -0.00024272326)
(-0.0081116664 -0.00019351198 -0.00027504434)
(-0.0074058747 -0.00023188378 -0.00030300062)
(-0.0065902031 -0.00026265651 -0.00032548559)
(-0.0056918382 -0.00028382375 -0.00034159903)
(-0.0047432458 -0.00029374886 -0.00035072647)
(-0.0037808073 -0.00029131597 -0.00035260652)
(-0.0028430611 -0.00027604915 -0.00034737937)
(-0.0019686585 -0.00024818423 -0.00033561205)
(-0.0011941527 -0.0002086879 -0.0003182998)
(-0.00055166797 -0.00015925639 -0.0002968468)
(-6.6500126e-05 -0.00010241419 -0.00027302206)
(0.00024492454 -4.1768731e-05 -0.00024888367)
(0.0003789286 1.7846254e-05 -0.00022681447)
(0.00034975754 6.7091296e-05 -0.00020925091)
(0.00020616224 8.9885329e-05 -0.00019886374)
(5.7456883e-05 5.7424775e-05 -0.00018441743)
(5.7978376e-05 -0.00016709255 -6.6651174e-06)
(4.0839316e-05 -3.9999093e-05 -4.1299872e-07)
(-0.00029500634 0.00024854447 1.1220331e-05)
(-0.0010110453 0.0005621115 2.5586184e-05)
(-0.0020992404 0.00084748808 4.0571016e-05)
(-0.0035140914 0.0010831138 5.4579048e-05)
(-0.005194681 0.0012642953 6.6482951e-05)
(-0.0070766157 0.0013940622 7.5530387e-05)
(-0.0090981269 0.0014779548 8.1239563e-05)
(-0.011202272 0.0015215207 8.3310868e-05)
(-0.013336991 0.0015292044 8.1561012e-05)
(-0.015454124 0.0015039692 7.5880026e-05)
(-0.017508087 0.0014473516 6.6209538e-05)
(-0.019454644 0.0013597732 5.2538761e-05)
(-0.021250076 0.001240998 3.4913804e-05)
(-0.022850887 0.0010906552 1.3455865e-05)
(-0.024214132 0.00090877199 -1.1616029e-05)
(-0.025298333 0.00069627327 -3.9961905e-05)
(-0.026064954 0.00045541323 -7.1101154e-05)
(-0.026480295 0.00019010766 -0.00010439968)
(-0.026517713 -9.3862276e-05 -0.00013906674)
(-0.02615989 -0.0003887713 -0.00017417081)
(-0.025401075 -0.00068508647 -0.0002086559)
(-0.024249081 -0.00097175572 -0.00024138941)
(-0.022726669 -0.0012366904 -0.00027121563)
(-0.020872278 -0.001467422 -0.00029702315)
(-0.018739855 -0.0016518952 -0.00031782009)
(-0.016397673 -0.0017793378 -0.00033281101)
(-0.013926091 -0.0018411362 -0.00034146871)
(-0.011414286 -0.0018316332 -0.00034359417)
(-0.0089560709 -0.0017487789 -0.0003393581)
(-0.0066449899 -0.0015945843 -0.00032931959)
(-0.0045689012 -0.0013753759 -0.0003144192)
(-0.0028042412 -0.0011019499 -0.00029594807)
(-0.0014100314 -0.00078992024 -0.00027549647)
(-0.00042162551 -0.00046060719 -0.00025487775)
(0.00015578872 -0.00014257889 -0.00023600655)
(0.00035672999 0.00012232062 -0.00022090175)
(0.00027523225 0.00027116299 -0.00021166544)
(9.0099061e-05 0.00020512009 -0.00019547856)
(1.9079806e-06 -0.00014898666 -2.0451578e-05)
(-0.00025607052 0.00029699142 -1.1834538e-05)
(-0.001050473 0.0010235998 6.3710768e-08)
(-0.0023878419 0.0017975181 1.3043668e-05)
(-0.0042394484 0.002509884 2.607974e-05)
(-0.0065455546 0.003110038 3.8031091e-05)
(-0.0092251025 0.0035809062 4.8070737e-05)
(-0.012189963 0.0039234139 5.5638007e-05)
(-0.015352938 0.0041461664 6.035123e-05)
(-0.018630989 0.0042595723 6.1953725e-05)
(-0.021945996 0.0042727966 6.0272589e-05)
(-0.025224157 0.0041924573 5.5190058e-05)
(-0.028394808 0.0040224525 4.6629828e-05)
(-0.031389263 0.0037645083 3.4556765e-05)
(-0.03414008 0.003419157 1.8986967e-05)
(-0.036580993 0.002986929 4.9274345e-09)
(-0.038647592 0.0024695977 -2.2215524e-05)
(-0.04027878 0.0018713533 -4.7389919e-05)
(-0.041418887 0.001199805 -7.5104708e-05)
(-0.042020335 0.00046672974 -0.00010480499)
(-0.042046603 -0.00031149609 -0.00013579294)
(-0.041475314 -0.001113803 -0.00016723344)
(-0.040301168 -0.0019148632 -0.0001981794)
(-0.038538417 -0.0026858465 -0.00022760766)
(-0.036222625 -0.0033956622 -0.00025446989)
(-0.033411466 -0.0040125922 -0.0002777554)
(-0.030184327 -0.0045062316 -0.0002965615)
(-0.026640563 -0.0048496146 -0.00031016563)
(-0.022896321 -0.005021361 -0.0003180923)
(-0.019079975 -0.0050076619 -0.00032016778)
(-0.015326291 -0.0048039379 -0.00031655632)
(-0.011769539 -0.0044160637 -0.00030777332)
(-0.0085358174 -0.0038611569 -0.00029467284)
(-0.005734885 -0.0031680871 -0.00027840948)
(-0.0034517246 -0.0023780916 -0.00026037824)
(-0.0017379959 -0.0015461782 -0.00024213415)
(-0.00060367824 -0.000744205 -0.00022528549)
(-8.018087e-06 -6.6389815e-05 -0.00021142404)
(0.00015540386 0.00036038424 -0.00020224012)
(7.3540705e-05 0.00035438663 -0.00018532403)
(-6.468917e-05 5.0413005e-05 -3.8703464e-05)
(-0.00060839226 0.0010457366 -2.6166473e-05)
(-0.0019305498 0.0023817076 -1.2185216e-05)
(-0.0039464434 0.0037564873 1.1075138e-06)
(-0.0065890098 0.0050152805 1.369563e-05)
(-0.0097791807 0.0060800278 2.4819766e-05)
(-0.013417091 0.0069204842 3.3942727e-05)
(-0.017395475 0.0075340743 4.0729238e-05)
(-0.021607665 0.007931357 4.4943339e-05)
(-0.025950606 0.0081270014 4.6413165e-05)
(-0.030325742 0.0081347306 4.5007927e-05)
(-0.034638672 0.0079649655 4.0621313e-05)
(-0.03879822 0.0076243407 3.316628e-05)
(-0.042715523 0.0071164766 2.2580572e-05)
(-0.046303575 0.0064435259 8.840516e-06)
(-0.04947748 0.0056081214 -8.0194083e-06)
(-0.052155527 0.0046154322 -2.7883905e-05)
(-0.054261083 0.0034751011 -5.0533925e-05)
(-0.055725207 0.0022028849 -7.5626415e-05)
(-0.056489808 0.00082185332 -0.00010268008)
(-0.05651111 -0.0006369618 -0.00013107029)
(-0.05576322 -0.002134582 -0.00016003205)
(-0.054241456 -0.0036247925 -0.00018868336)
(-0.051965121 -0.0050555904 -0.00021605724)
(-0.048979484 -0.0063713575 -0.00024115075)
(-0.045356647 -0.0075156817 -0.00026298629)
(-0.041195045 -0.0084346925 -0.00028068153)
(-0.036617408 -0.0090807149 -0.00029352185)
(-0.031767041 -0.0094159877 -0.00030102818)
(-0.026802445 -0.0094161564 -0.00030301186)
(-0.021890366 -0.0090732617 -0.00029960945)
(-0.017197528 -0.0083980118 -0.0002912926)
(-0.012881347 -0.0074212849 -0.00027885075)
(-0.0090800262 -0.0061950183 -0.00026334749)
(-0.005902478 -0.0047929183 -0.00024605274)
(-0.0034185156 -0.0033117951 -0.0002283575)
(-0.0016495476 -0.0018745205 -0.00021168769)
(-0.00055979454 -0.00063471894 -0.00019743385)
(-5.0104881e-05 0.00021498214 -0.00018683067)
(3.8095345e-05 0.00041383023 -0.00016802117)
(-0.00013086761 0.00044555407 -5.8219667e-05)
(-0.0009709544 0.0022426634 -4.1156481e-05)
(-0.0028462132 0.0043591462 -2.4274152e-05)
(-0.0055648046 0.0064571663 -9.8418971e-06)
(-0.0090094181 0.0083534223 3.0765624e-06)
(-0.013075418 0.0099513945 1.405645e-05)
(-0.017642213 0.011211687 2.2834833e-05)
(-0.022584589 0.012129521 2.9306927e-05)
(-0.027779515 0.012717461 3.3395555e-05)
(-0.033107969 0.012994083 3.5027865e-05)
(-0.038455325 0.012977305 3.4126549e-05)
(-0.043710933 0.012681157 3.0603186e-05)
(-0.048767301 0.012115076 2.4360903e-05)
(-0.053519391 0.011284939 1.5306211e-05)
(-0.05786444 0.010195217 3.3677982e-06)
(-0.061702518 0.0088517059 -1.1479832e-05)
(-0.064937941 0.0072644132 -2.919007e-05)
(-0.067481499 0.0054502752 -4.9617717e-05)
(-0.069253405 0.0034354298 -7.2495019e-05)
(-0.070186778 0.0012568487 -9.7413291e-05)
(-0.070231433 -0.0010368362 -0.00012381324)
(-0.069357732 -0.0033854514 -0.00015098649)
(-0.067560191 -0.0057183624 -0.00017809228)
(-0.064860544 -0.0079566423 -0.00020418903)
(-0.061309969 -0.010016248 -0.00022828209)
(-0.056990158 -0.011812127 -0.00024938542)
(-0.052012968 -0.013263076 -0.00026659312)
(-0.046518395 -0.014297084 -0.00027915504)
(-0.040670707 -0.014856833 -0.00028654855)
(-0.034652653 -0.01490494 -0.00028853745)
(-0.028657819 -0.014428546 -0.00028520935)
(-0.022881354 -0.013442907 -0.00027698504)
(-0.017509442 -0.011993781 -0.00026459766)
(-0.012708019 -0.010158698 -0.00024904332)
(-0.0086114367 -0.0080474955 -0.00023150587)
(-0.0053117483 -0.0058029517 -0.00021326741)
(-0.0028485337 -0.0036024608 -0.00019564333)
(-0.001200043 -0.0016605397 -0.0001798976)
(-0.00028880414 -0.00023379054 -0.00016675202)
(-2.4669427e-06 0.000350458 -0.00014551681)
(-0.00019286538 0.0010312954 -7.6699821e-05)
(-0.0013239855 0.0038925016 -5.4797993e-05)
(-0.0037518489 0.0069679495 -3.4593345e-05)
(-0.0071732782 0.009910755 -1.8499956e-05)
(-0.011414767 0.012527323 -4.7043209e-06)
(-0.01634142 0.014714422 6.6583399e-06)
(-0.02180953 0.016430415 1.5575072e-05)
(-0.02767576 0.017671928 2.2160513e-05)
(-0.033802248 0.018455156 2.6493142e-05)
(-0.040056668 0.018803122 2.8599679e-05)
(-0.046311627 0.018737989 2.8457369e-05)
(-0.052443821 0.018277323 2.5995262e-05)
(-0.05833309 0.017433358 2.110378e-05)
(-0.063861772 0.016214425 1.3652746e-05)
(-0.068914681 0.014627763 3.5156611e-06)
(-0.073379873 0.012683059 -9.4016131e-06)
(-0.077150271 0.010396172 -2.5129695e-05)
(-0.080126102 0.0077926129 -4.3604277e-05)
(-0.082218039 0.0049104362 -6.4637078e-05)
(-0.083350867 0.0018022891 -8.7892171e-05)
(-0.083467477 -0.0014635848 -0.00011287094)
(-0.082532927 -0.0048035408 -0.00013890946)
(-0.08053833 -0.0081199969 -0.00016519015)
(-0.07750428 -0.011304274 -0.00019077173)
(-0.073483479 -0.014240758 -0.00021463625)
(-0.068562279 -0.016812305 -0.00023575242)
(-0.062860781 -0.018906685 -0.00025315081)
(-0.056531204 -0.020423762 -0.00026600477)
(-0.049754242 -0.02128296 -0.00027370858)
(-0.04273325 -0.021430532 -0.00027594334)
(-0.035686236 -0.020846047 -0.00027272085)
(-0.028835831 -0.019547597 -0.00026439693)
(-0.022397656 -0.017595318 -0.00025165059)
(-0.016567724 -0.015093114 -0.0002354301)
(-0.011509831 -0.012188834 -0.00021686963)
(-0.0073438732 -0.0090736657 -0.00019719479)
(-0.0041345326 -0.0059816671 -0.00017768155)
(-0.0018816065 -0.0031890313 -0.00015956556)
(-0.00053619385 -0.0010143245 -0.00014317233)
(-4.124356e-05 0.00015894275 -0.00011907833)
(-0.00025011583 0.0017985574 -9.2186514e-05)
(-0.0016597674 0.0059841018 -6.5298423e-05)
(-0.00462444 0.010198554 -4.1612179e-05)
(-0.0087321357 0.014106938 -2.3557487e-05)
(-0.013751548 0.017522238 -8.519217e-06)
(-0.019514995 0.020347007 3.619652e-06)
(-0.02585403 0.022545806 1.3070873e-05)
(-0.032606861 0.02412188 2.0150514e-05)
(-0.039621699 0.025097985 2.508083e-05)
(-0.046754794 0.025503055 2.798011e-05)
(-0.053868549 0.025364109 2.8873978e-05)
(-0.060829964 0.024702423 2.7703185e-05)
(-0.067509328 0.023533068 2.433918e-05)
(-0.073779429 0.021866884 1.8607893e-05)
(-0.079515517 0.019714043 1.0319496e-05)
(-0.084596123 0.017088425 -6.9750517e-07)
(-0.088904735 0.014012185 -1.4559557e-05)
(-0.092332301 0.010519978 -3.1290834e-05)
(-0.094780416 0.0066624697 -5.0788098e-05)
(-0.096165063 0.0025088154 -7.2790724e-05)
(-0.096420724 -0.0018521142 -9.6859398e-05)
(-0.095504646 -0.0063119411 -0.00012236806)
(-0.093401065 -0.010744518 -0.0001485101)
(-0.090125129 -0.015009336 -0.00017432567)
(-0.085726174 -0.018956571 -0.00019874753)
(-0.080290038 -0.022433715 -0.00022066642)
(-0.073940014 -0.025293627 -0.00023901133)
(-0.06683601 -0.027403639 -0.00025283788)
(-0.059171556 -0.028655245 -0.0002614156)
(-0.051168333 -0.028973703 -0.00026430378)
(-0.043068096 -0.028326826 -0.00026140503)
(-0.035122077 -0.026732194 -0.0002529873)
(-0.02757826 -0.024262159 -0.00023966819)
(-0.020667301 -0.021046227 -0.00022236064)
(-0.014588317 -0.017270844 -0.00020218197)
(-0.009495789 -0.0131772 -0.00018035228)
(-0.0054864713 -0.009057922 -0.00015817616)
(-0.0025879512 -0.0052522127 -0.00013694479)
(-0.00078447273 -0.0021405334 -0.0001166619)
(-7.6874714e-05 -0.00016054132 -8.945496e-05)
(-0.00030295471 0.0027365127 -0.0001030101)
(-0.0019754903 0.0084980546 -7.1041315e-05)
(-0.0054521182 0.014028501 -4.3893593e-05)
(-0.010217928 0.01902129 -2.3749061e-05)
(-0.01598511 0.023310976 -7.25391e-06)
(-0.022552696 0.026818062 5.9349664e-06)
(-0.029727048 0.029522286 1.6232125e-05)
(-0.037328034 0.031439627 2.4135396e-05)
(-0.045190775 0.032603251 2.999486e-05)
(-0.053161644 0.033050222 3.4007453e-05)
(-0.061094964 0.032813546 3.623632e-05)
(-0.068850541 0.031918685 3.6624321e-05)
(-0.07629179 0.030383655 3.5014934e-05)
(-0.083284611 0.028221744 3.1181262e-05)
(-0.089697148 0.025445919 2.486094e-05)
(-0.095400469 0.02207409 1.5795529e-05)
(-0.10027014 0.01813451 3.7729281e-06)
(-0.10418859 0.013670766 -1.1329167e-05)
(-0.10704827 0.0087459168 -2.9501341e-05)
(-0.10875528 0.003445459 -5.0565249e-05)
(-0.10923361 -0.0021211262 -7.4144974e-05)
(-0.10842956 -0.0078204551 -9.9652634e-05)
(-0.10631642 -0.013497059 -0.00012628746)
(-0.10289906 -0.018977172 -0.00015305955)
(-0.098218058 -0.024074476 -0.00017883321)
(-0.092353215 -0.028597823 -0.00020239338)
(-0.085425722 -0.032360835 -0.00022253122)
(-0.077598625 -0.035193037 -0.0002381416)
(-0.069074935 -0.036951996 -0.00024832282)
(-0.060092927 -0.037535689 -0.00025246629)
(-0.050918308 -0.036894114 -0.00025032405)
(-0.041833217 -0.035039098 -0.00024204367)
(-0.033122375 -0.032051282 -0.00022816309)
(-0.02505723 -0.028083557 -0.00020956164)
(-0.01787961 -0.023360602 -0.0001873649)
(-0.011786452 -0.018174947 -0.00016283497)
(-0.0069140459 -0.012880375 -0.00013737103)
(-0.0033238274 -0.0078822554 -0.00011239946)
(-0.0010368628 -0.0036261473 -8.7692027e-05)
(-0.00011093668 -0.00060702072 -5.725063e-05)
(-0.00035169153 0.0038338005 -0.00010770697)
(-0.0022696749 0.011410299 -7.0552557e-05)
(-0.0062274494 0.018427202 -4.0074733e-05)
(-0.011614694 0.024619828 -1.7824379e-05)
(-0.018090231 0.029857407 2.3944557e-07)
(-0.025420901 0.034089705 1.4668655e-05)
(-0.033388557 0.037320527 2.6062769e-05)
(-0.041795473 0.039585053 3.5082589e-05)
(-0.050464729 0.040931244 4.2189125e-05)
(-0.059234311 0.041407042 4.7643164e-05)
(-0.067952357 0.041052994 5.1532368e-05)
(-0.076473686 0.039899486 5.3790126e-05)
(-0.084657209 0.037967675 5.4221294e-05)
(-0.092364296 0.035273122 5.2535877e-05)
(-0.099458148 0.031831162 4.8388554e-05)
(-0.10580416 0.027663081 4.1422958e-05)
(-0.11127121 0.022802389 3.1319529e-05)
(-0.11573374 0.017300585 1.7845201e-05)
(-0.11907468 0.011231973 9.0244357e-07)
(-0.12118893 0.0046972122 -1.9425443e-05)
(-0.1219876 -0.0021746627 -4.2837032e-05)
(-0.12140265 -0.0092259905 -6.879098e-05)
(-0.11939202 -0.016272086 -9.6495232e-05)
(-0.11594505 -0.023105151 -0.00012492622)
(-0.11108782 -0.029500418 -0.00015286731)
(-0.10488803 -0.035224761 -0.00017897483)
(-0.097458964 -0.040047725 -0.00020186774)
(-0.088961714 -0.043754731 -0.00022023483)
(-0.079604981 -0.046161922 -0.00023294952)
(-0.069641662 -0.047131763 -0.00023917855)
(-0.05936168 -0.04658817 -0.00023846967)
(-0.049080798 -0.044529707 -0.00023080532)
(-0.039125623 -0.041039362 -0.00021661354)
(-0.029815646 -0.036289649 -0.00019672985)
(-0.021444082 -0.030542288 -0.00017230289)
(-0.014259476 -0.024142567 -0.00014467773)
(-0.0084461002 -0.017509156 -0.00011541204)
(-0.0041057418 -0.011119086 -8.6146178e-05)
(-0.0013000752 -0.0054896898 -5.6486766e-05)
(-0.00014466077 -0.0011817412 -2.2533001e-05)
(-0.00039639072 0.0050786483 -0.00010495792)
(-0.0025407927 0.014693411 -6.2479524e-05)
(-0.0069441796 0.023357858 -2.8873497e-05)
(-0.012909185 0.030860652 -4.572038e-06)
(-0.020045561 0.037117163 1.510758e-05)
(-0.028090177 0.042116698 3.0914655e-05)
(-0.036801981 0.045895562 4.361937e-05)
(-0.045966988 0.048514584 5.402856e-05)
(-0.055397585 0.050041125 6.2698093e-05)
(-0.064924913 0.050537071 6.9937971e-05)
(-0.074392733 0.050052369 7.5847165e-05)
(-0.083652917 0.048623273 8.033764e-05)
(-0.092562043 0.046274339 8.3164498e-05)
(-0.10097912 0.043023143 8.3963696e-05)
(-0.1087644 0.038886675 8.2295513e-05)
(-0.11577929 0.033888503 7.7693055e-05)
(-0.12188713 0.028065924 6.9715034e-05)
(-0.12695488 0.021476546 5.8001376e-05)
(-0.1308556 0.014203863 4.2329448e-05)
(-0.13347175 0.0063615117 2.2668152e-05)
(-0.13469925 -0.0019040255 -7.7475301e-07)
(-0.13445232 -0.01041256 -2.7523732e-05)
(-0.13266911 -0.018951251 -5.6806855e-05)
(-0.12931809 -0.027278246 -8.7572748e-05)
(-0.12440465 -0.035128847 -0.00011851924)
(-0.11797786 -0.042224675 -0.00014815662)
(-0.11013648 -0.048285934 -0.00017489965)
(-0.10103361 -0.053046665 -0.00019718381)
(-0.090878773 -0.056272518 -0.00021359673)
(-0.079936503 -0.057780107 -0.00022301069)
(-0.068520419 -0.05745647 -0.00022469838)
(-0.056982262 -0.055276713 -0.00021841456)
(-0.045695817 -0.051317722 -0.00020443096)
(-0.035036546 -0.045765954 -0.00018351521)
(-0.025358895 -0.038917941 -0.00015684182)
(-0.016973656 -0.031173231 -0.00012587093)
(-0.010123104 -0.02302043 -9.2379335e-05)
(-0.0049572901 -0.015016257 -5.8300669e-05)
(-0.0015839053 -0.0077601604 -2.3128693e-05)
(-0.00018000333 -0.0018919983 1.4737933e-05)
(-0.00043687116 0.0064585356 -9.3560528e-05)
(-0.0027868386 0.018316809 -4.5583387e-05)
(-0.0075958628 0.028778178 -9.0992154e-06)
(-0.014088572 0.037694721 1.7154549e-05)
(-0.021830702 0.04503799 3.8458227e-05)
(-0.030532123 0.050846028 5.5750398e-05)
(-0.03993113 0.055195431 6.9960233e-05)
(-0.049799278 0.058178848 8.2025742e-05)
(-0.059939859 0.05988765 9.2583306e-05)
(-0.070178799 0.06040088 0.00010197893)
(-0.080357261 0.059779935 0.00011031082)
(-0.09032611 0.058068035 0.00011745849)
(-0.099941648 0.055293464 0.00012311674)
(-0.10906259 0.051475472 0.00012683672)
(-0.11754823 0.046631784 0.00012807237)
(-0.12525766 0.040786753 0.00012623226)
(-0.13204998 0.033979445 0.00012073653)
(-0.13778536 0.026271064 0.0001110779)
(-0.142327 0.017751377 9.6884999e-05)
(-0.14554398 0.0085438388 7.7985656e-05)
(-0.14731518 -0.0011907882 5.4465838e-05)
(-0.14753409 -0.011252523 2.6703284e-05)
(-0.14611493 -0.021402605 -4.5716051e-06)
(-0.14300002 -0.031366051 -3.8297977e-05)
(-0.13816779 -0.040837476 -7.3094127e-05)
(-0.13164153 -0.049490358 -0.00010731448)
(-0.12349801 -0.056990168 -0.00013914129)
(-0.11387495 -0.063011531 -0.00016670838)
(-0.10297622 -0.067259069 -0.00018824987)
(-0.091073229 -0.069491017 -0.00020226031)
(-0.078501143 -0.069543932 -0.00020764658)
(-0.065648789 -0.067356095 -0.0002038492)
(-0.052941858 -0.062986696 -0.00019091366)
(-0.040819936 -0.056627831 -0.00016949597)
(-0.029709572 -0.048607019 -0.0001407843)
(-0.019996159 -0.039379297 -0.00010637542)
(-0.011992139 -0.029509425 -6.8321536e-05)
(-0.0059060105 -0.019644304 -2.8930383e-05)
(-0.0018995889 -0.010479275 1.2378241e-05)
(-0.00021910935 -0.0027504872 5.4718248e-05)
(-0.0004727582 0.0079598113 -7.2424049e-05)
(-0.003005292 0.022246551 -1.8742443e-05)
(-0.0081754425 0.034640534 2.0334281e-05)
(-0.015139566 0.045066161 4.8414708e-05)
(-0.023424962 0.053559897 7.1329666e-05)
(-0.032717936 0.060216607 9.0200154e-05)
(-0.042738782 0.065160201 0.00010610433)
(-0.053246682 0.068520904 0.00012009845)
(-0.064037595 0.070418553 0.00013288723)
(-0.074933911 0.070952598 0.00014484172)
(-0.085775941 0.07019805 0.00015604945)
(-0.096415418 0.068206323 0.00016634831)
(-0.10671036 0.065009821 0.00017536387)
(-0.11652126 0.060629115 0.00018255272)
(-0.12570845 0.055081583 0.00018725087)
(-0.13413058 0.048390593 0.00018872765)
(-0.14164408 0.040594512 0.00018624564)
(-0.14810347 0.031755038 0.00017912637)
(-0.15336264 0.021964554 0.00016682036)
(-0.1572771 0.011352285 0.00014897848)
(-0.15970747 8.9087546e-05 0.0001255212)
(-0.16052437 -0.011609317 9.6709368e-05)
(-0.15961476 -0.023481524 6.317205e-05)
(-0.1568899 -0.035221578 2.5951802e-05)
(-0.15229508 -0.046483781 -1.3509242e-05)
(-0.14582036 -0.056891423 -5.3411722e-05)
(-0.13751206 -0.066050242 -9.1684298e-05)
(-0.12748365 -0.073567113 -0.000126112)
(-0.11592479 -0.079073935 -0.00015450192)
(-0.10310656 -0.082255924 -0.00017487401)
(-0.089380958 -0.08288254 -0.00018565674)
(-0.075172824 -0.080838169 -0.00018586098)
(-0.060963003 -0.076148751 -0.00017520418)
(-0.047262958 -0.069000136 -0.00015415802)
(-0.034582991 -0.059744428 -0.00012389026)
(-0.023397328 -0.048892366 -8.6142059e-05)
(-0.014103405 -0.037091798 -4.3292586e-05)
(-0.0069814151 -0.025092559 1.89264e-06)
(-0.002259001 -0.013702916 5.0039997e-05)
(-0.00026414542 -0.0037760326 9.7598352e-05)
(-0.00050354834 0.0095673919 -4.0578768e-05)
(-0.0031932604 0.026445053 1.9035635e-05)
(-0.0086753643 0.040891893 6.0391247e-05)
(-0.016048421 0.052912323 9.0156656e-05)
(-0.024807252 0.062615111 0.00011466043)
(-0.034618263 0.070158884 0.00013519888)
(-0.045186594 0.075721047 0.00015298999)
(-0.056261258 0.079474637 0.00016919698)
(-0.067632683 0.081572179 0.0001845832)
(-0.079121382 0.082136732 0.00019953654)
(-0.0905685 0.081259171 0.00021412685)
(-0.10182845 0.079000448 0.00022814404)
(-0.11276291 0.075397594 0.00024113791)
(-0.12323622 0.070472185 0.00025246279)
(-0.13311189 0.064240135 0.00026132639)
(-0.14225026 0.056721893 0.00026684437)
(-0.15050707 0.047952381 0.00026810174)
(-0.15773293 0.037990259 0.00026422196)
(-0.16377374 0.02692628 0.00025444296)
(-0.16847223 0.014890633 0.00023819748)
(-0.17167077 0.0020591116 0.00021519528)
(-0.17321607 -0.011342124 0.00018551245)
(-0.17296541 -0.025033581 0.00014963704)
(-0.1707952 -0.038682014 0.00010853999)
(-0.16661195 -0.051903347 6.3684068e-05)
(-0.16036504 -0.064270077 1.7002608e-05)
(-0.15206113 -0.07532428 -2.9172149e-05)
(-0.14177899 -0.084597174 -7.223601e-05)
(-0.12968312 -0.09163568 -0.00010949304)
(-0.11603403 -0.096035582 -0.00013837904)
(-0.10119246 -0.097479545 -0.00015670825)
(-0.08561484 -0.095776779 -0.00016291338)
(-0.069837854 -0.090899537 -0.00015624225)
(-0.054451275 -0.083010663 -0.00013686939)
(-0.040061077 -0.072476521 -0.00010587513)
(-0.027246411 -0.059861538 -6.5131887e-05)
(-0.016507658 -0.045903491 -1.7390541e-05)
(-0.0082137481 -0.031469787 3.4036984e-05)
(-0.0026743136 -0.017501801 8.9802637e-05)
(-0.0003172954 -0.0049938444 0.00014352176)
(-0.00052867821 0.011264589 2.8055532e-06)
(-0.0033477234 0.030870946 6.8595361e-05)
(-0.0090880118 0.047473813 0.00011189321)
(-0.016801512 0.061163843 0.00014319207)
(-0.025956776 0.072128047 0.00016925823)
(-0.036204027 0.080594526 0.00019155505)
(-0.047236096 0.086799457 0.00021143155)
(-0.058794002 0.090963352 0.00023014813)
(-0.070664371 0.093275352 0.00024851957)
(-0.082667395 0.093885265 0.00026694565)
(-0.094646632 0.09290214 0.00028547506)
(-0.10646087 0.090397961 0.00030384691)
(-0.11797739 0.086415051 0.00032153207)
(-0.12906643 0.080975815 0.00033777776)
(-0.13959699 0.074093668 0.0003516554)
(-0.14943351 0.065784216 0.00036211399)
(-0.15843352 0.0560761 0.00036804131)
(-0.16644617 0.045021187 0.00036833462)
(-0.1733117 0.032703978 0.00036198125)
(-0.17886199 0.019250214 0.00034814806)
(-0.18292264 0.0048346204 0.00032627749)
(-0.18531685 -0.010312431 0.00029618918)
(-0.18587147 -0.025899613 0.00025816483)
(-0.18442568 -0.041571827 0.00021303277)
(-0.18084267 -0.056910559 0.00016221471)
(-0.1750242 -0.071439019 0.0001077346)
(-0.16692783 -0.084633628 5.2171064e-05)
(-0.15658586 -0.09594341 -1.4577723e-06)
(-0.14412424 -0.10481843 -4.9882151e-05)
(-0.12977915 -0.11074755 -8.9835799e-05)
(-0.11390771 -0.11330413 -0.00011836)
(-0.096989116 -0.11219634 -0.000133124)
(-0.079612617 -0.1073164 -0.00013271676)
(-0.06245012 -0.098781024 -0.00011685061)
(-0.046214562 -0.086954733 -8.6404222e-05)
(-0.031607664 -0.072449699 -4.3335219e-05)
(-0.019254101 -0.056099109 9.2017946e-06)
(-0.0096331118 -0.038903826 6.7254371e-05)
(-0.0031578207 -0.0219616 0.00013148193)
(-0.00038078419 -0.0064355776 0.00019251021)
(-0.00054759696 0.013033101 5.8396365e-05)
(-0.0034658433 0.035479195 0.00013061189)
(-0.0094063578 0.054322702 0.00017549682)
(-0.017386324 0.069744949 0.0002081706)
(-0.026854326 0.082015502 0.00023576942)
(-0.037448004 0.091436327 0.00025991387)
(-0.048850584 0.0983067 0.00028207543)
(-0.060797092 0.10289867 0.00030360352)
(-0.073071906 0.10544162 0.00032535984)
(-0.085496281 0.10611517 0.00034775468)
(-0.0979176 0.10504893 0.00037081603)
(-0.11020062 0.1023276 0.00039423359)
(-0.12222001 0.097999674 0.00041740032)
(-0.13385408 0.092088474 0.0004394554)
(-0.14497969 0.084604104 0.00045932943)
(-0.1554681 0.075555594 0.00047579467)
(-0.16518165 0.064962597 0.00048752401)
(-0.17397125 0.052866472 0.00049316112)
(-0.18167479 0.039340725 0.00049140386)
(-0.18811665 0.02450092 0.00048110113)
(-0.19310861 0.0085140986 0.00046136219)
(-0.19645277 -0.0083924182 0.00043167568)
(-0.1979468 -0.025923163 0.00039202702)
(-0.19739217 -0.043708611 0.00034301153)
(-0.19460603 -0.061302214 0.00028592291)
(-0.18943686 -0.078182216 0.000222803)
(-0.18178411 -0.093760292 0.000156432)
(-0.17162109 -0.10739931 9.0239733e-05)
(-0.15901972 -0.11844224 2.8123128e-05)
(-0.14417448 -0.12625361 -2.5833364e-05)
(-0.12742161 -0.13027284 -6.7721456e-05)
(-0.10924855 -0.13007668 -9.4223665e-05)
(-0.090288333 -0.12544419 -0.00010302561)
(-0.071294541 -0.11641461 -9.3147178e-05)
(-0.053096309 -0.10332654 -6.5086819e-05)
(-0.036536348 -0.086827627 -2.079134e-05)
(-0.022388386 -0.067848733 3.6173151e-05)
(-0.011268734 -0.047540306 0.0001011171)
(-0.0037218332 -0.027182654 0.00017468785)
(-0.00045691012 -0.0081393622 0.00024438612)
(-0.00055984247 0.014853188 0.0001266739)
(-0.0035453243 0.040221578 0.00020556963)
(-0.0096247724 0.061370482 0.00025167301)
(-0.017792737 0.078574156 0.00028555643)
(-0.027484026 0.092187214 0.0003146508)
(-0.038327021 0.10258848 0.00034072256)
(-0.049997752 0.11014369 0.00036535755)
(-0.062226987 0.11517987 0.0003899879)
(-0.074798156 0.11796999 0.00041552098)
(-0.087534733 0.11872647 0.00044238004)
(-0.10028915 0.11760201 0.00047057725)
(-0.11293354 0.1146959 0.0004997589)
(-0.12535168 0.11006403 0.00052924582)
(-0.13743203 0.10373105 0.00055807308)
(-0.14906185 0.095703314 0.00058503055)
(-0.16012218 0.085981939 0.0006087081)
(-0.17048362 0.074575248 0.0006275499)
(-0.18000278 0.061510682 0.00063992187)
(-0.18851957 0.046846213 0.00064419533)
(-0.1958555 0.030681496 0.00063884914)
(-0.20181327 0.013168958 0.00062259044)
(-0.20617829 -0.0054751905 0.00059449242)
(-0.20872264 -0.024960308 0.00055414259)
(-0.20921218 -0.04491189 0.00050179179)
(-0.20741772 -0.064864534 0.00043849082)
(-0.20313097 -0.084259284 0.00036619254)
(-0.19618566 -0.10244789 0.00028779522)
(-0.18648391 -0.118707 0.00020709888)
(-0.17402676 -0.13226557 0.00012864791)
(-0.15894635 -0.14234806 5.7442878e-05)
(-0.14153555 -0.14823462 -1.4766741e-06)
(-0.12226887 -0.1493362 -4.3550278e-05)
(-0.10180708 -0.14527826 -6.5256252e-05)
(-0.080978548 -0.13598142 -6.4612979e-05)
(-0.06073377 -0.12172338 -4.1475837e-05)
(-0.04207422 -0.10316562 2.387511e-06)
(-0.025950419 -0.081333026 6.3034164e-05)
(-0.013148211 -0.05754039 0.00013494713)
(-0.0043785864 -0.033279321 0.00021873924)
(-0.00054808164 -0.010149817 0.00029868583)
(-0.00056512059 0.016704054 0.000207909)
(-0.0035848096 0.045047599 0.00029374433)
(-0.0097399501 0.06854578 0.00034069024)
(-0.018014537 0.0875655 0.00037560939)
(-0.027835425 0.10254696 0.00040614618)
(-0.038824603 0.11394739 0.00043420014)
(-0.050652906 0.12220135 0.00046146443)
(-0.063048224 0.12769377 0.00048945035)
(-0.075794048 0.13074426 0.00051911334)
(-0.088716983 0.13160104 0.00055089655)
(-0.10167551 0.13044254 0.00058480597)
(-0.1145504 0.12738481 0.00062045549)
(-0.12723612 0.12249272 0.00065710467)
(-0.13963331 0.11579306 0.0006936937)
(-0.15164215 0.10728858 0.00072887746)
(-0.16315662 0.096971659 0.00076106346)
(-0.17405937 0.084837555 0.00078845919)
(-0.18421723 0.070896975 0.00080913422)
(-0.19347737 0.055188331 0.00082110145)
(-0.2016643 0.037790007 0.0008224215)
(-0.20857801 0.018832966 0.00081133228)
(-0.21399373 -0.0014861289 0.00078640388)
(-0.21766406 -0.022891439 0.00074671663)
(-0.21932421 -0.045014753 0.00069204848)
(-0.21870156 -0.067383822 0.00062306601)
(-0.21553058 -0.08941413 0.00054148969)
(-0.20957436 -0.1104071 0.00045020661)
(-0.20065324 -0.12955849 0.00035329398)
(-0.18868047 -0.1459814 0.00025591311)
(-0.17370296 -0.15874849 0.00016403885)
(-0.15594285 -0.16695662 8.4007233e-05)
(-0.13583316 -0.16981411 2.1895743e-05)
(-0.11403747 -0.16674532 -1.720648e-05)
(-0.091443131 -0.15749971 -2.9918226e-05)
(-0.069120343 -0.14224527 -1.5082399e-05)
(-0.048244239 -0.12162228 2.5981393e-05)
(-0.02997174 -0.096736328 8.9057012e-05)
(-0.015296588 -0.069077398 0.00016773241)
(-0.0051401156 -0.040378891 0.00026256362)
(-0.00065685333 -0.01251804 0.00035455792)
(-0.00056338643 0.018564448 0.00030214647)
(-0.0035843077 0.049905869 0.00039519198)
(-0.0097519313 0.075775707 0.00044260527)
(-0.018051113 0.096630402 0.00047837382)
(-0.027905861 0.11299425 0.00051027042)
(-0.038933992 0.12540304 0.00054031441)
(-0.050802617 0.13436164 0.00057030123)
(-0.063237729 0.1403153 0.00060182159)
(-0.076023598 0.14363318 0.00063588623)
(-0.088990653 0.14460226 0.00067297024)
(-0.10200426 0.14342958 0.00071308832)
(-0.11495492 0.14025044 0.00075583808)
(-0.12774927 0.1351406 0.00080043397)
(-0.14030202 0.12813044 0.00084573596)
(-0.15252883 0.11921973 0.0008902755)
(-0.16433975 0.10839206 0.00093228434)
(-0.17563349 0.095628649 0.00096973268)