/*--------------------------------*- C++ -*----------------------------------*\
  =========                 |
  \\      /  F ield         | OpenFOAM: The Open Source CFD Toolbox
   \\    /   O peration     | Website:  https://openfoam.org
    \\  /    A nd           | Version:  7
     \\/     M anipulation  |
\*---------------------------------------------------------------------------*/
FoamFile
{
    version     2.0;
    format      ascii;
    class       volVectorField;
    location    "25";
    object      U_0;
}
// * * * * * * * * * * * * * * * * * * * * * * * * * * * * * * * * * * * * * //

dimensions      [0 1 -1 0 0 0 0];

internalField   nonuniform List<vector> 
16000
(
(6.6000113e-05 -6.7376286e-05 -4.3188562e-07)
(0.00016268841 -5.6379302e-05 5.6658874e-06)
(0.00014189273 4.5328395e-07 1.9165279e-05)
(-5.0631868e-05 6.1886277e-05 3.6587645e-05)
(-0.00040997868 0.00011562868 5.4696082e-05)
(-0.00090902851 0.00015774243 7.1524339e-05)
(-0.001517711 0.0001885039 8.5736298e-05)
(-0.0022068826 0.00020960833 9.6516811e-05)
(-0.0029505945 0.00022287582 0.00010340558)
(-0.0037264546 0.00022980991 0.0001061557)
(-0.0045150369 0.00023147587 0.00010463991)
(-0.0052989962 0.00022850289 9.8795162e-05)
(-0.0060621725 0.00022114657 8.8596795e-05)
(-0.00678884 0.00020938237 7.4055378e-05)
(-0.0074631887 0.00019301301 5.5229684e-05)
(-0.008069087 0.00017177977 3.2249947e-05)
(-0.0085901375 0.00014547081 5.3460581e-06)
(-0.0090100163 0.00011402131 -2.5124132e-05)
(-0.0093130682 7.7601373e-05 -5.865077e-05)
(-0.009485114 3.6688026e-05 -9.4556145e-05)
(-0.0095144139 -7.8854662e-06 -0.00013199053)
(-0.0093926959 -5.4923428e-05 -0.00016994268)
(-0.0091161916 -0.00010284356 -0.00020726616)
(-0.0086865726 -0.00014974986 -0.00024272326)
(-0.0081116662 -0.00019351178 -0.00027504434)
(-0.0074058742 -0.00023188408 -0.00030300062)
(-0.0065902027 -0.00026265719 -0.00032548559)
(-0.0056918383 -0.0002838242 -0.00034159903)
(-0.0047432465 -0.00029374844 -0.00035072647)
(-0.0037808082 -0.00029131482 -0.00035260652)
(-0.0028430612 -0.0002760484 -0.00034737937)
(-0.0019686573 -0.00024818501 -0.00033561205)
(-0.0011941511 -0.00020868985 -0.0003182998)
(-0.000551668 -0.00015925745 -0.00029684681)
(-6.6502248e-05 -0.00010241265 -0.00027302206)
(0.0002449224 -4.1765756e-05 -0.00024888367)
(0.00037892973 1.7846926e-05 -0.00022681447)
(0.00034976256 6.7087031e-05 -0.00020925091)
(0.00020616805 8.9878434e-05 -0.00019886374)
(5.74593e-05 5.7421192e-05 -0.00018441743)
(5.7978351e-05 -0.00016709258 -6.6651174e-06)
(4.0839314e-05 -3.9999146e-05 -4.1299872e-07)
(-0.00029500624 0.00024854439 1.1220331e-05)
(-0.0010110452 0.00056211146 2.5586184e-05)
(-0.0020992403 0.00084748815 4.0571016e-05)
(-0.0035140912 0.0010831139 5.4579048e-05)
(-0.0051946807 0.0012642953 6.6482951e-05)
(-0.0070766153 0.0013940621 7.5530387e-05)
(-0.0090981265 0.0014779547 8.1239563e-05)
(-0.011202272 0.0015215207 8.3310868e-05)
(-0.013336991 0.0015292044 8.1561012e-05)
(-0.015454124 0.0015039692 7.5880026e-05)
(-0.017508087 0.0014473515 6.6209538e-05)
(-0.019454644 0.001359773 5.2538761e-05)
(-0.021250075 0.0012409978 3.4913804e-05)
(-0.022850887 0.001090655 1.3455865e-05)
(-0.024214131 0.00090877199 -1.1616029e-05)
(-0.025298333 0.00069627341 -3.9961905e-05)
(-0.026064954 0.00045541334 -7.1101154e-05)
(-0.026480294 0.00019010759 -0.00010439968)
(-0.026517713 -9.3862548e-05 -0.00013906674)
(-0.026159889 -0.00038877157 -0.00017417081)
(-0.025401075 -0.00068508641 -0.0002086559)
(-0.02424908 -0.00097175518 -0.00024138941)
(-0.022726669 -0.0012366897 -0.00027121563)
(-0.020872278 -0.0014674218 -0.00029702315)
(-0.018739854 -0.0016518959 -0.00031782009)
(-0.016397672 -0.001779339 -0.00033281101)
(-0.01392609 -0.0018411367 -0.00034146871)
(-0.011414286 -0.001831632 -0.00034359417)
(-0.0089560728 -0.0017487768 -0.0003393581)
(-0.0066449909 -0.0015945837 -0.00032931959)
(-0.0045688994 -0.0013753781 -0.0003144192)
(-0.0028042378 -0.0011019532 -0.00029594807)
(-0.0014100302 -0.00078992061 -0.00027549647)
(-0.00042162899 -0.00046060283 -0.00025487775)
(0.00015578324 -0.00014257374 -0.00023600655)
(0.0003567292 0.00012231985 -0.00022090175)
(0.0002752394 0.00027115537 -0.00021166544)
(9.0104321e-05 0.00020511397 -0.00019547856)
(1.9079593e-06 -0.00014898667 -2.0451578e-05)
(-0.00025607055 0.00029699145 -1.1834538e-05)
(-0.001050473 0.0010235998 6.3710768e-08)
(-0.0023878417 0.001797518 1.3043668e-05)
(-0.0042394482 0.002509884 2.607974e-05)
(-0.0065455543 0.003110038 3.8031091e-05)
(-0.0092251022 0.0035809063 4.8070737e-05)
(-0.012189963 0.0039234139 5.5638007e-05)
(-0.015352937 0.0041461663 6.035123e-05)
(-0.018630988 0.0042595722 6.1953725e-05)
(-0.021945995 0.0042727964 6.0272589e-05)
(-0.025224157 0.0041924572 5.5190058e-05)
(-0.028394808 0.0040224524 4.6629828e-05)
(-0.031389262 0.0037645082 3.4556765e-05)
(-0.03414008 0.0034191568 1.8986967e-05)
(-0.036580992 0.0029869287 4.9274345e-09)
(-0.038647592 0.0024695974 -2.2215524e-05)
(-0.040278779 0.0018713531 -4.7389919e-05)
(-0.041418886 0.0011998051 -7.5104708e-05)
(-0.042020334 0.00046673004 -0.00010480499)
(-0.042046602 -0.00031149591 -0.00013579294)
(-0.041475312 -0.0011138031 -0.00016723344)
(-0.040301167 -0.0019148636 -0.0001981794)
(-0.038538416 -0.0026858468 -0.00022760766)
(-0.036222624 -0.0033956618 -0.00025446989)
(-0.033411466 -0.0040125911 -0.0002777554)
(-0.030184328 -0.0045062307 -0.0002965615)
(-0.026640563 -0.0048496149 -0.00031016563)
(-0.022896319 -0.0050213626 -0.0003180923)
(-0.019079973 -0.0050076633 -0.00032016778)
(-0.015326292 -0.0048039372 -0.00031655632)
(-0.011769542 -0.0044160609 -0.00030777332)
(-0.0085358192 -0.0038611549 -0.00029467284)
(-0.0057348833 -0.0031680889 -0.00027840948)
(-0.0034517199 -0.0023780963 -0.00026037824)
(-0.0017379929 -0.0015461806 -0.00024213415)
(-0.00060368123 -0.00074420134 -0.00022528549)
(-8.0236413e-06 -6.6383432e-05 -0.00021142404)
(0.00015540417 0.00036038626 -0.00020224012)
(7.354328e-05 0.00035438381 -0.00018532403)
(-6.4689146e-05 5.0412973e-05 -3.8703464e-05)
(-0.00060839225 0.0010457367 -2.6166473e-05)
(-0.0019305498 0.0023817077 -1.2185216e-05)
(-0.0039464433 0.0037564873 1.1075138e-06)
(-0.0065890095 0.0050152804 1.369563e-05)
(-0.0097791803 0.0060800277 2.4819766e-05)
(-0.013417091 0.0069204842 3.3942727e-05)
(-0.017395475 0.0075340743 4.0729238e-05)
(-0.021607665 0.0079313569 4.4943339e-05)
(-0.025950605 0.0081270012 4.6413165e-05)
(-0.030325741 0.0081347303 4.5007927e-05)
(-0.034638671 0.0079649652 4.0621313e-05)
(-0.038798219 0.0076243405 3.316628e-05)
(-0.042715522 0.0071164764 2.2580572e-05)
(-0.046303574 0.0064435258 8.840516e-06)
(-0.049477479 0.0056081213 -8.0194083e-06)
(-0.052155526 0.0046154319 -2.7883905e-05)
(-0.054261082 0.0034751007 -5.0533925e-05)
(-0.055725206 0.0022028847 -7.5626415e-05)
(-0.056489807 0.00082185344 -0.00010268008)
(-0.056511109 -0.00063696135 -0.00013107029)
(-0.055763219 -0.0021345815 -0.00016003205)
(-0.054241455 -0.0036247925 -0.00018868336)
(-0.051965119 -0.005055591 -0.00021605724)
(-0.048979483 -0.0063713581 -0.00024115075)
(-0.045356646 -0.0075156815 -0.00026298629)
(-0.041195046 -0.0084346911 -0.00028068153)
(-0.036617409 -0.0090807133 -0.00029352185)
(-0.031767042 -0.0094159874 -0.00030102818)
(-0.026802443 -0.0094161583 -0.00030301186)
(-0.021890364 -0.009073264 -0.00029960945)
(-0.017197528 -0.0083980117 -0.0002912926)
(-0.01288135 -0.0074212815 -0.00027885075)
(-0.0090800294 -0.0061950149 -0.00026334749)
(-0.0059024772 -0.0047929193 -0.00024605274)
(-0.0034185107 -0.0033118003 -0.0002283575)
(-0.0016495442 -0.0018745242 -0.00021168769)
(-0.00055979688 -0.00063471696 -0.00019743385)
(-5.0108005e-05 0.00021498598 -0.00018683067)
(3.8094897e-05 0.00041383036 -0.00016802117)
(-0.00013086754 0.00044555403 -5.8219667e-05)
(-0.00097095427 0.0022426634 -4.1156481e-05)
(-0.0028462131 0.0043591463 -2.4274152e-05)
(-0.0055648045 0.0064571664 -9.8418971e-06)
(-0.0090094178 0.0083534223 3.0765624e-06)
(-0.013075417 0.0099513943 1.405645e-05)
(-0.017642212 0.011211687 2.2834833e-05)
(-0.022584588 0.012129521 2.9306927e-05)
(-0.027779515 0.012717461 3.3395555e-05)
(-0.033107969 0.012994083 3.5027865e-05)
(-0.038455324 0.012977304 3.4126549e-05)
(-0.043710932 0.012681156 3.0603186e-05)
(-0.0487673 0.012115075 2.4360903e-05)
(-0.053519391 0.011284938 1.5306211e-05)
(-0.057864439 0.010195217 3.3677982e-06)
(-0.061702517 0.0088517058 -1.1479832e-05)
(-0.06493794 0.0072644131 -2.919007e-05)
(-0.067481498 0.005450275 -4.9617717e-05)
(-0.069253403 0.0034354295 -7.2495019e-05)
(-0.070186776 0.0012568483 -9.7413291e-05)
(-0.070231431 -0.0010368363 -0.00012381324)
(-0.069357731 -0.0033854508 -0.00015098649)
(-0.06756019 -0.0057183616 -0.00017809228)
(-0.064860543 -0.0079566419 -0.00020418903)
(-0.061309968 -0.010016249 -0.00022828209)
(-0.056990156 -0.011812128 -0.00024938542)
(-0.052012967 -0.013263076 -0.00026659312)
(-0.046518396 -0.014297083 -0.00027915504)
(-0.040670709 -0.014856831 -0.00028654855)
(-0.034652654 -0.014904939 -0.00028853745)
(-0.028657817 -0.014428548 -0.00028520935)
(-0.022881351 -0.01344291 -0.00027698504)
(-0.01750944 -0.011993782 -0.00026459766)
(-0.012708022 -0.010158694 -0.00024904332)
(-0.0086114405 -0.0080474913 -0.00023150587)
(-0.0053117479 -0.0058029514 -0.00021326741)
(-0.0028485294 -0.0036024645 -0.00019564333)
(-0.0012000411 -0.001660542 -0.0001798976)
(-0.00028880586 -0.00023378923 -0.00016675202)
(-2.4680651e-06 0.00035045906 -0.00014551681)
(-0.00019286532 0.0010312954 -7.6699821e-05)
(-0.0013239853 0.0038925015 -5.4797993e-05)
(-0.0037518487 0.0069679494 -3.4593345e-05)
(-0.0071732781 0.009910755 -1.8499956e-05)
(-0.011414767 0.012527323 -4.7043209e-06)
(-0.01634142 0.014714422 6.6583399e-06)
(-0.02180953 0.016430415 1.5575072e-05)
(-0.027675759 0.017671928 2.2160513e-05)
(-0.033802247 0.018455156 2.6493142e-05)
(-0.040056667 0.018803121 2.8599679e-05)
(-0.046311626 0.018737989 2.8457369e-05)
(-0.05244382 0.018277323 2.5995262e-05)
(-0.058333089 0.017433357 2.110378e-05)
(-0.063861771 0.016214424 1.3652746e-05)
(-0.06891468 0.014627762 3.5156611e-06)
(-0.073379872 0.012683059 -9.4016131e-06)
(-0.07715027 0.010396172 -2.5129695e-05)
(-0.080126101 0.007792613 -4.3604277e-05)
(-0.082218037 0.0049104362 -6.4637078e-05)
(-0.083350866 0.0018022888 -8.7892171e-05)
(-0.083467475 -0.0014635853 -0.00011287094)
(-0.082532925 -0.0048035411 -0.00013890946)
(-0.080538329 -0.0081199964 -0.00016519015)
(-0.077504279 -0.011304273 -0.00019077173)
(-0.073483479 -0.014240757 -0.00021463625)
(-0.068562277 -0.016812305 -0.00023575242)
(-0.062860779 -0.018906687 -0.00025315081)
(-0.056531202 -0.020423763 -0.00026600477)
(-0.049754242 -0.021282959 -0.00027370858)
(-0.042733252 -0.021430529 -0.00027594334)
(-0.035686238 -0.020846045 -0.00027272085)
(-0.02883583 -0.019547598 -0.00026439693)
(-0.022397652 -0.017595322 -0.00025165059)
(-0.016567722 -0.015093116 -0.0002354301)
(-0.011509833 -0.012188832 -0.00021686963)
(-0.0073438762 -0.009073662 -0.00019719479)
(-0.0041345317 -0.0059816669 -0.00017768155)
(-0.0018816037 -0.0031890337 -0.00015956556)
(-0.00053619329 -0.0010143254 -0.00014317233)
(-4.1244e-05 0.00015894326 -0.00011907833)
(-0.00025011584 0.0017985575 -9.2186514e-05)
(-0.0016597674 0.0059841018 -6.5298423e-05)
(-0.0046244397 0.010198554 -4.1612179e-05)
(-0.0087321354 0.014106938 -2.3557487e-05)
(-0.013751547 0.017522238 -8.519217e-06)
(-0.019514995 0.020347007 3.619652e-06)
(-0.025854029 0.022545806 1.3070873e-05)
(-0.032606861 0.02412188 2.0150514e-05)
(-0.039621699 0.025097984 2.508083e-05)
(-0.046754793 0.025503054 2.798011e-05)
(-0.053868548 0.025364108 2.8873978e-05)
(-0.060829963 0.024702423 2.7703185e-05)
(-0.067509327 0.023533068 2.433918e-05)
(-0.073779427 0.021866884 1.8607893e-05)
(-0.079515516 0.019714042 1.0319496e-05)
(-0.084596121 0.017088425 -6.9750517e-07)
(-0.088904734 0.014012185 -1.4559557e-05)
(-0.092332299 0.010519978 -3.1290834e-05)
(-0.094780414 0.0066624699 -5.0788098e-05)
(-0.096165061 0.0025088156 -7.2790723e-05)
(-0.096420722 -0.0018521144 -9.6859398e-05)
(-0.095504644 -0.0063119418 -0.00012236806)
(-0.093401063 -0.010744519 -0.0001485101)
(-0.090125128 -0.015009336 -0.00017432567)
(-0.085726174 -0.01895657 -0.00019874753)
(-0.080290039 -0.022433714 -0.00022066642)
(-0.073940013 -0.025293627 -0.00023901133)
(-0.066836008 -0.027403641 -0.00025283788)
(-0.059171553 -0.028655247 -0.0002614156)
(-0.051168332 -0.028973703 -0.00026430378)
(-0.043068098 -0.028326823 -0.00026140503)
(-0.035122079 -0.026732191 -0.0002529873)
(-0.027578259 -0.02426216 -0.00023966819)
(-0.020667297 -0.02104623 -0.00022236064)
(-0.014588315 -0.017270846 -0.00020218197)
(-0.0094957909 -0.013177198 -0.00018035228)
(-0.0054864729 -0.0090579198 -0.00015817616)
(-0.0025879503 -0.0052522132 -0.00013694479)
(-0.00078447133 -0.0021405348 -0.0001166619)
(-7.6874332e-05 -0.00016054163 -8.945496e-05)
(-0.00030295475 0.0027365128 -0.0001030101)
(-0.0019754903 0.0084980547 -7.1041315e-05)
(-0.005452118 0.0140285 -4.3893593e-05)
(-0.010217928 0.01902129 -2.3749061e-05)
(-0.015985109 0.023310975 -7.25391e-06)
(-0.022552696 0.026818062 5.9349664e-06)
(-0.029727047 0.029522286 1.6232125e-05)
(-0.037328034 0.031439626 2.4135396e-05)
(-0.045190774 0.03260325 2.999486e-05)
(-0.053161643 0.033050222 3.4007453e-05)
(-0.061094963 0.032813545 3.623632e-05)
(-0.06885054 0.031918684 3.6624321e-05)
(-0.076291789 0.030383655 3.5014934e-05)
(-0.08328461 0.028221743 3.1181262e-05)
(-0.089697146 0.025445919 2.486094e-05)
(-0.095400467 0.022074089 1.5795529e-05)
(-0.10027013 0.018134509 3.7729281e-06)
(-0.10418859 0.013670766 -1.1329167e-05)
(-0.10704827 0.0087459167 -2.9501341e-05)
(-0.10875528 0.0034454593 -5.0565249e-05)
(-0.10923361 -0.0021211257 -7.4144974e-05)
(-0.10842956 -0.0078204551 -9.9652634e-05)
(-0.10631642 -0.013497059 -0.00012628746)
(-0.10289905 -0.018977173 -0.00015305955)
(-0.098218056 -0.024074476 -0.00017883321)
(-0.092353214 -0.028597822 -0.00020239338)
(-0.085425722 -0.032360833 -0.00022253122)
(-0.077598625 -0.035193036 -0.0002381416)
(-0.069074933 -0.036951997 -0.00024832282)
(-0.060092923 -0.037535691 -0.00025246629)
(-0.050918307 -0.036894115 -0.00025032405)
(-0.041833219 -0.035039095 -0.00024204367)
(-0.033122377 -0.032051279 -0.00022816309)
(-0.025057229 -0.028083557 -0.00020956164)
(-0.017879607 -0.023360605 -0.0001873649)
(-0.011786451 -0.018174949 -0.00016283497)
(-0.0069140472 -0.012880374 -0.00013737103)
(-0.0033238281 -0.0078822545 -0.00011239946)
(-0.0010368622 -0.0036261479 -8.7692027e-05)
(-0.0001109362 -0.0006070213 -5.725063e-05)
(-0.00035169151 0.0038338005 -0.00010770697)
(-0.0022696749 0.011410299 -7.0552557e-05)
(-0.0062274493 0.018427202 -4.0074733e-05)
(-0.011614693 0.024619828 -1.7824379e-05)
(-0.018090231 0.029857406 2.3944557e-07)
(-0.0254209 0.034089705 1.4668655e-05)
(-0.033388556 0.037320526 2.6062769e-05)
(-0.041795472 0.039585053 3.5082589e-05)
(-0.050464729 0.040931243 4.2189125e-05)
(-0.05923431 0.041407041 4.7643164e-05)
(-0.067952356 0.041052993 5.1532368e-05)
(-0.076473685 0.039899486 5.3790126e-05)
(-0.084657208 0.037967674 5.4221294e-05)
(-0.092364294 0.035273122 5.2535877e-05)
(-0.099458146 0.031831162 4.8388554e-05)
(-0.10580416 0.02766308 4.1422958e-05)
(-0.11127121 0.022802389 3.1319529e-05)
(-0.11573374 0.017300584 1.7845201e-05)
(-0.11907467 0.011231972 9.0244357e-07)
(-0.12118892 0.0046972119 -1.9425443e-05)
(-0.1219876 -0.0021746623 -4.2837032e-05)
(-0.12140265 -0.0092259897 -6.879098e-05)
(-0.11939202 -0.016272086 -9.6495232e-05)
(-0.11594505 -0.023105152 -0.00012492622)
(-0.11108782 -0.02950042 -0.00015286731)
(-0.10488803 -0.035224762 -0.00017897483)
(-0.097458964 -0.040047724 -0.00020186774)
(-0.088961715 -0.043754729 -0.00022023483)
(-0.079604981 -0.046161921 -0.00023294952)
(-0.06964166 -0.047131764 -0.00023917855)
(-0.059361677 -0.046588172 -0.00023846967)
(-0.049080797 -0.044529707 -0.00023080532)
(-0.039125625 -0.041039359 -0.00021661354)
(-0.029815647 -0.036289647 -0.00019672985)
(-0.021444081 -0.030542289 -0.00017230289)
(-0.014259473 -0.024142569 -0.00014467773)
(-0.0084460997 -0.017509156 -0.00011541204)
(-0.0041057425 -0.011119085 -8.6146178e-05)
(-0.0013000756 -0.0054896895 -5.6486766e-05)
(-0.00014466069 -0.0011817414 -2.2533001e-05)
(-0.00039639064 0.0050786483 -0.00010495792)
(-0.0025407926 0.014693411 -6.2479524e-05)
(-0.0069441795 0.023357858 -2.8873497e-05)
(-0.012909184 0.030860652 -4.572038e-06)
(-0.020045561 0.037117162 1.510758e-05)
(-0.028090176 0.042116697 3.0914655e-05)
(-0.03680198 0.045895561 4.361937e-05)
(-0.045966988 0.048514583 5.402856e-05)
(-0.055397585 0.050041125 6.2698093e-05)
(-0.064924912 0.050537071 6.9937971e-05)
(-0.074392732 0.050052369 7.5847165e-05)
(-0.083652916 0.048623272 8.033764e-05)
(-0.092562042 0.046274338 8.3164498e-05)
(-0.10097911 0.043023142 8.3963696e-05)
(-0.1087644 0.038886675 8.2295513e-05)
(-0.11577929 0.033888503 7.7693055e-05)
(-0.12188713 0.028065924 6.9715034e-05)
(-0.12695488 0.021476546 5.8001376e-05)
(-0.1308556 0.014203862 4.2329448e-05)
(-0.13347174 0.006361511 2.2668152e-05)
(-0.13469925 -0.0019040259 -7.7475301e-07)
(-0.13445232 -0.010412559 -2.7523732e-05)
(-0.13266911 -0.01895125 -5.6806855e-05)
(-0.12931808 -0.027278245 -8.7572748e-05)
(-0.12440465 -0.035128847 -0.00011851924)
(-0.11797785 -0.042224676 -0.00014815662)
(-0.11013647 -0.048285935 -0.00017489965)
(-0.10103361 -0.053046664 -0.00019718381)
(-0.090878774 -0.056272515 -0.00021359673)
(-0.079936503 -0.057780106 -0.00022301069)
(-0.068520417 -0.05745647 -0.00022469838)
(-0.056982259 -0.055276715 -0.00021841456)
(-0.045695816 -0.051317722 -0.00020443096)
(-0.035036547 -0.045765952 -0.00018351521)
(-0.025358896 -0.03891794 -0.00015684182)
(-0.016973655 -0.031173231 -0.00012587093)
(-0.010123103 -0.023020432 -9.2379335e-05)
(-0.0049572898 -0.015016257 -5.8300669e-05)
(-0.0015839057 -0.0077601602 -2.3128693e-05)
(-0.00018000354 -0.0018919983 1.4737933e-05)
(-0.0004368711 0.0064585355 -9.3560528e-05)
(-0.0027868384 0.018316809 -4.5583387e-05)
(-0.0075958626 0.028778178 -9.0992154e-06)
(-0.014088572 0.03769472 1.7154549e-05)
(-0.021830701 0.04503799 3.8458227e-05)
(-0.030532122 0.050846028 5.5750398e-05)
(-0.039931129 0.05519543 6.9960233e-05)
(-0.049799277 0.058178847 8.2025742e-05)
(-0.059939858 0.059887649 9.2583306e-05)
(-0.070178798 0.060400879 0.00010197893)
(-0.08035726 0.059779935 0.00011031082)
(-0.090326108 0.058068035 0.00011745849)
(-0.099941646 0.055293463 0.00012311674)
(-0.10906259 0.051475472 0.00012683672)
(-0.11754823 0.046631783 0.00012807237)
(-0.12525766 0.040786753 0.00012623226)
(-0.13204998 0.033979444 0.00012073653)
(-0.13778536 0.026271064 0.0001110779)
(-0.14232699 0.017751378 9.6884999e-05)
(-0.14554397 0.0085438386 7.7985656e-05)
(-0.14731518 -0.0011907889 5.4465838e-05)
(-0.14753409 -0.011252523 2.6703284e-05)
(-0.14611492 -0.021402604 -4.5716051e-06)
(-0.14300002 -0.031366049 -3.8297977e-05)
(-0.13816779 -0.040837475 -7.3094127e-05)
(-0.13164153 -0.049490357 -0.00010731448)
(-0.12349801 -0.056990169 -0.00013914129)
(-0.11387494 -0.063011532 -0.00016670838)
(-0.10297622 -0.067259068 -0.00018824987)
(-0.09107323 -0.069491015 -0.00020226031)
(-0.078501143 -0.06954393 -0.00020764658)
(-0.065648787 -0.067356096 -0.0002038492)
(-0.052941856 -0.062986697 -0.00019091366)
(-0.040819936 -0.056627831 -0.00016949597)
(-0.029709573 -0.048607018 -0.0001407843)
(-0.01999616 -0.039379296 -0.00010637542)
(-0.011992138 -0.029509426 -6.8321536e-05)
(-0.0059060097 -0.019644305 -2.8930383e-05)
(-0.0018995888 -0.010479276 1.2378241e-05)
(-0.00021910949 -0.0027504872 5.4718248e-05)
(-0.00047275819 0.0079598113 -7.2424049e-05)
(-0.0030052919 0.02224655 -1.8742443e-05)
(-0.0081754422 0.034640534 2.0334281e-05)
(-0.015139566 0.045066161 4.8414708e-05)
(-0.023424962 0.053559897 7.1329666e-05)
(-0.032717935 0.060216607 9.0200154e-05)
(-0.042738782 0.0651602 0.00010610433)
(-0.053246681 0.068520903 0.00012009845)
(-0.064037594 0.070418552 0.00013288723)
(-0.07493391 0.070952597 0.00014484172)
(-0.08577594 0.070198049 0.00015604945)
(-0.096415416 0.068206322 0.00016634831)
(-0.10671036 0.065009821 0.00017536387)
(-0.11652126 0.060629115 0.00018255272)
(-0.12570844 0.055081582 0.00018725087)
(-0.13413058 0.048390593 0.00018872765)
(-0.14164408 0.040594512 0.00018624564)
(-0.14810347 0.031755038 0.00017912637)
(-0.15336264 0.021964555 0.00016682036)
(-0.1572771 0.011352285 0.00014897848)
(-0.15970747 8.9087728e-05 0.0001255212)
(-0.16052437 -0.011609318 9.6709368e-05)
(-0.15961476 -0.023481525 6.317205e-05)
(-0.1568899 -0.035221578 2.5951802e-05)
(-0.15229508 -0.04648378 -1.3509242e-05)
(-0.14582036 -0.056891421 -5.3411722e-05)
(-0.13751206 -0.066050241 -9.1684298e-05)
(-0.12748365 -0.073567113 -0.000126112)
(-0.11592479 -0.079073936 -0.00015450192)
(-0.10310655 -0.082255923 -0.00017487401)
(-0.089380959 -0.082882538 -0.00018565674)
(-0.075172824 -0.080838167 -0.00018586098)
(-0.060963001 -0.076148751 -0.00017520418)
(-0.047262956 -0.069000137 -0.00015415802)
(-0.034582991 -0.059744428 -0.00012389026)
(-0.023397328 -0.048892365 -8.6142059e-05)
(-0.014103405 -0.037091797 -4.3292586e-05)
(-0.0069814146 -0.025092559 1.89264e-06)
(-0.0022590006 -0.013702917 5.0039997e-05)
(-0.00026414535 -0.0037760328 9.7598352e-05)
(-0.00050354835 0.0095673918 -4.0578768e-05)
(-0.0031932603 0.026445053 1.9035635e-05)
(-0.0086753641 0.040891893 6.0391247e-05)
(-0.01604842 0.052912322 9.0156656e-05)
(-0.024807251 0.06261511 0.00011466043)
(-0.034618263 0.070158883 0.00013519888)
(-0.045186594 0.075721046 0.00015298999)
(-0.056261257 0.079474636 0.00016919698)
(-0.067632682 0.081572178 0.0001845832)
(-0.079121381 0.082136731 0.00019953654)
(-0.090568499 0.08125917 0.00021412685)
(-0.10182844 0.079000447 0.00022814404)
(-0.11276291 0.075397594 0.00024113791)
(-0.12323622 0.070472185 0.00025246279)
(-0.13311189 0.064240135 0.00026132639)
(-0.14225026 0.056721892 0.00026684437)
(-0.15050707 0.047952381 0.00026810174)
(-0.15773292 0.037990258 0.00026422196)
(-0.16377373 0.02692628 0.00025444296)
(-0.16847222 0.014890633 0.00023819748)
(-0.17167077 0.0020591125 0.00021519528)
(-0.17321607 -0.011342123 0.00018551245)
(-0.1729654 -0.025033581 0.00014963704)
(-0.1707952 -0.038682015 0.00010853999)
(-0.16661195 -0.051903347 6.3684068e-05)
(-0.16036503 -0.064270075 1.7002608e-05)
(-0.15206113 -0.075324278 -2.9172149e-05)
(-0.14177899 -0.084597172 -7.223601e-05)
(-0.12968312 -0.09163568 -0.00010949304)
(-0.11603403 -0.096035582 -0.00013837904)
(-0.10119246 -0.097479544 -0.00015670825)
(-0.08561484 -0.095776777 -0.00016291338)
(-0.069837854 -0.090899535 -0.00015624225)
(-0.054451273 -0.083010662 -0.00013686939)
(-0.040061075 -0.072476521 -0.00010587513)
(-0.02724641 -0.059861538 -6.5131887e-05)
(-0.016507658 -0.045903491 -1.7390541e-05)
(-0.0082137482 -0.031469787 3.4036984e-05)
(-0.0026743134 -0.017501801 8.9802637e-05)
(-0.00031729527 -0.0049938447 0.00014352176)
(-0.00052867817 0.011264589 2.8055532e-06)
(-0.0033477233 0.030870946 6.8595361e-05)
(-0.0090880116 0.047473813 0.00011189321)
(-0.016801511 0.061163843 0.00014319207)
(-0.025956775 0.072128046 0.00016925823)
(-0.036204026 0.080594525 0.00019155505)
(-0.047236095 0.086799455 0.00021143155)
(-0.058794001 0.090963351 0.00023014813)
(-0.07066437 0.093275351 0.00024851957)
(-0.082667394 0.093885264 0.00026694565)
(-0.094646631 0.092902139 0.00028547506)
(-0.10646087 0.09039796 0.00030384691)
(-0.11797739 0.08641505 0.00032153207)
(-0.12906643 0.080975814 0.00033777776)
(-0.13959699 0.074093668 0.0003516554)
(-0.14943351 0.065784216 0.00036211399)
(-0.15843352 0.0560761 0.00036804131)
(-0.16644617 0.045021187 0.00036833462)
(-0.1733117 0.032703978 0.00036198125)
(-0.17886199 0.019250213 0.00034814806)
(-0.18292264 0.0048346211 0.00032627749)
(-0.18531685 -0.010312429 0.00029618918)
(-0.18587147 -0.025899612 0.00025816483)
(-0.18442568 -0.041571827 0.00021303277)
(-0.18084266 -0.05691056 0.00016221471)
(-0.1750242 -0.071439019 0.0001077346)
(-0.16692783 -0.084633627 5.2171064e-05)
(-0.15658586 -0.095943408 -1.4577723e-06)
(-0.14412423 -0.10481843 -4.9882151e-05)
(-0.12977915 -0.11074755 -8.9835798e-05)
(-0.11390771 -0.11330413 -0.00011836)
(-0.096989115 -0.11219634 -0.000133124)
(-0.079612617 -0.1073164 -0.00013271676)
(-0.06245012 -0.098781023 -0.00011685061)
(-0.046214561 -0.086954733 -8.6404222e-05)
(-0.031607664 -0.072449699 -4.3335219e-05)
(-0.019254101 -0.056099109 9.2017946e-06)
(-0.009633112 -0.038903826 6.7254371e-05)
(-0.0031578208 -0.0219616 0.00013148193)
(-0.00038078417 -0.0064355778 0.00019251021)
(-0.00054759689 0.013033101 5.8396365e-05)
(-0.0034658431 0.035479194 0.00013061189)
(-0.0094063576 0.054322701 0.00017549682)
(-0.017386324 0.069744948 0.0002081706)
(-0.026854326 0.082015501 0.00023576942)
(-0.037448004 0.091436326 0.00025991387)
(-0.048850584 0.098306698 0.00028207543)
(-0.060797091 0.10289867 0.00030360352)
(-0.073071905 0.10544162 0.00032535984)
(-0.08549628 0.10611517 0.00034775468)
(-0.097917599 0.10504893 0.00037081603)
(-0.11020062 0.10232759 0.00039423359)
(-0.12222001 0.097999673 0.00041740032)
(-0.13385407 0.092088473 0.0004394554)
(-0.14497969 0.084604104 0.00045932943)
(-0.1554681 0.075555594 0.00047579467)
(-0.16518165 0.064962597 0.00048752401)
(-0.17397125 0.052866472 0.00049316112)
(-0.18167479 0.039340725 0.00049140386)
(-0.18811665 0.02450092 0.00048110113)
(-0.19310861 0.0085140986 0.00046136219)
(-0.19645277 -0.0083924175 0.00043167568)
(-0.1979468 -0.025923162 0.00039202702)
(-0.19739217 -0.043708609 0.00034301153)
(-0.19460603 -0.061302213 0.00028592291)
(-0.18943686 -0.078182216 0.000222803)
(-0.18178411 -0.093760292 0.000156432)
(-0.17162108 -0.1073993 9.0239733e-05)
(-0.15901972 -0.11844224 2.8123128e-05)
(-0.14417448 -0.12625361 -2.5833364e-05)
(-0.12742161 -0.13027284 -6.7721456e-05)
(-0.10924855 -0.13007668 -9.4223665e-05)
(-0.090288333 -0.12544419 -0.00010302561)
(-0.071294542 -0.11641461 -9.3147178e-05)
(-0.053096309 -0.10332654 -6.5086819e-05)
(-0.036536347 -0.086827627 -2.079134e-05)
(-0.022388386 -0.067848733 3.6173151e-05)
(-0.011268734 -0.047540306 0.0001011171)
(-0.0037218333 -0.027182654 0.00017468785)
(-0.00045691019 -0.0081393623 0.00024438612)
(-0.00055984243 0.014853188 0.0001266739)
(-0.0035453242 0.040221578 0.00020556963)
(-0.0096247721 0.061370481 0.00025167301)
(-0.017792737 0.078574155 0.00028555643)
(-0.027484026 0.092187213 0.0003146508)
(-0.03832702 0.10258848 0.00034072256)
(-0.049997751 0.11014368 0.00036535755)
(-0.062226986 0.11517987 0.0003899879)
(-0.074798155 0.11796999 0.00041552098)
(-0.087534732 0.11872647 0.00044238004)
(-0.10028915 0.11760201 0.00047057725)
(-0.11293354 0.1146959 0.0004997589)
(-0.12535168 0.11006403 0.00052924582)
(-0.13743203 0.10373105 0.00055807308)
(-0.14906185 0.095703313 0.00058503055)
(-0.16012218 0.085981938 0.0006087081)
(-0.17048362 0.074575248 0.0006275499)
(-0.18000278 0.061510683 0.00063992187)
(-0.18851957 0.046846213 0.00064419533)
(-0.1958555 0.030681496 0.00063884914)
(-0.20181327 0.013168958 0.00062259044)
(-0.20617829 -0.0054751905 0.00059449242)
(-0.20872264 -0.024960308 0.00055414259)
(-0.20921218 -0.044911888 0.00050179179)
(-0.20741772 -0.064864532 0.00043849082)
(-0.20313097 -0.084259283 0.00036619254)
(-0.19618565 -0.10244789 0.00028779522)
(-0.1864839 -0.118707 0.00020709888)
(-0.17402676 -0.13226557 0.00012864791)
(-0.15894635 -0.14234806 5.7442878e-05)
(-0.14153555 -0.14823462 -1.4766741e-06)
(-0.12226886 -0.1493362 -4.3550278e-05)
(-0.10180708 -0.14527826 -6.5256252e-05)
(-0.080978548 -0.13598142 -6.4612979e-05)
(-0.06073377 -0.12172338 -4.1475837e-05)
(-0.04207422 -0.10316562 2.387511e-06)
(-0.025950419 -0.081333026 6.3034164e-05)
(-0.013148211 -0.05754039 0.00013494713)
(-0.0043785865 -0.033279321 0.00021873924)
(-0.00054808171 -0.010149818 0.00029868583)
(-0.00056512059 0.016704054 0.000207909)
(-0.0035848096 0.045047599 0.00029374433)
(-0.0097399499 0.068545779 0.00034069024)
(-0.018014537 0.087565499 0.00037560939)
(-0.027835425 0.10254696 0.00040614618)
(-0.038824603 0.11394739 0.00043420014)
(-0.050652906 0.12220135 0.00046146443)
(-0.063048223 0.12769377 0.00048945035)
(-0.075794047 0.13074426 0.00051911334)
(-0.088716982 0.13160104 0.00055089655)
(-0.10167551 0.13044253 0.00058480597)
(-0.1145504 0.12738481 0.00062045549)
(-0.12723612 0.12249272 0.00065710467)
(-0.13963331 0.11579306 0.0006936937)
(-0.15164215 0.10728858 0.00072887746)
(-0.16315662 0.096971658 0.00076106346)
(-0.17405937 0.084837555 0.00078845919)
(-0.18421723 0.070896975 0.00080913422)
(-0.19347737 0.055188331 0.00082110145)
(-0.2016643 0.037790007 0.0008224215)
(-0.20857801 0.018832967 0.00081133228)
(-0.21399373 -0.0014861288 0.00078640388)
(-0.21766406 -0.022891439 0.00074671663)
(-0.21932421 -0.045014752 0.00069204848)
(-0.21870156 -0.06738382 0.00062306601)
(-0.21553058 -0.089414128 0.00054148969)
(-0.20957435 -0.1104071 0.00045020661)
(-0.20065323 -0.12955849 0.00035329398)
(-0.18868047 -0.1459814 0.00025591311)
(-0.17370295 -0.15874849 0.00016403885)
(-0.15594285 -0.16695661 8.4007233e-05)
(-0.13583316 -0.16981411 2.1895743e-05)
(-0.11403747 -0.16674531 -1.720648e-05)
(-0.09144313 -0.15749971 -2.9918226e-05)
(-0.069120342 -0.14224527 -1.5082399e-05)
(-0.048244239 -0.12162228 2.5981393e-05)
(-0.02997174 -0.096736327 8.9057012e-05)
(-0.015296588 -0.069077398 0.00016773241)
(-0.0051401156 -0.040378891 0.00026256362)
(-0.00065685334 -0.01251804 0.00035455792)
(-0.00056338644 0.018564448 0.00030214647)
(-0.0035843077 0.049905869 0.00039519198)
(-0.0097519313 0.075775706 0.00044260527)
(-0.018051113 0.0966304 0.00047837382)
(-0.027905861 0.11299425 0.00051027042)
(-0.038933992 0.12540304 0.00054031441)
(-0.050802617 0.13436164 0.00057030123)
(-0.063237728 0.1403153 0.00060182159)
(-0.076023597 0.14363318 0.00063588623)
(-0.088990652 0.14460226 0.00067297024)
(-0.10200426 0.14342958 0.00071308832)
(-0.11495492 0.14025043 0.00075583808)
(-0.12774926 0.13514059 0.00080043397)
(-0.14030202 0.12813044 0.00084573596)
(-0.15252883 0.11921973 0.0008902755)
(-0.16433975 0.10839206 0.00093228434)
(-0.17563349 0.095628648 0.00096973268)