/*--------------------------------*- C++ -*----------------------------------*\
  =========                 |
  \\      /  F ield         | OpenFOAM: The Open Source CFD Toolbox
   \\    /   O peration     | Website:  https://openfoam.org
    \\  /    A nd           | Version:  7
     \\/     M anipulation  |
\*---------------------------------------------------------------------------*/
FoamFile
{
    version     2.0;
    format      ascii;
    class       volScalarField;
    location    "0.59";
    object      T;
}
// * * * * * * * * * * * * * * * * * * * * * * * * * * * * * * * * * * * * * //

dimensions      [0 0 0 1 0 0 0];

internalField   nonuniform List<scalar> 
1000
(
0
0
0
0
0
0
0
0
0
0
0
0
0
0
0
0
0
0
0
0
0
0
0
0
0
0
0
0
0
0
0
0
0
0
0
0
0
0
0
0
0
0
0
0
0
0
0
0
0
0
0
0
0
0
0
0
0
0
0
0
0
0
0
0
0
0
0
0
0
0
0
0
0
0
0
0
0
0
0
0
0
0
0
0
0
0
0
0
0
0
0
0
0
0
0
0
0
0
0
0
0
0
0
0
0
0
0
0
0
0
0
0
0
0
0
0
0
0
0
0
0
0
0
0
0
0
0
0
0
0
0
0
0
0
0
0
0
0
0
0
0
0
0
0
0
0
0
0
0
0
0
0
0
0
0
0
0
0
0
0
0
0
0
0
0
0
0
0
0
0
0
0
0
0
0
0
0
0
0
0
0
0
0
0
0
0
0
0
0
0
0
0
0
0
0
0
0
0
0
0
0
0
0
0
0
0
0
0
0
0
0
0
0
0
0
0
0
0
0
0
0
0
0
0
0
0
0
0
0
0
0
0
0
0
0
0
0
0
0
0
0
0
0
0
0
0
0
0
0
0
0
0
0
0
0
0
0
0
0
0
0
0
0
0
0
0
0
0
0
0
0
0
0
0
0
0
0
0
0
0
0
0
0
0
0
0
0
0
0
0
0
0
0
0
0
0
0
0
0
0
0
0
0
0
0
0
0
0
0
0
0
0
0
0
0
0
0
0
0
0
0
0
0
0
0
0
0
0
0
0
0
0
0
0
0
0
0
0
0
0
0
0
0
0
0
0
0
0
0
0
0
0
0
0
0
0
0
0
0
0
0
0
0
0
0
0
0
0
0
0
0
0
0
0
0
0
0
0
0
0
0
0
0
0
0
0
0
0
0
0
0
-1.22765e-46
1.67779e-44
-1.10833e-42
4.7092e-41
-1.44459e-39
3.40361e-38
-6.39592e-37
9.82266e-36
-1.25271e-34
1.33981e-33
-1.20733e-32
9.16052e-32
-5.80863e-31
3.02135e-30
-1.23561e-29
3.53953e-29
-3.76595e-29
-2.61165e-28
1.78491e-27
-5.24652e-27
2.89446e-27
4.26979e-26
-1.83351e-25
2.21257e-25
9.19322e-25
-4.47698e-24
4.58425e-24
2.25675e-23
-8.40921e-23
2.03108e-23
5.14523e-22
-1.04057e-21
-1.41188e-21
8.14172e-21
-3.2876e-21
-3.94116e-20
6.16166e-20
1.31569e-19
-4.149e-19
-2.60038e-19
2.02425e-18
-1.98724e-19
-8.21048e-18
4.72716e-18
2.95647e-17
-2.71778e-17
-9.88533e-17
1.12465e-16
3.17373e-16
-3.81852e-16
-9.97445e-16
1.09259e-15
3.06958e-15
-2.5558e-15
-9.08286e-15
4.21049e-15
2.5039e-14
-7.71168e-16
-6.16254e-14
-2.84681e-14
1.26968e-13
1.38381e-13
-1.89676e-13
-4.22696e-13
8.66791e-14
9.1871e-13
5.75619e-13
-1.26993e-12
-2.22095e-12
2.33402e-13
4.21458e-12
3.92715e-12
-3.06332e-12
-1.00796e-11
-6.55922e-12
8.72417e-12
2.15291e-11
1.36549e-11
-1.62256e-11
-4.39059e-11
-3.64347e-11
1.6054e-11
8.11408e-11
9.92576e-11
2.88042e-11
-1.09449e-10
-2.25419e-10
-2.0633e-10
2.68449e-12
3.32239e-10
5.8729e-10
5.32388e-10
3.69304e-11
-7.90002e-10
-1.5603e-09
-1.72025e-09
-8.09023e-10
1.22392e-09
3.78746e-09
5.65569e-09
5.30587e-09
1.56222e-09
-5.62442e-09
-1.45528e-08
-2.16418e-08
-2.20676e-08
-1.12538e-08
1.29865e-08
4.81665e-08
8.54761e-08
1.09649e-07
1.0112e-07
4.0852e-08
-8.23862e-08
-2.63356e-07
-4.72155e-07
-6.49083e-07
-7.05499e-07
-5.33489e-07
-2.63522e-08
8.89504e-07
2.21283e-06
3.82016e-06
5.4198e-06
6.51733e-06
6.40489e-06
4.18867e-06
-1.13045e-06
-1.05087e-05
-2.46316e-05
-4.35965e-05
-6.65035e-05
-9.09545e-05
-0.00011247
-0.00012384
-0.000114431
-6.94744e-05
3.06219e-05
0.000210912
0.000502453
0.000942722
0.00157586
0.00245271
0.00363069
0.00517333
0.00714968
0.00963341
0.0127017
0.016434
0.0209105
0.0262105
0.0324108
0.0395841
0.047797
0.0571087
0.0675694
0.0792188
0.0920851
0.106184
0.121519
0.138078
0.155837
0.174758
0.194792
0.215874
0.23793
0.260875
0.284616
0.309051
0.334074
0.359571
0.38543
0.411532
0.437763
0.464009
0.490158
0.516103
0.541743
0.566982
0.591732
0.615912
0.639451
0.662284
0.684356
0.70562
0.726039
0.745584
0.764232
0.781971
0.798794
0.8147
0.829697
0.843797
0.857016
0.869376
0.880902
0.891621
0.901566
0.910769
0.919263
0.927085
0.934271
0.940856
0.946878
0.952372
0.957373
0.961916
0.966033
0.969757
0.973118
0.976145
0.978867
0.981308
0.983495
0.985448
0.987191
0.988743
0.990122
0.991345
0.992428
0.993384
0.994228
0.994971
0.995624
0.996198
0.996702
0.997145
0.997535
0.997881
0.998188
0.998461
0.998705
0.998922
0.999109
0.999264
0.999379
0.999441
0.999433
0.999331
0.999108
0.998726
0.998143
0.997308
0.996167
0.994655
0.992705
0.990244
0.987195
0.983479
0.979016
0.973728
0.967537
0.960372
0.952167
0.942861
0.932405
0.92076
0.907897
0.893801
0.878469
0.861912
0.844155
0.825234
0.805202
0.784121
0.762066
0.739122
0.715381
0.690946
0.665924
0.640427
0.614569
0.588467
0.562236
0.53599
0.509842
0.483897
0.458257
0.433018
0.408268
0.384088
0.360549
0.337716
0.315644
0.29438
0.273961
0.254416
0.235768
0.218029
0.201206
0.1853
0.170303
0.156203
0.142984
0.130624
0.119098
0.108379
0.0984339
0.0892315
0.0807369
0.0729149
0.0657292
0.0591435
0.0531217
0.0476278
0.0426267
0.0380842
0.0339669
0.0302431
0.026882
0.0238546
0.0211332
0.0186917
0.0165056
0.0145519
0.0128092
0.0112576
0.00987869
0.00865546
0.00757225
0.00661472
0.00576975
0.00502537
0.00437072
0.00379592
0.00329206
0.0028511
0.00246579
0.00212965
0.00183684
0.00158218
0.00136102
0.00116925
0.0010032
0.000859625
0.000735668
0.000628798
0.000536786
0.000457676
0.000389752
0.000331509
0.000281635
0.000238983
0.000202555
0.000171481
0.000145009
0.000122484
0.000103343
8.7097e-05
7.33243e-05
6.16626e-05
5.17999e-05
4.34684e-05
3.64385e-05
3.05137e-05
2.55259e-05
2.13316e-05
1.78084e-05
1.48522e-05
1.23744e-05
1.02998e-05
8.5647e-06
7.11501e-06
5.90505e-06
4.8962e-06
4.0559e-06
3.35668e-06
2.77545e-06
2.29277e-06
1.89231e-06
1.5604e-06
1.28556e-06
1.0582e-06
8.70289e-07
7.15126e-07
5.87123e-07
4.81622e-07
3.94746e-07
3.23271e-07
2.64518e-07
2.16265e-07
1.76671e-07
1.44209e-07
1.17618e-07
9.58535e-08
7.80552e-08
6.35121e-08
5.16387e-08
4.19528e-08
3.40578e-08
2.76276e-08
2.23947e-08
1.81395e-08
1.4682e-08
1.18749e-08
9.59746e-09
7.75126e-09
6.25574e-09
5.0452e-09
4.06605e-09
3.27465e-09
2.63547e-09
2.11959e-09
1.70354e-09
1.36823e-09
1.09818e-09
8.80848e-10
7.06061e-10
5.65586e-10
4.52766e-10
3.62217e-10
2.89592e-10
2.31381e-10
1.84755e-10
1.47433e-10
1.17577e-10
9.37088e-11
7.46405e-11
5.94162e-11
4.72687e-11
3.75823e-11
2.9863e-11
2.37153e-11
1.88222e-11
1.49299e-11
1.18358e-11
9.37745e-12
7.42552e-12
5.87656e-12
4.64811e-12
3.67441e-12
2.90307e-12
2.2924e-12
1.80919e-12
1.42707e-12
1.12505e-12
8.86472e-13
6.98118e-13
5.49494e-13
4.32285e-13
3.399e-13
2.67121e-13
2.09818e-13
1.64723e-13
1.29255e-13
1.01373e-13
7.94655e-14
6.22615e-14
4.87581e-14
3.81646e-14
2.98582e-14
2.33484e-14
1.82491e-14
1.42566e-14
1.11324e-14
8.68866e-15
6.77821e-15
5.28536e-15
4.1194e-15
3.20917e-15
2.49893e-15
1.94499e-15
1.51316e-15
1.17668e-15
9.14612e-16
7.10598e-16
5.51848e-16
4.28376e-16
3.32385e-16
2.57793e-16
1.99854e-16
1.54871e-16
1.19962e-16
9.28822e-17
7.18853e-17
5.56117e-17
4.30043e-17
3.32414e-17
2.56843e-17
1.98372e-17
1.5315e-17
1.18189e-17
9.11731e-18
7.03043e-18
5.41907e-18
4.1754e-18
3.21588e-18
2.47591e-18
1.90546e-18
1.46588e-18
1.12728e-18
8.66562e-19
6.65891e-19
5.11498e-19
3.92755e-19
3.01466e-19
2.3131e-19
1.77416e-19
1.36028e-19
1.04258e-19
7.9879e-20
6.11786e-20
4.68394e-20
3.58483e-20
2.74266e-20
2.0976e-20
1.60369e-20
1.22566e-20
9.3641e-21
7.15178e-21
5.46025e-21
4.16739e-21
3.17957e-21
2.42507e-21
1.849e-21
1.4093e-21
1.07381e-21
8.17912e-22
6.22792e-22
4.74065e-22
3.60738e-22
2.74414e-22
2.08679e-22
1.58641e-22
1.20562e-22
9.15946e-23
6.95652e-23
5.28175e-23
4.00893e-23
3.04189e-23
2.30741e-23
1.74974e-23
1.32644e-23
1.00525e-23
7.61595e-24
5.76826e-24
4.36753e-24
3.30595e-24
2.50166e-24
1.89249e-24
1.43123e-24
1.08208e-24
8.17866e-25
6.17987e-25
4.66822e-25
3.52532e-25
2.66148e-25
2.00874e-25
1.51565e-25
1.14329e-25
8.62162e-26
6.49982e-26
4.89884e-26
3.69118e-26
2.78047e-26
2.09388e-26
1.57641e-26
1.1865e-26
8.92787e-27
6.71602e-27
5.05081e-27
3.79746e-27
2.85438e-27
2.14494e-27
1.61141e-27
1.21027e-27
9.08751e-28
6.82175e-28
5.11959e-28
3.84116e-28
2.88124e-28
2.16066e-28
1.61988e-28
1.21415e-28
9.09808e-29
6.81585e-29
5.10485e-29
3.82241e-29
2.86145e-29
2.14155e-29
1.60237e-29
1.19865e-29
8.96434e-30
6.70253e-30
5.0102e-30
3.74428e-30
2.79755e-30
2.0897e-30
1.56059e-30
1.16517e-30
8.69745e-31
6.4907e-31
4.84274e-31
3.61235e-31
2.69395e-31
2.00858e-31
1.49724e-31
1.11582e-31
8.31378e-32
6.19306e-32
4.61228e-32
3.43422e-32
2.5565e-32
1.90268e-32
1.41576e-32
1.05323e-32
7.83277e-33
5.83629e-33
4.15718e-33
)
;

boundaryField
{
    sides
    {
        type            zeroGradient;
    }
    empty
    {
        type            empty;
    }
}


// ************************************************************************* //
