/*--------------------------------*- C++ -*----------------------------------*\
  =========                 |
  \\      /  F ield         | OpenFOAM: The Open Source CFD Toolbox
   \\    /   O peration     | Website:  https://openfoam.org
    \\  /    A nd           | Version:  7
     \\/     M anipulation  |
\*---------------------------------------------------------------------------*/
FoamFile
{
    version     2.0;
    format      ascii;
    class       volScalarField;
    location    "4.4";
    object      p;
}
// * * * * * * * * * * * * * * * * * * * * * * * * * * * * * * * * * * * * * //

dimensions      [1 -1 -2 0 0 0 0];

internalField   nonuniform List<scalar> 
19968
(
1
1
1
1
1
1
1
1
1
1
1
1
1
1
1
1
1
1
1
1
1
1
1
1
1
1
1
1
1
1
1
1
1
1
1
1
1
1
1
1
1
1
1
1
1
1
1
1
1.45831
7.86412
10.4346
10.4694
10.5292
10.5874
10.648
10.7088
10.7672
10.8213
10.8715
10.9194
10.9677
11.0185
11.0714
11.1237
11.1728
11.2177
11.2594
11.3
11.3414
11.3843
11.4287
11.4734
11.516
11.5546
11.5893
11.6214
11.6524
11.684
11.7174
11.7527
11.7894
11.8255
11.8584
11.8859
11.9074
11.9236
11.9367
11.9493
11.9632
11.9789
11.9955
12.0111
12.024
12.033
12.0385
12.0411
1
1
1
1
1
1
1
1
1
1
1
1
1
1
1
1
1
1
1
1
1
1
1
1
1
1
1
1
1
1
1
1
1
1
1
1
1
1
1
1
1
1
1
1
1
1
1
1
1.43166
7.79589
10.4245
10.4684
10.5266
10.5834
10.6429
10.703
10.761
10.8148
10.8647
10.9128
10.9619
11.0136
11.0673
11.1202
11.1696
11.2148
11.2566
11.297
11.338
11.3805
11.4246
11.4693
11.512
11.5508
11.5854
11.6173
11.648
11.6793
11.7123
11.7474
11.7838
11.8196
11.8523
11.8799
11.9017
11.9185
11.9322
11.9449
11.9585
11.9734
11.989
12.004
12.0169
12.0265
12.0327
12.0361
1
1
1
1
1
1
1
1
1
1
1
1
1
1
1
1
1
1
1
1
1
1
1
1
1
1
1
1
1
1
1
1
1
1
1
1
1
1
1
1
1
1
1
1
1
1
1
1
1.3729
7.65149
10.4181
10.4602
10.5156
10.5711
10.6307
10.6912
10.7495
10.8033
10.853
10.9012
10.9508
11.0034
11.0582
11.1123
11.1628
11.2088
11.2511
11.2914
11.3319
11.3738
11.4175
11.4621
11.505
11.544
11.5788
11.6105
11.6409
11.6718
11.7044
11.7392
11.7752
11.8106
11.843
11.8705
11.8927
11.9101
11.9244
11.9374
11.9503
11.9638
11.9779
11.9915
12.0039
12.0138
12.0209
12.0254
1
1
1
1
1
1
1
1
1
1
1
1
1
1
1
1
1
1
1
1
1
1
1
1
1
1
1
1
1
1
1
1
1
1
1
1
1
1
1
1
1
1
1
1
1
1
1
1
1.28741
7.41982
10.4112
10.452
10.5032
10.5578
10.6175
10.6782
10.7365
10.7896
10.8385
10.8861
10.9357
10.9888
11.0444
11.0997
11.1516
11.1989
11.2418
11.2821
11.3221
11.3634
11.4067
11.451
11.4939
11.533
11.5676
11.5989
11.6288
11.659
11.6911
11.7254
11.7609
11.796
11.8283
11.8562
11.8791
11.8976
11.9127
11.9257
11.9376
11.9491
11.9607
11.9723
11.9836
11.9936
12.0013
12.0066
1
1
1
1
1
1
1
1
1
1
1
1
1
1
1
1
1
1
1
1
1
1
1
1
1
1
1
1
1
1
1
1
1
1
1
1
1
1
1
1
1
1
1
1
1
1
1
1
1.17043
7.109
10.4049
10.4345
10.485
10.5399
10.6003
10.6617
10.7201
10.7729
10.8211
10.8679
10.9169
10.9697
11.0257
11.0817
11.1348
11.1835
11.2275
11.2685
11.3088
11.3499
11.3929
11.4368
11.4793
11.5181
11.5523
11.5831
11.6123
11.6419
11.6733
11.7069
11.7419
11.7766
11.8089
11.8371
11.8608
11.8802
11.8959
11.9089
11.9197
11.9293
11.9388
11.9484
11.9583
11.968
11.9758
11.9816
1
1
1
1
1
1
1
1
1
1
1
1
1
1
1
1
1
1
1
1
1
1
1
1
1
1
1
1
1
1
1
1
1
1
1
1
1
1
1
1
1
1
1
1
1
1
1
1
1.00637
6.58372
10.3851
10.4221
10.4734
10.5293
10.5894
10.6504
10.7082
10.7602
10.8072
10.8522
10.8993
10.9505
11.0052
11.0605
11.1132
11.162
11.2066
11.2483
11.2892
11.3301
11.3726
11.4154
11.4568
11.4944
11.5276
11.5575
11.5858
11.6146
11.6454
11.6784
11.7129
11.7474
11.7799
11.8088
11.8333
11.8534
11.8698
11.8829
11.8933
11.9021
11.9105
11.9192
11.9286
11.9382
11.946
11.9522
1
1
1
1
1
1
1
1
1
1
1
1
1
1
1
1
1
1
1
1
1
1
1
1
1
1
1
1
1
1
1
1
1
1
1
1
1
1
1
1
1
1
1
1
1
1
1
1
1.00003
5.83993
10.2907
10.386
10.4419
10.5018
10.5636
10.6249
10.6824
10.7343
10.7812
10.8259
10.8716
10.9208
10.9734
11.0264
11.0772
11.1251
11.1701
11.2127
11.255
11.2965
11.3392
11.3815
11.422
11.4583
11.4904
11.5195
11.5474
11.5761
11.6068
11.6397
11.674
11.7085
11.7412
11.7704
11.7951
11.8152
11.8313
11.844
11.8541
11.8626
11.8707
11.879
11.8877
11.8968
11.9039
11.91
1
1
1
1
1
1
1
1
1
1
1
1
1
1
1
1
1
1
1
1
1
1
1
1
1
1
1
1
1
1
1
1
1
1
1
1
1
1
1
1
1
1
1
1
1
1
1
1
1
4.89517
10.1243
10.3573
10.4139
10.4764
10.5394
10.6016
10.6591
10.7109
10.758
10.8026
10.8469
10.8937
10.9439
10.9942
11.0425
11.0889
11.1336
11.1759
11.2185
11.2597
11.3019
11.3435
11.383
11.4182
11.449
11.4769
11.5041
11.5324
11.563
11.5957
11.6299
11.6641
11.6965
11.7254
11.7496
11.7691
11.7843
11.7962
11.8058
11.8141
11.822
11.8298
11.8377
11.8457
11.8516
11.857
1
1
1
1
1
1
1
1
1
1
1
1
1
1
1
1
1
1
1
1
1
1
1
1
1
1
1
1
1
1
1
1
1
1
1
1
1
1
1
1
1
1
1
1
1
1
1
1
1
3.81606
9.80177
10.3339
10.3881
10.4501
10.5115
10.5735
10.6312
10.6832
10.731
10.7759
10.8191
10.8638
10.9113
10.9591
11.0047
11.0487
11.0915
11.1315
11.1721
11.2112
11.2515
11.2917
11.3299
11.3638
11.393
11.4194
11.4453
11.4728
11.503
11.5354
11.5691
11.6025
11.6336
11.6612
11.6843
11.7027
11.7173
11.7291
11.7392
11.7484
11.7571
11.7654
11.773
11.7804
11.7853
11.7901
1
1
1
1
1
1
1
1
1
1
1
1
1
1
1
1
1
1
1
1
1
1
1
1
1
1
1
1
1
1
1
1
1
1
1
1
1
1
1
1
1
1
1
1
1
1
1
1
1
2.69465
9.2137
10.3313
10.3883
10.443
10.496
10.5521
10.6062
10.6559
10.7024
10.7465
10.7882
10.8304
10.8757
10.9219
10.9659
11.008
11.0486
11.0858
11.1229
11.1598
11.1974
11.2356
11.2721
11.3045
11.3315
11.3552
11.3786
11.4039
11.4324
11.4636
11.496
11.5277
11.5569
11.5824
11.6037
11.6209
11.6346
11.6459
11.6557
11.6645
11.6728
11.6804
11.6869
11.6931
11.6965
11.7004
1
1
1
1
1
1
1
1
1
1
1
1
1
1
1
1
1
1
1
1
1
1
1
1
1
1
1
1
1
1
1
1
1
1
1
1
1
1
1
1
1
1
1
1
1
1
1
1
1
1.7056
8.22437
10.3692
10.3573
10.411
10.4565
10.5094
10.5618
10.6108
10.657
10.7018
10.7446
10.7869
10.8314
10.8773
10.9214
10.9626
11.0016
11.0363
11.069
11.1027
11.1372
11.1733
11.208
11.2392
11.2647
11.2863
11.3067
11.3286
11.3535
11.3809
11.4093
11.4364
11.4605
11.4809
11.4976
11.5114
11.5229
11.533
11.5425
11.5518
11.5609
11.5692
11.5763
11.5824
11.5857
11.5896
1
1
1
1
1
1
1
1
1
1
1
1
1
1
1
1
1
1
1
1
1
1
1
1
1
1
1
1
1
1
1
1
1
1
1
1
1
1
1
1
1
1
1
1
1
1
1
1
1
1.02434
6.50627
10.3213
10.3469
10.3808
10.4255
10.476
10.5276
10.5756
10.6192
10.6602
10.699
10.7374
10.7783
10.8216
10.864
10.9028
10.9383
10.9697
10.9975
11.0271
11.0573
11.0899
11.1221
11.1514
11.1758
11.1958
11.2139
11.2329
11.2544
11.2781
11.3027
11.3259
11.346
11.3625
11.3758
11.3867
11.3958
11.4035
11.4099
11.4151
11.4192
11.4219
11.4235
11.4252
11.4257
11.4279
1
1
1
1
1
1
1
1
1
1
1
1
1
1
1
1
1
1
1
1
1
1
1
1
1
1
1
1
1
1
1
1
1
1
1
1
1
1
1
1
1
1
1
1
1
1
1
1
1
1.00004
4.41267
9.87507
10.2058
10.2679
10.3295
10.3825
10.434
10.4819
10.5251
10.5651
10.6031
10.6404
10.6791
10.72
10.7613
10.7999
10.8346
10.8661
10.894
10.9213
10.9493
10.9785
11.0081
11.0354
11.0586
11.0775
11.0939
11.11
11.1273
11.146
11.1649
11.1823
11.1961
11.2055
11.2111
11.2139
11.2149
11.2145
11.2131
11.2125
11.2133
11.216
11.2185
11.2213
11.2221
11.2245
1
1
1
1
1
1
1
1
1
1
1
1
1
1
1
1
1
1
1
1
1
1
1
1
1
1
1
1
1
1
1
1
1
1
1
1
1
1
1
1
1
1
1
1
1
1
1
1
1
1
2.25119
8.68034
10.1667
10.201
10.2762
10.3293
10.3791
10.4252
10.467
10.505
10.5408
10.5755
10.6107
10.6472
10.6843
10.7199
10.7515
10.7795
10.8046
10.8268
10.8494
10.8722
10.8959
10.9181
10.9368
10.9514
10.9632
10.9735
10.9836
10.9941
11.0046
11.0138
11.0198
11.0217
11.0199
11.0153
11.009
11.0014
10.9932
10.9849
10.9753
10.9638
10.946
10.9233
10.898
10.8763
1
1
1
1
1
1
1
1
1
1
1
1
1
1
1
1
1
1
1
1
1
1
1
1
1
1
1
1
1
1
1
1
1
1
1
1
1
1
1
1
1
1
1
1
1
1
1
1
1
1
1.04876
6.14929
10.2039
10.2413
10.2618
10.2895
10.3203
10.3553
10.391
10.4245
10.4555
10.485
10.5144
10.5449
10.5765
10.6076
10.6357
10.6597
10.6813
10.7001
10.7175
10.7342
10.7503
10.7658
10.7788
10.7883
10.794
10.797
10.7985
10.7987
10.7988
10.798
10.7944
10.7853
10.7701
10.7486
10.7208
10.6875
10.6488
10.6055
10.5588
10.511
10.4697
10.4323
10.412
10.4014
1
1
1
1
1
1
1
1
1
1
1
1
1
1
1
1
1
1
1
1
1
1
1
1
1
1
1
1
1
1
1
1
1
1
1
1
1
1
1
1
1
1
1
1
1
1
1
1
1
1
1.00006
3.08856
9.19782
10.079
10.117
10.1562
10.194
10.2341
10.2754
10.3145
10.3491
10.3784
10.4037
10.4278
10.4525
10.4783
10.5035
10.5262
10.5456
10.5618
10.5743
10.5843
10.5924
10.5999
10.6061
10.6089
10.6066
10.5993
10.5877
10.5735
10.5583
10.5423
10.5238
10.4997
10.4664
10.4223
10.368
10.3061
10.2396
10.1708
10.1005
10.0293
9.94467
9.86177
9.74661
9.83418
1
1
1
1
1
1
1
1
1
1
1
1
1
1
1
1
1
1
1
1
1
1
1
1
1
1
1
1
1
1
1
1
1
1
1
1
1
1
1
1
1
1
1
1
1
1
1
1
1
1
1
1.14644
7.16385
10.1089
10.0854
10.0921
10.1176
10.1488
10.1874
10.2268
10.2616
10.2883
10.3076
10.3236
10.3404
10.3595
10.3802
10.4
10.4158
10.4274
10.4353
10.4397
10.4408
10.4397
10.437
10.4321
10.4219
10.4053
10.3821
10.3537
10.3222
10.2894
10.2543
10.213
10.16
10.0906
10.0029
9.89822
9.77471
9.63004
9.44379
9.19736
8.82528
8.26914
7.34072
5.44552
1
1
1
1
1
1
1
1
1
1
1
1
1
1
1
1
1
1
1
1
1
1
1
1
1
1
1
1
1
1
1
1
1
1
1
1
1
1
1
1
1
1
1
1
1
1
1
1
1
1
1
1.00062
4.449
9.57316
9.91357
9.96534
10.0105
10.0445
10.0845
10.126
10.1623
10.1905
10.2098
10.2234
10.2363
10.2512
10.2677
10.2836
10.2967
10.3061
10.3122
10.3131
10.3091
10.3005
10.2889
10.2753
10.2576
10.2341
10.2027
10.1632
10.1174
10.0679
10.015
9.95579
9.88286
9.78982
9.66973
9.52457
9.34606
9.13608
8.86127
8.51012
7.99993
7.33639
6.12306
4.50434
1
1
1
1
1
1
1
1
1
1
1
1
1
1
1
1
1
1
1
1
1
1
1
1
1
1
1
1
1
1
1
1
1
1
1
1
1
1
1
1
1
1
1
1
1
1
1
1
1
1
1
0.999998
1.82352
8.10692
9.88496
9.91014
9.94328
9.96893
10.0056
10.0465
10.0805
10.107
10.1242
10.1341
10.1423
10.1521
10.1632
10.1738
10.182
10.186
10.1867
10.1839
10.1757
10.1614
10.1414
10.117
10.0891
10.0564
10.0162
9.96659
9.9075
9.84201
9.77052
9.69235
9.59864
9.48345
9.33533
9.15627
8.93658
8.67612
8.35291
7.93703
7.41258
6.65759
5.64508
4.56125
1
1
1
1
1
1
1
1
1
1
1
1
1
1
1
1
1
1
1
1
1
1
1
1
1
1
1
1
1
1
1
1
1
1
1
1
1
1
1
1
1
1
1
1
1
1
1
1
1
1
1
1
1.02426
5.19442
9.63713
9.8332
9.88187
9.91638
9.94674
9.97546
9.99454
10.0112
10.0248
10.0335
10.0414
10.0502
10.0589
10.0647
10.0661
10.0626
10.0556
10.0464
10.0337
10.0153
9.98969
9.95738
9.9197
9.87694
9.82674
9.76722
9.69644
9.61747
9.52951
9.4338
9.32139
9.18696
9.01864
8.81545
8.57143
8.28214
7.93699
7.51044
6.98467
6.32722
5.56201
4.7275
1
1
1
1
1
1
1
1
1
1
1
1
1
1
1
1
1
1
1
1
1
1
1
1
1
1
1
1
1
1
1
1
1
1
1
1
1
1
1
1
1
1
1
1
1
1
1
1
1
1
1
1
0.999998
2.05833
8.30861
9.81262
9.80744
9.85074
9.88102
9.90585
9.91733
9.92566
9.93431
9.93984
9.94558
9.95113
9.95614
9.95784
9.95335
9.94238
9.927
9.90847
9.8879
9.86454
9.83536
9.79876
9.75413
9.70228
9.64168
9.57243
9.49142
9.40155
9.30103
9.19047
9.06319
8.91365
8.73309
8.51781
8.26466
7.96773
7.62604
7.21118
6.72552
6.19024
5.58006
4.93469
1
1
1
1
1
1
1
1
1
1
1
1
1
1
1
1
1
1
1
1
1
1
1
1
1
1
1
1
1
1
1
1
1
1
1
1
1
1
1
1
1
1
1
1
1
1
1
1
1
1
1
1
0.999999
1.03634
5.23825
9.63334
9.75549
9.77574
9.79827
9.81376
9.82398
9.83159
9.83977
9.84486
9.84806
9.8495
9.85038
9.84875
9.84068
9.82516
9.80292
9.7751
9.7439
9.71198
9.67721
9.6367
9.5873
9.52872
9.45957
9.38161
9.29229
9.19401
9.08475
8.96341
8.82523
8.66558
8.47903
8.26174
8.01208
7.72244
7.39977
7.013
6.58882
6.13727
5.63826
5.111
1
1
1
1
1
1
1
1
1
1
1
1
1
1
1
1
1
1
1
1
1
1
1
1
1
1
1
1
1
1
1
1
1
1
1
1
1
1
1
1
1
1
1
1
1
1
1
1
1
1
1
1
1
1.00003
1.88044
8.07037
9.76097
9.72941
9.73679
9.73997
9.74122
9.74221
9.74586
9.7491
9.74847
9.74578
9.7426
9.73626
9.72336
9.70413
9.67774
9.6452
9.60669
9.56631
9.52426
9.47854
9.42435
9.35985
9.28379
9.19914
9.10499
9.00263
8.88937
8.76232
8.61705
8.45091
8.26151
8.0464
7.8081
7.53114
7.23311
6.88996
6.51783
6.13074
5.7044
5.2709
1
1
1
1
1
1
1
1
1
1
1
1
1
1
1
1
1
1
1
1
1
1
1
1
1
1
1
1
1
1
1
1
1
1
1
1
1
1
1
1
1
1
1
1
1
1
1
1
1
1
1
1
1
1
1.02395
4.67975
9.3098
9.61798
9.62419
9.63772
9.65054
9.65861
9.66174
9.6627
9.65675
9.64871
9.641
9.62757
9.60865
9.58514
9.55443
9.51836
9.47495
9.42862
9.37982
9.32734
9.26679
9.19583
9.11318
9.02309
8.92622
8.822
8.70752
8.57884
8.43108
8.26303
8.07498
7.8646
7.63973
7.37824
7.10874
6.80597
6.47713
6.14439
5.77539
5.40842
1
1
1
1
1
1
1
1
1
1
1
1
1
1
1
1
1
1
1
1
1
1
1
1
1
1
1
1
1
1
1
1
1
1
1
1
1
1
1
1
1
1
1
1
1
1
1
1
1
1
1
1
1
1
1.00001
1.41756
7.42624
9.66855
9.60075
9.59694
9.58456
9.58116
9.57663
9.57031
9.55891
9.54581
9.53451
9.51678
9.4929
9.4644
9.42951
9.39068
9.3444
9.29623
9.24456
9.18735
9.12142
9.04479
8.95637
8.8623
8.76381
8.65901
8.54507
8.41733
8.27094
8.10424
7.92161
7.71543
7.50106
7.25728
7.01163
6.7431
6.45183
6.16184
5.83816
5.51919
1
1
1
1
1
1
1
1
1
1
1
1
1
1
1
1
1
1
1
1
1
1
1
1
1
1
1
1
1
1
1
1
1
1
1
1
1
1
1
1
1
1
1
1
1
1
1
1
1
1
1
1
1
1
1
1.00524
3.68802
8.89048
9.40366
9.44462
9.47448
9.47867
9.47209
9.46107
9.44579
9.42712
9.41232
9.39396
9.36975
9.33962
9.30339
9.26302
9.21379
9.16442
9.11113
9.05051
8.9807
8.90083
8.80907
8.71373
8.61501
8.50964
8.39582
8.26901
8.12609
7.96396
7.79111
7.59094
7.38819
7.16235
6.93685
6.69495
6.43542
6.17677
5.88879
5.61085
1
1
1
1
1
1
1
1
1
1
1
1
1
1
1
1
1
1
1
1
1
1
1
1
1
1
1
1
1
1
1
1
1
1
1
1
1
1
1
1
1
1
1
1
1
1
1
1
1
1
1
1
1
1
1
1
1.19476
6.03809
9.34838
9.4028
9.3953
9.38455
9.37907
9.36997
9.35483
9.33386
9.31367
9.29444
9.26679
9.23145
9.19134
9.14692
9.09371
9.0422
8.98761
8.92572
8.85437
8.77275
8.68064
8.58421
8.48506
8.37869
8.26438
8.13766
7.99802
7.84144
7.67777
7.48817
7.29892
7.09013
6.88231
6.65994
6.42496
6.18834
5.93305
5.68696
1
1
1
1
1
1
1
1
1
1
1
1
1
1
1
1
1
1
1
1
1
1
1
1
1
1
1
1
1
1
1
1
1
1
1
1
1
1
1
1
1
1
1
1
1
1
1
1
1
1
1
1
1
1
1
1
1.00116
2.03505
7.91137
9.32695
9.2629
9.26994
9.26883
9.26511
9.25415
9.23387
9.20977
9.18763
9.15849
9.11976
9.07686
9.02966
8.9753
8.92153
8.86551
8.80312
8.73001
8.64776
8.55893
8.46299
8.36554
8.25896
8.14469
8.01859
7.8829
7.73012
7.57439
7.40024
7.22616
7.03365
6.84138
6.63399
6.42046
6.20287
5.97557
5.75229
1
1
1
1
1
1
1
1
1
1
1
1
1
1
1
1
1
1
1
1
1
1
1
1
1
1
1
1
1
1
1
1
1
1
1
1
1
1
1
1
1
1
1
1
1
1
1
1
1
1
1
1
1
1
1
1
1
1.03088
4.02399
8.85389
9.15416
9.17161
9.17671
9.17009
9.15966
9.13989
9.11299
9.08606
9.05561
9.01506
8.96983
8.92113
8.86704
8.81254
8.75487
8.69371
8.61975
8.5377
8.44979
8.35688
8.2581
8.15377
8.03969
7.91538
7.78178
7.63366
7.48538
7.32587
7.16457
6.98633
6.8087
6.61611
6.42259
6.21831
6.01488
5.8077
1
1
1
1
1
1
1
1
1
1
1
1
1
1
1
1
1
1
1
1
1
1
1
1
1
1
1
1
1
1
1
1
1
1
1
1
1
1
1
1
1
1
1
1
1
1
1
1
1
1
1
1
1
1
1
1
1
1.00005
1.23352
5.60555
9.00552
9.15287
9.12937
9.12005
9.09994
9.07112
9.03646
9.00091
8.96585
8.92369
8.87563
8.82467
8.77
8.71462
8.65498
8.59134
8.52028
8.43827
8.3512
8.25801
8.16
8.0567
7.94335
7.82159
7.69168
7.55345
7.41167
7.26283
7.11035
6.94491
6.77845
6.60028
6.42386
6.23278
6.04863
5.85295
1
1
1
1
1
1
1
1
1
1
1
1
1
1
1
1
1
1
1
1
1
1
1
1
1
1
1
1
1
1
1
1
1
1
1
1
1
1
1
1
1
1
1
1
1
1
1
1
1
1
1
1
1
1
1
1
1
1
1.00175
1.58453
7.09675
9.1459
9.09075
9.06673
9.01877
8.97875
8.93922
8.90162
8.86535
8.82555
8.77937
8.72854
8.67529
8.6195
8.56099
8.49498
8.42532
8.34424
8.25864
8.16668
8.07011
7.96804
7.85693
7.73924
7.61594
7.48766
7.35297
7.21225
7.06585
6.91126
6.75192
6.58683
6.4228
6.24616
6.07616
5.89043
1
1
1
1
1
1
1
1
1
1
1
1
1
1
1
1
1
1
1
1
1
1
1
1
1
1
1
1
1
1
1
1
1
1
1
1
1
1
1
1
1
1
1
1
1
1
1
1
1
1
1
1
1
1
1
1
1
1
1
1.00985
2.79862
8.20117
8.97877
8.91007
8.87566
8.84465
8.81944
8.79263
8.76274
8.72858
8.68787
8.64117
8.58828
8.53254
8.4729
8.40636
8.33564
8.2574
8.17295
8.08324
7.98901
7.88912
7.7809
7.66876
7.55175
7.43066
7.30276
7.16931
7.02878
6.8827
6.7298
6.57695
6.42092
6.25775
6.09715
5.92286
1
1
1
1
1
1
1
1
1
1
1
1
1
1
1
1
1
1
1
1
1
1
1
1
1
1
1
1
1
1
1
1
1
1
1
1
1
1
1
1
1
1
1
1
1
1
1
1
1
1
1
1
1
1
1
1
1
1
1
1.00001
1.08484
4.18433
8.58597
8.80516
8.76606
8.76137
8.74504
8.72168
8.69206
8.65646
8.61584
8.56913
8.51695
8.4584
8.39754
8.33036
8.25806
8.18037
8.09702
8.00914
7.91717
7.81999
7.71625
7.60823
7.49664
7.38106
7.25921
7.13206
6.99798
6.85909
6.71401
6.57079
6.42127
6.26924
6.11483
5.95205
1
1
1
1
1
1
1
1
1
1
1
1
1
1
1
1
1
1
1
1
1
1
1
1
1
1
1
1
1
1
1
1
1
1
1
1
1
1
1
1
1
1
1
1
1
1
1
1
1
1
1
1
1
1
1
1
1
1
1
1
1.00034
1.26031
5.03988
8.57458
8.70053
8.70146
8.69401
8.66812
8.63409
8.59454
8.5505
8.50206
8.44885
8.39005
8.32705
8.25988
8.18786
8.11067
8.02875
7.94257
7.85247
7.75799
7.65852
7.55442
7.44714
7.33562
7.21908
7.09738
6.97007
6.83784
6.70115
6.56484
6.42235
6.27908
6.13038
5.97839
1
1
1
1
1
1
1
1
1
1
1
1
1
1
1
1
1
1
1
1
1
1
1
1
1
1
1
1
1
1
1
1
1
1
1
1
1
1
1
1
1
1
1
1
1
1
1
1
1
1
1
1
1
1
1
1
1
1
1
1
1
1.00227
1.448
5.68372
8.55896
8.67436
8.65106
8.62009
8.58146
8.53844
8.49251
8.44243
8.38746
8.32818
8.26499
8.19827
8.12704
8.05091
7.97026
7.88552
7.79684
7.70447
7.60805
7.50743
7.4035
7.2949
7.18211
7.0649
6.94372
6.81747
6.6884
6.55782
6.42293
6.2867
6.14482
6.00224
1
1
1
1
1
1
1
1
1
1
1
1
1
1
1
1
1
1
1
1
1
1
1
1
1
1
1
1
1
1
1
1
1
1
1
1
1
1
1
1
1
1
1
1
1
1
1
1
1
1
1
1
1
1
1
1
1
1
1
1
1
1
1.0061
1.6519
6.24509
8.53291
8.60282
8.56904
8.52708
8.48321
8.43573
8.38407
8.32758
8.26818
8.2061
8.1405
8.06981
7.99473
7.91565
7.8328
7.74603
7.65568
7.56135
7.46308
7.36172
7.25603
7.14625
7.03285
6.91613
6.79523
6.67325
6.54856
6.42123
6.29158
6.1576
6.02358
1
1
1
1
1
1
1
1
1
1
1
1
1
1
1
1
1
1
1
1
1
1
1
1
1
1
1
1
1
1
1
1
1
1
1
1
1
1
1
1
1
1
1
1
1
1
1
1
1
1
1
1
1
1
1
1
1
1
1
1
1
1
1.00001
1.01218
1.88378
6.67922
8.49074
8.51297
8.48219
8.44022
8.39007
8.33439
8.27608
8.21591
8.15334
8.0869
8.01668
7.9431
7.86603
7.78546
7.7008
7.61206
7.51922
7.42288
7.32341
7.2203
7.11341
7.00349
6.89037
6.77514
6.66022
6.54189
6.421
6.29731
6.17062
6.04406
1
1
1
1
1
1
1
1
1
1
1
1
1
1
1
1
1
1
1
1
1
1
1
1
1
1
1
1
1
1
1
1
1
1
1
1
1
1
1
1
1
1
1
1
1
1
1
1
1
1
1
1
1
1
1
1
1
1
1
1
1
1
1
1.00003
1.02153
2.118
6.99196
8.43593
8.43338
8.39656
8.34508
8.29142
8.23477
8.17397
8.10792
8.03811
7.96716
7.8939
7.81782
7.73798
7.65451
7.56712
7.47625
7.3825
7.28588
7.18602
7.0831
6.9778
6.86969
6.76011
6.65034
6.53739
6.42124
6.30283
6.18241
6.06239
1
1
1
1
1
1
1
1
1
1
1
1
1
1
1
1
1
1
1
1
1
1
1
1
1
1
1
1
1
1
1
1
1
1
1
1
1
1
1
1
1
1
1
1
1
1
1
1
1
1
1
1
1
1
1
1
1
1
1
1
1
1
1
1
1.00006
1.03385
2.32963
7.2051
8.37446
8.35123
8.30142
8.24966
8.19145
8.12929
8.06398
7.99624
7.92587
7.85217
7.77471
7.69374
7.61022
7.52432
7.43559
7.3445
7.25112
7.15485
7.05604
6.95509
6.85184
6.7467
6.64077
6.53251
6.42094
6.30775
6.19303
6.07906
1
1
1
1
1
1
1
1
1
1
1
1
1
1
1
1
1
1
1
1
1
1
1
1
1
1
1
1
1
1
1
1
1
1
1
1
1
1
1
1
1
1
1
1
1
1
1
1
1
1
1
1
1
1
1
1
1
1
1
1
1
1
1
1
1
1.00012
1.04753
2.51011
7.32449
8.29234
8.25931
8.20815
8.15031
8.08798
8.02251
7.95476
7.88473
7.81113
7.7339
7.65394
7.57163
7.48701
7.40032
7.31198
7.22131
7.12798
7.03241
6.93499
6.8358
6.73457
6.63217
6.52796
6.42096
6.31238
6.20277
6.09385
1
1
1
1
1
1
1
1
1
1
1
1
1
1
1
1
1
1
1
1
1
1
1
1
1
1
1
1
1
1
1
1
1
1
1
1
1
1
1
1
1
1
1
1
1
1
1
1
1
1
1
1
1
1
1
1
1
1
1
1
1
1
1
1
1
1
1.00019
1.0613
2.65193
7.33725
8.20172
8.16044
8.10589
8.04796
7.9835
7.91671
7.84669
7.77212
7.69548
7.61706
7.53643
7.45348
7.3688
7.28256
7.19415
7.10352
7.01082
6.91649
6.82082
6.72314
6.62401
6.52323
6.42044
6.31623
6.21127
6.1064
1
1
1
1
1
1
1
1
1
1
1
1
1
1
1
1
1
1
1
1
1
1
1
1
1
1
1
1
1
1
1
1
1
1
1
1
1
1
1
1
1
1
1
1
1
1
1
1
1
1
1
1
1
1
1
1
1
1
1
1
1
1
1
1
1
1
1
1.00028
1.07351
2.70256
7.26212
8.1039
8.06433
8.00157
7.9406
7.8769
7.80863
7.7358
7.66064
7.58353
7.50474
7.42405
7.34179
7.25764
7.17135
7.08299
6.99255
6.90068
6.80747
6.7126
6.61642
6.51852
6.41975
6.31962
6.21866
6.11786
1
1
1
1
1
1
1
1
1
1
1
1
1
1
1
1
1
1
1
1
1
1
1
1
1
1
1
1
1
1
1
1
1
1
1
1
1
1
1
1
1
1
1
1
1
1
1
1
1
1
1
1
1
1
1
1
1
1
1
1
1
1
1
1
1
1
1
1
1.00037
1.07862
2.68888
7.09626
7.99915
7.96371
7.89954
7.83427
7.76488
7.69616
7.62607
7.55236
7.47619
7.39803
7.31861
7.23719
7.15303
7.06623
6.97766
6.88757
6.7962
6.70397
6.61039
6.51569
6.42048
6.32388
6.22728
6.12972
1
1
1
1
1
1
1
1
1
1
1
1
1
1
1
1
1
1
1
1
1
1
1
1
1
1
1
1
1
1
1
1
1
1
1
1
1
1
1
1
1
1
1
1
1
1
1
1
1
1
1
1
1
1
1
1
1
1
1
1
1
1
1
1
1
1
1
1
1
1.00041
1.07775
2.5977
6.8412
7.88386
7.86107
7.79293
7.72791
7.66038
7.59176
7.52175
7.44907
7.37395
7.29699
7.21688
7.13345
7.04817
6.96151
6.8735
6.78485
6.69533
6.60515
6.51422
6.42225
6.32998
6.23725
6.14383
1
1
1
1
1
1
1
1
1
1
1
1
1
1
1
1
1
1
1
1
1
1
1
1
1
1
1
1
1
1
1
1
1
1
1
1
1
1
1
1
1
1
1
1
1
1
1
1
1
1
1
1
1
1
1
1
1
1
1
1
1
1
1
1
1
1
1
1
1
1
1.00041
1.07005
2.44063
6.47995
7.76953
7.76249
7.69172
7.63086
7.56331
7.49387
7.42316
7.35092
7.27611
7.19735
7.11521
7.03233
6.94852
6.86398
6.77881
6.69284
6.60605
6.51819
6.42994
6.3413
6.25229
6.16276
1
1
1
1
1
1
1
1
1
1
1
1
1
1
1
1
1
1
1
1
1
1
1
1
1
1
1
1
1
1
1
1
1
1
1
1
1
1
1
1
1
1
1
1
1
1
1
1
1
1
1
1
1
1
1
1
1
1
1
1
1
1
1
1
1
1
1
1
1
1
1
1.00036
1.05756
2.22356
6.02423
7.62356
7.67017
7.60145
7.53658
7.46623
7.39556
7.32295
7.24816
7.17139
7.09335
7.01479
6.93562
6.85571
6.77526
6.69374
6.61117
6.52756
6.44287
6.35733
6.27091
6.18378
1
1
1
1
1
1
1
1
1
1
1
1
1
1
1
1
1
1
1
1
1
1
1
1
1
1
1
1
1
1
1
1
1
1
1
1
1
1
1
1
1
1
1
1
1
1
1
1
1
1
1
1
1
1
1
1
1
1
1
1
1
1
1
1
1
1
1
1
1
1
1
1
1.00027
1.04228
1.97852
5.41717
7.4522
7.59412
7.5034
7.4358
7.36625
7.29617
7.22446
7.15102
7.07678
7.00275
6.92814
6.85318
6.77715
6.69966
6.62101
6.53991
6.45791
6.37418
6.28995
6.20514
1
1
1
1
1
1
1
1
1
1
1
1
1
1
1
1
1
1
1
1
1
1
1
1
1
1
1
1
1
1
1
1
1
1
1
1
1
1
1
1
1
1
1
1
1
1
1
1
1
1
1
1
1
1
1
1
1
1
1
1
1
1
1
1
1
1
1
1
1
1
1
1
1
1.00018
1.02785
1.7177
4.65204
7.26055
7.49195
7.41244
7.34979
7.28504
7.21734
7.14716
7.07731
7.00639
6.93396
6.86071
6.78571
6.70988
6.63214
6.55276
6.47283
6.39105
6.30877
6.22495
1
1
1
1
1
1
1
1
1
1
1
1
1
1
1
1
1
1
1
1
1
1
1
1
1
1
1
1
1
1
1
1
1
1
1
1
1
1
1
1
1
1
1
1
1
1
1
1
1
1
1
1
1
1
1
1
1
1
1
1
1
1
1
1
1
1
1
1
1
1
1
1
1
1
1.0001
1.01606
1.46615
3.90039
6.92436
7.3919
7.34126
7.28312
7.2131
7.14483
7.07589
7.00575
6.93487
6.86236
6.78843
6.7136
6.63676
6.5601
6.48119
6.40138
6.321
6.24026
1
1
1
1
1
1
1
1
1
1
1
1
1
1
1
1
1
1
1
1
1
1
1
1
1
1
1
1
1
1
1
1
1
1
1
1
1
1
1
1
1
1
1
1
1
1
1
1
1
1
1
1
1
1
1
1
1
1
1
1
1
1
1
1
1
1
1
1
1
1
1
1
1
1
1
1.00004
1.00776
1.27722
3.1701
6.4476
7.27601
7.29907
7.20135
7.1377
7.07205
7.00345
6.93376
6.86312
6.79124
6.71764
6.64325
6.56781
6.4901
6.41418
6.33601
6.25757
1
1
1
1
1
1
1
1
1
1
1
1
1
1
1
1
1
1
1
1
1
1
1
1
1
1
1
1
1
1
1
1
1
1
1
1
1
1
1
1
1
1
1
1
1
1
1
1
1
1
1
1
1
1
1
1
1
1
1
1
1
1
1
1
1
1
1
1
1
1
1
1
1
1
1
1
1.00002
1.00332
1.14809
2.5355
5.73939
7.12611
7.24972
7.13896
7.07195
7.0073
6.94015
6.8682
6.79611
6.72414
6.6508
6.57616
6.50248
6.4268
6.34912
6.27375
1
1
1
1
1
1
1
1
1
1
1
1
1
1
1
1
1
1
1
1
1
1
1
1
1
1
1
1
1
1
1
1
1
1
1
1
1
1
1
1
1
1
1
1
1
1
1
1
1
1
1
1
1
1
1
1
1
1
1
1
1
1
1
1
1
1
1
1
1
1
1
1
1
1
1
1
1
1
1.00124
1.07174
1.99615
4.8323
6.91413
7.13883
7.07494
7.00539
6.93457
6.86706
6.79753
6.72599
6.65497
6.58441
6.51054
6.43679
6.36512
6.28985
1
1
1
1
1
1
1
1
1
1
1
1
1
1
1
1
1
1
1
1
1
1
1
1
1
1
1
1
1
1
1
1
1
1
1
1
1
1
1
1
1
1
1
1
1
1
1
1
1
1
1
1
1
1
1
1
1
1
1
1
1
1
1
1
1
1
1
1
1
1
1
1
1
1
1
1
1
1
1
1.00041
1.03092
1.57387
3.83432
6.52658
7.02514
7.03581
6.93904
6.86812
6.80227
6.7362
6.66819
6.59659
6.52786
6.45661
6.38262
6.31059
1
1
1
1
1
1
1
1
1
1
1
1
1
1
1
1
1
1
1
1
1
1
1
1
1
1
1
1
1
1
1
1
1
1
1
1
1
1
1
1
1
1
1
1
1
1
1
1
1
1
1
1
1
1
1
1
1
1
1
1
1
1
1
1
1
1
1
1
1
1
1
1
1
1
1
1
1
1
1
1
1.00012
1.01154
1.28437
2.93051
5.83229
6.88978
6.96833
6.89195
6.82034
6.75433
6.68648
6.61788
6.54659
6.47224
6.40348
6.33533
1
1
1
1
1
1
1
1
1
1
1
1
1
1
1
1
1
1
1
1
1
1
1
1
1
1
1
1
1
1
1
1
1
1
1
1
1
1
1
1
1
1
1
1
1
1
1
1
1
1
1
1
1
1
1
1
1
1
1
1
1
1
1
1
1
1
1
1
1
1
1
1
1
1
1
1
1
1
1
1
1
1.00003
1.00366
1.12156
2.19017
4.85052
6.71369
6.89829
6.8434
6.75402
6.68372
6.62205
6.55665
6.49391
6.42585
6.34913
1
1
1
1
1
1
1
1
1
1
1
1
1
1
1
1
1
1
1
1
1
1
1
1
1
1
1
1
1
1
1
1
1
1
1
1
1
1
1
1
1
1
1
1
1
1
1
1
1
1
1
1
1
1
1
1
1
1
1
1
1
1
1
1
1
1
1
1
1
1
1
1
1
1
1
1
1
1
1
1
1
1
1.00001
1.00093
1.04556
1.63527
3.80242
6.22199
6.76551
6.78485
6.71245
6.64483
6.58651
6.51802
6.45025
6.36556
1
1
1
1
1
1
1
1
1
1
1
1
1
1
1
1
1
1
1
1
1
1
1
1
1
1
1
1
1
1
1
1
1
1
1
1
1
1
1
1
1
1
1
1
1
1
1
1
1
1
1
1
1
1
1
1
1
1
1
1
1
1
1
1
1
1
1
1
1
1
1
1
1
1
1
1
1
1
1
1
1
1
1
1
1.00022
1.01447
1.29354
2.74613
5.50209
6.58878
6.70121
6.66286
6.60337
6.52378
6.45302
6.40088
1
1
1
1
1
1
1
1
1
1
1
1
1
1
1
1
1
1
1
1
1
1
1
1
1
1
1
1
1
1
1
1
1
1
1
1
1
1
1
1
1
1
1
1
1
1
1
1
1
1
1
1
1
1
1
1
1
1
1
1
1
1
1
1
1
1
1
1
1
1
1
1
1
1
1
1
1
1
1
1
1
1
1
1
1
1.00004
1.00401
1.10393
2.0246
4.319
6.29188
6.66322
6.5985
6.5198
6.59613
6.83903
1
1
1
1
1
1
1
1
1
1
1
1
1
1
1
1
1
1
1
1
1
1
1
1
1
1
1
1
1
1
1
1
1
1
1
1
1
1
1
1
1
1
1
1
1
1
1
1
1
1
1
1
1
1
1
1
1
1
1
1
1
1
1
1
1
1
1
1
1
1
1
1
1
1
1
1
1
1
1
1
1
1
1
1
1
1
1.00001
1.00075
1.03523
1.47145
3.18405
5.71758
6.29259
7.32797
8.16994
8.95706
1
1
1
1
1
1
1
1
1
1
1
1
1
1
1
1
1
1
1
1
1
1
1
1
1
1
1
1
1
1
1
1
1
1
1
1
1
1
1
1
1
1
1
1
1
1
1
1
1
1
1
1
1
1
1
1
1
1
1
1
1
1
1
1
1
1
1
1
1
1
1
1
1
1
1
1
1
1
1
1
1
1
1
1
1
1
1
1
1.00015
1.00882
1.17926
2.20898
5.54498
10.3651
10.8271
10.8774
1
1
1
1
1
1
1
1
1
1
1
1
1
1
1
1
1
1
1
1
1
1
1
1
1
1
1
1
1
1
1
1
1
1
1
1
1
1
1
1
1
1
1
1
1
1
1
1
1
1
1
1
1
1
1
1
1
1
1
1
1
1
1
1
1
1
1
1
1
1
1
1
1
1
1
1
1
1
1
1
1
1
1
1
1
1
1
1
1
1.00002
1.00177
1.05037
5.85945
11.7436
11.5914
11.3073
1
1
1
1
1
1
1
1
1
1
1
1
1
1
1
1
1
1
1
1
1
1
1
1
1
1
1
1
1
1
1
1
1
1
1
1
1
1
1
1
1
1
1
1
1
1
1
1
1
1
1
1
1
1
1
1
1
1
1
1
1
1
1
1
1
1
1
1
1
1
1
1
1
1
1
1
1
1
1
1
1
1
1
1
1
1
1
1
1
1
1
1.00029
6.39
11.0637
10.9416
10.7727
1
1
1
1
1
1
1
1
1
1
1
1
1
1
1
1
1
1
1
1
1
1
1
1
1
1
1
1
1
1
1
1
1
1
1
1
1
1
1
1
1
1
1
1
1
1
1
1
1
1
1
1
1
1
1
1
1
1
1
1
1
1
1
1
1
1
1
1
1
1
1
1
1
1
1
1
1
1
1
1
1
1
1
1
1
1
1
1
1
1
1
1
5.77767
10.5164
10.6567
10.6531
1
1
1
1
1
1
1
1
1
1
1
1
1
1
1
1
1
1
1
1
1
1
1
1
1
1
1
1
1
1
1
1
1
1
1
1
1
1
1
1
1
1
1
1
1
1
1
1
1
1
1
1
1
1
1
1
1
1
1
1
1
1
1
1
1
1
1
1
1
1
1
1
1
1
1
1
1
1
1
1
1
1
1
1
1
1
1
1
1
1
1
1
4.74093
10.2316
10.5642
10.5481
1
1
1
1
1
1
1
1
1
1
1
1
1
1
1
1
1
1
1
1
1
1
1
1
1
1
1
1
1
1
1
1
1
1
1
1
1
1
1
1
1
1
1
1
1
1
1
1
1
1
1
1
1
1
1
1
1
1
1
1
1
1
1
1
1
1
1
1
1
1
1
1
1
1
1
1
1
1
1
1
1
1
1
1
1
1
1
1
1
1
1
1
3.68815
9.94719
10.5264
10.5006
1
1
1
1
1
1
1
1
1
1
1
1
1
1
1
1
1
1
1
1
1
1
1
1
1
1
1
1
1
1
1
1
1
1
1
1
1
1
1
1
1
1
1
1
1
1
1
1
1
1
1
1
1
1
1
1
1
1
1
1
1
1
1
1
1
1
1
1
1
1
1
1
1
1
1
1
1
1
1
1
1
1
1
1
1
1
1
1
1
1
1
1
2.77885
9.45564
10.4978
10.4761
1
1
1
1
1
1
1
1
1
1
1
1
1
1
1
1
1
1
1
1
1
1
1
1
1
1
1
1
1
1
1
1
1
1
1
1
1
1
1
1
1
1
1
1
1
1
1
1
1
1
1
1
1
1
1
1
1
1
1
1
1
1
1
1
1
1
1
1
1
1
1
1
1
1
1
1
1
1
1
1
1
1
1
1
1
1
1
1
1
1
1
1
2.07124
8.81766
10.4854
10.4584
1
1
1
1
1
1
1
1
1
1
1
1
1
1
1
1
1
1
1
1
1
1
1
1
1
1
1
1
1
1
1
1
1
1
1
1
1
1
1
1
1
1
1
1
1
1
1
1
1
1
1
1
1
1
1
1
1
1
1
1
1
1
1
1
1
1
1
1
1
1
1
1
1
1
1
1
1
1
1
1
1
1
1
1
1
1
1
1
1
1
1
1
1.54265
8.01561
10.4962
10.4726
1
1
1
1
1
1
1
1
1
1
1
1
1
1
1
1
1
1
1
1
1
1
1
1
1
1
1
1
1
1
1
1
1
1
1
1
1
1
1
1
1
1
1
1
1
1
1
1
1
1
1
1
1
1
1
1
1
1
1
1
1
1
1
1
1
1
1
1
1
1
1
1
1
1
1
1
1
1
1
1
1
1
1
1
1
1
1
1
1
1
1
1
1.10441
7.01697
10.4839
10.4973
1
1
1
1
1
1
1
1
1
1
1
1
1
1
1
1
1
1
1
1
1
1
1
1
1
1
1
1
1
1
1
1
1
1
1
1
1
1
1
1
1
1
1
1
1
1
1
1
1
1
1
1
1
1
1
1
1
1
1
1
1
1
1
1
1
1
1
1
1
1
1
1
1
1
1
1
1
1
1
1
1
1
1
1
1
1
1
1
1
1
1
1
1.00085
6.01126
10.3972
10.5275
1
1
1
1
1
1
1
1
1
1
1
1
1
1
1
1
1
1
1
1
1
1
1
1
1
1
1
1
1
1
1
1
1
1
1
1
1
1
1
1
1
1
1
1
1
1
1
1
1
1
1
1
1
1
1
1
1
1
1
1
1
1
1
1
1
1
1
1
1
1
1
1
1
1
1
1
1
1
1
1
1
1
1
1
1
1
1
1
1
1
1
1
1
4.99962
10.2535
10.5559
1
1
1
1
1
1
1
1
1
1
1
1
1
1
1
1
1
1
1
1
1
1
1
1
1
1
1
1
1
1
1
1
1
1
1
1
1
1
1
1
1
1
1
1
1
1
1
1
1
1
1
1
1
1
1
1
1
1
1
1
1
1
1
1
1
1
1
1
1
1
1
1
1
1
1
1
1
1
1
1
1
1
1
1
1
1
1
1
1
1
1
1
1
4.15145
10.0456
10.5686
1
1
1
1
1
1
1
1
1
1
1
1
1
1
1
1
1
1
1
1
1
1
1
1
1
1
1
1
1
1
1
1
1
1
1
1
1
1
1
1
1
1
1
1
1
1
1
1
1
1
1
1
1
1
1
1
1
1
1
1
1
1
1
1
1
1
1
1
1
1
1
1
1
1
1
1
1
1
1
1
1
1
1
1
1
1
1
1
1
1
1
1
1
3.47465
9.83704
10.5784
1
1
1
1
1
1
1
1
1
1
1
1
1
1
1
1
1
1
1
1
1
1
1
1
1
1
1
1
1
1
1
1
1
1
1
1
1
1
1
1
1
1
1
1
1
1
1
1
1
1
1
1
1
1
1
1
1
1
1
1
1
1
1
1
1
1
1
1
1
1
1
1
1
1
1
1
1
1
1
1
1
1
1
1
1
1
1
1
1
1
1
1
1
2.97374
9.59656
10.5759
1
1
1
1
1
1
1
1
1
1
1
1
1
1
1
1
1
1
1
1
1
1
1
1
1
1
1
1
1
1
1
1
1
1
1
1
1
1
1
1
1
1
1
1
1
1
1
1
1
1
1
1
1
1
1
1
1
1
1
1
1
1
1
1
1
1
1
1
1
1
1
1
1
1
1
1
1
1
1
1
1
1
1
1
1
1
1
1
1
1
1
1
1
2.61646
9.36954
10.563
1
1
1
1
1
1
1
1
1
1
1
1
1
1
1
1
1
1
1
1
1
1
1
1
1
1
1
1
1
1
1
1
1
1
1
1
1
1
1
1
1
1
1
1
1
1
1
1
1
1
1
1
1
1
1
1
1
1
1
1
1
1
1
1
1
1
1
1
1
1
1
1
1
1
1
1
1
1
1
1
1
1
1
1
1
1
1
1
1
1
1
1
1
2.38308
9.17627
10.5375
1
1
1
1
1
1
1
1
1
1
1
1
1
1
1
1
1
1
1
1
1
1
1
1
1
1
1
1
1
1
1
1
1
1
1
1
1
1
1
1
1
1
1
1
1
1
1
1
1
1
1
1
1
1
1
1
1
1
1
1
1
1
1
1
1
1
1
1
1
1
1
1
1
1
1
1
1
1
1
1
1
1
1
1
1
1
1
1
1
1
1
1
1
2.23952
9.04953
10.548
1
1
1
1
1
1
1
1
1
1
1
1
1
1
1
1
1
1
1
1
1
1
1
1
1
1
1
1
1
1
1
1
1
1
1
1
1
1
1
1
1
1
1
1
1
1
1
1
1
1
1
1
1
1
1
1
1
1
1
1
1
1
1
1
1
1
1
1
1
1
1
1
1
1
1
1
1
1
1
1
1
1
1
1
1
1
1
1
1
1
1
1
1
2.16515
9.00091
10.5911
1
1
1
1
1
1
1
1
1
1
1
1
1
1
1
1
1
1
1
1
1
1
1
1
1
1
1
1
1
1
1
1
1
1
1
1
1
1
1
1
1
1
1
1
1
1
1
1
1
1
1
1
1
1
1
1
1
1
1
1
1
1
1
1
1
1
1
1
1
1
1
1
1
1
1
1
1
1
1
1
1
1
1
1
1
1
1
1
1
1
1
1
1
2.14861
9.00535
10.6474
1
1
1
1
1
1
1
1
1
1
1
1
1
1
1
1
1
1
1
1
1
1
1
1
1
1
1
1
1
1
1
1
1
1
1
1
1
1
1
1
1
1
1
1
1
1
1
1
1
1
1
1
1
1
1
1
1
1
1
1
1
1
1
1
1
1
1
1
1
1
1
1
1
1
1
1
1
1
1
1
1
1
1
1
1
1
1
1
1
1
1
1
1
2.15882
9.02326
10.6955
1.08127
0.242796
0.0430675
0.0147537
0.0223489
0.0531041
0.102496
0.129304
0.153545
0.219368
0.310842
0.396276
0.480312
0.559978
0.60468
0.683193
0.764612
0.827654
0.883742
0.922916
0.959591
0.969527
0.993228
1.02751
1.0433
1.04939
1.05881
1.06353
1.0843
1.12889
1.17304
1.20074
1.21717
1.22547
1.23451
1.23931
1.24663
1.2551
1.26167
1.26616
1.26847
1.27376
1.28681
1.30036
1.3055
1.3085
1.31065
1.31219
1.31531
1.32078
1.33091
1.34026
1.34374
2.22753
5.33768
6.15898
6.21285
6.27674
6.31379
6.33028
6.32666
6.30779
6.28291
6.25698
6.23194
6.20892
6.18482
6.15839
6.13097
6.10369
6.0767
6.04866
6.01758
5.98389
5.95015
5.91808
5.88578
5.8486
5.80338
5.7508
5.69547
5.64334
5.59866
5.5619
5.52955
5.49668
5.4607
5.42259
5.38501
5.35034
5.31883
5.28836
5.2535
5.20671
5.1506
5.09246
5.03612
4.98845
4.94883
4.91822
4.89726
4.87992
4.85644
4.82255
4.78293
4.74068
4.69613
4.65194
4.61092
4.57259
4.53875
4.51001
4.47871
4.44239
4.40398
4.36256
4.32094
4.28469
4.25263
4.22626
4.20708
4.18674
4.15826
4.12551
4.0893
4.04982
4.00966
3.97109
3.93422
3.89904
3.86423
3.82913
3.79451
3.76045
3.72684
3.6961
3.67021
3.64447
3.61758
3.58938
3.55902
3.52635
3.49268
3.45969
3.42875
3.40093
3.37673
3.35511