/*--------------------------------*- C++ -*----------------------------------*\
  =========                 |
  \\      /  F ield         | OpenFOAM: The Open Source CFD Toolbox
   \\    /   O peration     | Website:  https://openfoam.org
    \\  /    A nd           | Version:  7
     \\/     M anipulation  |
\*---------------------------------------------------------------------------*/
FoamFile
{
    version     2.0;
    format      ascii;
    class       volScalarField;
    location    "4.4";
    object      rho;
}
// * * * * * * * * * * * * * * * * * * * * * * * * * * * * * * * * * * * * * //

dimensions      [1 -3 0 0 0 0 0];

internalField   nonuniform List<scalar> 
19968
(
1.40001
1.40001
1.40001
1.40001
1.40001
1.40001
1.40001
1.40001
1.40001
1.40001
1.40001
1.40001
1.40001
1.40001
1.40001
1.40001
1.40001
1.40001
1.40001
1.40001
1.40001
1.40001
1.40001
1.40001
1.40001
1.40001
1.40001
1.40001
1.40001
1.40001
1.40001
1.40001
1.40001
1.40001
1.40001
1.40001
1.40001
1.40001
1.40001
1.40001
1.40001
1.40001
1.40001
1.40001
1.40001
1.40001
1.40001
1.40001
1.65853
4.52519
5.43389
5.43814
5.45787
5.48088
5.50623
5.53178
5.55532
5.57521
5.5915
5.60594
5.62117
5.63904
5.65957
5.68095
5.70103
5.71841
5.73299
5.74603
5.75938
5.77431
5.79099
5.80839
5.82475
5.83884
5.85076
5.86153
5.87232
5.88381
5.89614
5.90908
5.92218
5.93486
5.9464
5.95618
5.9639
5.96979
5.9746
5.97927
5.98443
5.9902
5.99606
6.0012
6.00501
6.0073
6.00859
6.00929
1.40001
1.40001
1.40001
1.40001
1.40001
1.40001
1.40001
1.40001
1.40001
1.40001
1.40001
1.40001
1.40001
1.40001
1.40001
1.40001
1.40001
1.40001
1.40001
1.40001
1.40001
1.40001
1.40001
1.40001
1.40001
1.40001
1.40001
1.40001
1.40001
1.40001
1.40001
1.40001
1.40001
1.40001
1.40001
1.40001
1.40001
1.40001
1.40001
1.40001
1.40001
1.40001
1.40001
1.40001
1.40001
1.40001
1.40001
1.40001
1.64353
4.49701
5.42826
5.43744
5.45729
5.4798
5.5046
5.52978
5.5531
5.5728
5.58898
5.60353
5.61909
5.63738
5.65823
5.67982
5.69999
5.7174
5.73194
5.74489
5.75813
5.77296
5.78957
5.80696
5.82334
5.83745
5.84933
5.86003
5.87071
5.88209
5.89433
5.90717
5.92017
5.93274
5.94422
5.95402
5.96188
5.96798
5.97298
5.97771
5.98275
5.98823
5.99377
5.99869
6.00249
6.00497
6.00654
6.00752
1.40001
1.40001
1.40001
1.40001
1.40001
1.40001
1.40001
1.40001
1.40001
1.40001
1.40001
1.40001
1.40001
1.40001
1.40001
1.40001
1.40001
1.40001
1.40001
1.40001
1.40001
1.40001
1.40001
1.40001
1.40001
1.40001
1.40001
1.40001
1.40001
1.40001
1.40001
1.40001
1.40001
1.40001
1.40001
1.40001
1.40001
1.40001
1.40001
1.40001
1.40001
1.40001
1.40001
1.40001
1.40001
1.40001
1.40001
1.40001
1.61125
4.44131
5.42373
5.43483
5.45446
5.47638
5.50088
5.52578
5.54884
5.5683
5.58443
5.59923
5.61531
5.63415
5.65546
5.67739
5.69776
5.71525
5.72979
5.74267
5.75583
5.77057
5.78712
5.80448
5.82087
5.835
5.84687
5.85752
5.86812
5.8794
5.8915
5.9042
5.91704
5.92947
5.94084
5.95064
5.95864
5.96498
5.97021
5.975
5.97983
5.98483
5.98979
5.99423
5.99784
6.00047
6.00234
6.00368
1.40001
1.40001
1.40001
1.40001
1.40001
1.40001
1.40001
1.40001
1.40001
1.40001
1.40001
1.40001
1.40001
1.40001
1.40001
1.40001
1.40001
1.40001
1.40001
1.40001
1.40001
1.40001
1.40001
1.40001
1.40001
1.40001
1.40001
1.40001
1.40001
1.40001
1.40001
1.40001
1.40001
1.40001
1.40001
1.40001
1.40001
1.40001
1.40001
1.40001
1.40001
1.40001
1.40001
1.40001
1.40001
1.40001
1.40001
1.40001
1.56406
4.3533
5.42
5.4335
5.45224
5.4734
5.49714
5.52128
5.54358
5.56247
5.57844
5.59355
5.61019
5.62956
5.65123
5.67338
5.6939
5.71147
5.72605
5.73895
5.75214
5.76687
5.78338
5.80064
5.81692
5.83094
5.84269
5.85321
5.86366
5.87476
5.88668
5.89919
5.91186
5.92416
5.93551
5.94544
5.95373
5.96045
5.966
5.97082
5.97528
5.97956
5.98366
5.98736
5.9906
5.99326
5.99536
5.99703
1.40001
1.40001
1.40001
1.40001
1.40001
1.40001
1.40001
1.40001
1.40001
1.40001
1.40001
1.40001
1.40001
1.40001
1.40001
1.40001
1.40001
1.40001
1.40001
1.40001
1.40001
1.40001
1.40001
1.40001
1.40001
1.40001
1.40001
1.40001
1.40001
1.40001
1.40001
1.40001
1.40001
1.40001
1.40001
1.40001
1.40001
1.40001
1.40001
1.40001
1.40001
1.40001
1.40001
1.40001
1.40001
1.40001
1.40001
1.40001
1.49827
4.23622
5.41727
5.42856
5.44751
5.46834
5.49136
5.51466
5.53626
5.55484
5.57096
5.58655
5.60372
5.62342
5.64516
5.66721
5.68763
5.70526
5.7201
5.73343
5.74706
5.76205
5.77859
5.79565
5.81165
5.82539
5.83693
5.84728
5.85757
5.86849
5.8802
5.89249
5.90495
5.91712
5.92847
5.93854
5.94709
5.95414
5.95993
5.96475
5.96885
5.97246
5.97579
5.9788
5.98158
5.98413
5.98628
5.98813
1.40001
1.40001
1.40001
1.40001
1.40001
1.40001
1.40001
1.40001
1.40001
1.40001
1.40001
1.40001
1.40001
1.40001
1.40001
1.40001
1.40001
1.40001
1.40001
1.40001
1.40001
1.40001
1.40001
1.40001
1.40001
1.40001
1.40001
1.40001
1.40001
1.40001
1.40001
1.40001
1.40001
1.40001
1.40001
1.40001
1.40001
1.40001
1.40001
1.40001
1.40001
1.40001
1.40001
1.40001
1.40001
1.40001
1.40001
1.40001
1.40443
4.03482
5.40836
5.424
5.44381
5.46465
5.48679
5.50904
5.52984
5.54823
5.56459
5.5805
5.59775
5.61717
5.63829
5.65947
5.67907
5.69629
5.71132
5.72529
5.73971
5.75506
5.77155
5.7881
5.80346
5.81658
5.82767
5.83774
5.84783
5.85857
5.87008
5.88215
5.89442
5.90652
5.91796
5.92827
5.93712
5.94448
5.95049
5.95537
5.95935
5.96267
5.96565
5.96834
5.97091
5.97346
5.97562
5.97763
1.40001
1.40001
1.40001
1.40001
1.40001
1.40001
1.40001
1.40001
1.40001
1.40001
1.40001
1.40001
1.40001
1.40001
1.40001
1.40001
1.40001
1.40001
1.40001
1.40001
1.40001
1.40001
1.40001
1.40001
1.40001
1.40001
1.40001
1.40001
1.40001
1.40001
1.40001
1.40001
1.40001
1.40001
1.40001
1.40001
1.40001
1.40001
1.40001
1.40001
1.40001
1.40001
1.40001
1.40001
1.40001
1.40001
1.40001
1.40001
1.40003
3.73005
5.37242
5.40925
5.43057
5.45305
5.47602
5.49862
5.5196
5.5384
5.55538
5.57171
5.58872
5.60727
5.62711
5.64676
5.66501
5.68163
5.69699
5.71188
5.72747
5.74344
5.76004
5.77613
5.79077
5.80317
5.81383
5.82375
5.83387
5.84467
5.85618
5.86817
5.88035
5.89241
5.90391
5.91435
5.92331
5.93068
5.93661
5.94138
5.94525
5.9485
5.95138
5.95392
5.95628
5.95867
5.96061
5.96258
1.40001
1.40001
1.40001
1.40001
1.40001
1.40001
1.40001
1.40001
1.40001
1.40001
1.40001
1.40001
1.40001
1.40001
1.40001
1.40001
1.40001
1.40001
1.40001
1.40001
1.40001
1.40001
1.40001
1.40001
1.40001
1.40001
1.40001
1.40001
1.40001
1.40001
1.40001
1.40001
1.40001
1.40001
1.40001
1.40001
1.40001
1.40001
1.40001
1.40001
1.40001
1.40001
1.40001
1.40001
1.40001
1.40001
1.40001
1.40001
1.40001
3.33098
5.32021
5.39825
5.41855
5.44217
5.46675
5.4913
5.51378
5.53345
5.55071
5.56661
5.58236
5.59911
5.61704
5.63491
5.65177
5.66787
5.6836
5.69906
5.71529
5.7313
5.74752
5.76283
5.77659
5.78827
5.79847
5.80819
5.81826
5.82904
5.8405
5.85237
5.86439
5.87629
5.88769
5.89804
5.90686
5.91398
5.91961
5.92411
5.92784
5.93102
5.93387
5.93629
5.93836
5.94042
5.94192
5.94365
1.40001
1.40001
1.40001
1.40001
1.40001
1.40001
1.40001
1.40001
1.40001
1.40001
1.40001
1.40001
1.40001
1.40001
1.40001
1.40001
1.40001
1.40001
1.40001
1.40001
1.40001
1.40001
1.40001
1.40001
1.40001
1.40001
1.40001
1.40001
1.40001
1.40001
1.40001
1.40001
1.40001
1.40001
1.40001
1.40001
1.40001
1.40001
1.40001
1.40001
1.40001
1.40001
1.40001
1.40001
1.40001
1.40001
1.40001
1.40001
1.40001
2.85234
5.22471
5.39686
5.41282
5.43539
5.45997
5.48576
5.50969
5.53036
5.54791
5.56307
5.57696
5.59127
5.60687
5.62294
5.63857
5.65408
5.66972
5.68492
5.70065
5.71578
5.73077
5.74487
5.75757
5.76848
5.77813
5.78751
5.79734
5.80792
5.81919
5.83082
5.84252
5.85402
5.86496
5.87485
5.88326
5.89003
5.89544
5.89991
5.90383
5.90735
5.91053
5.91316
5.91519
5.91705
5.91818
5.91968
1.40001
1.40001
1.40001
1.40001
1.40001
1.40001
1.40001
1.40001
1.40001
1.40001
1.40001
1.40001
1.40001
1.40001
1.40001
1.40001
1.40001
1.40001
1.40001
1.40001
1.40001
1.40001
1.40001
1.40001
1.40001
1.40001
1.40001
1.40001
1.40001
1.40001
1.40001
1.40001
1.40001
1.40001
1.40001
1.40001
1.40001
1.40001
1.40001
1.40001
1.40001
1.40001
1.40001
1.40001
1.40001
1.40001
1.40001
1.40001
1.40001
2.31328
5.03199
5.41141
5.4233
5.44083
5.46126
5.48481
5.50812
5.52869
5.54595
5.56009
5.57193
5.58366
5.59699
5.61168
5.62665
5.64182
5.65716
5.67166
5.68613
5.70001
5.71335
5.72596
5.73738
5.74745
5.75634
5.76496
5.77399
5.78379
5.79432
5.80527
5.81631
5.8271
5.83728
5.84642
5.8542
5.86051
5.8656
5.86986
5.87367
5.8771
5.88017
5.8826
5.88429
5.8857
5.88633
5.88748
1.40001
1.40001
1.40001
1.40001
1.40001
1.40001
1.40001
1.40001
1.40001
1.40001
1.40001
1.40001
1.40001
1.40001
1.40001
1.40001
1.40001
1.40001
1.40001
1.40001
1.40001
1.40001
1.40001
1.40001
1.40001
1.40001
1.40001
1.40001
1.40001
1.40001
1.40001
1.40001
1.40001
1.40001
1.40001
1.40001
1.40001
1.40001
1.40001
1.40001
1.40001
1.40001
1.40001
1.40001
1.40001
1.40001
1.40001
1.40001
1.40001
1.80433
4.68476
5.43466
5.42101
5.43563
5.45152
5.473
5.49557
5.51626
5.53406
5.54896
5.56119
5.57251
5.58501
5.59915
5.61407
5.62914
5.64413
5.65784
5.67051
5.68281
5.69434
5.70554
5.71576
5.72507
5.73337
5.74125
5.74924
5.75774
5.76677
5.7761
5.78541
5.79438
5.80262
5.80988
5.816
5.82102
5.82525
5.82906
5.83276
5.83639
5.8398
5.84255
5.84448
5.84588
5.84636
5.84748
1.40001
1.40001
1.40001
1.40001
1.40001
1.40001
1.40001
1.40001
1.40001
1.40001
1.40001
1.40001
1.40001
1.40001
1.40001
1.40001
1.40001
1.40001
1.40001
1.40001
1.40001
1.40001
1.40001
1.40001
1.40001
1.40001
1.40001
1.40001
1.40001
1.40001
1.40001
1.40001
1.40001
1.40001
1.40001
1.40001
1.40001
1.40001
1.40001
1.40001
1.40001
1.40001
1.40001
1.40001
1.40001
1.40001
1.40001
1.40001
1.40001
1.41799
4.00622
5.39861
5.41062
5.42408
5.44122
5.46109
5.4819
5.50151
5.51893
5.53413
5.54689
5.55828
5.57019
5.58357
5.59783
5.61195
5.62561
5.63799
5.64865
5.65914
5.66876
5.67829
5.68725
5.69561
5.70325
5.7104
5.71742
5.72468
5.73226
5.74
5.74766
5.75497
5.7616
5.76733
5.77211
5.77604
5.77931
5.78218
5.7847
5.78688
5.78851
5.78931
5.78937
5.78917
5.78862
5.78909
1.40001
1.40001
1.40001
1.40001
1.40001
1.40001
1.40001
1.40001
1.40001
1.40001
1.40001
1.40001
1.40001
1.40001
1.40001
1.40001
1.40001
1.40001
1.40001
1.40001
1.40001
1.40001
1.40001
1.40001
1.40001
1.40001
1.40001
1.40001
1.40001
1.40001
1.40001
1.40001
1.40001
1.40001
1.40001
1.40001
1.40001
1.40001
1.40001
1.40001
1.40001
1.40001
1.40001
1.40001
1.40001
1.40001
1.40001
1.40001
1.40001
1.40003
3.11528
5.23265
5.36655
5.39001
5.41148
5.42972
5.44825
5.46639
5.48343
5.49912
5.51323
5.52592
5.5383
5.55143
5.56531
5.57913
5.59215
5.60422
5.61464
5.62419
5.63303
5.64143
5.64951
5.65694
5.66381
5.67018
5.67627
5.68226
5.68811
5.69373
5.69903
5.70391
5.70796
5.71093
5.71276
5.71362
5.71389
5.7137
5.71326
5.71324
5.71366
5.71454
5.71505
5.71561
5.71556
5.71635
1.40001
1.40001
1.40001
1.40001
1.40001
1.40001
1.40001
1.40001
1.40001
1.40001
1.40001
1.40001
1.40001
1.40001
1.40001
1.40001
1.40001
1.40001
1.40001
1.40001
1.40001
1.40001
1.40001
1.40001
1.40001
1.40001
1.40001
1.40001
1.40001
1.40001
1.40001
1.40001
1.40001
1.40001
1.40001
1.40001
1.40001
1.40001
1.40001
1.40001
1.40001
1.40001
1.40001
1.40001
1.40001
1.40001
1.40001
1.40001
1.40001
1.4
2.10151
4.86154
5.38053
5.38089
5.40139
5.41779
5.43447
5.4507
5.46604
5.48029
5.49353
5.50583
5.51768
5.52972
5.54212
5.55438
5.56562
5.57586
5.58499
5.59268
5.5999
5.60644
5.61279
5.61849
5.62346
5.6278
5.63177
5.6353
5.63831
5.64075
5.64275
5.64429
5.64512
5.64499
5.64389
5.64187
5.63922
5.6362
5.63304
5.63
5.6265
5.62224
5.61583
5.60826
5.60033
5.59356
1.40001
1.40001
1.40001
1.40001
1.40001
1.40001
1.40001
1.40001
1.40001
1.40001
1.40001
1.40001
1.40001
1.40001
1.40001
1.40001
1.40001
1.40001
1.40001
1.40001
1.40001
1.40001
1.40001
1.40001
1.40001
1.40001
1.40001
1.40001
1.40001
1.40001
1.40001
1.40001
1.40001
1.40001
1.40001
1.40001
1.40001
1.40001
1.40001
1.40001
1.40001
1.40001
1.40001
1.40001
1.40001
1.40001
1.40001
1.40001
1.40001
1.40001
1.43574
3.87516
5.37999
5.399
5.40598
5.41419
5.42328
5.43424
5.44587
5.45717
5.46782
5.47794
5.48781
5.49779
5.50798
5.51804
5.52723
5.53525
5.54264
5.54904
5.55468
5.55959
5.56376
5.56735
5.57016
5.57222
5.57349
5.57394
5.57354
5.57222
5.57036
5.56799
5.56494
5.56029
5.55365
5.54504
5.53429
5.52152
5.50689
5.49069
5.47339
5.45569
5.44057
5.42769
5.42181
5.41899
1.40001
1.40001
1.40001
1.40001
1.40001
1.40001
1.40001
1.40001
1.40001
1.40001
1.40001
1.40001
1.40001
1.40001
1.40001
1.40001
1.40001
1.40001
1.40001
1.40001
1.40001
1.40001
1.40001
1.40001
1.40001
1.40001
1.40001
1.40001
1.40001
1.40001
1.40001
1.40001
1.40001
1.40001
1.40001
1.40001
1.40001
1.40001
1.40001
1.40001
1.40001
1.40001
1.40001
1.40001
1.40001
1.40001
1.40001
1.40001
1.40001
1.40001
1.40004
2.52433
5.05114
5.35211
5.36132
5.37428
5.38693
5.40004
5.41322
5.42561
5.43668
5.44612
5.45421
5.46166
5.46904
5.47653
5.48383
5.4905
5.49641
5.50155
5.50545
5.50826
5.50996
5.511
5.51132
5.51062
5.50859
5.50494
5.49955
5.493
5.48559
5.47751
5.46843
5.45748
5.44362
5.42613
5.40505
5.38125
5.35576
5.32967
5.30346
5.27699
5.24278
5.20299
5.14735
5.16561
1.40001
1.40001
1.40001
1.40001
1.40001
1.40001
1.40001
1.40001
1.40001
1.40001
1.40001
1.40001
1.40001
1.40001
1.40001
1.40001
1.40001
1.40001
1.40001
1.40001
1.40001
1.40001
1.40001
1.40001
1.40001
1.40001
1.40001
1.40001
1.40001
1.40001
1.40001
1.40001
1.40001
1.40001
1.40001
1.40001
1.40001
1.40001
1.40001
1.40001
1.40001
1.40001
1.40001
1.40001
1.40001
1.40001
1.40001
1.40001
1.40001
1.40001
1.40001
1.50188
4.30868
5.36642
5.35601
5.35788
5.36685
5.37731
5.38957
5.40165
5.41216
5.42012
5.42566
5.42995
5.4342
5.43895
5.444
5.44883
5.45272
5.45565
5.45758
5.45827
5.45762
5.45575
5.45288
5.44924
5.44396
5.43634
5.42652
5.41475
5.40144
5.3871
5.37157
5.3538
5.33193
5.30432
5.27008
5.22959
5.18198
5.12645
5.05535
4.96107
4.81516
4.58712
4.17762
3.26953
1.40001
1.40001
1.40001
1.40001
1.40001
1.40001
1.40001
1.40001
1.40001
1.40001
1.40001
1.40001
1.40001
1.40001
1.40001
1.40001
1.40001
1.40001
1.40001
1.40001
1.40001
1.40001
1.40001
1.40001
1.40001
1.40001
1.40001
1.40001
1.40001
1.40001
1.40001
1.40001
1.40001
1.40001
1.40001
1.40001
1.40001
1.40001
1.40001
1.40001
1.40001
1.40001
1.40001
1.40001
1.40001
1.40001
1.40001
1.40001
1.40001
1.40001
1.40001
1.40039
3.1456
5.16101
5.3032
5.32221
5.33809
5.34875
5.36088
5.37293
5.38307
5.39083
5.39593
5.39922
5.40206
5.40515
5.4083
5.41114
5.41334
5.41486
5.41564
5.41494
5.41236
5.40766
5.40153
5.39451
5.38598
5.37548
5.36243
5.34646
5.32781
5.30732
5.28515
5.2604
5.23053
5.1933
5.14608
5.08945
5.01996
4.93821
4.83106
4.6934
4.48938
4.21429
3.68378
2.91656
1.40001
1.40001
1.40001
1.40001
1.40001
1.40001
1.40001
1.40001
1.40001
1.40001
1.40001
1.40001
1.40001
1.40001
1.40001
1.40001
1.40001
1.40001
1.40001
1.40001
1.40001
1.40001
1.40001
1.40001
1.40001
1.40001
1.40001
1.40001
1.40001
1.40001
1.40001
1.40001
1.40001
1.40001
1.40001
1.40001
1.40001
1.40001
1.40001
1.40001
1.40001
1.40001
1.40001
1.40001
1.40001
1.40001
1.40001
1.40001
1.40001
1.40001
1.40001
1.4
1.89325
4.69407
5.3257
5.32316
5.33038
5.33636
5.346
5.35605
5.36325
5.36886
5.37239
5.37401
5.37506
5.37614
5.37694
5.37712
5.37671
5.37557
5.37386
5.37135
5.36696
5.35984
5.35035
5.33904
5.32639
5.31217
5.29546
5.27539
5.25166
5.22523
5.19614
5.16414
5.126
5.07968
5.02087
4.95025
4.86368
4.76077
4.63233
4.46563
4.25168
3.93556
3.49296
2.98539
1.40001
1.40001
1.40001
1.40001
1.40001
1.40001
1.40001
1.40001
1.40001
1.40001
1.40001
1.40001
1.40001
1.40001
1.40001
1.40001
1.40001
1.40001
1.40001
1.40001
1.40001
1.40001
1.40001
1.40001
1.40001
1.40001
1.40001
1.40001
1.40001
1.40001
1.40001
1.40001
1.40001
1.40001
1.40001
1.40001
1.40001
1.40001
1.40001
1.40001
1.40001
1.40001
1.40001
1.40001
1.40001
1.40001
1.40001
1.40001
1.40001
1.40001
1.40001
1.4
1.41798
3.47792
5.20854
5.30398
5.32389
5.33488
5.34128
5.34457
5.34407
5.34448
5.3459
5.34683
5.34761
5.34797
5.34731
5.34501
5.34117
5.33626
5.33102
5.32564
5.31903
5.30996
5.29796
5.28329
5.2666
5.24819
5.22726
5.20306
5.17467
5.1431
5.10778
5.06905
5.0235
4.96924
4.90178
4.8207
4.7233
4.60739
4.46801
4.29393
4.07576
3.79703
3.46289
3.07925
1.40001
1.40001
1.40001
1.40001
1.40001
1.40001
1.40001
1.40001
1.40001
1.40001
1.40001
1.40001
1.40001
1.40001
1.40001
1.40001
1.40001
1.40001
1.40001
1.40001
1.40001
1.40001
1.40001
1.40001
1.40001
1.40001
1.40001
1.40001
1.40001
1.40001
1.40001
1.40001
1.40001
1.40001
1.40001
1.40001
1.40001
1.40001
1.40001
1.40001
1.40001
1.40001
1.40001
1.40001
1.40001
1.40001
1.40001
1.40001
1.40001
1.40001
1.40001
1.40001
1.39999
2.02476
4.77943
5.31233
5.30812
5.32295
5.32937
5.33102
5.32788
5.32516
5.32476
5.32439
5.32415
5.32302
5.32044
5.31568
5.30846
5.29962
5.29042
5.28085
5.27065
5.25925
5.24537
5.22851
5.20862
5.18621
5.16078
5.13237
5.09971
5.06373
5.02347
4.97894
4.92747
4.86695
4.79401
4.70716
4.6049
4.48442
4.34462
4.17304
3.96903
3.73976
3.47185
3.17997
1.40001
1.40001
1.40001
1.40001
1.40001
1.40001
1.40001
1.40001
1.40001
1.40001
1.40001
1.40001
1.40001
1.40001
1.40001
1.40001
1.40001
1.40001
1.40001
1.40001
1.40001
1.40001
1.40001
1.40001
1.40001
1.40001
1.40001
1.40001
1.40001
1.40001
1.40001
1.40001
1.40001
1.40001
1.40001
1.40001
1.40001
1.40001
1.40001
1.40001
1.40001
1.40001
1.40001
1.40001
1.40001
1.40001
1.40001
1.40001
1.40001
1.40001
1.40001
1.40001
1.4
1.42715
3.50287
5.2224
5.28713
5.29633
5.30312
5.30387
5.3024
5.30112
5.30154
5.30156
5.30066
5.29808
5.29375
5.28707
5.27737
5.26566
5.25317
5.23912
5.22426
5.2091
5.19249
5.17342
5.15094
5.12521
5.09579
5.06343
5.02704
4.98739
4.94343
4.89448
4.83853
4.7737
4.69783
4.60935
4.50739
4.38858
4.25513
4.09358
3.91387
3.71927
3.49972
3.26199
1.40001
1.40001
1.40001
1.40001
1.40001
1.40001
1.40001
1.40001
1.40001
1.40001
1.40001
1.40001
1.40001
1.40001
1.40001
1.40001
1.40001
1.40001
1.40001
1.40001
1.40001
1.40001
1.40001
1.40001
1.40001
1.40001
1.40001
1.40001
1.40001
1.40001
1.40001
1.40001
1.40001
1.40001
1.40001
1.40001
1.40001
1.40001
1.40001
1.40001
1.40001
1.40001
1.40001
1.40001
1.40001
1.40001
1.40001
1.40001
1.40001
1.40001
1.40001
1.40001
1.4
1.40002
1.93225
4.71015
5.30272
5.28634
5.28493
5.28092
5.27759
5.27578
5.27595
5.27618
5.27462
5.27112
5.26571
5.25727
5.24522
5.23134
5.21664
5.2001
5.18189
5.16298
5.14296
5.12113
5.09591
5.06694
5.03395
4.9982
4.95925
4.91743
4.87141
4.8198
4.76069
4.6929
4.6154
4.52711
4.42888
4.31423
4.18986
4.0454
3.88678
3.71967
3.53185
3.33673
1.40001
1.40001
1.40001
1.40001
1.40001
1.40001
1.40001
1.40001
1.40001
1.40001
1.40001
1.40001
1.40001
1.40001
1.40001
1.40001
1.40001
1.40001
1.40001
1.40001
1.40001
1.40001
1.40001
1.40001
1.40001
1.40001
1.40001
1.40001
1.40001
1.40001
1.40001
1.40001
1.40001
1.40001
1.40001
1.40001
1.40001
1.40001
1.40001
1.40001
1.40001
1.40001
1.40001
1.40001
1.40001
1.40001
1.40001
1.40001
1.40001
1.40001
1.40001
1.40001
1.40001
1.40001
1.41786
3.26568
5.10997
5.2471
5.24453
5.24602
5.24858
5.25054
5.2513
5.25125
5.24838
5.24361
5.23743
5.22708
5.21318
5.19775
5.18111
5.16291
5.14254
5.12105
5.09802
5.07296
5.04444
5.01192
4.97529
4.93642
4.89554
4.85224
4.80507
4.75221
4.69153
4.62244
4.5449
4.4579
4.36442
4.2553
4.14196
4.01363
3.87281
3.72828
3.56599
3.4015
1.40001
1.40001
1.40001
1.40001
1.40001
1.40001
1.40001
1.40001
1.40001
1.40001
1.40001
1.40001
1.40001
1.40001
1.40001
1.40001
1.40001
1.40001
1.40001
1.40001
1.40001
1.40001
1.40001
1.40001
1.40001
1.40001
1.40001
1.40001
1.40001
1.40001
1.40001
1.40001
1.40001
1.40001
1.40001
1.40001
1.40001
1.40001
1.40001
1.40001
1.40001
1.40001
1.40001
1.40001
1.40001
1.40001
1.40001
1.40001
1.40001
1.40001
1.40001
1.40001
1.40001
1.40001
1.40001
1.66997
4.46363
5.27963
5.24902
5.24239
5.23245
5.22791
5.22497
5.22189
5.21691
5.21058
5.20386
5.19308
5.17852
5.1621
5.14381
5.12474
5.10339
5.08131
5.05722
5.03012
4.99896
4.96338
4.92346
4.88197
4.83946
4.79503
4.74725
4.69399
4.6331
4.56381
4.48774
4.40174
4.31189
4.20938
4.10534
3.99083
3.86553
3.73933
3.59685
3.45424
1.40001
1.40001
1.40001
1.40001
1.40001
1.40001
1.40001
1.40001
1.40001
1.40001
1.40001
1.40001
1.40001
1.40001
1.40001
1.40001
1.40001
1.40001
1.40001
1.40001
1.40001
1.40001
1.40001
1.40001
1.40001
1.40001
1.40001
1.40001
1.40001
1.40001
1.40001
1.40001
1.40001
1.40001
1.40001
1.40001
1.40001
1.40001
1.40001
1.40001
1.40001
1.40001
1.40001
1.40001
1.40001
1.40001
1.40001
1.40001
1.40001
1.40001
1.40001
1.40001
1.40001
1.40001
1.40001
1.40388
2.84588
5.00269
5.18654
5.19229
5.19786
5.19539
5.1911
5.18559
5.17867
5.17019
5.16229
5.15216
5.13869
5.12249
5.10415
5.08497
5.06286
5.04074
5.01649
4.98838
4.95571
4.91851
4.87661
4.83375
4.7902
4.74459
4.69595
4.64219
4.5818
4.51342
4.44042
4.35599
4.27016
4.17437
4.07818
3.97442
3.86229
3.74946
3.62261
3.49848
1.40001
1.40001
1.40001
1.40001
1.40001
1.40001
1.40001
1.40001
1.40001
1.40001
1.40001
1.40001
1.40001
1.40001
1.40001
1.40001
1.40001
1.40001
1.40001
1.40001
1.40001
1.40001
1.40001
1.40001
1.40001
1.40001
1.40001
1.40001
1.40001
1.40001
1.40001
1.40001
1.40001
1.40001
1.40001
1.40001
1.40001
1.40001
1.40001
1.40001
1.40001
1.40001
1.40001
1.40001
1.40001
1.40001
1.40001
1.40001
1.40001
1.40001
1.40001
1.40001
1.40001
1.40001
1.40001
1.4
1.53649
3.88695
5.17397
5.18064
5.17658
5.16992
5.16519
5.15949
5.1516
5.14124
5.13068
5.12003
5.1054
5.08756
5.06821
5.04779
5.02442
5.00191
4.97781
4.94994
4.91726
4.87969
4.8376
4.79391
4.74955
4.70278
4.65316
4.5986
4.53865
4.47153
4.40124
4.3201
4.23892
4.14941
4.05999
3.96395
3.86206
3.75851
3.64582
3.53589
1.40001
1.40001
1.40001
1.40001
1.40001
1.40001
1.40001
1.40001
1.40001
1.40001
1.40001
1.40001
1.40001
1.40001
1.40001
1.40001
1.40001
1.40001
1.40001
1.40001
1.40001
1.40001
1.40001
1.40001
1.40001
1.40001
1.40001
1.40001
1.40001
1.40001
1.40001
1.40001
1.40001
1.40001
1.40001
1.40001
1.40001
1.40001
1.40001
1.40001
1.40001
1.40001
1.40001
1.40001
1.40001
1.40001
1.40001
1.40001
1.40001
1.40001
1.40001
1.40001
1.40001
1.40001
1.40001
1.4
1.4009
2.03022
4.71682
5.18487
5.15072
5.14795
5.14132
5.13456
5.12583
5.11368
5.09974
5.08661
5.07083
5.05124
5.03063
5.00903
4.98516
4.9619
4.93765
4.9103
4.87777
4.84067
4.80035
4.757
4.71319
4.666
4.61592
4.56106
4.50203
4.43563
4.36763
4.29178
4.21585
4.13215
4.04848
3.95816
3.86484
3.76925
3.66864
3.56882
1.40001
1.40001
1.40001
1.40001
1.40001
1.40001
1.40001
1.40001
1.40001
1.40001
1.40001
1.40001
1.40001
1.40001
1.40001
1.40001
1.40001
1.40001
1.40001
1.40001
1.40001
1.40001
1.40001
1.40001
1.40001
1.40001
1.40001
1.40001
1.40001
1.40001
1.40001
1.40001
1.40001
1.40001
1.40001
1.40001
1.40001
1.40001
1.40001
1.40001
1.40001
1.40001
1.40001
1.40001
1.40001
1.40001
1.40001
1.40001
1.40001
1.40001
1.40001
1.40001
1.40001
1.40001
1.40001
1.40001
1.40001
1.42334
3.02283
5.03054
5.12999
5.12808
5.1242
5.11602
5.10613
5.0924
5.07542
5.05836
5.04083
5.01947
4.99704
4.97418
4.94988
4.92594
4.90093
4.87432
4.84198
4.80562
4.7663
4.72464
4.68059
4.63442
4.58441
4.53016
4.47174
4.40681
4.34125
4.27063
4.19908
4.12035
4.04193
3.9572
3.87179
3.7814
3.69096
3.59812
1.40001
1.40001
1.40001
1.40001
1.40001
1.40001
1.40001
1.40001
1.40001
1.40001
1.40001
1.40001
1.40001
1.40001
1.40001
1.40001
1.40001
1.40001
1.40001
1.40001
1.40001
1.40001
1.40001
1.40001
1.40001
1.40001
1.40001
1.40001
1.40001
1.40001
1.40001
1.40001
1.40001
1.40001
1.40001
1.40001
1.40001
1.40001
1.40001
1.40001
1.40001
1.40001
1.40001
1.40001
1.40001
1.40001
1.40001
1.40001
1.40001
1.40001
1.40001
1.40001
1.40001
1.40001
1.40001
1.40001
1.40001
1.40005
1.56118
3.72948
5.08859
5.13228
5.12134
5.11372
5.10052
5.08284
5.06194
5.04012
5.01902
4.99595
4.97113
4.94621
4.92069
4.89554
4.86906
4.84104
4.80974
4.77352
4.7348
4.69337
4.64997
4.60454
4.5551
4.50213
4.44541
4.38464
4.32168
4.25517
4.18672
4.11261
4.03806
3.9586
3.87986
3.79459
3.71219
3.62408
1.40001
1.40001
1.40001
1.40001
1.40001
1.40001
1.40001
1.40001
1.40001
1.40001
1.40001
1.40001
1.40001
1.40001
1.40001
1.40001
1.40001
1.40001
1.40001
1.40001
1.40001
1.40001
1.40001
1.40001
1.40001
1.40001
1.40001
1.40001
1.40001
1.40001
1.40001
1.40001
1.40001
1.40001
1.40001
1.40001
1.40001
1.40001
1.40001
1.40001
1.40001
1.40001
1.40001
1.40001
1.40001
1.40001
1.40001
1.40001
1.40001
1.40001
1.40001
1.40001
1.40001
1.40001
1.40001
1.40001
1.40001
1.40001
1.40137
1.77437
4.40985
5.16453
5.1344
5.11686
5.09038
5.06667
5.04273
5.01909
4.99601
4.97274
4.94758
4.92137
4.89518
4.86873
4.84164
4.81168
4.78013
4.74369
4.70519
4.66407
4.62122
4.57639
4.52807
4.47708
4.42351
4.36731
4.3077
4.24481
4.17891
4.10912
4.03716
3.96259
3.88849
3.80888
3.73197
3.64793
1.40001
1.40001
1.40001
1.40001
1.40001
1.40001
1.40001
1.40001
1.40001
1.40001
1.40001
1.40001
1.40001
1.40001
1.40001
1.40001
1.40001
1.40001
1.40001
1.40001
1.40001
1.40001
1.40001
1.40001
1.40001
1.40001
1.40001
1.40001
1.40001
1.40001
1.40001
1.40001
1.40001
1.40001
1.40001
1.40001
1.40001
1.40001
1.40001
1.40001
1.40001
1.40001
1.40001
1.40001
1.40001
1.40001
1.40001
1.40001
1.40001
1.40001
1.40001
1.40001
1.40001
1.40001
1.40001
1.40001
1.40001
1.40001
1.40001
1.40757
2.44922
4.86662
5.1164
5.08262
5.05953
5.03755
5.01803
4.99777
4.97626
4.95369
4.92997
4.90437
4.87686
4.849
4.82006
4.78852
4.75523
4.71872
4.6796
4.6385
4.59592
4.55151
4.50414
4.45546
4.40474
4.352
4.2958
4.23654
4.17354
4.10758
4.03829
3.96874
3.8977
3.82347
3.75022
3.67069
1.40001
1.40001
1.40001
1.40001
1.40001
1.40001
1.40001
1.40001
1.40001
1.40001
1.40001
1.40001
1.40001
1.40001
1.40001
1.40001
1.40001
1.40001
1.40001
1.40001
1.40001
1.40001
1.40001
1.40001
1.40001
1.40001
1.40001
1.40001
1.40001
1.40001
1.40001
1.40001
1.40001
1.40001
1.40001
1.40001
1.40001
1.40001
1.40001
1.40001
1.40001
1.40001
1.40001
1.40001
1.40001
1.40001
1.40001
1.40001
1.40001
1.40001
1.40001
1.40001
1.40001
1.40001
1.40001
1.40001
1.40001
1.40001
1.40001
1.40002
1.46314
3.12242
4.9835
5.04681
5.0278
5.02112
5.00811
4.99115
4.97092
4.94794
4.92357
4.89735
4.86911
4.83872
4.80788
4.7746
4.73911
4.70122
4.66097
4.6191
4.5761
4.53166
4.48526
4.4377
4.38899
4.33862
4.28532
4.22923
4.16953
4.10711
4.04143
3.97615
3.90786
3.8383
3.76756
3.69286
1.40001
1.40001
1.40001
1.40001
1.40001
1.40001
1.40001
1.40001
1.40001
1.40001
1.40001
1.40001
1.40001
1.40001
1.40001
1.40001
1.40001
1.40001
1.40001
1.40001
1.40001
1.40001
1.40001
1.40001
1.40001
1.40001
1.40001
1.40001
1.40001
1.40001
1.40001
1.40001
1.40001
1.40001
1.40001
1.40001
1.40001
1.40001
1.40001
1.40001
1.40001
1.40001
1.40001
1.40001
1.40001
1.40001
1.40001
1.40001
1.40001
1.40001
1.40001
1.40001
1.40001
1.40001
1.40001
1.40001
1.40001
1.40001
1.40001
1.40001
1.40029
1.57939
3.52207
4.98111
5.00898
5.00432
4.99712
4.98283
4.96409
4.94214
4.91782
4.89149
4.86307
4.83235
4.79995
4.76574
4.72924
4.69025
4.64912
4.60637
4.56249
4.51757
4.47149
4.42433
4.3765
4.32727
4.27599
4.2223
4.16576
4.10656
4.04484
3.98278
3.91765
3.85192
3.78363
3.71365
1.40001
1.40001
1.40001
1.40001
1.40001
1.40001
1.40001
1.40001
1.40001
1.40001
1.40001
1.40001
1.40001
1.40001
1.40001
1.40001
1.40001
1.40001
1.40001
1.40001
1.40001
1.40001
1.40001
1.40001
1.40001
1.40001
1.40001
1.40001
1.40001
1.40001
1.40001
1.40001
1.40001
1.40001
1.40001
1.40001
1.40001
1.40001
1.40001
1.40001
1.40001
1.40001
1.40001
1.40001
1.40001
1.40001
1.40001
1.40001
1.40001
1.40001
1.40001
1.40001
1.40001
1.40001
1.40001
1.40001
1.40001
1.40001
1.40001
1.40001
1.40001
1.40182
1.6969
3.82638
5.00207
5.00426
4.99137
4.97459
4.95472
4.93296
4.90958
4.88407
4.85614
4.8261
4.79413
4.76029
4.72404
4.68518
4.64399
4.60092
4.55642
4.51091
4.4645
4.41722
4.36935
4.32014
4.26954
4.21717
4.16296
4.10625
4.04784
3.98831
3.92652
3.86385
3.7985
3.73266
1.40001
1.40001
1.40001
1.40001
1.40001
1.40001
1.40001
1.40001
1.40001
1.40001
1.40001
1.40001
1.40001
1.40001
1.40001
1.40001
1.40001
1.40001
1.40001
1.40001
1.40001
1.40001
1.40001
1.40001
1.40001
1.40001
1.40001
1.40001
1.40001
1.40001
1.40001
1.40001
1.40001
1.40001
1.40001
1.40001
1.40001
1.40001
1.40001
1.40001
1.40001
1.40001
1.40001
1.40001
1.40001
1.40001
1.40001
1.40001
1.40001
1.40001
1.40001
1.40001
1.40001
1.40001
1.40001
1.40001
1.40001
1.40001
1.40001
1.40001
1.40001
1.40001
1.40482
1.82032
4.09994
5.0075
4.99559
4.97305
4.94905
4.92501
4.90018
4.87406
4.84605
4.8167
4.78594
4.75335
4.71809
4.68033
4.64027
4.59817
4.55426
4.50901
4.46251
4.41496
4.36677
4.31739
4.26677
4.21489
4.16167
4.10655
4.0507
3.99334
3.93451
3.87443
3.81231
3.75005
1.40001
1.40001
1.40001
1.40001
1.40001
1.40001
1.40001
1.40001
1.40001
1.40001
1.40001
1.40001
1.40001
1.40001
1.40001
1.40001
1.40001
1.40001
1.40001
1.40001
1.40001
1.40001
1.40001
1.40001
1.40001
1.40001
1.40001
1.40001
1.40001
1.40001
1.40001
1.40001
1.40001
1.40001
1.40001
1.40001
1.40001
1.40001
1.40001
1.40001
1.40001
1.40001
1.40001
1.40001
1.40001
1.40001
1.40001
1.40001
1.40001
1.40001
1.40001
1.40001
1.40001
1.40001
1.40001
1.40001
1.40001
1.40001
1.40001
1.40001
1.40001
1.40001
1.40001
1.40955
1.95785
4.30592
5.00983
4.98681
4.95936
4.93102
4.90222
4.87184
4.84119
4.81035
4.77885
4.74589
4.71122
4.6748
4.63644
4.59614
4.55379
4.50957
4.46369
4.41655
4.36844
4.31917
4.26864
4.21705
4.16417
4.11033
4.05655
4.00111
3.94437
3.88628
3.82684
3.76742
1.40001
1.40001
1.40001
1.40001
1.40001
1.40001
1.40001
1.40001
1.40001
1.40001
1.40001
1.40001
1.40001
1.40001
1.40001
1.40001
1.40001
1.40001
1.40001
1.40001
1.40001
1.40001
1.40001
1.40001
1.40001
1.40001
1.40001
1.40001
1.40001
1.40001
1.40001
1.40001
1.40001
1.40001
1.40001
1.40001
1.40001
1.40001
1.40001
1.40001
1.40001
1.40001
1.40001
1.40001
1.40001
1.40001
1.40001
1.40001
1.40001
1.40001
1.40001
1.40001
1.40001
1.40001
1.40001
1.40001
1.40001
1.40001
1.40001
1.40001
1.40001
1.40001
1.40001
1.40003
1.41674
2.09345
4.45172
5.00691
4.98078
4.94933
4.91482
4.88085
4.84781
4.81388
4.77882
4.74278
4.7067
4.66991
4.63198
4.59243
4.55122
4.50821
4.46362
4.41784
4.3709
4.32268
4.27326
4.22286
4.17122
4.11885
4.06629
4.0122
3.95661
3.89999
3.84252
3.78528
1.40001
1.40001
1.40001
1.40001
1.40001
1.40001
1.40001
1.40001
1.40001
1.40001
1.40001
1.40001
1.40001
1.40001
1.40001
1.40001
1.40001
1.40001
1.40001
1.40001
1.40001
1.40001
1.40001
1.40001
1.40001
1.40001
1.40001
1.40001
1.40001
1.40001
1.40001
1.40001
1.40001
1.40001
1.40001
1.40001
1.40001
1.40001
1.40001
1.40001
1.40001