-4.995 	348.432 	2.33397e-13 	100000
-4.994 	348.432 	1.82459e-13 	100000
-4.993 	348.432 	1.60302e-13 	100000
-4.992 	348.432 	2.62256e-13 	100000
-4.991 	348.432 	4.72985e-13 	100000
-4.99 	348.432 	6.70622e-13 	100000
-4.98901 	348.432 	8.30216e-13 	100000
-4.98801 	348.432 	1.07061e-12 	100000
-4.98701 	348.432 	1.39025e-12 	100000
-4.98601 	348.432 	1.63307e-12 	100000
-4.98501 	348.432 	1.73484e-12 	100000
-4.98401 	348.432 	2.03731e-12 	100000
-4.98301 	348.432 	2.21885e-12 	100000
-4.98201 	348.432 	2.23693e-12 	100000
-4.98101 	348.432 	2.07802e-12 	100000
-4.98001 	348.432 	1.8798e-12 	100000
-4.97901 	348.432 	1.81303e-12 	100000
-4.97802 	348.432 	1.57104e-12 	100000
-4.97702 	348.432 	1.49449e-12 	100000
-4.97602 	348.432 	1.29167e-12 	100000
-4.97502 	348.432 	1.02216e-12 	100000
-4.97402 	348.432 	9.84918e-13 	100000
-4.97302 	348.432 	9.28316e-13 	100000
-4.97202 	348.432 	7.77355e-13 	100000
-4.97102 	348.432 	7.26844e-13 	100000
-4.97002 	348.432 	7.59852e-13 	100000
-4.96902 	348.432 	7.1546e-13 	100000
-4.96802 	348.432 	6.51616e-13 	100000
-4.96703 	348.432 	5.49597e-13 	100000
-4.96603 	348.432 	3.78449e-13 	100000
-4.96503 	348.432 	3.10082e-13 	100000
-4.96403 	348.432 	3.44837e-13 	100000
-4.96303 	348.432 	3.68195e-13 	100000
-4.96203 	348.432 	4.44479e-13 	100000
-4.96103 	348.432 	5.68609e-13 	100000
-4.96003 	348.432 	7.27527e-13 	100000
-4.95903 	348.432 	7.24435e-13 	100000
-4.95803 	348.432 	6.78795e-13 	100000
-4.95703 	348.432 	6.37042e-13 	100000
-4.95604 	348.432 	5.64171e-13 	100000
-4.95504 	348.432 	5.11606e-13 	100000
-4.95404 	348.432 	4.3517e-13 	100000
-4.95304 	348.432 	2.97261e-13 	100000
-4.95204 	348.432 	2.25539e-13 	100000
-4.95104 	348.432 	3.00556e-13 	100000
-4.95004 	348.432 	5.26731e-13 	100000
-4.94904 	348.432 	6.13225e-13 	100000
-4.94804 	348.432 	5.43938e-13 	100000
-4.94704 	348.432 	5.10195e-13 	100000
-4.94604 	348.432 	3.36578e-13 	100000
-4.94505 	348.432 	2.40034e-13 	100000
-4.94405 	348.432 	2.47984e-13 	100000
-4.94305 	348.432 	2.41373e-13 	100000
-4.94205 	348.432 	1.9381e-13 	100000
-4.94105 	348.432 	2.77566e-13 	100000
-4.94005 	348.432 	3.78475e-13 	100000
-4.93905 	348.432 	3.45683e-13 	100000
-4.93805 	348.432 	3.21859e-13 	100000
-4.93705 	348.432 	2.66057e-13 	100000
-4.93605 	348.432 	2.08548e-13 	100000
-4.93505 	348.432 	8.10179e-14 	100000
-4.93405 	348.432 	8.59219e-14 	100000
-4.93306 	348.432 	1.34509e-13 	100000
-4.93206 	348.432 	2.33246e-13 	100000
-4.93106 	348.432 	1.77266e-13 	100000
-4.93006 	348.432 	4.03481e-14 	100000
-4.92906 	348.432 	1.11499e-13 	100000
-4.92806 	348.432 	1.15562e-13 	100000
-4.92706 	348.432 	9.03534e-14 	100000
-4.92606 	348.432 	2.07938e-13 	100000
-4.92506 	348.432 	4.08326e-13 	100000
-4.92406 	348.432 	5.14284e-13 	100000
-4.92306 	348.432 	5.25819e-13 	100000
-4.92207 	348.432 	6.46844e-13 	100000
-4.92107 	348.432 	7.86263e-13 	100000
-4.92007 	348.432 	9.679e-13 	100000
-4.91907 	348.432 	1.12752e-12 	100000
-4.91807 	348.432 	1.19638e-12 	100000
-4.91707 	348.432 	1.19181e-12 	100000
-4.91607 	348.432 	1.10238e-12 	100000
-4.91507 	348.432 	1.05035e-12 	100000
-4.91407 	348.432 	1.01686e-12 	100000
-4.91307 	348.432 	1.0565e-12 	100000
-4.91207 	348.432 	8.78755e-13 	100000
-4.91108 	348.432 	5.52965e-13 	100000
-4.91008 	348.432 	4.83094e-13 	100000
-4.90908 	348.432 	3.40209e-13 	100000
-4.90808 	348.432 	1.55189e-13 	100000
-4.90708 	348.432 	1.98878e-13 	100000
-4.90608 	348.432 	1.98662e-13 	100000
-4.90508 	348.432 	3.58977e-13 	100000
-4.90408 	348.432 	4.27811e-13 	100000
-4.90308 	348.432 	5.886e-13 	100000
-4.90208 	348.432 	8.48506e-13 	100000
-4.90108 	348.432 	9.16309e-13 	100000
-4.90009 	348.432 	1.10826e-12 	100000
-4.89909 	348.432 	1.23488e-12 	100000
-4.89809 	348.432 	1.20288e-12 	100000
-4.89709 	348.432 	1.15669e-12 	100000
-4.89609 	348.432 	1.13542e-12 	100000
-4.89509 	348.432 	9.58676e-13 	100000
-4.89409 	348.432 	8.18215e-13 	100000
-4.89309 	348.432 	6.79052e-13 	100000
-4.89209 	348.432 	6.68843e-13 	100000
-4.89109 	348.432 	6.70084e-13 	100000
-4.89009 	348.432 	5.53917e-13 	100000
-4.8891 	348.432 	5.51869e-13 	100000
-4.8881 	348.432 	5.83223e-13 	100000
-4.8871 	348.432 	5.04476e-13 	100000
-4.8861 	348.432 	4.34618e-13 	100000
-4.8851 	348.432 	5.02034e-13 	100000
-4.8841 	348.432 	6.00987e-13 	100000
-4.8831 	348.432 	6.03784e-13 	100000
-4.8821 	348.432 	7.06e-13 	100000
-4.8811 	348.432 	8.0173e-13 	100000
-4.8801 	348.432 	9.10452e-13 	100000
-4.8791 	348.432 	9.04091e-13 	100000
-4.87811 	348.432 	8.6757e-13 	100000
-4.87711 	348.432 	8.0714e-13 	100000
-4.87611 	348.432 	8.12714e-13 	100000
-4.87511 	348.432 	6.8817e-13 	100000
-4.87411 	348.432 	7.31893e-13 	100000
-4.87311 	348.432 	7.86999e-13 	100000
-4.87211 	348.432 	9.16658e-13 	100000
-4.87111 	348.432 	1.12961e-12 	100000
-4.87011 	348.432 	1.27712e-12 	100000
-4.86911 	348.432 	1.3185e-12 	100000
-4.86811 	348.432 	1.31056e-12 	100000
-4.86712 	348.432 	1.15458e-12 	100000
-4.86612 	348.432 	9.48175e-13 	100000
-4.86512 	348.432 	8.532e-13 	100000
-4.86412 	348.432 	6.83469e-13 	100000
-4.86312 	348.432 	5.95263e-13 	100000
-4.86212 	348.432 	5.45894e-13 	100000
-4.86112 	348.432 	5.49775e-13 	100000
-4.86012 	348.432 	4.1199e-13 	100000
-4.85912 	348.432 	3.00221e-13 	100000
-4.85812 	348.432 	1.84337e-13 	100000
-4.85712 	348.432 	2.47984e-13 	100000
-4.85613 	348.432 	2.80796e-13 	100000
-4.85513 	348.432 	4.11884e-13 	100000
-4.85413 	348.432 	5.61499e-13 	100000
-4.85313 	348.432 	7.22951e-13 	100000
-4.85213 	348.432 	9.82331e-13 	100000
-4.85113 	348.432 	1.04866e-12 	100000
-4.85013 	348.432 	1.10196e-12 	100000
-4.84913 	348.432 	1.2668e-12 	100000
-4.84813 	348.432 	1.31822e-12 	100000
-4.84713 	348.432 	1.23113e-12 	100000
-4.84613 	348.432 	1.03818e-12 	100000
-4.84514 	348.432 	1.03985e-12 	100000
-4.84414 	348.432 	1.1126e-12 	100000
-4.84314 	348.432 	1.01988e-12 	100000
-4.84214 	348.432 	9.69095e-13 	100000
-4.84114 	348.432 	9.71569e-13 	100000
-4.84014 	348.432 	8.55569e-13 	100000
-4.83914 	348.432 	9.32589e-13 	100000
-4.83814 	348.432 	7.44268e-13 	100000
-4.83714 	348.432 	6.87349e-13 	100000
-4.83614 	348.432 	3.29271e-13 	100000
-4.83514 	348.432 	2.34625e-13 	100000
-4.83414 	348.432 	1.72724e-13 	100000
-4.83315 	348.432 	2.32484e-13 	100000
-4.83215 	348.432 	1.68148e-13 	100000
-4.83115 	348.432 	1.74076e-13 	100000
-4.83015 	348.432 	2.60188e-13 	100000
-4.82915 	348.432 	3.74497e-13 	100000
-4.82815 	348.432 	6.06226e-13 	100000
-4.82715 	348.432 	4.00973e-13 	100000
-4.82615 	348.432 	3.33578e-13 	100000
-4.82515 	348.432 	1.05098e-13 	100000
-4.82415 	348.432 	2.42936e-13 	100000
-4.82315 	348.432 	2.33397e-13 	100000
-4.82216 	348.432 	3.94107e-13 	100000
-4.82116 	348.432 	6.75145e-13 	100000
-4.82016 	348.432 	7.02193e-13 	100000
-4.81916 	348.432 	9.30771e-13 	100000
-4.81816 	348.432 	1.12387e-12 	100000
-4.81716 	348.432 	1.22122e-12 	100000
-4.81616 	348.432 	1.33782e-12 	100000
-4.81516 	348.432 	1.33115e-12 	100000
-4.81416 	348.432 	1.21124e-12 	100000
-4.81316 	348.432 	1.30317e-12 	100000
-4.81216 	348.432 	1.25417e-12 	100000
-4.81117 	348.432 	1.21586e-12 	100000
-4.81017 	348.432 	1.41986e-12 	100000
-4.80917 	348.432 	1.35213e-12 	100000
-4.80817 	348.432 	1.0453e-12 	100000
-4.80717 	348.432 	1.08922e-12 	100000
-4.80617 	348.432 	9.8803e-13 	100000
-4.80517 	348.432 	7.92704e-13 	100000
-4.80417 	348.432 	7.9227e-13 	100000
-4.80317 	348.432 	7.21704e-13 	100000
-4.80217 	348.432 	5.24526e-13 	100000
-4.80117 	348.432 	5.78746e-13 	100000
-4.80018 	348.432 	5.26305e-13 	100000
-4.79918 	348.432 	3.85697e-13 	100000
-4.79818 	348.432 	3.38351e-13 	100000
-4.79718 	348.432 	3.54139e-13 	100000
-4.79618 	348.432 	1.49464e-13 	100000
-4.79518 	348.432 	1.67465e-13 	100000
-4.79418 	348.432 	8.1622e-14 	100000
-4.79318 	348.432 	1.59135e-13 	100000
-4.79218 	348.432 	1.81784e-13 	100000
-4.79118 	348.432 	2.0826e-13 	100000
-4.79018 	348.432 	3.08762e-13 	100000
-4.78919 	348.432 	1.7143e-13 	100000
-4.78819 	348.432 	4.08169e-13 	100000
-4.78719 	348.432 	2.0692e-13 	100000
-4.78619 	348.432 	8.48516e-14 	100000
-4.78519 	348.432 	5.08784e-14 	100000
-4.78419 	348.432 	1.44856e-13 	100000
-4.78319 	348.432 	1.38967e-13 	100000
-4.78219 	348.432 	5.38522e-14 	100000
-4.78119 	348.432 	1.28955e-13 	100000
-4.78019 	348.432 	3.56687e-13 	100000
-4.77919 	348.432 	4.24246e-13 	100000
-4.7782 	348.432 	4.64969e-13 	100000
-4.7772 	348.432 	6.36117e-13 	100000
-4.7762 	348.432 	6.74102e-13 	100000
-4.7752 	348.432 	7.23588e-13 	100000
-4.7742 	348.432 	7.79088e-13 	100000
-4.7732 	348.432 	8.60651e-13 	100000
-4.7722 	348.432 	8.82479e-13 	100000
-4.7712 	348.432 	8.2042e-13 	100000
-4.7702 	348.432 	5.15262e-13 	100000
-4.7692 	348.432 	3.49485e-13 	100000
-4.7682 	348.432 	1.75048e-13 	100000
-4.76721 	348.432 	2.05148e-13 	100000
-4.76621 	348.432 	3.24315e-13 	100000
-4.76521 	348.432 	3.77786e-13 	100000
-4.76421 	348.432 	3.35652e-13 	100000
-4.76321 	348.432 	5.36769e-13 	100000
-4.76221 	348.432 	5.24657e-13 	100000
-4.76121 	348.432 	7.85791e-13 	100000
-4.76021 	348.432 	8.21097e-13 	100000
-4.75921 	348.432 	7.60161e-13 	100000
-4.75821 	348.432 	6.29492e-13 	100000
-4.75721 	348.432 	6.06384e-13 	100000
-4.75622 	348.432 	3.2075e-13 	100000
-4.75522 	348.432 	4.29512e-13 	100000
-4.75422 	348.432 	3.76801e-13 	100000
-4.75322 	348.432 	4.23754e-13 	100000
-4.75222 	348.432 	2.93571e-13 	100000
-4.75122 	348.432 	2.49619e-13 	100000
-4.75022 	348.432 	4.14051e-14 	100000
-4.74922 	348.432 	6.07454e-14 	100000
-4.74822 	348.432 	4.13263e-14 	100000
-4.74722 	348.432 	1.13311e-13 	100000
-4.74622 	348.432 	1.86615e-13 	100000
-4.74523 	348.432 	2.06402e-13 	100000
-4.74423 	348.432 	5.4535e-13 	100000
-4.74323 	348.432 	8.70189e-13 	100000
-4.74223 	348.432 	1.23205e-12 	100000
-4.74123 	348.432 	1.17322e-12 	100000
-4.74023 	348.432 	1.42525e-12 	100000
-4.73923 	348.432 	1.51201e-12 	100000
-4.73823 	348.432 	1.45089e-12 	100000
-4.73723 	348.432 	1.55456e-12 	100000
-4.73623 	348.432 	1.72116e-12 	100000
-4.73523 	348.432 	1.35244e-12 	100000
-4.73423 	348.432 	1.58175e-12 	100000
-4.73324 	348.432 	1.32194e-12 	100000
-4.73224 	348.432 	1.19077e-12 	100000
-4.73124 	348.432 	1.05578e-12 	100000
-4.73024 	348.432 	9.32918e-13 	100000
-4.72924 	348.432 	8.74621e-13 	100000
-4.72824 	348.432 	7.10261e-13 	100000
-4.72724 	348.432 	3.68458e-13 	100000
-4.72624 	348.432 	3.41653e-13 	100000
-4.72524 	348.432 	2.07157e-13 	100000
-4.72424 	348.432 	1.76111e-13 	100000
-4.72324 	348.432 	2.35609e-13 	100000
-4.72225 	348.432 	1.47869e-13 	100000
-4.72125 	348.432 	4.29439e-13 	100000
-4.72025 	348.432 	3.18104e-13 	100000
-4.71925 	348.432 	5.10188e-13 	100000
-4.71825 	348.432 	3.86701e-13 	100000
-4.71725 	348.432 	6.12601e-13 	100000
-4.71625 	348.432 	8.60519e-13 	100000
-4.71525 	348.432 	9.19237e-13 	100000
-4.71425 	348.432 	8.53101e-13 	100000
-4.71325 	348.432 	8.8309e-13 	100000
-4.71225 	348.432 	7.73127e-13 	100000
-4.71126 	348.432 	7.80257e-13 	100000
-4.71026 	348.432 	7.9875e-13 	100000
-4.70926 	348.432 	7.66483e-13 	100000
-4.70826 	348.432 	6.86089e-13 	100000
-4.70726 	348.432 	5.78621e-13 	100000
-4.70626 	348.432 	3.68773e-13 	100000
-4.70526 	348.432 	2.69274e-13 	100000
-4.70426 	348.432 	1.13915e-13 	100000
-4.70326 	348.432 	2.84826e-13 	100000
-4.70226 	348.432 	2.69464e-13 	100000
-4.70126 	348.432 	2.36811e-13 	100000
-4.70027 	348.432 	8.22915e-14 	100000
-4.69927 	348.432 	1.50238e-13 	100000
-4.69827 	348.432 	9.63336e-14 	100000
-4.69727 	348.432 	5.9603e-14 	100000
-4.69627 	348.432 	1.40253e-13 	100000
-4.69527 	348.432 	1.03129e-13 	100000
-4.69427 	348.432 	2.57687e-13 	100000
-4.69327 	348.432 	4.54261e-13 	100000
-4.69227 	348.432 	5.30448e-13 	100000
-4.69127 	348.432 	6.50914e-13 	100000
-4.69027 	348.432 	8.05164e-13 	100000
-4.68928 	348.432 	7.50813e-13 	100000
-4.68828 	348.432 	9.17653e-13 	100000
-4.68728 	348.432 	1.02912e-12 	100000
-4.68628 	348.432 	9.14123e-13 	100000
-4.68528 	348.432 	9.99749e-13 	100000
-4.68428 	348.432 	1.14626e-12 	100000
-4.68328 	348.432 	1.04989e-12 	100000
-4.68228 	348.432 	1.10782e-12 	100000
-4.68128 	348.432 	9.95737e-13 	100000
-4.68028 	348.432 	1.09751e-12 	100000
-4.67928 	348.432 	8.61786e-13 	100000
-4.67829 	348.432 	8.78291e-13 	100000
-4.67729 	348.432 	7.13773e-13 	100000
-4.67629 	348.432 	6.6885e-13 	100000
-4.67529 	348.432 	6.68397e-13 	100000
-4.67429 	348.432 	5.14442e-13 	100000
-4.67329 	348.432 	5.74294e-13 	100000
-4.67229 	348.432 	5.30572e-13 	100000
-4.67129 	348.432 	5.20285e-13 	100000
-4.67029 	348.432 	5.88455e-13 	100000
-4.66929 	348.432 	4.32689e-13 	100000
-4.66829 	348.432 	1.98636e-13 	100000
-4.6673 	348.432 	2.24436e-13 	100000
-4.6663 	348.432 	1.77739e-13 	100000
-4.6653 	348.432 	1.8458e-13 	100000
-4.6643 	348.432 	4.67549e-13 	100000
-4.6633 	348.432 	8.49511e-13 	100000
-4.6623 	348.432 	1.19614e-12 	100000
-4.6613 	348.432 	1.14072e-12 	100000
-4.6603 	348.432 	1.17846e-12 	100000
-4.6593 	348.432 	1.23469e-12 	100000
-4.6583 	348.432 	9.81191e-13 	100000
-4.6573 	348.432 	7.44261e-13 	100000
-4.65631 	348.432 	6.23065e-13 	100000
-4.65531 	348.432 	3.90148e-13 	100000
-4.65431 	348.432 	4.56539e-13 	100000
-4.65331 	348.432 	2.55304e-13 	100000
-4.65231 	348.432 	1.02111e-13 	100000
-4.65131 	348.432 	1.52097e-13 	100000
-4.65031 	348.432 	3.59155e-13 	100000
-4.64931 	348.432 	3.85021e-13 	100000
-4.64831 	348.432 	6.14505e-13 	100000
-4.64731 	348.432 	7.2647e-13 	100000
-4.64631 	348.432 	8.90856e-13 	100000
-4.64532 	348.432 	8.44967e-13 	100000
-4.64432 	348.432 	8.80247e-13 	100000
-4.64332 	348.432 	7.99846e-13 	100000
-4.64232 	348.432 	9.16341e-13 	100000
-4.64132 	348.432 	9.36161e-13 	100000
-4.64032 	348.432 	1.01891e-12 	100000
-4.63932 	348.432 	8.56587e-13 	100000
-4.63832 	348.432 	1.36078e-12 	100000
-4.63732 	348.432 	1.32064e-12 	100000
-4.63632 	348.432 	1.37984e-12 	100000
-4.63532 	348.432 	1.4802e-12 	100000
-4.63432 	348.432 	1.45436e-12 	100000
-4.63333 	348.432 	1.52282e-12 	100000
-4.63233 	348.432 	1.58886e-12 	100000
-4.63133 	348.432 	1.43157e-12 	100000
-4.63033 	348.432 	1.33619e-12 	100000
-4.62933 	348.432 	1.16449e-12 	100000
-4.62833 	348.432 	1.1029e-12 	100000
-4.62733 	348.432 	8.31109e-13 	100000
-4.62633 	348.432 	6.21936e-13 	100000
-4.62533 	348.432 	2.94155e-13 	100000
-4.62433 	348.432 	2.18862e-13 	100000
-4.62333 	348.432 	1.50692e-13 	100000
-4.62234 	348.432 	1.72652e-13 	100000
-4.62134 	348.432 	2.08121e-13 	100000
-4.62034 	348.432 	4.16657e-13 	100000
-4.61934 	348.432 	2.66392e-13 	100000
-4.61834 	348.432 	4.37619e-13 	100000
-4.61734 	348.432 	4.3995e-13 	100000
-4.61634 	348.432 	4.29032e-13 	100000
-4.61534 	348.432 	3.29376e-13 	100000
-4.61434 	348.432 	4.63662e-13 	100000
-4.61334 	348.432 	5.47923e-13 	100000
-4.61234 	348.432 	6.75546e-13 	100000
-4.61135 	348.432 	6.82176e-13 	100000
-4.61035 	348.432 	5.5439e-13 	100000
-4.60935 	348.432 	4.25014e-13 	100000
-4.60835 	348.432 	5.40557e-13 	100000
-4.60735 	348.432 	1.85821e-13 	100000
-4.60635 	348.432 	6.55838e-15 	100000
-4.60535 	348.432 	5.46268e-14 	100000
-4.60435 	348.432 	1.25338e-13 	100000
-4.60335 	348.432 	1.77195e-13 	100000
-4.60235 	348.432 	2.06704e-13 	100000
-4.60135 	348.432 	3.27538e-13 	100000
-4.60036 	348.432 	4.83816e-13 	100000
-4.59936 	348.432 	6.94052e-13 	100000
-4.59836 	348.432 	8.43963e-13 	100000
-4.59736 	348.432 	9.47951e-13 	100000
-4.59636 	348.432 	1.12733e-12 	100000
-4.59536 	348.432 	1.1769e-12 	100000
-4.59436 	348.432 	1.28281e-12 	100000
-4.59336 	348.432 	1.06094e-12 	100000
-4.59236 	348.432 	1.39037e-12 	100000
-4.59136 	348.432 	1.35728e-12 	100000
-4.59036 	348.432 	1.54427e-12 	100000
-4.58937 	348.432 	1.52382e-12 	100000
-4.58837 	348.432 	1.48307e-12 	100000
-4.58737 	348.432 	1.50364e-12 	100000
-4.58637 	348.432 	1.24264e-12 	100000
-4.58537 	348.432 	1.33752e-12 	100000
-4.58437 	348.432 	1.15193e-12 	100000
-4.58337 	348.432 	7.51003e-13 	100000
-4.58237 	348.432 	6.47802e-13 	100000
-4.58137 	348.432 	2.80599e-13 	100000
-4.58037 	348.432 	1.8024e-13 	100000
-4.57937 	348.432 	3.65667e-14 	100000
-4.57838 	348.432 	2.16912e-13 	100000
-4.57738 	348.432 	4.06639e-13 	100000
-4.57638 	348.432 	4.24325e-13 	100000
-4.57538 	348.432 	6.54295e-13 	100000
-4.57438 	348.432 	7.51016e-13 	100000
-4.57338 	348.432 	7.95291e-13 	100000
-4.57238 	348.432 	7.82225e-13 	100000
-4.57138 	348.432 	1.0148e-12 	100000
-4.57038 	348.432 	6.41841e-13 	100000
-4.56938 	348.432 	6.01033e-13 	100000
-4.56838 	348.432 	3.23803e-13 	100000
-4.56739 	348.432 	5.43794e-13 	100000
-4.56639 	348.432 	3.53417e-13 	100000
-4.56539 	348.432 	3.54553e-13 	100000
-4.56439 	348.432 	1.45748e-13 	100000
-4.56339 	348.432 	5.83623e-14 	100000
-4.56239 	348.432 	2.80487e-13 	100000
-4.56139 	348.432 	2.13564e-13 	100000
-4.56039 	348.432 	3.81547e-13 	100000
-4.55939 	348.432 	1.68305e-13 	100000
-4.55839 	348.432 	2.31841e-13 	100000
-4.55739 	348.432 	2.26524e-13 	100000
-4.5564 	348.432 	3.05513e-13 	100000
-4.5554 	348.432 	4.15449e-13 	100000
-4.5544 	348.432 	3.65129e-13 	100000
-4.5534 	348.432 	5.04909e-13 	100000
-4.5524 	348.432 	5.77584e-13 	100000
-4.5514 	348.432 	5.09039e-13 	100000
-4.5504 	348.432 	3.6033e-13 	100000
-4.5494 	348.432 	3.12295e-13 	100000
-4.5484 	348.432 	2.20576e-13 	100000
-4.5474 	348.432 	9.78766e-14 	100000
-4.5464 	348.432 	7.09342e-14 	100000
-4.54541 	348.432 	1.96561e-13 	100000
-4.54441 	348.432 	2.46106e-13 	100000
-4.54341 	348.432 	1.03831e-13 	100000
-4.54241 	348.432 	2.47767e-13 	100000
-4.54141 	348.432 	1.10107e-13 	100000
-4.54041 	348.432 	1.94913e-13 	100000
-4.53941 	348.432 	2.3492e-13 	100000
-4.53841 	348.432 	9.43512e-14 	100000
-4.53741 	348.432 	2.09881e-14 	100000
-4.53641 	348.432 	9.25919e-14 	100000
-4.53541 	348.432 	1.34588e-13 	100000
-4.53441 	348.432 	4.18843e-14 	100000
-4.53342 	348.432 	3.15866e-13 	100000
-4.53242 	348.432 	1.10613e-13 	100000
-4.53142 	348.432 	2.17437e-13 	100000
-4.53042 	348.432 	3.65871e-13 	100000
-4.52942 	348.432 	3.7457e-13 	100000
-4.52842 	348.432 	3.61591e-13 	100000
-4.52742 	348.432 	8.34923e-13 	100000
-4.52642 	348.432 	8.71831e-13 	100000
-4.52542 	348.432 	8.25863e-13 	100000
-4.52442 	348.432 	7.61868e-13 	100000
-4.52342 	348.432 	8.03398e-13 	100000
-4.52243 	348.432 	8.23388e-13 	100000
-4.52143 	348.432 	9.07623e-13 	100000
-4.52043 	348.432 	9.41833e-13 	100000
-4.51943 	348.432 	8.88834e-13 	100000
-4.51843 	348.432 	1.24008e-12 	100000
-4.51743 	348.432 	1.05945e-12 	100000
-4.51643 	348.432 	1.17856e-12 	100000
-4.51543 	348.432 	1.12889e-12 	100000
-4.51443 	348.432 	1.00163e-12 	100000
-4.51343 	348.432 	9.52888e-13 	100000
-4.51243 	348.432 	1.19677e-12 	100000
-4.51144 	348.432 	8.08367e-13 	100000
-4.51044 	348.432 	1.09382e-12 	100000
-4.50944 	348.432 	8.66113e-13 	100000
-4.50844 	348.432 	7.30264e-13 	100000
-4.50744 	348.432 	7.33317e-13 	100000
-4.50644 	348.432 	5.52315e-13 	100000
-4.50544 	348.432 	2.91746e-13 	100000
-4.50444 	348.432 	2.99368e-13 	100000
-4.50344 	348.432 	4.13027e-13 	100000
-4.50244 	348.432 	2.44702e-13 	100000
-4.50144 	348.432 	1.79945e-13 	100000
-4.50045 	348.432 	1.69704e-14 	100000
-4.49945 	348.432 	6.14741e-14 	100000
-4.49845 	348.432 	1.19002e-13 	100000
-4.49745 	348.432 	1.58195e-13 	100000
-4.49645 	348.432 	1.29309e-13 	100000
-4.49545 	348.432 	3.61768e-13 	100000
-4.49445 	348.432 	3.17782e-13 	100000
-4.49345 	348.432 	5.29193e-13 	100000
-4.49245 	348.432 	3.34707e-13 	100000
-4.49145 	348.432 	5.86296e-13 	100000
-4.49045 	348.432 	4.70772e-14 	100000
-4.48946 	348.432 	1.28397e-13 	100000
-4.48846 	348.432 	3.83728e-13 	100000
-4.48746 	348.432 	4.98844e-13 	100000
-4.48646 	348.432 	8.7334e-13 	100000
-4.48546 	348.432 	5.07319e-13 	100000
-4.48446 	348.432 	7.59689e-13 	100000
-4.48346 	348.432 	4.41046e-13 	100000
-4.48246 	348.432 	5.19563e-13 	100000
-4.48146 	348.432 	3.78725e-13 	100000
-4.48046 	348.432 	3.56707e-13 	100000
-4.47946 	348.432 	1.41205e-13 	100000
-4.47847 	348.432 	2.67193e-14 	100000
-4.47747 	348.432 	3.80931e-13 	100000
-4.47647 	348.432 	8.59961e-13 	100000
-4.47547 	348.432 	1.2649e-12 	100000
-4.47447 	348.432 	1.15276e-12 	100000
-4.47347 	348.432 	1.62183e-12 	100000
-4.47247 	348.432 	1.705e-12 	100000
-4.47147 	348.432 	1.64174e-12 	100000
-4.47047 	348.432 	1.40456e-12 	100000
-4.46947 	348.432 	1.03957e-12 	100000
-4.46847 	348.432 	1.17296e-12 	100000
-4.46748 	348.432 	8.42091e-13 	100000
-4.46648 	348.432 	6.76904e-13 	100000
-4.46548 	348.432 	3.16903e-13 	100000
-4.46448 	348.432 	1.4716e-13 	100000
-4.46348 	348.432 	1.99902e-13 	100000
-4.46248 	348.432 	2.95422e-15 	100000
-4.46148 	348.432 	1.44179e-13 	100000
-4.46048 	348.432 	6.15792e-14 	100000
-4.45948 	348.432 	2.31861e-13 	100000
-4.45848 	348.432 	1.43687e-13 	100000
-4.45748 	348.432 	1.57362e-14 	100000
-4.45649 	348.432 	8.62239e-14 	100000
-4.45549 	348.432 	8.14053e-16 	100000
-4.45449 	348.432 	5.873e-14 	100000
-4.45349 	348.432 	8.85873e-14 	100000
-4.45249 	348.432 	1.74227e-13 	100000
-4.45149 	348.432 	1.01356e-13 	100000
-4.45049 	348.432 	3.23455e-14 	100000
-4.44949 	348.432 	3.64184e-13 	100000
-4.44849 	348.432 	3.08119e-13 	100000
-4.44749 	348.432 	5.40222e-13 	100000
-4.44649 	348.432 	6.11899e-13 	100000
-4.4455 	348.432 	4.81237e-13 	100000
-4.4445 	348.432 	4.51615e-13 	100000
-4.4435 	348.432 	3.05919e-13 	100000
-4.4425 	348.432 	1.74982e-13 	100000
-4.4415 	348.432 	1.45775e-13 	100000
-4.4405 	348.432 	7.2989e-14 	100000
-4.4395 	348.432 	1.89582e-13 	100000
-4.4385 	348.432 	2.04202e-13 	100000
-4.4375 	348.432 	1.60558e-13 	100000
-4.4365 	348.432 	3.49498e-13 	100000
-4.4355 	348.432 	2.91982e-13 	100000
-4.4345 	348.432 	3.49806e-13 	100000
-4.43351 	348.432 	2.92087e-13 	100000
-4.43251 	348.432 	5.67034e-13 	100000
-4.43151 	348.432 	5.54429e-13 	100000
-4.43051 	348.432 	5.25392e-13 	100000
-4.42951 	348.432 	3.95098e-13 	100000
-4.42851 	348.432 	6.39274e-13 	100000
-4.42751 	348.432 	3.67801e-13 	100000
-4.42651 	348.432 	4.22323e-13 	100000
-4.42551 	348.432 	9.19026e-14 	100000
-4.42451 	348.432 	1.45059e-13 	100000
-4.42351 	348.432 	2.8958e-13 	100000
-4.42252 	348.432 	1.76886e-13 	100000
-4.42152 	348.432 	2.61114e-13 	100000
-4.42052 	348.432 	6.19337e-14 	100000
-4.41952 	348.432 	2.44485e-13 	100000
-4.41852 	348.432 	3.91034e-13 	100000
-4.41752 	348.432 	2.08062e-13 	100000
-4.41652 	348.432 	4.89797e-13 	100000
-4.41552 	348.432 	3.53312e-13 	100000
-4.41452 	348.432 	4.49862e-13 	100000
-4.41352 	348.432 	1.67419e-13 	100000
-4.41252 	348.432 	2.88496e-13 	100000
-4.41153 	348.432 	6.43364e-14 	100000
-4.41053 	348.432 	4.27548e-13 	100000
-4.40953 	348.432 	2.95751e-13 	100000
-4.40853 	348.432 	6.60263e-13 	100000
-4.40753 	348.432 	6.56856e-13 	100000
-4.40653 	348.432 	9.39378e-13 	100000
-4.40553 	348.432 	9.48175e-13 	100000
-4.40453 	348.432 	1.24472e-12 	100000
-4.40353 	348.432 	1.11342e-12 	100000
-4.40253 	348.432 	1.55967e-12 	100000
-4.40153 	348.432 	9.55829e-13 	100000
-4.40054 	348.432 	7.78832e-13 	100000
-4.39954 	348.432 	5.62293e-13 	100000
-4.39854 	348.432 	5.26233e-13 	100000
-4.39754 	348.432 	2.00887e-14 	100000
-4.39654 	348.432 	1.40162e-13 	100000
-4.39554 	348.432 	3.38488e-14 	100000
-4.39454 	348.432 	2.39023e-13 	100000
-4.39354 	348.432 	8.0263e-14 	100000
-4.39254 	348.432 	3.10319e-13 	100000
-4.39154 	348.432 	1.95366e-13 	100000
-4.39054 	348.432 	3.15072e-13 	100000
-4.38955 	348.432 	1.67754e-13 	100000
-4.38855 	348.432 	4.38682e-13 	100000
-4.38755 	348.432 	4.91648e-14 	100000
-4.38655 	348.432 	1.52897e-14 	100000
-4.38555 	348.432 	2.50406e-13 	100000
-4.38455 	348.432 	3.59582e-13 	100000
-4.38355 	348.432 	7.52356e-13 	100000
-4.38255 	348.432 	5.10312e-13 	100000
-4.38155 	348.432 	7.03257e-13 	100000
-4.38055 	348.432 	7.70002e-13 	100000
-4.37955 	348.432 	1.0352e-12 	100000
-4.37856 	348.432 	1.09163e-12 	100000
-4.37756 	348.432 	1.17665e-12 	100000
-4.37656 	348.432 	1.05779e-12 	100000
-4.37556 	348.432 	1.2564e-12 	100000
-4.37456 	348.432 	1.22791e-12 	100000
-4.37356 	348.432 	1.32133e-12 	100000
-4.37256 	348.432 	9.84918e-13 	100000
-4.37156 	348.432 	1.07226e-12 	100000
-4.37056 	348.432 	9.70062e-13 	100000
-4.36956 	348.432 	6.07559e-13 	100000
-4.36856 	348.432 	4.33359e-13 	100000
-4.36757 	348.432 	2.18501e-13 	100000
-4.36657 	348.432 	2.04222e-13 	100000
-4.36557 	348.432 	1.36177e-13 	100000
-4.36457 	348.432 	3.61138e-14 	100000
-4.36357 	348.432 	4.09495e-13 	100000
-4.36257 	348.432 	2.34073e-13 	100000
-4.36157 	348.432 	4.89942e-13 	100000
-4.36057 	348.432 	4.29295e-13 	100000
-4.35957 	348.432 	8.01881e-13 	100000
-4.35857 	348.432 	6.55752e-13 	100000
-4.35757 	348.432 	6.41841e-13 	100000
-4.35658 	348.432 	4.39477e-13 	100000
-4.35558 	348.432 	5.71288e-13 	100000
-4.35458 	348.432 	4.75775e-13 	100000
-4.35358 	348.432 	5.34051e-13 	100000
-4.35258 	348.432 	3.51592e-13 	100000
-4.35158 	348.432 	2.81807e-13 	100000
-4.35058 	348.432 	1.56449e-13 	100000
-4.34958 	348.432 	2.39666e-13 	100000
-4.34858 	348.432 	3.68458e-13 	100000
-4.34758 	348.432 	3.7927e-13 	100000
-4.34658 	348.432 	5.12867e-13 	100000
-4.34559 	348.432 	4.9845e-13 	100000
-4.34459 	348.432 	3.89301e-13 	100000
-4.34359 	348.432 	4.85832e-13 	100000
-4.34259 	348.432 	2.29825e-13 	100000
-4.34159 	348.432 	2.83986e-13 	100000
-4.34059 	348.432 	2.12061e-13 	100000
-4.33959 	348.432 	2.97096e-13 	100000
-4.33859 	348.432 	1.07514e-13 	100000
-4.33759 	348.432 	7.42823e-14 	100000
-4.33659 	348.432 	3.24275e-13 	100000
-4.33559 	348.432 	6.54045e-13 	100000
-4.33459 	348.432 	9.62847e-13 	100000
-4.3336 	348.432 	9.5237e-13 	100000
-4.3326 	348.432 	1.44885e-12 	100000
-4.3316 	348.432 	1.37087e-12 	100000
-4.3306 	348.432 	1.44867e-12 	100000
-4.3296 	348.432 	1.40618e-12 	100000
-4.3286 	348.432 	1.22978e-12 	100000
-4.3276 	348.432 	1.44673e-12 	100000
-4.3266 	348.432 	1.42093e-12 	100000
-4.3256 	348.432 	1.49347e-12 	100000
-4.3246 	348.432 	1.28029e-12 	100000
-4.3236 	348.432 	1.05864e-12 	100000
-4.32261 	348.432 	6.44362e-13 	100000
-4.32161 	348.432 	5.85048e-13 	100000
-4.32061 	348.432 	2.18981e-13 	100000
-4.31961 	348.432 	3.1991e-14 	100000
-4.31861 	348.432 	2.2246e-13 	100000
-4.31761 	348.432 	3.12879e-13 	100000
-4.31661 	348.432 	7.09894e-13 	100000
-4.31561 	348.432 	9.26924e-13 	100000
-4.31461 	348.432 	1.01287e-12 	100000
-4.31361 	348.432 	1.26671e-12 	100000
-4.31261 	348.432 	1.27245e-12 	100000
-4.31162 	348.432 	1.37229e-12 	100000
-4.31062 	348.432 	1.34713e-12 	100000
-4.30962 	348.432 	1.38065e-12 	100000
-4.30862 	348.432 	1.23147e-12 	100000
-4.30762 	348.432 	1.31352e-12 	100000
-4.30662 	348.432 	1.22477e-12 	100000
-4.30562 	348.432 	1.31331e-12 	100000
-4.30462 	348.432 	8.27924e-13 	100000
-4.30362 	348.432 	9.76053e-13 	100000
-4.30262 	348.432 	4.05772e-13 	100000
-4.30162 	348.432 	3.84765e-13 	100000
-4.30063 	348.432 	2.91812e-13 	100000
-4.29963 	348.432 	8.60205e-14 	100000
-4.29863 	348.432 	6.69362e-13 	100000
-4.29763 	348.432 	7.71256e-13 	100000
-4.29663 	348.432 	1.20504e-12 	100000
-4.29563 	348.432 	1.11682e-12 	100000
-4.29463 	348.432 	1.66451e-12 	100000
-4.29363 	348.432 	1.53519e-12 	100000
-4.29263 	348.432 	1.95791e-12 	100000
-4.29163 	348.432 	1.97709e-12 	100000
-4.29063 	348.432 	2.22177e-12 	100000
-4.28964 	348.432 	2.03403e-12 	100000
-4.28864 	348.432 	1.92287e-12 	100000
-4.28764 	348.432 	1.98645e-12 	100000
-4.28664 	348.432 	1.99846e-12 	100000
-4.28564 	348.432 	1.96079e-12 	100000
-4.28464 	348.432 	1.96725e-12 	100000
-4.28364 	348.432 	2.10715e-12 	100000
-4.28264 	348.432 	1.91692e-12 	100000
-4.28164 	348.432 	1.79422e-12 	100000
-4.28064 	348.432 	1.85461e-12 	100000
-4.27964 	348.432 	1.79229e-12 	100000
-4.27865 	348.432 	1.69238e-12 	100000
-4.27765 	348.432 	1.91416e-12 	100000
-4.27665 	348.432 	1.56904e-12 	100000
-4.27565 	348.432 	1.58948e-12 	100000
-4.27465 	348.432 	1.39356e-12 	100000
-4.27365 	348.432 	1.31942e-12 	100000
-4.27265 	348.432 	1.04032e-12 	100000
-4.27165 	348.432 	9.54812e-13 	100000
-4.27065 	348.432 	8.4928e-13 	100000
-4.26965 	348.432 	9.05568e-13 	100000
-4.26865 	348.432 	9.80677e-13 	100000
-4.26766 	348.432 	7.94778e-13 	100000
-4.26666 	348.432 	8.44705e-13 	100000
-4.26566 	348.432 	7.62281e-13 	100000
-4.26466 	348.432 	6.9482e-13 	100000
-4.26366 	348.432 	7.22413e-13 	100000
-4.26266 	348.432 	8.76446e-13 	100000
-4.26166 	348.432 	8.30951e-13 	100000
-4.26066 	348.432 	1.01258e-12 	100000
-4.25966 	348.432 	9.52547e-13 	100000
-4.25866 	348.432 	9.94605e-13 	100000
-4.25766 	348.432 	8.23656e-13 	100000
-4.25667 	348.432 	5.68511e-13 	100000
-4.25567 	348.432 	3.18341e-13 	100000
-4.25467 	348.432 	2.65007e-13 	100000
-4.25367 	348.432 	1.8974e-13 	100000
-4.25267 	348.432 	2.478e-13 	100000
-4.25167 	348.432 	6.86503e-13 	100000
-4.25067 	348.432 	5.91639e-13 	100000
-4.24967 	348.432 	6.9935e-13 	100000
-4.24867 	348.432 	7.17292e-13 	100000
-4.24767 	348.432 	6.18299e-13 	100000
-4.24667 	348.432 	5.61939e-13 	100000
-4.24568 	348.432 	7.94988e-13 	100000
-4.24468 	348.432 	5.81615e-13 	100000
-4.24368 	348.432 	3.45033e-13 	100000
-4.24268 	348.432 	2.22374e-13 	100000
-4.24168 	348.432 	7.2431e-14 	100000
-4.24068 	348.432 	2.35248e-13 	100000
-4.23968 	348.432 	3.60842e-13 	100000
-4.23868 	348.432 	5.82278e-13 	100000
-4.23768 	348.432 	7.70396e-13 	100000
-4.23668 	348.432 	8.26132e-13 	100000
-4.23568 	348.432 	7.36258e-13 	100000
-4.23468 	348.432 	8.81225e-13 	100000
-4.23369 	348.432 	8.71496e-13 	100000
-4.23269 	348.432 	8.9624e-13 	100000
-4.23169 	348.432 	8.33315e-13 	100000
-4.23069 	348.432 	8.05053e-13 	100000
-4.22969 	348.432 	6.95891e-13 	100000
-4.22869 	348.432 	6.82826e-13 	100000
-4.22769 	348.432 	3.31687e-13 	100000
-4.22669 	348.432 	4.71882e-13 	100000
-4.22569 	348.432 	1.01389e-13 	100000
-4.22469 	348.432 	1.17578e-14 	100000
-4.22369 	348.432 	7.33107e-14 	100000