/*--------------------------------*- C++ -*----------------------------------*\
  =========                 |
  \\      /  F ield         | OpenFOAM: The Open Source CFD Toolbox
   \\    /   O peration     | Website:  https://openfoam.org
    \\  /    A nd           | Version:  7
     \\/     M anipulation  |
\*---------------------------------------------------------------------------*/
FoamFile
{
    version     2.0;
    format      ascii;
    class       volVectorField;
    location    "1";
    object      U;
}
// * * * * * * * * * * * * * * * * * * * * * * * * * * * * * * * * * * * * * //

dimensions      [0 1 -1 0 0 0 0];

internalField   nonuniform List<vector> 
8800
(
(0.958079 -0.0734299 0)
(0.987675 -0.047835 0)
(0.978185 -0.0304583 0)
(0.973069 -0.019811 0)
(0.9705 -0.0132567 0)
(0.969165 -0.0089984 0)
(0.968431 -0.00603967 0)
(0.96801 -0.00381666 0)
(0.967767 -0.00197664 0)
(0.967648 -0.000257099 0)
(0.967674 0.00143211 0)
(0.967845 0.00314501 0)
(0.968156 0.00509292 0)
(0.968706 0.00758792 0)
(0.969685 0.0110629 0)
(0.971517 0.0162664 0)
(0.975128 0.0245553 0)
(0.98227 0.0381983 0)
(0.990102 0.0607807 0)
(0.749434 0.0420982 0)
(0.586829 -0.00819723 0)
(1.05584 -0.0194649 0)
(1.05579 -0.0213125 0)
(1.04578 -0.0209253 0)
(1.03797 -0.0188262 0)
(1.03264 -0.0156057 0)
(1.02915 -0.0120325 0)
(1.02709 -0.00851221 0)
(1.02594 -0.00517694 0)
(1.02534 -0.0019415 0)
(1.02522 0.00137009 0)
(1.02552 0.0046084 0)
(1.02629 0.00775111 0)
(1.02782 0.0110438 0)
(1.03049 0.0144949 0)
(1.03486 0.0178238 0)
(1.04144 0.0204369 0)
(1.05039 0.0215891 0)
(1.06025 0.02092 0)
(0.978766 0.0189865 0)
(0.524905 0.00054346 0)
(1.02149 -0.00505091 0)
(1.01919 -0.00812699 0)
(1.01536 -0.00985625 0)
(1.01109 -0.0102167 0)
(1.00741 -0.00950138 0)
(1.00442 -0.00785139 0)
(1.00221 -0.00563149 0)
(1.00072 -0.00309702 0)
(1.00022 -9.49031e-05 0)
(1.00032 0.00291171 0)
(1.00128 0.0056596 0)
(1.00292 0.00788519 0)
(1.00546 0.00966213 0)
(1.00879 0.0107319 0)
(1.01267 0.0107815 0)
(1.01669 0.00951532 0)
(1.02017 0.00702946 0)
(1.01192 0.00297499 0)
(0.524537 -0.000507635 0)
(0.527068 -0.000111171 0)
(1.01951 -0.00183701 0)
(1.01939 -0.00342024 0)
(1.01804 -0.00481352 0)
(1.01604 -0.00574698 0)
(1.01387 -0.00588172 0)
(1.0117 -0.00527439 0)
(1.00978 -0.00396866 0)
(1.00832 -0.00203933 0)
(1.0077 0.000208238 0)
(1.00775 0.00252833 0)
(1.00882 0.00441 0)
(1.01008 0.00589578 0)
(1.01209 0.00660704 0)
(1.01425 0.00658958 0)
(1.01626 0.00584415 0)
(1.01786 0.00454532 0)
(1.01897 0.00296318 0)
(1.00898 0.00133111 0)
(0.526394 0.000139633 0)
(0.524778 -7.89558e-05 0)
(1.01545 -0.00102165 0)
(1.0159 -0.00170763 0)
(1.0153 -0.00237624 0)
(1.01436 -0.00291611 0)
(1.01315 -0.00315113 0)
(1.01175 -0.00296513 0)
(1.01035 -0.00226174 0)
(1.00918 -0.00103486 0)
(1.00853 0.000548262 0)
(1.00852 0.00215145 0)
(1.00924 0.00333218 0)
(1.0102 0.00400538 0)
(1.01146 0.00418931 0)
(1.01268 0.0038872 0)
(1.01369 0.00324346 0)
(1.01442 0.00241856 0)
(1.01483 0.0015404 0)
(1.00457 0.00070348 0)
(0.523829 7.84437e-05 0)
(0.523774 -3.46086e-05 0)
(1.01402 -0.000464711 0)
(1.01465 -0.000796868 0)
(1.01433 -0.00113542 0)
(1.01381 -0.00141892 0)
(1.01309 -0.00156289 0)
(1.01219 -0.00146721 0)
(1.0112 -0.00104153 0)
(1.01027 -0.000244685 0)
(1.00962 0.000851977 0)
(1.00949 0.0019295 0)
(1.00989 0.0026384 0)
(1.01053 0.00291969 0)
(1.01125 0.00285061 0)
(1.01191 0.00250665 0)
(1.01242 0.00200519 0)
(1.01277 0.0014467 0)
(1.01293 0.00090402 0)
(1.00258 0.000412323 0)
(0.522691 4.96579e-05 0)
(0.523331 -1.30192e-05 0)
(1.01332 -0.000174137 0)
(1.01404 -0.000309809 0)
(1.01385 -0.000440003 0)
(1.01354 -0.000540393 0)
(1.01308 -0.000562583 0)
(1.01247 -0.000446729 0)
(1.01174 -0.000126812 0)
(1.01098 0.000433671 0)
(1.01035 0.00118835 0)
(1.01009 0.00188252 0)
(1.01021 0.00226411 0)
(1.01052 0.00231919 0)
(1.01089 0.0021375 0)
(1.01122 0.00180499 0)
(1.01147 0.00140398 0)
(1.01163 0.000994181 0)
(1.01169 0.000613796 0)
(1.00131 0.000278958 0)
(0.521938 3.33969e-05 0)
(0.523209 -4.5393e-07 0)
(1.01312 -9.9177e-06 0)
(1.01387 -1.21995e-05 0)
(1.01374 -4.04611e-06 0)
(1.01353 3.34606e-05 0)
(1.01321 0.00012325 0)
(1.01275 0.000301592 0)
(1.01216 0.000603812 0)
(1.0115 0.00104512 0)
(1.01085 0.00158077 0)
(1.01043 0.00200631 0)
(1.01031 0.00216457 0)
(1.01037 0.00206779 0)
(1.01049 0.00181695 0)
(1.01061 0.00148505 0)
(1.01071 0.00112958 0)
(1.01077 0.000792196 0)
(1.01077 0.000485253 0)
(1.00038 0.00022264 0)
(0.521387 2.66855e-05 0)
(0.523279 9.0303e-06 0)
(1.01325 0.000109758 0)
(1.01401 0.000200574 0)
(1.01391 0.000316365 0)
(1.01374 0.000463858 0)
(1.01347 0.000658469 0)
(1.01308 0.000915229 0)
(1.01256 0.00124751 0)
(1.0119 0.00164724 0)
(1.01118 0.00205482 0)
(1.01059 0.00229576 0)
(1.01026 0.00227735 0)
(1.0101 0.00207335 0)
(1.01004 0.00175978 0)
(1.01002 0.00140567 0)
(1.01002 0.00105565 0)
(1.01002 0.000732787 0)
(1.00998 0.000447919 0)
(0.999584 0.000203884 0)
(0.520918 2.48879e-05 0)
(0.523507 1.6514e-05 0)
(1.01363 0.000210305 0)
(1.0144 0.000383963 0)
(1.01431 0.000592847 0)
(1.01415 0.0008427 0)
(1.01389 0.00114033 0)
(1.01351 0.00149009 0)
(1.01297 0.00188575 0)
(1.01226 0.00229732 0)
(1.01141 0.0026421 0)
(1.01062 0.00275755 0)
(1.01007 0.00260935 0)
(1.00972 0.00229242 0)
(1.00951 0.00190023 0)
(1.00939 0.00149411 0)
(1.00931 0.00111055 0)
(1.00927 0.000765987 0)
(1.00921 0.000468824 0)
(0.998801 0.000213352 0)
(0.52046 2.63837e-05 0)
(0.523873 2.4857e-05 0)
(1.01425 0.000309815 0)
(1.01502 0.000566033 0)
(1.01492 0.000868518 0)
(1.01475 0.0012252 0)
(1.01447 0.00163673 0)
(1.01405 0.00209796 0)
(1.01345 0.00258771 0)
(1.01262 0.00305204 0)
(1.01158 0.00338034 0)
(1.01055 0.003404 0)
(1.00977 0.00313375 0)
(1.00923 0.00270187 0)
(1.00888 0.00221066 0)
(1.00866 0.00172336 0)
(1.00852 0.00127406 0)
(1.00844 0.00087639 0)
(1.00836 0.000534801 0)
(0.997946 0.000243012 0)
(0.519962 2.94709e-05 0)
(0.524389 3.31472e-05 0)
(1.01512 0.000421398 0)
(1.01588 0.000767931 0)
(1.01577 0.00117867 0)
(1.01557 0.00165562 0)
(1.01525 0.00220008 0)
(1.01475 0.0027981 0)
(1.01403 0.00341364 0)
(1.01302 0.00396793 0)
(1.01172 0.00431587 0)
(1.01039 0.00426789 0)
(1.00934 0.00387258 0)
(1.0086 0.00330325 0)
(1.0081 0.00268262 0)
(1.00778 0.00208157 0)
(1.00758 0.00153403 0)
(1.00746 0.00105465 0)
(1.00736 0.000642567 0)
(0.996939 0.000293034 0)
(0.519375 3.55355e-05 0)
(0.525077 4.41038e-05 0)
(1.01629 0.000553386 0)
(1.01703 0.00101019 0)
(1.0169 0.00154653 0)
(1.01665 0.0021713 0)
(1.01626 0.00287845 0)
(1.01565 0.0036484 0)
(1.01475 0.00442724 0)
(1.01349 0.00510969 0)
(1.01185 0.00550659 0)
(1.01013 0.00539364 0)
(1.00877 0.00485674 0)
(1.00779 0.00412052 0)
(1.00713 0.0033341 0)
(1.0067 0.0025805 0)
(1.00643 0.00189863 0)
(1.00626 0.00130351 0)
(1.00614 0.000793352 0)
(0.99571 0.000361376 0)
(0.518661 4.40956e-05 0)
(0.525975 5.7073e-05 0)
(1.0178 0.000718288 0)
(1.01853 0.00130887 0)
(1.01836 0.00200576 0)
(1.01805 0.00281181 0)
(1.01756 0.00372324 0)
(1.01679 0.00470889 0)
(1.01566 0.00569853 0)
(1.01407 0.00655147 0)
(1.01198 0.00702481 0)
(1.00978 0.0068441 0)
(1.00802 0.00613633 0)
(1.00676 0.0051902 0)
(1.0059 0.00419107 0)
(1.00533 0.00323937 0)
(1.00498 0.00238204 0)
(1.00477 0.00163392 0)
(1.00462 0.000994965 0)
(0.994181 0.000452079 0)
(0.517772 5.49139e-05 0)
(0.527138 7.38043e-05 0)
(1.01976 0.000926679 0)
(1.02047 0.00168877 0)
(1.02025 0.00258465 0)
(1.01986 0.00362249 0)
(1.01922 0.00479202 0)
(1.01824 0.0060539 0)
(1.0168 0.00731271 0)
(1.01478 0.00838514 0)
(1.01211 0.00896168 0)
(1.00931 0.00870168 0)
(1.00705 0.00778133 0)
(1.00544 0.00656874 0)
(1.00433 0.00529676 0)
(1.00361 0.00409014 0)
(1.00316 0.00300667 0)
(1.00289 0.00206226 0)
(1.0027 0.00125691 0)
(0.992248 0.000571675 0)
(0.516652 6.93066e-05 0)
(0.528639 9.54902e-05 0)
(1.02229 0.00119327 0)
(1.02296 0.00217399 0)
(1.02267 0.0033265 0)
(1.02217 0.00465971 0)
(1.02136 0.0061599 0)
(1.0201 0.0077728 0)
(1.01826 0.00937416 0)
(1.01567 0.0107266 0)
(1.01226 0.0114334 0)
(1.00869 0.0110723 0)
(1.00581 0.00988072 0)
(1.00375 0.00832916 0)
(1.00235 0.00671064 0)
(1.00142 0.00517968 0)
(1.00085 0.00380457 0)
(1.0005 0.00260886 0)
(1.00028 0.00158823 0)
(0.989813 0.000722423 0)
(0.515241 8.67188e-05 0)
(0.530576 0.000123213 0)
(1.02554 0.00153733 0)
(1.02616 0.00280008 0)
(1.02579 0.00428392 0)
(1.02515 0.00599685 0)
(1.02409 0.00792038 0)
(1.02247 0.00998198 0)
(1.0201 0.0120184 0)
(1.01678 0.0137225 0)
(1.01243 0.0145874 0)
(1.00787 0.0140906 0)
(1.00422 0.0125512 0)
(1.00161 0.0105675 0)
(0.999825 0.00850646 0)
(0.998656 0.00656175 0)
(0.997922 0.00481831 0)
(0.997487 0.00330456 0)
(0.997207 0.00201022 0)
(0.986726 0.000914616 0)
(0.513452 0.000110584 0)
(0.533081 0.000159883 0)
(1.02972 0.00198599 0)
(1.03029 0.0036147 0)
(1.02981 0.00552548 0)
(1.02897 0.00772987 0)
(1.0276 0.0101991 0)
(1.0255 0.0128352 0)
(1.02243 0.0154217 0)
(1.01816 0.0175615 0)
(1.0126 0.0186105 0)
(1.00681 0.0179258 0)
(1.00218 0.0159351 0)
(0.998874 0.0134001 0)
(0.99662 0.0107791 0)
(0.995143 0.00831056 0)
(0.994217 0.0061015 0)
(0.993668 0.0041826 0)
(0.993327 0.00254581 0)
(0.982824 0.00115751 0)
(0.511192 0.000140575 0)
(0.536331 0.000208487 0)
(1.03513 0.00257363 0)
(1.03563 0.00468117 0)
(1.03499 0.00715165 0)
(1.03388 0.00999412 0)
(1.03209 0.013167 0)
(1.02936 0.016536 0)
(1.02537 0.0198144 0)
(1.01987 0.0224867 0)
(1.01276 0.0237377 0)
(1.00541 0.022788 0)
(0.999558 0.0202138 0)
(0.99539 0.0169756 0)
(0.992548 0.0136448 0)
(0.990688 0.0105166 0)
(0.989521 0.00771909 0)
(0.988828 0.00528913 0)
(0.98841 0.00321893 0)
(0.977882 0.00146244 0)
(0.508334 0.000176774 0)
(0.540573 0.000273384 0)
(1.04216 0.00335357 0)
(1.04254 0.00609269 0)
(1.04169 0.00929756 0)
(1.04022 0.0129749 0)
(1.03786 0.0170605 0)
(1.03426 0.0213652 0)
(1.02907 0.0255049 0)
(1.02197 0.0288125 0)
(1.01288 0.0302643 0)
(1.00356 0.0289355 0)
(0.9962 0.0256045 0)
(0.990961 0.0214771 0)
(0.987391 0.017252 0)
(0.985052 0.0132914 0)
(0.983584 0.00975362 0)
(0.982714 0.00668459 0)
(0.982198 0.00406674 0)
(0.971638 0.00184734 0)
(0.504727 0.000222379 0)
(0.546149 0.000363151 0)
(1.05132 0.00440321 0)
(1.05155 0.00798924 0)
(1.0504 0.0121724 0)
(1.04842 0.0169504 0)
(1.04526 0.0222191 0)
(1.04049 0.0277112 0)
(1.03367 0.0329056 0)
(1.02448 0.0369414 0)
(1.01288 0.038553 0)
(1.00114 0.03668 0)
(0.991904 0.0323717 0)
(0.985344 0.0271227 0)
(0.980869 0.0217806 0)
(0.977933 0.0167819 0)
(0.976087 0.0123156 0)
(0.97499 0.00843986 0)
(0.97435 0.00513455 0)
(0.963749 0.00233243 0)
(0.500175 0.000280879 0)
(0.553573 0.000489427 0)
(1.0634 0.00585205 0)
(1.06339 0.0105906 0)
(1.0618 0.0160961 0)
(1.05907 0.0223383 0)
(1.05475 0.0291481 0)
(1.04834 0.0361281 0)
(1.03934 0.0425735 0)
(1.02742 0.0473886 0)
(1.01266 0.0490424 0)
(0.99793 0.0463831 0)
(0.986424 0.0408248 0)
(0.978248 0.0341836 0)
(0.972649 0.0274603 0)
(0.968956 0.0211709 0)
(0.966625 0.0155481 0)
(0.965235 0.0106609 0)
(0.964433 0.00648735 0)
(0.953781 0.00294587 0)
(0.494431 0.000355029 0)
(0.563642 0.000676712 0)
(1.07952 0.00791994 0)
(1.07913 0.014277 0)
(1.07683 0.0216073 0)
(1.07295 0.0298232 0)
(1.06692 0.0386232 0)
(1.05815 0.0474206 0)
(1.04616 0.0552632 0)
(1.0307 0.0607926 0)
(1.01202 0.0622386 0)
(0.993697 0.0584545 0)
(0.979478 0.0513197 0)
(0.969345 0.042984 0)
(0.962349 0.0345864 0)
(0.957688 0.0267175 0)
(0.954715 0.0196539 0)
(0.952929 0.0134916 0)
(0.951904 0.00821736 0)
(0.941174 0.00373393 0)
(0.487167 0.000449946 0)
(0.577721 0.000979089 0)
(1.10147 0.0110644 0)
(1.1004 0.0197872 0)
(1.09687 0.0297094 0)
(1.09107 0.0405921 0)
(1.08234 0.0519035 0)
(1.07013 0.0627693 0)
(1.05405 0.0719663 0)
(1.03407 0.0779177 0)
(1.01064 0.0786929 0)
(0.988122 0.0733163 0)
(0.970752 0.0642371 0)
(0.958292 0.0539097 0)
(0.949557 0.0435541 0)
(0.943615 0.0338055 0)
(0.939739 0.0249785 0)
(0.937363 0.0172085 0)
(0.935996 0.010507 0)
(0.925138 0.00478424 0)
(0.477906 0.000578998 0)
(0.598491 0.00155554 0)
(1.13226 0.0165549 0)
(1.12973 0.0289102 0)
(1.12375 0.0425349 0)
(1.11445 0.0568721 0)
(1.10133 0.0710314 0)
(1.08406 0.0838489 0)
(1.06251 0.0939219 0)
(1.03693 0.0995969 0)
(1.00798 0.0989414 0)
(0.980768 0.0913584 0)
(0.959886 0.0799519 0)
(0.944755 0.0673959 0)
(0.933893 0.0548984 0)
(0.926231 0.0430585 0)
(0.921 0.0321773 0)
(0.917631 0.0224136 0)
(0.915628 0.0138296 0)
(0.904494 0.00637297 0)
(0.465858 0.000782325 0)
(0.631505 0.00326733 0)
(1.17734 0.0292727 0)
(1.17066 0.0468179 0)
(1.15903 0.0648843 0)
(1.14316 0.0826886 0)
(1.12304 0.0990659 0)
(1.09867 0.112765 0)
(1.07021 0.122452 0)
(1.03811 0.126597 0)
(1.00313 0.123408 0)
(0.970973 0.112861 0)
(0.946434 0.0987533 0)
(0.928441 0.0838617 0)
(0.915137 0.0692686 0)
(0.905279 0.0554603 0)
(0.898041 0.0426178 0)
(0.89289 0.030851 0)
(0.889439 0.0201071 0)
(0.877433 0.0102167 0)
(0.450201 0.00128303 0)
(0.681263 0.0199773 1.54669e-19)
(1.24199 0.0639264 1.37977e-19)
(1.22344 0.0838013 -4.71747e-20)
(1.20069 0.103751 0)
(1.17467 0.122527 -1.06302e-33)
(1.14523 0.138742 1.51713e-20)
(1.11229 0.151277 -2.51011e-20)
(1.07598 0.158953 0)
(1.03667 0.160322 4.68073e-34)
(0.995111 0.153691 -2.65071e-20)
(0.957651 0.139675 0)
(0.929141 0.122745 -2.93994e-20)
(0.90789 0.105707 -8.53135e-20)
(0.891608 0.0894565 -3.98674e-20)
(0.878845 0.0744844 -1.17553e-20)
(0.868613 0.0609137 -6.93388e-21)
(0.860257 0.0492564 0)
(0.853266 0.0393696 4.85164e-21)
(0.838447 0.0311448 5.7444e-21)
(0.428795 0.0126128 1.03621e-19)
(0.715454 0.0611218 1.39024e-19)
(1.29826 0.127641 5.53959e-22)
(1.26969 0.142822 1.3813e-20)
(1.23752 0.159768 0)
(1.20268 0.17583 -5.76181e-20)
(1.16488 0.189556 -6.2814e-20)
(1.12392 0.199667 -2.62335e-20)
(1.07982 0.204809 -8.62685e-20)
(1.03287 0.203354 0)
(0.983757 0.193547 1.12739e-19)
(0.939499 0.176486 1.0788e-19)
(0.905523 0.157299 3.11006e-20)
(0.879797 0.138865 1.09644e-19)
(0.859604 0.122057 1.50812e-19)
(0.84319 0.107186 0)
(0.829424 0.0946333 2.09522e-19)
(0.817565 0.0844636 3.01049e-19)
(0.807109 0.0770478 3.34986e-19)
(0.791033 0.0717414 -3.82974e-19)
(0.405285 0.035622 -6.66844e-21)
(0.729191 0.104436 0)
(1.33401 0.204574 3.19807e-20)
(1.30157 0.214259 0)
(1.26421 0.225938 -9.34817e-20)
(1.22341 0.237326 0)
(1.17921 0.247044 -1.30429e-19)
(1.13161 0.253523 5.50122e-20)
(1.0807 0.255194 -1.79982e-19)
(1.02688 0.250222 -1.26383e-21)
(0.970861 0.236708 5.91702e-20)
(0.920605 0.216329 2.31329e-19)
(0.88214 0.194861 1.17505e-22)
(0.853115 0.175207 -7.82815e-20)
(0.830474 0.158024 -1.38185e-19)
(0.812324 0.143457 1.62748e-19)
(0.797461 0.131558 -2.87031e-19)
(0.785042 0.122272 -3.7774e-20)
(0.774479 0.115574 0)
(0.758647 0.110506 1.31713e-21)
(0.390407 0.0560767 0)
(0.739529 0.146504 5.55995e-19)
(1.35642 0.280799 -2.60072e-19)
(1.32183 0.286974 -1.67023e-19)
(1.28142 0.294756 4.85093e-20)
(1.23671 0.302217 -7.89537e-20)
(1.18781 0.307961 2.76235e-19)
(1.13484 0.310635 1.16078e-19)
(1.07807 0.308507 0)
(1.01806 0.299652 -3.12697e-19)
(0.955755 0.282013 0)
(0.900181 0.25787 -1.2187e-19)
(0.858073 0.233676 -1.42834e-19)
(0.826737 0.212293 -8.3434e-20)
(0.802724 0.194157 -9.84645e-20)
(0.783871 0.179141 0)
(0.768758 0.167011 0)
(0.756414 0.157622 -2.42094e-19)
(0.746091 0.150738 4.75945e-20)
(0.730638 0.1452 -2.81854e-20)
(0.376926 0.0741153 -3.24244e-20)
(0.747077 0.186997 -3.38491e-19)
(1.37089 0.355559 0)
(1.33468 0.359109 4.04051e-19)
(1.29194 0.36394 1.50925e-19)
(1.24421 0.368025 1.71476e-19)
(1.19155 0.370276 0)
(1.13409 0.369358 1.20287e-19)
(1.07221 0.363486 2.01871e-19)
(1.00662 0.35062 1.64039e-19)
(0.938558 0.328577 2.69519e-19)
(0.878184 0.300182 0)
(0.833006 0.272656 -3.03107e-19)
(0.799979 0.248875 -1.76592e-19)
(0.775169 0.229083 -1.02605e-19)
(0.7561 0.212913 6.11033e-19)
(0.741123 0.199967 7.19793e-20)
(0.729107 0.189843 3.41116e-19)
(0.719189 0.182402 -1.6186e-18)
(0.704248 0.175961 9.5709e-19)
(0.364157 0.090027 -1.1536e-18)
(0.752921 0.226013 -3.03833e-19)
(1.37993 0.427935 6.94446e-20)
(1.34233 0.429661 -5.89946e-20)
(1.29766 0.432103 -2.02438e-19)
(1.2474 0.433469 -1.73757e-19)
(1.19153 0.432736 1.42607e-21)
(1.13015 0.428602 -1.28776e-19)
(1.06367 0.419204 2.12353e-19)
(0.99291 0.402396 -3.49783e-19)
(0.91938 0.375779 0)
(0.854476 0.342671 -1.40533e-19)
(0.806539 0.311155 -4.01066e-22)
(0.772168 0.284311 -1.88425e-19)
(0.746901 0.262188 0)
(0.727911 0.244292 -1.29774e-19)
(0.71332 0.229973 -3.04923e-19)
(0.701796 0.218867 8.13289e-19)
(0.692446 0.210474 -8.03383e-19)
(0.678164 0.20291 1.138e-18)
(0.351347 0.103925 -1.18254e-18)
(0.75733 0.263745 -3.17976e-21)
(1.38544 0.497812 -6.9725e-20)
(1.34639 0.498223 -2.41653e-19)
(1.29996 0.498747 1.03894e-19)
(1.24744 0.497885 -9.13845e-20)
(1.18867 0.494645 0)
(1.12374 0.487645 -1.31982e-19)
(1.05299 0.47504 -2.24839e-19)
(0.97731 0.454454 -1.84739e-19)
(0.898415 0.423217 0)
(0.828983 0.384989 -1.4688e-19)
(0.778353 0.348895 -1.70703e-19)
(0.742783 0.318313 1.99756e-19)
(0.717295 0.293204 -1.17927e-19)
(0.698592 0.273063 -5.46775e-19)
(0.684553 0.257021 3.2257e-19)
(0.673746 0.244405 9.56245e-20)
(0.665049 0.234966 0)
(0.65155 0.226231 -1.06622e-18)
(0.338275 0.115826 -3.86572e-20)
(0.761027 0.300397 -3.9973e-20)
(1.38836 0.565259 7.15333e-20)
(1.34794 0.564617 1.27734e-19)
(1.29984 0.563554 3.36062e-19)
(1.24519 0.560881 -3.79188e-19)
(1.18377 0.555502 3.28718e-19)
(1.11552 0.546031 2.81669e-19)
(1.04075 0.530577 -3.59212e-19)
(0.960212 0.506527 1.03022e-19)
(0.875891 0.470728 -6.51131e-19)
(0.801699 0.427097 -1.58769e-19)
(0.748201 0.385795 0)
(0.711451 0.350741 2.11458e-19)
(0.685844 0.322072 2.45491e-19)
(0.667617 0.299125 2.88895e-19)
(0.654337 0.280906 -3.39073e-19)
(0.644353 0.266638 -9.94261e-20)
(0.636517 0.255757 1.18795e-19)
(0.623911 0.245664 0)
(0.325049 0.125873 -8.20611e-20)
(0.764173 0.335908 3.99299e-19)
(1.38954 0.630226 -2.91089e-19)
(1.34772 0.628744 -1.34061e-19)
(1.29798 0.62643 2.33407e-19)
(1.24133 0.6222 -1.96416e-19)
(1.17743 0.614953 -3.80394e-21)
(1.10608 0.603423 -3.02114e-19)
(1.0274 0.585489 -1.28344e-19)
(0.942126 0.558352 -3.16665e-19)
(0.852125 0.518265 2.1503e-22)
(0.772699 0.469048 -5.01747e-19)
(0.715925 0.421961 3.87584e-19)
(0.677827 0.381731 -2.23068e-19)
(0.652165 0.348773 2.58899e-19)
(0.634597 0.322469 0)
(0.622294 0.301632 -1.76342e-19)
(0.613356 0.285447 -1.80456e-21)
(0.606547 0.272962 -4.92388e-19)
(0.595055 0.261275 -7.35099e-20)
(0.311367 0.134003 0)
(0.766322 0.369935 0)
(1.38939 0.69277 -3.09201e-19)
(1.34621 0.690504 -2.74359e-19)
(1.29494 0.687146 -2.44137e-19)
(1.23639 0.681588 -2.15421e-19)
(1.17015 0.672864 0)
(1.09587 0.659562 -1.54248e-19)
(1.01348 0.639575 -1.22022e-21)
(0.923441 0.609865 6.75659e-19)
(0.827491 0.565895 -9.15032e-20)
(0.74209 0.511107 -3.57854e-19)
(0.681394 0.457577 2.05881e-19)
(0.641626 0.411295 9.2387e-22)
(0.615944 0.373217 2.72347e-19)
(0.599248 0.34292 1.58529e-19)
(0.588171 0.31914 -3.72604e-19)
(0.580551 0.300598 4.35286e-19)
(0.575003 0.286355 1.27287e-19)
(0.564883 0.272983 5.31504e-19)
(0.297169 0.140203 -1.4125e-18)
(0.768709 0.403493 8.12437e-20)
(1.38821 0.753033 -1.55014e-19)
(1.34377 0.750059 1.32785e-19)
(1.29102 0.745682 2.51393e-19)
(1.23071 0.738999 0)
(1.16229 0.729004 -1.86839e-19)
(1.0853 0.714295 4.9902e-19)
(0.999366 0.692669 2.88424e-19)
(0.904668 0.660861 0)
(0.802391 0.613641 -1.28367e-18)
(0.710169 0.553489 9.54912e-19)
(0.64452 0.493014 0)
(0.602518 0.439659 2.48122e-19)
(0.576746 0.39553 2.35794e-21)
(0.561196 0.360518 -4.92403e-19)
(0.55169 0.333297 1.941e-19)
(0.545775 0.312119 0)
(0.54176 0.295936 6.6081e-19)
(0.5332 0.280956 0)
(0.282913 0.144817 -6.36983e-19)
(0.77074 0.435813 -8.44116e-20)
(1.38632 0.81072 -1.54411e-19)
(1.34061 0.807203 1.43655e-19)
(1.28649 0.801974 0)
(1.22457 0.794259 -2.31605e-19)
(1.15413 0.783213 0)
(1.07466 0.767321 -5.21361e-19)
(0.985472 0.74452 -1.47495e-19)
(0.886149 0.711288 1.25326e-19)
(0.777322 0.661625 -6.34263e-19)
(0.677204 0.596693 1.01566e-19)
(0.605173 0.528971 0)
(0.559974 0.467335 -5.25239e-19)
(0.534008 0.415713 -3.28776e-21)
(0.520087 0.374894 0)
(0.512853 0.343572 -2.37088e-21)
(0.509084 0.319738 5.7469e-19)
(0.507025 0.301474 -5.40279e-19)
(0.500357 0.284897 1.59156e-19)
(0.268865 0.147782 0)
(0.772187 0.46672 0)
(1.38384 0.866188 -1.56686e-19)
(1.33688 0.862046 -1.42101e-19)
(1.28152 0.855962 -2.05227e-21)
(1.21814 0.847318 -1.16678e-19)
(1.14597 0.835293 -4.21024e-19)
(1.06425 0.818527 1.87593e-19)
(0.972074 0.795001 -1.62227e-19)
(0.868358 0.761021 5.43248e-19)
(0.752731 0.709899 -1.01708e-18)
(0.643705 0.641074 -2.07572e-21)
(0.56345 0.56602 -2.48203e-19)
(0.513491 0.494698 8.33423e-19)
(0.486986 0.433623 4.51365e-21)
(0.475371 0.38557 -3.49006e-19)
(0.471479 0.349546 -6.03994e-19)
(0.470938 0.322738 0)
(0.471386 0.302814 0)
(0.466986 0.285032 1.59064e-19)
(0.255829 0.149842 -9.04996e-20)
(0.773764 0.496559 -8.45854e-20)
(1.38075 0.919238 3.25731e-19)
(1.33274 0.914473 1.50733e-19)
(1.2762 0.907578 0)
(1.21152 0.898099 -1.92383e-21)
(1.13787 0.885236 -4.34795e-19)
(1.05417 0.86775 4.8682e-19)
(0.95939 0.8438 6.7529e-19)
(0.851691 0.80969 7.19005e-19)
(0.729301 0.758365 -8.43516e-19)
(0.6103 0.687147 -8.24185e-19)
(0.519479 0.605141 6.66763e-19)
(0.462304 0.522762 0)
(0.434256 0.449359 -1.59867e-19)
(0.426089 0.391409 -3.56913e-19)
(0.42771 0.349474 -4.04668e-19)
(0.432188 0.320133 -4.58651e-19)
(0.436244 0.299353 1.29944e-19)
(0.434596 0.281377 -8.00015e-20)
(0.245185 0.151955 -4.79785e-21)
(0.774674 0.52542 0)
(1.37718 0.969916 0)
(1.3282 0.964427 3.52617e-21)
(1.27064 0.95677 0)
(1.20484 0.946507 3.7894e-19)
(1.12992 0.93285 3.36769e-19)
(1.04467 0.914877 0)
(0.947608 0.890836 8.67605e-20)
(0.836318 0.857212 1.21903e-18)
(0.707453 0.806898 -1.93741e-18)
(0.577746 0.73517 0)
(0.473739 0.647636 -4.33864e-19)
(0.40563 0.552962 4.65849e-21)
(0.373752 0.463123 7.0384e-21)
(0.370254 0.390603 3.7342e-19)
(0.381301 0.340512 -2.48267e-22)
(0.394813 0.30933 -8.94626e-19)
(0.4048 0.290149 2.51035e-19)
(0.406646 0.274751 7.03642e-20)
(0.239562 0.155615 0)
(0.774967 0.552891 2.43525e-19)
(1.37314 1.01821 1.68459e-19)
(1.32333 1.01194 3.10006e-19)
(1.26496 1.00346 -5.76247e-19)
(1.19818 0.992424 6.53264e-19)
(1.12222 0.978088 0)
(1.03572 0.959747 3.20045e-19)
(0.936796 0.935861 -1.87336e-19)
(0.822485 0.903343 3.44562e-21)
(0.687733 0.855264 1.39783e-19)
(0.546955 0.785354 1.08845e-18)
(0.427217 0.694728 -1.55675e-19)
(0.342928 0.587741 -5.163e-19)
(0.302123 0.476267 -1.76689e-19)
(0.303573 0.38054 1.82293e-19)
(0.331028 0.316521 4.76654e-22)
(0.362535 0.284317 2.01057e-19)
(0.384305 0.272388 -4.65019e-19)
(0.39089 0.266478 4.97955e-19)
(0.245056 0.164995 7.89291e-20)
(0.774476 0.579084 -8.07711e-20)
(1.36869 1.06409 8.62511e-20)
(1.31819 1.05698 7.2249e-21)
(1.2591 1.04768 -2.91387e-19)
(1.19159 1.03595 -1.31627e-19)
(1.11478 1.02097 -6.26576e-19)
(1.0273 1.00229 1.0833e-19)
(0.926999 0.978781 -7.93207e-19)
(0.810321 0.947804 -1.3731e-18)
(0.670438 0.903066 -1.17599e-18)
(0.51902 0.837523 0)
(0.381466 0.747635 -6.7712e-19)
(0.274364 0.630663 7.43679e-19)
(0.215012 0.492609 0)
(0.217357 0.358771 -3.91583e-19)
(0.271864 0.265785 1.76711e-19)
(0.34245 0.230756 -1.83921e-19)
(0.390196 0.239292 -1.72659e-19)
(0.405166 0.259489 -3.0032e-19)
(0.274622 0.187934 -2.23436e-19)
(0.774501 0.60441 8.1159e-20)
(1.36381 1.10757 -9.20327e-20)
(1.31274 1.09949 -2.34497e-19)
(1.25311 1.08934 -3.77375e-19)
(1.1851 1.07691 2.83055e-19)
(1.1077 1.06147 -3.87673e-19)
(1.01948 1.04251 3.49243e-19)
(0.918244 1.01946 -8.3489e-19)
(0.799798 0.990317 -8.19676e-19)
(0.655854 0.94988 1.24938e-18)
(0.494782 0.891165 2.4327e-18)
(0.338627 0.807047 0)
(0.201983 0.686097 0)
(0.10824 0.520526 -2.05507e-19)
(0.0952821 0.326877 0)
(0.187619 0.166195 3.19077e-19)
(0.345918 0.114486 2.72394e-19)
(0.46367 0.174075 0)
(0.491483 0.262494 0)
(0.352448 0.240728 1.01544e-19)
(0.773472 0.627853 -7.71956e-20)
(1.35856 1.14864 -7.70593e-20)
(1.30708 1.1396 -1.63768e-19)
(1.24708 1.12856 3.05314e-19)
(1.17862 1.11541 2.92407e-19)
(1.10084 1.09946 4.67886e-19)
(1.01217 1.08025 -4.9072e-19)
(0.910393 1.05784 1.18592e-21)
(0.790902 1.03078 -4.82908e-21)
(0.643985 0.995183 -4.31866e-21)
(0.475083 0.945493 1.26157e-18)
(0.3013 0.872628 0)
(0.130617 0.758152 7.85587e-19)
(-0.0183608 0.574663 4.76964e-19)
(-0.0885211 0.300084 8.77919e-19)
(0.0260768 -0.0187067 1.67126e-19)
(0.386182 -0.164853 3.06976e-20)
(0.721546 0.0342716 -1.11489e-21)
(0.729508 0.321567 0)
(0.498683 0.370306 -8.70524e-20)
(0.773043 0.651042 1.47536e-19)
(1.35317 1.18732 0)
(1.30146 1.17742 -1.61113e-19)
(1.24106 1.16552 2.36309e-19)
(1.17216 1.15162 -2.96647e-19)
(1.09419 1.13504 -6.20678e-19)
(1.00545 1.11536 1.02003e-18)
(0.903523 1.0936 -6.35577e-20)
(0.783443 1.06867 0)
(0.634704 1.03839 -1.40724e-18)
(0.460222 0.999386 -2.7835e-18)
(0.271913 0.942963 1.06385e-19)
(0.0677667 0.848554 1.13076e-18)
(-0.154407 0.674724 0)
(-0.364241 0.330789 6.53973e-19)
(-0.391969 -0.293223 0)
(0.11904 -0.616106 0)
(0.998229 -0.0242824 3.79547e-19)
(1.15227 0.52018 0)
(0.842801 0.652862 -4.98033e-20)
(0.771777 0.67202 1.44777e-19)
(1.34741 1.22382 0)
(1.29586 1.21297 -2.42145e-19)
(1.23525 1.20034 0)
(1.16609 1.18554 1.47562e-19)
(1.08796 1.16847 0)
(0.999269 1.14858 6.1654e-20)
(0.897381 1.12724 1.17587e-19)
(0.777201 1.10443 1.03174e-19)
(0.627848 1.07977 -1.55951e-18)
(0.450141 1.05249 8.64987e-20)
(0.251845 1.01656 8.46786e-19)
(0.0212891 0.956211 1.11861e-18)
(-0.273457 0.840243 1.42668e-19)
(-0.70356 0.594994 5.61125e-19)
(-1.24688 0.312514 0)
(-1.10497 0.923254 -1.60352e-18)
(-0.169634 1.80438 1.1229e-18)
(0.139508 1.8697 -7.16571e-19)
(-0.167141 2.28985 2.82474e-19)
(0.770038 0.691823 -1.05171e-19)
(1.34114 1.25858 -2.36263e-19)
(1.28995 1.24675 0)
(1.22956 1.23344 7.179e-21)
(1.16046 1.21789 -3.74024e-19)
(1.08216 1.2004 1.06142e-18)
(0.993789 1.18115 3.92117e-19)
(0.892101 1.1603 0)
(0.772483 1.13944 7.19336e-19)
(0.623582 1.1206 -8.54473e-20)
(0.445074 1.10662 0)
(0.242276 1.09504 0)
(-0.000493556 1.07964 1.0199e-18)
(-0.325903 1.05662 -4.40178e-19)
(-0.821307 1.05715 -6.32102e-19)
(-1.41895 1.35181 0)
(-1.64023 2.25407 -3.04856e-19)
(-1.07218 2.99615 4.31889e-19)
(-0.654805 3.35289 1.84547e-19)
(-0.430163 3.39498 1.35367e-19)
(0.768186 0.710283 6.24799e-20)
(1.33446 1.2911 2.73157e-19)
(1.2837 1.27853 -1.25776e-19)
(1.22333 1.2647 -1.59746e-19)
(1.15468 1.2489 0)
(1.07666 1.23113 7.22406e-19)
(0.989404 1.2118 5.91757e-19)
(0.888115 1.19204 -6.04722e-20)
(0.769265 1.17359 1.0569e-19)
(0.62202 1.16029 1.50995e-18)
(0.445743 1.15888 1.43734e-18)
(0.245352 1.17175 9.64953e-19)
(0.00766511 1.20157 1.02964e-18)
(-0.295329 1.26742 -1.04477e-18)
(-0.672791 1.42824 -9.51774e-19)
(-1.06706 1.82587 0)
(-1.2289 2.41551 0)
(-0.979589 2.91235 4.82805e-20)
(-0.700008 3.01955 0)
(-0.526826 3.07798 2.09823e-20)
(0.767253 0.73081 0)
(1.32736 1.321 0)
(1.27737 1.30809 0)
(1.21662 1.29365 -3.80879e-20)
(1.14776 1.27761 -3.19689e-19)
(1.07039 1.25999 5.07728e-19)
(0.984566 1.2414 4.00088e-19)
(0.884674 1.22267 -6.07394e-20)
(0.768347 1.20675 9.32023e-19)
(0.624812 1.19943 -1.21422e-20)
(0.454701 1.21003 2.85011e-18)
(0.264866 1.24425 -1.08307e-19)
(0.0469294 1.30951 1.2558e-19)
(-0.211585 1.43056 1.45448e-19)
(-0.474615 1.63687 1.17747e-21)
(-0.676444 1.98224 2.04091e-20)
(-0.737017 2.3712 -7.64659e-19)
(-0.661316 2.66221 -2.12153e-19)
(-0.513746 2.79457 6.86973e-20)
(-0.426032 2.87476 -8.18867e-20)
(0.645725 0.666538 -1.86757e-20)
(1.32097 1.34786 0)
(1.27101 1.33582 2.06792e-19)
(1.21098 1.32147 3.69978e-19)
(1.14181 1.30529 -5.87227e-19)
(1.06445 1.28728 -5.21159e-19)
(0.979947 1.268 -4.37136e-19)
(0.881762 1.25048 7.70898e-19)
(0.768624 1.23779 -7.84528e-19)
(0.631238 1.23666 0)
(0.472923 1.25874 1.40566e-18)
(0.303824 1.31216 -7.76572e-19)
(0.12398 1.40317 0)
(-0.0810483 1.55563 1.42497e-19)
(-0.264566 1.7736 2.94913e-19)
(-0.393182 2.06743 -2.81263e-19)
(-0.450161 2.34617 2.93642e-19)
(-0.435351 2.5478 1.42248e-19)
(-0.357284 2.67026 1.22568e-19)
(-0.312581 2.76253 1.83514e-19)
(0.851629 0.848559 6.34518e-20)
(1.31478 1.38392 0)
(1.25984 1.37585 -1.80438e-19)
(1.19981 1.36291 -3.31365e-19)
(1.13116 1.34723 5.48402e-19)
(1.05451 1.32893 4.84929e-19)
(0.969368 1.31075 5.70117e-19)
(0.873349 1.295 5.93217e-20)
(0.763204 1.28606 8.00005e-19)
(0.630769 1.29302 1.37868e-18)
(0.483381 1.3305 8.39107e-20)
(0.336059 1.40919 7.01751e-19)
(0.193514 1.53046 1.16022e-19)
(0.0710618 1.7022 -1.30606e-19)
(-0.0173876 1.92553 -2.60406e-19)
(-0.0739373 2.17877 2.44536e-19)
(-0.124556 2.36936 -2.57218e-19)
(-0.140489 2.48463 -1.29592e-19)
(-0.126769 2.6031 -1.05708e-19)
(-0.191264 2.70613 -1.11795e-20)
(0.846617 0.847493 0)
(1.31031 1.4122 -2.61547e-20)
(1.25567 1.40609 2.93276e-20)
(1.19395 1.39291 3.11434e-20)
(1.12562 1.37585 3.3339e-19)
(1.04875 1.35687 -4.58243e-19)
(0.963722 1.33758 -3.57558e-19)
(0.866888 1.32098 5.62117e-20)
(0.756025 1.31164 -8.63811e-19)
(0.626831 1.32044 -1.61253e-20)
(0.48678 1.36455 -2.64819e-18)
(0.354057 1.45103 9.7375e-20)
(0.233733 1.58126 -1.1072e-19)
(0.144427 1.75656 -1.17453e-19)
(0.0909737 1.97264 1.5897e-20)
(0.0772138 2.19278 -8.47041e-21)
(0.0346862 2.37528 4.05997e-19)
(0.00682044 2.47103 1.94165e-19)
(-0.00163014 2.58847 -4.0929e-20)
(-0.0755034 2.68128 -6.22978e-20)
(0.815947 0.836186 -2.88351e-20)
(1.30655 1.44731 -1.56165e-19)
(1.24891 1.43743 8.04558e-20)
(1.18559 1.42146 1.17958e-19)
(1.11618 1.40272 0)
(1.04003 1.38331 -5.892e-19)
(0.955106 1.36684 -4.9849e-19)
(0.861263 1.35373 5.30215e-20)
(0.756051 1.34899 -9.36465e-20)
(0.636218 1.36177 -1.32626e-18)
(0.511159 1.41244 -1.24848e-18)
(0.40035 1.5049 -8.33968e-19)
(0.309475 1.63955 -8.18508e-19)
(0.248775 1.81451 7.7618e-19)
(0.224041 2.01504 6.62992e-19)
(0.238622 2.21168 0)
(0.205779 2.40615 0)
(0.169854 2.52279 -4.11048e-20)
(0.128009 2.63689 0)
(0.0346959 2.69584 -1.98557e-20)
(0.782933 0.832523 1.42672e-20)
(1.29797 1.48278 9.88967e-20)
(1.23945 1.46927 0)
(1.17617 1.45357 9.14056e-21)
(1.10696 1.43485 2.72834e-19)
(1.03139 1.41654 -8.12765e-19)
(0.948417 1.4013 -3.08381e-19)
(0.856017 1.38588 4.61962e-20)
(0.754007 1.37764 -6.84366e-19)
(0.64125 1.38929 7.27102e-20)
(0.530337 1.43873 0)
(0.441452 1.5307 0)
(0.38116 1.66126 -7.72397e-19)
(0.354029 1.8248 3.05046e-19)
(0.358805 2.00779 4.12424e-19)
(0.399966 2.1969 0)