/*--------------------------------*- C++ -*----------------------------------*\
  =========                 |
  \\      /  F ield         | OpenFOAM: The Open Source CFD Toolbox
   \\    /   O peration     | Website:  https://openfoam.org
    \\  /    A nd           | Version:  7
     \\/     M anipulation  |
\*---------------------------------------------------------------------------*/
FoamFile
{
    version     2.0;
    format      ascii;
    class       volScalarField;
    location    "52";
    object      p;
}
// * * * * * * * * * * * * * * * * * * * * * * * * * * * * * * * * * * * * * //

dimensions      [0 2 -2 0 0 0 0];

internalField   nonuniform List<scalar> 
8800
(
0.784567
0.736779
0.698089
0.669092
0.648227
0.633394
0.622796
0.615313
0.61049
0.60843
0.609694
0.613881
0.620524
0.629838
0.642615
0.660348
0.685124
0.719064
0.761613
0.820315
0.615819
0.623498
0.630971
0.634278
0.632774
0.627694
0.621205
0.615125
0.610398
0.607552
0.607268
0.609771
0.614256
0.620198
0.626964
0.633243
0.636882
0.636145
0.630723
0.622032
0.594228
0.600386
0.604512
0.607455
0.609501
0.610103
0.608993
0.606884
0.604865
0.603953
0.604911
0.607288
0.610083
0.61226
0.612864
0.611663
0.609318
0.605924
0.601365
0.597604
0.588428
0.591078
0.593828
0.596228
0.597859
0.599016
0.599753
0.599866
0.599566
0.599511
0.600258
0.601422
0.602256
0.602316
0.601702
0.600608
0.598789
0.596215
0.593811
0.592307
0.583061
0.584485
0.586262
0.58829
0.590069
0.591405
0.592388
0.593179
0.593788
0.594346
0.59499
0.595478
0.59557
0.595275
0.594571
0.593318
0.591618
0.589766
0.588457
0.587626
0.578003
0.578923
0.580161
0.581723
0.583349
0.584868
0.586145
0.587204
0.58816
0.589044
0.589724
0.590041
0.589989
0.589539
0.58865
0.587443
0.586109
0.584845
0.58402
0.583469
0.57312
0.573789
0.574748
0.576044
0.577445
0.578895
0.580324
0.581636
0.582824
0.583919
0.584727
0.58508
0.584981
0.584458
0.58364
0.582683
0.581662
0.580733
0.580145
0.57974
0.568365
0.568881
0.56966
0.570783
0.572052
0.573415
0.574849
0.576308
0.577721
0.579041
0.580028
0.580478
0.580432
0.580028
0.579409
0.57867
0.577885
0.577193
0.576756
0.57644
0.563669
0.564079
0.56473
0.565728
0.566923
0.568238
0.569667
0.571205
0.572807
0.574382
0.575601
0.57623
0.576366
0.576171
0.575766
0.575231
0.574645
0.574142
0.573816
0.573559
0.558947
0.559281
0.559843
0.560761
0.561905
0.563201
0.564662
0.566293
0.568072
0.569924
0.571445
0.572352
0.57275
0.572795
0.572609
0.572289
0.57189
0.571543
0.5713
0.571085
0.554113
0.55439
0.55489
0.555761
0.556885
0.558203
0.559732
0.561494
0.563492
0.565661
0.567564
0.568831
0.569545
0.569863
0.569915
0.569807
0.569593
0.569381
0.569206
0.569021
0.549081
0.549314
0.549775
0.550628
0.551771
0.553153
0.554792
0.556739
0.559017
0.561583
0.563954
0.565655
0.566735
0.567366
0.567682
0.567794
0.56776
0.567673
0.567552
0.567388
0.543762
0.54396
0.544401
0.545267
0.546471
0.547961
0.549766
0.551965
0.554603
0.557669
0.560609
0.562822
0.56433
0.565314
0.565923
0.566262
0.566426
0.566454
0.566379
0.56623
0.538061
0.53823
0.538669
0.539576
0.540883
0.542532
0.544568
0.547097
0.550195
0.553884
0.557514
0.560339
0.562348
0.563737
0.56468
0.565295
0.565648
0.565784
0.565748
0.565609
0.531864
0.532009
0.532459
0.533438
0.534893
0.53676
0.539104
0.542056
0.545735
0.550191
0.554658
0.558216
0.56082
0.562685
0.564002
0.564913
0.565483
0.565733
0.565735
0.565601
0.525038
0.525157
0.525635
0.526717
0.528372
0.530527
0.533264
0.536755
0.541155
0.546548
0.552032
0.556472
0.559784
0.562208
0.563967
0.565214
0.566027
0.566396
0.566432
0.5663
0.517415
0.517509
0.518029
0.519248
0.521161
0.523683
0.526927
0.5311
0.5364
0.542947
0.549658
0.555149
0.559295
0.562378
0.564666
0.566308
0.567387
0.567879
0.567947
0.567813
0.508764
0.508864
0.509437
0.510813
0.513054
0.516052
0.519941
0.524973
0.531396
0.539357
0.547548
0.554288
0.559419
0.563277
0.566192
0.568292
0.569676
0.570299
0.570399
0.57026
0.498797
0.498877
0.499538
0.501137
0.503809
0.50742
0.512127
0.518243
0.526064
0.535758
0.545728
0.553946
0.560237
0.565008
0.568646
0.57129
0.573017
0.573783
0.573912
0.573765
0.487146
0.487209
0.487969
0.48988
0.493104
0.4975
0.503254
0.510741
0.520301
0.532111
0.544213
0.554179
0.561832
0.567675
0.572149
0.575429
0.57754
0.578454
0.578609
0.57845
0.473277
0.473328
0.47423
0.476552
0.480505
0.485938
0.493061
0.502317
0.514071
0.528464
0.543095
0.555093
0.564309
0.571384
0.576835
0.580833
0.58336
0.584425
0.584601
0.584426
0.456431
0.45647
0.457587
0.460489
0.465443
0.472278
0.481226
0.492787
0.50731
0.524849
0.542444
0.556773
0.567766
0.576248
0.582794
0.587606
0.590573
0.591778
0.591965
0.591771
0.435494
0.435531
0.436986
0.440754
0.447148
0.455959
0.467411
0.482015
0.500023
0.52134
0.542369
0.55933
0.572313
0.582358
0.590107
0.595809
0.599214
0.600537
0.60072
0.600503
0.408726
0.408781
0.410817
0.41599
0.424607
0.43632
0.451297
0.46995
0.492329
0.518132
0.543049
0.56289
0.578032
0.589779
0.598833
0.605454
0.609255
0.610646
0.610804
0.610564
0.373122
0.373274
0.376503
0.384271
0.396659
0.412808
0.432823
0.456801
0.484541
0.51552
0.544713
0.56762
0.585018
0.598546
0.608984
0.616474
0.620562
0.621939
0.622045
0.621781
0.322947
0.323903
0.330329
0.34342
0.362355
0.385355
0.412298
0.44299
0.477036
0.513777
0.547518
0.573595
0.593288
0.608604
0.620425
0.628652
0.632858
0.634116
0.634142
0.633859
0.249319
0.25649
0.27138
0.294442
0.323155
0.355337
0.390768
0.429226
0.470313
0.513351
0.551994
0.581505
0.603725
0.621036
0.63433
0.643254
0.647525
0.648667
0.648642
0.648395
0.169999
0.187021
0.21118
0.244876
0.283759
0.325279
0.369289
0.415727
0.464284
0.514367
0.558932
0.592834
0.618307
0.638118
0.653306
0.662884
0.666981
0.667901
0.667899
0.667754
0.103921
0.124003
0.155844
0.198537
0.246413
0.296732
0.349065
0.403341
0.459238
0.516174
0.566394
0.604394
0.6329
0.654931
0.6714
0.681224
0.685138
0.685992
0.686071
0.685992
0.0497997
0.0715355
0.108877
0.157969
0.212946
0.270684
0.330388
0.391858
0.454647
0.518101
0.573685
0.615523
0.64675
0.670688
0.688348
0.698682
0.702953
0.703896
0.703979
0.703943
0.00468459
0.0276155
0.0687448
0.122918
0.183607
0.247467
0.313493
0.38135
0.450445
0.519985
0.580623
0.62607
0.65988
0.685707
0.70461
0.71581
0.720414
0.721326
0.721454
0.721449
-0.0336783
-0.010061
0.0339227
0.092144
0.157627
0.226699
0.298217
0.371753
0.446584
0.521766
0.587144
0.635991
0.672234
0.699887
0.72001
0.732002
0.73699
0.738036
0.738196
0.738216
-0.067298
-0.0432142
0.00304787
0.0645853
0.134124
0.207722
0.284105
0.362756
0.442845
0.523281
0.593111
0.645143
0.683655
0.71292
0.734111
0.746806
0.752205
0.753488
0.753699
0.753725
-0.0976485
-0.0731512
-0.025022
0.0393502
0.112385
0.189944
0.270683
0.353995
0.438955
0.524333
0.598374
0.653396
0.693978
0.724616
0.746786
0.760041
0.765769
0.767288
0.76753
0.767558
-0.125671
-0.100792
-0.0510489
0.0157474
0.0918619
0.172927
0.257582
0.34516
0.434668
0.524734
0.602819
0.660698
0.703193
0.735107
0.75801
0.771678
0.777651
0.779335
0.779599
0.77961
-0.152147
-0.126841
-0.0755958
-0.00670455
0.0721448
0.156336
0.244528
0.336026
0.429794
0.524354
0.606398
0.667079
0.711404
0.744492
0.767972
0.781924
0.788073
0.789855
0.79011
0.790095
-0.177423
-0.151679
-0.0992613
-0.0283244
0.0529442
0.139939
0.231333
0.326439
0.42421
0.523117
0.609092
0.672585
0.718737
0.752931
0.776959
0.791033
0.797222
0.799051
0.799269
0.799222
-0.201904
-0.175591
-0.122117
-0.0493566
0.0340682
0.12358
0.21788
0.316303
0.417831
0.520945
0.610872
0.67726
0.725305
0.760617
0.785066
0.799179
0.80536
0.807149
0.807371
0.807303
-0.225715
-0.198965
-0.144307
-0.069949
0.0154051
0.107172
0.204098
0.305563
0.410605
0.517793
0.611714
0.681149
0.731239
0.767704
0.792499
0.806576
0.812688
0.814404
0.814569
0.814471
-0.248972
-0.221677
-0.165982
-0.090178
-0.00309172
0.0906858
0.189968
0.294198
0.402509
0.513615
0.611569
0.684271
0.736631
0.774316
0.799407
0.813374
0.819307
0.820896
0.820989
0.82085
-0.271797
-0.243907
-0.187205
-0.110071
-0.0214459
0.0741253
0.175513
0.282236
0.393549
0.508377
0.610385
0.686614
0.74155
0.780582
0.805926
0.819656
0.825271
0.826654
0.826667
0.826503
-0.294196
-0.265628
-0.207983
-0.129622
-0.0396223
0.0575241
0.160779
0.26972
0.383754
0.50206
0.608106
0.688132
0.746009
0.786634
0.812246
0.82555
0.830649
0.831747
0.831681
0.831502
-0.316012
-0.286803
-0.228256
-0.148804
-0.0575841
0.0409493
0.145827
0.256727
0.373184
0.494688
0.604673
0.688736
0.749963
0.792607
0.818668
0.831327
0.835569
0.836228
0.836071
0.835896
-0.33722
-0.307403
-0.248006
-0.167566
-0.0752722
0.024461
0.130751
0.243335
0.361919
0.486294
0.600043
0.688294
0.753303
0.798566
0.825569
0.837491
0.840355
0.840187
0.839875
0.839745
-0.357887
-0.32739
-0.267205
-0.18587
-0.0926235
0.00814301
0.115638
0.229651
0.350053
0.476946
0.594178
0.686657
0.755826
0.804404
0.833262
0.844905
0.845939
0.844056
0.843222
0.843351
-0.377837
-0.346739
-0.285795
-0.203655
-0.109578
-0.00792107
0.100584
0.215785
0.337704
0.466745
0.587071
0.683658
0.757253
0.809755
0.841658
0.85452
0.854377
0.849958
0.847071
0.846506
-0.397165
-0.365441
-0.303794
-0.220948
-0.126169
-0.0237744
0.0855333
0.201681
0.324804
0.455617
0.57859
0.679019
0.757267
0.814072
0.850024
0.866499
0.86797
0.862076
0.853535
0.83913
-0.415794
-0.383479
-0.321318
-0.237946
-0.142681
-0.0397481
0.0700734
0.186858
0.31082
0.44293
0.568083
0.671949
0.755271
0.816555
0.856486
0.878299
0.882232
0.870257
0.85084
0.83853
-0.433547
-0.400987
-0.338172
-0.254436
-0.158776
-0.0554976
0.0544303
0.171643
0.296059
0.428947
0.555632
0.662
0.750509
0.816082
0.856672
0.878208
0.885272
0.862826
0.794926
0.764321
-0.449755
-0.4192
-0.354019
-0.269882
-0.173693
-0.07052
0.038914
0.156262
0.280739
0.413794
0.54118
0.648887
0.74166
0.812027
0.845851
0.861269
0.852847
0.799744
0.730766
0.688274
-0.505907
-0.435255
-0.368462
-0.285373
-0.189017
-0.0862622
0.0234611
0.140439
0.264496
0.397024
0.524132
0.632014
0.724999
0.801951
0.807808
0.812291
0.765229
0.696292
0.620146
0.577733
-0.466961
-0.450793
-0.38999
-0.306307
-0.211526
-0.108891
-0.000193193
0.116091
0.239084
0.370083
0.495045
0.600894
0.68577
0.766447
0.755407
0.644397
0.540529
0.468256
0.395372
0.426583
-0.49827
-0.468653
-0.406855
-0.323944
-0.229155
-0.126717
-0.017771
0.097853
0.219745
0.348909
0.471022
0.572506
0.648735
0.69116
0.643785
0.497132
0.37064
0.280107
0.181822
0.232494
-0.522381
-0.48981
-0.426711
-0.343585
-0.248706
-0.146372
-0.037514
0.0772617
0.197733
0.324483
0.442849
0.538207
0.60531
0.614234
0.509058
0.337665
0.186115
0.0681456
-0.0624445
-0.0293245
-0.546
-0.511851
-0.447536
-0.363491
-0.268473
-0.166273
-0.0579308
0.0558718
0.174735
0.298708
0.412441
0.500379
0.552098
0.530207
0.373212
0.178169
-0.011193
-0.178341
-0.366461
-0.384448
-0.569003
-0.534386
-0.469152
-0.38432
-0.289105
-0.187102
-0.0793987
0.0333148
0.150323
0.271147
0.379566
0.459929
0.492826
0.435055
0.243975
0.034738
-0.181587
-0.370153
-0.611693
-0.910476
-0.592292
-0.55766
-0.491855
-0.406503
-0.311065
-0.209207
-0.102066
0.00953011
0.124586
0.24202
0.344855
0.417019
0.429601
0.320972
0.131598
-0.0769974
-0.280272
-0.451791
-0.52035
-0.599662
-0.61682
-0.582118
-0.515993
-0.430376
-0.334853
-0.233227
-0.126738
-0.0164278
0.0963689
0.209904
0.306785
0.368101
0.356259
0.214077
0.03187
-0.157753
-0.319415
-0.41152
-0.435418
-0.451396
-0.642897
-0.608072
-0.541737
-0.456021
-0.360597
-0.259368
-0.153769
-0.045042
0.0650815
0.174085
0.264518
0.312115
0.282895
0.11491
-0.0585146
-0.223092
-0.348479
-0.387163
-0.400092
-0.401421
-0.670726
-0.635692
-0.569145
-0.483425
-0.388238
-0.28763
-0.18317
-0.0763585
0.0306578
0.134557
0.217648
0.251289
0.202967
0.0232548
-0.141242
-0.288609
-0.363709
-0.380836
-0.382238
-0.382065
-0.700363
-0.665032
-0.598234
-0.512577
-0.417782
-0.317991
-0.214936
-0.110385
-0.00689311
0.0913748
0.166229
0.1884
0.104518
-0.0605641
-0.21708
-0.338494
-0.374796
-0.37295
-0.371888
-0.371282
-0.731515
-0.695913
-0.628889
-0.543377
-0.44913
-0.350384
-0.249025
-0.147088
-0.0475393
0.0446192
0.11102
0.116608
0.0145653
-0.138893
-0.277253
-0.351824
-0.362206
-0.364999
-0.365748
-0.365394
-0.763613
-0.727859
-0.660846
-0.575587
-0.482081
-0.384635
-0.285269
-0.186325
-0.0911042
-0.00539418
0.0523461
0.0432783
-0.0663642
-0.205331
-0.321055
-0.352352
-0.360473
-0.36223
-0.362128
-0.361826
-0.796182
-0.76032
-0.693633
-0.608792
-0.516271
-0.420403
-0.323366
-0.227792
-0.137306
-0.0580324
-0.0108274
-0.0272841
-0.140947
-0.258929
-0.352335
-0.366863
-0.360192
-0.359361
-0.359383
-0.359262
-0.828325
-0.792568
-0.72636
-0.642374
-0.551131
-0.457186
-0.362834
-0.270985
-0.185653
-0.112776
-0.0755122
-0.0944092
-0.206977
-0.298746
-0.354868
-0.365647
-0.361408
-0.359115
-0.358313
-0.358104
-0.85841
-0.823392
-0.758048
-0.675389
-0.585864
-0.494247
-0.402976
-0.315167
-0.235315
-0.169112
-0.135421
-0.172543
-0.264628
-0.328744
-0.339864
-0.358837
-0.363413
-0.36167
-0.361004
-0.360476
-0.884867
-0.850919
-0.787546
-0.706625
-0.619395
-0.530601
-0.442865
-0.359389
-0.285093
-0.226087
-0.19369
-0.252845
-0.330059
-0.339618
-0.35672
-0.368763
-0.376049
-0.378969
-0.380217
-0.380003
-0.905538
-0.873344
-0.81275
-0.73464
-0.650398
-0.565033
-0.481322
-0.402488
-0.333659
-0.282126
-0.255401
-0.329214
-0.416443
-0.427889
-0.404315
-0.429266
-0.436734
-0.439912
-0.438022
-0.435719
-0.918173
-0.888698
-0.831768
-0.757534
-0.677322
-0.59613
-0.516994
-0.443063
-0.379536
-0.334979
-0.316616
-0.398272
-0.550233
-0.678971
-0.623161
-0.562304
-0.532902
-0.518708
-0.508552
-0.50566
-0.920113
-0.894712
-0.84263
-0.773459
-0.698429
-0.622473
-0.548388
-0.479515
-0.421092
-0.381466
-0.364999
-0.445434
-0.614927
-0.919992
-0.833452
-0.622911
-0.524766
-0.492501
-0.483668
-0.48107
-0.909291
-0.888768
-0.843163
-0.780792
-0.712204
-0.642437
-0.574063
-0.510271
-0.456205
-0.418337
-0.392833
-0.397239
-0.404929
-0.560998
-0.543501
-0.438031
-0.394756
-0.38381
-0.381244
-0.378858
-0.883557
-0.867979
-0.83158
-0.778324
-0.71768
-0.655018
-0.592786
-0.53398
-0.482773
-0.446253
-0.403339
-0.247452
0.0553038
0.366839
0.217336
-0.0580537
-0.212039
-0.266641
-0.283669
-0.28563
-0.845274
-0.835131
-0.808522
-0.766225
-0.714871
-0.660035
-0.604109
-0.54968
-0.500803
-0.462963
-0.410494
-0.238678
0.0959156
0.353573
0.137561
-0.150488
-0.343156
-0.411476
-0.427016
-0.434923
-0.800927
-0.795144
-0.77879
-0.747239
-0.705749
-0.658386
-0.608429
-0.557846
-0.510701
-0.473592
-0.442441
-0.517046
-0.804639
-1.07266
-1.17529
-1.19194
-1.07512
-0.936874
-0.865733
-0.875599
-0.760126
-0.756656
-0.748559
-0.72688
-0.69335
-0.65229
-0.606821
-0.558738
-0.511127
-0.473914
-0.456921
-0.726448
-1.41377
-2.35389
-2.89008
-2.88019
-2.59538
-2.2677
-1.95016
-1.77787
-0.730255
-0.728048
-0.724055
-0.710014
-0.682294
-0.644734
-0.601283
-0.552287
-0.500514
-0.446114
-0.422071
-0.475728
-0.72103
-0.890932
-0.906302
-0.701562
-0.509554
-0.374169
-0.234334
-0.156671
-0.707671
-0.706876
-0.705697
-0.698322
-0.675598
-0.63938
-0.594234
-0.541929
-0.481186
-0.413291
-0.352895
-0.306477
-0.188942
0.134062
0.53105
0.88707
1.11256
1.21782
1.26763
1.28181
-0.694025
-0.693669
-0.69321
-0.689934
-0.672448
-0.636482
-0.588037
-0.530297
-0.462899
-0.383327
-0.289533
-0.185895
0.066136
0.546349
1.03459
1.47224
1.7428
1.86824
1.91004
1.91778
-0.684905
-0.684663
-0.684109
-0.683309
-0.671092
-0.635788
-0.58374
-0.520296
-0.443925
-0.348135
-0.238237
-0.120152
0.14387
0.588712
1.04995
1.45476
1.72056
1.84601
1.88828
1.89762
-0.67891
-0.678979
-0.678964
-0.678795
-0.670137
-0.637666
-0.583807
-0.514421
-0.428832
-0.328962
-0.217698
-0.101164
0.102365
0.491101
0.868062
1.1903
1.41222
1.52253
1.56523
1.57663
-0.676472
-0.675506
-0.672422
-0.668884
-0.665904
-0.6434
-0.590588
-0.5147
-0.422838
-0.319739
-0.21489
-0.113361
0.0394742
0.35521
0.651249
0.888492
1.05876
1.14968
1.18992
1.20236
-0.695459
-0.690931
-0.678885
-0.668784
-0.672502
-0.664496
-0.607256
-0.520314
-0.420839
-0.316491
-0.221348
-0.133554
-0.018107
0.217401
0.452063
0.634346
0.7702
0.847061
0.882247
0.89283
-0.758488
-0.756021
-0.755608
-0.761304
-0.764258
-0.731138
-0.637294
-0.526849
-0.416518
-0.311381
-0.227955
-0.161976
-0.0767444
0.121674
0.303008
0.443245
0.550646
0.612802
0.640635
0.648012
-0.849838
-0.862543
-0.889318
-0.904817
-0.889766
-0.805268
-0.661591
-0.523463
-0.405656
-0.303205
-0.228791
-0.17754
-0.122751
0.0283518
0.174197
0.28754
0.369355
0.416445
0.436692
0.441277
-0.85193
-0.869469
-0.899078
-0.915469
-0.891505
-0.786926
-0.631538
-0.492924
-0.379545
-0.285322
-0.216024
-0.168785
-0.123721
-0.00657356
0.0998703
0.177086
0.235599
0.270227
0.285865
0.289225
-0.669335
-0.686207
-0.71113
-0.72663
-0.704878
-0.62354
-0.519396
-0.419825
-0.332606
-0.255808
-0.193769
-0.144959
-0.0892201
-0.0138758
0.0583344
0.112308
0.150781
0.173787
0.183615
0.185179
-0.379991
-0.388678
-0.403877
-0.419768
-0.421914
-0.40005
-0.362778
-0.317724
-0.269285
-0.216404
-0.1644
-0.114726
-0.0654983
-0.0160237
0.0282232
0.065437
0.0960165
0.11554
0.123698
0.123882
-0.134914
-0.138547
-0.148786
-0.167738
-0.192021
-0.212497
-0.222535
-0.22022
-0.204782
-0.176283
-0.138451
-0.0959664
-0.0566148
-0.0268068
0.00630847
0.035624
0.060657
0.0764077
0.082752
0.0816741
-0.000492727
-0.00246999
-0.0107122
-0.0305138
-0.0627632
-0.0985623
-0.12832
-0.146973
-0.152238
-0.142366
-0.118833
-0.0889949
-0.0633725
-0.0523042
-0.0314449
-0.00592739
0.0176288
0.0295707
0.0321136
0.0306259
0.047091
0.045598
0.0388775
0.0219292
-0.00668608
-0.0408122
-0.0735753
-0.0996852
-0.115369
-0.118324
-0.10862
-0.093607
-0.0806715
-0.0797105
-0.0676667
-0.0486831
-0.0330423
-0.0244327
-0.0224094
-0.0241989
0.050571
0.0494196
0.0444098
0.0317607
0.010025
-0.0174299
-0.0463719
-0.0726661
-0.0930139
-0.105097
-0.107204
-0.104183
-0.10335
-0.109549
-0.103401
-0.0917433
-0.083372
-0.0809483
-0.0808333
-0.0822354
0.0371658
0.0363356
0.03281
0.0239107
0.008313
-0.0124049
-0.0360483
-0.059822
-0.0814787
-0.0996183
-0.112225
-0.121777
-0.131271
-0.140647
-0.138925
-0.133566
-0.130812
-0.131459
-0.132573
-0.133359
0.0198565
0.0192757
0.0168425
0.0106993
-0.000306371
-0.0156396
-0.034392
-0.055053
-0.0766927
-0.0993914
-0.121657
-0.143872
-0.16078
-0.168302
-0.167507
-0.165505
-0.166436
-0.168637
-0.16998
-0.170509
0.00404379
0.00363793
0.00195447
-0.00229217
-0.0100666
-0.02141
-0.0361624
-0.0539421
-0.0749026
-0.100513
-0.131344
-0.165777
-0.190746
-0.193716
-0.189603
-0.188067
-0.189592
-0.192268
-0.193278
-0.193611
-0.00831198
-0.00862167
-0.00977461
-0.0127036
-0.0181975
-0.0265965
-0.0381716
-0.0532283
-0.0728419
-0.0995041
-0.135467
-0.177346
-0.210027
-0.206797
-0.199145
-0.197835
-0.200045
-0.202592
-0.203363
-0.203473
-0.016588
-0.0168367
-0.0176415
-0.0196546
-0.023506
-0.0296601
-0.0386017
-0.0509799
-0.0680431
-0.0938058
-0.130848
-0.176144
-0.203915
-0.196793
-0.190299
-0.190045
-0.194121
-0.197345
-0.198015
-0.197923
-0.0210153
-0.0211949
-0.0217686
-0.0230763
-0.0256671
-0.0300398
-0.0367267
-0.0464682
-0.0606418
-0.0821878
-0.113972
-0.152525
-0.17144
-0.1641
-0.16042
-0.165203
-0.171088
-0.174726
-0.175377
-0.175218
-0.0219896
-0.0221327
-0.0225023
-0.0232877
-0.0248904
-0.0277848
-0.03246
-0.0395002
-0.049826
-0.0652833
-0.0867292
-0.111356
-0.121699
-0.11646
-0.118337
-0.126497
-0.133926
-0.137562
-0.138168
-0.138099
-0.0199486
-0.0200627
-0.0202826
-0.0206772
-0.0215383
-0.0232647
-0.0262321
-0.0307793
-0.0372512
-0.0457546
-0.0543682
-0.0607763
-0.058206
-0.0571324
-0.0683681
-0.0810288
-0.0893653
-0.0926851
-0.0933099
-0.0933098
-0.0155244
-0.0156126
-0.0157346
-0.0158803
-0.0161906
-0.0170588
-0.0186915
-0.0212072
-0.0244699
-0.0272129
-0.0244705
-0.0128508
0.00506502
-0.00374661
-0.0222494
-0.0371395
-0.0446616
-0.0463315
-0.0472498
-0.0476307
-0.00929263
-0.0093566
-0.00941334
-0.00942017
-0.00948159
-0.00980009
-0.0105035
-0.0115813
-0.0127738
-0.012455
-0.00521477
0.0138172
0.0336937
0.0228961
0.00518005
-0.00736838
-0.010899
-0.0111229
-0.0114588
-0.0124048
-0.00188571
-0.00189456
-0.00191017
-0.00193489
-0.00191876
-0.00187809
-0.00195519
-0.00210955
-0.00231212
-0.00228612
-0.00122746
0.00358698
0.0119945
0.0144149
0.00716822
0.0056068
0.00503781
0.00390734
0.000685678
-0.000230893
-0.136907
0.030215
0.225447
0.395925
0.532346
0.640037
0.729235
0.805155
0.83969
0.816403
0.166747
0.287681
0.417863
0.530463
0.625473
0.704181
0.767931
0.813184
0.835839
0.847909
0.386281
0.469302
0.55832
0.636991
0.704695
0.761357
0.806421
0.839343
0.863126
0.881103
0.547551
0.606959
0.668839
0.7261
0.775924
0.818243
0.853001
0.880726
0.903552
0.921849
0.673328
0.716569
0.762649
0.806573
0.845375
0.879272
0.908283
0.932427
0.952834
0.970668
0.77786
0.810813
0.849006
0.884625
0.917321
0.946627
0.972237
0.993762
1.01163
1.02897
0.87054
0.899278
0.933303
0.965485
0.995477
1.02269
1.04646
1.06621
1.08172
1.0988
0.959209
0.988441
1.02248
1.05455
1.08419
1.1108
1.13368
1.15218
1.16556
1.1826
1.05457
1.0878
1.12446
1.15806
1.18812
1.21432
1.23629
1.25357
1.26545
1.28285
1.1696
1.20744
1.24609
1.28035
1.3097
1.33446
1.35484
1.37074
1.38221
1.40028
1.31455
1.35311
1.38925
1.41995
1.44563
1.46773
1.48679
1.50233
1.51476
1.53275
1.48965
1.52127
1.54745
1.56991
1.58989
1.60861
1.62633
1.64281
1.65816
1.67623
1.67827
1.69547
1.71051
1.72674
1.74265
1.75719
1.77039
1.78432
1.80186
1.82202
1.85999
1.86953
1.88107
1.89188
1.90117
1.91075
1.92154
1.9329
1.94427
1.95962
2.06723
2.07089
2.05595
2.04114
2.03486
2.04054
2.05902
2.08933
2.12151
2.14816
2.37355
2.23868
2.16205
2.11967
2.10224
2.10621
2.13361
2.19002
2.29264
2.51701
0.675167
0.673038
0.668554
0.659928
0.647702
0.63557
0.625336
0.617435
0.611811
0.608548
0.608181
0.610908
0.616002
0.623217
0.632598
0.644134
0.656781
0.667814
0.673925
0.676978
0.599624
0.605471
0.611802
0.616293
0.61876
0.618432
0.615691
0.611875
0.608357
0.606087
0.605927
0.608112
0.611764
0.616044
0.619844
0.621722
0.620782
0.617297
0.612133
0.605512
0.591203
0.593499
0.596902
0.599896
0.601967
0.603459
0.604209
0.603886
0.602852
0.601958
0.602118
0.60353
0.605332
0.606628
0.606799
0.605902
0.604348
0.602008
0.598742
0.595821
0.5857
0.586787
0.588618
0.590993
0.593012
0.594435
0.595448
0.596192
0.596583
0.596793
0.597267
0.598056
0.598638
0.598691
0.598268
0.597411
0.595935
0.593846
0.591756
0.590372
0.580507
0.58117
0.582276
0.583977
0.585754
0.587379
0.588667
0.589672
0.590543
0.591317
0.592026
0.592555
0.592729
0.592545
0.591965
0.590899
0.589462
0.587912
0.58659
0.585809
0.575545
0.576005
0.576789
0.578082
0.579563
0.581072
0.582527
0.583813
0.584933
0.585969
0.586859
0.587399
0.58752
0.587224
0.58651
0.585506
0.584369
0.583227
0.582307
0.581789
0.570732
0.571077
0.571685
0.572748
0.574035
0.575399
0.576825
0.578256
0.57961
0.580866
0.581945
0.582601
0.582746
0.582443
0.581821
0.581026
0.58016
0.579283
0.578604
0.578225
0.566017
0.566285
0.566776
0.567679
0.568839
0.570124
0.571504
0.572974
0.574491
0.575981
0.577289
0.578113
0.578374
0.578218
0.577796
0.577213
0.576544
0.575891
0.575393
0.575103
0.561319
0.561533
0.56194
0.562732
0.56381
0.565045
0.566412
0.567924
0.569566
0.571284
0.572867
0.573939
0.574425
0.574499
0.574297
0.573925
0.573457
0.572991
0.57263
0.572403
0.556552
0.556724
0.557073
0.557791
0.558821
0.560031
0.561423
0.563013
0.564804
0.566765
0.568675
0.570085
0.570878
0.571224
0.571262
0.571108
0.570843
0.570544
0.570297
0.570117
0.55163
0.551769
0.552077
0.552749
0.553761
0.554993
0.556447
0.558156
0.560147
0.562404
0.564713
0.566547
0.567708
0.568369
0.568677
0.568755
0.568689
0.56855
0.568398
0.568253
0.546467
0.546579
0.546858
0.547511
0.548539
0.549837
0.551397
0.553279
0.555537
0.55817
0.560974
0.563316
0.56491
0.565934
0.566547
0.566872
0.567009
0.56703
0.566962
0.566844
0.54097
0.541059
0.541322
0.541979
0.54306
0.544466
0.546186
0.548309
0.550912
0.554027
0.557439
0.560391
0.562495
0.563936
0.564889
0.565505
0.565865
0.566033
0.566039
0.565942
0.535036
0.535104
0.53536
0.536044
0.537215
0.538777
0.540721
0.543164
0.546206
0.549924
0.554082
0.557767
0.560478
0.56241
0.563752
0.564688
0.565293
0.56562
0.565695
0.565616
0.52854
0.528588
0.528845
0.529579
0.530881
0.532654
0.534896
0.537747
0.541348
0.54581
0.550878
0.55545
0.558884
0.561396
0.563193
0.564484
0.565373
0.565871
0.566014
0.56595
0.521336
0.521365
0.521628
0.522434
0.523912
0.52596
0.528582
0.531954
0.536257
0.541639
0.547815
0.553455
0.55775
0.560948
0.563283
0.564994
0.566205
0.566886
0.567097
0.567045
0.51324
0.513257
0.513519
0.514423
0.516129
0.51852
0.521633
0.525669
0.530853
0.537374
0.544899
0.551818
0.557136
0.561134
0.564106
0.566323
0.567896
0.568778
0.569058
0.569016
0.503942
0.503929
0.504253
0.505293
0.507286
0.510126
0.513868
0.518743
0.525032
0.532965
0.54213
0.550571
0.557095
0.56204
0.565758
0.568572
0.570563
0.571666
0.572019
0.571983
0.493174
0.493135
0.493503
0.494735
0.497095
0.500519
0.505061
0.511
0.518671
0.528339
0.539488
0.54975
0.557697
0.563762
0.568358
0.571859
0.574332
0.575679
0.576105
0.576073
0.480462
0.480396
0.480841
0.482322
0.485162
0.489345
0.494924
0.502232
0.511657
0.523479
0.537023
0.549432
0.559033
0.566391
0.572015
0.576306
0.579329
0.580938
0.581434
0.581402
0.465169
0.465073
0.46564
0.467469
0.470956
0.476156
0.483113
0.492213
0.50388
0.51837
0.534784
0.549702
0.561206
0.570038
0.576853
0.582039
0.585668
0.587548
0.588107
0.588068
0.446375
0.446252
0.447015
0.449353
0.453748
0.46036
0.469201
0.480693
0.495253
0.513048
0.532865
0.550656
0.564316
0.574814
0.582941
0.589147
0.593425
0.595568
0.596174
0.596122
0.422687
0.422546
0.423638
0.426765
0.432526
0.441203
0.452712
0.467454
0.485741
0.507571
0.531368
0.552413
0.56846
0.580798
0.590358
0.597677
0.602617
0.604992
0.605618
0.605544
0.391804
0.391682
0.393379
0.397875
0.405916
0.417803
0.433231
0.452448
0.475533
0.502248
0.53059
0.555184
0.573772
0.588056
0.599167
0.607647
0.613187
0.615716
0.616319
0.616216
0.34962
0.349657
0.352687
0.360034
0.372296
0.389434
0.410661
0.435896
0.464936
0.497331
0.530703
0.559094
0.580337
0.596639
0.609328
0.618959
0.62495
0.627495
0.628019
0.627878
0.288452
0.289629
0.297052
0.310759
0.33072
0.356197
0.385578
0.418479
0.454582
0.49334
0.532048
0.5643
0.588185
0.606464
0.620669
0.631266
0.637523
0.63986
0.640208
0.640033
0.2157
0.217424
0.231652
0.255233
0.286021
0.321358
0.35967
0.400778
0.444489
0.490302
0.535259
0.572363
0.599759
0.620643
0.636752
0.648543
0.655032
0.657277
0.657605
0.65752
0.140522
0.146629
0.167664
0.201391
0.242504
0.287422
0.334626
0.383995
0.435409
0.488414
0.539833
0.581984
0.613025
0.636729
0.655021
0.667766
0.674117
0.676024
0.676261
0.676232
0.0790343
0.0874308
0.113033
0.153743
0.202915
0.256009
0.311241
0.368351
0.427125
0.487054
0.544658
0.591566
0.625963
0.652105
0.672023
0.685523
0.691904
0.693667
0.694051
0.694087
0.0289996
0.0379907
0.0671352
0.113065
0.168351
0.228035
0.290053
0.353992
0.419471
0.485873
0.549319
0.600714
0.638233
0.666631
0.688089
0.702508
0.709189
0.711424
0.711912
0.711983
-0.012955
-0.00367583
0.0279264
0.0778509
0.138146
0.203296
0.271065
0.340972
0.412481
0.484839
0.553752
0.609368
0.649833
0.680403
0.703468
0.718854
0.726267
0.728861
0.729425
0.729515
-0.0491759
-0.039772
-0.00631044
0.046818
0.111244
0.181057
0.253838
0.329027
0.405985
0.483825
0.557846
0.617426
0.660665
0.693259
0.717811
0.734171
0.742288
0.745113
0.74577
0.745862
-0.0813174
-0.0718603
-0.036964
0.0188706
0.0867645
0.160592
0.2378
0.317736
0.399679
0.482611
0.561436
0.624744
0.670561
0.704958
0.730766
0.747979
0.756763
0.75986
0.760538
0.760623
-0.110636
-0.101122
-0.0650502
-0.00687784
0.0640024
0.141341
0.222479
0.306719
0.393255
0.480969
0.564352
0.63121
0.679423
0.715466
0.742313
0.760204
0.76946
0.772785
0.773514
0.773586
-0.137979
-0.128405
-0.091275
-0.0311088
0.042436
0.122879
0.20753
0.295681
0.386473
0.4787
0.566476
0.636777
0.687288
0.724839
0.752627
0.771026
0.780542
0.784045
0.784818
0.784874
-0.163899
-0.154243
-0.116121
-0.054257
0.0216831
0.104888
0.192702
0.284417
0.379159
0.475674
0.567739
0.641458
0.69424
0.733236
0.761893
0.780648
0.79029
0.793879
0.794662
0.794693
-0.188875
-0.179032
-0.140057
-0.0765687
0.00148189
0.087154
0.177824
0.272789
0.371204
0.471805
0.568088
0.645266
0.700357
0.74081
0.770242
0.789254
0.798925
0.802493
0.803259
0.803252
-0.213132
-0.203055
-0.163305
-0.0982478
-0.0183324
0.0695444
0.162786
0.26072
0.362535
0.467026
0.567478
0.648202
0.705726
0.747716
0.777882
0.797041
0.806683
0.810192
0.810905
0.810868
-0.236767
-0.22647
-0.185873
-0.119447
-0.0378549
0.052
0.147544
0.248166
0.353116
0.461288
0.565859
0.650265
0.710423
0.754082
0.784957
0.804189
0.813735
0.81712
0.817751
0.81769
-0.259917
-0.249303
-0.207948
-0.140228
-0.0571242
0.03449
0.132091
0.235133
0.34295
0.454579
0.563179
0.651424
0.714494
0.760014
0.791609
0.81083
0.820168
0.823345
0.823858
0.823751
-0.282555
-0.271651
-0.229533
-0.160612
-0.0761428
0.0170329
0.116463
0.221659
0.332064
0.446891
0.559394
0.651627
0.717951
0.765599
0.797987
0.81709
0.826029
0.828879
0.829244
0.829101
-0.304726
-0.293501
-0.250573
-0.180579
-0.094885
-0.000332354
0.100706
0.207808
0.320517
0.43825
0.554473
0.650803
0.720736
0.770894
0.804301
0.823203
0.83147
0.833797
0.83398
0.833808
-0.326247
-0.314773
-0.27106
-0.200084
-0.113298
-0.0175312
0.0848894
0.193655
0.308383
0.428717
0.548403
0.648871
0.722739
0.775901
0.810794
0.829562
0.836783
0.838219
0.838106
0.837916
-0.347257
-0.335426
-0.290975
-0.219102
-0.131347
-0.0345224
0.0691074
0.179282
0.295754
0.418375
0.541199
0.645729
0.723798
0.780508
0.817629
0.836735
0.842638
0.842503
0.841699
0.841482
-0.367588
-0.355432
-0.310284
-0.237582
-0.14895
-0.0512195
0.0534434
0.164813
0.282743
0.407295
0.532909
0.641279
0.723705
0.784459
0.824705
0.845294
0.850364
0.847952
0.845316
0.84426
-0.3873
-0.374831
-0.32893
-0.25547
-0.166069
-0.0675513
0.0379828
0.15033
0.269463
0.395618
0.523611
0.635431
0.722236
0.78736
0.831468
0.85519
0.861476
0.857806
0.851213
0.842527
-0.406306
-0.393581
-0.347009
-0.272922
-0.182912
-0.0837934
0.0223912
0.135433
0.255465
0.382838
0.512765
0.627609
0.71886
0.788776
0.837132
0.865499
0.876123
0.873252
0.863196
0.857333
-0.424556
-0.411601
-0.364507
-0.289901
-0.199477
-0.0999431
0.00668516
0.120103
0.240704
0.368841
0.500184
0.617437
0.712825
0.787932
0.839632