-4.995 	348.432 	1.88905e-12 	100000
-4.994 	348.432 	1.95452e-12 	100000
-4.993 	348.432 	2.06408e-12 	100000
-4.992 	348.432 	2.18021e-12 	100000
-4.991 	348.432 	2.18159e-12 	100000
-4.99 	348.432 	2.35329e-12 	100000
-4.98901 	348.432 	2.51765e-12 	100000
-4.98801 	348.432 	2.42113e-12 	100000
-4.98701 	348.432 	2.47942e-12 	100000
-4.98601 	348.432 	2.29376e-12 	100000
-4.98501 	348.432 	2.08572e-12 	100000
-4.98401 	348.432 	2.08627e-12 	100000
-4.98301 	348.432 	2.04286e-12 	100000
-4.98201 	348.432 	2.24811e-12 	100000
-4.98101 	348.432 	2.24558e-12 	100000
-4.98001 	348.432 	2.28903e-12 	100000
-4.97901 	348.432 	2.58988e-12 	100000
-4.97802 	348.432 	2.53908e-12 	100000
-4.97702 	348.432 	2.62193e-12 	100000
-4.97602 	348.432 	2.50995e-12 	100000
-4.97502 	348.432 	2.24697e-12 	100000
-4.97402 	348.432 	2.02834e-12 	100000
-4.97302 	348.432 	1.71777e-12 	100000
-4.97202 	348.432 	1.45838e-12 	100000
-4.97102 	348.432 	1.23483e-12 	100000
-4.97002 	348.432 	8.75093e-13 	100000
-4.96902 	348.432 	6.02301e-13 	100000
-4.96802 	348.432 	4.83659e-13 	100000
-4.96703 	348.432 	2.07899e-13 	100000
-4.96603 	348.432 	1.72763e-13 	100000
-4.96503 	348.432 	1.42912e-13 	100000
-4.96403 	348.432 	1.40989e-13 	100000
-4.96303 	348.432 	2.47144e-13 	100000
-4.96203 	348.432 	1.52805e-13 	100000
-4.96103 	348.432 	1.25036e-13 	100000
-4.96003 	348.432 	2.19729e-13 	100000
-4.95903 	348.432 	3.06537e-13 	100000
-4.95803 	348.432 	2.52836e-13 	100000
-4.95703 	348.432 	1.19502e-13 	100000
-4.95604 	348.432 	2.57451e-13 	100000
-4.95504 	348.432 	4.43803e-13 	100000
-4.95404 	348.432 	4.74331e-13 	100000
-4.95304 	348.432 	3.84909e-13 	100000
-4.95204 	348.432 	3.81528e-13 	100000
-4.95104 	348.432 	3.83675e-13 	100000
-4.95004 	348.432 	3.09084e-13 	100000
-4.94904 	348.432 	2.35255e-13 	100000
-4.94804 	348.432 	2.59597e-13 	100000
-4.94704 	348.432 	1.64241e-13 	100000
-4.94604 	348.432 	1.566e-13 	100000
-4.94505 	348.432 	1.71036e-13 	100000
-4.94405 	348.432 	3.03511e-13 	100000
-4.94305 	348.432 	5.36999e-13 	100000
-4.94205 	348.432 	5.75503e-13 	100000
-4.94105 	348.432 	8.33708e-13 	100000
-4.94005 	348.432 	1.06552e-12 	100000
-4.93905 	348.432 	1.13475e-12 	100000
-4.93805 	348.432 	1.28162e-12 	100000
-4.93705 	348.432 	1.32985e-12 	100000
-4.93605 	348.432 	1.47829e-12 	100000
-4.93505 	348.432 	1.63261e-12 	100000
-4.93405 	348.432 	1.70983e-12 	100000
-4.93306 	348.432 	1.66292e-12 	100000
-4.93206 	348.432 	1.84582e-12 	100000
-4.93106 	348.432 	1.89352e-12 	100000
-4.93006 	348.432 	1.82473e-12 	100000
-4.92906 	348.432 	1.90747e-12 	100000
-4.92806 	348.432 	1.90804e-12 	100000
-4.92706 	348.432 	1.86717e-12 	100000
-4.92606 	348.432 	1.79052e-12 	100000
-4.92506 	348.432 	1.6985e-12 	100000
-4.92406 	348.432 	1.7576e-12 	100000
-4.92306 	348.432 	1.82976e-12 	100000
-4.92207 	348.432 	1.68595e-12 	100000
-4.92107 	348.432 	1.65227e-12 	100000
-4.92007 	348.432 	1.8167e-12 	100000
-4.91907 	348.432 	1.78196e-12 	100000
-4.91807 	348.432 	1.82341e-12 	100000
-4.91707 	348.432 	1.8673e-12 	100000
-4.91607 	348.432 	1.85045e-12 	100000
-4.91507 	348.432 	1.93153e-12 	100000
-4.91407 	348.432 	1.89938e-12 	100000
-4.91307 	348.432 	1.56897e-12 	100000
-4.91207 	348.432 	1.35863e-12 	100000
-4.91108 	348.432 	1.03748e-12 	100000
-4.91008 	348.432 	8.50888e-13 	100000
-4.90908 	348.432 	6.01375e-13 	100000
-4.90808 	348.432 	4.70306e-13 	100000
-4.90708 	348.432 	1.25942e-13 	100000
-4.90608 	348.432 	1.441e-13 	100000
-4.90508 	348.432 	2.62571e-13 	100000
-4.90408 	348.432 	4.21141e-13 	100000
-4.90308 	348.432 	6.84441e-13 	100000
-4.90208 	348.432 	7.74315e-13 	100000
-4.90108 	348.432 	7.44176e-13 	100000
-4.90009 	348.432 	6.5998e-13 	100000
-4.89909 	348.432 	6.13205e-13 	100000
-4.89809 	348.432 	5.70757e-13 	100000
-4.89709 	348.432 	6.80457e-13 	100000
-4.89609 	348.432 	7.44747e-13 	100000
-4.89509 	348.432 	7.45849e-13 	100000
-4.89409 	348.432 	6.85603e-13 	100000
-4.89309 	348.432 	6.49877e-13 	100000
-4.89209 	348.432 	7.16904e-13 	100000
-4.89109 	348.432 	8.60184e-13 	100000
-4.89009 	348.432 	8.16889e-13 	100000
-4.8891 	348.432 	7.99183e-13 	100000
-4.8881 	348.432 	6.90685e-13 	100000
-4.8871 	348.432 	5.219e-13 	100000
-4.8861 	348.432 	4.93243e-13 	100000
-4.8851 	348.432 	4.78276e-13 	100000
-4.8841 	348.432 	3.17993e-13 	100000
-4.8831 	348.432 	1.72284e-13 	100000
-4.8821 	348.432 	5.83492e-14 	100000
-4.8811 	348.432 	1.27911e-13 	100000
-4.8801 	348.432 	2.33397e-13 	100000
-4.8791 	348.432 	3.14185e-13 	100000
-4.87811 	348.432 	4.89436e-13 	100000
-4.87711 	348.432 	6.89536e-13 	100000
-4.87611 	348.432 	8.52313e-13 	100000
-4.87511 	348.432 	8.68352e-13 	100000
-4.87411 	348.432 	1.06798e-12 	100000
-4.87311 	348.432 	1.20897e-12 	100000
-4.87211 	348.432 	1.30249e-12 	100000
-4.87111 	348.432 	1.5835e-12 	100000
-4.87011 	348.432 	1.65876e-12 	100000
-4.86911 	348.432 	1.63671e-12 	100000
-4.86811 	348.432 	1.57e-12 	100000
-4.86712 	348.432 	1.69438e-12 	100000
-4.86612 	348.432 	1.5813e-12 	100000
-4.86512 	348.432 	1.52981e-12 	100000
-4.86412 	348.432 	1.61933e-12 	100000
-4.86312 	348.432 	1.44631e-12 	100000
-4.86212 	348.432 	1.5631e-12 	100000
-4.86112 	348.432 	1.42252e-12 	100000
-4.86012 	348.432 	1.51946e-12 	100000
-4.85912 	348.432 	1.49251e-12 	100000
-4.85812 	348.432 	1.36061e-12 	100000
-4.85712 	348.432 	1.58109e-12 	100000
-4.85613 	348.432 	1.75776e-12 	100000
-4.85513 	348.432 	1.86516e-12 	100000
-4.85413 	348.432 	2.08183e-12 	100000
-4.85313 	348.432 	2.21387e-12 	100000
-4.85213 	348.432 	2.31057e-12 	100000
-4.85113 	348.432 	2.46471e-12 	100000
-4.85013 	348.432 	2.36028e-12 	100000
-4.84913 	348.432 	2.39919e-12 	100000
-4.84813 	348.432 	2.2503e-12 	100000
-4.84713 	348.432 	2.0553e-12 	100000
-4.84613 	348.432 	1.73447e-12 	100000
-4.84514 	348.432 	1.66412e-12 	100000
-4.84414 	348.432 	1.50504e-12 	100000
-4.84314 	348.432 	1.22417e-12 	100000
-4.84214 	348.432 	1.03421e-12 	100000
-4.84114 	348.432 	9.66297e-13 	100000
-4.84014 	348.432 	6.56934e-13 	100000
-4.83914 	348.432 	3.81219e-13 	100000
-4.83814 	348.432 	1.30491e-13 	100000
-4.83714 	348.432 	1.5511e-13 	100000
-4.83614 	348.432 	1.86385e-13 	100000
-4.83514 	348.432 	3.66146e-13 	100000
-4.83414 	348.432 	2.19342e-13 	100000
-4.83315 	348.432 	3.37937e-13 	100000
-4.83215 	348.432 	3.75948e-13 	100000
-4.83115 	348.432 	5.5265e-13 	100000
-4.83015 	348.432 	7.06185e-13 	100000
-4.82915 	348.432 	9.40627e-13 	100000
-4.82815 	348.432 	7.99255e-13 	100000
-4.82715 	348.432 	1.03943e-12 	100000
-4.82615 	348.432 	9.81787e-13 	100000
-4.82515 	348.432 	9.17208e-13 	100000
-4.82415 	348.432 	8.76912e-13 	100000
-4.82315 	348.432 	8.87232e-13 	100000
-4.82216 	348.432 	8.54439e-13 	100000
-4.82116 	348.432 	9.44654e-13 	100000
-4.82016 	348.432 	7.09782e-13 	100000
-4.81916 	348.432 	6.25448e-13 	100000
-4.81816 	348.432 	5.95683e-13 	100000
-4.81716 	348.432 	6.48367e-13 	100000
-4.81616 	348.432 	4.00015e-13 	100000
-4.81516 	348.432 	5.34596e-13 	100000
-4.81416 	348.432 	5.40222e-13 	100000
-4.81316 	348.432 	6.4687e-13 	100000
-4.81216 	348.432 	6.80712e-13 	100000
-4.81117 	348.432 	6.02728e-13 	100000
-4.81017 	348.432 	6.56515e-13 	100000
-4.80917 	348.432 	8.90155e-13 	100000
-4.80817 	348.432 	6.80331e-13 	100000
-4.80717 	348.432 	8.12286e-13 	100000
-4.80617 	348.432 	7.77637e-13 	100000
-4.80517 	348.432 	8.50862e-13 	100000
-4.80417 	348.432 	9.46795e-13 	100000
-4.80317 	348.432 	1.08981e-12 	100000
-4.80217 	348.432 	1.03539e-12 	100000
-4.80117 	348.432 	1.06487e-12 	100000
-4.80018 	348.432 	1.027e-12 	100000
-4.79918 	348.432 	8.91533e-13 	100000
-4.79818 	348.432 	8.53147e-13 	100000
-4.79718 	348.432 	9.46007e-13 	100000
-4.79618 	348.432 	9.60902e-13 	100000
-4.79518 	348.432 	1.33678e-12 	100000
-4.79418 	348.432 	1.37058e-12 	100000
-4.79318 	348.432 	1.35861e-12 	100000
-4.79218 	348.432 	1.31075e-12 	100000
-4.79118 	348.432 	1.39115e-12 	100000
-4.79018 	348.432 	1.45865e-12 	100000
-4.78919 	348.432 	1.55658e-12 	100000
-4.78819 	348.432 	1.34289e-12 	100000
-4.78719 	348.432 	1.22617e-12 	100000
-4.78619 	348.432 	1.09029e-12 	100000
-4.78519 	348.432 	1.11548e-12 	100000
-4.78419 	348.432 	9.58692e-13 	100000
-4.78319 	348.432 	9.89258e-13 	100000
-4.78219 	348.432 	9.22623e-13 	100000
-4.78119 	348.432 	1.16256e-12 	100000
-4.78019 	348.432 	1.12394e-12 	100000
-4.77919 	348.432 	1.21398e-12 	100000
-4.7782 	348.432 	1.11205e-12 	100000
-4.7772 	348.432 	1.45523e-12 	100000
-4.7762 	348.432 	1.25619e-12 	100000
-4.7752 	348.432 	1.54402e-12 	100000
-4.7742 	348.432 	1.34376e-12 	100000
-4.7732 	348.432 	1.49518e-12 	100000
-4.7722 	348.432 	1.56638e-12 	100000
-4.7712 	348.432 	1.70896e-12 	100000
-4.7702 	348.432 	1.42328e-12 	100000
-4.7692 	348.432 	1.52462e-12 	100000
-4.7682 	348.432 	1.57683e-12 	100000
-4.76721 	348.432 	1.78471e-12 	100000
-4.76621 	348.432 	1.8336e-12 	100000
-4.76521 	348.432 	2.02393e-12 	100000
-4.76421 	348.432 	1.83338e-12 	100000
-4.76321 	348.432 	2.12326e-12 	100000
-4.76221 	348.432 	1.9081e-12 	100000
-4.76121 	348.432 	2.0434e-12 	100000
-4.76021 	348.432 	1.8798e-12 	100000
-4.75921 	348.432 	1.80187e-12 	100000
-4.75821 	348.432 	1.63622e-12 	100000
-4.75721 	348.432 	1.81297e-12 	100000
-4.75622 	348.432 	1.72927e-12 	100000
-4.75522 	348.432 	2.00494e-12 	100000
-4.75422 	348.432 	1.95223e-12 	100000
-4.75322 	348.432 	2.08151e-12 	100000
-4.75222 	348.432 	2.02534e-12 	100000
-4.75122 	348.432 	1.80719e-12 	100000
-4.75022 	348.432 	1.86863e-12 	100000
-4.74922 	348.432 	1.66192e-12 	100000
-4.74822 	348.432 	2.05038e-12 	100000
-4.74722 	348.432 	1.79307e-12 	100000
-4.74622 	348.432 	2.04071e-12 	100000
-4.74523 	348.432 	2.04258e-12 	100000
-4.74423 	348.432 	2.15892e-12 	100000
-4.74323 	348.432 	2.15892e-12 	100000
-4.74223 	348.432 	2.16289e-12 	100000
-4.74123 	348.432 	2.12996e-12 	100000
-4.74023 	348.432 	2.04067e-12 	100000
-4.73923 	348.432 	2.04044e-12 	100000
-4.73823 	348.432 	1.90855e-12 	100000
-4.73723 	348.432 	2.0537e-12 	100000
-4.73623 	348.432 	1.9956e-12 	100000
-4.73523 	348.432 	2.15706e-12 	100000
-4.73423 	348.432 	2.2222e-12 	100000
-4.73324 	348.432 	2.4746e-12 	100000
-4.73224 	348.432 	2.20123e-12 	100000
-4.73124 	348.432 	2.5977e-12 	100000
-4.73024 	348.432 	2.32722e-12 	100000
-4.72924 	348.432 	2.54712e-12 	100000
-4.72824 	348.432 	2.42963e-12 	100000
-4.72724 	348.432 	2.36986e-12 	100000
-4.72624 	348.432 	2.06571e-12 	100000
-4.72524 	348.432 	2.11606e-12 	100000
-4.72424 	348.432 	1.92427e-12 	100000
-4.72324 	348.432 	2.07582e-12 	100000
-4.72225 	348.432 	1.87067e-12 	100000
-4.72125 	348.432 	2.30243e-12 	100000
-4.72025 	348.432 	1.96748e-12 	100000
-4.71925 	348.432 	2.40984e-12 	100000
-4.71825 	348.432 	2.22132e-12 	100000
-4.71725 	348.432 	2.54924e-12 	100000
-4.71625 	348.432 	2.31879e-12 	100000
-4.71525 	348.432 	2.64089e-12 	100000
-4.71425 	348.432 	2.55845e-12 	100000
-4.71325 	348.432 	2.91476e-12 	100000
-4.71225 	348.432 	2.79581e-12 	100000
-4.71126 	348.432 	2.96577e-12 	100000
-4.71026 	348.432 	2.88004e-12 	100000
-4.70926 	348.432 	2.87717e-12 	100000
-4.70826 	348.432 	2.62936e-12 	100000
-4.70726 	348.432 	2.78561e-12 	100000
-4.70626 	348.432 	2.33683e-12 	100000
-4.70526 	348.432 	2.59627e-12 	100000
-4.70426 	348.432 	2.37356e-12 	100000
-4.70326 	348.432 	2.43112e-12 	100000
-4.70226 	348.432 	2.50213e-12 	100000
-4.70126 	348.432 	2.46611e-12 	100000
-4.70027 	348.432 	2.48306e-12 	100000
-4.69927 	348.432 	2.61592e-12 	100000
-4.69827 	348.432 	2.44662e-12 	100000
-4.69727 	348.432 	2.59528e-12 	100000
-4.69627 	348.432 	2.51464e-12 	100000
-4.69527 	348.432 	2.57524e-12 	100000
-4.69427 	348.432 	2.60624e-12 	100000
-4.69327 	348.432 	2.72959e-12 	100000
-4.69227 	348.432 	2.61444e-12 	100000
-4.69127 	348.432 	2.82086e-12 	100000
-4.69027 	348.432 	2.71924e-12 	100000
-4.68928 	348.432 	2.9216e-12 	100000
-4.68828 	348.432 	2.81131e-12 	100000
-4.68728 	348.432 	3.12298e-12 	100000
-4.68628 	348.432 	2.78923e-12 	100000
-4.68528 	348.432 	3.17697e-12 	100000
-4.68428 	348.432 	3.11791e-12 	100000
-4.68328 	348.432 	3.24418e-12 	100000
-4.68228 	348.432 	3.07185e-12 	100000
-4.68128 	348.432 	3.17497e-12 	100000
-4.68028 	348.432 	2.76616e-12 	100000
-4.67928 	348.432 	3.00987e-12 	100000
-4.67829 	348.432 	2.93435e-12 	100000
-4.67729 	348.432 	3.34472e-12 	100000
-4.67629 	348.432 	3.41134e-12 	100000
-4.67529 	348.432 	3.93817e-12 	100000
-4.67429 	348.432 	3.83676e-12 	100000
-4.67329 	348.432 	4.29247e-12 	100000
-4.67229 	348.432 	4.35244e-12 	100000
-4.67129 	348.432 	4.38167e-12 	100000
-4.67029 	348.432 	4.6393e-12 	100000
-4.66929 	348.432 	4.66396e-12 	100000
-4.66829 	348.432 	4.59365e-12 	100000
-4.6673 	348.432 	4.78095e-12 	100000
-4.6663 	348.432 	4.65335e-12 	100000
-4.6653 	348.432 	4.69184e-12 	100000
-4.6643 	348.432 	4.82529e-12 	100000
-4.6633 	348.432 	4.72318e-12 	100000
-4.6623 	348.432 	4.62421e-12 	100000
-4.6613 	348.432 	4.68271e-12 	100000
-4.6603 	348.432 	4.4057e-12 	100000
-4.6593 	348.432 	4.20726e-12 	100000
-4.6583 	348.432 	4.05624e-12 	100000
-4.6573 	348.432 	3.75048e-12 	100000
-4.65631 	348.432 	3.47993e-12 	100000
-4.65531 	348.432 	3.49466e-12 	100000
-4.65431 	348.432 	3.13165e-12 	100000
-4.65331 	348.432 	3.03525e-12 	100000
-4.65231 	348.432 	3.14288e-12 	100000
-4.65131 	348.432 	2.90629e-12 	100000
-4.65031 	348.432 	3.28598e-12 	100000
-4.64931 	348.432 	3.05366e-12 	100000
-4.64831 	348.432 	3.27389e-12 	100000
-4.64731 	348.432 	3.14138e-12 	100000
-4.64631 	348.432 	3.4932e-12 	100000
-4.64532 	348.432 	3.37009e-12 	100000
-4.64432 	348.432 	3.78965e-12 	100000
-4.64332 	348.432 	3.65217e-12 	100000
-4.64232 	348.432 	3.64675e-12 	100000
-4.64132 	348.432 	3.56845e-12 	100000
-4.64032 	348.432 	3.73884e-12 	100000
-4.63932 	348.432 	3.50136e-12 	100000
-4.63832 	348.432 	3.7687e-12 	100000
-4.63732 	348.432 	3.47016e-12 	100000
-4.63632 	348.432 	3.53529e-12 	100000
-4.63532 	348.432 	3.5901e-12 	100000
-4.63432 	348.432 	3.77776e-12 	100000
-4.63333 	348.432 	3.95692e-12 	100000
-4.63233 	348.432 	3.77074e-12 	100000
-4.63133 	348.432 	3.53765e-12 	100000
-4.63033 	348.432 	3.90397e-12 	100000
-4.62933 	348.432 	3.82222e-12 	100000
-4.62833 	348.432 	3.91708e-12 	100000
-4.62733 	348.432 	4.04579e-12 	100000
-4.62633 	348.432 	4.1281e-12 	100000
-4.62533 	348.432 	4.08693e-12 	100000
-4.62433 	348.432 	4.28851e-12 	100000
-4.62333 	348.432 	4.39424e-12 	100000
-4.62234 	348.432 	3.865e-12 	100000
-4.62134 	348.432 	3.98912e-12 	100000
-4.62034 	348.432 	3.47251e-12 	100000
-4.61934 	348.432 	3.27405e-12 	100000
-4.61834 	348.432 	3.02373e-12 	100000
-4.61734 	348.432 	3.03778e-12 	100000
-4.61634 	348.432 	2.60117e-12 	100000
-4.61534 	348.432 	2.64184e-12 	100000
-4.61434 	348.432 	2.7347e-12 	100000
-4.61334 	348.432 	2.72375e-12 	100000
-4.61234 	348.432 	2.4811e-12 	100000
-4.61135 	348.432 	2.53809e-12 	100000
-4.61035 	348.432 	2.3934e-12 	100000
-4.60935 	348.432 	2.46649e-12 	100000
-4.60835 	348.432 	2.42108e-12 	100000
-4.60735 	348.432 	2.53137e-12 	100000
-4.60635 	348.432 	2.28142e-12 	100000
-4.60535 	348.432 	2.47549e-12 	100000
-4.60435 	348.432 	2.42259e-12 	100000
-4.60335 	348.432 	2.30611e-12 	100000
-4.60235 	348.432 	2.56309e-12 	100000
-4.60135 	348.432 	2.62937e-12 	100000
-4.60036 	348.432 	3.18019e-12 	100000
-4.59936 	348.432 	3.2885e-12 	100000
-4.59836 	348.432 	3.41759e-12 	100000
-4.59736 	348.432 	3.39297e-12 	100000
-4.59636 	348.432 	3.10895e-12 	100000
-4.59536 	348.432 	3.21125e-12 	100000
-4.59436 	348.432 	3.17308e-12 	100000
-4.59336 	348.432 	2.85508e-12 	100000
-4.59236 	348.432 	2.86198e-12 	100000
-4.59136 	348.432 	3.04941e-12 	100000
-4.59036 	348.432 	3.00865e-12 	100000
-4.58937 	348.432 	3.33095e-12 	100000
-4.58837 	348.432 	3.45914e-12 	100000
-4.58737 	348.432 	3.46984e-12 	100000
-4.58637 	348.432 	3.43796e-12 	100000
-4.58537 	348.432 	3.34571e-12 	100000
-4.58437 	348.432 	3.51697e-12 	100000
-4.58337 	348.432 	3.18903e-12 	100000
-4.58237 	348.432 	3.47174e-12 	100000
-4.58137 	348.432 	3.0204e-12 	100000
-4.58037 	348.432 	3.26871e-12 	100000
-4.57937 	348.432 	2.92315e-12 	100000
-4.57838 	348.432 	3.23119e-12 	100000
-4.57738 	348.432 	2.98845e-12 	100000
-4.57638 	348.432 	3.06179e-12 	100000
-4.57538 	348.432 	2.96798e-12 	100000
-4.57438 	348.432 	3.10225e-12 	100000
-4.57338 	348.432 	2.96297e-12 	100000
-4.57238 	348.432 	2.98973e-12 	100000
-4.57138 	348.432 	3.07697e-12 	100000
-4.57038 	348.432 	2.96979e-12 	100000
-4.56938 	348.432 	3.03246e-12 	100000
-4.56838 	348.432 	3.06512e-12 	100000
-4.56739 	348.432 	3.40841e-12 	100000
-4.56639 	348.432 	3.37299e-12 	100000
-4.56539 	348.432 	3.41367e-12 	100000
-4.56439 	348.432 	3.46965e-12 	100000
-4.56339 	348.432 	3.02932e-12 	100000
-4.56239 	348.432 	3.29545e-12 	100000
-4.56139 	348.432 	2.948e-12 	100000
-4.56039 	348.432 	3.05261e-12 	100000
-4.55939 	348.432 	2.87119e-12 	100000
-4.55839 	348.432 	3.05828e-12 	100000
-4.55739 	348.432 	2.79627e-12 	100000
-4.5564 	348.432 	2.98663e-12 	100000
-4.5554 	348.432 	2.86482e-12 	100000
-4.5544 	348.432 	3.15492e-12 	100000
-4.5534 	348.432 	3.10208e-12 	100000
-4.5524 	348.432 	3.42931e-12 	100000
-4.5514 	348.432 	3.29229e-12 	100000
-4.5504 	348.432 	3.11152e-12 	100000
-4.5494 	348.432 	3.0167e-12 	100000
-4.5484 	348.432 	3.00892e-12 	100000
-4.5474 	348.432 	3.2012e-12 	100000
-4.5464 	348.432 	3.40443e-12 	100000
-4.54541 	348.432 	3.48766e-12 	100000
-4.54441 	348.432 	3.76439e-12 	100000
-4.54341 	348.432 	3.64311e-12 	100000
-4.54241 	348.432 	3.74356e-12 	100000
-4.54141 	348.432 	3.74256e-12 	100000
-4.54041 	348.432 	4.23838e-12 	100000
-4.53941 	348.432 	4.09402e-12 	100000
-4.53841 	348.432 	4.74712e-12 	100000
-4.53741 	348.432 	4.45377e-12 	100000
-4.53641 	348.432 	5.35487e-12 	100000
-4.53541 	348.432 	4.82568e-12 	100000
-4.53441 	348.432 	5.57359e-12 	100000
-4.53342 	348.432 	5.60781e-12 	100000
-4.53242 	348.432 	5.79727e-12 	100000
-4.53142 	348.432 	5.39472e-12 	100000
-4.53042 	348.432 	5.49057e-12 	100000
-4.52942 	348.432 	5.09352e-12 	100000
-4.52842 	348.432 	5.47424e-12 	100000
-4.52742 	348.432 	5.67067e-12 	100000
-4.52642 	348.432 	5.4477e-12 	100000
-4.52542 	348.432 	5.39283e-12 	100000
-4.52442 	348.432 	5.83303e-12 	100000
-4.52342 	348.432 	5.46771e-12 	100000
-4.52243 	348.432 	5.63886e-12 	100000
-4.52143 	348.432 	5.89569e-12 	100000
-4.52043 	348.432 	5.55036e-12 	100000
-4.51943 	348.432 	5.48905e-12 	100000
-4.51843 	348.432 	5.89564e-12 	100000
-4.51743 	348.432 	5.53706e-12 	100000
-4.51643 	348.432 	5.48177e-12 	100000
-4.51543 	348.432 	5.80815e-12 	100000
-4.51443 	348.432 	5.4528e-12 	100000
-4.51343 	348.432 	5.63155e-12 	100000
-4.51243 	348.432 	5.82571e-12 	100000
-4.51144 	348.432 	5.50641e-12 	100000
-4.51044 	348.432 	5.78516e-12 	100000
-4.50944 	348.432 	5.28336e-12 	100000
-4.50844 	348.432 	5.52428e-12 	100000
-4.50744 	348.432 	5.22975e-12 	100000
-4.50644 	348.432 	5.10442e-12 	100000
-4.50544 	348.432 	4.86789e-12 	100000
-4.50444 	348.432 	5.02076e-12 	100000
-4.50344 	348.432 	4.84091e-12 	100000
-4.50244 	348.432 	5.04885e-12 	100000
-4.50144 	348.432 	5.05942e-12 	100000
-4.50045 	348.432 	4.7629e-12 	100000
-4.49945 	348.432 	4.65282e-12 	100000
-4.49845 	348.432 	4.89442e-12 	100000
-4.49745 	348.432 	4.76552e-12 	100000
-4.49645 	348.432 	4.69365e-12 	100000
-4.49545 	348.432 	4.90643e-12 	100000
-4.49445 	348.432 	4.99485e-12 	100000
-4.49345 	348.432 	4.84175e-12 	100000
-4.49245 	348.432 	5.08833e-12 	100000
-4.49145 	348.432 	4.74696e-12 	100000
-4.49045 	348.432 	4.87547e-12 	100000
-4.48946 	348.432 	4.95094e-12 	100000
-4.48846 	348.432 	5.07702e-12 	100000
-4.48746 	348.432 	5.11155e-12 	100000
-4.48646 	348.432 	5.54121e-12 	100000
-4.48546 	348.432 	4.85469e-12 	100000
-4.48446 	348.432 	5.47316e-12 	100000
-4.48346 	348.432 	5.56145e-12 	100000
-4.48246 	348.432 	5.98877e-12 	100000
-4.48146 	348.432 	5.45129e-12 	100000
-4.48046 	348.432 	5.34427e-12 	100000
-4.47946 	348.432 	5.48171e-12 	100000
-4.47847 	348.432 	5.38719e-12 	100000
-4.47747 	348.432 	5.09276e-12 	100000
-4.47647 	348.432 	4.72917e-12 	100000
-4.47547 	348.432 	4.80356e-12 	100000
-4.47447 	348.432 	4.48564e-12 	100000
-4.47347 	348.432 	4.25905e-12 	100000
-4.47247 	348.432 	4.23295e-12 	100000
-4.47147 	348.432 	3.83356e-12 	100000
-4.47047 	348.432 	3.72674e-12 	100000
-4.46947 	348.432 	3.45874e-12 	100000
-4.46847 	348.432 	3.50693e-12 	100000
-4.46748 	348.432 	3.17895e-12 	100000
-4.46648 	348.432 	3.14636e-12 	100000
-4.46548 	348.432 	3.5603e-12 	100000
-4.46448 	348.432 	3.60563e-12 	100000
-4.46348 	348.432 	3.73241e-12 	100000
-4.46248 	348.432 	4.31754e-12 	100000
-4.46148 	348.432 	4.29958e-12 	100000
-4.46048 	348.432 	4.12008e-12 	100000
-4.45948 	348.432 	4.45629e-12 	100000
-4.45848 	348.432 	4.04942e-12 	100000
-4.45748 	348.432 	4.56467e-12 	100000
-4.45649 	348.432 	4.49831e-12 	100000
-4.45549 	348.432 	4.85615e-12 	100000
-4.45449 	348.432 	4.76422e-12 	100000
-4.45349 	348.432 	5.4224e-12 	100000
-4.45249 	348.432 	5.10115e-12 	100000
-4.45149 	348.432 	5.98768e-12 	100000
-4.45049 	348.432 	5.25805e-12 	100000
-4.44949 	348.432 	5.94875e-12 	100000
-4.44849 	348.432 	5.617e-12 	100000
-4.44749 	348.432 	5.73379e-12 	100000
-4.44649 	348.432 	5.87902e-12 	100000
-4.4455 	348.432 	5.93847e-12 	100000
-4.4445 	348.432 	6.22831e-12 	100000
-4.4435 	348.432 	6.11305e-12 	100000
-4.4425 	348.432 	6.41825e-12 	100000
-4.4415 	348.432 	6.34548e-12 	100000
-4.4405 	348.432 	6.34537e-12 	100000
-4.4395 	348.432 	6.11219e-12 	100000
-4.4385 	348.432 	5.90814e-12 	100000
-4.4375 	348.432 	5.96608e-12 	100000
-4.4365 	348.432 	5.51542e-12 	100000
-4.4355 	348.432 	5.64476e-12 	100000
-4.4345 	348.432 	5.02114e-12 	100000
-4.43351 	348.432 	4.844e-12 	100000
-4.43251 	348.432 	4.37934e-12 	100000
-4.43151 	348.432 	4.28934e-12 	100000
-4.43051 	348.432 	4.40436e-12 	100000
-4.42951 	348.432 	4.50651e-12 	100000
-4.42851 	348.432 	4.49304e-12 	100000
-4.42751 	348.432 	4.53616e-12 	100000
-4.42651 	348.432 	4.4646e-12 	100000
-4.42551 	348.432 	4.67966e-12 	100000
-4.42451 	348.432 	4.3517e-12 	100000
-4.42351 	348.432 	4.43324e-12 	100000
-4.42252 	348.432 	4.08995e-12 	100000
-4.42152 	348.432 	4.77297e-12 	100000
-4.42052 	348.432 	4.38336e-12 	100000
-4.41952 	348.432 	4.59096e-12 	100000
-4.41852 	348.432 	4.45195e-12 	100000
-4.41752 	348.432 	4.87789e-12 	100000
-4.41652 	348.432 	5.15804e-12 	100000
-4.41552 	348.432 	5.19244e-12 	100000
-4.41452 	348.432 	5.42112e-12 	100000
-4.41352 	348.432 	5.7967e-12 	100000
-4.41252 	348.432 	5.96224e-12 	100000
-4.41153 	348.432 	6.22204e-12 	100000
-4.41053 	348.432 	6.49858e-12 	100000
-4.40953 	348.432 	6.29314e-12 	100000
-4.40853 	348.432 	6.48556e-12 	100000
-4.40753 	348.432 	6.43471e-12 	100000
-4.40653 	348.432 	6.74424e-12 	100000
-4.40553 	348.432 	6.64084e-12 	100000
-4.40453 	348.432 	7.00437e-12 	100000
-4.40353 	348.432 	6.64968e-12 	100000
-4.40253 	348.432 	7.5393e-12 	100000
-4.40153 	348.432 	7.14836e-12 	100000
-4.40054 	348.432 	7.94917e-12 	100000
-4.39954 	348.432 	7.85276e-12 	100000
-4.39854 	348.432 	8.11478e-12 	100000
-4.39754 	348.432 	7.64813e-12 	100000
-4.39654 	348.432 	8.37201e-12 	100000
-4.39554 	348.432 	7.84216e-12 	100000
-4.39454 	348.432 	8.15455e-12 	100000
-4.39354 	348.432 	8.25275e-12 	100000
-4.39254 	348.432 	7.90732e-12 	100000
-4.39154 	348.432 	8.17074e-12 	100000
-4.39054 	348.432 	8.47616e-12 	100000
-4.38955 	348.432 	7.98854e-12 	100000
-4.38855 	348.432 	8.49329e-12 	100000
-4.38755 	348.432 	8.60237e-12 	100000
-4.38655 	348.432 	8.21773e-12 	100000
-4.38555 	348.432 	9.09973e-12 	100000
-4.38455 	348.432 	8.00983e-12 	100000
-4.38355 	348.432 	9.04387e-12 	100000
-4.38255 	348.432 	8.70133e-12 	100000
-4.38155 	348.432 	8.85909e-12 	100000
-4.38055 	348.432 	8.89669e-12 	100000
-4.37955 	348.432 	8.77412e-12 	100000
-4.37856 	348.432 	8.69807e-12 	100000
-4.37756 	348.432 	8.44623e-12 	100000
-4.37656 	348.432 	8.10137e-12 	100000
-4.37556 	348.432 	7.44931e-12 	100000
-4.37456 	348.432 	7.65744e-12 	100000
-4.37356 	348.432 	7.67292e-12 	100000
-4.37256 	348.432 	7.23449e-12 	100000
-4.37156 	348.432 	7.43882e-12 	100000
-4.37056 	348.432 	7.38573e-12 	100000
-4.36956 	348.432 	7.08061e-12 	100000
-4.36856 	348.432 	6.84188e-12 	100000
-4.36757 	348.432 	6.33598e-12 	100000
-4.36657 	348.432 	5.98841e-12 	100000
-4.36557 	348.432 	5.76207e-12 	100000
-4.36457 	348.432 	5.81537e-12 	100000
-4.36357 	348.432 	5.80675e-12 	100000
-4.36257 	348.432 	5.75147e-12 	100000
-4.36157 	348.432 	5.78807e-12 	100000
-4.36057 	348.432 	5.84533e-12 	100000
-4.35957 	348.432 	6.06599e-12 	100000
-4.35857 	348.432 	6.36677e-12 	100000
-4.35757 	348.432 	6.52428e-12 	100000
-4.35658 	348.432 	6.92635e-12 	100000
-4.35558 	348.432 	7.1064e-12 	100000
-4.35458 	348.432 	7.15899e-12 	100000
-4.35358 	348.432 	7.53901e-12 	100000
-4.35258 	348.432 	7.28861e-12 	100000
-4.35158 	348.432 	7.26448e-12 	100000
-4.35058 	348.432 	7.184e-12 	100000
-4.34958 	348.432 	6.93577e-12 	100000
-4.34858 	348.432 	6.76714e-12 	100000
-4.34758 	348.432 	6.24575e-12 	100000
-4.34658 	348.432 	6.09272e-12 	100000
-4.34559 	348.432 	5.76259e-12 	100000
-4.34459 	348.432 	5.66614e-12 	100000
-4.34359 	348.432 	5.52667e-12 	100000
-4.34259 	348.432 	5.31439e-12 	100000
-4.34159 	348.432 	5.02931e-12 	100000
-4.34059 	348.432 	4.85735e-12 	100000
-4.33959 	348.432 	4.55109e-12 	100000
-4.33859 	348.432 	4.25697e-12 	100000
-4.33759 	348.432 	4.37598e-12 	100000
-4.33659 	348.432 	4.25849e-12 	100000
-4.33559 	348.432 	4.08632e-12 	100000
-4.33459 	348.432 	3.97745e-12 	100000
-4.3336 	348.432 	4.42936e-12 	100000
-4.3326 	348.432 	4.00397e-12 	100000
-4.3316 	348.432 	4.91404e-12 	100000
-4.3306 	348.432 	4.4e-12 	100000
-4.3296 	348.432 	4.71339e-12 	100000
-4.3286 	348.432 	4.68984e-12 	100000
-4.3276 	348.432 	5.27248e-12 	100000
-4.3266 	348.432 	5.77115e-12 	100000
-4.3256 	348.432 	5.57173e-12 	100000
-4.3246 	348.432 	6.22285e-12 	100000
-4.3236 	348.432 	6.19726e-12 	100000
-4.32261 	348.432 	6.53722e-12 	100000
-4.32161 	348.432 	6.20096e-12 	100000
-4.32061 	348.432 	6.80676e-12 	100000
-4.31961 	348.432 	6.69013e-12 	100000
-4.31861 	348.432 	6.92624e-12 	100000
-4.31761 	348.432 	6.89325e-12 	100000
-4.31661 	348.432 	6.89817e-12 	100000
-4.31561 	348.432 	7.27541e-12 	100000
-4.31461 	348.432 	7.29695e-12 	100000
-4.31361 	348.432 	7.69437e-12 	100000
-4.31261 	348.432 	8.0816e-12 	100000
-4.31162 	348.432 	7.93163e-12 	100000
-4.31062 	348.432 	8.35736e-12 	100000
-4.30962 	348.432 	8.06928e-12 	100000
-4.30862 	348.432 	8.33167e-12 	100000
-4.30762 	348.432 	7.78212e-12 	100000
-4.30662 	348.432 	8.45933e-12 	100000
-4.30562 	348.432 	8.03707e-12 	100000
-4.30462 	348.432 	8.27206e-12 	100000
-4.30362 	348.432 	8.28917e-12 	100000
-4.30262 	348.432 	8.33672e-12 	100000
-4.30162 	348.432 	7.82042e-12 	100000
-4.30063 	348.432 	8.35813e-12 	100000
-4.29963 	348.432 	7.94909e-12 	100000
-4.29863 	348.432 	8.30994e-12 	100000
-4.29763 	348.432 	8.06792e-12 	100000
-4.29663 	348.432 	8.08653e-12 	100000
-4.29563 	348.432 	7.98174e-12 	100000
-4.29463 	348.432 	8.49709e-12 	100000
-4.29363 	348.432 	7.72886e-12 	100000
-4.29263 	348.432 	8.38433e-12 	100000
-4.29163 	348.432 	7.97362e-12 	100000
-4.29063 	348.432 	8.57344e-12 	100000
-4.28964 	348.432 	8.27588e-12 	100000
-4.28864 	348.432 	8.79217e-12 	100000
-4.28764 	348.432 	8.27959e-12 	100000
-4.28664 	348.432 	8.8875e-12 	100000
-4.28564 	348.432 	8.63616e-12 	100000
-4.28464 	348.432 	8.96625e-12 	100000
-4.28364 	348.432 	9.01701e-12 	100000
-4.28264 	348.432 	9.00243e-12 	100000
-4.28164 	348.432 	8.93783e-12 	100000
-4.28064 	348.432 	8.9774e-12 	100000
-4.27964 	348.432 	8.98578e-12 	100000
-4.27865 	348.432 	8.98578e-12 	100000
-4.27765 	348.432 	9.30958e-12 	100000
-4.27665 	348.432 	9.30284e-12 	100000
-4.27565 	348.432 	9.03114e-12 	100000
-4.27465 	348.432 	9.44511e-12 	100000
-4.27365 	348.432 	9.12867e-12 	100000
-4.27265 	348.432 	9.02155e-12 	100000
-4.27165 	348.432 	9.4852e-12 	100000
-4.27065 	348.432 	9.40856e-12 	100000
-4.26965 	348.432 	8.89804e-12 	100000
-4.26865 	348.432 	9.05744e-12 	100000
-4.26766 	348.432 	8.64655e-12 	100000
-4.26666 	348.432 	8.58736e-12 	100000
-4.26566 	348.432 	8.45666e-12 	100000
-4.26466 	348.432 	8.03841e-12 	100000
-4.26366 	348.432 	8.00148e-12 	100000
-4.26266 	348.432 	7.71426e-12 	100000
-4.26166 	348.432 	7.19308e-12 	100000
-4.26066 	348.432 	7.27524e-12 	100000
-4.25966 	348.432 	7.23493e-12 	100000
-4.25866 	348.432 	7.39158e-12 	100000
-4.25766 	348.432 	7.43712e-12 	100000
-4.25667 	348.432 	7.65872e-12 	100000
-4.25567 	348.432 	7.51963e-12 	100000
-4.25467 	348.432 	7.66556e-12 	100000
-4.25367 	348.432 	7.36221e-12 	100000
-4.25267 	348.432 	7.63316e-12 	100000
-4.25167 	348.432 	7.6173e-12 	100000
-4.25067 	348.432 	7.80567e-12 	100000
-4.24967 	348.432 	7.82379e-12 	100000
-4.24867 	348.432 	8.1689e-12 	100000
-4.24767 	348.432 	7.85591e-12 	100000
-4.24667 	348.432 	8.19667e-12 	100000
-4.24568 	348.432 	8.16525e-12 	100000
-4.24468 	348.432 	8.17578e-12 	100000
-4.24368 	348.432 	7.91931e-12 	100000
-4.24268 	348.432 	7.9825e-12 	100000
-4.24168 	348.432 	8.16418e-12 	100000
-4.24068 	348.432 	7.80312e-12 	100000
-4.23968 	348.432 	8.17096e-12 	100000
-4.23868 	348.432 	8.07993e-12 	100000
-4.23768 	348.432 	8.38353e-12 	100000
-4.23668 	348.432 	8.11509e-12 	100000
-4.23568 	348.432 	7.96619e-12 	100000
-4.23468 	348.432 	7.98575e-12 	100000
-4.23369 	348.432 	8.32636e-12 	100000
-4.23269 	348.432 	7.85659e-12 	100000
-4.23169 	348.432 	8.22896e-12 	100000
-4.23069 	348.432 	7.5864e-12 	100000
-4.22969 	348.432 	7.7414e-12 	100000
-4.22869 	348.432 	7.64163e-12 	100000
-4.22769 	348.432 	7.72975e-12 	100000
-4.22669 	348.432 	7.51298e-12 	100000
-4.22569 	348.432 	7.50119e-12 	100000
-4.22469 	348.432 	6.95985e-12 	100000
-4.22369 	348.432 	6.9443e-12 	100000