/*--------------------------------*- C++ -*----------------------------------*\
  =========                 |
  \\      /  F ield         | OpenFOAM: The Open Source CFD Toolbox
   \\    /   O peration     | Website:  https://openfoam.org
    \\  /    A nd           | Version:  7
     \\/     M anipulation  |
\*---------------------------------------------------------------------------*/
FoamFile
{
    version     2.0;
    format      ascii;
    class       volScalarField;
    location    "34";
    object      p;
}
// * * * * * * * * * * * * * * * * * * * * * * * * * * * * * * * * * * * * * //

dimensions      [0 2 -2 0 0 0 0];

internalField   nonuniform List<scalar> 
16000
(
8.5904091e-06
-0.00013172882
-0.00044322825
-0.00084558969
-0.0012638019
-0.0016524734
-0.0019807316
-0.0022297357
-0.0023888479
-0.002452364
-0.0024173446
-0.0022823323
-0.0020467561
-0.001710859
-0.0012759993
-0.00074518645
-0.00012373181
0.00058009773
0.0013545252
0.0021838974
0.0030485871
0.0039252347
0.004787357
0.0056063632
0.006352929
0.0069986751
0.0075180454
0.0078902448
0.0081010756
0.0081444992
0.0080237584
0.0077519585
0.0073520903
0.0068565825
0.006306287
0.0057487347
0.0052389888
0.0048333427
0.0045934793
0.0045547226
0.00015316698
8.2531127e-06
-0.00024183403
-0.00055071556
-0.00087291143
-0.0011741122
-0.0014300735
-0.0016246156
-0.0017473773
-0.0017919157
-0.0017542909
-0.0016321403
-0.0014242095
-0.0011302662
-0.00075130086
-0.00028991893
0.00024917046
0.00085865635
0.0015282036
0.0022441774
0.0029895769
0.0037443756
0.0044858676
0.0051896979
0.0058310128
0.006385914
0.0068330775
0.0071554043
0.0073415589
0.0073872554
0.0072961582
0.0070802894
0.0067598808
0.0063627008
0.0059229392
0.005479575
0.0050737681
0.0047489779
0.0045504185
0.0045150528
0.00047182
0.00025393721
-1.8988891e-06
-0.00028094629
-0.00056119082
-0.00081812828
-0.0010339703
-0.0011966596
-0.0012979899
-0.0013324403
-0.0012962919
-0.0011870124
-0.0010029623
-0.00074338646
-0.00040863107
-5.1251469e-07
0.0004772326
0.0010184886
0.0016143633
0.0022529243
0.0029191672
0.0035951379
0.0042604765
0.0048931865
0.0054707276
0.0059713659
0.0063756919
0.0066681734
0.0068385935
0.0068832193
0.0068055767
0.0066167399
0.0063350711
0.0059854035
0.0055977359
0.0052054958
0.0048432472
0.0045452264
0.0043477969
0.0042805453
0.00089343619
0.00056217766
0.00026148615
-2.4298207e-05
-0.00029490094
-0.00053405025
-0.00073018091
-0.00087607905
-0.00096667391
-0.00099827024
-0.00096805414
-0.00087373865
-0.00071345218
-0.00048585648
-0.00019044327
0.00017204529
0.00059913018
0.0010861029
0.0016255891
0.0022072404
0.0028176259
0.0034402957
0.0040562876
0.0046448152
0.0051843184
0.0056537788
0.0060342216
0.0063102798
0.0064716561
0.0065143017
0.0064411564
0.0062623548
0.0059948614
0.0056615424
0.0052897094
0.0049092756
0.004550893
0.0042444464
0.0040164818
0.0038809016
0.0013442356
0.00088456734
0.00052141387
0.00021110057
-6.6607519e-05
-0.00030266641
-0.0004913994
-0.00063054378
-0.00071844338
-0.00075353363
-0.00073415198
-0.00065839646
-0.00052418359
-0.00032950289
-7.2821069e-05
0.00024640912
0.00062718413
0.0010663817
0.0015582463
0.0020939932
0.0026615975
0.003245827
0.0038286024
0.0043896793
0.0049076766
0.0053613984
0.0057313677
0.0060014512
0.0061604074
0.0062031607
0.0061316025
0.0059547844
0.0056884632
0.0053540449
0.0049769812
0.0045848496
0.0042059436
0.0038674075
0.0035847226
0.0033610909
0.0017710842
0.0011779557
0.00074329386
0.00039724716
0.00010068676
-0.00014360336
-0.00033531499
-0.00047689947
-0.00057004674
-0.00061533296
-0.00061226932
-0.00055933044
-0.00045416024
-0.00029395946
-7.6007496e-05
0.00020172009
0.00053988056
0.0009370894
0.0013892978
0.0018892845
0.0024263316
0.0029861653
0.0035512058
0.0041012118
0.0046142964
0.0050682899
0.0054423553
0.0057187202
0.0058843558
0.0059324002
0.0058631083
0.0056841396
0.0054100974
0.005061363
0.0046623097
0.0042392934
0.0038197697
0.0034302628
0.0030777134
0.0027504066
0.0021287776
0.0014038006
0.00089421356
0.00050598334
0.00018271438
-7.8263652e-05
-0.00028146789
-0.00043367881
-0.00053967802
-0.00060200952
-0.00062122414
-0.00059604827
-0.0005237185
-0.00040049279
-0.00022228954
1.4579615e-05
0.00031261908
0.00067234768
0.0010915437
0.0015646023
0.0020820792
0.002630517
0.0031925753
0.0037476153
0.0042726875
0.0047439402
0.0051383503
0.0054356197
0.0056200455
0.005682146
0.0056198208
0.005438832
0.0051524671
0.0047803585
0.0043465197
0.0038771814
0.0034004129
0.0029439138
0.0025076869
0.0020661404
0.0023787516
0.0015273478
0.0009432743
0.00051009887
0.00015551338
-0.00012804105
-0.00034943437
-0.00051935358
-0.00064533044
-0.00073159981
-0.00077951852
-0.00078785773
-0.0007532522
-0.0006708244
-0.00053493446
-0.00034002579
-8.1536791e-05
0.00024316326
0.00063387133
0.0010867507
0.0015937171
0.0021421318
0.0027147814
0.0032903857
0.0038445256
0.0043510728
0.0047840332
0.0051196502
0.0053385444
0.0054276334
0.0053815805
0.0052035507
0.0049051114
0.0045051755
0.0040279443
0.0035005563
0.002953112
0.0024161894
0.0018847816
0.0013222612
0.0024871997
0.001516905
0.0008611745
0.00038271312
-5.5919348e-06
-0.0003158155
-0.00056079597
-0.00075472146
-0.00090751049
-0.0010247717
-0.001108389
-0.0011569297
-0.0011661976
-0.0011299574
-0.0010407858
-0.00089102221
-0.00067379617
-0.00038409531
-1.9821144e-05
0.0004172352
0.00092059056
0.0014786039
0.0020742455
0.0026855123
0.0032862503
0.0038475695
0.0043397717
0.0047346617
0.0050080211
0.0051419424
0.0051267052
0.0049619265
0.004656802
0.0042292952
0.0037041062
0.003110169
0.0024809992
0.0018517442
0.0012138166
0.00052032845
0.0024236499
0.0013433924
0.00062034942
9.7780006e-05
-0.00032525649
-0.00066510519
-0.00093826664
-0.0011620651
-0.0013484592
-0.0015041162
-0.0016311636
-0.0017277088
-0.001788486
-0.0018056669
-0.0017697972
-0.0016708398
-0.0014993085
-0.0012474623
-0.00091051312
-0.0004877905
1.6238898e-05
0.00059135008
0.001220942
0.0018824095
0.0025477598
0.0031849681
0.0037599516
0.0042390668
0.0045919429
0.0047943364
0.004830618
0.0046955187
0.0043948755
0.0039451844
0.0033716942
0.0027058191
0.0019857994
0.0012530629
0.00049656193
-0.00034058152
0.0021603255
0.00098017657
0.00019520126
-0.00036935227
-0.00082729828
-0.0011990761
-0.0015045999
-0.0017640112
-0.0019909994
-0.0021930059
-0.0023721418
-0.0025258167
-0.0026474697
-0.0027274495
-0.0027540143
-0.0027144481
-0.0025962848
-0.0023886197
-0.0020834691
-0.0016771304
-0.0011714502
-0.00057454572
9.7874143e-05
0.0008229975
0.0015711167
0.0023068554
0.0029911366
0.0035838376
0.0040469859
0.004348209
0.0044640069
0.0043823589
0.0041042468
0.0036437682
0.0030264581
0.002286666
0.0014685639
0.00062159781
-0.00026690121
-0.0012640731
0.0016720298
0.00040313987
-0.00043762134
-0.0010414577
-0.0015340404
-0.0019397515
-0.0022817047
-0.0025825822
-0.0028575434
-0.0031145674
-0.0033555352
-0.0035769612
-0.003770796
-0.0039253572
-0.004026368
-0.0040581174
-0.0040047501
-0.0038516799
-0.0035870949
-0.00320349
-0.0026991537
-0.0020796937
-0.0013586315
-0.00055838476
0.00029003604
0.0011479427
0.0019708047
0.002711005
0.0033213965
0.0037594023
0.0039912293
0.0039956137
0.0037664884
0.0033139952
0.0026632313
0.0018516485
0.00093045304
-4.1098589e-05
-0.0010767014
-0.0022545433
0.00093636282
-0.00040905461
-0.0012988503
-0.0019389219
-0.0024656601
-0.0029072327
-0.0032897559
-0.0036382107
-0.0039690175
-0.0042905184
-0.0046042139
-0.0049055857
-0.005184955
-0.0054284405
-0.0056190092
-0.0057376464
-0.0057646785
-0.0056812588
-0.0054710031
-0.0051217175
-0.0046271629
-0.0039889771
-0.0032176482
-0.0023340499
-0.0013696341
-0.00036597242
0.00062678968
0.0015526648
0.0023536952
0.0029747508
0.0033688332
0.0035022414
0.0033588067
0.0029422846
0.0022758972
0.0013999248
0.00037357126
-0.00073220118
-0.0019316791
-0.0033153036
-6.5851795e-05
-0.0014745648
-0.0024061494
-0.0030791959
-0.003639522
-0.0041189007
-0.0045462612
-0.0049486729
-0.0053436624
-0.0057398281
-0.0061382158
-0.0065332152
-0.0069134494
-0.0072627334
-0.0075611035
-0.0077859641
-0.0079134021
-0.0079197065
-0.0077831038
-0.0074856813
-0.0070154537
-0.0063685461
-0.0055510146
-0.0045806653
-0.0034880637
-0.0023167261
-0.0011220981
3.0927884e-05
0.0010720543
0.0019310605
0.0025443352
0.0028617641
0.0028530072
0.0025118788
0.0018572655
0.00093128902
-0.00019815294
-0.0014463749
-0.0028278764
-0.0044468532
-0.0013500307
-0.002807906
-0.0037736372
-0.0044762481
-0.005069523
-0.0055886265
-0.0060651177
-0.006527978
-0.0069957434
-0.0074772379
-0.007973063
-0.008476547
-0.0089746375
-0.009448826
-0.0098761195
-0.010230123
-0.010482304
-0.010603502
-0.010565718
-0.010344202
-0.0099198041
-0.0092815313
-0.008429073
-0.0073752291
-0.0061478117
-0.0047907184
-0.0033637257
-0.001940579
-0.00060506539
0.00055500098
0.0014555959
0.0020253954
0.0022146397
0.0020022507
0.0013989351
0.00044658919
-0.00077802473
-0.0021744249
-0.0037569117
-0.0056450878
-0.0029272671
-0.004419492
-0.0054114372
-0.0061400583
-0.0067654851
-0.0073260259
-0.0078556968
-0.0083852573
-0.0089342246
-0.0095117009
-0.010117947
-0.01074536
-0.011379336
-0.011999129
-0.012578719
-0.013087789
-0.013492888
-0.013758884
-0.013850761
-0.013735814
-0.013386243
-0.012782122
-0.011914585
-0.010789027
-0.0094280428
-0.0078736156
-0.0061880572
-0.0044530692
-0.0027663603
-0.0012354458
3.1325266e-05
0.00093590687
0.0014025867
0.0013887554
0.00089128931
-5.1762695e-05
-0.0013555204
-0.0029017716
-0.0047041427
-0.0068992957
-0.0048038185
-0.0063152517
-0.0073253206
-0.0080762122
-0.0087326497
-0.009335808
-0.0099220092
-0.010523715
-0.011161477
-0.011844824
-0.012573885
-0.013340357
-0.014128322
-0.014914994
-0.015671452
-0.016363456
-0.016952466
-0.017396977
-0.01765427
-0.017682647
-0.017444222
-0.01690825
-0.016054958
-0.014879574
-0.013396433
-0.011642526
-0.0096799234
-0.0075962854
-0.0055025808
-0.0035272721
-0.0018065874
-0.00047119094
0.00036950609
0.00064280558
0.00032381552
-0.00055904126
-0.0019149926
-0.0036066549
-0.0056465118
-0.008189807
-0.0069807197
-0.0084963892
-0.0095165077
-0.010285662
-0.010971336
-0.01161728
-0.012262016
-0.012939712
-0.01367211
-0.014469427
-0.015331975
-0.016251104
-0.017209923
-0.018183924
-0.019141532
-0.020044729
-0.020849872
-0.021508857
-0.02197075
-0.022184008
-0.022099372
-0.021673499
-0.020873318
-0.01968097
-0.018099045
-0.016155722
-0.013909007
-0.011449197
-0.0088983866
-0.0064058303
-0.004138192
-0.002264439
-0.00093628344
-0.00026701974
-0.00031397997
-0.0010670324
-0.0024339948
-0.0042579359
-0.0065499477
-0.0094851528
-0.0094536001
-0.010959362
-0.011981698
-0.01276472
-0.013476832
-0.014164079
-0.014867156
-0.015622065
-0.016452024
-0.017368329
-0.018371922
-0.019454263
-0.020597947
-0.021777163
-0.02295805
-0.024099096
-0.025151711
-0.02606117
-0.026768061
-0.027210401
-0.027326558
-0.027059055
-0.026359347
-0.025193616
-0.023549021
-0.021440584
-0.018917453
-0.016067826
-0.013021002
-0.0099449096
-0.0070374409
-0.0045104807
-0.0025667812
-0.0013723726
-0.0010306817
-0.0015621885
-0.0028810491
-0.0048123452
-0.0073661731
-0.010738584
-0.012212773
-0.013696147
-0.014713398
-0.015505356
-0.016239578
-0.016964186
-0.017722157
-0.018551629
-0.019477767
-0.020513496
-0.021660967
-0.022912327
-0.024250203
-0.025647995
-0.027070022
-0.028471672
-0.029799722
-0.030993011
-0.031983652
-0.03269897
-0.03306434
-0.033007013
-0.032461154
-0.031374673
-0.029715552
-0.027481139
-0.024706277
-0.021471052
-0.017906128
-0.014193572
-0.01056072
-0.0072648419
-0.0045674926
-0.002700412
-0.0018296109
-0.002022793
-0.0032126508
-0.0052110122
-0.0080287648
-0.011883796
-0.01524366
-0.016694872
-0.017700617
-0.018495845
-0.019245699
-0.020000278
-0.020805173
-0.021701232
-0.022716282
-0.023865631
-0.025153373
-0.02657302
-0.028107857
-0.029731063
-0.031405653
-0.033084389
-0.034709834
-0.03621475
-0.037523033
-0.038551406
-0.039212068
-0.039416409
-0.039080037
-0.038131186
-0.036515072
-0.034207213
-0.031222532
-0.02762612
-0.023542451
-0.019160585
-0.014732265
-0.010559308
-0.006967386
-0.0042663882
-0.0027034821
-0.0024147453
-0.0033692559
-0.0053750983
-0.0084483121
-0.012829715
-0.018527618
-0.019940877
-0.020930005
-0.021721839
-0.022477912
-0.023250423
-0.024088268
-0.025035966
-0.026125065
-0.027374275
-0.028790537
-0.030369507
-0.032095791
-0.033942919
-0.035873115
-0.037836988
-0.039773355
-0.041609357
-0.043261123
-0.044635169
-0.045630781
-0.046143709
-0.046071334
-0.045317894
-0.043806818
-0.041487569
-0.038349753
-0.034436385
-0.029857036
-0.024798278
-0.019527681
-0.014386459
-0.0097656258
-0.0060631964
-0.0036266122
-0.0026855673
-0.0032699697
-0.0052003353
-0.0085065148
-0.01345422
-0.02204321
-0.023418303
-0.024387499
-0.025167892
-0.025916821
-0.026689113
-0.027538202
-0.028513809
-0.02965273
-0.030978426
-0.032501784
-0.034221468
-0.036124057
-0.038183942
-0.040362976
-0.042610014
-0.044860527
-0.047036503
-0.049046833
-0.050788426
-0.052148289
-0.053006885
-0.053242945
-0.052739606
-0.05139449
-0.049129305
-0.045904377
-0.041734232
-0.036704621
-0.030988607
-0.024857802
-0.01868287
-0.012915811
-0.0080480002
-0.0045444314
-0.0027562886
-0.0028056585
-0.0045502592
-0.008049049
-0.013596678
-0.025768023
-0.027112308
-0.028060577
-0.028819491
-0.029542594
-0.030288565
-0.031117445
-0.032086493
-0.033239893
-0.034607613
-0.036205796
-0.038037015
-0.040090405
-0.042341578
-0.044752253
-0.047269727
-0.049826373
-0.05233936
-0.05471083
-0.056828743
-0.05856866
-0.05979671
-0.060373993
-0.06016268
-0.059035497
-0.056885206
-0.053640307
-0.049281911
-0.04386398
-0.037534783
-0.030556051
-0.023313523
-0.016309406
-0.010126724
-0.0053604262
-0.0025110369
-0.0018302458
-0.003247923
-0.0068770047
-0.01304916
-0.029681158
-0.0310121
-0.031941262
-0.032665629
-0.033336971
-0.034020198
-0.034785286
-0.03570047
-0.036820257
-0.038183327
-0.039812572
-0.041715347
-0.043883759
-0.046294745
-0.048909825
-0.051674632
-0.054518385
-0.057353527
-0.060075747
-0.062564603
-0.06468503
-0.066289934
-0.067224169
-0.067330216
-0.066456943
-0.064469032
-0.061262392
-0.05678191
-0.051043822
-0.044161611
-0.036372806
-0.028060786
-0.019761039
-0.012138111
-0.005921265
-0.0017844308
-0.00015002821
-0.0010658513
-0.0047366231
-0.011546151
-0.033766657
-0.035115124
-0.03603009
-0.036701997
-0.037285538
-0.037856133
-0.038498854
-0.039297825
-0.040321743
-0.041620661
-0.043225797
-0.045150004
-0.047388458
-0.04991913
-0.052702857
-0.055683069
-0.058785382
-0.061917234
-0.064967831
-0.067808605
-0.070294495
-0.072266199
-0.073553797
-0.07398205
-0.073376739
-0.071577298
-0.068447897
-0.063896713
-0.057899136
-0.050526602
-0.041979781
-0.032621495
-0.022999078
-0.013839991
-0.0060016363
-0.00034733523
0.002489023
0.0022860506
-0.0013069073
-0.0087523719
-0.038018373
-0.039432946
-0.040341428
-0.04093491
-0.041380185
-0.041770521
-0.042213844
-0.04281693
-0.043667531
-0.044830056
-0.0463455
-0.04823254
-0.050488998
-0.053093021
-0.056003714
-0.059161246
-0.062486678
-0.065881712
-0.06922863
-0.072390611
-0.075212885
-0.077524651
-0.079142278
-0.079874037
-0.079526453
-0.077914404
-0.074873084
-0.070275737
-0.064056776
-0.056241982
-0.046986064
-0.036615039
-0.025665045
-0.014901091
-0.0052911916
0.0021079046
0.0064157853
0.0071750304
0.0038156553
-0.0042479262
-0.042447301
-0.043999872
-0.044910798
-0.045386164
-0.04562165
-0.045740495
-0.045884742
-0.046192707
-0.046776908
-0.047719078
-0.049070918
-0.050856505
-0.053075073
-0.055703323
-0.058696888
-0.06199099
-0.065500653
-0.069120616
-0.072725349
-0.076169203
-0.079287543
-0.081898314
-0.083804895
-0.084800352
-0.084673437
-0.083217251
-0.08024083
-0.075585486
-0.06914697
-0.060905516
-0.050965385
-0.039603916
-0.02732487
-0.014902116
-0.0033868301
0.0059808212
0.012049923
0.014063091
0.011136645
0.0024909233
-0.047093368
-0.048886076
-0.049805205
-0.050099134
-0.050022054
-0.049746521
-0.049464369
-0.049356421
-0.04956597
-0.050194303
-0.051303596
-0.052921651
-0.055046723
-0.057651438
-0.060685415
-0.064076586
-0.0677319
-0.071537414
-0.0753588
-0.07904006
-0.082406401
-0.085264211
-0.087403981
-0.088604179
-0.08863696
-0.087275333
-0.084304864
-0.079538262
-0.072836218
-0.064136278
-0.053492216
-0.041126398
-0.027493918
-0.013349709
0.00020559262
0.011771803
0.019918307
0.023528642
0.021290081
0.012119036
-0.05204557
-0.0542184
-0.055138131
-0.055146495
-0.054607251
-0.053771917
-0.052902662
-0.052235075
-0.051948276
-0.052163408
-0.052950779
-0.05433833
-0.056319373
-0.05885861
-0.061896426
-0.065350149
-0.069116311
-0.073070065
-0.077068181
-0.080940451
-0.084502495
-0.087548262
-0.089854827
-0.091185912
-0.091298074
-0.089943907
-0.0868875
-0.081915627
-0.074857269
-0.065611097
-0.054183172
-0.040739558
-0.025676538
-0.0097067455
0.0060550374
0.020082011
0.030669841
0.036293496
0.035076067
0.025465434
-0.057478242
-0.060214246
-0.061091479
-0.060639877
-0.059418614
-0.057801175
-0.056144554
-0.054750454
-0.053835622
-0.053537582
-0.053929046
-0.055031855
-0.056828463
-0.059270348
-0.062285374
-0.065775203
-0.069624374
-0.073695176
-0.077829832
-0.08184897
-0.085553686
-0.088724965
-0.091125984
-0.092505186
-0.092601151
-0.091148726
-0.087889534
-0.082584812
-0.075033678
-0.065098592
-0.052740688
-0.038070641
-0.021420372
-0.0034422916
0.01476829
0.031597129
0.045084365
0.053256252
0.053516623
0.043607394
-0.063719074
-0.067237824
-0.067947442
-0.066741099
-0.064513086
-0.061816151
-0.059126408
-0.056817499
-0.055138596
-0.054233805
-0.054167638
-0.054946232
-0.056533212
-0.058860692
-0.061836577
-0.065347085
-0.069259431
-0.073421118
-0.077659951
-0.081783441
-0.085578691
-0.088812695
-0.091233758
-0.092574084
-0.092554031
-0.090888364
-0.087295372
-0.081509732
-0.073299543
-0.062490252
-0.048997801
-0.032875998
-0.014386578
0.005894688
0.02692427
0.047044683
0.064067408
0.075531101
0.077939308
0.068005199
-0.071381249
-0.07589395
-0.076132825
-0.073672684
-0.069958577
-0.065787742
-0.061769161
-0.058340422
-0.0557654
-0.054175476
-0.05360994
-0.054045837
-0.055417045
-0.057629139
-0.060565646
-0.064091928
-0.068056319
-0.072289703
-0.07660461
-0.080794079
-0.084630971
-0.087867758
-0.090237305
-0.091454882
-0.091221803
-0.089231039
-0.085175354
-0.078759969
-0.069717733
-0.057831676
-0.0429656
-0.025108161
-0.0044391901
0.018570074
0.042964782
0.067104966
0.088610733
0.10448323
0.11010479
0.10076068
-0.081631867
-0.087182088
-0.086270615
-0.081716663
-0.075814976
-0.06965513
-0.063961541
-0.05920083
-0.055613904
-0.053287073
-0.05220973
-0.052311225
-0.053484506
-0.055599785
-0.058511384
-0.062060371
-0.066074626
-0.070367463
-0.074735777
-0.07895815
-0.082793412
-0.085979768
-0.08823488
-0.08925714
-0.088728537
-0.086319214
-0.081694023
-0.074525012
-0.064503145
-0.051358985
-0.03488968
-0.01499783
0.008248668
0.034515348
0.06301349
0.092226005
0.11966
0.14172259
0.15240454
0.14512476
-0.09676022
-0.10273853
-0.099198306
-0.091155622
-0.082062878
-0.073261831
-0.065508182
-0.059217364
-0.054540548
-0.051469757
-0.049910555
-0.049723355
-0.050746193
-0.052806362
-0.055724864
-0.059316654
-0.063388724
-0.067737187
-0.072144171
-0.07637496
-0.080175679
-0.083271683
-0.085366855
-0.08614402
-0.085266929
-0.08238312
-0.077128593
-0.069138873
-0.058055939
-0.043545047
-0.025315491
-0.0031510169
0.0230413
0.053141727
0.086633791
0.12228344
0.15778129
0.1889521
0.20809832
0.20632815
-0.12133977
-0.12518741
-0.11587318
-0.10208129
-0.088417406
-0.076198379
-0.066005839
-0.05805231
-0.052291401
-0.048550331
-0.046608489
-0.046233126
-0.047194909
-0.049272833
-0.052253156
-0.055925458
-0.060077685
-0.0644911
-0.068935652
-0.073166011
-0.07691838
-0.079908129
-0.081828293
-0.082349092
-0.081119026
-0.077764727
-0.071896135
-0.063110581
-0.050996396
-0.035141983
-0.015145569
0.0093694072
0.038725851
0.073130124
0.11252022
0.15626304
0.20263132
0.24752359
0.28130139
0.29235699
-0.16445721
-0.15843295
-0.13714845
-0.11415752
-0.094107376
-0.077631274
-0.06473795
-0.055161867
-0.048489995
-0.044291661
-0.04217298
-0.041787565
-0.042832619
-0.045039874
-0.048164977
-0.051977308
-0.056251041
-0.060757595
-0.065259415
-0.069504964
-0.0732248
-0.076128594
-0.077903031
-0.078210783
-0.076690771
-0.07294803
-0.066577935
-0.057140839
-0.04417254
-0.027180524
-0.0056361856
0.021035172
0.053464512
0.092332018
0.13829667
0.19182731
0.25266843
0.31751184
0.37626899
0.41537117
-0.24629408
-0.20631812
-0.16213042
-0.12552906
-0.09714383
-0.075878347
-0.060487731
-0.049752526
-0.042660436
-0.038436403
-0.036490544
-0.036365595
-0.03769757
-0.040185383
-0.043567489
-0.047604475
-0.052066172
-0.056721967
-0.061333416
-0.065648567
-0.069397599
-0.072289535
-0.074009905
-0.074220126
-0.072558794
-0.068605815
-0.061961914
-0.05215609
-0.038683093
-0.020981279
0.0015960996
0.029825685
0.064686877
0.10746542
0.15987167
0.22417845
0.30290611
0.39553284
0.49624407
0.60321296
-0.42543884
-0.26573022
-0.17722144
-0.12463606
-0.089116686
-0.065102818
-0.049324028
-0.039185506
-0.032983901
-0.029674295
-0.028570939
-0.029186989
-0.031157065
-0.034190145
-0.038037863
-0.042473584
-0.047278426
-0.052231456
-0.057102513
-0.061646817
-0.06560086
-0.068679237
-0.070571917
-0.0709408
-0.069408088
-0.065629962
-0.059132511
-0.049452958
-0.03607487
-0.018403289
0.0042718109
0.032847782
0.068543262
0.11314272
0.16943733
0.24201789
0.33806678
0.46591654
0.64305536
0.92086293
-0.7933128
-0.32444203
-0.14899728
-0.087725239
-0.055345642
-0.035999339
-0.025091374
-0.019200826
-0.016355357
-0.015618936
-0.016494174
-0.018653992
-0.021853114
-0.025888483
-0.0305755
-0.035733898
-0.041179117
-0.046716366
-0.052136076
-0.057210263
-0.061689586
-0.065300982
-0.067745986
-0.068701018
-0.067824613
-0.064708051
-0.058941864
-0.050072513
-0.037593437
-0.020927186
0.00061068479
0.0278814
0.062059116
0.10491373
0.1594517
0.23152837
0.33385184
0.4940926
0.79001676
1.3837787
1.2094413e-05
-0.00013076798
-0.0004429602
-0.00084551903
-0.0012639233
-0.0016527248
-0.0019810681
-0.0022301323
-0.0023892876
-0.0024528324
-0.0024178291
-0.0022828215
-0.0020472398
-0.0017113273
-0.0012764415
-0.00074559095
-0.00012408645
0.00057980525
0.0013543064
0.0021837621
0.003048543
0.003925288
0.0047875123
0.0056066214
0.0063532842
0.0069991143
0.00751855
0.0078907947
0.0081016513
0.0081450787
0.0080243127
0.007752452
0.0073524902
0.006856869
0.0063064583
0.005748809
0.0052389462
0.0048331426
0.0045931073
0.0045545744
0.00015403162
8.7633341e-06
-0.00024139038
-0.00055024796
-0.00087240596
-0.0011735555
-0.0014294684
-0.0016239753
-0.0017467174
-0.0017912519
-0.0017536378
-0.0016315112
-0.0014236169
-0.0011297226
-0.00075081928
-0.00028951225
0.00024948989
0.00085887741
0.0015283175
0.0022441773
0.0029894576
0.0037441319
0.0044855003
0.005189214
0.0058304263
0.0063852427
0.0068323396
0.0071546176
0.0073407454
0.007386446
0.0072953895
0.0070795925
0.0067592715
0.0063621834
0.0059225219
0.0054792803
0.0050736277
0.0047489116
0.0045503041
0.0045151459
0.00047229926
0.00025420359
-1.5883194e-06
-0.00028068584
-0.00056099979
-0.00081797587
-0.0010338431
-0.0011965528
-0.0012978998
-0.0013323652
-0.0012962314
-0.0011869669
-0.0010029314
-0.00074337002
-0.00040862881
-5.2437232e-07
0.0004772065
0.0010184483
0.0016143099
0.0022528605
0.002919096
0.0035950612
0.0042603945
0.004893099
0.0054706362
0.0059712757
0.0063756078
0.0066680957
0.0068385158
0.0068831347
0.0068054862
0.0066166526
0.0063349927
0.0059853248
0.0055976383
0.0052053744
0.0048431264
0.0045451064
0.0043476333
0.0042805203
0.00089392201
0.00056223633
0.00026173189
-2.4075442e-05
-0.00029476894
-0.00053396492
-0.00073012698
-0.0008760533
-0.00096667087
-0.00099828508
-0.00096808396
-0.00087378163
-0.00071350669
-0.00048592063
-0.00019051472
0.00017196928
0.00059905231
0.0010860252
0.0016255133
0.0022071689
0.0028175621
0.0034402446
0.0040562524
0.0046447954
0.0051843108
0.0056537813
0.006034236
0.0063103089
0.0064716972
0.0065143423
0.0064411814
0.0062623583
0.0059948505
0.0056615237
0.0052896743
0.0049092041
0.0045507751
0.0042443008
0.0040163332
0.0038807715
0.0013447755
0.0008844182
0.00052162856
0.00021135256
-6.6437879e-05
-0.00030252178
-0.0004912666
-0.00063042769
-0.00071834375
-0.00075344869
-0.00073408099
-0.00065833946
-0.00052414108
-0.00032947555
-7.2809349e-05
0.00024640557
0.00062716653
0.0010663513
0.0015582036
0.0020939377
0.0026615295
0.0032457496
0.0038285205
0.0043895972
0.0049075945
0.005361313
0.005731277
0.0060013594
0.0061603227
0.0062030858
0.0061315284
0.005954697
0.005688359
0.0053539371
0.0049768846
0.0045847554
0.0042058174
0.0038672785
0.0035847027
0.003360876
0.0017717153
0.0011776188
0.00074347493
0.00039750254
0.00010084785
-0.00014346169
-0.0003351771
-0.00047677397
-0.00056993553
-0.00061523556
-0.00061218564
-0.00055926056
-0.00045410444
-0.00029391838
-7.5982232e-05
0.00020172857
0.00053987238
0.000937066
0.0013892609
0.0018892349
0.0024262686
0.0029860886
0.0035511178
0.0041011184
0.0046142032
0.0050681978
0.0054422598
0.0057186172
0.0058842489
0.0059322994
0.005863019
0.0056840528
0.0054099973
0.0050612462
0.0046621936
0.004239185
0.0038196316
0.003430142
0.0030777796
0.002750097
0.0021295107
0.0014032971
0.00089436815
0.00050624052
0.00018286021
-7.8136521e-05
-0.00028134032
-0.00043356147
-0.00053957334
-0.00060191748
-0.00062114532
-0.00059598311
-0.00052366706
-0.00040045496
-0.00022226567
1.458845e-05
0.00031261175
0.00067232427
0.0010915061
0.0015645533
0.0020820204
0.0026304477
0.0031924943
0.0037475245
0.004272593
0.0047438493
0.0051382644
0.0054355328
0.0056199506
0.0056820447
0.005619724
0.005438746
0.0051523827
0.0047802604
0.00434641
0.0038770651
0.0034002537
0.002943795
0.002507852
0.0020657561
0.0023795878
0.001526696
0.00094341124
0.00051036452
0.0001556523
-0.00012791923
-0.00034930783
-0.00051923527
-0.00064522296
-0.0007315031
-0.00077943365
-0.00078778596
-0.00075319438
-0.00067078069
-0.00053490457
-0.00034000988
-8.1536013e-05
0.00024314735
0.00063383843
0.0010867029
0.0015936582
0.0021420642
0.0027147046
0.0032902977
0.0038444272
0.0043509704
0.0047839357
0.0051195604
0.0053384555
0.0054275359
0.0053814748
0.0052034478
0.0049050176
0.0045050833
0.0040278464
0.0035004407
0.0029529305
0.0024160686
0.0018850494
0.001321788
0.0024881363
0.0015161208
0.00086129986
0.00038299018
-5.4565798e-06
-0.00031569553
-0.00056066706
-0.00075459921
-0.00090739801
-0.0010246685
-0.0011082961
-0.0011568486
-0.0011661298
-0.0011299042
-0.0010407476
-0.00089099849
-0.00067378682
-0.00038410149
-1.9844862e-05
0.00041719316
0.00092053262
0.001478534
0.0020741678
0.002685427
0.0032861544
0.0038474626
0.0043396601
0.0047345556
0.0050079247
0.0051418486
0.0051266035
0.0049618162
0.0046566928
0.0042291947
0.0037040145
0.0031100607
0.002480801
0.0018516198
0.0012141861
0.00051976133
0.0024246819
0.0013424904
0.00062046807
9.8070454e-05
-0.00032512277
-0.0006649859
-0.0009381344
-0.0011619379
-0.0013483409
-0.0015040066
-0.0016310634
-0.0017276191
-0.001788408
-0.0018056027
-0.0017697485
-0.0016708071
-0.0014992913
-0.0012474601
-0.00091052681
-0.00048782208
1.6188776e-05
0.00059128137
0.0012208607
0.0018823214
0.0025476658
0.0031848649
0.0037598376
0.0042389479
0.0045918299
0.0047942343
0.0048305197
0.0046954134
0.0043947618
0.0039450732
0.0033715997
0.0027057153
0.0019855879
0.001252938
0.00049703976
-0.00034124941
0.0021614462
0.00097917018
0.00019531705
-0.00036904642
-0.00082716349
-0.0011989558
-0.0015044633
-0.0017638777
-0.0019908738
-0.0021928882
-0.0023720331
-0.002525718
-0.0026473817
-0.0027273735
-0.0027539526
-0.0027144029
-0.0025962571
-0.0023886089
-0.002083474
-0.0016771511
-0.0011714871
-0.00057460553
9.7794417e-05
0.00082290452
0.0015710175
0.0023067521
0.0029910261
0.0035837172
0.0040468612
0.0043480908
0.0044639003
0.0043822565
0.0041041375
0.0036436542
0.0030263592
0.0022865605
0.0014683349
0.00062147419
-0.00026630183
-0.0012648534
0.0016732315
0.0004020427
-0.0004375059
-0.0010411354
-0.0015339016
-0.0019396278
-0.0022815624
-0.0025824416
-0.0028574091
-0.0031144397
-0.0033554158
-0.0035768517
-0.0037706971
-0.0039252694
-0.0040262927
-0.004058057
-0.0040047074
-0.0038516564
-0.00358709
-0.0032035024
-0.0026991843
-0.0020797419
-0.0013587012
-0.00055847527
0.00028993127
0.001147832
0.0019706917
0.0027108868
0.0033212704
0.0037592736
0.0039911084
0.0039955041
0.0037663814
0.0033138854
0.0026631341
0.0018515404
0.00093019995
-4.1222913e-05
-0.0010759637
-0.0022554511
0.0009376368
-0.00041022789
-0.0012987333
-0.0019385833
-0.0024655152
-0.0029071031
-0.0032896062
-0.0036380619
-0.0039688741
-0.0042903801
-0.0046040822
-0.0049054631
-0.0051848431
-0.0054283401
-0.0056189206
-0.0057375708
-0.0057646185
-0.0056812177
-0.0054709831
-0.0051217187
-0.0046271848
-0.0039890148
-0.003217705
-0.0023341293
-0.0013697355
-0.00036608877
0.00062666774
0.001552542
0.0023535696
0.0029746206
0.0033687036
0.0035021206
0.0033586945
0.0029421775
0.0022758072
0.0013998183
0.00037328994
-0.00073232928
-0.0019307838
-0.0033163589
-6.451627e-05
-0.0014757982
-0.0024060291
-0.0030788421
-0.00363937
-0.0041187635
-0.0045461022
-0.0049485146
-0.005343509
-0.005739679
-0.0061380719
-0.0065330785
-0.0069133223
-0.007262618
-0.0075610007
-0.0077858742
-0.0079133259
-0.0079196467
-0.0077830642
-0.0074856651
-0.0070154614
-0.006368574
-0.0055510613
-0.0045807322
-0.0034881538
-0.0023168386
-0.0011222257
3.0795548e-05
0.001071923
0.0019309297
0.0025442043
0.0028616372
0.0028528876
0.0025117698
0.0018571829
0.00093118808
-0.00019846421
-0.0014465078
-0.0028267997
-0.0044480811
-0.0013486463
-0.0028091831
-0.0037735114
-0.0044758803
-0.0050693632
-0.005588481
-0.0060649485
-0.0065278086
-0.0069955787
-0.0074770773
-0.0079729071
-0.0084763969
-0.0089744951
-0.0094486939
-0.0098760002
-0.010230018
-0.010482213
-0.010603425
-0.010565659
-0.010344165
-0.0099197925
-0.0092815454
-0.0084291102
-0.0073752868
-0.0061478906
-0.0047908206
-0.0033638498
-0.001940717
-0.00060520636
0.00055486386
0.0014554638
0.002025268
0.002214517
0.0020021392
0.0013988585
0.00044649434
-0.00077836906
-0.0021745625
-0.0037556241
-0.0056465181
-0.0029258479
-0.0044207965
-0.0054113046
-0.0061396775
-0.0067653169
-0.0073258716
-0.0078555172
-0.0083850763
-0.0089340474
-0.0095115275