/*--------------------------------*- C++ -*----------------------------------*\
  =========                 |
  \\      /  F ield         | OpenFOAM: The Open Source CFD Toolbox
   \\    /   O peration     | Website:  https://openfoam.org
    \\  /    A nd           | Version:  7
     \\/     M anipulation  |
\*---------------------------------------------------------------------------*/
FoamFile
{
    version     2.0;
    format      ascii;
    class       surfaceScalarField;
    location    "34";
    object      phi;
}
// * * * * * * * * * * * * * * * * * * * * * * * * * * * * * * * * * * * * * //

dimensions      [0 3 -1 0 0 0 0];

internalField   nonuniform List<scalar> 
45600
(
2.7503975e-07
-2.823694e-07
-8.2343676e-11
4.0327082e-07
-1.2820469e-07
-2.5940815e-11
1.3252671e-07
2.7075105e-07
-7.2368395e-12
-5.6232695e-07
6.94856e-07
-1.9075098e-12
-1.6393206e-06
1.0769919e-06
3.2775216e-12
-3.027627e-06
1.3882999e-06
6.78818e-12
-4.6524683e-06
1.6248304e-06
9.084953e-12
-6.4451008e-06
1.7926201e-06
1.07093e-11
-8.3454268e-06
1.9003153e-06
1.1871317e-11
-1.0301444e-05
1.9560079e-06
1.2647211e-11
-1.2267402e-05
1.9659459e-06
1.3080208e-11
-1.4201581e-05
1.9341642e-06
1.320798e-11
-1.606424e-05
1.8626425e-06
1.3059357e-11
-1.7816028e-05
1.7517757e-06
1.2640918e-11
-1.9417055e-05
1.6010171e-06
1.1936496e-11
-2.0826658e-05
1.4095957e-06
1.0920878e-11
-2.2003906e-05
1.1772396e-06
9.5746842e-12
-2.2908768e-05
9.0485072e-07
7.896572e-12
-2.3503868e-05
5.9508865e-07
5.9066569e-12
-2.3756703e-05
2.5282846e-07
3.6528611e-12
-2.3642142e-05
-1.1455694e-07
1.19004e-12
-2.3145009e-05
-4.971219e-07
-1.440202e-12
-2.2262572e-05
-8.8242706e-07
-4.1935234e-12
-2.1006615e-05
-1.2559574e-06
-6.9704178e-12
-1.9404865e-05
-1.6017563e-06
-9.591311e-12
-1.7501564e-05
-1.9032981e-06
-1.185808e-11
-1.5356978e-05
-2.1445582e-06
-1.362332e-11
-1.3045752e-05
-2.3111803e-06
-1.4847122e-11
-1.0654084e-05
-2.3916385e-06
-1.5542902e-11
-8.2757996e-06
-2.3782935e-06
-1.5646556e-11
-6.0075704e-06
-2.2682617e-06
-1.4965531e-11
-3.9435551e-06
-2.064018e-06
-1.3324577e-11
-2.1698024e-06
-1.7736947e-06
-1.0797051e-11
-7.585242e-07
-1.4112022e-06
-7.7349525e-12
2.3824772e-07
-9.9676407e-07
-4.6255314e-12
7.9656069e-07
-5.5839426e-07
-2.0066313e-12
9.2923252e-07
-1.3275755e-07
1.1501171e-12
7.0550116e-07
2.2377086e-07
5.4009298e-12
2.9041069e-07
4.1524276e-07
1.0045362e-11
2.9052177e-07
3.7402606e-12
1.3282554e-07
-4.1517085e-07
-2.3343603e-11
-3.0174338e-07
3.0638037e-07
-1.4797685e-11
-1.6154451e-06
1.5844651e-06
-1.2867003e-11
-3.8747403e-06
2.9541627e-06
-1.3561463e-11
-7.0073656e-06
4.2096318e-06
-1.4659705e-11
-1.0879767e-05
5.2607204e-06
-1.6145567e-11
-1.5335174e-05
6.0802575e-06
-1.7548574e-11
-2.0216009e-05
6.6734718e-06
-1.8570792e-11
-2.5374067e-05
7.058388e-06
-1.9139243e-11
-3.0673278e-05
7.2552371e-06
-1.92519e-11
-3.5988541e-05
7.281232e-06
-1.8940887e-11
-4.1202826e-05
7.1484707e-06
-1.8246268e-11
-4.6203968e-05
6.8638015e-06
-1.718805e-11
-5.0882096e-05
6.4299157e-06
-1.5764427e-11
-5.5128229e-05
5.847159e-06
-1.3967102e-11
-5.8834316e-05
5.115693e-06
-1.1794793e-11
-6.1894798e-05
4.2377354e-06
-9.2642704e-12
-6.4209601e-05
3.2196671e-06
-6.4113696e-12
-6.5688348e-05
2.073842e-06
-3.3018077e-12
-6.6255459e-05
8.1993244e-07
3.0941392e-15
-6.585598e-05
-5.1405376e-07
3.462148e-12
-6.4460809e-05
-1.8923053e-06
7.0668857e-12
-6.2072474e-05
-3.2707586e-06
1.0654838e-11
-5.8729076e-05
-4.5993441e-06
1.4034242e-11
-5.4507056e-05
-5.8237804e-06
1.7011127e-11
-4.9521891e-05
-6.8885022e-06
1.946866e-11
-4.3926401e-05
-7.7401096e-06
2.140101e-11
-3.7906466e-05
-8.3311534e-06
2.2816339e-11
-3.1674147e-05
-8.623941e-06
2.3593143e-11
-2.5458375e-05
-8.5940226e-06
2.3475916e-11
-1.9493575e-05
-8.2330692e-06
2.2293582e-11
-1.4006712e-05
-7.5509738e-06
2.0210357e-11
-9.2033278e-06
-6.5771893e-06
1.7672507e-11
-5.2529482e-06
-5.3615904e-06
1.500713e-11
-2.2739747e-06
-3.9756239e-06
1.2100606e-11
-3.1720546e-07
-2.5150645e-06
8.5483085e-12
6.5711147e-07
-1.1071573e-06
4.0721195e-12
8.0363511e-07
7.7003764e-08
1.922524e-12
4.1773628e-07
8.0093958e-07
3.3172837e-12
7.0835307e-07
-2.5152932e-12
-2.7361122e-07
-1.4154682e-07
-1.2939163e-11
-1.6275203e-06
1.6602987e-06
-7.7257833e-12
-4.2894391e-06
4.2463943e-06
-9.0072916e-12
-8.2747069e-06
6.9394365e-06
-7.5535571e-12
-1.3474442e-05
9.4093695e-06
-5.5402544e-12
-1.9708739e-05
1.1495022e-05
-4.4202166e-12
-2.6765762e-05
1.3137287e-05
-3.6889717e-12
-3.4426622e-05
1.4334338e-05
-3.0963973e-12
-4.2478633e-05
1.51104e-05
-2.612142e-12
-5.0720451e-05
1.5497054e-05
-2.1798391e-12
-5.8962293e-05
1.5523075e-05
-1.7529201e-12
-6.7023685e-05
1.5209867e-05
-1.3222739e-12
-7.4730523e-05
1.4570645e-05
-8.954638e-13
-8.1912708e-05
1.3612103e-05
-4.7682945e-13
-8.8403135e-05
1.2337584e-05
-6.5557911e-14
-9.4038465e-05
1.0751016e-05
3.4390052e-13
-9.8661785e-05
8.8610511e-06
7.5696865e-13
-0.00010212708
6.6849672e-06
1.170292e-12
-0.00010430521
4.2519779e-06
1.5496612e-12
-0.00010509098
1.6057126e-06
1.8503715e-12
-0.00010441062
-1.1944218e-06
2.0654912e-12
-0.00010222944
-4.073502e-06
2.2252508e-12
-9.8558515e-05
-6.9417043e-06
2.3780827e-12
-9.3459998e-05
-9.6978539e-06
2.5390073e-12
-8.7050378e-05
-1.2233371e-05
2.6485049e-12
-7.9500972e-05
-1.4437884e-05
2.6161815e-12
-7.1035261e-05
-1.6205838e-05
2.4372458e-12
-6.1922726e-05
-1.7443742e-05
2.2546243e-12
-5.2469167e-05
-1.8077539e-05
2.2539889e-12
-4.300369e-05
-1.8059469e-05
2.4530753e-12
-3.3862801e-05
-1.7373876e-05
2.6252323e-12
-2.5372187e-05
-1.6041549e-05
2.5328666e-12
-1.7826873e-05
-1.412258e-05
2.2746153e-12
-1.147045e-05
-1.171814e-05
2.2829898e-12
-6.4739239e-06
-8.9721718e-06
2.8304218e-12
-2.9140476e-06
-6.074792e-06
3.521448e-12
-7.5116529e-07
-3.2698574e-06
3.5033345e-12
1.9440352e-07
-8.6855971e-07
3.482001e-12
2.6545216e-07
7.2972942e-07
4.7441943e-12
9.7380917e-07
6.7467063e-13
-7.4586166e-07
6.0432717e-07
-1.3116226e-11
-3.179663e-06
4.0941017e-06
-1.7015001e-12
-7.3461359e-06
8.412877e-06
-7.1271112e-12
-1.3163088e-05
1.2756397e-05
-6.460739e-12
-2.0455849e-05
1.6702132e-05
-3.8283446e-12
-2.8992664e-05
2.0031837e-05
-2.4748791e-12
-3.8513902e-05
2.2658527e-05
-1.5642049e-12
-4.8752695e-05
2.4573136e-05
-7.4687611e-13
-5.9446995e-05
2.5804704e-05
-8.8152306e-14
-7.0344842e-05
2.63949e-05
4.3022908e-13
-8.1205134e-05
2.6383362e-05
8.6477459e-13
-9.1795985e-05
2.5800714e-05
1.2464879e-12
-0.00010189241
2.4667072e-05
1.5807895e-12
-0.00011127463
2.299432e-05
1.8604973e-12
-0.00011972777
2.0790734e-05
2.0722041e-12
-0.0001270436
1.8066838e-05
2.204348e-12
-0.00013302415
1.4841593e-05
2.2586111e-12
-0.00013748741
1.1148216e-05
2.2537046e-12
-0.00014027451
7.0390741e-06
2.1978469e-12
-0.00014125804
2.5892571e-06
2.0727545e-12
-0.00014035075
-2.1016947e-06
1.8502118e-12
-0.00013751436
-6.9098931e-06
1.4815901e-12
-0.00013276701
-1.1689079e-05
1.0210731e-12
-0.0001261893
-1.6275583e-05
5.7427821e-13
-0.00011792789
-2.0494788e-05
2.1902807e-13
-0.0001081959
-2.4169833e-05
-7.4813738e-14
-9.7269843e-05
-2.713185e-05
-4.175708e-13
-8.5482381e-05
-2.9231207e-05
-8.4521679e-13
-7.3210946e-05
-3.0349037e-05
-1.190527e-12
-6.0862296e-05
-3.040818e-05
-1.1783538e-12
-4.885348e-05
-2.9382669e-05
-7.2423219e-13
-3.7589888e-05
-2.7305036e-05
-1.0276403e-13
-2.7441262e-05
-2.4271134e-05
3.1632773e-13
-1.871666e-05
-2.0442811e-05
5.4245126e-13
-1.1639494e-05
-1.6049502e-05
1.0187214e-12
-6.3236405e-06
-1.1390725e-05
2.0763245e-12
-2.7515475e-06
-6.84185e-06
3.4171586e-12
-7.5709746e-07
-2.8628803e-06
4.2212238e-12
-9.5089908e-09
-1.7884685e-08
4.309158e-12
9.6425508e-07
3.5124302e-12
-1.2279751e-06
1.8323169e-06
-1.4575736e-11
-4.7881296e-06
7.6542494e-06
4.3253074e-12
-1.0521568e-05
1.4146322e-05
-6.2264891e-12
-1.8214359e-05
2.0449198e-05
-7.3082934e-12
-2.760396e-05
2.6091741e-05
-4.919988e-12
-3.8396316e-05
3.0824195e-05
-4.1948982e-12
-5.0283071e-05
3.4545282e-05
-3.851533e-12
-6.2954793e-05
3.7244862e-05
-3.3670492e-12
-7.610904e-05
3.8958958e-05
-2.8897653e-12
-8.945377e-05
3.9739636e-05
-2.4632897e-12
-0.00010270746
3.9637059e-05
-2.0590077e-12
-0.00011559752
3.8690768e-05
-1.6531112e-12
-0.00012785833
3.692788e-05
-1.2328297e-12
-0.00013923018
3.4366172e-05
-7.9282086e-13
-0.00014945973
3.1020285e-05
-3.3992668e-13
-0.00015830245
2.6909567e-05
1.0294902e-13
-0.00016552721
2.2066355e-05
5.1039812e-13
-0.00017092272
1.6543716e-05
8.8103465e-13
-0.00017430557
1.0421911e-05
1.2400315e-12
-0.00017552933
3.813016e-06
1.6095401e-12
-0.0001744941
-3.1369135e-06
1.9700188e-12
-0.00017115585
-1.0248124e-05
2.2442559e-12
-0.00016553476
-1.7310159e-05
2.3737138e-12
-0.00015772187
-2.4088497e-05
2.3811754e-12
-0.00014788319
-3.0333516e-05
2.3805888e-12
-0.0001362606
-3.5792435e-05
2.4758637e-12
-0.00012316895
-4.0223459e-05
2.6288709e-12
-0.00010898868
-4.3411415e-05
2.6616331e-12
-9.4153759e-05
-4.5183951e-05
2.4575583e-12
-7.9134844e-05
-4.5427171e-05
2.1724688e-12
-6.4418099e-05
-4.4099507e-05
2.1504082e-12
-5.0480408e-05
-4.1242723e-05
2.536331e-12
-3.7762129e-05
-3.698929e-05
3.0217336e-12
-2.6638763e-05
-3.1566065e-05
3.1275209e-12
-1.7393133e-05
-2.5295171e-05
2.8016988e-12
-1.0189951e-05
-1.8594056e-05
2.7310632e-12
-5.0547914e-06
-1.1977075e-05
3.660475e-12
-1.859828e-06
-6.0577639e-06
3.7418894e-12
-3.2221072e-07
-1.5554562e-06
5.7529568e-13
6.4201632e-07
5.8019255e-12
-1.6931721e-06
3.5255079e-06
-1.7037553e-11
-6.3714218e-06
1.2332487e-05
9.7713042e-12
-1.3671471e-05
2.1446374e-05
-5.2514287e-12
-2.3234079e-05
3.0011815e-05
-7.4066976e-12
-3.4695258e-05
3.755293e-05
-4.6722543e-12
-4.7689832e-05
4.3818776e-05
-4.1088964e-12
-6.185753e-05
4.8712982e-05
-3.9992261e-12
-7.684807e-05
5.2235403e-05
-3.6397203e-12
-9.2323868e-05
5.443476e-05
-3.2254078e-12
-0.00010796026
5.5376039e-05
-2.8248402e-12
-0.00012344395
5.5120755e-05
-2.4271251e-12
-0.00013847067
5.3717494e-05
-2.0266227e-12
-0.0001527432
5.1200409e-05
-1.6183396e-12
-0.00016597051
4.759348e-05
-1.1914446e-12
-0.00017786871
4.2918482e-05
-7.3273556e-13
-0.00018816402
3.7204881e-05
-2.4606973e-13
-0.00019659786
3.0500199e-05
2.3721807e-13
-0.0002029338
2.2879664e-05
6.7868722e-13
-0.0002069661
1.4454208e-05
1.0687312e-12
-0.00020852926
5.3761581e-06
1.4386989e-12
-0.00020750809
-4.1580967e-06
1.8264036e-12
-0.00020384765
-1.3908556e-05
2.2251921e-12
-0.00019756243
-2.3595352e-05
2.550642e-12
-0.00018874392
-3.2906988e-05
2.7087171e-12
-0.00017756585
-4.1511608e-05
2.7021298e-12
-0.00016428625
-4.9072096e-05
2.669623e-12
-0.00014924552
-5.5264219e-05
2.7690862e-12
-0.0001328599
-5.9796997e-05
2.9869551e-12
-0.00011560964
-6.2434132e-05
3.100816e-12
-9.8021708e-05
-6.3015069e-05
2.9215979e-12
-8.0647207e-05
-6.1474086e-05
2.5905776e-12
-6.4034213e-05
-5.7855837e-05
2.5170624e-12
-4.8697493e-05
-5.2326034e-05
2.904953e-12
-3.5086895e-05
-4.5176553e-05
3.3880898e-12
-2.3556617e-05
-3.6825337e-05
3.3668647e-12
-1.4337839e-05
-2.7812867e-05
3.1432981e-12
-7.5175185e-06
-1.8797506e-05
4.0067519e-12
-3.0267486e-06
-1.0548547e-05
3.5035217e-12
-6.4248879e-07
-3.9396673e-06
-1.9186213e-12
-4.7569341e-10
8.3574404e-12
-2.1329397e-06
5.6584689e-06
-1.9792083e-11
-7.8910822e-06
1.8090617e-05
1.4602004e-11
-1.6717416e-05
3.027271e-05
-4.4834593e-12
-2.8105755e-05
4.1400158e-05
-7.4589338e-12
-4.1585102e-05
5.1032283e-05
-4.2296102e-12
-5.6714144e-05
5.8947827e-05
-3.6871042e-12
-7.3078282e-05
6.5077127e-05
-3.6998104e-12
-9.0287089e-05
6.9444211e-05
-3.4030524e-12
-0.00010797132
7.2118991e-05
-3.0361916e-12
-0.00012577926
7.3183981e-05
-2.6694861e-12
-0.00014337273
7.2714227e-05
-2.2860832e-12
-0.00016042339
7.076817e-05
-1.8898159e-12
-0.00017661016
6.7387179e-05
-1.4920197e-12
-0.0001916181
6.2601426e-05
-1.0971866e-12
-0.00020513948
5.643985e-05
-6.9231689e-13
-0.0002168768
4.8942202e-05
-2.5624346e-13
-0.00022654811
4.0171507e-05
2.1265076e-13
-0.00023389402
3.0225591e-05
6.7871515e-13
-0.00023868645
1.9246647e-05
1.0892713e-12
-0.00024073837
7.4280719e-06
1.4203935e-12
-0.00023991432
-4.9821655e-06
1.7040238e-12
-0.00023614099
-1.7681912e-05
2.0107952e-12
-0.00022941744
-3.0318897e-05
2.3492274e-12
-0.00021982411
-4.2500279e-05
2.6349502e-12
-0.00020752986
-5.3805826e-05
2.7400267e-12
-0.00019279605
-6.3805928e-05
2.6384002e-12
-0.00017597668
-7.2083652e-05
2.4905234e-12
-0.00015751365
-7.8260085e-05
2.5190053e-12
-0.00013792613
-8.2021621e-05
2.7523993e-12
-0.00011779369
-8.3147411e-05
2.9357117e-12
-9.7732896e-05
-8.1534822e-05
2.8081232e-12
-7.83681e-05
-7.7220696e-05
2.4924009e-12
-6.0297896e-05
-7.0396361e-05
2.446479e-12
-4.4059564e-05
-6.1414919e-05
2.8430948e-12
-3.0094417e-05
-5.0790391e-05
3.1795898e-12
-1.8717216e-05
-3.9189988e-05
3.3734454e-12
-1.009304e-05
-2.7421725e-05
4.6188598e-12
-4.2253286e-06
-1.6416317e-05
3.4472918e-12
-9.5849557e-07
-7.2064946e-06
-4.7863925e-12
-9.5896227e-07
1.0374152e-11
-2.5450572e-06
8.2035478e-06
-2.2575223e-11
-9.3288494e-06
2.4874395e-05
1.890373e-11
-1.9615367e-05
4.0559234e-05
-3.9715733e-12
-3.2756855e-05
5.4541651e-05
-7.7046608e-12
-4.8175893e-05
6.6451322e-05
-4.0290427e-12
-6.5354094e-05
7.6126033e-05
-3.5330988e-12
-8.3822138e-05
8.354518e-05
-3.6701105e-12
-0.00010315062
8.8772696e-05
-3.4314091e-12
-0.00012294161
9.1909988e-05
-3.1170493e-12
-0.00014282094
9.3063312e-05
-2.804799e-12
-0.00016243132
9.2324612e-05
-2.4613265e-12
-0.00018142685
8.9763702e-05
-2.0814455e-12
-0.00019946922
8.542955e-05
-1.6769768e-12
-0.000216226
7.9358223e-05
-1.2677307e-12
-0.00023137126
7.1585107e-05
-8.6672361e-13
-0.00024458828
6.2159213e-05
-4.6152499e-13
-0.00025557455
5.1157773e-05
-2.2565849e-14
-0.00026404863
3.8699672e-05
4.6135753e-13
-0.00026975863
2.4956657e-05
9.5426618e-13
-0.00027249204
1.0161501e-05
1.3859045e-12
-0.00027208662
-5.3875824e-06
1.7073772e-12
-0.00026844168
-2.1326886e-05
1.9622341e-12
-0.00026152972
-3.723089e-05
2.2269473e-12
-0.00025140736
-5.2622636e-05
2.5506854e-12
-0.00023822494
-6.6988212e-05
2.8531885e-12
-0.00022223358
-7.9797241e-05
2.9675826e-12
-0.00020378858
-9.0528655e-05
2.8274277e-12
-0.0001833476
-9.8701136e-05
2.6038257e-12
-0.00016146242
-0.00010390688
2.5794274e-12
-0.00013876328
-0.00010584654
2.8256817e-12
-0.00011593532
-0.00010436269
3.0630283e-12
-9.3687489e-05
-9.9468451e-05
2.9854019e-12
-7.2715408e-05
-9.1368491e-05
2.7210248e-12
-5.3660772e-05
-8.0469662e-05
2.6744295e-12
-3.7071114e-05
-6.7380074e-05
2.8399882e-12
-2.3363931e-05
-5.2897096e-05
3.3526932e-12
-1.2799289e-05
-3.798633e-05
5.2644891e-12
-5.4648739e-06
-2.3750763e-05
3.5026575e-12
-1.2772633e-06
-1.1394127e-05
-7.7671599e-12
-2.2362334e-06
1.2774969e-11
-2.9284841e-06
1.1132055e-05
-2.5287677e-11
-1.0673674e-05
3.2619564e-05
2.2742169e-11
-2.2336175e-05
5.2221742e-05
-3.6356108e-12
-3.7135974e-05
6.934146e-05
-8.0353562e-12
-5.4394109e-05
8.3709457e-05
-3.9256302e-12
-7.3517624e-05
9.524955e-05
-3.4794428e-12
-9.3984292e-05
0.00010401185
-3.73884e-12
-0.00011532794
0.00011011636
-3.5454757e-12
-0.00013712515
0.0001137072
-3.2623723e-12
-0.00015898351
0.00011492167
-2.9908333e-12
-0.00018053175
0.00011387286
-2.6927193e-12
-0.00020141211
0.00011064407
-2.3527444e-12
-0.000221275
0.00010529243
-1.9664908e-12
-0.00023977614
9.7859377e-05
-1.5425614e-12
-0.00025657633
8.8385305e-05
-1.1087397e-12
-0.00027134341
7.6926298e-05
-6.87904e-13
-0.00028375654
6.3570891e-05
-2.7114676e-13
-0.00029351239
4.8455508e-05
1.7919523e-13
-0.00030033318
3.1777442e-05
6.8790107e-13
-0.00030397631
1.3804648e-05
1.2192426e-12
-0.00030424551
-5.1183544e-06
1.6805747e-12
-0.00030100291
-2.4569482e-05
2.0265258e-12
-0.00029418246
-4.4051362e-05
2.2531417e-12
-0.00028380322
-6.3001927e-05
2.474382e-12
-0.00026998219
-8.0809262e-05
2.7797653e-12
-0.00025294546
-9.6833935e-05
3.0998282e-12
-0.00023303594
-0.00011043811
3.2348999e-12
-0.00021071594
-0.00012102112
3.0761022e-12
-0.00018656265
-0.00012806024
2.7959301e-12
-0.00016125485
-0.00013115443
2.7213875e-12
-0.00013554999
-0.00013006755
2.9515795e-12
-0.00011025145
-0.0001247669
3.1993925e-12
-8.6167333e-05
-0.00011545254
3.1655747e-12
-6.4063714e-05
-0.00010257333
2.9172314e-12
-4.4616692e-05
-8.682718e-05
2.6612813e-12
-2.8368546e-05
-6.914525e-05
3.1414873e-12
-1.5693143e-05
-5.0661691e-05
5.746546e-12
-6.7752069e-06
-3.2668682e-05
3.6075782e-12
-1.607031e-06
-1.6562306e-05
-1.0716137e-11
-3.8432886e-06
1.5310964e-11
-3.2816999e-06
1.4413781e-05
-2.7861637e-11
-1.1915872e-05
4.1253707e-05
2.6160789e-11
-2.4855511e-05
6.5161388e-05
-3.4412622e-12
-4.1199914e-05
8.5685876e-05
-8.4237285e-12
-6.0176302e-05
0.00010268585
-3.8781929e-12
-8.1122239e-05
0.00011619549
-3.4595062e-12
-0.00010346629
0.00012635591
-3.8353192e-12
-0.00012670886
0.00013335893
-3.6899342e-12
-0.00015040462
0.00013740297
-3.4292013e-12
-0.00017414711
0.00013866416
-3.177558e-12
-0.00019755591
0.00013728166
-2.9047184e-12
-0.00022026664
0.0001333548
-2.6024776e-12
-0.00024192385
0.00012694963
-2.2605548e-12
-0.00026217664
0.00011811217
-1.8622778e-12
-0.00028067712
0.0001068858
-1.412832e-12
-0.00029708125
9.3330436e-05
-9.4652815e-13
-0.0003110519
7.7541547e-05
-4.977847e-13
-0.00032226409
5.9667688e-05
-6.4235665e-14
-0.00033041215
3.9925489e-05
3.9710899e-13
-0.00033521893
1.8611411e-05
9.1569468e-13
-0.00033644708
-3.89019e-06
1.4536466e-12
-0.00033391167
-2.7104861e-05
1.99283e-12
-0.00032749589
-5.0467119e-05
2.3575301e-12
-0.00031716682
-7.3331027e-05
2.5561155e-12
-0.00030299227
-9.4983872e-05
2.7250052e-12
-0.00028515681
-0.00011466943
2.991382e-12
-0.00026397515
-0.00013161974
3.3066579e-12
-0.00023990056
-0.00014509563
3.449955e-12
-0.00021352577
-0.000154435
3.2785064e-12
-0.00018557376
-0.0001591065
2.9625711e-12
-0.0001568766
-0.00015876479
2.8502818e-12
-0.00012834165
-0.00015330186
3.0530622e-12
-0.00010090604
-0.00014288807
3.2984827e-12
-7.5482432e-05
-0.00012799688
3.2262171e-12
-5.2901134e-05
-0.00010940852
2.7402917e-12
-3.3855128e-05
-8.8191312e-05
3.0088819e-12
-1.8854793e-05
-6.5662034e-05
6.1352461e-12
-8.1982579e-06
-4.3325193e-05
3.6229756e-12
-1.9611564e-06
-2.2799383e-05
-1.3858229e-11
-5.8044706e-06
1.803164e-11
-3.6023009e-06
1.8016115e-05
-3.0255426e-11
-1.3044871e-05
5.0696244e-05
2.9187662e-11
-2.7149288e-05
7.9265805e-05
-3.3579296e-12
-4.4907164e-05
0.00010344376
-8.8703276e-12
-6.5461494e-05
0.00012324019
-3.9092212e-12
-8.8087216e-05
0.00013882122
-3.4893616e-12
-0.00011216878
0.00015043748
-3.9622102e-12
-0.0001371774
0.00015836755
-3.8709699e-12
-0.00016264985
0.00016287543
-3.6449931e-12
-0.0001881699
0.00016418421
-3.4153569e-12
-0.0002133526
0.00016246437
-3.152717e-12
-0.00023783198
0.00015783419
-2.862672e-12
-0.00026125186
0.00015036951
-2.5529739e-12
-0.00028325978
0.00014012008
-2.2045684e-12
-0.00030350378
0.00012712979
-1.7903576e-12
-0.00032163161
0.00011145828
-1.310736e-12
-0.00033729238
9.3202337e-05
-8.0312321e-13
-0.00035014031
7.251563e-05
-3.1426676e-13
-0.00035984072
4.9625893e-05
1.4443241e-13
-0.00036607837
2.4849033e-05
5.9905087e-13
-0.00036856891
-1.3996629e-06
1.0697762e-12
-0.00036707129
-2.8602479e-05
1.7347494e-12
-0.0003614063
-5.6132073e-05
2.3122435e-12
-0.0003514745
-8.3262798e-05
2.6966415e-12
-0.00033727776
-0.00010918063
2.8776324e-12
-0.00031894087
-0.00013300638
2.9939659e-12
-0.00029673173
-0.00015382892
3.2073365e-12
-0.00027107724
-0.0001707501
3.4920732e-12
-0.00024257157
-0.0001829406
3.6186242e-12
-0.00021197321
-0.00018970483
3.4286286e-12
-0.00018018757
-0.00019055049
3.0938643e-12
-0.00014823333
-0.00018525617
2.9712517e-12
-0.00011719277
-0.00017392864
3.1695175e-12
-8.8148928e-05
-0.00015704066
3.3052041e-12
-6.2115353e-05
-0.00013544206
2.8693797e-12
-3.9966481e-05
-0.00011034021
3.0579943e-12
-2.2377618e-05
-8.3250935e-05
6.6405389e-12
-9.7826944e-06
-5.592012e-05
3.5854525e-12
-2.354694e-06
-3.0227353e-05
-1.7383379e-11
-8.1591841e-06
2.1064775e-11
-3.8870482e-06
2.1903198e-05
-3.2444075e-11
-1.4048655e-05
6.0857821e-05
3.1820783e-11
-2.9192049e-05
9.4409198e-05
-3.3482384e-12
-4.8215257e-05
0.00012246698
-9.3489591e-12
-7.018783e-05
0.00014521277
-4.0249362e-12
-9.4330042e-05
0.00016296344
-3.5882692e-12
-0.00011998819
0.00017609563
-4.126993e-12
-0.00014660905
0.00018498841
-4.077885e-12
-0.00017371585
0.00018998223
-3.8941327e-12
-0.00020088682
0.00019135518
-3.7043903e-12
-0.00022773704
0.0001893146
-3.4647683e-12
-0.00025390376
0.00018400092
-3.1772501e-12
-0.00027903514
0.0001755009
-2.867968e-12
-0.00030278226
0.0001638672
-2.5453802e-12
-0.00032479391
0.00014914143
-2.1854679e-12
-0.00034471399
0.00013137835
-1.752784e-12
-0.0003621812
0.00011066956
-1.2389221e-12
-0.00037683107
8.7165518e-05
-6.8191163e-13
-0.00038830034
6.1095184e-05
-1.4285121e-13
-0.0003962342
3.2782888e-05
3.6072443e-13
-0.00040029632
2.6624314e-06
8.8825117e-13
-0.00040018382
-2.8715e-05
1.3981348e-12
-0.000395644
-6.0671898e-05
2.0204433e-12
-0.00038649729
-9.2409473e-05
2.6248009e-12
-0.00037266255
-0.00012301534
3.0384775e-12
-0.0003541849
-0.00015148403
3.2100772e-12
-0.00033126376
-0.00017675012
3.2792198e-12
-0.00030427782
-0.0001977361
3.4309549e-12
-0.00027380297
-0.00021341544
3.6568246e-12
-0.00024061825
-0.00022288948
3.7313849e-12
-0.00020569513
-0.00022547357
3.5068385e-12
-0.00017016636
-0.00022078499
3.1803157e-12
-0.00013527318
-0.00020882187
3.1035723e-12
-0.00010229332
-0.00019002052
3.1868318e-12
-7.2455914e-05
-0.00016527943
2.8196381e-12
-4.6853272e-05
-0.00013594283
3.1357746e-12
-2.6361357e-05
-0.00010374287
7.3402206e-12
-1.1580444e-05
-7.0701053e-05
3.6057113e-12
-2.8033166e-06
-3.9004461e-05
-2.1394175e-11
-1.0962521e-05
2.450817e-11
-4.1321164e-06
2.6035349e-05
-3.4394878e-11
-1.4914092e-05
7.1639767e-05
3.4028132e-11
-3.0957123e-05
0.00011045223
-3.3913032e-12
-5.1080645e-05
0.00014259051
-9.8200115e-12
-7.429226e-05
0.00016842439
-4.2024782e-12
-9.9766107e-05
0.00018843729
-3.7583984e-12
-0.00012681666
0.00020314619
-4.3429959e-12
-0.00015487127
0.00021304303
-4.3138601e-12
-0.0001834439
0.00021855486
-4.1584995e-12
-0.00021211146
0.00022002274
-4.0123153e-12
-0.0002404934
0.00021769654
-3.8182415e-12
-0.00026823489
0.0002117424
-3.5570817e-12
-0.00029499347
0.00020225949
-3.2452699e-12
-0.00032042899
0.00018930274
-2.9118465e-12
-0.00034419634
0.00017290878
-2.5687487e-12
-0.00036594068
0.00015312267
-2.1920415e-12
-0.00038529499
0.00013002386
-1.7390803e-12
-0.00040187995
0.00010375048
-1.1902978e-12
-0.00041530637
7.4521622e-05
-5.7970683e-13
-0.00042518069
4.2657232e-05
3.6739139e-14
-0.00043111389
8.5956291e-06
6.3434782e-13
-0.00043273615
-2.709276e-05
1.0944044e-12
-0.00042971411
-6.3693977e-05
1.6469711e-12
-0.00042177613
-0.00010034746
2.3019847e-12
-0.00040874166
-0.00013604978
2.9388439e-12
-0.00039055531
-0.00016967034
3.3744129e-12
-0.00036732343
-0.000199982
3.5364956e-12
-0.00033934976
-0.00022570982
3.5605616e-12
-0.00030716535
-0.0002455999
3.6400169e-12
-0.00027154681
-0.00025850802
3.7739777e-12
-0.00023351596
-0.00026350436
3.7575935e-12
-0.00019431493
-0.000259986
3.5044576e-12
-0.00015535289
-0.00024778395
3.253819e-12
-0.00011812527
-0.00022724819
3.1064714e-12
-8.4111827e-05
-0.00019929287
2.6092095e-12
-5.4665467e-05
-0.00016538917
3.0874683e-12
-3.0907327e-05
-0.00012750101
8.158829e-12
-1.3644693e-05
-8.7963699e-05
3.7149762e-12
-3.3229928e-06
-4.9326144e-05
-2.5966945e-11
-1.4285542e-05
2.848865e-11
-4.3334551e-06
3.0368838e-05
-3.6056465e-11
-1.5627791e-05
8.2934071e-05
3.5773083e-11
-3.2417902e-05
0.00012724235
-3.4893871e-12
-5.3460296e-05
0.00016363291
-1.0259839e-11
-7.7712445e-05
0.00019267654
-4.4097971e-12
-0.00010431098
0.00021503583
-3.9782882e-12
-0.00013254489
0.0002313801
-4.6107554e-12
-0.0001618269
0.00024232505
-4.5938025e-12
-0.00019166584
0.0002483938
-4.4476562e-12
-0.0002216412
0.0002499981
-4.3248091e-12
-0.00025138093
0.00024743626
-4.1740351e-12
-0.0002805426
0.00024090408
-3.9647118e-12
-0.00030879817
0.00023051506
-3.6846918e-12
-0.00033582173
0.00021632631
-3.3463693e-12
-0.00036128012
0.00019836718
-2.9814789e-12
-0.00038482589
0.00017666845
-2.6087679e-12
-0.0004060925
0.00015129045
-2.2088728e-12
-0.00042469173
0.0001223497
-1.7339452e-12
-0.0004402138
9.0043685e-05
-1.1487537e-12
-0.00045223059
5.4674042e-05
-4.710299e-13
-0.00046030296
1.666803e-05
2.2345852e-13
-0.0004639935
-2.3402213e-05
8.1003438e-13
-0.00046288442
-6.4803077e-05
1.3535852e-12
-0.00045660336
-0.00010662856
1.9405487e-12
-0.00044485605
-0.00014779711
2.6118067e-12
-0.00042746607
-0.00018706029
3.2626094e-12
-0.00040442015
-0.00022302788
3.6994018e-12
-0.00037591554
-0.00025421442
3.8380671e-12
-0.00034240454
-0.00027911095
3.8079644e-12
-0.00030462861
-0.000296284
3.7936821e-12
-0.00026363336
-0.00030449961
3.7964436e-12
-0.00022075509
-0.00030286422
3.6824549e-12
-0.00017757159
-0.00029096742
3.4701816e-12
-0.00013581499
-0.00026900481
3.1620431e-12
-9.7251928e-05
-0.00023785596
2.3936436e-12
-6.3544835e-05
-0.00019909627
2.9275458e-12
-3.6114682e-05
-0.00015493115
9.0277023e-12
-1.6028551e-05
-0.00010804983
3.857269e-12
-3.9298337e-06
-6.1424833e-05
-3.122825e-11
-1.8215412e-05
3.3149695e-11
-4.4872237e-06
3.4856097e-05
-3.7374209e-11
-1.6177323e-05
9.4624133e-05
3.7040072e-11
-3.3549894e-05
0.00014461493
-3.6465492e-12
-5.5314544e-05
0.00018539758
-1.0667188e-11
-8.0390353e-05
0.00021775235
-4.6319451e-12
-0.00010788478
0.00024253026
-4.2198895e-12
-0.00013706723
0.00026056255
-4.9073447e-12
-0.00016734025
0.00027259807
-4.9145402e-12
-0.00019821117
0.00027926473
-4.7775572e-12
-0.00022926558
0.00028105252
-4.6586089e-12
-0.00026014363
0.00027831432
-4.5225559e-12
-0.00029051962
0.00027128007
-4.3540843e-12
-0.00032008478
0.00026008022
-4.1305267e-12
-0.00034853313
0.00024477466
-3.8302033e-12
-0.00037554989
0.00022538395
-3.4608073e-12
-0.00040080213
0.00020192071
-3.056035e-12
-0.00042393154
0.00017441987
-2.6435458e-12
-0.00044454924
0.0001429674
-2.2121862e-12
-0.00046223316
0.00010772759
-1.7082422e-12
-0.00047652858
6.8969445e-05
-1.0783047e-12
-0.00048695283
2.7092291e-05
-3.3677467e-13
-0.00049300558
-1.7349433e-05
4.0938524e-13
-0.00049418557
-6.3623068e-05
1.078845e-12
-0.00049001576
-0.00011079838
1.6754071e-12
-0.0004800777
-0.00015773521
2.2876726e-12
-0.00046405563
-0.00020308238
2.9639279e-12
-0.0004417897
-0.00024529378
3.5999754e-12
-0.00041333569
-0.0002826684
4.0023651e-12
-0.0003790259
-0.00031342073
4.0884601e-12
-0.0003395233
-0.00033578663
3.9769077e-12
-0.0002958575
-0.00034816545
3.8311787e-12
-0.00024942977
-0.00034929194
3.6956591e-12
-0.00020197494
-0.00033842224
3.5601447e-12
-0.00015547281
-0.00031550692
3.2325903e-12
-0.00011201157
-0.0002813172
2.2207339e-12
-7.3617491e-05
-0.00023749037
2.7508869e-12
-4.2077e-05
-0.00018647166
9.9862493e-12
-1.8783999e-05
-0.00013134282
3.9915922e-12
-4.640008e-06
-7.5568783e-05
-3.7345375e-11
-2.285546e-05
3.8614764e-11
-4.5902812e-06
3.9446419e-05
-3.8315565e-11
-1.6552688e-05
0.0001065865
3.7832864e-11
-3.4333346e-05
0.00016239559
-3.8483e-12
-5.6610879e-05
0.00020767513
-1.1043697e-11
-8.2277173e-05
0.00024341865
-4.8759478e-12
-0.00011041817
0.00027067127
-4.4745137e-12
-0.0001402889
0.00029043328
-5.2078715e-12
-0.00017128549
0.00030359467
-5.2497839e-12
-0.00020291686
0.0003108961
-5.1387727e-12
-0.00023477766
0.00031291332
-5.0290581e-12
-0.00026652355
0.00031006022
-4.8872858e-12
-0.00029784942
0.00030260594
-4.7216025e-12
-0.00032847057
0.00029070136
-4.5315183e-12
-0.00035810668
0.00027441076
-4.2876979e-12
-0.00038646821
0.00025374548
-3.9617289e-12
-0.00041324481
0.00022869732
-3.5550925e-12
-0.00043809562
0.00019927071
-3.1015654e-12
-0.00046064147
0.00016551325
-2.6384436e-12
-0.00048045926
0.00012754538
-2.1633673e-12
-0.00049707941
8.5589575e-05
-1.6182867e-12
-0.00050998715
4.0000017e-05
-9.4011448e-13
-0.00051862934
-8.707239e-06
-1.3998774e-13
-0.00052242828
-5.9824095e-05
6.792282e-13
-0.00052080456
-0.00011242208
1.4197677e-12
-0.00051321084
-0.00016532895
2.0690594e-12
-0.00049917818
-0.00021711508
2.703686e-12
-0.00047837546
-0.00026609653
3.3628459e-12
-0.00045068055
-0.0003103633
3.9417925e-12
-0.00041625885
-0.00034784239
4.259625e-12
-0.00037564081
-0.00037640467
4.24374e-12
-0.00032978529
-0.00039402099
3.999985e-12
-0.00028011189
-0.00039896538
3.7136203e-12
-0.00022848371
-0.00039005041
3.5261249e-12
-0.00017712614
-0.00036686447
3.1844017e-12
-0.00012847763
-0.0003299657
1.990097e-12
-8.4985572e-05
-0.00028098243
2.5686609e-12
-4.8878636e-05
-0.00022257861
1.1110317e-11
-2.1960823e-05
-0.00015826064
4.1390424e-12
-5.4696773e-06
-9.2059881e-05
-4.446506e-11
-2.8325181e-05
4.4993365e-11
-4.6407167e-06
4.4087178e-05
-3.8877825e-11
-1.6747985e-05
0.00011869373
3.8153728e-11
-3.4756309e-05
0.00018040392
-4.0678118e-12
-5.7328458e-05
0.00023024729
-1.1375477e-11
-8.3339257e-05
0.00026942946
-5.1499839e-12
-0.00011185971
0.00029919172
-4.7549659e-12
-0.00014213474
0.00032070832
-5.5117627e-12
-0.00017355701
0.00033501694
-5.5791871e-12
-0.00020563942
0.00034297852
-5.5010345e-12
-0.00023798808
0.00034526199
-5.4190473e-12
-0.00027027699
0.00034234913
-5.2811788e-12
-0.00030222517
0.00033455413
-5.0969368e-12
-0.00033357649
0.0003220527
-4.8930735e-12
-0.00036408203
0.0003049163
-4.6680488e-12
-0.00039348456
0.000283148
-4.3919325e-12
-0.00042150497
0.00025671774
-4.0311966e-12
-0.00044783028
0.00022559602
-3.5789183e-12
-0.00047210318
0.00018978617
-3.0673525e-12
-0.00049391348
0.0001493557
-2.5420676e-12
-0.00051279203
0.00010446812
-2.0083401e-12
-0.00052820804
5.5416008e-05
-1.408171e-12
-0.00053957136
2.6560689e-06
-6.7069331e-13
-0.0005462418
-5.3153656e-05
1.7969597e-13
-0.00054754736
-0.00011111648
1.063762e-12
-0.00054281494
-0.00017006134
1.8672763e-12
-0.00053141575
-0.00022851427
2.5606944e-12
-0.00051282801
-0.0002846843
3.1985835e-12
-0.00048671735
-0.00033647398
3.8010749e-12
-0.00045303243
-0.0003815273
4.2631494e-12
-0.00041210819
-0.00041732888
4.4243116e-12
-0.0003647627
-0.00044136648
4.2309717e-12
-0.00031236679
-0.00045136131
3.8336327e-12
-0.00025686079
-0.00044555643
3.4979381e-12
-0.00020069379
-0.00042303148
3.0299762e-12
-0.00014667112
-0.00038398836
1.6069529e-12
-9.7717393e-05
-0.00032993615
2.2992703e-12
-5.6590326e-05
-0.00026370569
1.2413597e-11
-2.5605326e-05
-0.00018924565
4.3316074e-12
-6.4348949e-06