/*--------------------------------*- C++ -*----------------------------------*\
  =========                 |
  \\      /  F ield         | OpenFOAM: The Open Source CFD Toolbox
   \\    /   O peration     | Website:  https://openfoam.org
    \\  /    A nd           | Version:  7
     \\/     M anipulation  |
\*---------------------------------------------------------------------------*/
FoamFile
{
    version     2.0;
    format      ascii;
    class       volVectorField;
    location    "34";
    object      U;
}
// * * * * * * * * * * * * * * * * * * * * * * * * * * * * * * * * * * * * * //

dimensions      [0 1 -1 0 0 0 0];

internalField   nonuniform List<vector> 
16000
(
(6.6025913e-05 -6.7351241e-05 -4.187212e-07)
(0.0001627276 -5.6365266e-05 5.6817488e-06)
(0.00014191238 4.5936243e-07 1.9181568e-05)
(-5.0621985e-05 6.1889574e-05 3.6604085e-05)
(-0.0004099731 0.00011563067 5.4712667e-05)
(-0.00090902591 0.00015774347 7.1541087e-05)
(-0.0015177114 0.00018850434 8.5753242e-05)
(-0.0022068865 0.00020960893 9.653394e-05)
(-0.002950602 0.00022287706 0.00010342285)
(-0.0037264651 0.00022981147 0.00010617308)
(-0.0045150502 0.00023147707 0.00010465744)
(-0.0052990125 0.00022850351 9.8812854e-05)
(-0.0060621925 0.00022114702 8.8614629e-05)
(-0.0067888638 0.00020938315 7.4073297e-05)
(-0.0074632158 0.00019301427 5.5247637e-05)
(-0.0080691166 0.00017178114 3.2267909e-05)
(-0.0085901689 0.00014547162 5.3640316e-06)
(-0.0090100489 0.00011402113 -2.5106125e-05)
(-0.0093131018 7.7600535e-05 -5.863272e-05)
(-0.0094851488 3.6687542e-05 -9.4538084e-05)
(-0.0095144491 -7.8848462e-06 -0.00013197251)
(-0.0093927299 -5.4922194e-05 -0.00016992473)
(-0.0091162225 -0.00010284329 -0.00020724825)
(-0.0086865996 -0.00014975172 -0.00024270529)
(-0.0081116902 -0.00019351502 -0.00027502626)
(-0.0074058966 -0.0002318862 -0.00030298245)
(-0.0065902234 -0.0002626564 -0.00032546743)
(-0.005691855 -0.00028382177 -0.00034158094)
(-0.0047432563 -0.00029374808 -0.00035070837)
(-0.0037808112 -0.00029131876 -0.00035258827)
(-0.0028430614 -0.00027605406 -0.00034736085)
(-0.0019686593 -0.00024818695 -0.0003355933)
(-0.0011941546 -0.00020868591 -0.00031828096)
(-0.0005516679 -0.00015925224 -0.00029682795)
(-6.6494808e-05 -0.00010241289 -0.00027300315)
(0.00024493359 -4.1771747e-05 -0.00024886458)
(0.00037893554 1.7842991e-05 -0.00022679513)
(0.00034975789 6.7092856e-05 -0.00020923128)
(0.0002061574 8.9890737e-05 -0.00019884387)
(5.7453688e-05 5.7428447e-05 -0.00018439872)
(5.7993314e-05 -0.00016705549 -6.6493203e-06)
(4.0867116e-05 -3.9973393e-05 -3.9573132e-07)
(-0.00029498477 0.00024855879 1.1237777e-05)
(-0.001011032 0.0005621213 2.5603803e-05)
(-0.0020992353 0.00084749614 4.0588777e-05)
(-0.0035140942 0.0010831208 5.4596921e-05)
(-0.0051946912 0.0012643012 6.6500976e-05)
(-0.0070766342 0.0013940678 7.5548625e-05)
(-0.009098155 0.0014779612 8.1258015e-05)
(-0.01120231 0.0015215281 8.3329478e-05)
(-0.013337039 0.0015292117 8.1579738e-05)
(-0.01545418 0.0015039755 7.5898871e-05)
(-0.017508152 0.0014473569 6.622852e-05)
(-0.019454718 0.001359778 5.2557878e-05)
(-0.021250158 0.0012410029 3.4933027e-05)
(-0.022850977 0.00109066 1.3475144e-05)
(-0.024214227 0.00090877615 -1.1596752e-05)
(-0.025298432 0.00069627563 -3.9942645e-05)
(-0.026065054 0.00045541322 -7.1081886e-05)
(-0.026480395 0.00019010607 -0.00010438034)
(-0.026517812 -9.3863824e-05 -0.00013904731)
(-0.026159987 -0.00038877201 -0.00017415134)
(-0.025401169 -0.00068508756 -0.00020863646)
(-0.024249166 -0.00097175965 -0.00024137004)
(-0.022726744 -0.0012366982 -0.00027119626)
(-0.020872342 -0.0014674318 -0.00029700364)
(-0.018739911 -0.0016519028 -0.0003178004)
(-0.016397722 -0.0017793415 -0.00033279121)
(-0.013926132 -0.0018411388 -0.00034144893)
(-0.011414313 -0.0018316396 -0.00034357445)
(-0.0089560845 -0.0017487901 -0.00033933832)
(-0.0066449945 -0.0015945949 -0.00032929958)
(-0.0045689038 -0.0013753791 -0.00031439889)
(-0.002804244 -0.0011019457 -0.00029592754)
(-0.0014100303 -0.00078991622 -0.00027547584)
(-0.00042161678 -0.0004606096 -0.0002548571)
(0.00015580092 -0.00014258445 -0.00023598595)
(0.00035673575 0.00012232112 -0.00022088115)
(0.00027522897 0.00027117095 -0.00021164471)
(9.0095396e-05 0.00020512627 -0.00019545885)
(1.9143647e-06 -0.00014896966 -2.0435482e-05)
(-0.00025605661 0.00029701228 -1.1817228e-05)
(-0.0010504598 0.0010236181 8.1097871e-08)
(-0.0023878345 0.0017975347 1.3061212e-05)
(-0.004239451 0.0025099009 2.6097456e-05)
(-0.0065455694 0.0031100559 3.8048934e-05)
(-0.00922513 0.0035809246 4.8088684e-05)
(-0.012190004 0.003923432 5.5656102e-05)
(-0.015352992 0.0041461844 6.0369527e-05)
(-0.018631058 0.0042595909 6.1972221e-05)
(-0.021946081 0.0042728156 6.0291239e-05)
(-0.025224258 0.0041924759 5.5208821e-05)
(-0.028394922 0.0040224696 4.6648691e-05)
(-0.031389389 0.0037645233 3.4575732e-05)
(-0.034140218 0.0034191697 1.9006044e-05)
(-0.036581141 0.0029869397 2.4113651e-08)
(-0.038647749 0.0024696069 -2.2196258e-05)
(-0.040278943 0.0018713604 -4.7370625e-05)
(-0.041419053 0.0011998087 -7.5085423e-05)
(-0.0420205 0.00046672873 -0.0001047857)
(-0.042046764 -0.00031150168 -0.00013577356)
(-0.04147547 -0.0011138114 -0.00016721393)
(-0.040301319 -0.0019148726 -0.00019815979)
(-0.038538559 -0.0026858571 -0.00022758803)
(-0.036222754 -0.0033956764 -0.00025445032)
(-0.033411577 -0.0040126117 -0.00027773585)
(-0.030184422 -0.0045062549 -0.00029654185)
(-0.026640643 -0.004849637 -0.00031014579)
(-0.022896389 -0.0050213786 -0.00031807231)
(-0.01908003 -0.0050076761 -0.00032014777)
(-0.015326329 -0.0048039536 -0.00031653635)
(-0.011769559 -0.0044160826 -0.00030775331)
(-0.0085358251 -0.0038611739 -0.00029465265)
(-0.0057348897 -0.0031680952 -0.00027838903)
(-0.0034517291 -0.0023780904 -0.00026035754)
(-0.0017379954 -0.0015461751 -0.00024211326)
(-0.00060366937 -0.00074420583 -0.0002252645)
(-8.0081072e-06 -6.6391483e-05 -0.00021140309)
(0.00015540666 0.00036038737 -0.00020221931)
(7.3539745e-05 0.0003543903 -0.00018530445)
(-6.4686258e-05 5.0420991e-05 -3.8687407e-05)
(-0.00060838649 0.0010457545 -2.6149163e-05)
(-0.0019305464 0.0023817304 -1.2167861e-05)
(-0.0039464468 0.0037565129 1.1249686e-06)
(-0.0065890246 0.0050153088 1.3713253e-05)
(-0.0097792111 0.0060800594 2.4837562e-05)
(-0.013417139 0.0069205188 3.3960649e-05)
(-0.017395542 0.0075341104 4.0747264e-05)
(-0.021607751 0.007931393 4.4961507e-05)
(-0.025950711 0.0081270371 4.6431519e-05)
(-0.030325867 0.008134766 4.5026467e-05)
(-0.034638817 0.0079650002 4.0640007e-05)
(-0.038798383 0.0076243738 3.318509e-05)
(-0.042715703 0.0071165065 2.2599468e-05)
(-0.046303769 0.0064435515 8.8594883e-06)
(-0.049477686 0.0056081419 -8.0003388e-06)
(-0.052155743 0.0046154476 -2.7864709e-05)
(-0.054261307 0.0034751121 -5.0514608e-05)
(-0.055725435 0.0022028911 -7.5607031e-05)
(-0.056490037 0.00082185319 -0.00010266068)
(-0.056511334 -0.00063697006 -0.00013105088)
(-0.055763435 -0.0021345985 -0.00016001257)
(-0.05424166 -0.0036248151 -0.00018866372)
(-0.051965314 -0.0050556162 -0.00021603746)
(-0.048979664 -0.0063713855 -0.00024113091)
(-0.045356808 -0.0075157139 -0.00026296651)
(-0.041195184 -0.008434731 -0.0002806618)
(-0.036617523 -0.009080758 -0.00029350206)
(-0.031767137 -0.0094160293 -0.00030100822)
(-0.026802524 -0.009416191 -0.00030299172)
(-0.02189043 -0.0090732896 -0.00029958925)
(-0.017197572 -0.0083980384 -0.0002912724)
(-0.01288137 -0.0074213126 -0.00027883051)
(-0.0090800352 -0.0061950416 -0.00026332712)
(-0.0059024836 -0.0047929292 -0.00024603218)
(-0.0034185215 -0.0033117935 -0.00022833674)
(-0.0016495485 -0.0018745153 -0.0002116667)
(-0.00055978872 -0.0006347169 -0.00019741273)
(-5.009909e-05 0.00021498361 -0.00018680965)
(3.8097125e-05 0.00041383207 -0.00016800158)
(-0.0001308663 0.0004455599 -5.8203702e-05)
(-0.00097095368 0.002242682 -4.1139199e-05)
(-0.0028462187 0.0043591758 -2.4256801e-05)
(-0.0055648205 0.0064572041 -9.8244915e-06)
(-0.0090094481 0.0083534662 3.094079e-06)
(-0.013075466 0.0099514437 1.4074144e-05)
(-0.017642283 0.011211742 2.2852698e-05)
(-0.022584683 0.012129578 2.9324918e-05)
(-0.027779633 0.01271752 3.3413654e-05)
(-0.033108111 0.012994142 3.5046101e-05)
(-0.03845549 0.012977362 3.4144953e-05)
(-0.043711122 0.012681212 3.0621766e-05)
(-0.048767512 0.012115127 2.4379643e-05)
(-0.053519624 0.011284986 1.532508e-05)
(-0.05786469 0.010195259 3.3867539e-06)
(-0.061702782 0.0088517397 -1.1460807e-05)
(-0.064938215 0.0072644377 -2.9170946e-05)
(-0.06748178 0.0054502903 -4.9598441e-05)
(-0.06925369 0.0034354362 -7.247558e-05)
(-0.070187064 0.0012568465 -9.7393741e-05)
(-0.070231715 -0.0010368482 -0.00012379365)
(-0.069358004 -0.0033854751 -0.0001509669)
(-0.067560448 -0.0057183983 -0.00017807262)
(-0.064860785 -0.0079566876 -0.00020416922)
(-0.061310193 -0.010016299 -0.00022826212)
(-0.056990364 -0.01181218 -0.00024936538)
(-0.052013151 -0.013263132 -0.00026657313)
(-0.04651855 -0.014297146 -0.00027913513)
(-0.040670834 -0.014856899 -0.00028652861)
(-0.034652756 -0.014905003 -0.00028851736)
(-0.028657904 -0.014428599 -0.00028518909)
(-0.022881422 -0.013442948 -0.00027696468)
(-0.017509488 -0.011993817 -0.00026457726)
(-0.012708042 -0.010158731 -0.00024902284)
(-0.0086114452 -0.0080475214 -0.00023148525)
(-0.0053117541 -0.0058029624 -0.00021324663)
(-0.0028485396 -0.0036024578 -0.00019562235)
(-0.0012000444 -0.0016605327 -0.00017987642)
(-0.00028880158 -0.00023378548 -0.00016673082)
(-2.4652806e-06 0.00035046048 -0.00014549712)
(-0.00019286515 0.0010313022 -7.6683972e-05)
(-0.0013239883 0.0038925242 -5.4780803e-05)
(-0.0037518615 0.0069679883 -3.4576018e-05)
(-0.007173306 0.009910808 -1.8482551e-05)
(-0.011414813 0.012527387 -4.6868514e-06)
(-0.016341488 0.014714494 6.6759315e-06)
(-0.021809623 0.016430493 1.5592839e-05)
(-0.027675881 0.017672011 2.2178452e-05)
(-0.033802398 0.018455242 2.6511215e-05)
(-0.040056847 0.018803208 2.8617873e-05)
(-0.046311833 0.018738073 2.8475697e-05)
(-0.052444054 0.018277402 2.6013744e-05)
(-0.058333347 0.017433431 2.1122434e-05)
(-0.063862052 0.016214492 1.3671578e-05)
(-0.068914982 0.014627822 3.5346448e-06)
(-0.073380191 0.012683108 -9.3825269e-06)
(-0.077150601 0.010396208 -2.5110533e-05)
(-0.080126438 0.0077926343 -4.3585009e-05)
(-0.082218378 0.0049104427 -6.4617645e-05)
(-0.083351206 0.0018022818 -8.7872544e-05)
(-0.083467812 -0.0014636047 -0.00011285117)
(-0.082533253 -0.0048035741 -0.00013888963)
(-0.08053864 -0.0081200453 -0.00016517032)
(-0.077504569 -0.011304338 -0.00019075186)
(-0.073483746 -0.014240834 -0.00021461627)
(-0.068562524 -0.016812387 -0.00023573227)
(-0.062861004 -0.018906769 -0.00025313058)
(-0.0565314 -0.020423846 -0.00026598459)
(-0.049754406 -0.021283048 -0.00027368848)
(-0.042733381 -0.021430622 -0.00027592325)
(-0.035686341 -0.020846131 -0.00027270064)
(-0.028835917 -0.019547665 -0.00026437657)
(-0.022397723 -0.01759537 -0.00025163011)
(-0.016567768 -0.015093155 -0.00023540952)
(-0.011509852 -0.012188869 -0.00021684891)
(-0.0073438809 -0.0090736901 -0.00019717392)
(-0.0041345379 -0.0059816754 -0.0001776605)
(-0.001881611 -0.0031890272 -0.0001595443)
(-0.00053619564 -0.0010143174 -0.000143151)
(-4.1243623e-05 0.00015894675 -0.00011905852)
(-0.00025011682 0.0017985673 -9.2170741e-05)
(-0.0016597736 0.0059841327 -6.528134e-05)
(-0.0046244585 0.010198606 -4.1594924e-05)
(-0.0087321734 0.014107009 -2.354009e-05)
(-0.013751609 0.017522325 -8.5017346e-06)
(-0.019515083 0.020347107 3.6372133e-06)
(-0.025854146 0.022545914 1.3088563e-05)
(-0.032607009 0.024121993 2.0168379e-05)
(-0.03962188 0.025098101 2.5098869e-05)
(-0.046755007 0.025503171 2.7998302e-05)
(-0.053868793 0.025364223 2.8892313e-05)
(-0.060830238 0.024702532 2.772166e-05)
(-0.067509629 0.023533168 2.4357804e-05)
(-0.073779754 0.021866973 1.8626692e-05)
(-0.079515865 0.01971412 1.0338493e-05)
(-0.084596489 0.017088489 -6.7832708e-07)
(-0.088905115 0.014012233 -1.4540252e-05)
(-0.092332688 0.010520008 -3.1271441e-05)
(-0.094780805 0.0066624786 -5.07686e-05)
(-0.09616545 0.0025088033 -7.277106e-05)
(-0.096421106 -0.0018521453 -9.6839526e-05)
(-0.095505019 -0.006311989 -0.00012234802)
(-0.093401424 -0.010744582 -0.00014848999)
(-0.090125468 -0.015009418 -0.00017430558)
(-0.085726486 -0.01895667 -0.00019872745)
(-0.080290322 -0.022433828 -0.00022064627)
(-0.073940272 -0.025293745 -0.00023899104)
(-0.066836242 -0.027403756 -0.0002528175)
(-0.059171758 -0.028655359 -0.00026139526)
(-0.051168499 -0.028973816 -0.0002642835)
(-0.043068226 -0.028326937 -0.00026138476)
(-0.035122178 -0.026732295 -0.00025296693)
(-0.027578341 -0.024262239 -0.00023964767)
(-0.020667362 -0.021046285 -0.00022233997)
(-0.014588356 -0.017270888 -0.00020216115)
(-0.0094958069 -0.013177232 -0.00018033131)
(-0.0054864778 -0.0090579415 -0.00015815504)
(-0.0025879549 -0.0052522172 -0.00013692346)
(-0.00078447557 -0.0021405288 -0.00011664044)
(-7.6875824e-05 -0.00016053673 -8.9434988e-05)
(-0.00030295667 0.0027365268 -0.00010299436)
(-0.0019754999 0.0084980976 -7.1024275e-05)
(-0.0054521427 0.01402857 -4.3876408e-05)
(-0.010217975 0.019021383 -2.3731707e-05)
(-0.015985184 0.02331109 -7.2364112e-06)
(-0.022552802 0.026818192 5.9525645e-06)
(-0.029727186 0.029522427 1.6249818e-05)
(-0.037328207 0.031439774 2.4153229e-05)
(-0.045190983 0.0326034 3.001287e-05)
(-0.053161887 0.033050372 3.4025649e-05)
(-0.061095242 0.032813692 3.6254702e-05)
(-0.068850852 0.031918824 3.6642876e-05)
(-0.076292131 0.030383784 3.5033641e-05)
(-0.083284977 0.028221858 3.1200118e-05)
(-0.089697536 0.025446016 2.4879977e-05)
(-0.095400876 0.022074168 1.5814783e-05)
(-0.10027056 0.018134569 3.7923908e-06)
(-0.10418902 0.013670803 -1.1309549e-05)
(-0.1070487 0.0087459292 -2.9481622e-05)
(-0.10875571 0.0034454446 -5.0545433e-05)
(-0.10923403 -0.0021211673 -7.4125008e-05)
(-0.10842997 -0.0078205202 -9.9632465e-05)
(-0.10631682 -0.013497144 -0.00012626711)
(-0.10289944 -0.018977276 -0.00015303915)
(-0.098218414 -0.024074597 -0.00017881286)
(-0.092353539 -0.028597962 -0.0002023731)
(-0.085426014 -0.032360988 -0.0002225109)
(-0.077598887 -0.035193193 -0.00023812118)
(-0.069075168 -0.036952147 -0.00024830232)
(-0.060093127 -0.037535831 -0.0002524458)
(-0.050918471 -0.036894251 -0.00025030361)
(-0.041833341 -0.035039226 -0.00024202322)
(-0.033122468 -0.032051395 -0.00022814254)
(-0.025057302 -0.028083644 -0.0002095409)
(-0.017879663 -0.023360663 -0.00018734397)
(-0.011786483 -0.018174989 -0.00016281388)
(-0.0069140594 -0.012880402 -0.00013734982)
(-0.0033238314 -0.0078822687 -0.00011237809)
(-0.0010368641 -0.0036261487 -8.7670487e-05)
(-0.00011093717 -0.00060701775 -5.7230503e-05)
(-0.0003516937 0.0038338194 -0.00010769126)
(-0.0022696868 0.011410357 -7.0535483e-05)
(-0.0062274796 0.018427293 -4.0057543e-05)
(-0.011614749 0.024619948 -1.7807054e-05)
(-0.018090316 0.029857551 2.569422e-07)
(-0.025421021 0.034089869 1.4686303e-05)
(-0.033388714 0.037320704 2.6080536e-05)
(-0.041795668 0.039585238 3.5100481e-05)
(-0.050464962 0.040931432 4.2207174e-05)
(-0.059234582 0.041407227 4.76614e-05)
(-0.067952664 0.041053174 5.1550815e-05)
(-0.076474027 0.039899658 5.3808798e-05)
(-0.084657583 0.037967833 5.4240173e-05)
(-0.092364697 0.035273264 5.2554923e-05)
(-0.099458572 0.031831282 4.8407753e-05)
(-0.1058046 0.027663176 4.1442342e-05)
(-0.11127167 0.022802458 3.1339139e-05)
(-0.11573421 0.017300627 1.7865042e-05)
(-0.11907515 0.011231987 9.2246525e-07)
(-0.1211894 0.0046971962 -1.9405311e-05)
(-0.12198807 -0.0021747109 -4.2816818e-05)
(-0.1214031 -0.0092260705 -6.8770647e-05)
(-0.11939245 -0.016272194 -9.6474727e-05)
(-0.11594547 -0.023105281 -0.00012490557)
(-0.11108822 -0.029500566 -0.00015284662)
(-0.1048884 -0.035224927 -0.00017895423)
(-0.097459293 -0.040047907 -0.00020184725)
(-0.088962006 -0.043754925 -0.00022021436)
(-0.079605239 -0.046162116 -0.00023292897)
(-0.069641888 -0.047131946 -0.00023915793)
(-0.059361872 -0.046588338 -0.00023844904)
(-0.049080951 -0.044529862 -0.00023078471)
(-0.039125737 -0.041039502 -0.0002165929)
(-0.029815728 -0.036289768 -0.00019670907)
(-0.021444142 -0.030542377 -0.00017228188)
(-0.014259517 -0.024142626 -0.0001446565)
(-0.008446123 -0.017509193 -0.0001153907)
(-0.00410575 -0.011119106 -8.6124744e-05)
(-0.001300076 -0.0054896972 -5.6465178e-05)
(-0.00014466026 -0.001181741 -2.2512766e-05)
(-0.00039639254 0.0050786729 -0.00010494225)
(-0.0025408055 0.014693484 -6.2462392e-05)
(-0.0069442143 0.023357974 -2.8856221e-05)
(-0.012909247 0.030860803 -4.5546619e-06)
(-0.020045656 0.037117341 1.5125099e-05)
(-0.028090309 0.042116898 3.0932351e-05)
(-0.036802153 0.045895778 4.3637234e-05)
(-0.045967201 0.048514809 5.4046582e-05)
(-0.055397839 0.050041353 6.2716282e-05)
(-0.064925205 0.050537296 6.9956343e-05)
(-0.074393063 0.050052586 7.5865744e-05)
(-0.083653282 0.048623477 8.0356462e-05)
(-0.092562442 0.046274527 8.3183581e-05)
(-0.10097954 0.043023311 8.3983015e-05)
(-0.10876485 0.038886819 8.2315017e-05)
(-0.11577976 0.033888618 7.7712718e-05)
(-0.12188762 0.028066006 6.973488e-05)
(-0.12695537 0.021476594 5.8021452e-05)
(-0.1308561 0.014203877 4.2349766e-05)
(-0.13347225 0.0063614919 2.2688665e-05)
(-0.13469975 -0.0019040804 -7.5413196e-07)
(-0.13445281 -0.010412651 -2.7503057e-05)
(-0.13266957 -0.018951378 -5.6786108e-05)
(-0.12931853 -0.027278404 -8.7551881e-05)
(-0.12440507 -0.035129027 -0.00011849827)
(-0.11797825 -0.042224872 -0.00014813565)
(-0.11013684 -0.048286146 -0.00017487882)
(-0.10103393 -0.053046889 -0.00019716313)
(-0.090879057 -0.05627275 -0.00021357611)
(-0.07993675 -0.057780335 -0.00022299002)
(-0.068520633 -0.057456681 -0.00022467762)
(-0.056982439 -0.055276902 -0.00021839377)
(-0.045695955 -0.05131789 -0.00020441017)
(-0.035036644 -0.0457661 -0.00018349436)
(-0.025358963 -0.03891806 -0.00015682079)
(-0.016973703 -0.031173315 -0.00012584964)
(-0.010123133 -0.023020484 -9.2357845e-05)
(-0.0049573036 -0.015016286 -5.8279089e-05)
(-0.0015839082 -0.0077601727 -2.3107016e-05)
(-0.00018000294 -0.0018920004 1.4758245e-05)
(-0.00043687285 0.0064585673 -9.3544843e-05)
(-0.0027868516 0.018316899 -4.5566204e-05)
(-0.0075958999 0.028778319 -9.0818211e-06)
(-0.01408864 0.037694904 1.7172063e-05)
(-0.021830805 0.045038206 3.8475855e-05)
(-0.030532264 0.050846268 5.5768186e-05)
(-0.039931313 0.055195687 6.9978214e-05)
(-0.049799503 0.058179114 8.2043927e-05)
(-0.059940126 0.059887919 9.2601702e-05)
(-0.070179107 0.060401145 0.00010199754)
(-0.080357608 0.05978019 0.00011032965)
(-0.090326493 0.058068275 0.00011747755)
(-0.099942064 0.055293683 0.00012313608)
(-0.10906304 0.051475667 0.00012685635)
(-0.1175487 0.04663195 0.00012809226)
(-0.12525815 0.040786887 0.00012625235)
(-0.13205049 0.033979541 0.00012075679)
(-0.13778587 0.02627112 0.00011109834)
(-0.14232751 0.017751393 9.6905653e-05)
(-0.14554449 0.0085438136 7.8006547e-05)
(-0.1473157 -0.0011908523 5.4486915e-05)
(-0.1475346 -0.011252625 2.6724448e-05)
(-0.14611542 -0.021402747 -4.5504316e-06)
(-0.14300048 -0.03136623 -3.8276791e-05)
(-0.13816823 -0.040837687 -7.3072887e-05)
(-0.13164195 -0.049490591 -0.0001072932)
(-0.1234984 -0.056990415 -0.00013912006)
(-0.1138753 -0.063011788 -0.00016668732)
(-0.10297653 -0.067259334 -0.000188229)
(-0.091073499 -0.069491284 -0.00020223953)
(-0.078501373 -0.069544188 -0.00020762575)
(-0.065648984 -0.067356328 -0.00020382827)
(-0.052942016 -0.062986899 -0.00019089266)
(-0.040820054 -0.056628005 -0.00016947494)
(-0.029709653 -0.048607164 -0.00014076319)
(-0.019996212 -0.039379408 -0.0001063541)
(-0.011992171 -0.0295095 -6.8299973e-05)
(-0.0059060271 -0.019644346 -2.8908651e-05)
(-0.0018995943 -0.010479294 1.2400071e-05)
(-0.00021910989 -0.0027504909 5.4738668e-05)
(-0.00047276036 0.0079598512 -7.2408253e-05)
(-0.0030053058 0.022246659 -1.8725176e-05)
(-0.0081754806 0.034640702 2.0351796e-05)
(-0.015139637 0.045066379 4.8432399e-05)
(-0.02342507 0.053560152 7.1347489e-05)
(-0.032718084 0.060216889 9.0218124e-05)
(-0.042738972 0.0651605 0.00010612249)
(-0.053246915 0.068521212 0.00012011683)
(-0.064037871 0.070418863 0.00013290587)
(-0.074934229 0.070952903 0.00014486063)
(-0.085776298 0.070198344 0.00015606863)
(-0.096415811 0.068206598 0.00016636774)
(-0.10671079 0.065010072 0.00017538356)
(-0.11652172 0.060629336 0.00018257271)
(-0.12570893 0.055081771 0.00018727118)
(-0.13413108 0.048390745 0.00018874824)
(-0.1416446 0.040594623 0.00018626645)
(-0.148104 0.031755105 0.00017914736)
(-0.15336317 0.021964574 0.00016684151)
(-0.15727763 0.011352256 0.00014899982)
(-0.159708 8.9013471e-05 0.00012554274)
(-0.16052489 -0.011609434 9.6731061e-05)
(-0.15961527 -0.023481681 6.3193784e-05)
(-0.15689039 -0.035221775 2.5973489e-05)
(-0.15229554 -0.046484017 -1.3487612e-05)
(-0.1458208 -0.05689169 -5.3390111e-05)
(-0.13751247 -0.066050528 -9.1662708e-05)
(-0.12748403 -0.073567409 -0.00012609051)
(-0.11592513 -0.079074235 -0.00015448063)
(-0.10310685 -0.082256225 -0.00017485293)
(-0.089381208 -0.082882835 -0.00018563576)
(-0.075173032 -0.080838446 -0.00018583995)
(-0.060963174 -0.076148998 -0.00017518302)
(-0.047263092 -0.069000345 -0.00015413676)
(-0.034583087 -0.059744602 -0.00012386896)
(-0.02339739 -0.048892503 -8.6120672e-05)
(-0.014103441 -0.037091896 -4.3271e-05)
(-0.0069814328 -0.025092619 1.9144536e-06)
(-0.0022590073 -0.013702945 5.0061979e-05)
(-0.00026414645 -0.0037760389 9.7618925e-05)
(-0.00050355111 0.0095674399 -4.0562762e-05)
(-0.0031932752 0.026445183 1.9053081e-05)
(-0.008675403 0.04089209 6.0408921e-05)
(-0.016048492 0.052912575 9.017454e-05)
(-0.024807361 0.062615405 0.00011467849)
(-0.034618414 0.070159208 0.00013521711)
(-0.045186787 0.075721389 0.00015300842)
(-0.056261493 0.079474989 0.00016921564)
(-0.06763296 0.08157253 0.00018460213)
(-0.0791217 0.082137076 0.00019955578)
(-0.090568858 0.081259501 0.00021414642)
(-0.10182884 0.079000757 0.00022816393)
(-0.11276334 0.075397877 0.00024115809)
(-0.12323668 0.070472434 0.00025248327)
(-0.13311237 0.064240345 0.00026134721)
(-0.14225076 0.056722061 0.00026686552)
(-0.15050758 0.047952505 0.00026812319)
(-0.15773345 0.037990335 0.00026424364)
(-0.16377426 0.026926305 0.0002544648)
(-0.16847275 0.014890605 0.00023821945)
(-0.1716713 0.0020590307 0.00021521739)
(-0.17321659 -0.011342254 0.0001855347)
(-0.17296591 -0.025033756 0.00014965938)
(-0.1707957 -0.03868223 0.00010856231)
(-0.16661242 -0.051903602 6.370627e-05)
(-0.16036548 -0.064270368 1.7024679e-05)
(-0.15206154 -0.0753246 -2.9150173e-05)
(-0.14177937 -0.08459751 -7.2214113e-05)
(-0.12968347 -0.091636021 -0.00010947127)
(-0.11603435 -0.09603592 -0.00013835747)
(-0.10119273 -0.097479876 -0.0001566869)
(-0.085615064 -0.095777096 -0.00016289214)
(-0.069838036 -0.090899827 -0.00015622096)
(-0.054451419 -0.083010915 -0.00013684795)
(-0.040061184 -0.072476729 -0.00010585359)
(-0.027246483 -0.059861702 -6.5110305e-05)
(-0.0165077 -0.045903612 -1.7368865e-05)
(-0.008213768 -0.031469865 3.4058848e-05)
(-0.0026743198 -0.017501841 8.9824718e-05)
(-0.0003172962 -0.0049938546 0.00014354248)
(-0.00052868104 0.011264645 2.8218196e-06)
(-0.0033477386 0.030871097 6.8613094e-05)
(-0.0090880506 0.04747404 0.00011191113)
(-0.016801582 0.06116413 0.00014321019)
(-0.025956883 0.07212838 0.00016927656)
(-0.036204175 0.080594891 0.00019157359)
(-0.047236286 0.086799842 0.00021145031)
(-0.058794234 0.090963746 0.00023016715)
(-0.070664644 0.093275745 0.00024853887)
(-0.082667708 0.093885648 0.00026696528)
(-0.094646982 0.092902506 0.00028549506)
(-0.10646126 0.090398303 0.0003038673)
(-0.1179778 0.086415363 0.00032155283)
(-0.12906688 0.08097609 0.00033779887)
(-0.13959746 0.074093901 0.00035167684)
(-0.14943399 0.065784401 0.00036213577)
(-0.15843402 0.056076235 0.00036806344)
(-0.16644668 0.045021271 0.00036835705)
(-0.17331221 0.032704008 0.00036200391)
(-0.17886251 0.019250188 0.00034817085)
(-0.18292315 0.0048345373 0.00032630035)
(-0.18531735 -0.01031257 0.0002962121)
(-0.18587197 -0.025899803 0.00025818781)
(-0.18442617 -0.041572063 0.00021305576)
(-0.18084314 -0.056910835 0.00016223762)
(-0.17502464 -0.071439331 0.00010775732)
(-0.16692825 -0.084633974 5.2193576e-05)
(-0.15658624 -0.09594378 -1.4354286e-06)
(-0.14412459 -0.10481882 -4.9859935e-05)
(-0.12977947 -0.11074794 -8.9813727e-05)
(-0.11390799 -0.1133045 -0.00011833813)
(-0.096989356 -0.11219669 -0.00013310236)
(-0.079612811 -0.10731673 -0.00013269523)
(-0.062450273 -0.098781318 -0.00011682904)
(-0.046214677 -0.086954981 -8.6382521e-05)
(-0.031607745 -0.072449895 -4.3313421e-05)
(-0.01925415 -0.056099254 9.2236548e-06)
(-0.0096331355 -0.038903923 6.7276342e-05)
(-0.0031578279 -0.021961652 0.0001315041)
(-0.00038078484 -0.0064355924 0.00019253105)
(-0.00054759925 0.013033164 5.8412922e-05)
(-0.0034658577 0.035479364 0.00013062998)
(-0.0094063957 0.054322957 0.00017551508)
(-0.017386392 0.06974527 0.00020818903)
(-0.026854429 0.082015872 0.00023578805)
(-0.037448146 0.091436732 0.00025993273)
(-0.048850766 0.098307125 0.00028209456)
(-0.060797315 0.1028991 0.00030362294)
(-0.073072168 0.10544205 0.00032537958)
(-0.08549658 0.10611559 0.00034777477)
(-0.097917934 0.10504933 0.00037083651)
(-0.11020099 0.10232797 0.00039425451)
(-0.1222204 0.098000013 0.00041742169)
(-0.1338545 0.092088773 0.00043947721)
(-0.14498013 0.084604358 0.00045935162)
(-0.15546856 0.075555796 0.00047581722)
(-0.16518212 0.064962744 0.0004875469)
(-0.17397173 0.052866562 0.00049318435)
(-0.18167528 0.039340757 0.00049142737)
(-0.18811714 0.024500895 0.00048112483)
(-0.1931091 0.0085140146 0.00046138597)
(-0.19645325 -0.0083925614 0.00043169946)
(-0.19794727 -0.025923364 0.00039205077)
(-0.19739263 -0.043708863 0.00034303525)
(-0.19460648 -0.06130251 0.00028594657)
(-0.1894373 -0.07818255 0.00022282649)
(-0.18178452 -0.093760659 0.00015645524)
(-0.17162147 -0.1073997 9.0262696e-05)
(-0.15902007 -0.11844266 2.8145854e-05)
(-0.1441748 -0.12625403 -2.581081e-05)
(-0.1274219 -0.13027326 -6.7699062e-05)
(-0.1092488 -0.13007708 -9.4201475e-05)
(-0.090288539 -0.12544456 -0.00010300364)
(-0.071294703 -0.11641495 -9.3125346e-05)
(-0.053096431 -0.10332683 -6.5064969e-05)
(-0.036536433 -0.08682786 -2.0769385e-05)
(-0.02238844 -0.067848907 3.6195204e-05)
(-0.011268761 -0.047540423 0.00010113924)
(-0.0037218423 -0.027182719 0.00017471014)
(-0.0004569112 -0.0081393814 0.00024440705)
(-0.00055984416 0.014853259 0.0001266908)
(-0.0035453369 0.040221766 0.0002055881)
(-0.0096248074 0.061370764 0.00025169167)
(-0.017792801 0.07857451 0.00028557525)
(-0.027484123 0.092187621 0.00031466981)
(-0.038327153 0.10258893 0.0003407418)
(-0.049997921 0.11014415 0.00036537707)
(-0.062227194 0.11518034 0.00039000776)
(-0.074798399 0.11797046 0.00041554121)
(-0.087535011 0.11872692 0.00044240066)
(-0.10028946 0.11760244 0.00047059829)
(-0.11293388 0.1146963 0.0004997804)
(-0.12535204 0.1100644 0.00052926782)
(-0.13743242 0.10373137 0.00055809559)
(-0.14906226 0.095703585 0.00058505354)
(-0.1601226 0.085982156 0.00060873151)
(-0.17048405 0.074575406 0.00062757368)
(-0.18000322 0.061510779 0.00063994597)
(-0.18852002 0.046846247 0.00064421973)
(-0.19585595 0.030681469 0.00063887378)
(-0.20181371 0.013168871 0.00062261521)
(-0.20617874 -0.0054753368 0.00059451721)
(-0.20872307 -0.024960514 0.00055416729)
(-0.2092126 -0.044912152 0.00050181637)
(-0.20741813 -0.064864846 0.00043851528)
(-0.20313137 -0.084259638 0.00036621685)
(-0.19618604 -0.10244827 0.00028781931)
(-0.18648427 -0.11870741 0.00020712266)
(-0.1740271 -0.13226601 0.00012867133)
(-0.15894666 -0.14234851 5.7465998e-05)
(-0.14153583 -0.14823507 -1.4537817e-06)
(-0.12226911 -0.14933664 -4.3527575e-05)
(-0.10180729 -0.14527867 -6.5233765e-05)
(-0.080978717 -0.1359818 -6.4590721e-05)
(-0.060733898 -0.1217237 -4.1453721e-05)
(-0.04207431 -0.10316589 2.4096269e-06)
(-0.025950476 -0.081333231 6.3056369e-05)
(-0.013148241 -0.05754053 0.00013496944)
(-0.0043785973 -0.0332794 0.00021876168)
(-0.00054808333 -0.010149841 0.00029870688)
(-0.00056512206 0.016704132 0.00020792634)
(-0.0035848205 0.045047803 0.00029376323)
(-0.0097399808 0.068546086 0.00034070933)
(-0.018014594 0.087565883 0.00037562866)
(-0.027835512 0.1025474 0.00040616562)
(-0.038824722 0.11394787 0.00043421981)
(-0.050653058 0.12220185 0.00046148438)
(-0.063048409 0.12769427 0.00048947065)
(-0.075794266 0.13074477 0.00051913405)
(-0.088717232 0.13160153 0.00055091772)
(-0.10167579 0.130443 0.00058482762)
(-0.1145507 0.12738524 0.00062047763)
(-0.12723644 0.1224931 0.00065712733)
(-0.13963365 0.1157934 0.00069371693)
(-0.15164251 0.10728886 0.00072890124)
(-0.16315699 0.096971887 0.00076108774)
(-0.17405975 0.084837723 0.00078848391)
(-0.18421762 0.070897078 0.00080915927)
(-0.19347776 0.055188368 0.00082112678)
(-0.20166469 0.037789978 0.00082244707)
(-0.2085784 0.018832875 0.00081135802)
(-0.21399412 -0.0014862801 0.0007864297)
(-0.21766444 -0.022891649 0.00074674239)
(-0.21932459 -0.045015019 0.00069207407)
(-0.21870192 -0.067384141 0.0006230914)
(-0.21553093 -0.089414497 0.00054151487)
(-0.2095747 -0.11040751 0.00045023156)
(-0.20065357 -0.12955893 0.00035331865)
(-0.18868079 -0.14598186 0.00025593741)
(-0.17370325 -0.15874897 0.00016406272)
(-0.15594311 -0.1669571 8.4030715e-05)
(-0.13583339 -0.16981458 2.1918932e-05)
(-0.11403767 -0.16674576 -1.7183525e-05)
(-0.091443301 -0.15750012 -2.9895504e-05)
(-0.069120475 -0.14224563 -1.5059898e-05)
(-0.048244334 -0.12162259 2.6003763e-05)
(-0.0299718 -0.096736563 8.907938e-05)
(-0.01529662 -0.069077563 0.00016775486)
(-0.0051401275 -0.040378985 0.0002625862)
(-0.0006568553 -0.012518068 0.00035457911)
(-0.00056338793 0.018564532 0.00030216433)
(-0.0035843171 0.049906088 0.00039521136)
(-0.009751957 0.075776033 0.00044262482)
(-0.018051161 0.096630811 0.00047839354)
(-0.027905935 0.11299472 0.00051029033)
(-0.038934094 0.12540355 0.00054033455)
(-0.050802747 0.13436217 0.00057032165)
(-0.063237887 0.14031584 0.00060184235)
(-0.076023784 0.14363371 0.00063590742)
(-0.088990865 0.14460278 0.00067299195)
(-0.1020045 0.14343006 0.00071311057)
(-0.11495518 0.14025088 0.00075586088)
(-0.12774954 0.135141 0.00080045734)
(-0.14030231 0.12813079 0.00084575992)
(-0.15252913 0.11922003 0.00089030005)
(-0.16434006 0.1083923 0.00093230946)
(-0.17563381 0.095628822 0.00096975831)