/*--------------------------------*- C++ -*----------------------------------*\
  =========                 |
  \\      /  F ield         | OpenFOAM: The Open Source CFD Toolbox
   \\    /   O peration     | Website:  https://openfoam.org
    \\  /    A nd           | Version:  7
     \\/     M anipulation  |
\*---------------------------------------------------------------------------*/
FoamFile
{
    version     2.0;
    format      ascii;
    class       volScalarField;
    location    "26";
    object      p;
}
// * * * * * * * * * * * * * * * * * * * * * * * * * * * * * * * * * * * * * //

dimensions      [0 2 -2 0 0 0 0];

internalField   nonuniform List<scalar> 
16000
(
8.8493003e-06
-0.00013139175
-0.00044287492
-0.00084523231
-0.0012634397
-0.0016521069
-0.0019803628
-0.0022293661
-0.0023884773
-0.0024519909
-0.002416968
-0.002281953
-0.0020463759
-0.0017104793
-0.0012756201
-0.00074480686
-0.00012335053
0.00058048138
0.0013549098
0.002184279
0.0030489617
0.0039256031
0.0047877262
0.0056067413
0.0063533157
0.0069990578
0.0075184086
0.007890589
0.0081014261
0.0081448858
0.0080241787
0.0077523656
0.007352437
0.0068568866
0.0063066342
0.0057491844
0.005239484
0.0048337284
0.0045936798
0.0045548117
0.00015350289
8.6018526e-06
-0.00024148031
-0.00055035932
-0.00087255244
-0.0011737495
-0.0014297069
-0.0016242465
-0.0017470074
-0.0017915454
-0.0017539192
-0.0016317658
-0.0014238321
-0.0011298867
-0.00075092112
-0.00028954059
0.00024954672
0.00085903218
0.0015285826
0.0022445612
0.002989962
0.0037447534
0.0044862329
0.0051900566
0.0058313813
0.0063863038
0.006833478
0.0071557852
0.0073419006
0.0073875817
0.0072965252
0.0070807239
0.0067603302
0.0063630726
0.0059232171
0.0054798707
0.0050742214
0.0047495697
0.0045509504
0.0045153223
0.00047217011
0.0002542886
-1.5443985e-06
-0.000280589
-0.00056083205
-0.0008177679
-0.0010336069
-0.0011962924
-0.0012976201
-0.0013320697
-0.0012959212
-0.0011866411
-0.0010025891
-0.00074301056
-0.00040825241
-1.324593e-07
0.00047761122
0.0010188633
0.001614735
0.0022532986
0.0029195493
0.003595526
0.0042608594
0.0048935524
0.0054710789
0.0059717245
0.0063760809
0.0066685877
0.0068389924
0.0068835642
0.0068058858
0.0066170892
0.0063355137
0.0059858846
0.0055981283
0.0052057486
0.004843485
0.0045456243
0.004348328
0.0042809517
0.00089378761
0.00056252909
0.00026184006
-2.3940595e-05
-0.00029454096
-0.00053368959
-0.00072981945
-0.00087571523
-0.00096630671
-0.00099790032
-0.00096768304
-0.00087336749
-0.0007130812
-0.00048548506
-0.00019006984
0.00017242247
0.00059951088
0.0010864833
0.0016259638
0.0022076085
0.0028179942
0.0034406745
0.0040566794
0.0046452068
0.0051846892
0.0056541236
0.0060345663
0.0063106628
0.0064720836
0.0065147238
0.0064415102
0.0062626465
0.0059951868
0.0056619871
0.0052902273
0.004909712
0.0045511783
0.0042447191
0.0040168911
0.0038813404
0.0013445883
0.00088491962
0.0005217667
0.00021145638
-6.6247995e-05
-0.00030230471
-0.00049103739
-0.0006301816
-0.00071807958
-0.00075316697
-0.00073378249
-0.00065802512
-0.00052381177
-0.000329132
-7.2451458e-05
0.00024677955
0.00062755927
0.0010667632
0.0015586299
0.0020943702
0.0026619632
0.0032461885
0.0038289759
0.0043900744
0.00490808
0.0053617788
0.0057317082
0.0060017794
0.0061607798
0.0062035997
0.0061320514
0.005955153
0.0056887405
0.0053543401
0.0049774061
0.0045853596
0.0042063758
0.0038677219
0.0035850663
0.0033614959
0.0017714363
0.0011783093
0.00074364716
0.00039760128
0.00010104379
-0.00014324267
-0.00033495207
-0.00047653625
-0.00056968365
-0.00061496898
-0.00061190319
-0.00055896139
-0.00045378826
-0.00029358587
-7.5635052e-05
0.00020208937
0.00054024874
0.00093746261
0.0013896807
0.0018896735
0.0024267144
0.0029865316
0.0035515606
0.0041015777
0.0046146932
0.0050687072
0.005442751
0.0057190615
0.0058846675
0.0059327568
0.0058635533
0.0056846149
0.0054104912
0.0050616496
0.0046626058
0.0042397112
0.0038202473
0.0034306635
0.0030780655
0.0027507815
0.0021291272
0.0014041538
0.00089456828
0.00050633808
0.00018306977
-7.7905664e-05
-0.00028110638
-0.00043331485
-0.00053931334
-0.0006016449
-0.00062085927
-0.00059568219
-0.00052334958
-0.00040011951
-0.00022191271
1.4955842e-05
0.00031299031
0.00067271486
0.0010919149
0.0015649864
0.0020824752
0.0026309096
0.0031929462
0.0037479648
0.0042730435
0.0047443354
0.0051387815
0.0054360357
0.0056203945
0.0056824452
0.0056201584
0.0054392704
0.0051529504
0.0047807648
0.0043468253
0.0038775047
0.0034008337
0.002944352
0.0025080811
0.0020665142
0.002379099
0.0015276987
0.00094362883
0.00051045531
0.00015586996
-0.00012768412
-0.00034907528
-0.00051899118
-0.0006449652
-0.00073123295
-0.00077915109
-0.00078749052
-0.00075288496
-0.00067045466
-0.00053455879
-0.00033964384
-8.1153829e-05
0.00024353973
0.00063423971
0.0010871202
0.0015941019
0.0021425357
0.0027151874
0.0032907665
0.0038448733
0.0043514181
0.0047844229
0.0051200923
0.0053389822
0.0054279979
0.0053818795
0.00520388
0.0049055423
0.0045056504
0.0040283476
0.0035008846
0.0029534697
0.0024166033
0.0018851999
0.0013226568
0.0024875466
0.001517254
0.00086152693
0.00038306946
-5.2333262e-06
-0.00031545663
-0.00056043689
-0.00075436064
-0.00090714664
-0.0010244044
-0.0011080186
-0.0011565575
-0.0011658258
-0.0011295869
-0.0010404137
-0.0008906428
-0.00067340712
-0.00038370231
-1.9435297e-05
0.00041760795
0.00092095908
0.001478988
0.0020746567
0.0026859342
0.0032866464
0.0038479209
0.0043401083
0.0047350425
0.0050084666
0.0051423948
0.0051270846
0.0049622355
0.0046571379
0.004229723
0.0037045636
0.0031105653
0.002481355
0.0018521229
0.0012142246
0.00052073802
0.0024239977
0.0013437424
0.00062070073
9.8134541e-05
-0.00032489785
-0.00066474393
-0.00093790463
-0.0011617027
-0.0013480953
-0.0015037496
-0.0016307929
-0.0017273329
-0.0017881063
-0.0018052873
-0.0017694204
-0.001670463
-0.001498924
-0.0012470646
-0.00091010713
-0.00048739103
1.6619908e-05
0.00059171909
0.0012213242
0.0018828256
0.0025481972
0.0031853831
0.0037603131
0.004239401
0.0045923169
0.0047947803
0.004831075
0.004695907
0.0043952004
0.0039455375
0.0033721198
0.0027062567
0.001986197
0.0012534405
0.00049695371
-0.00034017412
0.0021606735
0.00098052904
0.00019555459
-0.000368998
-0.00082694092
-0.0011987146
-0.0015042351
-0.0017636445
-0.0019906316
-0.0021926369
-0.0023717705
-0.0025254405
-0.002647086
-0.0027270593
-0.0027536233
-0.0027140615
-0.002595901
-0.0023882291
-0.0020830621
-0.0016767099
-0.0011710338
-0.00057415248
9.8246147e-05
0.00082337732
0.0015715345
0.0023073046
0.0029915691
0.0035842123
0.0040473245
0.0043485821
0.0044644479
0.0043828124
0.0041046392
0.0036441131
0.0030268307
0.0022870862
0.0014689887
0.00062199984
-0.00026650789
-0.0012636714
0.0016723773
0.00040349363
-0.00043726451
-0.0010411004
-0.0015336822
-0.0019393903
-0.0022813391
-0.0025822124
-0.0028571701
-0.0031141917
-0.0033551584
-0.0035765828
-0.0037704121
-0.0039249634
-0.0040259647
-0.0040577115
-0.00400435
-0.0038512864
-0.0035866974
-0.0032030745
-0.002698719
-0.0020792591
-0.001358223
-0.00055800624
0.00029041513
0.0011483605
0.0019712607
0.0027114496
0.0033217832
0.0037597502
0.0039916075
0.0039960513
0.0037669332
0.0033143911
0.0026635977
0.0018520359
0.00093086934
-4.0679894e-05
-0.0010762934
-0.0022541387
0.00093671152
-0.00040870084
-0.0012984914
-0.0019385602
-0.0024652976
-0.0029068691
-0.0032893893
-0.0036378395
-0.0039686408
-0.0042901361
-0.0046038275
-0.0049051982
-0.0051845666
-0.0054280468
-0.0056186038
-0.0057372281
-0.0057642551
-0.005680842
-0.0054705974
-0.0051213123
-0.0046267401
-0.0039885304
-0.0032171968
-0.0023336251
-0.0013692459
-0.00036559071
0.00062720769
0.001553123
0.0023541451
0.0029751466
0.0033691937
0.0035026284
0.0033592399
0.0029427197
0.0022762987
0.0014003092
0.00037396959
-0.0007317858
-0.0019312612
-0.0033148899
-6.5498743e-05
-0.0014742092
-0.0024057897
-0.0030788315
-0.0036391545
-0.0041185317
-0.0045458903
-0.004948299
-0.0053432837
-0.0057394425
-0.006137822
-0.0065328154
-0.006913048
-0.0072623321
-0.0075606979
-0.007785546
-0.0079129681
-0.0079192642
-0.0077826682
-0.0074852611
-0.0070150397
-0.0063681169
-0.0055505588
-0.0045802003
-0.0034876239
-0.0023163263
-0.0011217103
3.1347658e-05
0.0010725116
0.0019315104
0.002544738
0.0028621391
0.0028534035
0.0025123069
0.0018576938
0.00093169674
-0.00019775432
-0.0014459675
-0.0028274589
-0.0044464328
-0.0013496718
-0.002807545
-0.0037732747
-0.0044758821
-0.0050691523
-0.005588252
-0.0060647402
-0.0065275976
-0.0069953599
-0.0074768496
-0.0079726665
-0.0084761397
-0.0089742217
-0.0094484077
-0.0098757026
-0.010229704
-0.010481873
-0.010603052
-0.010565257
-0.010343747
-0.0099193679
-0.009281107
-0.0084286373
-0.0073747663
-0.0061473367
-0.0047902666
-0.0033633141
-0.0019401821
-0.00060464208
0.00055545556
0.0014560429
0.0020258049
0.0022150292
0.0020026547
0.0013993595
0.00044701429
-0.00077761077
-0.002174015
-0.0037564963
-0.0056446658
-0.0029269034
-0.0044191239
-0.0054110685
-0.0061396886
-0.0067651119
-0.0073256479
-0.0078553136
-0.0083848691
-0.0089338324
-0.0095113055
-0.010117547
-0.010744951
-0.011378914
-0.011998695
-0.012578282
-0.013087354
-0.013492453
-0.013758439
-0.013850298
-0.013735336
-0.01338577
-0.01278167
-0.011914149
-0.010788584
-0.0094275743
-0.007873134
-0.0061875964
-0.0044526462
-0.0027659524
-0.0012350179
3.1776134e-05
0.00093635044
0.0014030031
0.0013891577
0.00089170016
-5.1339294e-05
-0.0013550955
-0.0029013516
-0.0047037236
-0.0068988726
-0.0048034505
-0.006314878
-0.0073249442
-0.0080758354
-0.0087322716
-0.0093354265
-0.0099216224
-0.010523321
-0.011161076
-0.011844418
-0.012573475
-0.013339943
-0.014127898
-0.014914555
-0.015671
-0.016362998
-0.016952011
-0.017396526
-0.017653811
-0.01768217
-0.017443729
-0.01690776
-0.01605449
-0.014879125
-0.013395981
-0.011642052
-0.0096794378
-0.0075958183
-0.0055021469
-0.0035268526
-0.0018061549
-0.00047074378
0.00036994729
0.00064322829
0.0003242284
-0.00055862396
-0.0019145678
-0.0036062281
-0.0056460859
-0.00818938
-0.0069803456
-0.0084960114
-0.0095161254
-0.010285277
-0.01097095
-0.011616893
-0.012261625
-0.012939315
-0.013671704
-0.014469011
-0.015331552
-0.016250677
-0.017209493
-0.018183484
-0.019141076
-0.020044257
-0.020849393
-0.021508383
-0.021970282
-0.022183536
-0.022098883
-0.021672994
-0.020872814
-0.019680487
-0.018098582
-0.01615526
-0.013908528
-0.011448709
-0.0088979153
-0.0064053867
-0.0041377618
-0.0022640026
-0.00093583907
-0.00026657976
-0.00031355187
-0.0010666109
-0.0024335714
-0.004257508
-0.0065495174
-0.0094847207
-0.0094532169
-0.010958979
-0.011981311
-0.01276433
-0.013476438
-0.014163683
-0.014866757
-0.015621662
-0.016451615
-0.017367909
-0.01837149
-0.019453823
-0.020597503
-0.021776715
-0.022957594
-0.024098623
-0.025151221
-0.026060672
-0.026767566
-0.027209915
-0.027326072
-0.027058554
-0.026358831
-0.0251931
-0.023548525
-0.021440108
-0.018916981
-0.016067343
-0.013020514
-0.009944436
-0.0070369894
-0.0045100419
-0.0025663417
-0.00137193
-0.0010302423
-0.0015617563
-0.0028806212
-0.0048119163
-0.0073657409
-0.010738148
-0.01221238
-0.013695755
-0.014713005
-0.015504961
-0.016239179
-0.016963782
-0.017721748
-0.018551217
-0.019477351
-0.020513073
-0.021660532
-0.022911878
-0.024249744
-0.025647531
-0.027069556
-0.028471198
-0.029799233
-0.030992504
-0.031983135
-0.032698458
-0.033063837
-0.033006512
-0.032460641
-0.031374148
-0.029715028
-0.027480632
-0.024705791
-0.021470571
-0.017905643
-0.014193086
-0.010560245
-0.0072643854
-0.004567048
-0.0026999705
-0.0018291695
-0.002022354
-0.0032122159
-0.0052105794
-0.0080283305
-0.011883358
-0.015243259
-0.01669447
-0.017700216
-0.018495444
-0.019245296
-0.019999869
-0.020804757
-0.02170081
-0.022715855
-0.0238652
-0.025152934
-0.026572568
-0.02810739
-0.029730585
-0.03140517
-0.033083904
-0.034709343
-0.036214245
-0.03752251
-0.038550874
-0.039211539
-0.039415891
-0.039079523
-0.038130664
-0.03651454
-0.034206684
-0.031222019
-0.027625626
-0.023541965
-0.0191601
-0.014731783
-0.010558836
-0.0069669278
-0.004265941
-0.00270304
-0.002414305
-0.0033688173
-0.0053746614
-0.008447875
-0.012829275
-0.018527211
-0.019940468
-0.020929596
-0.021721429
-0.022477502
-0.02325001
-0.024087849
-0.025035538
-0.026124628
-0.027373833
-0.02879009
-0.030369052
-0.032095324
-0.033942436
-0.035872618
-0.037836486
-0.039772851
-0.041608849
-0.043260603
-0.044634633
-0.045630237
-0.046143168
-0.046070804
-0.04531737
-0.04380629
-0.041487037
-0.038349224
-0.034435871
-0.029856538
-0.02479779
-0.019527199
-0.014385982
-0.0097651578
-0.0060627399
-0.0036261653
-0.0026851258
-0.0032695304
-0.0051998969
-0.0085060759
-0.013453779
-0.022042796
-0.02341789
-0.024387083
-0.025167475
-0.025916403
-0.026688694
-0.027537779
-0.028513379
-0.029652289
-0.030977975
-0.032501326
-0.034221005
-0.036123587
-0.03818346
-0.040362477
-0.042609501
-0.044860008
-0.047035983
-0.049046311
-0.050787895
-0.052147745
-0.053006332
-0.053242397
-0.052739069
-0.051393961
-0.049128778
-0.045903849
-0.041733709
-0.036704111
-0.030988111
-0.024857317
-0.018682393
-0.012915342
-0.0080475388
-0.0045439792
-0.0027558442
-0.0028052187
-0.0045498211
-0.0080486105
-0.013596237
-0.0257676
-0.027111888
-0.028060157
-0.028819069
-0.029542169
-0.030288138
-0.031117016
-0.032086059
-0.033239452
-0.034607159
-0.036205332
-0.038036542
-0.040089926
-0.042341093
-0.044751756
-0.047269215
-0.049825847
-0.052338827
-0.054710297
-0.05682821
-0.058568121
-0.059796161
-0.060373439
-0.060162132
-0.05903496
-0.056884679
-0.053639785
-0.049281393
-0.043863468
-0.037534282
-0.030555563
-0.023313045
-0.016308938
-0.010126262
-0.0053599726
-0.0025105905
-0.0018298054
-0.0032474859
-0.0068765682
-0.013048722
-0.029680727
-0.031011674
-0.031940838
-0.032665204
-0.033336543
-0.034019766
-0.03478485
-0.035700031
-0.036819814
-0.038182874
-0.039812107
-0.041714869
-0.043883273
-0.046294253
-0.048909327
-0.051674123
-0.054517861
-0.057352991
-0.060075205
-0.062564063
-0.064684492
-0.066289393
-0.067223622
-0.067329669
-0.066456403
-0.064468503
-0.061261874
-0.0567814
-0.051043318
-0.044161114
-0.036372319
-0.028060308
-0.019760571
-0.012137653
-0.0059208132
-0.0017839856
-0.0001495889
-0.0010654162
-0.00473619
-0.011545718
-0.033766221
-0.035114691
-0.03602966
-0.036701569
-0.037285109
-0.037855699
-0.038498415
-0.039297381
-0.040321296
-0.041620209
-0.043225335
-0.045149529
-0.04738797
-0.049918633
-0.052702353
-0.055682561
-0.058784864
-0.061916704
-0.06496729
-0.06780806
-0.070293953
-0.072265661
-0.073553261
-0.073981514
-0.073376206
-0.071576772
-0.068447383
-0.06389621
-0.057898643
-0.050526116
-0.041979302
-0.032621023
-0.022998614
-0.013839535
-0.0060011881
-0.00034689355
0.0024894588
0.0022864817
-0.0013064791
-0.0087519447
-0.038017934
-0.03943251
-0.040340994
-0.040934477
-0.041379753
-0.041770088
-0.042213406
-0.042816486
-0.04366708
-0.044829601
-0.04634504
-0.048232072
-0.050488516
-0.053092525
-0.056003209
-0.059160734
-0.062486162
-0.06588119
-0.069228098
-0.072390071
-0.075212344
-0.077524114
-0.079141749
-0.079873514
-0.079525935
-0.077913892
-0.074872581
-0.070275245
-0.064056294
-0.056241509
-0.046985598
-0.036614579
-0.02566459
-0.014900642
-0.005290749
0.002108341
0.0064162157
0.0071754557
0.0038160769
-0.0042475067
-0.04244686
-0.043999435
-0.044910361
-0.045385729
-0.045621216
-0.045740062
-0.045884307
-0.046192266
-0.04677646
-0.047718623
-0.049070458
-0.05085604
-0.053074599
-0.055702836
-0.058696387
-0.061990479
-0.065500137
-0.069120097
-0.072724827
-0.076168675
-0.079287011
-0.081897784
-0.083804372
-0.084799839
-0.084672934
-0.083216757
-0.080240343
-0.075585009
-0.069146503
-0.060905058
-0.050964934
-0.039603471
-0.027324429
-0.014901678
-0.0033863968
0.0059812496
0.012050346
0.014063509
0.011137058
0.0024913336
-0.047092924
-0.048885639
-0.04980477
-0.050098699
-0.050021619
-0.049746087
-0.049463936
-0.049355987
-0.049565529
-0.050193854
-0.051303139
-0.052921188
-0.055046254
-0.057650959
-0.060684925
-0.064076083
-0.067731387
-0.071536897
-0.075358283
-0.079039543
-0.082405883
-0.085263694
-0.087403468
-0.088603676
-0.08863647
-0.087274854
-0.084304397
-0.079537804
-0.07283577
-0.064135838
-0.053491782
-0.04112597
-0.027493493
-0.013349286
0.00020601271
0.01177222
0.01991872
0.023529051
0.021290485
0.012119436
-0.052045124
-0.054217962
-0.055137697
-0.055146063
-0.054606819
-0.053771486
-0.052902231
-0.052234645
-0.051947844
-0.05216297
-0.052950331
-0.054337873
-0.056318908
-0.058858137
-0.061895945
-0.065349658
-0.069115809
-0.073069555
-0.077067669
-0.08093994
-0.084501988
-0.087547758
-0.089854329
-0.091185422
-0.091297596
-0.089943442
-0.086887049
-0.081915188
-0.07485684
-0.065610676
-0.054182758
-0.040739149
-0.025676131
-0.0097063403
0.0060554416
0.020082414
0.030670241
0.036293893
0.03507646
0.025465822
-0.057477798
-0.060213808
-0.061091047
-0.060639449
-0.059418188
-0.057800751
-0.056144129
-0.05475003
-0.053835197
-0.053537155
-0.053928611
-0.05503141
-0.056828006
-0.059269883
-0.0622849
-0.065774722
-0.069623884
-0.073694678
-0.077829329
-0.081848466
-0.085553186
-0.088724473
-0.0911255
-0.092504712
-0.092600687
-0.091148276
-0.087889098
-0.082584388
-0.075033267
-0.06509819
-0.052740293
-0.038070251
-0.021419985
-0.0034419049
0.014768676
0.031597516
0.045084751
0.053256635
0.053517003
0.043607769
-0.063718636
-0.06723739
-0.067947012
-0.066740674
-0.064512667
-0.061815736
-0.059125994
-0.056817084
-0.055138181
-0.054233387
-0.054167215
-0.054945801
-0.056532769
-0.058860236
-0.06183611
-0.06534661
-0.06925895
-0.073420631
-0.077659459
-0.081782947
-0.0855782
-0.08881221
-0.091233283
-0.092573621
-0.092553581
-0.090887927
-0.087294949
-0.081509323
-0.073299147
-0.062489866
-0.048997423
-0.032875625
-0.014386209
0.0058950564
0.026924639
0.047045053
0.064067777
0.07553147
0.077939674
0.06800556
-0.071380817
-0.075893523
-0.076132401
-0.073672264
-0.069958164
-0.065787336
-0.061768759
-0.058340021
-0.055764997
-0.054175069
-0.053609527
-0.054045418
-0.055416615
-0.057628697
-0.060565191
-0.064091461
-0.068055844
-0.072289224
-0.076604127
-0.080793595
-0.084630489
-0.087867281
-0.090236838
-0.091454426
-0.091221362
-0.089230613
-0.085174943
-0.078759573
-0.069717349
-0.057831304
-0.042965237
-0.025107804
-0.0044388366
0.018570426
0.042965134
0.06710532
0.088611087
0.10448358
0.11010515
0.10076102
-0.081631444
-0.087181669
-0.086270199
-0.081716252
-0.075814572
-0.069654734
-0.063961151
-0.059200443
-0.055613516
-0.05328668
-0.052209329
-0.052310816
-0.053484087
-0.055599355
-0.058510941
-0.062059915
-0.06607416
-0.07036699
-0.074735301
-0.078957674
-0.082792938
-0.0859793
-0.08823442
-0.089256691
-0.088728102
-0.086318795
-0.08169362
-0.074524625
-0.064502772
-0.051358624
-0.034889328
-0.014997484
0.0082490092
0.034515687
0.063013828
0.092226344
0.11966034
0.14172293
0.15240488
0.14512509
-0.096759805
-0.10273812
-0.099197901
-0.091155222
-0.082062485
-0.073261444
-0.065507803
-0.059216989
-0.054540173
-0.051469378
-0.049910167
-0.049722956
-0.050745783
-0.05280594
-0.05572443
-0.059316208
-0.063388268
-0.067736722
-0.072143701
-0.076374488
-0.08017521
-0.08327122
-0.0853664
-0.086143577
-0.0852665
-0.082382706
-0.077128195
-0.06913849
-0.058055571
-0.043544691
-0.025315146
-0.0031506791
0.023041633
0.053142057
0.086634119
0.12228377
0.15778162
0.18895243
0.20809865
0.20632848
-0.12133937
-0.12518701
-0.11587279
-0.1020809
-0.088417025
-0.076198005
-0.06600547
-0.058051945
-0.052291035
-0.048549962
-0.046608113
-0.046232739
-0.047194508
-0.049272419
-0.052252729
-0.055925019
-0.060077236
-0.064490642
-0.068935188
-0.073165545
-0.076917915
-0.079907669
-0.081827842
-0.082348652
-0.081118599
-0.077764314
-0.071895738
-0.0631102
-0.050996029
-0.035141629
-0.015145226
0.0093697415
0.038726179
0.073130448
0.11252055
0.15626336
0.20263164
0.24752391
0.28130171
0.29235731
-0.16445682
-0.15843255
-0.13714806
-0.11415714
-0.094107005
-0.07763091
-0.064737592
-0.05516151
-0.048489636
-0.044291298
-0.04217261
-0.041787185
-0.042832227
-0.045039468
-0.048164557
-0.051976875
-0.056250598
-0.060757143
-0.065258958
-0.069504503
-0.07322434
-0.076128137
-0.077902582
-0.078210344
-0.076690344
-0.072947617
-0.066577537
-0.057140456
-0.044172172
-0.027180169
-0.0056358419
0.021035506
0.05346484
0.092332341
0.13829699
0.19182763
0.25266875
0.31751216
0.37626931
0.41537148
-0.24629369
-0.20631774
-0.16213004
-0.12552869
-0.097143463
-0.075877989
-0.060487378
-0.049752175
-0.042660083
-0.038436045
-0.036490178
-0.036365218
-0.037697181
-0.040184982
-0.043567075
-0.047604048
-0.052065734
-0.056721519
-0.061332962
-0.065648111
-0.069397142
-0.072289081
-0.074009457
-0.074219686
-0.072558365
-0.0686054
-0.061961513
-0.052155703
-0.038682721
-0.020980921
0.0015964464
0.029826022
0.064687207
0.10746574
0.15987199
0.22417876
0.30290642
0.39553315
0.49624438
0.60321327
-0.42543846
-0.26572983
-0.17722106
-0.12463568
-0.08911632
-0.065102461
-0.049323676
-0.039185158
-0.032983551
-0.02967394
-0.028570577
-0.029186616
-0.03115668
-0.034189747
-0.038037452
-0.042473161
-0.047277992
-0.052231012
-0.057102063
-0.061646362
-0.065600404
-0.068678784
-0.070571469
-0.07094036
-0.069407659
-0.065629544
-0.059132106
-0.049452568
-0.036074495
-0.018402927
0.0042721613
0.032848122
0.068543595
0.11314305
0.16943765
0.24201821
0.3380671
0.46591685
0.64305567
0.92086324
-0.79331241
-0.32444164
-0.14899689
-0.087724862
-0.055345275
-0.035998982
-0.025091024
-0.019200479
-0.01635501
-0.015618585
-0.016493816
-0.018653624
-0.021852734
-0.02588809
-0.030575094
-0.035733479
-0.041178686
-0.046715925
-0.052135626
-0.057209808
-0.06168913
-0.065300527
-0.067745535
-0.068700573
-0.067824179
-0.064707628
-0.058941454
-0.050072117
-0.037593056
-0.020926819
0.00061103944
0.027881744
0.062059451
0.10491406
0.15945202
0.23152869
0.33385216
0.49409292
0.79001707
1.383779
1.2461537e-05
-0.00013040009
-0.00044259199
-0.00084514964
-0.0012635519
-0.0016523512
-0.0019806928
-0.002229756
-0.00238891
-0.0024524529
-0.0024174473
-0.002282438
-0.0020468555
-0.0017109427
-0.0012760567
-0.00074520569
-0.00012370038
0.0005801922
0.0013546931
0.0021841464
0.0030489234
0.003925665
0.004787889
0.0056070009
0.0063536659
0.0069994927
0.0075189194
0.0078911567
0.0081020176
0.0081454619
0.0080247106
0.0077528434
0.0073528552
0.0068572172
0.0063068289
0.0057492279
0.0052393873
0.0048335305
0.0045934021
0.0045548058
0.00015439862
9.1308954e-06
-0.00024102249
-0.00054987948
-0.00087203637
-0.0011731839
-0.0014290947
-0.0016235999
-0.0017463411
-0.0017908749
-0.0017532596
-0.001631131
-0.0014232349
-0.0011293395
-0.00075043581
-0.00028912921
0.00024987205
0.00085925989
0.0015287012
0.0022445624
0.0029898421
0.0037445122
0.0044858745
0.0051895852
0.0058308014
0.0063856263
0.0068327269
0.0071549957
0.0073411069
0.0073868023
0.0072957656
0.0070799996
0.0067596852
0.0063625617
0.0059228571
0.0054796236
0.0050740491
0.0047494052
0.004550771
0.004515467
0.00047266429
0.00025456942
-1.2213264e-06
-0.00028031776
-0.00056063096
-0.00081760596
-0.0010334713
-0.0011961789
-0.0012975243
-0.001331989
-0.0012958547
-0.0011865892
-0.0010025523
-0.00074298926
-0.00040824659
-1.4147684e-07
0.00047758882
0.0010188291
0.0016146897
0.0022532413
0.0029194795
0.0035954462
0.0042607762
0.0048934727
0.0054710037
0.0059716466
0.006375992
0.0066684906
0.0068389035
0.0068834986
0.0068058351
0.0066170212
0.0063354057
0.0059857571
0.005598029
0.0052056957
0.0048434382
0.0045455007
0.0043481034
0.0042809173
0.00089428509
0.00056260014
0.00026209711
-2.370826e-05
-0.00029440031
-0.00053359556
-0.00072975688
-0.00087568168
-0.00096629727
-0.0009979099
-0.00096770796
-0.00087340523
-0.00071312982
-0.00048554294
-0.00019013564
0.00017235022
0.00059943482
0.0010864076
0.0016258933
0.0022075462
0.0028179394
0.003440626
0.0040566387
0.0046451808
0.0051846865
0.0056541457
0.0060346007
0.0063106912
0.0064720997
0.0065147426
0.0064415506
0.0062626989
0.0059952073
0.0056619392
0.0052901288
0.0049096194
0.0045511106
0.0042446264
0.0040167366
0.003881191
0.0013451368
0.00088478049
0.00052199177
0.00021171777
-6.6070296e-05
-0.0003021525
-0.000490897
-0.00063005769
-0.00071797256
-0.00075307576
-0.00073370646
-0.00065796387
-0.00052376495
-0.0003290993
-7.2433015e-05
0.00024678277
0.00062754607
0.0010667337
0.0015585869
0.0020943181
0.0026619051
0.0032461234
0.0038288994
0.0043899851
0.0049079857
0.0053616936
0.0057316397
0.0060017167
0.0061607007
0.0062034956
0.006131944
0.0059550749
0.005688692
0.0053542777
0.004977292
0.0045852108
0.0042062329
0.0038676267
0.0035850688
0.0033612787
0.0017720745
0.0011779802
0.00074383705
0.00039786576
0.0001012132
-0.00014309384
-0.00033480786
-0.00047640431
-0.00056956553
-0.00061486461
-0.00061181317
-0.00055888639
-0.00045372869
-0.00029354158
-7.5605378e-05
0.00020210469
0.0005402486
0.00093744479
0.0013896441
0.0018896207
0.0024266518
0.0029864646
0.0035514888
0.0041014942
0.0046145928
0.0050685967
0.0054426488
0.005718981
0.0058845986
0.0059326704
0.0058634336
0.0056844845
0.0054103898
0.005061583
0.0046625333
0.0042395907
0.0038200734
0.0034305396
0.0030781495
0.0027504823
0.0021298673
0.0014036571
0.00089472994
0.00050660294
0.00018322357
-7.7770969e-05
-0.00028097248
-0.00043319207
-0.00053920323
-0.00060154687
-0.00062077388
-0.00059561039
-0.00052329252
-0.00040007811
-0.00022188683
1.4967615e-05
0.00031298945
0.00067270088
0.0010918849
0.001564938
0.0020824105
0.0026308364
0.0031928735
0.003747894
0.0042729653
0.0047442395
0.0051386718
0.0054359337
0.0056203195
0.0056823887
0.0056200858
0.0054391593
0.005152822
0.0047806614
0.004346756
0.0038774192
0.0034006644
0.0029442161
0.002508247
0.0020661403
0.0023799422
0.0015270539
0.00094377199
0.0005107269
0.00015601529
-0.00012755506
-0.00034894177
-0.00051886697
-0.00064485282
-0.00073113167
-0.00077906121
-0.00078741264
-0.00075282004
-0.00067040447
-0.00053452518
-0.00033962718
-8.1152162e-05
0.00024352921
0.00063421751
0.001087083
0.0015940452
0.0021424599
0.0027151017
0.0032906836
0.0038447978
0.0043513393
0.0047843251
0.0051199754
0.0053388696
0.0054279143
0.0053818189
0.0052038055
0.0049054291
0.0045055215
0.0040282471
0.0035007986
0.0029533057
0.0024164775
0.0018854604
0.0013221856
0.0024884895
0.001516477
0.00086165896
0.00038335205
-5.0929083e-06
-0.00031533094
-0.00056030147
-0.00075423185
-0.00090702835
-0.0010242965
-0.0011079219
-0.0011564724
-0.0011657525
-0.0011295262
-0.0010403677
-0.0008906147
-0.00067339809
-0.00038371014
-1.9455635e-05
0.00041757742
0.00092091532
0.0014789237
0.0020745699
0.0026858346
0.0032865506
0.0038478374
0.0043400267
0.0047349425
0.005008344
0.005142273
0.0051269912
0.0049621657
0.0046570547
0.0042296074
0.0037044462
0.0031104585
0.0024811758
0.0018520093
0.0012145934
0.00052016938
0.0024250347
0.0013428464
0.0006208262
9.843119e-05
-0.00032475918
-0.00066462027
-0.00093776753
-0.0011615697
-0.0013479708
-0.001503634
-0.0016306877
-0.0017272398
-0.0017880256
-0.0018052186
-0.001769364
-0.0016704213
-0.0014989011
-0.0012470633
-0.00091012526
-0.00048742223
1.6581138e-05
0.00059166828
0.0012212531
0.0018827294
0.0025480846
0.0031852738
0.0037602201
0.0042393151
0.0045922151
0.0047946553
0.0048309495
0.0046958075
0.00439512
0.0039454458
0.0033720145
0.0027061383
0.001985988
0.0012533274
0.00049743886
-0.00034084026
0.0021617989
0.00097952721
0.00019567597
-0.00036868587
-0.00082680038
-0.0011985897
-0.0015040947
-0.001763507
-0.0019905011
-0.0021925131
-0.0023716552
-0.0025253363
-0.0026469949
-0.0027269819
-0.0027535586
-0.0027140088
-0.0025958627
-0.0023882105
-0.0020830676
-0.0016767375
-0.0011710741
-0.00057420244
9.8187197e-05
0.00082329973
0.0015714301
0.0023071806
0.0029914473
0.0035841091
0.0040472322
0.0043484771
0.0044643224
0.0043826871
0.0041045352
0.0036440243
0.0030267452
0.0022869752
0.001468753
0.00062187918
-0.00026590088
-0.001264446
0.0016735842
0.00040240064
-0.000437145
-0.0010407731
-0.0015335377
-0.0019392612
-0.0022811925
-0.0025820682
-0.0028570326
-0.00311406
-0.0033550332
-0.003576466
-0.0037703068
-0.0039248726
-0.0040258894
-0.0040576501
-0.0040043008
-0.0038512511
-0.0035866821
-0.0032030859
-0.0026987582
-0.0020793146
-0.0013582856
-0.00055807483
0.00029032995
0.0011482483
0.0019711273
0.0027113175
0.0033216707
0.0037596506
0.0039914991
0.0039959272
0.0037668097
0.0033142863
0.002663518
0.0018519374
0.00093061492
-4.0806094e-05
-0.0010755527
-0.0022550408
0.00093799088
-0.00040986911
-0.0012983706
-0.0019382181
-0.0024651484
-0.0029067344
-0.0032892343
-0.0036376862
-0.0039684939
-0.0042899951
-0.0046036929
-0.0049050702
-0.0051844468
-0.0054279388
-0.0056185117
-0.0057371537
-0.0057641965
-0.0056807962
-0.005470565
-0.0051213005
-0.0046267585
-0.0039885769
-0.0032172639
-0.0023337006
-0.001369326
-0.00036568532
0.00062708736
0.0015529822
0.0023540061
0.0029750272
0.0033690883
0.0035025179
0.0033591179
0.0029426025
0.0022762131
0.0014002148
0.00037369577
-0.00073191243
-0.0019303648
-0.0033159416
-6.4158733e-05
-0.0014754373
-0.0024056646
-0.0030784742
-0.0036389994
-0.0041183908
-0.0045457268
-0.0049481354
-0.0053431253
-0.0057392896
-0.0061376761
-0.0065326768
-0.0069129163
-0.0072622085
-0.0075605862
-0.0077854515
-0.0079128937
-0.0079192081
-0.0077826262
-0.0074852328
-0.0070150321
-0.0063681384
-0.0055506132
-0.004580279
-0.0034877129
-0.0023164196
-0.0011218161
3.121898e-05
0.0010723656
0.0019313684
0.0025446158
0.0028620309
0.0028532922
0.0025121926
0.0018576062
0.00093159956
-0.00019805715
-0.0014460944
-0.002826379
-0.004447658
-0.001348284
-0.0028088176
-0.0037731438
-0.0044755096
-0.0050689891
-0.0055881036
-0.0060645678
-0.0065274241
-0.0069951899
-0.0074766833
-0.0079725063
-0.008475988
-0.0089740786
-0.0094482721
-0.009875575
-0.010229588
-0.010481776
-0.010602978
-0.010565204
-0.01034371
-0.0099193454
-0.0092811047
-0.0084286656
-0.0073748299
-0.0061474274
-0.0047903695
-0.0033634217
-0.0019403003
-0.00060477848
0.00055530763
0.0014559026
0.0020256842
0.0022149202
0.0020025501
0.0013992813
0.00044691773
-0.0007779517
-0.0021741465
-0.0037552034
-0.0056460923
-0.0029254807
-0.0044204252
-0.0054109315
-0.0061393028
-0.0067649391
-0.0073254899
-0.0078551312
-0.0083846855
-0.0089336517
-0.0095111267
-0.010117372