/*--------------------------------*- C++ -*----------------------------------*\
  =========                 |
  \\      /  F ield         | OpenFOAM: The Open Source CFD Toolbox
   \\    /   O peration     | Website:  https://openfoam.org
    \\  /    A nd           | Version:  7
     \\/     M anipulation  |
\*---------------------------------------------------------------------------*/
FoamFile
{
    version     2.0;
    format      ascii;
    class       surfaceScalarField;
    location    "26";
    object      phi;
}
// * * * * * * * * * * * * * * * * * * * * * * * * * * * * * * * * * * * * * //

dimensions      [0 3 -1 0 0 0 0];

internalField   nonuniform List<scalar> 
45600
(
2.7492787e-07
-2.8247903e-07
-8.4890189e-11
4.0321402e-07
-1.2825898e-07
-2.6772894e-11
1.3249486e-07
2.7072661e-07
-7.6385833e-12
-5.6234444e-07
6.9484167e-07
-2.2319695e-12
-1.6393292e-06
1.0769833e-06
3.0306028e-12
-3.0276282e-06
1.3882942e-06
6.5939071e-12
-4.6524622e-06
1.6248251e-06
8.9102411e-12
-6.4450883e-06
1.7926136e-06
1.0527435e-11
-8.3454094e-06
1.9003077e-06
1.1681992e-11
-1.0301422e-05
1.9560009e-06
1.2473028e-11
-1.2267375e-05
1.9659407e-06
1.293938e-11
-1.4201547e-05
1.93416e-06
1.3094113e-11
-1.6064198e-05
1.8626373e-06
1.2948439e-11
-1.7815981e-05
1.7517685e-06
1.2512428e-11
-1.9417003e-05
1.6010087e-06
1.1787479e-11
-2.0826603e-05
1.4095889e-06
1.0767689e-11
-2.2003849e-05
1.1772371e-06
9.4453919e-12
-2.2908707e-05
9.0485282e-07
7.8072559e-12
-2.3503803e-05
5.9509149e-07
5.8508595e-12
-2.3756634e-05
2.5282623e-07
3.5781094e-12
-2.3642074e-05
-1.1456581e-07
1.0347981e-12
-2.3144949e-05
-4.9713006e-07
-1.6708538e-12
-2.2262524e-05
-8.8242291e-07
-4.394469e-12
-2.1006573e-05
-1.2559372e-06
-7.0091307e-12
-1.9404819e-05
-1.6017331e-06
-9.4539662e-12
-1.7501511e-05
-1.9032943e-06
-1.1741016e-11
-1.535693e-05
-2.1445814e-06
-1.3790362e-11
-1.3045733e-05
-2.3112066e-06
-1.532656e-11
-1.0654097e-05
-2.3916283e-06
-1.597088e-11
-8.2758188e-06
-2.3782372e-06
-1.5554995e-11
-6.0075557e-06
-2.2682065e-06
-1.436043e-11
-3.943503e-06
-2.0640294e-06
-1.2899431e-11
-2.1697655e-06
-1.7737749e-06
-1.1289475e-11
-7.5855993e-07
-1.411262e-06
-8.9249695e-12
2.3816019e-07
-9.9671288e-07
-5.2575277e-12
7.9651699e-07
-5.5826707e-07
-1.1749248e-12
9.2931753e-07
-1.3271405e-07
2.6101687e-12
7.0565458e-07
2.2360196e-07
5.343227e-12
2.9050265e-07
4.1496424e-07
7.4961856e-12
2.9037883e-07
1.4887246e-13
1.3276871e-07
-4.1522332e-07
-2.4183096e-11
-3.0179918e-07
3.0632704e-07
-1.5343552e-11
-1.6154842e-06
1.5844265e-06
-1.3278045e-11
-3.8747618e-06
2.9541322e-06
-1.3916488e-11
-7.007371e-06
4.2096057e-06
-1.4967522e-11
-1.0879757e-05
5.2606972e-06
-1.6403138e-11
-1.5335148e-05
6.0802361e-06
-1.7756867e-11
-2.0215965e-05
6.6734501e-06
-1.8752036e-11
-2.5374004e-05
7.058364e-06
-1.9322498e-11
-3.0673199e-05
7.2552111e-06
-1.9446305e-11
-3.5988448e-05
7.2812062e-06
-1.9130712e-11
-4.1202718e-05
7.1484474e-06
-1.8410176e-11
-4.6203843e-05
6.8637811e-06
-1.7318285e-11
-5.0881955e-05
6.4298967e-06
-1.587153e-11
-5.5128073e-05
5.8471394e-06
-1.4075129e-11
-5.8834148e-05
5.1156726e-06
-1.193127e-11
-6.1894623e-05
4.2377167e-06
-9.4355199e-12
-6.4209423e-05
3.2196555e-06
-6.6039344e-12
-6.568817e-05
2.0738411e-06
-3.4396754e-12
-6.6255279e-05
8.1993952e-07
-3.2535843e-14
-6.5855794e-05
-5.1404827e-07
3.4771801e-12
-6.4460625e-05
-1.8923087e-06
6.9940449e-12
-6.2072307e-05
-3.2707658e-06
1.0394216e-11
-5.8728939e-05
-4.5993377e-06
1.3672829e-11
-5.4506947e-05
-5.8237463e-06
1.6819596e-11
-4.952179e-05
-6.8884503e-06
1.9648561e-11
-4.3926289e-05
-7.7400737e-06
2.1785754e-11
-3.7906353e-05
-8.3311599e-06
2.2896631e-11
-3.1674074e-05
-8.6239716e-06
2.3019484e-11
-2.5458373e-05
-8.5940188e-06
2.26042e-11
-1.9493612e-05
-8.2329948e-06
2.2029308e-11
-1.4006712e-05
-7.5508753e-06
2.1007081e-11
-9.2032505e-06
-6.577167e-06
1.8706196e-11
-5.2528624e-06
-5.3616811e-06
1.4819703e-11
-2.273996e-06
-3.9757251e-06
1.0440917e-11
-3.173541e-07
-2.5150261e-06
7.1660295e-12
6.569827e-07
-1.1069656e-06
4.9964002e-12
8.0368914e-07
7.7164375e-08
4.7714623e-12
4.1795384e-07
8.0092724e-07
5.2010444e-12
7.0823343e-07
-3.906158e-12
-2.7363517e-07
-1.4157509e-07
-1.3341945e-11
-1.6275541e-06
1.6602557e-06
-8.1445531e-12
-4.2894653e-06
4.2463501e-06
-9.3698884e-12
-8.274716e-06
6.9393923e-06
-7.8665958e-12
-1.347443e-05
9.4093235e-06
-5.832056e-12
-1.9708705e-05
1.1494974e-05
-4.6967494e-12
-2.6765704e-05
1.3137239e-05
-3.9306795e-12
-3.4426538e-05
1.433429e-05
-3.2918146e-12
-4.2478521e-05
1.5110351e-05
-2.7775465e-12
-5.0720311e-05
1.5497002e-05
-2.3433283e-12
-5.8962127e-05
1.5523022e-05
-1.9290491e-12
-6.7023495e-05
1.5209814e-05
-1.5046262e-12
-7.473031e-05
1.4570597e-05
-1.0662459e-12
-8.1912474e-05
1.3612062e-05
-6.1793676e-13
-8.8402881e-05
1.2337549e-05
-1.6880851e-13
-9.403819e-05
1.0750984e-05
2.6153087e-13
-9.8661495e-05
8.8610211e-06
6.4963511e-13
-0.00010212679
6.6849406e-06
9.8939709e-13
-0.00010430492
4.251962e-06
1.3152479e-12
-0.0001050907
1.6057151e-06
1.6625685e-12
-0.00010441034
-1.1944014e-06
2.0263164e-12
-0.00010222916
-4.0734758e-06
2.314518e-12
-9.8558238e-05
-6.9416869e-06
2.411492e-12
-9.3459744e-05
-9.6978457e-06
2.3105851e-12
-8.7050169e-05
-1.2233351e-05
2.182923e-12
-7.9500814e-05
-1.4437827e-05
2.2612015e-12
-7.1035126e-05
-1.6205746e-05
2.577003e-12
-6.192258e-05
-1.744366e-05
2.8163215e-12
-5.2469012e-05
-1.8077513e-05
2.5772684e-12
-4.3003577e-05
-1.8059492e-05
1.9019711e-12
-3.3862783e-05
-1.7373874e-05
1.4709829e-12
-2.5372238e-05
-1.6041458e-05
1.9724287e-12
-1.7826889e-05
-1.4122441e-05
3.1309289e-12
-1.147036e-05
-1.1718083e-05
3.6983291e-12
-6.4737971e-06
-8.9722722e-06
2.8785704e-12
-2.9140398e-06
-6.0749539e-06
1.5320658e-12
-7.5131567e-07
-3.2699027e-06
1.3583453e-12
1.9428193e-07
-8.6845471e-07
3.5843115e-12
2.6555009e-07
7.2982655e-07
6.5138314e-12
9.7377615e-07
9.2795889e-13
-7.4587179e-07
6.0431038e-07
-1.3430902e-11
-3.1796771e-06
4.0940624e-06
-2.0606475e-12
-7.346143e-06
8.4128248e-06
-7.4551752e-12
-1.3163077e-05
1.2756336e-05
-6.7382961e-12
-2.0455811e-05
1.6702064e-05
-4.0791289e-12
-2.8992596e-05
2.003176e-05
-2.7270765e-12
-3.8513802e-05
2.2658444e-05
-1.814706e-12
-4.8752563e-05
2.4573051e-05
-9.7315238e-13
-5.9446829e-05
2.5804619e-05
-2.7373577e-13
-7.034464e-05
2.6394815e-05
2.7776182e-13
-8.1204895e-05
2.6383277e-05
7.2286198e-13
-9.1795712e-05
2.5800629e-05
1.0946564e-12
-0.00010189211
2.466699e-05
1.409946e-12
-0.0001112743
2.2994246e-05
1.678511e-12
-0.00011972742
2.0790672e-05
1.9084016e-12
-0.00012704322
1.8066789e-05
2.0953585e-12
-0.00013302375
1.4841556e-05
2.2060194e-12
-0.000137487
1.1148186e-05
2.1939527e-12
-0.00014027409
7.0390503e-06
2.0434298e-12
-0.00014125764
2.5892476e-06
1.8075102e-12
-0.00014035037
-2.1016775e-06
1.5908973e-12
-0.000137514
-6.9098455e-06
1.406733e-12
-0.00013276665
-1.1689015e-05
1.1810598e-12
-0.00012618895
-1.6275526e-05
7.5592935e-13
-0.00011792756
-2.0494749e-05
7.61724e-14
-0.00010819563
-2.4169789e-05
-6.4027779e-13
-9.7269652e-05
-2.7131762e-05
-9.9904551e-13
-8.5482233e-05
-2.9231068e-05
-8.2311488e-13
-7.3210785e-05
-3.0348897e-05
-4.6575351e-13
-6.0862109e-05
-3.040811e-05
-5.4666528e-13
-4.885333e-05
-2.9382679e-05
-1.1724071e-12
-3.7589855e-05
-2.730504e-05
-1.5201706e-12
-2.7441331e-05
-2.4271036e-05
-5.9645512e-13
-1.8716705e-05
-2.0442633e-05
1.3886044e-12
-1.1639411e-05
-1.6049391e-05
2.8564224e-12
-6.3235023e-06
-1.139078e-05
2.6862423e-12
-2.7515387e-06
-6.8419832e-06
1.9635267e-12
-7.5722356e-07
-2.862926e-06
2.6873287e-12
-9.5436579e-09
-1.7838666e-08
4.4833129e-12
9.6427623e-07
4.0334137e-12
-1.2279772e-06
1.8323042e-06
-1.4808338e-11
-4.7881275e-06
7.6542076e-06
4.0349196e-12
-1.0521554e-05
1.4146256e-05
-6.5276055e-12
-1.8214324e-05
2.0449114e-05
-7.5807954e-12
-2.7603894e-05
2.6091643e-05
-5.1537118e-12
-3.8396213e-05
3.0824085e-05
-4.4145287e-12
-5.0282927e-05
3.454516e-05
-4.0715022e-12
-6.2954608e-05
3.7244733e-05
-3.5937374e-12
-7.6108815e-05
3.8958827e-05
-3.1039715e-12
-8.9453502e-05
3.9739506e-05
-2.6452214e-12
-0.00010270715
3.9636932e-05
-2.2052401e-12
-0.00011559717
3.8690646e-05
-1.7765843e-12
-0.00012785794
3.6927764e-05
-1.3580215e-12
-0.00013922975
3.4366063e-05
-9.4832207e-13
-0.00014945927
3.1020188e-05
-5.349112e-13
-0.00015830197
2.690949e-05
-9.3444441e-14
-0.00016552672
2.2066303e-05
3.8279554e-13
-0.00017092221
1.6543687e-05
8.5556535e-13
-0.00017430505
1.0421896e-05
1.2482862e-12
-0.00017552882
3.8130108e-06
1.509548e-12
-0.0001744936
-3.1369021e-06
1.6832978e-12
-0.00017115539
-1.0248079e-05
1.8877523e-12
-0.00016553434
-1.731007e-05
2.2189034e-12
-0.00015772147
-2.4088377e-05
2.5897367e-12
-0.00014788278
-3.0333401e-05
2.7362469e-12
-0.00013626022
-3.5792349e-05
2.4716631e-12
-0.00012316864
-4.0223383e-05
1.9888188e-12
-0.00010898847
-4.3411295e-05
1.8178253e-12
-9.4153613e-05
-4.5183763e-05
2.2932233e-12
-7.9134684e-05
-4.5426966e-05
3.0196524e-12
-6.4417893e-05
-4.4099385e-05
3.1156197e-12
-5.0480226e-05
-4.1242718e-05
2.2655506e-12
-3.7762081e-05
-3.6989312e-05
1.4054066e-12
-2.6638842e-05
-3.1565991e-05
1.8100984e-12
-1.739319e-05
-2.5295007e-05
3.3113798e-12
-1.0189871e-05
-1.8593946e-05
4.3181269e-12
-5.0546816e-06
-1.1977109e-05
4.1425845e-12
-1.8598539e-06
-6.0578482e-06
2.7619931e-12
-3.2226238e-07
-1.5554755e-06
-7.3533791e-14
6.4203334e-07
5.8617972e-12
-1.6931705e-06
3.525494e-06
-1.7230577e-11
-6.3714081e-06
1.2332438e-05
9.5445773e-12
-1.3671437e-05
2.1446289e-05
-5.5072696e-12
-2.3234017e-05
3.00117e-05
-7.6705456e-12
-3.4695162e-05
3.7552793e-05
-4.9133203e-12
-4.7689693e-05
4.3818623e-05
-4.3164542e-12
-6.1857342e-05
4.8712815e-05
-4.1824071e-12
-7.6847832e-05
5.2235226e-05
-3.8264672e-12
-9.232358e-05
5.4434576e-05
-3.4258844e-12
-0.00010795993
5.5375855e-05
-3.026977e-12
-0.00012344357
5.5120578e-05
-2.6108438e-12
-0.00013847025
5.3717327e-05
-2.1753491e-12
-0.00015274273
5.1200254e-05
-1.727795e-12
-0.00016597
4.7593339e-05
-1.2846374e-12
-0.00017786816
4.2918355e-05
-8.6061633e-13
-0.00018816345
3.7204773e-05
-4.4427253e-13
-0.00019659727
3.0500121e-05
4.2576178e-15
-0.0002029332
2.2879623e-05
5.1701625e-13
-0.0002069655
1.4454203e-05
1.0612263e-12
-0.00020852866
5.3761779e-06
1.5291929e-12
-0.00020750749
-4.1580639e-06
1.8157704e-12
-0.00020384708
-1.3908507e-05
1.9421457e-12
-0.00019756191
-2.3595266e-05
2.0813822e-12
-0.00018874345
-3.2906846e-05
2.4204981e-12
-0.00017756541
-4.1511419e-05
2.9113219e-12
-0.00016428581
-4.9071906e-05
3.2044591e-12
-0.0001492451
-5.5264073e-05
2.9628018e-12
-0.00013285955
-5.9796883e-05
2.3329625e-12
-0.00011560941
-6.2433984e-05
1.9983112e-12
-9.8021573e-05
-6.3014839e-05
2.506354e-12
-8.0647062e-05
-6.1473821e-05
3.4719441e-12
-6.4034006e-05
-5.7855657e-05
3.7821194e-12
-4.8697301e-05
-5.2325994e-05
2.9409518e-12
-3.5086842e-05
-4.5176567e-05
1.9320293e-12
-2.3556693e-05
-3.6825276e-05
2.1022287e-12
-1.4337875e-05
-2.7812736e-05
3.4943147e-12
-7.5174406e-06
-1.8797434e-05
5.0430718e-12
-3.0267008e-06
-1.054858e-05
3.5919573e-12
-6.4250466e-07
-3.9397159e-06
-2.4370552e-12
-4.8236011e-10
8.077191e-12
-2.1329352e-06
5.6584491e-06
-1.998154e-11
-7.8910609e-06
1.8090553e-05
1.4404818e-11
-1.6717366e-05
3.02726e-05
-4.6886618e-12
-2.8105668e-05
4.1400007e-05
-7.6815064e-12
-4.1584973e-05
5.10321e-05
-4.4605393e-12
-5.6713968e-05
5.8947621e-05
-3.9064743e-12
-7.3078053e-05
6.5076907e-05
-3.8833305e-12
-9.0286802e-05
6.944398e-05
-3.5608363e-12
-0.00010797098
7.2118753e-05
-3.1935737e-12
-0.00012577886
7.3183742e-05
-2.8430859e-12
-0.00014337227
7.2713993e-05
-2.4766527e-12
-0.00016042289
7.0767948e-05
-2.0823595e-12
-0.00017660961
6.7386977e-05
-1.6549807e-12
-0.00019161751
6.2601249e-05
-1.2007348e-12
-0.00020513885
5.6439696e-05
-7.5043584e-13
-0.00021687614
4.8942071e-05
-3.4143158e-13
-0.00022654742
4.0171404e-05
2.5095379e-14
-0.00023389334
3.0225527e-05
4.0571699e-13
-0.00023868577
1.9246634e-05
8.6887346e-13
-0.0002407377
7.4281099e-06
1.4039e-12
-0.00023991365
-4.9820907e-06
1.8763412e-12
-0.00023614032
-1.7681821e-05
2.1226427e-12
-0.0002294168
-3.0318794e-05
2.1084126e-12
-0.00021982354
-4.250014e-05
2.0540416e-12
-0.00020752937
-5.3805622e-05
2.2676483e-12
-0.0001927956
-6.3805662e-05
2.7825301e-12
-0.00017597624
-7.2083378e-05
3.1827374e-12
-0.00015751321
-7.8259866e-05
2.9594244e-12
-0.00013792576
-8.2021462e-05
2.1736301e-12
-0.00011779346
-8.3147238e-05
1.6372274e-12
-9.7732776e-05
-8.1534568e-05
2.1058476e-12
-7.8367974e-05
-7.7220399e-05
3.2238678e-12
-6.0297701e-05
-7.0396145e-05
3.7262049e-12
-4.4059387e-05
-6.1414848e-05
2.9983138e-12
-3.009438e-05
-5.0790382e-05
2.0096857e-12
-1.8717276e-05
-3.9189926e-05
2.4782711e-12
-1.0093042e-05
-2.7421631e-05
4.9094575e-12
-4.2252833e-06
-1.6416284e-05
3.9417819e-12
-9.5847555e-07
-7.206521e-06
-4.8105827e-12
-9.5898681e-07
1.0092657e-11
-2.5450488e-06
8.2035189e-06
-2.2764133e-11
-9.328821e-06
2.4874307e-05
1.8700656e-11
-1.9615305e-05
4.0559092e-05
-4.1519045e-12
-3.2756749e-05
5.454146e-05
-7.8768392e-12
-4.8175735e-05
6.6451089e-05
-4.214949e-12
-6.5353882e-05
7.6125769e-05
-3.742966e-12
-8.3821868e-05
8.3544896e-05
-3.8720559e-12
-0.00010315028
8.8772402e-05
-3.6024249e-12
-0.00012294122
9.1909689e-05
-3.2595263e-12
-0.00014282048
9.3063014e-05
-2.9373565e-12
-0.00016243081
9.2324321e-05
-2.6066638e-12
-0.00018142628
8.9763424e-05
-2.2589126e-12
-0.00019946859
8.5429294e-05
-1.8828224e-12
-0.00021622534
7.9357999e-05
-1.4557117e-12
-0.00023137056
7.1584921e-05
-9.7486897e-13
-0.00024458755
6.2159065e-05
-4.8309795e-13
-0.00025557379
5.1157659e-05
-4.8339604e-14
-0.00026404786
3.8699593e-05
3.0512175e-13
-0.00026975786
2.4956624e-05
6.4386989e-13
-0.00027249129
1.0161531e-05
1.0798659e-12
-0.0002720859
-5.3874846e-06
1.6422213e-12
-0.00026844096
-2.1326738e-05
2.1986285e-12
-0.000261529
-3.7230721e-05
2.4868762e-12
-0.00025140668
-5.2622462e-05
2.4033568e-12
-0.00023822434
-6.6988012e-05
2.1908131e-12
-0.00022223307
-7.9796974e-05
2.2855436e-12
-0.00020378813
-9.0528312e-05
2.8362492e-12
-0.00018334716
-9.8700775e-05
3.3890135e-12
-0.00016146198
-0.00010390658
3.2661059e-12
-0.0001387629
-0.00010584633
2.4229346e-12
-0.00011593509
-0.00010436248
1.7548176e-12
-9.3687382e-05
-9.9468181e-05
2.1588432e-12
-7.2715296e-05
-9.1368185e-05
3.2817553e-12
-5.3660598e-05
-8.046944e-05
3.7392844e-12
-3.7070974e-05
-6.7379987e-05
2.9138572e-12
-2.3363916e-05
-5.2897064e-05
2.4945985e-12
-1.279932e-05
-3.7986272e-05
4.7549347e-12
-5.4648707e-06
-2.3750705e-05
3.6473751e-12
-1.277243e-06
-1.1394113e-05
-7.5549369e-12
-2.2362482e-06
1.2722388e-11
-2.9284721e-06
1.1132016e-05
-2.5454379e-11
-1.0673638e-05
3.2619449e-05
2.2535009e-11
-2.2336102e-05
5.222156e-05
-3.8291711e-12
-3.7135852e-05
6.9341221e-05
-8.1956964e-12
-5.4393927e-05
8.370917e-05
-4.0724671e-12
-7.3517381e-05
9.5249225e-05
-3.6453774e-12
-9.3983984e-05
0.0001040115
-3.9276077e-12
-0.00011532757
0.00011011599
-3.7350573e-12
-0.00013712472
0.00011370684
-3.4308146e-12
-0.000158983
0.00011492131
-3.1290479e-12
-0.00018053118
0.00011387251
-2.8057768e-12
-0.00020141148
0.00011064373
-2.4673697e-12
-0.00022127431
0.00010529212
-2.1255298e-12
-0.00023977541
9.7859101e-05
-1.7613103e-12
-0.00025657557
8.8385075e-05
-1.3314918e-12
-0.00027134262
7.6926122e-05
-8.1505288e-13
-0.00028375572
6.357077e-05
-2.6174343e-13
-0.00029351155
4.8455432e-05
2.2719292e-13
-0.00030033233
3.1777408e-05
5.8984635e-13
-0.00030397548
1.3804665e-05
8.8531095e-13
-0.00030424472
-5.1182659e-06
1.2689724e-12
-0.00030100215
-2.4569311e-05
1.8660286e-12
-0.00029418172
-4.4051125e-05
2.5158724e-12
-0.00028380248
-6.3001664e-05
2.8887015e-12
-0.00026998148
-8.0809003e-05
2.7795471e-12
-0.00025294483
-9.6833665e-05
2.420522e-12
-0.00023303543
-0.00011043778
2.3669561e-12
-0.00021071551
-0.00012102071
2.89932e-12
-0.00018656222
-0.0001280598
3.5570639e-12
-0.00016125442
-0.00013115406
3.5330381e-12
-0.00013554963
-0.00013006727
2.7062239e-12
-0.00011025124
-0.00012476666
2.0247712e-12
-8.6167237e-05
-0.00011545226
2.4128976e-12
-6.4063611e-05
-0.00010257303
3.3537076e-12
-4.4616548e-05
-8.682697e-05
3.4039686e-12
-2.8368454e-05
-6.9145158e-05
3.10014e-12
-1.5693134e-05
-5.0661647e-05
5.1981251e-12
-6.7752225e-06
-3.2668638e-05
3.2943999e-12
-1.6070309e-06
-1.6562277e-05
-1.0695143e-11
-3.8432864e-06
1.5352124e-11
-3.281687e-06
1.4413733e-05
-2.7997098e-11
-1.1915828e-05
4.1253562e-05
2.5984798e-11
-2.4855427e-05
6.5161159e-05
-3.6389309e-12
-4.1199778e-05
8.5685581e-05
-8.6035399e-12
-6.0176104e-05
0.0001026855
-4.0218253e-12
-8.1121972e-05
0.0001161951
-3.5865731e-12
-0.00010346595
0.00012635549
-3.9762015e-12
-0.00012670846
0.0001333585
-3.8553484e-12
-0.00015040415
0.00013740253
-3.6094033e-12
-0.00017414656
0.00013866373
-3.353083e-12
-0.0001975553
0.00013728125
-3.0496413e-12
-0.00022026597
0.00013335442
-2.7008288e-12
-0.00024192312
0.00012694927
-2.3396967e-12
-0.00026217586
0.00011811184
-1.9918453e-12
-0.00028067631
0.00010688552
-1.6373046e-12
-0.00029708041
9.3330219e-05
-1.2104325e-12
-0.00031105104
7.7541401e-05
-6.6298043e-13
-0.00032226321
5.9667613e-05
-3.918057e-14
-0.00033041126
3.9925473e-05
5.2577938e-13
-0.00033521803
1.8611443e-05
9.0501379e-13
-0.0003364462
-3.8901053e-06
1.124434e-12
-0.00033391084
-2.7104702e-05
1.4734268e-12
-0.00032749512
-5.0466865e-05
2.0613636e-12
-0.00031716607
-7.3330693e-05
2.7909909e-12
-0.00030299152
-9.4983505e-05
3.2673587e-12
-0.00028515609
-0.00011466907
3.1695261e-12
-0.00026397452
-0.00013161939
2.6950473e-12
-0.00023990006
-0.00014509524
2.491285e-12
-0.00021352536
-0.00015443453
2.9526253e-12
-0.00018557336
-0.000159106
3.6254883e-12
-0.00015687619
-0.00015876436
3.6402948e-12
-0.00012834132
-0.00015330154
2.883954e-12
-0.00010090586
-0.0001428878
2.3308303e-12
-7.5482345e-05
-0.00012799659
2.6575914e-12
-5.2901041e-05
-0.00010940824
3.0531607e-12
-3.3855026e-05
-8.8191124e-05
3.4327698e-12
-1.8854738e-05
-6.5661943e-05
6.0603852e-12
-8.1982549e-06
-4.3325151e-05
3.2811712e-12
-1.9611658e-06
-2.2799359e-05
-1.4070644e-11
-5.804462e-06
1.7984546e-11
-3.6022894e-06
1.8016054e-05
-3.0381921e-11
-1.3044825e-05
5.069607e-05
2.9055611e-11
-2.7149194e-05
7.926553e-05
-3.5204167e-12
-4.4907015e-05
0.00010344341
-9.0525283e-12
-6.5461281e-05
0.00012323977
-4.075976e-12
-8.8086933e-05
0.00013882076
-3.6212225e-12
-0.00011216843
0.00015043699
-4.0730275e-12
-0.00013717696
0.00015836704
-3.9874388e-12
-0.00016264935
0.00016287492
-3.7862476e-12
-0.00018816932
0.0001641837
-3.588871e-12
-0.00021335196
0.00016246389
-3.3434321e-12
-0.00023783128
0.00015783374
-3.0242775e-12
-0.0002612511
0.0001503691
-2.6422111e-12
-0.00028325897
0.00014011972
-2.2436717e-12
-0.00030350292
0.00012712948
-1.8760281e-12
-0.00032163072
0.00011145802
-1.5268786e-12
-0.00033729148
9.3202153e-05
-1.1095143e-12
-0.00035013941
7.2515533e-05
-5.3871812e-13
-0.00035983981
4.9625883e-05
1.5899581e-13
-0.00036607745
2.4849096e-05
8.0079478e-13
-0.00036856799
-1.3995464e-06
1.1689489e-12
-0.00036707039
-2.8602312e-05
1.4491131e-12
-0.00036140546
-5.6131831e-05
1.7096968e-12
-0.00035147373
-8.3262457e-05
2.2502781e-12
-0.00033727702
-0.0001091802
3.029766e-12
-0.00031894014
-0.0001330059
3.5980826e-12
-0.00029673102
-0.00015382847
3.533496e-12
-0.00027107662
-0.00017074967
2.9927892e-12
-0.00024257109
-0.00018294014
2.6780501e-12
-0.00021197283
-0.0001897043
3.0439316e-12
-0.0001801872
-0.00019054994
3.6387057e-12
-0.00014823296
-0.00018525571
3.6320141e-12
-0.00011719248
-0.00017392828
3.0173197e-12
-8.8148776e-05
-0.00015704036
2.5740584e-12
-6.2115275e-05
-0.00013544177
2.4801697e-12
-3.9966409e-05
-0.00011033996
3.2204512e-12
-2.2377554e-05
-8.3250776e-05
6.8362662e-12
-9.782667e-06
-5.5920044e-05
3.4993345e-12
-2.3546949e-06
-3.0227325e-05
-1.7604816e-11
-8.1591782e-06
2.0913462e-11
-3.887037e-06
2.1903123e-05
-3.258497e-11
-1.404861e-05
6.0857614e-05
3.1699493e-11
-2.9191951e-05
9.4408877e-05
-3.4659149e-12
-4.8215099e-05
0.00012246656
-9.4925649e-12
-7.0187606e-05
0.00014521228
-4.1898906e-12
-9.4329747e-05
0.0001629629
-3.7444319e-12
-0.00011998782
0.00017609506
-4.2540765e-12
-0.0001466086
0.00018498783
-4.1797078e-12
-0.00017371533
0.00018998164
-3.9887042e-12
-0.00020088622
0.00019135461
-3.8203306e-12
-0.00022773638
0.00018931405
-3.6314736e-12
-0.00025390304
0.0001840004
-3.3874466e-12
-0.00027903437
0.00017550043
-3.0552233e-12
-0.00030278144
0.0001638668
-2.6344328e-12
-0.00032479304
0.00014914109
-2.184441e-12
-0.00034471308
0.00013137807
-1.7803283e-12
-0.00036218027
0.00011066934
-1.4268846e-12
-0.00037683014
8.7165386e-05
-1.0235117e-12
-0.00038829942
6.1095152e-05
-4.4309475e-13
-0.00039623328
3.2782959e-05
3.3189459e-13
-0.0004002954
2.6625884e-06
1.1368872e-12
-0.0004001829
-2.8714784e-05
1.6098864e-12
-0.0003956431
-6.0671633e-05
1.8140259e-12
-0.00038649646
-9.240914e-05
1.9894724e-12
-0.00037266179
-0.00012301491
2.4705868e-12
-0.00035418419
-0.0001514835
3.2558656e-12
-0.00033126306
-0.00017674955
3.8709438e-12
-0.00030427714
-0.00019773554
3.8298202e-12
-0.00027380238
-0.00021341492
3.2641241e-12
-0.0002406178
-0.00022288895
2.8885078e-12
-0.00020569478
-0.000225473
3.1450592e-12
-0.00017016603
-0.00022078442
3.600595e-12
-0.00013527287
-0.00020882139
3.5803311e-12
-0.0001022931
-0.00019002014
3.0417127e-12
-7.2455793e-05
-0.00016527912
2.3102556e-12
-4.6853211e-05
-0.00013594257
2.8577725e-12
-2.636131e-05
-0.00010374267
7.3786785e-12
-1.1580413e-05
-7.070093e-05
3.6601181e-12
-2.803307e-06
-3.9004411e-05
-2.1484321e-11
-1.0962514e-05
2.4356227e-11
-4.1321031e-06
2.6035259e-05
-3.4540333e-11
-1.4914046e-05
7.1639524e-05
3.3882642e-11
-3.0957026e-05
0.00011045186
-3.5024465e-12
-5.1080485e-05
0.00014259003
-9.921998e-12
-7.4292031e-05
0.00016842383
-4.3265528e-12
-9.9765806e-05
0.00018843668
-3.9068064e-12
-0.00012681629
0.00020314555
-4.4936537e-12
-0.00015487083
0.00021304237
-4.4458648e-12
-0.00018344338
0.0002185542
-4.2598468e-12
-0.00021211086
0.0002200221
-4.0876906e-12
-0.00024049274
0.00021769592
-3.9061006e-12
-0.00026823416
0.00021174183
-3.7122744e-12
-0.00029499269
0.00020225896
-3.4738604e-12
-0.00032042818
0.00018930228
-3.1322124e-12
-0.00034419549
0.0001729084
-2.6710562e-12
-0.00036593979
0.00015312238
-2.1582527e-12
-0.00038529407
0.00013002363
-1.699301e-12
-0.00040187902
0.00010375033
-1.3278137e-12
-0.00041530544
7.4521561e-05
-9.379465e-13
-0.00042517978
4.2657279e-05
-3.4203534e-13
-0.00043111299
8.5957917e-06
5.3354117e-13
-0.00043273526
-2.7092499e-05
1.3504285e-12
-0.00042971321
-6.3693651e-05
1.9472406e-12
-0.00042177525
-0.00010034709
2.1899152e-12
-0.00040874085
-0.00013604935
2.324497e-12
-0.00039055458
-0.00016966982
2.744031e-12
-0.00036732276
-0.00019998138
3.4896532e-12
-0.0003393491
-0.00022570916
4.0848861e-12
-0.00030716472
-0.00024559926
4.0311068e-12
-0.00027154627
-0.00025850742
3.4613148e-12
-0.00023351555
-0.00026350378
3.0567793e-12
-0.00019431461
-0.00025998539
3.2039731e-12
-0.0001553526
-0.00024778337
3.5378937e-12
-0.00011812502
-0.0002272477
3.3984874e-12
-8.4111655e-05
-0.00019929249
2.4826302e-12
-5.4665379e-05
-0.00016538887
2.7389418e-12
-3.0907287e-05
-0.00012750077
7.9414266e-12
-1.3644671e-05
-8.796354e-05
3.672593e-12
-3.3229825e-06
-4.9326065e-05
-2.5997327e-11
-1.4285527e-05
2.8394033e-11
-4.3334394e-06
3.0368735e-05
-3.6177546e-11
-1.5627744e-05
8.2933791e-05
3.5615286e-11
-3.2417808e-05
0.00012724193
-3.6287746e-12
-5.346014e-05
0.00016363238
-1.0363128e-11
-7.771222e-05
0.00019267592
-4.4992618e-12
-0.00010431069
0.00021503515
-4.0850854e-12
-0.00013254452
0.00023137939
-4.7440387e-12
-0.00016182646
0.00024232432
-4.7443924e-12
-0.00019166533
0.00024839307
-4.5936483e-12
-0.00022164062
0.0002499974
-4.4335388e-12
-0.00025138028
0.00024743559
-4.2330213e-12
-0.00028054189
0.00024090345
-4.0205163e-12
-0.00030879741
0.00023051448
-3.8189873e-12
-0.00033582093
0.0002163258
-3.5860013e-12
-0.00036127929
0.00019836676
-3.2390858e-12
-0.00038482504
0.00017666812
-2.7402229e-12
-0.00040609161
0.00015129022
-2.1579418e-12
-0.00042469082
0.00012234955
-1.6279877e-12
-0.00044021288
9.004362e-05
-1.2183191e-12
-0.00045222968
5.4674068e-05
-8.201184e-13
-0.00046030208
1.6668168e-05
-2.1932327e-13
-0.00046399264
-2.3401951e-05
6.2510174e-13
-0.00046288357
-6.4802707e-05
1.5777854e-12
-0.0004566025
-0.00010662812
2.2852958e-12
-0.00044485521
-0.00014779663
2.5806491e-12
-0.00042746531
-0.00018705975
2.706046e-12
-0.00040441947
-0.00022302727
3.070479e-12
-0.00037591492
-0.00025421372
3.7319681e-12
-0.00034240394
-0.00027911021
4.2336604e-12
-0.00030462803
-0.00029628329
4.1194467e-12
-0.00026363287
-0.00030449895
3.545133e-12
-0.00022075472
-0.00030286359
3.1390118e-12
-0.00017757131
-0.0002909668
3.2290506e-12
-0.00013581476
-0.00026900423
3.312537e-12
-9.725174e-05
-0.00023785548
2.5421409e-12
-6.3544715e-05
-0.0001990959
2.8184659e-12
-3.6114626e-05
-0.00015493089
8.7827364e-12
-1.6028532e-05
-0.00010804964
3.6795371e-12
-3.9298282e-06
-6.1424732e-05
-3.1317215e-11
-1.8215385e-05
3.3075467e-11
-4.487209e-06
3.4855983e-05
-3.7466726e-11
-1.6177275e-05
9.462382e-05
3.6910581e-11
-3.3549802e-05
0.00014461446
-3.7983772e-12
-5.5314396e-05
0.00018539698
-1.0802948e-11
-8.0390139e-05
0.00021775167
-4.733331e-12
-0.0001078845
0.00024252952
-4.3032487e-12
-0.00013706687
0.00026056177
-4.9983713e-12
-0.00016733982
0.00027259727
-5.0327948e-12
-0.00019821067
0.00027926393
-4.9312388e-12
-0.00022926502
0.00028105175
-4.8245924e-12
-0.00026014302
0.00027831359
-4.6452618e-12
-0.00029051895
0.00027127939
-4.4008936e-12
-0.00032008406
0.0002600796
-4.151263e-12
-0.00034853236
0.00024477411
-3.9317881e-12
-0.00037554909
0.00022538348
-3.6987139e-12
-0.00040080132
0.00020192034
-3.3490383e-12
-0.00042393072
0.00017441961
-2.817423e-12
-0.0004445484
0.00014296725
-2.1646709e-12
-0.0004622323
0.00010772754
-1.5493453e-12
-0.0004765277
6.8969481e-05
-1.0738634e-12
-0.00048695197
2.7092419e-05
-6.5107955e-13
-0.00049300475
-1.7349194e-05
-6.6938542e-14
-0.00049418477
-6.3622703e-05
8.2068989e-13
-0.00049001498
-0.0001107979
1.8434482e-12
-0.00048007691
-0.00015773467
2.6304888e-12
-0.00046405486
-0.00020308179
2.9840663e-12
-0.000441789
-0.00024529315
3.1201865e-12
-0.00041333506
-0.0002826677
3.427505e-12
-0.00037902533
-0.00031341996
3.9559195e-12
-0.00033952276
-0.00033578584
4.2905588e-12
-0.000295857
-0.00034816468
4.0671127e-12
-0.00024942936
-0.00034929124
3.500973e-12
-0.00020197463
-0.00033842157
3.1632991e-12
-0.00015547258
-0.0003155063
3.0333477e-12
-0.00011201139
-0.00028131665
2.267231e-12
-7.361736e-05
-0.00023748992
2.8004475e-12
-4.2076926e-05
-0.00018647133
9.8878902e-12
-1.8783971e-05
-0.00013134261
3.8137076e-12
-4.6400037e-06
-7.5568663e-05
-3.7496098e-11
-2.2855425e-05
3.8513303e-11
-4.5902704e-06
3.9446293e-05
-3.8409532e-11
-1.6552644e-05
0.00010658616
3.7741265e-11
-3.4333258e-05
0.00016239508
-3.9708519e-12
-5.661074e-05
0.00020767448
-1.1190205e-11
-8.2276974e-05
0.00024341791
-5.0127793e-12
-0.00011041791
0.00027067046
-4.5824591e-12
-0.00014028857
0.00029043244
-5.2903038e-12
-0.00017128509
0.0003035938
-5.3248213e-12
-0.0002029164
0.00031089524
-5.2401863e-12
-0.00023477714
0.00031291249
-5.1851242e-12
-0.00026652298
0.00031005943
-5.0748247e-12
-0.0002978488
0.00030260521
-4.8637446e-12
-0.0003284699
0.00029070071
-4.5732363e-12
-0.00035810598
0.00027441019
-4.2743025e-12
-0.00038646747
0.00025374498
-4.0208004e-12
-0.00041324406
0.00022869692
-3.7761658e-12
-0.00043809486
0.00019927041
-3.4209214e-12
-0.00046064071
0.00016551308
-2.8603299e-12
-0.00048045849
0.00012754533
-2.1393571e-12
-0.00049707863
8.5589632e-05
-1.4304717e-12
-0.00050998636
4.0000165e-05
-8.7287385e-13
-0.00051862856
-8.7070008e-06
-4.0597113e-13
-0.00052242754
-5.9823749e-05
2.0157165e-13
-0.00052080385
-0.00011242161
1.1131262e-12
-0.00051321014
-0.00016532837
2.1731006e-12
-0.00049917747
-0.00021711443
3.0074409e-12
-0.00047837477
-0.00026609584
3.4038765e-12
-0.00045067992
-0.00031036257
3.5468694e-12
-0.0004162583
-0.00034784161
3.7728549e-12
-0.00037564031
-0.00037640384
4.1055869e-12
-0.00032978482
-0.00039402015
4.2027749e-12
-0.00028011146
-0.00039896458
3.8644683e-12
-0.00022848337
-0.00039004968
3.3858265e-12
-0.00017712589
-0.0003668638
2.9051096e-12
-0.00012847745
-0.0003299651
1.8226118e-12
-8.4985446e-05
-0.00028098193
2.5465882e-12
-4.8878556e-05
-0.00022257822
1.1095281e-11
-2.1960786e-05
-0.00015826038
4.0452722e-12
-5.4696691e-06
-9.2059738e-05
-4.4602891e-11
-2.8325139e-05
4.4871876e-11
-4.640709e-06
4.4087041e-05
-3.8997101e-11
-1.6747948e-05
0.00011869336
3.8062309e-11
-3.4756231e-05
0.00018040337
-4.1546484e-12
-5.7328332e-05
0.00023024659
-1.1491763e-11
-8.3339077e-05
0.00026942866
-5.2919998e-12
-0.00011185947
0.00029919085
-4.8982551e-12
-0.00014213444
0.00032070741
-5.6331113e-12
-0.00017355665
0.00033501602
-5.6636252e-12
-0.00020563901
0.00034297761
-5.5591794e-12
-0.00023798761
0.0003452611
-5.500461e-12
-0.00027027647
0.00034234829
-5.4347759e-12
-0.00030222461
0.00033455336
-5.3031094e-12
-0.00033357591
0.00032205201
-5.058888e-12
-0.00036408141
0.0003049157
-4.7144816e-12
-0.00039348391
0.00028314749
-4.3510529e-12
-0.0004215043
0.00025671732
-4.0440199e-12
-0.00044782961
0.00022559571
-3.7696053e-12
-0.00047210251
0.00018978597
-3.397711e-12
-0.00049391282
0.00014935563
-2.8065963e-12
-0.00051279136
0.00010446818
-2.0206985e-12
-0.00052820736
5.5416181e-05
-1.2189127e-12
-0.00053957067
2.6563342e-06
-5.6459305e-13
-0.00054624112
-5.3153305e-05
-3.7617621e-14
-0.00054754672
-0.00011111603
6.1129566e-13
-0.00054281433
-0.00017006078
1.5413586e-12
-0.00053141515
-0.0002285136
2.6038879e-12
-0.0005128274
-0.00028468356
3.4391625e-12
-0.00048671675
-0.00033647321
3.8407065e-12
-0.00045303188
-0.0003815265
3.954601e-12
-0.00041210771
-0.00041732804
4.0386188e-12
-0.00036476227
-0.0004413656
4.0957311e-12
-0.00031236639
-0.00045136044
3.9401941e-12
-0.00025686045
-0.00044555561
3.5820037e-12
-0.00020069352
-0.00042303073
2.9322962e-12
-0.00014667093
-0.0003839877
1.4125076e-12
-9.7717266e-05
-0.00032993559
2.1578086e-12
-5.6590248e-05
-0.00026370525
1.2350816e-11
-2.5605286e-05
-0.00018924534
4.2754173e-12