/*--------------------------------*- C++ -*----------------------------------*\
  =========                 |
  \\      /  F ield         | OpenFOAM: The Open Source CFD Toolbox
   \\    /   O peration     | Website:  https://openfoam.org
    \\  /    A nd           | Version:  7
     \\/     M anipulation  |
\*---------------------------------------------------------------------------*/
FoamFile
{
    version     2.0;
    format      ascii;
    class       surfaceScalarField;
    location    "26";
    object      phi_0;
}
// * * * * * * * * * * * * * * * * * * * * * * * * * * * * * * * * * * * * * //

dimensions      [0 3 -1 0 0 0 0];

internalField   nonuniform List<scalar> 
45600
(
2.7492746e-07
-2.8247956e-07
-8.4846714e-11
4.032136e-07
-1.2825887e-07
-2.6772894e-11
1.3249494e-07
2.7072695e-07
-7.6385833e-12
-5.6234363e-07
6.9484149e-07
-2.2319695e-12
-1.6393285e-06
1.0769825e-06
3.0306028e-12
-3.0276282e-06
1.3882936e-06
6.5939071e-12
-4.6524627e-06
1.6248256e-06
8.9102411e-12
-6.4450882e-06
1.7926147e-06
1.0527435e-11
-8.3454084e-06
1.9003081e-06
1.1681992e-11
-1.0301421e-05
1.9560001e-06
1.2473028e-11
-1.2267374e-05
1.9659395e-06
1.293938e-11
-1.4201547e-05
1.9341592e-06
1.3094113e-11
-1.6064198e-05
1.8626373e-06
1.2948439e-11
-1.7815981e-05
1.751769e-06
1.2512428e-11
-1.9417002e-05
1.601009e-06
1.1787479e-11
-2.0826602e-05
1.4095883e-06
1.0767689e-11
-2.2003848e-05
1.1772354e-06
9.4453919e-12
-2.2908707e-05
9.0485042e-07
7.8072559e-12
-2.3503803e-05
5.950899e-07
5.8508596e-12
-2.3756635e-05
2.5282707e-07
3.5781094e-12
-2.3642075e-05
-1.1456262e-07
1.0347981e-12
-2.3144948e-05
-4.9712749e-07
-1.6708538e-12
-2.2262521e-05
-8.8242485e-07
-4.394469e-12
-2.100657e-05
-1.2559443e-06
-7.0091307e-12
-1.9404821e-05
-1.60174e-06
-9.4539662e-12
-1.7501518e-05
-1.9032928e-06
-1.1741016e-11
-1.5356938e-05
-2.1445693e-06
-1.3790362e-11
-1.3045731e-05
-2.3111941e-06
-1.532656e-11
-1.0654085e-05
-2.3916315e-06
-1.597088e-11
-8.2758073e-06
-2.3782595e-06
-1.5554995e-11
-6.0075616e-06
-2.2682277e-06
-1.436043e-11
-3.9435265e-06
-2.0640218e-06
-1.2899431e-11
-2.1697823e-06
-1.7737379e-06
-1.1289475e-11
-7.5854427e-07
-1.4112347e-06
-8.9249695e-12
2.3819825e-07
-9.9673589e-07
-5.2575277e-12
7.9653423e-07
-5.5832569e-07
-1.1749249e-12
9.2927517e-07
-1.3273715e-07
2.6101687e-12
7.0558083e-07
2.2368158e-07
5.343227e-12
2.9045833e-07
4.1509519e-07
7.4961855e-12
2.9044417e-07
1.4887246e-13
1.3276893e-07
-4.1522384e-07
-2.4183096e-11
-3.0179956e-07
3.0632657e-07
-1.5343552e-11
-1.6154849e-06
1.5844269e-06
-1.3278045e-11
-3.8747618e-06
2.9541331e-06
-1.3916488e-11
-7.0073699e-06
4.2096059e-06
-1.4967522e-11
-1.0879756e-05
5.2606963e-06
-1.6403138e-11
-1.5335148e-05
6.0802353e-06
-1.7756867e-11
-2.0215966e-05
6.6734505e-06
-1.8752036e-11
-2.5374005e-05
7.0583652e-06
-1.9322498e-11
-3.0673198e-05
7.2552119e-06
-1.9446305e-11
-3.5988447e-05
7.2812059e-06
-1.9130712e-11
-4.1202717e-05
7.1484463e-06
-1.8410176e-11
-4.6203843e-05
6.8637798e-06
-1.7318285e-11
-5.0881955e-05
6.429896e-06
-1.587153e-11
-5.5128073e-05
5.8471396e-06
-1.4075129e-11
-5.8834148e-05
5.1156734e-06
-1.193127e-11
-6.1894622e-05
4.2377173e-06
-9.4355199e-12
-6.4209421e-05
3.2196543e-06
-6.6039344e-12
-6.5688168e-05
2.0738377e-06
-3.4396754e-12
-6.6255278e-05
8.1993555e-07
-3.2535843e-14
-6.5855796e-05
-5.1404932e-07
3.4771801e-12
-6.4460629e-05
-1.8923047e-06
6.9940449e-12
-6.2072308e-05
-3.2707596e-06
1.0394216e-11
-5.8728934e-05
-4.5993363e-06
1.3672829e-11
-5.4506939e-05
-5.8237547e-06
1.6819596e-11
-4.9521787e-05
-6.8884639e-06
1.9648561e-11
-4.3926298e-05
-7.7400786e-06
2.1785754e-11
-3.7906369e-05
-8.3311461e-06
2.2896631e-11
-3.167408e-05
-8.6239483e-06
2.3019484e-11
-2.5458356e-05
-8.5940123e-06
2.26042e-11
-1.9493585e-05
-8.2330207e-06
2.2029308e-11
-1.4006707e-05
-7.5509124e-06
2.1007081e-11
-9.203285e-06
-6.5771699e-06
1.8706196e-11
-5.2529035e-06
-5.3616334e-06
1.4819703e-11
-2.2739883e-06
-3.9756752e-06
1.0440917e-11
-3.1728617e-07
-2.5150452e-06
7.1660294e-12
6.5704296e-07
-1.1070612e-06
4.9964002e-12
8.0366233e-07
7.7084056e-08
4.7714623e-12
4.178497e-07
8.0092737e-07
5.2010444e-12
7.0828753e-07
-3.906158e-12
-2.7363476e-07
-1.4157506e-07
-1.3341945e-11
-1.6275536e-06
1.660255e-06
-8.1445531e-12
-4.2894656e-06
4.2463496e-06
-9.3698884e-12
-8.2747167e-06
6.9393929e-06
-7.8665958e-12
-1.347443e-05
9.4093247e-06
-5.832056e-12
-1.9708703e-05
1.1494975e-05
-4.6967494e-12
-2.6765703e-05
1.3137238e-05
-3.9306795e-12
-3.4426538e-05
1.4334289e-05
-3.2918146e-12
-4.2478522e-05
1.5110351e-05
-2.7775465e-12
-5.0720311e-05
1.5497003e-05
-2.3433283e-12
-5.8962127e-05
1.5523022e-05
-1.9290491e-12
-6.7023494e-05
1.5209814e-05
-1.5046262e-12
-7.4730309e-05
1.4570596e-05
-1.0662459e-12
-8.1912473e-05
1.361206e-05
-6.1793676e-13
-8.840288e-05
1.2337547e-05
-1.6880851e-13
-9.403819e-05
1.0750983e-05
2.6153087e-13
-9.8661496e-05
8.8610219e-06
6.4963511e-13
-0.00010212679
6.6849423e-06
9.8939709e-13
-0.00010430491
4.2519621e-06
1.3152479e-12
-0.00010509069
1.6057116e-06
1.6625685e-12
-0.00010441034
-1.1944076e-06
2.0263164e-12
-0.00010222916
-4.0734797e-06
2.314518e-12
-9.8558244e-05
-6.9416834e-06
2.411492e-12
-9.3459749e-05
-9.6978357e-06
2.3105851e-12
-8.7050165e-05
-1.2233344e-05
2.182923e-12
-7.95008e-05
-1.4437834e-05
2.2612015e-12
-7.1035115e-05
-1.6205766e-05
2.577003e-12
-6.1922587e-05
-1.7443673e-05
2.8163215e-12
-5.2469035e-05
-1.80775e-05
2.5772684e-12
-4.3003593e-05
-1.8059459e-05
1.9019711e-12
-3.3862765e-05
-1.7373856e-05
1.4709829e-12
-2.5372198e-05
-1.6041484e-05
1.9724287e-12
-1.7826873e-05
-1.4122492e-05
3.1309289e-12
-1.14704e-05
-1.1718099e-05
3.6983291e-12
-6.4738594e-06
-8.9722171e-06
2.8785704e-12
-2.9140464e-06
-6.0748735e-06
1.5320657e-12
-7.5124509e-07
-3.2698829e-06
1.3583453e-12
1.9433988e-07
-8.6851155e-07
3.5843115e-12
2.655035e-07
7.2977191e-07
6.5138314e-12
9.7378801e-07
9.2795889e-13
-7.4587195e-07
6.043111e-07
-1.3430902e-11
-3.1796763e-06
4.0940624e-06
-2.0606475e-12
-7.346142e-06
8.4128238e-06
-7.4551752e-12
-1.3163077e-05
1.2756335e-05
-6.7382961e-12
-2.0455812e-05
1.6702064e-05
-4.0791289e-12
-2.8992596e-05
2.0031761e-05
-2.7270765e-12
-3.8513801e-05
2.2658444e-05
-1.814706e-12
-4.8752562e-05
2.457305e-05
-9.7315238e-13
-5.9446828e-05
2.5804617e-05
-2.7373577e-13
-7.034464e-05
2.6394814e-05
2.7776182e-13
-8.1204895e-05
2.6383277e-05
7.2286198e-13
-9.1795711e-05
2.5800629e-05
1.0946564e-12
-0.00010189211
2.466699e-05
1.409946e-12
-0.00011127429
2.2994245e-05
1.678511e-12
-0.00011972742
2.0790669e-05
1.9084016e-12
-0.00012704322
1.8066786e-05
2.0953585e-12
-0.00013302375
1.4841554e-05
2.2060194e-12
-0.000137487
1.1148186e-05
2.1939527e-12
-0.00014027409
7.0390533e-06
2.0434298e-12
-0.00014125763
2.5892501e-06
1.8075102e-12
-0.00014035036
-2.10168e-06
1.5908973e-12
-0.00013751399
-6.9098536e-06
1.406733e-12
-0.00013276665
-1.1689023e-05
1.1810598e-12
-0.00012618896
-1.6275525e-05
7.5592935e-13
-0.00011792757
-2.0494735e-05
7.61724e-14
-0.00010819563
-2.4169775e-05
-6.4027779e-13
-9.7269635e-05
-2.7131765e-05
-9.9904551e-13
-8.5482214e-05
-2.9231092e-05
-8.2311488e-13
-7.3210788e-05
-3.034892e-05
-4.6575351e-13
-6.0862139e-05
-3.0408102e-05
-5.4666528e-13
-4.8853357e-05
-2.9382638e-05
-1.1724071e-12
-3.758984e-05
-2.7305007e-05
-1.5201706e-12
-2.7441279e-05
-2.4271057e-05
-5.9645512e-13
-1.8716674e-05
-2.0442699e-05
1.3886044e-12
-1.1639449e-05
-1.6049432e-05
2.8564224e-12
-6.3235699e-06
-1.1390748e-05
2.6862423e-12
-2.7515444e-06
-6.8419186e-06
1.9635267e-12
-7.57163e-07
-2.8629086e-06
2.6873287e-12
-9.5239838e-09
-1.78664e-08
4.4833129e-12
9.6426205e-07
4.0334138e-12
-1.227978e-06
1.8323048e-06
-1.4808338e-11
-4.7881275e-06
7.6542087e-06
4.0349196e-12
-1.0521553e-05
1.4146256e-05
-6.5276055e-12
-1.8214322e-05
2.0449113e-05
-7.5807954e-12
-2.7603894e-05
2.6091642e-05
-5.1537118e-12
-3.8396214e-05
3.0824085e-05
-4.4145287e-12
-5.0282927e-05
3.4545161e-05
-4.0715022e-12
-6.2954607e-05
3.7244733e-05
-3.5937374e-12
-7.6108813e-05
3.8958826e-05
-3.1039715e-12
-8.9453501e-05
3.9739505e-05
-2.6452214e-12
-0.00010270715
3.9636931e-05
-2.2052401e-12
-0.00011559717
3.8690645e-05
-1.7765843e-12
-0.00012785794
3.6927764e-05
-1.3580215e-12
-0.00013922975
3.4366064e-05
-9.4832207e-13
-0.00014945927
3.1020188e-05
-5.349112e-13
-0.00015830197
2.6909488e-05
-9.3444441e-14
-0.00016552672
2.2066299e-05
3.8279554e-13
-0.00017092221
1.6543683e-05
8.5556535e-13
-0.00017430505
1.0421896e-05
1.2482862e-12
-0.00017552882
3.8130151e-06
1.509548e-12
-0.0001744936
-3.1368962e-06
1.6832978e-12
-0.00017115538
-1.0248078e-05
1.8877523e-12
-0.00016553433
-1.7310079e-05
2.2189034e-12
-0.00015772146
-2.408839e-05
2.5897367e-12
-0.00014788279
-3.0333404e-05
2.7362469e-12
-0.00013626024
-3.5792334e-05
2.4716631e-12
-0.00012316865
-4.022336e-05
1.9888188e-12
-0.00010898845
-4.3411291e-05
1.8178253e-12
-9.4153584e-05
-4.518379e-05
2.2932233e-12
-7.9134681e-05
-4.5427002e-05
3.0196524e-12
-6.4417928e-05
-4.4099386e-05
3.1156197e-12
-5.0480266e-05
-4.1242671e-05
2.2655506e-12
-3.7762072e-05
-3.6989261e-05
1.4054066e-12
-2.6638786e-05
-3.1565996e-05
1.8100984e-12
-1.7393154e-05
-2.5295064e-05
3.3113798e-12
-1.0189906e-05
-1.8593987e-05
4.318127e-12
-5.0547339e-06
-1.1977089e-05
4.1425845e-12
-1.8598415e-06
-6.0578104e-06
2.7619931e-12
-3.222386e-07
-1.5554727e-06
-7.3533791e-14
6.420206e-07
5.8617972e-12
-1.6931709e-06
3.5254936e-06
-1.7230577e-11
-6.3714091e-06
1.2332438e-05
9.5445773e-12
-1.3671437e-05
2.144629e-05
-5.5072696e-12
-2.3234015e-05
3.0011699e-05
-7.6705456e-12
-3.469516e-05
3.7552791e-05
-4.9133203e-12
-4.7689693e-05
4.3818621e-05
-4.3164542e-12
-6.1857343e-05
4.8712815e-05
-4.1824071e-12
-7.6847832e-05
5.2235226e-05
-3.8264672e-12
-9.2323579e-05
5.4434577e-05
-3.4258844e-12
-0.00010795993
5.5375855e-05
-3.026977e-12
-0.00012344357
5.5120576e-05
-2.6108438e-12
-0.00013847024
5.3717325e-05
-2.1753491e-12
-0.00015274273
5.1200252e-05
-1.727795e-12
-0.00016597
4.7593338e-05
-1.2846374e-12
-0.00017786816
4.2918356e-05
-8.6061633e-13
-0.00018816345
3.7204774e-05
-4.4427253e-13
-0.00019659727
3.050012e-05
4.2576178e-15
-0.0002029332
2.2879619e-05
5.1701624e-13
-0.0002069655
1.4454198e-05
1.0612263e-12
-0.00020852866
5.3761755e-06
1.5291929e-12
-0.00020750749
-4.1580589e-06
1.8157704e-12
-0.00020384708
-1.3908497e-05
1.9421457e-12
-0.0001975619
-2.359526e-05
2.0813822e-12
-0.00018874344
-3.2906854e-05
2.4204981e-12
-0.0001775654
-4.1511437e-05
2.9113219e-12
-0.00016428582
-4.9071916e-05
3.2044591e-12
-0.00014924512
-5.5264057e-05
2.9628018e-12
-0.00013285957
-5.9796851e-05
2.3329625e-12
-0.00011560939
-6.2433968e-05
1.9983112e-12
-9.8021535e-05
-6.3014864e-05
2.506354e-12
-8.0647049e-05
-6.1473868e-05
3.4719441e-12
-6.4034042e-05
-5.7855672e-05
3.7821194e-12
-4.8697348e-05
-5.2325955e-05
2.9409518e-12
-3.5086838e-05
-4.5176515e-05
1.9320293e-12
-2.355664e-05
-3.6825273e-05
2.1022287e-12
-1.433785e-05
-2.7812778e-05
3.4943147e-12
-7.5174746e-06
-1.879746e-05
5.0430719e-12
-3.0267226e-06
-1.0548564e-05
3.5919573e-12
-6.4249771e-07
-3.9396986e-06
-2.4370552e-12
-4.845963e-10
8.077191e-12
-2.1329344e-06
5.6584484e-06
-1.998154e-11
-7.8910614e-06
1.8090552e-05
1.4404818e-11
-1.6717367e-05
3.02726e-05
-4.6886618e-12
-2.8105668e-05
4.1400008e-05
-7.6815064e-12
-4.1584972e-05
5.1032099e-05
-4.4605393e-12
-5.6713966e-05
5.894762e-05
-3.9064743e-12
-7.3078053e-05
6.5076905e-05
-3.8833305e-12
-9.0286802e-05
6.9443979e-05
-3.5608363e-12
-0.00010797097
7.2118753e-05
-3.1935737e-12
-0.00012577886
7.3183742e-05
-2.8430859e-12
-0.00014337227
7.2713993e-05
-2.4766527e-12
-0.00016042289
7.0767947e-05
-2.0823595e-12
-0.00017660961
6.7386975e-05
-1.6549807e-12
-0.00019161751
6.2601246e-05
-1.2007348e-12
-0.00020513885
5.6439695e-05
-7.5043584e-13
-0.00021687614
4.8942073e-05
-3.4143158e-13
-0.00022654742
4.0171407e-05
2.5095379e-14
-0.00023389333
3.0225529e-05
4.0571699e-13
-0.00023868576
1.9246631e-05
8.6887346e-13
-0.00024073769
7.4281026e-06
1.4039e-12
-0.00023991365
-4.9820961e-06
1.8763412e-12
-0.00023614033
-1.7681816e-05
2.1226427e-12
-0.00022941681
-3.031878e-05
2.1084126e-12
-0.00021982354
-4.2500128e-05
2.0540416e-12
-0.00020752935
-5.3805627e-05
2.2676483e-12
-0.00019279558
-6.3805684e-05
2.7825301e-12
-0.00017597624
-7.2083396e-05
3.1827374e-12
-0.00015751323
-7.8259855e-05
2.9594244e-12
-0.00013792578
-8.2021424e-05
2.1736301e-12
-0.00011779344
-8.314721e-05
1.6372274e-12
-9.7732731e-05
-8.1534585e-05
2.1058476e-12
-7.8367955e-05
-7.7220446e-05
3.2238678e-12
-6.0297735e-05
-7.0396168e-05
3.7262049e-12
-4.4059431e-05
-6.1414818e-05
2.9983138e-12
-3.0094373e-05
-5.079034e-05
2.0096857e-12
-1.8717234e-05
-3.9189925e-05
2.4782711e-12
-1.0093035e-05
-2.7421659e-05
4.9094575e-12
-4.2253029e-06
-1.6416295e-05
3.941782e-12
-9.5848457e-07
-7.2065116e-06
-4.8105827e-12
-9.5897976e-07
1.0092657e-11
-2.5450477e-06
8.203519e-06
-2.2764133e-11
-9.3288202e-06
2.4874306e-05
1.8700656e-11
-1.9615306e-05
4.055909e-05
-4.1519045e-12
-3.2756749e-05
5.454146e-05
-7.8768392e-12
-4.8175735e-05
6.6451089e-05
-4.214949e-12
-6.5353881e-05
7.6125769e-05
-3.742966e-12
-8.3821866e-05
8.3544894e-05
-3.8720559e-12
-0.00010315028
8.87724e-05
-3.6024249e-12
-0.00012294121
9.1909687e-05
-3.2595263e-12
-0.00014282048
9.3063013e-05
-2.9373565e-12
-0.00016243081
9.232432e-05
-2.6066638e-12
-0.00018142628
8.9763424e-05
-2.2589126e-12
-0.00019946859
8.5429293e-05
-1.8828224e-12
-0.00021622534
7.9357997e-05
-1.4557117e-12
-0.00023137056
7.1584918e-05
-9.7486897e-13
-0.00024458754
6.2159063e-05
-4.8309795e-13
-0.00025557379
5.115766e-05
-4.8339604e-14
-0.00026404786
3.8699599e-05
3.0512175e-13
-0.00026975786
2.4956629e-05
6.4386989e-13
-0.00027249128
1.0161531e-05
1.0798659e-12
-0.00027208589
-5.3874932e-06
1.6422213e-12
-0.00026844095
-2.1326747e-05
2.1986285e-12
-0.00026152901
-3.723072e-05
2.4868762e-12
-0.0002514067
-5.2622445e-05
2.4033568e-12
-0.00023822433
-6.6987993e-05
2.1908131e-12
-0.00022223305
-7.9796973e-05
2.2855436e-12
-0.00020378811
-9.0528336e-05
2.8362492e-12
-0.00018334716
-9.8700801e-05
3.3890135e-12
-0.00016146201
-0.00010390657
3.2661059e-12
-0.00013876293
-0.00010584629
2.4229346e-12
-0.00011593507
-0.00010436245
1.7548176e-12
-9.3687337e-05
-9.946819e-05
2.1588432e-12
-7.2715277e-05
-9.1368227e-05
3.2817553e-12
-5.366063e-05
-8.046946e-05
3.7392844e-12
-3.7071007e-05
-6.7379964e-05
2.9138572e-12
-2.3363904e-05
-5.2897035e-05
2.4945985e-12
-1.2799296e-05
-3.7986274e-05
4.7549346e-12
-5.4648693e-06
-2.3750721e-05
3.6473751e-12
-1.2772516e-06
-1.1394118e-05
-7.5549369e-12
-2.236244e-06
1.2722388e-11
-2.9284721e-06
1.1132017e-05
-2.5454379e-11
-1.0673637e-05
3.2619448e-05
2.2535009e-11
-2.2336101e-05
5.2221558e-05
-3.8291711e-12
-3.7135852e-05
6.9341219e-05
-8.1956964e-12
-5.4393928e-05
8.3709169e-05
-4.0724671e-12
-7.351738e-05
9.5249225e-05
-3.6453774e-12
-9.3983983e-05
0.0001040115
-3.9276077e-12
-0.00011532757
0.00011011599
-3.7350573e-12
-0.00013712471
0.00011370684
-3.4308146e-12
-0.000158983
0.0001149213
-3.1290479e-12
-0.00018053118
0.00011387251
-2.8057768e-12
-0.00020141148
0.00011064373
-2.4673697e-12
-0.00022127431
0.00010529212
-2.1255298e-12
-0.00023977541
9.7859102e-05
-1.7613103e-12
-0.00025657556
8.8385075e-05
-1.3314918e-12
-0.00027134262
7.6926119e-05
-8.1505288e-13
-0.00028375572
6.3570766e-05
-2.6174343e-13
-0.00029351155
4.8455433e-05
2.2719292e-13
-0.00030033233
3.1777415e-05
5.8984635e-13
-0.00030397548
1.3804674e-05
8.8531095e-13
-0.00030424471
-5.1182629e-06
1.2689724e-12
-0.00030100213
-2.4569319e-05
1.8660286e-12
-0.00029418171
-4.4051139e-05
2.5158724e-12
-0.00028380249
-6.3001667e-05
2.8887015e-12
-0.0002699815
-8.0808987e-05
2.7795471e-12
-0.00025294483
-9.6833639e-05
2.420522e-12
-0.00023303541
-0.00011043777
2.3669561e-12
-0.00021071548
-0.00012102073
2.89932e-12
-0.00018656222
-0.00012805983
3.557064e-12
-0.00016125445
-0.00013115406
3.5330381e-12
-0.00013554966
-0.00013006724
2.7062239e-12
-0.00011025123
-0.00012476663
2.0247712e-12
-8.6167197e-05
-0.00011545226
2.4128976e-12
-6.4063598e-05
-0.00010257306
3.3537076e-12
-4.4616575e-05
-8.6826983e-05
3.4039686e-12
-2.8368473e-05
-6.914514e-05
3.10014e-12
-1.5693125e-05
-5.066163e-05
5.1981251e-12
-6.7752104e-06
-3.2668639e-05
3.2943999e-12
-1.6070301e-06
-1.6562285e-05
-1.0695143e-11
-3.8432882e-06
1.5352124e-11
-3.2816879e-06
1.4413733e-05
-2.7997098e-11
-1.1915828e-05
4.1253563e-05
2.5984798e-11
-2.4855425e-05
6.5161159e-05
-3.6389309e-12
-4.1199776e-05
8.5685579e-05
-8.6035399e-12
-6.0176103e-05
0.0001026855
-4.0218253e-12
-8.1121972e-05
0.0001161951
-3.5865731e-12
-0.00010346595
0.00012635549
-3.9762015e-12
-0.00012670845
0.0001333585
-3.8553484e-12
-0.00015040414
0.00013740253
-3.6094033e-12
-0.00017414656
0.00013866372
-3.353083e-12
-0.0001975553
0.00013728124
-3.0496413e-12
-0.00022026597
0.00013335441
-2.7008288e-12
-0.00024192312
0.00012694927
-2.3396967e-12
-0.00026217586
0.00011811185
-1.9918453e-12
-0.0002806763
0.00010688553
-1.6373046e-12
-0.0002970804
9.3330221e-05
-1.2104325e-12
-0.00031105103
7.7541398e-05
-6.6298043e-13
-0.00032226321
5.9667608e-05
-3.918057e-14
-0.00033041126
3.9925472e-05
5.2577938e-13
-0.00033521803
1.861145e-05
9.0501379e-13
-0.00033644621
-3.8900925e-06
1.124434e-12
-0.00033391083
-2.7104694e-05
1.4734268e-12
-0.0003274951
-5.0466872e-05
2.0613636e-12
-0.00031716606
-7.333071e-05
2.7909909e-12
-0.00030299153
-9.4983515e-05
3.2673587e-12
-0.00028515611
-0.00011466906
3.1695261e-12
-0.00026397453
-0.00013161936
2.6950473e-12
-0.00023990004
-0.00014509522
2.491285e-12
-0.00021352533
-0.00015443455
2.9526253e-12
-0.00018557335
-0.00015910603
3.6254883e-12
-0.00015687622
-0.00015876437
3.6402948e-12
-0.00012834134
-0.00015330151
2.883954e-12
-0.00010090584
-0.00014288777
2.3308303e-12
-7.5482314e-05
-0.00012799659
2.6575914e-12
-5.2901037e-05
-0.00010940826
3.0531607e-12
-3.3855044e-05
-8.8191131e-05
3.4327698e-12
-1.8854747e-05
-6.5661932e-05
6.0603852e-12
-8.1982494e-06
-4.3325142e-05
3.2811712e-12
-1.9611604e-06
-2.2799359e-05
-1.4070644e-11
-5.8044653e-06
1.7984546e-11
-3.6022897e-06
1.8016053e-05
-3.0381921e-11
-1.3044825e-05
5.069607e-05
2.9055611e-11
-2.7149194e-05
7.926553e-05
-3.5204167e-12
-4.4907013e-05
0.00010344341
-9.0525283e-12
-6.5461279e-05
0.00012323977
-4.075976e-12
-8.8086932e-05
0.00013882075
-3.6212225e-12
-0.00011216843
0.00015043698
-4.0730275e-12
-0.00013717696
0.00015836704
-3.9874388e-12
-0.00016264935
0.00016287492
-3.7862476e-12
-0.00018816932
0.0001641837
-3.588871e-12
-0.00021335196
0.00016246389
-3.3434321e-12
-0.00023783128
0.00015783374
-3.0242775e-12
-0.0002612511
0.0001503691
-2.6422111e-12
-0.00028325897
0.00014011972
-2.2436717e-12
-0.00030350292
0.00012712948
-1.8760281e-12
-0.00032163072
0.00011145802
-1.5268786e-12
-0.00033729148
9.3202157e-05
-1.1095143e-12
-0.0003501394
7.251553e-05
-5.3871812e-13
-0.00035983981
4.9625876e-05
1.5899581e-13
-0.00036607745
2.4849091e-05
8.0079478e-13
-0.000368568
-1.3995409e-06
1.1689489e-12
-0.0003670704
-2.8602296e-05
1.4491131e-12
-0.00036140546
-5.6131818e-05
1.7096968e-12
-0.00035147371
-8.326246e-05
2.2502781e-12
-0.00033727701
-0.00010918022
3.029766e-12
-0.00031894015
-0.00013300592
3.5980826e-12
-0.00029673105
-0.00015382846
3.533496e-12
-0.00027107663
-0.00017074964
2.9927892e-12
-0.00024257107
-0.00018294012
2.6780501e-12
-0.0002119728
-0.00018970431
3.0439316e-12
-0.0001801872
-0.00019054997
3.6387057e-12
-0.00014823299
-0.00018525571
3.6320141e-12
-0.0001171925
-0.00017392826
3.0173197e-12
-8.8148764e-05
-0.00015704034
2.5740584e-12
-6.2115255e-05
-0.00013544177
2.4801697e-12
-3.9966408e-05
-0.00011033998
3.2204512e-12
-2.2377565e-05
-8.325078e-05
6.8362662e-12
-9.7826715e-06
-5.5920038e-05
3.4993345e-12
-2.3546928e-06
-3.022732e-05
-1.7604816e-11
-8.1591784e-06
2.0913462e-11
-3.8870363e-06
2.1903122e-05
-3.258497e-11
-1.404861e-05
6.0857612e-05
3.1699493e-11
-2.9191951e-05
9.4408876e-05
-3.4659149e-12
-4.8215099e-05
0.00012246656
-9.4925649e-12
-7.0187604e-05
0.00014521228
-4.1898906e-12
-9.4329745e-05
0.0001629629
-3.7444319e-12
-0.00011998782
0.00017609506
-4.2540765e-12
-0.0001466086
0.00018498783
-4.1797078e-12
-0.00017371532
0.00018998164
-3.9887042e-12
-0.00020088622
0.0001913546
-3.8203306e-12
-0.00022773638
0.00018931405
-3.6314736e-12
-0.00025390303
0.0001840004
-3.3874466e-12
-0.00027903436
0.00017550043
-3.0552233e-12
-0.00030278143
0.00016386679
-2.6344328e-12
-0.00032479304
0.00014914109
-2.184441e-12
-0.00034471308
0.00013137807
-1.7803283e-12
-0.00036218027
0.00011066935
-1.4268846e-12
-0.00037683014
8.7165392e-05
-1.0235117e-12
-0.00038829941
6.1095151e-05
-4.4309475e-13
-0.00039623327
3.278295e-05
3.3189459e-13
-0.00040029539
2.6625802e-06
1.1368872e-12
-0.00040018291
-2.8714782e-05
1.6098864e-12
-0.00039564311
-6.0671617e-05
1.8140259e-12
-0.00038649645
-9.2409123e-05
1.9894724e-12
-0.00037266177
-0.00012301491
2.4705868e-12
-0.00035418417
-0.00015148352
3.2558656e-12
-0.00033126306
-0.00017674957
3.8709438e-12
-0.00030427716
-0.00019773554
3.8298202e-12
-0.00027380239
-0.00021341489
3.2641241e-12
-0.00024061778
-0.00022288893
2.8885078e-12
-0.00020569475
-0.00022547301
3.1450592e-12
-0.00017016602
-0.00022078444
3.600595e-12
-0.00013527289
-0.00020882139
3.5803311e-12
-0.00010229311
-0.00019002013
3.0417127e-12
-7.2455784e-05
-0.00016527911
2.3102556e-12
-4.6853199e-05
-0.00013594257
2.8577725e-12
-2.6361311e-05
-0.00010374267
7.3786785e-12
-1.1580419e-05
-7.0700932e-05
3.6601181e-12
-2.8033094e-06
-3.9004407e-05
-2.1484321e-11
-1.0962512e-05
2.4356227e-11
-4.1321022e-06
2.6035259e-05
-3.4540333e-11
-1.4914046e-05
7.1639522e-05
3.3882642e-11
-3.0957026e-05
0.00011045186
-3.5024465e-12
-5.1080485e-05
0.00014259003
-9.921998e-12
-7.429203e-05
0.00016842383
-4.3265528e-12
-9.9765805e-05
0.00018843668
-3.9068064e-12
-0.00012681629
0.00020314555
-4.4936537e-12
-0.00015487082
0.00021304237
-4.4458648e-12
-0.00018344338
0.0002185542
-4.2598468e-12
-0.00021211086
0.00022002209
-4.0876906e-12
-0.00024049273
0.00021769592
-3.9061006e-12
-0.00026823416
0.00021174183
-3.7122744e-12
-0.00029499269
0.00020225896
-3.4738604e-12
-0.00032042817
0.00018930228
-3.1322124e-12
-0.00034419548
0.0001729084
-2.6710562e-12
-0.00036593979
0.00015312237
-2.1582527e-12
-0.00038529407
0.00013002363
-1.699301e-12
-0.00040187902
0.00010375034
-1.3278137e-12
-0.00041530544
7.4521569e-05
-9.379465e-13
-0.00042517977
4.265728e-05
-3.4203534e-13
-0.00043111298
8.5957833e-06
5.3354117e-13
-0.00043273525
-2.709251e-05
1.3504285e-12
-0.00042971322
-6.3693652e-05
1.9472406e-12
-0.00042177527
-0.00010034708
2.1899152e-12
-0.00040874085
-0.00013604933
2.324497e-12
-0.00039055456
-0.00016966981
2.744031e-12
-0.00036732274
-0.0001999814
3.4896532e-12
-0.0003393491
-0.00022570918
4.0848861e-12
-0.00030716474
-0.00024559926
4.0311068e-12
-0.00027154628
-0.0002585074
3.4613148e-12
-0.00023351553
-0.00026350376
3.0567793e-12
-0.00019431459
-0.0002599854
3.2039731e-12
-0.0001553526
-0.00024778338
3.5378937e-12
-0.00011812503
-0.0002272477
3.3984874e-12
-8.4111662e-05
-0.00019929248
2.4826302e-12
-5.4665373e-05
-0.00016538886
2.7389418e-12
-3.0907281e-05
-0.00012750077
7.9414266e-12
-1.3644671e-05
-8.7963544e-05
3.672593e-12
-3.3229851e-06
-4.9326066e-05
-2.5997327e-11
-1.4285525e-05
2.8394033e-11
-4.3334396e-06
3.0368735e-05
-3.6177546e-11
-1.5627743e-05
8.2933791e-05
3.5615286e-11
-3.2417807e-05
0.00012724193
-3.6287746e-12
-5.3460139e-05
0.00016363238
-1.0363128e-11
-7.771222e-05
0.00019267592
-4.4992618e-12
-0.00010431069
0.00021503515
-4.0850854e-12
-0.00013254452
0.00023137938
-4.7440387e-12
-0.00016182646
0.00024232432
-4.7443924e-12
-0.00019166533
0.00024839307
-4.5936483e-12
-0.00022164062
0.00024999739
-4.4335388e-12
-0.00025138028
0.00024743558
-4.2330213e-12
-0.00028054189
0.00024090345
-4.0205163e-12
-0.00030879741
0.00023051448
-3.8189873e-12
-0.00033582093
0.0002163258
-3.5860013e-12
-0.00036127928
0.00019836676
-3.2390858e-12
-0.00038482503
0.00017666812
-2.7402229e-12
-0.00040609161
0.00015129021
-2.1579418e-12
-0.00042469082
0.00012234955
-1.6279877e-12
-0.00044021288
9.0043625e-05
-1.2183191e-12
-0.00045222968
5.4674078e-05
-8.201184e-13
-0.00046030207
1.6668172e-05
-2.1932327e-13
-0.00046399263
-2.3401959e-05
6.2510174e-13
-0.00046288356
-6.480272e-05
1.5777854e-12
-0.00045660251
-0.00010662812
2.2852958e-12
-0.00044485523
-0.00014779662
2.5806491e-12
-0.00042746531
-0.00018705973
2.706046e-12
-0.00040441945
-0.00022302726
3.070479e-12
-0.0003759149
-0.00025421373
3.7319681e-12
-0.00034240394
-0.00027911023
4.2336604e-12
-0.00030462805
-0.00029628329
4.1194467e-12
-0.00026363288
-0.00030449893
3.545133e-12
-0.00022075471
-0.00030286357
3.1390118e-12
-0.0001775713
-0.0002909668
3.2290506e-12
-0.00013581476
-0.00026900424
3.312537e-12
-9.7251749e-05
-0.00023785548
2.5421409e-12
-6.354472e-05
-0.0001990959
2.8184659e-12
-3.6114623e-05
-0.00015493088
8.7827364e-12
-1.6028529e-05
-0.00010804964
3.6795371e-12
-3.9298282e-06
-6.1424734e-05
-3.1317215e-11
-1.8215386e-05
3.3075467e-11
-4.4872098e-06
3.4855983e-05
-3.7466726e-11
-1.6177275e-05
9.462382e-05
3.6910581e-11
-3.3549801e-05
0.00014461446
-3.7983772e-12
-5.5314395e-05
0.00018539698
-1.0802948e-11
-8.0390138e-05
0.00021775166
-4.733331e-12
-0.0001078845
0.00024252951
-4.3032487e-12
-0.00013706687
0.00026056176
-4.9983713e-12
-0.00016733982
0.00027259727
-5.0327948e-12
-0.00019821067
0.00027926393
-4.9312388e-12
-0.00022926502
0.00028105174
-4.8245924e-12
-0.00026014302
0.00027831359
-4.6452618e-12
-0.00029051895
0.00027127939
-4.4008936e-12
-0.00032008406
0.0002600796
-4.151263e-12
-0.00034853236
0.00024477411
-3.9317881e-12
-0.00037554909
0.00022538348
-3.6987139e-12
-0.00040080131
0.00020192034
-3.3490383e-12
-0.00042393071
0.00017441961
-2.817423e-12
-0.0004445484
0.00014296724
-2.1646709e-12
-0.0004622323
0.00010772753
-1.5493453e-12
-0.00047652771
6.8969485e-05
-1.0738634e-12
-0.00048695197
2.7092429e-05
-6.5107955e-13
-0.00049300474
-1.7349187e-05
-6.6938542e-14
-0.00049418476
-6.3622708e-05
8.2068989e-13
-0.00049001497
-0.00011079791
1.8434482e-12
-0.00048007692
-0.00015773467
2.6304888e-12
-0.00046405487
-0.00020308178
2.9840663e-12
-0.000441789
-0.00024529313
3.1201865e-12
-0.00041333505
-0.00028266769
3.427505e-12
-0.00037902532
-0.00031341996
3.9559195e-12
-0.00033952276
-0.00033578585
4.2905588e-12
-0.00029585701
-0.00034816468
4.0671127e-12
-0.00024942937
-0.00034929122
3.500973e-12
-0.00020197462
-0.00033842156
3.1632991e-12
-0.00015547257
-0.0003155063
3.0333477e-12
-0.00011201139
-0.00028131666
2.267231e-12
-7.3617366e-05
-0.00023748993
2.8004475e-12
-4.2076929e-05
-0.00018647133
9.8878902e-12
-1.878397e-05
-0.0001313426
3.8137076e-12
-4.6400024e-06
-7.5568663e-05
-3.7496098e-11
-2.2855426e-05
3.8513303e-11
-4.5902707e-06
3.9446292e-05
-3.8409532e-11
-1.6552645e-05
0.00010658616
3.7741265e-11
-3.4333258e-05
0.00016239508
-3.9708519e-12
-5.6610739e-05
0.00020767447
-1.1190205e-11
-8.2276973e-05
0.0002434179
-5.0127793e-12
-0.00011041791
0.00027067045
-4.5824591e-12
-0.00014028857
0.00029043243
-5.2903038e-12
-0.00017128509
0.0003035938
-5.3248213e-12
-0.0002029164
0.00031089524
-5.2401863e-12
-0.00023477714
0.00031291249
-5.1851242e-12
-0.00026652297
0.00031005943
-5.0748247e-12
-0.0002978488
0.00030260521
-4.8637446e-12
-0.0003284699
0.0002907007
-4.5732363e-12
-0.00035810598
0.00027441018
-4.2743025e-12
-0.00038646748
0.00025374498
-4.0208004e-12
-0.00041324406
0.00022869692
-3.7761658e-12
-0.00043809486
0.00019927041
-3.4209214e-12
-0.0004606407
0.00016551308
-2.8603299e-12
-0.00048045849
0.00012754532
-2.1393571e-12
-0.00049707863
8.5589626e-05
-1.4304717e-12
-0.00050998636
4.0000168e-05
-8.7287385e-13
-0.00051862856
-8.7069904e-06
-4.0597113e-13
-0.00052242753
-5.9823741e-05
2.0157165e-13
-0.00052080384
-0.00011242161
1.1131262e-12
-0.00051321013
-0.00016532838
2.1731006e-12
-0.00049917748
-0.00021711443
3.0074409e-12
-0.00047837478
-0.00026609583
3.4038765e-12
-0.00045067992
-0.00031036256
3.5468694e-12
-0.00041625829
-0.00034784161
3.7728549e-12
-0.0003756403
-0.00037640384
4.1055869e-12
-0.00032978482
-0.00039402016
4.2027749e-12
-0.00028011147
-0.00039896458
3.8644683e-12
-0.00022848337
-0.00039004967
3.3858265e-12
-0.00017712588
-0.00036686379
2.9051095e-12
-0.00012847745
-0.0003299651
1.8226118e-12
-8.4985446e-05
-0.00028098193
2.5465882e-12
-4.8878559e-05
-0.00022257822
1.1095281e-11
-2.1960788e-05
-0.00015826038
4.0452722e-12
-5.4696688e-06
-9.2059736e-05
-4.4602891e-11
-2.8325139e-05
4.4871876e-11
-4.6407084e-06
4.408704e-05
-3.8997101e-11
-1.6747949e-05
0.00011869336
3.8062309e-11
-3.4756232e-05
0.00018040336
-4.1546484e-12
-5.7328332e-05
0.00023024659
-1.1491763e-11
-8.3339077e-05
0.00026942865
-5.2919998e-12
-0.00011185947
0.00029919085
-4.8982551e-12
-0.00014213444
0.00032070741
-5.6331113e-12
-0.00017355665
0.00033501602
-5.6636252e-12
-0.00020563901
0.0003429776
-5.5591794e-12
-0.00023798761
0.0003452611
-5.500461e-12
-0.00027027647
0.00034234829
-5.4347759e-12
-0.00030222461
0.00033455335
-5.3031094e-12
-0.00033357591
0.000322052
-5.058888e-12
-0.00036408141
0.00030491569
-4.7144816e-12
-0.00039348391
0.00028314749
-4.3510529e-12
-0.00042150431
0.00025671732
-4.0440199e-12
-0.00044782961
0.00022559571
-3.7696053e-12
-0.0004721025
0.00018978597
-3.397711e-12
-0.00049391281
0.00014935563
-2.8065963e-12
-0.00051279135
0.00010446817
-2.0206985e-12
-0.00052820736
5.5416174e-05
-1.2189127e-12
-0.00053957068
2.6563355e-06
-5.6459305e-13
-0.00054624112
-5.3153295e-05
-3.7617621e-14
-0.00054754671
-0.00011111602
6.1129566e-13
-0.00054281432
-0.00017006078
1.5413586e-12
-0.00053141514
-0.00022851361
2.6038879e-12
-0.0005128274
-0.00028468357
3.4391625e-12
-0.00048671676
-0.0003364732
3.8407065e-12
-0.00045303188
-0.00038152648
3.954601e-12
-0.0004121077
-0.00041732803
4.0386188e-12
-0.00036476226
-0.0004413656
4.0957311e-12
-0.00031236639
-0.00045136045
3.9401941e-12
-0.00025686045
-0.00044555561
3.5820037e-12
-0.00020069352
-0.00042303073
2.9322962e-12
-0.00014667092
-0.0003839877
1.4125076e-12
-9.7717263e-05
-0.00032993559
2.1578086e-12
-5.6590248e-05
-0.00026370525
1.2350816e-11
-2.5605288e-05
-0.00018924534
4.2754173e-12