/*--------------------------------*- C++ -*----------------------------------*\
  =========                 |
  \\      /  F ield         | OpenFOAM: The Open Source CFD Toolbox
   \\    /   O peration     | Website:  https://openfoam.org
    \\  /    A nd           | Version:  7
     \\/     M anipulation  |
\*---------------------------------------------------------------------------*/
FoamFile
{
    version     2.0;
    format      ascii;
    class       volVectorField;
    location    "26";
    object      U;
}
// * * * * * * * * * * * * * * * * * * * * * * * * * * * * * * * * * * * * * //

dimensions      [0 1 -1 0 0 0 0];

internalField   nonuniform List<vector> 
16000
(
(6.6001193e-05 -6.7375422e-05 -4.3139357e-07)
(0.00016269039 -5.6379037e-05 5.6664901e-06)
(0.00014189426 4.53295e-07 1.916595e-05)
(-5.0630869e-05 6.188651e-05 3.6588354e-05)
(-0.00040997802 0.00011562917 5.4696787e-05)
(-0.00090902779 0.0001577428 7.1525068e-05)
(-0.0015177104 0.00018850389 8.5737135e-05)
(-0.0022068828 0.0002096082 9.6517794e-05)
(-0.002950596 0.00022287601 0.00010340665)
(-0.0037264572 0.0002298105 0.00010615679)
(-0.0045150403 0.00023147654 0.00010464102)
(-0.0052990001 0.00022850327 9.8796343e-05)
(-0.0060621773 0.00022114656 8.8598081e-05)
(-0.0067888459 0.00020938213 7.4056754e-05)
(-0.0074631958 0.00019301285 5.5231101e-05)
(-0.0080690952 0.00017177997 3.2251354e-05)
(-0.0085901464 0.00014547137 5.3474223e-06)
(-0.0090100252 0.00011402186 -2.5122805e-05)
(-0.0093130766 7.7601333e-05 -5.8649414e-05)
(-0.0094851217 3.6687067e-05 -9.4554662e-05)
(-0.0095144214 -7.8869221e-06 -0.00013198886)
(-0.0093927043 -5.4924225e-05 -0.00016994087)
(-0.009116201 -0.00010284269 -0.0002072644)
(-0.0086865818 -0.00014974771 -0.00024272169)
(-0.0081116728 -0.00019351051 -0.00027504289)
(-0.0074058768 -0.00023188601 -0.00030299893)
(-0.0065902032 -0.00026266204 -0.00032548329)
(-0.0056918415 -0.00028382796 -0.00034159623)
(-0.0047432551 -0.00029374641 -0.00035072389)
(-0.0037808179 -0.00029130739 -0.00035260493)
(-0.0028430627 -0.00027604314 -0.00034737855)
(-0.0019686461 -0.00024819009 -0.00033561058)
(-0.0011941367 -0.00020870313 -0.00031829637)
(-0.0005516674 -0.00015926465 -0.00029684207)
(-6.6519782e-05 -0.00010240204 -0.00027301868)
(0.0002449065 -4.174553e-05 -0.00024888338)
(0.00037894324 1.7851029e-05 -0.0002268154)
(0.00034980574 6.7058645e-05 -0.00020924803)
(0.00020620837 8.983422e-05 -0.00019885459)
(5.747241e-05 5.7398993e-05 -0.00018440521)
(5.7978886e-05 -0.00016709126 -6.6645348e-06)
(4.0840696e-05 -3.9998376e-05 -4.1238949e-07)
(-0.00029500451 0.00024854474 1.1220995e-05)
(-0.001011044 0.00056211215 2.5586949e-05)
(-0.0020992406 0.00084748965 4.0571833e-05)
(-0.0035140933 0.0010831159 5.4579847e-05)
(-0.0051946841 0.0012642969 6.6483758e-05)
(-0.0070766202 0.0013940632 7.5531311e-05)
(-0.0090981337 0.0014779559 8.1240663e-05)
(-0.011202282 0.0015215224 8.3312101e-05)
(-0.013337004 0.0015292065 8.1562297e-05)
(-0.01545414 0.0015039712 7.5881322e-05)
(-0.017508105 0.0014473528 6.621086e-05)
(-0.019454664 0.0013597736 5.2540144e-05)
(-0.021250098 0.0012409978 3.4915278e-05)
(-0.022850911 0.001090655 1.3457437e-05)
(-0.024214158 0.00090877235 -1.161439e-05)
(-0.025298361 0.0006962742 -3.9960281e-05)
(-0.026064983 0.00045541396 -7.1099621e-05)
(-0.026480323 0.00019010694 -0.00010439822)
(-0.026517739 -9.3865089e-05 -0.00013906521)
(-0.026159913 -0.00038877516 -0.00017416897)
(-0.025401098 -0.00068508881 -0.00020865366)
(-0.024249105 -0.00097175456 -0.00024138702)
(-0.022726694 -0.0012366871 -0.00027121355)
(-0.0208723 -0.0014674217 -0.00029702163)
(-0.018739869 -0.0016519022 -0.00031781872)
(-0.016397677 -0.0017793502 -0.00033280886)
(-0.013926094 -0.0018411438 -0.00034146529)
(-0.011414298 -0.0018316272 -0.00034359033)
(-0.008956092 -0.0017487639 -0.0003393556)
(-0.0066450026 -0.0015945789 -0.00032931915)
(-0.0045688886 -0.0013753936 -0.00031441896)
(-0.0028042112 -0.0011019777 -0.00029594498)
(-0.0014100174 -0.00078992517 -0.0002754901)
(-0.00042165162 -0.00046057373 -0.00025487196)
(0.00015574409 -0.00014253723 -0.00023600629)
(0.00035672054 0.00012231793 -0.00022090639)
(0.0002752874 0.00027110782 -0.00021166794)
(9.0139492e-05 0.0002050709 -0.00019547163)
(1.9081355e-06 -0.00014898609 -2.0450961e-05)
(-0.00025607025 0.00029699286 -1.1833908e-05)
(-0.0010504728 0.0010236015 6.4319184e-08)
(-0.0023878421 0.00179752 1.3044343e-05)
(-0.0042394507 0.0025098869 2.6080535e-05)
(-0.0065455602 0.0031100423 3.803195e-05)
(-0.0092251116 0.0035809115 4.8071586e-05)
(-0.012189975 0.003923419 5.5638867e-05)
(-0.015352953 0.0041461708 6.0352195e-05)
(-0.018631008 0.0042595764 6.1954853e-05)
(-0.02194602 0.0042728007 6.0273859e-05)
(-0.025224186 0.0041924617 5.5191403e-05)
(-0.028394842 0.0040224568 4.6631196e-05)
(-0.0313893 0.0037645119 3.4558135e-05)
(-0.03414012 0.0034191593 1.8988349e-05)
(-0.036581034 0.0029869298 6.3706078e-09)
(-0.038647636 0.0024695974 -2.2213954e-05)
(-0.040278825 0.0018713528 -4.7388195e-05)
(-0.041418934 0.0011998053 -7.5102899e-05)
(-0.042020383 0.00046673053 -0.00010480325)
(-0.04204665 -0.00031149673 -0.00013579137)
(-0.041475357 -0.0011138073 -0.00016723191)
(-0.040301207 -0.0019148714 -0.00019817757)
(-0.038538452 -0.0026858552 -0.00022760524)
(-0.036222661 -0.0033956664 -0.00025446704)
(-0.033411504 -0.0040125906 -0.00027775282)
(-0.030184363 -0.0045062302 -0.00029655983)
(-0.026640587 -0.0048496228 -0.00031016461)
(-0.022896329 -0.0050213809 -0.0003180906)
(-0.019079976 -0.0050076812 -0.00032016425)
(-0.015326303 -0.0048039392 -0.00031655165)
(-0.011769566 -0.0044160451 -0.00030777001)
(-0.0085358392 -0.003861142 -0.00029467254)
(-0.0057348753 -0.0031681027 -0.00027841027)
(-0.0034516857 -0.0023781318 -0.00026037575)
(-0.0017379685 -0.0015462004 -0.00024212661)
(-0.00060369872 -0.00074417644 -0.00022527728)
(-8.0636244e-06 -6.6336633e-05 -0.00021142151)
(0.00015540378 0.00036040469 -0.00020224259)
(7.3560078e-05 0.00035435992 -0.00018532184)
(-6.4688909e-05 5.0413157e-05 -3.8702872e-05)
(-0.0006083925 0.0010457388 -2.6165796e-05)
(-0.0019305516 0.0023817116 -1.2184585e-05)
(-0.0039464468 0.0037564923 1.1081129e-06)
(-0.0065890156 0.0050152865 1.3696308e-05)
(-0.0097791904 0.0060800352 2.4820585e-05)
(-0.013417106 0.0069204933 3.3943635e-05)
(-0.017395496 0.0075340845 4.0730161e-05)
(-0.021607691 0.0079313671 4.4944279e-05)
(-0.025950637 0.0081270107 4.6414191e-05)
(-0.030325778 0.0081347391 4.5009093e-05)
(-0.034638714 0.0079649735 4.0622621e-05)
(-0.038798267 0.0076243483 3.3167698e-05)
(-0.042715576 0.0071164838 2.2582046e-05)
(-0.046303632 0.0064435324 8.8419881e-06)
(-0.04947754 0.0056081263 -8.0179695e-06)
(-0.052155589 0.0046154345 -2.7882458e-05)
(-0.054261146 0.0034751007 -5.0532347e-05)
(-0.05572527 0.0022028829 -7.5624584e-05)
(-0.056489873 0.00082185149 -0.00010267802)
(-0.056511176 -0.00063696279 -0.00013106822)
(-0.055763285 -0.002134584 -0.00016003024)
(-0.054241515 -0.0036247993 -0.00018868182)
(-0.051965172 -0.0050556041 -0.00021605553)
(-0.048979528 -0.0063713747 -0.00024114827)
(-0.04535669 -0.0075156944 -0.00026298301)
(-0.041195092 -0.0084346957 -0.0002806783)
(-0.036617455 -0.0090807141 -0.00029351986)
(-0.031767075 -0.0094159966 -0.00030102752)
(-0.026802455 -0.0094161828 -0.00030301085)
(-0.021890363 -0.0090732926 -0.00029960607)
(-0.017197536 -0.0083980219 -0.0002912871)
(-0.012881378 -0.0074212652 -0.00027884637)
(-0.0090800592 -0.0061949946 -0.00026334712)
(-0.0059024765 -0.0047929277 -0.00024605479)
(-0.003418477 -0.0033118381 -0.00022835655)
(-0.0016495191 -0.001874552 -0.00021168114)
(-0.00055981287 -0.0006347051 -0.00019742664)
(-5.0130879e-05 0.00021501313 -0.00018682855)
(3.8091379e-05 0.00041383001 -0.00016802016)
(-0.00013086722 0.00044555454 -5.8219156e-05)
(-0.00097095466 0.0022426664 -4.1155817e-05)
(-0.0028462164 0.0043591527 -2.4273453e-05)
(-0.0055648114 0.0064571757 -9.8412593e-06)
(-0.0090094287 0.0083534335 3.0771696e-06)
(-0.013075433 0.009951407 1.4057144e-05)
(-0.017642234 0.011211701 2.2835683e-05)
(-0.022584617 0.012129536 2.930789e-05)
(-0.027779551 0.012717478 3.3396561e-05)
(-0.033108012 0.0129941 3.5028901e-05)
(-0.038455375 0.01297732 3.412765e-05)
(-0.043710989 0.012681171 3.0604395e-05)
(-0.048767363 0.012115088 2.4362249e-05)
(-0.053519459 0.01128495 1.5307705e-05)
(-0.057864513 0.010195227 3.3694063e-06)
(-0.061702596 0.0088517149 -1.1478194e-05)
(-0.064938022 0.0072644201 -2.9188496e-05)
(-0.067481581 0.0054502784 -4.9616208e-05)
(-0.069253485 0.0034354283 -7.2493414e-05)
(-0.070186857 0.0012568432 -9.7411356e-05)
(-0.070231511 -0.001036843 -0.00012381089)
(-0.069357811 -0.0033854569 -0.000150984)
(-0.06756027 -0.0057183678 -0.00017809012)
(-0.064860618 -0.0079566527 -0.00020418743)
(-0.061310031 -0.010016268 -0.0002282806)
(-0.056990208 -0.011812155 -0.00024938308)
(-0.052013013 -0.0132631 -0.00026658949)
(-0.046518447 -0.014297095 -0.00027915107)
(-0.040670763 -0.014856834 -0.00028654606)
(-0.034652695 -0.014904948 -0.0002885371)
(-0.028657831 -0.014428577 -0.0002852092)
(-0.022881345 -0.01344295 -0.00027698204)
(-0.017509442 -0.011993802 -0.00026459145)
(-0.012708049 -0.010158681 -0.00024903762)
(-0.0086114738 -0.0080474662 -0.00023150461)
(-0.00531175 -0.0058029518 -0.00021326908)
(-0.0028485015 -0.0036024922 -0.00019564206)
(-0.0012000278 -0.0016605595 -0.00017989183)
(-0.0002888185 -0.00023377994 -0.00016674733)
(-2.4760066e-06 0.00035046825 -0.0001455146)
(-0.00019286533 0.0010312972 -7.6699369e-05)
(-0.0013239863 0.0038925065 -5.4797429e-05)
(-0.003751853 0.0069679587 -3.4592656e-05)
(-0.0071732876 0.0099107688 -1.8499234e-05)
(-0.011414782 0.012527341 -4.7036511e-06)
(-0.016341441 0.014714442 6.6589886e-06)
(-0.021809558 0.016430436 1.5575812e-05)
(-0.027675796 0.017671951 2.2161408e-05)
(-0.033802293 0.01845518 2.6494167e-05)
(-0.040056722 0.018803146 2.8600781e-05)
(-0.046311689 0.018738013 2.845852e-05)
(-0.052443891 0.018277345 2.599646e-05)
(-0.058333166 0.017433378 2.1105045e-05)
(-0.063861854 0.016214442 1.3654127e-05)
(-0.068914769 0.014627777 3.5172193e-06)
(-0.073379966 0.012683071 -9.3998621e-06)
(-0.077150368 0.010396182 -2.5127845e-05)
(-0.080126202 0.0077926203 -4.3602498e-05)
(-0.082218139 0.0049104388 -6.4635461e-05)
(-0.083350964 0.0018022845 -8.7890563e-05)
(-0.08346757 -0.0014635964 -0.00011286898)
(-0.082533016 -0.0048035558 -0.00013890689)
(-0.08053842 -0.0081200105 -0.00016518719)
(-0.07750437 -0.011304285 -0.00019076911)
(-0.073483565 -0.014240773 -0.00021463456)
(-0.068562349 -0.016812332 -0.00023575125)
(-0.062860834 -0.018906725 -0.00025314883)
(-0.056531248 -0.020423801 -0.00026600099)
(-0.049754293 -0.021282981 -0.00027370386)
(-0.042733311 -0.021430535 -0.00027594017)
(-0.035686286 -0.020846053 -0.00027272063)
(-0.028835847 -0.019547629 -0.00026439766)
(-0.022397643 -0.017595367 -0.00025164839)
(-0.016567719 -0.015093144 -0.00023542401)
(-0.011509858 -0.012188824 -0.0002168637)
(-0.0073439045 -0.0090736418 -0.00019719307)
(-0.00413453 -0.005981668 -0.00017768188)
(-0.001881586 -0.0031890514 -0.00015956286)
(-0.0005361901 -0.0010143315 -0.00014316779)
(-4.1247289e-05 0.00015894855 -0.00011907498)
(-0.0002501164 0.0017985608 -9.2186029e-05)
(-0.0016597696 0.0059841104 -6.5297927e-05)
(-0.0046244454 0.010198568 -4.1611587e-05)
(-0.008732147 0.014106957 -2.3556768e-05)
(-0.013751567 0.017522262 -8.5184499e-06)
(-0.019515022 0.020347036 3.6203868e-06)
(-0.025854065 0.022545837 1.3071601e-05)
(-0.032606906 0.024121912 2.0151324e-05)
(-0.039621753 0.025098017 2.5081781e-05)
(-0.046754857 0.025503087 2.7981204e-05)
(-0.053868622 0.025364141 2.887519e-05)
(-0.060830046 0.024702454 2.7704479e-05)
(-0.067509418 0.023533097 2.4340514e-05)
(-0.073779526 0.02186691 1.8609247e-05)
(-0.079515619 0.019714064 1.0320919e-05)
(-0.084596229 0.017088441 -6.9589434e-07)
(-0.088904844 0.014012197 -1.4557669e-05)
(-0.092332413 0.010519987 -3.1288738e-05)
(-0.094780531 0.0066624749 -5.0786043e-05)
(-0.096165178 0.002508815 -7.278894e-05)
(-0.096420835 -0.0018521239 -9.6857807e-05)
(-0.095504749 -0.0063119614 -0.00012236619)
(-0.093401162 -0.010744545 -0.00014850744)
(-0.090125226 -0.015009362 -0.0001743223)
(-0.085726273 -0.018956592 -0.00019874439)
(-0.080290133 -0.022433737 -0.00022066453)
(-0.073940092 -0.025293662 -0.00023901054)
(-0.066836064 -0.02740369 -0.0002528365)
(-0.059171596 -0.028655299 -0.00026141195)
(-0.05116838 -0.028973737 -0.00026429846)
(-0.043068157 -0.028326833 -0.00026140103)
(-0.03512213 -0.026732199 -0.00025298674)
(-0.027578277 -0.024262189 -0.00023966913)
(-0.020667288 -0.021046275 -0.00022235875)
(-0.014588314 -0.017270875 -0.00020217631)
(-0.0094958125 -0.013177194 -0.00018034707)
(-0.0054864912 -0.0090579083 -0.00015817437)
(-0.0025879468 -0.0052522174 -0.00013694344)
(-0.00078446257 -0.0021405442 -0.00011665879)
(-7.6872011e-05 -0.00016054336 -8.9451396e-05)
(-0.00030295551 0.0027365173 -0.00010300955)
(-0.0019754937 0.0084980676 -7.1040757e-05)
(-0.0054521258 0.01402852 -4.3893042e-05)
(-0.010217942 0.019021316 -2.3748423e-05)
(-0.015985132 0.023311007 -7.2531452e-06)
(-0.022552728 0.026818099 5.935795e-06)
(-0.02972709 0.029522327 1.6232955e-05)
(-0.037328087 0.031439669 2.4136236e-05)
(-0.045190837 0.032603294 2.9995768e-05)
(-0.053161717 0.033050265 3.4008479e-05)
(-0.061095047 0.032813587 3.6237495e-05)
(-0.068850633 0.031918724 3.6625655e-05)
(-0.076291891 0.030383692 3.5016395e-05)
(-0.08328472 0.028221778 3.1182771e-05)
(-0.089697263 0.025445949 2.4862418e-05)
(-0.095400588 0.022074113 1.5797e-05)
(-0.10027026 0.018134525 3.7745579e-06)
(-0.10418871 0.013670774 -1.1327185e-05)
(-0.10704839 0.0087459199 -2.9499005e-05)
(-0.10875541 0.0034454583 -5.0562864e-05)
(-0.10923374 -0.0021211326 -7.4142956e-05)
(-0.10842968 -0.0078204722 -9.9651063e-05)
(-0.10631653 -0.013497089 -0.00012628579)
(-0.10289916 -0.018977214 -0.00015305698)
(-0.098218157 -0.024074517 -0.00017882956)
(-0.092353317 -0.028597856 -0.00020238971)
(-0.085425823 -0.032360864 -0.00022252902)
(-0.077598709 -0.035193077 -0.00023814111)
(-0.06907499 -0.036952056 -0.00024832213)
(-0.060092963 -0.037535755 -0.00025246307)
(-0.05091835 -0.03689416 -0.00025031857)
(-0.041833275 -0.035039113 -0.0002420392)
(-0.033122425 -0.032051291 -0.00022816213)
(-0.025057245 -0.028083586 -0.00020956214)
(-0.0178796 -0.023360645 -0.00018736267)
(-0.011786453 -0.018174971 -0.00016282984)
(-0.0069140636 -0.012880372 -0.00013736687)
(-0.0033238378 -0.0078822505 -0.00011239723)
(-0.0010368594 -0.0036261514 -8.7689776e-05)
(-0.00011093314 -0.00060702573 -5.7247671e-05)
(-0.000351692 0.003833806 -0.00010770641)
(-0.0022696785 0.011410316 -7.0551883e-05)
(-0.006227459 0.018427229 -4.007409e-05)
(-0.01161471 0.024619863 -1.7823756e-05)
(-0.018090257 0.029857448 2.4014499e-07)
(-0.025420936 0.034089751 1.4669478e-05)
(-0.033388604 0.037320578 2.6063683e-05)
(-0.041795532 0.039585107 3.5083546e-05)
(-0.0504648 0.040931299 4.2190116e-05)
(-0.059234393 0.041407096 4.7644208e-05)
(-0.067952449 0.041053046 5.1533499e-05)
(-0.076473787 0.039899536 5.3791394e-05)
(-0.084657319 0.03796772 5.422275e-05)
(-0.092364414 0.035273164 5.2537514e-05)
(-0.099458274 0.031831199 4.8390265e-05)
(-0.10580429 0.027663112 4.1424593e-05)
(-0.11127134 0.022802411 3.1321051e-05)
(-0.11573388 0.017300596 1.7846801e-05)
(-0.11907481 0.011231973 9.0444027e-07)
(-0.12118906 0.0046972056 -1.9422915e-05)
(-0.12198774 -0.0021746734 -4.2834288e-05)
(-0.12140279 -0.0092260062 -6.8788646e-05)
(-0.11939215 -0.016272113 -9.6493641e-05)
(-0.11594517 -0.023105194 -0.00012492486)
(-0.11108793 -0.029500475 -0.00015286505)
(-0.10488813 -0.03522482 -0.00017897112)
(-0.097459066 -0.040047773 -0.0002018636)
(-0.088961818 -0.04375477 -0.00022023221)
(-0.079605068 -0.046161968 -0.00023294908)
(-0.069641717 -0.047131829 -0.00023917832)
(-0.059361713 -0.046588244 -0.00023846688)
(-0.049080836 -0.044529761 -0.00023080003)
(-0.039125676 -0.041039385 -0.00021660913)
(-0.029815689 -0.036289664 -0.00019672862)
(-0.021444093 -0.030542318 -0.00017230255)
(-0.01425947 -0.024142602 -0.00014467497)
(-0.0084461038 -0.017509173 -0.00011540769)
(-0.0041057524 -0.011119086 -8.6142611e-05)
(-0.0013000798 -0.0054896887 -5.6484139e-05)
(-0.00014466048 -0.0011817435 -2.2530463e-05)
(-0.00039639089 0.0050786556 -0.00010495741)
(-0.0025407959 0.014693432 -6.247881e-05)
(-0.00694419 0.023357892 -2.8872719e-05)
(-0.012909204 0.030860696 -4.5712961e-06)
(-0.02004559 0.037117215 1.5108303e-05)
(-0.028090217 0.042116755 3.0915446e-05)
(-0.036802032 0.045895624 4.3620283e-05)
(-0.045967052 0.048514649 5.402959e-05)
(-0.055397661 0.050041192 6.2699212e-05)
(-0.064925001 0.050537138 6.9939152e-05)
(-0.074392832 0.050052434 7.5848386e-05)
(-0.083653026 0.048623334 8.0338901e-05)
(-0.092562161 0.046274394 8.3165856e-05)
(-0.10097924 0.043023191 8.3965252e-05)
(-0.10876453 0.038886718 8.2297311e-05)
(-0.11577943 0.033888539 7.7694983e-05)
(-0.12188728 0.028065953 6.9716864e-05)
(-0.12695503 0.021476564 5.8002974e-05)
(-0.13085575 0.014203867 4.2330986e-05)
(-0.13347189 0.0063615017 2.2670076e-05)
(-0.13469939 -0.0019040458 -7.7211735e-07)
(-0.13445247 -0.010412585 -2.7520636e-05)
(-0.13266925 -0.01895128 -5.6804124e-05)
(-0.12931822 -0.027278284 -8.7571047e-05)
(-0.12440477 -0.035128902 -0.00011851818)
(-0.11797796 -0.042224747 -0.00014815481)
(-0.11013657 -0.04828601 -0.00017489612)
(-0.10103371 -0.053046728 -0.00019717944)
(-0.090878875 -0.056272567 -0.00021359377)
(-0.079936589 -0.057780161 -0.00022301013)
(-0.068520472 -0.057456541 -0.00022469825)
(-0.056982292 -0.055276791 -0.00021841196)
(-0.045695852 -0.051317779 -0.00020442606)
(-0.035036591 -0.045765982 -0.00018351124)
(-0.025358929 -0.038917962 -0.00015684033)
(-0.016973664 -0.03117326 -0.00012586965)
(-0.010123103 -0.023020457 -9.2376396e-05)
(-0.004957293 -0.015016269 -5.8296929e-05)
(-0.0015839106 -0.0077601622 -2.3125408e-05)
(-0.0001800053 -0.0018919982 1.4740571e-05)
(-0.0004368716 0.0064585457 -9.3560009e-05)
(-0.002786842 0.018316835 -4.5582704e-05)
(-0.0075958732 0.028778219 -9.0983852e-06)
(-0.014088592 0.037694774 1.7155439e-05)
(-0.021830733 0.045038054 3.84591e-05)
(-0.030532166 0.050846099 5.5751263e-05)
(-0.039931185 0.055195506 6.9961157e-05)
(-0.049799345 0.058178925 8.2026781e-05)
(-0.059939938 0.059887728 9.2584481e-05)
(-0.07017889 0.060400958 0.00010198023)
(-0.080357364 0.059780011 0.00011031223)
(-0.090326224 0.058068108 0.00011745993)
(-0.099941772 0.05529353 0.00012311816)
(-0.10906272 0.051475531 0.00012683817)
(-0.11754837 0.046631832 0.000128074)
(-0.1252578 0.040786793 0.00012623419)
(-0.13205013 0.033979476 0.00012073869)
(-0.13778551 0.026271086 0.00011107999)
(-0.14232715 0.017751388 9.6886738e-05)
(-0.14554413 0.0085438328 7.7987148e-05)
(-0.14731533 -0.0011908121 5.4467627e-05)
(-0.14753423 -0.01125256 2.6705928e-05)
(-0.14611507 -0.021402647 -4.5682173e-06)
(-0.14300016 -0.031366095 -3.8294815e-05)
(-0.13816793 -0.040837527 -7.30922e-05)
(-0.13164166 -0.049490425 -0.00010731361)
(-0.12349811 -0.056990255 -0.00013913992)
(-0.11387504 -0.063011623 -0.00016670515)
(-0.10297631 -0.067259147 -0.0001882455)
(-0.091073325 -0.069491078 -0.00020225719)
(-0.078501223 -0.069543993 -0.00020764582)
(-0.065648838 -0.067356171 -0.00020384883)
(-0.052941887 -0.062986774 -0.00019091103)
(-0.040819968 -0.056627888 -0.00016949157)
(-0.029709609 -0.048607051 -0.00014078084)
(-0.019996183 -0.039379321 -0.00010637352)
(-0.011992145 -0.029509451 -6.8319572e-05)
(-0.00590601 -0.019644323 -2.8927419e-05)
(-0.0018995902 -0.010479284 1.2381599e-05)
(-0.00021911067 -0.0027504881 5.4721156e-05)
(-0.00047275913 0.0079598242 -7.2423408e-05)
(-0.0030052963 0.022246584 -1.8741727e-05)
(-0.0081754534 0.034640583 2.0335105e-05)
(-0.015139587 0.045066224 4.8415662e-05)
(-0.023424994 0.053559972 7.1330695e-05)
(-0.03271798 0.06021669 9.0201198e-05)
(-0.042738839 0.065160289 0.00010610539)
(-0.053246752 0.068520994 0.00012009955)
(-0.064037677 0.070418644 0.00013288843)
(-0.074934005 0.070952687 0.00014484306)
(-0.085776046 0.070198137 0.00015605097)
(-0.096415534 0.068206405 0.00016634997)
(-0.10671049 0.065009898 0.00017536556)
(-0.1165214 0.060629184 0.00018255433)
(-0.12570859 0.055081641 0.00018725242)
(-0.13413072 0.048390638 0.00018872934)
(-0.14164423 0.040594544 0.00018624769)
(-0.14810363 0.031755059 0.00017912878)
(-0.1533628 0.021964565 0.00016682278)
(-0.15727727 0.011352283 0.00014898047)
(-0.15970763 8.9068535e-05 0.00012552272)
(-0.16052452 -0.011609357 9.6711018e-05)
(-0.1596149 -0.02348158 6.3174618e-05)
(-0.15689004 -0.03522164 2.5955374e-05)
(-0.15229522 -0.046483843 -1.35057e-05)
(-0.1458205 -0.056891489 -5.3409507e-05)
(-0.13751219 -0.066050322 -9.1683443e-05)
(-0.12748375 -0.073567212 -0.00012611086)
(-0.11592487 -0.079074039 -0.00015449893)
(-0.10310664 -0.082256014 -0.00017486979)
(-0.089381047 -0.082882612 -0.00018565364)
(-0.075172896 -0.080838238 -0.00018585997)
(-0.060963046 -0.07614883 -0.00017520332)
(-0.047262984 -0.069000211 -0.00015415529)
(-0.034583019 -0.059744483 -0.00012388641)
(-0.023397354 -0.0488924 -8.6138913e-05)
(-0.01410342 -0.037091822 -4.3290332e-05)
(-0.0069814185 -0.025092579 1.895023e-06)
(-0.0022590002 -0.01370293 5.0042932e-05)
(-0.00026414508 -0.0037760365 9.7601288e-05)
(-0.00050354934 0.0095674069 -4.0577974e-05)
(-0.0031932653 0.026445093 1.903651e-05)
(-0.0086753761 0.040891952 6.0392139e-05)
(-0.016048441 0.052912397 9.0157635e-05)
(-0.024807284 0.062615196 0.00011466154)
(-0.034618308 0.070158979 0.00013520008)
(-0.045186652 0.075721147 0.00015299125)
(-0.056261328 0.079474741 0.00016919827)
(-0.067632765 0.081572283 0.00018458453)
(-0.079121476 0.082136834 0.00019953794)
(-0.090568605 0.081259268 0.00021412838)
(-0.10182856 0.079000539 0.00022814578)
(-0.11276304 0.075397679 0.00024113985)
(-0.12323636 0.070472262 0.00025246478)
(-0.13311203 0.064240201 0.00026132827)
(-0.14225041 0.056721945 0.00026684609)
(-0.15050722 0.047952418 0.00026810352)
(-0.15773308 0.037990279 0.00026422414)
(-0.16377389 0.026926287 0.00025444564)
(-0.16847238 0.014890629 0.0002382003)
(-0.17167094 0.0020590952 0.00021519764)
(-0.17321623 -0.011342158 0.00018551412)
(-0.17296555 -0.025033637 0.00014963862)
(-0.17079534 -0.038682089 0.00010854246)
(-0.16661208 -0.051903429 6.3687717e-05)
(-0.16036517 -0.064270157 1.7006419e-05)
(-0.15206126 -0.075324362 -2.9169652e-05)
(-0.14177911 -0.084597267 -7.2235005e-05)
(-0.12968322 -0.09163579 -0.00010949189)
(-0.11603411 -0.096035696 -0.00013837614)
(-0.10119254 -0.097479645 -0.00015670423)
(-0.085614918 -0.095776861 -0.00016291038)
(-0.069837915 -0.090899613 -0.00015624088)
(-0.054451312 -0.083010742 -0.00013686796)
(-0.0400611 -0.072476592 -0.00010587237)
(-0.027246432 -0.059861589 -6.5128466e-05)
(-0.016507676 -0.045903524 -1.7387566e-05)
(-0.0082137569 -0.031469809 3.4039494e-05)
(-0.0026743146 -0.017501816 8.9805254e-05)
(-0.00031729472 -0.0049938502 0.00014352449)
(-0.0005286788 0.011264606 2.8064389e-06)
(-0.0033477279 0.030870992 6.859643e-05)
(-0.0090880239 0.047473881 0.00011189428)
(-0.016801533 0.061163928 0.00014319316)
(-0.025956808 0.072128145 0.00016925939)
(-0.03620407 0.080594633 0.00019155634)
(-0.047236152 0.086799569 0.00021143296)
(-0.058794071 0.090963468 0.00023014964)
(-0.070664452 0.093275469 0.00024852114)
(-0.082667488 0.093885379 0.00026694726)
(-0.094646735 0.092902248 0.0002854767)
(-0.10646099 0.090398062 0.00030384866)
(-0.11797751 0.086415142 0.00032153405)
(-0.12906656 0.080975897 0.00033778001)
(-0.13959713 0.07409374 0.00035165777)
(-0.14943366 0.065784275 0.00036211622)
(-0.15843367 0.056076143 0.0003680433)
(-0.16644632 0.045021211 0.00036833657)
(-0.17331185 0.032703983 0.00036198359)
(-0.17886214 0.019250202 0.00034815102)
(-0.1829228 0.0048345979 0.00032628074)
(-0.18531701 -0.010312464 0.00029619198)
(-0.18587162 -0.025899663 0.00025816679)
(-0.18442582 -0.0415719 0.0002130344)
(-0.1808428 -0.056910652 0.00016221714)
(-0.17502432 -0.07143912 0.00010773828)
(-0.16692796 -0.084633727 5.2175033e-05)
(-0.15658598 -0.095943507 -1.4550381e-06)
(-0.14412434 -0.10481854 -4.9880866e-05)
(-0.12977924 -0.11074767 -8.9834392e-05)
(-0.11390778 -0.11330425 -0.00011835707)
(-0.096989186 -0.11219644 -0.00013312023)
(-0.079612683 -0.10731649 -0.00013271385)
(-0.062450171 -0.098781105 -0.00011684883)
(-0.046214593 -0.08695481 -8.6402326e-05)
(-0.031607684 -0.072449764 -4.3332472e-05)
(-0.019254116 -0.056099154 9.2049178e-06)
(-0.009633122 -0.038903855 6.7257253e-05)
(-0.0031578245 -0.021961616 0.0001314846)
(-0.00038078445 -0.006435584 0.00019251279)
(-0.00054759729 0.01303312 5.8397313e-05)
(-0.003465847 0.035479246 0.00013061308)
(-0.0094063691 0.054322778 0.0001754981)
(-0.017386345 0.069745045 0.0002081719)
(-0.026854357 0.082015611 0.00023577073)
(-0.037448046 0.091436446 0.00025991525)
(-0.048850638 0.098306824 0.00028207693)
(-0.060797158 0.1028988 0.00030360516)
(-0.073071983 0.10544175 0.00032536162)
(-0.085496369 0.10611529 0.00034775658)
(-0.097917699 0.10504905 0.00037081797)
(-0.11020073 0.10232771 0.00039423553)
(-0.12222012 0.097999774 0.00041740233)
(-0.1338542 0.092088561 0.00043945767)
(-0.14497982 0.084604178 0.00045933204)
(-0.15546824 0.075555655 0.00047579748)
(-0.16518179 0.064962645 0.0004875267)
(-0.17397139 0.052866502 0.00049316349)
(-0.18167494 0.039340734 0.00049140607)
(-0.18811679 0.024500907 0.00048110367)
(-0.19310875 0.0085140679 0.00046136543)
(-0.19645292 -0.0083924607 0.00043167934)
(-0.19794694 -0.025923216 0.0003920303)
(-0.19739231 -0.043708679 0.00034301387)
(-0.19460616 -0.061302304 0.00028592475)
(-0.18943698 -0.078182325 0.00022280549)
(-0.18178422 -0.09376041 0.00015643572)
(-0.1716212 -0.10739942 9.0243776e-05)
(-0.15901983 -0.11844236 2.8126059e-05)
(-0.14417458 -0.12625373 -2.5831702e-05)
(-0.12742169 -0.13027297 -6.7719662e-05)
(-0.10924861 -0.13007681 -9.4220676e-05)
(-0.090288394 -0.1254443 -0.00010302208)
(-0.071294596 -0.11641471 -9.3144299e-05)
(-0.053096349 -0.10332662 -6.5084671e-05)
(-0.036536372 -0.086827699 -2.0789117e-05)
(-0.0223884 -0.067848789 3.6175871e-05)
(-0.011268743 -0.047540344 0.00010112004)
(-0.0037218376 -0.027182675 0.00017469069)
(-0.00045691113 -0.0081393691 0.0002443887)
(-0.00055984299 0.01485321 0.00012667498)
(-0.0035453278 0.040221635 0.00020557091)
(-0.0096247824 0.061370566 0.00025167442)
(-0.017792756 0.078574261 0.00028555794)
(-0.027484056 0.092187335 0.00031465235)
(-0.038327061 0.10258862 0.00034072413)
(-0.049997803 0.11014382 0.00036535918)
(-0.062227048 0.11518001 0.00038998964)
(-0.074798227 0.11797013 0.00041552288)
(-0.087534814 0.1187266 0.00044238215)
(-0.10028924 0.11760214 0.00047057953)
(-0.11293364 0.11469602 0.00049976125)
(-0.12535179 0.11006414 0.00052924813)
(-0.13743214 0.10373114 0.00055807543)
(-0.14906197 0.095703392 0.00058503315)
(-0.16012231 0.085982 0.0006087111)
(-0.17048375 0.074575294 0.00062755321)
(-0.18000291 0.061510714 0.00063992511)
(-0.18851971 0.046846226 0.00064419819)
(-0.19585563 0.030681487 0.00063885171)
(-0.2018134 0.013168926 0.00062259324)
(-0.20617842 -0.0054752412 0.00059449594)
(-0.20872277 -0.024960371 0.00055414663)
(-0.20921231 -0.044911962 0.00050179551)
(-0.20741785 -0.064864619 0.00043849357)
(-0.20313109 -0.084259389 0.00036619469)
(-0.19618576 -0.10244801 0.00028779791)
(-0.18648401 -0.11870713 0.00020710267)
(-0.17402686 -0.1322657 0.00012865197)
(-0.15894645 -0.14234819 5.7445984e-05)
(-0.14153564 -0.14823475 -1.4745897e-06)
(-0.12226893 -0.14933633 -4.3548084e-05)
(-0.10180713 -0.14527839 -6.5253242e-05)
(-0.080978599 -0.13598154 -6.4609655e-05)
(-0.060733813 -0.12172347 -4.1472965e-05)
(-0.04207425 -0.1031657 2.3899161e-06)
(-0.025950436 -0.081333089 6.3036595e-05)
(-0.013148219 -0.057540435 0.00013494983)
(-0.00437859 -0.033279348 0.00021874208)
(-0.00054808253 -0.010149826 0.00029868847)
(-0.00056512139 0.016704079 0.00020791032)
(-0.0035848134 0.045047662 0.00029374578)
(-0.0097399592 0.068545871 0.00034069175)
(-0.018014554 0.087565613 0.00037561103)
(-0.027835451 0.10254709 0.00040614792)
(-0.038824639 0.11394754 0.00043420196)
(-0.050652952 0.1222015 0.00046146629)
(-0.063048279 0.12769392 0.00048945227)
(-0.075794112 0.13074441 0.00051911536)
(-0.088717055 0.13160118 0.00055089875)
(-0.10167559 0.13044267 0.00058480844)
(-0.11455049 0.12738494 0.00062045821)
(-0.12723622 0.12249283 0.00065710748)
(-0.13963341 0.11579316 0.00069369648)
(-0.15164226 0.10728866 0.00072888023)
(-0.16315673 0.096971723 0.00076106643)
(-0.17405948 0.084837601 0.00078846261)
(-0.18421735 0.070897003 0.00080913803)
(-0.19347749 0.055188344 0.00082110526)
(-0.20166442 0.037790002 0.0008224249)
(-0.20857813 0.018832939 0.00081133527)
(-0.21399384 -0.0014861794 0.00078640699)
(-0.21766417 -0.022891509 0.00074672041)
(-0.21932432 -0.045014835 0.00069205283)
(-0.21870167 -0.067383912 0.00062307011)
(-0.21553069 -0.089414232 0.00054149286)
(-0.20957446 -0.11040722 0.00045020917)
(-0.20065333 -0.12955863 0.00035329696)
(-0.18868056 -0.14598155 0.00025591698)
(-0.17370304 -0.15874863 0.0001640429)
(-0.15594293 -0.16695675 8.4010489e-05)
(-0.13583323 -0.16981424 2.1898219e-05)
(-0.11403752 -0.16674545 -1.7203979e-05)
(-0.091443178 -0.15749983 -2.9915244e-05)
(-0.069120383 -0.14224538 -1.5079258e-05)
(-0.048244271 -0.12162237 2.598424e-05)
(-0.02997176 -0.096736398 8.9059568e-05)
(-0.015296598 -0.069077449 0.00016773497)
(-0.005140119 -0.040378922 0.00026256632)
(-0.00065685382 -0.01251805 0.00035456054)
(-0.00056338708 0.018564474 0.00030214803)
(-0.0035843112 0.049905937 0.00039519369)
(-0.0097519398 0.075775805 0.00044260697)
(-0.018051127 0.096630523 0.00047837558)
(-0.027905883 0.11299439 0.00051027229)
(-0.038934023 0.12540319 0.00054031641)
(-0.050802656 0.1343618 0.00057030333)
(-0.063237776 0.14031546 0.00060182377)
(-0.076023653 0.14363333 0.00063588847)
(-0.088990715 0.14460241 0.00067297257)
(-0.10200433 0.14342972 0.00071309085)
(-0.11495499 0.14025057 0.00075584094)
(-0.12774935 0.13514071 0.00080043716)
(-0.14030211 0.12813055 0.00084573931)
(-0.15252892 0.11921982 0.0008902788)
(-0.16433985 0.10839213 0.00093228757)