/*--------------------------------*- C++ -*----------------------------------*\
  =========                 |
  \\      /  F ield         | OpenFOAM: The Open Source CFD Toolbox
   \\    /   O peration     | Website:  https://openfoam.org
    \\  /    A nd           | Version:  7
     \\/     M anipulation  |
\*---------------------------------------------------------------------------*/
FoamFile
{
    version     2.0;
    format      ascii;
    class       volVectorField;
    location    "26";
    object      U_0;
}
// * * * * * * * * * * * * * * * * * * * * * * * * * * * * * * * * * * * * * //

dimensions      [0 1 -1 0 0 0 0];

internalField   nonuniform List<vector> 
16000
(
(6.600111e-05 -6.7375528e-05 -4.3139357e-07)
(0.00016269021 -5.6379016e-05 5.6664901e-06)
(0.00014189419 4.533651e-07 1.916595e-05)
(-5.0630692e-05 6.1886459e-05 3.6588354e-05)
(-0.0004099777 0.00011562898 5.4696787e-05)
(-0.00090902764 0.00015774268 7.1525068e-05)
(-0.0015177105 0.00018850401 8.5737135e-05)
(-0.0022068828 0.00020960843 9.6517794e-05)
(-0.0029505958 0.00022287608 0.00010340665)
(-0.0037264568 0.00022981033 0.00010615679)
(-0.00451504 0.00023147627 0.00010464102)
(-0.0052990001 0.00022850312 9.8796343e-05)
(-0.0060621774 0.00022114658 8.8598081e-05)
(-0.0067888459 0.00020938224 7.4056754e-05)
(-0.0074631957 0.00019301292 5.5231101e-05)
(-0.0080690949 0.00017177984 3.2251354e-05)
(-0.0085901459 0.00014547099 5.3474223e-06)
(-0.0090100249 0.00011402134 -2.5122805e-05)
(-0.0093130765 7.7601024e-05 -5.8649414e-05)
(-0.0094851221 3.6687297e-05 -9.4554662e-05)
(-0.009514422 -7.8862202e-06 -0.00013198886)
(-0.0093927043 -5.4923712e-05 -0.00016994087)
(-0.0091162001 -0.00010284319 -0.0002072644)
(-0.0086865805 -0.00014974928 -0.00024272169)
(-0.0081116725 -0.00019351192 -0.00027504289)
(-0.0074058786 -0.00023188551 -0.00030299893)
(-0.0065902061 -0.00026265934 -0.00032548329)
(-0.0056918426 -0.00028382538 -0.00034159623)
(-0.0047432523 -0.00029374736 -0.00035072389)
(-0.0037808131 -0.00029131232 -0.00035260493)
(-0.0028430615 -0.00027604748 -0.00034737855)
(-0.001968652 -0.00024818803 -0.00033561058)
(-0.0011941449 -0.00020869502 -0.00031829637)
(-0.00055166779 -0.00015925922 -0.00029684207)
(-6.6508786e-05 -0.00010240764 -0.00027301868)
(0.00024491807 -4.1758206e-05 -0.00024888338)
(0.00037893847 1.7847336e-05 -0.0002268154)
(0.00034978243 6.7075503e-05 -0.00020924803)
(0.00020618352 8.9861931e-05 -0.00019885458)
(5.7463174e-05 5.7413232e-05 -0.00018440521)
(5.7978929e-05 -0.00016709148 -6.6645348e-06)
(4.0840666e-05 -3.9998448e-05 -4.1238949e-07)
(-0.00029500474 0.0002485449 1.1220995e-05)
(-0.0010110442 0.00056211228 2.5586949e-05)
(-0.0020992404 0.00084748948 4.0571833e-05)
(-0.0035140928 0.0010831156 5.4579847e-05)
(-0.0051946839 0.0012642969 6.6483758e-05)
(-0.0070766203 0.0013940636 7.5531311e-05)
(-0.0090981339 0.0014779563 8.1240663e-05)
(-0.011202282 0.0015215224 8.3312101e-05)
(-0.013337004 0.0015292061 8.1562297e-05)
(-0.01545414 0.0015039708 7.5881322e-05)
(-0.017508105 0.0014473526 6.621086e-05)
(-0.019454664 0.0013597736 5.2540144e-05)
(-0.021250098 0.0012409979 3.4915278e-05)
(-0.022850912 0.001090655 1.3457437e-05)
(-0.024214158 0.00090877205 -1.161439e-05)
(-0.025298361 0.00069627341 -3.9960281e-05)
(-0.026064982 0.00045541293 -7.1099621e-05)
(-0.026480322 0.00019010639 -0.00010439822)
(-0.026517739 -9.3864533e-05 -0.00013906521)
(-0.026159914 -0.00038877379 -0.00017416897)
(-0.025401099 -0.00068508808 -0.00020865366)
(-0.024249105 -0.00097175598 -0.00024138702)
(-0.022726692 -0.0012366903 -0.00027121355)
(-0.020872298 -0.0014674239 -0.00029702163)
(-0.01873987 -0.0016519003 -0.00031781872)
(-0.016397682 -0.0017793445 -0.00033280886)
(-0.013926099 -0.0018411402 -0.00034146529)
(-0.011414296 -0.0018316313 -0.00034359033)
(-0.008956083 -0.0017487739 -0.0003393556)
(-0.006644996 -0.0015945842 -0.00032931915)
(-0.0045688945 -0.0013753853 -0.00031441896)
(-0.0028042266 -0.0011019621 -0.00029594498)
(-0.0014100242 -0.00078992118 -0.0002754901)
(-0.00042163611 -0.00046059141 -0.00025487196)
(0.00015577045 -0.00014256055 -0.00023600629)
(0.00035672734 0.00012231872 -0.00022090639)
(0.00027525824 0.00027113779 -0.00021166794)
(9.011761e-05 0.00020509697 -0.00019547163)
(1.9082187e-06 -0.0001489862 -2.0450961e-05)
(-0.00025607006 0.00029699261 -1.1833908e-05)
(-0.0010504727 0.0010236014 6.4319184e-08)
(-0.0023878424 0.0017975203 1.3044343e-05)
(-0.0042394509 0.0025098872 2.6080535e-05)
(-0.0065455599 0.0031100422 3.803195e-05)
(-0.0092251111 0.0035809111 4.8071586e-05)
(-0.012189975 0.0039234188 5.5638867e-05)
(-0.015352953 0.004146171 6.0352195e-05)
(-0.018631008 0.0042595767 6.1954853e-05)
(-0.02194602 0.0042728008 6.0273859e-05)
(-0.025224186 0.0041924614 5.5191403e-05)
(-0.028394841 0.0040224562 4.6631196e-05)
(-0.031389299 0.0037645113 3.4558135e-05)
(-0.03414012 0.0034191589 1.8988349e-05)
(-0.036581034 0.0029869298 6.3706078e-09)
(-0.038647636 0.0024695977 -2.2213954e-05)
(-0.040278825 0.0018713529 -4.7388195e-05)
(-0.041418933 0.0011998047 -7.5102899e-05)
(-0.042020381 0.00046672902 -0.00010480325)
(-0.042046648 -0.00031149818 -0.00013579137)
(-0.041475357 -0.0011138073 -0.00016723191)
(-0.040301208 -0.0019148693 -0.00019817757)
(-0.038538455 -0.0026858528 -0.00022760524)
(-0.036222661 -0.0033956668 -0.00025446704)
(-0.033411501 -0.0040125948 -0.00027775282)
(-0.030184359 -0.0045062351 -0.00029655983)
(-0.026640587 -0.0048496226 -0.00031016461)
(-0.022896335 -0.0050213736 -0.0003180906)
(-0.019079984 -0.0050076732 -0.00032016425)
(-0.015326303 -0.0048039407 -0.00031655165)
(-0.011769555 -0.004416058 -0.00030777001)
(-0.0085358279 -0.003861153 -0.00029467255)
(-0.0057348802 -0.0031680962 -0.00027841027)
(-0.0034517065 -0.0023781104 -0.00026037575)
(-0.0017379826 -0.001546188 -0.00024212661)
(-0.00060368558 -0.00074419183 -0.00022527728)
(-8.0371178e-06 -6.6365768e-05 -0.00021142151)
(0.00015540465 0.00036039347 -0.00020224259)
(7.3549818e-05 0.00035437292 -0.00018532184)
(-6.4688956e-05 5.0413308e-05 -3.8702872e-05)
(-0.00060839238 0.0010457387 -2.6165796e-05)
(-0.0019305512 0.0023817113 -1.2184585e-05)
(-0.0039464467 0.0037564923 1.1081129e-06)
(-0.0065890158 0.0050152868 1.3696308e-05)
(-0.0097791906 0.0060800355 2.4820585e-05)
(-0.013417106 0.0069204931 3.3943635e-05)
(-0.017395496 0.0075340841 4.0730161e-05)
(-0.021607691 0.0079313667 4.4944279e-05)
(-0.025950637 0.0081270107 4.6414191e-05)
(-0.030325778 0.0081347392 4.5009093e-05)
(-0.034638714 0.0079649735 4.0622621e-05)
(-0.038798267 0.0076243481 3.3167698e-05)
(-0.042715575 0.0071164833 2.2582046e-05)
(-0.046303632 0.0064435315 8.8419881e-06)
(-0.04947754 0.0056081255 -8.0179695e-06)
(-0.052155588 0.0046154342 -2.7882458e-05)
(-0.054261146 0.0034751011 -5.0532347e-05)
(-0.055725271 0.0022028836 -7.5624584e-05)
(-0.056489872 0.00082185128 -0.00010267802)
(-0.056511174 -0.00063696454 -0.00013106822)
(-0.055763282 -0.0021345864 -0.00016003024)
(-0.054241514 -0.0036248002 -0.00018868182)
(-0.051965174 -0.0050556017 -0.00021605553)
(-0.048979532 -0.0063713706 -0.00024114827)
(-0.045356691 -0.0075156931 -0.00026298301)
(-0.041195089 -0.0084347003 -0.0002806783)
(-0.036617448 -0.0090807217 -0.00029351986)
(-0.031767072 -0.0094159989 -0.00030102752)
(-0.026802462 -0.0094161745 -0.00030301085)
(-0.021890374 -0.0090732805 -0.00029960607)
(-0.017197538 -0.0083980205 -0.0002912871)
(-0.012881364 -0.0074212801 -0.00027884637)
(-0.0090800424 -0.0061950112 -0.00026334712)
(-0.0059024779 -0.0047929247 -0.00024605479)
(-0.0034184984 -0.003311815 -0.00022835655)
(-0.001649534 -0.0018745347 -0.00021168114)
(-0.00055980158 -0.00063471314 -0.00019742664)
(-5.0115748e-05 0.00021499566 -0.00018682855)
(3.8093955e-05 0.00041382933 -0.00016802016)
(-0.00013086739 0.00044555481 -5.8219156e-05)
(-0.00097095486 0.0022426667 -4.1155817e-05)
(-0.0028462161 0.0043591525 -2.4273453e-05)
(-0.0055648109 0.0064571753 -9.8412593e-06)
(-0.0090094284 0.0083534334 3.0771696e-06)
(-0.013075433 0.0099514072 1.4057144e-05)
(-0.017642234 0.011211702 2.2835683e-05)
(-0.022584617 0.012129536 2.930789e-05)
(-0.02777955 0.012717477 3.3396561e-05)
(-0.033108012 0.012994099 3.5028901e-05)
(-0.038455374 0.01297732 3.412765e-05)
(-0.043710989 0.012681171 3.0604395e-05)
(-0.048767363 0.012115088 2.4362249e-05)
(-0.053519459 0.01128495 1.5307705e-05)
(-0.057864513 0.010195227 3.3694063e-06)
(-0.061702595 0.008851714 -1.1478194e-05)
(-0.064938021 0.0072644189 -2.9188496e-05)
(-0.06748158 0.0054502777 -4.9616208e-05)
(-0.069253485 0.0034354288 -7.2493414e-05)
(-0.070186857 0.0012568446 -9.7411356e-05)
(-0.070231512 -0.0010368422 -0.00012381089)
(-0.06935781 -0.0033854585 -0.000150984)
(-0.067560266 -0.0057183713 -0.00017809012)
(-0.064860615 -0.007956655 -0.00020418743)
(-0.061310032 -0.010016266 -0.0002282806)
(-0.056990213 -0.011812149 -0.00024938308)
(-0.052013017 -0.013263096 -0.00026658949)
(-0.046518443 -0.014297099 -0.00027915107)
(-0.040670753 -0.014856844 -0.00028654606)
(-0.034652688 -0.014904954 -0.0002885371)
(-0.028657837 -0.014428569 -0.0002852092)
(-0.02288136 -0.013442933 -0.00027698204)
(-0.017509448 -0.011993797 -0.00026459145)
(-0.012708036 -0.010158695 -0.00024903762)
(-0.008611455 -0.0080474862 -0.00023150461)
(-0.0053117499 -0.0058029535 -0.00021326908)
(-0.0028485193 -0.0036024749 -0.00019564206)
(-0.0012000359 -0.0016605481 -0.00017989183)
(-0.00028881036 -0.00023378551 -0.00016674733)
(-2.4708662e-06 0.00035046274 -0.0001455146)
(-0.00019286539 0.0010312972 -7.6699369e-05)
(-0.0013239865 0.0038925068 -5.4797429e-05)
(-0.0037518531 0.0069679589 -3.4592656e-05)
(-0.0071732873 0.0099107685 -1.8499234e-05)
(-0.011414782 0.01252734 -4.7036511e-06)
(-0.016341441 0.014714442 6.6589886e-06)
(-0.021809558 0.016430436 1.5575812e-05)
(-0.027675796 0.017671951 2.2161408e-05)
(-0.033802293 0.01845518 2.6494167e-05)
(-0.040056721 0.018803145 2.8600781e-05)
(-0.046311689 0.018738012 2.845852e-05)
(-0.052443891 0.018277345 2.599646e-05)
(-0.058333166 0.017433377 2.1105045e-05)
(-0.063861854 0.016214442 1.3654127e-05)
(-0.068914768 0.014627777 3.5172193e-06)
(-0.073379965 0.012683071 -9.399862e-06)
(-0.077150367 0.010396181 -2.5127845e-05)
(-0.0801262 0.0077926188 -4.3602498e-05)
(-0.082218137 0.0049104375 -6.4635461e-05)
(-0.083350964 0.001802285 -8.7890563e-05)
(-0.083467571 -0.0014635941 -0.00011286898)
(-0.082533018 -0.0048035537 -0.00013890689)
(-0.080538419 -0.0081200114 -0.00016518719)
(-0.077504366 -0.01130429 -0.00019076911)
(-0.07348356 -0.014240777 -0.00021463456)
(-0.068562349 -0.016812331 -0.00023575125)
(-0.06286084 -0.018906717 -0.00025314883)
(-0.056531255 -0.020423793 -0.00026600099)
(-0.049754291 -0.021282984 -0.00027370386)
(-0.042733299 -0.021430547 -0.00027594017)
(-0.035686275 -0.020846063 -0.00027272063)
(-0.028835851 -0.019547623 -0.00026439766)
(-0.02239766 -0.017595349 -0.00025164839)
(-0.016567728 -0.015093135 -0.00023542401)
(-0.011509846 -0.012188835 -0.0002168637)
(-0.0073438886 -0.0090736587 -0.00019719307)
(-0.0041345318 -0.0059816691 -0.00017768188)
(-0.0018815973 -0.0031890405 -0.00015956286)
(-0.00053619254 -0.0010143273 -0.00014316779)
(-4.1245479e-05 0.00015894564 -0.00011907498)
(-0.00025011623 0.0017985606 -9.2186029e-05)
(-0.0016597695 0.0059841103 -6.5297927e-05)
(-0.0046244457 0.010198568 -4.1611587e-05)
(-0.0087321471 0.014106957 -2.3556768e-05)
(-0.013751566 0.017522262 -8.5184499e-06)
(-0.019515022 0.020347035 3.6203868e-06)
(-0.025854065 0.022545836 1.3071601e-05)
(-0.032606906 0.024121912 2.0151324e-05)
(-0.039621753 0.025098017 2.5081781e-05)
(-0.046754857 0.025503087 2.7981204e-05)
(-0.053868621 0.02536414 2.887519e-05)
(-0.060830046 0.024702454 2.7704479e-05)
(-0.067509417 0.023533097 2.4340514e-05)
(-0.073779525 0.021866909 1.8609247e-05)
(-0.079515619 0.019714064 1.0320919e-05)
(-0.084596229 0.017088442 -6.9589434e-07)
(-0.088904844 0.014012197 -1.4557669e-05)
(-0.092332413 0.010519986 -3.1288738e-05)
(-0.094780529 0.0066624732 -5.0786043e-05)
(-0.096165175 0.002508813 -7.278894e-05)
(-0.096420834 -0.0018521239 -9.6857807e-05)
(-0.095504751 -0.0063119584 -0.00012236619)
(-0.093401165 -0.010744541 -0.00014850744)
(-0.090125226 -0.015009361 -0.0001743223)
(-0.085726268 -0.018956596 -0.00019874439)
(-0.080290126 -0.022433743 -0.00022066453)
(-0.07394009 -0.025293662 -0.00023901054)
(-0.066836071 -0.027403682 -0.0002528365)
(-0.059171606 -0.028655288 -0.00026141195)
(-0.05116838 -0.028973736 -0.00026429846)
(-0.043068145 -0.028326847 -0.00026140103)
(-0.035122117 -0.026732212 -0.00025298674)
(-0.02757828 -0.024262186 -0.00023966913)
(-0.020667304 -0.021046258 -0.00022235875)
(-0.014588321 -0.017270865 -0.00020217631)
(-0.0094958025 -0.013177202 -0.00018034707)
(-0.0054864812 -0.0090579193 -0.00015817437)
(-0.0025879494 -0.0052522166 -0.00013694344)
(-0.00078446844 -0.0021405388 -0.00011665879)
(-7.6873762e-05 -0.00016054224 -8.9451396e-05)
(-0.00030295529 0.0027365171 -0.00010300955)
(-0.0019754933 0.0084980671 -7.1040757e-05)
(-0.0054521257 0.01402852 -4.3893042e-05)
(-0.010217942 0.019021316 -2.3748423e-05)
(-0.015985132 0.023311007 -7.2531452e-06)
(-0.022552728 0.026818098 5.935795e-06)
(-0.029727089 0.029522326 1.6232955e-05)
(-0.037328086 0.031439669 2.4136236e-05)
(-0.045190837 0.032603293 2.9995768e-05)
(-0.053161717 0.033050264 3.4008479e-05)
(-0.061095047 0.032813587 3.6237495e-05)
(-0.068850633 0.031918724 3.6625655e-05)
(-0.076291891 0.030383692 3.5016395e-05)
(-0.083284719 0.028221777 3.1182771e-05)
(-0.089697262 0.025445948 2.4862418e-05)
(-0.095400587 0.022074113 1.5797e-05)
(-0.10027026 0.018134526 3.7745579e-06)
(-0.10418872 0.013670776 -1.1327185e-05)
(-0.10704839 0.0087459204 -2.9499005e-05)
(-0.10875541 0.0034454567 -5.0562864e-05)
(-0.10923373 -0.0021211355 -7.4142956e-05)
(-0.10842968 -0.0078204732 -9.9651063e-05)
(-0.10631654 -0.013497086 -0.00012628579)
(-0.10289916 -0.018977208 -0.00015305698)
(-0.098218159 -0.024074514 -0.00017882956)
(-0.092353312 -0.02859786 -0.00020238971)
(-0.085425814 -0.032360873 -0.00022252902)
(-0.077598705 -0.03519308 -0.00023814111)
(-0.069074997 -0.036952047 -0.00024832213)
(-0.060092974 -0.037535741 -0.00025246307)
(-0.050918353 -0.036894156 -0.00025031857)
(-0.041833263 -0.035039125 -0.0002420392)
(-0.033122413 -0.032051304 -0.00022816213)
(-0.025057248 -0.028083584 -0.00020956214)
(-0.017879614 -0.023360632 -0.00018736267)
(-0.011786457 -0.018174965 -0.00016282984)
(-0.0069140562 -0.012880379 -0.00013736687)
(-0.0033238327 -0.0078822561 -0.00011239723)
(-0.0010368612 -0.0036261506 -8.7689776e-05)
(-0.00011093505 -0.00060702346 -5.7247671e-05)
(-0.000351692 0.0038338062 -0.00010770641)
(-0.0022696783 0.011410316 -7.0551883e-05)
(-0.0062274585 0.018427228 -4.007409e-05)
(-0.01161471 0.024619862 -1.7823756e-05)
(-0.018090257 0.029857447 2.4014499e-07)
(-0.025420936 0.034089751 1.4669478e-05)
(-0.033388603 0.037320577 2.6063683e-05)
(-0.041795531 0.039585106 3.5083546e-05)
(-0.050464799 0.040931298 4.2190116e-05)
(-0.059234392 0.041407095 4.7644208e-05)
(-0.067952448 0.041053046 5.1533499e-05)
(-0.076473787 0.039899536 5.3791394e-05)
(-0.084657319 0.03796772 5.422275e-05)
(-0.092364413 0.035273164 5.2537514e-05)
(-0.099458272 0.031831198 4.8390265e-05)
(-0.10580429 0.02766311 4.1424593e-05)
(-0.11127134 0.022802411 3.1321051e-05)
(-0.11573388 0.017300598 1.7846801e-05)
(-0.11907481 0.011231976 9.0444027e-07)
(-0.12118906 0.0046972074 -1.9422915e-05)
(-0.12198774 -0.0021746746 -4.2834288e-05)
(-0.12140279 -0.0092260099 -6.8788646e-05)
(-0.11939215 -0.016272115 -9.6493641e-05)
(-0.11594517 -0.023105192 -0.00012492486)
(-0.11108793 -0.029500468 -0.00015286505)
(-0.10488813 -0.035224814 -0.00017897112)
(-0.097459062 -0.040047776 -0.0002018636)
(-0.088961807 -0.043754779 -0.00022023221)
(-0.079605062 -0.046161974 -0.00023294908)
(-0.069641723 -0.047131822 -0.00023917832)
(-0.059361725 -0.046588231 -0.00023846688)
(-0.049080839 -0.044529755 -0.00023080003)
(-0.039125665 -0.041039394 -0.00021660913)
(-0.029815678 -0.036289675 -0.00019672862)
(-0.021444097 -0.030542316 -0.00017230255)
(-0.01425948 -0.024142593 -0.00014467497)
(-0.0084461056 -0.01750917 -0.00011540769)
(-0.0041057481 -0.01111909 -8.6142611e-05)
(-0.0013000773 -0.0054896914 -5.6484139e-05)
(-0.00014466044 -0.0011817431 -2.2530463e-05)
(-0.00039639108 0.0050786558 -0.00010495741)
(-0.0025407961 0.014693432 -6.247881e-05)
(-0.0069441897 0.023357891 -2.8872719e-05)
(-0.012909203 0.030860695 -4.5712961e-06)
(-0.02004559 0.037117214 1.5108303e-05)
(-0.028090216 0.042116755 3.0915446e-05)
(-0.036802032 0.045895624 4.3620283e-05)
(-0.045967052 0.048514648 5.402959e-05)
(-0.055397661 0.050041191 6.2699212e-05)
(-0.064925 0.050537137 6.9939152e-05)
(-0.074392831 0.050052433 7.5848386e-05)
(-0.083653025 0.048623333 8.0338901e-05)
(-0.09256216 0.046274394 8.3165856e-05)
(-0.10097924 0.043023192 8.3965252e-05)
(-0.10876453 0.038886719 8.2297311e-05)
(-0.11577943 0.033888539 7.7694983e-05)
(-0.12188727 0.028065951 6.9716864e-05)
(-0.12695502 0.021476563 5.8002974e-05)
(-0.13085575 0.014203868 4.2330986e-05)
(-0.13347189 0.006361505 2.2670076e-05)
(-0.1346994 -0.0019040426 -7.7211735e-07)
(-0.13445246 -0.010412585 -2.7520636e-05)
(-0.13266925 -0.018951284 -5.6804124e-05)
(-0.12931822 -0.027278288 -8.7571047e-05)
(-0.12440477 -0.035128901 -0.00011851818)
(-0.11797797 -0.042224739 -0.00014815481)
(-0.11013658 -0.048286002 -0.00017489612)
(-0.1010337 -0.053046729 -0.00019717944)
(-0.090878864 -0.056272577 -0.00021359377)
(-0.079936581 -0.057780168 -0.00022301013)
(-0.068520477 -0.057456536 -0.00022469825)
(-0.056982303 -0.055276778 -0.00021841196)
(-0.045695854 -0.051317774 -0.00020442606)
(-0.035036582 -0.04576599 -0.00018351124)
(-0.025358921 -0.038917969 -0.00015684033)
(-0.016973667 -0.031173258 -0.00012586965)
(-0.010123108 -0.023020451 -9.2376396e-05)
(-0.0049572937 -0.015016268 -5.8296929e-05)
(-0.0015839083 -0.0077601639 -2.3125408e-05)
(-0.00018000418 -0.0018919993 1.4740571e-05)
(-0.00043687168 0.0064585455 -9.3560009e-05)
(-0.0027868422 0.018316835 -4.5582704e-05)
(-0.0075958733 0.028778219 -9.0983852e-06)
(-0.014088592 0.037694773 1.7155439e-05)
(-0.021830732 0.045038053 3.84591e-05)
(-0.030532165 0.050846098 5.5751263e-05)
(-0.039931184 0.055195505 6.9961157e-05)
(-0.049799344 0.058178925 8.2026781e-05)
(-0.059939938 0.059887728 9.2584481e-05)
(-0.07017889 0.060400957 0.00010198023)
(-0.080357364 0.05978001 0.00011031223)
(-0.090326223 0.058068107 0.00011745993)
(-0.09994177 0.055293529 0.00012311816)
(-0.10906272 0.051475531 0.00012683817)
(-0.11754837 0.046631833 0.000128074)
(-0.1252578 0.040786794 0.00012623419)
(-0.13205013 0.033979476 0.00012073869)
(-0.13778551 0.026271084 0.00011107999)
(-0.14232715 0.017751386 9.6886738e-05)
(-0.14554413 0.0085438333 7.7987148e-05)
(-0.14731533 -0.0011908083 5.4467627e-05)
(-0.14753423 -0.011252555 2.6705928e-05)
(-0.14611507 -0.021402646 -4.5682173e-06)
(-0.14300016 -0.031366099 -3.8294815e-05)
(-0.13816792 -0.040837533 -7.30922e-05)
(-0.13164166 -0.049490425 -0.00010731361)
(-0.12349812 -0.056990247 -0.00013913992)
(-0.11387504 -0.063011613 -0.00016670515)
(-0.10297631 -0.067259146 -0.0001882455)
(-0.091073315 -0.069491087 -0.00020225719)
(-0.078501216 -0.069544 -0.00020764582)
(-0.065648842 -0.067356167 -0.00020384883)
(-0.052941896 -0.062986763 -0.00019091103)
(-0.040819969 -0.056627884 -0.00016949157)
(-0.029709602 -0.048607056 -0.00014078084)
(-0.019996179 -0.039379326 -0.00010637352)
(-0.011992147 -0.029509449 -6.8319572e-05)
(-0.005906013 -0.01964432 -2.8927419e-05)
(-0.0018995906 -0.010479283 1.2381599e-05)
(-0.00021911015 -0.0027504888 5.4721156e-05)
(-0.00047275897 0.0079598238 -7.2423408e-05)
(-0.0030052962 0.022246583 -1.8741727e-05)
(-0.0081754535 0.034640583 2.0335105e-05)
(-0.015139587 0.045066224 4.8415662e-05)
(-0.023424994 0.053559971 7.1330695e-05)
(-0.03271798 0.060216689 9.0201198e-05)
(-0.042738839 0.065160288 0.00010610539)
(-0.053246751 0.068520994 0.00012009955)
(-0.064037676 0.070418643 0.00013288843)
(-0.074934004 0.070952687 0.00014484306)
(-0.085776046 0.070198136 0.00015605097)
(-0.096415533 0.068206404 0.00016634997)
(-0.10671049 0.065009897 0.00017536556)
(-0.11652139 0.060629183 0.00018255433)
(-0.12570859 0.05508164 0.00018725242)
(-0.13413072 0.048390639 0.00018872934)
(-0.14164423 0.040594546 0.00018624769)
(-0.14810362 0.03175506 0.00017912878)
(-0.15336279 0.021964564 0.00016682278)
(-0.15727726 0.011352281 0.00014898047)
(-0.15970763 8.9067974e-05 0.00012552272)
(-0.16052453 -0.011609353 9.6711018e-05)
(-0.15961491 -0.023481574 6.3174618e-05)
(-0.15689005 -0.035221637 2.5955374e-05)
(-0.15229522 -0.046483847 -1.3505699e-05)
(-0.1458205 -0.056891495 -5.3409507e-05)
(-0.13751219 -0.066050324 -9.1683443e-05)
(-0.12748376 -0.073567205 -0.00012611086)
(-0.11592488 -0.07907403 -0.00015449893)
(-0.10310664 -0.082256012 -0.00017486979)
(-0.089381038 -0.082882619 -0.00018565364)
(-0.07517289 -0.080838244 -0.00018585997)
(-0.060963049 -0.076148826 -0.00017520332)
(-0.047262991 -0.069000203 -0.00015415529)
(-0.034583019 -0.05974448 -0.00012388641)
(-0.02339735 -0.048892403 -8.6138913e-05)
(-0.014103418 -0.037091825 -4.3290332e-05)
(-0.0069814197 -0.025092578 1.895023e-06)
(-0.0022590019 -0.013702928 5.0042932e-05)
(-0.00026414555 -0.0037760361 9.7601288e-05)
(-0.00050354916 0.0095674066 -4.0577974e-05)
(-0.0031932649 0.026445092 1.903651e-05)
(-0.0086753759 0.040891951 6.0392139e-05)
(-0.016048442 0.052912396 9.0157635e-05)
(-0.024807284 0.062615196 0.00011466154)
(-0.034618308 0.070158978 0.00013520008)
(-0.045186651 0.075721146 0.00015299125)
(-0.056261327 0.07947474 0.00016919827)
(-0.067632765 0.081572281 0.00018458453)
(-0.079121475 0.082136833 0.00019953794)
(-0.090568605 0.081259267 0.00021412838)
(-0.10182856 0.079000539 0.00022814578)
(-0.11276304 0.075397678 0.00024113985)
(-0.12323636 0.070472261 0.00025246478)
(-0.13311203 0.0642402 0.00026132827)
(-0.14225041 0.056721945 0.00026684609)
(-0.15050722 0.047952419 0.00026810352)
(-0.15773308 0.037990281 0.00026422414)
(-0.16377389 0.026926288 0.00025444564)
(-0.16847238 0.014890627 0.0002382003)
(-0.17167093 0.0020590918 0.00021519764)
(-0.17321622 -0.01134216 0.00018551412)
(-0.17296556 -0.025033634 0.00014963862)
(-0.17079534 -0.038682083 0.00010854246)
(-0.16661208 -0.051903425 6.3687717e-05)
(-0.16036517 -0.06427016 1.7006419e-05)
(-0.15206125 -0.075324368 -2.9169652e-05)
(-0.1417791 -0.08459727 -7.2235006e-05)
(-0.12968322 -0.091635785 -0.00010949189)
(-0.11603412 -0.096035687 -0.00013837614)
(-0.10119254 -0.097479643 -0.00015670423)
(-0.085614911 -0.095776866 -0.00016291038)
(-0.069837911 -0.090899618 -0.00015624088)
(-0.054451314 -0.083010739 -0.00013686796)
(-0.040061104 -0.072476586 -0.00010587237)
(-0.027246432 -0.059861588 -6.5128466e-05)
(-0.016507673 -0.045903526 -1.7387566e-05)
(-0.0082137557 -0.03146981 3.4039494e-05)
(-0.0026743153 -0.017501815 8.9805254e-05)
(-0.00031729529 -0.0049938495 0.00014352449)
(-0.00052867885 0.011264606 2.8064389e-06)
(-0.0033477277 0.030870991 6.859643e-05)
(-0.0090880235 0.04747388 0.00011189428)
(-0.016801533 0.061163927 0.00014319316)
(-0.025956808 0.072128144 0.00016925939)
(-0.03620407 0.080594632 0.00019155634)
(-0.047236152 0.086799568 0.00021143296)
(-0.05879407 0.090963467 0.00023014964)
(-0.070664451 0.093275467 0.00024852114)
(-0.082667487 0.093885378 0.00026694726)
(-0.094646734 0.092902247 0.0002854767)
(-0.10646099 0.090398062 0.00030384866)
(-0.11797751 0.086415142 0.00032153405)
(-0.12906656 0.080975897 0.00033778001)
(-0.13959713 0.074093739 0.00035165777)
(-0.14943365 0.065784273 0.00036211622)
(-0.15843366 0.056076142 0.0003680433)
(-0.16644632 0.045021212 0.00036833657)
(-0.17331185 0.032703985 0.00036198359)
(-0.17886214 0.019250205 0.00034815102)
(-0.18292279 0.004834597 0.00032628074)
(-0.185317 -0.010312468 0.00029619198)
(-0.18587162 -0.025899666 0.00025816679)
(-0.18442582 -0.041571898 0.0002130344)
(-0.1808428 -0.056910646 0.00016221714)
(-0.17502433 -0.071439115 0.00010773828)
(-0.16692796 -0.084633728 5.2175032e-05)
(-0.15658597 -0.095943513 -1.4550381e-06)
(-0.14412434 -0.10481854 -4.9880866e-05)
(-0.12977924 -0.11074767 -8.9834392e-05)
(-0.11390779 -0.11330424 -0.00011835707)
(-0.096989186 -0.11219644 -0.00013312023)
(-0.079612678 -0.1073165 -0.00013271385)
(-0.062450168 -0.098781108 -0.00011684883)
(-0.046214594 -0.086954808 -8.6402327e-05)
(-0.031607686 -0.07244976 -4.3332472e-05)
(-0.019254116 -0.056099153 9.2049178e-06)
(-0.0096331208 -0.038903856 6.7257253e-05)
(-0.0031578239 -0.021961617 0.0001314846)
(-0.00038078448 -0.0064355839 0.00019251279)
(-0.00054759747 0.013033121 5.8397313e-05)
(-0.0034658472 0.035479246 0.00013061308)
(-0.009406369 0.054322777 0.0001754981)
(-0.017386345 0.069745044 0.0002081719)
(-0.026854357 0.08201561 0.00023577073)
(-0.037448046 0.091436445 0.00025991525)
(-0.048850638 0.098306823 0.00028207693)
(-0.060797157 0.1028988 0.00030360516)
(-0.073071983 0.10544175 0.00032536162)
(-0.085496368 0.10611529 0.00034775658)
(-0.097917698 0.10504905 0.00037081797)
(-0.11020073 0.10232771 0.00039423553)
(-0.12222012 0.097999774 0.00041740233)
(-0.1338542 0.092088561 0.00043945767)
(-0.14497982 0.084604179 0.00045933204)
(-0.15546823 0.075555654 0.00047579748)
(-0.16518179 0.064962642 0.0004875267)
(-0.17397139 0.0528665 0.00049316349)
(-0.18167494 0.039340734 0.00049140607)
(-0.1881168 0.02450091 0.00048110367)
(-0.19310876 0.0085140708 0.00046136542)
(-0.19645292 -0.0083924609 0.00043167934)
(-0.19794694 -0.02592322 0.0003920303)
(-0.19739231 -0.043708682 0.00034301387)
(-0.19460616 -0.061302302 0.00028592475)
(-0.18943699 -0.078182319 0.00022280549)
(-0.18178423 -0.093760404 0.00015643572)
(-0.1716212 -0.10739942 9.0243776e-05)
(-0.15901982 -0.11844236 2.8126059e-05)
(-0.14417458 -0.12625373 -2.5831702e-05)
(-0.12742169 -0.13027297 -6.7719662e-05)
(-0.10924862 -0.1300768 -9.4220676e-05)
(-0.090288394 -0.1254443 -0.00010302208)
(-0.071294592 -0.11641471 -9.3144299e-05)
(-0.053096347 -0.10332662 -6.5084671e-05)
(-0.036536373 -0.086827697 -2.0789117e-05)
(-0.022388402 -0.067848787 3.6175871e-05)
(-0.011268743 -0.047540343 0.00010112004)
(-0.003721837 -0.027182675 0.00017469069)
(-0.00045691086 -0.0081393694 0.0002443887)
(-0.00055984306 0.01485321 0.00012667498)
(-0.003545328 0.040221635 0.00020557091)
(-0.0096247826 0.061370565 0.00025167442)
(-0.017792756 0.07857426 0.00028555794)
(-0.027484055 0.092187334 0.00031465235)
(-0.03832706 0.10258861 0.00034072413)
(-0.049997802 0.11014382 0.00036535918)
(-0.062227047 0.11518 0.00038998964)
(-0.074798227 0.11797012 0.00041552288)
(-0.087534814 0.1187266 0.00044238215)
(-0.10028924 0.11760213 0.00047057953)
(-0.11293364 0.11469602 0.00049976125)
(-0.12535178 0.11006414 0.00052924813)
(-0.13743214 0.10373114 0.00055807543)
(-0.14906197 0.095703392 0.00058503315)
(-0.16012231 0.085982001 0.0006087111)
(-0.17048375 0.074575294 0.00062755321)
(-0.18000291 0.061510712 0.00063992511)
(-0.18851971 0.046846224 0.00064419819)
(-0.19585563 0.030681487 0.00063885171)
(-0.2018134 0.013168929 0.00062259324)
(-0.20617842 -0.0054752378 0.00059449594)
(-0.20872277 -0.024960371 0.00055414663)
(-0.2092123 -0.044911965 0.00050179551)
(-0.20741784 -0.064864623 0.00043849357)
(-0.20313109 -0.084259389 0.00036619469)
(-0.19618576 -0.102448 0.00028779791)
(-0.18648401 -0.11870712 0.00020710267)
(-0.17402686 -0.1322657 0.00012865197)
(-0.15894644 -0.14234819 5.7445983e-05)
(-0.14153563 -0.14823475 -1.4745897e-06)
(-0.12226893 -0.14933633 -4.3548084e-05)
(-0.10180714 -0.14527838 -6.5253242e-05)
(-0.080978598 -0.13598153 -6.4609655e-05)
(-0.06073381 -0.12172347 -4.1472965e-05)
(-0.042074248 -0.1031657 2.3899161e-06)
(-0.025950437 -0.081333089 6.3036595e-05)
(-0.01314822 -0.057540434 0.00013494983)
(-0.0043785902 -0.033279347 0.00021874208)
(-0.00054808245 -0.010149826 0.00029868847)
(-0.00056512126 0.016704079 0.00020791032)
(-0.0035848133 0.045047661 0.00029374578)
(-0.0097399593 0.068545871 0.00034069175)
(-0.018014554 0.087565612 0.00037561103)
(-0.027835451 0.10254709 0.00040614792)
(-0.038824639 0.11394753 0.00043420196)
(-0.050652951 0.1222015 0.00046146629)
(-0.063048278 0.12769392 0.00048945227)
(-0.075794111 0.13074441 0.00051911536)
(-0.088717055 0.13160118 0.00055089875)
(-0.10167559 0.13044267 0.00058480844)
(-0.11455048 0.12738494 0.00062045821)
(-0.12723621 0.12249283 0.00065710748)
(-0.13963341 0.11579316 0.00069369648)
(-0.15164225 0.10728866 0.00072888023)
(-0.16315673 0.096971724 0.00076106643)
(-0.17405949 0.084837602 0.00078846261)
(-0.18421735 0.070897003 0.00080913803)
(-0.19347749 0.055188341 0.00082110526)
(-0.20166442 0.037789999 0.0008224249)
(-0.20857812 0.018832939 0.00081133527)
(-0.21399384 -0.001486177 0.00078640699)
(-0.21766417 -0.022891506 0.00074672041)
(-0.21932432 -0.045014834 0.00069205283)
(-0.21870167 -0.067383914 0.00062307011)
(-0.21553069 -0.089414235 0.00054149286)
(-0.20957446 -0.11040722 0.00045020917)
(-0.20065333 -0.12955863 0.00035329696)
(-0.18868056 -0.14598154 0.00025591698)
(-0.17370304 -0.15874863 0.0001640429)
(-0.15594293 -0.16695675 8.4010489e-05)
(-0.13583323 -0.16981424 2.1898219e-05)
(-0.11403752 -0.16674545 -1.7203979e-05)
(-0.09144318 -0.15749983 -2.9915244e-05)
(-0.069120382 -0.14224537 -1.5079258e-05)
(-0.048244269 -0.12162237 2.598424e-05)
(-0.029971759 -0.096736398 8.9059568e-05)
(-0.015296598 -0.069077449 0.00016773497)
(-0.0051401194 -0.040378921 0.00026256632)
(-0.00065685399 -0.01251805 0.00035456054)
(-0.00056338699 0.018564474 0.00030214803)
(-0.003584311 0.049905936 0.00039519369)
(-0.0097519396 0.075775804 0.00044260697)
(-0.018051127 0.096630522 0.00047837558)
(-0.027905883 0.11299439 0.00051027229)
(-0.038934023 0.12540319 0.00054031641)
(-0.050802656 0.1343618 0.00057030333)
(-0.063237775 0.14031546 0.00060182377)
(-0.076023652 0.14363333 0.00063588847)
(-0.088990714 0.14460241 0.00067297257)
(-0.10200433 0.14342972 0.00071309085)
(-0.11495499 0.14025057 0.00075584094)
(-0.12774934 0.13514071 0.00080043716)
(-0.14030211 0.12813054 0.00084573931)
(-0.15252892 0.11921982 0.0008902788)
(-0.16433985 0.10839213 0.00093228757)