/*--------------------------------*- C++ -*----------------------------------*\
  =========                 |
  \\      /  F ield         | OpenFOAM: The Open Source CFD Toolbox
   \\    /   O peration     | Website:  https://openfoam.org
    \\  /    A nd           | Version:  7
     \\/     M anipulation  |
\*---------------------------------------------------------------------------*/
FoamFile
{
    version     2.0;
    format      ascii;
    class       volScalarField;
    location    "1.15";
    object      T;
}
// * * * * * * * * * * * * * * * * * * * * * * * * * * * * * * * * * * * * * //

dimensions      [0 0 0 1 0 0 0];

internalField   nonuniform List<scalar> 
1000
(
0.00285454
0.00285563
0.00285779
0.00286103
0.00286536
0.00287077
0.00287727
0.00288485
0.00289352
0.00290328
0.00291413
0.00292608
0.00293912
0.00295326
0.00296851
0.00298486
0.00300232
0.0030209
0.00304059
0.0030614
0.00308334
0.00310641
0.00313061
0.00315595
0.00318244
0.00321009
0.00323888
0.00326885
0.00329998
0.00333229
0.00336578
0.00340046
0.00343634
0.00347342
0.00351172
0.00355123
0.00359198
0.00363396
0.00367719
0.00372167
0.00376741
0.00381443
0.00386273
0.00391232
0.00396321
0.00401542
0.00406895
0.00412381
0.00418001
0.00423757
0.0042965
0.0043568
0.0044185
0.0044816
0.00454611
0.00461204
0.00467942
0.00474825
0.00481854
0.00489031
0.00496358
0.00503835
0.00511464
0.00519246
0.00527183
0.00535277
0.00543528
0.00551939
0.0056051
0.00569244
0.00578142
0.00587205
0.00596436
0.00605835
0.00615405
0.00625146
0.00635062
0.00645153
0.00655421
0.00665869
0.00676497
0.00687307
0.00698302
0.00709483
0.00720853
0.00732412
0.00744163
0.00756107
0.00768248
0.00780586
0.00793123
0.00805862
0.00818805
0.00831953
0.00845309
0.00858874
0.00872651
0.00886642
0.00900849
0.00915273
0.00929918
0.00944786
0.00959877
0.00975196
0.00990743
0.0100652
0.0102253
0.0103878
0.0105527
0.0107199
0.0108896
0.0110617
0.0112363
0.0114134
0.011593
0.0117751
0.0119598
0.0121471
0.012337
0.0125296
0.0127248
0.0129227
0.0131233
0.0133266
0.0135327
0.0137415
0.0139532
0.0141677
0.0143851
0.0146053
0.0148285
0.0150546
0.0152836
0.0155156
0.0157506
0.0159887
0.0162298
0.016474
0.0167213
0.0169718
0.0172254
0.0174821
0.0177421
0.0180054
0.0182719
0.0185417
0.0188148
0.0190912
0.019371
0.0196542
0.0199408
0.0202309
0.0205244
0.0208214
0.0211219
0.021426
0.0217336
0.0220449
0.0223597
0.0226782
0.0230004
0.0233263
0.0236559
0.0239892
0.0243263
0.0246672
0.0250119
0.0253605
0.0257129
0.0260693
0.0264295
0.0267937
0.0271618
0.027534
0.0279101
0.0282903
0.0286745
0.0290629
0.0294553
0.0298519
0.0302526
0.0306574
0.0310665
0.0314798
0.0318973
0.0323191
0.0327452
0.0331756
0.0336102
0.0340493
0.0344927
0.0349404
0.0353926
0.0358492
0.0363103
0.0367758
0.0372457
0.0377202
0.0381992
0.0386827
0.0391708
0.0396634
0.0401606
0.0406624
0.0411688
0.0416799
0.0421955
0.0427159
0.0432409
0.0437706
0.044305
0.0448441
0.0453879
0.0459365
0.0464898
0.0470479
0.0476107
0.0481783
0.0487507
0.0493279
0.0499099
0.0504967
0.0510883
0.0516848
0.0522861
0.0528922
0.0535032
0.054119
0.0547397
0.0553653
0.0559957
0.0566309
0.0572711
0.0579161
0.058566
0.0592207
0.0598803
0.0605448
0.0612142
0.0618884
0.0625675
0.0632514
0.0639402
0.0646339
0.0653323
0.0660357
0.0667438
0.0674568
0.0681746
0.0688972
0.0696246
0.0703568
0.0710937
0.0718355
0.0725819
0.0733332
0.0740891
0.0748497
0.0756151
0.0763851
0.0771598
0.0779391
0.078723
0.0795116
0.0803047
0.0811024
0.0819046
0.0827114
0.0835226
0.0843383
0.0851585
0.0859831
0.0868121
0.0876454
0.0884831
0.0893251
0.0901714
0.0910219
0.0918766
0.0927356
0.0935986
0.0944658
0.0953371
0.0962124
0.0970918
0.0979751
0.0988623
0.0997534
0.100648
0.101547
0.10245
0.103356
0.104266
0.10518
0.106097
0.107018
0.107942
0.10887
0.109801
0.110735
0.111673
0.112614
0.113558
0.114506
0.115456
0.11641
0.117366
0.118326
0.119288
0.120253
0.121221
0.122192
0.123165
0.124141
0.125119
0.1261
0.127083
0.128069
0.129056
0.130046
0.131038
0.132032
0.133028
0.134026
0.135026
0.136028
0.137031
0.138036
0.139042
0.14005
0.14106
0.14207
0.143082
0.144095
0.145109
0.146125
0.147141
0.148158
0.149176
0.150194
0.151213
0.152233
0.153253
0.154273
0.155294
0.156315
0.157336
0.158357
0.159378
0.160399
0.16142
0.16244
0.16346
0.164479
0.165498
0.166516
0.167533
0.16855
0.169565
0.17058
0.171593
0.172605
0.173616
0.174625
0.175633
0.176639
0.177644
0.178646
0.179647
0.180646
0.181642
0.182637
0.183629
0.184619
0.185606
0.186591
0.187573
0.188552
0.189529
0.190502
0.191473
0.19244
0.193404
0.194364
0.195322
0.196275
0.197225
0.198171
0.199113
0.200052
0.200986
0.201916
0.202842
0.203763
0.204681
0.205593
0.206501
0.207404
0.208302
0.209196
0.210084
0.210967
0.211845
0.212717
0.213584
0.214446
0.215302
0.216152
0.216997
0.217835
0.218668
0.219494
0.220315
0.221129
0.221936
0.222737
0.223532
0.22432
0.225101
0.225875
0.226643
0.227403
0.228156
0.228902
0.229641
0.230373
0.231097
0.231813
0.232522
0.233223
0.233916
0.234602
0.235279
0.235949
0.23661
0.237263
0.237908
0.238545
0.239173
0.239792
0.240403
0.241006
0.241599
0.242184
0.24276
0.243327
0.243885
0.244434
0.244974
0.245505
0.246026
0.246538
0.24704
0.247534
0.248017
0.248491
0.248955
0.24941
0.249855
0.25029
0.250715
0.25113
0.251535
0.251931
0.252316
0.252691
0.253056
0.25341
0.253754
0.254088
0.254412
0.254725
0.255028
0.255321
0.255602
0.255874
0.256135
0.256385
0.256624
0.256853
0.257071
0.257278
0.257475
0.257661
0.257836
0.258
0.258153
0.258296
0.258427
0.258548
0.258658
0.258757
0.258844
0.258921
0.258987
0.259042
0.259086
0.259119
0.259141
0.259152
0.259152
0.259141
0.259119
0.259086
0.259042
0.258987
0.258921
0.258844
0.258757
0.258658
0.258548
0.258427
0.258296
0.258153
0.258
0.257836
0.257661
0.257475
0.257278
0.257071
0.256853
0.256624
0.256385
0.256135
0.255874
0.255602
0.255321
0.255028
0.254725
0.254412
0.254088
0.253754
0.25341
0.253056
0.252691
0.252316
0.251931
0.251535
0.25113
0.250715
0.25029
0.249855
0.24941
0.248955
0.248491
0.248017
0.247534
0.24704
0.246538
0.246026
0.245505
0.244974
0.244434
0.243885
0.243327
0.24276
0.242184
0.241599
0.241006
0.240403
0.239792
0.239173
0.238545
0.237908
0.237263
0.23661
0.235949
0.235279
0.234602
0.233916
0.233223
0.232522
0.231813
0.231097
0.230373
0.229641
0.228902
0.228156
0.227403
0.226643
0.225875
0.225101
0.22432
0.223532
0.222737
0.221936
0.221129
0.220315
0.219494
0.218668
0.217835
0.216997
0.216152
0.215302
0.214446
0.213584
0.212717
0.211845
0.210967
0.210084
0.209196
0.208302
0.207404
0.206501
0.205593
0.204681
0.203763
0.202842
0.201916
0.200986
0.200052
0.199113
0.198171
0.197225
0.196275
0.195322
0.194364
0.193404
0.19244
0.191473
0.190502
0.189529
0.188552
0.187573
0.186591
0.185606
0.184619
0.183629
0.182637
0.181642
0.180646
0.179647
0.178646
0.177644
0.176639
0.175633
0.174625
0.173616
0.172605
0.171593
0.17058
0.169565
0.16855
0.167533
0.166516
0.165498
0.164479
0.16346
0.16244
0.16142
0.160399
0.159378
0.158357
0.157336
0.156315
0.155294
0.154273
0.153253
0.152233
0.151213
0.150194
0.149176
0.148158
0.147141
0.146125
0.145109
0.144095
0.143082
0.14207
0.14106
0.14005
0.139042
0.138036
0.137031
0.136028
0.135026
0.134026
0.133028
0.132032
0.131038
0.130046
0.129056
0.128069
0.127083
0.1261
0.125119
0.124141
0.123165
0.122192
0.121221
0.120253
0.119288
0.118326
0.117366
0.11641
0.115456
0.114506
0.113558
0.112614
0.111673
0.110735
0.109801
0.10887
0.107942
0.107018
0.106097
0.10518
0.104266
0.103356
0.10245
0.101547
0.100648
0.0997534
0.0988623
0.0979751
0.0970918
0.0962124
0.0953371
0.0944658
0.0935986
0.0927356
0.0918766
0.0910219
0.0901714
0.0893251
0.0884831
0.0876454
0.0868121
0.0859831
0.0851585
0.0843383
0.0835226
0.0827114
0.0819046
0.0811024
0.0803047
0.0795116
0.078723
0.0779391
0.0771598
0.0763851
0.0756151
0.0748497
0.0740891
0.0733332
0.0725819
0.0718355
0.0710937
0.0703568
0.0696246
0.0688972
0.0681746
0.0674568
0.0667438
0.0660357
0.0653323
0.0646339
0.0639402
0.0632514
0.0625675
0.0618884
0.0612142
0.0605448
0.0598803
0.0592207
0.058566
0.0579161
0.0572711
0.0566309
0.0559957
0.0553653
0.0547397
0.054119
0.0535032
0.0528922
0.0522861
0.0516848
0.0510883
0.0504967
0.0499099
0.0493279
0.0487507
0.0481783
0.0476107
0.0470479
0.0464898
0.0459365
0.0453879
0.0448441
0.044305
0.0437706
0.0432409
0.0427159
0.0421955
0.0416799
0.0411688
0.0406624
0.0401606
0.0396634
0.0391708
0.0386827
0.0381992
0.0377202
0.0372457
0.0367758
0.0363103
0.0358492
0.0353926
0.0349404
0.0344927
0.0340493
0.0336102
0.0331756
0.0327452
0.0323191
0.0318973
0.0314798
0.0310665
0.0306574
0.0302526
0.0298519
0.0294553
0.0290629
0.0286745
0.0282903
0.0279101
0.027534
0.0271618
0.0267937
0.0264295
0.0260693
0.0257129
0.0253605
0.0250119
0.0246672
0.0243263
0.0239892
0.0236559
0.0233263
0.0230004
0.0226782
0.0223597
0.0220449
0.0217336
0.021426
0.0211219
0.0208214
0.0205244
0.0202309
0.0199408
0.0196542
0.019371
0.0190912
0.0188148
0.0185417
0.0182719
0.0180054
0.0177421
0.0174821
0.0172254
0.0169718
0.0167213
0.016474
0.0162298
0.0159887
0.0157506
0.0155156
0.0152836
0.0150546
0.0148285
0.0146053
0.0143851
0.0141677
0.0139532
0.0137415
0.0135327
0.0133266
0.0131233
0.0129227
0.0127248
0.0125296
0.012337
0.0121471
0.0119598
0.0117751
0.011593
0.0114134
0.0112363
0.0110617
0.0108896
0.0107199
0.0105527
0.0103878
0.0102253
0.0100652
0.00990743
0.00975196
0.00959877
0.00944786
0.00929918
0.00915273
0.00900849
0.00886642
0.00872651
0.00858874
0.00845309
0.00831953
0.00818805
0.00805862
0.00793123
0.00780586
0.00768248
0.00756107
0.00744163
0.00732412
0.00720853
0.00709483
0.00698302
0.00687307
0.00676497
0.00665869
0.00655421
0.00645153
0.00635062
0.00625146
0.00615405
0.00605835
0.00596436
0.00587205
0.00578142
0.00569244
0.0056051
0.00551939
0.00543528
0.00535277
0.00527183
0.00519246
0.00511464
0.00503835
0.00496358
0.00489031
0.00481854
0.00474825
0.00467942
0.00461204
0.00454611
0.0044816
0.0044185
0.0043568
0.0042965
0.00423757
0.00418001
0.00412381
0.00406895
0.00401542
0.00396321
0.00391232
0.00386273
0.00381443
0.00376741
0.00372167
0.00367719
0.00363396
0.00359198
0.00355123
0.00351172
0.00347342
0.00343634
0.00340046
0.00336578
0.00333229
0.00329998
0.00326885
0.00323888
0.00321009
0.00318244
0.00315595
0.00313061
0.00310641
0.00308334
0.0030614
0.00304059
0.0030209
0.00300232
0.00298486
0.00296851
0.00295326
0.00293912
0.00292608
0.00291413
0.00290328
0.00289352
0.00288485
0.00287727
0.00287077
0.00286536
0.00286103
0.00285779
0.00285563
0.00285454
)
;

boundaryField
{
    sides
    {
        type            zeroGradient;
    }
    empty
    {
        type            empty;
    }
}


// ************************************************************************* //
