/*--------------------------------*- C++ -*----------------------------------*\
  =========                 |
  \\      /  F ield         | OpenFOAM: The Open Source CFD Toolbox
   \\    /   O peration     | Website:  https://openfoam.org
    \\  /    A nd           | Version:  7
     \\/     M anipulation  |
\*---------------------------------------------------------------------------*/
FoamFile
{
    version     2.0;
    format      ascii;
    class       volScalarField;
    location    "28";
    object      p;
}
// * * * * * * * * * * * * * * * * * * * * * * * * * * * * * * * * * * * * * //

dimensions      [0 2 -2 0 0 0 0];

internalField   nonuniform List<scalar> 
8800
(
1.01588
0.968092
0.929398
0.900396
0.879521
0.864671
0.854046
0.846526
0.84165
0.839508
0.840665
0.844751
0.851309
0.860557
0.873288
0.890988
0.915742
0.949666
0.992201
1.0509
0.847142
0.85482
0.862284
0.865589
0.864078
0.858987
0.852482
0.846376
0.841603
0.838683
0.838297
0.840683
0.845072
0.850937
0.857644
0.863878
0.867488
0.866733
0.861289
0.852587
0.825564
0.831725
0.835849
0.838787
0.840826
0.841414
0.84028
0.838135
0.836055
0.835046
0.835884
0.838146
0.840845
0.842945
0.843489
0.842241
0.839861
0.836439
0.831867
0.828102
0.819795
0.822445
0.825195
0.827594
0.82922
0.830365
0.831077
0.83115
0.830781
0.830618
0.831231
0.832269
0.83299
0.832957
0.832269
0.831116
0.829251
0.826641
0.824215
0.822711
0.814467
0.815892
0.817676
0.819711
0.821492
0.822821
0.823781
0.824526
0.825059
0.825498
0.825985
0.826318
0.826277
0.82587
0.825071
0.823737
0.821971
0.820066
0.818729
0.817899
0.809469
0.81039
0.811641
0.813218
0.814856
0.816376
0.817639
0.818654
0.819524
0.820269
0.820763
0.820895
0.820677
0.820082
0.819064
0.817747
0.816322
0.814987
0.814129
0.813582
0.804663
0.80533
0.806311
0.807638
0.809066
0.810533
0.811963
0.813245
0.814349
0.815285
0.81587
0.815989
0.81567
0.814948
0.813956
0.812849
0.8117
0.810674
0.810048
0.809651
0.800027
0.80054
0.80135
0.802524
0.80384
0.805235
0.806682
0.80812
0.809444
0.810575
0.811299
0.811463
0.811134
0.810471
0.809627
0.808688
0.807729
0.806911
0.80643
0.806126
0.795504
0.795906
0.796596
0.797661
0.798916
0.800269
0.801709
0.803214
0.804717
0.806084
0.80698
0.807246
0.807042
0.806542
0.805861
0.805074
0.804268
0.803609
0.803235
0.802996
0.791037
0.791355
0.791961
0.792971
0.794199
0.795546
0.797012
0.798582
0.800217
0.801806
0.802947
0.803445
0.803457
0.80314
0.802618
0.801977
0.80129
0.800751
0.800459
0.80027
0.786587
0.786837
0.787384
0.788363
0.78959
0.790973
0.792517
0.794206
0.796012
0.797853
0.799314
0.800115
0.800372
0.800243
0.799873
0.799369
0.798796
0.79836
0.798136
0.797987
0.782126
0.782321
0.782827
0.783805
0.785066
0.786513
0.788158
0.79003
0.792112
0.794298
0.796148
0.797275
0.797788
0.79788
0.797692
0.797317
0.79686
0.796508
0.796341
0.796223
0.777595
0.777736
0.778208
0.779185
0.780476
0.781982
0.783718
0.78574
0.788084
0.790698
0.793026
0.794604
0.795515
0.795941
0.796009
0.795823
0.795504
0.795248
0.795139
0.795052
0.77301
0.773102
0.773545
0.774533
0.775891
0.777512
0.779437
0.781745
0.784468
0.787594
0.790532
0.792661
0.793989
0.794723
0.795042
0.795078
0.794905
0.79476
0.79471
0.79465
0.768355
0.768403
0.768804
0.769753
0.771126
0.772826
0.774919
0.777523
0.780734
0.784542
0.788222
0.790993
0.792888
0.794092
0.794781
0.795115
0.795212
0.795229
0.795235
0.795186
0.763246
0.763297
0.76367
0.764581
0.765974
0.767794
0.770142
0.773149
0.776941
0.781561
0.786172
0.789773
0.792312
0.794063
0.795239
0.795955
0.796361
0.796561
0.79662
0.796572
0.757342
0.757382
0.757763
0.758702
0.760216
0.762275
0.765004
0.768593
0.773205
0.77889
0.784616
0.78917
0.79248
0.794826
0.796495
0.797613
0.798318
0.798679
0.798776
0.79872
0.750305
0.750341
0.750776
0.751802
0.753534
0.755938
0.759173
0.763482
0.769085
0.776079
0.783215
0.788956
0.793195
0.796264
0.798476
0.800024
0.801043
0.801562
0.801693
0.801628
0.741796
0.741839
0.742361
0.743594
0.745666
0.748581
0.752541
0.757862
0.764799
0.773454
0.782285
0.789411
0.794695
0.798564
0.801379
0.803379
0.804701
0.805353
0.805513
0.805435
0.731396
0.731444
0.7321
0.733638
0.736205
0.739829
0.744778
0.751421
0.760064
0.770801
0.781708
0.790484
0.797011
0.801798
0.805306
0.807814
0.809451
0.810228
0.810424
0.810336
0.718592
0.718648
0.719486
0.721457
0.724733
0.729352
0.735655
0.744069
0.754914
0.768235
0.781633
0.792355
0.800295
0.806153
0.810485
0.813577
0.815557
0.816482
0.816715
0.816611
0.70266
0.702719
0.703801
0.7064
0.710709
0.716732
0.724894
0.735649
0.749296
0.765794
0.782165
0.79517
0.804807
0.811912
0.817169
0.820886
0.823241
0.824342
0.824623
0.8245
0.682646
0.682719
0.684162
0.687653
0.693442
0.701468
0.712183
0.726047
0.743248
0.76359
0.783442
0.799086
0.810669
0.819213
0.82552
0.829977
0.832762
0.834076
0.834403
0.834254
0.656891
0.657008
0.659071
0.663988
0.671997
0.682959
0.697266
0.715241
0.736887
0.761809
0.785656
0.804269
0.818035
0.828224
0.835726
0.841027
0.844337
0.845887
0.846249
0.846065
0.622491
0.622754
0.626095
0.633611
0.645273
0.66066
0.680006
0.703356
0.73046
0.760707
0.789017
0.810877
0.827021
0.839006
0.847864
0.854153
0.858086
0.859887
0.860265
0.860034
0.573742
0.574917
0.58163
0.59447
0.612413
0.634497
0.660727
0.690852
0.724398
0.760615
0.793732
0.819012
0.837641
0.851521
0.861867
0.86931
0.873969
0.876027
0.87639
0.876099
0.501486
0.509235
0.524752
0.547465
0.574802
0.60579
0.640419
0.678351
0.719091
0.761894
0.800312
0.829421
0.850903
0.867043
0.879273
0.888268
0.894018
0.896638
0.897157
0.89695
0.423968
0.44178
0.466855
0.499879
0.53687
0.576952
0.620086
0.666074
0.714494
0.764724
0.809585
0.843659
0.868982
0.888207
0.903064
0.914362
0.92161
0.924961
0.925912
0.925897
0.360281
0.381017
0.413911
0.455421
0.500965
0.549518
0.600823
0.654637
0.710536
0.767884
0.818768
0.857336
0.886053
0.907968
0.924906
0.93769
0.946298
0.950494
0.951213
0.951298
0.308369
0.330926
0.368978
0.416517
0.468767
0.524383
0.582859
0.643783
0.706604
0.770601
0.826995
0.869507
0.901036
0.924993
0.943509
0.957489
0.967219
0.971614
0.972483
0.97266
0.265286
0.28889
0.330478
0.382809
0.440419
0.501822
0.56639
0.633566
0.702621
0.772646
0.833993
0.879919
0.913748
0.939338
0.959028
0.973885
0.984123
0.988978
0.99018
0.990391
0.228443
0.25266
0.296972
0.353028
0.415103
0.481413
0.551245
0.623919
0.698558
0.77404
0.839827
0.888726
0.924469
0.951303
0.971802
0.987244
0.997715
1.00297
1.00438
1.0046
0.195917
0.220542
0.266938
0.326113
0.391962
0.462526
0.536997
0.614591
0.694298
0.77479
0.844656
0.896223
0.933596
0.961378
0.982395
0.998125
1.0087
1.01412
1.01564
1.01582
0.166286
0.191276
0.239398
0.301253
0.370337
0.444618
0.523228
0.605285
0.689666
0.774859
0.848603
0.902686
0.941542
0.970132
0.991523
1.00738
1.018
1.02348
1.0251
1.02525
0.138688
0.164008
0.213652
0.277777
0.349726
0.427306
0.509622
0.595755
0.6845
0.774182
0.851708
0.908307
0.948637
0.978032
0.999818
1.0158
1.02645
1.03191
1.03362
1.03376
0.112408
0.138116
0.189146
0.25527
0.329764
0.410283
0.495951
0.585826
0.678661
0.772672
0.853989
0.913174
0.955102
0.985415
1.00767
1.02384
1.03452
1.03989
1.04158
1.04176
0.0871618
0.113287
0.165411
0.233449
0.310216
0.393374
0.482069
0.575379
0.672054
0.770274
0.855435
0.9174
0.961121
0.992505
1.01535
1.03179
1.04254
1.04785
1.04943
1.04954
0.0625964
0.0892727
0.14239
0.212127
0.290923
0.376446
0.467887
0.564347
0.66462
0.766931
0.856051
0.92103
0.966766
0.999418
1.023
1.03983
1.05068
1.05593
1.05735
1.05738
0.038642
0.0657125
0.119936
0.19119
0.2718
0.359447
0.453364
0.552703
0.656333
0.762615
0.85577
0.923988
0.972038
1.00619
1.03068
1.04798
1.05894
1.06407
1.06536
1.06528
0.0152133
0.0428137
0.0979467
0.170587
0.252831
0.342376
0.438505
0.540446
0.647183
0.757255
0.854467
0.926202
0.976896
1.01283
1.03839
1.05622
1.06725
1.07221
1.07332
1.07315
-0.0077788
0.0203977
0.0764283
0.150322
0.234017
0.325251
0.423347
0.527616
0.637173
0.750804
0.852067
0.927554
0.981261
1.01932
1.04615
1.06454
1.07558
1.08026
1.08116
1.08092
-0.0303293
-0.00152497
0.0553895
0.130421
0.215409
0.308121
0.407949
0.514264
0.626341
0.743259
0.848487
0.92789
0.984986
1.0256
1.05399
1.07295
1.08383
1.0881
1.08875
1.08844
-0.0522624
-0.0228771
0.0348705
0.110922
0.197058
0.291066
0.392384
0.50048
0.614768
0.734659
0.84364
0.927047
0.987878
1.0316
1.062
1.08161
1.09202
1.09559
1.09593
1.09558
-0.0735495
-0.0436085
0.0149098
0.0918876
0.179028
0.274152
0.376752
0.486357
0.602546
0.725036
0.837485
0.924856
0.989688
1.03711
1.07029
1.09089
1.1004
1.10267
1.10253
1.10218
-0.0942459
-0.06368
-0.00445273
0.0733587
0.161387
0.257466
0.361147
0.472004
0.589776
0.714474
0.830001
0.921179
0.990114
1.04175
1.07877
1.10141
1.10998
1.10986
1.10849
1.10829
-0.114182
-0.0830691
-0.0231591
0.0554044
0.144198
0.241095
0.345666
0.457536
0.576583
0.703092
0.821215
0.915897
0.988846
1.04494
1.08688
1.11353
1.12275
1.11978
1.11529
1.11413
-0.133442
-0.101765
-0.0412283
0.0379992
0.127429
0.224989
0.33025
0.442893
0.5629
0.690818
0.811003
0.908757
0.985565
1.04586
1.09338
1.12644
1.14019
1.13845
1.12782
1.11001
-0.151957
-0.119766
-0.0587833
0.0209527
0.110788
0.208815
0.31448
0.427583
0.548174
0.676985
0.798673
0.898889
0.979569
1.04329
1.09548
1.13585
1.15509
1.14713
1.132
1.11249
-0.169559
-0.137211
-0.075642
0.00451013
0.0945702
0.19292
0.298587
0.411942
0.532732
0.661899
0.784403
0.886
0.970381
1.03639
1.08796
1.12898
1.15032
1.13405
1.06275
1.02828
-0.185607
-0.155239
-0.0914657
-0.0107412
0.0794873
0.177787
0.282862
0.396193
0.516794
0.645706
0.7682
0.869956
0.957008
1.02549
1.06718
1.09869
1.10392
1.05491
0.982135
0.936535
-0.241248
-0.170938
-0.105956
-0.0260274
0.0641104
0.16203
0.267244
0.380072
0.500021
0.628004
0.749564
0.850416
0.936382
1.01203
1.01476
1.03083
0.997958
0.933588
0.855351
0.811158
-0.202426
-0.186585
-0.127
-0.0477352
0.0418106
0.139395
0.243559
0.355458
0.473997
0.59987
0.718398
0.816238
0.893631
0.968352
0.96707
0.860756
0.755336
0.682748
0.607879
0.644286
-0.233185
-0.204151
-0.143841
-0.0649516
0.0244604
0.121689
0.225975
0.337087
0.454337
0.578056
0.693273
0.786795
0.856642
0.896264
0.85105
0.704366
0.572566
0.479137
0.376647
0.433086
-0.25686
-0.224811
-0.163397
-0.0841792
0.00523573
0.102299
0.20638
0.316515
0.432166
0.553208
0.664409
0.752215
0.812303
0.821254
0.715798
0.534666
0.373276
0.248189
0.110554
0.150036
-0.279911
-0.246334
-0.183797
-0.103767
-0.0142001
0.0827099
0.186203
0.295248
0.409131
0.527185
0.633632
0.715084
0.760567
0.735697
0.574862
0.366221
0.161218
-0.0241255
-0.227278
-0.232129
-0.302176
-0.268307
-0.204928
-0.124193
-0.0344406
0.0622625
0.165066
0.272921
0.384813
0.499564
0.600728
0.675085
0.703329
0.643652
0.440323
0.214561
-0.0220882
-0.23499
-0.502011
-0.834629
-0.324657
-0.290884
-0.227044
-0.145841
-0.055893
0.0406539
0.142844
0.2495
0.359326
0.470594
0.566306
0.63268
0.643626
0.532794
0.323322
0.097202
-0.12835
-0.32088
-0.394672
-0.500389
-0.348177
-0.31449
-0.250447
-0.169034
-0.0790142
0.0172927
0.118786
0.224084
0.331552
0.438879
0.528728
0.58567
0.571863
0.421171
0.220053
0.0133161
-0.165734
-0.269969
-0.293982
-0.313621
-0.373065
-0.339437
-0.275285
-0.193828
-0.103904
-0.00798906
0.0925875
0.196246
0.300962
0.403748
0.487257
0.532424
0.496334
0.318324
0.126611
-0.0543322
-0.193565
-0.239686
-0.254732
-0.257015
-0.399523
-0.365826
-0.301606
-0.220183
-0.130478
-0.0351553
0.0642808
0.165994
0.267542
0.365216
0.441731
0.473597
0.419155
0.221464
0.0399739
-0.122121
-0.218507
-0.231769
-0.23416
-0.234282
-0.427538
-0.393737
-0.329403
-0.248053
-0.158704
-0.0641418
0.0339237
0.133381
0.23136
0.323409
0.392046
0.412259
0.325277
0.131354
-0.0409551
-0.175347
-0.216501
-0.223057
-0.223852
-0.223174
-0.456796
-0.422827
-0.358505
-0.277315
-0.188442
-0.0948269
0.0016259
0.0985271
0.192527
0.278525
0.338758
0.344199
0.225838
0.0446597
-0.109611
-0.20363
-0.211235
-0.214922
-0.216854
-0.216752
-0.486733
-0.452704
-0.388704
-0.307702
-0.219448
-0.126975
-0.0323673
0.0616777
0.151347
0.230861
0.28302
0.269824
0.135629
-0.0366004
-0.173945
-0.19722
-0.215139
-0.215616
-0.214026
-0.213522
-0.516898
-0.483061
-0.419319
-0.338795
-0.251318
-0.160179
-0.0676628
0.0232477
0.108313
0.180987
0.225243
0.195355
0.0487211
-0.112566
-0.237766
-0.25943
-0.236339
-0.220279
-0.213421
-0.211134
-0.546438
-0.513015
-0.449696
-0.369918
-0.283449
-0.193866
-0.103669
-0.0161299
0.0641097
0.129969
0.165241
0.121486
-0.0373803
-0.174368
-0.294552
-0.276014
-0.247897
-0.22527
-0.213555
-0.209911
-0.573965
-0.541303
-0.479059
-0.400224
-0.315013
-0.227232
-0.139563
-0.0555513
0.0196928
0.0787952
0.105954
0.0538769
-0.118621
-0.226371
-0.265277
-0.272117
-0.280256
-0.279972
-0.27103
-0.265304
-0.598163
-0.566593
-0.506183
-0.428597
-0.34499
-0.259234
-0.174286
-0.0938473
-0.0235335
0.0285883
0.0520883
-0.0152392
-0.182268
-0.308196
-0.25586
-0.34873
-0.395082
-0.421803
-0.41863
-0.410753
-0.617237
-0.587503
-0.529265
-0.453718
-0.372102
-0.288642
-0.206474
-0.129574
-0.0638547
-0.0186303
0.00219825
-0.0858435
-0.257281
-0.446632
-0.735319
-0.588406
-0.570451
-0.58328
-0.582187
-0.582141
-0.629451
-0.602272
-0.546989
-0.473983
-0.394825
-0.313944
-0.234584
-0.161053
-0.0993937
-0.0597514
-0.0476845
-0.164239
-0.326723
-0.351998
-0.245987
-0.476998
-0.733007
-0.749351
-0.732295
-0.728461
-0.632726
-0.6092
-0.557727
-0.487901
-0.411602
-0.333551
-0.256926
-0.186145
-0.127853
-0.0932777
-0.0990156
-0.237721
-0.41841
-0.288299
-0.142098
-0.46443
-0.731988
-0.741191
-0.750139
-0.764383
-0.625877
-0.606472
-0.559857
-0.494195
-0.421147
-0.345963
-0.271705
-0.202518
-0.146045
-0.115145
-0.134405
-0.325466
-0.770232
-1.44371
-2.01527
-2.4125
-2.25194
-1.76857
-1.35936
-1.27606
-0.607275
-0.591859
-0.552212
-0.491991
-0.422645
-0.350137
-0.277423
-0.208422
-0.149941
-0.116554
-0.136407
-0.371185
-1.04778
-2.04732
-2.75662
-3.09426
-2.97361
-2.62054
-2.22334
-1.99191
-0.578162
-0.567403
-0.535062
-0.481485
-0.416083
-0.345912
-0.273519
-0.202398
-0.138014
-0.0889124
-0.0888143
-0.217367
-0.568529
-0.925384
-1.2354
-1.26716
-1.06995
-0.796769
-0.551715
-0.412618
-0.542159
-0.535654
-0.511333
-0.464608
-0.403009
-0.334348
-0.261132
-0.185043
-0.109556
-0.0378663
0.0199207
0.10762
0.233876
0.540967
0.941288
1.35253
1.68248
1.90185
2.02226
2.06739
-0.504209
-0.500601
-0.484936
-0.444809
-0.386348
-0.318313
-0.242913
-0.1613
-0.0719415
0.0246476
0.144709
0.274693
0.624917
1.21633
1.863
2.44217
2.86698
3.11019
3.21301
3.24261
-0.469381
-0.467284
-0.458213
-0.425836
-0.370581
-0.301636
-0.223783
-0.136971
-0.0404958
0.0713899
0.194122
0.331844
0.554516
1.07535
1.65869
2.16289
2.52829
2.73876
2.83352
2.86114
-0.434596
-0.43349
-0.430436
-0.408291
-0.357047
-0.286808
-0.207284
-0.119575
-0.0242814
0.0863495
0.202613
0.326571
0.472606
0.809808
1.2587
1.62499
1.89986
2.06722
2.1486
2.17395
-0.41157
-0.410917
-0.4107
-0.393992
-0.343115
-0.2713
-0.190999
-0.105939
-0.0146205
0.0876444
0.191598
0.293907
0.393034
0.588317
0.890514
1.15747
1.35866
1.47918
1.53357
1.54809
-0.391849
-0.394307
-0.39611
-0.378584
-0.323121
-0.248264
-0.169542
-0.0900331
-0.00685438
0.0830836
0.170897
0.249118
0.326854
0.439854
0.633943
0.812148
0.94489
1.02308
1.05831
1.0675
-0.332763
-0.337253
-0.339557
-0.32231
-0.27205
-0.205764
-0.136838
-0.068199
0.00261032
0.0774043
0.148003
0.205699
0.261346
0.332591
0.459994
0.573667
0.656457
0.704432
0.724173
0.725972
-0.217635
-0.220586
-0.221995
-0.211107
-0.18065
-0.138349
-0.0905731
-0.039619
0.0149715
0.0735381
0.125014
0.160813
0.193011
0.236978
0.32199
0.399663
0.453467
0.483893
0.495356
0.495891
-0.0930088
-0.0940075
-0.0949767
-0.0923399
-0.0825317
-0.0653826
-0.040608
-0.00870083
0.0296876
0.0725212
0.107505
0.124436
0.133681
0.15978
0.219202
0.276403
0.315961
0.337125
0.345567
0.345236
-0.0042838
-0.0044604
-0.0057385
-0.00879605
-0.0109555
-0.00819159
0.00174158
0.0195451
0.045307
0.075347
0.0978165
0.100414
0.0912303
0.109383
0.160512
0.204119
0.232261
0.246938
0.252322
0.251615
0.0422289
0.0420251
0.0404256
0.0365198
0.0316686
0.0292389
0.0321808
0.0422051
0.0599336
0.0828691
0.100665
0.0995875
0.0831778
0.104489
0.148799
0.179674
0.196765
0.204033
0.206187
0.205543
0.0611858
0.0608957
0.059506
0.05629
0.0523703
0.0498177
0.0509461
0.058051
0.072464
0.0939081
0.114471
0.123689
0.124163
0.146754
0.173428
0.190309
0.199189
0.203071
0.204545
0.203741
0.0651364
0.0649794
0.0641629
0.0620469
0.0595929
0.058382
0.0602239
0.0672583
0.0820393
0.10511
0.133311
0.158752
0.183525
0.204342
0.217252
0.222015
0.225058
0.228295
0.229593
0.228447
0.0588508
0.0589998
0.0589443
0.0580819
0.0571038
0.0574921
0.0609737
0.0697569
0.0866596
0.113884
0.149092
0.186691
0.229354
0.252076
0.250714
0.251863
0.256618
0.260976
0.26335
0.261989
0.0421304
0.0425955
0.0432305
0.0435948
0.0442732
0.0466656
0.0525016
0.0639356
0.0847104
0.116259
0.155433
0.194308
0.237938
0.257469
0.260041
0.269577
0.279721
0.290806
0.294665
0.291725
0.0134593
0.0142599
0.0155124
0.0169241
0.0192589
0.0239065
0.032483
0.0472906
0.0724176
0.108952
0.149763
0.182473
0.210568
0.223991
0.234342
0.251629
0.269798
0.280261
0.283519
0.282158
-0.0279843
-0.0269973
-0.0253756
-0.02312
-0.0194771
-0.0130936
-0.0022686
0.015705
0.0453895
0.0879955
0.132949
0.16205
0.172298
0.171068
0.197545
0.229625
0.253654
0.262493
0.26426
0.263414
-0.0841627
-0.0829391
-0.0810205
-0.0783133
-0.0741824
-0.0675399
-0.0567294
-0.0383945
-0.00761859
0.0409527
0.0996713
0.141009
0.138519
0.137721
0.177839
0.218977
0.244447
0.258124
0.258345
0.258225
-0.156132
-0.154853
-0.153086
-0.150778
-0.147786
-0.143882
-0.138177
-0.127634
-0.106761
-0.0603966
0.0235514
0.102304
0.119809
0.12948
0.177026
0.230784
0.266159
0.277518
0.27741
0.278384
-0.242713
-0.241772
-0.240934
-0.240466
-0.241383
-0.245213
-0.253528
-0.266533
-0.27908
-0.25397
-0.13266
0.00484654
0.0602234
0.0955982
0.176648
0.252297
0.312646
0.329442
0.324347
0.324147
-0.33725
-0.337201
-0.338299
-0.341592
-0.350042
-0.368155
-0.402641
-0.461891
-0.542588
-0.569268
-0.396674
-0.171506
-0.0547999
0.0250679
0.148912
0.264274
0.336423
0.353836
0.348663
0.34506
-0.425742
-0.427081
-0.430947
-0.439667
-0.458746
-0.49684
-0.568848
-0.697721
-0.886843
-0.982568
-0.756272
-0.42064
-0.234175
-0.0906107
0.0699317
0.204042
0.270588
0.27267
0.268813
0.265113
-0.488177
-0.491038
-0.497734
-0.512088
-0.542083
-0.600774
-0.712796
-0.916073
-1.21303
-1.39081
-1.09487
-0.686764
-0.424049
-0.235048
-0.0379349
0.0687375
0.105628
0.113315
0.114775
0.113244
-0.504681
-0.50865
-0.516886
-0.535011
-0.571643
-0.643162
-0.781708
-1.03302
-1.38144
-1.62709
-1.31874
-0.876652
-0.603491
-0.36177
-0.15021
-0.0519253
-0.0451646
-0.0468523
-0.0485026
-0.0510615
-0.463862
-0.467735
-0.475993
-0.493605
-0.530677
-0.602643
-0.740771
-0.992544
-1.34325
-1.57468
-1.31097
-0.931433
-0.719538
-0.519803
-0.324261
-0.243619
-0.231196
-0.232335
-0.235398
-0.239458
-0.372284
-0.375243
-0.381598
-0.395596
-0.425449
-0.484191
-0.597761
-0.805251
-1.07757
-1.23258
-1.05393
-0.836509
-0.766823
-0.778336
-0.67507
-0.555645
-0.499839
-0.476262
-0.466327
-0.465769
-0.250727
-0.2523
-0.255738
-0.264189
-0.283172
-0.321469
-0.39706
-0.538585
-0.723721
-0.797544
-0.693061
-0.631819
-0.716469
-1.04679
-1.1161
-0.879461
-0.731425
-0.659682
-0.625619
-0.614121
-0.126301
-0.126601
-0.127662
-0.130798
-0.139202
-0.1573
-0.19427
-0.268693
-0.37825
-0.421817
-0.375606
-0.358856
-0.459327
-0.71516
-0.879971
-0.714777
-0.592018
-0.528347
-0.497117
-0.485801
-0.0194965
-0.0193839
-0.0179056
-0.0162779
-0.0159187
-0.017
-0.0201136
-0.0274218
-0.0464344
-0.0759017
-0.0763855
-0.0911759
-0.0989239
-0.147091
-0.190039
-0.167653
-0.130181
-0.109968
-0.103147
-0.0999129
0.0212177
0.209144
0.428008
0.613918
0.763817
0.883608
0.983804
1.06835
1.10611
1.08333
0.36322
0.49696
0.63933
0.762538
0.866923
0.953888
1.02436
1.07437
1.09984
1.11158
0.604864
0.695818
0.792329
0.877974
0.951859
1.01374
1.06289
1.09876
1.12438
1.142
0.779324
0.842818
0.910393
0.972301
1.02608
1.07168
1.109
1.13861
1.16255
1.18062
0.913412
0.959773
1.00889
1.05576
1.0971
1.13307
1.16372
1.18907
1.21017
1.22787
1.02298
1.0578
1.09801
1.13555
1.16986
1.20049
1.22715
1.24944
1.26777
1.28505
1.1188
1.14866
1.18409
1.21743
1.24844
1.27649
1.30094
1.32118
1.33702
1.35408
1.20947
1.2394
1.2743
1.30709
1.33736
1.36451
1.38784
1.40666
1.42027
1.43732
1.3061
1.33966
1.37688
1.41095
1.44142
1.46797
1.49022
1.50772
1.51976
1.53718
1.42199
1.45985
1.49888
1.53349
1.5631
1.58807
1.60862
1.62466
1.63624
1.65433
1.56753
1.60626
1.6424
1.67325
1.69908
1.72131
1.74047
1.75609
1.76859
1.7866
1.74257
1.7745
1.80079
1.82329
1.84335
1.86215
1.87992
1.89645
1.91185
1.92993
1.93135
1.94866
1.96384
1.98014
1.99609
2.01067
2.02391
2.03787
2.05545
2.07561
2.11339
2.12282
2.13439
2.14524
2.15455
2.16417
2.17501
2.1864
2.19778
2.21315
2.32052
2.32422
2.3093
2.29451
2.28827
2.29397
2.31247
2.3428
2.37499
2.40165
2.62687
2.49201
2.4154
2.37309
2.35568
2.35965
2.38707
2.44349
2.54612
2.77049
0.906478
0.904347
0.89986
0.89123
0.878998
0.866856
0.856608
0.84868
0.84301
0.839677
0.83921
0.841825
0.846823
0.853963
0.863288
0.874781
0.887397
0.898407
0.904508
0.907553
0.830943
0.836788
0.843125
0.847612
0.850072
0.849735
0.846978
0.843136
0.839572
0.837224
0.836957
0.839025
0.842576
0.846774
0.850511
0.852342
0.851367
0.847855
0.842667
0.836036
0.822552
0.824848
0.828249
0.831242
0.833311
0.834795
0.835527
0.835174
0.834088
0.833112
0.833155
0.834439
0.836129
0.837332
0.837429
0.836474
0.834873
0.832496
0.829205
0.826273
0.817083
0.818169
0.820002
0.82238
0.8244
0.825819
0.826819
0.82753
0.827866
0.827984
0.828325
0.828969
0.829417
0.829359
0.828843
0.82791
0.826373
0.824233
0.822107
0.820711
0.81194
0.812602
0.813713
0.815425
0.81721
0.818838
0.820115
0.821088
0.821894
0.822567
0.823124
0.823477
0.823491
0.823172
0.822475
0.821309
0.819787
0.818166
0.816795
0.816002
0.807043
0.807501
0.808295
0.809611
0.811114
0.81264
0.814099
0.815363
0.816422
0.817343
0.818054
0.818383
0.818304
0.817827
0.816951
0.815808
0.814552
0.813312
0.812329
0.811799
0.802329
0.802669
0.80329
0.804387
0.805712
0.807107
0.808553
0.809976
0.811277
0.812404
0.813269
0.81367
0.81356
0.813016
0.812179
0.811201
0.810176
0.809167
0.808412
0.808022
0.797756
0.798016
0.798522
0.799476
0.800698
0.802032
0.803438
0.804905
0.806374
0.80773
0.808789
0.809291
0.809224
0.808765
0.808076
0.807257
0.806379
0.80555
0.804955
0.804657
0.793269
0.793469
0.793891
0.794746
0.795904
0.797201
0.798596
0.800086
0.80164
0.80318
0.804465
0.80516
0.805278
0.805009
0.804489
0.803823
0.803088
0.802405
0.801934
0.801703
0.788811
0.788963
0.789323
0.79012
0.791256
0.79255
0.793978
0.79554
0.797223
0.798966
0.800519
0.801483
0.801838
0.801771
0.801419
0.800896
0.800292
0.799718
0.799344
0.799167
0.78436
0.784472
0.784785
0.785546
0.786686
0.788015
0.789516
0.791206
0.79306
0.795031
0.796909
0.798245
0.798905
0.79906
0.798883
0.798504
0.798019
0.797547
0.797256
0.797122
0.77987
0.779947
0.780224
0.780967
0.782121
0.7835
0.785066
0.786878
0.788977
0.791317
0.793625
0.795341
0.796311
0.79676
0.796842
0.796653
0.796306
0.795938
0.795722
0.795627
0.775311
0.775352
0.775594
0.776317
0.777494
0.778934
0.780609
0.782586
0.784903
0.787577
0.790395
0.792695
0.794177
0.795009
0.795366
0.795406
0.795235
0.794994
0.79486
0.794805
0.770704
0.770706
0.770923
0.771626
0.772832
0.77436
0.776179
0.778406
0.781125
0.784362
0.787843
0.790746
0.792708
0.793946
0.794641
0.794959
0.794996
0.79492
0.794879
0.794856
0.765887
0.765891
0.76607
0.766716
0.767879
0.769431
0.771379
0.773852
0.776961
0.780792
0.785071
0.788818
0.7915
0.793313
0.794446
0.795172
0.795588
0.79577
0.795844
0.795839
0.760414
0.760395
0.760592
0.761235
0.762426
0.764093
0.766297
0.769191
0.772922
0.777586
0.782874
0.787578
0.791009
0.793444
0.795151
0.796282
0.797024
0.797442
0.797614
0.79762
0.753985
0.753957
0.754169
0.754845
0.756148
0.758027
0.760582
0.763995
0.768472
0.774165
0.78071
0.786612
0.79102
0.794211
0.796493
0.798117
0.799217
0.799875
0.800137
0.80015
0.746259
0.746222
0.746474
0.747273
0.748771
0.750985
0.754049
0.758194
0.76368
0.770688
0.778784
0.786136
0.791657
0.79571
0.798648
0.800775
0.802257
0.803148
0.803486
0.803505
0.736845
0.736796
0.737119
0.738107
0.739931
0.742648
0.746433
0.751574
0.758386
0.767086
0.777106
0.786185
0.793027
0.798067
0.80174
0.804426
0.806308
0.807408
0.807817
0.807843
0.725297
0.725231
0.725651
0.726911
0.729205
0.732617
0.737392
0.743875
0.752421
0.763257
0.775644
0.786808
0.795193
0.80137
0.805893
0.809224
0.811563
0.812894
0.813381
0.813414
0.710993
0.710908
0.711463
0.713107
0.716076
0.72049
0.726639
0.734925
0.745744
0.759277
0.774541
0.788164
0.798353
0.805864
0.811403
0.815494
0.818289
0.819855
0.820437
0.82048
0.693106
0.692996
0.693755
0.695937
0.69987
0.705719
0.713793
0.724519
0.738277
0.755157
0.773863
0.790368
0.802671
0.811747
0.818452
0.823331
0.82669
0.828555
0.829253
0.8293
0.670371
0.67025
0.671357
0.674357
0.679684
0.687631
0.698424
0.71247
0.730025
0.751026
0.773792
0.793608
0.808314
0.819178
0.827201
0.833035
0.837
0.839219
0.840039
0.840084
0.640598
0.640512
0.642274
0.646675
0.654247
0.665389
0.680127
0.698691
0.72111
0.747087
0.774533
0.798053
0.815417
0.828265
0.837768
0.844688
0.849396
0.852024
0.852962
0.852993
0.599732
0.599827
0.603055
0.610375
0.622017
0.638302
0.65879
0.683394
0.711861
0.74367
0.776351
0.803888
0.824095
0.839064
0.850185
0.858335
0.86392
0.866991
0.86802
0.868024
0.540109
0.541413
0.549287
0.562977
0.582137
0.606494
0.634971
0.667229
0.702849
0.741196
0.77949
0.811206
0.834329
0.851469
0.864282
0.873782
0.880361
0.883886
0.884957
0.884915
0.468778
0.470897
0.485824
0.509498
0.539212
0.573022
0.610268
0.650735
0.694103
0.73979
0.784776
0.821878
0.849044
0.869354
0.884694
0.896172
0.904253
0.90861
0.909788
0.909813
0.395423
0.402271
0.42434
0.457932
0.497369
0.540379
0.586327
0.635025
0.68619
0.739327
0.791178
0.833821
0.865111
0.888692
0.906795
0.920634
0.930389
0.934833
0.936457
0.93682
0.336534
0.345304
0.372048
0.412377
0.45937
0.510143
0.563852
0.620178
0.678727
0.738923
0.797205
0.844883
0.879781
0.906053
0.926206
0.941571
0.952368
0.958
0.96048
0.960977
0.288628
0.297957
0.328167
0.37339
0.426135
0.483118
0.543336
0.606321
0.671517
0.738205
0.802358
0.854506
0.892456
0.92088
0.942624
0.95927
0.9711
0.977581
0.980416
0.98098
0.248468
0.258008
0.290512
0.339535
0.39693
0.459026
0.52473
0.59349
0.664579
0.737109
0.806574
0.86266
0.903177
0.933334
0.956277
0.973796
0.986356
0.993501
0.99657
0.997164
0.213547
0.223168
0.257376
0.309447
0.370698
0.437141
0.507604
0.581436
0.657798
0.73562
0.809915
0.869542
0.912272
0.943808
0.9676
0.985634
0.998558
1.00612
1.0093
1.00993
0.182304
0.191952
0.227472
0.282131
0.346593
0.416765
0.491421
0.569795
0.650949
0.733651
0.812447
0.87537
0.920101
0.952794
0.977211
0.99553
1.00861
1.01634
1.01951
1.02019
0.15355
0.163242
0.199856
0.256718
0.323962
0.397408
0.475775
0.558246
0.643802
0.731085
0.814191
0.880292
0.926965
0.960749
0.985721
1.00428
1.01742
1.02527
1.02843
1.02904
0.126512
0.136261
0.173846
0.232598
0.302322
0.378673
0.460357
0.546549
0.63618
0.727802
0.815107
0.884411
0.933055
0.967995
0.993582
1.01244
1.02569
1.03352
1.03671
1.03717
0.100696
0.110523
0.14901
0.209387
0.281354
0.360293
0.44496
0.53454
0.627949
0.723701
0.815158
0.887753
0.938539
0.974785
1.00111
1.02033
1.03372
1.04154
1.04469
1.04513
0.0756845
0.0856813
0.124998
0.18689
0.260837
0.342098
0.429453
0.522116
0.619031
0.718719
0.814303
0.890374
0.943532
0.981276
1.00848
1.02819
1.04181
1.04963
1.05266
1.0531
0.051307
0.0615433
0.101591
0.164938
0.240647
0.323975
0.413757
0.509226
0.609376
0.712814
0.812523
0.892252
0.948021
0.987509
1.0158
1.03612
1.05002
1.05784
1.06074
1.06112
0.0275111
0.0379635
0.0787569
0.143411
0.220714
0.305902
0.397854
0.495854
0.598975
0.705953
0.809729
0.893274
0.95197
0.993492
1.02307
1.04412
1.05832
1.06611
1.06883
1.06912
0.00417113
0.014931
0.0564456
0.122289
0.201026
0.287873
0.381756
0.482022
0.587842
0.69811
0.805827
0.893349
0.955295
0.999197
1.0303
1.0522
1.0667
1.07439
1.07689
1.07705
-0.018637
-0.00759569
0.034643
0.101582
0.181605
0.269922
0.365515
0.467784
0.576009
0.689279
0.800779
0.892361
0.957862
1.00454
1.0375
1.06037
1.07509
1.08254
1.08474
1.08478
-0.040945
-0.0296015
0.0133766
0.0813191
0.162493
0.252103
0.349191
0.453211
0.563545
0.679508
0.794553
0.890177
0.959488
1.00941
1.04468
1.06871
1.08352
1.09049
1.09227
1.09218
-0.0625668
-0.0509958
-0.00730556
0.0615485
0.143752
0.234498
0.33286
0.438387
0.550544
0.668873
0.787128
0.886685
0.959974
1.01359
1.05182
1.07744
1.09219
1.09821
1.09931
1.09908
-0.0836309
-0.071727
-0.027368
0.0423101
0.125423
0.217156
0.316623
0.423409
0.537106
0.657462
0.778533
0.881787
0.959097
1.01678
1.05875
1.08686
1.10172
1.10605
1.1058
1.10534
-0.10397
-0.091764
-0.0467777
0.0236598
0.107591
0.200164
0.300567
0.408401
0.523348
0.645359
0.768837
0.875418
0.956646
1.01856
1.06503
1.09706
1.11325
1.11558
1.11241
1.11069
-0.123636
-0.11115
-0.0654811
0.00565306
0.0902996
0.183595
0.284777
0.393445
0.509389
0.632719
0.758145
0.867539
0.952464
1.01845
1.06978
1.10731
1.12758
1.13033
1.12325
1.11279
-0.142547
-0.129838
-0.0835805
-0.0118613
0.0733393
0.167163
0.268908
0.378127
0.49476
0.619004
0.745871
0.8575
0.945926
1.01577
1.07161
1.11583
1.14334
1.15044
1.14304
1.13284
-0.160652
-0.147733
-0.101079
-0.0288407
0.0567233
0.150866
0.252986
0.362438
0.47943
0.60412
0.731868
0.845002
0.936391
1.00989
1.06794
1.11686
1.14784
1.15978
1.12487
1.07012
-0.177697
-0.164074
-0.117876
-0.0452316
0.0403344
0.134577
0.23697
0.346499
0.46347
0.588152
0.716118
0.829948
0.922983
1.00059
1.05714
1.09888
1.13075
1.12348
1.06609
0.99888
-0.19397
-0.179626
-0.133781
-0.0604448
0.0244971
0.118769
0.220642
0.330373
0.447029
0.57128
0.698669
0.812245
0.904757
0.989013
1.03903
1.09164
1.0683
1.03057
0.96058
0.889781
-0.179761
-0.161732
-0.11334
-0.0362135
0.0535366
0.151456
0.258516
0.371046
0.490563
0.617928
0.73876
0.839007
0.922987
1.0117
1.06506
0.982585
0.940223
0.878551
0.804219
0.754509
-0.204072
-0.187493
-0.152146
-0.0845466
2.62044e-05
0.0937371
0.195683
0.304688
0.420374
0.543083
0.668125
0.779257
0.867865
0.946305
1.01662
1.01957
0.898905
0.814829
0.751493
0.665492