/*--------------------------------*- C++ -*----------------------------------*\
  =========                 |
  \\      /  F ield         | OpenFOAM: The Open Source CFD Toolbox
   \\    /   O peration     | Website:  https://openfoam.org
    \\  /    A nd           | Version:  7
     \\/     M anipulation  |
\*---------------------------------------------------------------------------*/
FoamFile
{
    version     2.0;
    format      ascii;
    class       volScalarField;
    location    "9.2";
    object      p;
}
// * * * * * * * * * * * * * * * * * * * * * * * * * * * * * * * * * * * * * //

dimensions      [1 -1 -2 0 0 0 0];

internalField   nonuniform List<scalar> 
19968
(
1
1
1
1
1
1
1
1
1
1
1
1
1
1
1
1
1
1
1
1
1
1
1
1
1
1
1
1
1
1
1
1
1
1
1
1
1
1
1
1
1
1
1
1
1
1
1
1
1.55884
8.05823
10.4465
10.4567
10.5203
10.5773
10.6359
10.6929
10.7484
10.8026
10.8568
10.9129
10.97
11.0245
11.0747
11.1216
11.1666
11.2103
11.2548
11.3019
11.3491
11.3926
11.4307
11.4654
11.5003
11.5385
11.5811
11.6267
11.6716
11.7117
11.7446
11.7707
11.7918
11.8106
11.8302
11.8529
11.8787
11.9055
11.9306
11.9529
11.9724
11.9898
12.0051
12.0176
12.0264
12.0313
12.0332
12.0355
1
1
1
1
1
1
1
1
1
1
1
1
1
1
1
1
1
1
1
1
1
1
1
1
1
1
1
1
1
1
1
1
1
1
1
1
1
1
1
1
1
1
1
1
1
1
1
1
1.52524
7.98359
10.4306
10.4588
10.519
10.5754
10.6339
10.6909
10.7462
10.8007
10.8546
10.91
10.9664
11.0207
11.0713
11.1183
11.1633
11.2067
11.2512
11.2981
11.3452
11.3887
11.427
11.4619
11.497
11.5351
11.5775
11.6227
11.667
11.7065
11.739
11.7649
11.7861
11.8055
11.8259
11.8493
11.8755
11.9021
11.9266
11.9479
11.9664
11.983
11.9978
12.0102
12.0192
12.0243
12.0262
12.0285
1
1
1
1
1
1
1
1
1
1
1
1
1
1
1
1
1
1
1
1
1
1
1
1
1
1
1
1
1
1
1
1
1
1
1
1
1
1
1
1
1
1
1
1
1
1
1
1
1.45217
7.82765
10.4209
10.4544
10.5114
10.567
10.6254
10.6826
10.7386
10.7941
10.848
10.9029
10.9587
11.0126
11.064
11.1112
11.1563
11.1995
11.2437
11.2902
11.3371
11.3806
11.4193
11.4548
11.4901
11.5282
11.5702
11.6146
11.658
11.6966
11.7286
11.7545
11.7761
11.7962
11.8176
11.8418
11.8684
11.8949
11.9191
11.9397
11.9574
11.973
11.9871
11.9992
12.0084
12.0139
12.0161
12.0186
1
1
1
1
1
1
1
1
1
1
1
1
1
1
1
1
1
1
1
1
1
1
1
1
1
1
1
1
1
1
1
1
1
1
1
1
1
1
1
1
1
1
1
1
1
1
1
1
1.35101
7.58025
10.4075
10.4517
10.5046
10.5595
10.6171
10.6743
10.7303
10.7862
10.8397
10.8937
10.9486
11.0018
11.0536
11.101
11.1463
11.1893
11.2334
11.2795
11.3259
11.3692
11.4082
11.4441
11.4797
11.5178
11.5592
11.6028
11.645
11.6825
11.7138
11.7395
11.7617
11.783
11.8055
11.8305
11.8569
11.8826
11.9054
11.9247
11.9409
11.9553
11.9687
11.9808
11.9906
11.9972
12.0004
12.0037
1
1
1
1
1
1
1
1
1
1
1
1
1
1
1
1
1
1
1
1
1
1
1
1
1
1
1
1
1
1
1
1
1
1
1
1
1
1
1
1
1
1
1
1
1
1
1
1
1.2281
7.25692
10.3954
10.4463
10.4942
10.5475
10.6041
10.6615
10.7186
10.7758
10.8297
10.8831
10.9371
10.9893
11.0409
11.0882
11.1333
11.176
11.2201
11.2657
11.3117
11.3549
11.3941
11.4305
11.4666
11.5046
11.5457
11.5882
11.6292
11.6655
11.6961
11.722
11.7452
11.7682
11.7923
11.8179
11.8438
11.8681
11.8891
11.9064
11.9206
11.9329
11.9444
11.9553
11.9648
11.9718
11.9755
11.9794
1
1
1
1
1
1
1
1
1
1
1
1
1
1
1
1
1
1
1
1
1
1
1
1
1
1
1
1
1
1
1
1
1
1
1
1
1
1
1
1
1
1
1
1
1
1
1
1
1.02956
6.75623
10.379
10.4413
10.4895
10.5433
10.5991
10.6559
10.713
10.7699
10.8234
10.8753
10.9278
10.9785
11.029
11.0753
11.1194
11.1611
11.2042
11.2487
11.2933
11.3352
11.3736
11.4097
11.4454
11.4829
11.5229
11.5641
11.6034
11.638
11.6675
11.6931
11.7173
11.7419
11.7677
11.794
11.8193
11.8422
11.8618
11.8779
11.8911
11.9026
11.9136
11.9245
11.9344
11.9425
11.9473
11.9522
1
1
1
1
1
1
1
1
1
1
1
1
1
1
1
1
1
1
1
1
1
1
1
1
1
1
1
1
1
1
1
1
1
1
1
1
1
1
1
1
1
1
1
1
1
1
1
1
1.00026
6.05224
10.2953
10.3934
10.4412
10.4988
10.5564
10.6145
10.673
10.731
10.7858
10.8379
10.8901
10.9403
10.9904
11.0372
11.0815
11.1231
11.1658
11.2096
11.2535
11.2951
11.3341
11.3712
11.4079
11.4458
11.4856
11.5259
11.5639
11.5974
11.6262
11.6521
11.6777
11.7044
11.7321
11.7592
11.7839
11.8051
11.8229
11.8376
11.8498
11.8607
11.8713
11.8821
11.8923
11.9013
11.907
11.9129
1
1
1
1
1
1
1
1
1
1
1
1
1
1
1
1
1
1
1
1
1
1
1
1
1
1
1
1
1
1
1
1
1
1
1
1
1
1
1
1
1
1
1
1
1
1
1
1
1
5.12775
10.1572
10.3596
10.4107
10.4723
10.5307
10.589
10.6475
10.7051
10.7599
10.8117
10.8629
10.912
10.9601
11.0058
11.049
11.0896
11.1308
11.1729
11.2149
11.2553
11.2943
11.3321
11.3695
11.4075
11.4464
11.4852
11.5214
11.5533
11.5811
11.6068
11.633
11.6608
11.6897
11.7172
11.7411
11.7605
11.776
11.7885
11.7993
11.8093
11.8197
11.8304
11.8409
11.8505
11.8567
11.8635
1
1
1
1
1
1
1
1
1
1
1
1
1
1
1
1
1
1
1
1
1
1
1
1
1
1
1
1
1
1
1
1
1
1
1
1
1
1
1
1
1
1
1
1
1
1
1
1
1
4.04222
9.89238
10.3253
10.3767
10.4414
10.4998
10.5577
10.6154
10.6722
10.7265
10.7779
10.8275
10.8759
10.9224
10.9668
11.0083
11.0474
11.0863
11.1259
11.1656
11.2043
11.2427
11.2807
11.3183
11.3556
11.3929
11.4296
11.4639
11.4941
11.5209
11.546
11.5719
11.5997
11.6289
11.6566
11.6801
11.6982
11.7118
11.7225
11.732
11.7417
11.7524
11.7637
11.7746
11.7849
11.7916
11.7991
1
1
1
1
1
1
1
1
1
1
1
1
1
1
1
1
1
1
1
1
1
1
1
1
1
1
1
1
1
1
1
1
1
1
1
1
1
1
1
1
1
1
1
1
1
1
1
1
1
2.89629
9.34995
10.3091
10.3646
10.4285
10.4843
10.5388
10.593
10.6464
10.6978
10.7469
10.7933
10.8394
10.884
10.9269
10.9665
11.0042
11.0412
11.0784
11.1159
11.1524
11.1893
11.2258
11.2618
11.2965
11.3305
11.3636
11.3946
11.4225
11.4474
11.4709
11.4953
11.522
11.5506
11.5786
11.6024
11.6201
11.6324
11.6411
11.6486
11.6568
11.6666
11.6774
11.6881
11.6983
11.7049
11.7126
1
1
1
1
1
1
1
1
1
1
1
1
1
1
1
1
1
1
1
1
1
1
1
1
1
1
1
1
1
1
1
1
1
1
1
1
1
1
1
1
1
1
1
1
1
1
1
1
1
1.84554
8.4003
10.3424
10.332
10.3985
10.446
10.4982
10.5503
10.6023
10.6534
10.7033
10.7497
10.7943
10.8377
10.8794
10.9184
10.9559
10.9924
11.0279
11.0638
11.0985
11.1335
11.1681
11.2017
11.2337
11.2643
11.2936
11.3209
11.3454
11.367
11.3868
11.4069
11.429
11.4535
11.4783
11.4999
11.5156
11.5257
11.5322
11.5377
11.5444
11.5535
11.5644
11.5757
11.5867
11.5942
11.6025
1
1
1
1
1
1
1
1
1
1
1
1
1
1
1
1
1
1
1
1
1
1
1
1
1
1
1
1
1
1
1
1
1
1
1
1
1
1
1
1
1
1
1
1
1
1
1
1
1
1.03283
6.7262
10.3483
10.3616
10.3975
10.4361
10.4811
10.528
10.575
10.6209
10.6665
10.7089
10.7487
10.7885
10.8262
10.8611
10.8952
10.9293
10.962
10.9951
11.0264
11.0573
11.088
11.1178
11.1465
11.1735
11.1993
11.2233
11.2449
11.2639
11.2809
11.2974
11.3154
11.3358
11.3576
11.378
11.3937
11.4031
11.4075
11.4091
11.4098
11.4117
11.4161
11.4225
11.4304
11.4364
11.4433
1
1
1
1
1
1
1
1
1
1
1
1
1
1
1
1
1
1
1
1
1
1
1
1
1
1
1
1
1
1
1
1
1
1
1
1
1
1
1
1
1
1
1
1
1
1
1
1
1
1.00006
4.62179
9.91659
10.2055
10.2678
10.3283
10.3795
10.4284
10.4765
10.5224
10.5673
10.6098
10.6481
10.6855
10.722
10.7568
10.7915
10.8268
10.8598
10.8915
10.9207
10.9482
10.976
11.0033
11.0299
11.0548
11.0779
11.0989
11.1175
11.1334
11.1471
11.1591
11.1709
11.1835
11.1973
11.2108
11.2208
11.2254
11.2238
11.2169
11.2098
11.2054
11.2073
11.2149
11.2254
11.2335
11.2415
1
1
1
1
1
1
1
1
1
1
1
1
1
1
1
1
1
1
1
1
1
1
1
1
1
1
1
1
1
1
1
1
1
1
1
1
1
1
1
1
1
1
1
1
1
1
1
1
1
1
2.40719
8.78703
10.1594
10.206
10.2761
10.3276
10.3747
10.4195
10.4626
10.5043
10.5445
10.5805
10.6141
10.6472
10.6795
10.7118
10.7448
10.7753
10.8019
10.8256
10.8466
10.8678
10.8899
10.9117
10.9318
10.9496
10.9649
10.9774
10.9874
10.995
11.0002
11.0036
11.0058
11.0084
11.0128
11.0177
11.0201
11.0154
11.0028
10.9853
10.967
10.9529
10.9401
10.9271
10.9116
10.8973
1
1
1
1
1
1
1
1
1
1
1
1
1
1
1
1
1
1
1
1
1
1
1
1
1
1
1
1
1
1
1
1
1
1
1
1
1
1
1
1
1
1
1
1
1
1
1
1
1
1
1.06015
6.39691
10.221
10.2284
10.2557
10.2865
10.3204
10.3547
10.3895
10.4233
10.456
10.4867
10.5152
10.544
10.5727
10.6009
10.6296
10.6566
10.6788
10.6972
10.7122
10.7263
10.7421
10.7587
10.7738
10.7864
10.7954
10.8011
10.8044
10.805
10.8014
10.7943
10.7829
10.7693
10.7562
10.7438
10.7279
10.7019
10.6613
10.6082
10.5509
10.4986
10.4617
10.4353
10.426
10.4249
1
1
1
1
1
1
1
1
1
1
1
1
1
1
1
1
1
1
1
1
1
1
1
1
1
1
1
1
1
1
1
1
1
1
1
1
1
1
1
1
1
1
1
1
1
1
1
1
1
1
1.00009
3.27813
9.25907
10.0902
10.1208
10.1597
10.1951
10.2308
10.267
10.3029
10.3372
10.3685
10.3963
10.4228
10.4495
10.4766
10.5038
10.5287
10.5474
10.5597
10.5673
10.5725
10.5789
10.5873
10.5955
10.6016
10.604
10.602
10.596
10.5856
10.5699
10.5483
10.5198
10.4854
10.4472
10.4073
10.3643
10.3133
10.2498
10.1754
10.0963
10.0198
9.93773
9.86365
9.75801
9.85382
1
1
1
1
1
1
1
1
1
1
1
1
1
1
1
1
1
1
1
1
1
1
1
1
1
1
1
1
1
1
1
1
1
1
1
1
1
1
1
1
1
1
1
1
1
1
1
1
1
1
1
1.21535
7.27479
10.1377
10.1025
10.1205
10.1407
10.1651
10.192
10.2206
10.2484
10.2732
10.2955
10.3167
10.3393
10.3633
10.3869
10.4076
10.4221
10.4294
10.4314
10.4294
10.4266
10.4248
10.4248
10.4238
10.419
10.4088
10.3932
10.3712
10.3422
10.3059
10.2609
10.2065
10.1424
10.0704
9.98973
9.89679
9.78119
9.63633
9.4437
9.18974
8.81496
8.25995
7.34477
5.45489
1
1
1
1
1
1
1
1
1
1
1
1
1
1
1
1
1
1
1
1
1
1
1
1
1
1
1
1
1
1
1
1
1
1
1
1
1
1
1
1
1
1
1
1
1
1
1
1
1
1
1
1.00151
4.62163
9.71227
9.94261
9.98973
10.0245
10.0589
10.0891
10.1183
10.147
10.1735
10.1952
10.2114
10.2255
10.2416
10.2616
10.2827
10.2989
10.3069
10.3068
10.3004
10.2904
10.2798
10.271
10.2616
10.2498
10.2334
10.2104
10.179
10.1383
10.0885
10.0287
9.95707
9.87107
9.77079
9.65267
9.51702
9.34826
9.14279
8.86627
8.50816
7.99178
7.32419
6.1215
4.50809
1
1
1
1
1
1
1
1
1
1
1
1
1
1
1
1
1
1
1
1
1
1
1
1
1
1
1
1
1
1
1
1
1
1
1
1
1
1
1
1
1
1
1
1
1
1
1
1
1
1
1
0.999996
1.97106
8.28756
9.88423
9.91256
9.95292
9.98494
10.0139
10.0407
10.0685
10.0953
10.1163
10.1291
10.1363
10.1437
10.156
10.1711
10.1834
10.1886
10.1856
10.1754
10.1596
10.141
10.121
10.1004
10.0786
10.0531
10.0214
9.98088
9.92918
9.86632
9.79042
9.70096
9.59341
9.46785
9.31744
9.14412
8.93361
8.68054
8.35867
7.94055
7.40673
6.64519
5.64535
4.54967
1
1
1
1
1
1
1
1
1
1
1
1
1
1
1
1
1
1
1
1
1
1
1
1
1
1
1
1
1
1
1
1
1
1
1
1
1
1
1
1
1
1
1
1
1
1
1
1
1
1
1
0.999999
1.0339
5.46327
9.7276
9.84007
9.87285
9.90331
9.93075
9.95358
9.97633
10.0005
10.0215
10.0361
10.0431
10.0463
10.0504
10.0552
10.0584
10.0578
10.0517
10.0398
10.0218
9.99835
9.96935
9.93739
9.90336
9.86624
9.82392
9.77456
9.714
9.64125
9.55198
9.44667
9.32065
9.17465
9.00221
8.80226
8.56651
8.28485
7.94378
7.5159
6.98349
6.32917
5.54282
4.73029
1
1
1
1
1
1
1
1
1
1
1
1
1
1
1
1
1
1
1
1
1
1
1
1
1
1
1
1
1
1
1
1
1
1
1
1
1
1
1
1
1
1
1
1
1
1
1
1
1
1
1
1
1
2.25603
8.47606
9.77277
9.79577
9.83558
9.85857
9.87981
9.8966
9.91351
9.92513
9.93702
9.94827
9.95374
9.95442
9.95073
9.94341
9.93335
9.9206
9.90455
9.88403
9.85742
9.8231
9.78268
9.73676
9.68642
9.63065
9.56979
9.49975
9.41869
9.32044
9.20396
9.0651
8.9045
8.71873
8.50499
8.2585
7.96836
7.6324
7.21568
6.73599
6.18663
5.57866
4.92497
1
1
1
1
1
1
1
1
1
1
1
1
1
1
1
1
1
1
1
1
1
1
1
1
1
1
1
1
1
1
1
1
1
1
1
1
1
1
1
1
1
1
1
1
1
1
1
1
1
1
1
1
0.999999
1.0511
5.51973
9.61836
9.73971
9.76501
9.7845
9.81101
9.83126
9.84403
9.84705
9.84969
9.85595
9.85778
9.85317
9.84285
9.82851
9.81189
9.79302
9.77165
9.74705
9.71733
9.67939
9.63353
9.57869
9.51694
9.44817
9.37421
9.29284
9.20254
9.09767
8.97476
8.82921
8.66107
8.46941
8.25218
8.00647
7.72336
7.40333
7.02079
6.6005
6.14712
5.64077
5.11385
1
1
1
1
1
1
1
1
1
1
1
1
1
1
1
1
1
1
1
1
1
1
1
1
1
1
1
1
1
1
1
1
1
1
1
1
1
1
1
1
1
1
1
1
1
1
1
1
1
1
1
1
1
1.00005
2.07752
8.23713
9.6814
9.6801
9.71206
9.73003
9.74132
9.75037
9.75331
9.75436
9.75645
9.754
9.74447
9.72902
9.71005
9.68882
9.66439
9.63762
9.60673
9.57303
9.53224
9.48384
9.42504
9.35699
9.27996
9.19497
9.10179
9.00094
8.88937
8.76293
8.61587
8.44695
8.25594
8.04102
7.80528
7.53347
7.23819
6.89697
6.53197
6.13931
5.70429
5.27043
1
1
1
1
1
1
1
1
1
1
1
1
1
1
1
1
1
1
1
1
1
1
1
1
1
1
1
1
1
1
1
1
1
1
1
1
1
1
1
1
1
1
1
1
1
1
1
1
1
1
1
1
1
1
1.03589
4.93601
9.37123
9.60924
9.60655
9.63184
9.65373
9.66721
9.66938
9.66815
9.66535
9.6584
9.64585
9.62702
9.60394
9.57909
9.54875
9.51503
9.47696
9.4374
9.39121
9.33867
9.27653
9.20515
9.12443
9.03319
8.93115
8.82051
8.70105
8.57035
8.42308
8.25689
8.07168
7.86333
7.64151
7.38262
7.11484
6.81612
6.49177
6.14575
5.77949
5.40763
1
1
1
1
1
1
1
1
1
1
1
1
1
1
1
1
1
1
1
1
1
1
1
1
1
1
1
1
1
1
1
1
1
1
1
1
1
1
1
1
1
1
1
1
1
1
1
1
1
1
1
1
1
1
1.00003
1.52284
7.54453
9.65039
9.58335
9.58053
9.574
9.57351
9.56859
9.56087
9.55256
9.54329
9.53083
9.51221
9.48779
9.46124
9.42673
9.38616
9.34333
9.2994
9.24819
9.19223
9.12762
9.05513
8.97404
8.8817
8.77696
8.66153
8.53635
8.40178
8.25458
8.09188
7.91505
7.71541
7.50529
7.26404
7.02308
6.75736
6.46146
6.16339
5.84423
5.51718
1
1
1
1
1
1
1
1
1
1
1
1
1
1
1
1
1
1
1
1
1
1
1
1
1
1
1
1
1
1
1
1
1
1
1
1
1
1
1
1
1
1
1
1
1
1
1
1
1
1
1
1
1
1
1
1.00823
3.89646
8.98988
9.40179
9.42474
9.45336
9.456
9.45026
9.44358
9.43653
9.42709
9.41434
9.39649
9.37258
9.34718
9.31115
9.26449
9.2172
9.16921
9.11397
9.05506
8.98762
8.9137
8.83148
8.73856
8.63477
8.51905
8.39201
8.25485
8.10758
7.94729
7.7782
7.5879
7.39085
7.17129
6.95239
6.7073
6.44384
6.18592
5.89516
5.60151
1
1
1
1
1
1
1
1
1
1
1
1
1
1
1
1
1
1
1
1
1
1
1
1
1
1
1
1
1
1
1
1
1
1
1
1
1
1
1
1
1
1
1
1
1
1
1
1
1
1
1
1
1
1
1
1
1.22235
6.212
9.4253
9.38329
9.37582
9.36303
9.35785
9.3514
9.34488
9.33397
9.31899
9.29923
9.27291
9.2459
9.2069
9.15586
9.10298
9.05005
8.9895
8.92672
8.85628
8.78083
8.69735
8.60384
8.50299
8.38953
8.26527
8.12759
7.98196
7.82505
7.66254
7.48128
7.29917
7.09856
6.89368
6.66897
6.43981
6.20046
5.9312
5.67191
1
1
1
1
1
1
1
1
1
1
1
1
1
1
1
1
1
1
1
1
1
1
1
1
1
1
1
1
1
1
1
1
1
1
1
1
1
1
1
1
1
1
1
1
1
1
1
1
1
1
1
1
1
1
1
1
1.00151
2.16316
8.0114
9.33023
9.25549
9.263
9.2619
9.25602
9.24846
9.23582
9.21703
9.19366
9.1645
9.1346
9.09671
9.04511
8.99024
8.93357
8.86981
8.80377
8.73168
8.65489
8.5723
8.47898
8.37691
8.2668
8.1461
8.01247
7.87085
7.72032
7.5636
7.39192
7.22271
7.03589
6.84482
6.6448
6.43442
6.20414
5.97004
5.73884
1
1
1
1
1
1
1
1
1
1
1
1
1
1
1
1
1
1
1
1
1
1
1
1
1
1
1
1
1
1
1
1
1
1
1
1
1
1
1
1
1
1
1
1
1
1
1
1
1
1
1
1
1
1
1
1
1
1.03859
4.16864
8.90606
9.16182
9.17753
9.18673
9.17919
9.16721
9.14981
9.12619
9.09802
9.06369
9.02708
8.98895
8.93765
8.88252
8.82493
8.76115
8.69289
8.61901
8.53933
8.45779
8.36456
8.26269
8.1541
8.03778
7.90982
7.77439
7.63031
7.48046
7.31989
7.15874
6.98386
6.80718
6.62417
6.42206
6.21194
6.00911
5.79476
1
1
1
1
1
1
1
1
1
1
1
1
1
1
1
1
1
1
1
1
1
1
1
1
1
1
1
1
1
1
1
1
1
1
1
1
1
1
1
1
1
1
1
1
1
1
1
1
1
1
1
1
1
1
1
1
1
1.00007
1.25668
5.74109
9.03851
9.15909
9.1306
9.12105
9.10286
9.07753
9.04845
9.01492
8.97469
8.93157
8.8903
8.83946
8.78356
8.72531
8.66208
8.59284
8.51663
8.43329
8.35026
8.25656
8.15719
8.05116
7.93879
7.81561
7.68706
7.55021
7.40787
7.25772
7.10295
6.93982
6.77432
6.60139
6.41118
6.22445
6.04048
5.83884
1
1
1
1
1
1
1
1
1
1
1
1
1
1
1
1
1
1
1
1
1
1
1
1
1
1
1
1
1
1
1
1
1
1
1
1
1
1
1
1
1
1
1
1
1
1
1
1
1
1
1
1
1
1
1
1
1
1
1.00207
1.62698
7.29488
9.17391
9.10932
9.06874
9.02631
8.98891
8.95393
8.91996
8.87793
8.83335
8.79045
8.74079
8.68576
8.62753
8.56677
8.49958
8.42325
8.33904
8.25277
8.16079
8.06296
7.96051
7.85177
7.73595
7.61356
7.48254
7.34743
7.20553
7.0572
6.90571
6.7484
6.58164
6.40734
6.23815
6.0673
5.88107
1
1
1
1
1
1
1
1
1
1
1
1
1
1
1
1
1
1
1
1
1
1
1
1
1
1
1
1
1
1
1
1
1
1
1
1
1
1
1
1
1
1
1
1
1
1
1
1
1
1
1
1
1
1
1
1
1
1
1
1.01135
3.06185
8.32887
8.96083
8.90198
8.87368
8.84731
8.82435
8.79999
8.76783
8.7329
8.69431
8.64701
8.59502
8.5374
8.47505
8.41024
8.33605
8.25288
8.16597
8.0769
7.9826
7.88201
7.7756
7.66449
7.54733
7.42155
7.29272
7.15756
7.01707
6.87754
6.72817
6.56994
6.41365
6.25859
6.10012
5.93288
1
1
1
1
1
1
1
1
1
1
1
1
1
1
1
1
1
1
1
1
1
1
1
1
1
1
1
1
1
1
1
1
1
1
1
1
1
1
1
1
1
1
1
1
1
1
1
1
1
1
1
1
1
1
1
1
1
1
1
1.00002
1.11023
4.38103
8.61031
8.79766
8.77562
8.77261
8.75892
8.73631
8.70585
8.67044
8.62928
8.57965
8.52449
8.465
8.39907
8.33064
8.26072
8.17819
8.09138
8.004
7.91055
7.81332
7.71036
7.60232
7.48932
7.36947
7.24668
7.11869
6.98683
6.85657
6.71698
6.57362
6.43762
6.29812
6.15687
6.01288
1
1
1
1
1
1
1
1
1
1
1
1
1
1
1
1
1
1
1
1
1
1
1
1
1
1
1
1
1
1
1
1
1
1
1
1
1
1
1
1
1
1
1
1
1
1
1
1
1
1
1
1
1
1
1
1
1
1
1
1
1.00052
1.29634
5.21139
8.59126
8.7216
8.71959
8.70809
8.68178
8.64932
8.61038
8.56554
8.51433
8.45773
8.39658
8.32996
8.25713
8.18579
8.10596
8.02101
7.93382
7.84268
7.74838
7.64925
7.54454
7.43612
7.32427
7.2083
7.08633
6.96492
6.84607
6.72357
6.60455
6.49503
6.37565
6.25958
6.14581
1
1
1
1
1
1
1
1
1
1
1
1
1
1
1
1
1
1
1
1
1
1
1
1
1
1
1
1
1
1
1
1
1
1
1
1
1
1
1
1
1
1
1
1
1
1
1
1
1
1
1
1
1
1
1
1
1
1
1
1
1
1.00286
1.49546
5.8852
8.58545
8.69468
8.66264
8.63116
8.59486
8.55179
8.5043
8.45283
8.39618
8.33345
8.2661
8.19325
8.11969
8.04232
7.95968
7.87332
7.78359
7.6916
7.59635
7.49589
7.3925
7.28883
7.18062
7.06913
6.96448
6.87049
6.77654
6.68779
6.61013
6.51593
6.42677
6.33617
1
1
1
1
1
1
1
1
1
1
1
1
1
1
1
1
1
1
1
1
1
1
1
1
1
1
1
1
1
1
1
1
1
1
1
1
1
1
1
1
1
1
1
1
1
1
1
1
1
1
1
1
1
1
1
1
1
1
1
1
1
1
1.00733
1.72458
6.45517
8.56837
8.61378
8.58332
8.54041
8.49468
8.44337
8.39038
8.33233
8.2697
8.20228
8.13062
8.05719
7.98039
7.89886
7.81375
7.7262
7.63725
7.54696
7.45252
7.35758
7.26697
7.17874
7.09698
7.0277
6.96414
6.90053
6.84562
6.78967
6.70633
6.6291
6.54139
1
1
1
1
1
1
1
1
1
1
1
1
1
1
1
1
1
1
1
1
1
1
1
1
1
1
1
1
1
1
1
1
1
1
1
1
1
1
1
1
1
1
1
1
1
1
1
1
1
1
1
1
1
1
1
1
1
1
1
1
1
1
1.00001
1.01482
1.98352
6.89632
8.54013
8.54427
8.50486
8.45039
8.39577
8.33786
8.27503
8.21047
8.14198
8.07072
7.99855
7.92354
7.84533
7.76331
7.67927
7.59372
7.5092
7.42824
7.3569
7.29733
7.24711
7.20651
7.17277
7.13653
7.09247
7.0506
6.98757
6.89935
6.81904
6.72254
1
1
1
1
1
1
1
1
1
1
1
1
1
1
1
1
1
1
1
1
1
1
1
1
1
1
1
1
1
1
1
1
1
1
1
1
1
1
1
1
1
1
1
1
1
1
1
1
1
1
1
1
1
1
1
1
1
1
1
1
1
1
1
1.00004
1.02644
2.24336
7.29603
8.5019
8.45682
8.40613
8.3413
8.27969
8.2161
8.15048
8.08126
8.01084
7.93969
7.86685
7.79042
7.71313
7.63451
7.56118
7.49902
7.45447
7.42862
7.41324
7.40232
7.39949
7.38076
7.34641
7.29899
7.24326
7.15879
7.06478
6.97938
6.8781
1
1
1
1
1
1
1
1
1
1
1
1
1
1
1
1
1
1
1
1
1
1
1
1
1
1
1
1
1
1
1
1
1
1
1
1
1
1
1
1
1
1
1
1
1
1
1
1
1
1
1
1
1
1
1
1
1
1
1
1
1
1
1
1
1.00008
1.04162
2.65935
7.5344
8.38514
8.32878
8.28462
8.22313
8.15848
8.09367
8.02718
7.95939
7.88819
7.81566
7.74019
7.67021
7.60996
7.57551
7.56774
7.57635
7.59933
7.62042
7.63482
7.63349
7.59564
7.54207
7.48
7.4019
7.30238
7.209
7.12366
7.02458
1
1
1
1
1
1
1
1
1
1
1
1
1
1
1
1
1
1
1
1
1
1
1
1
1
1
1
1
1
1
1
1
1
1
1
1
1
1
1
1
1
1
1
1
1
1
1
1
1
1
1
1
1
1
1
1
1
1
1
1
1
1
1
1
1
1.00015
1.07279
2.94977
7.58015
8.26886
8.21557
8.15995
8.1045
8.04462
7.97955
7.90972
7.83842
7.76825
7.70999
7.67585
7.67284
7.70458
7.76141
7.82006
7.86406
7.88553
7.88152
7.84246
7.77208
7.70108
7.62836
7.53681
7.436
7.35096
7.26889
7.17465
1
1
1
1
1
1
1
1
1
1
1
1
1
1
1
1
1
1
1
1
1
1
1
1
1
1
1
1
1
1
1
1
1
1
1
1
1
1
1
1
1
1
1
1
1
1
1
1
1
1
1
1
1
1
1
1
1
1
1
1
1
1
1
1
1
1
1.00035
1.10151
3.04335
7.50322
8.1595
8.10922
8.05784
8.00166
7.93798
7.87013
7.80474
7.76345
7.74896
7.78591
7.87077
7.97064
8.06584
8.11824
8.13645
8.11978
8.07506
8.00117
7.91259
7.83704
7.75979
7.66313
7.57038
7.49559
7.41476
7.32407
1
1
1
1
1
1
1
1
1
1
1
1
1
1
1
1
1
1
1
1
1
1
1
1
1
1
1
1
1
1
1
1
1
1
1
1
1
1
1
1
1
1
1
1
1
1
1
1
1
1
1
1
1
1
1
1
1
1
1
1
1
1
1
1
1
1
1
1.00059
1.11385
2.98048
7.37193
8.07445
8.02603
7.96904
7.8988
7.84186
7.80901
7.82797
7.92429
8.06064
8.21631
8.32823
8.3922
8.3927
8.35516
8.29939
8.22696
8.13598
8.0474
7.97685
7.89836
7.80033
7.71806
7.64881
7.56457
7.47417
1
1
1
1
1
1
1
1
1
1
1
1
1
1
1
1
1
1
1
1
1
1
1
1
1
1
1
1
1
1
1
1
1
1
1
1
1
1
1
1
1
1
1
1
1
1
1
1
1
1
1
1
1
1
1
1
1
1
1
1
1
1
1
1
1
1
1
1
1.00073
1.10874
2.89285
7.18822
7.97429
7.92552
7.87055
7.85617
7.92369
8.07431
8.29488
8.48381
8.60458
8.65569
8.64815
8.58818
8.51543
8.44211
8.35778
8.26062
8.17842
8.11316
8.03414
7.93738
7.86544
7.79995
7.71359
7.62546
1
1
1
1
1
1
1
1
1
1
1
1
1
1
1
1
1
1
1
1
1
1
1
1
1
1
1
1
1
1
1
1
1
1
1
1
1
1
1
1
1
1
1
1
1
1
1
1
1
1
1
1
1
1
1
1
1
1
1
1
1
1
1
1
1
1
1
1
1
1.00068
1.09964
2.75371
6.92444
7.85763
7.89483
8.02246
8.31815
8.59618
8.8008
8.88697
8.91367
8.87839
8.80773
8.72217
8.64512
8.57355
8.48841
8.39573
8.32466
8.26443
8.18332
8.08458
8.01367
7.94683
7.85915
7.77461
1
1
1
1
1
1
1
1
1
1
1
1
1
1
1
1
1
1
1
1
1
1
1
1
1
1
1
1
1
1
1
1
1
1
1
1
1
1
1
1
1
1
1
1
1
1
1
1
1
1
1
1
1
1
1
1
1
1
1
1
1
1
1
1
1
1
1
1
1
1
1.00061
1.08551
2.54849
6.57133
8.09672
8.61034
8.93452
9.11358
9.16915
9.15046
9.10071
9.02192
8.92101
8.82895
8.7624
8.69467
8.60677
8.52287
8.46678
8.41172
8.32741
8.23099
8.16631
8.10301
8.01684
7.93229
1
1
1
1
1
1
1
1
1
1
1
1
1
1
1
1
1
1
1
1
1
1
1
1
1
1
1
1
1
1
1
1
1
1
1
1
1
1
1
1
1
1
1
1
1
1
1
1
1
1
1
1
1
1
1
1
1
1
1
1
1
1
1
1
1
1
1
1
1
1
1
1.00048
1.06693
2.28437
7.51011
9.38577
9.42481
9.40961
9.36052
9.29737
9.22859
9.14588
9.0472
8.96385
8.90478
8.83383
8.74077
8.6617
8.61126
8.55318
8.46013
8.36775
8.31338
8.25626
8.16955
8.08508
1
1
1
1
1
1
1
1
1
1
1
1
1
1
1
1
1
1
1
1
1
1
1
1
1
1
1
1
1
1
1
1
1
1
1
1
1
1
1
1
1
1
1
1
1
1
1
1
1
1
1
1
1
1
1
1
1
1
1
1
1
1
1
1
1
1
1
1
1
1
1
1
1.00038
1.04578
4.40417
9.59569
9.70678
9.63368
9.53873
9.44296
9.34691
9.24367
9.14325
9.07182
9.02026
8.95565
8.87938
8.81672
8.7717
8.70946
8.61114
8.5248
8.47353
8.41209
8.31591
8.23149
1
1
1
1
1
1
1
1
1
1
1
1
1
1
1
1
1
1
1
1
1
1
1
1
1
1
1
1
1
1
1
1
1
1
1
1
1
1
1
1
1
1
1
1
1
1
1
1
1
1
1
1
1
1
1
1
1
1
1
1
1
1
1
1
1
1
1
1
1
1
1
1
1
1.00012
1.54576
7.84071
9.89586
9.68518
9.57133
9.47395
9.39131
9.3184
9.26202
9.21408
9.16569
9.10352
9.03246
8.96847
8.9169
8.84525
8.74837
8.67568
8.62945
8.56505
8.47126
8.39598
1
1
1
1
1
1
1
1
1
1
1
1
1
1
1
1
1
1
1
1
1
1
1
1
1
1
1
1
1
1
1
1
1
1
1
1
1
1
1
1
1
1
1
1
1
1
1
1
1
1
1
1
1
1
1
1
1
1
1
1
1
1
1
1
1
1
1
1
1
1
1
1
1
1
1.00811
4.45981
9.39263
9.63905
9.60044
9.57255
9.52926
9.48304
9.43218
9.37567
9.31923
9.25951
9.18892
9.11926
9.05371
8.97521
8.89052
8.82261
8.77387
8.70195
8.61071
8.54152
1
1
1
1
1
1
1
1
1
1
1
1
1
1
1
1
1
1
1
1
1
1
1
1
1
1
1
1
1
1
1
1
1
1
1
1
1
1
1
1
1
1
1
1
1
1
1
1
1
1
1
1
1
1
1
1
1
1
1
1
1
1
1
1
1
1
1
1
1
1
1
1
1
1
1
1.58338
7.88442
9.83266
9.75944
9.70146
9.64754
9.59643
9.54159
9.4866
9.42533
9.35811
9.28724
9.22102
9.15502
9.09127
9.03161
8.97156
8.91347
8.83729
8.76145
8.69454
1
1
1
1
1
1
1
1
1
1
1
1
1
1
1
1
1
1
1
1
1
1
1
1
1
1
1
1
1
1
1
1
1
1
1
1
1
1
1
1
1
1
1
1
1
1
1
1
1
1
1
1
1
1
1
1
1
1
1
1
1
1
1
1
1
1
1
1
1
1
1
1
1
1
1
1.01008
4.84839
9.54446
9.75991
9.71728
9.68543
9.64533
9.59994
9.55312
9.50185
9.44776
9.39203
9.33748
9.28116
9.22295
9.16078
9.09887
9.03253
8.96606
8.90688
8.84172
1
1
1
1
1
1
1
1
1
1
1
1
1
1
1
1
1
1
1
1
1
1
1
1
1
1
1
1
1
1
1
1
1
1
1
1
1
1
1
1
1
1
1
1
1
1
1
1
1
1
1
1
1
1
1
1
1
1
1
1
1
1
1
1
1
1
1
1
1
1
1
1
1
1
1
0.999999
1.98296
8.3438
9.87927
9.80505
9.76481
9.72513
9.6845
9.63949
9.59157
9.54328
9.49378
9.44328
9.3913
9.33607
9.27669
9.21591
9.15341
9.09088
9.02462
8.95653
1
1
1
1
1
1
1
1
1
1
1
1
1
1
1
1
1
1
1
1
1
1
1
1
1
1
1
1
1
1
1
1
1
1
1
1
1
1
1
1
1
1
1
1
1
1
1
1
1
1
1
1
1
1
1
1
1
1
1
1
1
1
1
1
1
1
1
1
1
1
1
1
1
1
1
1
1.03147
5.85314
9.83232
9.90302
9.8392
9.78659
9.73332
9.68547
9.63887
9.59271
9.5456
9.49715
9.44729
9.39679
9.34515
9.29229
9.23827
9.18227
9.12216
9.06218
1
1
1
1
1
1
1
1
1
1
1
1
1
1
1
1
1
1
1
1
1
1
1
1
1
1
1
1
1
1
1
1
1
1
1
1
1
1
1
1
1
1
1
1
1
1
1
1
1
1
1
1
1
1
1
1
1
1
1
1
1
1
1
1
1
1
1
1
1
1
1
1
1
1
1
1
1.00001
2.93064
8.92516
9.92206
9.8607
9.82627
9.77956
9.73924
9.69722
9.65429
9.60991
9.56421
9.51648
9.46648
9.4156
9.36432
9.31164
9.25848
9.20463
9.14963
1
1
1
1
1
1
1
1
1
1
1
1
1
1
1
1
1
1
1
1
1
1
1
1
1
1
1
1
1
1
1
1
1
1
1
1
1
1
1
1
1
1
1
1
1
1
1
1
1
1
1
1
1
1
1
1
1
1
1
1
1
1
1
1
1
1
1
1
1
1
1
1
1
1
1
1
1
1.16183
7.29496
10.0774
9.96652
9.88993
9.83944
9.79797
9.75571
9.71221
9.66744
9.6218
9.57586
9.52935
9.48164
9.43281
9.38106
9.32731
9.27268
9.21656
1
1
1
1
1
1
1
1
1
1
1
1
1
1
1
1
1
1
1
1
1
1
1
1
1
1
1
1
1
1
1
1
1
1
1
1
1
1
1
1
1
1
1
1
1
1
1
1
1
1
1
1
1
1
1
1
1
1
1
1
1
1
1
1
1
1
1
1
1
1
1
1
1
1
1
1
1
1.00075
4.8635
9.67978
9.92326
9.91056
9.8868
9.84417
9.80159
9.75746
9.71205
9.66572
9.61848
9.57007
9.52029
9.46947
9.41735
9.36459
9.31231
9.25918
1
1
1
1
1
1
1
1
1
1
1
1
1
1
1
1
1
1
1
1
1
1
1
1
1
1
1
1
1
1
1
1
1
1
1
1
1
1
1
1
1
1
1
1
1
1
1
1
1
1
1
1
1
1
1
1
1
1
1
1
1
1
1
1
1
1
1
1
1
1
1
1
1
1
1
1
1
0.999999
2.53028
8.778
10.0939
10.0233
9.97671
9.92053
9.87284
9.82551
9.77837
9.73098
9.68297
9.63433
9.58516
9.53537
9.4855
9.43507
9.3842
9.33235
1
1
1
1
1
1
1
1
1
1
1
1
1
1
1
1
1
1
1
1
1
1
1
1
1
1
1
1
1
1
1
1
1
1
1
1
1
1
1
1
1
1
1
1
1
1
1
1
1
1
1
1
1
1
1
1
1
1
1
1
1
1
1
1
1
1
1
1
1
1
1
1
1
1
1
1
1
1
1.09785
7.14174
10.1778
10.0835
10.0076
9.95478
9.91023
9.86598
9.82089
9.77483
9.72795
9.68033
9.6322
9.58331
9.53411
9.48428
9.4338
9.38269
1
1
1
1
1
1
1
1
1
1
1
1
1
1
1
1
1
1
1
1
1
1
1
1
1
1
1
1
1
1
1
1
1
1
1
1
1
1
1
1
1
1
1
1
1
1
1
1
1
1
1
1
1
1
1
1
1
1
1
1
1
1
1
1
1
1
1
1
1
1
1
1
1
1
1
1
1
1
1.00025
5.117
9.87446
10.0509
10.0252
9.99649
9.95494
9.91069
9.86524
9.81894
9.77218
9.72481
9.67696
9.62857
9.57975
9.53055
9.48073
9.43061
1
1
1
1
1
1
1
1
1
1
1
1
1
1
1
1
1
1
1
1
1
1
1
1
1
1
1
1
1
1
1
1
1
1
1
1
1
1
1
1
1
1
1
1
1
1
1
1
1
1
1
1
1
1
1
1
1
1
1
1
1
1
1
1
1
1
1
1
1
1
1
1
1
1
1
1
1
1
0.999999
3.09889
9.2067
10.1421
10.0808
10.0441
9.99751
9.95134
9.90495
9.85836
9.81187
9.76492
9.71771
9.67023
9.62224
9.57398
9.52502
9.47589
1
1
1
1
1
1
1
1
1
1
1
1
1
1
1
1
1
1
1
1
1
1
1
1
1
1
1
1
1
1
1
1
1
1
1
1
1
1
1
1
1
1
1
1
1
1
1
1
1
1
1
1
1
1
1
1
1
1
1
1
1
1
1
1
1
1
1
1
1
1
1
1
1
1
1
1
1
1
1
1.64484
8.10521
10.2482
10.1448
10.0932
10.0435
9.99616
9.94923
9.90276
9.85659
9.81007
9.76337
9.71646
9.66892
9.6211
9.57257
9.52386
1
1
1
1
1
1
1
1
1
1
1
1
1
1
1
1
1
1
1
1
1
1
1
1
1
1
1
1
1
1
1
1
1
1
1
1
1
1
1
1
1
1
1
1
1
1
1
1
1
1
1
1
1
1
1
1
1
1
1
1
1
1
1
1
1
1
1
1
1
1
1
1
1
1
1
1
1
1
1
1.01859
6.59289
10.2268
10.1867
10.1211
10.0705
10.0218
9.97515
9.92932
9.88386
9.83813
9.79224
9.74625
9.69977
9.65311
9.60589
9.55845
1
1
1
1
1
1
1
1
1
1
1
1
1
1
1
1
1
1
1
1
1
1
1
1
1
1
1
1
1
1
1
1
1
1
1
1
1
1
1
1
1
1
1
1
1
1
1
1
1
1
1
1
1
1
1
1
1
1
1
1
1
1
1
1
1
1
1
1
1
1
1
1
1
1
1
1
1
1
1
1
4.8965
9.92093
10.1504
10.1099
10.0819
10.0428
10.0018
9.9586
9.91462
9.8698
9.82453
9.779
9.73301
9.68675
9.64003
9.59301
1
1
1
1
1
1
1
1
1
1
1
1
1
1
1
1
1
1
1
1
1
1
1
1
1
1
1
1
1
1
1
1
1
1
1
1
1
1
1
1
1
1
1
1
1
1
1
1
1
1
1
1
1
1
1
1
1
1
1
1
1
1
1
1
1
1
1
1
1
1
1
1
1
1
1
1
1
1
1
1
3.36557
9.37681
10.1831
10.124
10.0956
10.0566
10.0173
9.97596
9.93393
9.89102
9.84725
9.80304
9.75833
9.71321
9.66756
9.62128
1
1
1
1
1
1
1
1
1
1
1
1
1
1
1
1
1
1
1
1
1
1
1
1
1
1
1
1
1
1
1
1
1
1
1
1
1
1
1
1
1
1
1
1
1
1
1
1
1
1
1
1
1
1
1
1
1
1
1
1
1
1
1
1
1
1
1
1
1
1
1
1
1
1
1
1
1
1
1
1
2.14077
8.64985
10.2879
10.2048
10.163
10.1169
10.0731
10.0289
9.98462
9.94
9.89489
9.84958
9.80402
9.75805
9.71177
9.66495
1
1
1
1
1
1
1
1
1
1
1
1
1
1
1
1
1
1
1
1
1
1
1
1
1
1
1
1
1
1
1
1
1
1
1
1
1
1
1
1
1
1
1
1
1
1
1
1
1
1
1
1
1
1
1
1
1
1
1
1
1
1
1
1
1
1
1
1
1
1
1
1
1
1
1
1
1
1
1
1
1.29897
7.53866
10.3398
10.2381
10.1762
10.1292
10.0867
10.0446
10.0021
9.959
9.91545
9.87168
9.82747
9.78271
9.73748
9.69149
1
1
1
1
1
1
1
1
1
1
1
1
1
1
1
1
1
1
1
1
1
1
1
1
1
1
1
1
1
1
1
1
1
1
1
1
1
1
1
1
1
1
1
1
1
1
1
1
1
1
1
1
1
1
1
1
1
1
1
1
1
1
1
1
1
1
1
1
1
1
1
1
1
1
1
1
1
1
1
1
1.0048
6.41063
10.2619
10.2599
10.1973
10.1545
10.11
10.0666
10.0232
9.97982
9.93658
9.89323
9.8494
9.80518
9.76052
9.71506
1
1
1
1
1
1
1
1
1
1
1
1
1
1
1
1
1
1
1
1
1
1
1
1
1
1
1
1
1
1
1
1
1
1
1
1
1
1
1
1
1
1
1
1
1
1
1
1
1
1
1
1
1
1
1
1
1
1
1
1
1
1
1
1
1
1
1
1
1
1
1
1
1
1
1
1
1
1
1
1
1
5.27934
10.0706
10.2414
10.1895
10.1577
10.1183
10.0794
10.039
9.99827
9.95694
9.91462
9.87125
9.82765
9.78357
9.73859
1
1
1
1
1
1
1
1
1
1
1
1
1
1
1
1
1
1
1
1
1
1
1
1
1
1
1
1
1
1
1
1
1
1
1
1
1
1
1
1
1
1
1
1
1
1
1
1
1
1
1
1
1
1
1
1
1
1
1
1
1
1
1
1
1
1
1
1
1
1
1
1
1
1
1
1
1
1
1
1
1
4.19245
9.79997
10.2653
10.2082
10.1794
10.1417
10.1044
10.0648
10.0246
9.98336
9.94107
9.89742
9.85356
9.80907
9.76383
1
1
1
1
1
1
1
1
1
1
1
1
1
1
1
1
1
1
1
1
1
1
1
1
1
1
1
1
1
1
1
1
1
1
1
1
1
1
1
1
1
1
1
1
1
1
1
1
1
1
1
1
1
1
1
1
1
1
1
1
1
1
1
1
1
1
1
1
1
1
1
1
1
1
1
1
1
1
1
1
1
3.25564
9.46626
10.2981
10.2279
10.1968
10.1579
10.1192
10.0784
10.0367
9.99419
9.95131
9.90722
9.86284
9.81799
9.77293
1
1
1
1
1
1
1
1
1
1
1
1
1
1
1
1
1
1
1
1
1
1
1
1
1
1
1
1
1
1
1
1
1
1
1
1
1
1
1
1
1
1
1
1
1
1
1
1
1
1
1
1
1
1
1
1
1
1
1
1
1
1
1
1
1
1
1
1
1
1
1
1
1
1
1
1
1
1
1
1
1
2.48807
9.0716
10.327
10.2484
10.2138
10.1739
10.1352
10.0955
10.0551
10.0142
9.97259
9.93008
9.88676
9.84287
9.79848
1
1
1
1
1
1
1
1
1
1
1
1
1
1
1
1
1
1
1
1
1
1
1
1
1
1
1
1
1
1
1
1
1
1
1
1
1
1
1
1
1
1
1
1
1
1
1
1
1
1
1
1
1
1
1
1
1
1
1
1
1
1
1
1
1
1
1
1
1
1
1
1
1
1
1
1
1
1
1
1
1
1.91818
8.56161
10.3561
10.2709
10.2313
10.1892
10.1488
10.1083
10.067
10.0259
9.98408
9.94202
9.89858
9.85507
9.81134
1
1
1
1
1
1
1
1
1
1
1
1
1
1
1
1
1
1
1
1
1
1
1
1
1
1
1
1
1
1
1
1
1
1
1
1
1
1
1
1
1
1
1
1
1
1
1
1
1
1
1
1
1
1
1
1
1
1
1
1
1
1
1
1
1
1
1
1
1
1
1
1
1
1
1
1
1
1
1
1
1
1.55618
8.02805
10.3644
10.2882
10.2464
10.2036
10.1622
10.1214
10.0798
10.0387
9.99627
9.9543
9.91077
9.86743
9.82388
1
1
1
1
1
1
1
1
1
1
1
1
1
1
1
1
1
1
1
1
1
1
1
1
1
1
1
1
1
1
1
1
1
1
1
1
1
1
1
1
1
1
1
1
1
1
1
1
1
1
1
1
1
1
1
1
1
1
1
1
1
1
1
1
1
1
1
1
1
1
1
1
1
1
1
1
1
1
1
1
1
1.32531
7.51935
10.3471
10.2967
10.2527
10.2111
10.1694
10.1286
10.087
10.0459
10.0037
9.96238
9.91968
9.87708
9.83391
1
1
1
1
1
1
1
1
1
1
1
1
1
1
1
1
1
1
1
1
1
1
1
1
1
1
1
1
1
1
1
1
1
1
1
1
1
1
1
1
1
1
1
1
1
1
1
1
1
1
1
1
1
1
1
1
1
1
1
1
1
1
1
1
1
1
1
1
1
1
1
1
1
1
1
1
1
1
1
1
1
1.13728
7.04778
10.3243
10.3064
10.2558
10.219
10.1791
10.1397
10.0993
10.0588
10.0171
9.97584
9.93355
9.89112
9.84768
1
1
1
1
1
1
1
1
1
1
1
1
1
1
1
1
1
1
1
1
1
1
1
1
1
1
1
1
1
1
1
1
1
1
1
1
1
1
1
1
1
1
1
1
1
1
1
1
1
1
1
1
1
1
1
1
1
1
1
1
1
1
1
1
1
1
1
1
1
1
1
1
1
1
1
1
1
1
1
1
1
1.00291
6.66511
10.3003
10.3179
10.2589
10.2247
10.185
10.1458
10.1057
10.0652
10.0237
9.9821
9.93982
9.89709
9.85328
1
1
1
1
1
1
1
1
1
1
1
1
1
1
1
1
1
1
1
1
1
1
1
1
1
1
1
1
1
1
1
1
1
1
1
1
1
1
1
1
1
1
1
1
1
1
1
1
1
1
1
1
1
1
1
1
1
1
1
1
1
1
1
1
1
1
1
1
1
1
1
1
1
1
1
1
1
1
1
1
1
1.00001
6.26831
10.2713
10.3209
10.2604
10.2273
10.1879
10.149
10.1096
10.0695
10.0286
9.98721
9.94573
9.9037
9.86063
1
1
1
1
1
1
1
1
1
1
1
1
1
1
1
1
1
1
1
1
1
1
1
1
1
1
1
1
1
1
1
1
1
1
1
1
1
1
1
1
1
1
1
1
1
1
1
1
1
1
1
1
1
1
1
1
1
1
1
1
1
1
1
1
1
1
1
1
1
1
1
1
1
1
1
1
1
1
1
1
1
1
5.9558
10.253
10.3304
10.2669
10.2329
10.1932
10.154
10.1145
10.0743
10.0335
9.99196
9.95058
9.90858
9.86548
1
1
1
1
1
1
1
1
1
1
1
1
1
1
1