/*--------------------------------*- C++ -*----------------------------------*\
  =========                 |
  \\      /  F ield         | OpenFOAM: The Open Source CFD Toolbox
   \\    /   O peration     | Website:  https://openfoam.org
    \\  /    A nd           | Version:  7
     \\/     M anipulation  |
\*---------------------------------------------------------------------------*/
FoamFile
{
    version     2.0;
    format      ascii;
    class       volScalarField;
    location    "9.2";
    object      T;
}
// * * * * * * * * * * * * * * * * * * * * * * * * * * * * * * * * * * * * * //

dimensions      [0 0 0 1 0 0 0];

internalField   nonuniform List<scalar> 
19968
(
1
1
1
1
1
1
1
1
1
1
1
1
1
1
1
1
1
1
1
1
1
1
1
1
1
1
1
1
1
1
1
1
1
1
1
1
1
1
1
1
1
1
1
1
1
1
1
1
1.27416
2.45602
2.68938
2.69353
2.69989
2.70346
2.70629
2.70896
2.71211
2.71615
2.72115
2.72661
2.73153
2.73513
2.73755
2.7396
2.74209
2.74546
2.74965
2.75411
2.75798
2.76073
2.76256
2.76416
2.76615
2.76886
2.77218
2.77568
2.77889
2.78152
2.78354
2.78514
2.78652
2.78785
2.78925
2.79086
2.79262
2.79441
2.79607
2.79754
2.79883
2.79999
2.80102
2.80187
2.80247
2.8028
2.80292
2.80307
1
1
1
1
1
1
1
1
1
1
1
1
1
1
1
1
1
1
1
1
1
1
1
1
1
1
1
1
1
1
1
1
1
1
1
1
1
1
1
1
1
1
1
1
1
1
1
1
1.26035
2.44903
2.68912
2.69393
2.69936
2.70289
2.70588
2.70872
2.71202
2.71617
2.72114
2.72646
2.73124
2.73476
2.73722
2.73931
2.74185
2.74524
2.74944
2.75387
2.75771
2.76044
2.76228
2.7639
2.76591
2.76863
2.77193
2.77541
2.77858
2.78116
2.78315
2.78474
2.78614
2.7875
2.78896
2.79062
2.79241
2.79419
2.7958
2.7972
2.79842
2.79953
2.80053
2.80137
2.80198
2.80232
2.80245
2.8026
1
1
1
1
1
1
1
1
1
1
1
1
1
1
1
1
1
1
1
1
1
1
1
1
1
1
1
1
1
1
1
1
1
1
1
1
1
1
1
1
1
1
1
1
1
1
1
1
1.22854
2.43217
2.68963
2.69327
2.6977
2.7013
2.70476
2.70816
2.71186
2.71621
2.72107
2.72609
2.73055
2.73392
2.73644
2.73865
2.74134
2.74481
2.74901
2.75337
2.75713
2.75984
2.76171
2.76338
2.76544
2.76816
2.77144
2.77486
2.77796
2.78049
2.78245
2.78405
2.78547
2.78689
2.78841
2.79011
2.79193
2.7937
2.79529
2.79665
2.79781
2.79886
2.79981
2.80063
2.80125
2.80162
2.80177
2.80193
1
1
1
1
1
1
1
1
1
1
1
1
1
1
1
1
1
1
1
1
1
1
1
1
1
1
1
1
1
1
1
1
1
1
1
1
1
1
1
1
1
1
1
1
1
1
1
1
1.18262
2.40511
2.68943
2.69219
2.69577
2.69962
2.70378
2.70797
2.71213
2.71655
2.72108
2.72557
2.72959
2.73276
2.73538
2.73779
2.74069
2.74426
2.74844
2.75268
2.75632
2.75901
2.76094
2.76269
2.76479
2.76751
2.77074
2.77408
2.7771
2.77955
2.78148
2.78307
2.78454
2.78602
2.78763
2.78937
2.79117
2.79288
2.79438
2.79564
2.79671
2.79767
2.79858
2.7994
2.80006
2.8005
2.80071
2.80092
1
1
1
1
1
1
1
1
1
1
1
1
1
1
1
1
1
1
1
1
1
1
1
1
1
1
1
1
1
1
1
1
1
1
1
1
1
1
1
1
1
1
1
1
1
1
1
1
1.12297
2.36774
2.6883
2.69097
2.6942
2.69828
2.70293
2.70771
2.71234
2.71683
2.72095
2.72489
2.72849
2.73152
2.73432
2.73701
2.7401
2.74368
2.74773
2.75176
2.75529
2.75799
2.76004
2.76192
2.76409
2.76679
2.76992
2.77315
2.77607
2.77846
2.78036
2.78197
2.7835
2.78509
2.78679
2.78857
2.79033
2.79194
2.79331
2.79444
2.79536
2.79617
2.79695
2.79769
2.79832
2.79879
2.79903
2.79929
1
1
1
1
1
1
1
1
1
1
1
1
1
1
1
1
1
1
1
1
1
1
1
1
1
1
1
1
1
1
1
1
1
1
1
1
1
1
1
1
1
1
1
1
1
1
1
1
1.01618
2.305
2.68611
2.6901
2.69379
2.69829
2.70316
2.70813
2.71296
2.71736
2.72107
2.72434
2.72748
2.73046
2.73355
2.7366
2.73984
2.74325
2.74692
2.75058
2.75389
2.75658
2.75876
2.76077
2.76297
2.76557
2.76854
2.77159
2.77437
2.77667
2.77852
2.78014
2.78172
2.78341
2.7852
2.78701
2.78872
2.79024
2.79151
2.79255
2.7934
2.79416
2.79489
2.79562
2.79628
2.79682
2.79713
2.79746
1
1
1
1
1
1
1
1
1
1
1
1
1
1
1
1
1
1
1
1
1
1
1
1
1
1
1
1
1
1
1
1
1
1
1
1
1
1
1
1
1
1
1
1
1
1
1
1
1.00012
2.21975
2.68081
2.68675
2.69042
2.69518
2.70014
2.70516
2.71001
2.71441
2.71807
2.72116
2.72422
2.72738
2.73083
2.7343
2.7377
2.74095
2.74427
2.7476
2.75077
2.75359
2.75607
2.75837
2.76074
2.76333
2.76617
2.76906
2.77171
2.77396
2.77582
2.77748
2.77917
2.78097
2.78286
2.78472
2.78638
2.78779
2.78894
2.78988
2.79066
2.79136
2.79206
2.79277
2.79345
2.79405
2.79442
2.79481
1
1
1
1
1
1
1
1
1
1
1
1
1
1
1
1
1
1
1
1
1
1
1
1
1
1
1
1
1
1
1
1
1
1
1
1
1
1
1
1
1
1
1
1
1
1
1
1
1
2.09439
2.67056
2.68421
2.68792
2.69261
2.6972
2.70183
2.70638
2.71065
2.71445
2.7179
2.72135
2.72484
2.72842
2.73191
2.73519
2.73823
2.74125
2.74434
2.74742
2.75036
2.75313
2.75576
2.75832
2.76091
2.7636
2.76629
2.76879
2.77096
2.77282
2.77452
2.77626
2.77813
2.78008
2.78194
2.78355
2.78484
2.78583
2.78662
2.78729
2.78793
2.7886
2.7893
2.78999
2.79062
2.79102
2.79147
1
1
1
1
1
1
1
1
1
1
1
1
1
1
1
1
1
1
1
1
1
1
1
1
1
1
1
1
1
1
1
1
1
1
1
1
1
1
1
1
1
1
1
1
1
1
1
1
1
1.91737
2.64285
2.6783
2.68281
2.68791
2.69236
2.69669
2.70097
2.70517
2.70926
2.71327
2.71728
2.72123
2.72495
2.72837
2.73142
2.73421
2.737
2.73992
2.74296
2.74602
2.74905
2.75196
2.7547
2.7573
2.75985
2.76235
2.76471
2.76683
2.76871
2.77044
2.77219
2.77406
2.77602
2.77789
2.77947
2.78067
2.78155
2.78221
2.78279
2.78339
2.78407
2.7848
2.78551
2.78618
2.78662
2.78712
1
1
1
1
1
1
1
1
1
1
1
1
1
1
1
1
1
1
1
1
1
1
1
1
1
1
1
1
1
1
1
1
1
1
1
1
1
1
1
1
1
1
1
1
1
1
1
1
1
1.68313
2.58551
2.67142
2.67735
2.68289
2.68739
2.69155
2.69556
2.6996
2.70381
2.7082
2.71261
2.71692
2.72079
2.72414
2.72698
2.7296
2.73226
2.7351
2.73816
2.74127
2.74442
2.74744
2.75024
2.75278
2.75515
2.75743
2.75962
2.76165
2.7635
2.76522
2.76694
2.76876
2.7707
2.7726
2.77422
2.77541
2.77621
2.77674
2.77718
2.77767
2.77827
2.77896
2.77965
2.78031
2.78075
2.78127
1
1
1
1
1
1
1
1
1
1
1
1
1
1
1
1
1
1
1
1
1
1
1
1
1
1
1
1
1
1
1
1
1
1
1
1
1
1
1
1
1
1
1
1
1
1
1
1
1
1.37532
2.48021
2.6708
2.67189
2.6781
2.68236
2.68651
2.69034
2.69417
2.69826
2.70272
2.70727
2.71167
2.71565
2.71903
2.72185
2.72445
2.72709
2.72988
2.73293
2.73604
2.7392
2.74224
2.74504
2.74754
2.74981
2.75194
2.75397
2.75586
2.75758
2.75916
2.76068
2.76227
2.76397
2.76569
2.76719
2.76828
2.76895
2.76935
2.76965
2.77003
2.77058
2.77126
2.77199
2.77273
2.77325
2.77381
1
1
1
1
1
1
1
1
1
1
1
1
1
1
1
1
1
1
1
1
1
1
1
1
1
1
1
1
1
1
1
1
1
1
1
1
1
1
1
1
1
1
1
1
1
1
1
1
1
1.0153
2.29781
2.67717
2.67697
2.67909
2.68206
2.68553
2.68888
2.69205
2.69522
2.69872
2.70247
2.70629
2.71002
2.71325
2.71591
2.71835
2.72085
2.72346
2.72633
2.72923
2.73215
2.73501
2.73768
2.74014
2.74235
2.7444
2.74632
2.74812
2.74978
2.75128
2.75269
2.75411
2.75564
2.75723
2.75872
2.75986
2.76054
2.76081
2.76084
2.76081
2.76086
2.76108
2.76146
2.76198
2.76241
2.76289
1
1
1
1
1
1
1
1
1
1
1
1
1
1
1
1
1
1
1
1
1
1
1
1
1
1
1
1
1
1
1
1
1
1
1
1
1
1
1
1
1
1
1
1
1
1
1
1
1
1.00003
2.0164
2.64472
2.66173
2.66647
2.67185
2.67634
2.68023
2.68364
2.68673
2.6899
2.6933
2.69678
2.70031
2.70359
2.70644
2.70907
2.71173
2.71438
2.71711
2.71981
2.72245
2.72512
2.72772
2.7302
2.73246
2.73452
2.73639
2.73809
2.73964
2.74103
2.74229
2.74345
2.7446
2.74577
2.74688
2.74771
2.74811
2.74801
2.74749
2.74691
2.74653
2.74661
2.74704
2.74761
2.74797
2.7484
1
1
1
1
1
1
1
1
1
1
1
1
1
1
1
1
1
1
1
1
1
1
1
1
1
1
1
1
1
1
1
1
1
1
1
1
1
1
1
1
1
1
1
1
1
1
1
1
1
1
1.54661
2.51456
2.64625
2.65496
2.66322
2.66848
2.67265
2.6762
2.67944
2.68267
2.68608
2.68951
2.69286
2.69603
2.69885
2.70146
2.70406
2.70656
2.70889
2.71111
2.71318
2.71532
2.71756
2.7198
2.7219
2.72377
2.72537
2.72675
2.72796
2.72904
2.72997
2.73075
2.73135
2.7319
2.73253
2.73314
2.73348
2.73323
2.7324
2.73116
2.72984
2.72878
2.72756
2.72589
2.72373
2.72197
1
1
1
1
1
1
1
1
1
1
1
1
1
1
1
1
1
1
1
1
1
1
1
1
1
1
1
1
1
1
1
1
1
1
1
1
1
1
1
1
1
1
1
1
1
1
1
1
1
1
1.02801
2.25157
2.65427
2.65483
2.65815
2.66189
2.66504
2.66771
2.67036
2.67322
2.67639
2.67975
2.68299
2.68605
2.68877
2.69123
2.69364
2.69598
2.69805
2.69988
2.70147
2.70303
2.70478
2.70669
2.70855
2.71018
2.71146
2.71244
2.71327
2.71392
2.71429
2.71443
2.71427
2.71388
2.71343
2.71296
2.71217
2.71054
2.70773
2.70391
2.69975
2.69587
2.69286
2.68998
2.68805
2.68727
1
1
1
1
1
1
1
1
1
1
1
1
1
1
1
1
1
1
1
1
1
1
1
1
1
1
1
1
1
1
1
1
1
1
1
1
1
1
1
1
1
1
1
1
1
1
1
1
1
1
1.00005
1.75544
2.55411
2.63581
2.64313
2.64807
2.65109
2.65368
2.65643
2.6596
2.66321
2.66702
2.67062
2.67381
2.67661
2.67915
2.68164
2.68403
2.68606
2.68761
2.68875
2.68967
2.69073
2.69208
2.6935
2.69473
2.69559
2.6961
2.69626
2.6961
2.69566
2.69487
2.6936
2.69186
2.68976
2.68746
2.68482
2.68147
2.67706
2.67164
2.6656
2.65962
2.65443
2.65272
2.6504
2.66522
1
1
1
1
1
1
1
1
1
1
1
1
1
1
1
1
1
1
1
1
1
1
1
1
1
1
1
1
1
1
1
1
1
1
1
1
1
1
1
1
1
1
1
1
1
1
1
1
1
1
1
1.10196
2.33159
2.63383
2.63411
2.63701
2.64008
2.64287
2.64548
2.6484
2.65179
2.65546
2.65901
2.66217
2.66495
2.6675
2.66996
2.6723
2.6743
2.67576
2.67667
2.67718
2.67766
2.67829
2.67907
2.67979
2.6802
2.68018
2.67971
2.67869
2.67722
2.67533
2.67288
2.66974
2.66584
2.66124
2.65585
2.64938
2.641
2.63009
2.61499
2.59449
2.5646
2.52223
2.45927
2.33078
1
1
1
1
1
1
1
1
1
1
1
1
1
1
1
1
1
1
1
1
1
1
1
1
1
1
1
1
1
1
1
1
1
1
1
1
1
1
1
1
1
1
1
1
1
1
1
1
1
1
1
1.00082
2.0044
2.60597
2.61599
2.62025
2.6245
2.62854
2.6319
2.63525
2.63899
2.64303
2.64685
2.64997
2.65248
2.65478
2.65724
2.6599
2.66234
2.66414
2.66516
2.66563
2.66574
2.66575
2.66588
2.666
2.66602
2.66569
2.66469
2.66296
2.66056
2.65756
2.65393
2.64948
2.64393
2.63717
2.62888
2.61904
2.60638
2.59041
2.56809
2.53804
2.49364
2.43543
2.32622
2.16267
1
1
1
1
1
1
1
1
1
1
1
1
1
1
1
1
1
1
1
1
1
1
1
1
1
1
1
1
1
1
1
1
1
1
1
1
1
1
1
1
1
1
1
1
1
1
1
1
1
1
1
0.999999
1.39791
2.43979
2.59885
2.60743
2.613
2.61632
2.61935
2.62261
2.62648
2.63081
2.63496
2.63831
2.64072
2.64276
2.64498
2.64746
2.64989
2.65182
2.6531
2.65366
2.65355
2.65313
2.65255
2.65199
2.65141
2.6505
2.64895
2.64657
2.64328
2.63919
2.63421
2.62828
2.62095
2.61212
2.60117
2.58814
2.57182
2.55152
2.52474
2.48839
2.43997
2.36669
2.26224
2.13623
1
1
1
1
1
1
1
1
1
1
1
1
1
1
1
1
1
1
1
1
1
1
1
1
1
1
1
1
1
1
1
1
1
1
1
1
1
1
1
1
1
1
1
1
1
1
1
1
1
1
1
1
1.01561
2.13158
2.60228
2.6005
2.60112
2.60317
2.60595
2.60899
2.61257
2.61691
2.62149
2.62542
2.62813
2.63005
2.63179
2.63362
2.63559
2.63753
2.63909
2.63996
2.63999
2.63947
2.63846
2.63726
2.63594
2.63433
2.63214
2.62919
2.62524
2.62031
2.61415
2.6068
2.59783
2.58716
2.57419
2.55869
2.53986
2.51659
2.48737
2.44902
2.39885
2.33286
2.2462
2.1491
1
1
1
1
1
1
1
1
1
1
1
1
1
1
1
1
1
1
1
1
1
1
1
1
1
1
1
1
1
1
1
1
1
1
1
1
1
1
1
1
1
1
1
1
1
1
1
1
1
1
1
1
1.00001
1.4836
2.45609
2.58512
2.58964
2.59353
2.59555
2.59784
2.60056
2.6043
2.60836
2.61229
2.6154
2.61733
2.61863
2.6198
2.62112
2.62267
2.62418
2.62521
2.62544
2.62499
2.62389
2.62233
2.62035
2.61797
2.61499
2.61137
2.6068
2.60123
2.59427
2.58585
2.57562
2.56351
2.54913
2.5321
2.51188
2.48726
2.45776
2.41948
2.37316
2.3168
2.24975
2.17122
1
1
1
1
1
1
1
1
1
1
1
1
1
1
1
1
1
1
1
1
1
1
1
1
1
1
1
1
1
1
1
1
1
1
1
1
1
1
1
1
1
1
1
1
1
1
1
1
1
1
1
1
1
1.02317
2.13381
2.58429
2.58469
2.58501
2.58605
2.58838
2.59125
2.59461
2.59784
2.60092
2.60333
2.60454
2.60506
2.60551
2.6062
2.60735
2.60872
2.60975
2.61
2.60963
2.60857
2.60685
2.60442
2.60142
2.59775
2.59341
2.58819
2.58202
2.57454
2.5655
2.55453
2.54155
2.52638
2.50868
2.48805
2.46349
2.43478
2.39899
2.35785
2.31108
2.25563
2.19381
1
1
1
1
1
1
1
1
1
1
1
1
1
1
1
1
1
1
1
1
1
1
1
1
1
1
1
1
1
1
1
1
1
1
1
1
1
1
1
1
1
1
1
1
1
1
1
1
1
1
1
1
1
1.00003
1.42616
2.41884
2.57175
2.57342
2.57682
2.57901
2.58137
2.58439
2.58742
2.58993
2.59148
2.59177
2.59154
2.5912
2.59124
2.59182
2.59285
2.59368
2.59365
2.59324
2.59213
2.59034
2.58775
2.58449
2.58049
2.57566
2.56987
2.56311
2.55522
2.54591
2.53473
2.52153
2.50619
2.4884
2.46829
2.44429
2.41736
2.38503
2.34904
2.30825
2.26102
2.21136
1
1
1
1
1
1
1
1
1
1
1
1
1
1
1
1
1
1
1
1
1
1
1
1
1
1
1
1
1
1
1
1
1
1
1
1
1
1
1
1
1
1
1
1
1
1
1
1
1
1
1
1
1
1
1.01636
2.0471
2.5567
2.56531
2.56597
2.56887
2.57202
2.57548
2.57818
2.58009
2.58072
2.58047
2.57967
2.57862
2.57798
2.57804
2.57829
2.57843
2.57808
2.57728
2.57568
2.57346
2.57057
2.56714
2.56309
2.55813
2.55202
2.54482
2.53652
2.52699
2.51582
2.50281
2.48789
2.47053
2.45148
2.42838
2.40371
2.37517
2.34304
2.30743
2.2679
2.22594
1
1
1
1
1
1
1
1
1
1
1
1
1
1
1
1
1
1
1
1
1
1
1
1
1
1
1
1
1
1
1
1
1
1
1
1
1
1
1
1
1
1
1
1
1
1
1
1
1
1
1
1
1
1
1.00002
1.23181
2.3411
2.56005
2.5561
2.5583
2.56084
2.56407
2.56673
2.56817
2.56826
2.5679
2.56704
2.5658
2.56479
2.56443
2.56399
2.56336
2.56253
2.56127
2.55908
2.55629
2.55293
2.54928
2.54524
2.54041
2.53441
2.52716
2.51867
2.50899
2.49794
2.4853
2.47115
2.45459
2.43659
2.41506
2.39284
2.36743
2.33807
2.30745
2.27327
2.23686
1
1
1
1
1
1
1
1
1
1
1
1
1
1
1
1
1
1
1
1
1
1
1
1
1
1
1
1
1
1
1
1
1
1
1
1
1
1
1
1
1
1
1
1
1
1
1
1
1
1
1
1
1
1
1
1.00385
1.85768
2.50069
2.53339
2.54056
2.54678
2.55023
2.55276
2.55438
2.55483
2.55462
2.55399
2.55301
2.55207
2.55169
2.55094
2.54962
2.5482
2.54639
2.54357
2.54015
2.53612
2.53197
2.52763
2.52273
2.51695
2.5099
2.50147
2.49173
2.48079
2.46844
2.45507
2.43947
2.42281
2.40345
2.38349
2.36021
2.33413
2.30774
2.27691
2.24464
1
1
1
1
1
1
1
1
1
1
1
1
1
1
1
1
1
1
1
1
1
1
1
1
1
1
1
1
1
1
1
1
1
1
1
1
1
1
1
1
1
1
1
1
1
1
1
1
1
1
1
1
1
1
1
1
1.10168
2.19494
2.53471
2.53284
2.53487
2.53708
2.53953
2.54113
2.54194
2.54189
2.54151
2.54087
2.54011
2.53983
2.53898
2.53731
2.53532
2.53292
2.52942
2.5253
2.52053
2.51575
2.51089
2.50567
2.50002
2.49319
2.48506
2.47534
2.46456
2.45251
2.43978
2.4251
2.41002
2.39274
2.37444
2.35345
2.33116
2.30703
2.27874
2.25059
1
1
1
1
1
1
1
1
1
1
1
1
1
1
1
1
1
1
1
1
1
1
1
1
1
1
1
1
1
1
1
1
1
1
1
1
1
1
1
1
1
1
1
1
1
1
1
1
1
1
1
1
1
1
1
1
1.00068
1.4409
2.35803
2.51588
2.51496
2.51938
2.52323
2.52565
2.52708
2.52745
2.52725
2.52689
2.52645
2.5264
2.52602
2.52457
2.5225
2.51977
2.51589
2.51127
2.506
2.50065
2.49539
2.48978
2.48376
2.47704
2.46913
2.45968
2.44914
2.43753
2.42519
2.41136
2.3976
2.38188
2.36525
2.34711
2.32722
2.30441
2.28026
2.2556
1
1
1
1
1
1
1
1
1
1
1
1
1
1
1
1
1
1
1
1
1
1
1
1
1
1
1
1
1
1
1
1
1
1
1
1
1
1
1
1
1
1
1
1
1
1
1
1
1
1
1
1
1
1
1
1
1
1.01739
1.88943
2.47121
2.50072
2.50634
2.50996
2.51151
2.51261
2.513
2.51283
2.51258
2.51227
2.51222
2.51219
2.51119
2.50939
2.50675
2.50295
2.49815
2.4926
2.48675
2.48124
2.47528
2.46896
2.46214
2.45444
2.44533
2.43513
2.42382
2.41181
2.39875
2.38563
2.3711
2.35612
2.34007
2.32144
2.30118
2.28072
2.25841
1
1
1
1
1
1
1
1
1
1
1
1
1
1
1
1
1
1
1
1
1
1
1
1
1
1
1
1
1
1
1
1
1
1
1
1
1
1
1
1
1
1
1
1
1
1
1
1
1
1
1
1
1
1
1
1
1
1.00003
1.11653
2.12311
2.48415
2.49945
2.49793
2.49888
2.49932
2.49921
2.49897
2.49866
2.49827
2.4981
2.49815
2.49748
2.49597
2.49356
2.49001
2.48532
2.47968
2.4735
2.46775
2.46158
2.45529
2.44853
2.44104
2.43221
2.42241
2.41144
2.39973
2.38723
2.37435
2.36073
2.34685
2.33192
2.31478
2.29738
2.27956
2.25905
1
1
1
1
1
1
1
1
1
1
1
1
1
1
1
1
1
1
1
1
1
1
1
1
1
1
1
1
1
1
1
1
1
1
1
1
1
1
1
1
1
1
1
1
1
1
1
1
1
1
1
1
1
1
1
1
1
1
1.00092
1.26609
2.27278
2.48278
2.48132
2.48202
2.48196
2.48205
2.4823
2.4828
2.48293
2.48313
2.48333
2.48286
2.48164
2.4795
2.47641
2.47215
2.46675
2.46069
2.45477
2.44877
2.4426
2.43616
2.42899
2.42078
2.41144
2.4008
2.38941
2.37723
2.36448
2.35157
2.33816
2.32377
2.30837
2.29302
2.27694
2.25857
1
1
1
1
1
1
1
1
1
1
1
1
1
1
1
1
1
1
1
1
1
1
1
1
1
1
1
1
1
1
1
1
1
1
1
1
1
1
1
1
1
1
1
1
1
1
1
1
1
1
1
1
1
1
1
1
1
1
1
1.00511
1.66067
2.37917
2.45791
2.45535
2.45669
2.45848
2.46073
2.46303
2.46485
2.46654
2.46748
2.46721
2.46635
2.46457
2.46172
2.45803
2.45321
2.44759
2.4419
2.43638
2.4307
2.42458
2.41777
2.41012
2.40133
2.39115
2.38016
2.36829
2.35588
2.34365
2.33057
2.31672
2.30299
2.28914
2.27452
2.25861
1
1
1
1
1
1
1
1
1
1
1
1
1
1
1
1
1
1
1
1
1
1
1
1
1
1
1
1
1
1
1
1
1
1
1
1
1
1
1
1
1
1
1
1
1
1
1
1
1
1
1
1
1
1
1
1
1
1
1
1.00001
1.04958
1.90987
2.41832
2.44387
2.44329
2.44489
2.44653
2.44814
2.44966
2.45117
2.45193
2.45164
2.45073
2.44907
2.4464
2.44297
2.43906
2.43405
2.42887
2.42391
2.41866
2.41314
2.40693
2.39984
2.39168
2.38222
2.37188
2.3606
2.34872
2.33693
2.32436
2.31167
2.29979
2.28759
2.27509
2.26167
1
1
1
1
1
1
1
1
1
1
1
1
1
1
1
1
1
1
1
1
1
1
1
1
1
1
1
1
1
1
1
1
1
1
1
1
1
1
1
1
1
1
1
1
1
1
1
1
1
1
1
1
1
1
1
1
1
1
1
1
1.00021
1.13272
2.02727
2.41231
2.4346
2.43689
2.43806
2.43791
2.43782
2.4377
2.43732
2.43644
2.43503
2.43308
2.43046
2.42707
2.42358
2.41937
2.41487
2.41041
2.40578
2.4009
2.39541
2.38901
2.38165
2.37326
2.36378
2.35315
2.34202
2.3312
2.32015
2.30986
2.3008
2.29062
2.28053
2.2705
1
1
1
1
1
1
1
1
1
1
1
1
1
1
1
1
1
1
1
1
1
1
1
1
1
1
1
1
1
1
1
1
1
1
1
1
1
1
1
1
1
1
1
1
1
1
1
1
1
1
1
1
1
1
1
1
1
1
1
1
1
1.00123
1.21316
2.10428
2.39775
2.42889
2.42822
2.42807
2.42746
2.4263
2.42488
2.4232
2.42108
2.41845
2.41545
2.41197
2.40845
2.40471
2.40072
2.39664
2.39243
2.38806
2.38323
2.37754
2.37098
2.36366
2.35508
2.34568
2.33659
2.32863
2.32093
2.31355
2.30738
2.29978
2.29268
2.28537
1
1
1
1
1
1
1
1
1
1
1
1
1
1
1
1
1
1
1
1
1
1
1
1
1
1
1
1
1
1
1
1
1
1
1
1
1
1
1
1
1
1
1
1
1
1
1
1
1
1
1
1
1
1
1
1
1
1
1
1
1
1
1.00319
1.29608
2.15508
2.38961
2.41025
2.41342
2.41366
2.41329
2.41213
2.41046
2.40809
2.4052
2.40186
2.3982
2.39452
2.39073
2.38678
2.38277
2.37874
2.37465
2.37029
2.36516
2.35938
2.35355
2.34749
2.34158
2.33694
2.33221
2.3273
2.32349
2.31978
2.31357
2.30801
2.30141
1
1
1
1
1
1
1
1
1
1
1
1
1
1
1
1
1
1
1
1
1
1
1
1
1
1
1
1
1
1
1
1
1
1
1
1
1
1
1
1
1
1
1
1
1
1
1
1
1
1
1
1
1
1
1
1
1
1
1
1
1
1
1
1.0065
1.37803
2.19475
2.37636
2.39063
2.39491
2.39606
2.39614
2.39542
2.39382
2.3916
2.38866
2.38526
2.38173
2.37805
2.37425
2.3703
2.36627
2.36206
2.35773
2.3536
2.35024
2.34755
2.34585
2.34442
2.34296
2.3412
2.3387
2.33657
2.33269
2.32649
2.32108
2.31412
1
1
1
1
1
1
1
1
1
1
1
1
1
1
1
1
1
1
1
1
1
1
1
1
1
1
1
1
1
1
1
1
1
1
1
1
1
1
1
1
1
1
1
1
1
1
1
1
1
1
1
1
1
1
1
1
1
1
1
1
1
1
1
1.00001
1.01166
1.45161
2.22674
2.36723
2.37008
2.37294
2.37427
2.3754
2.37528
2.37446
2.37279
2.3705
2.36781
2.36481
2.3614
2.35786
2.35404
2.3504
2.34778
2.34685
2.34783
2.34959
2.35113
2.35332
2.35327
2.35213
2.34987
2.34694
2.34148
2.33517
2.32976
2.32286
1
1
1
1
1
1
1
1
1
1
1
1
1
1
1
1
1
1
1
1
1
1
1
1
1
1
1
1
1
1
1
1
1
1
1
1
1
1
1
1
1
1
1
1
1
1
1
1
1
1
1
1
1
1
1
1
1
1
1
1
1
1
1
1
1.00003
1.01843
1.55507
2.25419
2.35376
2.35209
2.35328
2.35368
2.3541
2.3543
2.35397
2.35307
2.35142
2.34925
2.34658
2.34407
2.34199
2.34258
2.34537
2.34935
2.35416
2.3586
2.36281
2.36495
2.36343
2.36083
2.35759
2.353
2.34649
2.34063
2.33558
2.32926
1
1
1
1
1
1
1
1
1
1
1
1
1
1
1
1
1
1
1
1
1
1
1
1
1
1
1
1
1
1
1
1
1
1
1
1
1
1
1
1
1
1
1
1
1
1
1
1
1
1
1
1
1
1
1
1
1
1
1
1
1
1
1
1
1
1.00005
1.03237
1.62044
2.26399
2.3409
2.33812
2.33659
2.33592
2.33536
2.33468
2.33375
2.33259
2.33123
2.331
2.33256
2.33653
2.34365
2.35244
2.36075
2.36755
2.37261
2.37508
2.3738
2.37006
2.36613
2.36208
2.35649
2.35014
2.34528
2.34067
2.33493
1
1
1
1
1
1
1
1
1
1
1
1
1
1
1
1
1
1
1
1
1
1
1
1
1
1
1
1
1
1
1
1
1
1
1
1
1
1
1
1
1
1
1
1
1
1
1
1
1
1
1
1
1
1
1
1
1
1
1
1
1
1
1
1
1
1
1.00013
1.04514
1.63987
2.2567
2.3287
2.32577
2.32357
2.32151
2.31927
2.31712
2.31534
2.31645
2.32004
2.32785
2.34046
2.35343
2.36568
2.37405
2.3807
2.38195
2.38068
2.3772
2.37242
2.36853
2.36443
2.35873
2.3534
2.34961
2.34518
2.33975
1
1
1
1
1
1
1
1
1
1
1
1
1
1
1
1
1
1
1
1
1
1
1
1
1
1
1
1
1
1
1
1
1
1
1
1
1
1
1
1
1
1
1
1
1
1
1
1
1
1
1
1
1
1
1
1
1
1
1
1
1
1
1
1
1
1
1
1.00022
1.05047
1.62523
2.23908
2.31756
2.31489
2.31198
2.30812
2.30505
2.30575
2.30991
2.32269
2.33824
2.35519
2.36871
2.3787
2.38362
2.38478
2.38356
2.38066
2.37639
2.37215
2.3693
2.36574
2.3605
2.35651
2.35347
2.34895
2.34367
1
1
1
1
1
1
1
1
1
1
1
1
1
1
1
1
1
1
1
1
1
1
1
1
1
1
1
1
1
1
1
1
1
1
1
1
1
1
1
1
1
1
1
1
1
1
1
1
1
1
1
1
1
1
1
1
1
1
1
1
1
1
1
1
1
1
1
1
1.00027
1.04804
1.60494
2.2167
2.30456
2.302
2.29883
2.29979
2.30802
2.32286
2.34314
2.36122
2.3742
2.38296
2.38644
2.38509
2.38316
2.38112
2.37813
2.37383
2.37056
2.36851
2.36526
2.36034
2.35752
2.35509
2.35073
2.34594
1
1
1
1
1
1
1
1
1
1
1
1
1
1
1
1
1
1
1
1
1
1
1
1
1
1
1
1
1
1
1
1
1
1
1
1
1
1
1
1
1
1
1
1
1
1
1
1
1
1
1
1
1
1
1
1
1
1
1
1
1
1
1
1
1
1
1
1
1
1.00026
1.0439
1.57253
2.18701
2.2879
2.29332
2.30655
2.33251
2.35662
2.37462
2.38303
2.39002
2.38931
2.38663
2.38322
2.38049
2.37822
2.37495
2.37104
2.36889
2.36748
2.3644
2.35967
2.35713
2.35479
2.35049
2.34615
1
1
1
1
1
1
1
1
1
1
1
1
1
1
1
1
1
1
1
1
1
1
1
1
1
1
1
1
1
1
1
1
1
1
1
1
1
1
1
1
1
1
1
1
1
1
1
1
1
1
1
1
1
1
1
1
1
1
1
1
1
1
1
1
1
1
1
1
1
1
1.00022
1.0375
1.52364
2.14592
2.29865
2.3425
2.36897
2.38409
2.39194
2.39267
2.39155
2.3886
2.38413
2.38005
2.37783
2.37547
2.37157
2.36808
2.36689
2.36574
2.36234
2.35787
2.35595
2.35402
2.35006
2.346
1
1
1
1
1
1
1
1
1
1
1
1
1
1
1
1
1
1
1
1
1
1
1
1
1
1
1
1
1
1
1
1
1
1
1
1
1
1
1
1
1
1
1
1
1
1
1
1
1
1
1
1
1
1
1
1
1
1
1
1
1
1
1
1
1
1
1
1
1
1
1
1.00018
1.02911
1.45223
2.22861
2.40514
2.40418
2.40303
2.40049
2.39731
2.39374
2.3894
2.38423
2.38047
2.37861
2.37589
2.37132
2.36779
2.36639
2.36445
2.35985
2.35543
2.35413
2.35258
2.34866
2.34483
1
1
1
1
1
1
1
1
1
1
1
1
1
1
1
1
1
1
1
1
1
1
1
1
1
1
1
1
1
1
1
1
1
1
1
1
1
1
1
1
1
1
1
1
1
1
1
1
1
1
1
1
1
1
1
1
1
1
1
1
1
1
1
1
1
1
1
1
1
1
1
1
1.00013
1.01994
1.90792
2.48811
2.47406
2.45563
2.43707
2.42206
2.40978
2.39896
2.39009
2.3847
2.38141
2.37758
2.37322
2.37014
2.3685
2.36576
2.36032
2.35594
2.35448
2.35227
2.34727
2.34332
1
1
1
1
1
1
1
1
1
1
1
1
1
1
1
1
1
1
1
1
1
1
1
1
1
1
1
1
1
1
1
1
1
1
1
1
1
1
1
1
1
1
1
1
1
1
1
1
1
1
1
1
1
1
1
1
1
1
1
1
1
1
1
1
1
1
1
1
1
1
1
1
1
1.00005
1.24292
2.36455
2.53627
2.51143
2.48704
2.46474
2.44564
2.42971
2.41744
2.40765
2.39928
2.3914
2.38444
2.37891
2.37479
2.36951
2.36289
2.35868
2.35671
2.35352
2.3482
2.34456
1
1
1
1
1
1
1
1
1
1
1
1
1
1
1
1
1
1
1
1
1
1
1
1
1
1
1
1
1
1
1
1
1
1
1
1
1
1
1
1
1
1
1
1
1
1
1
1
1
1
1
1
1
1
1
1
1
1
1
1
1
1
1
1
1
1
1
1
1
1
1
1
1
1
1.00397
1.97822
2.55271
2.54841
2.53695
2.52275
2.5055
2.48779
2.47051
2.45463
2.44043
2.42732
2.41484
2.40384
2.39425
2.3847
2.37597
2.36947
2.36495
2.35907
2.35253
2.34826
1
1
1
1
1
1
1
1
1
1
1
1
1
1
1
1
1
1
1
1
1
1
1
1
1
1
1
1
1
1
1
1
1
1
1
1
1
1
1
1
1
1
1
1
1
1
1
1
1
1
1
1
1
1
1
1
1
1
1
1
1
1
1
1
1
1
1
1
1
1
1
1
1
1
1
1.26083
2.40185
2.58589
2.57685
2.5661
2.55374
2.53976
2.52421
2.50809
2.49145
2.4748
2.45869
2.44387
2.43007
2.41789
2.40693
2.39679
2.38766
2.37799
2.36957
2.36254
1
1
1
1
1
1
1
1
1
1
1
1
1
1
1
1
1
1
1
1
1
1
1
1
1
1
1
1
1
1
1
1
1
1
1
1
1
1
1
1
1
1
1
1
1
1
1
1
1
1
1
1
1
1
1
1
1
1
1
1
1
1
1
1
1
1
1
1
1
1
1
1
1
1
1
1.00486
2.04309
2.58547
2.58448
2.57947
2.57421
2.56719
2.55837
2.54792
2.53576
2.52237
2.50827
2.49402
2.47972
2.46561
2.45178
2.43865
2.42584
2.41415
2.40366
2.39313
1
1
1
1
1
1
1
1
1
1
1
1
1
1
1
1
1
1
1
1
1
1
1
1
1
1
1
1
1
1
1
1
1
1
1
1
1
1
1
1
1
1
1
1
1
1
1
1
1
1
1
1
1
1
1
1
1
1
1
1
1
1
1
1
1
1
1
1
1
1
1
1
1
1
1
1
1.40249
2.44656
2.59882
2.59363
2.58966
2.5849
2.57923
2.57243
2.56465
2.55603
2.5465
2.53614
2.52499
2.51294
2.50012
2.48699
2.47377
2.46067
2.44764
2.43482
1
1
1
1
1
1
1
1
1
1
1
1
1
1
1
1
1
1
1
1
1
1
1
1
1
1
1
1
1
1
1
1
1
1
1
1
1
1
1
1
1
1
1
1
1
1
1
1
1
1
1
1
1
1
1
1
1
1
1
1
1
1
1
1
1
1
1
1
1
1
1
1
1
1
1
1
1.01447
2.18461
2.61473
2.61186
2.60404
2.59773
2.59163
2.58592
2.58014
2.57413
2.56771
2.56074
2.55311
2.54479
2.53572
2.52594
2.51552
2.50446
2.49273
2.48082
1
1
1
1
1
1
1
1
1
1
1
1
1
1
1
1
1
1
1
1
1
1
1
1
1
1
1
1
1
1
1
1
1
1
1
1
1
1
1
1
1
1
1
1
1
1
1
1
1
1
1
1
1
1
1
1
1
1
1
1
1
1
1
1
1
1
1
1
1
1
1
1
1
1
1
1
1.00001
1.67271
2.51946
2.61382
2.60911
2.60572
2.60113
2.59683
2.59226
2.5875
2.5825
2.57721
2.57149
2.56535
2.55883
2.55186
2.5443
2.5362
2.52752
2.51831
1
1
1
1
1
1
1
1
1
1
1
1
1
1
1
1
1
1
1
1
1
1
1
1
1
1
1
1
1
1
1
1
1
1
1
1
1
1
1
1
1
1
1
1
1
1
1
1
1
1
1
1
1
1
1
1
1
1
1
1
1
1
1
1
1
1
1
1
1
1
1
1
1
1
1
1
1
1.07627
2.33775
2.62692
2.61918
2.61341
2.60919
2.60538
2.60136
2.59714
2.59275
2.58821
2.58357
2.57874
2.5736
2.56811
2.56208
2.55565
2.54897
2.54199
1
1
1
1
1
1
1
1
1
1
1
1
1
1
1
1
1
1
1
1
1
1
1
1
1
1
1
1
1
1
1
1
1
1
1
1
1
1
1
1
1
1
1
1
1
1
1
1
1
1
1
1
1
1
1
1
1
1
1
1
1
1
1
1
1
1
1
1
1
1
1
1
1
1
1
1
1
1.00038
2.0447
2.60558
2.61712
2.61598
2.61391
2.61039
2.60684
2.6031
2.59916
2.59505
2.59078
2.58632
2.58165
2.5768
2.57174
2.56652
2.56125
2.55584
1
1
1
1
1
1
1
1
1
1
1
1
1
1
1
1
1
1
1
1
1
1
1
1
1
1
1
1
1
1
1
1
1
1
1
1
1
1
1
1
1
1
1
1
1
1
1
1
1
1
1
1
1
1
1
1
1
1
1
1
1
1
1
1
1
1
1
1
1
1
1
1
1
1
1
1
1
1
1.5753
2.50535
2.6305
2.62566
2.62215
2.61783
2.6141
2.61034
2.60651
2.60256
2.59849
2.59431
2.59006
2.58578
2.58151
2.57715
2.57267
2.56805
1
1
1
1
1
1
1
1
1
1
1
1
1
1
1
1
1
1
1
1
1
1
1
1
1
1
1
1
1
1
1
1
1
1
1
1
1
1
1
1
1
1
1
1
1
1
1
1
1
1
1
1
1
1
1
1
1
1
1
1
1
1
1
1
1
1
1
1
1
1
1
1
1
1
1
1
1
1
1.04516
2.32559
2.64129
2.63423
2.6282
2.62391
2.62019
2.61643
2.61256
2.60859
2.60454
2.60044
2.59631
2.59217
2.58804
2.5839
2.57969
2.57541
1
1
1
1
1
1
1
1
1
1
1
1
1
1
1
1
1
1
1
1
1
1
1
1
1
1
1
1
1
1
1
1
1
1
1
1
1
1
1
1
1
1
1
1
1
1
1
1
1
1
1
1
1
1
1
1
1
1
1
1
1
1
1
1
1
1
1
1
1
1
1
1
1
1
1
1
1
1
1.00013
2.08729
2.63177
2.63506
2.63285
2.63022
2.62655
2.62267
2.61869
2.61465
2.61058
2.60648
2.60238
2.59827
2.59417
2.59008
2.58595
2.58179
1
1
1
1
1
1
1
1
1
1
1
1
1
1
1
1
1
1
1
1
1
1
1
1
1
1
1
1
1
1
1
1
1
1
1
1
1
1
1
1
1
1
1
1
1
1
1
1
1
1
1
1
1
1
1
1
1
1
1
1
1
1
1
1
1
1
1
1
1
1
1
1
1
1
1
1
1
1
1
1.72324
2.56518
2.64248
2.63769
2.63467
2.63095
2.62727
2.62354
2.61975
2.61592
2.61201
2.60807
2.60411
2.60011
2.59608
2.592
2.58788
1
1
1
1
1
1
1
1
1
1
1
1
1
1
1
1
1
1
1
1
1
1
1
1
1
1
1
1
1
1
1
1
1
1
1
1
1
1
1
1
1
1
1
1
1
1
1
1
1
1
1
1
1
1
1
1
1
1
1
1
1
1
1
1
1
1
1
1
1
1
1
1
1
1
1
1
1
1
1
1.29193
2.43016
2.64789
2.64204
2.6394
2.63618
2.63274
2.62915
2.62551
2.62182
2.61806
2.61424
2.61037
2.60643
2.60244
2.59837
2.59426
1
1
1
1
1
1
1
1
1
1
1
1
1
1
1
1
1
1
1
1
1
1
1
1
1
1
1
1
1
1
1
1
1
1
1
1
1
1
1
1
1
1
1
1
1
1
1
1
1
1
1
1
1
1
1
1
1
1
1
1
1
1
1
1
1
1
1
1
1
1
1
1
1
1
1
1
1
1
1
1.00872
2.27908
2.6596
2.65482
2.6483
2.64358
2.63925
2.63516
2.63116
2.62723
2.62333
2.61944
2.61556
2.61164
2.60769
2.60369
2.59966
1
1
1
1
1
1
1
1
1
1
1
1
1
1
1
1
1
1
1
1
1
1
1
1
1
1
1
1
1
1
1
1
1
1
1
1
1
1
1
1
1
1
1
1
1
1
1
1
1
1
1
1
1
1
1
1
1
1
1
1
1
1
1
1
1
1
1
1
1
1
1
1
1
1
1
1
1
1
1
1
2.06011
2.64831
2.65604
2.65236
2.64917
2.64513
2.64106
2.63695
2.63291
2.6289
2.62494
2.621
2.61704
2.61307
2.60907
2.60506
1
1
1
1
1
1
1
1
1
1
1
1
1
1
1
1
1
1
1
1
1
1
1
1
1
1
1
1
1
1
1
1
1
1
1
1
1
1
1
1
1
1
1
1
1
1
1
1
1
1
1
1
1
1
1
1
1
1
1
1
1
1
1
1
1
1
1
1
1
1
1
1
1
1
1
1
1
1
1
1
1.78509
2.59266
2.65868
2.65364
2.65081
2.64739
2.64402
2.64052
2.63694
2.63327
2.62949
2.62567
2.62179
2.61789
2.61396
2.61
1
1
1
1
1
1
1
1
1
1
1
1
1
1
1
1
1
1
1
1
1
1
1
1
1
1
1
1
1
1
1
1
1
1
1
1
1
1
1
1
1
1
1
1
1
1
1
1
1
1
1
1
1
1
1
1
1
1
1
1
1
1
1
1
1
1
1
1
1
1
1
1
1
1
1
1
1
1
1
1
1.47068
2.50143
2.66076
2.65549
2.65358
2.65102
2.64826
2.64522
2.64195
2.63849
2.63488
2.63118
2.62741
2.62359
2.61973
2.61584
1
1
1
1
1
1
1
1
1
1
1
1
1
1
1
1
1
1
1
1
1
1
1
1
1
1
1
1
1
1
1
1
1
1
1
1
1
1
1
1
1
1
1
1
1
1
1
1
1
1
1
1
1
1
1
1
1
1
1
1
1
1
1
1
1
1
1
1
1
1
1
1
1
1
1
1
1
1
1
1
1.15117
2.37914
2.6642
2.65781
2.65444
2.65179
2.64918
2.64642
2.64347
2.64037
2.63717
2.63389
2.63052
2.62707
2.62355
2.61993
1
1
1
1
1
1
1
1
1
1
1
1
1
1
1
1
1
1
1
1
1
1
1
1
1
1
1
1
1
1
1
1
1
1
1
1
1
1
1
1
1
1
1
1
1
1
1
1
1
1
1
1
1
1
1
1
1
1
1
1
1
1
1
1
1
1
1
1
1
1
1
1
1
1
1
1
1
1
1
1
1.00243
2.26015
2.66883
2.66708
2.66098
2.65714
2.65354
2.65021
2.64695
2.64371
2.64052
2.63732
2.63407
2.63077
2.62739
2.62391
1
1
1
1
1
1
1
1
1
1
1
1
1
1
1
1
1
1
1
1
1
1
1
1
1
1
1
1
1
1
1
1
1
1
1
1
1
1
1
1
1
1
1
1
1
1
1
1
1
1
1
1
1
1
1
1
1
1
1
1
1
1
1
1
1
1
1
1
1
1
1
1
1
1
1
1
1
1
1
1
1
2.1135
2.66016
2.66964
2.66531
2.66217
2.65856
2.65516
2.65178
2.64848
2.64518
2.64185
2.63846
2.63506
2.63162
2.62809
1
1
1
1
1
1
1
1
1
1
1
1
1
1
1
1
1
1
1
1
1
1
1
1
1
1
1
1
1
1
1
1
1
1
1
1
1
1
1
1
1
1
1
1
1
1
1
1
1
1
1
1
1
1
1
1
1
1
1
1
1
1
1
1
1
1
1
1
1
1
1
1
1
1
1
1
1
1
1
1
1
1.94157
2.63323
2.67219
2.66776
2.66525
2.66205
2.65889
2.6556
2.65231
2.64896
2.64555
2.64205
2.63855
2.635
2.6314
1
1
1
1
1
1
1
1
1
1
1
1
1
1
1
1
1
1
1
1
1
1
1
1
1
1
1
1
1
1
1
1
1
1
1
1
1
1
1
1
1
1
1
1
1
1
1
1
1
1
1
1
1
1
1
1
1
1
1
1
1
1
1
1
1
1
1
1
1
1
1
1
1
1
1
1
1
1
1
1
1
1.76269
2.59772
2.67253
2.6673
2.66491
2.66192
2.65894
2.65578
2.65254
2.64924
2.64593
2.64253
2.63911
2.63564
2.63216
1
1
1
1
1
1
1
1
1
1
1
1
1
1
1
1
1
1
1
1
1
1
1
1
1
1
1
1
1
1
1
1
1
1
1
1
1
1
1
1
1
1
1
1
1
1
1
1
1
1
1
1
1
1
1
1
1
1
1
1
1
1
1
1
1
1
1
1
1
1
1
1
1
1
1
1
1
1
1
1
1
1.57865
2.5562
2.67231
2.66661
2.66426
2.66148
2.65876
2.65593
2.653
2.65001
2.64692
2.64375
2.64049
2.63718
2.63382
1
1
1
1
1
1
1
1
1
1
1
1
1
1
1
1
1
1
1
1
1
1
1
1
1
1
1
1
1
1
1
1
1
1
1
1
1
1
1
1
1
1
1
1
1
1
1
1
1
1
1
1
1
1
1
1
1
1
1
1
1
1
1
1
1
1
1
1
1
1
1
1
1
1
1
1
1
1
1
1
1
1.40552
2.50397
2.67473
2.66841
2.66551
2.66245
2.65953
2.65664
2.65368
2.65071
2.64763
2.64449
2.64122
2.63793
2.63462
1
1
1
1
1
1
1
1
1
1
1
1
1
1
1
1
1
1
1
1
1
1
1
1
1
1
1
1
1
1
1
1
1
1
1
1
1
1
1
1
1
1
1
1
1
1
1
1
1
1
1
1
1
1
1
1
1
1
1
1
1
1
1
1
1
1
1
1
1
1
1
1
1
1
1
1
1
1
1
1
1
1.27132
2.44991
2.67768
2.67182
2.6685
2.66518
2.662
2.6589
2.65575
2.65263
2.64941
2.6462
2.64286
2.63952
2.63618
1
1
1
1
1
1
1
1
1
1
1
1
1
1
1
1
1
1
1
1
1
1
1
1
1
1
1
1
1
1
1
1
1
1
1
1
1
1
1
1
1
1
1
1
1
1
1
1
1
1
1
1
1
1
1
1
1
1
1
1
1
1
1
1
1
1
1
1
1
1
1
1
1
1
1
1
1
1
1
1
1
1.1694
2.39297
2.67773
2.67408
2.67086
2.66774
2.66454
2.66139
2.65815
2.65495
2.65166
2.64843
2.64508
2.64173
2.63833
1
1
1
1
1
1
1
1
1
1
1
1
1
1
1
1
1
1
1
1
1
1
1
1
1
1
1
1
1
1
1
1
1
1
1
1
1
1
1
1
1
1
1
1
1
1
1
1
1
1
1
1
1
1
1
1
1
1
1
1
1
1
1
1
1
1
1
1
1
1
1
1
1
1
1
1
1
1
1
1
1
1.07621
2.33821
2.67736
2.67605
2.67229
2.66951
2.66649
2.66347
2.66036
2.65723
2.65399
2.65079
2.6475
2.64418
2.64077
1
1
1
1
1
1
1
1
1
1
1
1
1
1
1
1
1
1
1
1
1
1
1
1
1
1
1
1
1
1
1
1
1
1
1
1
1
1
1
1
1
1
1
1
1
1
1
1
1
1
1
1
1
1
1
1
1
1
1
1
1
1
1
1
1
1
1
1
1
1
1
1
1
1
1
1
1
1
1
1
1
1.00153
2.28947
2.67518
2.67722
2.67281
2.67024
2.66724
2.66427
2.66124
2.65817
2.65502
2.65186
2.64865
2.64542
2.6421
1
1
1
1
1
1
1
1
1
1
1
1
1
1
1
1
1
1
1
1
1
1
1
1
1
1
1
1
1
1
1
1
1
1
1
1
1
1
1
1
1
1
1
1
1
1
1
1
1
1
1
1
1
1
1
1
1
1
1
1
1
1
1
1
1
1
1
1
1
1
1
1
1
1
1
1
1
1
1
1
1
1
2.24076
2.67212
2.67726
2.67278
2.67034
2.66741
2.66452
2.66158
2.65858
2.65552
2.65242
2.64932
2.64618
2.64297
1
1
1
1
1
1
1
1
1
1
1
1
1
1
1
1
1
1
1
1
1
1
1
1
1
1
1
1
1
1
1
1
1
1
1
1
1
1
1
1
1
1
1
1
1
1
1
1
1
1
1
1
1
1
1
1
1
1
1
1
1
1
1
1
1
1
1
1
1
1
1
1
1
1
1
1
1
1
1
1
1
1
2.20077
2.67007
2.67786
2.67317
2.67068
2.66776
2.66487
2.66193
2.65894
2.65589
2.65278
2.64967
2.64651
2.64326
1
1
1
1
1
1
1
1
1
1
1
1
1
1
1
1
1
1
1
1
1
1
1
1
1
1
1
1
1
1
1
1
1
1
1
1
1
1
1
1
1