/*--------------------------------*- C++ -*----------------------------------*\
  =========                 |
  \\      /  F ield         | OpenFOAM: The Open Source CFD Toolbox
   \\    /   O peration     | Website:  https://openfoam.org
    \\  /    A nd           | Version:  7
     \\/     M anipulation  |
\*---------------------------------------------------------------------------*/
FoamFile
{
    version     2.0;
    format      ascii;
    class       volVectorField;
    location    "9.2";
    object      U;
}
// * * * * * * * * * * * * * * * * * * * * * * * * * * * * * * * * * * * * * //

dimensions      [0 1 -1 0 0 0 0];

internalField   nonuniform List<vector> 
19968
(
(3 -3.29892e-17 0)
(3 -3.71843e-17 0)
(3 1.54285e-16 0)
(3 2.1102e-16 0)
(3 6.07017e-16 0)
(3 6.37162e-16 0)
(3 1.27711e-15 0)
(3 1.71833e-15 0)
(3 2.09171e-15 0)
(3 1.87152e-15 0)
(3 1.56892e-15 0)
(3 1.39034e-15 0)
(3 1.09231e-15 0)
(3 6.44424e-16 0)
(3 -4.48122e-16 0)
(3 -1.39108e-15 0)
(3 -1.80241e-15 0)
(3 -2.12035e-15 0)
(3 -2.0385e-15 0)
(3 -1.82788e-15 0)
(3 -1.57247e-15 0)
(3 -1.57972e-15 0)
(3 -1.59464e-15 0)
(3 -1.56402e-15 0)
(3 -9.76661e-16 0)
(3 -4.79463e-16 0)
(3 2.5361e-16 0)
(3 6.11564e-16 0)
(3 2.2718e-16 0)
(3 -3.66249e-16 0)
(3 -3.73892e-16 0)
(3 -3.4984e-16 0)
(3 -4.10684e-16 0)
(3 -7.27823e-16 0)
(3 -5.09197e-16 0)
(3 -4.88632e-17 0)
(3 -2.0312e-16 0)
(3 -1.08433e-15 0)
(3 -1.45715e-15 0)
(3 -1.58393e-15 0)
(3 -8.45886e-16 0)
(3 -6.65088e-16 0)
(3 -5.65586e-16 0)
(3 -7.68551e-16 0)
(3 -1.14283e-15 0)
(3 -1.87788e-15 0)
(3 -1.70701e-15 0)
(3 -8.19341e-16 0)
(2.80263 0.00179932 0)
(0.968194 0.00434836 0)
(0.761283 0.00563654 0)
(0.746518 0.0104581 0)
(0.727223 0.0104024 0)
(0.710665 0.00890638 0)
(0.696024 0.0075708 0)
(0.682608 0.00727291 0)
(0.669077 0.0079463 0)
(0.654335 0.0092226 0)
(0.637977 0.0102622 0)
(0.621007 0.0100396 0)
(0.605046 0.00895108 0)
(0.590306 0.00850093 0)
(0.575832 0.00898694 0)
(0.560983 0.00953237 0)
(0.545996 0.00954784 0)
(0.531024 0.00945714 0)
(0.515594 0.00966659 0)
(0.499392 0.00992222 0)
(0.482834 0.00997399 0)
(0.466529 0.00994611 0)
(0.450716 0.0100321 0)
(0.435284 0.0102266 0)
(0.419963 0.0104058 0)
(0.404483 0.0105058 0)
(0.388612 0.0105708 0)
(0.37223 0.0106571 0)
(0.355486 0.0107683 0)
(0.338742 0.0108846 0)
(0.322307 0.0109938 0)
(0.306222 0.0110965 0)
(0.290231 0.0112023 0)
(0.273944 0.0113169 0)
(0.257042 0.0114409 0)
(0.239424 0.0115793 0)
(0.221312 0.0117414 0)
(0.203126 0.0119293 0)
(0.185177 0.0121381 0)
(0.167472 0.012363 0)
(0.149756 0.0126004 0)
(0.131668 0.012851 0)
(0.112888 0.0131255 0)
(0.0932806 0.0134299 0)
(0.0729652 0.0137817 0)
(0.0522113 0.0141881 0)
(0.031288 0.0144666 0)
(0.0106469 0.0149193 0)
(3 -3.84486e-17 0)
(3 5.29173e-16 0)
(3 7.38881e-16 0)
(3 9.10649e-16 0)
(3 1.10495e-15 0)
(3 1.14816e-15 0)
(3 1.49831e-15 0)
(3 2.49537e-15 0)
(3 4.14161e-15 0)
(3 3.48793e-15 0)
(3 2.44149e-15 0)
(3 1.95991e-15 0)
(3 1.22057e-15 0)
(3 1.38452e-16 0)
(3 -1.85613e-15 0)
(3 -3.63948e-15 0)
(3 -3.75703e-15 0)
(3 -4.00612e-15 0)
(3 -4.09082e-15 0)
(3 -2.85033e-15 0)
(3 -2.2614e-15 0)
(3 -3.03167e-15 0)
(3 -3.44132e-15 0)
(3 -2.9374e-15 0)
(3 -2.12369e-15 0)
(3 -1.11562e-15 0)
(3 8.99255e-16 0)
(3 1.88637e-15 0)
(3 1.14174e-15 0)
(3 -1.14332e-16 0)
(3 -2.90625e-16 0)
(3 -5.07072e-16 0)
(3 -1.22668e-15 0)
(3 -1.636e-15 0)
(3 -7.98719e-16 0)
(3 -2.37645e-16 0)
(3 -2.25255e-16 0)
(3 -7.6693e-16 0)
(3 -1.37833e-15 0)
(3 -1.36894e-15 0)
(3 -1.02523e-15 0)
(3 -1.39096e-15 0)
(3 -1.45685e-15 0)
(3 -8.85698e-16 0)
(3 -4.54019e-16 0)
(3 -4.35647e-16 0)
(3 -5.61355e-16 0)
(3 -1.03707e-15 0)
(2.81671 0.0111934 0)
(0.972447 0.024266 0)
(0.756409 0.0227809 0)
(0.740782 0.0296108 0)
(0.723315 0.0299506 0)
(0.707657 0.0269857 0)
(0.692946 0.0235559 0)
(0.678877 0.0223266 0)
(0.664868 0.0239164 0)
(0.650172 0.0273407 0)
(0.634227 0.0301625 0)
(0.617824 0.0298439 0)
(0.602208 0.0273807 0)
(0.587217 0.0262368 0)
(0.572523 0.0275106 0)
(0.557564 0.0289978 0)
(0.5425 0.029009 0)
(0.527455 0.0287332 0)
(0.511993 0.0293286 0)
(0.495829 0.0300874 0)
(0.479325 0.0302953 0)
(0.463024 0.0302871 0)
(0.447151 0.030563 0)
(0.431643 0.0311051 0)
(0.416257 0.0316053 0)
(0.40072 0.0319112 0)
(0.384785 0.0321352 0)
(0.368344 0.0324207 0)
(0.351562 0.0327838 0)
(0.334791 0.0331754 0)
(0.318318 0.0335484 0)
(0.30217 0.0338815 0)
(0.286102 0.0341863 0)
(0.269755 0.0344781 0)
(0.252835 0.0347709 0)
(0.23526 0.0351094 0)
(0.217252 0.0355564 0)
(0.199197 0.0361381 0)
(0.181365 0.036831 0)
(0.16375 0.0375939 0)
(0.146116 0.0383889 0)
(0.128149 0.0391941 0)
(0.109581 0.0400303 0)
(0.0903084 0.0409196 0)
(0.070462 0.0419249 0)
(0.0503076 0.0430933 0)
(0.0300619 0.0438772 0)
(0.0102163 0.0451293 0)
(3 -4.56243e-17 0)
(3 -1.73136e-17 0)
(3 -2.0284e-16 0)
(3 -1.64736e-16 0)
(3 -9.43258e-17 0)
(3 -4.26494e-16 0)
(3 -9.12804e-16 0)
(3 -4.91463e-16 0)
(3 5.6926e-16 0)
(3 1.2009e-15 0)
(3 1.13431e-15 0)
(3 5.3726e-16 0)
(3 5.06352e-16 0)
(3 1.50389e-16 0)
(3 -6.58307e-16 0)
(3 -1.03127e-15 0)
(3 -1.99243e-15 0)
(3 -2.24836e-15 0)
(3 -1.56049e-15 0)
(3 -1.58391e-15 0)
(3 -1.21241e-15 0)
(3 -1.08711e-15 0)
(3 -1.94661e-15 0)
(3 -2.05373e-15 0)
(3 -1.67473e-15 0)
(3 -6.24972e-16 0)
(3 1.02072e-16 0)
(3 2.91947e-16 0)
(3 -9.38007e-17 0)
(3 -4.67961e-16 0)
(3 -6.97825e-16 0)
(3 -1.02827e-15 0)
(3 -1.57017e-15 0)
(3 -2.08596e-15 0)
(3 -2.45632e-15 0)
(3 -1.96522e-15 0)
(3 -2.1836e-15 0)
(3 -2.29883e-15 0)
(3 -1.77223e-15 0)
(3 -1.26591e-15 0)
(3 -5.35558e-16 0)
(3 -2.46091e-16 0)
(3 -1.7871e-16 0)
(3 4.61155e-17 0)
(3 7.35837e-16 0)
(3 1.56977e-15 0)
(3 2.28144e-15 0)
(3 1.84883e-15 0)
(2.85095 0.0184783 0)
(0.988949 0.0447234 0)
(0.759362 0.041876 0)
(0.743305 0.0490204 0)
(0.726904 0.0490905 0)
(0.711667 0.0456671 0)
(0.696543 0.0413654 0)
(0.681323 0.0396268 0)
(0.666268 0.0419409 0)
(0.651195 0.0468572 0)
(0.635306 0.0506982 0)
(0.6192 0.0501709 0)
(0.603775 0.0468535 0)
(0.588428 0.0454401 0)
(0.573405 0.0474855 0)
(0.558182 0.0498125 0)
(0.542846 0.0498194 0)
(0.52754 0.0493678 0)
(0.5119 0.0503046 0)
(0.495675 0.0515278 0)
(0.479129 0.0519131 0)
(0.462736 0.0519832 0)
(0.446702 0.0524707 0)
(0.431007 0.0533231 0)
(0.415443 0.0541025 0)
(0.399733 0.0546156 0)
(0.383628 0.05503 0)
(0.367034 0.0555368 0)
(0.350123 0.056147 0)
(0.333227 0.0567896 0)
(0.3166 0.0573998 0)
(0.300258 0.0579496 0)
(0.283989 0.0584648 0)
(0.267483 0.0589738 0)
(0.250494 0.0594917 0)
(0.23297 0.0600703 0)
(0.215114 0.0607927 0)
(0.197238 0.061696 0)
(0.179531 0.0627573 0)
(0.161947 0.0639329 0)
(0.144274 0.065179 0)
(0.126257 0.0664585 0)
(0.107703 0.0677895 0)
(0.0885579 0.0691883 0)
(0.0689629 0.0707361 0)
(0.0491779 0.0725399 0)
(0.0293327 0.0736899 0)
(0.00998034 0.0755909 0)
(3 9.56773e-17 0)
(3 1.77948e-16 0)
(3 4.30497e-16 0)
(3 -5.16215e-16 0)
(3 -7.32711e-16 0)
(3 -4.46173e-16 0)
(3 -5.17598e-17 0)
(3 2.06385e-16 0)
(3 1.88499e-16 0)
(3 -3.65757e-16 0)
(3 -6.5064e-16 0)
(3 -1.26373e-15 0)
(3 -1.63305e-15 0)
(3 -1.38834e-15 0)
(3 -5.39471e-16 0)
(3 6.28252e-17 0)
(3 -2.35494e-16 0)
(3 -5.82704e-16 0)
(3 -4.49123e-16 0)
(3 -1.35425e-15 0)
(3 -5.07341e-16 0)
(3 1.39916e-16 0)
(3 -1.82721e-16 0)
(3 -5.44881e-16 0)
(3 -6.84463e-16 0)
(3 -1.7878e-16 0)
(3 2.54559e-16 0)
(3 -6.39533e-16 0)
(3 -6.70859e-16 0)
(3 -5.94845e-16 0)
(3 -1.38678e-15 0)
(3 -1.48723e-15 0)
(3 -1.20567e-15 0)
(3 -1.68244e-15 0)
(3 -2.33537e-15 0)
(3 -2.29e-15 0)
(3 -2.4108e-15 0)
(3 -2.33875e-15 0)
(3 -1.82956e-15 0)
(3 -1.41102e-15 0)
(3 -5.59327e-16 0)
(3 1.49017e-15 0)
(3 2.17801e-15 0)
(3 7.97314e-16 0)
(3 -2.46143e-16 0)
(3 -4.89498e-17 0)
(3 1.00728e-15 0)
(3 1.32691e-15 0)
(2.89508 0.0218333 0)
(1.01274 0.0647825 0)
(0.760453 0.0623035 0)
(0.743805 0.0676024 0)
(0.728959 0.067611 0)
(0.714371 0.0648317 0)
(0.699276 0.0609123 0)
(0.68351 0.0590815 0)
(0.667797 0.0615744 0)
(0.652616 0.0671509 0)
(0.637024 0.0713566 0)
(0.621393 0.0707169 0)
(0.60628 0.0671439 0)
(0.590871 0.0658062 0)
(0.575857 0.068567 0)
(0.560692 0.0716758 0)
(0.545335 0.0718009 0)
(0.529959 0.0712449 0)
(0.51429 0.0724469 0)
(0.498127 0.0740619 0)
(0.481618 0.0746636 0)
(0.465152 0.0749285 0)
(0.44892 0.0757157 0)
(0.432957 0.0768946 0)
(0.417096 0.0779539 0)
(0.401069 0.0787143 0)
(0.384624 0.079381 0)
(0.367686 0.0801516 0)
(0.350434 0.0810243 0)
(0.333172 0.08192 0)
(0.316116 0.0827642 0)
(0.299278 0.0835212 0)
(0.282489 0.0842277 0)
(0.265505 0.0849244 0)
(0.248151 0.0856223 0)
(0.230428 0.0863733 0)
(0.212537 0.0872804 0)
(0.194725 0.0884028 0)
(0.177104 0.0897345 0)
(0.159596 0.0912492 0)
(0.142004 0.0929159 0)
(0.124116 0.0946847 0)
(0.105778 0.0965557 0)
(0.086947 0.0985177 0)
(0.0677342 0.100629 0)
(0.0483725 0.103074 0)
(0.0288615 0.104566 0)
(0.00988487 0.107068 0)
(3 1.04353e-16 0)
(3 3.96047e-16 0)
(3 6.83557e-16 0)
(3 5.09282e-16 0)
(3 1.45767e-16 0)
(3 3.07118e-16 0)
(3 1.19129e-15 0)
(3 1.14467e-15 0)
(3 1.18416e-16 0)
(3 -4.52792e-16 0)
(3 -1.43862e-15 0)
(3 -1.74698e-15 0)
(3 -2.41922e-15 0)
(3 -2.80729e-15 0)
(3 -1.6612e-15 0)
(3 -2.42612e-16 0)
(3 -4.88267e-16 0)
(3 -7.95819e-16 0)
(3 -1.73428e-15 0)
(3 -1.87482e-15 0)
(3 -1.09859e-15 0)
(3 -1.67431e-15 0)
(3 -1.01267e-15 0)
(3 -1.07149e-15 0)
(3 -9.22348e-16 0)
(3 -9.53143e-16 0)
(3 -1.11583e-15 0)
(3 -9.78938e-16 0)
(3 -8.18541e-16 0)
(3 -4.52197e-16 0)
(3 -6.57743e-16 0)
(3 -9.50106e-16 0)
(3 -7.60632e-16 0)
(3 -6.2111e-16 0)
(3 -1.00937e-15 0)
(3 -1.1929e-15 0)
(3 -1.28405e-15 0)
(3 -1.22782e-15 0)
(3 -9.6502e-16 0)
(3 -5.48388e-16 0)
(3 4.9313e-16 0)
(3 1.11516e-15 0)
(3 -8.63265e-18 0)
(3 -3.20408e-16 0)
(3 -1.50616e-15 0)
(3 -1.86316e-15 0)
(3 -2.20661e-15 0)
(3 -1.97357e-15 0)
(2.94181 0.0284225 0)
(1.04065 0.0934894 0)
(0.7603 0.085648 0)
(0.74459 0.084992 0)
(0.732175 0.0851856 0)
(0.719323 0.0835294 0)
(0.705341 0.0810059 0)
(0.689956 0.0799596 0)
(0.673984 0.0827533 0)
(0.658463 0.0884133 0)
(0.642845 0.0924022 0)
(0.627384 0.0916979 0)
(0.61234 0.0882207 0)
(0.596902 0.0871264 0)
(0.582025 0.0904538 0)
(0.567151 0.0942601 0)
(0.552014 0.0947136 0)
(0.536772 0.0942573 0)
(0.521216 0.0957139 0)
(0.505216 0.0976675 0)
(0.48882 0.0985564 0)
(0.472331 0.0992008 0)
(0.455926 0.100477 0)
(0.439681 0.102101 0)
(0.423492 0.103527 0)
(0.407118 0.104657 0)
(0.390301 0.105728 0)
(0.372968 0.106901 0)
(0.355298 0.108152 0)
(0.33756 0.109405 0)
(0.319927 0.110589 0)
(0.302398 0.111654 0)
(0.284833 0.112632 0)
(0.267047 0.113561 0)
(0.248929 0.114429 0)
(0.230542 0.115268 0)
(0.212089 0.116193 0)
(0.19377 0.117291 0)
(0.17565 0.118591 0)
(0.157647 0.120115 0)
(0.139613 0.121892 0)
(0.121411 0.123898 0)
(0.102968 0.126139 0)
(0.0842849 0.128595 0)
(0.0654534 0.131251 0)
(0.0466907 0.134378 0)
(0.0278021 0.136247 0)
(0.00958201 0.139355 0)
(3 4.32496e-17 0)
(3 4.35771e-17 0)
(3 2.19255e-16 0)
(3 8.98089e-16 0)
(3 1.09788e-15 0)
(3 9.45545e-16 0)
(3 4.40826e-16 0)
(3 -2.05217e-16 0)
(3 -4.56085e-16 0)
(3 4.99493e-17 0)
(3 2.59877e-16 0)
(3 -8.66761e-17 0)
(3 -3.38994e-16 0)
(3 -7.35441e-16 0)
(3 -1.5449e-15 0)
(3 -1.72953e-15 0)
(3 -1.95671e-15 0)
(3 -2.15536e-15 0)
(3 -2.0652e-15 0)
(3 -1.87993e-15 0)
(3 -1.96409e-15 0)
(3 -1.86921e-15 0)
(3 -1.1285e-15 0)
(3 -7.53997e-16 0)
(3 -9.48842e-16 0)
(3 -1.46858e-15 0)
(3 -1.98785e-15 0)
(3 -1.30934e-15 0)
(3 3.1962e-16 0)
(3 9.50995e-16 0)
(3 1.38911e-15 0)
(3 1.16524e-15 0)
(3 1.57532e-16 0)
(3 -1.08969e-16 0)
(3 -6.69274e-18 0)
(3 3.41492e-16 0)
(3 3.4472e-16 0)
(3 3.40814e-16 0)
(3 3.64627e-16 0)
(3 -1.40123e-16 0)
(3 -7.8904e-16 0)
(3 -9.18375e-16 0)
(3 -1.41487e-15 0)
(3 -1.41444e-15 0)
(3 -1.12982e-15 0)
(3 -6.45468e-16 0)
(3 -7.34238e-16 0)
(3 -7.88535e-16 0)
(2.99505 0.00175445 0)
(1.10182 0.119353 0)
(0.772694 0.104421 0)
(0.755318 0.100121 0)
(0.742751 0.100479 0)
(0.729987 0.100421 0)
(0.716358 0.100269 0)
(0.70126 0.101163 0)
(0.685313 0.104957 0)
(0.669458 0.110397 0)
(0.65369 0.113618 0)
(0.638254 0.112823 0)
(0.623184 0.10953 0)
(0.607809 0.108505 0)
(0.593155 0.111979 0)
(0.578713 0.116239 0)
(0.563886 0.117239 0)
(0.548813 0.117188 0)
(0.533391 0.118962 0)
(0.51758 0.121164 0)
(0.501411 0.122297 0)
(0.485106 0.123401 0)
(0.468798 0.125314 0)
(0.452543 0.127492 0)
(0.436296 0.129345 0)
(0.41986 0.130936 0)
(0.402963 0.132558 0)
(0.385518 0.134295 0)
(0.367685 0.136074 0)
(0.34971 0.137849 0)
(0.331728 0.139568 0)
(0.313715 0.141166 0)
(0.295537 0.14266 0)
(0.277041 0.14408 0)
(0.258165 0.145376 0)
(0.239016 0.146532 0)
(0.219807 0.147635 0)
(0.200698 0.148785 0)
(0.181706 0.150055 0)
(0.162731 0.151532 0)
(0.143659 0.153299 0)
(0.124422 0.155368 0)
(0.105041 0.157747 0)
(0.0856066 0.160458 0)
(0.0662267 0.163417 0)
(0.0471518 0.167046 0)
(0.0280073 0.169179 0)
(0.0097089 0.172786 0)
(3 -1.40246e-16 0)
(3 -1.77986e-16 0)
(3 -1.75124e-16 0)
(3 -1.42938e-16 0)
(3 -4.07248e-16 0)
(3 -4.18492e-16 0)
(3 -2.92781e-16 0)
(3 -3.09425e-16 0)
(3 -2.86461e-16 0)
(3 -2.85873e-16 0)
(3 -2.30316e-16 0)
(3 -5.94711e-16 0)
(3 -4.7225e-16 0)
(3 -2.05595e-16 0)
(3 -1.12836e-15 0)
(3 -1.37669e-15 0)
(3 -1.14104e-15 0)
(3 -9.00314e-16 0)
(3 -4.44749e-16 0)
(3 -5.35186e-16 0)
(3 -6.53296e-16 0)
(3 -7.45283e-16 0)
(3 -4.44891e-16 0)
(3 3.25251e-16 0)
(3 1.84894e-16 0)
(3 -1.39609e-16 0)
(3 -6.24236e-16 0)
(3 1.93203e-16 0)
(3 1.18929e-15 0)
(3 1.80384e-15 0)
(3 1.4286e-15 0)
(3 5.80364e-16 0)
(3 -7.06663e-16 0)
(3 -4.02171e-16 0)
(3 1.49568e-16 0)
(3 3.39137e-16 0)
(3 7.18104e-16 0)
(3 1.51062e-15 0)
(3 1.28775e-15 0)
(3 3.86159e-16 0)
(3 -9.11446e-16 0)
(3 -1.40905e-15 0)
(3 -9.13685e-16 0)
(3 -1.00636e-15 0)
(3 -1.05281e-15 0)
(3 -6.05076e-16 0)
(3 -2.12498e-16 0)
(3 -2.07883e-16 0)
(3.00004 9.08693e-05 0)
(1.21393 0.140481 0)
(0.776016 0.126398 0)
(0.753097 0.121466 0)
(0.739432 0.121198 0)
(0.725423 0.121458 0)
(0.711175 0.122734 0)
(0.695969 0.125259 0)
(0.680364 0.12987 0)
(0.664957 0.134887 0)
(0.649827 0.137491 0)
(0.634948 0.136744 0)
(0.620201 0.133734 0)
(0.60515 0.13248 0)
(0.590841 0.135692 0)
(0.577038 0.140313 0)
(0.562754 0.142199 0)
(0.548053 0.142965 0)
(0.532939 0.145207 0)
(0.517455 0.147573 0)
(0.501717 0.148835 0)
(0.485905 0.150373 0)
(0.470117 0.152999 0)
(0.454316 0.155821 0)
(0.438459 0.158129 0)
(0.422411 0.160203 0)
(0.405919 0.162433 0)
(0.388879 0.1648 0)
(0.371447 0.167155 0)
(0.35386 0.169481 0)
(0.336224 0.171766 0)
(0.318467 0.173928 0)
(0.30042 0.175951 0)
(0.281923 0.177852 0)
(0.262944 0.179561 0)
(0.243634 0.181025 0)
(0.22423 0.182311 0)
(0.204874 0.183521 0)
(0.185548 0.184752 0)
(0.166129 0.186126 0)
(0.146501 0.18778 0)
(0.126632 0.189773 0)
(0.106609 0.192115 0)
(0.086613 0.194934 0)
(0.0667855 0.198037 0)
(0.0474614 0.202076 0)
(0.0281154 0.204422 0)
(0.00980653 0.208465 0)
(3 -1.33257e-16 0)
(3 -3.1495e-16 0)
(3 -4.2645e-16 0)
(3 -7.44354e-16 0)
(3 -6.28839e-16 0)
(3 -5.13947e-16 0)
(3 -6.30322e-16 0)
(3 -4.12738e-16 0)
(3 -2.74097e-16 0)
(3 -8.66419e-16 0)
(3 -8.9663e-16 0)
(3 -5.68244e-16 0)
(3 7.91922e-17 0)
(3 1.42623e-15 0)
(3 1.84565e-15 0)
(3 1.43134e-15 0)
(3 1.65267e-15 0)
(3 1.81144e-15 0)
(3 1.80159e-15 0)
(3 1.89527e-15 0)
(3 1.897e-15 0)
(3 1.74111e-15 0)
(3 8.62046e-16 0)
(3 5.79769e-16 0)
(3 2.66388e-16 0)
(3 6.35574e-17 0)
(3 1.53589e-16 0)
(3 6.90869e-16 0)
(3 3.222e-16 0)
(3 4.6531e-16 0)
(3 6.58456e-16 0)
(3 4.30128e-16 0)
(3 -3.02116e-16 0)
(3 -8.64784e-16 0)
(3 -1.17744e-15 0)
(3 -7.78579e-16 0)
(3 -1.68861e-16 0)
(3 6.11935e-16 0)
(3 4.94018e-16 0)
(3 -8.64565e-17 0)
(3 -1.19328e-16 0)
(3 -5.96092e-16 0)
(3 -8.94088e-16 0)
(3 -1.38359e-15 0)
(3 -2.2146e-15 0)
(3 -2.22282e-15 0)
(3 -1.16943e-15 0)
(3 -5.0939e-16 0)
(3 1.58047e-07 0)
(1.41228 0.171477 0)
(0.789543 0.153053 0)
(0.755723 0.145092 0)
(0.740287 0.143587 0)
(0.724623 0.14384 0)
(0.709595 0.145839 0)
(0.694434 0.149255 0)
(0.679499 0.15405 0)
(0.664869 0.15834 0)
(0.650483 0.160399 0)
(0.635975 0.16018 0)
(0.621152 0.157903 0)
(0.606011 0.15624 0)
(0.591563 0.158569 0)
(0.578192 0.163068 0)
(0.564596 0.165878 0)
(0.550553 0.167783 0)
(0.536094 0.170642 0)
(0.521267 0.173047 0)
(0.506318 0.174197 0)
(0.491396 0.176033 0)
(0.476562 0.17941 0)
(0.461602 0.18304 0)
(0.4464 0.185906 0)
(0.430919 0.188503 0)
(0.414949 0.191431 0)
(0.398371 0.194594 0)
(0.381325 0.197727 0)
(0.364061 0.200819 0)
(0.34668 0.20392 0)
(0.329067 0.206935 0)
(0.311 0.209804 0)
(0.292294 0.212526 0)
(0.272931 0.21502 0)
(0.253113 0.217188 0)
(0.233123 0.219052 0)
(0.213122 0.220691 0)
(0.193084 0.222189 0)
(0.172874 0.223682 0)
(0.152371 0.225336 0)
(0.131554 0.227276 0)
(0.110543 0.229494 0)
(0.0896014 0.232308 0)
(0.0688936 0.235365 0)
(0.0488638 0.239674 0)
(0.0288777 0.242171 0)
(0.0101047 0.246578 0)
(3 2.07636e-16 0)
(3 4.32302e-16 0)
(3 6.03173e-16 0)
(3 6.30237e-16 0)
(3 8.23091e-16 0)
(3 8.46897e-16 0)
(3 7.79246e-16 0)
(3 5.04362e-16 0)
(3 4.45757e-16 0)
(3 3.53315e-16 0)
(3 1.81934e-16 0)
(3 3.79636e-16 0)
(3 1.19409e-15 0)
(3 1.29893e-15 0)
(3 1.66374e-15 0)
(3 1.63927e-15 0)
(3 1.57353e-15 0)
(3 1.40708e-15 0)
(3 1.37566e-15 0)
(3 1.66014e-15 0)
(3 1.90972e-15 0)
(3 1.8869e-15 0)
(3 1.44189e-15 0)
(3 6.75209e-16 0)
(3 3.45387e-16 0)
(3 -2.74058e-16 0)
(3 -4.14549e-16 0)
(3 -5.61619e-16 0)
(3 -4.0052e-16 0)
(3 -2.30809e-16 0)
(3 3.26141e-16 0)
(3 9.41887e-16 0)
(3 1.20828e-15 0)
(3 1.37019e-15 0)
(3 1.0005e-15 0)
(3 3.93891e-16 0)
(3 1.35366e-16 0)
(3 -2.4914e-16 0)
(3 -5.89172e-17 0)
(3 2.4971e-16 0)
(3 6.02108e-16 0)
(3 4.25508e-16 0)
(3 -3.51106e-16 0)
(3 -1.424e-15 0)
(3 -1.69995e-15 0)
(3 -1.3564e-15 0)
(3 -8.83511e-16 0)
(3 -4.03111e-16 0)
(3 3.90868e-10 0)
(1.72569 0.192485 0)
(0.819833 0.178131 0)
(0.763616 0.174888 0)
(0.745442 0.170603 0)
(0.72726 0.169881 0)
(0.710784 0.171003 0)
(0.695215 0.173608 0)
(0.680681 0.177569 0)
(0.66667 0.181261 0)
(0.652664 0.183711 0)
(0.638089 0.18502 0)
(0.622688 0.184338 0)
(0.606959 0.182435 0)
(0.59175 0.183109 0)
(0.577954 0.186592 0)
(0.564469 0.189951 0)
(0.550642 0.193086 0)
(0.536428 0.19671 0)
(0.521864 0.199145 0)
(0.507375 0.200016 0)
(0.493116 0.202038 0)
(0.479206 0.20628 0)
(0.465183 0.211024 0)
(0.450736 0.214669 0)
(0.435972 0.217831 0)
(0.420797 0.221494 0)
(0.405072 0.225591 0)
(0.388862 0.229694 0)
(0.372393 0.233738 0)
(0.355754 0.237834 0)
(0.338779 0.241902 0)
(0.321187 0.245825 0)
(0.302767 0.249575 0)
(0.283505 0.253074 0)
(0.263624 0.256196 0)
(0.243434 0.258909 0)
(0.223102 0.261253 0)
(0.202596 0.263279 0)
(0.181777 0.26511 0)
(0.160522 0.266915 0)
(0.138801 0.268898 0)
(0.116728 0.270987 0)
(0.0946339 0.27377 0)
(0.0727081 0.276636 0)
(0.0515325 0.281086 0)
(0.0304335 0.283694 0)
(0.0106608 0.288419 0)
(3 1.83392e-18 0)
(3 -1.81615e-17 0)
(3 1.99788e-17 0)
(3 3.38532e-17 0)
(3 -1.30335e-16 0)
(3 -3.01373e-16 0)
(3 1.0968e-17 0)
(3 1.86167e-16 0)
(3 5.94035e-16 0)
(3 1.50956e-15 0)
(3 1.61684e-15 0)
(3 1.04582e-15 0)
(3 1.21847e-16 0)
(3 -1.09792e-16 0)
(3 -2.01734e-16 0)
(3 -1.73539e-16 0)
(3 -8.97954e-17 0)
(3 -1.53866e-16 0)
(3 -2.71869e-16 0)
(3 -4.41161e-16 0)
(3 -4.11103e-16 0)
(3 -6.18673e-16 0)
(3 -5.0122e-16 0)
(3 5.43565e-18 0)
(3 -6.75178e-18 0)
(3 5.26206e-17 0)
(3 -3.57075e-16 0)
(3 -3.45376e-16 0)
(3 -1.99928e-17 0)
(3 5.41577e-17 0)
(3 4.28515e-16 0)
(3 6.55858e-16 0)
(3 1.94664e-15 0)
(3 2.53038e-15 0)
(3 2.34335e-15 0)
(3 2.20479e-15 0)
(3 1.11329e-15 0)
(3 6.03687e-16 0)
(3 1.60483e-16 0)
(3 1.23272e-16 0)
(3 -3.32117e-16 0)
(3 -6.89941e-16 0)
(3 -3.67117e-16 0)
(3 1.6482e-16 0)
(3 3.71313e-16 0)
(3 4.65947e-16 0)
(3 -5.21269e-17 0)
(3 3.94876e-16 0)
(3 8.72771e-13 0)
(2.15334 0.195073 0)
(0.860158 0.211393 0)
(0.761428 0.209201 0)
(0.744957 0.203126 0)
(0.728125 0.201131 0)
(0.712689 0.200387 0)
(0.698018 0.200781 0)
(0.68428 0.202866 0)
(0.67098 0.205837 0)
(0.65745 0.209173 0)
(0.643175 0.212565 0)
(0.627691 0.214037 0)
(0.611731 0.212417 0)
(0.596142 0.211152 0)
(0.581747 0.212788 0)
(0.56807 0.216069 0)
(0.554196 0.220282 0)
(0.539844 0.22477 0)
(0.525002 0.227278 0)
(0.510325 0.227587 0)
(0.495988 0.22924 0)
(0.482282 0.233908 0)
(0.468627 0.239638 0)
(0.454389 0.24399 0)
(0.439822 0.247415 0)
(0.425052 0.251507 0)
(0.40999 0.256441 0)
(0.394586 0.261592 0)
(0.378983 0.266711 0)
(0.363248 0.271927 0)
(0.347189 0.277223 0)
(0.330457 0.282447 0)
(0.312783 0.287541 0)
(0.294095 0.292444 0)
(0.274567 0.297013 0)
(0.254482 0.30115 0)
(0.234011 0.304814 0)
(0.213143 0.307973 0)
(0.191783 0.31069 0)
(0.169849 0.313085 0)
(0.147306 0.315435 0)
(0.124204 0.317561 0)
(0.100896 0.320379 0)
(0.0775892 0.322953 0)
(0.0549987 0.327386 0)
(0.0325067 0.330038 0)
(0.011364 0.335031 0)
(3 -9.63169e-17 0)
(3 -4.67696e-16 0)
(3 -8.31623e-16 0)
(3 -8.71299e-16 0)
(3 -1.03712e-15 0)
(3 -1.28594e-15 0)
(3 -1.45589e-15 0)
(3 -1.30075e-15 0)
(3 -6.89638e-16 0)
(3 -1.64542e-16 0)
(3 6.86961e-16 0)
(3 8.97505e-16 0)
(3 7.09351e-16 0)
(3 6.10446e-16 0)
(3 2.8703e-16 0)
(3 6.52561e-17 0)
(3 -2.51076e-16 0)
(3 -3.06186e-16 0)
(3 -1.18772e-16 0)
(3 -4.37461e-16 0)
(3 -7.43364e-16 0)
(3 -8.40282e-16 0)
(3 -8.81141e-16 0)
(3 -4.85837e-16 0)
(3 -3.48554e-16 0)
(3 -2.69663e-16 0)
(3 -2.37607e-16 0)
(3 -1.15862e-16 0)
(3 -1.73076e-16 0)
(3 -1.5582e-16 0)
(3 -8.41955e-17 0)
(3 1.89654e-17 0)
(3 8.45494e-16 0)
(3 2.259e-15 0)
(3 2.2671e-15 0)
(3 2.05589e-15 0)
(3 1.83079e-15 0)
(3 1.55788e-15 0)
(3 1.62813e-15 0)
(3 1.45562e-15 0)
(3 1.00532e-15 0)
(3 6.50318e-16 0)
(3 9.29566e-16 0)
(3 1.83319e-15 0)
(3 1.96963e-15 0)
(3 1.63599e-15 0)
(3 1.64541e-15 0)
(3 2.01513e-15 0)
(3 3.64075e-15 0)
(2.68095 0.171619 0)
(0.960916 0.254992 0)
(0.783063 0.237502 0)
(0.77461 0.226732 0)
(0.756569 0.22661 0)
(0.740368 0.225471 0)
(0.723949 0.224959 0)
(0.708261 0.22579 0)
(0.69323 0.228531 0)
(0.678511 0.233268 0)
(0.663794 0.239298 0)
(0.648149 0.243593 0)
(0.631897 0.243322 0)
(0.615909 0.2408 0)
(0.600421 0.240635 0)
(0.585667 0.243776 0)
(0.571118 0.249308 0)
(0.556193 0.255252 0)
(0.540571 0.258533 0)
(0.524992 0.258654 0)
(0.509683 0.259728 0)
(0.495127 0.264432 0)
(0.480944 0.271025 0)
(0.466037 0.276215 0)
(0.450643 0.27976 0)
(0.435165 0.283855 0)
(0.41971 0.289235 0)
(0.404151 0.295195 0)
(0.388482 0.301199 0)
(0.372775 0.307326 0)
(0.356908 0.313689 0)
(0.340566 0.320178 0)
(0.32346 0.3267 0)
(0.305457 0.333191 0)
(0.286615 0.339484 0)
(0.267111 0.3454 0)
(0.247054 0.350808 0)
(0.226387 0.3556 0)
(0.204989 0.359785 0)
(0.182737 0.363416 0)
(0.159556 0.366821 0)
(0.135373 0.36967 0)
(0.110555 0.373073 0)
(0.0853355 0.375699 0)
(0.0606099 0.380195 0)
(0.0359085 0.382898 0)
(0.0125286 0.388183 0)
(3 -6.79213e-17 0)
(3 -5.62587e-17 0)
(3 -6.90136e-17 0)
(3 -2.45666e-16 0)
(3 -1.91279e-16 0)
(3 -4.44771e-17 0)
(3 -3.97345e-16 0)
(3 -5.97421e-16 0)
(3 -7.14244e-16 0)
(3 -8.46748e-16 0)
(3 -5.6739e-16 0)
(3 -4.83597e-16 0)
(3 -4.70667e-16 0)
(3 -3.68623e-16 0)
(3 -3.70559e-16 0)
(3 -1.48588e-16 0)
(3 -5.46088e-16 0)
(3 -6.68616e-16 0)
(3 -1.92708e-16 0)
(3 -2.18816e-16 0)
(3 -1.96249e-16 0)
(3 -7.40372e-17 0)
(3 -1.08442e-16 0)
(3 -2.14391e-16 0)
(3 -4.86539e-16 0)
(3 -6.6909e-16 0)
(3 -7.22972e-16 0)
(3 -3.4456e-16 0)
(3 -7.93192e-17 0)
(3 3.06026e-16 0)
(3 6.49082e-16 0)
(3 4.2154e-16 0)
(3 1.29331e-15 0)
(3 1.93374e-15 0)
(3 2.37515e-15 0)
(3 2.22992e-15 0)
(3 1.94086e-15 0)
(3 2.28625e-15 0)
(3 1.87836e-15 0)
(3 2.1334e-15 0)
(3 2.65891e-15 0)
(3 2.76332e-15 0)
(3 2.5098e-15 0)
(3 2.83607e-15 0)
(3 2.83495e-15 0)
(3 3.19536e-15 0)
(3 3.35219e-15 0)
(3 3.15532e-15 0)
(3 1.52767e-15 0)
(3.02051 0.0103699 0)
(1.1472 0.279389 0)
(0.808062 0.233725 0)
(0.796764 0.248721 0)
(0.781652 0.255256 0)
(0.76632 0.256879 0)
(0.75035 0.256368 0)
(0.734322 0.255626 0)
(0.718584 0.256607 0)
(0.703531 0.260328 0)
(0.689484 0.266366 0)
(0.675288 0.271661 0)
(0.660158 0.272936 0)
(0.644733 0.270565 0)
(0.629103 0.269059 0)
(0.613767 0.271429 0)
(0.599013 0.277521 0)
(0.584228 0.284859 0)
(0.56852 0.289645 0)
(0.552464 0.29043 0)
(0.536458 0.290975 0)
(0.520981 0.29527 0)
(0.506185 0.302581 0)
(0.49066 0.309216 0)
(0.474283 0.313505 0)
(0.457698 0.31769 0)
(0.441273 0.323415 0)
(0.424937 0.330206 0)
(0.408514 0.337183 0)
(0.39203 0.344212 0)
(0.375479 0.351549 0)
(0.358658 0.359245 0)
(0.341282 0.367225 0)
(0.323135 0.375441 0)
(0.304103 0.383758 0)
(0.2842 0.391985 0)
(0.26348 0.399939 0)
(0.241908 0.407415 0)
(0.219405 0.41423 0)
(0.195869 0.420256 0)
(0.171434 0.42569 0)
(0.146025 0.430041 0)
(0.119838 0.434536 0)
(0.0929022 0.437551 0)
(0.0660958 0.442011 0)
(0.0392138 0.4445 0)
(0.0135181 0.449769 0)
(3 1.07666e-17 0)
(3 -2.45551e-17 0)
(3 -1.17927e-16 0)
(3 -5.89715e-17 0)
(3 2.58675e-16 0)
(3 2.84103e-16 0)
(3 1.96488e-16 0)
(3 7.51826e-17 0)
(3 -1.13406e-16 0)
(3 -4.86049e-16 0)
(3 -9.22815e-16 0)
(3 -1.19902e-15 0)
(3 -1.71698e-15 0)
(3 -1.90245e-15 0)
(3 -1.5823e-15 0)
(3 -1.1264e-15 0)
(3 -3.98405e-16 0)
(3 -3.35677e-16 0)
(3 -4.97666e-16 0)
(3 -3.5448e-16 0)
(3 -1.55993e-16 0)
(3 -2.52067e-16 0)
(3 -2.01417e-16 0)
(3 -1.13451e-16 0)
(3 -7.08103e-17 0)
(3 -2.57907e-16 0)
(3 -1.12828e-16 0)
(3 -1.97963e-16 0)
(3 -1.68659e-16 0)
(3 -2.29523e-16 0)
(3 -8.8126e-17 0)
(3 5.35801e-16 0)
(3 8.95068e-16 0)
(3 6.29438e-16 0)
(3 1.12343e-15 0)
(3 1.83012e-15 0)
(3 2.06671e-15 0)
(3 2.02354e-15 0)
(3 1.92611e-15 0)
(3 1.65447e-15 0)
(3 1.31446e-15 0)
(3 1.34541e-15 0)
(3 4.41565e-16 0)
(3 2.15711e-16 0)
(3 1.49871e-15 0)
(3 3.0659e-15 0)
(3 2.81213e-15 0)
(3 1.86244e-15 0)
(3 1.41797e-15 0)
(3.0003 1.0398e-05 0)
(1.55835 0.309808 0)
(0.82343 0.273872 0)
(0.781578 0.279478 0)
(0.768846 0.287053 0)
(0.755321 0.289308 0)
(0.741952 0.289847 0)
(0.728124 0.289324 0)
(0.7141 0.289306 0)
(0.700408 0.291634 0)
(0.687805 0.29703 0)
(0.675786 0.303466 0)
(0.662841 0.30711 0)
(0.649255 0.30657 0)
(0.635214 0.305095 0)
(0.620943 0.30668 0)
(0.60728 0.312557 0)
(0.594137 0.320816 0)
(0.58012 0.32724 0)
(0.56535 0.329308 0)
(0.550424 0.329723 0)
(0.535648 0.333111 0)
(0.521763 0.340295 0)
(0.507551 0.348071 0)
(0.492118 0.35343 0)
(0.476059 0.357691 0)
(0.459969 0.363316 0)
(0.443992 0.370502 0)
(0.427858 0.378239 0)
(0.411478 0.386036 0)
(0.394942 0.39414 0)
(0.378238 0.402847 0)
(0.361152 0.412157 0)
(0.343455 0.422023 0)
(0.324973 0.432342 0)
(0.305664 0.442903 0)
(0.28557 0.453437 0)
(0.264666 0.463696 0)
(0.242513 0.47323 0)
(0.219494 0.481782 0)
(0.195092 0.48962 0)
(0.168851 0.496332 0)
(0.141158 0.503561 0)
(0.110915 0.509595 0)
(0.0794792 0.515974 0)
(0.047182 0.519185 0)
(0.0160156 0.524178 0)
(3 -2.34263e-17 0)
(3 -5.20741e-17 0)
(3 -2.59486e-16 0)
(3 -2.3529e-16 0)
(3 -2.31669e-16 0)
(3 1.65364e-18 0)
(3 1.76845e-16 0)
(3 2.3016e-16 0)
(3 -2.11774e-16 0)
(3 -3.04198e-16 0)
(3 -1.20957e-15 0)
(3 -1.60229e-15 0)
(3 -1.48089e-15 0)
(3 -8.82136e-16 0)
(3 -6.85666e-16 0)
(3 -2.96266e-16 0)
(3 -5.56507e-16 0)
(3 -9.1576e-16 0)
(3 -1.1e-15 0)
(3 -8.69711e-16 0)
(3 -6.18928e-16 0)
(3 -5.64188e-16 0)
(3 -4.00718e-16 0)
(3 4.71515e-17 0)
(3 6.69214e-16 0)
(3 5.84265e-16 0)
(3 9.65523e-16 0)
(3 8.73005e-16 0)
(3 6.21591e-16 0)
(3 2.03047e-16 0)
(3 -1.03708e-16 0)
(3 -1.94568e-16 0)
(3 -5.05452e-16 0)
(3 -9.49022e-16 0)
(3 -1.48709e-15 0)
(3 -1.44946e-15 0)
(3 -9.64303e-16 0)
(3 -7.93511e-16 0)
(3 -5.42031e-16 0)
(3 -5.57992e-16 0)
(3 -6.0544e-16 0)
(3 2.78659e-16 0)
(3 1.41738e-15 0)
(3 1.56842e-15 0)
(3 2.36779e-15 0)
(3 2.35596e-15 0)
(3 2.18184e-15 0)
(3 1.93471e-15 0)
(3 1.84256e-15 0)
(3 1.82802e-08 0)
(2.38227 0.281657 0)
(0.916928 0.335205 0)
(0.792053 0.31242 0)
(0.780771 0.3125 0)
(0.767486 0.315983 0)
(0.754958 0.319056 0)
(0.741827 0.32002 0)
(0.728449 0.319746 0)
(0.715004 0.320686 0)
(0.702211 0.324643 0)
(0.690531 0.330917 0)
(0.678621 0.336263 0)
(0.665873 0.338051 0)
(0.652621 0.337558 0)
(0.638916 0.338725 0)
(0.625563 0.343919 0)
(0.613084 0.35233 0)
(0.600248 0.360226 0)
(0.586472 0.364278 0)
(0.572396 0.365539 0)
(0.558244 0.368375 0)
(0.54488 0.375123 0)
(0.531909 0.383977 0)
(0.51777 0.39144 0)
(0.502508 0.396965 0)
(0.486819 0.403071 0)
(0.471146 0.410953 0)
(0.455351 0.419907 0)
(0.439246 0.429111 0)
(0.422872 0.438476 0)
(0.40638 0.448544 0)
(0.38953 0.45946 0)
(0.372125 0.47121 0)
(0.353993 0.483787 0)
(0.33479 0.496979 0)
(0.314555 0.510712 0)
(0.292928 0.524663 0)
(0.269835 0.538677 0)
(0.244938 0.552417 0)
(0.217863 0.566045 0)
(0.188197 0.578964 0)
(0.156865 0.592009 0)
(0.124186 0.603759 0)
(0.0904723 0.613176 0)
(0.0552643 0.618087 0)
(0.0179547 0.621093 0)
(3 -2.75166e-17 0)
(3 1.93602e-18 0)
(3 2.42031e-16 0)
(3 5.90586e-16 0)
(3 3.31013e-16 0)
(3 2.58664e-16 0)
(3 2.65172e-16 0)
(3 6.87438e-16 0)
(3 7.70151e-17 0)
(3 -5.87083e-16 0)
(3 -4.90573e-16 0)
(3 -2.03392e-16 0)
(3 4.69155e-16 0)
(3 7.30369e-16 0)
(3 6.80884e-16 0)
(3 -1.05512e-16 0)
(3 -9.33695e-16 0)
(3 -2.06623e-15 0)
(3 -2.90321e-15 0)
(3 -2.80809e-15 0)
(3 -2.6559e-15 0)
(3 -1.59158e-15 0)
(3 -9.85012e-16 0)
(3 -4.07553e-17 0)
(3 1.96794e-16 0)
(3 5.5548e-16 0)
(3 5.72484e-16 0)
(3 6.60312e-16 0)
(3 6.50705e-16 0)
(3 4.50099e-16 0)
(3 3.37892e-16 0)
(3 2.39094e-16 0)
(3 -1.64254e-16 0)
(3 -7.55168e-16 0)
(3 -6.63797e-16 0)
(3 -9.2101e-16 0)
(3 -1.13519e-15 0)
(3 -1.16269e-15 0)
(3 -1.02067e-15 0)
(3 -1.06182e-15 0)
(3 -1.57339e-15 0)
(3 -8.36035e-16 0)
(3 1.00487e-15 0)
(3 1.55971e-15 0)
(3 1.37118e-15 0)
(3 1.43233e-15 0)
(3 1.98939e-15 0)
(3 2.80691e-15 0)
(3 2.99371e-15 0)
(3 -6.84255e-09 0)
(3.02942 0.018083 0)
(1.24697 0.378903 0)
(0.839808 0.31898 0)
(0.822286 0.331877 0)
(0.806919 0.33801 0)
(0.792793 0.343082 0)
(0.778394 0.345572 0)
(0.763927 0.346156 0)
(0.749331 0.346849 0)
(0.735 0.349732 0)
(0.721729 0.35549 0)
(0.709195 0.362201 0)
(0.696227 0.366979 0)
(0.682685 0.368921 0)
(0.668823 0.370481 0)
(0.655114 0.374809 0)
(0.642283 0.382571 0)
(0.629734 0.391296 0)
(0.616428 0.397631 0)
(0.602615 0.400924 0)
(0.5887 0.404052 0)
(0.575345 0.410219 0)
(0.56299 0.41949 0)
(0.550239 0.429085 0)
(0.536176 0.436935 0)
(0.521193 0.444152 0)
(0.506025 0.452779 0)
(0.49081 0.462903 0)
(0.475404 0.473865 0)
(0.459705 0.48503 0)
(0.443956 0.496831 0)
(0.427914 0.509699 0)
(0.411342 0.523782 0)
(0.394 0.539162 0)
(0.375611 0.555697 0)
(0.35629 0.573496 0)
(0.335934 0.592365 0)
(0.314653 0.61224 0)
(0.29205 0.632632 0)
(0.26755 0.652897 0)
(0.240673 0.67175 0)
(0.211072 0.687912 0)
(0.17933 0.703494 0)
(0.142023 0.7216 0)
(0.0962621 0.743502 0)
(0.0372254 0.762987 0)
(3 1.21719e-16 0)
(3 1.94637e-16 0)
(3 8.35443e-16 0)
(3 1.0529e-15 0)
(3 7.20289e-16 0)
(3 5.43685e-16 0)