/*--------------------------------*- C++ -*----------------------------------*\
  =========                 |
  \\      /  F ield         | OpenFOAM: The Open Source CFD Toolbox
   \\    /   O peration     | Website:  https://openfoam.org
    \\  /    A nd           | Version:  7
     \\/     M anipulation  |
\*---------------------------------------------------------------------------*/
FoamFile
{
    version     2.0;
    format      ascii;
    class       volScalarField;
    location    "2";
    object      p;
}
// * * * * * * * * * * * * * * * * * * * * * * * * * * * * * * * * * * * * * //

dimensions      [0 2 -2 0 0 0 0];

internalField   nonuniform List<scalar> 
16000
(
9.7518699e-08
-0.00011472085
-0.00031059249
-0.00053538845
-0.00074410899
-0.00090853967
-0.0010109351
-0.0010412829
-0.00099472122
-0.00086969733
-0.00066673166
-0.00038764712
-3.5119615e-05
0.00038753552
0.00087638817
0.001426815
0.0020333458
0.0026894628
0.0033874137
0.0041180636
0.0048707738
0.0056334186
0.0063924672
0.0071332356
0.0078402485
0.0084977477
0.009090353
0.0096037977
0.010025754
0.010346683
0.010560638
0.010666027
0.010666281
0.010570432
0.010393674
0.01015815
0.0098935696
0.0096357787
0.0094376911
0.0093479162
0.00010347294
-8.9855657e-06
-0.00016140531
-0.000326247
-0.00047633777
-0.00059019977
-0.00065326192
-0.00065633389
-0.00059408635
-0.0004639654
-0.00026536993
9.3218488e-07
0.00033315979
0.00072872043
0.001184252
0.0016955811
0.0022576348
0.0028643083
0.0035083214
0.0041811414
0.0048729093
0.0055725031
0.0062676347
0.0069450991
0.0075911341
0.0081918848
0.0087339968
0.0092052782
0.009595417
0.0098967102
0.010104755
0.010219068
0.010243589
0.010187043
0.010063167
0.0098908347
0.009694018
0.0095013612
0.0093460848
0.0092579622
0.00029407737
0.00013647005
-1.7340463e-05
-0.00016242774
-0.00028719989
-0.00037598412
-0.00041758607
-0.00040477294
-0.00033301826
-0.00019987339
-4.4870484e-06
0.0002528065
0.00057073064
0.0009471878
0.0013792965
0.001863349
0.0023947174
0.0029677525
0.0035756609
0.0042104502
0.0048628806
0.005522538
0.0061779061
0.0068166647
0.0074259967
0.0079930542
0.0085055102
0.0089521762
0.0093236884
0.0096131802
0.0098168919
0.0099347046
0.0099705316
0.0099325094
0.0098329502
0.0096880856
0.0095178756
0.0093451654
0.0091892896
0.0090618705
0.00052184263
0.00029722284
0.0001178979
-3.0279465e-05
-0.00014937871
-0.00022855498
-0.0002599476
-0.00023876421
-0.00016191452
-2.765278e-05
0.00016464581
0.00041471139
0.00072152926
0.0010833775
0.0014978114
0.0019615947
0.0024705824
0.0030196222
0.0036024322
0.00421152
0.0048381612
0.0054724515
0.0061033667
0.0067190703
0.0073072005
0.0078553202
0.0083514676
0.0087847724
0.0091461267
0.0094288366
0.0096292122
0.0097470516
0.0097859413
0.0097533147
0.0096601994
0.0095207225
0.00935204
0.0091730983
0.0089920799
0.0088047014
0.00074204998
0.00044558543
0.00023165862
6.9989515e-05
-5.3211672e-05
-0.00013106012
-0.00015873728
-0.00013389566
-5.5033465e-05
7.8681125e-05
0.00026744154
0.00051089266
0.0008081699
0.0011578658
0.001557953
0.0020056785
0.0024974148
0.0030285251
0.0035932466
0.0041845762
0.0047942263
0.0054126694
0.0060292081
0.006632218
0.0072094551
0.0077485144
0.0082373704
0.0086650048
0.0090221028
0.0093017229
0.0094998848
0.0096160306
0.0096532783
0.0096183937
0.0095213733
0.0093747796
0.0091939043
0.0089952657
0.0087782142
0.0085258111
0.00092434339
0.0005572199
0.00030487643
0.00012352805
-1.0342188e-05
-9.292441e-05
-0.00012198201
-9.7408347e-05
-1.9246006e-05
0.00011238582
0.00029717023
0.00053458801
0.00082386301
0.0011638693
0.0015529899
0.0019889506
0.002468655
0.0029880022
0.0035417318
0.0041232965
0.0047247873
0.0053369268
0.005949153
0.0065498189
0.0071264981
0.0076664491
0.0081571765
0.0085870931
0.0089462526
0.0092270622
0.009424916
0.0095386758
0.00957091
0.009527817
0.0094186983
0.0092551932
0.0090517203
0.0088238099
0.0085644778
0.0082470728
0.0010466562
0.00061266502
0.00032096336
0.00011650126
-3.224274e-05
-0.00012379117
-0.00015802556
-0.00013678859
-6.1517515e-05
6.6766137e-05
0.00024724142
0.00047921169
0.00076198225
0.0010946915
0.0014761351
0.001904535
0.0023773301
0.0028909652
0.0034406854
0.0040203655
0.0046224102
0.0052376931
0.0058556227
0.0064643045
0.007050852
0.007601855
0.0081039617
0.0085445965
0.0089127621
0.0091998268
0.0094002337
0.0095120394
0.0095371894
0.0094814423
0.0093537772
0.0091655693
0.0089313164
0.0086668769
0.0083612024
0.0079805712
0.0010927022
0.00059622035
0.00026576975
3.6681654e-05
-0.00012929836
-0.00023247669
-0.00027446028
-0.00025875115
-0.00018800094
-6.4023607e-05
0.00011192398
0.00033899635
0.0006166039
0.00094417437
0.0013209321
0.0017456212
0.0022162406
0.0027297976
0.003282059
0.0038673156
0.004478239
0.0051057749
0.0057391781
0.0063661241
0.0069730133
0.0075454483
0.0080688537
0.0085292598
0.0089141909
0.0092135622
0.0094205117
0.0095320482
0.0095494075
0.0094780201
0.0093268925
0.0091077544
0.0088360541
0.0085291159
0.0081736065
0.0077306957
0.0010498006
0.00049472533
0.00012669009
-0.0001274845
-0.00031192348
-0.00042833558
-0.00047975777
-0.00047110175
-0.00040605287
-0.00028709274
-0.00011583145
0.0001068083
0.00038039107
0.00070467585
0.0010793513
0.0015037265
0.0019764149
0.0024950286
0.0030558818
0.0036537037
0.0042814371
0.0049300656
0.0055885957
0.0062441217
0.0068821162
0.0074869052
0.0080423225
0.008532573
0.0089432347
0.0092623067
0.009481211
0.0095955998
0.0096058465
0.0095171056
0.00933871
0.0090833035
0.0087680787
0.0084128231
0.008003183
0.0074964293
0.00090742439
0.00029674598
-0.00010772596
-0.00038698519
-0.00059048556
-0.0007211006
-0.0007830794
-0.00078255892
-0.00072411284
-0.00061076667
-0.00044438626
-0.00022589723
4.447456e-05
0.00036688327
0.00074155285
0.0011684183
0.0016467701
0.0021749001
0.0027497474
0.0033665457
0.0040185528
0.0046968048
0.0053900289
0.0060846436
0.0067650158
0.0074139189
0.0080132219
0.0085448412
0.0089918809
0.0093398713
0.009577994
0.0097001154
0.0097054814
0.009598929
0.0093903359
0.0090937423
0.0087288141
0.0083187178
0.0078488902
0.0072732192
0.00065626067
-8.0469382e-06
-0.0004481006
-0.00075233631
-0.00097521985
-0.0011206671
-0.0011940155
-0.001202495
-0.0011514466
-0.00104435
-0.00088324568
-0.00066898482
-0.00040150592
-8.0188293e-05
0.00029580293
0.00072711687
0.001213821
0.0017549988
0.0023483334
0.0029896853
0.003672739
0.0043886735
0.0051259829
0.0058703841
0.0066050141
0.0073108499
0.0079674217
0.0085538523
0.0090501556
0.0094387082
0.0097057619
0.009842789
0.009847471
0.0097241356
0.0094833029
0.0091407993
0.0087194495
0.0082466919
0.0077081838
0.0070543249
0.00028760013
-0.00042935525
-0.00090455707
-0.0012337473
-0.0014762965
-0.0016371067
-0.0017225395
-0.00174085
-0.0016980825
-0.0015981023
-0.0014430542
-0.0012336493
-0.00096946607
-0.00064933687
-0.00027172491
0.00016484315
0.00066134414
0.0012178061
0.0018328307
0.0025030993
0.0032229234
0.0039838119
0.0047741737
0.0055790973
0.0063804535
0.0071572394
0.0078862884
0.0085433823
0.0091047208
0.0095486716
0.0098576439
0.010019852
0.010030714
0.0098936305
0.0096196825
0.0092267613
0.0087415117
0.0081965736
0.0075779425
0.0068318504
-0.0002070843
-0.00097660236
-0.0014869889
-0.001841328
-0.0021039278
-0.0022806896
-0.0023789996
-0.0024081221
-0.0023747822
-0.0022831957
-0.0021355706
-0.0019324248
-0.0016729135
-0.0013552416
-0.00097706903
-0.00053597055
-2.9899741e-05
0.0005423151
0.0011804336
0.0018822383
0.0026429722
0.0034547835
0.0043062851
0.0051821519
0.0060630881
0.0069260333
0.0077448193
0.008491319
0.0091370832
0.0096554073
0.010023652
0.010225552
0.010253198
0.010108296
0.0098021456
0.0093548276
0.0087974544
0.0081688942
0.0074553429
0.0065976346
-0.00083640558
-0.0016592002
-0.0022052657
-0.002585224
-0.0028684562
-0.0030619302
-0.0031741094
-0.0032153106
-0.00319296
-0.0031116262
-0.0029735715
-0.0027790896
-0.0025268645
-0.0022144029
-0.0018384607
-0.0013955226
-0.00088228657
-0.0002961941
0.00036397953
0.0010974897
0.0019009381
0.0027675703
0.003686705
0.0046429897
0.0056162679
0.006581524
0.007509405
0.0083673377
0.0091212984
0.009738215
0.010188825
0.010450694
0.010510988
0.010368461
0.010033888
0.0095294195
0.0088912586
0.0081656849
0.0073387493
0.0063441307
-0.0016092337
-0.002486729
-0.0030694098
-0.0034757488
-0.0037804326
-0.0039916114
-0.0041189307
-0.0041738526
-0.0041645745
-0.0040960674
-0.0039706717
-0.0037884592
-0.0035476215
-0.0032449163
-0.0028761073
-0.0024364521
-0.001921193
-0.0013261067
-0.00064813509
0.00011391608
0.00095857023
0.0018808033
0.0028714208
0.0039156489
0.0049930766
0.0060771186
0.0071352827
0.0081301377
0.0090211289
0.0097672967
0.010330751
0.010680588
0.010796738
0.010673022
0.010318336
0.0097563985
0.0090290417
0.0081913365
0.0072286904
0.0060653752
-0.0025348139
-0.0034690769
-0.0040897255
-0.004523489
-0.0048506798
-0.0050807904
-0.0052248115
-0.0052954985
-0.0053019422
-0.0052496167
-0.0051410089
-0.004976014
-0.0047523486
-0.0044660036
-0.0041116917
-0.0036833254
-0.0031744974
-0.002579026
-0.0018916046
-0.0011085459
-0.00022866936
0.00074568923
0.0018073654
0.0029436262
0.0041346939
0.0053531857
0.0065638936
0.0077243919
0.0087867329
0.0097003902
0.010416384
0.010892296
0.01109756
0.011018052
0.010658529
0.01004313
0.0092196515
0.0082535447
0.0071289859
0.0057581407
-0.0036228389
-0.0046165575
-0.0052769165
-0.0057393961
-0.0060903387
-0.0063407885
-0.0065032979
-0.0065921343
-0.0066174685
-0.0065854304
-0.0064987803
-0.0063573351
-0.0061584047
-0.0058972476
-0.0055675152
-0.0051617014
-0.0046715881
-0.0040887578
-0.0034052227
-0.002614183
-0.0017109828
-0.00069428209
0.00043240341
0.0016595033
0.0029694433
0.0043354362
0.005720565
0.007077772
0.0083511608
0.0094789554
0.010398219
0.01105113
0.011392148
0.011394794
0.011056058
0.010398322
0.0094752325
0.0083643771
0.0070480911
0.0054233649
-0.0048835004
-0.0059400266
-0.0066422206
-0.0071348991
-0.007510921
-0.0077831554
-0.0079660049
-0.0080755408
-0.0081232769
-0.0081162186
-0.0080575927
-0.0079473
-0.0077823785
-0.0075574591
-0.0072651954
-0.0068966608
-0.0064417343
-0.0058895396
-0.0052290038
-0.0044495737
-0.0035421929
-0.0025006039
-0.0013230417
-1.4004105e-05
0.0014132235
0.0029345783
0.0045132663
0.0060987583
0.0076272809
0.0090244065
0.010210145
0.011106545
0.011647177
0.011786936
0.011509462
0.010831576
0.0098117684
0.0085415299
0.0070007698
0.0050679896
-0.0063275616
-0.0074510332
-0.0081975763
-0.008722034
-0.0091243728
-0.0094196285
-0.0096244414
-0.0097570711
-0.0098307212
-0.0098535764
-0.0098295974
-0.0097590073
-0.0096387868
-0.0094631317
-0.0092238571
-0.0089107197
-0.0085117107
-0.0080133756
-0.0074012388
-0.0066604005
-0.0057764513
-0.0047368238
-0.003532661
-0.0021608828
-0.00062780838
0.0010482564
0.0028335473
0.0046763775
0.006506227
0.0082353522
0.009763766
0.01098801
0.011813306
0.012167339
0.012012132
0.01135265
0.010249639
0.0088098792
0.0070102487
0.0047073649
-0.0079664805
-0.0091620503
-0.0099558733
-0.010513642
-0.010943167
-0.011262094
-0.011489802
-0.011647247
-0.011749773
-0.011807143
-0.011824404
-0.011802425
-0.011738432
-0.011626478
-0.011457811
-0.01122111
-0.010902639
-0.010486402
-0.0099543506
-0.0092867764
-0.0084630406
-0.0074628146
-0.0062679769
-0.0048656905
-0.0032513003
-0.0014335138
0.00056107234
0.0026834294
0.0048589973
0.0069874211
0.0089465719
0.010601947
0.011821573
0.012494708
0.012549989
0.011970633
0.010814343
0.0092034922
0.0071110711
0.0043684856
-0.0098126217
-0.011086824
-0.011931325
-0.012523679
-0.012980481
-0.013322576
-0.01357274
-0.01375529
-0.013888296
-0.013983605
-0.014047793
-0.014082784
-0.014086448
-0.014053083
-0.013973767
-0.013836482
-0.013626106
-0.013324333
-0.012909591
-0.012357111
-0.011639343
-0.010726946
-0.0095906267
-0.008204197
-0.0065487049
-0.0046182615
-0.0024267615
-1.4988889e-05
0.0025432491
0.0051378223
0.0076240418
0.0098315719
0.011581617
0.012711195
0.013099571
0.012693367
0.011537661
0.0097683804
0.0073529471
0.0040943907
-0.011879637
-0.013240944
-0.014140052
-0.014767688
-0.015250479
-0.015613268
-0.015883119
-0.016088578
-0.016251198
-0.016385536
-0.016500235
-0.016598762
-0.016680101
-0.016739284
-0.016767721
-0.016753219
-0.016679789
-0.016527271
-0.016270876
-0.015880817
-0.01532225
-0.014555823
-0.013539203
-0.012230055
-0.010590862
-0.0085956742
-0.006239033
-0.003546091
-0.00058266758
0.0025370524
0.005648269
0.0085421385
0.01098389
0.012742573
0.013627601
0.013527806
0.012459704
0.010566386
0.007806044
0.0039502294
-0.014183086
-0.015642709
-0.016600966
-0.017263512
-0.017768749
-0.018146635
-0.018429751
-0.018652031
-0.018839471
-0.019010108
-0.019175274
-0.019340528
-0.019506487
-0.019669459
-0.01982177
-0.019951689
-0.020043021
-0.020074413
-0.020018436
-0.019840655
-0.019498949
-0.018943391
-0.018117217
-0.01695948
-0.015410088
-0.013417459
-0.010949409
-0.0080065922
-0.0046371642
-0.00095025531
0.002875675
0.0065944416
0.009908629
0.012503345
0.014093763
0.014482415
0.013632533
0.011680723
0.0085682028
0.0040315087
-0.016741454
-0.018314491
-0.019337105
-0.020032359
-0.020552952
-0.020935599
-0.021220124
-0.02144741
-0.021649118
-0.021847687
-0.022057836
-0.022287777
-0.022540286
-0.02281349
-0.023101234
-0.023392923
-0.02367291
-0.023919444
-0.02410324
-0.024185904
-0.024118459
-0.023840391
-0.023279787
-0.022355317
-0.020980958
-0.019074663
-0.016570113
-0.013433895
-0.0096849565
-0.005414931
-0.00080471436
0.0038689509
0.0082444367
0.011909555
0.014458965
0.015573162
0.015126326
0.013223851
0.0097747171
0.0044751673
-0.019577742
-0.021284801
-0.022377617
-0.023100328
-0.023623736
-0.023993808
-0.024260077
-0.024472497
-0.024669952
-0.024880348
-0.025122529
-0.025407896
-0.02574183
-0.02612474
-0.026552516
-0.027016326
-0.027501797
-0.027987591
-0.028443453
-0.02882791
-0.029085912
-0.029146872
-0.028923751
-0.028314021
-0.027203663
-0.025476709
-0.023026151
-0.019775493
-0.015702287
-0.010865785
-0.0054334185
0.00030113259
0.0059183277
0.010901854
0.014701582
0.016835054
0.017039341
0.015348505
0.011611335
0.0054740869
-0.022721966
-0.024591437
-0.025760687
-0.02650057
-0.027005958
-0.027335937
-0.027553334
-0.027720065
-0.027884188
-0.028080284
-0.02833202
-0.028654393
-0.029055684
-0.029538856
-0.030102173
-0.030739003
-0.031436804
-0.032175333
-0.032924161
-0.033639636
-0.034261591
-0.034710277
-0.03488425
-0.034660155
-0.033895715
-0.032437996
-0.030136282
-0.026863557
-0.022544814
-0.017191416
-0.010938068
-0.0040750158
0.0029364487
0.0094798627
0.014843669
0.018341148
0.019513068
0.01826278
0.014331225
0.0072956425
-0.026215089
-0.028286328
-0.029537836
-0.030276271
-0.030730191
-0.0309779
-0.031100739
-0.031176473
-0.031264741
-0.031408064
-0.031635475
-0.031965727
-0.032409982
-0.032973711
-0.033657554
-0.034457175
-0.035362081
-0.036353482
-0.037401283
-0.038460334
-0.039466216
-0.040331071
-0.040940238
-0.041150785
-0.040793273
-0.039677374
-0.037607968
-0.034403346
-0.029927838
-0.024131295
-0.017095773
-0.009082869
-0.00056953777
0.0077457133
0.014987412
0.020230495
0.022754024
0.022250325
0.018276795
0.01030502
-0.030115317
-0.032443003
-0.033780223
-0.034484679
-0.03483444
-0.034936712
-0.034898862
-0.03481963
-0.034773021
-0.034810644
-0.034967091
-0.03526456
-0.035716593
-0.036330631
-0.03710921
-0.03804989
-0.039143942
-0.040373879
-0.041709941
-0.043105685
-0.044492934
-0.045776575
-0.046830021
-0.047492381
-0.047568757
-0.046834925
-0.045051934
-0.041983108
-0.037428697
-0.031267887
-0.023513018
-0.014370855
-0.0043006283
0.0059499362
0.015358617
0.022744666
0.027063074
0.027696728
0.0239076
0.014994521
-0.034508526
-0.037168366
-0.038587915
-0.039202374
-0.03936579
-0.039229507
-0.038937488
-0.038615865
-0.038355892
-0.038218925
-0.038244577
-0.038457418
-0.038872126
-0.039496885
-0.040334989
-0.041384855
-0.042638584
-0.044079174
-0.045676526
-0.047382445
-0.049124845
-0.050801699
-0.052275454
-0.053368902
-0.053864296
-0.053506552
-0.05201782
-0.049108936
-0.044517595
-0.038049283
-0.029635715
-0.019406556
-0.0077679887
0.0045272812
0.016349051
0.026269119
0.032871883
0.035123233
0.031836354
0.022021471
-0.039526191
-0.042621555
-0.044103407
-0.044531783
-0.044381282
-0.043870818
-0.043195129
-0.042515053
-0.041941353
-0.041544548
-0.04136741
-0.041434589
-0.041759588
-0.042349165
-0.043205399
-0.044325754
-0.045701473
-0.047314465
-0.049132859
-0.051105462
-0.053155366
-0.055173215
-0.057010839
-0.058475678
-0.059330052
-0.059292999
-0.058046593
-0.055261236
-0.050616064
-0.043845366
-0.03479715
-0.02350979
-0.0103058
0.0041057123
0.018543573
0.031370671
0.040783304
0.045228445
0.042876323
0.032260794
-0.045377679
-0.049044709
-0.050531134
-0.0506084
-0.049946501
-0.048866478
-0.047631195
-0.046442988
-0.045432211
-0.044675453
-0.044214519
-0.044069976
-0.044250337
-0.044757565
-0.045589531
-0.046740062
-0.048197065
-0.049939033
-0.051930146
-0.054114224
-0.056407807
-0.058692931
-0.060811067
-0.062553316
-0.063663903
-0.063837524
-0.062727321
-0.059963144
-0.055174314
-0.048031427
-0.038302475
-0.025929848
-0.011131554
0.0054712892
0.022713465
0.038816159
0.051608235
0.058937884
0.058105655
0.04688567
-0.052411159
-0.056813861
-0.058164671
-0.057606727
-0.056128831
-0.0542013
-0.052172622
-0.05028944
-0.048696742
-0.047469538
-0.046640914
-0.046220469
-0.046205895
-0.046589475
-0.047360736
-0.048506274
-0.050007448
-0.051836364
-0.053950499
-0.056286132
-0.058750829
-0.06121547
-0.063514358
-0.065414914
-0.066647794
-0.06688473
-0.065753725
-0.062848148
-0.057753509
-0.05008554
-0.039538896
-0.025961943
-0.009457571
0.0094756587
0.029755862
0.0495514
0.066384874
0.077458227
0.078956487
0.067503469
-0.06123377
-0.066523657
-0.067422164
-0.065740053
-0.062979767
-0.059815931
-0.056691675
-0.053889799
-0.05155511
-0.049745768
-0.048472965
-0.047724672
-0.047479362
-0.047713016
-0.048401491
-0.049519757
-0.051038882
-0.052921226
-0.055114583
-0.057545018
-0.060109105
-0.062665933
-0.065030298
-0.066962177
-0.068169129
-0.06830198
-0.066961638
-0.063711243
-0.058097511
-0.049683335
-0.038095175
-0.023089726
-0.0046486467
0.016878736
0.040559101
0.064611396
0.086353034
0.10232452
0.1073435
0.096408313
-0.072961723
-0.079126779
-0.078881923
-0.075239971
-0.070494313
-0.065564188
-0.060969115
-0.056996741
-0.053759571
-0.051271848
-0.04950206
-0.048401004
-0.047916575
-0.048000096
-0.048607436
-0.049697122
-0.051225985
-0.053143483
-0.055384909
-0.057863689
-0.060463181
-0.063028307
-0.065357613
-0.06719594
-0.068231297
-0.068093261
-0.066356928
-0.062553951
-0.056191761
-0.046780718
-0.033876523
-0.017138655
0.0035845205
0.028122947
0.055766341
0.084909589
0.11281779
0.13539762
0.14585671
0.1370747
-0.08976397
-0.096154531
-0.093275607
-0.086269015
-0.078511776
-0.071125149
-0.064624751
-0.059229783
-0.05496076
-0.051743701
-0.049473783
-0.048043376
-0.047355745
-0.047327974
-0.047889594
-0.048978162
-0.050533107
-0.052488586
-0.054765603
-0.057263587
-0.059851674
-0.062360016
-0.064571545
-0.066214799
-0.066959344
-0.0664142
-0.064129127
-0.059603464
-0.052302738
-0.041678943
-0.027205896
-0.0084270236
0.014974363
0.043058981
0.075418859
0.1108439
0.14679117
0.17870308
0.19798951
0.19496938
-0.11599836
-0.12004184
-0.11136397
-0.098702662
-0.086511439
-0.075838817
-0.066998112
-0.05999642
-0.054661148
-0.050762218
-0.048079468
-0.046421769
-0.045632417
-0.045585806
-0.046180484
-0.04733069
-0.048957375
-0.05097906
-0.053302619
-0.055814015
-0.058369063
-0.060784431
-0.06282918
-0.064217325
-0.064602442
-0.063575598
-0.060661979
-0.055331446
-0.04700436
-0.035066739
-0.018893962
0.0021180778
0.028505338
0.060650773
0.098610287
0.14179412
0.18841271
0.23397062
0.26812107
0.27829751
-0.16044079
-0.15440972
-0.1337119
-0.1119093
-0.093426638
-0.07858364
-0.067100916
-0.058505042
-0.052264667
-0.047902366
-0.045032342
-0.043355826
-0.042646325
-0.042732845
-0.043483743
-0.044792265
-0.046563742
-0.048704067
-0.051109035
-0.053654262
-0.056185522
-0.058509543
-0.060385431
-0.061517037
-0.06154722
-0.060055189
-0.056540101
-0.05045463
-0.041173729
-0.02801456
-0.010241215
0.012931528
0.042329909
0.078793715
0.12308742
0.17571936
0.2363998
0.3016829
0.36080387
0.39934755
-0.2429775
-0.20279668
-0.15915886
-0.12379775
-0.097059054
-0.077494859
-0.063563771
-0.053844471
-0.047213906
-0.042856925
-0.040195195
-0.03882019
-0.038443754
-0.038860637
-0.039919944
-0.041503576
-0.043509511
-0.045838163
-0.048380634
-0.051008108
-0.053562037
-0.055844948
-0.057611915
-0.058563011
-0.058338014
-0.056514631
-0.052567239
-0.045949155
-0.035998686
-0.021976327
-0.0030429261
0.021773047
0.05363017
0.093957291
0.14455266
0.20771039
0.28591171
0.37854679
0.47946688
0.58600815
-0.42213422
-0.26202287
-0.17408873
-0.12283183
-0.089045358
-0.066816836
-0.052583276
-0.04355092
-0.037905544
-0.03456
-0.032836713
-0.032293943
-0.032638847
-0.033673453
-0.035257708
-0.037284224
-0.039660333
-0.042294257
-0.045083573
-0.047905
-0.050605019
-0.052991079
-0.054823348
-0.055806886
-0.055583503
-0.05371774
-0.049767581
-0.043108906
-0.033090231
-0.0189564
0.00018412187
0.025414153
0.058124026
0.10023707
0.15463032
0.22590961
0.3211971
0.44871251
0.62573316
0.90342775
-0.78943212
-0.32029849
-0.14540211
-0.085485896
-0.054933333
-0.037514357
-0.028329941
-0.023743837
-0.021654192
-0.021067072
-0.021482275
-0.022611127
-0.024277442
-0.026369989
-0.028812638
-0.031545362
-0.034511353
-0.03764696
-0.040872826
-0.044085563
-0.047149717
-0.049889907
-0.052083288
-0.053452756
-0.053662403
-0.052319527
-0.048927641
-0.042939489
-0.033722777
-0.020543675
-0.0025401571
0.021333633
0.052428131
0.092663877
0.14515276
0.21578931
0.31723658
0.47703922
0.77278784
1.3664414
-1.1026781e-05
-0.00012087085
-0.00031409613
-0.00053738867
-0.00074535164
-0.00090938875
-0.0010115755
-0.0010418102
-0.00099518629
-0.0008701239
-0.00066713093
-0.00038802524
-3.5474471e-05
0.00038720635
0.00087608673
0.0014265467
0.0020331135
0.0026892694
0.0033872669
0.0041179642
0.0048707259
0.0056334233
0.0063925272
0.0071333512
0.0078404163
0.0084979654
0.0090906132
0.0096040923
0.010026078
0.010347024
0.010560979
0.010666352
0.010666576
0.010570679
0.010393859
0.010158254
0.0098935836
0.0096357304
0.0094375393
0.0093477973
9.7385132e-05
-1.3579438e-05
-0.00016398748
-0.00032758053
-0.00047695551
-0.00059040348
-0.00065322284
-0.0006561535
-0.00059382623
-0.00046366365
-0.00026505057
1.2504536e-06
0.00033346706
0.00072900749
0.0011845078
0.0016958016
0.0022578168
0.0028644429
0.0035084066
0.0041811703
0.0048728792
0.0055724103
0.0062674777
0.0069448783
0.0075908493
0.0081915401
0.0087335976
0.0092048326
0.0095949372
0.0098962095
0.010104247
0.010218567
0.010243111
0.010186603
0.010062782
0.0098905137
0.0096937658
0.0095011779
0.0093459552
0.0092578691
0.00029078317
0.00013372461
-1.9097396e-05
-0.00016349117
-0.00028784469
-0.00037636996
-0.00041781877
-0.00040491646
-0.00033310984
-0.00019993761
-4.5339559e-06
0.00025277095
0.00057070077
0.00094716044
0.0013792687
0.0018633207
0.0023946911
0.0029677232
0.00357563
0.0042104186
0.0048628471
0.0055225009
0.0061778664
0.0068166213
0.0074259501
0.0079930058
0.008505457
0.0089521177
0.0093236272
0.0096131151
0.0098168208
0.0099346279
0.0099704494
0.0099324209
0.0098328566
0.0096879854
0.009517758
0.0093450432
0.0091892124
0.0090616873
0.00052020049
0.00029557584
0.00011682005
-3.0987616e-05
-0.00014986831
-0.00022888596
-0.00026017549
-0.00023893106
-0.00016204459
-2.7761785e-05
0.00016455036
0.00041462644
0.00072145059
0.0010833043
0.0014977439
0.0019615308
0.0024705253
0.0030195713
0.0036023856
0.0042114799
0.0048381291
0.0054724231
0.0061033443
0.0067190549
0.0073071918
0.0078553176
0.0083514682
0.0087847763
0.0091461335
0.0094288413
0.0096292109
0.0097470437
0.0097859233
0.0097532805
0.009660148
0.0095206508
0.0093519272
0.0091729799
0.0089920664
0.0088044579
0.00074130697
0.0004445195
0.00023103817
6.9588299e-05
-5.3509979e-05
-0.0001312592
-0.00015886167
-0.00013397522
-5.5085099e-05
7.8646765e-05
0.00026741773
0.00051087477
0.00080815341
0.0011578491
0.0015579374
0.0020056618
0.0024973956
0.0030285053
0.0035932243
0.0041845485
0.0047941952
0.0054126345
0.0060291695
0.0066321739
0.0072094085
0.0077484668
0.0082373175
0.0086649454
0.009022039
0.0093016541
0.00949981
0.0096159505
0.0096531914
0.0096182978
0.0095212719
0.0093746684
0.0091937515
0.0089951316
0.0087782656
0.0085255024
0.0009241062
0.00055643541
0.00030452026
0.00012331689
-1.0524832e-05
-9.304967e-05
-0.00012205786
-9.7455395e-05
-1.9272974e-05
0.00011237215
0.00029716403
0.00053458385
0.00082385942
0.0011638655
0.0015529842
0.0019889432
0.0024686448
0.0029879876
0.003541712
0.004123271
0.0047247552
0.0053368879
0.0059491097
0.00654977
0.0071264455
0.0076663938
0.0081571161
0.008587027
0.0089461808
0.0092269831
0.0094248302
0.0095385852
0.0095708127
0.0095277108
0.0094185889
0.0092550748
0.0090515524
0.0088236731
0.0085645895
0.0082467049
0.0010467216
0.00061201234
0.00032076045
0.00011641011
-3.2352363e-05
-0.0001238707
-0.00015807175
-0.00013681554
-6.1531632e-05
6.6759606e-05
0.00024723944
0.00047921056
0.00076197987
0.0010946902
0.0014761317
0.0019045272
0.0023773198
0.0028909513
0.0034406638
0.0040203366
0.0046223757
0.005237653
0.0058555773
0.0064642525
0.0070507972
0.0076017988
0.0081039014
0.0085445312
0.0089126915
0.0091997501
0.0094001516
0.0095119525
0.0095370943
0.0094813372
0.009353669
0.00916545
0.0089311393
0.0086667392
0.0083613661
0.0079801513
0.0010929604
0.0005956209
0.00026565935
3.6673221e-05
-0.00012935476
-0.00023251875
-0.00027447779
-0.00025875578
-0.00018799802
-6.4017583e-05
0.00011193057
0.00033900381
0.00061660868
0.00094417861
0.0013209344
0.0017456165
0.0022162297
0.0027297831
0.0032820366
0.0038672835
0.0044781982
0.0051057291
0.005739128
0.0063660671
0.0069729514
0.0075453829
0.0080687849
0.0085291882
0.0089141149
0.0092134802
0.0094204246
0.0095319562
0.0095493085
0.0094779131
0.0093267828
0.0091076311
0.0088358651
0.0085289743
0.0081738157
0.0077302278
0.001050191
0.00049413922
0.00012663677
-0.00012743685
-0.00031194223
-0.00042834877
-0.00047975092
-0.00047108722
-0.00040603559
-0.00028707553
-0.00011581547
0.00010682585
0.00038040507
0.00070468511
0.0010793566
0.001503725
0.0019764052
0.0024950115
0.0030558544
0.0036536667
0.0042813912
0.004930014
0.0055885374
0.006244055
0.0068820439
0.0074868289
0.0080422434
0.0085324917
0.0089431491
0.0092622161
0.0094811168
0.0095955015
0.0096057421
0.0095169951
0.0093385978
0.0090831764
0.0087678761
0.0084126756
0.0080034349
0.0074959126
0.0009079139
0.00029615247
-0.00010774236
-0.00038689808
-0.00059047617
-0.00072108975
-0.00078305281
-0.00078253028
-0.00072408401
-0.00061073791
-0.00044435973
-0.00022587226
4.4494534e-05
0.00036689773
0.00074156104
0.001168417
0.0016467582
0.0021748792
0.0027497155
0.0033665039
0.0040185013
0.0046967462
0.0053899613
0.0060845664
0.006764932
0.0074138302
0.0080131304
0.0085447476
0.0089917831
0.0093397698
0.0095778912
0.0097000095
0.0097053696
0.0095988116
0.0093902183
0.0090936098
0.008728596
0.0083185638
0.0078491851
0.0072726496
0.00065683095
-8.6600052e-06
-0.00044809075
-0.0007522153
-0.00097518701
-0.0011206382
-0.0011939733
-0.0012024516
-0.0011514047
-0.0010443098
-0.00088320887
-0.00066895122
-0.00040147919
-8.0169076e-05
0.00029581319
0.00072711508
0.001213807
0.001754975
0.002348298
0.0029896387
0.0036726813
0.0043886071
0.0051259052
0.005870295
0.0066049165
0.007310746
0.0079673149
0.0085537439
0.009050043
0.0094385923
0.0097056462
0.0098426718
0.0098473483
0.0097240076
0.009483177
0.0091406591
0.008719215
0.0082465315
0.0077085262
0.0070536957
0.00028824092
-0.00042999305
-0.00090452538
-0.0012335983
-0.0014762449
-0.0016370614
-0.0017224818
-0.0017407925
-0.0016980278
-0.0015980503
-0.0014430074
-0.0012336075
-0.00096943284
-0.00064931344
-0.00027171281
0.00016484187
0.00066132987
0.0012177809
0.0018327926
0.0025030479
0.0032228587
0.003983736
0.004774084
0.0055789943
0.0063803399
0.0071571184
0.0078861643
0.0085432567
0.0091045914
0.009548539
0.0098575123
0.01001972
0.010030578
0.0098934911
0.0096195484
0.0092266129
0.0087412609
0.0081964058
0.0075783412
0.0068311488
-0.00020637795
-0.00097726934
-0.0014869369
-0.001841153
-0.0021038591
-0.0022806286
-0.0023789252
-0.0024080489
-0.0023747138
-0.0022831311
-0.0021355133
-0.0019323747
-0.0016728739
-0.0013552136
-0.0009770541
-0.00053597014
-2.9913457e-05
0.00054228853
0.0011803924
0.0018821809
0.0026428988
0.0034546954
0.0043061809
0.005182033
0.0060629573
0.0069258939
0.0077446756
0.0084911733
0.0091369349
0.0096552573
0.010023503
0.010225404
0.010253048
0.010108146
0.0098020052
0.0093546728
0.0087971843
0.0081687162
0.0074558095
0.0065968403
-0.00083563345
-0.0016598998
-0.0022051968
-0.0025850245
-0.0028683705
-0.0030618531
-0.0031740193
-0.0032152227
-0.0031928783
-0.0031115501
-0.0029735041
-0.0027790317
-0.002526819
-0.0022143703
-0.0018384425
-0.0013955198
-0.00088229945
-0.00029622246
0.00036393414
0.0010974256
0.0019008554
0.0027674695
0.0036865852
0.0046428538
0.0056161184
0.0065813642
0.0075092385
0.0083671675
0.0091211271
0.0097380447
0.010188658
0.010450529
0.010510824
0.010368301
0.010033741
0.0095292583
0.0088909629
0.0081654953
0.0073393016
0.0063432214
-0.0016083958
-0.0024874642
-0.0030693255
-0.003475525
-0.0037803301
-0.0039915184
-0.0041188254
-0.0041737508
-0.00416448
-0.00409598
-0.0039705942
-0.0037883931
-0.0035475696
-0.0032448786
-0.002876085
-0.0024364461
-0.0019212043
-0.0013261367
-0.00064818521
0.00011384457
0.00095847798
0.0018806906
0.0028712849
0.0039154939
0.0049929051
0.0060769345
0.0071350896
0.0081299388
0.0090209292
0.0097671005
0.01033056
0.010680403
0.010796559
0.010672849
0.010318181
0.0097562276
0.0090287121
0.0081911337
0.0072293548
0.0060643282
-0.0025339112
-0.0034698504
-0.0040896254
-0.0045232395
-0.0048505604
-0.0050806829
-0.0052246911
-0.0052953817
-0.0053018343
-0.0052495171
-0.0051409206
-0.0049759392
-0.0047522894
-0.0044659597
-0.0041116646
-0.0036833161
-0.0031745073
-0.0025790576
-0.0018916597
-0.0011086254
-0.00022877312
0.00074555841
0.0018072114
0.0029434498
0.0041344969
0.0053529732
0.0065636702
0.0077241607
0.0087864998
0.0097001609
0.010416163
0.010892086
0.01109736