/*--------------------------------*- C++ -*----------------------------------*\
  =========                 |
  \\      /  F ield         | OpenFOAM: The Open Source CFD Toolbox
   \\    /   O peration     | Website:  https://openfoam.org
    \\  /    A nd           | Version:  7
     \\/     M anipulation  |
\*---------------------------------------------------------------------------*/
FoamFile
{
    version     2.0;
    format      ascii;
    class       surfaceScalarField;
    location    "2";
    object      phi;
}
// * * * * * * * * * * * * * * * * * * * * * * * * * * * * * * * * * * * * * //

dimensions      [0 3 -1 0 0 0 0];

internalField   nonuniform List<scalar> 
45600
(
1.5169341e-07
-1.5202488e-07
2.4192943e-10
1.3259335e-07
1.8938741e-08
1.6603753e-10
-1.6257823e-07
2.9506977e-07
9.4591119e-11
-7.3225001e-07
5.6961953e-07
5.4001682e-11
-1.5339137e-06
8.0164007e-07
3.3549183e-11
-2.5147517e-06
9.8082201e-07
2.2923433e-11
-3.6235103e-06
1.1087419e-06
1.7289383e-11
-4.8147627e-06
1.191234e-06
1.4234542e-11
-6.049717e-06
1.2349406e-06
1.2555744e-11
-7.2956948e-06
1.2459665e-06
1.1516619e-11
-8.5251093e-06
1.2294046e-06
1.0779412e-11
-9.714328e-06
1.18921e-06
1.0208354e-11
-1.0842588e-05
1.128252e-06
9.5803975e-12
-1.1891061e-05
1.0484644e-06
8.8871733e-12
-1.2842123e-05
9.5105407e-07
8.1381925e-12
-1.3678869e-05
8.367388e-07
7.2430924e-12
-1.438487e-05
7.0599579e-07
6.272611e-12
-1.4944191e-05
5.593166e-07
5.2222537e-12
-1.5341655e-05
3.9745962e-07
3.9639682e-12
-1.5563329e-05
2.2167317e-07
2.683307e-12
-1.5597232e-05
3.3901465e-08
1.2942562e-12
-1.5434168e-05
-1.6306235e-07
-1.2555152e-13
-1.5068713e-05
-3.6545357e-07
-1.6191784e-12
-1.4500206e-05
-5.685039e-07
-3.123154e-12
-1.3733714e-05
-7.6648407e-07
-4.5289573e-12
-1.2780882e-05
-9.5282701e-07
-5.8772542e-12
-1.1660528e-05
-1.1203469e-06
-7.0263248e-12
-1.0398966e-05
-1.2615524e-06
-7.9540678e-12
-9.0299398e-06
-1.3690203e-06
-8.7277333e-12
-7.594119e-06
-1.4358141e-06
-9.1936233e-12
-6.1381903e-06
-1.4559192e-06
-9.2069017e-12
-4.7135342e-06
-1.4246468e-06
-8.7869687e-12
-3.3745333e-06
-1.3389919e-06
-7.9471296e-12
-2.1765541e-06
-1.1979693e-06
-6.67962e-12
-1.1734966e-06
-1.0030495e-06
-4.9930755e-12
-4.1432438e-07
-7.5916851e-07
-2.82998e-12
6.3560722e-08
-4.778855e-07
-3.7773012e-13
2.4885026e-07
-1.8529199e-07
1.3035716e-12
1.7290614e-07
7.5938914e-08
4.0980287e-12
1.7290081e-07
3.002186e-12
-1.58495e-08
-1.3633481e-07
1.6435855e-10
-4.8146429e-07
4.8439616e-07
1.7002332e-10
-1.5545468e-06
1.3680854e-06
7.4889127e-11
-3.2256812e-06
2.2407038e-06
3.8675744e-11
-5.4218455e-06
2.9977807e-06
1.7915921e-11
-8.0414772e-06
3.6004514e-06
5.9080634e-12
-1.0975706e-05
4.0429799e-06
-1.1333268e-12
-1.4120146e-05
4.3356886e-06
-5.2318369e-12
-1.7380016e-05
4.4948266e-06
-7.5442291e-12
-2.06715e-05
4.5374649e-06
-8.7513401e-12
-2.3921161e-05
4.4790764e-06
-9.2622126e-12
-2.7064422e-05
4.3324814e-06
-9.2305803e-12
-3.0043748e-05
4.1075857e-06
-8.9114454e-12
-3.2806877e-05
3.8116016e-06
-8.3252481e-12
-3.5305367e-05
3.4495539e-06
-7.4181067e-12
-3.7493584e-05
3.0249643e-06
-6.394389e-12
-3.9328216e-05
2.5406337e-06
-5.2785079e-12
-4.0768345e-05
1.9994519e-06
-3.9036439e-12
-4.1776092e-05
1.4052068e-06
-2.4710365e-12
-4.2317752e-05
7.6333564e-07
-8.3849595e-13
-4.236544e-05
8.1585702e-08
8.733775e-13
-4.1899006e-05
-6.2949975e-07
2.6913761e-12
-4.0908277e-05
-1.356187e-06
4.5542262e-12
-3.9395305e-05
-2.081485e-06
6.4063782e-12
-3.7376492e-05
-2.7853045e-06
8.260413e-12
-3.4884417e-05
-3.4449119e-06
9.9990408e-12
-3.1969091e-05
-4.0356863e-06
1.1579092e-11
-2.8698495e-05
-4.5321626e-06
1.2924415e-11
-2.5158208e-05
-4.9093218e-06
1.3913961e-11
-2.145e-05
-5.1440373e-06
1.4521788e-11
-1.7689346e-05
-5.2165899e-06
1.4735391e-11
-1.4001824e-05
-5.1121849e-06
1.4520868e-11
-1.0518392e-05
-4.8224391e-06
1.3872177e-11
-7.3694333e-06
-4.3469421e-06
1.2759288e-11
-4.6772007e-06
-3.6952965e-06
1.1182253e-11
-2.5455988e-06
-2.8907838e-06
9.3076446e-12
-1.0455603e-06
-1.9779335e-06
7.3162784e-12
-1.9569015e-07
-1.0351681e-06
5.3167704e-12
7.969031e-08
-1.9944708e-07
3.7573701e-12
2.5258723e-07
2.5138257e-12
-2.9339793e-07
1.5696797e-07
8.8936645e-11
-1.3797299e-06
1.5706581e-06
7.9624379e-11
-3.3242007e-06
3.312522e-06
5.0955409e-11
-6.0891957e-06
5.0056723e-06
3.0842136e-11
-9.5740664e-06
6.4826307e-06
1.8700779e-11
-1.3645015e-05
7.6713847e-06
1.1190568e-11
-1.8156547e-05
8.5545059e-06
6.7488387e-12
-2.2965094e-05
9.1442345e-06
4.1624327e-12
-2.7936358e-05
9.4660898e-06
2.6561896e-12
-3.2948352e-05
9.5494606e-06
1.8624558e-12
-3.7891776e-05
9.4225014e-06
1.3604345e-12
-4.2668871e-05
9.1095745e-06
1.0311245e-12
-4.7191576e-05
8.6302899e-06
8.6645716e-13
-5.1379574e-05
7.9995982e-06
7.9338421e-13
-5.5158573e-05
7.2285536e-06
8.0577365e-13
-5.8459106e-05
6.3254989e-06
8.1956155e-13
-6.1215979e-05
5.2975061e-06
7.6050408e-13
-6.3368443e-05
4.1519185e-06
8.5005277e-13
-6.4861135e-05
2.8978967e-06
8.9830033e-13
-6.5645685e-05
1.5478838e-06
9.1828312e-13
-6.5683008e-05
1.1890994e-07
9.713011e-13
-6.4945901e-05
-1.3666081e-06
1.0751199e-12
-6.3422238e-05
-2.8798531e-06
1.149506e-12
-6.1117926e-05
-4.3857955e-06
1.2598735e-12
-5.8059847e-05
-5.8433848e-06
1.3538886e-12
-5.4298254e-05
-7.2065097e-06
1.4046472e-12
-4.99084e-05
-8.4255417e-06
1.5424121e-12
-4.4991118e-05
-9.4494455e-06
1.6956868e-12
-3.967208e-05
-1.0228364e-05
1.7769496e-12
-3.4099561e-05
-1.0716559e-05
1.8875785e-12
-2.8440598e-05
-1.0875549e-05
2.0607177e-12
-2.2875474e-05
-1.0677307e-05
2.223628e-12
-1.7590459e-05
-1.0107456e-05
2.3833042e-12
-1.2768753e-05
-9.1686503e-06
2.5657999e-12
-8.5793463e-06
-7.8847053e-06
2.7144657e-12
-5.1632293e-06
-6.3069051e-06
2.905971e-12
-2.6163024e-06
-4.5248659e-06
3.4116309e-12
-9.6829998e-07
-2.6831768e-06
3.5428426e-12
-1.5813498e-07
-1.0096156e-06
2.2389518e-12
9.444656e-08
4.9446543e-12
-5.8445203e-07
7.41378e-07
4.433439e-11
-2.319335e-06
3.3054855e-06
4.7767243e-11
-5.155153e-06
6.1483188e-06
3.1260252e-11
-8.9933497e-06
8.843859e-06
2.0538141e-11
-1.3693736e-05
1.1183007e-05
1.4199639e-11
-1.9091242e-05
1.3068885e-05
9.5993554e-12
-2.5011403e-05
1.4474663e-05
6.6093455e-12
-3.1281853e-05
1.5414682e-05
4.8390582e-12
-3.7739489e-05
1.5923723e-05
3.7725948e-12
-4.4234002e-05
1.6043971e-05
3.1614112e-12
-5.0628785e-05
1.5817283e-05
2.7684344e-12
-5.6800172e-05
1.5280958e-05
2.4636005e-12
-6.2635782e-05
1.44659e-05
2.2816027e-12
-6.803262e-05
1.3396435e-05
2.1205571e-12
-7.2895336e-05
1.2091268e-05
1.9572236e-12
-7.7135005e-05
1.0565169e-05
1.8542389e-12
-8.0668622e-05
8.8311208e-06
1.6549104e-12
-8.3419397e-05
6.9026906e-06
1.4764868e-12
-8.5317925e-05
4.7964258e-06
1.3527579e-12
-8.6304185e-05
2.5341401e-06
1.1622123e-12
-8.6330259e-05
1.4498003e-07
9.3173311e-13
-8.5363509e-05
-2.3333557e-06
8.2332546e-13
-8.3390383e-05
-4.8529806e-06
6.4768108e-13
-8.0419973e-05
-7.3562083e-06
4.4758246e-13
-7.6487521e-05
-9.7758353e-06
2.508e-13
-7.1657287e-05
-1.2036742e-05
7.4087441e-14
-6.6024444e-05
-1.4058386e-05
-1.8837348e-14
-5.9715674e-05
-1.5758217e-05
-1.1199698e-13
-5.2888127e-05
-1.7055912e-05
-1.96578e-13
-4.5726495e-05
-1.7878189e-05
-1.3744695e-13
-3.8438056e-05
-1.8163988e-05
3.6238487e-14
-3.124559e-05
-1.7869777e-05
2.2991125e-13
-2.4378175e-05
-1.6974874e-05
5.221653e-13
-1.8059946e-05
-1.5486878e-05
9.9159091e-13
-1.2496869e-05
-1.3447783e-05
1.4917981e-12
-7.8616803e-06
-1.0942099e-05
2.0808344e-12
-4.2774923e-06
-8.1090583e-06
3.2715386e-12
-1.8013299e-06
-5.1593424e-06
3.4328142e-12
-4.1017519e-07
-2.4007727e-06
3.9003074e-13
-3.157364e-07
6.5728973e-12
-8.5393392e-07
1.5953026e-06
2.0059615e-11
-3.2154759e-06
5.6669912e-06
3.0914608e-11
-6.9181988e-06
9.8510233e-06
1.7994796e-11
-1.1788924e-05
1.3714577e-05
1.1636255e-11
-1.763844e-05
1.7032518e-05
8.6516457e-12
-2.4266895e-05
1.9697338e-05
5.7738254e-12
-3.1472272e-05
2.1680039e-05
3.6074571e-12
-3.9058016e-05
2.3000426e-05
2.3073773e-12
-4.6838437e-05
2.3704143e-05
1.4975149e-12
-5.4641602e-05
2.3847134e-05
9.9652662e-13
-6.2310124e-05
2.3485804e-05
6.9049348e-13
-6.9700454e-05
2.2671286e-05
5.1861156e-13
-7.6681302e-05
2.1446749e-05
4.780429e-13
-8.3131781e-05
1.9846917e-05
4.8475778e-13
-8.8939699e-05
1.7899186e-05
4.5062736e-13
-9.4000358e-05
1.5625828e-05
4.8495808e-13
-9.8216098e-05
1.3046864e-05
5.5667638e-13
-0.00010149673
1.0183323e-05
5.7391582e-13
-0.0001037609
7.0605853e-06
6.4762661e-13
-0.00010493832
3.7115654e-06
8.0230498e-13
-0.00010497295
1.796058e-07
9.0080821e-13
-0.00010382662
-3.4796899e-06
1.0138459e-12
-0.00010148329
-7.1963129e-06
1.1200611e-12
-9.7953252e-05
-1.0886243e-05
1.2796364e-12
-9.3277172e-05
-1.4451919e-05
1.3528098e-12
-8.7529411e-05
-1.7784508e-05
1.3799231e-12
-8.0820294e-05
-2.0767502e-05
1.5346488e-12
-7.3296849e-05
-2.3281662e-05
1.7222665e-12
-6.5141613e-05
-2.521115e-05
1.8501073e-12
-5.6569226e-05
-2.6450579e-05
1.9952233e-12
-4.78206e-05
-2.6912617e-05
2.1683152e-12
-3.91546e-05
-2.653578e-05
2.3230102e-12
-3.0837355e-05
-2.5292122e-05
2.5197205e-12
-2.3129463e-05
-2.3194774e-05
2.7826828e-12
-1.627159e-05
-2.0305661e-05
2.9416471e-12
-1.0469262e-05
-1.6744431e-05
3.2252644e-12
-5.8782712e-06
-1.2700052e-05
4.4322173e-12
-2.5929641e-06
-8.4446535e-06
3.8894533e-12
-6.4149032e-07
-4.352248e-06
-1.4895556e-12
-9.5723629e-07
8.3343242e-12
-1.0944628e-06
2.6897696e-06
6.4036761e-12
-4.0398785e-06
8.6123914e-06
2.2752182e-11
-8.5629983e-06
1.4374133e-05
1.0329753e-11
-1.4413688e-05
1.9565262e-05
6.1242979e-12
-2.1348775e-05
2.3967604e-05
5.2971283e-12
-2.9130145e-05
2.7478707e-05
3.6328491e-12
-3.7527334e-05
3.0077226e-05
2.1999105e-12
-4.6321135e-05
3.179423e-05
1.3645121e-12
-5.530655e-05
3.2689558e-05
7.8214312e-13
-6.4294302e-05
3.2834885e-05
3.9645179e-13
-7.3110917e-05
3.2302419e-05
1.7970132e-13
-8.1597651e-05
3.1158023e-05
1.2077412e-13
-8.960874e-05
2.9457838e-05
1.0428588e-13
-9.7009418e-05
2.7247596e-05
1.102647e-13
-0.00010367416
2.4563927e-05
1.6591017e-13
-0.00010948543
2.14371e-05
2.1457773e-13
-0.00011433326
1.789469e-05
2.9837464e-13
-0.0001181157
1.3965766e-05
4.2508184e-13
-0.00012074036
9.6852463e-06
5.7194306e-13
-0.0001221269
5.0981035e-06
7.3887271e-13
-0.00012221046
2.631607e-07
9.2924322e-13
-0.00012094583
-4.7443133e-06
1.1303611e-12
-0.00011831221
-9.8299394e-06
1.2550312e-12
-0.00011431802
-1.4880434e-05
1.4170798e-12
-0.00010900564
-1.9764299e-05
1.5254093e-12
-0.00010245539
-2.4334764e-05
1.6027649e-12
-9.4788343e-05
-2.8434555e-05
1.7541139e-12
-8.6167457e-05
-3.1902552e-05
1.9179413e-12
-7.6796513e-05
-3.4582097e-05
2.0829562e-12
-6.6916467e-05
-3.6330625e-05
2.2946954e-12
-5.6799008e-05
-3.703008e-05
2.4879281e-12
-4.673723e-05
-3.6597564e-05
2.6268803e-12
-3.7033682e-05
-3.4995674e-05
2.8216962e-12
-2.7986285e-05
-3.2242173e-05
3.08129e-12
-1.9872973e-05
-2.8418975e-05
3.1716976e-12
-1.2936384e-05
-2.3681023e-05
3.4345174e-12
-7.3705695e-06
-1.8265872e-05
4.8696408e-12
-3.3123662e-06
-1.2502862e-05
3.9676919e-12
-8.4156543e-07
-6.8230477e-06
-3.2397352e-12
-1.798813e-06
9.9331731e-12
-1.3082316e-06
3.9980052e-06
-1.7662476e-12
-4.7906461e-06
1.2094792e-05
1.8929245e-11
-1.0081263e-05
1.9664748e-05
5.8848353e-12
-1.6856424e-05
2.6340423e-05
2.6436775e-12
-2.4817946e-05
3.1929126e-05
3.1793397e-12
-3.3687441e-05
3.6348202e-05
2.306492e-12
-4.3204834e-05
3.9594621e-05
1.3395524e-12
-5.3128553e-05
4.171795e-05
7.8156905e-13
-6.3235942e-05
4.2796948e-05
4.0943615e-13
-7.3323072e-05
4.2922019e-05
1.8939614e-13
-8.3203693e-05
4.218304e-05
5.7390059e-14
-9.2707428e-05
4.0661758e-05
3.2632546e-14
-0.00010167755
3.8427959e-05
6.8904797e-14
-0.00010996867
3.5538719e-05
3.9220775e-14
-0.00011744475
3.2040013e-05
9.9493594e-14
-0.0001239777
2.7970051e-05
2.2602295e-13
-0.00012944682
2.3363802e-05
2.9990437e-13
-0.00013373925
1.8258197e-05
4.0164165e-13
-0.00013675159
1.2697586e-05
6.2579231e-13
-0.00013839255
6.7390631e-06
8.3632408e-13
-0.00013858672
4.5732399e-07
1.0010531e-12
-0.00013727923
-6.0518012e-06
1.1610076e-12
-0.00013444108
-1.2668093e-05
1.3162429e-12
-0.00013007479
-1.9246723e-05
1.5083132e-12
-0.00012422001
-2.5619088e-05
1.5904781e-12
-0.00011695841
-3.1596365e-05
1.6303142e-12
-0.00010841746
-3.6975506e-05
1.7500101e-12
-9.8772275e-05
-4.1547737e-05
1.8932726e-12
-8.8245044e-05
-4.5109332e-05
2.047093e-12
-7.7101476e-05
-4.7474198e-05
2.2264475e-12
-6.5643972e-05
-4.8487589e-05
2.3805602e-12
-5.4201437e-05
-4.8040102e-05
2.5205979e-12
-4.3116069e-05
-4.6081044e-05
2.7566991e-12
-3.2727816e-05
-4.2630428e-05
3.0483318e-12
-2.3357704e-05
-3.7789092e-05
3.1386734e-12
-1.5291702e-05
-3.1747032e-05
3.4618128e-12
-8.7673858e-06
-2.4790195e-05
5.1367945e-12
-3.9661042e-06
-1.7304149e-05
3.9933073e-12
-1.0141531e-06
-9.7749961e-06
-4.7469429e-12
-2.812979e-06
1.133664e-11
-1.5004516e-06
5.498464e-06
-6.9688979e-12
-5.4777299e-06
1.6072058e-05
1.7385581e-11
-1.1486211e-05
2.5673228e-05
3.202053e-12
-1.9134401e-05
3.3988613e-05
2.4457903e-13
-2.8070502e-05
4.0865228e-05
1.6357487e-12
-3.7975437e-05
4.6253137e-05
1.2199373e-12
-4.8558907e-05
5.0178094e-05
5.0777114e-13
-5.9557011e-05
5.2716057e-05
1.3408499e-13
-7.0730398e-05
5.3970338e-05
-8.456392e-14
-8.1862284e-05
5.4053907e-05
-1.7471116e-13
-9.2756042e-05
5.3076802e-05
-1.9100343e-13
-0.00010323241
5.1138127e-05
-2.1622869e-13
-0.00011312649
4.8322047e-05
-1.385924e-13
-0.00012228494
4.469716e-05
-1.2298741e-13
-0.00013056344
4.0318518e-05
-6.7638885e-14
-0.00013782507
3.5231676e-05
1.3650446e-13
-0.00014393941
2.9478144e-05
3.1686653e-13
-0.00014878294
2.310172e-05
4.2270077e-13
-0.00015224052
1.615517e-05
6.4961168e-13
-0.00015420828
8.7068167e-06
9.3107748e-13
-0.00015459757
8.4662179e-07
1.1825738e-12
-0.00015334029
-7.3090922e-06
1.327447e-12
-0.00015039479
-1.5613593e-05
1.4518754e-12
-0.00014575268
-2.3888842e-05
1.6523473e-12
-0.00013944549
-3.192628e-05
1.7960031e-12
-0.000131551
-3.9490852e-05
1.8959671e-12
-0.00012219832
-4.6328183e-05
1.9956009e-12
-0.00011157102
-5.2175043e-05
2.0792078e-12
-9.9907495e-05
-5.6772865e-05
2.2048814e-12
-8.7497923e-05
-5.9883772e-05
2.3762131e-12
-7.467732e-05
-6.1308195e-05
2.5270398e-12
-6.181453e-05
-6.0902895e-05
2.6691845e-12
-4.9297555e-05
-5.8598024e-05
2.8721112e-12
-3.7516071e-05
-5.4411918e-05
3.1034666e-12
-2.6842604e-05
-4.8462565e-05
3.1810104e-12
-1.7614345e-05
-4.0975296e-05
3.573552e-12
-1.0118055e-05
-3.2286491e-05
5.4810973e-12
-4.5807236e-06
-2.2841485e-05
4.1075422e-12
-1.1688466e-06
-1.318687e-05
-6.0687038e-12
-3.9818391e-06
1.263447e-11
-1.6766723e-06
7.1751467e-06
-1.0539824e-11
-6.1150389e-06
2.051041e-05
1.6998663e-11
-1.2800129e-05
3.2358319e-05
1.5464589e-12
-2.1278432e-05
4.2466918e-05
-1.3819662e-12
-3.1147054e-05
5.0733852e-05
5.4395483e-13
-4.2046914e-05
5.7153003e-05
3.8262341e-13
-5.3657576e-05
6.178876e-05
-1.9882388e-13
-6.5693058e-05
6.4751541e-05
-4.2142289e-13
-7.7898103e-05
6.6175387e-05
-5.0131173e-13
-9.0044477e-05
6.6200286e-05
-4.9901047e-13
-0.0001019271
6.4959431e-05
-4.6358296e-13
-0.00011336007
6.2571091e-05
-5.090076e-13
-0.00012417268
5.9134657e-05
-4.0601271e-13
-0.0001342058
5.4730288e-05
-2.6856874e-13
-0.0001433088
4.9421514e-05
-1.527751e-13
-0.00015133723
4.3260102e-05
4.2146547e-14
-0.00015815165
3.6292564e-05
2.8073587e-13
-0.00016361764
2.8567707e-05
4.9648999e-13
-0.00016760717
2.01447e-05
7.941625e-13
-0.00017000147
1.110112e-05
1.0749256e-12
-0.00017069535
1.5404982e-06
1.3306699e-12
-0.00016960294
-8.401507e-06
1.4981122e-12
-0.00016666461
-1.8551927e-05
1.6919563e-12
-0.00016185489
-2.8698562e-05
1.9337782e-12
-0.00015519078
-3.8590398e-05
2.0980653e-12
-0.00014673981
-4.7941824e-05
2.2116623e-12
-0.00013662712
-5.6440877e-05
2.2921868e-12
-0.00012504045
-6.3761717e-05
2.3570334e-12
-0.00011223212
-6.9581194e-05
2.4810367e-12
-9.8517025e-05
-7.3598872e-05
2.6268388e-12
-8.4265859e-05
-7.5559366e-05
2.7313009e-12
-6.9893386e-05
-7.5275375e-05
2.8532904e-12
-5.5841957e-05
-7.2649459e-05
3.0272633e-12
-4.256134e-05
-6.769254e-05
3.2023953e-12
-3.0486568e-05
-6.0537342e-05
3.2531507e-12
-2.0016142e-05
-5.1445727e-05
3.6869921e-12
-1.1493273e-05
-4.0809365e-05
5.8767437e-12
-5.1929703e-06
-2.9141792e-05
4.2779415e-12
-1.3173865e-06
-1.7062448e-05
-7.3072207e-12
-5.2992396e-06
1.3950169e-11
-1.8419394e-06
9.0171005e-06
-1.3215776e-11
-6.7169234e-06
2.5385376e-05
1.7213242e-11
-1.4047904e-05
3.9689303e-05
4.7546088e-13
-2.3324224e-05
5.1743244e-05
-2.526602e-12
-3.4094563e-05
6.1504196e-05
-2.7224747e-13
-4.5961078e-05
6.901952e-05
-3.1466154e-13
-5.8573793e-05
7.4401479e-05
-7.7121666e-13
-7.1625219e-05
7.7802975e-05
-8.3073124e-13
-8.4845089e-05
7.9395261e-05
-8.3604606e-13
-9.7995052e-05
7.9350251e-05
-8.34073e-13
-0.00011086333
7.782771e-05
-7.6933175e-13
-0.00012325939
7.4967161e-05
-7.2401206e-13
-0.00013500889
7.0884155e-05
-5.7930554e-13
-0.00014594897
6.5670373e-05
-4.193713e-13
-0.00015592438
5.9396918e-05
-2.3742564e-13
-0.00016478441
5.2120129e-05
3.8506262e-14
-0.00017238109
4.3889247e-05
3.4540116e-13
-0.00017856873
3.4755342e-05
6.0505528e-13
-0.00018320495
2.4780916e-05
9.2407251e-13
-0.00018615346
1.4049629e-05
1.2130993e-12
-0.00018728857
2.675602e-06
1.4938003e-12
-0.00018650148
-9.1886005e-06
1.6987104e-12
-0.00018370819
-2.1345215e-05
1.9608895e-12
-0.0001788589
-3.3547854e-05
2.2394925e-12
-0.00017194823
-4.5501072e-05
2.4318811e-12
-0.00016302569
-5.6864369e-05
2.5744325e-12
-0.00015220537
-6.7261201e-05
2.6563232e-12
-0.00013967366
-7.6293432e-05
2.7144049e-12
-0.00012569363
-8.3561223e-05
2.8359182e-12
-0.0001106048
-8.8687709e-05
2.9447421e-12
-9.481708e-05
-9.1347095e-05
2.9823958e-12
-7.8798394e-05
-9.1294068e-05
3.0716305e-12
-6.3056056e-05
-8.8391801e-05
3.2426298e-12
-4.8112982e-05
-8.2635618e-05
3.4037643e-12
-3.4480766e-05
-7.4169563e-05
3.4094092e-12
-2.2632412e-05
-6.3294086e-05
3.8408451e-12
-1.297787e-05
-5.0463912e-05
6.3256572e-12
-5.8455901e-06
-3.6274077e-05
4.467785e-12
-1.4724787e-06
-2.143555e-05
-8.5525394e-12
-6.7717339e-06
1.5379943e-11
-2.0006039e-06
1.101772e-05
-1.5396564e-11
-7.296745e-06
3.0681498e-05
1.7780462e-11
-1.5253846e-05
4.7646408e-05
-2.8558794e-13
-2.530759e-05
6.1796992e-05
-3.5096688e-12
-3.696045e-05
7.3157061e-05
-9.5236987e-13
-4.9777135e-05
8.183621e-05
-8.3832797e-13
-6.3379013e-05
8.8003364e-05
-1.2245478e-12
-7.7437942e-05
9.1861907e-05
-1.2579828e-12
-9.1669721e-05
9.3627043e-05
-1.2171542e-12
-0.00010582733
9.3507863e-05
-1.165209e-12
-0.00011969408
9.1694466e-05
-1.067629e-12
-0.0001330769
8.8349985e-05
-9.7450447e-13
-0.00014579993
8.3607185e-05
-7.7522134e-13
-0.0001576987
7.7569145e-05
-5.5736077e-13
-0.00016861515
7.0313362e-05
-2.9774246e-13
-0.00017839363
6.1898613e-05
5.1842172e-14
-0.00018687829
5.2373901e-05
4.0633771e-13
-0.00019391183
4.1788876e-05
6.8989266e-13
-0.00019933608
3.0205165e-05
1.0255424e-12
-0.00020299447
1.7708011e-05
1.3496673e-12
-0.00020473655
4.4176781e-06
1.6733977e-12
-0.00020442483
-9.5003227e-06
1.9251084e-12
-0.00020194369
-2.3826358e-05
2.252217e-12
-0.00019721045
-3.828109e-05
2.584134e-12
-0.00019018798
-5.2523553e-05
2.8326692e-12
-0.00018089807
-6.6154281e-05
3.0148874e-12
-0.00016943467
-7.8724603e-05
3.0980311e-12
-0.00015597525
-8.9752855e-05
3.1437591e-12
-0.00014078871
-9.8747772e-05
3.2642123e-12
-0.00012423789
-0.00010523854
3.3616487e-12
-0.00010677507
-0.00010880992
3.3529821e-12
-8.8929274e-05
-0.00010913987
3.3982839e-12
-7.1285212e-05
-0.00010603587
3.5583532e-12
-5.4454884e-05
-9.9465949e-05
3.7128871e-12
-3.9044219e-05
-8.9580232e-05
3.6524896e-12
-2.5618153e-05
-7.6720156e-05
4.0680158e-12
-1.4668127e-05
-6.1413944e-05
6.798928e-12
-6.5860577e-06
-4.4356151e-05
4.6530989e-12
-1.6476253e-06
-2.6373972e-05
-9.9325182e-12
-8.4193766e-06
1.6988592e-11
-2.1563206e-06
1.3174061e-05
-1.7300203e-11
-7.8663293e-06
3.6391484e-05
1.8497762e-11
-1.6440165e-05
5.6220251e-05
-9.1919876e-13
-2.7261837e-05
7.2618671e-05
-4.3187275e-12
-3.978907e-05
8.5684298e-05
-1.4990192e-12
-5.3550177e-05
9.5597321e-05
-1.315072e-12
-6.8138781e-05
0.00010259197
-1.6721185e-12
-8.3207092e-05
0.00010693022
-1.6657116e-12
-9.8458268e-05
0.00010887822
-1.586419e-12
-0.00011363826
0.00010868785
-1.5102206e-12
-0.00012852745
0.00010658366
-1.3565108e-12
-0.00014293246
0.00010275499
-1.2132539e-12
-0.00015667829
9.7353017e-05
-9.6395709e-13
-0.00016960119
9.0492052e-05
-6.7930232e-13
-0.00018154241
8.225458e-05
-3.5085554e-13
-0.00019234304
7.2699241e-05
3.710371e-14
-0.00020184029
6.1871148e-05
4.1382325e-13
-0.00020986534
4.9813922e-05
7.307269e-13
-0.00021624308
3.6582897e-05
1.1038724e-12
-0.00022079402
2.225895e-05
1.4905196e-12
-0.00022333871
6.9623647e-06
1.8755989e-12
-0.00022370484
-9.1341887e-06
2.2012015e-12
-0.00022173718
-2.579402e-05
2.5993307e-12
-0.00021731046
-4.2707815e-05
2.9888987e-12
-0.00021034463
-5.9489385e-05
3.2944999e-12
-0.00020082193
-7.5676991e-05
3.5102809e-12
-0.0001888044
-9.0742139e-05
3.6001916e-12
-0.00017445021
-0.00010410705
3.6417553e-12
-0.00015802639
-0.00011517159
3.7529062e-12
-0.0001399156
-0.00012334933
3.8442696e-12
-0.00012061428
-0.00012811126
3.8182158e-12
-0.00010072039
-0.00012903376
3.8244427e-12
-8.0909947e-05
-0.00012584631
3.9422967e-12
-6.1903049e-05
-0.00011847285
4.0424126e-12
-4.4422181e-05
-0.00010706111
3.8888273e-12
-2.9147089e-05
-9.1995252e-05
4.3027838e-12
-1.6671416e-05
-7.3889624e-05
7.2747839e-12
-7.4666611e-06
-5.3560909e-05
4.8684524e-12
-1.857335e-06
-3.1983286e-05
-1.1564161e-11
-1.0276731e-05
1.8939867e-11
-2.3121202e-06
1.5486205e-05
-1.9069948e-11
-8.4358338e-06
4.2515176e-05
1.934412e-11
-1.762635e-05
6.5410772e-05
-1.5090221e-12
-2.9216514e-05
8.4208843e-05
-5.0761333e-12
-4.261981e-05
9.9087598e-05
-1.9907312e-12
-5.7328712e-05
0.00011030623
-1.768974e-12
-7.2909836e-05
0.0001181731
-2.1571197e-12
-8.8996796e-05
0.00012301718
-2.12407e-12
-0.00010528155
0.00012516298
-1.9858021e-12
-0.00012150486
0.00012491117
-1.8745708e-12
-0.00013744644
0.00012252524
-1.6627206e-12
-0.00015291511
0.00011822367
-1.4523709e-12
-0.00016773947
0.00011217738
-1.1490835e-12
-0.00018175923
0.00010451181
-8.1356679e-13
-0.00019481751
9.5312867e-05
-4.3326038e-13
-0.00020675438
8.4636106e-05
-1.2039313e-14
-0.00021740172
7.2518481e-05
3.9780555e-13
-0.00022657986
5.8992063e-05
7.7051695e-13
-0.00023409625
4.4099275e-05
1.1974172e-12
-0.00023974642
2.7909124e-05
1.6636229e-12
-0.00024331797
1.0533914e-05
2.1294666e-12
-0.00024459772
-7.8544447e-06
2.5562498e-12
-0.00024338237
-2.7009375e-05
3.02193e-12
-0.00023949333
-4.6596853e-05
3.4485843e-12
-0.00023279487
-6.6187849e-05
3.7945027e-12
-0.00022321534
-8.5256536e-05
4.042667e-12
-0.00021077005
-0.00010318743
4.1666379e-12
-0.00019558388
-0.00011929323
4.2252443e-12
-0.00017791054
-0.00013284493
4.3015386e-12
-0.00015814543
-0.00014311445
4.3517763e-12
-0.00013682831
-0.00014942838
4.3118144e-12
-0.00011463282
-0.00015122926
4.2925355e-12
-9.2340973e-05
-0.00014813816
4.3462158e-12
-7.0802986e-05
-0.00014001085
4.3402206e-12
-5.0885218e-05
-0.00012697888
4.0710272e-12
-3.3411785e-05
-0.00010946869
4.4910559e-12
-1.9106797e-05
-8.8194618e-05
7.8329701e-12
-8.545135e-06
-6.4122575e-05
5.1633316e-12
-2.1174626e-06
-3.8410944e-05
-1.3532896e-11
-1.2394214e-05
2.1444839e-11
-2.4704974e-06
1.7956728e-05
-2.0845927e-11
-9.0138572e-06
4.9058515e-05
2.0292722e-11
-1.88291e-05
7.522602e-05
-1.9978825e-12
-3.1197011e-05
9.657676e-05
-5.7856489e-12
-4.5486282e-05
0.00011337687
-2.4868959e-12
-6.1153443e-05
0.00012597339
-2.2350825e-12
-7.7738509e-05
0.00013475817
-2.6103118e-12
-9.4857458e-05
0.00014013614
-2.5505584e-12
-0.00011219257
0.00014249809
-2.3711025e-12
-0.00012948147
0.00014220008
-2.2082603e-12
-0.00014650571
0.00013954947
-1.9532797e-12
-0.00016307919
0.00013479716
-1.6799156e-12
-0.00017903726
0.00012813544
-1.3200935e-12
-0.00019422631
0.00011970087
-9.4429442e-13
-0.00020849458
0.00010958114
-5.2882038e-13
-0.00022168401
9.782554e-05
-8.0270823e-14
-0.00023362363
8.4458097e-05
3.7361966e-13
-0.00024412458
6.9493008e-05
8.2257838e-13
-0.00025297729
5.2951986e-05
1.3164991e-12
-0.00025995127
3.4883097e-05
1.8594417e-12
-0.00026479802
1.5380662e-05
2.3988363e-12
-0.00026725801
-5.39446e-06
2.9232911e-12
-0.00026707149
-2.7195897e-05
3.4725968e-12
-0.00026399535
-4.9672999e-05
3.9414822e-12
-0.00025782398
-7.2359226e-05
4.3363777e-12
-0.00024841521
-9.4665316e-05
4.6354469e-12
-0.00023571947
-0.00011588317
4.8287483e-12
-0.00021981006
-0.00013520265
4.9368448e-12
-0.00020091104
-0.00015174396
4.9694232e-12
-0.00017941855
-0.00016460695
4.9386546e-12
-0.00015591052
-0.00017293641
4.8536979e-12
-0.00013114022
-0.00017599957
4.7890911e-12
-0.00010600999
-0.0001732684
4.7580331e-12
-8.1524642e-05
-0.0001644962
4.6376017e-12
-5.8727175e-05
-0.00014977635
4.2508871e-12
-3.8623479e-05
-0.00012957239
4.6737843e-12
-2.2105675e-05
-0.00010471243
8.5771016e-12
-9.8853662e-06
-7.6342891e-05
5.4976623e-12
-2.4455509e-06
-4.5850743e-05
-1.6018246e-11
-1.4839789e-05
2.454905e-11
-2.6335253e-06
2.0590278e-05
-2.2620145e-11
-9.6076904e-06
5.6032658e-05
2.1320751e-11
-2.0062641e-05
8.5680975e-05
-2.4436964e-12
-3.3224796e-05
0.00010973892
-6.4914029e-12
-4.8416371e-05
0.00012856845
-2.9734135e-12
-6.5057042e-05
0.00014261407
-2.6981332e-12
-8.2660151e-05
0.00015236128
-3.054929e-12
-0.0001008248
0.00015830079
-2.9527285e-12
-0.00011922511
0.0001608984
-2.7393638e-12
-0.00013759778
0.00016057276
-2.53674e-12
-0.00015572893
0.00015768063
-2.2495556e-12
-0.00017344082
0.00015250905
-1.9167198e-12
-0.00019057905
0.00014527368
-1.5052778e-12
-0.00020700056
0.00013612237
-1.0947647e-12
-0.00022256256
0.00012514313
-6.487185e-13
-0.0002371127
0.00011237568
-1.7350606e-13
-0.0002504806
9.7825997e-05
3.3005535e-13
-0.00026247106
8.1483465e-05
8.7119873e-13
-0.00027285936
6.3340284e-05
1.453773e-12
-0.00028138928
4.3413018e-05
2.0738508e-12
-0.00028777456
2.1765936e-05
2.6753663e-12
-0.00029170517
-1.4638533e-06
3.2684426e-12
-0.00029285732
-2.6043754e-05
3.941392e-12
-0.00029091248
-5.1617841e-05
4.4954526e-12
-0.00028558034
-7.7691382e-05
4.9737966e-12
-0.00027662973
-0.00010361593
5.337848e-12
-0.00026392483
-0.00012858807
5.5994293e-12
-0.00024746446
-0.00015166303
5.76948e-12
-0.00022742079
-0.00017178764
5.7899797e-12
-0.00020417211
-0.00018785563
5.6911989e-12
-0.00017832304
-0.00019878549
5.5294787e-12
-0.00015070532
-0.0002036173
5.3586101e-12
-0.00012235349
-0.00020162023
5.2086272e-12
-9.4452657e-05
-0.00019239704
4.995579e-12
-6.8260366e-05
-0.00017596864
4.4928668e-12
-4.5010488e-05
-0.00015282227
4.9539683e-12
-2.5811831e-05
-0.0001239111
9.5607939e-12
-1.1557875e-05
-9.0596855e-05
5.8826503e-12
-2.8611061e-06
-5.4547492e-05
-1.9269591e-11
-1.7700924e-05
2.8268242e-11
-2.8029987e-06
2.3393304e-05
-2.4370251e-11
-1.0223713e-05
6.3453347e-05
2.2434235e-11
-2.1339344e-05
9.6796608e-05
-2.9015691e-12
-3.5318175e-05
0.00012371776
-7.2366267e-12
-5.1432993e-05
0.00014468327
-3.4618069e-12
-6.9064768e-05
0.00016024585
-3.1180784e-12
-8.7699501e-05
0.00017099602
-3.4918156e-12
-0.00010691987
0.00017752116
-3.3861629e-12
-0.00012639326
0.0001803718
-3.1272503e-12
-0.00014585772
0.00018003723
-2.8876358e-12
-0.00016510691
0.00017692982
-2.5615234e-12
-0.00018397492
0.00017137706
-2.1676464e-12
-0.00020232164
0.00016362039
-1.716984e-12
-0.00022001881
0.00015381955
-1.2751684e-12
-0.00023693722
0.00014206155
-7.8737644e-13
-0.00025293492
0.00012837337
-2.6953583e-13
-0.00026784674
0.00011273782
2.8719338e-13
-0.0002814754
9.5112124e-05
9.1778772e-13
-0.00029358457
7.5449444e-05
1.5986935e-12
-0.00030389461
5.3723059e-05
2.3055206e-12
-0.00031208206
2.9953385e-05
3.0093129e-12
-0.00031778359
4.2376698e-06
3.7941431e-12
-0.00032060707
-2.3220283e-05
4.4680726e-12
-0.0003201483
-5.207662e-05
5.1166493e-12
-0.00031601809
-8.1821592e-05
5.7145793e-12
-0.00030787714
-0.00011175689
6.1618041e-12
-0.00029547944
-0.00014098578
6.4791284e-12
-0.00027872192
-0.00016842056
6.7065776e-12
-0.00025769609
-0.00019281346
6.7610993e-12
-0.00023273563
-0.00021281611
6.6482606e-12
-0.00020445132
-0.0002270698
6.4127364e-12
-0.00017374415
-0.00023432448
6.0990188e-12
-0.00014178709
-0.00023357729
5.8087462e-12
-0.00010996985
-0.00022421428
5.5006758e-12
-7.9806493e-05
-0.00020613201
4.827354e-12
-5.2814264e-05
-0.0001798145
5.3735222e-12
-3.0380377e-05
-0.00014634499
1.0779447e-11
-1.3639902e-05
-0.00010733734
6.4300801e-12
-3.3857834e-06
-6.4801588e-05
-2.3455216e-11
-2.108674e-05
3.284057e-11
-2.9806117e-06
2.6373943e-05
-2.6167874e-11
-1.0867938e-05
7.1340646e-05
2.3631183e-11
-2.267067e-05
0.00010859934
-3.3379701e-12
-3.7493535e-05
0.00013854063
-7.9370984e-12
-5.4555499e-05
0.00016174524
-3.9121505e-12
-7.3195879e-05
0.00017888623
-3.5244714e-12
-9.287193e-05
0.00019067207
-3.9047048e-12
-0.00011314994
0.00019779916
-3.8267849e-12
-0.00013369184
0.0002009137
-3.5339982e-12
-0.00015423928
0.00020058468
-3.2522891e-12
-0.00017459653
0.00019728707
-2.8791586e-12
-0.00019461322
0.00019139376
-2.4258266e-12
-0.00021416775
0.00018317492
-1.9441218e-12
-0.00023315143
0.00017280323
-1.4660538e-12
-0.00025145376
0.00016036388
-9.1714162e-13
-0.00026894871
0.00014586833
-3.2812285e-13
-0.0002854821
0.0001292712
2.9478105e-13
-0.00030086034
0.00011049037
1.0021507e-12
-0.00031484099
8.9430086e-05
1.7678019e-12
-0.00032712574
6.6007809e-05
2.5676182e-12
-0.00033735715
4.0184795e-05
3.3832239e-12
-0.00034512017
1.2000688e-05
4.2551388e-12
-0.00034995135
-1.838911e-05
5.0180941e-12
-0.00035135483
-5.0673154e-05
5.7819378e-12
-0.00034883056
-8.4345864e-05
6.5114788e-12
-0.00034191285
-0.00011867461
7.0826864e-12
-0.00033022064
-0.00015267799
7.4932879e-12
-0.00031351792
-0.00018512329
7.7943337e-12
-0.00029178013
-0.00021455126
7.9083751e-12
-0.00026525991
-0.00023933633
7.8115047e-12
-0.00023454214
-0.00025778757
7.5175196e-12
-0.00020057562
-0.000268291
7.0785125e-12
-0.00016466787
-0.00026948505
6.6556945e-12
-0.00012843205
-0.00026045011
6.2006594e-12
-9.3681949e-05
-0.00024088211
5.2285676e-12
-6.2282325e-05
-0.00021121413
5.7904122e-12
-3.5975267e-05
-0.00017265206
1.2140571e-11
-1.6215008e-05
-0.0001270976
7.0356043e-12
-4.0434919e-06
-7.6973075e-05
-2.8728499e-11
-2.5130272e-05
3.8556444e-11
-3.1681848e-06
2.9542155e-05
-2.8048109e-11