/*--------------------------------*- C++ -*----------------------------------*\
  =========                 |
  \\      /  F ield         | OpenFOAM: The Open Source CFD Toolbox
   \\    /   O peration     | Website:  https://openfoam.org
    \\  /    A nd           | Version:  7
     \\/     M anipulation  |
\*---------------------------------------------------------------------------*/
FoamFile
{
    version     2.0;
    format      ascii;
    class       surfaceScalarField;
    location    "2";
    object      phi_0;
}
// * * * * * * * * * * * * * * * * * * * * * * * * * * * * * * * * * * * * * //

dimensions      [0 3 -1 0 0 0 0];

internalField   nonuniform List<scalar> 
45600
(
1.4906602e-07
-1.5407414e-07
-3.047237e-10
1.3076677e-07
1.8486187e-08
-1.8714255e-10
-1.6419328e-07
2.9506583e-07
-1.0316954e-10
-7.3358021e-07
5.6944319e-07
-5.7355596e-11
-1.5347153e-06
8.0116641e-07
-3.1679029e-11
-2.514727e-06
9.8002916e-07
-1.6886509e-11
-3.6223598e-06
1.1076398e-06
-8.0938351e-12
-4.8122082e-06
1.1898485e-06
-2.6159875e-12
-6.0455185e-06
1.2333072e-06
9.6284638e-13
-7.2896525e-06
1.2441296e-06
3.2846554e-12
-8.5170745e-06
1.227415e-06
4.7805233e-12
-9.70421e-06
1.187127e-06
5.7022458e-12
-1.0830358e-05
1.1261404e-06
6.2431253e-12
-1.1876763e-05
1.0463962e-06
6.4348806e-12
-1.282588e-05
9.4910854e-07
6.3274059e-12
-1.3660882e-05
8.3499705e-07
5.9858401e-12
-1.4365429e-05
7.0454052e-07
5.4846658e-12
-1.4923668e-05
5.5823335e-07
4.780108e-12
-1.5320496e-05
3.96827e-07
3.9262429e-12
-1.5542055e-05
2.2155829e-07
2.9664292e-12
-1.5576409e-05
3.4354005e-08
1.7995673e-12
-1.5414394e-05
-1.6201472e-07
5.1524208e-13
-1.5050579e-05
-3.6381114e-07
-8.6579013e-13
-1.4484268e-05
-5.6630344e-07
-2.2366397e-12
-1.3720461e-05
-7.6379941e-07
-3.6163886e-12
-1.2770683e-05
-9.497684e-07
-5.0082653e-12
-1.1653612e-05
-1.1170605e-06
-6.2458068e-12
-1.0395388e-05
-1.2582111e-06
-7.2470022e-12
-9.0295582e-06
-1.365815e-06
-7.9605323e-12
-7.5966016e-06
-1.432943e-06
-8.3272283e-12
-6.1430208e-06
-1.4535694e-06
-8.3633379e-12
-4.7200372e-06
-1.4229742e-06
-8.0456093e-12
-3.3819248e-06
-1.3381045e-06
-7.2753436e-12
-2.1840085e-06
-1.1979104e-06
-6.039884e-12
-1.1802276e-06
-1.003778e-06
-4.4040459e-12
-4.1969187e-07
-7.6053672e-07
-2.3214085e-12
5.9938302e-08
-4.7963465e-07
8.395665e-14
2.4710328e-07
-1.8717052e-07
1.7173031e-12
1.7256713e-07
7.4529375e-08
4.4528596e-12
1.7256315e-07
3.2602078e-12
-1.7120235e-08
-1.3676802e-07
-1.86017e-10
-4.8297806e-07
4.8451495e-07
-1.7335086e-10
-1.5557408e-06
1.3679218e-06
-9.3042461e-11
-3.2259219e-06
2.2396839e-06
-6.167233e-11
-5.4203739e-06
2.9956623e-06
-4.2919764e-11
-8.0374816e-06
3.5971705e-06
-3.2278648e-11
-1.0968389e-05
4.038576e-06
-2.5932672e-11
-1.4108775e-05
4.3302594e-06
-2.1875858e-11
-1.7363956e-05
4.4885086e-06
-1.9070469e-11
-2.0650235e-05
4.5304273e-06
-1.6992454e-11
-2.3894314e-05
4.4715122e-06
-1.5231129e-11
-2.7031784e-05
4.3246099e-06
-1.3671356e-11
-3.0005282e-05
4.0996542e-06
-1.2149362e-11
-3.2762747e-05
3.8038763e-06
-1.0619865e-11
-3.5255947e-05
3.4423195e-06
-9.0913209e-12
-3.7439462e-05
3.0185226e-06
-7.5704331e-12
-3.92702e-05
2.5352892e-06
-5.8887234e-12
-4.0707457e-05
1.9955004e-06
-4.1023013e-12
-4.1713544e-05
1.4029194e-06
-2.3149277e-12
-4.2254925e-05
7.6294055e-07
-4.3609921e-13
-4.2303822e-05
8.3250609e-08
1.4580322e-12
-4.1840146e-05
-6.2569171e-07
3.4161109e-12
-4.0853703e-05
-1.350258e-06
5.3432929e-12
-3.9346441e-05
-2.0735725e-06
7.226109e-12
-3.7334574e-05
-2.7756752e-06
9.0194141e-12
-3.4850397e-05
-3.4339559e-06
1.0655079e-11
-3.194356e-05
-4.0239078e-06
1.2145997e-11
-2.8681622e-05
-4.520161e-06
1.3441477e-11
-2.5149697e-05
-4.8977537e-06
1.4461851e-11
-2.1449087e-05
-5.1335684e-06
1.5141413e-11
-1.7694828e-05
-5.2078448e-06
1.5399593e-11
-1.4012129e-05
-5.1056882e-06
1.5206269e-11
-1.0531694e-05
-4.8185537e-06
1.458599e-11
-7.3838064e-06
-4.3458112e-06
1.3530257e-11
-4.6908027e-06
-3.6967942e-06
1.2012922e-11
-2.5568773e-06
-2.894474e-06
1.0102003e-11
-1.0534637e-06
-1.9830593e-06
7.9759381e-12
-1.9999668e-07
-1.0406465e-06
5.847097e-12
7.8311641e-08
-2.0378533e-07
4.1460538e-12
2.5087153e-07
2.789313e-12
-2.9390066e-07
1.5724261e-07
-1.0752956e-10
-1.3802046e-06
1.5709038e-06
-8.799259e-11
-3.323672e-06
3.3114537e-06
-6.4873108e-11
-6.0865503e-06
5.002607e-06
-4.4724185e-11
-9.5681017e-06
6.4772433e-06
-3.0209297e-11
-1.3634508e-05
7.6635958e-06
-2.099548e-11
-1.8140323e-05
8.5444034e-06
-1.490725e-11
-2.2942074e-05
9.1320214e-06
-1.078463e-11
-2.7905607e-05
9.4520506e-06
-7.8948692e-12
-3.2909127e-05
9.5339488e-06
-5.8781716e-12
-3.7843547e-05
9.4059347e-06
-4.3501409e-12
-4.2611356e-05
9.0924229e-06
-3.1696655e-12
-4.7124776e-05
8.6130757e-06
-2.2497311e-12
-5.1303793e-05
7.9828912e-06
-1.5390808e-12
-5.5074432e-05
7.212961e-06
-8.7722959e-13
-5.8367558e-05
6.3116523e-06
-3.0065747e-13
-6.1118306e-05
5.2860384e-06
2.3129024e-13
-6.3266246e-05
4.1434404e-06
7.3636586e-13
-6.4756292e-05
2.8929672e-06
1.118182e-12
-6.5540313e-05
1.5469642e-06
1.475264e-12
-6.5579387e-05
1.2232767e-07
1.7992324e-12
-6.4846385e-05
-1.3586923e-06
2.0391586e-12
-6.3329142e-05
-2.8674985e-06
2.1851558e-12
-6.1033414e-05
-4.3692965e-06
2.332868e-12
-5.7985797e-05
-5.8232878e-06
2.4253992e-12
-5.4236134e-05
-7.1836145e-06
2.472693e-12
-4.985916e-05
-8.400878e-06
2.5294791e-12
-4.4955096e-05
-9.4242223e-06
2.5628297e-12
-3.9648947e-05
-1.0203901e-05
2.601245e-12
-3.4088316e-05
-1.0694199e-05
2.6895004e-12
-2.8439612e-05
-1.0856551e-05
2.786914e-12
-2.2882578e-05
-1.0662725e-05
2.8771101e-12
-1.7603111e-05
-1.0098026e-05
2.9955014e-12
-1.2784246e-05
-9.1646835e-06
3.1469391e-12
-8.5950538e-06
-7.885993e-06
3.3140694e-12
-5.1768873e-06
-6.3126469e-06
3.5575616e-12
-2.6263112e-06
-4.533641e-06
4.0336523e-12
-9.7401462e-07
-2.6929479e-06
4.0683136e-12
-1.6005437e-07
-1.0177486e-06
2.6718988e-12
9.0811595e-08
5.2631149e-12
-5.8448555e-07
7.4179555e-07
-6.6346911e-11
-2.3184398e-06
3.3049083e-06
-5.2330823e-11
-5.1520162e-06
6.145077e-06
-4.4219561e-11
-8.9864746e-06
8.8371001e-06
-3.2941431e-11
-1.3681551e-05
1.1172343e-05
-2.2996731e-11
-1.9072186e-05
1.3054251e-05
-1.6227949e-11
-2.4983994e-05
1.4456226e-05
-1.1456696e-11
-3.1244746e-05
1.5392782e-05
-8.0448858e-12
-3.7691528e-05
1.589884e-05
-5.5285721e-12
-4.4174271e-05
1.6016699e-05
-3.6738121e-12
-5.0556654e-05
1.5788321e-05
-2.3073695e-12
-5.6715334e-05
1.5251104e-05
-1.3058695e-12
-6.2538295e-05
1.443604e-05
-5.2735364e-13
-6.7922932e-05
1.3367531e-05
4.0742063e-14
-7.277431e-05
1.2064341e-05
5.1905554e-13
-7.7003935e-05
1.0541276e-05
9.2251463e-13
-8.0529218e-05
8.8113206e-06
1.2467403e-12
-8.3273773e-05
6.8879956e-06
1.5310869e-12
-8.5168561e-05
4.7877545e-06
1.7075524e-12
-8.6153852e-05
2.5322533e-06
1.7552851e-12
-8.6181934e-05
1.5040867e-07
1.778057e-12
-8.5220271e-05
-2.3203572e-06
1.7655015e-12
-8.3255262e-05
-4.8325086e-06
1.621381e-12
-8.029581e-05
-7.3287473e-06
1.4782206e-12
-7.6376814e-05
-9.7422835e-06
1.3294399e-12
-7.1562027e-05
-1.1998401e-05
1.169042e-12
-6.5945982e-05
-1.4016923e-05
9.9992756e-13
-5.9654608e-05
-1.5715597e-05
8.1316993e-13
-5.2844227e-05
-1.7014281e-05
6.9883729e-13
-4.5698694e-05
-1.7839731e-05
7.1377165e-13
-3.842449e-05
-1.8130754e-05
8.1035939e-13
-3.1243708e-05
-1.7843507e-05
9.8225335e-13
-2.4384927e-05
-1.6956807e-05
1.2598419e-12
-1.8072027e-05
-1.5477585e-05
1.6176362e-12
-1.2511007e-05
-1.3447016e-05
2.0175401e-12
-7.8749666e-06
-1.0948691e-05
2.6321405e-12
-4.2877355e-06
-8.1208763e-06
3.8209404e-12
-1.8073903e-06
-5.1732966e-06
3.9310917e-12
-4.122403e-07
-2.4128988e-06
8.7988267e-13
-3.2143612e-07
6.9934385e-12
-8.5345962e-07
1.5953001e-06
-4.5013503e-11
-3.2129413e-06
5.66442e-06
-2.9949646e-11
-6.9118237e-06
9.8439907e-06
-3.0979646e-11
-1.1776822e-05
1.3702125e-05
-2.5714941e-11
-1.76187e-05
1.7014242e-05
-1.8958951e-11
-2.4237666e-05
1.9673231e-05
-1.4502154e-11
-3.1431815e-05
2.1650389e-05
-1.1189513e-11
-3.9004773e-05
2.2965751e-05
-8.5901808e-12
-4.6771079e-05
2.3665154e-05
-6.5947399e-12
-5.4559089e-05
2.3804715e-05
-5.0353803e-12
-6.2211757e-05
2.3440994e-05
-3.7918333e-12
-6.9585921e-05
2.2625272e-05
-2.8155286e-12
-7.6550726e-05
2.1400848e-05
-2.0300899e-12
-8.2985753e-05
1.9802559e-05
-1.3612946e-12
-8.8779303e-05
1.7857891e-05
-7.4936429e-13
-9.3827188e-05
1.5589161e-05
-1.6846376e-13
-9.8032255e-05
1.3016388e-05
3.8321227e-13
-0.00010130479
1.0160535e-05
8.3770848e-13
-0.00010356387
7.0468328e-06
1.2296498e-12
-0.00010473959
3.707966e-06
1.5475644e-12
-0.00010477613
1.8694917e-07
1.8258352e-12
-0.00010363546
-3.4610232e-06
2.0702599e-12
-0.00010130152
-7.1664519e-06
2.2534882e-12
-9.7784391e-05
-1.0845873e-05
2.4286145e-12
-9.3124355e-05
-1.440232e-05
2.5366502e-12
-8.7395209e-05
-1.7727548e-05
2.6316976e-12
-8.0706552e-05
-2.0705582e-05
2.7202079e-12
-7.3204541e-05
-2.3217611e-05
2.7331969e-12
-6.5070754e-05
-2.5148071e-05
2.7344985e-12
-5.6518839e-05
-2.6391648e-05
2.8052276e-12
-4.7788755e-05
-2.6860841e-05
2.9225117e-12
-3.9138528e-05
-2.6493737e-05
3.0639334e-12
-3.083364e-05
-2.5261698e-05
3.2356856e-12
-2.3134306e-05
-2.3176921e-05
3.3944703e-12
-1.6281137e-05
-2.0300186e-05
3.4936086e-12
-1.0479974e-05
-1.6749856e-05
3.8245601e-12
-5.8873214e-06
-1.2713533e-05
4.9946868e-12
-2.5986242e-06
-8.4619975e-06
4.382738e-12
-6.4350253e-07
-4.3680192e-06
-9.4305343e-13
-9.6494827e-07
8.8787765e-12
-1.0934326e-06
2.6887678e-06
-3.3565183e-11
-4.0355025e-06
8.6065063e-06
-1.5697546e-11
-8.5529394e-06
1.4361451e-05
-2.1995205e-11
-1.4395641e-05
1.9544844e-05
-1.9986827e-11
-2.1320495e-05
2.3939117e-05
-1.4973879e-11
-2.9089509e-05
2.7442259e-05
-1.19539e-11
-3.7472382e-05
3.0033272e-05
-9.6599303e-12
-4.6250127e-05
3.1743506e-05
-7.6632353e-12
-5.5218014e-05
3.2633049e-05
-6.0274476e-12
-6.4187096e-05
3.2773804e-05
-4.7211869e-12
-7.2984288e-05
3.2238191e-05
-3.6627263e-12
-8.1451286e-05
3.1092274e-05
-2.7944921e-12
-8.9442815e-05
2.9392378e-05
-2.0934704e-12
-9.6824644e-05
2.7184388e-05
-1.4142994e-12
-0.00010347181
2.4505054e-05
-7.6123498e-13
-0.00010926736
2.138471e-05
-2.2927584e-13
-0.0001141019
1.7850925e-05
3.2318365e-13
-0.00011787404
1.3932676e-05
8.1441658e-13
-0.0001204919
9.6646912e-06
1.175986e-12
-0.00012187556
5.091625e-06
1.4799905e-12
-0.00012196048
2.71864e-07
1.8407157e-12
-0.00012070163
-4.7198709e-06
2.1470922e-12
-0.0001180782
-9.7898794e-06
2.356597e-12
-0.00011409845
-1.4825629e-05
2.5659677e-12
-0.00010880435
-1.969642e-05
2.7451552e-12
-0.00010227563
-2.4256273e-05
2.9068939e-12
-9.4632569e-05
-2.8348645e-05
3.0139543e-12
-8.6037172e-05
-3.1813011e-05
3.0384101e-12
-7.6692136e-05
-3.4493109e-05
3.0793785e-12
-6.6837284e-05
-3.6246502e-05
3.1820749e-12
-5.674318e-05
-3.6954947e-05
3.2819986e-12
-4.6701903e-05
-3.6535017e-05
3.3747532e-12
-3.701518e-05
-3.4948424e-05
3.5170184e-12
-2.7980384e-05
-3.2211719e-05
3.6683831e-12
-1.9875254e-05
-2.8405318e-05
3.7148318e-12
-1.2942645e-05
-2.3682467e-05
4.0510425e-12
-7.3772639e-06
-1.8278917e-05
5.5164013e-12
-3.3170571e-06
-1.2522208e-05
4.5356672e-12
-8.4335916e-07
-6.8417147e-06
-2.6819238e-12
-1.8083188e-06
1.0522542e-11
-1.3066159e-06
3.995412e-06
-2.7507079e-11
-4.7842898e-06
1.2084185e-05
-6.4057873e-12
-1.0067225e-05
1.9644407e-05
-1.6006195e-11
-1.683195e-05
2.6309585e-05
-1.5831651e-11
-2.4780455e-05
3.1887636e-05
-1.177782e-11
-3.3634545e-05
3.6296361e-05
-9.661393e-12
-4.3134366e-05
3.9533103e-05
-8.0695866e-12
-5.3038602e-05
4.164775e-05
-6.5409295e-12
-6.3124906e-05
4.271936e-05
-5.2024258e-12
-7.3189715e-05
4.2838619e-05
-4.1232857e-12
-8.3047199e-05
4.2095678e-05
-3.245574e-12
-9.2527462e-05
4.057254e-05
-2.4674991e-12
-0.00010147432
3.8339231e-05
-1.8141104e-12
-0.00010974296
3.5453031e-05
-1.1813304e-12
-0.00011719798
3.196007e-05
-5.2453036e-13
-0.00012371192
2.7898648e-05
-3.6162467e-14
-0.00012916473
2.3303733e-05
4.2032393e-13
-0.0001334442
1.8212144e-05
8.8618944e-13
-0.00013644751
1.2667993e-05
1.2562454e-12
-0.00013808387
6.7279839e-06
1.515646e-12
-0.00013827826
4.6625964e-07
1.8424799e-12
-0.00013697608
-6.0220475e-06
2.1580884e-12
-0.0001341484
-1.2617569e-05
2.4007096e-12
-0.00012979759
-1.9176435e-05
2.58658e-12
-0.00012396295
-2.5531067e-05
2.7262254e-12
-0.00011672555
-3.1493672e-05
2.8860206e-12
-0.00010821204
-3.6862159e-05
3.0089478e-12
-9.8596504e-05
-4.1428554e-05
3.0437411e-12
-8.8099934e-05
-4.4989683e-05
3.0813395e-12
-7.6986756e-05
-4.7359682e-05
3.1681409e-12
-6.5558064e-05
-4.838364e-05
3.2554096e-12
-5.4141542e-05
-4.7951541e-05
3.3557446e-12
-4.307834e-05
-4.6011628e-05
3.5329186e-12
-3.2707648e-05
-4.2582413e-05
3.7144628e-12
-2.3350102e-05
-3.7762866e-05
3.7264536e-12
-1.5291733e-05
-3.1740839e-05
4.1003052e-12
-8.770673e-06
-2.4799981e-05
5.8751705e-12
-3.9693413e-06
-1.7323545e-05
4.6407567e-12
-1.0156038e-06
-9.7954482e-06
-4.2233126e-12
-2.8239347e-06
1.1914124e-11
-1.4982373e-06
5.4936751e-06
-2.4233889e-11
-5.4693218e-06
1.6055269e-05
3.0543247e-14
-1.1468038e-05
2.5643139e-05
-1.2046826e-11
-1.9103243e-05
3.3944805e-05
-1.3033079e-11
-2.8023436e-05
4.0807839e-05
-9.4862528e-12
-3.790981e-05
4.6182744e-05
-7.9608716e-12
-4.8472344e-05
5.0095645e-05
-6.8791719e-12
-5.9447434e-05
5.2622848e-05
-5.7271421e-12
-7.0596067e-05
5.3868e-05
-4.6801031e-12
-8.170185e-05
5.3944406e-05
-3.8030088e-12
-9.2568606e-05
5.2962436e-05
-3.0588773e-12
-0.00010301758
5.1021514e-05
-2.3508441e-12
-0.00011288445
4.8206106e-05
-1.7167514e-12
-0.00012201649
4.4585066e-05
-1.1284624e-12
-0.00013027007
4.0213649e-05
-5.253946e-13
-0.00013750896
3.513753e-05
-5.1826735e-14
-0.00014360347
2.9398238e-05
3.809286e-13
-0.00014843077
2.3039451e-05
8.1727495e-13
-0.00015187644
1.6113655e-05
1.2008193e-12
-0.00015383717
8.6887133e-06
1.5054665e-12
-0.00015422484
8.5393527e-07
1.8693201e-12
-0.00015297169
-7.2752019e-06
2.1943006e-12
-0.00015003626
-1.5553001e-05
2.4638549e-12
-0.00014541009
-2.38026e-05
2.6732297e-12
-0.00013912445
-3.1816714e-05
2.8445787e-12
-0.00013125655
-3.9361579e-05
3.0375466e-12
-0.00012193466
-4.6184045e-05
3.1823954e-12
-0.00011134129
-5.2021936e-05
3.2429176e-12
-9.9713518e-05
-5.6617455e-05
3.3032337e-12
-8.7340099e-05
-5.9733106e-05
3.3907031e-12
-7.4554524e-05
-6.1169218e-05
3.4708722e-12
-6.1724166e-05
-6.0781902e-05
3.5697337e-12
-4.9235711e-05
-5.8500087e-05
3.7668884e-12
-3.7477797e-05
-5.4340331e-05
3.9739977e-12
-2.6822306e-05
-4.8418362e-05
3.9415165e-12
-1.7606272e-05
-4.0956877e-05
4.2757444e-12
-1.0116855e-05
-3.2289404e-05
6.2352433e-12
-4.5820258e-06
-2.2858378e-05
4.773158e-12
-1.1698395e-06
-1.3207628e-05
-5.5690398e-12
-3.9937869e-06
1.3201153e-11
-1.6738621e-06
7.1675624e-06
-2.2532158e-11
-6.1045728e-06
2.0485974e-05
4.6701767e-12
-1.2777801e-05
3.2316381e-05
-9.4012886e-12
-2.1240556e-05
4.2407571e-05
-1.1154813e-11
-3.1090356e-05
5.0657648e-05
-7.8056009e-12
-4.1968477e-05
5.7060873e-05
-6.6664505e-12
-5.3554809e-05
6.1681985e-05
-5.9731272e-12
-6.5563703e-05
6.4631747e-05
-5.1180555e-12
-7.7740261e-05
6.6044563e-05
-4.3009419e-12
-8.9856656e-05
6.6060805e-05
-3.5795224e-12
-0.00010170827
6.4814057e-05
-2.9449948e-12
-0.00011310973
6.2422969e-05
-2.2992451e-12
-0.00012389092
5.8987294e-05
-1.6964025e-12
-0.00013389337
5.4587518e-05
-1.1294958e-12
-0.00014296715
4.9287428e-05
-5.9490103e-13
-0.00015096859
4.313896e-05
-1.7671526e-13
-0.00015775902
3.6188669e-05
2.732068e-13
-0.00016320482
2.8485252e-05
7.6065944e-13
-0.00016717875
2.0087583e-05
1.1668549e-12
-0.00016956276
1.1072725e-05
1.4828994e-12
-0.00017025229
1.5434625e-06
1.8845677e-12
-0.00016916196
-8.365527e-06
2.2704428e-12
-0.00016623247
-1.8482489e-05
2.5939024e-12
-0.00016143845
-2.8596627e-05
2.8038308e-12
-0.0001547967
-3.8458464e-05
2.9759315e-12
-0.0001463743
-4.7783984e-05
3.2029159e-12
-0.00013629558
-5.6262763e-05
3.4018168e-12
-0.0001247472
-6.3570326e-05
3.5150309e-12
-0.00011198008
-6.9384579e-05
3.5918317e-12
-9.8307497e-05
-7.340569e-05
3.6654854e-12
-8.4098411e-05
-7.5378309e-05
3.747933e-12
-6.9765814e-05
-7.5114505e-05
3.8593007e-12
-5.5750407e-05
-7.2515499e-05
4.0494541e-12
-4.2500573e-05
-6.7590171e-05
4.2439927e-12
-3.0450363e-05
-6.0468577e-05
4.1694619e-12
-1.999783e-05
-5.1409416e-05
4.4399569e-12
-1.1486357e-05
-4.0800883e-05
6.554371e-12
-5.1917911e-06
-2.9152949e-05
4.921158e-12
-1.3177915e-06
-1.7081619e-05
-6.7717503e-12
-5.3115919e-06
1.4544785e-11
-1.8385525e-06
9.0061401e-06
-2.1813997e-11
-6.7044616e-06
2.5351872e-05
8.1748494e-12
-1.4021542e-05
3.9633476e-05
-7.5519528e-12
-2.3279822e-05
5.1665858e-05
-9.8575179e-12
-3.4028498e-05
6.1406335e-05
-6.5649792e-12
-4.5870161e-05
6.8902543e-05
-5.6893606e-12
-5.8455207e-05
7.4267037e-05
-5.2634248e-12
-7.1476504e-05
7.765305e-05
-4.6396496e-12
-8.4664154e-05
7.9232218e-05
-4.022772e-12
-9.7780216e-05
7.9176871e-05
-3.4214013e-12
-0.00011061338
7.7647218e-05
-2.8379765e-12
-0.00012297364
7.4783232e-05
-2.2326258e-12
-0.00013468724
7.07009e-05
-1.7273177e-12
-0.00014559202
6.5492298e-05
-1.2213502e-12
-0.00015553346
5.9228859e-05
-6.906216e-13
-0.00016436165
5.1967149e-05
-2.6704428e-13
-0.00017192949
4.3756507e-05
1.8105414e-13
-0.00017809216
3.4647924e-05
6.9352114e-13
-0.00018270818
2.4703611e-05
1.1524151e-12
-0.00018564215
1.4006686e-05
1.5299578e-12
-0.00018676914
2.6704556e-06
1.9687497e-12
-0.00018598105
-9.1536164e-06
2.3857756e-12
-0.00018319439
-2.1269149e-05
2.7409549e-12
-0.00017835963
-3.3431385e-05
2.9661934e-12
-0.00017147139
-4.5346703e-05
3.1614538e-12
-0.00016257885
-5.6676528e-05
3.4176368e-12
-0.00015179539
-6.7046227e-05
3.64674e-12
-0.00013930631
-7.6059411e-05
3.7881518e-12
-0.00012537323
-8.3317665e-05
3.8634139e-12
-0.00011033388
-8.8445047e-05
3.9180168e-12
-9.4596165e-05
-9.1116029e-05
4.0124571e-12
-7.8625907e-05
-9.1084769e-05
4.1401374e-12
-6.2928365e-05
-8.8213047e-05
4.2876622e-12
-4.8024637e-05
-8.2493907e-05
4.4275023e-12
-3.4424908e-05
-7.4068312e-05
4.3303298e-12
-2.2601351e-05
-6.3232978e-05
4.589176e-12
-1.296378e-05
-5.0438459e-05
6.9298488e-12
-5.8412703e-06
-3.6275462e-05
5.1377258e-12
-1.4721325e-06
-2.1450747e-05
-7.9003848e-12
-6.7837399e-06
1.6067848e-11
-1.9966778e-06
1.1002844e-05
-2.1710609e-11
-7.2824191e-06
3.06376e-05
1.096977e-11
-1.5223718e-05
4.7574786e-05
-6.2820383e-12
-2.5257082e-05
6.1699231e-05
-8.9944455e-12
-3.6885608e-05
7.3034869e-05
-5.6508761e-12
-4.9674496e-05
8.1691436e-05
-4.9523926e-12
-6.3245517e-05
8.7838064e-05
-4.7594426e-12
-7.7270896e-05
9.1678434e-05
-4.2946115e-12
-9.1466802e-05
9.3428128e-05
-3.776978e-12
-0.00010558661
9.3296685e-05
-3.2632343e-12
-0.00011941409
9.1474702e-05
-2.7614111e-12
-0.00013275669
8.8125826e-05
-2.2159306e-12
-0.00014543912
8.3383336e-05
-1.7719922e-12
-0.00015729761
7.7350789e-05
-1.3002119e-12
-0.00016817485
7.0106096e-05
-7.6915826e-13
-0.00017791605
6.1708348e-05
-3.2702927e-13
-0.00018636626
5.2206718e-05
1.3044233e-13
-0.00019336918
4.1650842e-05
6.6907311e-13
-0.00019876765
3.0102089e-05
1.1825503e-12
-0.00020240614
1.764517e-05
1.6269331e-12
-0.00020413518
4.3994972e-06
2.086668e-12
-0.00020381819
-9.4706072e-06
2.5179255e-12
-0.00020134029
-2.3747045e-05
2.9050331e-12
-0.00019661935
-3.8152332e-05
3.1823857e-12
-0.00018961844
-5.2347621e-05
3.4311274e-12
-0.00018035923
-6.593574e-05
3.7043898e-12
-0.0001689351
-7.8470357e-05
3.935515e-12
-0.00015552249
-8.9472019e-05
4.095173e-12
-0.00014038881
-9.8451356e-05
4.1791299e-12
-0.00012389495
-0.00010493891
4.20955e-12
-0.00010649092
-0.00010852007
4.2786594e-12
-8.870324e-05
-0.00010887245
4.3898259e-12
-7.1114096e-05
-0.0001058022
4.4818152e-12
-5.4333145e-05
-9.9274864e-05
4.5603991e-12
-3.8964378e-05
-8.9437084e-05
4.4577329e-12
-2.557141e-05
-7.662595e-05
4.7899427e-12
-1.4645135e-05
-6.1364739e-05
7.4464153e-12
-6.5778012e-06
-4.4342798e-05
5.4462146e-12
-1.6463226e-06
-2.6382215e-05
-9.0942223e-12
-8.4300804e-06
1.7816585e-11
-2.1519145e-06
1.3154785e-05
-2.1990485e-11
-7.850343e-06
3.6336013e-05
1.3332524e-11
-1.6406683e-05
5.6131137e-05
-5.3774786e-12
-2.7205887e-05
7.2498445e-05
-8.4223186e-12
-3.9706383e-05
8.5535372e-05
-5.0254911e-12
-5.3437017e-05
9.5422074e-05
-4.4486732e-12
-6.7991829e-05
0.00010239288
-4.4175226e-12
-8.3023395e-05
0.00010671
-4.0518511e-12
-9.8235224e-05
0.00010863996
-3.6066108e-12
-0.00011337364
0.0001084351
-3.1670669e-12
-0.00012821944
0.00010632051
-2.7383168e-12
-0.00014257974
0.00010248612
-2.2475207e-12
-0.00015628011
9.7083706e-05
-1.8349893e-12
-0.00016915746
9.0228146e-05
-1.3686073e-12
-0.00018105381
8.2002447e-05
-8.3090905e-13
-0.00019181113
7.2465667e-05
-3.5865694e-13
-0.00020126761
6.1663198e-05
1.2766193e-13
-0.0002092555
4.9638737e-05
6.975363e-13
-0.00021560086
3.6447446e-05
1.2565865e-12
-0.00022012541
2.2169719e-05
1.7620687e-12
-0.0002226509
6.9249919e-06
2.2422335e-12
-0.00022300621
-9.1153027e-06
2.693292e-12
-0.00022103712
-2.5716133e-05
3.1154234e-12
-0.00021661921
-4.2570248e-05
3.4620821e-12
-0.00020967295
-5.9293882e-05
3.780641e-12
-0.00020018071
-7.5427987e-05
4.0712011e-12
-0.00018820417
-9.0446892e-05
4.2964875e-12
-0.00017390061
-0.00010377559
4.4749778e-12
-0.00015753555
-0.00011481642
4.5824737e-12
-0.00013948956
-0.0001229849
4.5855771e-12
-0.00012025654
-0.0001277531
4.5835328e-12
-0.00010043152
-0.00012869747
4.6475095e-12
-8.0687462e-05
-0.00012554626
4.7097555e-12
-6.1741489e-05
-0.00011822084
4.7502234e-12
-4.431351e-05
-0.00010686507
4.6166916e-12
-2.9081334e-05
-9.1858128e-05
5.0444451e-12
-1.6637532e-05
-7.3808546e-05
8.0579291e-12
-7.453534e-06
-5.35268e-05
5.794052e-12
-1.8548273e-06
-3.1980911e-05
-1.055706e-11
-1.0284928e-05
1.9853276e-11
-2.3073121e-06
1.5462124e-05
-2.2505341e-11
-8.4184688e-06
4.244715e-05
1.5451958e-11
-1.7590079e-05
6.5302758e-05
-4.735645e-12
-2.9156033e-05
8.4064406e-05
-8.0999396e-12
-4.2530562e-05
9.8909906e-05
-4.593915e-12
-5.7206696e-05
0.00011009821
-4.0827781e-12
-7.2751464e-05
0.00011793765
-4.1580155e-12
-8.8798824e-05
0.00012275737
-3.8646752e-12
-0.00010504105
0.00012488219
-3.4847583e-12
-0.00012121924
0.00012461329
-3.0991703e-12
-0.00013711346
0.00012221474
-2.7272215e-12
-0.000152533
0.00011790567
-2.2728718e-12
-0.00016730698
0.00011185769
-1.8739007e-12
-0.00018127575
0.00010419691
-1.4073888e-12
-0.00019428318
9.5009888e-05
-8.6749752e-13
-0.00020617024
8.4352729e-05
-3.6197448e-13
-0.00021676985
7.2262802e-05
1.5737852e-13
-0.00022590351
5.87724e-05
7.4620509e-13
-0.00023337996
4.3923895e-05
1.3335458e-12
-0.00023899616
2.7785914e-05
1.8966582e-12
-0.00024254115
1.0469977e-05
2.4176877e-12
-0.0002438032
-7.8532529e-06
2.9126367e-12
-0.0002425804
-2.6938936e-05
3.3831421e-12
-0.00023869535
-4.64553e-05
3.8049946e-12
-0.0002320132
-6.5976034e-05
4.2032326e-12
-0.00022246276
-8.4978431e-05
4.5342203e-12
-0.00021005928
-0.00010285037
4.7713487e-12
-0.00019492691
-0.00011890797
4.9622959e-12
-0.00017731792
-0.00013242541
5.0870724e-12
-0.00015762555
-0.00014267727
5.0694798e-12
-0.00013638673
-0.00014899193
4.9849063e-12
-0.00011427174
-0.00015081247
4.9900003e-12
-9.205894e-05
-0.00014775906
5.0546153e-12
-7.0594873e-05
-0.00013968491
5.0874865e-12
-5.0742555e-05
-0.00012671739
4.8831665e-12
-3.3323418e-05
-0.00010927727
5.3507885e-12
-1.9059836e-05
-8.8072135e-05
8.7408949e-12
-8.5260925e-06
-6.406055e-05
6.1368064e-12
-2.1134648e-06
-3.8393526e-05
-1.2490144e-11
-1.2398415e-05
2.2320304e-11
-2.4653874e-06
1.7927541e-05
-2.3245634e-11
-8.9954701e-06
4.897721e-05
1.7407337e-11
-1.8790767e-05
7.5098065e-05
-4.2731182e-12
-3.1133164e-05
9.6406808e-05
-7.9711909e-12
-4.5392121e-05
0.00011316887
-4.3238779e-12
-6.1024719e-05
0.00012573081
-3.8538888e-12
-7.7571359e-05
0.0001344843
-4.00331e-12
-9.4648324e-05
0.00013983434
-3.759074e-12
-0.00011193816
0.00014217203
-3.4417124e-12
-0.00012917877
0.00014185391
-3.0989227e-12
-0.000146152
0.00013918797
-2.7673999e-12
-0.00016267215
0.00013442583
-2.3295798e-12
-0.00017857503
0.00012776057
-1.9207414e-12
-0.00019370764
0.00011932953
-1.4432175e-12
-0.00020791895
0.0001092212
-9.0200554e-13
-0.00022105181
9.7485586e-05
-3.5740978e-13
-0.0002329363
8.4147298e-05
2.0831691e-13
-0.00024338485
6.9220942e-05
8.218945e-13
-0.00025218932
5.2728364e-05
1.4376671e-12
-0.00025912082
3.4717408e-05
2.055655e-12
-0.00026393257
1.5281726e-05
2.6299746e-12
-0.00026636681
-5.4190158e-06
3.1781689e-12
-0.00026616554
-2.7140209e-05
3.7258126e-12
-0.00026308722
-4.9533617e-05
4.2226453e-12
-0.00025692755
-7.2135704e-05
4.6917114e-12
-0.00024754523
-9.4360762e-05
5.0844278e-12
-0.00023489095
-0.00011550465
5.3711381e-12
-0.00021903756
-0.00013476137
5.5812501e-12
-0.00020020782
-0.00015125517
5.7137421e-12
-0.00017879566
-0.00016408943
5.6989954e-12
-0.00015537601
-0.00017241159
5.5587556e-12
-0.00013069832
-0.00017549016
5.4839542e-12
-0.00010566067
-0.00017279671
5.5154761e-12
-8.1263441e-05
-0.00016408215
5.535902e-12
-5.8545393e-05
-0.00014943544
5.2582819e-12
-3.850885e-05
-0.00012931382
5.7145644e-12
-2.2043378e-05
-0.00010453762
9.5720694e-12
-9.8593078e-06
-7.6244628e-05
6.4869156e-12
-2.4397556e-06
-4.5813063e-05
-1.505133e-11
-1.4838194e-05
2.5363194e-11
-2.6282384e-06
2.0555808e-05
-2.4176254e-11
-9.5887178e-06
5.5937664e-05
1.9242218e-11
-2.0023132e-05
8.5532486e-05
-3.9839321e-12
-3.315901e-05
0.00010954269
-7.9843895e-12
-4.8319321e-05
0.00012832918
-4.1697901e-12
-6.4924255e-05
0.00014233575
-3.7238906e-12
-8.2487498e-05
0.00015204755
-3.9645509e-12
-0.0001006084
0.00015795524
-3.7558679e-12
-0.00011896127
0.0001605249
-3.4708718e-12
-0.00013728303
0.00016017567
-3.1570386e-12
-0.00015536002
0.00015726496
-2.843012e-12
-0.00017301481
0.00015208062
-2.4087331e-12
-0.00019009341
0.00014483917
-1.9725444e-12
-0.00020645329
0.00013568941
-1.4667386e-12
-0.00022195237
0.00012472028
-9.152599e-13
-0.00023643918
0.0001119724
-3.2578654e-13
-0.00024974446
9.7452577e-05
2.9681596e-13
-0.00026167434
8.1150819e-05
9.4602639e-13
-0.00027200567
6.3059696e-05
1.5965149e-12
-0.00028048404
4.319577e-05
2.2591645e-12
-0.00028682514
2.1622827e-05
2.8789446e-12
-0.00029072104
-1.5231208e-06
3.4604482e-12
-0.00029185007
-2.6011183e-05
4.1290662e-12
-0.0002898957
-5.1487991e-05
4.7250754e-12
-0.00028456934
-7.7462066e-05
5.2731259e-12
-0.00027564116
-0.00010328895
5.7512667e-12
-0.00026297599
-0.00012816982
6.1244104e-12
-0.00024657254
-0.00015116483
6.3563398e-12
-0.00022660191
-0.0001712258
6.4659746e-12
-0.00020344029
-0.00018725106
6.4607496e-12
-0.0001776891
-0.00019816278
6.3067731e-12
-0.00015017597
-0.0002030033
6.1327258e-12
-0.00012193057
-0.00020104211
6.0384171e-12
-9.4132741e-05
-0.00019187998
5.9701518e-12
-6.8034864e-05
-0.00017553332
5.5994153e-12
-4.4866208e-05
-0.00015248248
6.0335902e-12
-2.5732042e-05
-0.00012367179
1.0545252e-11
-1.1523725e-05
-9.0452953e-05
6.8606091e-12
-2.8532044e-06
-5.4483564e-05
-1.8340398e-11
-1.7691427e-05
2.9122681e-11
-2.7976836e-06
2.335352e-05
-2.5248298e-11
-1.0204674e-05
6.3344627e-05
2.1056848e-11
-2.1299709e-05
9.6627526e-05
-3.7801496e-12
-3.525214e-05
0.00012349513
-8.0633888e-12
-5.1335453e-05
0.0001444125
-4.0894102e-12
-6.8931073e-05
0.00015993137
-3.6451674e-12
-8.7525273e-05
0.00017064175
-3.9641597e-12
-0.0001067009
0.00017713087
-3.7909994e-12
-0.00012612547
0.00017994948
-3.5115366e-12
-0.00014553716
0.00017958736
-3.2090654e-12
-0.00016472977
0.00017645757
-2.8978329e-12
-0.00018353761
0.00017088847
-2.4743938e-12
-0.0002018209
0.00016312246
-2.0144863e-12
-0.00021945185
0.00015332038
-1.4746949e-12
-0.00023630191
0.00014157034
-9.0558897e-13
-0.00025222999
0.00012790048
-2.722831e-13
-0.00026707204
0.00011229463
4.0202777e-13
-0.00028063217
9.4710954e-05
1.0876166e-12
-0.00029267575
7.5103265e-05
1.7815952e-12
-0.0003029251
5.3445119e-05
2.4966418e-12
-0.00031105897
2.9756689e-05
3.198823e-12
-0.00031671642
4.1343245e-06
3.9398027e-12
-0.00031950775
-2.3219854e-05
4.6271385e-12
-0.00031903119
-5.1964553e-05
5.337917e-12
-0.00031489974
-8.1593528e-05
5.9958682e-12
-0.00030677582
-0.00011141288
6.5733463e-12
-0.00029441456
-0.00014053108
7.0417461e-12
-0.00027771317
-0.00016786622
7.2909407e-12
-0.00025676244
-0.00019217654
7.3366708e-12
-0.0002318941
-0.00021211941
7.3045371e-12
-0.0002037158
-0.00022634108
7.1524196e-12
-0.00017312416
-0.00023359494
6.8922676e-12
-0.00014128679
-0.00023287949
6.6252443e-12
-0.00010958738
-0.0002235794
6.3764381e-12
-7.9533814e-05
-0.0002055869
5.8275937e-12
-5.2637599e-05
-0.0001793787
6.2391796e-12
-3.0281261e-05
-0.00014602814
1.1582512e-11
-1.3596707e-05
-0.00010713751
7.2526631e-12
-3.3754916e-06
-6.4704753e-05
-2.2485799e-11
-2.1066951e-05
3.3741984e-11
-2.9754401e-06
2.632899e-05
-2.6476079e-11
-1.0849434e-05
7.1218589e-05
2.2866315e-11
-2.263212e-05
0.00010841022
-3.6473881e-12
-3.7429202e-05
0.00013829222
-8.2203907e-12
-5.4460248e-05
0.00016144355
-4.0918956e-12
-7.3064936e-05
0.00017853606
-3.6639185e-12
-9.270071e-05
0.00019027753
-4.0221977e-12
-0.00011293394
0.00019736411
-3.8640135e-12
-0.00013342661
0.00020044216
-3.5883097e-12
-0.00015392041
0.00020008117
-3.2821625e-12
-0.00017421965
0.00019675681
-2.9590562e-12
-0.00019417411
0.00019084294
-2.5467724e-12
-0.00021366243
0.00018261079
-2.0610709e-12
-0.00023257632
0.00017223427
-1.4823308e-12
-0.00025080587
0.0001597999
-8.8511047e-13
-0.00026822588
0.00014532049
-2.0263116e-13
-0.00028468328
0.00012875203
5.2288433e-13
-0.00029998594
0.00011001361
1.2449527e-12
-0.00031389316
8.9010481e-05
1.9861814e-12
-0.00032610875
6.5660705e-05
2.7686161e-12
-0.00033627766
3.9925593e-05
3.5588663e-12
-0.00034398746
1.1844121e-05
4.3768413e-12
-0.00034877745
-1.8429868e-05
5.1789473e-12
-0.00035015451
-5.0587499e-05
6.0493882e-12
-0.00034762116
-8.4126879e-05
6.837484e-12
-0.00034071387
-0.00011832018
7.5007263e-12
-0.00032905316
-0.0001521918
8.0565095e-12
-0.00031240374
-0.00018451565
8.3747834e-12
-0.00029074073
-0.00021383956
8.4084978e-12
-0.00026431522
-0.00023854494
8.3222073e-12
-0.00023370912
-0.00025694719
8.1162325e-12
-0.00019986687
-0.0002674372
7.7563543e-12
-0.00016409031
-0.00026865605
7.3358107e-12
-0.00012798597
-0.00025968375
6.8783707e-12
-9.3360473e-05
-0.0002402124
6.0748476e-12
-6.2071639e-05
-0.00021066754
6.4823389e-12
-3.5855555e-05
-0.00017224424
1.2787576e-11
-1.616204e-05
-0.00012683103
7.682717e-12
-4.0305782e-06