/*--------------------------------*- C++ -*----------------------------------*\
  =========                 |
  \\      /  F ield         | OpenFOAM: The Open Source CFD Toolbox
   \\    /   O peration     | Website:  https://openfoam.org
    \\  /    A nd           | Version:  7
     \\/     M anipulation  |
\*---------------------------------------------------------------------------*/
FoamFile
{
    version     2.0;
    format      ascii;
    class       volVectorField;
    location    "2";
    object      U;
}
// * * * * * * * * * * * * * * * * * * * * * * * * * * * * * * * * * * * * * //

dimensions      [0 1 -1 0 0 0 0];

internalField   nonuniform List<vector> 
16000
(
(3.9399724e-05 -3.9416285e-05 2.2124017e-07)
(7.7674531e-05 -2.1827841e-05 5.0993874e-06)
(1.7412221e-05 1.9863401e-05 1.3521399e-05)
(-0.00015729498 6.0247136e-05 2.3220284e-05)
(-0.0004353836 9.3147314e-05 3.2239408e-05)
(-0.0007961292 0.00011750541 3.93491e-05)
(-0.0012181537 0.00013417194 4.3777285e-05)
(-0.0016818615 0.00014448083 4.5088595e-05)
(-0.0021703363 0.00014968897 4.3071591e-05)
(-0.0026693098 0.00015082499 3.7658468e-05)
(-0.0031667959 0.00014867442 2.8871485e-05)
(-0.0036526304 0.00014380045 1.6789445e-05)
(-0.0041180118 0.00013657686 1.5280105e-06)
(-0.0045550883 0.00012722522 -1.6769305e-05)
(-0.0049566193 0.00011585408 -3.7932357e-05)
(-0.0053157293 0.00010249764 -6.1761076e-05)
(-0.0056257605 8.7153245e-05 -8.8018599e-05)
(-0.0058802276 6.9818362e-05 -0.00011642278)
(-0.006072876 5.0526515e-05 -0.00014663811)
(-0.0061978327 2.9378429e-05 -0.000178269)
(-0.0062498488 6.5715533e-06 -0.00021085497)
(-0.0062246114 -1.7578562e-05 -0.00024387104)
(-0.0061191125 -4.2618663e-05 -0.00027673148)
(-0.0059320523 -6.7952555e-05 -0.00030880058)
(-0.005664237 -9.2845264e-05 -0.00033940833)
(-0.0053189486 -0.00011643819 -0.00036787258)
(-0.0049022425 -0.00013777789 -0.00039352741)
(-0.0044231381 -0.00015585853 -0.0004157552)
(-0.0038936742 -0.00016967193 -0.00043402234)
(-0.0033287987 -0.00017826269 -0.00044791573)
(-0.0027460862 -0.00018078355 -0.00045717786)
(-0.0021652894 -0.00017654145 -0.00046173979)
(-0.0016077363 -0.00016502962 -0.00046175015)
(-0.0010956027 -0.00014594661 -0.0004575998)
(-0.00065104957 -0.00011922056 -0.00044994661)
(-0.00029496436 -8.5142356e-05 -0.00043974901)
(-4.4907073e-05 -4.4974509e-05 -0.00042829336)
(8.6242802e-05 -2.4854277e-06 -0.00041713223)
(0.00010196141 3.4663879e-05 -0.00040855477)
(4.1575991e-05 4.1425408e-05 -0.00037845574)
(2.2866838e-05 -7.8522201e-05 -4.3475774e-06)
(-4.3779234e-05 4.4908505e-05 5.2476752e-07)
(-0.00034916628 0.00024833941 7.5672742e-06)
(-0.00090271748 0.00045026787 1.5205291e-05)
(-0.0016844303 0.00062337052 2.2169611e-05)
(-0.0026575443 0.00075899491 2.7455889e-05)
(-0.0037784761 0.00085705213 3.0383366e-05)
(-0.0050037342 0.00092103427 3.0522963e-05)
(-0.0062931717 0.00095542698 2.7625874e-05)
(-0.0076110266 0.00096457104 2.1572769e-05)
(-0.0089259358 0.00095220139 1.2335361e-05)
(-0.010210444 0.00092128696 -5.0759034e-08)
(-0.011440293 0.0008740304 -1.550295e-05)
(-0.01259367 0.00081195878 -3.3900649e-05)
(-0.013650549 0.00073606524 -5.5087438e-05)
(-0.014592185 0.00064698027 -7.8869364e-05)
(-0.015400807 0.00054515788 -0.0001050105)
(-0.016059534 0.00043106451 -0.00013322677)
(-0.016552524 0.00030536612 -0.00016317972)
(-0.01686533 0.00016909915 -0.00019447237)
(-0.016985464 2.3820866e-05 -0.00022664624)
(-0.016903124 -0.00012827359 -0.00025918403)
(-0.016612036 -0.00028425906 -0.00029151424)
(-0.016110369 -0.00044046664 -0.00032302273)
(-0.015401629 -0.00059250948 -0.00035306938)
(-0.014495468 -0.00073538252 -0.00038100988)
(-0.01340832 -0.00086362913 -0.00040622313)
(-0.012163779 -0.00097157412 -0.00042814211)
(-0.010792639 -0.0010536098 -0.00044628731)
(-0.0093325569 -0.0011045144 -0.00046030046)
(-0.0078272706 -0.0011197819 -0.00046997679)
(-0.006325387 -0.0010959405 -0.00047529385)
(-0.0048787203 -0.0010308505 -0.00047643487)
(-0.0035401783 -0.00092400439 -0.00047380571)
(-0.0023611273 -0.00077693457 -0.00046804532)
(-0.0013879492 -0.00059407202 -0.00046003136)
(-0.00065723163 -0.00038490834 -0.00045087869)
(-0.0001891687 -0.00016830824 -0.00044191951)
(2.4413018e-05 2.1105094e-05 -0.0004346986)
(3.5450419e-05 0.00010162826 -0.00040077557)
(-1.8346714e-05 -2.0255745e-05 -1.2659319e-05)
(-0.00024949882 0.00035010581 -6.2835967e-06)
(-0.00085564147 0.00084739278 8.4739208e-07)
(-0.0018072221 0.0013381725 7.5795094e-06)
(-0.0030689412 0.0017665432 1.337313e-05)
(-0.0045937597 0.0021100044 1.7496607e-05)
(-0.0063244835 0.002363958 1.942802e-05)
(-0.0082021505 0.0025329675 1.8829986e-05)
(-0.01017068 0.00262535 1.5491351e-05)
(-0.012178671 0.002650266 9.2979303e-06)
(-0.014179906 0.0026162432 2.097908e-07)
(-0.01613312 0.0025304907 -1.1757615e-05)
(-0.018001331 0.0023986809 -2.6544917e-05)
(-0.019751043 0.0022250283 -4.405461e-05)
(-0.021351475 0.0020125476 -6.4152678e-05)
(-0.022773961 0.0017634239 -8.6666737e-05)
(-0.023991588 0.0014794459 -0.00011138159)
(-0.024979112 0.0011624625 -0.00013803432)
(-0.025713189 0.00081483688 -0.00016630909)
(-0.026172885 0.00043987453 -0.00019583416)
(-0.02634047 4.2189566e-05 -0.00022617971)
(-0.026202408 -0.00037200123 -0.00025686137)
(-0.025750537 -0.00079468296 -0.00028734355)
(-0.024983325 -0.0012160018 -0.00031705316)
(-0.023907075 -0.0016243529 -0.00034539411)
(-0.022537018 -0.002006647 -0.00037176884)
(-0.020898148 -0.0023487474 -0.00039560389)
(-0.019025689 -0.0026360697 -0.00041637893)
(-0.016965083 -0.0028543189 -0.0004336585)
(-0.01477141 -0.0029903219 -0.00044712315)
(-0.012508181 -0.0030329087 -0.00045659797)
(-0.010245474 -0.0029738028 -0.0004620775)
(-0.008057377 -0.002808509 -0.00046374375)
(-0.0060187443 -0.0025372616 -0.00046197512)
(-0.0042012162 -0.0021662443 -0.00045734434)
(-0.0026683644 -0.0017096243 -0.0004506063)
(-0.0014692032 -0.00119338 -0.00044268915)
(-0.00062972427 -0.00066161516 -0.00043465601)
(-0.00014842474 -0.00018761264 -0.00042740702)
(2.2923338e-06 9.0265876e-05 -0.0003922848)
(-6.021245e-05 0.00015543016 -2.2555046e-05)
(-0.00046505311 0.00091476024 -1.3786016e-05)
(-0.0013860198 0.0018065264 -5.4585571e-06)
(-0.002737425 0.0026664524 1.4248158e-06)
(-0.0044605712 0.003416608 6.9592329e-06)
(-0.0064968313 0.0040219417 1.0638161e-05)
(-0.0087776381 0.0044730264 1.2095886e-05)
(-0.011232438 0.0047749409 1.1109192e-05)
(-0.013793582 0.0049396372 7.5339328e-06)
(-0.016398202 0.0049813467 1.2887108e-06)
(-0.018988917 0.0049139761 -7.6557249e-06)
(-0.021513797 0.0047497441 -1.9286926e-05)
(-0.02392581 0.0044986279 -3.3557671e-05)
(-0.026182063 0.0041683519 -5.0387949e-05)
(-0.028243036 0.0037647359 -6.9664075e-05)
(-0.03007196 0.0032922693 -9.1235478e-05)
(-0.03163446 0.0027548241 -0.00011490948)
(-0.032898508 0.002156431 -0.00014044636)
(-0.03383471 0.0015020577 -0.0001675539)
(-0.034416953 0.00079834921 -0.00019588372)
(-0.034623357 5.4270203e-05 -0.00022503001)
(-0.034437472 -0.00071838856 -0.00025453197)
(-0.033849704 -0.0015047026 -0.000283877)
(-0.032858811 -0.002286521 -0.00031251454)
(-0.031473352 -0.0030426567 -0.00033986959)
(-0.029712993 -0.003749372 -0.00036536367)
(-0.027609497 -0.0043811695 -0.00038844037)
(-0.025207254 -0.0049118749 -0.00040859416)
(-0.022563218 -0.0053159695 -0.0004254014)
(-0.019746135 -0.0055701072 -0.00043855065)
(-0.016834978 -0.0056547388 -0.0004478703)
(-0.013916544 -0.0055557746 -0.00045335105)
(-0.011082186 -0.0052662593 -0.00045515964)
(-0.0084237157 -0.0047881275 -0.00045364175)
(-0.0060285551 -0.0041342833 -0.0004493104)
(-0.0039741877 -0.003331591 -0.00044282263)
(-0.0023209555 -0.0024256877 -0.00043497598)
(-0.0011035165 -0.0014880133 -0.00042665298)
(-0.00033617944 -0.00062724938 -0.00041823596)
(-3.3073248e-05 -2.2750139e-05 -0.00038115063)
(-9.7372765e-05 0.00044492029 -3.2107293e-05)
(-0.00066759252 0.0017370044 -2.0700115e-05)
(-0.0018955276 0.0031179577 -1.076039e-05)
(-0.0036347764 0.0044131941 -3.2459957e-06)
(-0.0057984643 0.0055333759 2.4818988e-06)
(-0.0083137654 0.0064360605 6.1004492e-06)
(-0.011100471 0.0071091685 7.3860221e-06)
(-0.01407781 0.0075590265 6.2295555e-06)
(-0.01716886 0.0078014468 2.5608968e-06)
(-0.020301949 0.0078558944 -3.6587882e-06)
(-0.023411222 0.0077419113 -1.2438588e-05)
(-0.02643661 0.0074770924 -2.3762033e-05)
(-0.029323319 0.0070761683 -3.7588914e-05)
(-0.032021098 0.0065508687 -5.3853836e-05)
(-0.034483478 0.0059103353 -7.2462568e-05)
(-0.036667166 0.0051618978 -9.3286984e-05)
(-0.038531695 0.0043120741 -0.00011615838)
(-0.040039411 0.0033676913 -0.00014086117)
(-0.041155826 0.0023370253 -0.00016712723)
(-0.041850349 0.0012308853 -0.00019463081)
(-0.042097383 6.356859e-05 -0.00022298655)
(-0.041877695 -0.0011463907 -0.00025175125)
(-0.041180033 -0.0023757725 -0.00028042739)
(-0.040002843 -0.0035965341 -0.00030847423)
(-0.038355953 -0.0047761069 -0.00033532241)
(-0.036262093 -0.0058781394 -0.00036039491)
(-0.033758052 -0.0068637023 -0.00038313228)
(-0.030895317 -0.0076929425 -0.0004030221)
(-0.027740019 -0.0083271282 -0.00041963121)
(-0.024372034 -0.0087309885 -0.00043263668)
(-0.020883156 -0.0088752343 -0.00044185337)
(-0.017374259 -0.0087391437 -0.00044725537)
(-0.013951475 -0.0083131416 -0.00044898767)
(-0.010721454 -0.0076013965 -0.00044736492)
(-0.0077859505 -0.0066246252 -0.00044285221)
(-0.0052359981 -0.0054236047 -0.00043603367)
(-0.0031444675 -0.0040640959 -0.0004276199)
(-0.0015579109 -0.0026431912 -0.00041838133)
(-0.00051122783 -0.0012985031 -0.00040829023)
(-6.3817529e-05 -0.00023503507 -0.00036907605)
(-0.00012911834 0.00083667407 -4.0009731e-05)
(-0.00085074008 0.0028025013 -2.5898961e-05)
(-0.0023678202 0.0047679248 -1.4172016e-05)
(-0.0044753602 0.0065627034 -5.7405801e-06)
(-0.00705675 0.0080961578 4.8527954e-07)
(-0.010022956 0.0093247697 4.3249786e-06)
(-0.013281193 0.010237421 5.6753457e-06)
(-0.016740663 0.010843608 4.5317149e-06)
(-0.020316209 0.011164001 8.9579022e-07)
(-0.023928934 0.011223863 -5.2269297e-06)
(-0.027506347 0.011048748 -1.3821727e-05)
(-0.030982148 0.010661949 -2.4864462e-05)
(-0.034295625 0.010083255 -3.8319126e-05)
(-0.037390867 0.0093287096 -5.4133367e-05)
(-0.040215967 0.0084110835 -7.2231957e-05)
(-0.042722404 0.0073408615 -9.2509158e-05)
(-0.044864678 0.0061275429 -0.00011482093)
(-0.04660031 0.004781125 -0.00013897651)
(-0.047890238 0.0033136339 -0.00016473125)
(-0.048699623 0.0017405909 -0.00019178064)
(-0.048999051 8.2309461e-05 -0.0002197568)
(-0.048766074 -0.0016350755 -0.00024822825)
(-0.04798702 -0.0033789748 -0.00027670378)
(-0.04665894 -0.0051101601 -0.0003046416)
(-0.04479157 -0.0067831569 -0.0003314638)
(-0.042409112 -0.0083472588 -0.00035657774)
(-0.039551646 -0.0097481937 -0.00037940215)
(-0.03627597 -0.010930427 -0.00039939814)
(-0.032655654 -0.011840023 -0.0004161031)
(-0.028780127 -0.012427945 -0.00042916384)
(-0.024752678 -0.012653619 -0.00043836619)
(-0.020687294 -0.012488582 -0.00044365723)
(-0.016704369 -0.011920055 -0.00044515634)
(-0.012925408 -0.010954383 -0.00044315181)
(-0.0094671694 -0.0096203991 -0.00043807645)
(-0.0064356155 -0.0079730502 -0.00043047135)
(-0.0039182436 -0.0060977387 -0.00042100634)
(-0.0019760262 -0.0041150384 -0.00041040658)
(-0.00066567681 -0.0021864721 -0.0003983504)
(-8.8451265e-05 -0.00053372082 -0.00035700817)
(-0.00015628852 0.0013191113 -4.5311208e-05)
(-0.0010150484 0.0040921922 -2.8480869e-05)
(-0.0028007201 0.0067357006 -1.492381e-05)
(-0.0052546336 0.0090932446 -5.4165435e-06)
(-0.008230955 0.011081103 1.5022117e-06)
(-0.011623439 0.012660894 5.7595783e-06)
(-0.01532595 0.013826684 7.3511004e-06)
(-0.019237479 0.014593831 6.3628869e-06)
(-0.023265051 0.014989526 2.8616081e-06)
(-0.027323452 0.015045831 -3.1052498e-06)
(-0.031334792 0.014794937 -1.1499555e-05)
(-0.035227948 0.01426623 -2.228889e-05)
(-0.038937729 0.013484821 -3.5440979e-05)
(-0.042403933 0.012471244 -5.0915854e-05)
(-0.045570452 0.011242026 -6.8657366e-05)
(-0.04838456 0.0098108929 -8.8582843e-05)
(-0.050796506 0.0081904013 -0.00011057325)
(-0.052759484 0.0063938054 -0.00013446318)
(-0.054230034 0.0044370109 -0.00016003138)
(-0.055168903 0.0023404654 -0.00018699307)
(-0.055542336 0.00013084674 -0.00021499502)
(-0.055323789 -0.0021575833 -0.0002436127)
(-0.054495948 -0.0044821096 -0.00027235349)
(-0.053052964 -0.006791285 -0.00030066412)
(-0.051002755 -0.0090253935 -0.00032794533)
(-0.048369155 -0.01111773 -0.00035357334)
(-0.045193714 -0.012996755 -0.00037692705)
(-0.041536874 -0.014589106 -0.00039742158)
(-0.037478287 -0.015823392 -0.00041454543)
(-0.033116028 -0.01663459 -0.00042789714)
(-0.028564537 -0.016968823 -0.00043721826)
(-0.023951215 -0.01678823 -0.00044241841)
(-0.019411678 -0.016075661 -0.00044358799)
(-0.015083907 -0.014838977 -0.00044099487)
(-0.011101812 -0.013114872 -0.00043505689)
(-0.0075887796 -0.010972339 -0.00042630278)
(-0.0046494317 -0.008515995 -0.00041540595)
(-0.0023610436 -0.0058886846 -0.00040310735)
(-0.00080149817 -0.003273575 -0.00038889694)
(-0.00010784785 -0.00090641516 -0.00034547018)
(-0.00018003571 0.0018823888 -4.7308714e-05)
(-0.0011636999 0.0055876518 -2.7717238e-05)
(-0.0031988281 0.0089999455 -1.2358816e-05)
(-0.0059784327 0.011982626 -1.7059273e-06)
(-0.009328995 0.014465383 6.0151887e-06)
(-0.013126916 0.01642053 1.0813847e-05)
(-0.017252361 0.017851605 1.2766002e-05)
(-0.021593954 0.018782915 1.2035045e-05)
(-0.0260511 0.019250281 8.7441619e-06)
(-0.030532833 0.019293957 2.9777021e-06)
(-0.034956735 0.018953647 -5.2059197e-06)
(-0.039247914 0.018265353 -1.5767446e-05)
(-0.043337835 0.017259785 -2.8679362e-05)
(-0.047163116 0.015962062 -4.3915186e-05)
(-0.050664441 0.014392432 -6.1438757e-05)
(-0.053785694 0.012567731 -8.1191576e-05)
(-0.056473434 0.010503372 -0.0001030807)
(-0.058676786 0.0082156362 -0.00012696699)
(-0.060347807 0.0057240925 -0.00015265339)
(-0.061442358 0.0030539588 -0.0001798744)
(-0.061921483 0.00023824719 -0.00020828924)
(-0.061753279 -0.002680485 -0.00023747684)
(-0.060915171 -0.005648954 -0.00026693735)
(-0.059396494 -0.0086027043 -0.00029609747)
(-0.057201232 -0.011466578 -0.00032432476)
(-0.054350687 -0.014156228 -0.00035094956)
(-0.050885827 -0.016580757 -0.00037529392)
(-0.046869 -0.018646501 -0.00039670809)
(-0.042384715 -0.020261859 -0.00041461176)
(-0.037539162 -0.021342962 -0.00042853587)
(-0.032458241 -0.021819875 -0.00043816131)
(-0.027283972 -0.021642914 -0.00044334894)
(-0.022169293 -0.020788658 -0.00044415619)
(-0.017271488 -0.019265237 -0.00044083566)
(-0.012744942 -0.017116613 -0.0004338064)
(-0.0087338586 -0.01442577 -0.00042361362)
(-0.0053629141 -0.011316826 -0.00041097487)
(-0.0027273951 -0.0079553452 -0.00039669977)
(-0.00092528766 -0.0045468864 -0.00038017261)
(-0.00012365055 -0.0013437217 -0.00033465202)
(-0.00020139171 0.0025189547 -4.5454362e-05)
(-0.0013004752 0.0072734804 -2.299685e-05)
(-0.0035693283 0.011542132 -5.8913225e-06)
(-0.0066572792 0.015211622 5.9284035e-06)
(-0.010364945 0.018229969 1.4508505e-05)
(-0.014551772 0.020584956 1.9922892e-05)
(-0.019084256 0.022293672 2.2314155e-05)
(-0.023840678 0.023392597 2.1911371e-05)
(-0.02871301 0.023928569 1.8885778e-05)
(-0.03360498 0.023951711 1.335275e-05)
(-0.038430319 0.023510349 5.3871377e-06)
(-0.043111224 0.022647758 -4.9682359e-06)
(-0.047576755 0.021400561 -1.7692934e-05)
(-0.051761286 0.019798506 -3.2775836e-05)
(-0.055603137 0.017865382 -5.0202508e-05)
(-0.059043469 0.015620791 -6.9940732e-05)
(-0.062025572 0.013082522 -9.1926047e-05)
(-0.064494608 0.01026932 -0.00011604744)
(-0.06639788 0.0072038182 -0.0001421334)
(-0.067685682 0.0039154419 -0.00016993885)
(-0.068312728 0.00044309094 -0.00019913554)
(-0.068240181 -0.0031626113 -0.00022930418)
(-0.067438217 -0.0068377165 -0.00025993333)
(-0.065889019 -0.010504224 -0.00029042271)
(-0.063590087 -0.014070456 -0.00032009675)
(-0.060557579 -0.017432719 -0.00034822637)
(-0.056829425 -0.02047841 -0.00037405967)
(-0.052467844 -0.023090597 -0.00039686197)
(-0.047560828 -0.025154009 -0.00041596242)
(-0.042222226 -0.026562185 -0.00043080286)
(-0.036590041 -0.027225374 -0.00044098437)
(-0.030822738 -0.02707863 -0.00044630468)
(-0.025093527 -0.026089462 -0.00044678113)
(-0.019582875 -0.02426438 -0.0004426535)
(-0.014470049 -0.021653788 -0.000434356)
(-0.0099244559 -0.018354942 -0.00042247628)
(-0.0060945063 -0.014512811 -0.0004078129)
(-0.0030956644 -0.010318069 -0.00039129067)
(-0.0010456302 -0.0060022958 -0.00037224693)
(-0.00013762165 -0.0018406332 -0.00032450957)
(-0.00022119137 0.0032234392 -3.9293037e-05)
(-0.0014289892 0.0091379969 -1.3788336e-05)
(-0.0039199598 0.014347767 5.0108912e-06)
(-0.0073032473 0.018765124 1.7997285e-05)
(-0.011355256 0.022360242 2.7464226e-05)
(-0.015919098 0.025140474 3.3539311e-05)
(-0.020847887 0.02714027 3.6421679e-05)
(-0.026009749 0.028411501 3.6397423e-05)
(-0.0312895 0.029014574 3.3678996e-05)
(-0.036586 0.029011363 2.8407083e-05)
(-0.041809759 0.028460102 2.0668511e-05)
(-0.046880831 0.027412127 1.0506267e-05)
(-0.051726729 0.025910327 -2.0690487e-06)
(-0.056280445 0.023989078 -1.7064675e-05)
(-0.060478707 0.021675409 -3.4491021e-05)
(-0.064260571 0.018991126 -5.4345007e-05)
(-0.067566422 0.015955639 -7.659368e-05)
(-0.070337502 0.012589236 -0.00010115766)
(-0.072516013 0.008916606 -0.00012789449)
(-0.07404587 0.0049703666 -0.00015658255)
(-0.074874146 0.00079438637 -0.00018690823)
(-0.074953248 -0.003553338 -0.00021845467)
(-0.074243771 -0.0079985131 -0.00025069745)
(-0.07271799 -0.012449372 -0.00028300488)
(-0.07036385 -0.016796795 -0.00031464995)
(-0.067189179 -0.020915997 -0.00034483137)
(-0.063225831 -0.024670009 -0.00037270587)
(-0.058533285 -0.027915079 -0.0003974323)
(-0.053201203 -0.03050793 -0.00041822474)
(-0.047350377 -0.032314634 -0.00043441026)
(-0.041131567 -0.033220586 -0.0004454857)
(-0.034721845 -0.033140835 -0.00045116569)
(-0.028318329 -0.032029868 -0.00045141514)
(-0.022129518 -0.029889865 -0.00044645908)
(-0.016365145 -0.026776566 -0.00043675707)
(-0.011225472 -0.022802177 -0.00042296168)
(-0.0068875368 -0.018135051 -0.00040598628)
(-0.0034902482 -0.012995336 -0.00038691353)
(-0.0011721154 -0.0076468872 -0.00036507152)
(-0.00015149139 -0.0023971035 -0.00031484564)
(-0.00024009472 0.0039923725 -2.8421897e-05)
(-0.0015524517 0.011173263 3.8853357e-07)
(-0.0042581058 0.017406767 2.0841659e-05)
(-0.0079283271 0.022632594 3.4989572e-05)
(-0.012316553 0.026846226 4.5358299e-05)
(-0.017250179 0.030078222 5.2123378e-05)
(-0.022569317 0.032383965 5.5534623e-05)
(-0.02813226 0.033833921 5.592899e-05)
(-0.03381703 0.034504703 5.3554681e-05)
(-0.039518122 0.034471975 4.8573482e-05)
(-0.04514348 0.03380532 4.1080338e-05)
(-0.050611801 0.032565023 3.1114791e-05)
(-0.055849909 0.030800637 1.8674072e-05)
(-0.060790284 0.028551128 3.7292411e-06)
(-0.065368869 0.025846345 -1.3758514e-05)
(-0.06952326 0.022709545 -3.3819348e-05)
(-0.073191353 0.019160704 -5.6456467e-05)
(-0.076310555 0.015220375 -8.1627296e-05)
(-0.07881763 0.010913852 -0.00010922398)
(-0.080649289 0.0062754244 -0.00013905405)
(-0.081743574 0.0013524638 -0.00017082373)
(-0.082042129 -0.0037909084 -0.0002041228)
(-0.081493353 -0.0090708916 -0.000238416)
(-0.080056426 -0.014382157 -0.00027303905)
(-0.077706104 -0.01959749 -0.00030720769)
(-0.074438004 -0.024569293 -0.00034003711)
(-0.070274053 -0.029133303 -0.00037057527)
(-0.065267557 -0.033114753 -0.00039785108)
(-0.05950724 -0.036337016 -0.00042093485)
(-0.053119504 -0.038632472 -0.00043900699)
(-0.046268176 -0.039855026 -0.0004514281)
(-0.039151148 -0.039893297 -0.00045780142)
(-0.031993574 -0.038683262 -0.00045801905)
(-0.025037792 -0.036218925 -0.0004522824)
(-0.018530937 -0.032559732 -0.00044108093)
(-0.012711407 -0.027833801 -0.0004251502)
(-0.0077915 -0.022236551 -0.00040555034)
(-0.0039385618 -0.016023876 -0.00038356333)
(-0.0013151185 -0.0095005994 -0.00035852814)
(-0.00016697765 -0.0030183429 -0.00030536841)
(-0.00025862023 0.0048238915 -1.2464092e-05)
(-0.0016736122 0.013374813 1.9984844e-05)
(-0.0045904043 0.020713384 4.2071685e-05)
(-0.0085435909 0.026808091 5.738013e-05)
(-0.013264388 0.031682547 6.8663753e-05)
(-0.018564929 0.03539389 7.6143443e-05)
(-0.024272689 0.038021894 8.0116775e-05)
(-0.030236487 0.039658818 8.096843e-05)
(-0.036328004 0.040400224 7.8979311e-05)
(-0.042437953 0.040337733 7.432913e-05)
(-0.048472435 0.039553849 6.7117713e-05)
(-0.05434965 0.038118797 5.7378065e-05)
(-0.05999667 0.036089239 4.5090672e-05)
(-0.065346421 0.033508672 3.020117e-05)
(-0.070334973 0.030409241 1.2638086e-05)
(-0.074899241 0.026814706 -7.6670935e-06)
(-0.078975184 0.022744284 -3.0759861e-05)
(-0.082496604 0.018217128 -5.6641558e-05)
(-0.085394639 0.013257224 -8.5247052e-05)
(-0.087598065 0.0078984516 -0.00011642203)
(-0.089034536 0.0021895933 -0.00014990191)
(-0.089632866 -0.0038010232 -0.00018529181)
(-0.089326433 -0.0099815932 -0.0002220525)
(-0.088057754 -0.01623402 -0.0002594905)
(-0.085784178 -0.022412778 -0.00029676264)
(-0.082484433 -0.028345923 -0.00033289204)
(-0.078165692 -0.033838798 -0.00036680122)
(-0.072870537 -0.038680832 -0.0003973637)
(-0.066683001 -0.042655607 -0.00042347238)
(-0.05973272 -0.045554023 -0.00044412118)
(-0.05219614 -0.047189906 -0.000458492)
(-0.04429386 -0.04741688 -0.00046603654)
(-0.036283469 -0.04614485 -0.00046654169)
(-0.028447858 -0.04335413 -0.00046016562)
(-0.021080036 -0.03910529 -0.00044742398)
(-0.014465845 -0.033543316 -0.00042914824)
(-0.0088617982 -0.026895363 -0.00040657611)
(-0.0044710028 -0.019461211 -0.00038123208)
(-0.0014858977 -0.011597713 -0.00035247171)
(-0.00018585191 -0.0037151495 -0.00029573591)
(-0.00027717564 0.0057174686 8.9493992e-06)
(-0.0017947792 0.015741251 4.5438877e-05)
(-0.0049226173 0.024265839 6.9161064e-05)
(-0.009158823 0.031289952 8.5639095e-05)
(-0.014212593 0.036868059 9.785551e-05)
(-0.019881003 0.041087188 0.00010607717)
(-0.025979134 0.044054967 0.00011064941)
(-0.032346679 0.04588873 0.00011200398)
(-0.038849469 0.046705851 0.0001104534)
(-0.045375093 0.046616225 0.00010619365)
(-0.051828638 0.045716992 9.9327532e-05)
(-0.058128766 0.044089414 8.987906e-05)
(-0.064203865 0.041797767 7.7809009e-05)
(-0.069988416 0.038890013 6.3033842e-05)
(-0.075419697 0.035399992 4.5444724e-05)
(-0.080434928 0.031350854 2.4928853e-05)
(-0.08496892 0.026759462 1.3910046e-06)
(-0.088952363 0.021641546 -2.522334e-05)
(-0.092310833 0.016017369 -5.490293e-05)
(-0.094964689 0.0099177214 -8.7544631e-05)
(-0.096830025 0.0033899899 -0.00012292723)
(-0.097820849 -0.0034960055 -0.00016068556)
(-0.09785262 -0.0106428 -0.00020028991)
(-0.096847353 -0.017921123 -0.00024102756)
(-0.094740245 -0.025167597 -0.00028200106)
(-0.091487639 -0.032184829 -0.00032213784)
(-0.087076016 -0.038744715 -0.00036022081)
(-0.081531316 -0.044595617 -0.00039494168)
(-0.074927612 -0.049473809 -0.00042497717)
(-0.067393887 -0.053119185 -0.00044908522)
(-0.059117471 -0.055294589 -0.00046621291)
(-0.050342744 -0.055807374 -0.00047560365)
(-0.041364015 -0.054531044 -0.00047688945)
(-0.032512202 -0.05142429 -0.00047014981)
(-0.024136311 -0.046544599 -0.00045591048)
(-0.016581365 -0.040054258 -0.00043510466)
(-0.010159937 -0.032217566 -0.00040917765)
(-0.0051212347 -0.023388142 -0.00037994443)
(-0.0016968103 -0.013988412 -0.00034677099)
(-0.00021001446 -0.0045043724 -0.00028559469)
(-0.00029608205 0.0066736741 3.6191321e-05)
(-0.0019178747 0.018273823 7.7188372e-05)
(-0.0052596564 0.02806585 0.0001025689)
(-0.0097824373 0.036080284 0.00012023834)
(-0.015173051 0.042405255 0.00013341458)
(-0.021213394 0.047161101 0.00014241357)
(-0.027706207 0.050486905 0.0001476309)
(-0.03448233 0.052528525 0.00014954729)
(-0.04140224 0.053428198 0.00014850787)
(-0.048351121 0.053316596 0.00014472503)
(-0.055233969 0.052307372 0.00013830408)
(-0.061970995 0.050494057 0.00012925864)
(-0.068493119 0.047949128 0.00011752752)
(-0.074737669 0.044724973 0.00010299473)
(-0.080644443 0.04085648 8.5509377e-05)
(-0.086152216 0.036364949 6.4907963e-05)
(-0.09119576 0.031263072 4.1036884e-05)
(-0.095703501 0.025560767 1.3777129e-05)
(-0.099595914 0.019271689 -1.6928225e-05)
(-0.10278486 0.012420222 -5.1044541e-05)
(-0.10517407 0.0050487656 -8.8413802e-05)
(-0.10666106 -0.0027750023 -0.00012872186)
(-0.10714063 -0.010951315 -0.00017147187)
(-0.10651037 -0.019342383 -0.00021594985)
(-0.10467824 -0.027768419 -0.00026121829)
(-0.10157195 -0.036006242 -0.00030611368)
(-0.097150237 -0.043791634 -0.00034927078)
(-0.091414928 -0.050826435 -0.00038917454)
(-0.084423003 -0.056791152 -0.00042424245)
(-0.076296877 -0.061363353 -0.00045293627)
(-0.067231093 -0.064241349 -0.00047389494)
(-0.057493393 -0.065171619 -0.00048607496)
(-0.047418389 -0.063977302 -0.00048887936)
(-0.03739288 -0.060584101 -0.0004822503)
(-0.027833593 -0.055039592 -0.00046668903)
(-0.019159204 -0.047522514 -0.00044322506)
(-0.011753716 -0.038340016 -0.00041354004)
(-0.0059265184 -0.027911266 -0.00037979489)
(-0.0019615444 -0.016740499 -0.00034135002)
(-0.00024156492 -0.0054095204 -0.00027461801)
(-0.00031559649 0.0076939821 6.964566e-05)
(-0.0020445114 0.020976022 0.00011567891)
(-0.0056057059 0.032118129 0.00014276129)
(-0.010421599 0.041184375 0.00016165753)
(-0.016155758 0.048299566 0.00017583169)
(-0.022574398 0.05362101 0.00018565418)
(-0.029467732 0.057323116 0.00019157572)
(-0.036657882 0.059583994 0.00019413031)
(-0.044000438 0.060574056 0.00019369894)
(-0.051378933 0.060447491 0.00019051273)
(-0.058699271 0.059336546 0.0001846806)
(-0.065884425 0.057348418 0.00017620587)
(-0.072869217 0.05456449 0.00016500445)
(-0.079595309 0.051041609 0.00015092546)
(-0.086006577 0.046815067 0.00013377191)
(-0.092044909 0.041903 0.00011332321)
(-0.097646521 0.036311931 8.9358077e-05)
(-0.10273887 0.030043296 6.168008e-05)
(-0.10723831 0.023100798 3.0146984e-05)
(-0.11104869 0.015498477 -5.2967593e-06)
(-0.11406116 0.0072693226 -4.4582517e-05)
(-0.11615564 -0.0015257898 -8.7476604e-05)
(-0.11720395 -0.010789251 -0.0001335513)
(-0.11707563 -0.020378817 -0.0001821196)
(-0.1156462 -0.030101063 -0.00023223213)
(-0.11280811 -0.039707871 -0.0002826524)
(-0.10848422 -0.048897096 -0.00033186912)
(-0.10264324 -0.05731887 -0.00037814132)
(-0.095315797 -0.064588884 -0.00041958275)
(-0.086609249 -0.070309393 -0.00045428831)
(-0.076718993 -0.07409778 -0.00048049561)
(-0.065933304 -0.075621119 -0.00049676721)
(-0.054629059 -0.074633557 -0.00050216969)
(-0.043256449 -0.071011725 -0.0004964156)
(-0.032312917 -0.064782471 -0.00047991898)
(-0.022308153 -0.056137687 -0.000453782)
(-0.013717056 -0.045432656 -0.00041994776)
(-0.0069279097 -0.033165407 -0.00038098768)
(-0.002295308 -0.019941254 -0.00033623361)
(-0.00028286293 -0.0064615002 -0.00026254769)
(-0.00033593585 0.0087806288 0.00010971266)
(-0.0021760962 0.023853274 0.0001613704)
(-0.0059644324 0.036429943 0.00019021746)
(-0.011082515 0.046610133 0.00021038904)
(-0.017169136 0.054558622 0.00022561024)
(-0.023973905 0.060473727 0.00023631333)
(-0.031274008 0.064569462 0.00024301169)
(-0.038882812 0.067060296 0.00024629954)
(-0.046651407 0.068148482 0.00024659945)
(-0.054462438 0.068014765 0.0002441659)
(-0.062223772 0.06681232 0.00023911464)
(-0.069862453 0.064663607 0.00023144077)
(-0.07731871 0.061659785 0.00022103809)
(-0.084540209 0.057862301 0.00020772008)
(-0.091476692 0.05330628 0.00019124084)
(-0.098075032 0.048005377 0.00017131725)
(-0.10427477 0.041957869 0.00014765127)
(-0.11000422 0.035153823 0.00011995543)
(-0.1151772 0.027583293 8.7982892e-05)
(-0.11969078 0.019245469 5.1562125e-05)
(-0.12342415 0.010158737 1.0638197e-05)
(-0.12623927 0.00037146463 -3.4680177e-05)
(-0.12798366 -0.010026824 -8.4059926e-05)
(-0.1284959 -0.020894907 -0.00013690875)
(-0.12761432 -0.032030201 -0.00019230676)
(-0.12518936 -0.04316224 -0.00024898044)
(-0.12109936 -0.053950624 -0.00030529218)
(-0.11526952 -0.063989541 -0.00035926866)
(-0.10769257 -0.072820865 -0.00040867983)
(-0.098449345 -0.079957328 -0.00045117561)
(-0.087726201 -0.0849162 -0.00048447785)
(-0.075825526 -0.08726222 -0.00050661355)
(-0.063165487 -0.086656209 -0.00051616091)
(-0.050265644 -0.082903311 -0.00051246314)
(-0.037717615 -0.075992996 -0.00049574168)
(-0.026142181 -0.066122841 -0.00046711802)
(-0.016129217 -0.053699965 -0.00042881236)
(-0.008170211 -0.03931578 -0.00038388064)
(-0.0027149513 -0.023699317 -0.00033159955)
(-0.00033658116 -0.0076994489 -0.00024924383)
(-0.00035730352 0.0099365312 0.00015681187)
(-0.0023139637 0.026912748 0.00021474255)
(-0.0063392845 0.041010807 0.0002454353)
(-0.011770877 0.052367598 0.00026694229)
(-0.018220587 0.061191543 0.00028326843)
(-0.025419981 0.067726511 0.00029491757)
(-0.033132359 0.072230934 0.00030247584)
(-0.041162073 0.074960262 0.00030660783)
(-0.049356002 0.076152695 0.0003077864)
(-0.057596624 0.076018938 0.00030629648)
(-0.06579486 0.074735728 0.00030226654)
(-0.073883187 0.072442628 0.00029568806)
(-0.081808841 0.069241639 0.00028643587)
(-0.089527294 0.065199127 0.00027428941)
(-0.096996137 0.060349606 0.00025895346)
(-0.10416937 0.054701031 0.00024007887)
(-0.11099215 0.048241374 0.00021728341)
(-0.11739595 0.040946381 0.00019017559)
(-0.12329437 0.032788529 0.00015838387)
(-0.1285798 0.023747243 0.00012159197)
(-0.13312115 0.01382043 7.9583308e-05)
(-0.13676344 0.0030372548 3.2295602e-05)
(-0.13932971 -0.0085281728 -2.0107763e-05)
(-0.14062594 -0.020742791 -7.7181563e-05)
(-0.14044968 -0.033401397 -0.00013810842)
(-0.13860344 -0.04621602 -0.00020164252)
(-0.13491242 -0.058809924 -0.00026606678)
(-0.12924699 -0.070719001 -0.00032919245)
(-0.12154846 -0.081403354 -0.00038841974)
(-0.11185641 -0.090271629 -0.00044087538)
(-0.10033386 -0.096719533 -0.00048363205)
(-0.087285958 -0.10018202 -0.00051400038)
(-0.073166471 -0.10019554 -0.00052986199)
(-0.05856692 -0.096463223 -0.00052998546)
(-0.044185566 -0.088912243 -0.00051423107)
(-0.030776385 -0.077731759 -0.00048363825)
(-0.019073168 -0.063380958 -0.00044069875)
(-0.0097016082 -0.046559522 -0.00038903515)
(-0.003239022 -0.028146464 -0.00032784123)
(-0.00040575794 -0.0091716263 -0.00023474679)
(-0.00037992251 0.011165287 0.00021138446)
(-0.0024595497 0.030163335 0.00027630029)
(-0.006733894 0.045872354 0.00030893747)
(-0.012492496 0.058468626 0.00033184886)
(-0.019317277 0.068208336 0.00034934171)
(-0.026919735 0.0753861 0.00036200407)