/*--------------------------------*- C++ -*----------------------------------*\
  =========                 |
  \\      /  F ield         | OpenFOAM: The Open Source CFD Toolbox
   \\    /   O peration     | Website:  https://openfoam.org
    \\  /    A nd           | Version:  7
     \\/     M anipulation  |
\*---------------------------------------------------------------------------*/
FoamFile
{
    version     2.0;
    format      ascii;
    class       volVectorField;
    location    "2";
    object      U_0;
}
// * * * * * * * * * * * * * * * * * * * * * * * * * * * * * * * * * * * * * //

dimensions      [0 1 -1 0 0 0 0];

internalField   nonuniform List<vector> 
16000
(
(3.8931536e-05 -3.9767488e-05 -5.1983221e-07)
(7.6782197e-05 -2.1789396e-05 4.0082521e-06)
(1.6719995e-05 1.9902364e-05 1.222437e-05)
(-0.00015792023 6.0259281e-05 2.1762108e-05)
(-0.00043584477 9.3117864e-05 3.0655062e-05)
(-0.0007963174 0.00011743373 3.7662348e-05)
(-0.0012179485 0.00013406072 4.2005332e-05)
(-0.0016811466 0.00014433396 4.3244256e-05)
(-0.0021690074 0.00014951095 4.1164933e-05)
(-0.0026672785 0.00015062115 3.5697692e-05)
(-0.0031639919 0.0001484506 2.686386e-05)
(-0.0036490052 0.0001435635 1.4741535e-05)
(-0.0041135409 0.0001363342 -5.539145e-07)
(-0.0045497744 0.00012698519 -1.887893e-05)
(-0.0049504953 0.00011562613 -4.0063834e-05)
(-0.0053088597 0.00010229147 -6.3908697e-05)
(-0.0056182434 8.6978926e-05 -9.0176897e-05)
(-0.0058721959 6.9686843e-05 -0.00011858696)
(-0.0060644942 5.0448026e-05 -0.00014880426)
(-0.0061892956 2.9362e-05 -0.00018043394)
(-0.0062413755 6.6241749e-06 -0.0002130171)
(-0.0062164372 -1.7452535e-05 -0.00024603052)
(-0.0061114782 -4.2418338e-05 -0.00027889033)
(-0.0059251905 -6.7681954e-05 -0.00031096264)
(-0.0056583596 -9.2513335e-05 -0.00034157928)
(-0.0053142304 -0.00011605878 -0.00037006016)
(-0.0048988062 -0.00013736998 -0.00039574071)
(-0.0044210421 -0.00015544484 -0.0004180039)
(-0.0038929024 -0.0001692778 -0.00043631593)
(-0.003329256 -0.00017791491 -0.00045026284)
(-0.0027476008 -0.00018050765 -0.00045958579)
(-0.0021676197 -0.00017635885 -0.00046421376)
(-0.0016105852 -0.00016495536 -0.00046429211)
(-0.0010986421 -0.00014598679 -0.00046020764)
(-0.00065395154 -0.00011936899 -0.00045261402)
(-0.00029743294 -8.5376428e-05 -0.00044246592)
(-4.668894e-05 -4.5256558e-05 -0.00043104705)
(8.5226016e-05 -2.7862628e-06 -0.00041990144)
(0.0001015992 3.4457583e-05 -0.00041132703)
(4.1540657e-05 4.1390632e-05 -0.00038103753)
(2.2716234e-05 -7.9009576e-05 -5.4380388e-06)
(-4.4274297e-05 4.497344e-05 -7.6685298e-07)
(-0.00034975709 0.00024838075 6.110396e-06)
(-0.00090307921 0.00045013515 1.3606663e-05)
(-0.0016842684 0.00062299925 2.0453647e-05)
(-0.0026565342 0.00075837125 2.5642553e-05)
(-0.0037762913 0.00085618561 2.8487886e-05)
(-0.0050000655 0.00091994631 2.8557021e-05)
(-0.0062877431 0.00095414665 2.5598759e-05)
(-0.0076036056 0.00096313395 1.9491947e-05)
(-0.0089163424 0.00095064769 1.0207276e-05)
(-0.010198559 0.00091966249 -2.2201394e-06)
(-0.011426066 0.00087238667 -1.7708241e-05)
(-0.012577124 0.0008103515 -3.6136353e-05)
(-0.013631792 0.00073455469 -5.7348419e-05)
(-0.014571408 0.00064563028 -8.1150919e-05)
(-0.015378289 0.00054403334 -0.00010730823)
(-0.016035644 0.00043022986 -0.00013553655)
(-0.01652771 0.00030488081 -0.00016549832)
(-0.016840114 0.00016901384 -0.00019679746)
(-0.016960426 2.4173633e-05 -0.00022897686)
(-0.016878878 -0.00012746305 -0.00026152048)
(-0.016589204 -0.0002829932 -0.00029385831)
(-0.016089551 -0.000438774 -0.00032537797)
(-0.015383365 -0.00059044716 -0.00035544097)
(-0.014480204 -0.00073303521 -0.00038340453)
(-0.013396372 -0.0008611076 -0.00040864852)
(-0.012155302 -0.0009690105 -0.00043060621)
(-0.010787612 -0.0010511494 -0.00044879783)
(-0.0093307652 -0.0011023059 -0.00046286442)
(-0.0078283165 -0.001117965 -0.0004725999)
(-0.0063287066 -0.0010946325 -0.00047797977)
(-0.0048836212 -0.0010301323 -0.00047918438)
(-0.0035458943 -0.00092390746 -0.00047661622)
(-0.0023668869 -0.00077742792 -0.00047091076)
(-0.0013930533 -0.0005950502 -0.00046294235)
(-0.00066113251 -0.00038618992 -0.00045382311)
(-0.00019159198 -0.00016966351 -0.00044488261)
(2.3381364e-05 2.0072341e-05 -0.00043766532)
(3.5249053e-05 0.00010127579 -0.00040352473)
(-1.8451917e-05 -2.0249633e-05 -1.3936769e-05)
(-0.00024974606 0.00035025054 -7.7242106e-06)
(-0.00085571742 0.00084725944 -6.9550325e-07)
(-0.0018067004 0.0013375054 5.9322186e-06)
(-0.0030673418 0.0017652291 1.1631269e-05)
(-0.0045905872 0.0021080142 1.5672005e-05)
(-0.0063192513 0.0023613155 1.7531432e-05)
(-0.0081944027 0.0025297295 1.6870317e-05)
(-0.01016001 0.0026215961 1.3476022e-05)
(-0.01216474 0.0026460944 7.2331769e-06)
(-0.014162456 0.0026117689 -1.8993606e-06)
(-0.016111985 0.0025258428 -1.3906333e-05)
(-0.017976453 0.0023940037 -2.872858e-05)
(-0.019722481 0.0022204786 -4.6268968e-05)
(-0.021319412 0.0020082932 -6.6393879e-05)
(-0.022738712 0.0017596403 -8.8930814e-05)
(-0.0239536 0.00147631 -0.00011366489)
(-0.024938965 0.0011601454 -0.00014033367)
(-0.025671583 0.00081349592 -0.00016862216)
(-0.026130624 0.00043964057 -0.00019815919)
(-0.026298442 4.315745e-05 -0.0002285158)
(-0.026161548 -0.00036978577 -0.00025920881)
(-0.025711792 -0.00079123436 -0.00028970408)
(-0.024947603 -0.0012114016 -0.00031942983)
(-0.023875196 -0.0016187553 -0.00034779131)
(-0.022509663 -0.0020002781 -0.00037419216)
(-0.020875811 -0.0023418987 -0.00039805974)
(-0.019008634 -0.0026290853 -0.00041887419)
(-0.016953315 -0.0028475748 -0.00043619991)
(-0.014764662 -0.0029842001 -0.00044971651)
(-0.01250592 -0.0030277669 -0.00045924783)
(-0.010246927 -0.0029699403 -0.0004647866)
(-0.0080615862 -0.0028061329 -0.0004665123)
(-0.0060246362 -0.0025364551 -0.00046480039)
(-0.0042076984 -0.0021669386 -0.00046022065)
(-0.0026744316 -0.0017115768 -0.00045352507)
(-0.0014740507 -0.0011961653 -0.0004456393)
(-0.00063286733 -0.00066463068 -0.00043762469)
(-0.00014983369 -0.00019005847 -0.00043037858)
(1.9920446e-06 8.9241604e-05 -0.00039503548)
(-6.0257579e-05 0.00015560031 -2.3959682e-05)
(-0.0004649873 0.00091478852 -1.5340291e-05)
(-0.0013853469 0.0018058079 -7.0810313e-06)
(-0.0027355725 0.0026646711 -2.7368793e-07)
(-0.0044569153 0.0034136153 5.1863647e-06)
(-0.0064907361 0.0040177048 8.7965458e-06)
(-0.0087684876 0.0044675927 1.0192327e-05)
(-0.011219661 0.0047684158 9.1500575e-06)
(-0.013776673 0.0049321693 5.5245236e-06)
(-0.016376741 0.0049731202 -7.6624019e-07)
(-0.018962592 0.0049052085 -9.7520289e-06)
(-0.021482416 0.0047406823 -2.1420988e-05)
(-0.02388932 0.0044895456 -3.5726068e-05)
(-0.026140563 0.0041595472 -5.2587277e-05)
(-0.028196785 0.0037565257 -7.1891162e-05)
(-0.03002139 0.0032849826 -9.3487171e-05)
(-0.031580174 0.0027487906 -0.00011718302)
(-0.032841273 0.0021519672 -0.00014273926)
(-0.033775451 0.0014994516 -0.0001698641)
(-0.034356726 0.00079783935 -0.0001982098)
(-0.034563323 5.6024846e-05 -0.0002273713)
(-0.034378855 -0.00071429092 -0.00025688856)
(-0.033793739 -0.0014982921 -0.00028625036)
(-0.032806688 -0.002277951 -0.00031490725)
(-0.031426153 -0.0030322109 -0.00034228532)
(-0.029671632 -0.0037374627 -0.00036780734)
(-0.027574654 -0.0043683257 -0.00039091794)
(-0.025179327 -0.0048987183 -0.00041111212)
(-0.022542286 -0.0053031789 -0.00042796606)
(-0.019731938 -0.0055583723 -0.00044116744)
(-0.016826922 -0.0056447056 -0.00045054344)
(-0.01391373 -0.0055479867 -0.00045608291)
(-0.011083475 -0.0052610989 -0.00045795017)
(-0.0084278095 -0.0047857604 -0.00045648822)
(-0.0060341073 -0.0041346117 -0.00045220738)
(-0.0039799294 -0.0033342194 -0.00044576182)
(-0.0023258308 -0.0024299076 -0.00043794664)
(-0.0011068127 -0.0014928069 -0.0004296425)
(-0.00033769706 -0.00063131346 -0.00042122811)
(-3.3401269e-05 -2.460136e-05 -0.0003839179)
(-9.7350847e-05 0.00044504367 -3.3595482e-05)
(-0.0006671585 0.0017364866 -2.2336163e-05)
(-0.0018939294 0.0031160711 -1.244708e-05)
(-0.0036312686 0.0044095632 -4.9904361e-06)
(-0.0057922834 0.0055278332 6.7837622e-07)
(-0.0083041521 0.0064285855 4.2403189e-06)
(-0.0110867 0.0070998473 5.4729631e-06)
(-0.014059216 0.0075480269 4.267758e-06)
(-0.01714486 0.0077890027 5.5415981e-07)
(-0.020272064 0.0078422969 -5.7072726e-06)
(-0.023375098 0.0077275031 -1.4525917e-05)
(-0.02639404 0.0074622648 -2.5885574e-05)
(-0.029274262 0.0070613552 -3.9746112e-05)
(-0.031965693 0.0065365418 -5.6042227e-05)
(-0.034422059 0.0058969952 -7.467981e-05)
(-0.036600267 0.0051500611 -9.5530677e-05)
(-0.038460058 0.0043022576 -0.00011842634)
(-0.039963974 0.0033603893 -0.00014315147)
(-0.041077713 0.002332684 -0.00016943814)
(-0.041770847 0.0012298739 -0.00019696103)
(-0.042017902 6.6147356e-05 -0.00022533545)
(-0.041799726 -0.0011401015 -0.00025411869)
(-0.041105085 -0.0023658187 -0.0002828142)
(-0.039932383 -0.0035831496 -0.00031088243)
(-0.038291331 -0.004759725 -0.00033775533)
(-0.036204468 -0.005859389 -0.0003628571)
(-0.033708321 -0.0068433896 -0.00038562929)
(-0.030854055 -0.0076720161 -0.00040556036)
(-0.02770743 -0.0083066251 -0.00042221714)
(-0.024347927 -0.0087119658 -0.00043527578)
(-0.020866941 -0.0088586881 -0.00044454978)
(-0.017364982 -0.0087259207 -0.00045001153)
(-0.013947876 -0.0083038516 -0.00045180379)
(-0.010722061 -0.0075963295 -0.00045023861)
(-0.0077891986 -0.0066236825 -0.00044577815)
(-0.0052403712 -0.0054262497 -0.00043900362)
(-0.0031486515 -0.0040693309 -0.00043062324)
(-0.0015609418 -0.0026495624 -0.00042140552)
(-0.0005126917 -0.0013041406 -0.00041131892)
(-6.4148204e-05 -0.00023773437 -0.00037187917)
(-0.00012902274 0.00083651959 -4.1552483e-05)
(-0.00084989491 0.0028009359 -2.7592646e-05)
(-0.0023651713 0.0047641686 -1.5908212e-05)
(-0.0044699655 0.0065563617 -7.5234523e-06)
(-0.0070477028 0.0080870722 -1.3462305e-06)
(-0.010009378 0.0093129528 2.4460524e-06)
(-0.013262262 0.010223016 3.7511392e-06)
(-0.016715633 0.01082686 2.5646766e-06)
(-0.020284433 0.011145247 -1.1117999e-06)
(-0.023889882 0.011203517 -7.2730284e-06)
(-0.027459635 0.0110273 -1.5904527e-05)
(-0.030927556 0.010639956 -2.6982305e-05)
(-0.034233123 0.010061338 -4.0470388e-05)
(-0.037320627 0.009307541 -5.631646e-05)
(-0.040138385 0.0083913773 -7.4445139e-05)
(-0.042638104 0.0073233532 -9.4750725e-05)
(-0.044774519 0.0061129663 -0.00011708931)
(-0.04650538 0.0047701823 -0.00014127007)
(-0.047791842 0.0033069589 -0.00016704847)
(-0.048599254 0.0017387081 -0.00019412027)
(-0.048898354 8.5592299e-05 -0.00022211787)
(-0.048666796 -0.0016264484 -0.0002506101)
(-0.047890944 -0.003365057 -0.00027910675)
(-0.046567819 -0.005091266 -0.00030706721)
(-0.044707041 -0.0067598774 -0.00033391502)
(-0.042332613 -0.0083204581 -0.00035905887)
(-0.039484338 -0.0097189857 -0.00038191873)
(-0.03621866 -0.010900127 -0.00040195667)
(-0.032608733 -0.011810076 -0.00041871023)
(-0.028743539 -0.012399834 -0.00043182547)
(-0.024725907 -0.012628753 -0.00044108699)
(-0.020669387 -0.012468176 -0.00044644015)
(-0.016693996 -0.01190501 -0.00044800206)
(-0.012920959 -0.01094517 -0.00044605839)
(-0.0094668777 -0.0096169641 -0.00044103897)
(-0.0064377149 -0.0079747459 -0.00043348191)
(-0.0039211381 -0.0061032895 -0.00042405439)
(-0.0019784617 -0.0041225441 -0.00041347945)
(-0.00066696276 -0.0021934544 -0.00040143178)
(-8.8764219e-05 -0.00053719452 -0.00035986437)
(-0.00015611601 0.0013184426 -4.6889633e-05)
(-0.0010137639 0.0040890286 -3.0215821e-05)
(-0.0027969368 0.0067292947 -1.6698292e-05)
(-0.0052471977 0.0090832394 -7.2314605e-06)
(-0.0082188108 0.011067389 -3.5427059e-07)
(-0.011605591 0.012643544 3.8621896e-06)
(-0.015301483 0.013805918 5.4140978e-06)
(-0.019205573 0.014569992 4.3876061e-06)
(-0.023224998 0.014963065 8.4922299e-07)
(-0.027274677 0.015017302 -5.1537458e-06)
(-0.03127688 0.014764993 -1.3583384e-05)
(-0.035160663 0.014235614 -2.4407341e-05)
(-0.03886104 0.01345436 -3.7593138e-05)
(-0.042318035 0.012441835 -5.3100938e-05)
(-0.045475781 0.011214622 -7.0874291e-05)
(-0.048281808 0.0097864755 -9.0830415e-05)
(-0.050686628 0.0081699508 -0.00011285043)
(-0.052643692 0.006378261 -0.00013676849)
(-0.054109788 0.0044272243 -0.0001623632)
(-0.055045884 0.0023371471 -0.00018934993)
(-0.055418411 0.00013451004 -0.00021737545)
(-0.055200956 -0.0021466775 -0.00024601536)
(-0.054376272 -0.004464002 -0.00027477809)
(-0.052938503 -0.0067663579 -0.00030311184)
(-0.050895466 -0.0089943917 -0.0003304189)
(-0.048270805 -0.01108176 -0.00035607681)
(-0.045105784 -0.012957256 -0.00037946584)
(-0.041460472 -0.014547793 -0.00040000245)
(-0.03741407 -0.015782165 -0.00041717558)
(-0.03306415 -0.016595416 -0.00043058322)
(-0.028524627 -0.016933594 -0.00043996579)
(-0.023922384 -0.016758607 -0.00044523121)
(-0.019392575 -0.016052912 -0.00044646764)
(-0.015072808 -0.01482383 -0.00044394024)
(-0.011096756 -0.013107382 -0.00043806375)
(-0.007587735 -0.010971799 -0.00042936375)
(-0.0046504846 -0.0085208819 -0.00041851068)
(-0.0023625955 -0.0058966581 -0.00040624315)
(-0.00080250742 -0.0032815291 -0.00039204762)
(-0.0001081301 -0.00091054891 -0.00034839721)
(-0.00017978529 0.0018809643 -4.8911356e-05)
(-0.0011619625 0.0055823112 -2.9483269e-05)
(-0.0031938669 0.0089900632 -1.4164141e-05)
(-0.005968874 0.011967948 -3.5485375e-06)
(-0.0093136296 0.014445894 4.1353449e-06)
(-0.013104631 0.016396397 8.8974496e-06)
(-0.017222148 0.017823146 1.0813896e-05)
(-0.021554919 0.018750586 1.0047804e-05)
(-0.026002475 0.019214663 6.7220652e-06)
(-0.030473995 0.019255756 9.2073908e-07)
(-0.034887227 0.01891369 -7.2977454e-06)
(-0.039167472 0.018224583 -1.7894263e-05)
(-0.043246411 0.017219251 -3.0840979e-05)
(-0.047060904 0.015922907 -4.6111541e-05)
(-0.050551894 0.014355867 -6.3669354e-05)
(-0.053663542 0.01253501 -8.3455647e-05)
(-0.056342695 0.010475749 -0.00010537754)
(-0.058538767 0.0081943192 -0.00012929518)
(-0.060204096 0.005710184 -0.00015501084)
(-0.061294803 0.0030483904 -0.00018225903)
(-0.061772155 0.00024170913 -0.00021069897)
(-0.061604427 -0.0026676138 -0.00023990976)
(-0.060769153 -0.0056266692 -0.00026939253)
(-0.059255696 -0.0085714284 -0.00029857552)
(-0.057067975 -0.011427191 -0.00032682806)
(-0.054227125 -0.014110071 -0.00035348198)
(-0.050773835 -0.016529603 -0.0003778609)
(-0.046770069 -0.018592489 -0.00039931657)
(-0.042299858 -0.020207386 -0.00041726943)
(-0.037468834 -0.021290541 -0.00043125037)
(-0.032402298 -0.021771959 -0.00044093949)
(-0.027241662 -0.0216017 -0.00044619603)
(-0.022139292 -0.020755881 -0.00044707507)
(-0.017251992 -0.019241976 -0.00044382633)
(-0.012733797 -0.017103124 -0.00043686571)
(-0.0087287439 -0.014421359 -0.000426735)
(-0.005361551 -0.011319771 -0.00041414852)
(-0.0027277734 -0.0079628916 -0.00039991315)
(-0.00092592649 -0.0045552976 -0.00038340955)
(-0.00012389199 -0.0013483565 -0.00033766795)
(-0.00020106407 0.0025165317 -4.7075466e-05)
(-0.0012982847 0.0072653728 -2.4788803e-05)
(-0.0035631845 0.011527929 -7.7239091e-06)
(-0.0066455871 0.01519124 4.0598498e-06)
(-0.010346341 0.018203535 1.2604962e-05)
(-0.014525023 0.020552763 1.7985456e-05)
(-0.019048261 0.022256161 2.0343357e-05)
(-0.023794464 0.023350349 1.9907107e-05)
(-0.028655743 0.023882306 1.6847594e-05)
(-0.033535975 0.023902301 1.1279884e-05)
(-0.038349068 0.023458801 3.2787922e-06)
(-0.043017412 0.022595225 -7.1129662e-06)
(-0.047470293 0.021348326 -1.9874473e-05)
(-0.051642337 0.019747969 -3.4994777e-05)
(-0.055472136 0.017818034 -5.2458975e-05)
(-0.058901149 0.015578176 -7.2234375e-05)
(-0.061872975 0.013046199 -9.4256145e-05)
(-0.064333097 0.010240797 -0.00011841221)
(-0.066229137 0.0071844878 -0.00014453016)
(-0.067511692 0.0039064994 -0.0001723649)
(-0.068135751 0.00044545068 -0.00020158808)
(-0.06806271 -0.003148403 -0.00023178048)
(-0.067262911 -0.006811562 -0.00026243169)
(-0.065718626 -0.010466542 -0.00029294321)
(-0.063427338 -0.014022225 -0.00032264132)
(-0.060405078 -0.017375491 -0.0003507985)
(-0.056689526 -0.020414285 -0.00037666454)
(-0.05234252 -0.023022152 -0.00039950662)
(-0.047451552 -0.02508418 -0.00041865522)
(-0.042129863 -0.026494096 -0.00043355273)
(-0.036514773 -0.027162126 -0.00044379975)
(-0.030764033 -0.027023063 -0.00044919245)
(-0.025050155 -0.026043899 -0.00044974585)
(-0.019552984 -0.024230378 -0.00044569694)
(-0.014451301 -0.021631919 -0.00043747663)
(-0.0099142153 -0.018344623 -0.00042566884)
(-0.0060900743 -0.014512199 -0.00041106842)
(-0.0030945398 -0.010324041 -0.0003945967)
(-0.001045792 -0.0060104962 -0.0003755874)
(-0.00013781056 -0.0018455624 -0.00032763294)
(-0.0002207891 0.0032197796 -4.0931339e-05)
(-0.0014263598 0.0091265403 -1.5605227e-05)
(-0.0039126684 0.014328406 3.1510247e-06)
(-0.0072894836 0.018738016 1.6101603e-05)
(-0.011333504 0.022325701 2.5534516e-05)
(-0.015888006 0.025098953 3.1576877e-05)
(-0.020806253 0.027092349 3.4426831e-05)
(-0.02595652 0.028357902 3.4369564e-05)
(-0.031223761 0.028956166 3.1616883e-05)
(-0.036506992 0.028949177 2.6309233e-05)
(-0.041716897 0.028395336 1.8533442e-05)
(-0.046773729 0.027346147 8.3324199e-06)
(-0.051605223 0.025844655 -4.2828778e-06)
(-0.056144629 0.023925381 -1.9319866e-05)
(-0.060328958 0.021615469 -3.6788093e-05)
(-0.064097576 0.018936804 -5.6683713e-05)
(-0.067391203 0.01590882 -7.8973157e-05)
(-0.070151432 0.012551766 -0.0001035757)
(-0.072320823 0.0088902111 -0.00013034772)
(-0.073843648 0.0049565578 -0.00015906746)
(-0.074667317 0.00079436051 -0.00018942111)
(-0.074744537 -0.0035388035 -0.00022099198)
(-0.074036146 -0.0079691605 -0.00025325663)
(-0.072514583 -0.01240555 -0.00028558519)
(-0.070167853 -0.016739524 -0.00031725247)
(-0.06700372 -0.020846997 -0.00034745881)
(-0.063053832 -0.024591685 -0.00037536295)
(-0.058377311 -0.02783045 -0.00040012614)
(-0.053063305 -0.030420501 -0.00042096443)
(-0.047231953 -0.032228207 -0.00043720602)
(-0.041033246 -0.033139012 -0.00044834769)
(-0.034643421 -0.033067724 -0.00045410281)
(-0.028258744 -0.031968276 -0.00045443422)
(-0.022086926 -0.029841982 -0.00044956432)
(-0.016337033 -0.02674343 -0.00043994918)
(-0.011208869 -0.022783452 -0.00042623712)
(-0.0068792642 -0.01812888 -0.00040933717)
(-0.0034872264 -0.012998293 -0.00039032761)
(-0.0011716688 -0.0076540292 -0.00036853323)
(-0.00015161171 -0.0024020628 -0.00031809581)
(-0.00023962252 0.0039872504 -3.0080049e-05)
(-0.0015494122 0.011157903 -1.4559555e-06)
(-0.0042497433 0.017381454 1.8951612e-05)
(-0.0079126278 0.022597783 3.3062907e-05)
(-0.012291856 0.026802467 4.3397661e-05)
(-0.017215013 0.030026151 5.0130152e-05)
(-0.022522382 0.032324321 5.3508716e-05)
(-0.028072405 0.03376757 5.386919e-05)
(-0.033743252 0.034432665 5.1459153e-05)
(-0.039429567 0.034395444 4.6440082e-05)
(-0.045039462 0.033725678 3.8906748e-05)
(-0.050491827 0.032483845 2.8898611e-05)
(-0.055713706 0.030719688 1.6413337e-05)
(-0.060637834 0.028472345 1.4219205e-06)
(-0.06520044 0.025771814 -1.6113257e-05)
(-0.069339444 0.022641458 -3.6221324e-05)
(-0.072993095 0.019101302 -5.8904607e-05)
(-0.076099183 0.015171877 -8.4118905e-05)
(-0.078594876 0.010878365 -0.00011175493)
(-0.080417299 0.0062548363 -0.00014161994)
(-0.081504901 0.0013483259 -0.00017341994)
(-0.081799713 -0.0037775065 -0.00020674484)
(-0.081250467 -0.0090394456 -0.00024106011)
(-0.07981661 -0.01433286 -0.00027570312)
(-0.077473054 -0.019531323 -0.00030989139)
(-0.07421544 -0.024488077 -0.00034274194)
(-0.070065561 -0.029039703 -0.00037330519)
(-0.065076407 -0.033012217 -0.00040061299)
(-0.059336195 -0.036229643 -0.00042373831)
(-0.052970634 -0.038524809 -0.00044186345)
(-0.046142695 -0.039751779 -0.00045434964)
(-0.039049299 -0.039798995 -0.00046079947)
(-0.031914578 -0.038601868 -0.00046110339)
(-0.024979871 -0.036153452 -0.00045546024)
(-0.018491437 -0.032511875 -0.0004443557)
(-0.012687001 -0.027803644 -0.0004285207)
(-0.0077784773 -0.022222363 -0.00040901027)
(-0.0039331703 -0.01602203 -0.00038710115)
(-0.0013139008 -0.0095056191 -0.0003621295)
(-0.00016700736 -0.0030229945 -0.0003087659)
(-0.00025808559 0.0048171001 -1.4147815e-05)
(-0.0016702075 0.013355043 1.8107076e-05)
(-0.0045810882 0.020681388 4.0145755e-05)
(-0.0085261682 0.026764683 5.5416515e-05)
(-0.013237062 0.031628544 6.6665441e-05)
(-0.018526117 0.035330133 7.4111642e-05)
(-0.024220984 0.037949289 7.8051018e-05)
(-0.030170639 0.03957838 7.8866899e-05)
(-0.036246901 0.040313119 7.6839432e-05)
(-0.042340624 0.04024531 7.2147876e-05)
(-0.048358067 0.039457666 6.4891872e-05)
(-0.054217608 0.038020632 5.51043e-05)
(-0.059846531 0.035991091 4.2766212e-05)
(-0.065178009 0.033412748 2.7823363e-05)
(-0.070148395 0.030317934 1.0205747e-05)
(-0.074694933 0.026730553 -1.0153896e-05)
(-0.078753956 0.022669907 -3.3299855e-05)
(-0.082259678 0.01815516 -5.9231598e-05)
(-0.085143687 0.013210206 -8.7882369e-05)
(-0.087335238 0.0078687166 -0.0001190974)
(-0.088762473 0.0021791307 -0.00015261165)
(-0.089354689 -0.0037907142 -0.00018803007)
(-0.089045711 -0.0099496551 -0.0002248138)
(-0.08777844 -0.01618038 -0.00026227068)
(-0.085510506 -0.022338271 -0.00029955924)
(-0.082220778 -0.028252379 -0.00033570474)
(-0.077916391 -0.033729073 -0.00036963266)
(-0.072639679 -0.038558767 -0.00040022)
(-0.066474196 -0.042525908 -0.00042636317)
(-0.059548857 -0.045422038 -0.0004470589)
(-0.052039174 -0.047061313 -0.00046149079)
(-0.044164628 -0.047297286 -0.00046911079)
(-0.036181591 -0.046039332 -0.00046970473)
(-0.028371721 -0.043266751 -0.00046342835)
(-0.021026891 -0.039038638 -0.00045079331)
(-0.014432014 -0.033498113 -0.00043262616)
(-0.0088429849 -0.02687019 -0.00041015883)
(-0.0044626914 -0.019452376 -0.00038490974)
(-0.0014837142 -0.01159929 -0.00035623202)
(-0.0001857627 -0.0037190649 -0.00029930262)
(-0.0002765883 0.0057088283 7.2314255e-06)
(-0.0017910705 0.015716633 4.3519614e-05)
(-0.0049125095 0.024226533 6.7191179e-05)
(-0.009139968 0.031237171 8.3630291e-05)
(-0.014183077 0.036802914 9.5810715e-05)
(-0.019839134 0.04101074 0.00010399726)
(-0.025923402 0.043968291 0.00010853335)
(-0.032275722 0.045792984 0.00010984922)
(-0.038762054 0.046602336 0.00010825642)
(-0.045270111 0.046506433 0.00010395037)
(-0.05170512 0.04560264 9.7033685e-05)
(-0.057985902 0.043972469 8.7530253e-05)
(-0.06404104 0.041680449 7.5401537e-05)
(-0.069805245 0.038774792 6.0564336e-05)
(-0.075216074 0.035289567 4.2911528e-05)
(-0.080211076 0.031248117 2.2331756e-05)
(-0.08472545 0.026667442 -1.2687123e-06)
(-0.088690326 0.021563324 -2.7942307e-05)
(-0.092031777 0.015955977 -5.7675959e-05)
(-0.094670709 0.009876014 -9.0365656e-05)
(-0.096523791 0.0033704896 -0.00012578925)
(-0.097505621 -0.0034912781 -0.00016358088)
(-0.097532236 -0.010612508 -0.00020321065)
(-0.096526173 -0.017864795 -0.00024396672)
(-0.094423055 -0.025085791 -0.0002849532)
(-0.091179511 -0.032079261 -0.0003250999)
(-0.086782108 -0.038618334 -0.00036319311)
(-0.081256636 -0.0444526 -0.0003979287)
(-0.07467674 -0.049319454 -0.00042798785)
(-0.067170681 -0.052959692 -0.00045213258)
(-0.058924781 -0.055136718 -0.00046931301)
(-0.050182166 -0.055657985 -0.00047877412)
(-0.041235715 -0.054396555 -0.00048014782)
(-0.032414849 -0.051310083 -0.00047351156)
(-0.024067138 -0.046454435 -0.00045938726)
(-0.016536363 -0.039989769 -0.0004387029)
(-0.010134197 -0.03217788 -0.0004128974)
(-0.0051093922 -0.02336969 -0.00038377857)
(-0.0016934393 -0.013984933 -0.00035071024)
(-0.00020977248 -0.0045070149 -0.00028935349)
(-0.00029545448 0.0066630413 3.4428027e-05)
(-0.0019139396 0.018244011 7.521701e-05)
(-0.0052489635 0.028018737 0.00010054504)
(-0.0097625225 0.036017509 0.00011817424)
(-0.015141905 0.042328242 0.00013131285)
(-0.021169227 0.047071132 0.00014027457)
(-0.027647408 0.050385218 0.00014545279)
(-0.034407419 0.05241641 0.00014732648)
(-0.041309849 0.053307074 0.00014623965)
(-0.048239986 0.053188076 0.00014240408)
(-0.055102938 0.052173312 0.00013592479)
(-0.061819054 0.050356589 0.00012681533)
(-0.068319421 0.047810675 0.00011501536)
(-0.074541579 0.044588255 0.0001004094)
(-0.080425591 0.040724498 8.2848475e-05)
(-0.085910556 0.036240954 6.2170648e-05)
(-0.090931643 0.031150513 3.8224089e-05)
(-0.095417742 0.025463215 1.0892118e-05)
(-0.099289873 0.019192725 -1.9880066e-05)
(-0.10246051 0.012363301 -5.4056267e-05)
(-0.10483404 0.0050170451 -9.1476819e-05)
(-0.10630871 -0.0027788568 -0.00013182611)
(-0.10678002 -0.010925347 -0.00017460632)
(-0.10614623 -0.019285567 -0.00021910377)
(-0.10431589 -0.027680881 -0.00026438215)
(-0.10121718 -0.035889439 -0.0003092804)
(-0.096809057 -0.043648482 -0.000352437)
(-0.09109333 -0.050661355 -0.00039234171)
(-0.084126637 -0.056609997 -0.00042741767)
(-0.076030694 -0.061173199 -0.00045613229)
(-0.066998992 -0.064050136 -0.00047712935)
(-0.057297891 -0.06498764 -0.00048936867)
(-0.047260365 -0.063808559 -0.00049225471)
(-0.037271432 -0.060437595 -0.00048572862)
(-0.027746044 -0.054920585 -0.00047028834)
(-0.019101277 -0.047433877 -0.00044695794)
(-0.011719881 -0.038281719 -0.00041741195)
(-0.0059105047 -0.027880096 -0.00038380253)
(-0.0019567484 -0.016730038 -0.0003454883)
(-0.00024113228 -0.0054102331 -0.00027859178)
(-0.00031494456 0.0076812591 6.7823996e-05)
(-0.0020404455 0.020940784 0.00011364295)
(-0.0055946805 0.032062873 0.00014067177)
(-0.01040108 0.041111185 0.00015952654)
(-0.016123666 0.048210174 0.00017366132)
(-0.022528865 0.053516913 0.00018344388)
(-0.029407049 0.057205703 0.00018932256)
(-0.036580453 0.059454665 0.00019182939)
(-0.043904751 0.060434324 0.00019134406)
(-0.051263554 0.060299065 0.00018809701)
(-0.058562849 0.059181395 0.00018219675)
(-0.065725715 0.057188812 0.00017364666)
(-0.072687113 0.05440303 0.00016236352)
(-0.079388892 0.050881241 0.00014819723)
(-0.085775169 0.046659081 0.00013095275)
(-0.091788151 0.041755006 0.00011041114)
(-0.09736445 0.036175818 8.6353189e-05)
(-0.10243201 0.029923154 5.8585122e-05)
(-0.10690778 0.023000815 2.6967253e-05)
(-0.11069626 0.015422786 -8.553504e-06)
(-0.11368938 0.0072218223 -4.7905919e-05)
(-0.11576787 -0.0015416596 -9.0853859e-05)
(-0.11680441 -0.010770766 -0.00013696736)
(-0.11666937 -0.020324237 -0.00018555905)
(-0.11523905 -0.030009904 -0.00023568002)
(-0.1124065 -0.039581161 -0.00028609596)
(-0.10809501 -0.048737566 -0.00033529941)
(-0.10227342 -0.057131063 -0.00038155483)
(-0.09497213 -0.064379136 -0.00042298299)
(-0.086297863 -0.070085651 -0.00045768638)
(-0.076444959 -0.073869237 -0.00048390975)
(-0.065700213 -0.075397658 -0.00050022137)
(-0.054438677 -0.074425016 -0.00050569158)
(-0.043108477 -0.070827042 -0.00050003381)
(-0.032204921 -0.064628782 -0.00048365975)
(-0.02223569 -0.056019483 -0.00045766619)
(-0.013674025 -0.045351107 -0.000423988)
(-0.0069071033 -0.033117962 -0.00038518583)
(-0.0022888499 -0.019921562 -0.00034059021)
(-0.00028220012 -0.0064595004 -0.00026675823)
(-0.00033527855 0.0087657722 0.0001078179)
(-0.0021720134 0.023812515 0.00015925599)
(-0.0059533741 0.036366407 0.00018804936)
(-0.011061931 0.046526339 0.00020817864)
(-0.017136913 0.054456601 0.00022335874)
(-0.023928116 0.060355172 0.00023401891)
(-0.031212858 0.064435887 0.00024066993)
(-0.038804591 0.066913186 0.00024390389)
(-0.046554463 0.067989416 0.00024414193)
(-0.05434516 0.067845518 0.0002416376)
(-0.062084602 0.066634939 0.00023650621)
(-0.069699904 0.064480468 0.00022874303)
(-0.077131401 0.061473636 0.00021824267)
(-0.084326915 0.057676292 0.00020481956)
(-0.091236407 0.053123971 0.00018822977)
(-0.097807052 0.047830732 0.00016819184)
(-0.10397879 0.041795221 0.00014441015)
(-0.10968042 0.035007815 0.00011660026)
(-0.11482639 0.027458763 8.4518451e-05)
(-0.1193145 0.019147307 4.799674e-05)
(-0.12302479 0.010091682 6.9840712e-06)
(-0.12582013 0.00033985347 -3.8406823e-05)
(-0.12754904 -0.010019349 -8.7840258e-05)
(-0.12805107 -0.020845719 -0.00014072121)
(-0.12716549 -0.031938033 -0.00019612931)
(-0.12474353 -0.043027508 -0.00025279254)
(-0.12066417 -0.0537757 -0.00030907692)
(-0.11485287 -0.063778941 -0.00036301512)
(-0.10730229 -0.072581297 -0.00041238542)
(-0.098092766 -0.079697558 -0.00045484756)
(-0.087409621 -0.084646703 -0.00048813345)
(-0.075553736 -0.086994592 -0.00051027914)
(-0.062941308 -0.086402347 -0.00051986994)
(-0.050089578 -0.082674415 -0.00051625268)
(-0.037587671 -0.075798473 -0.00049964822)
(-0.026053917 -0.065969236 -0.00047117302)
(-0.016076065 -0.053590078 -0.00043303777)
(-0.0081440664 -0.039248097 -0.00038828553)
(-0.0027066142 -0.023667851 -0.00033619193)
(-0.00033564997 -0.0076938332 -0.00025371085)
(-0.00035666289 0.0099195617 0.00015482831)
(-0.002309996 0.026866533 0.00021253521)
(-0.0063285389 0.040939081 0.00024317539)
(-0.01175085 0.052273291 0.00026463993)
(-0.01818917 0.061076953 0.00028092337)
(-0.025375216 0.067593494 0.00029252632)
(-0.033072386 0.0720811 0.00030003216)
(-0.041085082 0.07479515 0.00030410313)
(-0.049260205 0.075973916 0.00030521044)
(-0.057480245 0.0758283 0.00030363789)
(-0.065656139 0.07453532 0.00029951343)
(-0.073720399 0.072234897 0.00029282875)
(-0.081620333 0.06902945 0.00028345936)
(-0.089311536 0.064985801 0.0002711858)
(-0.096751792 0.060138952 0.00025571467)
(-0.10389539 0.054497354 0.00023669853)
(-0.11068785 0.048049458 0.00021375787)
(-0.11706117 0.040771436 0.00018650469)
(-0.1229296 0.03263609 0.00015457124)
(-0.12818628 0.023623016 0.00011764599)
(-0.13270104 0.013730079 7.5517705e-05)
(-0.13631992 0.0029861253 2.8129639e-05)
(-0.13886704 -0.0085353848 -2.434986e-05)
(-0.14014948 -0.020702424 -8.1471448e-05)
(-0.13996589 -0.03331123 -0.00014241537)
(-0.13811973 -0.046075677 -0.00020593588)
(-0.13443699 -0.058621239 -0.00027031886)
(-0.1287885 -0.070486289 -0.00033338169)
(-0.12111569 -0.081133546 -0.00039253409)
(-0.11145776 -0.089974203 -0.00044491497)
(-0.09997685 -0.096406207 -0.00048761071)
(-0.086976628 -0.099866153 -0.00051794543)
(-0.072908844 -0.09989127 -0.00053381244)
(-0.058362515 -0.096184295 -0.00053398782)
(-0.04403308 -0.088670737 -0.00051833402)
(-0.03067162 -0.077536752 -0.00048788653)
(-0.019009284 -0.063237373 -0.00044512662)
(-0.0096697198 -0.046467339 -0.00039366153)
(-0.0032286298 -0.028100441 -0.00033268437)
(-0.00040452414 -0.0091613853 -0.00023948694)
(-0.00037932383 0.011146299 0.0002092963)
(-0.0024558461 0.030111912 0.00027398571)
(-0.0067238508 0.04579279 0.00030657296)
(-0.012473726 0.05836421 0.00032944246)
(-0.019287724 0.068081586 0.00034689127)