/*--------------------------------*- C++ -*----------------------------------*\
  =========                 |
  \\      /  F ield         | OpenFOAM: The Open Source CFD Toolbox
   \\    /   O peration     | Website:  https://openfoam.org
    \\  /    A nd           | Version:  7
     \\/     M anipulation  |
\*---------------------------------------------------------------------------*/
FoamFile
{
    version     2.0;
    format      ascii;
    class       volScalarField;
    location    "3.17";
    object      T;
}
// * * * * * * * * * * * * * * * * * * * * * * * * * * * * * * * * * * * * * //

dimensions      [0 0 0 1 0 0 0];

internalField   nonuniform List<scalar> 
1000
(
0
0
0
0
0
0
0
0
0
0
0
0
0
0
0
0
0
0
0
0
0
0
0
0
0
0
0
0
0
0
0
0
0
0
0
0
0
0
0
0
0
0
0
0
0
0
0
0
0
0
0
0
0
0
0
0
0
0
0
0
0
0
0
0
0
0
0
0
0
0
0
0
0
0
0
0
0
0
0
0
0
0
0
0
0
0
0
0
0
0
0
0
0
0
0
0
0
0
0
0
0
0
0
0
0
0
0
0
0
0
0
0
0
0
0
0
0
0
0
0
0
0
0
0
0
0
0
0
0
0
0
0
0
0
0
0
0
0
0
0
0
0
0
0
0
0
0
0
0
0
0
0
0
0
0
0
0
0
0
0
0
0
0
0
0
0
0
0
0
0
0
0
0
0
0
0
0
0
0
0
0
0
0
0
0
0
0
0
0
0
0
0
0
0
0
0
0
0
0
0
0
0
0
0
0
0
0
0
0
9.88131e-324
8.10268e-322
3.63286e-320
1.59632e-318
6.99587e-317
3.05859e-315
1.33399e-313
5.804e-312
2.51907e-310
1.09065e-308
4.71034e-307
2.02927e-305
8.72042e-304
3.73801e-302
1.59824e-300
6.81606e-299
2.89941e-297
1.23016e-295
5.20577e-294
2.19721e-292
9.24937e-291
3.88331e-289
1.62604e-287
6.79042e-286
2.82805e-284
1.17461e-282
4.86535e-281
2.00972e-279
8.27853e-278
3.40062e-276
1.39297e-274
5.68978e-273
2.31747e-271
9.41207e-270
3.81157e-268
1.53908e-266
6.19648e-265
2.48743e-263
9.95565e-262
3.97275e-260
1.58054e-258
6.26913e-257
2.47905e-255
9.77301e-254
3.84087e-252
1.5048e-250
5.87717e-249
2.28816e-247
8.88021e-246
3.43534e-244
1.32469e-242
5.09156e-241
1.95059e-239
7.44817e-238
2.8346e-236
1.07518e-234
4.06452e-233
1.53131e-231
5.74954e-230
2.15133e-228
8.02185e-227
2.98074e-225
1.10368e-223
4.07214e-222
1.49709e-220
5.48416e-219
2.00168e-217
7.27931e-216
2.63745e-214
9.52061e-213
3.42388e-211
1.22669e-209
4.3782e-208
1.55666e-206
5.5133e-205
1.94508e-203
6.8353e-202
2.39253e-200
8.34112e-199
2.8963e-197
1.00161e-195
3.44968e-194
1.18322e-192
4.04154e-191
1.37469e-189
4.65615e-188
1.57034e-186
5.27344e-185
1.76323e-183
5.86978e-182
1.94544e-180
6.41916e-179
2.10857e-177
6.8949e-176
2.24431e-174
7.27165e-173
2.3451e-171
7.52749e-170
2.4048e-168
7.64596e-167
2.41929e-165
7.61775e-164
2.38688e-162
7.4418e-161
2.30861e-159
7.12566e-158
2.18818e-156
6.685e-155
2.0317e-153
6.14237e-152
1.84717e-150
5.52525e-149
1.64379e-147
4.86369e-146
1.43116e-144
4.18783e-143
1.21855e-141
3.52555e-140
1.01418e-138
2.90053e-137
8.24695e-136
2.33095e-134
6.54892e-133
1.82884e-131
5.07602e-130
1.40018e-128
3.83819e-127
1.0455e-125
2.82971e-124
7.60947e-123
2.03295e-121
5.39546e-120
1.42242e-118
3.72466e-117
9.68672e-116
2.50185e-114
6.41658e-113
1.63407e-111
4.13164e-110
1.03711e-108
2.58427e-107
6.39178e-106
1.56906e-104
3.8225e-103
9.24072e-102
2.21652e-100
5.27477e-99
1.24524e-97
2.91596e-96
6.77231e-95
1.55982e-93
3.56243e-92
8.0668e-91
1.81089e-89
4.02961e-88
8.88717e-87
1.9424e-85
4.20664e-84
9.02598e-83
1.91848e-81
4.03893e-80
8.42091e-79
1.73849e-77
3.5534e-76
7.18962e-75
1.43976e-73
2.85319e-72
5.59438e-71
1.08513e-69
2.08184e-68
3.94974e-67
7.4091e-66
1.37391e-64
2.51802e-63
4.56022e-62
8.15915e-61
1.44194e-59
2.51648e-58
4.33601e-57
7.37453e-56
1.23772e-54
2.04949e-53
3.34728e-52
5.39074e-51
8.55844e-50
1.33908e-48
2.06424e-47
3.13416e-46
4.68545e-45
6.89462e-44
9.98276e-43
1.42174e-41
1.99093e-40
2.74029e-39
3.7057e-38
4.92147e-37
6.41631e-36
8.20818e-35
1.02985e-33
1.26666e-32
1.52643e-31
1.80133e-30
2.08049e-29
2.35038e-28
2.59564e-27
2.80026e-26
2.94921e-25
3.03008e-24
3.03466e-23
2.96024e-22
2.81019e-21
2.59385e-20
2.32562e-19
2.02337e-18
1.70642e-17
1.39338e-16
1.10025e-15
8.39033e-15
6.17042e-14
4.36956e-13
2.97464e-12
1.94329e-11
1.21593e-10
7.27191e-10
4.14732e-09
2.25004e-08
1.15808e-07
5.63801e-07
2.58778e-06
1.11578e-05
4.50144e-05
0.000169177
0.000589439
0.0018938
0.00557838
0.0149711
0.0363702
0.079469
0.155284
0.270298
0.418942
0.581058
0.729702
0.844716
0.920531
0.96363
0.985029
0.994422
0.998106
0.999411
0.999831
0.999955
0.999989
0.999997
0.999999
1
1
1
1
1
1
1
1
1
1
1
1
1
1
1
1
1
1
1
1
1
1
1
1
1
1
1
1
1
1
1
1
1
1
1
1
1
1
1
1
1
1
1
1
1
1
1
1
1
1
1
1
1
1
1
1
1
1
1
1
1
1
1
1
1
1
1
1
1
1
1
1
0.999999
0.999997
0.999989
0.999955
0.999831
0.999411
0.998106
0.994422
0.985029
0.96363
0.920531
0.844716
0.729702
0.581058
0.418942
0.270298
0.155284
0.079469
0.0363702
0.0149711
0.00557838
0.0018938
0.000589439
0.000169177
4.50144e-05
1.11578e-05
2.58778e-06
5.63801e-07
1.15808e-07
2.25004e-08
4.14732e-09
7.27191e-10
1.21593e-10
1.94329e-11
2.97464e-12
4.36956e-13
6.17042e-14
8.39033e-15
1.10025e-15
1.39338e-16
1.70642e-17
2.02337e-18
2.32562e-19
2.59385e-20
2.81019e-21
2.96024e-22
3.03466e-23
3.03008e-24
2.94921e-25
2.80026e-26
2.59564e-27
2.35038e-28
2.08049e-29
1.80133e-30
1.52643e-31
1.26666e-32
1.02985e-33
8.20818e-35
6.41631e-36
4.92147e-37
3.7057e-38
2.74029e-39
1.99093e-40
1.42174e-41
9.98276e-43
6.89462e-44
4.68545e-45
3.13416e-46
2.06424e-47
1.33908e-48
8.55844e-50
5.39074e-51
3.34728e-52
2.04949e-53
1.23772e-54
7.37453e-56
4.33601e-57
2.51648e-58
1.44194e-59
8.15915e-61
4.56022e-62
2.51802e-63
1.37391e-64
7.4091e-66
3.94974e-67
2.08184e-68
1.08513e-69
5.59438e-71
2.85319e-72
1.43976e-73
7.18962e-75
3.5534e-76
1.73849e-77
8.42091e-79
4.03893e-80
1.91848e-81
9.02598e-83
4.20664e-84
1.9424e-85
8.88717e-87
4.02961e-88
1.81089e-89
8.0668e-91
3.56243e-92
1.55982e-93
6.77231e-95
2.91596e-96
1.24524e-97
5.27477e-99
2.21652e-100
9.24072e-102
3.8225e-103
1.56906e-104
6.39178e-106
2.58427e-107
1.03711e-108
4.13164e-110
1.63407e-111
6.41658e-113
2.50185e-114
9.68672e-116
3.72466e-117
1.42242e-118
5.39546e-120
2.03295e-121
7.60947e-123
2.82971e-124
1.0455e-125
3.83819e-127
1.40018e-128
5.07602e-130
1.82884e-131
6.54892e-133
2.33095e-134
8.24695e-136
2.90053e-137
1.01418e-138
3.52555e-140
1.21855e-141
4.18783e-143
1.43116e-144
4.86369e-146
1.64379e-147
5.52525e-149
1.84717e-150
6.14237e-152
2.0317e-153
6.685e-155
2.18818e-156
7.12566e-158
2.30861e-159
7.4418e-161
2.38688e-162
7.61775e-164
2.41929e-165
7.64596e-167
2.4048e-168
7.52749e-170
2.3451e-171
7.27165e-173
2.24431e-174
6.8949e-176
2.10857e-177
6.41916e-179
1.94544e-180
5.86978e-182
1.76323e-183
5.27344e-185
1.57034e-186
4.65615e-188
1.37469e-189
4.04154e-191
1.18322e-192
3.44968e-194
1.00161e-195
2.8963e-197
8.34112e-199
2.39253e-200
6.8353e-202
1.94508e-203
5.5133e-205
1.55666e-206
4.3782e-208
1.22669e-209
3.42388e-211
9.52061e-213
2.63745e-214
7.27931e-216
2.00168e-217
5.48416e-219
1.49709e-220
4.07214e-222
1.10368e-223
2.98074e-225
8.02185e-227
2.15133e-228
5.74954e-230
1.53131e-231
4.06452e-233
1.07518e-234
2.8346e-236
7.44817e-238
1.95059e-239
5.09156e-241
1.32469e-242
3.43534e-244
8.88021e-246
2.28816e-247
5.87717e-249
1.5048e-250
3.84087e-252
9.77301e-254
2.47905e-255
6.26913e-257
1.58054e-258
3.97275e-260
9.95565e-262
2.48743e-263
6.19648e-265
1.53908e-266
3.81157e-268
9.41207e-270
2.31747e-271
5.68978e-273
1.39297e-274
3.40062e-276
8.27853e-278
2.00972e-279
4.86535e-281
1.17461e-282
2.82805e-284
6.79042e-286
1.62604e-287
3.88331e-289
9.24937e-291
2.19721e-292
5.20577e-294
1.23016e-295
2.89941e-297
6.81606e-299
1.59824e-300
3.73801e-302
8.72042e-304
2.02927e-305
4.71034e-307
1.09065e-308
2.51907e-310
5.804e-312
1.33399e-313
3.05859e-315
6.99586e-317
1.59632e-318
3.63286e-320
8.10268e-322
9.88131e-324
0
0
0
0
0
0
0
0
0
0
0
0
0
0
0
0
0
0
0
0
0
0
0
0
0
0
0
0
0
0
0
0
0
0
0
0
0
0
0
0
0
0
0
0
0
0
0
0
0
0
0
0
0
0
0
0
0
0
0
0
0
0
0
0
0
0
0
0
0
0
0
0
0
0
0
0
0
0
0
0
0
0
0
0
0
0
0
0
0
0
0
0
0
0
0
0
0
0
0
0
0
0
0
0
0
0
0
0
0
0
0
0
0
0
0
0
0
0
0
0
0
0
0
0
0
0
0
0
0
0
0
0
0
0
0
0
0
0
0
0
0
0
0
0
0
0
0
0
0
0
0
0
0
0
0
0
0
0
0
0
0
0
0
0
0
0
0
0
0
0
0
0
0
0
0
0
0
0
0
0
0
0
0
0
0
0
0
0
0
0
0
0
0
0
0
0
0
0
0
0
0
0
0
0
0
0
0
0
0
)
;

boundaryField
{
    sides
    {
        type            zeroGradient;
    }
    empty
    {
        type            empty;
    }
}


// ************************************************************************* //
