/*--------------------------------*- C++ -*----------------------------------*\
  =========                 |
  \\      /  F ield         | OpenFOAM: The Open Source CFD Toolbox
   \\    /   O peration     | Website:  https://openfoam.org
    \\  /    A nd           | Version:  7
     \\/     M anipulation  |
\*---------------------------------------------------------------------------*/
FoamFile
{
    version     2.0;
    format      ascii;
    class       volScalarField;
    location    "8.7";
    object      p;
}
// * * * * * * * * * * * * * * * * * * * * * * * * * * * * * * * * * * * * * //

dimensions      [1 -1 -2 0 0 0 0];

internalField   nonuniform List<scalar> 
19968
(
1
1
1
1
1
1
1
1
1
1
1
1
1
1
1
1
1
1
1
1
1
1
1
1
1
1
1
1
1
1
1
1
1
1
1
1
1
1
1
1
1
1
1
1
1
1
1
1
1.55457
8.05787
10.4481
10.4672
10.5319
10.5854
10.636
10.6861
10.7394
10.7958
10.8526
10.9082
10.9614
11.013
11.0652
11.1182
11.1689
11.2147
11.2567
11.2976
11.3389
11.3813
11.4249
11.4694
11.5138
11.5573
11.5992
11.639
11.6755
11.7078
11.7354
11.7596
11.7822
11.8059
11.8319
11.8599
11.8877
11.9131
11.9347
11.9532
11.9695
11.9849
11.9995
12.0128
12.0242
12.0328
12.0385
12.0426
1
1
1
1
1
1
1
1
1
1
1
1
1
1
1
1
1
1
1
1
1
1
1
1
1
1
1
1
1
1
1
1
1
1
1
1
1
1
1
1
1
1
1
1
1
1
1
1
1.52171
7.98338
10.4345
10.467
10.5301
10.5841
10.635
10.6851
10.7384
10.7946
10.8508
10.9061
10.959
11.0109
11.0634
11.116
11.166
11.2111
11.2527
11.2934
11.3346
11.3769
11.4205
11.4649
11.5093
11.5528
11.5949
11.6347
11.6713
11.7034
11.7311
11.7552
11.778
11.8017
11.8277
11.8554
11.883
11.908
11.9295
11.9478
11.9639
11.9789
11.9931
12.0061
12.0172
12.0256
12.0312
12.0353
1
1
1
1
1
1
1
1
1
1
1
1
1
1
1
1
1
1
1
1
1
1
1
1
1
1
1
1
1
1
1
1
1
1
1
1
1
1
1
1
1
1
1
1
1
1
1
1
1.45097
7.82971
10.4247
10.4597
10.5216
10.5761
10.628
10.6789
10.7328
10.7892
10.845
10.9002
10.9529
11.0051
11.0578
11.1098
11.1591
11.2035
11.2447
11.2852
11.3264
11.3686
11.4119
11.456
11.5002
11.5439
11.5864
11.6265
11.663
11.695
11.7226
11.7468
11.7697
11.7935
11.8194
11.847
11.8743
11.8992
11.9207
11.9388
11.9548
11.9694
11.9832
11.9959
12.0068
12.0152
12.0209
12.0249
1
1
1
1
1
1
1
1
1
1
1
1
1
1
1
1
1
1
1
1
1
1
1
1
1
1
1
1
1
1
1
1
1
1
1
1
1
1
1
1
1
1
1
1
1
1
1
1
1.35346
7.58606
10.4093
10.4517
10.5109
10.5656
10.618
10.6695
10.7239
10.7806
10.8365
10.8919
10.9447
10.9972
11.0501
11.1015
11.1498
11.1932
11.234
11.2742
11.3151
11.3571
11.3999
11.4434
11.4872
11.531
11.5737
11.6141
11.6508
11.6828
11.7103
11.7345
11.7574
11.7811
11.8067
11.8337
11.8603
11.8846
11.9055
11.9232
11.9387
11.9529
11.9664
11.9789
11.9899
11.9987
12.0047
12.0091
1
1
1
1
1
1
1
1
1
1
1
1
1
1
1
1
1
1
1
1
1
1
1
1
1
1
1
1
1
1
1
1
1
1
1
1
1
1
1
1
1
1
1
1
1
1
1
1
1.22943
7.25678
10.3967
10.4429
10.4996
10.5545
10.607
10.6588
10.713
10.7695
10.8252
10.8805
10.9332
10.986
11.0392
11.0901
11.1377
11.1805
11.2209
11.2609
11.3016
11.3431
11.3852
11.4277
11.4708
11.5143
11.5574
11.5984
11.6355
11.6678
11.6955
11.7199
11.743
11.7668
11.7922
11.8187
11.8447
11.8682
11.8882
11.9049
11.919
11.9318
11.9438
11.955
11.965
11.9732
11.9788
11.9831
1
1
1
1
1
1
1
1
1
1
1
1
1
1
1
1
1
1
1
1
1
1
1
1
1
1
1
1
1
1
1
1
1
1
1
1
1
1
1
1
1
1
1
1
1
1
1
1
1.03125
6.7602
10.382
10.437
10.4895
10.5463
10.5992
10.6516
10.706
10.7619
10.817
10.8712
10.9229
10.9751
11.0279
11.0782
11.1249
11.1663
11.2055
11.2443
11.2841
11.3246
11.3653
11.406
11.4472
11.4893
11.5316
11.5723
11.6096
11.642
11.6697
11.6941
11.7171
11.7406
11.7657
11.7917
11.8173
11.8406
11.8604
11.8769
11.891
11.9035
11.9152
11.926
11.9357
11.9437
11.9493
11.9535
1
1
1
1
1
1
1
1
1
1
1
1
1
1
1
1
1
1
1
1
1
1
1
1
1
1
1
1
1
1
1
1
1
1
1
1
1
1
1
1
1
1
1
1
1
1
1
1
1.00029
6.05118
10.2944
10.3889
10.4409
10.5045
10.5597
10.6136
10.6683
10.7238
10.7789
10.833
10.8848
10.9372
10.9904
11.0406
11.0874
11.1289
11.1685
11.2079
11.2482
11.2889
11.3293
11.3689
11.4084
11.4491
11.4907
11.5315
11.5694
11.6027
11.6312
11.656
11.6791
11.7025
11.7272
11.7529
11.7782
11.8013
11.8211
11.8377
11.8516
11.8639
11.8751
11.8854
11.8945
11.9021
11.9074
11.9114
1
1
1
1
1
1
1
1
1
1
1
1
1
1
1
1
1
1
1
1
1
1
1
1
1
1
1
1
1
1
1
1
1
1
1
1
1
1
1
1
1
1
1
1
1
1
1
1
1
5.11083
10.1601
10.3573
10.4077
10.4777
10.5344
10.5889
10.643
10.6975
10.7517
10.8047
10.8558
10.9077
10.9601
11.0092
11.0552
11.0958
11.1348
11.1737
11.2135
11.2539
11.2937
11.3318
11.3692
11.4075
11.4472
11.4872
11.5251
11.559
11.5881
11.6131
11.636
11.6587
11.6825
11.7072
11.7316
11.754
11.7735
11.7898
11.8035
11.8154
11.826
11.8356
11.844
11.851
11.8558
11.8592
1
1
1
1
1
1
1
1
1
1
1
1
1
1
1
1
1
1
1
1
1
1
1
1
1
1
1
1
1
1
1
1
1
1
1
1
1
1
1
1
1
1
1
1
1
1
1
1
1
4.02416
9.88007
10.3247
10.3765
10.4485
10.5053
10.5595
10.6128
10.6665
10.7195
10.7712
10.8212
10.872
10.9231
10.9707
11.0154
11.0548
11.0922
11.1295
11.168
11.2074
11.2462
11.2827
11.3177
11.3531
11.39
11.4281
11.4653
11.4993
11.5288
11.554
11.5764
11.598
11.6203
11.6435
11.6667
11.6886
11.7079
11.7243
11.7382
11.7501
11.7607
11.7702
11.7784
11.7852
11.7896
11.7926
1
1
1
1
1
1
1
1
1
1
1
1
1
1
1
1
1
1
1
1
1
1
1
1
1
1
1
1
1
1
1
1
1
1
1
1
1
1
1
1
1
1
1
1
1
1
1
1
1
2.88887
9.33371
10.3045
10.3704
10.4384
10.4899
10.5399
10.5897
10.641
10.6917
10.741
10.7888
10.8376
10.8864
10.9321
10.975
11.0132
11.0486
11.0834
11.1195
11.1568
11.1942
11.2289
11.261
11.2923
11.3249
11.359
11.3935
11.4262
11.4551
11.4799
11.5014
11.5217
11.5424
11.564
11.586
11.6072
11.6262
11.6423
11.6556
11.6668
11.6766
11.6853
11.6928
11.699
11.7028
11.7054
1
1
1
1
1
1
1
1
1
1
1
1
1
1
1
1
1
1
1
1
1
1
1
1
1
1
1
1
1
1
1
1
1
1
1
1
1
1
1
1
1
1
1
1
1
1
1
1
1
1.83392
8.36374
10.3493
10.3383
10.3987
10.4482
10.4994
10.55
10.601
10.6504
10.6982
10.7449
10.7925
10.8407
10.8864
10.9285
10.9658
10.9995
11.0319
11.0655
11.101
11.1372
11.1713
11.2016
11.2297
11.2577
11.2871
11.3176
11.3475
11.3744
11.3967
11.415
11.431
11.4467
11.4635
11.4813
11.4992
11.5159
11.5306
11.5434
11.5546
11.5648
11.5741
11.582
11.5888
11.5928
11.5957
1
1
1
1
1
1
1
1
1
1
1
1
1
1
1
1
1
1
1
1
1
1
1
1
1
1
1
1
1
1
1
1
1
1
1
1
1
1
1
1
1
1
1
1
1
1
1
1
1
1.03216
6.71058
10.3587
10.3766
10.4073
10.4462
10.4874
10.5309
10.5763
10.621
10.6641
10.706
10.7481
10.7908
10.8323
10.8707
10.9052
10.9361
10.9644
10.993
11.0244
11.0576
11.0902
11.1186
11.1438
11.1677
11.1923
11.2186
11.2456
11.2707
11.2914
11.3072
11.3198
11.3315
11.3442
11.3586
11.374
11.3887
11.4014
11.4117
11.4195
11.4253
11.4292
11.4318
11.4342
11.4356
11.4373
1
1
1
1
1
1
1
1
1
1
1
1
1
1
1
1
1
1
1
1
1
1
1
1
1
1
1
1
1
1
1
1
1
1
1
1
1
1
1
1
1
1
1
1
1
1
1
1
1
1.00006
4.62324
9.92378
10.1956
10.2616
10.3289
10.3834
10.4333
10.4798
10.5234
10.5645
10.6042
10.6441
10.6848
10.726
10.7652
10.7999
10.8305
10.8581
10.8847
10.9141
10.946
10.978
11.0058
11.0293
11.0504
11.0713
11.0935
11.1171
11.1396
11.1579
11.1702
11.1777
11.1827
11.1873
11.193
11.1999
11.2063
11.2113
11.2151
11.2184
11.2218
11.2253
11.2281
11.2312
11.2326
11.2349
1
1
1
1
1
1
1
1
1
1
1
1
1
1
1
1
1
1
1
1
1
1
1
1
1
1
1
1
1
1
1
1
1
1
1
1
1
1
1
1
1
1
1
1
1
1
1
1
1
1
2.41599
8.81356
10.1278
10.1886
10.2714
10.3277
10.3781
10.4237
10.465
10.5025
10.538
10.5733
10.6097
10.6479
10.6856
10.7188
10.7467
10.7709
10.7931
10.8171
10.844
10.871
10.8947
10.9133
10.9288
10.9433
10.9586
10.9752
10.9917
11.0046
11.0115
11.0125
11.0085
11.0037
11.0002
10.9985
10.9975
10.9967
10.9949
10.9917
10.9861
10.9767
10.9591
10.9354
10.9089
10.8865
1
1
1
1
1
1
1
1
1
1
1
1
1
1
1
1
1
1
1
1
1
1
1
1
1
1
1
1
1
1
1
1
1
1
1
1
1
1
1
1
1
1
1
1
1
1
1
1
1
1
1.061
6.44686
10.2058
10.2292
10.2449
10.2793
10.3155
10.3528
10.3875
10.4197
10.45
10.4795
10.5103
10.5426
10.5755
10.6062
10.6316
10.6531
10.6719
10.6904
10.711
10.732
10.7503
10.7632
10.7722
10.7798
10.7875
10.7959
10.8045
10.811
10.8113
10.8036
10.7888
10.7704
10.7514
10.7319
10.7095
10.6823
10.6493
10.6113
10.5696
10.5251
10.4843
10.4444
10.4203
10.4073
1
1
1
1
1
1
1
1
1
1
1
1
1
1
1
1
1
1
1
1
1
1
1
1
1
1
1
1
1
1
1
1
1
1
1
1
1
1
1
1
1
1
1
1
1
1
1
1
1
1
1.00009
3.32752
9.2528
10.0479
10.0917
10.1513
10.1952
10.2379
10.2763
10.3104
10.3404
10.3678
10.3945
10.4227
10.4521
10.4797
10.5021
10.5194
10.5348
10.5501
10.5666
10.5825
10.5943
10.5999
10.6001
10.5974
10.5939
10.5909
10.5889
10.5852
10.575
10.5553
10.5259
10.4897
10.4501
10.4074
10.359
10.3029
10.2404
10.1752
10.1092
10.0416
9.95741
9.8714
9.75008
9.83454
1
1
1
1
1
1
1
1
1
1
1
1
1
1
1
1
1
1
1
1
1
1
1
1
1
1
1
1
1
1
1
1
1
1
1
1
1
1
1
1
1
1
1
1
1
1
1
1
1
1
1
1.22352
7.24823
10.123
10.0939
10.1221
10.1534
10.1844
10.2134
10.2384
10.2605
10.281
10.3012
10.3228
10.3444
10.364
10.3801
10.3927
10.4041
10.4158
10.4274
10.4374
10.4437
10.4439
10.4363
10.4235
10.4084
10.3941
10.3801
10.3645
10.3423
10.3099
10.2655
10.2107
10.1482
10.0784
9.99692
9.89897
9.77843
9.63367
9.44811
9.20353
8.83138
8.27277
7.33791
5.43452
1
1
1
1
1
1
1
1
1
1
1
1
1
1
1
1
1
1
1
1
1
1
1
1
1
1
1
1
1
1
1
1
1
1
1
1
1
1
1
1
1
1
1
1
1
1
1
1
1
1
1
1.00176
4.59813
9.68115
9.92782
9.98009
10.0222
10.0609
10.0976
10.1285
10.1543
10.1765
10.1962
10.2146
10.2332
10.2513
10.2669
10.278
10.2844
10.2892
10.2935
10.2977
10.3009
10.2983
10.2869
10.2676
10.2438
10.219
10.1937
10.1663
10.1327
10.089
10.0318
9.9609
9.8766
9.78049
9.66598
9.52879
9.35438
9.14282
8.86527
8.51144
8.00031
7.33617
6.10635
4.50871
1
1
1
1
1
1
1
1
1
1
1
1
1
1
1
1
1
1
1
1
1
1
1
1
1
1
1
1
1
1
1
1
1
1
1
1
1
1
1
1
1
1
1
1
1
1
1
1
1
1
1
0.999996
1.92656
8.22571
9.91004
9.92135
9.95871
9.99134
10.0245
10.0531
10.0772
10.0969
10.1131
10.1264
10.1389
10.1517
10.1644
10.1743
10.1791
10.1784
10.1731
10.167
10.1608
10.1511
10.1347
10.1099
10.0783
10.0433
10.0061
9.96546
9.91822
9.86176
9.79128
9.70537
9.60039
9.47894
9.33303
9.1605
8.94541
8.68411
8.35648
7.93796
7.4072
6.64834
5.65768
4.51962
1
1
1
1
1
1
1
1
1
1
1
1
1
1
1
1
1
1
1
1
1
1
1
1
1
1
1
1
1
1
1
1
1
1
1
1
1
1
1
1
1
1
1
1
1
1
1
1
1
1
1
0.999999
1.03083
5.38289
9.76469
9.85149
9.88034
9.90741
9.93982
9.96742
9.9907
10.0096
10.0255
10.035
10.0391
10.0431
10.0488
10.0556
10.061
10.0601
10.0505
10.0357
10.0178
9.99769
9.97433
9.94402
9.90677
9.86442
9.81676
9.764
9.70282
9.6325
9.548
9.44826
9.32738
9.1863
9.01804
8.81956
8.57947
8.28991
7.94175
7.51034
6.98802
6.32131
5.554
4.73434
1
1
1
1
1
1
1
1
1
1
1
1
1
1
1
1
1
1
1
1
1
1
1
1
1
1
1
1
1
1
1
1
1
1
1
1
1
1
1
1
1
1
1
1
1
1
1
1
1
1
1
1
1
2.22009
8.46079
9.78923
9.80618
9.83551
9.86102
9.88567
9.90682
9.92445
9.94063
9.94925
9.94663
9.94222
9.93795
9.93686
9.93964
9.94083
9.93243
9.91302
9.88478
9.85192
9.81724
9.7797
9.73727
9.68977
9.63423
9.57128
9.49746
9.41298
9.31398
9.20043
9.06761
8.9136
8.73346
8.52211
8.27158
7.97405
7.6295
7.21127
6.73362
6.18284
5.59233
4.92764
1
1
1
1
1
1
1
1
1
1
1
1
1
1
1
1
1
1
1
1
1
1
1
1
1
1
1
1
1
1
1
1
1
1
1
1
1
1
1
1
1
1
1
1
1
1
1
1
1
1
1
1
0.999999
1.04851
5.5124
9.66229
9.74777
9.76935
9.78553
9.80591
9.82325
9.83599
9.84967
9.85921
9.85729
9.85014
9.83771
9.82544
9.81918
9.81672
9.80808
9.7874
9.7542
9.71215
9.66658
9.62052
9.57117
9.5178
9.45622
9.38631
9.30423
9.20874
9.09698
8.96975
8.82564
8.66293
8.47802
8.26496
8.01879
7.72826
7.40223
7.01186
6.59641
6.13536
5.65056
5.11432
1
1
1
1
1
1
1
1
1
1
1
1
1
1
1
1
1
1
1
1
1
1
1
1
1
1
1
1
1
1
1
1
1
1
1
1
1
1
1
1
1
1
1
1
1
1
1
1
1
1
1
1
1
1.00004
2.08061
8.26245
9.67557
9.69296
9.71165
9.72306
9.72836
9.7293
9.73794
9.74443
9.74327
9.73903
9.72865
9.71325
9.70131
9.69253
9.67933
9.6557
9.61912
9.57167
9.51847
9.46506
9.4089
9.34929
9.28284
9.20808
9.12162
9.02054
8.90134
8.76435
8.61117
8.44294
8.25691
8.04794
7.81348
7.53877
7.23471
6.88795
6.53025
6.12267
5.70758
5.26427
1
1
1
1
1
1
1
1
1
1
1
1
1
1
1
1
1
1
1
1
1
1
1
1
1
1
1
1
1
1
1
1
1
1
1
1
1
1
1
1
1
1
1
1
1
1
1
1
1
1
1
1
1
1
1.03594
4.95034
9.36483
9.6101
9.62154
9.63873
9.6453
9.64728
9.65325
9.65426
9.65102
9.64432
9.6323
9.61384
9.59491
9.57739
9.55642
9.52792
9.48897
9.4396
9.38216
9.3228
9.2595
9.19199
9.1187
9.03816
8.94832
8.84577
8.72487
8.58392
8.42566
8.25396
8.06844
7.86391
7.64218
7.38619
7.10675
6.80917
6.48528
6.12676
5.77816
5.40184
1
1
1
1
1
1
1
1
1
1
1
1
1
1
1
1
1
1
1
1
1
1
1
1
1
1
1
1
1
1
1
1
1
1
1
1
1
1
1
1
1
1
1
1
1
1
1
1
1
1
1
1
1
1
1.00003
1.5414
7.58631
9.6319
9.59061
9.57954
9.56932
9.56384
9.55806
9.55008
9.54242
9.53448
9.52249
9.50436
9.48077
9.45563
9.42801
9.39448
9.35317
9.30378
9.24478
9.18276
9.11547
9.04277
8.96334
8.87607
8.78189
8.67908
8.56081
8.4231
8.26763
8.09761
7.91691
7.71593
7.50389
7.26541
7.01285
6.74646
6.45137
6.14733
5.84443
5.51124
1
1
1
1
1
1
1
1
1
1
1
1
1
1
1
1
1
1
1
1
1
1
1
1
1
1
1
1
1
1
1
1
1
1
1
1
1
1
1
1
1
1
1
1
1
1
1
1
1
1
1
1
1
1
1
1.00875
3.91458
8.95207
9.41509
9.45391
9.47518
9.47216
9.46229
9.44439
9.4281
9.41632
9.40446
9.38798
9.36411
9.33525
9.30405
9.26723
9.223
9.17353
9.11543
9.05262
8.9831
8.90757
8.82341
8.72966
8.62941
8.52372
8.40659
8.27458
8.12792
7.96377
7.79175
7.59583
7.39375
7.17412
6.93901
6.69186
6.4316
6.16932
5.8915
5.59578
1
1
1
1
1
1
1
1
1
1
1
1
1
1
1
1
1
1
1
1
1
1
1
1
1
1
1
1
1
1
1
1
1
1
1
1
1
1
1
1
1
1
1
1
1
1
1
1
1
1
1
1
1
1
1
1
1.22639
6.2534
9.35376
9.38666
9.39959
9.38713
9.37815
9.3577
9.33543
9.31771
9.30148
9.28336
9.25956
9.22799
9.19375
9.15368
9.10553
9.05283
8.99495
8.93137
8.85917
8.78146
8.6945
8.59752
8.49378
8.38334
8.26598
8.1381
8.00138
7.84547
7.68374
7.4975
7.30881
7.10365
6.88065
6.65594
6.42582
6.18107
5.92387
5.67142
1
1
1
1
1
1
1
1
1
1
1
1
1
1
1
1
1
1
1
1
1
1
1
1
1
1
1
1
1
1
1
1
1
1
1
1
1
1
1
1
1
1
1
1
1
1
1
1
1
1
1
1
1
1
1
1
1.00157
2.17486
8.00095
9.32213
9.25746
9.27178
9.27291
9.26252
9.24303
9.22273
9.2022
9.17993
9.15405
9.12089
9.08381
9.04279
8.99143
8.93467
8.87463
8.81113
8.73766
8.6596
8.57204
8.47603
8.37167
8.25797
8.14228
8.01422
7.88179
7.73481
7.58246
7.4102
7.23549
7.04354
6.83825
6.63538
6.41931
6.18809
5.96524
5.74218
1
1
1
1
1
1
1
1
1
1
1
1
1
1
1
1
1
1
1
1
1
1
1
1
1
1
1
1
1
1
1
1
1
1
1
1
1
1
1
1
1
1
1
1
1
1
1
1
1
1
1
1
1
1
1
1
1
1.03925
4.16723
8.88942
9.16026
9.17298
9.18782
9.18025
9.16417
9.14169
9.11762
9.0901
9.0599
9.02378
8.98214
8.94069
8.88747
8.82717
8.76412
8.69932
8.62528
8.54715
8.46054
8.36831
8.26547
8.15208
8.03336
7.90707
7.77716
7.63779
7.49229
7.33237
7.16859
6.9903
6.80466
6.6171
6.41158
6.20611
6.0085
5.80196
1
1
1
1
1
1
1
1
1
1
1
1
1
1
1
1
1
1
1
1
1
1
1
1
1
1
1
1
1
1
1
1
1
1
1
1
1
1
1
1
1
1
1
1
1
1
1
1
1
1
1
1
1
1
1
1
1
1.00008
1.25666
5.72118
9.02747
9.16296
9.13418
9.1244
9.10558
9.07729
9.04567
9.01227
8.97596
8.9359
8.88994
8.84458
8.79177
8.72989
8.6647
8.59747
8.52313
8.44353
8.3574
8.26812
8.16565
8.05653
7.93905
7.81417
7.68603
7.55178
7.41288
7.2629
7.10675
6.94151
6.77124
6.59416
6.40696
6.22652
6.04338
5.84897
1
1
1
1
1
1
1
1
1
1
1
1
1
1
1
1
1
1
1
1
1
1
1
1
1
1
1
1
1
1
1
1
1
1
1
1
1
1
1
1
1
1
1
1
1
1
1
1
1
1
1
1
1
1
1
1
1
1
1.00207
1.6203
7.2815
9.16757
9.09877
9.06636
9.02647
8.98979
8.95374
8.91798
8.88277
8.842
8.79485
8.7472
8.6944
8.63328
8.56816
8.50037
8.42913
8.34928
8.26499
8.17537
8.07469
7.96849
7.85532
7.7359
7.61117
7.48174
7.34865
7.20615
7.05575
6.90057
6.74094
6.57294
6.40449
6.24076
6.06779
5.88559
1
1
1
1
1
1
1
1
1
1
1
1
1
1
1
1
1
1
1
1
1
1
1
1
1
1
1
1
1
1
1
1
1
1
1
1
1
1
1
1
1
1
1
1
1
1
1
1
1
1
1
1
1
1
1
1
1
1
1
1.01108
3.05992
8.31837
8.95766
8.89738
8.87276
8.8514
8.83056
8.8039
8.77402
8.73842
8.69553
8.65133
8.5999
8.54159
8.47884
8.41061
8.33963
8.26164
8.1787
8.08917
7.99189
7.88774
7.77905
7.6655
7.54584
7.42192
7.29394
7.15758
7.0135
6.8667
6.71549
6.55657
6.40167
6.24804
6.08294
5.91376
1
1
1
1
1
1
1
1
1
1
1
1
1
1
1
1
1
1
1
1
1
1
1
1
1
1
1
1
1
1
1
1
1
1
1
1
1
1
1
1
1
1
1
1
1
1
1
1
1
1
1
1
1
1
1
1
1
1
1
1.00001
1.11058
4.3758
8.60442
8.7942
8.77156
8.77324
8.76209
8.73994
8.71046
8.67411
8.63031
8.58296
8.52816
8.46748
8.40331
8.33465
8.26013
8.18327
8.10379
8.01444
7.91751
7.81627
7.71117
7.60211
7.48807
7.37064
7.24818
7.11773
6.9816
6.84233
6.698
6.54872
6.40259
6.25527
6.09817
5.94177
1
1
1
1
1
1
1
1
1
1
1
1
1
1
1
1
1
1
1
1
1
1
1
1
1
1
1
1
1
1
1
1
1
1
1
1
1
1
1
1
1
1
1
1
1
1
1
1
1
1
1
1
1
1
1
1
1
1
1
1
1.00052
1.29635
5.21067
8.59104
8.71843
8.71768
8.70795
8.68323
8.65274
8.61418
8.56866
8.51692
8.45953
8.3976
8.33171
8.26252
8.18757
8.10727
8.02839
7.94362
7.84968
7.75072
7.64908
7.54397
7.43495
7.32298
7.20496
7.07992
6.95252
6.82055
6.68269
6.54379
6.40644
6.26712
6.12221
5.98323
1
1
1
1
1
1
1
1
1
1
1
1
1
1
1
1
1
1
1
1
1
1
1
1
1
1
1
1
1
1
1
1
1
1
1
1
1
1
1
1
1
1
1
1
1
1
1
1
1
1
1
1
1
1
1
1
1
1
1
1
1
1.00286
1.49591
5.88887
8.58751
8.6906
8.65968
8.62967
8.59546
8.55404
8.50812
8.457
8.39983
8.33703
8.26943
8.19796
8.12249
8.04226
7.96172
7.87956
7.79002
7.69457
7.59572
7.49382
7.38901
7.2812
7.16727
7.04709
6.92631
6.79933
6.66982
6.54669
6.42325
6.30118
6.17902
6.06803
1
1
1
1
1
1
1
1
1
1
1
1
1
1
1
1
1
1
1
1
1
1
1
1
1
1
1
1
1
1
1
1
1
1
1
1
1
1
1
1
1
1
1
1
1
1
1
1
1
1
1
1
1
1
1
1
1
1
1
1
1
1
1.00735
1.72584
6.46254
8.56598
8.61053
8.57884
8.53716
8.49428
8.44615
8.39403
8.33693
8.2751
8.20805
8.13591
8.06001
7.98107
7.90103
7.81871
7.73136
7.63949
7.54403
7.44525
7.34428
7.24019
7.12975
7.01538
6.90199
6.78692
6.67667
6.58142
6.48455
6.39506
6.31517
6.24953
1
1
1
1
1
1
1
1
1
1
1
1
1
1
1
1
1
1
1
1
1
1
1
1
1
1
1
1
1
1
1
1
1
1
1
1
1
1
1
1
1
1
1
1
1
1
1
1
1
1
1
1
1
1
1
1
1
1
1
1
1
1
1.00001
1.01489
1.98712
6.89902
8.53792
8.54149
8.50151
8.44855
8.39669
8.33986
8.27863
8.21578
8.14886
8.07771
8.00351
7.92729
7.84964
7.76839
7.68182
7.59144
7.4982
7.40152
7.30306
7.20188
7.09895
6.99787
6.90294
6.82005
6.74982
6.69692
6.64488
6.60572
6.56572
6.53109
1
1
1
1
1
1
1
1
1
1
1
1
1
1
1
1
1
1
1
1
1
1
1
1
1
1
1
1
1
1
1
1
1
1
1
1
1
1
1
1
1
1
1
1
1
1
1
1
1
1
1
1
1
1
1
1
1
1
1
1
1
1
1
1.00004
1.02665
2.24667
7.29543
8.50083
8.45382
8.40372
8.33957
8.27933
8.21699
8.15358
8.08711
8.01871
7.9481
7.87493
7.79936
7.71878
7.63314
7.54386
7.45204
7.35864
7.26617
7.17669
7.0969
7.0331
6.98863
6.95512
6.94092
6.94204
6.91979
6.90133
6.85927
6.81348
1
1
1
1
1
1
1
1
1
1
1
1
1
1
1
1
1
1
1
1
1
1
1
1
1
1
1
1
1
1
1
1
1
1
1
1
1
1
1
1
1
1
1
1
1
1
1
1
1
1
1
1
1
1
1
1
1
1
1
1
1
1
1
1
1.00008
1.04185
2.66217
7.53585
8.3829
8.3257
8.28136
8.21972
8.15635
8.09447
8.03216
7.96834
7.90116
7.83007
7.75387
7.67184
7.58616
7.49917
7.4108
7.32826
7.25603
7.20957
7.18666
7.18455
7.20297
7.22076
7.25162
7.25169
7.20788
7.16792
7.09996
7.02306
1
1
1
1
1
1
1
1
1
1
1
1
1
1
1
1
1
1
1
1
1
1
1
1
1
1
1
1
1
1
1
1
1
1
1
1
1
1
1
1
1
1
1
1
1
1
1
1
1
1
1
1
1
1
1
1
1
1
1
1
1
1
1
1
1
1.00015
1.0731
2.95431
7.58126
8.26666
8.21256
8.15678
8.10199
8.04517
7.98723
7.92564
7.85883
7.78679
7.70814
7.62695
7.5432
7.46648
7.39849
7.3609
7.35463
7.37415
7.43128
7.49409
7.53464
7.55877
7.56694
7.50818
7.42838
7.36388
7.27589
7.17796
1
1
1
1
1
1
1
1
1
1
1
1
1
1
1
1
1
1
1
1
1
1
1
1
1
1
1
1
1
1
1
1
1
1
1
1
1
1
1
1
1
1
1
1
1
1
1
1
1
1
1
1
1
1
1
1
1
1
1
1
1
1
1
1
1
1
1.00035
1.10202
3.05002
7.50539
8.15774
8.10701
8.05833
8.007
7.95095
7.88955
7.81989
7.74434
7.66581
7.59094
7.52728
7.4874
7.48737
7.53489
7.62139
7.71992
7.81354
7.85289
7.85415
7.83465
7.78156
7.67798
7.58608
7.51426
7.41862
7.31763
1
1
1
1
1
1
1
1
1
1
1
1
1
1
1
1
1
1
1
1
1
1
1
1
1
1
1
1
1
1
1
1
1
1
1
1
1
1
1
1
1
1
1
1
1
1
1
1
1
1
1
1
1
1
1
1
1
1
1
1
1
1
1
1
1
1
1
1.00059
1.11466
2.98929
7.37566
8.07447
8.02955
7.98121
7.9205
7.85438
7.78108
7.70428
7.63609
7.59037
7.59029
7.6502
7.76651
7.91796
8.05191
8.1367
8.17604
8.13438
8.07957
8.01887
7.92517
7.80855
7.72494
7.65335
7.55572
7.46133
1
1
1
1
1
1
1
1
1
1
1
1
1
1
1
1
1
1
1
1
1
1
1
1
1
1
1
1
1
1
1
1
1
1
1
1
1
1
1
1
1
1
1
1
1
1
1
1
1
1
1
1
1
1
1
1
1
1
1
1
1
1
1
1
1
1
1
1
1.00073
1.10983
2.90025
7.19942
7.98509
7.94788
7.88535
7.81434
7.73922
7.68234
7.66762
7.71869
7.84977
8.04851
8.25432
8.38889
8.44978
8.46266
8.40692
8.31093
8.23362
8.15611
8.0526
7.94426
7.87325
7.80171
7.70385
7.61805
1
1
1
1
1
1
1
1
1
1
1
1
1
1
1
1
1
1
1
1
1
1
1
1
1
1
1
1
1
1
1
1
1
1
1
1
1
1
1
1
1
1
1
1
1
1
1
1
1
1
1
1
1
1
1
1
1
1
1
1
1
1
1
1
1
1
1
1
1
1.0007
1.10056
2.76676
6.95498
7.88437
7.85127
7.77972
7.73419
7.75732
7.89475
8.1283
8.39841
8.61743
8.71915
8.74168
8.71075
8.64718
8.54707
8.44073
8.36344
8.28501
8.18253
8.0874
8.02558
7.95329
7.85764
7.78004
1
1
1
1
1
1
1
1
1
1
1
1
1
1
1
1
1
1
1
1
1
1
1
1
1
1
1
1
1
1
1
1
1
1
1
1
1
1
1
1
1
1
1
1
1
1
1
1
1
1
1
1
1
1
1
1
1
1
1
1
1
1
1
1
1
1
1
1
1
1
1.00062
1.08693
2.57498
6.62309
7.75469
7.77065
7.88198
8.16284
8.51594
8.8064
8.974
9.02703
8.9908
8.93084
8.85997
8.76362
8.6536
8.56706
8.50492
8.42867
8.32784
8.2463
8.1898
8.114
8.01752
7.94088
1
1
1
1
1
1
1
1
1
1
1
1
1
1
1
1
1
1
1
1
1
1
1
1
1
1
1
1
1
1
1
1
1
1
1
1
1
1
1
1
1
1
1
1
1
1
1
1
1
1
1
1
1
1
1
1
1
1
1
1
1
1
1
1
1
1
1
1
1
1
1
1.0005
1.06914
2.33776
6.14506
7.93489
8.55123
8.93864
9.2043
9.30243
9.31371
9.23367
9.14328
9.06047
8.97079
8.86116
8.76269
8.70133
8.6475
8.56475
8.46711
8.40158
8.35069
8.27056
8.17208
8.09897
1
1
1
1
1
1
1
1
1
1
1
1
1
1
1
1
1
1
1
1
1
1
1
1
1
1
1
1
1
1
1
1
1
1
1
1
1
1
1
1
1
1
1
1
1
1
1
1
1
1
1
1
1
1
1
1
1
1
1
1
1
1
1
1
1
1
1
1
1
1
1
1
1.00035
1.0505
2.03505
7.0868
9.52214
9.58443
9.58029
9.53051
9.45702
9.35376
9.26335
9.18447
9.09252
8.99304
8.91424
8.86226
8.80174
8.70729
8.61123
8.55339
8.50128
8.41246
8.31147
8.24668
1
1
1
1
1
1
1
1
1
1
1
1
1
1
1
1
1
1
1
1
1
1
1
1
1
1
1
1
1
1
1
1
1
1
1
1
1
1
1
1
1
1
1
1
1
1
1
1
1
1
1
1
1
1
1
1
1
1
1
1
1
1
1
1
1
1
1
1
1
1
1
1
1
1.00025
1.02994
4.11984
9.73798
9.90857
9.8115
9.71152
9.60149
9.48192
9.37291
9.28213
9.19211
9.10629
9.03869
8.99169
8.93535
8.8506
8.77133
8.71673
8.65727
8.55923
8.46175
8.40235
1
1
1
1
1
1
1
1
1
1
1
1
1
1
1
1
1
1
1
1
1
1
1
1
1
1
1
1
1
1
1
1
1
1
1
1
1
1
1
1
1
1
1
1
1
1
1
1
1
1
1
1
1
1
1
1
1
1
1
1
1
1
1
1
1
1
1
1
1
1
1
1
1
1
1.00007
1.61381
8.04507
10.0017
9.79681
9.68819
9.58054
9.48971
9.41711
9.3624
9.31523
9.2545
9.19681
9.14879
9.08496
8.99822
8.91864
8.85978
8.78992
8.69484
8.6158
8.56069
1
1
1
1
1
1
1
1
1
1
1
1
1
1
1
1
1
1
1
1
1
1
1
1
1
1
1
1
1
1
1
1
1
1
1
1
1
1
1
1
1
1
1
1
1
1
1
1
1
1
1
1
1
1
1
1
1
1
1
1
1
1
1
1
1
1
1
1
1
1
1
1
1
1
1
1.01084
4.97147
9.6429
9.7706
9.72822
9.69346
9.64385
9.59412
9.54135
9.48439
9.42293
9.3648
9.30644
9.22896
9.1406
9.057
8.99348
8.92376
8.83801
8.76421
8.70401
1
1
1
1
1
1
1
1
1
1
1
1
1
1
1
1
1
1
1
1
1
1
1
1
1
1
1
1
1
1
1
1
1
1
1
1
1
1
1
1
1
1
1
1
1
1
1
1
1
1
1
1
1
1
1
1
1
1
1
1
1
1
1
1
1
1
1
1
1
1
1
1
1
1
1
1.00001
2.06732
8.42016
9.88292
9.81458
9.77623
9.73861
9.69709
9.64598
9.58678
9.52512
9.45874
9.38481
9.30685
9.23244
9.16602
9.11113
9.05499
8.98396
8.91232
8.84802
1
1
1
1
1
1
1
1
1
1
1
1
1
1
1
1
1
1
1
1
1
1
1
1
1
1
1
1
1
1
1
1
1
1
1
1
1
1
1
1
1
1
1
1
1
1
1
1
1
1
1
1
1
1
1
1
1
1
1
1
1
1
1
1
1
1
1
1
1
1
1
1
1
1
1
1
1.03752
5.82596
9.82404
9.90704
9.84866
9.79898
9.74393
9.6904
9.63769
9.58522
9.53175
9.47524
9.41607
9.35894
9.30532
9.24719
9.1804
9.1085
9.0394
8.97728
1
1
1
1
1
1
1
1
1
1
1
1
1
1
1
1
1
1
1
1
1
1
1
1
1
1
1
1
1
1
1
1
1
1
1
1
1
1
1
1
1
1
1
1
1
1
1
1
1
1
1
1
1
1
1
1
1
1
1
1
1
1
1
1
1
1
1
1
1
1
1
1
1
1
1
1
1.00002
2.85445
8.85365
9.90534
9.84769
9.81633
9.77737
9.73488
9.69022
9.64344
9.59557
9.54757
9.50077
9.45115
9.39796
9.33842
9.27342
9.20861
9.14656
9.08396
1
1
1
1
1
1
1
1
1
1
1
1
1
1
1
1
1
1
1
1
1
1
1
1
1
1
1
1
1
1
1
1
1
1
1
1
1
1
1
1
1
1
1
1
1
1
1
1
1
1
1
1
1
1
1
1
1
1
1
1
1
1
1
1
1
1
1
1
1
1
1
1
1
1
1
1
1
1.11443
7.09891
10.0405
9.96056
9.8793
9.83065
9.79355
9.75673
9.7164
9.67157
9.62156
9.56895
9.51623
9.46179
9.40515
9.34693
9.29035
9.23353
9.17688
1
1
1
1
1
1
1
1
1
1
1
1
1
1
1
1
1
1
1
1
1
1
1
1
1
1
1
1
1
1
1
1
1
1
1
1
1
1
1
1
1
1
1
1
1
1
1
1
1
1
1
1
1
1
1
1
1
1
1
1
1
1
1
1
1
1
1
1
1
1
1
1
1
1
1
1
1
1.00033
4.51921
9.59709
9.91357
9.88534
9.86564
9.83083
9.79024
9.74579
9.69844
9.65105
9.60145
9.55126
9.50147
9.45179
9.40136
9.35116
9.29911
9.24635
1
1
1
1
1
1
1
1
1
1
1
1
1
1
1
1
1
1
1
1
1
1
1
1
1
1
1
1
1
1
1
1
1
1
1
1
1
1
1
1
1
1
1
1
1
1
1
1
1
1
1
1
1
1
1
1
1
1
1
1
1
1
1
1
1
1
1
1
1
1
1
1
1
1
1
1
1
0.999999
2.20286
8.60908
10.1013
10.0078
9.95633
9.90108
9.84863
9.79751
9.74821
9.70156
9.65578
9.61034
9.5646
9.51862
9.47216
9.42441
9.37483
9.32174
1
1
1
1
1
1
1
1
1
1
1
1
1
1
1
1
1
1
1
1
1
1
1
1
1
1
1
1
1
1
1
1
1
1
1
1
1
1
1
1
1
1
1
1
1
1
1
1
1
1
1
1
1
1
1
1
1
1
1
1
1
1
1
1
1
1
1
1
1
1
1
1
1
1
1
1
1
1
1.05482
6.68282
10.1067
10.0944
10.0116
9.95632
9.90017
9.84696
9.7968
9.74906
9.7022
9.65579
9.60918
9.562
9.51458
9.46585
9.41618
9.36534
1
1
1
1
1
1
1
1
1
1
1
1
1
1
1
1
1
1
1
1
1
1
1
1
1
1
1
1
1
1
1
1
1
1
1
1
1
1
1
1
1
1
1
1
1
1
1
1
1
1
1
1
1
1
1
1
1
1
1
1
1
1
1
1
1
1
1
1
1
1
1
1
1
1
1
1
1
1
1.00006
4.42375
9.65491
10.0068
9.97154
9.94833
9.9097
9.86904
9.82702
9.78358
9.73947
9.69469
9.64912
9.60241
9.55527
9.5067
9.45746
9.40725
1
1
1
1
1
1
1
1
1
1
1
1
1
1
1
1
1
1
1
1
1
1
1
1
1
1
1
1
1
1
1
1
1
1
1
1
1
1
1
1
1
1
1
1
1
1
1
1
1
1
1
1
1
1
1
1
1
1
1
1
1
1
1
1
1
1
1
1
1
1
1
1
1
1
1
1
1
1
1
2.42827
8.74442
10.1832
10.0953
10.0489
9.99788
9.94952
9.90175
9.85317
9.80502
9.75682
9.70863
9.66016
9.61185
9.56288
9.51325
9.46278
1
1
1
1
1
1
1
1
1
1
1
1
1
1
1
1
1
1
1
1
1
1
1
1
1
1
1
1
1
1
1
1
1
1
1
1
1
1
1
1
1
1
1
1
1
1
1
1
1
1
1
1
1
1
1
1
1
1
1
1
1
1
1
1
1
1
1
1
1
1
1
1
1
1
1
1
1
1
1
1.15006
7.24686
10.2406
10.1373
10.0628
10.0108
9.96697
9.92502
9.8818
9.83707
9.79119
9.74456
9.69744
9.65014
9.60232
9.55374
9.5044
1
1
1
1
1
1
1
1
1
1
1
1
1
1
1
1
1
1
1
1
1
1
1
1
1
1
1
1
1
1
1
1
1
1
1
1
1
1
1
1
1
1
1
1
1
1
1
1
1
1
1
1
1
1
1
1
1
1
1
1
1
1
1
1
1
1
1
1
1
1
1
1
1
1
1
1
1
1
1
1.00076
5.48382
10.0082
10.1155
10.0782
10.0475
10.0057
9.96258
9.91863
9.8739
9.82856
9.78238
9.73563
9.68855
9.64104
9.59298
9.54438
1
1
1
1
1
1
1
1
1
1
1
1
1
1
1
1
1
1
1
1
1
1
1
1
1
1
1
1
1
1
1
1
1
1
1
1
1
1
1
1
1
1
1
1
1
1
1
1
1
1
1
1
1
1
1
1
1
1
1
1
1
1
1
1
1
1
1
1
1
1
1
1
1
1
1
1
1
1
1
0.999999
3.70195
9.49431
10.1144
10.0726
10.048
10.0106
9.97236
9.9318
9.88988
9.84716
9.80374
9.75974
9.71513
9.66975
9.62363
9.57698
1
1
1
1
1
1
1
1
1
1
1
1
1
1
1
1
1
1
1
1
1
1
1
1
1
1
1
1
1
1
1
1
1
1
1
1
1
1
1
1
1
1
1
1
1
1
1
1
1
1
1
1
1
1
1
1
1
1
1
1
1
1
1
1
1
1
1
1
1
1
1
1
1
1
1
1
1
1
1
1
2.24256
8.67993
10.2679
10.1847
10.1404
10.0916
10.0454
9.99889
9.95277
9.90702
9.8614
9.81577
9.76985
9.72345
9.67656
9.62914
1
1
1
1
1
1
1
1
1
1
1
1
1
1
1
1
1
1
1
1
1
1
1
1
1
1
1
1
1
1
1
1
1
1
1
1
1
1
1
1
1
1
1
1
1
1
1
1
1
1
1
1
1
1
1
1
1
1
1
1
1
1
1
1
1
1
1
1
1
1
1
1
1
1
1
1
1
1
1
1
1.25165
7.45062
10.3192
10.2156
10.1506
10.105
10.0633
10.0207
9.97742
9.93362
9.88939
9.84483
9.79972
9.75405
9.70797
9.66135
1
1
1
1
1
1
1
1
1
1
1
1
1
1
1
1
1
1
1
1
1
1
1
1
1
1
1
1
1
1
1
1
1
1
1
1
1
1
1
1
1
1
1
1
1
1
1
1
1
1
1
1
1
1
1
1
1
1
1
1
1
1
1
1
1
1
1
1
1
1
1
1
1
1
1
1
1
1
1
1
1.00293
6.1344
10.2075
10.2277
10.1726
10.1325
10.0889
10.0452
10.0017
9.95824
9.91457
9.87066
9.82611
9.78097
9.73545
9.6894
1
1
1
1
1
1
1
1
1
1
1
1
1
1
1
1
1
1
1
1
1
1
1
1
1
1
1
1
1
1
1
1
1
1
1
1
1
1
1
1
1
1
1
1
1
1
1
1
1
1
1
1
1
1
1
1
1
1
1
1
1
1
1
1
1
1
1
1
1
1
1
1
1
1
1
1
1
1
1
1
1
4.80578
9.94785
10.2186
10.1716
10.1423
10.104
10.0652
10.0247
9.98254
9.93961
9.89637
9.85234
9.80754
9.76226
9.71648
1
1
1
1
1
1
1
1
1
1
1
1
1
1
1
1
1
1
1
1
1
1
1
1
1
1
1
1
1
1
1
1
1
1
1
1
1
1
1
1
1
1
1
1
1
1
1
1
1
1
1
1
1
1
1
1
1
1
1
1
1
1
1
1
1
1
1
1
1
1
1
1
1
1
1
1
1
1
1
1
1
3.56619
9.54299
10.2619
10.2035
10.1755
10.1368
10.098
10.0572
10.0147
9.9712
9.9274
9.88292
9.83779
9.79219
9.7461
1
1
1
1
1
1
1
1
1
1
1
1
1
1
1
1
1
1
1
1
1
1
1
1
1
1
1
1
1
1
1
1
1
1
1
1
1
1
1
1
1
1
1
1
1
1
1
1
1
1
1
1
1
1
1
1
1
1
1
1
1
1
1
1
1
1
1
1
1
1
1
1
1
1
1
1
1
1
1
1
1
2.52601
9.0385
10.3046
10.2302
10.1962
10.1548
10.114
10.0719
10.0293
9.98578
9.94202
9.89777
9.85317
9.80818
9.76249
1
1
1
1
1
1
1
1
1
1
1
1
1
1
1
1
1
1
1
1
1
1
1
1
1
1
1
1
1
1
1
1
1
1
1
1
1
1
1
1
1
1
1
1
1
1
1
1
1
1
1
1
1
1
1
1
1
1
1
1
1
1
1
1
1
1
1
1
1
1
1
1
1
1
1
1
1
1
1
1
1
1.75397
8.31626
10.3464
10.2624
10.2193
10.1758
10.1335
10.0913
10.0491
10.0062
9.9632
9.91984
9.87605
9.83182
9.78678
1
1
1
1
1
1
1
1
1
1
1
1
1
1
1
1
1
1
1
1
1
1
1
1
1
1
1
1
1
1
1
1
1
1
1
1
1
1
1
1
1
1
1
1
1
1
1
1
1
1
1
1
1
1
1
1
1
1
1
1
1
1
1
1
1
1
1
1
1
1
1
1
1
1
1
1
1
1
1
1
1
1.31688
7.5596
10.3772
10.2935
10.2401
10.1929
10.1485
10.1051
10.0627
10.0202
9.97725
9.93407
9.89064
9.84683
9.8021
1
1
1
1
1
1
1
1
1
1
1
1
1
1
1
1
1
1
1
1
1
1
1
1
1
1
1
1
1
1
1
1
1
1
1
1
1
1
1
1
1
1
1
1
1
1
1
1
1
1
1
1
1
1
1
1
1
1
1
1
1
1
1
1
1
1
1
1
1
1
1
1
1
1
1
1
1
1
1
1
1
1.0085
6.7539
10.3169
10.3077
10.2443
10.2031
10.1602
10.1183
10.0763
10.0346
9.99192
9.94908
9.90596
9.8624
9.81792
1
1
1
1
1
1
1
1
1
1
1
1
1
1
1
1
1
1
1
1
1
1
1
1
1
1
1
1
1
1
1
1
1
1
1
1
1
1
1
1
1
1
1
1
1
1
1
1
1
1
1
1
1
1
1
1
1
1
1
1
1
1
1
1
1
1
1
1
1
1
1
1
1
1
1
1
1
1
1
1
1
1.00001
5.96031
10.216
10.2926
10.2357
10.2036
10.1646
10.1255
10.0848
10.0442
10.0023
9.96003
9.91762
9.87488
9.83123
1
1
1
1
1
1
1
1
1
1
1
1
1
1
1
1
1
1
1
1
1
1
1
1
1
1
1
1
1
1
1
1
1
1
1
1
1
1
1
1
1
1
1
1
1
1
1
1
1
1
1
1
1
1
1
1
1
1
1
1
1
1
1
1
1
1
1
1
1
1
1
1
1
1
1
1
1
1
1
1
1
1
5.19863
10.1102
10.3038
10.2479
10.2177
10.1798
10.1418
10.102
10.0619
10.0209
9.97898
9.93664
9.89393
9.85031
1
1
1
1
1
1
1
1
1
1
1
1
1
1
1
1
1
1
1
1
1
1
1
1
1
1
1
1
1
1
1
1
1
1
1
1
1
1
1
1
1
1
1
1
1
1
1
1
1
1
1
1
1
1
1
1
1
1
1
1
1
1
1
1
1
1
1
1
1
1
1
1
1
1
1
1
1
1
1
1
1
1
4.54717
9.97712
10.3214
10.2586
10.2265
10.1883
10.1502
10.1108
10.0708
10.0302
9.98835
9.94614
9.9035
9.86004
1
1
1
1
1
1
1
1
1
1
1
1
1
1
1
1
1
1
1
1
1
1
1
1
1
1
1
1
1
1
1
1
1
1
1
1
1
1
1
1
1
1
1
1
1
1
1
1
1
1
1
1
1
1
1
1
1
1
1
1
1
1
1
1
1
1
1
1
1
1
1
1
1
1
1
1
1
1
1
1
1
1
4.02338
9.82189
10.3406
10.2704
10.2365
10.1974
10.1587
10.1193
10.0791
10.0389
9.99708
9.95512
9.91257
9.86944
1
1
1
1
1
1
1
1
1
1
1
1
1
1
1
1
1
1
1
1
1
1
1
1
1
1
1
1
1
1
1
1
1
1
1
1
1
1
1
1
1
1
1
1
1
1
1
1
1
1
1
1
1
1
1
1
1
1
1
1
1
1
1
1
1
1
1
1
1
1
1
1
1
1
1
1
1
1
1
1
1
1
3.60971
9.66049
10.3567
10.2798
10.2448
10.2048
10.1657
10.1262
10.0857
10.0457
10.004
9.96235
9.91976
9.87693
1
1
1
1
1
1
1
1
1
1
1
1
1
1
1
1
1
1
1
1
1
1
1
1
1
1
1
1
1
1
1
1
1
1
1
1
1
1
1
1
1
1
1
1
1
1
1
1
1
1
1
1
1
1
1
1
1
1
1
1
1
1
1
1
1
1
1
1
1
1
1
1
1
1
1
1
1
1
1
1
1
1
3.27208
9.53909
10.3692
10.2888
10.2531
10.2125
10.173
10.1331
10.0922
10.0519
10.0103
9.96864
9.92582
9.88298
1
1
1
1
1
1
1
1
1
1
1
1
1
1
1
1
1
1
1
1
1
1
1
1
1
1
1
1
1
1
1
1
1
1
1
1
1
1
1
1
1
1
1
1
1
1
1
1
1
1
1
1
1
1
1
1
1
1
1
1
1
1
1
1
1
1
1
1
1
1
1
1
1
1
1
1
1
1
1
1
1
1
3.02413
9.45179
10.3742
10.2936
10.2578
10.2169
10.1774
10.1375
10.0965
10.0559
10.0146
9.97311
9.93034
9.88767
1
1
1
1
1
1
1
1
1
1
1
1
1
1
1
1
1
1
1
1
1
1
1
1
1
1
1
1
1
1
1
1
1
1
1
1
1
1
1
1
1
1
1
1
1
1
1
1
1
1
1
1
1
1
1
1
1
1
1
1
1
1
1
1
1
1
1
1