/*--------------------------------*- C++ -*----------------------------------*\
  =========                 |
  \\      /  F ield         | OpenFOAM: The Open Source CFD Toolbox
   \\    /   O peration     | Website:  https://openfoam.org
    \\  /    A nd           | Version:  7
     \\/     M anipulation  |
\*---------------------------------------------------------------------------*/
FoamFile
{
    version     2.0;
    format      ascii;
    class       volScalarField;
    location    "8.7";
    object      rho;
}
// * * * * * * * * * * * * * * * * * * * * * * * * * * * * * * * * * * * * * //

dimensions      [1 -3 0 0 0 0 0];

internalField   nonuniform List<scalar> 
19968
(
1.40001
1.40001
1.40001
1.40001
1.40001
1.40001
1.40001
1.40001
1.40001
1.40001
1.40001
1.40001
1.40001
1.40001
1.40001
1.40001
1.40001
1.40001
1.40001
1.40001
1.40001
1.40001
1.40001
1.40001
1.40001
1.40001
1.40001
1.40001
1.40001
1.40001
1.40001
1.40001
1.40001
1.40001
1.40001
1.40001
1.40001
1.40001
1.40001
1.40001
1.40001
1.40001
1.40001
1.40001
1.40001
1.40001
1.40001
1.40001
1.71029
4.5911
5.44362
5.44371
5.46331
5.48164
5.49994
5.51859
5.53879
5.56033
5.58227
5.60391
5.62447
5.64387
5.66261
5.68085
5.69802
5.71396
5.72944
5.74519
5.76112
5.7769
5.79244
5.80794
5.82358
5.83929
5.8547
5.86922
5.88226
5.89356
5.9033
5.91203
5.92043
5.9292
5.9387
5.94871
5.95855
5.96748
5.97516
5.98173
5.9876
5.99311
5.99835
6.00314
6.00718
6.01021
6.01224
6.01371
1.40001
1.40001
1.40001
1.40001
1.40001
1.40001
1.40001
1.40001
1.40001
1.40001
1.40001
1.40001
1.40001
1.40001
1.40001
1.40001
1.40001
1.40001
1.40001
1.40001
1.40001
1.40001
1.40001
1.40001
1.40001
1.40001
1.40001
1.40001
1.40001
1.40001
1.40001
1.40001
1.40001
1.40001
1.40001
1.40001
1.40001
1.40001
1.40001
1.40001
1.40001
1.40001
1.40001
1.40001
1.40001
1.40001
1.40001
1.40001
1.69225
4.56211
5.43652
5.44304
5.46312
5.48164
5.49993
5.51849
5.5386
5.56007
5.58177
5.60324
5.62364
5.64309
5.66189
5.67998
5.69695
5.71269
5.72807
5.74374
5.75961
5.77534
5.79083
5.80629
5.82192
5.83767
5.85315
5.8677
5.88074
5.89201
5.90174
5.91048
5.91892
5.9277
5.93717
5.9471
5.95684
5.96568
5.9733
5.97981
5.98559
5.99098
5.99608
6.00074
6.00469
6.00768
6.00967
6.01112
1.40001
1.40001
1.40001
1.40001
1.40001
1.40001
1.40001
1.40001
1.40001
1.40001
1.40001
1.40001
1.40001
1.40001
1.40001
1.40001
1.40001
1.40001
1.40001
1.40001
1.40001
1.40001
1.40001
1.40001
1.40001
1.40001
1.40001
1.40001
1.40001
1.40001
1.40001
1.40001
1.40001
1.40001
1.40001
1.40001
1.40001
1.40001
1.40001
1.40001
1.40001
1.40001
1.40001
1.40001
1.40001
1.40001
1.40001
1.40001
1.65421
4.50573
5.42976
5.43961
5.46067
5.47974
5.49828
5.51695
5.53714
5.55863
5.5801
5.60134
5.62139
5.64073
5.65956
5.67756
5.69444
5.71009
5.72543
5.74102
5.75677
5.77234
5.78765
5.80298
5.8186
5.83446
5.85008
5.86473
5.87777
5.88899
5.89869
5.90745
5.91594
5.92477
5.93421
5.94407
5.95373
5.96253
5.97013
5.97662
5.98233
5.98761
5.99257
5.99712
6.001
6.00399
6.00599
6.00744
1.40001
1.40001
1.40001
1.40001
1.40001
1.40001
1.40001
1.40001
1.40001
1.40001
1.40001
1.40001
1.40001
1.40001
1.40001
1.40001
1.40001
1.40001
1.40001
1.40001
1.40001
1.40001
1.40001
1.40001
1.40001
1.40001
1.40001
1.40001
1.40001
1.40001
1.40001
1.40001
1.40001
1.40001
1.40001
1.40001
1.40001
1.40001
1.40001
1.40001
1.40001
1.40001
1.40001
1.40001
1.40001
1.40001
1.40001
1.40001
1.60069
4.4148
5.42096
5.43601
5.45744
5.47707
5.49585
5.51456
5.53476
5.55625
5.57756
5.59848
5.61811
5.63727
5.65617
5.67412
5.69097
5.70656
5.72184
5.73725
5.75275
5.76803
5.78305
5.79817
5.81373
5.82969
5.84548
5.86026
5.87334
5.88454
5.89421
5.90298
5.91148
5.92026
5.92959
5.93925
5.94867
5.95726
5.96469
5.97102
5.97659
5.98171
5.98656
5.99106
5.99499
5.9981
6.00022
6.00179
1.40001
1.40001
1.40001
1.40001
1.40001
1.40001
1.40001
1.40001
1.40001
1.40001
1.40001
1.40001
1.40001
1.40001
1.40001
1.40001
1.40001
1.40001
1.40001
1.40001
1.40001
1.40001
1.40001
1.40001
1.40001
1.40001
1.40001
1.40001
1.40001
1.40001
1.40001
1.40001
1.40001
1.40001
1.40001
1.40001
1.40001
1.40001
1.40001
1.40001
1.40001
1.40001
1.40001
1.40001
1.40001
1.40001
1.40001
1.40001
1.53197
4.29295
5.41507
5.43212
5.45323
5.47345
5.49262
5.51149
5.5315
5.55257
5.57339
5.59381
5.61301
5.63205
5.65112
5.66926
5.68633
5.70206
5.71733
5.73252
5.74767
5.76255
5.77722
5.79205
5.80747
5.82348
5.83945
5.85445
5.86771
5.87903
5.88878
5.89761
5.90618
5.91498
5.92424
5.93375
5.94298
5.95131
5.95844
5.96441
5.96954
5.97417
5.9785
5.98254
5.98611
5.98902
5.99104
5.99255
1.40001
1.40001
1.40001
1.40001
1.40001
1.40001
1.40001
1.40001
1.40001
1.40001
1.40001
1.40001
1.40001
1.40001
1.40001
1.40001
1.40001
1.40001
1.40001
1.40001
1.40001
1.40001
1.40001
1.40001
1.40001
1.40001
1.40001
1.40001
1.40001
1.40001
1.40001
1.40001
1.40001
1.40001
1.40001
1.40001
1.40001
1.40001
1.40001
1.40001
1.40001
1.40001
1.40001
1.40001
1.40001
1.40001
1.40001
1.40001
1.41953
4.10768
5.40921
5.42852
5.44823
5.46988
5.48993
5.50943
5.5293
5.54957
5.56943
5.58891
5.60745
5.62616
5.64523
5.66366
5.68112
5.69689
5.71187
5.72644
5.74087
5.75511
5.76923
5.78355
5.79849
5.81413
5.82991
5.84487
5.85818
5.86957
5.87935
5.88816
5.89667
5.90539
5.91453
5.92392
5.93303
5.9413
5.9484
5.95436
5.95947
5.96403
5.96827
5.97218
5.97565
5.97852
5.98052
5.98201
1.40001
1.40001
1.40001
1.40001
1.40001
1.40001
1.40001
1.40001
1.40001
1.40001
1.40001
1.40001
1.40001
1.40001
1.40001
1.40001
1.40001
1.40001
1.40001
1.40001
1.40001
1.40001
1.40001
1.40001
1.40001
1.40001
1.40001
1.40001
1.40001
1.40001
1.40001
1.40001
1.40001
1.40001
1.40001
1.40001
1.40001
1.40001
1.40001
1.40001
1.40001
1.40001
1.40001
1.40001
1.40001
1.40001
1.40001
1.40001
1.40022
3.81867
5.37378
5.4094
5.4296
5.45433
5.4757
5.49609
5.51612
5.53595
5.55538
5.57442
5.59265
5.6113
5.63056
5.64942
5.6675
5.68367
5.69883
5.7133
5.72751
5.74156
5.75556
5.76964
5.7842
5.79943
5.81496
5.82994
5.8435
5.85525
5.86531
5.87427
5.8828
5.89145
5.90049
5.90979
5.91884
5.9271
5.93422
5.94021
5.94531
5.9498
5.95391
5.95764
5.96092
5.96366
5.96557
5.96697
1.40001
1.40001
1.40001
1.40001
1.40001
1.40001
1.40001
1.40001
1.40001
1.40001
1.40001
1.40001
1.40001
1.40001
1.40001
1.40001
1.40001
1.40001
1.40001
1.40001
1.40001
1.40001
1.40001
1.40001
1.40001
1.40001
1.40001
1.40001
1.40001
1.40001
1.40001
1.40001
1.40001
1.40001
1.40001
1.40001
1.40001
1.40001
1.40001
1.40001
1.40001
1.40001
1.40001
1.40001
1.40001
1.40001
1.40001
1.40001
1.40001
3.42216
5.32623
5.40069
5.41987
5.44628
5.46769
5.48823
5.50839
5.52826
5.54756
5.56611
5.5838
5.60201
5.62094
5.63936
5.65709
5.67283
5.68746
5.70138
5.71511
5.72887
5.74264
5.75631
5.77013
5.78447
5.79924
5.81382
5.82739
5.83936
5.84965
5.85866
5.86705
5.87543
5.88416
5.89313
5.90193
5.91002
5.91704
5.92296
5.92799
5.93235
5.93628
5.9398
5.94285
5.9454
5.94711
5.94834
1.40001
1.40001
1.40001
1.40001
1.40001
1.40001
1.40001
1.40001
1.40001
1.40001
1.40001
1.40001
1.40001
1.40001
1.40001
1.40001
1.40001
1.40001
1.40001
1.40001
1.40001
1.40001
1.40001
1.40001
1.40001
1.40001
1.40001
1.40001
1.40001
1.40001
1.40001
1.40001
1.40001
1.40001
1.40001
1.40001
1.40001
1.40001
1.40001
1.40001
1.40001
1.40001
1.40001
1.40001
1.40001
1.40001
1.40001
1.40001
1.40001
2.94394
5.23945
5.39983
5.41552
5.4404
5.46084
5.48093
5.5009
5.52081
5.54
5.55814
5.5753
5.59282
5.6109
5.62832
5.6451
5.65993
5.67357
5.68657
5.69963
5.71294
5.72637
5.73942
5.75224
5.7653
5.77884
5.79259
5.80584
5.81787
5.82829
5.83729
5.84543
5.85337
5.86155
5.87001
5.87844
5.88634
5.89333
5.89931
5.90442
5.90885
5.9128
5.91633
5.91933
5.92182
5.9234
5.92451
1.40001
1.40001
1.40001
1.40001
1.40001
1.40001
1.40001
1.40001
1.40001
1.40001
1.40001
1.40001
1.40001
1.40001
1.40001
1.40001
1.40001
1.40001
1.40001
1.40001
1.40001
1.40001
1.40001
1.40001
1.40001
1.40001
1.40001
1.40001
1.40001
1.40001
1.40001
1.40001
1.40001
1.40001
1.40001
1.40001
1.40001
1.40001
1.40001
1.40001
1.40001
1.40001
1.40001
1.40001
1.40001
1.40001
1.40001
1.40001
1.40001
2.40476
5.06006
5.40524
5.42263
5.44452
5.46203
5.47977
5.49806
5.51708
5.53561
5.55304
5.56936
5.58576
5.60242
5.6184
5.63382
5.64759
5.6601
5.67198
5.6841
5.69673
5.70959
5.72181
5.73324
5.74447
5.75608
5.76817
5.78033
5.79183
5.802
5.81071
5.81841
5.82574
5.83327
5.84117
5.84922
5.85693
5.86383
5.8697
5.87462
5.8788
5.88249
5.88578
5.88856
5.89087
5.89224
5.89317
1.40001
1.40001
1.40001
1.40001
1.40001
1.40001
1.40001
1.40001
1.40001
1.40001
1.40001
1.40001
1.40001
1.40001
1.40001
1.40001
1.40001
1.40001
1.40001
1.40001
1.40001
1.40001
1.40001
1.40001
1.40001
1.40001
1.40001
1.40001
1.40001
1.40001
1.40001
1.40001
1.40001
1.40001
1.40001
1.40001
1.40001
1.40001
1.40001
1.40001
1.40001
1.40001
1.40001
1.40001
1.40001
1.40001
1.40001
1.40001
1.40001
1.87276
4.73059
5.42572
5.41621
5.43507
5.4513
5.46917
5.48762
5.50661
5.52487
5.54205
5.55821
5.57424
5.59044
5.60598
5.62058
5.63357
5.64519
5.65618
5.66748
5.67952
5.69191
5.70363
5.71402
5.7236
5.73316
5.74326
5.75383
5.76421
5.77349
5.78117
5.78747
5.79309
5.79874
5.80484
5.81135
5.81788
5.82397
5.82934
5.83406
5.83827
5.84217
5.84568
5.84867
5.85112
5.85254
5.85358
1.40001
1.40001
1.40001
1.40001
1.40001
1.40001
1.40001
1.40001
1.40001
1.40001
1.40001
1.40001
1.40001
1.40001
1.40001
1.40001
1.40001
1.40001
1.40001
1.40001
1.40001
1.40001
1.40001
1.40001
1.40001
1.40001
1.40001
1.40001
1.40001
1.40001
1.40001
1.40001
1.40001
1.40001
1.40001
1.40001
1.40001
1.40001
1.40001
1.40001
1.40001
1.40001
1.40001
1.40001
1.40001
1.40001
1.40001
1.40001
1.40001
1.42372
4.09209
5.41395
5.42355
5.43642
5.4511
5.46632
5.4825
5.49945
5.51609
5.53182
5.54671
5.56133
5.57593
5.59011
5.60324
5.61507
5.62558
5.63512
5.64475
5.65536
5.6666
5.67754
5.68688
5.69496
5.70261
5.71072
5.71954
5.7287
5.73715
5.74399
5.74914
5.75327
5.75728
5.7618
5.767
5.77256
5.77788
5.7825
5.78631
5.78932
5.79169
5.79332
5.79437
5.79526
5.79575
5.79634
1.40001
1.40001
1.40001
1.40001
1.40001
1.40001
1.40001
1.40001
1.40001
1.40001
1.40001
1.40001
1.40001
1.40001
1.40001
1.40001
1.40001
1.40001
1.40001
1.40001
1.40001
1.40001
1.40001
1.40001
1.40001
1.40001
1.40001
1.40001
1.40001
1.40001
1.40001
1.40001
1.40001
1.40001
1.40001
1.40001
1.40001
1.40001
1.40001
1.40001
1.40001
1.40001
1.40001
1.40001
1.40001
1.40001
1.40001
1.40001
1.40001
1.40005
3.20882
5.24867
5.36277
5.38878
5.41317
5.43259
5.45049
5.46724
5.48299
5.49775
5.51189
5.52598
5.54025
5.55468
5.56835
5.58039
5.59087
5.60022
5.60918
5.61911
5.62984
5.64041
5.64929
5.65649
5.66286
5.66933
5.67646
5.68415
5.69145
5.69713
5.70067
5.70263
5.70393
5.7053
5.70718
5.70952
5.71175
5.71351
5.71494
5.71629
5.71772
5.71921
5.72045
5.7219
5.72278
5.72385
1.40001
1.40001
1.40001
1.40001
1.40001
1.40001
1.40001
1.40001
1.40001
1.40001
1.40001
1.40001
1.40001
1.40001
1.40001
1.40001
1.40001
1.40001
1.40001
1.40001
1.40001
1.40001
1.40001
1.40001
1.40001
1.40001
1.40001
1.40001
1.40001
1.40001
1.40001
1.40001
1.40001
1.40001
1.40001
1.40001
1.40001
1.40001
1.40001
1.40001
1.40001
1.40001
1.40001
1.40001
1.40001
1.40001
1.40001
1.40001
1.40001
1.4
2.18347
4.89918
5.36009
5.37573
5.40225
5.42056
5.43732
5.45271
5.46679
5.47956
5.49162
5.5036
5.51614
5.52946
5.54273
5.55444
5.56409
5.5723
5.57961
5.58748
5.59631
5.60507
5.61242
5.61777
5.622
5.62598
5.63035
5.63525
5.64011
5.64356
5.64476
5.64397
5.64178
5.63936
5.63754
5.63652
5.63591
5.63543
5.63464
5.63343
5.63142
5.62815
5.62234
5.61519
5.60758
5.60084
1.40001
1.40001
1.40001
1.40001
1.40001
1.40001
1.40001
1.40001
1.40001
1.40001
1.40001
1.40001
1.40001
1.40001
1.40001
1.40001
1.40001
1.40001
1.40001
1.40001
1.40001
1.40001
1.40001
1.40001
1.40001
1.40001
1.40001
1.40001
1.40001
1.40001
1.40001
1.40001
1.40001
1.40001
1.40001
1.40001
1.40001
1.40001
1.40001
1.40001
1.40001
1.40001
1.40001
1.40001
1.40001
1.40001
1.40001
1.40001
1.40001
1.40001
1.44434
3.99685
5.38165
5.39564
5.40083
5.41074
5.42105
5.43295
5.44468
5.45557
5.46541
5.47468
5.48445
5.4951
5.50638
5.51711
5.52596
5.5332
5.5392
5.54485
5.55123
5.55774
5.56319
5.56658
5.56852
5.56986
5.57126
5.57293
5.57471
5.57556
5.57424
5.57011
5.56336
5.55548
5.54762
5.53974
5.5309
5.52043
5.50795
5.49376
5.47828
5.46195
5.44748
5.43439
5.42787
5.42454
1.40001
1.40001
1.40001
1.40001
1.40001
1.40001
1.40001
1.40001
1.40001
1.40001
1.40001
1.40001
1.40001
1.40001
1.40001
1.40001
1.40001
1.40001
1.40001
1.40001
1.40001
1.40001
1.40001
1.40001
1.40001
1.40001
1.40001
1.40001
1.40001
1.40001
1.40001
1.40001
1.40001
1.40001
1.40001
1.40001
1.40001
1.40001
1.40001
1.40001
1.40001
1.40001
1.40001
1.40001
1.40001
1.40001
1.40001
1.40001
1.40001
1.40001
1.40006
2.6345
5.06439
5.34696
5.35452
5.3714
5.38447
5.39874
5.41234
5.42428
5.43403
5.44197
5.44931
5.45745
5.46664
5.47579
5.48336
5.48898
5.49349
5.49758
5.50203
5.50648
5.50954
5.51038
5.50913
5.50669
5.50382
5.50129
5.49912
5.4962
5.49083
5.48172
5.46922
5.45442
5.43848
5.42151
5.40249
5.3808
5.35684
5.33214
5.30751
5.28243
5.24881
5.20866
5.15116
5.16821
1.40001
1.40001
1.40001
1.40001
1.40001
1.40001
1.40001
1.40001
1.40001
1.40001
1.40001
1.40001
1.40001
1.40001
1.40001
1.40001
1.40001
1.40001
1.40001
1.40001
1.40001
1.40001
1.40001
1.40001
1.40001
1.40001
1.40001
1.40001
1.40001
1.40001
1.40001
1.40001
1.40001
1.40001
1.40001
1.40001
1.40001
1.40001
1.40001
1.40001
1.40001
1.40001
1.40001
1.40001
1.40001
1.40001
1.40001
1.40001
1.40001
1.40001
1.40001
1.54825
4.35228
5.38423
5.3687
5.37594
5.38366
5.39176
5.40018
5.40788
5.41432
5.41939
5.42355
5.42819
5.43357
5.43901
5.44373
5.44726
5.45
5.45229
5.45441
5.45636
5.45725
5.45606
5.45202
5.44578
5.43867
5.4319
5.42524
5.41773
5.40763
5.3937
5.37538
5.35327
5.32832
5.30067
5.2687
5.23059
5.18406
5.12854
5.05773
4.96419
4.8185
4.59004
4.17802
3.26425
1.40001
1.40001
1.40001
1.40001
1.40001
1.40001
1.40001
1.40001
1.40001
1.40001
1.40001
1.40001
1.40001
1.40001
1.40001
1.40001
1.40001
1.40001
1.40001
1.40001
1.40001
1.40001
1.40001
1.40001
1.40001
1.40001
1.40001
1.40001
1.40001
1.40001
1.40001
1.40001
1.40001
1.40001
1.40001
1.40001
1.40001
1.40001
1.40001
1.40001
1.40001
1.40001
1.40001
1.40001
1.40001
1.40001
1.40001
1.40001
1.40001
1.40001
1.4
1.4012
3.21817
5.2137
5.31875
5.3353
5.34713
5.3576
5.36821
5.37757
5.38514
5.39061
5.39406
5.3967
5.40005
5.40413
5.40807
5.41056
5.41093
5.41006
5.40892
5.4083
5.40771
5.4052
5.3995
5.39089
5.38062
5.3698
5.35867
5.34655
5.33207
5.31389
5.29069
5.26227
5.22874
5.19067
5.14557
5.09182
5.02377
4.94139
4.83324
4.69459
4.49031
4.21531
3.67776
2.91795
1.40001
1.40001
1.40001
1.40001
1.40001
1.40001
1.40001
1.40001
1.40001
1.40001
1.40001
1.40001
1.40001
1.40001
1.40001
1.40001
1.40001
1.40001
1.40001
1.40001
1.40001
1.40001
1.40001
1.40001
1.40001
1.40001
1.40001
1.40001
1.40001
1.40001
1.40001
1.40001
1.40001
1.40001
1.40001
1.40001
1.40001
1.40001
1.40001
1.40001
1.40001
1.40001
1.40001
1.40001
1.40001
1.40001
1.40001
1.40001
1.40001
1.40001
1.40001
1.4
1.95187
4.74873
5.34169
5.32758
5.33383
5.34238
5.3529
5.36218
5.36932
5.37366
5.37528
5.3751
5.37512
5.37631
5.37838
5.37969
5.37886
5.37545
5.37007
5.36483
5.36007
5.35427
5.34626
5.33545
5.32216
5.30731
5.29135
5.27404
5.2543
5.2312
5.20284
5.16854
5.12681
5.07862
5.02087
4.95268
4.86773
4.76439
4.63423
4.46655
4.25014
3.93239
3.49939
2.96877
1.40001
1.40001
1.40001
1.40001
1.40001
1.40001
1.40001
1.40001
1.40001
1.40001
1.40001
1.40001
1.40001
1.40001
1.40001
1.40001
1.40001
1.40001
1.40001
1.40001
1.40001
1.40001
1.40001
1.40001
1.40001
1.40001
1.40001
1.40001
1.40001
1.40001
1.40001
1.40001
1.40001
1.40001
1.40001
1.40001
1.40001
1.40001
1.40001
1.40001
1.40001
1.40001
1.40001
1.40001
1.40001
1.40001
1.40001
1.40001
1.40001
1.40001
1.40001
1.4
1.42296
3.56308
5.25632
5.30299
5.31412
5.32241
5.33346
5.34309
5.35038
5.35447
5.35574
5.3536
5.34947
5.34636
5.34508
5.34472
5.34376
5.33987
5.33222
5.32268
5.31266
5.30207
5.29082
5.27753
5.26171
5.2437
5.22342
5.20116
5.17583
5.14722
5.11329
5.07348
5.02535
4.96918
4.90217
4.82304
4.7271
4.61095
4.47031
4.2943
4.07766
3.79507
3.45996
3.08382
1.40001
1.40001
1.40001
1.40001
1.40001
1.40001
1.40001
1.40001
1.40001
1.40001
1.40001
1.40001
1.40001
1.40001
1.40001
1.40001
1.40001
1.40001
1.40001
1.40001
1.40001
1.40001
1.40001
1.40001
1.40001
1.40001
1.40001
1.40001
1.40001
1.40001
1.40001
1.40001
1.40001
1.40001
1.40001
1.40001
1.40001
1.40001
1.40001
1.40001
1.40001
1.40001
1.40001
1.40001
1.40001
1.40001
1.40001
1.40001
1.40001
1.40001
1.40001
1.40001
1.39999
2.11236
4.83356
5.29883
5.29535
5.30337
5.31328
5.32313
5.33052
5.33471
5.33634
5.33375
5.32664
5.31969
5.31424
5.31087
5.30896
5.30565
5.29784
5.28562
5.27069
5.25427
5.23798
5.22124
5.2028
5.18225
5.15842
5.13175
5.10108
5.06659
5.0267
4.98122
4.92812
4.86651
4.79429
4.70932
4.60819
4.48743
4.34639
4.1734
3.97276
3.73698
3.4779
3.17702
1.40001
1.40001
1.40001
1.40001
1.40001
1.40001
1.40001
1.40001
1.40001
1.40001
1.40001
1.40001
1.40001
1.40001
1.40001
1.40001
1.40001
1.40001
1.40001
1.40001
1.40001
1.40001
1.40001
1.40001
1.40001
1.40001
1.40001
1.40001
1.40001
1.40001
1.40001
1.40001
1.40001
1.40001
1.40001
1.40001
1.40001
1.40001
1.40001
1.40001
1.40001
1.40001
1.40001
1.40001
1.40001
1.40001
1.40001
1.40001
1.40001
1.40001
1.40001
1.40001
1.4
1.43629
3.62096
5.22578
5.27412
5.28554
5.29307
5.30143
5.30765
5.31062
5.31206
5.31016
5.30338
5.29538
5.28723
5.27996
5.27501
5.27049
5.26225
5.24883
5.23125
5.21043
5.18909
5.16825
5.14638
5.12287
5.09605
5.06599
5.0314
4.99194
4.94646
4.89511
4.83711
4.77159
4.69692
4.61058
4.51031
4.39126
4.25644
4.09334
3.91728
3.71866
3.50549
3.26385
1.40001
1.40001
1.40001
1.40001
1.40001
1.40001
1.40001
1.40001
1.40001
1.40001
1.40001
1.40001
1.40001
1.40001
1.40001
1.40001
1.40001
1.40001
1.40001
1.40001
1.40001
1.40001
1.40001
1.40001
1.40001
1.40001
1.40001
1.40001
1.40001
1.40001
1.40001
1.40001
1.40001
1.40001
1.40001
1.40001
1.40001
1.40001
1.40001
1.40001
1.40001
1.40001
1.40001
1.40001
1.40001
1.40001
1.40001
1.40001
1.40001
1.40001
1.40001
1.40001
1.4
1.40003
2.04212
4.77637
5.269
5.26686
5.27135
5.27566
5.27744
5.27648
5.27681
5.27446
5.26836
5.26192
5.2555
5.24771
5.24105
5.23474
5.22508
5.21037
5.191
5.16747
5.14242
5.11798
5.09276
5.06618
5.03676
5.00401
4.96679
4.92416
4.87484
4.81885
4.75657
4.68822
4.61247
4.52708
4.43076
4.31728
4.19058
4.04462
3.89211
3.71628
3.53347
3.33398
1.40001
1.40001
1.40001
1.40001
1.40001
1.40001
1.40001
1.40001
1.40001
1.40001
1.40001
1.40001
1.40001
1.40001
1.40001
1.40001
1.40001
1.40001
1.40001
1.40001
1.40001
1.40001
1.40001
1.40001
1.40001
1.40001
1.40001
1.40001
1.40001
1.40001
1.40001
1.40001
1.40001
1.40001
1.40001
1.40001
1.40001
1.40001
1.40001
1.40001
1.40001
1.40001
1.40001
1.40001
1.40001
1.40001
1.40001
1.40001
1.40001
1.40001
1.40001
1.40001
1.40001
1.40001
1.42695
3.38398
5.12935
5.2401
5.24369
5.24993
5.25177
5.2509
5.25002
5.24594
5.23963
5.23313
5.22672
5.2183
5.20977
5.20075
5.18885
5.17282
5.15238
5.12793
5.10084
5.0736
5.04518
5.0151
4.98247
4.9467
4.90719
4.86286
4.81169
4.75305
4.68781
4.61724
4.54092
4.45657
4.36466
4.25805
4.14077
4.01473
3.87602
3.72038
3.56697
3.39842
1.40001
1.40001
1.40001
1.40001
1.40001
1.40001
1.40001
1.40001
1.40001
1.40001
1.40001
1.40001
1.40001
1.40001
1.40001
1.40001
1.40001
1.40001
1.40001
1.40001
1.40001
1.40001
1.40001
1.40001
1.40001
1.40001
1.40001
1.40001
1.40001
1.40001
1.40001
1.40001
1.40001
1.40001
1.40001
1.40001
1.40001
1.40001
1.40001
1.40001
1.40001
1.40001
1.40001
1.40001
1.40001
1.40001
1.40001
1.40001
1.40001
1.40001
1.40001
1.40001
1.40001
1.40001
1.40002
1.74169
4.52491
5.26622
5.24882
5.24107
5.23325
5.22715
5.22028
5.212
5.20412
5.19777
5.19155
5.18343
5.17344
5.16216
5.14848
5.13129
5.11036
5.08611
5.05834
5.02994
4.99988
4.96771
4.93248
4.89359
4.85157
4.80609
4.75477
4.6962
4.63096
4.56008
4.4848
4.40104
4.31227
4.21204
4.1052
3.99162
3.86472
3.73243
3.59908
3.45021
1.40001
1.40001
1.40001
1.40001
1.40001
1.40001
1.40001
1.40001
1.40001
1.40001
1.40001
1.40001
1.40001
1.40001
1.40001
1.40001
1.40001
1.40001
1.40001
1.40001
1.40001
1.40001
1.40001
1.40001
1.40001
1.40001
1.40001
1.40001
1.40001
1.40001
1.40001
1.40001
1.40001
1.40001
1.40001
1.40001
1.40001
1.40001
1.40001
1.40001
1.40001
1.40001
1.40001
1.40001
1.40001
1.40001
1.40001
1.40001
1.40001
1.40001
1.40001
1.40001
1.40001
1.40001
1.40001
1.4065
2.94389
5.01219
5.19783
5.20528
5.20772
5.20152
5.19196
5.17905
5.16756
5.15972
5.15341
5.14568
5.13534
5.12269
5.10808
5.0902
5.06863
5.04472
5.01756
4.98905
4.95836
4.92537
4.88851
4.84704
4.80224
4.7549
4.70306
4.64565
4.58283
4.51327
4.44057
4.35795
4.27238
4.17906
4.07866
3.97244
3.85991
3.74551
3.62297
3.49089
1.40001
1.40001
1.40001
1.40001
1.40001
1.40001
1.40001
1.40001
1.40001
1.40001
1.40001
1.40001
1.40001
1.40001
1.40001
1.40001
1.40001
1.40001
1.40001
1.40001
1.40001
1.40001
1.40001
1.40001
1.40001
1.40001
1.40001
1.40001
1.40001
1.40001
1.40001
1.40001
1.40001
1.40001
1.40001
1.40001
1.40001
1.40001
1.40001
1.40001
1.40001
1.40001
1.40001
1.40001
1.40001
1.40001
1.40001
1.40001
1.40001
1.40001
1.40001
1.40001
1.40001
1.40001
1.40001
1.40001
1.55608
3.97533
5.17739
5.18686
5.18968
5.18116
5.1715
5.15658
5.14207
5.13138
5.12277
5.11385
5.10285
5.08854
5.07247
5.05327
5.03029
5.00532
4.97852
4.94999
4.91858
4.88519
4.84774
4.80542
4.75939
4.70997
4.65751
4.60099
4.54128
4.47414
4.40477
4.32524
4.24436
4.15616
4.05994
3.96243
3.86207
3.75456
3.64082
3.52788
1.40001
1.40001
1.40001
1.40001
1.40001
1.40001
1.40001
1.40001
1.40001
1.40001
1.40001
1.40001
1.40001
1.40001
1.40001
1.40001
1.40001
1.40001
1.40001
1.40001
1.40001
1.40001
1.40001
1.40001
1.40001
1.40001
1.40001
1.40001
1.40001
1.40001
1.40001
1.40001
1.40001
1.40001
1.40001
1.40001
1.40001
1.40001
1.40001
1.40001
1.40001
1.40001
1.40001
1.40001
1.40001
1.40001
1.40001
1.40001
1.40001
1.40001
1.40001
1.40001
1.40001
1.40001
1.40001
1.40001
1.40121
2.10676
4.75013
5.19174
5.15715
5.15613
5.14738
5.13441
5.11985
5.10715
5.09604
5.08462
5.07186
5.05595
5.03792
5.01768
4.99294
4.96613
4.93842
4.90998
4.87823
4.84506
4.8079
4.76658
4.72086
4.67042
4.61861
4.56167
4.50317
4.43901
4.37283
4.29839
4.22262
4.13921
4.04967
3.9606
3.86533
3.76298
3.66363
3.5634
1.40001
1.40001
1.40001
1.40001
1.40001
1.40001
1.40001
1.40001
1.40001
1.40001
1.40001
1.40001
1.40001
1.40001
1.40001
1.40001
1.40001
1.40001
1.40001
1.40001
1.40001
1.40001
1.40001
1.40001
1.40001
1.40001
1.40001
1.40001
1.40001
1.40001
1.40001
1.40001
1.40001
1.40001
1.40001
1.40001
1.40001
1.40001
1.40001
1.40001
1.40001
1.40001
1.40001
1.40001
1.40001
1.40001
1.40001
1.40001
1.40001
1.40001
1.40001
1.40001
1.40001
1.40001
1.40001
1.40001
1.40001
1.42967
3.08801
5.04428
5.13218
5.12798
5.1261
5.11659
5.1043
5.09063
5.07739
5.06298
5.04755
5.02943
5.00852
4.98709
4.96065
4.93166
4.90224
4.87295
4.84076
4.80756
4.77103
4.73172
4.6872
4.6374
4.58466
4.52849
4.47084
4.40949
4.34579
4.27608
4.2045
4.12637
4.04456
3.96134
3.86981
3.77779
3.68898
3.59553
1.40001
1.40001
1.40001
1.40001
1.40001
1.40001
1.40001
1.40001
1.40001
1.40001
1.40001
1.40001
1.40001
1.40001
1.40001
1.40001
1.40001
1.40001
1.40001
1.40001
1.40001
1.40001
1.40001
1.40001
1.40001
1.40001
1.40001
1.40001
1.40001
1.40001
1.40001
1.40001
1.40001
1.40001
1.40001
1.40001
1.40001
1.40001
1.40001
1.40001
1.40001
1.40001
1.40001
1.40001
1.40001
1.40001
1.40001
1.40001
1.40001
1.40001
1.40001
1.40001
1.40001
1.40001
1.40001
1.40001
1.40001
1.40007
1.57569
3.78079
5.09447
5.13155
5.11777
5.10959
5.09742
5.08193
5.06508
5.04758
5.02884
5.00824
4.98464
4.96064
4.93336
4.90273
4.87157
4.84061
4.80775
4.77357
4.73708
4.69906
4.655
4.6073
4.55539
4.49994
4.44303
4.38369
4.3226
4.25695
4.1885
4.11578
4.04027
3.9612
3.87709
3.79534
3.71202
3.62356
1.40001
1.40001
1.40001
1.40001
1.40001
1.40001
1.40001
1.40001
1.40001
1.40001
1.40001
1.40001
1.40001
1.40001
1.40001
1.40001
1.40001
1.40001
1.40001
1.40001
1.40001
1.40001
1.40001
1.40001
1.40001
1.40001
1.40001
1.40001
1.40001
1.40001
1.40001
1.40001
1.40001
1.40001
1.40001
1.40001
1.40001
1.40001
1.40001
1.40001
1.40001
1.40001
1.40001
1.40001
1.40001
1.40001
1.40001
1.40001
1.40001
1.40001
1.40001
1.40001
1.40001
1.40001
1.40001
1.40001
1.40001
1.40001
1.40162
1.79538
4.49079
5.16931
5.13355
5.1123
5.0892
5.06819
5.04788
5.02788
5.0082
4.98597
4.96075
4.93493
4.90682
4.8756
4.84356
4.81155
4.77925
4.74432
4.70807
4.6696
4.62613
4.57963
4.52952
4.47634
4.42078
4.36335
4.30463
4.24213
4.17622
4.10795
4.03718
3.96206
3.88596
3.81123
3.73194
3.64825
1.40001
1.40001
1.40001
1.40001
1.40001
1.40001
1.40001
1.40001
1.40001
1.40001
1.40001
1.40001
1.40001
1.40001
1.40001
1.40001
1.40001
1.40001
1.40001
1.40001
1.40001
1.40001
1.40001
1.40001
1.40001
1.40001
1.40001
1.40001
1.40001
1.40001
1.40001
1.40001
1.40001
1.40001
1.40001
1.40001
1.40001
1.40001
1.40001
1.40001
1.40001
1.40001
1.40001
1.40001
1.40001
1.40001
1.40001
1.40001
1.40001
1.40001
1.40001
1.40001
1.40001
1.40001
1.40001
1.40001
1.40001
1.40001
1.40001
1.40849
2.58091
4.89717
5.10115
5.07215
5.05476
5.03832
5.02218
5.00383
4.9843
4.96245
4.93739
4.91194
4.88353
4.85268
4.82078
4.78767
4.75461
4.71962
4.68316
4.64405
4.6014
4.5553
4.50667
4.45559
4.40183
4.34644
4.28966
4.22964
4.16649
4.10201
4.0352
3.96435
3.8944
3.82423
3.74843
3.67023
1.40001
1.40001
1.40001
1.40001
1.40001
1.40001
1.40001
1.40001
1.40001
1.40001
1.40001
1.40001
1.40001
1.40001
1.40001
1.40001
1.40001
1.40001
1.40001
1.40001
1.40001
1.40001
1.40001
1.40001
1.40001
1.40001
1.40001
1.40001
1.40001
1.40001
1.40001
1.40001
1.40001
1.40001
1.40001
1.40001
1.40001
1.40001
1.40001
1.40001
1.40001
1.40001
1.40001
1.40001
1.40001
1.40001
1.40001
1.40001
1.40001
1.40001
1.40001
1.40001
1.40001
1.40001
1.40001
1.40001
1.40001
1.40001
1.40001
1.40002
1.48117
3.20961
4.9813
5.03744
5.02583
5.02327
5.01383
4.99863
4.97955
4.95702
4.93081
4.9034
4.87289
4.8403
4.80704
4.77279
4.73716
4.70157
4.6655
4.62545
4.58195
4.53614
4.4882
4.43829
4.38625
4.33302
4.2781
4.22026
4.16035
4.09916
4.03554
3.9692
3.90352
3.83659
3.76464
3.69223
1.40001
1.40001
1.40001
1.40001
1.40001
1.40001
1.40001
1.40001
1.40001
1.40001
1.40001
1.40001
1.40001
1.40001
1.40001
1.40001
1.40001
1.40001
1.40001
1.40001
1.40001
1.40001
1.40001
1.40001
1.40001
1.40001
1.40001
1.40001
1.40001
1.40001
1.40001
1.40001
1.40001
1.40001
1.40001
1.40001
1.40001
1.40001
1.40001
1.40001
1.40001
1.40001
1.40001
1.40001
1.40001
1.40001
1.40001
1.40001
1.40001
1.40001
1.40001
1.40001
1.40001
1.40001
1.40001
1.40001
1.40001
1.40001
1.40001
1.40001
1.40044
1.60233
3.59863
4.98447
5.01325
5.0091
5.00167
4.98787
4.97052
4.94884
4.92343
4.89495
4.86392
4.83111
4.79707
4.76222
4.72561
4.68748
4.65047
4.6111
4.56761
4.52155
4.47395
4.42466
4.37378
4.32199
4.26818
4.21202
4.15538
4.09709
4.03628
3.97471
3.91331
3.85028
3.78399
3.71915
1.40001
1.40001
1.40001
1.40001
1.40001
1.40001
1.40001
1.40001
1.40001
1.40001
1.40001
1.40001
1.40001
1.40001
1.40001
1.40001
1.40001
1.40001
1.40001
1.40001
1.40001
1.40001
1.40001
1.40001
1.40001
1.40001
1.40001
1.40001
1.40001
1.40001
1.40001
1.40001
1.40001
1.40001
1.40001
1.40001
1.40001
1.40001
1.40001
1.40001
1.40001
1.40001
1.40001
1.40001
1.40001
1.40001
1.40001
1.40001
1.40001
1.40001
1.40001
1.40001
1.40001
1.40001
1.40001
1.40001
1.40001
1.40001
1.40001
1.40001
1.40001
1.40228
1.72616
3.91653
5.01199
5.01073
4.99454
4.97737
4.95848
4.93648
4.91233
4.8856
4.85613
4.82423
4.79038
4.75504
4.71821
4.67964
4.64109
4.60177
4.559
4.51326
4.46567
4.4166
4.36641
4.31533
4.26227
4.20735
4.15289
4.09632
4.039
3.98416
3.92887
3.87308
3.81658
3.76487
1.40001
1.40001
1.40001
1.40001
1.40001
1.40001
1.40001
1.40001
1.40001
1.40001
1.40001
1.40001
1.40001
1.40001
1.40001
1.40001
1.40001
1.40001
1.40001
1.40001
1.40001
1.40001
1.40001
1.40001
1.40001
1.40001
1.40001
1.40001
1.40001
1.40001
1.40001
1.40001
1.40001
1.40001
1.40001
1.40001
1.40001
1.40001
1.40001
1.40001
1.40001
1.40001
1.40001
1.40001
1.40001
1.40001
1.40001
1.40001
1.40001
1.40001
1.40001
1.40001
1.40001
1.40001
1.40001
1.40001
1.40001
1.40001
1.40001
1.40001
1.40001
1.40001
1.4058
1.86365
4.19582
5.01862
5.00256
4.97867
4.95287
4.92813
4.90166
4.8742
4.84515
4.81442
4.78166
4.74678
4.71025
4.67235
4.63381
4.59397
4.55151
4.50658
4.45968
4.41113
4.3617
4.31131
4.25886
4.20565
4.15396
4.10177
4.05206
4.00853
3.96383
3.92249
3.88512
3.85366
1.40001
1.40001
1.40001
1.40001
1.40001
1.40001
1.40001
1.40001
1.40001
1.40001
1.40001
1.40001
1.40001
1.40001
1.40001
1.40001
1.40001
1.40001
1.40001
1.40001
1.40001
1.40001
1.40001
1.40001
1.40001
1.40001
1.40001
1.40001
1.40001
1.40001
1.40001
1.40001
1.40001
1.40001
1.40001
1.40001
1.40001
1.40001
1.40001
1.40001
1.40001
1.40001
1.40001
1.40001
1.40001
1.40001
1.40001
1.40001
1.40001
1.40001
1.40001
1.40001
1.40001
1.40001
1.40001
1.40001
1.40001
1.40001
1.40001
1.40001
1.40001
1.40001
1.40002
1.41163
2.01723
4.39968
5.02981
5.00314
4.97089
4.93701
4.90547
4.87336
4.84026
4.80751
4.77386
4.73894
4.70296
4.66614
4.62853
4.58907
4.54686
4.50248
4.45641
4.40861
4.36005
4.31074
4.26148
4.21328
4.16854
4.12905
4.09469
4.06907
4.04425
4.02467
4.00457
3.98656
1.40001
1.40001
1.40001
1.40001
1.40001
1.40001
1.40001
1.40001
1.40001
1.40001
1.40001
1.40001
1.40001
1.40001
1.40001
1.40001
1.40001
1.40001
1.40001
1.40001
1.40001
1.40001
1.40001
1.40001
1.40001
1.40001
1.40001
1.40001
1.40001
1.40001
1.40001
1.40001
1.40001
1.40001
1.40001
1.40001
1.40001
1.40001
1.40001
1.40001
1.40001
1.40001
1.40001
1.40001
1.40001
1.40001
1.40001
1.40001
1.40001
1.40001
1.40001
1.40001
1.40001
1.40001
1.40001
1.40001
1.40001
1.40001
1.40001
1.40001
1.40001
1.40001
1.40001
1.40004
1.42063
2.16533
4.58615
5.02726
4.99438
4.95871
4.91771
4.87948
4.84278
4.80659
4.77021
4.73407
4.69782
4.66104
4.62345
4.58373
4.54164
4.49768
4.45236
4.40631
4.36118
4.31711
4.27767
4.24536
4.21947
4.20052
4.1913
4.18868
4.17633
4.16506
4.14346
4.12035
1.40001
1.40001
1.40001
1.40001
1.40001
1.40001
1.40001
1.40001
1.40001
1.40001
1.40001
1.40001
1.40001
1.40001
1.40001
1.40001
1.40001
1.40001
1.40001
1.40001
1.40001
1.40001
1.40001
1.40001
1.40001
1.40001
1.40001
1.40001
1.40001
1.40001
1.40001
1.40001
1.40001
1.40001
1.40001
1.40001
1.40001
1.40001
1.40001
1.40001