/*--------------------------------*- C++ -*----------------------------------*\
  =========                 |
  \\      /  F ield         | OpenFOAM: The Open Source CFD Toolbox
   \\    /   O peration     | Website:  https://openfoam.org
    \\  /    A nd           | Version:  7
     \\/     M anipulation  |
\*---------------------------------------------------------------------------*/
FoamFile
{
    version     2.0;
    format      ascii;
    class       volVectorField;
    location    "8.7";
    object      U;
}
// * * * * * * * * * * * * * * * * * * * * * * * * * * * * * * * * * * * * * //

dimensions      [0 1 -1 0 0 0 0];

internalField   nonuniform List<vector> 
19968
(
(3 -1.00661e-18 0)
(3 -2.02428e-16 0)
(3 1.11642e-16 0)
(3 6.70988e-17 0)
(3 2.97852e-16 0)
(3 1.36102e-16 0)
(3 3.17629e-16 0)
(3 6.04276e-16 0)
(3 1.13223e-15 0)
(3 1.50372e-15 0)
(3 1.4783e-15 0)
(3 1.57691e-15 0)
(3 1.61469e-15 0)
(3 1.73183e-15 0)
(3 2.48894e-15 0)
(3 1.45003e-15 0)
(3 -2.99232e-16 0)
(3 -1.40074e-15 0)
(3 -1.39352e-15 0)
(3 -1.16158e-15 0)
(3 -5.75675e-16 0)
(3 1.47337e-16 0)
(3 1.02793e-15 0)
(3 1.10119e-15 0)
(3 9.58284e-16 0)
(3 7.83848e-16 0)
(3 7.75992e-16 0)
(3 7.66146e-16 0)
(3 5.20353e-16 0)
(3 7.26488e-16 0)
(3 1.09731e-15 0)
(3 1.78233e-15 0)
(3 1.82276e-15 0)
(3 2.13995e-15 0)
(3 9.4068e-16 0)
(3 -1.18424e-15 0)
(3 -1.23722e-15 0)
(3 -9.51069e-16 0)
(3 -6.20273e-16 0)
(3 -2.35327e-16 0)
(3 -3.71478e-16 0)
(3 -6.22444e-16 0)
(3 -3.31048e-16 0)
(3 3.93482e-16 0)
(3 7.06832e-16 0)
(3 8.72617e-16 0)
(3 9.36885e-16 0)
(3 2.28661e-17 0)
(2.80485 0.00173172 0)
(0.969612 0.0041279 0)
(0.760834 0.00619027 0)
(0.745085 0.00969896 0)
(0.726615 0.00933138 0)
(0.711341 0.00839465 0)
(0.697375 0.00799129 0)
(0.68358 0.00825167 0)
(0.668832 0.00896409 0)
(0.652819 0.00973579 0)
(0.63621 0.00988083 0)
(0.620367 0.00910135 0)
(0.605871 0.00833991 0)
(0.591765 0.00856808 0)
(0.576714 0.00950466 0)
(0.560554 0.0100863 0)
(0.544444 0.00987383 0)
(0.529076 0.00956617 0)
(0.514133 0.00957691 0)
(0.499195 0.00971713 0)
(0.484097 0.00987146 0)
(0.468741 0.0100396 0)
(0.453086 0.0101681 0)
(0.437194 0.0102264 0)
(0.421117 0.0102848 0)
(0.404828 0.0104057 0)
(0.388314 0.0105592 0)
(0.371676 0.0106903 0)
(0.355074 0.0107971 0)
(0.338613 0.01091 0)
(0.322278 0.0110347 0)
(0.305958 0.0111554 0)
(0.289511 0.0112697 0)
(0.272806 0.0113862 0)
(0.255789 0.0115085 0)
(0.238527 0.0116384 0)
(0.221151 0.0117788 0)
(0.203737 0.0119348 0)
(0.186228 0.0121126 0)
(0.168474 0.0123119 0)
(0.150322 0.0125318 0)
(0.131673 0.0127787 0)
(0.112513 0.0130641 0)
(0.0929008 0.0133841 0)
(0.072913 0.0137507 0)
(0.0525419 0.0141739 0)
(0.0317756 0.0144681 0)
(0.0108959 0.0149195 0)
(3 8.87942e-17 0)
(3 4.78276e-16 0)
(3 1.26312e-15 0)
(3 1.38908e-15 0)
(3 8.50469e-16 0)
(3 4.15242e-16 0)
(3 6.53421e-16 0)
(3 6.27442e-16 0)
(3 1.10814e-15 0)
(3 1.81341e-15 0)
(3 2.65526e-15 0)
(3 2.38745e-15 0)
(3 1.92804e-15 0)
(3 1.88931e-15 0)
(3 2.79078e-15 0)
(3 2.39692e-15 0)
(3 -1.21217e-15 0)
(3 -2.73369e-15 0)
(3 -2.24834e-15 0)
(3 -1.07402e-15 0)
(3 -6.5305e-16 0)
(3 4.59878e-16 0)
(3 7.67873e-16 0)
(3 6.71208e-16 0)
(3 6.1967e-16 0)
(3 1.14931e-15 0)
(3 1.15374e-15 0)
(3 6.29215e-16 0)
(3 -1.86678e-16 0)
(3 -7.44787e-18 0)
(3 4.67742e-16 0)
(3 8.46792e-16 0)
(3 5.69985e-16 0)
(3 4.66056e-16 0)
(3 -1.0532e-15 0)
(3 -2.85376e-15 0)
(3 -2.5258e-15 0)
(3 -1.29117e-15 0)
(3 -4.31641e-16 0)
(3 -7.47994e-16 0)
(3 -9.89013e-17 0)
(3 -4.03553e-16 0)
(3 -3.37109e-16 0)
(3 4.57195e-17 0)
(3 7.53112e-17 0)
(3 -1.82902e-17 0)
(3 -1.94895e-16 0)
(3 1.28474e-16 0)
(2.81867 0.0107848 0)
(0.973742 0.023279 0)
(0.756701 0.0239482 0)
(0.740058 0.0284703 0)
(0.722711 0.0276848 0)
(0.707695 0.0254289 0)
(0.693516 0.0241606 0)
(0.679478 0.0246776 0)
(0.664752 0.0265727 0)
(0.64907 0.0287108 0)
(0.632897 0.0292949 0)
(0.617383 0.0275383 0)
(0.602747 0.0256329 0)
(0.58825 0.026145 0)
(0.573144 0.0286446 0)
(0.557098 0.0302235 0)
(0.541198 0.0297682 0)
(0.525892 0.02913 0)
(0.510846 0.0293175 0)
(0.495738 0.029751 0)
(0.480487 0.0301362 0)
(0.465052 0.0305587 0)
(0.449385 0.0309257 0)
(0.433493 0.0311451 0)
(0.417384 0.0313668 0)
(0.401032 0.0317345 0)
(0.384448 0.0321716 0)
(0.36774 0.0325408 0)
(0.351079 0.0328447 0)
(0.334576 0.0331706 0)
(0.318219 0.0335351 0)
(0.301896 0.0338928 0)
(0.285457 0.0342376 0)
(0.268764 0.0345976 0)
(0.251755 0.0349855 0)
(0.234497 0.0354032 0)
(0.217125 0.0358513 0)
(0.199722 0.0363357 0)
(0.182251 0.0368719 0)
(0.164578 0.0374657 0)
(0.146565 0.0381255 0)
(0.128128 0.038875 0)
(0.10926 0.0397456 0)
(0.0900258 0.0407208 0)
(0.0705035 0.0418176 0)
(0.0507019 0.0430689 0)
(0.0305848 0.0439132 0)
(0.0104737 0.045172 0)
(3 -1.64651e-17 0)
(3 -3.67531e-17 0)
(3 -4.24646e-17 0)
(3 -3.7857e-16 0)
(3 -5.12275e-16 0)
(3 -6.11169e-16 0)
(3 -9.85702e-16 0)
(3 -1.06979e-15 0)
(3 -1.52048e-15 0)
(3 -1.0395e-15 0)
(3 -7.5793e-17 0)
(3 1.53331e-16 0)
(3 2.82798e-16 0)
(3 7.48153e-16 0)
(3 1.17386e-15 0)
(3 1.34035e-15 0)
(3 1.14219e-15 0)
(3 7.45318e-16 0)
(3 -3.01783e-16 0)
(3 -1.4041e-15 0)
(3 -3.86231e-16 0)
(3 -1.34578e-16 0)
(3 -6.10149e-16 0)
(3 -5.81188e-16 0)
(3 -5.13225e-16 0)
(3 1.33167e-16 0)
(3 1.06919e-15 0)
(3 1.76935e-15 0)
(3 1.92791e-15 0)
(3 2.00571e-15 0)
(3 1.67379e-15 0)
(3 7.40722e-16 0)
(3 7.77146e-16 0)
(3 8.78557e-16 0)
(3 6.44279e-16 0)
(3 -2.05943e-16 0)
(3 -4.24325e-16 0)
(3 -1.28797e-15 0)
(3 -1.5584e-15 0)
(3 -1.6547e-15 0)
(3 -1.3666e-15 0)
(3 -7.41798e-16 0)
(3 -9.90308e-16 0)
(3 -1.02306e-15 0)
(3 -1.09147e-15 0)
(3 -1.07886e-15 0)
(3 -5.42141e-16 0)
(3 6.24139e-16 0)
(2.85176 0.0176978 0)
(0.989489 0.0432936 0)
(0.759836 0.0425686 0)
(0.743267 0.0475644 0)
(0.726498 0.0465075 0)
(0.711366 0.0438571 0)
(0.696479 0.0423164 0)
(0.681584 0.0430915 0)
(0.666314 0.0457651 0)
(0.650516 0.0487129 0)
(0.634428 0.0494696 0)
(0.618989 0.047086 0)
(0.604013 0.044502 0)
(0.588951 0.0453608 0)
(0.573665 0.0490824 0)
(0.557574 0.0513275 0)
(0.541761 0.0505754 0)
(0.526417 0.0497648 0)
(0.511204 0.0502926 0)
(0.495837 0.0511182 0)
(0.480295 0.0517506 0)
(0.46462 0.0523992 0)
(0.448789 0.0530038 0)
(0.432767 0.0534358 0)
(0.416512 0.053879 0)
(0.399986 0.054512 0)
(0.383214 0.0552178 0)
(0.366316 0.0558055 0)
(0.349468 0.0562896 0)
(0.332793 0.056808 0)
(0.316293 0.0573876 0)
(0.299862 0.0579567 0)
(0.283349 0.0585075 0)
(0.266613 0.0590883 0)
(0.249584 0.0597217 0)
(0.232315 0.0604101 0)
(0.214932 0.0611504 0)
(0.197522 0.061945 0)
(0.180055 0.0628143 0)
(0.162415 0.0637667 0)
(0.144472 0.0648171 0)
(0.126148 0.0660006 0)
(0.107441 0.0673621 0)
(0.0884118 0.0688737 0)
(0.0691416 0.0705515 0)
(0.0496629 0.0724784 0)
(0.0299005 0.0737253 0)
(0.0102439 0.0756368 0)
(3 -1.31703e-16 0)
(3 -5.78438e-16 0)
(3 -9.94107e-16 0)
(3 -9.98818e-16 0)
(3 -6.81667e-16 0)
(3 -7.94204e-16 0)
(3 -1.40212e-15 0)
(3 -1.65442e-15 0)
(3 -1.19434e-15 0)
(3 -1.20103e-15 0)
(3 -1.33278e-15 0)
(3 -8.87858e-16 0)
(3 -3.47662e-16 0)
(3 -1.95751e-16 0)
(3 -1.868e-16 0)
(3 -7.39965e-16 0)
(3 -2.77257e-16 0)
(3 1.04076e-16 0)
(3 3.81197e-17 0)
(3 -6.02507e-16 0)
(3 -7.67204e-16 0)
(3 -7.74244e-16 0)
(3 -8.83423e-16 0)
(3 -9.95e-16 0)
(3 -1.03713e-15 0)
(3 -1.26e-15 0)
(3 -9.9371e-16 0)
(3 5.15928e-16 0)
(3 1.22707e-15 0)
(3 1.65111e-15 0)
(3 1.5042e-15 0)
(3 6.42713e-16 0)
(3 1.14237e-15 0)
(3 1.40807e-15 0)
(3 1.63681e-15 0)
(3 1.06966e-15 0)
(3 7.26117e-16 0)
(3 -5.52196e-16 0)
(3 -1.96877e-15 0)
(3 -1.68945e-15 0)
(3 -1.82616e-15 0)
(3 -1.44721e-15 0)
(3 -1.70137e-15 0)
(3 -1.87092e-15 0)
(3 -1.65219e-15 0)
(3 -7.91415e-16 0)
(3 -1.11061e-16 0)
(3 1.06482e-16 0)
(2.89403 0.0216123 0)
(1.01195 0.0641991 0)
(0.760847 0.0615502 0)
(0.744432 0.0658293 0)
(0.728846 0.0650848 0)
(0.714079 0.0630051 0)
(0.699126 0.061799 0)
(0.683995 0.0628169 0)
(0.668706 0.0658024 0)
(0.653264 0.0690144 0)
(0.637652 0.0698911 0)
(0.622449 0.0674759 0)
(0.607246 0.0647774 0)
(0.591718 0.0659946 0)
(0.57626 0.0705347 0)
(0.560116 0.0731439 0)
(0.544348 0.0721349 0)
(0.528923 0.0713388 0)
(0.513572 0.0723776 0)
(0.497988 0.0737401 0)
(0.482167 0.0746886 0)
(0.466236 0.0755595 0)
(0.450222 0.0764065 0)
(0.43406 0.0771123 0)
(0.417655 0.0778538 0)
(0.400944 0.0787955 0)
(0.383949 0.0797884 0)
(0.366785 0.0806132 0)
(0.349626 0.0812915 0)
(0.332604 0.0819964 0)
(0.315739 0.0827668 0)
(0.298938 0.0835115 0)
(0.282064 0.0842196 0)
(0.264985 0.0849584 0)
(0.24764 0.0857647 0)
(0.230088 0.0866488 0)
(0.212466 0.0876116 0)
(0.194883 0.0886575 0)
(0.177345 0.0898149 0)
(0.159762 0.0910991 0)
(0.142015 0.0925327 0)
(0.124006 0.0941594 0)
(0.105696 0.0960277 0)
(0.0870864 0.0980997 0)
(0.068203 0.100363 0)
(0.0490755 0.102965 0)
(0.0295575 0.104593 0)
(0.0101732 0.107109 0)
(3 1.66385e-16 0)
(3 5.33403e-16 0)
(3 3.95551e-16 0)
(3 6.99809e-16 0)
(3 6.42022e-16 0)
(3 1.78624e-16 0)
(3 3.40569e-16 0)
(3 7.06012e-16 0)
(3 1.23499e-15 0)
(3 1.10244e-15 0)
(3 4.48925e-16 0)
(3 5.6375e-17 0)
(3 -6.64333e-17 0)
(3 -3.57033e-16 0)
(3 -5.57917e-16 0)
(3 -5.21756e-16 0)
(3 -2.31278e-16 0)
(3 -2.48511e-17 0)
(3 1.2668e-16 0)
(3 -6.25998e-17 0)
(3 -5.80177e-16 0)
(3 -7.97006e-16 0)
(3 -9.50637e-16 0)
(3 -7.34742e-16 0)
(3 -5.45725e-16 0)
(3 -6.56276e-16 0)
(3 -6.72745e-16 0)
(3 -2.74433e-16 0)
(3 5.43368e-17 0)
(3 3.6308e-16 0)
(3 1.1146e-15 0)
(3 1.52231e-15 0)
(3 1.29528e-15 0)
(3 1.20883e-15 0)
(3 1.01553e-15 0)
(3 1.3637e-15 0)
(3 1.88401e-15 0)
(3 1.22244e-15 0)
(3 2.66757e-16 0)
(3 -7.21192e-16 0)
(3 -9.82344e-16 0)
(3 -1.62754e-15 0)
(3 -1.53285e-15 0)
(3 -1.5832e-15 0)
(3 -1.64352e-15 0)
(3 -1.18967e-15 0)
(3 -7.31133e-16 0)
(3 -3.72921e-17 0)
(2.9417 0.0295328 0)
(1.04019 0.0926476 0)
(0.763381 0.0820516 0)
(0.74812 0.083437 0)
(0.733618 0.083662 0)
(0.719028 0.082836 0)
(0.70387 0.0825924 0)
(0.68836 0.0838993 0)
(0.672892 0.0866351 0)
(0.657793 0.0894926 0)
(0.642881 0.0904527 0)
(0.62821 0.0885876 0)
(0.613193 0.0864056 0)
(0.597645 0.0881262 0)
(0.582234 0.0931414 0)
(0.566195 0.0958804 0)
(0.550589 0.0946513 0)
(0.535227 0.093963 0)
(0.519959 0.0956018 0)
(0.504398 0.0976538 0)
(0.488484 0.0990524 0)
(0.472428 0.100189 0)
(0.456343 0.101295 0)
(0.440166 0.102349 0)
(0.423741 0.103506 0)
(0.40696 0.104862 0)
(0.389822 0.106243 0)
(0.372421 0.10743 0)
(0.354913 0.108446 0)
(0.337433 0.10947 0)
(0.320015 0.110546 0)
(0.302584 0.111566 0)
(0.285016 0.112505 0)
(0.267192 0.113435 0)
(0.24906 0.114397 0)
(0.230689 0.115401 0)
(0.212231 0.116447 0)
(0.193839 0.117538 0)
(0.17558 0.118722 0)
(0.157431 0.120048 0)
(0.139327 0.121582 0)
(0.121194 0.123411 0)
(0.10299 0.125605 0)
(0.0846801 0.128142 0)
(0.0662267 0.130941 0)
(0.0476491 0.134233 0)
(0.0286642 0.136266 0)
(0.00989649 0.139381 0)
(3 2.08249e-16 0)
(3 4.83576e-16 0)
(3 9.89253e-16 0)
(3 1.05463e-15 0)
(3 6.53655e-16 0)
(3 5.14007e-16 0)
(3 2.58903e-16 0)
(3 1.00901e-15 0)
(3 1.22353e-15 0)
(3 1.22187e-15 0)
(3 1.22026e-15 0)
(3 1.1064e-15 0)
(3 6.00236e-16 0)
(3 3.68788e-16 0)
(3 9.24024e-17 0)
(3 4.87386e-16 0)
(3 7.8059e-16 0)
(3 1.00078e-15 0)
(3 7.9903e-16 0)
(3 2.39686e-16 0)
(3 -7.32937e-16 0)
(3 -1.67459e-15 0)
(3 -1.97889e-15 0)
(3 -7.53997e-16 0)
(3 -1.11151e-16 0)
(3 1.39113e-16 0)
(3 3.26376e-16 0)
(3 5.43736e-16 0)
(3 1.39846e-15 0)
(3 1.55599e-15 0)
(3 1.35526e-15 0)
(3 1.46986e-15 0)
(3 1.36753e-15 0)
(3 7.49876e-16 0)
(3 6.15229e-16 0)
(3 6.6303e-16 0)
(3 7.50873e-16 0)
(3 3.36583e-16 0)
(3 -1.26142e-16 0)
(3 -3.51661e-16 0)
(3 -5.85963e-16 0)
(3 -9.05683e-16 0)
(3 -9.49482e-16 0)
(3 8.325e-17 0)
(3 2.45178e-16 0)
(3 -7.04699e-16 0)
(3 -6.66546e-16 0)
(3 -3.18921e-16 0)
(2.99487 0.00127188 0)
(1.10165 0.115855 0)
(0.775869 0.0968823 0)
(0.759676 0.0990302 0)
(0.745446 0.101569 0)
(0.730143 0.102973 0)
(0.714344 0.10449 0)
(0.698157 0.106221 0)
(0.682262 0.107995 0)
(0.667247 0.109561 0)
(0.652939 0.110152 0)
(0.638875 0.109014 0)
(0.624241 0.107845 0)
(0.608944 0.110333 0)
(0.593642 0.115729 0)
(0.577684 0.118444 0)
(0.562239 0.116949 0)
(0.547031 0.116259 0)
(0.532032 0.118384 0)
(0.516745 0.121191 0)
(0.500953 0.123206 0)
(0.484919 0.124691 0)
(0.46887 0.126055 0)
(0.4528 0.127493 0)
(0.436521 0.129168 0)
(0.419863 0.131056 0)
(0.402783 0.132949 0)
(0.38535 0.134667 0)
(0.367693 0.136233 0)
(0.349944 0.137804 0)
(0.33215 0.139425 0)
(0.314248 0.140973 0)
(0.296123 0.142402 0)
(0.277659 0.143777 0)
(0.258796 0.145133 0)
(0.239585 0.146474 0)
(0.22017 0.147785 0)
(0.200718 0.149055 0)
(0.18135 0.150327 0)
(0.16211 0.151673 0)
(0.142995 0.153193 0)
(0.123981 0.155027 0)
(0.10505 0.15728 0)
(0.0861749 0.160008 0)
(0.0672744 0.163066 0)
(0.0483792 0.166842 0)
(0.0290682 0.169152 0)
(0.0100498 0.172746 0)
(3 -1.60445e-16 0)
(3 -2.18383e-16 0)
(3 -1.63005e-16 0)
(3 -3.53002e-16 0)
(3 -2.69898e-16 0)
(3 -1.96308e-16 0)
(3 -2.52384e-16 0)
(3 -3.87645e-17 0)
(3 -1.20833e-16 0)
(3 -1.72761e-16 0)
(3 1.49416e-16 0)
(3 6.53558e-16 0)
(3 1.07496e-15 0)
(3 1.19214e-15 0)
(3 2.45141e-16 0)
(3 -7.66696e-16 0)
(3 -5.43161e-16 0)
(3 7.32555e-17 0)
(3 3.55113e-16 0)
(3 3.93947e-16 0)
(3 -4.23032e-16 0)
(3 -2.3224e-16 0)
(3 -1.14376e-15 0)
(3 -1.2058e-15 0)
(3 -9.21986e-16 0)
(3 -8.62717e-16 0)
(3 -7.29268e-16 0)
(3 4.37343e-17 0)
(3 2.11842e-15 0)
(3 2.88648e-15 0)
(3 2.61224e-15 0)
(3 1.9781e-15 0)
(3 1.28087e-15 0)
(3 7.93583e-16 0)
(3 4.88903e-16 0)
(3 2.80793e-17 0)
(3 -4.00895e-16 0)
(3 -3.39563e-16 0)
(3 -8.04818e-16 0)
(3 -1.21357e-15 0)
(3 -1.2629e-15 0)
(3 -1.02932e-15 0)
(3 -5.86469e-16 0)
(3 -3.51924e-16 0)
(3 1.5506e-16 0)
(3 8.97543e-17 0)
(3 -7.9188e-17 0)
(3 -5.75496e-16 0)
(3.00004 0.000101285 0)
(1.21369 0.13682 0)
(0.777941 0.116036 0)
(0.756646 0.118765 0)
(0.742573 0.124109 0)
(0.726064 0.127328 0)
(0.709642 0.130271 0)
(0.693104 0.131862 0)
(0.677327 0.131842 0)
(0.662742 0.131496 0)
(0.649027 0.131583 0)
(0.635466 0.131369 0)
(0.621189 0.13163 0)
(0.606306 0.135254 0)
(0.591348 0.141122 0)
(0.57575 0.143763 0)
(0.560775 0.141967 0)
(0.546026 0.141136 0)
(0.531596 0.143603 0)
(0.51696 0.147191 0)
(0.50169 0.150003 0)
(0.486024 0.151977 0)
(0.470294 0.153609 0)
(0.454615 0.155424 0)
(0.438813 0.157691 0)
(0.422657 0.16023 0)
(0.406051 0.162744 0)
(0.389043 0.165098 0)
(0.371738 0.167312 0)
(0.354257 0.169498 0)
(0.336653 0.171693 0)
(0.31888 0.173782 0)
(0.300833 0.175708 0)
(0.2824 0.177523 0)
(0.263504 0.17926 0)
(0.244164 0.180911 0)
(0.224495 0.182456 0)
(0.204664 0.183863 0)
(0.184819 0.185171 0)
(0.165054 0.186467 0)
(0.14541 0.187881 0)
(0.125903 0.189607 0)
(0.106537 0.191765 0)
(0.0873085 0.194531 0)
(0.0681039 0.197668 0)
(0.0489939 0.201808 0)
(0.0294223 0.204325 0)
(0.010185 0.208321 0)
(3 -5.61114e-17 0)
(3 -9.89422e-17 0)
(3 -2.9916e-16 0)
(3 -4.01056e-16 0)
(3 -3.66543e-16 0)
(3 -4.78559e-18 0)
(3 1.56563e-16 0)
(3 1.19567e-16 0)
(3 -1.58379e-16 0)
(3 -1.37393e-16 0)
(3 -7.11713e-17 0)
(3 2.765e-16 0)
(3 5.2278e-16 0)
(3 8.82357e-16 0)
(3 8.31188e-16 0)
(3 1.77719e-16 0)
(3 -2.41256e-16 0)
(3 -1.78915e-16 0)
(3 6.55972e-16 0)
(3 1.06982e-15 0)
(3 1.24897e-15 0)
(3 2.09983e-15 0)
(3 2.19281e-15 0)
(3 1.39366e-15 0)
(3 3.74392e-16 0)
(3 4.4271e-17 0)
(3 -5.75437e-16 0)
(3 -2.92738e-16 0)
(3 2.99056e-16 0)
(3 5.656e-16 0)
(3 1.42606e-15 0)
(3 1.6336e-15 0)
(3 8.6664e-16 0)
(3 4.19691e-16 0)
(3 5.68915e-17 0)
(3 -1.48371e-17 0)
(3 -1.45717e-16 0)
(3 8.73451e-17 0)
(3 3.47441e-16 0)
(3 4.49706e-16 0)
(3 7.71704e-16 0)
(3 1.05482e-15 0)
(3 9.18834e-16 0)
(3 6.5691e-16 0)
(3 2.3092e-16 0)
(3 1.68696e-16 0)
(3 -1.54969e-16 0)
(3 -7.2154e-16 0)
(3 1.79662e-07 0)
(1.41601 0.167151 0)
(0.791081 0.142503 0)
(0.756261 0.138848 0)
(0.742864 0.147134 0)
(0.72529 0.152533 0)
(0.708549 0.156514 0)
(0.692027 0.157348 0)
(0.676645 0.155279 0)
(0.662363 0.152913 0)
(0.648836 0.152347 0)
(0.635523 0.153059 0)
(0.621536 0.154856 0)
(0.607133 0.159607 0)
(0.592639 0.165753 0)
(0.577569 0.168227 0)
(0.563183 0.166136 0)
(0.549022 0.164983 0)
(0.535306 0.167504 0)
(0.521598 0.17173 0)
(0.507203 0.175473 0)
(0.492221 0.178149 0)
(0.477058 0.180092 0)
(0.461981 0.182211 0)
(0.446877 0.185049 0)
(0.431435 0.188315 0)
(0.415463 0.191561 0)
(0.398978 0.194695 0)
(0.382066 0.19777 0)
(0.364831 0.200831 0)
(0.347343 0.203877 0)
(0.329581 0.206809 0)
(0.311455 0.209562 0)
(0.292855 0.212171 0)
(0.273687 0.214652 0)
(0.253935 0.216983 0)
(0.233695 0.21912 0)
(0.21314 0.220999 0)
(0.192455 0.222632 0)
(0.171778 0.224104 0)
(0.151194 0.225556 0)
(0.130753 0.227236 0)
(0.110486 0.22926 0)
(0.0904293 0.231973 0)
(0.070449 0.235021 0)
(0.0506696 0.239395 0)
(0.0304118 0.242045 0)
(0.0105132 0.246366 0)
(3 8.6094e-17 0)
(3 1.22922e-16 0)
(3 2.68012e-16 0)
(3 4.23984e-16 0)
(3 4.51098e-16 0)
(3 6.40644e-16 0)
(3 1.02601e-15 0)
(3 1.26676e-15 0)
(3 1.5912e-15 0)
(3 1.12308e-15 0)
(3 4.54483e-16 0)
(3 3.71086e-17 0)
(3 -4.44882e-16 0)
(3 -2.00091e-16 0)
(3 5.36713e-16 0)
(3 7.07444e-16 0)
(3 1.96057e-16 0)
(3 7.74797e-17 0)
(3 1.34455e-16 0)
(3 1.79539e-16 0)
(3 1.27991e-15 0)
(3 1.69538e-15 0)
(3 2.41791e-15 0)
(3 2.18896e-15 0)
(3 1.85914e-15 0)
(3 1.64852e-15 0)
(3 9.00315e-16 0)
(3 -3.22218e-16 0)
(3 -8.97737e-16 0)
(3 -1.82191e-15 0)
(3 -9.99773e-16 0)
(3 -5.60814e-16 0)
(3 -2.13391e-16 0)
(3 -3.97699e-16 0)
(3 1.23923e-16 0)
(3 3.71793e-16 0)
(3 2.01662e-16 0)
(3 1.6705e-16 0)
(3 5.52587e-17 0)
(3 5.14892e-16 0)
(3 1.26138e-15 0)
(3 1.19896e-15 0)
(3 1.1074e-15 0)
(3 9.95788e-16 0)
(3 8.3402e-16 0)
(3 4.29899e-16 0)
(3 -4.52589e-16 0)
(3 -1.50804e-15 0)
(3 4.96199e-10 0)
(1.7314 0.188205 0)
(0.819309 0.172239 0)
(0.762284 0.163327 0)
(0.747828 0.172968 0)
(0.729378 0.179705 0)
(0.712119 0.183596 0)
(0.695351 0.183346 0)
(0.679709 0.179858 0)
(0.664863 0.175991 0)
(0.650554 0.174765 0)
(0.636674 0.176172 0)
(0.62241 0.179272 0)
(0.608007 0.184852 0)
(0.593606 0.191062 0)
(0.578696 0.193486 0)
(0.564314 0.191379 0)
(0.550129 0.189814 0)
(0.536436 0.192036 0)
(0.523101 0.196646 0)
(0.509274 0.201376 0)
(0.494784 0.205013 0)
(0.480019 0.207395 0)
(0.465429 0.209758 0)
(0.451051 0.213164 0)
(0.436522 0.217315 0)
(0.421478 0.2215 0)
(0.405868 0.225587 0)
(0.389746 0.2297 0)
(0.373178 0.233842 0)
(0.356242 0.23795 0)
(0.338953 0.24193 0)
(0.321242 0.245723 0)
(0.302989 0.249343 0)
(0.284062 0.252785 0)
(0.264392 0.256008 0)
(0.244032 0.25895 0)
(0.223139 0.261523 0)
(0.201911 0.263707 0)
(0.180514 0.265573 0)
(0.159061 0.267242 0)
(0.137638 0.26901 0)
(0.11631 0.270936 0)
(0.0951708 0.273569 0)
(0.0740905 0.276382 0)
(0.0532773 0.280854 0)
(0.0319697 0.283559 0)
(0.011031 0.288142 0)
(3 -3.33338e-17 0)
(3 -2.78402e-16 0)
(3 -3.07081e-16 0)
(3 -3.31891e-16 0)
(3 -2.25288e-16 0)
(3 -8.33335e-17 0)
(3 3.09893e-16 0)
(3 3.62005e-16 0)
(3 3.83029e-16 0)
(3 -6.16524e-18 0)
(3 -4.61575e-16 0)
(3 -6.63329e-16 0)
(3 -8.03063e-16 0)
(3 -1.14724e-15 0)
(3 -1.36578e-15 0)
(3 -1.21099e-15 0)
(3 -1.15889e-15 0)
(3 -1.33902e-15 0)
(3 -1.97399e-15 0)
(3 -2.15735e-15 0)
(3 -1.58219e-15 0)
(3 -4.21734e-16 0)
(3 2.75986e-16 0)
(3 1.13784e-15 0)
(3 2.25805e-15 0)
(3 2.02905e-15 0)
(3 2.32974e-15 0)
(3 1.25475e-15 0)
(3 -3.75766e-17 0)
(3 -5.96445e-16 0)
(3 -8.02354e-16 0)
(3 -2.90153e-16 0)
(3 9.40848e-16 0)
(3 1.26786e-15 0)
(3 1.86858e-15 0)
(3 1.88829e-15 0)
(3 2.14019e-15 0)
(3 1.93654e-15 0)
(3 1.62346e-15 0)
(3 1.05522e-15 0)
(3 5.61143e-16 0)
(3 2.77171e-16 0)
(3 3.71405e-16 0)
(3 9.63127e-16 0)
(3 8.28493e-16 0)
(3 1.45921e-16 0)
(3 -1.92798e-16 0)
(3 -3.29578e-16 0)
(3 1.17838e-12 0)
(2.1566 0.193349 0)
(0.860855 0.211412 0)
(0.757505 0.191076 0)
(0.743691 0.20129 0)
(0.728771 0.208628 0)
(0.714681 0.212604 0)
(0.700089 0.212078 0)
(0.68543 0.208258 0)
(0.670656 0.203558 0)
(0.655871 0.201465 0)
(0.641533 0.202906 0)
(0.627151 0.206583 0)
(0.612821 0.212264 0)
(0.598606 0.21824 0)
(0.583791 0.220954 0)
(0.568953 0.219411 0)
(0.554165 0.217561 0)
(0.539764 0.218979 0)
(0.526008 0.22325 0)
(0.512178 0.228503 0)
(0.497723 0.233035 0)
(0.482823 0.235823 0)
(0.468111 0.238074 0)
(0.45387 0.241619 0)
(0.439841 0.246443 0)
(0.425467 0.251506 0)
(0.410577 0.256464 0)
(0.395216 0.261563 0)
(0.379427 0.266837 0)
(0.363283 0.272154 0)
(0.34682 0.277394 0)
(0.329959 0.282504 0)
(0.312523 0.287486 0)
(0.294288 0.292311 0)
(0.275092 0.296913 0)
(0.254926 0.3012 0)
(0.233933 0.305037 0)
(0.212337 0.308333 0)
(0.190346 0.311109 0)
(0.168107 0.313424 0)
(0.145733 0.315611 0)
(0.123292 0.31764 0)
(0.100929 0.320273 0)
(0.0785354 0.322753 0)
(0.0564313 0.327168 0)
(0.0338521 0.329822 0)
(0.0116473 0.334608 0)
(3 5.81492e-17 0)
(3 5.95031e-17 0)
(3 1.8248e-16 0)
(3 2.40186e-16 0)
(3 7.772e-17 0)
(3 -1.57664e-16 0)
(3 -5.7946e-16 0)
(3 -1.14629e-15 0)
(3 -1.7709e-15 0)
(3 -2.19275e-15 0)
(3 -1.98262e-15 0)
(3 -2.08436e-15 0)
(3 -2.10126e-15 0)
(3 -2.19345e-15 0)
(3 -2.23816e-15 0)
(3 -2.52709e-15 0)
(3 -2.71246e-15 0)
(3 -2.97241e-15 0)
(3 -2.1369e-15 0)
(3 -1.63961e-15 0)
(3 -6.42625e-16 0)
(3 -3.10139e-17 0)
(3 9.62378e-16 0)
(3 1.79422e-15 0)
(3 2.96911e-15 0)
(3 3.60206e-15 0)
(3 3.42593e-15 0)
(3 3.54767e-15 0)
(3 2.86252e-15 0)
(3 2.09065e-15 0)
(3 8.59391e-16 0)
(3 9.22256e-16 0)
(3 1.2283e-15 0)
(3 1.90306e-15 0)
(3 2.09585e-15 0)
(3 2.11298e-15 0)
(3 1.60917e-15 0)
(3 9.80312e-16 0)
(3 6.77833e-16 0)
(3 2.669e-16 0)
(3 -5.93071e-16 0)
(3 -1.20999e-15 0)
(3 -1.45794e-15 0)
(3 -1.20912e-15 0)
(3 -4.98465e-16 0)
(3 -1.16866e-16 0)
(3 2.3516e-17 0)
(3 4.40117e-17 0)
(3 2.95908e-15 0)
(2.68645 0.171431 0)
(0.962663 0.255441 0)
(0.782639 0.226341 0)
(0.76972 0.22292 0)
(0.753647 0.228028 0)
(0.739777 0.232952 0)
(0.725054 0.235236 0)
(0.709837 0.233937 0)
(0.69433 0.230484 0)
(0.678581 0.228413 0)
(0.663145 0.229941 0)
(0.647945 0.233981 0)
(0.63287 0.239487 0)
(0.618102 0.245474 0)
(0.602894 0.249512 0)
(0.587162 0.249886 0)
(0.571315 0.248697 0)
(0.555701 0.249393 0)
(0.540771 0.25285 0)
(0.526229 0.25823 0)
(0.511284 0.263781 0)
(0.495584 0.26746 0)
(0.479816 0.269717 0)
(0.464597 0.273085 0)
(0.449979 0.278241 0)
(0.435298 0.283952 0)
(0.420142 0.289467 0)
(0.40455 0.295131 0)
(0.388616 0.301196 0)
(0.372449 0.307526 0)
(0.356139 0.313953 0)
(0.339642 0.320406 0)
(0.322765 0.326876 0)
(0.305218 0.333299 0)
(0.286751 0.339561 0)
(0.26726 0.345524 0)
(0.246802 0.351007 0)
(0.225521 0.355852 0)
(0.203561 0.360053 0)
(0.180981 0.363625 0)
(0.157843 0.366929 0)
(0.134168 0.36976 0)
(0.110176 0.373001 0)
(0.0858111 0.375516 0)
(0.061609 0.379971 0)
(0.0369308 0.38257 0)
(0.0126946 0.387603 0)
(3 -5.83024e-17 0)
(3 -2.74019e-17 0)
(3 2.7176e-17 0)
(3 5.25218e-17 0)
(3 -3.19532e-16 0)
(3 -3.77934e-16 0)
(3 -4.64678e-16 0)
(3 -2.09457e-16 0)
(3 -3.16661e-16 0)
(3 -7.15289e-16 0)
(3 -1.04834e-15 0)
(3 -1.3974e-15 0)
(3 -1.32355e-15 0)
(3 -1.18303e-15 0)
(3 -9.73347e-16 0)
(3 -1.01109e-15 0)
(3 -1.49836e-15 0)
(3 -1.90946e-15 0)
(3 -1.4782e-16 0)
(3 6.2124e-16 0)
(3 7.07933e-16 0)
(3 6.82654e-16 0)
(3 4.01363e-16 0)
(3 1.32576e-17 0)
(3 2.92596e-16 0)
(3 1.41822e-15 0)
(3 1.45732e-15 0)
(3 1.52793e-15 0)
(3 1.65851e-15 0)
(3 1.51801e-15 0)
(3 1.29996e-15 0)
(3 1.03715e-15 0)
(3 8.47636e-16 0)
(3 6.51211e-16 0)
(3 6.98241e-16 0)
(3 8.28761e-16 0)
(3 7.64141e-16 0)
(3 6.60642e-16 0)
(3 -3.50034e-16 0)
(3 -1.26209e-15 0)
(3 -1.458e-15 0)
(3 -1.29908e-15 0)
(3 -1.16784e-15 0)
(3 -1.65598e-15 0)
(3 -1.58656e-15 0)
(3 -1.08828e-15 0)
(3 -6.49293e-16 0)
(3 -3.2674e-16 0)
(3 -4.57038e-16 0)
(3.02027 0.0100782 0)
(1.1489 0.276651 0)
(0.807363 0.231889 0)
(0.792826 0.246194 0)
(0.777704 0.253861 0)
(0.763321 0.259129 0)
(0.74952 0.262064 0)
(0.735467 0.26205 0)
(0.720907 0.259882 0)
(0.705742 0.258018 0)
(0.69049 0.259128 0)
(0.67546 0.262687 0)
(0.660424 0.267124 0)
(0.645722 0.272269 0)
(0.631045 0.277055 0)
(0.615696 0.279659 0)
(0.599785 0.280144 0)
(0.583784 0.280538 0)
(0.56813 0.282657 0)
(0.552969 0.287455 0)
(0.537791 0.29397 0)
(0.521645 0.299462 0)
(0.504899 0.302604 0)
(0.488505 0.305923 0)
(0.472892 0.311302 0)
(0.457525 0.317787 0)
(0.441678 0.324042 0)
(0.425289 0.330237 0)
(0.40853 0.336964 0)
(0.391584 0.344243 0)
(0.374605 0.35185 0)
(0.357593 0.359659 0)
(0.340358 0.367662 0)
(0.322567 0.375819 0)
(0.30388 0.384042 0)
(0.284072 0.3922 0)
(0.263106 0.400102 0)
(0.241075 0.407496 0)
(0.21814 0.41427 0)
(0.194391 0.420235 0)
(0.169967 0.42564 0)
(0.144857 0.430017 0)
(0.119275 0.434424 0)
(0.0929825 0.43738 0)
(0.0665926 0.441782 0)
(0.0397977 0.444068 0)
(0.0135351 0.449095 0)
(3 -2.59717e-17 0)
(3 -3.42954e-16 0)
(3 -7.88402e-16 0)
(3 -7.96799e-16 0)
(3 -8.31229e-16 0)
(3 -5.91493e-16 0)
(3 -3.11726e-16 0)
(3 5.9875e-17 0)
(3 4.28484e-16 0)
(3 5.24255e-16 0)
(3 4.18133e-16 0)
(3 4.63384e-16 0)
(3 3.80161e-16 0)
(3 3.81452e-16 0)
(3 3.15848e-16 0)
(3 9.5238e-16 0)
(3 1.21808e-15 0)
(3 1.56859e-15 0)
(3 1.69745e-15 0)
(3 1.60796e-15 0)
(3 1.69929e-15 0)
(3 1.02153e-15 0)
(3 -9.82106e-16 0)
(3 -1.87995e-15 0)
(3 -1.25868e-15 0)
(3 -3.28322e-16 0)
(3 -7.60898e-17 0)
(3 2.0922e-16 0)
(3 5.508e-16 0)
(3 9.58349e-16 0)
(3 1.20384e-15 0)
(3 7.83785e-16 0)
(3 6.19531e-16 0)
(3 4.335e-16 0)
(3 3.42741e-16 0)
(3 4.83047e-16 0)
(3 7.38011e-16 0)
(3 8.14242e-16 0)
(3 7.99471e-16 0)
(3 2.36981e-16 0)
(3 2.0925e-16 0)
(3 1.82033e-16 0)
(3 2.82588e-17 0)
(3 -1.08238e-15 0)
(3 -1.48016e-15 0)
(3 -1.45903e-15 0)
(3 -1.05764e-15 0)
(3 -1.03376e-15 0)
(3 -4.95485e-16 0)
(3.00029 9.87282e-06 0)
(1.55728 0.30932 0)
(0.825187 0.277249 0)
(0.778472 0.279315 0)
(0.765197 0.285862 0)
(0.752498 0.288288 0)
(0.741319 0.290559 0)
(0.729618 0.292114 0)
(0.716987 0.292444 0)
(0.703485 0.292285 0)
(0.689691 0.293903 0)
(0.676133 0.297439 0)
(0.662531 0.30113 0)
(0.649032 0.305178 0)
(0.635821 0.310194 0)
(0.622331 0.31486 0)
(0.608207 0.317716 0)
(0.593793 0.318951 0)
(0.579428 0.320171 0)
(0.565281 0.323815 0)
(0.551461 0.330508 0)
(0.536884 0.337663 0)
(0.521101 0.342243 0)
(0.505189 0.345588 0)
(0.489955 0.350657 0)
(0.475305 0.357451 0)
(0.460261 0.364315 0)
(0.444439 0.370856 0)
(0.428011 0.377875 0)
(0.411254 0.385746 0)
(0.394397 0.394284 0)
(0.377504 0.403276 0)
(0.360427 0.412662 0)
(0.34291 0.422477 0)
(0.324668 0.432671 0)
(0.305444 0.443106 0)
(0.285143 0.453546 0)
(0.263845 0.463636 0)
(0.241646 0.473091 0)
(0.21842 0.481521 0)
(0.194088 0.489312 0)
(0.168148 0.496035 0)
(0.140613 0.503293 0)
(0.110772 0.509416 0)
(0.0795167 0.515781 0)
(0.0472961 0.518736 0)
(0.0158687 0.523567 0)
(3 1.08121e-16 0)
(3 7.36266e-17 0)
(3 2.99179e-17 0)
(3 -1.47591e-16 0)
(3 -2.57979e-16 0)
(3 -5.30382e-16 0)
(3 -7.90758e-16 0)
(3 -1.021e-15 0)
(3 -3.93017e-16 0)
(3 5.49398e-16 0)
(3 8.95185e-16 0)
(3 7.68483e-16 0)
(3 3.6954e-16 0)
(3 2.49171e-16 0)
(3 4.04715e-16 0)
(3 5.89486e-16 0)
(3 9.78211e-16 0)
(3 1.37609e-15 0)
(3 8.05975e-16 0)
(3 -4.3999e-16 0)
(3 -1.27082e-15 0)
(3 -1.73934e-15 0)
(3 -1.57295e-15 0)
(3 -6.10585e-16 0)
(3 -4.12397e-16 0)
(3 -6.40586e-16 0)
(3 -5.98428e-16 0)
(3 -1.20907e-16 0)
(3 2.67875e-16 0)
(3 9.07556e-16 0)
(3 6.76805e-16 0)
(3 4.80634e-17 0)
(3 7.92481e-16 0)
(3 1.27267e-15 0)
(3 1.28417e-15 0)
(3 1.17563e-15 0)
(3 1.40939e-15 0)
(3 1.40771e-15 0)
(3 1.17978e-15 0)
(3 6.34703e-16 0)
(3 3.2416e-16 0)
(3 -2.29991e-16 0)
(3 -3.83352e-16 0)
(3 -1.85546e-16 0)
(3 -9.06819e-17 0)
(3 1.14904e-17 0)
(3 5.945e-16 0)
(3 1.03142e-15 0)
(3 6.58638e-16 0)
(3 1.73649e-08 0)
(2.3775 0.282557 0)
(0.921009 0.33791 0)
(0.790235 0.320462 0)
(0.778524 0.31097 0)
(0.765142 0.311773 0)
(0.753989 0.31506 0)
(0.742388 0.319007 0)
(0.729967 0.322096 0)
(0.716912 0.323819 0)
(0.70379 0.32586 0)
(0.691054 0.329038 0)
(0.678307 0.331931 0)
(0.665301 0.334719 0)
(0.652322 0.339097 0)
(0.639514 0.344833 0)
(0.626455 0.350045 0)
(0.613045 0.353134 0)
(0.599602 0.354546 0)
(0.58614 0.357266 0)
(0.573042 0.363594 0)
(0.559835 0.372143 0)
(0.545221 0.379148 0)
(0.529844 0.383689 0)
(0.514825 0.388899 0)
(0.500639 0.396175 0)
(0.486483 0.404216 0)
(0.471532 0.411881 0)
(0.455745 0.419684 0)
(0.43943 0.428461 0)
(0.422874 0.438213 0)
(0.406166 0.448743 0)
(0.389132 0.459813 0)
(0.371805 0.471541 0)
(0.353749 0.483986 0)
(0.334606 0.497113 0)
(0.314202 0.510736 0)
(0.292436 0.524608 0)
(0.269243 0.538601 0)
(0.244157 0.552158 0)
(0.217199 0.565663 0)
(0.187807 0.578467 0)
(0.15669 0.591522 0)
(0.124172 0.603458 0)
(0.0903975 0.613006 0)
(0.0551319 0.617774 0)
(0.0176415 0.62084 0)
(3 1.43523e-17 0)
(3 1.27543e-16 0)
(3 1.0805e-16 0)
(3 9.09502e-17 0)
(3 1.52372e-16 0)
(3 2.75412e-16 0)
(3 3.20997e-16 0)
(3 3.85982e-16 0)
(3 4.59418e-16 0)
(3 3.75903e-16 0)
(3 2.8602e-17 0)
(3 6.73608e-17 0)
(3 1.9762e-17 0)
(3 4.64051e-18 0)
(3 1.56127e-16 0)
(3 -2.00415e-16 0)
(3 -4.95467e-16 0)
(3 -3.27273e-16 0)
(3 -2.29181e-16 0)
(3 -3.29447e-16 0)
(3 -6.3782e-16 0)
(3 -1.2343e-15 0)
(3 -1.28647e-15 0)
(3 -1.26333e-15 0)
(3 -1.26024e-15 0)
(3 -1.77243e-15 0)
(3 -1.79172e-15 0)
(3 -1.7318e-15 0)
(3 -1.59347e-15 0)
(3 -1.56519e-15 0)
(3 -1.3592e-15 0)
(3 -1.23469e-15 0)
(3 2.37688e-16 0)
(3 1.21546e-15 0)
(3 1.56363e-15 0)
(3 1.27013e-15 0)
(3 1.14528e-15 0)
(3 1.39411e-15 0)
(3 2.1809e-15 0)
(3 2.16208e-15 0)
(3 1.93802e-15 0)
(3 1.35511e-15 0)
(3 4.85698e-16 0)
(3 7.72576e-16 0)
(3 1.50237e-15 0)
(3 3.23828e-15 0)
(3 3.36269e-15 0)
(3 2.5864e-15 0)
(3 1.89395e-15 0)
(3 -6.71524e-09 0)
(3.02775 0.0178089 0)
(1.25247 0.376185 0)
(0.842 0.334476 0)
(0.819712 0.331575 0)
(0.805335 0.331562 0)
(0.791137 0.335961 0)
(0.777618 0.342143 0)
(0.763751 0.347441 0)
(0.749758 0.35101 0)
(0.73592 0.353857 0)
(0.722631 0.357272 0)
(0.709523 0.360602 0)
(0.696058 0.363276 0)
(0.682316 0.36701 0)
(0.668799 0.372951 0)
(0.655632 0.379982 0)
(0.642364 0.385711 0)
(0.629015 0.388866 0)
(0.61573 0.391375 0)
(0.602722 0.396771 0)
(0.590218 0.405628 0)
(0.57686 0.414986 0)
(0.562157 0.421882 0)
(0.547282 0.427861 0)
(0.533195 0.435494 0)
(0.51977 0.444649 0)
(0.506 0.453955 0)
(0.491383 0.463162 0)
(0.476065 0.47314 0)
(0.460214 0.48429 0)
(0.444175 0.496568 0)
(0.427829 0.509746 0)
(0.411231 0.523867 0)
(0.394006 0.539071 0)
(0.375813 0.555538 0)
(0.3565 0.573285 0)
(0.336002 0.592194 0)
(0.314409 0.612152 0)
(0.291431 0.63244 0)
(0.266886 0.65252 0)
(0.240328 0.671152 0)
(0.211196 0.687232 0)
(0.17967 0.702945 0)
(0.14246 0.721585 0)
(0.096107 0.743693 0)
(0.0366504 0.763104 0)
(3 -1.15418e-17 0)
(3 -2.92413e-17 0)
(3 7.58576e-17 0)
(3 6.61116e-16 0)
(3 9.65489e-16 0)
(3 1.17001e-15 0)
(3 1.1937e-15 0)
(3 9.80237e-16 0)
(3 4.14933e-16 0)
(3 -1.19333e-16 0)
(3 -2.56327e-16 0)