/*--------------------------------*- C++ -*----------------------------------*\
  =========                 |
  \\      /  F ield         | OpenFOAM: The Open Source CFD Toolbox
   \\    /   O peration     | Website:  https://openfoam.org
    \\  /    A nd           | Version:  7
     \\/     M anipulation  |
\*---------------------------------------------------------------------------*/
FoamFile
{
    version     2.0;
    format      ascii;
    class       volScalarField;
    location    "1.3";
    object      p;
}
// * * * * * * * * * * * * * * * * * * * * * * * * * * * * * * * * * * * * * //

dimensions      [1 -1 -2 0 0 0 0];

internalField   nonuniform List<scalar> 
19968
(
1
1
1
1
1
1
1
1
1
1
1
1
1
1
1
1
1
1
1
1
1
1
1
1
1
1
1
1
1
1
1
1
1
1
1
1
1
1
1
1
1
1
1
1
1
1
1
1
1
1
1
1
5.01718
10.4628
10.6777
10.7564
10.832
10.89
10.9424
10.9958
11.0534
11.1057
11.1491
11.1874
11.2247
11.2636
11.3099
11.3656
11.4222
11.4716
11.5168
11.561
11.6049
11.6501
11.704
11.7636
11.8167
11.8508
11.8696
11.8799
11.8906
11.9093
11.9413
11.9756
11.9983
12.0046
11.9964
11.9902
12.0024
12.0405
12.0949
12.1408
12.1684
12.1739
12.1616
12.1475
1
1
1
1
1
1
1
1
1
1
1
1
1
1
1
1
1
1
1
1
1
1
1
1
1
1
1
1
1
1
1
1
1
1
1
1
1
1
1
1
1
1
1
1
1
1
1
1
1
1
1
1
4.94227
10.4306
10.6749
10.7536
10.8325
10.8915
10.9432
10.9958
11.0522
11.1035
11.1455
11.1824
11.2186
11.2579
11.3054
11.3614
11.4182
11.4669
11.511
11.5551
11.5984
11.6441
11.6981
11.7579
11.8109
11.8458
11.8652
11.8746
11.8846
11.9033
11.9351
11.9683
11.9911
11.9981
11.9914
11.9884
12.0023
12.0397
12.091
12.1345
12.16
12.1643
12.1512
12.1382
1
1
1
1
1
1
1
1
1
1
1
1
1
1
1
1
1
1
1
1
1
1
1
1
1
1
1
1
1
1
1
1
1
1
1
1
1
1
1
1
1
1
1
1
1
1
1
1
1
1
1
1
4.77675
10.3925
10.6659
10.7433
10.8253
10.8843
10.936
10.9886
11.0439
11.0941
11.1339
11.1697
11.2056
11.2455
11.295
11.3519
11.4101
11.4601
11.5042
11.5487
11.5912
11.6359
11.6874
11.7453
11.7976
11.8357
11.8589
11.8691
11.8786
11.8954
11.9228
11.9534
11.9775
11.9877
11.9855
11.9869
12.0024
12.0372
12.0829
12.123
12.146
12.1487
12.1335
12.1213
1
1
1
1
1
1
1
1
1
1
1
1
1
1
1
1
1
1
1
1
1
1
1
1
1
1
1
1
1
1
1
1
1
1
1
1
1
1
1
1
1
1
1
1
1
1
1
1
1
1
1
1
4.51737
10.3197
10.6581
10.731
10.8148
10.8734
10.9254
10.9776
11.0323
11.0804
11.116
11.15
11.186
11.2253
11.2768
11.3345
11.3947
11.4482
11.4943
11.5407
11.583
11.6257
11.6724
11.7259
11.7762
11.8175
11.8454
11.858
11.8684
11.8832
11.9052
11.9319
11.956
11.9707
11.9764
11.9842
12.0016
12.0325
12.0701
12.1045
12.1238
12.1248
12.1075
12.097
1
1
1
1
1
1
1
1
1
1
1
1
1
1
1
1
1
1
1
1
1
1
1
1
1
1
1
1
1
1
1
1
1
1
1
1
1
1
1
1
1
1
1
1
1
1
1
1
1
1
1
1
4.15717
10.1857
10.6507
10.7122
10.7982
10.8576
10.9105
10.9619
11.0164
11.0597
11.0907
11.1218
11.158
11.1955
11.2488
11.3079
11.3704
11.4294
11.4813
11.5306
11.5742
11.6147
11.6547
11.7012
11.7474
11.789
11.8211
11.8399
11.854
11.8674
11.8832
11.9044
11.9266
11.9462
11.9623
11.9785
11.9983
12.0231
12.0512
12.0783
12.0934
12.0929
12.0742
12.0669
1
1
1
1
1
1
1
1
1
1
1
1
1
1
1
1
1
1
1
1
1
1
1
1
1
1
1
1
1
1
1
1
1
1
1
1
1
1
1
1
1
1
1
1
1
1
1
1
1
1
1
1
3.6879
9.9668
10.6435
10.6918
10.7781
10.8401
10.8936
10.9455
10.9973
11.0339
11.0606
11.0879
11.1227
11.1601
11.2145
11.2748
11.3401
11.4047
11.464
11.5174
11.5631
11.6023
11.6359
11.6739
11.7139
11.7516
11.7848
11.8109
11.8319
11.846
11.857
11.8714
11.891
11.9147
11.9411
11.9664
11.988
12.0066
12.0243
12.0431
12.0534
12.0517
12.0329
12.0299
1
1
1
1
1
1
1
1
1
1
1
1
1
1
1
1
1
1
1
1
1
1
1
1
1
1
1
1
1
1
1
1
1
1
1
1
1
1
1
1
1
1
1
1
1
1
1
1
1
1
1
1
3.10097
9.65738
10.6206
10.659
10.7454
10.8124
10.8711
10.9287
10.9767
11.0118
11.0364
11.0603
11.0871
11.1231
11.1746
11.2345
11.3012
11.3705
11.4355
11.4926
11.5411
11.5811
11.6114
11.6426
11.676
11.7084
11.74
11.7715
11.799
11.815
11.8237
11.833
11.8497
11.8765
11.9103
11.9421
11.9658
11.9794
11.988
11.9985
12.0039
12.0016
11.9845
11.9867
1
1
1
1
1
1
1
1
1
1
1
1
1
1
1
1
1
1
1
1
1
1
1
1
1
1
1
1
1
1
1
1
1
1
1
1
1
1
1
1
1
1
1
1
1
1
1
1
1
1
1
1
2.39034
9.13211
10.5823
10.6247
10.7156
10.7839
10.8492
10.9028
10.9577
10.9979
11.0232
11.0406
11.0575
11.0868
11.1327
11.1903
11.2569
11.3296
11.399
11.4589
11.509
11.5487
11.5772
11.604
11.6317
11.6598
11.6879
11.7208
11.7522
11.7711
11.7809
11.7897
11.8059
11.834
11.8706
11.9047
11.9285
11.9378
11.9391
11.9414
11.9412
11.9382
11.9246
11.9321
1
1
1
1
1
1
1
1
1
1
1
1
1
1
1
1
1
1
1
1
1
1
1
1
1
1
1
1
1
1
1
1
1
1
1
1
1
1
1
1
1
1
1
1
1
1
1
1
1
1
1
1
1.72115
8.30632
10.5531
10.5864
10.6656
10.7315
10.8009
10.8739
10.9391
10.9879
11.016
11.0308
11.0423
11.0625
11.1008
11.151
11.2119
11.2837
11.3546
11.4146
11.4615
11.4963
11.5247
11.5538
11.5803
11.6063
11.6313
11.6604
11.6894
11.7103
11.723
11.735
11.7535
11.7815
11.817
11.8499
11.8716
11.8775
11.8745
11.87
11.8652
11.8628
11.8552
11.8674
1
1
1
1
1
1
1
1
1
1
1
1
1
1
1
1
1
1
1
1
1
1
1
1
1
1
1
1
1
1
1
1
1
1
1
1
1
1
1
1
1
1
1
1
1
1
1
1
1
1
1
1
1.06017
6.90193
10.5407
10.5999
10.666
10.7263
10.7926
10.8589
10.9181
10.9637
10.9914
11.0036
11.0095
11.0202
11.0512
11.0966
11.1561
11.2294
11.3017
11.3616
11.4029
11.4336
11.4631
11.4959
11.5234
11.5474
11.5678
11.5892
11.6109
11.6322
11.6485
11.6667
11.6894
11.7174
11.7504
11.7797
11.7963
11.796
11.7879
11.7771
11.7686
11.7678
11.7672
11.7817
1
1
1
1
1
1
1
1
1
1
1
1
1
1
1
1
1
1
1
1
1
1
1
1
1
1
1
1
1
1
1
1
1
1
1
1
1
1
1
1
1
1
1
1
1
1
1
1
1
1
1
1
1.00025
5.18872
10.3126
10.5131
10.5874
10.6552
10.7304
10.8065
10.8721
10.9228
10.9533
10.9638
10.9654
10.9694
10.9924
11.0338
11.0926
11.165
11.2345
11.2898
11.3283
11.358
11.3882
11.423
11.4534
11.4763
11.4923
11.5045
11.5161
11.5337
11.55
11.57
11.5948
11.6249
11.6559
11.6803
11.6903
11.6852
11.6726
11.6593
11.6519
11.6556
11.6629
11.6778
1
1
1
1
1
1
1
1
1
1
1
1
1
1
1
1
1
1
1
1
1
1
1
1
1
1
1
1
1
1
1
1
1
1
1
1
1
1
1
1
1
1
1
1
1
1
1
1
1
1
1
1
1
3.28947
9.70766
10.4748
10.5291
10.5874
10.6514
10.7254
10.7926
10.8489
10.8847
10.8987
10.9006
10.9027
10.9196
10.9597
11.0189
11.092
11.1615
11.2143
11.2489
11.2757
11.3036
11.3358
11.363
11.3766
11.3843
11.3879
11.3927
11.406
11.4224
11.4461
11.4775
11.5142
11.5472
11.5665
11.5677
11.5528
11.5305
11.5102
11.4987
11.5004
11.5093
11.5201
1
1
1
1
1
1
1
1
1
1
1
1
1
1
1
1
1
1
1
1
1
1
1
1
1
1
1
1
1
1
1
1
1
1
1
1
1
1
1
1
1
1
1
1
1
1
1
1
1
1
1
1
1
1.65699
8.2325
10.5105
10.5178
10.5618
10.5994
10.6585
10.7221
10.7813
10.8244
10.8466
10.8504
10.8495
10.8583
10.8889
10.9363
10.9958
11.0545
11.0994
11.1324
11.1599
11.1849
11.2105
11.2326
11.2421
11.2488
11.2512
11.2505
11.2546
11.2652
11.286
11.3179
11.3553
11.3852
11.3951
11.3851
11.3603
11.332
11.3099
11.2976
11.2974
11.3049
11.3099
1
1
1
1
1
1
1
1
1
1
1
1
1
1
1
1
1
1
1
1
1
1
1
1
1
1
1
1
1
1
1
1
1
1
1
1
1
1
1
1
1
1
1
1
1
1
1
1
1
1
1
1
1
1.01387
5.58836
10.353
10.4303
10.4597
10.4864
10.5384
10.6046
10.6718
10.7252
10.7541
10.7603
10.7571
10.7576
10.779
10.8182
10.8716
10.9288
10.9733
11.0059
11.028
11.0421
11.0524
11.0595
11.0623
11.0703
11.0799
11.0843
11.0846
11.0879
11.1006
11.1258
11.1556
11.1771
11.1802
11.1637
11.1347
11.1025
11.072
11.0395
11.0083
10.9826
10.9615
1
1
1
1
1
1
1
1
1
1
1
1
1
1
1
1
1
1
1
1
1
1
1
1
1
1
1
1
1
1
1
1
1
1
1
1
1
1
1
1
1
1
1
1
1
1
1
1
1
1
1
1
1
1.00002
2.62898
9.10223
10.3474
10.3678
10.4099
10.4542
10.5126
10.5772
10.6317
10.6615
10.6683
10.6611
10.6483
10.6514
10.6754
10.7182
10.7733
10.8223
10.8582
10.8798
10.8873
10.8869
10.8799
10.8718
10.8717
10.8778
10.8803
10.874
10.866
10.8632
10.8677
10.8757
10.8754
10.8565
10.8167
10.7613
10.6992
10.6356
10.5786
10.525
10.4991
10.4799
1
1
1
1
1
1
1
1
1
1
1
1
1
1
1
1
1
1
1
1
1
1
1
1
1
1
1
1
1
1
1
1
1
1
1
1
1
1
1
1
1
1
1
1
1
1
1
1
1
1
1
1
1
1
1.06346
5.9869
10.226
10.3117
10.3467
10.3877
10.4349
10.4909
10.5422
10.5757
10.5842
10.5745
10.5506
10.5317
10.5364
10.5606
10.6021
10.6497
10.6838
10.7022
10.7057
10.696
10.6732
10.6514
10.6338
10.6238
10.6167
10.6041
10.5883
10.5695
10.5495
10.5285
10.5009
10.4608
10.4035
10.3319
10.2513
10.1666
10.0642
9.95765
9.79936
9.91448
1
1
1
1
1
1
1
1
1
1
1
1
1
1
1
1
1
1
1
1
1
1
1
1
1
1
1
1
1
1
1
1
1
1
1
1
1
1
1
1
1
1
1
1
1
1
1
1
1
1
1
1
1
1
0.999174
2.79525
9.0778
10.1907
10.2284
10.2886
10.333
10.38
10.4279
10.4647
10.4784
10.4737
10.4537
10.4228
10.4118
10.4199
10.4461
10.4814
10.5139
10.5317
10.5357
10.5271
10.4992
10.4696
10.4361
10.4039
10.3758
10.3481
10.3185
10.2821
10.2363
10.1802
10.1148
10.0361
9.92999
9.79061
9.59778
9.34062
8.94752
8.36926
7.39009
5.47403
1
1
1
1
1
1
1
1
1
1
1
1
1
1
1
1
1
1
1
1
1
1
1
1
1
1
1
1
1
1
1
1
1
1
1
1
1
1
1
1
1
1
1
1
1
1
1
1
1
1
1
1
1
1
0.999869
1.11183
6.74317
10.1897
10.196
10.2377
10.2696
10.3058
10.3457
10.3768
10.3953
10.3947
10.3773
10.3402
10.3161
10.3098
10.3224
10.3441
10.3645
10.3781
10.3814
10.3732
10.3431
10.3075
10.2616
10.2129
10.1651
10.1196
10.0736
10.0208
9.95435
9.87193
9.77195
9.65388
9.49622
9.29347
9.00847
8.6409
8.10463
7.4097
6.15083
4.5381
1
1
1
1
1
1
1
1
1
1
1
1
1
1
1
1
1
1
1
1
1
1
1
1
1
1
1
1
1
1
1
1
1
1
1
1
1
1
1
1
1
1
1
1
1
1
1
1
1
1
1
1
1
1
0.999995
1.00036
3.47491
9.2513
10.0899
10.1352
10.1756
10.2069
10.2389
10.2681
10.289
10.2967
10.2866
10.2554
10.224
10.2067
10.2042
10.2104
10.2182
10.2213
10.224
10.2146
10.1858
10.147
10.094
10.033
9.96749
9.90041
9.82965
9.7521
9.66105
9.55576
9.42765
9.27446
9.07699
8.82373
8.49086
8.05315
7.50436
6.7063
5.68354
4.56792
1
1
1
1
1
1
1
1
1
1
1
1
1
1
1
1
1
1
1
1
1
1
1
1
1
1
1
1
1
1
1
1
1
1
1
1
1
1
1
1
1
1
1
1
1
1
1
1
1
1
1
1
1
1
1
1
1.18125
7.08192
10.0995
10.0803
10.0993
10.1196
10.1452
10.1735
10.1932
10.2035
10.2007
10.1797
10.1426
10.1115
10.0905
10.0795
10.0746
10.0684
10.064
10.0488
10.0194
9.97453
9.91523
9.84637
9.77027
9.68674
9.59246
9.48963
9.37493
9.24958
9.10298
8.92551
8.70376
8.42222
8.06818
7.62386
7.06576
6.38415
5.59781
4.75528
1
1
1
1
1
1
1
1
1
1
1
1
1
1
1
1
1
1
1
1
1
1
1
1
1
1
1
1
1
1
1
1
1
1
1
1
1
1
1
1
1
1
1
1
1
1
1
1
1
1
1
1
1
1
1
1
1.00102
3.54233
9.19263
9.92367
9.97291
10.0026
10.0279
10.051
10.0688
10.0775
10.0803
10.0688
10.0375
10.0046
9.97602
9.95328
9.93549
9.91992
9.90531
9.88417
9.85093
9.80236
9.73954
9.66573
9.58196
9.48546
9.37212
9.24687
9.10941
8.96215
8.79938
8.60929
8.3798
8.09447
7.74966
7.32438
6.81435
6.25166
5.63659
4.97696
1
1
1
1
1
1
1
1
1
1
1
1
1
1
1
1
1
1
1
1
1
1
1
1
1
1
1
1
1
1
1
1
1
1
1
1
1
1
1
1
1
1
1
1
1
1
1
1
1
1
1
1
1
1
1
1
0.999999
1.18088
6.70803
9.92533
9.89029
9.91151
9.93741
9.96247
9.98235
9.9871
9.98576
9.97296
9.94376
9.90432
9.8655
9.82846
9.79801
9.77175
9.74515
9.71506
9.67455
9.62176
9.55535
9.47818
9.38971
9.2865
9.16474
9.02803
8.87778
8.71383
8.53525
8.33524
8.10437
7.82826
7.50963
7.11721
6.67921
6.20788
5.69874
5.17221
1
1
1
1
1
1
1
1
1
1
1
1
1
1
1
1
1
1
1
1
1
1
1
1
1
1
1
1
1
1
1
1
1
1
1
1
1
1
1
1
1
1
1
1
1
1
1
1
1
1
1
1
1
1
1
1
1
1.00097
2.86977
8.80485
9.72398
9.76933
9.80874
9.83792
9.85734
9.86078
9.85675
9.84316
9.81577
9.77795
9.73546
9.69513
9.65809
9.62476
9.58709
9.54679
9.4991
9.44332
9.37566
9.29772
9.20507
9.0944
8.96525
8.82257
8.66814
8.49847
8.31266
8.10634
7.87888
7.61459
7.32391
6.97716
6.60055
6.20083
5.76368
5.3262
1
1
1
1
1
1
1
1
1
1
1
1
1
1
1
1
1
1
1
1
1
1
1
1
1
1
1
1
1
1
1
1
1
1
1
1
1
1
1
1
1
1
1
1
1
1
1
1
1
1
1
1
1
1
1
1
1
1
1.09654
5.5232
9.61909
9.7322
9.75044
9.76287
9.77023
9.769
9.75686
9.73652
9.70366
9.66141
9.61231
9.56096
9.51453
9.47123
9.4232
9.37366
9.31888
9.26006
9.19275
9.11613
9.02329
8.91016
8.77798
8.63313
8.47847
8.31053
8.12734
7.92203
7.70227
7.44754
7.18376
6.87545
6.54786
6.20027
5.82579
5.44794
1
1
1
1
1
1
1
1
1
1
1
1
1
1
1
1
1
1
1
1
1
1
1
1
1
1
1
1
1
1
1
1
1
1
1
1
1
1
1
1
1
1
1
1
1
1
1
1
1
1
1
1
1
1
1
1
1
1
1.00029
1.71273
7.81058
9.71753
9.69214
9.67807
9.66533
9.65824
9.64774
9.62839
9.59643
9.55292
9.50455
9.44959
9.39866
9.35147
9.2968
9.24007
9.17509
9.1064
9.03217
8.95079
8.85568
8.74104
8.60651
8.45987
8.30466
8.13953
7.96438
7.76879
7.56071
7.32476
7.0817
6.80212
6.51457
6.20147
5.8813
5.54525
1
1
1
1
1
1
1
1
1
1
1
1
1
1
1
1
1
1
1
1
1
1
1
1
1
1
1
1
1
1
1
1
1
1
1
1
1
1
1
1
1
1
1
1
1
1
1
1
1
1
1
1
1
1
1
1
1
1
1
1.01387
3.86516
9.07496
9.53404
9.48885
9.48702
9.48986
9.48935
9.48207
9.45606
9.41959
9.3829
9.33528
9.28204
9.23006
9.17397
9.11281
9.04131
8.96442
8.88464
8.79958
8.7045
8.59194
8.45761
8.31363
8.15887
7.9938
7.82289
7.63843
7.44355
7.23085
7.00342
6.75124
6.4928
6.20691
5.93053
5.62933
1
1
1
1
1
1
1
1
1
1
1
1
1
1
1
1
1
1
1
1
1
1
1
1
1
1
1
1
1
1
1
1
1
1
1
1
1
1
1
1
1
1
1
1
1
1
1
1
1
1
1
1
1
1
1
1
1
1
1
1.00001
1.20663
5.7692
9.32885
9.38222
9.38827
9.39834
9.40506
9.39826
9.37537
9.33711
9.30073
9.25004
9.19033
9.12767
9.06605
9.00168
8.92491
8.84365
8.7604
8.67167
8.57114
8.45676
8.32247
8.18186
8.03226
7.87117
7.70544
7.53115
7.34674
7.1525
6.93852
6.71098
6.47471
6.2185
5.97283
5.70344
1
1
1
1
1
1
1
1
1
1
1
1
1
1
1
1
1
1
1
1
1
1
1
1
1
1
1
1
1
1
1
1
1
1
1
1
1
1
1
1
1
1
1
1
1
1
1
1
1
1
1
1
1
1
1
1
1
1
1
1
1.00131
1.59704
7.23834
9.33609
9.34775
9.3426
9.33348
9.3234
9.29652
9.26073
9.22087
9.1658
9.09996
9.02847
8.9557
8.88482
8.80586
8.72407
8.64387
8.55808
8.45366
8.33557
8.20239
8.06299
7.92296
7.77147
7.61263
7.44627
7.27044
7.08814
6.88648
6.67886
6.46276
6.23205
6.00868
5.7665
1
1
1
1
1
1
1
1
1
1
1
1
1
1
1
1
1
1
1
1
1
1
1
1
1
1
1
1
1
1
1
1
1
1
1
1
1
1
1
1
1
1
1
1
1
1
1
1
1
1
1
1
1
1
1
1
1
1
1
1
1
1.01019
2.76442
8.35664
9.2896
9.25548
9.25399
9.22682
9.20094
9.16533
9.12399
9.06787
9.00366
8.93201
8.85303
8.77081
8.68595
8.60512
8.52763
8.44389
8.34211
8.22378
8.09217
7.95436
7.8205
7.68079
7.53354
7.3779
7.21142
7.03869
6.84859
6.65413
6.45435
6.24098
6.03528
5.81271
1
1
1
1
1
1
1
1
1
1
1
1
1
1
1
1
1
1
1
1
1
1
1
1
1
1
1
1
1
1
1
1
1
1
1
1
1
1
1
1
1
1
1
1
1
1
1
1
1
1
1
1
1
1
1
1
1
1
1
1
1
1.00001
1.0778
4.30587
8.92381
9.17614
9.13103
9.11411
9.08501
9.05493
9.01352
8.9645
8.90661
8.83979
8.76287
8.67602
8.58505
8.5034
8.42134
8.33561
8.23695
8.12168
7.99574
7.86541
7.73633
7.60252
7.46361
7.31669
7.15913
6.99756
6.81915
6.63688
6.45072
6.25059
6.05808
5.85054
1
1
1
1
1
1
1
1
1
1
1
1
1
1
1
1
1
1
1
1
1
1
1
1
1
1
1
1
1
1
1
1
1
1
1
1
1
1
1
1
1
1
1
1
1
1
1
1
1
1
1
1
1
1
1
1
1
1
1
1
1
1
1.00027
1.2676
5.45222
8.99528
9.04377
9.00282
8.98378
8.95275
8.91433
8.86977
8.8163
8.75186
8.67751
8.59316
8.50095
8.41357
8.32862
8.23936
8.14047
8.02885
7.90963
7.78895
7.66614
7.53716
7.40197
7.25958
7.11122
6.96187
6.7963
6.62775
6.45053
6.26212
6.07916
5.88546
1
1
1
1
1
1
1
1
1
1
1
1
1
1
1
1
1
1
1
1
1
1
1
1
1
1
1
1
1
1
1
1
1
1
1
1
1
1
1
1
1
1
1
1
1
1
1
1
1
1
1
1
1
1
1
1
1
1
1
1
1
1
1
1.00221
1.51572
6.24736
8.87095
8.91954
8.89272
8.86163
8.82286
8.77854
8.72717
8.66771
8.59833
8.51829
8.42944
8.33895
8.24954
8.15704
8.05545
7.94521
7.83221
7.71967
7.60432
7.48173
7.34983
7.20835
7.06608
6.92638
6.77489
6.61876
6.45152
6.27572
6.10206
5.92157
1
1
1
1
1
1
1
1
1
1
1
1
1
1
1
1
1
1
1
1
1
1
1
1
1
1
1
1
1
1
1
1
1
1
1
1
1
1
1
1
1
1
1
1
1
1
1
1
1
1
1
1
1
1
1
1
1
1
1
1
1
1
1
1
1.00744
1.79523
6.81814
8.77569
8.81856
8.78211
8.7385
8.69143
8.64235
8.58893
8.52597
8.45125
8.36582
8.27487
8.18225
8.08671
7.98489
7.87745
7.76865
7.65894
7.54629
7.42682
7.29704
7.15851
7.02395
6.89204
6.75228
6.60637
6.44983
6.28661
6.12374
5.9573
1
1
1
1
1
1
1
1
1
1
1
1
1
1
1
1
1
1
1
1
1
1
1
1
1
1
1
1
1
1
1
1
1
1
1
1
1
1
1
1
1
1
1
1
1
1
1
1
1
1
1
1
1
1
1
1
1
1
1
1
1
1
1
1
1.00001
1.01691
2.08962
7.20796
8.70704
8.7004
8.65896
8.60589
8.55404
8.50179
8.44511
8.37957
8.30253
8.21662
8.12473
8.0285
7.92788
7.82421
7.71823
7.60877
7.49487
7.37464
7.246
7.11157
6.98267
6.85716
6.72777
6.59189
6.44628
6.29535
6.1429
5.98862
1
1
1
1
1
1
1
1
1
1
1
1
1
1
1
1
1
1
1
1
1
1
1
1
1
1
1
1
1
1
1
1
1
1
1
1
1
1
1
1
1
1
1
1
1
1
1
1
1
1
1
1
1
1
1
1
1
1
1
1
1
1
1
1
1
1.00004
1.03086
2.36868
7.4532
8.60952
8.58168
8.54039
8.48291
8.42081
8.36076
8.29856
8.22942
8.1517
8.06524
7.97257
7.8762
7.77666
7.67369
7.56602
7.45246
7.33273
7.20863
7.08267
6.95595
6.83018
6.7061
6.57867
6.44176
6.30147
6.15791
6.01322
1
1
1
1
1
1
1
1
1
1
1
1
1
1
1
1
1
1
1
1
1
1
1
1
1
1
1
1
1
1
1
1
1
1
1
1
1
1
1
1
1
1
1
1
1
1
1
1
1
1
1
1
1
1
1
1
1
1
1
1
1
1
1
1
1
1
1.00009
1.04775
2.61858
7.53049
8.50374
8.46853
8.42151
8.36139
8.2971
8.228
8.15857
8.08484
8.00436
7.91857
7.82838
7.73306
7.63203
7.52545
7.41416
7.29815
7.17966
7.06172
6.94111
6.81826
6.69739
6.57479
6.4425
6.30901
6.17215
6.03433
1
1
1
1
1
1
1
1
1
1
1
1
1
1
1
1
1
1
1
1
1
1
1
1
1
1
1
1
1
1
1
1
1
1
1
1
1
1
1
1
1
1
1
1
1
1
1
1
1
1
1
1
1
1
1
1
1
1
1
1
1
1
1
1
1
1
1
1.00018
1.06577
2.72896
7.50501
8.38697
8.35216
8.30172
8.23785
8.17059
8.10076
8.02509
7.94626
7.86636
7.78236
7.69161
7.59323
7.48873
7.38079
7.27017
7.15751
7.04487
6.92949
6.8095
6.69015
6.5722
6.44608
6.31886
6.18955
6.05847
1
1
1
1
1
1
1
1
1
1
1
1
1
1
1
1
1
1
1
1
1
1
1
1
1
1
1
1
1
1
1
1
1
1
1
1
1
1
1
1
1
1
1
1
1
1
1
1
1
1
1
1
1
1
1
1
1
1
1
1
1
1
1
1
1
1
1
1
1.00028
1.07583
2.7286
7.36332
8.26745
8.24234
8.18287
8.12094
8.04975
7.97534
7.89878
7.81964
7.73664
7.64837
7.55352
7.45377
7.35206
7.2488
7.1423
7.03314
6.92125
6.80571
6.6898
6.57534
6.4538
6.32939
6.20775
6.08347
1
1
1
1
1
1
1
1
1
1
1
1
1
1
1
1
1
1
1
1
1
1
1
1
1
1
1
1
1
1
1
1
1
1
1
1
1
1
1
1
1
1
1
1
1
1
1
1
1
1
1
1
1
1
1
1
1
1
1
1
1
1
1
1
1
1
1
1
1
1.00036
1.07763
2.65286
7.08872
8.15719
8.13175
8.06604
8.00394
7.93156
7.85625
7.77829
7.69701
7.61028
7.51898
7.42436
7.32739
7.22863
7.12777
7.02428
6.91723
6.80666
6.69401
6.58066
6.46245
6.34058
6.22401
6.1089
1
1
1
1
1
1
1
1
1
1
1
1
1
1
1
1
1
1
1
1
1
1
1
1
1
1
1
1
1
1
1
1
1
1
1
1
1
1
1
1
1
1
1
1
1
1
1
1
1
1
1
1
1
1
1
1
1
1
1
1
1
1
1
1
1
1
1
1
1
1
1.00039
1.07096
2.47864
6.71669
8.00441
8.02088
7.94567
7.88481
7.81402
7.73811
7.65888
7.57501
7.48788
7.39769
7.30437
7.20865
7.11185
7.01349
6.91173
6.80684
6.69907
6.58869
6.47518
6.35827
6.24448
6.13304
1
1
1
1
1
1
1
1
1
1
1
1
1
1
1
1
1
1
1
1
1
1
1
1
1
1
1
1
1
1
1
1
1
1
1
1
1
1
1
1
1
1
1
1
1
1
1
1
1
1
1
1
1
1
1
1
1
1
1
1
1
1
1
1
1
1
1
1
1
1
1
1.00034
1.05714
2.25199
6.16866
7.84401
7.92789
7.83542
7.77317
7.7043
7.62808
7.54727
7.46221
7.37434
7.28491
7.19341
7.09934
7.00306
6.90505
6.80573
6.7042
6.59829
6.48818
6.37622
6.26434
6.15525
1
1
1
1
1
1
1
1
1
1
1
1
1
1
1
1
1
1
1
1
1
1
1
1
1
1
1
1
1
1
1
1
1
1
1
1
1
1
1
1
1
1
1
1
1
1
1
1
1
1
1
1
1
1
1
1
1
1
1
1
1
1
1
1
1
1
1
1
1
1
1
1
1.00025
1.04133
1.97698
5.43712
7.66734
7.83783
7.74467
7.6791
7.60577
7.52596
7.44218
7.35636
7.26899
7.17922
7.08746
6.99448
6.89982
6.80433
6.70651
6.6047
6.49962
6.39191
6.28584
6.18025
1
1
1
1
1
1
1
1
1
1
1
1
1
1
1
1
1
1
1
1
1
1
1
1
1
1
1
1
1
1
1
1
1
1
1
1
1
1
1
1
1
1
1
1
1
1
1
1
1
1
1
1
1
1
1
1
1
1
1
1
1
1
1
1
1
1
1
1
1
1
1
1
1
1.00016
1.02599
1.6815
4.57162
7.47703
7.75062
7.66946
7.58541
7.50544
7.42236
7.33843
7.25352
7.1665
7.078
6.98774
6.8954
6.80187
6.70576
6.60846
6.508
6.40478
6.30437
6.20276
1
1
1
1
1
1
1
1
1
1
1
1
1
1
1
1
1
1
1
1
1
1
1
1
1
1
1
1
1
1
1
1
1
1
1
1
1
1
1
1
1
1
1
1
1
1
1
1
1
1
1
1
1
1
1
1
1
1
1
1
1
1
1
1
1
1
1
1
1
1
1
1
1
1
1.00008
1.01374
1.41549
3.79316
7.12276
7.62437
7.57906
7.46877
7.39245
7.31577
7.23594
7.154
7.0698
6.98187
6.89174
6.79991
6.70574
6.6111
6.51405
6.41559
6.31882
6.22331
1
1
1
1
1
1
1
1
1
1
1
1
1
1
1
1
1
1
1
1
1
1
1
1
1
1
1
1
1
1
1
1
1
1
1
1
1
1
1
1
1
1
1
1
1
1
1
1
1
1
1
1
1
1
1
1
1
1
1
1
1
1
1
1
1
1
1
1
1
1
1
1
1
1
1
1.00003
1.00595
1.23818
3.06683
6.5484
7.44755
7.48735
7.37276
7.29765
7.22201
7.14218
7.05855
6.97427
6.89021
6.80171
6.70975
6.61709
6.52055
6.42635
6.33226
6.23836
1
1
1
1
1
1
1
1
1
1
1
1
1
1
1
1
1
1
1
1
1
1
1
1
1
1
1
1
1
1
1
1
1
1
1
1
1
1
1
1
1
1
1
1
1
1
1
1
1
1
1
1
1
1
1
1
1
1
1
1
1
1
1
1
1
1
1
1
1
1
1
1
1
1
1
1
1.00001
1.00241
1.12354
2.43528
5.63944
7.25165
7.3868
7.30006
7.21975
7.1351
7.05099
6.96927
6.88639
6.79963
6.71343
6.6235
6.53345
6.44495
6.34879
6.25823
1
1
1
1
1
1
1
1
1
1
1
1
1
1
1
1
1
1
1
1
1
1
1
1
1
1
1
1
1
1
1
1
1
1
1
1
1
1
1
1
1
1
1
1
1
1
1
1
1
1
1
1
1
1
1
1
1
1
1
1
1
1
1
1
1
1
1
1
1
1
1
1
1
1
1
1
1
1
1.00086
1.05804
1.8737
4.56017
6.96416
7.29061
7.24016
7.12631
7.04669
6.97138
6.88923
6.80515
6.71919
6.63041
6.54522
6.45619
6.36548
6.28382
1
1
1
1
1
1
1
1
1
1
1
1
1
1
1
1
1
1
1
1
1
1
1
1
1
1
1
1
1
1
1
1
1
1
1
1
1
1
1
1
1
1
1
1
1
1
1
1
1
1
1
1
1
1
1
1
1
1
1
1
1
1
1
1
1
1
1
1
1
1
1
1
1
1
1
1
1
1
1
1.00027
1.02273
1.45737
3.48631
6.44621
7.122
7.16644
7.06394
6.9831
6.90495
6.82214
6.73041
6.64193
6.55578
6.46888
6.39092
6.30625
1
1
1
1
1
1
1
1
1
1
1
1
1
1
1
1
1
1
1
1
1
1
1
1
1
1
1
1
1
1
1
1
1
1
1
1
1
1
1
1
1
1
1
1
1
1
1
1
1
1
1
1
1
1
1
1
1
1
1
1
1
1
1
1
1
1
1
1
1
1
1
1
1
1
1
1
1
1
1
1
1.00007
1.00744
1.20156
2.59797
5.50102
6.92892
7.07216
7.00956
6.90593
6.82098
6.74431
6.66397
6.57784
6.49137
6.40493
6.32518
1
1
1
1
1
1
1
1
1
1
1
1
1
1
1
1
1
1
1
1
1
1
1
1
1
1
1
1
1
1
1
1
1
1
1
1
1
1
1
1
1
1
1
1
1
1
1
1
1
1
1
1
1
1
1
1
1
1
1
1
1
1
1
1
1
1
1
1
1
1
1
1
1
1
1
1
1
1
1
1
1
1.00001
1.00199
1.07688
1.89849
4.29799
6.53924
6.94677
6.9625
6.8733
6.78801
6.69686
6.60287
6.51094
6.41451
6.34041
1
1
1
1
1
1
1
1
1
1
1
1
1
1
1
1
1
1
1
1
1
1
1
1
1
1
1
1
1
1
1
1
1
1
1
1
1
1
1
1
1
1
1
1
1
1
1
1
1
1
1
1
1
1
1
1
1
1
1
1
1
1
1
1
1
1
1
1
1
1
1
1
1
1
1
1
1
1
1
1
1
1
1
1.00044
1.02507
1.40955
3.14919
5.737
6.71788
6.89793
6.84553
6.75023
6.65513
6.55987
6.45485
6.33352
1
1
1
1
1
1
1
1
1
1
1
1
1
1
1
1
1
1
1
1
1
1
1
1
1
1
1
1
1
1
1
1
1
1
1
1
1
1
1
1
1
1
1
1
1
1
1
1
1
1
1
1
1
1
1
1
1
1
1
1
1
1
1
1
1
1
1
1
1
1
1
1
1
1
1
1
1
1
1
1
1
1
1
1
1.00008
1.00649
1.15423
2.18064
4.60718
6.4895
6.75035
6.73481
6.66284
6.59439
6.52472
6.4296
1
1
1
1
1
1
1
1
1
1
1
1
1
1
1
1
1
1
1
1
1
1
1
1
1
1
1
1
1
1
1
1
1
1
1
1
1
1
1
1
1
1
1
1
1
1
1
1
1
1
1
1
1
1
1
1
1
1
1
1
1
1
1
1
1
1
1
1
1
1
1
1
1
1
1
1
1
1
1
1
1
1
1
1
1
1.00001
1.00134
1.04446
1.56211
3.27648
5.85251
6.63745
6.60879
6.51758
6.46342
6.44721
1
1
1
1
1
1
1
1
1
1
1
1
1
1
1
1
1
1
1
1
1
1
1
1
1
1
1
1
1
1
1
1
1
1
1
1
1
1
1
1
1
1
1
1
1
1
1
1
1
1
1
1
1
1
1
1
1
1
1
1
1
1
1
1
1
1
1
1
1
1
1
1
1
1
1
1
1
1
1
1
1
1
1
1
1
1
1
1.00018
1.01176
1.18906
2.34866
4.57151
6.29127
6.54642
6.53643
6.49117
1
1
1
1
1
1
1
1
1
1
1
1
1
1
1
1
1
1
1
1
1
1
1
1
1
1
1
1
1
1
1
1
1
1
1
1
1
1
1
1
1
1
1
1
1
1
1
1
1
1
1
1
1
1
1
1
1
1
1
1
1
1
1
1
1
1
1
1
1
1
1
1
1
1
1
1
1
1
1
1
1
1
1
1
1
1
1
1
1.00003
1.00192
1.0596
1.57737
3.32471
5.40218
6.302
6.52653
1
1
1
1
1
1
1
1
1
1
1
1
1
1
1
1
1
1
1
1
1
1
1
1
1
1
1
1
1
1
1
1
1
1
1
1
1
1
1
1
1
1
1
1
1
1
1
1
1
1
1
1
1
1
1
1
1
1
1
1
1
1
1
1
1
1
1
1
1
1
1
1
1
1
1
1
1
1
1
1
1
1
1
1
1
1
1
1
1
1
1.00031
1.01243
1.19762
2.16561
4.23352
5.92409
1
1
1
1
1
1
1
1
1
1
1
1
1
1
1
1
1
1
1
1
1
1
1
1
1
1
1
1
1
1
1
1
1
1
1
1
1
1
1
1
1
1
1
1
1
1
1
1
1
1
1
1
1
1
1
1
1
1
1
1
1
1
1
1
1
1
1
1
1
1
1
1
1
1
1
1
1
1
1
1
1
1
1
1
1
1
1
1
1
1
1
1.00003
1.0021
1.04723
1.47148
3.017
1
1
1
1
1
1
1
1
1
1
1
1
1
1
1
1
1
1
1
1
1
1
1
1
1
1
1
1
1
1
1
1
1
1
1
1
1
1
1
1
1
1
1
1
1
1
1
1
1
1
1
1
1
1
1
1
1
1
1
1
1
1
1
1
1
1
1
1
1
1
1
1
1
1
1
1
1
1
1
1
1
1
1
1
1
1
1
1
1
1
1
1
1
1.00022
1.00928
1.14997
1
1
1
1
1
1
1
1
1
1
1
1
1
1
1
1
1
1
1
1
1
1
1
1
1
1
1
1
1
1
1
1
1
1
1
1
1
1
1
1
1
1
1
1
1
1
1
1
1
1
1
1
1
1
1
1
1
1
1
1
1
1
1
1
1
1
1
1
1
1
1
1
1
1
1
1
1
1
1
1
1
1
1
1
1
1
1
1
1
1
1
1
1
1
1.00002
1.00121
1
1
1
1
1
1
1
1
1
1
1
1
1
1
1
1
1
1
1
1
1
1
1
1
1
1
1
1
1
1
1
1
1
1
1
1
1
1
1
1
1
1
1
1
1
1
1
1
1
1
1
1
1
1
1
1
1
1
1
1
1
1
1
1
1
1
1
1
1
1
1
1
1
1
1
1
1
1
1
1
1
1
1
1
1
1
1
1
1
1
1
1
1
1
1
1
1
1
1
1
1
1
1
1
1
1
1
1
1
1
1
1
1
1
1
1
1
1
1
1
1
1
1
1
1
1
1
1
1
1
1
1
1
1
1
1
1
1
1
1
1
1
1
1
1
1
1
1
1
1
1
1
1
1
1
1
1
1
1
1
1
1
1
1
1
1
1
1
1
1
1
1
1
1
1
1
1
1
1
1
1
1
1
1
1
1
1
1
1
1
1
1
1
1
1
1
1
1
1
1
1
1
1
1
1
1
1
1
1
1
1
1
1
1
1
1
1
1
1
1
1
1
1
1
1
1
1
1
1
1
1
1
1
1
1
1
1
1
1
1
1
1
1
1
1
1
1
1
1
1
1
1
1
1
1
1
1
1
1
1
1
1
1
1
1
1
1
1
1
1
1
1
1
1
1
1
1
1
1
1
1
1
1
1
1
1
1
1
1
1
1
1
1
1
1
1
1
1
1
1
1
1
1
1
1
1
1
1
1
1
1
1
1
1
1
1
1
1
1
1
1
1
1
1
1
1
1
1
1
1
1
1
1
1
1
1
1
1
1
1
1
1
1
1
1
1
1
1
1
1
1
1
1
1
1
1
1
1
1
1
1
1
1
1
1
1
1
1
1
1
1
1
1
1
1
1
1
1
1
1
1
1
1
1
1
1
1
1
1
1
1
1
1
1
1
1
1
1
1
1
1
1
1
1
1
1
1
1
1
1
1
1
1
1
1
1
1
1
1
1
1
1
1
1
1
1
1
1
1
1
1
1
1
1
1
1
1
1
1
1
1
1
1
1
1
1
1
1
1
1
1
1
1
1
1
1
1
1
1
1
1
1
1
1
1
1
1
1
1
1
1
1
1
1
1
1
1
1
1
1
1
1
1
1
1
1
1
1
1
1
1
1
1
1
1
1
1
1
1
1
1
1
1
1
1
1
1
1
1
1
1
1
1
1
1
1
1
1
1
1
1
1
1
1
1
1
1
1
1
1
1
1
1
1
1
1
1
1
1
1
1
1
1
1
1
1
1
1
1
1
1
1
1
1
1
1
1
1
1
1
1
1
1
1
1
1
1
1
1
1
1
1
1
1
1
1
1
1
1
1
1
1
1
1
1
1
1
1
1
1
1
1
1
1
1
1
1
1
1
1
1
1
1
1
1
1
1
1
1
1
1
1
1
1
1
1
1
1
1
1
1
1
1
1
1
1
1
1
1
1
1
1
1
1
1
1
1
1
1
1
1
1
1
1
1
1
1
1
1
1
1
1
1
1
1
1
1
1
1
1
1
1
1
1
1
1
1
1
1
1
1
1
1
1
1
1
1
1
1
1
1
1
1
1
1
1
1
1
1
1
1
1
1
1
1
1
1
1
1
1
1
1
1
1
1
1
1
1
1
1
1
1
1
1
1
1
1
1
1
1
1
1
1
1
1
1
1
1
1
1
1
1
1
1
1
1
1
1
1
1
1
1
1
1
1
1
1
1
1
1
1
1
1
1
1
1
1
1
1
1
1
1
1
1
1
1
1
1
1
1
1
1
1
1
1
1
1
1
1
1
1
1
1
1
1
1
1
1
1
1
1
1
1
1
1
1
1
1
1
1
1
1
1
1
1
1
1
1
1
1
1
1
1
1
1
1
1
1
1
1
1
1
1
1
1
1
1
1
1
1
1
1
1
1
1
1
1
1
1
1
1
1
1
1
1
1
1
1
1
1
1
1
1
1
1
1
1
1
1
1
1
1
1
1
1
1
1
1
1
1
1
1
1
1
1
1
1
1
1
1
1
1
1
1
1
1
1
1
1
1
1
1
1
1
1
1
1
1
1
1
1
1
1
1
1
1
1
1
1
1
1
1
1
1
1
1
1
1
1
1
1
1
1
1
1
1
1
1
1
1
1
1
1
1
1
1
1
1
1
1
1
1
1
1
1
1
1
1
1
1
1
1
1
1
1
1
1
1
1
1
1
1
1
1
1
1
1
1
1
1
1
1
1
1
1
1
1
1
1
1
1
1
1
1
1
1
1
1
1
1
1
1
1
1
1
1
1
1
1
1
1
1
1
1
1
1
1
1
1
1
1
1
1
1
1
1
1
1
1
1
1
1
1
1
1
1
1
1
1
1
1
1
1
1
1
1
1
1
1
1
1
1
1
1
1
1
1
1
1
1
1
1
1
1
1
1
1
1
1
1
1
1
1
1
1
1
1
1
1
1
1
1
1
1
1
1
1
1
1
1
1
1
1
1
1
1
1
1
1
1
1
1
1
1
1
1
1
1
1
1
1
1
1
1
1
1
1
1
1
1
1
1
1
1
1
1
1
1
1
1
1
1
1
1
1
1
1
1
1
1
1
1
1
1
1
1
1
1
1
1
1
1
1
1
1
1
1
1
1
1
1
1
1
1
1
1
1
1
1
1
1
1
1
1
1
1
1
1
1
1
1
1
1
1
1
1
1
1
1
1
1
1
1
1
1
1
1
1
1
1
1
1
1
1
1
1
1
1
1
1
1
1
1
1
1
1
1
1
1
1
1
1
1
1
1
1
1
1
1
1
1
1
1
1
1
1
1
1
1
1
1
1
1
1
1
1
1
1
1
1
1
1
1
1
1
1
1
1
1
1
1
1
1
1
1
1
1
1
1
1
1
1
1
1
1
1
1
1
1
1
1
1
1
1
1
1
1
1
1
1
1
1
1
1
1
1
1
1
1
1
1
1
1
1
1
1
1
1
1
1
1
1
1
1
1
1
1
1
1
1
1
1
1
1
1
1
1
1
1
1
1
1
1
1
1
1
1
1
1
1
1
1
1
1
1
1
1
1
1
1
1
1
1
1
1
1
1
1
1
1
1
1
1
1
1
1
1
1
1
1
1
1
1
1
1
1
1
1
1
1
1
1
1
1
1
1
1
1
1
1
1
1
1
1
1
1
1
1
1
1
1
1
1
1
1
1
1
1
1
1
1
1
1
1
1
1
1
1
1
1
1
1
1
1
1
1
1
1
1
1
1
1
1
1
1
1
1
1
1
1
1
1
1
1
1
1
1
1
1
1
1
1
1
1
1
1
1
1
1
1
1
1
1
1
1
1
1
1
1
1
1
1
1
1
1
1
1
1
1
1
1
1
1
1
1
1
1
1
1
1
1
1
1
1
1
1
1
1
1
1
1
1
1
1
1
1
1
1
1
1
1
1
1
1
1
1
1
1
1
1
1
1
1
1
1
1
1
1
1
1
1
1
1
1
1
1
1
1
1
1
1
1
1
1
1
1
1
1
1
1
1
1
1
1
1
1
1
1
1
1
1
1
1
1
1
1
1
1
1
1
1
1
1
1
1
1
1
1
1
1
1
1
1
1
1
1
1
1
1
1
1
1
1
1
1
1
1
1
1
1
1
1
1
1
1
1
1
1
1
1
1
1
1
1
1
1
1
1
1
1
1
1
1
1
1
1
1
1
1
1
1
1
1
1
1
1
1
1
1
1
1
1
1
1
1
1
1
1
1
1
1
1
1
1
1
1
1
1
1
1
1
1
1
1
1
1
1
1
1
1
1
1
1
1
1
1
1
1
1
1
1
1
1
1
1
1
1
1
1
1
1
1
1
1
1
1
1
1
1
1
1
1
1
1
1
1
1
1
1
1
1
1
1
1
1
1
1
1
1
1
1
1
1
1
1
1
1
1
1
1
1
1
1
1
1
1
1
1
1
1
1
1
1
1
1
1
1
1
1
1
1
1
1
1
1
1
1
1
1
1
1
1
1
1
1
1
1
1
1
1
1
1
1
1
1
1
1
1
1
1
1
1
1
1
1
1
1
1
1
1
1
1
1
1
1
1
1
1
1
1
1
1
1
1
1
1
1
1
1
1
1
1
1
1
1
1
1
1
1
1
1
1
1
1
1
1
1
1
1
1
1
1
1
1
1
1
1
1
1
1
1
1
1
1
1
1
1
1
1
1
1
1
1
1
1
1
1
1
1
1
1
1
1
1
1
1
1
1
1
1
1
1
1
1
1
1
1
1
1
1
1
1
1
1
1
1
1
1
1
1
1
1
1
1
1
1
1
1
1
1
1
1
1
1
1
1
1
1
1
1
1
1
1
1
1
1
1
1
1
1
1
1
1
1
1
1
1
1
1
1
1
1
1
1
1
1
1
1
1
1
1
1
1
1
1
1
1
1
1
1
1
1
1
1
1
1
1
1
1
1
1
1
1
1
1
1
1
1
1
1
1
1
1
1
1
1
1
1
1
1
1
1
1
1
1
1
1
1
1
1
1
1
1
1
1
1
1
1
1
1
1
1
1
1
1
1
1
1
1
1
1
1
1
1
1
1
1
1
1
1
1
1
1
1
1
1
1.15844
0.216404
0.0278936
0.032294
0.0456966
0.0591778
0.088342
0.126835
0.179304
0.246929
0.329713
0.426907
0.499525
0.521675
0.567128
0.65392
0.738976
0.803274
0.862153
0.922389
0.942956
0.951101
0.958386
0.96415
0.970434
0.972619
0.989701
1.01829
1.04258
1.06998
1.09756
1.1178
1.12851
1.12039
1.11695
1.12421
1.13391
1.14807
1.16895
1.19182
1.19946
1.19986
1.19885
1.19661
1.19504
1.19264
1.19097
1.19417
1.20127
1.20596
1.20888
1.20949
1.20945
1.20827
1.20677
1.2051
1.20333
1.20365
1.20614
1.20824
1.20836
1.20602
1.2032
1.20068
1.19783
1.19387
1.18844
1.18259
1.17784
1.17424
1.17151
1.16981
1.17052
1.17249
1.17082
1.16886
1.16696
1.16378
1.15958
1.15479
1.14936
1.14332
1.13702
1.13089
1.12543
1.12099
1.11734
1.11389
1.11073
1.1069
1.10209
1.097
1.09102
1.08487
1.08086
1.07744
1.07378
1.06943
1.0648
1.06042
1.05643
1.0526
1.04896
1.04555
1.04215
1.03876
1.03496
1.03063
1.02571
1.0197
1.01318
1.00714
1.00147
0.996722
0.992742
0.988935
0.985428
0.981691
0.977228
0.97147
0.970041
0.974268
0.999076
1.0749
1.22918
1.47954
1.83525
2.24574
2.68162
3.08036
3.44038
3.74139
4.00148
4.1741
4.28296
4.30489
4.25713
4.16333
4.06532
3.97603
3.8912
3.81549
3.7541
3.69869
3.64732
3.59822
3.55052
3.50299
3.45977
3.42311
3.38619
3.35164
3.3192
3.28663
3.25205
3.21561
3.18852
3.16829
3.15133
3.13085
3.10791
3.08468
3.0601
3.03135
2.99895
2.96646
2.93467
2.90247
2.86946
2.83885
2.81302
2.78994
2.76813
2.74668
2.72553
2.70366
2.6809
2.65824
2.63598
2.61297
2.58888
2.56285
2.54828
2.54056
2.53433
2.5262
2.51814
2.51066
2.50212
2.48699
2.4677
2.42842
2.05513
0.846557
0.330286
0.297849
0.258916
0.197796
0.187693
0.195862
0.203729
0.210813
0.222172
0.250925
0.307831
0.353399
0.406941
0.47838
0.539974
0.598595
0.678998
0.755517
0.810783
0.850183
0.879935
0.902088
0.920369
0.947952
0.984781
1.02293
1.03796
1.05447
1.06613
1.07587
1.09511
1.10655
1.11014
1.11793
1.12905
1.14202
1.15852
1.17822
1.18828
1.19079
1.1906
1.18787
1.1871
1.18862
1.18898
1.19046
1.19383
1.1976
1.20023
1.2008
1.20032
1.20027
1.20091
1.20142
1.20286
1.20651
1.2118
1.21406
1.2116
1.20704
1.20181
1.19664
1.19176
1.18686
1.18255
1.17894
1.17571
1.17313
1.17145
1.17037
1.17158
1.17231
1.16986
1.16729
1.16414
1.15938
1.15383
1.14936
1.14616
1.14275
1.13892
1.13476
1.12995
1.12439
1.11863
1.11353
1.10924
1.10563
1.10241
1.09888
1.09483
1.09042
1.08516
1.0788
1.07307
1.06823
1.06349
1.05933
1.056
1.05291
1.04996
1.04689
1.04354
1.04004
1.03617
1.0318
1.02704
1.02152
1.01534
1.00911
1.00304
0.997832
0.992929
0.987537
0.981794
0.97584
0.972055
0.980369
1.01538
1.10362
1.26469
1.47964
1.66853
1.86348
1.98926
2.06485
2.15397
2.33322
2.5422
2.75153
2.91878
3.09293
3.25567
3.40416
3.52478
3.61478
3.68989
3.73819
3.7648
3.76576
3.74032
3.70815
3.66718
3.62809
3.59022
3.5515
3.51423
3.48029
3.44003
3.40035
3.36372
3.3237
3.28055
3.23655
3.19775
3.16859
3.14228
3.11414
3.08604
3.05865
3.03059
3.00157
2.97168
2.94186
2.91308
2.88429
2.8553
2.82916
2.80772
2.78806
2.76859
2.74923
2.7304
2.71221
2.6934
2.67448
2.65468
2.63445
2.61253
2.58672
2.56731
2.55785
2.54897
2.5379
2.52666
2.51447
2.5019
2.48643
2.46808
2.42939
2.75502
1.59992
1.05119
0.775931
0.591172
0.434444
0.359244
0.353637
0.327632
0.296433
0.281421
0.287063
0.310307
0.344359
0.380897
0.410758
0.440071
0.470857
0.524636