/*--------------------------------*- C++ -*----------------------------------*\
  =========                 |
  \\      /  F ield         | OpenFOAM: The Open Source CFD Toolbox
   \\    /   O peration     | Website:  https://openfoam.org
    \\  /    A nd           | Version:  7
     \\/     M anipulation  |
\*---------------------------------------------------------------------------*/
FoamFile
{
    version     2.0;
    format      ascii;
    class       volScalarField;
    location    "1.3";
    object      rho;
}
// * * * * * * * * * * * * * * * * * * * * * * * * * * * * * * * * * * * * * //

dimensions      [1 -3 0 0 0 0 0];

internalField   nonuniform List<scalar> 
19968
(
1.40001
1.40001
1.40001
1.40001
1.40001
1.40001
1.40001
1.40001
1.40001
1.40001
1.40001
1.40001
1.40001
1.40001
1.40001
1.40001
1.40001
1.40001
1.40001
1.40001
1.40001
1.40001
1.40001
1.40001
1.40001
1.40001
1.40001
1.40001
1.40001
1.40001
1.40001
1.40001
1.40001
1.40001
1.40001
1.40001
1.40001
1.40001
1.40001
1.40001
1.40001
1.40001
1.40001
1.40001
1.40001
1.40001
1.40001
1.40001
1.40001
1.40001
1.40001
1.40001
3.37377
5.42737
5.49177
5.50875
5.52349
5.53047
5.53679
5.54778
5.56781
5.59351
5.61938
5.64842
5.67939
5.7066
5.72892
5.74751
5.75482
5.75116
5.74605
5.74915
5.76403
5.78657
5.81363
5.84222
5.86584
5.87615
5.87446
5.86867
5.86645
5.87087
5.88161
5.89301
5.89778
5.89433
5.88475
5.87567
5.87337
5.87761
5.87899
5.85848
5.80463
5.7298
5.66824
5.64273
1.40001
1.40001
1.40001
1.40001
1.40001
1.40001
1.40001
1.40001
1.40001
1.40001
1.40001
1.40001
1.40001
1.40001
1.40001
1.40001
1.40001
1.40001
1.40001
1.40001
1.40001
1.40001
1.40001
1.40001
1.40001
1.40001
1.40001
1.40001
1.40001
1.40001
1.40001
1.40001
1.40001
1.40001
1.40001
1.40001
1.40001
1.40001
1.40001
1.40001
1.40001
1.40001
1.40001
1.40001
1.40001
1.40001
1.40001
1.40001
1.40001
1.40001
1.40001
1.40001
3.33926
5.41262
5.49127
5.50845
5.5242
5.53118
5.53702
5.54777
5.56762
5.59316
5.61869
5.64742
5.67795
5.70501
5.72754
5.74576
5.75274
5.74882
5.74348
5.74683
5.76183
5.78466
5.81184
5.84047
5.86387
5.8743
5.87277
5.86682
5.86435
5.86872
5.87941
5.89041
5.89517
5.8919
5.88287
5.87494
5.87327
5.87711
5.87728
5.85581
5.80104
5.72586
5.66421
5.63915
1.40001
1.40001
1.40001
1.40001
1.40001
1.40001
1.40001
1.40001
1.40001
1.40001
1.40001
1.40001
1.40001
1.40001
1.40001
1.40001
1.40001
1.40001
1.40001
1.40001
1.40001
1.40001
1.40001
1.40001
1.40001
1.40001
1.40001
1.40001
1.40001
1.40001
1.40001
1.40001
1.40001
1.40001
1.40001
1.40001
1.40001
1.40001
1.40001
1.40001
1.40001
1.40001
1.40001
1.40001
1.40001
1.40001
1.40001
1.40001
1.40001
1.40001
1.40001
1.40001
3.2641
5.39224
5.48906
5.50646
5.52318
5.52967
5.53521
5.54604
5.56602
5.59147
5.61667
5.64533
5.67528
5.70169
5.72432
5.74163
5.74817
5.7446
5.73978
5.74418
5.75966
5.78237
5.80884
5.8367
5.85954
5.87064
5.87034
5.86488
5.86224
5.86591
5.87515
5.88519
5.89023
5.88798
5.88051
5.87419
5.87296
5.8758
5.87371
5.85035
5.79423
5.71856
5.65662
5.63207
1.40001
1.40001
1.40001
1.40001
1.40001
1.40001
1.40001
1.40001
1.40001
1.40001
1.40001
1.40001
1.40001
1.40001
1.40001
1.40001
1.40001
1.40001
1.40001
1.40001
1.40001
1.40001
1.40001
1.40001
1.40001
1.40001
1.40001
1.40001
1.40001
1.40001
1.40001
1.40001
1.40001
1.40001
1.40001
1.40001
1.40001
1.40001
1.40001
1.40001
1.40001
1.40001
1.40001
1.40001
1.40001
1.40001
1.40001
1.40001
1.40001
1.40001
1.40001
1.40001
3.14526
5.35606
5.48714
5.50382
5.52179
5.52818
5.53381
5.54481
5.56517
5.59021
5.6144
5.64248
5.67133
5.69602
5.71837
5.73421
5.7401
5.73767
5.73456
5.74101
5.75758
5.77992
5.80487
5.83106
5.85278
5.86442
5.86552
5.86095
5.85865
5.86167
5.86915
5.87771
5.88255
5.8817
5.87695
5.87293
5.87227
5.87356
5.86822
5.8419
5.78379
5.70748
5.64524
5.62155
1.40001
1.40001
1.40001
1.40001
1.40001
1.40001
1.40001
1.40001
1.40001
1.40001
1.40001
1.40001
1.40001
1.40001
1.40001
1.40001
1.40001
1.40001
1.40001
1.40001
1.40001
1.40001
1.40001
1.40001
1.40001
1.40001
1.40001
1.40001
1.40001
1.40001
1.40001
1.40001
1.40001
1.40001
1.40001
1.40001
1.40001
1.40001
1.40001
1.40001
1.40001
1.40001
1.40001
1.40001
1.40001
1.40001
1.40001
1.40001
1.40001
1.40001
1.40001
1.40001
2.97842
5.29565
5.48485
5.49861
5.51886
5.52648
5.53287
5.54406
5.56495
5.58851
5.61128
5.63764
5.66467
5.68671
5.70858
5.72296
5.72836
5.72787
5.72802
5.73758
5.75606
5.77796
5.8007
5.82422
5.84406
5.85508
5.85718
5.85461
5.85364
5.85632
5.86181
5.86819
5.87216
5.87299
5.87185
5.87078
5.87072
5.86965
5.86049
5.83069
5.77029
5.69325
5.63084
5.60842
1.40001
1.40001
1.40001
1.40001
1.40001
1.40001
1.40001
1.40001
1.40001
1.40001
1.40001
1.40001
1.40001
1.40001
1.40001
1.40001
1.40001
1.40001
1.40001
1.40001
1.40001
1.40001
1.40001
1.40001
1.40001
1.40001
1.40001
1.40001
1.40001
1.40001
1.40001
1.40001
1.40001
1.40001
1.40001
1.40001
1.40001
1.40001
1.40001
1.40001
1.40001
1.40001
1.40001
1.40001
1.40001
1.40001
1.40001
1.40001
1.40001
1.40001
1.40001
1.40001
2.75906
5.20724
5.48251
5.49371
5.51616
5.52624
5.53349
5.54526
5.56557
5.58637
5.60699
5.63041
5.65473
5.67483
5.69599
5.70897
5.71428
5.71605
5.72033
5.73381
5.75453
5.77629
5.79697
5.81728
5.83418
5.84302
5.84504
5.84467
5.84606
5.84929
5.85316
5.85692
5.85987
5.86222
5.86461
5.86658
5.86691
5.86341
5.85023
5.81678
5.75388
5.67601
5.61357
5.59269
1.40001
1.40001
1.40001
1.40001
1.40001
1.40001
1.40001
1.40001
1.40001
1.40001
1.40001
1.40001
1.40001
1.40001
1.40001
1.40001
1.40001
1.40001
1.40001
1.40001
1.40001
1.40001
1.40001
1.40001
1.40001
1.40001
1.40001
1.40001
1.40001
1.40001
1.40001
1.40001
1.40001
1.40001
1.40001
1.40001
1.40001
1.40001
1.40001
1.40001
1.40001
1.40001
1.40001
1.40001
1.40001
1.40001
1.40001
1.40001
1.40001
1.40001
1.40001
1.40001
2.48015
5.09504
5.47554
5.48677
5.51159
5.52485
5.53443
5.54785
5.56585
5.58499
5.60316
5.62348
5.64325
5.66158
5.68057
5.69214
5.69738
5.70154
5.70981
5.72688
5.74988
5.77237
5.79204
5.80962
5.82325
5.82922
5.8302
5.83141
5.83497
5.83908
5.84217
5.84406
5.846
5.8494
5.85428
5.85844
5.85933
5.8539
5.83727
5.8004
5.73501
5.65627
5.59408
5.57487
1.40001
1.40001
1.40001
1.40001
1.40001
1.40001
1.40001
1.40001
1.40001
1.40001
1.40001
1.40001
1.40001
1.40001
1.40001
1.40001
1.40001
1.40001
1.40001
1.40001
1.40001
1.40001
1.40001
1.40001
1.40001
1.40001
1.40001
1.40001
1.40001
1.40001
1.40001
1.40001
1.40001
1.40001
1.40001
1.40001
1.40001
1.40001
1.40001
1.40001
1.40001
1.40001
1.40001
1.40001
1.40001
1.40001
1.40001
1.40001
1.40001
1.40001
1.40001
1.40001
2.1375
4.92522
5.46484
5.48126
5.51029
5.52517
5.53697
5.54672
5.56403
5.58361
5.60018
5.61655
5.63175
5.64698
5.66345
5.67385
5.67924
5.68578
5.69786
5.71803
5.74259
5.76532
5.78437
5.79986
5.81042
5.81372
5.81298
5.81443
5.8193
5.82459
5.82817
5.82984
5.8316
5.83538
5.84113
5.84593
5.84684
5.83999
5.82071
5.78063
5.71264
5.63279
5.57111
5.55344
1.40001
1.40001
1.40001
1.40001
1.40001
1.40001
1.40001
1.40001
1.40001
1.40001
1.40001
1.40001
1.40001
1.40001
1.40001
1.40001
1.40001
1.40001
1.40001
1.40001
1.40001
1.40001
1.40001
1.40001
1.40001
1.40001
1.40001
1.40001
1.40001
1.40001
1.40001
1.40001
1.40001
1.40001
1.40001
1.40001
1.40001
1.40001
1.40001
1.40001
1.40001
1.40001
1.40001
1.40001
1.40001
1.40001
1.40001
1.40001
1.40001
1.40001
1.40001
1.40001
1.79675
4.65154
5.45926
5.47118
5.49645
5.51168
5.52532
5.54109
5.56001
5.58044
5.59724
5.61136
5.6239
5.63559
5.64916
5.65755
5.66203
5.66995
5.68487
5.70657
5.73042
5.75168
5.77035
5.78599
5.79512
5.79651
5.79415
5.79411
5.79832
5.8044
5.8092
5.81206
5.81452
5.81817
5.82341
5.82758
5.82791
5.82018
5.79947
5.75709
5.68713
5.60644
5.5457
5.52915
1.40001
1.40001
1.40001
1.40001
1.40001
1.40001
1.40001
1.40001
1.40001
1.40001
1.40001
1.40001
1.40001
1.40001
1.40001
1.40001
1.40001
1.40001
1.40001
1.40001
1.40001
1.40001
1.40001
1.40001
1.40001
1.40001
1.40001
1.40001
1.40001
1.40001
1.40001
1.40001
1.40001
1.40001
1.40001
1.40001
1.40001
1.40001
1.40001
1.40001
1.40001
1.40001
1.40001
1.40001
1.40001
1.40001
1.40001
1.40001
1.40001
1.40001
1.40001
1.40001
1.43751
4.15081
5.46122
5.47449
5.49283
5.50705
5.52194
5.5376
5.55438
5.57202
5.5878
5.59964
5.60957
5.61793
5.62896
5.63725
5.64349
5.65402
5.67081
5.69282
5.71452
5.73407
5.75265
5.76895
5.77734
5.77712
5.77258
5.76993
5.77215
5.77837
5.78467
5.78992
5.79377
5.79728
5.80145
5.80423
5.80293
5.79337
5.77131
5.72727
5.65616
5.57503
5.5152
5.49869
1.40001
1.40001
1.40001
1.40001
1.40001
1.40001
1.40001
1.40001
1.40001
1.40001
1.40001
1.40001
1.40001
1.40001
1.40001
1.40001
1.40001
1.40001
1.40001
1.40001
1.40001
1.40001
1.40001
1.40001
1.40001
1.40001
1.40001
1.40001
1.40001
1.40001
1.40001
1.40001
1.40001
1.40001
1.40001
1.40001
1.40001
1.40001
1.40001
1.40001
1.40001
1.40001
1.40001
1.40001
1.40001
1.40001
1.40001
1.40001
1.40001
1.40001
1.40001
1.40001
1.40019
3.44215
5.36996
5.44652
5.46696
5.48304
5.50181
5.5221
5.54072
5.55839
5.57387
5.5833
5.5913
5.59811
5.60703
5.61675
5.62579
5.63777
5.65348
5.67291
5.69292
5.71132
5.72953
5.74584
5.75412
5.75274
5.74628
5.74089
5.74036
5.74541
5.75187
5.75809
5.76287
5.76682
5.76997
5.77114
5.76775
5.75662
5.73378
5.69025
5.62022
5.53962
5.48062
5.46331
1.40001
1.40001
1.40001
1.40001
1.40001
1.40001
1.40001
1.40001
1.40001
1.40001
1.40001
1.40001
1.40001
1.40001
1.40001
1.40001
1.40001
1.40001
1.40001
1.40001
1.40001
1.40001
1.40001
1.40001
1.40001
1.40001
1.40001
1.40001
1.40001
1.40001
1.40001
1.40001
1.40001
1.40001
1.40001
1.40001
1.40001
1.40001
1.40001
1.40001
1.40001
1.40001
1.40001
1.40001
1.40001
1.40001
1.40001
1.40001
1.40001
1.40001
1.40001
1.40001
1.40001
2.57958
5.14956
5.44949
5.45657
5.46703
5.48005
5.49796
5.51581
5.53361
5.54904
5.55939
5.56734
5.5742
5.582
5.5941
5.60657
5.62042
5.63537
5.6522
5.66968
5.686
5.70261
5.71686
5.72276
5.71772
5.70822
5.70047
5.69841
5.70245
5.70898
5.71689
5.72427
5.73033
5.73384
5.73328
5.72688
5.71253
5.68754
5.64345
5.57326
5.49129
5.43103
5.41137
1.40001
1.40001
1.40001
1.40001
1.40001
1.40001
1.40001
1.40001
1.40001
1.40001
1.40001
1.40001
1.40001
1.40001
1.40001
1.40001
1.40001
1.40001
1.40001
1.40001
1.40001
1.40001
1.40001
1.40001
1.40001
1.40001
1.40001
1.40001
1.40001
1.40001
1.40001
1.40001
1.40001
1.40001
1.40001
1.40001
1.40001
1.40001
1.40001
1.40001
1.40001
1.40001
1.40001
1.40001
1.40001
1.40001
1.40001
1.40001
1.40001
1.40001
1.40001
1.40001
1.40001
1.77556
4.65698
5.47704
5.46498
5.46864
5.46876
5.47806
5.49313
5.51163
5.52951
5.54342
5.55167
5.55758
5.56334
5.57344
5.584
5.59451
5.60522
5.61755
5.63277
5.6486
5.66315
5.67396
5.67717
5.67053
5.66083
5.65314
5.6499
5.65127
5.65572
5.66283
5.67071
5.67692
5.6792
5.67539
5.66491
5.64755
5.62212
5.58012
5.51188
5.42927
5.36695
5.34447
1.40001
1.40001
1.40001
1.40001
1.40001
1.40001
1.40001
1.40001
1.40001
1.40001
1.40001
1.40001
1.40001
1.40001
1.40001
1.40001
1.40001
1.40001
1.40001
1.40001
1.40001
1.40001
1.40001
1.40001
1.40001
1.40001
1.40001
1.40001
1.40001
1.40001
1.40001
1.40001
1.40001
1.40001
1.40001
1.40001
1.40001
1.40001
1.40001
1.40001
1.40001
1.40001
1.40001
1.40001
1.40001
1.40001
1.40001
1.40001
1.40001
1.40001
1.40001
1.40001
1.40001
1.40995
3.60495
5.39799
5.43929
5.442
5.43794
5.44352
5.45772
5.4779
5.49905
5.51559
5.52399
5.52885
5.53215
5.53916
5.54821
5.55762
5.56744
5.57807
5.59149
5.60446
5.61405
5.61873
5.61709
5.60833
5.59925
5.59439
5.59325
5.59335
5.59503
5.59942
5.60535
5.60924
5.60852
5.60196
5.58904
5.57084
5.54585
5.50447
5.43305
5.34139
5.26741
5.23599
1.40001
1.40001
1.40001
1.40001
1.40001
1.40001
1.40001
1.40001
1.40001
1.40001
1.40001
1.40001
1.40001
1.40001
1.40001
1.40001
1.40001
1.40001
1.40001
1.40001
1.40001
1.40001
1.40001
1.40001
1.40001
1.40001
1.40001
1.40001
1.40001
1.40001
1.40001
1.40001
1.40001
1.40001
1.40001
1.40001
1.40001
1.40001
1.40001
1.40001
1.40001
1.40001
1.40001
1.40001
1.40001
1.40001
1.40001
1.40001
1.40001
1.40001
1.40001
1.40001
1.40001
1.40002
2.27901
4.97675
5.42918
5.42402
5.42949
5.43407
5.44325
5.45806
5.47534
5.48952
5.49696
5.50018
5.49904
5.49931
5.50417
5.51061
5.51899
5.52904
5.54158
5.55341
5.55969
5.56055
5.55518
5.54371
5.53219
5.5259
5.52367
5.52107
5.5184
5.51694
5.51605
5.513
5.50457
5.48967
5.46854
5.44132
5.40789
5.36072
5.28816
5.19118
5.1133
5.07931
1.40001
1.40001
1.40001
1.40001
1.40001
1.40001
1.40001
1.40001
1.40001
1.40001
1.40001
1.40001
1.40001
1.40001
1.40001
1.40001
1.40001
1.40001
1.40001
1.40001
1.40001
1.40001
1.40001
1.40001
1.40001
1.40001
1.40001
1.40001
1.40001
1.40001
1.40001
1.40001
1.40001
1.40001
1.40001
1.40001
1.40001
1.40001
1.40001
1.40001
1.40001
1.40001
1.40001
1.40001
1.40001
1.40001
1.40001
1.40001
1.40001
1.40001
1.40001
1.40001
1.40001
1.40001
1.44549
3.78983
5.36893
5.41966
5.4336
5.44014
5.44337
5.44986
5.45886
5.46837
5.47466
5.4752
5.47038
5.46412
5.46221
5.46282
5.46624
5.47347
5.48242
5.49155
5.49525
5.49321
5.48334
5.46911
5.45276
5.44019
5.43321
5.42736
5.42145
5.41414
5.40438
5.39176
5.37422
5.35173
5.32392
5.29109
5.25252
5.20265
5.12148
5.00267
4.85894
4.84985
1.40001
1.40001
1.40001
1.40001
1.40001
1.40001
1.40001
1.40001
1.40001
1.40001
1.40001
1.40001
1.40001
1.40001
1.40001
1.40001
1.40001
1.40001
1.40001
1.40001
1.40001
1.40001
1.40001
1.40001
1.40001
1.40001
1.40001
1.40001
1.40001
1.40001
1.40001
1.40001
1.40001
1.40001
1.40001
1.40001
1.40001
1.40001
1.40001
1.40001
1.40001
1.40001
1.40001
1.40001
1.40001
1.40001
1.40001
1.40001
1.40001
1.40001
1.40001
1.40001
1.40001
1.40001
1.3993
2.37111
4.98303
5.39879
5.40862
5.42402
5.42869
5.43159
5.43536
5.44015
5.44402
5.44445
5.4405
5.43106
5.42381
5.42027
5.41929
5.42106
5.42594
5.43174
5.43494
5.4334
5.42311
5.40768
5.38756
5.36709
5.35106
5.338
5.32612
5.3123
5.29363
5.2687
5.23798
5.20131
5.15474
5.09671
5.01829
4.91002
4.73296
4.45541
3.9849
3.07727
1.40001
1.40001
1.40001
1.40001
1.40001
1.40001
1.40001
1.40001
1.40001
1.40001
1.40001
1.40001
1.40001
1.40001
1.40001
1.40001
1.40001
1.40001
1.40001
1.40001
1.40001
1.40001
1.40001
1.40001
1.40001
1.40001
1.40001
1.40001
1.40001
1.40001
1.40001
1.40001
1.40001
1.40001
1.40001
1.40001
1.40001
1.40001
1.40001
1.40001
1.40001
1.40001
1.40001
1.40001
1.40001
1.40001
1.40001
1.40001
1.40001
1.40001
1.40001
1.40001
1.40001
1.40001
1.39988
1.48026
4.11212
5.38425
5.39517
5.41335
5.4203
5.42242
5.42316
5.42222
5.42218
5.42167
5.41654
5.40462
5.39449
5.38737
5.38342
5.38058
5.37908
5.37986
5.38138
5.37918
5.3687
5.35306
5.32976
5.304
5.27972
5.25835
5.23912
5.21876
5.19273
5.15864
5.11567
5.06438
4.99786
4.91508
4.80144
4.65357
4.42958
4.12172
3.55209
2.78627
1.40001
1.40001
1.40001
1.40001
1.40001
1.40001
1.40001
1.40001
1.40001
1.40001
1.40001
1.40001
1.40001
1.40001
1.40001
1.40001
1.40001
1.40001
1.40001
1.40001
1.40001
1.40001
1.40001
1.40001
1.40001
1.40001
1.40001
1.40001
1.40001
1.40001
1.40001
1.40001
1.40001
1.40001
1.40001
1.40001
1.40001
1.40001
1.40001
1.40001
1.40001
1.40001
1.40001
1.40001
1.40001
1.40001
1.40001
1.40001
1.40001
1.40001
1.40001
1.40001
1.40001
1.40001
1.4
1.40027
2.69866
5.04812
5.36533
5.38306
5.3955
5.39935
5.39977
5.39792
5.39485
5.39213
5.38774
5.37666
5.36521
5.35577
5.3496
5.34299
5.33621
5.33032
5.32849
5.32487
5.31429
5.29861
5.27469
5.24532
5.21392
5.18314
5.15305
5.12225
5.08671
5.0445
4.99159
4.92729
4.84513
4.74167
4.60774
4.43168
4.20597
3.86723
3.41176
2.88678
1.40001
1.40001
1.40001
1.40001
1.40001
1.40001
1.40001
1.40001
1.40001
1.40001
1.40001
1.40001
1.40001
1.40001
1.40001
1.40001
1.40001
1.40001
1.40001
1.40001
1.40001
1.40001
1.40001
1.40001
1.40001
1.40001
1.40001
1.40001
1.40001
1.40001
1.40001
1.40001
1.40001
1.40001
1.40001
1.40001
1.40001
1.40001
1.40001
1.40001
1.40001
1.40001
1.40001
1.40001
1.40001
1.40001
1.40001
1.40001
1.40001
1.40001
1.40001
1.40001
1.40001
1.40001
1.40001
1.4
1.52608
4.27359
5.3735
5.36847
5.3747
5.37794
5.37942
5.37881
5.37376
5.36717
5.36113
5.3524
5.33898
5.32725
5.31629
5.3066
5.2965
5.28562
5.27808
5.27018
5.25787
5.23994
5.21501
5.1841
5.14892
5.11099
5.07032
5.02821
4.98263
4.93273
4.87331
4.80022
4.70851
4.59277
4.44826
4.26704
4.03671
3.7491
3.40932
3.01843
1.40001
1.40001
1.40001
1.40001
1.40001
1.40001
1.40001
1.40001
1.40001
1.40001
1.40001
1.40001
1.40001
1.40001
1.40001
1.40001
1.40001
1.40001
1.40001
1.40001
1.40001
1.40001
1.40001
1.40001
1.40001
1.40001
1.40001
1.40001
1.40001
1.40001
1.40001
1.40001
1.40001
1.40001
1.40001
1.40001
1.40001
1.40001
1.40001
1.40001
1.40001
1.40001
1.40001
1.40001
1.40001
1.40001
1.40001
1.40001
1.40001
1.40001
1.40001
1.40001
1.40001
1.40001
1.40001
1.4
1.40077
2.74464
5.0549
5.32655
5.33747
5.34413
5.34742
5.34659
5.34097
5.33162
5.32425
5.31751
5.30524
5.29396
5.28306
5.27111
5.25872
5.24489
5.23145
5.21815
5.20268
5.18227
5.15632
5.12481
5.08762
5.04447
4.9951
4.94241
4.88635
4.82716
4.76155
4.68403
4.58942
4.47138
4.32863
4.15248
3.93966
3.70106
3.4326
3.13755
1.40001
1.40001
1.40001
1.40001
1.40001
1.40001
1.40001
1.40001
1.40001
1.40001
1.40001
1.40001
1.40001
1.40001
1.40001
1.40001
1.40001
1.40001
1.40001
1.40001
1.40001
1.40001
1.40001
1.40001
1.40001
1.40001
1.40001
1.40001
1.40001
1.40001
1.40001
1.40001
1.40001
1.40001
1.40001
1.40001
1.40001
1.40001
1.40001
1.40001
1.40001
1.40001
1.40001
1.40001
1.40001
1.40001
1.40001
1.40001
1.40001
1.40001
1.40001
1.40001
1.40001
1.40001
1.40001
1.40001
1.4
1.52599
4.13294
5.32841
5.31535
5.32015
5.32306
5.32268
5.3189
5.30968
5.30085
5.29238
5.27979
5.26504
5.25121
5.2363
5.22046
5.2041
5.18577
5.16678
5.14643
5.12259
5.09461
5.06249
5.02466
4.97936
4.92591
4.86695
4.80379
4.73645
4.66393
4.58254
4.48762
4.37303
4.23972
4.07504
3.88991
3.6884
3.4665
3.23248
1.40001
1.40001
1.40001
1.40001
1.40001
1.40001
1.40001
1.40001
1.40001
1.40001
1.40001
1.40001
1.40001
1.40001
1.40001
1.40001
1.40001
1.40001
1.40001
1.40001
1.40001
1.40001
1.40001
1.40001
1.40001
1.40001
1.40001
1.40001
1.40001
1.40001
1.40001
1.40001
1.40001
1.40001
1.40001
1.40001
1.40001
1.40001
1.40001
1.40001
1.40001
1.40001
1.40001
1.40001
1.40001
1.40001
1.40001
1.40001
1.40001
1.40001
1.40001
1.40001
1.40001
1.40001
1.40001
1.40001
1.4
1.40074
2.4434
4.96381
5.28064
5.27711
5.28028
5.28127
5.27961
5.27349
5.26629
5.25801
5.24527
5.22961
5.21315
5.1972
5.18043
5.16221
5.14039
5.11669
5.09157
5.0646
5.03485
5.00239
4.96392
4.91673
4.86046
4.798
4.73123
4.6595
4.58248
4.49778
4.40409
4.2943
4.17204
4.02517
3.86418
3.69187
3.50093
3.30632
1.40001
1.40001
1.40001
1.40001
1.40001
1.40001
1.40001
1.40001
1.40001
1.40001
1.40001
1.40001
1.40001
1.40001
1.40001
1.40001
1.40001
1.40001
1.40001
1.40001
1.40001
1.40001
1.40001
1.40001
1.40001
1.40001
1.40001
1.40001
1.40001
1.40001
1.40001
1.40001
1.40001
1.40001
1.40001
1.40001
1.40001
1.40001
1.40001
1.40001
1.40001
1.40001
1.40001
1.40001
1.40001
1.40001
1.40001
1.40001
1.40001
1.40001
1.40001
1.40001
1.40001
1.40001
1.40001
1.40001
1.40001
1.40001
1.47054
3.63447
5.23149
5.26806
5.26561
5.26159
5.25717
5.25193
5.24487
5.23483
5.2196
5.20071
5.17945
5.15748
5.1369
5.11594
5.09112
5.06402
5.03492
5.00532
4.97429
4.9416
4.90333
4.85617
4.7995
4.73607
4.668
4.59498
4.51684
4.43081
4.33931
4.23315
4.12198
3.99083
3.84979
3.69868
3.53426
3.36587
1.40001
1.40001
1.40001
1.40001
1.40001
1.40001
1.40001
1.40001
1.40001
1.40001
1.40001
1.40001
1.40001
1.40001
1.40001
1.40001
1.40001
1.40001
1.40001
1.40001
1.40001
1.40001
1.40001
1.40001
1.40001
1.40001
1.40001
1.40001
1.40001
1.40001
1.40001
1.40001
1.40001
1.40001
1.40001
1.40001
1.40001
1.40001
1.40001
1.40001
1.40001
1.40001
1.40001
1.40001
1.40001
1.40001
1.40001
1.40001
1.40001
1.40001
1.40001
1.40001
1.40001
1.40001
1.40001
1.40001
1.40001
1.40001
1.40023
1.8353
4.61817
5.29065
5.26569
5.2484
5.23539
5.22807
5.22196
5.21229
5.19665
5.1754
5.15184
5.12599
5.10223
5.07979
5.05342
5.02474
4.99197
4.95795
4.92306
4.88727
4.84755
4.8002
4.7436
4.68021
4.61179
4.53869
4.46181
4.37753
4.28907
4.1896
4.08675
3.96766
3.8436
3.70698
3.56561
3.4154
1.40001
1.40001
1.40001
1.40001
1.40001
1.40001
1.40001
1.40001
1.40001
1.40001
1.40001
1.40001
1.40001
1.40001
1.40001
1.40001
1.40001
1.40001
1.40001
1.40001
1.40001
1.40001
1.40001
1.40001
1.40001
1.40001
1.40001
1.40001
1.40001
1.40001
1.40001
1.40001
1.40001
1.40001
1.40001
1.40001
1.40001
1.40001
1.40001
1.40001
1.40001
1.40001
1.40001
1.40001
1.40001
1.40001
1.40001
1.40001
1.40001
1.40001
1.40001
1.40001
1.40001
1.40001
1.40001
1.40001
1.40001
1.40001
1.40001
1.41033
2.91961
5.06976
5.22016
5.19736
5.19072
5.18651
5.18262
5.17596
5.16062
5.13924
5.11749
5.09254
5.06628
5.04146
5.01515
4.98614
4.95208
4.91535
4.87784
4.83938
4.79837
4.75126
4.69514
4.63374
4.56622
4.49306
4.4168
4.3352
4.25012
4.15854
4.06126
3.95336
3.84188
3.71718
3.59497
3.46013
1.40001
1.40001
1.40001
1.40001
1.40001
1.40001
1.40001
1.40001
1.40001
1.40001
1.40001
1.40001
1.40001
1.40001
1.40001
1.40001
1.40001
1.40001
1.40001
1.40001
1.40001
1.40001
1.40001
1.40001
1.40001
1.40001
1.40001
1.40001
1.40001
1.40001
1.40001
1.40001
1.40001
1.40001
1.40001
1.40001
1.40001
1.40001
1.40001
1.40001
1.40001
1.40001
1.40001
1.40001
1.40001
1.40001
1.40001
1.40001
1.40001
1.40001
1.40001
1.40001
1.40001
1.40001
1.40001
1.40001
1.40001
1.40001
1.40001
1.40001
1.54237
3.76793
5.14997
5.16742
5.16747
5.1689
5.16811
5.16055
5.14447
5.1204
5.09701
5.06997
5.0402
5.01055
4.9823
4.95318
4.91865
4.88149
4.84296
4.80224
4.75748
4.70814
4.65132
4.59155
4.5269
4.45601
4.38186
4.30353
4.22117
4.13543
4.04222
3.94372
3.84143
3.72967
3.62119
3.50076
1.40001
1.40001
1.40001
1.40001
1.40001
1.40001
1.40001
1.40001
1.40001
1.40001
1.40001
1.40001
1.40001
1.40001
1.40001
1.40001
1.40001
1.40001
1.40001
1.40001
1.40001
1.40001
1.40001
1.40001
1.40001
1.40001
1.40001
1.40001
1.40001
1.40001
1.40001
1.40001
1.40001
1.40001
1.40001
1.40001
1.40001
1.40001
1.40001
1.40001
1.40001
1.40001
1.40001
1.40001
1.40001
1.40001
1.40001
1.40001
1.40001
1.40001
1.40001
1.40001
1.40001
1.40001
1.40001
1.40001
1.40001
1.40001
1.40001
1.40001
1.40103
1.77628
4.42573
5.19788
5.18043
5.16865
5.15673
5.14486
5.12598
5.1024
5.07738
5.04821
5.01558
4.98201
4.94934
4.91842
4.88448
4.84868
4.81227
4.77253
4.72484
4.67202
4.61387
4.55368
4.49297
4.42667
4.35607
4.28123
4.20186
4.11985
4.03024
3.93881
3.84412
3.74307
3.64448
3.53656
1.40001
1.40001
1.40001
1.40001
1.40001
1.40001
1.40001
1.40001
1.40001
1.40001
1.40001
1.40001
1.40001
1.40001
1.40001
1.40001
1.40001
1.40001
1.40001
1.40001
1.40001
1.40001
1.40001
1.40001
1.40001
1.40001
1.40001
1.40001
1.40001
1.40001
1.40001
1.40001
1.40001
1.40001
1.40001
1.40001
1.40001
1.40001
1.40001
1.40001
1.40001
1.40001
1.40001
1.40001
1.40001
1.40001
1.40001
1.40001
1.40001
1.40001
1.40001
1.40001
1.40001
1.40001
1.40001
1.40001
1.40001
1.40001
1.40001
1.40001
1.40001
1.40778
2.41242
4.89334
5.19871
5.16805
5.15253
5.12904
5.10703
5.0813
5.05399
5.02353
4.99075
4.95645
4.92094
4.88581
4.85055
4.81661
4.78257
4.74399
4.69643
4.64153
4.58168
4.52017
4.46093
4.39943
4.3343
4.2648
4.18985
4.11164
4.02602
3.93904
3.85001
3.75544
3.66413
3.56514
1.40001
1.40001
1.40001
1.40001
1.40001
1.40001
1.40001
1.40001
1.40001
1.40001
1.40001
1.40001
1.40001
1.40001
1.40001
1.40001
1.40001
1.40001
1.40001
1.40001
1.40001
1.40001
1.40001
1.40001
1.40001
1.40001
1.40001
1.40001
1.40001
1.40001
1.40001
1.40001
1.40001
1.40001
1.40001
1.40001
1.40001
1.40001
1.40001
1.40001
1.40001
1.40001
1.40001
1.40001
1.40001
1.40001
1.40001
1.40001
1.40001
1.40001
1.40001
1.40001
1.40001
1.40001
1.40001
1.40001
1.40001
1.40001
1.40001
1.40001
1.40001
1.40002
1.45724
3.15405
5.07811
5.15015
5.12755
5.11213
5.08875
5.063
5.0323
5.00091
4.96935
4.93562
4.89994
4.86246
4.82498
4.79168
4.75702
4.71834
4.67172
4.61662
4.55688
4.49603
4.43676
4.37659
4.31493
4.24989
4.1798
4.10712
4.0267
3.94411
3.85988
3.76987
3.68338
3.5903
1.40001
1.40001
1.40001
1.40001
1.40001
1.40001
1.40001
1.40001
1.40001
1.40001
1.40001
1.40001
1.40001
1.40001
1.40001
1.40001
1.40001
1.40001
1.40001
1.40001
1.40001
1.40001
1.40001
1.40001
1.40001
1.40001
1.40001
1.40001
1.40001
1.40001
1.40001
1.40001
1.40001
1.40001
1.40001
1.40001
1.40001
1.40001
1.40001
1.40001
1.40001
1.40001
1.40001
1.40001
1.40001
1.40001
1.40001
1.40001
1.40001
1.40001
1.40001
1.40001
1.40001
1.40001
1.40001
1.40001
1.40001
1.40001
1.40001
1.40001
1.40001
1.40001
1.40024
1.58145
3.675
5.10062
5.10098
5.08268
5.06877
5.0463
5.01758
4.98598
4.95469
4.92051
4.88434
4.8466
4.80777
4.77195
4.73652
4.69703
4.65051
4.59629
4.53777
4.47876
4.41982
4.35978
4.29872
4.23575
4.17056
4.10443
4.0304
3.95401
3.87317
3.78721
3.70366
3.61545
1.40001
1.40001
1.40001
1.40001
1.40001
1.40001
1.40001
1.40001
1.40001
1.40001
1.40001
1.40001
1.40001
1.40001
1.40001
1.40001
1.40001
1.40001
1.40001
1.40001
1.40001
1.40001
1.40001
1.40001
1.40001
1.40001
1.40001
1.40001
1.40001
1.40001
1.40001
1.40001
1.40001
1.40001
1.40001
1.40001
1.40001
1.40001
1.40001
1.40001
1.40001
1.40001
1.40001
1.40001
1.40001
1.40001
1.40001
1.40001
1.40001
1.40001
1.40001
1.40001
1.40001
1.40001
1.40001
1.40001
1.40001
1.40001
1.40001
1.40001
1.40001
1.40001
1.40001
1.40175
1.732
4.04251
5.07349
5.06529
5.04721
5.02578
4.99944
4.97044
4.94095
4.90884
4.87419
4.83722
4.79847
4.76003
4.72179
4.68067
4.63322
4.57955
4.52295
4.46598
4.40833
4.349
4.28773
4.22441
4.16204
4.10098
4.03424
3.96421
3.88803
3.8071
3.72659
3.64284
1.40001
1.40001
1.40001
1.40001
1.40001
1.40001
1.40001
1.40001
1.40001
1.40001
1.40001
1.40001
1.40001
1.40001
1.40001
1.40001
1.40001
1.40001
1.40001
1.40001
1.40001
1.40001
1.40001
1.40001
1.40001
1.40001
1.40001
1.40001
1.40001
1.40001
1.40001
1.40001
1.40001
1.40001
1.40001
1.40001
1.40001
1.40001
1.40001
1.40001
1.40001
1.40001
1.40001
1.40001
1.40001
1.40001
1.40001
1.40001
1.40001
1.40001
1.40001
1.40001
1.40001
1.40001
1.40001
1.40001
1.40001
1.40001
1.40001
1.40001
1.40001
1.40001
1.40001
1.40001
1.40578
1.89662
4.31378
5.06443
5.04572
5.01356
4.98225
4.9538
4.92641
4.89799
4.86684
4.83234
4.7944
4.75436
4.71314
4.66955
4.62156
4.56909
4.51425
4.45804
4.40057
4.34115
4.27915
4.21566
4.15572
4.09793
4.03691
3.97238
3.90175
3.82659
3.7504
3.67186
1.40001
1.40001
1.40001
1.40001
1.40001
1.40001
1.40001
1.40001
1.40001
1.40001
1.40001
1.40001
1.40001
1.40001
1.40001
1.40001
1.40001
1.40001
1.40001
1.40001
1.40001
1.40001
1.40001
1.40001
1.40001
1.40001
1.40001
1.40001
1.40001
1.40001
1.40001
1.40001
1.40001
1.40001
1.40001
1.40001
1.40001
1.40001
1.40001
1.40001
1.40001
1.40001
1.40001
1.40001
1.40001
1.40001
1.40001
1.40001
1.40001
1.40001
1.40001
1.40001
1.40001
1.40001
1.40001
1.40001
1.40001
1.40001
1.40001
1.40001
1.40001
1.40001
1.40001
1.40001
1.40002
1.41304
2.06548
4.50427
5.05886
5.01976
4.97934
4.9423
4.91176
4.88315
4.85453
4.82397
4.78945
4.75102
4.70919
4.66432
4.61617
4.56516
4.51181
4.45602
4.39803
4.33776
4.27506
4.21154
4.15218
4.0959
4.03891
3.97906
3.91395
3.84488
3.77356
3.7001
1.40001
1.40001
1.40001
1.40001
1.40001
1.40001
1.40001
1.40001
1.40001
1.40001
1.40001
1.40001
1.40001
1.40001
1.40001
1.40001
1.40001
1.40001
1.40001
1.40001
1.40001
1.40001
1.40001
1.40001
1.40001
1.40001
1.40001
1.40001
1.40001
1.40001
1.40001
1.40001
1.40001
1.40001
1.40001
1.40001
1.40001
1.40001
1.40001
1.40001
1.40001
1.40001
1.40001
1.40001
1.40001
1.40001
1.40001
1.40001
1.40001
1.40001
1.40001
1.40001
1.40001
1.40001
1.40001
1.40001
1.40001
1.40001
1.40001
1.40001
1.40001
1.40001
1.40001
1.40001
1.40001
1.40004
1.42359
2.22136
4.62088
5.03629
4.99305
4.95195
4.91209
4.87566
4.84242
4.81091
4.77833
4.7428
4.70311
4.65963
4.61323
4.56424
4.5127
4.45838
4.40112
4.34114
4.27963
4.21822
4.15796
4.09967
4.04334
3.98622
3.92485
3.86102
3.79433
3.72557
1.40001
1.40001
1.40001
1.40001
1.40001
1.40001
1.40001
1.40001
1.40001
1.40001
1.40001
1.40001
1.40001
1.40001
1.40001
1.40001
1.40001
1.40001
1.40001
1.40001
1.40001
1.40001
1.40001
1.40001
1.40001
1.40001
1.40001
1.40001
1.40001
1.40001
1.40001
1.40001
1.40001
1.40001
1.40001
1.40001
1.40001
1.40001
1.40001
1.40001
1.40001
1.40001
1.40001
1.40001
1.40001
1.40001
1.40001
1.40001
1.40001
1.40001
1.40001
1.40001
1.40001
1.40001
1.40001
1.40001
1.40001
1.40001
1.40001
1.40001
1.40001
1.40001
1.40001
1.40001
1.40001
1.40001
1.40009
1.43612
2.35746
4.65339
5.00666
4.9683
4.92697
4.88397
4.84489
4.80614
4.76953
4.73318
4.69486
4.65411
4.61087
4.56468
4.5153
4.46283
4.40765
4.34979
4.29043
4.2313
4.17154
4.11191
4.05463
3.99791
3.93772
3.87694
3.81384
3.749
1.40001
1.40001
1.40001
1.40001
1.40001
1.40001
1.40001
1.40001
1.40001
1.40001
1.40001
1.40001
1.40001
1.40001
1.40001
1.40001
1.40001
1.40001
1.40001
1.40001
1.40001
1.40001
1.40001
1.40001
1.40001
1.40001
1.40001
1.40001
1.40001
1.40001
1.40001
1.40001
1.40001
1.40001
1.40001
1.40001
1.40001
1.40001
1.40001
1.40001
1.40001
1.40001
1.40001
1.40001
1.40001
1.40001
1.40001
1.40001
1.40001
1.40001
1.40001
1.40001
1.40001
1.40001
1.40001
1.40001
1.40001
1.40001
1.40001
1.40001
1.40001
1.40001
1.40001
1.40001
1.40001
1.40001
1.40001
1.40016
1.44916
2.418
4.64603
4.97315
4.94022
4.89957
4.85511
4.81232
4.77179
4.73044
4.68952
4.64942
4.60838
4.56487
4.51816
4.46852
4.41667
4.36256
4.30627
4.24886
4.18971
4.12892
4.0696
4.01243
3.95307
3.89415
3.83437
3.77322
1.40001
1.40001
1.40001
1.40001
1.40001
1.40001
1.40001
1.40001
1.40001
1.40001
1.40001
1.40001
1.40001
1.40001
1.40001
1.40001
1.40001
1.40001
1.40001
1.40001
1.40001
1.40001
1.40001
1.40001
1.40001
1.40001
1.40001
1.40001
1.40001
1.40001
1.40001
1.40001
1.40001
1.40001
1.40001
1.40001
1.40001
1.40001
1.40001
1.40001
1.40001
1.40001
1.40001
1.40001
1.40001
1.40001
1.40001
1.40001
1.40001
1.40001
1.40001
1.40001
1.40001
1.40001
1.40001
1.40001
1.40001
1.40001
1.40001
1.40001
1.40001
1.40001
1.40001
1.40001
1.40001
1.40001
1.40001
1.40001
1.40026
1.45654
2.42144
4.5949
4.93741
4.91167
4.87067
4.82785
4.78177
4.73718
4.69334
4.65056
4.60799
4.56468
4.51969
4.47322
4.42584
4.37685
4.32476
4.26952
4.21152
4.15127
4.09126
4.03304
3.97321
3.91367
3.85631
3.79802
1.40001
1.40001
1.40001
1.40001
1.40001
1.40001
1.40001
1.40001
1.40001
1.40001
1.40001
1.40001
1.40001
1.40001
1.40001
1.40001
1.40001
1.40001
1.40001
1.40001
1.40001
1.40001
1.40001
1.40001
1.40001
1.40001
1.40001
1.40001
1.40001
1.40001
1.40001
1.40001
1.40001
1.40001
1.40001
1.40001
1.40001