/*--------------------------------*- C++ -*----------------------------------*\
  =========                 |
  \\      /  F ield         | OpenFOAM: The Open Source CFD Toolbox
   \\    /   O peration     | Website:  https://openfoam.org
    \\  /    A nd           | Version:  7
     \\/     M anipulation  |
\*---------------------------------------------------------------------------*/
FoamFile
{
    version     2.0;
    format      ascii;
    class       volVectorField;
    location    "1.3";
    object      U;
}
// * * * * * * * * * * * * * * * * * * * * * * * * * * * * * * * * * * * * * //

dimensions      [0 1 -1 0 0 0 0];

internalField   nonuniform List<vector> 
19968
(
(3 -1.07615e-16 0)
(3 -1.1181e-16 0)
(3 -2.18845e-16 0)
(3 -5.4057e-16 0)
(3 -3.09817e-16 0)
(3 -3.16984e-16 0)
(3 -2.10084e-16 0)
(3 2.8445e-16 0)
(3 -1.09755e-16 0)
(3 -8.47426e-17 0)
(3 -3.50035e-16 0)
(3 -2.67421e-16 0)
(3 -7.09378e-16 0)
(3 -8.90739e-16 0)
(3 -1.14641e-15 0)
(3 -1.24183e-15 0)
(3 -1.30135e-15 0)
(3 -1.26215e-15 0)
(3 -8.07174e-16 0)
(3 -5.11269e-16 0)
(3 -2.66415e-17 0)
(3 -1.08523e-16 0)
(3 7.37872e-17 0)
(3 1.1506e-16 0)
(3 2.54668e-16 0)
(3 9.08926e-17 0)
(3 -3.32737e-16 0)
(3 5.26277e-16 0)
(3 9.14805e-16 0)
(3 1.46209e-15 0)
(3 1.08664e-15 0)
(3 6.30959e-16 0)
(3 2.07645e-16 0)
(3 3.48923e-16 0)
(3 -1.87973e-17 0)
(3 -6.40541e-16 0)
(3 -8.85414e-16 0)
(3 -4.81991e-16 0)
(3 -3.43091e-16 0)
(3 -2.61979e-16 0)
(3 1.50904e-16 0)
(3 -1.42706e-16 0)
(3 -3.68361e-16 0)
(3 -6.4935e-17 0)
(3 2.53745e-16 0)
(3 1.5834e-16 0)
(3 2.4393e-16 0)
(3 3.58683e-16 0)
(3 9.7385e-16 0)
(3 1.17693e-15 0)
(3 8.49875e-16 0)
(3 8.7655e-16 0)
(1.4353 0.00568415 0)
(0.762035 0.00499873 0)
(0.718577 0.0127597 0)
(0.697164 0.00917042 0)
(0.679829 0.00713651 0)
(0.666827 0.00643068 0)
(0.655495 0.00666159 0)
(0.643563 0.00772185 0)
(0.62964 0.00940988 0)
(0.61269 0.0116269 0)
(0.594269 0.0134485 0)
(0.57575 0.0131939 0)
(0.558873 0.0114477 0)
(0.542847 0.0101889 0)
(0.52702 0.0100476 0)
(0.509504 0.0100709 0)
(0.491576 0.00966401 0)
(0.475058 0.00876764 0)
(0.460793 0.00787974 0)
(0.44799 0.00811935 0)
(0.434201 0.00920148 0)
(0.418408 0.0108623 0)
(0.399763 0.0120124 0)
(0.379405 0.0117573 0)
(0.35965 0.0108259 0)
(0.342228 0.0103875 0)
(0.326284 0.0106596 0)
(0.312281 0.0110993 0)
(0.297993 0.011421 0)
(0.281996 0.0115743 0)
(0.263404 0.0116596 0)
(0.243693 0.0117739 0)
(0.225045 0.0119666 0)
(0.207527 0.0122153 0)
(0.191803 0.012468 0)
(0.175062 0.0127798 0)
(0.156338 0.0129491 0)
(0.135657 0.0132249 0)
(0.112983 0.0134952 0)
(0.0915818 0.0138975 0)
(0.0708844 0.0143318 0)
(0.0506308 0.0147915 0)
(0.0301842 0.0149522 0)
(0.00976536 0.0155101 0)
(3 -2.42037e-16 0)
(3 -2.19015e-16 0)
(3 -3.60497e-16 0)
(3 -4.63573e-16 0)
(3 -3.60883e-16 0)
(3 -5.56893e-16 0)
(3 -3.28894e-16 0)
(3 1.03201e-16 0)
(3 6.29704e-16 0)
(3 6.83495e-16 0)
(3 5.27761e-16 0)
(3 -6.07033e-17 0)
(3 -8.05135e-16 0)
(3 -7.1662e-16 0)
(3 -5.63345e-16 0)
(3 3.52887e-17 0)
(3 7.37187e-16 0)
(3 6.56062e-16 0)
(3 6.17165e-16 0)
(3 -2.04479e-17 0)
(3 9.70568e-16 0)
(3 1.70686e-15 0)
(3 1.07835e-15 0)
(3 -1.17697e-16 0)
(3 -6.78207e-16 0)
(3 -1.03927e-15 0)
(3 -1.43692e-15 0)
(3 4.00178e-16 0)
(3 1.33006e-15 0)
(3 2.07424e-15 0)
(3 2.09645e-15 0)
(3 3.63269e-16 0)
(3 -7.99147e-16 0)
(3 6.13657e-16 0)
(3 3.10838e-16 0)
(3 -2.38768e-17 0)
(3 -8.78323e-17 0)
(3 5.71665e-16 0)
(3 8.61146e-16 0)
(3 1.0843e-15 0)
(3 1.00557e-15 0)
(3 2.5811e-16 0)
(3 -1.84417e-16 0)
(3 2.1368e-16 0)
(3 5.13027e-16 0)
(3 3.68528e-16 0)
(3 5.68562e-16 0)
(3 2.25179e-16 0)
(3 4.73148e-16 0)
(3 3.54049e-16 0)
(3 4.87338e-17 0)
(3 3.81374e-16 0)
(1.45187 0.0277561 0)
(0.759663 0.0241628 0)
(0.714463 0.0362975 0)
(0.694987 0.028666 0)
(0.677107 0.0231685 0)
(0.663111 0.0200857 0)
(0.650612 0.0200531 0)
(0.637568 0.0230627 0)
(0.622544 0.0282526 0)
(0.604731 0.0344332 0)
(0.586188 0.0387071 0)
(0.568479 0.0374591 0)
(0.553113 0.0329339 0)
(0.538181 0.0297014 0)
(0.523231 0.0295345 0)
(0.50662 0.0298264 0)
(0.489273 0.029047 0)
(0.472941 0.0271106 0)
(0.458086 0.0251614 0)
(0.44407 0.025886 0)
(0.429078 0.028827 0)
(0.412561 0.0331292 0)
(0.393782 0.035802 0)
(0.374052 0.0347243 0)
(0.35526 0.0322927 0)
(0.338309 0.0314964 0)
(0.322216 0.0325717 0)
(0.307777 0.0340066 0)
(0.29294 0.0348154 0)
(0.276722 0.0350682 0)
(0.258432 0.0351589 0)
(0.239505 0.0355895 0)
(0.221472 0.0364113 0)
(0.204261 0.0373256 0)
(0.188517 0.038119 0)
(0.171712 0.0388311 0)
(0.153168 0.0392175 0)
(0.132967 0.0398972 0)
(0.110814 0.0409658 0)
(0.0899897 0.0424471 0)
(0.0695757 0.0439805 0)
(0.0495639 0.0455331 0)
(0.0293563 0.04614 0)
(0.00953513 0.0476729 0)
(3 -6.50638e-17 0)
(3 2.64252e-17 0)
(3 5.2128e-16 0)
(3 1.03565e-15 0)
(3 9.06807e-16 0)
(3 7.05856e-16 0)
(3 1.80667e-16 0)
(3 3.29855e-16 0)
(3 7.97674e-16 0)
(3 7.82955e-16 0)
(3 6.14308e-16 0)
(3 1.6305e-16 0)
(3 -7.6832e-17 0)
(3 -1.97064e-17 0)
(3 1.38712e-16 0)
(3 7.28003e-16 0)
(3 1.24911e-15 0)
(3 1.25074e-15 0)
(3 1.1173e-15 0)
(3 9.9668e-16 0)
(3 1.66949e-15 0)
(3 2.62097e-15 0)
(3 3.04447e-15 0)
(3 1.11005e-15 0)
(3 -6.39581e-16 0)
(3 -1.2762e-15 0)
(3 -6.65788e-16 0)
(3 -3.83575e-16 0)
(3 9.08744e-17 0)
(3 2.6102e-16 0)
(3 3.95646e-16 0)
(3 3.42213e-16 0)
(3 2.4742e-16 0)
(3 -8.51557e-16 0)
(3 -1.28509e-15 0)
(3 -1.50839e-15 0)
(3 -1.50808e-15 0)
(3 -1.19077e-15 0)
(3 -5.28107e-16 0)
(3 -6.06643e-17 0)
(3 4.41276e-16 0)
(3 1.14869e-15 0)
(3 1.8187e-15 0)
(3 1.36314e-15 0)
(3 8.08735e-16 0)
(3 7.43589e-16 0)
(3 7.74884e-16 0)
(3 6.19279e-16 0)
(3 -3.23642e-16 0)
(3 -8.22204e-16 0)
(3 -3.88339e-16 0)
(3 3.25783e-16 0)
(1.49713 0.0495661 0)
(0.764026 0.0453097 0)
(0.716154 0.0575583 0)
(0.699356 0.0479881 0)
(0.681635 0.0410881 0)
(0.666504 0.0370708 0)
(0.65191 0.0375019 0)
(0.636733 0.0428 0)
(0.61983 0.0515166 0)
(0.600834 0.0608752 0)
(0.581768 0.0655301 0)
(0.56479 0.0620838 0)
(0.550911 0.054818 0)
(0.537049 0.0497215 0)
(0.522886 0.0494083 0)
(0.507226 0.0497714 0)
(0.490562 0.0486533 0)
(0.474467 0.0462437 0)
(0.4591 0.0441858 0)
(0.443728 0.0460771 0)
(0.427205 0.0511335 0)
(0.409581 0.0578336 0)
(0.390116 0.0614455 0)
(0.3707 0.0592613 0)
(0.352612 0.0553537 0)
(0.335853 0.0541165 0)
(0.319294 0.0557519 0)
(0.303992 0.0579062 0)
(0.288121 0.0591238 0)
(0.271246 0.0595536 0)
(0.253165 0.0599204 0)
(0.234885 0.0606753 0)
(0.217279 0.0619325 0)
(0.199964 0.0632212 0)
(0.183656 0.0643284 0)
(0.16642 0.0653928 0)
(0.147985 0.0661197 0)
(0.128266 0.0671969 0)
(0.107254 0.0690133 0)
(0.0869625 0.0714159 0)
(0.0669278 0.0739606 0)
(0.0473709 0.0766714 0)
(0.02768 0.0778196 0)
(0.00904683 0.0804517 0)
(3 5.85541e-17 0)
(3 2.0115e-16 0)
(3 9.91987e-16 0)
(3 1.59981e-15 0)
(3 1.51325e-15 0)
(3 1.21045e-15 0)
(3 7.92794e-16 0)
(3 6.47224e-16 0)
(3 4.39081e-16 0)
(3 3.67427e-16 0)
(3 3.65609e-16 0)
(3 7.64127e-16 0)
(3 9.98056e-16 0)
(3 8.94744e-16 0)
(3 8.20168e-16 0)
(3 8.33133e-16 0)
(3 1.02206e-15 0)
(3 8.65102e-16 0)
(3 1.15182e-15 0)
(3 2.54833e-15 0)
(3 2.65742e-15 0)
(3 1.60628e-15 0)
(3 1.91474e-15 0)
(3 1.82173e-15 0)
(3 1.12066e-15 0)
(3 8.79232e-16 0)
(3 8.71733e-16 0)
(3 7.47949e-16 0)
(3 -1.83617e-16 0)
(3 -1.14705e-15 0)
(3 -8.39209e-16 0)
(3 -8.58311e-17 0)
(3 3.11738e-16 0)
(3 -1.0003e-15 0)
(3 -1.45834e-15 0)
(3 -2.7494e-15 0)
(3 -2.51753e-15 0)
(3 -1.5174e-15 0)
(3 -3.58549e-16 0)
(3 -2.50923e-16 0)
(3 -3.22667e-16 0)
(3 7.98751e-16 0)
(3 7.07e-16 0)
(3 3.33273e-16 0)
(3 6.40174e-16 0)
(3 8.74491e-16 0)
(3 1.20217e-15 0)
(3 1.52645e-15 0)
(3 1.39892e-15 0)
(3 7.18496e-16 0)
(3 2.75912e-16 0)
(3 -1.2139e-15 0)
(1.57119 0.0711121 0)
(0.769974 0.0682994 0)
(0.718278 0.0764535 0)
(0.703888 0.0664237 0)
(0.686529 0.0602699 0)
(0.6708 0.056801 0)
(0.654541 0.0585396 0)
(0.637409 0.0665763 0)
(0.618702 0.0786003 0)
(0.59898 0.0894025 0)
(0.580336 0.0920372 0)
(0.565276 0.0857523 0)
(0.553217 0.0762298 0)
(0.540652 0.0696212 0)
(0.527221 0.0691627 0)
(0.512426 0.0695165 0)
(0.496377 0.0682719 0)
(0.480288 0.0661279 0)
(0.464368 0.0648784 0)
(0.447712 0.0686015 0)
(0.429758 0.0760675 0)
(0.411082 0.0849408 0)
(0.390841 0.088976 0)
(0.371753 0.0855714 0)
(0.354217 0.0802922 0)
(0.337377 0.0786431 0)
(0.320296 0.0808342 0)
(0.303802 0.0836553 0)
(0.286755 0.0853296 0)
(0.269071 0.0861026 0)
(0.25104 0.0867733 0)
(0.233182 0.0878224 0)
(0.215693 0.0893785 0)
(0.197937 0.0909104 0)
(0.180456 0.092144 0)
(0.162273 0.0933432 0)
(0.143581 0.0943546 0)
(0.123994 0.095617 0)
(0.103933 0.0979406 0)
(0.0839291 0.101016 0)
(0.0640753 0.1044 0)
(0.0449036 0.108222 0)
(0.0257162 0.109899 0)
(0.00850403 0.113588 0)
(3 7.77678e-17 0)
(3 -2.48842e-17 0)
(3 -5.65944e-16 0)
(3 -6.87048e-16 0)
(3 -4.78983e-16 0)
(3 -4.6385e-16 0)
(3 -3.68367e-16 0)
(3 -6.49566e-17 0)
(3 7.85384e-17 0)
(3 3.58627e-18 0)
(3 3.68561e-17 0)
(3 3.00072e-16 0)
(3 6.86812e-16 0)
(3 9.19053e-16 0)
(3 9.17557e-16 0)
(3 9.35995e-16 0)
(3 9.78345e-16 0)
(3 7.94857e-16 0)
(3 8.97648e-16 0)
(3 1.26223e-15 0)
(3 1.63968e-15 0)
(3 1.77732e-15 0)
(3 1.34011e-15 0)
(3 1.29016e-15 0)
(3 1.53234e-15 0)
(3 1.92248e-15 0)
(3 1.94146e-15 0)
(3 1.26307e-15 0)
(3 2.89172e-16 0)
(3 -5.80691e-16 0)
(3 6.44863e-17 0)
(3 2.99395e-16 0)
(3 3.64805e-16 0)
(3 3.138e-16 0)
(3 -2.384e-16 0)
(3 -5.94739e-16 0)
(3 -1.71904e-16 0)
(3 -8.46606e-17 0)
(3 2.04725e-16 0)
(3 6.78958e-16 0)
(3 8.87476e-16 0)
(3 3.39762e-16 0)
(3 5.78301e-17 0)
(3 3.57513e-16 0)
(3 1.3606e-15 0)
(3 5.33932e-16 0)
(3 -4.83006e-16 0)
(3 -8.79154e-16 0)
(3 -1.01681e-15 0)
(3 -1.46863e-15 0)
(3 -4.63146e-16 0)
(3 1.48607e-15 0)
(1.68226 0.0932762 0)
(0.778362 0.0933989 0)
(0.721214 0.0939287 0)
(0.708375 0.0846973 0)
(0.690728 0.0809876 0)
(0.673785 0.0799418 0)
(0.65533 0.084363 0)
(0.635878 0.0955999 0)
(0.615596 0.10966 0)
(0.595779 0.118473 0)
(0.579045 0.116889 0)
(0.567125 0.107835 0)
(0.55724 0.0968507 0)
(0.546272 0.0895268 0)
(0.533691 0.0891772 0)
(0.519647 0.0897462 0)
(0.504105 0.0886924 0)
(0.48779 0.0875345 0)
(0.470976 0.0878012 0)
(0.453254 0.0937098 0)
(0.434091 0.103559 0)
(0.414574 0.114093 0)
(0.393742 0.118002 0)
(0.375086 0.113461 0)
(0.358064 0.106999 0)
(0.341247 0.104927 0)
(0.324024 0.107659 0)
(0.306527 0.111206 0)
(0.288576 0.113397 0)
(0.270238 0.11458 0)
(0.252322 0.11563 0)
(0.234848 0.117053 0)
(0.217294 0.118858 0)
(0.198973 0.120511 0)
(0.180043 0.121874 0)
(0.160771 0.123128 0)
(0.141488 0.124391 0)
(0.121947 0.125827 0)
(0.102333 0.128408 0)
(0.0822834 0.131879 0)
(0.0622392 0.135823 0)
(0.0431057 0.140542 0)
(0.0241142 0.142616 0)
(0.00814988 0.14721 0)
(3 8.55572e-17 0)
(3 1.53577e-16 0)
(3 -2.96898e-16 0)
(3 -1.06075e-15 0)
(3 -1.0048e-15 0)
(3 -3.91376e-16 0)
(3 -2.44557e-16 0)
(3 6.97829e-17 0)
(3 2.19908e-17 0)
(3 2.87955e-17 0)
(3 -4.29738e-16 0)
(3 -4.50522e-16 0)
(3 -3.47455e-16 0)
(3 3.45575e-17 0)
(3 4.30863e-16 0)
(3 6.00794e-17 0)
(3 -2.64408e-16 0)
(3 6.15552e-17 0)
(3 1.13646e-16 0)
(3 -4.62621e-16 0)
(3 -6.31398e-16 0)
(3 -4.39211e-16 0)
(3 -1.42736e-16 0)
(3 2.65616e-16 0)
(3 8.45001e-16 0)
(3 1.08257e-15 0)
(3 1.68022e-15 0)
(3 1.4872e-15 0)
(3 1.05154e-15 0)
(3 7.98687e-16 0)
(3 2.00262e-16 0)
(3 4.03705e-16 0)
(3 5.80609e-16 0)
(3 7.03338e-16 0)
(3 9.91767e-16 0)
(3 9.25337e-16 0)
(3 5.47796e-16 0)
(3 2.6466e-16 0)
(3 2.96935e-16 0)
(3 3.97184e-16 0)
(3 5.09804e-16 0)
(3 8.43156e-17 0)
(3 2.47824e-16 0)
(3 8.74808e-17 0)
(3 -8.66746e-18 0)
(3 7.37617e-17 0)
(3 -2.35008e-16 0)
(3 -8.26612e-16 0)
(3 -1.27061e-15 0)
(3 -2.98974e-17 0)
(3 1.04319e-15 0)
(3 -2.09492e-15 0)
(1.84372 0.115708 0)
(0.793119 0.120384 0)
(0.727082 0.110174 0)
(0.713086 0.105303 0)
(0.69373 0.105119 0)
(0.674414 0.108099 0)
(0.653039 0.115754 0)
(0.631797 0.129095 0)
(0.611625 0.14161 0)
(0.594222 0.144816 0)
(0.58192 0.138797 0)
(0.573882 0.127511 0)
(0.565552 0.116022 0)
(0.555107 0.109557 0)
(0.542665 0.110104 0)
(0.528519 0.111621 0)
(0.512591 0.111344 0)
(0.495542 0.111774 0)
(0.477194 0.114176 0)
(0.458289 0.122319 0)
(0.437885 0.134218 0)
(0.41753 0.145443 0)
(0.396432 0.148413 0)
(0.378231 0.142664 0)
(0.361793 0.135273 0)
(0.345143 0.132895 0)
(0.328198 0.136156 0)
(0.310466 0.140646 0)
(0.291844 0.143466 0)
(0.27335 0.145056 0)
(0.255719 0.14652 0)
(0.238608 0.14835 0)
(0.220894 0.150421 0)
(0.201975 0.152142 0)
(0.18188 0.153783 0)
(0.161435 0.155072 0)
(0.141508 0.156806 0)
(0.121876 0.1584 0)
(0.102354 0.161023 0)
(0.0820022 0.164676 0)
(0.0614752 0.16889 0)
(0.0420439 0.17424 0)
(0.022982 0.176578 0)
(0.00800259 0.181927 0)
(3 -6.75313e-17 0)
(3 -1.69907e-16 0)
(3 -2.47839e-16 0)
(3 -3.28764e-16 0)
(3 -3.42613e-16 0)
(3 -1.03395e-16 0)
(3 3.41453e-16 0)
(3 2.60174e-16 0)
(3 -1.17609e-17 0)
(3 -1.8892e-16 0)
(3 6.45825e-17 0)
(3 -1.74582e-16 0)
(3 5.29121e-17 0)
(3 9.61881e-16 0)
(3 1.38434e-15 0)
(3 1.27336e-15 0)
(3 1.26259e-15 0)
(3 5.01465e-16 0)
(3 -1.70049e-16 0)
(3 -1.06035e-15 0)
(3 -1.29965e-15 0)
(3 -1.26641e-15 0)
(3 -1.27303e-15 0)
(3 -9.67455e-16 0)
(3 -6.51326e-16 0)
(3 5.83368e-17 0)
(3 5.59399e-16 0)
(3 1.02942e-15 0)
(3 1.19333e-15 0)
(3 1.03629e-15 0)
(3 3.94438e-16 0)
(3 3.33942e-16 0)
(3 -1.815e-16 0)
(3 -3.81972e-16 0)
(3 4.80824e-16 0)
(3 1.26827e-15 0)
(3 9.52408e-16 0)
(3 9.67256e-17 0)
(3 -5.30118e-16 0)
(3 -5.38934e-16 0)
(3 -2.81251e-16 0)
(3 6.47163e-16 0)
(3 9.32462e-16 0)
(3 3.9928e-17 0)
(3 -4.83214e-16 0)
(3 -2.21303e-16 0)
(3 6.62415e-17 0)
(3 2.40525e-16 0)
(3 1.28285e-16 0)
(3 3.34779e-17 0)
(3 1.35979e-16 0)
(3 -1.75495e-15 0)
(2.07268 0.135531 0)
(0.820301 0.148976 0)
(0.731859 0.128767 0)
(0.7164 0.130762 0)
(0.694962 0.133849 0)
(0.67431 0.141062 0)
(0.652346 0.151143 0)
(0.632822 0.163206 0)
(0.616382 0.169146 0)
(0.604241 0.165336 0)
(0.59528 0.156083 0)
(0.588062 0.14423 0)
(0.57845 0.134874 0)
(0.56675 0.131424 0)
(0.553432 0.133469 0)
(0.538575 0.136248 0)
(0.521904 0.137091 0)
(0.503806 0.13948 0)
(0.484176 0.144414 0)
(0.464153 0.154625 0)
(0.443165 0.167977 0)
(0.422429 0.178539 0)
(0.401706 0.179626 0)
(0.384346 0.172458 0)
(0.368618 0.164327 0)
(0.352197 0.161871 0)
(0.335576 0.165677 0)
(0.317869 0.171379 0)
(0.298699 0.17519 0)
(0.279924 0.177353 0)
(0.262351 0.179322 0)
(0.24533 0.181559 0)
(0.227515 0.183903 0)
(0.207928 0.185841 0)
(0.186719 0.187899 0)
(0.165202 0.189388 0)
(0.144549 0.191715 0)
(0.124527 0.193743 0)
(0.104693 0.196315 0)
(0.0837229 0.200094 0)
(0.062374 0.204407 0)
(0.0422052 0.21017 0)
(0.0226857 0.212627 0)
(0.00814271 0.218556 0)
(3 -7.53978e-17 0)
(3 -2.18518e-16 0)
(3 -1.44869e-16 0)
(3 -1.15617e-16 0)
(3 -3.89687e-16 0)
(3 -3.98228e-16 0)
(3 -1.28876e-16 0)
(3 7.32795e-17 0)
(3 -2.74097e-16 0)
(3 -3.53401e-16 0)
(3 -3.72039e-16 0)
(3 -3.13664e-16 0)
(3 -6.35273e-17 0)
(3 5.00486e-16 0)
(3 2.91169e-16 0)
(3 4.28442e-16 0)
(3 4.72341e-16 0)
(3 3.45675e-16 0)
(3 -3.73922e-16 0)
(3 -9.51399e-16 0)
(3 -6.98953e-16 0)
(3 -3.10966e-16 0)
(3 -3.67008e-17 0)
(3 -1.14541e-16 0)
(3 -5.35926e-16 0)
(3 -9.35478e-16 0)
(3 -9.49593e-16 0)
(3 -3.15882e-16 0)
(3 2.02624e-16 0)
(3 4.80739e-16 0)
(3 6.85457e-16 0)
(3 5.03416e-16 0)
(3 -4.75353e-17 0)
(3 -3.05478e-16 0)
(3 -2.09261e-16 0)
(3 2.51315e-16 0)
(3 6.9517e-16 0)
(3 8.51087e-16 0)
(3 1.06875e-15 0)
(3 9.85868e-16 0)
(3 5.13266e-16 0)
(3 4.06801e-16 0)
(3 -1.9592e-16 0)
(3 -1.34888e-15 0)
(3 -1.59743e-15 0)
(3 -1.2855e-15 0)
(3 -8.33851e-16 0)
(3 -1.08232e-16 0)
(3 4.27095e-16 0)
(3 7.57857e-16 0)
(3 8.31554e-16 0)
(3 -5.8596e-16 0)
(2.39648 0.134966 0)
(0.873871 0.172843 0)
(0.737268 0.151486 0)
(0.721266 0.161534 0)
(0.698093 0.167048 0)
(0.677471 0.175488 0)
(0.658853 0.184348 0)
(0.643773 0.189503 0)
(0.633284 0.185523 0)
(0.623804 0.178613 0)
(0.614849 0.170803 0)
(0.604983 0.162978 0)
(0.592176 0.157655 0)
(0.578037 0.157471 0)
(0.562473 0.160729 0)
(0.546033 0.164374 0)
(0.528135 0.16646 0)
(0.508698 0.170958 0)
(0.48798 0.178664 0)
(0.467094 0.190745 0)
(0.445953 0.20447 0)
(0.425389 0.212819 0)
(0.405918 0.211255 0)
(0.390415 0.202625 0)
(0.376186 0.19408 0)
(0.360498 0.191903 0)
(0.344739 0.196466 0)
(0.327367 0.203767 0)
(0.307684 0.209026 0)
(0.288293 0.212011 0)
(0.27038 0.214595 0)
(0.253109 0.21738 0)
(0.234932 0.220047 0)
(0.214615 0.222312 0)
(0.192414 0.224852 0)
(0.169914 0.226701 0)
(0.148395 0.229641 0)
(0.127783 0.232272 0)
(0.10729 0.234819 0)
(0.0855984 0.238722 0)
(0.0634794 0.243059 0)
(0.0426429 0.249146 0)
(0.0227668 0.251616 0)
(0.00838091 0.257962 0)
(3 1.0451e-16 0)
(3 2.34785e-17 0)
(3 -2.51304e-16 0)
(3 -1.13748e-16 0)
(3 -2.89203e-16 0)
(3 -4.64284e-16 0)
(3 -6.53477e-16 0)
(3 -8.14185e-16 0)
(3 -1.20795e-15 0)
(3 -1.19727e-15 0)
(3 -1.17713e-15 0)
(3 -1.15253e-15 0)
(3 -1.14835e-15 0)
(3 -1.19084e-15 0)
(3 -1.62895e-15 0)
(3 -1.72708e-15 0)
(3 -1.4245e-15 0)
(3 -7.40167e-16 0)
(3 5.83792e-16 0)
(3 9.27207e-16 0)
(3 9.70528e-16 0)
(3 8.33533e-16 0)
(3 8.41549e-16 0)
(3 3.25315e-16 0)
(3 3.30654e-16 0)
(3 -2.59325e-16 0)
(3 -2.70908e-16 0)
(3 -1.08598e-16 0)
(3 4.06077e-16 0)
(3 8.48337e-16 0)
(3 1.26901e-15 0)
(3 1.42437e-15 0)
(3 1.72392e-15 0)
(3 1.78269e-15 0)
(3 1.24358e-15 0)
(3 7.622e-16 0)
(3 6.45785e-18 0)
(3 6.09021e-16 0)
(3 1.21543e-15 0)
(3 1.73768e-15 0)
(3 1.17299e-15 0)
(3 -9.26187e-16 0)
(3 -1.41552e-15 0)
(3 -1.67814e-15 0)
(3 -2.4292e-15 0)
(3 -2.41345e-15 0)
(3 -1.88163e-15 0)
(3 -1.29074e-15 0)
(3 -2.35278e-16 0)
(3 1.42022e-15 0)
(3 2.37288e-15 0)
(3 1.11026e-15 0)
(2.7302 0.13095 0)
(0.946649 0.218275 0)
(0.741584 0.18221 0)
(0.728624 0.193439 0)
(0.708775 0.200109 0)
(0.691052 0.205589 0)
(0.674774 0.207138 0)
(0.662076 0.203096 0)
(0.651746 0.198136 0)
(0.641415 0.194426 0)
(0.63046 0.191854 0)
(0.617995 0.189404 0)
(0.602575 0.187962 0)
(0.585832 0.190438 0)
(0.567331 0.193826 0)
(0.548198 0.197205 0)
(0.528105 0.199975 0)
(0.50707 0.206063 0)
(0.485839 0.215558 0)
(0.465559 0.228402 0)
(0.446463 0.240724 0)
(0.428731 0.245384 0)
(0.413178 0.24098 0)
(0.401175 0.231336 0)
(0.38878 0.223184 0)
(0.374017 0.221958 0)
(0.358856 0.228015 0)
(0.341234 0.237618 0)
(0.320662 0.245063 0)
(0.30007 0.24923 0)
(0.281251 0.252511 0)
(0.263421 0.25593 0)
(0.244636 0.258947 0)
(0.22379 0.261574 0)
(0.201068 0.264635 0)
(0.178009 0.267085 0)
(0.155588 0.270648 0)
(0.134127 0.274035 0)
(0.112396 0.276812 0)
(0.0895886 0.280992 0)
(0.0664641 0.285452 0)
(0.0447434 0.291973 0)
(0.024193 0.294536 0)
(0.00900044 0.301177 0)
(3 -1.22332e-17 0)
(3 -4.98124e-17 0)
(3 -1.31242e-16 0)
(3 -2.33421e-16 0)
(3 -7.24798e-18 0)
(3 2.92031e-17 0)
(3 -1.22669e-16 0)
(3 -2.39363e-16 0)
(3 -2.21855e-16 0)
(3 -3.71909e-16 0)
(3 -4.47508e-16 0)
(3 -4.73424e-16 0)
(3 -7.29211e-16 0)
(3 -1.31253e-15 0)
(3 -1.50646e-15 0)
(3 -1.29539e-15 0)
(3 -1.14834e-15 0)
(3 -1.15966e-15 0)
(3 -6.93881e-16 0)
(3 5.75185e-16 0)
(3 5.94693e-16 0)
(3 3.94157e-16 0)
(3 -4.7557e-17 0)
(3 -1.59853e-16 0)
(3 -1.05221e-16 0)
(3 3.85535e-17 0)
(3 6.14211e-17 0)
(3 3.82596e-16 0)
(3 7.32596e-16 0)
(3 1.03885e-15 0)
(3 1.21627e-15 0)
(3 1.59484e-15 0)
(3 1.6442e-15 0)
(3 1.15532e-15 0)
(3 2.33283e-16 0)
(3 -2.13212e-17 0)
(3 -2.01979e-16 0)
(3 -2.75505e-16 0)
(3 -1.27892e-16 0)
(3 -5.55465e-16 0)
(3 -8.80733e-16 0)
(3 -1.04865e-15 0)
(3 -8.3133e-16 0)
(3 -6.93272e-16 0)
(3 -4.37544e-16 0)
(3 -3.46427e-16 0)
(3 -4.8469e-16 0)
(3 5.00379e-16 0)
(3 1.13271e-15 0)
(3 1.52743e-15 0)
(3 2.30144e-15 0)
(3 1.83263e-15 0)
(2.99936 0.0141164 0)
(1.09172 0.248653 0)
(0.765337 0.199381 0)
(0.749401 0.217987 0)
(0.729381 0.229704 0)
(0.70998 0.233678 0)
(0.691975 0.231245 0)
(0.675496 0.225841 0)
(0.659674 0.221638 0)
(0.644406 0.220202 0)
(0.62938 0.220896 0)
(0.614382 0.222422 0)
(0.597766 0.223118 0)
(0.580878 0.226839 0)
(0.563243 0.229503 0)
(0.54578 0.232557 0)
(0.527594 0.236184 0)
(0.508916 0.243361 0)
(0.490321 0.252783 0)
(0.473508 0.264004 0)
(0.457778 0.272115 0)
(0.44356 0.271907 0)
(0.431065 0.26579 0)
(0.419755 0.257649 0)
(0.40706 0.25236 0)
(0.392083 0.253893 0)
(0.376009 0.26272 0)
(0.356773 0.275229 0)
(0.33486 0.285157 0)
(0.312428 0.290433 0)
(0.29198 0.294215 0)
(0.272894 0.29825 0)
(0.253141 0.301788 0)
(0.231846 0.304772 0)
(0.209119 0.308382 0)
(0.186125 0.311509 0)
(0.163088 0.315616 0)
(0.140863 0.319824 0)
(0.117767 0.323172 0)
(0.0938565 0.327896 0)
(0.0699875 0.332719 0)
(0.0476772 0.339832 0)
(0.0265356 0.342675 0)
(0.00975609 0.349446 0)
(3 6.48652e-17 0)
(3 4.02015e-16 0)
(3 4.61191e-16 0)
(3 2.30112e-16 0)
(3 1.04584e-16 0)
(3 -4.01352e-17 0)
(3 -9.25561e-17 0)
(3 1.29737e-16 0)
(3 3.41255e-16 0)
(3 4.93618e-16 0)
(3 4.68693e-16 0)
(3 2.42704e-16 0)
(3 -2.34235e-16 0)
(3 -7.42811e-16 0)
(3 -3.47625e-16 0)
(3 5.58876e-16 0)
(3 1.821e-16 0)
(3 -7.02425e-16 0)
(3 -9.31398e-16 0)
(3 -8.87428e-16 0)
(3 -8.67609e-16 0)
(3 -8.63788e-16 0)
(3 -3.90879e-16 0)
(3 -3.54876e-16 0)
(3 -5.70179e-16 0)
(3 -3.30107e-16 0)
(3 -4.12221e-16 0)
(3 -5.28891e-16 0)
(3 -2.86841e-17 0)
(3 4.3518e-16 0)
(3 6.64629e-16 0)
(3 3.14466e-16 0)
(3 -6.2865e-16 0)
(3 -1.17619e-15 0)
(3 -1.35613e-15 0)
(3 -1.26849e-15 0)
(3 -7.61553e-16 0)
(3 -3.52798e-16 0)
(3 -1.91879e-16 0)
(3 -4.87476e-17 0)
(3 1.18816e-16 0)
(3 1.26477e-16 0)
(3 -1.18259e-15 0)
(3 -1.13525e-15 0)
(3 -6.66363e-16 0)
(3 -6.77645e-16 0)
(3 -1.08125e-15 0)
(3 -3.85807e-16 0)
(3 4.4733e-16 0)
(3 4.9583e-16 0)
(3 7.01165e-16 0)
(3 6.09323e-16 0)
(3.00026 9.68887e-05 0)
(1.40542 0.269937 0)
(0.777211 0.230299 0)
(0.740299 0.257049 0)
(0.719078 0.266891 0)
(0.70112 0.26706 0)
(0.684904 0.26145 0)
(0.669309 0.254243 0)
(0.653837 0.250087 0)
(0.639933 0.250683 0)
(0.62667 0.253724 0)
(0.614949 0.257856 0)
(0.602436 0.259101 0)
(0.58956 0.262098 0)
(0.575985 0.262816 0)
(0.561529 0.265046 0)
(0.545746 0.269041 0)
(0.529201 0.276378 0)
(0.51221 0.284385 0)
(0.496485 0.292227 0)
(0.481205 0.295698 0)
(0.46756 0.294059 0)
(0.454477 0.290331 0)
(0.441317 0.286498 0)
(0.426787 0.285821 0)
(0.410366 0.291554 0)
(0.392292 0.303996 0)
(0.370979 0.3193 0)
(0.347953 0.330866 0)
(0.324201 0.336162 0)
(0.302781 0.339578 0)
(0.283252 0.343512 0)
(0.264103 0.347429 0)
(0.244045 0.350615 0)
(0.223055 0.354668 0)
(0.200941 0.358468 0)
(0.178284 0.363315 0)
(0.154793 0.36894 0)
(0.129759 0.373867 0)
(0.104005 0.380128 0)
(0.0786202 0.386223 0)
(0.0547165 0.394356 0)
(0.0316372 0.397747 0)
(0.0113202 0.40448 0)
(3 -6.15087e-17 0)
(3 -9.79409e-17 0)
(3 -1.42759e-16 0)
(3 -2.10396e-16 0)
(3 -4.34959e-16 0)
(3 -6.47265e-16 0)
(3 -5.99343e-16 0)
(3 -6.32691e-16 0)
(3 -2.3009e-16 0)
(3 1.57512e-17 0)
(3 -6.41135e-16 0)
(3 -7.72166e-16 0)
(3 -8.52219e-16 0)
(3 -2.56401e-16 0)
(3 2.32228e-16 0)
(3 2.48995e-16 0)
(3 -3.95391e-16 0)
(3 -1.26178e-15 0)
(3 -1.74777e-15 0)
(3 -1.87969e-15 0)
(3 -1.48519e-15 0)
(3 -5.71017e-16 0)
(3 -5.86183e-16 0)
(3 -7.1137e-16 0)
(3 -6.98156e-16 0)
(3 -1.07309e-15 0)
(3 -9.8589e-16 0)
(3 -4.56781e-16 0)
(3 2.9582e-16 0)
(3 1.10761e-15 0)
(3 9.50476e-16 0)
(3 4.37571e-16 0)
(3 -4.37207e-17 0)
(3 -7.30712e-16 0)
(3 -8.27967e-16 0)
(3 -7.23097e-16 0)
(3 -3.96546e-16 0)
(3 4.10549e-16 0)
(3 5.09259e-16 0)
(3 6.58498e-16 0)
(3 6.42137e-16 0)
(3 3.58583e-16 0)
(3 -1.06551e-16 0)
(3 -5.92356e-17 0)
(3 -8.13839e-16 0)
(3 -1.10752e-15 0)
(3 -4.79358e-16 0)
(3 2.91609e-17 0)
(3 -1.04343e-16 0)
(3 -1.38044e-16 0)
(3 8.60383e-17 0)
(3 -2.11479e-16 0)
(3 1.07139e-07 0)
(1.99603 0.285594 0)
(0.828615 0.285606 0)
(0.740443 0.298606 0)
(0.72912 0.29619 0)
(0.717223 0.292757 0)
(0.704595 0.285784 0)
(0.689043 0.279693 0)
(0.672675 0.277155 0)
(0.658035 0.279398 0)
(0.645479 0.283341 0)
(0.635071 0.287326 0)
(0.625074 0.287408 0)
(0.614408 0.288576 0)
(0.603085 0.28797 0)
(0.589791 0.290548 0)
(0.574723 0.295951 0)
(0.558355 0.304892 0)
(0.540618 0.313948 0)
(0.523195 0.321392 0)
(0.505297 0.325483 0)
(0.488281 0.326353 0)
(0.4714 0.325967 0)
(0.454212 0.325935 0)
(0.435486 0.328774 0)
(0.416567 0.337562 0)
(0.397231 0.3523 0)
(0.377501 0.368891 0)
(0.357365 0.379995 0)
(0.337419 0.383591 0)
(0.318924 0.38538 0)
(0.301034 0.388549 0)
(0.283052 0.393213 0)
(0.263831 0.398203 0)
(0.243125 0.404386 0)
(0.220269 0.410832 0)
(0.195804 0.418051 0)
(0.169616 0.42605 0)
(0.141985 0.433373 0)
(0.114293 0.44178 0)
(0.0874167 0.449745 0)
(0.0617741 0.458777 0)
(0.0367113 0.462453 0)
(0.0126395 0.468577 0)
(3 -3.51563e-17 0)
(3 6.06017e-18 0)
(3 1.79041e-16 0)
(3 1.92074e-16 0)
(3 5.21966e-16 0)
(3 8.32116e-16 0)
(3 9.86362e-16 0)
(3 7.9158e-16 0)
(3 4.07053e-16 0)
(3 7.33857e-19 0)
(3 1.70149e-16 0)
(3 2.15401e-16 0)
(3 4.16899e-16 0)
(3 1.03662e-15 0)
(3 8.69984e-16 0)
(3 5.39074e-16 0)
(3 -5.85756e-17 0)
(3 -5.28553e-16 0)
(3 -9.20157e-16 0)
(3 -8.47386e-16 0)
(3 -4.3153e-16 0)
(3 -1.84714e-16 0)
(3 -4.58585e-16 0)
(3 -6.27787e-16 0)
(3 -4.16763e-16 0)
(3 -8.03382e-17 0)
(3 1.13725e-16 0)
(3 3.5005e-16 0)
(3 3.0894e-16 0)
(3 -3.82599e-16 0)
(3 -1.276e-15 0)
(3 -8.11271e-16 0)
(3 -4.39757e-16 0)
(3 -5.00265e-16 0)
(3 -7.05648e-17 0)
(3 3.20786e-16 0)
(3 1.44075e-16 0)
(3 2.47859e-16 0)
(3 3.03503e-16 0)
(3 1.81874e-16 0)
(3 2.98035e-16 0)
(3 5.12678e-16 0)
(3 6.16072e-16 0)
(3 1.02702e-15 0)
(3 1.10683e-15 0)
(3 8.1568e-16 0)
(3 8.8337e-16 0)
(3 1.00521e-15 0)
(3 1.2006e-15 0)
(3 8.609e-16 0)
(3 -1.64697e-17 0)
(3 -2.31971e-17 0)
(3 1.7235e-11 0)
(2.79902 0.144024 0)
(0.999571 0.334842 0)
(0.770561 0.317419 0)
(0.763357 0.30737 0)
(0.751408 0.306108 0)
(0.739759 0.303441 0)
(0.724136 0.302114 0)
(0.706682 0.302773 0)
(0.689956 0.306907 0)
(0.675608 0.312426 0)
(0.663456 0.317261 0)
(0.652144 0.319193 0)
(0.640072 0.321825 0)
(0.626218 0.322713 0)
(0.609588 0.32677 0)
(0.590661 0.333822 0)
(0.570489 0.34453 0)
(0.549634 0.354809 0)
(0.529994 0.361721 0)
(0.511669 0.366391 0)
(0.494835 0.368967 0)
(0.478946 0.370563 0)
(0.463309 0.372457 0)
(0.446409 0.376565 0)
(0.43051 0.385499 0)
(0.415212 0.399435 0)
(0.400544 0.414269 0)
(0.384322 0.422564 0)
(0.367917 0.423743 0)
(0.350888 0.425403 0)
(0.333023 0.430394 0)
(0.314554 0.438992 0)
(0.294712 0.449424 0)
(0.272579 0.4605 0)
(0.248622 0.471091 0)
(0.222465 0.481 0)
(0.194526 0.490854 0)
(0.165273 0.500446 0)
(0.135694 0.511874 0)
(0.10587 0.523704 0)
(0.0757632 0.534988 0)
(0.0456045 0.539373 0)
(0.0152121 0.544602 0)
(3 4.96556e-17 0)
(3 2.78256e-16 0)
(3 4.18713e-16 0)
(3 6.0369e-16 0)
(3 6.68699e-16 0)
(3 1.13588e-15 0)
(3 1.27015e-15 0)
(3 1.24454e-15 0)
(3 9.25379e-16 0)
(3 9.11883e-16 0)
(3 9.65344e-16 0)
(3 1.23913e-15 0)
(3 1.55347e-15 0)
(3 1.61726e-15 0)
(3 1.48633e-15 0)
(3 1.20337e-15 0)
(3 1.0776e-15 0)
(3 1.08668e-15 0)
(3 7.85513e-16 0)
(3 1.35895e-16 0)
(3 -1.16558e-15 0)
(3 -1.65457e-15 0)
(3 -1.88574e-15 0)
(3 -1.20401e-15 0)
(3 -5.87793e-16 0)
(3 1.51621e-16 0)
(3 2.7563e-16 0)
(3 -1.44293e-16 0)
(3 -4.74636e-16 0)
(3 -1.3726e-15 0)
(3 -2.12077e-15 0)
(3 -2.15316e-15 0)
(3 -1.17196e-15 0)
(3 -7.47316e-16 0)
(3 -2.38857e-16 0)
(3 6.31906e-16 0)
(3 3.01474e-16 0)
(3 -2.38089e-16 0)
(3 -2.87706e-16 0)
(3 2.86834e-16 0)
(3 2.0372e-15 0)
(3 2.75467e-15 0)
(3 3.01057e-15 0)
(3 2.68218e-15 0)
(3 2.4818e-15 0)
(3 1.75084e-15 0)
(3 1.25808e-15 0)
(3 7.39092e-16 0)
(3 7.39835e-17 0)
(3 -1.06129e-15 0)
(3 -2.18947e-15 0)
(3 -2.22375e-15 0)
(3 -1.75633e-11 0)
(3.01194 0.00418189 0)
(1.37913 0.36654 0)
(0.808585 0.324018 0)
(0.778775 0.34174 0)
(0.759728 0.341843 0)
(0.744643 0.338638 0)
(0.72762 0.338937 0)
(0.709256 0.342071 0)
(0.691567 0.34768 0)
(0.677009 0.354321 0)
(0.66485 0.359638 0)
(0.654782 0.362864 0)
(0.645404 0.366028 0)
(0.634527 0.367234 0)
(0.621191 0.370222 0)
(0.605401 0.376158 0)
(0.588345 0.386004 0)
(0.570314 0.395421 0)
(0.553023 0.400367 0)
(0.536986 0.40408 0)
(0.522062 0.407156 0)
(0.507516 0.4098 0)
(0.493184 0.412577 0)
(0.478046 0.416445 0)
(0.463776 0.424284 0)
(0.450336 0.436803 0)
(0.437786 0.451141 0)
(0.422726 0.461227 0)
(0.405348 0.466211 0)
(0.386201 0.47232 0)
(0.365395 0.482251 0)
(0.343707 0.4966 0)
(0.320875 0.51329 0)
(0.296271 0.529831 0)
(0.270704 0.544739 0)
(0.243294 0.557854 0)
(0.214404 0.570762 0)
(0.184243 0.584702 0)
(0.153535 0.601316 0)
(0.122569 0.619267 0)
(0.0900493 0.633791 0)
(0.0560952 0.639354 0)
(0.0178166 0.642701 0)
(3 -2.19341e-17 0)
(3 -8.18019e-17 0)
(3 -1.5712e-16 0)
(3 -1.40725e-16 0)
(3 -2.30031e-16 0)
(3 -6.81991e-16 0)
(3 -1.07184e-15 0)
(3 -1.0906e-15 0)
(3 -5.42645e-16 0)
(3 -1.51646e-16 0)
(3 -2.84019e-16 0)
(3 1.23186e-16 0)
(3 6.67335e-16 0)
(3 5.26607e-16 0)
(3 4.79914e-16 0)
(3 5.05775e-16 0)
(3 4.08902e-16 0)
(3 4.01247e-16 0)
(3 3.7094e-16 0)
(3 7.80771e-17 0)
(3 -6.76898e-16 0)
(3 -1.42132e-15 0)
(3 -1.07712e-15 0)
(3 -2.69639e-16 0)
(3 -1.40949e-16 0)
(3 -1.39544e-16 0)
(3 -3.98876e-16 0)
(3 -8.74883e-16 0)
(3 -9.40314e-16 0)
(3 -8.5342e-16 0)
(3 -8.93055e-16 0)
(3 -9.91852e-16 0)
(3 -8.53696e-16 0)
(3 -6.74221e-16 0)
(3 -3.98627e-16 0)
(3 7.45374e-16 0)
(3 1.0727e-15 0)
(3 1.00054e-15 0)
(3 7.09909e-16 0)
(3 7.24584e-16 0)
(3 1.3686e-15 0)
(3 1.17367e-15 0)
(3 1.13048e-15 0)
(3 7.50246e-16 0)
(3 -2.36586e-16 0)
(3 -6.22038e-16 0)
(3 -6.09277e-16 0)
(3 -5.17485e-16 0)
(3 -6.82386e-16 0)
(3 -1.25741e-15 0)
(3 -2.47596e-15 0)
(3 -4.78801e-16 0)
(3 -1.67304e-13 0)
(3.00005 1.13423e-05 0)
(2.29793 0.319498 0)
(0.89615 0.379565 0)
(0.783408 0.377102 0)
(0.775069 0.373418 0)
(0.762109 0.372911 0)
(0.747671 0.372523 0)
(0.731371 0.373772 0)
(0.715169 0.378162 0)
(0.701395 0.383986 0)
(0.689666 0.389164 0)
(0.680568 0.393477 0)
(0.672621 0.397553 0)
(0.663574 0.40093 0)
(0.652614 0.402972 0)
(0.638689 0.408089 0)
(0.623468 0.417695 0)
(0.606805 0.42812 0)
(0.58996 0.434494 0)
(0.574133 0.439296 0)
(0.558733 0.444305 0)
(0.54329 0.449361 0)
(0.527385 0.454826 0)
(0.511571 0.460459 0)
(0.496231 0.469693 0)
(0.481634 0.483444 0)
(0.468565 0.500107 0)
(0.453521 0.514242 0)
(0.435921 0.523705 0)
(0.417172 0.533345 0)
(0.398284 0.546357 0)
(0.37914 0.563569 0)
(0.359451 0.583467 0)
(0.338726 0.603391 0)
(0.316971 0.621854 0)
(0.293708 0.638898 0)
(0.26914 0.655727 0)
(0.24361 0.673987 0)
(0.215819 0.693408 0)
(0.185758 0.716529 0)
(0.148441 0.743439 0)
(0.0999753 0.770508 0)
(0.0365249 0.787762 0)
(3 -9.14982e-17 0)
(3 -2.23802e-16 0)
(3 -3.77229e-16 0)
(3 -5.14244e-16 0)
(3 -1.21999e-15 0)
(3 -1.73774e-15 0)
(3 -1.6181e-15 0)
(3 -1.07997e-15 0)
(3 -7.89743e-16 0)
(3 -5.72419e-16 0)
(3 -2.00358e-16 0)
(3 -2.35833e-16 0)
(3 -5.99203e-16 0)
(3 -7.55671e-16 0)
(3 -9.87156e-16 0)
(3 -9.1269e-16 0)
(3 -5.68092e-16 0)
(3 -4.92953e-17 0)
(3 4.48015e-16 0)
(3 6.54496e-16 0)