/*--------------------------------*- C++ -*----------------------------------*\
  =========                 |
  \\      /  F ield         | OpenFOAM: The Open Source CFD Toolbox
   \\    /   O peration     | Website:  https://openfoam.org
    \\  /    A nd           | Version:  7
     \\/     M anipulation  |
\*---------------------------------------------------------------------------*/
FoamFile
{
    version     2.0;
    format      ascii;
    class       volScalarField;
    location    "0.3";
    object      T;
}
// * * * * * * * * * * * * * * * * * * * * * * * * * * * * * * * * * * * * * //

dimensions      [0 0 0 1 0 0 0];

internalField   nonuniform List<scalar> 
1000
(
3.26429e-216
5.72567e-216
1.53673e-215
4.76008e-215
1.52383e-214
4.91108e-214
1.58478e-213
5.11482e-213
1.65071e-212
5.32678e-212
1.71875e-211
5.54514e-211
1.78881e-210
5.76986e-210
1.86088e-209
6.00097e-209
1.93497e-208
6.23848e-208
2.0111e-207
6.48241e-207
2.08925e-206
6.73275e-206
2.16942e-205
6.98949e-205
2.25162e-204
7.25259e-204
2.33582e-203
7.52202e-203
2.42202e-202
7.79772e-202
2.51018e-201
8.07961e-201
2.60029e-200
8.36761e-200
2.69232e-199
8.66161e-199
2.78623e-198
8.9615e-198
2.88198e-197
9.26714e-197
2.97952e-196
9.57836e-196
3.0788e-195
9.895e-195
3.17976e-194
1.02169e-193
3.28235e-193
1.05437e-192
3.38648e-192
1.08754e-191
3.49208e-191
1.12116e-190
3.59907e-190
1.1552e-189
3.70736e-189
1.18964e-188
3.81685e-188
1.22444e-187
3.92745e-187
1.25957e-186
4.03903e-186
1.295e-185
4.15148e-185
1.33069e-184
4.26469e-184
1.36659e-183
4.37852e-183
1.40267e-182
4.49284e-182
1.43888e-181
4.60749e-181
1.47517e-180
4.72234e-180
1.5115e-179
4.83723e-179
1.54782e-178
4.952e-178
1.58407e-177
5.06647e-177
1.62021e-176
5.18048e-176
1.65616e-175
5.29384e-175
1.69189e-174
5.40638e-174
1.72733e-173
5.51791e-173
1.76241e-172
5.62822e-172
1.79708e-171
5.73713e-171
1.83127e-170
5.84443e-170
1.86493e-169
5.94992e-169
1.89797e-168
6.05339e-168
1.93035e-167
6.15464e-167
1.96199e-166
6.25344e-166
1.99282e-165
6.3496e-165
2.02279e-164
6.44289e-164
2.05181e-163
6.53311e-163
2.07983e-162
6.62004e-162
2.10677e-161
6.70347e-161
2.13258e-160
6.78319e-160
2.15718e-159
6.85901e-159
2.18051e-158
6.93071e-158
2.20251e-157
6.9981e-157
2.22312e-156
7.06098e-156
2.24227e-155
7.11918e-155
2.25991e-154
7.1725e-154
2.27598e-153
7.22078e-153
2.29043e-152
7.26385e-152
2.30321e-151
7.30155e-151
2.31426e-150
7.33375e-150
2.32356e-149
7.36029e-149
2.33104e-148
7.38107e-148
2.33669e-147
7.39595e-147
2.34045e-146
7.40486e-146
2.34231e-145
7.40768e-145
2.34223e-144
7.40436e-144
2.3402e-143
7.39483e-143
2.3362e-142
7.37904e-142
2.33022e-141
7.35697e-141
2.32224e-140
7.3286e-140
2.31227e-139
7.29393e-139
2.30032e-138
7.25298e-138
2.28638e-137
7.20578e-137
2.27047e-136
7.15239e-136
2.25261e-135
7.09287e-135
2.23283e-134
7.0273e-134
2.21115e-133
6.95579e-133
2.18761e-132
6.87845e-132
2.16225e-131
6.79541e-131
2.13511e-130
6.70683e-130
2.10624e-129
6.61288e-129
2.0757e-128
6.51373e-128
2.04355e-127
6.40957e-127
2.00984e-126
6.30062e-126
1.97466e-125
6.18711e-125
1.93807e-124
6.06927e-124
1.90015e-123
5.94734e-123
1.86098e-122
5.82159e-122
1.82064e-121
5.69228e-121
1.77922e-120
5.55971e-120
1.73681e-119
5.42415e-119
1.69351e-118
5.2859e-118
1.6494e-117
5.14526e-117
1.60458e-116
5.00254e-116
1.55916e-115
4.85804e-115
1.51322e-114
4.71209e-114
1.46687e-113
4.56498e-113
1.42021e-112
4.41705e-112
1.37333e-111
4.26859e-111
1.32634e-110
4.11992e-110
1.27933e-109
3.97135e-109
1.2324e-108
3.82317e-108
1.18564e-107
3.67568e-107
1.13914e-106
3.52916e-106
1.093e-105
3.38391e-105
1.04729e-104
3.24018e-104
1.00212e-103
3.09824e-103
9.57542e-103
2.95833e-102
9.13648e-102
2.82069e-101
8.70508e-101
2.68554e-100
8.28189e-100
2.55309e-99
7.86755e-99
2.42353e-98
7.46265e-98
2.29705e-97
7.06774e-97
2.17381e-96
6.6833e-96
2.05394e-95
6.30977e-95
1.9376e-94
5.94755e-94
1.82488e-93
5.59698e-93
1.7159e-92
5.25834e-92
1.61073e-91
4.93186e-91
1.50943e-90
4.61773e-90
1.41207e-89
4.31609e-89
1.31866e-88
4.02701e-88
1.22924e-87
3.75054e-87
1.14381e-86
3.48666e-86
1.06234e-85
3.23532e-85
9.84833e-85
2.99641e-84
9.11236e-84
2.7698e-83
8.41501e-83
2.55532e-82
7.75567e-82
2.35275e-81
7.13362e-81
2.16184e-80
6.54804e-80
1.98232e-79
5.99799e-79
1.81388e-78
5.48249e-78
1.6562e-77
5.00047e-77
1.50893e-76
4.55078e-76
1.3717e-75
4.13224e-75
1.24413e-74
3.74362e-74
1.12581e-73
3.38365e-73
1.01636e-72
3.05103e-72
9.1534e-72
2.74444e-71
8.22348e-71
2.46256e-70
7.36961e-70
2.20407e-69
6.58759e-69
1.96764e-68
5.87326e-68
1.75196e-67
5.22251e-67
1.55575e-66
4.6313e-66
1.37773e-65
4.09567e-65
1.21668e-64
3.61177e-64
1.07139e-63
3.17586e-63
9.40703e-63
2.78433e-62
8.23496e-62
2.43372e-61
7.18697e-61
2.12071e-60
6.25282e-60
1.84214e-59
5.42277e-59
1.59501e-58
4.68759e-58
1.37648e-57
4.03856e-57
1.18389e-56
3.46752e-56
1.01472e-55
2.96682e-55
8.66654e-55
2.52933e-54
7.37509e-54
2.14844e-53
6.25277e-53
1.81805e-52
5.28105e-52
1.53253e-51
4.44293e-51
1.28674e-50
3.72284e-50
1.07599e-49
3.10663e-49
8.96009e-49
2.58148e-48
7.42939e-48
2.1358e-47
6.13312e-47
1.75919e-46
5.04016e-46
1.44235e-45
4.12273e-45
1.17701e-44
3.35619e-44
9.55824e-44
2.71874e-43
7.72334e-43
2.19121e-42
6.20864e-42
1.75684e-41
4.9646e-41
1.40101e-40
3.94817e-40
1.11106e-39
3.12218e-39
8.76085e-39
2.45466e-38
6.86729e-38
1.91829e-37
5.35021e-37
1.48985e-36
4.14205e-36
1.14969e-35
3.18583e-35
8.81319e-35
2.43387e-34
6.70967e-34
1.84643e-33
5.07197e-33
1.39066e-32
3.80581e-32
1.03954e-31
2.83395e-31
7.71043e-31
2.09356e-30
5.67278e-30
1.53389e-29
4.13864e-29
1.11422e-28
2.99306e-28
8.02176e-28
2.14493e-27
5.7217e-27
1.52259e-26
4.04173e-26
1.07016e-25
2.82625e-25
7.44426e-25
1.9555e-24
5.12264e-24
1.33814e-23
3.48537e-23
9.05129e-23
2.34344e-22
6.04847e-22
1.55616e-21
3.99065e-21
1.01995e-20
2.5979e-20
6.5938e-20
1.66754e-19
4.2015e-19
1.05457e-18
2.63659e-18
6.56538e-18
1.62808e-17
4.02012e-17
9.88314e-17
2.41873e-16
5.8919e-16
1.42836e-15
3.44565e-15
8.26959e-15
1.97427e-14
4.68773e-14
1.10681e-13
2.59811e-13
6.06215e-13
1.40569e-12
3.23853e-12
7.41144e-12
1.6844e-11
3.80071e-11
8.51215e-11
1.89167e-10
4.17013e-10
9.11619e-10
1.97555e-09
4.24244e-09
9.02475e-09
1.90095e-08
3.96315e-08
8.17427e-08
1.66723e-07
3.36096e-07
6.69314e-07
1.31601e-06
2.55334e-06
4.88564e-06
9.21375e-06
1.71152e-05
3.12957e-05
5.62946e-05
9.95526e-05
0.00017297
0.000295096
0.000494068
0.000811371
0.00130638
0.00206152
0.00318753
0.00482843
0.00716515
0.010417
0.0148404
0.0207234
0.0283764
0.0381194
0.0502651
0.0651006
0.082868
0.103746
0.127835
0.155145
0.185587
0.218978
0.255041
0.293414
0.333672
0.375335
0.417896
0.460836
0.503643
0.545832
0.586959
0.626632
0.664517
0.700346
0.733917
0.765092
0.793795
0.820002
0.843742
0.865081
0.884122
0.900991
0.915833
0.928805
0.94007
0.949793
0.958133
0.965246
0.971279
0.976367
0.980636
0.9842
0.98716
0.989607
0.99162
0.993269
0.994613
0.995704
0.996587
0.997297
0.997867
0.998322
0.998685
0.998972
0.999199
0.999378
0.999518
0.999628
0.999714
0.99978
0.999832
0.999871
0.999902
0.999926
0.999944
0.999957
0.999968
0.999976
0.999982
0.999986
0.99999
0.999992
0.999994
0.999996
0.999997
0.999998
0.999998
0.999999
0.999999
0.999999
0.999999
0.999999
0.999998
0.999997
0.999995
0.999991
0.999983
0.999969
0.999944
0.9999
0.999827
0.999705
0.999506
0.999189
0.998694
0.997938
0.996812
0.995172
0.992835
0.989583
0.98516
0.979277
0.971624
0.961881
0.949735
0.934899
0.917132
0.896254
0.872165
0.844855
0.814413
0.781022
0.744959
0.706586
0.666328
0.624665
0.582104
0.539164
0.496357
0.454168
0.413041
0.373368
0.335483
0.299654
0.266083
0.234908
0.206205
0.179998
0.156258
0.134919
0.115878
0.0990089
0.0841668
0.0711947
0.0599296
0.0502075
0.0418673
0.0347541
0.0287214
0.023633
0.0193636
0.0157998
0.0128398
0.010393
0.00837993
0.00673126
0.00538697
0.00429558
0.0034132
0.00270271
0.00213288
0.00167764
0.00131529
0.00102795
0.000800891
0.000622097
0.000481784
0.000372036
0.00028647
0.00021997
0.000168446
0.000128646
9.79925e-05
7.44514e-05
5.64233e-05
4.26551e-05
3.21686e-05
2.42025e-05
1.81668e-05
1.36051e-05
1.0166e-05
7.57958e-06
5.63897e-06
4.18633e-06
3.10143e-06
2.29299e-06
1.69188e-06
1.2459e-06
9.15693e-07
6.71724e-07
4.91834e-07
3.59456e-07
2.62234e-07
1.90967e-07
1.38825e-07
1.00746e-07
7.29889e-08
5.27911e-08
3.812e-08
2.74818e-08
1.9781e-08
1.42159e-08
1.02007e-08
7.30857e-09
5.2286e-09
3.73509e-09
2.66434e-09
1.89784e-09
1.34996e-09
9.58915e-10
6.8022e-10
4.81877e-10
3.40917e-10
2.40877e-10
1.69974e-10
1.1979e-10
8.43174e-11
5.92759e-11
4.16209e-11
2.91894e-11
2.04468e-11
1.4306e-11
9.998e-12
6.97935e-12
4.86666e-12
3.38974e-12
2.35846e-12
1.63917e-12
1.13804e-12
7.89286e-13
5.46843e-13
3.78483e-13
2.61693e-13
1.80761e-13
1.24735e-13
8.59909e-14
5.9224e-14
4.07503e-14
2.80129e-14
1.92389e-14
1.3201e-14
9.04985e-15
6.1985e-15
4.24178e-15
2.90022e-15
1.98125e-15
1.35231e-15
9.22246e-16
6.28428e-16
4.27865e-16
2.91074e-16
1.97856e-16
1.34385e-16
9.1203e-17
6.18484e-17
4.19096e-17
2.8377e-17
1.91996e-17
1.29806e-17
8.76948e-18
5.92021e-18
3.9938e-18
2.6923e-18
1.81365e-18
1.2209e-18
8.21308e-19
5.52119e-19
3.70907e-19
2.49003e-19
1.67053e-19
1.12e-19
7.50412e-20
5.02458e-20
3.36219e-20
2.24838e-20
1.5026e-20
1.00357e-20
6.69863e-21
4.46848e-21
2.979e-21
1.98482e-21
1.32165e-21
8.79539e-22
5.84982e-22
3.88848e-22
2.58327e-22
1.71519e-22
1.13819e-22
7.54874e-23
5.00375e-23
3.31498e-23
2.19498e-23
1.45261e-23
9.60809e-24
6.3518e-24
4.19692e-24
2.77166e-24
1.82948e-24
1.20696e-24
7.9587e-25
5.24535e-25
3.45535e-25
2.27508e-25
1.49724e-25
9.84861e-26
6.47518e-26
4.25523e-26
2.79506e-26
1.83509e-26
1.20426e-26
7.89928e-27
5.17912e-27
3.39413e-27
2.22335e-27
1.45578e-27
9.52775e-28
6.23299e-28
4.07582e-28
2.66408e-28
1.74058e-28
1.13673e-28
7.42062e-29
4.84219e-29
3.15838e-29
2.05925e-29
1.34208e-29
8.74319e-30
5.69364e-30
3.70627e-30
2.41165e-30
1.56863e-30
1.0199e-30
6.62872e-31
4.30661e-31
2.79689e-31
1.81574e-31
1.17833e-31
7.64403e-32
4.95698e-32
3.21331e-32
2.08224e-32
1.34882e-32
8.73414e-33
5.6537e-33
3.65841e-33
2.36647e-33
1.53023e-33
9.89157e-34
6.39182e-34
4.12891e-34
2.66625e-34
1.72115e-34
1.11069e-34
7.16516e-35
4.62078e-35
2.97894e-35
1.91986e-35
1.23691e-35
7.96645e-36
5.12928e-36
3.30149e-36
2.12436e-36
1.36651e-36
8.78744e-37
5.64909e-37
3.63047e-37
2.33247e-37
1.49809e-37
9.61904e-38
6.17442e-38
3.96217e-38
2.5418e-38
1.63014e-38
1.04516e-38
6.6991e-39
4.29265e-39
2.74987e-39
1.76107e-39
1.12751e-39
7.21675e-40
4.61789e-40
2.95411e-40
1.88926e-40
1.20792e-40
7.72093e-41
4.93382e-41
3.15197e-41
2.0131e-41
1.28539e-41
8.20527e-42
5.23645e-42
3.34094e-42
2.13103e-42
1.35894e-42
8.66365e-43
5.52194e-43
3.51864e-43
2.24156e-43
1.42763e-43
9.09029e-44
5.78672e-44
3.68283e-44
2.34329e-44
1.49062e-44
9.47991e-45
6.02752e-45
3.83151e-45
2.43501e-45
1.54714e-45
9.82783e-46
6.24146e-46
3.96292e-46
2.51562e-46
1.59653e-46
1.01301e-46
6.42613e-47
4.07559e-47
2.58425e-47
1.63826e-47
1.03834e-47
6.57958e-48
4.16835e-48
2.6402e-48
1.67192e-48
1.05853e-48
6.70037e-49
4.24036e-49
2.68297e-49
1.69722e-49
1.07343e-49
6.7876e-50
4.29113e-50
2.7123e-50
1.71402e-50
1.08295e-50
6.84089e-51
4.32046e-51
2.72811e-51
1.7223e-51
1.0871e-51
6.86035e-52
4.32851e-52
2.73053e-52
1.72215e-52
1.08596e-52
6.84659e-53
4.31571e-53
2.71987e-53
1.71381e-53
1.07969e-53
6.80066e-54
4.28277e-54
2.69662e-54
1.6976e-54
1.06849e-54
6.72403e-55
4.23068e-55
2.66142e-55
1.67393e-55
1.05266e-55
6.61851e-56
4.16061e-56
2.61504e-56
1.64333e-56
1.03251e-56
6.48621e-57
4.07393e-57
2.55836e-57
1.60634e-57
1.00842e-57
6.3295e-58
3.97216e-58
2.49237e-58
1.5636e-58
9.80773e-59
6.15092e-59
3.85692e-59
2.41809e-59
1.51577e-59
9.50001e-60
5.95314e-60
3.72992e-60
2.3366e-60
1.46353e-60
9.16535e-61
5.73892e-61
3.59289e-61
2.249e-61
1.40757e-61
8.80813e-62
5.51101e-62
3.44757e-62
2.1564e-62
1.34859e-62
8.43272e-63
5.27217e-63
3.2957e-63
2.05988e-63
1.28728e-63
8.04338e-64
5.02507e-64
3.13894e-64
1.96048e-64
1.22427e-64
7.64422e-65
4.77228e-65
2.97891e-65
1.85921e-65
1.16021e-65
7.23912e-66
4.51622e-66
2.81711e-66
1.757e-66
1.09567e-66
6.83175e-67
4.25915e-67
2.65495e-67
1.65474e-67
1.03121e-67
6.42545e-68
4.00317e-68
2.49372e-68
1.55322e-68
9.673e-69
6.02329e-69
3.75015e-69
2.33458e-69
1.45315e-69
9.04398e-70
5.62797e-70
3.50178e-70
2.17857e-70
1.35518e-70
8.42889e-71
5.2419e-71
3.25951e-71
2.02658e-71
1.25985e-71
7.8311e-72
4.86713e-72
3.02462e-72
1.87938e-72
1.16764e-72
7.25373e-73
4.50626e-73
2.80098e-73
1.74703e-73
1.11005e-73
7.72808e-74
)
;

boundaryField
{
    sides
    {
        type            zeroGradient;
    }
    empty
    {
        type            empty;
    }
}


// ************************************************************************* //
