/*--------------------------------*- C++ -*----------------------------------*\
  =========                 |
  \\      /  F ield         | OpenFOAM: The Open Source CFD Toolbox
   \\    /   O peration     | Website:  https://openfoam.org
    \\  /    A nd           | Version:  7
     \\/     M anipulation  |
\*---------------------------------------------------------------------------*/
FoamFile
{
    version     2.0;
    format      ascii;
    class       volScalarField;
    location    "1.87";
    object      T;
}
// * * * * * * * * * * * * * * * * * * * * * * * * * * * * * * * * * * * * * //

dimensions      [0 0 0 1 0 0 0];

internalField   nonuniform List<scalar> 
1000
(
0
0
0
0
0
0
0
0
0
0
0
0
0
0
0
0
0
0
0
0
0
0
0
0
0
0
0
0
0
0
0
0
0
0
0
0
0
0
0
0
0
0
0
0
0
0
0
0
0
0
0
0
0
0
0
0
0
0
0
0
0
0
0
0
0
0
0
0
0
0
0
0
0
0
0
0
0
0
0
0
0
0
0
0
0
0
0
0
0
0
0
0
0
0
0
0
0
0
0
0
0
0
0
0
0
0
0
0
0
0
0
0
0
0
0
0
0
0
0
0
0
0
0
0
0
0
0
0
0
0
0
0
0
0
0
0
0
0
0
0
0
0
0
0
0
0
0
0
0
0
0
0
0
0
0
0
0
0
0
0
0
0
0
0
0
-1.4822e-323
-8.49793e-322
-5.22573e-320
-3.19543e-318
-1.93461e-316
-1.15925e-314
-6.87326e-313
-4.03122e-311
-2.33816e-309
-1.34074e-307
-7.59816e-306
-4.25423e-304
-2.35248e-302
-1.28427e-300
-6.91885e-299
-3.6768e-297
-1.92645e-295
-9.94668e-294
-5.05814e-292
-2.53183e-290
-1.2466e-288
-6.03322e-287
-2.86787e-285
-1.33773e-283
-6.11713e-282
-2.73906e-280
-1.19942e-278
-5.12865e-277
-2.13766e-275
-8.66687e-274
-3.40931e-272
-1.29708e-270
-4.7531e-269
-1.66847e-267
-5.56722e-266
-1.74544e-264
-5.04416e-263
-1.29539e-261
-2.7036e-260
-3.11852e-259
8.37811e-258
7.82152e-256
3.59995e-254
1.24878e-252
3.39263e-251
6.3763e-250
1.43262e-249
-5.42828e-247
-2.99761e-245
-1.03258e-243
-2.39724e-242
-2.15049e-241
1.2445e-239
8.22083e-238
2.7978e-236
5.48366e-235
-1.07141e-234
-5.78738e-232
-2.55214e-230
-5.95572e-229
-1.92028e-228
4.88604e-226
2.28551e-224
4.9697e-223
-1.28442e-222
-5.28586e-220
-1.99213e-218
-2.76277e-217
8.4088e-216
5.80844e-214
1.34207e-212
-6.88196e-212
-1.52109e-209
-4.59564e-208
-1.03152e-207
4.02432e-205
1.38758e-203
5.17361e-203
-1.15636e-200
-3.90142e-199
-2.53242e-199
3.61073e-196
9.94907e-195
-8.11963e-194
-1.13938e-191
-1.99465e-190
6.04396e-189
3.22022e-187
1.24332e-186
-2.75495e-184
-6.54002e-183
1.35401e-181
8.46987e-180
1.47798e-179
-7.63225e-177
-1.25197e-175
5.36324e-174
1.83128e-172
-2.83819e-171
-1.98512e-169
7.40393e-169
1.8854e-166
6.92128e-166
-1.68347e-163
-1.48657e-162
1.47727e-160
1.77112e-159
-1.31333e-157
-1.67608e-156
1.20038e-154
1.29576e-153
-1.12219e-151
-6.91539e-151
1.04606e-148
-8.04379e-149
-9.29489e-146
9.28492e-145
7.30369e-143
-1.68667e-141
-4.26308e-140
2.10709e-138
4.34219e-138
-1.92827e-135
3.19127e-134
1.05169e-132
-5.02865e-131
2.29627e-130
3.80698e-128
-1.1763e-126
-8.72721e-127
1.03616e-123
-3.054e-122
8.45688e-122
2.31708e-119
-8.80111e-118
1.25455e-116
2.62408e-115
-2.09527e-113
6.49249e-112
-1.05861e-110
-6.26367e-110
1.16429e-107
-5.11659e-106
1.61535e-104
-4.23721e-103
9.74181e-102
-2.01676e-100
3.82028e-99
-6.69218e-98
1.09225e-96
-1.67022e-95
2.40309e-94
-3.26417e-93
4.19707e-92
-5.11963e-91
5.93501e-90
-6.54828e-89
6.88446e-88
-6.90338e-87
6.60735e-86
-6.03964e-85
5.27449e-84
-4.40182e-83
3.51069e-82
-2.67554e-81
1.9479e-80
-1.35408e-79
8.9813e-79
-5.67855e-78
3.41812e-77
-1.95557e-76
1.06112e-75
-5.44552e-75
2.63318e-74
-1.19365e-73
5.03607e-73
-1.95626e-72
6.8745e-72
-2.11565e-71
5.29472e-71
-8.24133e-71
-1.02613e-70
1.50603e-69
-7.42927e-69
2.50405e-68
-5.72488e-68
4.34099e-68
3.56063e-67
-2.20983e-66
7.28506e-66
-1.33659e-65
-6.97512e-66
1.55928e-64
-6.23377e-64
1.27366e-63
1.95096e-64
-1.19374e-62
4.59451e-62
-7.74859e-62
-9.0068e-62
9.71843e-61
-2.77709e-60
1.99819e-60
1.50536e-59
-6.59373e-59
9.97113e-59
1.81628e-58
-1.30741e-57
2.61507e-57
1.79125e-57
-2.38802e-56
5.4116e-56
1.9222e-56
-4.23706e-55
9.63898e-55
4.19362e-55
-7.4131e-54
1.49151e-53
1.33235e-53
-1.25184e-52
1.90421e-52
3.73376e-52
-1.94365e-51
1.64176e-51
8.45518e-51
-2.57653e-50
-2.12043e-51
1.52935e-49
-2.52534e-49
-4.41197e-49
2.12815e-48
-9.10036e-49
-1.02374e-47
1.99824e-47
2.62219e-47
-1.41502e-46
5.08047e-47
6.65344e-46
-1.07948e-45
-2.07749e-45
7.76218e-45
1.74166e-45
-3.97572e-44
3.17572e-44
1.59355e-43
-2.97784e-43
-4.82464e-43
1.7862e-42
7.76042e-43
-8.69344e-42
2.81454e-42
3.66872e-41
-3.61283e-41
-1.37628e-40
2.34419e-40
4.61311e-40
-1.21997e-39
-1.36259e-39
5.63137e-39
3.36953e-39
-2.40532e-38
-5.73791e-39
9.73539e-38
-2.41528e-39
-3.79315e-37
8.19153e-38
1.43888e-36
-4.93543e-37
-5.35694e-36
2.18113e-36
1.96725e-35
-8.0229e-36
-7.13987e-35
2.46784e-35
2.55783e-34
-5.71765e-35
-9.00627e-34
4.11326e-35
3.09447e-33
5.73254e-34
-1.02696e-32
-4.84888e-33
3.24555e-32
2.69477e-32
-9.56397e-32
-1.24535e-31
2.53423e-31
5.0784e-31
-5.56914e-31
-1.8604e-30
7.48718e-31
6.116e-30
1.22895e-30
-1.77206e-29
-1.47137e-29
4.31089e-29
7.22952e-29
-7.57825e-29
-2.64251e-28
2.19521e-29
7.71942e-28
5.47072e-28
-1.72876e-27
-2.97295e-27
2.2452e-27
1.01661e-26
3.04009e-27
-2.47954e-26
-3.16899e-26
3.56939e-26
1.19681e-25
2.6889e-26
-2.86356e-25
-3.72409e-25
3.40976e-25
1.33322e-24
6.19232e-25
-2.68459e-24
-4.68014e-24
1.21823e-24
1.31531e-23
1.30424e-23
-1.62821e-23
-5.25692e-23
-2.76181e-23
9.1738e-23
1.87931e-22
3.14733e-23
-4.06607e-22
-6.35827e-22
7.34559e-23
1.60262e-21
2.13046e-21
-6.40895e-22
-5.89791e-21
-7.32327e-21
2.52358e-21
2.06723e-20
2.62421e-20
-5.9642e-21
-6.89909e-20
-9.71044e-20
-1.99445e-21
2.1469e-19
3.60054e-19
1.23993e-19
-5.90577e-19
-1.28391e-18
-9.11242e-19
1.24013e-18
4.18497e-18
4.72008e-18
-6.78887e-19
-1.15204e-17
-1.95758e-17
-1.10946e-17
2.17516e-17
6.47956e-17
7.57384e-17
5.10557e-18
-1.52907e-16
-3.0772e-16
-2.74667e-16
1.1617e-16
8.17288e-16
1.38967e-15
1.06542e-15
-7.87656e-16
-3.87656e-15
-6.33105e-15
-4.94859e-15
3.0399e-15
1.68759e-14
2.94094e-14
2.72418e-14
-3.41547e-15
-6.48341e-14
-1.34195e-13
-1.58027e-13
-6.66448e-14
1.84287e-13
5.52334e-13
8.55639e-13
7.76645e-13
-2.8493e-14
-1.69633e-12
-3.84916e-12
-5.3597e-12
-4.41244e-12
9.07695e-13
1.14003e-11
2.51098e-11
3.58948e-11
3.32669e-11
4.74701e-12
-5.83544e-11
-1.51925e-10
-2.48901e-10
-2.9247e-10
-1.99246e-10
1.20267e-10
7.18773e-10
1.54789e-09
2.38425e-09
2.77208e-09
2.02307e-09
-6.75436e-10
-5.99468e-09
-1.40134e-08
-2.3602e-08
-3.17414e-08
-3.29807e-08
-1.93591e-08
1.87745e-08
9.05495e-08
2.00505e-07
3.42391e-07
4.90947e-07
5.92431e-07
5.55577e-07
2.45904e-07
-5.12268e-07
-1.92009e-06
-4.16711e-06
-7.36366e-06
-1.14325e-05
-1.59484e-05
-1.99162e-05
-2.14754e-05
-1.75274e-05
-3.27928e-06
2.82944e-05
8.70635e-05
0.000186417
0.000343977
0.000582331
0.000929742
0.0014208
0.00209699
0.0030071
0.00420742
0.00576182
0.00774141
0.0102241
0.0132936
0.0170386
0.0215509
0.0269242
0.0332518
0.0406247
0.0491294
0.0588455
0.0698436
0.082183
0.0959101
0.111056
0.127636
0.145646
0.165068
0.185862
0.20797
0.231318
0.255815
0.281354
0.307816
0.335068
0.36297
0.391374
0.420129
0.44908
0.478073
0.506958
0.535589
0.563827
0.591541
0.618613
0.644933
0.670405
0.694947
0.718487
0.74097
0.762352
0.782602
0.801703
0.819646
0.836436
0.852087
0.866619
0.880063
0.892454
0.903833
0.914246
0.923741
0.932369
0.940183
0.947236
0.953582
0.959272
0.964357
0.968889
0.972914
0.976479
0.979626
0.982396
0.984827
0.986955
0.988812
0.990427
0.991829
0.993042
0.994089
0.99499
0.995764
0.996426
0.996991
0.997473
0.997882
0.998229
0.998522
0.998769
0.998978
0.999153
0.999301
0.999426
0.999531
0.99962
0.999694
0.999757
0.999806
0.999842
0.99986
0.999856
0.999819
0.999737
0.999594
0.999368
0.99903
0.998547
0.997877
0.996972
0.995776
0.994225
0.992248
0.989768
0.9867
0.982956
0.978445
0.973073
0.966746
0.959373
0.950869
0.941153
0.930155
0.917816
0.904089
0.888944
0.872364
0.854353
0.834932
0.814138
0.79203
0.768682
0.744185
0.718646
0.692184
0.664932
0.63703
0.608626
0.579871
0.55092
0.521927
0.493042
0.464411
0.436173
0.408459
0.381387
0.355067
0.329595
0.305053
0.281513
0.25903
0.237648
0.217398
0.198297
0.180354
0.163564
0.147913
0.133381
0.119937
0.107546
0.0961672
0.0857545
0.0762594
0.0676309
0.0598167
0.0527636
0.0464183
0.0407284
0.0356425
0.0311109
0.0270856
0.023521
0.0203739
0.0176038
0.0151725
0.0130449
0.0111883
0.00957283
0.008171
0.00695792
0.00591103
0.00500998
0.00423649
0.00357425
0.0030087
0.00252697
0.00211766
0.00177074
0.00147743
0.00123005
0.0010219
0.00084717
0.000700845
0.000578588
0.000476674
0.00039191
0.000321567
0.000263322
0.000215198
0.000175523
0.000142884
0.000116089
9.41391e-05
7.61943e-05
6.15543e-05
4.96345e-05
3.99491e-05
3.20948e-05
2.5738e-05
2.06031e-05
1.64633e-05
1.3132e-05
1.04565e-05
8.31163e-06
6.59536e-06
5.22456e-06
4.13167e-06
3.26191e-06
2.57097e-06
2.02304e-06
1.58929e-06
1.24651e-06
9.76093e-07
7.63121e-07
5.95674e-07
4.64241e-07
3.61245e-07
2.80667e-07
2.17728e-07
1.68647e-07
1.30434e-07
1.00729e-07
7.76736e-08
5.98073e-08
4.59836e-08
3.53039e-08
2.70657e-08
2.07204e-08
1.58403e-08
1.20926e-08
9.21879e-09
7.01824e-09
5.33565e-09
4.05095e-09
3.07143e-09
2.32564e-09
1.75861e-09
1.32808e-09
1.00163e-09
7.5445e-10
5.67535e-10
4.26383e-10
3.1993e-10
2.39753e-10
1.79444e-10
1.34139e-10
1.00148e-10
7.46797e-11
5.56203e-11
4.13752e-11
3.07416e-11
2.28137e-11
1.69104e-11
1.25199e-11
9.25855e-12
6.83885e-12
5.04573e-12
3.71852e-12
2.73731e-12
2.01275e-12
1.47833e-12
1.0846e-12
7.94858e-13
5.81881e-13
4.25508e-13
3.10822e-13
2.26803e-13
1.6532e-13
1.20376e-13
8.75589e-14
6.36218e-14
4.61808e-14
3.34864e-14
2.42567e-14
1.7553e-14
1.26892e-14
9.16387e-15
6.61137e-15
4.76511e-15
3.43104e-15
2.46805e-15
1.77362e-15
1.27335e-15
9.13303e-16
6.54438e-16
4.68501e-16
3.35076e-16
2.39424e-16
1.70919e-16
1.21901e-16
8.68615e-17
6.18371e-17
4.39822e-17
3.12544e-17
2.219e-17
1.57403e-17
1.11554e-17
7.89904e-18
5.58833e-18
3.95013e-18
2.78975e-18
1.96854e-18
1.38788e-18
9.77659e-19
6.88109e-19
4.83906e-19
3.40018e-19
2.38716e-19
1.67456e-19
1.17372e-19
8.21999e-20
5.75209e-20
4.02188e-20
2.80985e-20
1.96151e-20
1.3682e-20
9.53606e-21
6.64118e-21
4.62149e-21
3.21352e-21
2.23277e-21
1.55015e-21
1.0754e-21
7.45482e-22
5.16386e-22
3.57426e-22
2.47213e-22
1.70858e-22
1.17998e-22
8.14322e-23
5.61563e-23
3.86977e-23
2.66475e-23
1.83364e-23
1.26084e-23
8.66358e-24
5.94875e-24
4.08176e-24
2.79875e-24
1.91768e-24
1.31307e-24
8.98459e-25
6.14341e-25
4.19782e-25
2.86643e-25
1.95599e-25
1.33382e-25
9.08942e-26
6.18993e-26
4.21257e-26
2.86498e-26
1.9472e-26
1.32255e-26
8.97708e-27
6.08941e-27
4.12795e-27
2.79651e-27
1.8933e-27
1.281e-27
8.66167e-28
5.85304e-28
3.95266e-28
2.66764e-28
1.79927e-28
1.21282e-28
8.17012e-29
5.50043e-29
3.70084e-29
2.48852e-29
1.67232e-29
1.12315e-29
7.5387e-30
5.05705e-30
3.39032e-30
2.27159e-30
1.52112e-30
1.01799e-30
6.80881e-31
4.55144e-31
3.04072e-31
2.03027e-31
1.35483e-31
9.03587e-32
6.02295e-32
4.0124e-32
2.67151e-32
1.77773e-32
1.18232e-32
7.85894e-33
5.22101e-33
3.46662e-33
2.30054e-33
1.5254e-33
1.01618e-33
6.16575e-34
)
;

boundaryField
{
    sides
    {
        type            zeroGradient;
    }
    empty
    {
        type            empty;
    }
}


// ************************************************************************* //
