/*--------------------------------*- C++ -*----------------------------------*\
  =========                 |
  \\      /  F ield         | OpenFOAM: The Open Source CFD Toolbox
   \\    /   O peration     | Website:  https://openfoam.org
    \\  /    A nd           | Version:  7
     \\/     M anipulation  |
\*---------------------------------------------------------------------------*/
FoamFile
{
    version     2.0;
    format      ascii;
    class       volScalarField;
    location    "5.3";
    object      p;
}
// * * * * * * * * * * * * * * * * * * * * * * * * * * * * * * * * * * * * * //

dimensions      [1 -1 -2 0 0 0 0];

internalField   nonuniform List<scalar> 
19968
(
1
1
1
1
1
1
1
1
1
1
1
1
1
1
1
1
1
1
1
1
1
1
1
1
1
1
1
1
1
1
1
1
1
1
1
1
1
1
1
1
1
1
1
1
1
1
1
1
1.51468
7.97302
10.4187
10.4611
10.5214
10.5814
10.6442
10.7043
10.7597
10.8106
10.8593
10.9091
10.9621
11.0176
11.0725
11.1237
11.1703
11.215
11.26
11.3049
11.3487
11.3909
11.4316
11.4707
11.5084
11.5446
11.5799
11.6155
11.6524
11.6904
11.7284
11.7645
11.7972
11.826
11.8511
11.8729
11.8922
11.91
11.9275
11.9458
11.9655
11.9855
12.004
12.0192
12.0297
12.0357
12.0385
12.0394
1
1
1
1
1
1
1
1
1
1
1
1
1
1
1
1
1
1
1
1
1
1
1
1
1
1
1
1
1
1
1
1
1
1
1
1
1
1
1
1
1
1
1
1
1
1
1
1
1.48571
7.90606
10.4084
10.459
10.5205
10.5794
10.6412
10.7008
10.7557
10.8063
10.8552
10.9052
10.9588
11.0144
11.0693
11.1205
11.1674
11.2123
11.2574
11.3021
11.3456
11.3875
11.4279
11.4671
11.5049
11.5414
11.5769
11.6124
11.6489
11.6863
11.7235
11.7589
11.7913
11.8201
11.8455
11.8677
11.8872
11.9051
11.9226
11.9407
11.96
11.9795
11.9977
12.0124
12.0228
12.0286
12.0313
12.0322
1
1
1
1
1
1
1
1
1
1
1
1
1
1
1
1
1
1
1
1
1
1
1
1
1
1
1
1
1
1
1
1
1
1
1
1
1
1
1
1
1
1
1
1
1
1
1
1
1.42086
7.76001
10.4034
10.4481
10.5111
10.5694
10.6312
10.6908
10.7458
10.7967
10.8458
10.8961
10.9502
11.006
11.0614
11.113
11.1606
11.2062
11.2514
11.2959
11.3389
11.3803
11.4204
11.4596
11.4979
11.5349
11.5707
11.6062
11.642
11.6783
11.7145
11.7491
11.7811
11.8101
11.8358
11.8585
11.8785
11.8968
11.9144
11.9325
11.9514
11.9704
11.988
12.0022
12.0122
12.0177
12.0203
12.021
1
1
1
1
1
1
1
1
1
1
1
1
1
1
1
1
1
1
1
1
1
1
1
1
1
1
1
1
1
1
1
1
1
1
1
1
1
1
1
1
1
1
1
1
1
1
1
1
1.32663
7.51933
10.3968
10.437
10.4994
10.5579
10.6199
10.6796
10.7344
10.7848
10.8336
10.8836
10.9378
10.9936
11.0492
11.1013
11.1499
11.1965
11.2421
11.2865
11.329
11.3697
11.4093
11.4485
11.4873
11.5249
11.561
11.5961
11.631
11.6659
11.7006
11.7343
11.7659
11.795
11.821
11.8441
11.8645
11.8829
11.9004
11.918
11.9362
11.9544
11.9713
11.9852
11.995
12.0007
12.0034
12.0046
1
1
1
1
1
1
1
1
1
1
1
1
1
1
1
1
1
1
1
1
1
1
1
1
1
1
1
1
1
1
1
1
1
1
1
1
1
1
1
1
1
1
1
1
1
1
1
1
1.20498
7.20245
10.4021
10.427
10.4877
10.5452
10.6061
10.665
10.7195
10.7698
10.8185
10.8685
10.9226
10.9781
11.0337
11.0863
11.136
11.1839
11.2303
11.2747
11.3167
11.3566
11.3956
11.4346
11.4737
11.512
11.5485
11.5833
11.6171
11.6506
11.684
11.7169
11.7484
11.7777
11.8043
11.828
11.8488
11.8673
11.8843
11.9008
11.9173
11.9336
11.9485
11.9609
11.9697
11.9748
11.9773
11.9785
1
1
1
1
1
1
1
1
1
1
1
1
1
1
1
1
1
1
1
1
1
1
1
1
1
1
1
1
1
1
1
1
1
1
1
1
1
1
1
1
1
1
1
1
1
1
1
1
1.00863
6.68161
10.3965
10.4225
10.4795
10.5373
10.5976
10.6559
10.71
10.7598
10.8078
10.8571
10.9102
10.9641
11.0184
11.07
11.1194
11.1677
11.2142
11.2584
11.2997
11.3383
11.3758
11.4136
11.4521
11.4902
11.5264
11.5606
11.5931
11.6249
11.6567
11.6883
11.7194
11.7488
11.776
11.8004
11.8219
11.8409
11.8581
11.8742
11.8899
11.9051
11.9191
11.9309
11.9395
11.9449
11.9477
11.9494
1
1
1
1
1
1
1
1
1
1
1
1
1
1
1
1
1
1
1
1
1
1
1
1
1
1
1
1
1
1
1
1
1
1
1
1
1
1
1
1
1
1
1
1
1
1
1
1
1.00004
5.94922
10.2972
10.384
10.4423
10.5035
10.5648
10.6235
10.6778
10.7279
10.7757
10.824
10.8749
10.9263
10.9785
11.029
11.0781
11.1273
11.1751
11.2205
11.2627
11.3017
11.3388
11.3761
11.4141
11.4522
11.4888
11.5231
11.5552
11.586
11.6166
11.6474
11.6783
11.7082
11.7363
11.7617
11.7841
11.8036
11.8208
11.8363
11.8509
11.8649
11.8778
11.889
11.8974
11.9032
11.9063
11.9086
1
1
1
1
1
1
1
1
1
1
1
1
1
1
1
1
1
1
1
1
1
1
1
1
1
1
1
1
1
1
1
1
1
1
1
1
1
1
1
1
1
1
1
1
1
1
1
1
1
5.00953
10.1434
10.356
10.4148
10.478
10.5402
10.5995
10.6538
10.7042
10.752
10.7998
10.8486
10.8972
10.9465
10.9949
11.0423
11.0908
11.1386
11.1841
11.2266
11.2654
11.3017
11.3376
11.3744
11.4117
11.4479
11.4821
11.5138
11.5436
11.5727
11.6022
11.6322
11.6621
11.6907
11.7167
11.7395
11.7588
11.7753
11.7897
11.8029
11.8154
11.8271
11.8374
11.8456
11.8516
11.855
11.8578
1
1
1
1
1
1
1
1
1
1
1
1
1
1
1
1
1
1
1
1
1
1
1
1
1
1
1
1
1
1
1
1
1
1
1
1
1
1
1
1
1
1
1
1
1
1
1
1
1
3.92715
9.84166
10.327
10.3844
10.4477
10.5093
10.5689
10.6235
10.6742
10.7228
10.7707
10.8179
10.8639
10.9102
10.9559
11.0006
11.0468
11.0932
11.1375
11.179
11.2168
11.2514
11.2855
11.3204
11.3564
11.392
11.4259
11.4572
11.4861
11.5137
11.5416
11.5703
11.5995
11.628
11.6542
11.6769
11.6958
11.7117
11.7253
11.7378
11.7495
11.7608
11.7709
11.7791
11.7855
11.789
11.7922
1
1
1
1
1
1
1
1
1
1
1
1
1
1
1
1
1
1
1
1
1
1
1
1
1
1
1
1
1
1
1
1
1
1
1
1
1
1
1
1
1
1
1
1
1
1
1
1
1
2.80588
9.28186
10.3144
10.3742
10.4337
10.4903
10.5459
10.5977
10.6467
10.6947
10.7418
10.7873
10.8311
10.8743
10.9174
10.9596
11.003
11.0472
11.0895
11.129
11.1651
11.1975
11.2287
11.2605
11.2937
11.3268
11.3588
11.3886
11.4159
11.4416
11.4674
11.4943
11.5224
11.5504
11.5763
11.5986
11.6168
11.6315
11.6439
11.6552
11.6658
11.6759
11.685
11.6923
11.6981
11.7011
11.7039
1
1
1
1
1
1
1
1
1
1
1
1
1
1
1
1
1
1
1
1
1
1
1
1
1
1
1
1
1
1
1
1
1
1
1
1
1
1
1
1
1
1
1
1
1
1
1
1
1
1.79136
8.33012
10.3394
10.3365
10.3994
10.4491
10.5026
10.5532
10.6019
10.651
10.6999
10.7466
10.7905
10.8322
10.8733
10.9136
10.9549
10.9972
11.038
11.0754
11.1098
11.1403
11.169
11.1975
11.2272
11.2573
11.2868
11.3145
11.3396
11.3625
11.3847
11.4074
11.4312
11.4552
11.4774
11.4959
11.5104
11.522
11.5323
11.5425
11.5532
11.5638
11.5733
11.5809
11.5868
11.5898
11.5926
1
1
1
1
1
1
1
1
1
1
1
1
1
1
1
1
1
1
1
1
1
1
1
1
1
1
1
1
1
1
1
1
1
1
1
1
1
1
1
1
1
1
1
1
1
1
1
1
1
1.0296
6.63222
10.3359
10.3592
10.3917
10.4335
10.481
10.5286
10.5743
10.6194
10.6637
10.7058
10.7458
10.7836
10.8207
10.8577
10.8947
10.9323
10.9694
11.0037
11.0353
11.0634
11.0886
11.1132
11.1384
11.1648
11.1912
11.2167
11.2403
11.2615
11.2811
11.3005
11.3207
11.3412
11.3602
11.3757
11.3872
11.3956
11.4026
11.4095
11.4164
11.4225
11.4269
11.4293
11.4312
11.4316
11.4329
1
1
1
1
1
1
1
1
1
1
1
1
1
1
1
1
1
1
1
1
1
1
1
1
1
1
1
1
1
1
1
1
1
1
1
1
1
1
1
1
1
1
1
1
1
1
1
1
1
1.00005
4.5342
9.89032
10.2036
10.266
10.3306
10.3842
10.4335
10.4794
10.5234
10.5664
10.6081
10.6478
10.6855
10.7213
10.7565
10.7915
10.8267
10.8624
10.8969
10.9282
10.9561
10.9796
11.0016
11.0233
11.046
11.0691
11.0921
11.1136
11.1327
11.1492
11.1641
11.1783
11.192
11.2038
11.2117
11.215
11.2147
11.2125
11.2112
11.2122
11.2155
11.2201
11.2241
11.2282
11.2299
11.2321
1
1
1
1
1
1
1
1
1
1
1
1
1
1
1
1
1
1
1
1
1
1
1
1
1
1
1
1
1
1
1
1
1
1
1
1
1
1
1
1
1
1
1
1
1
1
1
1
1
1
2.34046
8.72592
10.1608
10.2051
10.2776
10.3328
10.3813
10.4244
10.4645
10.504
10.5432
10.5817
10.6182
10.6514
10.682
10.7115
10.7408
10.7709
10.8022
10.8307
10.8556
10.8756
10.8927
10.9088
10.9251
10.9419
10.9586
10.9744
10.988
10.9985
11.006
11.0112
11.015
11.0175
11.0179
11.0149
11.0082
10.9996
10.9905
10.9825
10.9746
10.9658
10.9513
10.9324
10.9101
10.89
1
1
1
1
1
1
1
1
1
1
1
1
1
1
1
1
1
1
1
1
1
1
1
1
1
1
1
1
1
1
1
1
1
1
1
1
1
1
1
1
1
1
1
1
1
1
1
1
1
1
1.05548
6.28342
10.2107
10.2276
10.254
10.2904
10.3263
10.3603
10.3923
10.4235
10.4553
10.488
10.5205
10.5509
10.5777
10.602
10.6249
10.6476
10.6724
10.6977
10.7197
10.7374
10.7504
10.7612
10.7714
10.7811
10.7902
10.7983
10.8045
10.8075
10.8058
10.7998
10.7902
10.7777
10.7626
10.7438
10.7195
10.6879
10.6483
10.6025
10.5546
10.5086
10.4723
10.4415
10.4272
10.4206
1
1
1
1
1
1
1
1
1
1
1
1
1
1
1
1
1
1
1
1
1
1
1
1
1
1
1
1
1
1
1
1
1
1
1
1
1
1
1
1
1
1
1
1
1
1
1
1
1
1
1.00008
3.17828
9.22138
10.0853
10.1145
10.1597
10.1999
10.2381
10.2726
10.3041
10.3348
10.3664
10.3992
10.4317
10.4609
10.4844
10.5031
10.5187
10.5341
10.551
10.5674
10.5812
10.5912
10.5979
10.6019
10.6035
10.6029
10.5997
10.5944
10.586
10.5724
10.5524
10.5247
10.4903
10.4512
10.409
10.3623
10.3076
10.2425
10.1693
10.0933
10.0205
9.94066
9.86706
9.76288
9.85657
1
1
1
1
1
1
1
1
1
1
1
1
1
1
1
1
1
1
1
1
1
1
1
1
1
1
1
1
1
1
1
1
1
1
1
1
1
1
1
1
1
1
1
1
1
1
1
1
1
1
1
1.16926
7.18888
10.1363
10.0975
10.1145
10.1399
10.1671
10.1932
10.2173
10.241
10.2663
10.2945
10.324
10.3522
10.375
10.3909
10.4009
10.4069
10.4129
10.4217
10.4306
10.4376
10.4409
10.4379
10.4317
10.4215
10.4071
10.3889
10.3674
10.3415
10.3085
10.2646
10.2086
10.1428
10.0707
9.99118
9.89883
9.78224
9.63444
9.43895
9.18454
8.81145
8.26111
7.34971
5.45927
1
1
1
1
1
1
1
1
1
1
1
1
1
1
1
1
1
1
1
1
1
1
1
1
1
1
1
1
1
1
1
1
1
1
1
1
1
1
1
1
1
1
1
1
1
1
1
1
1
1
1
1.00085
4.5347
9.68773
9.93278
9.98345
10.026
10.0638
10.0954
10.1223
10.1461
10.1678
10.1891
10.211
10.2344
10.2582
10.2766
10.2865
10.2892
10.2891
10.291
10.2955
10.2985
10.2967
10.2883
10.2759
10.2591
10.2366
10.2076
10.1735
10.135
10.0897
10.0326
9.9598
9.87053
9.7693
9.65391
9.52245
9.35607
9.14753
8.8643
8.49876
7.9804
7.31939
6.10031
4.5125
1
1
1
1
1
1
1
1
1
1
1
1
1
1
1
1
1
1
1
1
1
1
1
1
1
1
1
1
1
1
1
1
1
1
1
1
1
1
1
1
1
1
1
1
1
1
1
1
1
1
1
0.999997
1.91629
8.22698
9.87538
9.90046
9.94703
9.98303
10.0161
10.0439
10.0681
10.0886
10.1056
10.1214
10.1377
10.1575
10.1745
10.1813
10.1789
10.1719
10.1654
10.1623
10.1598
10.1524
10.1381
10.1178
10.0929
10.0621
10.0234
9.97719
9.92423
9.86403
9.7915
9.7028
9.59282
9.46575
9.31755
9.1499
8.94486
8.69183
8.36283
7.93479
7.39381
6.63678
5.6371
4.50788
1
1
1
1
1
1
1
1
1
1
1
1
1
1
1
1
1
1
1
1
1
1
1
1
1
1
1
1
1
1
1
1
1
1
1
1
1
1
1
1
1
1
1
1
1
1
1
1
1
1
1
1
1.0302
5.376
9.69455
9.82313
9.86277
9.89795
9.93089
9.95568
9.97771
9.99997
10.0168
10.0304
10.0415
10.0532
10.0637
10.0658
10.0593
10.0482
10.0364
10.0266
10.0176
10.0039
9.98208
9.95268
9.91811
9.87879
9.83218
9.77715
9.71221
9.63785
9.54985
9.4464
9.32031
9.17386
9.00273
8.80703
8.5767
8.29788
7.95366
7.51766
6.9791
6.32276
5.55186
4.70119
1
1
1
1
1
1
1
1
1
1
1
1
1
1
1
1
1
1
1
1
1
1
1
1
1
1
1
1
1
1
1
1
1
1
1
1
1
1
1
1
1
1
1
1
1
1
1
1
1
1
1
1
1
2.18627
8.41254
9.773
9.79379
9.83513
9.85937
9.87653
9.89274
9.91131
9.92503
9.93967
9.95061
9.95772
9.9609
9.95726
9.94592
9.92909
9.91045
9.89273
9.87564
9.856
9.82869
9.79211
9.74726
9.697
9.64053
9.57755
9.50398
9.41903
9.3187
9.20225
9.06419
8.90446
8.72001
8.50858
8.26524
7.97825
7.64129
7.22387
6.7373
6.1842
5.59062
4.9117
1
1
1
1
1
1
1
1
1
1
1
1
1
1
1
1
1
1
1
1
1
1
1
1
1
1
1
1
1
1
1
1
1
1
1
1
1
1
1
1
1
1
1
1
1
1
1
1
1
1
1
1
0.999999
1.04582
5.4103
9.58074
9.73435
9.77234
9.79964
9.81528
9.82777
9.83995
9.84513
9.84982
9.85349
9.85372
9.85095
9.84402
9.83203
9.81333
9.79062
9.76546
9.73839
9.71107
9.67821
9.63634
9.5832
9.52211
9.45432
9.38172
9.30039
9.20748
9.09821
8.97187
8.82608
8.65993
8.47135
8.25617
8.01176
7.72959
7.40618
7.02883
6.60092
6.13964
5.64805
5.11271
1
1
1
1
1
1
1
1
1
1
1
1
1
1
1
1
1
1
1
1
1
1
1
1
1
1
1
1
1
1
1
1
1
1
1
1
1
1
1
1
1
1
1
1
1
1
1
1
1
1
1
1
1
1.00004
2.00202
8.15412
9.71151
9.69614
9.71903
9.73213
9.74658
9.75571
9.75794
9.75689
9.75305
9.74572
9.73658
9.72611
9.71419
9.69531
9.67011
9.63854
9.60258
9.56695
9.52778
9.48239
9.42585
9.35808
9.28062
9.19725
9.10753
9.00855
8.89368
8.76189
8.61256
8.4449
8.2576
8.04587
7.81234
7.53933
7.23742
6.90097
6.52348
6.13109
5.70499
5.26942
1
1
1
1
1
1
1
1
1
1
1
1
1
1
1
1
1
1
1
1
1
1
1
1
1
1
1
1
1
1
1
1
1
1
1
1
1
1
1
1
1
1
1
1
1
1
1
1
1
1
1
1
1
1
1.03138
4.85595
9.34879
9.60407
9.60014
9.62832
9.65441
9.66865
9.67276
9.67122
9.66258
9.64917
9.63378
9.61739
9.60279
9.58231
9.55556
9.5212
9.47875
9.43398
9.38474
9.33272
9.27341
9.20298
9.12024
9.02876
8.93119
8.82576
8.7057
8.57017
8.41914
8.25267
8.07032
7.8672
7.6522
7.39175
7.11877
6.81529
6.48178
6.14184
5.76777
5.4024
1
1
1
1
1
1
1
1
1
1
1
1
1
1
1
1
1
1
1
1
1
1
1
1
1
1
1
1
1
1
1
1
1
1
1
1
1
1
1
1
1
1
1
1
1
1
1
1
1
1
1
1
1
1
1.00002
1.48056
7.48545
9.66232
9.57758
9.57865
9.57387
9.57593
9.57445
9.5704
9.56062
9.54489
9.52643
9.50455
9.48535
9.46144
9.43133
9.39524
9.35077
9.30156
9.24474
9.18645
9.12458
9.05393
8.97044
8.87592
8.77308
8.66203
8.53873
8.40175
8.25135
8.08728
7.91111
7.71617
7.51699
7.27461
7.03046
6.75498
6.46048
6.16082
5.82854
5.50976
1
1
1
1
1
1
1
1
1
1
1
1
1
1
1
1
1
1
1
1
1
1
1
1
1
1
1
1
1
1
1
1
1
1
1
1
1
1
1
1
1
1
1
1
1
1
1
1
1
1
1
1
1
1
1
1.00699
3.81088
8.94556
9.38091
9.42045
9.45691
9.46392
9.46253
9.45906
9.45006
9.43337
9.4123
9.3878
9.36621
9.34007
9.30714
9.26915
9.22461
9.17419
9.11285
9.04905
8.98263
8.91008
8.82698
8.73381
8.62878
8.51374
8.38922
8.25217
8.10457
7.94433
7.77545
7.58774
7.40012
7.17955
6.95952
6.71044
6.44738
6.17931
5.88361
5.60249
1
1
1
1
1
1
1
1
1
1
1
1
1
1
1
1
1
1
1
1
1
1
1
1
1
1
1
1
1
1
1
1
1
1
1
1
1
1
1
1
1
1
1
1
1
1
1
1
1
1
1
1
1
1
1
1
1.21196
6.11288
9.40529
9.37899
9.37789
9.37038
9.36761
9.36542
9.35943
9.34438
9.32299
9.29552
9.26836
9.23674
9.19789
9.15468
9.10736
9.05473
8.9908
8.92279
8.85087
8.77579
8.69326
8.60321
8.49806
8.38175
8.25791
8.12253
7.97965
7.82519
7.66368
7.48444
7.30546
7.10359
6.90032
6.67443
6.43429
6.19269
5.93117
5.67843
1
1
1
1
1
1
1
1
1
1
1
1
1
1
1
1
1
1
1
1
1
1
1
1
1
1
1
1
1
1
1
1
1
1
1
1
1
1
1
1
1
1
1
1
1
1
1
1
1
1
1
1
1
1
1
1
1.00138
2.09975
7.96453
9.32422
9.25454
9.26112
9.2611
9.25966
9.25661
9.24418
9.22386
9.19594
9.16283
9.12703
9.08421
9.03765
8.98865
8.9357
8.87297
8.80274
8.72645
8.65024
8.56603
8.47549
8.37455
8.26041
8.13894
8.00702
7.86851
7.72126
7.56844
7.40021
7.22979
7.04261
6.8516
6.64573
6.42183
6.20389
5.97012
5.74085
1
1
1
1
1
1
1
1
1
1
1
1
1
1
1
1
1
1
1
1
1
1
1
1
1
1
1
1
1
1
1
1
1
1
1
1
1
1
1
1
1
1
1
1
1
1
1
1
1
1
1
1
1
1
1
1
1
1.0347
4.10474
8.88584
9.15602
9.17066
9.17684
9.16984
9.16242
9.14862
9.12829
9.10063
9.06451
9.02588
8.97868
8.92693
8.87559
8.82226
8.76171
8.69146
8.61325
8.5382
8.45302
8.36138
8.26281
8.15275
8.03196
7.90497
7.77186
7.6316
7.48793
7.33094
7.16989
6.993
6.81174
6.62214
6.41293
6.21669
6.00238
5.79398
1
1
1
1
1
1
1
1
1
1
1
1
1
1
1
1
1
1
1
1
1
1
1
1
1
1
1
1
1
1
1
1
1
1
1
1
1
1
1
1
1
1
1
1
1
1
1
1
1
1
1
1
1
1
1
1
1
1.00006
1.24656
5.68666
9.02067
9.15525
9.12826
9.11727
9.09654
9.07071
9.04373
9.01217
8.97628
8.93749
8.88814
8.83107
8.77463
8.71908
8.65773
8.58713
8.50923
8.43453
8.35129
8.26071
8.16338
8.0569
7.93917
7.81287
7.68557
7.55204
7.41659
7.26921
7.11698
6.94917
6.77829
6.60222
6.41107
6.23044
6.03288
5.84167
1
1
1
1
1
1
1
1
1
1
1
1
1
1
1
1
1
1
1
1
1
1
1
1
1
1
1
1
1
1
1
1
1
1
1
1
1
1
1
1
1
1
1
1
1
1
1
1
1
1
1
1
1
1
1
1
1
1
1.00193
1.60982
7.20873
9.16188
9.09977
9.06435
9.01749
8.97665
8.94217
8.91006
8.87639
8.84188
8.79477
8.73832
8.67783
8.62026
8.55996
8.49023
8.41512
8.33869
8.26025
8.1697
8.07362
7.97073
7.85827
7.73595
7.61241
7.48651
7.35616
7.21496
7.07013
6.9115
6.75114
6.58589
6.41336
6.24442
6.06311
5.88396
1
1
1
1
1
1
1
1
1
1
1
1
1
1
1
1
1
1
1
1
1
1
1
1
1
1
1
1
1
1
1
1
1
1
1
1
1
1
1
1
1
1
1
1
1
1
1
1
1
1
1
1
1
1
1
1
1
1
1
1.01073
2.94927
8.28118
8.96612
8.90154
8.86653
8.83574
8.81351
8.79078
8.76701
8.73919
8.69979
8.64993
8.59366
8.53256
8.47142
8.40271
8.32958
8.25307
8.17579
8.08707
7.99319
7.89345
7.78559
7.67012
7.55012
7.42914
7.30254
7.16697
7.02849
6.87853
6.72769
6.57288
6.41505
6.2568
6.08937
5.92009
1
1
1
1
1
1
1
1
1
1
1
1
1
1
1
1
1
1
1
1
1
1
1
1
1
1
1
1
1
1
1
1
1
1
1
1
1
1
1
1
1
1
1
1
1
1
1
1
1
1
1
1
1
1
1
1
1
1
1
1.00001
1.09903
4.30054
8.60244
8.79784
8.76689
8.76186
8.74626
8.72364
8.69689
8.66526
8.6256
8.5773
8.52306
8.46308
8.39663
8.33154
8.2572
8.17944
8.1004
8.01234
7.91966
7.82189
7.71765
7.60875
7.49411
7.37788
7.25609
7.12765
6.99553
6.85405
6.71129
6.56537
6.41706
6.26861
6.11095
5.95118
1
1
1
1
1
1
1
1
1
1
1
1
1
1
1
1
1
1
1
1
1
1
1
1
1
1
1
1
1
1
1
1
1
1
1
1
1
1
1
1
1
1
1
1
1
1
1
1
1
1
1
1
1
1
1
1
1
1
1
1
1.00044
1.28073
5.1387
8.58169
8.70944
8.70959
8.69853
8.67125
8.6382
8.59963
8.55651
8.50832
8.4553
8.39697
8.33102
8.26166
8.19107
8.1128
8.0314
7.94386
7.85168
7.75542
7.65452
7.55001
7.44129
7.32986
7.21281
7.09234
6.96744
6.83433
6.69923
6.56068
6.41937
6.27948
6.12937
5.97907
1
1
1
1
1
1
1
1
1
1
1
1
1
1
1
1
1
1
1
1
1
1
1
1
1
1
1
1
1
1
1
1
1
1
1
1
1
1
1
1
1
1
1
1
1
1
1
1
1
1
1
1
1
1
1
1
1
1
1
1
1
1.00259
1.47477
5.79985
8.5732
8.6867
8.65642
8.62316
8.5843
8.54021
8.49366
8.44499
8.39218
8.33365
8.26879
8.19978
8.12951
8.05399
7.97253
7.88541
7.79389
7.6991
7.60134
7.49997
7.39563
7.28822
7.17496
7.0605
6.94197
6.81563
6.6879
6.55628
6.42171
6.28898
6.1465
6.00562
1
1
1
1
1
1
1
1
1
1
1
1
1
1
1
1
1
1
1
1
1
1
1
1
1
1
1
1
1
1
1
1
1
1
1
1
1
1
1
1
1
1
1
1
1
1
1
1
1
1
1
1
1
1
1
1
1
1
1
1
1
1
1.00678
1.69326
6.36822
8.54868
8.60458
8.57447
8.5317
8.48593
8.43639
8.38535
8.33028
8.27043
8.20668
8.13992
8.0702
7.99548
7.91519
7.83016
7.74109
7.64922
7.55456
7.4557
7.35426
7.24971
7.13989
7.02971
6.9158
6.79471
6.67387
6.54932
6.4222
6.29603
6.16211
6.03009
1
1
1
1
1
1
1
1
1
1
1
1
1
1
1
1
1
1
1
1
1
1
1
1
1
1
1
1
1
1
1
1
1
1
1
1
1
1
1
1
1
1
1
1
1
1
1
1
1
1
1
1
1
1
1
1
1
1
1
1
1
1
1.00001
1.01364
1.9422
6.79818
8.51248
8.52621
8.49274
8.44378
8.39364
8.33829
8.27732
8.21443
8.14906
8.08156
8.01216
7.93934
7.86226
7.78105
7.69604
7.60757
7.51504
7.41821
7.31885
7.21655
7.11006
7.00329
6.89323
6.77684
6.66116
6.54326
6.42329
6.30255
6.17637
6.0519
1
1
1
1
1
1
1
1
1
1
1
1
1
1
1
1
1
1
1
1
1
1
1
1
1
1
1
1
1
1
1
1
1
1
1
1
1
1
1
1
1
1
1
1
1
1
1
1
1
1
1
1
1
1
1
1
1
1
1
1
1
1
1
1.00003
1.02434
2.18695
7.1431
8.47304
8.45435
8.40638
8.34998
8.28884
8.22617
8.16245
8.09504
8.02624
7.95699
7.88551
7.81081
7.73268
7.65119
7.56578
7.47587
7.38192
7.28523
7.18597
7.08337
6.97988
6.87398
6.76278
6.65068
6.53821
6.42429
6.3082
6.18842
6.07022
1
1
1
1
1
1
1
1
1
1
1
1
1
1
1
1
1
1
1
1
1
1
1
1
1
1
1
1
1
1
1
1
1
1
1
1
1
1
1
1
1
1
1
1
1
1
1
1
1
1
1
1
1
1
1
1
1
1
1
1
1
1
1
1
1.00007
1.03805
2.46249
7.39677
8.39746
8.35287
8.30369
8.24034
8.1764
8.11255
8.04729
7.98162
7.91419
7.84355
7.76929
7.69166
7.61082
7.52663
7.4389
7.34779
7.25416
7.15841
7.06003
6.95977
6.85746
6.75102
6.64209
6.53402
6.42537
6.31354
6.19874
6.08577
1
1
1
1
1
1
1
1
1
1
1
1
1
1
1
1
1
1
1
1
1
1
1
1
1
1
1
1
1
1
1
1
1
1
1
1
1
1
1
1
1
1
1
1
1
1
1
1
1
1
1
1
1
1
1
1
1
1
1
1
1
1
1
1
1
1.00013
1.05716
2.75968
7.49269
8.28618
8.2336
8.18001
8.12631
8.0658
8.00418
7.94034
7.87346
7.80327
7.72921
7.65184
7.57175
7.48903
7.40345
7.31529
7.22496
7.13256
7.03786
6.94053
6.84136
6.73923
6.63423
6.53011
6.4258
6.31781
6.20728
6.09858
1
1
1
1
1
1
1
1
1
1
1
1
1
1
1
1
1
1
1
1
1
1
1
1
1
1
1
1
1
1
1
1
1
1
1
1
1
1
1
1
1
1
1
1
1
1
1
1
1
1
1
1
1
1
1
1
1
1
1
1
1
1
1
1
1
1
1.00024
1.08248
2.88244
7.44611
8.17792
8.13466
8.08312
8.02956
7.97187
7.91021
7.84365
7.7717
7.69579
7.61834
7.53885
7.45717
7.37343
7.28769
7.19989
7.11006
7.01804
6.92338
6.82706
6.72839
6.6276
6.52675
6.42582
6.3217
6.21486
6.10994
1
1
1
1
1
1
1
1
1
1
1
1
1
1
1
1
1
1
1
1
1
1
1
1
1
1
1
1
1
1
1
1
1
1
1
1
1
1
1
1
1
1
1
1
1
1
1
1
1
1
1
1
1
1
1
1
1
1
1
1
1
1
1
1
1
1
1
1.00043
1.09584
2.8554
7.34093
8.09507
8.0514
7.99897
7.94094
7.87736
7.81039
7.73824
7.66246
7.58523
7.50674
7.42678
7.34512
7.26144
7.17583
7.08792
6.99773
6.90555
6.81187
6.71709
6.62057
6.52263
6.42567
6.32492
6.22169
6.12075
1
1
1
1
1
1
1
1
1
1
1
1
1
1
1
1
1
1
1
1
1
1
1
1
1
1
1
1
1
1
1
1
1
1
1
1
1
1
1
1
1
1
1
1
1
1
1
1
1
1
1
1
1
1
1
1
1
1
1
1
1
1
1
1
1
1
1
1
1.00055
1.0945
2.80958
7.1716
7.99886
7.96417
7.90235
7.83831
7.76869
7.69831
7.62747
7.55331
7.47682
7.39897
7.31969
7.23846
7.15452
7.06813
6.98055
6.89069
6.79942
6.70772
6.61423
6.52029
6.42558
6.32869
6.23097
6.13162
1
1
1
1
1
1
1
1
1
1
1
1
1
1
1
1
1
1
1
1
1
1
1
1
1
1
1
1
1
1
1
1
1
1
1
1
1
1
1
1
1
1
1
1
1
1
1
1
1
1
1
1
1
1
1
1
1
1
1
1
1
1
1
1
1
1
1
1
1
1.00055
1.09015
2.6985
6.92689
7.89356
7.8668
7.79843
7.73328
7.66436
7.59528
7.5242
7.4501
7.37373
7.29561
7.21594
7.13425
7.05042
6.96462
6.87736
6.78921
6.69908
6.60958
6.5194
6.4259
6.3336
6.23831
6.14488
1
1
1
1
1
1
1
1
1
1
1
1
1
1
1
1
1
1
1
1
1
1
1
1
1
1
1
1
1
1
1
1
1
1
1
1
1
1
1
1
1
1
1
1
1
1
1
1
1
1
1
1
1
1
1
1
1
1
1
1
1
1
1
1
1
1
1
1
1
1
1.00052
1.0797
2.52836
6.58568
7.77736
7.76976
7.69922
7.63648
7.568
7.49748
7.42476
7.3507
7.27404
7.19432
7.11345
7.03172
6.94841
6.86546
6.78195
6.69656
6.60945
6.52021
6.43111
6.34064
6.24989
6.16289
1
1
1
1
1
1
1
1
1
1
1
1
1
1
1
1
1
1
1
1
1
1
1
1
1
1
1
1
1
1
1
1
1
1
1
1
1
1
1
1
1
1
1
1
1
1
1
1
1
1
1
1
1
1
1
1
1
1
1
1
1
1
1
1
1
1
1
1
1
1
1
1.00044
1.06495
2.2996
6.16151
7.6279
7.67239
7.60347
7.54162
7.4721
7.40155
7.3276
7.25094
7.17187
7.09251
7.0142
6.93556
6.85593
6.77548
6.6947
6.61153
6.52726
6.4426
6.35612
6.26964
6.18134
1
1
1
1
1
1
1
1
1
1
1
1
1
1
1
1
1
1
1
1
1
1
1
1
1
1
1
1
1
1
1
1
1
1
1
1
1
1
1
1
1
1
1
1
1
1
1
1
1
1
1
1
1
1
1
1
1
1
1
1
1
1
1
1
1
1
1
1
1
1
1
1
1.00033
1.04754
2.0538
5.56538
7.48185
7.59762
7.50686
7.43881
7.36956
7.30011
7.22982
7.15717
7.0814
7.00449
6.92692
6.84927
6.77176
6.69553
6.61759
6.53751
6.4558
6.3726
6.28808
6.20352
1
1
1
1
1
1
1
1
1
1
1
1
1
1
1
1
1
1
1
1
1
1
1
1
1
1
1
1
1
1
1
1
1
1
1
1
1
1
1
1
1
1
1
1
1
1
1
1
1
1
1
1
1
1
1
1
1
1
1
1
1
1
1
1
1
1
1
1
1
1
1
1
1
1.00021
1.03193
1.78173
4.82696
7.29835
7.49699
7.4139
7.35105
7.28626
7.21834
7.14807
7.07768
7.00659
6.93399
6.85871
6.78135
6.70351
6.62539
6.54735
6.46912
6.38903
6.30876
6.22341
1
1
1
1
1
1
1
1
1
1
1
1
1
1
1
1
1
1
1
1
1
1
1
1
1
1
1
1
1
1
1
1
1
1
1
1
1
1
1
1
1
1
1
1
1
1
1
1
1
1
1
1
1
1
1
1
1
1
1
1
1
1
1
1
1
1
1
1
1
1
1
1
1
1
1.00012
1.01869
1.51931
4.05644
6.98907
7.39534
7.34073
7.28325
7.21318
7.14603
7.07672
7.00585
6.93404
6.86089
6.7874
6.71227
6.63636
6.55968
6.47937
6.3999
6.31522
6.23569
1
1
1
1
1
1
1
1
1
1
1
1
1
1
1
1
1
1
1
1
1
1
1
1
1
1
1
1
1
1
1
1
1
1
1
1
1
1
1
1
1
1
1
1
1
1
1
1
1
1
1
1
1
1
1
1
1
1
1
1
1
1
1
1
1
1
1
1
1
1
1
1
1
1
1
1.00006
1.00931
1.31226
3.30613
6.54224
7.28933
7.28962
7.2022
7.13863
7.07281
7.00471
6.9346
6.86476
6.79187
6.71873
6.64231
6.56596
6.48602
6.4079
6.32497
6.24903
1
1
1
1
1
1
1
1
1
1
1
1
1
1
1
1
1
1
1
1
1
1
1
1
1
1
1
1
1
1
1
1
1
1
1
1
1
1
1
1
1
1
1
1
1
1
1
1
1
1
1
1
1
1
1
1
1
1
1
1
1
1
1
1
1
1
1
1
1
1
1
1
1
1
1
1
1.00002
1.00403
1.16909
2.64667
5.88023
7.13751
7.25859
7.13876
7.07431
7.00984
6.94276
6.87305
6.8008
6.72305
6.6474
6.5683
6.49135
6.41813
6.36844
6.33416
1
1
1
1
1
1
1
1
1
1
1
1
1
1
1
1
1
1
1
1
1
1
1
1
1
1
1
1
1
1
1
1
1
1
1
1
1
1
1
1
1
1
1
1
1
1
1
1
1
1
1
1
1
1
1
1
1
1
1
1
1
1
1
1
1
1
1
1
1
1
1
1
1
1
1
1
1
1.00001
1.00154
1.08303
2.08506
4.99735
6.95021
7.14222
7.075
7.0043
6.9392
6.86925
6.79463
6.72112
6.64264
6.58126
6.54431
6.56695
6.69641
7.02013
1
1
1
1
1
1
1
1
1
1
1
1
1
1
1
1
1
1
1
1
1
1
1
1
1
1
1
1
1
1
1
1
1
1
1
1
1
1
1
1
1
1
1
1
1
1
1
1
1
1
1
1
1
1
1
1
1
1
1
1
1
1
1
1
1
1
1
1
1
1
1
1
1
1
1
1
1
1
1
1.00051
1.03636
1.63843
3.99552
6.60283
7.03941
7.04115
6.94885
6.86313
6.77705
6.73594
6.72858
6.82558
7.09079
7.5342
8.10285
8.69029
1
1
1
1
1
1
1
1
1
1
1
1
1
1
1
1
1
1
1
1
1
1
1
1
1
1
1
1
1
1
1
1
1
1
1
1
1
1
1
1
1
1
1
1
1
1
1
1
1
1
1
1
1
1
1
1
1
1
1
1
1
1
1
1
1
1
1
1
1
1
1
1
1
1
1
1
1
1
1
1
1.00015
1.01388
1.32368
3.06504
5.97526
6.91536
6.91894
6.85664
6.94625
7.15019
7.58061
8.19295
8.84609
9.28698
9.51412
9.60946
1
1
1
1
1
1
1
1
1
1
1
1
1
1
1
1
1
1
1
1
1
1
1
1
1
1
1
1
1
1
1
1
1
1
1
1
1
1
1
1
1
1
1
1
1
1
1
1
1
1
1
1
1
1
1
1
1
1
1
1
1
1
1
1
1
1
1
1
1
1
1
1
1
1
1
1
1
1
1
1
1
1.00004
1.00453
1.14076
2.29744
5.1156
6.46245
7.50054
8.13602
8.84169
9.49215
9.90952
10.1133
10.0967
9.9827
9.86023
1
1
1
1
1
1
1
1
1
1
1
1
1
1
1
1
1
1
1
1
1
1
1
1
1
1
1
1
1
1
1
1
1
1
1
1
1
1
1
1
1
1
1
1
1
1
1
1
1
1
1
1
1
1
1
1
1
1
1
1
1
1
1
1
1
1
1
1
1
1
1
1
1
1
1
1
1
1
1
1
1
1
1.00001
1.00116
1.05435
1.71084
4.39505
9.58253
10.3921
10.5587
10.5921
10.488
10.3805
10.2258
10.037
9.85522
1
1
1
1
1
1
1
1
1
1
1
1
1
1
1
1
1
1
1
1
1
1
1
1
1
1
1
1
1
1
1
1
1
1
1
1
1
1
1
1
1
1
1
1
1
1
1
1
1
1
1
1
1
1
1
1
1
1
1
1
1
1
1
1
1
1
1
1
1
1
1
1
1
1
1
1
1
1
1
1
1
1
1
1
1.00026
1.0177
3.1721
10.6967
11.3081
11.0169
10.7714
10.5173
10.3155
10.143
9.98109
9.84715
1
1
1
1
1
1
1
1
1
1
1
1
1
1
1
1
1
1
1
1
1
1
1
1
1
1
1
1
1
1
1
1
1
1
1
1
1
1
1
1
1
1
1
1
1
1
1
1
1
1
1
1
1
1
1
1
1
1
1
1
1
1
1
1
1
1
1
1
1
1
1
1
1
1
1
1
1
1
1
1
1
1
1
1
1
1.00006
2.94246
9.76891
10.6167
10.4701
10.3875
10.2758
10.1801
10.0983
10.0184
9.95534
1
1
1
1
1
1
1
1
1
1
1
1
1
1
1
1
1
1
1
1
1
1
1
1
1
1
1
1
1
1
1
1
1
1
1
1
1
1
1
1
1
1
1
1
1
1
1
1
1
1
1
1
1
1
1
1
1
1
1
1
1
1
1
1
1
1
1
1
1
1
1
1
1
1
1
1
1
1
1
1
1
1
1
1
1
1
2.06868
8.67018
10.35
10.318
10.3393
10.2978
10.2648
10.2189
10.1656
10.1136
1
1
1
1
1
1
1
1
1
1
1
1
1
1
1
1
1
1
1
1
1
1
1
1
1
1
1
1
1
1
1
1
1
1
1
1
1
1
1
1
1
1
1
1
1
1
1
1
1
1
1
1
1
1
1
1
1
1
1
1
1
1
1
1
1
1
1
1
1
1
1
1
1
1
1
1
1
1
1
1
1
1
1
1
1
1
1.2522
7.39191
10.3835
10.3469
10.3282
10.3058
10.2723
10.2282
10.1771
10.119
1
1
1
1
1
1
1
1
1
1
1
1
1
1
1
1
1
1
1
1
1
1
1
1
1
1
1
1
1
1
1
1
1
1
1
1
1
1
1
1
1
1
1
1
1
1
1
1
1
1
1
1
1
1
1
1
1
1
1
1
1
1
1
1
1
1
1
1
1
1
1
1
1
1
1
1
1
1
1
1
1
1
1
1
1
1
1.00365
5.75123
10.2109
10.314
10.2916
10.2723
10.246
10.2186
10.1877
10.1471
1
1
1
1
1
1
1
1
1
1
1
1
1
1
1
1
1
1
1
1
1
1
1
1
1
1
1
1
1
1
1
1
1
1
1
1
1
1
1
1
1
1
1
1
1
1
1
1
1
1
1
1
1
1
1
1
1
1
1
1
1
1
1
1
1
1
1
1
1
1
1
1
1
1
1
1
1
1
1
1
1
1
1
1
1
1
1
4.13761
9.80091
10.3422
10.3059
10.2818
10.2513
10.219
10.1815
10.1386
1
1
1
1
1
1
1
1
1
1
1
1
1
1
1
1
1
1
1
1
1
1
1
1
1
1
1
1
1
1
1
1
1
1
1
1
1
1
1
1
1
1
1
1
1
1
1
1
1
1
1
1
1
1
1
1
1
1
1
1
1
1
1
1
1
1
1
1
1
1
1
1
1
1
1
1
1
1
1
1
1
1
1
1
1
1
1
2.71195
9.19362
10.3888
10.3278
10.2996
10.2649
10.2308
10.1938
10.1542
1
1
1
1
1
1
1
1
1
1
1
1
1
1
1
1
1
1
1
1
1
1
1
1
1
1
1
1
1
1
1
1
1
1
1
1
1
1
1
1
1
1
1
1
1
1
1
1
1
1
1
1
1
1
1
1
1
1
1
1
1
1
1
1
1
1
1
1
1
1
1
1
1
1
1
1
1
1
1
1
1
1
1
1
1
1
1
1.65299
8.19668
10.4453
10.3702
10.3286
10.2875
10.2467
10.2048
10.1616
1
1
1
1
1
1
1
1
1
1
1
1
1
1
1
1
1
1
1
1
1
1
1
1
1
1
1
1
1
1
1
1
1
1
1
1
1
1
1
1
1
1
1
1
1
1
1
1
1
1
1
1
1
1
1
1
1
1
1
1
1
1
1
1
1
1
1
1
1
1
1
1
1
1
1
1
1
1
1
1
1
1
1
1
1
1
1
1.0708
7.00742
10.4356
10.4202
10.3586
10.3154
10.2685
10.2219
10.1768
1
1
1
1
1
1
1
1
1
1
1
1
1
1
1
1
1
1
1
1
1
1
1
1
1
1
1
1
1
1
1
1
1
1
1
1
1
1
1
1
1
1
1
1
1
1
1
1
1
1
1
1
1
1
1
1
1
1
1
1
1
1
1
1
1
1
1
1
1
1
1
1
1
1
1
1
1
1
1
1
1
1
1
1
1
1
1
1.00032
5.71299
10.2819
10.4047
10.3467
10.3118
10.2695
10.226
10.1839
1
1
1
1
1
1
1
1
1
1
1
1
1
1
1
1
1
1
1
1
1
1
1
1
1
1
1
1
1
1
1
1
1
1
1
1
1
1
1
1
1
1
1
1
1
1
1
1
1
1
1
1
1
1
1
1
1
1
1
1
1
1
1
1
1
1
1
1
1
1
1
1
1
1
1
1
1
1
1
1
1
1
1
1
1
1
1
1
4.49444
10.0372
10.4276
10.3691
10.3365
10.2962
10.2542
10.2114
1
1
1
1
1
1
1
1
1
1
1
1
1
1
1
1
1
1
1
1
1
1
1
1
1
1
1
1
1
1
1
1
1
1
1
1
1
1
1
1
1
1
1
1
1
1
1
1
1
1
1
1
1
1
1
1
1
1
1
1
1
1
1
1
1
1
1
1
1
1
1
1
1
1
1
1
1
1
1
1
1
1
1
1
1
1
1
1
3.42746
9.6913
10.4625
10.3877
10.3513
10.3093
10.2671
10.2238
1
1
1
1
1
1
1
1
1
1
1
1
1
1
1
1
1
1
1
1
1
1
1
1
1
1
1
1
1
1
1
1
1
1
1
1
1
1
1
1
1
1
1
1
1
1
1
1
1
1
1
1
1
1
1
1
1
1
1
1
1
1
1
1
1
1
1
1
1
1
1
1
1
1
1
1
1
1
1
1
1
1
1
1
1
1
1
1
2.5654
9.25476
10.4704
10.3906
10.3528
10.3122
10.2729
10.2322
1
1
1
1
1
1
1
1
1
1
1
1
1
1
1
1
1
1
1
1
1
1
1
1
1
1
1
1
1
1
1
1
1
1
1
1
1
1
1
1
1
1
1
1
1
1
1
1
1
1
1
1
1
1
1
1
1
1
1
1
1
1
1
1
1
1
1
1
1
1
1
1
1
1
1
1
1
1
1
1
1
1
1
1
1
1
1
1
1.9629
8.68563
10.4607
10.391
10.3556
10.3159
10.2787
10.2406
1
1
1
1
1
1
1
1
1
1
1
1
1
1
1
1
1
1
1
1
1
1
1
1
1
1
1
1
1
1
1
1
1
1
1
1
1
1
1
1
1
1
1
1
1
1
1
1
1
1
1
1
1
1
1
1
1
1
1
1
1
1
1
1
1
1
1
1
1
1
1
1
1
1
1
1
1
1
1
1
1
1
1
1
1
1
1
1
1.56163
8.05752
10.4389
10.3848
10.3458
10.3077
10.2718
10.2372
1
1
1
1
1
1
1
1
1
1
1
1
1
1
1
1
1
1
1
1
1
1
1
1
1
1
1
1
1
1
1
1
1
1
1
1
1
1
1
1
1
1
1
1
1
1
1
1
1
1
1
1
1
1
1
1
1
1
1
1
1
1
1
1
1
1
1
1
1
1
1
1
1
1
1
1
1
1
1
1
1
1
1
1
1
1
1
1
1.25781
7.37961
10.4234
10.3977
10.3525
10.32
10.2858
10.2523
1
1
1
1
1
1
1
1
1
1
1
1
1
1
1
1
1
1
1
1
1
1
1
1
1
1
1
1
1
1
1
1
1
1
1
1
1
1
1
1
1
1
1
1
1
1
1
1
1
1
1
1
1
1
1
1
1
1
1
1
1
1
1
1
1
1
1
1
1
1
1
1
1
1
1
1
1
1
1
1
1
1
1
1
1
1
1
1
1.00689
6.68301
10.4085
10.4352
10.3781
10.3434
10.3035
10.2649
1
1
1
1
1
1
1
1
1
1
1
1
1
1
1
1
1
1
1
1
1
1
1
1
1
1
1
1
1
1
1
1
1
1
1
1
1
1
1
1
1
1
1
1
1
1
1
1
1
1
1
1
1
1
1
1
1
1
1
1
1
1
1
1
1
1
1
1
1
1
1
1
1
1
1
1
1
1
1
1
1
1
1
1
1
1
1
1
1.00001
5.95785
10.3341
10.453
10.3864
10.3523
10.3127
10.2755
1
1
1
1
1
1
1
1
1
1
1
1
1
1
1
1
1
1
1
1
1
1
1
1
1
1
1
1
1
1
1
1
1
1
1
1
1
1
1
1
1
1
1
1
1
1
1
1
1
1
1
1
1
1
1
1
1
1
1
1
1
1
1
1
1
1
1
1
1
1
1
1
1
1
1
1
1
1
1
1
1
1
1
1
1
1
1
1
1
5.33314
10.2561
10.4688
10.4009
10.3659
10.3253
10.2862
1
1
1
1
1
1
1
1
1
1
1
1
1
1
1
1
1
1
1
1
1
1
1
1
1
1
1
1
1
1
1
1
1
1
1
1
1
1
1
1
1
1
1
1
1
1
1
1
1
1
1
1
1
1
1
1
1
1
1
1
1
1
1
1
1
1
1
1
1
1
1
1
1
1
1
1
1
1
1
1
1
1
1
1
1
1
1
1
1
4.83797
10.1624
10.4772
10.4091
10.3738
10.3332
10.2934
1
1
1
1
1
1
1
1
1
1
1
1
1
1
1
1
1
1
1
1
1
1
1
1
1
1
1
1
1
1
1
1
1
1
1
1
1
1
1
1
1
1
1
1
1
1
1
1
1
1
1
1
1
1
1
1
1
1
1
1
1
1
1
1
1
1
1
1
1
1
1
1
1
1
1
1
1
1
1
1
1
1
1
1
1
1
1
1
1
4.461
10.0692
10.4839
10.4142
10.3795
10.3398
10.2998
1
1
1
1
1
1
1
1
1
1
1
1
1
1
1
1
1
1
1
1
1
1
1
1
1
1
1
1
1
1
1
1
1
1
1
1
1
1
1
1
1
1
1
1
1
1
1
1
1
1
1
1
1
1
1
1
1
1
1
1
1
1
1
1
1
1
1
1
1
1
1
1
1
1
1
1
1
1
1
1
1
1
1
1
1
1
1
1
1
4.18283
9.98893
10.4913
10.4191
10.3836
10.3436
10.3037
1
1
1
1
1
1
1
1
1
1
1
1
1
1
1
1
1
1
1
1
1
1
1
1
1
1
1
1
1
1
1
1
1
1
1
1
1
1
1
1
1
1
1
1
1
1
1
1
1
1
1
1
1
1
1
1
1
1
1
1
1
1
1
1
1
1
1
1
1
1
1
1
1
1
1
1
1
1
1
1
1
1
1
1
1
1
1
1
1
3.99902
9.92542
10.4933
10.4197
10.3823
10.3424
10.3047
1
1
1
1
1
1
1
1
1
1
1
1
1
1
1
1
1
1
1
1
1
1
1
1
1
1
1
1
1
1
1
1
1
1
1
1
1
1
1
1
1
1
1
1
1
1
1
1
1
1
1
1
1
1
1
1
1
1
1
1
1
1
1
1
1
1
1
1
1
1
1
1
1
1
1
1
1
1
1
1
1
1
1
1
1
1
1
1
1
3.92304
9.88124
10.4849
10.4144
10.3807
10.3418
10.3084
1.04345
0.215132
0.103816
0.0323641
0.0195865
0.0315779
0.0712601
0.129398
0.179267
0.247528
0.341133
0.419641
0.488431
0.563842
0.627632
0.679303
0.748891
0.825381
0.881416
0.945168
0.972193
0.985254
1.00983
1.02825
1.03625
1.04682
1.0635
1.08077
1.09457
1.12005
1.15479
1.17445
1.19155
1.2106
1.22315
1.23611
1.25138
1.25756
1.26128
1.26485
1.26715
1.26821
1.26953
1.27756
1.29275
1.30632
1.33754
1.44221
1.85222
4.08467
6.18775
6.26483
6.29429
6.30347
6.34379
6.36292
6.37713
6.38473
6.38892
6.39097
6.39007
6.38479
6.37238
6.35408
6.33047
6.30234
6.26377
6.21182
6.14642
6.08434
6.02752
5.97479
5.93024
5.89251
5.85571
5.81374
5.76405
5.70941