/*--------------------------------*- C++ -*----------------------------------*\
  =========                 |
  \\      /  F ield         | OpenFOAM: The Open Source CFD Toolbox
   \\    /   O peration     | Website:  https://openfoam.org
    \\  /    A nd           | Version:  7
     \\/     M anipulation  |
\*---------------------------------------------------------------------------*/
FoamFile
{
    version     2.0;
    format      ascii;
    class       volScalarField;
    location    "5.3";
    object      T;
}
// * * * * * * * * * * * * * * * * * * * * * * * * * * * * * * * * * * * * * //

dimensions      [0 0 0 1 0 0 0];

internalField   nonuniform List<scalar> 
19968
(
1
1
1
1
1
1
1
1
1
1
1
1
1
1
1
1
1
1
1
1
1
1
1
1
1
1
1
1
1
1
1
1
1
1
1
1
1
1
1
1
1
1
1
1
1
1
1
1
1.25523
2.44627
2.68758
2.69435
2.69997
2.70414
2.70783
2.71099
2.71382
2.71669
2.72003
2.72415
2.72898
2.73404
2.73861
2.74217
2.7448
2.74709
2.74962
2.75263
2.756
2.75939
2.76246
2.7651
2.76748
2.76981
2.77226
2.77486
2.77751
2.78011
2.78259
2.78493
2.7871
2.78906
2.79079
2.79225
2.79351
2.79466
2.79581
2.79705
2.79839
2.79976
2.80105
2.80215
2.80298
2.8035
2.80377
2.80386
1
1
1
1
1
1
1
1
1
1
1
1
1
1
1
1
1
1
1
1
1
1
1
1
1
1
1
1
1
1
1
1
1
1
1
1
1
1
1
1
1
1
1
1
1
1
1
1
1.24323
2.44019
2.68716
2.69427
2.69983
2.7039
2.70752
2.71065
2.71346
2.71635
2.71975
2.72391
2.72877
2.73381
2.73834
2.74188
2.74452
2.74685
2.74941
2.75243
2.7558
2.75916
2.76221
2.76484
2.76722
2.76958
2.77205
2.77465
2.77728
2.77983
2.78225
2.78454
2.7867
2.78867
2.79041
2.7919
2.79317
2.79433
2.79548
2.79671
2.79802
2.79936
2.80062
2.8017
2.80251
2.80302
2.80329
2.80337
1
1
1
1
1
1
1
1
1
1
1
1
1
1
1
1
1
1
1
1
1
1
1
1
1
1
1
1
1
1
1
1
1
1
1
1
1
1
1
1
1
1
1
1
1
1
1
1
1.21471
2.4244
2.68691
2.69319
2.69883
2.70286
2.70651
2.70971
2.71265
2.71571
2.71922
2.72341
2.72824
2.73318
2.73763
2.74115
2.74386
2.74629
2.74896
2.75204
2.7554
2.75871
2.76169
2.76431
2.76671
2.76912
2.77164
2.77424
2.77682
2.7793
2.78164
2.78388
2.78602
2.788
2.78976
2.79128
2.79258
2.79377
2.79493
2.79615
2.79744
2.79874
2.79997
2.80101
2.8018
2.80229
2.80254
2.80262
1
1
1
1
1
1
1
1
1
1
1
1
1
1
1
1
1
1
1
1
1
1
1
1
1
1
1
1
1
1
1
1
1
1
1
1
1
1
1
1
1
1
1
1
1
1
1
1
1.1713
2.39758
2.68658
2.69174
2.69724
2.70142
2.70526
2.70866
2.71188
2.71518
2.71879
2.72287
2.72752
2.73224
2.73654
2.74004
2.74288
2.74552
2.74837
2.75155
2.75489
2.75809
2.76096
2.76353
2.76597
2.76845
2.77102
2.77361
2.77612
2.77849
2.78073
2.78291
2.78501
2.787
2.78879
2.79033
2.79165
2.79285
2.794
2.79519
2.79642
2.79767
2.79885
2.79987
2.80065
2.80115
2.80141
2.80151
1
1
1
1
1
1
1
1
1
1
1
1
1
1
1
1
1
1
1
1
1
1
1
1
1
1
1
1
1
1
1
1
1
1
1
1
1
1
1
1
1
1
1
1
1
1
1
1
1.11159
2.3603
2.68725
2.69044
2.69563
2.69988
2.70395
2.7077
2.71127
2.71482
2.71848
2.72241
2.72676
2.73112
2.73521
2.7387
2.74176
2.74473
2.74783
2.75111
2.75437
2.75739
2.7601
2.76259
2.76507
2.76763
2.77026
2.77285
2.77528
2.77753
2.77967
2.78179
2.78389
2.78589
2.78772
2.78929
2.79064
2.79183
2.79295
2.79406
2.79517
2.79628
2.79733
2.79824
2.79894
2.79941
2.79965
2.79976
1
1
1
1
1
1
1
1
1
1
1
1
1
1
1
1
1
1
1
1
1
1
1
1
1
1
1
1
1
1
1
1
1
1
1
1
1
1
1
1
1
1
1
1
1
1
1
1
1.00426
2.2952
2.68772
2.68996
2.69438
2.69877
2.70325
2.70756
2.71152
2.71522
2.71884
2.72255
2.72642
2.73019
2.73385
2.73725
2.74054
2.74389
2.74729
2.75062
2.7537
2.75642
2.75885
2.76119
2.76364
2.76625
2.76891
2.77146
2.77378
2.77589
2.77791
2.77994
2.782
2.78402
2.78587
2.78749
2.78888
2.79011
2.79123
2.7923
2.79335
2.79438
2.79536
2.79623
2.79692
2.7974
2.79766
2.7978
1
1
1
1
1
1
1
1
1
1
1
1
1
1
1
1
1
1
1
1
1
1
1
1
1
1
1
1
1
1
1
1
1
1
1
1
1
1
1
1
1
1
1
1
1
1
1
1
1.00002
2.2062
2.68218
2.68725
2.69124
2.69579
2.70054
2.70519
2.70945
2.71335
2.717
2.72054
2.72397
2.72721
2.73052
2.73389
2.73746
2.74126
2.74503
2.7485
2.7515
2.75402
2.75627
2.75855
2.76105
2.76375
2.76648
2.76904
2.77131
2.77333
2.77526
2.77724
2.7793
2.78136
2.78327
2.78496
2.7864
2.78765
2.78876
2.78978
2.79076
2.7917
2.7926
2.79341
2.79408
2.79458
2.79487
2.79506
1
1
1
1
1
1
1
1
1
1
1
1
1
1
1
1
1
1
1
1
1
1
1
1
1
1
1
1
1
1
1
1
1
1
1
1
1
1
1
1
1
1
1
1
1
1
1
1
1
2.07607
2.669
2.68446
2.68853
2.69306
2.69764
2.70211
2.70636
2.71039
2.71418
2.71773
2.72105
2.72415
2.72735
2.73075
2.73443
2.73842
2.74234
2.74584
2.74878
2.75121
2.7534
2.75567
2.75821
2.76099
2.76377
2.76632
2.76853
2.77046
2.77231
2.77423
2.77626
2.77832
2.78028
2.782
2.78346
2.78469
2.78575
2.78668
2.78755
2.78839
2.78919
2.78995
2.79059
2.79111
2.79141
2.79163
1
1
1
1
1
1
1
1
1
1
1
1
1
1
1
1
1
1
1
1
1
1
1
1
1
1
1
1
1
1
1
1
1
1
1
1
1
1
1
1
1
1
1
1
1
1
1
1
1
1.89511
2.63582
2.67871
2.6836
2.68838
2.69284
2.69714
2.70125
2.70532
2.70935
2.71321
2.71679
2.72009
2.7234
2.72684
2.73048
2.73439
2.73825
2.74168
2.74458
2.74701
2.74923
2.75157
2.75418
2.75701
2.75981
2.76235
2.76453
2.76643
2.76823
2.7701
2.77209
2.77414
2.7761
2.77784
2.7793
2.7805
2.7815
2.78238
2.78319
2.78396
2.78473
2.78546
2.7861
2.78663
2.78695
2.78719
1
1
1
1
1
1
1
1
1
1
1
1
1
1
1
1
1
1
1
1
1
1
1
1
1
1
1
1
1
1
1
1
1
1
1
1
1
1
1
1
1
1
1
1
1
1
1
1
1
1.65975
2.57623
2.67211
2.67855
2.68356
2.68782
2.69177
2.69549
2.69931
2.70346
2.70774
2.71181
2.71553
2.71905
2.72254
2.72605
2.72971
2.73336
2.73666
2.73953
2.74206
2.74438
2.74679
2.7494
2.75217
2.75486
2.75731
2.75944
2.7613
2.76307
2.7649
2.76684
2.76887
2.77083
2.77258
2.77403
2.77519
2.77612
2.7769
2.77762
2.77831
2.77899
2.77964
2.78022
2.78071
2.78099
2.78121
1
1
1
1
1
1
1
1
1
1
1
1
1
1
1
1
1
1
1
1
1
1
1
1
1
1
1
1
1
1
1
1
1
1
1
1
1
1
1
1
1
1
1
1
1
1
1
1
1
1.35547
2.47173
2.67054
2.673
2.679
2.68285
2.68656
2.68998
2.69356
2.69764
2.7021
2.7065
2.71054
2.71418
2.71762
2.72096
2.72435
2.72775
2.73095
2.73382
2.73647
2.73894
2.74143
2.74401
2.74666
2.74922
2.75156
2.75363
2.75547
2.75719
2.7589
2.76067
2.76248
2.76423
2.76577
2.76701
2.76795
2.76868
2.76932
2.76996
2.77065
2.77135
2.77203
2.77262
2.77313
2.77343
2.77367
1
1
1
1
1
1
1
1
1
1
1
1
1
1
1
1
1
1
1
1
1
1
1
1
1
1
1
1
1
1
1
1
1
1
1
1
1
1
1
1
1
1
1
1
1
1
1
1
1
1.0138
2.28771
2.67778
2.67762
2.67914
2.68181
2.68505
2.68835
2.6916
2.695
2.69858
2.70219
2.70567
2.70893
2.71203
2.71503
2.71798
2.72095
2.72388
2.72663
2.72928
2.7318
2.73425
2.73671
2.73914
2.74152
2.74374
2.7458
2.74771
2.74948
2.75118
2.75286
2.75453
2.75614
2.75756
2.75867
2.75945
2.76
2.76043
2.76085
2.76127
2.76166
2.76197
2.76219
2.76242
2.76256
2.7627
1
1
1
1
1
1
1
1
1
1
1
1
1
1
1
1
1
1
1
1
1
1
1
1
1
1
1
1
1
1
1
1
1
1
1
1
1
1
1
1
1
1
1
1
1
1
1
1
1
1.00002
2.00291
2.64367
2.6617
2.66624
2.67169
2.67633
2.68042
2.68402
2.68732
2.69055
2.69377
2.69695
2.70002
2.70294
2.70576
2.70854
2.71132
2.71417
2.71703
2.71975
2.72236
2.72475
2.72707
2.7293
2.7315
2.73362
2.73566
2.73761
2.73942
2.74108
2.7426
2.74401
2.7453
2.74636
2.74705
2.74735
2.74735
2.74718
2.74705
2.74709
2.74729
2.74762
2.74791
2.74816
2.74818
2.74827
1
1
1
1
1
1
1
1
1
1
1
1
1
1
1
1
1
1
1
1
1
1
1
1
1
1
1
1
1
1
1
1
1
1
1
1
1
1
1
1
1
1
1
1
1
1
1
1
1
1
1.52702
2.50754
2.6457
2.65424
2.66283
2.66864
2.67328
2.6771
2.68047
2.68369
2.68691
2.69008
2.69311
2.69588
2.69841
2.70087
2.70333
2.70589
2.70858
2.71112
2.71346
2.71551
2.71739
2.7192
2.72099
2.72276
2.72452
2.72624
2.72782
2.7292
2.73037
2.73131
2.73209
2.73268
2.73297
2.73292
2.73263
2.73211
2.73148
2.73093
2.7304
2.72978
2.72857
2.72661
2.72409
2.72197
1
1
1
1
1
1
1
1
1
1
1
1
1
1
1
1
1
1
1
1
1
1
1
1
1
1
1
1
1
1
1
1
1
1
1
1
1
1
1
1
1
1
1
1
1
1
1
1
1
1
1.02579
2.23833
2.65438
2.65429
2.657
2.66116
2.6649
2.66813
2.67111
2.67407
2.67715
2.68031
2.68334
2.68609
2.68849
2.69072
2.69292
2.69516
2.69755
2.69992
2.70199
2.70374
2.70519
2.70655
2.70791
2.70927
2.7106
2.71188
2.71307
2.71402
2.71459
2.71485
2.71479
2.7145
2.71392
2.713
2.71158
2.70949
2.70671
2.70345
2.70001
2.69665
2.69377
2.69077
2.68862
2.68744
1
1
1
1
1
1
1
1
1
1
1
1
1
1
1
1
1
1
1
1
1
1
1
1
1
1
1
1
1
1
1
1
1
1
1
1
1
1
1
1
1
1
1
1
1
1
1
1
1
1
1.00004
1.73321
2.5498
2.63526
2.642
2.64719
2.6507
2.65388
2.65698
2.66017
2.66358
2.66717
2.67071
2.67394
2.67675
2.67914
2.68129
2.68332
2.68531
2.68731
2.68905
2.69045
2.69158
2.69262
2.69356
2.69435
2.69504
2.69558
2.69594
2.69605
2.69585
2.69519
2.69393
2.69215
2.69001
2.68757
2.68466
2.68101
2.67644
2.6711
2.66532
2.65969
2.65475
2.65326
2.65128
2.66611
1
1
1
1
1
1
1
1
1
1
1
1
1
1
1
1
1
1
1
1
1
1
1
1
1
1
1
1
1
1
1
1
1
1
1
1
1
1
1
1
1
1
1
1
1
1
1
1
1
1
1
1.07934
2.32337
2.63551
2.63504
2.63754
2.6406
2.64335
2.64593
2.64867
2.6518
2.65531
2.65892
2.66229
2.66526
2.66779
2.67001
2.67193
2.67351
2.67498
2.67644
2.67756
2.67856
2.67939
2.67964
2.67989
2.67996
2.67975
2.67919
2.67835
2.67721
2.67554
2.6731
2.66979
2.66575
2.66117
2.6559
2.64949
2.64102
2.62985
2.61451
2.59401
2.56432
2.52244
2.46011
2.3334
1
1
1
1
1
1
1
1
1
1
1
1
1
1
1
1
1
1
1
1
1
1
1
1
1
1
1
1
1
1
1
1
1
1
1
1
1
1
1
1
1
1
1
1
1
1
1
1
1
1
1
1.00048
1.99017
2.60449
2.61679
2.62149
2.62599
2.62981
2.63304
2.63623
2.63968
2.64326
2.64675
2.64992
2.65282
2.65562
2.6582
2.66034
2.66192
2.6633
2.66451
2.66564
2.66651
2.66694
2.66682
2.66667
2.66638
2.66563
2.6643
2.66251
2.66035
2.65768
2.65418
2.64957
2.64372
2.6369
2.62886
2.61939
2.60693
2.59069
2.56779
2.53711
2.49256
2.43498
2.32398
2.16339
1
1
1
1
1
1
1
1
1
1
1
1
1
1
1
1
1
1
1
1
1
1
1
1
1
1
1
1
1
1
1
1
1
1
1
1
1
1
1
1
1
1
1
1
1
1
1
1
1
1
1
0.999999
1.37967
2.43304
2.59842
2.60721
2.6133
2.61665
2.61985
2.62332
2.62723
2.6313
2.63507
2.63832
2.64106
2.64376
2.64636
2.64838
2.64984
2.65113
2.6522
2.65313
2.65382
2.65393
2.65357
2.65297
2.6522
2.65096
2.64898
2.64628
2.64296
2.63906
2.63427
2.62831
2.62072
2.61175
2.601
2.58849
2.57265
2.55236
2.52495
2.48771
2.4386
2.36568
2.26105
2.1296
1
1
1
1
1
1
1
1
1
1
1
1
1
1
1
1
1
1
1
1
1
1
1
1
1
1
1
1
1
1
1
1
1
1
1
1
1
1
1
1
1
1
1
1
1
1
1
1
1
1
1
1
1.01396
2.11924
2.59974
2.59886
2.59969
2.60207
2.60537
2.6089
2.61302
2.61789
2.62241
2.62597
2.6286
2.63081
2.63292
2.63461
2.63607
2.63747
2.63864
2.63951
2.64001
2.63988
2.63927
2.6382
2.63686
2.63513
2.63269
2.6294
2.62517
2.62011
2.61398
2.60667
2.5976
2.58685
2.574
2.55891
2.54059
2.51759
2.48811
2.44902
2.39822
2.33195
2.24697
2.14523
1
1
1
1
1
1
1
1
1
1
1
1
1
1
1
1
1
1
1
1
1
1
1
1
1
1
1
1
1
1
1
1
1
1
1
1
1
1
1
1
1
1
1
1
1
1
1
1
1
1
1
1
1.00001
1.46251
2.44898
2.58504
2.58844
2.59217
2.59441
2.59672
2.60007
2.60491
2.60955
2.61342
2.61602
2.61775
2.61919
2.62051
2.62184
2.62318
2.62432
2.62501
2.62524
2.62507
2.62436
2.62298
2.62104
2.61869
2.61572
2.61201
2.60722
2.60134
2.59415
2.58563
2.57535
2.56325
2.54897
2.53218
2.51229
2.48801
2.45844
2.4201
2.37309
2.3163
2.25088
2.16942
1
1
1
1
1
1
1
1
1
1
1
1
1
1
1
1
1
1
1
1
1
1
1
1
1
1
1
1
1
1
1
1
1
1
1
1
1
1
1
1
1
1
1
1
1
1
1
1
1
1
1
1
1
1.02081
2.11869
2.58114
2.58382
2.58498
2.58663
2.58824
2.59077
2.59473
2.59842
2.60132
2.60301
2.60392
2.60471
2.60567
2.60698
2.60842
2.60964
2.61006
2.60993
2.60956
2.60866
2.60709
2.60474
2.60181
2.59827
2.5941
2.58894
2.58256
2.57465
2.56522
2.5541
2.5412
2.52625
2.50875
2.4883
2.46389
2.4349
2.39964
2.35773
2.31013
2.2563
2.19351
1
1
1
1
1
1
1
1
1
1
1
1
1
1
1
1
1
1
1
1
1
1
1
1
1
1
1
1
1
1
1
1
1
1
1
1
1
1
1
1
1
1
1
1
1
1
1
1
1
1
1
1
1
1.00003
1.40189
2.41032
2.57485
2.5749
2.57736
2.57938
2.58209
2.58526
2.58797
2.5898
2.59035
2.59037
2.59045
2.59083
2.59188
2.59329
2.59446
2.59453
2.59407
2.59326
2.592
2.59029
2.58787
2.5847
2.58074
2.57609
2.57059
2.56396
2.55571
2.54583
2.53432
2.52111
2.50603
2.48852
2.46867
2.44463
2.41713
2.3853
2.34806
2.30717
2.26086
2.21094
1
1
1
1
1
1
1
1
1
1
1
1
1
1
1
1
1
1
1
1
1
1
1
1
1
1
1
1
1
1
1
1
1
1
1
1
1
1
1
1
1
1
1
1
1
1
1
1
1
1
1
1
1
1
1.01433
2.03577
2.55562
2.56577
2.56634
2.56944
2.57276
2.5759
2.57815
2.57943
2.57929
2.57865
2.57795
2.57771
2.57816
2.57902
2.57983
2.57972
2.57883
2.57732
2.57523
2.57298
2.57042
2.56723
2.56316
2.55822
2.55246
2.54562
2.53716
2.52706
2.51542
2.50226
2.4875
2.47058
2.45218
2.429
2.40391
2.37497
2.3419
2.3069
2.26637
2.22505
1
1
1
1
1
1
1
1
1
1
1
1
1
1
1
1
1
1
1
1
1
1
1
1
1
1
1
1
1
1
1
1
1
1
1
1
1
1
1
1
1
1
1
1
1
1
1
1
1
1
1
1
1
1
1.00001
1.21489
2.33516
2.5621
2.557
2.55917
2.56147
2.56433
2.56653
2.56778
2.56765
2.56693
2.56595
2.56506
2.56503
2.56511
2.56511
2.56473
2.5635
2.56145
2.55854
2.55559
2.55269
2.54949
2.5455
2.54058
2.5347
2.5277
2.51921
2.50917
2.49769
2.48479
2.4706
2.45441
2.43742
2.41584
2.39338
2.36707
2.33785
2.3071
2.27147
2.23591
1
1
1
1
1
1
1
1
1
1
1
1
1
1
1
1
1
1
1
1
1
1
1
1
1
1
1
1
1
1
1
1
1
1
1
1
1
1
1
1
1
1
1
1
1
1
1
1
1
1
1
1
1
1
1
1.00327
1.84048
2.49516
2.53337
2.54124
2.54756
2.55087
2.55303
2.55452
2.55488
2.55437
2.55344
2.55244
2.55217
2.55185
2.55128
2.55039
2.54881
2.54639
2.54283
2.53909
2.53551
2.53192
2.52786
2.5231
2.51719
2.51005
2.50164
2.49174
2.48063
2.46818
2.45475
2.43933
2.42353
2.4041
2.38406
2.36043
2.33452
2.30712
2.27572
2.2448
1
1
1
1
1
1
1
1
1
1
1
1
1
1
1
1
1
1
1
1
1
1
1
1
1
1
1
1
1
1
1
1
1
1
1
1
1
1
1
1
1
1
1
1
1
1
1
1
1
1
1
1
1
1
1
1
1.09679
2.18244
2.53289
2.53472
2.53728
2.53846
2.53989
2.54138
2.54237
2.5423
2.54183
2.54102
2.54054
2.53998
2.53894
2.53745
2.5354
2.53257
2.52853
2.52411
2.51966
2.51546
2.5111
2.50638
2.50038
2.49313
2.48481
2.47512
2.46448
2.4526
2.43994
2.42545
2.41066
2.39325
2.3751
2.35404
2.3307
2.3063
2.27885
2.25141
1
1
1
1
1
1
1
1
1
1
1
1
1
1
1
1
1
1
1
1
1
1
1
1
1
1
1
1
1
1
1
1
1
1
1
1
1
1
1
1
1
1
1
1
1
1
1
1
1
1
1
1
1
1
1
1
1.00062
1.42191
2.35323
2.51745
2.51666
2.5201
2.52309
2.52541
2.52715
2.52784
2.52794
2.52765
2.52725
2.52684
2.52581
2.52418
2.52199
2.51908
2.51502
2.51018
2.50503
2.5003
2.49535
2.49021
2.48427
2.47703
2.46879
2.4593
2.44894
2.43763
2.42574
2.41232
2.39851
2.38277
2.36615
2.34743
2.32604
2.30448
2.28038
2.25594
1
1
1
1
1
1
1
1
1
1
1
1
1
1
1
1
1
1
1
1
1
1
1
1
1
1
1
1
1
1
1
1
1
1
1
1
1
1
1
1
1
1
1
1
1
1
1
1
1
1
1
1
1
1
1
1
1
1.01566
1.87861
2.47007
2.5005
2.50559
2.50863
2.51015
2.51158
2.51244
2.51294
2.51323
2.51324
2.51315
2.51231
2.51066
2.50855
2.50578
2.50198
2.49712
2.49164
2.48672
2.48133
2.47572
2.46966
2.4625
2.4541
2.44481
2.43468
2.42374
2.41246
2.39997
2.38705
2.37246
2.35707
2.34025
2.3208
2.30191
2.28022
2.25853
1
1
1
1
1
1
1
1
1
1
1
1
1
1
1
1
1
1
1
1
1
1
1
1
1
1
1
1
1
1
1
1
1
1
1
1
1
1
1
1
1
1
1
1
1
1
1
1
1
1
1
1
1
1
1
1
1
1.00003
1.11206
2.1165
2.48269
2.49874
2.49712
2.49794
2.49811
2.4981
2.49824
2.49853
2.49908
2.49944
2.49889
2.49734
2.49521
2.49255
2.4889
2.48415
2.47873
2.47379
2.46843
2.46272
2.45655
2.4495
2.44118
2.43172
2.42181
2.41113
2.40023
2.3883
2.37599
2.36219
2.3479
2.33266
2.31537
2.29847
2.27907
2.2596
1
1
1
1
1
1
1
1
1
1
1
1
1
1
1
1
1
1
1
1
1
1
1
1
1
1
1
1
1
1
1
1
1
1
1
1
1
1
1
1
1
1
1
1
1
1
1
1
1
1
1
1
1
1
1
1
1
1
1.00085
1.25975
2.26519
2.48181
2.48047
2.48141
2.48094
2.4808
2.48107
2.48186
2.48314
2.4845
2.48436
2.48324
2.48115
2.47863
2.47533
2.47089
2.46588
2.46094
2.45608
2.45043
2.44439
2.43764
2.42973
2.42052
2.41076
2.40047
2.38964
2.37784
2.36582
2.35259
2.33912
2.32499
2.30974
2.2943
2.27696
2.25911
1
1
1
1
1
1
1
1
1
1
1
1
1
1
1
1
1
1
1
1
1
1
1
1
1
1
1
1
1
1
1
1
1
1
1
1
1
1
1
1
1
1
1
1
1
1
1
1
1
1
1
1
1
1
1
1
1
1
1
1.00482
1.63522
2.37159
2.45756
2.45476
2.45593
2.45749
2.45972
2.46218
2.46494
2.46744
2.46831
2.46783
2.46639
2.46399
2.46101
2.45701
2.4525
2.44785
2.44339
2.43818
2.43258
2.42633
2.41901
2.41051
2.40107
2.3911
2.38033
2.36866
2.3568
2.34397
2.3311
2.31781
2.30398
2.28972
2.27399
2.25751
1
1
1
1
1
1
1
1
1
1
1
1
1
1
1
1
1
1
1
1
1
1
1
1
1
1
1
1
1
1
1
1
1
1
1
1
1
1
1
1
1
1
1
1
1
1
1
1
1
1
1
1
1
1
1
1
1
1
1
1.00001
1.04446
1.8962
2.41604
2.44321
2.44204
2.44366
2.44524
2.44698
2.44899
2.45093
2.4519
2.45162
2.4506
2.4487
2.44584
2.44263
2.43852
2.43424
2.43011
2.42542
2.4204
2.41477
2.40817
2.40058
2.39185
2.38239
2.372
2.36077
2.34918
2.33679
2.3244
2.31171
2.29866
2.28533
2.27064
2.25527
1
1
1
1
1
1
1
1
1
1
1
1
1
1
1
1
1
1
1
1
1
1
1
1
1
1
1
1
1
1
1
1
1
1
1
1
1
1
1
1
1
1
1
1
1
1
1
1
1
1
1
1
1
1
1
1
1
1
1
1
1.00018
1.12601
2.01722
2.41087
2.43314
2.43588
2.43706
2.43685
2.43676
2.43667
2.43641
2.4357
2.43451
2.43274
2.43014
2.427
2.42365
2.41979
2.41595
2.41182
2.40737
2.40241
2.39663
2.38992
2.38212
2.3734
2.36362
2.35317
2.34216
2.33036
2.31849
2.30633
2.29384
2.28131
2.26741
2.25307
1
1
1
1
1
1
1
1
1
1
1
1
1
1
1
1
1
1
1
1
1
1
1
1
1
1
1
1
1
1
1
1
1
1
1
1
1
1
1
1
1
1
1
1
1
1
1
1
1
1
1
1
1
1
1
1
1
1
1
1
1
1.00112
1.20514
2.09365
2.39632
2.42835
2.4277
2.42726
2.42633
2.42496
2.42347
2.42195
2.42015
2.41792
2.41515
2.41201
2.40881
2.40538
2.40176
2.39795
2.3939
2.38947
2.38442
2.37846
2.37153
2.36363
2.35458
2.34498
2.33475
2.3237
2.31254
2.30103
2.28921
2.27745
2.26441
2.25117
1
1
1
1
1
1
1
1
1
1
1
1
1
1
1
1
1
1
1
1
1
1
1
1
1
1
1
1
1
1
1
1
1
1
1
1
1
1
1
1
1
1
1
1
1
1
1
1
1
1
1
1
1
1
1
1
1
1
1
1
1
1
1.00295
1.28514
2.1457
2.38749
2.41027
2.41309
2.41299
2.41233
2.41103
2.40938
2.40725
2.40465
2.40169
2.39848
2.39514
2.39163
2.38798
2.38424
2.38034
2.37618
2.37151
2.36599
2.35966
2.35244
2.34416
2.3354
2.32599
2.31577
2.30554
2.29494
2.28407
2.27318
2.26124
2.24916
1
1
1
1
1
1
1
1
1
1
1
1
1
1
1
1
1
1
1
1
1
1
1
1
1
1
1
1
1
1
1
1
1
1
1
1
1
1
1
1
1
1
1
1
1
1
1
1
1
1
1
1
1
1
1
1
1
1
1
1
1
1
1
1.00597
1.3654
2.1841
2.37411
2.39013
2.39462
2.39593
2.39611
2.39537
2.39374
2.39158
2.38888
2.38581
2.38253
2.37908
2.37547
2.37173
2.36779
2.36353
2.35877
2.35334
2.34728
2.3405
2.33289
2.32486
2.31625
2.30687
2.29752
2.28796
2.27816
2.26819
2.25742
2.24651
1
1
1
1
1
1
1
1
1
1
1
1
1
1
1
1
1
1
1
1
1
1
1
1
1
1
1
1
1
1
1
1
1
1
1
1
1
1
1
1
1
1
1
1
1
1
1
1
1
1
1
1
1
1
1
1
1
1
1
1
1
1
1
1.00001
1.01072
1.43584
2.21352
2.36268
2.37077
2.37412
2.37599
2.37672
2.37652
2.37567
2.37399
2.37176
2.36922
2.36634
2.36311
2.35955
2.35563
2.35124
2.34631
2.34082
2.33482
2.32829
2.32114
2.31362
2.30569
2.29717
2.28856
2.27994
2.27118
2.26211
2.25246
2.24267
1
1
1
1
1
1
1
1
1
1
1
1
1
1
1
1
1
1
1
1
1
1
1
1
1
1
1
1
1
1
1
1
1
1
1
1
1
1
1
1
1
1
1
1
1
1
1
1
1
1
1
1
1
1
1
1
1
1
1
1
1
1
1
1
1.00002
1.01681
1.50786
2.23589
2.35348
2.35335
2.35437
2.35494
2.35561
2.35611
2.35594
2.3553
2.35407
2.3522
2.34971
2.34663
2.34299
2.33878
2.33399
2.32863
2.32278
2.31648
2.3097
2.30256
2.29509
2.28721
2.27913
2.27122
2.26329
2.25502
2.24626
2.23743
1
1
1
1
1
1
1
1
1
1
1
1
1
1
1
1
1
1
1
1
1
1
1
1
1
1
1
1
1
1
1
1
1
1
1
1
1
1
1
1
1
1
1
1
1
1
1
1
1
1
1
1
1
1
1
1
1
1
1
1
1
1
1
1
1
1.00005
1.02536
1.57805
2.25171
2.34037
2.33789
2.33679
2.33653
2.33626
2.33633
2.33625
2.33587
2.33502
2.33353
2.33136
2.32852
2.325
2.32082
2.31603
2.31072
2.30491
2.29861
2.29185
2.28477
2.27738
2.26976
2.26233
2.25496
2.24722
2.23909
2.23093
1
1
1
1
1
1
1
1
1
1
1
1
1
1
1
1
1
1
1
1
1
1
1
1
1
1
1
1
1
1
1
1
1
1
1
1
1
1
1
1
1
1
1
1
1
1
1
1
1
1
1
1
1
1
1
1
1
1
1
1
1
1
1
1
1
1
1.00009
1.03667
1.60569
2.24914
2.32827
2.32591
2.32373
2.32197
2.32054
2.31939
2.3183
2.31704
2.31557
2.3139
2.31182
2.30921
2.30601
2.30223
2.29784
2.29286
2.28729
2.28114
2.27459
2.2677
2.26061
2.25356
2.24655
2.2392
2.23145
2.2237
1
1
1
1
1
1
1
1
1
1
1
1
1
1
1
1
1
1
1
1
1
1
1
1
1
1
1
1
1
1
1
1
1
1
1
1
1
1
1
1
1
1
1
1
1
1
1
1
1
1
1
1
1
1
1
1
1
1
1
1
1
1
1
1
1
1
1
1.00016
1.04251
1.59933
2.2361
2.31791
2.31541
2.31266
2.30978
2.30685
2.30411
2.30137
2.29879
2.29644
2.29419
2.29186
2.28931
2.28639
2.28299
2.27899
2.27434
2.26908
2.26334
2.25726
2.2509
2.24435
2.23785
2.23089
2.22349
2.21611
1
1
1
1
1
1
1
1
1
1
1
1
1
1
1
1
1
1
1
1
1
1
1
1
1
1
1
1
1
1
1
1
1
1
1
1
1
1
1
1
1
1
1
1
1
1
1
1
1
1
1
1
1
1
1
1
1
1
1
1
1
1
1
1
1
1
1
1
1.00021
1.0418
1.58831
2.21713
2.30624
2.30447
2.30077
2.29708
2.2931
2.28941
2.28589
2.28244
2.27916
2.27612
2.27323
2.27031
2.26717
2.26367
2.2598
2.25541
2.25056
2.24539
2.23985
2.23411
2.22816
2.22181
2.21515
2.20806
1
1
1
1
1
1
1
1
1
1
1
1
1
1
1
1
1
1
1
1
1
1
1
1
1
1
1
1
1
1
1
1
1
1
1
1
1
1
1
1
1
1
1
1
1
1
1
1
1
1
1
1
1
1
1
1
1
1
1
1
1
1
1
1
1
1
1
1
1
1.0002
1.03979
1.56196
2.18907
2.29341
2.29242
2.28843
2.28452
2.28032
2.2763
2.27226
2.26816
2.26411
2.26018
2.25639
2.25266
2.24888
2.24497
2.24086
2.23654
2.2319
2.22717
2.22225
2.21685
2.21136
2.20532
2.19916
1
1
1
1
1
1
1
1
1
1
1
1
1
1
1
1
1
1
1
1
1
1
1
1
1
1
1
1
1
1
1
1
1
1
1
1
1
1
1
1
1
1
1
1
1
1
1
1
1
1
1
1
1
1
1
1
1
1
1
1
1
1
1
1
1
1
1
1
1
1
1.00019
1.03503
1.52013
2.14956
2.27793
2.27994
2.27598
2.27248
2.26847
2.26426
2.25983
2.25531
2.25063
2.24584
2.24115
2.23658
2.232
2.22758
2.2232
2.21872
2.21413
2.20937
2.2046
2.19957
2.19431
2.18918
1
1
1
1
1
1
1
1
1
1
1
1
1
1
1
1
1
1
1
1
1
1
1
1
1
1
1
1
1
1
1
1
1
1
1
1
1
1
1
1
1
1
1
1
1
1
1
1
1
1
1
1
1
1
1
1
1
1
1
1
1
1
1
1
1
1
1
1
1
1
1
1.00016
1.02835
1.46111
2.09972
2.25236
2.26828
2.26409
2.26059
2.25648
2.25224
2.24765
2.24277
2.23762
2.23243
2.22733
2.22226
2.21721
2.21225
2.20742
2.20254
2.19773
2.19301
2.18816
2.18328
2.17815
1
1
1
1
1
1
1
1
1
1
1
1
1
1
1
1
1
1
1
1
1
1
1
1
1
1
1
1
1
1
1
1
1
1
1
1
1
1
1
1
1
1
1
1
1
1
1
1
1
1
1
1
1
1
1
1
1
1
1
1
1
1
1
1
1
1
1
1
1
1
1
1
1.00012
1.02057
1.3929
2.01947
2.22785
2.25671
2.2504
2.24681
2.24311
2.23929
2.23524
2.23076
2.22574
2.22042
2.21498
2.20959
2.20429
2.19919
2.19402
2.18876
2.1835
2.17824
2.173
2.16788
1
1
1
1
1
1
1
1
1
1
1
1
1
1
1
1
1
1
1
1
1
1
1
1
1
1
1
1
1
1
1
1
1
1
1
1
1
1
1
1
1
1
1
1
1
1
1
1
1
1
1
1
1
1
1
1
1
1
1
1
1
1
1
1
1
1
1
1
1
1
1
1
1
1.00007
1.01369
1.30741
1.91194
2.19596
2.23937
2.23463
2.2327
2.23029
2.2272
2.22348
2.21938
2.21492
2.21012
2.20492
2.19941
2.19377
2.18807
2.18237
2.17671
2.17099
2.16542
2.15956
1
1
1
1
1
1
1
1
1
1
1
1
1
1
1
1
1
1
1
1
1
1
1
1
1
1
1
1
1
1
1
1
1
1
1
1
1
1
1
1
1
1
1
1
1
1
1
1
1
1
1
1
1
1
1
1
1
1
1
1
1
1
1
1
1
1
1
1
1
1
1
1
1
1
1.00004
1.0079
1.21389
1.78705
2.15152
2.21839
2.21752
2.21722
2.21554
2.21351
2.2107
2.20726
2.20331
2.19887
2.19407
2.18887
2.18339
2.17769
2.17157
2.16552
2.15902
2.15303
1
1
1
1
1
1
1
1
1
1
1
1
1
1
1
1
1
1
1
1
1
1
1
1
1
1
1
1
1
1
1
1
1
1
1
1
1
1
1
1
1
1
1
1
1
1
1
1
1
1
1
1
1
1
1
1
1
1
1
1
1
1
1
1
1
1
1
1
1
1
1
1
1
1
1
1.00002
1.00383
1.13212
1.65245
2.10065
2.18978
2.20097
2.19801
2.1979
2.19709
2.19549
2.19313
2.19022
2.18652
2.18232
2.17741
2.17217
2.16634
2.1604
2.15408
2.1478
1
1
1
1
1
1
1
1
1
1
1
1
1
1
1
1
1
1
1
1
1
1
1
1
1
1
1
1
1
1
1
1
1
1
1
1
1
1
1
1
1
1
1
1
1
1
1
1
1
1
1
1
1
1
1
1
1
1
1
1
1
1
1
1
1
1
1
1
1
1
1
1
1
1
1
1
1.00001
1.0016
1.07182
1.52177
2.02485
2.15812
2.18908
2.18082
2.18104
2.18066
2.17971
2.1781
2.17575
2.17239
2.16862
2.16393
2.15917
2.15437
2.15119
2.15149
1
1
1
1
1
1
1
1
1
1
1
1
1
1
1
1
1
1
1
1
1
1
1
1
1
1
1
1
1
1
1
1
1
1
1
1
1
1
1
1
1
1
1
1
1
1
1
1
1
1
1
1
1
1
1
1
1
1
1
1
1
1
1
1
1
1
1
1
1
1
1
1
1
1
1
1
1
1
1.00058
1.03505
1.38831
1.90961
2.13106
2.16942
2.16655
2.16451
2.16358
2.16228
2.16017
2.15794
2.15514
2.15272
2.15418
2.15941
2.17495
2.20886
1
1
1
1
1
1
1
1
1
1
1
1
1
1
1
1
1
1
1
1
1
1
1
1
1
1
1
1
1
1
1
1
1
1
1
1
1
1
1
1
1
1
1
1
1
1
1
1
1
1
1
1
1
1
1
1
1
1
1
1
1
1
1
1
1
1
1
1
1
1
1
1
1
1
1
1
1
1
1
1.00018
1.01523
1.25198
1.76068
2.0916
2.14616
2.15372
2.14955
2.14632
2.14202
2.14319
2.14786
2.16229
2.19205
2.23548
2.28739
2.33875
1
1
1
1
1
1
1
1
1
1
1
1
1
1
1
1
1
1
1
1
1
1
1
1
1
1
1
1
1
1
1
1
1
1
1
1
1
1
1
1
1
1
1
1
1
1
1
1
1
1
1
1
1
1
1
1
1
1
1
1
1
1
1
1
1
1
1
1
1
1
1
1
1
1
1
1
1
1
1
1
1.00005
1.00572
1.13484
1.59973
2.01841
2.12286
2.13365
2.13267
2.14438
2.16676
2.20762
2.26121
2.31562
2.35334
2.37367
2.38659
1
1
1
1
1
1
1
1
1
1
1
1
1
1
1
1
1
1
1
1
1
1
1
1
1
1
1
1
1
1
1
1
1
1
1
1
1
1
1
1
1
1
1
1
1
1
1
1
1
1
1
1
1
1
1
1
1
1
1
1
1
1
1
1
1
1
1
1
1
1
1
1
1
1
1
1
1
1
1
1
1
1.00001
1.00178
1.05921
1.43634
1.91542
2.0691
2.16937
2.22431
2.28014
2.32948
2.36226
2.37941
2.38318
2.37953
2.37618
1
1
1
1
1
1
1
1
1
1
1
1
1
1
1
1
1
1
1
1
1
1
1
1
1
1
1
1
1
1
1
1
1
1
1
1
1
1
1
1
1
1
1
1
1
1
1
1
1
1
1
1
1
1
1
1
1
1
1
1
1
1
1
1
1
1
1
1
1
1
1
1
1
1
1
1
1
1
1
1
1
1
1
1.00043
1.02258
1.27313
1.8073
2.34437
2.41107
2.41825
2.41702
2.40881
2.40081
2.39064
2.37943
2.36914
1
1
1
1
1
1
1
1
1
1
1
1
1
1
1
1
1
1
1
1
1
1
1
1
1
1
1
1
1
1
1
1
1
1
1
1
1
1
1
1
1
1
1
1
1
1
1
1
1
1
1
1
1
1
1
1
1
1
1
1
1
1
1
1
1
1
1
1
1
1
1
1
1
1
1
1
1
1
1
1
1
1
1
1
1.00009
1.00717
1.71724
2.6437
2.62346
2.57659
2.53079
2.48749
2.45283
2.42552
2.40348
2.38736
1
1
1
1
1
1
1
1
1
1
1
1
1
1
1
1
1
1
1
1
1
1
1
1
1
1
1
1
1
1
1
1
1
1
1
1
1
1
1
1
1
1
1
1
1
1
1
1
1
1
1
1
1
1
1
1
1
1
1
1
1
1
1
1
1
1
1
1
1
1
1
1
1
1
1
1
1
1
1
1
1
1
1
1
1
1.00002
1.73189
2.68858
2.67368
2.64203
2.61071
2.57485
2.54064
2.51002
2.48272
2.45944
1
1
1
1
1
1
1
1
1
1
1
1
1
1
1
1
1
1
1
1
1
1
1
1
1
1
1
1
1
1
1
1
1
1
1
1
1
1
1
1
1
1
1
1
1
1
1
1
1
1
1
1
1
1
1
1
1
1
1
1
1
1
1
1
1
1
1
1
1
1
1
1
1
1
1
1
1
1
1
1
1
1
1
1
1
1
1.47106
2.57667
2.7012
2.68899
2.67618
2.65632
2.63512
2.61244
2.58914
2.56544
1
1
1
1
1
1
1
1
1
1
1
1
1
1
1
1
1
1
1
1
1
1
1
1
1
1
1
1
1
1
1
1
1
1
1
1
1
1
1
1
1
1
1
1
1
1
1
1
1
1
1
1
1
1
1
1
1
1
1
1
1
1
1
1
1
1
1
1
1
1
1
1
1
1
1
1
1
1
1
1
1
1
1
1
1
1
1.13021
2.39026
2.69895
2.69584
2.69242
2.68686
2.67859
2.66776
2.6548
2.63938
1
1
1
1
1
1
1
1
1
1
1
1
1
1
1
1
1
1
1
1
1
1
1
1
1
1
1
1
1
1
1
1
1
1
1
1
1
1
1
1
1
1
1
1
1
1
1
1
1
1
1
1
1
1
1
1
1
1
1
1
1
1
1
1
1
1
1
1
1
1
1
1
1
1
1
1
1
1
1
1
1
1
1
1
1
1
1.00176
2.18151
2.67826
2.69154
2.68984
2.68778
2.68492
2.68133
2.67659
2.67022
1
1
1
1
1
1
1
1
1
1
1
1
1
1
1
1
1
1
1
1
1
1
1
1
1
1
1
1
1
1
1
1
1
1
1
1
1
1
1
1
1
1
1
1
1
1
1
1
1
1
1
1
1
1
1
1
1
1
1
1
1
1
1
1
1
1
1
1
1
1
1
1
1
1
1
1
1
1
1
1
1
1
1
1
1
1
1
1.93745
2.63799
2.68788
2.68541
2.68426
2.6824
2.6799
2.67652
2.67265
1
1
1
1
1
1
1
1
1
1
1
1
1
1
1
1
1
1
1
1
1
1
1
1
1
1
1
1
1
1
1
1
1
1
1
1
1
1
1
1
1
1
1
1
1
1
1
1
1
1
1
1
1
1
1
1
1
1
1
1
1
1
1
1
1
1
1
1
1
1
1
1
1
1
1
1
1
1
1
1
1
1
1
1
1
1
1
1.64117
2.57492
2.68389
2.67985
2.67893
2.67745
2.67586
2.67388
2.67137
1
1
1
1
1
1
1
1
1
1
1
1
1
1
1
1
1
1
1
1
1
1
1
1
1
1
1
1
1
1
1
1
1
1
1
1
1
1
1
1
1
1
1
1
1
1
1
1
1
1
1
1
1
1
1
1
1
1
1
1
1
1
1
1
1
1
1
1
1
1
1
1
1
1
1
1
1
1
1
1
1
1
1
1
1
1
1
1.30508
2.46214
2.68448
2.68007
2.67813
2.67584
2.67345
2.67104
2.66864
1
1
1
1
1
1
1
1
1
1
1
1
1
1
1
1
1
1
1
1
1
1
1
1
1
1
1
1
1
1
1
1
1
1
1
1
1
1
1
1
1
1
1
1
1
1
1
1
1
1
1
1
1
1
1
1
1
1
1
1
1
1
1
1
1
1
1
1
1
1
1
1
1
1
1
1
1
1
1
1
1
1
1
1
1
1
1
1.03898
2.33497
2.68974
2.68805
2.68301
2.67956
2.67599
2.67263
2.66956
1
1
1
1
1
1
1
1
1
1
1
1
1
1
1
1
1
1
1
1
1
1
1
1
1
1
1
1
1
1
1
1
1
1
1
1
1
1
1
1
1
1
1
1
1
1
1
1
1
1
1
1
1
1
1
1
1
1
1
1
1
1
1
1
1
1
1
1
1
1
1
1
1
1
1
1
1
1
1
1
1
1
1
1
1
1
1
1.00017
2.17885
2.68592
2.6915
2.68695
2.68383
2.68009
2.6763
2.67274
1
1
1
1
1
1
1
1
1
1
1
1
1
1
1
1
1
1
1
1
1
1
1
1
1
1
1
1
1
1
1
1
1
1
1
1
1
1
1
1
1
1
1
1
1
1
1
1
1
1
1
1
1
1
1
1
1
1
1
1
1
1
1
1
1
1
1
1
1
1
1
1
1
1
1
1
1
1
1
1
1
1
1
1
1
1
1
1
2.00087
2.6682
2.69663
2.6919
2.68876
2.68497
2.68103
2.67706
1
1
1
1
1
1
1
1
1
1
1
1
1
1
1
1
1
1
1
1
1
1
1
1
1
1
1
1
1
1
1
1
1
1
1
1
1
1
1
1
1
1
1
1
1
1
1
1
1
1
1
1
1
1
1
1
1
1
1
1
1
1
1
1
1
1
1
1
1
1
1
1
1
1
1
1
1
1
1
1
1
1
1
1
1
1
1
1
1.80804
2.63591
2.69996
2.69391
2.69026
2.68619
2.6821
2.67799
1
1
1
1
1
1
1
1
1
1
1
1
1
1
1
1
1
1
1
1
1
1
1
1
1
1
1
1
1
1
1
1
1
1
1
1
1
1
1
1
1
1
1
1
1
1
1
1
1
1
1
1
1
1
1
1
1
1
1
1
1
1
1
1
1
1
1
1
1
1
1
1
1
1
1
1
1
1
1
1
1
1
1
1
1
1
1
1
1.60697
2.59067
2.69946
2.69318
2.6895
2.68559
2.68179
2.67793
1
1
1
1
1
1
1
1
1
1
1
1
1
1
1
1
1
1
1
1
1
1
1
1
1
1
1
1
1
1
1
1
1
1
1
1
1
1
1
1
1
1
1
1
1
1
1
1
1
1
1
1
1
1
1
1
1
1
1
1
1
1
1
1
1
1
1
1
1
1
1
1
1
1
1
1
1
1
1
1
1
1
1
1
1
1
1
1
1.42605
2.53158
2.69825
2.69254
2.68884
2.68504
2.68171
2.6784
1
1
1
1
1
1
1
1
1
1
1
1
1
1
1
1
1
1
1
1
1
1
1
1
1
1
1
1
1
1
1
1
1
1
1
1
1
1
1
1
1
1
1
1
1
1
1
1
1
1
1
1
1
1
1
1
1
1
1
1
1
1
1
1
1
1
1
1
1
1
1
1
1
1
1
1
1
1
1
1
1
1
1
1
1
1
1
1
1.27591
2.4631
2.69497
2.69044
2.68706
2.68395
2.68131
2.67903
1
1
1
1
1
1
1
1
1
1
1
1
1
1
1
1
1
1
1
1
1
1
1
1
1
1
1
1
1
1
1
1
1
1
1
1
1
1
1
1
1
1
1
1
1
1
1
1
1
1
1
1
1
1
1
1
1
1
1
1
1
1
1
1
1
1
1
1
1
1
1
1
1
1
1
1
1
1
1
1
1
1
1
1
1
1
1
1
1.13834
2.38273
2.68941
2.68823
2.68641
2.68532
2.68381
2.68235
1
1
1
1
1
1
1
1
1
1
1
1
1
1
1
1
1
1
1
1
1
1
1
1
1
1
1
1
1
1
1
1
1
1
1
1
1
1
1
1
1
1
1
1
1
1
1
1
1
1
1
1
1
1
1
1
1
1
1
1
1
1
1
1
1
1
1
1
1
1
1
1
1
1
1
1
1
1
1
1
1
1
1
1
1
1
1
1
1.00342
2.29215
2.68063
2.69222
2.69005
2.68955
2.68832
2.68684
1
1
1
1
1
1
1
1
1
1
1
1
1
1
1
1
1
1
1
1
1
1
1
1
1
1
1
1
1
1
1
1
1
1
1
1
1
1
1
1
1
1
1
1
1
1
1
1
1
1
1
1
1
1
1
1
1
1
1
1
1
1
1
1
1
1
1
1
1
1
1
1
1
1
1
1
1
1
1
1
1
1
1
1
1
1
1
1
1
2.2004
2.67138
2.69772
2.69373
2.6933
2.69224
2.69108
1
1
1
1
1
1
1
1
1
1
1
1
1
1
1
1
1
1
1
1
1
1
1
1
1
1
1
1
1
1
1
1
1
1
1
1
1
1
1
1
1
1
1
1
1
1
1
1
1
1
1
1
1
1
1
1
1
1
1
1
1
1
1
1
1
1
1
1
1
1
1
1
1
1
1
1
1
1
1
1
1
1
1
1
1
1
1
1
1
2.11777
2.66798
2.70088
2.69673
2.69627
2.69523
2.69406
1
1
1
1
1
1
1
1
1
1
1
1
1
1
1
1
1
1
1
1
1
1
1
1
1
1
1
1
1
1
1
1
1
1
1
1
1
1
1
1
1
1
1
1
1
1
1
1
1
1
1
1
1
1
1
1
1
1
1
1
1
1
1
1
1
1
1
1
1
1
1
1
1
1
1
1
1
1
1
1
1
1
1
1
1
1
1
1
1
2.04804
2.66503
2.70269
2.69844
2.69775
2.69652
2.69519
1
1
1
1
1
1
1
1
1
1
1
1
1
1
1
1
1
1
1
1
1
1
1
1
1
1
1
1
1
1
1
1
1
1
1
1
1
1
1
1
1
1
1
1
1
1
1
1
1
1
1
1
1
1
1
1
1
1
1
1
1
1
1
1
1
1
1
1
1
1
1
1
1
1
1
1
1
1
1
1
1
1
1
1
1
1
1
1
1
1.99122
2.66159
2.70414
2.69956
2.69837
2.69679
2.6952
1
1
1
1
1
1
1
1
1
1
1
1
1
1
1
1
1
1
1
1
1
1
1
1
1
1
1
1
1
1
1
1
1
1
1
1
1
1
1
1
1
1
1
1
1
1
1
1
1
1
1
1
1
1
1
1
1
1
1
1
1
1
1
1
1
1
1
1
1
1
1
1
1
1
1
1
1
1
1
1
1
1
1
1
1
1
1
1
1
1.94634
2.65789
2.70543
2.70043
2.69855
2.69642
2.69439
1
1
1
1
1
1
1
1
1
1
1
1
1
1
1
1
1
1
1
1
1
1
1
1
1
1
1
1
1
1
1
1
1
1
1
1
1
1
1
1
1
1
1
1
1
1
1
1
1
1
1
1
1
1
1
1
1
1
1
1
1
1
1
1
1
1
1
1
1
1
1
1
1
1
1
1
1
1
1
1
1
1
1
1
1
1
1
1
1
1.91496
2.65442
2.70609
2.7008
2.6983
2.69561
2.69328
1
1
1
1
1
1
1
1
1
1
1
1
1
1
1
1
1
1
1
1
1
1
1
1
1
1
1
1
1
1
1
1
1
1
1
1
1
1
1
1
1
1
1
1
1
1
1
1
1
1
1
1
1
1
1
1
1
1
1
1
1
1
1
1
1
1
1
1
1
1
1
1
1
1
1
1
1
1
1
1
1
1
1
1
1
1
1
1
1
1.90216
2.652
2.70575
2.70059
2.69809
2.69524
2.69303
1.48129
0.911593
0.853494
0.748192
0.66272
0.775044
0.955159
1.05328
1.10148
1.17363
1.28816
1.37112
1.41288
1.44298
1.45541
1.4637
1.48575
1.5187
1.55496
1.59878
1.60286
1.5946
1.58395
1.58214
1.58481
1.59515
1.61248
1.62183
1.62106
1.62171
1.62541
1.63276
1.64785
1.66241
1.66328
1.66008
1.65497
1.65034
1.65003
1.6512
1.65127
1.64925
1.64429
1.64088
1.64098
1.64261
1.65236
1.68949
1.81671
2.31521
2.61686
2.61492
2.61105
2.60832
2.61227
2.61614
2.61838
2.61791
2.61591
2.6121
2.60664
2.60049
2.59443
2.58896
2.58335
2.57752
2.57079
2.56298
2.55426
2.54673
2.5405
2.53516
2.53084
2.52702
2.52244
2.51595
2.50747
2.49807
2.48938
2.4824
2.47763
2.47467
2.47157
2.46709
2.46201
2.45653
2.45115
2.44591