/*--------------------------------*- C++ -*----------------------------------*\
  =========                 |
  \\      /  F ield         | OpenFOAM: The Open Source CFD Toolbox
   \\    /   O peration     | Website:  https://openfoam.org
    \\  /    A nd           | Version:  7
     \\/     M anipulation  |
\*---------------------------------------------------------------------------*/
FoamFile
{
    version     2.0;
    format      ascii;
    class       volVectorField;
    location    "5.3";
    object      U;
}
// * * * * * * * * * * * * * * * * * * * * * * * * * * * * * * * * * * * * * //

dimensions      [0 1 -1 0 0 0 0];

internalField   nonuniform List<vector> 
19968
(
(3 1.49847e-17 0)
(3 3.21112e-17 0)
(3 -5.89319e-17 0)
(3 -1.30127e-16 0)
(3 1.37939e-16 0)
(3 6.79805e-16 0)
(3 7.0675e-16 0)
(3 5.24319e-16 0)
(3 2.58044e-16 0)
(3 4.80283e-16 0)
(3 6.25433e-16 0)
(3 4.41526e-16 0)
(3 4.36664e-16 0)
(3 9.7491e-16 0)
(3 9.00476e-16 0)
(3 5.75845e-16 0)
(3 4.41697e-16 0)
(3 7.3143e-16 0)
(3 3.92172e-16 0)
(3 -2.60739e-16 0)
(3 -9.00831e-16 0)
(3 -5.77601e-16 0)
(3 4.46917e-16 0)
(3 9.25285e-16 0)
(3 8.57006e-16 0)
(3 -9.0342e-17 0)
(3 -5.45954e-16 0)
(3 -1.45357e-16 0)
(3 1.89027e-15 0)
(3 1.9898e-15 0)
(3 1.75295e-15 0)
(3 2.95142e-16 0)
(3 -3.68041e-16 0)
(3 -4.13328e-16 0)
(3 -4.82544e-16 0)
(3 -2.5675e-16 0)
(3 4.31201e-16 0)
(3 1.09581e-15 0)
(3 1.633e-16 0)
(3 -1.12018e-15 0)
(3 -1.41091e-15 0)
(3 -1.31007e-15 0)
(3 -1.49308e-15 0)
(3 -1.22164e-15 0)
(3 -6.07499e-17 0)
(3 3.87548e-16 0)
(3 -1.13209e-16 0)
(3 -9.20619e-16 0)
(2.82385 0.00178749 0)
(0.977447 0.00524882 0)
(0.759079 0.00882688 0)
(0.742572 0.00810899 0)
(0.727376 0.0079319 0)
(0.712911 0.00818063 0)
(0.697772 0.00868185 0)
(0.682184 0.00915547 0)
(0.666646 0.0091911 0)
(0.651836 0.00868773 0)
(0.637824 0.00819752 0)
(0.62382 0.00830157 0)
(0.608824 0.00902592 0)
(0.592533 0.00976018 0)
(0.57588 0.00972312 0)
(0.560089 0.00916261 0)
(0.545176 0.00899638 0)
(0.530368 0.00929925 0)
(0.515214 0.00964707 0)
(0.499777 0.0098607 0)
(0.484201 0.0099698 0)
(0.468545 0.0100234 0)
(0.452792 0.0100887 0)
(0.436918 0.0102034 0)
(0.420966 0.0103456 0)
(0.405007 0.0104932 0)
(0.389035 0.0106293 0)
(0.37298 0.0107393 0)
(0.356753 0.0108316 0)
(0.340306 0.0109191 0)
(0.323675 0.0110054 0)
(0.30693 0.0110959 0)
(0.290104 0.0111966 0)
(0.273187 0.0113085 0)
(0.256165 0.011433 0)
(0.239057 0.0115735 0)
(0.221889 0.0117337 0)
(0.204643 0.0119177 0)
(0.187231 0.0121281 0)
(0.16952 0.0123639 0)
(0.151395 0.0126257 0)
(0.132809 0.0129154 0)
(0.113766 0.013235 0)
(0.0942695 0.0135708 0)
(0.0742705 0.0139291 0)
(0.0536467 0.0143026 0)
(0.0324638 0.014496 0)
(0.0109484 0.0147296 0)
(3 -8.4256e-17 0)
(3 -3.10629e-16 0)
(3 -3.45228e-16 0)
(3 -1.48011e-16 0)
(3 8.4029e-16 0)
(3 1.58588e-15 0)
(3 9.48624e-16 0)
(3 2.81341e-16 0)
(3 -1.13394e-16 0)
(3 -9.5231e-17 0)
(3 -2.56055e-16 0)
(3 -3.45727e-16 0)
(3 -1.28203e-16 0)
(3 8.7646e-16 0)
(3 9.58479e-16 0)
(3 7.12221e-16 0)
(3 2.94382e-16 0)
(3 1.26731e-16 0)
(3 -4.66944e-16 0)
(3 -1.06384e-15 0)
(3 -1.11112e-15 0)
(3 -4.15553e-16 0)
(3 5.99913e-16 0)
(3 8.39169e-16 0)
(3 6.70567e-16 0)
(3 -4.67758e-17 0)
(3 -1.13598e-16 0)
(3 1.21453e-15 0)
(3 1.74232e-15 0)
(3 1.95718e-15 0)
(3 1.85214e-15 0)
(3 8.16254e-16 0)
(3 -3.06007e-17 0)
(3 1.86121e-16 0)
(3 1.17429e-16 0)
(3 2.45878e-16 0)
(3 2.83717e-16 0)
(3 5.30947e-16 0)
(3 6.42289e-16 0)
(3 -8.39609e-16 0)
(3 -1.90575e-15 0)
(3 -2.02717e-15 0)
(3 -1.88947e-15 0)
(3 -1.30814e-15 0)
(3 6.51318e-17 0)
(3 2.66734e-16 0)
(3 1.15577e-16 0)
(3 -9.70904e-16 0)
(2.83534 0.0104894 0)
(0.980994 0.026198 0)
(0.754621 0.0310452 0)
(0.73815 0.0246478 0)
(0.722944 0.0234191 0)
(0.708645 0.024133 0)
(0.693752 0.025708 0)
(0.678517 0.0272042 0)
(0.663336 0.0275604 0)
(0.648713 0.0265061 0)
(0.63454 0.0252948 0)
(0.620179 0.0254723 0)
(0.605054 0.027322 0)
(0.588918 0.0292576 0)
(0.572542 0.0292144 0)
(0.556928 0.0278537 0)
(0.541906 0.0274807 0)
(0.526929 0.0283624 0)
(0.51162 0.0293097 0)
(0.496099 0.0298504 0)
(0.480518 0.03015 0)
(0.464878 0.0303742 0)
(0.4491 0.0306654 0)
(0.433146 0.0310553 0)
(0.417087 0.0314548 0)
(0.401025 0.0318422 0)
(0.384963 0.0322164 0)
(0.368825 0.0325409 0)
(0.352522 0.03283 0)
(0.336014 0.0331208 0)
(0.319338 0.0334208 0)
(0.302564 0.0337321 0)
(0.285732 0.034058 0)
(0.268837 0.0343961 0)
(0.251876 0.0347568 0)
(0.234863 0.0351643 0)
(0.217816 0.0356406 0)
(0.200712 0.0362017 0)
(0.18346 0.0368545 0)
(0.165933 0.0375929 0)
(0.148025 0.0384168 0)
(0.129697 0.0393259 0)
(0.110967 0.040319 0)
(0.0918478 0.0413546 0)
(0.0722963 0.0424469 0)
(0.0521963 0.04358 0)
(0.0315724 0.044181 0)
(0.0106547 0.0449023 0)
(3 -4.07644e-17 0)
(3 -1.3881e-16 0)
(3 -4.79853e-16 0)
(3 -5.14647e-16 0)
(3 -3.47039e-16 0)
(3 -5.09112e-16 0)
(3 -1.00514e-15 0)
(3 -9.7745e-16 0)
(3 -1.26291e-15 0)
(3 -2.01147e-15 0)
(3 -1.95656e-15 0)
(3 -1.92669e-15 0)
(3 -1.1946e-15 0)
(3 -3.50178e-16 0)
(3 5.42081e-16 0)
(3 4.99589e-16 0)
(3 4.22929e-16 0)
(3 7.98777e-16 0)
(3 6.75673e-17 0)
(3 -4.56421e-16 0)
(3 -1.96696e-16 0)
(3 -3.24113e-16 0)
(3 -5.61551e-16 0)
(3 -4.54831e-16 0)
(3 1.86597e-16 0)
(3 -1.04966e-16 0)
(3 -8.26163e-16 0)
(3 -9.61899e-16 0)
(3 -5.31189e-16 0)
(3 4.94293e-16 0)
(3 6.2406e-16 0)
(3 2.40155e-16 0)
(3 7.67426e-16 0)
(3 8.29958e-16 0)
(3 7.26897e-16 0)
(3 1.18884e-15 0)
(3 6.15687e-16 0)
(3 6.30717e-17 0)
(3 3.85549e-16 0)
(3 4.54482e-16 0)
(3 7.57167e-16 0)
(3 1.08551e-15 0)
(3 1.29383e-15 0)
(3 1.19304e-15 0)
(3 9.01073e-16 0)
(3 1.79845e-16 0)
(3 5.22171e-16 0)
(3 6.5254e-17 0)
(2.86462 0.0176022 0)
(0.995982 0.047636 0)
(0.758208 0.0515222 0)
(0.742973 0.0429726 0)
(0.726801 0.0413891 0)
(0.71166 0.0423752 0)
(0.696148 0.044531 0)
(0.680628 0.0465283 0)
(0.665349 0.0469915 0)
(0.650579 0.0456559 0)
(0.635997 0.0441204 0)
(0.62107 0.0444923 0)
(0.605653 0.0472091 0)
(0.589525 0.0499388 0)
(0.573295 0.0497732 0)
(0.557765 0.0478196 0)
(0.542548 0.0474361 0)
(0.52734 0.0489545 0)
(0.511769 0.0504761 0)
(0.49601 0.0512539 0)
(0.480261 0.0516672 0)
(0.464493 0.0520666 0)
(0.448575 0.0526555 0)
(0.432431 0.053388 0)
(0.416137 0.0540564 0)
(0.39982 0.0546571 0)
(0.383507 0.0552492 0)
(0.367125 0.0557822 0)
(0.350589 0.0562546 0)
(0.333858 0.0567159 0)
(0.31696 0.0571851 0)
(0.299966 0.0576738 0)
(0.282933 0.0581925 0)
(0.265885 0.0587359 0)
(0.248833 0.0593146 0)
(0.231793 0.0599631 0)
(0.214772 0.0607164 0)
(0.197731 0.0616001 0)
(0.180572 0.0626252 0)
(0.163165 0.0637826 0)
(0.145406 0.0650748 0)
(0.127259 0.0665044 0)
(0.108753 0.0680754 0)
(0.0899123 0.0697315 0)
(0.0707042 0.0714942 0)
(0.0510279 0.0733522 0)
(0.0308482 0.0743538 0)
(0.0104237 0.0755849 0)
(3 1.2352e-16 0)
(3 4.00688e-16 0)
(3 3.09847e-16 0)
(3 -4.75343e-17 0)
(3 -7.79116e-16 0)
(3 -1.75013e-15 0)
(3 -1.95897e-15 0)
(3 -1.43168e-15 0)
(3 -1.12938e-15 0)
(3 -1.0711e-15 0)
(3 -9.38345e-16 0)
(3 -7.11522e-16 0)
(3 -2.64135e-16 0)
(3 -2.60717e-16 0)
(3 8.69836e-17 0)
(3 6.8464e-16 0)
(3 1.00814e-15 0)
(3 1.7607e-15 0)
(3 1.73187e-15 0)
(3 1.63881e-15 0)
(3 1.19105e-15 0)
(3 6.4572e-16 0)
(3 9.30976e-16 0)
(3 1.87277e-15 0)
(3 2.15083e-15 0)
(3 1.65418e-15 0)
(3 1.03415e-15 0)
(3 1.47644e-17 0)
(3 -4.62041e-16 0)
(3 -1.23058e-15 0)
(3 -1.77657e-15 0)
(3 -7.65503e-17 0)
(3 1.19342e-15 0)
(3 8.32657e-16 0)
(3 9.68594e-16 0)
(3 1.07894e-15 0)
(3 1.28297e-15 0)
(3 1.49422e-15 0)
(3 1.12638e-15 0)
(3 7.97809e-16 0)
(3 9.25603e-16 0)
(3 1.68971e-15 0)
(3 1.95527e-15 0)
(3 1.61867e-15 0)
(3 7.65465e-16 0)
(3 -3.45936e-16 0)
(3 -1.36124e-17 0)
(3 1.04848e-15 0)
(2.90474 0.0220419 0)
(1.0183 0.0683876 0)
(0.760934 0.0689044 0)
(0.74665 0.0613161 0)
(0.730764 0.0605965 0)
(0.715448 0.06195 0)
(0.699756 0.0642868 0)
(0.684274 0.0663731 0)
(0.669124 0.0669525 0)
(0.654299 0.06581 0)
(0.639392 0.0643906 0)
(0.624029 0.0649796 0)
(0.608431 0.0681799 0)
(0.592438 0.0712573 0)
(0.576479 0.0709491 0)
(0.561104 0.0687138 0)
(0.545799 0.0685339 0)
(0.530502 0.0707609 0)
(0.514773 0.0728826 0)
(0.498824 0.0738589 0)
(0.482915 0.0743357 0)
(0.467019 0.074934 0)
(0.450967 0.0759263 0)
(0.434633 0.0771195 0)
(0.418063 0.078121 0)
(0.401415 0.0789553 0)
(0.384739 0.0797916 0)
(0.367977 0.0805761 0)
(0.351052 0.081266 0)
(0.333921 0.0819136 0)
(0.316601 0.0825556 0)
(0.299158 0.0832185 0)
(0.281666 0.0839193 0)
(0.26418 0.0846439 0)
(0.246744 0.0853946 0)
(0.229392 0.0862137 0)
(0.212139 0.0871537 0)
(0.194951 0.0882579 0)
(0.177736 0.0895512 0)
(0.160375 0.0910305 0)
(0.142766 0.0927098 0)
(0.124865 0.094601 0)
(0.106681 0.0967169 0)
(0.0882118 0.0989941 0)
(0.0693996 0.101445 0)
(0.0501495 0.104074 0)
(0.0303288 0.105538 0)
(0.0103012 0.107362 0)
(3 -1.39344e-16 0)
(3 6.81637e-17 0)
(3 9.42534e-17 0)
(3 8.83514e-17 0)
(3 1.19182e-16 0)
(3 2.89395e-16 0)
(3 6.0199e-16 0)
(3 4.71177e-16 0)
(3 5.21624e-16 0)
(3 6.28337e-16 0)
(3 1.74213e-16 0)
(3 2.24747e-16 0)
(3 3.98806e-16 0)
(3 4.18367e-16 0)
(3 5.1435e-16 0)
(3 7.05591e-16 0)
(3 7.74526e-16 0)
(3 5.91037e-16 0)
(3 4.54563e-16 0)
(3 9.34342e-16 0)
(3 9.79483e-16 0)
(3 1.00192e-15 0)
(3 1.41544e-15 0)
(3 1.80414e-15 0)
(3 1.71844e-15 0)
(3 1.15151e-15 0)
(3 1.14834e-15 0)
(3 8.24419e-16 0)
(3 -8.05249e-16 0)
(3 -1.85235e-15 0)
(3 -2.01801e-15 0)
(3 -1.72107e-15 0)
(3 -1.13725e-15 0)
(3 -1.38147e-16 0)
(3 1.29361e-16 0)
(3 -9.40524e-17 0)
(3 4.5208e-17 0)
(3 3.3184e-16 0)
(3 -1.06693e-15 0)
(3 -1.33708e-15 0)
(3 -1.68242e-15 0)
(3 -1.51677e-15 0)
(3 -1.0233e-15 0)
(3 -6.88168e-16 0)
(3 -3.67431e-16 0)
(3 -4.76302e-16 0)
(3 -8.06458e-16 0)
(3 -7.19643e-16 0)
(2.94796 0.0215342 0)
(1.04397 0.094986 0)
(0.764666 0.085189 0)
(0.750656 0.0804618 0)
(0.73428 0.0813486 0)
(0.718632 0.0829826 0)
(0.703027 0.0848765 0)
(0.688086 0.0864573 0)
(0.673677 0.0871733 0)
(0.659357 0.0867474 0)
(0.644567 0.0860561 0)
(0.629036 0.0870623 0)
(0.613272 0.0904863 0)
(0.597337 0.0935134 0)
(0.58165 0.0930475 0)
(0.566503 0.090807 0)
(0.551331 0.0909906 0)
(0.536256 0.0939525 0)
(0.520696 0.0967071 0)
(0.504838 0.097865 0)
(0.489018 0.0983357 0)
(0.473238 0.0991136 0)
(0.457311 0.100598 0)
(0.441027 0.102402 0)
(0.424362 0.103856 0)
(0.407495 0.104995 0)
(0.390526 0.106159 0)
(0.373415 0.10732 0)
(0.356088 0.108369 0)
(0.338505 0.109341 0)
(0.320662 0.110288 0)
(0.30261 0.111243 0)
(0.284425 0.112222 0)
(0.266188 0.11319 0)
(0.247975 0.114124 0)
(0.229847 0.115061 0)
(0.211836 0.116062 0)
(0.193927 0.117185 0)
(0.176057 0.118477 0)
(0.158144 0.119962 0)
(0.140129 0.121699 0)
(0.122001 0.123751 0)
(0.10379 0.126176 0)
(0.0854993 0.128939 0)
(0.0670596 0.132024 0)
(0.048394 0.135465 0)
(0.0292081 0.137484 0)
(0.0099593 0.140001 0)
(3 1.53249e-16 0)
(3 6.1473e-16 0)
(3 6.25408e-16 0)
(3 6.2732e-16 0)
(3 6.95962e-16 0)
(3 1.47439e-15 0)
(3 1.90044e-15 0)
(3 1.18247e-15 0)
(3 8.00451e-16 0)
(3 6.12641e-16 0)
(3 1.24564e-15 0)
(3 1.41101e-15 0)
(3 1.476e-15 0)
(3 7.45326e-16 0)
(3 2.27787e-16 0)
(3 -1.13382e-16 0)
(3 -1.96716e-16 0)
(3 -5.26521e-16 0)
(3 -6.82764e-17 0)
(3 5.65455e-16 0)
(3 3.24754e-16 0)
(3 4.30957e-17 0)
(3 -4.89659e-16 0)
(3 -4.40921e-16 0)
(3 -8.47304e-16 0)
(3 -1.37973e-15 0)
(3 -1.90324e-15 0)
(3 -2.98049e-15 0)
(3 -3.02268e-15 0)
(3 -2.514e-15 0)
(3 -2.82896e-15 0)
(3 -2.93014e-15 0)
(3 -2.089e-15 0)
(3 -8.57814e-16 0)
(3 -3.57846e-16 0)
(3 -8.58152e-17 0)
(3 2.72797e-16 0)
(3 -7.25338e-16 0)
(3 -1.76768e-15 0)
(3 -1.02012e-15 0)
(3 -1.03019e-15 0)
(3 -1.18068e-15 0)
(3 -1.75333e-15 0)
(3 -1.79098e-15 0)
(3 -1.5402e-15 0)
(3 -1.23354e-15 0)
(3 -1.23347e-15 0)
(3 -2.02392e-15 0)
(3.00045 0.00309166 0)
(1.1115 0.114056 0)
(0.776138 0.0937629 0)
(0.760848 0.100727 0)
(0.743548 0.103355 0)
(0.727066 0.104688 0)
(0.711317 0.105202 0)
(0.696679 0.105626 0)
(0.682855 0.106313 0)
(0.669102 0.107 0)
(0.654631 0.107852 0)
(0.639161 0.109912 0)
(0.623288 0.113509 0)
(0.607348 0.116059 0)
(0.591923 0.115149 0)
(0.577071 0.112878 0)
(0.562209 0.113362 0)
(0.547572 0.11694 0)
(0.532386 0.120349 0)
(0.516737 0.121738 0)
(0.501067 0.122134 0)
(0.485463 0.122989 0)
(0.469787 0.124967 0)
(0.453743 0.127523 0)
(0.437175 0.129597 0)
(0.420274 0.131162 0)
(0.403195 0.132785 0)
(0.385929 0.134516 0)
(0.368409 0.136152 0)
(0.350592 0.137678 0)
(0.332454 0.13916 0)
(0.314007 0.140644 0)
(0.295307 0.142147 0)
(0.276435 0.143611 0)
(0.257481 0.144981 0)
(0.238524 0.146266 0)
(0.219608 0.147519 0)
(0.200721 0.148796 0)
(0.181817 0.150148 0)
(0.162844 0.151611 0)
(0.143788 0.153283 0)
(0.124684 0.155281 0)
(0.10561 0.157724 0)
(0.0866141 0.16066 0)
(0.0676473 0.164065 0)
(0.0486952 0.168106 0)
(0.0293007 0.170581 0)
(0.0100321 0.173736 0)
(3 1.70811e-16 0)
(3 2.38104e-16 0)
(3 8.8328e-16 0)
(3 1.35175e-15 0)
(3 1.27327e-15 0)
(3 1.13276e-15 0)
(3 1.0888e-15 0)
(3 9.95401e-16 0)
(3 8.36578e-16 0)
(3 5.94784e-16 0)
(3 7.55373e-16 0)
(3 1.27567e-15 0)
(3 1.15575e-15 0)
(3 8.04332e-16 0)
(3 6.45072e-16 0)
(3 8.45148e-16 0)
(3 5.03124e-16 0)
(3 1.66169e-16 0)
(3 -3.63955e-16 0)
(3 -5.91742e-16 0)
(3 -4.18992e-16 0)
(3 -1.04826e-15 0)
(3 -1.24475e-15 0)
(3 -1.57341e-15 0)
(3 -1.74205e-15 0)
(3 -1.87668e-15 0)
(3 -2.62793e-15 0)
(3 -3.03452e-15 0)
(3 -2.604e-15 0)
(3 -2.14296e-15 0)
(3 -1.68197e-15 0)
(3 -1.2577e-15 0)
(3 -1.11063e-15 0)
(3 -1.32726e-15 0)
(3 -1.15122e-15 0)
(3 1.99999e-17 0)
(3 6.00953e-16 0)
(3 7.02682e-16 0)
(3 -2.95815e-16 0)
(3 -1.07218e-15 0)
(3 -4.10522e-16 0)
(3 -5.5667e-16 0)
(3 -6.59183e-16 0)
(3 -6.99339e-16 0)
(3 -7.37715e-16 0)
(3 -3.46534e-16 0)
(3 -4.58921e-16 0)
(3 -1.55311e-15 0)
(3.00003 8.49393e-06 0)
(1.23239 0.135942 0)
(0.777154 0.111038 0)
(0.756595 0.125544 0)
(0.739235 0.129023 0)
(0.72247 0.128882 0)
(0.706923 0.127089 0)
(0.692493 0.125981 0)
(0.678781 0.126562 0)
(0.665095 0.128528 0)
(0.650681 0.131351 0)
(0.635331 0.134924 0)
(0.619596 0.138631 0)
(0.603986 0.14049 0)
(0.589092 0.139138 0)
(0.574738 0.136957 0)
(0.560396 0.137853 0)
(0.546448 0.142166 0)
(0.531992 0.146474 0)
(0.516909 0.148371 0)
(0.50171 0.148761 0)
(0.486545 0.14959 0)
(0.471369 0.151985 0)
(0.455879 0.15535 0)
(0.439749 0.158173 0)
(0.423162 0.160232 0)
(0.406353 0.162348 0)
(0.38937 0.164705 0)
(0.372157 0.16701 0)
(0.354671 0.16917 0)
(0.336864 0.171256 0)
(0.318697 0.173321 0)
(0.300183 0.175376 0)
(0.281381 0.177351 0)
(0.262378 0.179161 0)
(0.243262 0.180794 0)
(0.224081 0.182294 0)
(0.20483 0.183711 0)
(0.185471 0.185092 0)
(0.165972 0.186479 0)
(0.146346 0.187993 0)
(0.126658 0.189808 0)
(0.107016 0.192085 0)
(0.0875163 0.194999 0)
(0.0681348 0.198495 0)
(0.04896 0.202992 0)
(0.0293849 0.205863 0)
(0.010112 0.209613 0)
(3 -1.21685e-16 0)
(3 -2.64805e-16 0)
(3 -4.72738e-16 0)
(3 -5.28346e-16 0)
(3 -5.01548e-16 0)
(3 -5.98807e-16 0)
(3 -1.06234e-15 0)
(3 -8.10038e-16 0)
(3 -2.77954e-16 0)
(3 -6.77412e-16 0)
(3 -1.46751e-15 0)
(3 -1.68686e-15 0)
(3 -1.47143e-15 0)
(3 -1.24686e-15 0)
(3 -1.22474e-15 0)
(3 -9.83323e-16 0)
(3 -6.34698e-16 0)
(3 -7.22792e-16 0)
(3 -1.38453e-15 0)
(3 -1.73828e-15 0)
(3 -1.97957e-15 0)
(3 -2.03131e-15 0)
(3 -1.84577e-15 0)
(3 -2.27462e-15 0)
(3 -2.54943e-15 0)
(3 -2.55554e-15 0)
(3 -3.24468e-15 0)
(3 -3.19727e-15 0)
(3 -3.12621e-15 0)
(3 -3.02939e-15 0)
(3 -2.34251e-15 0)
(3 -2.05782e-15 0)
(3 -2.23847e-15 0)
(3 -2.29969e-15 0)
(3 -2.31919e-15 0)
(3 -2.49893e-15 0)
(3 -2.63366e-15 0)
(3 -1.94544e-15 0)
(3 -1.85507e-15 0)
(3 -1.96495e-15 0)
(3 -1.05665e-15 0)
(3 -5.96092e-16 0)
(3 -2.61996e-17 0)
(3 -5.69706e-16 0)
(3 -6.33111e-16 0)
(3 -3.36608e-16 0)
(3 1.34327e-16 0)
(3 3.77785e-16 0)
(3 1.82801e-08 0)
(1.44186 0.163947 0)
(0.790392 0.133628 0)
(0.758875 0.152343 0)
(0.740813 0.156075 0)
(0.72329 0.154421 0)
(0.707332 0.150211 0)
(0.692372 0.147237 0)
(0.67822 0.14744 0)
(0.664417 0.150394 0)
(0.650211 0.154993 0)
(0.635211 0.159853 0)
(0.619799 0.163383 0)
(0.604599 0.164307 0)
(0.590149 0.162352 0)
(0.576155 0.160089 0)
(0.562239 0.161226 0)
(0.548961 0.166134 0)
(0.535367 0.171422 0)
(0.521017 0.174144 0)
(0.50646 0.174695 0)
(0.491926 0.175353 0)
(0.477469 0.177916 0)
(0.462824 0.181988 0)
(0.447426 0.185666 0)
(0.431366 0.18834 0)
(0.414974 0.191045 0)
(0.398374 0.194186 0)
(0.381528 0.197392 0)
(0.364392 0.200449 0)
(0.346899 0.203409 0)
(0.328962 0.206337 0)
(0.310539 0.209247 0)
(0.291655 0.212064 0)
(0.272393 0.214671 0)
(0.252853 0.217018 0)
(0.233106 0.219122 0)
(0.213169 0.221011 0)
(0.193023 0.222714 0)
(0.172656 0.224257 0)
(0.152107 0.225764 0)
(0.13146 0.227455 0)
(0.110849 0.229515 0)
(0.0904193 0.232286 0)
(0.0701745 0.235648 0)
(0.0503232 0.240433 0)
(0.0301327 0.243613 0)
(0.0104021 0.247884 0)
(3 3.45307e-17 0)
(3 1.97954e-17 0)
(3 -3.36016e-16 0)
(3 -6.55162e-16 0)
(3 -8.52717e-16 0)
(3 -1.33718e-15 0)
(3 -1.90205e-15 0)
(3 -1.94121e-15 0)
(3 -1.53943e-15 0)
(3 -1.41825e-15 0)
(3 -1.45336e-15 0)
(3 -1.47664e-15 0)
(3 -1.60506e-15 0)
(3 -1.54442e-15 0)
(3 -1.20907e-15 0)
(3 -1.13042e-15 0)
(3 -9.56751e-16 0)
(3 -2.19499e-15 0)
(3 -2.66838e-15 0)
(3 -2.33233e-15 0)
(3 -2.35162e-15 0)
(3 -1.95457e-15 0)
(3 -2.24488e-15 0)
(3 -2.52172e-15 0)
(3 -3.17197e-15 0)
(3 -4.03081e-15 0)
(3 -3.9319e-15 0)
(3 -3.46758e-15 0)
(3 -3.00447e-15 0)
(3 -2.67638e-15 0)
(3 -2.60192e-15 0)
(3 -2.41341e-15 0)
(3 -2.13965e-15 0)
(3 -1.42896e-15 0)
(3 -1.38246e-15 0)
(3 -2.41631e-15 0)
(3 -3.34147e-15 0)
(3 -3.08512e-15 0)
(3 -1.58003e-15 0)
(3 -6.12134e-16 0)
(3 -3.92327e-16 0)
(3 -3.95821e-16 0)
(3 -5.42627e-16 0)
(3 -3.48541e-16 0)
(3 -8.4547e-16 0)
(3 -1.49268e-15 0)
(3 -1.24077e-15 0)
(3 -9.2611e-16 0)
(3 3.65811e-11 0)
(1.76328 0.183315 0)
(0.817952 0.160507 0)
(0.764967 0.182191 0)
(0.746099 0.184593 0)
(0.728009 0.181522 0)
(0.711511 0.175352 0)
(0.695606 0.1706 0)
(0.680439 0.170084 0)
(0.665973 0.173547 0)
(0.65165 0.179536 0)
(0.63676 0.185501 0)
(0.621392 0.188934 0)
(0.606159 0.189232 0)
(0.591418 0.186939 0)
(0.57699 0.184458 0)
(0.562699 0.185442 0)
(0.549318 0.190595 0)
(0.536085 0.196787 0)
(0.522137 0.200597 0)
(0.507903 0.201611 0)
(0.493731 0.202034 0)
(0.479772 0.204513 0)
(0.465962 0.209205 0)
(0.451485 0.213932 0)
(0.436184 0.21743 0)
(0.420485 0.220809 0)
(0.40461 0.224814 0)
(0.388542 0.229076 0)
(0.372208 0.233218 0)
(0.355527 0.237244 0)
(0.338358 0.241232 0)
(0.320583 0.245203 0)
(0.302165 0.249076 0)
(0.283154 0.25271 0)
(0.263651 0.256009 0)
(0.243744 0.258961 0)
(0.223461 0.261572 0)
(0.202793 0.263848 0)
(0.181732 0.265793 0)
(0.160321 0.267501 0)
(0.138664 0.269229 0)
(0.116917 0.271129 0)
(0.095291 0.273745 0)
(0.0738245 0.276803 0)
(0.0528681 0.281727 0)
(0.0316137 0.285129 0)
(0.0109322 0.289861 0)
(3 -4.38841e-17 0)
(3 2.93916e-18 0)
(3 -8.15534e-18 0)
(3 -3.88159e-16 0)
(3 -8.16105e-16 0)
(3 -1.00824e-15 0)
(3 -1.06516e-15 0)
(3 -1.13262e-15 0)
(3 -1.21358e-15 0)
(3 -6.46217e-16 0)
(3 -3.31455e-16 0)
(3 -3.32753e-16 0)
(3 -1.70045e-16 0)
(3 -2.78597e-16 0)
(3 -2.47452e-16 0)
(3 -5.67417e-16 0)
(3 -1.40858e-15 0)
(3 -1.34957e-15 0)
(3 -7.95867e-16 0)
(3 -7.61187e-16 0)
(3 -7.90914e-16 0)
(3 -7.5231e-16 0)
(3 -7.43878e-16 0)
(3 -8.63207e-16 0)
(3 -1.19894e-15 0)
(3 -2.04689e-15 0)
(3 -1.90445e-15 0)
(3 -1.33007e-15 0)
(3 -1.13481e-15 0)
(3 -1.45102e-15 0)
(3 -1.45647e-15 0)
(3 -1.59136e-15 0)
(3 -1.49979e-15 0)
(3 -1.46819e-15 0)
(3 -1.48993e-15 0)
(3 -1.56167e-15 0)
(3 -1.60869e-15 0)
(3 -1.90025e-15 0)
(3 -1.37283e-15 0)
(3 -5.94149e-16 0)
(3 -4.58721e-16 0)
(3 -4.508e-16 0)
(3 -3.14365e-16 0)
(3 1.01518e-16 0)
(3 1.28656e-16 0)
(3 1.1427e-16 0)
(3 -6.46461e-16 0)
(3 -1.56748e-15 0)
(3 6.86336e-14 0)
(2.19268 0.186397 0)
(0.860229 0.200284 0)
(0.76018 0.212776 0)
(0.745369 0.213775 0)
(0.73046 0.210906 0)
(0.715677 0.204657 0)
(0.700381 0.198728 0)
(0.685095 0.196922 0)
(0.670507 0.199941 0)
(0.656586 0.206389 0)
(0.642375 0.213016 0)
(0.6275 0.216611 0)
(0.612409 0.216922 0)
(0.597283 0.214853 0)
(0.582186 0.212211 0)
(0.567151 0.212498 0)
(0.553104 0.217132 0)
(0.539744 0.223658 0)
(0.525826 0.228499 0)
(0.511377 0.230254 0)
(0.496899 0.23039 0)
(0.482644 0.232233 0)
(0.468892 0.237024 0)
(0.454823 0.242646 0)
(0.439864 0.246956 0)
(0.42449 0.250816 0)
(0.409083 0.255472 0)
(0.393689 0.260724 0)
(0.378197 0.266023 0)
(0.362491 0.271253 0)
(0.34637 0.276502 0)
(0.329604 0.281798 0)
(0.312036 0.287065 0)
(0.293634 0.292142 0)
(0.274469 0.29689 0)
(0.254637 0.301246 0)
(0.234192 0.305162 0)
(0.213147 0.308588 0)
(0.19151 0.311463 0)
(0.169336 0.313815 0)
(0.146739 0.315921 0)
(0.123876 0.317866 0)
(0.101007 0.320417 0)
(0.0781965 0.323044 0)
(0.0559383 0.327929 0)
(0.0334266 0.331423 0)
(0.0115477 0.336555 0)
(3 -1.90838e-17 0)
(3 -4.79516e-17 0)
(3 -3.91449e-17 0)
(3 -4.85988e-17 0)
(3 -9.35359e-17 0)
(3 6.87618e-18 0)
(3 1.45859e-16 0)
(3 -2.32923e-16 0)
(3 -6.56058e-16 0)
(3 -9.16725e-16 0)
(3 -8.34195e-16 0)
(3 -8.75497e-16 0)
(3 -7.34571e-16 0)
(3 -5.41334e-16 0)
(3 -6.43125e-16 0)
(3 -7.4737e-16 0)
(3 -1.53695e-16 0)
(3 9.26185e-16 0)
(3 1.27814e-15 0)
(3 1.16429e-15 0)
(3 1.01285e-15 0)
(3 1.53674e-16 0)
(3 -7.18729e-17 0)
(3 -1.39967e-16 0)
(3 1.28276e-16 0)
(3 1.16502e-16 0)
(3 -1.36869e-16 0)
(3 -3.60993e-16 0)
(3 -7.74151e-16 0)
(3 -1.04904e-15 0)
(3 -1.4979e-15 0)
(3 -1.74732e-15 0)
(3 -2.50239e-15 0)
(3 -3.17754e-15 0)
(3 -3.58918e-15 0)
(3 -2.86352e-15 0)
(3 -1.33912e-15 0)
(3 -1.21244e-15 0)
(3 -1.44776e-15 0)
(3 -1.53632e-15 0)
(3 -1.2378e-15 0)
(3 -9.88365e-16 0)
(3 -8.19931e-16 0)
(3 -4.36792e-16 0)
(3 4.68627e-16 0)
(3 7.42772e-16 0)
(3 5.44e-16 0)
(3 2.28699e-16 0)
(3 -6.7087e-16 0)
(2.70895 0.16325 0)
(0.967846 0.251013 0)
(0.782113 0.238433 0)
(0.77379 0.230534 0)
(0.758124 0.231988 0)
(0.74296 0.228971 0)
(0.72655 0.224684 0)
(0.709802 0.222559 0)
(0.693501 0.225125 0)
(0.678313 0.231739 0)
(0.663513 0.239099 0)
(0.648346 0.243735 0)
(0.632973 0.245273 0)
(0.617338 0.244567 0)
(0.601481 0.242525 0)
(0.585477 0.242119 0)
(0.570161 0.245777 0)
(0.555885 0.252289 0)
(0.541474 0.258448 0)
(0.526258 0.261844 0)
(0.510687 0.262446 0)
(0.495207 0.263587 0)
(0.480384 0.267994 0)
(0.465807 0.274221 0)
(0.450391 0.279335 0)
(0.434419 0.283438 0)
(0.418463 0.288293 0)
(0.402752 0.294138 0)
(0.387186 0.300343 0)
(0.371619 0.306607 0)
(0.355851 0.313003 0)
(0.339603 0.319591 0)
(0.32264 0.326302 0)
(0.304865 0.332969 0)
(0.286309 0.339404 0)
(0.267041 0.34548 0)
(0.247065 0.351088 0)
(0.226316 0.35612 0)
(0.204714 0.360469 0)
(0.182211 0.364096 0)
(0.158873 0.367287 0)
(0.134816 0.369996 0)
(0.110363 0.373117 0)
(0.0856079 0.375674 0)
(0.0612539 0.380606 0)
(0.0366043 0.384155 0)
(0.0126359 0.389721 0)
(3 -3.79498e-18 0)
(3 -2.10162e-16 0)
(3 -1.9406e-16 0)
(3 -1.04588e-16 0)
(3 3.4097e-16 0)
(3 5.39073e-16 0)
(3 4.13854e-16 0)
(3 1.49857e-17 0)
(3 -3.67962e-16 0)
(3 -6.89639e-16 0)
(3 -6.02659e-16 0)
(3 4.54451e-17 0)
(3 -1.21632e-17 0)
(3 2.46991e-16 0)
(3 2.57879e-16 0)
(3 8.38958e-16 0)
(3 1.22701e-15 0)
(3 1.32892e-15 0)
(3 7.33918e-16 0)
(3 4.60924e-16 0)
(3 2.10953e-16 0)
(3 7.02471e-17 0)
(3 -7.68943e-16 0)
(3 -1.13781e-15 0)
(3 -1.15345e-15 0)
(3 -1.18851e-15 0)
(3 -1.35782e-15 0)
(3 -1.26798e-15 0)
(3 -1.15023e-15 0)
(3 -9.15582e-16 0)
(3 -9.82934e-16 0)
(3 -6.30133e-16 0)
(3 -1.02485e-15 0)
(3 -9.74392e-16 0)
(3 -7.15746e-16 0)
(3 -6.26908e-16 0)
(3 -3.45245e-16 0)
(3 -1.24906e-16 0)
(3 -2.0575e-16 0)
(3 -5.15015e-16 0)
(3 -9.99498e-16 0)
(3 -1.0522e-15 0)
(3 -6.06737e-16 0)
(3 -1.00918e-16 0)
(3 -1.22593e-17 0)
(3 -4.91904e-16 0)
(3 -1.36282e-16 0)
(3 5.58203e-16 0)
(3 4.53556e-16 0)
(3.01896 0.00907649 0)
(1.16061 0.279767 0)
(0.807021 0.235358 0)
(0.794907 0.250222 0)
(0.781604 0.257419 0)
(0.767209 0.258386 0)
(0.751829 0.256452 0)
(0.735607 0.254566 0)
(0.71917 0.255756 0)
(0.703681 0.260576 0)
(0.689163 0.266618 0)
(0.67483 0.270923 0)
(0.660453 0.273064 0)
(0.645705 0.273721 0)
(0.630323 0.272974 0)
(0.614387 0.272277 0)
(0.598496 0.274459 0)
(0.583475 0.280103 0)
(0.568894 0.287228 0)
(0.553567 0.293001 0)
(0.537337 0.295454 0)
(0.520908 0.296379 0)
(0.504903 0.300017 0)
(0.48955 0.306577 0)
(0.473566 0.31294 0)
(0.456718 0.317778 0)
(0.439709 0.322894 0)
(0.423011 0.329258 0)
(0.406631 0.336368 0)
(0.390384 0.343683 0)
(0.374067 0.351168 0)
(0.35741 0.358958 0)
(0.340127 0.367061 0)
(0.322064 0.375376 0)
(0.303192 0.383753 0)
(0.283518 0.392055 0)
(0.262978 0.400129 0)
(0.241449 0.407758 0)
(0.218847 0.414727 0)
(0.195164 0.420785 0)
(0.170576 0.426064 0)
(0.145222 0.430313 0)
(0.119386 0.43458 0)
(0.0928864 0.437442 0)
(0.066451 0.442294 0)
(0.0396821 0.445607 0)
(0.013546 0.451309 0)
(3 -6.57716e-17 0)
(3 -2.76166e-17 0)
(3 1.02503e-16 0)
(3 4.18627e-16 0)
(3 2.70921e-16 0)
(3 2.22873e-16 0)
(3 2.02611e-16 0)
(3 1.14982e-16 0)
(3 -1.74637e-16 0)
(3 6.68147e-16 0)
(3 1.03962e-15 0)
(3 1.81046e-15 0)
(3 2.18034e-15 0)
(3 2.21531e-15 0)
(3 1.95683e-15 0)
(3 1.44222e-15 0)
(3 1.01296e-15 0)
(3 6.86873e-16 0)
(3 1.06677e-15 0)
(3 1.05076e-15 0)
(3 4.25697e-16 0)
(3 -4.02082e-16 0)
(3 -8.81076e-16 0)
(3 -1.1758e-15 0)
(3 -1.78833e-15 0)
(3 -2.13156e-15 0)
(3 -2.18854e-15 0)
(3 -1.69811e-15 0)
(3 -1.46675e-15 0)
(3 -8.38767e-16 0)
(3 -6.45324e-16 0)
(3 5.5417e-16 0)
(3 1.83496e-15 0)
(3 2.31634e-15 0)
(3 2.67869e-15 0)
(3 2.74858e-15 0)
(3 1.62892e-15 0)
(3 9.82626e-16 0)
(3 6.06594e-16 0)
(3 1.35951e-16 0)
(3 1.11282e-16 0)
(3 4.63693e-16 0)
(3 5.24226e-16 0)
(3 5.37172e-16 0)
(3 -1.00256e-15 0)
(3 -1.12839e-15 0)
(3 -4.42271e-16 0)
(3 -2.02821e-18 0)
(3 6.60561e-18 0)
(3.00025 9.45659e-06 0)
(1.58193 0.312049 0)
(0.824765 0.277882 0)
(0.780813 0.279332 0)
(0.7695 0.286279 0)
(0.756362 0.28827 0)
(0.743061 0.288842 0)
(0.728944 0.288882 0)
(0.714532 0.289901 0)
(0.700757 0.29305 0)
(0.687997 0.297686 0)
(0.6756 0.301947 0)
(0.663174 0.305217 0)
(0.650486 0.307829 0)
(0.637107 0.309301 0)
(0.622931 0.309706 0)
(0.608265 0.311108 0)
(0.593828 0.31539 0)
(0.580107 0.322471 0)
(0.566366 0.330033 0)
(0.551559 0.334761 0)
(0.536189 0.336244 0)
(0.520822 0.33885 0)
(0.50615 0.344896 0)
(0.491337 0.352135 0)
(0.475403 0.357958 0)
(0.458866 0.363287 0)
(0.442414 0.369792 0)
(0.426253 0.377449 0)
(0.410186 0.385602 0)
(0.393966 0.393991 0)
(0.377386 0.402777 0)
(0.360244 0.412098 0)
(0.342421 0.421928 0)
(0.323954 0.432189 0)
(0.304864 0.442705 0)
(0.285055 0.453303 0)
(0.264143 0.463618 0)
(0.242239 0.473318 0)
(0.219014 0.481971 0)
(0.194487 0.48971 0)
(0.168352 0.49635 0)
(0.140761 0.503472 0)
(0.110932 0.509336 0)
(0.0797943 0.516062 0)
(0.0475407 0.520062 0)
(0.0160014 0.525647 0)
(3 8.72974e-18 0)
(3 1.29169e-16 0)
(3 2.19931e-16 0)
(3 4.01984e-16 0)
(3 4.96226e-16 0)
(3 4.19682e-16 0)
(3 7.14727e-16 0)
(3 1.23577e-15 0)
(3 1.67081e-15 0)
(3 1.48192e-15 0)
(3 1.16705e-15 0)
(3 7.83099e-16 0)
(3 9.10345e-16 0)
(3 1.19046e-15 0)
(3 1.60618e-15 0)
(3 1.59509e-15 0)
(3 1.17699e-15 0)
(3 1.19192e-15 0)
(3 1.45787e-15 0)
(3 1.88986e-15 0)
(3 1.86585e-15 0)
(3 8.21443e-16 0)
(3 -1.17161e-16 0)
(3 -4.55651e-16 0)
(3 -1.0409e-15 0)
(3 -1.09077e-15 0)
(3 -1.32925e-15 0)
(3 -1.47731e-15 0)
(3 -1.46855e-15 0)
(3 -1.0715e-15 0)
(3 -5.83125e-16 0)
(3 -2.88113e-16 0)
(3 7.13553e-16 0)
(3 1.55622e-15 0)
(3 1.47126e-15 0)
(3 1.14933e-15 0)
(3 1.14045e-15 0)
(3 1.06277e-15 0)
(3 6.59434e-16 0)
(3 1.61133e-16 0)
(3 -9.97143e-17 0)
(3 -1.86142e-16 0)
(3 -7.42914e-16 0)
(3 -9.74829e-16 0)
(3 -1.16937e-15 0)
(3 -1.30691e-15 0)
(3 -1.2647e-15 0)
(3 -8.9794e-16 0)
(3 -7.47456e-16 0)
(3 1.73709e-08 0)
(2.41735 0.277333 0)
(0.924903 0.33884 0)
(0.79366 0.311566 0)
(0.781784 0.310474 0)
(0.768161 0.31465 0)
(0.755204 0.318574 0)
(0.741795 0.320727 0)
(0.728399 0.321482 0)
(0.715286 0.322673 0)
(0.702738 0.325468 0)
(0.690551 0.329203 0)
(0.678414 0.333157 0)
(0.666361 0.337347 0)
(0.654023 0.34107 0)
(0.64095 0.343338 0)
(0.627186 0.344857 0)
(0.613083 0.347959 0)
(0.599417 0.354233 0)
(0.586544 0.362718 0)
(0.573215 0.370001 0)
(0.55901 0.373483 0)
(0.544498 0.375907 0)
(0.530349 0.381323 0)
(0.516602 0.389335 0)
(0.50192 0.397058 0)
(0.486174 0.403677 0)
(0.470114 0.410911 0)
(0.4542 0.419484 0)
(0.438344 0.42893 0)
(0.422231 0.438744 0)
(0.405645 0.448937 0)
(0.388516 0.459788 0)
(0.370802 0.471364 0)
(0.352502 0.483689 0)
(0.333578 0.496726 0)
(0.313726 0.510307 0)
(0.292638 0.524329 0)
(0.269745 0.538515 0)
(0.244628 0.552392 0)
(0.21733 0.565973 0)
(0.187735 0.578772 0)
(0.156716 0.591791 0)
(0.124407 0.603434 0)
(0.0909133 0.613143 0)
(0.055705 0.618832 0)
(0.0179171 0.622468 0)
(3 1.2042e-16 0)
(3 5.21787e-17 0)
(3 9.96765e-17 0)
(3 1.71897e-16 0)
(3 3.33804e-16 0)
(3 6.10363e-16 0)
(3 8.37381e-16 0)
(3 1.55273e-15 0)
(3 1.84388e-15 0)
(3 1.42821e-15 0)
(3 4.72413e-16 0)
(3 -4.29484e-16 0)
(3 -7.72956e-16 0)
(3 -9.05311e-16 0)
(3 -2.15111e-16 0)
(3 2.60144e-16 0)
(3 4.56353e-16 0)
(3 3.8729e-16 0)
(3 2.17421e-16 0)
(3 2.48344e-16 0)
(3 7.39516e-17 0)
(3 -4.58332e-16 0)
(3 -7.84041e-16 0)
(3 -9.25585e-16 0)
(3 -4.25657e-16 0)
(3 -5.02237e-17 0)
(3 -1.78366e-16 0)
(3 -2.46849e-16 0)
(3 -8.61881e-17 0)
(3 -6.90753e-17 0)
(3 -1.53371e-16 0)
(3 -3.24741e-16 0)
(3 -8.84399e-16 0)
(3 -1.29109e-15 0)
(3 -7.61491e-16 0)
(3 1.3967e-16 0)
(3 6.14936e-16 0)
(3 1.40806e-15 0)
(3 1.56962e-15 0)
(3 1.29958e-15 0)
(3 5.11682e-16 0)
(3 -1.51152e-15 0)
(3 -1.60496e-15 0)
(3 -1.49114e-15 0)
(3 -1.27494e-15 0)
(3 -1.05748e-15 0)
(3 -1.06425e-15 0)
(3 -1.33812e-15 0)
(3 -1.57838e-15 0)
(3 -5.8678e-09 0)
(3.02884 0.0163559 0)
(1.26487 0.380603 0)
(0.841286 0.318898 0)
(0.821706 0.330752 0)
(0.806523 0.337731 0)
(0.791886 0.343395 0)
(0.777504 0.346674 0)
(0.763304 0.347828 0)
(0.749232 0.348561 0)
(0.735379 0.350726 0)
(0.721849 0.354582 0)
(0.708539 0.359363 0)
(0.695654 0.364774 0)
(0.683176 0.370337 0)
(0.6704 0.374902 0)
(0.656913 0.37788 0)
(0.642843 0.380612 0)
(0.62875 0.385695 0)
(0.615561 0.393942 0)
(0.602972 0.403063 0)
(0.589693 0.409601 0)
(0.575866 0.413271 0)
(0.562106 0.418196 0)
(0.548996 0.426283 0)
(0.535692 0.435824 0)
(0.521198 0.444691 0)
(0.505914 0.453338 0)
(0.490542 0.463019 0)
(0.475259 0.47389 0)
(0.459691 0.485446 0)
(0.44371 0.497456 0)
(0.427139 0.510241 0)
(0.409955 0.524041 0)
(0.392356 0.538986 0)
(0.374383 0.555214 0)
(0.355798 0.57274 0)
(0.336214 0.591582 0)
(0.315142 0.611548 0)
(0.292177 0.632082 0)
(0.267232 0.652426 0)
(0.2403 0.671245 0)
(0.211161 0.6875 0)
(0.179888 0.702981 0)
(0.142956 0.72144 0)
(0.0969687 0.74414 0)
(0.0372538 0.764057 0)
(3 -9.14982e-17 0)
(3 -1.05848e-17 0)
(3 -1.26699e-16 0)