/*--------------------------------*- C++ -*----------------------------------*\
  =========                 |
  \\      /  F ield         | OpenFOAM: The Open Source CFD Toolbox
   \\    /   O peration     | Website:  https://openfoam.org
    \\  /    A nd           | Version:  7
     \\/     M anipulation  |
\*---------------------------------------------------------------------------*/
FoamFile
{
    version     2.0;
    format      ascii;
    class       volScalarField;
    location    "2.28";
    object      T;
}
// * * * * * * * * * * * * * * * * * * * * * * * * * * * * * * * * * * * * * //

dimensions      [0 0 0 1 0 0 0];

internalField   nonuniform List<scalar> 
1000
(
0
0
0
0
0
0
0
0
0
0
0
0
0
0
0
0
0
0
0
0
0
0
0
0
0
0
0
0
0
0
0
0
0
0
0
0
0
0
0
0
0
0
0
0
0
0
0
0
0
0
0
0
0
0
0
0
0
0
0
0
0
0
0
0
0
0
0
0
0
0
0
0
0
0
0
0
0
0
0
0
0
0
0
0
0
0
0
0
0
0
0
0
0
0
0
0
0
0
0
0
0
0
0
0
0
0
0
0
0
0
0
0
0
0
0
0
0
0
0
0
0
0
0
0
0
0
0
0
0
0
0
0
0
0
0
0
0
0
0
0
0
0
0
0
0
0
0
0
0
0
0
0
0
0
0
0
0
0
0
0
0
0
0
0
0
0
0
0
0
0
0
0
0
0
0
0
0
0
0
0
0
0
0
0
0
0
0
0
0
0
0
0
0
0
0
0
0
0
0
0
0
0
0
0
0
0
0
0
0
0
0
0
0
0
0
0
0
0
0
0
0
0
1.2459e-206
-1.27705e-203
6.50688e-201
-2.19735e-198
5.53252e-196
-1.10777e-193
1.83733e-191
-2.5963e-189
3.19067e-187
-3.46408e-185
3.36393e-183
-2.95122e-181
2.35849e-179
-1.72881e-177
1.16922e-175
-7.33289e-174
4.2835e-172
-2.3396e-170
1.1989e-168
-5.78145e-167
2.63078e-165
-1.13237e-163
4.62063e-162
-1.791e-160
6.60643e-159
-2.32294e-157
7.79782e-156
-2.50257e-154
7.6885e-153
-2.26392e-151
6.39627e-150
-1.73576e-148
4.5286e-147
-1.13695e-145
2.74905e-144
-6.40657e-143
1.44008e-141
-3.12435e-140
6.5467e-139
-1.32566e-137
2.59557e-136
-4.91643e-135
9.01354e-134
-1.60018e-132
2.75203e-131
-4.58695e-130
7.41214e-129
-1.16161e-127
1.76612e-126
-2.60583e-125
3.73218e-124
-5.19015e-123
7.0097e-122
-9.19632e-121
1.17222e-119
-1.45197e-118
1.74794e-117
-2.0454e-116
2.3268e-115
-2.57343e-114
2.76738e-113
-2.89371e-112
2.94229e-111
-2.90916e-110
2.79703e-109
-2.61495e-108
2.37706e-107
-2.10085e-106
1.80503e-105
-1.50748e-104
1.22355e-103
-9.64975e-103
7.39316e-102
-5.50109e-101
3.97407e-100
-2.78634e-99
1.89523e-98
-1.25001e-97
7.98996e-97
-4.94634e-96
2.96354e-95
-1.71694e-94
9.60915e-94
-5.18912e-93
2.70009e-92
-1.3515e-91
6.49418e-91
-2.9882e-90
1.31244e-89
-5.47928e-89
2.16208e-88
-7.99861e-88
2.74021e-87
-8.51442e-87
2.30386e-86
-4.89242e-86
4.83742e-86
2.27634e-85
-1.80856e-84
7.8927e-84
-2.55461e-83
6.05401e-83
-7.25404e-83
-2.06666e-82
1.7576e-81
-6.91868e-81
1.78589e-80
-2.29715e-80
-5.33214e-80
4.57125e-79
-1.62756e-78
3.32065e-78
-5.38583e-79
-2.62566e-77
1.16696e-76
-2.67967e-76
1.30599e-76
1.67896e-75
-7.71423e-75
1.64684e-74
-1.38039e-75
-1.24577e-73
4.68315e-73
-7.27166e-73
-1.00128e-72
8.96085e-72
-2.30125e-71
1.05921e-71
1.33597e-70
-5.05577e-70
6.35051e-70
1.623e-69
-9.36884e-69
1.65351e-68
1.62985e-68
-1.59015e-67
3.34668e-67
1.43976e-67
-2.59681e-66
5.88749e-66
1.64835e-66
-4.19118e-65
9.31048e-65
3.82794e-65
-6.70566e-64
1.31892e-63
1.10356e-63
-1.04329e-62
1.60538e-62
2.78336e-62
-1.52296e-61
1.47309e-61
5.86678e-61
-1.98184e-60
4.34702e-61
1.03244e-59
-2.11052e-59
-1.96376e-59
1.49196e-58
-1.44743e-58
-5.63055e-58
1.67117e-57
3.60189e-58
-9.27882e-57
1.1879e-56
3.04936e-56
-1.03248e-55
-1.27769e-56
5.33178e-55
-6.25034e-55
-1.83588e-54
5.28083e-54
2.62483e-54
-2.82969e-53
1.89842e-53
1.12777e-52
-2.06147e-52
-3.1421e-52
1.25241e-51
2.51588e-52
-5.88188e-51
4.02335e-51
2.27217e-50
-3.61492e-50
-7.1049e-50
2.09753e-49
1.54803e-49
-1.0002e-48
1.95338e-51
4.193e-48
-2.5086e-48
-1.58811e-47
1.88078e-47
5.49339e-47
-1.02153e-46
-1.73483e-46
4.7865e-46
4.93412e-46
-2.05068e-45
-1.21343e-45
8.26503e-45
2.26106e-45
-3.18807e-44
-1.04996e-45
1.19095e-43
-1.77223e-44
-4.34647e-43
1.212e-43
1.55982e-42
-5.59822e-43
-5.52908e-42
2.14862e-42
1.94061e-41
-7.1354e-42
-6.74676e-41
2.00483e-41
2.31941e-40
-4.15991e-41
-7.85544e-40
1.33606e-41
2.60627e-39
4.91529e-40
-8.40555e-39
-3.70046e-39
2.60793e-38
1.95309e-38
-7.67028e-38
-8.76122e-38
2.08916e-37
3.5251e-37
-5.0412e-37
-1.29664e-36
9.61334e-37
4.37822e-36
-7.6457e-37
-1.34851e-35
-4.84195e-36
3.71652e-35
3.53159e-35
-8.75669e-35
-1.55528e-34
1.54397e-34
5.44785e-34
-7.55038e-35
-1.59069e-33
-9.10482e-34
3.77855e-33
5.33589e-33
-6.34634e-33
-1.95829e-32
1.61524e-33
5.43584e-32
4.1175e-32
-1.10279e-31
-2.06002e-31
1.0805e-31
6.40558e-31
3.11926e-31
-1.37216e-30
-2.13049e-30
1.44136e-30
6.89721e-30
3.34213e-30
-1.40236e-29
-2.3176e-29
1.04044e-29
6.91475e-29
5.04444e-29
-1.14383e-28
-2.54131e-28
-1.3273e-29
6.03562e-28
7.488e-28
-5.55355e-28
-2.47697e-27
-1.73501e-27
3.72503e-27
8.84279e-27
2.57206e-27
-1.74451e-26
-2.90103e-26
1.99802e-27
7.00884e-26
9.10691e-26
-3.57929e-26
-2.59129e-25
-2.84066e-25
1.85166e-25
9.12542e-25
9.1183e-25
-7.14886e-25
-3.11488e-24
-3.08322e-24
2.27489e-24
1.03575e-23
1.09948e-23
-5.73355e-24
-3.3324e-23
-4.04843e-23
8.04545e-24
1.01692e-22
1.48937e-22
2.45104e-23
-2.82769e-22
-5.28305e-22
-2.83804e-22
6.54927e-22
1.73938e-21
1.61415e-21
-9.02982e-22
-5.04724e-21
-7.04828e-21
-1.87379e-21
1.16129e-20
2.51095e-20
2.14011e-20
-1.36416e-20
-7.06072e-20
-1.03464e-19
-4.63617e-20
1.29688e-19
3.45485e-19
3.93031e-19
3.75681e-20
-7.49756e-19
-1.55127e-18
-1.50011e-18
2.53625e-19
3.63624e-18
6.79756e-18
6.21007e-18
-1.47345e-18
-1.59304e-17
-2.98217e-17
-2.88546e-17
1.5946e-18
6.31604e-17
1.30113e-16
1.45613e-16
4.17616e-17
-2.1152e-16
-5.43128e-16
-7.4199e-16
-4.97283e-16
4.41531e-16
2.00071e-15
3.52385e-15
3.72227e-15
1.06372e-15
-5.28623e-15
-1.415e-14
-2.12536e-14
-1.93481e-14
-5.57477e-16
3.86207e-14
9.05989e-14
1.31147e-13
1.19672e-13
1.04586e-14
-2.22219e-13
-5.48011e-13
-8.45364e-13
-8.89147e-13
-3.88903e-13
8.98445e-13
2.97766e-12
5.38122e-12
6.98058e-12
5.98443e-12
2.93276e-13
-1.16507e-11
-2.9501e-11
-4.93437e-11
-6.22682e-11
-5.40621e-11
-7.17758e-12
9.38894e-11
2.53149e-10
4.50085e-10
6.25387e-10
6.70328e-10
4.27341e-10
-2.88453e-10
-1.63652e-09
-3.6594e-09
-6.15185e-09
-8.50346e-09
-9.54643e-09
-7.46583e-09
1.42959e-10
1.59588e-08
4.22351e-08
7.9594e-08
1.25234e-07
1.70555e-07
1.98371e-07
1.80085e-07
7.3573e-08
-1.77123e-07
-6.38628e-07
-1.37939e-06
-2.45233e-06
-3.86548e-06
-5.5366e-06
-7.22729e-06
-8.45175e-06
-8.35537e-06
-5.5588e-06
2.03655e-06
1.7484e-05
4.50697e-05
9.06316e-05
0.000161917
0.000268973
0.000424559
0.000644572
0.000948471
0.00135968
0.00190594
0.00261964
0.00353803
0.00470332
0.00616273
0.00796833
0.0101767
0.0128488
0.0160486
0.0198434
0.024302
0.0294939
0.0354884
0.0423528
0.0501516
0.0589447
0.0687861
0.0797226
0.0917926
0.105025
0.119437
0.135037
0.151818
0.169764
0.188842
0.209011
0.230215
0.252387
0.275451
0.299318
0.323893
0.349072
0.374746
0.400801
0.427122
0.453591
0.48009
0.506505
0.532723
0.558636
0.584143
0.609149
0.633566
0.657315
0.680326
0.702537
0.723898
0.744365
0.763905
0.782495
0.800119
0.816769
0.832448
0.847161
0.860924
0.873756
0.885683
0.896732
0.906938
0.916335
0.924961
0.932857
0.940063
0.946621
0.95257
0.957954
0.962811
0.967182
0.971105
0.974615
0.977748
0.980538
0.983015
0.985209
0.987147
0.988855
0.990356
0.991673
0.992825
0.993831
0.994706
0.995467
0.996127
0.996698
0.997191
0.997616
0.997981
0.998294
0.99856
0.998785
0.998971
0.99912
0.999232
0.999304
0.999333
0.99931
0.999225
0.999064
0.99881
0.998441
0.997929
0.997244
0.99635
0.995205
0.993762
0.99197
0.989773
0.98711
0.983918
0.980129
0.975676
0.970488
0.964497
0.957635
0.949839
0.941048
0.931208
0.920272
0.908203
0.894972
0.88056
0.864961
0.84818
0.830235
0.811157
0.790988
0.769784
0.747612
0.724549
0.700682
0.676107
0.650928
0.625254
0.599199
0.572878
0.546409
0.51991
0.493495
0.467277
0.441364
0.415857
0.390851
0.366434
0.342685
0.319674
0.297463
0.276102
0.255635
0.236095
0.217505
0.199881
0.183231
0.167552
0.152839
0.139076
0.126244
0.114317
0.103268
0.0930625
0.0836654
0.0750386
0.0671426
0.0599367
0.0533795
0.0474296
0.0420461
0.0371886
0.0328177
0.0288954
0.025385
0.0222517
0.0194621
0.0169851
0.0147912
0.012853
0.0111449
0.00964334
0.00832654
0.00717456
0.00616916
0.00529376
0.00453333
0.00387429
0.00330442
0.00281277
0.00238954
0.00202603
0.00171448
0.00144804
0.00122067
0.00102706
0.000862527
0.000723002
0.000604927
0.000505205
0.000421155
0.000350453
0.000291098
0.000241366
0.000199778
0.000165066
0.000136148
0.000112103
9.21472e-05
7.56152e-05
6.19448e-05
5.06611e-05
4.13643e-05
3.3718e-05
2.74403e-05
2.22953e-05
1.80858e-05
1.46478e-05
1.18446e-05
9.56275e-06
7.7085e-06
6.2042e-06
4.98579e-06
4.00057e-06
3.20517e-06
2.56407e-06
2.04815e-06
1.63362e-06
1.30107e-06
1.03472e-06
8.21697e-07
6.51596e-07
5.15972e-07
4.07999e-07
3.22168e-07
2.54039e-07
2.00039e-07
1.57302e-07
1.23527e-07
9.68718e-08
7.58664e-08
5.93365e-08
4.63466e-08
3.61527e-08
2.81641e-08
2.19122e-08
1.70261e-08
1.32126e-08
1.02402e-08
7.92649e-09
6.12783e-09
4.73142e-09
3.64869e-09
2.81028e-09
2.16187e-09
1.66105e-09
1.27472e-09
9.77063e-10
7.48023e-10
5.71997e-10
4.36881e-10
3.33292e-10
2.53971e-10
1.93304e-10
1.46961e-10
1.11602e-10
8.46539e-11
6.4141e-11
4.85446e-11
3.66998e-11
2.77146e-11
2.09063e-11
1.57534e-11
1.18578e-11
8.91588e-12
6.69671e-12
5.02457e-12
3.76597e-12
2.81969e-12
2.10898e-12
1.57577e-12
1.17617e-12
8.77e-13
6.53264e-13
4.86115e-13
3.61371e-13
2.6837e-13
1.99105e-13
1.47572e-13
1.09269e-13
8.08296e-14
5.97339e-14
4.41014e-14
3.25288e-14
2.39701e-14
1.76466e-14
1.2979e-14
9.53711e-15
7.00144e-15
5.13518e-15
3.76292e-15
2.75484e-15
2.01499e-15
1.4725e-15
1.0751e-15
7.84244e-16
5.71569e-16
4.16199e-16
3.02797e-16
2.20101e-16
1.59851e-16
1.15993e-16
8.40956e-17
6.09177e-17
4.40904e-17
3.18843e-17
2.3038e-17
1.66321e-17
1.19974e-17
8.64706e-18
6.22718e-18
4.48082e-18
3.22158e-18
2.31435e-18
1.66126e-18
1.19151e-18
8.53906e-19
6.11473e-19
4.37524e-19
3.12812e-19
2.23474e-19
1.59526e-19
1.13788e-19
8.11019e-20
5.77605e-20
4.11054e-20
2.92306e-20
2.07706e-20
1.4748e-20
1.04639e-20
7.41873e-21
5.25586e-21
3.72082e-21
2.63218e-21
1.8607e-21
1.31438e-21
9.27792e-22
6.54439e-22
4.61293e-22
3.2492e-22
2.28701e-22
1.60862e-22
1.13066e-22
7.94163e-23
5.57423e-23
3.90984e-23
2.74054e-23
1.91961e-23
1.34368e-23
9.39905e-24
6.57017e-24
4.58984e-24
3.20233e-24
2.25004e-24
1.42648e-24
)
;

boundaryField
{
    sides
    {
        type            zeroGradient;
    }
    empty
    {
        type            empty;
    }
}


// ************************************************************************* //
