/*--------------------------------*- C++ -*----------------------------------*\
  =========                 |
  \\      /  F ield         | OpenFOAM: The Open Source CFD Toolbox
   \\    /   O peration     | Website:  https://openfoam.org
    \\  /    A nd           | Version:  7
     \\/     M anipulation  |
\*---------------------------------------------------------------------------*/
FoamFile
{
    version     2.0;
    format      ascii;
    class       volScalarField;
    location    "22";
    object      p;
}
// * * * * * * * * * * * * * * * * * * * * * * * * * * * * * * * * * * * * * //

dimensions      [0 2 -2 0 0 0 0];

internalField   nonuniform List<scalar> 
16000
(
8.8772328e-06
-0.00013135324
-0.00044282888
-0.0008451794
-0.0012633813
-0.0016520436
-0.001980292
-0.0022292852
-0.0023883876
-0.0024518965
-0.0024168722
-0.0022818555
-0.0020462729
-0.001710368
-0.0012755022
-0.00074468904
-0.00012324002
0.00058058326
0.0013550102
0.0021843881
0.0030490829
0.0039257254
0.0047878309
0.0056068184
0.0063533787
0.0069991392
0.0075185327
0.0078907427
0.0081015595
0.0081449581
0.0080242124
0.0077524472
0.0073526355
0.0068571594
0.0063068384
0.0057492269
0.0052394533
0.0048338738
0.0045941374
0.0045554788
0.00015353919
8.6394732e-06
-0.00024143785
-0.00055030913
-0.00087249519
-0.0011736884
-0.001429643
-0.0016241767
-0.0017469281
-0.0017914564
-0.0017538245
-0.0016316704
-0.0014237372
-0.001129789
-0.00075081512
-0.00028942463
0.00024966693
0.00085914633
0.0015286841
0.0022446548
0.0029900621
0.0037448726
0.0044863669
0.005190182
0.0058314733
0.0063863637
0.0068335442
0.0071559065
0.0073420847
0.0073877692
0.0072966351
0.007080747
0.0067603712
0.0063632614
0.0059235468
0.0054801546
0.0050742613
0.0047494082
0.0045508953
0.0045156837
0.00047220584
0.0002543249
-1.5063532e-06
-0.0002805454
-0.00056077984
-0.00081770851
-0.0010335444
-0.0011962283
-0.0012975513
-0.0013319916
-0.0012958323
-0.001186545
-0.001002492
-0.00074291576
-0.0004081571
-2.9473079e-08
0.00047772674
0.0010189876
0.0016148559
0.0022534043
0.0029196406
0.0035956195
0.0042609761
0.0048936968
0.0054712268
0.0059718375
0.0063761449
0.0066686413
0.0068391055
0.0068837679
0.0068061176
0.0066172331
0.0063355284
0.0059858889
0.0055983068
0.0052061365
0.0048438667
0.004545745
0.0043482535
0.0042810707
0.00089381775
0.00056256342
0.00026187586
-2.3902942e-05
-0.0002944971
-0.0005336363
-0.00072975849
-0.00087565121
-0.00096624163
-0.00099783109
-0.0009676043
-0.0008732767
-0.00071298148
-0.00048538332
-0.00018997129
0.00017251927
0.00059961376
0.0010866
0.0016260933
0.0022077384
0.0028181084
0.0034407683
0.0040567688
0.0046453202
0.0051848417
0.005654294
0.0060347044
0.0063107366
0.0064721261
0.0065148233
0.0064417246
0.0062629173
0.005995368
0.0056620035
0.0052901976
0.0049098543
0.0045515392
0.0042450649
0.0040170119
0.0038814063
0.0013446091
0.00088494874
0.00052180108
0.00021149197
-6.6210497e-05
-0.00030226047
-0.00049098291
-0.00063011862
-0.0007180129
-0.00075309903
-0.0007337106
-0.00065794358
-0.00052371692
-0.000329026
-7.2341669e-05
0.00024688582
0.00062766108
0.0010668681
0.0015587486
0.0020945058
0.0026621049
0.0032463162
0.0038290771
0.0043901613
0.0049081876
0.0053619358
0.005731901
0.0060019478
0.0061608692
0.006203632
0.0061321317
0.0059553709
0.0056890489
0.0053545713
0.0049774575
0.0045853511
0.0042065273
0.0038680409
0.0035853162
0.0033616362
0.0017714477
0.0011783296
0.00074367705
0.0003976364
0.00010108014
-0.00014320421
-0.0003349063
-0.00047647933
-0.00056961698
-0.00061489727
-0.00061182946
-0.00055888375
-0.00045370108
-0.00029348442
-7.5520169e-05
0.00020221036
0.00054036638
0.00093757287
0.0013897898
0.0018897946
0.0024268563
0.0029866869
0.003551706
0.0041016913
0.0046147799
0.0050688064
0.0054429075
0.0057192742
0.0058848696
0.00593287
0.0058635829
0.0056846763
0.0054106996
0.0050619687
0.0046628572
0.0042397942
0.0038202947
0.0034308532
0.0030783282
0.0027509997
0.0021291329
0.0014041662
0.00089459047
0.00050636985
0.00018310707
-7.7866828e-05
-0.00028106482
-0.00043326514
-0.00053925134
-0.0006015715
-0.00062077907
-0.00059559883
-0.0005232622
-0.00040002292
-0.00022180135
1.508265e-05
0.00031312583
0.00067284795
0.001092038
0.0015651032
0.0020826002
0.0026310576
0.0031931157
0.0037481311
0.0042731748
0.0047444263
0.0051388726
0.0054361875
0.0056206223
0.0056826808
0.0056203037
0.0054393143
0.005153012
0.00478097
0.0043471353
0.0038777461
0.0034009432
0.0029444686
0.0025082861
0.0020667539
0.0023791022
0.0015277085
0.0009436451
0.00051048092
0.00015590546
-0.00012764262
-0.00034903126
-0.00051894315
-0.00064490778
-0.00073116199
-0.00077906713
-0.00078739783
-0.00075278756
-0.00067035278
-0.00053444817
-0.00033951867
-8.1011927e-05
0.00024369299
0.00063439244
0.0010872614
0.001594231
0.0021426672
0.0027153414
0.0032909492
0.0038450619
0.0043515724
0.0047845249
0.0051201796
0.0053391274
0.0054282326
0.0053821379
0.0052040525
0.0049056092
0.0045057316
0.0040285597
0.0035011746
0.0029536932
0.002416753
0.0018853672
0.0013228729
0.0024875473
0.0015172656
0.00086154334
0.00038309137
-5.2019382e-06
-0.00031541491
-0.00056038805
-0.00075430738
-0.0009070874
-0.0010243344
-0.001107934
-0.0011564586
-0.001165716
-0.0011294703
-0.0010402916
-0.00089051263
-0.00067326365
-0.00038354203
-1.9261316e-05
0.00041778439
0.00092112389
0.0014791354
0.0020747981
0.0026860943
0.0032868403
0.003848131
0.004340289
0.0047351635
0.0050085591
0.0051425385
0.0051273222
0.0049625045
0.0046573267
0.0042298164
0.0037046775
0.0031107875
0.002481621
0.001852345
0.0012144121
0.00052093827
0.002423995
0.001343756
0.00062072211
9.8159198e-05
-0.00032486765
-0.00066470368
-0.00093785296
-0.0011616419
-0.0013480275
-0.0015036735
-0.0016307047
-0.0017272295
-0.0017879872
-0.001805155
-0.0017692786
-0.0016703144
-0.0014987682
-0.0012468978
-0.00090992493
-0.00048719353
1.6823538e-05
0.0005919127
0.0012214959
0.001882982
0.0025483648
0.003185586
0.0037605415
0.004239607
0.0045924605
0.0047948862
0.0048312251
0.004696148
0.004395471
0.0039457355
0.0033722442
0.002706409
0.001986425
0.0012536937
0.00049718385
-0.00033995896
0.0021606699
0.0009805437
0.00019558155
-0.00036896564
-0.00082690536
-0.0011986725
-0.0015041815
-0.0017635775
-0.0019905529
-0.0021925482
-0.0023716713
-0.0025253279
-0.0026469574
-0.0027269138
-0.0027534622
-0.0027138882
-0.0025957193
-0.0023880412
-0.0020828664
-0.0016765015
-0.00117081
-0.00057391911
9.8472141e-05
0.00082357829
0.001571711
0.0023074831
0.0029917812
0.0035844559
0.0040475523
0.0043487483
0.0044645733
0.0043829771
0.0041048854
0.0036443805
0.003027038
0.0022872473
0.0014691755
0.00062223578
-0.00026625597
-0.0012634274
0.0016723787
0.00040351133
-0.00043723275
-0.0010410594
-0.0015336363
-0.00193934
-0.0022812799
-0.0025821389
-0.0028570808
-0.0031140881
-0.0033550421
-0.0035764533
-0.0037702676
-0.0039248018
-0.0040257852
-0.0040575149
-0.0040041391
-0.0038510655
-0.0035864708
-0.0032028432
-0.0026984793
-0.0020790059
-0.0013579585
-0.00055774662
0.0002906479
0.0011485611
0.0019714545
0.0027116733
0.0033220409
0.0037599962
0.0039917954
0.0039962012
0.0037671187
0.0033146427
0.0026638612
0.0018522579
0.00093106637
-4.0462427e-05
-0.0010760446
-0.0022538759
0.00093672395
-0.00040867461
-0.0012984528
-0.0019385107
-0.0024652399
-0.0029068056
-0.0032893183
-0.0036377556
-0.0039685396
-0.0042900166
-0.0046036915
-0.0049050466
-0.0051843989
-0.0054278615
-0.0056184003
-0.0057370067
-0.0057640164
-0.0056805877
-0.0054703314
-0.0051210405
-0.004626467
-0.0039882544
-0.0032169113
-0.0023333287
-0.001368953
-0.0003653258
0.00062743473
0.0015533362
0.0023543837
0.0029754179
0.0033694546
0.0035028369
0.0033594175
0.0029429278
0.0022765549
0.0014005736
0.00037421026
-0.00073155567
-0.0019310147
-0.0033146211
-6.5472077e-05
-0.001474169
-0.0024057394
-0.0030787714
-0.0036390844
-0.0041184527
-0.0045458028
-0.0049481993
-0.0053431666
-0.0057393048
-0.0061376642
-0.0065326388
-0.0069128528
-0.0072621173
-0.0075604629
-0.007785292
-0.007912697
-0.0079189768
-0.0077823648
-0.0074849445
-0.0070147173
-0.0063677966
-0.0055502419
-0.0045798797
-0.0034872949
-0.0023160009
-0.001121414
3.1602199e-05
0.0010727471
0.0019317662
0.0025450214
0.0028624113
0.0028536317
0.0025125127
0.001857923
0.00093195971
-0.00019748315
-0.0014457061
-0.0028271981
-0.0044461575
-0.0013496291
-0.0028074874
-0.0037732079
-0.004475807
-0.0050690674
-0.0055881562
-0.0060646332
-0.0065274776
-0.0069952226
-0.0074766905
-0.0079724838
-0.0084759347
-0.0089739956
-0.00944816
-0.009875432
-0.010229411
-0.01048156
-0.010602724
-0.010564914
-0.010343389
-0.0099189961
-0.0092807304
-0.0084282671
-0.0073744062
-0.0061469792
-0.0047899044
-0.0033629574
-0.0019398563
-0.00060436039
0.0005557147
0.0014563158
0.0020260975
0.0022153102
0.0020029023
0.0013995922
0.0004472639
-0.00077733687
-0.0021737318
-0.0037562128
-0.0056443756
-0.0029268419
-0.0044190471
-0.005410982
-0.0061395944
-0.0067650086
-0.0073255328
-0.0078551848
-0.0083847254
-0.008933671
-0.009511122
-0.010117338
-0.010744714
-0.011378652
-0.011998411
-0.012577973
-0.01308702
-0.013492095
-0.013758062
-0.013849906
-0.013734932
-0.013385352
-0.01278124
-0.011913717
-0.010788164
-0.0094271706
-0.0078727395
-0.0061872022
-0.004452261
-0.0027656003
-0.0012347107
3.205853e-05
0.00093663912
0.0014033028
0.0013894472
0.00089196685
-5.1081249e-05
-0.0013548247
-0.0029010627
-0.0047034239
-0.0068985646
-0.0048033665
-0.0063147795
-0.0073248359
-0.0080757193
-0.0087321469
-0.0093352897
-0.0099214699
-0.010523151
-0.011160887
-0.011844207
-0.012573238
-0.013339675
-0.014127599
-0.014914229
-0.015670648
-0.016362621
-0.016951609
-0.017396099
-0.017653365
-0.017681711
-0.01744326
-0.016907281
-0.016054003
-0.014878641
-0.013395513
-0.011641607
-0.009679009
-0.0075953958
-0.0055017382
-0.0035264788
-0.0018058249
-0.00047043981
0.00037025013
0.00064353542
0.0003245278
-0.00055833835
-0.0019142857
-0.0036059357
-0.0056457786
-0.0081890584
-0.0069802355
-0.0084958886
-0.0095159931
-0.010285137
-0.010970801
-0.011616732
-0.012261448
-0.012939117
-0.013671485
-0.014468769
-0.015331285
-0.016250379
-0.01720916
-0.018183116
-0.019140677
-0.020043832
-0.020848944
-0.021507908
-0.021969784
-0.022183019
-0.022098356
-0.021672462
-0.020872278
-0.019679948
-0.018098051
-0.016154752
-0.013908049
-0.011448252
-0.0088974713
-0.0064049617
-0.0041373723
-0.002263654
-0.00093551691
-0.00026626447
-0.00031323681
-0.0010663009
-0.002433268
-0.0042572041
-0.0065492031
-0.0094843903
-0.009453078
-0.01095883
-0.011981153
-0.012764164
-0.013476263
-0.014163497
-0.014866555
-0.015621438
-0.016451365
-0.017367633
-0.018371189
-0.019453493
-0.020597138
-0.021776309
-0.022957149
-0.024098147
-0.02515072
-0.026060149
-0.026767021
-0.027209348
-0.02732549
-0.027057967
-0.026358244
-0.025192515
-0.023547944
-0.021439542
-0.018916443
-0.016066839
-0.013020038
-0.0099439798
-0.0070365571
-0.0045096443
-0.0025659811
-0.0013715949
-0.0010299173
-0.0015614337
-0.0028803007
-0.0048115971
-0.0073654165
-0.01073781
-0.012212209
-0.013695579
-0.014712822
-0.015504769
-0.016238977
-0.01696357
-0.017721521
-0.018550968
-0.019477074
-0.020512765
-0.021660196
-0.022911513
-0.024249346
-0.025647094
-0.027069075
-0.028470677
-0.029798681
-0.03099193
-0.031982543
-0.032697847
-0.033063209
-0.033005874
-0.032460005
-0.031373519
-0.029714408
-0.027480024
-0.024705203
-0.021470017
-0.017905127
-0.014192603
-0.010559788
-0.0072639553
-0.0045666507
-0.0026996057
-0.0018288277
-0.0020220225
-0.0032118868
-0.0052102494
-0.0080279961
-0.011883011
-0.015243056
-0.016694265
-0.017700008
-0.018495228
-0.019245069
-0.01999963
-0.020804504
-0.021700536
-0.022715554
-0.023864867
-0.025152567
-0.026572168
-0.028106958
-0.029730116
-0.03140466
-0.03308335
-0.03470875
-0.036213624
-0.037521872
-0.038550222
-0.039210874
-0.039415216
-0.039078846
-0.038129996
-0.036513886
-0.034206046
-0.031221399
-0.027625033
-0.023541409
-0.019159584
-0.014731303
-0.010558387
-0.0069665085
-0.0042655519
-0.0027026783
-0.002413962
-0.0033684823
-0.0053743267
-0.008447535
-0.012828923
-0.018526975
-0.019940233
-0.020929362
-0.021721191
-0.022477254
-0.023249748
-0.024087569
-0.025035239
-0.026124304
-0.027373479
-0.028789699
-0.030368624
-0.032094859
-0.033941935
-0.03587208
-0.037835907
-0.039772231
-0.041608195
-0.043259927
-0.044633945
-0.045629541
-0.046142467
-0.046070099
-0.045316672
-0.043805608
-0.041486376
-0.038348586
-0.034435257
-0.029855955
-0.024797246
-0.019526696
-0.014385517
-0.0097647263
-0.0060623379
-0.0036257899
-0.002684772
-0.00326919
-0.0051995605
-0.0085057354
-0.013453427
-0.02204253
-0.023417626
-0.024386822
-0.025167213
-0.025916135
-0.026688413
-0.027537479
-0.028513056
-0.029651942
-0.030977599
-0.032500918
-0.034220558
-0.0361231
-0.038182933
-0.040361913
-0.042608901
-0.044859372
-0.047035312
-0.049045612
-0.05078718
-0.052147025
-0.053005613
-0.053241679
-0.052738357
-0.051393263
-0.049128102
-0.0459032
-0.041733087
-0.036703518
-0.030987552
-0.024856797
-0.018681913
-0.0129149
-0.00804713
-0.0045435981
-0.0027554855
-0.0028048757
-0.0045494858
-0.008048274
-0.013595891
-0.025767307
-0.027111599
-0.028059871
-0.028818784
-0.029541882
-0.030287842
-0.031116702
-0.03208572
-0.033239084
-0.034606764
-0.036204906
-0.038036082
-0.040089428
-0.042340552
-0.044751175
-0.047268598
-0.049825199
-0.05233815
-0.054709593
-0.056827487
-0.05856739
-0.059795433
-0.060372719
-0.060161422
-0.059034263
-0.056884002
-0.053639135
-0.049280773
-0.043862879
-0.037533725
-0.03055504
-0.023312559
-0.016308489
-0.01012585
-0.0053595905
-0.0025102329
-0.0018294654
-0.0032471561
-0.0068762404
-0.013048387
-0.02968041
-0.031011364
-0.031940531
-0.032664898
-0.033336237
-0.034019455
-0.034784527
-0.035699684
-0.036819436
-0.038182465
-0.039811667
-0.041714399
-0.043882769
-0.046293709
-0.048908742
-0.051673501
-0.054517208
-0.057352313
-0.060074506
-0.062563347
-0.064683767
-0.06628867
-0.067222909
-0.067328971
-0.066455722
-0.064467843
-0.06126124
-0.056780795
-0.051042745
-0.044160573
-0.036371809
-0.028059831
-0.019760128
-0.012137243
-0.0059204349
-0.0017836339
-0.0001492573
-0.0010650976
-0.0047358763
-0.011545401
-0.033765881
-0.035114364
-0.036029337
-0.036701246
-0.037284786
-0.037855375
-0.038498083
-0.039297031
-0.040320917
-0.041619796
-0.043224889
-0.045149052
-0.047387463
-0.049918092
-0.052701775
-0.055681945
-0.058784216
-0.061916032
-0.064966603
-0.067807361
-0.070293248
-0.072264957
-0.073552568
-0.073980839
-0.073375554
-0.071576145
-0.068446782
-0.063895638
-0.057898101
-0.050525605
-0.041978821
-0.032620571
-0.022998191
-0.013839141
-0.0060008225
-0.00034655414
0.0024897765
0.0022867839
-0.0013061852
-0.0087516513
-0.038017574
-0.039432167
-0.040340658
-0.040934144
-0.041379421
-0.041769755
-0.042213069
-0.042816136
-0.043666708
-0.044829197
-0.0463446
-0.048231596
-0.050488009
-0.053091989
-0.056002642
-0.059160134
-0.06248553
-0.065880533
-0.069227427
-0.072389394
-0.075211667
-0.077523443
-0.079141089
-0.079872874
-0.079525321
-0.077913308
-0.074872027
-0.070274722
-0.064055801
-0.056241045
-0.046985161
-0.036614168
-0.025664204
-0.014900279
-0.0052904091
0.0021086583
0.0064165124
0.0071757355
0.0038163454
-0.0042472429
-0.042446488
-0.04399908
-0.044910017
-0.04538539
-0.04562088
-0.045739727
-0.04588397
-0.046191921
-0.046776098
-0.047718235
-0.049070036
-0.050855579
-0.053074103
-0.055702309
-0.058695832
-0.061989897
-0.065499528
-0.069119465
-0.072724179
-0.076168023
-0.079286364
-0.081897148
-0.083803753
-0.084799242
-0.084672366
-0.083216223
-0.080239845
-0.075584544
-0.069146071
-0.060904655
-0.050964557
-0.039603116
-0.027324094
-0.014901361
-0.0033860963
0.0059815332
0.012050612
0.01406376
0.011137296
0.0024915622
-0.047092548
-0.04888528
-0.049804421
-0.050098358
-0.050021286
-0.04974576
-0.049463609
-0.049355653
-0.049565182
-0.050193486
-0.051302742
-0.052920755
-0.055045782
-0.057650451
-0.060684386
-0.064075519
-0.067730801
-0.071536292
-0.075357665
-0.07903892
-0.082405266
-0.085263093
-0.08740289
-0.088603126
-0.088635952
-0.087274374
-0.084303955
-0.079537402
-0.072835404
-0.064135504
-0.053491475
-0.041125683
-0.027493222
-0.013349027
0.00020626137
0.011772459
0.019918947
0.023529265
0.021290685
0.012119624
-0.052044751
-0.054217606
-0.055137351
-0.055145726
-0.054606493
-0.05377117
-0.052901921
-0.052234333
-0.05194752
-0.052162627
-0.052949963
-0.054337473
-0.05631847
-0.058857661
-0.061895432
-0.065349116
-0.069115246
-0.073068975
-0.077067083
-0.08093935
-0.084501404
-0.087547191
-0.089853787
-0.091184913
-0.091297126
-0.089943013
-0.086886664
-0.081914846
-0.074856539
-0.065610411
-0.054182523
-0.040738935
-0.025675932
-0.0097061491
0.0060556286
0.020082598
0.03067042
0.036294064
0.035076618
0.025465965
-0.057477434
-0.060213462
-0.061090711
-0.060639123
-0.059417875
-0.057800451
-0.05614384
-0.054749744
-0.053834905
-0.053536845
-0.053928276
-0.055031044
-0.056827606
-0.059269445
-0.062284421
-0.065774211
-0.069623349
-0.073694125
-0.07782877
-0.081847906
-0.085552635
-0.088723939
-0.091124992
-0.092504239
-0.092600257
-0.091147892
-0.087888762
-0.082584102
-0.075033026
-0.06509799
-0.052740126
-0.038070109
-0.021419858
-0.0034417849
0.014768796
0.031597638
0.045084875
0.053256757
0.053517115
0.043607863
-0.063718285
-0.06723706
-0.067946694
-0.066740368
-0.064512374
-0.061815459
-0.059125731
-0.05681683
-0.055137924
-0.054233117
-0.05416692
-0.054945474
-0.056532406
-0.058859836
-0.061835673
-0.065346137
-0.069258448
-0.073420109
-0.077658928
-0.081782416
-0.085577679
-0.088811708
-0.091232808
-0.092573183
-0.092553186
-0.090887582
-0.087294657
-0.081509083
-0.073298958
-0.062489723
-0.048997318
-0.032875549
-0.01438615
0.0058951075
0.026924691
0.047045112
0.064067845
0.07553154
0.077939738
0.068005605
-0.071380488
-0.075893213
-0.076132107
-0.073671986
-0.069957903
-0.065787092
-0.06176853
-0.058339802
-0.055764778
-0.05417484
-0.053609276
-0.054045134
-0.055416293
-0.057628335
-0.060564791
-0.064091026
-0.068055379
-0.072288736
-0.076603626
-0.080793093
-0.084629996
-0.087866809
-0.090236394
-0.09145402
-0.091221
-0.089230303
-0.085174687
-0.078759373
-0.069717204
-0.057831208
-0.042965184
-0.025107783
-0.0044388375
0.018570416
0.042965124
0.067105318
0.088611097
0.1044836
0.11010516
0.10076102
-0.081631143
-0.087181386
-0.086269934
-0.081716007
-0.07581435
-0.069654531
-0.063960964
-0.059200265
-0.055613338
-0.053286492
-0.05220912
-0.052310574
-0.053483805
-0.05559903
-0.058510575
-0.062059513
-0.066073727
-0.070366535
-0.074734831
-0.078957201
-0.082792473
-0.085978855
-0.088234005
-0.089256314
-0.088727772
-0.086318516
-0.081693397
-0.074524459
-0.064502662
-0.051358566
-0.034889316
-0.014997508
0.0082489609
0.034515626
0.063013765
0.092226288
0.11966029
0.1417229
0.15240485
0.14512505
-0.09675954
-0.10273787
-0.099197669
-0.091155016
-0.082062307
-0.073261291
-0.065507667
-0.05921686
-0.054540042
-0.051469232
-0.049909998
-0.049722753
-0.050745539
-0.052805651
-0.055724097
-0.059315836
-0.063387863
-0.067736294
-0.07214326
-0.076374044
-0.080174773
-0.083270802
-0.085366012
-0.086143227
-0.085266196
-0.082382454
-0.077127999
-0.069138352
-0.058055489
-0.043544662
-0.025315163
-0.0031507337
0.023041551
0.053141959
0.086634015
0.12228367
0.15778153
0.18895236
0.20809858
0.2063284
-0.12133914
-0.12518679
-0.11587259
-0.10208073
-0.088416892
-0.076197899
-0.066005384
-0.058051865
-0.05229095
-0.048549859
-0.046607981
-0.04623257
-0.047194296
-0.049272161
-0.052252426
-0.055924675
-0.060076858
-0.064490239
-0.068934771
-0.073165124
-0.076917502
-0.079907275
-0.081827476
-0.082348324
-0.081118316
-0.077764083
-0.071895562
-0.06311008
-0.050995965
-0.035141617
-0.01514526
0.0093696692
0.038726078
0.073130328
0.11252042
0.15626323
0.20263152
0.2475238
0.28130161
0.2923572
-0.16445662
-0.15843237
-0.13714789
-0.11415701
-0.094106907
-0.077630843
-0.064737543
-0.055161469
-0.048489588
-0.04429123
-0.042172511
-0.041787046
-0.042832042
-0.045039236
-0.048164279
-0.051976556
-0.056250243
-0.060756763
-0.065258561
-0.069504102
-0.073223945
-0.07612776
-0.077902232
-0.07821003
-0.076690073
-0.072947397
-0.06657737
-0.057140345
-0.044172114
-0.027180162
-0.0056358808
0.021035429
0.053464733
0.092332214
0.13829685
0.19182749
0.25266861
0.31751202
0.37626918
0.41537135
-0.24629352
-0.20631757
-0.16212989
-0.12552857
-0.097143385
-0.075877942
-0.060487351
-0.049752155
-0.042660058
-0.038436
-0.036490103
-0.036365103
-0.03769702
-0.040184773
-0.043566819
-0.04760375
-0.0520654
-0.056721158
-0.061332584
-0.065647726
-0.069396761
-0.072288715
-0.074009116
-0.074219378
-0.072558095
-0.06860518
-0.061961345
-0.052155588
-0.038682659
-0.020980908
0.0015964136
0.029825951
0.064687106
0.10746562
0.15987185
0.22417862
0.30290628
0.39553301
0.49624424
0.60321313
-0.42543829
-0.26572966
-0.17722091
-0.12463557
-0.089116242
-0.065102417
-0.049323656
-0.039185148
-0.032983538
-0.02967391
-0.028570519
-0.02918652
-0.03115654
-0.03418956
-0.038037217
-0.042472883
-0.047277676
-0.052230667
-0.057101697
-0.061645987
-0.06560003
-0.068678421
-0.070571128
-0.07094005
-0.06940739
-0.065629316
-0.059131927
-0.049452441
-0.03607442
-0.018402902
0.0042721406
0.032848063
0.068543503
0.11314293
0.16943752
0.24201807
0.33806696
0.46591671
0.64305552
0.9208631
-0.79331223
-0.32444145
-0.14899673
-0.087724733
-0.055345189
-0.035998934
-0.025091006
-0.019200477
-0.016355011
-0.015618573
-0.016493778
-0.018653549
-0.021852615
-0.025887923
-0.030574879
-0.035733217
-0.041178383
-0.046715589
-0.052135267
-0.057209435
-0.061688753
-0.065300158
-0.067745184
-0.068700251
-0.067823892
-0.064707383
-0.058941258
-0.050071974
-0.037592965
-0.02092678
0.00061103171
0.027881695
0.062059367
0.10491395
0.1594519
0.23152856
0.33385201
0.49409277
0.79001693
1.3837789
1.2502693e-05
-0.00013035827
-0.0004425453
-0.00084509692
-0.0012634931
-0.0016522862
-0.0019806205
-0.0022296754
-0.002388822
-0.0024523597
-0.0024173505
-0.0022823378
-0.0020467505
-0.0017108322
-0.0012759422
-0.00074509088
-0.00012358897
0.00058029916
0.001354799
0.0021842557
0.0030490367
0.0039257766
0.0047879901
0.0056070878
0.006353746
0.0069995822
0.0075190297
0.0078912816
0.0081021343
0.0081455527
0.0080247882
0.0077529496
0.0073530221
0.006857423
0.006307004
0.0057493266
0.0052394506
0.0048336843
0.0045937213
0.0045552483
0.00015443805
9.1706325e-06
-0.00024097872
-0.00054982962
-0.00087198028
-0.0011731229
-0.001429029
-0.0016235281
-0.0017462618
-0.0017907881
-0.0017531673
-0.0016310357
-0.0014231373
-0.0011292383
-0.00075032915
-0.00028901687
0.00024998705
0.00085937176
0.0015288071
0.0022446648
0.0029899475
0.0037446258
0.0044859932
0.0051896982
0.0058308981
0.006385709
0.0068328148
0.0071551119
0.0073412544
0.0073869528
0.0072958817
0.0070800782
0.0067597772
0.0063627297
0.0059230984
0.005479847
0.00507415
0.0047493986
0.0045508156
0.0045157488
0.00047270045
0.00025460669
-1.1814378e-06
-0.00028027298
-0.00056057952
-0.00081754832
-0.0010334093
-0.001196113
-0.0012974532
-0.0013319103
-0.0012957681
-0.0011864964
-0.0010024563
-0.00074289184
-0.00040814676
-3.6329672e-08
0.00047770106
0.0010189459
0.001614805
0.0022533497
0.0029195815
0.0035955497
0.0042608905
0.0048935992
0.0054711308
0.0059717571
0.0063760809
0.0066685774
0.0068390217
0.0068836624
0.0068060141
0.0066171598
0.006335484
0.0059858331
0.0055981956
0.0052059748
0.0048437196
0.0045456438
0.0043481326
0.0042810614
0.00089431503
0.0005626338
0.00026213355
-2.3668692e-05
-0.00029435533
-0.00053354343
-0.00072969823
-0.00087561858
-0.0009662306
-0.00099783806
-0.00096762834
-0.00087331667
-0.00071303401
-0.00048544344
-0.00019003519
0.00017245205
0.00059954136
0.0010865219
0.0016260144
0.0022076677
0.0028180537
0.0034407312
0.0040567424
0.0046452964
0.0051848207
0.0056542881
0.0060347281
0.0063107892
0.0064721852
0.0065148585
0.0064417252
0.0062629042
0.0059953714
0.0056620224
0.0052901888
0.0049097712
0.004551385
0.0042448979
0.0040168769
0.0038812999
0.0013451581
0.00088480854
0.00052202487
0.00021175381
-6.6030943e-05
-0.00030210751
-0.00049084404
-0.00062999752
-0.00071790741
-0.00075300662
-0.00073363182
-0.00065788093
-0.00052367211
-0.00032899793
-7.2327005e-05
0.00024688966
0.00062765308
0.0010668441
0.0015587051
0.0020944452
0.0026620354
0.0032462472
0.0038290111
0.0043900908
0.0049081022
0.0053618345
0.0057317982
0.006001864
0.0061608108
0.0062035795
0.0061320541
0.0059552571
0.0056889247
0.0053544751
0.0049773964
0.0045852818
0.0042063932
0.0038678869
0.003585288
0.0033614309
0.0017720872
0.0011780008
0.0007438653
0.00039789922
0.00010124986
-0.00014305357
-0.00033476106
-0.00047634885
-0.00056950193
-0.00061479497
-0.00061173867
-0.00055880591
-0.00045363952
-0.00029344169
-7.5495619e-05
0.00020222038
0.00054036527
0.00093756014
0.0013897608
0.0018897445
0.0024267863
0.0029866059
0.0035516254
0.0041016159
0.0046147022
0.0050687131
0.0054427941
0.0057191548
0.0058847684
0.0059327974
0.0058635199
0.0056845887
0.0054105734
0.0050618304
0.0046627492
0.0042397148
0.0038201762
0.0034307281
0.0030783821
0.002750686
0.0021298736
0.0014036711
0.00089475203
0.00050663278
0.00018325909
-7.7732026e-05
-0.00028092905
-0.00043314115
-0.00053914254
-0.00060147667
-0.00062069619
-0.00059552676
-0.00052320238
-0.000399979
-0.00022177639
1.5089224e-05
0.00031311838
0.00067283116
0.0010920125
0.0015650642
0.0020825419
0.0026309797
0.0031930273
0.0037480462
0.0042731005
0.0047443552
0.0051387883
0.0054360813
0.0056205067
0.0056825819
0.005620235
0.0054392569
0.0051529298
0.0047808495
0.0043470069
0.0038776356
0.003400805
0.0029443632
0.0025084497
0.0020663637
0.0023799442
0.0015270646
0.00094378976
0.00051075245
0.00015604899
-0.00012751554
-0.00034889765
-0.00051881703
-0.00064479404
-0.00073106179
-0.00077898038
-0.00078732277
-0.00075272295
-0.00067030015
-0.00053441165
-0.00033950199
-8.1014903e-05
0.00024367509
0.00063436545
0.001087227
0.0015941849
0.0021426017
0.0027152548
0.0032908506
0.0038449672
0.0043514914
0.0047844511
0.0051200944
0.0053390188
0.0054281113
0.0053820312
0.005203975
0.0049055427
0.0045056433
0.0040284451
0.0035010456
0.002953516
0.0024166458
0.0018856433
0.0013224004
0.0024884883
0.0015164875
0.00086167625
0.00038337539
-5.0616468e-06
-0.00031529125
-0.00056025455
-0.00075417849
-0.00090696727
-0.0010242251
-0.0011078381
-0.0011563763
-0.0011656457
-0.0011294105
-0.0010402438
-0.00089048143
-0.00067325342
-0.00038355324
-1.9289134e-05
0.00041774702
0.00092108046
0.0014790811
0.0020747249
0.0026859986
0.0032867305
0.0038480245
0.0043401984
0.0047350836
0.0050084703
0.0051424264
0.0051271962
0.0049623907
0.0046572386
0.0042297389
0.0037045903
0.0031106686
0.0024814148
0.0018522236
0.0012147897
0.0005203772
0.0024250312
0.0013428581
0.0006208466
9.8456818e-05
-0.00032472748
-0.00066458009
-0.00093771766
-0.0011615106
-0.0013479029
-0.0015035562
-0.0016305982
-0.0017271369
-0.0017879089
-0.0018050892
-0.0017692238
-0.0016702716
-0.0014987423
-0.0012468941
-0.00090994462
-0.00048723161
1.6776022e-05
0.00059185873
0.0012214328
0.0018829011
0.0025482608
0.0031854663
0.0037604242
0.0042395068
0.0045923739
0.0047947938
0.0048311118
0.0046960212
0.0043953533
0.0039456403
0.0033721674
0.0027063098
0.0019862079
0.0012535647
0.00049766415
-0.00034062122
0.0021617959
0.0009795409
0.00019570108
-0.00036865418
-0.00082676363
-0.0011985461
-0.001504041
-0.0017634415
-0.0019904237
-0.0021924244
-0.0023715547
-0.0025252225
-0.0026468664
-0.002726838
-0.0027534
-0.0027138375
-0.002595681
-0.00238802
-0.0020828685
-0.0016765288
-0.001170856
-0.00057397916
9.8406367e-05
0.0008235055
0.0015716221
0.0023073715
0.002991653
0.0035843292
0.004047443
0.0043486546
0.0044644771
0.0043828636
0.0041047592
0.0036442632
0.0030269505
0.0022871548
0.0014689511
0.00062211038
-0.00026565766
-0.0012642054
0.0016735864
0.00040241886
-0.00043711423
-0.0010407335
-0.0015334921
-0.0019392095
-0.0022811318
-0.0025819948
-0.0028569445
-0.0031139575
-0.003354917
-0.0035763357
-0.0037701614
-0.0039247108
-0.0040257106
-0.0040574551
-0.0040040917
-0.003851031
-0.003586454
-0.0032028513
-0.0026985166
-0.0020790655
-0.0013580315
-0.0005578248
0.00029056432
0.0011484635
0.0019713356
0.0027115381
0.0033219069
0.0037598795
0.0039916954
0.0039961016
0.0037670047
0.0033145213
0.0026637618
0.0018521577
0.00093082257
-4.0582395e-05
-0.0010753064
-0.0022547831
0.00093800296
-0.00040984202
-0.0012983317
-0.0019381695
-0.0024650917
-0.0029066707
-0.003289162
-0.0036376013
-0.003968393
-0.0042898768
-0.0046035577
-0.0049049187
-0.0051842787
-0.0054277532
-0.0056183079
-0.005736932
-0.005763958
-0.0056805432
-0.0054703006
-0.0051210287
-0.0046264827
-0.003988298
-0.0032169806
-0.0023334139
-0.0013690441
-0.00036542122
0.00062732767
0.0015532105
0.0023542437
0.0029752799
0.0033693338
0.0035027329
0.0033593145
0.0029428176
0.0022764583
0.0014004663
0.00037393461
-0.00073167702
-0.0019301154
-0.0033156744
-6.4133338e-05
-0.0014753969
-0.0024056136
-0.003078414
-0.00363893
-0.0041183125
-0.0045456387
-0.0049480346
-0.0053430078
-0.0057391527
-0.0061375193
-0.0065325006
-0.006912721
-0.0072619936
-0.0075603513
-0.0077851972
-0.0079126214
-0.0079189196
-0.0077823233
-0.0074849185
-0.0070147114
-0.0063678167
-0.0055502929
-0.0045799589
-0.0034873922
-0.0023161054
-0.0011215222
3.1485119e-05
0.0010726155
0.0019316244
0.0025448838
0.0028622905
0.0028535249
0.0025124119
0.0018578404
0.00093185586
-0.00019779413
-0.0014458349
-0.0028261163
-0.0044473815
-0.0013482426
-0.0028087608
-0.0037730768
-0.0044754342
-0.0050689044
-0.0055880085
-0.0060644611
-0.0065273034
-0.0069950518
-0.0074765244
-0.0079723249
-0.008475784
-0.0089738524
-0.0094480239
-0.0098753045
-0.010229296
-0.010481463
-0.010602648
-0.010564859
-0.010343352
-0.0099189765
-0.0092807312
-0.0084282948
-0.007374466
-0.0061470689
-0.0047900143
-0.0033630757
-0.0019399776
-0.00060448709
0.00055557939
0.0014561764
0.0020259651
0.0022151915
0.0020028001
0.0013995225
0.0004471708
-0.0007776816
-0.0021738682
-0.0037549217
-0.0056458018
-0.0029254201
-0.0044203494
-0.0054108455
-0.0061392085
-0.0067648358
-0.0073253755
-0.0078550033
-0.0083845418
-0.0089334894
-0.0095109427