/*--------------------------------*- C++ -*----------------------------------*\
  =========                 |
  \\      /  F ield         | OpenFOAM: The Open Source CFD Toolbox
   \\    /   O peration     | Website:  https://openfoam.org
    \\  /    A nd           | Version:  7
     \\/     M anipulation  |
\*---------------------------------------------------------------------------*/
FoamFile
{
    version     2.0;
    format      ascii;
    class       surfaceScalarField;
    location    "22";
    object      phi;
}
// * * * * * * * * * * * * * * * * * * * * * * * * * * * * * * * * * * * * * //

dimensions      [0 3 -1 0 0 0 0];

internalField   nonuniform List<scalar> 
45600
(
2.7491109e-07
-2.8248714e-07
-8.5162984e-11
4.0319786e-07
-1.2826009e-07
-2.6862106e-11
1.3248065e-07
2.7072465e-07
-7.6561377e-12
-5.6235214e-07
6.9483473e-07
-2.2268255e-12
-1.639327e-06
1.0769714e-06
3.0188004e-12
-3.0276132e-06
1.3882792e-06
6.5497592e-12
-4.6524309e-06
1.6248087e-06
8.8704185e-12
-6.4450372e-06
1.7925958e-06
1.0533612e-11
-8.3453364e-06
1.9002876e-06
1.1727976e-11
-1.0301328e-05
1.9559786e-06
1.2505525e-11
-1.2267259e-05
1.9659179e-06
1.291365e-11
-1.4201411e-05
1.9341386e-06
1.302188e-11
-1.6064042e-05
1.8626182e-06
1.2892903e-11
-1.7815806e-05
1.7517512e-06
1.2533157e-11
-1.941681e-05
1.6009925e-06
1.1879219e-11
-2.0826394e-05
1.4095734e-06
1.0848884e-11
-2.2003628e-05
1.1772233e-06
9.420904e-12
-2.2908479e-05
9.0484266e-07
7.6703159e-12
-2.3503572e-05
5.9508751e-07
5.7024737e-12
-2.3756404e-05
2.5282973e-07
3.5765887e-12
-2.3641848e-05
-1.1455648e-07
1.2462149e-12
-2.3144728e-05
-4.9711897e-07
-1.3832497e-12
-2.2262313e-05
-8.8241346e-07
-4.2988831e-12
-2.100638e-05
-1.2559277e-06
-7.273145e-12
-1.9404655e-05
-1.6017161e-06
-9.9161603e-12
-1.7501378e-05
-1.9032625e-06
-1.1959581e-11
-1.5356823e-05
-2.144538e-06
-1.3418591e-11
-1.304564e-05
-2.3111683e-06
-1.4549842e-11
-1.0654015e-05
-2.3916127e-06
-1.5516136e-11
-8.2757626e-06
-2.378242e-06
-1.6054275e-11
-6.0075454e-06
-2.2682038e-06
-1.5545354e-11
-3.9435357e-06
-2.0639918e-06
-1.3565999e-11
-2.1698036e-06
-1.7737144e-06
-1.0438629e-11
-7.5856154e-07
-1.4112326e-06
-7.1179179e-12
2.3818971e-07
-9.9675355e-07
-4.4702944e-12
7.9652209e-07
-5.5834014e-07
-2.6918984e-12
9.2924533e-07
-1.3272438e-07
7.5026836e-14
7.0555578e-07
2.2369718e-07
5.1152604e-12
2.9045492e-07
4.1510883e-07
1.1233917e-11
2.9045655e-07
5.8211878e-12
1.3275829e-07
-4.1522135e-07
-2.4267293e-11
-3.01812e-07
3.0632489e-07
-1.5404935e-11
-1.6154882e-06
1.5844135e-06
-1.3315951e-11
-3.8747445e-06
2.9541045e-06
-1.3906904e-11
-7.0073208e-06
4.2095624e-06
-1.4933498e-11
-1.0879666e-05
5.2606401e-06
-1.6402297e-11
-1.5335009e-05
6.0801691e-06
-1.7808618e-11
-2.0215772e-05
6.6733772e-06
-1.8810997e-11
-2.5373752e-05
7.0582874e-06
-1.9324968e-11
-3.0672886e-05
7.2551318e-06
-1.9383822e-11
-3.5988075e-05
7.2811256e-06
-1.9061849e-11
-4.1202286e-05
7.1483679e-06
-1.8407635e-11
-4.6203356e-05
6.8637054e-06
-1.7399372e-11
-5.0881418e-05
6.4298274e-06
-1.5971707e-11
-5.512749e-05
5.8470789e-06
-1.4094357e-11
-5.8833527e-05
5.1156226e-06
-1.1826056e-11
-6.1893972e-05
4.237678e-06
-9.2843096e-12
-6.4208751e-05
3.2196283e-06
-6.5380826e-12
-6.5687487e-05
2.0738265e-06
-3.5694777e-12
-6.62546e-05
8.1994044e-07
-2.8976734e-13
-6.5855133e-05
-5.1402753e-07
3.3253134e-12
-6.4459993e-05
-1.892266e-06
7.1594828e-12
-6.207171e-05
-3.2707051e-06
1.0836623e-11
-5.8728383e-05
-4.5992678e-06
1.4031055e-11
-5.4506444e-05
-5.8236744e-06
1.6682165e-11
-4.9521355e-05
-6.8883739e-06
1.8987373e-11
-4.3925936e-05
-7.7399816e-06
2.1155045e-11
-3.790608e-05
-8.3310462e-06
2.3043113e-11
-3.1673861e-05
-8.6238512e-06
2.4079444e-11
-2.54582e-05
-8.5939237e-06
2.3676423e-11
-1.9493484e-05
-8.2329438e-06
2.1851487e-11
-1.4006656e-05
-7.5508473e-06
1.9396327e-11
-9.2032768e-06
-6.5771166e-06
1.722649e-11
-5.2529256e-06
-5.3615946e-06
1.5418405e-11
-2.2740241e-06
-3.9756555e-06
1.3004733e-11
-3.1731864e-07
-2.5150459e-06
8.923644e-12
6.5701886e-07
-1.1070738e-06
3.228358e-12
8.0364683e-07
7.7045592e-08
2.7901389e-13
4.178241e-07
8.0090228e-07
2.3113481e-12
7.0829184e-07
-1.7580668e-12
-2.7363812e-07
-1.415701e-07
-1.3353456e-11
-1.6275495e-06
1.6602439e-06
-8.1728033e-12
-4.2894377e-06
4.2463105e-06
-9.4233505e-12
-8.2746481e-06
6.9393223e-06
-7.9006988e-12
-1.3474304e-05
9.409224e-06
-5.809892e-12
-1.9708508e-05
1.1494848e-05
-4.6458419e-12
-2.6765426e-05
1.3137091e-05
-3.9163337e-12
-3.4426173e-05
1.4334127e-05
-3.3442652e-12
-4.2478064e-05
1.5110181e-05
-2.8476616e-12
-5.0719758e-05
1.5496828e-05
-2.3576605e-12
-5.8961479e-05
1.5522848e-05
-1.8630087e-12
-6.7022755e-05
1.5209645e-05
-1.411133e-12
-7.4729484e-05
1.4570435e-05
-1.0345232e-12
-8.1911569e-05
1.3611912e-05
-6.9367268e-13
-8.8401907e-05
1.2337417e-05
-2.9971905e-13
-9.4037161e-05
1.0750876e-05
1.9885816e-13
-9.8660424e-05
8.8609405e-06
7.4489867e-13
-0.00010212569
6.6848898e-06
1.2074057e-12
-0.0001043038
4.251941e-06
1.4761399e-12
-0.00010508959
1.6057236e-06
1.584229e-12
-0.00010440926
-1.1943609e-06
1.713063e-12
-0.00010222813
-4.0733976e-06
2.0222797e-12
-9.855727e-05
-6.9415672e-06
2.4815702e-12
-9.345885e-05
-9.6976895e-06
2.8305069e-12
-8.7049352e-05
-1.2233174e-05
2.7844333e-12
-7.9500082e-05
-1.4437647e-05
2.3320566e-12
-7.1034501e-05
-1.6205568e-05
1.8554134e-12
-6.1922083e-05
-1.7443469e-05
1.8535703e-12
-5.2468641e-05
-1.8077297e-05
2.4318757e-12
-4.3003299e-05
-1.8059266e-05
3.0616716e-12
-3.3862557e-05
-1.7373684e-05
3.0019822e-12
-2.5372063e-05
-1.6041344e-05
2.1245774e-12
-1.7826801e-05
-1.4122384e-05
1.2863941e-12
-1.1470384e-05
-1.1718018e-05
1.6180376e-12
-6.473881e-06
-8.9721605e-06
3.2268564e-12
-2.9140787e-06
-6.0748436e-06
4.6898716e-12
-7.5126182e-07
-3.2698835e-06
4.2663205e-12
1.9432712e-07
-8.6854113e-07
2.9325907e-12
2.6547584e-07
7.2973726e-07
3.5054038e-12
9.737736e-07
2.5306934e-13
-7.4586831e-07
6.0431129e-07
-1.34257e-11
-3.1796504e-06
4.0940276e-06
-2.0411212e-12
-7.3460723e-06
8.4127394e-06
-7.4738229e-12
-1.3162942e-05
1.2756199e-05
-6.7938392e-12
-2.0455593e-05
1.6701879e-05
-4.1115212e-12
-2.8992277e-05
2.0031534e-05
-2.6932513e-12
-3.851337e-05
2.2658185e-05
-1.7479514e-12
-4.8752009e-05
2.4572767e-05
-9.4630298e-13
-5.9446149e-05
2.5804321e-05
-3.1984485e-13
-7.0343833e-05
2.6394512e-05
2.0213482e-13
-8.1203963e-05
2.6382977e-05
6.970136e-13
-9.1794659e-05
2.5800339e-05
1.1591652e-12
-0.00010189094
2.4666717e-05
1.5234606e-12
-0.00011127303
2.2993996e-05
1.7436964e-12
-0.00011972606
2.0790451e-05
1.8535098e-12
-0.0001270418
1.8066606e-05
1.9495457e-12
-0.00013302228
1.4841418e-05
2.0997644e-12
-0.00013748549
1.1148101e-05
2.2629287e-12
-0.00014027257
7.039022e-06
2.2894448e-12
-0.00014125613
2.589275e-06
2.0511332e-12
-0.00014034889
-2.101598e-06
1.5882936e-12
-0.00013751257
-6.9097148e-06
1.0770619e-12
-0.00013276531
-1.1688829e-05
7.6396975e-13
-0.00012618772
-1.6275281e-05
6.9128564e-13
-0.00011792645
-2.049445e-05
6.0865405e-13
-0.00010819463
-2.416946e-05
1.7031171e-13
-9.7268769e-05
-2.7131433e-05
-6.8510613e-13
-8.5481486e-05
-2.9230754e-05
-1.527686e-12
-7.3210199e-05
-3.0348585e-05
-1.714116e-12
-6.0861685e-05
-3.040778e-05
-1.0206373e-12
-4.8853023e-05
-2.9382343e-05
-1.4939467e-14
-3.7589606e-05
-2.7304755e-05
3.8094869e-13
-2.7441128e-05
-2.427086e-05
-9.7253912e-14
-1.8716594e-05
-2.0442557e-05
-5.4948165e-13
-1.1639424e-05
-1.6049339e-05
2.5661644e-13
-6.3235784e-06
-1.1390696e-05
2.4103438e-12
-2.7515579e-06
-6.8419046e-06
4.4719859e-12
-7.5717056e-07
-2.8629261e-06
4.8415798e-12
-9.5396706e-09
-1.7903779e-08
3.9153415e-12
9.6423294e-07
2.8736165e-12
-1.2279667e-06
1.8322924e-06
-1.4823114e-11
-4.7880774e-06
7.6541338e-06
4.0660501e-12
-1.0521437e-05
1.4146105e-05
-6.4901978e-12
-1.8214114e-05
2.0448884e-05
-7.5941101e-12
-2.7603573e-05
2.6091342e-05
-5.207487e-12
-3.8395762e-05
3.0823727e-05
-4.4363518e-12
-5.0282331e-05
3.4544758e-05
-4.0276931e-12
-6.2953859e-05
3.7244299e-05
-3.5123269e-12
-7.6107908e-05
3.8958372e-05
-3.0597082e-12
-8.9452439e-05
3.9739045e-05
-2.6801497e-12
-0.00010270594
3.9636477e-05
-2.2848082e-12
-0.0001155958
3.8690208e-05
-1.8171618e-12
-0.00012785644
3.6927354e-05
-1.2997184e-12
-0.00013922814
3.4365692e-05
-8.1408424e-13
-0.00014945755
3.1019865e-05
-4.2530756e-13
-0.00015830017
2.6909223e-05
-1.1133782e-13
-0.00016552485
2.2066101e-05
2.3191088e-13
-0.00017092031
1.654356e-05
6.9797397e-13
-0.00017430315
1.0421854e-05
1.2597513e-12
-0.00017552693
3.8130576e-06
1.756826e-12
-0.00017449176
-3.1367693e-06
2.0147053e-12
-0.00017115361
-1.0247869e-05
2.0002859e-12
-0.00016553265
-1.7309792e-05
1.9155168e-12
-0.0001577199
-2.4088033e-05
2.0445354e-12
-0.00014788137
-3.0332985e-05
2.4760624e-12
-0.00013625896
-3.5791868e-05
2.9394988e-12
-0.00012316753
-4.0222866e-05
2.9830156e-12
-0.0001089875
-4.3410788e-05
2.4295508e-12
-9.4152793e-05
-4.5183294e-05
1.6924989e-12
-7.913405e-05
-4.5426528e-05
1.5212721e-12
-6.4417449e-05
-4.4098947e-05
2.253311e-12
-5.047992e-05
-4.1242284e-05
3.2995473e-12
-3.7761834e-05
-3.6988942e-05
3.601291e-12
-2.6638633e-05
-3.1565758e-05
2.7899697e-12
-1.7393071e-05
-2.5294906e-05
1.7732606e-12
-1.0189878e-05
-1.8593899e-05
2.0100794e-12
-5.0547329e-06
-1.1977058e-05
3.8891255e-12
-1.85984e-06
-6.0578193e-06
4.4655743e-12
-3.2223546e-07
-1.5555055e-06
8.1682936e-13
6.4198824e-07
5.5429058e-12
-1.6931516e-06
3.5254609e-06
-1.7266697e-11
-6.3713342e-06
1.2332306e-05
9.5352727e-12
-1.3671272e-05
2.1446048e-05
-5.459571e-12
-2.3233732e-05
3.0011351e-05
-7.6226131e-12
-3.4694735e-05
3.755235e-05
-4.9223778e-12
-4.7689106e-05
4.3818103e-05
-4.3688898e-12
-6.1856583e-05
4.8712238e-05
-4.2125043e-12
-7.684689e-05
5.2234609e-05
-3.784194e-12
-9.2322452e-05
5.4433938e-05
-3.336684e-12
-0.00010795861
5.5375211e-05
-2.9671168e-12
-0.00012344208
5.5119943e-05
-2.6332191e-12
-0.00013846859
5.3716718e-05
-2.2576089e-12
-0.00015274092
5.1199686e-05
-1.7856071e-12
-0.00016596805
4.7592828e-05
-1.239404e-12
-0.0001778661
4.2917914e-05
-7.1200552e-13
-0.00018816129
3.7204415e-05
-2.9056995e-13
-0.00019659504
3.0499854e-05
3.2249695e-14
-0.00020293094
2.2879456e-05
3.6913324e-13
-0.00020696323
1.4454145e-05
8.4222474e-13
-0.00020852641
5.3762383e-06
1.4515001e-12
-0.0002075053
-4.1578804e-06
2.0281198e-12
-0.00020384497
-1.3908207e-05
2.3495033e-12
-0.00019755989
-2.3594866e-05
2.3364925e-12
-0.00018874156
-3.2906366e-05
2.1873188e-12
-0.00017756368
-4.1510869e-05
2.252974e-12
-0.00016428427
-4.9071284e-05
2.7059219e-12
-0.00014924376
-5.5263382e-05
3.2888736e-12
-0.00013285839
-5.9796158e-05
3.4623572e-12
-0.0001156084
-6.2433284e-05
2.9363593e-12
-9.8020723e-05
-6.3014211e-05
2.1060794e-12
-8.0646411e-05
-6.1473264e-05
1.8251479e-12
-6.4033566e-05
-5.7855134e-05
2.5408753e-12
-4.8697011e-05
-5.2325499e-05
3.6597069e-12
-3.5086611e-05
-4.5176157e-05
4.008786e-12
-2.3556497e-05
-3.682502e-05
3.1334347e-12
-1.4337776e-05
-2.7812628e-05
2.3037822e-12
-7.5174494e-06
-1.8797393e-05
3.436683e-12
-3.026714e-06
-1.0548558e-05
3.6280431e-12
-6.4248829e-07
-3.9397258e-06
-1.563211e-12
-5.1151854e-10
8.4700997e-12
-2.1329076e-06
5.6583883e-06
-1.9996732e-11
-7.8909623e-06
1.8090346e-05
1.4359267e-11
-1.6717155e-05
3.0272245e-05
-4.6857468e-12
-2.8105312e-05
4.1399515e-05
-7.6254653e-12
-4.1584445e-05
5.1031487e-05
-4.4091326e-12
-5.671325e-05
5.8946911e-05
-3.9095965e-12
-7.3077134e-05
6.5076126e-05
-3.9376143e-12
-9.0285675e-05
6.9443153e-05
-3.5960043e-12
-0.00010796964
7.2117903e-05
-3.1553399e-12
-0.00012577731
7.3182889e-05
-2.7503713e-12
-0.00014337053
7.2713159e-05
-2.4035954e-12
-0.00016042096
7.0767151e-05
-2.0900591e-12
-0.00017660751
6.7386236e-05
-1.7349478e-12
-0.00019161526
6.2600582e-05
-1.2738158e-12
-0.00020513647
5.6439124e-05
-7.2397284e-13
-0.00021687367
4.8941611e-05
-1.9066402e-13
-0.00022654488
4.0171068e-05
2.1621484e-13
-0.00023389075
3.0225324e-05
4.8682995e-13
-0.00023868317
1.9246568e-05
7.4005794e-13
-0.00024073512
7.4281876e-06
1.1300983e-12
-0.00023991114
-4.9818625e-06
1.6901572e-12
-0.00023613791
-1.7681439e-05
2.260358e-12
-0.00022941451
-3.0318268e-05
2.5623154e-12
-0.00021982138
-4.2499497e-05
2.4634354e-12
-0.00020752735
-5.3804896e-05
2.1563086e-12
-0.00019279377
-6.3804872e-05
2.0611922e-12
-0.00017597463
-7.2082527e-05
2.4453666e-12
-0.00015751183
-7.8258956e-05
3.0803651e-12
-0.00013792459
-8.2020527e-05
3.3522249e-12
-0.00011779245
-8.3146349e-05
2.8660889e-12
-9.7731934e-05
-8.1533788e-05
1.9938468e-12
-7.8367341e-05
-7.7219734e-05
1.6627936e-12
-6.0297288e-05
-7.0395557e-05
2.3842296e-12
-4.4059123e-05
-6.1414324e-05
3.4953954e-12
-3.009417e-05
-5.0789972e-05
3.7232809e-12
-1.8717113e-05
-3.9189686e-05
3.2063251e-12
-1.0092979e-05
-2.7421535e-05
4.007803e-12
-4.2252845e-06
-1.6416258e-05
3.0577124e-12
-9.584784e-07
-7.2065264e-06
-4.745876e-12
-9.5900091e-07
1.0535486e-11
-2.5450144e-06
8.2034253e-06
-2.2732754e-11
-9.3286986e-06
2.487401e-05
1.8674536e-11
-1.961505e-05
4.05586e-05
-4.1954098e-12
-3.2756325e-05
5.4540796e-05
-7.8750398e-12
-4.8175114e-05
6.645028e-05
-4.1627518e-12
-6.5353044e-05
7.6124845e-05
-3.6854677e-12
-8.3820803e-05
8.3543888e-05
-3.8750458e-12
-0.00010314899
8.8771341e-05
-3.6577091e-12
-0.00012293969
9.1908604e-05
-3.2988884e-12
-0.00014281873
9.3061933e-05
-2.9058523e-12
-0.00016242883
9.2323268e-05
-2.5162447e-12
-0.00018142411
8.9762424e-05
-2.1768069e-12
-0.00019946624
8.5428368e-05
-1.8737847e-12
-0.00021622282
7.9357169e-05
-1.5264356e-12
-0.00023136791
7.1584209e-05
-1.0590931e-12
-0.00024458479
6.2158492e-05
-4.8369612e-13
-0.00025557096
5.1157243e-05
8.6286629e-14
-0.00026404499
3.8699349e-05
5.1901223e-13
-0.00026975498
2.4956557e-05
7.8280524e-13
-0.00027248843
1.0161639e-05
9.9522492e-13
-0.00027208309
-5.3872025e-06
1.3383637e-12
-0.00026843825
-2.1326279e-05
1.900556e-12
-0.00026152644
-3.7230086e-05
2.5118496e-12
-0.00025140427
-5.2621663e-05
2.8589002e-12
-0.00023822208
-6.6987085e-05
2.7474791e-12
-0.00022223099
-7.9795966e-05
2.3488483e-12
-0.00020378626
-9.052726e-05
2.137874e-12
-0.00018334554
-9.8699685e-05
2.469859e-12
-0.00016146061
-0.00010390545
3.1517008e-12
-0.00013876177
-0.0001058452
3.5171416e-12
-0.00011593412
-0.00010436143
3.0955931e-12
-9.3686586e-05
-9.9467275e-05
2.2463175e-12
-7.2714713e-05
-9.1367436e-05
1.9273219e-12
-5.3660233e-05
-8.046881e-05
2.5604005e-12
-3.7070744e-05
-6.7379463e-05
3.3260055e-12
-2.336374e-05
-5.2896688e-05
3.7414198e-12
-1.2799209e-05
-3.798607e-05
5.1393374e-12
-5.4648373e-06
-2.3750636e-05
3.1086819e-12
-1.2772482e-06
-1.139411e-05
-8.0059405e-12
-2.2362607e-06
1.2756472e-11
-2.9284332e-06
1.1131884e-05
-2.540463e-11
-1.0673496e-05
3.2619049e-05
2.2566052e-11
-2.2335807e-05
5.2220915e-05
-3.8547215e-12
-3.7135367e-05
6.9340364e-05
-8.2372427e-12
-5.4393225e-05
8.3708141e-05
-4.0688006e-12
-7.3516439e-05
9.5248064e-05
-3.5862878e-12
-9.3982794e-05
0.00010401025
-3.8716562e-12
-0.00011532613
0.00011011468
-3.7383731e-12
-0.00013712302
0.0001137055
-3.4838965e-12
-0.00015898107
0.00011491998
-3.1700077e-12
-0.00018052902
0.00011387122
-2.7830706e-12
-0.00020140911
0.00011064252
-2.3853293e-12
-0.00022127174
0.000105291
-2.0391293e-12
-0.00023977267
9.7858103e-05
-1.7335618e-12
-0.00025657268
8.8384222e-05
-1.3844131e-12
-0.00027133963
7.6925434e-05
-9.0484434e-13
-0.00028375265
6.3570268e-05
-2.9657947e-13
-0.00029350844
4.8455136e-05
3.2508096e-13
-0.00030032921
3.1777331e-05
8.0678433e-13
-0.00030397238
1.3804807e-05
1.0839315e-12
-0.00030424167
-5.1179142e-06
1.2594849e-12
-0.00030099919
-2.4568761e-05
1.5738163e-12
-0.0002941789
-4.4050383e-05
2.1246664e-12
-0.00028379983
-6.3000732e-05
2.7759597e-12
-0.00026997902
-8.0807898e-05
3.1830875e-12
-0.00025294255
-9.6832428e-05
3.0878772e-12
-0.00023303334
-0.00011043647
2.6289785e-12
-0.00021071365
-0.00012101938
2.3160797e-12
-0.00018656063
-0.00012805848
2.5751235e-12
-0.0001612531
-0.00013115273
3.2494146e-12
-0.00013554855
-0.00013006598
3.6531598e-12
-0.00011025034
-0.00012476548
3.2982969e-12
-8.6166519e-05
-0.00011545126
2.5541597e-12
-6.4063108e-05
-0.00010257223
2.2473514e-12
-4.4616246e-05
-8.6826329e-05
2.5315326e-12
-2.8368268e-05
-6.9144666e-05
3.4500262e-12
-1.5693012e-05
-5.0661328e-05
5.9812086e-12
-6.7751634e-06
-3.2668487e-05
3.5214315e-12
-1.6070231e-06
-1.6562241e-05
-1.0953322e-11
-3.8432982e-06
1.5147683e-11
-3.2816442e-06
1.4413555e-05
-2.7976949e-11
-1.1915671e-05
4.1253049e-05
2.6042126e-11
-2.4855099e-05
6.5160346e-05
-3.6104237e-12
-4.1199242e-05
8.5684515e-05
-8.6317293e-12
-6.0175332e-05
0.00010268423
-4.0650655e-12
-8.1120946e-05
0.00011619368
-3.5843682e-12
-0.00010346466
0.00012635397
-3.9240282e-12
-0.0001267069
0.00013335692
-3.8070602e-12
-0.00015040232
0.00013740093
-3.6127348e-12
-0.00017414448
0.00013866214
-3.3998377e-12
-0.00019755298
0.00013727972
-3.0889666e-12
-0.00022026344
0.00013335297
-2.6883133e-12
-0.00024192038
0.00012694795
-2.2721892e-12
-0.00026217295
0.00011811067
-1.9079326e-12
-0.00028067325
0.00010688453
-1.5919287e-12
-0.00029707723
9.3329419e-05
-1.2394223e-12
-0.00031104778
7.7540816e-05
-7.5076309e-13
-0.00032225991
5.9667261e-05
-1.0983769e-13
-0.00033040795
3.9925373e-05
5.7106248e-13
-0.00033521475
1.8611604e-05
1.1044509e-12
-0.00033644298
-3.8896877e-06
1.3781001e-12
-0.00033390769
-2.7104046e-05
1.5652998e-12
-0.00032749208
-5.0465996e-05
1.8289706e-12
-0.00031716319
-7.3329626e-05
2.3460503e-12
-0.00030298885
-9.4982248e-05
3.0155632e-12
-0.00028515363
-0.00011466764
3.4714035e-12
-0.00026397227
-0.00013161784
3.4015624e-12
-0.00023989802
-0.00014509364
2.9071768e-12
-0.00021352355
-0.00015443294
2.5106666e-12
-0.00018557183
-0.00015910445
2.6798052e-12
-0.00015687496
-0.00015876286
3.2872584e-12
-0.00012834033
-0.00015330012
3.6771575e-12
-0.00010090506
-0.00014288654
3.4139352e-12
-7.5481733e-05
-0.00012799555
2.7607516e-12
-5.2900638e-05
-0.00010940743
2.2266868e-12
-3.3854795e-05
-8.8190512e-05
2.8771748e-12
-1.8854609e-05
-6.5661517e-05
6.2944062e-12
-8.1981887e-06
-4.3324909e-05
3.7412342e-12
-1.9611462e-06
-2.279927e-05
-1.3929768e-11
-5.8044622e-06
1.7879603e-11
-3.6022421e-06
1.8015827e-05
-3.0399616e-11
-1.3044655e-05
5.0695432e-05
2.9083606e-11
-2.7148844e-05
7.9264537e-05
-3.4665504e-12
-4.4906442e-05
0.00010344212
-9.0330845e-12
-6.5460458e-05
0.00012323825
-4.1103574e-12
-8.8085843e-05
0.00013881907
-3.6653635e-12
-0.00011216706
0.00015043519
-4.0740249e-12
-0.00013717532
0.00015836518
-3.944517e-12
-0.00016264743
0.00016287304
-3.7461819e-12
-0.00018816714
0.00016418186
-3.5900517e-12
-0.00021334954
0.00016246211
-3.3796301e-12
-0.00023782863
0.00015783207
-3.0579406e-12
-0.00026124825
0.00015036757
-2.6394804e-12
-0.00028325595
0.00014011837
-2.1965341e-12
-0.00030349975
0.00012712833
-1.8046221e-12
-0.00032162743
0.00011145711
-1.4713068e-12
-0.00033728811
9.3201491e-05
-1.1122007e-12
-0.00035013598
7.2515133e-05
-6.127797e-13
-0.00035983637
4.9625759e-05
6.2838692e-14
-0.00036607403
2.4849261e-05
7.9019385e-13
-0.00036856463
-1.3990855e-06
1.3331171e-12
-0.00036706712
-2.8601565e-05
1.7415616e-12
-0.00036140229
-5.6130826e-05
1.9075862e-12
-0.00035147068
-8.3261231e-05
2.1109559e-12
-0.00033727416
-0.00010917878
2.5783342e-12
-0.0003189375
-0.00013300431
3.2377148e-12
-0.00029672862
-0.00015382671
3.7192725e-12
-0.00027107445
-0.00017074781
3.6744399e-12
-0.00024256914
-0.00018293826
3.169793e-12
-0.00021197112
-0.00018970247
2.7172539e-12
-0.00018018579
-0.0001905482
2.7897917e-12
-0.00014823185
-0.00018525406
3.2937438e-12
-0.00011719161
-0.00017392678
3.6585118e-12
-8.8148097e-05
-0.00015703907
3.4028057e-12
-6.2114788e-05
-0.00013544074
2.5369694e-12
-3.9966112e-05
-0.00011033919
2.6830825e-12
-2.23774e-05
-8.3250234e-05
6.5092017e-12
-9.7825986e-06
-5.5919712e-05
3.6370204e-12
-2.3546733e-06
-3.0227175e-05
-1.7352402e-11
-8.1591563e-06
2.1004485e-11
-3.8869859e-06
2.1902844e-05
-3.2604803e-11
-1.4048432e-05
6.0856845e-05
3.1684326e-11
-2.9191586e-05
9.4407694e-05
-3.4373359e-12
-4.8214504e-05
0.00012246505
-9.4499707e-12
-7.0186752e-05
0.00014521051
-4.1833388e-12
-9.4328619e-05
0.00016296094
-3.783418e-12
-0.00011998641
0.00017609298
-4.2954731e-12
-0.00014660691
0.00018498569
-4.1798977e-12
-0.00017371336
0.00018997949
-3.9524881e-12
-0.00020088399
0.0001913525
-3.7874e-12
-0.0002277339
0.00018931203
-3.629593e-12
-0.00025390034
0.00018399851
-3.4104336e-12
-0.00027903146
0.0001754987
-3.078812e-12
-0.00030277836
0.00016386527
-2.6393068e-12
-0.00032478982
0.00014913979
-2.1630096e-12
-0.00034470974
0.00013137703
-1.7347784e-12
-0.00036217685
0.0001106686
-1.3740421e-12
-0.00037682666
8.7164943e-05
-1.0002396e-12
-0.00038829591
6.1095014e-05
-4.8720007e-13
-0.00039622979
3.2783131e-05
2.3290194e-13
-0.00040029195
2.6630781e-06
1.0815432e-12
-0.00040017955
-2.8713975e-05
1.727118e-12
-0.00039563985
-6.0670519e-05
2.1160227e-12
-0.00038649333
-9.2407758e-05
2.2674435e-12
-0.00037265881
-0.00012301331
2.4242778e-12
-0.0003541814
-0.00015148172
2.8302366e-12
-0.0003312605
-0.00017674761
3.4478337e-12
-0.00030427484
-0.00019773347
3.9197108e-12
-0.00027380032
-0.00021341277
3.8848332e-12
-0.00024061598
-0.00022288682
3.384655e-12
-0.00020569322
-0.00022547096
2.8990441e-12
-0.00017016476
-0.00022078252
2.8885572e-12
-0.0001352719
-0.00020881965
3.3051491e-12
-0.00010229236
-0.00019001861
3.5218319e-12
-7.2455254e-05
-0.00016527785
2.8834482e-12
-4.6852856e-05
-0.00013594159
2.9042251e-12
-2.6361118e-05
-0.00010374198
7.0709148e-12
-1.1580334e-05
-7.0700499e-05
3.4793787e-12
-2.8032874e-06
-3.9004198e-05
-2.1409972e-11
-1.0962468e-05
2.4491872e-11
-4.1320508e-06
2.6034929e-05
-3.4530703e-11
-1.4913864e-05
7.1638623e-05
3.3857811e-11
-3.0956656e-05
0.00011045049
-3.5116099e-12
-5.1079883e-05
0.00014258828
-9.8975026e-12
-7.4291169e-05
0.0001684218
-4.2971436e-12
-9.9764668e-05
0.00018843444
-3.912315e-12
-0.00012681487
0.00020314319
-4.5328057e-12
-0.00015486912
0.00021303995
-4.4767755e-12
-0.00018344141
0.00021855178
-4.2522935e-12
-0.00021210863
0.00022001973
-4.0547536e-12
-0.00024049026
0.00021769366
-3.8810873e-12
-0.00026823147
0.00021173971
-3.7099459e-12
-0.0002949898
0.00020225704
-3.4841088e-12
-0.00032042511
0.00018930058
-3.1424305e-12
-0.00034419228
0.00017290696
-2.680133e-12
-0.00036593647
0.00015312123
-2.1656747e-12
-0.00038529067
0.0001300228
-1.6912898e-12
-0.00040187556
0.00010374984
-1.2904871e-12
-0.00041530196
7.4521411e-05
-8.9074312e-13
-0.0004251763
4.2657469e-05
-3.4166853e-13
-0.00043110954
8.5963169e-06
4.5560495e-13
-0.00043273188
-2.709164e-05
1.2662293e-12
-0.00042970994
-6.3692461e-05
2.0113843e-12
-0.00042177211
-0.00010034559
2.4706148e-12
-0.00040873784
-0.00013604758
2.6422443e-12
-0.00039055172
-0.00016966783
2.7675378e-12
-0.0003673201
-0.00019997924
3.1048896e-12
-0.00033934669
-0.00022570689
3.6451685e-12
-0.00030716257
-0.00024559689
4.0595238e-12
-0.00027154437
-0.00025850502
4.0024253e-12
-0.0002335139
-0.00026350144
3.5043319e-12
-0.00019431323
-0.0002599832
3.0186465e-12
-0.00015535151
-0.00024778137
2.9877685e-12
-0.0001181242
-0.00022724592
3.1948933e-12
-8.4111073e-05
-0.00019929098
2.8029438e-12
-5.4664987e-05
-0.00016538768
3.1121414e-12
-3.0907061e-05
-0.00012749991
7.9944571e-12
-1.3644573e-05
-8.796299e-05
3.5193254e-12
-3.3229613e-06
-4.9325783e-05
-2.6082125e-11
-1.4285457e-05
2.8435954e-11
-4.333389e-06
3.0368354e-05
-3.6143249e-11
-1.5627564e-05
8.2932761e-05
3.5612979e-11
-3.2417442e-05
0.00012724037
-3.6485275e-12
-5.3459546e-05
0.0001636304
-1.036597e-11
-7.7711372e-05
0.00019267363
-4.4776453e-12
-0.00010430957
0.00021503264
-4.067899e-12
-0.00013254312
0.00023137675
-4.7585053e-12
-0.00016182479
0.00024232162
-4.7769815e-12
-0.00019166339
0.00024839039
-4.606609e-12
-0.00022163844
0.00024999478
-4.4128356e-12
-0.00025137786
0.00024743309
-4.2021521e-12
-0.00028053927
0.00024090112
-4.0068048e-12
-0.0003087946
0.00023051237
-3.8221079e-12
-0.00033581795
0.00021632394
-3.5876148e-12
-0.00036127617
0.00019836519
-3.2348339e-12
-0.00038482181
0.00017666687
-2.7486125e-12
-0.00040608831
0.0001512893
-2.1909262e-12
-0.00042468747
0.000122349
-1.6596867e-12
-0.0004402095
9.0043445e-05
-1.2022986e-12
-0.0004522263
5.4674271e-05
-7.522634e-13
-0.00046029872
1.6668735e-05
-1.6978283e-13
-0.00046398933
-2.3401035e-05
5.8031742e-13
-0.00046288034
-6.4801452e-05
1.4780868e-12
-0.0004565994
-0.00010662653
2.2987815e-12
-0.00044485224
-0.00014779474
2.8227921e-12
-0.00042746247
-0.0001870576
3.0308494e-12
-0.00040441679
-0.00022302492
3.1379563e-12
-0.00037591245
-0.00025421124
3.3956052e-12
-0.00034240171
-0.00027910763
3.8161322e-12
-0.00030462607
-0.00029628066
4.1144207e-12
-0.00026363117
-0.00030449634
3.9898307e-12
-0.00022075327
-0.0003028611
3.5048072e-12
-0.00017757014
-0.00029096451
3.0999323e-12
-0.00013581386
-0.0002690022
2.9250036e-12
-9.7251105e-05
-0.00023785374
2.3949816e-12
-6.3544294e-05
-0.00019909449
3.0119582e-12
-3.6114378e-05
-0.00015492984
9.0191863e-12
-1.6028418e-05
-0.00010804895
3.7354175e-12
-3.929801e-06
-6.1424369e-05
-3.1374308e-11
-1.821529e-05
3.3044993e-11
-4.4871615e-06
3.4855552e-05
-3.7431813e-11
-1.6177104e-05
9.4622666e-05
3.6930747e-11
-3.3549451e-05
0.00014461272
-3.803802e-12
-5.5313827e-05
0.00018539479
-1.0813818e-11
-8.0389326e-05
0.00021774913
-4.7266432e-12
-0.00010788343
0.00024252675
-4.2815248e-12
-0.00013706554
0.00026055886
-4.9904095e-12
-0.00016733823
0.00027259432
-5.0524961e-12
-0.00019820883
0.00027926099
-4.9538897e-12
-0.00022926294
0.00028104889
-4.8172458e-12
-0.00026014072
0.00027831087
-4.6099426e-12
-0.00029051646
0.00027127686
-4.371798e-12
-0.00032008139
0.00026007731
-4.1514081e-12
-0.00034852955
0.0002447721
-3.9463436e-12
-0.00037554615
0.00022538179
-3.6977522e-12
-0.00040079827
0.00020191899
-3.3311733e-12
-0.00042392759
0.00017441863
-2.8184619e-12
-0.00044454523
0.00014296664
-2.2118908e-12
-0.00046222911
0.00010772733
-1.6110375e-12
-0.00047652451
6.8969679e-05
-1.0766711e-12
-0.00048694879
2.7093016e-05
-5.6831194e-13
-0.00049300161
-1.734822e-05
2.2689565e-14
-0.00049418168
-6.3621377e-05
8.0556755e-13
-0.00049001198
-0.00011079624
1.7345315e-12
-0.00048007404
-0.00015773268
2.6024814e-12
-0.00046405212
-0.00020307952
3.1851751e-12
-0.0004417864
-0.00024529064
3.4321371e-12
-0.00041333262
-0.00028266502
3.5192363e-12
-0.00037902309
-0.00031341717
3.6745416e-12
-0.00033952076
-0.000335783
3.9244258e-12
-0.00029585526
-0.00034816185
4.0438293e-12
-0.00024942788
-0.00034928848
3.8373963e-12
-0.0002019734
-0.00033841899
3.4404749e-12
-0.00015547162
-0.00031550398
2.9621266e-12
-0.0001120107
-0.00028131466
2.0194681e-12
-7.3616905e-05
-0.00023748829
2.700188e-12
-4.207666e-05
-0.00018647009
9.9980816e-12
-1.8783846e-05
-0.00013134177
3.9557601e-12
-4.6399707e-06
-7.5568207e-05
-3.744647e-11
-2.2855299e-05
3.8502539e-11
-4.590226e-06
3.9445816e-05
-3.8386474e-11
-1.6552486e-05
0.00010658489
3.776837e-11
-3.4332933e-05
0.00016239317
-3.9603521e-12
-5.6610212e-05
0.00020767207
-1.1193931e-11
-8.227622e-05
0.00024341514
-5.0122491e-12
-0.00011041691
0.00027066745
-4.561848e-12
-0.00014028733
0.00029042929
-5.2646954e-12
-0.00017128362
0.00030359061
-5.324028e-12
-0.00020291469
0.00031089208
-5.2658839e-12
-0.00023477522
0.00031290942
-5.2014038e-12
-0.00026652085
0.00031005652
-5.0507191e-12
-0.0002978465
0.00030260251
-4.813533e-12
-0.00032846745
0.00029069827
-4.5418412e-12
-0.00035810339
0.00027440805
-4.2852642e-12
-0.00038646478
0.00025374319
-4.0487719e-12
-0.00041324127
0.00022869549
-3.7777585e-12
-0.00043809201
0.00019926937
-3.3913725e-12
-0.00046063781
0.00016551244
-2.8473138e-12
-0.00048045557
0.0001275451
-2.1857144e-12
-0.00049707571
8.558982e-05
-1.5053526e-12
-0.00050998346
4.0000771e-05
-8.8569581e-13
-0.00051862569
-8.7059897e-06
-3.1326694e-13
-0.0005224247
-5.9822361e-05
3.1714282e-13
-0.00052080107
-0.00011241987
1.1176441e-12
-0.00051320745
-0.00016532631
2.0594234e-12
-0.0004991749
-0.00021711207
2.9517727e-12
-0.00047837233
-0.00026609321
3.5688586e-12
-0.00045067761
-0.00031035974
3.8333232e-12
-0.00041625614
-0.00034783864
3.8760611e-12
-0.00037563834
-0.0003764008
3.8880363e-12
-0.00032978308
-0.0003940171
3.9090458e-12
-0.00028010997
-0.00039896159
3.8323057e-12
-0.00022848213
-0.00039004684
3.6203042e-12
-0.0001771249
-0.00036686121
3.1101845e-12
-0.00012847672
-0.00032996284
1.8041712e-12
-8.4984956e-05
-0.00028098006
2.4099589e-12
-4.8878271e-05
-0.00022257679
1.1038365e-11
-2.1960654e-05
-0.00015825939
4.1065886e-12
-5.4696333e-06
-9.2059182e-05
-4.4520308e-11
-2.8324977e-05
4.4910909e-11
-4.6406688e-06
4.4086524e-05
-3.8983684e-11
-1.6747808e-05
0.00011869199
3.8089968e-11
-3.4755943e-05
0.00018040131
-4.1337553e-12
-5.7327863e-05
0.00023024401
-1.1486582e-11
-8.3338405e-05
0.00026942569
-5.2938835e-12
-0.00011185858
0.00029918763
-4.883337e-12
-0.00014213334
0.00032070405
-5.5959376e-12
-0.00017355533
0.00033501261
-5.6328496e-12
-0.00020563748
0.00034297423
-5.5672378e-12
-0.0002379859
0.00034525784
-5.5380539e-12
-0.00027027458
0.00034234521
-5.4528551e-12
-0.00030222257
0.0003345505
-5.2669422e-12
-0.00033357373
0.00032204943
-4.9901373e-12
-0.00036407912
0.00030491345
-4.6706397e-12
-0.00039348153
0.0002831456
-4.3634259e-12
-0.00042150186
0.00025671583
-4.0824328e-12
-0.00044782711
0.00022559463
-3.7767917e-12
-0.00047209997
0.00018978531
-3.3600448e-12
-0.00049391026
0.0001493554
-2.7773575e-12
-0.00051278881
0.00010446837
-2.0560088e-12
-0.00052820482
5.541679e-05
-1.2929093e-12
-0.00053956817
2.6573599e-06
-5.7875288e-13
-0.00054623864
-5.3151881e-05
6.127182e-14
-0.00054754428
-0.00011111424
7.4017468e-13
-0.00054281194
-0.00017005866
1.5576069e-12
-0.00053141283
-0.00022851118
2.4929142e-12
-0.00051282517
-0.00028468087
3.3715626e-12
-0.00048671463
-0.00033647028
3.9749972e-12
-0.00045302988
-0.00038152339
4.2062575e-12
-0.00041210585
-0.00041732483
4.1475305e-12
-0.00036476059
-0.00044136237
3.9513311e-12
-0.00031236493
-0.00045135726
3.7306078e-12
-0.00025685922
-0.00044555256
3.5514586e-12
-0.00020069253
-0.0004230279
3.0892357e-12
-0.00014667018
-0.00038398519
1.5661443e-12
-9.7716753e-05
-0.00032993349
2.1791812e-12
-5.6589943e-05
-0.00026370361
1.2295651e-11