/*--------------------------------*- C++ -*----------------------------------*\
  =========                 |
  \\      /  F ield         | OpenFOAM: The Open Source CFD Toolbox
   \\    /   O peration     | Website:  https://openfoam.org
    \\  /    A nd           | Version:  7
     \\/     M anipulation  |
\*---------------------------------------------------------------------------*/
FoamFile
{
    version     2.0;
    format      ascii;
    class       surfaceScalarField;
    location    "22";
    object      phi_0;
}
// * * * * * * * * * * * * * * * * * * * * * * * * * * * * * * * * * * * * * //

dimensions      [0 3 -1 0 0 0 0];

internalField   nonuniform List<scalar> 
45600
(
2.7491126e-07
-2.8248689e-07
-8.5160178e-11
4.0319827e-07
-1.2826032e-07
-2.6859322e-11
1.3248086e-07
2.7072414e-07
-7.6675429e-12
-5.6235253e-07
6.9483468e-07
-2.2465698e-12
-1.6393276e-06
1.0769722e-06
3.016208e-12
-3.0276131e-06
1.3882801e-06
6.5779769e-12
-4.6524298e-06
1.6248085e-06
8.9047453e-12
-6.4450359e-06
1.7925943e-06
1.053283e-11
-8.345336e-06
1.9002862e-06
1.168258e-11
-1.0301328e-05
1.9559789e-06
1.2460315e-11
-1.2267259e-05
1.96592e-06
1.2924678e-11
-1.4201409e-05
1.9341403e-06
1.3090775e-11
-1.6064039e-05
1.8626171e-06
1.2950991e-11
-1.7815802e-05
1.7517476e-06
1.2504885e-11
-1.9416809e-05
1.6009896e-06
1.1769685e-11
-2.0826396e-05
1.4095747e-06
1.0762001e-11
-2.2003629e-05
1.1772287e-06
9.4708637e-12
-2.2908476e-05
9.0484744e-07
7.8534337e-12
-2.3503565e-05
5.950861e-07
5.8767632e-12
-2.3756397e-05
2.5282151e-07
3.5601567e-12
-2.3641847e-05
-1.1456491e-07
1.0042483e-12
-2.3144734e-05
-4.9711856e-07
-1.6512374e-12
-2.226232e-05
-8.8240162e-07
-4.3019622e-12
-2.1006381e-05
-1.2559132e-06
-6.9049727e-12
-1.9404645e-05
-1.6017134e-06
-9.4511261e-12
-1.7501363e-05
-1.9032781e-06
-1.1849562e-11
-1.5356818e-05
-2.1445604e-06
-1.388095e-11
-1.3045651e-05
-2.3111747e-06
-1.5246757e-11
-1.0654036e-05
-2.391591e-06
-1.5745138e-11
-8.2757708e-06
-2.3782076e-06
-1.5419249e-11
-6.0075276e-06
-2.2681915e-06
-1.4508805e-11
-3.9435044e-06
-2.0640215e-06
-1.3189453e-11
-2.1697918e-06
-1.773763e-06
-1.1328498e-11
-7.5858988e-07
-1.4112476e-06
-8.5652841e-12
2.3814282e-07
-9.967073e-07
-4.9043125e-12
7.9650676e-07
-5.5827206e-07
-1.3383882e-12
9.2929549e-07
-1.327161e-07
2.0376353e-12
7.056365e-07
2.2360398e-07
5.2162455e-12
2.9050649e-07
4.1496175e-07
8.2930621e-12
2.903767e-07
1.3737514e-12
1.32758e-07
-4.1522084e-07
-2.4264127e-11
-3.0181179e-07
3.0632532e-07
-1.5392794e-11
-1.6154874e-06
1.5844132e-06
-1.3307619e-11
-3.8747438e-06
2.9541035e-06
-1.3923859e-11
-7.0073208e-06
4.2095617e-06
-1.4967295e-11
-1.0879666e-05
5.2606404e-06
-1.6413205e-11
-1.5335008e-05
6.0801698e-06
-1.7771907e-11
-2.0215769e-05
6.673377e-06
-1.8754829e-11
-2.5373749e-05
7.0582855e-06
-1.931428e-11
-3.0672883e-05
7.2551294e-06
-1.9445631e-11
-3.5988073e-05
7.2811248e-06
-1.9144139e-11
-4.1202285e-05
7.1483693e-06
-1.8420372e-11
-4.6203354e-05
6.8637074e-06
-1.7309256e-11
-5.0881412e-05
6.4298272e-06
-1.5854384e-11
-5.5127483e-05
5.8470753e-06
-1.4076356e-11
-5.8833522e-05
5.1156179e-06
-1.1955207e-11
-6.189397e-05
4.2376767e-06
-9.4511231e-12
-6.4208751e-05
3.2196325e-06
-6.565366e-12
-6.5687485e-05
2.0738331e-06
-3.3628481e-12
-6.6254591e-05
8.1994288e-07
1.7762324e-14
-6.5855121e-05
-5.1403336e-07
3.4492448e-12
-6.4459984e-05
-1.8922765e-06
6.9192948e-12
-6.2071712e-05
-3.2707101e-06
1.0376411e-11
-5.8728392e-05
-4.5992594e-06
1.3784597e-11
-5.4506449e-05
-5.8236563e-06
1.6982696e-11
-4.9521347e-05
-6.8883612e-06
1.9686345e-11
-4.3925915e-05
-7.7399886e-06
2.1619842e-11
-3.7906063e-05
-8.33107e-06
2.2697837e-11
-3.1673866e-05
-8.6238693e-06
2.3072741e-11
-2.5458226e-05
-8.5939131e-06
2.2950512e-11
-1.9493507e-05
-8.2329079e-06
2.2308544e-11
-1.4006646e-05
-7.5508203e-06
2.0826976e-11
-9.2032353e-06
-6.5771328e-06
1.8207606e-11
-5.2528938e-06
-5.3616471e-06
1.4652939e-11
-2.2740444e-06
-3.9756907e-06
1.0946894e-11
-3.1738726e-07
-2.5150129e-06
7.761683e-12
6.5696444e-07
-1.1069833e-06
4.7666822e-12
8.036722e-07
7.7124621e-08
3.7515664e-12
4.1794347e-07
8.0090056e-07
4.5456013e-12
7.0822787e-07
-3.4506747e-12
-2.7363844e-07
-1.4157e-07
-1.3367821e-11
-1.6275499e-06
1.6602445e-06
-8.1739241e-12
-4.2894372e-06
4.2463107e-06
-9.4000809e-12
-8.2746465e-06
6.9393214e-06
-7.8815337e-12
-1.3474302e-05
9.4092223e-06
-5.8260751e-12
-1.9708507e-05
1.1494847e-05
-4.6873348e-12
-2.6765425e-05
1.3137091e-05
-3.9347665e-12
-3.4426171e-05
1.4334127e-05
-3.3014801e-12
-4.247806e-05
1.511018e-05
-2.7779785e-12
-5.0719752e-05
1.5496826e-05
-2.3381974e-12
-5.8961474e-05
1.5522845e-05
-1.9334884e-12
-6.7022751e-05
1.5209643e-05
-1.5169794e-12
-7.4729481e-05
1.4570436e-05
-1.064875e-12
-8.1911564e-05
1.3611915e-05
-5.9180122e-13
-8.8401899e-05
1.2337418e-05
-1.4002498e-13
-9.403715e-05
1.0750872e-05
2.5825251e-13
-9.8660415e-05
8.8609347e-06
6.1560212e-13
-0.00010212568
6.6848869e-06
9.745469e-13
-0.0001043038
4.2519445e-06
1.3681547e-12
-0.00010508958
1.6057317e-06
1.7670436e-12
-0.00010440925
-1.1943556e-06
2.093649e-12
-0.00010222811
-4.0734014e-06
2.2661147e-12
-9.8557255e-05
-6.9415787e-06
2.2825749e-12
-9.3458846e-05
-9.6976979e-06
2.2560677e-12
-8.7049361e-05
-1.2233168e-05
2.321014e-12
-7.9500092e-05
-1.4437626e-05
2.500921e-12
-7.1034496e-05
-1.6205549e-05
2.6520507e-12
-6.1922059e-05
-1.7443471e-05
2.5783938e-12
-5.2468616e-05
-1.8077322e-05
2.2541201e-12
-4.3003298e-05
-1.8059291e-05
1.9321122e-12
-3.3862587e-05
-1.7373679e-05
1.9596534e-12
-2.5372095e-05
-1.6041305e-05
2.4124236e-12
-1.7826797e-05
-1.4122346e-05
2.9231028e-12
-1.1470336e-05
-1.1718026e-05
2.9988014e-12
-6.4738323e-06
-8.9722192e-06
2.6012823e-12
-2.9140873e-06
-6.0749019e-06
2.2311857e-12
-7.5133114e-07
-3.2698829e-06
2.3070528e-12
1.9427358e-07
-8.6848202e-07
3.5966935e-12
2.6553587e-07
7.2978923e-07
5.8675897e-12
9.7375446e-07
7.7540887e-13
-7.4586797e-07
6.0431079e-07
-1.3443264e-11
-3.1796508e-06
4.0940275e-06
-2.0683022e-12
-7.3460724e-06
8.4127397e-06
-7.4694328e-12
-1.3162941e-05
1.2756198e-05
-6.7566487e-12
-2.0455591e-05
1.6701877e-05
-4.083083e-12
-2.8992274e-05
2.0031532e-05
-2.7124519e-12
-3.8513367e-05
2.2658183e-05
-1.7998612e-12
-4.8752007e-05
2.4572766e-05
-9.6869827e-13
-5.9446145e-05
2.580432e-05
-2.7122083e-13
-7.0343827e-05
2.6394511e-05
2.8602765e-13
-8.1203954e-05
2.6382973e-05
7.2727382e-13
-9.179465e-05
2.5800334e-05
1.0848713e-12
-0.00010189094
2.4666714e-05
1.399498e-12
-0.00011127302
2.2993996e-05
1.6961646e-12
-0.00011972606
2.0790454e-05
1.9593231e-12
-0.00012704178
1.8066607e-05
2.1400531e-12
-0.00013302226
1.4841414e-05
2.1971471e-12
-0.00013748548
1.1148094e-05
2.1344391e-12
-0.00014027256
7.0390175e-06
2.0045568e-12
-0.00014125612
2.589278e-06
1.867679e-12
-0.00014034889
-2.1015882e-06
1.7377517e-12
-0.00013751256
-6.9097062e-06
1.5117175e-12
-0.0001327653
-1.1688831e-05
1.1093803e-12
-0.0001261877
-1.6275294e-05
5.3879785e-13
-0.00011792644
-2.0494462e-05
-5.6737163e-14
-0.00010819464
-2.4169456e-05
-4.7595352e-13
-9.7268783e-05
-2.713141e-05
-6.2943072e-13
-8.5481484e-05
-2.9230728e-05
-6.4456398e-13
-7.3210173e-05
-3.0348582e-05
-7.5837819e-13
-6.0861653e-05
-3.0407806e-05
-1.0430662e-12
-4.8853017e-05
-2.9382375e-05
-1.2336689e-12
-3.7589639e-05
-2.7304755e-05
-9.1095545e-13
-2.7441169e-05
-2.4270817e-05
4.814723e-14
-1.8716595e-05
-2.0442507e-05
1.2166744e-12
-1.1639375e-05
-1.6049332e-05
1.9582087e-12
-6.3235283e-06
-1.1390744e-05
2.1441792e-12
-2.751569e-06
-6.841957e-06
2.4198412e-12
-7.5723185e-07
-2.8629301e-06
3.3317587e-12
-9.5517399e-09
-1.7866784e-08
4.4760843e-12
9.6425046e-07
3.8798751e-12
-1.2279658e-06
1.8322919e-06
-1.4819693e-11
-4.7880769e-06
7.6541326e-06
4.0349395e-12
-1.0521436e-05
1.4146104e-05
-6.5202792e-12
-1.8214114e-05
2.0448883e-05
-7.5820668e-12
-2.7603571e-05
2.6091341e-05
-5.159089e-12
-3.8395757e-05
3.0823724e-05
-4.4067309e-12
-5.0282326e-05
3.4544754e-05
-4.0564085e-12
-6.2953855e-05
3.7244295e-05
-3.5789834e-12
-7.6107904e-05
3.895837e-05
-3.0909913e-12
-8.9452433e-05
3.9739044e-05
-2.625915e-12
-0.00010270593
3.9636475e-05
-2.1826171e-12
-0.00011559579
3.8690203e-05
-1.7695181e-12
-0.00012785643
3.6927348e-05
-1.3746206e-12
-0.00013922813
3.4365688e-05
-9.6214625e-13
-0.00014945754
3.1019865e-05
-5.0440525e-13
-0.00015830016
2.6909226e-05
-1.487931e-14
-0.00016552484
2.2066103e-05
4.5286253e-13
-0.00017092029
1.6543557e-05
8.4390496e-13
-0.00017430313
1.0421847e-05
1.150804e-12
-0.00017552692
3.8130515e-06
1.4272278e-12
-0.00017449175
-3.1367669e-06
1.7425558e-12
-0.0001711536
-1.0247858e-05
2.0942028e-12
-0.00016553263
-1.7309779e-05
2.3944128e-12
-0.00015771988
-2.4088031e-05
2.5170959e-12
-0.00014788134
-3.0332997e-05
2.4209717e-12
-0.00013625895
-3.5791884e-05
2.2309783e-12
-0.00012316754
-4.0222865e-05
2.1682771e-12
-0.00010898752
-4.3410763e-05
2.3483362e-12
-9.4152796e-05
-4.5183262e-05
2.6282623e-12
-7.9134023e-05
-4.5426517e-05
2.7019843e-12
-6.4417411e-05
-4.4098972e-05
2.4262455e-12
-5.0479908e-05
-4.1242322e-05
2.0636883e-12
-3.7761866e-05
-3.6988951e-05
2.0961866e-12
-2.6638677e-05
-3.156572e-05
2.6772482e-12
-1.7393075e-05
-2.5294857e-05
3.3309207e-12
-1.0189832e-05
-1.8593888e-05
3.5702818e-12
-5.0546949e-06
-1.1977093e-05
3.7193216e-12
-1.8598647e-06
-6.0578538e-06
3.0468196e-12
-3.2226778e-07
-1.5554996e-06
1.8152643e-13
6.4201052e-07
5.9052039e-12
-1.693151e-06
3.525461e-06
-1.7241601e-11
-6.3713327e-06
1.2332305e-05
9.5342419e-12
-1.3671271e-05
2.1446045e-05
-5.4991634e-12
-2.3233731e-05
3.0011349e-05
-7.6547785e-12
-3.4694733e-05
3.7552348e-05
-4.9031781e-12
-4.7689102e-05
4.38181e-05
-4.30763e-12
-6.1856576e-05
4.8712233e-05
-4.1746332e-12
-7.6846882e-05
5.2234603e-05
-3.81754e-12
-9.2322445e-05
5.4433933e-05
-3.4160798e-12
-0.00010795861
5.5375207e-05
-3.0068751e-12
-0.00012344207
5.5119941e-05
-2.5723986e-12
-0.00013846857
5.3716715e-05
-2.1340273e-12
-0.0001527409
5.1199681e-05
-1.7170912e-12
-0.00016596804
4.759282e-05
-1.3157479e-12
-0.00017786609
4.2917909e-05
-8.9275556e-13
-0.00018816128
3.7204414e-05
-4.1432302e-13
-0.00019659503
3.0499858e-05
1.1074259e-13
-0.00020293092
2.2879459e-05
6.241905e-13
-0.00020696321
1.4454143e-05
1.0569075e-12
-0.00020852639
5.3762307e-06
1.3870259e-12
-0.00020750529
-4.1578877e-06
1.6654423e-12
-0.00020384496
-1.3908205e-05
1.9800398e-12
-0.00019755989
-2.3594853e-05
2.3563604e-12
-0.00018874155
-3.2906349e-05
2.7081378e-12
-0.00017756366
-4.1510862e-05
2.8816012e-12
-0.00016428424
-4.9071295e-05
2.7995123e-12
-0.00014924374
-5.5263401e-05
2.5805715e-12
-0.0001328584
-5.9796161e-05
2.4848192e-12
-0.00011560842
-6.2433258e-05
2.6790778e-12
-9.802073e-05
-6.3014172e-05
3.02857e-12
-8.0646385e-05
-6.1473245e-05
3.1760856e-12
-6.4033524e-05
-5.7855155e-05
2.9254168e-12
-4.8696995e-05
-5.2325538e-05
2.542389e-12
-3.5086641e-05
-4.5176171e-05
2.5085331e-12
-2.3556538e-05
-3.6824991e-05
2.9074278e-12
-1.4337775e-05
-2.7812587e-05
3.5521014e-12
-7.5174092e-06
-1.8797385e-05
4.5725635e-12
-3.0266981e-06
-1.0548583e-05
3.4229551e-12
-6.4250713e-07
-3.9397431e-06
-2.3260195e-12
-5.0486261e-10
8.1892845e-12
-2.1329081e-06
5.6583889e-06
-1.9978225e-11
-7.8909606e-06
1.8090344e-05
1.4393327e-11
-1.6717153e-05
3.0272242e-05
-4.6951903e-12
-2.8105309e-05
4.1399511e-05
-7.6745325e-12
-4.1584442e-05
5.1031483e-05
-4.4455496e-12
-5.6713246e-05
5.8946908e-05
-3.8879635e-12
-7.3077127e-05
6.5076121e-05
-3.8689534e-12
-9.0285665e-05
6.9443147e-05
-3.5528163e-12
-0.00010796963
7.2117895e-05
-3.193803e-12
-0.0001257773
7.3182883e-05
-2.8423865e-12
-0.00014337052
7.2713154e-05
-2.4522962e-12
-0.00016042095
7.0767148e-05
-2.0232217e-12
-0.00017660749
6.7386232e-05
-1.5897021e-12
-0.00019161524
6.2600576e-05
-1.1835097e-12
-0.00020513645
5.6439116e-05
-8.0212425e-13
-0.00021687365
4.8941604e-05
-4.0729864e-13
-0.00022654487
4.0171067e-05
4.1387914e-14
-0.00023389074
3.0225328e-05
5.4175516e-13
-0.00023868315
1.9246574e-05
1.0327615e-12
-0.0002407351
7.4281883e-06
1.4299517e-12
-0.00023991112
-4.9818692e-06
1.6933857e-12
-0.00023613789
-1.7681447e-05
1.8820456e-12
-0.0002294145
-3.0318267e-05
2.0959672e-12
-0.00021982138
-4.2499482e-05
2.3943497e-12
-0.00020752735
-5.3804873e-05
2.702939e-12
-0.00019279375
-6.3804859e-05
2.8456565e-12
-0.0001759746
-7.2082535e-05
2.7101061e-12
-0.00015751181
-7.8258976e-05
2.407591e-12
-0.0001379246
-8.2020535e-05
2.2360736e-12
-0.00011779248
-8.3146326e-05
2.4121786e-12
-9.7731946e-05
-8.1533746e-05
2.8104253e-12
-7.8367316e-05
-7.721971e-05
3.0415576e-12
-6.0297247e-05
-7.0395572e-05
2.8860396e-12
-4.4059109e-05
-6.141436e-05
2.5630933e-12
-3.0094199e-05
-5.0789986e-05
2.4450384e-12
-1.8717146e-05
-3.9189663e-05
3.0432341e-12
-1.0092971e-05
-2.7421505e-05
4.9270318e-12
-4.2252589e-06
-1.6416255e-05
3.7357401e-12
-9.5847239e-07
-7.2065415e-06
-4.8746306e-12
-9.5900961e-07
1.0149134e-11
-2.5450155e-06
8.2034253e-06
-2.2746391e-11
-9.3286978e-06
2.4874009e-05
1.8710279e-11
-1.9615047e-05
4.0558597e-05
-4.1593597e-12
-3.275632e-05
5.4540791e-05
-7.8886163e-12
-4.817511e-05
6.6450274e-05
-4.2159259e-12
-6.535304e-05
7.6124839e-05
-3.7242855e-12
-8.3820797e-05
8.3543882e-05
-3.844138e-12
-0.00010314898
8.8771334e-05
-3.5765564e-12
-0.00012293967
9.1908596e-05
-3.2490912e-12
-0.00014281871
9.3061923e-05
-2.9484102e-12
-0.00016242882
9.232326e-05
-2.6205056e-12
-0.00018142409
8.9762418e-05
-2.2362038e-12
-0.00019946622
8.5428365e-05
-1.8043666e-12
-0.00021622281
7.9357166e-05
-1.3616912e-12
-0.00023136789
7.1584203e-05
-9.4515007e-13
-0.00024458477
6.2158483e-05
-5.577218e-13
-0.00025557094
5.1157236e-05
-1.6167906e-13
-0.00026404498
3.8699348e-05
2.9065005e-13
-0.00026975497
2.4956563e-05
8.0546793e-13
-0.00027248841
1.0161649e-05
1.3190171e-12
-0.00027208307
-5.3871984e-06
1.728813e-12
-0.00026843822
-2.1326284e-05
1.9911415e-12
-0.00026152641
-3.7230095e-05
2.1404033e-12
-0.00025140426
-5.2621663e-05
2.3024906e-12
-0.00023822208
-6.6987068e-05
2.5680255e-12
-0.00022223099
-7.9795939e-05
2.876511e-12
-0.00020378624
-9.052724e-05
3.0337564e-12
-0.0001833455
-9.8699689e-05
2.8933996e-12
-0.00016146059
-0.00010390547
2.5545064e-12
-0.00013876177
-0.00010584521
2.3397121e-12
-0.00011593415
-0.00010436141
2.497612e-12
-9.36866e-05
-9.9467234e-05
2.9125333e-12
-7.2714691e-05
-9.136741e-05
3.192377e-12
-5.3660196e-05
-8.046882e-05
3.0558989e-12
-3.7070734e-05
-6.7379492e-05
2.5997707e-12
-2.3363765e-05
-5.2896698e-05
2.8055792e-12
-1.2799228e-05
-3.7986053e-05
5.0735375e-12
-5.4648289e-06
-2.3750617e-05
3.6766485e-12
-1.2772335e-06
-1.1394109e-05
-7.6256804e-12
-2.2362703e-06
1.270392e-11
-2.9284338e-06
1.1131882e-05
-2.5442654e-11
-1.0673496e-05
3.2619047e-05
2.2562678e-11
-2.2335805e-05
5.2220911e-05
-3.8106852e-12
-3.7135362e-05
6.9340358e-05
-8.2008208e-12
-5.4393218e-05
8.3708133e-05
-4.0871598e-12
-7.3516433e-05
9.5248055e-05
-3.6484998e-12
-9.3982787e-05
0.00010401024
-3.9101153e-12
-0.00011532612
0.00011011467
-3.6993254e-12
-0.00013712301
0.00011370549
-3.3923336e-12
-0.00015898105
0.00011491997
-3.1137323e-12
-0.000180529
0.00011387121
-2.8281169e-12
-0.00020140909
0.00011064251
-2.5018436e-12
-0.00022127173
0.000105291
-2.1133912e-12
-0.00023977266
9.78581e-05
-1.667956e-12
-0.00025657266
8.8384219e-05
-1.2030721e-12
-0.0002713396
7.6925428e-05
-7.6117728e-13
-0.00028375262
6.3570259e-05
-3.5350227e-13
-0.00029350842
4.8455129e-05
5.586626e-14
-0.0003003292
3.177733e-05
5.2165617e-13
-0.00030397237
1.3804815e-05
1.0560945e-12
-0.00030424165
-5.1179016e-06
1.5917104e-12
-0.00030099917
-2.4568753e-05
2.0447461e-12
-0.00029417886
-4.4050385e-05
2.3138504e-12
-0.0002837998
-6.3000741e-05
2.4362817e-12
-0.000269979
-8.08079e-05
2.5523907e-12
-0.00025294256
-9.6832412e-05
2.7805018e-12
-0.00023303334
-0.00011043644
3.0797247e-12
-0.00021071363
-0.00012101936
3.2473618e-12
-0.00018656059
-0.00012805847
3.1114336e-12
-0.00016125307
-0.00013115275
2.7577694e-12
-0.00013554855
-0.000130066
2.5176017e-12
-0.00011025037
-0.00012476547
2.6565936e-12
-8.6166532e-05
-0.00011545123
3.0711962e-12
-6.4063088e-05
-0.0001025722
3.2973156e-12
-4.4616216e-05
-8.6826335e-05
2.9343912e-12
-2.8368263e-05
-6.9144687e-05
2.9359276e-12
-1.5693028e-05
-5.0661335e-05
5.3852555e-12
-6.7751723e-06
-3.2668476e-05
3.4759739e-12
-1.6070173e-06
-1.6562231e-05
-1.0651086e-11
-3.8432992e-06
1.5342165e-11
-3.2816434e-06
1.4413553e-05
-2.8002013e-11
-1.191567e-05
4.1253045e-05
2.5999813e-11
-2.4855098e-05
6.5160342e-05
-3.6033528e-12
-4.1199238e-05
8.5684508e-05
-8.5788532e-12
-6.0175325e-05
0.00010268423
-4.023083e-12
-8.1120938e-05
0.00011619367
-3.6046829e-12
-0.00010346465
0.00012635395
-3.9906886e-12
-0.00012670689
0.00013335691
-3.8463817e-12
-0.00015040231
0.00013740092
-3.5696816e-12
-0.00017414447
0.00013866213
-3.3005001e-12
-0.00019755296
0.00013727971
-3.0251655e-12
-0.00022026342
0.00013335296
-2.7333466e-12
-0.00024192036
0.00012694794
-2.4014769e-12
-0.00026217293
0.00011811067
-2.0024356e-12
-0.00028067323
0.00010688452
-1.5369373e-12
-0.00029707721
9.3329418e-05
-1.0423423e-12
-0.00031104776
7.7540812e-05
-5.6786553e-13
-0.00032225988
5.9667254e-05
-1.3388056e-13
-0.00033040793
3.9925366e-05
2.9098038e-13
-0.00033521473
1.8611603e-05
7.5587563e-13
-0.00033644297
-3.8896784e-06
1.2734578e-12
-0.00033390768
-2.710403e-05
1.8711711e-12
-0.00032749206
-5.0465983e-05
2.3561046e-12
-0.00031716316
-7.3329624e-05
2.6356333e-12
-0.00030298882
-9.4982256e-05
2.735512e-12
-0.00028515362
-0.00011466765
2.8004794e-12
-0.00026397227
-0.00013161782
2.9753345e-12
-0.00023989802
-0.00014509361
3.2425025e-12
-0.00021352354
-0.00015443291
3.4010707e-12
-0.0001855718
-0.00015910445
3.2656392e-12
-0.00015687493
-0.00015876288
2.9117779e-12
-0.00012834033
-0.00015330013
2.6748015e-12
-0.00010090508
-0.00014288652
2.8233675e-12
-7.5481742e-05
-0.00012799552
3.1403651e-12
-5.2900621e-05
-0.00010940741
3.0099983e-12
-3.3854774e-05
-8.8190514e-05
3.1623146e-12
-1.8854607e-05
-6.566153e-05
5.9785307e-12
-8.1981981e-06
-4.3324913e-05
3.382888e-12
-1.9611512e-06
-2.2799264e-05
-1.3967902e-11
-5.8044574e-06
1.8027542e-11
-3.6022404e-06
1.8015825e-05
-3.0384711e-11
-1.3044654e-05
5.0695426e-05
2.9043982e-11
-2.7148842e-05
7.926453e-05
-3.5044076e-12
-4.4906439e-05
0.00010344211
-9.0162272e-12
-6.5460452e-05
0.00012323825
-4.0471482e-12
-8.8085834e-05
0.00013881906
-3.6203526e-12
-0.00011216705
0.00015043517
-4.098906e-12
-0.00013717531
0.00015836517
-4.0186539e-12
-0.00016264742
0.00016287303
-3.7917824e-12
-0.00018816713
0.00016418185
-3.5483918e-12
-0.00021334952
0.0001624621
-3.2742649e-12
-0.00023782861
0.00015783206
-2.9838967e-12
-0.00026124823
0.00015036756
-2.6803248e-12
-0.00028325593
0.00014011836
-2.3368854e-12
-0.00030349973
0.00012712832
-1.9216787e-12
-0.00032162742
0.0001114571
-1.4305856e-12
-0.00033728809
9.3201491e-05
-8.994748e-13
-0.00035013595
7.2515131e-05
-3.8430656e-13
-0.00035983634
4.9625754e-05
8.2234396e-14
-0.000366074
2.4849254e-05
5.067708e-13
-0.00036856461
-1.3990864e-06
9.1688607e-13
-0.0003670671
-2.8601554e-05
1.5391252e-12
-0.00036140227
-5.6130807e-05
2.1548232e-12
-0.00035147066
-8.3261213e-05
2.6654092e-12
-0.00033727412
-0.00010917877
2.9618843e-12
-0.00031893746
-0.00013300431
3.0440838e-12
-0.00029672861
-0.00015382672
3.0578821e-12
-0.00027107445
-0.0001707478
3.1688551e-12
-0.00024256914
-0.00018293822
3.3816393e-12
-0.00021197111
-0.00018970244
3.5058648e-12
-0.00018018576
-0.00019054819
3.3585848e-12
-0.00014823182
-0.00018525407
3.0265662e-12
-0.00011719161
-0.00017392679
2.8472921e-12
-8.8148115e-05
-0.00015703906
2.9200055e-12
-6.2114794e-05
-0.00013544071
2.7887208e-12
-3.9966099e-05
-0.00011033917
3.2042926e-12
-2.2377387e-05
-8.3250234e-05
6.6988525e-12
-9.7825977e-06
-5.5919719e-05
3.460019e-12
-2.3546794e-06
-3.0227177e-05
-1.7552843e-11
-8.1591531e-06
2.0974392e-11
-3.8869847e-06
2.1902843e-05
-3.2562603e-11
-1.4048429e-05
6.0856838e-05
3.1689168e-11
-2.9191584e-05
9.4407685e-05
-3.4808382e-12
-4.8214502e-05
0.00012246504
-9.4831494e-12
-7.0186748e-05
0.0001452105
-4.1569863e-12
-9.4328611e-05
0.00016296093
-3.7131604e-12
-0.0001199864
0.00017609296
-4.2509589e-12
-0.0001466069
0.00018498567
-4.2126558e-12
-0.00017371335
0.00018997948
-4.0387036e-12
-0.00020088398
0.00019135248
-3.845013e-12
-0.00022773389
0.00018931202
-3.5933549e-12
-0.00025390032
0.0001839985
-3.2985946e-12
-0.00027903144
0.00017549869
-2.9892161e-12
-0.00030277834
0.00016386525
-2.667743e-12
-0.00032478979
0.00014913978
-2.30674e-12
-0.00034470972
0.00013137703
-1.8706883e-12
-0.00036217683
0.0001106686
-1.3495296e-12
-0.00037682664
8.7164945e-05
-7.7787668e-13
-0.00038829589
6.1095015e-05
-2.1841383e-13
-0.00039622976
3.2783128e-05
2.9673135e-13
-0.00040029192
2.6630729e-06
8.0359452e-13
-0.00040017952
-2.8713976e-05
1.2533941e-12
-0.00039563984
-6.0670508e-05
1.817781e-12
-0.00038649332
-9.2407736e-05
2.44108e-12
-0.00037265879
-0.00012301328
2.9792515e-12
-0.00035418137
-0.00015148171
3.2898856e-12
-0.00033126047
-0.00017674761
3.3548104e-12
-0.00030427483
-0.00019773347
3.3169785e-12
-0.00027380033
-0.00021341276
3.3537411e-12
-0.00024061598
-0.00022288679
3.4869864e-12
-0.00020569321
-0.00022547093
3.5462162e-12
-0.00017016474
-0.00022078251
3.3878724e-12
-0.00013527188
-0.00020881965
3.1331959e-12
-0.00010229236
-0.00019001861
2.9239912e-12
-7.2455266e-05
-0.00016527784
2.5243024e-12
-4.6852859e-05
-0.00013594157
3.0455876e-12
-2.636111e-05
-0.00010374197
7.385592e-12
-1.1580326e-05
-7.0700498e-05
3.6001335e-12
-2.8032875e-06
-3.9004202e-05
-2.1498543e-11
-1.0962469e-05
2.4387724e-11
-4.1320511e-06
2.6034928e-05
-3.4501955e-11
-1.4913862e-05
7.1638617e-05
3.390661e-11
-3.0956652e-05
0.00011045048
-3.5143265e-12
-5.1079879e-05
0.00014258827
-9.9440539e-12
-7.4291165e-05
0.00016842178
-4.3272415e-12
-9.9764661e-05
0.00018843443
-3.8790262e-12
-0.00012681486
0.00020314317
-4.459304e-12
-0.00015486911
0.00021303993
-4.436516e-12
-0.00018344139
0.00021855176
-4.2955609e-12
-0.00021210862
0.00022001971
-4.1555423e-12
-0.00024049025
0.00021769365
-3.9530434e-12
-0.00026823145
0.0002117397
-3.6798873e-12
-0.00029498978
0.00020225703
-3.3630396e-12
-0.00032042509
0.00018930057
-3.0294293e-12
-0.00034419226
0.00017290695
-2.6836466e-12
-0.00036593645
0.00015312121
-2.2997896e-12
-0.00038529065
0.00013002279
-1.8397084e-12
-0.00040187554
0.00010374984
-1.2881387e-12
-0.00041530194
7.4521416e-05
-6.7565475e-13
-0.00042517627
4.2657474e-05
-5.0033143e-14
-0.00043110951
8.5963175e-06
5.6029844e-13
-0.00043273185
-2.7091643e-05
1.0123663e-12
-0.00042970992
-6.3692461e-05
1.5145907e-12
-0.0004217721
-0.00010034558
2.1055412e-12
-0.00040873783
-0.00013604756
2.7445183e-12
-0.00039055171
-0.00016966781
3.2955474e-12
-0.00036732007
-0.00019997922
3.6063094e-12
-0.00033934666
-0.00022570688
3.6459002e-12
-0.00030716256
-0.00024559689
3.5508252e-12
-0.00027154437
-0.00025850501
3.4991133e-12
-0.0002335139
-0.00026350141
3.5251684e-12
-0.00019431322
-0.00025998317
3.5122899e-12
-0.00015535149
-0.00024778135
3.3938861e-12
-0.00011812419
-0.00022724592
3.1074421e-12
-8.4111074e-05
-0.00019929098
2.4071904e-12
-5.4664995e-05
-0.00016538767
2.8652657e-12
-3.0907063e-05
-0.0001274999
8.0603047e-12
-1.3644568e-05
-8.7962981e-05
3.6974164e-12
-3.3229574e-06
-4.9325782e-05
-2.6008098e-11
-1.4285458e-05
2.839973e-11
-4.3333902e-06
3.0368352e-05
-3.6156412e-11
-1.5627563e-05
8.2932755e-05
3.5663098e-11
-3.2417437e-05
0.00012724036
-3.6031593e-12
-5.3459541e-05
0.00016363038
-1.0376889e-11
-7.7711367e-05
0.00019267361
-4.5291581e-12
-0.00010430956
0.00021503263
-4.095872e-12
-0.00013254312
0.00023137673
-4.7221512e-12
-0.00016182478
0.0002423216
-4.704782e-12
-0.00019166338
0.00024839037
-4.5717402e-12
-0.00022163842
0.00024999476
-4.4643164e-12
-0.00025137785
0.00024743307
-4.3142311e-12
-0.00028053925
0.00024090111
-4.091031e-12
-0.00030879458
0.00023051236
-3.7974199e-12
-0.00033581793
0.00021632393
-3.4551976e-12
-0.00036127615
0.00019836518
-3.0915636e-12
-0.00038482178
0.00017666686
-2.7151653e-12
-0.00040608828
0.00015128929
-2.3034704e-12
-0.00042468745
0.00012234899
-1.8175239e-12
-0.00044020948
9.0043446e-05
-1.2339011e-12
-0.00045222628
5.4674279e-05
-5.6774799e-13
-0.00046029869
1.6668744e-05
1.2371602e-13
-0.0004639893
-2.340103e-05
7.2485262e-13
-0.00046288031
-6.4801451e-05
1.2752425e-12
-0.00045659937
-0.00010662653
1.8256518e-12
-0.00044485223
-0.00014779473
2.4317573e-12
-0.00042746247
-0.00018705758
3.0700515e-12
-0.00040441678
-0.00022302489
3.6082657e-12
-0.00037591242
-0.00025421122
3.8930861e-12
-0.00034240168
-0.00027910762
3.8886496e-12
-0.00030462606
-0.00029628066
3.7207407e-12
-0.00026363117
-0.00030449633
3.5592002e-12
-0.00022075328
-0.00030286107
3.4784314e-12
-0.00017757013
-0.00029096449
3.4524587e-12
-0.00013581385
-0.00026900218
3.2385306e-12
-9.7251094e-05
-0.00023785374
2.3758468e-12
-6.3544294e-05
-0.00019909449
2.7786949e-12
-3.6114382e-05
-0.00015492983
8.8620199e-12
-1.6028419e-05
-0.00010804894
3.7617647e-12
-3.9297985e-06
-6.1424363e-05
-3.1277854e-11
-1.821529e-05
3.3092279e-11
-4.4871622e-06
3.4855549e-05
-3.7475441e-11
-1.6177103e-05
9.4622659e-05
3.6938434e-11
-3.3549448e-05
0.00014461271
-3.7490708e-12
-5.5313821e-05
0.00018539477
-1.0776047e-11
-8.038932e-05
0.00021774911
-4.7470514e-12
-0.00010788342
0.00024252673
-4.3372466e-12
-0.00013706553
0.00026055884
-5.0187153e-12
-0.00016733822
0.0002725943
-5.0170983e-12
-0.00019820881
0.00027926097
-4.883368e-12
-0.00022926292
0.00028104887
-4.7822414e-12
-0.0002601407
0.00027831085
-4.6609348e-12
-0.00029051644
0.00027127685
-4.4881956e-12
-0.00032008137
0.0002600773
-4.2460219e-12
-0.00034852953
0.00024477209
-3.9297793e-12
-0.00037554613
0.00022538178
-3.5573565e-12
-0.00040079825
0.00020191899
-3.157176e-12
-0.00042392757
0.00017441862
-2.7429185e-12
-0.0004445452
0.00014296663
-2.2971621e-12
-0.00046222909
0.00010772733
-1.7785725e-12
-0.0004765245
6.8969682e-05
-1.1527894e-12
-0.00048694878
2.7093026e-05
-4.3295349e-13
-0.00049300159
-1.7348208e-05
3.013497e-13
-0.00049418166
-6.3621368e-05
9.8768284e-13
-0.00049001195
-0.00011079624
1.6042731e-12
-0.00048007402
-0.00015773268
2.1924607e-12
-0.00046405211
-0.00020307951
2.8041688e-12
-0.00044178639
-0.00024529061
3.4162645e-12
-0.00041333261
-0.00028266499
3.9043798e-12
-0.00037902307
-0.00031341714
4.1250283e-12
-0.00033952074
-0.00033578298
4.0424677e-12
-0.00029585525
-0.00034816184
3.7709933e-12
-0.00024942788
-0.00034928847
3.5048512e-12
-0.0002019734
-0.00033841897
3.393535e-12
-0.00015547161
-0.00031550396
3.1959949e-12
-0.00011201069
-0.00028131465
2.2489015e-12
-7.3616897e-05
-0.00023748829
2.7223198e-12
-4.2076659e-05
-0.00018647009
9.8773993e-12
-1.8783849e-05
-0.00013134177
3.8701012e-12
-4.6399716e-06
-7.5568202e-05
-3.7431718e-11
-2.2855297e-05
3.85565e-11
-4.5902253e-06
3.9445812e-05
-3.8421133e-11
-1.6552485e-05
0.00010658488
3.7729273e-11
-3.4332932e-05
0.00016239316
-3.9437945e-12
-5.6610208e-05
0.00020767206
-1.1141488e-11
-8.2276214e-05
0.00024341512
-4.9821273e-12
-0.00011041691
0.00027066743
-4.5896739e-12
-0.00014028732
0.00029042927
-5.3236334e-12
-0.00017128361
0.00030359058
-5.3534725e-12
-0.00020291468
0.00031089205
-5.2305152e-12
-0.0002347752
0.0003129094
-5.1263756e-12
-0.00026652084
0.0003100565
-5.0055779e-12
-0.00029784648
0.00030260249
-4.8552265e-12
-0.00032846743
0.00029069825
-4.6595808e-12
-0.00035810337
0.00027440804
-4.3945949e-12
-0.00038646476
0.00025374318
-4.0498351e-12
-0.00041324126
0.00022869549
-3.6399334e-12
-0.00043809199
0.00019926937
-3.1944904e-12
-0.00046063778
0.00016551244
-2.7329091e-12
-0.00048045555
0.00012754509
-2.242614e-12
-0.00049707569
8.5589817e-05
-1.6798803e-12
-0.00050998344
4.0000776e-05
-1.006454e-12
-0.00051862567
-8.7059773e-06
-2.3367253e-13
-0.00052242469
-5.9822344e-05
5.6866168e-13
-0.00052080105
-0.00011241986
1.3282065e-12
-0.00051320742
-0.0001653263
2.0065089e-12
-0.00049917488
-0.00021711206
2.6258032e-12
-0.00047837231
-0.0002660932
3.222727e-12
-0.0004506776
-0.00031035971
3.7715658e-12
-0.00041625612
-0.00034783861
4.1599166e-12
-0.00037563832
-0.00037640077
4.2600758e-12
-0.00032978306
-0.00039401709
4.0446949e-12
-0.00028010996
-0.00039896158
3.6653631e-12
-0.00022848213
-0.00039004683
3.3831892e-12
-0.0001771249
-0.00036686119
3.0540046e-12
-0.00012847672
-0.00032996282
1.941951e-12
-8.4984948e-05
-0.00028098005
2.562882e-12
-4.8878266e-05
-0.00022257678
1.1073158e-11
-2.1960653e-05
-0.00015825939
4.0558343e-12
-5.4696351e-06
-9.2059179e-05
-4.4557653e-11
-2.8324976e-05
4.4921774e-11
-4.640667e-06
4.4086519e-05
-3.8980085e-11
-1.6747806e-05
0.00011869198
3.8041044e-11
-3.4755942e-05
0.0001804013
-4.1678957e-12
-5.732786e-05
0.00023024399
-1.146661e-11
-8.33384e-05
0.00026942567
-5.2423326e-12
-0.00011185858
0.00029918761
-4.8583372e-12
-0.00014213333
0.00032070402
-5.6266396e-12
-0.00017355532
0.00033501258
-5.6912198e-12
-0.00020563747
0.00034297421
-5.5943983e-12
-0.00023798589
0.00034525782
-5.4970404e-12
-0.00027027457
0.00034234519
-5.3660714e-12
-0.00030222255
0.00033455048
-5.2065162e-12
-0.00033357371
0.00032204941
-5.0226966e-12
-0.0003640791
0.00030491343
-4.7956183e-12
-0.00039348152
0.00028314559
-4.497345e-12
-0.00042150185
0.00025671582
-4.1130289e-12
-0.0004478271
0.00022559463
-3.654261e-12
-0.00047209996
0.00018978531
-3.1520771e-12
-0.00049391024
0.00014935539
-2.6313009e-12
-0.00051278878
0.00010446836
-2.082989e-12
-0.0005282048
5.5416789e-05
-1.4639101e-12
-0.00053956815
2.6573663e-06
-7.3135571e-13
-0.00054623863
-5.3151866e-05
8.9067144e-14
-0.00054754426
-0.00011111422
9.5399981e-13
-0.00054281191
-0.00017005864
1.7776286e-12
-0.0005314128
-0.00022851117
2.5042118e-12
-0.00051282515
-0.00028468086
3.1323841e-12
-0.00048671462
-0.00033647027
3.6783568e-12
-0.00045302988
-0.00038152337
4.1105007e-12
-0.00041210584
-0.0004173248
4.3275372e-12
-0.00036476058
-0.00044136234
4.2270054e-12
-0.00031236491
-0.00045135724
3.8557455e-12
-0.00025685921
-0.00044555254
3.4589298e-12
-0.00020069253
-0.00042302788
2.9260157e-12
-0.00014667018
-0.00038398518
1.5050927e-12
-9.771675e-05
-0.00032993347
2.2442568e-12
-5.6589939e-05
-0.0002637036
1.2383592e-11
-2.5605142e-05