/*--------------------------------*- C++ -*----------------------------------*\
  =========                 |
  \\      /  F ield         | OpenFOAM: The Open Source CFD Toolbox
   \\    /   O peration     | Website:  https://openfoam.org
    \\  /    A nd           | Version:  7
     \\/     M anipulation  |
\*---------------------------------------------------------------------------*/
FoamFile
{
    version     2.0;
    format      ascii;
    class       volVectorField;
    location    "22";
    object      U;
}
// * * * * * * * * * * * * * * * * * * * * * * * * * * * * * * * * * * * * * //

dimensions      [0 1 -1 0 0 0 0];

internalField   nonuniform List<vector> 
16000
(
(6.599754e-05 -6.7377186e-05 -4.3279212e-07)
(0.00016268323 -5.6379318e-05 5.6647513e-06)
(0.00014188785 4.5326762e-07 1.9163943e-05)
(-5.0635529e-05 6.1885916e-05 3.6586067e-05)
(-0.00040997949 0.00011562796 5.4694252e-05)
(-0.00090902468 0.00015774121 7.1522291e-05)
(-0.0015177014 0.00018850212 8.5734036e-05)
(-0.0022068664 0.00020960623 9.6514299e-05)
(-0.0029505712 0.00022287373 0.00010340281)
(-0.0037264237 0.00022980799 0.00010615273)
(-0.0045149982 0.00023147403 0.00010463686)
(-0.0052989497 0.00022850091 9.8792062e-05)
(-0.0060621188 0.00022114434 8.859358e-05)
(-0.0067887795 0.00020937999 7.4051953e-05)
(-0.0074631219 0.00019301082 5.522607e-05)
(-0.0080690146 0.00017177815 3.2246319e-05)
(-0.0085900602 0.00014546985 5.342619e-06)
(-0.0090099351 0.00011402068 -2.5127325e-05)
(-0.0093129844 7.7600602e-05 -5.8653879e-05)
(-0.0094850291 3.6686994e-05 -9.455939e-05)
(-0.0095143297 -7.8861863e-06 -0.00013199393)
(-0.0093926143 -5.4922865e-05 -0.00016994593)
(-0.0091161142 -0.00010284116 -0.00020726885)
(-0.0086865008 -0.00014974626 -0.00024272524)
(-0.0081116011 -0.00019350869 -0.00027504599)
(-0.007405817 -0.00023188286 -0.00030300263)
(-0.0065901548 -0.00026265728 -0.00032548837)
(-0.005691801 -0.00028382297 -0.00034160226)
(-0.0047432202 -0.00029374354 -0.0003507293)
(-0.003780791 -0.00029130733 -0.00035260846)
(-0.0028430503 -0.00027604328 -0.00034738096)
(-0.0019686509 -0.00024818675 -0.00033561465)
(-0.0011941503 -0.00020869661 -0.00031830428)
(-0.00055167489 -0.0001592609 -0.00029685243)
(-6.651522e-05 -0.0001024064 -0.00027302689)
(0.00024491097 -4.1754616e-05 -0.00024888644)
(0.00037892761 1.7847714e-05 -0.0002268161)
(0.00034977165 6.7068532e-05 -0.0002092545)
(0.00020618335 8.9849216e-05 -0.0001988714)
(5.7467985e-05 5.7406844e-05 -0.00018442767)
(5.7976241e-05 -0.00016709258 -6.6661739e-06)
(4.083495e-05 -3.9998629e-05 -4.141885e-07)
(-0.00029500894 0.00024854288 1.121899e-05)
(-0.0010110424 0.00056210705 2.5584622e-05)
(-0.0020992281 0.00084748106 4.0569197e-05)
(-0.0035140658 0.0010831044 5.4577006e-05)
(-0.0051946386 0.0012642835 6.6480744e-05)
(-0.0070765541 0.0013940485 7.5528021e-05)
(-0.0090980449 0.0014779402 8.1236974e-05)
(-0.011202169 0.0015215059 8.3308011e-05)
(-0.013336867 0.0015291897 8.1557948e-05)
(-0.015453979 0.0015039547 7.5876884e-05)
(-0.017507921 0.0014473372 6.6206385e-05)
(-0.019454459 0.0013597591 5.253552e-05)
(-0.021249873 0.001240985 3.4910332e-05)
(-0.02285067 0.0010906441 1.3452128e-05)
(-0.024213903 0.00090876375 -1.161986e-05)
(-0.025298096 0.00069626801 -3.9965537e-05)
(-0.02606471 0.00045541048 -7.1104446e-05)
(-0.026480049 0.00019010691 -0.00010440278)
(-0.02651747 -9.3860766e-05 -0.00013906999)
(-0.026159653 -0.00038876631 -0.00017417438)
(-0.025400851 -0.00068507654 -0.00020865954)
(-0.024248874 -0.00097174069 -0.00024139256)
(-0.022726482 -0.0012366724 -0.00027121794)
(-0.020872112 -0.0014674047 -0.00029702495)
(-0.01873971 -0.0016518808 -0.0003178223)
(-0.016397552 -0.0017793246 -0.00033281438)
(-0.013925997 -0.0018411195 -0.000341473)
(-0.011414222 -0.0018316106 -0.00034359819)
(-0.0089560337 -0.0017487554 -0.00033936086)
(-0.0066449676 -0.0015945706 -0.00032932151)
(-0.0045688831 -0.0013753775 -0.00031442205)
(-0.0028042284 -0.0011019581 -0.00029595328)
(-0.0014100356 -0.00078991786 -0.00027550338)
(-0.00042165322 -0.00046058795 -0.00025488376)
(0.00015575303 -0.00014256063 -0.00023600956)
(0.00035671782 0.00012231152 -0.00022090248)
(0.00027526044 0.00027112305 -0.00021166769)
(9.0124145e-05 0.00020509308 -0.00019548555)
(1.9068365e-06 -0.0001489843 -2.0452517e-05)
(-0.00025607146 0.00029699123 -1.1835618e-05)
(-0.001050468 0.0010235927 6.2506769e-08)
(-0.0023878246 0.0017975026 1.3042288e-05)
(-0.0042394135 0.002509861 2.6078125e-05)
(-0.0065454969 0.0031100087 3.8029229e-05)
(-0.0092250176 0.0035808718 4.806869e-05)
(-0.012189848 0.0039233753 5.5635845e-05)
(-0.015352789 0.0041461248 6.0348942e-05)
(-0.018630806 0.0042595292 6.1951209e-05)
(-0.02194578 0.0042727533 6.0269776e-05)
(-0.025223908 0.0041924152 5.518701e-05)
(-0.028394528 0.0040224124 4.6626706e-05)
(-0.031388953 0.0037644709 3.4553665e-05)
(-0.034139743 0.0034191231 1.8983811e-05)
(-0.036580633 0.0029868997 1.5302965e-09)
(-0.038647215 0.0024695746 -2.2219251e-05)
(-0.040278389 0.001871338 -4.7393802e-05)
(-0.04141849 0.0011997985 -7.5108392e-05)
(-0.042019937 0.00046673211 -0.00010480823)
(-0.04204621 -0.00031148564 -0.00013579586)
(-0.041474932 -0.0011137852 -0.00016723649)
(-0.040300804 -0.0019148379 -0.00019818294)
(-0.038538078 -0.0026858126 -0.00022761154)
(-0.036222318 -0.0033956191 -0.00025447343)
(-0.033411194 -0.0040125419 -0.00027775801)
(-0.030184092 -0.0045061793 -0.00029656339)
(-0.026640363 -0.0048495662 -0.00031016788)
(-0.022896155 -0.0050213184 -0.00031809598)
(-0.019079846 -0.0050076209 -0.0003201728)
(-0.015326204 -0.0048038932 -0.0003165612)
(-0.011769489 -0.0044160178 -0.00030777658)
(-0.0085357892 -0.0038611226 -0.00029467471)
(-0.0057348632 -0.0031680764 -0.00027841214)
(-0.0034517062 -0.0023780997 -0.00026038378)
(-0.0017379931 -0.0015461838 -0.00024214212)
(-0.00060370015 -0.00074419212 -0.00022529271)
(-8.0489297e-06 -6.6370633e-05 -0.00021142765)
(0.0001554013 0.00036038441 -0.00020224153)
(7.3552131e-05 0.00035437239 -0.00018532753)
(-6.4689138e-05 5.0415e-05 -3.8704173e-05)
(-0.00060838854 0.001045731 -2.6167377e-05)
(-0.0019305344 0.0023816887 -1.2186265e-05)
(-0.0039464079 0.0037564533 1.1063171e-06)
(-0.0065889468 0.0050152323 1.3694242e-05)
(-0.0097790844 0.0060799677 2.4818133e-05)
(-0.013416957 0.0069204151 3.3940854e-05)
(-0.017395299 0.0075339985 4.0727205e-05)
(-0.021607445 0.0079312765 4.4941215e-05)
(-0.02595034 0.0081269184 4.6410911e-05)
(-0.03032543 0.0081346473 4.500541e-05)
(-0.034638316 0.0079648842 4.0618451e-05)
(-0.038797823 0.0076242639 3.3163151e-05)
(-0.042715088 0.0071164062 2.2577366e-05)
(-0.046303106 0.0064434639 8.83736e-06)
(-0.049476982 0.0056080692 -8.0225888e-06)
(-0.052155006 0.0046153914 -2.7887328e-05)
(-0.054260546 0.0034750737 -5.0537719e-05)
(-0.055724662 0.002202873 -7.5630412e-05)
(-0.056489264 0.00082185844 -0.00010268386)
(-0.056510576 -0.00063693933 -0.00013107354)
(-0.055762702 -0.0021345435 -0.00016003487)
(-0.054240961 -0.0036247405 -0.00018868631)
(-0.051964656 -0.0050555267 -0.00021606085)
(-0.048979058 -0.0063712824 -0.00024115494)
(-0.045356266 -0.0075155948 -0.00026299028)
(-0.041194716 -0.0084345958 -0.00028068448)
(-0.03661713 -0.0090806153 -0.00029352386)
(-0.031766809 -0.0094158948 -0.00030103049)
(-0.026802253 -0.0094160764 -0.00030301585)
(-0.021890217 -0.0090731915 -0.00029961511)
(-0.017197427 -0.0083979435 -0.00029129817)
(-0.012881291 -0.0074212182 -0.0002788544)
(-0.0090799998 -0.006194967 -0.00026334944)
(-0.0059024577 -0.0047928988 -0.0002460555)
(-0.0034184935 -0.0033118048 -0.00022836338)
(-0.0016495387 -0.0018745356 -0.00021169591)
(-0.00055981003 -0.000634721 -0.000197441)
(-5.0121515e-05 0.00021498572 -0.00018683462)
(3.8092082e-05 0.0004138226 -0.00016802394)
(-0.00013086641 0.000445553 -5.8220069e-05)
(-0.00097094535 0.0022426463 -4.1157146e-05)
(-0.0028461856 0.0043591075 -2.4275022e-05)
(-0.0055647484 0.0064571048 -9.8429252e-06)
(-0.0090093246 0.0083533393 3.0753823e-06)
(-0.01307528 0.0099512932 1.4055069e-05)
(-0.017642026 0.011211572 2.2833185e-05)
(-0.022584349 0.012129396 2.9305026e-05)
(-0.02777922 0.01271733 3.3393496e-05)
(-0.033107618 0.01299395 3.5025713e-05)
(-0.038454918 0.012977172 3.4124242e-05)
(-0.043710472 0.012681028 3.060057e-05)
(-0.04876679 0.012114953 2.4357885e-05)
(-0.053518835 0.011284827 1.5302882e-05)
(-0.057863844 0.01019512 3.3643878e-06)
(-0.061701888 0.0088516262 -1.1483151e-05)
(-0.064937285 0.0072643529 -2.9193353e-05)
(-0.067480825 0.0054502361 -4.9621214e-05)
(-0.069252721 0.0034354137 -7.2498924e-05)
(-0.070186095 0.0012568573 -9.7417467e-05)
(-0.070230762 -0.0010368011 -0.00012381722)
(-0.069357083 -0.0033853895 -0.00015098985)
(-0.067559573 -0.0057182764 -0.00017809507)
(-0.064859964 -0.0079565369 -0.00020419191)
(-0.061309432 -0.010016128 -0.00022828581)
(-0.056989671 -0.011811996 -0.00024939001)
(-0.052012539 -0.013262933 -0.00026659766)
(-0.046518031 -0.014296932 -0.00027915841)
(-0.040670405 -0.014856679 -0.0002865507)
(-0.034652405 -0.014904798 -0.0002885398)
(-0.028657615 -0.014428427 -0.00028521362)
(-0.022881195 -0.01344281 -0.00027699135)
(-0.017509334 -0.011993695 -0.00026460404)
(-0.012707963 -0.010158618 -0.00024904759)
(-0.0086114121 -0.0080474353 -0.00023150823)
(-0.0053117284 -0.0058029282 -0.00021327053)
(-0.0028485122 -0.0036024707 -0.00019564931)
(-0.0012000367 -0.0016605573 -0.0001799053)
(-0.00028881369 -0.00023379942 -0.00016675824)
(-2.473381e-06 0.00035045103 -0.00014552093)
(-0.00019286335 0.0010312888 -7.669989e-05)
(-0.0013239713 0.003892467 -5.4798382e-05)
(-0.0037518085 0.0069678824 -3.4594008e-05)
(-0.0071732004 0.0099106558 -1.8500828e-05)
(-0.011414642 0.012527195 -4.7053489e-06)
(-0.01634124 0.014714269 6.6571575e-06)
(-0.02180929 0.016430243 1.557366e-05)
(-0.027675456 0.017671743 2.2158795e-05)
(-0.033801879 0.018454964 2.6491137e-05)
(-0.040056233 0.018802927 2.8597494e-05)
(-0.046311128 0.018737797 2.8455073e-05)
(-0.05244326 0.018277138 2.5992783e-05)
(-0.058332471 0.017433184 2.1100944e-05)
(-0.0638611 0.016214267 1.3649445e-05)
(-0.068913964 0.014627626 3.5119951e-06)
(-0.073379119 0.012682947 -9.4053659e-06)
(-0.077149489 0.010396089 -2.5133294e-05)
(-0.080125301 0.0077925619 -4.3607744e-05)
(-0.082217229 0.0049104184 -6.464071e-05)
(-0.083350059 0.0018023051 -8.7896258e-05)
(-0.083466681 -0.0014635341 -0.00011287541)
(-0.082532155 -0.0048034547 -0.00013891378)
(-0.080537594 -0.0081198757 -0.00016519375)
(-0.077503589 -0.011304121 -0.00019077458)
(-0.073482839 -0.014240582 -0.00021463912)
(-0.068561694 -0.016812114 -0.00023575627)
(-0.062860256 -0.018906487 -0.00025315585)
(-0.056530747 -0.020423556 -0.00026600998)
(-0.049753859 -0.021282749 -0.00027371251)
(-0.04273294 -0.021430322 -0.00027594575)
(-0.035685987 -0.020845857 -0.00027272332)
(-0.028835629 -0.019547442 -0.00026440151)
(-0.022397497 -0.017595199 -0.00025165751)
(-0.016567618 -0.015093018 -0.00023543719)
(-0.011509777 -0.012188753 -0.00021687457)
(-0.0073438491 -0.0090736102 -0.00019719788)
(-0.0041345125 -0.0059816508 -0.00017768537)
(-0.0018815907 -0.0031890441 -0.00015957166)
(-0.00053619199 -0.0010143415 -0.00014317931)
(-4.1246335e-05 0.00015893353 -0.00011908411)
(-0.00025011325 0.0017985427 -9.2186287e-05)
(-0.0016597488 0.0059840442 -6.5298543e-05)
(-0.0046243873 0.010198451 -4.1612616e-05)
(-0.0087320364 0.014106791 -2.3558201e-05)
(-0.013751392 0.017522054 -8.5201432e-06)
(-0.019514775 0.020346792 3.618578e-06)
(-0.025853739 0.022545568 1.3069625e-05)
(-0.032606497 0.024121626 2.0148984e-05)
(-0.03962126 0.025097721 2.5078927e-05)
(-0.04675428 0.02550279 2.7977864e-05)
(-0.053867963 0.025363849 2.8871518e-05)
(-0.060829309 0.024702175 2.7700595e-05)
(-0.067508609 0.023532837 2.4336385e-05)
(-0.073778652 0.021866675 1.8604696e-05)
(-0.079514691 0.019713862 1.0315761e-05)
(-0.084595256 0.017088278 -7.016715e-07)
(-0.088903837 0.014012077 -1.4563819e-05)
(-0.092331384 0.010519913 -3.1294863e-05)
(-0.09477949 0.0066624503 -5.0791872e-05)
(-0.09616414 0.0025088422 -7.2794589e-05)
(-0.096419815 -0.0018520425 -9.6863771e-05)
(-0.095503762 -0.006311826 -0.00012237296)
(-0.093400218 -0.01074436 -0.00014851495)
(-0.090124332 -0.015009138 -0.0001743297)
(-0.085725435 -0.018956337 -0.00019875059)
(-0.080289363 -0.022433456 -0.00022066934)
(-0.073939404 -0.025293356 -0.00023901537)
(-0.066835468 -0.027403367 -0.00025284346)
(-0.059171088 -0.028654974 -0.0002614216)
(-0.051167946 -0.028973434 -0.00026430844)
(-0.04306779 -0.028326566 -0.00026140788)
(-0.035121837 -0.026731964 -0.00025299003)
(-0.027578068 -0.024261976 -0.00023967306)
(-0.020667153 -0.021046093 -0.00022236789)
(-0.014588222 -0.017270744 -0.00020218935)
(-0.0094957427 -0.013177125 -0.00018035771)
(-0.0054864491 -0.0090578809 -0.00015818019)
(-0.0025879355 -0.005252209 -0.00013694958)
(-0.0007844645 -0.002140549 -0.00011666827)
(-7.6873079e-05 -0.00016055262 -8.946142e-05)
(-0.00030295146 0.002736487 -0.00010300966)
(-0.0019754676 0.0084979683 -7.1041236e-05)
(-0.0054520546 0.014028353 -4.3893834e-05)
(-0.010217809 0.019021087 -2.3749613e-05)
(-0.015984925 0.023310725 -7.2547546e-06)
(-0.022552438 0.026817774 5.9339107e-06)
(-0.02972671 0.029521971 1.6230905e-05)
(-0.037327615 0.031439294 2.4133958e-05)
(-0.045190272 0.032602908 2.9993066e-05)
(-0.053161059 0.03304988 3.4005204e-05)
(-0.0610943 0.032813211 3.6233663e-05)
(-0.068849803 0.031918366 3.6621409e-05)
(-0.076290983 0.03038336 3.5011872e-05)
(-0.083283742 0.02822148 3.1177975e-05)
(-0.089696226 0.025445692 2.4857205e-05)
(-0.095399503 0.022073906 1.5791178e-05)
(-0.10026914 0.018134375 3.7680658e-06)
(-0.10418757 0.013670685 -1.1334141e-05)
(-0.10704724 0.0087458937 -2.9505998e-05)
(-0.10875426 0.0034454957 -5.0569498e-05)
(-0.1092326 -0.0021210308 -7.4149207e-05)
(-0.10842858 -0.0078203049 -9.9657415e-05)
(-0.10631548 -0.013496858 -0.00012629293)
(-0.10289816 -0.018976926 -0.00015306511)
(-0.098217222 -0.024074186 -0.00017883789)
(-0.09235245 -0.028597496 -0.00020239683)
(-0.085425032 -0.032360484 -0.00022253433)
(-0.077598009 -0.035192679 -0.00023814591)
(-0.069074392 -0.036951647 -0.00024832898)
(-0.060092463 -0.037535355 -0.00025247311)
(-0.050917931 -0.036893795 -0.00025032951)
(-0.041832926 -0.035038799 -0.00024204715)
(-0.033122152 -0.032051024 -0.00022816632)
(-0.025057057 -0.028083358 -0.00020956686)
(-0.017879483 -0.023360462 -0.0001873722)
(-0.011786375 -0.018174851 -0.00016284233)
(-0.0069140105 -0.012880314 -0.00013737696)
(-0.0033238117 -0.0078822319 -0.00011240462)
(-0.0010368549 -0.0036261528 -8.7697918e-05)
(-0.000110934 -0.00060703164 -5.7256999e-05)
(-0.00035168734 0.0038337613 -0.0001077064)
(-0.0022696482 0.011410178 -7.0552398e-05)
(-0.0062273762 0.018427003 -4.0074874e-05)
(-0.011614558 0.024619561 -1.7824808e-05)
(-0.018090021 0.029857082 2.3868802e-07)
(-0.025420609 0.034089336 1.4667585e-05)
(-0.033388178 0.037320127 2.6061456e-05)
(-0.041795005 0.039584633 3.5081067e-05)
(-0.050464172 0.040930816 4.2187318e-05)
(-0.059233666 0.041406615 4.7640918e-05)
(-0.067951627 0.041052579 5.1529584e-05)
(-0.076472877 0.039899093 5.3786859e-05)
(-0.084656327 0.037967312 5.4217714e-05)
(-0.092363349 0.035272799 5.2532112e-05)
(-0.099457146 0.031830886 4.8384545e-05)
(-0.10580312 0.027662859 4.1418467e-05)
(-0.11127013 0.022802228 3.1314351e-05)
(-0.11573264 0.017300488 1.7839425e-05)
(-0.11907356 0.011231945 8.9652211e-07)
(-0.12118782 0.0046972561 -1.9430963e-05)
(-0.12198651 -0.0021745462 -4.2841962e-05)
(-0.12140159 -0.0092258045 -6.8795734e-05)
(-0.11939099 -0.016271838 -9.6500536e-05)
(-0.11594407 -0.023104849 -0.00012493239)
(-0.1110869 -0.029500069 -0.00015287374)
(-0.10488718 -0.035224371 -0.00017898036)
(-0.097458193 -0.040047301 -0.0002018718)
(-0.088961027 -0.043754287 -0.0002202383)
(-0.079604375 -0.04616148 -0.00023295417)
(-0.069641134 -0.047131342 -0.00023918523)
(-0.059361235 -0.046587779 -0.00023847717)
(-0.049080444 -0.044529345 -0.00023081152)
(-0.039125357 -0.041039037 -0.0002166178)
(-0.029815447 -0.036289379 -0.00019673384)
(-0.021443934 -0.030542088 -0.00017230855)
(-0.014259375 -0.024142432 -0.00014468503)
(-0.0084460456 -0.017509071 -0.00011541944)
(-0.0041057199 -0.011119043 -8.6152758e-05)
(-0.0013000689 -0.0054896814 -5.6493066e-05)
(-0.00014465963 -0.0011817486 -2.2539296e-05)
(-0.00039638567 0.005078594 -0.00010495728)
(-0.0025407622 0.01469325 -6.2479399e-05)
(-0.0069440981 0.023357601 -2.8873691e-05)
(-0.012909035 0.030860313 -4.5724655e-06)
(-0.020045331 0.037116757 1.5106863e-05)
(-0.028089858 0.042116241 3.0913576e-05)
(-0.036801569 0.04589507 4.3617921e-05)
(-0.045966481 0.048514071 5.4026801e-05)
(-0.055396984 0.050040605 6.2696055e-05)
(-0.064924219 0.050536557 6.9935575e-05)
(-0.074391951 0.050051871 7.5844253e-05)
(-0.083652053 0.048622802 8.0334102e-05)
(-0.092561104 0.046273906 8.3160375e-05)
(-0.10097811 0.043022758 8.3959169e-05)
(-0.10876334 0.038886348 8.2290753e-05)
(-0.11577818 0.033888242 7.7688047e-05)
(-0.12188599 0.028065735 6.9709546e-05)
(-0.12695371 0.021476435 5.799516e-05)
(-0.13085442 0.014203832 4.2322548e-05)
(-0.13347057 0.0063615625 2.266105e-05)
(-0.13469809 -0.0019038914 -7.8138512e-07)
(-0.13445119 -0.010412343 -2.7529568e-05)
(-0.13266801 -0.018950957 -5.6812295e-05)
(-0.12931704 -0.027277884 -8.7578676e-05)
(-0.12440366 -0.03512843 -0.00011852618)
(-0.11797693 -0.042224215 -0.00014816401)
(-0.11013563 -0.048285439 -0.00017490618)
(-0.10103285 -0.053046142 -0.00019718869)
(-0.090878104 -0.056271984 -0.0002136008)
(-0.079935922 -0.057779587 -0.00022301581)
(-0.068519921 -0.057455986 -0.00022470551)
(-0.05698185 -0.055276274 -0.00021842254)
(-0.045695498 -0.05131733 -0.00020443777)
(-0.035036312 -0.045765616 -0.00018352037)
(-0.025358728 -0.038917673 -0.00015684678)
(-0.01697354 -0.031173041 -0.00012587718)
(-0.010123034 -0.023020311 -9.2386812e-05)
(-0.0049572578 -0.015016192 -5.8308335e-05)
(-0.0015838973 -0.0077601381 -2.3136e-05)
(-0.00018000332 -0.0018920008 1.4731173e-05)
(-0.00043686572 0.0064584649 -9.3559865e-05)
(-0.0027868055 0.018316605 -4.5583363e-05)
(-0.0075957747 0.028777859 -9.0995961e-06)
(-0.014088411 0.037694304 1.7153949e-05)
(-0.021830456 0.045037498 3.8457418e-05)
(-0.030531784 0.050845479 5.574927e-05)
(-0.039930694 0.055194842 6.9958662e-05)
(-0.049798742 0.058178238 8.2023697e-05)
(-0.059939225 0.059887034 9.2580851e-05)
(-0.070178071 0.060400273 0.00010197611)
(-0.080356443 0.05977935 0.00011030758)
(-0.090325207 0.058067485 0.00011745466)
(-0.099940669 0.05529296 0.00012311218)
(-0.10906154 0.051475026 0.00012683144)
(-0.11754713 0.046631404 0.00012806656)
(-0.12525651 0.04078645 0.00012622618)
(-0.13204879 0.033979226 0.00012073024)
(-0.13778415 0.026270936 0.00011107119)
(-0.14232577 0.017751343 9.6877555e-05)
(-0.14554275 0.0085438981 7.7977449e-05)
(-0.14731397 -0.001190636 5.445735e-05)
(-0.1475329 -0.011252279 2.6695309e-05)
(-0.14611377 -0.021402271 -4.57857e-06)
(-0.14299892 -0.031365635 -3.8304274e-05)
(-0.13816675 -0.040836991 -7.3100769e-05)
(-0.13164055 -0.04948982 -0.0001073222)
(-0.1234971 -0.056989593 -0.00013914963)
(-0.11387412 -0.06301093 -0.00016671593)
(-0.10297548 -0.067258452 -0.0001882557)
(-0.091072594 -0.069490402 -0.00020226518)
(-0.078500599 -0.069543345 -0.00020765233)
(-0.065648332 -0.067355561 -0.00020385676)
(-0.052941491 -0.062986224 -0.00019092197)
(-0.040819661 -0.056627424 -0.00016950334)
(-0.029709379 -0.048606684 -0.00014079043)
(-0.019996029 -0.039379045 -0.00010638144)
(-0.011992058 -0.029509259 -6.8328525e-05)
(-0.0059059693 -0.01964421 -2.8938283e-05)
(-0.0018995766 -0.010479238 1.2370084e-05)
(-0.00021910871 -0.0027504841 5.4710666e-05)
(-0.00047275271 0.007959723 -7.2423487e-05)
(-0.0030052576 0.022246302 -1.8742563e-05)
(-0.0081753503 0.034640149 2.0333651e-05)
(-0.015139398 0.045065664 4.8413788e-05)
(-0.023424707 0.053559314 7.1328566e-05)
(-0.032717585 0.060215961 9.0198826e-05)
(-0.042738332 0.065159513 0.0001061026)
(-0.053246131 0.068520194 0.00012009613)
(-0.064036944 0.07041784 0.00013288431)
(-0.074933164 0.070951897 0.00014483827)
(-0.085775103 0.070197377 0.00015604556)
(-0.096414496 0.068205692 0.00016634393)
(-0.10670937 0.065009246 0.00017535881)
(-0.1165202 0.060628607 0.0001825468)
(-0.12570732 0.055081152 0.00018724409)
(-0.13412941 0.048390249 0.00018872023)
(-0.14164287 0.040594263 0.00018623793)
(-0.14810224 0.031754891 0.00017911853)
(-0.1533614 0.021964513 0.0001668122)
(-0.15727586 0.011352351 0.00014896964)
(-0.15970624 8.9259052e-05 0.00012551153)
(-0.16052316 -0.011609045 9.6699336e-05)
(-0.15961358 -0.023481155 6.3162558e-05)
(-0.15688877 -0.035221117 2.5943521e-05)
(-0.152294 -0.046483237 -1.3516563e-05)
(-0.14581935 -0.056890811 -5.3419176e-05)
(-0.13751112 -0.066049582 -9.1692792e-05)
(-0.12748278 -0.073566425 -0.00012612119)
(-0.115924 -0.079073233 -0.00015451041)
(-0.10310587 -0.082255221 -0.00017488083)
(-0.08938037 -0.082881856 -0.00018566258)
(-0.075172331 -0.08083753 -0.00018586751)
(-0.060962599 -0.076148183 -0.00017521217)
(-0.047262645 -0.068999648 -0.00015416661)
(-0.034582767 -0.059744024 -0.00012389821)
(-0.02339718 -0.048892052 -8.6149201e-05)
(-0.014103315 -0.037091578 -4.3299743e-05)
(-0.0069813683 -0.025092428 1.8847633e-06)
(-0.0022589849 -0.013702858 5.0031418e-05)
(-0.00026414338 -0.0037760233 9.7590022e-05)
(-0.00050354283 0.0095672851 -4.0578504e-05)
(-0.0031932257 0.026444759 1.903527e-05)
(-0.008675271 0.040891441 6.0390339e-05)
(-0.016048251 0.052911743 9.0155353e-05)
(-0.024806994 0.062614434 0.00011465888)
(-0.034617909 0.070158139 0.00013519712)
(-0.04518614 0.075720258 0.00015298791)
(-0.056260703 0.079473827 0.00016919435)
(-0.067632029 0.081571367 0.00018457983)
(-0.079120633 0.082135938 0.0001995324)
(-0.090567662 0.08125841 0.00021412207)
(-0.10182753 0.078999737 0.00022813873)
(-0.11276192 0.075396948 0.00024113204)
(-0.12323516 0.070471616 0.00025245616)
(-0.13311078 0.064239653 0.0002613188)
(-0.1422491 0.056721509 0.00026683578)
(-0.15050587 0.047952102 0.00026809243)
(-0.1577317 0.037990091 0.00026421235)
(-0.1637725 0.02692623 0.0002544333)
(-0.16847099 0.014890702 0.00023818766)
(-0.17166955 0.002059299 0.00021518488)
(-0.17321486 -0.011341823 0.00018550122)
(-0.17296422 -0.025033175 0.00014962539)
(-0.17079405 -0.038681511 0.0001085289)
(-0.16661085 -0.051902752 6.3674349e-05)
(-0.160364 -0.064269401 1.6994117e-05)
(-0.15206016 -0.075323542 -2.9180521e-05)
(-0.14177809 -0.084596396 -7.224527e-05)
(-0.1296823 -0.091634887 -0.00010950296)
(-0.1160333 -0.09603479 -0.00013838832)
(-0.10119183 -0.09747877 -0.00015671601)
(-0.085614311 -0.095776042 -0.00016292023)
(-0.069837421 -0.090898866 -0.00015624958)
(-0.054450933 -0.083010081 -0.0001368778)
(-0.040060824 -0.072476038 -0.00010588403)
(-0.027246241 -0.059861158 -6.5140464e-05)
(-0.016507556 -0.045903216 -1.7398718e-05)
(-0.0082136968 -0.031469614 3.4028667e-05)
(-0.0026742956 -0.017501718 8.9793725e-05)
(-0.00031729262 -0.0049938273 0.00014351289)
(-0.00052867261 0.011264464 2.805312e-06)
(-0.003347689 0.030870605 6.8594555e-05)
(-0.0090879199 0.047473293 0.00011189193)
(-0.016801344 0.061163182 0.00014319036)
(-0.025956522 0.072127279 0.00016925615)
(-0.036203678 0.080593683 0.00019155268)
(-0.04723565 0.086798568 0.00021142887)
(-0.058793457 0.090962443 0.00023014497)
(-0.07066373 0.093274445 0.00024851568)
(-0.082666663 0.09388438 0.00026694087)
(-0.094645813 0.092901295 0.00028546938)
(-0.10645998 0.090397173 0.00030384045)
(-0.11797642 0.086414335 0.00032152497)
(-0.1290654 0.080975185 0.00033777002)
(-0.13959591 0.074093137 0.00035164684)
(-0.14943238 0.065783793 0.0003621044)
(-0.15843236 0.056075793 0.00036803066)
(-0.16644499 0.045021002 0.00036832317)
(-0.1733105 0.032703918 0.00036196949)
(-0.17886079 0.019250282 0.00034813635)
(-0.18292144 0.0048348174 0.00032626578)
(-0.18531567 -0.010312108 0.00029617705)
(-0.18587031 -0.025899173 0.00025815197)
(-0.18442455 -0.041571281 0.0002130195)
(-0.18084158 -0.056909917 0.00016220203)
(-0.17502316 -0.07143829 0.0001077234)
(-0.16692686 -0.084632825 5.2161307e-05)
(-0.15658495 -0.095942553 -1.4671469e-06)
(-0.1441234 -0.10481755 -4.9892154e-05)
(-0.1297784 -0.11074667 -8.9846293e-05)
(-0.11390705 -0.11330326 -0.00011836989)
(-0.096988556 -0.11219551 -0.0001331326)
(-0.079612158 -0.10731564 -0.00013272457)
(-0.062449757 -0.098780343 -0.00011685871)
(-0.046214289 -0.086954161 -8.6413101e-05)
(-0.031607476 -0.072449245 -4.3344548e-05)
(-0.019253987 -0.056098774 9.1924948e-06)
(-0.0096330547 -0.038903608 6.724514e-05)
(-0.0031578015 -0.021961488 0.00013147243)
(-0.0003807815 -0.0064355512 0.00019250084)
(-0.00054759147 0.013032958 5.839549e-05)
(-0.0034658101 0.035478808 0.00013061042)
(-0.0094062698 0.054322116 0.00017549499)
(-0.017386164 0.069744208 0.0002081684)
(-0.026854083 0.082014644 0.00023576679)
(-0.037447671 0.09143539 0.00025991081)
(-0.048850157 0.098305715 0.00028207196)
(-0.060796572 0.10289767 0.00030359956)
(-0.073071294 0.10544062 0.00032535522)
(-0.085495582 0.1061142 0.00034774918)
(-0.097916821 0.105048 0.0003708095)
(-0.11019977 0.10232674 0.00039422602)
(-0.12221909 0.097998894 0.00041739181)
(-0.1338531 0.092087788 0.00043944614)
(-0.14497866 0.084603526 0.00045931945)
(-0.15546703 0.075555134 0.00047578387)
(-0.16518055 0.064962264 0.00048751218)
(-0.17397013 0.05286627 0.00049314819)
(-0.18167366 0.039340657 0.00049139007)
(-0.18811552 0.024500988 0.000481087)
(-0.19310748 0.0085143016 0.0004613482)
(-0.19645165 -0.0083920813 0.0004316619)
(-0.1979457 -0.025922698 0.00039201307)
(-0.19739109 -0.043708027 0.00034299703)
(-0.19460498 -0.061301526 0.0002859081)
(-0.18943586 -0.078181437 0.00022278881)
(-0.18178316 -0.093759434 0.00015641938)
(-0.17162019 -0.10739838 9.0228696e-05)
(-0.15901889 -0.11844128 2.8112732e-05)
(-0.14417373 -0.12625264 -2.5844049e-05)
(-0.12742094 -0.13027188 -6.7732375e-05)
(-0.10924797 -0.13007576 -9.4234014e-05)
(-0.090287853 -0.12544332 -0.00010303492)
(-0.07129416 -0.11641384 -9.315587e-05)
(-0.053096021 -0.10332587 -6.509569e-05)
(-0.036536145 -0.086827091 -2.0800807e-05)
(-0.02238826 -0.067848333 3.616322e-05)
(-0.01126867 -0.04754004 0.00010110697)
(-0.003721812 -0.027182512 0.00017467755)
(-0.00045690752 -0.0081393251 0.00024437613)
(-0.00055983748 0.014853029 0.00012667234)
(-0.0035452937 0.040221149 0.00020556736)
(-0.0096246908 0.061369835 0.00025167041)
(-0.017792589 0.078573339 0.00028555356)
(-0.027483801 0.092186273 0.00031464755)
(-0.038326712 0.10258746 0.0003407188)
(-0.049997356 0.11014261 0.00036535321)
(-0.062226504 0.11517877 0.00038998296)
(-0.074797589 0.1179689 0.00041551536)
(-0.087534086 0.11872541 0.0004423736)
(-0.10028843 0.11760101 0.0004705698)
(-0.11293275 0.11469497 0.00049975029)
(-0.12535083 0.1100632 0.000529236)
(-0.13743113 0.10373031 0.00055806217)
(-0.14906091 0.095702694 0.00058501876)
(-0.16012121 0.085981445 0.00060869558)
(-0.17048262 0.07457489 0.0006275366)
(-0.18000176 0.061510465 0.00063990759)
(-0.18851854 0.046846139 0.00064417994)
(-0.19585446 0.030681564 0.00063883285)
(-0.20181223 0.013169168 0.0006225738)
(-0.20617726 -0.005474843 0.00059447603)
(-0.20872163 -0.024959826 0.00055412664)
(-0.20921118 -0.04491128 0.00050177596)
(-0.20741675 -0.06486381 0.0004384747)
(-0.20313003 -0.08425846 0.0003661763)
(-0.19618475 -0.10244698 0.00028777971)
(-0.18648305 -0.11870602 0.00020708498)
(-0.17402596 -0.13226454 0.00012863568)
(-0.15894562 -0.142347 5.7431521e-05)
(-0.14153489 -0.14823357 -1.4879599e-06)
(-0.12226829 -0.14933518 -4.3561537e-05)
(-0.10180659 -0.1452773 -6.5266997e-05)
(-0.080978154 -0.13598055 -6.4622957e-05)
(-0.060733471 -0.12172262 -4.1485384e-05)
(-0.042074008 -0.103165 2.3778045e-06)
(-0.025950285 -0.081332555 6.3023952e-05)
(-0.013148141 -0.05754007 0.00013493644)
(-0.0043785626 -0.033279146 0.00021872821)
(-0.00054807864 -0.010149769 0.00029867516)
(-0.00056511632 0.01670388 0.00020790669)
(-0.0035847828 0.045047132 0.00029374122)
(-0.0097398778 0.068545077 0.00034068673)
(-0.018014405 0.087564614 0.00037560564)
(-0.027835224 0.10254594 0.00040614212)
(-0.038824328 0.11394629 0.0004341956)
(-0.050652553 0.12220019 0.00046145923)
(-0.063047792 0.12769259 0.00048944438)
(-0.075793541 0.1307431 0.00051910656)
(-0.088716405 0.13159991 0.00055088891)
(-0.10167487 0.13044147 0.00058479739)
(-0.1145497 0.12738383 0.00062044578)
(-0.12723537 0.12249183 0.00065709365)
(-0.13963251 0.11579228 0.00069368131)
(-0.15164132 0.10728792 0.00072886384)
(-0.16315576 0.096971138 0.00076104888)
(-0.17405849 0.084837177 0.00078844389)
(-0.18421634 0.070896744 0.0008091182)
(-0.19347647 0.055188251 0.00082108453)
(-0.2016634 0.037790077 0.00082240351)
(-0.20857711 0.018833183 0.0008113134)
(-0.21399283 -0.001485771 0.0007863847)
(-0.21766317 -0.022890945 0.00074669784)
(-0.21932334 -0.045014128 0.00069203039)
(-0.2187007 -0.067383074 0.00062304838)
(-0.21552975 -0.089413274 0.00054147211)
(-0.20957355 -0.11040616 0.00045018917)
(-0.20065246 -0.12955747 0.00035327741)
(-0.18867973 -0.14598033 0.00025589817)
(-0.17370227 -0.15874738 0.0001640256)
(-0.15594222 -0.16695549 8.3995025e-05)
(-0.1358326 -0.16981301 2.1883913e-05)
(-0.11403698 -0.16674427 -1.7218089e-05)
(-0.091442735 -0.15749875 -2.9929403e-05)
(-0.069120036 -0.14224442 -1.509306e-05)
(-0.048244021 -0.12162158 2.5970973e-05)
(-0.0299716 -0.096735782 8.9046405e-05)
(-0.015296514 -0.069077022 0.00016772135)
(-0.0051400896 -0.040378679 0.00026255206)
(-0.00065684968 -0.012517978 0.00035454666)
(-0.00056338289 0.01856426 0.00030214327)
(-0.0035842855 0.049905369 0.000395188)
(-0.0097518712 0.075774955 0.00044260084)
(-0.018051002 0.096629456 0.00047836907)
(-0.027905691 0.11299316 0.00051026538)
(-0.038933758 0.12540186 0.00054030895)
(-0.050802316 0.13436041 0.00057029511)
(-0.063237361 0.14031405 0.0006018146)
(-0.076023166 0.14363195 0.00063587828)
(-0.08899016 0.14460107 0.0006729613)
(-0.10200371 0.14342845 0.00071307838)
(-0.11495432 0.1402494 0.00075582706)
(-0.12774863 0.13513966 0.00080042169)
(-0.14030135 0.12812963 0.00084572223)
(-0.15252813 0.11921905 0.00089026027)
(-0.16433904 0.10839152 0.00093226779)
(-0.17563276 0.095628257 0.00096971514)
(-0.18629123 0.080921249 0.0010003649)