/*--------------------------------*- C++ -*----------------------------------*\
  =========                 |
  \\      /  F ield         | OpenFOAM: The Open Source CFD Toolbox
   \\    /   O peration     | Website:  https://openfoam.org
    \\  /    A nd           | Version:  7
     \\/     M anipulation  |
\*---------------------------------------------------------------------------*/
FoamFile
{
    version     2.0;
    format      ascii;
    class       volVectorField;
    location    "22";
    object      U_0;
}
// * * * * * * * * * * * * * * * * * * * * * * * * * * * * * * * * * * * * * //

dimensions      [0 1 -1 0 0 0 0];

internalField   nonuniform List<vector> 
16000
(
(6.5997578e-05 -6.7377133e-05 -4.3274184e-07)
(0.00016268335 -5.637935e-05 5.6648091e-06)
(0.00014188796 4.5318615e-07 1.9164034e-05)
(-5.0635575e-05 6.188591e-05 3.6586171e-05)
(-0.0004099797 0.00011562809 5.4694311e-05)
(-0.00090902479 0.00015774137 7.1522275e-05)
(-0.0015177011 0.00018850211 8.5733997e-05)
(-0.0022068659 0.00020960599 9.6514325e-05)
(-0.0029505709 0.0002228735 0.00010340292)
(-0.0037264237 0.00022980805 0.00010615283)
(-0.0045149983 0.00023147439 0.00010463684)
(-0.0052989495 0.00022850121 9.8791935e-05)
(-0.0060621179 0.00022114417 8.8593494e-05)
(-0.0067887782 0.00020937939 7.4052066e-05)
(-0.0074631212 0.00019301033 5.5226354e-05)
(-0.0080690148 0.00017177836 3.2246537e-05)
(-0.0085900608 0.00014547076 5.3425298e-06)
(-0.0090099349 0.0001140215 -2.51277e-05)
(-0.0093129826 7.7600386e-05 -5.8654182e-05)
(-0.0094850265 3.6685623e-05 -9.4559217e-05)
(-0.0095143281 -7.8876286e-06 -0.00013199324)
(-0.0093926152 -5.4922836e-05 -0.00016994521)
(-0.0091161168 -0.00010283919 -0.00020726876)
(-0.0086865024 -0.0001497438 -0.00024272599)
(-0.0081115992 -0.00019350819 -0.00027504698)
(-0.0074058121 -0.00023188544 -0.0003030028)
(-0.0065901509 -0.00026266107 -0.00032548722)
(-0.0056918023 -0.00028382415 -0.00034160058)
(-0.0047432265 -0.00029373996 -0.00035072872)
(-0.0037807965 -0.00029130154 -0.00035260987)
(-0.0028430482 -0.00027604112 -0.00034738331)
(-0.0019686411 -0.00024819167 -0.00033561545)
(-0.001194142 -0.00020870483 -0.00031830211)
(-0.0005516785 -0.00015926357 -0.00029684897)
(-6.6529997e-05 -0.00010239871 -0.00027302595)
(0.00024489924 -4.1743038e-05 -0.00024888996)
(0.00037893512 1.7849618e-05 -0.00022682134)
(0.00034979767 6.7052521e-05 -0.00020925508)
(0.00020620873 8.9824115e-05 -0.00019886377)
(5.7476475e-05 5.7393566e-05 -0.00018441497)
(5.7976193e-05 -0.00016709243 -6.6661105e-06)
(4.0834936e-05 -3.9998579e-05 -4.1415783e-07)
(-0.00029500875 0.00024854272 1.1219032e-05)
(-0.0010110421 0.00056210686 2.5584723e-05)
(-0.002099228 0.00084748109 4.0569336e-05)
(-0.0035140658 0.0010831046 5.4577092e-05)
(-0.0051946385 0.0012642836 6.6480716e-05)
(-0.0070765535 0.0013940482 7.5527938e-05)
(-0.0090980437 0.0014779396 8.1236974e-05)
(-0.011202168 0.0015215055 8.3308161e-05)
(-0.013336866 0.0015291899 8.1558147e-05)
(-0.015453978 0.0015039553 7.5876945e-05)
(-0.01750792 0.0014473374 6.620624e-05)
(-0.019454457 0.0013597585 5.2535327e-05)
(-0.021249871 0.0012409837 3.4910355e-05)
(-0.022850668 0.0010906435 1.3452459e-05)
(-0.024213901 0.0009087645 -1.1619448e-05)
(-0.025298095 0.00069626973 -3.9965446e-05)
(-0.02606471 0.00045541154 -7.1104841e-05)
(-0.026480047 0.0001901059 -0.00010440335)
(-0.026517466 -9.386348e-05 -0.00013907011)
(-0.026159649 -0.00038876833 -0.00017417369)
(-0.02540085 -0.00068507539 -0.00020865841)
(-0.024248876 -0.00097173639 -0.00024139197)
(-0.022726485 -0.0012366683 -0.00027121862)
(-0.020872112 -0.0014674051 -0.00029702651)
(-0.018739705 -0.0016518863 -0.00031782327)
(-0.016397544 -0.0017793306 -0.00033281344)
(-0.013925995 -0.0018411192 -0.00034147053)
(-0.011414228 -0.0018316022 -0.00034359641)
(-0.0089560431 -0.001748746 -0.00033936192)
(-0.0066449699 -0.0015945707 -0.00032932496)
(-0.004568873 -0.0013753897 -0.0003144245)
(-0.0028042143 -0.0011019713 -0.00029595151)
(-0.0014100336 -0.00078991638 -0.00027549832)
(-0.00042167035 -0.00046056889 -0.00025488071)
(0.00015572965 -0.00014254091 -0.00023601345)
(0.00035671219 0.00012230856 -0.00022091184)
(0.00027528796 0.00027109486 -0.00021167422)
(9.0144598e-05 0.0002050656 -0.00019548011)
(1.9067796e-06 -0.00014898418 -2.0452419e-05)
(-0.0002560716 0.00029699144 -1.1835556e-05)
(-0.001050468 0.0010235927 6.2512468e-08)
(-0.0023878242 0.0017975023 1.3042304e-05)
(-0.0042394129 0.0025098606 2.6078221e-05)
(-0.0065454964 0.0031100085 3.8029382e-05)
(-0.0092250173 0.003580872 4.8068783e-05)
(-0.012189847 0.0039233754 5.5635797e-05)
(-0.015352788 0.0041461243 6.0348818e-05)
(-0.018630804 0.0042595282 6.1951185e-05)
(-0.021945777 0.0042727525 6.0269952e-05)
(-0.025223907 0.0041924151 5.518728e-05)
(-0.028394526 0.004022413 4.6626826e-05)
(-0.031388951 0.0037644713 3.4553502e-05)
(-0.03413974 0.0034191225 1.8983513e-05)
(-0.036580629 0.0029868981 1.4354442e-09)
(-0.03864721 0.0024695733 -2.2218935e-05)
(-0.040278386 0.0018713382 -4.7393266e-05)
(-0.041418488 0.0011998004 -7.5108127e-05)
(-0.042019936 0.00046673414 -0.00010480859)
(-0.042046207 -0.00031148569 -0.00013579663)
(-0.041474926 -0.0011137879 -0.00016723692)
(-0.040300798 -0.0019148411 -0.00019818238)
(-0.038538075 -0.0026858127 -0.00022761015)
(-0.036222319 -0.0033956145 -0.00025447233)
(-0.033411198 -0.0040125355 -0.00027775836)
(-0.030184093 -0.004506177 -0.00029656516)
(-0.026640357 -0.0048495711 -0.00031016945)
(-0.022896145 -0.0050213268 -0.00031809544)
(-0.019079841 -0.0050076238 -0.00032017002)
(-0.01532621 -0.0048038854 -0.00031655867)
(-0.011769501 -0.004416005 -0.00030777733)
(-0.0085357946 -0.0038611182 -0.00029467887)
(-0.005734853 -0.0031680879 -0.0002784158)
(-0.0034516875 -0.0023781179 -0.00026038238)
(-0.0017379854 -0.0015461889 -0.00024213566)
(-0.00060371488 -0.00074417471 -0.00022528721)
(-8.072419e-06 -6.6344772e-05 -0.00021142941)
(0.000155402 0.00036039394 -0.00020224884)
(7.3562094e-05 0.00035435558 -0.00018532884)
(-6.4689087e-05 5.041492e-05 -3.8704075e-05)
(-0.00060838856 0.0010457311 -2.6167259e-05)
(-0.0019305345 0.0023816888 -1.2186217e-05)
(-0.0039464076 0.0037564531 1.106292e-06)
(-0.006588946 0.0050152317 1.3694236e-05)
(-0.0097790833 0.006079967 2.4818234e-05)
(-0.013416956 0.0069204146 3.394103e-05)
(-0.017395298 0.0075339984 4.072731e-05)
(-0.021607444 0.0079312763 4.494115e-05)
(-0.025950338 0.0081269176 4.6410756e-05)
(-0.030325427 0.0081346459 4.5005373e-05)
(-0.034638313 0.007964883 4.0618658e-05)
(-0.03879782 0.0076242634 3.3163484e-05)
(-0.042715085 0.0071164067 2.2577536e-05)
(-0.046303103 0.0064434644 8.8371773e-06)
(-0.049476978 0.0056080687 -8.022985e-06)
(-0.052155 0.0046153896 -2.7887538e-05)
(-0.05426054 0.0034750718 -5.0537439e-05)
(-0.055724658 0.0022028727 -7.5629784e-05)
(-0.056489262 0.00082186052 -0.00010268345)
(-0.056510574 -0.00063693644 -0.00013107386)
(-0.055762699 -0.0021345426 -0.00016003581)
(-0.054240955 -0.0036247429 -0.00018868703)
(-0.051964649 -0.0050555306 -0.00021606042)
(-0.048979052 -0.0063712835 -0.00024115332)
(-0.045356266 -0.0075155902 -0.00026298869)
(-0.04119472 -0.0084345878 -0.0002806845)
(-0.036617132 -0.0090806107 -0.00029352584)
(-0.031766803 -0.0094158989 -0.00030103272)
(-0.026802242 -0.0094160863 -0.00030301581)
(-0.02189021 -0.0090731967 -0.00029961218)
(-0.017197432 -0.008397936 -0.00029129498)
(-0.012881305 -0.0074212027 -0.00027885474)
(-0.0090800079 -0.0061949589 -0.00026335401)
(-0.0059024486 -0.0047929087 -0.00024606014)
(-0.0034184745 -0.003311825 -0.00022836278)
(-0.001649531 -0.0018745456 -0.00021169)
(-0.0005598237 -0.00063471058 -0.00019743632)
(-5.01358e-05 0.00021500194 -0.00018683657)
(3.8089826e-05 0.00041382174 -0.00016802726)
(-0.00013086626 0.00044555281 -5.8220019e-05)
(-0.00097094509 0.0022426461 -4.1157024e-05)
(-0.0028461855 0.0043591074 -2.42749e-05)
(-0.0055647483 0.0064571046 -9.842894e-06)
(-0.0090093239 0.0083533387 3.0753284e-06)
(-0.013075278 0.0099512921 1.4055045e-05)
(-0.017642024 0.011211571 2.2833298e-05)
(-0.022584347 0.012129395 2.9305232e-05)
(-0.027779218 0.01271733 3.3393623e-05)
(-0.033107616 0.012993949 3.5025646e-05)
(-0.038454915 0.012977171 3.4124065e-05)
(-0.043710468 0.012681026 3.0600515e-05)
(-0.048766785 0.012114952 2.4358108e-05)
(-0.05351883 0.011284827 1.530327e-05)
(-0.05786384 0.010195121 3.3646135e-06)
(-0.061701885 0.0088516269 -1.148334e-05)
(-0.06493728 0.0072643526 -2.9193854e-05)
(-0.067480818 0.0054502342 -4.9621583e-05)
(-0.069252714 0.0034354114 -7.2498742e-05)
(-0.070186089 0.0012568567 -9.7416785e-05)
(-0.070230759 -0.0010367988 -0.00012381664)
(-0.069357082 -0.0033853857 -0.00015099008)
(-0.06755957 -0.0057182742 -0.00017809617)
(-0.064859957 -0.0079565388 -0.00020419298)
(-0.061309422 -0.010016133 -0.00022828563)
(-0.056989663 -0.011811998 -0.00024938825)
(-0.052012538 -0.013262929 -0.00026659559)
(-0.046518036 -0.014296922 -0.00027915808)
(-0.040670409 -0.014856672 -0.00028655289)
(-0.0346524 -0.0149048 -0.00028854275)
(-0.028657603 -0.014428438 -0.00028521419)
(-0.022881185 -0.013442817 -0.00027698828)
(-0.017509338 -0.011993689 -0.00026460003)
(-0.012707977 -0.010158602 -0.00024904708)
(-0.0086114213 -0.0080474247 -0.00023151238)
(-0.0053117204 -0.0058029351 -0.00021327502)
(-0.002848496 -0.0036024874 -0.00019564886)
(-0.001200034 -0.0016605645 -0.00017990076)
(-0.00028882442 -0.00023379159 -0.00016675631)
(-2.4788447e-06 0.00035045868 -0.0001455224)
(-0.00019286325 0.0010312887 -7.6699877e-05)
(-0.0013239709 0.0038924665 -5.4798329e-05)
(-0.003751808 0.0069678817 -3.4593873e-05)
(-0.0071731999 0.0099106552 -1.8500701e-05)
(-0.011414642 0.012527194 -4.7053303e-06)
(-0.016341239 0.014714268 6.6570849e-06)
(-0.021809288 0.016430241 1.5573634e-05)
(-0.027675453 0.017671741 2.2158934e-05)
(-0.033801876 0.018454962 2.6491387e-05)
(-0.040056231 0.018802926 2.8597661e-05)
(-0.046311125 0.018737796 2.8455015e-05)
(-0.052443256 0.018277136 2.5992578e-05)
(-0.058332465 0.017433182 2.110085e-05)
(-0.063861094 0.016214264 1.364966e-05)
(-0.068913958 0.014627624 3.5124323e-06)
(-0.073379114 0.012682947 -9.4050679e-06)
(-0.077149484 0.01039609 -2.5133473e-05)
(-0.080125296 0.0077925619 -4.3608362e-05)
(-0.082217221 0.0049104166 -6.4641287e-05)
(-0.08335005 0.0018023025 -8.7896232e-05)
(-0.083466673 -0.001463535 -0.0001128747)
(-0.08253215 -0.0048034522 -0.00013891301)
(-0.080537592 -0.0081198707 -0.00016519383)
(-0.077503586 -0.011304118 -0.00019077581)
(-0.073482833 -0.014240583 -0.0002146406)
(-0.068561683 -0.016812119 -0.00023575648)
(-0.062860247 -0.01890649 -0.00025315409)
(-0.056530745 -0.020423552 -0.00026600746)
(-0.049753865 -0.021282737 -0.00027371171)
(-0.042732946 -0.021430313 -0.00027594798)
(-0.035685983 -0.020845858 -0.00027272683)
(-0.028835616 -0.019547453 -0.00026440265)
(-0.022397486 -0.017595209 -0.00025165455)
(-0.016567621 -0.015093014 -0.00023543285)
(-0.011509791 -0.012188738 -0.00021687363)
(-0.0073438569 -0.0090736003 -0.00019720141)
(-0.0041345048 -0.0059816562 -0.00017768884)
(-0.0018815798 -0.0031890556 -0.00015957081)
(-0.00053619219 -0.0010143435 -0.00014317663)
(-4.1249393e-05 0.00015893933 -0.00011908325)
(-0.00025011333 0.0017985428 -9.2186237e-05)
(-0.0016597486 0.0059840436 -6.5298558e-05)
(-0.0046243865 0.010198449 -4.1612559e-05)
(-0.0087320354 0.01410679 -2.3558051e-05)
(-0.013751391 0.017522052 -8.5200097e-06)
(-0.019514773 0.020346791 3.6185833e-06)
(-0.025853737 0.022545566 1.3069538e-05)
(-0.032606494 0.024121623 2.0148966e-05)
(-0.039621256 0.025097719 2.5079102e-05)
(-0.046754276 0.025502788 2.7978166e-05)
(-0.053867959 0.025363848 2.8871724e-05)
(-0.060829305 0.024702174 2.7700533e-05)
(-0.067508604 0.023532835 2.4336126e-05)
(-0.073778645 0.021866673 1.860453e-05)
(-0.079514683 0.019713859 1.031595e-05)
(-0.084595248 0.017088276 -7.0118e-07)
(-0.088903831 0.014012077 -1.456342e-05)
(-0.092331379 0.010519915 -3.1294998e-05)
(-0.094779484 0.0066624511 -5.0792592e-05)
(-0.096164132 0.0025088409 -7.2795389e-05)
(-0.096419805 -0.0018520451 -9.6863934e-05)
(-0.095503753 -0.0063118273 -0.00012237223)
(-0.093400212 -0.010744358 -0.00014851395)
(-0.09012433 -0.015009132 -0.00017432956)
(-0.085725433 -0.018956331 -0.00019875189)
(-0.080289357 -0.022433455 -0.00022067126)
(-0.073939393 -0.025293361 -0.00023901607)
(-0.066835457 -0.027403371 -0.00025284179)
(-0.059171084 -0.028654971 -0.00026141867)
(-0.051167952 -0.028973422 -0.00026430706)
(-0.043067797 -0.028326555 -0.00026140985)
(-0.035121834 -0.026731963 -0.00025299372)
(-0.027578056 -0.024261987 -0.00023967455)
(-0.020667143 -0.021046102 -0.00022236526)
(-0.014588225 -0.017270741 -0.00020218543)
(-0.0094957544 -0.013177113 -0.00018035703)
(-0.0054864538 -0.0090578738 -0.00015818304)
(-0.0025879292 -0.0052522134 -0.00013695161)
(-0.0007844583 -0.0021405552 -0.00011666748)
(-7.687196e-05 -0.00016055283 -8.945989e-05)
(-0.00030295166 0.0027364871 -0.00010300951)
(-0.0019754677 0.0084979678 -7.1041224e-05)
(-0.0054520539 0.014028352 -4.3893854e-05)
(-0.010217808 0.019021085 -2.3749542e-05)
(-0.015984923 0.023310723 -7.2545844e-06)
(-0.022552436 0.026817773 5.9340502e-06)
(-0.029726708 0.029521969 1.6230909e-05)
(-0.037327612 0.031439291 2.4133872e-05)
(-0.045190268 0.032602905 2.9993065e-05)
(-0.053161054 0.033049876 3.4005411e-05)
(-0.061094295 0.032813209 3.6233998e-05)
(-0.068849798 0.031918365 3.6621626e-05)
(-0.076290978 0.030383359 3.5011778e-05)
(-0.083283736 0.028221478 3.117764e-05)
(-0.089696218 0.02544569 2.4856957e-05)
(-0.095399494 0.022073903 1.5791342e-05)
(-0.10026913 0.018134373 3.7686336e-06)
(-0.10418757 0.013670686 -1.1333597e-05)
(-0.10704723 0.008745896 -2.9506028e-05)
(-0.10875425 0.0034454976 -5.0570267e-05)
(-0.10923259 -0.0021210312 -7.4150212e-05)
(-0.10842857 -0.0078203073 -9.9657785e-05)
(-0.10631547 -0.01349686 -0.00012629221)
(-0.10289815 -0.018976923 -0.00015306386)
(-0.09821722 -0.024074179 -0.00017883745)
(-0.092352449 -0.028597489 -0.00020239811)
(-0.085425027 -0.032360482 -0.0002225366)
(-0.077597998 -0.035192684 -0.00023814708)
(-0.06907438 -0.036951652 -0.0002483275)
(-0.060092458 -0.037535352 -0.00025246992)
(-0.050917937 -0.036893783 -0.00025032767)
(-0.041832934 -0.035038787 -0.00024204878)
(-0.03312215 -0.032051022 -0.00022816989)
(-0.025057045 -0.028083367 -0.00020956843)
(-0.017879474 -0.023360471 -0.00018737009)
(-0.011786378 -0.018174848 -0.00016283937)
(-0.0069140188 -0.012880305 -0.00013737675)
(-0.0033238137 -0.0078822278 -0.00011240646)
(-0.0010368506 -0.0036261556 -8.7698848e-05)
(-0.00011093152 -0.00060703517 -5.72564e-05)
(-0.00035168745 0.0038337611 -0.00010770617)
(-0.0022696483 0.011410178 -7.0552268e-05)
(-0.0062273758 0.018427002 -4.0074875e-05)
(-0.011614556 0.024619558 -1.7824829e-05)
(-0.018090019 0.029857079 2.3876754e-07)
(-0.025420607 0.034089333 1.4667761e-05)
(-0.033388176 0.037320124 2.6061602e-05)
(-0.041795002 0.039584631 3.5081078e-05)
(-0.050464168 0.040930813 4.2187241e-05)
(-0.059233661 0.041406612 4.764092e-05)
(-0.067951621 0.041052575 5.1529785e-05)
(-0.07647287 0.03989909 5.378718e-05)
(-0.084656321 0.03796731 5.4217911e-05)
(-0.092363343 0.035272798 5.2531984e-05)
(-0.099457139 0.031830885 4.8384154e-05)
(-0.10580311 0.027662857 4.1418161e-05)
(-0.11127012 0.022802225 3.1314507e-05)
(-0.11573263 0.017300487 1.7840091e-05)
(-0.11907355 0.011231946 8.9725809e-07)
(-0.12118781 0.0046972593 -1.9430814e-05)
(-0.1219865 -0.002174543 -4.2842706e-05)
(-0.12140158 -0.0092258037 -6.8796912e-05)
(-0.11939098 -0.01627184 -9.650114e-05)
(-0.11594406 -0.023104851 -0.00012493173)
(-0.11108689 -0.029500067 -0.00015287228)
(-0.10488718 -0.035224363 -0.00017897958)
(-0.097458193 -0.040047291 -0.0002018729)
(-0.088961023 -0.043754283 -0.00022024074)
(-0.079604365 -0.046161483 -0.00023295571)
(-0.069641122 -0.047131348 -0.00023918401)
(-0.05936123 -0.046587777 -0.00023847398)
(-0.049080449 -0.044529334 -0.0002308095)
(-0.039125364 -0.041039025 -0.00021661916)
(-0.029815446 -0.036289376 -0.00019673707)
(-0.021443925 -0.030542095 -0.00017231001)
(-0.014259368 -0.024142438 -0.00014468354)
(-0.0084460478 -0.017509069 -0.00011541759)
(-0.0041057248 -0.011119038 -8.6152739e-05)
(-0.0013000696 -0.0054896794 -5.6494056e-05)
(-0.00014465871 -0.0011817507 -2.2539741e-05)
(-0.00039638555 0.0050785933 -0.00010495707)
(-0.0025407621 0.014693249 -6.2479159e-05)
(-0.0069440978 0.0233576 -2.8873567e-05)
(-0.012909034 0.030860311 -4.5724789e-06)
(-0.020045329 0.037116754 1.5106825e-05)
(-0.028089855 0.042116237 3.0913642e-05)
(-0.036801566 0.045895066 4.3618096e-05)
(-0.045966478 0.048514068 5.4026959e-05)
(-0.05539698 0.050040602 6.269608e-05)
(-0.064924214 0.050536553 6.9935491e-05)
(-0.074391944 0.050051867 7.5844215e-05)
(-0.083652045 0.048622798 8.0334241e-05)
(-0.092561096 0.046273903 8.316065e-05)
(-0.1009781 0.043022756 8.395936e-05)
(-0.10876333 0.038886347 8.2290642e-05)
(-0.11577817 0.033888241 7.7687655e-05)
(-0.12188598 0.028065733 6.9709208e-05)
(-0.1269537 0.021476432 5.7995304e-05)
(-0.13085441 0.01420383 4.2323301e-05)
(-0.13347056 0.0063615638 2.2661995e-05)
(-0.13469808 -0.0019038872 -7.8100208e-07)
(-0.13445118 -0.010412338 -2.7530219e-05)
(-0.13266801 -0.018950955 -5.6813609e-05)
(-0.12931703 -0.027277885 -8.7579542e-05)
(-0.12440365 -0.035128432 -0.00011852567)
(-0.11797692 -0.042224212 -0.00014816242)
(-0.11013563 -0.04828543 -0.00017490507)
(-0.10103285 -0.053046131 -0.00019718952)
(-0.090878102 -0.056271978 -0.00021360322)
(-0.079935912 -0.057779589 -0.00022301756)
(-0.068519909 -0.05745599 -0.00022470457)
(-0.056981844 -0.055276273 -0.00021841961)
(-0.045695502 -0.05131732 -0.0002044359)
(-0.035036318 -0.045765605 -0.00018352153)
(-0.025358727 -0.03891767 -0.00015684946)
(-0.016973533 -0.031173046 -0.00012587837)
(-0.010123029 -0.023020315 -9.2385952e-05)
(-0.0049572592 -0.015016191 -5.8307315e-05)
(-0.0015839001 -0.007760135 -2.313605e-05)
(-0.00018000419 -0.0018920001 1.4730562e-05)
(-0.00043686544 0.006458464 -9.3559735e-05)
(-0.0027868049 0.018316604 -4.558312e-05)
(-0.0075957741 0.028777856 -9.0993476e-06)
(-0.01408841 0.037694302 1.715405e-05)
(-0.021830455 0.045037494 3.8457351e-05)
(-0.030531781 0.050845474 5.5749175e-05)
(-0.03993069 0.055194837 6.9958699e-05)
(-0.049798738 0.058178233 8.2023878e-05)
(-0.059939221 0.05988703 9.2581035e-05)
(-0.070178065 0.060400269 0.00010197614)
(-0.080356437 0.059779346 0.00011030746)
(-0.0903252 0.058067481 0.00011745453)
(-0.099940661 0.055292955 0.00012311223)
(-0.10906154 0.051475022 0.00012683168)
(-0.11754712 0.046631402 0.0001280668)
(-0.1252565 0.04078645 0.00012622615)
(-0.13204879 0.033979226 0.00012072988)
(-0.13778414 0.026270934 0.00011107081)
(-0.14232576 0.017751341 9.6877636e-05)
(-0.14554274 0.0085438967 7.7978234e-05)
(-0.14731396 -0.0011906344 5.4458476e-05)
(-0.1475329 -0.011252274 2.6695942e-05)
(-0.14611377 -0.021402265 -4.5790826e-06)
(-0.14299891 -0.031365631 -3.8305687e-05)
(-0.13816673 -0.040836991 -7.3101912e-05)
(-0.13164054 -0.049489821 -0.00010732193)
(-0.12349709 -0.056989591 -0.00013914804)
(-0.11387412 -0.063010921 -0.00016671458)
(-0.10297548 -0.067258441 -0.00018825623)
(-0.091072591 -0.069490395 -0.0002022674)
(-0.07850059 -0.069543345 -0.00020765406)
(-0.065648321 -0.067355565 -0.00020385604)
(-0.052941486 -0.062986222 -0.00019091946)
(-0.040819665 -0.056627415 -0.00016950179)
(-0.029709384 -0.048606675 -0.00014079136)
(-0.019996028 -0.039379043 -0.00010638343)
(-0.011992053 -0.029509262 -6.8329424e-05)
(-0.0059059666 -0.019644212 -2.8937882e-05)
(-0.0018995775 -0.010479237 1.237055e-05)
(-0.00021910972 -0.0027504826 5.4710505e-05)
(-0.00047275253 0.0079597223 -7.2423411e-05)
(-0.0030052569 0.0222463 -1.8742422e-05)
(-0.0081753493 0.034640145 2.0333911e-05)
(-0.015139397 0.04506566 4.8414008e-05)
(-0.023424706 0.05355931 7.1328583e-05)
(-0.032717583 0.060215956 9.0198659e-05)
(-0.042738328 0.065159507 0.00010610244)
(-0.053246126 0.068520188 0.00012009616)
(-0.064036939 0.070417834 0.00013288452)
(-0.074933159 0.070951892 0.00014483849)
(-0.085775098 0.070197373 0.00015604558)
(-0.09641449 0.068205688 0.00016634374)
(-0.10670936 0.065009241 0.00017535858)
(-0.11652019 0.060628602 0.00018254678)
(-0.12570731 0.055081148 0.00018724433)
(-0.1341294 0.048390247 0.00018872055)
(-0.14164287 0.040594262 0.00018623797)
(-0.14810223 0.031754891 0.00017911817)
(-0.15336139 0.021964513 0.00016681172)
(-0.15727585 0.01135235 0.00014896959)
(-0.15970623 8.9257964e-05 0.00012551227)
(-0.16052315 -0.011609043 9.6700574e-05)
(-0.15961357 -0.023481149 6.3163403e-05)
(-0.15688876 -0.035221109 2.5943156e-05)
(-0.15229399 -0.046483231 -1.3518036e-05)
(-0.14581934 -0.056890809 -5.3420575e-05)
(-0.1375111 -0.066049583 -9.1692802e-05)
(-0.12748277 -0.073566423 -0.00012611973)
(-0.115924 -0.079073225 -0.00015450895)
(-0.10310587 -0.082255209 -0.00017488106)
(-0.089380368 -0.082881847 -0.00018566443)
(-0.075172323 -0.080837529 -0.00018586901)
(-0.060962589 -0.076148185 -0.00017521161)
(-0.047262641 -0.068999646 -0.00015416463)
(-0.03458277 -0.059744017 -0.00012389705)
(-0.023397182 -0.048892045 -8.6149855e-05)
(-0.014103314 -0.037091575 -4.3301079e-05)
(-0.0069813653 -0.025092429 1.8841348e-06)
(-0.0022589834 -0.013702859 5.0031546e-05)
(-0.00026414337 -0.0037760228 9.7590165e-05)
(-0.00050354288 0.0095672845 -4.0578403e-05)
(-0.0031932252 0.026444756 1.9035305e-05)
(-0.0086752697 0.040891437 6.0390493e-05)
(-0.016048249 0.052911739 9.0155585e-05)
(-0.024806992 0.062614429 0.000114659)
(-0.034617907 0.070158133 0.00013519702)
(-0.045186137 0.075720251 0.00015298766)
(-0.056260698 0.07947382 0.00016919417)
(-0.067632023 0.08157136 0.00018457989)
(-0.079120627 0.082135931 0.00019953267)
(-0.090567656 0.081258405 0.00021412231)
(-0.10182752 0.078999732 0.00022813872)
(-0.11276191 0.075396943 0.00024113177)
(-0.12323515 0.070471611 0.00025245583)
(-0.13311077 0.064239649 0.0002613187)
(-0.14224909 0.056721505 0.00026683601)
(-0.15050586 0.0479521 0.00026809277)
(-0.1577317 0.037990092 0.00026421243)
(-0.16377249 0.026926231 0.00025443292)
(-0.16847098 0.014890702 0.00023818705)
(-0.17166953 0.0020592982 0.00021518465)
(-0.17321484 -0.011341824 0.00018550182)
(-0.17296421 -0.025033173 0.00014962664)
(-0.17079405 -0.038681504 0.00010852987)
(-0.16661084 -0.051902743 6.3674116e-05)
(-0.16036399 -0.064269394 1.6992644e-05)
(-0.15206015 -0.075323539 -2.9182096e-05)
(-0.14177808 -0.084596396 -7.2245548e-05)
(-0.12968229 -0.091634884 -0.00010950171)
(-0.1160333 -0.096034781 -0.00013838688)
(-0.10119183 -0.097478758 -0.00015671599)
(-0.08561431 -0.095776033 -0.00016292166)
(-0.069837415 -0.090898864 -0.00015625079)
(-0.054450926 -0.083010082 -0.00013687742)
(-0.040060821 -0.072476036 -0.00010588264)
(-0.027246243 -0.059861152 -6.5139669e-05)
(-0.016507558 -0.04590321 -1.739911e-05)
(-0.0082136963 -0.031469612 3.4027867e-05)
(-0.002674294 -0.017501718 8.979334e-05)
(-0.00031729196 -0.0049938278 0.00014351292)
(-0.00052867281 0.011264463 2.8054824e-06)
(-0.0033476889 0.030870603 6.8594571e-05)
(-0.0090879189 0.047473289 0.00011189196)
(-0.016801343 0.061163176 0.00014319048)
(-0.025956519 0.072127273 0.00016925629)
(-0.036203676 0.080593677 0.00019155269)
(-0.047235647 0.086798561 0.00021142868)
(-0.058793453 0.090962436 0.00023014471)
(-0.070663725 0.093274438 0.00024851555)
(-0.082666656 0.093884373 0.00026694099)
(-0.094645807 0.092901288 0.00028546968)
(-0.10645997 0.090397168 0.00030384069)
(-0.11797641 0.08641433 0.00032152493)
(-0.12906539 0.080975181 0.00033776969)
(-0.1395959 0.074093133 0.00035164642)
(-0.14943237 0.065783789 0.00036210419)
(-0.15843235 0.05607579 0.00036803078)
(-0.16644498 0.045021001 0.00036832345)
(-0.17331049 0.032703919 0.00036196955)
(-0.17886078 0.019250284 0.00034813594)
(-0.18292143 0.0048348193 0.00032626507)
(-0.18531566 -0.010312108 0.00029617663)
(-0.1858703 -0.025899173 0.00025815238)
(-0.18442454 -0.041571278 0.00021302064)
(-0.18084157 -0.05690991 0.00016220304)
(-0.17502316 -0.07143828 0.00010772329)
(-0.16692685 -0.084632816 5.2159923e-05)
(-0.15658494 -0.095942548 -1.4687691e-06)
(-0.14412339 -0.10481755 -4.9892636e-05)
(-0.12977839 -0.11074666 -8.9845314e-05)
(-0.11390705 -0.11330325 -0.00011836862)
(-0.096988556 -0.1121955 -0.00013313247)
(-0.079612157 -0.10731563 -0.00013272564)
(-0.062449752 -0.09878034 -0.00011685966)
(-0.046214283 -0.086954161 -8.6412944e-05)
(-0.031607474 -0.072449243 -4.3343695e-05)
(-0.019253987 -0.05609877 9.1930009e-06)
(-0.0096330558 -0.038903605 6.7244951e-05)
(-0.0031578013 -0.021961487 0.00013147201)
(-0.00038078112 -0.0064355515 0.00019250065)
(-0.00054759159 0.013032957 5.839568e-05)
(-0.0034658101 0.035478806 0.0001306105)
(-0.0094062691 0.054322112 0.00017549498)
(-0.017386163 0.069744202 0.0002081684)
(-0.026854081 0.082014637 0.00023576684)
(-0.037447668 0.091435382 0.00025991086)
(-0.048850154 0.098305707 0.00028207191)
(-0.060796568 0.10289766 0.00030359938)
(-0.07307129 0.10544061 0.00032535502)
(-0.085495576 0.10611419 0.00034774911)
(-0.097916814 0.105048 0.00037080964)
(-0.11019976 0.10232673 0.00039422629)
(-0.12221908 0.097998888 0.00041739203)
(-0.13385309 0.092087784 0.00043944607)
(-0.14497865 0.084603523 0.00045931906)
(-0.15546703 0.075555131 0.00047578331)
(-0.16518054 0.06496226 0.00048751176)
(-0.17397012 0.052866267 0.00049314812)
(-0.18167366 0.039340657 0.00049139024)
(-0.18811551 0.02450099 0.00048108705)
(-0.19310747 0.0085143052 0.00046134781)
(-0.19645164 -0.0083920778 0.00043166115)
(-0.19794569 -0.025922696 0.0003920125)
(-0.19739108 -0.043708026 0.00034299722)
(-0.19460497 -0.061301523 0.00028590907)
(-0.18943585 -0.078181429 0.00022278979)
(-0.18178315 -0.093759423 0.00015641939)
(-0.17162019 -0.10739837 9.0227493e-05)
(-0.15901888 -0.11844127 2.8111194e-05)
(-0.14417372 -0.12625263 -2.5844665e-05)
(-0.12742093 -0.13027188 -6.7731727e-05)
(-0.10924796 -0.13007575 -9.4233053e-05)
(-0.090287853 -0.12544331 -0.00010303481)
(-0.071294159 -0.11641383 -9.3156662e-05)
(-0.053096018 -0.10332587 -6.5096449e-05)
(-0.036536142 -0.08682709 -2.0800832e-05)
(-0.022388258 -0.067848331 3.6163682e-05)
(-0.01126867 -0.047540037 0.00010110728)
(-0.0037218127 -0.02718251 0.00017467747)
(-0.0004569077 -0.0081393247 0.00024437592)
(-0.00055983735 0.014853027 0.00012667245)
(-0.0035452935 0.040221146 0.0002055675)
(-0.0096246904 0.06136983 0.00025167046)
(-0.017792588 0.078573333 0.00028555352)
(-0.027483799 0.092186266 0.0003146475)
(-0.038326709 0.10258745 0.0003407188)
(-0.049997353 0.1101426 0.00036535324)
(-0.062226501 0.11517876 0.00038998294)
(-0.074797585 0.11796889 0.00041551526)
(-0.087534081 0.1187254 0.00044237346)
(-0.10028842 0.117601 0.00047056973)
(-0.11293274 0.11469496 0.00049975038)
(-0.12535082 0.11006319 0.00052923622)
(-0.13743112 0.10373031 0.00055806235)
(-0.1490609 0.09570269 0.00058501866)
(-0.1601212 0.085981442 0.00060869509)
(-0.17048261 0.074574887 0.00062753586)
(-0.18000175 0.061510462 0.00063990692)
(-0.18851854 0.046846137 0.00064417965)
(-0.19585446 0.030681564 0.00063883293)
(-0.20181223 0.01316917 0.0006225739)
(-0.20617726 -0.0054748381 0.00059447575)
(-0.20872162 -0.024959821 0.00055412594)
(-0.20921118 -0.044911277 0.0005017753)
(-0.20741674 -0.064863807 0.0004384747)
(-0.20313002 -0.084258456 0.00036617708)
(-0.19618475 -0.10244697 0.00028778063)
(-0.18648305 -0.11870601 0.00020708512)
(-0.17402596 -0.13226453 0.00012863472)
(-0.15894561 -0.142347 5.7430175e-05)
(-0.14153488 -0.14823356 -1.4886292e-06)
(-0.12226828 -0.14933518 -4.3561201e-05)
(-0.10180659 -0.14527729 -6.5266357e-05)
(-0.080978154 -0.13598055 -6.4622875e-05)
(-0.060733469 -0.12172261 -4.1485934e-05)
(-0.042074005 -0.10316499 2.3772442e-06)
(-0.025950282 -0.081332553 6.3023849e-05)
(-0.01314814 -0.057540069 0.00013493666)
(-0.0043785629 -0.033279144 0.00021872834)
(-0.00054807894 -0.010149768 0.00029867507)
(-0.00056511602 0.016703878 0.00020790666)
(-0.0035847823 0.045047128 0.00029374133)
(-0.0097398774 0.068545072 0.00034068687)
(-0.018014405 0.087564608 0.00037560568)
(-0.027835223 0.10254593 0.00040614205)
(-0.038824325 0.11394628 0.00043419552)
(-0.05065255 0.12220018 0.00046145923)
(-0.063047789 0.12769258 0.00048944446)
(-0.075793537 0.13074309 0.00051910662)
(-0.088716401 0.1315999 0.00055088887)
(-0.10167486 0.13044146 0.00058479723)
(-0.11454969 0.12738382 0.00062044563)
(-0.12723536 0.12249182 0.00065709363)
(-0.1396325 0.11579228 0.00069368146)
(-0.15164131 0.10728792 0.00072886398)
(-0.16315576 0.096971135 0.00076104873)
(-0.17405849 0.084837175 0.00078844328)
(-0.18421633 0.070896742 0.00080911727)
(-0.19347646 0.055188249 0.00082108365)
(-0.20166339 0.037790076 0.00082240308)
(-0.2085771 0.018833184 0.00081131346)
(-0.21399283 -0.0014857673 0.00078638491)
(-0.21766316 -0.022890939 0.00074669772)
(-0.21932333 -0.045014121 0.0006920298)
(-0.2187007 -0.067383068 0.0006230477)
(-0.21552974 -0.089413269 0.00054147196)
(-0.20957354 -0.11040615 0.00045018974)
(-0.20065245 -0.12955746 0.00035327822)
(-0.18867973 -0.14598031 0.0002558984)
(-0.17370226 -0.15874736 0.00016402492)
(-0.15594222 -0.16695548 8.3993966e-05)
(-0.13583259 -0.169813 2.1883308e-05)
(-0.11403698 -0.16674426 -1.7217944e-05)
(-0.091442732 -0.15749874 -2.9928976e-05)
(-0.069120036 -0.14224441 -1.5092959e-05)
(-0.04824402 -0.12162157 2.5970656e-05)
(-0.029971599 -0.096735778 8.9046039e-05)
(-0.015296513 -0.06907702 0.00016772122)
(-0.0051400891 -0.040378678 0.00026255208)
(-0.00065684973 -0.012517978 0.00035454661)
(-0.00056338264 0.018564259 0.00030214315)
(-0.0035842848 0.049905365 0.000395188)
(-0.0097518705 0.075774949 0.000442601)
(-0.018051001 0.096629449 0.00047836922)
(-0.02790569 0.11299315 0.00051026539)
(-0.038933757 0.12540185 0.00054030886)
(-0.050802314 0.1343604 0.00057029505)
(-0.063237358 0.14031404 0.00060181467)
(-0.076023162 0.14363194 0.00063587842)
(-0.088990157 0.14460106 0.00067296139)
(-0.10200371 0.14342845 0.00071307829)
(-0.11495432 0.14024939 0.0007558268)
(-0.12774862 0.13513965 0.00080042141)
(-0.14030135 0.12812962 0.00084572211)
(-0.15252812 0.11921904 0.00089026035)
(-0.16433903 0.10839152 0.00093226788)
(-0.17563276 0.095628254 0.00096971494)