/*--------------------------------*- C++ -*----------------------------------*\
  =========                 |
  \\      /  F ield         | OpenFOAM: The Open Source CFD Toolbox
   \\    /   O peration     | Website:  https://openfoam.org
    \\  /    A nd           | Version:  7
     \\/     M anipulation  |
\*---------------------------------------------------------------------------*/
FoamFile
{
    version     2.0;
    format      ascii;
    class       volScalarField;
    location    "29";
    object      p;
}
// * * * * * * * * * * * * * * * * * * * * * * * * * * * * * * * * * * * * * //

dimensions      [0 2 -2 0 0 0 0];

internalField   nonuniform List<scalar> 
16000
(
8.7612132e-06
-0.00013150619
-0.00044299502
-0.00084535516
-0.0012635673
-0.0016522389
-0.0019804964
-0.0022294997
-0.0023886117
-0.002452127
-0.002417105
-0.0022820895
-0.0020465113
-0.0017106136
-0.0012757521
-0.0007449359
-0.00012347914
0.00058034854
0.0013547712
0.0021841399
0.0030488312
0.0039254834
0.0047876072
0.0056066066
0.0063531606
0.0069989017
0.007518283
0.0078905025
0.0081013417
0.0081447475
0.0080239778
0.0077521743
0.0073523439
0.0068568797
0.0063065762
0.005748961
0.0052391636
0.0048335662
0.0045938154
0.0045551318
0.00015338938
8.4830428e-06
-0.00024160122
-0.00055048114
-0.00087267693
-0.0011738789
-0.0014298406
-0.0016243811
-0.001747141
-0.0017916785
-0.0017540522
-0.0016318982
-0.001423964
-0.0011300195
-0.00075105458
-0.00028967155
0.00024942113
0.00085890927
0.001528454
0.002244421
0.0029898151
0.0037446152
0.0044861151
0.005189951
0.00583126
0.006386145
0.0068332983
0.0071556373
0.0073418216
0.0073875352
0.0072964166
0.007080504
0.0067600826
0.0063629508
0.0059232522
0.0054798827
0.0050739843
0.00474911
0.0045505896
0.004515362
0.00047205332
0.00025417006
-1.6661526e-06
-0.00028071243
-0.00056095595
-0.000817894
-0.0010337372
-0.001196426
-0.0012977541
-0.0013322028
-0.0012960535
-0.0011867719
-0.0010027178
-0.00074313908
-0.00040838447
-2.685033e-07
0.00047747662
0.0010187367
0.0016146154
0.0022531747
0.0029194086
0.00359537
0.0042607088
0.0048934316
0.0054709865
0.0059716221
0.0063759248
0.0066683848
0.0068388152
0.0068834839
0.0068058743
0.0066170137
0.0063352785
0.0059855802
0.005597973
0.0052058316
0.0048435964
0.0045454672
0.0043479593
0.0042807649
0.00089367118
0.00056241252
0.00026171985
-2.4065e-05
-0.00029466682
-0.00053381533
-0.00072994656
-0.0008758451
-0.00096643835
-0.00099803226
-0.00096781517
-0.0008734994
-0.0007132107
-0.00048561097
-0.00019019569
0.00017229033
0.00059937052
0.0010863419
0.0016258327
0.0022074908
0.0028178768
0.0034405369
0.0040565154
0.0046450406
0.0051845599
0.0056540425
0.0060344878
0.0063105178
0.0064718607
0.006514511
0.0064414183
0.0062626643
0.0059951485
0.0056617459
0.0052898639
0.0049094895
0.0045512109
0.004244773
0.0040167209
0.0038811111
0.0013444706
0.00088480318
0.00052164913
0.00021133436
-6.637399e-05
-0.00030243157
-0.00049116372
-0.00063030841
-0.00071820741
-0.00075329522
-0.00073391164
-0.00065815665
-0.00052394482
-0.00032926241
-7.2576559e-05
0.00024665561
0.00062742723
0.0010666182
0.0015584798
0.002094232
0.0026618467
0.0032460812
0.0038288472
0.0043899058
0.0049078953
0.0053616344
0.0057316351
0.0060017295
0.0061606545
0.0062033603
0.0061317967
0.0059550373
0.0056887807
0.0053543495
0.0049771978
0.0045850121
0.0042061612
0.0038677047
0.0035849991
0.0033613318
0.001771318
0.0011781905
0.0007435296
0.00039748226
0.00010092085
-0.00014336859
-0.00033507854
-0.0004766625
-0.00056981004
-0.00061509499
-0.00061202869
-0.00055908896
-0.00045392124
-0.0002937232
-7.5770228e-05
0.00020196192
0.00054012563
0.0009373316
0.001389532
0.0018895135
0.002426566
0.0029864147
0.0035514661
0.0041014644
0.0046145248
0.0050685019
0.0054425831
0.0057189887
0.0058846464
0.0059326589
0.0058633053
0.0056843175
0.0054103345
0.0050616746
0.0046626148
0.0042395175
0.0038199547
0.0034304993
0.003077984
0.0027506702
0.0021290107
0.0014040335
0.00089444819
0.00050621909
0.00018294985
-7.8028135e-05
-0.00028123075
-0.00043344018
-0.00053943981
-0.00060177202
-0.00062098516
-0.00059580677
-0.00052347725
-0.00040025575
-0.00022205689
1.4812704e-05
0.00031285812
0.00067259281
0.001091788
0.0015648376
0.0020823061
0.0026307482
0.0031928255
0.0037478836
0.0042729511
0.0047441737
0.0051385564
0.0054358369
0.005620311
0.0056824462
0.0056200925
0.0054390335
0.0051526404
0.0047805883
0.0043468205
0.0038774724
0.0034006397
0.002944128
0.0025079315
0.0020664023
0.0023789848
0.00152758
0.00094350749
0.00051033416
0.00015574988
-0.00012780433
-0.00034919654
-0.00051911363
-0.00064508989
-0.00073136115
-0.00077928138
-0.00078761916
-0.00075301106
-0.00067058384
-0.00053469904
-0.00033979607
-8.1307055e-05
0.00024340097
0.00063411936
0.0010870014
0.0015939582
0.00214236
0.0027150101
0.0032906357
0.0038448013
0.004351349
0.0047842747
0.0051198527
0.0053387502
0.0054278912
0.0053818827
0.0052038298
0.0049053205
0.0045053574
0.0040281789
0.0035008457
0.0029533859
0.0024164267
0.0018850161
0.0013225088
0.0024874322
0.0015171373
0.00086140722
0.0003829477
-5.3550842e-06
-0.00031557765
-0.00056055757
-0.00075448116
-0.00090726811
-0.00102453
-0.0011081508
-0.0011566939
-0.0011659603
-0.0011297167
-0.0010405447
-0.00089078604
-0.00067356669
-0.00038386651
-1.9582457e-05
0.000417489
0.00092085142
0.0014788549
0.0020744777
0.0026857387
0.0032864977
0.0038478494
0.0043400591
0.0047349132
0.0050082244
0.0051421411
0.0051269555
0.0049622248
0.0046570809
0.0042295123
0.0037043057
0.003110413
0.0024812759
0.00185201
0.0012140639
0.00052057282
0.0024238808
0.0013436249
0.0006205825
9.8014396e-05
-0.00032501954
-0.00066486628
-0.00093802736
-0.0011618252
-0.0013482169
-0.001503872
-0.0016309212
-0.0017274712
-0.0017882514
-0.0018054305
-0.0017695556
-0.0016705952
-0.0014990676
-0.0012472291
-0.00091028223
-0.0004875491
1.6499566e-05
0.00059162275
0.0012212052
0.0018826478
0.0025479837
0.0031852098
0.0037602307
0.0042393608
0.004592203
0.0047945443
0.0048308167
0.0046957659
0.0043951671
0.0039454585
0.0033719209
0.0027060388
0.001986049
0.0012533307
0.00049682354
-0.00034032833
0.0021605552
0.00098040856
0.00019543471
-0.00036911767
-0.00082706131
-0.0011988363
-0.0015043589
-0.0017637706
-0.0019907583
-0.0021927621
-0.002371896
-0.0025255731
-0.0026472313
-0.0027272147
-0.002753777
-0.0027142031
-0.0025960333
-0.0023883699
-0.0020832281
-0.0016768952
-0.0011712061
-0.00057427983
9.8156757e-05
0.00082327236
0.0015713617
0.0023070777
0.0029913718
0.0035841121
0.0040472809
0.0043484741
0.0044642217
0.0043825647
0.0041044955
0.003644052
0.0030267269
0.0022869041
0.0014687992
0.00062185072
-0.00026663873
-0.0012638118
0.0016722594
0.00040337154
-0.00043738758
-0.0010412227
-0.0015338036
-0.0019395115
-0.002281462
-0.0025823393
-0.0028573018
-0.0031143252
-0.0033552897
-0.0035767129
-0.003770549
-0.0039251155
-0.0040261305
-0.004057877
-0.0040044993
-0.0038514189
-0.0035868333
-0.003203239
-0.0026989132
-0.0020794487
-0.0013583645
-0.00055809691
0.00029031913
0.0011481939
0.0019710272
0.0027112355
0.0033216657
0.0037596942
0.0039914961
0.0039958371
0.0037667059
0.0033142471
0.0026635072
0.0018519142
0.00093070051
-4.0852313e-05
-0.0010764456
-0.0022542819
0.00093659355
-0.00040882244
-0.0012986157
-0.0019386859
-0.0024654231
-0.0029069933
-0.0032895127
-0.003637965
-0.0039687725
-0.0042902752
-0.00460397
-0.0049053375
-0.0051847022
-0.0054281874
-0.005618761
-0.0057374033
-0.0057644331
-0.0056810016
-0.0054707325
-0.0051214442
-0.0046269022
-0.0039887325
-0.0032174047
-0.0023337858
-0.0013693462
-0.00036568548
0.00062704553
0.0015528897
0.0023539248
0.0029750162
0.0033691202
0.0035025082
0.0033590401
0.002942515
0.0022761514
0.0014001944
0.00037383522
-0.00073194704
-0.0019314252
-0.0033150457
-6.5619503e-05
-0.0014743313
-0.0024059136
-0.0030789582
-0.0036392836
-0.0041186616
-0.0045460192
-0.0049484266
-0.0053434134
-0.0057395801
-0.0061379699
-0.0065329684
-0.006913197
-0.007262474
-0.0075608417
-0.0077857069
-0.0079131517
-0.0079194559
-0.0077828417
-0.0074854039
-0.0070151717
-0.0063682777
-0.005550767
-0.0045804241
-0.0034878043
-0.0023164413
-0.0011218107
3.1187458e-05
0.0010722843
0.0019312936
0.0025445986
0.0028620453
0.0028532733
0.0025121218
0.0018575064
0.00093154462
-0.00019788776
-0.001446112
-0.0028276181
-0.0044465955
-0.0013497964
-0.0028076706
-0.0037734002
-0.0044760086
-0.005069282
-0.0055883858
-0.0060648765
-0.0065277333
-0.0069954935
-0.0074769847
-0.0079728105
-0.0084762966
-0.0089743862
-0.0094485681
-0.0098758525
-0.010229851
-0.010482037
-0.010603244
-0.010565463
-0.010343938
-0.0099195241
-0.0092812449
-0.0084287998
-0.007374979
-0.0061475716
-0.0047904627
-0.0033634447
-0.0019402927
-0.00060480233
0.00055523855
0.0014558351
0.0020256576
0.0022149148
0.0020025158
0.0013991851
0.00044683731
-0.00077776825
-0.0021741625
-0.0037566498
-0.0056448275
-0.0029270301
-0.0044192538
-0.0054111988
-0.006139818
-0.0067652421
-0.0073257822
-0.0078554538
-0.0083850137
-0.0089339768
-0.0095114468
-0.010117689
-0.010745101
-0.01137908
-0.011998872
-0.012578456
-0.013087515
-0.013492608
-0.013758609
-0.013850498
-0.013735558
-0.01338598
-0.012781843
-0.011914297
-0.010788751
-0.0094277891
-0.0078733734
-0.0061878019
-0.0044527908
-0.0027660756
-0.0012351795
3.1571083e-05
0.00093615261
0.0014028475
0.0013890247
0.00089155288
-5.1508273e-05
-0.0013552675
-0.0029015142
-0.0047038817
-0.006899034
-0.0048035779
-0.0063150095
-0.0073250794
-0.008075971
-0.0087324063
-0.009335562
-0.0099217628
-0.010523469
-0.01116123
-0.011844573
-0.012573626
-0.013340092
-0.014128056
-0.014914731
-0.01567119
-0.016363188
-0.016952187
-0.017396692
-0.017653989
-0.017682379
-0.017443964
-0.016907988
-0.016054681
-0.014879286
-0.013396153
-0.011642266
-0.0096796752
-0.0075960273
-0.0055023038
-0.0035269899
-0.0018063189
-0.00047093823
0.00036975673
0.00064306466
0.00032408014
-0.00055877929
-0.0019147356
-0.0036063988
-0.0056462531
-0.008189546
-0.0069804756
-0.0084961429
-0.0095162622
-0.010285418
-0.010971093
-0.011617035
-0.012261768
-0.012939463
-0.013671861
-0.014469176
-0.015331719
-0.016250839
-0.017209651
-0.018183651
-0.019141263
-0.020044462
-0.020849602
-0.021508577
-0.021970462
-0.022183723
-0.022099101
-0.021673239
-0.020873056
-0.019680693
-0.018098756
-0.016155437
-0.01390874
-0.01144894
-0.0088981243
-0.006405555
-0.0041379133
-0.0022641701
-0.0009360264
-0.00026676592
-0.000313722
-0.0010667708
-0.0024337338
-0.004257677
-0.006549689
-0.0094848925
-0.0094533528
-0.010959113
-0.011981448
-0.012764473
-0.013476587
-0.014163834
-0.014866909
-0.015621814
-0.016451771
-0.017368075
-0.018371667
-0.019454003
-0.020597678
-0.021776885
-0.02295777
-0.024098821
-0.025151441
-0.026060899
-0.02676778
-0.027210112
-0.027326271
-0.02705878
-0.026359082
-0.025193349
-0.023548741
-0.021440292
-0.018917165
-0.016067551
-0.013020738
-0.0099446443
-0.0070371684
-0.0045102067
-0.0025665138
-0.0013721134
-0.0010304257
-0.0015619305
-0.0028807886
-0.0048120842
-0.0073659125
-0.010738323
-0.012212522
-0.013695896
-0.014713145
-0.015505104
-0.016239329
-0.01696394
-0.01772191
-0.018551379
-0.019477512
-0.020513237
-0.021660708
-0.022912067
-0.024249939
-0.025647721
-0.02706974
-0.028471388
-0.029799444
-0.030992739
-0.03198338
-0.03269869
-0.033064049
-0.033006721
-0.032460871
-0.0313744
-0.029715278
-0.027480854
-0.024705984
-0.021470761
-0.01790585
-0.014193304
-0.010560453
-0.007264573
-0.0045672233
-0.0027001467
-0.0018293507
-0.0020225349
-0.0032123916
-0.0052107511
-0.0080285027
-0.011883533
-0.015243405
-0.016694618
-0.017700364
-0.018495591
-0.019245447
-0.020000028
-0.020804925
-0.021700983
-0.022716028
-0.023865371
-0.025153108
-0.026572754
-0.028107592
-0.029730794
-0.031405376
-0.033084104
-0.034709547
-0.036214468
-0.037522757
-0.038551131
-0.039211784
-0.039416115
-0.03907974
-0.038130895
-0.036514789
-0.034206932
-0.031222244
-0.027625828
-0.023542162
-0.019160306
-0.014731995
-0.010559042
-0.0069671202
-0.0042661226
-0.0027032184
-0.0024144841
-0.0033689956
-0.0053748371
-0.0084480494
-0.012829451
-0.018527359
-0.01994062
-0.020929751
-0.021721585
-0.022477658
-0.023250169
-0.024088016
-0.025035715
-0.026124813
-0.027374018
-0.028790271
-0.030369236
-0.032095519
-0.033942649
-0.035872842
-0.037836709
-0.039773067
-0.041609066
-0.043260836
-0.044634888
-0.045630501
-0.046143421
-0.046071035
-0.045317592
-0.04380652
-0.04148728
-0.038349467
-0.034436098
-0.029856748
-0.024797994
-0.019527405
-0.01438619
-0.0097653607
-0.0060629324
-0.0036263483
-0.002685304
-0.0032697072
-0.0052000729
-0.0085062515
-0.013453956
-0.022042948
-0.023418042
-0.024387241
-0.025167637
-0.025916567
-0.026688858
-0.027537946
-0.028513553
-0.029652475
-0.030978169
-0.032501521
-0.034221196
-0.03612378
-0.038183665
-0.040362701
-0.042609737
-0.044860245
-0.047036212
-0.049046538
-0.050788134
-0.052148001
-0.053006597
-0.053242651
-0.052739304
-0.051394185
-0.049129005
-0.045904085
-0.041733946
-0.036704338
-0.030988325
-0.024857523
-0.018682597
-0.012915543
-0.008047735
-0.0045441674
-0.0027560248
-0.0028053949
-0.0045499959
-0.0080487855
-0.013596413
-0.02576776
-0.027112045
-0.028060316
-0.028819234
-0.029542339
-0.03028831
-0.031117187
-0.032086232
-0.033239631
-0.034607351
-0.036205533
-0.038036745
-0.040090127
-0.042341295
-0.044751969
-0.047269446
-0.049826092
-0.052339074
-0.054710535
-0.056828444
-0.058568361
-0.059796414
-0.060373698
-0.060162383
-0.059035195
-0.056884904
-0.05364001
-0.049281622
-0.043863698
-0.037534505
-0.030555775
-0.023313249
-0.016309135
-0.010126455
-0.0053601602
-0.0025107722
-0.0018299819
-0.0032476598
-0.0068767419
-0.013048897
-0.029680896
-0.031011838
-0.031941
-0.032665368
-0.033336713
-0.034019941
-0.034785028
-0.035700207
-0.03681999
-0.038183058
-0.039812303
-0.041715077
-0.043883484
-0.046294462
-0.048909537
-0.051674343
-0.054518098
-0.057353241
-0.060075456
-0.062564305
-0.064684727
-0.066289631
-0.067223869
-0.067329919
-0.066456647
-0.064468735
-0.061262098
-0.056781621
-0.051043539
-0.044161334
-0.036372532
-0.028060513
-0.019760767
-0.012137841
-0.0059209966
-0.0017841646
-0.00014976419
-0.0010655891
-0.0047363622
-0.011545891
-0.033766394
-0.035114863
-0.036029828
-0.036701734
-0.037285276
-0.037855872
-0.038498593
-0.039297562
-0.040321475
-0.041620388
-0.043225522
-0.045149729
-0.047388183
-0.04991885
-0.05270257
-0.055682777
-0.058785088
-0.061916942
-0.06496754
-0.067808311
-0.070294195
-0.072265895
-0.073553494
-0.073981751
-0.073376446
-0.071577007
-0.068447609
-0.063896429
-0.057898856
-0.050526326
-0.041979508
-0.032621223
-0.022998807
-0.01383972
-0.006001367
-0.00034706822
0.0024892868
0.0022863113
-0.001306649
-0.0087521146
-0.038018108
-0.039432685
-0.040341167
-0.040934647
-0.04137992
-0.041770256
-0.042213579
-0.042816665
-0.043667262
-0.044829782
-0.046345222
-0.04823226
-0.050488717
-0.053092741
-0.056003431
-0.059160957
-0.062486383
-0.065881415
-0.069228334
-0.072390316
-0.075212589
-0.077524352
-0.079141978
-0.079873739
-0.079526161
-0.077914118
-0.074872804
-0.070275461
-0.064056502
-0.05624171
-0.046985793
-0.036614769
-0.025664774
-0.014900821
-0.0052909227
0.0021081709
0.0064160478
0.0071752888
0.0038159104
-0.0042476727
-0.042447035
-0.043999609
-0.044910536
-0.045385902
-0.045621386
-0.045740228
-0.045884473
-0.046192437
-0.046776639
-0.047718807
-0.049070642
-0.050856224
-0.053074789
-0.05570304
-0.058696605
-0.061990704
-0.065500362
-0.06912032
-0.072725051
-0.076168906
-0.079287248
-0.08189802
-0.083804601
-0.08480006
-0.084673149
-0.08321697
-0.080240554
-0.075585215
-0.069146703
-0.06090525
-0.050965118
-0.039603648
-0.027324602
-0.014901847
-0.0033865632
0.0059810851
0.012050183
0.014063346
0.011136896
0.0024911726
-0.047093103
-0.048885812
-0.049804943
-0.050098872
-0.05002179
-0.049746255
-0.0494641
-0.04935615
-0.049565698
-0.050194031
-0.051303324
-0.052921375
-0.055046442
-0.057651153
-0.06068513
-0.064076302
-0.067731613
-0.071537124
-0.075358506
-0.079039764
-0.082406106
-0.08526392
-0.087403693
-0.088603894
-0.08863668
-0.087275058
-0.084304595
-0.079537997
-0.072835957
-0.064136018
-0.053491955
-0.041126136
-0.027493654
-0.013349444
0.00020585572
0.011772063
0.019918563
0.023528893
0.021290328
0.012119281
-0.052045306
-0.054218137
-0.055137868
-0.055146232
-0.054606988
-0.053771654
-0.052902396
-0.052234806
-0.051948005
-0.052163138
-0.052950509
-0.05433806
-0.056319099
-0.05885833
-0.061896143
-0.065349865
-0.069116027
-0.07306978
-0.077067894
-0.080940161
-0.084502204
-0.087547973
-0.089854542
-0.091185633
-0.091297801
-0.089943639
-0.086887238
-0.081915369
-0.074857014
-0.065610843
-0.054182918
-0.040739303
-0.02567628
-0.0097064872
0.0060552948
0.020082266
0.030670091
0.036293742
0.035076309
0.025465674
-0.05747798
-0.060213985
-0.061091217
-0.060639615
-0.059418351
-0.057800914
-0.056144292
-0.054750191
-0.053835357
-0.053537315
-0.053928779
-0.055031589
-0.056828196
-0.059270078
-0.062285098
-0.065774924
-0.069624093
-0.073694894
-0.07782955
-0.081848686
-0.085553401
-0.088724682
-0.091125704
-0.092504912
-0.092600882
-0.091148464
-0.087889278
-0.08258456
-0.07503343
-0.065098345
-0.05274044
-0.038070392
-0.021420122
-0.0034420404
0.01476854
0.031597377
0.04508461
0.053256492
0.05351686
0.043607629
-0.063718812
-0.067237565
-0.067947183
-0.066740839
-0.064512826
-0.061815892
-0.059126151
-0.056817243
-0.05513834
-0.054233547
-0.054167377
-0.054945971
-0.05653295
-0.058860429
-0.061836311
-0.065346814
-0.069259155
-0.073420839
-0.077659672
-0.081783162
-0.085578413
-0.088812418
-0.091233483
-0.092573814
-0.092553767
-0.090888106
-0.08729512
-0.081509485
-0.0732993
-0.06249001
-0.04899756
-0.032875755
-0.014386335
0.0058949321
0.026924513
0.047044925
0.064067646
0.075531336
0.07793954
0.068005429
-0.071380988
-0.075893691
-0.076132569
-0.073672428
-0.069958322
-0.065787488
-0.061768908
-0.058340172
-0.055765152
-0.054175228
-0.053609689
-0.054045583
-0.055416788
-0.05762888
-0.060565386
-0.064091664
-0.068056051
-0.072289431
-0.076604335
-0.080793803
-0.084630696
-0.087867485
-0.090237035
-0.091454616
-0.091221542
-0.089230784
-0.085175106
-0.078759726
-0.069717494
-0.05783144
-0.042965365
-0.025107925
-0.004438953
0.018570312
0.042965019
0.067105202
0.088610966
0.10448346
0.11010502
0.1007609
-0.081631608
-0.08718183
-0.08627036
-0.08171641
-0.075814726
-0.069654882
-0.063961294
-0.059200585
-0.055613661
-0.053286831
-0.052209487
-0.052310979
-0.053484256
-0.055599531
-0.058511126
-0.06206011
-0.066074362
-0.070367196
-0.074735507
-0.078957878
-0.082793139
-0.085979497
-0.088234612
-0.089256876
-0.088728278
-0.086318962
-0.081693777
-0.074524772
-0.064502909
-0.051358752
-0.034889449
-0.014997598
0.0082488999
0.034515581
0.063013722
0.092226236
0.11966022
0.14172282
0.15240476
0.14512498
-0.096759964
-0.10273828
-0.099198053
-0.091155372
-0.082062632
-0.073261588
-0.065507942
-0.059217125
-0.05454031
-0.051469518
-0.049910315
-0.049723113
-0.050745948
-0.052806112
-0.055724609
-0.059316394
-0.063388461
-0.067736922
-0.072143904
-0.076374691
-0.080175409
-0.083271414
-0.085366588
-0.086143758
-0.085266671
-0.082382868
-0.077128347
-0.069138633
-0.058055704
-0.043544815
-0.025315262
-0.0031507884
0.023041528
0.053141956
0.086634019
0.12228367
0.15778152
0.18895233
0.20809854
0.20632837
-0.12133952
-0.12518716
-0.11587293
-0.10208104
-0.088417162
-0.076198139
-0.066005603
-0.058052075
-0.052291165
-0.048550094
-0.04660825
-0.046232884
-0.047194664
-0.049272584
-0.052252901
-0.055925199
-0.060077423
-0.064490834
-0.068935384
-0.073165742
-0.076918111
-0.079907861
-0.081828028
-0.082348829
-0.081118768
-0.077764473
-0.071895888
-0.06311034
-0.05099616
-0.035141751
-0.01514534
0.0093696346
0.038726078
0.07313035
0.11252045
0.15626326
0.20263155
0.24752381
0.28130161
0.29235721
-0.16445696
-0.1584327
-0.1371482
-0.11415728
-0.094107133
-0.077631035
-0.064737714
-0.055161633
-0.04848976
-0.044291424
-0.042172741
-0.041787321
-0.042832371
-0.045039622
-0.048164721
-0.051977048
-0.056250778
-0.060757329
-0.065259148
-0.069504695
-0.073224531
-0.076128326
-0.077902765
-0.07821052
-0.076690511
-0.072947775
-0.066577685
-0.057140595
-0.044172301
-0.02718029
-0.0056359555
0.021035399
0.053464738
0.092332244
0.13829689
0.19182754
0.25266865
0.31751206
0.37626921
0.41537139
-0.24629383
-0.20631787
-0.16213017
-0.12552882
-0.097143588
-0.075878108
-0.060487493
-0.049752289
-0.042660199
-0.038436164
-0.036490302
-0.036365348
-0.037697318
-0.040185128
-0.04356723
-0.047604212
-0.052065906
-0.056721699
-0.061333147
-0.065648298
-0.06939733
-0.072289267
-0.074009639
-0.074219861
-0.072558532
-0.068605557
-0.061961661
-0.052155842
-0.038682851
-0.020981043
0.0015963318
0.029825914
0.064687105
0.10746564
0.15987189
0.22417867
0.30290633
0.39553306
0.49624429
0.60321318
-0.42543859
-0.26572997
-0.17722119
-0.12463581
-0.089116443
-0.065102578
-0.049323789
-0.039185268
-0.032983661
-0.029674053
-0.028570694
-0.02918674
-0.031156812
-0.034189887
-0.038037601
-0.042473319
-0.047278159
-0.052231187
-0.057102244
-0.061646547
-0.06560059
-0.068678968
-0.070571649
-0.070940534
-0.069407825
-0.065629702
-0.059132255
-0.049452708
-0.036074626
-0.01840305
0.0042720449
0.032848013
0.068543491
0.11314295
0.16943755
0.24201811
0.33806701
0.46591676
0.64305558
0.92086315
-0.79331255
-0.32444178
-0.14899703
-0.087724991
-0.055345398
-0.035999098
-0.025091135
-0.019200587
-0.016355118
-0.015618694
-0.016493929
-0.018653742
-0.02185286
-0.025888225
-0.030575239
-0.035733634
-0.04117885
-0.046716098
-0.052135806
-0.057209993
-0.061689316
-0.065300712
-0.067745717
-0.06870075
-0.067824348
-0.064707789
-0.058941607
-0.050072261
-0.037593192
-0.020926946
0.0006109203
0.027881632
0.062059345
0.10491396
0.15945193
0.2315286
0.33385206
0.49409282
0.79001698
1.3837789
1.2337903e-05
-0.00013052433
-0.00044271719
-0.00084527712
-0.0012636828
-0.0016524853
-0.0019808288
-0.0022298927
-0.0023890476
-0.0024525916
-0.0024175862
-0.0022825761
-0.0020469923
-0.0017110784
-0.0012761909
-0.0007453383
-0.00012383267
0.00058005815
0.0013545567
0.0021840101
0.0030487909
0.0039255368
0.0047877605
0.0056068654
0.0063535226
0.0069993507
0.0075187919
0.0078910462
0.008101907
0.0081453268
0.0080245487
0.0077526879
0.007352745
0.0068571448
0.0063067299
0.0057490495
0.0052391601
0.0048333805
0.0045934039
0.0045549131
0.00015427495
9.0061806e-06
-0.00024114815
-0.00055000639
-0.00087216565
-0.0011733167
-0.0014292304
-0.0016237366
-0.0017464775
-0.001791011
-0.0017533955
-0.0016312663
-0.0014233692
-0.0011294733
-0.00075056926
-0.00028926119
0.00024974241
0.0008591309
0.0015285693
0.0022444253
0.0029897024
0.0037443767
0.0044857476
0.0051894627
0.0058306717
0.0063854808
0.0068325738
0.0071548584
0.0073410006
0.0073867095
0.0072956438
0.0070798272
0.0067595012
0.0063624366
0.0059228057
0.0054795617
0.0050738627
0.0047491018
0.0045505129
0.0045154318
0.00047254232
0.00025444602
-1.3468943e-06
-0.00028044498
-0.00056075943
-0.00081773653
-0.0010336049
-0.0011963145
-0.0012976601
-0.0013321241
-0.0012959891
-0.0011867227
-0.0010026845
-0.00074312091
-0.0004083793
-2.7555698e-07
0.00047745539
0.0010186988
0.0016145617
0.0022531108
0.0029193414
0.0035953018
0.0042606348
0.0048933445
0.0054708875
0.0059715254
0.0063758471
0.006668326
0.0068387521
0.006883392
0.0068057596
0.0066169151
0.0063352236
0.0059855408
0.0055978838
0.0052056701
0.0048434301
0.0045453529
0.0043478352
0.0042807554
0.00089416422
0.00056247846
0.00026197288
-2.3835465e-05
-0.00029452919
-0.0005337252
-0.00072988788
-0.00087581451
-0.00096643108
-0.00099804354
-0.00096784118
-0.00087353798
-0.00071326137
-0.00048567291
-0.00019026562
0.00017221742
0.00059929829
0.0010862704
0.0016257602
0.0022074183
0.002817811
0.0034404885
0.00405649
0.0046450319
0.0051845546
0.0056540352
0.006034491
0.0063105514
0.0064719247
0.006514573
0.0064414377
0.0062626383
0.0059951202
0.005661752
0.0052898768
0.0049094362
0.004551063
0.0042445951
0.0040165774
0.0038809989
0.0013450161
0.00088465958
0.0005218695
0.00021159237
-6.6198569e-05
-0.00030228185
-0.00049102638
-0.00063018758
-0.0007181032
-0.00075320661
-0.00073383741
-0.00065809554
-0.00052389724
-0.00032923071
-7.2562603e-05
0.00024665311
0.00062741233
0.0010665939
0.0015584447
0.0020941809
0.0026617772
0.0032459992
0.0038287657
0.004389834
0.004907828
0.0053615547
0.0057315336
0.0060016214
0.0061605703
0.0062033109
0.0061317509
0.0059549484
0.0056886435
0.0053542163
0.0049771184
0.004584959
0.0042060499
0.0038675569
0.0035849688
0.0033611209
0.0017719542
0.0011778586
0.00074371541
0.00039774263
0.00010108732
-0.00014322178
-0.00033493614
-0.00047653248
-0.00056969394
-0.00061499321
-0.0006119418
-0.00055901606
-0.00045386093
-0.00029367619
-7.5739797e-05
0.00020197274
0.00054011768
0.0009373098
0.0013895011
0.0018894729
0.0024265092
0.0029863362
0.0035513707
0.004101368
0.0046144418
0.0050684288
0.0054424982
0.0057188752
0.005884518
0.0059325535
0.0058632424
0.0056842658
0.0054102398
0.0050615285
0.0046624743
0.004239422
0.0038198455
0.003430386
0.0030780436
0.0027503563
0.0021297484
0.0014035352
0.00089460752
0.00050648065
0.00018310034
-7.7896001e-05
-0.00028109869
-0.00043331871
-0.00053933042
-0.00060167479
-0.00062090203
-0.0005957388
-0.00052342308
-0.00040021321
-0.0002220263
1.4827599e-05
0.00031285325
0.00067256842
0.0010917501
0.0015647938
0.0020822578
0.0026306876
0.0031927435
0.0037477826
0.0042728494
0.0047440915
0.0051384932
0.0054357664
0.0056202075
0.0056823194
0.0056199851
0.005438971
0.0051525916
0.0047804986
0.004346688
0.0038773393
0.0034004912
0.0029440257
0.0025081014
0.0020660157
0.0023798247
0.001526933
0.00094364925
0.00051060408
0.00015589289
-0.00012767789
-0.00034906552
-0.00051899155
-0.00064497858
-0.00073125946
-0.00077919094
-0.00078754305
-0.00075295086
-0.00067053801
-0.00053466471
-0.00033977295
-8.1299259e-05
0.0002433878
0.00063408407
0.0010869507
0.0015939028
0.0021423039
0.0027149453
0.0032905489
0.003844691
0.0043512348
0.0047841832
0.0051197878
0.005338683
0.005427789
0.0053817512
0.0052037133
0.0049052458
0.0045052955
0.0040280876
0.0035007143
0.0029531958
0.0024163128
0.0018852927
0.0013220399
0.0024883722
0.0015163572
0.00086153713
0.00038322904
-5.2158415e-06
-0.00031545347
-0.00056042412
-0.00075435501
-0.00090715255
-0.0010244233
-0.0011080527
-0.0011566068
-0.0011658881
-0.0011296617
-0.0010405055
-0.00089075882
-0.00067355004
-0.00038386458
-1.9602697e-05
0.00041744342
0.00092078769
0.0014787861
0.0020744122
0.0026856689
0.0032864062
0.00384773
0.0043399314
0.0047348088
0.0050081522
0.0051420717
0.0051268524
0.0049620914
0.0046569589
0.0042294268
0.0037042363
0.0031103088
0.002481069
0.0018518815
0.0012144372
0.00052001133
0.0024249162
0.0013427263
0.00062070511
9.8308862e-05
-0.00032488225
-0.00066474341
-0.00093789084
-0.0011616935
-0.0013480953
-0.0015037601
-0.0016308179
-0.0017273761
-0.0017881671
-0.0018053617
-0.0017695057
-0.0016705631
-0.0014990486
-0.0012472199
-0.00091028654
-0.00048757573
1.6445522e-05
0.00059154543
0.0012211218
0.0018825712
0.0025479082
0.003185115
0.0037601054
0.0042392232
0.0045920877
0.0047944636
0.0048307421
0.0046956611
0.0043950348
0.0039453377
0.0033718376
0.0027059497
0.0019858408
0.0012532022
0.00049730023
-0.00034099379
0.0021616794
0.00097940541
0.00019555395
-0.00036880811
-0.00082692317
-0.0011987131
-0.001504219
-0.0017636328
-0.0019906283
-0.0021926414
-0.0023717857
-0.0025254718
-0.0026471382
-0.002727132
-0.0027537104
-0.0027141573
-0.002596008
-0.0023883593
-0.0020832269
-0.0016769051
-0.0011712358
-0.00057434286
9.8066329e-05
0.00082317376
0.0015712722
0.0023069943
0.0029912728
0.0035839829
0.0040471375
0.0043483514
0.0044641328
0.0043824825
0.0041043872
0.0036439249
0.0030266221
0.0022868061
0.0014685797
0.00062173036
-0.0002660397
-0.0012645919
0.0016734645
0.00040227753
-0.00043726904
-0.0010408969
-0.0015336614
-0.0019393852
-0.0022813174
-0.0025821955
-0.002857163
-0.0031141931
-0.0033551678
-0.0035766025
-0.0037704486
-0.0039250232
-0.0040260482
-0.004057811
-0.0040044562
-0.0038513994
-0.0035868309
-0.0032032464
-0.0026989321
-0.002079487
-0.0013584355
-0.00055819893
0.00029020582
0.0011480903
0.0019709336
0.0027111306
0.0033215334
0.003759549
0.0039913704
0.0039957414
0.0037666147
0.0033141387
0.0026634022
0.0018518031
0.00093045228
-4.0970425e-05
-0.0010757049
-0.0022551886
0.00093787051
-0.00040999269
-0.0012984961
-0.0019383443
-0.0024652747
-0.0029068607
-0.003289361
-0.0036378146
-0.0039686261
-0.0042901323
-0.0046038339
-0.0049052127
-0.0051845904
-0.0054280869
-0.0056186688
-0.0057373206
-0.0057643666
-0.0056809596
-0.0054707175
-0.0051214501
-0.0046269206
-0.0039887578
-0.0032174491
-0.002333864
-0.0013694585
-0.00036581197
0.0006269282
0.0015527847
0.0023538127
0.0029748821
0.0033689774
0.0035023835
0.0033589382
0.0029424194
0.0022760636
0.0014000843
0.00037355278
-0.00073207185
-0.0019305258
-0.0033160979
-6.4281228e-05
-0.0014755618
-0.0024057909
-0.0030786021
-0.0036391286
-0.0041185209
-0.0045458574
-0.0049482667
-0.0053432589
-0.0057394283
-0.0061378213
-0.006532827
-0.0069130678
-0.0072623597
-0.0075607402
-0.0077856144
-0.0079130681
-0.0079193881
-0.0077827998
-0.0074853927
-0.0070151856
-0.006368304
-0.0055508016
-0.0045804771
-0.0034878909
-0.0023165631
-0.0011219485
3.1057867e-05
0.0010721681
0.0019311749
0.0025444658
0.0028619091
0.0028531511
0.0025120198
0.001857432
0.00093144637
-0.00019819995
-0.0014462448
-0.0028265389
-0.0044478202
-0.0013484094
-0.0028089447
-0.0037732718
-0.0044756389
-0.0050691203
-0.0055882373
-0.0060647036
-0.0065275611
-0.0069953277
-0.0074768235
-0.0079726523
-0.0084761419
-0.0089742387
-0.0094484336
-0.0098757347
-0.010229749
-0.010481944
-0.01060316
-0.010565395
-0.010343897
-0.0099195167
-0.009281266
-0.0084288369
-0.0073750257
-0.0061476362
-0.0047905596
-0.0033635759
-0.0019404397
-0.00060494174
0.00055511342
0.0014557132
0.0020255301
0.0022147865
0.0020024029
0.0013991133
0.00044674826
-0.00077810972
-0.0021742993
-0.0037553609
-0.0056462555
-0.0029256084
-0.0044205553
-0.0054110629
-0.0061394347
-0.0067650724
-0.0073256259
-0.0078552709
-0.0083848287
-0.0089337968
-0.0095112726