/*--------------------------------*- C++ -*----------------------------------*\
  =========                 |
  \\      /  F ield         | OpenFOAM: The Open Source CFD Toolbox
   \\    /   O peration     | Website:  https://openfoam.org
    \\  /    A nd           | Version:  7
     \\/     M anipulation  |
\*---------------------------------------------------------------------------*/
FoamFile
{
    version     2.0;
    format      ascii;
    class       surfaceScalarField;
    location    "29";
    object      phi;
}
// * * * * * * * * * * * * * * * * * * * * * * * * * * * * * * * * * * * * * //

dimensions      [0 3 -1 0 0 0 0];

internalField   nonuniform List<scalar> 
45600
(
2.7496571e-07
-2.8244283e-07
-8.4040726e-11
4.0323309e-07
-1.2824089e-07
-2.650841e-11
1.3250574e-07
2.7073495e-07
-7.5009553e-12
-5.6233821e-07
6.948463e-07
-2.1068855e-12
-1.639327e-06
1.076986e-06
3.1199081e-12
-3.0276304e-06
1.3882972e-06
6.6532884e-12
-4.6524683e-06
1.6248295e-06
8.9729187e-12
-6.4450972e-06
1.7926189e-06
1.0611278e-11
-8.3454208e-06
1.9003125e-06
1.1769812e-11
-1.0301437e-05
1.9560046e-06
1.2542846e-11
-1.2267394e-05
1.9659441e-06
1.2991807e-11
-1.4201571e-05
1.9341639e-06
1.3139076e-11
-1.6064226e-05
1.8626419e-06
1.2986709e-11
-1.7816013e-05
1.7517734e-06
1.254914e-11
-1.9417038e-05
1.601013e-06
1.184652e-11
-2.0826641e-05
1.4095916e-06
1.0864075e-11
-2.2003889e-05
1.1772377e-06
9.5443822e-12
-2.290875e-05
9.0485178e-07
7.8398342e-12
-2.3503848e-05
5.9509099e-07
5.7912435e-12
-2.375668e-05
2.5282844e-07
3.5048366e-12
-2.364212e-05
-1.1456145e-07
1.0886238e-12
-2.314499e-05
-4.9712773e-07
-1.4420362e-12
-2.2262558e-05
-8.8242761e-07
-4.139625e-12
-2.1006604e-05
-1.2559489e-06
-6.9867154e-12
-1.9404851e-05
-1.6017438e-06
-9.7736902e-12
-1.7501544e-05
-1.9032935e-06
-1.2120756e-11
-1.535696e-05
-2.1445681e-06
-1.3739462e-11
-1.3045748e-05
-2.3111958e-06
-1.4678567e-11
-1.0654094e-05
-2.3916395e-06
-1.5261251e-11
-8.2758103e-06
-2.3782708e-06
-1.5640094e-11
-6.0075635e-06
-2.2682336e-06
-1.5411114e-11
-3.9435309e-06
-2.0640169e-06
-1.3866132e-11
-2.1697863e-06
-1.7737289e-06
-1.0831178e-11
-7.585407e-07
-1.411236e-06
-7.1581691e-12
2.3821163e-07
-9.9675215e-07
-4.1519488e-12
7.965466e-07
-5.5834047e-07
-2.3894727e-12
9.292729e-07
-1.3272639e-07
9.3564874e-14
7.0557569e-07
2.2369998e-07
5.0128789e-12
2.9045961e-07
4.1511607e-07
1.1111267e-11
2.9045687e-07
5.5221049e-12
1.3278825e-07
-4.1520714e-07
-2.3908662e-11
-3.0178133e-07
3.0634417e-07
-1.5172291e-11
-1.6154735e-06
1.5844408e-06
-1.3140275e-11
-3.8747582e-06
2.9541454e-06
-1.376874e-11
-7.0073746e-06
4.2096182e-06
-1.4828343e-11
-1.087977e-05
5.2607094e-06
-1.6305811e-11
-1.5335171e-05
6.0802496e-06
-1.7696966e-11
-2.0215998e-05
6.673466e-06
-1.8692326e-11
-2.5374047e-05
7.0583815e-06
-1.9242784e-11
-3.0673251e-05
7.2552286e-06
-1.9358323e-11
-3.5988511e-05
7.2812226e-06
-1.9046064e-11
-4.1202792e-05
7.1484627e-06
-1.8327723e-11
-4.6203929e-05
6.8637955e-06
-1.7249022e-11
-5.0882051e-05
6.4299106e-06
-1.5840254e-11
-5.5128178e-05
5.8471529e-06
-1.4075291e-11
-5.8834261e-05
5.115685e-06
-1.1901458e-11
-6.1894742e-05
4.2377267e-06
-9.3179389e-12
-6.4209546e-05
3.2196612e-06
-6.4278064e-12
-6.5688294e-05
2.0738419e-06
-3.3424084e-12
-6.6255404e-05
8.1993725e-07
-1.2501494e-13
-6.5855919e-05
-5.1405e-07
3.2665362e-12
-6.4460747e-05
-1.8923078e-06
6.9163832e-12
-6.2072419e-05
-3.2707655e-06
1.0657006e-11
-5.8729035e-05
-4.5993454e-06
1.4159864e-11
-5.4507027e-05
-5.8237668e-06
1.7061723e-11
-4.9521863e-05
-6.8884776e-06
1.9261964e-11
-4.3926361e-05
-7.7400924e-06
2.1010801e-11
-3.7906421e-05
-8.3311594e-06
2.2590436e-11
-3.167412e-05
-8.6239623e-06
2.3812272e-11
-2.5458383e-05
-8.594028e-06
2.3947502e-11
-1.9493601e-05
-8.2330372e-06
2.2414473e-11
-1.4006714e-05
-7.550926e-06
1.962681e-11
-9.2032875e-06
-6.5771773e-06
1.6862703e-11
-5.2529035e-06
-5.3616359e-06
1.491147e-11
-2.2739859e-06
-3.9756776e-06
1.2949218e-11
-3.1727893e-07
-2.5150502e-06
9.3085496e-12
6.5705138e-07
-1.107064e-06
3.5264734e-12
8.0366705e-07
7.7070631e-08
2.381043e-13
4.1783432e-07
8.0092791e-07
2.2248967e-12
7.0829657e-07
-1.8853194e-12
-2.7362703e-07
-1.4156673e-07
-1.3202043e-11
-1.6275442e-06
1.6602698e-06
-8.0035194e-12
-4.2894615e-06
4.2463678e-06
-9.2592801e-12
-8.2747219e-06
6.9394143e-06
-7.7565136e-12
-1.3474446e-05
9.4093493e-06
-5.6995828e-12
-1.9708734e-05
1.1495002e-05
-4.5668096e-12
-2.6765748e-05
1.3137268e-05
-3.8378729e-12
-3.4426599e-05
1.4334321e-05
-3.2331694e-12
-4.24786e-05
1.5110385e-05
-2.7246148e-12
-5.0720407e-05
1.5497038e-05
-2.2849179e-12
-5.8962239e-05
1.5523057e-05
-1.8669075e-12
-6.7023623e-05
1.5209848e-05
-1.4266871e-12
-7.4730455e-05
1.4570628e-05
-9.6398227e-13
-8.1912634e-05
1.3612089e-05
-5.2701571e-13
-8.8403055e-05
1.2337573e-05
-1.50132e-13
-9.4038377e-05
1.0751006e-05
2.0457408e-13
-9.8661692e-05
8.8610401e-06
6.1583368e-13
-0.00010212699
6.6849554e-06
1.098268e-12
-0.00010430512
4.2519696e-06
1.5592543e-12
-0.00010509089
1.605713e-06
1.8549458e-12
-0.00010441053
-1.1944123e-06
1.9498118e-12
-0.00010222935
-4.07349e-06
1.9767149e-12
-9.8558422e-05
-6.9416989e-06
2.1466941e-12
-9.3459913e-05
-9.6978563e-06
2.5260635e-12
-8.7050312e-05
-1.223337e-05
2.8714431e-12
-7.9500928e-05
-1.4437864e-05
2.8042015e-12
-7.1035223e-05
-1.6205799e-05
2.2524615e-12
-6.1922676e-05
-1.7443708e-05
1.7048671e-12
-5.2469107e-05
-1.8077533e-05
1.8288022e-12
-4.3003648e-05
-1.8059489e-05
2.6658136e-12
-3.3862803e-05
-1.7373885e-05
3.3258813e-12
-2.5372219e-05
-1.6041513e-05
2.8602202e-12
-1.7826882e-05
-1.4122516e-05
1.5914107e-12
-1.1470405e-05
-1.1718114e-05
1.1434587e-12
-6.473864e-06
-8.9722219e-06
2.5865455e-12
-2.914047e-06
-6.0748706e-06
4.683577e-12
-7.5123515e-07
-3.2698776e-06
4.82372e-12
1.9434762e-07
-8.6850858e-07
3.3130877e-12
2.6549072e-07
7.297755e-07
3.599467e-12
9.7379192e-07
2.5555394e-13
-7.4586942e-07
6.043162e-07
-1.33112e-11
-3.1796751e-06
4.0940778e-06
-1.9122396e-12
-7.3461479e-06
8.4128485e-06
-7.3387258e-12
-1.3163095e-05
1.2756369e-05
-6.6570969e-12
-2.0455846e-05
1.6702105e-05
-3.9915204e-12
-2.8992648e-05
2.0031808e-05
-2.6140124e-12
-3.8513874e-05
2.2658496e-05
-1.7017496e-12
-4.8752656e-05
2.4573105e-05
-8.8713849e-13
-5.9446945e-05
2.5804675e-05
-2.1065477e-13
-7.034478e-05
2.6394873e-05
3.2719081e-13
-8.1205058e-05
2.6383335e-05
7.5420929e-13
-9.1795897e-05
2.5800685e-05
1.1188129e-12
-0.00010189231
2.4667043e-05
1.46944e-12
-0.00011127452
2.2994294e-05
1.7962722e-12
-0.00011972766
2.0790712e-05
2.0281469e-12
-0.00012704348
1.8066822e-05
2.1144537e-12
-0.00013302402
1.4841581e-05
2.0948153e-12
-0.00013748727
1.1148206e-05
2.072997e-12
-0.00014027437
7.0390633e-06
2.1030133e-12
-0.00014125791
2.5892501e-06
2.1027401e-12
-0.00014035063
-2.1016904e-06
1.9090864e-12
-0.00013751425
-6.9098745e-06
1.4012893e-12
-0.00013276689
-1.1689053e-05
7.3645183e-13
-0.00012618919
-1.6275563e-05
2.5373154e-13
-0.00011792778
-2.049478e-05
1.5505467e-13
-0.00010819581
-2.4169826e-05
2.127458e-13
-9.7269789e-05
-2.7131822e-05
-9.3099096e-14
-8.5482342e-05
-2.9231153e-05
-9.7256736e-13
-7.3210893e-05
-3.0348981e-05
-1.858072e-12
-6.0862224e-05
-3.0408157e-05
-1.7964507e-12
-4.8853421e-05
-2.9382687e-05
-5.6518985e-13
-3.7589882e-05
-2.730505e-05
7.5444315e-13
-2.7441302e-05
-2.4271096e-05
8.2087511e-13
-1.8716685e-05
-2.0442731e-05
-1.7729588e-13
-1.1639456e-05
-1.6049453e-05
-3.7216513e-13
-6.3235754e-06
-1.1390754e-05
1.5459963e-12
-2.7515429e-06
-6.8419129e-06
4.2896535e-12
-7.5715703e-07
-2.8628972e-06
5.157822e-12
-9.5293152e-09
-1.7860758e-08
4.1604338e-12
9.6426284e-07
3.0286753e-12
-1.2279789e-06
1.8323099e-06
-1.4728403e-11
-4.7881334e-06
7.6542286e-06
4.1648625e-12
-1.0521569e-05
1.4146291e-05
-6.3912169e-12
-1.8214355e-05
2.0449162e-05
-7.4829101e-12
-2.7603947e-05
2.6091703e-05
-5.0876705e-12
-3.839629e-05
3.0824156e-05
-4.3421326e-12
-5.0283028e-05
3.4545239e-05
-3.983178e-12
-6.2954736e-05
3.7244817e-05
-3.504149e-12
-7.6108971e-05
3.8958913e-05
-3.0222967e-12
-8.9453687e-05
3.9739592e-05
-2.5697976e-12
-0.00010270737
3.9637017e-05
-2.1529111e-12
-0.00011559741
3.8690728e-05
-1.7722721e-12
-0.0001278582
3.6927842e-05
-1.3800362e-12
-0.00013923004
3.4366134e-05
-9.1930822e-13
-0.00014945958
3.102025e-05
-4.0476345e-13
-0.0001583023
2.6909539e-05
7.2417927e-14
-0.00016552705
2.2066338e-05
4.3212957e-13
-0.00017092256
1.6543708e-05
7.0444577e-13
-0.0001743054
1.0421907e-05
1.020112e-12
-0.00017552916
3.8130121e-06
1.4808048e-12
-0.00017449394
-3.1369142e-06
2.0164652e-12
-0.0001711557
-1.0248112e-05
2.3770638e-12
-0.00016553463
-1.7310127e-05
2.3627691e-12
-0.00015772174
-2.4088451e-05
2.0809508e-12
-0.00014788305
-3.0333474e-05
1.9520709e-12
-0.00013626047
-3.5792412e-05
2.3125688e-12
-0.00012316885
-4.0223444e-05
2.9447604e-12
-0.00010898862
-4.341138e-05
3.1350302e-12
-9.4153725e-05
-4.5183881e-05
2.4408901e-12
-7.9134793e-05
-4.542709e-05
1.4313476e-12
-6.4418018e-05
-4.4099464e-05
1.3281061e-12
-5.0480333e-05
-4.1242737e-05
2.5772258e-12
-3.7762117e-05
-3.6989315e-05
3.9782741e-12
-2.6638809e-05
-3.156604e-05
3.8617204e-12
-1.7393165e-05
-2.5295098e-05
2.3023869e-12
-1.0189915e-05
-1.8594007e-05
1.5375311e-12
-5.0547382e-06
-1.1977093e-05
3.2251848e-12
-1.8598363e-06
-6.0578024e-06
4.2868599e-12
-3.2223172e-07
-1.5554624e-06
8.7850179e-13
6.4202389e-07
5.6929198e-12
-1.6931738e-06
3.5255011e-06
-1.7176555e-11
-6.3714211e-06
1.2332467e-05
9.6245426e-12
-1.3671463e-05
2.144634e-05
-5.389023e-12
-2.3234063e-05
3.0011769e-05
-7.5513749e-12
-3.4695233e-05
3.7552878e-05
-4.8282288e-12
-4.7689793e-05
4.3818721e-05
-4.2579998e-12
-6.1857475e-05
4.8712925e-05
-4.1298357e-12
-7.6847996e-05
5.2235343e-05
-3.770855e-12
-9.2323777e-05
5.4434697e-05
-3.3671623e-12
-0.00010796016
5.5375976e-05
-2.9520986e-12
-0.00012344383
5.5120695e-05
-2.5200765e-12
-0.00013847054
5.3717438e-05
-2.114366e-12
-0.00015274305
5.1200358e-05
-1.7489587e-12
-0.00016597035
4.7593434e-05
-1.3634814e-12
-0.00017786854
4.2918438e-05
-8.8256822e-13
-0.00018816384
3.7204842e-05
-3.138161e-13
-0.00019659767
3.0500171e-05
2.3060531e-13
-0.00020293361
2.287965e-05
6.3217932e-13
-0.00020696591
1.4454209e-05
8.9567275e-13
-0.00020852907
5.3761673e-06
1.1775197e-12
-0.00020750789
-4.158087e-06
1.6458181e-12
-0.00020384746
-1.3908545e-05
2.275103e-12
-0.00019756226
-2.3595328e-05
2.7668252e-12
-0.00018874378
-3.2906939e-05
2.7964675e-12
-0.00017756571
-4.1511538e-05
2.4077636e-12
-0.0001642861
-4.9072027e-05
2.1198244e-12
-0.00014924537
-5.5264175e-05
2.4624764e-12
-0.00013285978
-5.9796972e-05
3.2925091e-12
-0.00011560957
-6.2434092e-05
3.72414e-12
-9.8021679e-05
-6.3014986e-05
3.0564e-12
-8.0647163e-05
-6.1473982e-05
1.8243283e-12
-6.4034131e-05
-5.7855771e-05
1.5015054e-12
-4.8697413e-05
-5.2326034e-05
2.7458702e-12
-3.508688e-05
-4.5176576e-05
4.2361534e-12
-2.3556661e-05
-3.6825318e-05
4.0744621e-12
-1.433786e-05
-2.7812809e-05
2.7710997e-12
-7.5174824e-06
-1.8797474e-05
3.1674465e-12
-3.0267235e-06
-1.0548563e-05
3.2843771e-12
-6.4249135e-07
-3.9396902e-06
-1.7273205e-12
-4.7642973e-10
8.4727341e-12
-2.1329389e-06
5.65846e-06
-1.9915882e-11
-7.8910784e-06
1.8090592e-05
1.4453042e-11
-1.6717403e-05
3.0272669e-05
-4.6208831e-12
-2.810573e-05
4.1400103e-05
-7.585912e-12
-4.1585063e-05
5.1032216e-05
-4.3647475e-12
-5.6714091e-05
5.8947754e-05
-3.8322156e-12
-7.3078213e-05
6.5077052e-05
-3.8299269e-12
-9.0287e-05
6.9444134e-05
-3.5228857e-12
-0.00010797121
7.2118911e-05
-3.1723788e-12
-0.00012577913
7.31839e-05
-2.8197645e-12
-0.00014337258
7.2714147e-05
-2.4110858e-12
-0.00016042323
7.0768094e-05
-1.9711066e-12
-0.00017660998
6.7387111e-05
-1.5712887e-12
-0.00019161792
6.2601368e-05
-1.2338605e-12
-0.00020513928
5.64398e-05
-8.8717843e-13
-0.00021687659
4.8942158e-05
-4.3199174e-13
-0.00022654789
4.017147e-05
1.4136076e-13
-0.0002338938
3.0225567e-05
7.0743655e-13
-0.00023868623
1.9246643e-05
1.0976043e-12
-0.00024073815
7.4280882e-06
1.2712287e-12
-0.00023991411
-4.9821365e-06
1.402112e-12
-0.00023614077
-1.7681882e-05
1.7569536e-12
-0.00022941723
-3.0318869e-05
2.3766267e-12
-0.00021982393
-4.250024e-05
2.9287547e-12
-0.00020752971
-5.3805759e-05
2.9496228e-12
-0.00019279591
-6.3805832e-05
2.382838e-12
-0.00017597653
-7.2083553e-05
1.8310858e-12
-0.00015751349
-7.8260015e-05
2.0447011e-12
-0.000137926
-8.2021583e-05
3.0017133e-12
-0.00011779363
-8.3147366e-05
3.6752473e-12
-9.7732874e-05
-8.1534734e-05
3.1148787e-12
-7.8368064e-05
-7.7220581e-05
1.8121969e-12
-6.0297819e-05
-7.0396281e-05
1.4155917e-12
-4.4059491e-05
-6.1414906e-05
2.6013209e-12
-3.0094407e-05
-5.0790403e-05
3.8415759e-12
-1.871725e-05
-3.9189968e-05
3.8607761e-12
-1.0093044e-05
-2.7421684e-05
4.3053326e-12
-4.2253078e-06
-1.6416302e-05
2.9659777e-12
-9.5848495e-07
-7.206507e-06
-4.9250467e-12
-9.5897139e-07
1.0438175e-11
-2.5450536e-06
8.2035366e-06
-2.2676849e-11
-9.3288416e-06
2.4874362e-05
1.8764538e-11
-1.961535e-05
4.0559183e-05
-4.1113723e-12
-3.2756824e-05
5.4541585e-05
-7.8285883e-12
-4.8175844e-05
6.6451241e-05
-4.1477563e-12
-6.5354028e-05
7.6125941e-05
-3.6671037e-12
-8.3822054e-05
8.3545082e-05
-3.7998773e-12
-0.00010315051
8.8772597e-05
-3.540818e-12
-0.00012294149
9.1909888e-05
-3.2283779e-12
-0.00014282079
9.3063213e-05
-2.9491482e-12
-0.00016243116
9.2324514e-05
-2.6231145e-12
-0.00018142667
8.9763608e-05
-2.2074145e-12
-0.00019946902
8.5429463e-05
-1.7459073e-12
-0.00021622579
7.9358148e-05
-1.329243e-12
-0.00023137104
7.1585046e-05
-9.9562033e-13
-0.00024458804
6.2159166e-05
-6.7053587e-13
-0.00025557431
5.1157735e-05
-2.2611366e-13
-0.00026404838
3.8699644e-05
3.8178438e-13
-0.00026975838
2.4956643e-05
1.0235359e-12
-0.0002724918
1.0161511e-05
1.4687862e-12
-0.00027208639
-5.3875462e-06
1.6052204e-12
-0.00026844144
-2.1326832e-05
1.6263717e-12
-0.00026152948
-3.7230833e-05
1.8795552e-12
-0.00025140714
-5.2622585e-05
2.519022e-12
-0.00023822474
-6.6988155e-05
3.2012622e-12
-0.00022223342
-7.9797156e-05
3.3122721e-12
-0.00020378844
-9.0528534e-05
2.6563356e-12
-0.00018334746
-9.8701006e-05
1.8819462e-12
-0.00016146226
-0.00010390678
1.9473951e-12
-0.00013876315
-0.00010584648
2.9648508e-12
-0.00011593525
-0.00010436263
3.8118843e-12
-9.3687471e-05
-9.946836e-05
3.3794349e-12
-7.2715378e-05
-9.1368375e-05
2.1663128e-12
-5.3660704e-05
-8.0469581e-05
1.794789e-12
-3.7071056e-05
-6.7380053e-05
2.6473423e-12
-2.336393e-05
-5.2897096e-05
3.8096123e-12
-1.2799307e-05
-3.798631e-05
5.5128192e-12
-5.4648751e-06
-2.3750737e-05
3.3035864e-12
-1.2772558e-06
-1.1394118e-05
-8.0230238e-12
-2.2362386e-06
1.2661381e-11
-2.9284793e-06
1.1132041e-05
-2.5376728e-11
-1.0673662e-05
3.2619522e-05
2.2624248e-11
-2.2336153e-05
5.2221678e-05
-3.7674741e-12
-3.7135938e-05
6.9341378e-05
-8.1594501e-12
-5.4394052e-05
8.370936e-05
-4.0383826e-12
-7.3517547e-05
9.524944e-05
-3.6017599e-12
-9.3984194e-05
0.00010401173
-3.8702319e-12
-0.00011532783
0.00011011623
-3.658786e-12
-0.00013712502
0.00011370708
-3.351591e-12
-0.00015898335
0.00011492155
-3.0945751e-12
-0.00018053157
0.00011387274
-2.8447993e-12
-0.00020141191
0.00011064396
-2.5266756e-12
-0.00022127477
0.00010529233
-2.0951855e-12
-0.00023977591
9.7859283e-05
-1.5952254e-12
-0.00025657609
8.8385228e-05
-1.1379603e-12
-0.00027134316
7.6926241e-05
-7.8937846e-13
-0.00028375627
6.3570854e-05
-4.8279092e-13
-0.00029351211
4.8455485e-05
-5.5906539e-14
-0.0003003329
3.177743e-05
5.8700972e-13
-0.00030397604
1.380465e-05
1.3218588e-12
-0.00030424526
-5.1183271e-06
1.8482823e-12
-0.00030100267
-2.4569422e-05
1.995839e-12
-0.00029418223
-4.4051277e-05
1.9018672e-12
-0.00028380298
-6.3001837e-05
2.0251204e-12
-0.00026998195
-8.0809183e-05
2.6530313e-12
-0.00025294525
-9.6833857e-05
3.4622835e-12
-0.00023303578
-0.00011043801
3.7040706e-12
-0.00021071582
-0.00012102098
3.028835e-12
-0.00018656251
-0.00012806008
2.0936659e-12
-0.00016125469
-0.0001311543
2.0119399e-12
-0.00013554986
-0.00013006747
2.990647e-12
-0.00011025139
-0.00012476684
3.8684225e-12
-8.6167317e-05
-0.00011545245
3.535845e-12
-6.4063685e-05
-0.00010257321
2.4796536e-12
-4.4616636e-05
-8.6827104e-05
2.0129457e-12
-2.8368509e-05
-6.9145225e-05
3.0230056e-12
-1.5693142e-05
-5.0661682e-05
5.99952e-12
-6.7752167e-06
-3.2668666e-05
3.726617e-12
-1.6070331e-06
-1.6562291e-05
-1.0825798e-11
-3.8432865e-06
1.5159062e-11
-3.2816959e-06
1.4413766e-05
-2.7953384e-11
-1.1915857e-05
4.1253657e-05
2.6060671e-11
-2.4855483e-05
6.5161308e-05
-3.5558901e-12
-4.1199871e-05
8.5685775e-05
-8.5402523e-12
-6.0176241e-05
0.00010268573
-3.9819124e-12
-8.1122155e-05
0.00011619536
-3.563782e-12
-0.00010346618
0.00012635577
-3.9592339e-12
-0.00012670873
0.00013335879
-3.8180283e-12
-0.00015040447
0.00013740282
-3.5264601e-12
-0.00017414693
0.00013866401
-3.2470254e-12
-0.00019755571
0.00013728152
-2.9976543e-12
-0.00022026643
0.00013335468
-2.7569097e-12
-0.00024192361
0.00012694951
-2.4449546e-12
-0.00026217638
0.00011811206
-1.9953909e-12
-0.00028067686
0.00010688571
-1.4459293e-12
-0.00029708098
9.3330364e-05
-9.2950361e-13
-0.00031105162
7.7541501e-05
-5.5247047e-13
-0.0003222638
5.9667667e-05
-2.6646984e-13
-0.00033041186
3.9925487e-05
1.2508002e-13
-0.00033521863
1.8611421e-05
7.7232337e-13
-0.00033644679
-3.8901667e-06
1.567403e-12
-0.0003339114
-2.7104813e-05
2.2424392e-12
-0.00032749565
-5.0467033e-05
2.4196162e-12
-0.00031716658
-7.333091e-05
2.221157e-12
-0.00030299202
-9.4983746e-05
2.1898411e-12
-0.00028515657
-0.00011466931
2.7504996e-12
-0.00026397494
-0.00013161964
3.6324022e-12
-0.00023990041
-0.00014509551
3.9897866e-12
-0.00021352565
-0.00015443484
3.3440866e-12
-0.00018557363
-0.00015910633
2.3410165e-12
-0.00015687645
-0.00015876465
2.1636536e-12
-0.00012834153
-0.00015330176
3.0407012e-12
-0.00010090598
-0.00014288799
3.8367063e-12
-7.5482416e-05
-0.00012799678
3.5019653e-12
-5.2901107e-05
-0.00010940841
2.4148648e-12
-3.3855089e-05
-8.8191245e-05
2.5817811e-12
-1.8854771e-05
-6.5662006e-05
6.0376571e-12
-8.1982576e-06
-4.3325182e-05
3.7286442e-12
-1.9611611e-06
-2.2799374e-05
-1.3824986e-11
-5.804466e-06
1.7966046e-11
-3.6022982e-06
1.8016094e-05
-3.0352076e-11
-1.3044856e-05
5.0696187e-05
2.9094009e-11
-2.7149256e-05
7.9265713e-05
-3.4581523e-12
-4.4907115e-05
0.00010344364
-8.9780127e-12
-6.5461427e-05
0.00012324005
-4.0063304e-12
-8.8087128e-05
0.00013882106
-3.5732354e-12
-0.00011216867
0.00015043731
-4.0595986e-12
-0.00013717726
0.00015836738
-3.9977806e-12
-0.00016264969
0.00016287526
-3.7709795e-12
-0.00018816971
0.00016418404
-3.4984756e-12
-0.0002133524
0.00016246421
-3.2008475e-12
-0.00023783176
0.00015783404
-2.9364982e-12
-0.00026125162
0.00015036937
-2.7004089e-12
-0.00028325952
0.00014011997
-2.3971954e-12
-0.0003035035
0.00012712969
-1.9323548e-12
-0.00032163132
0.00011145819
-1.3270715e-12
-0.00033729209
9.3202276e-05
-7.3354922e-13
-0.00035014002
7.25156e-05
-3.0782244e-13
-0.00035984043
4.9625894e-05
-3.5945923e-14
-0.00036607807
2.4849058e-05
2.8781658e-13
-0.00036856861
-1.3996249e-06
8.614925e-13
-0.000367071
-2.860243e-05
1.8279576e-12
-0.00036140603
-5.6131999e-05
2.6226309e-12
-0.00035147426
-8.3262686e-05
2.8597145e-12
-0.00033727752
-0.00010918048
2.596457e-12
-0.00031894063
-0.00013300621
2.4175879e-12
-0.00029673149
-0.00015382878
2.870325e-12
-0.00027107704
-0.00017074997
3.7484258e-12
-0.00024257143
-0.00018294046
4.1591156e-12
-0.0002119731
-0.00018970465
3.5576225e-12
-0.00018018745
-0.0001905503
2.5780256e-12
-0.0001482332
-0.00018525602
2.382195e-12
-0.00011719267
-0.00017392853
3.1407409e-12
-8.8148882e-05
-0.00015704057
3.68657e-12
-6.2115336e-05
-0.00013544196
3.0389325e-12
-3.996646e-05
-0.00011034012
2.8406196e-12
-2.2377593e-05
-8.3250879e-05
6.3658378e-12
-9.7826827e-06
-5.5920096e-05
3.4908511e-12
-2.3546936e-06
-3.0227345e-05
-1.7373222e-11
-8.1591813e-06
2.1060667e-11
-3.8870451e-06
2.1903172e-05
-3.2535666e-11
-1.4048642e-05
6.0857752e-05
3.1729189e-11
-2.9192017e-05
9.4409092e-05
-3.4380359e-12
-4.8215206e-05
0.00012246684
-9.4487257e-12
-7.0187758e-05
0.00014521261
-4.1231188e-12
-9.4329949e-05
0.00016296326
-3.6649705e-12
-0.00011998807
0.00017609544
-4.1924206e-12
-0.00014660891
0.00018498822
-4.1701143e-12
-0.00017371568
0.00018998203
-4.0244386e-12
-0.00020088663
0.00019135499
-3.8303901e-12
-0.00022773683
0.00018931442
-3.5363087e-12
-0.00025390353
0.00018400075
-3.2005269e-12
-0.00027903489
0.00017550074
-2.9117027e-12
-0.000302782
0.00016386707
-2.675431e-12
-0.00032479363
0.00014914132
-2.3852108e-12
-0.00034471369
0.00013137825
-1.9127108e-12
-0.0003621809
0.00011066948
-1.2507347e-12
-0.00037683077
8.7165472e-05
-5.6569906e-13
-0.00038830005
6.1095174e-05
-6.9507808e-14
-0.0003962339
3.2782915e-05
2.1541078e-13
-0.00040029602
2.6624875e-06
5.4545373e-13
-0.00040018352
-2.8714929e-05
1.111908e-12
-0.00039564371
-6.0671817e-05
2.0601754e-12
-0.00038649703
-9.2409371e-05
2.9589312e-12
-0.00037266231
-0.0001230152
3.2860387e-12
-0.00035418468
-0.00015148385
3.0041371e-12
-0.00033126353
-0.00017674993
2.7138181e-12
-0.00030427759
-0.00019773592
3.0430808e-12
-0.00027380277
-0.00021341528
3.837806e-12
-0.00024061811
-0.00022288932
4.2133569e-12
-0.00020569503
-0.00022547338
3.6453671e-12
-0.00017016625
-0.0002207848
2.774953e-12
-0.00013527307
-0.00020882171
2.6448513e-12
-0.00010229324
-0.0001900204
3.1446163e-12
-7.2455877e-05
-0.00016527933
3.0456587e-12
-4.6853257e-05
-0.00013594275
3.2242294e-12
-2.6361343e-05
-0.0001037428
7.1991722e-12
-1.1580433e-05
-7.070101e-05
3.4255353e-12
-2.8033124e-06
-3.9004444e-05
-2.1482812e-11
-1.0962518e-05
2.4477521e-11
-4.1321113e-06
2.6035319e-05
-3.4475503e-11
-1.4914078e-05
7.1639686e-05
3.3940154e-11
-3.0957093e-05
0.00011045211
-3.4699012e-12
-5.1080594e-05
0.00014259035
-9.9062641e-12
-7.4292186e-05
0.0001684242
-4.3016669e-12
-9.976601e-05
0.00018843709
-3.8476158e-12
-0.00012681655
0.00020314598
-4.4009784e-12
-0.00015487113
0.00021304281
-4.3630213e-12
-0.00018344374
0.00021855464
-4.2451415e-12
-0.00021211127
0.00022002253
-4.1453319e-12
-0.00024049319
0.00021769634
-3.9472225e-12
-0.00026823465
0.00021174221
-3.6206009e-12
-0.00029499322
0.00020225932
-3.2410619e-12
-0.00032042873
0.00018930259
-2.916369e-12
-0.00034419607
0.00017290866
-2.6729109e-12
-0.00036594039
0.00015312258
-2.398965e-12
-0.00038529469
0.00013002378
-1.9290167e-12
-0.00040187965
0.00010375043
-1.2180704e-12
-0.00041530607
7.4521598e-05
-4.3556201e-13
-0.0004251804
4.2657246e-05
1.7135483e-13
-0.0004311136
8.5956851e-06
5.3417273e-13
-0.00043273586
-2.709267e-05
7.3491317e-13
-0.00042971381
-6.3693869e-05
1.2891704e-12
-0.00042177584
-0.00010034734
2.269895e-12
-0.0004087414
-0.00013604965
3.256403e-12
-0.00039055508
-0.00016967017
3.668689e-12
-0.00036732322
-0.00019998179
3.402726e-12
-0.00033934954
-0.0002257096
3.0468751e-12
-0.00030716514
-0.00024559969
3.2511078e-12
-0.00027154663
-0.00025850783
3.8873787e-12
-0.00023351583
-0.00026350418
4.1416331e-12
-0.00019431484
-0.0002599858
3.6172835e-12
-0.0001553528
-0.00024778375
2.9552107e-12
-0.00011812518
-0.00022724802
2.77212e-12
-8.4111767e-05
-0.00019929275
2.5463141e-12
-5.4665439e-05
-0.00016538908
3.1930904e-12
-3.0907317e-05
-0.00012750093
8.1915348e-12
-1.3644687e-05
-8.7963645e-05
3.6199776e-12
-3.3229897e-06
-4.9326116e-05
-2.608491e-11
-1.4285537e-05
2.840839e-11
-4.3334487e-06
3.0368804e-05
-3.6130699e-11
-1.5627775e-05
8.2933978e-05
3.5686948e-11
-3.2417873e-05
0.00012724221
-3.5604685e-12
-5.3460247e-05
0.00016363274
-1.0326344e-11
-7.7712374e-05
0.00019267633
-4.4948291e-12
-0.00010431089
0.00021503561
-4.0801447e-12
-0.00013254477
0.00023137987
-4.6935133e-12
-0.00016182676
0.00024232481
-4.63655e-12
-0.00019166568
0.00024839356
-4.4812436e-12
-0.00022164102
0.00024999787
-4.4024253e-12
-0.00025138072
0.00024743604
-4.3079683e-12
-0.00028054237
0.00024090387
-4.100609e-12
-0.00030879792
0.00023051487
-3.7462487e-12
-0.00033582147
0.00021632614
-3.3171453e-12
-0.00036127985
0.00019836704
-2.9441645e-12
-0.00038482562
0.00017666835
-2.6823922e-12
-0.00040609221
0.00015129038
-2.4223813e-12
-0.00042469143
0.00012234965
-1.9637324e-12
-0.00044021349
9.004366e-05
-1.2143618e-12
-0.00045223029
5.4674045e-05
-3.2489835e-13
-0.00046030268
1.6668071e-05
4.0374574e-13
-0.00046399323
-2.3402127e-05
7.614804e-13
-0.00046288414
-6.4802951e-05
1.0034917e-12
-0.00045660308
-0.00010662841
1.5374267e-12
-0.00044485577
-0.00014779696
2.5104521e-12
-0.00042746583
-0.00018706012
3.5327353e-12
-0.00040441994
-0.00022302768
3.9964236e-12
-0.00037591535
-0.00025421419
3.7584382e-12
-0.00034240434
-0.0002791107
3.3711369e-12
-0.00030462841
-0.00029628377
3.4416775e-12
-0.00026363319
-0.0003044994
3.8505101e-12
-0.00022075497
-0.00030286402
3.9510926e-12
-0.00017757151
-0.00029096722
3.5457409e-12
-0.00013581491
-0.00026900462
2.9563321e-12
-9.7251863e-05
-0.0002378558
2.1557669e-12
-6.3544794e-05
-0.00019909615
2.8495709e-12
-3.6114664e-05
-0.00015493107
9.0542472e-12
-1.6028547e-05
-0.00010804977
3.8504071e-12
-3.929833e-06
-6.1424799e-05
-3.1299342e-11
-1.8215403e-05
3.3063929e-11
-4.4872184e-06
3.485606e-05
-3.7447014e-11
-1.6177306e-05
9.4624029e-05
3.6952565e-11
-3.3549864e-05
0.00014461477
-3.7234617e-12
-5.5314498e-05
0.00018539738
-1.0723543e-11
-8.0390286e-05
0.00021775213
-4.690305e-12
-0.00010788469
0.00024253002
-4.3088248e-12
-0.00013706712
0.00026056229
-5.0145503e-12
-0.00016734011
0.00027259781
-4.9949039e-12
-0.00019821101
0.00027926446
-4.8088719e-12
-0.0002292654
0.00028105227
-4.6752022e-12
-0.00026014344
0.00027831408
-4.5859596e-12
-0.00029051941
0.00027127985
-4.487003e-12
-0.00032008455
0.00026008002
-4.2784119e-12
-0.00034853288
0.00024477447
-3.8998048e-12
-0.00037554963
0.00022538379
-3.4170672e-12
-0.00040080187
0.00020192059
-2.9832625e-12
-0.00042393128
0.00017441979
-2.6865105e-12
-0.00044454897
0.00014296735
-2.4288834e-12
-0.00046223288
0.00010772757
-1.9799143e-12
-0.00047652829
6.8969453e-05
-1.1965829e-12
-0.00048695255
2.7092326e-05
-2.1421481e-13
-0.00049300531
-1.7349361e-05
6.1210241e-13
-0.00049418532
-6.3622949e-05
1.076779e-12
-0.00049001551
-0.00011079822
1.356102e-12
-0.00048007744
-0.00015773503
1.8729867e-12
-0.00046405537
-0.00020308219
2.8107531e-12
-0.00044178948
-0.00024529359
3.8053699e-12
-0.00041333549
-0.00028266818
4.2652429e-12
-0.00037902572
-0.00031342047
4.0432155e-12
-0.00033952312
-0.00033578637
3.629174e-12
-0.00029585733
-0.0003481652
3.5362634e-12
-0.00024942964
-0.00034929172
3.6980524e-12
-0.00020197484
-0.00033842203
3.7201265e-12
-0.00015547274
-0.00031550672
3.2750715e-12
-0.00011201152
-0.00028131702
2.0841473e-12
-7.3617447e-05
-0.00023749022
2.5826921e-12
-4.2076975e-05
-0.00018647155
9.9035394e-12
-1.878399e-05
-0.00013134276
3.967801e-12
-4.6400071e-06
-7.5568745e-05
-3.7382354e-11
-2.2855449e-05
3.8554236e-11
-4.5902785e-06
3.9446377e-05
-3.838526e-11
-1.6552673e-05
0.00010658639
3.7748718e-11
-3.4333317e-05
0.00016239542
-3.9398559e-12
-5.6610835e-05
0.00020767491
-1.1114219e-11
-8.227711e-05
0.00024341841
-4.9216044e-12
-0.00011041809
0.000270671
-4.5303639e-12
-0.00014028879
0.00029043301
-5.3029459e-12
-0.00017128536
0.00030359438
-5.3645785e-12
-0.00020291671
0.00031089582
-5.2217861e-12
-0.00023477749
0.00031291305
-5.0526301e-12
-0.00026652337
0.00031005996
-4.8851497e-12
-0.00029784922
0.00030260571
-4.7663826e-12
-0.00032847035
0.00029070115
-4.6622767e-12
-0.00035810645
0.00027441058
-4.4533232e-12
-0.00038646797
0.00025374532
-4.0525207e-12
-0.00041324457
0.00022869719
-3.5140039e-12
-0.00043809538
0.00019927061
-3.0071647e-12
-0.00046064122
0.0001655132
-2.6540069e-12
-0.00048045902
0.00012754537
-2.3756776e-12
-0.00049707915
8.5589594e-05
-1.9224994e-12
-0.00050998689
4.0000062e-05
-1.111983e-12
-0.00051862908
-8.7071684e-06
-5.7991803e-14
-0.00052242804
-5.9823989e-05
8.7924829e-13
-0.00052080434
-0.00011242193
1.4512264e-12
-0.00051321062
-0.00016532875
1.7943086e-12
-0.00049917795
-0.00021711486
2.3100057e-12
-0.00047837523
-0.0002660963
3.1813065e-12
-0.00045068035
-0.00031036307
4.0768244e-12
-0.00041625868
-0.00034784214
4.4649148e-12
-0.00037564065
-0.0003764044
4.2184762e-12
-0.00032978514
-0.00039402072
3.7420888e-12
-0.00028011174
-0.00039896512
3.4801214e-12
-0.00022848359
-0.00039005018
3.4889421e-12
-0.00017712606
-0.00036686426
3.2597462e-12
-0.00012847758
-0.00032996551
2.0052312e-12
-8.4985532e-05
-0.00028098227
2.4759858e-12
-4.8878609e-05
-0.00022257849
1.0989098e-11
-2.196081e-05
-0.00015826056
4.0563288e-12
-5.4696742e-06
-9.2059836e-05
-4.4518683e-11
-2.8325168e-05
4.4943048e-11
-4.6407153e-06
4.4087132e-05
-3.8943956e-11
-1.6747974e-05
0.00011869361
3.8082463e-11
-3.4756284e-05
0.00018040374
-4.162701e-12
-5.7328418e-05
0.00023024706
-1.1472938e-11
-8.33392e-05
0.00026942919
-5.2166247e-12
-0.00011185963
0.00029919144
-4.795383e-12
-0.00014213464
0.00032070802
-5.5677705e-12
-0.00017355689
0.00033501664
-5.6797065e-12
-0.00020563929
0.00034297822
-5.6252237e-12
-0.00023798793
0.0003452617
-5.5100371e-12
-0.00027027682
0.00034234886
-5.3013691e-12
-0.00030222499
0.00033455388
-5.0767906e-12
-0.00033357631
0.00032205247
-4.9180361e-12
-0.00036408183
0.00030491611
-4.7966049e-12
-0.00039348435
0.00028314784
-4.5799213e-12
-0.00042150476
0.0002567176
-4.1553237e-12
-0.00044783006
0.00022559592
-3.5588031e-12
-0.00047210297
0.0001897861
-2.9681118e-12
-0.00049391327
0.00014935567
-2.535793e-12
-0.00051279182
0.00010446814
-2.2068877e-12
-0.00052820781
5.5416064e-05
-1.7271609e-12
-0.00053957113
2.6561524e-06
-8.8472352e-13
-0.00054624157
-5.3153549e-05
2.1419176e-13
-0.00054754716
-0.00011111634
1.2397162e-12
-0.00054281475
-0.00017006116
1.9160901e-12
-0.00053141556
-0.00022851405
2.3373228e-12
-0.00051282781
-0.00028468406
2.8516485e-12
-0.00048671715
-0.00033647373
3.6130852e-12
-0.00045303225
-0.00038152704
4.3307713e-12
-0.00041210804
-0.00041732861
4.5635173e-12
-0.00036476257
-0.00044136619
4.2167895e-12
-0.00031236666
-0.00045136103
3.6549808e-12
-0.00025686067
-0.00044555617
3.3198773e-12
-0.0002006937
-0.00042303124
2.9690555e-12
-0.00014667106
-0.00038398815
1.6227488e-12
-9.7717353e-05
-0.00032993597
2.2891484e-12
-5.6590301e-05
-0.00026370555
1.2342163e-11
-2.5605312e-05
-0.00018924555