/*--------------------------------*- C++ -*----------------------------------*\
  =========                 |
  \\      /  F ield         | OpenFOAM: The Open Source CFD Toolbox
   \\    /   O peration     | Website:  https://openfoam.org
    \\  /    A nd           | Version:  7
     \\/     M anipulation  |
\*---------------------------------------------------------------------------*/
FoamFile
{
    version     2.0;
    format      ascii;
    class       surfaceScalarField;
    location    "29";
    object      phi_0;
}
// * * * * * * * * * * * * * * * * * * * * * * * * * * * * * * * * * * * * * //

dimensions      [0 3 -1 0 0 0 0];

internalField   nonuniform List<scalar> 
45600
(
2.7496563e-07
-2.8244285e-07
-8.4024648e-11
4.032328e-07
-1.28241e-07
-2.6502486e-11
1.3250522e-07
2.7073469e-07
-7.4925887e-12
-5.6233913e-07
6.9484625e-07
-2.1056878e-12
-1.6393279e-06
1.0769862e-06
3.1192444e-12
-3.0276308e-06
1.3882972e-06
6.6522306e-12
-4.6524683e-06
1.6248293e-06
8.9607381e-12
-6.445097e-06
1.7926186e-06
1.0586646e-11
-8.3454202e-06
1.9003124e-06
1.174515e-11
-1.0301436e-05
1.9560046e-06
1.2521173e-11
-1.2267393e-05
1.9659443e-06
1.2965763e-11
-1.420157e-05
1.9341647e-06
1.3118399e-11
-1.6064225e-05
1.8626432e-06
1.2999174e-11
-1.7816011e-05
1.7517739e-06
1.259388e-11
-1.9417036e-05
1.6010118e-06
1.1869485e-11
-2.082664e-05
1.4095897e-06
1.0815285e-11
-2.200389e-05
1.1772376e-06
9.4581048e-12
-2.2908753e-05
9.0485472e-07
7.8305183e-12
-2.3503849e-05
5.950945e-07
5.9128745e-12
-2.3756678e-05
2.5282802e-07
3.6698918e-12
-2.3642116e-05
-1.1456733e-07
1.1115733e-12
-2.314499e-05
-4.9713453e-07
-1.6483302e-12
-2.2262564e-05
-8.8242758e-07
-4.4203921e-12
-2.1006611e-05
-1.2559393e-06
-7.0329099e-12
-1.9404852e-05
-1.6017327e-06
-9.42306e-12
-1.7501536e-05
-1.9032944e-06
-1.1654645e-11
-1.5356948e-05
-2.1445852e-06
-1.3704736e-11
-1.3045746e-05
-2.3112141e-06
-1.5302549e-11
-1.0654108e-05
-2.3916362e-06
-1.6011694e-11
-8.2758283e-06
-2.3782418e-06
-1.5598729e-11
-6.0075617e-06
-2.268207e-06
-1.4337302e-11
-3.9435036e-06
-2.064028e-06
-1.2795769e-11
-2.1697611e-06
-1.7737749e-06
-1.1158361e-11
-7.5855321e-07
-1.4112657e-06
-8.8426513e-12
2.381662e-07
-9.9672014e-07
-5.2723946e-12
7.965191e-07
-5.5827378e-07
-1.2659734e-12
9.2931373e-07
-1.3271248e-07
2.5465318e-12
7.0564955e-07
2.2361552e-07
5.4318299e-12
2.9049949e-07
4.1498303e-07
7.745954e-12
2.9038735e-07
4.5862609e-13
1.3278805e-07
-4.1520692e-07
-2.3907533e-11
-3.0178177e-07
3.063444e-07
-1.5156897e-11
-1.615474e-06
1.5844407e-06
-1.3124142e-11
-3.8747589e-06
2.9541452e-06
-1.3770802e-11
-7.0073756e-06
4.2096183e-06
-1.4844355e-11
-1.087977e-05
5.2607099e-06
-1.631832e-11
-1.5335171e-05
6.0802501e-06
-1.7706815e-11
-2.0215998e-05
6.6734664e-06
-1.8710104e-11
-2.5374047e-05
7.0583819e-06
-1.9261846e-11
-3.067325e-05
7.2552288e-06
-1.9369564e-11
-3.5988509e-05
7.2812223e-06
-1.9066111e-11
-4.120279e-05
7.1484621e-06
-1.8376928e-11
-4.6203928e-05
6.8637957e-06
-1.7298676e-11
-5.0882051e-05
6.4299117e-06
-1.5825981e-11
-5.5128177e-05
5.8471533e-06
-1.3988717e-11
-5.8834259e-05
5.1156829e-06
-1.1836925e-11
-6.1894741e-05
4.2377226e-06
-9.3886973e-12
-6.4209547e-05
3.2196584e-06
-6.5923417e-12
-6.5688298e-05
2.0738434e-06
-3.4386263e-12
-6.6255407e-05
8.1994181e-07
4.0102432e-15
-6.5855918e-05
-5.1404785e-07
3.5605841e-12
-6.4460741e-05
-1.8923129e-06
7.0851582e-12
-6.2072414e-05
-3.2707757e-06
1.0437156e-11
-5.8729038e-05
-4.599351e-06
1.3648646e-11
-5.4507038e-05
-5.8237593e-06
1.6772718e-11
-4.952187e-05
-6.8884614e-06
1.964822e-11
-4.3926353e-05
-7.7400848e-06
2.1857583e-11
-3.7906401e-05
-8.331174e-06
2.2996194e-11
-3.1674109e-05
-8.6239896e-06
2.3078474e-11
-2.5458398e-05
-8.5940381e-06
2.2598148e-11
-1.949363e-05
-8.2330116e-06
2.1992841e-11
-1.4006723e-05
-7.5508873e-06
2.0991937e-11
-9.203255e-06
-6.577174e-06
1.8744049e-11
-5.2528616e-06
-5.3616841e-06
1.4919462e-11
-2.2739902e-06
-3.9757272e-06
1.0576159e-11
-3.1734364e-07
-2.5150312e-06
7.2489226e-12
6.5699238e-07
-1.1069744e-06
4.9151894e-12
8.0369016e-07
7.7157202e-08
4.5361513e-12
4.1794133e-07
8.0092947e-07
5.0141973e-12
7.0824035e-07
-3.7864152e-12
-2.7362724e-07
-1.4156665e-07
-1.319254e-11
-1.6275449e-06
1.6602701e-06
-7.9878369e-12
-4.289462e-06
4.2463681e-06
-9.2331384e-12
-8.2747223e-06
6.9394142e-06
-7.7423152e-12
-1.3474447e-05
9.4093491e-06
-5.7110293e-12
-1.9708735e-05
1.1495003e-05
-4.5891847e-12
-2.6765748e-05
1.3137269e-05
-3.8575801e-12
-3.4426599e-05
1.4334322e-05
-3.2546224e-12
-4.2478599e-05
1.5110386e-05
-2.7460448e-12
-5.0720406e-05
1.5497039e-05
-2.2858574e-12
-5.8962238e-05
1.5523057e-05
-1.8463302e-12
-6.7023621e-05
1.5209847e-05
-1.430593e-12
-7.4730454e-05
1.4570626e-05
-1.0289582e-12
-8.1912634e-05
1.3612089e-05
-6.0353909e-13
-8.8403056e-05
1.2337574e-05
-1.3444811e-13
-9.4038377e-05
1.0751007e-05
3.3796267e-13
-9.8661689e-05
8.8610379e-06
7.4321872e-13
-0.00010212698
6.6849497e-06
1.0562776e-12
-0.00010430512
4.2519643e-06
1.3280027e-12
-0.0001050909
1.6057132e-06
1.6462102e-12
-0.00010441054
-1.194406e-06
2.0357822e-12
-0.00010222935
-4.0734842e-06
2.3799788e-12
-9.8558414e-05
-6.9417022e-06
2.5056134e-12
-9.3459904e-05
-9.6978695e-06
2.3696749e-12
-8.7050314e-05
-1.2233381e-05
2.1703279e-12
-7.9500943e-05
-1.4437859e-05
2.2092756e-12
-7.1035237e-05
-1.6205778e-05
2.557778e-12
-6.192267e-05
-1.7443691e-05
2.8688016e-12
-5.246908e-05
-1.8077545e-05
2.6714409e-12
-4.3003627e-05
-1.8059526e-05
1.9770956e-12
-3.3862818e-05
-1.7373908e-05
1.4947095e-12
-2.5372262e-05
-1.6041489e-05
1.952584e-12
-1.7826902e-05
-1.4122464e-05
3.092158e-12
-1.1470367e-05
-1.1718097e-05
3.6812087e-12
-6.4738003e-06
-8.9722768e-06
2.9460277e-12
-2.9140371e-06
-6.0749521e-06
1.7094109e-12
-7.5130547e-07
-3.2699008e-06
1.5349117e-12
1.9429136e-07
-8.6845508e-07
3.5909336e-12
2.6554432e-07
7.2982751e-07
6.3729047e-12
9.7378212e-07
9.4054371e-13
-7.4586935e-07
6.043159e-07
-1.3301437e-11
-3.1796757e-06
4.0940776e-06
-1.9106805e-12
-7.3461487e-06
8.4128488e-06
-7.3264156e-12
-1.3163095e-05
1.2756369e-05
-6.6374018e-12
-2.0455846e-05
1.6702105e-05
-3.9852131e-12
-2.8992649e-05
2.0031808e-05
-2.6225653e-12
-3.8513874e-05
2.2658497e-05
-1.7151122e-12
-4.8752656e-05
2.4573106e-05
-9.0402996e-13
-5.9446944e-05
2.5804676e-05
-2.4013739e-13
-7.034478e-05
2.6394874e-05
3.0450874e-13
-8.1205058e-05
2.6383336e-05
7.7826057e-13
-9.1795895e-05
2.5800686e-05
1.180912e-12
-0.00010189231
2.4667042e-05
1.4905915e-12
-0.00011127452
2.2994291e-05
1.7189952e-12
-0.00011972766
2.0790711e-05
1.9160497e-12
-0.00012704348
1.8066823e-05
2.1105153e-12
-0.00013302402
1.4841583e-05
2.2629846e-12
-0.00013748727
1.1148204e-05
2.2823354e-12
-0.00014027437
7.0390569e-06
2.114193e-12
-0.00014125791
2.5892426e-06
1.8227827e-12
-0.00014035064
-2.1016917e-06
1.5630328e-12
-0.00013751426
-6.9098664e-06
1.3896015e-12
-0.0001327669
-1.1689043e-05
1.2206784e-12
-0.00012618918
-1.6275563e-05
8.4243062e-13
-0.00011792776
-2.0494796e-05
1.4974742e-13
-0.00010819581
-2.4169844e-05
-6.2940899e-13
-9.7269807e-05
-2.7131822e-05
-1.0394903e-12
-8.5482365e-05
-2.9231127e-05
-8.5630753e-13
-7.3210892e-05
-3.0348953e-05
-4.4673661e-13
-6.0862191e-05
-3.0408164e-05
-4.8031985e-13
-4.885339e-05
-2.938273e-05
-1.0937794e-12
-3.7589895e-05
-2.7305087e-05
-1.462906e-12
-2.7441356e-05
-2.4271076e-05
-5.9060426e-13
-1.8716719e-05
-2.0442665e-05
1.3285264e-12
-1.163942e-05
-1.6049411e-05
2.7829378e-12
-6.3235081e-06
-1.1390786e-05
2.7126398e-12
-2.7515365e-06
-6.8419781e-06
2.1264335e-12
-7.572151e-07
-2.862918e-06
2.8315079e-12
-9.5413755e-09
-1.7833164e-08
4.4778464e-12
9.642808e-07
4.0123354e-12
-1.2279786e-06
1.8323096e-06
-1.4713726e-11
-4.7881336e-06
7.6542279e-06
4.1625921e-12
-1.052157e-05
1.4146291e-05
-6.3999459e-12
-1.8214355e-05
2.0449162e-05
-7.4812361e-12
-2.7603947e-05
2.6091703e-05
-5.0797494e-12
-3.839629e-05
3.0824156e-05
-4.3328829e-12
-5.0283028e-05
3.454524e-05
-3.9788587e-12
-6.2954736e-05
3.7244818e-05
-3.4973087e-12
-7.6108969e-05
3.8958913e-05
-3.0337801e-12
-8.9453686e-05
3.9739592e-05
-2.6133424e-12
-0.00010270737
3.9637018e-05
-2.1850373e-12
-0.00011559741
3.869073e-05
-1.7286935e-12
-0.0001278582
3.6927842e-05
-1.2759282e-12
-0.00013923004
3.4366132e-05
-8.6780356e-13
-0.00014945958
3.1020245e-05
-4.9536138e-13
-0.0001583023
2.6909536e-05
-9.7220365e-14
-0.00016552706
2.2066339e-05
3.7722565e-13
-0.00017092256
1.6543712e-05
8.9021344e-13
-0.0001743054
1.0421908e-05
1.3233628e-12
-0.00017552915
3.8130057e-06
1.5819781e-12
-0.00017449393
-3.1369242e-06
1.7074079e-12
-0.00017115571
-1.0248115e-05
1.8603095e-12
-0.00016553464
-1.7310117e-05
2.1869693e-12
-0.00015772175
-2.4088435e-05
2.6067426e-12
-0.00014788304
-3.0333468e-05
2.8076976e-12
-0.00013626045
-3.5792428e-05
2.5498026e-12
-0.00012316884
-4.022347e-05
2.0227071e-12
-0.00010898864
-4.3411387e-05
1.8019128e-12
-9.4153756e-05
-4.5183853e-05
2.2624738e-12
-7.9134799e-05
-4.5427051e-05
3.0082577e-12
-6.4417981e-05
-4.4099462e-05
3.1355688e-12
-5.048029e-05
-4.1242785e-05
2.3176872e-12
-3.7762123e-05
-3.6989368e-05
1.4741322e-12
-2.6638866e-05
-3.1566037e-05
1.8420308e-12
-1.7393202e-05
-2.5295041e-05
3.2617651e-12
-1.018988e-05
-1.8593965e-05
4.2428057e-12
-5.0546862e-06
-1.1977112e-05
4.1596997e-12
-1.8598507e-06
-6.0578408e-06
2.8606623e-12
-3.2225877e-07
-1.5554664e-06
-1.8376391e-14
6.4203845e-07
5.8559433e-12
-1.6931738e-06
3.5255009e-06
-1.7161716e-11
-6.3714208e-06
1.2332466e-05
9.6346134e-12
-1.3671464e-05
2.1446339e-05
-5.3963088e-12
-2.3234063e-05
3.0011769e-05
-7.5641612e-12
-3.4695233e-05
3.7552878e-05
-4.8349655e-12
-4.7689793e-05
4.3818722e-05
-4.25953e-12
-6.1857474e-05
4.8712926e-05
-4.1254393e-12
-7.6847996e-05
5.2235344e-05
-3.744931e-12
-9.2323776e-05
5.4434698e-05
-3.3304221e-12
-0.00010796016
5.5375975e-05
-2.9548581e-12
-0.00012344383
5.5120694e-05
-2.5815994e-12
-0.00013847054
5.3717438e-05
-2.1645778e-12
-0.00015274305
5.1200359e-05
-1.6934467e-12
-0.00016597035
4.7593434e-05
-1.214512e-12
-0.00017786853
4.2918435e-05
-7.8584845e-13
-0.00018816383
3.7204836e-05
-4.07922e-13
-0.00019659767
3.0500166e-05
-6.0685414e-15
-0.00020293361
2.2879652e-05
4.9508399e-13
-0.00020696591
1.4454215e-05
1.0734163e-12
-0.00020852906
5.3761713e-06
1.588592e-12
-0.00020750788
-4.158092e-06
1.8891749e-12
-0.00020384745
-1.3908557e-05
1.9799514e-12
-0.00019756227
-2.3595335e-05
2.06663e-12
-0.00018874379
-3.290693e-05
2.3874289e-12
-0.00017756573
-4.1511516e-05
2.9108801e-12
-0.00016428609
-4.9072014e-05
3.253425e-12
-0.00014924535
-5.5264189e-05
3.0321756e-12
-0.00013285977
-5.9797006e-05
2.3836704e-12
-0.00011560959
-6.2434108e-05
2.0150836e-12
-9.802172e-05
-6.3014959e-05
2.4941239e-12
-8.0647178e-05
-6.1473932e-05
3.4407987e-12
-6.4034094e-05
-5.7855755e-05
3.7540072e-12
-4.8697364e-05
-5.2326075e-05
2.95145e-12
-3.5086883e-05
-4.517663e-05
1.9857435e-12
-2.3556714e-05
-3.6825322e-05
2.134615e-12
-1.4337887e-05
-2.7812767e-05
3.45486e-12
-7.517448e-06
-1.8797447e-05
4.9987492e-12
-3.0267023e-06
-1.0548578e-05
3.6147679e-12
-6.4250242e-07
-3.9397074e-06
-2.3903139e-12
-4.7683432e-10
8.0914079e-12
-2.1329393e-06
5.6584598e-06
-1.9916175e-11
-7.8910782e-06
1.8090592e-05
1.4466445e-11
-1.6717403e-05
3.0272669e-05
-4.610815e-12
-2.8105729e-05
4.1400103e-05
-7.5910328e-12
-4.1585063e-05
5.1032216e-05
-4.3752356e-12
-5.671409e-05
5.8947754e-05
-3.8388666e-12
-7.3078213e-05
6.5077052e-05
-3.8429769e-12
-9.0287001e-05
6.9444135e-05
-3.5179303e-12
-0.00010797121
7.2118913e-05
-3.1195701e-12
-0.00012577913
7.31839e-05
-2.7493539e-12
-0.00014337258
7.2714146e-05
-2.4050308e-12
-0.00016042323
7.0768092e-05
-2.0569332e-12
-0.00017660999
6.738711e-05
-1.6543109e-12
-0.00019161792
6.260137e-05
-1.1819824e-12
-0.00020513927
5.6439801e-05
-6.9486596e-13
-0.00021687658
4.8942155e-05
-2.7373271e-13
-0.00022654788
4.0171463e-05
6.3748117e-14
-0.0002338938
3.0225561e-05
3.9862999e-13
-0.00023868624
1.9246644e-05
8.4152519e-13
-0.00024073816
7.4280973e-06
1.4021181e-12
-0.0002399141
-4.9821277e-06
1.9235949e-12
-0.00023614076
-1.7681884e-05
2.19602e-12
-0.00022941722
-3.0318883e-05
2.1597927e-12
-0.00021982393
-4.2500253e-05
2.0576608e-12
-0.00020752973
-5.3805753e-05
2.2436835e-12
-0.00019279593
-6.3805805e-05
2.7727597e-12
-0.00017597653
-7.2083531e-05
3.2086943e-12
-0.00015751346
-7.8260025e-05
3.0105439e-12
-0.00013792598
-8.2021622e-05
2.2290873e-12
-0.00011779364
-8.3147394e-05
1.6805697e-12
-9.7732919e-05
-8.1534715e-05
2.1185152e-12
-7.8368085e-05
-7.7220531e-05
3.1957251e-12
-6.0297784e-05
-7.0396257e-05
3.6856976e-12
-4.4059445e-05
-6.1414937e-05
2.9983447e-12
-3.0094414e-05
-5.0790447e-05
2.0524926e-12
-1.8717293e-05
-3.918997e-05
2.4952045e-12
-1.0093052e-05
-2.7421654e-05
4.882561e-12
-4.2252875e-06
-1.6416288e-05
3.9361633e-12
-9.5847519e-07
-7.2065149e-06
-4.7765157e-12
-9.5898089e-07
1.0128687e-11
-2.545054e-06
8.203536e-06
-2.269245e-11
-9.3288414e-06
2.4874361e-05
1.8762023e-11
-1.961535e-05
4.0559183e-05
-4.1046061e-12
-3.2756823e-05
5.4541584e-05
-7.823865e-12
-4.8175843e-05
6.6451241e-05
-4.1447741e-12
-6.5354027e-05
7.6125941e-05
-3.6559931e-12
-8.3822053e-05
8.3545081e-05
-3.8092075e-12
-0.00010315051
8.8772596e-05
-3.5708987e-12
-0.00012294149
9.1909889e-05
-3.2264473e-12
-0.0001428208
9.3063214e-05
-2.8712748e-12
-0.00016243116
9.2324514e-05
-2.5184177e-12
-0.00018142667
8.9763605e-05
-2.1905279e-12
-0.00019946902
8.5429459e-05
-1.8604373e-12
-0.0002162258
7.9358147e-05
-1.4623519e-12
-0.00023137104
7.1585049e-05
-9.6912207e-13
-0.00024458804
6.215917e-05
-4.4108896e-13
-0.0002555743
5.1157735e-05
1.4960647e-14
-0.00026404837
3.8699637e-05
3.515827e-13
-0.00026975838
2.4956636e-05
6.4944811e-13
-0.00027249181
1.0161511e-05
1.0595255e-12
-0.0002720864
-5.3875348e-06
1.6376139e-12
-0.00026844144
-2.1326818e-05
2.2376906e-12
-0.00026152947
-3.7230831e-05
2.5557838e-12
-0.00025140712
-5.26226e-05
2.4611639e-12
-0.00023822474
-6.6988175e-05
2.2107253e-12
-0.00022223344
-7.9797155e-05
2.2771504e-12
-0.00020378847
-9.0528506e-05
2.8281101e-12
-0.00018334746
-9.8700975e-05
3.3993768e-12
-0.00016146223
-0.00010390678
3.2968951e-12
-0.00013876312
-0.00010584652
2.4708043e-12
-0.00011593526
-0.00010436267
1.8065516e-12
-9.3687516e-05
-9.9468349e-05
2.1828462e-12
-7.2715397e-05
-9.1368331e-05
3.2615288e-12
-5.3660671e-05
-8.0469558e-05
3.7127025e-12
-3.7071021e-05
-6.7380076e-05
2.9309344e-12
-2.3363941e-05
-5.2897126e-05
2.5347461e-12
-1.2799332e-05
-3.7986309e-05
4.7635926e-12
-5.4648763e-06
-2.3750719e-05
3.6420166e-12
-1.2772444e-06
-1.1394111e-05
-7.5362855e-12
-2.2362421e-06
1.2764041e-11
-2.9284793e-06
1.1132041e-05
-2.5391316e-11
-1.0673662e-05
3.2619521e-05
2.2611036e-11
-2.2336152e-05
5.2221677e-05
-3.7744245e-12
-3.7135937e-05
6.9341378e-05
-8.1630256e-12
-5.4394052e-05
8.370936e-05
-4.0290867e-12
-7.3517546e-05
9.524944e-05
-3.5678683e-12
-9.3984193e-05
0.00010401173
-3.8395368e-12
-0.00011532783
0.00011011623
-3.675759e-12
-0.00013712502
0.00011370708
-3.4061472e-12
-0.00015898335
0.00011492155
-3.1044809e-12
-0.00018053157
0.00011387274
-2.7494278e-12
-0.00020141191
0.00011064396
-2.387673e-12
-0.00022127477
0.00010529233
-2.0607312e-12
-0.00023977591
9.7859279e-05
-1.7382222e-12
-0.00025657609
8.8385227e-05
-1.3390858e-12
-0.00027134316
7.6926245e-05
-8.1643921e-13
-0.00028375627
6.3570861e-05
-2.2883044e-13
-0.00029351211
4.8455487e-05
2.8847734e-13
-0.00030033289
3.1777424e-05
6.4605826e-13
-0.00030397603
1.3804641e-05
9.0856927e-13
-0.00030424526
-5.1183291e-06
1.2651686e-12
-0.00030100268
-2.456941e-05
1.8683671e-12
-0.00029418223
-4.4051258e-05
2.5502969e-12
-0.00028380296
-6.300183e-05
2.9478193e-12
-0.00026998193
-8.0809198e-05
2.8334579e-12
-0.00025294524
-9.6833883e-05
2.4491641e-12
-0.0002330358
-0.00011043801
2.3749122e-12
-0.00021071585
-0.00012102095
2.9018221e-12
-0.00018656252
-0.00012806005
3.5650746e-12
-0.00016125466
-0.0001311543
3.5557114e-12
-0.00013554983
-0.0001300675
2.7508037e-12
-0.0001102514
-0.00012476687
2.0763941e-12
-8.6167357e-05
-0.00011545244
2.4340369e-12
-6.4063698e-05
-0.00010257318
3.3388559e-12
-4.4616607e-05
-8.6827087e-05
3.4032865e-12
-2.8368489e-05
-6.9145241e-05
3.1416849e-12
-1.5693151e-05
-5.06617e-05
5.2385002e-12
-6.7752291e-06
-3.2668664e-05
3.3068046e-12
-1.6070331e-06
-1.6562282e-05
-1.0685566e-11
-3.843282e-06
1.5380469e-11
-3.2816959e-06
1.4413765e-05
-2.7960253e-11
-1.1915856e-05
4.1253657e-05
2.6055051e-11
-2.4855482e-05
6.5161308e-05
-3.5634785e-12
-4.119987e-05
8.5685774e-05
-8.5570204e-12
-6.017624e-05
0.00010268573
-3.9976487e-12
-8.1122155e-05
0.00011619536
-3.5467271e-12
-0.00010346618
0.00012635577
-3.9017446e-12
-0.00012670873
0.00013335879
-3.7715512e-12
-0.00015040447
0.00013740282
-3.5551721e-12
-0.00017414694
0.00013866401
-3.3334995e-12
-0.00019755572
0.00013728152
-3.0321504e-12
-0.00022026643
0.00013335468
-2.6547902e-12
-0.00024192361
0.00012694951
-2.269162e-12
-0.00026217638
0.00011811206
-1.9288525e-12
-0.00028067686
0.0001068857
-1.6086652e-12
-0.00029708098
9.3330362e-05
-1.2122625e-12
-0.00031105163
7.7541506e-05
-6.6446809e-13
-0.00032226381
5.9667677e-05
-1.083144e-14
-0.00033041185
3.9925493e-05
5.8509257e-13
-0.00033521862
1.8611416e-05
9.6835496e-13
-0.00033644678
-3.8901787e-06
1.1648266e-12
-0.00033391141
-2.7104819e-05
1.4899745e-12
-0.00032749567
-5.0467023e-05
2.0766497e-12
-0.00031716659
-7.3330887e-05
2.8238786e-12
-0.00030299201
-9.4983733e-05
3.3138448e-12
-0.00028515654
-0.00011466933
3.2119206e-12
-0.00026397493
-0.00013161966
2.723593e-12
-0.00023990043
-0.00014509553
2.5084929e-12
-0.00021352568
-0.00015443482
2.9627281e-12
-0.00018557364
-0.00015910629
3.6350746e-12
-0.00015687642
-0.00015876464
3.6653636e-12
-0.0001283415
-0.00015330179
2.9337641e-12
-0.00010090599
-0.00014288802
2.3798151e-12
-7.5482447e-05
-0.00012799678
2.6685185e-12
-5.2901112e-05
-0.00010940839
3.0432328e-12
-3.385507e-05
-8.8191234e-05
3.4554542e-12
-1.885476e-05
-6.5662016e-05
6.1132272e-12
-8.1982627e-06
-4.3325192e-05
3.3214558e-12
-1.9611677e-06
-2.2799373e-05
-1.4052058e-11
-5.8044611e-06
1.80006e-11
-3.6022983e-06
1.8016094e-05
-3.0363665e-11
-1.3044856e-05
5.0696186e-05
2.909388e-11
-2.7149255e-05
7.9265712e-05
-3.4498944e-12
-4.4907114e-05
0.00010344364
-8.9814565e-12
-6.5461426e-05
0.00012324005
-4.0359123e-12
-8.8087127e-05
0.00013882106
-3.6033376e-12
-0.00011216867
0.00015043731
-4.03922e-12
-0.00013717726
0.00015836738
-3.9194165e-12
-0.00016264969
0.00016287526
-3.7090841e-12
-0.00018816971
0.00016418404
-3.5387421e-12
-0.0002133524
0.00016246421
-3.3255206e-12
-0.00023783176
0.00015783404
-3.0105738e-12
-0.00026125162
0.00015036938
-2.6040669e-12
-0.00028325952
0.00014011997
-2.1800267e-12
-0.00030350349
0.00012712968
-1.8122181e-12
-0.00032163131
0.00011145819
-1.4894967e-12
-0.00033729209
9.3202273e-05
-1.1010969e-12
-0.00035014003
7.2515604e-05
-5.3505317e-13
-0.00035984043
4.9625905e-05
1.8595814e-13
-0.00036607806
2.4849067e-05
8.5679986e-13
-0.0003685686
-1.3996278e-06
1.2345262e-12
-0.00036707098
-2.8602444e-05
1.5014996e-12
-0.00036140603
-5.6132011e-05
1.7440783e-12
-0.00035147428
-8.326268e-05
2.2787032e-12
-0.00033727754
-0.00010918046
3.062774e-12
-0.00031894062
-0.0001330062
3.6339859e-12
-0.00029673147
-0.00015382878
3.5658329e-12
-0.00027107702
-0.00017075
3.0195305e-12
-0.00024257144
-0.00018294048
2.6971936e-12
-0.00021197313
-0.00018970464
3.051621e-12
-0.00018018746
-0.00019055026
3.6450954e-12
-0.00014823317
-0.000185256
3.662663e-12
-0.00011719264
-0.00017392855
3.0754202e-12
-8.8148892e-05
-0.00015704059
2.6184916e-12
-6.2115356e-05
-0.00013544196
2.482045e-12
-3.9966461e-05
-0.00011034011
3.2169888e-12
-2.2377582e-05
-8.3250872e-05
6.868365e-12
-9.7826774e-06
-5.5920101e-05
3.5513814e-12
-2.3546967e-06
-3.022735e-05
-1.7564509e-11
-8.1591813e-06
2.0936533e-11
-3.887045e-06
2.1903172e-05
-3.2557914e-11
-1.4048642e-05
6.0857752e-05
3.1713304e-11
-2.9192017e-05
9.4409092e-05
-3.4287233e-12
-4.8215204e-05
0.00012246684
-9.4242109e-12
-7.0187756e-05
0.0001452126
-4.123014e-12
-9.4329947e-05
0.00016296326
-3.7099257e-12
-0.00011998807
0.00017609544
-4.241651e-12
-0.00014660891
0.00018498822
-4.1511838e-12
-0.00017371568
0.00018998203
-3.9275776e-12
-0.00020088662
0.00019135499
-3.7492432e-12
-0.00022773683
0.00018931441
-3.5822264e-12
-0.00025390353
0.00018400074
-3.3662906e-12
-0.0002790349
0.00017550075
-3.0400675e-12
-0.000302782
0.00016386708
-2.5992425e-12
-0.00032479363
0.00014914132
-2.1241234e-12
-0.00034471368
0.00013137825
-1.7147753e-12
-0.00036218089
0.00011066948
-1.3816413e-12
-0.00037683077
8.7165467e-05
-1.0049952e-12
-0.00038830005
6.1095176e-05
-4.3274297e-13
-0.00039623391
3.2782926e-05
3.5888448e-13
-0.00040029602
2.6624993e-06
1.1884612e-12
-0.00040018351
-2.8714929e-05
1.6736375e-12
-0.00039564369
-6.0671832e-05
1.8720822e-12
-0.00038649702
-9.2409388e-05
2.0348719e-12
-0.00037266233
-0.0001230152
2.5068714e-12
-0.00035418469
-0.00015148383
3.2874321e-12
-0.00033126352
-0.00017674991
3.9000838e-12
-0.00030427756
-0.00019773592
3.8595522e-12
-0.00027380275
-0.0002134153
3.2938745e-12
-0.00024061812
-0.00022288933
2.9066074e-12
-0.00020569506
-0.00022547337
3.1428883e-12
-0.00017016626
-0.00022078477
3.5997004e-12
-0.00013527305
-0.0002088217
3.6155612e-12
-0.00010229323
-0.00019002042
3.1046283e-12
-7.2455884e-05
-0.00016527935
2.3502036e-12
-4.6853269e-05
-0.00013594274
2.8600984e-12
-2.6361344e-05
-0.00010374279
7.3836066e-12
-1.1580427e-05
-7.0701005e-05
3.6947102e-12
-2.8033097e-06
-3.9004446e-05
-2.1436101e-11
-1.0962521e-05
2.4395324e-11
-4.1321109e-06
2.6035318e-05
-3.4492106e-11
-1.4914078e-05
7.1639686e-05
3.3906082e-11
-3.0957093e-05
0.00011045211
-3.4908087e-12
-5.1080593e-05
0.00014259035
-9.8854603e-12
-7.4292185e-05
0.0001684242
-4.2602835e-12
-9.9766008e-05
0.00018843708
-3.8440012e-12
-0.00012681654
0.00020314598
-4.4637282e-12
-0.00015487113
0.00021304281
-4.4357684e-12
-0.00018344374
0.00021855464
-4.2341231e-12
-0.00021211127
0.00022002253
-4.0318025e-12
-0.00024049318
0.00021769634
-3.8385599e-12
-0.00026823465
0.00021174221
-3.6600671e-12
-0.00029499322
0.00020225931
-3.4449916e-12
-0.00032042873
0.00018930259
-3.1106367e-12
-0.00034419607
0.00017290867
-2.6340867e-12
-0.00036594039
0.00015312259
-2.0992751e-12
-0.00038529468
0.00013002379
-1.6345291e-12
-0.00040187964
0.00010375042
-1.2802096e-12
-0.00041530607
7.452159e-05
-9.1435791e-13
-0.00042518041
4.2657245e-05
-3.2750004e-13
-0.00043111361
8.5956955e-06
5.6025842e-13
-0.00043273586
-2.7092656e-05
1.3978564e-12
-0.0004297138
-6.3693866e-05
2.0077063e-12
-0.00042177583
-0.00010034736
2.2499163e-12
-0.00040874139
-0.00013604967
2.3750466e-12
-0.0003905551
-0.00016967018
2.7817067e-12
-0.00036732324
-0.00019998177
3.5160849e-12
-0.00033934954
-0.00022570958
4.1094517e-12
-0.00030716511
-0.00024559969
4.0650776e-12
-0.00027154661
-0.00025850785
3.499831e-12
-0.00023351584
-0.0002635042
3.0752826e-12
-0.00019431486
-0.00025998579
3.1929173e-12
-0.0001553528
-0.00024778373
3.5321899e-12
-0.00011812516
-0.00022724801
3.4362321e-12
-8.4111757e-05
-0.00019929276
2.5454611e-12
-5.4665444e-05
-0.00016538909
2.7799922e-12
-3.0907324e-05
-0.00012750093
7.9545139e-12
-1.3644687e-05
-8.7963639e-05
3.6894152e-12
-3.3229869e-06
-4.9326114e-05
-2.5961115e-11
-1.4285538e-05
2.8437655e-11
-4.3334482e-06
3.0368804e-05
-3.6125723e-11
-1.5627775e-05
8.2933977e-05
3.5666797e-11
-3.2417873e-05
0.00012724221
-3.6071783e-12
-5.3460247e-05
0.00016363274
-1.0351436e-11
-7.7712373e-05
0.00019267633
-4.4629505e-12
-0.00010431089
0.0002150356
-4.0208818e-12
-0.00013254477
0.00023137986
-4.6860902e-12
-0.00016182676
0.00024232481
-4.7165927e-12
-0.00019166568
0.00024839356
-4.582095e-12
-0.00022164102
0.00024999787
-4.4075532e-12
-0.00025138072
0.00024743604
-4.1798302e-12
-0.00028054237
0.00024090387
-3.954009e-12
-0.00030879792
0.00023051487
-3.7620347e-12
-0.00033582147
0.00021632613
-3.5481959e-12
-0.00036127985
0.00019836704
-3.2093287e-12
-0.00038482562
0.00017666835
-2.6999249e-12
-0.00040609221
0.00015129039
-2.1015663e-12
-0.00042469143
0.00012234966
-1.5693342e-12
-0.00044021348
9.0043654e-05
-1.1759511e-12
-0.00045223029
5.4674034e-05
-7.9842401e-13
-0.00046030269
1.6668066e-05
-2.05098e-13
-0.00046399324
-2.3402118e-05
6.4951749e-13
-0.00046288415
-6.4802936e-05
1.620721e-12
-0.00045660307
-0.00010662841
2.3427865e-12
-0.00044485575
-0.00014779697
2.6421811e-12
-0.00042746582
-0.00018706014
2.7592529e-12
-0.00040441995
-0.00022302769
3.1050264e-12
-0.00037591537
-0.00025421417
3.7492983e-12
-0.00034240434
-0.00027911068
4.2529833e-12
-0.00030462839
-0.00029628376
4.1594487e-12
-0.00026363318
-0.00030449942
3.5940124e-12
-0.00022075498
-0.00030286403
3.1610133e-12
-0.00017757152
-0.00029096722
3.2169103e-12
-0.00013581492
-0.0002690046
3.3084642e-12
-9.7251854e-05
-0.0002378558
2.5803593e-12
-6.3544788e-05
-0.00019909616
2.8797052e-12
-3.6114667e-05
-0.00015493108
8.8296365e-12
-1.602855e-05
-0.00010804977
3.7074866e-12
-3.9298335e-06
-6.1424797e-05
-3.1288768e-11
-1.8215402e-05
3.311251e-11
-4.4872184e-06
3.4856061e-05
-3.7434349e-11
-1.6177306e-05
9.4624029e-05
3.6971739e-11
-3.3549863e-05
0.00014461477
-3.7470178e-12
-5.5314498e-05
0.00018539738
-1.0782132e-11
-8.0390287e-05
0.00021775213
-4.7215255e-12
-0.00010788469
0.00024253002
-4.2662291e-12
-0.00013706711
0.00026056229
-4.9378656e-12
-0.00016734011
0.00027259781
-4.9792735e-12
-0.00019821101
0.00027926446
-4.9027667e-12
-0.0002292654
0.00028105226
-4.808511e-12
-0.00026014344
0.00027831408
-4.6166887e-12
-0.00029051941
0.00027127985
-4.3485099e-12
-0.00032008454
0.00026008002
-4.0853517e-12
-0.00034853288
0.00024477447
-3.8721213e-12
-0.00037554962
0.00022538379
-3.6552021e-12
-0.00040080187
0.00020192059
-3.3138585e-12
-0.00042393128
0.00017441979
-2.7764288e-12
-0.00044454897
0.00014296736
-2.1147522e-12
-0.00046223288
0.00010772758
-1.5019475e-12
-0.00047652828
6.8969447e-05
-1.0418305e-12
-0.00048695254
2.7092313e-05
-6.3518322e-13
-0.00049300532
-1.7349369e-05
-5.5658084e-14
-0.00049418533
-6.3622944e-05
8.4108888e-13
-0.00049001552
-0.0001107982
1.8807027e-12
-0.00048007743
-0.00015773502
2.6848059e-12
-0.00046405536
-0.0002030822
3.0475114e-12
-0.00044178947
-0.0002452936
3.1755253e-12
-0.0004133355
-0.00028266818
3.4569028e-12
-0.00037902574
-0.00031342046
3.9618955e-12
-0.00033952312
-0.00033578635
4.3025041e-12
-0.00029585731
-0.00034816519
4.1092674e-12
-0.00024942963
-0.00034929173
3.555718e-12
-0.00020197484
-0.00033842203
3.190176e-12
-0.00015547275
-0.00031550672
3.0279559e-12
-0.00011201152
-0.00028131702
2.2691767e-12
-7.3617441e-05
-0.00023749022
2.838073e-12
-4.2076971e-05
-0.00018647155
9.9461323e-12
-1.8783991e-05
-0.00013134276
3.8646695e-12
-4.6400091e-06
-7.5568746e-05
-3.7457456e-11
-2.2855448e-05
3.8548348e-11
-4.5902791e-06
3.9446379e-05
-3.8394587e-11
-1.6552673e-05
0.00010658639
3.7782607e-11
-3.4333316e-05
0.00016239542
-3.9073853e-12
-5.6610834e-05
0.00020767491
-1.1140711e-11
-8.2277111e-05
0.00024341841
-4.9941141e-12
-0.00011041809
0.000270671
-4.5687987e-12
-0.00014028879
0.00029043301
-5.2532331e-12
-0.00017128536
0.00030359438
-5.2687375e-12
-0.00020291671
0.00031089582
-5.1899479e-12
-0.00023477749
0.00031291304
-5.1540349e-12
-0.00026652337
0.00031005996
-5.0531436e-12
-0.00029784922
0.00030260571
-4.8319881e-12
-0.00032847035
0.00029070116
-4.5216668e-12
-0.00035810645
0.00027441058
-4.2113435e-12
-0.00038646796
0.00025374531
-3.9635685e-12
-0.00041324456
0.00022869718
-3.7332616e-12
-0.00043809538
0.0001992706
-3.3862623e-12
-0.00046064123
0.0001655132
-2.8238003e-12
-0.00048045902
0.00012754537
-2.0998798e-12
-0.00049707915
8.5589599e-05
-1.3961386e-12
-0.00050998688
4.0000057e-05
-8.5045733e-13
-0.00051862907
-8.7071815e-06
-3.9367604e-13
-0.00052242805
-5.9823999e-05
2.1156189e-13
-0.00052080435
-0.00011242192
1.1290943e-12
-0.00051321062
-0.00016532874
2.20275e-12
-0.00049917794
-0.00021711485
3.0567053e-12
-0.00047837522
-0.00026609631
3.4680322e-12
-0.00045068034
-0.00031036308
3.603626e-12
-0.00041625869
-0.00034784215
3.7973816e-12
-0.00037564066
-0.00037640439
4.1014043e-12
-0.00032978514
-0.0003940207
4.2060471e-12
-0.00028011173
-0.00039896511
3.9017765e-12
-0.00022848359
-0.00039005019
3.4383528e-12
-0.00017712606
-0.00036686427
2.9355578e-12
-0.00012847758
-0.00032996551
1.8271904e-12
-8.4985533e-05
-0.00028098227
2.5564748e-12
-4.8878607e-05
-0.00022257848
1.1131776e-11
-2.1960809e-05
-0.00015826056
4.0978543e-12
-5.4696747e-06
-9.2059838e-05
-4.4553051e-11
-2.8325169e-05
4.4912886e-11
-4.6407156e-06
4.4087133e-05
-3.897541e-11
-1.6747975e-05
0.00011869361
3.8080415e-11
-3.4756285e-05
0.00018040374
-4.1095675e-12
-5.7328417e-05
0.00023024706
-1.1428861e-11
-8.3339199e-05
0.00026942919
-5.2474613e-12
-0.00011185963
0.00029919144
-4.8804834e-12
-0.00014213464
0.00032070802
-5.6168761e-12
-0.00017355689
0.00033501664
-5.627205e-12
-0.00020563929
0.00034297822
-5.5073854e-12
-0.00023798792
0.00034526169
-5.4523299e-12
-0.00027027682
0.00034234885
-5.4010348e-12
-0.00030222499
0.00033455388
-5.2772355e-12
-0.00033357631
0.00032205247
-5.025552e-12
-0.00036408183
0.00030491611
-4.6659745e-12
-0.00039348435
0.00028314784
-4.2951842e-12
-0.00042150475
0.0002567176
-3.9951084e-12
-0.00044783006
0.00022559591
-3.7336994e-12
-0.00047210297
0.00018978609
-3.3694475e-12
-0.00049391328
0.00014935568
-2.7789236e-12
-0.00051279182
0.00010446815
-1.9931379e-12
-0.00052820781
5.5416071e-05
-1.1951634e-12
-0.00053957112
2.6561498e-06
-5.4583349e-13
-0.00054624157
-5.315356e-05
-2.1842057e-14
-0.00054754716
-0.00011111635
6.2519285e-13
-0.00054281476
-0.00017006116
1.5547158e-12
-0.00053141557
-0.00022851404
2.6249918e-12
-0.0005128278
-0.00028468405
3.4808936e-12
-0.00048671713
-0.00033647374
3.902486e-12
-0.00045303224
-0.00038152706
4.0109812e-12
-0.00041210805
-0.00041732862
4.060259e-12
-0.00036476258
-0.00044136619
4.0859387e-12
-0.00031236666
-0.00045136102
3.9357862e-12
-0.00025686067
-0.00044555616
3.6090294e-12
-0.00020069369
-0.00042303124
2.9764504e-12
-0.00014667106
-0.00038398816
1.4441739e-12
-9.7717356e-05
-0.00032993597
2.172363e-12
-5.6590301e-05
-0.00026370555
1.2368606e-11