/*--------------------------------*- C++ -*----------------------------------*\
  =========                 |
  \\      /  F ield         | OpenFOAM: The Open Source CFD Toolbox
   \\    /   O peration     | Website:  https://openfoam.org
    \\  /    A nd           | Version:  7
     \\/     M anipulation  |
\*---------------------------------------------------------------------------*/
FoamFile
{
    version     2.0;
    format      ascii;
    class       volVectorField;
    location    "29";
    object      U;
}
// * * * * * * * * * * * * * * * * * * * * * * * * * * * * * * * * * * * * * //

dimensions      [0 1 -1 0 0 0 0];

internalField   nonuniform List<vector> 
16000
(
(6.6009587e-05 -6.73674e-05 -4.2710773e-07)
(0.00016270298 -5.6374433e-05 5.6716563e-06)
(0.00014190042 4.553055e-07 1.917126e-05)
(-5.0627761e-05 6.1887417e-05 3.6593772e-05)
(-0.00040997643 0.00011562954 5.4702383e-05)
(-0.00090902781 0.0001577431 7.1530828e-05)
(-0.001517712 0.0001885044 8.5742971e-05)
(-0.0022068857 0.00020960885 9.6523645e-05)
(-0.0029506 0.00022287658 0.00010341254)
(-0.0037264625 0.00022981092 0.00010616274)
(-0.0045150472 0.00023147693 0.000104647)
(-0.0052990089 0.00022850376 9.8802285e-05)
(-0.0060621878 0.00022114717 8.8603974e-05)
(-0.0067888579 0.00020938279 7.4062596e-05)
(-0.0074632092 0.00019301344 5.5236861e-05)
(-0.0080691099 0.00017178035 3.2257017e-05)
(-0.0085901621 0.00014547144 5.3530695e-06)
(-0.0090100419 0.0001140217 -2.5117028e-05)
(-0.0093130942 7.7601238e-05 -5.864346e-05)
(-0.0094851401 3.6687365e-05 -9.4548701e-05)
(-0.0095144399 -7.8862538e-06 -0.00013198316)
(-0.0093927215 -5.4923781e-05 -0.0001699355)
(-0.009116216 -0.00010284323 -0.00020725904)
(-0.0086865949 -0.0001497493 -0.00024271584)
(-0.0081116852 -0.00019351205 -0.00027503643)
(-0.0074058899 -0.00023188588 -0.00030299248)
(-0.0065902159 -0.00026265995 -0.00032547781)
(-0.0056918503 -0.00028382599 -0.00034159196)
(-0.0047432573 -0.00029374761 -0.00035071967)
(-0.0037808156 -0.00029131215 -0.00035259901)
(-0.0028430628 -0.00027604732 -0.0003473707)
(-0.0019686533 -0.00024818846 -0.00033560308)
(-0.001194146 -0.00020869609 -0.00031829197)
(-0.00055166719 -0.00015926014 -0.00029684036)
(-6.6505938e-05 -0.00010240741 -0.00027301528)
(0.00024492166 -4.1756799e-05 -0.00024887469)
(0.00037893943 1.7847821e-05 -0.00022680354)
(0.00034978114 6.7073806e-05 -0.00020924127)
(0.0002061858 8.9857659e-05 -0.00019885756)
(5.7465861e-05 5.7410704e-05 -0.00018441387)
(5.798389e-05 -0.00016707966 -6.659401e-06)
(4.0849587e-05 -3.99902e-05 -4.0672612e-07)
(-0.00029499848 0.00024854963 1.1226729e-05)
(-0.0010110411 0.0005621156 2.5592733e-05)
(-0.0020992406 0.00084749229 4.0577735e-05)
(-0.0035140964 0.0010831184 5.4585944e-05)
(-0.0051946911 0.0012642998 6.6490021e-05)
(-0.0070766314 0.0013940667 7.5537619e-05)
(-0.0090981489 0.0014779596 8.1246942e-05)
(-0.011202301 0.001521526 8.331836e-05)
(-0.013337027 0.0015292098 8.156855e-05)
(-0.015454167 0.0015039744 7.5887545e-05)
(-0.017508137 0.0014473561 6.6217051e-05)
(-0.019454701 0.0013597768 5.2546344e-05)
(-0.021250138 0.0012410009 3.4921485e-05)
(-0.022850956 0.0010906577 1.3463552e-05)
(-0.024214205 0.00090877424 -1.1608455e-05)
(-0.02529841 0.00069627509 -3.9954423e-05)
(-0.026065032 0.00045541403 -7.1093566e-05)
(-0.026480373 0.00019010689 -0.00010439178)
(-0.026517789 -9.3864613e-05 -0.00013905855)
(-0.026159962 -0.00038877439 -0.0001741626)
(-0.025401145 -0.00068508915 -0.00020864797)
(-0.024249147 -0.00097175751 -0.00024138171)
(-0.02272673 -0.0012366924 -0.00027120771)
(-0.020872331 -0.0014674265 -0.00029701455)
(-0.018739897 -0.0016519033 -0.00031781098)
(-0.016397705 -0.0017793477 -0.00033280223)
(-0.013926117 -0.0018411431 -0.00034146098)
(-0.011414309 -0.0018316338 -0.00034358709)
(-0.0089560919 -0.0017487763 -0.00033935024)
(-0.0066450009 -0.0015945867 -0.00032931003)
(-0.0045688961 -0.0013753878 -0.00031440893)
(-0.002804226 -0.001101964 -0.00029593924)
(-0.0014100229 -0.00078992166 -0.00027548972)
(-0.00042163526 -0.00046059041 -0.0002548708)
(0.00015577094 -0.00014255956 -0.00023599644)
(0.00035672937 0.00012231861 -0.00022088864)
(0.00027526256 0.00027113391 -0.00021165355)
(9.0120667e-05 0.00020509644 -0.00019547173)
(1.9103332e-06 -0.00014898111 -2.0445793e-05)
(-0.00025606579 0.00029699906 -1.1828281e-05)
(-0.0010504696 0.0010236077 7.0070858e-08)
(-0.0023878423 0.0017975268 1.3050172e-05)
(-0.0042394551 0.0025098942 2.6086404e-05)
(-0.0065455693 0.0031100499 3.8037919e-05)
(-0.0092251263 0.0035809195 4.8077723e-05)
(-0.012189996 0.0039234278 5.5645127e-05)
(-0.015352981 0.0041461805 6.035847e-05)
(-0.018631043 0.0042595864 6.1961091e-05)
(-0.021946062 0.0042728105 6.0280059e-05)
(-0.025224235 0.0041924709 5.5197547e-05)
(-0.028394897 0.0040224653 4.6637262e-05)
(-0.031389361 0.0037645198 3.4564186e-05)
(-0.034140187 0.0034191665 1.8994506e-05)
(-0.036581107 0.0029869363 1.2652565e-08)
(-0.038647713 0.0024696029 -2.2207721e-05)
(-0.040278905 0.0018713568 -4.738222e-05)
(-0.041419014 0.0011998071 -7.5097142e-05)
(-0.042020463 0.00046672985 -0.00010479734)
(-0.042046729 -0.00031149897 -0.00013578488)
(-0.041475434 -0.0011138097 -0.00016722493)
(-0.040301282 -0.0019148734 -0.00019817078)
(-0.038538523 -0.0026858584 -0.00022759945)
(-0.036222723 -0.0033956736 -0.00025446219)
(-0.033411556 -0.0040126027 -0.00027774761)
(-0.030184406 -0.0045062436 -0.00029655284)
(-0.026640626 -0.0048496317 -0.00031015606)
(-0.022896367 -0.0050213829 -0.00031808296)
(-0.019080009 -0.0050076823 -0.00032015991)
(-0.015326321 -0.004803949 -0.00031654963)
(-0.011769567 -0.0044160648 -0.00030776579)
(-0.0085358343 -0.0038611583 -0.00029466284)
(-0.0057348826 -0.0031681001 -0.00027839816)
(-0.0034517069 -0.002378113 -0.00026036876)
(-0.0017379823 -0.0015461887 -0.00024212795)
(-0.000603685 -0.00074419008 -0.00022527969)
(-8.0364038e-06 -6.6362336e-05 -0.00021141442)
(0.00015540663 0.00036039579 -0.00020222778)
(7.3551572e-05 0.00035437629 -0.00018531429)
(-6.468811e-05 5.0415538e-05 -3.8697736e-05)
(-0.00060839101 0.0010457443 -2.6160255e-05)
(-0.0019305517 0.0023817196 -1.2178901e-05)
(-0.003946451 0.0037565028 1.1139643e-06)
(-0.0065890258 0.0050152994 1.3702233e-05)
(-0.0097792075 0.0060800499 2.4826524e-05)
(-0.013417131 0.0069205091 3.3949638e-05)
(-0.017395529 0.0075341012 4.073627e-05)
(-0.021607733 0.0079313846 4.4950452e-05)
(-0.025950688 0.0081270289 4.6420368e-05)
(-0.030325839 0.0081347573 4.5015264e-05)
(-0.034638784 0.0079649911 4.0628776e-05)
(-0.038798346 0.0076243648 3.3173769e-05)
(-0.042715662 0.0071164986 2.2587997e-05)
(-0.046303726 0.0064435451 8.8479377e-06)
(-0.04947764 0.005608137 -8.0118081e-06)
(-0.052155694 0.0046154432 -2.7876019e-05)
(-0.054261255 0.0034751075 -5.0525868e-05)
(-0.055725382 0.002202887 -7.561844e-05)
(-0.056489983 0.00082185174 -0.0001026723)
(-0.056511283 -0.00063696718 -0.00013106251)
(-0.055763388 -0.0021345922 -0.00016002385)
(-0.054241614 -0.003624809 -0.00018867455)
(-0.051965267 -0.0050556133 -0.0002160482)
(-0.048979618 -0.0063713846 -0.0002411422)
(-0.045356768 -0.0075157089 -0.00026297855)
(-0.041195156 -0.0084347174 -0.00028067393)
(-0.036617505 -0.0090807396 -0.00029351324)
(-0.031767119 -0.009416017 -0.00030101826)
(-0.026802499 -0.009416192 -0.00030300195)
(-0.021890403 -0.0090732965 -0.0002996013)
(-0.017197559 -0.0083980341 -0.00029128611)
(-0.012881378 -0.0074212909 -0.00027884346)
(-0.0090800498 -0.0061950193 -0.00026333716)
(-0.005902481 -0.0047929301 -0.00024604048)
(-0.003418499 -0.0033118175 -0.00022834711)
(-0.0016495337 -0.0018745337 -0.00021168079)
(-0.00055980129 -0.00063470937 -0.00019742717)
(-5.0114847e-05 0.00021500096 -0.00018682089)
(3.8094552e-05 0.00041383125 -0.00016801104)
(-0.00013086725 0.0004455566 -5.8213998e-05)
(-0.00097095561 0.0022426733 -4.1150297e-05)
(-0.0028462201 0.004359164 -2.4267875e-05)
(-0.0055648202 0.0064571913 -9.8355052e-06)
(-0.0090094451 0.0083534533 3.0830828e-06)
(-0.013075458 0.0099514303 1.4063103e-05)
(-0.017642269 0.011211727 2.284163e-05)
(-0.022584663 0.012129564 2.931386e-05)
(-0.027779608 0.012717506 3.3402572e-05)
(-0.03310808 0.012994128 3.5034926e-05)
(-0.038455454 0.012977348 3.4133699e-05)
(-0.04371108 0.012681198 3.0610516e-05)
(-0.048767465 0.012115114 2.436842e-05)
(-0.053519571 0.011284973 1.5313794e-05)
(-0.057864633 0.010195248 3.3753293e-06)
(-0.061702723 0.0088517312 -1.1472296e-05)
(-0.064938154 0.0072644322 -2.9182315e-05)
(-0.067481717 0.0054502866 -4.9609585e-05)
(-0.069253624 0.003435433 -7.2486616e-05)
(-0.070186996 0.0012568439 -9.740495e-05)
(-0.070231648 -0.0010368478 -0.00012380521)
(-0.069357942 -0.0033854689 -0.00015097861)
(-0.067560392 -0.0057183864 -0.00017808402)
(-0.064860733 -0.0079566744 -0.00020418)
(-0.06131014 -0.010016289 -0.00022827263)
(-0.056990311 -0.011812175 -0.00024937649)
(-0.052013104 -0.013263124 -0.00026658532)
(-0.046518519 -0.014297128 -0.0002791477)
(-0.040670816 -0.014856873 -0.00028654011)
(-0.034652739 -0.014904982 -0.00028852724)
(-0.028657877 -0.014428595 -0.00028519878)
(-0.02288139 -0.013442956 -0.00027697641)
(-0.01750947 -0.011993815 -0.00026459126)
(-0.01270805 -0.010158709 -0.00024903641)
(-0.0086114627 -0.0080474952 -0.00023149572)
(-0.0053117531 -0.0058029582 -0.00021325514)
(-0.0028485201 -0.0036024757 -0.00019563282)
(-0.0012000352 -0.0016605454 -0.00017988981)
(-0.00028880993 -0.00023378075 -0.00016674344)
(-2.4711899e-06 0.00035046401 -0.00014550763)
(-0.00019286568 0.0010312996 -7.6694204e-05)
(-0.0013239889 0.0038925161 -5.479184e-05)
(-0.0037518603 0.0069679754 -3.4587093e-05)
(-0.0071733016 0.0099107918 -1.8493602e-05)
(-0.011414805 0.012527369 -4.6978645e-06)
(-0.016341475 0.014714475 6.6648923e-06)
(-0.021809605 0.016430474 1.5581737e-05)
(-0.027675855 0.017671991 2.2167325e-05)
(-0.033802365 0.018455221 2.6500093e-05)
(-0.040056807 0.018803187 2.8606702e-05)
(-0.046311788 0.018738053 2.846443e-05)
(-0.052444002 0.018277384 2.6002442e-05)
(-0.05833329 0.017433414 2.1111213e-05)
(-0.063861989 0.016214475 1.3660451e-05)
(-0.068914913 0.014627806 3.523489e-06)
(-0.073380118 0.012683094 -9.3938294e-06)
(-0.077150526 0.010396199 -2.5121937e-05)
(-0.080126363 0.0077926302 -4.3596312e-05)
(-0.082218302 0.0049104422 -6.4628679e-05)
(-0.083351128 0.0018022827 -8.7883403e-05)
(-0.083467733 -0.0014636034 -0.00011286221)
(-0.082533175 -0.0048035699 -0.00013890118)
(-0.080538569 -0.008120034 -0.00016518225)
(-0.077504507 -0.011304318 -0.00019076354)
(-0.07348369 -0.014240811 -0.00021462713)
(-0.068562468 -0.016812369 -0.00023574257)
(-0.062860946 -0.018906758 -0.00025314143)
(-0.056531348 -0.020423835 -0.00026599684)
(-0.049754371 -0.021283026 -0.0002737015)
(-0.042733364 -0.021430587 -0.00027593517)
(-0.035686328 -0.0208461 -0.00027271041)
(-0.028835891 -0.019547656 -0.00026438566)
(-0.022397689 -0.017595377 -0.00025164126)
(-0.016567749 -0.015093156 -0.00023542333)
(-0.011509859 -0.01218885 -0.00021686254)
(-0.0073438955 -0.009073667 -0.00019718464)
(-0.0041345347 -0.005981672 -0.00017766977)
(-0.001881598 -0.0031890392 -0.00015955547)
(-0.00053619242 -0.001014324 -0.00014316343)
(-4.124549e-05 0.00015894774 -0.00011906984)
(-0.00025011681 0.0017985643 -9.2180933e-05)
(-0.0016597731 0.0059841237 -6.5292295e-05)
(-0.0046244556 0.010198591 -4.1605947e-05)
(-0.0087321661 0.014106989 -2.3551157e-05)
(-0.013751596 0.017522302 -8.512795e-06)
(-0.019515065 0.020347081 3.6261427e-06)
(-0.025854122 0.022545887 1.3077429e-05)
(-0.032606977 0.024121966 2.0157184e-05)
(-0.03962184 0.025098072 2.508768e-05)
(-0.046754959 0.025503143 2.7987135e-05)
(-0.053868738 0.025364195 2.8881098e-05)
(-0.060830177 0.024702506 2.7710362e-05)
(-0.067509562 0.023533145 2.4346519e-05)
(-0.073779681 0.021866953 1.8615557e-05)
(-0.079515786 0.019714101 1.0327516e-05)
(-0.084596404 0.017088472 -6.8930939e-07)
(-0.088905027 0.01401222 -1.4551427e-05)
(-0.092332599 0.01052 -3.1282819e-05)
(-0.094780717 0.0066624782 -5.0779956e-05)
(-0.096165363 0.0025088087 -7.2782126e-05)
(-0.096421018 -0.0018521376 -9.6850322e-05)
(-0.09550493 -0.0063119812 -0.00012235897)
(-0.093401337 -0.010744572 -0.0001485016)
(-0.090125389 -0.0150094 -0.00017431782)
(-0.085726419 -0.018956642 -0.00019873955)
(-0.080290265 -0.022433795 -0.00022065733)
(-0.073940214 -0.025293717 -0.00023900115)
(-0.066836181 -0.027403738 -0.00025282798)
(-0.059171701 -0.028655345 -0.00026140741)
(-0.051168461 -0.028973791 -0.00026429688)
(-0.04306821 -0.028326897 -0.00026139715)
(-0.035122168 -0.026732257 -0.00025297685)
(-0.027578318 -0.024262224 -0.00023965656)
(-0.020667331 -0.021046289 -0.00022235086)
(-0.014588339 -0.017270888 -0.00020217462)
(-0.0094958132 -0.013177216 -0.00018034446)
(-0.0054864864 -0.0090579258 -0.00015816583)
(-0.0025879514 -0.0052522173 -0.00013693381)
(-0.00078446875 -0.0021405363 -0.00011665193)
(-7.6873557e-05 -0.00016053932 -8.9446277e-05)
(-0.00030295608 0.0027365229 -0.00010300453)
(-0.0019754979 0.0084980861 -7.1035185e-05)
(-0.0054521381 0.014028552 -4.3887366e-05)
(-0.010217965 0.019021359 -2.374275e-05)
(-0.015985168 0.023311061 -7.2475064e-06)
(-0.022552779 0.026818159 5.941447e-06)
(-0.029727156 0.029522392 1.6238653e-05)
(-0.03732817 0.031439739 2.4141981e-05)
(-0.045190937 0.032603365 3.0001592e-05)
(-0.053161834 0.033050336 3.4014433e-05)
(-0.06109518 0.032813656 3.6243542e-05)
(-0.068850782 0.03191879 3.6631679e-05)
(-0.076292054 0.030383753 3.502237e-05)
(-0.083284895 0.028221831 3.118888e-05)
(-0.089697449 0.025445994 2.4868924e-05)
(-0.095400783 0.02207415 1.5803931e-05)
(-0.10027046 0.018134554 3.7815422e-06)
(-0.10418892 0.013670792 -1.1320669e-05)
(-0.1070486 0.0087459255 -2.9493103e-05)
(-0.10875561 0.0034454501 -5.0557025e-05)
(-0.10923394 -0.0021211538 -7.4136303e-05)
(-0.10842988 -0.0078205031 -9.9643345e-05)
(-0.10631673 -0.013497127 -0.00012627803)
(-0.10289935 -0.018977258 -0.0001530508)
(-0.09821833 -0.024074573 -0.0001788254)
(-0.09235347 -0.028597926 -0.00020238567)
(-0.085425957 -0.032360943 -0.00022252228)
(-0.077598831 -0.035193153 -0.00023813117)
(-0.069075107 -0.03695212 -0.0002483124)
(-0.060093068 -0.037535813 -0.00025245768)
(-0.050918431 -0.036894223 -0.00025031707)
(-0.041833326 -0.035039184 -0.00024203589)
(-0.03312246 -0.032051354 -0.0002281527)
(-0.025057282 -0.028083625 -0.00020955007)
(-0.017879637 -0.023360663 -0.00018735503)
(-0.011786472 -0.018174986 -0.00016282698)
(-0.0069140639 -0.01288039 -0.00013736236)
(-0.0033238359 -0.00788226 -0.00011238929)
(-0.001036862 -0.0036261495 -8.76816e-05)
(-0.0001109349 -0.00060702071 -5.7241314e-05)
(-0.00035169291 0.0038338145 -0.00010770139)
(-0.0022696838 0.011410342 -7.0546385e-05)
(-0.0062274731 0.01842727 -4.0068473e-05)
(-0.011614737 0.024619919 -1.7818064e-05)
(-0.018090298 0.029857516 2.4583548e-07)
(-0.025420994 0.034089829 1.4675142e-05)
(-0.033388679 0.037320661 2.6069342e-05)
(-0.041795625 0.039585193 3.5089213e-05)
(-0.050464911 0.040931387 4.2195829e-05)
(-0.059234522 0.041407184 4.7650076e-05)
(-0.067952595 0.041053131 5.1539614e-05)
(-0.07647395 0.039899616 5.3797691e-05)
(-0.084657498 0.037967795 5.4229032e-05)
(-0.092364606 0.03527323 5.2543685e-05)
(-0.099458476 0.031831255 4.8396515e-05)
(-0.10580451 0.027663156 4.1431276e-05)
(-0.11127156 0.022802443 3.1328296e-05)
(-0.1157341 0.017300617 1.7854211e-05)
(-0.11907504 0.011231981 9.1128263e-07)
(-0.12118929 0.0046971984 -1.9417033e-05)
(-0.12198796 -0.0021746978 -4.2828817e-05)
(-0.121403 -0.0092260469 -6.8782349e-05)
(-0.11939236 -0.016272165 -9.6485812e-05)
(-0.11594537 -0.023105254 -0.00012491646)
(-0.11108812 -0.02950054 -0.00015285823)
(-0.10488831 -0.035224895 -0.00017896696)
(-0.097459222 -0.040047862 -0.00020186024)
(-0.08896195 -0.043754869 -0.00022022609)
(-0.079605186 -0.046162064 -0.00023293899)
(-0.069641829 -0.04713191 -0.00023916774)
(-0.059361815 -0.046588314 -0.00023846065)
(-0.049080912 -0.044529831 -0.00023079805)
(-0.039125722 -0.04103946 -0.00021660558)
(-0.02981572 -0.036289728 -0.00019671952)
(-0.021444125 -0.030542358 -0.00017229167)
(-0.014259498 -0.024142622 -0.00014466795)
(-0.0084461157 -0.017509188 -0.00011540337)
(-0.0041057525 -0.011119098 -8.6137013e-05)
(-0.0013000785 -0.0054896923 -5.647677e-05)
(-0.00014466049 -0.0011817414 -2.2523466e-05)
(-0.00039639206 0.0050786672 -0.00010495232)
(-0.0025408022 0.014693465 -6.2473284e-05)
(-0.006944206 0.023357945 -2.8867154e-05)
(-0.012909233 0.030860766 -4.5656572e-06)
(-0.020045636 0.037117299 1.5113995e-05)
(-0.02809028 0.04211685 3.0921156e-05)
(-0.036802115 0.045895726 4.3626005e-05)
(-0.045967153 0.048514755 5.4035318e-05)
(-0.055397782 0.050041299 6.2704934e-05)
(-0.06492514 0.050537243 6.9944932e-05)
(-0.07439299 0.050052536 7.5854398e-05)
(-0.083653201 0.04862343 8.0345285e-05)
(-0.092562352 0.046274483 8.3172524e-05)
(-0.10097945 0.043023271 8.3971911e-05)
(-0.10876475 0.038886785 8.230375e-05)
(-0.11577966 0.033888592 7.7701357e-05)
(-0.12188751 0.02806599 6.9723633e-05)
(-0.12695526 0.021476586 5.8010441e-05)
(-0.13085599 0.014203874 4.2338809e-05)
(-0.13347213 0.0063614939 2.2677322e-05)
(-0.13469963 -0.0019040705 -7.6616484e-07)
(-0.1344527 -0.010412629 -2.7515539e-05)
(-0.13266947 -0.018951343 -5.6798303e-05)
(-0.12931843 -0.027278362 -8.7563233e-05)
(-0.12440498 -0.035128987 -0.00011850912)
(-0.11797816 -0.042224835 -0.00014814709)
(-0.11013675 -0.048286106 -0.00017489154)
(-0.10103386 -0.053046837 -0.00019717637)
(-0.090879004 -0.056272685 -0.00021358816)
(-0.079936701 -0.057780274 -0.00022300018)
(-0.068520578 -0.057456637 -0.00022468741)
(-0.056982386 -0.055276871 -0.00021840528)
(-0.04569592 -0.051317856 -0.0002044233)
(-0.035036631 -0.045766058 -0.00018350689)
(-0.025358955 -0.038918023 -0.00015683159)
(-0.016973689 -0.031173297 -0.0001258602)
(-0.010123121 -0.023020477 -9.2369529e-05)
(-0.0049572994 -0.015016281 -5.8291463e-05)
(-0.0015839099 -0.0077601679 -2.3119157e-05)
(-0.00018000436 -0.0018919989 1.4747232e-05)
(-0.00043687273 0.0064585602 -9.3554861e-05)
(-0.0027868488 0.018316877 -4.5577069e-05)
(-0.007595891 0.028778285 -9.0927596e-06)
(-0.014088624 0.03769486 1.7161065e-05)
(-0.021830782 0.045038155 3.8464756e-05)
(-0.030532233 0.050846212 5.5756964e-05)
(-0.039931272 0.055195627 6.9966928e-05)
(-0.049799453 0.058179051 8.2032639e-05)
(-0.059940066 0.059887855 9.2590385e-05)
(-0.070179038 0.060401082 0.00010198613)
(-0.08035753 0.059780131 0.00011031818)
(-0.090326407 0.05806822 0.00011746616)
(-0.099941971 0.055293633 0.00012312487)
(-0.10906294 0.051475622 0.00012684527)
(-0.11754859 0.046631911 0.0001280811)
(-0.12525804 0.040786856 0.00012624094)
(-0.13205037 0.03397952 0.00012074515)
(-0.13778576 0.02627111 0.00011108672)
(-0.1423274 0.017751393 9.6894302e-05)
(-0.14554438 0.0085438205 7.7995354e-05)
(-0.14731558 -0.0011908405 5.4475393e-05)
(-0.14753448 -0.011252606 2.6712156e-05)
(-0.1461153 -0.021402715 -4.5633276e-06)
(-0.14300038 -0.031366184 -3.8289445e-05)
(-0.13816814 -0.040837632 -7.3084509e-05)
(-0.13164186 -0.049490536 -0.000107304)
(-0.1234983 -0.056990366 -0.00013913127)
(-0.11387521 -0.063011739 -0.00016669989)
(-0.10297646 -0.067259274 -0.00018824229)
(-0.091073447 -0.069491212 -0.00020225176)
(-0.078501327 -0.06954412 -0.00020763615)
(-0.065648934 -0.067356277 -0.00020383831)
(-0.052941969 -0.062986862 -0.00019090425)
(-0.040820025 -0.056627969 -0.00016948784)
(-0.029709642 -0.048607125 -0.00014077556)
(-0.019996204 -0.039379376 -0.00010636535)
(-0.011992162 -0.029509484 -6.8311139e-05)
(-0.00590602 -0.01964434 -2.892049e-05)
(-0.0018995926 -0.010479291 1.238787e-05)
(-0.00021911035 -0.0027504895 5.4727354e-05)
(-0.00047276011 0.007959842 -7.2418265e-05)
(-0.0030053031 0.022246634 -1.8736025e-05)
(-0.0081754721 0.034640663 2.0340852e-05)
(-0.01513962 0.045066327 4.8421388e-05)
(-0.023425046 0.053560092 7.1336395e-05)
(-0.032718051 0.060216823 9.02069e-05)
(-0.04273893 0.06516043 0.00010611115)
(-0.053246863 0.06852114 0.00012010546)
(-0.064037809 0.07041879 0.00013289453)
(-0.074934157 0.070952831 0.00014484926)
(-0.085776217 0.070198275 0.00015605715)
(-0.096415722 0.068206534 0.00016635617)
(-0.10671069 0.065010015 0.00017537204)
(-0.11652161 0.060629287 0.00018256137)
(-0.12570882 0.055081728 0.00018725997)
(-0.13413096 0.048390709 0.00018873693)
(-0.14164448 0.040594597 0.00018625478)
(-0.14810388 0.03175509 0.00017913531)
(-0.15336305 0.021964572 0.0001668294)
(-0.15727752 0.011352267 0.00014898803)
(-0.15970788 8.9032478e-05 0.00012553129)
(-0.16052477 -0.01160941 9.6719435e-05)
(-0.15961515 -0.023481651 6.3181394e-05)
(-0.15689028 -0.035221733 2.5960368e-05)
(-0.15229544 -0.046483958 -1.350058e-05)
(-0.14582071 -0.05689162 -5.3401956e-05)
(-0.13751238 -0.066050459 -9.1673507e-05)
(-0.12748394 -0.073567347 -0.00012610154)
(-0.11592504 -0.079074175 -0.000154493)
(-0.10310678 -0.082256157 -0.00017486612)
(-0.08938116 -0.082882759 -0.00018564806)
(-0.07517299 -0.080838374 -0.00018585066)
(-0.06096313 -0.076148943 -0.0001751935)
(-0.047263054 -0.069000305 -0.00015414851)
(-0.034583064 -0.059744564 -0.00012388161)
(-0.02339738 -0.048892467 -8.613296e-05)
(-0.014103435 -0.037091869 -4.3282623e-05)
(-0.006981428 -0.025092605 1.9028544e-06)
(-0.0022590044 -0.01370294 5.005001e-05)
(-0.00026414575 -0.003776038 9.7607587e-05)
(-0.00050355033 0.0095674286 -4.0572815e-05)
(-0.003193272 0.026445153 1.9042212e-05)
(-0.0086753947 0.040892045 6.039795e-05)
(-0.016048476 0.052912516 9.0163494e-05)
(-0.024807336 0.062615335 0.00011466739)
(-0.03461838 0.070159131 0.00013520591)
(-0.045186744 0.075721309 0.00015299706)
(-0.056261441 0.079474907 0.00016920418)
(-0.067632898 0.081572448 0.00018459067)
(-0.079121629 0.082136996 0.00019954436)
(-0.090568777 0.081259424 0.00021413497)
(-0.10182875 0.079000685 0.00022815233)
(-0.11276324 0.075397811 0.00024114634)
(-0.12323657 0.070472378 0.0002524715)
(-0.13311226 0.064240299 0.00026133558)
(-0.14225065 0.056722024 0.00026685404)
(-0.15050747 0.047952476 0.00026811162)
(-0.15773333 0.037990315 0.00026423166)
(-0.16377414 0.026926298 0.00025445232)
(-0.16847264 0.014890613 0.00023820685)
(-0.17167118 0.0020590538 0.00021520518)
(-0.17321647 -0.011342221 0.00018552303)
(-0.1729658 -0.025033718 0.00014964776)
(-0.17079558 -0.038682187 0.00010855)
(-0.16661231 -0.051903548 6.3693134e-05)
(-0.16036538 -0.064270298 1.7011569e-05)
(-0.15206146 -0.075324519 -2.916218e-05)
(-0.14177929 -0.084597428 -7.2224985e-05)
(-0.12968339 -0.091635948 -0.00010948227)
(-0.11603427 -0.096035851 -0.00013836973)
(-0.10119267 -0.097479802 -0.00015669994)
(-0.08561502 -0.095777017 -0.00016290446)
(-0.069837999 -0.090899754 -0.00015623205)
(-0.054451382 -0.083010858 -0.00013685894)
(-0.040061154 -0.072476686 -0.00010586547)
(-0.027246466 -0.059861666 -6.5122762e-05)
(-0.016507693 -0.045903582 -1.7381116e-05)
(-0.0082137653 -0.031469845 3.4046951e-05)
(-0.0026743183 -0.017501833 8.9812815e-05)
(-0.00031729557 -0.004993853 0.00014353125)
(-0.00052867996 0.011264632 2.8117041e-06)
(-0.0033477347 0.030871062 6.8602167e-05)
(-0.0090880421 0.047473987 0.00011190011)
(-0.016801567 0.061164064 0.00014319908)
(-0.025956859 0.072128302 0.0001692654)
(-0.036204141 0.080594805 0.00019156239)
(-0.047236243 0.086799751 0.00021143899)
(-0.058794182 0.090963654 0.00023015566)
(-0.070664583 0.093275654 0.00024852726)
(-0.082667638 0.09388556 0.00026695368)
(-0.094646903 0.092902421 0.00028548352)
(-0.10646117 0.090398224 0.00030385571)
(-0.11797771 0.08641529 0.00032154104)
(-0.12906677 0.080976027 0.00033778683)
(-0.13959735 0.074093849 0.0003516647)
(-0.14943388 0.065784361 0.00036212375)
(-0.1584339 0.056076206 0.00036805162)
(-0.16644656 0.045021251 0.00036834521)
(-0.17331209 0.032703998 0.00036199166)
(-0.17886239 0.019250191 0.00034815806)
(-0.18292304 0.0048345572 0.00032628738)
(-0.18531724 -0.010312534 0.00029619957)
(-0.18587186 -0.025899756 0.00025817602)
(-0.18442605 -0.04157201 0.00021304421)
(-0.18084302 -0.056910778 0.00016222547)
(-0.17502454 -0.071439265 0.00010774429)
(-0.16692816 -0.084633892 5.2180446e-05)
(-0.15658616 -0.095943688 -1.4475657e-06)
(-0.14412451 -0.10481872 -4.9870986e-05)
(-0.12977939 -0.11074785 -8.9824849e-05)
(-0.11390792 -0.11330442 -0.00011835033)
(-0.096989301 -0.11219661 -0.00013311522)
(-0.079612772 -0.10731665 -0.00013270754)
(-0.062450241 -0.098781246 -0.0001168405)
(-0.046214649 -0.086954925 -8.6393916e-05)
(-0.031607723 -0.072449854 -4.3325372e-05)
(-0.019254139 -0.056099222 9.2113419e-06)
(-0.0096331317 -0.0389039 6.7264111e-05)
(-0.0031578274 -0.02196164 0.00013149202)
(-0.00038078489 -0.0064355894 0.00019251982)
(-0.00054759849 0.01303315 5.8402724e-05)
(-0.0034658538 0.035479325 0.00013061896)
(-0.0094063869 0.054322897 0.000175504)
(-0.017386377 0.069745196 0.00020817785)
(-0.026854407 0.082015786 0.0002357768)
(-0.037448115 0.091436638 0.00025992147)
(-0.048850725 0.098307026 0.00028208326)
(-0.060797264 0.102899 0.0003036115)
(-0.073072109 0.10544195 0.00032536794)
(-0.085496512 0.10611549 0.00034776298)
(-0.097917859 0.10504924 0.00037082472)
(-0.11020091 0.10232788 0.00039424276)
(-0.12222031 0.097999935 0.00041740988)
(-0.1338544 0.092088703 0.00043946516)
(-0.14498003 0.084604299 0.00045933924)
(-0.15546845 0.07555575 0.00047580465)
(-0.16518201 0.064962712 0.00048753446)
(-0.17397162 0.052866543 0.00049317219)
(-0.18167517 0.039340749 0.00049141532)
(-0.18811703 0.024500897 0.00048111246)
(-0.19310899 0.0085140296 0.00046137304)
(-0.19645315 -0.0083925293 0.0004316863)
(-0.19794717 -0.025923314 0.00039203806)
(-0.19739253 -0.043708801 0.00034302337)
(-0.19460637 -0.061302443 0.00028593506)
(-0.18943719 -0.078182479 0.00022281447)
(-0.18178442 -0.09376058 0.00015644234)
(-0.17162138 -0.10739961 9.0249591e-05)
(-0.15901999 -0.11844256 2.8133583e-05)
(-0.14417473 -0.12625393 -2.5822139e-05)
(-0.12742183 -0.13027317 -6.7710426e-05)
(-0.10924873 -0.13007699 -9.4213669e-05)
(-0.090288492 -0.12544447 -0.00010301631)
(-0.07129467 -0.11641487 -9.3137643e-05)
(-0.053096405 -0.10332676 -6.5076707e-05)
(-0.036536413 -0.086827807 -2.078106e-05)
(-0.022388426 -0.06784887 3.6183209e-05)
(-0.011268755 -0.047540398 0.00010112702)
(-0.003721841 -0.027182705 0.00017469792)
(-0.00045691137 -0.0081393772 0.00024439574)
(-0.00055984398 0.014853243 0.00012668049)
(-0.0035453341 0.040221723 0.00020557696)
(-0.0096247992 0.061370698 0.0002516805)
(-0.017792786 0.078574428 0.00028556402)
(-0.027484102 0.092187527 0.00031465848)
(-0.038327124 0.10258883 0.00034073042)
(-0.049997884 0.11014404 0.00036536569)
(-0.062227147 0.11518023 0.00038999633)
(-0.074798344 0.11797035 0.00041552962)
(-0.087534947 0.11872682 0.00044238882)
(-0.10028939 0.11760234 0.00047058626)
(-0.1129338 0.11469621 0.00049976833)
(-0.12535196 0.11006432 0.00052925578)
(-0.13743233 0.10373129 0.00055808351)
(-0.14906216 0.095703521 0.00058504121)
(-0.16012251 0.085982104 0.0006087188)
(-0.17048396 0.074575369 0.00062756074)
(-0.18000312 0.061510758 0.00063993316)
(-0.18851992 0.046846241 0.00064420731)
(-0.19585584 0.030681474 0.0006388616)
(-0.20181361 0.013168887 0.00062260283)
(-0.20617863 -0.0054753085 0.00059450429)
(-0.20872298 -0.024960469 0.00055415407)
(-0.20921251 -0.044912089 0.00050180354)
(-0.20741804 -0.06486477 0.00043850326)
(-0.20313128 -0.084259556 0.00036620526)
(-0.19618595 -0.10244819 0.00028780729)
(-0.18648418 -0.11870732 0.00020710982)
(-0.17402702 -0.13226591 0.00012865826)
(-0.15894659 -0.1423484 5.745359e-05)
(-0.14153577 -0.14823496 -1.4654218e-06)
(-0.12226905 -0.14933654 -4.3539191e-05)
(-0.10180724 -0.14527858 -6.5245922e-05)
(-0.080978679 -0.13598171 -6.4603188e-05)
(-0.060733871 -0.12172363 -4.1465968e-05)
(-0.042074291 -0.10316583 2.397719e-06)
(-0.025950463 -0.081333186 6.3044511e-05)
(-0.013148234 -0.0575405 0.0001349574)
(-0.0043785947 -0.033279384 0.0002187495)
(-0.00054808304 -0.010149836 0.00029869551)
(-0.00056512211 0.016704114 0.00020791587)
(-0.0035848187 0.045047757 0.00029375191)
(-0.0097399741 0.068546015 0.00034069803)
(-0.018014581 0.087565794 0.00037561736)
(-0.027835492 0.1025473 0.00040615425)
(-0.038824696 0.11394776 0.00043420834)
(-0.050653025 0.12220173 0.00046147287)
(-0.063048367 0.12769416 0.00048945914)
(-0.075794216 0.13074465 0.00051912248)
(-0.088717174 0.13160141 0.00055090595)
(-0.10167572 0.13044289 0.00058481555)
(-0.11455063 0.12738514 0.00062046531)
(-0.12723637 0.12249301 0.00065711493)
(-0.13963357 0.11579332 0.00069370458)
(-0.15164243 0.1072888 0.0007288889)
(-0.16315691 0.096971833 0.00076107518)
(-0.17405967 0.084837682 0.00078847096)
(-0.18421753 0.070897053 0.00080914608)
(-0.19347767 0.05518836 0.00082111372)
(-0.2016646 0.037789986 0.00082243447)
(-0.20857831 0.018832895 0.00081134579)
(-0.21399403 -0.0014862497 0.00078641734)
(-0.21766435 -0.022891606 0.0007467295)
(-0.2193245 -0.045014961 0.00069206082)
(-0.21870184 -0.067384066 0.00062307843)
(-0.21553086 -0.089414409 0.00054150262)
(-0.20957462 -0.11040742 0.00045021974)
(-0.20065349 -0.12955883 0.00035330649)
(-0.18868071 -0.14598176 0.00025592458)
(-0.17370318 -0.15874886 0.0001640497)
(-0.15594306 -0.16695698 8.4018214e-05)
(-0.13583334 -0.16981447 2.1907034e-05)
(-0.11403762 -0.16674566 -1.7195326e-05)
(-0.09144326 -0.15750003 -2.9907603e-05)
(-0.069120444 -0.14224555 -1.5072194e-05)
(-0.048244313 -0.12162252 2.599157e-05)
(-0.029971787 -0.09673651 8.9067367e-05)
(-0.015296613 -0.069077527 0.00016774287)
(-0.0051401244 -0.040378965 0.0002625741)
(-0.00065685468 -0.012518063 0.00035456777)
(-0.0005633877 0.018564512 0.00030215371)
(-0.0035843155 0.049906039 0.00039519986)
(-0.0097519521 0.075775959 0.00044261335)
(-0.01805115 0.096630717 0.00047838213)
(-0.027905918 0.11299461 0.00051027893)
(-0.038934071 0.12540343 0.00054032307)
(-0.050802718 0.13436205 0.00057031006)
(-0.063237852 0.14031571 0.0006018307)
(-0.076023742 0.14363359 0.00063589575)
(-0.088990817 0.14460266 0.00067298019)
(-0.10200444 0.14342995 0.00071309858)
(-0.11495512 0.14025078 0.00075584856)
(-0.12774948 0.13514091 0.00080044472)
(-0.14030225 0.12813071 0.00084574719)
(-0.15252906 0.11921996 0.00089028741)
(-0.16434 0.10839224 0.0009322969)
(-0.17563374 0.095628779 0.0009697456)