/*--------------------------------*- C++ -*----------------------------------*\
  =========                 |
  \\      /  F ield         | OpenFOAM: The Open Source CFD Toolbox
   \\    /   O peration     | Website:  https://openfoam.org
    \\  /    A nd           | Version:  7
     \\/     M anipulation  |
\*---------------------------------------------------------------------------*/
FoamFile
{
    version     2.0;
    format      ascii;
    class       volVectorField;
    location    "29";
    object      U_0;
}
// * * * * * * * * * * * * * * * * * * * * * * * * * * * * * * * * * * * * * //

dimensions      [0 1 -1 0 0 0 0];

internalField   nonuniform List<vector> 
16000
(
(6.6009576e-05 -6.7367394e-05 -4.2711607e-07)
(0.00016270292 -5.6374437e-05 5.6716581e-06)
(0.00014190025 4.5527671e-07 1.9171248e-05)
(-5.0628054e-05 6.1887411e-05 3.6593736e-05)
(-0.00040997679 0.00011562956 5.4702292e-05)
(-0.00090902808 0.0001577431 7.153069e-05)
(-0.0015177121 0.00018850435 8.5742831e-05)
(-0.0022068857 0.0002096088 9.652353e-05)
(-0.0029505998 0.00022287656 0.00010341244)
(-0.0037264621 0.00022981092 0.00010616266)
(-0.0045150467 0.00023147694 0.00010464696)
(-0.0052990084 0.00022850387 9.8802305e-05)
(-0.0060621875 0.00022114737 8.8604e-05)
(-0.0067888575 0.00020938289 7.406262e-05)
(-0.0074632086 0.00019301327 5.5236973e-05)
(-0.0080691093 0.00017178003 3.2257291e-05)
(-0.0085901622 0.00014547138 5.3534064e-06)
(-0.0090100427 0.00011402211 -2.5116853e-05)
(-0.0093130949 7.7601782e-05 -5.864357e-05)
(-0.0094851399 3.6687353e-05 -9.4548911e-05)
(-0.0095144388 -7.8871283e-06 -0.00013198311)
(-0.0093927209 -5.4924871e-05 -0.00016993505)
(-0.009116217 -0.00010284335 -0.00020725854)
(-0.0086865973 -0.00014974794 -0.00024271591)
(-0.0081116869 -0.00019351031 -0.00027503728)
(-0.0074058885 -0.00023188585 -0.00030299347)
(-0.0065902119 -0.00026266244 -0.00032547785)
(-0.0056918476 -0.00028382892 -0.00034159067)
(-0.0047432599 -0.00029374741 -0.00035071821)
(-0.003780822 -0.00029130788 -0.00035259928)
(-0.0028430657 -0.00027604303 -0.00034737307)
(-0.0019686473 -0.00024818975 -0.00033560525)
(-0.0011941358 -0.00020870304 -0.00031829102)
(-0.00055166516 -0.00015926512 -0.00029683651)
(-6.6517211e-05 -0.00010240305 -0.00027301284)
(0.00024490815 -4.1746547e-05 -0.00024887733)
(0.0003789429 1.7851119e-05 -0.00022680933)
(0.00034980392 6.7060612e-05 -0.00020924223)
(0.00020620679 8.983701e-05 -0.0001988491)
(5.747192e-05 5.7400289e-05 -0.00018440029)
(5.7983859e-05 -0.00016707961 -6.6594258e-06)
(4.0849469e-05 -3.9990155e-05 -4.0677e-07)
(-0.00029499866 0.00024854958 1.1226661e-05)
(-0.0010110414 0.00056211555 2.5592668e-05)
(-0.002099241 0.00084749234 4.0577649e-05)
(-0.0035140968 0.0010831185 5.4585802e-05)
(-0.0051946913 0.0012642999 6.6489842e-05)
(-0.0070766313 0.0013940667 7.5537461e-05)
(-0.0090981487 0.0014779597 8.1246825e-05)
(-0.011202301 0.001521526 8.3318274e-05)
(-0.013337027 0.0015292098 8.1568528e-05)
(-0.015454167 0.0015039744 7.5887638e-05)
(-0.017508137 0.0014473563 6.6217212e-05)
(-0.019454701 0.0013597771 5.2546442e-05)
(-0.021250138 0.0012410008 3.4921487e-05)
(-0.022850955 0.0010906569 1.3463623e-05)
(-0.024214204 0.00090877339 -1.1608138e-05)
(-0.02529841 0.00069627499 -3.9953925e-05)
(-0.026065033 0.00045541489 -7.1093257e-05)
(-0.026480374 0.00019010775 -0.00010439197)
(-0.026517789 -9.3865141e-05 -0.00013905909)
(-0.026159961 -0.00038877655 -0.00017416289)
(-0.025401143 -0.00068509124 -0.0002086475)
(-0.024249147 -0.00097175712 -0.00024138075)
(-0.022726733 -0.0012366891 -0.00027120728)
(-0.020872334 -0.0014674233 -0.00029701551)
(-0.018739897 -0.0016519045 -0.00031781279)
(-0.0163977 -0.0017793536 -0.00033280301)
(-0.013926111 -0.0018411481 -0.00034145935)
(-0.01141431 -0.0018316312 -0.00034358424)
(-0.0089561006 -0.0017487668 -0.00033934947)
(-0.0066450082 -0.0015945806 -0.00032931309)
(-0.0045688914 -0.0013753946 -0.000314413)
(-0.0028042118 -0.0011019786 -0.00029593907)
(-0.0014100159 -0.00078992657 -0.00027548416)
(-0.00042164823 -0.00046057574 -0.00025486584)
(0.00015574808 -0.00014253871 -0.00023599974)
(0.00035672261 0.00012231906 -0.00022089942)
(0.00027528538 0.00027111149 -0.00021166099)
(9.0137581e-05 0.00020507378 -0.00019546592)
(1.9102985e-06 -0.00014898105 -2.044581e-05)
(-0.00025606596 0.00029699916 -1.182832e-05)
(-0.0010504698 0.0010236078 6.9975507e-08)
(-0.0023878425 0.0017975267 1.305007e-05)
(-0.0042394553 0.0025098942 2.6086326e-05)
(-0.0065455696 0.00311005 3.8037835e-05)
(-0.0092251264 0.0035809197 4.8077599e-05)
(-0.012189996 0.003923428 5.5644995e-05)
(-0.015352981 0.0041461807 6.035837e-05)
(-0.018631043 0.0042595866 6.1961003e-05)
(-0.021946061 0.0042728105 6.0279975e-05)
(-0.025224234 0.0041924706 5.519755e-05)
(-0.028394896 0.004022465 4.6637427e-05)
(-0.031389361 0.0037645198 3.4564412e-05)
(-0.034140187 0.0034191668 1.8994574e-05)
(-0.036581107 0.0029869361 1.2495445e-08)
(-0.038647712 0.0024696017 -2.2207865e-05)
(-0.040278904 0.0018713552 -4.7382025e-05)
(-0.041419014 0.0011998063 -7.5096603e-05)
(-0.042020464 0.00046673071 -0.00010479691)
(-0.042046731 -0.00031149739 -0.0001357851)
(-0.041475435 -0.0011138095 -0.00016722579)
(-0.04030128 -0.0019148759 -0.00019817153)
(-0.03853852 -0.002685862 -0.00022759913)
(-0.036222722 -0.0033956745 -0.00025446079)
(-0.033411559 -0.0040125987 -0.00027774652)
(-0.030184411 -0.0045062381 -0.00029655365)
(-0.026640628 -0.0048496311 -0.00031015863)
(-0.02289636 -0.0050213902 -0.00031808473)
(-0.01908 -0.0050076912 -0.00032015832)
(-0.01532632 -0.0048039486 -0.00031654559)
(-0.011769578 -0.004416053 -0.00030776386)
(-0.0085358463 -0.0038611476 -0.00029466636)
(-0.0057348791 -0.0031681059 -0.00027840409)
(-0.0034516874 -0.0023781329 -0.00026036966)
(-0.0017379683 -0.0015462008 -0.00024212068)
(-0.00060369611 -0.00074417752 -0.00022527132)
(-8.0599076e-06 -6.6337558e-05 -0.00021141511)
(0.00015540471 0.00036040559 -0.00020223575)
(7.3559395e-05 0.00035436265 -0.00018531588)
(-6.4688105e-05 5.041549e-05 -3.8697753e-05)
(-0.00060839115 0.0010457443 -2.6160263e-05)
(-0.001930552 0.0023817197 -1.2178966e-05)
(-0.0039464513 0.0037565029 1.1138452e-06)
(-0.0065890259 0.0050152994 1.3702117e-05)
(-0.0097792076 0.00608005 2.4826438e-05)
(-0.013417131 0.0069205093 3.3949544e-05)
(-0.017395529 0.0075341014 4.0736164e-05)
(-0.021607733 0.0079313849 4.4950379e-05)
(-0.025950688 0.0081270292 4.6420319e-05)
(-0.030325839 0.0081347576 4.5015165e-05)
(-0.034638783 0.007964991 4.062863e-05)
(-0.038798345 0.0076243641 3.3173724e-05)
(-0.042715661 0.0071164979 2.2588166e-05)
(-0.046303726 0.006443545 8.8481828e-06)
(-0.049477641 0.0056081374 -8.0117974e-06)
(-0.052155695 0.0046154432 -2.787637e-05)
(-0.054261254 0.0034751061 -5.0526302e-05)
(-0.05572538 0.0022028848 -7.5618473e-05)
(-0.056489982 0.00082185028 -0.00010267177)
(-0.056511284 -0.00063696633 -0.00013106188)
(-0.05576339 -0.0021345896 -0.00016002395)
(-0.054241616 -0.0036248076 -0.00018867567)
(-0.051965265 -0.0050556157 -0.0002160495)
(-0.048979613 -0.0063713896 -0.00024114222)
(-0.045356765 -0.0075157115 -0.00026297683)
(-0.041195159 -0.0084347134 -0.00028067203)
(-0.036617512 -0.0090807315 -0.00029351364)
(-0.031767123 -0.0094160139 -0.00030102146)
(-0.026802493 -0.0094161999 -0.0003030049)
(-0.021890391 -0.0090733091 -0.00029960011)
(-0.017197556 -0.0083980367 -0.00029128106)
(-0.012881391 -0.0074212773 -0.00027884021)
(-0.0090800665 -0.0061950034 -0.00026334079)
(-0.0059024806 -0.0047929324 -0.00024604834)
(-0.0034184795 -0.0033118388 -0.00022835024)
(-0.0016495195 -0.0018745504 -0.00021167512)
(-0.00055981073 -0.00063470326 -0.00019742057)
(-5.0128687e-05 0.00021501492 -0.00018682206)
(3.8091915e-05 0.00041383223 -0.00016801407)
(-0.00013086722 0.00044555647 -5.8214041e-05)
(-0.00097095561 0.0022426731 -4.1150308e-05)
(-0.0028462203 0.004359164 -2.4267888e-05)
(-0.0055648205 0.0064571915 -9.8355739e-06)
(-0.0090094452 0.0083534534 3.0829766e-06)
(-0.013075458 0.0099514305 1.4063017e-05)
(-0.017642269 0.011211727 2.2841552e-05)
(-0.022584663 0.012129564 2.9313766e-05)
(-0.027779607 0.012717506 3.3402504e-05)
(-0.03310808 0.012994128 3.503493e-05)
(-0.038455454 0.012977349 3.4133703e-05)
(-0.04371108 0.012681199 3.0610384e-05)
(-0.048767464 0.012115113 2.4368166e-05)
(-0.05351957 0.011284972 1.5313639e-05)
(-0.057864632 0.010195247 3.3754527e-06)
(-0.061702723 0.0088517308 -1.1472038e-05)
(-0.064938155 0.0072644328 -2.9182319e-05)
(-0.067481718 0.0054502871 -4.9610092e-05)
(-0.069253624 0.0034354319 -7.2487356e-05)
(-0.070186994 0.0012568413 -9.7405262e-05)
(-0.070231646 -0.00103685 -0.00012380467)
(-0.069357942 -0.0033854681 -0.00015097767)
(-0.067560395 -0.0057183826 -0.0001780838)
(-0.064860736 -0.0079566712 -0.00020418125)
(-0.061310139 -0.010016291 -0.00022827456)
(-0.056990305 -0.011812181 -0.00024937706)
(-0.052013099 -0.013263129 -0.00026658336)
(-0.046518521 -0.014297124 -0.00027914484)
(-0.040670825 -0.014856863 -0.00028653983)
(-0.034652746 -0.014904976 -0.00028853094)
(-0.028657871 -0.014428603 -0.00028520309)
(-0.022881375 -0.013442972 -0.00027697595)
(-0.017509463 -0.011993821 -0.00026458535)
(-0.012708062 -0.010158696 -0.00024903142)
(-0.0086114806 -0.0080474766 -0.00023149818)
(-0.0053117538 -0.0058029565 -0.00021326251)
(-0.0028485038 -0.0036024916 -0.00019563566)
(-0.0012000279 -0.0016605564 -0.00017988563)
(-0.00028881711 -0.00023377672 -0.00016674098)
(-2.4753266e-06 0.00035047023 -0.00014550852)
(-0.00019286568 0.0010312995 -7.6694263e-05)
(-0.0013239889 0.0038925158 -5.4791898e-05)
(-0.0037518603 0.0069679753 -3.4587108e-05)
(-0.0071733017 0.0099107918 -1.8493623e-05)
(-0.011414805 0.012527369 -4.6979253e-06)
(-0.016341475 0.014714476 6.6648256e-06)
(-0.021809605 0.016430474 1.5581678e-05)
(-0.027675855 0.017671991 2.2167234e-05)
(-0.033802365 0.018455221 2.6499971e-05)
(-0.040056807 0.018803187 2.8606641e-05)
(-0.046311788 0.018738053 2.8464476e-05)
(-0.052444003 0.018277384 2.6002459e-05)
(-0.05833329 0.017433414 2.1111002e-05)
(-0.063861989 0.016214474 1.3660026e-05)
(-0.068914913 0.014627805 3.5231457e-06)
(-0.073380117 0.012683093 -9.3938136e-06)
(-0.077150525 0.010396198 -2.5121657e-05)
(-0.080126364 0.0077926312 -4.3596249e-05)
(-0.082218303 0.0049104435 -6.4629256e-05)
(-0.083351128 0.0018022823 -8.7884437e-05)
(-0.08346773 -0.0014636062 -0.00011286287)
(-0.082533171 -0.0048035729 -0.00013890069)
(-0.080538568 -0.0081200337 -0.00016518089)
(-0.07750451 -0.011304313 -0.00019076279)
(-0.073483695 -0.014240806 -0.00021462833)
(-0.068562468 -0.016812369 -0.00023574516)
(-0.062860939 -0.018906765 -0.00025314278)
(-0.05653134 -0.020423843 -0.00026599488)
(-0.049754371 -0.021283024 -0.00027369768)
(-0.042733376 -0.021430575 -0.00027593393)
(-0.035686338 -0.020846091 -0.00027271434)
(-0.028835887 -0.019547662 -0.00026439133)
(-0.022397673 -0.017595394 -0.00025164208)
(-0.01656774 -0.015093166 -0.00023541777)
(-0.011509869 -0.01218884 -0.0002168574)
(-0.0073439106 -0.0090736513 -0.00019718656)
(-0.0041345333 -0.0059816708 -0.00017767529)
(-0.0018815874 -0.0031890494 -0.00015955643)
(-0.00053618981 -0.0010143278 -0.0001431614)
(-4.1246864e-05 0.00015895074 -0.00011906891)
(-0.00025011687 0.0017985642 -9.2180969e-05)
(-0.0016597731 0.0059841235 -6.5292381e-05)
(-0.0046244555 0.010198591 -4.1606002e-05)
(-0.008732166 0.014106989 -2.3551185e-05)
(-0.013751596 0.017522302 -8.5128327e-06)
(-0.019515065 0.020347082 3.6261079e-06)
(-0.025854122 0.022545888 1.3077417e-05)
(-0.032606977 0.024121966 2.0157153e-05)
(-0.03962184 0.025098073 2.5087556e-05)
(-0.046754959 0.025503142 2.798695e-05)
(-0.053868738 0.025364194 2.8881003e-05)
(-0.060830177 0.024702505 2.7710416e-05)
(-0.067509562 0.023533145 2.4346532e-05)
(-0.073779682 0.021866953 1.8615262e-05)
(-0.079515786 0.0197141 1.0326902e-05)
(-0.084596404 0.01708847 -6.8988422e-07)
(-0.088905025 0.014012218 -1.4551542e-05)
(-0.092332598 0.010519999 -3.1282463e-05)
(-0.094780718 0.0066624796 -5.0779688e-05)
(-0.096165365 0.0025088111 -7.2782622e-05)
(-0.096421019 -0.0018521368 -9.6851594e-05)
(-0.095504927 -0.0063119839 -0.00012236004)
(-0.093401332 -0.010744576 -0.00014850125)
(-0.090125386 -0.015009401 -0.00017431601)
(-0.085726423 -0.018956637 -0.00019873805)
(-0.080290272 -0.022433787 -0.00022065825)
(-0.073940217 -0.025293715 -0.00023900435)
(-0.066836174 -0.027403746 -0.00025283036)
(-0.059171691 -0.028655355 -0.0002614058)
(-0.051168459 -0.028973791 -0.00026429226)
(-0.043068222 -0.028326885 -0.00026139474)
(-0.03512218 -0.026732245 -0.00025298033)
(-0.027578315 -0.024262227 -0.00023966262)
(-0.020667316 -0.021046305 -0.00022235228)
(-0.014588332 -0.017270896 -0.00020216993)
(-0.0094958224 -0.013177209 -0.00018034063)
(-0.0054864961 -0.0090579151 -0.00015816779)
(-0.0025879491 -0.0052522177 -0.00013693688)
(-0.000784463 -0.0021405412 -0.00011665231)
(-7.6871833e-05 -0.00016054099 -8.9445339e-05)
(-0.00030295613 0.0027365227 -0.00010300454)
(-0.0019754979 0.0084980859 -7.1035251e-05)
(-0.005452138 0.014028552 -4.388744e-05)
(-0.010217965 0.019021359 -2.3742805e-05)
(-0.015985168 0.023311061 -7.247559e-06)
(-0.022552778 0.026818159 5.9414035e-06)
(-0.029727156 0.029522392 1.6238653e-05)
(-0.037328169 0.031439739 2.4142029e-05)
(-0.045190937 0.032603365 3.0001583e-05)
(-0.053161834 0.033050336 3.4014252e-05)
(-0.06109518 0.032813656 3.6243259e-05)
(-0.068850781 0.031918789 3.6631511e-05)
(-0.076292054 0.030383752 3.5022409e-05)
(-0.083284896 0.028221832 3.1188909e-05)
(-0.08969745 0.025445995 2.4868596e-05)
(-0.095400784 0.02207415 1.5803165e-05)
(-0.10027046 0.018134552 3.7807377e-06)
(-0.10418892 0.01367079 -1.1320915e-05)
(-0.1070486 0.0087459244 -2.9492607e-05)
(-0.10875561 0.0034454518 -5.0556391e-05)
(-0.10923394 -0.0021211501 -7.4136525e-05)
(-0.10842988 -0.0078205007 -9.9644755e-05)
(-0.10631673 -0.013497129 -0.00012627958)
(-0.10289934 -0.018977264 -0.00015305075)
(-0.098218326 -0.024074575 -0.00017882324)
(-0.092353473 -0.028597921 -0.00020238332)
(-0.085425965 -0.032360933 -0.00022252264)
(-0.077598836 -0.035193149 -0.00023813478)
(-0.069075101 -0.036952128 -0.00024831584)
(-0.060093056 -0.037535825 -0.00025245679)
(-0.050918427 -0.036894226 -0.00025031226)
(-0.041833336 -0.035039173 -0.00024203281)
(-0.033122472 -0.032051342 -0.00022815559)
(-0.025057279 -0.028083627 -0.00020955553)
(-0.017879624 -0.023360675 -0.00018735612)
(-0.011786467 -0.018174992 -0.00016282335)
(-0.0069140706 -0.012880384 -0.00013736028)
(-0.0033238408 -0.007882254 -0.00011239058)
(-0.0010368604 -0.0036261497 -8.7683174e-05)
(-0.0001109332 -0.00060702328 -5.7241561e-05)
(-0.00035169291 0.0038338143 -0.00010770142)
(-0.0022696837 0.011410341 -7.0546433e-05)
(-0.0062274729 0.01842727 -4.0068525e-05)
(-0.011614737 0.024619919 -1.7818109e-05)
(-0.018090298 0.029857516 2.4578885e-07)
(-0.025420994 0.034089828 1.4675077e-05)
(-0.033388678 0.03732066 2.606929e-05)
(-0.041795624 0.039585193 3.508925e-05)
(-0.050464911 0.040931387 4.2195936e-05)
(-0.059234523 0.041407184 4.765008e-05)
(-0.067952596 0.041053132 5.1539365e-05)
(-0.076473951 0.039899616 5.3797287e-05)
(-0.084657497 0.037967793 5.4228766e-05)
(-0.092364605 0.035273229 5.2543716e-05)
(-0.099458477 0.031831255 4.8396625e-05)
(-0.10580451 0.027663157 4.1431022e-05)
(-0.11127156 0.022802444 3.1327474e-05)
(-0.1157341 0.017300616 1.7853213e-05)
(-0.11907503 0.011231979 9.108962e-07)
(-0.12118928 0.0046971967 -1.9416375e-05)
(-0.12198796 -0.0021746961 -4.2827699e-05)
(-0.12140301 -0.009226042 -6.8782106e-05)
(-0.11939236 -0.016272161 -9.6487219e-05)
(-0.11594537 -0.023105255 -0.00012491852)
(-0.11108811 -0.029500547 -0.00015285869)
(-0.1048883 -0.0352249 -0.00017896468)
(-0.097459224 -0.040047858 -0.0002018571)
(-0.08896196 -0.043754858 -0.0002202257)
(-0.079605193 -0.046162057 -0.0002329426)
(-0.069641824 -0.047131916 -0.00023917185)
(-0.059361802 -0.046588326 -0.00023846043)
(-0.049080908 -0.044529835 -0.00023079357)
(-0.039125731 -0.04103945 -0.00021660259)
(-0.02981573 -0.036289717 -0.00019672195)
(-0.021444122 -0.030542359 -0.00017229588)
(-0.014259488 -0.024142631 -0.00014466838)
(-0.0084461134 -0.017509191 -0.00011540108)
(-0.0041057564 -0.011119094 -8.6135897e-05)
(-0.001300081 -0.0054896892 -5.6477394e-05)
(-0.00014466064 -0.0011817413 -2.2524216e-05)
(-0.00039639204 0.005078667 -0.00010495238)
(-0.0025408021 0.014693465 -6.2473357e-05)
(-0.0069442057 0.023357945 -2.8867203e-05)
(-0.012909233 0.030860766 -4.5656811e-06)
(-0.020045636 0.037117299 1.5113991e-05)
(-0.02809028 0.04211685 3.0921125e-05)
(-0.036802114 0.045895725 4.3625918e-05)
(-0.045967153 0.048514754 5.403525e-05)
(-0.055397782 0.050041298 6.2704997e-05)
(-0.06492514 0.050537243 6.9945089e-05)
(-0.07439299 0.050052536 7.5854418e-05)
(-0.083653202 0.04862343 8.034498e-05)
(-0.092562352 0.046274482 8.3172004e-05)
(-0.10097945 0.043023269 8.3971544e-05)
(-0.10876475 0.038886784 8.2303798e-05)
(-0.11577966 0.033888592 7.7701639e-05)
(-0.12188751 0.028065992 6.9723598e-05)
(-0.12695526 0.021476588 5.8009695e-05)
(-0.13085598 0.014203874 4.2337664e-05)
(-0.13347212 0.0063614913 2.2676745e-05)
(-0.13469963 -0.0019040732 -7.6541634e-07)
(-0.13445269 -0.010412628 -2.7513919e-05)
(-0.13266948 -0.018951338 -5.6797453e-05)
(-0.12931844 -0.027278356 -8.7564459e-05)
(-0.12440498 -0.035128987 -0.00011851164)
(-0.11797815 -0.042224842 -0.00014814823)
(-0.11013674 -0.048286112 -0.00017488947)
(-0.10103386 -0.053046834 -0.00019717275)
(-0.090879013 -0.056272675 -0.00021358708)
(-0.079936709 -0.057780266 -0.00022300346)
(-0.068520574 -0.057456641 -0.0002246916)
(-0.056982374 -0.055276882 -0.00021840536)
(-0.045695916 -0.05131786 -0.00020441945)
(-0.035036639 -0.04576605 -0.00018350454)
(-0.025358962 -0.038918015 -0.00015683355)
(-0.016973687 -0.031173298 -0.00012586292)
(-0.010123115 -0.023020482 -9.2369722e-05)
(-0.0049572982 -0.015016282 -5.8290175e-05)
(-0.001583912 -0.007760166 -2.3118554e-05)
(-0.00018000542 -0.0018919971 1.4746985e-05)
(-0.00043687274 0.0064585601 -9.355494e-05)
(-0.0027868487 0.018316877 -4.5577173e-05)
(-0.0075958907 0.028778285 -9.0928456e-06)
(-0.014088624 0.037694859 1.7161016e-05)
(-0.021830781 0.045038155 3.8464772e-05)
(-0.030532233 0.050846212 5.5757012e-05)
(-0.039931272 0.055195627 6.9966913e-05)
(-0.049799453 0.058179051 8.2032522e-05)
(-0.059940066 0.059887854 9.2590284e-05)
(-0.070179037 0.060401081 0.0001019862)
(-0.08035753 0.05978013 0.00011031838)
(-0.090326408 0.05806822 0.00011746623)
(-0.099941971 0.055293634 0.00012312456)
(-0.10906294 0.051475622 0.00012684467)
(-0.11754859 0.04663191 0.00012808065)
(-0.12525804 0.040786854 0.00012624102)
(-0.13205037 0.03397952 0.00012074568)
(-0.13778576 0.026271113 0.00011108705)
(-0.1423274 0.017751396 9.6893767e-05)
(-0.14554438 0.0085438215 7.7994107e-05)
(-0.14731558 -0.0011908431 5.4474536e-05)
(-0.14753447 -0.01125261 2.6712828e-05)
(-0.1461153 -0.021402715 -4.5613222e-06)
(-0.14300039 -0.031366178 -3.8287951e-05)
(-0.13816814 -0.040837625 -7.3085376e-05)
(-0.13164186 -0.049490535 -0.00010730679)
(-0.1234983 -0.056990373 -0.00013913305)
(-0.1138752 -0.063011747 -0.00016669825)
(-0.10297646 -0.067259273 -0.0001882386)
(-0.091073456 -0.069491202 -0.00020225031)
(-0.078501335 -0.069544112 -0.00020763898)
(-0.06564893 -0.067356281 -0.00020384205)
(-0.052941959 -0.062986872 -0.00019090432)
(-0.040820023 -0.056627971 -0.00016948483)
(-0.029709647 -0.048607118 -0.00014077398)
(-0.019996209 -0.039379371 -0.00010636662)
(-0.01199216 -0.029509484 -6.8312737e-05)
(-0.0059060169 -0.019644342 -2.8920587e-05)
(-0.001899592 -0.010479292 1.2388527e-05)
(-0.00021911074 -0.0027504885 5.4727695e-05)
(-0.00047276011 0.007959842 -7.2418336e-05)
(-0.0030053031 0.022246634 -1.8736114e-05)
(-0.0081754719 0.034640663 2.0340752e-05)
(-0.01513962 0.045066326 4.8421285e-05)
(-0.023425045 0.053560091 7.1336352e-05)
(-0.03271805 0.060216822 9.0206961e-05)
(-0.04273893 0.06516043 0.00010611125)
(-0.053246863 0.06852114 0.00012010546)
(-0.064037809 0.07041879 0.00013289437)
(-0.074934156 0.07095283 0.00014484911)
(-0.085776216 0.070198274 0.00015605721)
(-0.096415722 0.068206534 0.00016635644)
(-0.10671069 0.065010016 0.00017537222)
(-0.11652161 0.060629288 0.00018256113)
(-0.12570882 0.055081729 0.00018725934)
(-0.13413096 0.048390709 0.00018873639)
(-0.14164447 0.040594595 0.00018625489)
(-0.14810387 0.031755089 0.0001791361)
(-0.15336305 0.021964575 0.00016683016)
(-0.15727752 0.011352271 0.00014898781)
(-0.15970788 8.903424e-05 0.00012552998)
(-0.16052477 -0.011609413 9.6718211e-05)
(-0.15961514 -0.023481656 6.3181783e-05)
(-0.15689028 -0.035221735 2.5962527e-05)
(-0.15229544 -0.046483954 -1.3498562e-05)
(-0.14582071 -0.056891613 -5.3402384e-05)
(-0.13751238 -0.066050457 -9.1676316e-05)
(-0.12748393 -0.073567353 -0.00012610373)
(-0.11592503 -0.079074184 -0.00015449181)
(-0.10310678 -0.082256157 -0.00017486271)
(-0.089381167 -0.08288275 -0.00018564659)
(-0.075172997 -0.080838367 -0.00018585297)
(-0.060963127 -0.076148946 -0.00017519644)
(-0.047263046 -0.069000311 -0.00015414848)
(-0.034583063 -0.059744566 -0.00012387954)
(-0.023397384 -0.048892463 -8.6131906e-05)
(-0.014103438 -0.037091866 -4.3283293e-05)
(-0.0069814271 -0.025092605 1.9020305e-06)
(-0.0022590028 -0.013702941 5.0049971e-05)
(-0.00026414529 -0.0037760384 9.7607923e-05)
(-0.00050355026 0.0095674285 -4.0572901e-05)
(-0.0031932718 0.026445153 1.9042155e-05)
(-0.0086753946 0.040892045 6.0397899e-05)
(-0.016048476 0.052912515 9.0163394e-05)
(-0.024807336 0.062615335 0.00011466727)
(-0.034618379 0.07015913 0.00013520587)
(-0.045186743 0.075721308 0.00015299717)
(-0.05626144 0.079474906 0.00016920433)
(-0.067632899 0.081572449 0.00018459068)
(-0.079121629 0.082136996 0.00019954417)
(-0.090568776 0.081259423 0.00021413476)
(-0.10182875 0.079000684 0.00022815237)
(-0.11276324 0.075397811 0.0002411467)
(-0.12323657 0.070472379 0.00025247185)
(-0.13311226 0.064240301 0.0002613355)
(-0.14225065 0.056722025 0.00026685343)
(-0.15050746 0.047952475 0.00026811098)
(-0.15773333 0.037990313 0.00026423172)
(-0.16377414 0.026926297 0.00025445331)
(-0.16847264 0.014890615 0.00023820801)
(-0.17167119 0.0020590579 0.00021520532)
(-0.17321647 -0.011342219 0.00018552173)
(-0.17296579 -0.025033721 0.00014964616)
(-0.17079557 -0.038682193 0.00010854996)
(-0.16661231 -0.051903551 6.3695195e-05)
(-0.16036538 -0.064270294 1.7013876e-05)
(-0.15206146 -0.075324511 -2.916222e-05)
(-0.14177929 -0.084597425 -7.2227611e-05)
(-0.12968338 -0.091635953 -0.00010948456)
(-0.11603426 -0.096035858 -0.00013836889)
(-0.10119267 -0.097479803 -0.00015669704)
(-0.085615026 -0.095777009 -0.0001629032)
(-0.069838003 -0.090899748 -0.00015623377)
(-0.05445138 -0.08301086 -0.00013686098)
(-0.040061149 -0.072476691 -0.00010586545)
(-0.027246465 -0.059861667 -6.5121442e-05)
(-0.016507695 -0.04590358 -1.7380408e-05)
(-0.0082137668 -0.031469844 3.40467e-05)
(-0.002674318 -0.017501832 8.9812473e-05)
(-0.00031729516 -0.0049938537 0.00014353125)
(-0.00052867987 0.011264632 2.811578e-06)
(-0.0033477344 0.030871061 6.8602093e-05)
(-0.0090880419 0.047473987 0.0001119001)
(-0.016801567 0.061164064 0.00014319906)
(-0.025956859 0.072128302 0.0001692653)
(-0.036204141 0.080594805 0.00019156223)
(-0.047236243 0.08679975 0.00021143894)
(-0.058794181 0.090963653 0.00023015579)
(-0.070664583 0.093275654 0.00024852747)
(-0.082667638 0.09388556 0.00026695373)
(-0.094646903 0.092902422 0.0002854833)
(-0.10646117 0.090398224 0.00030385543)
(-0.11797771 0.086415289 0.00032154107)
(-0.12906677 0.080976026 0.00033778729)
(-0.13959735 0.07409385 0.00035166527)
(-0.14943389 0.065784363 0.00036212389)
(-0.1584339 0.056076208 0.00036805107)
(-0.16644656 0.04502125 0.00036834443)
(-0.17331209 0.032703995 0.00036199156)
(-0.17886239 0.019250189 0.00034815908)
(-0.18292304 0.0048345581 0.00032628883)
(-0.18531725 -0.01031253 0.00029620005)
(-0.18587186 -0.025899753 0.00025817478)
(-0.18442605 -0.041572012 0.00021304232)
(-0.18084302 -0.056910784 0.00016222499)
(-0.17502453 -0.071439269 0.00010774608)
(-0.16692816 -0.08463389 5.2182786e-05)
(-0.15658617 -0.09594368 -1.4473473e-06)
(-0.14412452 -0.10481872 -4.987328e-05)
(-0.12977939 -0.11074786 -8.9826958e-05)
(-0.11390792 -0.11330443 -0.00011834977)
(-0.096989299 -0.11219661 -0.00013311297)
(-0.079612776 -0.10731665 -0.00013270658)
(-0.062450244 -0.098781242 -0.00011684161)
(-0.046214647 -0.086954926 -8.6395225e-05)
(-0.03160772 -0.072449857 -4.332539e-05)
(-0.019254138 -0.056099223 9.2121122e-06)
(-0.0096331329 -0.038903899 6.7264577e-05)
(-0.0031578282 -0.021961639 0.000131492)
(-0.00038078502 -0.0064355894 0.00019251971)
(-0.00054759848 0.01303315 5.8402589e-05)
(-0.0034658537 0.035479325 0.00013061883)
(-0.0094063865 0.054322897 0.00017550396)
(-0.017386377 0.069745196 0.00020817789)
(-0.026854407 0.082015786 0.00023577681)
(-0.037448115 0.091436637 0.00025992134)
(-0.048850725 0.098307025 0.00028208306)
(-0.060797264 0.102899 0.00030361142)
(-0.073072108 0.10544195 0.00032536809)
(-0.085496512 0.10611549 0.00034776326)
(-0.097917859 0.10504924 0.00037082482)
(-0.11020091 0.10232788 0.00039424255)
(-0.12222031 0.097999934 0.00041740955)
(-0.1338544 0.092088702 0.00043946514)
(-0.14498003 0.084604298 0.00045933976)
(-0.15546845 0.075555751 0.00047580543)
(-0.16518201 0.064962715 0.00048753481)
(-0.17397162 0.052866545 0.00049317169)
(-0.18167517 0.039340748 0.00049141437)
(-0.18811703 0.024500893 0.00048111208)
(-0.19310898 0.0085140262 0.00046137391)
(-0.19645315 -0.0083925294 0.00043168787)
(-0.19794717 -0.02592331 0.00039203879)
(-0.19739253 -0.043708797 0.00034302227)
(-0.19460637 -0.061302444 0.00028593304)
(-0.18943719 -0.078182484 0.00022281366)
(-0.18178442 -0.093760585 0.00015644378)
(-0.17162138 -0.10739961 9.0251749e-05)
(-0.15902 -0.11844255 2.8133931e-05)
(-0.14417473 -0.12625393 -2.5823992e-05)
(-0.12742182 -0.13027317 -6.7712167e-05)
(-0.10924873 -0.130077 -9.4213337e-05)
(-0.090288491 -0.12544447 -0.00010301476)
(-0.071294673 -0.11641487 -9.3136936e-05)
(-0.053096407 -0.10332676 -6.5077335e-05)
(-0.036536412 -0.086827808 -2.0781849e-05)
(-0.022388424 -0.067848872 3.6183147e-05)
(-0.011268755 -0.047540399 0.00010112742)
(-0.0037218416 -0.027182704 0.00017469819)
(-0.00045691169 -0.008139377 0.00024439576)
(-0.00055984408 0.014853243 0.00012668041)
(-0.0035453342 0.040221723 0.00020557682)
(-0.009624799 0.061370698 0.00025168037)
(-0.017792786 0.078574427 0.00028556399)
(-0.027484101 0.092187527 0.00031465856)
(-0.038327124 0.10258883 0.00034073044)
(-0.049997884 0.11014404 0.00036536554)
(-0.062227147 0.11518023 0.00038999609)
(-0.074798343 0.11797035 0.0004155295)
(-0.087534946 0.11872682 0.00044238899)
(-0.10028939 0.11760234 0.00047058661)
(-0.1129338 0.11469621 0.00049976853)
(-0.12535196 0.11006432 0.00052925561)
(-0.13743233 0.10373129 0.00055808313)
(-0.14906216 0.09570352 0.0005850411)
(-0.16012251 0.085982103 0.0006087193)
(-0.17048396 0.074575369 0.00062756162)
(-0.18000312 0.06151076 0.00063993367)
(-0.18851992 0.046846243 0.00064420687)
(-0.19585585 0.030681474 0.00063886048)
(-0.20181361 0.013168884 0.00062260212)
(-0.20617863 -0.0054753126 0.00059450489)
(-0.20872297 -0.024960469 0.00055415559)
(-0.20921251 -0.044912085 0.00050180441)
(-0.20741805 -0.064864766 0.00043850234)
(-0.20313128 -0.084259556 0.00036620329)
(-0.19618594 -0.10244819 0.00028780631)
(-0.18648418 -0.11870733 0.0002071109)
(-0.17402702 -0.1322659 0.00012866009)
(-0.15894659 -0.1423484 5.7453978e-05)
(-0.14153577 -0.14823496 -1.4667807e-06)
(-0.12226905 -0.14933654 -4.3540508e-05)
(-0.10180723 -0.14527858 -6.5245815e-05)
(-0.080978678 -0.13598171 -6.4602228e-05)
(-0.060733873 -0.12172363 -4.1465481e-05)
(-0.042074292 -0.10316582 2.3974008e-06)
(-0.025950463 -0.081333186 6.3044047e-05)
(-0.013148233 -0.057540501 0.00013495731)
(-0.0043785944 -0.033279384 0.00021874964)
(-0.0005480831 -0.010149837 0.00029869561)
(-0.00056512216 0.016704115 0.00020791586)
(-0.003584819 0.045047757 0.00029375188)
(-0.0097399744 0.068546016 0.00034069788)
(-0.018014581 0.087565794 0.0003756172)
(-0.027835492 0.1025473 0.00040615423)
(-0.038824696 0.11394776 0.00043420843)
(-0.050653025 0.12220173 0.00046147289)
(-0.063048368 0.12769416 0.00048945896)
(-0.075794216 0.13074465 0.00051912218)
(-0.088717173 0.13160141 0.00055090578)
(-0.10167572 0.13044289 0.00058481571)
(-0.11455063 0.12738514 0.00062046573)
(-0.12723637 0.12249301 0.00065711524)
(-0.13963357 0.11579332 0.00069370445)
(-0.15164243 0.1072888 0.00072888844)
(-0.16315691 0.096971831 0.0007610749)
(-0.17405966 0.084837679 0.00078847132)
(-0.18421753 0.070897052 0.00080914694)
(-0.19347767 0.055188362 0.00082111432)
(-0.2016646 0.037789989 0.00082243407)
(-0.20857831 0.018832896 0.00081134454)
(-0.21399403 -0.0014862526 0.00078641634)
(-0.21766435 -0.02289161 0.00074672979)
(-0.2193245 -0.045014962 0.00069206217)
(-0.21870185 -0.067384063 0.00062307934)
(-0.21553086 -0.089414405 0.00054150192)
(-0.20957462 -0.11040742 0.00045021798)
(-0.20065348 -0.12955884 0.00035330551)
(-0.18868071 -0.14598177 0.00025592532)
(-0.17370318 -0.15874886 0.00016405111)
(-0.15594306 -0.16695698 8.4018594e-05)
(-0.13583334 -0.16981447 2.1906146e-05)
(-0.11403762 -0.16674566 -1.7196268e-05)
(-0.091443258 -0.15750003 -2.9907667e-05)
(-0.069120444 -0.14224555 -1.5071684e-05)
(-0.048244314 -0.12162252 2.5991859e-05)
(-0.029971788 -0.096736509 8.9067197e-05)
(-0.015296613 -0.069077527 0.00016774258)
(-0.005140124 -0.040378966 0.00026257397)
(-0.00065685451 -0.012518063 0.00035456775)
(-0.00056338759 0.018564512 0.00030215368)
(-0.0035843157 0.049906039 0.00039519993)
(-0.0097519527 0.075775959 0.00044261331)
(-0.018051151 0.096630716 0.00047838194)
(-0.027905918 0.11299461 0.00051027873)
(-0.038934071 0.12540343 0.00054032301)
(-0.050802718 0.13436205 0.00057031012)
(-0.063237852 0.14031571 0.00060183072)
(-0.076023742 0.14363359 0.00063589556)
(-0.088990816 0.14460266 0.00067297983)
(-0.10200444 0.14342995 0.00071309834)
(-0.11495512 0.14025078 0.00075584869)
(-0.12774948 0.13514091 0.00080044518)
(-0.14030225 0.12813071 0.00084574758)
(-0.15252906 0.11921996 0.00089028731)
(-0.16434 0.10839224 0.00093229633)