-4.995 	348.432 	2.10057e-12 	100000
-4.994 	348.432 	2.10057e-12 	100000
-4.993 	348.432 	2.10057e-12 	100000
-4.992 	348.432 	2.10057e-12 	100000
-4.991 	348.432 	2.10057e-12 	100000
-4.99 	348.432 	2.10057e-12 	100000
-4.98901 	348.432 	2.10057e-12 	100000
-4.98801 	348.432 	2.10057e-12 	100000
-4.98701 	348.432 	2.10057e-12 	100000
-4.98601 	348.432 	2.10057e-12 	100000
-4.98501 	348.432 	2.10057e-12 	100000
-4.98401 	348.432 	2.10057e-12 	100000
-4.98301 	348.432 	2.10057e-12 	100000
-4.98201 	348.432 	2.10057e-12 	100000
-4.98101 	348.432 	2.10057e-12 	100000
-4.98001 	348.432 	2.10057e-12 	100000
-4.97901 	348.432 	2.10057e-12 	100000
-4.97802 	348.432 	2.10057e-12 	100000
-4.97702 	348.432 	2.10057e-12 	100000
-4.97602 	348.432 	2.10057e-12 	100000
-4.97502 	348.432 	2.10057e-12 	100000
-4.97402 	348.432 	2.10057e-12 	100000
-4.97302 	348.432 	2.10057e-12 	100000
-4.97202 	348.432 	2.10057e-12 	100000
-4.97102 	348.432 	2.10057e-12 	100000
-4.97002 	348.432 	2.10057e-12 	100000
-4.96902 	348.432 	2.10057e-12 	100000
-4.96802 	348.432 	2.10057e-12 	100000
-4.96703 	348.432 	2.10057e-12 	100000
-4.96603 	348.432 	2.10057e-12 	100000
-4.96503 	348.432 	2.10057e-12 	100000
-4.96403 	348.432 	2.10057e-12 	100000
-4.96303 	348.432 	2.10057e-12 	100000
-4.96203 	348.432 	2.10057e-12 	100000
-4.96103 	348.432 	2.10057e-12 	100000
-4.96003 	348.432 	2.10057e-12 	100000
-4.95903 	348.432 	2.10057e-12 	100000
-4.95803 	348.432 	2.10057e-12 	100000
-4.95703 	348.432 	2.10057e-12 	100000
-4.95604 	348.432 	2.10057e-12 	100000
-4.95504 	348.432 	2.10057e-12 	100000
-4.95404 	348.432 	2.10057e-12 	100000
-4.95304 	348.432 	2.10057e-12 	100000
-4.95204 	348.432 	2.10057e-12 	100000
-4.95104 	348.432 	2.10057e-12 	100000
-4.95004 	348.432 	2.10057e-12 	100000
-4.94904 	348.432 	2.0941e-12 	100000
-4.94804 	348.432 	2.08735e-12 	100000
-4.94704 	348.432 	2.0806e-12 	100000
-4.94604 	348.432 	2.07385e-12 	100000
-4.94505 	348.432 	2.0671e-12 	100000
-4.94405 	348.432 	2.06036e-12 	100000
-4.94305 	348.432 	2.05361e-12 	100000
-4.94205 	348.432 	2.04686e-12 	100000
-4.94105 	348.432 	2.04011e-12 	100000
-4.94005 	348.432 	2.03337e-12 	100000
-4.93905 	348.432 	2.02662e-12 	100000
-4.93805 	348.432 	2.01987e-12 	100000
-4.93705 	348.432 	2.01312e-12 	100000
-4.93605 	348.432 	2.00637e-12 	100000
-4.93505 	348.432 	1.99963e-12 	100000
-4.93405 	348.432 	1.99288e-12 	100000
-4.93306 	348.432 	1.98613e-12 	100000
-4.93206 	348.432 	1.97938e-12 	100000
-4.93106 	348.432 	1.97263e-12 	100000
-4.93006 	348.432 	1.96589e-12 	100000
-4.92906 	348.432 	1.95914e-12 	100000
-4.92806 	348.432 	1.95239e-12 	100000
-4.92706 	348.432 	1.94564e-12 	100000
-4.92606 	348.432 	1.9389e-12 	100000
-4.92506 	348.432 	1.93215e-12 	100000
-4.92406 	348.432 	1.9254e-12 	100000
-4.92306 	348.432 	1.91865e-12 	100000
-4.92207 	348.432 	1.9119e-12 	100000
-4.92107 	348.432 	1.90516e-12 	100000
-4.92007 	348.432 	1.89841e-12 	100000
-4.91907 	348.432 	1.89166e-12 	100000
-4.91807 	348.432 	1.88491e-12 	100000
-4.91707 	348.432 	1.87817e-12 	100000
-4.91607 	348.432 	1.87142e-12 	100000
-4.91507 	348.432 	1.86467e-12 	100000
-4.91407 	348.432 	1.85792e-12 	100000
-4.91307 	348.432 	1.85117e-12 	100000
-4.91207 	348.432 	1.84443e-12 	100000
-4.91108 	348.432 	1.83768e-12 	100000
-4.91008 	348.432 	1.83093e-12 	100000
-4.90908 	348.432 	1.82418e-12 	100000
-4.90808 	348.432 	1.81744e-12 	100000
-4.90708 	348.432 	1.81069e-12 	100000
-4.90608 	348.432 	1.80394e-12 	100000
-4.90508 	348.432 	1.79719e-12 	100000
-4.90408 	348.432 	1.79044e-12 	100000
-4.90308 	348.432 	1.7837e-12 	100000
-4.90208 	348.432 	1.77695e-12 	100000
-4.90108 	348.432 	1.7702e-12 	100000
-4.90009 	348.432 	1.76345e-12 	100000
-4.89909 	348.432 	1.7567e-12 	100000
-4.89809 	348.432 	1.74996e-12 	100000
-4.89709 	348.432 	1.74321e-12 	100000
-4.89609 	348.432 	1.73646e-12 	100000
-4.89509 	348.432 	1.72971e-12 	100000
-4.89409 	348.432 	1.72297e-12 	100000
-4.89309 	348.432 	1.71622e-12 	100000
-4.89209 	348.432 	1.70947e-12 	100000
-4.89109 	348.432 	1.70272e-12 	100000
-4.89009 	348.432 	1.69597e-12 	100000
-4.8891 	348.432 	1.68923e-12 	100000
-4.8881 	348.432 	1.68248e-12 	100000
-4.8871 	348.432 	1.67573e-12 	100000
-4.8861 	348.432 	1.66898e-12 	100000
-4.8851 	348.432 	1.66224e-12 	100000
-4.8841 	348.432 	1.65549e-12 	100000
-4.8831 	348.432 	1.64874e-12 	100000
-4.8821 	348.432 	1.64199e-12 	100000
-4.8811 	348.432 	1.63524e-12 	100000
-4.8801 	348.432 	1.6285e-12 	100000
-4.8791 	348.432 	1.62175e-12 	100000
-4.87811 	348.432 	1.615e-12 	100000
-4.87711 	348.432 	1.60825e-12 	100000
-4.87611 	348.432 	1.6015e-12 	100000
-4.87511 	348.432 	1.59476e-12 	100000
-4.87411 	348.432 	1.58801e-12 	100000
-4.87311 	348.432 	1.58126e-12 	100000
-4.87211 	348.432 	1.57451e-12 	100000
-4.87111 	348.432 	1.56777e-12 	100000
-4.87011 	348.432 	1.56102e-12 	100000
-4.86911 	348.432 	1.55427e-12 	100000
-4.86811 	348.432 	1.54752e-12 	100000
-4.86712 	348.432 	1.54077e-12 	100000
-4.86612 	348.432 	1.53403e-12 	100000
-4.86512 	348.432 	1.52728e-12 	100000
-4.86412 	348.432 	1.52053e-12 	100000
-4.86312 	348.432 	1.51378e-12 	100000
-4.86212 	348.432 	1.50704e-12 	100000
-4.86112 	348.432 	1.50029e-12 	100000
-4.86012 	348.432 	1.49354e-12 	100000
-4.85912 	348.432 	1.48679e-12 	100000
-4.85812 	348.432 	1.48004e-12 	100000
-4.85712 	348.432 	1.4733e-12 	100000
-4.85613 	348.432 	1.46655e-12 	100000
-4.85513 	348.432 	1.4598e-12 	100000
-4.85413 	348.432 	1.45305e-12 	100000
-4.85313 	348.432 	1.4463e-12 	100000
-4.85213 	348.432 	1.43956e-12 	100000
-4.85113 	348.432 	1.43281e-12 	100000
-4.85013 	348.432 	1.42606e-12 	100000
-4.84913 	348.432 	1.41978e-12 	100000
-4.84813 	348.432 	1.41357e-12 	100000
-4.84713 	348.432 	1.40737e-12 	100000
-4.84613 	348.432 	1.40116e-12 	100000
-4.84514 	348.432 	1.39495e-12 	100000
-4.84414 	348.432 	1.38874e-12 	100000
-4.84314 	348.432 	1.38253e-12 	100000
-4.84214 	348.432 	1.37632e-12 	100000
-4.84114 	348.432 	1.37011e-12 	100000
-4.84014 	348.432 	1.3639e-12 	100000
-4.83914 	348.432 	1.3577e-12 	100000
-4.83814 	348.432 	1.35149e-12 	100000
-4.83714 	348.432 	1.34528e-12 	100000
-4.83614 	348.432 	1.33907e-12 	100000
-4.83514 	348.432 	1.33286e-12 	100000
-4.83414 	348.432 	1.32665e-12 	100000
-4.83315 	348.432 	1.32044e-12 	100000
-4.83215 	348.432 	1.31424e-12 	100000
-4.83115 	348.432 	1.30803e-12 	100000
-4.83015 	348.432 	1.30182e-12 	100000
-4.82915 	348.432 	1.29561e-12 	100000
-4.82815 	348.432 	1.2894e-12 	100000
-4.82715 	348.432 	1.28319e-12 	100000
-4.82615 	348.432 	1.27698e-12 	100000
-4.82515 	348.432 	1.27078e-12 	100000
-4.82415 	348.432 	1.26457e-12 	100000
-4.82315 	348.432 	1.25836e-12 	100000
-4.82216 	348.432 	1.25215e-12 	100000
-4.82116 	348.432 	1.24594e-12 	100000
-4.82016 	348.432 	1.23973e-12 	100000
-4.81916 	348.432 	1.23352e-12 	100000
-4.81816 	348.432 	1.22732e-12 	100000
-4.81716 	348.432 	1.22111e-12 	100000
-4.81616 	348.432 	1.2149e-12 	100000
-4.81516 	348.432 	1.20869e-12 	100000
-4.81416 	348.432 	1.20248e-12 	100000
-4.81316 	348.432 	1.19627e-12 	100000
-4.81216 	348.432 	1.19006e-12 	100000
-4.81117 	348.432 	1.18386e-12 	100000
-4.81017 	348.432 	1.17765e-12 	100000
-4.80917 	348.432 	1.17144e-12 	100000
-4.80817 	348.432 	1.16523e-12 	100000
-4.80717 	348.432 	1.15902e-12 	100000
-4.80617 	348.432 	1.15281e-12 	100000
-4.80517 	348.432 	1.1466e-12 	100000
-4.80417 	348.432 	1.1404e-12 	100000
-4.80317 	348.432 	1.13419e-12 	100000
-4.80217 	348.432 	1.12798e-12 	100000
-4.80117 	348.432 	1.12177e-12 	100000
-4.80018 	348.432 	1.11556e-12 	100000
-4.79918 	348.432 	1.10935e-12 	100000
-4.79818 	348.432 	1.10314e-12 	100000
-4.79718 	348.432 	1.09693e-12 	100000
-4.79618 	348.432 	1.09073e-12 	100000
-4.79518 	348.432 	1.08452e-12 	100000
-4.79418 	348.432 	1.07831e-12 	100000
-4.79318 	348.432 	1.0721e-12 	100000
-4.79218 	348.432 	1.06589e-12 	100000
-4.79118 	348.432 	1.05968e-12 	100000
-4.79018 	348.432 	1.05347e-12 	100000
-4.78919 	348.432 	1.04727e-12 	100000
-4.78819 	348.432 	1.04106e-12 	100000
-4.78719 	348.432 	1.03485e-12 	100000
-4.78619 	348.432 	1.02864e-12 	100000
-4.78519 	348.432 	1.02243e-12 	100000
-4.78419 	348.432 	1.01622e-12 	100000
-4.78319 	348.432 	1.01001e-12 	100000
-4.78219 	348.432 	1.00381e-12 	100000
-4.78119 	348.432 	9.97597e-13 	100000
-4.78019 	348.432 	9.91389e-13 	100000
-4.77919 	348.432 	9.8518e-13 	100000
-4.7782 	348.432 	9.78971e-13 	100000
-4.7772 	348.432 	9.72763e-13 	100000
-4.7762 	348.432 	9.66554e-13 	100000
-4.7752 	348.432 	9.60346e-13 	100000
-4.7742 	348.432 	9.54137e-13 	100000
-4.7732 	348.432 	9.47928e-13 	100000
-4.7722 	348.432 	9.4172e-13 	100000
-4.7712 	348.432 	9.35511e-13 	100000
-4.7702 	348.432 	9.29303e-13 	100000
-4.7692 	348.432 	9.23094e-13 	100000
-4.7682 	348.432 	9.16885e-13 	100000
-4.76721 	348.432 	9.10677e-13 	100000
-4.76621 	348.432 	9.04468e-13 	100000
-4.76521 	348.432 	8.98259e-13 	100000
-4.76421 	348.432 	8.92051e-13 	100000
-4.76321 	348.432 	8.85842e-13 	100000
-4.76221 	348.432 	8.79634e-13 	100000
-4.76121 	348.432 	8.73425e-13 	100000
-4.76021 	348.432 	8.67216e-13 	100000
-4.75921 	348.432 	8.61008e-13 	100000
-4.75821 	348.432 	8.54799e-13 	100000
-4.75721 	348.432 	8.48591e-13 	100000
-4.75622 	348.432 	8.42382e-13 	100000
-4.75522 	348.432 	8.36173e-13 	100000
-4.75422 	348.432 	8.29965e-13 	100000
-4.75322 	348.432 	8.23756e-13 	100000
-4.75222 	348.432 	8.17548e-13 	100000
-4.75122 	348.432 	8.11339e-13 	100000
-4.75022 	348.432 	8.0513e-13 	100000
-4.74922 	348.432 	7.97502e-13 	100000
-4.74822 	348.432 	7.89472e-13 	100000
-4.74722 	348.432 	7.81441e-13 	100000
-4.74622 	348.432 	7.73411e-13 	100000
-4.74523 	348.432 	7.65381e-13 	100000
-4.74423 	348.432 	7.5735e-13 	100000
-4.74323 	348.432 	7.4932e-13 	100000
-4.74223 	348.432 	7.4129e-13 	100000
-4.74123 	348.432 	7.33259e-13 	100000
-4.74023 	348.432 	7.25229e-13 	100000
-4.73923 	348.432 	7.17198e-13 	100000
-4.73823 	348.432 	7.09168e-13 	100000
-4.73723 	348.432 	7.01138e-13 	100000
-4.73623 	348.432 	6.93107e-13 	100000
-4.73523 	348.432 	6.85077e-13 	100000
-4.73423 	348.432 	6.77047e-13 	100000
-4.73324 	348.432 	6.69016e-13 	100000
-4.73224 	348.432 	6.60986e-13 	100000
-4.73124 	348.432 	6.52956e-13 	100000
-4.73024 	348.432 	6.44925e-13 	100000
-4.72924 	348.432 	6.36895e-13 	100000
-4.72824 	348.432 	6.28864e-13 	100000
-4.72724 	348.432 	6.20834e-13 	100000
-4.72624 	348.432 	6.12804e-13 	100000
-4.72524 	348.432 	6.04773e-13 	100000
-4.72424 	348.432 	5.96743e-13 	100000
-4.72324 	348.432 	5.88713e-13 	100000
-4.72225 	348.432 	5.80682e-13 	100000
-4.72125 	348.432 	5.72652e-13 	100000
-4.72025 	348.432 	5.64622e-13 	100000
-4.71925 	348.432 	5.56591e-13 	100000
-4.71825 	348.432 	5.48561e-13 	100000
-4.71725 	348.432 	5.4053e-13 	100000
-4.71625 	348.432 	5.325e-13 	100000
-4.71525 	348.432 	5.2447e-13 	100000
-4.71425 	348.432 	5.16439e-13 	100000
-4.71325 	348.432 	5.08409e-13 	100000
-4.71225 	348.432 	5.00379e-13 	100000
-4.71126 	348.432 	4.92348e-13 	100000
-4.71026 	348.432 	4.84318e-13 	100000
-4.70926 	348.432 	4.76287e-13 	100000
-4.70826 	348.432 	4.68257e-13 	100000
-4.70726 	348.432 	4.60227e-13 	100000
-4.70626 	348.432 	4.52196e-13 	100000
-4.70526 	348.432 	4.44166e-13 	100000
-4.70426 	348.432 	4.36136e-13 	100000
-4.70326 	348.432 	4.28105e-13 	100000
-4.70226 	348.432 	4.20075e-13 	100000
-4.70126 	348.432 	4.12045e-13 	100000
-4.70027 	348.432 	4.04014e-13 	100000
-4.69927 	348.432 	3.95984e-13 	100000
-4.69827 	348.432 	3.87953e-13 	100000
-4.69727 	348.432 	3.79923e-13 	100000
-4.69627 	348.432 	3.71893e-13 	100000
-4.69527 	348.432 	3.63862e-13 	100000
-4.69427 	348.432 	3.55832e-13 	100000
-4.69327 	348.432 	3.47802e-13 	100000
-4.69227 	348.432 	3.39771e-13 	100000
-4.69127 	348.432 	3.31741e-13 	100000
-4.69027 	348.432 	3.23711e-13 	100000
-4.68928 	348.432 	3.1568e-13 	100000
-4.68828 	348.432 	3.0765e-13 	100000
-4.68728 	348.432 	2.99619e-13 	100000
-4.68628 	348.432 	2.91589e-13 	100000
-4.68528 	348.432 	2.83559e-13 	100000
-4.68428 	348.432 	2.75528e-13 	100000
-4.68328 	348.432 	2.67498e-13 	100000
-4.68228 	348.432 	2.59468e-13 	100000
-4.68128 	348.432 	2.51437e-13 	100000
-4.68028 	348.432 	2.43407e-13 	100000
-4.67928 	348.432 	2.35377e-13 	100000
-4.67829 	348.432 	2.27346e-13 	100000
-4.67729 	348.432 	2.19316e-13 	100000
-4.67629 	348.432 	2.11285e-13 	100000
-4.67529 	348.432 	2.03255e-13 	100000
-4.67429 	348.432 	1.95225e-13 	100000
-4.67329 	348.432 	1.87194e-13 	100000
-4.67229 	348.432 	1.79164e-13 	100000
-4.67129 	348.432 	1.71134e-13 	100000
-4.67029 	348.432 	1.63103e-13 	100000
-4.66929 	348.432 	1.55073e-13 	100000
-4.66829 	348.432 	1.47043e-13 	100000
-4.6673 	348.432 	1.39012e-13 	100000
-4.6663 	348.432 	1.30982e-13 	100000
-4.6653 	348.432 	1.22951e-13 	100000
-4.6643 	348.432 	1.14921e-13 	100000
-4.6633 	348.432 	1.06891e-13 	100000
-4.6623 	348.432 	9.88603e-14 	100000
-4.6613 	348.432 	9.08299e-14 	100000
-4.6603 	348.432 	8.27996e-14 	100000
-4.6593 	348.432 	7.47692e-14 	100000
-4.6583 	348.432 	6.67388e-14 	100000
-4.6573 	348.432 	5.87085e-14 	100000
-4.65631 	348.432 	5.06781e-14 	100000
-4.65531 	348.432 	4.26478e-14 	100000
-4.65431 	348.432 	3.46174e-14 	100000
-4.65331 	348.432 	2.6587e-14 	100000
-4.65231 	348.432 	1.85567e-14 	100000
-4.65131 	348.432 	1.05263e-14 	100000
-4.65031 	348.432 	2.49592e-15 	100000
-4.64931 	348.432 	1.98879e-15 	100000
-4.64831 	348.432 	4.87448e-15 	100000
-4.64731 	348.432 	7.76017e-15 	100000
-4.64631 	348.432 	1.06459e-14 	100000
-4.64532 	348.432 	1.35315e-14 	100000
-4.64432 	348.432 	1.64172e-14 	100000
-4.64332 	348.432 	1.93029e-14 	100000
-4.64232 	348.432 	2.21886e-14 	100000
-4.64132 	348.432 	2.50743e-14 	100000
-4.64032 	348.432 	2.796e-14 	100000
-4.63932 	348.432 	3.08457e-14 	100000
-4.63832 	348.432 	3.37314e-14 	100000
-4.63732 	348.432 	3.66171e-14 	100000
-4.63632 	348.432 	3.95028e-14 	100000
-4.63532 	348.432 	4.23885e-14 	100000
-4.63432 	348.432 	4.52741e-14 	100000
-4.63333 	348.432 	4.81598e-14 	100000
-4.63233 	348.432 	5.10455e-14 	100000
-4.63133 	348.432 	5.39312e-14 	100000
-4.63033 	348.432 	5.68169e-14 	100000
-4.62933 	348.432 	5.97026e-14 	100000
-4.62833 	348.432 	6.25883e-14 	100000
-4.62733 	348.432 	6.5474e-14 	100000
-4.62633 	348.432 	6.83597e-14 	100000
-4.62533 	348.432 	7.12454e-14 	100000
-4.62433 	348.432 	7.4131e-14 	100000
-4.62333 	348.432 	7.70167e-14 	100000
-4.62234 	348.432 	7.99024e-14 	100000
-4.62134 	348.432 	8.27881e-14 	100000
-4.62034 	348.432 	8.56738e-14 	100000
-4.61934 	348.432 	8.85595e-14 	100000
-4.61834 	348.432 	9.14452e-14 	100000
-4.61734 	348.432 	9.43309e-14 	100000
-4.61634 	348.432 	9.72166e-14 	100000
-4.61534 	348.432 	1.00102e-13 	100000
-4.61434 	348.432 	1.02988e-13 	100000
-4.61334 	348.432 	1.05874e-13 	100000
-4.61234 	348.432 	1.08759e-13 	100000
-4.61135 	348.432 	1.11645e-13 	100000
-4.61035 	348.432 	1.14531e-13 	100000
-4.60935 	348.432 	1.17416e-13 	100000
-4.60835 	348.432 	1.20302e-13 	100000
-4.60735 	348.432 	1.23188e-13 	100000
-4.60635 	348.432 	1.26073e-13 	100000
-4.60535 	348.432 	1.28959e-13 	100000
-4.60435 	348.432 	1.31845e-13 	100000
-4.60335 	348.432 	1.34731e-13 	100000
-4.60235 	348.432 	1.37616e-13 	100000
-4.60135 	348.432 	1.40502e-13 	100000
-4.60036 	348.432 	1.43388e-13 	100000
-4.59936 	348.432 	1.46273e-13 	100000
-4.59836 	348.432 	1.49159e-13 	100000
-4.59736 	348.432 	1.52045e-13 	100000
-4.59636 	348.432 	1.5493e-13 	100000
-4.59536 	348.432 	1.57816e-13 	100000
-4.59436 	348.432 	1.60702e-13 	100000
-4.59336 	348.432 	1.63587e-13 	100000
-4.59236 	348.432 	1.66473e-13 	100000
-4.59136 	348.432 	1.69359e-13 	100000
-4.59036 	348.432 	1.72245e-13 	100000
-4.58937 	348.432 	1.7513e-13 	100000
-4.58837 	348.432 	1.78016e-13 	100000
-4.58737 	348.432 	1.80902e-13 	100000
-4.58637 	348.432 	1.83787e-13 	100000
-4.58537 	348.432 	1.86673e-13 	100000
-4.58437 	348.432 	1.89559e-13 	100000
-4.58337 	348.432 	1.92444e-13 	100000
-4.58237 	348.432 	1.9533e-13 	100000
-4.58137 	348.432 	1.98216e-13 	100000
-4.58037 	348.432 	2.01101e-13 	100000
-4.57937 	348.432 	2.03987e-13 	100000
-4.57838 	348.432 	2.06873e-13 	100000
-4.57738 	348.432 	2.09758e-13 	100000
-4.57638 	348.432 	2.12644e-13 	100000
-4.57538 	348.432 	2.1553e-13 	100000
-4.57438 	348.432 	2.18416e-13 	100000
-4.57338 	348.432 	2.21301e-13 	100000
-4.57238 	348.432 	2.24187e-13 	100000
-4.57138 	348.432 	2.27073e-13 	100000
-4.57038 	348.432 	2.29958e-13 	100000
-4.56938 	348.432 	2.32844e-13 	100000
-4.56838 	348.432 	2.3573e-13 	100000
-4.56739 	348.432 	2.38615e-13 	100000
-4.56639 	348.432 	2.41501e-13 	100000
-4.56539 	348.432 	2.44387e-13 	100000
-4.56439 	348.432 	2.47272e-13 	100000
-4.56339 	348.432 	2.50158e-13 	100000
-4.56239 	348.432 	2.53044e-13 	100000
-4.56139 	348.432 	2.5593e-13 	100000
-4.56039 	348.432 	2.58815e-13 	100000
-4.55939 	348.432 	2.61701e-13 	100000
-4.55839 	348.432 	2.64587e-13 	100000
-4.55739 	348.432 	2.67472e-13 	100000
-4.5564 	348.432 	2.70358e-13 	100000
-4.5554 	348.432 	2.73244e-13 	100000
-4.5544 	348.432 	2.76129e-13 	100000
-4.5534 	348.432 	2.79015e-13 	100000
-4.5524 	348.432 	2.81901e-13 	100000
-4.5514 	348.432 	2.84786e-13 	100000
-4.5504 	348.432 	2.87672e-13 	100000
-4.5494 	348.432 	2.92199e-13 	100000
-4.5484 	348.432 	2.97825e-13 	100000
-4.5474 	348.432 	3.03451e-13 	100000
-4.5464 	348.432 	3.09076e-13 	100000
-4.54541 	348.432 	3.14702e-13 	100000
-4.54441 	348.432 	3.20327e-13 	100000
-4.54341 	348.432 	3.25953e-13 	100000
-4.54241 	348.432 	3.31579e-13 	100000
-4.54141 	348.432 	3.37204e-13 	100000
-4.54041 	348.432 	3.4283e-13 	100000
-4.53941 	348.432 	3.48456e-13 	100000
-4.53841 	348.432 	3.54081e-13 	100000
-4.53741 	348.432 	3.59707e-13 	100000
-4.53641 	348.432 	3.65332e-13 	100000
-4.53541 	348.432 	3.70958e-13 	100000
-4.53441 	348.432 	3.76584e-13 	100000
-4.53342 	348.432 	3.82209e-13 	100000
-4.53242 	348.432 	3.87835e-13 	100000
-4.53142 	348.432 	3.9346e-13 	100000
-4.53042 	348.432 	3.99086e-13 	100000
-4.52942 	348.432 	4.04712e-13 	100000
-4.52842 	348.432 	4.10337e-13 	100000
-4.52742 	348.432 	4.15963e-13 	100000
-4.52642 	348.432 	4.21589e-13 	100000
-4.52542 	348.432 	4.27214e-13 	100000
-4.52442 	348.432 	4.3284e-13 	100000
-4.52342 	348.432 	4.38465e-13 	100000
-4.52243 	348.432 	4.44091e-13 	100000
-4.52143 	348.432 	4.49717e-13 	100000
-4.52043 	348.432 	4.55342e-13 	100000
-4.51943 	348.432 	4.60968e-13 	100000
-4.51843 	348.432 	4.66594e-13 	100000
-4.51743 	348.432 	4.72219e-13 	100000
-4.51643 	348.432 	4.77845e-13 	100000
-4.51543 	348.432 	4.8347e-13 	100000
-4.51443 	348.432 	4.89096e-13 	100000
-4.51343 	348.432 	4.94722e-13 	100000
-4.51243 	348.432 	5.00347e-13 	100000
-4.51144 	348.432 	5.05973e-13 	100000
-4.51044 	348.432 	5.11599e-13 	100000
-4.50944 	348.432 	5.17224e-13 	100000
-4.50844 	348.432 	5.2285e-13 	100000
-4.50744 	348.432 	5.28475e-13 	100000
-4.50644 	348.432 	5.34101e-13 	100000
-4.50544 	348.432 	5.39727e-13 	100000
-4.50444 	348.432 	5.45352e-13 	100000
-4.50344 	348.432 	5.50978e-13 	100000
-4.50244 	348.432 	5.56604e-13 	100000
-4.50144 	348.432 	5.62229e-13 	100000
-4.50045 	348.432 	5.67855e-13 	100000
-4.49945 	348.432 	5.7348e-13 	100000
-4.49845 	348.432 	5.79106e-13 	100000
-4.49745 	348.432 	5.84732e-13 	100000
-4.49645 	348.432 	5.90357e-13 	100000
-4.49545 	348.432 	5.95983e-13 	100000
-4.49445 	348.432 	6.01609e-13 	100000
-4.49345 	348.432 	6.07234e-13 	100000
-4.49245 	348.432 	6.1286e-13 	100000
-4.49145 	348.432 	6.18485e-13 	100000
-4.49045 	348.432 	6.24111e-13 	100000
-4.48946 	348.432 	6.29737e-13 	100000
-4.48846 	348.432 	6.35362e-13 	100000
-4.48746 	348.432 	6.40988e-13 	100000
-4.48646 	348.432 	6.46613e-13 	100000
-4.48546 	348.432 	6.52239e-13 	100000
-4.48446 	348.432 	6.57865e-13 	100000
-4.48346 	348.432 	6.6349e-13 	100000
-4.48246 	348.432 	6.69116e-13 	100000
-4.48146 	348.432 	6.74742e-13 	100000
-4.48046 	348.432 	6.80367e-13 	100000
-4.47946 	348.432 	6.85993e-13 	100000
-4.47847 	348.432 	6.91618e-13 	100000
-4.47747 	348.432 	6.97244e-13 	100000
-4.47647 	348.432 	7.0287e-13 	100000
-4.47547 	348.432 	7.08495e-13 	100000
-4.47447 	348.432 	7.14121e-13 	100000
-4.47347 	348.432 	7.19747e-13 	100000
-4.47247 	348.432 	7.25372e-13 	100000
-4.47147 	348.432 	7.30998e-13 	100000
-4.47047 	348.432 	7.36623e-13 	100000
-4.46947 	348.432 	7.42249e-13 	100000
-4.46847 	348.432 	7.47875e-13 	100000
-4.46748 	348.432 	7.535e-13 	100000
-4.46648 	348.432 	7.59126e-13 	100000
-4.46548 	348.432 	7.64752e-13 	100000
-4.46448 	348.432 	7.70377e-13 	100000
-4.46348 	348.432 	7.76003e-13 	100000
-4.46248 	348.432 	7.81628e-13 	100000
-4.46148 	348.432 	7.87254e-13 	100000
-4.46048 	348.432 	7.9288e-13 	100000
-4.45948 	348.432 	7.98505e-13 	100000
-4.45848 	348.432 	8.04131e-13 	100000
-4.45748 	348.432 	8.09757e-13 	100000
-4.45649 	348.432 	8.15382e-13 	100000
-4.45549 	348.432 	8.21008e-13 	100000
-4.45449 	348.432 	8.26633e-13 	100000
-4.45349 	348.432 	8.32259e-13 	100000
-4.45249 	348.432 	8.37885e-13 	100000
-4.45149 	348.432 	8.4351e-13 	100000
-4.45049 	348.432 	8.49136e-13 	100000
-4.44949 	348.432 	8.48827e-13 	100000
-4.44849 	348.432 	8.42793e-13 	100000
-4.44749 	348.432 	8.36759e-13 	100000
-4.44649 	348.432 	8.30726e-13 	100000
-4.4455 	348.432 	8.24692e-13 	100000
-4.4445 	348.432 	8.18658e-13 	100000
-4.4435 	348.432 	8.12625e-13 	100000
-4.4425 	348.432 	8.06591e-13 	100000
-4.4415 	348.432 	8.00557e-13 	100000
-4.4405 	348.432 	7.94523e-13 	100000
-4.4395 	348.432 	7.8849e-13 	100000
-4.4385 	348.432 	7.82456e-13 	100000
-4.4375 	348.432 	7.76422e-13 	100000
-4.4365 	348.432 	7.70389e-13 	100000
-4.4355 	348.432 	7.64355e-13 	100000
-4.4345 	348.432 	7.58321e-13 	100000
-4.43351 	348.432 	7.52288e-13 	100000
-4.43251 	348.432 	7.46254e-13 	100000
-4.43151 	348.432 	7.4022e-13 	100000
-4.43051 	348.432 	7.34186e-13 	100000
-4.42951 	348.432 	7.28153e-13 	100000
-4.42851 	348.432 	7.22119e-13 	100000
-4.42751 	348.432 	7.16085e-13 	100000
-4.42651 	348.432 	7.10052e-13 	100000
-4.42551 	348.432 	7.04018e-13 	100000
-4.42451 	348.432 	6.97984e-13 	100000
-4.42351 	348.432 	6.9195e-13 	100000
-4.42252 	348.432 	6.85917e-13 	100000
-4.42152 	348.432 	6.79883e-13 	100000
-4.42052 	348.432 	6.73849e-13 	100000
-4.41952 	348.432 	6.67816e-13 	100000
-4.41852 	348.432 	6.61782e-13 	100000
-4.41752 	348.432 	6.55748e-13 	100000
-4.41652 	348.432 	6.49715e-13 	100000
-4.41552 	348.432 	6.43681e-13 	100000
-4.41452 	348.432 	6.37647e-13 	100000
-4.41352 	348.432 	6.31613e-13 	100000
-4.41252 	348.432 	6.2558e-13 	100000
-4.41153 	348.432 	6.19546e-13 	100000
-4.41053 	348.432 	6.13512e-13 	100000
-4.40953 	348.432 	6.07479e-13 	100000
-4.40853 	348.432 	6.01445e-13 	100000
-4.40753 	348.432 	5.95411e-13 	100000
-4.40653 	348.432 	5.89378e-13 	100000
-4.40553 	348.432 	5.83344e-13 	100000
-4.40453 	348.432 	5.7731e-13 	100000
-4.40353 	348.432 	5.71276e-13 	100000
-4.40253 	348.432 	5.65243e-13 	100000
-4.40153 	348.432 	5.59209e-13 	100000
-4.40054 	348.432 	5.53175e-13 	100000
-4.39954 	348.432 	5.47142e-13 	100000
-4.39854 	348.432 	5.41108e-13 	100000
-4.39754 	348.432 	5.35074e-13 	100000
-4.39654 	348.432 	5.2904e-13 	100000
-4.39554 	348.432 	5.23007e-13 	100000
-4.39454 	348.432 	5.16973e-13 	100000
-4.39354 	348.432 	5.10939e-13 	100000
-4.39254 	348.432 	5.04906e-13 	100000
-4.39154 	348.432 	4.98872e-13 	100000
-4.39054 	348.432 	4.92838e-13 	100000
-4.38955 	348.432 	4.86805e-13 	100000
-4.38855 	348.432 	4.80771e-13 	100000
-4.38755 	348.432 	4.74737e-13 	100000
-4.38655 	348.432 	4.68703e-13 	100000
-4.38555 	348.432 	4.6267e-13 	100000
-4.38455 	348.432 	4.56636e-13 	100000
-4.38355 	348.432 	4.50602e-13 	100000
-4.38255 	348.432 	4.44569e-13 	100000
-4.38155 	348.432 	4.38535e-13 	100000
-4.38055 	348.432 	4.32501e-13 	100000
-4.37955 	348.432 	4.26467e-13 	100000
-4.37856 	348.432 	4.20434e-13 	100000
-4.37756 	348.432 	4.144e-13 	100000
-4.37656 	348.432 	4.08366e-13 	100000
-4.37556 	348.432 	4.02333e-13 	100000
-4.37456 	348.432 	3.96299e-13 	100000
-4.37356 	348.432 	3.90265e-13 	100000
-4.37256 	348.432 	3.84232e-13 	100000
-4.37156 	348.432 	3.78198e-13 	100000
-4.37056 	348.432 	3.72164e-13 	100000
-4.36956 	348.432 	3.6613e-13 	100000
-4.36856 	348.432 	3.60097e-13 	100000
-4.36757 	348.432 	3.54063e-13 	100000
-4.36657 	348.432 	3.48029e-13 	100000
-4.36557 	348.432 	3.41996e-13 	100000
-4.36457 	348.432 	3.35962e-13 	100000
-4.36357 	348.432 	3.29928e-13 	100000
-4.36257 	348.432 	3.23895e-13 	100000
-4.36157 	348.432 	3.17861e-13 	100000
-4.36057 	348.432 	3.11827e-13 	100000
-4.35957 	348.432 	3.05793e-13 	100000
-4.35857 	348.432 	2.9976e-13 	100000
-4.35757 	348.432 	2.93726e-13 	100000
-4.35658 	348.432 	2.87692e-13 	100000
-4.35558 	348.432 	2.81659e-13 	100000
-4.35458 	348.432 	2.75625e-13 	100000
-4.35358 	348.432 	2.69591e-13 	100000
-4.35258 	348.432 	2.63557e-13 	100000
-4.35158 	348.432 	2.57524e-13 	100000
-4.35058 	348.432 	2.5149e-13 	100000
-4.34958 	348.432 	2.50341e-13 	100000
-4.34858 	348.432 	2.55966e-13 	100000
-4.34758 	348.432 	2.61592e-13 	100000
-4.34658 	348.432 	2.67218e-13 	100000
-4.34559 	348.432 	2.72843e-13 	100000
-4.34459 	348.432 	2.78469e-13 	100000
-4.34359 	348.432 	2.84094e-13 	100000
-4.34259 	348.432 	2.8972e-13 	100000
-4.34159 	348.432 	2.95346e-13 	100000
-4.34059 	348.432 	3.00971e-13 	100000
-4.33959 	348.432 	3.06597e-13 	100000
-4.33859 	348.432 	3.12223e-13 	100000
-4.33759 	348.432 	3.17848e-13 	100000
-4.33659 	348.432 	3.23474e-13 	100000
-4.33559 	348.432 	3.291e-13 	100000
-4.33459 	348.432 	3.34725e-13 	100000
-4.3336 	348.432 	3.40351e-13 	100000
-4.3326 	348.432 	3.45976e-13 	100000
-4.3316 	348.432 	3.51602e-13 	100000
-4.3306 	348.432 	3.57228e-13 	100000
-4.3296 	348.432 	3.62853e-13 	100000
-4.3286 	348.432 	3.68479e-13 	100000
-4.3276 	348.432 	3.74105e-13 	100000
-4.3266 	348.432 	3.7973e-13 	100000
-4.3256 	348.432 	3.85356e-13 	100000
-4.3246 	348.432 	3.90981e-13 	100000
-4.3236 	348.432 	3.96607e-13 	100000
-4.32261 	348.432 	4.02233e-13 	100000
-4.32161 	348.432 	4.07858e-13 	100000
-4.32061 	348.432 	4.13484e-13 	100000
-4.31961 	348.432 	4.1911e-13 	100000
-4.31861 	348.432 	4.24735e-13 	100000
-4.31761 	348.432 	4.30361e-13 	100000
-4.31661 	348.432 	4.35987e-13 	100000
-4.31561 	348.432 	4.41612e-13 	100000
-4.31461 	348.432 	4.47238e-13 	100000
-4.31361 	348.432 	4.52863e-13 	100000
-4.31261 	348.432 	4.58489e-13 	100000
-4.31162 	348.432 	4.64115e-13 	100000
-4.31062 	348.432 	4.6974e-13 	100000
-4.30962 	348.432 	4.75366e-13 	100000
-4.30862 	348.432 	4.80992e-13 	100000
-4.30762 	348.432 	4.86617e-13 	100000
-4.30662 	348.432 	4.92243e-13 	100000
-4.30562 	348.432 	4.97868e-13 	100000
-4.30462 	348.432 	5.03494e-13 	100000
-4.30362 	348.432 	5.0912e-13 	100000
-4.30262 	348.432 	5.14745e-13 	100000
-4.30162 	348.432 	5.20371e-13 	100000
-4.30063 	348.432 	5.25997e-13 	100000
-4.29963 	348.432 	5.31622e-13 	100000
-4.29863 	348.432 	5.37248e-13 	100000
-4.29763 	348.432 	5.42874e-13 	100000
-4.29663 	348.432 	5.48499e-13 	100000
-4.29563 	348.432 	5.54125e-13 	100000
-4.29463 	348.432 	5.5975e-13 	100000
-4.29363 	348.432 	5.65376e-13 	100000
-4.29263 	348.432 	5.71002e-13 	100000
-4.29163 	348.432 	5.76627e-13 	100000
-4.29063 	348.432 	5.82253e-13 	100000
-4.28964 	348.432 	5.87879e-13 	100000
-4.28864 	348.432 	5.93504e-13 	100000
-4.28764 	348.432 	5.9913e-13 	100000
-4.28664 	348.432 	6.04755e-13 	100000
-4.28564 	348.432 	6.10381e-13 	100000
-4.28464 	348.432 	6.16007e-13 	100000
-4.28364 	348.432 	6.21632e-13 	100000
-4.28264 	348.432 	6.27258e-13 	100000
-4.28164 	348.432 	6.32884e-13 	100000
-4.28064 	348.432 	6.38509e-13 	100000
-4.27964 	348.432 	6.44135e-13 	100000
-4.27865 	348.432 	6.49761e-13 	100000
-4.27765 	348.432 	6.55386e-13 	100000
-4.27665 	348.432 	6.61012e-13 	100000
-4.27565 	348.432 	6.66637e-13 	100000
-4.27465 	348.432 	6.72263e-13 	100000
-4.27365 	348.432 	6.77889e-13 	100000
-4.27265 	348.432 	6.83514e-13 	100000
-4.27165 	348.432 	6.8914e-13 	100000
-4.27065 	348.432 	6.94766e-13 	100000
-4.26965 	348.432 	7.00391e-13 	100000
-4.26865 	348.432 	7.06017e-13 	100000
-4.26766 	348.432 	7.11642e-13 	100000
-4.26666 	348.432 	7.17268e-13 	100000
-4.26566 	348.432 	7.22894e-13 	100000
-4.26466 	348.432 	7.28519e-13 	100000
-4.26366 	348.432 	7.34145e-13 	100000
-4.26266 	348.432 	7.39771e-13 	100000
-4.26166 	348.432 	7.45396e-13 	100000
-4.26066 	348.432 	7.51022e-13 	100000
-4.25966 	348.432 	7.56648e-13 	100000
-4.25866 	348.432 	7.62273e-13 	100000
-4.25766 	348.432 	7.67899e-13 	100000
-4.25667 	348.432 	7.73524e-13 	100000
-4.25567 	348.432 	7.7915e-13 	100000
-4.25467 	348.432 	7.84776e-13 	100000
-4.25367 	348.432 	7.90401e-13 	100000
-4.25267 	348.432 	7.96027e-13 	100000
-4.25167 	348.432 	8.01653e-13 	100000
-4.25067 	348.432 	8.07278e-13 	100000
-4.24967 	348.432 	8.08389e-13 	100000
-4.24867 	348.432 	8.00286e-13 	100000
-4.24767 	348.432 	7.92183e-13 	100000
-4.24667 	348.432 	7.8408e-13 	100000
-4.24568 	348.432 	7.75976e-13 	100000
-4.24468 	348.432 	7.67873e-13 	100000
-4.24368 	348.432 	7.5977e-13 	100000
-4.24268 	348.432 	7.51667e-13 	100000
-4.24168 	348.432 	7.43564e-13 	100000
-4.24068 	348.432 	7.3546e-13 	100000
-4.23968 	348.432 	7.27357e-13 	100000
-4.23868 	348.432 	7.19254e-13 	100000
-4.23768 	348.432 	7.11151e-13 	100000
-4.23668 	348.432 	7.03047e-13 	100000
-4.23568 	348.432 	6.94944e-13 	100000
-4.23468 	348.432 	6.86841e-13 	100000
-4.23369 	348.432 	6.78738e-13 	100000
-4.23269 	348.432 	6.70634e-13 	100000
-4.23169 	348.432 	6.62531e-13 	100000
-4.23069 	348.432 	6.54428e-13 	100000
-4.22969 	348.432 	6.46325e-13 	100000
-4.22869 	348.432 	6.38221e-13 	100000
-4.22769 	348.432 	6.30118e-13 	100000
-4.22669 	348.432 	6.22015e-13 	100000
-4.22569 	348.432 	6.13912e-13 	100000
-4.22469 	348.432 	6.05808e-13 	100000
-4.22369 	348.432 	5.97705e-13 	100000