/*--------------------------------*- C++ -*----------------------------------*\
  =========                 |
  \\      /  F ield         | OpenFOAM: The Open Source CFD Toolbox
   \\    /   O peration     | Website:  https://openfoam.org
    \\  /    A nd           | Version:  7
     \\/     M anipulation  |
\*---------------------------------------------------------------------------*/
FoamFile
{
    version     2.0;
    format      ascii;
    class       volScalarField;
    location    "6.4";
    object      p;
}
// * * * * * * * * * * * * * * * * * * * * * * * * * * * * * * * * * * * * * //

dimensions      [1 -1 -2 0 0 0 0];

internalField   nonuniform List<scalar> 
19968
(
1
1
1
1
1
1
1
1
1
1
1
1
1
1
1
1
1
1
1
1
1
1
1
1
1
1
1
1
1
1
1
1
1
1
1
1
1
1
1
1
1
1
1
1
1
1
1
1
1.56508
8.06848
10.4336
10.4373
10.5107
10.5673
10.63
10.6912
10.7493
10.8054
10.8605
10.9147
10.9678
11.0183
11.0656
11.1123
11.1609
11.2108
11.2591
11.3049
11.3482
11.3903
11.433
11.477
11.521
11.5617
11.5966
11.626
11.6531
11.6818
11.7148
11.7522
11.7911
11.8269
11.8562
11.8787
11.8967
11.9134
11.9313
11.951
11.9716
11.9907
12.0062
12.017
12.0232
12.026
12.0271
12.0289
1
1
1
1
1
1
1
1
1
1
1
1
1
1
1
1
1
1
1
1
1
1
1
1
1
1
1
1
1
1
1
1
1
1
1
1
1
1
1
1
1
1
1
1
1
1
1
1
1.53227
7.99023
10.4126
10.4455
10.511
10.5683
10.63
10.6909
10.7492
10.8051
10.8599
10.9133
10.9659
11.016
11.0634
11.1101
11.1582
11.2071
11.2547
11.3002
11.3436
11.386
11.4287
11.4726
11.5164
11.557
11.592
11.6219
11.6494
11.6785
11.7115
11.7486
11.787
11.8223
11.8513
11.8735
11.8913
11.9077
11.9251
11.9445
11.9649
11.9843
12.0003
12.0115
12.0176
12.0198
12.02
12.0207
1
1
1
1
1
1
1
1
1
1
1
1
1
1
1
1
1
1
1
1
1
1
1
1
1
1
1
1
1
1
1
1
1
1
1
1
1
1
1
1
1
1
1
1
1
1
1
1
1.46056
7.83059
10.404
10.4385
10.5027
10.5618
10.6239
10.6855
10.7441
10.8002
10.855
10.9078
10.96
11.0098
11.0575
11.1043
11.1518
11.1997
11.2465
11.2915
11.3349
11.3774
11.42
11.4636
11.5071
11.5477
11.5832
11.6139
11.6422
11.6717
11.7047
11.7412
11.7788
11.8135
11.8421
11.8643
11.8821
11.8982
11.9152
11.934
11.9543
11.9741
11.991
12.0029
12.0091
12.0106
12.0099
12.0093
1
1
1
1
1
1
1
1
1
1
1
1
1
1
1
1
1
1
1
1
1
1
1
1
1
1
1
1
1
1
1
1
1
1
1
1
1
1
1
1
1
1
1
1
1
1
1
1
1.35722
7.57441
10.3909
10.4316
10.4947
10.5546
10.6166
10.6782
10.7368
10.7928
10.8479
10.9003
10.9519
11.0013
11.0488
11.0954
11.1421
11.1889
11.2347
11.2793
11.3225
11.3647
11.4069
11.45
11.4932
11.534
11.5705
11.6025
11.6319
11.6619
11.6945
11.7301
11.7664
11.8
11.8279
11.8495
11.8667
11.882
11.8981
11.9163
11.9365
11.957
11.9752
11.9881
11.9946
11.9958
11.994
11.9918
1
1
1
1
1
1
1
1
1
1
1
1
1
1
1
1
1
1
1
1
1
1
1
1
1
1
1
1
1
1
1
1
1
1
1
1
1
1
1
1
1
1
1
1
1
1
1
1
1.22636
7.2332
10.387
10.4285
10.4862
10.5442
10.6047
10.6657
10.724
10.7801
10.8358
10.8887
10.9403
10.9898
11.0375
11.0842
11.1303
11.1763
11.2214
11.2655
11.3081
11.3496
11.3908
11.4329
11.4757
11.517
11.5548
11.5883
11.6191
11.6496
11.6819
11.7164
11.7515
11.7839
11.811
11.8321
11.8487
11.8634
11.8786
11.896
11.9158
11.9362
11.9544
11.9669
11.9728
11.9722
11.9682
11.9642
1
1
1
1
1
1
1
1
1
1
1
1
1
1
1
1
1
1
1
1
1
1
1
1
1
1
1
1
1
1
1
1
1
1
1
1
1
1
1
1
1
1
1
1
1
1
1
1
1.01925
6.72244
10.3665
10.4182
10.4752
10.535
10.5968
10.6586
10.7174
10.7736
10.8289
10.8812
10.9316
10.9803
11.0272
11.073
11.1178
11.1621
11.2057
11.2488
11.2902
11.3301
11.3693
11.4093
11.4505
11.4912
11.5293
11.5637
11.5955
11.6263
11.6581
11.6913
11.7247
11.7556
11.7817
11.8022
11.8185
11.8332
11.8488
11.8669
11.8875
11.9088
11.9276
11.9407
11.9464
11.9445
11.9387
11.933
1
1
1
1
1
1
1
1
1
1
1
1
1
1
1
1
1
1
1
1
1
1
1
1
1
1
1
1
1
1
1
1
1
1
1
1
1
1
1
1
1
1
1
1
1
1
1
1
1.00013
6.01477
10.2792
10.3761
10.4332
10.4963
10.559
10.6207
10.679
10.7345
10.789
10.8415
10.8922
10.9415
10.9888
11.0349
11.0799
11.1241
11.1681
11.2119
11.2539
11.2941
11.3325
11.3711
11.4104
11.4497
11.4876
11.5232
11.5567
11.5892
11.6215
11.6539
11.6857
11.715
11.7399
11.76
11.7766
11.7921
11.8088
11.828
11.8494
11.871
11.8896
11.9023
11.9069
11.9034
11.8965
11.8898
1
1
1
1
1
1
1
1
1
1
1
1
1
1
1
1
1
1
1
1
1
1
1
1
1
1
1
1
1
1
1
1
1
1
1
1
1
1
1
1
1
1
1
1
1
1
1
1
1
5.08876
10.1396
10.3501
10.4018
10.4685
10.5322
10.5947
10.6533
10.7083
10.7606
10.8118
10.8619
10.9109
10.9583
11.0041
11.0485
11.0914
11.1343
11.1776
11.2194
11.2595
11.2969
11.3336
11.3703
11.4071
11.4434
11.479
11.5136
11.5472
11.5799
11.6114
11.6413
11.6684
11.6915
11.7108
11.7275
11.7439
11.7616
11.7818
11.8035
11.8247
11.8421
11.8535
11.8565
11.8519
11.8445
11.8377
1
1
1
1
1
1
1
1
1
1
1
1
1
1
1
1
1
1
1
1
1
1
1
1
1
1
1
1
1
1
1
1
1
1
1
1
1
1
1
1
1
1
1
1
1
1
1
1
1
4.01534
9.85289
10.3289
10.3725
10.4409
10.5031
10.5646
10.6224
10.6767
10.7273
10.7769
10.8264
10.8751
10.9221
10.9671
11.0101
11.0509
11.0917
11.1337
11.1746
11.2138
11.2495
11.2837
11.3172
11.3509
11.3851
11.4198
11.4547
11.489
11.5218
11.5524
11.5803
11.6049
11.6261
11.6445
11.6614
11.6788
11.698
11.7193
11.7415
11.7619
11.7779
11.7876
11.7896
11.7852
11.7783
11.7726
1
1
1
1
1
1
1
1
1
1
1
1
1
1
1
1
1
1
1
1
1
1
1
1
1
1
1
1
1
1
1
1
1
1
1
1
1
1
1
1
1
1
1
1
1
1
1
1
1
2.88473
9.32459
10.3084
10.3645
10.43
10.4855
10.5423
10.5967
10.6493
10.698
10.7452
10.7931
10.8405
10.8858
10.9289
10.9702
11.0089
11.0477
11.0878
11.1265
11.1636
11.1969
11.2279
11.2578
11.2882
11.3194
11.3516
11.3847
11.4178
11.4493
11.4781
11.5038
11.5262
11.5456
11.5632
11.5803
11.5987
11.619
11.6408
11.6622
11.6807
11.6938
11.7007
11.7011
11.6971
11.691
11.6868
1
1
1
1
1
1
1
1
1
1
1
1
1
1
1
1
1
1
1
1
1
1
1
1
1
1
1
1
1
1
1
1
1
1
1
1
1
1
1
1
1
1
1
1
1
1
1
1
1
1.83351
8.37187
10.3435
10.3305
10.3906
10.4427
10.5002
10.5552
10.6077
10.656
10.7017
10.7489
10.7966
10.8413
10.883
10.9227
10.9602
10.9972
11.0356
11.0724
11.107
11.1385
11.1675
11.1955
11.2236
11.2523
11.2817
11.3118
11.3416
11.3697
11.3948
11.416
11.4337
11.4486
11.4621
11.4761
11.4922
11.5111
11.5318
11.5522
11.5694
11.5813
11.587
11.5875
11.5849
11.5806
11.5785
1
1
1
1
1
1
1
1
1
1
1
1
1
1
1
1
1
1
1
1
1
1
1
1
1
1
1
1
1
1
1
1
1
1
1
1
1
1
1
1
1
1
1
1
1
1
1
1
1
1.03205
6.70022
10.3559
10.368
10.3964
10.4384
10.4848
10.5324
10.5793
10.6241
10.6657
10.7084
10.7518
10.7919
10.8291
10.8648
10.8984
10.9312
10.9655
10.9987
11.0294
11.0584
11.0849
11.1109
11.1368
11.1632
11.1899
11.2168
11.2434
11.2684
11.2902
11.308
11.322
11.3333
11.3436
11.3548
11.3687
11.3855
11.4039
11.4208
11.4333
11.4399
11.44
11.4349
11.429
11.4228
11.4203
1
1
1
1
1
1
1
1
1
1
1
1
1
1
1
1
1
1
1
1
1
1
1
1
1
1
1
1
1
1
1
1
1
1
1
1
1
1
1
1
1
1
1
1
1
1
1
1
1
1.00006
4.60142
9.92077
10.1989
10.2595
10.3263
10.3833
10.4358
10.483
10.5269
10.5675
10.6077
10.6497
10.6896
10.7261
10.7604
10.7928
10.824
10.8563
10.889
10.9193
10.9478
10.9735
10.9981
11.0224
11.0468
11.0711
11.0953
11.1189
11.1405
11.1583
11.1713
11.1798
11.1847
11.1878
11.1911
11.196
11.2033
11.2125
11.2218
11.2294
11.2338
11.2344
11.2306
11.2257
11.2196
11.2171
1
1
1
1
1
1
1
1
1
1
1
1
1
1
1
1
1
1
1
1
1
1
1
1
1
1
1
1
1
1
1
1
1
1
1
1
1
1
1
1
1
1
1
1
1
1
1
1
1
1
2.39542
8.78975
10.1366
10.1836
10.2652
10.3248
10.3786
10.4258
10.4675
10.5052
10.541
10.5789
10.6166
10.6511
10.6827
10.7118
10.739
10.7665
10.7954
10.8231
10.8482
10.8703
10.8898
10.9083
10.9265
10.9446
10.9627
10.9803
10.9958
11.0072
11.0136
11.0146
11.0111
11.0056
11
10.996
10.9947
10.9958
10.998
10.9994
10.9952
10.9837
10.9609
10.9301
10.8966
10.8688
1
1
1
1
1
1
1
1
1
1
1
1
1
1
1
1
1
1
1
1
1
1
1
1
1
1
1
1
1
1
1
1
1
1
1
1
1
1
1
1
1
1
1
1
1
1
1
1
1
1
1.05943
6.40949
10.2069
10.2256
10.2387
10.2746
10.3136
10.3533
10.3886
10.4217
10.4528
10.4846
10.5174
10.5487
10.577
10.6023
10.625
10.6467
10.67
10.6942
10.7162
10.735
10.7494
10.7609
10.7712
10.7814
10.7918
10.8021
10.8105
10.8149
10.8131
10.8051
10.7912
10.7731
10.7524
10.7302
10.7066
10.6808
10.6513
10.6162
10.5749
10.5285
10.4837
10.4383
10.4095
10.3917
1
1
1
1
1
1
1
1
1
1
1
1
1
1
1
1
1
1
1
1
1
1
1
1
1
1
1
1
1
1
1
1
1
1
1
1
1
1
1
1
1
1
1
1
1
1
1
1
1
1
1.00009
3.31019
9.23599
10.0399
10.079
10.1396
10.1896
10.2372
10.2779
10.3128
10.3432
10.372
10.4015
10.4314
10.459
10.482
10.5001
10.515
10.5305
10.5491
10.5689
10.5855
10.5963
10.6012
10.6012
10.5994
10.5975
10.596
10.5938
10.588
10.5757
10.556
10.5283
10.4933
10.4521
10.4062
10.3562
10.302
10.2428
10.1787
10.1107
10.0399
9.95227
9.86509
9.74277
9.82422
1
1
1
1
1
1
1
1
1
1
1
1
1
1
1
1
1
1
1
1
1
1
1
1
1
1
1
1
1
1
1
1
1
1
1
1
1
1
1
1
1
1
1
1
1
1
1
1
1
1
1
1.21888
7.22901
10.1166
10.0828
10.1034
10.1398
10.1781
10.2129
10.2413
10.2647
10.2856
10.307
10.3304
10.3532
10.3719
10.3846
10.3926
10.3996
10.4097
10.4237
10.4376
10.4464
10.4464
10.4385
10.4258
10.4116
10.3975
10.3826
10.3644
10.3405
10.3086
10.267
10.2145
10.1511
10.0776
9.99361
9.89684
9.77981
9.63632
9.448
9.19963
8.82634
8.27065
7.33711
5.43437
1
1
1
1
1
1
1
1
1
1
1
1
1
1
1
1
1
1
1
1
1
1
1
1
1
1
1
1
1
1
1
1
1
1
1
1
1
1
1
1
1
1
1
1
1
1
1
1
1
1
1
1.00172
4.58154
9.6706
9.91849
9.96226
10.0101
10.0535
10.0952
10.1296
10.1565
10.1791
10.2004
10.2217
10.2424
10.26
10.2723
10.2793
10.282
10.2843
10.2893
10.2969
10.3029
10.3009
10.2899
10.2712
10.2479
10.2226
10.1952
10.1642
10.128
10.0844
10.0306
9.96352
9.88023
9.7814
9.66327
9.52541
9.35324
9.14313
8.86367
8.51004
8.00254
7.32587
6.11481
4.50557
1
1
1
1
1
1
1
1
1
1
1
1
1
1
1
1
1
1
1
1
1
1
1
1
1
1
1
1
1
1
1
1
1
1
1
1
1
1
1
1
1
1
1
1
1
1
1
1
1
1
1
0.999996
1.90335
8.19617
9.9172
9.91494
9.95168
9.98553
10.0217
10.0537
10.0791
10.0998
10.1176
10.1334
10.1476
10.16
10.17
10.1757
10.1759
10.1721
10.1676
10.1654
10.1637
10.1559
10.1395
10.1144
10.0826
10.0468
10.0072
9.96269
9.91175
9.85389
9.78553
9.70413
9.6026
9.48119
9.33263
9.15803
8.94325
8.68276
8.35453
7.93587
7.40461
6.65605
5.63841
4.5369
1
1
1
1
1
1
1
1
1
1
1
1
1
1
1
1
1
1
1
1
1
1
1
1
1
1
1
1
1
1
1
1
1
1
1
1
1
1
1
1
1
1
1
1
1
1
1
1
1
1
1
0.999999
1.0292
5.3446
9.76447
9.85249
9.88012
9.90574
9.93724
9.96716
9.99163
10.0122
10.0293
10.0422
10.0506
10.056
10.0591
10.0597
10.0566
10.0499
10.0409
10.0314
10.0214
10.0056
9.98238
9.95075
9.91194
9.86796
9.81832
9.7624
9.69739
9.62423
9.53944
9.44248
9.3255
9.1871
9.01892
8.81905
8.57851
8.28912
7.94072
7.50832
6.98065
6.32379
5.55943
4.70808
1
1
1
1
1
1
1
1
1
1
1
1
1
1
1
1
1
1
1
1
1
1
1
1
1
1
1
1
1
1
1
1
1
1
1
1
1
1
1
1
1
1
1
1
1
1
1
1
1
1
1
1
1
2.19001
8.43518
9.79727
9.80843
9.83654
9.86063
9.88535
9.90611
9.92389
9.93894
9.95018
9.95489
9.95625
9.95355
9.94671
9.93752
9.92829
9.91739
9.90369
9.88583
9.86047
9.82861
9.78962
9.7437
9.69281
9.63512
9.57045
9.49435
9.4073
9.3064
9.19269
9.06188
8.91098
8.73314
8.52237
8.27215
7.9757
7.62952
7.21201
6.72601
6.18171
5.58575
4.91695
1
1
1
1
1
1
1
1
1
1
1
1
1
1
1
1
1
1
1
1
1
1
1
1
1
1
1
1
1
1
1
1
1
1
1
1
1
1
1
1
1
1
1
1
1
1
1
1
1
1
1
1
0.999999
1.04621
5.473
9.6673
9.74843
9.76837
9.7856
9.80539
9.82155
9.83364
9.8439
9.85382
9.85642
9.85675
9.85182
9.83877
9.82248
9.80872
9.7944
9.77609
9.75101
9.71743
9.67758
9.63199
9.57917
9.52127
9.45608
9.38419
9.30092
9.2047
9.09217
8.96392
8.81975
8.65817
8.47533
8.26372
8.01835
7.73062
7.40351
7.01941
6.58725
6.12993
5.6417
5.10281
1
1
1
1
1
1
1
1
1
1
1
1
1
1
1
1
1
1
1
1
1
1
1
1
1
1
1
1
1
1
1
1
1
1
1
1
1
1
1
1
1
1
1
1
1
1
1
1
1
1
1
1
1
1.00004
2.05618
8.24886
9.67947
9.69362
9.71317
9.72831
9.73719
9.7382
9.73874
9.7414
9.73869
9.73599
9.73284
9.72128
9.70499
9.68986
9.6722
9.64854
9.61592
9.57455
9.52645
9.47477
9.41683
9.35383
9.28325
9.2051
9.11649
9.01512
8.89738
8.76189
8.6089
8.43994
8.25395
8.04493
7.81247
7.53859
7.23823
6.89709
6.51797
6.12221
5.70385
5.25699
1
1
1
1
1
1
1
1
1
1
1
1
1
1
1
1
1
1
1
1
1
1
1
1
1
1
1
1
1
1
1
1
1
1
1
1
1
1
1
1
1
1
1
1
1
1
1
1
1
1
1
1
1
1
1.03425
4.92438
9.37917
9.60345
9.61931
9.63877
9.65246
9.65771
9.65894
9.6569
9.64815
9.63764
9.62822
9.61415
9.59608
9.57778
9.55505
9.52579
9.4875
9.44041
9.38564
9.32793
9.26456
9.1963
9.1208
9.03681
8.94284
8.83763
8.71855
8.58242
8.42708
8.25526
8.06818
7.8615
7.64098
7.38274
7.11045
6.81143
6.47696
6.13634
5.77037
5.39733
1
1
1
1
1
1
1
1
1
1
1
1
1
1
1
1
1
1
1
1
1
1
1
1
1
1
1
1
1
1
1
1
1
1
1
1
1
1
1
1
1
1
1
1
1
1
1
1
1
1
1
1
1
1
1.00003
1.53707
7.60087
9.62945
9.59253
9.57982
9.57325
9.5701
9.56674
9.55826
9.54346
9.52769
9.5137
9.49936
9.48078
9.45902
9.43057
9.39757
9.35561
9.30523
9.24721
9.18526
9.11668
9.04406
8.96518
8.87747
8.77942
8.67103
8.55211
8.41947
8.26911
8.10152
7.91989
7.71533
7.50394
7.26128
7.01215
6.74623
6.4503
6.15408
5.83003
5.51128
1
1
1
1
1
1
1
1
1
1
1
1
1
1
1
1
1
1
1
1
1
1
1
1
1
1
1
1
1
1
1
1
1
1
1
1
1
1
1
1
1
1
1
1
1
1
1
1
1
1
1
1
1
1
1
1.00854
3.89853
8.95671
9.40757
9.43894
9.46708
9.46827
9.46807
9.4588
9.44035
9.41986
9.40073
9.38221
9.3608
9.33552
9.30334
9.26984
9.22668
9.17387
9.11585
9.05276
8.98066
8.9043
8.82206
8.73179
8.63104
8.51998
8.39948
8.26913
8.12661
7.96638
7.79478
7.59605
7.39603
7.16827
6.93919
6.69556
6.43214
6.16642
5.88068
5.60125
1
1
1
1
1
1
1
1
1
1
1
1
1
1
1
1
1
1
1
1
1
1
1
1
1
1
1
1
1
1
1
1
1
1
1
1
1
1
1
1
1
1
1
1
1
1
1
1
1
1
1
1
1
1
1
1
1.22338
6.23876
9.3264
9.38118
9.39292
9.38352
9.38128
9.37223
9.35243
9.3281
9.30398
9.27974
9.25378
9.22422
9.18825
9.15337
9.10882
9.05334
8.99466
8.93117
8.85662
8.7771
8.69088
8.59772
8.49674
8.38451
8.26291
8.13362
7.99811
7.84457
7.68324
7.4977
7.31177
7.09847
6.88727
6.65877
6.42196
6.17595
5.92282
5.67083
1
1
1
1
1
1
1
1
1
1
1
1
1
1
1
1
1
1
1
1
1
1
1
1
1
1
1
1
1
1
1
1
1
1
1
1
1
1
1
1
1
1
1
1
1
1
1
1
1
1
1
1
1
1
1
1
1.00153
2.15471
7.98002
9.31739
9.25857
9.26968
9.27076
9.26797
9.25499
9.23291
9.20733
9.17943
9.14903
9.11613
9.0772
9.03857
8.99316
8.93561
8.87496
8.81078
8.73634
8.65604
8.56719
8.47226
8.37332
8.25952
8.14403
8.01351
7.879
7.73212
7.57907
7.41156
7.23801
7.0419
6.84716
6.6341
6.41833
6.18887
5.96323
5.73244
1
1
1
1
1
1
1
1
1
1
1
1
1
1
1
1
1
1
1
1
1
1
1
1
1
1
1
1
1
1
1
1
1
1
1
1
1
1
1
1
1
1
1
1
1
1
1
1
1
1
1
1
1
1
1
1
1
1.03793
4.14628
8.87914
9.15521
9.16953
9.18412
9.17936
9.16635
9.14313
9.11622
9.08693
9.05459
9.01952
8.97854
8.93398
8.88825
8.8285
8.76557
8.6999
8.62675
8.54667
8.45692
8.36236
8.26493
8.15384
8.03529
7.9082
7.77584
7.63613
7.48857
7.33581
7.17089
6.99327
6.81099
6.61524
6.41709
6.20617
6.00175
5.79025
1
1
1
1
1
1
1
1
1
1
1
1
1
1
1
1
1
1
1
1
1
1
1
1
1
1
1
1
1
1
1
1
1
1
1
1
1
1
1
1
1
1
1
1
1
1
1
1
1
1
1
1
1
1
1
1
1
1.00007
1.25343
5.69583
9.01052
9.1616
9.13642
9.12692
9.10665
9.07532
9.04045
9.00554
8.96937
8.93135
8.88779
8.83924
8.79149
8.73208
8.6671
8.59947
8.52684
8.44663
8.35652
8.26352
8.16633
8.05676
7.9406
7.81633
7.68605
7.55142
7.40878
7.26617
7.11092
6.94924
6.77703
6.59864
6.41408
6.22433
6.03498
5.84177
1
1
1
1
1
1
1
1
1
1
1
1
1
1
1
1
1
1
1
1
1
1
1
1
1
1
1
1
1
1
1
1
1
1
1
1
1
1
1
1
1
1
1
1
1
1
1
1
1
1
1
1
1
1
1
1
1
1
1.00202
1.61295
7.24378
9.15945
9.09239
9.06442
9.02302
8.98451
8.94749
8.911
8.87536
8.83853
8.79378
8.74466
8.69555
8.63697
8.57147
8.50227
8.43091
8.35329
8.26576
8.175
8.07831
7.97155
7.85747
7.73735
7.61085
7.4805
7.34393
7.20681
7.06092
6.91009
6.74801
6.58314
6.41076
6.23985
6.06301
5.88643
1
1
1
1
1
1
1
1
1
1
1
1
1
1
1
1
1
1
1
1
1
1
1
1
1
1
1
1
1
1
1
1
1
1
1
1
1
1
1
1
1
1
1
1
1
1
1
1
1
1
1
1
1
1
1
1
1
1
1
1.0108
3.02064
8.2997
8.96026
8.89644
8.86913
8.84723
8.8265
8.80084
8.77007
8.73753
8.69597
8.65035
8.60267
8.5453
8.48193
8.41327
8.34051
8.26443
8.18108
8.09205
7.99665
7.89359
7.78304
7.66704
7.54553
7.41956
7.28971
7.15645
7.01881
6.87608
6.72446
6.57
6.40861
6.25116
6.08507
5.92214
1
1
1
1
1
1
1
1
1
1
1
1
1
1
1
1
1
1
1
1
1
1
1
1
1
1
1
1
1
1
1
1
1
1
1
1
1
1
1
1
1
1
1
1
1
1
1
1
1
1
1
1
1
1
1
1
1
1
1
1.00001
1.10679
4.34921
8.60272
8.79394
8.76796
8.76981
8.75798
8.73648
8.70618
8.6719
8.62923
8.58308
8.53108
8.47091
8.4052
8.33588
8.26204
8.18362
8.10254
8.01634
7.92317
7.82275
7.71634
7.60463
7.48859
7.36813
7.24521
7.11723
6.98698
6.85049
6.7077
6.56194
6.41002
6.26162
6.10474
5.9522
1
1
1
1
1
1
1
1
1
1
1
1
1
1
1
1
1
1
1
1
1
1
1
1
1
1
1
1
1
1
1
1
1
1
1
1
1
1
1
1
1
1
1
1
1
1
1
1
1
1
1
1
1
1
1
1
1
1
1
1
1.00049
1.29137
5.18781
8.59065
8.71622
8.71444
8.70457
8.68016
8.64926
8.6124
8.56777
8.51767
8.46119
8.39925
8.33274
8.26293
8.18975
8.11044
8.02652
7.94254
7.85326
7.75657
7.65464
7.54826
7.43793
7.32343
7.20654
7.08436
6.96084
6.82989
6.6945
6.55625
6.41247
6.27056
6.122
5.9774
1
1
1
1
1
1
1
1
1
1
1
1
1
1
1
1
1
1
1
1
1
1
1
1
1
1
1
1
1
1
1
1
1
1
1
1
1
1
1
1
1
1
1
1
1
1
1
1
1
1
1
1
1
1
1
1
1
1
1
1
1
1.00278
1.48936
5.8625
8.58957
8.68931
8.65814
8.62777
8.59266
8.55183
8.50643
8.4563
8.39957
8.33689
8.27024
8.19969
8.12563
8.047
7.96325
7.87856
7.79173
7.69893
7.60117
7.49952
7.3941
7.28533
7.1735
7.05643
6.93765
6.81033
6.67995
6.54882
6.41346
6.27806
6.13858
6.00084
1
1
1
1
1
1
1
1
1
1
1
1
1
1
1
1
1
1
1
1
1
1
1
1
1
1
1
1
1
1
1
1
1
1
1
1
1
1
1
1
1
1
1
1
1
1
1
1
1
1
1
1
1
1
1
1
1
1
1
1
1
1
1.00717
1.71516
6.4399
8.56183
8.60902
8.57706
8.53551
8.49259
8.4451
8.39356
8.3361
8.27445
8.20916
8.13907
8.06476
7.98658
7.90483
7.8212
7.73517
7.64517
7.55138
7.45396
7.35266
7.24853
7.14061
7.02783
6.91259
6.78907
6.66415
6.54079
6.41331
6.28474
6.15387
6.02292
1
1
1
1
1
1
1
1
1
1
1
1
1
1
1
1
1
1
1
1
1
1
1
1
1
1
1
1
1
1
1
1
1
1
1
1
1
1
1
1
1
1
1
1
1
1
1
1
1
1
1
1
1
1
1
1
1
1
1
1
1
1
1.00001
1.01448
1.97435
6.87015
8.53061
8.53696
8.49849
8.44652
8.3965
8.34089
8.27889
8.21627
8.15104
8.08146
8.00829
7.93203
7.85357
7.77318
7.68963
7.60192
7.5104
7.41525
7.3161
7.21438
7.10917
7.00034
6.88908
6.77141
6.65338
6.53691
6.41535
6.29316
6.16955
6.04587
1
1
1
1
1
1
1
1
1
1
1
1
1
1
1
1
1
1
1
1
1
1
1
1
1
1
1
1
1
1
1
1
1
1
1
1
1
1
1
1
1
1
1
1
1
1
1
1
1
1
1
1
1
1
1
1
1
1
1
1
1
1
1
1.00003
1.02597
2.22855
7.24377
8.4929
8.45575
8.40548
8.34444
8.2837
8.22118
8.15789
8.0913
8.02321
7.95257
7.87943
7.80437
7.7269
7.64572
7.55979
7.47005
7.37684
7.28038
7.18177
7.08015
6.9756
6.86876
6.75689
6.64499
6.53353
6.41757
6.30126
6.18423
6.06723
1
1
1
1
1
1
1
1
1
1
1
1
1
1
1
1
1
1
1
1
1
1
1
1
1
1
1
1
1
1
1
1
1
1
1
1
1
1
1
1
1
1
1
1
1
1
1
1
1
1
1
1
1
1
1
1
1
1
1
1
1
1
1
1
1.00008
1.04065
2.58975
7.48769
8.38955
8.33774
8.29174
8.22856
8.16404
8.10113
8.03806
7.97394
7.90684
7.83636
7.76303
7.68643
7.60579
7.52081
7.43223
7.34119
7.24828
7.15305
7.05492
6.95419
6.85144
6.74517
6.63908
6.53158
6.42095
6.30925
6.19811
6.08625
1
1
1
1
1
1
1
1
1
1
1
1
1
1
1
1
1
1
1
1
1
1
1
1
1
1
1
1
1
1
1
1
1
1
1
1
1
1
1
1
1
1
1
1
1
1
1
1
1
1
1
1
1
1
1
1
1
1
1
1
1
1
1
1
1
1.00015
1.06704
2.88542
7.55266
8.2754
8.22019
8.16406
8.10936
8.05163
7.99345
7.93184
7.86656
7.79757
7.72508
7.64922
7.56994
7.48696
7.40094
7.31265
7.22227
7.12907
7.03341
6.93565
6.83638
6.73486
6.63353
6.52981
6.42416
6.31662
6.21032
6.10261
1
1
1
1
1
1
1
1
1
1
1
1
1
1
1
1
1
1
1
1
1
1
1
1
1
1
1
1
1
1
1
1
1
1
1
1
1
1
1
1
1
1
1
1
1
1
1
1
1
1
1
1
1
1
1
1
1
1
1
1
1
1
1
1
1
1
1.00031
1.0948
2.99281
7.48592
8.16321
8.11454
8.06468
8.01297
7.95801
7.89841
7.83368
7.76423
7.69163
7.61606
7.53749
7.456
7.3721
7.28602
7.19794
7.1073
7.01445
6.91974
6.82349
6.72587
6.6279
6.52803
6.42634
6.32299
6.21945
6.11558
1
1
1
1
1
1
1
1
1
1
1
1
1
1
1
1
1
1
1
1
1
1
1
1
1
1
1
1
1
1
1
1
1
1
1
1
1
1
1
1
1
1
1
1
1
1
1
1
1
1
1
1
1
1
1
1
1
1
1
1
1
1
1
1
1
1
1
1.00053
1.10797
2.94204
7.36192
8.07854
8.03495
7.98645
7.9285
7.86659
7.80072
7.73064
7.65822
7.58356
7.5065
7.42698
7.34526
7.26143
7.17552
7.08737
6.99705
6.90536
6.81221
6.71815
6.62295
6.526
6.4273
6.32675
6.22491
6.12232
1
1
1
1
1
1
1
1
1
1
1
1
1
1
1
1
1
1
1
1
1
1
1
1
1
1
1
1
1
1
1
1
1
1
1
1
1
1
1
1
1
1
1
1
1
1
1
1
1
1
1
1
1
1
1
1
1
1
1
1
1
1
1
1
1
1
1
1
1.00067
1.10427
2.86814
7.18593
7.98754
7.95255
7.89261
7.83118
7.76374
7.69541
7.62488
7.55173
7.4768
7.39982
7.32071
7.23912
7.15549
7.06952
6.98186
6.89286
6.80234
6.71084
6.61766
6.52252
6.42477
6.32443
6.22477
6.12555
1
1
1
1
1
1
1
1
1
1
1
1
1
1
1
1
1
1
1
1
1
1
1
1
1
1
1
1
1
1
1
1
1
1
1
1
1
1
1
1
1
1
1
1
1
1
1
1
1
1
1
1
1
1
1
1
1
1
1
1
1
1
1
1
1
1
1
1
1
1.00064
1.09682
2.74217
6.94329
7.8878
7.86122
7.79548
7.7312
7.66225
7.59306
7.52147
7.44806
7.37294
7.2958
7.2165
7.13504
7.05208
6.96673
6.88081
6.7922
6.70251
6.60857
6.514
6.41916
6.32364
6.22919
6.14206
1
1
1
1
1
1
1
1
1
1
1
1
1
1
1
1
1
1
1
1
1
1
1
1
1
1
1
1
1
1
1
1
1
1
1
1
1
1
1
1
1
1
1
1
1
1
1
1
1
1
1
1
1
1
1
1
1
1
1
1
1
1
1
1
1
1
1
1
1
1
1.00058
1.08436
2.55789
6.61896
7.77063
7.76461
7.69701
7.63433
7.56551
7.49488
7.42191
7.34754
7.27148
7.19374
7.11497
7.03401
6.95206
6.86647
6.77906
6.69019
6.60153
6.50883
6.4213
6.34559
6.30211
6.28027
1
1
1
1
1
1
1
1
1
1
1
1
1
1
1
1
1
1
1
1
1
1
1
1
1
1
1
1
1
1
1
1
1
1
1
1
1
1
1
1
1
1
1
1
1
1
1
1
1
1
1
1
1
1
1
1
1
1
1
1
1
1
1
1
1
1
1
1
1
1
1
1.00048
1.06764
2.3307
6.17437
7.64307
7.67786
7.6066
7.54128
7.46944
7.39721
7.32301
7.24835
7.17202
7.09578
7.0163
6.93501
6.85286
6.7671
6.68223
6.60343
6.54562
6.51968
6.54961
6.6769
6.88176
1
1
1
1
1
1
1
1
1
1
1
1
1
1
1
1
1
1
1
1
1
1
1
1
1
1
1
1
1
1
1
1
1
1
1
1
1
1
1
1
1
1
1
1
1
1
1
1
1
1
1
1
1
1
1
1
1
1
1
1
1
1
1
1
1
1
1
1
1
1
1
1
1.00035
1.0498
2.06809
5.601
7.48755
7.60399
7.50965
7.44125
7.37027
7.29978
7.22806
7.15477
7.07871
6.99992
6.92105
6.83963
6.77379
6.73189
6.72712
6.81942
7.02236
7.326
7.6475
7.88961
1
1
1
1
1
1
1
1
1
1
1
1
1
1
1
1
1
1
1
1
1
1
1
1
1
1
1
1
1
1
1
1
1
1
1
1
1
1
1
1
1
1
1
1
1
1
1
1
1
1
1
1
1
1
1
1
1
1
1
1
1
1
1
1
1
1
1
1
1
1
1
1
1
1.00022
1.03286
1.79563
4.86449
7.3069
7.49905
7.41628
7.35358
7.28719
7.21856
7.14208
7.0694
6.99198
6.93358
6.90188
6.93693
7.09385
7.38221
7.77964
8.11579
8.38104
8.47736
8.48668
1
1
1
1
1
1
1
1
1
1
1
1
1
1
1
1
1
1
1
1
1
1
1
1
1
1
1
1
1
1
1
1
1
1
1
1
1
1
1
1
1
1
1
1
1
1
1
1
1
1
1
1
1
1
1
1
1
1
1
1
1
1
1
1
1
1
1
1
1
1
1
1
1
1
1.00012
1.01927
1.53078
4.08375
7.00498
7.39875
7.35102
7.2889
7.2123
7.13003
7.07174
7.05522
7.13653
7.35858
7.75919
8.21417
8.60106
8.84727
8.88855
8.8768
8.78495
8.69288
1
1
1
1
1
1
1
1
1
1
1
1
1
1
1
1
1
1
1
1
1
1
1
1
1
1
1
1
1
1
1
1
1
1
1
1
1
1
1
1
1
1
1
1
1
1
1
1
1
1
1
1
1
1
1
1
1
1
1
1
1
1
1
1
1
1
1
1
1
1
1
1
1
1
1
1.00006
1.00963
1.31843
3.33546
6.54019
7.31106
7.25179
7.17207
7.17408
7.30651
7.64122
8.14043
8.66719
9.08282
9.24867
9.30563
9.27357
9.15302
9.01647
8.88618
8.79202
1
1
1
1
1
1
1
1
1
1
1
1
1
1
1
1
1
1
1
1
1
1
1
1
1
1
1
1
1
1
1
1
1
1
1
1
1
1
1
1
1
1
1
1
1
1
1
1
1
1
1
1
1
1
1
1
1
1
1
1
1
1
1
1
1
1
1
1
1
1
1
1
1
1
1
1
1.00002
1.00419
1.17301
2.65811
5.93593
7.06416
7.4857
7.81076
8.50229
9.15909
9.54982
9.75142
9.72537
9.58633
9.48854
9.37744
9.24072
9.09374
8.97144
8.89823
1
1
1
1
1
1
1
1
1
1
1
1
1
1
1
1
1
1
1
1
1
1
1
1
1
1
1
1
1
1
1
1
1
1
1
1
1
1
1
1
1
1
1
1
1
1
1
1
1
1
1
1
1
1
1
1
1
1
1
1
1
1
1
1
1
1
1
1
1
1
1
1
1
1
1
1
1
1.00001
1.00156
1.08468
2.08792
5.22158
8.74943
9.57426
10.0222
10.1412
10.0884
10.0106
9.87812
9.70328
9.55493
9.43727
9.31518
9.19319
9.10018
9.05115
1
1
1
1
1
1
1
1
1
1
1
1
1
1
1
1
1
1
1
1
1
1
1
1
1
1
1
1
1
1
1
1
1
1
1
1
1
1
1
1
1
1
1
1
1
1
1
1
1
1
1
1
1
1
1
1
1
1
1
1
1
1
1
1
1
1
1
1
1
1
1
1
1
1
1
1
1
1
1
1.00052
1.03595
2.62297
9.84996
10.9286
10.6111
10.4182
10.2472
10.1131
9.96323
9.76916
9.6002
9.4826
9.3988
9.31926
9.25118
9.19355
1
1
1
1
1
1
1
1
1
1
1
1
1
1
1
1
1
1
1
1
1
1
1
1
1
1
1
1
1
1
1
1
1
1
1
1
1
1
1
1
1
1
1
1
1
1
1
1
1
1
1
1
1
1
1
1
1
1
1
1
1
1
1
1
1
1
1
1
1
1
1
1
1
1
1
1
1
1
1
1
1.00016
1.79946
8.75186
10.6008
10.2993
10.1573
10.0234
9.91336
9.81201
9.70703
9.62287
9.57406
9.54878
9.49314
9.42782
9.36541
1
1
1
1
1
1
1
1
1
1
1
1
1
1
1
1
1
1
1
1
1
1
1
1
1
1
1
1
1
1
1
1
1
1
1
1
1
1
1
1
1
1
1
1
1
1
1
1
1
1
1
1
1
1
1
1
1
1
1
1
1
1
1
1
1
1
1
1
1
1
1
1
1
1
1
1
1
1
1
1
1
1.05976
6.93808
10.3118
10.1957
10.1907
10.1087
10.0437
9.98173
9.92179
9.87264
9.81722
9.75397
9.67798
9.6058
9.53918
1
1
1
1
1
1
1
1
1
1
1
1
1
1
1
1
1
1
1
1
1
1
1
1
1
1
1
1
1
1
1
1
1
1
1
1
1
1
1
1
1
1
1
1
1
1
1
1
1
1
1
1
1
1
1
1
1
1
1
1
1
1
1
1
1
1
1
1
1
1
1
1
1
1
1
1
1
1
1
1
1
1.00025
4.69465
9.81058
10.0869
10.0772
10.0934
10.0599
10.0182
9.96415
9.91181
9.84633
9.77623
9.70447
9.63417
9.56461
1
1
1
1
1
1
1
1
1
1
1
1
1
1
1
1
1
1
1
1
1
1
1
1
1
1
1
1
1
1
1
1
1
1
1
1
1
1
1
1
1
1
1
1
1
1
1
1
1
1
1
1
1
1
1
1
1
1
1
1
1
1
1
1
1
1
1
1
1
1
1
1
1
1
1
1
1
1
1
1
1
1
2.66151
8.86676
10.1788
10.1308
10.0891
10.0586
10.0329
9.9928
9.9525
9.9094
9.86222
9.81093
9.75343
9.69434
1
1
1
1
1
1
1
1
1
1
1
1
1
1
1
1
1
1
1
1
1
1
1
1
1
1
1
1
1
1
1
1
1
1
1
1
1
1
1
1
1
1
1
1
1
1
1
1
1
1
1
1
1
1
1
1
1
1
1
1
1
1
1
1
1
1
1
1
1
1
1
1
1
1
1
1
1
1
1
1
1
1
1.26707
7.46252
10.2848
10.2084
10.1378
10.0888
10.0472
10.0156
9.97665
9.9326
9.88806
9.84033
9.78769
9.73204
1
1
1
1
1
1
1
1
1
1
1
1
1
1
1
1
1
1
1
1
1
1
1
1
1
1
1
1
1
1
1
1
1
1
1
1
1
1
1
1
1
1
1
1
1
1
1
1
1
1
1
1
1
1
1
1
1
1
1
1
1
1
1
1
1
1
1
1
1
1
1
1
1
1
1
1
1
1
1
1
1
1
1.00269
5.59971
10.0522
10.1789
10.1382
10.1097
10.0766
10.0401
10.0013
9.95935
9.91557
9.86869
9.82
9.76825
1
1
1
1
1
1
1
1
1
1
1
1
1
1
1
1
1
1
1
1
1
1
1
1
1
1
1
1
1
1
1
1
1
1
1
1
1
1
1
1
1
1
1
1
1
1
1
1
1
1
1
1
1
1
1
1
1
1
1
1
1
1
1
1
1
1
1
1
1
1
1
1
1
1
1
1
1
1
1
1
1
1
0.999998
3.62745
9.49726
10.1952
10.1495
10.1253
10.0862
10.0469
10.0068
9.96652
9.92442
9.88038
9.83417
9.78556
1
1
1
1
1
1
1
1
1
1
1
1
1
1
1
1
1
1
1
1
1
1
1
1
1
1
1
1
1
1
1
1
1
1
1
1
1
1
1
1
1
1
1
1
1
1
1
1
1
1
1
1
1
1
1
1
1
1
1
1
1
1
1
1
1
1
1
1
1
1
1
1
1
1
1
1
1
1
1
1
1
1
1
2.08246
8.60976
10.3263
10.2384
10.1893
10.1366
10.0888
10.0427
9.99833
9.95318
9.90791
9.86202
9.81583
1
1
1
1
1
1
1
1
1
1
1
1
1
1
1
1
1
1
1
1
1
1
1
1
1
1
1
1
1
1
1
1
1
1
1
1
1
1
1
1
1
1
1
1
1
1
1
1
1
1
1
1
1
1
1
1
1
1
1
1
1
1
1
1
1
1
1
1
1
1
1
1
1
1
1
1
1
1
1
1
1
1
1
1.11745
7.16127
10.3437
10.2649
10.1984
10.1473
10.1026
10.0597
10.0172
9.97377
9.92989
9.8851
9.83945
1
1
1
1
1
1
1
1
1
1
1
1
1
1
1
1
1
1
1
1
1
1
1
1
1
1
1
1
1
1
1
1
1
1
1
1
1
1
1
1
1
1
1
1
1
1
1
1
1
1
1
1
1
1
1
1
1
1
1
1
1
1
1
1
1
1
1
1
1
1
1
1
1
1
1
1
1
1
1
1
1
1
1
1.00061
5.56877
10.1217
10.2297
10.1903
10.1598
10.1223
10.0838
10.0433
10.0012
9.95813
9.91398
9.86878
1
1
1
1
1
1
1
1
1
1
1
1
1
1
1
1
1
1
1
1
1
1
1
1
1
1
1
1
1
1
1
1
1
1
1
1
1
1
1
1
1
1
1
1
1
1
1
1
1
1
1
1
1
1
1
1
1
1
1
1
1
1
1
1
1
1
1
1
1
1
1
1
1
1
1
1
1
1
1
1
1
1
1
1
4.06251
9.72287
10.2392
10.1965
10.1749
10.1405
10.1042
10.0645
10.0227
9.97961
9.93605
9.89158
1
1
1
1
1
1
1
1
1
1
1
1
1
1
1
1
1
1
1
1
1
1
1
1
1
1
1
1
1
1
1
1
1
1
1
1
1
1
1
1
1
1
1
1
1
1
1
1
1
1
1
1
1
1
1
1
1
1
1
1
1
1
1
1
1
1
1
1
1
1
1
1
1
1
1
1
1
1
1
1
1
1
1
1
2.73774
9.12487
10.2973
10.2349
10.2072
10.1693
10.1308
10.0897
10.0472
10.004
9.9612
9.91856
1
1
1
1
1
1
1
1
1
1
1
1
1
1
1
1
1
1
1
1
1
1
1
1
1
1
1
1
1
1
1
1
1
1
1
1
1
1
1
1
1
1
1
1
1
1
1
1
1
1
1
1
1
1
1
1
1
1
1
1
1
1
1
1
1
1
1
1
1
1
1
1
1
1
1
1
1
1
1
1
1
1
1
1
1.74082
8.28647
10.3623
10.2854
10.2423
10.1979
10.1547
10.111
10.0675
10.024
9.98085
9.93807
1
1
1
1
1
1
1
1
1
1
1
1
1
1
1
1
1
1
1
1
1
1
1
1
1
1
1
1
1
1
1
1
1
1
1
1
1
1
1
1
1
1
1
1
1
1
1
1
1
1
1
1
1
1
1
1
1
1
1
1
1
1
1
1
1
1
1
1
1
1
1
1
1
1
1
1
1
1
1
1
1
1
1
1
1.17627
7.26947
10.398
10.3259
10.2647
10.2145
10.1689
10.1254
10.0828
10.0401
9.99729
9.95494
1
1
1
1
1
1
1
1
1
1
1
1
1
1
1
1
1
1
1
1
1
1
1
1
1
1
1
1
1
1
1
1
1
1
1
1
1
1
1
1
1
1
1
1
1
1
1
1
1
1
1
1
1
1
1
1
1
1
1
1
1
1
1
1
1
1
1
1
1
1
1
1
1
1
1
1
1
1
1
1
1
1
1
1
1.0022
6.14848
10.2736
10.3162
10.2599
10.2235
10.1832
10.1428
10.1014
10.059
10.0158
9.97312
1
1
1
1
1
1
1
1
1
1
1
1
1
1
1
1
1
1
1
1
1
1
1
1
1
1
1
1
1
1
1
1
1
1
1
1
1
1
1
1
1
1
1
1
1
1
1
1
1
1
1
1
1
1
1
1
1
1
1
1
1
1
1
1
1
1
1
1
1
1
1
1
1
1
1
1
1
1
1
1
1
1
1
1
1
5.05589
10.0854
10.3159
10.2611
10.2299
10.191
10.1514
10.1105
10.0695
10.0281
9.98746
1
1
1
1
1
1
1
1
1
1
1
1
1
1
1
1
1
1
1
1
1
1
1
1
1
1
1
1
1
1
1
1
1
1
1
1
1
1
1
1
1
1
1
1
1
1
1
1
1
1
1
1
1
1
1
1
1
1
1
1
1
1
1
1
1
1
1
1
1
1
1
1
1
1
1
1
1
1
1
1
1
1
1
1
1
4.05848
9.83457
10.3513
10.2868
10.2559
10.2174
10.1789
10.1388
10.0984
10.0572
10.0161
1
1
1
1
1
1
1
1
1
1
1
1
1
1
1
1
1
1
1
1
1
1
1
1
1
1
1
1
1
1
1
1
1
1
1
1
1
1
1
1
1
1
1
1
1
1
1
1
1
1
1
1
1
1
1
1
1
1
1
1
1
1
1
1
1
1
1
1
1
1
1
1
1
1
1
1
1
1
1
1
1
1
1
1
1
3.207
9.52933
10.3871
10.3068
10.272
10.2314
10.1921
10.1519
10.1116
10.0704
10.0287
1
1
1
1
1
1
1
1
1
1
1
1
1
1
1
1
1
1
1
1
1
1
1
1
1
1
1
1
1
1
1
1
1
1
1
1
1
1
1
1
1
1
1
1
1
1
1
1
1
1
1
1
1
1
1
1
1
1
1
1
1
1
1
1
1
1
1
1
1
1
1
1
1
1
1
1
1
1
1
1
1
1
1
1
1
2.52117
9.17068
10.4083
10.3236
10.2866
10.2452
10.2055
10.1651
10.1244
10.083
10.0409
1
1
1
1
1
1
1
1
1
1
1
1
1
1
1
1
1
1
1
1
1
1
1
1
1
1
1
1
1
1
1
1
1
1
1
1
1
1
1
1
1
1
1
1
1
1
1
1
1
1
1
1
1
1
1
1
1
1
1
1
1
1
1
1
1
1
1
1
1
1
1
1
1
1
1
1
1
1
1
1
1
1
1
1
1
2.02778
8.74193
10.4206
10.3398
10.301
10.2597
10.2203
10.1804
10.1401
10.0989
10.0568
1
1
1
1
1
1
1
1
1
1
1
1
1
1
1
1
1
1
1
1
1
1
1
1
1
1
1
1
1
1
1
1
1
1
1
1
1
1
1
1
1
1
1
1
1
1
1
1
1
1
1
1
1
1
1
1
1
1
1
1
1
1
1
1
1
1
1
1
1
1
1
1
1
1
1
1
1
1
1
1
1
1
1
1
1
1.69809
8.3016
10.4124
10.3482
10.3114
10.271
10.232
10.1926
10.1526
10.1117
10.0699
1
1
1
1
1
1
1
1
1
1
1
1
1
1
1
1
1
1
1
1
1
1
1
1
1
1
1
1
1
1
1
1
1
1
1
1
1
1
1
1
1
1
1
1
1
1
1
1
1
1
1
1
1
1
1
1
1
1
1
1
1
1
1
1
1
1
1
1
1
1
1
1
1
1
1
1
1
1
1
1
1
1
1
1
1
1.47361
7.87866
10.3936
10.3517
10.3175
10.2814
10.2437
10.205
10.1657
10.1255
10.0845
1
1
1
1
1
1
1
1
1
1
1
1
1
1
1
1
1
1
1
1
1
1
1
1
1
1
1
1
1
1
1
1
1
1
1
1
1
1
1
1
1
1
1
1
1
1
1
1
1
1
1
1
1
1
1
1
1
1
1
1
1
1
1
1
1
1
1
1
1
1
1
1
1
1
1
1
1
1
1
1
1
1
1
1
1
1.31514
7.4967
10.3818
10.3584
10.3166
10.2828
10.2451
10.2071
10.1691
10.1315
10.0936
1
1
1
1
1
1
1
1
1
1
1
1
1
1
1
1
1
1
1
1
1
1
1
1
1
1
1
1
1
1
1
1
1
1
1
1
1
1
1
1
1
1
1
1
1
1
1
1
1
1
1
1
1
1
1
1
1
1
1
1
1
1
1
1
1
1
1
1
1
1
1
1
1
1
1
1
1
1
1
1
1
1
1
1
1
1.17381
7.1174
10.3838
10.3788
10.3282
10.2966
10.2585
10.2203
10.1818
10.1431
10.1036
1
1
1
1
1
1
1
1
1
1
1
1
1
1
1
1
1
1
1
1
1
1
1
1
1
1
1
1
1
1
1
1
1
1
1
1
1
1
1
1
1
1
1
1
1
1
1
1
1
1
1
1
1
1
1
1
1
1
1
1
1
1
1
1
1
1
1
1
1
1
1
1
1
1
1
1
1
1
1
1
1
1
1
1
1
1.03936
6.85091
10.4052
10.4104
10.349
10.3123
10.27
10.2291
10.1883
10.1474
10.1062
1
1
1
1
1
1
1
1
1
1
1
1
1
1
1
1
1
1
1
1
1
1
1
1
1
1
1
1
1
1
1
1
1
1
1
1
1
1
1
1
1
1
1
1
1
1
1
1
1
1
1
1
1
1
1
1
1
1
1
1
1
1
1
1
1
1
1
1
1
1
1
1
1
1
1
1
1
1
1
1
1
1
1
1
1
1.00033
6.61986
10.4044
10.4289
10.356
10.3163
10.2731
10.2321
10.191
10.1495
10.1077
1
1
1
1
1
1
1
1
1
1
1
1
1
1
1
1
1
1
1
1
1
1
1
1
1
1
1
1
1
1
1
1
1
1
1
1
1
1
1
1
1
1
1
1
1
1
1
1
1
1
1
1
1
1
1
1
1
1
1
1
1
1
1
1
1
1
1
1
1
1
1
1
1
1
1
1
1
1
1
1
1
1
1
1
1
1
6.50156
10.3877
10.4277
10.3583
10.3209
10.2778
10.2364
10.1946
10.1522
10.1098
1.07191
0.24702
0.0691542
0.0126979
0.0148674
0.0349273
0.0910124
0.153065
0.195071
0.274431
0.366537
0.428463
0.480866
0.541661
0.595647
0.657643
0.732953
0.813685
0.896083
0.953767
0.989708