/*--------------------------------*- C++ -*----------------------------------*\
  =========                 |
  \\      /  F ield         | OpenFOAM: The Open Source CFD Toolbox
   \\    /   O peration     | Website:  https://openfoam.org
    \\  /    A nd           | Version:  7
     \\/     M anipulation  |
\*---------------------------------------------------------------------------*/
FoamFile
{
    version     2.0;
    format      ascii;
    class       volScalarField;
    location    "6.4";
    object      T;
}
// * * * * * * * * * * * * * * * * * * * * * * * * * * * * * * * * * * * * * //

dimensions      [0 0 0 1 0 0 0];

internalField   nonuniform List<scalar> 
19968
(
1
1
1
1
1
1
1
1
1
1
1
1
1
1
1
1
1
1
1
1
1
1
1
1
1
1
1
1
1
1
1
1
1
1
1
1
1
1
1
1
1
1
1
1
1
1
1
1
1.2775
2.46215
2.68699
2.68891
2.69662
2.70284
2.70832
2.71214
2.7147
2.71692
2.71964
2.72343
2.72836
2.73373
2.73849
2.74217
2.74495
2.74724
2.74951
2.75214
2.7553
2.75885
2.7625
2.76595
2.76897
2.77146
2.77348
2.77525
2.77706
2.77909
2.78145
2.78406
2.78671
2.78913
2.7911
2.79262
2.79383
2.79494
2.79613
2.79744
2.79882
2.80011
2.80115
2.80189
2.80231
2.80251
2.80258
2.80269
1
1
1
1
1
1
1
1
1
1
1
1
1
1
1
1
1
1
1
1
1
1
1
1
1
1
1
1
1
1
1
1
1
1
1
1
1
1
1
1
1
1
1
1
1
1
1
1
1.26392
2.45364
2.6854
2.69031
2.6973
2.70313
2.7082
2.71187
2.71447
2.71677
2.71957
2.72338
2.7283
2.73361
2.73834
2.74199
2.74471
2.74694
2.74917
2.75179
2.75497
2.75854
2.7622
2.76564
2.76865
2.77113
2.77316
2.77497
2.77681
2.77887
2.78123
2.78381
2.78643
2.78882
2.79077
2.79227
2.79346
2.79455
2.79571
2.797
2.79837
2.79968
2.80076
2.80152
2.80194
2.80208
2.80209
2.80214
1
1
1
1
1
1
1
1
1
1
1
1
1
1
1
1
1
1
1
1
1
1
1
1
1
1
1
1
1
1
1
1
1
1
1
1
1
1
1
1
1
1
1
1
1
1
1
1
1.23273
2.43476
2.68573
2.69086
2.69729
2.70256
2.70716
2.71074
2.71355
2.71619
2.71932
2.72326
2.72813
2.73329
2.7379
2.74148
2.74413
2.74633
2.74854
2.75117
2.75436
2.75795
2.76159
2.765
2.76798
2.77047
2.77255
2.77443
2.77633
2.77843
2.78077
2.78332
2.78588
2.78822
2.79016
2.79165
2.79285
2.79392
2.79504
2.79629
2.79766
2.79899
2.80013
2.80094
2.80136
2.80147
2.80141
2.80137
1
1
1
1
1
1
1
1
1
1
1
1
1
1
1
1
1
1
1
1
1
1
1
1
1
1
1
1
1
1
1
1
1
1
1
1
1
1
1
1
1
1
1
1
1
1
1
1
1.18592
2.40521
2.68661
2.69128
2.6968
2.7014
2.70555
2.70915
2.71233
2.71556
2.71919
2.72328
2.72796
2.73281
2.7372
2.74066
2.74329
2.74551
2.74776
2.75042
2.7536
2.75713
2.76069
2.76404
2.76701
2.76956
2.77174
2.77372
2.7757
2.77781
2.78012
2.78259
2.78507
2.78734
2.78922
2.79068
2.79182
2.79284
2.7939
2.79511
2.79646
2.79785
2.79907
2.79994
2.80038
2.80046
2.80035
2.8002
1
1
1
1
1
1
1
1
1
1
1
1
1
1
1
1
1
1
1
1
1
1
1
1
1
1
1
1
1
1
1
1
1
1
1
1
1
1
1
1
1
1
1
1
1
1
1
1
1.12222
2.36418
2.68772
2.69154
2.69594
2.6999
2.70378
2.70755
2.71119
2.71493
2.71896
2.72315
2.7276
2.7321
2.73621
2.73961
2.74234
2.74473
2.74713
2.74983
2.75292
2.75627
2.75964
2.76286
2.76582
2.76845
2.77078
2.7729
2.77496
2.77709
2.77935
2.78173
2.78411
2.78631
2.78814
2.78956
2.79066
2.79162
2.79262
2.79377
2.79509
2.79646
2.79768
2.79852
2.79891
2.79888
2.79861
2.79834
1
1
1
1
1
1
1
1
1
1
1
1
1
1
1
1
1
1
1
1
1
1
1
1
1
1
1
1
1
1
1
1
1
1
1
1
1
1
1
1
1
1
1
1
1
1
1
1
1.01013
2.29953
2.68696
2.69111
2.69492
2.69868
2.70267
2.70689
2.71111
2.71521
2.71936
2.72347
2.72755
2.7315
2.73514
2.73841
2.74131
2.74399
2.74661
2.74935
2.75224
2.75525
2.75826
2.76124
2.7641
2.76678
2.76921
2.77144
2.77356
2.77566
2.77784
2.7801
2.78237
2.78447
2.78623
2.7876
2.78868
2.78964
2.79065
2.79185
2.79322
2.79464
2.7959
2.79677
2.79715
2.79701
2.79662
2.79624
1
1
1
1
1
1
1
1
1
1
1
1
1
1
1
1
1
1
1
1
1
1
1
1
1
1
1
1
1
1
1
1
1
1
1
1
1
1
1
1
1
1
1
1
1
1
1
1
1.00006
2.21434
2.68199
2.68779
2.69124
2.69529
2.69958
2.70411
2.70857
2.71278
2.7169
2.72092
2.72476
2.72835
2.73172
2.73504
2.73828
2.7414
2.74442
2.74736
2.75022
2.75301
2.75576
2.75851
2.76127
2.76396
2.76651
2.76889
2.77113
2.77329
2.77545
2.77764
2.7798
2.78179
2.78349
2.78483
2.78592
2.78692
2.788
2.78926
2.79068
2.79212
2.79335
2.79419
2.79449
2.79425
2.79378
2.79333
1
1
1
1
1
1
1
1
1
1
1
1
1
1
1
1
1
1
1
1
1
1
1
1
1
1
1
1
1
1
1
1
1
1
1
1
1
1
1
1
1
1
1
1
1
1
1
1
1
2.08823
2.66988
2.68346
2.6871
2.69215
2.69712
2.70193
2.70631
2.71031
2.7141
2.71781
2.72143
2.72495
2.72841
2.73188
2.73534
2.73868
2.74191
2.745
2.74787
2.75057
2.75312
2.75568
2.75829
2.76094
2.76354
2.76602
2.76836
2.77057
2.77271
2.77481
2.77684
2.7787
2.78029
2.78159
2.78267
2.78372
2.78487
2.78619
2.78764
2.78903
2.79018
2.79091
2.79109
2.79078
2.79027
2.7898
1
1
1
1
1
1
1
1
1
1
1
1
1
1
1
1
1
1
1
1
1
1
1
1
1
1
1
1
1
1
1
1
1
1
1
1
1
1
1
1
1
1
1
1
1
1
1
1
1
1.91288
2.63911
2.67586
2.68109
2.68753
2.69306
2.69813
2.7025
2.70633
2.70977
2.71319
2.71676
2.72045
2.72418
2.72789
2.73149
2.73486
2.73812
2.74128
2.74419
2.74687
2.7493
2.75171
2.75418
2.75677
2.75938
2.76193
2.76434
2.76661
2.76875
2.77078
2.7727
2.77443
2.77592
2.77716
2.77826
2.77938
2.78062
2.78202
2.78349
2.78484
2.78587
2.78648
2.78658
2.78627
2.78579
2.78539
1
1
1
1
1
1
1
1
1
1
1
1
1
1
1
1
1
1
1
1
1
1
1
1
1
1
1
1
1
1
1
1
1
1
1
1
1
1
1
1
1
1
1
1
1
1
1
1
1
1.68142
2.58379
2.66844
2.6759
2.68252
2.68789
2.69315
2.69773
2.70162
2.70489
2.70809
2.71164
2.71553
2.71954
2.72343
2.72708
2.7304
2.73357
2.73671
2.73962
2.74232
2.7447
2.74699
2.74933
2.75181
2.75436
2.75687
2.75926
2.76151
2.7636
2.76557
2.76739
2.76902
2.77044
2.77166
2.77279
2.77399
2.77531
2.77675
2.77817
2.77937
2.7802
2.78061
2.7806
2.78029
2.77987
2.77958
1
1
1
1
1
1
1
1
1
1
1
1
1
1
1
1
1
1
1
1
1
1
1
1
1
1
1
1
1
1
1
1
1
1
1
1
1
1
1
1
1
1
1
1
1
1
1
1
1
1.37141
2.47857
2.6706
2.67099
2.67655
2.68175
2.68735
2.69231
2.69641
2.69972
2.70278
2.70627
2.71026
2.71436
2.71829
2.7219
2.72512
2.72817
2.73125
2.73416
2.73687
2.73932
2.74162
2.74394
2.74636
2.74884
2.75127
2.75359
2.75575
2.75773
2.75953
2.76114
2.76254
2.7637
2.7647
2.76566
2.76673
2.76798
2.76936
2.77071
2.77183
2.77256
2.77288
2.77286
2.77267
2.77237
2.77224
1
1
1
1
1
1
1
1
1
1
1
1
1
1
1
1
1
1
1
1
1
1
1
1
1
1
1
1
1
1
1
1
1
1
1
1
1
1
1
1
1
1
1
1
1
1
1
1
1
1.01494
2.2958
2.67892
2.67768
2.67864
2.6815
2.68539
2.68952
2.69325
2.69641
2.69918
2.70219
2.70562
2.70915
2.71259
2.71581
2.71871
2.72142
2.72423
2.727
2.72961
2.73208
2.73435
2.73663
2.73897
2.74136
2.74371
2.74596
2.74808
2.75002
2.75175
2.75325
2.7545
2.75552
2.75637
2.75723
2.7582
2.75936
2.7606
2.76172
2.76251
2.76288
2.76281
2.76239
2.76195
2.76153
2.76136
1
1
1
1
1
1
1
1
1
1
1
1
1
1
1
1
1
1
1
1
1
1
1
1
1
1
1
1
1
1
1
1
1
1
1
1
1
1
1
1
1
1
1
1
1
1
1
1
1
1.00003
2.0145
2.64769
2.66112
2.66506
2.67066
2.67576
2.68043
2.68441
2.68782
2.69075
2.69364
2.69683
2.70011
2.70328
2.70627
2.70902
2.71161
2.71431
2.71713
2.71983
2.72241
2.72475
2.72698
2.72922
2.7315
2.73378
2.736
2.7381
2.74002
2.74167
2.74301
2.74401
2.74472
2.7452
2.74561
2.74605
2.74662
2.74727
2.7479
2.74837
2.7486
2.74858
2.74822
2.74769
2.74705
2.74676
1
1
1
1
1
1
1
1
1
1
1
1
1
1
1
1
1
1
1
1
1
1
1
1
1
1
1
1
1
1
1
1
1
1
1
1
1
1
1
1
1
1
1
1
1
1
1
1
1
1
1.54356
2.51698
2.64535
2.65244
2.66108
2.66722
2.67256
2.67704
2.68072
2.6838
2.68664
2.68968
2.69284
2.69585
2.69862
2.70114
2.70348
2.70587
2.70846
2.71104
2.71344
2.71557
2.71744
2.71924
2.72106
2.72293
2.72485
2.72672
2.72841
2.72981
2.73086
2.73149
2.73174
2.73177
2.7317
2.73166
2.73174
2.73191
2.73213
2.73224
2.73194
2.73106
2.72914
2.72617
2.72273
2.72
1
1
1
1
1
1
1
1
1
1
1
1
1
1
1
1
1
1
1
1
1
1
1
1
1
1
1
1
1
1
1
1
1
1
1
1
1
1
1
1
1
1
1
1
1
1
1
1
1
1
1.0277
2.25424
2.65527
2.65366
2.65478
2.65893
2.66377
2.66821
2.67162
2.67443
2.67704
2.67983
2.68286
2.68585
2.68857
2.69095
2.69306
2.69512
2.69737
2.69977
2.70202
2.70394
2.70545
2.7067
2.70791
2.70922
2.71067
2.71216
2.71354
2.71459
2.71508
2.71516
2.71486
2.71418
2.71322
2.71206
2.71069
2.70907
2.70708
2.7046
2.7016
2.69813
2.69451
2.6903
2.68695
2.68487
1
1
1
1
1
1
1
1
1
1
1
1
1
1
1
1
1
1
1
1
1
1
1
1
1
1
1
1
1
1
1
1
1
1
1
1
1
1
1
1
1
1
1
1
1
1
1
1
1
1
1.00005
1.76524
2.55804
2.63013
2.63688
2.6442
2.65014
2.65518
2.65894
2.66187
2.66449
2.66725
2.67038
2.67367
2.67672
2.67924
2.68123
2.68294
2.68477
2.68692
2.68915
2.69102
2.69232
2.69311
2.69353
2.69398
2.69458
2.69528
2.69591
2.69621
2.69608
2.69547
2.69424
2.69241
2.69011
2.68739
2.68428
2.68072
2.67663
2.67199
2.66682
2.66133
2.65562
2.65282
2.64932
2.66316
1
1
1
1
1
1
1
1
1
1
1
1
1
1
1
1
1
1
1
1
1
1
1
1
1
1
1
1
1
1
1
1
1
1
1
1
1
1
1
1
1
1
1
1
1
1
1
1
1
1
1
1.10421
2.33123
2.63241
2.63152
2.6345
2.63935
2.64426
2.64836
2.65142
2.65387
2.65629
2.65908
2.66226
2.66537
2.66793
2.6698
2.67121
2.67261
2.67434
2.67639
2.67827
2.67953
2.67989
2.67979
2.67952
2.67921
2.67894
2.67863
2.67812
2.6772
2.67568
2.6734
2.67031
2.66641
2.66172
2.65615
2.64946
2.64101
2.63019
2.61542
2.59541
2.56563
2.52316
2.45871
2.32983
1
1
1
1
1
1
1
1
1
1
1
1
1
1
1
1
1
1
1
1
1
1
1
1
1
1
1
1
1
1
1
1
1
1
1
1
1
1
1
1
1
1
1
1
1
1
1
1
1
1
1
1.00089
1.99862
2.59937
2.61242
2.61746
2.62316
2.62865
2.63368
2.6376
2.64064
2.64343
2.64647
2.64983
2.65317
2.65601
2.65817
2.65979
2.66108
2.66248
2.66412
2.66582
2.66703
2.66732
2.66715
2.66651
2.66552
2.66441
2.66323
2.66181
2.65996
2.65749
2.6542
2.64995
2.6445
2.63786
2.62965
2.61974
2.60687
2.59054
2.56796
2.53828
2.49467
2.43569
2.32545
2.16135
1
1
1
1
1
1
1
1
1
1
1
1
1
1
1
1
1
1
1
1
1
1
1
1
1
1
1
1
1
1
1
1
1
1
1
1
1
1
1
1
1
1
1
1
1
1
1
1
1
1
1
0.999999
1.3743
2.42201
2.59749
2.60579
2.61277
2.61776
2.62199
2.62544
2.62834
2.63116
2.63426
2.63763
2.64097
2.64393
2.64632
2.64812
2.64947
2.65068
2.65191
2.65318
2.65414
2.65432
2.654
2.65298
2.6514
2.64958
2.64755
2.64516
2.64218
2.63854
2.63403
2.62853
2.62153
2.61299
2.60225
2.58924
2.57268
2.55182
2.52449
2.48807
2.43988
2.36786
2.26141
2.13499
1
1
1
1
1
1
1
1
1
1
1
1
1
1
1
1
1
1
1
1
1
1
1
1
1
1
1
1
1
1
1
1
1
1
1
1
1
1
1
1
1
1
1
1
1
1
1
1
1
1
1
1
1.01347
2.1094
2.59996
2.59991
2.60223
2.60568
2.60925
2.61224
2.61485
2.61766
2.62092
2.62444
2.62778
2.63071
2.63299
2.63468
2.63599
2.63714
2.63826
2.63937
2.64014
2.64016
2.63966
2.63833
2.63635
2.63405
2.63139
2.62822
2.6242
2.61935
2.61345
2.60655
2.5981
2.58795
2.57535
2.55997
2.54087
2.51704
2.48721
2.44844
2.39869
2.33235
2.24809
2.14674
1
1
1
1
1
1
1
1
1
1
1
1
1
1
1
1
1
1
1
1
1
1
1
1
1
1
1
1
1
1
1
1
1
1
1
1
1
1
1
1
1
1
1
1
1
1
1
1
1
1
1
1
1.00001
1.46229
2.44726
2.58625
2.59218
2.59631
2.59856
2.60045
2.60228
2.60459
2.60762
2.61113
2.61446
2.61744
2.61953
2.62077
2.62163
2.62262
2.6238
2.62494
2.62558
2.62542
2.62464
2.62301
2.62073
2.61811
2.61502
2.61134
2.60659
2.60072
2.59351
2.58513
2.57532
2.56384
2.55008
2.53337
2.51297
2.48794
2.4576
2.41928
2.37231
2.31637
2.25061
2.17017
1
1
1
1
1
1
1
1
1
1
1
1
1
1
1
1
1
1
1
1
1
1
1
1
1
1
1
1
1
1
1
1
1
1
1
1
1
1
1
1
1
1
1
1
1
1
1
1
1
1
1
1
1
1.021
2.12575
2.58841
2.58754
2.58786
2.58872
2.58998
2.59127
2.59283
2.59512
2.59833
2.60148
2.60445
2.60635
2.60692
2.60707
2.60758
2.60855
2.60961
2.61007
2.60981
2.60881
2.607
2.60446
2.60153
2.59808
2.59406
2.58897
2.58256
2.57452
2.56492
2.55383
2.54116
2.5266
2.50938
2.4889
2.46408
2.43485
2.39901
2.35667
2.30939
2.25585
2.19245
1
1
1
1
1
1
1
1
1
1
1
1
1
1
1
1
1
1
1
1
1
1
1
1
1
1
1
1
1
1
1
1
1
1
1
1
1
1
1
1
1
1
1
1
1
1
1
1
1
1
1
1
1
1.00003
1.41895
2.42045
2.57117
2.57703
2.57998
2.58118
2.58182
2.58228
2.58333
2.58553
2.58803
2.59059
2.59235
2.59259
2.59241
2.59254
2.59308
2.59374
2.59385
2.59338
2.59206
2.59005
2.58736
2.58422
2.58054
2.57626
2.57104
2.56453
2.55631
2.54624
2.53437
2.5209
2.50577
2.4884
2.46863
2.44458
2.41733
2.38514
2.34775
2.30651
2.26108
2.2098
1
1
1
1
1
1
1
1
1
1
1
1
1
1
1
1
1
1
1
1
1
1
1
1
1
1
1
1
1
1
1
1
1
1
1
1
1
1
1
1
1
1
1
1
1
1
1
1
1
1
1
1
1
1
1.01564
2.04409
2.55745
2.56744
2.56927
2.57099
2.5722
2.57319
2.57434
2.57599
2.57772
2.57926
2.58003
2.5798
2.57908
2.57857
2.57838
2.57834
2.57804
2.57717
2.57548
2.5732
2.5702
2.56671
2.56272
2.55814
2.55276
2.54629
2.53833
2.52849
2.51657
2.50283
2.48746
2.47005
2.45106
2.42809
2.40313
2.37471
2.34161
2.30661
2.26701
2.22484
1
1
1
1
1
1
1
1
1
1
1
1
1
1
1
1
1
1
1
1
1
1
1
1
1
1
1
1
1
1
1
1
1
1
1
1
1
1
1
1
1
1
1
1
1
1
1
1
1
1
1
1
1
1
1.00002
1.2374
2.34998
2.56147
2.55927
2.55972
2.56062
2.56197
2.5636
2.56518
2.56649
2.56732
2.56737
2.56701
2.56604
2.56492
2.56386
2.56317
2.56229
2.56098
2.55899
2.55638
2.55293
2.54899
2.54462
2.53974
2.53418
2.52774
2.52016
2.51097
2.49976
2.48654
2.47168
2.45438
2.43609
2.41441
2.39149
2.36619
2.33693
2.30656
2.27187
2.23636
1
1
1
1
1
1
1
1
1
1
1
1
1
1
1
1
1
1
1
1
1
1
1
1
1
1
1
1
1
1
1
1
1
1
1
1
1
1
1
1
1
1
1
1
1
1
1
1
1
1
1
1
1
1
1
1.00401
1.85933
2.50228
2.53668
2.54211
2.54651
2.54881
2.55128
2.55327
2.55456
2.555
2.55473
2.55405
2.55286
2.55137
2.54979
2.54876
2.54745
2.54566
2.54344
2.54057
2.53663
2.53212
2.52719
2.52188
2.51602
2.50946
2.502
2.49333
2.48311
2.47078
2.45695
2.44025
2.42302
2.40274
2.38179
2.35875
2.3329
2.30584
2.27553
2.24482
1
1
1
1
1
1
1
1
1
1
1
1
1
1
1
1
1
1
1
1
1
1
1
1
1
1
1
1
1
1
1
1
1
1
1
1
1
1
1
1
1
1
1
1
1
1
1
1
1
1
1
1
1
1
1
1
1.10205
2.20215
2.52783
2.53354
2.53543
2.53596
2.53813
2.5407
2.54239
2.5428
2.54243
2.54152
2.54019
2.53857
2.53678
2.5356
2.53405
2.53185
2.52935
2.52619
2.52178
2.51665
2.51097
2.50499
2.49879
2.49197
2.48443
2.47601
2.46661
2.45509
2.44236
2.42697
2.41115
2.39236
2.37329
2.35198
2.32896
2.30423
2.27782
2.2506
1
1
1
1
1
1
1
1
1
1
1
1
1
1
1
1
1
1
1
1
1
1
1
1
1
1
1
1
1
1
1
1
1
1
1
1
1
1
1
1
1
1
1
1
1
1
1
1
1
1
1
1
1
1
1
1
1.00069
1.43946
2.35591
2.51344
2.51306
2.5168
2.52093
2.52517
2.52806
2.52904
2.52881
2.52796
2.52664
2.52515
2.52347
2.52224
2.52079
2.51848
2.51576
2.51238
2.50774
2.50224
2.4959
2.48928
2.48275
2.47539
2.46814
2.45954
2.45027
2.43943
2.42754
2.41389
2.3993
2.38224
2.36494
2.34535
2.32492
2.30233
2.27933
2.25494
1
1
1
1
1
1
1
1
1
1
1
1
1
1
1
1
1
1
1
1
1
1
1
1
1
1
1
1
1
1
1
1
1
1
1
1
1
1
1
1
1
1
1
1
1
1
1
1
1
1
1
1
1
1
1
1
1
1.01708
1.88562
2.46577
2.49778
2.5033
2.50828
2.51146
2.51384
2.51464
2.51445
2.51377
2.51267
2.51145
2.51005
2.50878
2.50769
2.50555
2.50283
2.49939
2.4948
2.48916
2.48246
2.47545
2.46856
2.46095
2.45303
2.44446
2.43524
2.42498
2.41355
2.40122
2.38741
2.37211
2.3561
2.33841
2.32011
2.29992
2.27957
2.25786
1
1
1
1
1
1
1
1
1
1
1
1
1
1
1
1
1
1
1
1
1
1
1
1
1
1
1
1
1
1
1
1
1
1
1
1
1
1
1
1
1
1
1
1
1
1
1
1
1
1
1
1
1
1
1
1
1
1.00003
1.11513
2.11478
2.47836
2.49971
2.49895
2.50048
2.50139
2.50117
2.50048
2.49956
2.49848
2.49741
2.49624
2.49508
2.49429
2.49261
2.49011
2.48677
2.48237
2.47677
2.46996
2.46286
2.45564
2.44775
2.43965
2.43102
2.42176
2.4118
2.40069
2.38914
2.37607
2.36212
2.34699
2.33106
2.31426
2.29656
2.27836
2.25912
1
1
1
1
1
1
1
1
1
1
1
1
1
1
1
1
1
1
1
1
1
1
1
1
1
1
1
1
1
1
1
1
1
1
1
1
1
1
1
1
1
1
1
1
1
1
1
1
1
1
1
1
1
1
1
1
1
1
1.0009
1.26072
2.26581
2.48273
2.48166
2.48355
2.48363
2.48365
2.48347
2.48305
2.48258
2.48213
2.48137
2.48062
2.48011
2.47889
2.47673
2.47361
2.46958
2.46439
2.45791
2.45098
2.44367
2.43582
2.42766
2.41916
2.41007
2.40038
2.3897
2.3785
2.36607
2.35289
2.33844
2.32363
2.30797
2.29229
2.27571
2.25861
1
1
1
1
1
1
1
1
1
1
1
1
1
1
1
1
1
1
1
1
1
1
1
1
1
1
1
1
1
1
1
1
1
1
1
1
1
1
1
1
1
1
1
1
1
1
1
1
1
1
1
1
1
1
1
1
1
1
1
1.00486
1.6509
2.37541
2.4592
2.45647
2.45803
2.46004
2.46196
2.46326
2.46402
2.46473
2.46489
2.46504
2.46503
2.46425
2.46257
2.45987
2.4561
2.45136
2.44548
2.43888
2.43178
2.42425
2.41637
2.40821
2.39955
2.39024
2.38016
2.36926
2.35745
2.34478
2.33099
2.31685
2.302
2.28754
2.27205
2.25668
1
1
1
1
1
1
1
1
1
1
1
1
1
1
1
1
1
1
1
1
1
1
1
1
1
1
1
1
1
1
1
1
1
1
1
1
1
1
1
1
1
1
1
1
1
1
1
1
1
1
1
1
1
1
1
1
1
1
1
1.00001
1.04799
1.90425
2.41832
2.44439
2.44348
2.44516
2.44642
2.44748
2.44821
2.44901
2.44952
2.45009
2.45004
2.4493
2.44772
2.44531
2.4419
2.43743
2.43215
2.42615
2.41956
2.41253
2.40522
2.39762
2.38961
2.38098
2.37168
2.36136
2.35025
2.33805
2.3249
2.3113
2.29704
2.28317
2.26841
2.25406
1
1
1
1
1
1
1
1
1
1
1
1
1
1
1
1
1
1
1
1
1
1
1
1
1
1
1
1
1
1
1
1
1
1
1
1
1
1
1
1
1
1
1
1
1
1
1
1
1
1
1
1
1
1
1
1
1
1
1
1
1.0002
1.13052
2.02419
2.41346
2.4347
2.43606
2.43674
2.43646
2.43624
2.43609
2.43583
2.43554
2.4349
2.43376
2.43201
2.42963
2.42652
2.42239
2.41738
2.41206
2.40625
2.39998
2.39347
2.38671
2.37957
2.37181
2.36339
2.35388
2.34359
2.33199
2.3195
2.30646
2.29274
2.27924
2.26508
2.25137
1
1
1
1
1
1
1
1
1
1
1
1
1
1
1
1
1
1
1
1
1
1
1
1
1
1
1
1
1
1
1
1
1
1
1
1
1
1
1
1
1
1
1
1
1
1
1
1
1
1
1
1
1
1
1
1
1
1
1
1
1
1.0012
1.21072
2.10209
2.39936
2.42779
2.42685
2.42658
2.42603
2.42518
2.42418
2.42305
2.42154
2.41959
2.41724
2.41442
2.4111
2.40712
2.40241
2.39744
2.3923
2.38682
2.38114
2.37526
2.36902
2.36222
2.35468
2.34603
2.33653
2.32553
2.31367
2.30136
2.28843
2.27546
2.26209
2.24895
1
1
1
1
1
1
1
1
1
1
1
1
1
1
1
1
1
1
1
1
1
1
1
1
1
1
1
1
1
1
1
1
1
1
1
1
1
1
1
1
1
1
1
1
1
1
1
1
1
1
1
1
1
1
1
1
1
1
1
1
1
1
1.00312
1.2928
2.15437
2.38918
2.40966
2.41198
2.41271
2.41265
2.41203
2.41079
2.40886
2.40646
2.40365
2.40035
2.39662
2.39247
2.3879
2.38314
2.37829
2.37331
2.36825
2.36306
2.35751
2.35147
2.34466
2.33679
2.32798
2.31773
2.30674
2.29549
2.28355
2.27137
2.25893
2.24649
1
1
1
1
1
1
1
1
1
1
1
1
1
1
1
1
1
1
1
1
1
1
1
1
1
1
1
1
1
1
1
1
1
1
1
1
1
1
1
1
1
1
1
1
1
1
1
1
1
1
1
1
1
1
1
1
1
1
1
1
1
1
1
1.00634
1.37535
2.19258
2.37591
2.39002
2.39426
2.39567
2.39644
2.39595
2.39458
2.39269
2.39018
2.38701
2.38334
2.37926
2.37489
2.37037
2.3657
2.36089
2.356
2.35095
2.34558
2.33983
2.33343
2.32621
2.31819
2.30895
2.2991
2.28894
2.27794
2.26669
2.2552
2.24369
1
1
1
1
1
1
1
1
1
1
1
1
1
1
1
1
1
1
1
1
1
1
1
1
1
1
1
1
1
1
1
1
1
1
1
1
1
1
1
1
1
1
1
1
1
1
1
1
1
1
1
1
1
1
1
1
1
1
1
1
1
1
1
1.00001
1.01144
1.44775
2.22312
2.3659
2.37013
2.37321
2.37499
2.37611
2.37603
2.37537
2.37395
2.37191
2.36923
2.36596
2.36224
2.35817
2.35378
2.34908
2.3442
2.33911
2.33373
2.32804
2.32185
2.31506
2.30762
2.29925
2.29037
2.28112
2.27109
2.26081
2.25035
2.23987
1
1
1
1
1
1
1
1
1
1
1
1
1
1
1
1
1
1
1
1
1
1
1
1
1
1
1
1
1
1
1
1
1
1
1
1
1
1
1
1
1
1
1
1
1
1
1
1
1
1
1
1
1
1
1
1
1
1
1
1
1
1
1
1
1.00003
1.01799
1.53895
2.24822
2.3537
2.3526
2.35376
2.35402
2.35439
2.35485
2.35481
2.35436
2.35321
2.35126
2.34859
2.34526
2.34136
2.33701
2.33232
2.32741
2.32224
2.31668
2.31062
2.30403
2.29694
2.28916
2.28102
2.27242
2.26324
2.25378
2.24431
2.23477
1
1
1
1
1
1
1
1
1
1
1
1
1
1
1
1
1
1
1
1
1
1
1
1
1
1
1
1
1
1
1
1
1
1
1
1
1
1
1
1
1
1
1
1
1
1
1
1
1
1
1
1
1
1
1
1
1
1
1
1
1
1
1
1
1
1.00005
1.0298
1.60639
2.26004
2.34062
2.33776
2.33626
2.3356
2.33533
2.33546
2.33542
2.33509
2.33422
2.33268
2.33042
2.32751
2.324
2.32002
2.31562
2.31081
2.30547
2.2996
2.29324
2.28642
2.27908
2.27147
2.26336
2.25487
2.24607
2.23738
2.22858
1
1
1
1
1
1
1
1
1
1
1
1
1
1
1
1
1
1
1
1
1
1
1
1
1
1
1
1
1
1
1
1
1
1
1
1
1
1
1
1
1
1
1
1
1
1
1
1
1
1
1
1
1
1
1
1
1
1
1
1
1
1
1
1
1
1
1.00011
1.04216
1.62929
2.25417
2.32813
2.32531
2.32325
2.3216
2.32029
2.31913
2.31798
2.31672
2.31529
2.31355
2.31136
2.30869
2.30556
2.30196
2.29786
2.29318
2.28793
2.28213
2.27582
2.26904
2.2619
2.25431
2.24636
2.23815
2.22992
2.22169
1
1
1
1
1
1
1
1
1
1
1
1
1
1
1
1
1
1
1
1
1
1
1
1
1
1
1
1
1
1
1
1
1
1
1
1
1
1
1
1
1
1
1
1
1
1
1
1
1
1
1
1
1
1
1
1
1
1
1
1
1
1
1
1
1
1
1
1.0002
1.04787
1.61725
2.23779
2.31732
2.31503
2.31277
2.31003
2.30726
2.3045
2.30179
2.29927
2.29687
2.29448
2.29196
2.28925
2.28626
2.28288
2.27904
2.27466
2.26976
2.26431
2.25836
2.25191
2.24495
2.23758
2.22988
2.22199
2.21408
1
1
1
1
1
1
1
1
1
1
1
1
1
1
1
1
1
1
1
1
1
1
1
1
1
1
1
1
1
1
1
1
1
1
1
1
1
1
1
1
1
1
1
1
1
1
1
1
1
1
1
1
1
1
1
1
1
1
1
1
1
1
1
1
1
1
1
1
1.00025
1.04607
1.59989
2.2169
2.30564
2.30416
2.30103
2.2978
2.29413
2.29052
2.2869
2.28333
2.27994
2.2767
2.27354
2.27038
2.26714
2.26369
2.25996
2.25587
2.25131
2.24626
2.24062
2.23441
2.22761
2.22035
2.21295
2.20546
1
1
1
1
1
1
1
1
1
1
1
1
1
1
1
1
1
1
1
1
1
1
1
1
1
1
1
1
1
1
1
1
1
1
1
1
1
1
1
1
1
1
1
1
1
1
1
1
1
1
1
1
1
1
1
1
1
1
1
1
1
1
1
1
1
1
1
1
1
1.00024
1.04268
1.57044
2.18878
2.29278
2.29216
2.28879
2.28526
2.28125
2.27722
2.27303
2.26881
2.26467
2.26062
2.25669
2.25285
2.24911
2.24529
2.24144
2.23725
2.23272
2.22751
2.22189
2.21575
2.20929
2.203
2.19626
1
1
1
1
1
1
1
1
1
1
1
1
1
1
1
1
1
1
1
1
1
1
1
1
1
1
1
1
1
1
1
1
1
1
1
1
1
1
1
1
1
1
1
1
1
1
1
1
1
1
1
1
1
1
1
1
1
1
1
1
1
1
1
1
1
1
1
1
1
1
1.00021
1.03703
1.52605
2.15195
2.27575
2.27949
2.27606
2.27268
2.26866
2.26439
2.25989
2.2553
2.25068
2.24606
2.24157
2.2371
2.23276
2.22825
2.22367
2.21888
2.21392
2.2085
2.20343
2.19844
2.19882
2.20114
1
1
1
1
1
1
1
1
1
1
1
1
1
1
1
1
1
1
1
1
1
1
1
1
1
1
1
1
1
1
1
1
1
1
1
1
1
1
1
1
1
1
1
1
1
1
1
1
1
1
1
1
1
1
1
1
1
1
1
1
1
1
1
1
1
1
1
1
1
1
1
1.00017
1.02949
1.46852
2.09912
2.25391
2.26776
2.26368
2.26015
2.25596
2.25162
2.24701
2.24232
2.2375
2.23274
2.22776
2.22275
2.21757
2.21222
2.20707
2.20227
2.19975
2.2024
2.20832
2.22402
2.24701
1
1
1
1
1
1
1
1
1
1
1
1
1
1
1
1
1
1
1
1
1
1
1
1
1
1
1
1
1
1
1
1
1
1
1
1
1
1
1
1
1
1
1
1
1
1
1
1
1
1
1
1
1
1
1
1
1
1
1
1
1
1
1
1
1
1
1
1
1
1
1
1
1.00012
1.02155
1.39635
2.02378
2.22738
2.2563
2.24981
2.24632
2.24249
2.23854
2.23432
2.22987
2.22508
2.21988
2.21464
2.20891
2.20425
2.20392
2.20631
2.21749
2.23886
2.26905
2.29999
2.32385
1
1
1
1
1
1
1
1
1
1
1
1
1
1
1
1
1
1
1
1
1
1
1
1
1
1
1
1
1
1
1
1
1
1
1
1
1
1
1
1
1
1
1
1
1
1
1
1
1
1
1
1
1
1
1
1
1
1
1
1
1
1
1
1
1
1
1
1
1
1
1
1
1
1.00008
1.01408
1.31195
1.91682
2.19666
2.23889
2.23412
2.23196
2.22926
2.22605
2.22189
2.21757
2.2128
2.2087
2.20972
2.21451
2.23085
2.25859
2.29503
2.32521
2.34935
2.35903
2.36381
1
1
1
1
1
1
1
1
1
1
1
1
1
1
1
1
1
1
1
1
1
1
1
1
1
1
1
1
1
1
1
1
1
1
1
1
1
1
1
1
1
1
1
1
1
1
1
1
1
1
1
1
1
1
1
1
1
1
1
1
1
1
1
1
1
1
1
1
1
1
1
1
1
1
1.00004
1.00815
1.2182
1.79157
2.15354
2.21812
2.21759
2.2167
2.21396
2.21052
2.20835
2.21066
2.22066
2.24345
2.28115
2.3218
2.35519
2.376
2.38186
2.38265
2.37666
2.37065
1
1
1
1
1
1
1
1
1
1
1
1
1
1
1
1
1
1
1
1
1
1
1
1
1
1
1
1
1
1
1
1
1
1
1
1
1
1
1
1
1
1
1
1
1
1
1
1
1
1
1
1
1
1
1
1
1
1
1
1
1
1
1
1
1
1
1
1
1
1
1
1
1
1
1
1.00002
1.00398
1.13468
1.65903
2.09655
2.19717
2.19633
2.19443
2.19855
2.21591
2.24986
2.29568
2.34194
2.37773
2.39315
2.40133
2.39995
2.39249
2.38315
2.37448
2.36881
1
1
1
1
1
1
1
1
1
1
1
1
1
1
1
1
1
1
1
1
1
1
1
1
1
1
1
1
1
1
1
1
1
1
1
1
1
1
1
1
1
1
1
1
1
1
1
1
1
1
1
1
1
1
1
1
1
1
1
1
1
1
1
1
1
1
1
1
1
1
1
1
1
1
1
1
1.00001
1.00166
1.07364
1.52324
2.03089
2.15745
2.20345
2.23618
2.29491
2.34801
2.38043
2.4026
2.40286
2.39585
2.39253
2.38806
2.38181
2.3746
2.36822
2.36519
1
1
1
1
1
1
1
1
1
1
1
1
1
1
1
1
1
1
1
1
1
1
1
1
1
1
1
1
1
1
1
1
1
1
1
1
1
1
1
1
1
1
1
1
1
1
1
1
1
1
1
1
1
1
1
1
1
1
1
1
1
1
1
1
1
1
1
1
1
1
1
1
1
1
1
1
1
1
1.00059
1.03569
1.38813
1.93172
2.2951
2.36019
2.39192
2.40308
2.40101
2.39889
2.39401
2.38668
2.37986
2.37452
2.36908
2.36408
2.36136
2.36123
1
1
1
1
1
1
1
1
1
1
1
1
1
1
1
1
1
1
1
1
1
1
1
1
1
1
1
1
1
1
1
1
1
1
1
1
1
1
1
1
1
1
1
1
1
1
1
1
1
1
1
1
1
1
1
1
1
1
1
1
1
1
1
1
1
1
1
1
1
1
1
1
1
1
1
1
1
1
1
1.00018
1.015
1.55567
2.51206
2.50999
2.48346
2.46346
2.44401
2.42693
2.41141
2.39551
2.38321
2.37515
2.3697
2.36515
2.36203
2.35952
1
1
1
1
1
1
1
1
1
1
1
1
1
1
1
1
1
1
1
1
1
1
1
1
1
1
1
1
1
1
1
1
1
1
1
1
1
1
1
1
1
1
1
1
1
1
1
1
1
1
1
1
1
1
1
1
1
1
1
1
1
1
1
1
1
1
1
1
1
1
1
1
1
1
1
1
1
1
1
1
1.00005
1.37026
2.52718
2.6042
2.56791
2.53323
2.50215
2.47492
2.45072
2.42932
2.41268
2.40119
2.3938
2.38542
2.37783
2.37162
1
1
1
1
1
1
1
1
1
1
1
1
1
1
1
1
1
1
1
1
1
1
1
1
1
1
1
1
1
1
1
1
1
1
1
1
1
1
1
1
1
1
1
1
1
1
1
1
1
1
1
1
1
1
1
1
1
1
1
1
1
1
1
1
1
1
1
1
1
1
1
1
1
1
1
1
1
1
1
1
1
1.03306
2.35931
2.67558
2.65326
2.63245
2.60446
2.57675
2.54907
2.52237
2.49828
2.47632
2.45726
2.44001
2.42506
2.41214
1
1
1
1
1
1
1
1
1
1
1
1
1
1
1
1
1
1
1
1
1
1
1
1
1
1
1
1
1
1
1
1
1
1
1
1
1
1
1
1
1
1
1
1
1
1
1
1
1
1
1
1
1
1
1
1
1
1
1
1
1
1
1
1
1
1
1
1
1
1
1
1
1
1
1
1
1
1
1
1
1
1.00012
2.04775
2.66405
2.66378
2.65922
2.65322
2.64047
2.62361
2.60297
2.58063
2.55683
2.53342
2.51115
2.49031
2.47105
1
1
1
1
1
1
1
1
1
1
1
1
1
1
1
1
1
1
1
1
1
1
1
1
1
1
1
1
1
1
1
1
1
1
1
1
1
1
1
1
1
1
1
1
1
1
1
1
1
1
1
1
1
1
1
1
1
1
1
1
1
1
1
1
1
1
1
1
1
1
1
1
1
1
1
1
1
1
1
1
1
1
1.62046
2.54659
2.6681
2.66387
2.6593
2.65516
2.64989
2.64177
2.63133
2.61887
2.6043
2.58797
2.57027
2.55194
1
1
1
1
1
1
1
1
1
1
1
1
1
1
1
1
1
1
1
1
1
1
1
1
1
1
1
1
1
1
1
1
1
1
1
1
1
1
1
1
1
1
1
1
1
1
1
1
1
1
1
1
1
1
1
1
1
1
1
1
1
1
1
1
1
1
1
1
1
1
1
1
1
1
1
1
1
1
1
1
1
1
1.13003
2.36536
2.6644
2.66152
2.65888
2.65652
2.65344
2.65055
2.64657
2.64133
2.63477
2.62648
2.61647
2.60502
1
1
1
1
1
1
1
1
1
1
1
1
1
1
1
1
1
1
1
1
1
1
1
1
1
1
1
1
1
1
1
1
1
1
1
1
1
1
1
1
1
1
1
1
1
1
1
1
1
1
1
1
1
1
1
1
1
1
1
1
1
1
1
1
1
1
1
1
1
1
1
1
1
1
1
1
1
1
1
1
1
1
1.00135
2.15672
2.65185
2.65934
2.65674
2.65542
2.65381
2.65173
2.64918
2.64605
2.64232
2.63796
2.63298
2.62714
1
1
1
1
1
1
1
1
1
1
1
1
1
1
1
1
1
1
1
1
1
1
1
1
1
1
1
1
1
1
1
1
1
1
1
1
1
1
1
1
1
1
1
1
1
1
1
1
1
1
1
1
1
1
1
1
1
1
1
1
1
1
1
1
1
1
1
1
1
1
1
1
1
1
1
1
1
1
1
1
1
1
1
1.84096
2.60235
2.65772
2.65408
2.65279
2.65085
2.64911
2.64721
2.64501
2.64244
2.63954
2.63619
2.63231
1
1
1
1
1
1
1
1
1
1
1
1
1
1
1
1
1
1
1
1
1
1
1
1
1
1
1
1
1
1
1
1
1
1
1
1
1
1
1
1
1
1
1
1
1
1
1
1
1
1
1
1
1
1
1
1
1
1
1
1
1
1
1
1
1
1
1
1
1
1
1
1
1
1
1
1
1
1
1
1
1
1
1
1.45177
2.49679
2.66318
2.6575
2.6549
2.65213
2.64985
2.64772
2.64557
2.64317
2.64054
2.63759
2.63437
1
1
1
1
1
1
1
1
1
1
1
1
1
1
1
1
1
1
1
1
1
1
1
1
1
1
1
1
1
1
1
1
1
1
1
1
1
1
1
1
1
1
1
1
1
1
1
1
1
1
1
1
1
1
1
1
1
1
1
1
1
1
1
1
1
1
1
1
1
1
1
1
1
1
1
1
1
1
1
1
1
1
1
1.05997
2.34026
2.66963
2.66361
2.6584
2.65466
2.65166
2.64903
2.64657
2.64404
2.64132
2.6383
2.63501
1
1
1
1
1
1
1
1
1
1
1
1
1
1
1
1
1
1
1
1
1
1
1
1
1
1
1
1
1
1
1
1
1
1
1
1
1
1
1
1
1
1
1
1
1
1
1
1
1
1
1
1
1
1
1
1
1
1
1
1
1
1
1
1
1
1
1
1
1
1
1
1
1
1
1
1
1
1
1
1
1
1
1
1.00031
2.15639
2.66528
2.66517
2.66211
2.65954
2.65649
2.6535
2.65051
2.64746
2.64429
2.64092
2.63737
1
1
1
1
1
1
1
1
1
1
1
1
1
1
1
1
1
1
1
1
1
1
1
1
1
1
1
1
1
1
1
1
1
1
1
1
1
1
1
1
1
1
1
1
1
1
1
1
1
1
1
1
1
1
1
1
1
1
1
1
1
1
1
1
1
1
1
1
1
1
1
1
1
1
1
1
1
1
1
1
1
1
1
1
1.92292
2.63279
2.66966
2.66602
2.66396
2.66105
2.65811
2.65492
2.65154
2.648
2.64436
2.64062
1
1
1
1
1
1
1
1
1
1
1
1
1
1
1
1
1
1
1
1
1
1
1
1
1
1
1
1
1
1
1
1
1
1
1
1
1
1
1
1
1
1
1
1
1
1
1
1
1
1
1
1
1
1
1
1
1
1
1
1
1
1
1
1
1
1
1
1
1
1
1
1
1
1
1
1
1
1
1
1
1
1
1
1
1.64383
2.56499
2.67199
2.66743
2.66569
2.66317
2.66051
2.65751
2.65427
2.65083
2.64735
2.64382
1
1
1
1
1
1
1
1
1
1
1
1
1
1
1
1
1
1
1
1
1
1
1
1
1
1
1
1
1
1
1
1
1
1
1
1
1
1
1
1
1
1
1
1
1
1
1
1
1
1
1
1
1
1
1
1
1
1
1
1
1
1
1
1
1
1
1
1
1
1
1
1
1
1
1
1
1
1
1
1
1
1
1
1
1.33647
2.46481
2.67227
2.6677
2.6658
2.66344
2.66091
2.65814
2.65522
2.65213
2.64893
2.64568
1
1
1
1
1
1
1
1
1
1
1
1
1
1
1
1
1
1
1
1
1
1
1
1
1
1
1
1
1
1
1
1
1
1
1
1
1
1
1
1
1
1
1
1
1
1
1
1
1
1
1
1
1
1
1
1
1
1
1
1
1
1
1
1
1
1
1
1
1
1
1
1
1
1
1
1
1
1
1
1
1
1
1
1
1.09432
2.35918
2.67897
2.67347
2.66902
2.66562
2.66265
2.65983
2.657
2.65405
2.651
2.64793
1
1
1
1
1
1
1
1
1
1
1
1
1
1
1
1
1
1
1
1
1
1
1
1
1
1
1
1
1
1
1
1
1
1
1
1
1
1
1
1
1
1
1
1
1
1
1
1
1
1
1
1
1
1
1
1
1
1
1
1
1
1
1
1
1
1
1
1
1
1
1
1
1
1
1
1
1
1
1
1
1
1
1
1
1.00116
2.23216
2.67817
2.67754
2.67288
2.67007
2.66704
2.66405
2.661
2.65788
2.6547
2.65158
1
1
1
1
1
1
1
1
1
1
1
1
1
1
1
1
1
1
1
1
1
1
1
1
1
1
1
1
1
1
1
1
1
1
1
1
1
1
1
1
1
1
1
1
1
1
1
1
1
1
1
1
1
1
1
1
1
1
1
1
1
1
1
1
1
1
1
1
1
1
1
1
1
1
1
1
1
1
1
1
1
1
1
1
1
2.08331
2.66603
2.68121
2.67691
2.67433
2.67119
2.66804
2.66484
2.66168
2.65853
2.65547
1
1
1
1
1
1
1
1
1
1
1
1
1
1
1
1
1
1
1
1
1
1
1
1
1
1
1
1
1
1
1
1
1
1
1
1
1
1
1
1
1
1
1
1
1
1
1
1
1
1
1
1
1
1
1
1
1
1
1
1
1
1
1
1
1
1
1
1
1
1
1
1
1
1
1
1
1
1
1
1
1
1
1
1
1
1.92197
2.64166
2.68523
2.68023
2.67757
2.6744
2.67129
2.66812
2.66499
2.66185
2.65875
1
1
1
1
1
1
1
1
1
1
1
1
1
1
1
1
1
1
1
1
1
1
1
1
1
1
1
1
1
1
1
1
1
1
1
1
1
1
1
1
1
1
1
1
1
1
1
1
1
1
1
1
1
1
1
1
1
1
1
1
1
1
1
1
1
1
1
1
1
1
1
1
1
1
1
1
1
1
1
1
1
1
1
1
1
1.75708
2.6121
2.68734
2.68116
2.6781
2.67467
2.67146
2.66829
2.66519
2.66211
2.65903
1
1
1
1
1
1
1
1
1
1
1
1
1
1
1
1
1
1
1
1
1
1
1
1
1
1
1
1
1
1
1
1
1
1
1
1
1
1
1
1
1
1
1
1
1
1
1
1
1
1
1
1
1
1
1
1
1
1
1
1
1
1
1
1
1
1
1
1
1
1
1
1
1
1
1
1
1
1
1
1
1
1
1
1
1
1.59203
2.57548
2.68823
2.6818
2.6787
2.67529
2.67203
2.66882
2.66567
2.66254
2.65939
1
1
1
1
1
1
1
1
1
1
1
1
1
1
1
1
1
1
1
1
1
1
1
1
1
1
1
1
1
1
1
1
1
1
1
1
1
1
1
1
1
1
1
1
1
1
1
1
1
1
1
1
1
1
1
1
1
1
1
1
1
1
1
1
1
1
1
1
1
1
1
1
1
1
1
1
1
1
1
1
1
1
1
1
1
1.44597
2.53153
2.6892
2.68317
2.68003
2.67664
2.67337
2.67012
2.66689
2.66364
2.66037
1
1
1
1
1
1
1
1
1
1
1
1
1
1
1
1
1
1
1
1
1
1
1
1
1
1
1
1
1
1
1
1
1
1
1
1
1
1
1
1
1
1
1
1
1
1
1
1
1
1
1
1
1
1
1
1
1
1
1
1
1
1
1
1
1
1
1
1
1
1
1
1
1
1
1
1
1
1
1
1
1
1
1
1
1
1.32985
2.48609
2.68909
2.68415
2.68102
2.67767
2.6745
2.6713
2.66804
2.66473
2.66137
1
1
1
1
1
1
1
1
1
1
1
1
1
1
1
1
1
1
1
1
1
1
1
1
1
1
1
1
1
1
1
1
1
1
1
1
1
1
1
1
1
1
1
1
1
1
1
1
1
1
1
1
1
1
1
1
1
1
1
1
1
1
1
1
1
1
1
1
1
1
1
1
1
1
1
1
1
1
1
1
1
1
1
1
1
1.23847
2.43995
2.68747
2.68396
2.68092
2.67799
2.67511
2.67215
2.66905
2.66586
2.6626
1
1
1
1
1
1
1
1
1
1
1
1
1
1
1
1
1
1
1
1
1
1
1
1
1
1
1
1
1
1
1
1
1
1
1
1
1
1
1
1
1
1
1
1
1
1
1
1
1
1
1
1
1
1
1
1
1
1
1
1
1
1
1
1
1
1
1
1
1
1
1
1
1
1
1
1
1
1
1
1
1
1
1
1
1
1.16601
2.39493
2.68523
2.68322
2.67989
2.67742
2.67477
2.67207
2.66931
2.66653
2.66371
1
1
1
1
1
1
1
1
1
1
1
1
1
1
1
1
1
1
1
1
1
1
1
1
1
1
1
1
1
1
1
1
1
1
1
1
1
1
1
1
1
1
1
1
1
1
1
1
1
1
1
1
1
1
1
1
1
1
1
1
1
1
1
1
1
1
1
1
1
1
1
1
1
1
1
1
1
1
1
1
1
1
1
1
1
1.09594
2.34925
2.68361
2.68339
2.6802
2.67835
2.67588
2.67331
2.67068
2.66801
2.66524
1
1
1
1
1
1
1
1
1
1
1
1
1
1
1
1
1
1
1
1
1
1
1
1
1
1
1
1
1
1
1
1
1
1
1
1
1
1
1
1
1
1
1
1
1
1
1
1
1
1
1
1
1
1
1
1
1
1
1
1
1
1
1
1
1
1
1
1
1
1
1
1
1
1
1
1
1
1
1
1
1
1
1
1
1
1.02374
2.31516
2.68254
2.68599
2.68242
2.68024
2.67743
2.67467
2.6719
2.66911
2.66627
1
1
1
1
1
1
1
1
1
1
1
1
1
1
1
1
1
1
1
1
1
1
1
1
1
1
1
1
1
1
1
1
1
1
1
1
1
1
1
1
1
1
1
1
1
1
1
1
1
1
1
1
1
1
1
1
1
1
1
1
1
1
1
1
1
1
1
1
1
1
1
1
1
1
1
1
1
1
1
1
1
1
1
1
1
1.00018
2.28352
2.68122
2.68885
2.68387
2.68117
2.6782
2.6754
2.6726
2.66978
2.66696
1
1
1
1
1
1
1
1
1
1
1
1
1
1
1
1
1
1
1
1
1
1
1
1
1
1
1
1
1
1
1
1
1
1
1
1
1
1
1
1
1
1
1
1
1
1
1
1
1
1
1
1
1
1
1
1
1
1
1
1
1
1
1
1
1
1
1
1
1
1
1
1
1
1
1
1
1
1
1
1
1
1
1
1
1
1
2.26989
2.68066
2.6892
2.6842
2.68167
2.67871
2.67589
2.67304
2.67017
2.66732
1.49011
0.956083
0.717529
0.468419
0.538284
0.750928
0.986707
1.08298
1.13985
1.26579
1.37482
1.38998
1.38956
1.3936
1.40204
1.43214
1.48735
1.54508
1.59529
1.61005
1.60835