/*--------------------------------*- C++ -*----------------------------------*\
  =========                 |
  \\      /  F ield         | OpenFOAM: The Open Source CFD Toolbox
   \\    /   O peration     | Website:  https://openfoam.org
    \\  /    A nd           | Version:  7
     \\/     M anipulation  |
\*---------------------------------------------------------------------------*/
FoamFile
{
    version     2.0;
    format      ascii;
    class       volVectorField;
    location    "6.4";
    object      U;
}
// * * * * * * * * * * * * * * * * * * * * * * * * * * * * * * * * * * * * * //

dimensions      [0 1 -1 0 0 0 0];

internalField   nonuniform List<vector> 
19968
(
(3 3.0976e-17 0)
(3 1.61199e-17 0)
(3 5.03324e-18 0)
(3 -5.01706e-17 0)
(3 7.93045e-17 0)
(3 2.00067e-16 0)
(3 1.04412e-16 0)
(3 3.16433e-16 0)
(3 8.49722e-16 0)
(3 1.16258e-15 0)
(3 8.01337e-16 0)
(3 4.46856e-16 0)
(3 -3.14927e-16 0)
(3 -7.36157e-16 0)
(3 -9.97156e-16 0)
(3 4.10601e-16 0)
(3 7.2421e-16 0)
(3 1.2165e-15 0)
(3 1.25037e-15 0)
(3 9.54598e-16 0)
(3 1.0661e-15 0)
(3 1.11214e-15 0)
(3 9.42647e-16 0)
(3 1.79026e-16 0)
(3 -2.25142e-17 0)
(3 3.46753e-16 0)
(3 -5.72606e-16 0)
(3 -1.23809e-15 0)
(3 -9.93488e-16 0)
(3 3.26706e-16 0)
(3 -1.55345e-16 0)
(3 -7.17639e-16 0)
(3 -7.19849e-16 0)
(3 -1.13294e-15 0)
(3 -1.68722e-15 0)
(3 -1.86654e-15 0)
(3 -1.52507e-15 0)
(3 -8.55121e-16 0)
(3 8.33433e-17 0)
(3 1.96437e-16 0)
(3 -1.04957e-16 0)
(3 -8.94016e-17 0)
(3 2.6091e-17 0)
(3 -2.35509e-16 0)
(3 -4.12558e-16 0)
(3 -5.02633e-16 0)
(3 -3.69069e-16 0)
(3 -3.78599e-18 0)
(2.79889 0.00204787 0)
(0.966607 0.00659034 0)
(0.758884 0.00324762 0)
(0.748424 0.00890381 0)
(0.73013 0.00983847 0)
(0.713341 0.0105234 0)
(0.696091 0.00980001 0)
(0.68047 0.00831744 0)
(0.666395 0.00763136 0)
(0.652691 0.00804986 0)
(0.638165 0.00907211 0)
(0.62245 0.00987686 0)
(0.606404 0.00971907 0)
(0.591101 0.00909148 0)
(0.576322 0.00908988 0)
(0.561114 0.00963519 0)
(0.545333 0.00987988 0)
(0.529745 0.00965205 0)
(0.514652 0.0095416 0)
(0.499656 0.00975922 0)
(0.484383 0.0100264 0)
(0.468783 0.0101334 0)
(0.452896 0.0101252 0)
(0.436695 0.010137 0)
(0.420203 0.0102335 0)
(0.403591 0.0103882 0)
(0.387102 0.0105435 0)
(0.370921 0.0106752 0)
(0.355066 0.0107929 0)
(0.339363 0.0109088 0)
(0.323489 0.0110286 0)
(0.307148 0.0111514 0)
(0.290264 0.0112729 0)
(0.273038 0.0113946 0)
(0.255772 0.0115247 0)
(0.238637 0.0116678 0)
(0.221604 0.0118191 0)
(0.204495 0.0119692 0)
(0.187081 0.0121175 0)
(0.169178 0.0122769 0)
(0.150704 0.0124688 0)
(0.131666 0.0127117 0)
(0.112118 0.013015 0)
(0.092147 0.013369 0)
(0.0718733 0.0137795 0)
(0.0514041 0.0142386 0)
(0.0308492 0.0145396 0)
(0.0104931 0.0149896 0)
(3 -3.33589e-17 0)
(3 -1.93566e-16 0)
(3 -2.28165e-16 0)
(3 3.0129e-17 0)
(3 1.63358e-16 0)
(3 1.55667e-16 0)
(3 2.10616e-16 0)
(3 6.24834e-17 0)
(3 3.39591e-16 0)
(3 7.90379e-16 0)
(3 -1.5426e-16 0)
(3 -3.15189e-16 0)
(3 -4.28496e-16 0)
(3 -9.30388e-16 0)
(3 -1.0316e-15 0)
(3 -3.59673e-17 0)
(3 1.4243e-15 0)
(3 1.97939e-15 0)
(3 2.20007e-15 0)
(3 2.27501e-15 0)
(3 1.71876e-15 0)
(3 1.04519e-15 0)
(3 1.34301e-15 0)
(3 9.56232e-16 0)
(3 8.13079e-16 0)
(3 -1.4857e-16 0)
(3 -4.24071e-16 0)
(3 -8.36622e-16 0)
(3 -1.13845e-15 0)
(3 -6.02944e-16 0)
(3 -6.11277e-16 0)
(3 -1.70315e-15 0)
(3 -1.83236e-15 0)
(3 -1.62073e-15 0)
(3 -1.60289e-15 0)
(3 -1.22505e-15 0)
(3 -8.00392e-16 0)
(3 -1.61254e-16 0)
(3 7.49173e-16 0)
(3 1.21664e-15 0)
(3 9.29221e-16 0)
(3 8.17978e-16 0)
(3 7.62269e-16 0)
(3 1.78052e-16 0)
(3 -3.42045e-16 0)
(3 -4.86544e-16 0)
(3 -9.07455e-16 0)
(3 3.17699e-17 0)
(2.81258 0.0117323 0)
(0.97196 0.0293714 0)
(0.75491 0.018092 0)
(0.741504 0.0241609 0)
(0.725165 0.0279612 0)
(0.709356 0.0299838 0)
(0.693123 0.0287931 0)
(0.677883 0.0255567 0)
(0.663333 0.0235845 0)
(0.649077 0.0243982 0)
(0.634433 0.0271134 0)
(0.618829 0.0293893 0)
(0.602979 0.029129 0)
(0.587754 0.027586 0)
(0.572831 0.027566 0)
(0.557626 0.0290814 0)
(0.541892 0.0298313 0)
(0.526321 0.0293258 0)
(0.511126 0.0291129 0)
(0.496021 0.0297642 0)
(0.480701 0.0305011 0)
(0.465117 0.0307876 0)
(0.449252 0.0308073 0)
(0.433027 0.0309023 0)
(0.416487 0.0312029 0)
(0.399842 0.0316448 0)
(0.383341 0.032096 0)
(0.367139 0.0324909 0)
(0.351237 0.0328408 0)
(0.335457 0.0331741 0)
(0.3195 0.0335184 0)
(0.303088 0.0338853 0)
(0.286155 0.0342654 0)
(0.268901 0.0346551 0)
(0.251622 0.0350678 0)
(0.234484 0.0355115 0)
(0.217458 0.0359746 0)
(0.200375 0.0364377 0)
(0.183022 0.0369019 0)
(0.165229 0.0373968 0)
(0.146934 0.0379713 0)
(0.128162 0.0386747 0)
(0.108974 0.0395465 0)
(0.0894546 0.0405836 0)
(0.0697105 0.0418164 0)
(0.0498295 0.0432419 0)
(0.0298661 0.0442007 0)
(0.01012 0.0455521 0)
(3 -2.61848e-17 0)
(3 6.04443e-17 0)
(3 -8.62034e-17 0)
(3 -4.61188e-16 0)
(3 -9.05924e-16 0)
(3 -1.27697e-15 0)
(3 -1.41823e-15 0)
(3 -1.80849e-15 0)
(3 -2.21545e-15 0)
(3 -2.35652e-15 0)
(3 -1.95656e-15 0)
(3 -8.13783e-16 0)
(3 -5.72539e-16 0)
(3 -8.45884e-16 0)
(3 -7.16625e-16 0)
(3 6.70609e-17 0)
(3 8.31158e-16 0)
(3 1.82421e-15 0)
(3 2.14759e-15 0)
(3 2.64418e-15 0)
(3 2.05342e-15 0)
(3 1.78993e-15 0)
(3 1.87324e-15 0)
(3 1.98968e-15 0)
(3 1.15371e-15 0)
(3 2.20645e-16 0)
(3 -3.59616e-16 0)
(3 -3.3664e-17 0)
(3 2.07511e-16 0)
(3 -6.28337e-16 0)
(3 -9.69978e-16 0)
(3 -1.94679e-15 0)
(3 -2.26999e-15 0)
(3 -1.5368e-15 0)
(3 -1.22191e-15 0)
(3 -1.27511e-15 0)
(3 -1.2991e-15 0)
(3 -1.65246e-15 0)
(3 -1.72849e-15 0)
(3 -6.06643e-17 0)
(3 1.07306e-15 0)
(3 1.39169e-15 0)
(3 1.21121e-15 0)
(3 3.08548e-16 0)
(3 -4.79131e-16 0)
(3 4.27698e-16 0)
(3 1.17339e-15 0)
(3 7.11617e-16 0)
(2.846 0.0195827 0)
(0.987893 0.0498438 0)
(0.75847 0.0347824 0)
(0.744225 0.0424469 0)
(0.727956 0.0474106 0)
(0.712319 0.0500203 0)
(0.696526 0.0483571 0)
(0.681276 0.0441857 0)
(0.665946 0.041583 0)
(0.65072 0.0427494 0)
(0.635589 0.046663 0)
(0.619814 0.0499554 0)
(0.603939 0.0496004 0)
(0.588642 0.047392 0)
(0.573457 0.0474288 0)
(0.558191 0.0497378 0)
(0.542415 0.0509011 0)
(0.526745 0.0501919 0)
(0.511295 0.0499763 0)
(0.495924 0.0510751 0)
(0.480398 0.0522407 0)
(0.464685 0.0526865 0)
(0.44873 0.0527854 0)
(0.432402 0.0530442 0)
(0.415739 0.0535822 0)
(0.398971 0.0542913 0)
(0.382346 0.055015 0)
(0.366003 0.0556785 0)
(0.349928 0.0562858 0)
(0.333954 0.0568604 0)
(0.317807 0.0574401 0)
(0.301232 0.0580465 0)
(0.284167 0.0586636 0)
(0.2668 0.0592811 0)
(0.24942 0.0599209 0)
(0.232192 0.0606007 0)
(0.215092 0.0613101 0)
(0.19796 0.0620307 0)
(0.180589 0.062775 0)
(0.162822 0.0635887 0)
(0.144607 0.0645332 0)
(0.125989 0.0656671 0)
(0.107053 0.0670452 0)
(0.087879 0.0686644 0)
(0.0685423 0.0705664 0)
(0.0490754 0.072777 0)
(0.0294261 0.0742077 0)
(0.00993995 0.0762771 0)
(3 1.97766e-16 0)
(3 3.35722e-16 0)
(3 1.42792e-16 0)
(3 -5.06935e-16 0)
(3 -4.54287e-16 0)
(3 -7.24597e-16 0)
(3 -9.89122e-16 0)
(3 -8.70189e-16 0)
(3 -8.18469e-16 0)
(3 -4.30723e-16 0)
(3 5.04821e-16 0)
(3 4.5322e-16 0)
(3 4.55128e-16 0)
(3 4.72467e-16 0)
(3 1.6123e-16 0)
(3 8.60273e-17 0)
(3 6.83307e-16 0)
(3 1.91383e-15 0)
(3 3.39313e-15 0)
(3 4.05646e-15 0)
(3 4.29084e-15 0)
(3 4.1121e-15 0)
(3 1.8405e-15 0)
(3 7.03388e-16 0)
(3 5.17402e-16 0)
(3 7.53941e-16 0)
(3 5.03813e-17 0)
(3 -6.72016e-16 0)
(3 -4.43479e-16 0)
(3 -6.69092e-16 0)
(3 -1.23364e-15 0)
(3 -1.70997e-15 0)
(3 -1.60939e-15 0)
(3 -1.97943e-15 0)
(3 -2.37714e-15 0)
(3 -2.92109e-15 0)
(3 -3.0883e-15 0)
(3 -3.21579e-15 0)
(3 -2.03838e-15 0)
(3 -7.33525e-16 0)
(3 -3.82992e-16 0)
(3 8.63717e-16 0)
(3 1.85318e-15 0)
(3 1.86461e-15 0)
(3 1.87452e-15 0)
(3 3.11117e-15 0)
(3 3.72655e-15 0)
(3 2.18538e-15 0)
(2.89084 0.0236609 0)
(1.01019 0.0683133 0)
(0.75964 0.0523107 0)
(0.745199 0.0614706 0)
(0.729543 0.0672333 0)
(0.714489 0.0697837 0)
(0.699368 0.0680589 0)
(0.684347 0.06393 0)
(0.668781 0.0612956 0)
(0.653095 0.0626735 0)
(0.637847 0.0672619 0)
(0.622268 0.071102 0)
(0.606655 0.0707318 0)
(0.59147 0.0681506 0)
(0.576223 0.0682435 0)
(0.561112 0.0711433 0)
(0.545495 0.0727091 0)
(0.529853 0.0719964 0)
(0.514214 0.0719566 0)
(0.49859 0.0735629 0)
(0.482806 0.0751556 0)
(0.466876 0.0757766 0)
(0.450737 0.0760433 0)
(0.434222 0.0765856 0)
(0.417354 0.0774293 0)
(0.400364 0.078416 0)
(0.383485 0.0794191 0)
(0.366826 0.0803821 0)
(0.350358 0.0812852 0)
(0.333939 0.0821227 0)
(0.31734 0.082934 0)
(0.300342 0.0837543 0)
(0.28289 0.0845649 0)
(0.265157 0.0853499 0)
(0.247416 0.0861398 0)
(0.229846 0.0869659 0)
(0.212451 0.0878269 0)
(0.195107 0.0887188 0)
(0.177648 0.0896824 0)
(0.159938 0.0907911 0)
(0.141935 0.0921153 0)
(0.123679 0.0937054 0)
(0.105241 0.0956161 0)
(0.086654 0.097842 0)
(0.0678882 0.100399 0)
(0.0488168 0.103359 0)
(0.0293868 0.10522 0)
(0.00991857 0.107937 0)
(3 -1.30482e-16 0)
(3 -1.71102e-16 0)
(3 -2.51353e-16 0)
(3 1.63676e-16 0)
(3 1.0408e-15 0)
(3 1.01605e-15 0)
(3 8.05809e-16 0)
(3 5.59794e-16 0)
(3 5.70363e-16 0)
(3 5.48581e-16 0)
(3 8.8758e-16 0)
(3 1.3236e-15 0)
(3 1.77237e-15 0)
(3 1.85839e-15 0)
(3 1.60877e-15 0)
(3 1.14868e-15 0)
(3 8.36557e-16 0)
(3 5.73314e-16 0)
(3 1.03944e-15 0)
(3 2.03762e-15 0)
(3 2.36191e-15 0)
(3 1.89252e-15 0)
(3 5.95731e-16 0)
(3 -2.38487e-16 0)
(3 -2.00119e-16 0)
(3 6.59528e-17 0)
(3 -1.83363e-15 0)
(3 -3.54883e-15 0)
(3 -3.68087e-15 0)
(3 -3.69115e-15 0)
(3 -2.84658e-15 0)
(3 -5.15882e-16 0)
(3 2.00863e-16 0)
(3 5.238e-17 0)
(3 2.2684e-16 0)
(3 4.28788e-16 0)
(3 2.84474e-16 0)
(3 1.59036e-16 0)
(3 2.74911e-17 0)
(3 -5.08511e-16 0)
(3 -4.19625e-16 0)
(3 -2.49541e-16 0)
(3 5.40793e-16 0)
(3 1.72222e-15 0)
(3 4.06342e-15 0)
(3 3.67098e-15 0)
(3 3.0218e-15 0)
(3 2.12496e-15 0)
(2.94106 0.0335745 0)
(1.03792 0.0929138 0)
(0.762136 0.0731888 0)
(0.746786 0.0822483 0)
(0.731883 0.0873493 0)
(0.717836 0.0891289 0)
(0.70379 0.0874818 0)
(0.689458 0.0839538 0)
(0.674274 0.0818295 0)
(0.658747 0.0835561 0)
(0.643761 0.088401 0)
(0.628676 0.0924237 0)
(0.613431 0.092291 0)
(0.598257 0.0897818 0)
(0.582817 0.0899881 0)
(0.567704 0.0932849 0)
(0.552218 0.0952667 0)
(0.536636 0.0948066 0)
(0.520883 0.095177 0)
(0.505072 0.0973982 0)
(0.489056 0.0994549 0)
(0.472928 0.100293 0)
(0.456666 0.10085 0)
(0.440076 0.101867 0)
(0.423125 0.103179 0)
(0.406009 0.104532 0)
(0.388941 0.105875 0)
(0.372 0.107216 0)
(0.35514 0.10851 0)
(0.338235 0.109705 0)
(0.321096 0.110833 0)
(0.303537 0.111937 0)
(0.285499 0.11299 0)
(0.267122 0.113957 0)
(0.248654 0.114864 0)
(0.230283 0.115749 0)
(0.212057 0.116624 0)
(0.193922 0.117506 0)
(0.175779 0.118476 0)
(0.157551 0.119648 0)
(0.139235 0.121118 0)
(0.120906 0.122954 0)
(0.102671 0.125226 0)
(0.0845325 0.127944 0)
(0.0663366 0.13106 0)
(0.0476901 0.134687 0)
(0.0288029 0.136968 0)
(0.00969621 0.140271 0)
(3 -1.17503e-17 0)
(3 1.23962e-16 0)
(3 3.80024e-16 0)
(3 1.02501e-15 0)
(3 1.19519e-15 0)
(3 1.66901e-15 0)
(3 1.66775e-15 0)
(3 1.33478e-15 0)
(3 7.15836e-16 0)
(3 -7.69736e-17 0)
(3 -6.75122e-16 0)
(3 -4.08214e-16 0)
(3 2.99852e-16 0)
(3 5.12634e-16 0)
(3 6.63555e-16 0)
(3 9.73924e-16 0)
(3 3.06745e-16 0)
(3 -3.40367e-16 0)
(3 -4.23661e-16 0)
(3 -3.06082e-16 0)
(3 -1.02553e-16 0)
(3 1.38002e-15 0)
(3 1.46495e-15 0)
(3 3.75616e-16 0)
(3 1.25771e-16 0)
(3 -2.37425e-16 0)
(3 -2.44777e-16 0)
(3 -2.16395e-15 0)
(3 -3.0523e-15 0)
(3 -2.84823e-15 0)
(3 -1.44127e-15 0)
(3 -4.50909e-16 0)
(3 5.5994e-17 0)
(3 8.8103e-16 0)
(3 1.59677e-15 0)
(3 1.59803e-15 0)
(3 1.24164e-15 0)
(3 4.80429e-16 0)
(3 -4.09603e-16 0)
(3 -8.25507e-16 0)
(3 1.67112e-16 0)
(3 5.11623e-16 0)
(3 5.5667e-16 0)
(3 6.20557e-16 0)
(3 9.98254e-16 0)
(3 1.30491e-15 0)
(3 1.35999e-15 0)
(3 6.24539e-16 0)
(2.99823 0.00236163 0)
(1.10647 0.112195 0)
(0.774204 0.0905241 0)
(0.758084 0.102333 0)
(0.742662 0.106134 0)
(0.7281 0.107013 0)
(0.713718 0.105796 0)
(0.699135 0.103476 0)
(0.684001 0.102475 0)
(0.668719 0.104627 0)
(0.654035 0.109188 0)
(0.639517 0.113056 0)
(0.624659 0.11363 0)
(0.609456 0.111846 0)
(0.593875 0.112228 0)
(0.578779 0.115511 0)
(0.563632 0.117588 0)
(0.548426 0.117395 0)
(0.532918 0.118275 0)
(0.517238 0.121166 0)
(0.501207 0.123714 0)
(0.48504 0.124757 0)
(0.46882 0.125644 0)
(0.452367 0.127288 0)
(0.435566 0.129248 0)
(0.418542 0.131067 0)
(0.401495 0.132801 0)
(0.38449 0.134599 0)
(0.367463 0.136419 0)
(0.350291 0.138146 0)
(0.332814 0.139783 0)
(0.314872 0.141378 0)
(0.296393 0.142893 0)
(0.277469 0.14427 0)
(0.258302 0.145523 0)
(0.239071 0.146691 0)
(0.219859 0.147791 0)
(0.200669 0.14884 0)
(0.181464 0.149931 0)
(0.16222 0.151199 0)
(0.142977 0.152754 0)
(0.123857 0.154677 0)
(0.104997 0.15705 0)
(0.0863729 0.159962 0)
(0.0676775 0.163269 0)
(0.0487569 0.167326 0)
(0.0294278 0.169843 0)
(0.00986765 0.173602 0)
(3 1.9505e-16 0)
(3 5.6128e-16 0)
(3 1.35189e-15 0)
(3 1.31136e-15 0)
(3 1.27327e-15 0)
(3 1.6256e-15 0)
(3 2.1472e-15 0)
(3 6.76264e-16 0)
(3 -9.65948e-17 0)
(3 -6.17129e-16 0)
(3 -9.89781e-16 0)
(3 -9.90603e-16 0)
(3 -8.60062e-16 0)
(3 -4.88374e-16 0)
(3 -1.87108e-16 0)
(3 -2.05176e-16 0)
(3 -6.44153e-16 0)
(3 -1.27197e-15 0)
(3 -1.01435e-15 0)
(3 -5.67504e-16 0)
(3 1.70805e-16 0)
(3 1.36748e-15 0)
(3 2.58893e-15 0)
(3 2.61981e-15 0)
(3 1.64323e-15 0)
(3 9.59192e-16 0)
(3 1.10991e-16 0)
(3 -3.76395e-16 0)
(3 -4.87191e-16 0)
(3 -6.36147e-16 0)
(3 -9.87142e-16 0)
(3 -9.91083e-16 0)
(3 -1.17123e-15 0)
(3 -1.11316e-15 0)
(3 -9.73471e-16 0)
(3 -3.47614e-16 0)
(3 -1.26195e-16 0)
(3 -3.39563e-16 0)
(3 -3.80649e-16 0)
(3 -3.04631e-16 0)
(3 4.98412e-16 0)
(3 7.07759e-16 0)
(3 9.567e-16 0)
(3 8.27671e-16 0)
(3 2.8837e-16 0)
(3 5.94718e-16 0)
(3 1.54477e-15 0)
(3 5.7986e-16 0)
(3.00004 3.80242e-05 0)
(1.22001 0.134859 0)
(0.776349 0.111444 0)
(0.756486 0.125341 0)
(0.741258 0.128798 0)
(0.725732 0.129232 0)
(0.710142 0.128152 0)
(0.69441 0.126244 0)
(0.678717 0.12565 0)
(0.663532 0.12769 0)
(0.649256 0.13163 0)
(0.635446 0.135566 0)
(0.621161 0.137386 0)
(0.606223 0.136836 0)
(0.590898 0.137436 0)
(0.576123 0.140247 0)
(0.561659 0.142071 0)
(0.5472 0.142196 0)
(0.532337 0.143772 0)
(0.517219 0.147462 0)
(0.501584 0.150556 0)
(0.485746 0.151774 0)
(0.469902 0.152968 0)
(0.453933 0.155327 0)
(0.437648 0.158114 0)
(0.421093 0.160537 0)
(0.404494 0.162721 0)
(0.387935 0.165006 0)
(0.37133 0.167382 0)
(0.354516 0.169668 0)
(0.337328 0.171832 0)
(0.319621 0.173932 0)
(0.301323 0.175936 0)
(0.282489 0.177757 0)
(0.263273 0.179385 0)
(0.243833 0.180862 0)
(0.224273 0.182212 0)
(0.204638 0.183454 0)
(0.184942 0.18468 0)
(0.165204 0.186031 0)
(0.145496 0.187613 0)
(0.125955 0.189525 0)
(0.106704 0.191826 0)
(0.0877334 0.194752 0)
(0.0685797 0.197992 0)
(0.0494837 0.202296 0)
(0.029829 0.204899 0)
(0.00999113 0.20901 0)
(3 -1.75386e-17 0)
(3 9.06173e-18 0)
(3 -7.92952e-17 0)
(3 -2.3905e-16 0)
(3 -4.35975e-16 0)
(3 -3.05654e-16 0)
(3 -1.06234e-15 0)
(3 -1.28448e-15 0)
(3 -1.31942e-15 0)
(3 -4.03545e-16 0)
(3 5.6119e-17 0)
(3 3.03501e-16 0)
(3 7.54216e-16 0)
(3 9.82647e-16 0)
(3 6.42181e-16 0)
(3 4.1687e-16 0)
(3 1.3518e-15 0)
(3 1.66872e-15 0)
(3 2.97245e-16 0)
(3 -1.74986e-15 0)
(3 -1.48584e-15 0)
(3 -4.30542e-16 0)
(3 7.0004e-16 0)
(3 2.09568e-15 0)
(3 2.31846e-15 0)
(3 2.4165e-15 0)
(3 1.65021e-15 0)
(3 7.91158e-16 0)
(3 1.10909e-15 0)
(3 1.19048e-15 0)
(3 -9.77031e-16 0)
(3 -2.72127e-15 0)
(3 -2.66277e-15 0)
(3 -1.6671e-15 0)
(3 -6.48991e-16 0)
(3 -9.584e-17 0)
(3 2.47725e-16 0)
(3 1.13653e-15 0)
(3 1.06875e-15 0)
(3 5.69281e-16 0)
(3 -5.74488e-16 0)
(3 5.14805e-16 0)
(3 1.1117e-15 0)
(3 1.42451e-15 0)
(3 1.51925e-15 0)
(3 1.35674e-15 0)
(3 3.46477e-16 0)
(3 -4.08578e-18 0)
(3 6.77307e-08 0)
(1.42134 0.165154 0)
(0.789556 0.137398 0)
(0.75837 0.148597 0)
(0.743459 0.151906 0)
(0.726903 0.152841 0)
(0.710285 0.15246 0)
(0.693487 0.15085 0)
(0.677145 0.14969 0)
(0.661888 0.150439 0)
(0.647929 0.153013 0)
(0.634813 0.156773 0)
(0.621336 0.160015 0)
(0.606877 0.161272 0)
(0.591945 0.16231 0)
(0.577473 0.164279 0)
(0.563627 0.165385 0)
(0.5499 0.165733 0)
(0.53579 0.168106 0)
(0.52146 0.172737 0)
(0.506486 0.176542 0)
(0.491249 0.177917 0)
(0.476064 0.179238 0)
(0.460852 0.182174 0)
(0.44532 0.185828 0)
(0.429363 0.188982 0)
(0.413248 0.19172 0)
(0.397127 0.194618 0)
(0.38092 0.197752 0)
(0.364421 0.200862 0)
(0.347443 0.203838 0)
(0.329851 0.20674 0)
(0.311576 0.209552 0)
(0.292644 0.212174 0)
(0.273174 0.214565 0)
(0.253308 0.216752 0)
(0.233165 0.218749 0)
(0.212828 0.22055 0)
(0.19236 0.222218 0)
(0.171827 0.223873 0)
(0.151321 0.225599 0)
(0.130975 0.227518 0)
(0.110871 0.229642 0)
(0.0910443 0.23244 0)
(0.0709046 0.2354 0)
(0.0511146 0.239791 0)
(0.0307328 0.242413 0)
(0.010299 0.246808 0)
(3 -3.91311e-17 0)
(3 -2.41704e-16 0)
(3 -8.25867e-16 0)
(3 -8.94564e-16 0)
(3 -1.17683e-15 0)
(3 -1.61709e-15 0)
(3 -1.74736e-15 0)
(3 -1.53975e-15 0)
(3 -1.06799e-15 0)
(3 -8.14225e-16 0)
(3 -6.17297e-16 0)
(3 -1.98609e-16 0)
(3 2.69638e-16 0)
(3 1.3507e-16 0)
(3 -3.50913e-16 0)
(3 -5.41125e-16 0)
(3 -2.64329e-16 0)
(3 -2.65048e-16 0)
(3 -6.16896e-16 0)
(3 -2.13344e-15 0)
(3 -2.37372e-15 0)
(3 -1.76673e-15 0)
(3 -9.22653e-16 0)
(3 -5.91775e-16 0)
(3 1.67498e-15 0)
(3 2.85657e-15 0)
(3 2.4067e-15 0)
(3 2.14177e-15 0)
(3 1.68043e-15 0)
(3 1.28663e-15 0)
(3 2.78261e-16 0)
(3 -5.3135e-16 0)
(3 -8.46883e-16 0)
(3 -9.28064e-16 0)
(3 -8.66829e-16 0)
(3 -1.13828e-15 0)
(3 -1.09847e-15 0)
(3 -5.21689e-16 0)
(3 2.90977e-16 0)
(3 3.34421e-16 0)
(3 -3.03933e-16 0)
(3 1.86107e-16 0)
(3 5.58618e-16 0)
(3 1.48932e-15 0)
(3 6.86696e-16 0)
(3 2.12596e-16 0)
(3 -6.80941e-16 0)
(3 -3.22083e-16 0)
(3 1.68259e-10 0)
(1.73382 0.187334 0)
(0.815707 0.167536 0)
(0.764663 0.172545 0)
(0.750122 0.177103 0)
(0.732458 0.179053 0)
(0.714884 0.179552 0)
(0.696932 0.178416 0)
(0.679593 0.176355 0)
(0.663609 0.174856 0)
(0.649074 0.175372 0)
(0.635624 0.178654 0)
(0.622266 0.183367 0)
(0.607829 0.186898 0)
(0.59276 0.18876 0)
(0.578034 0.189702 0)
(0.564122 0.189641 0)
(0.550469 0.189903 0)
(0.536633 0.192972 0)
(0.5228 0.198606 0)
(0.508287 0.203278 0)
(0.493455 0.20483 0)
(0.478768 0.206061 0)
(0.464257 0.209403 0)
(0.449622 0.21402 0)
(0.434508 0.218175 0)
(0.419155 0.221687 0)
(0.403798 0.225354 0)
(0.388373 0.229413 0)
(0.37262 0.233543 0)
(0.356309 0.237532 0)
(0.339307 0.241425 0)
(0.321554 0.245246 0)
(0.303053 0.248897 0)
(0.283872 0.252301 0)
(0.264109 0.255454 0)
(0.243858 0.258354 0)
(0.2232 0.260969 0)
(0.202228 0.263325 0)
(0.181041 0.26551 0)
(0.159745 0.267562 0)
(0.138451 0.269617 0)
(0.117215 0.271605 0)
(0.0961322 0.274232 0)
(0.0746645 0.276801 0)
(0.0536772 0.281157 0)
(0.0321829 0.283755 0)
(0.0108227 0.288397 0)
(3 6.1619e-17 0)
(3 -4.98124e-17 0)
(3 -1.20692e-16 0)
(3 -1.84187e-16 0)
(3 -3.51891e-16 0)
(3 -4.87762e-16 0)
(3 -3.7236e-16 0)
(3 -3.48383e-16 0)
(3 -8.33773e-16 0)
(3 -1.44804e-15 0)
(3 -1.84015e-15 0)
(3 -2.09465e-15 0)
(3 -2.06207e-15 0)
(3 -1.64662e-15 0)
(3 -1.3904e-15 0)
(3 -8.13591e-16 0)
(3 -7.12264e-16 0)
(3 -8.4667e-16 0)
(3 -3.56271e-16 0)
(3 -6.13501e-17 0)
(3 5.66277e-17 0)
(3 -1.26325e-16 0)
(3 1.17731e-16 0)
(3 8.91662e-16 0)
(3 1.35424e-15 0)
(3 8.61478e-16 0)
(3 2.06246e-15 0)
(3 2.26055e-15 0)
(3 1.87555e-15 0)
(3 1.08809e-15 0)
(3 3.4763e-16 0)
(3 3.67483e-16 0)
(3 3.81681e-16 0)
(3 -7.68351e-16 0)
(3 -1.4829e-15 0)
(3 -1.17482e-15 0)
(3 -9.54567e-16 0)
(3 -1.43252e-15 0)
(3 -1.83353e-15 0)
(3 -1.50851e-15 0)
(3 -8.27981e-16 0)
(3 -7.6731e-16 0)
(3 -2.5458e-16 0)
(3 4.35611e-16 0)
(3 -2.86323e-16 0)
(3 -8.28225e-16 0)
(3 -7.87132e-16 0)
(3 -6.49604e-16 0)
(3 3.7997e-13 0)
(2.15803 0.193594 0)
(0.858659 0.209214 0)
(0.757986 0.196529 0)
(0.745914 0.204259 0)
(0.73159 0.207647 0)
(0.717172 0.209818 0)
(0.701299 0.209615 0)
(0.685065 0.206985 0)
(0.669452 0.203226 0)
(0.654618 0.201374 0)
(0.640597 0.203705 0)
(0.627216 0.209442 0)
(0.612974 0.215155 0)
(0.5978 0.218062 0)
(0.582785 0.218098 0)
(0.568487 0.216671 0)
(0.554381 0.216387 0)
(0.540263 0.219702 0)
(0.526405 0.226072 0)
(0.51184 0.231529 0)
(0.496808 0.23319 0)
(0.481951 0.233863 0)
(0.467428 0.237008 0)
(0.453189 0.242279 0)
(0.438605 0.247449 0)
(0.423747 0.251731 0)
(0.408929 0.256063 0)
(0.394155 0.260989 0)
(0.379146 0.266215 0)
(0.363629 0.271394 0)
(0.347466 0.276511 0)
(0.330581 0.281631 0)
(0.312915 0.286687 0)
(0.294436 0.291563 0)
(0.275146 0.2962 0)
(0.255079 0.300556 0)
(0.234309 0.304546 0)
(0.212964 0.308122 0)
(0.1912 0.311309 0)
(0.169134 0.314072 0)
(0.146852 0.316558 0)
(0.124375 0.318599 0)
(0.101855 0.321127 0)
(0.0789052 0.323254 0)
(0.0565252 0.327465 0)
(0.0337837 0.329967 0)
(0.0114092 0.334838 0)
(3 -1.57258e-17 0)
(3 -1.4869e-16 0)
(3 -8.27983e-17 0)
(3 -5.15355e-16 0)
(3 -2.24496e-16 0)
(3 3.70978e-17 0)
(3 -2.53969e-17 0)
(3 -7.5099e-17 0)
(3 -3.4041e-16 0)
(3 -6.951e-16 0)
(3 -1.05582e-15 0)
(3 -1.28517e-15 0)
(3 -9.39406e-16 0)
(3 -7.73033e-16 0)
(3 -5.42386e-16 0)
(3 2.53302e-16 0)
(3 8.60408e-16 0)
(3 1.7153e-15 0)
(3 2.69856e-15 0)
(3 2.81976e-15 0)
(3 2.46349e-15 0)
(3 2.34978e-15 0)
(3 1.46607e-15 0)
(3 8.60704e-16 0)
(3 -2.54531e-16 0)
(3 -1.72283e-16 0)
(3 4.33984e-16 0)
(3 6.53111e-16 0)
(3 6.99993e-16 0)
(3 1.46396e-16 0)
(3 1.94515e-16 0)
(3 5.22659e-16 0)
(3 -4.77229e-17 0)
(3 -1.58251e-15 0)
(3 -1.76245e-15 0)
(3 -1.25505e-15 0)
(3 -4.6941e-16 0)
(3 -2.05048e-16 0)
(3 -1.75089e-16 0)
(3 -2.80447e-16 0)
(3 -1.76685e-16 0)
(3 -3.03342e-16 0)
(3 -4.67345e-16 0)
(3 -7.05428e-16 0)
(3 -3.54073e-16 0)
(3 -1.67235e-16 0)
(3 1.00842e-17 0)
(3 -1.57466e-16 0)
(3 7.09251e-16 0)
(2.68674 0.171011 0)
(0.962498 0.255241 0)
(0.781986 0.229387 0)
(0.771487 0.223518 0)
(0.755987 0.227162 0)
(0.741869 0.231884 0)
(0.726088 0.235077 0)
(0.709563 0.234458 0)
(0.693343 0.230657 0)
(0.677444 0.227466 0)
(0.661917 0.229021 0)
(0.647532 0.235615 0)
(0.633046 0.24355 0)
(0.617497 0.248135 0)
(0.60186 0.248219 0)
(0.586658 0.246139 0)
(0.571455 0.245442 0)
(0.556348 0.248853 0)
(0.541839 0.255892 0)
(0.526759 0.262412 0)
(0.51089 0.264759 0)
(0.495019 0.265025 0)
(0.479442 0.267607 0)
(0.464551 0.273142 0)
(0.449635 0.279233 0)
(0.434359 0.284232 0)
(0.419043 0.288932 0)
(0.403837 0.294333 0)
(0.388561 0.300362 0)
(0.372957 0.306588 0)
(0.356911 0.312892 0)
(0.340378 0.319353 0)
(0.323282 0.32594 0)
(0.305508 0.332496 0)
(0.28696 0.338879 0)
(0.267585 0.344991 0)
(0.247365 0.350696 0)
(0.226348 0.355871 0)
(0.204618 0.360516 0)
(0.182184 0.364535 0)
(0.159053 0.368104 0)
(0.135188 0.370904 0)
(0.110844 0.373942 0)
(0.0859004 0.376042 0)
(0.0613435 0.380281 0)
(0.0365682 0.382726 0)
(0.0124199 0.387899 0)
(3 -1.06397e-16 0)
(3 -2.00543e-16 0)
(3 -3.38344e-16 0)
(3 -4.28426e-16 0)
(3 -6.24132e-16 0)
(3 -5.9917e-16 0)
(3 -3.01155e-16 0)
(3 -3.0244e-16 0)
(3 1.0978e-16 0)
(3 4.45398e-16 0)
(3 8.08121e-16 0)
(3 6.03345e-16 0)
(3 2.12279e-16 0)
(3 -1.98688e-16 0)
(3 -2.19862e-16 0)
(3 1.78456e-16 0)
(3 6.21012e-16 0)
(3 1.21029e-15 0)
(3 1.12509e-15 0)
(3 9.03396e-16 0)
(3 5.02728e-16 0)
(3 2.36976e-16 0)
(3 -4.70756e-16 0)
(3 -1.73419e-15 0)
(3 -2.09932e-15 0)
(3 -1.57327e-15 0)
(3 -1.02757e-15 0)
(3 -6.74811e-16 0)
(3 -7.91122e-16 0)
(3 -1.84541e-16 0)
(3 6.45876e-16 0)
(3 9.73026e-16 0)
(3 -2.361e-16 0)
(3 -9.45536e-16 0)
(3 -1.6584e-15 0)
(3 -8.77001e-16 0)
(3 -6.75496e-16 0)
(3 -4.15418e-17 0)
(3 3.10467e-16 0)
(3 4.37262e-16 0)
(3 5.74804e-16 0)
(3 5.57375e-16 0)
(3 4.00047e-16 0)
(3 1.04287e-16 0)
(3 -6.27872e-16 0)
(3 -1.17806e-15 0)
(3 -1.15269e-15 0)
(3 -5.09501e-16 0)
(3 -3.89705e-16 0)
(3.02011 0.0100894 0)
(1.15078 0.278278 0)
(0.807236 0.233073 0)
(0.793481 0.246182 0)
(0.779223 0.253357 0)
(0.764694 0.259091 0)
(0.750233 0.263226 0)
(0.735201 0.263686 0)
(0.719965 0.26079 0)
(0.704506 0.257124 0)
(0.688777 0.257243 0)
(0.674172 0.262937 0)
(0.660413 0.271178 0)
(0.645734 0.276838 0)
(0.630461 0.277785 0)
(0.615179 0.275915 0)
(0.59963 0.274857 0)
(0.584021 0.277804 0)
(0.569144 0.284923 0)
(0.554038 0.292588 0)
(0.537793 0.296671 0)
(0.521126 0.297452 0)
(0.504509 0.299468 0)
(0.488652 0.304929 0)
(0.473167 0.311992 0)
(0.457228 0.318172 0)
(0.440971 0.323501 0)
(0.4247 0.329355 0)
(0.408432 0.336124 0)
(0.391982 0.343401 0)
(0.375247 0.350913 0)
(0.358203 0.35871 0)
(0.340764 0.366831 0)
(0.322762 0.375164 0)
(0.304014 0.383555 0)
(0.284362 0.391889 0)
(0.263688 0.400036 0)
(0.241923 0.407746 0)
(0.21916 0.414933 0)
(0.195447 0.421285 0)
(0.170916 0.426866 0)
(0.145555 0.431218 0)
(0.119303 0.435342 0)
(0.0926653 0.437813 0)
(0.0660014 0.442089 0)
(0.0391673 0.444292 0)
(0.0132125 0.449554 0)
(3 -1.06641e-17 0)
(3 5.50446e-17 0)
(3 3.32117e-16 0)
(3 3.60458e-16 0)
(3 2.12752e-16 0)
(3 -2.76156e-16 0)
(3 -2.8111e-16 0)
(3 1.70601e-18 0)
(3 6.39729e-16 0)
(3 1.38148e-15 0)
(3 1.33965e-15 0)
(3 1.18284e-15 0)
(3 1.96469e-16 0)
(3 -5.70683e-16 0)
(3 -5.87303e-16 0)
(3 -6.85536e-16 0)
(3 -1.02602e-15 0)
(3 -1.11024e-15 0)
(3 -1.211e-15 0)
(3 -7.61663e-16 0)
(3 -6.06037e-16 0)
(3 -9.47034e-16 0)
(3 -1.15661e-15 0)
(3 -1.26152e-15 0)
(3 -1.27399e-15 0)
(3 -1.25596e-15 0)
(3 -1.50276e-15 0)
(3 -1.3644e-15 0)
(3 -1.15447e-15 0)
(3 5.21373e-17 0)
(3 2.70073e-16 0)
(3 5.69478e-16 0)
(3 6.71577e-16 0)
(3 1.19888e-15 0)
(3 1.02852e-15 0)
(3 -6.49664e-17 0)
(3 -1.31933e-15 0)
(3 -1.17575e-15 0)
(3 -9.11923e-16 0)
(3 -6.60046e-16 0)
(3 -5.95931e-16 0)
(3 -6.17025e-16 0)
(3 -2.01356e-16 0)
(3 3.65726e-16 0)
(3 7.48634e-16 0)
(3 9.07525e-16 0)
(3 7.73155e-16 0)
(3 7.29677e-16 0)
(3 2.23974e-16 0)
(3.00029 1.0214e-05 0)
(1.56343 0.31062 0)
(0.824968 0.278087 0)
(0.778685 0.277762 0)
(0.766451 0.284796 0)
(0.753573 0.288258 0)
(0.741993 0.29193 0)
(0.72967 0.294089 0)
(0.71654 0.293791 0)
(0.702751 0.291846 0)
(0.688375 0.291564 0)
(0.674578 0.295887 0)
(0.662209 0.303681 0)
(0.649574 0.310441 0)
(0.636148 0.312964 0)
(0.622438 0.312252 0)
(0.608278 0.311523 0)
(0.593825 0.313991 0)
(0.58 0.320619 0)
(0.566524 0.328976 0)
(0.55197 0.334907 0)
(0.536513 0.337003 0)
(0.520709 0.338736 0)
(0.505322 0.343529 0)
(0.490633 0.350861 0)
(0.475621 0.358057 0)
(0.459951 0.364043 0)
(0.443937 0.370082 0)
(0.427796 0.377159 0)
(0.411474 0.385138 0)
(0.394861 0.39364 0)
(0.377924 0.402588 0)
(0.360638 0.41207 0)
(0.342905 0.422062 0)
(0.324619 0.43244 0)
(0.305616 0.443027 0)
(0.285748 0.45372 0)
(0.264775 0.464082 0)
(0.242663 0.473888 0)
(0.219262 0.482656 0)
(0.194566 0.490481 0)
(0.168254 0.497101 0)
(0.140196 0.504049 0)
(0.110109 0.509698 0)
(0.0787775 0.516019 0)
(0.0466383 0.519001 0)
(0.0155176 0.524161 0)
(3 2.91926e-17 0)
(3 1.67171e-16 0)
(3 2.93012e-16 0)
(3 8.52168e-16 0)
(3 1.16273e-15 0)
(3 9.22485e-16 0)
(3 4.63326e-16 0)
(3 6.80344e-16 0)
(3 8.31834e-16 0)
(3 7.13101e-16 0)
(3 5.09313e-16 0)
(3 5.43391e-16 0)
(3 4.19235e-16 0)
(3 4.50877e-16 0)
(3 4.5441e-16 0)
(3 2.12384e-16 0)
(3 -1.41403e-16 0)
(3 -5.47428e-16 0)
(3 -7.02433e-16 0)
(3 -6.53389e-16 0)
(3 -1.13202e-16 0)
(3 -1.98779e-16 0)
(3 -8.88904e-16 0)
(3 -1.45541e-15 0)
(3 -2.01143e-15 0)
(3 -2.02622e-15 0)
(3 -1.98114e-15 0)
(3 -2.54722e-15 0)
(3 -2.36599e-15 0)
(3 -1.76432e-15 0)
(3 -4.48655e-16 0)
(3 6.26871e-16 0)
(3 7.01859e-16 0)
(3 1.41591e-15 0)
(3 1.73728e-15 0)
(3 1.75737e-15 0)
(3 9.38748e-16 0)
(3 1.09781e-16 0)
(3 -9.0744e-16 0)
(3 -1.92316e-15 0)
(3 -2.08169e-15 0)
(3 -1.84948e-15 0)
(3 -1.02647e-15 0)
(3 -5.56802e-16 0)
(3 -5.90696e-18 0)
(3 9.9371e-16 0)
(3 1.0096e-15 0)
(3 9.14489e-16 0)
(3 1.10005e-15 0)
(3 1.71984e-08 0)
(2.38838 0.281479 0)
(0.922116 0.338903 0)
(0.791769 0.317618 0)
(0.779582 0.310065 0)
(0.765858 0.312236 0)
(0.75454 0.316622 0)
(0.742719 0.321115 0)
(0.729964 0.323814 0)
(0.716602 0.324124 0)
(0.70289 0.323812 0)
(0.689351 0.326399 0)
(0.677197 0.332584 0)
(0.665584 0.33929 0)
(0.653293 0.343211 0)
(0.640422 0.344178 0)
(0.626986 0.344452 0)
(0.61312 0.346849 0)
(0.599609 0.352895 0)
(0.586874 0.361478 0)
(0.573773 0.36926 0)
(0.559617 0.373717 0)
(0.544805 0.376295 0)
(0.529925 0.38071 0)
(0.515705 0.388117 0)
(0.501571 0.396621 0)
(0.486706 0.404248 0)
(0.471189 0.411338 0)
(0.455374 0.419208 0)
(0.439376 0.428215 0)
(0.42307 0.438054 0)
(0.40626 0.44851 0)
(0.388998 0.459602 0)
(0.3714 0.471443 0)
(0.353327 0.484049 0)
(0.334559 0.49727 0)
(0.314801 0.511095 0)
(0.29347 0.525176 0)
(0.270287 0.539335 0)
(0.244799 0.553167 0)
(0.217042 0.566644 0)
(0.187087 0.579279 0)
(0.155777 0.592088 0)
(0.123314 0.603612 0)
(0.0897921 0.613157 0)
(0.0547776 0.618063 0)
(0.0173495 0.621476 0)
(3 2.55174e-17 0)
(3 -2.59766e-17 0)
(3 -9.57119e-17 0)
(3 -4.30303e-17 0)
(3 -1.63041e-16 0)
(3 -5.95397e-17 0)
(3 1.45148e-16 0)
(3 3.66443e-16 0)
(3 1.30049e-16 0)
(3 -2.21428e-16 0)
(3 -4.65451e-16 0)
(3 5.11171e-16 0)
(3 6.05927e-16 0)
(3 1.50355e-15 0)
(3 1.70807e-15 0)
(3 1.61391e-15 0)
(3 1.17092e-15 0)
(3 9.3996e-16 0)
(3 1.33683e-16 0)
(3 -1.18916e-15 0)
(3 -1.42496e-15 0)
(3 -1.60554e-15 0)
(3 -1.81402e-15 0)
(3 -1.5592e-15 0)
(3 -1.36631e-15 0)
(3 -8.06656e-16 0)
(3 -6.02638e-16 0)
(3 -1.00607e-15 0)
(3 -1.25294e-15 0)
(3 -1.09068e-15 0)
(3 -8.3723e-16 0)
(3 1.72104e-16 0)
(3 8.35018e-16 0)
(3 9.94953e-16 0)
(3 1.35987e-15 0)
(3 1.49901e-15 0)
(3 2.18363e-15 0)
(3 2.05006e-15 0)
(3 1.09231e-15 0)
(3 -5.37067e-16 0)
(3 -6.71813e-16 0)
(3 -1.88462e-16 0)
(3 -1.00467e-16 0)
(3 -2.574e-16 0)
(3 -1.15212e-15 0)
(3 -1.44546e-15 0)
(3 -1.42153e-15 0)
(3 -1.18181e-15 0)
(3 -7.63333e-16 0)
(3 -6.06584e-09 0)
(3.02778 0.0173523 0)
(1.25642 0.376166 0)
(0.84173 0.331452 0)
(0.819096 0.333183 0)
(0.805252 0.332507 0)
(0.791158 0.33662 0)
(0.777913 0.343311 0)
(0.764039 0.348987 0)
(0.749818 0.352064 0)
(0.735435 0.352957 0)
(0.721175 0.354462 0)
(0.707882 0.358912 0)
(0.695652 0.365202 0)
(0.683314 0.370739 0)
(0.67031 0.374319 0)
(0.656672 0.376759 0)
(0.642628 0.379982 0)
(0.628773 0.385666 0)
(0.615786 0.393819 0)
(0.603338 0.402456 0)
(0.59035 0.409244 0)
(0.576517 0.413779 0)
(0.562206 0.418498 0)
(0.548161 0.425751 0)
(0.534568 0.435196 0)
(0.520626 0.44488 0)
(0.505952 0.453912 0)
(0.490854 0.46314 0)
(0.475637 0.473409 0)
(0.459973 0.484708 0)
(0.44405 0.496865 0)
(0.427487 0.509882 0)
(0.410548 0.523991 0)
(0.393272 0.539284 0)
(0.375569 0.555797 0)
(0.357128 0.573601 0)
(0.33733 0.59259 0)
(0.315679 0.612581 0)
(0.291961 0.63303 0)
(0.266366 0.653186 0)
(0.239076 0.67174 0)
(0.209904 0.687723 0)
(0.178751 0.703087 0)
(0.142112 0.721678 0)
(0.0961239 0.743947 0)
(0.0364508 0.763494 0)
(3 -1.31476e-16 0)
(3 -1.05848e-17 0)
(3 -1.05377e-16 0)
(3 -2.877e-16 0)
(3 -5.96326e-16 0)
(3 -5.73039e-16 0)
(3 -3.84109e-16 0)