/*--------------------------------*- C++ -*----------------------------------*\
  =========                 |
  \\      /  F ield         | OpenFOAM: The Open Source CFD Toolbox
   \\    /   O peration     | Website:  https://openfoam.org
    \\  /    A nd           | Version:  7
     \\/     M anipulation  |
\*---------------------------------------------------------------------------*/
FoamFile
{
    version     2.0;
    format      ascii;
    class       volScalarField;
    location    "5";
    object      p;
}
// * * * * * * * * * * * * * * * * * * * * * * * * * * * * * * * * * * * * * //

dimensions      [0 2 -2 0 0 0 0];

internalField   nonuniform List<scalar> 
16000
(
3.2878169e-06
-0.0001221893
-0.00038868779
-0.00072928547
-0.0010724808
-0.0013828003
-0.0016331088
-0.001807045
-0.001895638
-0.0018943355
-0.0018011749
-0.0016156256
-0.0013381322
-0.00096994668
-0.00051327661
2.8268658e-05
0.00064919732
0.0013416675
0.0020950236
0.0028954459
0.0037258508
0.0045660876
0.0053933801
0.006183096
0.0069098218
0.0075487302
0.0080771532
0.0084762247
0.0087324549
0.0088391095
0.0087972722
0.0086164972
0.0083150299
0.0079197502
0.0074655634
0.0069911267
0.0065487178
0.0061870717
0.0059642914
0.0059167672
0.00013688255
6.8120496e-06
-0.00020633081
-0.00046347738
-0.00072444793
-0.000959785
-0.0011482964
-0.0012759429
-0.0013339048
-0.001316891
-0.0012220202
-0.0010479374
-0.00079441988
-0.000462263
-5.3356359e-05
0.00042903437
0.00097990648
0.0015921455
0.0022561868
0.0029597811
0.0036879395
0.0044231981
0.005145871
0.0058348493
0.0064685067
0.0070258858
0.0074880448
0.0078394521
0.0080693119
0.0081727075
0.0081514506
0.0080145472
0.0077782341
0.007465617
0.0071058458
0.0067325115
0.0063831943
0.006095939
0.0059130167
0.0058685399
0.00041306869
0.00021936376
1.063999e-06
-0.0002299763
-0.0004549902
-0.00065247095
-0.0008067317
-0.00090718319
-0.00094676754
-0.00092093252
-0.00082691635
-0.00066320289
-0.00042926865
-0.00012547778
0.00024680998
0.00068494224
0.0011846488
0.0017397262
0.002341737
0.002979788
0.003640486
0.0043080649
0.0049647761
0.0055915028
0.0061686241
0.0066771073
0.0070997569
0.007422512
0.0076356782
0.0077349736
0.0077222788
0.0076059923
0.0074009363
0.0071278118
0.0068122014
0.0064831913
0.0061718438
0.005909358
0.0057262853
0.00565049
0.00077134141
0.00047827682
0.0002210814
-1.5834878e-05
-0.0002327581
-0.00041512426
-0.00055250387
-0.00063836421
-0.000668209
-0.0006389969
-0.00054874848
-0.00039618147
-0.00018061098
9.8032745e-05
0.00043901922
0.00084049696
0.0012991515
0.0018098642
0.0023653838
0.0029560712
0.0035698097
0.0041920705
0.0048062881
0.0053944019
0.0059376822
0.0064177893
0.006818004
0.0071245224
0.0073276917
0.0074230517
0.0074120604
0.0073023958
0.007107774
0.0068472698
0.0065441563
0.0062244213
0.0059154429
0.0056442565
0.0054326748
0.0052936135
0.0011431963
0.00074180783
0.00043142691
0.00017344194
-4.9709301e-05
-0.00022947384
-0.00036027359
-0.00043967859
-0.00046603358
-0.00043808564
-0.00035484863
-0.00021542166
-1.9024763e-05
0.00023487002
0.00054626407
0.0009142587
0.0013366579
0.0018095606
0.0023269718
0.0028804848
0.0034591173
0.004049347
0.0046353716
0.0051996375
0.0057236325
0.0061889431
0.0065785125
0.0068779867
0.0070770129
0.0071703421
0.0071585901
0.0070485363
0.0068528952
0.0065895335
0.0062801561
0.0059487029
0.0056203472
0.0053197516
0.005059535
0.0048386508
0.0014876713
0.0009741327
0.00060308505
0.00031443663
7.5057434e-05
-0.00011159754
-0.00024431756
-0.00032454977
-0.00035342659
-0.00033151522
-0.00025887134
-0.00013500727
4.0961804e-05
0.00027008146
0.00055318761
0.0008904628
0.0012809601
0.0017221041
0.0022092182
0.0027351237
0.0032898847
0.0038607684
0.0044324022
0.0049872808
0.0055065319
0.005970992
0.0063625231
0.0066654554
0.0068680027
0.0069634872
0.0069512018
0.0068367719
0.0066319297
0.0063536768
0.0060228322
0.0056623141
0.0052965231
0.0049494743
0.0046259631
0.0043121341
0.0017675357
0.0011434913
0.00070889968
0.00038402046
0.00012173874
-7.8793433e-05
-0.00022024019
-0.00030759643
-0.00034458215
-0.00033346834
-0.00027527657
-0.00016986814
-1.6178625e-05
0.00018745106
0.00044280785
0.00075128503
0.0011133157
0.0015277693
0.0019913774
0.0024982274
0.0030393943
0.0036028075
0.0041732819
0.0047330026
0.0052622516
0.0057405122
0.0061478663
0.0064665653
0.0066826171
0.0067871975
0.0067776891
0.0066581829
0.0064393311
0.0061375091
0.0057732576
0.0053694556
0.004951102
0.0045432512
0.0041447188
0.0037304919
0.0019519389
0.0012217795
0.00072377381
0.00036016394
7.1074469e-05
-0.00014808847
-0.0003034479
-0.0004031985
-0.00045338165
-0.00045777271
-0.00041820305
-0.00033474962
-0.00020604146
-2.9676602e-05
0.00019722114
0.00047740567
0.00081284783
0.0012040193
0.0016492047
0.00214387
0.0026801537
0.0032466526
0.0038282406
0.0044065624
0.0049606784
0.0054681939
0.0059067447
0.0062557237
0.0064980865
0.0066220213
0.0066222565
0.0065007947
0.006266938
0.005936525
0.0055303083
0.0050720191
0.0045885301
0.0041075218
0.0036234969
0.0031017017
0.0020143576
0.0011836408
0.00062409463
0.00022119455
-9.6754623e-05
-0.00033775864
-0.00051107484
-0.000627777
-0.0006959536
-0.00072065542
-0.0007043295
-0.00064709922
-0.00054712928
-0.00040111789
-0.00020493449
4.5715587e-05
0.00035453908
0.00072382413
0.0011536303
0.0016410034
0.0021792979
0.0027580606
0.0033621067
0.003972473
0.0045667488
0.0051202138
0.0056074113
0.0060040473
0.0062890622
0.0064466377
0.0064678793
0.006351907
0.0061061726
0.0057458702
0.0052923023
0.0047708402
0.0042114345
0.003645907
0.0030657686
0.0024273777
0.0019309186
0.0010058099
0.00038762354
-5.3946215e-05
-0.00040167044
-0.00066677264
-0.0008614044
-0.00099924578
-0.0010901826
-0.0011403201
-0.0011525234
-0.0011267825
-0.0010606264
-0.00094968
-0.00078837008
-0.0005706472
-0.00029082102
5.5496786e-05
0.00047045301
0.00095299512
0.0014979452
0.002096495
0.0027332044
0.0033886682
0.004038911
0.0046565358
0.0052123716
0.0056775485
0.006025876
0.0062362756
0.0062949637
0.0061970567
0.0059473388
0.005559983
0.0050569771
0.0044659886
0.0038211977
0.0031600618
0.0024720547
0.0017048564
0.001679637
0.00066679047
-6.5071116e-06
-0.00048541785
-0.00086318277
-0.0011541246
-0.0013731165
-0.0015362269
-0.0016549304
-0.0017361937
-0.0017831207
-0.0017953993
-0.0017697559
-0.0017005654
-0.0015806093
-0.0014018389
-0.0011562795
-0.00083707972
-0.00043957622
3.7701676e-05
0.00059208695
0.0012146455
0.0018923623
0.0026051748
0.0033274891
0.0040290094
0.0046762844
0.0052349309
0.0056723464
0.0059606564
0.0060795454
0.0060185704
0.0057785959
0.0053720126
0.0048213421
0.0041570299
0.0034185933
0.0026506564
0.0018412863
0.00092907891
0.0012400939
0.00014668316
-0.00057774544
-0.0010922672
-0.0015000154
-0.0018183401
-0.0020647147
-0.0022574282
-0.0024093812
-0.0025282487
-0.0026172299
-0.002675571
-0.0026990529
-0.0026806374
-0.0026112566
-0.0024805985
-0.0022780603
-0.0019938828
-0.0016203392
-0.0011529355
-0.00059165742
5.7503024e-05
0.00078235649
0.0015632749
0.0023735151
0.0031798836
0.0039442085
0.0046256574
0.0051837849
0.0055820723
0.0057915725
0.0057941716
0.0055849745
0.00517329
0.0045816046
0.0038433712
0.0030044985
0.0021184038
0.0011721366
9.4268521e-05
0.00059346795
-0.00057274274
-0.001343946
-0.0018921379
-0.0023297047
-0.0026769778
-0.0029539465
-0.0031809937
-0.0033723283
-0.0035362296
-0.0036758973
-0.0037900445
-0.0038734043
-0.0039173939
-0.0039109088
-0.0038411051
-0.0036943747
-0.0034575393
-0.0031191466
-0.0026708554
-0.0021089465
-0.0014359181
-0.00066164053
0.00019550277
0.0011082825
0.0020409139
0.0029502947
0.0037883014
0.0045051238
0.0050534466
0.0053930739
0.0054954241
0.0053472297
0.0049526716
0.004333022
0.0035245871
0.0025806247
0.0015651147
0.00046433628
-0.0008045348
-0.00027725719
-0.0015078275
-0.0023211273
-0.0029009404
-0.0033681746
-0.0037461031
-0.0040571687
-0.004323756
-0.004561312
-0.0047786723
-0.0049790054
-0.0051604615
-0.0053166835
-0.0054374639
-0.0055095125
-0.0055172037
-0.0054435406
-0.0052713731
-0.0049847782
-0.0045706089
-0.0040202667
-0.0033316162
-0.0025106868
-0.0015733101
-0.00054607137
0.00053340958
0.0016172714
0.0026495029
0.0035694422
0.0043165898
0.0048363515
0.0050860774
0.0050405364
0.0046957239
0.0040696415
0.0032006986
0.002150259
0.00099479608
-0.00027997834
-0.0017699684
-0.0013869243
-0.0026727155
-0.0035231563
-0.0041324763
-0.0046292726
-0.0050397112
-0.0053886394
-0.0057003833
-0.0059916101
-0.0062717299
-0.0065439207
-0.0068058173
-0.0070500055
-0.0072646456
-0.007434175
-0.0075399853
-0.0075613324
-0.0074765375
-0.0072644107
-0.0069059401
-0.0063863164
-0.0056972197
-0.0048390761
-0.0038233794
-0.0026743802
-0.0014301861
-0.00014267804
0.0011241055
0.0022974072
0.0033010779
0.0040625119
0.0045205272
0.0046331545
0.0043838212
0.003783964
0.0028724322
0.0017190529
0.00041484539
-0.001054804
-0.00280075
-0.0027477343
-0.0040790063
-0.0049614031
-0.005598058
-0.0061243114
-0.0065691522
-0.0069597961
-0.0073224894
-0.007675161
-0.0080278874
-0.0083839812
-0.0087406966
-0.0090896872
-0.0094175646
-0.0097064951
-0.0099347667
-0.010077597
-0.01010826
-0.0099995068
-0.0097253519
-0.0092633196
-0.0085971139
-0.0077194774
-0.0066352807
-0.0053641387
-0.0039425787
-0.00242499
-0.00088285411
0.0005982747
0.0019243383
0.0030008324
0.003742759
0.0040853084
0.0039932981
0.003466617
0.0025415189
0.0012959183
-0.00016258238
-0.0018485974
-0.0038898541
-0.0043687986
-0.0057354243
-0.0066444384
-0.0073061711
-0.0078616421
-0.0083425711
-0.0087785269
-0.0091977047
-0.0096194078
-0.010054555
-0.010506811
-0.010973282
-0.011444917
-0.01190697
-0.012339449
-0.012717526
-0.013012196
-0.013191267
-0.013220707
-0.013066477
-0.012696937
-0.012085864
-0.011216078
-0.010082993
-0.008698693
-0.0070952553
-0.0053271052
-0.0034715606
-0.0016267556
9.3706498e-05
0.001569634
0.002686329
0.0033486912
0.0034949351
0.0031062081
0.0022111508
0.00089413096
-0.00071892946
-0.002642264
-0.0050223113
-0.0062557509
-0.0076475541
-0.0085778168
-0.0092622184
-0.0098462974
-0.0103644
-0.01084847
-0.01132875
-0.011826118
-0.012352606
-0.01291255
-0.013503246
-0.014115275
-0.014732842
-0.015334031
-0.015891025
-0.016370555
-0.016734685
-0.016942028
-0.01694953
-0.016714995
-0.016200387
-0.015375919
-0.014224717
-0.012747825
-0.010969175
-0.0089396704
-0.0067395743
-0.0044780309
-0.0022886635
-0.00032046783
0.0012761427
0.0023671925
0.002854197
0.0026896339
0.001886769
0.00053277603
-0.0012271795
-0.003406664
-0.0061724663
-0.0084104518
-0.0098177086
-0.010763998
-0.011468402
-0.012079769
-0.012634975
-0.013168426
-0.013712608
-0.014290285
-0.01491499
-0.015592157
-0.016319719
-0.017088339
-0.017881589
-0.018675995
-0.019441018
-0.020139246
-0.020726919
-0.021154924
-0.021370461
-0.021319572
-0.020950613
-0.020218765
-0.019091936
-0.017556096
-0.015622693
-0.0133345
-0.010770377
-0.0080471755
-0.0053172365
-0.0027600369
-0.00056708214
0.001079617
0.0020328098
0.0022032401
0.0015774418
0.00023871432
-0.0016492376
-0.0040994818
-0.0073005294
-0.010830868
-0.012245007
-0.013202484
-0.013923817
-0.014559985
-0.015150336
-0.015731935
-0.016339855
-0.016999203
-0.017725536
-0.018525938
-0.019399536
-0.020337614
-0.021323639
-0.022333048
-0.023332982
-0.024282175
-0.025131164
-0.025823
-0.026294698
-0.026479667
-0.026311189
-0.025727112
-0.024678016
-0.023130065
-0.021077638
-0.018549931
-0.015618621
-0.012402986
-0.0090704338
-0.0058302763
-0.0029187787
-0.00057472852
0.00099241112
0.0016353672
0.0012981767
4.9295772e-05
-0.0019325732
-0.0046612958
-0.0083482594
-0.013511226
-0.01492575
-0.015890251
-0.016624829
-0.017281548
-0.017902265
-0.018527081
-0.019194212
-0.019931774
-0.020758037
-0.021682425
-0.022705911
-0.023821031
-0.025011731
-0.026252913
-0.027509891
-0.028737971
-0.029882304
-0.030878258
-0.031652572
-0.032125582
-0.032214804
-0.03184006
-0.030928316
-0.029426147
-0.027305278
-0.024575154
-0.021293335
-0.017574296
-0.013594157
-0.0095882554
-0.0058383126
-0.0026467674
-0.00029891702
0.00098092922
0.0010736131
1.6104596e-05
-0.0020059219
-0.0050106762
-0.0092336088
-0.016442524
-0.017854184
-0.018822583
-0.019565824
-0.020236303
-0.020878609
-0.021536552
-0.022252367
-0.023058121
-0.023975712
-0.025017735
-0.02618776
-0.027480245
-0.028880227
-0.030362639
-0.031891507
-0.033419203
-0.034885948
-0.036219802
-0.03733748
-0.038146271
-0.038547369
-0.038440821
-0.037731912
-0.036341319
-0.034214666
-0.031336044
-0.027741438
-0.023531777
-0.018882877
-0.014048596
-0.0093526105
-0.0051642409
-0.0018565352
0.00024871073
0.00094361301
0.00021007903
-0.0017738062
-0.0050381105
-0.0098441566
-0.019613466
-0.02102376
-0.021994391
-0.022740391
-0.023414263
-0.024063907
-0.024737974
-0.025484071
-0.026339549
-0.027331114
-0.028475533
-0.029779788
-0.031240939
-0.032845684
-0.034569496
-0.036375595
-0.038213909
-0.040020225
-0.041715818
-0.043207896
-0.044391149
-0.045150744
-0.045366982
-0.044921955
-0.043709798
-0.041646469
-0.038685737
-0.034834853
-0.03017178
-0.024860951
-0.019163568
-0.013436729
-0.0081144312
-0.0036652517
-0.00052806824
0.00097127592
0.00072838321
-0.0011096076
-0.0045985359
-0.010029155
-0.023011943
-0.024429031
-0.025402141
-0.026143008
-0.026804921
-0.027440293
-0.028104475
-0.028852488
-0.029728813
-0.030766486
-0.031987611
-0.033403439
-0.035014248
-0.036808844
-0.038763599
-0.040841256
-0.042989655
-0.04514058
-0.047209056
-0.049093429
-0.050676529
-0.051828257
-0.052409866
-0.05228032
-0.051307082
-0.049374652
-0.046403037
-0.042364832
-0.037306107
-0.03136795
-0.024804872
-0.017993782
-0.0114244
-0.0056618806
-0.0012777325
0.001253773
0.0017033899
0.00015308598
-0.0035022501
-0.0095900438
-0.02662725
-0.028068421
-0.029046576
-0.029771316
-0.030398936
-0.030988616
-0.031605389
-0.032314687
-0.033170644
-0.034214528
-0.035475097
-0.036968698
-0.038699296
-0.040658027
-0.042822253
-0.0451543
-0.047600023
-0.050087425
-0.052525682
-0.054804894
-0.056796876
-0.058357325
-0.059329823
-0.05955202
-0.058862676
-0.057117596
-0.054200909
-0.05004654
-0.044661485
-0.038152243
-0.030751374
-0.022837959
-0.014941475
-0.0077158818
-0.0018731766
0.0019361033
0.0033140525
0.0022311341
-0.0015039373
-0.0082692672
-0.030453334
-0.031948208
-0.032936471
-0.033629095
-0.034190175
-0.034689693
-0.035206984
-0.035822192
-0.036602435
-0.037599514
-0.038850223
-0.040376697
-0.042186768
-0.044273768
-0.046615754
-0.049174302
-0.05189301
-0.054695982
-0.05748666
-0.060147309
-0.062539481
-0.064505784
-0.065873388
-0.066459585
-0.066079353
-0.064558146
-0.061745417
-0.057535278
-0.051891268
-0.044876465
-0.03668718
-0.02768518
-0.018417954
-0.0096108977
-0.002113402
0.0032273583
0.0057998005
0.0054048155
0.0017106028
-0.0057370714
-0.034493612
-0.03608831
-0.037093845
-0.03773009
-0.038178096
-0.038525538
-0.038873041
-0.039321418
-0.03995499
-0.040838677
-0.042018589
-0.043522996
-0.045363313
-0.047534415
-0.050014233
-0.052762748
-0.055720552
-0.058807291
-0.061920381
-0.06493431
-0.067700824
-0.070050359
-0.07179508
-0.072733868
-0.072659618
-0.071370513
-0.06868328
-0.064453336
-0.058599621
-0.05113664
-0.042213348
-0.032155795
-0.021504724
-0.011031197
-0.0017061981
0.0054183718
0.0094768311
0.010033534
0.0065407527
-0.0015755311
-0.038768385
-0.040530896
-0.041561281
-0.042102936
-0.042370388
-0.042480397
-0.042565098
-0.042753862
-0.043153214
-0.043843774
-0.044881804
-0.046301399
-0.048116547
-0.050322301
-0.052894976
-0.055791507
-0.058948182
-0.062279114
-0.065674945
-0.069001989
-0.072102209
-0.074794365
-0.076876653
-0.078131205
-0.078330851
-0.077249268
-0.074673695
-0.070423737
-0.064375519
-0.056493941
-0.046874238
-0.035792331
-0.023758249
-0.011557805
-0.00025581805
0.0088985978
0.014756311
0.016574833
0.013491713
0.004741774
-0.043326765
-0.045353576
-0.046412373
-0.046797444
-0.046785731
-0.046541293
-0.046242085
-0.046055871
-0.046116681
-0.046522805
-0.047340473
-0.04860818
-0.050340418
-0.052530116
-0.055149684
-0.058150883
-0.061463832
-0.064995523
-0.068628608
-0.072220375
-0.075602553
-0.078582207
-0.080944039
-0.082454509
-0.082868161
-0.081935912
-0.079419251
-0.075105499
-0.068831611
-0.060515259
-0.050196647
-0.038093002
-0.024664155
-0.010679268
0.0027392861
0.014168694
0.022163313
0.025607533
0.023201861
0.013877967
-0.048266918
-0.050690243
-0.051766847
-0.051892576
-0.051456411
-0.050697697
-0.049859107
-0.04915788
-0.048760065
-0.048781882
-0.049297473
-0.050346563
-0.051940628
-0.054067012
-0.056691029
-0.059756425
-0.063184904
-0.066874071
-0.070697131
-0.0745011
-0.078106602
-0.081308519
-0.083877948
-0.085565905
-0.086109188
-0.085238618
-0.082691038
-0.07822493
-0.071642233
-0.062817238
-0.051737656
-0.03855924
-0.023678856
-0.0078216508
0.0078724395
0.021843375
0.032354048
0.037860127
0.036481088
0.026676332
-0.053772106
-0.056764777
-0.057812504
-0.057506182
-0.056430109
-0.054939658
-0.053364892
-0.051982871
-0.050993271
-0.050527099
-0.050661268
-0.051431082
-0.052839612
-0.054863824
-0.057457798
-0.060553714
-0.0640628
-0.067869784
-0.071837308
-0.075800586
-0.079567984
-0.082921354
-0.085617632
-0.087392139
-0.087963979
-0.087043928
-0.084345341
-0.079599414
-0.072576158
-0.063108876
-0.051136749
-0.036754325
-0.020289371
-0.0024013079
0.015791601
0.032636858
0.046126778
0.054245295
0.054366963
0.044234323
-0.060177669
-0.063946541
-0.064836573
-0.063805706
-0.061769162
-0.059252853
-0.056696818
-0.054443231
-0.052720576
-0.051665666
-0.051348475
-0.051790958
-0.05298019
-0.05487654
-0.057418045
-0.06052163
-0.06408316
-0.067975177
-0.072046188
-0.076118398
-0.079986917
-0.08341972
-0.086158855
-0.087923282
-0.088413807
-0.08732053
-0.084332718
-0.079154184
-0.071521505
-0.061229861
-0.048169136
-0.032371431
-0.014092895
0.0060978837
0.027131793
0.047320049
0.064417591
0.075899431
0.078208091
0.068037487
-0.068100665
-0.072842345
-0.073268384
-0.071016727
-0.06754345
-0.063607282
-0.059770871
-0.056433823
-0.053836833
-0.052104535
-0.051284029
-0.05137098
-0.052326563
-0.054086869
-0.05656836
-0.0596687
-0.0632662
-0.06721789
-0.071357399
-0.075492819
-0.079405245
-0.082848224
-0.085548441
-0.087207968
-0.087508654
-0.086119091
-0.082701844
-0.076931922
-0.068509522
-0.057186249
-0.042797649
-0.025311011
-0.0048965928
0.018014176
0.04240046
0.066628349
0.08826011
0.10421791
0.10979074
0.10021624
-0.078703539
-0.084446806
-0.083727064
-0.079417035
-0.073805898
-0.06793071
-0.062459336
-0.057815322
-0.054215763
-0.05174237
-0.05039551
-0.050127191
-0.050860127
-0.052498065
-0.054930041
-0.058030726
-0.061658761
-0.06565402
-0.069834666
-0.073994373
-0.07790022
-0.081291518
-0.083879853
-0.085350596
-0.08536664
-0.083574802
-0.079607062
-0.07310823
-0.06373601
-0.051189148
-0.035236038
-0.015755692
0.0072006187
0.033313098
0.061781767
0.091071021
0.11865037
0.14084774
0.15153507
0.14405104
-0.094254828
-0.10037809
-0.097032494
-0.089269041
-0.080512165
-0.072036257
-0.064531802
-0.058368504
-0.05367527
-0.050443207
-0.048592537
-0.048009834
-0.048565505
-0.050122257
-0.05253689
-0.055658507
-0.059325023
-0.063359031
-0.067563723
-0.071719244
-0.075579825
-0.078871904
-0.081293426
-0.082514509
-0.082180088
-0.079914881
-0.075323318
-0.068013102
-0.057594018
-0.043700158
-0.026012572
-0.0042913217
0.021574027
0.051474217
0.084892936
0.12058731
0.15620984
0.18753351
0.2067308
0.2048005
-0.1192813
-0.12321951
-0.11409975
-0.10061728
-0.087324757
-0.075457822
-0.065526988
-0.057699174
-0.05190917
-0.047987188
-0.045731164
-0.044936881
-0.045408992
-0.046962689
-0.049420203
-0.052605055
-0.056335707
-0.06041942
-0.064646744
-0.068786847
-0.072583844
-0.075754195
-0.077985246
-0.078935026
-0.078233446
-0.075484405
-0.070270908
-0.062158729
-0.050706551
-0.035472965
-0.016028915
0.0080247764
0.037027418
0.071194434
0.11046445
0.15419826
0.20065275
0.24567086
0.27952337
0.2904732
-0.16279107
-0.15680351
-0.13570804
-0.11304779
-0.093392931
-0.077283658
-0.06465494
-0.055197775
-0.048484426
-0.044090727
-0.041643639
-0.04082638
-0.041370381
-0.043043244
-0.04563596
-0.048951104
-0.052792635
-0.056957338
-0.061227771
-0.065366605
-0.069112239
-0.072175588
-0.074238012
-0.07495051
-0.073933625
-0.070774702
-0.065038412
-0.056255505
-0.043934267
-0.027553638
-0.0065588101
0.019646284
0.051707541
0.090312381
0.13611869
0.18958763
0.25045098
0.31537834
0.37419922
0.41323737
-0.24487582
-0.20488118
-0.16087857
-0.12462489
-0.096652939
-0.075764743
-0.060642206
-0.050025865
-0.042891625
-0.03847262
-0.036200177
-0.035646139
-0.036479837
-0.038435022
-0.041284519
-0.044821289
-0.048844329
-0.053147982
-0.057513729
-0.06170387
-0.065456694
-0.068482933
-0.070463323
-0.071047426
-0.069852398
-0.066458945
-0.060422353
-0.051246139
-0.038399493
-0.021293631
0.00074324455
0.028508247
0.062994905
0.10549526
0.15771717
0.22192302
0.30061846
0.39326656
0.4940135
0.60093274
-0.42407799
-0.26429207
-0.17597917
-0.12376686
-0.088682629
-0.065066061
-0.049575251
-0.039576293
-0.033353678
-0.029869528
-0.028457844
-0.028659506
-0.030141377
-0.032646568
-0.035960732
-0.039889563
-0.044243544
-0.0488271
-0.053430572
-0.057824153
-0.061753312
-0.064935379
-0.067056897
-0.06777091
-0.066689743
-0.063425059
-0.057507185
-0.048438408
-0.035672622
-0.018588613
0.0035479193
0.031654775
0.06696523
0.11127092
0.16736136
0.23981649
0.3358005
0.46362638
0.6407578
0.91855184
-0.79181377
-0.32290652
-0.1476556
-0.086772676
-0.054862056
-0.035958106
-0.025389927
-0.019691876
-0.016873746
-0.016002246
-0.016597224
-0.018358332
-0.021072667
-0.024572188
-0.028707673
-0.033332798
-0.03829412
-0.043424007
-0.048535196
-0.053416456
-0.057829177
-0.061504778
-0.064143056
-0.065412295
-0.064953189
-0.06233539
-0.05713774
-0.048875959
-0.03701372
-0.020946744
3.4448036e-05
0.026812818
0.060579183
0.10311328
0.15742311
0.22935625
0.33160357
0.49181205
0.78772433
1.3814749
1.440877e-05
-0.00011532292
-0.00038426689
-0.00072631014
-0.0010705408
-0.0013816146
-0.0016324618
-0.0018067934
-0.0018956793
-0.0018945903
-0.001801568
-0.0016161106
-0.0013386784
-0.00097051758
-0.0005138445
2.7719825e-05
0.00064868606
0.0013412154
0.0020946431
0.0028951396
0.0037256236
0.0045659496
0.0053933403
0.0061831547
0.0069099685
0.0075489496
0.0080774308
0.0084765472
0.0087328065
0.0088394692
0.0087976146
0.0086167954
0.0083152575
0.0079198804
0.0074655774
0.0069910687
0.0065485481
0.0061867785
0.0059638621
0.0059165284
0.00014370617
1.2035352e-05
-0.00020239986
-0.00046048066
-0.00072214536
-0.0009579945
-0.0011468877
-0.0012748289
-0.0013330089
-0.0013161648
-0.0012214238
-0.0010474452
-0.00079402188
-0.00046194923
-5.3117844e-05
0.00042920011
0.00097999658
0.0015921549
0.0022561075
0.0029596043
0.0036876625
0.0044228223
0.0051454
0.0058342849
0.0064678517
0.0070251481
0.0074872401
0.0078386034
0.0080684448
0.0081718468
0.0081506186
0.0080137647
0.0077775201
0.0074649874
0.0071053143
0.0067320917
0.006382884
0.0060956973
0.0059127593
0.0058684764
0.00041773164
0.00022313073
4.1133859e-06
-0.00022763329
-0.00045325747
-0.00065122331
-0.00080586699
-0.00090662195
-0.00094643071
-0.00092075852
-0.00082686077
-0.00066324168
-0.00042938003
-0.00012563432
0.00024662758
0.00068474051
0.0011844305
0.0017394967
0.0023415019
0.0029795493
0.003640245
0.0043078243
0.0049645388
0.0055912688
0.0061683905
0.0066768721
0.0070995209
0.0074222785
0.0076354498
0.0077347503
0.0077220583
0.0076057711
0.007400711
0.0071275806
0.0068119643
0.0064829494
0.0061715997
0.0059091013
0.0057260094
0.0056503041
0.00077467171
0.00048089649
0.00022341281
-1.3976087e-05
-0.00023138379
-0.00041414905
-0.00055185265
-0.00063796843
-0.00066800625
-0.00063894306
-0.00054880527
-0.00039632136
-0.00018080903
9.7801475e-05
0.00043877046
0.00084023647
0.0012988837
0.0018095978
0.0023651265
0.0029558258
0.0035695769
0.0041918524
0.0048060872
0.0053942194
0.0059375158
0.0064176355
0.0068178604
0.0071243881
0.0073275652
0.0074229294
0.0074119362
0.0073022621
0.007107624
0.0068470993
0.0065439641
0.006224206
0.0059151996
0.0056439973
0.0054324393
0.0052933263
0.0011457293
0.00074352998
0.00043319092
0.00017492317
-4.8601733e-05
-0.00022866082
-0.00035970011
-0.00043930285
-0.00046581412
-0.000437992
-0.00035485168
-0.00021549677
-1.915038e-05
0.0002347116
0.00054608294
0.00091405879
0.0013364422
0.0018093357
0.0023267436
0.0028802542
0.0034588833
0.0040491102
0.004635135
0.0051994034
0.0057234008
0.0061887122
0.0065782816
0.0068777567
0.0070767853
0.0071701173
0.0071583665
0.0070483108
0.0068526645
0.0065892968
0.0062799154
0.0059484557
0.0056200764
0.0053194912
0.005059381
0.0048382861
0.0014896585
0.00097514917
0.0006043746
0.00031557311
7.5891161e-05
-0.00011098246
-0.00024387742
-0.00032426299
-0.00035326653
-0.0003314602
-0.00025889682
-0.00013509182
4.0836437e-05
0.00026992731
0.00055301153
0.00089026916
0.0012807516
0.0017218855
0.0022089942
0.0027348954
0.0032896511
0.0038605295
0.0044321608
0.0049870403
0.0055062932
0.0059707539
0.0063622842
0.0066652158
0.0068677636
0.0069632499
0.0069509656
0.0068365347
0.0066316889
0.0063534317
0.0060225858
0.0056620613
0.0052962345
0.004949211
0.0046258918
0.0043116908
0.0017691489
0.00114395
0.00070980529
0.00038486677
0.00012233489
-7.8357325e-05
-0.00021993048
-0.00030740628
-0.00034449439
-0.00033346477
-0.00027533683
-0.00016997486
-1.6317073e-05
0.00018728816
0.00044262503
0.00075108732
0.0011131057
0.00152755
0.0019911524
0.0024979985
0.0030391609
0.0036025689
0.004173041
0.0047327635
0.0052620161
0.0057402793
0.0061476341
0.0064663327
0.0066823846
0.0067869659
0.006777458
0.0066579507
0.0064390952
0.0061372681
0.0057730153
0.0053692037
0.0049507984
0.0045429853
0.0041447309
0.0037299693
0.0019532988
0.001221796
0.0007243863
0.00036078726
7.148602e-05
-0.00014779315
-0.00030324237
-0.00040308529
-0.00045334857
-0.00045780361
-0.00041828239
-0.00033486479
-0.00020618144
-2.9838506e-05
0.00019704016
0.00047721153
0.00081264265
0.0012038037
0.0016489812
0.0021436412
0.0026799197
0.0032464116
0.0038279954
0.0044063176
0.0049604371
0.0054679558
0.0059065077
0.0062554862
0.006497849
0.0066217848
0.0066220211
0.0065005592
0.0062666999
0.0059362828
0.0055300669
0.0050717669
0.004588212
0.0041072554
0.0036235958
0.0031011012
0.0020155484
0.00118331
0.00062449273
0.00022165547
-9.6484255e-05
-0.00033757485
-0.00051095355
-0.00062772435
-0.00069596017
-0.00072070747
-0.00070441741
-0.00064721511
-0.00054726481
-0.00040127348
-0.00020510842
4.5530144e-05
0.00035434354
0.0007236165
0.0011534117
0.0016407778
0.0021790678
0.0027578191
0.0033618571
0.0039722209
0.0045664985
0.0051199664
0.0056071652
0.006003801
0.0062888162
0.0064463934
0.0064676374
0.0063516672
0.0061059318
0.0057456269
0.0052920628
0.0047705898
0.0042111037
0.0036456424
0.0030659602
0.0024266978
0.0019320111
0.0010052151
0.00038786961
-5.3598524e-05
-0.00040150623
-0.00066667541
-0.00086134742
-0.000999237
-0.0010902158
-0.0011403847
-0.0011526157
-0.0011268979
-0.0010607577
-0.00094982971
-0.00078853715
-0.00057082396
-0.00029100673
5.529758e-05
0.00047024013
0.00095277461
0.0014977247
0.002096256
0.0027329531
0.0033884108
0.0040386528
0.0046562791
0.0052121158
0.0056772925
0.0060256205
0.0062360225
0.0062947149
0.0061968125
0.0059470959
0.00555974
0.0050567413
0.0044657418
0.0038208547
0.0031598005
0.002472347
0.0017040902
0.0016806829
0.00066599189
-6.3698846e-06
-0.00048514958
-0.00086309657
-0.0011540897
-0.0013731026
-0.0015362443
-0.0016549772
-0.0017362623
-0.0017832118
-0.0017955103
-0.0017698793
-0.0017007053
-0.0015807656
-0.0014020033
-0.0011564521
-0.00083726742
-0.00043978034
3.7484153e-05
0.00059185157
0.0012144071
0.0018921128
0.0026049149
0.0033272242
0.0040287432
0.004676018
0.0052346643
0.0056720808
0.005960394
0.0060792887
0.0060183203
0.0057783493
0.0053717685
0.0048211094
0.0041567861
0.0034182355
0.0026503969
0.0018416893
0.00092821328
0.0012411291
0.00014572181
-0.00057768417
-0.001092052
-0.0014999824
-0.0018183451
-0.0020647256
-0.0022574591
-0.0024094342
-0.002528318
-0.0026173187
-0.0026756771
-0.0026991681
-0.0026807669
-0.0026114016
-0.0024807507
-0.0022782201
-0.0019940588
-0.0016205337
-0.0011531435
-0.0005918775
5.7273727e-05
0.00078211253
0.0015630164
0.0023732471
0.0031796108
0.0039439335
0.0046253815
0.0051835098
0.0055818004
0.0057913067
0.0057939135
0.0055847213
0.005173042
0.0045813727
0.0038431279
0.0030041201
0.0021181423
0.0011726622
9.3284132e-05
0.00059451271
-0.00057383299
-0.0013439353
-0.0018919539
-0.0023297042
-0.0026770061
-0.0029539713
-0.0031810325
-0.0033723861
-0.0035363003
-0.0036759853
-0.003790147
-0.0038735125
-0.0039175143
-0.0039110439
-0.0038412468
-0.0036945232
-0.003457704
-0.0031193309
-0.0026710531
-0.0021091534
-0.0014361363
-0.00066187595
0.00019524889
0.0011080144
0.0020406372
0.0029500132
0.0037880177
0.00450484
0.0050531651
0.0053927983
0.0054951563
0.0053469679
0.0049524174
0.0043327889
0.0035243418
0.0025802185
0.0015648463
0.00046500051
-0.00080566161
-0.00027619367
-0.001509016
-0.0023211477
-0.00290077
-0.0033681898
-0.0037461417
-0.0040571986
-0.0043237968
-0.0045613696
-0.0047787396
-0.0049790868
-0.0051605546
-0.0053167794
-0.0054375704
-0.0055096337
-0.0055173322
-0.0054436757
-0.0052715245
-0.00498495
-0.0045707953
-0.0040204627
-0.0033318243
-0.0025109142
-0.0015735598
-0.00054633978
0.00053312888
0.0016169839
0.002649212
0.0035691503
0.0043162992
0.0048360661
0.0050857999
0.0050402659
0.0046954635
0.0040694076
0.0032004508
0.0021498192
0.00099451804
-0.00027915184
-0.0017712627
-0.0013858342
-0.0026739751
-0.0035231918
-0.0041323067
-0.0046292927
-0.0050397521
-0.0053886685
-0.0057004209
-0.0059916619
-0.0062717876
-0.0065439892
-0.0068058947
-0.0070500841
-0.0072647342
-0.0074342787
-0.0075400978
-0.0075614524
-0.0074766739
-0.0072645681
-0.0069061139
-0.0063865017
-0.005697419
-0.0048392976
-0.0038236268
-0.0026746506
-0.001430472
-0.00014297253
0.001123807
0.0022971066
0.0033007777
0.0040622167
0.0045202407
0.0046328768
0.0043835566
0.0037837323
0.0028721846
0.0017185764
0.00041455891
-0.0010537823
-0.0028022373
-0.0027466112
-0.0040803148
-0.0049614419
-0.0055978815
-0.0061243299
-0.0065691908
-0.0069598208
-0.0073225199
-0.007675203
-0.0080279319
-0.0083840338
-0.0087407564
-0.0090897483
-0.0094176356
-0.0097065816