/*--------------------------------*- C++ -*----------------------------------*\
  =========                 |
  \\      /  F ield         | OpenFOAM: The Open Source CFD Toolbox
   \\    /   O peration     | Website:  https://openfoam.org
    \\  /    A nd           | Version:  7
     \\/     M anipulation  |
\*---------------------------------------------------------------------------*/
FoamFile
{
    version     2.0;
    format      ascii;
    class       surfaceScalarField;
    location    "5";
    object      phi;
}
// * * * * * * * * * * * * * * * * * * * * * * * * * * * * * * * * * * * * * //

dimensions      [0 3 -1 0 0 0 0];

internalField   nonuniform List<scalar> 
45600
(
2.3195027e-07
-2.3443648e-07
-3.0184818e-10
3.1029879e-07
-7.8185213e-08
-1.8537848e-10
3.2604624e-08
2.7782503e-07
-1.193553e-10
-6.1350415e-07
6.4618503e-07
-8.0327693e-11
-1.5908752e-06
9.7742149e-07
-5.2375212e-11
-2.83616e-06
1.2453184e-06
-3.2010127e-11
-4.2836509e-06
1.4475082e-06
-1.7469082e-11
-5.8734676e-06
1.5898199e-06
-6.7934413e-12
-7.5533457e-06
1.679883e-06
1.114618e-12
-9.2780962e-06
1.7247453e-06
6.8767241e-12
-1.1008045e-05
1.7299343e-06
1.0612839e-11
-1.2707209e-05
1.6991576e-06
1.3095281e-11
-1.4341642e-05
1.6344192e-06
1.4747287e-11
-1.5878051e-05
1.5363875e-06
1.5413019e-11
-1.7282936e-05
1.4048715e-06
1.5331667e-11
-1.8522313e-05
1.2393689e-06
1.4817369e-11
-1.9561979e-05
1.0396529e-06
1.3802984e-11
-2.0368333e-05
8.0633607e-07
1.2205824e-11
-2.0909711e-05
5.4136693e-07
1.0273374e-11
-2.1158157e-05
2.4844305e-07
8.2699246e-12
-2.1091468e-05
-6.6690132e-08
6.1353053e-12
-2.0695335e-05
-3.9613677e-07
3.7274913e-12
-1.996552e-05
-7.2981845e-07
1.0753707e-12
-1.8909723e-05
-1.0557986e-06
-1.5826738e-12
-1.7548979e-05
-1.3607399e-06
-3.9614581e-12
-1.5918389e-05
-1.6305836e-06
-5.9233709e-12
-1.4066972e-05
-1.8514101e-06
-7.4941921e-12
-1.2056553e-05
-2.0104134e-06
-8.7069519e-12
-9.959637e-06
-2.0969125e-06
-9.4930928e-12
-7.8563309e-06
-2.1033019e-06
-9.7116221e-12
-5.8304795e-06
-2.0258463e-06
-9.2454313e-12
-3.9652281e-06
-1.8652462e-06
-8.0511688e-12
-2.3382805e-06
-1.6269427e-06
-6.1464368e-12
-1.0170341e-06
-1.3212429e-06
-3.5153832e-12
-5.2978703e-08
-9.6405465e-07
-3.7791215e-13
5.2748464e-07
-5.8046387e-07
1.5652001e-12
7.2515439e-07
-1.976733e-07
4.5813035e-12
5.8982282e-07
1.3532437e-07
7.9152404e-12
2.5648676e-07
3.3332464e-07
1.1590106e-11
2.5648055e-07
6.0300675e-12
8.4305432e-08
-3.1857967e-07
-1.8422381e-10
-3.5626677e-07
3.6255108e-07
-1.5301341e-10
-1.5769681e-06
1.4986206e-06
-1.1400739e-10
-3.6240283e-06
2.6933391e-06
-8.6912253e-11
-6.425572e-06
3.779039e-06
-6.6780192e-11
-9.8629522e-06
4.6827418e-06
-5.1928795e-11
-1.3799078e-05
5.383676e-06
-4.085544e-11
-1.8097063e-05
5.8878323e-06
-3.2308182e-11
-2.2628588e-05
6.2114313e-06
-2.5982237e-11
-2.7276169e-05
6.3723533e-06
-2.1062748e-11
-3.1932206e-05
6.3859826e-06
-1.7298838e-11
-3.6496557e-05
6.2635159e-06
-1.427672e-11
-4.0873889e-05
6.0117608e-06
-1.1542792e-11
-4.4971401e-05
5.6339107e-06
-9.1002268e-12
-4.8697443e-05
5.1309201e-06
-6.9175247e-12
-5.1961268e-05
4.5031935e-06
-4.8068169e-12
-5.4674004e-05
3.7523869e-06
-2.6131324e-12
-5.6750833e-05
2.8831653e-06
-2.7293977e-13
-5.8114248e-05
1.904784e-06
2.2977466e-12
-5.8698157e-05
8.3235327e-07
5.1283869e-12
-5.8452711e-05
-3.121418e-07
8.0348262e-12
-5.7348807e-05
-1.5000527e-06
1.0899006e-11
-5.5383171e-05
-2.695468e-06
1.3661827e-11
-5.2582055e-05
-3.8569271e-06
1.6368555e-11
-4.9004082e-05
-4.9387277e-06
1.8997623e-11
-4.4741417e-05
-5.8932669e-06
2.1395826e-11
-3.9918984e-05
-6.6738667e-06
2.3336955e-11
-3.469147e-05
-7.2379539e-06
2.4615053e-11
-2.9238059e-05
-7.5503527e-06
2.514664e-11
-2.3754978e-05
-7.5864107e-06
2.4964281e-11
-1.8446158e-05
-7.3346907e-06
2.4130253e-11
-1.3512392e-05
-6.7990343e-06
2.2694103e-11
-9.1393986e-06
-5.9999561e-06
2.0707273e-11
-5.4850129e-06
-4.9756478e-06
1.8258337e-11
-2.6655517e-06
-3.7835339e-06
1.5415818e-11
-7.4300252e-07
-2.5030286e-06
1.2172693e-11
2.9966312e-07
-1.2403495e-06
9.0017103e-12
5.7947009e-07
-1.4448925e-07
7.0106065e-12
3.3639527e-07
5.7639333e-07
7.4667737e-12
5.928741e-07
1.7159921e-12
-2.7749827e-07
-4.0944341e-08
-1.2589009e-10
-1.5273873e-06
1.6125367e-06
-1.0925121e-10
-3.9271683e-06
3.8984889e-06
-8.8439773e-11
-7.4778667e-06
6.2441094e-06
-6.7953066e-11
-1.2077537e-05
8.3787623e-06
-5.0253399e-11
-1.7566833e-05
1.0172067e-05
-3.6184836e-11
-2.3761205e-05
1.1578073e-05
-2.5078655e-11
-3.0471213e-05
1.2597867e-05
-1.6277262e-11
-3.7513487e-05
1.3253718e-05
-9.7690283e-12
-4.471501e-05
1.3573874e-05
-5.0465929e-12
-5.1913336e-05
1.3584308e-05
-1.6120195e-12
-5.8954721e-05
1.3304908e-05
1.1249048e-12
-6.5691599e-05
1.2748639e-05
3.2304505e-12
-7.1980367e-05
1.192267e-05
4.5400353e-12
-7.7680207e-05
1.0830752e-05
5.2899621e-12
-8.2653313e-05
9.476295e-06
5.8505719e-12
-8.6766665e-05
7.8657358e-06
6.333719e-12
-8.9895347e-05
6.0118428e-06
6.65473e-12
-9.1927234e-05
3.9366655e-06
6.8178592e-12
-9.2768776e-05
1.6738914e-06
6.923028e-12
-9.2351358e-05
-7.295656e-07
6.9902096e-12
-9.0637915e-05
-3.2135017e-06
6.9773924e-12
-8.7629073e-05
-5.7043173e-06
6.8831009e-12
-8.3368259e-05
-8.1177477e-06
6.7890299e-12
-7.7945183e-05
-1.036181e-05
6.7745628e-12
-7.1497112e-05
-1.2341346e-05
6.8228865e-12
-6.4207472e-05
-1.3963518e-05
6.8443955e-12
-5.630145e-05
-1.5143988e-05
6.7719994e-12
-4.8038489e-05
-1.5813326e-05
6.6255486e-12
-3.9701749e-05
-1.5923161e-05
6.4775528e-12
-3.1584869e-05
-1.545158e-05
6.3957522e-12
-2.3976509e-05
-1.4407401e-05
6.4155116e-12
-1.7143259e-05
-1.2833213e-05
6.5350074e-12
-1.1311438e-05
-1.0807473e-05
6.7073857e-12
-6.6483592e-06
-8.4466193e-06
6.8753545e-12
-3.2427263e-06
-5.9086692e-06
7.0173568e-12
-1.0829203e-06
-3.4001641e-06
7.0792705e-12
-3.6819972e-08
-1.1905979e-06
7.4449415e-12
1.7422464e-07
3.6534127e-07
8.002583e-12
7.6709342e-07
5.0194331e-12
-6.8247403e-07
6.4161139e-07
-8.9911273e-11
-2.8614737e-06
3.7916162e-06
-7.597689e-11
-6.552149e-06
7.5892378e-06
-6.7616546e-11
-1.1673294e-05
1.1365303e-05
-5.3909552e-11
-1.8068158e-05
1.4773657e-05
-3.9858418e-11
-2.5534079e-05
1.7638021e-05
-2.8283335e-11
-3.3846343e-05
1.9890361e-05
-1.8886946e-11
-4.2775084e-05
2.1526614e-05
-1.1478479e-11
-5.2095304e-05
2.2573942e-05
-5.8801507e-12
-6.159136e-05
2.3069932e-05
-1.5613132e-12
-7.1057645e-05
2.3050592e-05
1.6472144e-12
-8.0297187e-05
2.2544449e-05
4.0573105e-12
-8.9119545e-05
2.1570991e-05
5.7439043e-12
-9.7339038e-05
2.0142153e-05
6.7074096e-12
-0.00010477406
1.826577e-05
7.2145411e-12
-0.00011124796
1.5950186e-05
7.5547194e-12
-0.00011659157
1.3209344e-05
7.7660014e-12
-0.00012064753
1.0067791e-05
7.7274078e-12
-0.000123276
6.5651331e-06
7.4633024e-12
-0.00012436166
2.7595458e-06
7.1157904e-12
-0.00012382117
-1.2700523e-06
6.7507824e-12
-0.00012161106
-5.4236138e-06
6.3264893e-12
-0.00011773473
-9.5806566e-06
5.8247658e-12
-0.00011224841
-1.3604072e-05
5.294746e-12
-0.00010526518
-1.7345041e-05
4.8268503e-12
-9.6956386e-05
-2.0650142e-05
4.4603005e-12
-8.7549943e-05
-2.3369965e-05
4.1636107e-12
-7.7325112e-05
-2.5368824e-05
3.8945064e-12
-6.6603552e-05
-2.6534892e-05
3.6674289e-12
-5.5736679e-05
-2.6790041e-05
3.5458406e-12
-4.508965e-05
-2.6098614e-05
3.6012505e-12
-3.5022543e-05
-2.4474515e-05
3.8774214e-12
-2.5869471e-05
-2.1986292e-05
4.3488734e-12
-1.7916545e-05
-1.8760406e-05
4.9453661e-12
-1.1379631e-05
-1.4983539e-05
5.5752939e-12
-6.3826361e-06
-1.0905672e-05
6.242293e-12
-2.9366402e-06
-6.8461682e-06
7.0572095e-12
-9.2316353e-07
-3.2040834e-06
7.5171738e-12
-8.3495326e-08
-4.743349e-07
6.8300178e-12
6.8358949e-07
7.7535082e-12
-1.0904876e-06
1.7321686e-06
-6.8387407e-11
-4.2217569e-06
6.922942e-06
-4.9946433e-11
-9.2395018e-06
1.2607027e-05
-5.1160833e-11
-1.5951668e-05
1.8077513e-05
-4.2959557e-11
-2.4128753e-05
2.2950773e-05
-3.2122217e-11
-3.3516591e-05
2.7025884e-05
-2.3579515e-11
-4.3850054e-05
3.0223843e-05
-1.6632164e-11
-5.4863854e-05
3.2540422e-05
-1.0897465e-11
-6.6299278e-05
3.4009374e-05
-6.3650256e-12
-7.7907176e-05
3.4677835e-05
-2.7157826e-12
-8.944809e-05
3.4591508e-05
8.8463465e-14
-0.00010069081
3.3787171e-05
2.1785508e-12
-0.00011141051
3.2290682e-05
3.6432044e-12
-0.00012138732
3.0118958e-05
4.594783e-12
-0.00013040618
2.7284629e-05
5.2530171e-12
-0.00013825827
2.3802271e-05
5.7978503e-12
-0.00014474423
1.9695299e-05
6.2560346e-12
-0.0001496792
1.5002752e-05
6.5226382e-12
-0.00015289937
9.7853042e-06
6.6199639e-12
-0.00015426979
4.1299599e-06
6.6891212e-12
-0.00015369276
-1.8470808e-06
6.7881456e-12
-0.00015111646
-7.9999241e-06
6.8668632e-12
-0.0001465429
-1.4154219e-05
6.8619544e-12
-0.00014003468
-2.0112294e-05
6.7880795e-12
-0.00013171964
-2.5660087e-05
6.7194578e-12
-0.0001217928
-3.057699e-05
6.697744e-12
-0.0001105149
-3.4647874e-05
6.6959974e-12
-9.8207014e-05
-3.7676718e-05
6.669723e-12
-8.524091e-05
-3.9501005e-05
6.6016685e-12
-7.20251e-05
-4.0005859e-05
6.5193315e-12
-5.898685e-05
-3.9136872e-05
6.4829798e-12
-4.6550754e-05
-3.6910619e-05
6.5401971e-12
-3.5114832e-05
-3.3422222e-05
6.6889017e-12
-2.5025405e-05
-2.8849843e-05
6.8649782e-12
-1.6552218e-05
-2.3456736e-05
6.9815232e-12
-9.8653936e-06
-1.7592505e-05
7.1712524e-12
-5.0158477e-06
-1.1695723e-05
7.8530447e-12
-1.9222579e-06
-6.2976827e-06
7.5506413e-12
-3.6681346e-07
-2.0297861e-06
4.4688579e-12
3.167646e-07
9.8470235e-12
-1.4786917e-06
3.2109148e-06
-5.3652716e-11
-5.5464432e-06
1.0990724e-05
-2.9479985e-11
-1.1880822e-05
1.8941438e-05
-3.7400123e-11
-2.0169741e-05
2.6366463e-05
-3.2960631e-11
-3.0100132e-05
3.2881191e-05
-2.4180146e-11
-4.1359248e-05
3.828502e-05
-1.783863e-11
-5.3639093e-05
4.2503701e-05
-1.2765e-11
-6.6640527e-05
4.5541863e-05
-8.3174791e-12
-8.0075631e-05
4.7444483e-05
-4.6421122e-12
-9.3668035e-05
4.8270242e-05
-1.5955524e-12
-0.00010715161
4.8075087e-05
7.3919719e-13
-0.00012026836
4.6903918e-05
2.4522664e-12
-0.00013276632
4.4788632e-05
3.635969e-12
-0.00014439826
4.1750895e-05
4.4707895e-12
-0.0001549218
3.7808171e-05
5.1067136e-12
-0.00016410122
3.2981685e-05
5.6162263e-12
-0.00017171112
2.7305198e-05
6.0459563e-12
-0.00017754199
2.0833615e-05
6.3394634e-12
-0.0001814073
1.365061e-05
6.4967265e-12
-0.00018315192
5.8745749e-06
6.6200336e-12
-0.00018266127
-2.3377292e-06
6.7739736e-12
-0.00017987066
-1.0790547e-05
6.930474e-12
-0.00017477426
-1.9250621e-05
7.0009696e-12
-0.00016743286
-2.7453707e-05
6.975128e-12
-0.00015797958
-3.5113373e-05
6.9220377e-12
-0.00014662295
-4.1933627e-05
6.9059627e-12
-0.00013364633
-4.7624498e-05
6.9281807e-12
-0.00011940313
-5.1919917e-05
6.949485e-12
-0.00010430727
-5.4596874e-05
6.9339386e-12
-8.8818573e-05
-5.5494568e-05
6.8840435e-12
-7.3423392e-05
-5.4532061e-05
6.8521117e-12
-5.8610998e-05
-5.1723022e-05
6.8803049e-12
-4.4846865e-05
-4.7186364e-05
6.9832696e-12
-3.2544513e-05
-4.1152204e-05
7.1099403e-12
-2.2037893e-05
-3.3963365e-05
7.1463053e-12
-1.3556613e-05
-2.6073795e-05
7.3315365e-12
-7.2065105e-06
-1.8045837e-05
8.3685934e-12
-2.9587175e-06
-1.0545486e-05
7.6378329e-12
-6.502573e-07
-4.3382516e-06
2.0676199e-12
-3.3350691e-07
1.196818e-11
-1.8427319e-06
5.0536836e-06
-4.3554636e-11
-6.8109623e-06
1.5958963e-05
-1.3303241e-11
-1.4424817e-05
2.6555319e-05
-2.6264655e-11
-2.4251946e-05
3.6193618e-05
-2.4545034e-11
-3.5891464e-05
4.4520727e-05
-1.728984e-11
-4.8967946e-05
5.1361512e-05
-1.2648224e-11
-6.3128489e-05
5.6664253e-05
-8.982404e-12
-7.8040639e-05
6.0454016e-05
-5.5148402e-12
-9.3390084e-05
6.2793934e-05
-2.5450506e-12
-0.00010887777
6.3757929e-05
-1.0347941e-13
-0.00012421649
6.341381e-05
1.7476305e-12
-0.00013912754
6.1814966e-05
3.095224e-12
-0.00015333794
5.8999028e-05
4.0153397e-12
-0.00016657886
5.4991812e-05
4.7242421e-12
-0.00017858565
4.9814957e-05
5.3023062e-12
-0.00018909972
4.3495756e-05
5.7342309e-12
-0.00019787243
3.60779e-05
6.0901473e-12
-0.0002046708
2.7631986e-05
6.3616215e-12
-0.00020928504
1.8264839e-05
6.5260214e-12
-0.00021153731
8.1268476e-06
6.6386847e-12
-0.00021129163
-2.5834179e-06
6.7697026e-12
-0.00020846387
-1.361831e-05
6.9205546e-12
-0.00020303214
-2.468236e-05
6.987031e-12
-0.00019504576
-3.5440096e-05
6.9345329e-12
-0.00018463275
-4.5526387e-05
6.8301618e-12
-0.00017200467
-5.4561716e-05
6.7524841e-12
-0.0001574578
-6.2171369e-05
6.7344294e-12
-0.00014136988
-6.8007845e-05
6.7463828e-12
-0.00012419141
-7.1775354e-05
6.7436299e-12
-0.00010643119
-7.3254793e-05
6.7172455e-12
-8.8635984e-05
-7.2327278e-05
6.7020955e-12
-7.1364843e-05
-6.8994172e-05
6.7345187e-12
-5.5159446e-05
-6.339177e-05
6.8426042e-12
-4.0512359e-05
-5.5799299e-05
6.9898454e-12
-2.7835828e-05
-4.6639905e-05
7.0259172e-12
-1.7434038e-05
-3.6475596e-05
7.3066498e-12
-9.4820072e-06
-2.5997879e-05
8.8049763e-12
-4.0144954e-06
-1.6013009e-05
7.7127514e-12
-9.2815299e-07
-7.4245977e-06
-3.5009207e-13
-1.2616764e-06
1.410926e-11
-2.1835313e-06
7.237248e-06
-3.6714517e-11
-8.0080215e-06
2.1783459e-05
-4.7984213e-13
-1.6849388e-05
3.53967e-05
-1.7763698e-11
-2.8159896e-05
4.7504147e-05
-1.807793e-11
-4.145136e-05
5.78122e-05
-1.193601e-11
-5.6284741e-05
6.61949e-05
-8.5652171e-12
-7.2261716e-05
7.2641234e-05
-5.9608953e-12
-8.9017287e-05
7.7209592e-05
-3.2834862e-12
-0.00010621305
7.9989704e-05
-9.5930991e-13
-0.00012353089
8.1075769e-05
8.9619912e-13
-0.00014066711
8.0550024e-05
2.3013284e-12
-0.00015732738
7.8475239e-05
3.340279e-12
-0.00017322292
7.4894565e-05
4.0599257e-12
-0.00018806818
6.9837066e-05
4.6956169e-12
-0.00020158044
6.3327208e-05
5.2489118e-12
-0.00021348142
5.5396735e-05
5.6306126e-12
-0.00022350102
4.609749e-05
5.950726e-12
-0.00023138297
3.5513929e-05
6.2521114e-12
-0.00023689242
2.3774283e-05
6.4818076e-12
-0.00023982506
1.1059487e-05
6.6371171e-12
-0.0002400176
-2.3908885e-06
6.787704e-12
-0.00023735852
-1.6277396e-05
6.9894609e-12
-0.00023180022
-3.0240675e-05
7.1114931e-12
-0.00022336965
-4.3870678e-05
7.0997455e-12
-0.00021217818
-5.6717861e-05
6.9995378e-12
-0.00019842908
-6.8310822e-05
6.9052642e-12
-0.00018242145
-7.8179004e-05
6.8739956e-12
-0.00016454941
-8.5879885e-05
6.8861573e-12
-0.00014529537
-9.102941e-05
6.8871711e-12
-0.00012521636
-9.3333808e-05
6.8605969e-12
-0.00010492331
-9.2620332e-05
6.8298294e-12
-8.5053395e-05
-8.88641e-05
6.8306642e-12
-6.6236925e-05
-8.220825e-05
6.9061036e-12
-4.9061129e-05
-7.2975105e-05
7.025169e-12
-3.4033882e-05
-6.1667161e-05
7.000138e-12
-2.1551138e-05
-4.8958349e-05
7.3120198e-12
-1.1871857e-05
-3.5677172e-05
9.2250511e-12
-5.104168e-06
-2.278071e-05
7.7282625e-12
-1.2058987e-06
-1.1322868e-05
-2.8684813e-12
-2.467593e-06
1.6213539e-11
-2.5026058e-06
9.7398836e-06
-3.2148251e-11
-9.1358613e-06
2.841671e-05
9.5959097e-12
-1.9144164e-05
4.5405011e-05
-1.1545885e-11
-3.1871807e-05
6.0231803e-05
-1.3367794e-11
-4.6746938e-05
7.2687336e-05
-7.8413414e-12
-6.3268596e-05
8.2716562e-05
-5.3305338e-12
-8.0994202e-05
9.0366846e-05
-3.5178583e-12
-9.9527795e-05
9.5743187e-05
-1.5271414e-12
-0.00011850928
9.8971191e-05
1.9067683e-13
-0.00013760477
0.00010017126
1.5094676e-12
-0.0001564981
9.9443354e-05
2.5496852e-12
-0.00017488383
9.6860974e-05
3.3610892e-12
-0.00019246195
9.2472683e-05
3.9307337e-12
-0.0002089345
8.6309612e-05
4.5123612e-12
-0.00022400437
7.8397071e-05
5.0443453e-12
-0.00023737626
6.8768628e-05
5.3783025e-12
-0.00024875991
5.7481138e-05
5.6710498e-12
-0.0002578754
4.4629408e-05
6.0216234e-12
-0.0002644605
3.0359383e-05
6.3413014e-12
-0.00026827999
1.4878962e-05
6.5430208e-12
-0.00026913687
-1.534014e-06
6.6727061e-12
-0.00026688306
-1.8531216e-05
7.0040736e-12
-0.00026143484
-3.5688897e-05
7.2395678e-12
-0.00025278474
-5.2520793e-05
7.3119575e-12
-0.00024101463
-6.8487976e-05
7.2580412e-12
-0.00022630681
-8.3018652e-05
7.174917e-12
-0.0002089517
-9.5534116e-05
7.138448e-12
-0.00018935078
-0.00010548081
7.1439517e-12
-0.00016801286
-0.00011236734
7.1355245e-12
-0.00014554241
-0.00011580426
7.0875489e-12
-0.00012261904
-0.00011554372
7.0132257e-12
-9.9967978e-05
-0.00011151517
6.9562271e-12
-7.8323163e-05
-0.00010385307
6.9845438e-12
-5.8385173e-05
-9.2913103e-05
7.0546186e-12
-4.0778085e-05
-7.9274257e-05
6.9432439e-12
-2.6009686e-05
-6.3726757e-05
7.2622767e-12
-1.4439756e-05
-4.7247114e-05
9.5940356e-12
-6.2607988e-06
-3.0959677e-05
7.6726798e-12
-1.494317e-06
-1.6089347e-05
-5.5555298e-12
-3.9619289e-06
1.8356288e-11
-2.8007597e-06
1.2540672e-05
-2.9493587e-11
-1.0193075e-05
3.5809007e-05
1.7249096e-11
-2.1301454e-05
5.6513394e-05
-7.1366157e-12
-3.5370708e-05
7.4301065e-05
-1.0083911e-11
-5.1750863e-05
8.9067495e-05
-4.7627101e-12
-6.9882603e-05
0.00010084831
-2.8197594e-12
-8.9281703e-05
0.00010976595
-1.6526115e-12
-0.00010952368
0.00011598517
-2.5461741e-13
-0.00013022951
0.00011967702
9.646424e-13
-0.00015105284
0.00012099458
1.8758005e-12
-0.00017166885
0.00012005937
2.6752939e-12
-0.00019176516
0.00011695728
3.3476511e-12
-0.00021103478
0.0001117423
3.809067e-12
-0.0002291714
0.00010444624
4.3418526e-12
-0.00024586702
9.5092688e-05
4.8454222e-12
-0.0002608119
8.3713508e-05
5.1264988e-12
-0.00027369692
7.0366153e-05
5.3860371e-12
-0.00028421817
5.5150661e-05
5.7774576e-12
-0.00029208389
3.822509e-05
6.1742392e-12
-0.0002970233
1.9818364e-05
6.3954681e-12
-0.00029879973
2.4240353e-07
6.3969448e-12
-0.00029721861
-2.0112347e-05
6.9322301e-12
-0.00029214963
-4.0757885e-05
7.2870568e-12
-0.00028353769
-6.1132743e-05
7.4641216e-12
-0.00027142103
-8.0604647e-05
7.4898389e-12
-0.00025594648
-9.8493213e-05
7.4457466e-12
-0.00023738216
-0.00011409844
7.4205089e-12
-0.00021612546
-0.00012673752
7.4247181e-12
-0.00019270388
-0.00013578893
7.409904e-12
-0.00016776668
-0.00014074146
7.3420377e-12
-0.00014206562
-0.00014124479
7.2173074e-12
-0.00011642417
-0.00013715663
7.0837495e-12
-9.1696211e-05
-0.00012858104
7.0456854e-12
-6.8717006e-05
-0.00011589232
7.0491836e-12
-4.8250873e-05
-9.9740396e-05
6.8375033e-12
-3.0941366e-05
-8.1036272e-05
7.1593124e-12
-1.726982e-05
-6.0918671e-05
9.9487373e-12
-7.5277973e-06
-4.0701707e-05
7.58078e-12
-1.8068741e-06
-2.1810263e-05
-8.477943e-12
-5.7688232e-06
2.0685592e-11
-3.0777544e-06
1.5618453e-05
-2.8239236e-11
-1.1176564e-05
4.3907795e-05
2.3160779e-11
-2.3311984e-05
6.8648817e-05
-3.9799226e-12
-3.8638295e-05
8.9627385e-05
-7.7805826e-12
-5.6434038e-05
0.00010686324
-2.4999803e-12
-7.6086331e-05
0.0001205006
-1.0124611e-12
-9.7072945e-05
0.00013075257
-4.0503896e-13
-0.00011894403
0.00013785625
5.0353461e-13
-0.00014130478
0.00014203777
1.3553923e-12
-0.00016379979
0.00014348958
1.9897348e-12
-0.00018609936
0.00014235894
2.6419718e-12
-0.00020788824
0.00013874615
3.2190712e-12
-0.00022885664
0.00013271071
3.5804995e-12
-0.00024869398
0.00012428358
4.0568124e-12
-0.000267085
0.0001134837
4.5304635e-12
-0.0002837084
0.0001003369
4.7691933e-12
-0.00029823798
8.489573e-05
5.0070671e-12
-0.00031034621
6.7258885e-05
5.4437686e-12
-0.00031971029
4.7589161e-05
5.9198865e-12
-0.00032602101
2.6129077e-05
6.308707e-12
-0.00032899224
3.213623e-06
6.8267192e-12
-0.00032838051
-2.0724082e-05
6.9138853e-12
-0.00032399407
-4.5144341e-05
7.2373371e-12
-0.00031571738
-6.9409436e-05
7.5376843e-12
-0.00030352975
-9.2792288e-05
7.6847735e-12
-0.00028752607
-0.00011449691
7.7193526e-12
-0.0002679357
-0.00013368881
7.7278247e-12
-0.00024513706
-0.00014953617
7.7322052e-12
-0.00021966482
-0.00016126118
7.7024073e-12
-0.00019220677
-0.00016819952
7.6119093e-12
-0.00016358748
-0.00016986409
7.4469141e-12
-0.0001347372
-0.00016600692
7.2524767e-12
-0.00010664636
-0.00015667188
7.1511069e-12
-8.0308259e-05
-0.00014223042
7.0783204e-12
-5.6655233e-05
-0.00012339343
6.7486171e-12
-3.6495465e-05
-0.00010119605
7.0701056e-12
-2.0458144e-05
-7.6956001e-05
1.0378669e-11
-8.9543806e-06
-5.2205477e-05
7.5247063e-12
-2.1583375e-06
-2.8606294e-05
-1.1688775e-11
-7.9271833e-06
2.3370115e-11
-3.3323117e-06
1.8950786e-05
-2.7947997e-11
-1.2080922e-05
5.2656384e-05
2.788157e-11
-2.5163224e-05
8.1731119e-05
-1.7768196e-12
-4.165219e-05
0.00010611636
-6.2406436e-12
-6.0762095e-05
0.00012597315
-9.5706065e-13
-8.1831957e-05
0.00014157047
1.4720413e-13
-0.0001043058
0.00015322642
3.1755316e-13
-0.00012771201
0.00016126246
8.9552293e-13
-0.00015164342
0.00016596918
1.5353609e-12
-0.00017573908
0.00016758524
2.0092592e-12
-0.00019966822
0.00016628809
2.5757536e-12
-0.00022311676
0.0001621947
3.0770318e-12
-0.00024577644
0.00015537039
3.3401842e-12
-0.00026733666
0.0001458438
3.7555737e-12
-0.00028747895
0.00013362599
4.2039204e-12
-0.000305874
0.00011873195
4.4147334e-12
-0.00032218124
0.00010120296
4.6347478e-12
-0.00033605095
8.1128596e-05
5.1054272e-12
-0.00034712918
5.8667381e-05
5.6426795e-12
-0.00035506549
3.4065381e-05
6.0349392e-12
-0.00035952371
7.6718266e-06
6.3828734e-12
-0.00036019799
-2.0049805e-05
6.6501924e-12
-0.00035682883
-4.8513504e-05
7.0756565e-12
-0.00034922639
-7.7011888e-05
7.4974701e-12
-0.0003372948
-0.00010472389
7.7748445e-12
-0.00032105857
-0.00013073314
7.9116226e-12
-0.00030068867
-0.00015405872
7.9780913e-12
-0.00027652528
-0.00017369958
8.003551e-12
-0.00024909352
-0.00018869294
7.977284e-12
-0.00021910798
-0.00019818507
7.8853029e-12
-0.00018746171
-0.00020151037
7.7072799e-12
-0.00015519677
-0.00019827186
7.4871062e-12
-0.00012345528
-0.00018841338
7.3422896e-12
-9.3413125e-05
-0.00017227258
7.1923904e-12
-6.620223e-05
-0.00015060433
6.7273172e-12
-4.2830152e-05
-0.00012456813
7.0543415e-12
-2.4107448e-05
-9.5678714e-05
1.0976805e-11
-1.0593052e-05
-6.571988e-05
7.5836254e-12
-2.5641856e-06
-3.6635145e-05
-1.5243692e-11
-1.0491395e-05
2.6576503e-11
-3.5622911e-06
2.2513103e-05
-2.8206242e-11
-1.2898588e-05
6.1992658e-05
3.1619764e-11
-2.6839261e-05
9.5671791e-05
-3.096189e-13
-4.4385435e-05
0.00012366254
-5.3350131e-12
-6.469458e-05
0.0001462823
-1.5588969e-14
-8.7063343e-05
0.00016393923
8.2059424e-13
-0.00011090649
0.00017706956
7.1881826e-13
-0.00013573437
0.00018609034
1.1265282e-12
-0.00016113093
0.00019136574
1.6743047e-12
-0.00018673323
0.00019318753
2.0529876e-12
-0.00021221319
0.00019176805
2.5510847e-12
-0.00023726206
0.00018724357
2.9742375e-12
-0.00026157752
0.00017968584
3.1396653e-12
-0.0002848536
0.00016911988
3.4921867e-12
-0.00030677333
0.00015554571
3.9179067e-12
-0.00032700384
0.00013896246
4.1108303e-12
-0.00034519416
0.00011939328
4.3061063e-12
-0.00036097556
9.6909985e-05
4.77668e-12
-0.00037396477
7.1656592e-05
5.3448886e-12
-0.00038377054
4.3871135e-05
5.7342468e-12
-0.00039000374
1.3905022e-05
6.001734e-12
-0.00039229235
-1.77612e-05
6.3270269e-12
-0.00039030002
-5.0505843e-05
6.8278244e-12
-0.00038375068
-8.3561241e-05
7.3630636e-12
-0.00037245721
-0.00011601736
7.7749565e-12
-0.00035635391
-0.00014683645
8.0248363e-12
-0.00033553052
-0.00017488211
8.1620938e-12
-0.00031026484
-0.00019896527
8.2270868e-12
-0.00028104929
-0.0002179085
8.2288889e-12
-0.00024860615
-0.00023062822
8.1620298e-12
-0.00021388533
-0.0002362312
7.9934699e-12
-0.00017803964
-0.00023411756
7.7688907e-12
-0.0001423744
-0.00022407863
7.5949952e-12
-0.00010827239
-0.00020637459
7.3725687e-12
-7.7100062e-05
-0.00018177666
6.7610546e-12
-5.0105677e-05
-0.00015156252
7.1138164e-12
-2.8323455e-05
-0.00011746095
1.1782426e-11
-1.2498175e-05
-8.1545168e-05
7.7838197e-12
-3.0403774e-06
-4.6092924e-05
-1.9264066e-11
-1.3531804e-05
3.0421488e-11
-3.76497e-06
2.6278104e-05
-2.8712813e-11
-1.3620472e-05
7.1848131e-05
3.446995e-11
-2.83217e-05
0.00011037302
5.8921608e-13
-4.6807584e-05
0.00014214844
-4.9417427e-12
-6.8186221e-05
0.00016766094
4.421932e-13
-9.1717521e-05
0.00018747053
1.1195208e-12
-0.00011679133
0.00020214337
8.6692453e-13
-0.0001429036
0.00021220261
1.182779e-12
-0.0001696327
0.00021809483
1.6696116e-12
-0.00019661705
0.00022017189
1.9521399e-12
-0.00022353502
0.00021868602
2.3630581e-12
-0.00025008729
0.00021379583
2.6993478e-12
-0.00027598209
0.00020558064
2.7824696e-12
-0.00030092316
0.00019406096
3.0896894e-12
-0.00032460042
0.00017922297
3.5157115e-12
-0.00034668306
0.00016104509
3.7258752e-12
-0.00036681524
0.00013952545
3.9190711e-12
-0.00038461434
0.00011470909
4.3913331e-12
-0.00039967225
8.6714495e-05
4.982873e-12
-0.00041155993
5.5758811e-05
5.405467e-12
-0.00041983622
2.2181301e-05
5.684725e-12
-0.00042406167
-1.353576e-05
6.0350625e-12
-0.00042381756
-5.0749954e-05
6.5967002e-12
-0.00041873192
-8.8646881e-05
7.2412004e-12
-0.00040851158
-0.00012623771
7.7845385e-12
-0.00039298033
-0.00016236772
8.1409069e-12
-0.00037212138
-0.00019574107
8.3383829e-12
-0.00034612105
-0.00022496561
8.4350241e-12
-0.00031540864
-0.00024862091
8.4665056e-12
-0.00028068591
-0.00026535095
8.4292608e-12
-0.00024293814
-0.00027397897
8.2767001e-12
-0.00020341869
-0.00027363702
8.0485613e-12
-0.00016360101
-0.00026389632
7.8449604e-12
-0.00012509646
-0.00024487915
7.5520585e-12
-8.9543151e-05
-0.00021732998
6.7839967e-12
-5.8478227e-05
-0.00018262745
7.1863259e-12
-3.321205e-05
-0.00014272714
1.2757486e-11
-1.4725092e-05
-0.00010003214
8.0638074e-12
-3.6032967e-06
-5.7214699e-05
-2.3970461e-11
-1.7135138e-05
3.4944143e-11
-3.9373818e-06
3.0215514e-05
-2.9431141e-11
-1.4236925e-05
8.2147641e-05
3.6530833e-11
-2.9591323e-05
0.00012572742
1.0280496e-12
-4.8886993e-05
0.00016144411
-4.917822e-12
-7.1189818e-05
0.00018996376
5.8103751e-13
-9.572818e-05
0.00021200889
1.1862456e-12
-0.00012187093
0.00022828611
8.4609946e-13
-0.00014910279
0.00023943447
1.0883995e-12
-0.00017699952
0.00024599156
1.502474e-12
-0.00020520403
0.0002483764
1.6739951e-12
-0.00023340457
0.00024688656
1.986164e-12
-0.00026131535
0.00024170661
2.2448552e-12
-0.0002886599
0.00023292518
2.280945e-12
-0.00031515711
0.00022055817
2.5672476e-12
-0.00034050992
0.00020457577
3.0087848e-12
-0.00036439631
0.00018493148
3.2635131e-12
-0.0003864628
0.00016159193
3.4822872e-12
-0.00040632034
0.00013456663
3.9559935e-12
-0.00042354319
0.00010393734
4.5650725e-12
-0.00043767112
6.9886726e-05
5.0391848e-12
-0.00044821592
3.2726103e-05
5.3750095e-12
-0.0004546735
-7.0781888e-06
5.7793268e-12
-0.0004565418
-4.8881653e-05
6.4214792e-12
-0.00045334717
-9.1841521e-05
7.1757476e-12
-0.0004446784
-0.00013490649
7.8421699e-12
-0.00043022975
-0.00017681638
8.294395e-12
-0.00040985141
-0.00021611942
8.5408668e-12
-0.00038360493
-0.00025121209
8.6573749e-12
-0.00035181861
-0.00028040724
8.7160914e-12
-0.00031513509
-0.00030203448
8.7049544e-12
-0.00027454107
-0.000314573
8.5599548e-12
-0.00023136764
-0.00031681045
8.3083899e-12
-0.00018725074
-0.00030801324
8.053465e-12
-0.00014404588
-0.00028808401
7.6739892e-12
-0.00010369995
-0.00025767592
6.7202416e-12
-6.8093394e-05
-0.00021823402
7.1802791e-12
-3.8876532e-05
-0.00017194402
1.3819921e-11
-1.7329407e-05
-0.00012157927
8.3084786e-12
-4.2697635e-06
-7.0274318e-05
-2.9633982e-11
-2.1404944e-05
4.0153534e-11
-4.0767202e-06
3.4292259e-05
-3.0320534e-11
-1.4739001e-05
9.2809889e-05
3.7950075e-11
-3.0630345e-05
0.00014161876
1.1270873e-12
-5.0594118e-05
0.00018140789
-5.1199253e-12
-7.3660523e-05
0.00021303016
5.3427172e-13
-9.9030897e-05
0.00023737926
1.1199186e-12
-0.00012605628
0.0002553115
7.147513e-13
-0.00015421275
0.00026759094
8.821597e-13
-0.00018307586
0.00027485466
1.2180048e-12
-0.00021229568
0.00027759621
1.2906726e-12
-0.00024157352
0.00027616441
1.5230874e-12
-0.00027064101
0.0002707741
1.7353632e-12
-0.00029924173
0.00026152589
1.7710609e-12
-0.00032711548
0.00024843191
2.0576504e-12
-0.00035398496
0.00023144526
2.5085885e-12
-0.00037954482
0.00021049133
2.8000889e-12
-0.00040345274
0.00018549984
3.044627e-12
-0.00042532296
0.00015643685
3.5064499e-12
-0.00044472238
0.00012333676
4.1052922e-12
-0.00046116989
8.6334229e-05
4.61621e-12
-0.00047413991
4.5696119e-05
5.0261035e-12
-0.00048307149
1.8533893e-06
5.5177216e-12
-0.00048738395
-4.4569198e-05
6.2511618e-12
-0.00048650165
-9.2723826e-05
7.1090031e-12
-0.00047988833
-0.00014151982
7.8904278e-12
-0.00046709304
-0.00018961168
8.442349e-12
-0.00044780741
-0.00023540507
8.7597571e-12
-0.00042193253
-0.00027708698
8.9262449e-12
-0.00038965124
-0.00031268854
9.0249146e-12
-0.00035149749
-0.00034018823
9.0376741e-12
-0.00030841094
-0.00035765956
8.8800302e-12
-0.00026176117
-0.00036346023
8.5678719e-12
-0.00021332556
-0.00035644885
8.2226737e-12
-0.00016520834
-0.00033620125
7.7206327e-12
-0.00011969836
-0.0003031859
6.5267246e-12
-7.9078366e-05
-0.00025885403
7.0336004e-12
-4.5414353e-05
-0.00020560805
1.4923107e-11
-2.0366161e-05
-0.00014662748
8.4467644e-12
-5.0570435e-06
-8.5583404e-05
-3.6457828e-11
-2.6462035e-05
4.6145925e-11
-4.1808179e-06
3.8473105e-05
-3.1175957e-11
-1.5119962e-05
0.000103749
3.8866924e-11
-3.1425212e-05
0.000157924
1.0180094e-12
-5.1905644e-05
0.00020188833
-5.4404216e-12
-7.5561295e-05
0.00023668581
3.4311272e-13
-0.00010156986
0.00026338783
9.0324149e-13
-0.00012926682
0.00028300845
4.2569674e-13
-0.00015812134
0.00029644547
5.1354847e-13
-0.00018771057
0.00030444389
7.8226777e-13
-0.00021769387
0.00030757951
7.9523609e-13
-0.00024778843
0.00030625896
9.8764884e-13
-0.00027774693
0.00030073259
1.1938376e-12
-0.00030733767
0.00029111664
1.2800409e-12
-0.00033632723
0.00027742147
1.5899255e-12
-0.00036446533
0.00025958336
2.0398403e-12
-0.00039147193
0.00023749793
2.3583919e-12
-0.00041702616
0.00021105406
2.6279433e-12
-0.0004407573
0.00018016799
3.0659162e-12
-0.00046223802
0.00014481748
3.6268679e-12
-0.00048098046
0.00010507666
4.1502015e-12
-0.00049643607
6.1151723e-05
4.6380775e-12
-0.00050800045
1.3417761e-05
5.2590505e-12
-0.00051502581
-3.7543843e-05
6.0349215e-12
-0.00051684117
-9.0908469e-05
6.9668807e-12
-0.0005127852
-0.0001455758
7.8507132e-12
-0.00050225219
-0.0002001447
8.520712e-12
-0.00048475359
-0.00025290369
8.9468651e-12
-0.00045999481
-0.00030184577
9.2155327e-12
-0.0004279644
-0.00034471895
9.3959382e-12
-0.00038902804
-0.0003791246
9.4509271e-12
-0.00034401408
-0.00040267353
9.2714734e-12
-0.00029427151
-0.00041320281
8.8672888e-12
-0.00024167723
-0.00040904314
8.3943205e-12
-0.00018857116
-0.00038930732
7.7278085e-12
-0.00013760778
-0.00035414928
6.2250494e-12
-9.1532068e-05
-0.00030492975
6.7637092e-12
-5.2912883e-05
-0.00024422725
1.6120925e-11
-2.3888654e-05
-0.00017565172
8.5325832e-12
-5.9827958e-06
-0.00010348922
-4.449718e-11
-3.2444883e-05
5.3171727e-11
-4.2486892e-06
4.2721825e-05
-3.1794449e-11
-1.5377018e-05
0.00011487729