/*--------------------------------*- C++ -*----------------------------------*\
  =========                 |
  \\      /  F ield         | OpenFOAM: The Open Source CFD Toolbox
   \\    /   O peration     | Website:  https://openfoam.org
    \\  /    A nd           | Version:  7
     \\/     M anipulation  |
\*---------------------------------------------------------------------------*/
FoamFile
{
    version     2.0;
    format      ascii;
    class       surfaceScalarField;
    location    "5";
    object      phi_0;
}
// * * * * * * * * * * * * * * * * * * * * * * * * * * * * * * * * * * * * * //

dimensions      [0 3 -1 0 0 0 0];

internalField   nonuniform List<scalar> 
45600
(
2.3456533e-07
-2.314133e-07
-1.7251254e-10
3.1146826e-07
-7.6792433e-08
-9.7185598e-11
3.3187303e-08
2.7833946e-07
-5.4847302e-11
-6.1300443e-07
6.4622323e-07
-2.2246621e-11
-1.5901142e-06
9.7710523e-07
-4.2607794e-12
-2.8348801e-06
1.2447453e-06
8.1653387e-12
-4.2816429e-06
1.4467458e-06
1.6586178e-11
-5.8705787e-06
1.5889173e-06
2.179733e-11
-7.5494703e-06
1.6788725e-06
2.4806244e-11
-9.2731693e-06
1.7236658e-06
2.5875123e-11
-1.1002012e-05
1.7288189e-06
2.6059144e-11
-1.2700063e-05
1.6980293e-06
2.5653272e-11
-1.4333405e-05
1.6333105e-06
2.4450251e-11
-1.5868761e-05
1.535334e-06
2.2983488e-11
-1.7272675e-05
1.4039011e-06
2.1386293e-11
-1.8511206e-05
1.2385119e-06
1.941748e-11
-1.9550176e-05
1.038949e-06
1.7216967e-11
-2.0356012e-05
8.0582419e-07
1.5048799e-11
-2.0897092e-05
5.4107532e-07
1.2789896e-11
-2.1145491e-05
2.4839172e-07
1.0216283e-11
-2.1079017e-05
-6.6485037e-08
7.4153684e-12
-2.068336e-05
-3.9566547e-07
4.6435107e-12
-1.9954277e-05
-7.2908337e-07
2.0408275e-12
-1.8899454e-05
-1.0548188e-06
-4.505432e-13
-1.7539899e-05
-1.3595505e-06
-2.895037e-12
-1.5910664e-05
-1.6292321e-06
-5.1892175e-12
-1.4060707e-05
-1.8499527e-06
-7.1103183e-12
-1.2051786e-05
-2.0089136e-06
-8.4849304e-12
-9.9563352e-06
-2.0954392e-06
-9.2212355e-12
-7.8543966e-06
-2.1019257e-06
-9.310023e-12
-5.8297507e-06
-2.0246344e-06
-8.7774676e-12
-3.9654852e-06
-1.8642575e-06
-7.6469224e-12
-2.3392577e-06
-1.6262232e-06
-5.8973956e-12
-1.0184326e-06
-1.3208234e-06
-3.4264472e-12
-5.4490431e-08
-9.6394193e-07
-3.471995e-13
5.2608853e-07
-5.8057914e-07
1.6865021e-12
7.2410224e-07
-1.9801663e-07
4.8330123e-12
5.8923021e-07
1.3486435e-07
8.2552739e-12
2.5631864e-07
3.3289789e-07
1.1938524e-11
2.56309e-07
6.3338554e-12
8.5218555e-08
-3.1652003e-07
-9.676409e-11
-3.5544255e-07
3.6392696e-07
-7.6144679e-11
-1.5759533e-06
1.4988914e-06
-4.8873649e-11
-3.6222424e-06
2.6925555e-06
-2.8560463e-11
-6.4224343e-06
3.7773194e-06
-1.6624813e-11
-9.857926e-06
4.680245e-06
-9.250552e-12
-1.3791731e-05
5.3805534e-06
-4.5314947e-12
-1.8087061e-05
5.8842337e-06
-2.1009e-12
-2.2615675e-05
6.2074904e-06
-7.8641956e-13
-2.7260195e-05
6.3681849e-06
-5.0010738e-13
-3.1913091e-05
6.3817056e-06
-6.5482673e-13
-3.6474306e-05
6.2592464e-06
-7.0559866e-13
-4.0848595e-05
6.0076047e-06
-8.5422078e-13
-4.494324e-05
5.6299793e-06
-9.1462814e-13
-4.866668e-05
5.1273381e-06
-5.8933693e-13
-5.1928258e-05
4.5000905e-06
1.7548438e-13
-5.463919e-05
3.7498853e-06
1.3506497e-12
-5.671474e-05
2.8813768e-06
2.9337223e-12
-5.8077477e-05
1.9038074e-06
4.8341542e-12
-5.8661366e-05
8.3226965e-07
6.9521923e-12
-5.8416582e-05
-3.1127947e-07
9.3139003e-12
-5.7314026e-05
-1.4982298e-06
1.1982553e-11
-5.5350404e-05
-2.692715e-06
1.4798715e-11
-5.2551918e-05
-3.8533196e-06
1.7523869e-11
-4.8977103e-05
-4.9343849e-06
1.9960872e-11
-4.4718008e-05
-5.8883494e-06
2.2019095e-11
-3.989941e-05
-6.668571e-06
2.3676082e-11
-3.4675837e-05
-7.2325042e-06
2.4875819e-11
-2.9226303e-05
-7.5449891e-06
2.5509577e-11
-2.3746873e-05
-7.5813743e-06
2.545913e-11
-1.8441322e-05
-7.3302076e-06
2.4669506e-11
-1.3510304e-05
-6.7952986e-06
2.3158365e-11
-9.139434e-06
-5.9971156e-06
2.1005247e-11
-5.4864888e-06
-4.9737895e-06
1.836773e-11
-2.667785e-06
-3.7826649e-06
1.5400338e-11
-7.4532279e-07
-2.5030576e-06
1.2181781e-11
2.977545e-07
-1.2411071e-06
9.1735945e-12
5.7827991e-07
-1.4567301e-07
7.3846629e-12
3.3597158e-07
5.7519304e-07
7.9546842e-12
5.9227522e-07
2.1245705e-12
-2.7706913e-07
-3.938655e-08
-6.1481817e-11
-1.5263274e-06
1.6132323e-06
-4.4308794e-11
-3.9249683e-06
3.8975469e-06
-2.9357139e-11
-7.4737754e-06
6.2413732e-06
-1.4729722e-11
-1.2070785e-05
8.3743318e-06
-3.196114e-12
-1.7556715e-05
1.0166169e-05
4.5772538e-12
-2.3747131e-05
1.1570968e-05
9.8479211e-12
-3.0452733e-05
1.258982e-05
1.2827742e-11
-3.7490268e-05
1.3245002e-05
1.4360979e-11
-4.4686847e-05
1.3564745e-05
1.4928062e-11
-5.1880152e-05
1.3575005e-05
1.489773e-11
-5.8916582e-05
1.3295664e-05
1.4341094e-11
-6.5648694e-05
1.2739695e-05
1.3368478e-11
-7.1933008e-05
1.191428e-05
1.2451995e-11
-7.7628847e-05
1.0823173e-05
1.172737e-11
-8.2598545e-05
9.4697834e-06
1.1024845e-11
-8.6709209e-05
7.8605394e-06
1.0295814e-11
-8.9836036e-05
6.0081917e-06
9.6811848e-12
-9.1866996e-05
3.9347591e-06
9.2262207e-12
-9.2708616e-05
1.6738814e-06
8.8320134e-12
-9.2292313e-05
-7.275911e-07
8.4721913e-12
-9.0581022e-05
-3.2095308e-06
8.2003573e-12
-8.7575323e-05
-5.6984231e-06
8.0334684e-12
-8.331856e-05
-8.1100915e-06
7.886807e-12
-7.7900314e-05
-1.0352641e-05
7.6857906e-12
-7.145768e-05
-1.2330993e-05
7.4475513e-12
-6.4173875e-05
-1.3952382e-05
7.2378231e-12
-5.6273862e-05
-1.5132522e-05
7.0994234e-12
-4.8016845e-05
-1.5802011e-05
7.0257476e-12
-3.9685747e-05
-1.5912477e-05
6.9778391e-12
-3.1573985e-05
-1.5441976e-05
6.9357206e-12
-2.3970027e-05
-1.4399264e-05
6.9098092e-12
-1.7140311e-05
-1.2826838e-05
6.926238e-12
-1.131107e-05
-1.0803036e-05
7.0016904e-12
-6.6495938e-06
-8.4441476e-06
7.0892525e-12
-3.2446415e-06
-5.9080175e-06
7.192281e-12
-1.084749e-06
-3.4010095e-06
7.3038367e-12
-3.8033617e-08
-1.1924003e-06
7.8039168e-12
1.7374762e-07
3.6339847e-07
8.5004077e-12
7.6601459e-07
5.4810109e-12
-6.819312e-07
6.4258022e-07
-3.2464909e-11
-2.8596611e-06
3.7909953e-06
-1.7995256e-11
-6.5481655e-06
7.586054e-06
-1.465373e-11
-1.1666161e-05
1.1359365e-05
-5.8386834e-12
-1.8056929e-05
1.4765101e-05
3.3727505e-12
-2.5517931e-05
1.7627163e-05
9.4538991e-12
-3.3824593e-05
1.9877607e-05
1.3370799e-11
-4.2747193e-05
2.1512401e-05
1.5822357e-11
-5.20609e-05
2.2558697e-05
1.7190362e-11
-6.1550246e-05
2.305407e-05
1.7473028e-11
-7.1009781e-05
2.3034519e-05
1.7156939e-11
-8.0242703e-05
2.2528567e-05
1.6455999e-11
-8.905874e-05
2.1555715e-05
1.5451725e-11
-9.7272378e-05
2.0127906e-05
1.44354e-11
-0.00010470219
1.8252979e-05
1.350087e-11
-0.00011117169
1.5939273e-05
1.254308e-11
-0.00011651189
1.3200715e-05
1.1544672e-11
-0.00012056552
1.0061817e-05
1.0631064e-11
-0.0001231929
6.5621266e-06
9.8397438e-12
-0.00012427876
2.7597341e-06
9.0839941e-12
-0.00012373981
-1.2665453e-06
8.3229789e-12
-0.00012153257
-5.4167869e-06
7.5804075e-12
-0.00011766036
-9.5706431e-06
6.9282777e-12
-0.00011217931
-1.3591145e-05
6.3447944e-12
-0.00010520234
-1.7329615e-05
5.759867e-12
-9.6900585e-05
-2.0632755e-05
5.1747583e-12
-8.7501702e-05
-2.3351268e-05
4.6585156e-12
-7.7284681e-05
-2.5349545e-05
4.2909331e-12
-6.6570891e-05
-2.6515803e-05
4.1049787e-12
-5.5711459e-05
-2.6771911e-05
4.0734963e-12
-4.5071274e-05
-2.6082166e-05
4.1560948e-12
-3.5010172e-05
-2.4460373e-05
4.3462347e-12
-2.586208e-05
-2.1974938e-05
4.6952757e-12
-1.7912988e-05
-1.8752136e-05
5.2245918e-12
-1.1378723e-05
-1.497842e-05
5.8481315e-12
-6.3832393e-06
-1.0903509e-05
6.5335497e-12
-2.9377782e-06
-6.8464803e-06
7.3800774e-12
-9.2412476e-07
-3.2060655e-06
7.8940272e-12
-8.3906751e-08
-4.7683116e-07
7.2981065e-12
6.8209758e-07
8.1997385e-12
-1.0897297e-06
1.7323229e-06
-2.049364e-11
-4.2189569e-06
6.9202253e-06
5.4788459e-14
-9.2333912e-06
1.2600498e-05
-4.1609141e-12
-1.5941058e-05
1.8067026e-05
-6.0891713e-14
-2.4112552e-05
2.2936585e-05
6.4970822e-12
-3.3493871e-05
2.7008469e-05
1.0431048e-11
-4.3820064e-05
3.0203787e-05
1.2801497e-11
-5.4826026e-05
3.2518347e-05
1.4216225e-11
-6.6253242e-05
3.3985899e-05
1.4957752e-11
-7.7852759e-05
3.4653569e-05
1.4894723e-11
-8.9385309e-05
3.4567053e-05
1.4387646e-11
-0.00010061989
3.3763132e-05
1.3640035e-11
-0.00011133186
3.2267672e-05
1.2763779e-11
-0.00012130156
3.0097602e-05
1.1915034e-11
-0.00013031415
2.7265554e-05
1.117515e-11
-0.00013816098
2.3786093e-05
1.0499999e-11
-0.00014464288
1.9682603e-05
9.8517426e-12
-0.00014957513
1.4994063e-05
9.3199512e-12
-0.00015279407
9.7810534e-06
8.94512e-12
-0.0001541648
4.1304552e-06
8.6485653e-12
-0.00015358968
-1.8416822e-06
8.3659137e-12
-0.00015101684
-7.9896395e-06
8.117172e-12
-0.00014644823
-1.4139257e-05
7.9495361e-12
-0.00013994632
-2.0093062e-05
7.8382617e-12
-0.00013163876
-2.5637185e-05
7.7057435e-12
-0.00012172033
-3.0551195e-05
7.5198996e-12
-0.0001104515
-3.4620114e-05
7.3168945e-12
-9.8153016e-05
-3.7648033e-05
7.1577552e-12
-8.5196336e-05
-3.947249e-05
7.0841887e-12
-7.198964e-05
-3.9978613e-05
7.0844285e-12
-5.8959883e-05
-3.9111929e-05
7.0999173e-12
-4.6531381e-05
-3.6888881e-05
7.0926456e-12
-3.5101931e-05
-3.3404397e-05
7.0880766e-12
-2.5017698e-05
-2.8836379e-05
7.1416786e-12
-1.6548357e-05
-2.344777e-05
7.2228769e-12
-9.8640617e-06
-1.7587814e-05
7.4490662e-12
-5.0158643e-06
-1.1694688e-05
8.1839096e-12
-1.9226899e-06
-6.2992507e-06
7.9064568e-12
-3.6707944e-07
-2.0324495e-06
4.8639049e-12
3.1500681e-07
1.0206775e-11
-1.4776342e-06
3.2099641e-06
-1.3534883e-11
-5.5425297e-06
1.0985107e-05
1.323521e-11
-1.1872435e-05
1.8930405e-05
3.4684718e-12
-2.0155459e-05
2.6350048e-05
4.7696421e-12
-3.0078737e-05
3.2859851e-05
9.7742033e-12
-4.1329733e-05
3.8259449e-05
1.2215548e-11
-5.3600667e-05
4.2474707e-05
1.3545767e-11
-6.6592623e-05
4.5510287e-05
1.4310976e-11
-8.00179e-05
4.7411163e-05
1.4605745e-11
-9.3600355e-05
4.8236005e-05
1.4276652e-11
-0.00010707407
4.8040757e-05
1.362049e-11
-0.00012018128
4.6870325e-05
1.2818469e-11
-0.00013267023
4.4756614e-05
1.2015219e-11
-0.00014429394
4.1721303e-05
1.1234472e-11
-0.00015481025
3.7781854e-05
1.0536503e-11
-0.00016398364
3.295947e-05
9.9521665e-12
-0.00017158891
2.7287861e-05
9.4135911e-12
-0.0001774167
2.0821843e-05
8.9613932e-12
-0.00018128061
1.364496e-05
8.6630502e-12
-0.00018302561
5.875436e-06
8.4723208e-12
-0.00018253713
-2.3301695e-06
8.2956441e-12
-0.00017975045
-1.0776331e-05
8.1408346e-12
-0.00017465967
-1.9230044e-05
8.0510184e-12
-0.00016732542
-2.7427318e-05
8.0129999e-12
-0.00015788064
-3.5081974e-05
7.9594641e-12
-0.0001465336
-4.1898248e-05
7.8452736e-12
-0.00013356736
-4.7586365e-05
7.6886704e-12
-0.00011933501
-5.1880397e-05
7.543803e-12
-0.00010425009
-5.4557417e-05
7.456079e-12
-8.8772084e-05
-5.5456628e-05
7.4311456e-12
-7.3387001e-05
-5.4497019e-05
7.4308061e-12
-5.8583794e-05
-5.1692096e-05
7.4282119e-12
-4.4827675e-05
-4.7160524e-05
7.4227982e-12
-3.2531969e-05
-4.1132094e-05
7.4100048e-12
-2.2030519e-05
-3.3949229e-05
7.3421724e-12
-1.3552926e-05
-2.6065416e-05
7.5083094e-12
-7.2051318e-06
-1.8042491e-05
8.5881985e-12
-2.9584858e-06
-1.0545906e-05
7.8819152e-12
-6.5033743e-07
-4.3406015e-06
2.3420345e-12
-3.3534287e-07
1.2210731e-11
-1.8413505e-06
5.0513207e-06
-9.5880016e-12
-6.8059011e-06
1.5949636e-05
2.289413e-11
-1.4414128e-05
2.653862e-05
8.4588227e-12
-2.4233986e-05
3.6169903e-05
7.8163724e-12
-3.5864893e-05
4.4490744e-05
1.2027815e-11
-4.8931695e-05
5.1326236e-05
1.3543905e-11
-6.3081755e-05
5.6624755e-05
1.4145904e-11
-7.798287e-05
6.0411387e-05
1.4433026e-11
-9.3320974e-05
6.2749255e-05
1.4370119e-11
-0.00010879725
6.371227e-05
1.3840983e-11
-0.00012412474
6.3368235e-05
1.3108445e-11
-0.00013902498
6.1770548e-05
1.2308953e-11
-0.00015322523
5.895685e-05
1.1602243e-11
-0.0001664569
5.4952967e-05
1.0879972e-11
-0.00017845559
4.9780529e-05
1.0192649e-11
-0.00018896292
4.3466795e-05
9.6627608e-12
-0.00019773045
3.6055381e-05
9.1978039e-12
-0.00020452538
2.7616763e-05
8.7787718e-12
-0.00020913803
1.8257597e-05
8.4967655e-12
-0.00021139066
8.1280559e-06
8.3490856e-12
-0.00021114729
-2.5735431e-06
8.2183297e-12
-0.0002083238
-1.3599838e-05
8.0779568e-12
-0.00020289818
-2.4655673e-05
7.9688981e-12
-0.00019491961
-3.5405891e-05
7.9166675e-12
-0.00018451592
-4.5485669e-05
7.8694427e-12
-0.00017189841
-5.4515773e-05
7.7761928e-12
-0.00015736306
-6.2121728e-05
7.6308416e-12
-0.00014128725
-6.7956216e-05
7.4799025e-12
-0.00012412112
-7.1723555e-05
7.363074e-12
-0.0001063731
-7.3204661e-05
7.2832846e-12
-8.8589553e-05
-7.228057e-05
7.2342013e-12
-7.1329198e-05
-6.8952459e-05
7.2236737e-12
-5.5133401e-05
-6.3356329e-05
7.2631516e-12
-4.0494488e-05
-5.5771015e-05
7.2908472e-12
-2.7824549e-05
-4.6619176e-05
7.1964468e-12
-1.7427713e-05
-3.646226e-05
7.386995e-12
-9.4790594e-06
-2.5991154e-05
8.8821074e-12
-4.0135194e-06
-1.6011454e-05
7.8108158e-12
-9.2802836e-07
-7.4260922e-06
-2.0360925e-13
-1.263385e-06
1.425298e-11
-2.1818285e-06
7.2331602e-06
-8.0677987e-12
-8.0018493e-06
2.1769633e-05
2.9760758e-11
-1.6836474e-05
3.5373231e-05
1.1300031e-11
-2.8138405e-05
4.7471826e-05
9.168989e-12
-4.1419836e-05
5.7772163e-05
1.3100184e-11
-5.6242074e-05
6.6148462e-05
1.4018417e-11
-7.2207101e-05
7.258977e-05
1.4039784e-11
-8.8950203e-05
7.7154475e-05
1.3920441e-11
-0.00010613324
7.9932284e-05
1.356549e-11
-0.00012343836
8.1017373e-05
1.2934659e-11
-0.00014056211
8.0491973e-05
1.221116e-11
-0.00015721043
7.841886e-05
1.1454093e-11
-0.00017309479
7.48412e-05
1.0847599e-11
-0.0001879299
6.9788058e-05
1.0189351e-11
-0.00020143327
6.3283886e-05
9.5370606e-12
-0.00021332686
5.5360376e-05
9.0964108e-12
-0.00022334076
4.606927e-05
8.7437687e-12
-0.00023121888
3.5494871e-05
8.4029897e-12
-0.0002367265
2.3765201e-05
8.1928213e-12
-0.00023965938
1.1060931e-05
8.1396182e-12
-0.00023985426
-2.3786747e-06
8.0973372e-12
-0.0002371996
-1.6254504e-05
8.0331869e-12
-0.00023164771
-3.020757e-05
7.9599175e-12
-0.00022322541
-4.3828199e-05
7.9415313e-12
-0.00021204387
-5.666721e-05
7.9583351e-12
-0.00019830612
-6.8253536e-05
7.9334052e-12
-0.00018231095
-7.811691e-05
7.8281693e-12
-0.00016445214
-8.5815037e-05
7.6854851e-12
-0.0001452117
-9.0964002e-05
7.5601399e-12
-0.00012514629
-9.3270078e-05
7.4546583e-12
-0.00010486642
-9.2560442e-05
7.362154e-12
-8.5008879e-05
-8.8810012e-05
7.2993647e-12
-6.6203622e-05
-8.2161596e-05
7.3040789e-12
-4.9037582e-05
-7.2937063e-05
7.3101338e-12
-3.4018422e-05
-6.1638344e-05
7.156849e-12
-2.1541984e-05
-4.8938707e-05
7.3537206e-12
-1.1867227e-05
-3.5665921e-05
9.228345e-12
-5.1023983e-06
-2.2776291e-05
7.7472102e-12
-1.2055594e-06
-1.1322928e-05
-2.7821293e-12
-2.4689608e-06
1.633624e-11
-2.5006037e-06
9.7337726e-06
-8.5786649e-12
-9.1286596e-06
2.8397653e-05
3.4312644e-11
-1.9129196e-05
4.5373757e-05
1.2553842e-11
-3.1847065e-05
6.0189685e-05
9.3691117e-12
-4.6710875e-05
7.2635961e-05
1.3293312e-11
-6.3220069e-05
8.2657644e-05
1.380732e-11
-8.0932417e-05
9.0302106e-05
1.3391379e-11
-9.9452264e-05
9.5674309e-05
1.301266e-11
-0.0001184198
9.889981e-05
1.2520392e-11
-0.00013750141
0.00010009897
1.191474e-11
-0.00015638121
9.9371757e-05
1.1262122e-11
-0.00017475401
9.6791653e-05
1.0568692e-11
-0.00019232006
9.240724e-05
1.0068497e-11
-0.00020878166
8.6249649e-05
9.481366e-12
-0.00022384194
7.8344162e-05
8.8785925e-12
-0.00023720585
6.8724275e-05
8.5458413e-12
-0.00024858331
5.7446719e-05
8.3284001e-12
-0.00025769456
4.4606114e-05
8.0737038e-12
-0.00026427752
3.0348155e-05
7.9201017e-12
-0.00026809703
1.488043e-05
7.9251977e-12
-0.00026895612
-1.5195858e-06
7.9104348e-12
-0.00026670672
-1.8503913e-05
7.9726116e-12
-0.00026126503
-3.5649268e-05
7.9528456e-12
-0.00025262343
-5.2469803e-05
7.9731973e-12
-0.00024086364
-6.8427006e-05
8.0595283e-12
-0.00022616771
-8.2949473e-05
8.1128631e-12
-0.00020882579
-9.5458839e-05
8.0552243e-12
-0.00018923901
-0.00010540183
7.91622e-12
-0.0001679158
-0.00011228722
7.7696174e-12
-0.00014546024
-0.00011572565
7.6431135e-12
-0.00012255147
-0.00011546921
7.5377565e-12
-9.9914334e-05
-0.00011144716
7.4538036e-12
-7.8282338e-05
-0.0001037936
7.4172575e-12
-5.8355712e-05
-9.2863698e-05
7.3788192e-12
-4.0758254e-05
-7.9235811e-05
7.1472184e-12
-2.5997567e-05
-6.3699403e-05
7.361462e-12
-1.4433364e-05
-4.7230135e-05
9.6451193e-12
-6.2582027e-06
-3.095146e-05
7.7420655e-12
-1.4937577e-06
-1.6087369e-05
-5.4121332e-12
-3.9627384e-06
1.8567198e-11
-2.798494e-06
1.2532279e-05
-1.024655e-11
-1.0184962e-05
3.5784087e-05
3.7477281e-11
-2.1284686e-05
5.647347e-05
1.2780879e-11
-3.5343125e-05
7.4248118e-05
8.8794209e-12
-5.1710849e-05
8.9003674e-05
1.2875199e-11
-6.9828995e-05
0.00010077578
1.309444e-11
-8.9213724e-05
0.00010968682
1.2386428e-11
-0.00010944088
0.00011590145
1.1890425e-11
-0.00013013174
0.00011959066
1.1370741e-11
-0.00015094024
0.00012090746
1.0839623e-11
-0.00017154183
0.00011997334
1.0251554e-11
-0.0001916244
0.00011687421
9.5935727e-12
-0.00021088121
0.00011166405
9.1782797e-12
-0.00022900623
0.00010437465
8.662945e-12
-0.00024569168
9.5029598e-05
8.1239858e-12
-0.00026062805
8.3660634e-05
7.9093659e-12
-0.00027350641
7.0325068e-05
7.8365922e-12
-0.00028402303
5.512272e-05
7.6768493e-12
-0.00029188624
3.8211356e-05
7.576628e-12
-0.00029682538
1.9819565e-05
7.6314243e-12
-0.00029860373
2.5875735e-07
7.5775983e-12
-0.00029702685
-2.00808e-05
7.8771198e-12
-0.00029196429
-4.0711831e-05
7.9370206e-12
-0.00028336086
-6.1073238e-05
7.9971055e-12
-0.00027125465
-8.0533224e-05
8.1412789e-12
-0.00025579228
-9.8411847e-05
8.2742538e-12
-0.00023724163
-0.0001140095
8.2811295e-12
-0.00021599975
-0.00012664372
8.1570878e-12
-0.00019259377
-0.0001356932
7.9744303e-12
-0.00016767256
-0.00014064687
7.7958615e-12
-0.00014198741
-0.00014115437
7.6636825e-12
-0.00011636132
-0.00013707325
7.5816998e-12
-9.1647742e-05
-0.00012850719
7.5396672e-12
-6.8681495e-05
-0.00011582995
7.4782498e-12
-4.8226548e-05
-9.9690768e-05
7.1671271e-12
-3.092619e-05
-8.0999771e-05
7.4119148e-12
-1.726161e-05
-6.0894728e-05
1.0165944e-11
-7.5243505e-06
-4.0688731e-05
7.8257386e-12
-1.8060905e-06
-2.1805624e-05
-8.1649565e-12
-5.7688527e-06
2.1058475e-11
-3.0752681e-06
1.5607557e-05
-1.2595818e-11
-1.11677e-05
4.3876488e-05
3.9743806e-11
-2.3293744e-05
6.8599498e-05
1.2301204e-11
-3.8608402e-05
8.9562771e-05
7.8148992e-12
-5.6390827e-05
0.00010678609
1.1951482e-11
-7.6028629e-05
0.00012041357
1.2016044e-11
-9.6999995e-05
0.00013065817
1.1180658e-11
-0.00011885542
0.00013775687
1.0702292e-11
-0.00014120042
0.00014193566
1.022341e-11
-0.00016367987
0.0001433869
9.7781593e-12
-0.00018596437
0.00014225783
9.2403089e-12
-0.0002077389
0.00013864873
8.607555e-12
-0.00022869396
0.00013261909
8.285749e-12
-0.0002485192
0.00012419989
7.8631441e-12
-0.0002668996
0.00011340998
7.3975003e-12
-0.00028351406
0.00010027509
7.2957002e-12
-0.00029803658
8.4847581e-05
7.358571e-12
-0.00031013977
6.7225907e-05
7.2814968e-12
-0.00031950096
4.7572535e-05
7.2244037e-12
-0.000325811
2.6129597e-05
7.4567064e-12
-0.00032878387
3.2316275e-06
7.9850283e-12
-0.000328176
-2.0688676e-05
7.937606e-12
-0.00032379566
-4.5092177e-05
7.958008e-12
-0.00031552725
-6.934166e-05
8.0498554e-12
-0.00030334992
-9.2710554e-05
8.2265251e-12
-0.00028735842
-0.00011440336
8.4061583e-12
-0.00026778188
-0.00013358604
8.4679053e-12
-0.00024499844
-0.00014942717
8.3815399e-12
-0.00021954242
-0.00016114922
8.1966323e-12
-0.00019210121
-0.00016808809
7.9820312e-12
-0.00016349892
-0.00016975668
7.8109513e-12
-0.0001346653
-0.00016590687
7.7118462e-12
-0.00010659029
-0.00015658221
7.6676002e-12
-8.0266673e-05
-0.00014215358
7.5963961e-12
-5.662636e-05
-0.00012333109
7.2071876e-12
-3.6477177e-05
-0.00010114896
7.4936043e-12
-2.0448077e-05
-7.6923843e-05
1.0794482e-11
-8.9500625e-06
-5.2186758e-05
7.979334e-12
-2.1573244e-06
-2.8598357e-05
-1.1186796e-11
-7.9262038e-06
2.3883842e-11
-3.3296575e-06
1.8937229e-05
-1.5259159e-11
-1.2071511e-05
5.2618302e-05
4.1239502e-11
-2.514391e-05
8.1671882e-05
1.137705e-11
-4.1620626e-05
0.00010603948
6.3396689e-12
-6.0716585e-05
0.00012588203
1.0705912e-11
-8.1771334e-05
0.0001414683
1.0766908e-11
-0.00010422934
0.00015311616
9.9271025e-12
-0.00012761933
0.00016114686
9.5272305e-12
-0.00015153448
0.0001658508
9.0880906e-12
-0.00017561413
0.00016746654
8.7074896e-12
-0.00019952779
0.00016617148
8.2141548e-12
-0.00022296163
0.00016208256
7.61561e-12
-0.00024560764
0.0001552651
7.3970593e-12
-0.00026715546
0.0001457477
7.0840843e-12
-0.00028728685
0.00013354135
6.6931708e-12
-0.00030567268
0.00011866091
6.6760422e-12
-0.00032197255
0.00010114745
6.8444794e-12
-0.0003358369
8.109025e-05
6.8407881e-12
-0.00034691187
5.8647492e-05
6.8145915e-12
-0.0003548471
3.4064818e-05
7.0651726e-12
-0.00035930646
7.6909879e-06
7.5413283e-12
-0.00035998412
-2.0011019e-05
7.7940462e-12
-0.00035662058
-4.8455735e-05
7.9602111e-12
-0.00034902592
-7.6936328e-05
8.1287065e-12
-0.0003371042
-0.00010463228
8.3590839e-12
-0.00032087983
-0.00013062774
8.5877532e-12
-0.00030052358
-0.0001539423
8.6991322e-12
-0.0002763754
-0.00017357536
8.6509024e-12
-0.00024896013
-0.00018856451
8.4725094e-12
-0.00021899195
-0.00019805627
8.2279341e-12
-0.00018736347
-0.00020138516
8.0051651e-12
-0.00015511625
-0.0001981541
7.8518238e-12
-0.00012339184
-0.00018830663
7.7827483e-12
-9.336557e-05
-0.00017217986
7.6971061e-12
-6.6168835e-05
-0.00015052784
7.2257803e-12
-4.2808741e-05
-0.00012450907
7.5616412e-12
-2.4095502e-05
-9.5637099e-05
1.1496779e-11
-1.0587845e-05
-6.5694428e-05
8.1383231e-12
-2.5629363e-06
-3.6623257e-05
-1.4690814e-11
-1.0489169e-05
2.7090444e-11
-3.5595386e-06
2.2496787e-05
-1.7947506e-11
-1.2888859e-05
6.1947577e-05
4.2195073e-11
-2.6819333e-05
9.5602345e-05
1.0184488e-11
-4.4352934e-05
0.00012357307
4.6603873e-12
-6.4647804e-05
0.00014617689
9.3127185e-12
-8.7001141e-05
0.00016382163
9.4270991e-12
-0.00011082816
0.00017694317
8.5876226e-12
-0.00013563959
0.00018595828
8.2290691e-12
-0.0001610197
0.0001912309
7.784147e-12
-0.00018660583
0.00019305266
7.4417668e-12
-0.0002120702
0.00019163583
6.9961218e-12
-0.00023710429
0.00018711664
6.4514253e-12
-0.00026140601
0.00017956682
6.3434521e-12
-0.00028466964
0.00016901132
6.1545204e-12
-0.0003065784
0.00015545009
5.8572108e-12
-0.00032679959
0.0001388821
5.9215969e-12
-0.00034498239
0.00011933025
6.1908355e-12
-0.0003607582
9.686605e-05
6.2856368e-12
-0.00037374385
7.1633133e-05
6.326843e-12
-0.00038354813
4.3869088e-05
6.6246347e-12
-0.00038978197
1.3924827e-05
7.1505036e-12
-0.00039207337
-1.7719625e-05
7.6092813e-12
-0.00039008597
-5.0443139e-05
7.9360896e-12
-0.0003835437
-8.3478615e-05
8.2122422e-12
-0.00037225939
-0.00011591659
8.5204618e-12
-0.00035616726
-0.00014671987
8.8133626e-12
-0.00033535695
-0.00017475261
8.9826575e-12
-0.00031010608
-0.00019882623
8.9762241e-12
-0.00028090684
-0.00021776376
8.8091115e-12
-0.00024848116
-0.00023048195
8.5382304e-12
-0.00021377854
-0.00023608779
8.258342e-12
-0.00017795127
-0.00023398138
8.0223406e-12
-0.00014230408
-0.00022395383
7.8967441e-12
-0.00010821915
-0.0002062648
7.7737685e-12
-7.706228e-05
-0.00018168471
7.2008491e-12
-5.0081188e-05
-0.00015149017
7.5845717e-12
-2.8309631e-05
-0.00011740867
1.2252014e-11
-1.249207e-05
-8.1512e-05
8.2543628e-12
-3.0388848e-06
-4.6076427e-05
-1.8867872e-11
-1.3528084e-05
3.0764117e-11
-3.7621978e-06
2.6259002e-05
-2.0645749e-11
-1.3610678e-05
7.1796014e-05
4.2776059e-11
-2.8301672e-05
0.00011029333
8.8422846e-12
-4.6774958e-05
0.00014204635
2.979893e-12
-6.8139319e-05
0.00016754124
7.9515882e-12
-9.1655223e-05
0.00018733753
8.1280659e-12
-0.00011671297
0.00020200092
7.2698366e-12
-0.0001428089
0.0002120542
6.9313651e-12
-0.00016952169
0.00021794368
6.4846728e-12
-0.00019649006
0.00022002104
6.1976916e-12
-0.00022339264
0.00021853841
5.8264683e-12
-0.00024993036
0.00021365435
5.360432e-12
-0.00027581166
0.00020544811
5.3590451e-12
-0.00030074051
0.00019394017
5.2851328e-12
-0.00032440699
0.00017911656
5.0679449e-12
-0.00034648044
0.00016095554
5.1773407e-12
-0.00036660514
0.00013945495
5.5134998e-12
-0.0003843986
0.00011465951
5.6973264e-12
-0.00039945275
8.668728e-05
5.8153774e-12
-0.00041133862
5.5754945e-05
6.1696681e-12
-0.00041961505
2.2201256e-05
6.7702491e-12
-0.00042384263
-1.3492049e-05
7.3585769e-12
-0.00042360266
-5.0683114e-05
7.8213998e-12
-0.00041852318
-8.8558111e-05
8.205741e-12
-0.00040831099
-0.00012612879
8.5995469e-12
-0.00039278987
-0.000162241
8.9786354e-12
-0.00037194301
-0.00019559949
9.2419386e-12
-0.00034595661
-0.00022481264
9.315559e-12
-0.00031525981
-0.00024846056
9.1919565e-12
-0.00028055413
-0.00026518765
8.9187983e-12
-0.00024282446
-0.00027381746
8.587985e-12
-0.00020332368
-0.00027348217
8.2573774e-12
-0.00016352463
-0.00026375288
8.0473679e-12
-0.00012503803
-0.00024475142
7.8492396e-12
-8.9501254e-05
-0.00021722149
7.1339233e-12
-5.8450784e-05
-0.00018254065
7.555826e-12
-3.3196388e-05
-0.00014266308
1.3080927e-11
-1.4718091e-05
-9.9990307e-05
8.3372812e-12
-3.6015548e-06
-5.719294e-05
-2.3831461e-11
-1.7129671e-05
3.5072864e-11
-3.9346689e-06
3.0193687e-05
-2.3219397e-11
-1.4227346e-05
8.208865e-05
4.3071674e-11
-2.9571747e-05
0.00012563772
7.4960562e-12
-4.8855118e-05
0.00016132972
1.4012643e-12
-7.1144017e-05
0.00018983013
6.6464954e-12
-9.566738e-05
0.00021186088
6.8603955e-12
-0.0001217945
0.00022812803
5.9812279e-12
-0.00014901049
0.00023927019
5.6756331e-12
-0.00017689143
0.00024582461
5.2615312e-12
-0.0002050805
0.00024821011
5.0638233e-12
-0.00023326622
0.00024672413
4.8016324e-12
-0.00026116303
0.00024155115
4.4369913e-12
-0.00028849464
0.00023277973
4.5225293e-12
-0.00031498016
0.0002204257
4.5463302e-12
-0.00034032268
0.00020445907
4.401373e-12
-0.00036420029
0.00018483315
4.5235361e-12
-0.0003862596
0.00016151427
4.8741991e-12
-0.00040611166
0.00013451156
5.120714e-12
-0.00042333075
0.00010390636
5.3045892e-12
-0.00043745665
6.9880836e-05
5.6955366e-12
-0.00044800118
3.2745788e-05
6.3376564e-12
-0.00045446025
-7.0329843e-06
7.0068468e-12
-0.00045633183
-4.8811544e-05
7.5790162e-12
-0.00045314227
-9.1747684e-05
8.0552771e-12
-0.00044448041
-0.00013479067
8.5293183e-12
-0.00043004052
-0.0001766809
9.0118017e-12
-0.00040967282
-0.00021596719
9.4115093e-12
-0.00038343888
-0.00025104659
9.6181175e-12
-0.00035166691
-0.00028023253
9.5760531e-12
-0.0003149994
-0.00030185517
9.3301683e-12
-0.00027442277
-0.0003143941
8.9662694e-12
-0.00023126769
-0.00031663727
8.5520444e-12
-0.0001871695
-0.00030785107
8.2514887e-12
-0.00014398304
-0.00028793788
7.9473535e-12
-0.0001036544
-0.00025755014
7.0406151e-12
-6.8063224e-05
-0.00021813183
7.4955721e-12
-3.8859122e-05
-0.0001718672
1.4048179e-11
-1.732153e-05
-0.00012152791
8.4557376e-12
-4.2677703e-06
-7.024667e-05
-2.9630503e-11
-2.1397481e-05
4.0233738e-11
-4.0741487e-06
3.4267859e-05
-2.5424349e-11
-1.4729929e-05
9.2744388e-05
4.3134874e-11
-3.0611798e-05
0.00014151957
6.2520488e-12
-5.0563906e-05
0.00018128183
-5.3044493e-14
-7.3617104e-05
0.00021288333
5.3685262e-12
-9.8973257e-05
0.00023721703
5.5767858e-12
-0.00012598384
0.00025513861
4.6742641e-12
-0.0001541253
0.00026741165
4.4184866e-12
-0.00018297351
0.00027467281
4.0624194e-12
-0.0002121788
0.00027741541
3.9639635e-12
-0.00024144275
0.00027598808
3.8179267e-12
-0.00027049721
0.0002706056
3.5644458e-12
-0.00029908592
0.00026136845
3.7144455e-12
-0.00032694885
0.00024828863
3.8250702e-12
-0.00035380887
0.00023131908
3.7706482e-12
-0.00037936066
0.00021038495
3.9182894e-12
-0.000403262
0.0001854156
4.2717462e-12
-0.00042512716
0.00015637672
4.572692e-12
-0.00044452304
0.00012330223
4.8344289e-12
-0.00046096852
8.6326303e-05
5.2691001e-12
-0.00047393799
4.5715258e-05
5.9324521e-12
-0.0004828705
1.8995198e-06
6.6461142e-12
-0.00048718537
-4.4496685e-05
7.2846277e-12
-0.00048630698
-9.2626086e-05
7.8232504e-12
-0.00047969911
-0.00014139854
8.3564524e-12
-0.00046691091
-0.00018946911
8.9284939e-12
-0.00044763407
-0.00023524403
9.4616394e-12
-0.00042176982
-0.00027691086
9.8177357e-12
-0.00038950101
-0.00031250135
9.8919188e-12
-0.00035136158
-0.00033999461
9.7062417e-12
-0.00030829101
-0.00035746469
9.3377831e-12
-0.00026165856
-0.00036326972
8.8662405e-12
-0.00021324112
-0.00035626853
8.486485e-12
-0.00016514219
-0.00033603681
8.0597769e-12
-0.00011964983
-0.00030304252
6.9194594e-12
-7.9045837e-05
-0.00025873583
7.4197757e-12
-4.5395357e-05
-0.0002055177
1.5221836e-11
-2.0357456e-05
-0.00014656581
8.6830299e-12
-5.0548039e-06
-8.5549288e-05
-3.6326359e-11
-2.6452332e-05
4.6426792e-11
-4.1784753e-06
3.8446362e-05
-2.7205555e-11
-1.5111692e-05
0.00010367756
4.2988924e-11
-3.140828e-05
0.00015781615
5.1494994e-12
-5.1878028e-05
0.00020175158
-1.3567271e-12
-7.5521561e-05
0.00023652685
4.1732206e-12
-0.00010151707
0.00026321253
4.3743845e-12
-0.00012920044
0.00028282198
3.4655101e-12
-0.0001580412
0.00029625241
3.2741271e-12
-0.00018761681
0.00030424841
2.9854981e-12
-0.00021758688
0.00030738548
2.9686797e-12
-0.00024766886
0.00030607006
2.9194213e-12
-0.00027761562
0.00030055235
2.772592e-12
-0.00030719564
0.00029094847
2.95603e-12
-0.00033617562
0.00027726862
3.130239e-12
-0.00036430542
0.00025944887
3.1828659e-12
-0.00039130501
0.00023738454
3.3776269e-12
-0.00041685356
0.00021096416
3.7369522e-12
-0.00044058037
0.00018010352
4.0940958e-12
-0.00046205805
0.00014477991
4.4512851e-12
-0.00048079869
0.00010506693
4.9470222e-12
-0.00049625367
6.1170237e-05
5.6281419e-12
-0.00050781856
1.3464401e-05
6.3879011e-12
-0.00051484554
-3.7469715e-05
7.0254681e-12
-0.00051666363
-9.0808e-05
7.6082669e-12
-0.00051261156
-0.00014545062
8.185963e-12
-0.00050208373
-0.00019999695
8.8125384e-12
-0.00048459173
-0.00025273602
9.4462136e-12
-0.00045984118
-0.00030166142
9.9254995e-12
-0.00042782079
-0.00034452175
1.0113795e-11
-0.00038889634
-0.00037891906
1.0000552e-11
-0.0003438962
-0.00040246484
9.6475126e-12
-0.00029416917
-0.00041299676
9.1416455e-12
-0.00024159175
-0.00040884596
8.6957973e-12
-0.00018850322
-0.00038912535
8.1329895e-12
-0.00013755722
-0.00035398853
6.7176828e-12
-9.1497714e-05
-0.00030479534
7.285918e-12
-5.2892552e-05
-0.00024412288
1.6600116e-11
-2.3879209e-05
-0.00017557917
9.0100658e-12
-5.980324e-06
-0.00010344813
-4.4089913e-11
-3.2432711e-05
5.3715075e-11
-4.2466633e-06
4.2693051e-05
-2.8657044e-11
-1.5369841e-05
0.00011480069
4.2623907e-11
-3.1955132e-05
0.00017440144
4.1516667e-12
-5.2785277e-05
0.00022258172
-2.5064646e-12