/*--------------------------------*- C++ -*----------------------------------*\
  =========                 |
  \\      /  F ield         | OpenFOAM: The Open Source CFD Toolbox
   \\    /   O peration     | Website:  https://openfoam.org
    \\  /    A nd           | Version:  7
     \\/     M anipulation  |
\*---------------------------------------------------------------------------*/
FoamFile
{
    version     2.0;
    format      ascii;
    class       volVectorField;
    location    "5";
    object      U;
}
// * * * * * * * * * * * * * * * * * * * * * * * * * * * * * * * * * * * * * //

dimensions      [0 1 -1 0 0 0 0];

internalField   nonuniform List<vector> 
16000
(
(5.6704658e-05 -5.6881761e-05 -3.5823046e-07)
(0.00013322067 -4.3765331e-05 5.1409572e-06)
(0.00010032953 7.3303921e-06 1.6730621e-05)
(-8.4538632e-05 6.0508537e-05 3.1506399e-05)
(-0.00041474881 0.00010713506 4.638575e-05)
(-0.00086457501 0.00014341623 5.9835819e-05)
(-0.001408368 0.00016970306 7.0683346e-05)
(-0.0020207577 0.00018755832 7.822161e-05)
(-0.002679135 0.00019856979 8.2063146e-05)
(-0.0033640286 0.00020403217 8.2011381e-05)
(-0.0040585708 0.00020487737 7.798145e-05)
(-0.0047477543 0.00020167964 6.9951e-05)
(-0.005417705 0.00019470591 5.7939623e-05)
(-0.0060550565 0.00018399108 4.2001391e-05)
(-0.006646491 0.0001694173 2.2232059e-05)
(-0.0071785053 0.00015079843 -1.2118719e-06)
(-0.0076374085 0.00012796834 -2.8092714e-05)
(-0.0080095418 0.00010086391 -5.8071057e-05)
(-0.0082817166 6.959818e-05 -9.0685428e-05)
(-0.0084418444 3.4523173e-05 -0.00012533735)
(-0.0084797145 -3.7222403e-06 -0.00016128732)
(-0.0083878423 -4.4197321e-05 -0.00019766314)
(-0.0081623509 -8.5633228e-05 -0.0002334788)
(-0.0078038016 -0.00012648422 -0.00026766776)
(-0.0073178596 -0.000164984 -0.00029912966)
(-0.0067157369 -0.00019923765 -0.00032678961)
(-0.0060143203 -0.00022734175 -0.00034966632)
(-0.0052359264 -0.00024752262 -0.00036694312)
(-0.0044076515 -0.00025827976 -0.00037803596)
(-0.003560323 -0.00025851913 -0.00038265322)
(-0.0027270953 -0.00024766013 -0.0003808417)
(-0.0019417793 -0.00022570316 -0.00037301499)
(-0.0012370052 -0.0001932507 -0.00035996293)
(-0.00064215316 -0.00015150456 -0.00034284915)
(-0.00018082831 -0.00010243109 -0.00032318487)
(0.00012917064 -4.9406679e-05 -0.00030264492)
(0.00028135311 4.3403647e-06 -0.0002834906)
(0.00028503369 5.0761368e-05 -0.00026783225)
(0.00017813588 7.5769695e-05 -0.00025818514)
(5.2260846e-05 5.2180365e-05 -0.0002395404)
(4.5847621e-05 -0.00013547146 -6.0733489e-06)
(1.2878666e-05 -1.0739128e-05 -4.3831167e-07)
(-0.00030890221 0.00024675533 9.5053644e-06)
(-0.00096471572 0.00051998095 2.1487396e-05)
(-0.0019434955 0.00076700738 3.3641705e-05)
(-0.0032034516 0.00096965939 4.4599523e-05)
(-0.0046912164 0.0011245341 5.3376375e-05)
(-0.0063507549 0.00123463 5.9320275e-05)
(-0.0081285101 0.0013048668 6.2021249e-05)
(-0.009975249 0.0013401018 6.1233855e-05)
(-0.011846097 0.0013442781 5.682428e-05)
(-0.013699729 0.0013201263 4.8729827e-05)
(-0.015497271 0.0012691928 3.6940506e-05)
(-0.017201255 0.0011920725 2.1493308e-05)
(-0.018774858 0.0010887533 2.4761443e-06)
(-0.020181556 0.00095902172 -1.9958942e-05)
(-0.021385268 0.00080289139 -4.5579141e-05)
(-0.022350993 0.00062101762 -7.4053499e-05)
(-0.02304591 0.00041506912 -0.00010493708)
(-0.023440884 0.00018803283 -0.00013766013)
(-0.023512274 -5.5574382e-05 -0.00017152563)
(-0.023243843 -0.00030960022 -0.0002057214)
(-0.022628716 -0.0005663157 -0.00023933188)
(-0.021671179 -0.00081661166 -0.00027137521)
(-0.020388029 -0.0010503604 -0.00030084554)
(-0.018809416 -0.0012569315 -0.00032676823)
(-0.016978941 -0.0014258358 -0.00034826244)
(-0.014952923 -0.0015474543 -0.00036460594)
(-0.012798738 -0.0016137926 -0.00037529667)
(-0.010592263 -0.0016191915 -0.00038010591)
(-0.0084144842 -0.0015609287 -0.00037911789)
(-0.0063474264 -0.0014396605 -0.00037275144)
(-0.0044695743 -0.0012596929 -0.00036176173)
(-0.0028508744 -0.001029163 -0.00034722336)
(-0.0015474067 -0.00076051556 -0.0003304921)
(-0.00059643962 -0.00047184121 -0.00031313031)
(-9.1769028e-06 -0.00018608548 -0.00029688554)
(0.00023723215 6.0319593e-05 -0.00028352643)
(0.00021635709 0.0002122921 -0.00027501805)
(7.6161627e-05 0.00017720302 -0.00025404797)
(-4.8546683e-06 -0.00010563312 -1.7982691e-05)
(-0.00025090225 0.00031134543 -1.029057e-05)
(-0.00097466679 0.00095589101 -1.204043e-07)
(-0.0021728097 0.0016306949 1.0642083e-05)
(-0.0038160799 0.0022466336 2.1122039e-05)
(-0.0058507665 0.0027625822 3.0318471e-05)
(-0.0082059498 0.0031653729 3.7502295e-05)
(-0.010805187 0.0034566264 4.2181515e-05)
(-0.013573179 0.0036441629 4.4027866e-05)
(-0.016438456 0.0037372345 4.2830024e-05)
(-0.019334011 0.0037440703 3.8459933e-05)
(-0.02219682 0.0036708072 3.0847548e-05)
(-0.024966844 0.0035212995 1.9968574e-05)
(-0.027586008 0.0032975019 5.8398165e-06)
(-0.029997466 0.0030002055 -1.1475292e-05)
(-0.032145388 0.0026299679 -3.1853087e-05)
(-0.033975354 0.0021881187 -5.5094868e-05)
(-0.035435381 0.0016777436 -8.091216e-05)
(-0.036477547 0.0011045674 -0.00010891253)
(-0.037060124 0.00047766058 -0.00013858924)
(-0.037150051 -0.00019009307 -0.00016931932)
(-0.036725579 -0.00088180108 -0.00020036952)
(-0.035778878 -0.0015767943 -0.0002309143)
(-0.034318352 -0.0022511485 -0.00026006446)
(-0.032370408 -0.0028786318 -0.00028690732)
(-0.029980454 -0.0034320085 -0.00031055766)
(-0.027212912 -0.0038846399 -0.00033021576)
(-0.024150082 -0.0042122826 -0.00034522769)
(-0.020889759 -0.0043949518 -0.00035514251)
(-0.017541608 -0.0044186963 -0.00035976102)
(-0.01422237 -0.0042771405 -0.00035917063)
(-0.011050076 -0.0039726862 -0.00035376194)
(-0.0081374852 -0.0035173527 -0.00034422435)
(-0.005584971 -0.0029333792 -0.00033152075)
(-0.003473098 -0.0022539811 -0.00031684106)
(-0.0018550966 -0.0015248414 -0.00030153816)
(-0.00074859512 -0.00080642704 -0.00028705683)
(-0.00012692497 -0.00018067445 -0.00027484789)
(9.153783e-05 0.0002404022 -0.00026633244)
(5.7003978e-05 0.00028965827 -0.00024460593)
(-6.1951446e-05 8.3338229e-05 -3.3463487e-05)
(-0.00055363489 0.00099127257 -2.2306356e-05)
(-0.0017307953 0.0021697104 -1.0337075e-05)
(-0.0035108411 0.0033662709 6.9327827e-07)
(-0.0058322623 0.0044538991 1.0793997e-05)
(-0.0086254774 0.0053694511 1.9285426e-05)
(-0.011803797 0.0060892961 2.568271e-05)
(-0.015274657 0.0066125204 2.9682155e-05)
(-0.018946342 0.0069489382 3.1074773e-05)
(-0.022730512 0.0071117358 2.9719534e-05)
(-0.026542965 0.007113345 2.5524506e-05)
(-0.03030336 0.0069634688 1.8430298e-05)
(-0.033934407 0.0066685875 8.4051165e-06)
(-0.037360997 0.0062324708 -4.5542842e-06)
(-0.040509661 0.0056573344 -2.0413714e-05)
(-0.043308571 0.0049453651 -3.9086824e-05)
(-0.04568822 0.0041003996 -6.0419424e-05)
(-0.047582803 0.0031295763 -8.4173536e-05)
(-0.048932253 0.0020448061 -0.00011001187)
(-0.049684824 0.00086393603 -0.00013748598)
(-0.049800037 -0.00038850989 -0.00016603225)
(-0.049251808 -0.0016811168 -0.00019497495)
(-0.04803149 -0.00297596 -0.00022354361)
(-0.046150536 -0.0042296283 -0.00025089817)
(-0.043642555 -0.0053948996 -0.00027616739)
(-0.04056445 -0.0064230239 -0.00029849825)
(-0.036996414 -0.0072665093 -0.00031711313)
(-0.03304057 -0.0078822517 -0.00033137001)
(-0.028818146 -0.0082347899 -0.00034081993)
(-0.024465142 -0.0082994414 -0.00034525537)
(-0.020126559 -0.008065073 -0.00034474411)
(-0.015949374 -0.0075363182 -0.00033964321)
(-0.012074518 -0.0067351662 -0.00033059065)
(-0.0086282032 -0.0057020342 -0.0003184737)
(-0.0057130086 -0.0044967002 -0.00030437489)
(-0.0033990932 -0.0031997857 -0.00028950296)
(-0.0017152967 -0.001915648 -0.00027513122)
(-0.00064067755 -0.00077758883 -0.00026251753)
(-0.00010176632 4.395102e-05 -0.00025267707)
(2.3075462e-05 0.00031424847 -0.00022915454)
(-0.00011795735 0.00043969182 -4.9543845e-05)
(-0.00086025106 0.0020529359 -3.454274e-05)
(-0.0025053882 0.0039105696 -2.0107391e-05)
(-0.0048808402 0.0057331483 -8.1015142e-06)
(-0.0078831241 0.0073708771 2.2863031e-06)
(-0.011421597 0.0087458977 1.0654294e-05)
(-0.015392426 0.0098273753 1.6743574e-05)
(-0.019688126 0.010612887 2.0441429e-05)
(-0.02420334 0.011114257 2.1670877e-05)
(-0.028836388 0.011348295 2.0373899e-05)
(-0.033489625 0.011331321 1.6504658e-05)
(-0.038069085 0.011076413 1.0021359e-05)
(-0.042483723 0.010592662 8.8779401e-07)
(-0.046644678 0.009885837 -1.0920503e-05)
(-0.050464899 0.0089599912 -2.5403419e-05)
(-0.05385937 0.0078196193 -4.2519012e-05)
(-0.056746042 0.0064720461 -6.2165119e-05)
(-0.059047493 0.0049297785 -8.416038e-05)
(-0.060693278 0.0032125921 -0.00010822594)
(-0.061622845 0.0013491638 -0.00013397067)
(-0.06178883 -0.00062191913 -0.00016088373)
(-0.061160522 -0.0026519224 -0.00018833622)
(-0.059727247 -0.0046825526 -0.00021559318)
(-0.057501384 -0.0066475203 -0.00024183816)
(-0.054520706 -0.0084750191 -0.00026621008)
(-0.050849768 -0.010091087 -0.00028785245)
(-0.046580061 -0.01142371 -0.00030597196)
(-0.041828675 -0.012407456 -0.00031990101)
(-0.036735319 -0.012988326 -0.0003291581)
(-0.031457595 -0.013128493 -0.00033349906)
(-0.026164567 -0.012810545 -0.00033295248)
(-0.021028818 -0.012040948 -0.00032783366)
(-0.016217273 -0.010852526 -0.00031873395)
(-0.011881258 -0.0093060073 -0.00030648443)
(-0.008146416 -0.0074909405 -0.00029209469)
(-0.0051030849 -0.0055266806 -0.00027667811)
(-0.0027967958 -0.0035643468 -0.0002614052)
(-0.0012197497 -0.0017898548 -0.00024742425)
(-0.00031772592 -0.00042909306 -0.00023532363)
(-1.3231999e-05 0.00022621671 -0.00020945751)
(-0.00016952218 0.00095512649 -6.4444368e-05)
(-0.0011550972 0.0034951408 -4.5332136e-05)
(-0.0032637652 0.006183378 -2.8080457e-05)
(-0.0062307458 0.008735962 -1.4651389e-05)
(-0.0099061184 0.010995819 -3.5104324e-06)
(-0.014174363 0.012880116 5.1762791e-06)
(-0.018912594 0.014356487 1.1353372e-05)
(-0.023998334 0.015423936 1.5088669e-05)
(-0.029313914 0.016097598 1.6434724e-05)
(-0.034746575 0.016398326 1.5418033e-05)
(-0.040187998 0.016346324 1.204112e-05)
(-0.045533563 0.015957906 6.281374e-06)
(-0.050681443 0.015244648 -1.9022847e-06)
(-0.055531861 0.014214305 -1.2558343e-05)
(-0.059986798 0.012872923 -2.5725561e-05)
(-0.06395035 0.011227666 -4.1412371e-05)
(-0.067329831 0.0092899421 -5.9574692e-05)
(-0.070037626 0.007078471 -8.0092782e-05)
(-0.071993758 0.0046220069 -0.00010274912)
(-0.073129029 0.0019614528 -0.00012720975)
(-0.073388592 -0.00084884625 -0.00015301246)
(-0.072735701 -0.0037408131 -0.00017956507)
(-0.071155443 -0.006633436 -0.00020615263)
(-0.068658166 -0.0094348551 -0.00023196096)
(-0.065282232 -0.012045651 -0.00025611221)
(-0.061095858 -0.014363321 -0.00027771502)
(-0.056197682 -0.016287788 -0.00029592575)
(-0.050715754 -0.017727672 -0.00031001561)
(-0.044804698 -0.018606941 -0.00031943642)
(-0.0386409 -0.018871502 -0.00032387761)
(-0.032415685 -0.018495206 -0.00032330622)
(-0.026326633 -0.01748481 -0.00031798388)
(-0.020567388 -0.01588355 -0.00030845625)
(-0.015316498 -0.013773195 -0.00029551415)
(-0.01072615 -0.011274778 -0.000280126)
(-0.0069116568 -0.0085486138 -0.00026335757)
(-0.0039410047 -0.005794422 -0.0002463432)
(-0.0018256732 -0.0032513071 -0.00023020198)
(-0.00053705005 -0.0011986345 -0.00021515942)
(-4.7307604e-05 2.3258213e-05 -0.00018666288)
(-0.00021658242 0.001621179 -7.6551615e-05)
(-0.0014335776 0.0053060594 -5.3196309e-05)
(-0.0039909409 0.0089774711 -3.2993139e-05)
(-0.00753448 0.012363969 -1.7881098e-05)
(-0.011866826 0.015315046 -5.6761309e-06)
(-0.01684553 0.017753127 3.6546688e-06)
(-0.022327295 0.019651204 1.0236527e-05)
(-0.028174356 0.021013968 1.4302388e-05)
(-0.034257458 0.021862249 1.6025036e-05)
(-0.040454296 0.022222112 1.5510072e-05)
(-0.046647958 0.022118085 1.2804963e-05)
(-0.05272556 0.021569754 7.9033257e-06)
(-0.058576977 0.020591044 7.5571389e-07)
(-0.064093921 0.019191523 -8.7148656e-06)
(-0.069169593 0.017379109 -2.0591462e-05)
(-0.073699054 0.01516361 -3.4938892e-05)
(-0.077580372 0.012560621 -5.1777243e-05)
(-0.080716562 0.0095953329 -7.1053938e-05)
(-0.08301826 0.0063059127 -9.2616972e-05)
(-0.084407024 0.0027461366 -0.0001161913)
(-0.084819115 -0.0010129818 -0.00014136175)
(-0.08420952 -0.0048827984 -0.00016756689)
(-0.082556101 -0.0087579329 -0.00019410053)
(-0.079863552 -0.012518835 -0.0002201341)
(-0.076166753 -0.016035809 -0.00024475041)
(-0.07153333 -0.019174587 -0.00026699515)
(-0.06606495 -0.021803281 -0.00028594187)
(-0.059896989 -0.023800408 -0.00030076507)
(-0.053196199 -0.02506357 -0.00031081399)
(-0.046156119 -0.025518181 -0.00031567822)
(-0.038990088 -0.025125595 -0.00031523598)
(-0.031921971 -0.023889932 -0.00030967752)
(-0.025174934 -0.021863036 -0.00029949829)
(-0.018958932 -0.019147185 -0.00028545994)
(-0.013457982 -0.015895568 -0.00026851797)
(-0.0088183579 -0.012311003 -0.00024973626)
(-0.0051365647 -0.0086436119 -0.00023027675)
(-0.0024486735 -0.0051870578 -0.00021130783)
(-0.00075526777 -0.0022743251 -0.0001927779)
(-7.8451873e-05 -0.00029200285 -0.00016148185)
(-0.00025985969 0.0024282922 -8.4528954e-05)
(-0.001695292 0.0074688922 -5.6827338e-05)
(-0.0046814042 0.012274034 -3.3678142e-05)
(-0.0087797716 0.016597578 -1.6766307e-05)
(-0.01374674 0.020307621 -3.3153602e-06)
(-0.019412472 0.023341695 6.8809679e-06)
(-0.025612808 0.025685459 1.4109076e-05)
(-0.03219471 0.027354286 1.8750786e-05)
(-0.03901796 0.028377849 2.1086749e-05)
(-0.045951919 0.028789212 2.1292473e-05)
(-0.052872769 0.028618082 1.945315e-05)
(-0.059661337 0.027887575 1.5572428e-05)
(-0.066201301 0.026613858 9.5865791e-06)
(-0.07237792 0.024808009 1.3840723e-06)
(-0.07807747 0.022479413 -9.1688674e-06)
(-0.08318748 0.019640087 -2.22004e-05)
(-0.087597798 0.016309376 -3.7802104e-05)
(-0.091202485 0.012518549 -5.5995882e-05)
(-0.093902491 0.0083148739 -7.6701999e-05)
(-0.095609023 0.0037648448 -9.9709562e-05)
(-0.096247521 -0.0010437717 -0.00012465287)
(-0.09576191 -0.0060013558 -0.00015100149)
(-0.094119267 -0.010977167 -0.000178052)
(-0.091314474 -0.015822353 -0.0002049507)
(-0.087374364 -0.020374539 -0.00023072362)
(-0.082361309 -0.024464404 -0.00025432906)
(-0.076375622 -0.02792407 -0.0002747268)
(-0.069556297 -0.030597002 -0.00029095837)
(-0.062079601 -0.032348932 -0.00030223106)
(-0.054155068 -0.033079109 -0.00030799549)
(-0.046018632 -0.032731002 -0.00030800646)
(-0.037922875 -0.031301508 -0.00030235707)
(-0.030124707 -0.028847748 -0.00029147995)
(-0.022871209 -0.025490765 -0.00027611181)
(-0.016384984 -0.02141584 -0.00025721803)
(-0.010850375 -0.016869731 -0.000235902)
(-0.0063990348 -0.012155497 -0.00021341261)
(-0.0030967588 -0.0076244601 -0.00019104133)
(-0.00097594913 -0.0036664164 -0.00016853704)
(-0.00010764648 -0.00071773342 -0.0001342598)
(-0.00029996748 0.0033673811 -8.7227404e-05)
(-0.0019407654 0.0099650139 -5.5045367e-05)
(-0.0053331123 0.016050156 -2.9036915e-05)
(-0.0099602704 0.021412207 -1.0298838e-05)
(-0.01553472 0.025948258 4.4939274e-06)
(-0.021859992 0.02962005 1.570543e-05)
(-0.028751488 0.032433142 2.3768102e-05)
(-0.036041391 0.034418888 2.9197706e-05)
(-0.043579294 0.035619407 3.2370088e-05)
(-0.051227375 0.036076994 3.3520067e-05)
(-0.058856397 0.035827731 3.2761556e-05)
(-0.066342641 0.034898717 3.0100333e-05)
(-0.073565433 0.0333083 2.5451025e-05)
(-0.080405397 0.031068647 1.8660264e-05)
(-0.08674352 0.028189941 9.5358817e-06)
(-0.092461104 0.024685549 -2.1219938e-06)
(-0.097440604 0.020577584 -1.6485642e-05)
(-0.10156734 0.015902321 -3.366141e-05)
(-0.10473206 0.010715046 -5.3652139e-05)
(-0.10683429 0.005093965 -7.6320492e-05)
(-0.10778648 -0.0008571682 -0.00010135734)
(-0.10751835 -0.0070081366 -0.00012827627)
(-0.10598226 -0.013202586 -0.00015637125)
(-0.10315873 -0.019261279 -0.00018476032)
(-0.099061471 -0.024986995 -0.0002124011)
(-0.093742415 -0.030171963 -0.00023814373)
(-0.087295568 -0.034607622 -0.00026080411)
(-0.079859322 -0.038096471 -0.00027925228)
(-0.07161644 -0.040465486 -0.0002925088)
(-0.06279111 -0.041580332 -0.00029983793)
(-0.05364255 -0.041359248 -0.00030082597)
(-0.044454968 -0.039785332 -0.00029543196)
(-0.035524084 -0.036915876 -0.00028400243)
(-0.027140992 -0.032887613 -0.00026724412)
(-0.019574941 -0.027917196 -0.00024614803)
(-0.013056727 -0.022296971 -0.00022189372)
(-0.0077607929 -0.016386665 -0.00019587298)
(-0.003788401 -0.010600616 -0.00016957092)
(-0.0012068989 -0.0053920362 -0.00014259834)
(-0.0001365723 -0.0012556822 -0.00010506657)
(-0.00033725605 0.0044299421 -8.3613198e-05)
(-0.0021702728 0.012774959 -4.6768023e-05)
(-0.005944594 0.020280262 -1.8034724e-05)
(-0.011071229 0.026779429 2.5010405e-06)
(-0.017221897 0.032207604 1.8678527e-05)
(-0.024175067 0.036559032 3.101042e-05)
(-0.031726817 0.03986607 4.0063996e-05)
(-0.039695509 0.04218138 4.6476344e-05)
(-0.047921559 0.043563338 5.0706939e-05)
(-0.056261165 0.044065975 5.3039647e-05)
(-0.064581105 0.043733195 5.3607885e-05)
(-0.072754728 0.042596693 5.2411173e-05)
(-0.080658732 0.040676976 4.9334515e-05)
(-0.0881708 0.03798678 4.4174644e-05)
(-0.095168173 0.034536166 3.6672261e-05)
(-0.10152718 0.030338612 2.6545841e-05)
(-0.10712368 0.025417472 1.3530878e-05)
(-0.11183451 0.019812293 -2.5766132e-06)
(-0.11553971 0.013584506 -2.1876585e-05)
(-0.11812581 0.0068221264 -4.4320226e-05)
(-0.1194901 -0.00035682545 -6.9666742e-05)
(-0.11954496 -0.007802326 -9.7505837e-05)
(-0.11822395 -0.015333441 -0.00012711994)
(-0.11548838 -0.022740013 -0.00015760649)
(-0.11133335 -0.029788132 -0.00018785032)
(-0.10579451 -0.036228172 -0.00021657709)
(-0.098953804 -0.041805745 -0.00024242994)
(-0.090943877 -0.046275498 -0.00026406607)
(-0.081950013 -0.049417277 -0.00028026736)
(-0.072208853 -0.051053778 -0.00029005344)
(-0.062002992 -0.05106837 -0.00029278322)
(-0.051650976 -0.049421375 -0.00028822952)
(-0.041492713 -0.046162948 -0.00027661476)
(-0.031871012 -0.041440767 -0.00025859821)
(-0.023111092 -0.035501293 -0.00023520275)
(-0.015500106 -0.028684304 -0.00020771466)
(-0.0092644886 -0.021411266 -0.00017772215)
(-0.0045481312 -0.014167332 -0.00014697354)
(-0.001458117 -0.0074791121 -0.00011498609)
(-0.00016717248 -0.0019126123 -7.3786722e-05)
(-0.00037182417 0.0056076252 -7.2734197e-05)
(-0.0023834653 0.015878358 -3.0994939e-05)
(-0.0065136883 0.024936425 2.9946503e-07)
(-0.012107354 0.032667273 2.2571336e-05)
(-0.018798891 0.039052142 4.0146031e-05)
(-0.026343777 0.044125303 5.3679403e-05)
(-0.034520354 0.047952375 6.3865561e-05)
(-0.043134476 0.0506125 7.145282e-05)
(-0.052018606 0.052184175 7.6974595e-05)
(-0.061024258 0.052735825 8.0754789e-05)
(-0.070015665 0.052320784 8.2937967e-05)
(-0.078864826 0.050976084 8.3509524e-05)
(-0.087447481 0.048724405 8.2317097e-05)
(-0.09564005 0.045578464 7.909932e-05)
(-0.10331761 0.041547082 7.3520347e-05)
(-0.11035283 0.036642255 6.5205632e-05)
(-0.11661598 0.03088658 5.3784456e-05)
(-0.12197583 0.024320517 3.8938306e-05)
(-0.12630158 0.01700904 2.0450152e-05)
(-0.12946581 0.0090472973 -1.7485076e-06)
(-0.13134826 0.00056499272 -2.7533454e-05)
(-0.13184151 -0.0082706948 -5.6489593e-05)
(-0.13085674 -0.017255303 -8.8011048e-05)
(-0.12833065 -0.026148152 -0.00012116488)
(-0.12423395 -0.034677476 -0.00015476077)
(-0.11857957 -0.042548661 -0.0001873896)
(-0.11143072 -0.049456129 -0.00021749541)
(-0.10290783 -0.055098996 -0.00024347896)
(-0.093193254 -0.05920014 -0.00026382389)
(-0.082532359 -0.06152781 -0.00027723373)
(-0.07122985 -0.061918232 -0.00028276358)
(-0.059640398 -0.060297087 -0.00027992769)
(-0.048153169 -0.056697286 -0.00026876617)
(-0.037170843 -0.051270425 -0.00024985537)
(-0.02708512 -0.044289862 -0.00022424306)
(-0.018251208 -0.036144535 -0.00019334456)
(-0.010958867 -0.027323943 -0.00015899602)
(-0.0054039797 -0.018394253 -0.00012328031)
(-0.0017407588 -0.0099686894 -8.5650595e-05)
(-0.00020147779 -0.00270102 -4.020113e-05)
(-0.00040355987 0.0068917767 -5.3706124e-05)
(-0.0025793103 0.019253476 -6.8001157e-06)
(-0.0070371053 0.029988115 2.6870456e-05)
(-0.013061907 0.039040056 5.079812e-05)
(-0.020254526 0.046443841 6.9767391e-05)
(-0.028349788 0.052280576 8.4574074e-05)
(-0.037110161 0.056655135 9.6033496e-05)
(-0.046330518 0.059678074 0.00010499738)
(-0.055836736 0.06145182 0.00011206547)
(-0.065477011 0.06206191 0.00011759457)
(-0.075114482 0.06157284 0.00012173369)
(-0.084621382 0.06002783 0.00012444763)
(-0.093874177 0.057451809 0.00012554002)
(-0.10274976 0.05385685 0.00012468382)
(-0.11112273 0.049249282 0.00012145717)
(-0.11886367 0.04363777 0.00011538021)
(-0.12583852 0.037041748 0.00010596001)
(-0.13190885 0.029499691 9.2742829e-05)
(-0.13693329 0.021076822 7.5369137e-05)
(-0.14077005 0.011871911 5.3629744e-05)
(-0.14328051 0.0020227958 2.7524068e-05)
(-0.14433471 -0.0082898642 -2.6692268e-06)
(-0.14381765 -0.018840264 -3.6383001e-05)
(-0.1416372 -0.029358673 -7.2704448e-05)
(-0.13773372 -0.039535247 -0.00011038982)
(-0.13209039 -0.049027896 -0.00014789522)
(-0.12474392 -0.057474686 -0.00018344516)
(-0.11579459 -0.064511068 -0.00021514044)
(-0.10541441 -0.069791881 -0.00024109988)
(-0.093851513 -0.073017342 -0.00025962495)
(-0.081429303 -0.073961378 -0.00026936928)
(-0.068538559 -0.072499711 -0.00026949035)
(-0.055621719 -0.068634308 -0.00025976037)
(-0.043149416 -0.062510493 -0.00024061237)
(-0.031591364 -0.054423425 -0.00021309249)
(-0.021384525 -0.044812173 -0.00017875579)
(-0.012896 -0.034241385 -0.00013973532)
(-0.0063859776 -0.023370684 -9.8524327e-05)
(-0.0020666323 -0.01291626 -5.4530207e-05)
(-0.00024155822 -0.0036394999 -4.0595812e-06)
(-0.0004321911 0.0082730476 -2.5713867e-05)
(-0.0027561832 0.022876652 2.6664552e-05)
(-0.0075104454 0.035401704 6.2508868e-05)
(-0.013926567 0.045857923 8.8002134e-05)
(-0.021575545 0.054339577 0.00010835835)
(-0.030173984 0.060980737 0.00012451126)
(-0.039470432 0.065931027 0.00013739344)
(-0.049250392 0.069337066 0.0001479541)
(-0.059334563 0.071328916 0.00015685382)
(-0.069569193 0.07201198 0.00016447744)
(-0.079817784 0.071463743 0.00017097401)
(-0.08995438 0.069734582 0.00017628352)
(-0.099857895 0.066851843 0.00018016086)
(-0.10940753 0.062826377 0.00018220717)
(-0.11847929 0.057660719 0.00018190588)
(-0.12694354 0.0513582 0.00017865935)
(-0.13466358 0.043932408 0.00017183483)
(-0.14149527 0.035416508 0.00016081961)
(-0.14728773 0.025872078 0.00014508087)
(-0.15188522 0.015397151 0.00012423043)
(-0.15513044 0.0041331408 9.8095347e-05)
(-0.15686952 -0.0077297388 6.6791963e-05)
(-0.15695871 -0.019948712 3.0779453e-05)
(-0.15527294 -0.032227738 -9.087248e-06)
(-0.1517166 -0.044219937 -5.1541787e-05)
(-0.14623592 -0.055534432 -9.4919792e-05)
(-0.13883242 -0.06574854 -0.00013721646)
(-0.12957669 -0.074426049 -0.00017619347)
(-0.11862064 -0.081141905 -0.00020953404)
(-0.10620644 -0.085512832 -0.00023503748)
(-0.092669696 -0.087232263 -0.00025083424)
(-0.078434493 -0.086106638 -0.00025559489)
(-0.063998505 -0.082088767 -0.00024870227)
(-0.049907553 -0.075303139 -0.00023035091)
(-0.03672152 -0.066058208 -0.00020153048)
(-0.024974893 -0.054842337 -0.00016392858)
(-0.015129295 -0.042302596 -0.00012001961)
(-0.0075252497 -0.029206449 -7.2789791e-05)
(-0.0024479727 -0.016392507 -2.1612484e-05)
(-0.00028952918 -0.0047529603 3.4852736e-05)
(-0.00045734087 0.0097410943 1.1979456e-05)
(-0.0029120516 0.026721824 7.0159152e-05)
(-0.0079285128 0.041139993 0.00010795988)
(-0.014691842 0.053076359 0.0001349235)
(-0.022747085 0.062690525 0.00015665964)
(-0.031795003 0.070174956 0.00017423825)
(-0.04157214 0.07572901 0.00018870622)
(-0.051856179 0.079539723 0.00020110588)
(-0.06246399 0.081768381 0.00021215538)
(-0.073241185 0.082543019 0.00022226539)
(-0.084053027 0.08195605 0.00023158354)
(-0.094776934 0.080066124 0.00024002363)
(-0.10529602 0.076903336 0.00024728983)
(-0.11549373 0.072476857 0.00025290778)
(-0.12524959 0.066784197 0.00025625921)
(-0.13443595 0.059821342 0.00025661711)
(-0.14291576 0.051593232 0.00025319108)
(-0.15054132 0.042124147 0.00024518367)
(-0.15715419 0.03146771 0.00023185414)
(-0.16258625 0.019716283 0.0002125908)
(-0.16666235 0.0070094861 0.00018699371)
(-0.16920477 -0.0064584788 0.00015496373)
(-0.1700397 -0.020433131 0.00011678142)
(-0.16900618 -0.034596594 7.318302e-05)
(-0.16596779 -0.048567872 2.5404911e-05)
(-0.16082676 -0.06190781 -2.480322e-05)
(-0.15354029 -0.074130152 -7.521524e-05)
(-0.14413818 -0.084719988 -0.00012322593)
(-0.13274007 -0.093160501 -0.00016601378)
(-0.11957006 -0.098968094 -0.00020076486)
(-0.10496556 -0.10173459 -0.00022493994)
(-0.089377201 -0.10117339 -0.00023655529)
(-0.073356527 -0.097164379 -0.00023443726)
(-0.057529816 -0.08979081 -0.00021839971)
(-0.042559158 -0.079360818 -0.00018928021)
(-0.029094217 -0.066407901 -0.00014886394)
(-0.017711847 -0.051667897 -0.00010000182)
(-0.0088533983 -0.036031955 -4.6263119e-05)
(-0.0028973556 -0.020483671 1.3003027e-05)
(-0.00034758231 -0.0060727932 7.6650025e-05)
(-0.0004785831 0.011284402 6.0016417e-05)
(-0.0030447218 0.030760253 0.00012434164)
(-0.0082858392 0.047161925 0.00016386856)
(-0.015347858 0.060645875 0.00019220426)
(-0.023753709 0.07144171 0.00021531547)
(-0.033190519 0.079804966 0.00023440612)
(-0.043384554 0.08598921 0.00025063507)
(-0.054107064 0.090225946 0.00026513498)
(-0.065172276 0.092711165 0.00027868075)
(-0.076426348 0.093598339 0.00029170971)
(-0.087737602 0.09299688 0.00030437)
(-0.098988323 0.090975039 0.00031655144)
(-0.11006758 0.087566205 0.00032790906)
(-0.12086512 0.082777651 0.00033789255)
(-0.13126628 0.076600834 0.00034577799)
(-0.14114801 0.069022535 0.00035069961)
(-0.15037569 0.060036323 0.00035169267)
(-0.15880105 0.049653975 0.0003477491)
(-0.16626106 0.037916655 0.00033788323)
(-0.17257804 0.024905696 0.00032121056)
(-0.1775614 0.010752834 0.00029704228)
(-0.1810112 -0.0043503851 0.0002649916)
(-0.18272406 -0.020144485 0.00022507846)
(-0.18250192 -0.036296122 0.00017783735)
(-0.18016409 -0.052395379 0.00012439606)
(-0.17556268 -0.067957844 6.6526933e-05)
(-0.16860144 -0.082433346 6.6430365e-06)
(-0.15925733 -0.095223289 -5.2277034e-05)
(-0.14760322 -0.10570832 -0.00010684916)
(-0.13382936 -0.11328727 -0.00015353152)
(-0.11825991 -0.11742684 -0.00018894718)
(-0.10136005 -0.117719 -0.00021025041)
(-0.083728976 -0.11394045 -0.0002154891)
(-0.066075135 -0.10610523 -0.00020389251)
(-0.049173516 -0.094500283 -0.00017599294)
(-0.033807903 -0.079694591 -0.00013359574)
(-0.020694762 -0.062516551 -7.9944866e-05)
(-0.010401967 -0.043997486 -1.9288472e-05)
(-0.0034276638 -0.02529163 4.903689e-05)
(-0.00041802799 -0.0076370451 0.00012127678)
(-0.00049550414 0.012890264 0.00011892523)
(-0.003152142 0.034960551 0.00018975165)
(-0.0085773767 0.053422653 0.00023076384)
(-0.015885473 0.068512033 0.00026037068)
(-0.024580927 0.080531874 0.00028485212)
(-0.034339137 0.089804659 0.00030554286)
(-0.044877519 0.096642115 0.00032371202)
(-0.055961995 0.10132399 0.00034058161)
(-0.067405108 0.10408438 0.00035698521)
(-0.079054548 0.10510507 0.00037339115)
(-0.090782837 0.10451473 0.00038995384)
(-0.10247853 0.10239278 0.00040654542)
(-0.11403838 0.098776778 0.00042277757)
(-0.12536049 0.093672208 0.00043802791)
(-0.13633856 0.087063793 0.0004514669)
(-0.14685701 0.078927586 0.00046208442)
(-0.15678705 0.069243353 0.00046872788)
(-0.16598351 0.058006961 0.00047015443)
(-0.17428283 0.045242673 0.00046509663)
(-0.18150197 0.031015291 0.00045234565)
(-0.18743894 0.015442115 0.0004308561)
(-0.19187521 -0.0012954561 0.00039987019)
(-0.19458049 -0.018941075 0.00035905047)
(-0.19532064 -0.037154312 0.00030862341)
(-0.19386945 -0.055504143 0.00024950115)
(-0.1900245 -0.07346709 0.00018338252)
(-0.18362797 -0.090432198 0.00011279726)
(-0.17459167 -0.10571555 4.1070139e-05)
(-0.16292546 -0.11858707 -2.7819493e-05)
(-0.1487665 -0.1283118 -8.9496862e-05)
(-0.13240538 -0.13420643 -0.00013956648)
(-0.11430346 -0.13570892 -0.00017407494)
(-0.095094672 -0.13245528 -0.00019000775)
(-0.075565751 -0.12435299 -0.0001857286)
(-0.056612066 -0.11163695 -0.00016123277)
(-0.039170567 -0.094893605 -0.00011820454)
(-0.024125168 -0.075042743 -6.0263302e-05)
(-0.012201816 -0.053271634 7.5687442e-06)
(-0.0040520524 -0.03093369 8.5952042e-05)
(-0.00050334201 -0.0094905989 0.00016842895)
(-0.00050777312 0.01454494 0.00018910049)
(-0.0032327589 0.039289087 0.00026679509)
(-0.008799342 0.05987407 0.00030904446)
(-0.016297663 0.076615949 0.00033981755)
(-0.02521712 0.089893814 0.00036565805)
(-0.035222838 0.10010013 0.00038802729)
(-0.04602439 0.10760821 0.00040830392)
(-0.05738313 0.11274962 0.00042780063)
(-0.069110586 0.11579991 0.00044741494)
(-0.081056731 0.11697219 0.00046765437)
(-0.093099256 0.11641686 0.00048868968)
(-0.10513426 0.11422642 0.00051038616)
(-0.1170678 0.11044383 0.00053232275)
(-0.12880848 0.10507334 0.00055381384)
(-0.14026092 0.09809275 0.00057392947)
(-0.15132024 0.089466362 0.00059151472)
(-0.16186719 0.079158224 0.00060522054)
(-0.17176419 0.067145367 0.00061354975)
(-0.1808521 0.05343109 0.00061491953)
(-0.18894803 0.03805836 0.00060774643)
(-0.19584439 0.021123388 0.00059055892)
(-0.20130974 0.0027893912 0.00056213742)
(-0.20509203 -0.016699768 0.00052168288)
(-0.20692491 -0.037006795 0.00046898201)
(-0.20653817 -0.057690193 0.00040459667)
(-0.20367326 -0.078197297 0.00033001871)
(-0.19810473 -0.09786393 0.00024777951)
(-0.18966799 -0.11592398 0.00016147532)
(-0.17829295 -0.13153286 7.5670586e-05)
(-0.16404164 -0.14380866 -4.3508635e-06)
(-0.14714555 -0.1518937 -7.2998798e-05)
(-0.12803649 -0.15503615 -0.00012493842)
(-0.10736174 -0.15268653 -0.00015574635)
(-0.085974262 -0.14459738 -0.00016254892)
(-0.064891481 -0.13090774 -0.0001444698)
(-0.045220674 -0.11219129 -0.0001028388)
(-0.02804365 -0.089449561 -4.157456e-05)
(-0.014282272 -0.064038651 3.3445422e-05)
(-0.0047838603 -0.037541988 0.00012286032)
(-0.00060621074 -0.011685353 0.0002174587)
(-0.00051521952 0.016234009 0.00027078624)
(-0.0032859257 0.043710835 0.00035573177)
(-0.0089501955 0.066465899 0.00039896888)
(-0.016581152 0.0848954 0.00043079621)
(-0.025655815 0.099455308 0.00045796736)
(-0.03582987 0.11061026 0.00048206556)
(-0.046805533 0.1187982 0.00050458)
(-0.058339941 0.12440585 0.00052691862)
(-0.070243965 0.12775368 0.00055005217)
(-0.082370392 0.12908928 0.00057454001)
(-0.094602877 0.12858756 0.00060058404)
(-0.10684619 0.12635634 0.00062805844)
(-0.11901728 0.12244569 0.00065652509)