/*--------------------------------*- C++ -*----------------------------------*\
  =========                 |
  \\      /  F ield         | OpenFOAM: The Open Source CFD Toolbox
   \\    /   O peration     | Website:  https://openfoam.org
    \\  /    A nd           | Version:  7
     \\/     M anipulation  |
\*---------------------------------------------------------------------------*/
FoamFile
{
    version     2.0;
    format      ascii;
    class       volVectorField;
    location    "5";
    object      U_0;
}
// * * * * * * * * * * * * * * * * * * * * * * * * * * * * * * * * * * * * * //

dimensions      [0 1 -1 0 0 0 0];

internalField   nonuniform List<vector> 
16000
(
(5.7227842e-05 -5.6267066e-05 3.3825403e-08)
(0.00013399112 -4.345907e-05 5.6096247e-06)
(0.00010067393 7.4661531e-06 1.7207256e-05)
(-8.434499e-05 6.0555291e-05 3.1973622e-05)
(-0.00041451783 0.00010712485 4.6842826e-05)
(-0.00086418653 0.00014336875 6.027975e-05)
(-0.0014077245 0.00016962926 7.1112755e-05)
(-0.0020197888 0.00018746539 7.8636919e-05)
(-0.0026777895 0.00019846183 8.2465385e-05)
(-0.0033622726 0.00020391447 8.2402497e-05)
(-0.0040563806 0.00020475393 7.8361614e-05)
(-0.0047451172 0.00020155255 7.0322631e-05)
(-0.0054146241 0.00019457897 5.8304388e-05)
(-0.006051544 0.00018386857 4.2359962e-05)
(-0.0066425705 0.00016930219 2.2587306e-05)
(-0.0071742181 0.00015069431 -8.569432e-07)
(-0.0076328096 0.0001278805 -2.7736552e-05)
(-0.0080046974 0.00010079763 -5.7711551e-05)
(-0.0082767067 6.9557286e-05 -9.0319218e-05)
(-0.0084367638 3.4510535e-05 -0.00012496204)
(-0.0084746666 -3.7040435e-06 -0.00016090261)
(-0.0083829327 -4.414639e-05 -0.0001972694)
(-0.0081576842 -8.5549234e-05 -0.00023307591)
(-0.0077994785 -0.00012636913 -0.00026725577)
(-0.0073139728 -0.0001648421 -0.0002987102)
(-0.0067123636 -0.00019907488 -0.0003263664)
(-0.0060115157 -0.00022716536 -0.00034924407)
(-0.0052337192 -0.00024734091 -0.00036652622)
(-0.0044060432 -0.00025810187 -0.00037762809)
(-0.0035592874 -0.00025835448 -0.00038225764)
(-0.0027265798 -0.0002475178 -0.00038046172)
(-0.0019417064 -0.00022559123 -0.00037265381)
(-0.0012372759 -0.00019317573 -0.00035962303)
(-0.00064265426 -0.00015147143 -0.00034253146)
(-0.00018145306 -0.00010244058 -0.00032288811)
(0.00012855029 -4.9443385e-05 -0.00030236866)
(0.00028084911 4.2717919e-06 -0.00028322792)
(0.00028470189 5.0677799e-05 -0.00026757811)
(0.00017799401 7.5696738e-05 -0.00025793377)
(5.223578e-05 5.2154429e-05 -0.00023930277)
(4.6037102e-05 -0.00013441669 -5.6001347e-06)
(1.321561e-05 -1.0127892e-05 8.1317324e-08)
(-0.00030857683 0.00024698678 1.0024387e-05)
(-0.00096420597 0.00051992408 2.1998232e-05)
(-0.0019425638 0.00076671894 3.4142132e-05)
(-0.0032018642 0.00096918913 4.5087567e-05)
(-0.0046887775 0.0011239216 5.3851646e-05)
(-0.006347312 0.0012339106 5.9782854e-05)
(-0.0081239456 0.0013040689 6.2470581e-05)
(-0.0099694818 0.001339251 6.1672226e-05)
(-0.011839081 0.0013433998 5.7251773e-05)
(-0.01369145 0.0013192434 4.9147326e-05)
(-0.015487748 0.0012683277 3.7349856e-05)
(-0.017190541 0.0011912491 2.1895645e-05)
(-0.018763041 0.0010879969 2.8730578e-06)
(-0.020168761 0.00095835932 -1.9565378e-05)
(-0.021371655 0.00080235068 -4.5186707e-05)
(-0.022336756 0.00062062437 -7.3659645e-05)
(-0.023031276 0.0004148454 -0.00010453933)
(-0.023426106 0.00018799667 -0.00013725708)
(-0.023497622 -5.5410077e-05 -0.00017111694)
(-0.023229594 -0.00030923024 -0.00020530668)
(-0.022615144 -0.00056574462 -0.00023891048)
(-0.021658542 -0.00081585478 -0.00027094725)
(-0.020376561 -0.0010494434 -0.00030041288)
(-0.018799305 -0.0012558895 -0.00032633431)
(-0.016970326 -0.0014247118 -0.00034783122)
(-0.014945879 -0.0015462976 -0.00036418085)
(-0.012793274 -0.0016126562 -0.00037488057)
(-0.010588321 -0.0016181292 -0.00037970148)
(-0.0084119395 -0.0015599911 -0.00037872805)
(-0.0063460963 -0.0014388913 -0.00037237908)
(-0.0044692262 -0.0012591258 -0.00036140904)
(-0.0028512423 -0.0010288186 -0.00034689111)
(-0.0015482138 -0.00076039597 -0.00033017915)
(-0.00059740781 -0.00047191192 -0.00031283433)
(-1.0061486e-05 -0.0001863207 -0.00029660223)
(0.00023659824 5.9993312e-05 -0.00028325084)
(0.00021604727 0.00021198132 -0.00027474536)
(7.6090347e-05 0.00017705975 -0.00025379147)
(-4.7878464e-06 -0.00010489525 -1.7483415e-05)
(-0.00025065805 0.00031182231 -9.756657e-06)
(-0.00097408689 0.00095584807 4.0900675e-07)
(-0.0021716278 0.001630104 1.1162855e-05)
(-0.0038139848 0.0022455386 2.16325e-05)
(-0.0058474561 0.0027610562 3.0817413e-05)
(-0.0082011626 0.003163495 3.7989043e-05)
(-0.010798714 0.0034544759 4.2656923e-05)
(-0.013564864 0.003641817 4.4491436e-05)
(-0.016428192 0.0037347633 4.3282093e-05)
(-0.019321741 0.0037415408 3.8901054e-05)
(-0.022182542 0.0036682846 3.1279282e-05)
(-0.024950609 0.0035188489 2.0391179e-05)
(-0.027567915 0.0032951915 6.2532684e-06)
(-0.029977669 0.0029981074 -1.106888e-05)
(-0.032124096 0.0026281551 -3.1451032e-05)
(-0.033952832 0.0021866616 -5.4695505e-05)
(-0.035411939 0.0016767075 -8.0514085e-05)
(-0.036453541 0.0011040097 -0.00010851382)
(-0.037035944 0.00047762645 -0.00013818811)
(-0.037126107 -0.00018957555 -0.0001689148)
(-0.036702291 -0.00088072578 -0.00019996111)
(-0.035756655 -0.0015751798 -0.00023050171)
(-0.034297579 -0.002249039 -0.00025964795)
(-0.032351426 -0.0028760967 -0.00028648836)
(-0.029963544 -0.0034291408 -0.00031013891)
(-0.027198277 -0.0038815532 -0.00032980033)
(-0.024137839 -0.0042091061 -0.00034481842)
(-0.02087993 -0.0043918231 -0.0003547419)
(-0.017534119 -0.004415753 -0.00035937148)
(-0.014217054 -0.0042745116 -0.00035879469)
(-0.011046681 -0.0039704826 -0.00035340204)
(-0.0081356884 -0.0035156585 -0.00034388239)
(-0.0055844026 -0.0029322438 -0.00033119727)
(-0.003473365 -0.0022534103 -0.00031653504)
(-0.00185581 -0.001524787 -0.00030124715)
(-0.00074940795 -0.00080679384 -0.00028677722)
(-0.00012757973 -0.00018129786 -0.00027457529)
(9.1190531e-05 0.0002397646 -0.00026606353)
(5.6919297e-05 0.00028932195 -0.00024435269)
(-6.1885511e-05 8.3850787e-05 -3.2948803e-05)
(-0.00055325807 0.00099136044 -2.1758383e-05)
(-0.0017297388 0.0021689888 -9.7960037e-06)
(-0.003508716 0.0033646623 1.2248082e-06)
(-0.0058286794 0.0044514443 1.1314152e-05)
(-0.0086200782 0.005366254 1.9795019e-05)
(-0.011796278 0.0060854871 2.6180988e-05)
(-0.015264773 0.0066082366 3.016838e-05)
(-0.018933911 0.0069443163 3.1549359e-05)
(-0.02271542 0.0071069068 3.0183534e-05)
(-0.026525164 0.007108434 2.5977309e-05)
(-0.030282868 0.0069585997 1.8872242e-05)
(-0.033911309 0.0066638878 8.8364246e-06)
(-0.037335447 0.0062280722 -4.132995e-06)
(-0.040481881 0.0056533703 -2.0000407e-05)
(-0.043278854 0.0049419682 -3.867952e-05)
(-0.045656925 0.0040976986 -6.0017024e-05)
(-0.047550348 0.0031276894 -8.3774768e-05)
(-0.048899106 0.0020438343 -0.00010961461)
(-0.049651492 0.00086395475 -0.00013708819)
(-0.049767053 -0.00038745798 -0.00016563284)
(-0.04921971 -0.001679028 -0.00019457357)
(-0.048000798 -0.0029728738 -0.00022314009)
(-0.046121737 -0.0042256292 -0.00025049258)
(-0.043616081 -0.0053901171 -0.00027576063)
(-0.040540658 -0.0064176287 -0.00029809231)
(-0.036975567 -0.0072607076 -0.00031671067)
(-0.033022825 -0.0078762755 -0.00033097375)
(-0.028803545 -0.0082288853 -0.00034043228)
(-0.024453611 -0.008293854 -0.00034487859)
(-0.020117911 -0.0080600326 -0.00034438046)
(-0.015943316 -0.0075320232 -0.00033929488)
(-0.012070673 -0.0067317683 -0.00033025929)
(-0.0086261292 -0.0056996242 -0.00031815985)
(-0.005712231 -0.0044952949 -0.00030407763)
(-0.0033991379 -0.0031993159 -0.00028922016)
(-0.0017157302 -0.0019159516 -0.00027485971)
(-0.00064115014 -0.00077839641 -0.0002622536)
(-0.00010205392 4.303315e-05 -0.0002524167)
(2.2996778e-05 0.00031372447 -0.00022891063)
(-0.00011787039 0.0004399456 -4.9008426e-05)
(-0.00085967464 0.0020523454 -3.3979114e-05)
(-0.0025037386 0.0039087379 -1.9554742e-05)
(-0.0048776133 0.0057299967 -7.5588485e-06)
(-0.0078778643 0.0073664764 2.8174711e-06)
(-0.011413898 0.0087403998 1.1173957e-05)
(-0.01538195 0.009820975 1.7251785e-05)
(-0.01967461 0.010605793 2.0938035e-05)
(-0.024186595 0.011106676 2.2155875e-05)
(-0.028816304 0.011340428 2.084762e-05)
(-0.033466172 0.011323367 1.6966097e-05)
(-0.03804231 0.011068571 1.0470699e-05)
(-0.042453754 0.010585135 1.3253115e-06)
(-0.046611722 0.0098788311 -1.0494103e-05)
(-0.050429247 0.0089537147 -2.4986598e-05)
(-0.053821393 0.007814278 -4.2110327e-05)
(-0.056706186 0.0064678367 -6.1763474e-05)
(-0.059006269 0.0049268788 -8.3764292e-05)
(-0.060651254 0.0032111499 -0.00010783321)
(-0.06158063 0.0013492864 -0.00013357928)
(-0.061747058 -0.00062017519 -0.00016049257)
(-0.061119828 -0.0026485595 -0.00018794484)
(-0.059688248 -0.0046776378 -0.00021520122)
(-0.057464653 -0.0066411881 -0.0002414453)
(-0.054486754 -0.0084674703 -0.0002658167)
(-0.050819019 -0.010082583 -0.00028746009)
(-0.046552836 -0.011414564 -0.00030558301)
(-0.041805176 -0.012398018 -0.00031951812)
(-0.036715619 -0.012978967 -0.00032878374)
(-0.031441634 -0.013119583 -0.00033313545)
(-0.026152157 -0.012802432 -0.00033260176)
(-0.02101965 -0.012033933 -0.00032749787)
(-0.016210937 -0.010846843 -0.00031841461)
(-0.011877267 -0.0093018019 -0.00030618213)
(-0.0081442356 -0.0074882502 -0.00029180881)
(-0.0051021719 -0.0055254192 -0.00027640681)
(-0.0027966393 -0.0035642912 -0.00026114571)
(-0.0012199146 -0.0017906319 -0.0002471733)
(-0.00031790077 -0.00043016746 -0.00023507751)
(-1.3292367e-05 0.00022555169 -0.00020922877)
(-0.00016939863 0.00095499659 -6.3890435e-05)
(-0.0011542806 0.003493553 -4.4753772e-05)
(-0.0032614677 0.006179979 -2.7516039e-05)
(-0.0062263469 0.0087307168 -1.4098914e-05)
(-0.0098990962 0.010988862 -2.9696085e-06)
(-0.014164272 0.012871675 5.7051596e-06)
(-0.018899074 0.014346835 1.1870379e-05)
(-0.023981114 0.015413363 1.5593748e-05)
(-0.029292811 0.016086393 1.6927566e-05)
(-0.034721494 0.016386773 1.5898422e-05)
(-0.040158932 0.016334707 1.2507996e-05)
(-0.045500593 0.015946509 6.734787e-06)
(-0.050644742 0.01523376 -1.4622267e-06)
(-0.055491691 0.014204219 -1.2131008e-05)
(-0.059943513 0.012863932 -2.5309807e-05)
(-0.063904392 0.011220057 -4.1007019e-05)
(-0.067281723 0.0092839863 -5.917843e-05)
(-0.069987962 0.0070744101 -7.9703936e-05)
(-0.071943189 0.0046200384 -0.0001023656)
(-0.073078251 0.0019617162 -0.00012682957)
(-0.073338323 -0.00084628188 -0.00015263431)
(-0.072686658 -0.0037359593 -0.00017918813)
(-0.071108324 -0.0066263926 -0.00020577614)
(-0.068613619 -0.009425813 -0.00023158419)
(-0.065240838 -0.012034889 -0.00025573509)
(-0.061058109 -0.0143512 -0.00027733868)
(-0.056163959 -0.016274738 -0.00029555242)
(-0.050686307 -0.017714171 -0.00030964793)
(-0.044779643 -0.018593497 -0.00031907694)
(-0.038620207 -0.018858623 -0.00032352858)
(-0.032399183 -0.018483371 -0.00032296985)
(-0.026314017 -0.017474439 -0.00031766217)
(-0.020558235 -0.015874975 -0.00030815077)
(-0.015310293 -0.013766631 -0.00029522568)
(-0.010722314 -0.011270296 -0.00027985423)
(-0.0069095882 -0.0085461216 -0.00026310103)
(-0.0039401196 -0.0057936472 -0.00024609955)
(-0.0018254518 -0.0032517823 -0.00022996826)
(-0.00053708289 -0.0011996872 -0.0002149324)
(-4.7344811e-05 2.2521482e-05 -0.0001864544)
(-0.00021641776 0.001620546 -7.5980992e-05)
(-0.0014325092 0.0053031484 -5.2605103e-05)
(-0.0039879829 0.0089720356 -3.241802e-05)
(-0.0075289018 0.012356074 -1.7319786e-05)
(-0.011858042 0.015304924 -5.1275102e-06)
(-0.016833061 0.017741106 4.1906648e-06)
(-0.022310767 0.019637655 1.0760057e-05)
(-0.028153499 0.020999274 1.4813223e-05)
(-0.034232101 0.021846792 1.6522543e-05)
(-0.040424365 0.022206269 1.5993618e-05)
(-0.046613475 0.022102231 1.327347e-05)
(-0.052686643 0.021554269 8.3566024e-06)
(-0.058533842 0.02057631 1.1936227e-06)
(-0.064046881 0.019177928 -8.2916993e-06)
(-0.069119061 0.017367038 -2.0182164e-05)
(-0.073645533 0.015153438 -3.454247e-05)
(-0.07752445 0.012552697 -5.1392187e-05)
(-0.080658901 0.0095899661 -7.0678432e-05)
(-0.082959583 0.0063033506 -9.2249008e-05)
(-0.084348096 0.0027465511 -0.00011582884)
(-0.084760722 -0.0010095101 -0.00014100301)
(-0.084152448 -0.004876292 -0.00016721047)
(-0.082501116 -0.0087485269 -0.00019374519)
(-0.079811369 -0.012506779 -0.00021977867)
(-0.076118021 -0.016021465 -0.00024439439)
(-0.071488604 -0.019158418 -0.00026663927)
(-0.066024673 -0.021785836 -0.0002855881)
(-0.059861473 -0.023782304 -0.00030041604)
(-0.053165612 -0.025045458 -0.00031047236)
(-0.046130476 -0.025500717 -0.00031534641)
(-0.038969252 -0.025109403 -0.00031491632)
(-0.031905658 -0.023875567 -0.00030937219)
(-0.025162726 -0.021850942 -0.000299209)
(-0.018950299 -0.019137663 -0.00028518777)
(-0.013452313 -0.015888742 -0.00026826303)
(-0.0088149983 -0.012306791 -0.00024949754)
(-0.0051348604 -0.0086417087 -0.00023005233)
(-0.0024480172 -0.0051869161 -0.00021109506)
(-0.00075514268 -0.002275149 -0.00019257403)
(-7.8464378e-05 -0.00029273148 -0.00016129771)
(-0.00025965359 0.0024270302 -8.3944316e-05)
(-0.001693978 0.0074643349 -5.6225719e-05)
(-0.0046778069 0.012266105 -3.3095327e-05)
(-0.0087730572 0.016586493 -1.6198349e-05)
(-0.013736267 0.02029375 -2.7614477e-06)
(-0.019397731 0.023325489 7.4214528e-06)
(-0.025593419 0.025667403 1.463631e-05)
(-0.03217041 0.02733487 1.9264159e-05)
(-0.038988594 0.028357556 2.1585284e-05)
(-0.045917437 0.028768521 2.1775123e-05)
(-0.052833223 0.02859747 1.9918827e-05)
(-0.059616882 0.027867518 1.6020664e-05)
(-0.066152194 0.026594842 1.0016985e-05)
(-0.07232452 0.02479052 1.7972702e-06)
(-0.078020238 0.022463933 -8.7722898e-06)
(-0.083126971 0.019627081 -2.181965e-05)
(-0.087534654 0.016299274 -3.7435466e-05)
(-0.091137422 0.012511727 -5.564136e-05)
(-0.093836284 0.0083116311 -7.6357567e-05)
(-0.095542493 0.0037653852 -9.9372933e-05)
(-0.096181506 -0.0010393568 -0.00012432164)
(-0.095697252 -0.0059930979 -0.00015067353)
(-0.094056788 -0.010965236 -0.00017772546)
(-0.091254948 -0.015807058 -0.000204624)
(-0.087318502 -0.020356323 -0.00023039574)
(-0.082309731 -0.024443832 -0.00025400023)
(-0.076328837 -0.027901814 -0.00027439857)
(-0.069514684 -0.030573815 -0.00029063326)
(-0.062043393 -0.032325616 -0.00030191179)
(-0.054124342 -0.033056477 -0.0003076848)
(-0.045993301 -0.032709834 -0.00030770688)
(-0.037902692 -0.031282508 -0.00030207101)
(-0.030109273 -0.028831493 -0.0002912095)
(-0.022859994 -0.025477662 -0.00027585851)
(-0.016377355 -0.021406084 -0.00025698245)
(-0.010845631 -0.016863274 -0.00023568369)
(-0.0063964508 -0.01215202 -0.00021321016)
(-0.0030956371 -0.0076233562 -0.00019085243)
(-0.0009756572 -0.0036667858 -0.00016835938)
(-0.00010763389 -0.00071836941 -0.00013410306)
(-0.00029972252 0.0033653668 -8.6632489e-05)
(-0.0019392233 0.0099585031 -5.4436744e-05)
(-0.0053289239 0.016039305 -2.8449752e-05)
(-0.0099525083 0.021397429 -9.7277092e-06)
(-0.015522695 0.025930093 5.0499754e-06)
(-0.021843173 0.029599099 1.6247205e-05)
(-0.028729491 0.03241002 2.4295477e-05)
(-0.036013963 0.034394204 2.9709574e-05)
(-0.043546299 0.035593756 3.2865156e-05)
(-0.051188789 0.036050961 3.3996926e-05)
(-0.058812301 0.035801897 3.3219101e-05)
(-0.066293223 0.034873664 3.0537718e-05)
(-0.073510988 0.033284616 2.5867537e-05)
(-0.080346322 0.031046922 1.9056483e-05)
(-0.086680316 0.028170755 9.912087e-06)
(-0.092394365 0.024669458 -1.7652038e-06)
(-0.09737101 0.0205651 -1.6146288e-05)
(-0.10149565 0.015893886 -3.3337179e-05)
(-0.10465909 0.010711011 -5.334085e-05)
(-0.10676089 0.0050945665 -7.6019513e-05)
(-0.10771352 -0.00085182856 -0.00010106359)
(-0.10744672 -0.0069980953 -0.00012798646)
(-0.10591283 -0.013188047 -0.000156083)
(-0.10309231 -0.019242605 -0.00018447154)
(-0.098998843 -0.024964704 -0.00021211024)
(-0.093684255 -0.030146719 -0.00023785034)
(-0.087242456 -0.034580216 -0.0002605092)
(-0.079811711 -0.038067791 -0.00027895811)
(-0.071574639 -0.040436487 -0.0002922181)
(-0.062755269 -0.041551989 -0.00029955369)
(-0.053612649 -0.041332511 -0.00030055102)
(-0.044430815 -0.039761068 -0.000295169)
(-0.035505317 -0.036894813 -0.00028375401)
(-0.027127093 -0.032870287 -0.00026701236)
(-0.019565265 -0.0279039 -0.00024593424)
(-0.013050533 -0.022287715 -0.00022169806)
(-0.0077572871 -0.016381141 -0.00019569466)
(-0.0037867932 -0.010598183 -0.00016940804)
(-0.0012064346 -0.0053917134 -0.00014244918)
(-0.00013653463 -0.0012561392 -0.00010493957)
(-0.00033697668 0.0044270629 -8.3013295e-05)
(-0.0021685282 0.012766219 -4.615775e-05)
(-0.005939885 0.020266105 -1.7447277e-05)
(-0.011062549 0.026760507 3.0710951e-06)
(-0.017208518 0.032184662 1.9232753e-05)
(-0.024156442 0.036532842 3.1549358e-05)
(-0.031702562 0.039837394 4.0587002e-05)
(-0.039665383 0.042150955 4.6981878e-05)
(-0.047885446 0.043531877 5.1193459e-05)
(-0.056219064 0.044034175 5.350532e-05)
(-0.064533126 0.043701745 5.4051463e-05)
(-0.072701089 0.042566282 5.283127e-05)
(-0.080599758 0.040648297 4.9729988e-05)
(-0.088106918 0.037960525 4.4545967e-05)
(-0.095099914 0.034513015 3.7019398e-05)
(-0.10145516 0.03031921 2.6869249e-05)
(-0.10704862 0.025402411 1.3832879e-05)
(-0.11175717 0.019802082 -2.2932962e-06)
(-0.11546093 0.013579546 -2.160952e-05)
(-0.11804647 0.0068226901 -4.4066405e-05)
(-0.11941109 -0.00035061796 -6.9422721e-05)
(-0.11946719 -0.0077905347 -9.7265921e-05)
(-0.11814832 -0.01531629 -0.00012688147)
(-0.11541575 -0.022717909 -0.0001573669)
(-0.11126453 -0.02976166 -0.0001876074)
(-0.10573024 -0.036198085 -0.0002163296)
(-0.098894729 -0.041772943 -0.00024217812)
(-0.090890531 -0.046241001 -0.00026381163)
(-0.081902791 -0.049382189 -0.00028001293)
(-0.072167992 -0.051019243 -0.00028980218)
(-0.061968554 -0.051035512 -0.00029253836)
(-0.05162284 -0.04939124 -0.00028799423)
(-0.04147057 -0.046136438 -0.0002763922)
(-0.031854375 -0.041418574 -0.00025839112)
(-0.023099315 -0.035483835 -0.00023501329)
(-0.015492417 -0.028671677 -0.00020754378)
(-0.009260031 -0.021403206 -0.00017756983)
(-0.0045460218 -0.014163191 -0.00014683855)
(-0.001457476 -0.0074778515 -0.00011486742)
(-0.0001671096 -0.0019128022 -7.3691624e-05)
(-0.00037151554 0.0056037844 -7.2134777e-05)
(-0.0023815532 0.015867156 -3.0388022e-05)
(-0.0065085525 0.024918637 8.8224296e-07)
(-0.012097927 0.032643831 2.3135696e-05)
(-0.018784414 0.039024021 4.0693642e-05)
(-0.026323693 0.044093464 5.4210291e-05)
(-0.034494284 0.047917741 6.4378594e-05)
(-0.04310219 0.050575948 7.1946094e-05)
(-0.051980008 0.052146542 7.7446251e-05)
(-0.060979371 0.052697921 8.1202392e-05)
(-0.069964623 0.052283406 8.3359936e-05)
(-0.078807872 0.05094003 8.3903809e-05)
(-0.087384962 0.048690473 8.2682087e-05)
(-0.095572418 0.045547447 7.9435406e-05)
(-0.10324541 0.041519754 7.3827262e-05)
(-0.1102767 0.036619351 6.5483789e-05)
(-0.11653664 0.030868766 5.403662e-05)
(-0.12189405 0.024308367 3.9167731e-05)
(-0.12621821 0.017003004 2.0659681e-05)
(-0.12938172 0.0090476785 -1.5549405e-06)
(-0.13126436 0.00057192843 -2.7350017e-05)
(-0.13175871 -0.0082572663 -5.6312618e-05)
(-0.13077594 -0.017235624 -8.7835638e-05)
(-0.12825273 -0.026122666 -0.00012098743)
(-0.12415976 -0.034646823 -0.0001545783)
(-0.1185099 -0.042513669 -0.00018719996)
(-0.11136628 -0.049417796 -0.00021729791)
(-0.10284922 -0.055058463 -0.00024327455)
(-0.093140969 -0.059158656 -0.00026361494)
(-0.082486729 -0.061486681 -0.00027702346)
(-0.071191035 -0.061878767 -0.00028255556)
(-0.059608365 -0.060260526 -0.00027972567)
(-0.048127683 -0.056664723 -0.00026857402)
(-0.037151465 -0.051242734 -0.00024967663)
(-0.027071222 -0.044267621 -0.00022408086)
(-0.018241999 -0.036127962 -0.00019320091)
(-0.010953438 -0.027312848 -0.00015887191)
(-0.0054013566 -0.018388013 -0.00012317539)
(-0.0017399365 -0.0099662381 -8.5564757e-05)
(-0.00020138906 -0.0027008526 -4.0140361e-05)
(-0.00040322849 0.0068868977 -5.3114262e-05)
(-0.0025772742 0.019239627 -6.2028422e-06)
(-0.0070316575 0.029966443 2.7442022e-05)
(-0.013051936 0.039011802 5.1350637e-05)
(-0.020239256 0.046410232 7.030204e-05)
(-0.028328659 0.052242781 8.5090388e-05)
(-0.037082799 0.056614248 9.652995e-05)
(-0.046296709 0.059635116 0.00010547163)
(-0.055796402 0.061407754 0.00011251512)
(-0.065430194 0.062017662 0.00011801635)
(-0.07506134 0.061529319 0.00012212551)
(-0.084562176 0.059985938 0.00012480674)
(-0.093809271 0.057412447 0.00012586434)
(-0.10267962 0.05382091 0.00012497367)
(-0.1110479 0.049217628 0.00012171209)
(-0.11878481 0.043611219 0.00011560061)
(-0.12575632 0.037021038 0.00010614907)
(-0.13182409 0.029485453 9.2904417e-05)
(-0.1368468 0.021069552 7.5506644e-05)
(-0.14068268 0.011871941 5.3747701e-05)
(-0.14319316 0.0020302758 2.7628986e-05)
(-0.14424826 -0.0082749745 -2.5710611e-06)
(-0.14373301 -0.018818222 -3.6286027e-05)
(-0.14155524 -0.02932995 -7.260425e-05)
(-0.1376553 -0.039500524 -0.00011028251)
(-0.13201634 -0.048988062 -0.00014777754)
(-0.12467499 -0.057430818 -0.00018331521)
(-0.11573146 -0.064464411 -0.00021499816)
(-0.10535765 -0.069743815 -0.00024094715)
(-0.093801564 -0.072969334 -0.000259465)
(-0.081386433 -0.073914919 -0.000269206)
(-0.068502844 -0.072456244 -0.00026932817)
(-0.055593018 -0.068595143 -0.00025960402)
(-0.043127362 -0.062476713 -0.00024046642)
(-0.031575368 -0.054395801 -0.00021296122)
(-0.021373797 -0.044791083 -0.00017864249)
(-0.01288959 -0.034226753 -0.00013964222)
(-0.0063828319 -0.023361948 -9.845219e-05)
(-0.0020656239 -0.01291236 -5.4480006e-05)
(-0.0002414425 -0.0036388817 -4.0358876e-06)
(-0.00043184618 0.0082670782 -2.5137343e-05)
(-0.0027540744 0.022860032 2.7244231e-05)
(-0.0075048177 0.035375984 6.3062016e-05)
(-0.013916288 0.045824669 8.8535639e-05)
(-0.021559834 0.054300286 0.00010887281)
(-0.030152283 0.060936797 0.00012500579)
(-0.039442378 0.065883709 0.00013786605)
(-0.049215786 0.06928754 0.00014840175)
(-0.059293345 0.071278274 0.00015727333)
(-0.069521423 0.071961265 0.00016486453)
(-0.079763635 0.071413972 0.00017132604)
(-0.08989413 0.069686761 0.00017659702)
(-0.099791919 0.066806972 0.00018043333)
(-0.1093363 0.062785439 0.00018243882)
(-0.11840335 0.057624664 0.00018209608)
(-0.12686352 0.05132792 0.00017880848)
(-0.13458018 0.043908706 0.00017194647)
(-0.14140924 0.035400068 0.00016089828)
(-0.14719987 0.025863436 0.00014513061)
(-0.15179634 0.015396667 0.00012425663)
(-0.15504139 0.0041409845 9.8105595e-05)
(-0.15678116 -0.0077136038 6.6794334e-05)
(-0.15687189 -0.019924544 3.0780829e-05)
(-0.15518852 -0.03219602 -9.0812923e-06)
(-0.15163544 -0.044181375 -5.15262e-05)
(-0.14615883 -0.055489953 -9.4889952e-05)
(-0.1387602 -0.065699281 -0.00013716898)
(-0.12951007 -0.074373338 -0.00017612706)
(-0.11856027 -0.081087234 -0.00020944986)
(-0.10615286 -0.08545781 -0.00023493861)
(-0.092623294 -0.08717856 -0.00025072492)
(-0.078395469 -0.086055905 -0.00025548029)
(-0.063966835 -0.082042542 -0.00024858805)
(-0.04988297 -0.075262744 -0.00023024286)
(-0.036703501 -0.066024642 -0.00020143432)
(-0.024962676 -0.054816182 -0.00016384914)
(-0.01512191 -0.042283934 -0.00011996062)
(-0.0075215773 -0.02919482 -7.2753338e-05)
(-0.0024467739 -0.016386894 -2.160074e-05)
(-0.00028938485 -0.004751794 3.4836806e-05)
(-0.00045699288 0.009734009 1.2532138e-05)
(-0.0029099274 0.026702379 7.071254e-05)
(-0.0079228524 0.041110155 0.00010848683)
(-0.014681517 0.053038035 0.00013543011)
(-0.022731322 0.062645487 0.0001571461)
(-0.031773255 0.070124813 0.00017470321)
(-0.041544057 0.075675217 0.00018914694)
(-0.051821579 0.0794836 0.00020151836)
(-0.062422827 0.081711151 0.0002125355)
(-0.073193537 0.082485841 0.00022260787)
(-0.08399908 0.081900047 0.00023188521)
(-0.094716975 0.080012404 0.00024028038)
(-0.10523043 0.076852989 0.00024749876)
(-0.11542298 0.072430954 0.00025306888)
(-0.12517422 0.066743764 0.00025637167)
(-0.13435657 0.059787338 0.00025668127)
(-0.14283303 0.051566514 0.00025321085)
(-0.15045596 0.042105444 0.00024516422)
(-0.15706694 0.031457591 0.0002318003)
(-0.16249788 0.019715133 0.00021250885)
(-0.16657365 0.0070174891 0.00018689246)
(-0.16911653 -0.006441352 0.00015485278)
(-0.16995271 -0.020407134 0.0001166692)
(-0.16892125 -0.034562212 7.3076598e-05)
(-0.16588573 -0.048525818 2.531083e-05)
(-0.16074836 -0.061859028 -2.4878699e-05)
(-0.15346634 -0.074075813 -7.5266963e-05)
(-0.14406944 -0.084661475 -0.00012325104)
(-0.13267727 -0.093099388 -0.0001660124)
(-0.11951382 -0.098906113 -0.00020073961)
(-0.10491639 -0.10167357 -0.00022489532)
(-0.089335434 -0.10111519 -0.0002364972)
(-0.073322284 -0.097110769 -0.00023437239)
(-0.057502958 -0.089743376 -0.00021833527)
(-0.042539264 -0.079320826 -0.00018922357)
(-0.029080584 -0.066376179 -0.00014882185)
(-0.017703513 -0.051644736 -9.9979761e-05)
(-0.0088492033 -0.036017046 -4.6264721e-05)
(-0.0028959631 -0.020476082 1.2974293e-05)
(-0.00034740759 -0.0060709786 7.6592902e-05)
(-0.0004782423 0.011276207 6.0535649e-05)
(-0.0030426437 0.030738006 0.00012485996)
(-0.0082803051 0.047128009 0.00016436096)
(-0.015337769 0.060602535 0.00019267598)
(-0.023738311 0.071390994 0.0002157663)
(-0.033169286 0.079748706 0.00023483394)
(-0.043357154 0.085929042 0.0002510361)
(-0.054073329 0.090163342 0.00026550415)
(-0.065132176 0.092647478 0.00027901294)
(-0.076379974 0.093534842 0.00029199873)
(-0.08768515 0.092934801 0.00030461214)
(-0.098930088 0.090915579 0.00031674191)
(-0.11000395 0.087510542 0.00032804448)
(-0.12079654 0.082726934 0.00033797255)
(-0.13119329 0.076556156 0.00034580147)
(-0.14107119 0.068984911 0.00035066686)
(-0.15029568 0.060006655 0.00035160785)
(-0.1587185 0.049633025 0.00034761789)
(-0.16617665 0.037905015 0.00033771127)
(-0.17249248 0.024903765 0.00032100514)
(-0.17747538 0.010760807 0.00029681335)
(-0.18092543 -0.0043325315 0.00026475021)
(-0.18263924 -0.020116998 0.00022483471)
(-0.18241877 -0.036259479 0.00017760007)
(-0.18008334 -0.052350288 0.00012417363)
(-0.17548505 -0.067905244 6.6327616e-05)
(-0.1685277 -0.082374412 6.4741223e-06)
(-0.15918822 -0.095159425 -5.2410742e-05)
(-0.1475395 -0.10564115 -0.00010694638)
(-0.13377174 -0.11321861 -0.00015359412)
(-0.118209 -0.11735865 -0.0001889795)
(-0.10131633 -0.11765333 -0.00021025892)
(-0.083692733 -0.11387931 -0.00021548153)
(-0.066046387 -0.10605048 -0.00020387768)
(-0.049151983 -0.094453488 -0.00017598019)
(-0.033792979 -0.079656873 -0.00013359405)
(-0.020685534 -0.062488464 -7.9961774e-05)
(-0.010397265 -0.043978928 -1.9329375e-05)
(-0.0034260779 -0.025281807 4.8967085e-05)
(-0.00041782122 -0.0076344813 0.00012117834)
(-0.00049518122 0.012881002 0.00011940178)
(-0.0031501746 0.034935608 0.00019022661)
(-0.0085721358 0.053384812 0.00023121377)
(-0.015875913 0.068463865 0.0002608002)
(-0.024566332 0.080475693 0.0002852603)
(-0.034319008 0.089742517 0.0003059265)
(-0.044851543 0.096575824 0.00032406614)
(-0.055930021 0.10125517 0.00034090005)
(-0.067367121 0.10401451 0.00035726195)
(-0.079010649 0.10503554 0.00037361907)
(-0.090733231 0.10444687 0.00039012862)
(-0.10242352 0.10232788 0.00040666153)
(-0.11397833 0.098716096 0.00042283104)
(-0.12529587 0.093616959 0.00043801778)
(-0.13626987 0.087015128 0.00045139174)
(-0.14678481 0.078886565 0.00046194449)
(-0.15671191 0.069210909 0.00046852742)
(-0.16590605 0.057983877 0.0004698996)
(-0.17420365 0.045229549 0.00046479389)
(-0.18142167 0.031012531 0.00045200325)
(-0.18735813 0.015449913 0.0004304851)
(-0.19179448 -0.0012771233 0.00039948298)
(-0.19450042 -0.018912451 0.00035865894)
(-0.19524185 -0.037115863 0.00030823828)
(-0.19379251 -0.055456559 0.00024913296)
(-0.18995007 -0.073411287 0.00018304186)
(-0.18355671 -0.090369326 0.00011249381)
(-0.17452429 -0.105647 4.0810869e-05)
(-0.16286269 -0.11851446 -2.8031423e-05)
(-0.1487091 -0.128237 -8.9662071e-05)
(-0.13235407 -0.1341315 -0.00013968875)
(-0.11425884 -0.13563604 -0.00017416093)
(-0.095057213 -0.13238669 -0.0001900661)
(-0.075535659 -0.12429084 -0.00018576983)
(-0.056589241 -0.11158312 -0.00016126835)
(-0.039154551 -0.094849571 -0.00011824598)
(-0.024115143 -0.075009373 -6.0320433e-05)
(-0.012196642 -0.053249094 7.48846e-06)
(-0.0040502779 -0.030921388 8.5841939e-05)
(-0.00050310201 -0.0094871863 0.00016829027)
(-0.0005074797 0.014534687 0.00018952645)
(-0.0032309683 0.039261635 0.00026721907)
(-0.0087945635 0.059832572 0.00030944502)
(-0.016288932 0.076563277 0.00034019842)
(-0.025203773 0.089832531 0.00036601715)
(-0.035204409 0.10003249 0.00038836016)
(-0.046000591 0.1075362 0.00040860439)
(-0.057353828 0.11267501 0.00042806152)
(-0.069075776 0.1157243 0.00044762934)
(-0.081016525 0.11689708 0.00046781426)
(-0.093053866 0.11634367 0.00048878999)
(-0.10508398 0.11415653 0.00051042059)
(-0.11701302 0.11037857 0.00053228668)
(-0.12874962 0.10501399 0.0005537056)
(-0.14019848 0.098040493 0.00057374731)
(-0.15125473 0.089422297 0.00059125894)
(-0.16179914 0.079123303 0.00060489547)
(-0.17169415 0.067120374 0.00061316185)
(-0.18078059 0.053416623 0.00061447605)
(-0.18887555 0.03805481 0.00060725664)
(-0.19577144 0.021130935 0.00059003489)
(-0.20123677 0.0028079996 0.00056159284)
(-0.20501948 -0.016670345 0.00052113117)
(-0.20685323 -0.036967016 0.000468436)
(-0.20646782 -0.057640722 0.0004040692)
(-0.20360471 -0.078139013 0.00032952273)
(-0.19803852 -0.097797933 0.00024732715)
(-0.18960473 -0.11585161 0.00016107594)
(-0.17823333 -0.13145569 7.532942e-05)
(-0.16398639 -0.14372854 -4.6326249e-06)
(-0.14709547 -0.15181272 -7.3223791e-05)
(-0.1279923 -0.15495661 -0.00012511295)
(-0.10732407 -0.15261085 -0.00015587964)
(-0.085943549 -0.14452798 -0.00016265302)
(-0.064867842 -0.13084685 -0.00014455835)
(-0.04520385 -0.11214076 -0.00010292594)
(-0.028032972 -0.089410646 -4.167274e-05)
(-0.014276683 -0.064011855 3.3326317e-05)
(-0.0047819095 -0.037526989 0.00012271135)
(-0.00060593709 -0.011680996 0.00021728133)
(-0.00051496727 0.016222874 0.00027115441)
(-0.0032843769 0.043681145 0.00035609783)
(-0.0089460459 0.066421127 0.00039931408)
(-0.016573545 0.084838682 0.00043112269)
(-0.025644152 0.099389431 0.00045827164)
(-0.035813728 0.11053767 0.00048234188)
(-0.046784652 0.11872103 0.00050482109)
(-0.058314203 0.12432602 0.00052711635)
(-0.070213379 0.12767292 0.00055019869)
(-0.082335076 0.12900918 0.00057462642)
(-0.094563048 0.12850964 0.0006006044)
(-0.10680215 0.12628206 0.00062800564)
(-0.11896939 0.12237643 0.00065639393)