/*--------------------------------*- C++ -*----------------------------------*\
  =========                 |
  \\      /  F ield         | OpenFOAM: The Open Source CFD Toolbox
   \\    /   O peration     | Website:  https://openfoam.org
    \\  /    A nd           | Version:  7
     \\/     M anipulation  |
\*---------------------------------------------------------------------------*/
FoamFile
{
    version     2.0;
    format      ascii;
    class       volScalarField;
    location    "2.8";
    object      p;
}
// * * * * * * * * * * * * * * * * * * * * * * * * * * * * * * * * * * * * * //

dimensions      [1 -1 -2 0 0 0 0];

internalField   nonuniform List<scalar> 
19968
(
1
1
1
1
1
1
1
1
1
1
1
1
1
1
1
1
1
1
1
1
1
1
1
1
1
1
1
1
1
1
1
1
1
1
1
1
1
1
1
1
1
1
1
1
1
1
1
1
1
5.32075
10.3271
10.4834
10.5359
10.6042
10.6612
10.7092
10.7512
10.795
10.8473
10.91
10.9779
11.042
11.0966
11.1411
11.1788
11.2148
11.2551
11.3042
11.3608
11.4171
11.4638
11.4978
11.5235
11.5518
11.5852
11.6239
11.6662
11.7067
11.7425
11.7728
11.7989
11.8246
11.8506
11.8749
11.896
11.9145
11.9322
11.9516
11.9735
11.9956
12.0138
12.0268
12.0325
12.0331
12.0332
12.0311
1
1
1
1
1
1
1
1
1
1
1
1
1
1
1
1
1
1
1
1
1
1
1
1
1
1
1
1
1
1
1
1
1
1
1
1
1
1
1
1
1
1
1
1
1
1
1
1
1
5.24268
10.3009
10.4722
10.5305
10.6013
10.6598
10.7083
10.7503
10.794
10.8463
10.909
10.9769
11.0406
11.095
11.14
11.178
11.2135
11.2532
11.3009
11.3552
11.4098
11.4561
11.4918
11.52
11.5502
11.5839
11.6214
11.6618
11.7008
11.7361
11.7669
11.794
11.8205
11.8466
11.8704
11.8911
11.9095
11.9273
11.9464
11.9678
11.9893
12.0072
12.0202
12.026
12.0267
12.0266
12.0245
1
1
1
1
1
1
1
1
1
1
1
1
1
1
1
1
1
1
1
1
1
1
1
1
1
1
1
1
1
1
1
1
1
1
1
1
1
1
1
1
1
1
1
1
1
1
1
1
1
5.06577
10.2573
10.4585
10.5194
10.5925
10.6523
10.7019
10.7446
10.7886
10.841
10.9038
10.9714
11.0347
11.0892
11.1352
11.1742
11.2097
11.2491
11.2951
11.3462
11.3982
11.4434
11.4809
11.5124
11.5455
11.5804
11.6168
11.6549
11.6917
11.7261
11.7574
11.7859
11.8133
11.8395
11.8629
11.8832
11.9014
11.9189
11.9375
11.9578
11.9783
11.9959
12.009
12.015
12.0157
12.0146
12.012
1
1
1
1
1
1
1
1
1
1
1
1
1
1
1
1
1
1
1
1
1
1
1
1
1
1
1
1
1
1
1
1
1
1
1
1
1
1
1
1
1
1
1
1
1
1
1
1
1
4.77918
10.1797
10.4491
10.5098
10.5831
10.6435
10.6939
10.7368
10.7806
10.8328
10.8952
10.9624
11.0255
11.0798
11.1263
11.1662
11.2016
11.2408
11.2854
11.3333
11.3826
11.4262
11.465
11.4997
11.5357
11.5719
11.6076
11.6435
11.6783
11.7116
11.7433
11.7731
11.8014
11.8278
11.8506
11.8706
11.8887
11.906
11.9237
11.9427
11.9618
11.9785
11.991
11.9967
11.9975
11.9953
11.9928
1
1
1
1
1
1
1
1
1
1
1
1
1
1
1
1
1
1
1
1
1
1
1
1
1
1
1
1
1
1
1
1
1
1
1
1
1
1
1
1
1
1
1
1
1
1
1
1
1
4.38077
10.0569
10.4396
10.4961
10.5688
10.6294
10.6815
10.7256
10.7696
10.8212
10.8827
10.9486
11.0107
11.0639
11.1103
11.1513
11.1876
11.2273
11.2714
11.3171
11.3639
11.4056
11.4443
11.4806
11.5182
11.5559
11.5918
11.6265
11.6597
11.6919
11.7235
11.754
11.7829
11.8092
11.8318
11.8515
11.8698
11.887
11.9043
11.9222
11.9397
11.9554
11.9668
11.9719
11.9731
11.9708
11.9695
1
1
1
1
1
1
1
1
1
1
1
1
1
1
1
1
1
1
1
1
1
1
1
1
1
1
1
1
1
1
1
1
1
1
1
1
1
1
1
1
1
1
1
1
1
1
1
1
1
3.86076
9.86841
10.427
10.4781
10.5512
10.6118
10.6648
10.7103
10.7548
10.806
10.8663
10.9308
10.9915
11.0431
11.0882
11.1297
11.1673
11.2076
11.2517
11.2963
11.3415
11.3814
11.4188
11.455
11.4928
11.5312
11.5677
11.6025
11.6353
11.667
11.6982
11.7289
11.758
11.7842
11.8065
11.826
11.8443
11.8617
11.8786
11.8954
11.9111
11.9246
11.9342
11.9389
11.9407
11.9397
11.9406
1
1
1
1
1
1
1
1
1
1
1
1
1
1
1
1
1
1
1
1
1
1
1
1
1
1
1
1
1
1
1
1
1
1
1
1
1
1
1
1
1
1
1
1
1
1
1
1
1
3.2318
9.58707
10.4151
10.4588
10.5324
10.5917
10.6438
10.6898
10.7345
10.7849
10.8435
10.9066
10.9663
11.017
11.0606
11.1021
11.1409
11.1819
11.2264
11.2698
11.313
11.3512
11.3868
11.4221
11.4586
11.4965
11.5329
11.568
11.6009
11.6325
11.6634
11.6938
11.7225
11.7483
11.7701
11.7889
11.8068
11.8246
11.8419
11.8582
11.8724
11.8839
11.8919
11.8971
11.901
11.9032
11.9073
1
1
1
1
1
1
1
1
1
1
1
1
1
1
1
1
1
1
1
1
1
1
1
1
1
1
1
1
1
1
1
1
1
1
1
1
1
1
1
1
1
1
1
1
1
1
1
1
1
2.51273
9.13864
10.4004
10.45
10.5212
10.5772
10.6272
10.672
10.7158
10.7643
10.8206
10.8818
10.9405
10.9904
11.0327
11.0733
11.1125
11.1534
11.1975
11.2398
11.2806
11.3174
11.3512
11.3855
11.42
11.4565
11.492
11.5267
11.5595
11.5911
11.6217
11.6517
11.6798
11.7045
11.725
11.7422
11.759
11.7765
11.7937
11.8091
11.8214
11.8301
11.836
11.8412
11.8476
11.8532
11.8597
1
1
1
1
1
1
1
1
1
1
1
1
1
1
1
1
1
1
1
1
1
1
1
1
1
1
1
1
1
1
1
1
1
1
1
1
1
1
1
1
1
1
1
1
1
1
1
1
1
1.81241
8.41223
10.4104
10.4206
10.4891
10.5434
10.5949
10.6405
10.6841
10.7308
10.7849
10.8451
10.9043
10.9559
10.9987
11.0383
11.0773
11.1173
11.1612
11.2035
11.2423
11.2785
11.3112
11.3451
11.3781
11.4128
11.4467
11.4805
11.5128
11.5443
11.5746
11.6038
11.6303
11.6526
11.6704
11.685
11.6994
11.7153
11.7317
11.746
11.7563
11.763
11.7673
11.7724
11.7809
11.7897
11.7977
1
1
1
1
1
1
1
1
1
1
1
1
1
1
1
1
1
1
1
1
1
1
1
1
1
1
1
1
1
1
1
1
1
1
1
1
1
1
1
1
1
1
1
1
1
1
1
1
1
1.22524
7.30727
10.3942
10.404
10.4676
10.5262
10.5811
10.6283
10.6714
10.7146
10.7633
10.8174
10.8724
10.9216
10.9622
10.9984
11.0346
11.0712
11.1117
11.1523
11.1886
11.2234
11.2543
11.2867
11.3181
11.3505
11.3819
11.4134
11.4447
11.4759
11.5066
11.5356
11.5612
11.5821
11.5985
11.6118
11.6248
11.6394
11.6546
11.6673
11.6761
11.6813
11.6843
11.6887
11.6975
11.7077
11.7156
1
1
1
1
1
1
1
1
1
1
1
1
1
1
1
1
1
1
1
1
1
1
1
1
1
1
1
1
1
1
1
1
1
1
1
1
1
1
1
1
1
1
1
1
1
1
1
1
1
1.00352
5.80582
10.2123
10.3073
10.3629
10.4301
10.4886
10.5391
10.5838
10.6277
10.6759
10.7298
10.7855
10.837
10.8801
10.9173
10.9534
10.99
11.0297
11.0714
11.1091
11.1435
11.174
11.2056
11.2375
11.2689
11.299
11.3283
11.3584
11.3893
11.4199
11.448
11.4716
11.4895
11.5027
11.513
11.5231
11.535
11.548
11.5594
11.5677
11.5739
11.5779
11.5824
11.591
11.601
11.6079
1
1
1
1
1
1
1
1
1
1
1
1
1
1
1
1
1
1
1
1
1
1
1
1
1
1
1
1
1
1
1
1
1
1
1
1
1
1
1
1
1
1
1
1
1
1
1
1
1
1.00001
3.99181
9.77866
10.2475
10.323
10.3969
10.4551
10.5042
10.5466
10.5869
10.6298
10.6779
10.7287
10.7766
10.8169
10.8506
10.8825
10.9152
10.9507
10.989
11.0256
11.0576
11.0862
11.1141
11.144
11.1731
11.2003
11.2257
11.2519
11.2802
11.309
11.3351
11.3562
11.3716
11.3826
11.3916
11.4008
11.4112
11.4223
11.4318
11.4384
11.4415
11.4409
11.4408
11.4439
11.4492
11.4529
1
1
1
1
1
1
1
1
1
1
1
1
1
1
1
1
1
1
1
1
1
1
1
1
1
1
1
1
1
1
1
1
1
1
1
1
1
1
1
1
1
1
1
1
1
1
1
1
1
1
2.19302
8.68832
10.2257
10.2633
10.3468
10.4024
10.452
10.4944
10.5335
10.5736
10.6178
10.6652
10.7113
10.7508
10.7832
10.8121
10.8411
10.872
10.9053
10.9384
10.9666
10.9911
11.0132
11.0371
11.0613
11.0837
11.104
11.125
11.1486
11.1735
11.1957
11.2121
11.2223
11.2275
11.2301
11.2317
11.2334
11.2355
11.2378
11.24
11.2416
11.2428
11.2433
11.2456
11.2479
11.25
1
1
1
1
1
1
1
1
1
1
1
1
1
1
1
1
1
1
1
1
1
1
1
1
1
1
1
1
1
1
1
1
1
1
1
1
1
1
1
1
1
1
1
1
1
1
1
1
1
1
1.0484
6.45918
10.2701
10.2812
10.3146
10.3568
10.3991
10.4361
10.4699
10.5037
10.5408
10.5819
10.6237
10.661
10.6918
10.7181
10.7435
10.7699
10.7979
10.8269
10.8525
10.8734
10.8904
10.9069
10.9244
10.9411
10.9566
10.9717
10.9885
11.0063
11.0221
11.0328
11.0377
11.0372
11.0337
11.0287
11.0238
11.0199
11.0172
11.015
11.0104
11.001
10.9824
10.9573
10.9301
10.9062
1
1
1
1
1
1
1
1
1
1
1
1
1
1
1
1
1
1
1
1
1
1
1
1
1
1
1
1
1
1
1
1
1
1
1
1
1
1
1
1
1
1
1
1
1
1
1
1
1
1
1.00007
3.66051
9.48218
10.1604
10.194
10.2465
10.2905
10.3306
10.366
10.3996
10.4346
10.4733
10.5148
10.5544
10.588
10.6151
10.6381
10.66
10.683
10.7082
10.7321
10.7505
10.7631
10.772
10.7803
10.7891
10.7978
10.8054
10.8124
10.8187
10.8236
10.8243
10.8192
10.8076
10.7897
10.767
10.7398
10.7082
10.6733
10.6356
10.5947
10.5506
10.5091
10.4688
10.4445
10.4313
1
1
1
1
1
1
1
1
1
1
1
1
1
1
1
1
1
1
1
1
1
1
1
1
1
1
1
1
1
1
1
1
1
1
1
1
1
1
1
1
1
1
1
1
1
1
1
1
1
1
1
1.32874
7.43307
10.1456
10.1601
10.2065
10.248
10.2855
10.3163
10.342
10.3664
10.3931
10.423
10.4537
10.4805
10.5013
10.5173
10.5311
10.5455
10.5624
10.5803
10.5942
10.6021
10.6039
10.6018
10.5994
10.5991
10.5985
10.5941
10.5873
10.5775
10.563
10.5428
10.5156
10.4801
10.4361
10.3841
10.3247
10.2611
10.1971
10.134
10.0694
9.98484
9.90245
9.77869
9.86943
1
1
1
1
1
1
1
1
1
1
1
1
1
1
1
1
1
1
1
1
1
1
1
1
1
1
1
1
1
1
1
1
1
1
1
1
1
1
1
1
1
1
1
1
1
1
1
1
1
1
1
1.00038
4.53528
9.71126
9.9836
10.0494
10.0979
10.1423
10.1801
10.2099
10.2353
10.2602
10.2867
10.3147
10.3407
10.3614
10.3762
10.3864
10.3948
10.405
10.4185
10.4309
10.4378
10.4376
10.4298
10.4188
10.4088
10.3994
10.3862
10.3678
10.3435
10.3128
10.2757
10.2302
10.174
10.1048
10.0201
9.91866
9.79675
9.65345
9.47031
9.22782
8.85516
8.2975
7.35964
5.46088
1
1
1
1
1
1
1
1
1
1
1
1
1
1
1
1
1
1
1
1
1
1
1
1
1
1
1
1
1
1
1
1
1
1
1
1
1
1
1
1
1
1
1
1
1
1
1
1
1
1
1
0.999921
2.0047
8.33292
9.97111
9.98165
10.0281
10.071
10.1092
10.1388
10.1624
10.1832
10.2038
10.2258
10.2479
10.2668
10.2807
10.289
10.2928
10.2961
10.3016
10.3075
10.3096
10.305
10.2908
10.271
10.2505
10.2313
10.209
10.18
10.1422
10.0956
10.0406
9.97606
9.89804
9.80372
9.68595
9.54477
9.36781
9.15751
8.88228
8.53092
8.01982
7.34627
6.1254
4.52746
1
1
1
1
1
1
1
1
1
1
1
1
1
1
1
1
1
1
1
1
1
1
1
1
1
1
1
1
1
1
1
1
1
1
1
1
1
1
1
1
1
1
1
1
1
1
1
1
1
1
1
0.999994
1.03791
5.63236
9.86744
9.92668
9.95713
9.99113
10.0254
10.0544
10.0776
10.0974
10.1155
10.1322
10.1479
10.1611
10.1717
10.1788
10.1805
10.1786
10.1762
10.1743
10.17
10.1594
10.1396
10.1124
10.0822
10.0528
10.0212
9.98222
9.9322
9.87092
9.79798
9.71423
9.61401
9.49543
9.34789
9.17226
8.95511
8.69442
8.36918
7.95109
7.42276
6.66209
5.66439
4.52742
1
1
1
1
1
1
1
1
1
1
1
1
1
1
1
1
1
1
1
1
1
1
1
1
1
1
1
1
1
1
1
1
1
1
1
1
1
1
1
1
1
1
1
1
1
1
1
1
1
1
1
1
1.00001
2.52116
8.71478
9.83896
9.87823
9.91631
9.94895
9.97811
10.0015
10.0201
10.0345
10.0425
10.0499
10.0571
10.0645
10.0708
10.0732
10.0695
10.0614
10.051
10.0366
10.0165
9.98953
9.95528
9.91632
9.87703
9.83548
9.78707
9.72594
9.65128
9.56179
9.45991
9.34021
9.20053
9.03136
8.83037
8.58967
8.30139
7.95549
7.52466
6.99329
6.337
5.58055
4.71459
1
1
1
1
1
1
1
1
1
1
1
1
1
1
1
1
1
1
1
1
1
1
1
1
1
1
1
1
1
1
1
1
1
1
1
1
1
1
1
1
1
1
1
1
1
1
1
1
1
1
1
1
0.999999
1.07549
6.05894
9.78911
9.86479
9.87003
9.89105
9.91265
9.92994
9.94298
9.95285
9.95416
9.9543
9.95413
9.95418
9.95547
9.95605
9.9511
9.93973
9.92245
9.89883
9.87004
9.83616
9.79643
9.75076
9.70233
9.6501
9.5921
9.52111
9.43566
9.33344
9.21657
9.08144
8.92522
8.74164
8.52693
8.2768
7.98258
7.64053
7.22484
6.74317
6.19543
5.60806
4.93007
1
1
1
1
1
1
1
1
1
1
1
1
1
1
1
1
1
1
1
1
1
1
1
1
1
1
1
1
1
1
1
1
1
1
1
1
1
1
1
1
1
1
1
1
1
1
1
1
1
1
1
1
1
1.00012
2.60995
8.6387
9.72018
9.7433
9.78828
9.80913
9.82236
9.83409
9.84379
9.84275
9.83981
9.8378
9.83537
9.83442
9.83375
9.82878
9.81581
9.7933
9.76101
9.7221
9.67957
9.63477
9.58491
9.53018
9.46904
9.40179
9.32272
9.22966
9.11957
8.99347
8.84892
8.68303
8.49204
8.27303
8.02376
7.73684
7.40967
7.03101
6.60653
6.14616
5.66841
5.12034
1
1
1
1
1
1
1
1
1
1
1
1
1
1
1
1
1
1
1
1
1
1
1
1
1
1
1
1
1
1
1
1
1
1
1
1
1
1
1
1
1
1
1
1
1
1
1
1
1
1
1
1
1
1
1.08012
5.79091
9.6077
9.70828
9.72583
9.73453
9.73804
9.74603
9.75402
9.75401
9.75031
9.74549
9.737
9.7288
9.72088
9.71158
9.6959
9.67017
9.63241
9.58624
9.53548
9.48408
9.42886
9.36796
9.29907
9.2225
9.13514
9.03514
8.91926
8.78807
8.63885
8.46894
8.27639
8.0587
7.8197
7.54466
7.24134
6.905
6.53594
6.13718
5.73255
5.27508
1
1
1
1
1
1
1
1
1
1
1
1
1
1
1
1
1
1
1
1
1
1
1
1
1
1
1
1
1
1
1
1
1
1
1
1
1
1
1
1
1
1
1
1
1
1
1
1
1
1
1
1
1
1
1.00017
2.12139
8.21234
9.63301
9.60935
9.63292
9.64416
9.654
9.65674
9.65324
9.64744
9.64032
9.62861
9.61459
9.5992
9.58325
9.56299
9.53481
9.49574
9.44826
9.39331
9.3364
9.27585
9.2099
9.13604
9.05273
8.95854
8.85265
8.73353
8.60179
8.45304
8.28512
8.09681
7.88435
7.65835
7.39565
7.11847
6.82001
6.49588
6.14443
5.79572
5.4047
1
1
1
1
1
1
1
1
1
1
1
1
1
1
1
1
1
1
1
1
1
1
1
1
1
1
1
1
1
1
1
1
1
1
1
1
1
1
1
1
1
1
1
1
1
1
1
1
1
1
1
1
1
1
1
1.03726
4.7674
9.31748
9.55905
9.53249
9.54426
9.55546
9.56319
9.56533
9.56207
9.55421
9.54056
9.52166
9.49771
9.47392
9.44606
9.41146
9.37094
9.324
9.26682
9.20525
9.13838
9.066
8.9863
8.89685
8.79677
8.68623
8.56534
8.43383
8.28764
8.12409
7.94383
7.73813
7.52287
7.2781
7.02481
6.75927
6.47014
6.1627
5.85362
5.51607
1
1
1
1
1
1
1
1
1
1
1
1
1
1
1
1
1
1
1
1
1
1
1
1
1
1
1
1
1
1
1
1
1
1
1
1
1
1
1
1
1
1
1
1
1
1
1
1
1
1
1
1
1
1
1
1.00004
1.3652
7.22458
9.60768
9.52191
9.49871
9.48658
9.47921
9.47344
9.46465
9.45222
9.43548
9.41337
9.38463
9.35688
9.32491
9.2847
9.24171
9.19496
9.13704
9.07416
9.00468
8.92953
8.84714
8.75426
8.6494
8.53528
8.41379
8.28322
8.14163
7.98341
7.81304
7.61548
7.41064
7.18595
6.95027
6.71123
6.4497
6.18185
5.90266
5.6099
1
1
1
1
1
1
1
1
1
1
1
1
1
1
1
1
1
1
1
1
1
1
1
1
1
1
1
1
1
1
1
1
1
1
1
1
1
1
1
1
1
1
1
1
1
1
1
1
1
1
1
1
1
1
1
1
1.00398
3.28951
8.69373
9.32326
9.35966
9.37575
9.3756
9.36908
9.35951
9.34516
9.32615
9.30078
9.26903
9.2405
9.20754
9.16476
9.11816
9.06892
9.01025
8.94716
8.87687
8.801
8.71719
8.62125
8.51389
8.39725
8.2768
8.14748
8.01073
7.85726
7.69588
7.50938
7.31783
7.11097
6.89165
6.67345
6.43611
6.20056
5.94403
5.68699
1
1
1
1
1
1
1
1
1
1
1
1
1
1
1
1
1
1
1
1
1
1
1
1
1
1
1
1
1
1
1
1
1
1
1
1
1
1
1
1
1
1
1
1
1
1
1
1
1
1
1
1
1
1
1
1
1
1.1412
5.37287
9.17441
9.31411
9.32171
9.31076
9.29509
9.27886
9.26182
9.24016
9.21331
9.1806
9.14873
9.11341
9.06606
9.01356
8.95753
8.89575
8.83074
8.75869
8.68232
8.59749
8.50066
8.39384
8.27641
8.15803
8.02798
7.89315
7.74443
7.59066
7.41592
7.23869
7.04672
6.84586
6.64377
6.42878
6.21454
5.97912
5.75042
1
1
1
1
1
1
1
1
1
1
1
1
1
1
1
1
1
1
1
1
1
1
1
1
1
1
1
1
1
1
1
1
1
1
1
1
1
1
1
1
1
1
1
1
1
1
1
1
1
1
1
1
1
1
1
1
1
1.00065
1.51478
7.20793
9.31506
9.25305
9.2316
9.20059
9.18037
9.16241
9.14321
9.11837
9.08718
9.05312
9.01654
8.96754
8.9118
8.85101
8.78604
8.71814
8.64407
8.56504
8.47993
8.38488
8.27964
8.16564
8.04648
7.91877
7.78582
7.64269
7.49603
7.33296
7.17008
6.9922
6.81039
6.62194
6.42615
6.22538
6.01297
5.80457
1
1
1
1
1
1
1
1
1
1
1
1
1
1
1
1
1
1
1
1
1
1
1
1
1
1
1
1
1
1
1
1
1
1
1
1
1
1
1
1
1
1
1
1
1
1
1
1
1
1
1
1
1
1
1
1
1
1
1.00781
3.04834
8.43141
9.11286
9.075
9.06914
9.06315
9.05608
9.04251
9.02376
8.99509
8.95955
8.92104
8.87259
8.81541
8.75269
8.68592
8.61545
8.53893
8.45612
8.36965
8.2783
8.17586
8.06713
7.95018
7.8249
7.6933
7.55551
7.41458
7.26149
7.10929
6.94404
6.77762
6.60087
6.4207
6.23204
6.04129
5.84737
1
1
1
1
1
1
1
1
1
1
1
1
1
1
1
1
1
1
1
1
1
1
1
1
1
1
1
1
1
1
1
1
1
1
1
1
1
1
1
1
1
1
1
1
1
1
1
1
1
1
1
1
1
1
1
1
1
1
1.00001
1.11072
4.60794
8.83722
8.9855
9.00445
9.0127
9.00053
8.9817
8.95743
8.92373
8.88206
8.83781
8.78674
8.72731
8.66235
8.59285
8.52027
8.44087
8.35446
8.2656
8.17708
8.07766
7.97422
7.86221
7.74281
7.61448
7.48181
7.34537
7.2024
7.05751
6.90288
6.74676
6.58039
6.41416
6.23883
6.06531
5.88201
1
1
1
1
1
1
1
1
1
1
1
1
1
1
1
1
1
1
1
1
1
1
1
1
1
1
1
1
1
1
1
1
1
1
1
1
1
1
1
1
1
1
1
1
1
1
1
1
1
1
1
1
1
1
1
1
1
1
1
1.00049
1.33589
5.70809
8.83493
8.98694
8.9775
8.96305
8.93447
8.89853
8.85559
8.80617
8.75426
8.69758
8.63568
8.56939
8.49823
8.4241
8.34635
8.25988
8.1711
8.08242
7.98693
7.88647
7.77966
7.66716
7.5461
7.42018
7.28925
7.15493
7.01529
6.86905
6.72055
6.56397
6.4082
6.2453
6.08409
5.91081
1
1
1
1
1
1
1
1
1
1
1
1
1
1
1
1
1
1
1
1
1
1
1
1
1
1
1
1
1
1
1
1
1
1
1
1
1
1
1
1
1
1
1
1
1
1
1
1
1
1
1
1
1
1
1
1
1
1
1
1
1.00348
1.62812
6.73621
8.93105
8.97125
8.93369
8.89074
8.84472
8.79202
8.73449
8.67406
8.61102
8.54497
8.477
8.40651
8.33082
8.25457
8.17413
8.08651
7.99908
7.90587
7.80857
7.70595
7.59868
7.4844
7.3654
7.24152
7.11428
6.97984
6.84155
6.70106
6.55472
6.40602
6.25339
6.10031
5.93652
1
1
1
1
1
1
1
1
1
1
1
1
1
1
1
1
1
1
1
1
1
1
1
1
1
1
1
1
1
1
1
1
1
1
1
1
1
1
1
1
1
1
1
1
1
1
1
1
1
1
1
1
1
1
1
1
1
1
1
1
1
1.01124
2.22894
7.72224
8.94425
8.88572
8.82452
8.76766
8.70313
8.63935
8.57632
8.51334
8.44989
8.38485
8.31799
8.24647
8.17102
8.09563
8.01442
7.92813
7.83678
7.74117
7.64139
7.53732
7.42789
7.31486
7.19807
7.0771
6.94862
6.81805
6.68551
6.54784
6.4052
6.2619
6.11515
5.96185
1
1
1
1
1
1
1
1
1
1
1
1
1
1
1
1
1
1
1
1
1
1
1
1
1
1
1
1
1
1
1
1
1
1
1
1
1
1
1
1
1
1
1
1
1
1
1
1
1
1
1
1
1
1
1
1
1
1
1
1
1
1.00002
1.03989
3.4429
8.32119
8.77073
8.70182
8.64897
8.5913
8.53222
8.47184
8.41272
8.35448
8.29556
8.23378
8.16741
8.09703
8.02418
7.9473
7.8647
7.77642
7.68317
7.58608
7.48492
7.37951
7.27094
7.15919
7.04262
6.91937
6.79494
6.66978
6.53983
6.40416
6.27024
6.13035
5.98829
1
1
1
1
1
1
1
1
1
1
1
1
1
1
1
1
1
1
1
1
1
1
1
1
1
1
1
1
1
1
1
1
1
1
1
1
1
1
1
1
1
1
1
1
1
1
1
1
1
1
1
1
1
1
1
1
1
1
1
1
1
1
1.00011
1.15105
4.33314
8.42951
8.61043
8.53754
8.492
8.44669
8.39991
8.34946
8.29461
8.23544
8.17251
8.10564
8.03587
7.96401
7.88871
7.80825
7.72271
7.63243
7.5383
7.44019
7.33813
7.23262
7.12385
7.01073
6.89239
6.77349
6.65591
6.53283
6.40408
6.278
6.14597
6.01491
1
1
1
1
1
1
1
1
1
1
1
1
1
1
1
1
1
1
1
1
1
1
1
1
1
1
1
1
1
1
1
1
1
1
1
1
1
1
1
1
1
1
1
1
1
1
1
1
1
1
1
1
1
1
1
1
1
1
1
1
1
1
1
1.00092
1.29006
4.84816
8.33737
8.46006
8.40775
8.37725
8.33813
8.29215
8.23975
8.18324
8.12262
8.0568
7.98658
7.91241
7.8343
7.75333
7.66937
7.5818
7.49069
7.39605
7.29743
7.19495
7.08984
6.98227
6.87032
6.75734
6.64642
6.52937
6.40717
6.28647
6.16287
6.04058
1
1
1
1
1
1
1
1
1
1
1
1
1
1
1
1
1
1
1
1
1
1
1
1
1
1
1
1
1
1
1
1
1
1
1
1
1
1
1
1
1
1
1
1
1
1
1
1
1
1
1
1
1
1
1
1
1
1
1
1
1
1
1
1
1.00283
1.41094
5.14098
8.23248
8.36494
8.32561
8.29072
8.24411
8.19345
8.13654
8.0747
8.00849
7.93841
7.86495
7.78778
7.70754
7.62475
7.53918
7.45051
7.35857
7.26345
7.16517
7.0641
6.96155
6.85578
6.74835
6.64184
6.53035
6.41418
6.29675
6.18032
6.06413
1
1
1
1
1
1
1
1
1
1
1
1
1
1
1
1
1
1
1
1
1
1
1
1
1
1
1
1
1
1
1
1
1
1
1
1
1
1
1
1
1
1
1
1
1
1
1
1
1
1
1
1
1
1
1
1
1
1
1
1
1
1
1
1
1
1.00532
1.50484
5.29515
8.15739
8.2913
8.24067
8.19643
8.14291
8.08612
8.02428
7.95819
7.88838
7.8153
7.74038
7.66344
7.58323
7.49954
7.41305
7.32397
7.23255
7.1386
7.04195
6.9439
6.8435
6.74074
6.63684
6.53036
6.42
6.30612
6.19481
6.08395
1
1
1
1
1
1
1
1
1
1
1
1
1
1
1
1
1
1
1
1
1
1
1
1
1
1
1
1
1
1
1
1
1
1
1
1
1
1
1
1
1
1
1
1
1
1
1
1
1
1
1
1
1
1
1
1
1
1
1
1
1
1
1
1
1
1.00001
1.00779
1.56559
5.33625
8.0781
8.21163
8.14832
8.09263
8.03251
7.9721
7.90699
7.83922
7.76944
7.69783
7.62427
7.54786
7.46739
7.38405
7.29859
7.21093
7.12097
7.02838
6.93384
6.83744
6.73841
6.63671
6.53377
6.42844
6.319
6.21085
6.10372
1
1
1
1
1
1
1
1
1
1
1
1
1
1
1
1
1
1
1
1
1
1
1
1
1
1
1
1
1
1
1
1
1
1
1
1
1
1
1
1
1
1
1
1
1
1
1
1
1
1
1
1
1
1
1
1
1
1
1
1
1
1
1
1
1
1
1.00002
1.00963
1.58939
5.26394
7.9669
8.12176
8.04097
7.98657
7.92207
7.85724
7.7924
7.72656
7.659
7.58851
7.51444
7.43753
7.35853
7.27738
7.19375
7.10759
7.01856
6.92682
6.83301
6.73676
6.63738
6.53681
6.43492
6.32975
6.22435
6.11956
1
1
1
1
1
1
1
1
1
1
1
1
1
1
1
1
1
1
1
1
1
1
1
1
1
1
1
1
1
1
1
1
1
1
1
1
1
1
1
1
1
1
1
1
1
1
1
1
1
1
1
1
1
1
1
1
1
1
1
1
1
1
1
1
1
1
1
1.00002
1.01045
1.5755
5.05431
7.83683
8.02455
7.93258
7.87636
7.81564
7.75543
7.69349
7.62835
7.55992
7.48831
7.41524
7.34056
7.26323
7.18283
7.0992
7.01235
6.92223
6.82973
6.73512
6.6377
6.53916
6.43946
6.33809
6.23574
6.13324
1
1
1
1
1
1
1
1
1
1
1
1
1
1
1
1
1
1
1
1
1
1
1
1
1
1
1
1
1
1
1
1
1
1
1
1
1
1
1
1
1
1
1
1
1
1
1
1
1
1
1
1
1
1
1
1
1
1
1
1
1
1
1
1
1
1
1
1
1.00002
1.0101
1.52175
4.68996
7.67592
7.92158
7.83562
7.78238
7.72849
7.67003
7.60903
7.54369
7.47583
7.40626
7.33406
7.25779
7.17742
7.09328
7.00611
6.9161
6.82434
6.731
6.63583
6.53969
6.44231
6.34442
6.24537
6.14621
1
1
1
1
1
1
1
1
1
1
1
1
1
1
1
1
1
1
1
1
1
1
1
1
1
1
1
1
1
1
1
1
1
1
1
1
1
1
1
1
1
1
1
1
1
1
1
1
1
1
1
1
1
1
1
1
1
1
1
1
1
1
1
1
1
1
1
1
1
1.00002
1.00862
1.42985
4.18199
7.4842
7.834
7.76815
7.71877
7.6629
7.60097
7.53701
7.46991
7.40011
7.3264
7.24806
7.16569
7.08015
6.99248
6.90322
6.81325
6.72229
6.63039
6.53759
6.44381
6.34963
6.2545
6.1594
1
1
1
1
1
1
1
1
1
1
1
1
1
1
1
1
1
1
1
1
1
1
1
1
1
1
1
1
1
1
1
1
1
1
1
1
1
1
1
1
1
1
1
1
1
1
1
1
1
1
1
1
1
1
1
1
1
1
1
1
1
1
1
1
1
1
1
1
1
1
1.00002
1.00633
1.31534
3.63809
7.25113
7.76536
7.71677
7.65712
7.59535
7.52765
7.45987
7.38805
7.31189
7.23159
7.14841
7.06307
6.97657
6.88966
6.8025
6.71472
6.62627
6.53728
6.44766
6.35705
6.26595
6.17455
1
1
1
1
1
1
1
1
1
1
1
1
1
1
1
1
1
1
1
1
1
1
1
1
1
1
1
1
1
1
1
1
1
1
1
1
1
1
1
1
1
1
1
1
1
1
1
1
1
1
1
1
1
1
1
1
1
1
1
1
1
1
1
1
1
1
1
1
1
1
1
1.00001
1.00387
1.21126
3.18056
6.92952
7.67765
7.65972
7.57942
7.51917
7.44464
7.3695
7.29122
7.21069
7.12835
7.04499
6.96161
6.87805
6.79429
6.71029
6.62559
6.54019
6.45388
6.36686
6.27934
6.19137
1
1
1
1
1
1
1
1
1
1
1
1
1
1
1
1
1
1
1
1
1
1
1
1
1
1
1
1
1
1
1
1
1
1
1
1
1
1
1
1
1
1
1
1
1
1
1
1
1
1
1
1
1
1
1
1
1
1
1
1
1
1
1
1
1
1
1
1
1
1
1
1
1.00001
1.00204
1.13954
2.74142
6.48804
7.55679
7.59145
7.4907
7.42651
7.34708
7.26979
7.19056
7.11089
7.03091
6.95091
6.87076
6.79086
6.71031
6.62863
6.54582
6.4627
6.37918
6.29411
6.20923
1
1
1
1
1
1
1
1
1
1
1
1
1
1
1
1
1
1
1
1
1
1
1
1
1
1
1
1
1
1
1
1
1
1
1
1
1
1
1
1
1
1
1
1
1
1
1
1
1
1
1
1
1
1
1
1
1
1
1
1
1
1
1
1
1
1
1
1
1
1
1
1
1
1
1.00106
1.08693
2.33616
5.86853
7.4239
7.48744
7.39714
7.32705
7.25203
7.1763
7.09955
7.023
6.94641
6.86979
6.79286
6.71473
6.63571
6.55585
6.4753
6.39329
6.31086
6.22897
1
1
1
1
1
1
1
1
1
1
1
1
1
1
1
1
1
1
1
1
1
1
1
1
1
1
1
1
1
1
1
1
1
1
1
1
1
1
1
1
1
1
1
1
1
1
1
1
1
1
1
1
1
1
1
1
1
1
1
1
1
1
1
1
1
1
1
1
1
1
1
1
1
1
1
1.00052
1.05102
1.95722
5.06513
7.24747
7.38297
7.31062
7.24136
7.16756
7.09458
7.01979
6.94574
6.87166
6.797
6.72105
6.64465
6.56749
6.48851
6.40846
6.32877
6.24778
1
1
1
1
1
1
1
1
1
1
1
1
1
1
1
1
1
1
1
1
1
1
1
1
1
1
1
1
1
1
1
1
1
1
1
1
1
1
1
1
1
1
1
1
1
1
1
1
1
1
1
1
1
1
1
1
1
1
1
1
1
1
1
1
1
1
1
1
1
1
1
1
1
1
1
1
1.00024
1.02721
1.61396
4.19922
6.92956
7.28706
7.23406
7.16393
7.09111
7.021
6.94874
6.8768
6.80431
6.73039
6.65611
6.57928
6.50127
6.42423
6.34543
6.26532
1
1
1
1
1
1
1
1
1
1
1
1
1
1
1
1
1
1
1
1
1
1
1
1
1
1
1
1
1
1
1
1
1
1
1
1
1
1
1
1
1
1
1
1
1
1
1
1
1
1
1
1
1
1
1
1
1
1
1
1
1
1
1
1
1
1
1
1
1
1
1
1
1
1
1
1
1
1.0001
1.01248
1.35169
3.34058
6.44522
7.15892
7.19098
7.09399
7.02135
6.95339
6.88546
6.8132
6.74075
6.66647
6.58977
6.51548
6.43907
6.35936
6.28261
1
1
1
1
1
1
1
1
1
1
1
1
1
1
1
1
1
1
1
1
1
1
1
1
1
1
1
1
1
1
1
1
1
1
1
1
1
1
1
1
1
1
1
1
1
1
1
1
1
1
1
1
1
1
1
1
1
1
1
1
1
1
1
1
1
1
1
1
1
1
1
1
1
1
1
1
1
1
1.00003
1.00492
1.17699
2.60652
5.68472
7.01393
7.11239
7.02854
6.96011
6.88864
6.81929
6.74825
6.67315
6.60025
6.52538
6.44681
6.37397
6.30071
1
1
1
1
1
1
1
1
1
1
1
1
1
1
1
1
1
1
1
1
1
1
1
1
1
1
1
1
1
1
1
1
1
1
1
1
1
1
1
1
1
1
1
1
1
1
1
1
1
1
1
1
1
1
1
1
1
1
1
1
1
1
1
1
1
1
1
1
1
1
1
1
1
1
1
1
1
1
1
1.00001
1.00166
1.07966
2.00296
4.70303
6.77649
7.018
6.9657
6.88504
6.81872
6.75252
6.68233
6.60996
6.53469
6.46483
6.39508
6.32045
1
1
1
1
1
1
1
1
1
1
1
1
1
1
1
1
1
1
1
1
1
1
1
1
1
1
1
1
1
1
1
1
1
1
1
1
1
1
1
1
1
1
1
1
1
1
1
1
1
1
1
1
1
1
1
1
1
1
1
1
1
1
1
1
1
1
1
1
1
1
1
1
1
1
1
1
1
1
1
1
1
1.00048
1.03171
1.54522
3.66204
6.31226
6.86607
6.91941
6.82894
6.7657
6.70526
6.63546
6.56279
6.4865
6.41116
6.34544
1
1
1
1
1
1
1
1
1
1
1
1
1
1
1
1
1
1
1
1
1
1
1
1
1
1
1
1
1
1
1
1
1
1
1
1
1
1
1
1
1
1
1
1
1
1
1
1
1
1
1
1
1
1
1
1
1
1
1
1
1
1
1
1
1
1
1
1
1
1
1
1
1
1
1
1
1
1
1
1
1
1
1.00012
1.01083
1.25312
2.70871
5.5031
6.71894
6.84036
6.78622
6.71454
6.64768
6.57948
6.50509
6.42832
6.35946
1
1
1
1
1
1
1
1
1
1
1
1
1
1
1
1
1
1
1
1
1
1
1
1
1
1
1
1
1
1
1
1
1
1
1
1
1
1
1
1
1
1
1
1
1
1
1
1
1
1
1
1
1
1
1
1
1
1
1
1
1
1
1
1
1
1
1
1
1
1
1
1
1
1
1
1
1
1
1
1
1
1
1
1.00003
1.00307
1.09594
1.98732
4.41147
6.40006
6.76689
6.77307
6.68603
6.60363
6.5242
6.42998
6.35204
1
1
1
1
1
1
1
1
1
1
1
1
1
1
1
1
1
1
1
1
1
1
1
1
1
1
1
1
1
1
1
1
1
1
1
1
1
1
1
1
1
1
1
1
1
1
1
1
1
1
1
1
1
1
1
1
1
1
1
1
1
1
1
1
1
1
1
1
1
1
1
1
1
1
1
1
1
1
1
1
1
1
1
1
1
1.00067
1.03211
1.47848
3.33796
5.70056
6.59855
6.70373
6.66212
6.58668
6.5034
6.4047
1
1
1
1
1
1
1
1
1
1
1
1
1
1
1
1
1
1
1
1
1
1
1
1
1
1
1
1
1
1
1
1
1
1
1
1
1
1
1
1
1
1
1
1
1
1
1
1
1
1
1
1
1
1
1
1
1
1
1
1
1
1
1
1
1
1
1
1
1
1
1
1
1
1
1
1
1
1
1
1
1
1
1
1
1
1
1.00013
1.00895
1.19803
2.30286
4.83604
6.37805
6.56601
6.55944
6.49907
6.42655
1
1
1
1
1
1
1
1
1
1
1
1
1
1
1
1
1
1
1
1
1
1
1
1
1
1
1
1
1
1
1
1
1
1
1
1
1
1
1
1
1
1
1
1
1
1
1
1
1
1
1
1
1
1
1
1
1
1
1
1
1
1
1
1
1
1
1
1
1
1
1
1
1
1
1
1
1
1
1
1
1
1
1
1
1
1
1
1.00002
1.00208
1.05952
1.67591
3.66149
5.75453
6.47809
6.54685
6.49741
1
1
1
1
1
1
1
1
1
1
1
1
1
1
1
1
1
1
1
1
1
1
1
1
1
1
1
1
1
1
1
1
1
1
1
1
1
1
1
1
1
1
1
1
1
1
1
1
1
1
1
1
1
1
1
1
1
1
1
1
1
1
1
1
1
1
1
1
1
1
1
1
1
1
1
1
1
1
1
1
1
1
1
1
1
1
1
1
1
1.00033
1.01667
1.28215
2.53339
4.87059
6.20163
6.48144
1
1
1
1
1
1
1
1
1
1
1
1
1
1
1
1
1
1
1
1
1
1
1
1
1
1
1
1
1
1
1
1
1
1
1
1
1
1
1
1
1
1
1
1
1
1
1
1
1
1
1
1
1
1
1
1
1
1
1
1
1
1
1
1
1
1
1
1
1
1
1
1
1
1
1
1
1
1
1
1
1
1
1
1
1
1
1
1
1
1
1.00005
1.00396
1.08443
1.75821
3.65489
5.78066
1
1
1
1
1
1
1
1
1
1
1
1
1
1
1
1
1
1
1
1
1
1
1
1
1
1
1
1
1
1
1
1
1
1
1
1
1
1
1
1
1
1
1
1
1
1
1
1
1
1
1
1
1
1
1
1
1
1
1
1
1
1
1
1
1
1
1
1
1
1
1
1
1
1
1
1
1
1
1
1
1
1
1
1
1
1
1
1
1
1
1
1.00001
1.00056
1.02151
1.29436
2.63831
1
1
1
1
1
1
1
1
1
1
1
1
1
1
1
1
1
1
1
1
1
1
1
1
1
1
1
1
1
1
1
1
1
1
1
1
1
1
1
1
1
1
1
1
1
1
1
1
1
1
1
1
1
1
1
1
1
1
1
1
1
1
1
1
1
1
1
1
1
1
1
1
1
1
1
1
1
1
1
1
1
1
1
1
1
1
1
1
1
1
1
1
1
1.00007
1.00447
1.09389
1
1
1
1
1
1
1
1
1
1
1
1
1
1
1
1
1
1
1
1
1
1
1
1
1
1
1
1
1
1
1
1
1
1
1
1
1
1
1
1
1
1
1
1
1
1
1
1
1
1
1
1
1
1
1
1
1
1
1
1
1
1
1
1
1
1
1
1
1
1
1
1
1
1
1
1
1
1
1
1
1
1
1
1
1
1
1
1
1
1
1
1
1
1
1.00001
1.00058
1
1
1
1
1
1
1
1
1
1
1
1
1
1
1
1
1
1
1
1
1
1
1
1
1
1
1
1
1
1
1
1
1
1
1
1
1
1
1
1
1
1
1
1
1
1
1
1
1
1
1
1
1
1
1
1
1
1
1
1
1
1
1
1
1
1
1
1
1
1
1
1
1
1
1
1
1
1
1
1
1
1
1
1
1
1
1
1
1
1
1
1
1
1
1
1
1
1
1
1
1
1
1
1
1
1
1
1
1
1
1
1
1
1
1
1
1
1
1
1
1
1
1
1
1
1
1
1
1
1
1
1
1
1
1
1
1
1
1
1
1
1
1
1
1
1
1
1
1
1
1
1
1
1
1
1
1
1
1
1
1
1
1
1
1
1
1
1
1
1
1
1
1
1
1
1
1
1
1
1
1
1
1
1
1
1
1
1
1
1
1
1
1
1
1
1
1
1
1
1
1
1
1
1
1
1
1
1
1
1
1
1
1
1
1
1
1
1
1
1
1
1
1
1
1
1
1
1
1
1
1
1
1
1
1
1
1
1
1
1
1
1
1
1
1
1
1
1
1
1
1
1
1
1
1
1
1
1
1
1
1
1
1
1
1
1
1
1
1
1
1
1
1
1
1
1
1
1
1
1
1
1
1
1
1
1
1
1
1
1
1
1
1
1
1
1
1
1
1
1
1
1
1
1
1
1
1
1
1
1
1
1
1
1
1
1
1
1
1
1
1
1
1
1
1
1
1
1
1
1
1
1
1
1
1
1
1
1
1
1
1
1
1
1
1
1
1
1
1
1
1
1
1
1
1
1
1
1
1
1
1
1
1
1
1
1
1
1
1
1
1
1
1
1
1
1
1
1
1
1
1
1
1
1
1
1
1
1
1
1
1
1
1
1
1
1
1
1
1
1
1
1
1
1
1
1
1
1
1
1
1
1
1
1
1
1
1
1
1
1
1
1
1
1
1
1
1
1
1
1
1
1
1
1
1
1
1
1
1
1
1
1
1
1
1
1
1
1
1
1
1
1
1
1
1
1
1
1
1
1
1
1
1
1
1
1
1
1
1
1
1
1
1
1
1
1
1
1
1
1
1
1
1
1
1
1
1
1
1
1
1
1
1
1
1
1
1
1
1
1
1
1
1
1
1
1
1
1
1
1
1
1
1
1
1
1
1
1
1
1
1
1
1
1
1
1
1
1
1
1
1
1
1
1
1
1
1
1
1
1
1
1
1
1
1
1
1
1
1
1
1
1
1
1
1
1
1
1
1
1
1
1
1
1
1
1
1
1
1
1
1
1
1
1
1
1
1
1
1
1
1
1
1
1
1
1
1
1
1
1
1
1
1
1
1
1
1
1
1
1
1
1
1
1
1
1
1
1
1
1
1
1
1
1
1
1
1
1
1
1
1
1
1
1
1
1
1
1
1
1
1
1
1
1
1
1
1
1
1
1
1
1
1
1
1
1
1
1
1
1
1
1
1
1
1
1
1
1
1
1
1
1
1
1
1
1
1
1
1
1
1
1
1
1
1
1
1
1
1
1
1
1
1
1
1
1
1
1
1
1
1
1
1
1
1
1
1
1
1
1
1
1
1
1
1
1
1
1
1
1
1
1
1
1
1
1
1
1
1
1
1
1
1
1
1
1
1
1
1
1
1
1
1
1
1
1
1
1
1
1
1
1
1
1
1
1
1
1
1
1
1
1
1
1
1
1
1
1
1
1
1
1
1
1
1
1
1
1
1
1
1
1
1
1
1
1
1
1
1
1
1
1
1
1
1
1
1
1
1
1
1
1
1
1
1
1
1
1
1
1
1
1
1
1
1
1
1
1
1
1
1
1
1
1
1
1
1
1
1
1
1
1
1
1
1
1
1
1
1
1
1
1
1
1
1
1
1
1
1
1
1
1
1
1
1
1
1
1
1
1
1
1
1
1
1
1
1
1
1
1
1
1
1
1
1
1
1
1
1
1
1
1
1
1
1
1
1
1
1
1
1
1
1
1
1
1
1
1
1
1
1
1
1
1
1
1
1
1
1
1
1
1
1
1
1
1
1
1
1
1
1
1
1
1
1
1
1
1
1
1
1
1
1
1
1
1
1
1
1
1
1
1
1
1
1
1
1
1
1
1
1
1
1
1
1
1
1
1
1
1
1
1
1
1
1
1
1
1
1
1
1
1
1
1
1
1
1
1
1
1
1
1
1
1
1
1
1
1
1
1
1
1
1
1
1
1
1
1
1
1
1
1
1
1
1
1
1
1
1
1
1
1
1
1
1
1
1
1
1
1
1
1
1
1
1
1
1
1
1
1
1
1
1
1
1
1
1
1
1
1
1
1
1
1
1
1
1
1
1
1
1
1
1
1
1
1
1
1
1
1
1
1
1
1
1
1
1
1
1
1
1
1
1
1
1
1
1
1
1
1
1
1
1
1
1
1
1
1
1
1
1
1
1
1
1
1
1
1
1
1
1
1
1
1
1
1
1
1
1
1
1
1
1
1
1
1
1
1
1
1
1
1
1
1
1
1
1
1
1
1
1
1
1
1
1
1
1
1
1
1
1
1
1
1
1
1
1
1
1
1
1
1
1
1
1
1
1
1
1
1
1
1
1
1
1
1
1
1
1
1
1
1
1
1
1
1
1
1
1
1
1
1
1
1
1
1
1
1
1
1
1
1
1
1
1
1
1
1
1
1
1
1
1
1
1
1
1
1
1
1
1
1
1
1
1
1
1
1
1
1
1
1
1
1
1
1
1
1
1
1
1
1
1
1
1
1
1
1
1
1
1
1
1
1
1
1
1
1
1
1
1
1
1
1
1
1
1
1
1
1
1
1
1
1
1
1
1
1
1
1
1
1
1
1
1
1
1
1
1
1
1
1
1
1
1
1
1
1
1
1
1
1
1
1
1
1
1
1
1
1
1
1
1
1
1
1
1
1
1
1
1
1
1
1
1
1
1
1
1
1
1
1
1
1
1
1
1
1
1
1
1
1
1
1
1
1
1
1
1
1
1
1
1
1
1
1
1
1
1
1
1
1
1
1
1
1
1
1
1
1
1
1
1
1
1
1
1
1
1
1
1
1
1
1
1
1
1
1
1
1
1
1
1
1
1
1
1
1
1
1
1
1
1
1
1
1
1
1
1
1
1
1
1
1
1
1
1
1
1
1
1
1
1
1
1
1
1
1
1
1
1
1
1
1
1
1
1
1
1
1
1
1
1
1
1
1
1
1
1
1
1
1
1
1
1
1
1
1
1
1
1
1
1
1
1
1
1
1
1
1
1
1
1
1
1
1
1
1
1
1
1
1
1
1
1
1
1
1
1
1
1
1
1
1
1
1
1
1
1
1
1
1
1
1
1
1
1
1
1
1
1
1
1
1
1
1
1
1
1
1
1
1
1
1
1
1
1
1
1
1
1
1
1
1
1
1
1
1
1
1
1
1
1
1
1
1
1
1
1
1
1
1
1
1
1
1
1.06149
0.230129
0.0931558
0.0247944
0.017453
0.0273084
0.0649588
0.130316
0.18912
0.270462
0.359814
0.427361
0.490773
0.560924
0.596942
0.646051
0.714975
0.775893
0.849672
0.92628
0.978205
1.02107
1.03073
1.02393
1.02585
1.04537
1.05286
1.06208
1.08926
1.11587
1.13264
1.1524
1.17997
1.20303
1.22505
1.23764
1.23731
1.24221
1.24635
1.2492
1.255
1.26888
1.28259
1.28881
1.29327
1.29751
1.30211
1.3077
1.31398
1.32051
1.3261
1.3293
1.33168
1.3341
1.33326
1.33168
1.3309
1.33059
1.33086
1.3321
1.33375
1.33546
1.338
1.34182
1.34615
1.34791
1.34501
1.33899
1.32976
2.31476
5.72518
6.65986
6.66961
6.67312
6.67317
6.64085
6.58112
6.51429
6.45535
6.40382
6.35888
6.31131
6.25174
6.177
6.09457
6.01247
5.93529
5.86536
5.80127
5.74122
5.68463
5.63089
5.57807
5.52449
5.4694
5.41384
5.3582
5.30306
5.249
5.19678
5.14845
5.1023
5.05533
5.00569
4.95199
4.89722
4.84562
4.79966
4.76169
4.72767
4.69107
4.65184
4.6074
4.55828
4.50479
4.45253
4.40711
4.36709
4.32968
4.29249
4.2546
4.21519
4.17283
4.12699
4.08226
4.04428
4.01036
3.9808
3.95584
3.929
3.89687
3.86156
3.82215
3.7792
3.73672
3.69831
3.66365
3.63093
3.59879
3.56617
3.5321
3.49575
3.45743
3.41967
3.38654
3.36111
3.34235
3.32617
3.31012
3.29085
3.26479
3.23244
3.19626
3.16148
3.13195
3.10604
3.08091
3.05444
3.02458
2.98911
2.94771
2.90523
2.87072
2.84828
2.83027
2.81347
2.79855
2.78181
2.76322
2.743
2.71991
2.69473
2.66858
2.6419
2.61493
2.58771
2.5604
2.53318
2.50624
2.48004
2.4566
2.43706
2.42196
2.40986
2.39903
2.38913
2.37886
2.36735
2.3522
2.33024
2.31017
2.27827
1.93433
0.942278
0.550732
0.353327
0.239761
0.178772
0.173436
0.203182
0.226884
0.226783
0.237136
0.264691
0.290076
0.325715
0.387613
0.462184
0.534162
0.609654
0.665115
0.730256
0.81632
0.906006