/*--------------------------------*- C++ -*----------------------------------*\
  =========                 |
  \\      /  F ield         | OpenFOAM: The Open Source CFD Toolbox
   \\    /   O peration     | Website:  https://openfoam.org
    \\  /    A nd           | Version:  7
     \\/     M anipulation  |
\*---------------------------------------------------------------------------*/
FoamFile
{
    version     2.0;
    format      ascii;
    class       volScalarField;
    location    "2.8";
    object      T;
}
// * * * * * * * * * * * * * * * * * * * * * * * * * * * * * * * * * * * * * //

dimensions      [0 0 0 1 0 0 0];

internalField   nonuniform List<scalar> 
19968
(
1
1
1
1
1
1
1
1
1
1
1
1
1
1
1
1
1
1
1
1
1
1
1
1
1
1
1
1
1
1
1
1
1
1
1
1
1
1
1
1
1
1
1
1
1
1
1
1
1
2.12122
2.69135
2.70552
2.70697
2.70936
2.71083
2.71164
2.71235
2.71402
2.71772
2.72394
2.73211
2.7408
2.74847
2.75384
2.75618
2.7563
2.75606
2.75616
2.75704
2.75941
2.76375
2.7697
2.77562
2.77986
2.78159
2.78203
2.78243
2.78342
2.7859
2.79013
2.79496
2.79888
2.80097
2.80148
2.80142
2.80144
2.80185
2.80281
2.80423
2.8059
2.80791
2.81051
2.81356
2.81671
2.81912
2.81988
1
1
1
1
1
1
1
1
1
1
1
1
1
1
1
1
1
1
1
1
1
1
1
1
1
1
1
1
1
1
1
1
1
1
1
1
1
1
1
1
1
1
1
1
1
1
1
1
1
2.11054
2.68936
2.70514
2.707
2.70952
2.71096
2.7117
2.71232
2.7139
2.71755
2.72376
2.73195
2.74065
2.74835
2.75374
2.75608
2.75616
2.75588
2.75588
2.75664
2.75892
2.76327
2.76935
2.7754
2.77971
2.78141
2.78178
2.78208
2.783
2.78549
2.78978
2.79468
2.79862
2.80066
2.80113
2.80105
2.80107
2.80149
2.80246
2.80385
2.80548
2.80748
2.81008
2.81314
2.8163
2.81869
2.81946
1
1
1
1
1
1
1
1
1
1
1
1
1
1
1
1
1
1
1
1
1
1
1
1
1
1
1
1
1
1
1
1
1
1
1
1
1
1
1
1
1
1
1
1
1
1
1
1
1
2.08434
2.68457
2.70514
2.70726
2.70989
2.71125
2.71183
2.71222
2.7135
2.71683
2.72285
2.73101
2.73984
2.74772
2.75327
2.75568
2.75575
2.75546
2.75537
2.75599
2.75815
2.76246
2.76864
2.77484
2.77922
2.78095
2.78128
2.7815
2.78235
2.78486
2.78924
2.79422
2.79814
2.8001
2.80051
2.80042
2.80045
2.80088
2.80183
2.80316
2.80475
2.80675
2.80937
2.81245
2.81562
2.81793
2.81866
1
1
1
1
1
1
1
1
1
1
1
1
1
1
1
1
1
1
1
1
1
1
1
1
1
1
1
1
1
1
1
1
1
1
1
1
1
1
1
1
1
1
1
1
1
1
1
1
1
2.04008
2.67483
2.7053
2.70771
2.71059
2.71204
2.71246
2.71243
2.71309
2.71569
2.72112
2.72906
2.73807
2.74632
2.75221
2.75478
2.75489
2.75464
2.75453
2.75504
2.75708
2.76128
2.76742
2.77366
2.77813
2.77999
2.78039
2.78058
2.78139
2.78393
2.78836
2.79338
2.79727
2.79916
2.79953
2.79945
2.79949
2.79994
2.80087
2.80213
2.80366
2.80565
2.80824
2.8113
2.81449
2.81672
2.81743
1
1
1
1
1
1
1
1
1
1
1
1
1
1
1
1
1
1
1
1
1
1
1
1
1
1
1
1
1
1
1
1
1
1
1
1
1
1
1
1
1
1
1
1
1
1
1
1
1
1.97569
2.65985
2.70423
2.70731
2.71077
2.71247
2.71292
2.71265
2.71282
2.71445
2.71883
2.7261
2.73508
2.74369
2.75007
2.75303
2.75329
2.75318
2.75321
2.7537
2.75568
2.7597
2.76556
2.77161
2.77613
2.77829
2.77893
2.77925
2.78011
2.78262
2.78699
2.79195
2.79581
2.79771
2.7981
2.79804
2.79811
2.79859
2.79949
2.8007
2.80217
2.80416
2.80672
2.80974
2.81297
2.81516
2.81592
1
1
1
1
1
1
1
1
1
1
1
1
1
1
1
1
1
1
1
1
1
1
1
1
1
1
1
1
1
1
1
1
1
1
1
1
1
1
1
1
1
1
1
1
1
1
1
1
1
1.88469
2.63866
2.69985
2.70472
2.70961
2.7121
2.71293
2.71262
2.7124
2.7133
2.7165
2.72273
2.73122
2.73991
2.74669
2.75017
2.75077
2.75084
2.7511
2.75179
2.75384
2.75767
2.76304
2.76867
2.77312
2.77565
2.77673
2.77738
2.77844
2.78093
2.7851
2.78989
2.79373
2.79573
2.79622
2.79621
2.79631
2.79679
2.79767
2.79883
2.80022
2.80212
2.80459
2.80764
2.81091
2.81315
2.81404
1
1
1
1
1
1
1
1
1
1
1
1
1
1
1
1
1
1
1
1
1
1
1
1
1
1
1
1
1
1
1
1
1
1
1
1
1
1
1
1
1
1
1
1
1
1
1
1
1
1.7599
2.6089
2.69039
2.6987
2.70604
2.70991
2.71159
2.71158
2.71141
2.712
2.71437
2.71945
2.72698
2.73524
2.74212
2.74615
2.74732
2.7477
2.74825
2.74922
2.75141
2.75503
2.75984
2.76492
2.76915
2.77197
2.77354
2.77466
2.77604
2.77854
2.78244
2.78697
2.79077
2.7929
2.79353
2.79357
2.79369
2.79418
2.79506
2.79621
2.79758
2.79938
2.80178
2.80492
2.80834
2.81077
2.81186
1
1
1
1
1
1
1
1
1
1
1
1
1
1
1
1
1
1
1
1
1
1
1
1
1
1
1
1
1
1
1
1
1
1
1
1
1
1
1
1
1
1
1
1
1
1
1
1
1
1.58686
2.56246
2.67978
2.69129
2.7005
2.70578
2.70881
2.70984
2.71018
2.71094
2.71299
2.71707
2.72334
2.7307
2.73728
2.74169
2.74355
2.74434
2.74521
2.74645
2.74869
2.75208
2.75632
2.76084
2.76474
2.76772
2.7697
2.7713
2.77302
2.77557
2.7792
2.78344
2.78716
2.7894
2.79016
2.79023
2.79035
2.7908
2.79165
2.79275
2.79406
2.79573
2.79801
2.80119
2.80477
2.80744
2.80869
1
1
1
1
1
1
1
1
1
1
1
1
1
1
1
1
1
1
1
1
1
1
1
1
1
1
1
1
1
1
1
1
1
1
1
1
1
1
1
1
1
1
1
1
1
1
1
1
1
1.36783
2.48749
2.6779
2.68429
2.69357
2.70018
2.70488
2.70728
2.70845
2.70959
2.71159
2.71513
2.72047
2.72691
2.73295
2.73737
2.73976
2.74097
2.74215
2.74364
2.74581
2.74893
2.75263
2.75662
2.76016
2.76313
2.76541
2.76741
2.76947
2.77207
2.77548
2.7794
2.78295
2.78524
2.78606
2.78612
2.78617
2.78652
2.78727
2.78829
2.78954
2.79113
2.79333
2.79651
2.80023
2.80313
2.8045
1
1
1
1
1
1
1
1
1
1
1
1
1
1
1
1
1
1
1
1
1
1
1
1
1
1
1
1
1
1
1
1
1
1
1
1
1
1
1
1
1
1
1
1
1
1
1
1
1
1.1184
2.36726
2.67998
2.68439
2.6919
2.69831
2.70364
2.70713
2.70899
2.71029
2.71216
2.71524
2.71963
2.7248
2.72975
2.73364
2.73612
2.73751
2.73877
2.7403
2.74225
2.74497
2.74809
2.75147
2.75455
2.75731
2.75967
2.7619
2.76421
2.76691
2.77017
2.77383
2.77726
2.77966
2.78069
2.78087
2.78094
2.78123
2.78186
2.78275
2.78391
2.78544
2.78758
2.79071
2.79448
2.79752
2.7989
1
1
1
1
1
1
1
1
1
1
1
1
1
1
1
1
1
1
1
1
1
1
1
1
1
1
1
1
1
1
1
1
1
1
1
1
1
1
1
1
1
1
1
1
1
1
1
1
1
1.00176
2.19058
2.67576
2.68033
2.68424
2.68974
2.69488
2.69891
2.7015
2.70353
2.70603
2.7096
2.71406
2.7189
2.72339
2.72703
2.72967
2.73147
2.73307
2.73492
2.73703
2.73957
2.7423
2.74519
2.74792
2.75041
2.75269
2.75498
2.75746
2.76027
2.76345
2.76684
2.77003
2.7724
2.77356
2.77379
2.7738
2.77396
2.7744
2.77517
2.77629
2.77788
2.78008
2.78322
2.78705
2.79014
2.79149
1
1
1
1
1
1
1
1
1
1
1
1
1
1
1
1
1
1
1
1
1
1
1
1
1
1
1
1
1
1
1
1
1
1
1
1
1
1
1
1
1
1
1
1
1
1
1
1
1
1
1.91014
2.63486
2.67105
2.67677
2.68284
2.68752
2.6911
2.69387
2.69648
2.6996
2.70362
2.70833
2.71315
2.71736
2.72064
2.72308
2.72495
2.72672
2.72878
2.73114
2.73364
2.73617
2.73855
2.74082
2.74282
2.74473
2.74674
2.74911
2.75188
2.75494
2.75804
2.76094
2.76324
2.76461
2.76508
2.76516
2.76528
2.76561
2.76623
2.76718
2.76846
2.77024
2.77309
2.77664
2.77949
2.78065
1
1
1
1
1
1
1
1
1
1
1
1
1
1
1
1
1
1
1
1
1
1
1
1
1
1
1
1
1
1
1
1
1
1
1
1
1
1
1
1
1
1
1
1
1
1
1
1
1
1
1.48486
2.50415
2.65655
2.66613
2.67574
2.68033
2.68376
2.68654
2.68931
2.69258
2.69664
2.70132
2.70605
2.71011
2.71319
2.71545
2.71732
2.71921
2.72145
2.72408
2.72675
2.72919
2.73117
2.73285
2.73424
2.73556
2.7371
2.73913
2.74172
2.74459
2.74736
2.74982
2.75179
2.75297
2.75328
2.75307
2.7527
2.75249
2.75261
2.75309
2.75409
2.75593
2.75878
2.76222
2.7648
2.76581
1
1
1
1
1
1
1
1
1
1
1
1
1
1
1
1
1
1
1
1
1
1
1
1
1
1
1
1
1
1
1
1
1
1
1
1
1
1
1
1
1
1
1
1
1
1
1
1
1
1
1.02252
2.26241
2.66472
2.66735
2.67145
2.67563
2.67915
2.6817
2.68378
2.68609
2.68915
2.69298
2.69709
2.70076
2.70354
2.70557
2.70729
2.70913
2.71141
2.71422
2.71716
2.71976
2.72161
2.72283
2.72368
2.72442
2.72546
2.72708
2.72931
2.73183
2.7342
2.7362
2.73772
2.73853
2.7387
2.73837
2.73776
2.73718
2.7369
2.73696
2.73738
2.73835
2.73955
2.74036
2.7403
2.7392
1
1
1
1
1
1
1
1
1
1
1
1
1
1
1
1
1
1
1
1
1
1
1
1
1
1
1
1
1
1
1
1
1
1
1
1
1
1
1
1
1
1
1
1
1
1
1
1
1
1
1.00004
1.84562
2.59525
2.65289
2.65833
2.66419
2.66865
2.67202
2.67439
2.67652
2.67913
2.68251
2.68644
2.69018
2.69313
2.69519
2.69675
2.69832
2.70033
2.70302
2.70607
2.70883
2.71074
2.71168
2.71204
2.71224
2.71271
2.71378
2.71541
2.71724
2.719
2.72029
2.72092
2.72088
2.7203
2.71903
2.7171
2.71465
2.71191
2.70912
2.70657
2.70483
2.70432
2.704
2.70411
2.70377
1
1
1
1
1
1
1
1
1
1
1
1
1
1
1
1
1
1
1
1
1
1
1
1
1
1
1
1
1
1
1
1
1
1
1
1
1
1
1
1
1
1
1
1
1
1
1
1
1
1
1
1.15891
2.35475
2.63466
2.64299
2.6504
2.65612
2.66076
2.66423
2.66691
2.6695
2.67254
2.67609
2.67963
2.68246
2.68432
2.68549
2.68647
2.68772
2.68962
2.69211
2.69462
2.69649
2.69723
2.69715
2.69682
2.69676
2.69711
2.6978
2.6988
2.69966
2.69995
2.69963
2.69853
2.69662
2.69394
2.69045
2.68617
2.68131
2.67628
2.67154
2.66771
2.6651
2.66668
2.66612
2.68194
1
1
1
1
1
1
1
1
1
1
1
1
1
1
1
1
1
1
1
1
1
1
1
1
1
1
1
1
1
1
1
1
1
1
1
1
1
1
1
1
1
1
1
1
1
1
1
1
1
1
1
1.00065
1.99419
2.60217
2.61881
2.62684
2.63396
2.64029
2.64547
2.64951
2.65313
2.65693
2.66109
2.66525
2.66877
2.67125
2.67275
2.67367
2.6745
2.67572
2.67763
2.67986
2.68167
2.68251
2.68236
2.68173
2.68106
2.68076
2.68065
2.6807
2.68063
2.68008
2.6787
2.6763
2.67281
2.66823
2.66238
2.65506
2.64582
2.63455
2.61994
2.60094
2.57315
2.53371
2.47196
2.34577
1
1
1
1
1
1
1
1
1
1
1
1
1
1
1
1
1
1
1
1
1
1
1
1
1
1
1
1
1
1
1
1
1
1
1
1
1
1
1
1
1
1
1
1
1
1
1
1
1
1
1
0.999984
1.41041
2.44106
2.60557
2.61386
2.6216
2.62728
2.63175
2.63549
2.63921
2.64337
2.64798
2.65271
2.65699
2.6603
2.66255
2.66392
2.66477
2.66562
2.66686
2.66835
2.6696
2.67023
2.66995
2.66897
2.66766
2.66657
2.66566
2.66479
2.66371
2.66213
2.65966
2.656
2.65091
2.64434
2.63586
2.6254
2.61181
2.59503
2.57239
2.54288
2.49976
2.44287
2.33416
2.17469
1
1
1
1
1
1
1
1
1
1
1
1
1
1
1
1
1
1
1
1
1
1
1
1
1
1
1
1
1
1
1
1
1
1
1
1
1
1
1
1
1
1
1
1
1
1
1
1
1
1
1
0.999998
1.01738
2.15162
2.61257
2.61131
2.61267
2.61522
2.61807
2.62099
2.62429
2.62837
2.63317
2.63813
2.64281
2.64667
2.6496
2.65171
2.65307
2.65403
2.65486
2.65571
2.65645
2.65673
2.65632
2.65505
2.65321
2.65139
2.64964
2.64778
2.64558
2.64284
2.63917
2.6343
2.62767
2.61919
2.6082
2.59477
2.5777
2.55647
2.529
2.49229
2.44435
2.3717
2.2688
2.13798
1
1
1
1
1
1
1
1
1
1
1
1
1
1
1
1
1
1
1
1
1
1
1
1
1
1
1
1
1
1
1
1
1
1
1
1
1
1
1
1
1
1
1
1
1
1
1
1
1
1
1
1
1.00001
1.56005
2.48569
2.60085
2.60351
2.60577
2.60768
2.6098
2.61228
2.6155
2.61952
2.62362
2.62787
2.63169
2.63493
2.63765
2.63983
2.64137
2.64236
2.64293
2.64315
2.64303
2.64233
2.64078
2.63859
2.63622
2.63367
2.63081
2.62738
2.62332
2.61833
2.61222
2.6043
2.59426
2.58141
2.56562
2.54619
2.52217
2.49225
2.45328
2.40283
2.33639
2.25317
2.1508
1
1
1
1
1
1
1
1
1
1
1
1
1
1
1
1
1
1
1
1
1
1
1
1
1
1
1
1
1
1
1
1
1
1
1
1
1
1
1
1
1
1
1
1
1
1
1
1
1
1
1
1
1
1.03409
2.20501
2.60534
2.60109
2.59943
2.60045
2.60186
2.60336
2.60532
2.60807
2.61078
2.6138
2.61663
2.61918
2.62167
2.62416
2.62628
2.6278
2.62854
2.62853
2.62818
2.62727
2.62568
2.62342
2.62071
2.61749
2.61373
2.60913
2.60376
2.59744
2.59009
2.58107
2.56987
2.55584
2.53867
2.518
2.4929
2.4627
2.42432
2.3775
2.32092
2.25598
2.17458
1
1
1
1
1
1
1
1
1
1
1
1
1
1
1
1
1
1
1
1
1
1
1
1
1
1
1
1
1
1
1
1
1
1
1
1
1
1
1
1
1
1
1
1
1
1
1
1
1
1
1
1
1
1.00007
1.58066
2.47143
2.57866
2.58468
2.58976
2.5916
2.59301
2.59474
2.59692
2.59846
2.6001
2.60177
2.60335
2.6052
2.60746
2.60982
2.61179
2.61281
2.61267
2.61197
2.61078
2.60925
2.6072
2.60453
2.60103
2.5967
2.59127
2.58485
2.57739
2.56895
2.55906
2.54714
2.53259
2.51498
2.49408
2.46914
2.43972
2.40426
2.36259
2.31493
2.26237
2.19774
1
1
1
1
1
1
1
1
1
1
1
1
1
1
1
1
1
1
1
1
1
1
1
1
1
1
1
1
1
1
1
1
1
1
1
1
1
1
1
1
1
1
1
1
1
1
1
1
1
1
1
1
1
1
1.03616
2.1646
2.57793
2.57929
2.58012
2.58185
2.58391
2.58644
2.58866
2.58967
2.59021
2.59056
2.59066
2.59111
2.59221
2.59396
2.59581
2.59689
2.59664
2.59563
2.59405
2.59236
2.59035
2.58777
2.58427
2.57969
2.57381
2.56667
2.55831
2.54895
2.53831
2.52592
2.51124
2.49377
2.47367
2.44949
2.42184
2.39002
2.35365
2.31221
2.26828
2.21575
1
1
1
1
1
1
1
1
1
1
1
1
1
1
1
1
1
1
1
1
1
1
1
1
1
1
1
1
1
1
1
1
1
1
1
1
1
1
1
1
1
1
1
1
1
1
1
1
1
1
1
1
1
1
1.00008
1.43804
2.4093
2.56193
2.56284
2.56754
2.57257
2.57715
2.57959
2.58
2.57978
2.57927
2.57839
2.57776
2.5778
2.57848
2.5796
2.58035
2.58001
2.57885
2.57689
2.57476
2.57247
2.56986
2.56652
2.56207
2.55621
2.54886
2.54013
2.53035
2.51931
2.50675
2.4923
2.47528
2.45637
2.43323
2.4078
2.37938
2.34733
2.31117
2.27368
2.22966
1
1
1
1
1
1
1
1
1
1
1
1
1
1
1
1
1
1
1
1
1
1
1
1
1
1
1
1
1
1
1
1
1
1
1
1
1
1
1
1
1
1
1
1
1
1
1
1
1
1
1
1
1
1
1
1.01697
2.01511
2.54162
2.55704
2.55653
2.56037
2.56537
2.56888
2.57008
2.56995
2.56932
2.56819
2.56694
2.566
2.56594
2.56602
2.56587
2.56523
2.56377
2.56124
2.55832
2.5552
2.55199
2.54842
2.544
2.53831
2.53116
2.52259
2.51281
2.50172
2.48919
2.47521
2.4587
2.4408
2.41936
2.39619
2.37088
2.34225
2.31072
2.2778
2.24041
1
1
1
1
1
1
1
1
1
1
1
1
1
1
1
1
1
1
1
1
1
1
1
1
1
1
1
1
1
1
1
1
1
1
1
1
1
1
1
1
1
1
1
1
1
1
1
1
1
1
1
1
1
1
1
1.00002
1.16611
2.30311
2.55237
2.54656
2.54838
2.55179
2.55523
2.55727
2.5575
2.55708
2.55614
2.5549
2.55369
2.5533
2.55296
2.55219
2.55106
2.54924
2.54617
2.54252
2.53853
2.53457
2.53052
2.52591
2.52022
2.51332
2.50522
2.49581
2.48514
2.47292
2.45961
2.44373
2.4268
2.40738
2.38605
2.36344
2.33762
2.31018
2.28056
2.24847
1
1
1
1
1
1
1
1
1
1
1
1
1
1
1
1
1
1
1
1
1
1
1
1
1
1
1
1
1
1
1
1
1
1
1
1
1
1
1
1
1
1
1
1
1
1
1
1
1
1
1
1
1
1
1
1
1.00183
1.72689
2.45513
2.51666
2.52783
2.53436
2.53861
2.54138
2.54262
2.54263
2.54223
2.54138
2.54043
2.54029
2.54006
2.5392
2.53775
2.53555
2.53208
2.5279
2.52317
2.51843
2.51365
2.50841
2.50245
2.49555
2.48788
2.47893
2.4689
2.45712
2.44455
2.42961
2.41396
2.39641
2.37694
2.35668
2.33347
2.30953
2.28246
2.25446
1
1
1
1
1
1
1
1
1
1
1
1
1
1
1
1
1
1
1
1
1
1
1
1
1
1
1
1
1
1
1
1
1
1
1
1
1
1
1
1
1
1
1
1
1
1
1
1
1
1
1
1
1
1
1
1
1
1.06394
2.08851
2.51155
2.52201
2.5251
2.52631
2.5274
2.52822
2.52859
2.5285
2.5282
2.52786
2.528
2.52797
2.52711
2.5254
2.52276
2.51903
2.51453
2.50929
2.50395
2.49847
2.49258
2.48624
2.47908
2.4716
2.4627
2.45294
2.44163
2.42972
2.41582
2.40157
2.38564
2.3683
2.35009
2.32964
2.30828
2.28371
2.25901
1
1
1
1
1
1
1
1
1
1
1
1
1
1
1
1
1
1
1
1
1
1
1
1
1
1
1
1
1
1
1
1
1
1
1
1
1
1
1
1
1
1
1
1
1
1
1
1
1
1
1
1
1
1
1
1
1
1.00029
1.22554
2.28334
2.51108
2.50936
2.51079
2.51075
2.51132
2.51205
2.51268
2.51309
2.5135
2.51416
2.51449
2.51377
2.51209
2.50935
2.50559
2.50103
2.49566
2.48995
2.48411
2.47793
2.47128
2.46405
2.45624
2.44738
2.43765
2.4267
2.41526
2.40226
2.38929
2.37481
2.35964
2.34327
2.3254
2.30606
2.28445
2.26239
1
1
1
1
1
1
1
1
1
1
1
1
1
1
1
1
1
1
1
1
1
1
1
1
1
1
1
1
1
1
1
1
1
1
1
1
1
1
1
1
1
1
1
1
1
1
1
1
1
1
1
1
1
1
1
1
1
1
1.00354
1.66456
2.4039
2.48748
2.48701
2.48915
2.49155
2.49372
2.49533
2.49679
2.49792
2.49898
2.49963
2.49915
2.49765
2.49511
2.49158
2.48719
2.48197
2.47618
2.47031
2.46436
2.45776
2.45075
2.44291
2.43402
2.42417
2.41337
2.40207
2.3896
2.37731
2.36387
2.35031
2.33543
2.31969
2.30232
2.28369
2.26383
1
1
1
1
1
1
1
1
1
1
1
1
1
1
1
1
1
1
1
1
1
1
1
1
1
1
1
1
1
1
1
1
1
1
1
1
1
1
1
1
1
1
1
1
1
1
1
1
1
1
1
1
1
1
1
1
1
1
1
1.04992
1.95521
2.45796
2.47284
2.47679
2.47965
2.48056
2.48162
2.48275
2.48355
2.48414
2.48442
2.48393
2.48248
2.48007
2.47669
2.47255
2.46755
2.4619
2.45619
2.45074
2.44455
2.43806
2.43067
2.42226
2.41256
2.40198
2.39069
2.37864
2.36648
2.35356
2.3407
2.32685
2.31279
2.29732
2.28132
2.26333
1
1
1
1
1
1
1
1
1
1
1
1
1
1
1
1
1
1
1
1
1
1
1
1
1
1
1
1
1
1
1
1
1
1
1
1
1
1
1
1
1
1
1
1
1
1
1
1
1
1
1
1
1
1
1
1
1
1
1
1.0002
1.15037
2.10555
2.4496
2.46926
2.47006
2.47104
2.47114
2.47101
2.47062
2.47
2.46928
2.46816
2.46643
2.46396
2.46065
2.45669
2.45219
2.44694
2.44162
2.43654
2.43105
2.42514
2.41849
2.41093
2.40204
2.3921
2.38116
2.36957
2.35738
2.34465
2.33191
2.31862
2.30548
2.29147
2.27723
2.26112
1
1
1
1
1
1
1
1
1
1
1
1
1
1
1
1
1
1
1
1
1
1
1
1
1
1
1
1
1
1
1
1
1
1
1
1
1
1
1
1
1
1
1
1
1
1
1
1
1
1
1
1
1
1
1
1
1
1
1
1
1.00153
1.26474
2.21075
2.44231
2.45955
2.45948
2.45937
2.45902
2.45802
2.45654
2.45482
2.45288
2.45055
2.44781
2.44453
2.44056
2.43636
2.43182
2.42684
2.42212
2.41712
2.41182
2.40592
2.39924
2.39139
2.38244
2.37239
2.3615
2.34959
2.33721
2.32472
2.31186
2.29896
2.28574
2.27236
2.2576
1
1
1
1
1
1
1
1
1
1
1
1
1
1
1
1
1
1
1
1
1
1
1
1
1
1
1
1
1
1
1
1
1
1
1
1
1
1
1
1
1
1
1
1
1
1
1
1
1
1
1
1
1
1
1
1
1
1
1
1
1
1.00498
1.45403
2.29095
2.43815
2.43846
2.43954
2.44053
2.43998
2.43894
2.43757
2.43597
2.43405
2.43167
2.42879
2.42524
2.42119
2.41713
2.41272
2.40812
2.40333
2.3983
2.39287
2.38681
2.37984
2.37197
2.3631
2.35322
2.34211
2.33045
2.3185
2.30609
2.29331
2.2806
2.26757
2.25379
1
1
1
1
1
1
1
1
1
1
1
1
1
1
1
1
1
1
1
1
1
1
1
1
1
1
1
1
1
1
1
1
1
1
1
1
1
1
1
1
1
1
1
1
1
1
1
1
1
1
1
1
1
1
1
1
1
1
1
1
1
1.00001
1.01787
1.73456
2.3674
2.42136
2.41742
2.41758
2.41756
2.41742
2.41702
2.41648
2.4157
2.41444
2.4125
2.40981
2.40651
2.40288
2.39893
2.39461
2.38998
2.38503
2.37976
2.37402
2.36764
2.36057
2.3527
2.34383
2.33375
2.32309
2.31205
2.30037
2.28807
2.27599
2.26332
2.25044
1
1
1
1
1
1
1
1
1
1
1
1
1
1
1
1
1
1
1
1
1
1
1
1
1
1
1
1
1
1
1
1
1
1
1
1
1
1
1
1
1
1
1
1
1
1
1
1
1
1
1
1
1
1
1
1
1
1
1
1
1
1
1.00004
1.06831
1.89407
2.38916
2.40772
2.40234
2.40076
2.39991
2.39948
2.39901
2.39831
2.39726
2.39578
2.39376
2.39125
2.38834
2.38499
2.38112
2.37679
2.37203
2.36688
2.36128
2.35517
2.3485
2.3412
2.33311
2.3241
2.31459
2.30478
2.2941
2.28263
2.27132
2.25933
2.24742
1
1
1
1
1
1
1
1
1
1
1
1
1
1
1
1
1
1
1
1
1
1
1
1
1
1
1
1
1
1
1
1
1
1
1
1
1
1
1
1
1
1
1
1
1
1
1
1
1
1
1
1
1
1
1
1
1
1
1
1
1
1
1
1.00038
1.12954
1.96884
2.37712
2.39414
2.39029
2.38895
2.38727
2.38551
2.38371
2.38203
2.38029
2.37825
2.37586
2.37311
2.36997
2.36649
2.36262
2.35828
2.35346
2.34817
2.34232
2.33595
2.32915
2.32186
2.31384
2.30534
2.29667
2.28705
2.27659
2.26604
2.25505
2.2441
1
1
1
1
1
1
1
1
1
1
1
1
1
1
1
1
1
1
1
1
1
1
1
1
1
1
1
1
1
1
1
1
1
1
1
1
1
1
1
1
1
1
1
1
1
1
1
1
1
1
1
1
1
1
1
1
1
1
1
1
1
1
1
1
1.0012
1.17908
2.00123
2.35612
2.38293
2.38072
2.37898
2.37637
2.37356
2.37053
2.3675
2.36451
2.36154
2.35849
2.35525
2.35181
2.34814
2.34415
2.33976
2.33491
2.32958
2.32374
2.31742
2.31072
2.30348
2.29581
2.28791
2.27922
2.26974
2.25986
2.24989
2.23983
1
1
1
1
1
1
1
1
1
1
1
1
1
1
1
1
1
1
1
1
1
1
1
1
1
1
1
1
1
1
1
1
1
1
1
1
1
1
1
1
1
1
1
1
1
1
1
1
1
1
1
1
1
1
1
1
1
1
1
1
1
1
1
1
1
1.00228
1.21482
2.01082
2.33507
2.37122
2.36868
2.36687
2.3641
2.36085
2.35715
2.35325
2.34929
2.34538
2.34164
2.33793
2.33409
2.33004
2.32577
2.32123
2.31635
2.31107
2.30533
2.29923
2.29268
2.28565
2.27823
2.27027
2.26166
2.25245
2.24334
2.23416
1
1
1
1
1
1
1
1
1
1
1
1
1
1
1
1
1
1
1
1
1
1
1
1
1
1
1
1
1
1
1
1
1
1
1
1
1
1
1
1
1
1
1
1
1
1
1
1
1
1
1
1
1
1
1
1
1
1
1
1
1
1
1
1
1
1
1.00333
1.23644
2.00482
2.3149
2.35558
2.35329
2.35177
2.34953
2.34671
2.34309
2.33906
2.33484
2.33059
2.32638
2.3221
2.31767
2.31317
2.30861
2.3039
2.29894
2.29363
2.28797
2.28193
2.27539
2.26833
2.26088
2.25296
2.24446
2.23594
2.22744
1
1
1
1
1
1
1
1
1
1
1
1
1
1
1
1
1
1
1
1
1
1
1
1
1
1
1
1
1
1
1
1
1
1
1
1
1
1
1
1
1
1
1
1
1
1
1
1
1
1
1
1
1
1
1
1
1
1
1
1
1
1
1
1
1
1
1
1.00412
1.24394
1.98648
2.29146
2.33811
2.33475
2.33461
2.33314
2.33087
2.32798
2.32458
2.32076
2.31655
2.31203
2.30733
2.30258
2.29779
2.2929
2.28788
2.28261
2.27703
2.27114
2.26483
2.25802
2.25087
2.24342
2.2355
2.22745
2.21941
1
1
1
1
1
1
1
1
1
1
1
1
1
1
1
1
1
1
1
1
1
1
1
1
1
1
1
1
1
1
1
1
1
1
1
1
1
1
1
1
1
1
1
1
1
1
1
1
1
1
1
1
1
1
1
1
1
1
1
1
1
1
1
1
1
1
1
1.00001
1.00446
1.23794
1.95089
2.26691
2.31945
2.31493
2.31568
2.3153
2.31432
2.31255
2.30994
2.3066
2.30267
2.2984
2.29388
2.2891
2.28406
2.27876
2.27319
2.2673
2.26114
2.25468
2.24783
2.24076
2.23346
2.22592
2.21823
2.21051
1
1
1
1
1
1
1
1
1
1
1
1
1
1
1
1
1
1
1
1
1
1
1
1
1
1
1
1
1
1
1
1
1
1
1
1
1
1
1
1
1
1
1
1
1
1
1
1
1
1
1
1
1
1
1
1
1
1
1
1
1
1
1
1
1
1
1
1
1.00001
1.0043
1.21729
1.89299
2.24139
2.2985
2.29496
2.29625
2.29746
2.2974
2.29674
2.29514
2.29273
2.28965
2.28592
2.28151
2.27652
2.27101
2.26511
2.25884
2.2523
2.24553
2.2385
2.23131
2.22394
2.21651
2.209
2.2015
1
1
1
1
1
1
1
1
1
1
1
1
1
1
1
1
1
1
1
1
1
1
1
1
1
1
1
1
1
1
1
1
1
1
1
1
1
1
1
1
1
1
1
1
1
1
1
1
1
1
1
1
1
1
1
1
1
1
1
1
1
1
1
1
1
1
1
1
1
1.00001
1.00364
1.1812
1.81176
2.21228
2.27771
2.27635
2.27811
2.27952
2.2802
2.28009
2.27933
2.27774
2.2752
2.27167
2.26727
2.26216
2.25649
2.25037
2.24393
2.23718
2.23018
2.22298
2.21561
2.20819
2.20074
2.19335
1
1
1
1
1
1
1
1
1
1
1
1
1
1
1
1
1
1
1
1
1
1
1
1
1
1
1
1
1
1
1
1
1
1
1
1
1
1
1
1
1
1
1
1
1
1
1
1
1
1
1
1
1
1
1
1
1
1
1
1
1
1
1
1
1
1
1
1
1
1
1.00001
1.00263
1.13454
1.71957
2.18171
2.25906
2.25912
2.25976
2.26069
2.2611
2.26132
2.26087
2.25961
2.2574
2.25432
2.25041
2.24582
2.24066
2.23501
2.22891
2.22242
2.21563
2.20859
2.20136
2.19407
2.18677
1
1
1
1
1
1
1
1
1
1
1
1
1
1
1
1
1
1
1
1
1
1
1
1
1
1
1
1
1
1
1
1
1
1
1
1
1
1
1
1
1
1
1
1
1
1
1
1
1
1
1
1
1
1
1
1
1
1
1
1
1
1
1
1
1
1
1
1
1
1
1
1
1.00156
1.09077
1.6375
2.15166
2.23963
2.24444
2.24197
2.24224
2.24156
2.24095
2.24006
2.23878
2.23698
2.2346
2.23166
2.22809
2.22391
2.21914
2.2138
2.20796
2.20168
2.19507
2.18825
2.18129
1
1
1
1
1
1
1
1
1
1
1
1
1
1
1
1
1
1
1
1
1
1
1
1
1
1
1
1
1
1
1
1
1
1
1
1
1
1
1
1
1
1
1
1
1
1
1
1
1
1
1
1
1
1
1
1
1
1
1
1
1
1
1
1
1
1
1
1
1
1
1
1
1
1.0008
1.06014
1.55265
2.11022
2.21971
2.23339
2.22722
2.22557
2.22306
2.22121
2.21949
2.2179
2.21626
2.21443
2.21226
2.20966
2.20649
2.20268
2.19821
2.19322
2.18776
2.1818
2.17559
1
1
1
1
1
1
1
1
1
1
1
1
1
1
1
1
1
1
1
1
1
1
1
1
1
1
1
1
1
1
1
1
1
1
1
1
1
1
1
1
1
1
1
1
1
1
1
1
1
1
1
1
1
1
1
1
1
1
1
1
1
1
1
1
1
1
1
1
1
1
1
1
1
1
1.0004
1.03742
1.4626
2.04201
2.20242
2.22168
2.21533
2.21168
2.20809
2.20493
2.20213
2.19974
2.19763
2.19567
2.19367
2.19142
2.1888
2.18572
2.18213
2.17794
2.17325
2.16821
1
1
1
1
1
1
1
1
1
1
1
1
1
1
1
1
1
1
1
1
1
1
1
1
1
1
1
1
1
1
1
1
1
1
1
1
1
1
1
1
1
1
1
1
1
1
1
1
1
1
1
1
1
1
1
1
1
1
1
1
1
1
1
1
1
1
1
1
1
1
1
1
1
1
1
1.00019
1.0219
1.36053
1.93845
2.18105
2.20889
2.20398
2.19995
2.19575
2.19191
2.18821
2.18492
2.18199
2.1793
2.17673
2.17423
2.17165
2.16875
2.16552
2.16197
2.15798
1
1
1
1
1
1
1
1
1
1
1
1
1
1
1
1
1
1
1
1
1
1
1
1
1
1
1
1
1
1
1
1
1
1
1
1
1
1
1
1
1
1
1
1
1
1
1
1
1
1
1
1
1
1
1
1
1
1
1
1
1
1
1
1
1
1
1
1
1
1
1
1
1
1
1
1
1.00008
1.01158
1.24806
1.80919
2.14253
2.19401
2.1914
2.1876
2.1836
2.17987
2.17601
2.17232
2.16879
2.16536
2.16214
2.15888
2.15564
2.15254
2.14922
2.14567
1
1
1
1
1
1
1
1
1
1
1
1
1
1
1
1
1
1
1
1
1
1
1
1
1
1
1
1
1
1
1
1
1
1
1
1
1
1
1
1
1
1
1
1
1
1
1
1
1
1
1
1
1
1
1
1
1
1
1
1
1
1
1
1
1
1
1
1
1
1
1
1
1
1
1
1
1
1.00003
1.00519
1.1483
1.66003
2.09062
2.16772
2.18073
2.17471
2.17113
2.16784
2.16443
2.16059
2.15675
2.15282
2.14877
2.14507
2.14129
2.1373
2.13366
1
1
1
1
1
1
1
1
1
1
1
1
1
1
1
1
1
1
1
1
1
1
1
1
1
1
1
1
1
1
1
1
1
1
1
1
1
1
1
1
1
1
1
1
1
1
1
1
1
1
1
1
1
1
1
1
1
1
1
1
1
1
1
1
1
1
1
1
1
1
1
1
1
1
1
1
1
1
1.00001
1.00197
1.07526
1.51471
2.00029
2.14182
2.16746
2.16208
2.15895
2.15552
2.15216
2.14852
2.1444
2.1404
2.1362
2.13166
2.12771
2.12376
1
1
1
1
1
1
1
1
1
1
1
1
1
1
1
1
1
1
1
1
1
1
1
1
1
1
1
1
1
1
1
1
1
1
1
1
1
1
1
1
1
1
1
1
1
1
1
1
1
1
1
1
1
1
1
1
1
1
1
1
1
1
1
1
1
1
1
1
1
1
1
1
1
1
1
1
1
1
1
1
1.00062
1.03365
1.36515
1.86963
2.11055
2.15121
2.14879
2.1445
2.14182
2.13904
2.1357
2.13196
2.12778
2.124
2.12014
2.11574
1
1
1
1
1
1
1
1
1
1
1
1
1
1
1
1
1
1
1
1
1
1
1
1
1
1
1
1
1
1
1
1
1
1
1
1
1
1
1
1
1
1
1
1
1
1
1
1
1
1
1
1
1
1
1
1
1
1
1
1
1
1
1
1
1
1
1
1
1
1
1
1
1
1
1
1
1
1
1
1
1
1.00017
1.01323
1.21927
1.70606
2.05921
2.11982
2.13736
2.13133
2.12883
2.12674
2.12383
2.12036
2.11623
2.11197
2.10853
1
1
1
1
1
1
1
1
1
1
1
1
1
1
1
1
1
1
1
1
1
1
1
1
1
1
1
1
1
1
1
1
1
1
1
1
1
1
1
1
1
1
1
1
1
1
1
1
1
1
1
1
1
1
1
1
1
1
1
1
1
1
1
1
1
1
1
1
1
1
1
1
1
1
1
1
1
1
1
1
1
1
1.00004
1.00441
1.10596
1.52843
1.95988
2.09484
2.12146
2.1188
2.11542
2.11304
2.11041
2.10684
2.10274
2.09946
1
1
1
1
1
1
1
1
1
1
1
1
1
1
1
1
1
1
1
1
1
1
1
1
1
1
1
1
1
1
1
1
1
1
1
1
1
1
1
1
1
1
1
1
1
1
1
1
1
1
1
1
1
1
1
1
1
1
1
1
1
1
1
1
1
1
1
1
1
1
1
1
1
1
1
1
1
1
1
1
1
1
1
1.00001
1.00118
1.04014
1.3544
1.81376
2.05391
2.10416
2.10871
2.10337
2.0995
2.09619
2.09124
2.08749
1
1
1
1
1
1
1
1
1
1
1
1
1
1
1
1
1
1
1
1
1
1
1
1
1
1
1
1
1
1
1
1
1
1
1
1
1
1
1
1
1
1
1
1
1
1
1
1
1
1
1
1
1
1
1
1
1
1
1
1
1
1
1
1
1
1
1
1
1
1
1
1
1
1
1
1
1
1
1
1
1
1
1
1
1
1.00024
1.01323
1.19308
1.64035
1.97529
2.07135
2.09489
2.09307
2.08979
2.08639
2.0801
1
1
1
1
1
1
1
1
1
1
1
1
1
1
1
1
1
1
1
1
1
1
1
1
1
1
1
1
1
1
1
1
1
1
1
1
1
1
1
1
1
1
1
1
1
1
1
1
1
1
1
1
1
1
1
1
1
1
1
1
1
1
1
1
1
1
1
1
1
1
1
1
1
1
1
1
1
1
1
1
1
1
1
1
1
1
1.00004
1.00359
1.08227
1.43153
1.86364
2.04339
2.07395
2.07726
2.07363
2.06876
1
1
1
1
1
1
1
1
1
1
1
1
1
1
1
1
1
1
1
1
1
1
1
1
1
1
1
1
1
1
1
1
1
1
1
1
1
1
1
1
1
1
1
1
1
1
1
1
1
1
1
1
1
1
1
1
1
1
1
1
1
1
1
1
1
1
1
1
1
1
1
1
1
1
1
1
1
1
1
1
1
1
1
1
1
1
1
1.00001
1.00078
1.02443
1.25791
1.69128
1.97275
2.04948
2.06746
2.06468
1
1
1
1
1
1
1
1
1
1
1
1
1
1
1
1
1
1
1
1
1
1
1
1
1
1
1
1
1
1
1
1
1
1
1
1
1
1
1
1
1
1
1
1
1
1
1
1
1
1
1
1
1
1
1
1
1
1
1
1
1
1
1
1
1
1
1
1
1
1
1
1
1
1
1
1
1
1
1
1
1
1
1
1
1
1
1
1
1
1.00011
1.00675
1.11631
1.47876
1.85743
2.01311
2.0548
1
1
1
1
1
1
1
1
1
1
1
1
1
1
1
1
1
1
1
1
1
1
1
1
1
1
1
1
1
1
1
1
1
1
1
1
1
1
1
1
1
1
1
1
1
1
1
1
1
1
1
1
1
1
1
1
1
1
1
1
1
1
1
1
1
1
1
1
1
1
1
1
1
1
1
1
1
1
1
1
1
1
1
1
1
1
1
1
1
1
1.00002
1.00151
1.03472
1.28019
1.68155
1.96654
1
1
1
1
1
1
1
1
1
1
1
1
1
1
1
1
1
1
1
1
1
1
1
1
1
1
1
1
1
1
1
1
1
1
1
1
1
1
1
1
1
1
1
1
1
1
1
1
1
1
1
1
1
1
1
1
1
1
1
1
1
1
1
1
1
1
1
1
1
1
1
1
1
1
1
1
1
1
1
1
1
1
1
1
1
1
1
1
1
1
1
1
1.0002
1.00862
1.11948
1.50328
1
1
1
1
1
1
1
1
1
1
1
1
1
1
1
1
1
1
1
1
1
1
1
1
1
1
1
1
1
1
1
1
1
1
1
1
1
1
1
1
1
1
1
1
1
1
1
1
1
1
1
1
1
1
1
1
1
1
1
1
1
1
1
1
1
1
1
1
1
1
1
1
1
1
1
1
1
1
1
1
1
1
1
1
1
1
1
1
1
1
1
1
1
1.00002
1.00168
1.03924
1
1
1
1
1
1
1
1
1
1
1
1
1
1
1
1
1
1
1
1
1
1
1
1
1
1
1
1
1
1
1
1
1
1
1
1
1
1
1
1
1
1
1
1
1
1
1
1
1
1
1
1
1
1
1
1
1
1
1
1
1
1
1
1
1
1
1
1
1
1
1
1
1
1
1
1
1
1
1
1
1
1
1
1
1
1
1
1
1
1
1
1
1
1
1
1.00021
1
1
1
1
1
1
1
1
1
1
1
1
1
1
1
1
1
1
1
1
1
1
1
1
1
1
1
1
1
1
1
1
1
1
1
1
1
1
1
1
1
1
1
1
1
1
1
1
1
1
1
1
1
1
1
1
1
1
1
1
1
1
1
1
1
1
1
1
1
1
1
1
1
1
1
1
1
1
1
1
1
1
1
1
1
1
1
1
1
1
1
1
1
1
1
1
1
1
1
1
1
1
1
1
1
1
1
1
1
1
1
1
1
1
1
1
1
1
1
1
1
1
1
1
1
1
1
1
1
1
1
1
1
1
1
1
1
1
1
1
1
1
1
1
1
1
1
1
1
1
1
1
1
1
1
1
1
1
1
1
1
1
1
1
1
1
1
1
1
1
1
1
1
1
1
1
1
1
1
1
1
1
1
1
1
1
1
1
1
1
1
1
1
1
1
1
1
1
1
1
1
1
1
1
1
1
1
1
1
1
1
1
1
1
1
1
1
1
1
1
1
1
1
1
1
1
1
1
1
1
1
1
1
1
1
1
1
1
1
1
1
1
1
1
1
1
1
1
1
1
1
1
1
1
1
1
1
1
1
1
1
1
1
1
1
1
1
1
1
1
1
1
1
1
1
1
1
1
1
1
1
1
1
1
1
1
1
1
1
1
1
1
1
1
1
1
1
1
1
1
1
1
1
1
1
1
1
1
1
1
1
1
1
1
1
1
1
1
1
1
1
1
1
1
1
1
1
1
1
1
1
1
1
1
1
1
1
1
1
1
1
1
1
1
1
1
1
1
1
1
1
1
1
1
1
1
1
1
1
1
1
1
1
1
1
1
1
1
1
1
1
1
1
1
1
1
1
1
1
1
1
1
1
1
1
1
1
1
1
1
1
1
1
1
1
1
1
1
1
1
1
1
1
1
1
1
1
1
1
1
1
1
1
1
1
1
1
1
1
1
1
1
1
1
1
1
1
1
1
1
1
1
1
1
1
1
1
1
1
1
1
1
1
1
1
1
1
1
1
1
1
1
1
1
1
1
1
1
1
1
1
1
1
1
1
1
1
1
1
1
1
1
1
1
1
1
1
1
1
1
1
1
1
1
1
1
1
1
1
1
1
1
1
1
1
1
1
1
1
1
1
1
1
1
1
1
1
1
1
1
1
1
1
1
1
1
1
1
1
1
1
1
1
1
1
1
1
1
1
1
1
1
1
1
1
1
1
1
1
1
1
1
1
1
1
1
1
1
1
1
1
1
1
1
1
1
1
1
1
1
1
1
1
1
1
1
1
1
1
1
1
1
1
1
1
1
1
1
1
1
1
1
1
1
1
1
1
1
1
1
1
1
1
1
1
1
1
1
1
1
1
1
1
1
1
1
1
1
1
1
1
1
1
1
1
1
1
1
1
1
1
1
1
1
1
1
1
1
1
1
1
1
1
1
1
1
1
1
1
1
1
1
1
1
1
1
1
1
1
1
1
1
1
1
1
1
1
1
1
1
1
1
1
1
1
1
1
1
1
1
1
1
1
1
1
1
1
1
1
1
1
1
1
1
1
1
1
1
1
1
1
1
1
1
1
1
1
1
1
1
1
1
1
1
1
1
1
1
1
1
1
1
1
1
1
1
1
1
1
1
1
1
1
1
1
1
1
1
1
1
1
1
1
1
1
1
1
1
1
1
1
1
1
1
1
1
1
1
1
1
1
1
1
1
1
1
1
1
1
1
1
1
1
1
1
1
1
1
1
1
1
1
1
1
1
1
1
1
1
1
1
1
1
1
1
1
1
1
1
1
1
1
1
1
1
1
1
1
1
1
1
1
1
1
1
1
1
1
1
1
1
1
1
1
1
1
1
1
1
1
1
1
1
1
1
1
1
1
1
1
1
1
1
1
1
1
1
1
1
1
1
1
1
1
1
1
1
1
1
1
1
1
1
1
1
1
1
1
1
1
1
1
1
1
1
1
1
1
1
1
1
1
1
1
1
1
1
1
1
1
1
1
1
1
1
1
1
1
1
1
1
1
1
1
1
1
1
1
1
1
1
1
1
1
1
1
1
1
1
1
1
1
1
1
1
1
1
1
1
1
1
1
1
1
1
1
1
1
1
1
1
1
1
1
1
1
1
1
1
1
1
1
1
1
1
1
1
1
1
1
1
1
1
1
1
1
1
1
1
1
1
1
1
1
1
1
1
1
1
1
1
1
1
1
1
1
1
1
1
1
1
1
1
1
1
1
1
1
1
1
1
1
1
1
1
1
1
1
1
1
1
1
1
1
1
1
1
1
1
1
1
1
1
1
1
1
1
1
1
1
1
1
1
1
1
1
1
1
1
1
1
1
1
1
1
1
1
1
1
1
1
1
1
1
1
1
1
1
1
1
1
1
1
1
1
1
1
1
1
1
1
1
1
1
1
1
1
1
1
1
1
1
1
1
1
1
1
1
1
1
1
1
1
1
1
1
1
1
1
1
1
1
1
1
1
1
1
1
1
1
1
1
1
1
1
1
1
1
1
1
1
1
1
1
1
1
1
1
1
1
1
1
1
1
1
1
1
1
1
1
1
1
1
1
1
1
1
1
1
1
1
1
1
1
1
1
1
1
1
1
1
1
1
1
1
1
1
1
1
1
1
1
1
1
1
1
1
1
1
1
1
1
1
1
1
1
1
1
1
1
1
1
1
1
1
1
1
1
1
1
1
1
1
1
1
1
1
1
1
1
1
1
1
1
1
1
1
1
1
1
1
1
1
1
1
1
1
1
1
1
1
1
1
1
1
1
1
1
1
1
1
1
1
1
1
1
1
1
1
1
1
1
1
1
1
1
1
1
1
1
1
1
1
1
1
1
1
1
1
1
1
1
1
1
1
1
1
1
1
1
1
1
1
1
1
1
1
1
1
1
1
1
1
1
1
1
1
1
1
1
1
1
1
1
1
1
1
1
1
1
1
1
1
1
1
1
1
1
1
1
1
1
1
1
1
1
1
1
1
1
1
1
1
1
1
1
1
1
1
1
1
1
1
1
1
1
1
1
1
1
1
1
1
1
1
1
1
1
1
1
1
1
1
1
1
1
1
1
1
1
1
1
1
1
1
1
1
1
1
1
1
1
1
1
1
1
1
1
1
1
1
1
1
1
1
1
1
1
1
1
1
1
1
1
1
1
1
1
1
1
1
1
1
1
1
1
1
1
1
1
1
1
1
1
1
1
1
1
1
1
1
1
1
1
1
1
1
1
1
1
1
1
1
1
1
1
1
1
1
1
1
1
1
1
1
1
1
1
1
1
1
1
1
1
1
1
1
1
1
1
1
1
1
1
1
1
1
1
1
1
1
1
1
1
1
1
1
1
1
1
1
1
1
1
1
1
1
1
1
1
1
1
1
1
1
1
1
1
1
1
1
1
1
1
1
1
1
1
1
1
1
1
1
1
1
1
1
1
1
1
1
1
1
1
1
1
1
1
1
1
1
1
1
1
1
1
1.49543
0.939384
0.810348
0.682387
0.661295
0.747435
0.923221
1.0562
1.13288
1.24749
1.3751
1.42608
1.43722
1.43699
1.42507
1.43494
1.47687
1.53081
1.59229
1.62819
1.62433
1.61235
1.59854
1.59462
1.6002
1.6197
1.62269
1.62074
1.62324
1.6253
1.62706
1.63488
1.65012
1.65615
1.65602
1.65361
1.64617
1.64385
1.64346
1.64363
1.64486
1.64802
1.65004
1.65002
1.65006
1.65027
1.65114
1.65302
1.65523
1.657
1.65789
1.65849
1.6605
1.66371
1.66461
1.66513
1.66536
1.66478
1.66365
1.66296
1.66252
1.6618
1.66063
1.65906
1.65739
1.65528
1.65167
1.64656
1.63994
2.05422
2.74453
2.84591
2.83908
2.83143
2.81781
2.79347
2.76458
2.73966
2.72167
2.70822
2.69665
2.68432
2.66948
2.65197
2.63368
2.61675
2.60236
2.59058
2.58053
2.5712
2.5619
2.55217
2.54167
2.53033
2.51839
2.5065
2.49532
2.48529
2.47644
2.46841
2.46088
2.45305
2.44412
2.43375
2.42219
2.41069
2.40063
2.39272
2.38716
2.38296
2.37856
2.37313
2.36584
2.3567
2.34608
2.33558
2.32674
2.31963
2.31366
2.30802
2.30202
2.29509
2.2868
2.27715
2.26727
2.2586
2.25108
2.24491
2.24002
2.23505
2.22917
2.2225
2.21483
2.20631
2.19784
2.1903
2.18379
2.17802
2.17267
2.1674
2.16185
2.15578
2.14925
2.14283
2.13745
2.13383
2.13181
2.13047
2.12912
2.12698
2.12329
2.11794
2.11126
2.10422
2.09777
2.09192
2.08628
2.08054
2.07427
2.06699
2.05843
2.0494
2.04153
2.03576
2.03063
2.02554
2.0208
2.01575
2.0105
2.00516
1.99949
1.9936
1.98768
1.98179
1.97596
1.97021
1.96454
1.95898
1.95354
1.94829
1.94367
1.93992
1.9372
1.93521
1.93356
1.93219
1.93076
1.92904
1.92643
1.92224
1.9183
1.91172
1.74247
1.42442
1.22162
1.17557
1.15787
1.05846
0.983723
0.986678
1.00888
1.03038
1.06667
1.12
1.13387
1.1445
1.17763
1.22719
1.27975
1.33976
1.38445
1.42364
1.46419
1.49569
1.51539
1.52225
1.53284
1.55332
1.56733
1.57068
1.57652
1.58409
1.58778
1.59503