/*--------------------------------*- C++ -*----------------------------------*\
  =========                 |
  \\      /  F ield         | OpenFOAM: The Open Source CFD Toolbox
   \\    /   O peration     | Website:  https://openfoam.org
    \\  /    A nd           | Version:  7
     \\/     M anipulation  |
\*---------------------------------------------------------------------------*/
FoamFile
{
    version     2.0;
    format      ascii;
    class       volScalarField;
    location    "2.3";
    object      T;
}
// * * * * * * * * * * * * * * * * * * * * * * * * * * * * * * * * * * * * * //

dimensions      [0 0 0 1 0 0 0];

internalField   nonuniform List<scalar> 
1000
(
0
0
0
0
0
0
0
0
0
0
0
0
0
0
0
0
0
0
0
0
0
0
0
0
0
0
0
0
0
0
0
0
0
0
0
0
0
0
0
0
0
0
0
0
0
0
0
0
0
0
0
0
0
0
0
0
0
0
0
0
0
0
0
0
0
0
0
0
0
0
0
0
0
0
0
0
0
0
0
0
0
0
0
0
0
0
0
0
0
0
0
0
0
0
0
0
0
0
0
0
0
0
0
0
0
0
0
0
0
0
0
0
0
0
0
0
0
0
0
0
0
0
0
0
0
0
0
0
0
0
0
0
0
0
0
0
0
0
0
0
0
0
0
0
0
0
0
0
0
0
0
0
0
0
0
0
0
0
0
0
0
0
0
0
0
0
0
0
0
0
0
0
0
0
0
0
0
0
0
0
0
0
0
0
0
0
0
0
0
0
0
0
0
0
0
0
0
0
0
0
0
0
0
0
0
0
0
0
0
0
0
0
0
0
0
0
0
0
0
0
1.05977e-179
-5.67684e-177
1.50759e-174
-2.64623e-172
3.45334e-170
-3.57348e-168
3.0539e-166
-2.2167e-164
1.39488e-162
-7.72898e-161
3.8176e-159
-1.6976e-157
6.8516e-156
-2.52702e-154
8.56609e-153
-2.68197e-151
7.78882e-150
-2.10592e-148
5.31837e-147
-1.25811e-145
2.79491e-144
-5.84382e-143
1.15233e-141
-2.14673e-140
3.78435e-139
-6.32169e-138
1.00195e-136
-1.5084e-135
2.15907e-134
-2.9408e-133
3.81446e-132
-4.71451e-131
5.55515e-130
-6.24279e-129
6.69278e-128
-6.84616e-127
6.68213e-126
-6.22251e-125
5.527e-124
-4.68062e-123
3.77696e-122
-2.90159e-121
2.1198e-120
-1.47053e-119
9.66787e-119
-6.00828e-118
3.5176e-117
-1.931e-116
9.87341e-116
-4.65563e-115
1.99219e-114
-7.51345e-114
2.3412e-113
-4.86692e-113
-3.08591e-113
1.00438e-111
-6.47405e-111
2.82221e-110
-8.79256e-110
1.46068e-109
3.65852e-109
-4.34048e-108
2.08893e-107
-6.24694e-107
7.44194e-107
4.15621e-106
-3.24745e-105
1.20235e-104
-2.18359e-104
-3.7705e-104
4.55363e-103
-1.77538e-102
3.11897e-102
6.02899e-102
-6.33234e-101
2.16266e-100
-2.48089e-100
-1.29304e-99
8.10882e-99
-1.97411e-98
-4.8353e-99
2.218e-97
-8.09667e-97
8.58687e-97
4.76581e-96
-2.5652e-95
4.59137e-95
8.11612e-95
-7.03721e-94
1.61521e-93
1.05007e-93
-1.77616e-92
4.67591e-92
9.54121e-93
-4.28811e-91
1.19111e-90
1.11059e-91
-1.01106e-89
2.73101e-89
6.35372e-90
-2.33116e-88
5.62371e-88
3.51988e-88
-5.17271e-87
1.01262e-86
1.39541e-86
-1.07458e-85
1.4835e-85
4.32841e-85
-2.01587e-84
1.37184e-84
1.10127e-83
-3.24523e-83
-7.84569e-84
2.32577e-82
-4.05813e-82
-7.36731e-82
4.00942e-81
-2.70132e-81
-2.0423e-80
5.29926e-80
3.43075e-80
-3.81625e-79
4.25465e-79
1.58919e-78
-5.03427e-78
-1.47761e-78
3.13471e-77
-3.80383e-77
-1.22258e-76
3.86226e-76
1.42688e-76
-2.3107e-75
2.2786e-75
9.46854e-75
-2.40371e-74
-2.02523e-74
1.49451e-73
-7.05672e-74
-6.81877e-73
1.11545e-72
2.19878e-72
-7.84622e-72
-2.69357e-72
4.07727e-71
-2.68695e-71
-1.68435e-70
2.82232e-70
5.32131e-70
-1.76847e-69
-9.34434e-70
8.78247e-69
-2.82548e-69
-3.68456e-68
4.01223e-68
1.31471e-67
-2.65947e-67
-3.81261e-67
1.37855e-66
7.23406e-67
-6.17939e-66
6.80082e-67
2.48447e-65
-1.64035e-65
-9.09263e-65
1.11289e-64
3.03695e-64
-5.75599e-64
-9.16956e-64
2.59486e-63
2.42628e-63
-1.0697e-62
-5.11763e-63
4.12961e-62
5.1599e-63
-1.51454e-61
2.55592e-62
5.32956e-61
-2.25984e-61
-1.81333e-60
1.18089e-60
6.00401e-60
-5.12888e-60
-1.94573e-59
2.00869e-59
6.20405e-59
-7.32994e-59
-1.95553e-58
2.53292e-58
6.11752e-58
-8.36081e-58
-1.90496e-57
2.64789e-57
5.91419e-57
-8.05731e-57
-1.83081e-56
2.35275e-56
5.64299e-56
-6.56459e-56
-1.727e-55
1.7353e-55
5.22815e-55
-4.2764e-55
-1.55851e-54
9.508e-55
4.55173e-54
-1.75695e-54
-1.29519e-53
1.90774e-54
3.56817e-53
3.87238e-54
-9.44619e-53
-3.67789e-53
2.37965e-52
1.69368e-52
-5.62385e-52
-6.23928e-52
1.21752e-51
2.01975e-51
-2.30063e-51
-5.92611e-51
3.3111e-51
1.59112e-50
-1.26415e-51
-3.89954e-50
-1.46301e-50
8.59596e-50
7.56598e-50
-1.64263e-49
-2.58657e-49
2.45621e-49
7.22325e-49
-1.67698e-49
-1.72291e-48
-5.98884e-49
3.48508e-48
3.3786e-48
-5.60212e-48
-1.07923e-47
5.33816e-48
2.65516e-47
5.9084e-48
-5.22173e-47
-4.76238e-47
7.61596e-47
1.51767e-46
-4.87927e-47
-3.45096e-46
-1.54275e-46
5.80075e-46
7.47944e-46
-5.77693e-46
-1.92775e-45
-3.94412e-46
3.43974e-45
3.56964e-45
-3.66501e-45
-9.90032e-45
-1.45712e-45
1.7441e-44
1.79754e-44
-1.66274e-44
-4.82566e-44
-1.31817e-44
7.63479e-44
9.51634e-44
-4.86498e-44
-2.18026e-43
-1.2345e-43
2.68173e-43
4.84394e-43
1.14618e-44
-8.39222e-43
-8.7947e-43
5.48967e-43
2.09745e-42
1.27457e-42
-2.23421e-42
-4.59401e-42
-1.22285e-42
6.43001e-42
9.24125e-42
-3.81292e-43
-1.59041e-41
-1.76686e-41
5.89302e-42
3.61815e-41
3.31611e-41
-1.985e-41
-7.83871e-41
-6.31407e-41
5.01297e-41
1.65007e-40
1.25553e-40
-1.08256e-40
-3.40963e-40
-2.64633e-40
2.04573e-40
6.92801e-40
5.87713e-40
-3.24939e-40
-1.37511e-39
-1.34469e-39
3.53238e-40
2.62475e-39
3.08074e-39
1.43018e-40
-4.68223e-39
-6.87462e-39
-2.42398e-39
7.37942e-39
1.4544e-38
9.60763e-39
-8.81886e-39
-2.82442e-38
-2.82577e-38
2.08037e-39
4.77281e-38
6.944e-38
3.12085e-38
-6.13725e-38
-1.4458e-37
-1.2917e-37
2.50169e-38
2.43525e-37
3.48231e-37
1.7302e-37
-2.71631e-37
-7.13756e-37
-7.33518e-37
-7.24312e-38
1.04233e-36
1.84207e-36
1.4163e-36
-5.50489e-37
-3.17577e-36
-4.50076e-36
-2.60749e-36
2.70341e-36
8.79846e-36
1.08862e-35
4.85739e-36
-8.9095e-36
-2.33713e-35
-2.68914e-35
-1.01455e-35
2.50595e-35
6.0988e-35
6.90969e-35
2.64178e-35
-6.33451e-35
-1.57553e-34
-1.85259e-34
-8.51671e-35
1.42456e-34
4.00646e-34
5.12298e-34
3.04799e-34
-2.60769e-34
-9.83653e-34
-1.42877e-33
-1.10161e-33
2.3493e-34
2.24187e-33
3.90198e-33
3.82592e-33
9.90098e-34
-4.34483e-33
-1.00451e-32
-1.24226e-32
-7.7718e-33
5.17767e-33
2.29537e-32
3.67448e-32
3.48875e-32
8.65653e-33
-4.03517e-32
-9.49157e-32
-1.23468e-31
-9.10455e-32
2.10483e-32
1.93629e-31
3.57873e-31
4.06322e-31
2.33716e-31
-1.98451e-31
-7.97094e-31
-1.30978e-30
-1.37245e-30
-6.51124e-31
9.45645e-31
3.05987e-30
4.8019e-30
4.91475e-30
2.24609e-30
-3.54041e-30
-1.12526e-29
-1.78395e-29
-1.88565e-29
-9.97566e-30
1.06034e-29
3.95398e-29
6.67655e-29
7.63928e-29
5.1223e-29
-1.91582e-29
-1.28514e-28
-2.46133e-28
-3.16259e-28
-2.69665e-28
-4.94963e-29
3.52063e-28
8.57072e-28
1.28265e-27
1.35981e-27
8.06068e-28
-5.47482e-28
-2.59829e-27
-4.83686e-27
-6.31056e-27
-5.76829e-27
-2.03923e-27
5.3706e-27
1.55871e-26
2.5826e-26
3.13377e-26
2.61861e-26
5.07938e-27
-3.38369e-26
-8.57749e-26
-1.36774e-25
-1.63366e-25
-1.36049e-25
-2.76949e-26
1.73247e-25
4.46925e-25
7.28287e-25
9.02263e-25
8.15964e-25
3.14659e-25
-6.96476e-25
-2.17137e-24
-3.84122e-24
-5.16276e-24
-5.33727e-24
-3.44186e-24
1.2992e-24
9.10779e-24
1.91677e-23
2.91877e-23
3.52058e-23
3.18725e-23
1.34469e-23
-2.43544e-23
-8.17177e-23
-1.51677e-22
-2.17425e-22
-2.51186e-22
-2.16133e-22
-7.28475e-23
2.08655e-22
6.31477e-22
1.15094e-21
1.65473e-21
1.95143e-21
1.77711e-21
8.30703e-22
-1.15252e-21
-4.28576e-21
-8.38034e-21
-1.27823e-20
-1.62378e-20
-1.68491e-20
-1.22012e-20
2.57705e-22
2.25119e-20
5.49289e-20
9.49256e-20
1.35539e-19
1.64248e-19
1.62582e-19
1.07181e-19
-2.69103e-20
-2.60032e-19
-5.98392e-19
-1.02147e-18
-1.4676e-18
-1.82027e-18
-1.8995e-18
-1.46431e-18
-2.33798e-19
2.06503e-18
5.61546e-18
1.03916e-17
1.6004e-17
2.15245e-17
2.53188e-17
2.49359e-17
1.71219e-17
-1.94893e-18
-3.61237e-17
-8.82953e-17
-1.58919e-16
-2.43997e-16
-3.32608e-16
-4.04221e-16
-4.26262e-16
-3.5268e-16
-1.24581e-16
3.25628e-16
1.0649e-15
2.14316e-15
3.56814e-15
5.27029e-15
7.05792e-15
8.5646e-15
9.19428e-15
8.07383e-15
4.02846e-15
-4.3975e-15
-1.88441e-14
-4.09257e-14
-7.18624e-14
-1.11905e-13
-1.5951e-13
-2.10231e-13
-2.55322e-13
-2.80103e-13
-2.62211e-13
-1.69957e-13
3.87927e-14
4.16646e-13
1.02475e-12
1.92775e-12
3.18414e-12
4.83013e-12
6.85483e-12
9.16428e-12
1.15318e-11
1.35324e-11
1.44594e-11
1.32243e-11
8.24046e-12
-2.69997e-12
-2.25451e-11
-5.50747e-11
-1.04929e-10
-1.77526e-10
-2.78779e-10
-4.1453e-10
-5.89528e-10
-8.05765e-10
-1.05991e-09
-1.33948e-09
-1.61732e-09
-1.84384e-09
-1.93619e-09
-1.76368e-09
-1.12807e-09
2.62354e-10
2.8268e-09
7.15591e-09
1.40681e-08
2.46812e-08
4.05024e-08
6.35405e-08
9.6446e-08
1.42682e-07
2.06735e-07
2.94368e-07
4.12931e-07
5.71726e-07
7.82451e-07
1.05972e-06
1.42168e-06
1.89073e-06
2.49437e-06
3.26619e-06
4.24697e-06
5.48601e-06
7.04263e-06
8.98785e-06
1.14063e-05
1.43985e-05
1.80831e-05
2.25998e-05
2.81124e-05
3.48121e-05
4.29211e-05
5.26972e-05
6.44378e-05
7.84848e-05
9.52305e-05
0.000115122
0.000138671
0.000166453
0.000199125
0.000237422
0.000282172
0.000334304
0.000394853
0.000464971
0.000545938
0.000639168
0.000746224
0.000868822
0.00100885
0.00116835
0.00134959
0.001555
0.00178722
0.00204913
0.0023438
0.00267456
0.00304495
0.00345879
0.00392013
0.00443328
0.00500282
0.00563357
0.00633064
0.00709939
0.00794544
0.00887467
0.00989321
0.0110074
0.0122239
0.0135495
0.0149913
0.0165564
0.0182523
0.0200864
0.0220666
0.0242005
0.0264961
0.0289613
0.0316039
0.0344319
0.0374533
0.0406758
0.0441071
0.0477547
0.0516261
0.0557282
0.0600681
0.0646522
0.0694868
0.0745776
0.0799302
0.0855495
0.0914399
0.0976053
0.104049
0.110775
0.117783
0.125077
0.132656
0.140522
0.148673
0.157109
0.165827
0.174824
0.184098
0.193643
0.203456
0.21353
0.223859
0.234436
0.245253
0.256302
0.267573
0.279057
0.290743
0.302621
0.314678
0.326903
0.339284
0.351808
0.36446
0.377229
0.390099
0.403058
0.41609
0.429181
0.442316
0.455481
0.468662
0.481843
0.495011
0.50815
0.521246
0.534285
0.547254
0.560139
0.572926
0.585602
0.598155
0.610572
0.622841
0.634952
0.646892
0.65865
0.670217
0.681583
0.692738
0.703674
0.71438
0.724851
0.735076
0.745051
0.754766
0.764216
0.773395
0.782296
0.790914
0.799244
0.80728
0.815018
0.822453
0.829581
0.836398
0.842899
0.849082
0.854942
0.860475
0.865679
0.870549
0.875083
0.879277
0.883128
0.886632
0.889788
0.892591
0.895039
0.897129
0.898858
0.900223
0.901221
0.901851
0.902108
0.901992
0.9015
0.900629
0.899379
0.897748
0.895734
0.893336
0.890554
0.887387
0.883836
0.8799
0.875581
0.870881
0.8658
0.860341
0.854508
0.848302
0.841729
0.834793
0.827498
0.819851
0.811858
0.803526
0.794862
0.785875
0.776573
0.766965
0.757062
0.746874
0.736412
0.725688
0.714713
0.703502
0.692064
0.680422
0.668553
0.656632
0.643984
0.633542
0.613081
)
;

boundaryField
{
    sides
    {
        type            zeroGradient;
    }
    empty
    {
        type            empty;
    }
}


// ************************************************************************* //
