/*--------------------------------*- C++ -*----------------------------------*\
  =========                 |
  \\      /  F ield         | OpenFOAM: The Open Source CFD Toolbox
   \\    /   O peration     | Website:  https://openfoam.org
    \\  /    A nd           | Version:  7
     \\/     M anipulation  |
\*---------------------------------------------------------------------------*/
FoamFile
{
    version     2.0;
    format      ascii;
    class       volScalarField;
    location    "0.7";
    object      p;
}
// * * * * * * * * * * * * * * * * * * * * * * * * * * * * * * * * * * * * * //

dimensions      [1 -1 -2 0 0 0 0];

internalField   nonuniform List<scalar> 
19968
(
1
1
1
1
1
1
1
1
1
1
1
1
1
1
1
1
1
1
1
1
1
1
1
1
1
1
1
1
1
1
1
1
1
1
1
1
1
1
1
1
1
1
1
1
1
1
1
1
1
1
1
1
1
1
1
1
1
2.32856
9.46843
11.131
11.2241
11.2544
11.2013
11.1521
11.149
11.2171
11.3542
11.5425
11.7237
11.8435
11.902
11.9297
11.9332
11.9095
11.8895
11.893
11.9183
11.9761
12.0384
12.1109
12.1914
12.2587
12.2882
12.272
12.2209
12.163
12.1295
12.1294
12.1582
12.2221
12.3163
12.4094
12.4693
12.4926
12.4804
12.4729
1
1
1
1
1
1
1
1
1
1
1
1
1
1
1
1
1
1
1
1
1
1
1
1
1
1
1
1
1
1
1
1
1
1
1
1
1
1
1
1
1
1
1
1
1
1
1
1
1
1
1
1
1
1
1
1
1
2.27321
9.38564
11.0951
11.2026
11.2437
11.1863
11.1497
11.1562
11.2283
11.3647
11.549
11.7219
11.8372
11.8972
11.9266
11.9302
11.9065
11.8852
11.8873
11.9112
11.9675
12.0313
12.1074
12.19
12.2555
12.2796
12.2593
12.2078
12.1553
12.1282
12.1317
12.1605
12.222
12.3093
12.3941
12.4504
12.4785
12.4775
12.4799
1
1
1
1
1
1
1
1
1
1
1
1
1
1
1
1
1
1
1
1
1
1
1
1
1
1
1
1
1
1
1
1
1
1
1
1
1
1
1
1
1
1
1
1
1
1
1
1
1
1
1
1
1
1
1
1
1
2.14475
9.21235
11.0672
11.1746
11.2245
11.1734
11.1529
11.169
11.2425
11.3752
11.5503
11.7103
11.8211
11.8881
11.9248
11.9299
11.9029
11.8754
11.8736
11.8969
11.9558
12.0248
12.1027
12.1831
12.2438
12.2623
12.2405
12.1914
12.1468
12.1265
12.1331
12.1626
12.2212
12.2981
12.3691
12.4185
12.4525
12.4667
12.4854
1
1
1
1
1
1
1
1
1
1
1
1
1
1
1
1
1
1
1
1
1
1
1
1
1
1
1
1
1
1
1
1
1
1
1
1
1
1
1
1
1
1
1
1
1
1
1
1
1
1
1
1
1
1
1
1
1
1.93591
8.8866
11.0634
11.1496
11.1954
11.166
11.1734
11.2029
11.2712
11.3891
11.5432
11.6848
11.7948
11.8749
11.9222
11.9294
11.8951
11.8582
11.8503
11.8735
11.9394
12.0167
12.095
12.168
12.2197
12.2328
12.2122
12.1702
12.1379
12.1251
12.1328
12.1611
12.2145
12.2809
12.3396
12.3829
12.4221
12.4499
12.4835
1
1
1
1
1
1
1
1
1
1
1
1
1
1
1
1
1
1
1
1
1
1
1
1
1
1
1
1
1
1
1
1
1
1
1
1
1
1
1
1
1
1
1
1
1
1
1
1
1
1
1
1
1
1
1
1
1
1.63447
8.34169
11.0746
11.1137
11.1755
11.1871
11.2272
11.2502
11.2962
11.3809
11.5129
11.6504
11.7696
11.861
11.9148
11.9227
11.8808
11.8339
11.8186
11.8412
11.9172
12.0068
12.086
12.1472
12.1831
12.1898
12.1736
12.1459
12.1306
12.1249
12.1305
12.153
12.1983
12.2563
12.3093
12.3506
12.3914
12.4233
12.4648
1
1
1
1
1
1
1
1
1
1
1
1
1
1
1
1
1
1
1
1
1
1
1
1
1
1
1
1
1
1
1
1
1
1
1
1
1
1
1
1
1
1
1
1
1
1
1
1
1
1
1
1
1
1
1
1
1
1.28625
7.53538
11.0209
11.1199
11.2311
11.2684
11.2866
11.2736
11.2779
11.3352
11.4669
11.6208
11.7544
11.8495
11.8987
11.9014
11.853
11.7983
11.7766
11.7994
11.8877
11.9918
12.0739
12.123
12.137
12.1331
12.1228
12.1169
12.1241
12.1261
12.1256
12.1363
12.1687
12.2211
12.2773
12.3221
12.3607
12.3823
12.4201
1
1
1
1
1
1
1
1
1
1
1
1
1
1
1
1
1
1
1
1
1
1
1
1
1
1
1
1
1
1
1
1
1
1
1
1
1
1
1
1
1
1
1
1
1
1
1
1
1
1
1
1
1
1
1
1
1
1.00776
6.59658
11.0084
11.167
11.2634
11.3134
11.2954
11.2482
11.2317
11.2759
11.4174
11.5926
11.7404
11.8345
11.8735
11.8646
11.8095
11.7495
11.7219
11.7477
11.8494
11.9671
12.054
12.0924
12.0827
12.0644
12.0604
12.0808
12.1146
12.1276
12.1189
12.1117
12.1258
12.1728
12.2378
12.2907
12.3253
12.3274
12.3503
1
1
1
1
1
1
1
1
1
1
1
1
1
1
1
1
1
1
1
1
1
1
1
1
1
1
1
1
1
1
1
1
1
1
1
1
1
1
1
1
1
1
1
1
1
1
1
1
1
1
1
1
1
1
1
1
1
1.00002
5.49996
10.8921
11.1878
11.2641
11.2906
11.2577
11.2055
11.1902
11.2276
11.3672
11.5484
11.7039
11.802
11.8388
11.8213
11.7593
11.6911
11.6549
11.6857
11.7982
11.9261
12.0174
12.049
12.0227
11.9933
11.9974
12.0417
12.0983
12.1234
12.1085
12.0822
12.0743
12.1105
12.1805
12.2425
12.2752
12.2595
12.2627
1
1
1
1
1
1
1
1
1
1
1
1
1
1
1
1
1
1
1
1
1
1
1
1
1
1
1
1
1
1
1
1
1
1
1
1
1
1
1
1
1
1
1
1
1
1
1
1
1
1
1
1
1
1
1
1
1
1
4.3286
10.5746
11.1199
11.1907
11.2285
11.2055
11.1768
11.165
11.2056
11.3349
11.495
11.6352
11.7311
11.7758
11.7673
11.7071
11.6332
11.5876
11.614
11.7241
11.8518
11.9442
11.9751
11.9493
11.9252
11.9402
11.9978
12.0665
12.0999
12.0845
12.0446
12.0157
12.0347
12.1004
12.1675
12.2028
12.1802
12.1696
1
1
1
1
1
1
1
1
1
1
1
1
1
1
1
1
1
1
1
1
1
1
1
1
1
1
1
1
1
1
1
1
1
1
1
1
1
1
1
1
1
1
1
1
1
1
1
1
1
1
1
1
1
1
1
1
1
1
3.16594
10.0167
10.9788
11.0801
11.1435
11.1657
11.1514
11.1686
11.2154
11.308
11.4254
11.5358
11.6232
11.6779
11.6959
11.6571
11.59
11.5397
11.5459
11.629
11.7381
11.8255
11.8657
11.8659
11.8684
11.8972
11.9564
12.0219
12.0553
12.0428
11.9951
11.946
11.9384
11.9839
12.0467
12.09
12.0827
12.0745
1
1
1
1
1
1
1
1
1
1
1
1
1
1
1
1
1
1
1
1
1
1
1
1
1
1
1
1
1
1
1
1
1
1
1
1
1
1
1
1
1
1
1
1
1
1
1
1
1
1
1
1
1
1
1
1
1
1
1.87862
8.74346
10.9358
11.058
11.1124
11.1172
11.1314
11.1595
11.2008
11.252
11.3355
11.425
11.5052
11.5685
11.6086
11.6037
11.5544
11.5057
11.4889
11.5195
11.5911
11.6617
11.7172
11.7622
11.8045
11.8466
11.8954
11.9433
11.9741
11.9707
11.9246
11.8598
11.8198
11.831
11.8817
11.9395
11.9705
11.9873
1
1
1
1
1
1
1
1
1
1
1
1
1
1
1
1
1
1
1
1
1
1
1
1
1
1
1
1
1
1
1
1
1
1
1
1
1
1
1
1
1
1
1
1
1
1
1
1
1
1
1
1
1
1
1
1
1
1
1.03064
6.40803
10.8317
11.0699
11.107
11.1101
11.1151
11.1063
11.1143
11.151
11.233
11.3199
11.3933
11.4567
11.5065
11.5264
11.5045
11.4602
11.4258
11.4147
11.4378
11.4893
11.5559
11.6345
11.709
11.7642
11.8031
11.8347
11.8694
11.8807
11.8404
11.7585
11.6757
11.636
11.6594
11.7281
11.807
11.8654
1
1
1
1
1
1
1
1
1
1
1
1
1
1
1
1
1
1
1
1
1
1
1
1
1
1
1
1
1
1
1
1
1
1
1
1
1
1
1
1
1
1
1
1
1
1
1
1
1
1
1
1
1
1
1
1
1
1
1.00007
3.62571
9.9251
10.9531
11.0217
11.0674
11.0704
11.051
11.0438
11.0667
11.1283
11.211
11.2763
11.3292
11.3747
11.4153
11.4262
11.3884
11.3462
11.3056
11.2962
11.3329
11.4021
11.4879
11.5646
11.6164
11.6432
11.663
11.6975
11.721
11.689
11.5975
11.483
11.3997
11.3927
11.4672
11.5881
11.6899
1
1
1
1
1
1
1
1
1
1
1
1
1
1
1
1
1
1
1
1
1
1
1
1
1
1
1
1
1
1
1
1
1
1
1
1
1
1
1
1
1
1
1
1
1
1
1
1
1
1
1
1
1
1
1
1
1
1
1
1.4152
7.77576
10.8414
10.9574
11.0498
11.0616
11.0289
10.9857
10.9781
10.9961
11.05
11.1225
11.1768
11.2282
11.2772
11.3054
11.2852
11.2344
11.1829
11.1638
11.1862
11.2492
11.326
11.385
11.418
11.4305
11.4419
11.4761
11.5135
11.5006
11.4144
11.2784
11.1504
11.0911
11.1281
11.2353
11.3369
1
1
1
1
1
1
1
1
1
1
1
1
1
1
1
1
1
1
1
1
1
1
1
1
1
1
1
1
1
1
1
1
1
1
1
1
1
1
1
1
1
1
1
1
1
1
1
1
1
1
1
1
1
1
1
1
1
1
1
1.00421
4.22197
10.1579
10.8071
10.8801
10.9173
10.8959
10.8419
10.8161
10.827
10.8738
10.9569
11.0267
11.0791
11.1221
11.147
11.1346
11.0897
11.0403
11.014
11.0249
11.0643
11.1152
11.1515
11.1594
11.1544
11.15
11.1639
11.1808
11.1542
11.053
10.8876
10.7146
10.6141
10.6145
10.7159
10.8144
1
1
1
1
1
1
1
1
1
1
1
1
1
1
1
1
1
1
1
1
1
1
1
1
1
1
1
1
1
1
1
1
1
1
1
1
1
1
1
1
1
1
1
1
1
1
1
1
1
1
1
1
1
1
1
1
1
1
1
1
1.30336
7.51071
10.6318
10.7518
10.8418
10.855
10.8095
10.7436
10.7194
10.7268
10.7655
10.8305
10.8795
10.9203
10.9482
10.953
10.9376
10.9004
10.8546
10.83
10.8317
10.8396
10.8373
10.8278
10.8131
10.7974
10.7896
10.7742
10.7232
10.6153
10.455
10.2766
10.1266
10.0685
10.0066
10.1844
1
1
1
1
1
1
1
1
1
1
1
1
1
1
1
1
1
1
1
1
1
1
1
1
1
1
1
1
1
1
1
1
1
1
1
1
1
1
1
1
1
1
1
1
1
1
1
1
1
1
1
1
1
1
1
1
1
1
1
1
0.999612
3.83986
9.81824
10.5462
10.6564
10.6996
10.6987
10.6502
10.6095
10.5979
10.6148
10.6569
10.7054
10.749
10.784
10.8038
10.8084
10.7769
10.7127
10.6415
10.5957
10.5616
10.525
10.498
10.4715
10.4404
10.405
10.3439
10.2317
10.0501
9.78599
9.4543
9.01205
8.43129
7.50155
5.61866
1
1
1
1
1
1
1
1
1
1
1
1
1
1
1
1
1
1
1
1
1
1
1
1
1
1
1
1
1
1
1
1
1
1
1
1
1
1
1
1
1
1
1
1
1
1
1
1
1
1
1
1
1
1
1
1
1
1
1
1
0.999842
1.33246
7.64652
10.5394
10.5904
10.6362
10.6421
10.6109
10.5519
10.5126
10.4871
10.4853
10.5204
10.5666
10.6143
10.6512
10.6691
10.6519
10.5869
10.4882
10.3936
10.3141
10.2492
10.2077
10.1667
10.1133
10.041
9.93718
9.77232
9.52574
9.18562
8.74175
8.20707
7.41582
6.28471
4.67785
1
1
1
1
1
1
1
1
1
1
1
1
1
1
1
1
1
1
1
1
1
1
1
1
1
1
1
1
1
1
1
1
1
1
1
1
1
1
1
1
1
1
1
1
1
1
1
1
1
1
1
1
1
1
1
1
1
1
1
1
0.999988
1.00304
3.90494
9.70692
10.3579
10.461
10.5011
10.5005
10.4508
10.3951
10.3488
10.3306
10.3551
10.4078
10.4655
10.506
10.5124
10.4955
10.432
10.322
10.1877
10.0626
9.96971
9.91559
9.8646
9.78822
9.67561
9.53022
9.32956
9.04398
8.65922
8.17488
7.56595
6.77676
5.80514
4.64974
1
1
1
1
1
1
1
1
1
1
1
1
1
1
1
1
1
1
1
1
1
1
1
1
1
1
1
1
1
1
1
1
1
1
1
1
1
1
1
1
1
1
1
1
1
1
1
1
1
1
1
1
1
1
1
1
1
1
1
1
1
1
1.21046
7.09773
10.3473
10.4031
10.4508
10.4771
10.4455
10.3559
10.2502
10.1812
10.1808
10.2355
10.2952
10.3299
10.3246
10.3045
10.2529
10.1565
10.01
9.84347
9.7088
9.62369
9.55358
9.46034
9.32402
9.14754
8.92497
8.62372
8.23351
7.75046
7.13759
6.45424
5.66774
4.80829
1
1
1
1
1
1
1
1
1
1
1
1
1
1
1
1
1
1
1
1
1
1
1
1
1
1
1
1
1
1
1
1
1
1
1
1
1
1
1
1
1
1
1
1
1
1
1
1
1
1
1
1
1
1
1
1
1
1
1
1
1
1
1.00134
3.01056
9.21536
10.2197
10.2714
10.3426
10.3434
10.2677
10.1632
10.0728
10.0563
10.0904
10.1356
10.1536
10.131
10.0886
10.0338
9.95538
9.82906
9.66462
9.50495
9.37248
9.26018
9.14092
8.99116
8.80191
8.5685
8.26909
7.90041
7.44243
6.8971
6.31367
5.68805
5.01604
1
1
1
1
1
1
1
1
1
1
1
1
1
1
1
1
1
1
1
1
1
1
1
1
1
1
1
1
1
1
1
1
1
1
1
1
1
1
1
1
1
1
1
1
1
1
1
1
1
1
1
1
1
1
1
1
1
1
1
1
1
1
1
1.09985
5.55424
9.90454
10.1203
10.212
10.2362
10.1851
10.0849
9.97559
9.90034
9.90037
9.92608
9.95025
9.94023
9.89528
9.83021
9.75032
9.64351
9.50633
9.3485
9.18382
9.02036
8.85853
8.68753
8.49227
8.25893
7.97754
7.63316
7.22526
6.76127
6.27414
5.75639
5.20963
1
1
1
1
1
1
1
1
1
1
1
1
1
1
1
1
1
1
1
1
1
1
1
1
1
1
1
1
1
1
1
1
1
1
1
1
1
1
1
1
1
1
1
1
1
1
1
1
1
1
1
1
1
1
1
1
1
1
1
1
1
1
1
1.00032
1.57575
7.71628
10.0375
10.05
10.1087
10.1108
10.0538
9.95681
9.85016
9.77574
9.74424
9.74048
9.73206
9.69286
9.62497
9.53662
9.44063
9.33302
9.20123
9.03924
8.84623
8.64429
8.44119
8.23203
8.00499
7.74683
7.43544
7.07508
6.68024
6.26113
5.8277
5.36793
1
1
1
1
1
1
1
1
1
1
1
1
1
1
1
1
1
1
1
1
1
1
1
1
1
1
1
1
1
1
1
1
1
1
1
1
1
1
1
1
1
1
1
1
1
1
1
1
1
1
1
1
1
1
1
1
1
1
1
1
1
1
1
1
1.00832
3.23988
8.9858
9.86363
9.87506
9.93343
9.91617
9.84525
9.75165
9.65576
9.59365
9.55485
9.5314
9.49732
9.43336
9.34195
9.24567
9.14702
9.03559
8.89023
8.70164
8.4876
8.26238
8.03996
7.81817
7.57668
7.29317
6.96819
6.62215
6.2542
5.89015
5.4936
1
1
1
1
1
1
1
1
1
1
1
1
1
1
1
1
1
1
1
1
1
1
1
1
1
1
1
1
1
1
1
1
1
1
1
1
1
1
1
1
1
1
1
1
1
1
1
1
1
1
1
1
1
1
1
1
1
1
1
1
1
1
1
1
1.00001
1.11824
5.03989
9.53862
9.74099
9.76287
9.8043
9.77055
9.6901
9.58154
9.47051
9.38202
9.32335
9.28112
9.22638
9.14548
9.05409
8.95926
8.85539
8.71964
8.54515
8.34299
8.12367
7.90834
7.69318
7.46017
7.19206
6.89531
6.58331
6.2553
5.94204
5.59409
1
1
1
1
1
1
1
1
1
1
1
1
1
1
1
1
1
1
1
1
1
1
1
1
1
1
1
1
1
1
1
1
1
1
1
1
1
1
1
1
1
1
1
1
1
1
1
1
1
1
1
1
1
1
1
1
1
1
1
1
1
1
1
1
1
1.00048
1.38888
6.43438
9.56151
9.65091
9.67392
9.7019
9.65272
9.55845
9.43796
9.31197
9.2003
9.11025
9.03381
8.95581
8.86957
8.78112
8.68094
8.54564
8.38431
8.20046
7.99979
7.80036
7.59463
7.37103
7.11925
6.84606
6.55867
6.26951
5.98874
5.68546
1
1
1
1
1
1
1
1
1
1
1
1
1
1
1
1
1
1
1
1
1
1
1
1
1
1
1
1
1
1
1
1
1
1
1
1
1
1
1
1
1
1
1
1
1
1
1
1
1
1
1
1
1
1
1
1
1
1
1
1
1
1
1
1
1
1
1.00419
1.78242
7.53735
9.44135
9.44112
9.50479
9.53015
9.49029
9.39648
9.27064
9.14073
9.01985
8.90965
8.80768
8.71256
8.62339
8.52891
8.39996
8.24916
8.08288
7.90037
7.71407
7.51688
7.30356
7.06542
6.80695
6.53991
6.28396
6.02476
5.76291
1
1
1
1
1
1
1
1
1
1
1
1
1
1
1
1
1
1
1
1
1
1
1
1
1
1
1
1
1
1
1
1
1
1
1
1
1
1
1
1
1
1
1
1
1
1
1
1
1
1
1
1
1
1
1
1
1
1
1
1
1
1
1
1
1
1
1
1.01545
2.60095
8.14616
9.31917
9.29044
9.32961
9.33113
9.27639
9.17968
9.06378
8.94531
8.82794
8.70984
8.59353
8.48664
8.38414
8.26647
8.1262
7.98036
7.81692
7.64537
7.46097
7.25916
7.03328
6.7859
6.53933
6.30744
6.06358
5.83121
1
1
1
1
1
1
1
1
1
1
1
1
1
1
1
1
1
1
1
1
1
1
1
1
1
1
1
1
1
1
1
1
1
1
1
1
1
1
1
1
1
1
1
1
1
1
1
1
1
1
1
1
1
1
1
1
1
1
1
1
1
1
1
1
1
1
1
1.00003
1.05805
3.347
8.4662
9.16773
9.12103
9.13958
9.12243
9.07397
8.98205
8.86511
8.746
8.6264
8.50653
8.3888
8.2697
8.14483
8.00655
7.86402
7.72196
7.57099
7.40432
7.21754
7.00609
6.77487
6.55203
6.33752
6.10887
5.89486
1
1
1
1
1
1
1
1
1
1
1
1
1
1
1
1
1
1
1
1
1
1
1
1
1
1
1
1
1
1
1
1
1
1
1
1
1
1
1
1
1
1
1
1
1
1
1
1
1
1
1
1
1
1
1
1
1
1
1
1
1
1
1
1
1
1
1
1
1.00018
1.12719
3.85888
8.54873
9.03625
8.96061
8.95894
8.93229
8.88451
8.79485
8.68497
8.56451
8.44229
8.31803
8.19041
8.0568
7.91141
7.76139
7.62239
7.48255
7.3284
7.15586
6.96208
6.75715
6.56314
6.36512
6.15479
5.95447
1
1
1
1
1
1
1
1
1
1
1
1
1
1
1
1
1
1
1
1
1
1
1
1
1
1
1
1
1
1
1
1
1
1
1
1
1
1
1
1
1
1
1
1
1
1
1
1
1
1
1
1
1
1
1
1
1
1
1
1
1
1
1
1
1
1
1
1
1
1.00066
1.1945
4.10221
8.49335
8.90866
8.81841
8.79539
8.74882
8.69035
8.6038
8.50328
8.39103
8.26979
8.14123
8.0018
7.85114
7.69491
7.54633
7.40277
7.25282
7.08955
6.90863
6.72826
6.56063
6.38255
6.19493
6.0068
1
1
1
1
1
1
1
1
1
1
1
1
1
1
1
1
1
1
1
1
1
1
1
1
1
1
1
1
1
1
1
1
1
1
1
1
1
1
1
1
1
1
1
1
1
1
1
1
1
1
1
1
1
1
1
1
1
1
1
1
1
1
1
1
1
1
1
1
1
1
1.00135
1.23594
4.10876
8.35137
8.78356
8.68751
8.63317
8.56588
8.49238
8.40604
8.30888
8.20743
8.09412
7.9649
7.81776
7.65913
7.50446
7.3561
7.20507
7.04333
6.86847
6.69977
6.54465
6.38302
6.21683
6.04431
1
1
1
1
1
1
1
1
1
1
1
1
1
1
1
1
1
1
1
1
1
1
1
1
1
1
1
1
1
1
1
1
1
1
1
1
1
1
1
1
1
1
1
1
1
1
1
1
1
1
1
1
1
1
1
1
1
1
1
1
1
1
1
1
1
1
1
1
1
1
1
1.0019
1.24171
3.90314
8.1516
8.66025
8.5556
8.47408
8.39006
8.29617
8.20351
8.11224
8.01475
7.90555
7.78032
7.63781
7.48937
7.34096
7.19048
7.02982
6.85852
6.69175
6.53716
6.38308
6.22833
6.06969
1
1
1
1
1
1
1
1
1
1
1
1
1
1
1
1
1
1
1
1
1
1
1
1
1
1
1
1
1
1
1
1
1
1
1
1
1
1
1
1
1
1
1
1
1
1
1
1
1
1
1
1
1
1
1
1
1
1
1
1
1
1
1
1
1
1
1
1
1
1
1
1
1.00201
1.21146
3.53192
7.9247
8.50542
8.41001
8.30202
8.20787
8.10948
8.01315
7.92203
7.82495
7.71794
7.60163
7.47465
7.33872
7.19623
7.04176
6.87673
6.71085
6.55145
6.39691
6.24346
6.09309
1
1
1
1
1
1
1
1
1
1
1
1
1
1
1
1
1
1
1
1
1
1
1
1
1
1
1
1
1
1
1
1
1
1
1
1
1
1
1
1
1
1
1
1
1
1
1
1
1
1
1
1
1
1
1
1
1
1
1
1
1
1
1
1
1
1
1
1
1
1
1
1
1
1.00164
1.15888
3.12233
7.51788
8.28707
8.27657
8.14924
8.0534
7.95415
7.85084
7.74527
7.64812
7.55263
7.44456
7.32465
7.19416
7.049
6.89445
6.73625
6.57684
6.42193
6.26922
6.12323
1
1
1
1
1
1
1
1
1
1
1
1
1
1
1
1
1
1
1
1
1
1
1
1
1
1
1
1
1
1
1
1
1
1
1
1
1
1
1
1
1
1
1
1
1
1
1
1
1
1
1
1
1
1
1
1
1
1
1
1
1
1
1
1
1
1
1
1
1
1
1
1
1
1
1.00105
1.11164
2.72846
6.7429
8.09947
8.19094
8.04306
7.92725
7.81428
7.70129
7.60267
7.50768
7.40503
7.29264
7.16854
7.03112
6.88897
6.74535
6.5967
6.44996
6.30028
6.16055
1
1
1
1
1
1
1
1
1
1
1
1
1
1
1
1
1
1
1
1
1
1
1
1
1
1
1
1
1
1
1
1
1
1
1
1
1
1
1
1
1
1
1
1
1
1
1
1
1
1
1
1
1
1
1
1
1
1
1
1
1
1
1
1
1
1
1
1
1
1
1
1
1
1
1
1.00063
1.07155
2.23435
5.71708
7.87819
8.07834
7.94868
7.82303
7.70919
7.59186
7.47791
7.36517
7.25025
7.1293
6.99878
6.86826
6.7413
6.60751
6.46889
6.32455
6.19522
1
1
1
1
1
1
1
1
1
1
1
1
1
1
1
1
1
1
1
1
1
1
1
1
1
1
1
1
1
1
1
1
1
1
1
1
1
1
1
1
1
1
1
1
1
1
1
1
1
1
1
1
1
1
1
1
1
1
1
1
1
1
1
1
1
1
1
1
1
1
1
1
1
1
1
1
1.00032
1.03699
1.75392
4.52225
7.64131
7.90839
7.83963
7.70304
7.59425
7.47573
7.35164
7.22758
7.10437
6.97958
6.8613
6.74394
6.61496
6.48241
6.34621
6.22233
1
1
1
1
1
1
1
1
1
1
1
1
1
1
1
1
1
1
1
1
1
1
1
1
1
1
1
1
1
1
1
1
1
1
1
1
1
1
1
1
1
1
1
1
1
1
1
1
1
1
1
1
1
1
1
1
1
1
1
1
1
1
1
1
1
1
1
1
1
1
1
1
1
1
1
1
1
1.00012
1.01497
1.37998
3.58512
6.87403
7.69046
7.74072
7.59833
7.49289
7.37185
7.23539
7.10176
6.98321
6.87161
6.75094
6.62666
6.5022
6.36918
6.24745
1
1
1
1
1
1
1
1
1
1
1
1
1
1
1
1
1
1
1
1
1
1
1
1
1
1
1
1
1
1
1
1
1
1
1
1
1
1
1
1
1
1
1
1
1
1
1
1
1
1
1
1
1
1
1
1
1
1
1
1
1
1
1
1
1
1
1
1
1
1
1
1
1
1
1
1
1
1
1.00003
1.00476
1.18468
2.65187
5.74654
7.52556
7.60199
7.48544
7.35495
7.22964
7.11256
7.001
6.88436
6.76621
6.64853
6.52734
6.40861
6.28517
1
1
1
1
1
1
1
1
1
1
1
1
1
1
1
1
1
1
1
1
1
1
1
1
1
1
1
1
1
1
1
1
1
1
1
1
1
1
1
1
1
1
1
1
1
1
1
1
1
1
1
1
1
1
1
1
1
1
1
1
1
1
1
1
1
1
1
1
1
1
1
1
1
1
1
1
1
1
1
1.00001
1.00147
1.07139
1.89346
4.56103
7.0113
7.37039
7.39773
7.24845
7.14202
7.03038
6.90967
6.78849
6.6755
6.57369
6.45806
6.32424
1
1
1
1
1
1
1
1
1
1
1
1
1
1
1
1
1
1
1
1
1
1
1
1
1
1
1
1
1
1
1
1
1
1
1
1
1
1
1
1
1
1
1
1
1
1
1
1
1
1
1
1
1
1
1
1
1
1
1
1
1
1
1
1
1
1
1
1
1
1
1
1
1
1
1
1
1
1
1
1
1
1.00033
1.02249
1.42383
3.30851
5.99407
7.21271
7.3157
7.24467
7.06548
6.89242
6.78704
6.70909
6.61413
6.49995
6.36477
1
1
1
1
1
1
1
1
1
1
1
1
1
1
1
1
1
1
1
1
1
1
1
1
1
1
1
1
1
1
1
1
1
1
1
1
1
1
1
1
1
1
1
1
1
1
1
1
1
1
1
1
1
1
1
1
1
1
1
1
1
1
1
1
1
1
1
1
1
1
1
1
1
1
1
1
1
1
1
1
1
1
1.00006
1.006
1.1571
2.24077
4.74051
6.82491
7.1678
7.11865
6.94275
6.78869
6.69644
6.62448
6.55064
6.44376
1
1
1
1
1
1
1
1
1
1
1
1
1
1
1
1
1
1
1
1
1
1
1
1
1
1
1
1
1
1
1
1
1
1
1
1
1
1
1
1
1
1
1
1
1
1
1
1
1
1
1
1
1
1
1
1
1
1
1
1
1
1
1
1
1
1
1
1
1
1
1
1
1
1
1
1
1
1
1
1
1
1
1
1.00001
1.00118
1.04468
1.5528
3.41439
5.86877
6.99307
7.0069
6.83644
6.68238
6.59579
6.56133
6.5009
1
1
1
1
1
1
1
1
1
1
1
1
1
1
1
1
1
1
1
1
1
1
1
1
1
1
1
1
1
1
1
1
1
1
1
1
1
1
1
1
1
1
1
1
1
1
1
1
1
1
1
1
1
1
1
1
1
1
1
1
1
1
1
1
1
1
1
1
1
1
1
1
1
1
1
1
1
1
1
1
1
1
1
1
1
1.00018
1.01026
1.18825
2.29886
4.46668
6.45191
6.84855
6.78252
6.68572
6.58127
6.50271
1
1
1
1
1
1
1
1
1
1
1
1
1
1
1
1
1
1
1
1
1
1
1
1
1
1
1
1
1
1
1
1
1
1
1
1
1
1
1
1
1
1
1
1
1
1
1
1
1
1
1
1
1
1
1
1
1
1
1
1
1
1
1
1
1
1
1
1
1
1
1
1
1
1
1
1
1
1
1
1
1
1
1
1
1
1
1.00002
1.00162
1.05191
1.49637
3.10574
5.39436
6.37333
6.68164
6.71056
6.62179
1
1
1
1
1
1
1
1
1
1
1
1
1
1
1
1
1
1
1
1
1
1
1
1
1
1
1
1
1
1
1
1
1
1
1
1
1
1
1
1
1
1
1
1
1
1
1
1
1
1
1
1
1
1
1
1
1
1
1
1
1
1
1
1
1
1
1
1
1
1
1
1
1
1
1
1
1
1
1
1
1
1
1
1
1
1
1
1
1.00022
1.00889
1.14794
1.96601
3.93397
5.59655
6.39599
6.63328
1
1
1
1
1
1
1
1
1
1
1
1
1
1
1
1
1
1
1
1
1
1
1
1
1
1
1
1
1
1
1
1
1
1
1
1
1
1
1
1
1
1
1
1
1
1
1
1
1
1
1
1
1
1
1
1
1
1
1
1
1
1
1
1
1
1
1
1
1
1
1
1
1
1
1
1
1
1
1
1
1
1
1
1
1
1
1
1
1
1.00002
1.00122
1.02933
1.33397
2.42804
4.38987
6.019
1
1
1
1
1
1
1
1
1
1
1
1
1
1
1
1
1
1
1
1
1
1
1
1
1
1
1
1
1
1
1
1
1
1
1
1
1
1
1
1
1
1
1
1
1
1
1
1
1
1
1
1
1
1
1
1
1
1
1
1
1
1
1
1
1
1
1
1
1
1
1
1
1
1
1
1
1
1
1
1
1
1
1
1
1
1
1
1
1
1
1
1.00009
1.0044
1.0702
1.54333
3.02206
1
1
1
1
1
1
1
1
1
1
1
1
1
1
1
1
1
1
1
1
1
1
1
1
1
1
1
1
1
1
1
1
1
1
1
1
1
1
1
1
1
1
1
1
1
1
1
1
1
1
1
1
1
1
1
1
1
1
1
1
1
1
1
1
1
1
1
1
1
1
1
1
1
1
1
1
1
1
1
1
1
1
1
1
1
1
1
1
1
1
1
1
1.00001
1.00037
1.01136
1.14421
1
1
1
1
1
1
1
1
1
1
1
1
1
1
1
1
1
1
1
1
1
1
1
1
1
1
1
1
1
1
1
1
1
1
1
1
1
1
1
1
1
1
1
1
1
1
1
1
1
1
1
1
1
1
1
1
1
1
1
1
1
1
1
1
1
1
1
1
1
1
1
1
1
1
1
1
1
1
1
1
1
1
1
1
1
1
1
1
1
1
1
1
1
1
1.00003
1.00106
1
1
1
1
1
1
1
1
1
1
1
1
1
1
1
1
1
1
1
1
1
1
1
1
1
1
1
1
1
1
1
1
1
1
1
1
1
1
1
1
1
1
1
1
1
1
1
1
1
1
1
1
1
1
1
1
1
1
1
1
1
1
1
1
1
1
1
1
1
1
1
1
1
1
1
1
1
1
1
1
1
1
1
1
1
1
1
1
1
1
1
1
1
1
1
1
1
1
1
1
1
1
1
1
1
1
1
1
1
1
1
1
1
1
1
1
1
1
1
1
1
1
1
1
1
1
1
1
1
1
1
1
1
1
1
1
1
1
1
1
1
1
1
1
1
1
1
1
1
1
1
1
1
1
1
1
1
1
1
1
1
1
1
1
1
1
1
1
1
1
1
1
1
1
1
1
1
1
1
1
1
1
1
1
1
1
1
1
1
1
1
1
1
1
1
1
1
1
1
1
1
1
1
1
1
1
1
1
1
1
1
1
1
1
1
1
1
1
1
1
1
1
1
1
1
1
1
1
1
1
1
1
1
1
1
1
1
1
1
1
1
1
1
1
1
1
1
1
1
1
1
1
1
1
1
1
1
1
1
1
1
1
1
1
1
1
1
1
1
1
1
1
1
1
1
1
1
1
1
1
1
1
1
1
1
1
1
1
1
1
1
1
1
1
1
1
1
1
1
1
1
1
1
1
1
1
1
1
1
1
1
1
1
1
1
1
1
1
1
1
1
1
1
1
1
1
1
1
1
1
1
1
1
1
1
1
1
1
1
1
1
1
1
1
1
1
1
1
1
1
1
1
1
1
1
1
1
1
1
1
1
1
1
1
1
1
1
1
1
1
1
1
1
1
1
1
1
1
1
1
1
1
1
1
1
1
1
1
1
1
1
1
1
1
1
1
1
1
1
1
1
1
1
1
1
1
1
1
1
1
1
1
1
1
1
1
1
1
1
1
1
1
1
1
1
1
1
1
1
1
1
1
1
1
1
1
1
1
1
1
1
1
1
1
1
1
1
1
1
1
1
1
1
1
1
1
1
1
1
1
1
1
1
1
1
1
1
1
1
1
1
1
1
1
1
1
1
1
1
1
1
1
1
1
1
1
1
1
1
1
1
1
1
1
1
1
1
1
1
1
1
1
1
1
1
1
1
1
1
1
1
1
1
1
1
1
1
1
1
1
1
1
1
1
1
1
1
1
1
1
1
1
1
1
1
1
1
1
1
1
1
1
1
1
1
1
1
1
1
1
1
1
1
1
1
1
1
1
1
1
1
1
1
1
1
1
1
1
1
1
1
1
1
1
1
1
1
1
1
1
1
1
1
1
1
1
1
1
1
1
1
1
1
1
1
1
1
1
1
1
1
1
1
1
1
1
1
1
1
1
1
1
1
1
1
1
1
1
1
1
1
1
1
1
1
1
1
1
1
1
1
1
1
1
1
1
1
1
1
1
1
1
1
1
1
1
1
1
1
1
1
1
1
1
1
1
1
1
1
1
1
1
1
1
1
1
1
1
1
1
1
1
1
1
1
1
1
1
1
1
1
1
1
1
1
1
1
1
1
1
1
1
1
1
1
1
1
1
1
1
1
1
1
1
1
1
1
1
1
1
1
1
1
1
1
1
1
1
1
1
1
1
1
1
1
1
1
1
1
1
1
1
1
1
1
1
1
1
1
1
1
1
1
1
1
1
1
1
1
1
1
1
1
1
1
1
1
1
1
1
1
1
1
1
1
1
1
1
1
1
1
1
1
1
1
1
1
1
1
1
1
1
1
1
1
1
1
1
1
1
1
1
1
1
1
1
1
1
1
1
1
1
1
1
1
1
1
1
1
1
1
1
1
1
1
1
1
1
1
1
1
1
1
1
1
1
1
1
1
1
1
1
1
1
1
1
1
1
1
1
1
1
1
1
1
1
1
1
1
1
1
1
1
1
1
1
1
1
1
1
1
1
1
1
1
1
1
1
1
1
1
1
1
1
1
1
1
1
1
1
1
1
1
1
1
1
1
1
1
1
1
1
1
1
1
1
1
1
1
1
1
1
1
1
1
1
1
1
1
1
1
1
1
1
1
1
1
1
1
1
1
1
1
1
1
1
1
1
1
1
1
1
1
1
1
1
1
1
1
1
1
1
1
1
1
1
1
1
1
1
1
1
1
1
1
1
1
1
1
1
1
1
1
1
1
1
1
1
1
1
1
1
1
1
1
1
1
1
1
1
1
1
1
1
1
1
1
1
1
1
1
1
1
1
1
1
1
1
1
1
1
1
1
1
1
1
1
1
1
1
1
1
1
1
1
1
1
1
1
1
1
1
1
1
1
1
1
1
1
1
1
1
1
1
1
1
1
1
1
1
1
1
1
1
1
1
1
1
1
1
1
1
1
1
1
1
1
1
1
1
1
1
1
1
1
1
1
1
1
1
1
1
1
1
1
1
1
1
1
1
1
1
1
1
1
1
1
1
1
1
1
1
1
1
1
1
1
1
1
1
1
1
1
1
1
1
1
1
1
1
1
1
1
1
1
1
1
1
1
1
1
1
1
1
1
1
1
1
1
1
1
1
1
1
1
1
1
1
1
1
1
1
1
1
1
1
1
1
1
1
1
1
1
1
1
1
1
1
1
1
1
1
1
1
1
1
1
1
1
1
1
1
1
1
1
1
1
1
1
1
1
1
1
1
1
1
1
1
1
1
1
1
1
1
1
1
1
1
1
1
1
1
1
1
1
1
1
1
1
1
1
1
1
1
1
1
1
1
1
1
1
1
1
1
1
1
1
1
1
1
1
1
1
1
1
1
1
1
1
1
1
1
1
1
1
1
1
1
1
1
1
1
1
1
1
1
1
1
1
1
1
1
1
1
1
1
1
1
1
1
1
1
1
1
1
1
1
1
1
1
1
1
1
1
1
1
1
1
1
1
1
1
1
1
1
1
1
1
1
1
1
1
1
1
1
1
1
1
1
1
1
1
1
1
1
1
1
1
1
1
1
1
1
1
1
1
1
1
1
1
1
1
1
1
1
1
1
1
1
1
1
1
1
1
1
1
1
1
1
1
1
1
1
1
1
1
1
1
1
1
1
1
1
1
1
1
1
1
1
1
1
1
1
1
1
1
1
1
1
1
1
1
1
1
1
1
1
1
1
1
1
1
1
1
1
1
1
1
1
1
1
1
1
1
1
1
1
1
1
1
1
1
1
1
1
1
1
1
1
1
1
1
1
1
1
1
1
1
1
1
1
1
1
1
1
1
1
1
1
1
1
1
1
1
1
1
1
1
1
1
1
1
1
1
1
1
1
1
1
1
1
1
1
1
1
1
1
1
1
1
1
1
1
1
1
1
1
1
1
1
1
1
1
1
1
1
1
1
1
1
1
1
1
1
1
1
1
1
1
1
1
1
1
1
1
1
1
1
1
1
1
1
1
1
1
1
1
1
1
1
1
1
1
1
1
1
1
1
1
1
1
1
1
1
1
1
1
1
1
1
1
1
1
1
1
1
1
1
1
1
1
1
1
1
1
1
1
1
1
1
1
1
1
1
1
1
1
1
1
1
1
1
1
1
1
1
1
1
1
1
1
1
1
1
1
1
1
1
1
1
1
1
1
1
1
1
1
1
1
1
1
1
1
1
1
1
1
1
1
1
1
1
1
1
1
1
1
1
1
1
1
1
1
1
1
1
1
1
1
1
1
1
1
1
1
1
1
1
1
1
1
1
1
1
1
1
1
1
1
1
1
1
1
1
1
1
1
1
1
1
1
1
1
1
1
1
1
1
1
1
1
1
1
1
1
1
1
1
1
1
1
1
1
1
1
1
1
1
1
1
1
1
1
1
1
1
1
1
1
1
1
1
1
1
1
1
1
1
1
1
1
1
1
1
1
1
1
1
1
1
1
1
1
1
1
1
1
1
1
1
1
1
1
1
1
1
1
1
1
1
1
1
1
1
1
1
1
1
1
1
1
1
1
1
1
1
1
1
1
1
1
1
1
1
1
1
1
1
1
1
1
1
1
1
1
1
1
1
1
1
1
1
1
1
1
1
1
1
1
1
1
1
1
1
1
1
1
1
1
1
1
1
1
1
1
1
1
1
1
1
1
1
1
1
1
1
1
1
1
1
1
1
1
1
1
1
1
1
1
1
1
1
1
1
1
1
1
1
1
1
1
1
1
1
1
1
1
1
1
1
1
1
1
1
1
1
1
1
1
1
1
1
1
1
1
1
1
1
1
1
1
1
1
1
1
1
1
1
1
1
1
1
1
1
1
1
1
1
1
1
1
1
1
1
1
1
1
1
1
1
1
1
1
1
1
1
1
1
1
1
1
1
1
1
1
1
1
1
1
1
1
1
1
1
1
1
1
1
1
1
1
1
1
1
1
1
1
1
1
1
1
1
1
1
1
1
1
1
1
1
1
1
1
1
1
1
1
1
1
1
1
1
1
1
1
1
1
1
1
1
1
1
1
1
1
1
1
1
1
1
1
1
1
1
1
1
1
1
1
1
1
1
1
1
1
1
1
1
1
1
1
1
1
1
1
1
1
1
1
1
1
1
1
1
1
1
1
1
1
1
1
1
1
1
1
1
1
1
1
1
1
1
1
1
1
1
1
1
1
1
1
1
1
1
1
1
1
1
1
1
1
1
1
1
1
1
1
1
1
1
1
1
1
1
1
1
1
1
1
1
1
1
1
1
1
1
1
1
1
1
1
1
1
1
1
1
1
1
1
1
1
1
1
1
1
1
1
1
1
1
1
1
1
1
1
1
1
1
1
1
1
1
1
1
1
1
1
1
1
1
1
1
1
1
1
1
1
1
1
1
1
1
1
1
1
1
1
1
1
1
1
1
1
1
1
1
1
1
1
1
1
1
1
1
1
1
1
1
1
1
1
1
1
1
1
1
1
1
1
1
1
1
1
1
1
1
1
1
1
1
1
1
1
1
1
1
1
1
1
1
1
1
1
1
1
1
1
1
1
1
1
1
1
1
1
1
1
1
1
1
1
1
1
1
1
1
1
1
1
1
1
1
1
1
1
1
1
1
1
1
1
1
1
1
1
1
1
1
1
1
1
1
1
1
1
1
1
1
1
1
1
1
1
1
1
1
1
1
1
1
1
1
1
1
1
1
1
1
1
1
1
1
1
1
1
1
1
1
1
1
1
1
1
1
1
1
1
1
1
1
1
1
1
1
1
1
1
1
1
1
1
1
1
1
1
1
1
1
1
1
1
1
1
1
1
1
1
1
1
1
1
1
1
1
1
1
1
1
1
1
1
1
1
1
1
1
1
1
1
1
1
1
1
1
1
1
1
1
1
1
1
1
1
1
1
1
1
1
1
1
1
1
1
1
1
1
1
1
1
1
1
1
1
1
1
1
1
1
1
1
1
1
1
1
1
1
1
1
1
1
1
1
1
1
1
1
1
1
1
1
1
1
1
1
1
1
1
1
1
1
1
1
1
1
1
1
1
1
1
1
1
1
1
1
1
1
1
1
1
1
1
1
1
1
1
1
1
1
1
1
1
1
1
1
1
1
1
1
1
1
1
1
1
1
1
1
1
1
1
1
1
1
1
1
1
1
1
1
1
1
1
1
1
1
1
1
1
1
1
1
1
1
1
1
1
1
1
1
1
1
1
1
1
1
1
1
1
1
1
1
1
1
1
1
1
1
1
1
1
1
1
1
1
1
1
1
1
1
1
1
1
1
1
1
1
1
1
1
1
1
1
1
1
1
1
1
1
1
1
1
1
1
1
1
1
1
1
1
1
1
1
1
1
1
1
1
1
1
1
1
1
1
1
1
1
1
1
1
1
1
1
1
1
1
1
1
1
1
1
1
1
1
1
1
1
1
1
1
1
1
1
1
1
1
1
1
1
1
1
1
1
1
1
1
1
1
1
1
1
1
1
1
1
1
1
1
1
1
1
1
1
1
1
1
1
1
1
1
1
1
1
1
1
1
1
1
1
1
1
1
1
1
1
1
1
1
1
1
1
1
1
1
1
1
1
1
1
1
1
1
1
1
1
1
1
1
1
1
1
1
1
1
1
1
1
1
1
1
1
1
1
1
1
1
1
1
1
1
1
1
1
1
1
1
1
1
1
1
1
1
1
1
1
1
1
1
1
1
1
1
1
1
1
1
1
1
1
1
1
1
1
1
1
1
1
1
1
1
1
1
1
1
1
1
1
1
1
1
1
1
1
1
1
1
1
1
1
1
1
1
1
1
1
1
1
1
1
1
1
1
1
1
1
1
1
1
1
1
1
1
1
1
1
1
1
1
1
1
1
1
1
1
1
1
1.17826
0.266943
0.0357499
0.0178164
0.0293968
0.0540339
0.0973933
0.142694
0.193714
0.285358
0.369725
0.461062
0.542683
0.53892
0.548144
0.596907
0.68062
0.763796
0.836537
0.874923
0.886527
0.890078
0.891017
0.889163
0.897781
0.902662
0.904367
0.913977
0.940951
0.966048
0.977264
0.98563
0.994428
0.998593
0.999409
0.996111
0.990852
0.985542
0.984359
0.985425
0.985953
0.986078
0.986023
0.989319
0.995783
1.00073
1.00175
1.00104
0.999149
0.994643
0.986667
0.976606
0.970523
0.970204
0.972623
0.97988
0.987139
0.987873
0.98631
0.982026
0.974488
0.96646
0.960645
0.956526
0.953396
0.951453
0.949957
0.949578
0.951001
0.952594
0.952373
0.94976
0.945672
0.940058
0.933938
0.92852
0.924261
0.920889
0.917716
0.914191
0.910072
0.90513
0.898766
0.892012
0.88569
0.880984
0.879223
0.877634
0.875384
0.872557
0.869265
0.865321
0.861034
0.858365
0.857002
0.856489
0.857519
0.859498
0.860058
0.860618
0.861153
0.860859
0.860879
0.862728
0.864951
0.86759
0.870868
0.875501
0.881639
0.887959
0.892862
0.895471
0.896732
0.896576
0.896166
0.896766
0.897496
0.898962
0.902004
0.90588
0.9087
0.911112
0.913415
0.915136
0.916647
0.917579
0.917886
0.918769
0.920332
0.921887
0.923114
0.924086
0.924877
0.925445
0.92612
0.927168
0.928292
0.929414
0.930369
0.931068
0.93183
0.933196
0.934829
0.935539
0.936503
0.938496
0.940355
0.941306
0.941068
0.941529
0.944274
0.949913
0.955633
0.959318
0.961644
0.962573
0.964409
0.965236
0.965559
0.975416
0.984432
0.989098
0.991341
0.992081
0.992106
0.995279
1.00271
1.0022
0.999071
0.997303
0.996905
0.997929
1.0037
1.01141
1.01228
1.01149
1.01104
1.01085
1.01077
1.01057
1.01024
1.01014
1.01054
1.01101
1.01126
1.01132
1.01136
1.01164
1.0126
1.01498
1.01904
1.02184
2.11901
0.977238
0.444539
0.2671
0.23752
0.20049
0.201747
0.217152
0.225576
0.226655
0.238445
0.261048
0.32729
0.376843
0.418555
0.470203
0.532706
0.587732
0.64883
0.722051
0.769193
0.79753
0.81565
0.833447
0.858277
0.88338
0.905216
0.919657
0.93861
0.958424
0.9669
0.972179
0.976812
0.979417
0.981207
0.984046
0.984398
0.984404
0.987439
0.988512
0.988926
0.988966
0.98667
0.985326
0.985856
0.98687
0.989574
0.992374
0.993436
0.99302
0.990051
0.984776
0.978368
0.974881
0.973062
0.972888
0.974358
0.9754
0.97504
0.973435
0.970502
0.96757
0.965613
0.963387
0.960223
0.9559
0.950979
0.947106
0.945529
0.944798
0.944968
0.945735
0.944733
0.942008
0.938401
0.934102
0.929113
0.923652
0.918228
0.913367
0.908909
0.90426
0.899356
0.894233
0.888786
0.883845
0.880178
0.877078
0.873947
0.870726
0.867398
0.863791
0.860122
0.858002
0.856826
0.85641
0.857475
0.858961
0.859409
0.860138
0.860867
0.861174
0.862952
0.865542
0.868001
0.870119
0.872139
0.874968
0.878601
0.882089
0.885485
0.890109
0.894417
0.897143
0.899454
0.901807
0.903387
0.903843
0.904081
0.904742
0.90556
0.90626
0.907434
0.909604
0.912312
0.914971
0.917309
0.919697
0.922296
0.92468
0.926701
0.928223
0.929433
0.930889
0.931978
0.931752
0.931093
0.931489
0.931773
0.931164
0.930258
0.930507
0.932795
0.935017
0.936276
0.937732
0.939278
0.940335
0.941439
0.943694
0.946887
0.950661
0.953885
0.955677
0.957243
0.961045
0.965351
0.961927
0.954507
0.963424
0.973506
0.979485
0.982944
0.984507
0.985202
0.988391
0.996416
0.997663
0.994867
0.993136
0.993001
0.994107
0.999169
1.00653
1.00836
1.00803
1.00795
1.00814
1.0083
1.00833
1.00827
1.00853
1.00915
1.00978
1.01021
1.01046
1.01067
1.01106
1.01205
1.01425
1.01802
1.02111
2.8795
1.6439
1.05791
0.791687
0.618585
0.474099
0.378745
0.367309
0.339983
0.297703
0.289145
0.296903
0.316191
0.350633
0.391705
0.426136
0.451682
0.474468
0.510149
0.575702
0.641762
0.689945
0.73532
0.779048
0.82395
0.8705
0.919338
0.941613
0.95397
0.971472
0.980547
0.979318
0.980309
0.982758
0.979629
0.978766
0.975768
0.97681
0.982134
0.98445
0.986159
0.988267
0.991162
0.992539
0.991187
0.98922
0.989031
0.989044
0.988048
0.985952
0.983906
0.982722
0.983004
0.984067
0.984597
0.983581
0.980414
0.97499
0.967923
0.961691
0.958911
0.958261
0.958316
0.959478
0.962521
0.964463
0.964585
0.962323
0.956684
0.949239
0.943243
0.939748
0.937842
0.93687
0.935102
0.932902
0.930446
0.927207
0.922826
0.917226
0.91097
0.904652
0.89849
0.892648
0.887751
0.883735
0.880257
0.877239
0.874235
0.870901
0.866904
0.861912
0.857905
0.856402
0.855669
0.856114
0.858525
0.861628
0.862841
0.863651
0.864297
0.863736
0.864816
0.867932
0.871613
0.875747
0.879715
0.882736
0.884838
0.884919
0.882635
0.882481
0.885254
0.888284
0.892547
0.898963
0.906291
0.910965
0.912785
0.913762
0.913743
0.910945
0.907448
0.907332
0.908444
0.909873
0.911767
0.914294
0.917457
0.92015
0.922139
0.923618
0.925119
0.927546
0.930856
0.934015
0.936127
0.937734
0.938888
0.939696
0.940397
0.940753
0.942266
0.943186
0.941461
0.940553
0.94121
0.942039
0.943191
0.94488
0.947021
0.948539
0.95077
0.952984
0.95527
0.958539
0.962992
0.965492
0.963493
0.96825
0.977417
0.98401
0.988419
0.990384
0.991332
0.994906
1.00301
1.00387
1.00091
0.998919
0.998423
0.999096
1.00269
1.00927
1.01075
1.01018
1.01004
1.0107
1.01097
1.01035
1.00987
1.00991
1.01046
1.01099
1.01127
1.01137
1.01149
1.01186
1.01284
1.01494
1.01852
1.02148
3.50241
2.43288
1.75376
1.27655
1.02954
0.838419
0.675345
0.60681
0.558474
0.481429
0.437964
0.443233
0.4314
0.409554
0.408227
0.414689
0.410107
0.407653
0.41199
0.427523
0.466564
0.528091
0.598908
0.660592
0.710487
0.758253
0.818662
0.86479
0.885089
0.913054
0.946807
0.955957
0.96324
0.975959
0.988408
0.987529
0.981446
0.98204
0.984332
0.983521
0.979886
0.978972
0.98105
0.982754
0.980764
0.979012
0.979876
0.980582
0.979905
0.978083
0.977956
0.978852
0.979586
0.980026
0.980269
0.97997
0.977853
0.973212
0.967213
0.963388
0.962365
0.961406
0.959522
0.957932
0.95895
0.961017
0.961667
0.95945
0.954406
0.948948
0.945583
0.943239
0.940867
0.938329
0.935695
0.933067