/*--------------------------------*- C++ -*----------------------------------*\
  =========                 |
  \\      /  F ield         | OpenFOAM: The Open Source CFD Toolbox
   \\    /   O peration     | Website:  https://openfoam.org
    \\  /    A nd           | Version:  7
     \\/     M anipulation  |
\*---------------------------------------------------------------------------*/
FoamFile
{
    version     2.0;
    format      ascii;
    class       volScalarField;
    location    "0.7";
    object      rho;
}
// * * * * * * * * * * * * * * * * * * * * * * * * * * * * * * * * * * * * * //

dimensions      [1 -3 0 0 0 0 0];

internalField   nonuniform List<scalar> 
19968
(
1.40001
1.40001
1.40001
1.40001
1.40001
1.40001
1.40001
1.40001
1.40001
1.40001
1.40001
1.40001
1.40001
1.40001
1.40001
1.40001
1.40001
1.40001
1.40001
1.40001
1.40001
1.40001
1.40001
1.40001
1.40001
1.40001
1.40001
1.40001
1.40001
1.40001
1.40001
1.40001
1.40001
1.40001
1.40001
1.40001
1.40001
1.40001
1.40001
1.40001
1.40001
1.40001
1.40001
1.40001
1.40001
1.40001
1.40001
1.40001
1.40001
1.40001
1.40001
1.40001
1.40001
1.40001
1.40001
1.40001
1.40001
2.08067
5.02093
5.61865
5.60079
5.57782
5.5478
5.53287
5.54196
5.5731
5.62349
5.68423
5.73922
5.7753
5.79531
5.80678
5.80879
5.79932
5.78819
5.78457
5.78954
5.8056
5.82255
5.84098
5.86023
5.87341
5.87202
5.85222
5.81654
5.77504
5.73726
5.70199
5.6581
5.59455
5.49947
5.36704
5.21638
5.08983
5.01404
4.99096
1.40001
1.40001
1.40001
1.40001
1.40001
1.40001
1.40001
1.40001
1.40001
1.40001
1.40001
1.40001
1.40001
1.40001
1.40001
1.40001
1.40001
1.40001
1.40001
1.40001
1.40001
1.40001
1.40001
1.40001
1.40001
1.40001
1.40001
1.40001
1.40001
1.40001
1.40001
1.40001
1.40001
1.40001
1.40001
1.40001
1.40001
1.40001
1.40001
1.40001
1.40001
1.40001
1.40001
1.40001
1.40001
1.40001
1.40001
1.40001
1.40001
1.40001
1.40001
1.40001
1.40001
1.40001
1.40001
1.40001
1.40001
2.05319
4.99231
5.60528
5.59132
5.57258
5.54208
5.53239
5.54486
5.57732
5.62695
5.68613
5.7383
5.77306
5.79373
5.80584
5.8078
5.7983
5.78666
5.78252
5.78695
5.80255
5.82011
5.83977
5.85967
5.87221
5.86895
5.84753
5.81169
5.77195
5.73611
5.70159
5.65688
5.59144
5.49327
5.35828
5.20772
5.08409
5.01247
4.99247
1.40001
1.40001
1.40001
1.40001
1.40001
1.40001
1.40001
1.40001
1.40001
1.40001
1.40001
1.40001
1.40001
1.40001
1.40001
1.40001
1.40001
1.40001
1.40001
1.40001
1.40001
1.40001
1.40001
1.40001
1.40001
1.40001
1.40001
1.40001
1.40001
1.40001
1.40001
1.40001
1.40001
1.40001
1.40001
1.40001
1.40001
1.40001
1.40001
1.40001
1.40001
1.40001
1.40001
1.40001
1.40001
1.40001
1.40001
1.40001
1.40001
1.40001
1.40001
1.40001
1.40001
1.40001
1.40001
1.40001
1.40001
1.99082
4.93864
5.5964
5.57891
5.56304
5.53695
5.53447
5.55062
5.58288
5.63021
5.68581
5.73358
5.76729
5.7909
5.80556
5.80787
5.79707
5.78318
5.77758
5.78184
5.79853
5.81802
5.83834
5.85728
5.86806
5.86282
5.8405
5.80541
5.7682
5.73407
5.69955
5.65308
5.58387
5.47993
5.34041
5.19032
5.0721
5.00738
4.99281
1.40001
1.40001
1.40001
1.40001
1.40001
1.40001
1.40001
1.40001
1.40001
1.40001
1.40001
1.40001
1.40001
1.40001
1.40001
1.40001
1.40001
1.40001
1.40001
1.40001
1.40001
1.40001
1.40001
1.40001
1.40001
1.40001
1.40001
1.40001
1.40001
1.40001
1.40001
1.40001
1.40001
1.40001
1.40001
1.40001
1.40001
1.40001
1.40001
1.40001
1.40001
1.40001
1.40001
1.40001
1.40001
1.40001
1.40001
1.40001
1.40001
1.40001
1.40001
1.40001
1.40001
1.40001
1.40001
1.40001
1.40001
1.88805
4.83895
5.59871
5.5666
5.54879
5.53428
5.54396
5.56523
5.59432
5.63497
5.68245
5.72364
5.75783
5.78681
5.80527
5.80794
5.79445
5.77712
5.76934
5.77379
5.79313
5.81565
5.8361
5.85239
5.85994
5.85275
5.83058
5.79785
5.76449
5.73231
5.697
5.64774
5.57347
5.46309
5.31909
5.16991
5.0575
4.99995
4.99078
1.40001
1.40001
1.40001
1.40001
1.40001
1.40001
1.40001
1.40001
1.40001
1.40001
1.40001
1.40001
1.40001
1.40001
1.40001
1.40001
1.40001
1.40001
1.40001
1.40001
1.40001
1.40001
1.40001
1.40001
1.40001
1.40001
1.40001
1.40001
1.40001
1.40001
1.40001
1.40001
1.40001
1.40001
1.40001
1.40001
1.40001
1.40001
1.40001
1.40001
1.40001
1.40001
1.40001
1.40001
1.40001
1.40001
1.40001
1.40001
1.40001
1.40001
1.40001
1.40001
1.40001
1.40001
1.40001
1.40001
1.40001
1.7375
4.6698
5.60673
5.5471
5.53553
5.54264
5.56822
5.58609
5.60537
5.6331
5.67124
5.71051
5.74886
5.78276
5.80356
5.80598
5.7896
5.76865
5.75854
5.76321
5.7861
5.81287
5.83375
5.84601
5.8481
5.83858
5.81782
5.79004
5.76212
5.73185
5.69494
5.64207
5.56272
5.4475
5.30104
5.15273
5.04369
4.98975
4.9838
1.40001
1.40001
1.40001
1.40001
1.40001
1.40001
1.40001
1.40001
1.40001
1.40001
1.40001
1.40001
1.40001
1.40001
1.40001
1.40001
1.40001
1.40001
1.40001
1.40001
1.40001
1.40001
1.40001
1.40001
1.40001
1.40001
1.40001
1.40001
1.40001
1.40001
1.40001
1.40001
1.40001
1.40001
1.40001
1.40001
1.40001
1.40001
1.40001
1.40001
1.40001
1.40001
1.40001
1.40001
1.40001
1.40001
1.40001
1.40001
1.40001
1.40001
1.40001
1.40001
1.40001
1.40001
1.40001
1.40001
1.40001
1.5575
4.39253
5.58169
5.53548
5.55159
5.57508
5.59605
5.60098
5.60326
5.61916
5.65479
5.69936
5.74391
5.77998
5.79904
5.79903
5.78013
5.75642
5.74459
5.74987
5.77691
5.80861
5.83044
5.83891
5.83383
5.82022
5.80177
5.78158
5.76115
5.73325
5.69371
5.63574
5.55079
5.43252
5.28648
5.1397
5.0313
4.97581
4.96946
1.40001
1.40001
1.40001
1.40001
1.40001
1.40001
1.40001
1.40001
1.40001
1.40001
1.40001
1.40001
1.40001
1.40001
1.40001
1.40001
1.40001
1.40001
1.40001
1.40001
1.40001
1.40001
1.40001
1.40001
1.40001
1.40001
1.40001
1.40001
1.40001
1.40001
1.40001
1.40001
1.40001
1.40001
1.40001
1.40001
1.40001
1.40001
1.40001
1.40001
1.40001
1.40001
1.40001
1.40001
1.40001
1.40001
1.40001
1.40001
1.40001
1.40001
1.40001
1.40001
1.40001
1.40001
1.40001
1.40001
1.40001
1.40564
4.02893
5.54977
5.53826
5.56884
5.60033
5.6092
5.60174
5.59289
5.60056
5.63694
5.68964
5.74079
5.777
5.7919
5.78717
5.76516
5.73979
5.72672
5.73354
5.76512
5.80132
5.82467
5.82977
5.81731
5.79866
5.78276
5.77171
5.76045
5.7367
5.69429
5.62989
5.5384
5.41777
5.27375
5.12901
5.01967
4.95911
4.94875
1.40001
1.40001
1.40001
1.40001
1.40001
1.40001
1.40001
1.40001
1.40001
1.40001
1.40001
1.40001
1.40001
1.40001
1.40001
1.40001
1.40001
1.40001
1.40001
1.40001
1.40001
1.40001
1.40001
1.40001
1.40001
1.40001
1.40001
1.40001
1.40001
1.40001
1.40001
1.40001
1.40001
1.40001
1.40001
1.40001
1.40001
1.40001
1.40001
1.40001
1.40001
1.40001
1.40001
1.40001
1.40001
1.40001
1.40001
1.40001
1.40001
1.40001
1.40001
1.40001
1.40001
1.40001
1.40001
1.40001
1.40001
1.40003
3.55248
5.47026
5.54147
5.58106
5.60716
5.61033
5.59539
5.58208
5.58367
5.61912
5.67646
5.73229
5.76963
5.7824
5.77364
5.74817
5.72018
5.70494
5.71393
5.74941
5.78893
5.81359
5.81656
5.79923
5.77724
5.76455
5.7617
5.75892
5.74023
5.6964
5.62647
5.52892
5.40552
5.26237
5.11852
5.00693
4.94019
4.92387
1.40001
1.40001
1.40001
1.40001
1.40001
1.40001
1.40001
1.40001
1.40001
1.40001
1.40001
1.40001
1.40001
1.40001
1.40001
1.40001
1.40001
1.40001
1.40001
1.40001
1.40001
1.40001
1.40001
1.40001
1.40001
1.40001
1.40001
1.40001
1.40001
1.40001
1.40001
1.40001
1.40001
1.40001
1.40001
1.40001
1.40001
1.40001
1.40001
1.40001
1.40001
1.40001
1.40001
1.40001
1.40001
1.40001
1.40001
1.40001
1.40001
1.40001
1.40001
1.40001
1.40001
1.40001
1.40001
1.40001
1.40001
1.40001
3.02887
5.3351
5.52389
5.57044
5.60325
5.60216
5.58821
5.57272
5.57432
5.60922
5.66327
5.71545
5.75103
5.76422
5.75673
5.73155
5.7016
5.68356
5.69132
5.72622
5.76555
5.79072
5.79377
5.77693
5.75744
5.74888
5.75092
5.75337
5.73864
5.6962
5.62389
5.52237
5.39574
5.25107
5.1058
4.99117
4.91975
4.89855
1.40001
1.40001
1.40001
1.40001
1.40001
1.40001
1.40001
1.40001
1.40001
1.40001
1.40001
1.40001
1.40001
1.40001
1.40001
1.40001
1.40001
1.40001
1.40001
1.40001
1.40001
1.40001
1.40001
1.40001
1.40001
1.40001
1.40001
1.40001
1.40001
1.40001
1.40001
1.40001
1.40001
1.40001
1.40001
1.40001
1.40001
1.40001
1.40001
1.40001
1.40001
1.40001
1.40001
1.40001
1.40001
1.40001
1.40001
1.40001
1.40001
1.40001
1.40001
1.40001
1.40001
1.40001
1.40001
1.40001
1.40001
1.40001
2.48557
5.14384
5.50085
5.5555
5.58505
5.58868
5.57486
5.56992
5.57697
5.60495
5.64751
5.68948
5.72043
5.73449
5.73427
5.71706
5.68958
5.66987
5.67026
5.69609
5.72916
5.75307
5.75962
5.75146
5.74171
5.73824
5.74172
5.74429
5.73108
5.69148
5.61973
5.51576
5.38419
5.2341
5.08461
4.96705
4.8958
4.87376
1.40001
1.40001
1.40001
1.40001
1.40001
1.40001
1.40001
1.40001
1.40001
1.40001
1.40001
1.40001
1.40001
1.40001
1.40001
1.40001
1.40001
1.40001
1.40001
1.40001
1.40001
1.40001
1.40001
1.40001
1.40001
1.40001
1.40001
1.40001
1.40001
1.40001
1.40001
1.40001
1.40001
1.40001
1.40001
1.40001
1.40001
1.40001
1.40001
1.40001
1.40001
1.40001
1.40001
1.40001
1.40001
1.40001
1.40001
1.40001
1.40001
1.40001
1.40001
1.40001
1.40001
1.40001
1.40001
1.40001
1.40001
1.40001
1.87376
4.77532
5.53672
5.56314
5.57249
5.56444
5.56074
5.56431
5.5752
5.5939
5.62563
5.65853
5.68468
5.70076
5.70745
5.70112
5.68177
5.66232
5.65355
5.66155
5.68143
5.69999
5.71234
5.71964
5.72397
5.72561
5.72668
5.72455
5.71195
5.67767
5.6106
5.50701
5.37021
5.21156
5.05551
4.93562
4.86958
4.85248
1.40001
1.40001
1.40001
1.40001
1.40001
1.40001
1.40001
1.40001
1.40001
1.40001
1.40001
1.40001
1.40001
1.40001
1.40001
1.40001
1.40001
1.40001
1.40001
1.40001
1.40001
1.40001
1.40001
1.40001
1.40001
1.40001
1.40001
1.40001
1.40001
1.40001
1.40001
1.40001
1.40001
1.40001
1.40001
1.40001
1.40001
1.40001
1.40001
1.40001
1.40001
1.40001
1.40001
1.40001
1.40001
1.40001
1.40001
1.40001
1.40001
1.40001
1.40001
1.40001
1.40001
1.40001
1.40001
1.40001
1.40001
1.40001
1.42237
3.93444
5.51568
5.56361
5.56314
5.55641
5.55388
5.54953
5.55301
5.56762
5.5977
5.62707
5.64868
5.66465
5.67573
5.67886
5.67014
5.65232
5.63599
5.62771
5.63191
5.64427
5.66078
5.68034
5.69634
5.70283
5.70148
5.69547
5.68549
5.65881
5.59853
5.496
5.35215
5.18087
5.01374
4.88965
4.83087
4.8232
1.40001
1.40001
1.40001
1.40001
1.40001
1.40001
1.40001
1.40001
1.40001
1.40001
1.40001
1.40001
1.40001
1.40001
1.40001
1.40001
1.40001
1.40001
1.40001
1.40001
1.40001
1.40001
1.40001
1.40001
1.40001
1.40001
1.40001
1.40001
1.40001
1.40001
1.40001
1.40001
1.40001
1.40001
1.40001
1.40001
1.40001
1.40001
1.40001
1.40001
1.40001
1.40001
1.40001
1.40001
1.40001
1.40001
1.40001
1.40001
1.40001
1.40001
1.40001
1.40001
1.40001
1.40001
1.40001
1.40001
1.40001
1.40001
1.40007
2.71937
5.19109
5.52518
5.53156
5.5425
5.54545
5.54034
5.53939
5.54685
5.56633
5.59144
5.60919
5.62268
5.63476
5.64628
5.64832
5.63317
5.61343
5.59357
5.58628
5.59426
5.61221
5.635
5.65249
5.65838
5.65387
5.64525
5.63714
5.61767
5.56575
5.46824
5.32319
5.14353
4.96458
4.83366
4.7797
4.78193
1.40001
1.40001
1.40001
1.40001
1.40001
1.40001
1.40001
1.40001
1.40001
1.40001
1.40001
1.40001
1.40001
1.40001
1.40001
1.40001
1.40001
1.40001
1.40001
1.40001
1.40001
1.40001
1.40001
1.40001
1.40001
1.40001
1.40001
1.40001
1.40001
1.40001
1.40001
1.40001
1.40001
1.40001
1.40001
1.40001
1.40001
1.40001
1.40001
1.40001
1.40001
1.40001
1.40001
1.40001
1.40001
1.40001
1.40001
1.40001
1.40001
1.40001
1.40001
1.40001
1.40001
1.40001
1.40001
1.40001
1.40001
1.40001
1.40001
1.63975
4.47706
5.52373
5.52178
5.54517
5.55442
5.54615
5.53143
5.52384
5.52445
5.53767
5.55783
5.5731
5.58922
5.60463
5.61212
5.60261
5.57964
5.55565
5.54418
5.54769
5.56404
5.58471
5.59692
5.59711
5.5887
5.57832
5.57228
5.56101
5.52127
5.43454
5.29345
5.10748
4.91146
4.76062
4.69453
4.69432
1.40001
1.40001
1.40001
1.40001
1.40001
1.40001
1.40001
1.40001
1.40001
1.40001
1.40001
1.40001
1.40001
1.40001
1.40001
1.40001
1.40001
1.40001
1.40001
1.40001
1.40001
1.40001
1.40001
1.40001
1.40001
1.40001
1.40001
1.40001
1.40001
1.40001
1.40001
1.40001
1.40001
1.40001
1.40001
1.40001
1.40001
1.40001
1.40001
1.40001
1.40001
1.40001
1.40001
1.40001
1.40001
1.40001
1.40001
1.40001
1.40001
1.40001
1.40001
1.40001
1.40001
1.40001
1.40001
1.40001
1.40001
1.40001
1.40001
1.40307
3.00605
5.30385
5.48641
5.50442
5.51977
5.51356
5.49347
5.47761
5.47394
5.48309
5.50604
5.52713
5.54439
5.55821
5.56379
5.55499
5.53418
5.51166
5.49739
5.49634
5.50458
5.51704
5.52289
5.51557
5.50183
5.48718
5.47638
5.46178
5.42357
5.34269
5.20795
5.02354
4.82
4.64685
4.56222
4.55313
1.40001
1.40001
1.40001
1.40001
1.40001
1.40001
1.40001
1.40001
1.40001
1.40001
1.40001
1.40001
1.40001
1.40001
1.40001
1.40001
1.40001
1.40001
1.40001
1.40001
1.40001
1.40001
1.40001
1.40001
1.40001
1.40001
1.40001
1.40001
1.40001
1.40001
1.40001
1.40001
1.40001
1.40001
1.40001
1.40001
1.40001
1.40001
1.40001
1.40001
1.40001
1.40001
1.40001
1.40001
1.40001
1.40001
1.40001
1.40001
1.40001
1.40001
1.40001
1.40001
1.40001
1.40001
1.40001
1.40001
1.40001
1.40001
1.40001
1.40001
1.58237
4.41887
5.47947
5.4847
5.50949
5.51561
5.49788
5.4692
5.45165
5.44528
5.45213
5.4699
5.48469
5.49716
5.50325
5.4989
5.4875
5.46989
5.449
5.43465
5.42889
5.42567
5.41981
5.40858
5.39216
5.37459
5.35831
5.33582
5.29486
5.22233
5.10767
4.94401
4.73557
4.52632
4.35104
4.33421
1.40001
1.40001
1.40001
1.40001
1.40001
1.40001
1.40001
1.40001
1.40001
1.40001
1.40001
1.40001
1.40001
1.40001
1.40001
1.40001
1.40001
1.40001
1.40001
1.40001
1.40001
1.40001
1.40001
1.40001
1.40001
1.40001
1.40001
1.40001
1.40001
1.40001
1.40001
1.40001
1.40001
1.40001
1.40001
1.40001
1.40001
1.40001
1.40001
1.40001
1.40001
1.40001
1.40001
1.40001
1.40001
1.40001
1.40001
1.40001
1.40001
1.40001
1.40001
1.40001
1.40001
1.40001
1.40001
1.40001
1.40001
1.40001
1.40001
1.4
1.39929
2.85342
5.22132
5.43708
5.46302
5.47544
5.47264
5.45242
5.43036
5.4169
5.41411
5.42272
5.43577
5.44804
5.45574
5.4556
5.4502
5.434
5.40652
5.37551
5.35214
5.33319
5.31463
5.29908
5.27985
5.2577
5.23316
5.19708
5.13875
5.04808
4.91362
4.72498
4.44753
4.08378
3.59574
2.75734
1.40001
1.40001
1.40001
1.40001
1.40001
1.40001
1.40001
1.40001
1.40001
1.40001
1.40001
1.40001
1.40001
1.40001
1.40001
1.40001
1.40001
1.40001
1.40001
1.40001
1.40001
1.40001
1.40001
1.40001
1.40001
1.40001
1.40001
1.40001
1.40001
1.40001
1.40001
1.40001
1.40001
1.40001
1.40001
1.40001
1.40001
1.40001
1.40001
1.40001
1.40001
1.40001
1.40001
1.40001
1.40001
1.40001
1.40001
1.40001
1.40001
1.40001
1.40001
1.40001
1.40001
1.40001
1.40001
1.40001
1.40001
1.40001
1.40001
1.40001
1.39984
1.6049
4.46931
5.45717
5.45258
5.46477
5.46776
5.45444
5.4281
5.40374
5.38319
5.37491
5.38244
5.39469
5.40644
5.41182
5.41001
5.39812
5.37011
5.32844
5.28718
5.25172
5.222
5.20086
5.17769
5.14876
5.11223
5.06196
4.98695
4.87858
4.72824
4.51909
4.24224
3.84027
3.28698
2.54671
1.40001
1.40001
1.40001
1.40001
1.40001
1.40001
1.40001
1.40001
1.40001
1.40001
1.40001
1.40001
1.40001
1.40001
1.40001
1.40001
1.40001
1.40001
1.40001
1.40001
1.40001
1.40001
1.40001
1.40001
1.40001
1.40001
1.40001
1.40001
1.40001
1.40001
1.40001
1.40001
1.40001
1.40001
1.40001
1.40001
1.40001
1.40001
1.40001
1.40001
1.40001
1.40001
1.40001
1.40001
1.40001
1.40001
1.40001
1.40001
1.40001
1.40001
1.40001
1.40001
1.40001
1.40001
1.40001
1.40001
1.40001
1.40001
1.40001
1.40001
1.39999
1.40223
2.89016
5.18124
5.38158
5.41671
5.43237
5.43011
5.40913
5.37892
5.34934
5.33282
5.33674
5.35105
5.36594
5.37211
5.36648
5.35364
5.32503
5.27799
5.22153
5.16931
5.12898
5.10174
5.07565
5.03924
4.98827
4.92403
4.83785
4.71789
4.55612
4.34594
4.07025
3.70348
3.24506
2.69063
1.40001
1.40001
1.40001
1.40001
1.40001
1.40001
1.40001
1.40001
1.40001
1.40001
1.40001
1.40001
1.40001
1.40001
1.40001
1.40001
1.40001
1.40001
1.40001
1.40001
1.40001
1.40001
1.40001
1.40001
1.40001
1.40001
1.40001
1.40001
1.40001
1.40001
1.40001
1.40001
1.40001
1.40001
1.40001
1.40001
1.40001
1.40001
1.40001
1.40001
1.40001
1.40001
1.40001
1.40001
1.40001
1.40001
1.40001
1.40001
1.40001
1.40001
1.40001
1.40001
1.40001
1.40001
1.40001
1.40001
1.40001
1.40001
1.40001
1.40001
1.4
1.4
1.54233
4.26061
5.39629
5.4072
5.42541
5.43602
5.42208
5.38148
5.32974
5.29224
5.28781
5.30237
5.31765
5.32182
5.31263
5.29834
5.27303
5.2298
5.16793
5.09942
5.04271
5.00349
4.96978
4.92717
4.86794
4.79313
4.69992
4.5751
4.4133
4.21045
3.94814
3.64513
3.28549
2.87718
1.40001
1.40001
1.40001
1.40001
1.40001
1.40001
1.40001
1.40001
1.40001
1.40001
1.40001
1.40001
1.40001
1.40001
1.40001
1.40001
1.40001
1.40001
1.40001
1.40001
1.40001
1.40001
1.40001
1.40001
1.40001
1.40001
1.40001
1.40001
1.40001
1.40001
1.40001
1.40001
1.40001
1.40001
1.40001
1.40001
1.40001
1.40001
1.40001
1.40001
1.40001
1.40001
1.40001
1.40001
1.40001
1.40001
1.40001
1.40001
1.40001
1.40001
1.40001
1.40001
1.40001
1.40001
1.40001
1.40001
1.40001
1.40001
1.40001
1.40001
1.40001
1.4
1.40104
2.48513
5.04059
5.36189
5.3744
5.39997
5.39678
5.36397
5.31478
5.26984
5.25588
5.26246
5.27244
5.27141
5.25661
5.23455
5.20704
5.17008
5.11512
5.04618
4.97871
4.92087
4.87048
4.81771
4.75358
4.67429
4.57733
4.45348
4.30059
4.10965
3.87936
3.62698
3.34776
3.0384
1.40001
1.40001
1.40001
1.40001
1.40001
1.40001
1.40001
1.40001
1.40001
1.40001
1.40001
1.40001
1.40001
1.40001
1.40001
1.40001
1.40001
1.40001
1.40001
1.40001
1.40001
1.40001
1.40001
1.40001
1.40001
1.40001
1.40001
1.40001
1.40001
1.40001
1.40001
1.40001
1.40001
1.40001
1.40001
1.40001
1.40001
1.40001
1.40001
1.40001
1.40001
1.40001
1.40001
1.40001
1.40001
1.40001
1.40001
1.40001
1.40001
1.40001
1.40001
1.40001
1.40001
1.40001
1.40001
1.40001
1.40001
1.40001
1.40001
1.40001
1.40001
1.40001
1.40001
1.47115
3.61306
5.25977
5.32863
5.36222
5.36889
5.34633
5.30173
5.2518
5.21297
5.20566
5.20787
5.21015
5.20074
5.17848
5.14713
5.10965
5.06171
5.00195
4.93392
4.86289
4.79227
4.72259
4.64981
4.56778
4.47054
4.35346
4.20996
4.03903
3.84266
3.63322
3.40595
3.15896
1.40001
1.40001
1.40001
1.40001
1.40001
1.40001
1.40001
1.40001
1.40001
1.40001
1.40001
1.40001
1.40001
1.40001
1.40001
1.40001
1.40001
1.40001
1.40001
1.40001
1.40001
1.40001
1.40001
1.40001
1.40001
1.40001
1.40001
1.40001
1.40001
1.40001
1.40001
1.40001
1.40001
1.40001
1.40001
1.40001
1.40001
1.40001
1.40001
1.40001
1.40001
1.40001
1.40001
1.40001
1.40001
1.40001
1.40001
1.40001
1.40001
1.40001
1.40001
1.40001
1.40001
1.40001
1.40001
1.40001
1.40001
1.40001
1.40001
1.40001
1.40001
1.40001
1.40001
1.40026
1.74844
4.54584
5.3432
5.32235
5.3334
5.32973
5.30544
5.26267
5.21348
5.17468
5.15386
5.14594
5.13754
5.11811
5.08616
5.04568
5.00155
4.95232
4.8934
4.82273
4.74024
4.65448
4.56841
4.48006
4.38445
4.27583
4.14482
3.99245
3.82404
3.64345
3.45394
3.24941
1.40001
1.40001
1.40001
1.40001
1.40001
1.40001
1.40001
1.40001
1.40001
1.40001
1.40001
1.40001
1.40001
1.40001
1.40001
1.40001
1.40001
1.40001
1.40001
1.40001
1.40001
1.40001
1.40001
1.40001
1.40001
1.40001
1.40001
1.40001
1.40001
1.40001
1.40001
1.40001
1.40001
1.40001
1.40001
1.40001
1.40001
1.40001
1.40001
1.40001
1.40001
1.40001
1.40001
1.40001
1.40001
1.40001
1.40001
1.40001
1.40001
1.40001
1.40001
1.40001
1.40001
1.40001
1.40001
1.40001
1.40001
1.40001
1.40001
1.40001
1.40001
1.40001
1.40001
1.40001
1.4062
2.61736
5.02178
5.27754
5.26569
5.28138
5.27197
5.23994
5.19553
5.14771
5.11334
5.09101
5.07727
5.05978
5.02967
4.98799
4.94354
4.89746
4.84604
4.78139
4.70025
4.60933
4.51396
4.41957
4.32516
4.22226
4.10152
3.96264
3.81376
3.65446
3.49498
3.31913
1.40001
1.40001
1.40001
1.40001
1.40001
1.40001
1.40001
1.40001
1.40001
1.40001
1.40001
1.40001
1.40001
1.40001
1.40001
1.40001
1.40001
1.40001
1.40001
1.40001
1.40001
1.40001
1.40001
1.40001
1.40001
1.40001
1.40001
1.40001
1.40001
1.40001
1.40001
1.40001
1.40001
1.40001
1.40001
1.40001
1.40001
1.40001
1.40001
1.40001
1.40001
1.40001
1.40001
1.40001
1.40001
1.40001
1.40001
1.40001
1.40001
1.40001
1.40001
1.40001
1.40001
1.40001
1.40001
1.40001
1.40001
1.40001
1.40001
1.40001
1.40001
1.40001
1.40001
1.40001
1.40001
1.48392
3.4333
5.18047
5.23243
5.23747
5.25116
5.23285
5.19417
5.14141
5.08646
5.04263
5.01378
4.99283
4.96647
4.9288
4.8862
4.84153
4.7928
4.7316
4.65569
4.56904
4.4755
4.3834
4.29107
4.19099
4.07578
3.94779
3.8128
3.66953
3.53104
3.37603
1.40001
1.40001
1.40001
1.40001
1.40001
1.40001
1.40001
1.40001
1.40001
1.40001
1.40001
1.40001
1.40001
1.40001
1.40001
1.40001
1.40001
1.40001
1.40001
1.40001
1.40001
1.40001
1.40001
1.40001
1.40001
1.40001
1.40001
1.40001
1.40001
1.40001
1.40001
1.40001
1.40001
1.40001
1.40001
1.40001
1.40001
1.40001
1.40001
1.40001
1.40001
1.40001
1.40001
1.40001
1.40001
1.40001
1.40001
1.40001
1.40001
1.40001
1.40001
1.40001
1.40001
1.40001
1.40001
1.40001
1.40001
1.40001
1.40001
1.40001
1.40001
1.40001
1.40001
1.40001
1.40001
1.4004
1.65092
4.04524
5.20343
5.21297
5.21958
5.22765
5.204
5.15773
5.09898
5.03874
4.98561
4.94357
4.90833
4.87211
4.83164
4.78936
4.74173
4.68017
4.60903
4.52927
4.44282
4.35671
4.26775
4.17101
4.06201
3.9434
3.81765
3.69005
3.56501
3.42902
1.40001
1.40001
1.40001
1.40001
1.40001
1.40001
1.40001
1.40001
1.40001
1.40001
1.40001
1.40001
1.40001
1.40001
1.40001
1.40001
1.40001
1.40001
1.40001
1.40001
1.40001
1.40001
1.40001
1.40001
1.40001
1.40001
1.40001
1.40001
1.40001
1.40001
1.40001
1.40001
1.40001
1.40001
1.40001
1.40001
1.40001
1.40001
1.40001
1.40001
1.40001
1.40001
1.40001
1.40001
1.40001
1.40001
1.40001
1.40001
1.40001
1.40001
1.40001
1.40001
1.40001
1.40001
1.40001
1.40001
1.40001
1.40001
1.40001
1.40001
1.40001
1.40001
1.40001
1.40001
1.40001
1.40001
1.40323
1.87555
4.53653
5.18666
5.15507
5.17157
5.17772
5.15659
5.10979
5.0484
4.9861
4.92947
4.87937
4.83331
4.78916
4.74611
4.70012
4.64019
4.57233
4.49899
4.41956
4.33859
4.25283
4.15988
4.05599
3.943
3.82527
3.71129
3.59516
3.47721
1.40001
1.40001
1.40001
1.40001
1.40001
1.40001
1.40001
1.40001
1.40001
1.40001
1.40001
1.40001
1.40001
1.40001
1.40001
1.40001
1.40001
1.40001
1.40001
1.40001
1.40001
1.40001
1.40001
1.40001
1.40001
1.40001
1.40001
1.40001
1.40001
1.40001
1.40001
1.40001
1.40001
1.40001
1.40001
1.40001
1.40001
1.40001
1.40001
1.40001
1.40001
1.40001
1.40001
1.40001
1.40001
1.40001
1.40001
1.40001
1.40001
1.40001
1.40001
1.40001
1.40001
1.40001
1.40001
1.40001
1.40001
1.40001
1.40001
1.40001
1.40001
1.40001
1.40001
1.40001
1.40001
1.40001
1.40001
1.41172
2.31355
4.77026
5.15112
5.12206
5.12791
5.12067
5.09012
5.0403
4.98222
4.92437
4.86937
4.81589
4.76325
4.71304
4.66321
4.60671
4.5416
4.47531
4.40283
4.32746
4.24667
4.15817
4.05906
3.95002
3.84059
3.73668
3.62708
3.52165
1.40001
1.40001
1.40001
1.40001
1.40001
1.40001
1.40001
1.40001
1.40001
1.40001
1.40001
1.40001
1.40001
1.40001
1.40001
1.40001
1.40001
1.40001
1.40001
1.40001
1.40001
1.40001
1.40001
1.40001
1.40001
1.40001
1.40001
1.40001
1.40001
1.40001
1.40001
1.40001
1.40001
1.40001
1.40001
1.40001
1.40001
1.40001
1.40001
1.40001
1.40001
1.40001
1.40001
1.40001
1.40001
1.40001
1.40001
1.40001
1.40001
1.40001
1.40001
1.40001
1.40001
1.40001
1.40001
1.40001
1.40001
1.40001
1.40001
1.40001
1.40001
1.40001
1.40001
1.40001
1.40001
1.40001
1.40001
1.40003
1.44235
2.68715
4.88144
5.10435
5.07842
5.07898
5.06071
5.02699
4.97799
4.91914
4.86168
4.8061
4.75126
4.6967
4.64027
4.58031
4.51466
4.44813
4.38301
4.31508
4.24089
4.15804
4.0644
3.9617
3.86189
3.76511
3.66188
3.56433
1.40001
1.40001
1.40001
1.40001
1.40001
1.40001
1.40001
1.40001
1.40001
1.40001
1.40001
1.40001
1.40001
1.40001
1.40001
1.40001
1.40001
1.40001
1.40001
1.40001
1.40001
1.40001
1.40001
1.40001
1.40001
1.40001
1.40001
1.40001
1.40001
1.40001
1.40001
1.40001
1.40001
1.40001
1.40001
1.40001
1.40001
1.40001
1.40001
1.40001
1.40001
1.40001
1.40001
1.40001
1.40001
1.40001
1.40001
1.40001
1.40001
1.40001
1.40001
1.40001
1.40001
1.40001
1.40001
1.40001
1.40001
1.40001
1.40001
1.40001
1.40001
1.40001
1.40001
1.40001
1.40001
1.40001
1.40001
1.40001
1.40017
1.4899
2.93769
4.90763
5.07191
5.03896
5.03052
5.00517
4.96857
4.91948
4.86409
4.80707
4.75037
4.6926
4.63266
4.56923
4.50022
4.42928
4.36386
4.29914
4.22911
4.15146
4.06436
3.97203
3.88373
3.79337
3.69757
3.60578
1.40001
1.40001
1.40001
1.40001
1.40001
1.40001
1.40001
1.40001
1.40001
1.40001
1.40001
1.40001
1.40001
1.40001
1.40001
1.40001
1.40001
1.40001
1.40001
1.40001
1.40001
1.40001
1.40001
1.40001
1.40001
1.40001
1.40001
1.40001
1.40001
1.40001
1.40001
1.40001
1.40001
1.40001
1.40001
1.40001
1.40001
1.40001
1.40001
1.40001
1.40001
1.40001
1.40001
1.40001
1.40001
1.40001
1.40001
1.40001
1.40001
1.40001
1.40001
1.40001
1.40001
1.40001
1.40001
1.40001
1.40001
1.40001
1.40001
1.40001
1.40001
1.40001
1.40001
1.40001
1.40001
1.40001
1.40001
1.40001
1.40001
1.40056
1.53435
3.0592
4.8944
5.04328
5.00602
4.98725
4.95166
4.90897
4.86063
4.80924
4.7557
4.69911
4.63885
4.57307
4.50151
4.4273
4.35652
4.28877
4.21928
4.14465
4.06236
3.97942
3.90135
3.81864
3.73189
3.64487
1.40001
1.40001
1.40001
1.40001
1.40001
1.40001
1.40001
1.40001
1.40001
1.40001
1.40001
1.40001
1.40001
1.40001
1.40001
1.40001
1.40001
1.40001
1.40001
1.40001
1.40001
1.40001
1.40001
1.40001
1.40001
1.40001
1.40001
1.40001
1.40001
1.40001
1.40001
1.40001
1.40001
1.40001
1.40001
1.40001
1.40001
1.40001
1.40001
1.40001
1.40001
1.40001
1.40001
1.40001
1.40001
1.40001
1.40001
1.40001
1.40001
1.40001
1.40001
1.40001
1.40001
1.40001
1.40001
1.40001
1.40001
1.40001
1.40001
1.40001
1.40001
1.40001
1.40001
1.40001
1.40001
1.40001
1.40001
1.40001
1.40001
1.40001
1.40112
1.5614
3.07022
4.85407
5.01723
4.97798
4.94412
4.89813
4.84805
4.79925
4.74932
4.70037
4.64719
4.58648
4.51636
4.43978
4.3647
4.2932
4.22183
4.14685
4.06636
3.98801
3.91477
3.8383
3.75977
3.6785
1.40001
1.40001
1.40001
1.40001
1.40001
1.40001
1.40001
1.40001
1.40001
1.40001
1.40001
1.40001
1.40001
1.40001
1.40001
1.40001
1.40001
1.40001
1.40001
1.40001
1.40001
1.40001
1.40001
1.40001
1.40001
1.40001
1.40001
1.40001
1.40001
1.40001
1.40001
1.40001
1.40001
1.40001
1.40001
1.40001
1.40001
1.40001
1.40001
1.40001
1.40001
1.40001
1.40001
1.40001
1.40001
1.40001
1.40001
1.40001
1.40001
1.40001
1.40001
1.40001
1.40001
1.40001
1.40001
1.40001
1.40001
1.40001
1.40001
1.40001
1.40001
1.40001
1.40001
1.40001
1.40001
1.40001
1.40001
1.40001
1.40001
1.40001
1.40001
1.40157
1.56556
2.97992
4.79517
4.99463
4.95013
4.90172
4.84657
4.78843
4.73609
4.68885
4.64211
4.59072
4.53108
4.46153
4.38778
4.31398
4.24043
4.16407
4.08428
4.00663
3.93357
3.8599
3.7854
3.70897
1.40001
1.40001
1.40001
1.40001
1.40001
1.40001
1.40001
1.40001
1.40001
1.40001
1.40001
1.40001
1.40001
1.40001
1.40001
1.40001
1.40001
1.40001
1.40001
1.40001
1.40001
1.40001
1.40001
1.40001
1.40001
1.40001
1.40001
1.40001
1.40001
1.40001
1.40001
1.40001
1.40001
1.40001
1.40001
1.40001
1.40001
1.40001
1.40001
1.40001
1.40001
1.40001
1.40001
1.40001
1.40001
1.40001
1.40001
1.40001
1.40001
1.40001
1.40001
1.40001
1.40001
1.40001
1.40001
1.40001
1.40001
1.40001
1.40001
1.40001
1.40001
1.40001
1.40001
1.40001
1.40001
1.40001
1.40001
1.40001
1.40001
1.40001
1.40001
1.40001
1.40167
1.54678
2.8049
4.73039
4.96426
4.91661
4.85143
4.79053
4.73263
4.67888
4.63195
4.5857
4.53499
4.4779
4.41367
4.34419
4.27203
4.19601
4.11711
4.03885
3.96342
3.88946
3.81519
3.74161
1.40001
1.40001
1.40001
1.40001
1.40001
1.40001
1.40001
1.40001
1.40001
1.40001
1.40001
1.40001
1.40001
1.40001
1.40001
1.40001
1.40001
1.40001
1.40001
1.40001
1.40001
1.40001
1.40001
1.40001
1.40001
1.40001
1.40001
1.40001
1.40001
1.40001
1.40001
1.40001
1.40001
1.40001
1.40001
1.40001
1.40001
1.40001
1.40001
1.40001
1.40001
1.40001
1.40001
1.40001
1.40001
1.40001
1.40001
1.40001
1.40001
1.40001
1.40001
1.40001
1.40001
1.40001
1.40001
1.40001
1.40001
1.40001
1.40001
1.40001
1.40001
1.40001
1.40001
1.40001
1.40001
1.40001
1.40001
1.40001
1.40001
1.40001
1.40001
1.40001
1.40001
1.40138
1.51281
2.60585
4.59614
4.91175
4.87602
4.80617
4.74679
4.68866
4.63297
4.58121
4.535
4.48826
4.43376
4.37162
4.30351
4.22923
4.15234
4.07549
3.99915
3.92502
3.85134
3.77969
1.40001
1.40001
1.40001
1.40001
1.40001
1.40001
1.40001
1.40001
1.40001
1.40001
1.40001
1.40001
1.40001
1.40001
1.40001
1.40001
1.40001
1.40001
1.40001
1.40001
1.40001
1.40001
1.40001
1.40001
1.40001
1.40001
1.40001
1.40001
1.40001
1.40001
1.40001
1.40001
1.40001
1.40001
1.40001
1.40001
1.40001
1.40001
1.40001
1.40001
1.40001
1.40001
1.40001
1.40001
1.40001
1.40001
1.40001
1.40001
1.40001
1.40001
1.40001
1.40001
1.40001
1.40001
1.40001
1.40001
1.40001
1.40001
1.40001
1.40001
1.40001
1.40001
1.40001
1.40001
1.40001
1.40001
1.40001
1.40001
1.40001
1.40001
1.40001
1.40001
1.40001
1.40001
1.4009
1.48146
2.40102
4.29449
4.86856
4.85719
4.78175
4.71503
4.65212
4.59388
4.5457
4.50037
4.45029
4.39276
4.32707
4.25419
4.17988
4.10672
4.03339
3.96243
3.89049
3.82222
1.40001
1.40001
1.40001
1.40001
1.40001
1.40001
1.40001
1.40001
1.40001
1.40001
1.40001
1.40001
1.40001
1.40001
1.40001
1.40001
1.40001
1.40001
1.40001
1.40001
1.40001
1.40001
1.40001
1.40001
1.40001
1.40001
1.40001
1.40001
1.40001
1.40001
1.40001
1.40001
1.40001
1.40001
1.40001
1.40001
1.40001
1.40001
1.40001
1.40001
1.40001
1.40001
1.40001
1.40001
1.40001
1.40001
1.40001
1.40001
1.40001
1.40001
1.40001
1.40001
1.40001
1.40001
1.40001
1.40001
1.40001
1.40001
1.40001
1.40001
1.40001
1.40001
1.40001
1.40001
1.40001
1.40001
1.40001
1.40001
1.40001
1.40001
1.40001
1.40001
1.40001
1.40001
1.40001
1.40056
1.4531
2.13906
3.87952
4.81421
4.83051
4.76435
4.69655
4.63608
4.57725
4.5223
4.46779
4.40959
4.34519
4.27424
4.20303
4.1348
4.0658
3.99715
3.92736
3.86435
1.40001
1.40001
1.40001
1.40001
1.40001
1.40001
1.40001
1.40001
1.40001
1.40001
1.40001
1.40001
1.40001
1.40001
1.40001
1.40001
1.40001
1.40001
1.40001
1.40001
1.40001
1.40001
1.40001
1.40001
1.40001
1.40001
1.40001
1.40001
1.40001
1.40001
1.40001
1.40001
1.40001
1.40001
1.40001
1.40001
1.40001
1.40001
1.40001
1.40001
1.40001
1.40001
1.40001
1.40001
1.40001
1.40001
1.40001
1.40001
1.40001
1.40001
1.40001
1.40001
1.40001
1.40001
1.40001
1.40001
1.40001
1.40001
1.40001
1.40001
1.40001
1.40001
1.40001
1.40001
1.40001
1.40001
1.40001
1.40001
1.40001
1.40001
1.40001
1.40001
1.40001
1.40001
1.40001
1.40001
1.40029
1.42818
1.87592
3.35664
4.74137
4.79033
4.75075
4.67786
4.62004
4.55946
4.49668
4.43288
4.36749
4.29957
4.23377
4.16887
4.10025
4.03248
3.96517
3.90453
1.40001
1.40001
1.40001
1.40001
1.40001
1.40001
1.40001
1.40001
1.40001
1.40001
1.40001
1.40001
1.40001
1.40001
1.40001
1.40001
1.40001
1.40001
1.40001
1.40001
1.40001
1.40001
1.40001
1.40001
1.40001
1.40001
1.40001
1.40001
1.40001
1.40001
1.40001
1.40001
1.40001
1.40001