/*--------------------------------*- C++ -*----------------------------------*\
  =========                 |
  \\      /  F ield         | OpenFOAM: The Open Source CFD Toolbox
   \\    /   O peration     | Website:  https://openfoam.org
    \\  /    A nd           | Version:  7
     \\/     M anipulation  |
\*---------------------------------------------------------------------------*/
FoamFile
{
    version     2.0;
    format      ascii;
    class       volVectorField;
    location    "0.7";
    object      U;
}
// * * * * * * * * * * * * * * * * * * * * * * * * * * * * * * * * * * * * * //

dimensions      [0 1 -1 0 0 0 0];

internalField   nonuniform List<vector> 
19968
(
(3 7.3842e-17 0)
(3 3.30715e-16 0)
(3 1.7587e-16 0)
(3 1.3103e-16 0)
(3 1.80837e-16 0)
(3 2.85236e-16 0)
(3 4.98054e-16 0)
(3 4.22328e-16 0)
(3 2.42552e-16 0)
(3 1.87562e-16 0)
(3 1.72795e-16 0)
(3 3.51772e-16 0)
(3 6.98836e-16 0)
(3 7.46943e-16 0)
(3 3.94018e-16 0)
(3 5.22535e-16 0)
(3 7.18043e-16 0)
(3 2.02591e-16 0)
(3 -6.9565e-16 0)
(3 -1.64149e-15 0)
(3 -1.34846e-15 0)
(3 -9.43948e-16 0)
(3 4.21915e-17 0)
(3 6.47853e-16 0)
(3 3.99135e-16 0)
(3 -5.75329e-16 0)
(3 -5.36e-16 0)
(3 -1.72666e-17 0)
(3 -1.08863e-16 0)
(3 4.23231e-16 0)
(3 5.90849e-16 0)
(3 4.39261e-16 0)
(3 6.81233e-16 0)
(3 1.55344e-15 0)
(3 1.38826e-15 0)
(3 1.17088e-15 0)
(3 9.69835e-16 0)
(3 4.07637e-16 0)
(3 8.86407e-17 0)
(3 1.49597e-17 0)
(3 -8.41522e-16 0)
(3 -7.36389e-16 0)
(3 -5.56701e-16 0)
(3 2.96855e-17 0)
(3 4.34617e-16 0)
(3 5.32423e-16 0)
(3 7.62012e-16 0)
(3 3.36879e-16 0)
(3 1.5224e-16 0)
(3 1.37624e-16 0)
(3 1.46333e-16 0)
(3 5.5115e-16 0)
(3 5.45015e-16 0)
(3 3.112e-16 0)
(3 1.88754e-16 0)
(3 1.03095e-15 0)
(3 8.94334e-16 0)
(2.42055 0.00395461 0)
(0.811966 0.00705948 0)
(0.647605 0.0139913 0)
(0.62698 0.00745356 0)
(0.613849 0.00626006 0)
(0.601399 0.0075284 0)
(0.591619 0.0104237 0)
(0.580102 0.0123097 0)
(0.568463 0.0117993 0)
(0.553526 0.0106631 0)
(0.533363 0.0106072 0)
(0.509024 0.0114041 0)
(0.484408 0.0119189 0)
(0.463441 0.0119469 0)
(0.450034 0.0116871 0)
(0.442142 0.0116903 0)
(0.437114 0.0117188 0)
(0.427852 0.011729 0)
(0.410651 0.0116074 0)
(0.388501 0.0116619 0)
(0.361916 0.0117201 0)
(0.338687 0.0116603 0)
(0.31876 0.0119013 0)
(0.29993 0.011896 0)
(0.279654 0.0117319 0)
(0.256398 0.0117819 0)
(0.233039 0.0118838 0)
(0.211387 0.0119088 0)
(0.195176 0.0121116 0)
(0.185753 0.0122921 0)
(0.18055 0.0125646 0)
(0.175004 0.0129609 0)
(0.164715 0.0134916 0)
(0.146905 0.014139 0)
(0.122591 0.0148759 0)
(0.0945206 0.0155934 0)
(0.0661883 0.0158694 0)
(0.0377874 0.0160799 0)
(0.0125545 0.0167059 0)
(3 1.29784e-16 0)
(3 3.46863e-16 0)
(3 4.54485e-16 0)
(3 8.19288e-16 0)
(3 1.10037e-15 0)
(3 1.30181e-15 0)
(3 1.49835e-15 0)
(3 1.34423e-15 0)
(3 5.06468e-16 0)
(3 5.0995e-16 0)
(3 6.40833e-16 0)
(3 8.76495e-16 0)
(3 1.58769e-15 0)
(3 1.19296e-15 0)
(3 6.7451e-16 0)
(3 9.81793e-16 0)
(3 5.48562e-16 0)
(3 -2.14987e-17 0)
(3 -7.62942e-16 0)
(3 -9.87277e-16 0)
(3 -6.47431e-16 0)
(3 -4.80277e-16 0)
(3 8.13937e-16 0)
(3 1.2522e-15 0)
(3 7.52476e-16 0)
(3 3.65135e-16 0)
(3 4.46535e-16 0)
(3 9.49686e-16 0)
(3 1.71142e-15 0)
(3 1.57609e-15 0)
(3 1.26592e-15 0)
(3 7.82461e-17 0)
(3 2.89952e-16 0)
(3 1.04054e-15 0)
(3 1.60914e-15 0)
(3 1.14801e-15 0)
(3 4.7854e-16 0)
(3 3.02882e-16 0)
(3 3.06399e-16 0)
(3 4.4337e-16 0)
(3 1.55212e-16 0)
(3 -5.98388e-16 0)
(3 -1.16523e-15 0)
(3 -3.69422e-16 0)
(3 9.48804e-16 0)
(3 1.99298e-15 0)
(3 2.31603e-15 0)
(3 4.80225e-16 0)
(3 -4.03185e-16 0)
(3 6.25357e-17 0)
(3 8.42187e-16 0)
(3 1.01398e-15 0)
(3 5.63734e-16 0)
(3 6.15849e-16 0)
(3 1.02599e-15 0)
(3 1.48419e-15 0)
(3 1.63585e-15 0)
(2.44326 0.0221626 0)
(0.813016 0.0372642 0)
(0.63945 0.0428908 0)
(0.622703 0.0240788 0)
(0.608726 0.0193517 0)
(0.594806 0.0222338 0)
(0.587524 0.0298253 0)
(0.578152 0.0355015 0)
(0.566805 0.035708 0)
(0.551077 0.0330627 0)
(0.529438 0.0322435 0)
(0.504226 0.0342493 0)
(0.479426 0.0356374 0)
(0.458905 0.0358129 0)
(0.445674 0.0353034 0)
(0.437415 0.0354816 0)
(0.431879 0.0354047 0)
(0.422538 0.0352589 0)
(0.405495 0.0350254 0)
(0.383456 0.0352554 0)
(0.356804 0.0357167 0)
(0.333063 0.0356498 0)
(0.312765 0.0359145 0)
(0.294065 0.035602 0)
(0.273787 0.0352204 0)
(0.250736 0.0357028 0)
(0.227089 0.0362426 0)
(0.205005 0.0363389 0)
(0.188678 0.0364697 0)
(0.179683 0.0365759 0)
(0.175139 0.0371852 0)
(0.170137 0.0386369 0)
(0.160028 0.0405333 0)
(0.142419 0.0428997 0)
(0.118631 0.0454914 0)
(0.0914898 0.0477959 0)
(0.0642209 0.0484831 0)
(0.0369066 0.0486729 0)
(0.0126153 0.0501993 0)
(3 -9.93161e-17 0)
(3 -2.79537e-16 0)
(3 -3.33831e-16 0)
(3 -6.69884e-17 0)
(3 1.00245e-16 0)
(3 1.18582e-16 0)
(3 -4.71553e-17 0)
(3 -1.12003e-16 0)
(3 -3.10778e-16 0)
(3 -1.40511e-16 0)
(3 7.5913e-16 0)
(3 1.26105e-15 0)
(3 1.19085e-15 0)
(3 1.09827e-15 0)
(3 7.65674e-16 0)
(3 8.43648e-16 0)
(3 8.71198e-17 0)
(3 -4.05698e-16 0)
(3 -5.89185e-16 0)
(3 -5.93505e-16 0)
(3 -1.09333e-16 0)
(3 -2.28384e-16 0)
(3 -4.88927e-16 0)
(3 8.09028e-17 0)
(3 3.56905e-16 0)
(3 7.60254e-16 0)
(3 9.24236e-16 0)
(3 1.61993e-15 0)
(3 2.09396e-15 0)
(3 2.15116e-15 0)
(3 1.91201e-15 0)
(3 1.76518e-15 0)
(3 1.38399e-15 0)
(3 9.90332e-16 0)
(3 1.07206e-15 0)
(3 1.04213e-15 0)
(3 9.46926e-16 0)
(3 9.42008e-16 0)
(3 1.41594e-15 0)
(3 1.65629e-15 0)
(3 1.55013e-15 0)
(3 7.8338e-16 0)
(3 4.65516e-16 0)
(3 5.80849e-17 0)
(3 2.10873e-16 0)
(3 2.7943e-16 0)
(3 -3.27522e-16 0)
(3 -7.17312e-16 0)
(3 -9.23395e-16 0)
(3 -1.07006e-15 0)
(3 -5.00693e-16 0)
(3 -7.46941e-16 0)
(3 -1.17027e-15 0)
(3 -1.19202e-15 0)
(3 -1.0013e-15 0)
(3 -9.94646e-16 0)
(3 -1.04582e-15 0)
(2.50407 0.0406726 0)
(0.82511 0.0717761 0)
(0.638695 0.0668129 0)
(0.6278 0.0415459 0)
(0.611375 0.0343972 0)
(0.595833 0.0394711 0)
(0.589422 0.0515753 0)
(0.58032 0.0611286 0)
(0.568744 0.0620841 0)
(0.552649 0.0582106 0)
(0.529551 0.056457 0)
(0.503138 0.0589201 0)
(0.478068 0.0605926 0)
(0.458198 0.0607324 0)
(0.445169 0.0599924 0)
(0.436103 0.0604188 0)
(0.429706 0.0605418 0)
(0.420083 0.0603642 0)
(0.403304 0.0600949 0)
(0.381502 0.0604007 0)
(0.354488 0.0611732 0)
(0.329649 0.0612698 0)
(0.308611 0.0617722 0)
(0.289982 0.0614101 0)
(0.269653 0.0609612 0)
(0.24669 0.0614576 0)
(0.222099 0.0619379 0)
(0.198722 0.0619422 0)
(0.181684 0.0621849 0)
(0.172827 0.0623836 0)
(0.168795 0.0633328 0)
(0.164017 0.0653045 0)
(0.153736 0.0680503 0)
(0.13595 0.0716526 0)
(0.112282 0.0757608 0)
(0.0857077 0.079627 0)
(0.0594466 0.0809779 0)
(0.0337859 0.0817124 0)
(0.0121438 0.0837733 0)
(3 -1.41168e-16 0)
(3 7.53854e-17 0)
(3 1.74311e-17 0)
(3 -3.03341e-16 0)
(3 -5.14876e-16 0)
(3 -5.16139e-16 0)
(3 -4.68756e-16 0)
(3 -2.79629e-16 0)
(3 -4.8743e-16 0)
(3 -3.8072e-16 0)
(3 1.331e-16 0)
(3 1.14919e-15 0)
(3 8.26155e-16 0)
(3 1.09422e-15 0)
(3 7.68927e-16 0)
(3 3.64291e-16 0)
(3 9.38754e-17 0)
(3 -8.74643e-16 0)
(3 -1.22998e-15 0)
(3 -9.476e-16 0)
(3 -8.25939e-16 0)
(3 -5.8393e-16 0)
(3 -3.53784e-16 0)
(3 1.60708e-16 0)
(3 4.61666e-16 0)
(3 4.07001e-16 0)
(3 2.03966e-16 0)
(3 4.18263e-16 0)
(3 7.35197e-16 0)
(3 7.74255e-16 0)
(3 1.32342e-15 0)
(3 1.5544e-15 0)
(3 1.56486e-15 0)
(3 1.30085e-15 0)
(3 8.04193e-16 0)
(3 1.29466e-15 0)
(3 1.53698e-15 0)
(3 1.10028e-15 0)
(3 1.09515e-15 0)
(3 6.81123e-16 0)
(3 5.71878e-16 0)
(3 9.87578e-16 0)
(3 4.88382e-16 0)
(3 -1.28648e-16 0)
(3 -4.21593e-16 0)
(3 -7.01768e-16 0)
(3 -1.32665e-15 0)
(3 -1.46799e-15 0)
(3 -1.51326e-15 0)
(3 -1.98404e-15 0)
(3 -2.19278e-15 0)
(3 -1.94801e-15 0)
(3 -1.91474e-15 0)
(3 -1.4937e-15 0)
(3 -1.93469e-15 0)
(3 -1.28185e-15 0)
(3 -1.18775e-15 0)
(2.60265 0.0571839 0)
(0.846012 0.108743 0)
(0.641461 0.0863278 0)
(0.636233 0.0577026 0)
(0.617663 0.0509287 0)
(0.602314 0.0602511 0)
(0.595977 0.077302 0)
(0.586188 0.0895265 0)
(0.5744 0.0898505 0)
(0.557511 0.0841813 0)
(0.532245 0.0815133 0)
(0.504631 0.0839592 0)
(0.480103 0.0861981 0)
(0.461449 0.0866114 0)
(0.448724 0.0856881 0)
(0.438476 0.0863408 0)
(0.431147 0.0869697 0)
(0.421063 0.0867953 0)
(0.404781 0.0864608 0)
(0.383704 0.0868536 0)
(0.356636 0.0879722 0)
(0.330851 0.0885322 0)
(0.309057 0.0896563 0)
(0.290306 0.0896396 0)
(0.269776 0.0891934 0)
(0.246871 0.0894894 0)
(0.221307 0.0898182 0)
(0.196659 0.0899062 0)
(0.178822 0.0905091 0)
(0.169759 0.0909495 0)
(0.165813 0.0920414 0)
(0.16073 0.0941474 0)
(0.149813 0.0974426 0)
(0.131241 0.101841 0)
(0.106951 0.106781 0)
(0.0802579 0.111542 0)
(0.0545773 0.11315 0)
(0.0303932 0.114392 0)
(0.0115433 0.116762 0)
(3 -1.0875e-17 0)
(3 2.34278e-17 0)
(3 1.15556e-16 0)
(3 1.01506e-16 0)
(3 -2.25656e-17 0)
(3 1.69363e-16 0)
(3 1.11903e-15 0)
(3 8.60623e-16 0)
(3 3.84741e-16 0)
(3 4.17296e-16 0)
(3 2.90645e-16 0)
(3 1.27911e-16 0)
(3 -4.19551e-18 0)
(3 -6.32766e-17 0)
(3 4.4466e-16 0)
(3 4.36345e-16 0)
(3 2.06551e-16 0)
(3 1.81767e-17 0)
(3 6.76667e-17 0)
(3 -3.20661e-16 0)
(3 -9.34353e-16 0)
(3 -1.36763e-15 0)
(3 -4.14632e-16 0)
(3 1.01512e-16 0)
(3 4.90789e-16 0)
(3 1.00157e-15 0)
(3 5.37751e-16 0)
(3 -2.19462e-16 0)
(3 4.17874e-16 0)
(3 7.09423e-16 0)
(3 2.16247e-16 0)
(3 3.89368e-16 0)
(3 4.34814e-16 0)
(3 4.54654e-16 0)
(3 -1.76668e-16 0)
(3 -3.02459e-16 0)
(3 -3.80448e-16 0)
(3 -6.47042e-16 0)
(3 -1.09708e-15 0)
(3 -1.05449e-15 0)
(3 -7.43734e-16 0)
(3 1.35765e-16 0)
(3 -4.5131e-16 0)
(3 -1.16139e-15 0)
(3 -1.60299e-15 0)
(3 -1.03382e-15 0)
(3 -7.44307e-16 0)
(3 -1.66971e-15 0)
(3 -1.81023e-15 0)
(3 -1.97068e-15 0)
(3 -2.20982e-15 0)
(3 -2.21929e-15 0)
(3 -1.61199e-15 0)
(3 -1.88544e-16 0)
(3 -2.00682e-16 0)
(3 -6.12915e-16 0)
(3 -2.14587e-15 0)
(2.74507 0.0683506 0)
(0.88773 0.13878 0)
(0.651977 0.0978722 0)
(0.643524 0.0702765 0)
(0.625809 0.0721364 0)
(0.611127 0.0895773 0)
(0.603682 0.11224 0)
(0.591142 0.122194 0)
(0.579991 0.118151 0)
(0.561968 0.1095 0)
(0.534996 0.105997 0)
(0.507619 0.108926 0)
(0.484433 0.112776 0)
(0.466549 0.113947 0)
(0.453581 0.112812 0)
(0.441944 0.1134 0)
(0.433744 0.114434 0)
(0.42323 0.114341 0)
(0.407597 0.113906 0)
(0.387719 0.114508 0)
(0.36115 0.115847 0)
(0.335045 0.116965 0)
(0.312753 0.118941 0)
(0.293591 0.119584 0)
(0.27277 0.119497 0)
(0.249938 0.119594 0)
(0.223741 0.119804 0)
(0.198467 0.12014 0)
(0.180231 0.121391 0)
(0.170835 0.122318 0)
(0.166547 0.123458 0)
(0.160905 0.125517 0)
(0.149333 0.129082 0)
(0.129965 0.13398 0)
(0.10476 0.139274 0)
(0.0773422 0.144293 0)
(0.0515379 0.14577 0)
(0.027832 0.147113 0)
(0.0110336 0.149421 0)
(3 -9.19745e-17 0)
(3 -8.36916e-17 0)
(3 -8.14309e-17 0)
(3 1.19635e-16 0)
(3 2.05804e-16 0)
(3 1.49778e-16 0)
(3 3.47073e-17 0)
(3 -2.35348e-16 0)
(3 5.10511e-18 0)
(3 2.19365e-16 0)
(3 5.81673e-16 0)
(3 5.02989e-16 0)
(3 -5.81828e-17 0)
(3 -3.95618e-16 0)
(3 5.8729e-17 0)
(3 3.50916e-16 0)
(3 6.68523e-16 0)
(3 7.5962e-16 0)
(3 3.83946e-16 0)
(3 -2.54339e-16 0)
(3 -1.61652e-16 0)
(3 1.3378e-16 0)
(3 5.42267e-16 0)
(3 6.89873e-16 0)
(3 4.78312e-16 0)
(3 9.41835e-16 0)
(3 1.39232e-15 0)
(3 1.26695e-15 0)
(3 5.24664e-16 0)
(3 -8.14269e-17 0)
(3 -5.73033e-16 0)
(3 -4.52753e-16 0)
(3 -4.56391e-16 0)
(3 -4.7637e-16 0)
(3 -1.0389e-15 0)
(3 -1.3722e-15 0)
(3 -1.22466e-15 0)
(3 -1.62666e-15 0)
(3 -1.44621e-15 0)
(3 -8.97321e-16 0)
(3 -7.25505e-16 0)
(3 -7.27823e-16 0)
(3 -6.39653e-16 0)
(3 -7.96307e-16 0)
(3 -9.26996e-16 0)
(3 -9.88547e-16 0)
(3 -1.05862e-15 0)
(3 -1.06463e-15 0)
(3 -1.07008e-15 0)
(3 -1.97545e-15 0)
(3 -2.64698e-15 0)
(3 -1.50355e-15 0)
(3 1.93855e-16 0)
(3 -7.78259e-16 0)
(3 -1.35961e-15 0)
(3 -2.07467e-15 0)
(3 -2.96988e-15 0)
(2.89669 0.0497114 0)
(0.95709 0.140113 0)
(0.665662 0.0977403 0)
(0.655577 0.0888343 0)
(0.636951 0.104411 0)
(0.621364 0.13182 0)
(0.607712 0.152113 0)
(0.592859 0.153897 0)
(0.583431 0.144025 0)
(0.565882 0.133073 0)
(0.53944 0.130343 0)
(0.513395 0.135235 0)
(0.491208 0.14116 0)
(0.472989 0.142822 0)
(0.458917 0.141381 0)
(0.445574 0.141796 0)
(0.436641 0.143091 0)
(0.426052 0.14313 0)
(0.411275 0.142402 0)
(0.392946 0.143254 0)
(0.367349 0.144729 0)
(0.341673 0.146366 0)
(0.319386 0.149398 0)
(0.298865 0.150969 0)
(0.277903 0.15164 0)
(0.254355 0.151799 0)
(0.227895 0.152142 0)
(0.202986 0.152871 0)
(0.184973 0.154966 0)
(0.175355 0.15659 0)
(0.170349 0.157945 0)
(0.163874 0.1598 0)
(0.151681 0.163077 0)
(0.131624 0.167668 0)
(0.10537 0.172727 0)
(0.0768487 0.177884 0)
(0.0504774 0.179601 0)
(0.0262982 0.181409 0)
(0.0105645 0.183951 0)
(3 1.78712e-16 0)
(3 3.4745e-16 0)
(3 4.3114e-16 0)
(3 5.8468e-16 0)
(3 6.06209e-16 0)
(3 2.5962e-16 0)
(3 -3.77711e-16 0)
(3 -4.18817e-16 0)
(3 -3.14597e-16 0)
(3 -6.72491e-17 0)
(3 -1.87613e-16 0)
(3 -1.32023e-16 0)
(3 3.50089e-16 0)
(3 -2.03329e-16 0)
(3 -3.08526e-16 0)
(3 -4.57576e-17 0)
(3 1.79606e-16 0)
(3 3.31242e-17 0)
(3 1.2889e-16 0)
(3 1.0733e-15 0)
(3 1.6496e-15 0)
(3 1.77944e-15 0)
(3 1.49942e-15 0)
(3 1.18366e-15 0)
(3 7.9598e-16 0)
(3 8.62253e-16 0)
(3 1.40701e-15 0)
(3 1.3065e-15 0)
(3 3.47806e-16 0)
(3 -3.80967e-16 0)
(3 -8.43446e-16 0)
(3 -7.75842e-16 0)
(3 -3.43313e-16 0)
(3 1.19253e-16 0)
(3 4.37017e-16 0)
(3 8.85953e-17 0)
(3 -2.1063e-16 0)
(3 2.95461e-16 0)
(3 5.0861e-16 0)
(3 8.02455e-16 0)
(3 9.82503e-16 0)
(3 7.19423e-16 0)
(3 1.31228e-16 0)
(3 -8.91319e-17 0)
(3 -4.30382e-16 0)
(3 -1.28852e-15 0)
(3 -1.60167e-15 0)
(3 -1.36633e-15 0)
(3 -1.95417e-15 0)
(3 -2.36519e-15 0)
(3 -2.14951e-15 0)
(3 -1.34874e-15 0)
(3 -1.19584e-15 0)
(3 -1.42429e-15 0)
(3 -1.73335e-15 0)
(3 -1.94743e-15 0)
(3 -2.20524e-15 0)
(3.00073 0.00355249 0)
(1.08984 0.14858 0)
(0.68571 0.108777 0)
(0.662439 0.125527 0)
(0.63892 0.151438 0)
(0.623172 0.178086 0)
(0.60631 0.186403 0)
(0.594745 0.179468 0)
(0.587214 0.166223 0)
(0.571573 0.156597 0)
(0.546523 0.157115 0)
(0.521613 0.16501 0)
(0.499455 0.171986 0)
(0.4805 0.172801 0)
(0.464696 0.170636 0)
(0.449969 0.171022 0)
(0.439897 0.172915 0)
(0.429353 0.173351 0)
(0.41541 0.17222 0)
(0.39857 0.173305 0)
(0.374245 0.175092 0)
(0.34957 0.17701 0)
(0.327925 0.1811 0)
(0.305728 0.183641 0)
(0.284065 0.185162 0)
(0.259333 0.185817 0)
(0.233074 0.186799 0)
(0.209642 0.188224 0)
(0.192478 0.191053 0)
(0.18268 0.193628 0)
(0.176687 0.195505 0)
(0.169119 0.19741 0)
(0.156179 0.200346 0)
(0.135323 0.204378 0)
(0.108009 0.208804 0)
(0.0785324 0.213716 0)
(0.0516622 0.215827 0)
(0.0265524 0.217884 0)
(0.0102828 0.221554 0)
(3 2.11072e-17 0)
(3 -3.07692e-16 0)
(3 -3.21977e-16 0)
(3 -8.853e-17 0)
(3 -8.52247e-17 0)
(3 -1.78136e-16 0)
(3 -1.2231e-16 0)
(3 5.78506e-16 0)
(3 6.75579e-16 0)
(3 3.1e-16 0)
(3 -2.26257e-16 0)
(3 -2.01798e-16 0)
(3 3.39627e-17 0)
(3 1.89306e-16 0)
(3 3.19834e-16 0)
(3 6.66601e-16 0)
(3 4.34659e-17 0)
(3 -1.51935e-16 0)
(3 4.37682e-17 0)
(3 7.58691e-17 0)
(3 -4.58802e-16 0)
(3 -6.69609e-16 0)
(3 -8.45776e-16 0)
(3 -9.70713e-16 0)
(3 1.65897e-16 0)
(3 7.01844e-16 0)
(3 7.92822e-16 0)
(3 -1.50219e-17 0)
(3 -2.62788e-16 0)
(3 -3.12619e-16 0)
(3 1.05977e-15 0)
(3 5.72923e-16 0)
(3 -5.45332e-16 0)
(3 -7.45086e-16 0)
(3 -3.57959e-16 0)
(3 7.58792e-17 0)
(3 -1.81283e-17 0)
(3 3.5401e-16 0)
(3 3.00909e-16 0)
(3 3.00679e-16 0)
(3 4.93672e-16 0)
(3 6.21449e-16 0)
(3 3.68659e-16 0)
(3 -5.47126e-16 0)
(3 -1.30914e-15 0)
(3 -1.81847e-15 0)
(3 -1.64364e-15 0)
(3 -1.43145e-15 0)
(3 -9.23439e-16 0)
(3 -6.23663e-16 0)
(3 -1.17497e-16 0)
(3 -2.93648e-16 0)
(3 -9.4188e-16 0)
(3 -6.9016e-16 0)
(3 -5.7227e-16 0)
(3 -1.20291e-16 0)
(3 -2.85335e-16 0)
(3.00001 9.73263e-06 0)
(1.30908 0.170421 0)
(0.702349 0.134526 0)
(0.662524 0.169262 0)
(0.636463 0.200785 0)
(0.61667 0.2149 0)
(0.603692 0.211038 0)
(0.601786 0.199314 0)
(0.595195 0.186739 0)
(0.581 0.182071 0)
(0.556791 0.188064 0)
(0.531242 0.199732 0)
(0.50807 0.205422 0)
(0.489163 0.203417 0)
(0.472062 0.200363 0)
(0.456214 0.201056 0)
(0.444489 0.203987 0)
(0.433294 0.205314 0)
(0.419938 0.204264 0)
(0.404139 0.205535 0)
(0.381242 0.207932 0)
(0.357767 0.209921 0)
(0.337039 0.214605 0)
(0.313617 0.217756 0)
(0.290906 0.219791 0)
(0.264881 0.221561 0)
(0.239576 0.223887 0)
(0.217898 0.226633 0)
(0.201886 0.230013 0)
(0.19161 0.233586 0)
(0.184103 0.235957 0)
(0.175003 0.238064 0)
(0.161056 0.240673 0)
(0.139602 0.244206 0)
(0.111832 0.248074 0)
(0.0821585 0.252877 0)
(0.0553309 0.255202 0)
(0.0291391 0.257346 0)
(0.0105422 0.26304 0)
(3 -5.72315e-17 0)
(3 -2.04885e-16 0)
(3 -1.85027e-16 0)
(3 -2.79395e-16 0)
(3 -3.73121e-16 0)
(3 -3.35245e-16 0)
(3 -2.00567e-16 0)
(3 -2.17824e-16 0)
(3 -4.48912e-17 0)
(3 9.86187e-17 0)
(3 2.59803e-16 0)
(3 1.64914e-16 0)
(3 1.06316e-16 0)
(3 3.52379e-16 0)
(3 7.57375e-16 0)
(3 1.07964e-15 0)
(3 -2.12682e-16 0)
(3 -5.07189e-16 0)
(3 -9.2076e-16 0)
(3 -1.32296e-15 0)
(3 -2.05606e-15 0)
(3 -2.47319e-15 0)
(3 -2.10904e-15 0)
(3 -1.1967e-15 0)
(3 -8.89068e-16 0)
(3 -6.49397e-16 0)
(3 -1.20205e-15 0)
(3 -7.04815e-16 0)
(3 -1.2301e-16 0)
(3 2.54575e-16 0)
(3 -7.35049e-16 0)
(3 -7.29747e-16 0)
(3 -8.01755e-16 0)
(3 -1.67133e-15 0)
(3 -1.91627e-15 0)
(3 -1.65585e-15 0)
(3 -1.11207e-15 0)
(3 -5.25836e-16 0)
(3 -5.35541e-16 0)
(3 -9.03687e-16 0)
(3 -9.37359e-16 0)
(3 -5.66564e-16 0)
(3 -2.55793e-16 0)
(3 2.30397e-16 0)
(3 -7.73299e-18 0)
(3 3.39731e-16 0)
(3 1.58817e-16 0)
(3 -4.60838e-17 0)
(3 4.01332e-16 0)
(3 1.33464e-15 0)
(3 1.69233e-15 0)
(3 1.15898e-15 0)
(3 9.36373e-16 0)
(3 1.28788e-15 0)
(3 6.42357e-16 0)
(3 6.54999e-16 0)
(3 -4.61222e-16 0)
(3 1.35992e-08 0)
(1.62564 0.19211 0)
(0.728625 0.180372 0)
(0.65648 0.227224 0)
(0.629082 0.24456 0)
(0.61729 0.239619 0)
(0.613319 0.227188 0)
(0.615608 0.213077 0)
(0.607451 0.206802 0)
(0.594146 0.210822 0)
(0.569349 0.224738 0)
(0.540267 0.238472 0)
(0.51501 0.239979 0)
(0.496524 0.234681 0)
(0.479938 0.231071 0)
(0.4642 0.232464 0)
(0.451744 0.236164 0)
(0.440179 0.238473 0)
(0.426957 0.238768 0)
(0.412169 0.240139 0)
(0.390561 0.243465 0)
(0.368091 0.245549 0)
(0.347912 0.249822 0)
(0.32472 0.252914 0)
(0.301574 0.255071 0)
(0.275583 0.258383 0)
(0.251775 0.262415 0)
(0.231513 0.267105 0)
(0.216172 0.271573 0)
(0.20444 0.275967 0)
(0.194653 0.279025 0)
(0.183371 0.281592 0)
(0.167924 0.284303 0)
(0.145902 0.287743 0)
(0.118142 0.291686 0)
(0.0887369 0.296559 0)
(0.0620527 0.299121 0)
(0.0343571 0.301172 0)
(0.0118578 0.309015 0)
(3 6.17565e-17 0)
(3 2.6304e-16 0)
(3 2.41183e-16 0)
(3 1.21791e-16 0)
(3 3.19624e-16 0)
(3 4.55118e-16 0)
(3 2.11769e-16 0)
(3 -2.66752e-16 0)
(3 -1.83986e-16 0)
(3 -1.8855e-16 0)
(3 -2.74665e-16 0)
(3 -6.2283e-17 0)
(3 1.30902e-16 0)
(3 4.01143e-16 0)
(3 4.09104e-16 0)
(3 1.09565e-16 0)
(3 6.10671e-16 0)
(3 7.58052e-16 0)
(3 2.65769e-16 0)
(3 -2.55651e-16 0)
(3 -6.78965e-16 0)
(3 -4.98476e-16 0)
(3 3.11529e-16 0)
(3 5.14892e-16 0)
(3 -8.41198e-17 0)
(3 -1.54301e-15 0)
(3 -1.5934e-15 0)
(3 -1.42136e-15 0)
(3 -1.35011e-15 0)
(3 -1.63831e-15 0)
(3 -2.19337e-15 0)
(3 -2.08799e-15 0)
(3 -8.55217e-16 0)
(3 -4.60299e-16 0)
(3 3.29153e-16 0)
(3 1.89575e-16 0)
(3 5.70941e-17 0)
(3 2.12637e-16 0)
(3 3.20442e-16 0)
(3 -1.38984e-16 0)
(3 3.35603e-17 0)
(3 1.12162e-16 0)
(3 -9.2008e-17 0)
(3 4.82107e-16 0)
(3 1.06575e-15 0)
(3 1.31111e-15 0)
(3 2.07131e-15 0)
(3 1.73072e-15 0)
(3 1.28623e-15 0)
(3 2.14857e-15 0)
(3 2.58299e-15 0)
(3 2.40201e-15 0)
(3 2.33625e-15 0)
(3 1.54777e-15 0)
(3 6.87923e-16 0)
(3 -1.17801e-15 0)
(3 -1.4094e-15 0)
(3 1.50266e-11 0)
(2.03994 0.224232 0)
(0.781474 0.25873 0)
(0.657933 0.276957 0)
(0.642746 0.26583 0)
(0.635625 0.250527 0)
(0.635036 0.236409 0)
(0.631808 0.230651 0)
(0.62307 0.234748 0)
(0.605897 0.248624 0)
(0.578815 0.266789 0)
(0.547643 0.275479 0)
(0.522932 0.271029 0)
(0.504414 0.264609 0)
(0.488876 0.262535 0)
(0.474119 0.265914 0)
(0.461782 0.270237 0)
(0.450767 0.272998 0)
(0.437348 0.275117 0)
(0.422943 0.27659 0)
(0.401635 0.281166 0)
(0.378905 0.283898 0)
(0.357985 0.287424 0)
(0.335914 0.290551 0)
(0.312917 0.293328 0)
(0.288613 0.29842 0)
(0.265921 0.304165 0)
(0.246277 0.311029 0)
(0.2295 0.316985 0)
(0.215164 0.322438 0)
(0.201968 0.326266 0)
(0.188157 0.329285 0)
(0.171383 0.332465 0)
(0.14954 0.336247 0)
(0.123157 0.340705 0)
(0.0952383 0.346204 0)
(0.0691361 0.348932 0)
(0.0406634 0.35066 0)
(0.0137897 0.359274 0)
(3 -6.60558e-17 0)
(3 4.58873e-17 0)
(3 -2.81132e-16 0)
(3 -2.46968e-16 0)
(3 -2.70848e-16 0)
(3 -6.39343e-18 0)
(3 4.96223e-16 0)
(3 7.78316e-16 0)
(3 8.04792e-16 0)
(3 4.23605e-16 0)
(3 2.84536e-16 0)
(3 6.88117e-16 0)
(3 1.27177e-15 0)
(3 1.05945e-15 0)
(3 8.47295e-17 0)
(3 -3.13634e-16 0)
(3 4.10747e-16 0)
(3 5.16527e-16 0)
(3 4.82348e-16 0)
(3 3.92179e-16 0)
(3 7.42352e-16 0)
(3 1.09188e-15 0)
(3 1.25218e-15 0)
(3 1.37488e-15 0)
(3 3.88041e-16 0)
(3 1.97064e-16 0)
(3 6.55724e-16 0)
(3 4.24671e-16 0)
(3 -9.23918e-17 0)
(3 -5.73155e-16 0)
(3 -4.90512e-16 0)
(3 1.32354e-17 0)
(3 7.55445e-16 0)
(3 1.0069e-15 0)
(3 1.0321e-15 0)
(3 8.61069e-16 0)
(3 3.78343e-18 0)
(3 -1.63879e-16 0)
(3 1.32989e-16 0)
(3 2.51037e-16 0)
(3 6.60812e-16 0)
(3 5.30005e-16 0)
(3 -6.1824e-16 0)
(3 -6.83795e-16 0)
(3 -5.85805e-16 0)
(3 -4.10539e-16 0)
(3 6.37342e-16 0)
(3 1.26853e-15 0)
(3 2.14985e-15 0)
(3 2.61146e-15 0)
(3 2.39249e-15 0)
(3 1.19941e-15 0)
(3 4.25715e-16 0)
(3 -1.45067e-16 0)
(3 -4.4836e-16 0)
(3 -2.65717e-16 0)
(3 1.57117e-16 0)
(3 1.87791e-14 0)
(2.66071 0.189185 0)
(0.915669 0.323626 0)
(0.689972 0.299724 0)
(0.674724 0.27702 0)
(0.663734 0.268499 0)
(0.65544 0.266004 0)
(0.645449 0.270158 0)
(0.632535 0.281676 0)
(0.613538 0.295657 0)
(0.590584 0.304755 0)
(0.564039 0.303806 0)
(0.539597 0.297172 0)
(0.518472 0.294046 0)
(0.5007 0.296736 0)
(0.486544 0.303447 0)
(0.473468 0.308292 0)
(0.464005 0.309766 0)
(0.45244 0.312005 0)
(0.436323 0.314287 0)
(0.416404 0.319523 0)
(0.392377 0.324099 0)
(0.369819 0.32784 0)
(0.348987 0.332038 0)
(0.32761 0.336204 0)
(0.306012 0.342346 0)
(0.285106 0.349311 0)
(0.26625 0.357391 0)
(0.248137 0.36468 0)
(0.231058 0.371059 0)
(0.214292 0.375961 0)
(0.197824 0.380066 0)
(0.179848 0.384751 0)
(0.158555 0.389902 0)
(0.133746 0.395699 0)
(0.106692 0.40226 0)
(0.0793172 0.405329 0)
(0.0486561 0.407527 0)
(0.0170429 0.415412 0)
(3 -5.83945e-17 0)
(3 -1.84406e-16 0)
(3 -7.52535e-17 0)
(3 1.45156e-16 0)
(3 -2.20205e-16 0)
(3 -3.81491e-17 0)
(3 7.82559e-16 0)
(3 1.19492e-15 0)
(3 1.23547e-15 0)
(3 1.21217e-15 0)
(3 1.20195e-15 0)
(3 7.92215e-16 0)
(3 6.86436e-16 0)
(3 8.05027e-17 0)
(3 -2.80285e-16 0)
(3 -2.86288e-16 0)
(3 -8.99364e-16 0)
(3 -1.0379e-15 0)
(3 -8.2863e-16 0)
(3 2.12997e-16 0)
(3 1.54626e-15 0)
(3 1.72006e-15 0)
(3 1.17833e-15 0)
(3 7.63307e-16 0)
(3 4.12323e-16 0)
(3 4.30742e-16 0)
(3 5.10578e-16 0)
(3 4.97503e-16 0)
(3 8.08443e-16 0)
(3 9.05469e-16 0)
(3 5.90971e-16 0)
(3 2.22982e-16 0)
(3 5.33396e-16 0)
(3 9.05063e-16 0)
(3 8.83527e-16 0)
(3 4.09754e-18 0)
(3 -8.00662e-16 0)
(3 -8.81834e-16 0)
(3 -3.50779e-16 0)
(3 6.61584e-16 0)
(3 7.50481e-16 0)
(3 5.41808e-16 0)
(3 5.57474e-16 0)
(3 4.87407e-16 0)
(3 3.39645e-16 0)
(3 1.84965e-16 0)
(3 8.2439e-17 0)
(3 4.45716e-16 0)
(3 1.28617e-15 0)
(3 1.17651e-15 0)
(3 7.33007e-16 0)
(3 -2.87071e-17 0)
(3 -7.71065e-16 0)
(3 -4.45738e-16 0)
(3 -3.22861e-16 0)
(3 8.97765e-16 0)
(3 1.6292e-15 0)
(3 1.36632e-15 0)
(3.01825 0.0110629 0)
(1.20724 0.36306 0)
(0.728609 0.327027 0)
(0.694561 0.305174 0)
(0.670912 0.304299 0)
(0.655191 0.311769 0)
(0.645527 0.324152 0)
(0.637157 0.334628 0)
(0.626854 0.336255 0)
(0.61377 0.329634 0)
(0.591096 0.324801 0)
(0.564625 0.324425 0)
(0.538989 0.328928 0)
(0.516624 0.337765 0)
(0.499846 0.34605 0)
(0.488057 0.34927 0)
(0.480085 0.347787 0)
(0.471133 0.348415 0)
(0.456014 0.352066 0)
(0.435247 0.358198 0)
(0.411896 0.365205 0)
(0.387708 0.371109 0)
(0.366339 0.377979 0)
(0.345978 0.384653 0)
(0.32627 0.391452 0)
(0.307307 0.399071 0)
(0.288251 0.407216 0)
(0.269472 0.415617 0)
(0.248765 0.423734 0)
(0.227321 0.430593 0)
(0.207142 0.436928 0)
(0.18756 0.44421 0)
(0.166742 0.452126 0)
(0.143595 0.460256 0)
(0.117312 0.468374 0)
(0.0878166 0.472108 0)
(0.0545259 0.474936 0)
(0.0204671 0.480961 0)
(3 8.41296e-17 0)
(3 6.14704e-18 0)
(3 2.40305e-16 0)
(3 2.65537e-16 0)
(3 3.95952e-16 0)
(3 3.97522e-16 0)
(3 2.60087e-16 0)
(3 6.37709e-16 0)
(3 6.26684e-16 0)
(3 6.80352e-16 0)
(3 2.1042e-16 0)
(3 -4.94954e-16 0)
(3 -1.22688e-15 0)
(3 -1.14303e-15 0)
(3 -8.38048e-16 0)
(3 -5.41834e-16 0)
(3 -5.0544e-16 0)
(3 -4.21029e-16 0)
(3 3.03951e-16 0)
(3 5.60775e-16 0)
(3 2.90279e-16 0)
(3 4.02012e-16 0)
(3 2.7623e-16 0)
(3 2.52463e-16 0)
(3 3.71028e-16 0)
(3 1.95769e-16 0)
(3 1.22589e-16 0)
(3 3.03622e-16 0)
(3 4.63549e-16 0)
(3 6.90344e-16 0)
(3 2.42848e-16 0)
(3 1.64449e-16 0)
(3 5.93985e-16 0)
(3 1.29285e-15 0)
(3 1.70105e-15 0)
(3 1.4257e-15 0)
(3 -2.78995e-17 0)
(3 -5.6131e-18 0)
(3 4.74476e-16 0)
(3 1.04805e-15 0)
(3 1.27152e-15 0)
(3 1.55102e-15 0)
(3 1.90258e-15 0)
(3 2.2338e-15 0)
(3 2.25827e-15 0)
(3 2.2246e-15 0)
(3 1.82804e-15 0)
(3 1.62709e-15 0)
(3 1.46316e-15 0)
(3 1.1208e-15 0)
(3 5.71548e-16 0)
(3 2.00397e-16 0)
(3 6.33381e-16 0)
(3 1.19144e-15 0)
(3 1.77802e-15 0)
(3 1.72298e-15 0)
(3 1.24795e-15 0)
(3 4.17357e-16 0)
(3.0002 1.99498e-05 0)
(1.87998 0.390441 0)
(0.77521 0.388609 0)
(0.706225 0.347085 0)
(0.689149 0.341359 0)
(0.675954 0.34741 0)
(0.669657 0.358348 0)
(0.66289 0.363623 0)
(0.655271 0.361178 0)
(0.641304 0.357686 0)
(0.618005 0.357038 0)
(0.588558 0.363676 0)
(0.558778 0.373339 0)
(0.534333 0.383997 0)
(0.517582 0.389296 0)
(0.508347 0.388356 0)
(0.50002 0.38685 0)
(0.492494 0.387196 0)
(0.478862 0.39246 0)
(0.459139 0.40008 0)
(0.437747 0.408942 0)
(0.414641 0.417199 0)
(0.392756 0.42666 0)
(0.371909 0.436301 0)
(0.351936 0.444703 0)
(0.333483 0.453191 0)
(0.31555 0.461556 0)
(0.297361 0.4706 0)
(0.275976 0.48048 0)
(0.252214 0.489449 0)
(0.22975 0.498542 0)
(0.209095 0.50901 0)
(0.188373 0.52071 0)
(0.165413 0.533075 0)
(0.137519 0.545343 0)
(0.102384 0.55256 0)
(0.062715 0.55638 0)
(0.0251486 0.56143 0)
(3 -9.07452e-17 0)
(3 -1.13275e-16 0)
(3 -3.58764e-16 0)
(3 -4.62958e-16 0)
(3 -1.41084e-16 0)
(3 -5.09011e-17 0)
(3 -2.29299e-16 0)
(3 1.97877e-16 0)
(3 -2.26585e-16 0)
(3 -1.33939e-15 0)
(3 -1.64813e-15 0)
(3 -1.83295e-15 0)
(3 -1.7206e-15 0)
(3 -1.1133e-15 0)
(3 -8.40943e-16 0)
(3 -2.29193e-16 0)
(3 1.44806e-16 0)
(3 6.27997e-16 0)
(3 5.51779e-16 0)
(3 1.94491e-16 0)
(3 -1.40403e-16 0)
(3 -2.30735e-16 0)
(3 -2.31259e-16 0)
(3 3.78645e-16 0)
(3 1.46369e-15 0)
(3 1.44111e-15 0)
(3 8.90254e-16 0)
(3 7.248e-16 0)
(3 1.39889e-15 0)
(3 1.58628e-15 0)
(3 1.48388e-15 0)
(3 1.73724e-15 0)
(3 2.09735e-15 0)
(3 2.00233e-15 0)
(3 2.099e-15 0)
(3 1.96071e-15 0)
(3 1.8534e-15 0)
(3 1.92314e-15 0)
(3 1.97243e-15 0)
(3 1.78064e-15 0)
(3 1.58189e-15 0)
(3 1.6943e-15 0)
(3 1.68719e-15 0)
(3 2.57952e-15 0)
(3 2.99009e-15 0)
(3 2.75866e-15 0)
(3 2.44164e-15 0)
(3 2.10768e-15 0)
(3 1.33995e-15 0)
(3 5.58052e-16 0)
(3 5.52171e-17 0)
(3 -2.12066e-16 0)
(3 5.81539e-16 0)
(3 1.30379e-15 0)
(3 1.37395e-15 0)
(3 1.17929e-15 0)
(3 9.69891e-16 0)
(3 3.87143e-16 0)
(3 5.4037e-08 0)
(2.90658 0.111624 0)
(1.02005 0.428688 0)
(0.742556 0.361615 0)
(0.730931 0.366678 0)
(0.714878 0.378467 0)
(0.702526 0.39478 0)
(0.689269 0.403043 0)
(0.676837 0.40196 0)
(0.660714 0.400799 0)
(0.640124 0.40034 0)
(0.615536 0.406911 0)
(0.588495 0.415545 0)
(0.565907 0.422644 0)
(0.548979 0.425377 0)
(0.536945 0.426532 0)
(0.526879 0.429101 0)
(0.516241 0.433164 0)
(0.503681 0.439496 0)
(0.488002 0.447211 0)
(0.47092 0.456112 0)
(0.45272 0.465084 0)
(0.43122 0.475896 0)
(0.408575 0.488552 0)
(0.386166 0.499838 0)
(0.365509 0.510473 0)
(0.347429 0.520671 0)
(0.329416 0.53127 0)
(0.307991 0.543875 0)
(0.281788 0.556524 0)
(0.255152 0.570459 0)
(0.230257 0.586481 0)
(0.206519 0.605122 0)
(0.181488 0.625693 0)
(0.152209 0.645978 0)
(0.114646 0.658766 0)
(0.0706156 0.663186 0)
(0.0278522 0.668064 0)
(3 1.72092e-17 0)
(3 -9.85382e-17 0)
(3 -3.0764e-16 0)
(3 -4.45127e-16 0)
(3 -7.3257e-16 0)
(3 -1.0087e-15 0)
(3 -1.18632e-15 0)
(3 -1.15696e-15 0)
(3 -9.69351e-16 0)
(3 -8.30201e-16 0)
(3 -7.55601e-16 0)
(3 -9.42503e-16 0)
(3 -9.95794e-16 0)
(3 -1.3434e-15 0)
(3 -1.30838e-15 0)
(3 -6.97949e-16 0)
(3 -1.60438e-16 0)
(3 3.6275e-16 0)
(3 3.26304e-16 0)
(3 1.40026e-16 0)
(3 3.62551e-16 0)
(3 2.57392e-16 0)
(3 3.44105e-17 0)
(3 -6.35309e-17 0)
(3 -1.09381e-16 0)
(3 1.26588e-17 0)
(3 -1.61306e-16 0)
(3 -4.16488e-16 0)
(3 3.49077e-16 0)
(3 1.32884e-15 0)
(3 1.76464e-15 0)
(3 2.09316e-15 0)
(3 2.21429e-15 0)
(3 2.18541e-15 0)
(3 1.9032e-15 0)
(3 1.68225e-15 0)
(3 2.01769e-15 0)
(3 2.15312e-15 0)
(3 2.00411e-15 0)
(3 2.09296e-15 0)
(3 2.25426e-15 0)
(3 2.10312e-15 0)
(3 2.18523e-15 0)
(3 2.04146e-15 0)
(3 1.78241e-15 0)
(3 2.07554e-15 0)
(3 1.7209e-15 0)
(3 1.51189e-15 0)
(3 8.03333e-16 0)
(3 5.35501e-16 0)
(3 7.05583e-16 0)
(3 8.72026e-16 0)
(3 1.25247e-15 0)
(3 1.53656e-15 0)
(3 2.01638e-15 0)
(3 2.3049e-15 0)
(3 1.97054e-15 0)
(3 1.88167e-15 0)
(3 7.52187e-11 0)
(3.00432 0.00161377 0)
(1.71186 0.43379 0)
(0.784347 0.397383 0)
(0.732692 0.416901 0)
(0.719239 0.439596 0)
(0.704402 0.451175 0)
(0.693724 0.451563 0)
(0.690378 0.44435 0)
(0.684582 0.435723 0)
(0.671611 0.432589 0)
(0.653819 0.437216 0)
(0.63014 0.448275 0)
(0.606743 0.458844 0)
(0.586553 0.466487 0)
(0.569493 0.472377 0)
(0.554631 0.479232 0)
(0.541714 0.486216 0)
(0.53118 0.492306 0)
(0.522211 0.496912 0)
(0.513259 0.504572 0)
(0.499884 0.514558 0)
(0.480318 0.52668 0)
(0.456458 0.542106 0)
(0.43089 0.557023 0)
(0.408157 0.570481 0)
(0.39004 0.583859 0)
(0.373693 0.597747 0)
(0.354854 0.614336 0)
(0.330833 0.632292 0)
(0.305268 0.652545 0)
(0.281244 0.674782 0)
(0.259869 0.699618 0)
(0.238036 0.724859 0)
(0.212187 0.749787 0)
(0.171526 0.776999 0)
(0.114701 0.803229 0)
(0.0479987 0.825356 0)
(3 1.43023e-16 0)
(3 2.66223e-16 0)
(3 5.47964e-16 0)
(3 5.67829e-16 0)
(3 3.0439e-16 0)
(3 -3.91287e-16 0)
(3 -6.98315e-16 0)
(3 -7.37049e-16 0)
(3 -4.96954e-16 0)
(3 -1.98811e-16 0)
(3 2.50643e-16 0)
(3 7.10788e-16 0)
(3 6.30249e-16 0)
(3 1.51541e-17 0)
(3 -3.22853e-16 0)
(3 -2.31371e-16 0)
(3 1.17147e-16 0)
(3 7.55568e-17 0)
(3 -2.00678e-16 0)
(3 -3.2145e-18 0)
(3 2.98657e-16 0)
(3 3.80333e-16 0)
(3 2.66411e-18 0)
(3 -5.67247e-17 0)
(3 -2.56664e-16 0)
(3 -2.5024e-16 0)
(3 -2.33115e-16 0)
(3 2.98995e-16 0)
(3 5.42719e-16 0)
(3 9.26654e-16 0)
(3 1.12058e-15 0)
(3 1.124e-15 0)
(3 1.30806e-15 0)
(3 1.67592e-15 0)
(3 1.68095e-15 0)
(3 1.85668e-15 0)
(3 2.09327e-15 0)
(3 2.17988e-15 0)
(3 2.14597e-15 0)
(3 2.56427e-15 0)
(3 2.66611e-15 0)
(3 2.36792e-15 0)
(3 1.85142e-15 0)