/*--------------------------------*- C++ -*----------------------------------*\
  =========                 |
  \\      /  F ield         | OpenFOAM: The Open Source CFD Toolbox
   \\    /   O peration     | Website:  https://openfoam.org
    \\  /    A nd           | Version:  7
     \\/     M anipulation  |
\*---------------------------------------------------------------------------*/
FoamFile
{
    version     2.0;
    format      ascii;
    class       volScalarField;
    location    "2.61";
    object      T;
}
// * * * * * * * * * * * * * * * * * * * * * * * * * * * * * * * * * * * * * //

dimensions      [0 0 0 1 0 0 0];

internalField   nonuniform List<scalar> 
1000
(
0
0
0
0
0
0
0
0
0
0
0
0
0
0
0
0
0
0
0
0
0
0
0
0
0
0
0
0
0
0
0
0
0
0
0
0
0
0
0
0
0
0
0
0
0
0
0
0
0
0
0
0
0
0
0
0
0
0
0
0
0
0
0
0
0
0
0
0
0
0
0
0
0
0
0
0
0
0
0
0
0
0
0
0
0
0
0
0
0
0
0
0
0
0
0
0
0
0
0
0
0
0
0
0
0
0
0
0
0
0
0
0
0
0
0
0
0
0
0
0
0
0
0
0
0
0
0
0
0
0
0
0
0
0
0
0
0
0
0
0
0
0
0
0
0
0
0
0
0
0
0
0
0
0
0
0
0
0
0
0
0
0
0
0
0
0
0
0
0
0
0
0
0
0
0
0
0
0
0
0
0
0
0
0
0
0
0
0
0
-2.15623e-282
4.87523e-279
-5.48813e-276
4.1012e-273
-2.28876e-270
1.01745e-267
-3.75289e-265
1.18137e-262
-3.23982e-260
7.86318e-258
-1.71003e-255
3.36586e-253
-6.04597e-251
9.98005e-249
-1.52287e-246
2.15908e-244
-2.85676e-242
3.54135e-240
-4.12714e-238
4.53573e-236
-4.71364e-234
4.64358e-232
-4.34624e-230
3.87281e-228
-3.29154e-226
2.67288e-224
-2.07705e-222
1.54682e-220
-1.10544e-218
7.5907e-217
-5.01397e-215
3.18939e-213
-1.95568e-211
1.15709e-209
-6.6115e-208
3.65141e-206
-1.9507e-204
1.00882e-202
-5.05399e-201
2.45437e-199
-1.15612e-197
5.28541e-196
-2.34648e-194
1.01215e-192
-4.24415e-191
1.73084e-189
-6.86831e-188
2.65312e-186
-9.98067e-185
3.65791e-183
-1.3066e-181
4.55037e-180
-1.5456e-178
5.12198e-177
-1.65656e-175
5.23046e-174
-1.61273e-172
4.85727e-171
-1.42939e-169
4.11102e-168
-1.15583e-166
3.17751e-165
-8.54333e-164
2.24704e-162
-5.78264e-161
1.45633e-159
-3.59004e-158
8.66406e-157
-2.0474e-155
4.73825e-154
-1.07408e-152
2.38521e-151
-5.18982e-150
1.10656e-148
-2.31237e-147
4.73644e-146
-9.51074e-145
1.87239e-143
-3.61449e-142
6.84247e-141
-1.2704e-139
2.3135e-138
-4.13277e-137
7.24259e-136
-1.24527e-134
2.1008e-133
-3.47767e-132
5.64943e-131
-9.00662e-130
1.40924e-128
-2.16422e-127
3.26233e-126
-4.82713e-125
7.01135e-124
-9.99729e-123
1.39941e-121
-1.92311e-120
2.5946e-119
-3.43677e-118
4.46945e-117
-5.70669e-116
7.15395e-115
-8.8052e-114
1.06406e-112
-1.26246e-111
1.4706e-110
-1.68187e-109
1.8884e-108
-2.08159e-107
2.25258e-106
-2.39295e-105
2.49539e-104
-2.55431e-103
2.56635e-102
-2.5307e-101
2.44917e-100
-2.32606e-99
2.16776e-98
-1.98223e-97
1.77832e-96
-1.56508e-95
1.35109e-94
-1.14394e-93
9.49814e-93
-7.73273e-92
6.17194e-91
-4.82878e-90
3.7026e-89
-2.78197e-88
2.0478e-87
-1.47646e-86
1.04246e-85
-7.20598e-85
4.8754e-84
-3.22766e-83
2.09023e-82
-1.32369e-81
8.19422e-81
-4.95667e-80
2.92852e-79
-1.6892e-78
9.50755e-78
-5.21874e-77
2.79192e-76
-1.45473e-75
7.37679e-75
-3.63732e-74
1.7422e-73
-8.09704e-73
3.64674e-72
-1.58917e-71
6.68878e-71
-2.71325e-70
1.0579e-69
-3.9514e-69
1.40774e-68
-4.7556e-68
1.51065e-67
-4.45511e-67
1.1938e-66
-2.78564e-66
5.06737e-66
-3.95307e-66
-2.03588e-65
1.34574e-64
-5.09303e-64
1.43986e-63
-2.97718e-63
3.00531e-63
8.74569e-63
-6.27474e-62
2.16389e-61
-4.88745e-61
5.23942e-61
1.34402e-60
-9.43677e-60
2.91642e-59
-5.05002e-59
-6.12298e-60
3.78802e-58
-1.40754e-57
2.67066e-57
-1.97298e-58
-1.74591e-56
6.33644e-56
-1.03966e-55
-6.54515e-56
9.04807e-55
-2.54807e-54
2.34696e-54
8.98303e-54
-4.28242e-53
7.30963e-53
5.18527e-53
-6.07172e-52
1.41139e-51
-2.12382e-52
-8.02422e-51
2.27562e-50
-1.13936e-50
-1.06419e-49
3.33799e-49
-1.9236e-49
-1.48413e-48
4.57932e-48
-1.93337e-48
-2.17699e-47
5.8251e-47
-1.40374e-48
-3.21459e-46
6.55788e-46
4.7553e-46
-4.4812e-45
5.77485e-45
1.3584e-44
-5.47049e-44
2.1869e-44
2.50824e-43
-5.19243e-43
-4.83924e-43
3.40317e-42
-2.54441e-42
-1.36047e-41
3.15653e-41
2.58081e-41
-1.89703e-40
1.0884e-40
7.96541e-40
-1.44741e-39
-2.23082e-39
9.30375e-39
1.07741e-39
-4.49459e-38
3.71054e-38
1.75854e-37
-3.21571e-37
-5.45562e-37
1.88589e-36
1.09116e-36
-9.2277e-36
1.12579e-36
4.02166e-35
-2.7896e-35
-1.61033e-34
2.0043e-34
6.03706e-34
-1.10957e-33
-2.15049e-33
5.42117e-33
7.39114e-33
-2.45728e-32
-2.50126e-32
1.0594e-31
8.57927e-32
-4.40568e-31
-3.09268e-31
1.78107e-30
1.20832e-30
-7.02067e-30
-5.14674e-30
2.6951e-29
2.33444e-29
-1.0019e-28
-1.08742e-28
3.56726e-28
5.03822e-28
-1.19313e-27
-2.26937e-27
3.61505e-27
9.77768e-27
-9.11734e-27
-3.97412e-26
1.36877e-26
1.49987e-25
3.33303e-26
-5.13402e-25
-4.30917e-25
1.52509e-24
2.52619e-24
-3.51397e-24
-1.12725e-23
3.45243e-24
4.1098e-23
2.20271e-23
-1.19514e-22
-1.78634e-22
2.35152e-22
8.10356e-22
9.12726e-24
-2.63749e-21
-2.72248e-21
5.65907e-21
1.48326e-20
-1.68071e-21
-4.89754e-20
-5.14682e-20
9.26322e-20
2.73009e-19
5.10973e-20
-7.77872e-19
-1.1629e-18
8.4003e-19
4.66162e-18
3.85871e-18
-8.6096e-18
-2.37878e-17
-8.88376e-18
5.72389e-17
1.12e-16
3.32131e-18
-3.20964e-16
-5.15253e-16
1.00702e-16
1.64148e-15
2.41999e-15
-6.11572e-16
-7.87848e-15
-1.18482e-14
1.36645e-15
3.54332e-14
5.97761e-14
1.08293e-14
-1.44338e-13
-2.98764e-13
-1.70926e-13
4.83489e-13
1.39668e-12
1.43388e-12
-8.996e-13
-5.62423e-12
-9.004e-12
-3.57087e-12
1.63174e-11
4.35177e-11
4.94136e-11
-7.65495e-12
-1.4466e-10
-2.95777e-10
-2.79301e-10
1.37171e-10
1.02201e-09
1.96876e-09
1.91363e-09
-5.58347e-10
-6.12806e-09
-1.30197e-08
-1.55618e-08
-4.75494e-09
2.72732e-08
7.82942e-08
1.24933e-07
1.16342e-07
-1.69432e-08
-3.28585e-07
-7.93396e-07
-1.22875e-06
-1.23683e-06
-2.27473e-07
2.40751e-06
6.91309e-06
1.25828e-05
1.70636e-05
1.57905e-05
1.93536e-06
-3.26229e-05
-9.47531e-05
-0.000185465
-0.00029297
-0.000383477
-0.000390279
-0.00020214
0.000347536
0.00148899
0.00352003
0.00680404
0.0117609
0.0188507
0.0285502
0.0413248
0.0575961
0.0777103
0.101908
0.130302
0.162857
0.199385
0.23955
0.282878
0.328779
0.376575
0.425533
0.474901
0.523938
0.571948
0.618303
0.662463
0.703993
0.742563
0.777954
0.81005
0.838828
0.864348
0.886739
0.90618
0.922891
0.937113
0.949102
0.959114
0.9674
0.974196
0.979722
0.984177
0.987739
0.990565
0.992788
0.994524
0.99587
0.996904
0.997695
0.998294
0.998745
0.999083
0.999333
0.999518
0.999654
0.999753
0.999824
0.999876
0.999913
0.999939
0.999958
0.999971
0.99998
0.999986
0.999991
0.999994
0.999996
0.999997
0.999998
0.999999
0.999999
0.999999
1
1
1
1
1
1
1
1
1
1
1
1
1
1
1
1
1
0.999998
0.999993
0.999987
0.999983
0.999984
0.999998
1.00003
1.00009
1.00019
1.00029
1.00038
1.00039
1.0002
0.999652
0.998511
0.99648
0.993196
0.988239
0.981149
0.97145
0.958675
0.942404
0.92229
0.898092
0.869698
0.837143
0.800615
0.76045
0.717122
0.671221
0.623425
0.574467
0.525099
0.476062
0.428052
0.381697
0.337537
0.296007
0.257437
0.222046
0.18995
0.161172
0.135652
0.113261
0.0938196
0.0771092
0.0628869
0.0508979
0.0408857
0.0326001
0.0258043
0.0202784
0.0158232
0.0122608
0.00943527
0.00721187
0.00547578
0.00413041
0.00309553
0.00230524
0.00170601
0.0012548
0.000917346
0.00066666
0.000481645
0.000345974
0.00024711
0.000175513
0.000123976
8.70991e-05
6.08657e-05
4.23107e-05
2.92606e-05
2.01329e-05
1.37833e-05
9.38978e-06
6.36572e-06
4.29497e-06
2.8842e-06
1.92785e-06
1.28273e-06
8.49648e-07
5.6029e-07
3.67864e-07
2.40485e-07
1.56546e-07
1.01479e-07
6.55114e-08
4.21201e-08
2.69723e-08
1.7204e-08
1.09306e-08
6.91811e-09
4.36197e-09
2.74e-09
1.71481e-09
1.0693e-09
6.64384e-10
4.11339e-10
2.53782e-10
1.56035e-10
9.56098e-11
5.83878e-11
3.55385e-11
2.15602e-11
1.30377e-11
7.85888e-12
4.72227e-12
2.82871e-12
1.68923e-12
1.0057e-12
5.96963e-13
3.53295e-13
2.08476e-13
1.22664e-13
7.19677e-14
4.21048e-14
2.45648e-14
1.42921e-14
8.29271e-15
4.79873e-15
2.76949e-15
1.59415e-15
9.1523e-16
5.24099e-16
2.99358e-16
1.7056e-16
9.69357e-17
5.49568e-17
3.10816e-17
1.75364e-17
9.87064e-18
5.54278e-18
3.10527e-18
1.73568e-18
9.67947e-19
5.38585e-19
2.99012e-19
1.65639e-19
9.15569e-20
5.04986e-20
2.77932e-20
1.52644e-20
8.36584e-21
4.5755e-21
2.49733e-21
1.36029e-21
7.39455e-22
4.01169e-22
2.17213e-22
1.17381e-22
6.33092e-23
3.40804e-23
1.83113e-23
9.82015e-24
5.25665e-24
2.80866e-24
1.49794e-24
7.97457e-25
4.23781e-25
2.24804e-25
1.19043e-25
6.29282e-26
3.32076e-26
1.74939e-26
9.20028e-27
4.83042e-27
2.5319e-27
1.32492e-27
6.92191e-28
3.61041e-28
1.88014e-28
9.77533e-29
5.07443e-29
2.63005e-29
1.36103e-29
7.03237e-30
3.62806e-30
1.86892e-30
9.61295e-31
4.93715e-31
2.53196e-31
1.29659e-31
6.63005e-32
3.38539e-32
1.72616e-32
8.78898e-33
4.46877e-33
2.26899e-33
1.15048e-33
5.82545e-34
2.94572e-34
1.48754e-34
7.50178e-35
3.7782e-35
1.90035e-35
9.5459e-36
4.78891e-36
2.39938e-36
1.20063e-36
6.00022e-37
2.99489e-37
1.49298e-37
7.43344e-38
3.69652e-38
1.83598e-38
9.10785e-39
4.51278e-39
2.23334e-39
1.10396e-39
5.45054e-40
2.68795e-40
1.32404e-40
6.51453e-41
3.20161e-41
1.57168e-41
7.70675e-42
3.7748e-42
1.84687e-42
9.02609e-43
4.40646e-43
2.14886e-43
1.04679e-43
5.09387e-44
2.47613e-44
1.20238e-44
5.83252e-45
2.8263e-45
1.36814e-45
6.61606e-46
3.19613e-46
1.54245e-46
7.43636e-47
3.58159e-47
1.7233e-47
8.28358e-48
3.97787e-48
1.90836e-48
9.1464e-49
4.37949e-49
2.095e-49
1.00122e-49
4.78047e-50
2.28036e-50
1.08676e-50
5.17443e-51
2.46146e-51
1.16984e-51
5.5548e-52
2.63523e-52
1.24905e-52
5.91503e-53
2.79865e-53
1.323e-53
6.24874e-54
2.94882e-54
1.39037e-54
6.54996e-55
3.08303e-55
1.44994e-55
6.8133e-56
3.19891e-56
1.50067e-56
7.0341e-57
3.2944e-57
1.54166e-57
7.20859e-58
3.36791e-58
1.57226e-58
7.33397e-59
3.41831e-59
1.59199e-59
7.4085e-60
3.44494e-60
1.60065e-60
7.4315e-61
3.44766e-61
1.59824e-61
7.40338e-62
3.42682e-62
1.585e-62
7.32557e-63
3.38324e-63
1.56137e-63
7.20046e-64
3.31817e-64
1.528e-64
7.03127e-65
3.23321e-65
1.48568e-65
6.82196e-66
3.13031e-66
1.43536e-66
6.57705e-67
3.01163e-67
1.37807e-67
6.30152e-68
2.87953e-68
1.31493e-68
6.00058e-69
2.73647e-69
1.24709e-69
5.6796e-70
2.58494e-70
1.1757e-70
5.34391e-71
2.42739e-71
1.10189e-71
4.99872e-72
2.26621e-72
1.02675e-72
4.64894e-73
2.10363e-73
9.51288e-74
4.29916e-74
1.94172e-74
8.76433e-75
3.95353e-75
1.78232e-75
8.0301e-76
3.61571e-76
1.62706e-76
7.31736e-77
3.28886e-77
1.47733e-77
6.63214e-78
2.9756e-78
1.33426e-78
5.97933e-79
2.67802e-79
1.19874e-79
5.36272e-80
2.39772e-80
1.07143e-80
4.78501e-81
2.13579e-81
9.52772e-82
4.24794e-82
1.89289e-82
8.4301e-83
3.75233e-83
1.66929e-83
7.42207e-84
3.29824e-84
1.46489e-84
6.50272e-85
2.88504e-85
1.27931e-85
5.66986e-86
2.51154e-86
1.1118e-86
4.93848e-87
1.9062e-87
)
;

boundaryField
{
    sides
    {
        type            zeroGradient;
    }
    empty
    {
        type            empty;
    }
}


// ************************************************************************* //
