/*--------------------------------*- C++ -*----------------------------------*\
  =========                 |
  \\      /  F ield         | OpenFOAM: The Open Source CFD Toolbox
   \\    /   O peration     | Website:  https://openfoam.org
    \\  /    A nd           | Version:  7
     \\/     M anipulation  |
\*---------------------------------------------------------------------------*/
FoamFile
{
    version     2.0;
    format      ascii;
    class       volScalarField;
    location    "21";
    object      p;
}
// * * * * * * * * * * * * * * * * * * * * * * * * * * * * * * * * * * * * * //

dimensions      [0 2 -2 0 0 0 0];

internalField   nonuniform List<scalar> 
16000
(
8.7854038e-06
-0.0001314715
-0.00044294965
-0.00084529619
-0.0012634919
-0.0016521469
-0.0019803888
-0.0022293773
-0.0023884752
-0.0024519783
-0.0024169473
-0.002281925
-0.0020463402
-0.0017104355
-0.0012755694
-0.00074475335
-0.00012330019
0.00058052453
0.0013549475
0.0021843178
0.0030490064
0.0039256485
0.0047877587
0.0056067504
0.0063533089
0.0069990618
0.0075184485
0.0078906603
0.0081014896
0.0081449038
0.0080241665
0.0077523988
0.0073525816
0.0068571097
0.006306808
0.0057492209
0.0052394616
0.0048338725
0.0045941133
0.0045554376
0.00015341877
8.5167047e-06
-0.0002415593
-0.00055042815
-0.00087261033
-0.0011737975
-0.001429745
-0.0016242729
-0.0017470207
-0.001791546
-0.0017539093
-0.0016317483
-0.0014238091
-0.0011298583
-0.00075088536
-0.00028949584
0.00024959805
0.00085908262
0.001528624
0.0022445926
0.0029899924
0.0037447958
0.0044862895
0.0051901118
0.005831412
0.0063863044
0.0068334777
0.0071558307
0.0073420094
0.0073877087
0.0072965954
0.007080719
0.006760339
0.0063632187
0.0059235047
0.0054801314
0.0050742634
0.004749423
0.0045508974
0.0045156618
0.00047207568
0.00025419749
-1.6301172e-06
-0.00028066619
-0.00056089803
-0.00081782285
-0.0010336525
-0.0011963293
-0.0012976467
-0.0013320841
-0.0012959226
-0.001186631
-0.0010025708
-0.00074298764
-0.00040822583
-9.9403926e-08
0.00047765482
0.0010189172
0.0016147912
0.0022533454
0.0029195817
0.0035955538
0.0042609019
0.0048936203
0.0054711577
0.0059717806
0.0063760946
0.0066685864
0.0068390405
0.006883701
0.0068060653
0.0066172049
0.0063355159
0.0059858723
0.0055982742
0.0052060967
0.0048438419
0.0045457477
0.0043482668
0.0042810731
0.00089368122
0.00056243027
0.00026174756
-2.4026518e-05
-0.00029461726
-0.00053375389
-0.00072987217
-0.00087575838
-0.00096634127
-0.00099792516
-0.00096769581
-0.00087336635
-0.00071306666
-0.00048546078
-0.00019004102
0.00017245318
0.0005995464
0.0010865301
0.0016260246
0.002207676
0.002818053
0.0034407143
0.0040567082
0.00464525
0.0051847678
0.0056542279
0.0060346532
0.0063106955
0.0064720827
0.0065147699
0.0064416683
0.006262875
0.0059953503
0.0056620018
0.0052901908
0.0049098299
0.0045515073
0.0042450475
0.0040170152
0.0038814166
0.0013444662
0.00088480999
0.00052166716
0.00021136383
-6.6333279e-05
-0.00030237981
-0.00049109978
-0.00063023134
-0.00071811855
-0.00075319659
-0.00073380225
-0.00065803252
-0.00052380387
-0.00032910815
-7.2415515e-05
0.00024682055
0.00062760028
0.0010668065
0.0015586841
0.0020944419
0.0026620471
0.0032462663
0.0038290299
0.0043901082
0.0049081241
0.0053618675
0.0057318403
0.0060019038
0.0061608386
0.0062036014
0.0061320909
0.0059553248
0.0056890148
0.0053545608
0.0049774629
0.0045853522
0.0042065131
0.0038680225
0.003585313
0.0033616425
0.0017712988
0.0011781867
0.00074353845
0.00039750299
0.00010095323
-0.00014332545
-0.00033502412
-0.00047659455
-0.00056972751
-0.00061499987
-0.00061192302
-0.00055897058
-0.0004537846
-0.00029356559
-7.559627e-05
0.00020214308
0.00054030863
0.00093752071
0.0013897374
0.0018897389
0.0024268001
0.002986636
0.0035516635
0.0041016531
0.004614737
0.0050687528
0.0054428474
0.0057192206
0.0058848335
0.0059328496
0.0058635642
0.0056846473
0.0054106638
0.0050619431
0.0046628541
0.0042398066
0.0038203035
0.0034308502
0.0030783239
0.002751001
0.0021289775
0.0014040201
0.00089444935
0.00050623269
0.00018297565
-7.799119e-05
-0.00028118323
-0.00043337989
-0.00053936296
-0.00060167741
-0.00062087567
-0.00059568496
-0.00052334039
-0.00040009706
-0.00022187288
1.5016237e-05
0.00031306858
0.00067280116
0.001091998
0.0015650633
0.0020825564
0.0026310116
0.0031930737
0.0037480979
0.0042731477
0.0047443959
0.0051388311
0.0054361374
0.0056205765
0.0056826522
0.0056202925
0.0054393068
0.0051529954
0.004780947
0.004347122
0.0038777534
0.0034009631
0.0029444847
0.0025082935
0.0020667602
0.0023789402
0.001527559
0.000943503
0.00051034279
0.00015577153
-0.00012777015
-0.0003491511
-0.00051905647
-0.00064501673
-0.0007312666
-0.00077916435
-0.00078748388
-0.0007528615
-0.00067041762
-0.00053450841
-0.00033957631
-8.1064695e-05
0.00024364946
0.00063436005
0.0010872366
0.0015942068
0.0021426379
0.0027153078
0.003290918
0.0038450396
0.0043515577
0.0047845083
0.0051201515
0.0053390885
0.0054281957
0.0053821178
0.0052040511
0.004905614
0.0045057297
0.004028553
0.0035011769
0.0029537119
0.00241678
0.0018853905
0.0013228929
0.0024873807
0.0015171127
0.00086140051
0.00038295441
-5.3349723e-06
-0.00031554315
-0.00056050899
-0.00075441967
-0.00090719208
-0.0010244332
-0.0011080265
-0.0011565415
-0.0011657859
-0.0011295267
-0.0010403381
-0.00089055424
-0.00067330287
-0.00038357688
-1.9287287e-05
0.00041776974
0.00092111744
0.0014791295
0.0020747859
0.0026860755
0.003286822
0.003848121
0.0043402876
0.0047351613
0.0050085454
0.0051425124
0.0051272968
0.0049624953
0.004657337
0.0042298347
0.0037046918
0.0031107988
0.0024816396
0.0018523752
0.0012144477
0.00052097481
0.0024238274
0.0013436017
0.00062057873
9.8024154e-05
-0.00032499691
-0.00066482854
-0.00093797205
-0.0011617524
-0.0013481278
-0.0015037642
-0.0016307871
-0.0017273032
-0.0017880493
-0.0018052029
-0.0017693122
-0.0016703374
-0.001498786
-0.0012469135
-0.00090993714
-0.0004871979
1.6829959e-05
0.00059192741
0.001221511
0.0018829897
0.0025483636
0.0031855827
0.003760545
0.0042396194
0.004592473
0.0047948875
0.0048312138
0.0046961365
0.0043954749
0.0039457585
0.0033722762
0.0027064392
0.0019864537
0.0012537281
0.00049722723
-0.00033990893
0.0021605056
0.00098039167
0.00019543943
-0.00036909831
-0.0008270295
-0.0011987904
-0.001504294
-0.0017636829
-0.0019906478
-0.0021926305
-0.0023717412
-0.0025253867
-0.0026470051
-0.0027269487
-0.0027534821
-0.0027138932
-0.002595713
-0.0023880292
-0.0020828528
-0.0016764861
-0.0011707886
-0.00057388821
9.8510903e-05
0.00082361724
0.0015717413
0.0023075022
0.0029917952
0.0035844743
0.0040475785
0.0043487749
0.0044645896
0.0043829816
0.0041048895
0.0036443987
0.0030270738
0.0022872922
0.0014692208
0.00062228138
-0.00026620447
-0.0012633671
0.0016722209
0.00040336623
-0.00043736968
-0.0010411878
-0.0015337546
-0.001939449
-0.0022813818
-0.0025822341
-0.0028571667
-0.0031141607
-0.0033550989
-0.0035764946
-0.003770295
-0.0039248166
-0.0040257863
-0.0040575004
-0.0040041089
-0.0038510233
-0.0035864228
-0.0032027947
-0.0026984312
-0.0020789546
-0.0013578997
-0.00055768103
0.00029071302
0.0011486163
0.0019714959
0.0027117062
0.003322075
0.0037600359
0.0039918351
0.003996232
0.0037671394
0.0033146637
0.0026638948
0.0018523069
0.00093112419
-4.0402157e-05
-0.0010759812
-0.002253805
0.00093657465
-0.00040880925
-0.0012985798
-0.001938631
-0.0024653506
-0.0029069049
-0.0032894073
-0.0036378362
-0.0039686113
-0.0042900758
-0.0046037338
-0.0049050696
-0.0051844033
-0.0054278501
-0.0056183748
-0.0057369666
-0.0057639602
-0.0056805154
-0.0054702469
-0.0051209509
-0.0046263786
-0.0039881692
-0.0032168261
-0.002333239
-0.0013688586
-0.00036523334
0.00062751567
0.0015534008
0.0023544363
0.002975468
0.0033695076
0.0035028895
0.0033594631
0.002942966
0.0022765943
0.0014006239
0.00037427362
-0.00073148375
-0.0019309378
-0.0033145373
-6.5610401e-05
-0.0014742911
-0.0024058528
-0.0030788789
-0.0036391839
-0.0041185408
-0.004545878
-0.0049482628
-0.0053432193
-0.0057393452
-0.0061376882
-0.0065326421
-0.0069128337
-0.0072620771
-0.0075604048
-0.0077852184
-0.0079126081
-0.0079188718
-0.0077822443
-0.0074848129
-0.007014582
-0.0063676648
-0.0055501164
-0.0045797579
-0.0034871727
-0.0023158773
-0.0011212948
3.1708006e-05
0.0010728345
0.0019318387
0.0025450879
0.0028624782
0.0028536981
0.0025125744
0.0018579801
0.00093201894
-0.0001974147
-0.0014456265
-0.0028271094
-0.0044460599
-0.0013497527
-0.0028075952
-0.0037733055
-0.0044758981
-0.0050691514
-0.00558823
-0.0060646935
-0.0065275232
-0.0069952538
-0.0074767072
-0.0079724839
-0.0084759144
-0.0089739515
-0.0094480908
-0.0098753394
-0.010229298
-0.010481431
-0.01060258
-0.010564755
-0.010343217
-0.0099188147
-0.0092805474
-0.0084280899
-0.0073742387
-0.0061468201
-0.0047897499
-0.0033628061
-0.0019397126
-0.00060423194
0.00055582337
0.0014564076
0.0020261807
0.0022153915
0.002002983
0.0013996704
0.0004473403
-0.0007772574
-0.0021736439
-0.0037561141
-0.0056442652
-0.002926946
-0.0044191381
-0.0054110627
-0.006139667
-0.0067650736
-0.0073255885
-0.0078552277
-0.0083847523
-0.0089336801
-0.0095111126
-0.010117309
-0.010744665
-0.011378579
-0.011998311
-0.012577847
-0.013086868
-0.013491922
-0.013757871
-0.013849702
-0.013734716
-0.013385126
-0.012781008
-0.011913487
-0.010787942
-0.0094269623
-0.0078725446
-0.0061870177
-0.0044520851
-0.0027654356
-0.0012345631
3.2185566e-05
0.00093674824
0.0014034015
0.0013895423
0.00089206142
-5.0987076e-05
-0.0013547296
-0.0029009629
-0.0047033145
-0.0068984422
-0.0048034467
-0.0063148501
-0.0073248981
-0.0080757726
-0.008732191
-0.009335324
-0.009921492
-0.010523157
-0.011160873
-0.011844171
-0.012573179
-0.013339592
-0.014127492
-0.014914096
-0.015670487
-0.016362431
-0.016951392
-0.01739586
-0.01765311
-0.017681445
-0.017442988
-0.016907003
-0.016053723
-0.014878365
-0.01339525
-0.011641362
-0.0096787819
-0.0075951852
-0.0055015419
-0.003526298
-0.001805663
-0.00047029898
0.00037037269
0.00064364666
0.00032463498
-0.00055823087
-0.0019141761
-0.003605822
-0.005645657
-0.0081889239
-0.0069802891
-0.0084959352
-0.0095160341
-0.01028517
-0.010970824
-0.011616744
-0.012261446
-0.0129391
-0.013671447
-0.014468707
-0.015331196
-0.016250262
-0.017209016
-0.018182945
-0.019140479
-0.020043605
-0.020848688
-0.021507624
-0.021969479
-0.022182701
-0.022098032
-0.021672136
-0.020871951
-0.019679624
-0.018097736
-0.016154452
-0.013907772
-0.011447998
-0.0088972398
-0.0064047504
-0.0041371807
-0.0022634833
-0.00093536735
-0.00026613252
-0.00031311548
-0.0010661826
-0.0024331475
-0.0042570785
-0.0065490695
-0.009484244
-0.0094531041
-0.01095885
-0.01198117
-0.012764175
-0.013476264
-0.014163485
-0.014866529
-0.015621395
-0.016451301
-0.017367544
-0.01837107
-0.019453342
-0.020596956
-0.0217761
-0.022956912
-0.024097882
-0.025150426
-0.026059826
-0.026766672
-0.027208982
-0.027325114
-0.02705759
-0.02635787
-0.025192145
-0.023547582
-0.021439193
-0.018916115
-0.016066537
-0.013019765
-0.0099437338
-0.0070363364
-0.004509447
-0.0025658063
-0.0013714404
-0.0010297784
-0.0015613032
-0.002880171
-0.0048114627
-0.0073652734
-0.010737654
-0.012212208
-0.013695572
-0.014712813
-0.015504756
-0.016238955
-0.016963535
-0.01772147
-0.018550899
-0.019476984
-0.020512649
-0.021660049
-0.022911332
-0.024249131
-0.025646847
-0.027068799
-0.028470374
-0.02979835
-0.030991572
-0.031982158
-0.03269744
-0.033062788
-0.033005449
-0.032459583
-0.031373105
-0.029714004
-0.027479633
-0.024704831
-0.021469669
-0.017904809
-0.014192317
-0.010559534
-0.0072637308
-0.0045664521
-0.0026994299
-0.0018286704
-0.0020218778
-0.0032117471
-0.0052101078
-0.0080278466
-0.011882849
-0.015243027
-0.016694233
-0.017699972
-0.018495189
-0.019245023
-0.019999572
-0.020804429
-0.021700442
-0.022715438
-0.023864724
-0.025152393
-0.026571959
-0.028106713
-0.029729837
-0.031404349
-0.03308301
-0.034708384
-0.036213232
-0.037521456
-0.038549784
-0.03921042
-0.039414754
-0.039078384
-0.038129541
-0.036513445
-0.034205621
-0.031220993
-0.02762465
-0.023541054
-0.019159262
-0.014731016
-0.010558134
-0.006966286
-0.004265356
-0.002702504
-0.0024138034
-0.0033683326
-0.0053741787
-0.0084473815
-0.012828758
-0.018526918
-0.019940176
-0.020929301
-0.021721126
-0.022477183
-0.023249666
-0.024087472
-0.025035123
-0.026124165
-0.027373311
-0.0287895
-0.03036839
-0.032094588
-0.03394163
-0.035871741
-0.037835538
-0.039771835
-0.041607774
-0.043259484
-0.044633482
-0.045629063
-0.04614198
-0.04606961
-0.045316189
-0.043805138
-0.041485924
-0.038348155
-0.034434851
-0.029855576
-0.024796898
-0.019526382
-0.014385238
-0.0097644813
-0.0060621234
-0.0036256009
-0.0026846021
-0.0032690322
-0.0051994078
-0.0085055802
-0.013453261
-0.022042444
-0.023417544
-0.024386739
-0.025167125
-0.02591604
-0.026688308
-0.027537361
-0.02851292
-0.029651783
-0.030977413
-0.032500698
-0.034220303
-0.036122808
-0.038182605
-0.040361553
-0.042608509
-0.044858952
-0.047034868
-0.049045148
-0.0507867
-0.052146533
-0.053005113
-0.053241178
-0.052737861
-0.051392779
-0.049127636
-0.045902757
-0.04173267
-0.036703129
-0.030987193
-0.02485647
-0.018681619
-0.012914639
-0.0080469018
-0.0045433981
-0.0027553079
-0.0028047135
-0.0045493316
-0.0080481202
-0.013595729
-0.025767193
-0.027111493
-0.028059767
-0.028818677
-0.029541767
-0.030287717
-0.031116564
-0.032085567
-0.03323891
-0.034606563
-0.036204673
-0.038035813
-0.04008912
-0.042340208
-0.044750798
-0.047268191
-0.049824765
-0.052337692
-0.054709115
-0.056826996
-0.05856689
-0.059794929
-0.060372217
-0.060160927
-0.059033781
-0.056883539
-0.053638695
-0.049280359
-0.043862494
-0.037533369
-0.030554714
-0.023312265
-0.016308226
-0.010125617
-0.0053593863
-0.0025100529
-0.0018293033
-0.0032470049
-0.0068760921
-0.013048234
-0.029680271
-0.031011236
-0.031940409
-0.032664774
-0.033336107
-0.034019315
-0.034784373
-0.035699516
-0.03681925
-0.038182255
-0.039811427
-0.041714123
-0.043882454
-0.046293357
-0.048908356
-0.051673084
-0.054516766
-0.057351849
-0.060074025
-0.062562854
-0.064683268
-0.066288171
-0.067222417
-0.06732849
-0.066455257
-0.064467398
-0.061260819
-0.0567804
-0.051042378
-0.044160235
-0.036371499
-0.02805955
-0.019759875
-0.012137017
-0.0059202359
-0.0017834587
-0.00014910132
-0.0010649545
-0.0047357388
-0.011545261
-0.033765721
-0.035114217
-0.036029198
-0.03670111
-0.037284645
-0.037855225
-0.03849792
-0.039296854
-0.040320724
-0.041619582
-0.043224648
-0.045148777
-0.04738715
-0.049917741
-0.052701389
-0.055681528
-0.058783774
-0.06191557
-0.064966125
-0.067806875
-0.070292758
-0.072264471
-0.073552092
-0.073980379
-0.073375115
-0.071575729
-0.068446392
-0.063895275
-0.057897766
-0.050525297
-0.04197854
-0.032620316
-0.022997961
-0.013838935
-0.0060006391
-0.0003463925
0.0024899193
0.0022869125
-0.0013060644
-0.0087515312
-0.038017397
-0.039432005
-0.040340507
-0.040933998
-0.041379273
-0.041769599
-0.042212901
-0.042815956
-0.043666513
-0.044828983
-0.046344362
-0.048231328
-0.050487706
-0.053091648
-0.056002265
-0.059159726
-0.062485096
-0.06588008
-0.069226961
-0.072388922
-0.075211194
-0.077522977
-0.079140637
-0.079872442
-0.079524913
-0.077912928
-0.074871676
-0.0702744
-0.064055508
-0.05624078
-0.04698492
-0.036613951
-0.025664007
-0.014900102
-0.0052902512
0.0021087976
0.0064166345
0.0071758432
0.0038164433
-0.0042471494
-0.042446298
-0.043998908
-0.044909857
-0.045385237
-0.045620729
-0.045739571
-0.045883804
-0.046191744
-0.046775908
-0.047718028
-0.049069807
-0.050855323
-0.053073815
-0.055701986
-0.058695473
-0.061989506
-0.06549911
-0.069119028
-0.072723731
-0.07616757
-0.079285914
-0.081896708
-0.083803331
-0.084798843
-0.084671995
-0.083215883
-0.080239538
-0.07558427
-0.069145827
-0.060904439
-0.050964366
-0.039602945
-0.027323941
-0.014901223
-0.0033859733
0.0059816418
0.012050707
0.01406384
0.011137365
0.0024916229
-0.047092348
-0.048885101
-0.049804257
-0.050098204
-0.050021136
-0.049745608
-0.049463451
-0.049355486
-0.049565003
-0.050193291
-0.051302527
-0.052920515
-0.055045513
-0.05765015
-0.060684051
-0.064075153
-0.067730408
-0.071535879
-0.075357241
-0.079038493
-0.082404844
-0.085262685
-0.087402502
-0.088602764
-0.088635622
-0.087274079
-0.084303696
-0.079537178
-0.072835214
-0.064135343
-0.053491339
-0.041125568
-0.027493122
-0.013348939
0.00020634066
0.011772528
0.019919006
0.023529312
0.02129072
0.012119647
-0.052044547
-0.054217426
-0.055137187
-0.055145574
-0.054606349
-0.053771029
-0.052901779
-0.052234183
-0.05194736
-0.052162452
-0.052949768
-0.054337254
-0.056318223
-0.058857384
-0.061895123
-0.065348778
-0.069114882
-0.07306859
-0.07706669
-0.080938952
-0.084501013
-0.087546816
-0.089853435
-0.091184591
-0.09129684
-0.089942765
-0.086886455
-0.081914677
-0.074856406
-0.06561031
-0.054182448
-0.04073888
-0.025675891
-0.0097061164
0.0060556563
0.020082622
0.030670438
0.036294073
0.035076615
0.025465947
-0.057477234
-0.060213287
-0.061090553
-0.060638979
-0.059417743
-0.057800328
-0.05614372
-0.054749621
-0.053834772
-0.053536697
-0.053928108
-0.055030852
-0.056827385
-0.059269196
-0.062284138
-0.065773901
-0.069623013
-0.073693771
-0.077828405
-0.08184754
-0.085552276
-0.088723597
-0.091124677
-0.092503957
-0.092600014
-0.09114769
-0.087888604
-0.082583985
-0.075032949
-0.065097948
-0.052740113
-0.038070117
-0.021419879
-0.003441813
0.014768766
0.03159761
0.045084847
0.053256725
0.053517071
0.043607802
-0.063718096
-0.067236894
-0.067946547
-0.066740238
-0.064512262
-0.061815361
-0.059125641
-0.05681674
-0.055137826
-0.054233003
-0.054166785
-0.054945313
-0.056532215
-0.058859614
-0.061835418
-0.065345854
-0.06925814
-0.073419782
-0.077658591
-0.081782079
-0.08557735
-0.088811399
-0.091232527
-0.092572937
-0.092552982
-0.090887422
-0.087294544
-0.081509016
-0.073298934
-0.062489736
-0.048997362
-0.032875617
-0.014386233
0.0058950179
0.026924602
0.047045028
0.064067766
0.075531463
0.077939653
0.068005502
-0.07138032
-0.075893065
-0.076131977
-0.073671876
-0.069957815
-0.065787024
-0.061768476
-0.058339752
-0.055764723
-0.054174768
-0.053609179
-0.054045009
-0.055416135
-0.057628143
-0.060564565
-0.06409077
-0.068055097
-0.072288435
-0.076603315
-0.080792781
-0.084629694
-0.087866526
-0.090236141
-0.091453804
-0.091220828
-0.089230178
-0.085174612
-0.078759346
-0.069717223
-0.057831268
-0.042965278
-0.025107904
-0.004438976
0.018570269
0.042964977
0.067105179
0.088610967
0.10448348
0.11010504
0.10076088
-0.081631005
-0.087181263
-0.086269827
-0.081715922
-0.075814291
-0.069654498
-0.06396095
-0.059200259
-0.055613327
-0.053286464
-0.052209066
-0.052310488
-0.053483683
-0.055598871
-0.05851038
-0.062059285
-0.066073471
-0.070366258
-0.074734544
-0.078956912
-0.082792194
-0.085978595
-0.088233774
-0.089256121
-0.088727623
-0.086318416
-0.081693348
-0.074524461
-0.064502713
-0.051358661
-0.034889448
-0.01499767
0.0082487777
0.034515431
0.063013569
0.092226099
0.11966011
0.14172273
0.15240468
0.14512487
-0.096759437
-0.10273778
-0.099197591
-0.09115496
-0.08206228
-0.073261294
-0.065507691
-0.059216894
-0.054540072
-0.051469246
-0.049909984
-0.049722705
-0.050745453
-0.052805526
-0.055723933
-0.059315636
-0.063387634
-0.067736042
-0.072142995
-0.076373776
-0.080174512
-0.08327056
-0.085365797
-0.08614305
-0.085266062
-0.08238237
-0.077127966
-0.069138371
-0.058055558
-0.043544778
-0.025315319
-0.0031509231
0.023041337
0.05314173
0.086633782
0.12228344
0.15778131
0.18895215
0.20809838
0.20632818
-0.12133908
-0.12518674
-0.11587254
-0.10208071
-0.088416896
-0.076197935
-0.066005443
-0.058051935
-0.052291016
-0.048549908
-0.046608002
-0.046232556
-0.047194243
-0.049272066
-0.05225229
-0.055924502
-0.060076654
-0.064490011
-0.068934527
-0.073164876
-0.076917259
-0.079907048
-0.081827276
-0.082348158
-0.081118194
-0.077764008
-0.071895538
-0.063110108
-0.050996044
-0.035141743
-0.015145428
0.0093694666
0.038725849
0.073130081
0.11252016
0.15626297
0.20263127
0.24752356
0.28130138
0.29235696
-0.16445659
-0.15843233
-0.13714787
-0.11415701
-0.09410694
-0.077630907
-0.06473763
-0.055161566
-0.048489681
-0.044291306
-0.042172559
-0.041787058
-0.042832014
-0.045039166
-0.048164168
-0.051976407
-0.056250062
-0.060756556
-0.065258338
-0.069503872
-0.073223718
-0.076127547
-0.077902043
-0.078209875
-0.076689958
-0.072947328
-0.06657735
-0.057140375
-0.044172194
-0.027180289
-0.0056360492
0.021035225
0.053464501
0.092331962
0.13829659
0.19182722
0.25266834
0.31751177
0.37626893
0.41537109
-0.24629351
-0.20631755
-0.16212988
-0.12552859
-0.097143438
-0.075878026
-0.060487457
-0.049752271
-0.042660168
-0.038436093
-0.036490168
-0.036365133
-0.037697011
-0.040184722
-0.043566727
-0.04760362
-0.052065236
-0.056720968
-0.061332376
-0.06564751
-0.069396547
-0.072288514
-0.074008937
-0.074219229
-0.072557982
-0.068605113
-0.061961326
-0.052155617
-0.038682736
-0.02098103
0.0015962506
0.029825753
0.064686879
0.10746537
0.15987159
0.22417835
0.30290601
0.39553275
0.49624398
0.60321286
-0.42543828
-0.26572965
-0.17722091
-0.1246356
-0.089116306
-0.065102512
-0.049323773
-0.039185274
-0.03298366
-0.029674015
-0.028570596
-0.029186564
-0.031156544
-0.034189522
-0.038037139
-0.042472766
-0.047277525
-0.052230489
-0.0571015
-0.06164578
-0.065599823
-0.068678225
-0.070570953
-0.070939905
-0.069407283
-0.065629247
-0.059131904
-0.049452465
-0.03607449
-0.018403016
0.0042719864
0.032847873
0.068543285
0.11314269
0.16943726
0.2420178
0.33806669
0.46591644
0.64305526
0.92086283
-0.79331222
-0.32444144
-0.14899672
-0.087724761
-0.055345254
-0.035999034
-0.02509113
-0.019200614
-0.016355145
-0.015618693
-0.016493873
-0.01865361
-0.021852637
-0.025887902
-0.030574815
-0.035733112
-0.041178242
-0.046715418
-0.052135073
-0.057209229
-0.061688545
-0.065299958
-0.067745003
-0.068700097
-0.067823773
-0.064707303
-0.058941222
-0.050071985
-0.037593023
-0.020926882
0.0006108878
0.027881514
0.062059157
0.10491372
0.15945165
0.23152829
0.33385175
0.49409251
0.79001666
1.3837786
1.2372489e-05
-0.0001304873
-0.00044267096
-0.00084521744
-0.001263607
-0.001652393
-0.0019807207
-0.00222977
-0.0023889112
-0.0024524433
-0.0024174284
-0.0022824109
-0.0020468207
-0.0017109012
-0.00127601
-0.00074515664
-0.00012365263
0.00058023585
0.0013547328
0.0021841845
0.0030489613
0.0039256999
0.0047879148
0.0056070139
0.0063536711
0.0069995036
0.0075189483
0.0078912023
0.008102063
0.008145492
0.0080247351
0.0077528991
0.0073529729
0.0068573801
0.0063069754
0.0057493146
0.0052394489
0.0048336788
0.004593703
0.0045552194
0.00015430676
9.0410054e-06
-0.00024110538
-0.00054995253
-0.00087209841
-0.001173235
-0.0014291347
-0.001623628
-0.0017463569
-0.001790879
-0.0017532533
-0.0016311163
-0.0014232131
-0.0011293112
-0.00075040107
-0.00028908818
0.00024991745
0.00085930499
0.0015287419
0.002244598
0.0029898764
0.0037445507
0.0044859177
0.0051896262
0.0058308308
0.0063856432
0.006832746
0.0071550397
0.0073411842
0.0073868927
0.0072958354
0.0070800415
0.0067597419
0.0063626922
0.0059230641
0.0054798254
0.0050741447
0.0047494021
0.0045508125
0.0045157313
0.00047256547
0.00025447419
-1.3103115e-06
-0.00028039813
-0.00056070086
-0.0008176651
-0.0010335203
-0.0011962177
-0.0012975523
-0.0013320053
-0.0012958594
-0.0011865833
-0.0010025377
-0.00074296794
-0.00040821957
-1.0817312e-07
0.00047762935
0.0010188757
0.001614738
0.0022532855
0.0029195172
0.0035954819
0.0042608184
0.0048935262
0.005471062
0.005971695
0.006376023
0.0066685185
0.0068389594
0.0068836016
0.006805964
0.0066171257
0.0063354614
0.0059858112
0.0055981675
0.0052059447
0.0048436997
0.0045456411
0.0043481371
0.0042810592
0.00089417485
0.0005624969
0.00026200103
-2.37967e-05
-0.00029447929
-0.00053366364
-0.00072981389
-0.0008757284
-0.00096633396
-0.00099793591
-0.00096772224
-0.00087340718
-0.00071312001
-0.00048552346
-0.00019010932
0.00017238167
0.00059947198
0.0010864526
0.0016259465
0.0022076033
0.002817993
0.0034406713
0.0040566794
0.0046452287
0.0051847516
0.0056542236
0.0060346721
0.0063107399
0.0064721368
0.0065148073
0.0064416752
0.0062628646
0.0059953478
0.0056620103
0.0052901763
0.0049097509
0.004551362
0.0042448847
0.0040168767
0.0038813044
0.0013450121
0.00088466693
0.00052188793
0.00021162196
-6.6157796e-05
-0.00030223019
-0.00049096301
-0.00063011186
-0.00071801555
-0.00075310794
-0.00073372734
-0.00065797229
-0.0005237598
-0.00032908068
-7.2403194e-05
0.00024682004
0.00062758781
0.0010667802
0.0015586412
0.0020943825
0.0026619763
0.0032461923
0.0038289577
0.0043900347
0.0049080411
0.0053617714
0.0057317399
0.0060018158
0.0061607717
0.0062035428
0.0061320145
0.0059552173
0.0056888938
0.0053544596
0.0049773923
0.0045852777
0.004206382
0.0038678746
0.0035852861
0.0033614349
0.0017719351
0.001177855
0.0007437244
0.00039776327
0.00010111949
-0.00014317876
-0.00033488197
-0.00047646583
-0.00056961381
-0.00061489997
-0.00061183608
-0.00055889676
-0.00045372552
-0.00029352343
-7.5571935e-05
0.00020215115
0.0005403033
0.00093750323
0.0013897056
0.0018896892
0.0024267316
0.0029865542
0.0035515782
0.004101571
0.0046146552
0.005068661
0.0054427394
0.0057191046
0.005884729
0.0059327686
0.0058634945
0.0056845602
0.0054105434
0.0050618083
0.0046627422
0.0042397192
0.0038201805
0.0034307266
0.0030783808
0.0027506886
0.0021297151
0.0014035217
0.00089460843
0.00050649375
0.00018312538
-7.7859729e-05
-0.00028105124
-0.00043325878
-0.00053925564
-0.00060158373
-0.00062079518
-0.00059561688
-0.00052328477
-0.00040005565
-0.00022184824
1.5023089e-05
0.00031305966
0.00067278026
0.0010919673
0.001565021
0.002082498
0.0026309353
0.0031929852
0.0037480085
0.004273066
0.0047443195
0.0051387473
0.0054360365
0.0056204653
0.0056825514
0.0056202161
0.0054392427
0.0051529129
0.0047808312
0.0043469965
0.0038776396
0.0034008186
0.0029443756
0.0025084576
0.0020663716
0.0023797799
0.0015269119
0.00094364452
0.00051061217
0.00015591345
-0.00012764522
-0.00034902085
-0.0005189341
-0.00064490569
-0.00073116767
-0.00077907861
-0.00078741123
-0.00075280099
-0.0006703693
-0.00053447437
-0.00033955968
-8.1066889e-05
0.00024363058
0.00063432905
0.0010871967
0.0015941565
0.0021425718
0.002715223
0.00329082
0.0038449409
0.0043514692
0.0047844283
0.005120066
0.0053389852
0.0054280798
0.0053820104
0.0052039669
0.0049055409
0.0045056403
0.0040284416
0.0035010499
0.0029535321
0.0024166682
0.0018856639
0.0013224198
0.0024883201
0.0015163322
0.0008615301
0.00038323547
-5.1965478e-06
-0.00031542087
-0.00056037767
-0.00075429421
-0.00090707567
-0.0010243264
-0.0011079316
-0.0011564601
-0.001165718
-0.0011294711
-0.0010402947
-0.00089052551
-0.00067329247
-0.00038358686
-1.9315559e-05
0.00041772863
0.00092106815
0.0014790705
0.0020747117
0.0026859819
0.0032867135
0.0038480113
0.0043401896
0.0047350747
0.0050084556
0.0051424055
0.0051271765
0.0049623817
0.0046572432
0.004229751
0.0037046027
0.0031106817
0.0024814344
0.0018522518
0.0012148223
0.00052041131
0.0024248622
0.0013427022
0.00062070053
9.831843e-05
-0.00032485957
-0.00066470665
-0.00093783807
-0.0011616233
-0.0013480067
-0.0015036507
-0.0016306831
-0.0017272115
-0.0017879718
-0.0018051393
-0.0017692614
-0.0016702991
-0.0014987627
-0.0012469095
-0.00090995517
-0.00048723572
1.6779322e-05
0.0005918677
0.0012214429
0.0018829073
0.0025482617
0.003185465
0.0037604255
0.0042395124
0.0045923796
0.0047947935
0.0048311048
0.004696015
0.0043953577
0.0039456585
0.0033721939
0.002706338
0.0019862375
0.0012535995
0.00049770605
-0.00034057356
0.0021616294
0.00097938754
0.00019555721
-0.00036878971
-0.0008268912
-0.0011986667
-0.0015041551
-0.0017635481
-0.0019905208
-0.0021925102
-0.0023716282
-0.0025252836
-0.002646915
-0.0027268736
-0.002753422
-0.0027138465
-0.0025956792
-0.0023880109
-0.0020828548
-0.0016765112
-0.0011708334
-0.00057395042
9.8439819e-05
0.00082353906
0.0015716504
0.0023073923
0.0029916693
0.0035843463
0.0040474634
0.0043486748
0.0044644913
0.0043828712
0.0041047677
0.0036442819
0.0030269826
0.0022871953
0.0014689943
0.00062215599
-0.00026560629
-0.0012641462
0.0016734257
0.00040227182
-0.0004372525
-0.0010408638
-0.0015336134
-0.001939322
-0.0022812362
-0.0025820914
-0.0028570315
-0.0031140322
-0.0033549771
-0.0035763805
-0.0037701912
-0.0039247265
-0.0040257123
-0.0040574426
-0.0040040656
-0.0038509936
-0.0035864091
-0.0032028026
-0.0026984658
-0.0020790119
-0.0013579738
-0.00055776405
0.00029062372
0.0011485158
0.0019713781
0.0027115734
0.0033219405
0.0037599147
0.0039917295
0.00399613
0.0037670275
0.0033145454
0.0026637958
0.001852204
0.00093087712
-4.052388e-05
-0.0010752435
-0.0022547126
0.00093785079
-0.00040997944
-0.0012984606
-0.0019382911
-0.0024652045
-0.0029067732
-0.0032892544
-0.0036376842
-0.0039684657
-0.0042899369
-0.0046036019
-0.0049049449
-0.0051842867
-0.0054277442
-0.0056182835
-0.0057368927
-0.0057639038
-0.0056804749
-0.0054702211
-0.0051209424
-0.0046263942
-0.0039882099
-0.0032168926
-0.0023333246
-0.0013689541
-0.00036533473
0.00062740494
0.0015532753
0.0023542984
0.0029753301
0.0033693833
0.0035027807
0.0033593575
0.0029428567
0.0022764995
0.0014005167
0.000373996
-0.00073160756
-0.0019300401
-0.0033155914
-6.4273842e-05
-0.001475522
-0.0024057297
-0.0030785232
-0.0036390309
-0.0041184028
-0.0045457172
-0.0049481012
-0.0053430625
-0.0057391939
-0.0061375439
-0.0065325057
-0.006912705
-0.007261957
-0.007560296
-0.0077851251
-0.0079125335
-0.0079188165
-0.0077822067
-0.0074847917
-0.0070145795
-0.0063676849
-0.0055501645
-0.0045798342
-0.00348727
-0.0023159858
-0.0011214089
3.1586731e-05
0.0010727023
0.0019316983
0.0025449506
0.0028623548
0.0028535872
0.0025124708
0.0018578972
0.00093191575
-0.00019772595
-0.0014457569
-0.0028260296
-0.0044472855
-0.0013483676
-0.0028088711
-0.0037731775
-0.0044755277
-0.00506899
-0.0055880838
-0.0060645238
-0.0065273521
-0.0069950859
-0.0074765429
-0.0079723256
-0.0084757642
-0.0089738099
-0.0094479578
-0.0098752156
-0.010229186
-0.010481336
-0.010602505
-0.010564701
-0.010343183
-0.0099187994
-0.0092805516
-0.0084281182
-0.0073742963
-0.0061469072
-0.0047898596
-0.003362928
-0.0019398394
-0.000604363
0.00055568668
0.0014562689
0.0020260485
0.0022152709
0.0020028775
0.001399598
0.0004472461
-0.00077760242
-0.0021737811
-0.0037548245
-0.0056456932
-0.0029255255
-0.0044204421
-0.0054109289
-0.0061392841
-0.006764903
-0.0073254325
-0.0078550476
-0.008384571
-0.0089335015
-0.0095109361