/*--------------------------------*- C++ -*----------------------------------*\
  =========                 |
  \\      /  F ield         | OpenFOAM: The Open Source CFD Toolbox
   \\    /   O peration     | Website:  https://openfoam.org
    \\  /    A nd           | Version:  7
     \\/     M anipulation  |
\*---------------------------------------------------------------------------*/
FoamFile
{
    version     2.0;
    format      ascii;
    class       surfaceScalarField;
    location    "21";
    object      phi;
}
// * * * * * * * * * * * * * * * * * * * * * * * * * * * * * * * * * * * * * //

dimensions      [0 3 -1 0 0 0 0];

internalField   nonuniform List<scalar> 
45600
(
2.7494618e-07
-2.8244445e-07
-8.426201e-11
4.0320936e-07
-1.2823694e-07
-2.6571333e-11
1.3248313e-07
2.7073339e-07
-7.5242837e-12
-5.6235008e-07
6.9483508e-07
-2.1259975e-12
-1.6393187e-06
1.0769651e-06
3.108421e-12
-3.0275939e-06
1.3882678e-06
6.6450103e-12
-4.6523976e-06
1.6247938e-06
8.9612503e-12
-6.4449877e-06
1.792579e-06
1.0601047e-11
-8.3452689e-06
1.9002698e-06
1.1771702e-11
-1.0301241e-05
1.9559599e-06
1.25525e-11
-1.2267152e-05
1.9658979e-06
1.2988564e-11
-1.4201286e-05
1.9341179e-06
1.3117104e-11
-1.6063899e-05
1.8625986e-06
1.297271e-11
-1.7815646e-05
1.7517346e-06
1.2572024e-11
-1.9416634e-05
1.600979e-06
1.1894121e-11
-2.0826204e-05
1.4095611e-06
1.08879e-11
-2.2003426e-05
1.1772104e-06
9.5149386e-12
-2.290827e-05
9.048306e-07
7.7936216e-12
-2.3503363e-05
5.950809e-07
5.7976255e-12
-2.3756197e-05
2.5283274e-07
3.5996025e-12
-2.3641644e-05
-1.1454486e-07
1.2180921e-12
-2.3144527e-05
-4.9710569e-07
-1.3865405e-12
-2.2262121e-05
-8.824052e-07
-4.2146097e-12
-2.1006207e-05
-1.2559232e-06
-7.1137636e-12
-1.9404509e-05
-1.6017051e-06
-9.7775504e-12
-1.7501261e-05
-1.9032347e-06
-1.1928665e-11
-1.5356726e-05
-2.1444959e-06
-1.3495165e-11
-1.3045553e-05
-2.3111301e-06
-1.4630869e-11
-1.0653941e-05
-2.3915975e-06
-1.5480661e-11
-8.2757166e-06
-2.3782483e-06
-1.58812e-11
-6.0075404e-06
-2.2682052e-06
-1.5350754e-11
-3.9435631e-06
-2.0639618e-06
-1.350762e-11
-2.1698314e-06
-1.7736602e-06
-1.0563813e-11
-7.5856197e-07
-1.4111986e-06
-7.3016269e-12
2.3820731e-07
-9.9677846e-07
-4.5192686e-12
7.9651806e-07
-5.5840559e-07
-2.5279911e-12
9.2918598e-07
-1.3275727e-07
3.4307507e-13
7.0546215e-07
2.237681e-07
5.2294472e-12
2.9038828e-07
4.1524566e-07
1.1075346e-11
2.9053629e-07
5.5103477e-12
1.3277356e-07
-4.1519435e-07
-2.397396e-11
-3.0179728e-07
3.0634815e-07
-1.5206018e-11
-1.61547e-06
1.5844183e-06
-1.31649e-11
-3.8747121e-06
2.9540901e-06
-1.3794164e-11
-7.007263e-06
4.2095306e-06
-1.4847069e-11
-1.0879573e-05
5.2605937e-06
-1.6312453e-11
-1.5334873e-05
6.0801115e-06
-1.7701613e-11
-2.0215589e-05
6.6733118e-06
-1.8704014e-11
-2.5373519e-05
7.0582175e-06
-1.925057e-11
-3.06726e-05
7.2550598e-06
-1.9344946e-11
-3.5987734e-05
7.2810527e-06
-1.9023198e-11
-4.1201891e-05
7.1482949e-06
-1.8330411e-11
-4.6202912e-05
6.8636343e-06
-1.7285729e-11
-5.0880928e-05
6.4297619e-06
-1.5868346e-11
-5.5126961e-05
5.8470226e-06
-1.4045798e-11
-5.8832963e-05
5.1155769e-06
-1.1823319e-11
-6.1893378e-05
4.2376419e-06
-9.2635068e-12
-6.4208137e-05
3.2196004e-06
-6.4494849e-12
-6.5686866e-05
2.0738087e-06
-3.4202591e-12
-6.6253986e-05
8.199388e-07
-1.567694e-13
-6.5854538e-05
-5.140071e-07
3.3657605e-12
-6.4459422e-05
-1.8922239e-06
7.1084863e-12
-6.2071166e-05
-3.2706499e-06
1.0784552e-11
-5.8727875e-05
-4.5992105e-06
1.4084523e-11
-5.4505988e-05
-5.8236176e-06
1.6856177e-11
-4.9520971e-05
-6.8883075e-06
1.9177287e-11
-4.3925628e-05
-7.7398927e-06
2.1219582e-11
-3.7905836e-05
-8.3309361e-06
2.2942184e-11
-3.1673659e-05
-8.6237432e-06
2.3932994e-11
-2.5458033e-05
-8.5938473e-06
2.3666483e-11
-1.9493371e-05
-8.2329053e-06
2.2041666e-11
-1.400662e-05
-7.5508177e-06
1.9647924e-11
-9.2033106e-06
-6.5770585e-06
1.7318014e-11
-5.2529772e-06
-5.3615097e-06
1.5270635e-11
-2.2740343e-06
-3.9755979e-06
1.2778357e-11
-3.1727955e-07
-2.5150738e-06
8.8741601e-12
6.570471e-07
-1.1071794e-06
3.4424012e-12
8.0359718e-07
7.6954e-08
6.0702124e-13
4.1769972e-07
8.0089485e-07
2.4601682e-12
7.0834888e-07
-1.8764689e-12
-2.7362991e-07
-1.4155156e-07
-1.3223427e-11
-1.6275279e-06
1.6602534e-06
-8.0249752e-12
-4.2893936e-06
4.2462923e-06
-9.275157e-12
-8.2745687e-06
6.9392717e-06
-7.7745372e-12
-1.3474176e-05
9.4091427e-06
-5.718648e-12
-1.9708318e-05
1.1494741e-05
-4.5750265e-12
-2.6765165e-05
1.3136962e-05
-3.8360052e-12
-3.4425834e-05
1.4333983e-05
-3.2366164e-12
-4.2477642e-05
1.5110027e-05
-2.7388857e-12
-5.0719253e-05
1.549667e-05
-2.2855604e-12
-5.8960889e-05
1.552269e-05
-1.8328827e-12
-6.7022081e-05
1.520949e-05
-1.382657e-12
-7.4728731e-05
1.4570287e-05
-9.6016687e-13
-8.1910744e-05
1.3611774e-05
-5.7116476e-13
-8.8401023e-05
1.2337295e-05
-1.8164265e-13
-9.4036228e-05
1.0750776e-05
2.5432824e-13
-9.8659452e-05
8.8608665e-06
7.3863924e-13
-0.00010212469
6.6848419e-06
1.2012849e-12
-0.00010430279
4.2519178e-06
1.5447431e-12
-0.00010508858
1.6057266e-06
1.7367145e-12
-0.00010440828
-1.1943259e-06
1.8719991e-12
-0.0001022272
-4.0733238e-06
2.0865145e-12
-9.8556394e-05
-6.9414549e-06
2.4202558e-12
-9.3458034e-05
-9.6975496e-06
2.7276464e-12
-8.7048605e-05
-1.2233023e-05
2.7761864e-12
-7.9499421e-05
-1.4437493e-05
2.4809497e-12
-7.1033948e-05
-1.6205405e-05
2.0745586e-12
-6.1921646e-05
-1.7443285e-05
1.9701772e-12
-5.2468304e-05
-1.8077091e-05
2.3519481e-12
-4.3003031e-05
-1.8059066e-05
2.8815693e-12
-3.386234e-05
-1.737353e-05
2.9366828e-12
-2.5371911e-05
-1.6041249e-05
2.296268e-12
-1.7826744e-05
-1.412232e-05
1.5791034e-12
-1.1470417e-05
-1.1717939e-05
1.7708891e-12
-6.4739434e-06
-8.9720578e-06
3.0951415e-12
-2.9140931e-06
-6.0747677e-06
4.4073943e-12
-7.512143e-07
-3.2698943e-06
4.1232247e-12
1.9436538e-07
-8.6862924e-07
3.0918653e-12
2.6541948e-07
7.2965681e-07
3.760655e-12
9.7377503e-07
3.7491501e-13
-7.4585834e-07
6.0431962e-07
-1.3327015e-11
-3.1796148e-06
4.0940113e-06
-1.9325545e-12
-7.3459943e-06
8.4126787e-06
-7.3512817e-12
-1.3162805e-05
1.2756088e-05
-6.6652918e-12
-2.0455382e-05
1.6701722e-05
-4.0015514e-12
-2.8991977e-05
2.0031337e-05
-2.6173125e-12
-3.8512969e-05
2.2657956e-05
-1.6900508e-12
-4.8751499e-05
2.4572515e-05
-8.6959313e-13
-5.9445526e-05
2.5804053e-05
-2.1184913e-13
-7.0343097e-05
2.6394238e-05
3.1174335e-13
-8.1203115e-05
2.6382705e-05
7.6668458e-13
-9.1793702e-05
2.5800076e-05
1.1840018e-12
-0.00010188988
2.4666469e-05
1.5474434e-12
-0.00011127187
2.2993767e-05
1.8179323e-12
-0.00011972483
2.0790248e-05
1.9808312e-12
-0.0001270405
1.8066437e-05
2.0739878e-12
-0.00013302093
1.4841293e-05
2.1582661e-12
-0.00013748412
1.1148025e-05
2.2477281e-12
-0.00014027119
7.0389953e-06
2.2673081e-12
-0.00014125475
2.5892951e-06
2.1066668e-12
-0.00014034754
-2.1015318e-06
1.7404412e-12
-0.00013751129
-6.9095979e-06
1.2478361e-12
-0.00013276411
-1.1688655e-05
8.3595501e-13
-0.00012618661
-1.6275051e-05
6.1646478e-13
-0.00011792543
-2.049418e-05
4.702767e-13
-0.00010819372
-2.4169173e-05
1.2563333e-13
-9.7267967e-05
-2.7131147e-05
-5.4779148e-13
-8.5480822e-05
-2.9230468e-05
-1.2887714e-12
-7.3209686e-05
-3.0348284e-05
-1.5662702e-12
-6.08613e-05
-3.0407464e-05
-1.0844399e-12
-4.8852724e-05
-2.9382043e-05
-2.0097588e-13
-3.7589363e-05
-2.7304522e-05
3.0413069e-13
-2.7440953e-05
-2.4270716e-05
7.3806894e-14
-1.871652e-05
-2.0442473e-05
-2.4775908e-13
-1.1639451e-05
-1.604926e-05
4.1830166e-13
-6.323635e-06
-1.1390605e-05
2.2897667e-12
-2.7515605e-06
-6.8418467e-06
4.2140964e-12
-7.5711637e-07
-2.8629495e-06
4.7234859e-12
-9.5204358e-09
-1.7973118e-08
4.0168989e-12
9.6419404e-07
3.0308423e-12
-1.2279526e-06
1.8322862e-06
-1.473615e-11
-4.788024e-06
7.6540776e-06
4.1491622e-12
-1.052132e-05
1.4145981e-05
-6.4029437e-12
-1.8213914e-05
2.0448689e-05
-7.486682e-12
-2.760327e-05
2.6091082e-05
-5.0894574e-12
-3.8395342e-05
3.0823412e-05
-4.339335e-12
-5.0281782e-05
3.4544399e-05
-3.9664526e-12
-6.2953173e-05
3.724391e-05
-3.4650542e-12
-7.610708e-05
3.8957964e-05
-2.987259e-12
-8.9451469e-05
3.9738629e-05
-2.5709851e-12
-0.00010270483
3.9636064e-05
-2.1724552e-12
-0.00011559457
3.8689811e-05
-1.7468809e-12
-0.00012785508
3.6926983e-05
-1.2782359e-12
-0.00013922667
3.4365356e-05
-7.965988e-13
-0.00014945598
3.101957e-05
-3.5732976e-13
-0.00015829852
2.6908978e-05
1.4639481e-14
-0.00016552316
2.2065916e-05
3.6174906e-13
-0.00017091859
1.6543447e-05
7.6227451e-13
-0.00017430142
1.0421819e-05
1.2434693e-12
-0.00017552521
3.8131007e-06
1.7232528e-12
-0.00017449008
-3.1366543e-06
2.0544788e-12
-0.00017115198
-1.0247688e-05
2.1455179e-12
-0.00016553112
-1.7309542e-05
2.0950717e-12
-0.00015771849
-2.408771e-05
2.1327882e-12
-0.00014788009
-3.0332593e-05
2.407328e-12
-0.00013625781
-3.5791428e-05
2.7866818e-12
-0.0001231665
-4.022241e-05
2.9125434e-12
-0.00010898661
-4.3410346e-05
2.5519356e-12
-9.4152068e-05
-4.518287e-05
1.9419337e-12
-7.91335e-05
-4.5426107e-05
1.6979602e-12
-6.4417049e-05
-4.4098525e-05
2.2150447e-12
-5.0479615e-05
-4.1241894e-05
3.119747e-12
-3.7761586e-05
-3.6988641e-05
3.5098971e-12
-2.6638451e-05
-3.1565573e-05
2.9339635e-12
-1.7392993e-05
-2.5294808e-05
2.0473442e-12
-1.0189897e-05
-1.8593828e-05
2.1626716e-12
-5.0547703e-06
-1.1976993e-05
3.8032721e-12
-1.859824e-06
-6.0577973e-06
4.2906637e-12
-3.222066e-07
-1.5555449e-06
7.8163986e-13
6.4194525e-07
5.6066659e-12
-1.693132e-06
3.5254347e-06
-1.7177277e-11
-6.3712609e-06
1.2332195e-05
9.6191088e-12
-1.3671115e-05
2.144584e-05
-5.3928152e-12
-2.3233466e-05
3.0011047e-05
-7.5485647e-12
-3.4694339e-05
3.7551959e-05
-4.8218926e-12
-4.7688565e-05
4.3817641e-05
-4.2545044e-12
-6.1855885e-05
4.8711721e-05
-4.1225642e-12
-7.6846029e-05
5.2234056e-05
-3.7330884e-12
-9.2321424e-05
5.4433363e-05
-3.2975904e-12
-0.00010795742
5.5374629e-05
-2.897305e-12
-0.00012344072
5.5119369e-05
-2.5215008e-12
-0.00013846708
5.3716166e-05
-2.1408202e-12
-0.00015273927
5.1199173e-05
-1.7135989e-12
-0.00016596628
4.7592367e-05
-1.2226791e-12
-0.00017786422
4.2917517e-05
-7.0578863e-13
-0.00018815933
3.7204088e-05
-2.3420915e-13
-0.00019659302
3.0499609e-05
1.5475157e-13
-0.00020292889
2.2879303e-05
5.0706345e-13
-0.00020696118
1.4454096e-05
9.2049575e-13
-0.00020852438
5.3763006e-06
1.4423236e-12
-0.00020750332
-4.1577104e-06
1.986043e-12
-0.00020384304
-1.390794e-05
2.3715838e-12
-0.00019755806
-2.3594515e-05
2.4732435e-12
-0.00018873986
-3.2905935e-05
2.3810905e-12
-0.00017756214
-4.1510357e-05
2.3720778e-12
-0.00016428289
-4.9070696e-05
2.6616265e-12
-0.00014924253
-5.5262745e-05
3.1342561e-12
-0.00013285731
-5.9795515e-05
3.3663133e-12
-0.00011560747
-6.2432675e-05
3.0325714e-12
-9.8019974e-05
-6.3013647e-05
2.3505763e-12
-8.0645856e-05
-6.1472731e-05
2.0195307e-12
-6.4033174e-05
-5.7854624e-05
2.5271649e-12
-4.8696719e-05
-5.2325043e-05
3.4934342e-12
-3.5086374e-05
-4.5175812e-05
3.9095754e-12
-2.3556328e-05
-3.6824815e-05
3.2463642e-12
-1.4337708e-05
-2.7812526e-05
2.5345087e-12
-7.5174635e-06
-1.8797336e-05
3.5672104e-12
-3.0267285e-06
-1.0548525e-05
3.584015e-12
-6.4247768e-07
-3.9397337e-06
-1.6506667e-12
-5.4033552e-10
8.4335426e-12
-2.1328819e-06
5.6583363e-06
-1.9913732e-11
-7.8908683e-06
1.8090165e-05
1.4454694e-11
-1.6716957e-05
3.0271932e-05
-4.613911e-12
-2.8104981e-05
4.1399078e-05
-7.5713882e-12
-4.1583958e-05
5.1030941e-05
-4.3424407e-12
-5.6712592e-05
5.8946278e-05
-3.8126956e-12
-7.3076294e-05
6.5075426e-05
-3.8279788e-12
-9.0284647e-05
6.944241e-05
-3.5126628e-12
-0.00010796842
7.2117137e-05
-3.1124104e-12
-0.00012577591
7.3182121e-05
-2.7170702e-12
-0.00014336894
7.2712406e-05
-2.3344852e-12
-0.0001604192
7.076643e-05
-1.974528e-12
-0.0001766056
6.7385566e-05
-1.6133241e-12
-0.00019161322
6.2599983e-05
-1.2010588e-12
-0.00020513431
5.6438611e-05
-7.1466469e-13
-0.00021687142
4.8941197e-05
-1.9873086e-13
-0.00022654256
4.0170762e-05
2.5885521e-13
-0.00023388839
3.0225135e-05
6.0622875e-13
-0.00023868081
1.9246507e-05
8.9020906e-13
-0.00024073279
7.4282641e-06
1.2285473e-12
-0.00023990887
-4.9816433e-06
1.6930868e-12
-0.00023613572
-1.7681084e-05
2.2118491e-12
-0.00022941241
-3.0317796e-05
2.5666186e-12
-0.0002198194
-4.2498929e-05
2.5918514e-12
-0.00020752554
-5.3804244e-05
2.3671049e-12
-0.00019279214
-6.380414e-05
2.2164856e-12
-0.00017597319
-7.2081723e-05
2.4304232e-12
-0.00015751058
-7.8258111e-05
2.9247168e-12
-0.0001379235
-8.2019694e-05
3.2249316e-12
-0.00011779152
-8.3145576e-05
2.9235002e-12
-9.7731195e-05
-8.1533094e-05
2.2164809e-12
-7.8366805e-05
-7.7219105e-05
1.8615261e-12
-6.0296921e-05
-7.0394983e-05
2.3944272e-12
-4.4058856e-05
-6.1413834e-05
3.3579903e-12
-3.009396e-05
-5.0789617e-05
3.6383202e-12
-1.8716974e-05
-3.9189483e-05
3.300174e-12
-1.0092934e-05
-2.7421444e-05
4.1914625e-12
-4.2252928e-06
-1.6416222e-05
3.1630731e-12
-9.5848619e-07
-7.2065222e-06
-4.7581058e-12
-9.59014e-07
1.0490669e-11
-2.5449829e-06
8.203342e-06
-2.2670744e-11
-9.3285849e-06
2.4873747e-05
1.8768565e-11
-1.9614814e-05
4.0558163e-05
-4.1042401e-12
-3.2755933e-05
5.4540204e-05
-7.8124719e-12
-4.8174544e-05
6.6449556e-05
-4.116058e-12
-6.5352279e-05
7.6124016e-05
-3.6231025e-12
-8.3819832e-05
8.3542982e-05
-3.777531e-12
-0.00010314781
8.8770386e-05
-3.549044e-12
-0.0001229383
9.1907627e-05
-3.2204561e-12
-0.00014281713
9.3060959e-05
-2.8691083e-12
-0.00016242704
9.232232e-05
-2.4865816e-12
-0.00018142213
8.9761522e-05
-2.107208e-12
-0.00019946409
8.5427533e-05
-1.7547499e-12
-0.00021622054
7.9356422e-05
-1.4013385e-12
-0.0002313655
7.1583571e-05
-9.871918e-13
-0.00024458229
6.2157982e-05
-4.8255468e-13
-0.00025556839
5.1156874e-05
6.3639671e-14
-0.00026404238
3.8699129e-05
5.4763087e-13
-0.00026975236
2.495649e-05
8.9905317e-13
-0.00027248584
1.0161734e-05
1.1582213e-12
-0.00027208056
-5.3869396e-06
1.4583012e-12
-0.00026843581
-2.1325847e-05
1.9172691e-12
-0.0002615241
-3.7229495e-05
2.4578499e-12
-0.00025140206
-5.2620941e-05
2.843926e-12
-0.00023822002
-6.6986263e-05
2.8626697e-12
-0.00022222911
-7.9795066e-05
2.5689572e-12
-0.0002037846
-9.052629e-05
2.3211688e-12
-0.00018334409
-9.8698659e-05
2.479045e-12
-0.00016145937
-0.0001039044
2.9950018e-12
-0.00013876069
-0.00010584419
3.3616123e-12
-0.00011593323
-0.00010436051
3.1142758e-12
-9.3685886e-05
-9.946647e-05
2.4407048e-12
-7.271422e-05
-9.1366735e-05
2.12178e-12
-5.3659906e-05
-8.0468201e-05
2.5940174e-12
-3.7070514e-05
-6.7378972e-05
3.2292922e-12
-2.3363572e-05
-5.2896353e-05
3.6843955e-12
-1.2799114e-05
-3.7985893e-05
5.215694e-12
-5.4648132e-06
-2.3750569e-05
3.2425634e-12
-1.2772546e-06
-1.1394099e-05
-7.9280618e-12
-2.2362689e-06
1.2770442e-11
-2.9283967e-06
1.1131764e-05
-2.5362476e-11
-1.0673364e-05
3.2618691e-05
2.2637827e-11
-2.2335535e-05
5.2220337e-05
-3.7582956e-12
-3.7134922e-05
6.9339596e-05
-8.1516822e-12
-5.4392581e-05
8.3707217e-05
-4.0146519e-12
-7.3515581e-05
9.5247019e-05
-3.5462607e-12
-9.3981709e-05
0.00010400912
-3.8085543e-12
-0.00011532482
0.0001101135
-3.6384663e-12
-0.00013712148
0.0001137043
-3.3760747e-12
-0.00015897931
0.00011491878
-3.0956634e-12
-0.00018052705
0.00011387006
-2.7506519e-12
-0.00020140695
0.00011064142
-2.3580948e-12
-0.0002212694
0.00010529
-1.9699354e-12
-0.00023977018
9.7857203e-05
-1.6134907e-12
-0.00025657007
8.8383453e-05
-1.2579487e-12
-0.00027133691
7.692482e-05
-8.3345873e-13
-0.00028374987
6.3569827e-05
-3.0138862e-13
-0.00029350562
4.845488e-05
2.8941991e-13
-0.00030032638
3.1777263e-05
8.1996355e-13
-0.00030396956
1.3804928e-05
1.1923332e-12
-0.00030423891
-5.1176027e-06
1.4293292e-12
-0.00030099652
-2.4568257e-05
1.7110913e-12
-0.00029417635
-4.4049689e-05
2.1541455e-12
-0.00028379742
-6.2999866e-05
2.7169508e-12
-0.00026997676
-8.0806894e-05
3.1465491e-12
-0.00025294047
-9.6831329e-05
3.1809943e-12
-0.00023303145
-0.00011043531
2.8434133e-12
-0.000210712
-0.00012101817
2.5126337e-12
-0.00018655922
-0.00012805723
2.6033106e-12
-0.0001612519
-0.00013115149
3.1010143e-12
-0.00013554754
-0.00013006482
3.4877809e-12
-0.00011024951
-0.00012476444
3.2927057e-12
-8.6165887e-05
-0.00011545038
2.7212303e-12
-6.4062678e-05
-0.00010257148
2.4291152e-12
-4.4615973e-05
-8.682572e-05
2.5833135e-12
-2.8368088e-05
-6.9144208e-05
3.39579e-12
-1.5692897e-05
-5.066104e-05
5.9515099e-12
-6.7751112e-06
-3.2668352e-05
3.5784675e-12
-1.6070151e-06
-1.6562206e-05
-1.0862548e-11
-3.8433048e-06
1.5213374e-11
-3.2816036e-06
1.4413394e-05
-2.7935642e-11
-1.1915525e-05
4.1252585e-05
2.6087742e-11
-2.4854799e-05
6.5159614e-05
-3.5326618e-12
-4.1198752e-05
8.5683556e-05
-8.5347419e-12
-6.0174627e-05
0.00010268309
-3.9831267e-12
-8.1120011e-05
0.0001161924
-3.5351074e-12
-0.00010346349
0.00012635259
-3.8857633e-12
-0.00012670548
0.00013335549
-3.7422538e-12
-0.00015040066
0.00013739949
-3.5118159e-12
-0.0001741426
0.00013866072
-3.2938455e-12
-0.00019755088
0.00013727834
-3.0179473e-12
-0.00022026113
0.00013335168
-2.6590449e-12
-0.00024191789
0.00012694676
-2.2480265e-12
-0.0002621703
0.00011810962
-1.8419065e-12
-0.00028067047
0.00010688363
-1.4736474e-12
-0.00029707436
9.3328699e-05
-1.1115234e-12
-0.00031104484
7.7540298e-05
-6.7639643e-13
-0.00032225692
5.9666961e-05
-1.1644052e-13
-0.00033040495
3.9925299e-05
5.2307667e-13
-0.00033521176
1.8611755e-05
1.0969708e-12
-0.00033644004
-3.8893181e-06
1.4685904e-12
-0.00033390484
-2.7103464e-05
1.7315013e-12
-0.00032748935
-5.0465205e-05
1.9772502e-12
-0.00031716061
-7.3328634e-05
2.388509e-12
-0.00030298642
-9.498108e-05
2.955718e-12
-0.00028515138
-0.00011466634
3.4152383e-12
-0.0002639702
-0.00013161645
3.4667094e-12
-0.00023989617
-0.00014509221
3.1024209e-12
-0.00021352195
-0.0001544315
2.7073546e-12
-0.00018557049
-0.00015910301
2.7252493e-12
-0.00015687384
-0.00015876146
3.1613005e-12
-0.0001283394
-0.00015329883
3.5240058e-12
-0.00010090431
-0.00014288542
3.3985975e-12
-7.5481192e-05
-0.00012799462
2.8991587e-12
-5.2900288e-05
-0.00010940668
2.3848867e-12
-3.3854586e-05
-8.8189938e-05
2.9367369e-12
-1.8854488e-05
-6.5661121e-05
6.2726731e-12
-8.1981266e-06
-4.3324688e-05
3.7297206e-12
-1.9611275e-06
-2.2799189e-05
-1.3886887e-11
-5.8044606e-06
1.794368e-11
-3.6021981e-06
1.8015621e-05
-3.0340159e-11
-1.3044499e-05
5.0694856e-05
2.9122414e-11
-2.7148522e-05
7.9263641e-05
-3.4159328e-12
-4.4905918e-05
0.00010344096
-8.9499871e-12
-6.5459708e-05
0.00012323689
-4.0111872e-12
-8.8084851e-05
0.00013881755
-3.5863902e-12
-0.00011216582
0.00015043356
-4.029021e-12
-0.00013717383
0.00015836351
-3.9081316e-12
-0.00016264569
0.00016287135
-3.6819139e-12
-0.00018816516
0.0001641802
-3.490721e-12
-0.00021334734
0.00016246051
-3.276232e-12
-0.00023782623
0.00015783057
-2.9892824e-12
-0.00026124566
0.0001503662
-2.6127435e-12
-0.0002832532
0.00014011716
-2.176448e-12
-0.00030349687
0.0001271273
-1.7434737e-12
-0.00032162445
0.00011145628
-1.3548325e-12
-0.00033728505
9.3200895e-05
-9.7994384e-13
-0.00035013288
7.2514783e-05
-5.3097692e-13
-0.00035983326
4.9625669e-05
5.7194539e-14
-0.00036607093
2.4849433e-05
7.2813092e-13
-0.00036856157
-1.3986582e-06
1.298187e-12
-0.00036706413
-2.8600897e-05
1.8043532e-12
-0.0003613994
-5.6129932e-05
2.0616179e-12
-0.00035146794
-8.3260122e-05
2.2673897e-12
-0.00033727158
-0.00010917747
2.6384314e-12
-0.00031893511
-0.00013300282
3.1867852e-12
-0.00029672642
-0.00015382511
3.6518959e-12
-0.00027107245
-0.00017074614
3.7119666e-12
-0.00024256737
-0.00018293657
3.3367851e-12
-0.00021196961
-0.00018970081
2.9024668e-12
-0.00018018454
-0.00019054659
2.8490035e-12
-0.00014823083
-0.00018525254
3.1995209e-12
-0.0001171908
-0.00017392541
3.5324902e-12
-8.8147471e-05
-0.00015703791
3.3861251e-12
-6.2114356e-05
-0.00013543981
2.6444769e-12
-3.9965851e-05
-0.00011033848
2.8100386e-12
-2.2377263e-05
-8.3249731e-05
6.5669074e-12
-9.7825356e-06
-5.5919405e-05
3.6363786e-12
-2.3546536e-06
-3.0227039e-05
-1.7348478e-11
-8.1591375e-06
2.1034116e-11
-3.8869395e-06
2.1902592e-05
-3.252714e-11
-1.4048268e-05
6.0856151e-05
3.1740498e-11
-2.9191252e-05
9.4406627e-05
-3.3983393e-12
-4.821396e-05
0.00012246368
-9.3941933e-12
-7.0185974e-05
0.0001452089
-4.094599e-12
-9.4327592e-05
0.00016295917
-3.6834952e-12
-0.00011998513
0.0001760911
-4.220845e-12
-0.00014660538
0.00018498376
-4.1406047e-12
-0.00017371157
0.00018997755
-3.9205553e-12
-0.00020088197
0.0001913506
-3.7269366e-12
-0.00022773165
0.0001893102
-3.5337747e-12
-0.00025389788
0.0001839968
-3.309148e-12
-0.00027902883
0.00017549715
-3.0105817e-12
-0.00030277557
0.0001638639
-2.6131156e-12
-0.00032478689
0.00014913863
-2.1453777e-12
-0.00034470671
0.00013137611
-1.6767259e-12
-0.00036217374
0.00011066793
-1.2571567e-12
-0.0003768235
8.7164545e-05
-8.6154124e-13
-0.00038829275
6.1094901e-05
-3.9683934e-13
-0.00039622664
3.2783311e-05
2.2818561e-13
-0.00040028884
2.6635491e-06
1.0046331e-12
-0.00040017649
-2.8713228e-05
1.6632227e-12
-0.00039563689
-6.0669518e-05
2.1495632e-12
-0.00038649049
-9.2406525e-05
2.4079922e-12
-0.00037265612
-0.00012301186
2.589789e-12
-0.0003541789
-0.00015148008
2.9136488e-12
-0.0003312582
-0.00017674582
3.4161986e-12
-0.00030427274
-0.00019773157
3.8516131e-12
-0.00027379843
-0.00021341084
3.8985658e-12
-0.00024061433
-0.00022288491
3.5176637e-12
-0.00020569183
-0.00022546912
3.0625915e-12
-0.00017016364
-0.00022078078
2.9561821e-12
-0.00013527101
-0.00020881805
3.2462426e-12
-0.00010229168
-0.00019001721
3.4305345e-12
-7.245476e-05
-0.0001652767
2.8704895e-12
-4.685254e-05
-0.00013594071
2.9825134e-12
-2.636095e-05
-0.00010374135
7.1656647e-12
-1.1580264e-05
-7.0700102e-05
3.5302745e-12
-2.8032703e-06
-3.9004003e-05
-2.1396454e-11
-1.0962427e-05
2.4502268e-11
-4.1320032e-06
2.603463e-05
-3.4453061e-11
-1.4913698e-05
7.1637809e-05
3.3938394e-11
-3.0956317e-05
0.00011044925
-3.4587815e-12
-5.1079333e-05
0.0001425867
-9.857387e-12
-7.4290383e-05
0.00016841996
-4.2362641e-12
-9.9763631e-05
0.00018843242
-3.8192775e-12
-0.00012681358
0.00020314105
-4.4347144e-12
-0.00015486758
0.00021303776
-4.4093755e-12
-0.00018343961
0.00021854959
-4.2210522e-12
-0.0002121066
0.00022001759
-4.0295714e-12
-0.00024048801
0.00021769162
-3.8260223e-12
-0.00026822901
0.0002117378
-3.6174557e-12
-0.00029498717
0.0002022553
-3.3827265e-12
-0.00032042233
0.00018929905
-3.0708245e-12
-0.00034418937
0.00017290568
-2.6496903e-12
-0.00036593346
0.0001531202
-2.1457074e-12
-0.00038528758
0.00013002206
-1.6332544e-12
-0.00040187242
0.0001037494
-1.1733678e-12
-0.0004152988
7.4521276e-05
-7.4874788e-13
-0.00042517315
4.2657649e-05
-2.4602689e-13
-0.00043110643
8.5968149e-06
4.5216627e-13
-0.00043272883
-2.7090833e-05
1.1803666e-12
-0.00042970696
-6.3691365e-05
1.9281342e-12
-0.00042176923
-0.00010034423
2.4826121e-12
-0.00040873509
-0.000136046
2.7716153e-12
-0.00039054915
-0.00016966605
2.9404414e-12
-0.00036731772
-0.00019997728
3.2112519e-12
-0.00033934452
-0.00022570479
3.6379132e-12
-0.00030716061
-0.00024559473
3.999755e-12
-0.00027154263
-0.00025850286
3.9994029e-12
-0.0002335124
-0.00026349934
3.6041478e-12
-0.000194312
-0.00025998121
3.1570923e-12
-0.00015535054
-0.00024777954
3.0614458e-12
-0.00011812347
-0.00022724429
3.1721851e-12
-8.4110536e-05
-0.00019928961
2.7492037e-12
-5.466463e-05
-0.0001653866
3.1078838e-12
-3.0906859e-05
-0.00012749913
8.0515418e-12
-1.3644488e-05
-8.796249e-05
3.5905888e-12
-3.3229428e-06
-4.9325526e-05
-2.6036507e-11
-1.4285394e-05
2.8458851e-11
-4.3333418e-06
3.0368008e-05
-3.6084384e-11
-1.56274e-05
8.2931829e-05
3.5701993e-11
-3.2417107e-05
0.00012723896
-3.5703982e-12
-5.3459005e-05
0.00016362861
-1.0317057e-11
-7.7710598e-05
0.00019267156
-4.4370655e-12
-0.00010430855
0.00021503037
-4.0025425e-12
-0.00013254186
0.00023137436
-4.6645233e-12
-0.00016182328
0.00024231918
-4.6847723e-12
-0.00019166164
0.00024838796
-4.5482203e-12
-0.00022163646
0.00024999241
-4.3895396e-12
-0.00025137567
0.00024743083
-4.1829963e-12
-0.00028053688
0.00024089902
-3.956233e-12
-0.00030879204
0.00023051047
-3.7314372e-12
-0.00033581525
0.00021632226
-3.4832501e-12
-0.00036127335
0.00019836378
-3.1550636e-12
-0.00038481889
0.00017666575
-2.708012e-12
-0.00040608532
0.0001512885
-2.1642591e-12
-0.00042468443
0.00012234852
-1.6019223e-12
-0.00044020643
9.0043293e-05
-1.090605e-12
-0.00045222324
5.4674453e-05
-6.1473819e-13
-0.00046029569
1.6669252e-05
-7.264571e-14
-0.00046398635
-2.3400187e-05
5.8345008e-13
-0.00046287743
-6.4800285e-05
1.3969918e-12
-0.00045659657
-0.00010662508
2.2121082e-12
-0.00044484952
-0.00014779303
2.8231077e-12
-0.00042745989
-0.00018705567
3.148295e-12
-0.00040441438
-0.0002230228
3.3098496e-12
-0.00037591024
-0.00025420898
3.5172851e-12
-0.00034239971
-0.00027910527
3.8336071e-12
-0.00030462429
-0.00029627826
4.0717276e-12
-0.00026362961
-0.00030449399
3.9815723e-12
-0.00022075196
-0.00030285885
3.5798614e-12
-0.00017756909
-0.00029096244
3.2166106e-12
-0.00013581306
-0.00026900034
3.0036467e-12
-9.7250529e-05
-0.00023785215
2.4045364e-12
-6.3543909e-05
-0.00019909321
2.9929569e-12
-3.6114152e-05
-0.00015492889
9.0270031e-12
-1.6028316e-05
-0.00010804833
3.7821922e-12
-3.9297769e-06
-6.142404e-05
-3.1316548e-11
-1.8215204e-05
3.3088953e-11
-4.4871167e-06
3.4855162e-05
-3.7393399e-11
-1.6176946e-05
9.4621621e-05
3.7004641e-11
-3.354913e-05
0.00014461114
-3.7127585e-12
-5.5313308e-05
0.0001853928
-1.074192e-11
-8.0388587e-05
0.00021774684
-4.682897e-12
-0.00010788246
0.00024252425
-4.2403721e-12
-0.00013706433
0.00026055624
-4.9235568e-12
-0.00016733678
0.00027259164
-4.9616329e-12
-0.00019820715
0.00027925833
-4.8686113e-12
-0.00022926105
0.00028104631
-4.765092e-12
-0.00026013863
0.00027830842
-4.5905349e-12
-0.00029051419
0.00027127459
-4.3559369e-12
-0.00032007896
0.00026007525
-4.1045809e-12
-0.00034852698
0.00024477029
-3.8575053e-12
-0.00037554347
0.00022538027
-3.5892932e-12
-0.00040079551
0.00020191778
-3.2402293e-12
-0.00042392477
0.00017441775
-2.7644491e-12
-0.00044454236
0.00014296612
-2.1782536e-12
-0.00046222622
0.00010772716
-1.5583678e-12
-0.00047652162
6.8969865e-05
-9.7906167e-13
-0.00048694592
2.7093551e-05
-4.4311106e-13
-0.00049299877
-1.734734e-05
1.1967239e-13
-0.00049417891
-6.3620162e-05
8.2233462e-13
-0.00049000928
-0.00011079471
1.6720074e-12
-0.00048007143
-0.00015773087
2.5260486e-12
-0.00046404962
-0.00020307746
3.1797953e-12
-0.00044178403
-0.00024528838
3.5328074e-12
-0.00041333042
-0.0002826626
3.6782937e-12
-0.00037902109
-0.00031341463
3.8011209e-12
-0.00033951897
-0.0003357804
3.9643633e-12
-0.00029585369
-0.00034815926
4.0246787e-12
-0.00024942653
-0.00034928599
3.8344124e-12
-0.00020197229
-0.00033841667
3.499491e-12
-0.00015547076
-0.00031550189
3.0597266e-12
-0.00011201008
-0.00028131285
2.098035e-12
-7.3616494e-05
-0.00023748681
2.7321469e-12
-4.2076418e-05
-0.00018646896
1.0006435e-11
-1.8783733e-05
-0.00013134101
3.9777949e-12
-4.6399411e-06
-7.5567795e-05
-3.7400814e-11
-2.2855186e-05
3.8552181e-11
-4.5901852e-06
3.9445385e-05
-3.8352158e-11
-1.6552341e-05
0.00010658374
3.7817114e-11
-3.4332637e-05
0.00016239144
-3.8806927e-12
-5.6609732e-05
0.0002076699
-1.1107173e-11
-8.2275534e-05
0.00024341264
-4.948e-12
-0.00011041601
0.00027066473
-4.5226604e-12
-0.00014028621
0.00029042644
-5.2240196e-12
-0.00017128227
0.00030358771
-5.257964e-12
-0.00020291314
0.00031088921
-5.1781772e-12
-0.00023477347
0.00031290664
-5.1186188e-12
-0.00026651893
0.00031005388
-4.9983575e-12
-0.00029784441
0.00030260007
-4.793632e-12
-0.00032846521
0.00029069607
-4.5290304e-12
-0.00035810103
0.00027440612
-4.2451748e-12
-0.00038646233
0.00025374157
-3.9654447e-12
-0.00041323874
0.0002286942
-3.6674345e-12
-0.00043808943
0.00019926844
-3.2899431e-12
-0.00046063519
0.00016551188
-2.78082e-12
-0.00048045294
0.00012754491
-2.1481055e-12
-0.00049707307
8.5590008e-05
-1.4631589e-12
-0.00050998083
4.0001327e-05
-8.083321e-13
-0.00051862309
-8.7050795e-06
-2.0490327e-13
-0.00052242215
-5.9821108e-05
4.1329284e-13
-0.00052079858
-0.00011241829
1.1522225e-12
-0.00051320503
-0.00016532443
2.0231127e-12
-0.00049917257
-0.00021710992
2.8928226e-12
-0.00047837009
-0.00026609084
3.5600228e-12
-0.0004506755
-0.00031035718
3.9121285e-12
-0.00041625418
-0.00034783596
4.0117726e-12
-0.00037563657
-0.00037639804
4.0084902e-12
-0.00032978152
-0.00039401433
3.9643181e-12
-0.00028010862
-0.00039895888
3.8349518e-12
-0.000228481
-0.00039004427
3.624851e-12
-0.00017712401
-0.00036685887
3.1560284e-12
-0.00012847607
-0.0003299608
1.8816507e-12
-8.4984517e-05
-0.00028097837
2.4807848e-12
-4.8878013e-05
-0.00022257548
1.108091e-11
-2.1960533e-05
-0.00015825849
4.1336843e-12
-5.4696008e-06
-9.2058679e-05
-4.4486133e-11
-2.8324832e-05
4.4952496e-11
-4.6406332e-06
4.4086055e-05
-3.8934483e-11
-1.674768e-05
0.00011869075
3.8124793e-11
-3.475568e-05
0.00018039945
-4.0801301e-12
-5.7327435e-05
0.00023024167
-1.1406861e-11
-8.3337792e-05
0.000269423
-5.2122869e-12
-0.00011185778
0.00029918471
-4.8259401e-12
-0.00014213233
0.000320701
-5.5597985e-12
-0.00017355413
0.00033500952
-5.5919409e-12
-0.00020563609
0.00034297117
-5.5006123e-12
-0.00023798433
0.00034525488
-5.4488157e-12
-0.00027027286
0.00034234241
-5.3660435e-12
-0.00030222071
0.00033454792
-5.210176e-12
-0.00033357175
0.00032204711
-4.9705529e-12
-0.00036407704
0.00030491142
-4.6660075e-12
-0.00039347937
0.0002831439
-4.3367628e-12
-0.00042149964
0.00025671448
-4.0103811e-12
-0.00044782484
0.00022559365
-3.668723e-12
-0.00047209769
0.00018978472
-3.2513042e-12
-0.00049390797
0.00014935519
-2.701253e-12
-0.00051278651
0.00010446856
-2.0166724e-12
-0.00052820253
5.5417361e-05
-1.2623192e-12
-0.0005395659
2.6582977e-06
-5.2203367e-13
-0.0005462364
-5.3150595e-05
1.5198174e-13
-0.00054754208
-0.00011111263
8.3383111e-13
-0.00054280979
-0.00017005673
1.6085601e-12
-0.00053141074
-0.00022850897
2.483035e-12
-0.00051282316
-0.00028467842
3.3318737e-12
-0.0004867127
-0.00033646763
3.9638227e-12
-0.00045302806
-0.00038152059
4.2608323e-12
-0.00041210418
-0.00041732193
4.2527277e-12
-0.00036475909
-0.00044135944
4.054716e-12
-0.00031236361
-0.00045135436
3.7894128e-12
-0.00025685811
-0.00044554978
3.5669802e-12
-0.00020069164
-0.00042302533
3.0978214e-12
-0.00014666951
-0.00038398292
1.5996421e-12
-9.7716293e-05
-0.00032993159
2.2368925e-12
-5.6589671e-05
-0.00026370212
1.2354274e-11
-2.5605018e-05
-0.00018924315
4.3012245e-12
-6.4348119e-06