/*--------------------------------*- C++ -*----------------------------------*\
  =========                 |
  \\      /  F ield         | OpenFOAM: The Open Source CFD Toolbox
   \\    /   O peration     | Website:  https://openfoam.org
    \\  /    A nd           | Version:  7
     \\/     M anipulation  |
\*---------------------------------------------------------------------------*/
FoamFile
{
    version     2.0;
    format      ascii;
    class       surfaceScalarField;
    location    "21";
    object      phi_0;
}
// * * * * * * * * * * * * * * * * * * * * * * * * * * * * * * * * * * * * * //

dimensions      [0 3 -1 0 0 0 0];

internalField   nonuniform List<scalar> 
45600
(
2.7494639e-07
-2.8244412e-07
-8.427786e-11
4.0320944e-07
-1.2823671e-07
-2.6571333e-11
1.3248317e-07
2.7073344e-07
-7.5242837e-12
-5.623501e-07
6.9483502e-07
-2.1259975e-12
-1.6393188e-06
1.0769652e-06
3.108421e-12
-3.0275938e-06
1.388268e-06
6.6450103e-12
-4.6523971e-06
1.6247939e-06
8.9612503e-12
-6.4449867e-06
1.7925787e-06
1.0601047e-11
-8.3452678e-06
1.9002691e-06
1.1771702e-11
-1.030124e-05
1.9559594e-06
1.25525e-11
-1.2267152e-05
1.9658983e-06
1.2988564e-11
-1.4201284e-05
1.9341189e-06
1.3117104e-11
-1.6063897e-05
1.862599e-06
1.297271e-11
-1.7815643e-05
1.7517334e-06
1.2572024e-11
-1.9416631e-05
1.6009768e-06
1.1894121e-11
-2.0826203e-05
1.4095602e-06
1.08879e-11
-2.2003425e-05
1.1772125e-06
9.5149386e-12
-2.2908269e-05
9.0483453e-07
7.7936216e-12
-2.3503358e-05
5.9508273e-07
5.7976255e-12
-2.375619e-05
2.5282938e-07
3.5996025e-12
-2.3641639e-05
-1.1455164e-07
1.2180921e-12
-2.3144528e-05
-4.9710922e-07
-1.3865405e-12
-2.2262125e-05
-8.8239993e-07
-4.2146097e-12
-2.1006209e-05
-1.2559115e-06
-7.1137636e-12
-1.9404503e-05
-1.6016977e-06
-9.7775504e-12
-1.7501248e-05
-1.9032414e-06
-1.1928665e-11
-1.5356718e-05
-2.1445139e-06
-1.3495165e-11
-1.3045559e-05
-2.3111423e-06
-1.4630869e-11
-1.0653958e-05
-2.3915874e-06
-1.5480661e-11
-8.2757273e-06
-2.37822e-06
-1.58812e-11
-6.0075296e-06
-2.2681858e-06
-1.5350754e-11
-3.9435363e-06
-2.0639768e-06
-1.350762e-11
-2.1698164e-06
-1.7737014e-06
-1.0563813e-11
-7.5858183e-07
-1.4112223e-06
-7.3016269e-12
2.3816634e-07
-9.9674863e-07
-4.5192686e-12
7.9649998e-07
-5.5834274e-07
-2.5279911e-12
9.2922826e-07
-1.3273312e-07
3.4307507e-13
7.0554394e-07
2.2369116e-07
5.2294473e-12
2.9044888e-07
4.1510694e-07
1.1075346e-11
2.9045587e-07
5.5103477e-12
1.3277361e-07
-4.1519398e-07
-2.397396e-11
-3.0179725e-07
3.0634859e-07
-1.5206018e-11
-1.6154699e-06
1.5844185e-06
-1.31649e-11
-3.8747116e-06
2.9540898e-06
-1.3794164e-11
-7.0072623e-06
4.2095301e-06
-1.4847069e-11
-1.0879572e-05
5.2605933e-06
-1.6312453e-11
-1.5334872e-05
6.0801112e-06
-1.7701613e-11
-2.0215587e-05
6.6733114e-06
-1.8704014e-11
-2.5373516e-05
7.0582165e-06
-1.925057e-11
-3.0672596e-05
7.2550581e-06
-1.9344946e-11
-3.598773e-05
7.2810512e-06
-1.9023198e-11
-4.1201888e-05
7.1482947e-06
-1.8330411e-11
-4.6202907e-05
6.8636352e-06
-1.7285729e-11
-5.0880922e-05
6.4297623e-06
-1.5868346e-11
-5.5126952e-05
5.8470209e-06
-1.4045798e-11
-5.8832954e-05
5.1155735e-06
-1.1823319e-11
-6.1893371e-05
4.2376396e-06
-9.2635068e-12
-6.4208132e-05
3.2196021e-06
-6.4494849e-12
-6.5686861e-05
2.073814e-06
-3.4202591e-12
-6.6253977e-05
8.1994298e-07
-1.567694e-13
-6.5854524e-05
-5.1400914e-07
3.3657605e-12
-6.4459408e-05
-1.8922318e-06
7.1084863e-12
-6.2071161e-05
-3.2706562e-06
1.0784552e-11
-5.8727879e-05
-4.5992063e-06
1.4084523e-11
-5.4505992e-05
-5.8236025e-06
1.6856177e-11
-4.9520964e-05
-6.8882935e-06
1.9177287e-11
-4.3925608e-05
-7.7398949e-06
2.1219582e-11
-3.7905816e-05
-8.3309561e-06
2.2942184e-11
-3.1673659e-05
-8.6237624e-06
2.3932994e-11
-2.5458056e-05
-8.5938411e-06
2.3666483e-11
-1.9493395e-05
-8.2328714e-06
2.2041666e-11
-1.4006614e-05
-7.5507871e-06
1.9647924e-11
-9.2032706e-06
-6.5770687e-06
1.7318014e-11
-5.2529428e-06
-5.3615599e-06
1.5270635e-11
-2.2740518e-06
-3.9756366e-06
1.2778358e-11
-3.1734806e-07
-2.5150449e-06
8.8741601e-12
6.5699261e-07
-1.1070887e-06
3.4424012e-12
8.0362701e-07
7.7025745e-08
6.0702123e-13
4.1781367e-07
8.0088505e-07
2.4601681e-12
7.082834e-07
-1.876469e-12
-2.7362986e-07
-1.4155125e-07
-1.3223427e-11
-1.6275278e-06
1.6602538e-06
-8.0249752e-12
-4.2893933e-06
4.2462925e-06
-9.275157e-12
-8.2745677e-06
6.9392713e-06
-7.7745372e-12
-1.3474174e-05
9.4091416e-06
-5.718648e-12
-1.9708316e-05
1.1494739e-05
-4.5750265e-12
-2.6765163e-05
1.3136961e-05
-3.8360052e-12
-3.442583e-05
1.4333982e-05
-3.2366164e-12
-4.2477637e-05
1.5110025e-05
-2.7388857e-12
-5.0719245e-05
1.5496668e-05
-2.2855604e-12
-5.896088e-05
1.5522687e-05
-1.8328827e-12
-6.7022072e-05
1.5209488e-05
-1.382657e-12
-7.4728722e-05
1.4570286e-05
-9.6016687e-13
-8.1910735e-05
1.3611775e-05
-5.7116476e-13
-8.8401011e-05
1.2337296e-05
-1.8164265e-13
-9.4036213e-05
1.0750774e-05
2.5432824e-13
-9.8659436e-05
8.8608621e-06
7.3863924e-13
-0.00010212467
6.6848384e-06
1.2012849e-12
-0.00010430278
4.2519192e-06
1.5447431e-12
-0.00010508857
1.6057332e-06
1.7367145e-12
-0.00010440827
-1.1943191e-06
1.8719991e-12
-0.00010222718
-4.0733238e-06
2.0865145e-12
-9.8556374e-05
-6.941463e-06
2.4202558e-12
-9.3458023e-05
-9.697558e-06
2.7276464e-12
-8.7048607e-05
-1.223302e-05
2.7761864e-12
-7.9499427e-05
-1.4437475e-05
2.4809497e-12
-7.1033942e-05
-1.6205385e-05
2.0745586e-12
-6.1921622e-05
-1.7443282e-05
1.9701772e-12
-5.2468276e-05
-1.8077112e-05
2.3519481e-12
-4.3003025e-05
-1.805909e-05
2.8815693e-12
-3.3862366e-05
-1.7373527e-05
2.9366828e-12
-2.5371944e-05
-1.6041211e-05
2.296268e-12
-1.7826742e-05
-1.4122279e-05
1.5791034e-12
-1.1470369e-05
-1.1717943e-05
1.7708891e-12
-6.4738931e-06
-8.9721145e-06
3.0951415e-12
-2.914102e-06
-6.0748264e-06
4.4073944e-12
-7.5128489e-07
-3.2698927e-06
4.1232247e-12
1.9431216e-07
-8.6856799e-07
3.0918653e-12
2.6546887e-07
7.2970726e-07
3.760655e-12
9.7375728e-07
3.7491501e-13
-7.4585813e-07
6.043198e-07
-1.3327015e-11
-3.1796144e-06
4.0940112e-06
-1.9325545e-12
-7.3459937e-06
8.4126784e-06
-7.3512817e-12
-1.3162804e-05
1.2756087e-05
-6.6652918e-12
-2.0455379e-05
1.670172e-05
-4.0015514e-12
-2.8991972e-05
2.0031335e-05
-2.6173125e-12
-3.8512963e-05
2.2657953e-05
-1.6900508e-12
-4.8751493e-05
2.4572512e-05
-8.6959313e-13
-5.9445519e-05
2.5804051e-05
-2.1184913e-13
-7.0343088e-05
2.6394235e-05
3.1174335e-13
-8.1203103e-05
2.6382701e-05
7.6668458e-13
-9.1793688e-05
2.5800071e-05
1.1840018e-12
-0.00010188987
2.4666464e-05
1.5474434e-12
-0.00011127186
2.2993765e-05
1.8179323e-12
-0.00011972482
2.0790248e-05
1.9808312e-12
-0.00012704048
1.8066438e-05
2.0739878e-12
-0.00013302091
1.4841291e-05
2.1582661e-12
-0.0001374841
1.114802e-05
2.2477281e-12
-0.00014027117
7.0389907e-06
2.2673081e-12
-0.00014125474
2.5892964e-06
2.1066668e-12
-0.00014034753
-2.1015231e-06
1.7404412e-12
-0.00013751127
-6.9095874e-06
1.2478361e-12
-0.00013276409
-1.1688652e-05
8.3595501e-13
-0.00012618659
-1.6275059e-05
6.1646478e-13
-0.00011792542
-2.049419e-05
4.702767e-13
-0.00010819372
-2.4169171e-05
1.2563333e-13
-9.7267976e-05
-2.7131126e-05
-5.4779148e-13
-8.5480819e-05
-2.923044e-05
-1.2887714e-12
-7.3209659e-05
-3.0348275e-05
-1.5662702e-12
-6.0861264e-05
-3.0407485e-05
-1.0844399e-12
-4.8852712e-05
-2.9382075e-05
-2.0097588e-13
-3.7589392e-05
-2.7304525e-05
3.0413069e-13
-2.7440995e-05
-2.4270674e-05
7.3806894e-14
-1.8716524e-05
-2.044242e-05
-2.4775908e-13
-1.1639401e-05
-1.604925e-05
4.1830166e-13
-6.323582e-06
-1.1390652e-05
2.2897667e-12
-2.7515705e-06
-6.8419001e-06
4.2140964e-12
-7.5717909e-07
-2.8629521e-06
4.723486e-12
-9.544227e-09
-1.7938198e-08
4.0168989e-12
9.6421014e-07
3.0308423e-12
-1.2279523e-06
1.8322863e-06
-1.473615e-11
-4.7880231e-06
7.654077e-06
4.1491622e-12
-1.0521319e-05
1.4145979e-05
-6.4029437e-12
-1.8213912e-05
2.0448687e-05
-7.486682e-12
-2.7603267e-05
2.6091079e-05
-5.0894574e-12
-3.8395336e-05
3.0823408e-05
-4.339335e-12
-5.0281775e-05
3.4544395e-05
-3.9664526e-12
-6.2953164e-05
3.7243904e-05
-3.4650542e-12
-7.610707e-05
3.8957959e-05
-2.987259e-12
-8.9451458e-05
3.9738625e-05
-2.5709851e-12
-0.00010270482
3.9636061e-05
-2.1724552e-12
-0.00011559455
3.8689806e-05
-1.7468809e-12
-0.00012785506
3.6926977e-05
-1.2782359e-12
-0.00013922665
3.436535e-05
-7.965988e-13
-0.00014945597
3.1019567e-05
-3.5732976e-13
-0.00015829851
2.6908978e-05
1.4639481e-14
-0.00016552313
2.2065918e-05
3.6174906e-13
-0.00017091856
1.6543446e-05
7.6227451e-13
-0.00017430139
1.0421814e-05
1.2434693e-12
-0.00017552519
3.8130953e-06
1.7232528e-12
-0.00017449006
-3.136653e-06
2.0544788e-12
-0.00017115197
-1.0247676e-05
2.1455179e-12
-0.0001655311
-1.7309527e-05
2.0950717e-12
-0.00015771846
-2.4087702e-05
2.1327882e-12
-0.00014788006
-3.03326e-05
2.407328e-12
-0.00013625779
-3.579144e-05
2.7866818e-12
-0.0001231665
-4.0222411e-05
2.9125434e-12
-0.00010898662
-4.3410322e-05
2.5519356e-12
-9.4152069e-05
-4.5182834e-05
1.9419337e-12
-7.9133471e-05
-4.542609e-05
1.6979602e-12
-6.4417006e-05
-4.4098545e-05
2.2150447e-12
-5.0479598e-05
-4.1241932e-05
3.119747e-12
-3.7761615e-05
-3.6988652e-05
3.5098971e-12
-2.6638497e-05
-3.1565536e-05
2.9339635e-12
-1.7393e-05
-2.5294755e-05
2.0473442e-12
-1.0189851e-05
-1.8593814e-05
2.1626716e-12
-5.0547296e-06
-1.1977028e-05
3.8032721e-12
-1.8598449e-06
-6.0578331e-06
4.2906637e-12
-3.2223785e-07
-1.5555408e-06
7.8163986e-13
6.4196338e-07
5.6066659e-12
-1.6931318e-06
3.5254348e-06
-1.7177277e-11
-6.3712596e-06
1.2332194e-05
9.6191088e-12
-1.3671113e-05
2.1445837e-05
-5.3928152e-12
-2.3233462e-05
3.0011044e-05
-7.5485647e-12
-3.4694334e-05
3.7551955e-05
-4.8218926e-12
-4.7688559e-05
4.3817636e-05
-4.2545044e-12
-6.1855876e-05
4.8711715e-05
-4.1225642e-12
-7.6846017e-05
5.2234048e-05
-3.7330884e-12
-9.232141e-05
5.4433355e-05
-3.2975904e-12
-0.00010795741
5.5374622e-05
-2.897305e-12
-0.00012344071
5.5119364e-05
-2.5215008e-12
-0.00013846706
5.3716161e-05
-2.1408202e-12
-0.00015273925
5.1199167e-05
-1.7135989e-12
-0.00016596626
4.7592359e-05
-1.2226791e-12
-0.0001778642
4.2917509e-05
-7.0578863e-13
-0.00018815931
3.7204085e-05
-2.3420915e-13
-0.000196593
3.049961e-05
1.5475157e-13
-0.00020292886
2.2879306e-05
5.0706345e-13
-0.00020696114
1.4454097e-05
9.2049575e-13
-0.00020852435
5.3762959e-06
1.4423236e-12
-0.00020750329
-4.1577162e-06
1.986043e-12
-0.00020384303
-1.3907939e-05
2.3715838e-12
-0.00019755805
-2.3594501e-05
2.4732435e-12
-0.00018873984
-3.2905914e-05
2.3810905e-12
-0.00017756211
-4.1510343e-05
2.3720778e-12
-0.00016428285
-4.90707e-05
2.6616265e-12
-0.0001492425
-5.526276e-05
3.1342561e-12
-0.00013285731
-5.9795518e-05
3.3663133e-12
-0.00011560749
-6.243265e-05
3.0325714e-12
-9.801998e-05
-6.3013605e-05
2.3505763e-12
-8.0645828e-05
-6.1472705e-05
2.0195307e-12
-6.4033127e-05
-5.7854639e-05
2.5271649e-12
-4.8696698e-05
-5.2325081e-05
3.4934342e-12
-3.5086402e-05
-4.5175828e-05
3.9095754e-12
-2.355637e-05
-3.6824785e-05
3.2463642e-12
-1.433771e-05
-2.7812482e-05
2.5345087e-12
-7.5174242e-06
-1.8797325e-05
3.5672104e-12
-3.0267097e-06
-1.054855e-05
3.584015e-12
-6.4249003e-07
-3.9397522e-06
-1.6506667e-12
-5.3601558e-10
8.4335426e-12
-2.132882e-06
5.6583362e-06
-1.9913732e-11
-7.890867e-06
1.8090163e-05
1.4454694e-11
-1.6716955e-05
3.0271928e-05
-4.613911e-12
-2.8104976e-05
4.1399072e-05
-7.5713882e-12
-4.1583953e-05
5.1030935e-05
-4.3424407e-12
-5.6712584e-05
5.894627e-05
-3.8126956e-12
-7.3076284e-05
6.5075418e-05
-3.8279788e-12
-9.0284633e-05
6.9442401e-05
-3.5126628e-12
-0.0001079684
7.2117127e-05
-3.1124104e-12
-0.00012577589
7.3182111e-05
-2.7170702e-12
-0.00014336892
7.2712396e-05
-2.3344852e-12
-0.00016041918
7.0766423e-05
-1.974528e-12
-0.00017660557
6.738556e-05
-1.6133241e-12
-0.00019161319
6.2599975e-05
-1.2010588e-12
-0.00020513428
5.6438602e-05
-7.1466469e-13
-0.00021687139
4.8941189e-05
-1.9873086e-13
-0.00022654254
4.0170759e-05
2.5885521e-13
-0.00023388837
3.0225137e-05
6.0622875e-13
-0.00023868078
1.9246513e-05
8.9020906e-13
-0.00024073276
7.4282677e-06
1.2285473e-12
-0.00023990883
-4.9816462e-06
1.6930868e-12
-0.00023613568
-1.768109e-05
2.2118491e-12
-0.00022941239
-3.0317795e-05
2.5666186e-12
-0.00021981939
-4.2498913e-05
2.5918514e-12
-0.00020752552
-5.3804217e-05
2.3671049e-12
-0.00019279211
-6.3804119e-05
2.2164856e-12
-0.00017597315
-7.2081722e-05
2.4304232e-12
-0.00015751055
-7.8258126e-05
2.9247168e-12
-0.00013792349
-8.20197e-05
3.2249316e-12
-0.00011779154
-8.3145553e-05
2.9235002e-12
-9.7731205e-05
-8.1533049e-05
2.2164809e-12
-7.8366779e-05
-7.7219073e-05
1.8615261e-12
-6.0296875e-05
-7.0394992e-05
2.3944272e-12
-4.4058836e-05
-6.1413867e-05
3.3579903e-12
-3.0093986e-05
-5.0789632e-05
3.6383202e-12
-1.8717007e-05
-3.918946e-05
3.300174e-12
-1.0092929e-05
-2.7421412e-05
4.1914625e-12
-4.2252685e-06
-1.6416217e-05
3.1630731e-12
-9.58477e-07
-7.2065361e-06
-4.7581058e-12
-9.5902199e-07
1.0490669e-11
-2.5449829e-06
8.2033412e-06
-2.2670744e-11
-9.3285836e-06
2.4873744e-05
1.8768565e-11
-1.9614811e-05
4.0558158e-05
-4.1042401e-12
-3.2755928e-05
5.4540196e-05
-7.8124719e-12
-4.8174537e-05
6.6449546e-05
-4.116058e-12
-6.535227e-05
7.6124006e-05
-3.6231025e-12
-8.381982e-05
8.3542971e-05
-3.777531e-12
-0.00010314779
8.8770375e-05
-3.549044e-12
-0.00012293828
9.1907615e-05
-3.2204561e-12
-0.00014281711
9.3060946e-05
-2.8691083e-12
-0.00016242702
9.2322307e-05
-2.4865816e-12
-0.0001814221
8.9761511e-05
-2.107208e-12
-0.00019946407
8.5427524e-05
-1.7547499e-12
-0.00021622051
7.9356415e-05
-1.4013385e-12
-0.00023136547
7.1583563e-05
-9.871918e-13
-0.00024458225
6.2157973e-05
-4.8255468e-13
-0.00025556836
5.1156866e-05
6.3639671e-14
-0.00026404235
3.8699125e-05
5.4763087e-13
-0.00026975233
2.4956494e-05
8.9905317e-13
-0.00027248581
1.0161743e-05
1.1582213e-12
-0.00027208052
-5.3869318e-06
1.4583012e-12
-0.00026843577
-2.1325846e-05
1.9172691e-12
-0.00026152407
-3.72295e-05
2.4578499e-12
-0.00025140204
-5.262094e-05
2.843926e-12
-0.00023822001
-6.6986245e-05
2.8626697e-12
-0.0002222291
-7.9795034e-05
2.5689572e-12
-0.00020378457
-9.0526262e-05
2.3211688e-12
-0.00018334405
-9.8698653e-05
2.479045e-12
-0.00016145933
-0.00010390442
2.9950018e-12
-0.00013876069
-0.00010584419
3.3616123e-12
-0.00011593325
-0.00010436049
3.1142758e-12
-9.3685898e-05
-9.9466425e-05
2.4407048e-12
-7.2714196e-05
-9.1366701e-05
2.12178e-12
-5.3659866e-05
-8.0468205e-05
2.5940174e-12
-3.70705e-05
-6.7378998e-05
3.2292922e-12
-2.3363594e-05
-5.2896363e-05
3.6843955e-12
-1.2799134e-05
-3.7985876e-05
5.215694e-12
-5.4648084e-06
-2.3750549e-05
3.2425634e-12
-1.2772425e-06
-1.1394096e-05
-7.9280618e-12
-2.2362753e-06
1.2770442e-11
-2.9283964e-06
1.1131762e-05
-2.5362476e-11
-1.0673363e-05
3.2618687e-05
2.2637827e-11
-2.2335532e-05
5.222033e-05
-3.7582956e-12
-3.7134916e-05
6.9339587e-05
-8.1516822e-12
-5.4392572e-05
8.3707206e-05
-4.0146519e-12
-7.3515569e-05
9.5247006e-05
-3.5462607e-12
-9.3981696e-05
0.0001040091
-3.8085543e-12
-0.0001153248
0.00011011348
-3.6384663e-12
-0.00013712146
0.00011370428
-3.3760747e-12
-0.00015897928
0.00011491877
-3.0956634e-12
-0.00018052702
0.00011387005
-2.7506519e-12
-0.00020140692
0.00011064141
-2.3580948e-12
-0.00022126937
0.00010528998
-1.9699354e-12
-0.00023977015
9.7857194e-05
-1.6134907e-12
-0.00025657003
8.8383447e-05
-1.2579487e-12
-0.00027133688
7.6924813e-05
-8.3345873e-13
-0.00028374983
6.3569819e-05
-3.0138862e-13
-0.00029350558
4.8454872e-05
2.8941991e-13
-0.00030032634
3.1777261e-05
8.1996355e-13
-0.00030396953
1.3804935e-05
1.1923332e-12
-0.00030423888
-5.1175886e-06
1.4293292e-12
-0.00030099649
-2.4568243e-05
1.7110913e-12
-0.00029417631
-4.4049684e-05
2.1541454e-12
-0.00028379738
-6.2999869e-05
2.7169508e-12
-0.00026997673
-8.0806893e-05
3.1465491e-12
-0.00025294046
-9.683131e-05
3.1809943e-12
-0.00023303145
-0.00011043527
2.8434133e-12
-0.00021071197
-0.00012101814
2.5126337e-12
-0.00018655917
-0.00012805722
2.6033106e-12
-0.00016125187
-0.0001311515
3.1010143e-12
-0.00013554753
-0.00013006482
3.4877809e-12
-0.00011024953
-0.00012476443
3.2927057e-12
-8.6165897e-05
-0.00011545034
2.7212303e-12
-6.4062657e-05
-0.00010257145
2.4291152e-12
-4.4615941e-05
-8.682572e-05
2.5833135e-12
-2.836808e-05
-6.9144225e-05
3.39579e-12
-1.5692912e-05
-5.0661046e-05
5.9515099e-12
-6.775122e-06
-3.2668341e-05
3.5784675e-12
-1.6070133e-06
-1.6562195e-05
-1.0862548e-11
-3.8433035e-06
1.5213374e-11
-3.2816028e-06
1.4413392e-05
-2.7935642e-11
-1.1915523e-05
4.125258e-05
2.6087742e-11
-2.4854796e-05
6.5159605e-05
-3.5326618e-12
-4.1198746e-05
8.5683544e-05
-8.5347419e-12
-6.0174618e-05
0.00010268308
-3.9831267e-12
-8.1119998e-05
0.00011619239
-3.5351074e-12
-0.00010346347
0.00012635258
-3.8857633e-12
-0.00012670546
0.00013335547
-3.7422538e-12
-0.00015040064
0.00013739947
-3.5118159e-12
-0.00017414257
0.0001386607
-3.2938455e-12
-0.00019755085
0.00013727832
-3.0179473e-12
-0.0002202611
0.00013335166
-2.6590449e-12
-0.00024191786
0.00012694675
-2.2480265e-12
-0.00026217027
0.0001181096
-1.8419065e-12
-0.00028067044
0.00010688362
-1.4736474e-12
-0.00029707432
9.3328695e-05
-1.1115234e-12
-0.00031104479
7.7540293e-05
-6.7639643e-13
-0.00032225688
5.9666955e-05
-1.1644052e-13
-0.00033040491
3.9925292e-05
5.2307667e-13
-0.00033521173
1.8611754e-05
1.0969708e-12
-0.00033644001
-3.8893088e-06
1.4685904e-12
-0.00033390481
-2.7103446e-05
1.7315013e-12
-0.00032748931
-5.0465185e-05
1.9772502e-12
-0.00031716056
-7.3328624e-05
2.388509e-12
-0.00030298638
-9.4981079e-05
2.955718e-12
-0.00028515135
-0.00011466634
3.4152383e-12
-0.00026397019
-0.00013161643
3.4667094e-12
-0.00023989616
-0.00014509217
3.1024209e-12
-0.00021352193
-0.00015443146
2.7073546e-12
-0.00018557045
-0.00015910299
2.7252493e-12
-0.0001568738
-0.00015876147
3.1613005e-12
-0.0001283394
-0.00015329883
3.5240058e-12
-0.00010090433
-0.0001428854
3.3985975e-12
-7.5481199e-05
-0.00012799459
2.8991587e-12
-5.290027e-05
-0.00010940666
2.3848867e-12
-3.3854565e-05
-8.8189936e-05
2.9367369e-12
-1.8854484e-05
-6.5661131e-05
6.2726731e-12
-8.1981354e-06
-4.3324691e-05
3.7297206e-12
-1.9611335e-06
-2.2799183e-05
-1.3886887e-11
-5.8044556e-06
1.794368e-11
-3.6021972e-06
1.8015619e-05
-3.0340159e-11
-1.3044497e-05
5.0694848e-05
2.9122414e-11
-2.7148518e-05
7.9263629e-05
-3.4159328e-12
-4.4905912e-05
0.00010344095
-8.9499871e-12
-6.5459698e-05
0.00012323687
-4.0111872e-12
-8.8084837e-05
0.00013881753
-3.5863902e-12
-0.0001121658
0.00015043354
-4.029021e-12
-0.00013717381
0.00015836348
-3.9081316e-12
-0.00016264567
0.00016287133
-3.6819139e-12
-0.00018816514
0.00016418018
-3.490721e-12
-0.00021334731
0.00016246049
-3.276232e-12
-0.0002378262
0.00015783055
-2.9892824e-12
-0.00026124563
0.00015036618
-2.6127435e-12
-0.00028325316
0.00014011714
-2.176448e-12
-0.00030349683
0.00012712729
-1.7434737e-12
-0.00032162441
0.00011145628
-1.3548325e-12
-0.00033728501
9.3200892e-05
-9.7994384e-13
-0.00035013284
7.2514782e-05
-5.3097692e-13
-0.00035983321
4.9625665e-05
5.7194539e-14
-0.00036607089
2.4849429e-05
7.2813092e-13
-0.00036856154
-1.3986579e-06
1.298187e-12
-0.0003670641
-2.8600885e-05
1.8043532e-12
-0.00036139938
-5.6129909e-05
2.0616179e-12
-0.00035146791
-8.3260096e-05
2.2673897e-12
-0.00033727154
-0.00010917745
2.6384314e-12
-0.00031893506
-0.00013300282
3.1867852e-12
-0.00029672639
-0.0001538251
3.6518959e-12
-0.00027107244
-0.00017074612
3.7119666e-12
-0.00024256736
-0.00018293653
3.3367851e-12
-0.00021196959
-0.00018970077
2.9024668e-12
-0.0001801845
-0.00019054656
2.8490035e-12
-0.0001482308
-0.00018525254
3.1995209e-12
-0.00011719079
-0.00017392541
3.5324902e-12
-8.8147484e-05
-0.0001570379
3.3861251e-12
-6.211436e-05
-0.00013543978
2.6444769e-12
-3.9965839e-05
-0.00011033846
2.8100386e-12
-2.237725e-05
-8.3249728e-05
6.5669074e-12
-9.7825336e-06
-5.5919409e-05
3.6363786e-12
-2.3546579e-06
-3.022704e-05
-1.7348478e-11
-8.1591349e-06
2.1034116e-11
-3.8869389e-06
2.190259e-05
-3.252714e-11
-1.4048266e-05
6.0856142e-05
3.1740498e-11
-2.9191247e-05
9.4406613e-05
-3.3983393e-12
-4.8213954e-05
0.00012246366
-9.3941933e-12
-7.0185964e-05
0.00014520888
-4.094599e-12
-9.4327579e-05
0.00016295915
-3.6834952e-12
-0.00011998511
0.00017609108
-4.220845e-12
-0.00014660535
0.00018498373
-4.1406047e-12
-0.00017371155
0.00018997753
-3.9205553e-12
-0.00020088194
0.00019135057
-3.7269366e-12
-0.00022773162
0.00018931018
-3.5337747e-12
-0.00025389785
0.00018399678
-3.309148e-12
-0.00027902879
0.00017549713
-3.0105817e-12
-0.00030277553
0.00016386388
-2.6131156e-12
-0.00032478685
0.00014913862
-2.1453777e-12
-0.00034470667
0.0001313761
-1.6767259e-12
-0.0003621737
0.00011066793
-1.2571567e-12
-0.00037682347
8.7164545e-05
-8.6154124e-13
-0.0003882927
6.1094903e-05
-3.9683934e-13
-0.00039622659
3.2783312e-05
2.2818561e-13
-0.00040028879
2.6635476e-06
1.0046331e-12
-0.00040017645
-2.8713225e-05
1.6632227e-12
-0.00039563686
-6.0669503e-05
2.1495632e-12
-0.00038649046
-9.2406497e-05
2.4079922e-12
-0.00037265609
-0.00012301183
2.589789e-12
-0.00035417885
-0.00015148006
2.9136488e-12
-0.00033125815
-0.0001767458
3.4161986e-12
-0.00030427271
-0.00019773157
3.8516131e-12
-0.00027379843
-0.00021341082
3.8985658e-12
-0.00024061432
-0.00022288487
3.5176637e-12
-0.00020569181
-0.00022546908
3.0625915e-12
-0.00017016361
-0.00022078075
2.9561821e-12
-0.00013527098
-0.00020881804
3.2462426e-12
-0.00010229167
-0.00019001721
3.4305345e-12
-7.2454767e-05
-0.00016527669
2.8704895e-12
-4.6852542e-05
-0.00013594069
2.9825134e-12
-2.6360942e-05
-0.00010374134
7.1656647e-12
-1.1580257e-05
-7.0700098e-05
3.5302745e-12
-2.803269e-06
-3.9004005e-05
-2.1396454e-11
-1.0962428e-05
2.4502268e-11
-4.1320032e-06
2.6034627e-05
-3.4453061e-11
-1.4913696e-05
7.1637799e-05
3.3938394e-11
-3.0956312e-05
0.00011044923
-3.4587815e-12
-5.1079326e-05
0.00014258668
-9.857387e-12
-7.4290373e-05
0.00016841993
-4.2362641e-12
-9.9763619e-05
0.00018843239
-3.8192775e-12
-0.00012681356
0.00020314102
-4.4347144e-12
-0.00015486756
0.00021303773
-4.4093755e-12
-0.00018343959
0.00021854956
-4.2210522e-12
-0.00021210658
0.00022001756
-4.0295714e-12
-0.00024048798
0.00021769159
-3.8260223e-12
-0.00026822898
0.00021173778
-3.6174557e-12
-0.00029498714
0.00020225528
-3.3827265e-12
-0.00032042229
0.00018929904
-3.0708245e-12
-0.00034418933
0.00017290566
-2.6496903e-12
-0.00036593342
0.00015312019
-2.1457074e-12
-0.00038528754
0.00013002205
-1.6332544e-12
-0.00040187239
0.00010374939
-1.1733678e-12
-0.00041529877
7.4521281e-05
-7.4874788e-13
-0.00042517311
4.2657657e-05
-2.4602689e-13
-0.00043110638
8.5968205e-06
4.5216627e-13
-0.00043272878
-2.709083e-05
1.1803666e-12
-0.00042970693
-6.3691359e-05
1.9281342e-12
-0.00042176921
-0.00010034422
2.4826121e-12
-0.00040873507
-0.00013604597
2.7716153e-12
-0.00039054912
-0.00016966601
2.9404414e-12
-0.00036731768
-0.00019997725
3.2112519e-12
-0.00033934447
-0.00022570478
3.6379132e-12
-0.00030716058
-0.00024559471
3.999755e-12
-0.00027154262
-0.00025850283
3.9994029e-12
-0.0002335124
-0.0002634993
3.6041478e-12
-0.00019431198
-0.00025998117
3.1570923e-12
-0.00015535052
-0.00024777951
3.0614458e-12
-0.00011812345
-0.00022724428
3.1721851e-12
-8.4110532e-05
-0.0001992896
2.7492037e-12
-5.4664634e-05
-0.00016538659
3.1078838e-12
-3.090686e-05
-0.00012749912
8.0515418e-12
-1.3644484e-05
-8.7962479e-05
3.5905888e-12
-3.3229393e-06
-4.9325523e-05
-2.6036507e-11
-1.4285395e-05
2.8458851e-11
-4.3333419e-06
3.0368004e-05
-3.6084384e-11
-1.5627398e-05
8.2931818e-05
3.5701993e-11
-3.2417102e-05
0.00012723894
-3.5703982e-12
-5.3458997e-05
0.00016362859
-1.0317057e-11
-7.7710588e-05
0.00019267153
-4.4370655e-12
-0.00010430854
0.00021503035
-4.0025425e-12
-0.00013254184
0.00023137433
-4.6645233e-12
-0.00016182326
0.00024231915
-4.6847723e-12
-0.00019166162
0.00024838793
-4.5482203e-12
-0.00022163643
0.00024999238
-4.3895396e-12
-0.00025137564
0.0002474308
-4.1829963e-12
-0.00028053685
0.000240899
-3.956233e-12
-0.000308792
0.00023051044
-3.7314372e-12
-0.00033581521
0.00021632225
-3.4832501e-12
-0.00036127331
0.00019836376
-3.1550636e-12
-0.00038481885
0.00017666573
-2.708012e-12
-0.00040608528
0.00015128848
-2.1642591e-12
-0.00042468439
0.00012234851
-1.6019223e-12
-0.0004402064
9.0043293e-05
-1.090605e-12
-0.0004522232
5.4674461e-05
-6.1473819e-13
-0.00046029565
1.6669265e-05
-7.264571e-14
-0.0004639863
-2.3400175e-05
5.8345008e-13
-0.00046287738
-6.4800277e-05
1.3969918e-12
-0.00045659653
-0.00010662507
2.2121082e-12
-0.00044484949
-0.00014779301
2.8231077e-12
-0.00042745987
-0.00018705564
3.148295e-12
-0.00040441436
-0.00022302276
3.3098496e-12
-0.0003759102
-0.00025420894
3.5172851e-12
-0.00034239967
-0.00027910525
3.8336071e-12
-0.00030462426
-0.00029627825
4.0717276e-12
-0.0002636296
-0.00030449396
3.9815723e-12
-0.00022075196
-0.00030285882
3.5798614e-12
-0.00017756907
-0.0002909624
3.2166106e-12
-0.00013581304
-0.00026900031
3.0036467e-12
-9.7250515e-05
-0.00023785213
2.4045364e-12
-6.3543905e-05
-0.0001990932
2.9929569e-12
-3.6114154e-05
-0.00015492888
9.0270031e-12
-1.6028317e-05
-0.00010804832
3.7821922e-12
-3.9297755e-06
-6.1424033e-05
-3.1316548e-11
-1.8215203e-05
3.3088953e-11
-4.4871164e-06
3.4855157e-05
-3.7393399e-11
-1.6176945e-05
9.4621608e-05
3.7004641e-11
-3.3549126e-05
0.00014461112
-3.7127585e-12
-5.5313301e-05
0.00018539277
-1.074192e-11
-8.0388576e-05
0.00021774681
-4.682897e-12
-0.00010788244
0.00024252422
-4.2403721e-12
-0.00013706431
0.0002605562
-4.9235568e-12
-0.00016733676
0.00027259161
-4.9616329e-12
-0.00019820713
0.0002792583
-4.8686113e-12
-0.00022926102
0.00028104628
-4.765092e-12
-0.0002601386
0.00027830839
-4.5905349e-12
-0.00029051416
0.00027127456
-4.3559369e-12
-0.00032007893
0.00026007522
-4.1045809e-12
-0.00034852695
0.00024477027
-3.8575053e-12
-0.00037554344
0.00022538025
-3.5892932e-12
-0.00040079547
0.00020191777
-3.2402293e-12
-0.00042392473
0.00017441774
-2.7644491e-12
-0.00044454232
0.00014296611
-2.1782536e-12
-0.00046222618
0.00010772716
-1.5583678e-12
-0.00047652159
6.8969869e-05
-9.7906167e-13
-0.00048694588
2.7093564e-05
-4.4311106e-13
-0.00049299874
-1.7347322e-05
1.1967239e-13
-0.00049417887
-6.3620145e-05
8.2233462e-13
-0.00049000924
-0.0001107947
1.6720074e-12
-0.00048007139
-0.00015773086
2.5260486e-12
-0.00046404959
-0.00020307744
3.1797953e-12
-0.00044178401
-0.00024528835
3.5328074e-12
-0.0004133304
-0.00028266256
3.6782937e-12
-0.00037902105
-0.0003134146
3.8011209e-12
-0.00033951893
-0.00033578037
3.9643633e-12
-0.00029585366
-0.00034815924
4.0246787e-12
-0.00024942652
-0.00034928596
3.8344124e-12
-0.00020197229
-0.00033841663
3.499491e-12
-0.00015547075
-0.00031550185
3.0597266e-12
-0.00011201007
-0.00028131282
2.098035e-12
-7.3616484e-05
-0.00023748679
2.7321469e-12
-4.2076415e-05
-0.00018646895
1.0006435e-11
-1.8783735e-05
-0.000131341
3.9777949e-12
-4.639942e-06
-7.5567788e-05
-3.7400814e-11
-2.2855183e-05
3.8552181e-11
-4.5901844e-06
3.9445379e-05
-3.8352158e-11
-1.6552339e-05
0.00010658372
3.7817114e-11
-3.4332634e-05
0.00016239142
-3.8806927e-12
-5.6609726e-05
0.00020766987
-1.1107173e-11
-8.2275525e-05
0.00024341261
-4.948e-12
-0.000110416
0.00027066469
-4.5226604e-12
-0.00014028619
0.0002904264
-5.2240196e-12
-0.00017128226
0.00030358767
-5.257964e-12
-0.00020291312
0.00031088917
-5.1781772e-12
-0.00023477344
0.0003129066
-5.1186188e-12
-0.0002665189
0.00031005385
-4.9983575e-12
-0.00029784438
0.00030260004
-4.793632e-12
-0.00032846518
0.00029069604
-4.5290304e-12
-0.000358101
0.0002744061
-4.2451748e-12
-0.0003864623
0.00025374155
-3.9654447e-12
-0.00041323871
0.00022869419
-3.6674345e-12
-0.0004380894
0.00019926843
-3.2899431e-12
-0.00046063516
0.00016551187
-2.78082e-12
-0.0004804529
0.00012754491
-2.1481055e-12
-0.00049707304
8.5590006e-05
-1.4631589e-12
-0.0005099808
4.0001334e-05
-8.083321e-13
-0.00051862306
-8.7050626e-06
-2.0490327e-13
-0.00052242212
-5.9821085e-05
4.1329284e-13
-0.00052079855
-0.00011241827
1.1522225e-12
-0.00051320499
-0.00016532441
2.0231127e-12
-0.00049917253
-0.0002171099
2.8928226e-12
-0.00047837007
-0.00026609081
3.5600228e-12
-0.00045067548
-0.00031035715
3.9121286e-12
-0.00041625416
-0.00034783591
4.0117726e-12
-0.00037563654
-0.000376398
4.0084902e-12
-0.00032978149
-0.00039401429
3.9643181e-12
-0.0002801086
-0.00039895885
3.8349518e-12
-0.00022848099
-0.00039004425
3.624851e-12
-0.00017712401
-0.00036685884
3.1560284e-12
-0.00012847606
-0.00032996077
1.8816507e-12
-8.4984509e-05
-0.00028097834
2.4807848e-12
-4.8878007e-05
-0.00022257547
1.108091e-11
-2.1960532e-05
-0.00015825848
4.1336843e-12
-5.4696016e-06
-9.2058673e-05
-4.4486133e-11
-2.832483e-05
4.4952496e-11
-4.6406322e-06
4.4086049e-05
-3.8934483e-11
-1.6747678e-05
0.00011869073
3.8124793e-11
-3.4755677e-05
0.00018039942
-4.0801301e-12
-5.732743e-05
0.00023024164
-1.1406861e-11
-8.3337785e-05
0.00026942297
-5.2122869e-12
-0.00011185777
0.00029918468
-4.8259401e-12
-0.00014213232
0.00032070096
-5.5597985e-12
-0.00017355412
0.00033500948
-5.5919409e-12
-0.00020563608
0.00034297114
-5.5006123e-12
-0.00023798431
0.00034525485
-5.4488157e-12
-0.00027027284
0.00034234238
-5.3660435e-12
-0.00030222068
0.00033454789
-5.210176e-12
-0.00033357172
0.00032204708
-4.9705529e-12
-0.00036407701
0.00030491139
-4.6660075e-12
-0.00039347934
0.00028314388
-4.3367628e-12
-0.00042149961
0.00025671446
-4.0103811e-12
-0.00044782482
0.00022559364
-3.668723e-12
-0.00047209766
0.00018978471
-3.2513042e-12
-0.00049390793
0.00014935519
-2.701253e-12
-0.00051278648
0.00010446855
-2.0166724e-12
-0.0005282025
5.5417364e-05
-1.2623192e-12
-0.00053956587
2.6583086e-06
-5.2203367e-13
-0.00054623638
-5.3150574e-05
1.5198174e-13
-0.00054754205
-0.0001111126
8.3383111e-13
-0.00054280976
-0.0001700567
1.6085601e-12
-0.00053141071
-0.00022850895
2.483035e-12
-0.00051282313
-0.00028467839
3.3318737e-12
-0.00048671268
-0.0003364676
3.9638227e-12
-0.00045302805
-0.00038152055
4.2608323e-12
-0.00041210416
-0.00041732189
4.2527277e-12
-0.00036475906
-0.00044135939
4.054716e-12
-0.00031236359
-0.00045135433
3.7894128e-12
-0.00025685809
-0.00044554975
3.5669802e-12
-0.00020069163
-0.00042302531
3.0978214e-12
-0.0001466695
-0.00038398289
1.5996421e-12
-9.7716288e-05
-0.00032993156
2.2368925e-12
-5.6589665e-05
-0.0002637021
1.2354274e-11
-2.5605015e-05
-0.00018924314
4.3012245e-12
-6.4348114e-06