/*--------------------------------*- C++ -*----------------------------------*\
  =========                 |
  \\      /  F ield         | OpenFOAM: The Open Source CFD Toolbox
   \\    /   O peration     | Website:  https://openfoam.org
    \\  /    A nd           | Version:  7
     \\/     M anipulation  |
\*---------------------------------------------------------------------------*/
FoamFile
{
    version     2.0;
    format      ascii;
    class       volVectorField;
    location    "21";
    object      U;
}
// * * * * * * * * * * * * * * * * * * * * * * * * * * * * * * * * * * * * * //

dimensions      [0 1 -1 0 0 0 0];

internalField   nonuniform List<vector> 
16000
(
(6.6005312e-05 -6.7367784e-05 -4.2829753e-07)
(0.00016269354 -5.6373402e-05 5.6701038e-06)
(0.00014189042 4.5595825e-07 1.9169277e-05)
(-5.0635372e-05 6.1886812e-05 3.6591204e-05)
(-0.00040997789 0.00011562763 5.4699111e-05)
(-0.00090901948 0.00015774006 7.1526837e-05)
(-0.0015176911 0.00018850053 8.5738301e-05)
(-0.00220685 0.00020960446 9.6518339e-05)
(-0.0029505479 0.00022287186 0.00010340663)
(-0.0037263929 0.00022980589 0.00010615631)
(-0.0045149595 0.0002314716 0.00010464017)
(-0.0052989033 0.00022849834 9.8795149e-05)
(-0.0060620651 0.00022114205 8.8596556e-05)
(-0.0067887189 0.00020937827 7.4054907e-05)
(-0.0074630548 0.00019300947 5.5228992e-05)
(-0.0080689412 0.0001717766 3.2249134e-05)
(-0.0085899813 0.00014546778 5.3452991e-06)
(-0.0090098526 0.00011401858 -2.5124684e-05)
(-0.0093129004 7.7599607e-05 -5.8651088e-05)
(-0.0094849456 3.6687863e-05 -9.4556326e-05)
(-0.0095142472 -7.8840337e-06 -0.00013199064)
(-0.0093925329 -5.4921156e-05 -0.00016994261)
(-0.0091160352 -0.0001028412 -0.00020726566)
(-0.0086864273 -0.0001497473 -0.00024272217)
(-0.0081115371 -0.00019350801 -0.00027504286)
(-0.0074057645 -0.00023187825 -0.00030299925)
(-0.0065901122 -0.00026264985 -0.00032548478)
(-0.0056917645 -0.00028381724 -0.00034159876)
(-0.0047431881 -0.00029374351 -0.00035072625)
(-0.0037807668 -0.00029131175 -0.00035260597)
(-0.00284304 -0.00027604539 -0.00034737882)
(-0.0019686559 -0.00024818067 -0.00033561251)
(-0.0011941624 -0.00020868501 -0.00031830204)
(-0.00055168144 -0.00015925472 -0.00029685043)
(-6.6511606e-05 -0.00010241406 -0.00027302561)
(0.00024491471 -4.177047e-05 -0.00024888605)
(0.00037891567 1.7841862e-05 -0.00022681624)
(0.00034974072 6.7086174e-05 -0.00020925436)
(0.00020614843 8.9882108e-05 -0.00019887048)
(5.7452165e-05 5.7426765e-05 -0.00018442626)
(5.7980139e-05 -0.00016707723 -6.6607257e-06)
(4.0841607e-05 -3.9987365e-05 -4.0831884e-07)
(-0.00029500313 0.00024854742 1.122476e-05)
(-0.0010110334 0.00056210614 2.5590249e-05)
(-0.0020992111 0.00084747562 4.0574622e-05)
(-0.0035140364 0.0010830954 5.458215e-05)
(-0.0051945936 0.0012642719 6.6485573e-05)
(-0.007076491 0.0013940353 7.5532581e-05)
(-0.0090979621 0.0014779261 8.124134e-05)
(-0.011202066 0.0015214911 8.3312208e-05)
(-0.013336741 0.0015291744 8.1561921e-05)
(-0.015453832 0.0015039391 7.5880572e-05)
(-0.017507753 0.0014473221 6.6209818e-05)
(-0.019454272 0.0013597457 5.2538827e-05)
(-0.021249669 0.0012409735 3.4913638e-05)
(-0.022850451 0.0010906344 1.3455442e-05)
(-0.02421367 0.00090875511 -1.161664e-05)
(-0.025297853 0.00069626063 -3.9962503e-05)
(-0.026064462 0.00045540591 -7.1101533e-05)
(-0.026479801 0.0001901072 -0.00010439978)
(-0.026517227 -9.3854969e-05 -0.00013906672)
(-0.026159419 -0.00038875688 -0.00017417085)
(-0.025400627 -0.00068506666 -0.00020865598)
(-0.024248663 -0.0009717318 -0.00024138926)
(-0.022726289 -0.0012366621 -0.00027121495)
(-0.020871944 -0.0014673886 -0.00029702204)
(-0.018739572 -0.0016518572 -0.00031781916)
(-0.016397442 -0.0017792984 -0.00033281094)
(-0.013925908 -0.0018410996 -0.00034146962)
(-0.011414148 -0.0018316017 -0.00034359538)
(-0.0089559777 -0.0017487519 -0.00033935886)
(-0.0066449383 -0.0015945602 -0.00032932001)
(-0.0045688842 -0.0013753551 -0.00031442049)
(-0.0028042475 -0.0011019354 -0.00029595142)
(-0.0014100494 -0.00078991463 -0.0002755016)
(-0.00042164717 -0.00046061061 -0.00025488272)
(0.00015576799 -0.00014258896 -0.00023600949)
(0.0003567135 0.00012230894 -0.00022090291)
(0.00027522116 0.00027115454 -0.00021166767)
(9.0095335e-05 0.00020512438 -0.0001954847)
(1.9084426e-06 -0.0001489747 -2.0446778e-05)
(-0.00025606605 0.00029699903 -1.1829574e-05)
(-0.001050456 0.0010235918 6.8382064e-08)
(-0.0023878013 0.0017974919 1.3048007e-05)
(-0.0042393733 0.002509841 2.6083695e-05)
(-0.0065454345 0.0031099807 3.8034603e-05)
(-0.0092249284 0.0035808375 4.8073786e-05)
(-0.012189728 0.0039233365 5.5640629e-05)
(-0.015352637 0.0041460832 6.0353466e-05)
(-0.018630621 0.0042594863 6.1955568e-05)
(-0.02194556 0.0042727102 6.0274001e-05)
(-0.025223655 0.0041923726 5.5191031e-05)
(-0.028394242 0.0040223711 4.6630432e-05)
(-0.031388636 0.0037644325 3.4557107e-05)
(-0.0341394 0.0034190894 1.8987102e-05)
(-0.036580268 0.0029868722 4.8273731e-09)
(-0.038646832 0.0024695537 -2.2215911e-05)
(-0.040277993 0.0018713233 -4.7390533e-05)
(-0.041418085 0.0011997902 -7.510533e-05)
(-0.042019531 0.00046673174 -0.00010480537)
(-0.042045811 -0.00031147549 -0.000135793)
(-0.041474548 -0.0011137633 -0.00016723339)
(-0.040300441 -0.0019148062 -0.00019817954)
(-0.038537739 -0.0026857757 -0.00022760806)
(-0.036222004 -0.0033955808 -0.00025447023)
(-0.033410911 -0.0040125014 -0.00027775525)
(-0.030183849 -0.0045061323 -0.00029656087)
(-0.026640165 -0.0048495101 -0.00031016523)
(-0.022896001 -0.0050212583 -0.00031809302)
(-0.019079726 -0.0050075688 -0.00032016983)
(-0.015326107 -0.0048038582 -0.00031655882)
(-0.011769415 -0.0044159965 -0.00030777513)
(-0.0085357483 -0.0038611006 -0.00029467389)
(-0.0057348605 -0.0031680445 -0.00027841124)
(-0.0034517281 -0.0023780681 -0.00026038237)
(-0.0017380103 -0.0015461754 -0.0002421405)
(-0.00060369292 -0.0007442177 -0.00022529166)
(-8.0303422e-06 -6.6410121e-05 -0.00021142765)
(0.00015539554 0.0003603657 -0.00020224195)
(7.3538206e-05 0.00035438363 -0.00018532754)
(-6.4687895e-05 5.0420509e-05 -3.8698184e-05)
(-0.00060838107 0.0010457308 -2.6161097e-05)
(-0.0019305134 0.0023816749 -1.21802e-05)
(-0.0039463665 0.0037564235 1.1121678e-06)
(-0.0065888786 0.0050151873 1.369992e-05)
(-0.0097789832 0.0060799096 2.4823663e-05)
(-0.013416817 0.0069203464 3.3946187e-05)
(-0.017395118 0.007533922 4.0732251e-05)
(-0.021607219 0.007931195 4.4945936e-05)
(-0.025950068 0.0081268347 4.6415374e-05)
(-0.030325113 0.0081345639 4.5009722e-05)
(-0.034637955 0.0079648032 4.062264e-05)
(-0.038797418 0.0076241866 3.3167132e-05)
(-0.042714644 0.0071163346 2.2581029e-05)
(-0.046302627 0.0064434002 8.8407054e-06)
(-0.049476474 0.0056080166 -8.019415e-06)
(-0.052154476 0.0046153524 -2.7884148e-05)
(-0.054260002 0.0034750493 -5.0534481e-05)
(-0.05572411 0.0022028628 -7.5627234e-05)
(-0.05648871 0.00082186223 -0.00010268091)
(-0.056510029 -0.0006369203 -0.00013107084)
(-0.055762174 -0.0021345067 -0.00016003222)
(-0.054240462 -0.0036246845 -0.00018868343)
(-0.051964192 -0.0050554542 -0.00021605764)
(-0.048978631 -0.0063712002 -0.00024115161)
(-0.045355878 -0.0075155096 -0.00026298724)
(-0.041194371 -0.0084345094 -0.00028068198)
(-0.036616836 -0.009080524 -0.00029352175)
(-0.031766574 -0.0094157955 -0.00030102836)
(-0.026802075 -0.0094159749 -0.00030301342)
(-0.021890081 -0.0090731029 -0.00029961264)
(-0.017197319 -0.0083978811 -0.00029129627)
(-0.012881208 -0.0074211803 -0.00027885344)
(-0.0090799513 -0.0061949369 -0.00026334912)
(-0.005902451 -0.004792863 -0.00024605505)
(-0.0034185135 -0.003311771 -0.00022836234)
(-0.0016495521 -0.0018745266 -0.00021169464)
(-0.00055979906 -0.00063474533 -0.00019744028)
(-5.0107717e-05 0.00021495166 -0.0001868347)
(3.8094422e-05 0.00041381391 -0.00016802426)
(-0.00013086487 0.0004455539 -5.8213816e-05)
(-0.00097093439 0.0022426332 -4.1150626e-05)
(-0.0028461539 0.0043590726 -2.4268723e-05)
(-0.0055646869 0.0064570462 -9.8368788e-06)
(-0.0090092255 0.0083532584 3.0811878e-06)
(-0.013075137 0.0099511935 1.4060698e-05)
(-0.017641833 0.011211458 2.283867e-05)
(-0.022584103 0.01212927 2.9310307e-05)
(-0.027778917 0.012717198 3.3398467e-05)
(-0.033107258 0.012993814 3.5030338e-05)
(-0.038454502 0.012977037 3.4128595e-05)
(-0.043710003 0.012680898 3.0604763e-05)
(-0.048766269 0.012114831 2.4361946e-05)
(-0.053518267 0.011284716 1.5306717e-05)
(-0.057863234 0.010195022 3.367877e-06)
(-0.061701244 0.008851544 -1.1480014e-05)
(-0.064936615 0.0072642913 -2.9190421e-05)
(-0.067480139 0.0054501985 -4.9618293e-05)
(-0.069252029 0.0034354014 -7.2495937e-05)
(-0.070185404 0.0012568695 -9.7414523e-05)
(-0.07023008 -0.001036766 -0.0001238145)
(-0.06935642 -0.0033853313 -0.00015098741)
(-0.067558941 -0.005718193 -0.00017809274)
(-0.064859375 -0.0079564276 -0.00020418937)
(-0.061308893 -0.010015997 -0.00022828291)
(-0.056989184 -0.011811852 -0.00024938695)
(-0.052012103 -0.013262787 -0.00026659489)
(-0.046517647 -0.014296789 -0.00027915627)
(-0.040670083 -0.014856537 -0.00028654908)
(-0.034652151 -0.014904652 -0.00028853824)
(-0.028657427 -0.014428284 -0.00028521175)
(-0.022881056 -0.013442687 -0.00027698935)
(-0.017509225 -0.011993609 -0.00026460252)
(-0.012707877 -0.010158568 -0.00024904698)
(-0.0086113616 -0.0080474026 -0.00023150826)
(-0.0053117195 -0.0058028967 -0.00021327046)
(-0.0028485264 -0.003602446 -0.00019564872)
(-0.001200042 -0.0016605576 -0.00017990458)
(-0.00028880355 -0.00023382386 -0.00016675812)
(-2.4665443e-06 0.00035043379 -0.00014552116)
(-0.00019286113 0.0010312829 -7.6693374e-05)
(-0.0013239561 0.003892435 -5.4791667e-05)
(-0.0037517653 0.006967818 -3.4587508e-05)
(-0.0071731179 0.0099105583 -1.8494564e-05)
(-0.011414512 0.012527067 -4.6993654e-06)
(-0.016341054 0.014714116 6.6628886e-06)
(-0.021809043 0.016430071 1.5579211e-05)
(-0.027675145 0.017671557 2.2164195e-05)
(-0.033801501 0.01845477 2.649631e-05)
(-0.040055788 0.01880273 2.8602322e-05)
(-0.046310617 0.018737602 2.8459514e-05)
(-0.052442686 0.01827695 2.5996915e-05)
(-0.058331839 0.017433009 2.1104887e-05)
(-0.063860416 0.016214109 1.3653233e-05)
(-0.068913233 0.014627488 3.5155397e-06)
(-0.073378349 0.012682833 -9.4021913e-06)
(-0.077148689 0.010396003 -2.513051e-05)
(-0.080124483 0.0077925087 -4.3605208e-05)
(-0.082216404 0.0049104017 -6.4638208e-05)
(-0.083349238 0.001802326 -8.7893676e-05)
(-0.083465874 -0.0014634777 -0.00011287283)
(-0.08253137 -0.0048033662 -0.0001389114)
(-0.080536841 -0.008119757 -0.00016519167)
(-0.07750288 -0.011303972 -0.00019077265)
(-0.073482187 -0.014240402 -0.00021463703)
(-0.068561106 -0.016811909 -0.00023575381)
(-0.062859733 -0.01890627 -0.00025315318)
(-0.056530284 -0.020423342 -0.00026600756)
(-0.049753456 -0.021282545 -0.00027371076)
(-0.042732605 -0.021430128 -0.00027594461)
(-0.035685728 -0.020845668 -0.0002727223)
(-0.028835442 -0.019547263 -0.00026440017)
(-0.022397363 -0.017595049 -0.00025165598)
(-0.016567514 -0.015092915 -0.00023543608)
(-0.011509697 -0.012188696 -0.00021687433)
(-0.0073438034 -0.0090735783 -0.00019719827)
(-0.0041345047 -0.0059816277 -0.00017768567)
(-0.0018815987 -0.0031890333 -0.00015957155)
(-0.00053619285 -0.0010143512 -0.00014317918)
(-4.1243571e-05 0.00015891889 -0.00011908419)
(-0.00025011019 0.0017985276 -9.2179494e-05)
(-0.001659729 0.0059839873 -6.5291668e-05)
(-0.0046243324 0.010198348 -4.1605995e-05)
(-0.0087319332 0.014106645 -2.3551778e-05)
(-0.01375123 0.017521869 -8.5139775e-06)
(-0.019514547 0.020346576 3.62444e-06)
(-0.02585344 0.022545327 1.307522e-05)
(-0.032606124 0.024121369 2.0154388e-05)
(-0.039620811 0.025097455 2.5084153e-05)
(-0.046753755 0.025502522 2.7982817e-05)
(-0.053867363 0.025363585 2.8876066e-05)
(-0.060828639 0.024701922 2.7704694e-05)
(-0.067507874 0.023532602 2.434012e-05)
(-0.07377786 0.021866464 1.8608203e-05)
(-0.079513849 0.019713681 1.0319096e-05)
(-0.084594372 0.01708813 -6.9858899e-07)
(-0.088902921 0.014011967 -1.4561122e-05)
(-0.092330446 0.010519844 -3.1292591e-05)
(-0.094778545 0.0066624281 -5.0789889e-05)
(-0.0961632 0.0025088699 -7.2792658e-05)
(-0.096418893 -0.0018519648 -9.6861731e-05)
(-0.095502866 -0.0063117023 -0.00012237086)
(-0.093399357 -0.010744197 -0.000148513)
(-0.090123514 -0.01500894 -0.00017432806)
(-0.085724674 -0.018956105 -0.00019874916)
(-0.080288672 -0.022433193 -0.0002206678)
(-0.073938789 -0.025293068 -0.00023901345)
(-0.066834929 -0.02740307 -0.00025284125)
(-0.059170617 -0.028654688 -0.00026141958)
(-0.051167541 -0.02897317 -0.00026430706)
(-0.043067457 -0.028326324 -0.00026140718)
(-0.035121583 -0.026731738 -0.00025298952)
(-0.02757789 -0.024261771 -0.00023967229)
(-0.02066703 -0.021045927 -0.00022236694)
(-0.014588129 -0.017270634 -0.0002021888)
(-0.0094956742 -0.013177067 -0.00018035798)
(-0.0054864143 -0.0090578537 -0.00015818097)
(-0.0025879307 -0.0052521964 -0.00013695024)
(-0.00078446955 -0.0021405499 -0.00011666863)
(-7.6875234e-05 -0.00016056093 -8.9461726e-05)
(-0.00030294759 0.0027364604 -0.0001030026)
(-0.0019754433 0.0084978806 -7.1034206e-05)
(-0.0054519885 0.014028205 -4.3887152e-05)
(-0.010217687 0.019020883 -2.3743139e-05)
(-0.015984735 0.023310474 -7.2484879e-06)
(-0.022552172 0.026817484 5.9398923e-06)
(-0.029726364 0.029521652 1.6236557e-05)
(-0.037327185 0.031438956 2.4139316e-05)
(-0.045189758 0.032602562 2.9998196e-05)
(-0.053160462 0.033049533 3.4010099e-05)
(-0.061093622 0.032812872 3.6238208e-05)
(-0.068849047 0.031918043 3.6625468e-05)
(-0.076290157 0.03038306 3.5015407e-05)
(-0.083282854 0.028221211 3.1181091e-05)
(-0.089695285 0.025445463 2.4860065e-05)
(-0.095398519 0.022073722 1.579386e-05)
(-0.10026812 0.01813424 3.770502e-06)
(-0.10418653 0.013670603 -1.1332094e-05)
(-0.10704619 0.0087458677 -2.9504398e-05)
(-0.10875321 0.0034455297 -5.0568217e-05)
(-0.10923157 -0.0021209344 -7.4147983e-05)
(-0.10842758 -0.0078201473 -9.9656038e-05)
(-0.10631452 -0.013496646 -0.00012629141)
(-0.10289725 -0.018976669 -0.00015306367)
(-0.098216366 -0.024073893 -0.00017883675)
(-0.09235166 -0.028597171 -0.00020239597)
(-0.085424322 -0.032360131 -0.00022253341)
(-0.077597387 -0.035192306 -0.00023814459)
(-0.069073854 -0.036951272 -0.0002483273)
(-0.060092 -0.037534999 -0.00025247152)
(-0.050917538 -0.036893475 -0.00025032856)
(-0.041832607 -0.035038516 -0.00024204693)
(-0.033121916 -0.032050772 -0.00022816639)
(-0.025056896 -0.02808314 -0.00020956674)
(-0.017879374 -0.023360294 -0.00018737197)
(-0.011786298 -0.018174745 -0.00016284248)
(-0.0069139597 -0.012880263 -0.00013737777)
(-0.0033237904 -0.0078822131 -0.00011240577)
(-0.0010368542 -0.0036261504 -8.7698941e-05)
(-0.00011093671 -0.00060703596 -5.725785e-05)
(-0.00035168284 0.0038337211 -0.00010769915)
(-0.00226962 0.011410055 -7.0545229e-05)
(-0.0062273 0.018426802 -4.0068154e-05)
(-0.011614417 0.02461929 -1.7818369e-05)
(-0.018089806 0.029856754 2.4491907e-07)
(-0.02542031 0.034088964 1.4673582e-05)
(-0.03338779 0.037319721 2.6067132e-05)
(-0.041794526 0.039584207 3.5086369e-05)
(-0.050463601 0.040930381 4.2192273e-05)
(-0.059233006 0.041406183 4.7645572e-05)
(-0.067950881 0.041052159 5.1533908e-05)
(-0.076472049 0.039898695 5.3790735e-05)
(-0.084655425 0.037966944 5.4221019e-05)
(-0.092362381 0.03527247 5.2534833e-05)
(-0.099456122 0.031830606 4.838681e-05)
(-0.10580205 0.027662635 4.1420459e-05)
(-0.11126903 0.022802066 3.1316171e-05)
(-0.11573151 0.017300393 1.7841017e-05)
(-0.11907243 0.011231918 8.9774061e-07)
(-0.12118668 0.0046972989 -1.9430194e-05)
(-0.12198539 -0.0021744315 -4.2841525e-05)
(-0.1214005 -0.0092256168 -6.8795349e-05)
(-0.11938995 -0.01627158 -9.6499945e-05)
(-0.11594308 -0.023104531 -0.00012493157)
(-0.11108596 -0.029499705 -0.00015287292)
(-0.10488631 -0.035223972 -0.00017897982)
(-0.097457396 -0.040046876 -0.00020187156)
(-0.088960318 -0.043753841 -0.00022023805)
(-0.079603762 -0.046161022 -0.00023295351)
(-0.069640612 -0.047130893 -0.00023918414)
(-0.059360793 -0.046587363 -0.00023847612)
(-0.049080075 -0.044528979 -0.00023081109)
(-0.039125065 -0.041038722 -0.00021661814)
(-0.029815237 -0.036289111 -0.00019673455)
(-0.021443797 -0.03054187 -0.00017230917)
(-0.014259287 -0.024142275 -0.00014468559)
(-0.0084459891 -0.01750898 -0.00011542033)
(-0.0041056889 -0.011119005 -8.6154116e-05)
(-0.0013000597 -0.0054896733 -5.6494651e-05)
(-0.00014465954 -0.0011817519 -2.2540825e-05)
(-0.00039638069 0.0050785382 -0.00010494999)
(-0.0025407309 0.014693087 -6.2472182e-05)
(-0.0069440135 0.023357341 -2.8866959e-05)
(-0.01290888 0.030859969 -4.5661066e-06)
(-0.020045094 0.037116346 1.5112941e-05)
(-0.028089532 0.042115778 3.0919423e-05)
(-0.036801147 0.045894571 4.3623491e-05)
(-0.045965962 0.048513551 5.4031993e-05)
(-0.055396368 0.050040077 6.2700801e-05)
(-0.064923509 0.050536033 6.9939881e-05)
(-0.074391151 0.050051365 7.5848145e-05)
(-0.083651169 0.048622325 8.033755e-05)
(-0.092560143 0.046273467 8.3163283e-05)
(-0.10097708 0.043022367 8.3961446e-05)
(-0.10876225 0.038886015 8.2292409e-05)
(-0.11577705 0.033887975 7.7689221e-05)
(-0.12188482 0.028065544 6.9710433e-05)
(-0.12695252 0.021476324 5.7995884e-05)
(-0.13085322 0.014203804 4.2323077e-05)
(-0.13346937 0.006361617 2.2661247e-05)
(-0.1346969 -0.0019037552 -7.8161118e-07)
(-0.13445003 -0.010412126 -2.7530119e-05)
(-0.13266689 -0.018950659 -5.6812881e-05)
(-0.12931597 -0.027277512 -8.7578999e-05)
(-0.12440266 -0.035127995 -0.00011852617)
(-0.11797599 -0.042223734 -0.0001481639)
(-0.11013476 -0.04828493 -0.00017490629)
(-0.10103206 -0.053045616 -0.00019718911)
(-0.090877414 -0.056271448 -0.00021360122)
(-0.079935332 -0.057779052 -0.00022301584)
(-0.068519428 -0.057455473 -0.00022470509)
(-0.056981441 -0.05527581 -0.00021842213)
(-0.045695165 -0.051316931 -0.00020443797)
(-0.035036058 -0.045765284 -0.00018352133)
(-0.025358553 -0.038917404 -0.00015684814)
(-0.016973432 -0.031172836 -0.00012587854)
(-0.010122971 -0.023020175 -9.2388168e-05)
(-0.0049572242 -0.015016123 -5.8309946e-05)
(-0.0015838839 -0.007760116 -2.3137983e-05)
(-0.00018000086 -0.0018920022 1.4729058e-05)
(-0.00043686033 0.0064583919 -9.3552706e-05)
(-0.0027867717 0.018316398 -4.5576261e-05)
(-0.0075956839 0.028777534 -9.0929449e-06)
(-0.014088245 0.037693881 1.7160186e-05)
(-0.021830204 0.045036997 3.8463272e-05)
(-0.030531437 0.05084492 5.5754816e-05)
(-0.039930247 0.055194245 6.9963934e-05)
(-0.049798195 0.058177618 8.2028628e-05)
(-0.059938577 0.059886408 9.2585316e-05)
(-0.070177325 0.060399655 0.00010198002)
(-0.080355604 0.059778755 0.00011031092)
(-0.090324284 0.058066926 0.00011745745)
(-0.099939668 0.055292448 0.00012311442)
(-0.10906047 0.051474572 0.00012683308)
(-0.117546 0.046631018 0.00012806754)
(-0.12525533 0.040786142 0.0001262265)
(-0.13204758 0.033979003 0.00012073005)
(-0.13778291 0.026270806 0.0001110707)
(-0.14232453 0.017751311 9.687692e-05)
(-0.14554151 0.0085439634 7.797668e-05)
(-0.14731274 -0.0011904763 5.4456326e-05)
(-0.14753169 -0.011252028 2.6693922e-05)
(-0.1461126 -0.021401934 -4.5802494e-06)
(-0.14299779 -0.031365214 -3.830596e-05)
(-0.13816568 -0.040836494 -7.3102132e-05)
(-0.13163956 -0.049489261 -0.00010732313)
(-0.12349618 -0.056988994 -0.00013915034)
(-0.11387328 -0.063010311 -0.00016671676)
(-0.10297473 -0.067257828 -0.00018825679)
(-0.091071937 -0.069489783 -0.00020226627)
(-0.078500048 -0.069542744 -0.00020765304)
(-0.06564788 -0.067354999 -0.00020385704)
(-0.052941125 -0.062985727 -0.00019092226)
(-0.040819374 -0.056627008 -0.0001695042)
(-0.02970917 -0.048606352 -0.00014079201)
(-0.019995894 -0.039378791 -0.00010638343)
(-0.011991982 -0.029509081 -6.8330584e-05)
(-0.0059059329 -0.019644106 -2.8940404e-05)
(-0.0018995633 -0.010479195 1.2367692e-05)
(-0.00021910616 -0.0027504804 5.470808e-05)
(-0.00047274694 0.0079596317 -7.2416591e-05)
(-0.0030052223 0.022246049 -1.8735769e-05)
(-0.0081752558 0.034639756 2.0340051e-05)
(-0.015139226 0.045065158 4.8419805e-05)
(-0.023424445 0.05355872 7.1334139e-05)
(-0.032717225 0.060215303 9.0203977e-05)
(-0.042737871 0.065158813 0.0001061074)
(-0.053245567 0.068519472 0.00012010059)
(-0.064036278 0.070417114 0.00013288833)
(-0.0749324 0.070951183 0.0001448417)
(-0.085774245 0.070196692 0.00015604828)
(-0.096413553 0.068205049 0.00016634593)
(-0.10670835 0.06500866 0.00017536015)
(-0.11651911 0.06062809 0.00018254751)
(-0.12570618 0.055080714 0.00018724415)
(-0.13412821 0.0483899 0.00018871961)
(-0.14164164 0.04059401 0.00018623662)
(-0.14810099 0.031754741 0.00017911667)
(-0.15336013 0.021964473 0.00016681004)
(-0.15727459 0.011352423 0.00014896738)
(-0.15970498 8.9439615e-05 0.00012550923)
(-0.16052193 -0.011608761 9.6696895e-05)
(-0.15961237 -0.023480775 6.3159849e-05)
(-0.1568876 -0.035220648 2.5940583e-05)
(-0.15229289 -0.046482685 -1.3519459e-05)
(-0.14581831 -0.056890185 -5.3421678e-05)
(-0.13751015 -0.0660489 -9.1694744e-05)
(-0.1274819 -0.073565711 -0.00012612278)
(-0.1159232 -0.079072511 -0.00015451199)
(-0.10310516 -0.082254508 -0.00017488257)
(-0.089379763 -0.082881165 -0.00018566429)
(-0.07517183 -0.080836877 -0.00018586888)
(-0.060962198 -0.07614759 -0.00017521318)
(-0.047262332 -0.068999138 -0.00015416765)
(-0.034582534 -0.059743611 -0.00012389978)
(-0.02339702 -0.048891736 -8.6151416e-05)
(-0.014103222 -0.037091354 -4.3302356e-05)
(-0.0069813248 -0.025092289 1.8820009e-06)
(-0.0022589716 -0.013702793 5.0028482e-05)
(-0.00026414181 -0.0037760116 9.7586961e-05)
(-0.00050353677 0.0095671749 -4.0571979e-05)
(-0.0031931895 0.026444457 1.9041598e-05)
(-0.0086751751 0.040890979 6.0396288e-05)
(-0.016048076 0.052911153 9.016098e-05)
(-0.024806728 0.062613746 0.00011466407)
(-0.034617546 0.070157379 0.00013520182)
(-0.045185675 0.075719454 0.00015299213)
(-0.056260136 0.079473002 0.00016919815)
(-0.067631361 0.081570541 0.00018458319)
(-0.079119868 0.082135129 0.00019953518)
(-0.090566804 0.081257636 0.00021412409)
(-0.10182658 0.078999012 0.00022813987)
(-0.1127609 0.075396288 0.00024113233)
(-0.12323408 0.070471035 0.00025245568)
(-0.13310964 0.064239164 0.00026131763)
(-0.14224791 0.056721119 0.00026683394)
(-0.15050465 0.047951821 0.00026808986)
(-0.15773046 0.037989923 0.00026420908)
(-0.16377124 0.02692618 0.00025442949)
(-0.16846973 0.014890774 0.00023818356)
(-0.17166829 0.002059494 0.00021518076)
(-0.17321362 -0.011341511 0.00018549719)
(-0.17296301 -0.025032755 0.00014962137)
(-0.17079288 -0.038680992 0.00010852474)
(-0.16660972 -0.051902145 6.3670062e-05)
(-0.16036293 -0.064268715 1.6989955e-05)
(-0.15205916 -0.075322789 -2.91842e-05)
(-0.14177718 -0.084595596 -7.2248282e-05)
(-0.12968147 -0.091634065 -0.00010950546)
(-0.11603256 -0.096033974 -0.00013839065)
(-0.10119118 -0.097477981 -0.00015671839)
(-0.085613766 -0.095775296 -0.00016292256)
(-0.069836983 -0.09089818 -0.00015625164)
(-0.054450593 -0.083009477 -0.0001368796)
(-0.040060572 -0.072475536 -0.0001058859)
(-0.027246065 -0.059860768 -6.5142805e-05)
(-0.016507448 -0.045902936 -1.7401619e-05)
(-0.0082136439 -0.031469436 3.4025379e-05)
(-0.0026742796 -0.017501628 8.9790185e-05)
(-0.00031729125 -0.0049938069 0.00014350928)
(-0.00052866655 0.011264335 2.8113473e-06)
(-0.003347653 0.030870256 6.8600305e-05)
(-0.0090878251 0.047472762 0.00011189727)
(-0.016801172 0.061162507 0.0001431954)
(-0.02595626 0.072126496 0.00016926081)
(-0.03620332 0.080592824 0.00019155683)
(-0.047235192 0.086797662 0.00021143245)
(-0.0587929 0.090961516 0.000230148)
(-0.070663075 0.093273521 0.00024851818)
(-0.082665914 0.093883478 0.00026694277)
(-0.094644976 0.092900434 0.00028547051)
(-0.10645906 0.09039637 0.00030384065)
(-0.11797543 0.086413605 0.00032152415)
(-0.12906435 0.080974543 0.00033776823)
(-0.1395948 0.074092596 0.0003516442)
(-0.14943123 0.065783364 0.00036210101)
(-0.15843117 0.056075484 0.00036802655)
(-0.16644378 0.045020817 0.00036831833)
(-0.17330928 0.03270386 0.00036196397)
(-0.17885956 0.019250354 0.00034813034)
(-0.18292022 0.0048350213 0.00032625957)
(-0.18531446 -0.010311775 0.00029617092)
(-0.18586913 -0.025898718 0.00025814607)
(-0.1844234 -0.041570716 0.00021301377)
(-0.18084047 -0.056909256 0.00016219634)
(-0.1750221 -0.071437545 0.00010771775)
(-0.16692586 -0.084632009 5.2155901e-05)
(-0.15658402 -0.095941679 -1.4719706e-06)
(-0.14412256 -0.10481664 -4.9896205e-05)
(-0.12977764 -0.11074575 -8.9849698e-05)
(-0.11390638 -0.11330237 -0.00011837299)
(-0.096987981 -0.11219466 -0.00013313565)
(-0.079611686 -0.10731485 -0.00013272756)
(-0.062449389 -0.098779647 -0.00011686152)
(-0.046214016 -0.086953569 -8.6415752e-05)
(-0.031607287 -0.072448774 -4.3347318e-05)
(-0.019253868 -0.056098429 9.1893175e-06)
(-0.0096329937 -0.038903385 6.7241476e-05)
(-0.0031577815 -0.021961372 0.00013146835)
(-0.00038077925 -0.0064355218 0.00019249665)
(-0.00054758577 0.013032811 5.8400873e-05)
(-0.0034657758 0.035478412 0.0001306155)
(-0.0094061789 0.054321518 0.00017549961)
(-0.017385999 0.069743451 0.00020817269)
(-0.026853833 0.08201377 0.00023577073)
(-0.037447329 0.091434434 0.00025991427)
(-0.04884972 0.09830471 0.00028207482)
(-0.060796039 0.10289664 0.00030360175)
(-0.073070668 0.1054396 0.00032535674)
(-0.085494868 0.1061132 0.00034775)
(-0.097916024 0.10504706 0.00037080952)
(-0.1101989 0.10232586 0.00039422509)
(-0.12221815 0.097998098 0.0004173898)
(-0.1338521 0.092087089 0.00043944299)
(-0.14497761 0.084602937 0.00045931523)
(-0.15546595 0.075554667 0.00047577871)
(-0.16517943 0.064961927 0.00048750621)
(-0.17396899 0.052866069 0.00049314149)
(-0.18167251 0.039340593 0.00049138271)
(-0.18811436 0.024501061 0.00048107905)
(-0.19310632 0.0085145127 0.00046133986)
(-0.19645051 -0.0083917344 0.00043165347)
(-0.19794457 -0.02592222 0.00039200484)
(-0.19739 -0.043707427 0.00034298919)
(-0.19460392 -0.061300818 0.00028590064)
(-0.18943483 -0.078180636 0.00022278162)
(-0.18178218 -0.093758557 0.00015641242)
(-0.17161928 -0.10739744 9.0222141e-05)
(-0.15901805 -0.1184403 2.8106859e-05)
(-0.14417297 -0.12625163 -2.5849071e-05)
(-0.12742026 -0.13027089 -6.7736662e-05)
(-0.10924738 -0.13007481 -9.4237888e-05)
(-0.090287361 -0.12544244 -0.00010303866)
(-0.071293769 -0.11641305 -9.3159547e-05)
(-0.053095728 -0.10332519 -6.5099265e-05)
(-0.036535942 -0.086826538 -2.0804335e-05)
(-0.022388133 -0.067847918 3.6159531e-05)
(-0.011268603 -0.047539764 0.00010110291)
(-0.0037217887 -0.027182364 0.00017467299)
(-0.00045690424 -0.0081392856 0.00024437139)
(-0.00055983242 0.014852864 0.00012667687)
(-0.0035452623 0.040220709 0.00020557163)
(-0.0096246069 0.061369173 0.00025167422)
(-0.017792436 0.078572505 0.000285557)
(-0.02748357 0.092185312 0.00031465062)
(-0.038326395 0.10258641 0.00034072142)
(-0.049996951 0.11014151 0.00036535524)
(-0.06222601 0.11517766 0.00038998426)
(-0.074797008 0.11796779 0.00041551585)
(-0.087533424 0.11872434 0.00044237323)
(-0.10028769 0.11759999 0.00047056852)
(-0.11293194 0.11469403 0.00049974801)
(-0.12534996 0.11006234 0.00052923261)
(-0.13743021 0.10372956 0.00055805758)
(-0.14905994 0.095702062 0.00058501294)
(-0.16012021 0.085980943 0.00060868859)
(-0.1704816 0.074574526 0.0006275286)
(-0.18000072 0.061510247 0.00063989876)
(-0.18851749 0.046846068 0.00064417046)
(-0.19585341 0.03068164 0.00063882283)
(-0.20181118 0.013169386 0.00062256336)
(-0.20617622 -0.0054744841 0.00059446535)
(-0.2087206 -0.024959331 0.000554116)
(-0.20921017 -0.044910656 0.00050176567)
(-0.20741577 -0.064863067 0.00043846498)
(-0.20312908 -0.084257614 0.00036616719)
(-0.19618384 -0.10244605 0.00028777112)
(-0.18648218 -0.11870502 0.00020707686)
(-0.17402515 -0.13226349 0.00012862813)
(-0.15894487 -0.14234593 5.7424752e-05)
(-0.14153422 -0.14823249 -1.4938243e-06)
(-0.1222677 -0.14933414 -4.3566611e-05)
(-0.10180609 -0.14527632 -6.5271581e-05)
(-0.080977751 -0.13597967 -6.4627346e-05)
(-0.060733163 -0.12172185 -4.148972e-05)
(-0.042073791 -0.10316436 2.3734811e-06)
(-0.025950149 -0.081332068 6.3019564e-05)
(-0.01314807 -0.057539739 0.00013493182)
(-0.0043785375 -0.033278963 0.00021872314)
(-0.00054807487 -0.010149717 0.0002986699)
(-0.00056511201 0.016703699 0.0002079102)
(-0.0035847554 0.045046652 0.00029374453)
(-0.0097398038 0.068544357 0.00034068966)
(-0.01801427 0.087563709 0.00037560818)
(-0.027835018 0.1025449 0.00040614424)
(-0.038824045 0.11394516 0.00043419725)
(-0.050652191 0.12219901 0.00046146029)
(-0.063047351 0.12769139 0.0004894447)
(-0.075793022 0.13074191 0.00051910598)
(-0.088715813 0.13159876 0.00055088732)
(-0.10167421 0.13044038 0.0005847947)
(-0.11454898 0.12738282 0.00062044197)
(-0.1272346 0.12249092 0.00065708869)
(-0.1396317 0.11579149 0.00069367514)
(-0.15164047 0.10728726 0.00072885638)
(-0.16315488 0.096970608 0.0007610401)
(-0.17405759 0.084836792 0.00078843388)
(-0.18421543 0.07089651 0.00080910717)
(-0.19347555 0.055188172 0.00082107273)
(-0.20166248 0.037790152 0.0008223912)
(-0.20857619 0.018833408 0.00081130074)
(-0.21399192 -0.0014854007 0.00078637182)
(-0.21766227 -0.022890436 0.00074668491)
(-0.21932245 -0.045013487 0.00069201766)
(-0.21869983 -0.067382309 0.00062303617)
(-0.2155289 -0.089412398 0.00054146067)
(-0.20957272 -0.11040519 0.00045017858)
(-0.20065167 -0.12955643 0.00035326761)
(-0.18867898 -0.14597922 0.00025588909)
(-0.17370157 -0.15874624 0.00016401727)
(-0.15594158 -0.16695435 8.3987579e-05)
(-0.13583203 -0.16981188 2.187741e-05)
(-0.1140365 -0.1667432 -1.7223776e-05)
(-0.091442333 -0.15749776 -2.993457e-05)
(-0.069119723 -0.14224356 -1.5098019e-05)
(-0.048243796 -0.12162086 2.596602e-05)
(-0.029971457 -0.096735223 8.9041353e-05)
(-0.015296439 -0.069076633 0.0001677161)
(-0.005140063 -0.040378459 0.00026254643)
(-0.00065684576 -0.012517913 0.00035454087)
(-0.00056337933 0.018564066 0.00030214564)
(-0.0035842629 0.049904855 0.0003951902)
(-0.0097518095 0.075774185 0.00044260278)
(-0.018050888 0.09662849 0.00047837066)
(-0.027905516 0.11299205 0.0005102665)
(-0.038933518 0.12540066 0.00054030954)
(-0.050802008 0.13435916 0.00057029509)
(-0.063236985 0.14031278 0.00060181383)
(-0.076022724 0.14363069 0.00063587657)
(-0.088989656 0.14459986 0.00067295847)
(-0.10200315 0.14342731 0.00071307429)
(-0.11495371 0.14024834 0.00075582167)
(-0.12774798 0.13513871 0.00080041503)
(-0.14030067 0.1281288 0.00084571431)
(-0.15252742 0.11921836 0.00089025108)
(-0.1643383 0.10839097 0.00093225725)
(-0.17563202 0.095627858 0.00096970325)