/*--------------------------------*- C++ -*----------------------------------*\
  =========                 |
  \\      /  F ield         | OpenFOAM: The Open Source CFD Toolbox
   \\    /   O peration     | Website:  https://openfoam.org
    \\  /    A nd           | Version:  7
     \\/     M anipulation  |
\*---------------------------------------------------------------------------*/
FoamFile
{
    version     2.0;
    format      ascii;
    class       volVectorField;
    location    "21";
    object      U_0;
}
// * * * * * * * * * * * * * * * * * * * * * * * * * * * * * * * * * * * * * //

dimensions      [0 1 -1 0 0 0 0];

internalField   nonuniform List<vector> 
16000
(
(6.600536e-05 -6.736771e-05 -4.2829753e-07)
(0.00016269361 -5.6373348e-05 5.6701038e-06)
(0.00014189044 4.5597328e-07 1.9169277e-05)
(-5.0635373e-05 6.1886808e-05 3.6591204e-05)
(-0.00040997792 0.00011562765 5.4699111e-05)
(-0.00090901949 0.00015774013 7.1526837e-05)
(-0.001517691 0.00018850057 8.5738301e-05)
(-0.0022068497 0.00020960441 9.6518339e-05)
(-0.0029505475 0.00022287172 0.00010340663)
(-0.0037263925 0.00022980582 0.00010615631)
(-0.0045149592 0.00023147173 0.00010464017)
(-0.005298903 0.00022849859 9.8795149e-05)
(-0.0060620644 0.00022114214 8.8596556e-05)
(-0.0067887178 0.00020937799 7.4054907e-05)
(-0.0074630535 0.00019300899 5.5228992e-05)
(-0.0080689403 0.00017177644 3.2249134e-05)
(-0.008589981 0.00014546829 5.3452991e-06)
(-0.0090098522 0.00011401946 -2.5124684e-05)
(-0.0093128991 7.7599971e-05 -5.8651088e-05)
(-0.0094849432 3.6687054e-05 -9.4556326e-05)
(-0.0095142448 -7.885558e-06 -0.00013199064)
(-0.0093925321 -5.4921898e-05 -0.00016994261)
(-0.0091160361 -0.00010283996 -0.00020726566)
(-0.0086864285 -0.0001497447 -0.00024272217)
(-0.0081115361 -0.00019350648 -0.00027504286)
(-0.0074057606 -0.00023187992 -0.00030299925)
(-0.0065901078 -0.00026265395 -0.00032548478)
(-0.0056917638 -0.00028381987 -0.00034159876)
(-0.0047431925 -0.0002937411 -0.00035072625)
(-0.0037807725 -0.00029130541 -0.00035260597)
(-0.0028430402 -0.00027604129 -0.00034737882)
(-0.0019686483 -0.00024818435 -0.00033561251)
(-0.0011941536 -0.00020869428 -0.00031830204)
(-0.00055168207 -0.0001592597 -0.00029685043)
(-6.6524032e-05 -0.000102407 -0.00027302561)
(0.00024490209 -4.175648e-05 -0.00024888605)
(0.00037891982 1.7846307e-05 -0.00022681624)
(0.00034976562 6.7068778e-05 -0.00020925436)
(0.00020617895 8.9851131e-05 -0.00019887048)
(5.746598e-05 5.7408228e-05 -0.00018442626)
(5.7980155e-05 -0.00016707708 -6.6607257e-06)
(4.0841625e-05 -3.9987216e-05 -4.0831884e-07)
(-0.0002950031 0.00024854748 1.122476e-05)
(-0.0010110333 0.00056210609 2.5590249e-05)
(-0.0020992109 0.00084747555 4.0574622e-05)
(-0.0035140362 0.0010830954 5.458215e-05)
(-0.0051945932 0.0012642719 6.6485573e-05)
(-0.0070764903 0.0013940352 7.5532581e-05)
(-0.0090979609 0.0014779257 8.124134e-05)
(-0.011202064 0.0015214908 8.3312208e-05)
(-0.01333674 0.0015291742 8.1561921e-05)
(-0.01545383 0.0015039394 7.5880572e-05)
(-0.017507751 0.0014473225 6.6209818e-05)
(-0.01945427 0.0013597455 5.2538827e-05)
(-0.021249666 0.0012409727 3.4913638e-05)
(-0.022850447 0.0010906336 1.3455442e-05)
(-0.024213667 0.00090875518 -1.161664e-05)
(-0.025297851 0.0006962619 -3.9962503e-05)
(-0.026064461 0.00045540737 -7.1101533e-05)
(-0.026479798 0.00019010722 -0.00010439978)
(-0.026517222 -9.3856977e-05 -0.00013906672)
(-0.026159413 -0.00038875929 -0.00017417085)
(-0.025400623 -0.0006850667 -0.00020865598)
(-0.024248662 -0.00097172827 -0.00024138926)
(-0.02272629 -0.0012366575 -0.00027121495)
(-0.020871943 -0.0014673875 -0.00029702204)
(-0.018739566 -0.0016518619 -0.00031781916)
(-0.016397433 -0.0017793053 -0.00033281094)
(-0.013925904 -0.0018411011 -0.00034146962)
(-0.011414153 -0.0018315939 -0.00034359538)
(-0.0089559874 -0.0017487407 -0.00033935886)
(-0.006644942 -0.0015945577 -0.00032932001)
(-0.0045688746 -0.0013753668 -0.00031442049)
(-0.002804232 -0.0011019508 -0.00029595142)
(-0.0014100457 -0.00078991529 -0.0002755016)
(-0.00042166504 -0.00046059021 -0.00025488272)
(0.00015574196 -0.00014256562 -0.00023600949)
(0.00035670837 0.00012230679 -0.00022090291)
(0.00027525296 0.00027112126 -0.00021166767)
(9.0120586e-05 0.00020509267 -0.0001954847)
(1.9084502e-06 -0.00014897455 -2.0446778e-05)
(-0.00025606603 0.00029699921 -1.1829574e-05)
(-0.001050456 0.0010235919 6.8382064e-08)
(-0.0023878011 0.0017974918 1.3048007e-05)
(-0.0042393727 0.0025098407 2.6083695e-05)
(-0.0065454337 0.0031099803 3.8034603e-05)
(-0.0092249274 0.0035808373 4.8073786e-05)
(-0.012189727 0.0039233363 5.5640629e-05)
(-0.015352635 0.0041460828 6.0353466e-05)
(-0.018630618 0.0042594856 6.1955568e-05)
(-0.021945557 0.0042727094 6.0274001e-05)
(-0.025223652 0.004192372 5.5191031e-05)
(-0.028394238 0.0040223711 4.6630432e-05)
(-0.031388633 0.0037644328 3.4557107e-05)
(-0.034139396 0.0034190892 1.8987102e-05)
(-0.036580262 0.0029868711 4.8273731e-09)
(-0.038646826 0.0024695524 -2.2215911e-05)
(-0.040277988 0.0018713229 -4.7390533e-05)
(-0.041418081 0.0011997916 -7.510533e-05)
(-0.042019527 0.00046673397 -0.00010480537)
(-0.042045807 -0.00031147458 -0.000135793)
(-0.041474542 -0.001113765 -0.00016723339)
(-0.040300433 -0.0019148093 -0.00019817954)
(-0.038537732 -0.0026857766 -0.00022760806)
(-0.036222002 -0.003395577 -0.00025447023)
(-0.033410913 -0.0040124948 -0.00027775525)
(-0.030183849 -0.0045061287 -0.00029656087)
(-0.026640159 -0.0048495138 -0.00031016523)
(-0.02289599 -0.0050212667 -0.00031809302)
(-0.019079719 -0.0050075726 -0.00032016983)
(-0.015326112 -0.0048038506 -0.00031655882)
(-0.011769428 -0.0044159822 -0.00030777513)
(-0.0085357548 -0.0038610944 -0.00029467389)
(-0.0057348501 -0.0031680559 -0.00027841124)
(-0.0034517075 -0.0023780879 -0.00026038237)
(-0.0017380016 -0.0015461814 -0.0002421405)
(-0.00060370988 -0.00074419829 -0.00022529167)
(-8.0563973e-06 -6.6381568e-05 -0.00021142765)
(0.00015539617 0.00036037446 -0.00020224195)
(7.3549749e-05 0.00035436734 -0.00018532754)
(-6.4687861e-05 5.0420613e-05 -3.8698184e-05)
(-0.00060838097 0.0010457309 -2.6161097e-05)
(-0.0019305132 0.0023816748 -1.21802e-05)
(-0.0039463661 0.0037564233 1.1121678e-06)
(-0.0065888777 0.0050151868 1.369992e-05)
(-0.0097789818 0.0060799088 2.4823663e-05)
(-0.013416816 0.0069203456 3.3946187e-05)
(-0.017395116 0.0075339213 4.0732251e-05)
(-0.021607216 0.0079311944 4.4945936e-05)
(-0.025950065 0.0081268338 4.6415374e-05)
(-0.030325109 0.0081345627 4.5009722e-05)
(-0.034637949 0.0079648018 4.062264e-05)
(-0.038797413 0.0076241856 3.3167132e-05)
(-0.042714638 0.0071163344 2.2581029e-05)
(-0.046302621 0.0064434005 8.8407054e-06)
(-0.049476468 0.0056080164 -8.019415e-06)
(-0.052154469 0.0046153511 -2.7884148e-05)
(-0.054259993 0.0034750474 -5.0534481e-05)
(-0.055724102 0.0022028621 -7.5627234e-05)
(-0.056488704 0.0008218639 -0.00010268091)
(-0.056510025 -0.00063691708 -0.00013107084)
(-0.055762169 -0.0021345046 -0.00016003222)
(-0.054240454 -0.0036246857 -0.00018868343)
(-0.051964182 -0.0050554578 -0.00021605764)
(-0.048978623 -0.0063712019 -0.00024115161)
(-0.045355875 -0.0075155055 -0.00026298724)
(-0.041194373 -0.0084345008 -0.00028068198)
(-0.036616837 -0.0090805177 -0.00029352175)
(-0.031766568 -0.0094157982 -0.00030102836)
(-0.026802062 -0.0094159848 -0.00030301342)
(-0.021890072 -0.009073109 -0.00029961264)
(-0.017197323 -0.0083978737 -0.00029129627)
(-0.012881223 -0.007421163 -0.00027885345)
(-0.009079961 -0.0061949268 -0.00026334912)
(-0.0059024415 -0.0047928731 -0.00024605505)
(-0.0034184919 -0.0033117934 -0.00022836234)
(-0.0016495433 -0.0018745376 -0.00021169464)
(-0.00055981458 -0.00063473288 -0.00019744028)
(-5.0124333e-05 0.00021497042 -0.0001868347)
(3.8091018e-05 0.00041381423 -0.00016802426)
(-0.00013086482 0.00044555396 -5.8213816e-05)
(-0.00097093418 0.0022426331 -4.1150626e-05)
(-0.0028461535 0.0043590723 -2.4268723e-05)
(-0.0055646863 0.0064570456 -9.8368788e-06)
(-0.0090092244 0.0083532576 3.0811878e-06)
(-0.013075135 0.0099511923 1.4060698e-05)
(-0.01764183 0.011211456 2.283867e-05)
(-0.022584099 0.012129269 2.9310307e-05)
(-0.027778914 0.012717196 3.3398467e-05)
(-0.033107254 0.012993813 3.5030338e-05)
(-0.038454497 0.012977036 3.4128595e-05)
(-0.043709996 0.012680896 3.0604763e-05)
(-0.048766262 0.012114829 2.4361946e-05)
(-0.053518259 0.011284714 1.5306717e-05)
(-0.057863227 0.010195021 3.367877e-06)
(-0.061701237 0.0088515444 -1.1480014e-05)
(-0.064936607 0.0072642913 -2.9190421e-05)
(-0.067480129 0.0054501972 -4.9618293e-05)
(-0.069252018 0.0034353993 -7.2495937e-05)
(-0.070185393 0.0012568686 -9.7414523e-05)
(-0.070230072 -0.0010367639 -0.0001238145)
(-0.069356415 -0.0033853268 -0.00015098741)
(-0.067558935 -0.0057181893 -0.00017809274)
(-0.064859366 -0.0079564278 -0.00020418937)
(-0.061308881 -0.010016001 -0.00022828291)
(-0.056989173 -0.011811855 -0.00024938695)
(-0.052012098 -0.013262783 -0.00026659489)
(-0.04651765 -0.014296778 -0.00027915627)
(-0.040670086 -0.014856528 -0.00028654908)
(-0.034652145 -0.014904653 -0.00028853824)
(-0.028657413 -0.014428295 -0.00028521175)
(-0.022881044 -0.013442696 -0.00027698935)
(-0.017509227 -0.011993603 -0.00026460252)
(-0.012707893 -0.010158549 -0.00024904698)
(-0.0086113726 -0.0080473895 -0.00023150826)
(-0.0053117109 -0.0058029035 -0.00021327046)
(-0.0028485081 -0.0036024648 -0.00019564872)
(-0.0012000381 -0.0016605661 -0.00017990458)
(-0.00028881514 -0.0002338155 -0.00016675812)
(-2.4735173e-06 0.00035044097 -0.00014552116)
(-0.00019286112 0.0010312829 -7.6693374e-05)
(-0.0013239558 0.0038924347 -5.4791667e-05)
(-0.0037517646 0.0069678172 -3.4587508e-05)
(-0.0071731168 0.0099105573 -1.8494564e-05)
(-0.01141451 0.012527066 -4.6993654e-06)
(-0.016341052 0.014714115 6.6628886e-06)
(-0.02180904 0.016430069 1.5579211e-05)
(-0.027675141 0.017671555 2.2164195e-05)
(-0.033801496 0.018454767 2.649631e-05)
(-0.040055783 0.018802728 2.8602322e-05)
(-0.046310611 0.0187376 2.8459514e-05)
(-0.052442679 0.018276948 2.5996915e-05)
(-0.05833183 0.017433006 2.1104887e-05)
(-0.063860406 0.016214106 1.3653233e-05)
(-0.068913223 0.014627486 3.5155397e-06)
(-0.073378339 0.012682832 -9.4021913e-06)
(-0.07714868 0.010396004 -2.513051e-05)
(-0.080124473 0.0077925092 -4.3605208e-05)
(-0.082216392 0.0049104007 -6.4638208e-05)
(-0.083349225 0.0018023239 -8.7893676e-05)
(-0.083465861 -0.0014634787 -0.00011287283)
(-0.08253136 -0.0048033636 -0.0001389114)
(-0.080536835 -0.008119751 -0.00016519167)
(-0.077502874 -0.011303966 -0.00019077265)
(-0.073482178 -0.014240401 -0.00021463703)
(-0.068561092 -0.016811913 -0.00023575381)
(-0.06285972 -0.018906273 -0.00025315318)
(-0.056530278 -0.020423338 -0.00026600756)
(-0.04975346 -0.021282532 -0.00027371076)
(-0.04273261 -0.021430116 -0.00027594461)
(-0.035685723 -0.020845667 -0.0002727223)
(-0.028835426 -0.019547274 -0.00026440017)
(-0.022397349 -0.01759506 -0.00025165598)
(-0.016567515 -0.015092911 -0.00023543608)
(-0.011509712 -0.012188678 -0.00021687433)
(-0.0073438127 -0.0090735659 -0.00019719827)
(-0.0041344966 -0.0059816327 -0.00017768567)
(-0.0018815866 -0.003189046 -0.00015957155)
(-0.00053619213 -0.0010143545 -0.00014317918)
(-4.1246608e-05 0.00015892333 -0.00011908419)
(-0.00025011023 0.0017985276 -9.2179494e-05)
(-0.0016597288 0.0059839867 -6.5291668e-05)
(-0.0046243316 0.010198347 -4.1605995e-05)
(-0.0087319318 0.014106643 -2.3551778e-05)
(-0.013751228 0.017521867 -8.5139775e-06)
(-0.019514545 0.020346573 3.62444e-06)
(-0.025853437 0.022545324 1.307522e-05)
(-0.032606119 0.024121365 2.0154388e-05)
(-0.039620805 0.025097452 2.5084153e-05)
(-0.046753748 0.025502518 2.7982817e-05)
(-0.053867356 0.025363582 2.8876066e-05)
(-0.060828631 0.024701919 2.7704694e-05)
(-0.067507865 0.023532599 2.434012e-05)
(-0.073777849 0.021866461 1.8608203e-05)
(-0.079513837 0.019713677 1.0319096e-05)
(-0.084594359 0.017088128 -6.9858899e-07)
(-0.08890291 0.014011966 -1.4561122e-05)
(-0.092330436 0.010519846 -3.1292591e-05)
(-0.094778534 0.0066624295 -5.0789889e-05)
(-0.096163187 0.0025088696 -7.2792658e-05)
(-0.096418878 -0.0018519667 -9.6861731e-05)
(-0.095502851 -0.0063117033 -0.00012237086)
(-0.093399346 -0.010744194 -0.000148513)
(-0.090123508 -0.015008932 -0.00017432806)
(-0.085724669 -0.018956097 -0.00019874916)
(-0.080288663 -0.02243319 -0.0002206678)
(-0.073938775 -0.025293071 -0.00023901345)
(-0.066834914 -0.027403074 -0.00025284125)
(-0.05917061 -0.028654684 -0.00026141958)
(-0.051167545 -0.028973156 -0.00026430706)
(-0.043067463 -0.028326309 -0.00026140718)
(-0.03512158 -0.026731734 -0.00025298952)
(-0.027577875 -0.024261782 -0.00023967229)
(-0.020667016 -0.021045938 -0.00022236694)
(-0.01458813 -0.017270631 -0.0002021888)
(-0.0094956867 -0.013177053 -0.00018035798)
(-0.0054864202 -0.0090578446 -0.00015818097)
(-0.0025879246 -0.0052522002 -0.00013695024)
(-0.00078446265 -0.0021405567 -0.00011666863)
(-7.6873404e-05 -0.00016056191 -8.9461726e-05)
(-0.00030294764 0.0027364602 -0.0001030026)
(-0.0019754431 0.0084978798 -7.1034206e-05)
(-0.0054519876 0.014028203 -4.3887152e-05)
(-0.010217685 0.01902088 -2.3743139e-05)
(-0.015984732 0.02331047 -7.2484879e-06)
(-0.022552169 0.026817481 5.9398923e-06)
(-0.02972636 0.029521648 1.6236557e-05)
(-0.037327179 0.031438952 2.4139316e-05)
(-0.045189751 0.032602557 2.9998196e-05)
(-0.053160454 0.033049528 3.4010099e-05)
(-0.061093613 0.032812868 3.6238208e-05)
(-0.068849038 0.031918039 3.6625468e-05)
(-0.076290147 0.030383057 3.5015407e-05)
(-0.083282843 0.028221208 3.1181091e-05)
(-0.089695272 0.02544546 2.4860065e-05)
(-0.095398505 0.022073718 1.579386e-05)
(-0.10026811 0.018134238 3.770502e-06)
(-0.10418652 0.013670603 -1.1332094e-05)
(-0.10704618 0.00874587 -2.9504398e-05)
(-0.1087532 0.0034455324 -5.0568217e-05)
(-0.10923156 -0.0021209335 -7.4147983e-05)
(-0.10842756 -0.0078201487 -9.9656038e-05)
(-0.1063145 -0.013496647 -0.00012629141)
(-0.10289724 -0.018976665 -0.00015306367)
(-0.09821636 -0.024073884 -0.00017883675)
(-0.092351656 -0.02859716 -0.00020239597)
(-0.085424314 -0.032360125 -0.00022253341)
(-0.077597372 -0.035192308 -0.00023814459)
(-0.069073838 -0.036951276 -0.0002483273)
(-0.060091992 -0.037534996 -0.00025247152)
(-0.050917542 -0.036893461 -0.00025032856)
(-0.041832614 -0.0350385 -0.00024204693)
(-0.033121913 -0.032050767 -0.00022816639)
(-0.025056882 -0.028083148 -0.00020956674)
(-0.017879363 -0.023360303 -0.00018737197)
(-0.0117863 -0.018174743 -0.00016284248)
(-0.0069139685 -0.012880252 -0.00013737777)
(-0.0033237934 -0.0078822077 -0.00011240577)
(-0.0010368504 -0.0036261526 -8.7698941e-05)
(-0.00011093401 -0.00060703895 -5.725785e-05)
(-0.00035168281 0.0038337206 -0.00010769915)
(-0.0022696197 0.011410054 -7.0545229e-05)
(-0.0062272991 0.018426799 -4.0068154e-05)
(-0.011614416 0.024619287 -1.7818369e-05)
(-0.018089803 0.02985675 2.4491907e-07)
(-0.025420306 0.034088959 1.4673582e-05)
(-0.033387785 0.037319716 2.6067132e-05)
(-0.04179452 0.039584202 3.5086369e-05)
(-0.050463594 0.040930376 4.2192273e-05)
(-0.059232997 0.041406177 4.7645572e-05)
(-0.067950871 0.041052153 5.1533908e-05)
(-0.076472038 0.039898689 5.3790735e-05)
(-0.084655414 0.037966939 5.4221019e-05)
(-0.092362369 0.035272467 5.2534833e-05)
(-0.099456109 0.031830603 4.838681e-05)
(-0.10580203 0.027662632 4.1420459e-05)
(-0.11126901 0.022802063 3.1316171e-05)
(-0.1157315 0.017300391 1.7841017e-05)
(-0.11907241 0.011231918 8.9774061e-07)
(-0.12118667 0.0046973024 -1.9430194e-05)
(-0.12198538 -0.002174427 -4.2841525e-05)
(-0.12140049 -0.0092256142 -6.8795349e-05)
(-0.11938993 -0.016271581 -9.6499945e-05)
(-0.11594306 -0.023104532 -0.00012493157)
(-0.11108595 -0.029499701 -0.00015287292)
(-0.1048863 -0.035223962 -0.00017897982)
(-0.097457393 -0.040046862 -0.00020187156)
(-0.088960311 -0.043753832 -0.00022023805)
(-0.079603748 -0.046161022 -0.00023295351)
(-0.069640596 -0.047130897 -0.00023918414)
(-0.059360785 -0.04658736 -0.00023847612)
(-0.049080079 -0.044528966 -0.00023081109)
(-0.039125071 -0.041038707 -0.00021661814)
(-0.029815235 -0.036289106 -0.00019673455)
(-0.021443786 -0.030541875 -0.00017230917)
(-0.014259279 -0.02414228 -0.00014468559)
(-0.0084459907 -0.017508978 -0.00011542033)
(-0.0041056943 -0.011118998 -8.6154116e-05)
(-0.0013000614 -0.0054896703 -5.6494651e-05)
(-0.00014465903 -0.0011817528 -2.2540825e-05)
(-0.00039638058 0.0050785375 -0.00010494999)
(-0.0025407304 0.014693085 -6.2472182e-05)
(-0.0069440125 0.023357337 -2.8866959e-05)
(-0.012908878 0.030859965 -4.5661066e-06)
(-0.020045091 0.03711634 1.5112941e-05)
(-0.028089527 0.042115772 3.0919423e-05)
(-0.036801142 0.045894564 4.3623491e-05)
(-0.045965956 0.048513544 5.4031993e-05)
(-0.05539636 0.05004007 6.2700801e-05)
(-0.0649235 0.050536027 6.9939881e-05)
(-0.07439114 0.050051359 7.5848145e-05)
(-0.083651157 0.048622318 8.033755e-05)
(-0.09256013 0.046273461 8.3163283e-05)
(-0.10097707 0.043022363 8.3961446e-05)
(-0.10876224 0.038886012 8.2292409e-05)
(-0.11577703 0.033887973 7.7689221e-05)
(-0.1218848 0.028065541 6.9710433e-05)
(-0.1269525 0.021476321 5.7995884e-05)
(-0.1308532 0.014203802 4.2323077e-05)
(-0.13346935 0.0063616181 2.2661247e-05)
(-0.13469689 -0.0019037504 -7.8161118e-07)
(-0.13445001 -0.010412119 -2.7530119e-05)
(-0.13266688 -0.018950655 -5.6812881e-05)
(-0.12931595 -0.027277511 -8.7578999e-05)
(-0.12440264 -0.035127995 -0.00011852617)
(-0.11797598 -0.04222373 -0.0001481639)
(-0.11013476 -0.048284918 -0.00017490629)
(-0.10103206 -0.053045601 -0.00019718911)
(-0.090877408 -0.056271437 -0.00021360122)
(-0.079935319 -0.05777905 -0.00022301584)
(-0.068519412 -0.057455476 -0.00022470509)
(-0.056981432 -0.055275807 -0.00021842213)
(-0.045695167 -0.05131692 -0.00020443797)
(-0.035036063 -0.045765271 -0.00018352133)
(-0.025358551 -0.038917399 -0.00015684814)
(-0.016973423 -0.03117284 -0.00012587854)
(-0.010122966 -0.023020179 -9.2388168e-05)
(-0.0049572253 -0.015016121 -5.8309946e-05)
(-0.0015838871 -0.0077601125 -2.3137983e-05)
(-0.00018000215 -0.0018920009 1.4729058e-05)
(-0.00043686019 0.006458391 -9.3552706e-05)
(-0.0027867711 0.018316396 -4.5576261e-05)
(-0.0075956827 0.02877753 -9.0929449e-06)
(-0.014088243 0.037693876 1.7160186e-05)
(-0.0218302 0.045036991 3.8463272e-05)
(-0.030531432 0.050844913 5.5754816e-05)
(-0.039930241 0.055194237 6.9963934e-05)
(-0.049798187 0.05817761 8.2028628e-05)
(-0.059938569 0.0598864 9.2585316e-05)
(-0.070177316 0.060399648 0.00010198002)
(-0.080355594 0.059778748 0.00011031092)
(-0.090324272 0.058066918 0.00011745745)
(-0.099939654 0.055292441 0.00012311442)
(-0.10906046 0.051474566 0.00012683308)
(-0.11754598 0.046631014 0.00012806754)
(-0.12525532 0.040786139 0.0001262265)
(-0.13204757 0.033979002 0.00012073005)
(-0.1377829 0.026270805 0.0001110707)
(-0.14232451 0.017751309 9.687692e-05)
(-0.14554149 0.008543962 7.797668e-05)
(-0.14731272 -0.0011904744 5.4456327e-05)
(-0.14753168 -0.011252022 2.6693922e-05)
(-0.14611259 -0.021401925 -4.5802494e-06)
(-0.14299778 -0.031365207 -3.830596e-05)
(-0.13816566 -0.040836491 -7.3102132e-05)
(-0.13163954 -0.04948926 -0.00010732313)
(-0.12349616 -0.05698899 -0.00013915034)
(-0.11387327 -0.063010299 -0.00016671676)
(-0.10297473 -0.067257812 -0.00018825679)
(-0.091071932 -0.06948977 -0.00020226627)
(-0.078500036 -0.06954274 -0.00020765304)
(-0.065647866 -0.067355 -0.00020385704)
(-0.052941118 -0.062985724 -0.00019092226)
(-0.040819376 -0.056626998 -0.0001695042)
(-0.029709173 -0.04860634 -0.00014079201)
(-0.019995892 -0.039378786 -0.00010638343)
(-0.011991976 -0.029509082 -6.8330584e-05)
(-0.0059059299 -0.019644107 -2.8940404e-05)
(-0.001899564 -0.010479194 1.2367692e-05)
(-0.0002191072 -0.0027504789 5.470808e-05)
(-0.00047274689 0.0079596307 -7.2416591e-05)
(-0.0030052217 0.022246045 -1.8735769e-05)
(-0.0081752544 0.034639751 2.0340051e-05)
(-0.015139224 0.045065152 4.8419805e-05)
(-0.023424441 0.053558712 7.1334139e-05)
(-0.032717221 0.060215294 9.0203977e-05)
(-0.042737864 0.065158804 0.0001061074)
(-0.053245559 0.068519463 0.00012010059)
(-0.064036269 0.070417104 0.00013288833)
(-0.07493239 0.070951175 0.0001448417)
(-0.085774235 0.070196684 0.00015604828)
(-0.096413541 0.068205042 0.00016634593)
(-0.10670833 0.065008652 0.00017536015)
(-0.11651909 0.060628082 0.00018254751)
(-0.12570616 0.055080708 0.00018724415)
(-0.1341282 0.048389896 0.00018871961)
(-0.14164163 0.040594008 0.00018623662)
(-0.14810097 0.031754741 0.00017911667)
(-0.15336011 0.021964473 0.00016681004)
(-0.15727458 0.011352422 0.00014896738)
(-0.15970497 8.9439216e-05 0.00012550923)
(-0.16052191 -0.011608758 9.6696895e-05)
(-0.15961236 -0.023480768 6.3159849e-05)
(-0.15688759 -0.035220637 2.5940583e-05)
(-0.15229288 -0.046482675 -1.3519459e-05)
(-0.14581829 -0.05689018 -5.3421678e-05)
(-0.13751014 -0.066048898 -9.1694744e-05)
(-0.12748188 -0.073565706 -0.00012612278)
(-0.11592319 -0.079072498 -0.00015451199)
(-0.10310516 -0.082254492 -0.00017488257)
(-0.089379759 -0.082881152 -0.00018566429)
(-0.07517182 -0.080836872 -0.00018586888)
(-0.060962187 -0.076147589 -0.00017521318)
(-0.047262326 -0.068999134 -0.00015416765)
(-0.034582534 -0.059743603 -0.00012389978)
(-0.023397022 -0.048891727 -8.6151415e-05)
(-0.01410322 -0.03709135 -4.3302356e-05)
(-0.0069813218 -0.025092289 1.8820009e-06)
(-0.0022589699 -0.013702793 5.0028482e-05)
(-0.00026414161 -0.0037760114 9.7586961e-05)
(-0.00050353683 0.0095671737 -4.0571979e-05)
(-0.0031931891 0.026444453 1.9041598e-05)
(-0.0086751737 0.040890973 6.0396288e-05)
(-0.016048074 0.052911145 9.016098e-05)
(-0.024806725 0.062613737 0.00011466407)
(-0.034617541 0.07015737 0.00013520182)
(-0.045185669 0.075719444 0.00015299213)
(-0.056260128 0.079472991 0.00016919815)
(-0.067631352 0.08157053 0.00018458319)
(-0.079119857 0.082135119 0.00019953518)
(-0.090566794 0.081257626 0.00021412409)
(-0.10182657 0.078999004 0.00022813987)
(-0.11276089 0.07539628 0.00024113233)
(-0.12323406 0.070471028 0.00025245568)
(-0.13310962 0.064239157 0.00026131763)
(-0.1422479 0.056721113 0.00026683394)
(-0.15050464 0.047951817 0.00026808986)
(-0.15773044 0.037989923 0.00026420908)
(-0.16377122 0.026926182 0.00025442949)
(-0.16846971 0.014890776 0.00023818356)
(-0.17166827 0.0020594946 0.00021518076)
(-0.1732136 -0.01134151 0.00018549719)
(-0.172963 -0.025032751 0.00014962137)
(-0.17079287 -0.038680983 0.00010852474)
(-0.16660971 -0.051902133 6.3670062e-05)
(-0.16036292 -0.064268703 1.6989955e-05)
(-0.15205915 -0.075322781 -2.91842e-05)
(-0.14177716 -0.084595592 -7.2248282e-05)
(-0.12968146 -0.091634059 -0.00010950546)
(-0.11603255 -0.096033961 -0.00013839065)
(-0.10119118 -0.097477964 -0.00015671839)
(-0.085613762 -0.095775282 -0.00016292256)
(-0.069836974 -0.090898173 -0.00015625164)
(-0.054450584 -0.083009474 -0.0001368796)
(-0.040060567 -0.072475532 -0.0001058859)
(-0.027246065 -0.059860761 -6.5142805e-05)
(-0.016507449 -0.04590293 -1.7401619e-05)
(-0.0082136433 -0.031469433 3.4025379e-05)
(-0.002674278 -0.017501628 8.9790185e-05)
(-0.00031729052 -0.0049938073 0.00014350928)
(-0.00052866663 0.011264333 2.8113473e-06)
(-0.0033476528 0.030870251 6.8600305e-05)
(-0.0090878239 0.047472756 0.00011189727)
(-0.01680117 0.061162498 0.0001431954)
(-0.025956257 0.072126486 0.00016926081)
(-0.036203316 0.080592813 0.00019155683)
(-0.047235187 0.086797651 0.00021143245)
(-0.058792893 0.090961504 0.000230148)
(-0.070663067 0.093273509 0.00024851818)
(-0.082665904 0.093883466 0.00026694277)
(-0.094644965 0.092900423 0.00028547051)
(-0.10645905 0.09039636 0.00030384065)
(-0.11797541 0.086413596 0.00032152415)
(-0.12906433 0.080974536 0.00033776823)
(-0.13959479 0.074092589 0.0003516442)
(-0.14943122 0.065783358 0.00036210101)
(-0.15843116 0.056075479 0.00036802655)
(-0.16644376 0.045020814 0.00036831833)
(-0.17330926 0.032703861 0.00036196397)
(-0.17885955 0.019250358 0.00034813034)
(-0.18292021 0.004835025 0.00032625957)
(-0.18531445 -0.010311773 0.00029617092)
(-0.18586911 -0.025898716 0.00025814607)
(-0.18442339 -0.041570711 0.00021301377)
(-0.18084045 -0.056909246 0.00016219634)
(-0.17502209 -0.071437531 0.00010771775)
(-0.16692585 -0.084631994 5.2155901e-05)
(-0.15658401 -0.095941669 -1.4719706e-06)
(-0.14412254 -0.10481663 -4.9896205e-05)
(-0.12977762 -0.11074574 -8.9849698e-05)
(-0.11390637 -0.11330236 -0.00011837299)
(-0.096987978 -0.11219465 -0.00013313565)
(-0.079611683 -0.10731484 -0.00013272756)
(-0.062449382 -0.098779639 -0.00011686152)
(-0.046214009 -0.086953565 -8.6415752e-05)
(-0.031607283 -0.072448769 -4.3347318e-05)
(-0.019253868 -0.056098424 9.1893175e-06)
(-0.0096329944 -0.03890338 6.7241476e-05)
(-0.0031577813 -0.02196137 0.00013146835)
(-0.00038077894 -0.0064355217 0.00019249665)
(-0.00054758575 0.013032809 5.8400873e-05)
(-0.0034657755 0.035478407 0.0001306155)
(-0.0094061779 0.05432151 0.00017549961)
(-0.017385997 0.069743441 0.00020817269)
(-0.02685383 0.082013759 0.00023577073)
(-0.037447324 0.091434422 0.00025991427)
(-0.048849714 0.098304697 0.00028207482)
(-0.060796032 0.10289663 0.00030360175)
(-0.073070661 0.10543959 0.00032535674)
(-0.085494858 0.10611319 0.00034775)
(-0.097916013 0.10504705 0.00037080952)
(-0.11019888 0.10232585 0.00039422509)
(-0.12221814 0.097998088 0.0004173898)
(-0.13385209 0.092087081 0.00043944299)
(-0.1449776 0.08460293 0.00045931523)
(-0.15546593 0.075554661 0.00047577871)
(-0.16517942 0.064961921 0.00048750621)
(-0.17396898 0.052866064 0.00049314149)
(-0.1816725 0.039340592 0.00049138271)
(-0.18811434 0.024501064 0.00048107905)
(-0.19310631 0.008514518 0.00046133986)
(-0.19645049 -0.0083917284 0.00043165347)
(-0.19794456 -0.025922215 0.00039200484)
(-0.19738998 -0.043707423 0.00034298919)
(-0.19460391 -0.061300811 0.00028590064)
(-0.18943482 -0.078180625 0.00022278162)
(-0.18178217 -0.093758542 0.00015641242)
(-0.17161927 -0.10739743 9.0222141e-05)
(-0.15901804 -0.11844028 2.8106859e-05)
(-0.14417296 -0.12625162 -2.5849071e-05)
(-0.12742025 -0.13027088 -6.7736662e-05)
(-0.10924737 -0.1300748 -9.4237888e-05)
(-0.090287358 -0.12544243 -0.00010303866)
(-0.071293766 -0.11641303 -9.3159547e-05)
(-0.053095723 -0.10332519 -6.5099265e-05)
(-0.036535938 -0.086826533 -2.0804335e-05)
(-0.02238813 -0.067847914 3.6159531e-05)
(-0.011268603 -0.04753976 0.00010110291)
(-0.0037217893 -0.027182362 0.00017467299)
(-0.00045690446 -0.0081392848 0.00024437139)
(-0.00055983227 0.014852862 0.00012667687)
(-0.0035452618 0.040220704 0.00020557163)
(-0.009624606 0.061369164 0.00025167422)
(-0.017792434 0.078572494 0.000285557)
(-0.027483567 0.0921853 0.00031465062)
(-0.038326391 0.1025864 0.00034072142)
(-0.049996946 0.1101415 0.00036535524)
(-0.062226004 0.11517764 0.00038998426)
(-0.074797001 0.11796778 0.00041551585)
(-0.087533416 0.11872433 0.00044237323)
(-0.10028768 0.11759997 0.00047056852)
(-0.11293193 0.11469401 0.00049974801)
(-0.12534995 0.11006233 0.00052923261)
(-0.1374302 0.10372955 0.00055805758)
(-0.14905993 0.095702055 0.00058501294)
(-0.1601202 0.085980938 0.00060868859)
(-0.17048158 0.074574522 0.0006275286)
(-0.18000071 0.061510243 0.00063989876)
(-0.18851748 0.046846065 0.00064417046)
(-0.1958534 0.03068164 0.00063882283)
(-0.20181117 0.01316939 0.00062256336)
(-0.20617621 -0.0054744768 0.00059446535)
(-0.20872058 -0.024959323 0.000554116)
(-0.20921016 -0.044910649 0.00050176567)
(-0.20741576 -0.06486306 0.00043846498)
(-0.20312907 -0.084257606 0.00036616719)
(-0.19618383 -0.10244604 0.00028777112)
(-0.18648217 -0.11870501 0.00020707686)
(-0.17402514 -0.13226348 0.00012862813)
(-0.15894486 -0.14234592 5.7424752e-05)
(-0.14153421 -0.14823248 -1.4938243e-06)
(-0.12226769 -0.14933413 -4.3566611e-05)
(-0.10180609 -0.14527631 -6.5271581e-05)
(-0.080977748 -0.13597965 -6.4627346e-05)
(-0.06073316 -0.12172184 -4.148972e-05)
(-0.042073788 -0.10316435 2.3734811e-06)
(-0.025950146 -0.081332063 6.3019564e-05)
(-0.013148069 -0.057539735 0.00013493182)
(-0.0043785375 -0.033278961 0.00021872314)
(-0.00054807511 -0.010149716 0.0002986699)
(-0.00056511184 0.016703697 0.0002079102)
(-0.0035847549 0.045046646 0.00029374453)
(-0.0097398028 0.068544348 0.00034068966)
(-0.018014268 0.087563698 0.00037560818)
(-0.027835015 0.10254489 0.00040614424)
(-0.038824041 0.11394514 0.00043419725)
(-0.050652186 0.12219899 0.00046146029)
(-0.063047345 0.12769138 0.0004894447)
(-0.075793016 0.1307419 0.00051910598)
(-0.088715806 0.13159875 0.00055088732)
(-0.1016742 0.13044037 0.0005847947)
(-0.11454897 0.12738281 0.00062044197)
(-0.12723459 0.12249091 0.00065708869)
(-0.13963169 0.11579148 0.00069367514)
(-0.15164046 0.10728725 0.00072885638)
(-0.16315487 0.096970603 0.0007610401)
(-0.17405758 0.084836788 0.00078843388)
(-0.18421541 0.070896508 0.00080910716)
(-0.19347554 0.05518817 0.00082107273)
(-0.20166246 0.037790151 0.0008223912)
(-0.20857618 0.01883341 0.00081130074)
(-0.21399191 -0.001485395 0.00078637182)
(-0.21766226 -0.022890427 0.00074668491)
(-0.21932244 -0.045013476 0.00069201766)
(-0.21869982 -0.067382299 0.00062303617)
(-0.21552889 -0.089412389 0.00054146067)
(-0.20957271 -0.11040518 0.00045017858)
(-0.20065166 -0.12955641 0.00035326761)
(-0.18867898 -0.14597921 0.00025588909)
(-0.17370156 -0.15874622 0.00016401727)
(-0.15594157 -0.16695433 8.3987579e-05)
(-0.13583202 -0.16981187 2.187741e-05)
(-0.11403649 -0.16674319 -1.7223776e-05)
(-0.091442328 -0.15749775 -2.993457e-05)
(-0.06911972 -0.14224355 -1.5098019e-05)
(-0.048243794 -0.12162085 2.596602e-05)
(-0.029971455 -0.096735216 8.9041353e-05)
(-0.015296437 -0.069076629 0.0001677161)
(-0.0051400624 -0.040378457 0.00026254643)
(-0.00065684572 -0.012517912 0.00035454087)
(-0.00056337926 0.018564064 0.00030214564)
(-0.0035842624 0.049904848 0.0003951902)
(-0.0097518084 0.075774175 0.00044260278)
(-0.018050886 0.096628477 0.00047837066)
(-0.027905514 0.11299204 0.0005102665)
(-0.038933515 0.12540064 0.00054030954)
(-0.050802003 0.13435914 0.00057029509)
(-0.063236979 0.14031276 0.00060181383)
(-0.076022718 0.14363067 0.00063587657)
(-0.088989649 0.14459984 0.00067295847)
(-0.10200315 0.14342729 0.00071307429)
(-0.11495371 0.14024833 0.00075582167)
(-0.12774797 0.1351387 0.00080041503)
(-0.14030066 0.12812879 0.00084571431)
(-0.15252741 0.11921835 0.00089025108)
(-0.1643383 0.10839097 0.00093225725)
(-0.17563201 0.095627854 0.00096970325)