/*--------------------------------*- C++ -*----------------------------------*\
  =========                 |
  \\      /  F ield         | OpenFOAM: The Open Source CFD Toolbox
   \\    /   O peration     | Website:  https://openfoam.org
    \\  /    A nd           | Version:  7
     \\/     M anipulation  |
\*---------------------------------------------------------------------------*/
FoamFile
{
    version     2.0;
    format      ascii;
    class       volScalarField;
    location    "1.1";
    object      p;
}
// * * * * * * * * * * * * * * * * * * * * * * * * * * * * * * * * * * * * * //

dimensions      [1 -1 -2 0 0 0 0];

internalField   nonuniform List<scalar> 
19968
(
1
1
1
1
1
1
1
1
1
1
1
1
1
1
1
1
1
1
1
1
1
1
1
1
1
1
1
1
1
1
1
1
1
1
1
1
1
1
1
1
1
1
1
1
1
1
1
1
1
1
1
1
1
3.83711
10.1027
10.7875
10.8478
10.9774
11.0462
11.071
11.0781
11.0585
11.0579
11.0921
11.1599
11.2596
11.3787
11.4545
11.5015
11.5291
11.5525
11.583
11.6258
11.6815
11.7444
11.7865
11.7935
11.7782
11.7643
11.7747
11.8221
11.8998
11.9739
12.0263
12.061
12.0913
12.1192
12.1406
12.1546
12.1666
12.1833
12.2023
12.211
12.2045
12.19
12.1645
1
1
1
1
1
1
1
1
1
1
1
1
1
1
1
1
1
1
1
1
1
1
1
1
1
1
1
1
1
1
1
1
1
1
1
1
1
1
1
1
1
1
1
1
1
1
1
1
1
1
1
1
1
3.75803
10.0942
10.7687
10.854
10.9738
11.0441
11.0665
11.073
11.0549
11.047
11.0833
11.1498
11.2538
11.372
11.4484
11.4955
11.5229
11.5476
11.5789
11.621
11.6747
11.7342
11.7757
11.7853
11.7736
11.7636
11.7768
11.8258
11.9023
11.9746
12.0238
12.0538
12.0787
12.1034
12.126
12.145
12.1622
12.1808
12.1978
12.2045
12.1974
12.1838
12.1625
1
1
1
1
1
1
1
1
1
1
1
1
1
1
1
1
1
1
1
1
1
1
1
1
1
1
1
1
1
1
1
1
1
1
1
1
1
1
1
1
1
1
1
1
1
1
1
1
1
1
1
1
1
3.59118
10.0515
10.7499
10.8358
10.9545
11.0272
11.0493
11.0591
11.0466
11.0321
11.0681
11.1309
11.2389
11.3577
11.4377
11.4874
11.5148
11.5406
11.5724
11.6118
11.6604
11.7145
11.7565
11.7722
11.768
11.764
11.7805
11.8297
11.9032
11.9741
12.0212
12.0456
12.0618
12.079
12.1009
12.1264
12.1518
12.1726
12.1893
12.1957
12.1882
12.1735
12.1559
1
1
1
1
1
1
1
1
1
1
1
1
1
1
1
1
1
1
1
1
1
1
1
1
1
1
1
1
1
1
1
1
1
1
1
1
1
1
1
1
1
1
1
1
1
1
1
1
1
1
1
1
1
3.33509
9.94445
10.7407
10.8197
10.9348
11.0023
11.0259
11.038
11.0376
11.018
11.0519
11.1088
11.2172
11.3345
11.4185
11.4734
11.5034
11.5311
11.5629
11.5979
11.6394
11.6865
11.7288
11.7518
11.758
11.7639
11.7859
11.8333
11.9002
11.9667
12.0113
12.0312
12.0391
12.0483
12.068
12.0991
12.1324
12.1568
12.1749
12.1821
12.1749
12.1582
12.145
1
1
1
1
1
1
1
1
1
1
1
1
1
1
1
1
1
1
1
1
1
1
1
1
1
1
1
1
1
1
1
1
1
1
1
1
1
1
1
1
1
1
1
1
1
1
1
1
1
1
1
1
1
2.98633
9.76455
10.7284
10.7879
10.8961
10.961
10.9991
11.0213
11.0308
11.0135
11.0427
11.0915
11.1929
11.304
11.3908
11.4525
11.4889
11.5204
11.5503
11.5791
11.6123
11.6501
11.6918
11.7223
11.7426
11.7627
11.7915
11.834
11.8901
11.9485
11.991
12.0098
12.0134
12.0165
12.0319
12.0638
12.1009
12.1296
12.1517
12.1633
12.1581
12.1399
12.1305
1
1
1
1
1
1
1
1
1
1
1
1
1
1
1
1
1
1
1
1
1
1
1
1
1
1
1
1
1
1
1
1
1
1
1
1
1
1
1
1
1
1
1
1
1
1
1
1
1
1
1
1
1
2.53527
9.41595
10.7024
10.7727
10.867
10.932
10.9801
11.0134
11.0254
11.0163
11.0425
11.0837
11.1712
11.2692
11.3551
11.4217
11.4673
11.5056
11.535
11.5562
11.5798
11.6062
11.6452
11.6834
11.7216
11.7593
11.7951
11.8305
11.8713
11.9186
11.959
11.9811
11.9861
11.9854
11.9943
12.0216
12.0568
12.0877
12.1164
12.1354
12.1348
12.1155
12.1082
1
1
1
1
1
1
1
1
1
1
1
1
1
1
1
1
1
1
1
1
1
1
1
1
1
1
1
1
1
1
1
1
1
1
1
1
1
1
1
1
1
1
1
1
1
1
1
1
1
1
1
1
1
2.04746
8.86517
10.6646
10.7414
10.8297
10.8996
10.9566
10.9944
11.0125
11.0155
11.0406
11.0757
11.1484
11.2344
11.3196
11.3882
11.4415
11.4843
11.5143
11.5287
11.5427
11.5594
11.5943
11.6411
11.6967
11.7501
11.7901
11.8165
11.8408
11.8759
11.9147
11.9417
11.9514
11.9499
11.9528
11.9725
12.0012
12.0316
12.0679
12.096
12.1024
12.0831
12.0772
1
1
1
1
1
1
1
1
1
1
1
1
1
1
1
1
1
1
1
1
1
1
1
1
1
1
1
1
1
1
1
1
1
1
1
1
1
1
1
1
1
1
1
1
1
1
1
1
1
1
1
1
1
1.53792
8.05367
10.6429
10.7423
10.8177
10.8818
10.9343
10.9729
11.0036
11.0184
11.0397
11.0635
11.1179
11.194
11.2756
11.3451
11.4036
11.4483
11.4795
11.4924
11.5005
11.5116
11.546
11.6013
11.6684
11.7293
11.7684
11.7863
11.7995
11.8258
11.8628
11.8927
11.9075
11.908
11.9073
11.9169
11.9364
11.9653
12.0053
12.0401
12.0525
12.0349
12.0305
1
1
1
1
1
1
1
1
1
1
1
1
1
1
1
1
1
1
1
1
1
1
1
1
1
1
1
1
1
1
1
1
1
1
1
1
1
1
1
1
1
1
1
1
1
1
1
1
1
1
1
1
1
1.02124
6.69977
10.6804
10.7846
10.8355
10.8953
10.943
10.9757
10.9912
10.991
10.9922
11.007
11.0599
11.1367
11.2169
11.2905
11.3543
11.4019
11.4334
11.4461
11.4522
11.4655
11.5032
11.5649
11.6361
11.6929
11.7242
11.7342
11.7412
11.7622
11.796
11.8265
11.8447
11.8485
11.8477
11.8505
11.8631
11.89
11.9297
11.9665
11.9833
11.9692
11.9676
1
1
1
1
1
1
1
1
1
1
1
1
1
1
1
1
1
1
1
1
1
1
1
1
1
1
1
1
1
1
1
1
1
1
1
1
1
1
1
1
1
1
1
1
1
1
1
1
1
1
1
1
1
1.00007
5.09212
10.4275
10.6851
10.7534
10.8363
10.9008
10.9426
10.9607
10.9597
10.9512
10.9581
10.9989
11.0628
11.1445
11.2246
11.2948
11.3459
11.3809
11.3909
11.3968
11.4164
11.4554
11.5188
11.5887
11.6366
11.6583
11.6619
11.6662
11.685
11.7174
11.7486
11.7686
11.7745
11.7735
11.7737
11.7825
11.8047
11.8373
11.8686
11.8849
11.8751
11.8769
1
1
1
1
1
1
1
1
1
1
1
1
1
1
1
1
1
1
1
1
1
1
1
1
1
1
1
1
1
1
1
1
1
1
1
1
1
1
1
1
1
1
1
1
1
1
1
1
1
1
1
1
1
1
3.40789
9.86654
10.6328
10.7074
10.7845
10.8418
10.8821
10.8999
10.9024
10.897
10.9047
10.9375
10.9953
11.0727
11.1544
11.2285
11.2851
11.3235
11.3329
11.3398
11.3514
11.3811
11.4368
11.509
11.5543
11.573
11.5726
11.5726
11.5872
11.616
11.6458
11.6649
11.67
11.6675
11.6681
11.6786
11.6992
11.7245
11.748
11.7619
11.7572
11.7619
1
1
1
1
1
1
1
1
1
1
1
1
1
1
1
1
1
1
1
1
1
1
1
1
1
1
1
1
1
1
1
1
1
1
1
1
1
1
1
1
1
1
1
1
1
1
1
1
1
1
1
1
1
1
1.90479
8.62515
10.591
10.6394
10.7173
10.7779
10.829
10.8586
10.873
10.8757
10.8792
10.8963
10.9373
11.0055
11.0814
11.1521
11.2104
11.2457
11.2623
11.2725
11.2691
11.2832
11.3279
11.3976
11.445
11.4679
11.4689
11.4636
11.4723
11.4962
11.5236
11.5417
11.5457
11.54
11.5402
11.5519
11.5695
11.5829
11.5913
11.5941
11.5887
11.5899
1
1
1
1
1
1
1
1
1
1
1
1
1
1
1
1
1
1
1
1
1
1
1
1
1
1
1
1
1
1
1
1
1
1
1
1
1
1
1
1
1
1
1
1
1
1
1
1
1
1
1
1
1
1
1.02967
6.34594
10.4894
10.5845
10.6276
10.6931
10.7482
10.7846
10.7984
10.7974
10.7966
10.8078
10.8445
10.9178
11.0013
11.0738
11.1288
11.1553
11.1731
11.1802
11.1767
11.1776
11.2051
11.2627
11.3045
11.3282
11.3324
11.3225
11.3215
11.337
11.3583
11.3716
11.368
11.3544
11.3488
11.3592
11.3778
11.388
11.3881
11.3829
11.3764
11.3712
1
1
1
1
1
1
1
1
1
1
1
1
1
1
1
1
1
1
1
1
1
1
1
1
1
1
1
1
1
1
1
1
1
1
1
1
1
1
1
1
1
1
1
1
1
1
1
1
1
1
1
1
1
1
1.00005
3.66431
9.7728
10.4605
10.5089
10.5942
10.6639
10.7158
10.7352
10.731
10.7197
10.7178
10.7448
10.8153
10.9058
10.9869
11.0418
11.063
11.075
11.0748
11.0623
11.0555
11.0647
11.0978
11.1285
11.1476
11.1565
11.149
11.1363
11.1436
11.1614
11.1712
11.1634
11.1437
11.1307
11.1357
11.1487
11.1461
11.1194
11.0795
11.0422
11.0112
1
1
1
1
1
1
1
1
1
1
1
1
1
1
1
1
1
1
1
1
1
1
1
1
1
1
1
1
1
1
1
1
1
1
1
1
1
1
1
1
1
1
1
1
1
1
1
1
1
1
1
1
1
1
1
1.40701
7.67634
10.3961
10.4553
10.5191
10.5889
10.6472
10.6764
10.6759
10.6589
10.6458
10.6593
10.7164
10.8017
10.8851
10.9352
10.9433
10.9417
10.9311
10.9102
10.895
10.8899
10.9011
10.9243
10.9381
10.9525
10.9484
10.9225
10.9113
10.908
10.898
10.8699
10.8278
10.7861
10.7556
10.7297
10.6912
10.6399
10.583
10.555
10.53
1
1
1
1
1
1
1
1
1
1
1
1
1
1
1
1
1
1
1
1
1
1
1
1
1
1
1
1
1
1
1
1
1
1
1
1
1
1
1
1
1
1
1
1
1
1
1
1
1
1
1
1
1
1
1
1.00394
4.1755
9.78265
10.3007
10.3643
10.4377
10.5011
10.541
10.5492
10.5405
10.5268
10.5261
10.5588
10.624
10.7045
10.7609
10.7728
10.7748
10.7683
10.7406
10.7183
10.7041
10.7019
10.7099
10.7154
10.7189
10.6995
10.6541
10.6126
10.5781
10.5407
10.4925
10.4366
10.3798
10.3261
10.2707
10.2076
10.1115
10.0088
9.86174
9.97091
1
1
1
1
1
1
1
1
1
1
1
1
1
1
1
1
1
1
1
1
1
1
1
1
1
1
1
1
1
1
1
1
1
1
1
1
1
1
1
1
1
1
1
1
1
1
1
1
1
1
1
1
1
1
1
0.999958
1.50099
7.79214
10.24
10.2673
10.3195
10.3821
10.4305
10.4556
10.4617
10.4524
10.4395
10.4547
10.4958
10.5565
10.6124
10.6286
10.6303
10.6156
10.5765
10.5366
10.5097
10.4966
10.4966
10.4967
10.489
10.4529
10.3929
10.3259
10.2591
10.1876
10.1074
10.0177
9.9149
9.78854
9.61223
9.36449
8.97355
8.39168
7.43248
5.53274
1
1
1
1
1
1
1
1
1
1
1
1
1
1
1
1
1
1
1
1
1
1
1
1
1
1
1
1
1
1
1
1
1
1
1
1
1
1
1
1
1
1
1
1
1
1
1
1
1
1
1
1
1
1
1
0.999995
1.00898
4.83927
9.86061
10.1973
10.2207
10.2777
10.3205
10.3494
10.3645
10.3628
10.3401
10.3402
10.3639
10.4046
10.4585
10.4869
10.4957
10.4791
10.4345
10.3812
10.3425
10.3205
10.3156
10.3114
10.294
10.2434
10.1641
10.0713
9.97349
9.86925
9.75424
9.62684
9.47415
9.28673
9.02147
8.6621
8.1295
7.4114
6.20699
4.60965
1
1
1
1
1
1
1
1
1
1
1
1
1
1
1
1
1
1
1
1
1
1
1
1
1
1
1
1
1
1
1
1
1
1
1
1
1
1
1
1
1
1
1
1
1
1
1
1
1
1
1
1
1
1
1
1
1
1.86426
8.22637
10.1816
10.1548
10.1849
10.2159
10.2501
10.2724
10.2801
10.2633
10.2431
10.249
10.277
10.3158
10.3495
10.3606
10.3422
10.2913
10.2257
10.1709
10.1341
10.1167
10.1047
10.081
10.0236
9.92918
9.81365
9.68988
9.56073
9.41619
9.2501
9.04881
8.80461
8.48917
8.06409
7.51871
6.72434
5.7224
4.62138
1
1
1
1
1
1
1
1
1
1
1
1
1
1
1
1
1
1
1
1
1
1
1
1
1
1
1
1
1
1
1
1
1
1
1
1
1
1
1
1
1
1
1
1
1
1
1
1
1
1
1
1
1
1
1
1
1
1.02349
5.02924
9.84783
10.0583
10.0566
10.0956
10.1395
10.1728
10.1914
10.1851
10.1431
10.1262
10.1327
10.1561
10.1861
10.205
10.1948
10.1452
10.0771
10.0109
9.95818
9.92161
9.89636
9.86381
9.80195
9.69835
9.56268
9.41329
9.26234
9.09967
8.90948
8.67833
8.39662
8.05295
7.62224
7.07723
6.40301
5.61276
4.77066
1
1
1
1
1
1
1
1
1
1
1
1
1
1
1
1
1
1
1
1
1
1
1
1
1
1
1
1
1
1
1
1
1
1
1
1
1
1
1
1
1
1
1
1
1
1
1
1
1
1
1
1
1
1
1
1
1
1.00002
1.73107
8.01488
10.0448
10.0039
10.0334
10.0592
10.092
10.115
10.1182
10.0821
10.0354
10.0104
10.013
10.0302
10.0422
10.0388
9.99951
9.93467
9.85691
9.78219
9.7206
9.6754
9.63255
9.57083
9.46895
9.32675
9.16334
8.99495
8.81701
8.61352
8.36937
8.07413
7.72471
7.30642
6.81731
6.25892
5.64577
4.98009
1
1
1
1
1
1
1
1
1
1
1
1
1
1
1
1
1
1
1
1
1
1
1
1
1
1
1
1
1
1
1
1
1
1
1
1
1
1
1
1
1
1
1
1
1
1
1
1
1
1
1
1
1
1
1
1
1
1
1.01542
4.3475
9.525
9.88788
9.93338
9.96255
9.98755
10.0092
10.0157
9.99163
9.92557
9.87447
9.84767
9.8465
9.85557
9.86202
9.84782
9.79701
9.71574
9.62318
9.53709
9.46847
9.40984
9.34174
9.24186
9.10265
8.93785
8.76042
8.57033
8.35933
8.11457
7.82562
7.48932
7.10378
6.67363
6.21548
5.71005
5.16971
1
1
1
1
1
1
1
1
1
1
1
1
1
1
1
1
1
1
1
1
1
1
1
1
1
1
1
1
1
1
1
1
1
1
1
1
1
1
1
1
1
1
1
1
1
1
1
1
1
1
1
1
1
1
1
1
1
1
1.00001
1.27817
7.14264
9.95537
9.92324
9.91482
9.90906
9.90936
9.91297
9.9016
9.85009
9.78337
9.72947
9.69467
9.68112
9.67692
9.67331
9.64191
9.57143
9.47403
9.37146
9.28137
9.20102
9.11807
9.01518
8.88338
8.72834
8.55482
8.36174
8.14409
7.90213
7.62375
7.31706
6.97165
6.59868
6.21121
5.7839
5.32874
1
1
1
1
1
1
1
1
1
1
1
1
1
1
1
1
1
1
1
1
1
1
1
1
1
1
1
1
1
1
1
1
1
1
1
1
1
1
1
1
1
1
1
1
1
1
1
1
1
1
1
1
1
1
1
1
1
1
1
1.00227
3.07733
8.95191
9.74968
9.73071
9.73009
9.73429
9.74692
9.75393
9.73592
9.68226
9.6206
9.56137
9.52003
9.50193
9.49243
9.4733
9.4251
9.34409
9.24436
9.1377
9.031
8.92088
8.80034
8.66803
8.52445
8.36431
8.1813
7.96703
7.73065
7.46529
7.18673
6.87818
6.5568
6.21549
5.85362
5.45954
1
1
1
1
1
1
1
1
1
1
1
1
1
1
1
1
1
1
1
1
1
1
1
1
1
1
1
1
1
1
1
1
1
1
1
1
1
1
1
1
1
1
1
1
1
1
1
1
1
1
1
1
1
1
1
1
1
1
1
1
1.10927
5.42053
9.52049
9.64118
9.65014
9.64261
9.63821
9.64274
9.63813
9.60376
9.54323
9.47041
9.40016
9.34885
9.31655
9.28861
9.25529
9.19944
9.11949
9.01181
8.88914
8.75735
8.61662
8.47705
8.33646
8.18431
8.01182
7.81493
7.58982
7.3438
7.08842
6.81281
6.53103
6.22229
5.90736
5.56211
1
1
1
1
1
1
1
1
1
1
1
1
1
1
1
1
1
1
1
1
1
1
1
1
1
1
1
1
1
1
1
1
1
1
1
1
1
1
1
1
1
1
1
1
1
1
1
1
1
1
1
1
1
1
1
1
1
1
1
1
1.00039
1.4858
7.13909
9.57142
9.60605
9.59442
9.56776
9.556
9.55227
9.53333
9.47994
9.4034
9.32012
9.24179
9.18145
9.1345
9.0958
9.0532
8.9928
8.89581
8.76761
8.62467
8.46793
8.3204
8.17278
8.02112
7.85697
7.6781
7.46865
7.24789
7.01477
6.76849
6.51142
6.22811
5.94893
5.64661
1
1
1
1
1
1
1
1
1
1
1
1
1
1
1
1
1
1
1
1
1
1
1
1
1
1
1
1
1
1
1
1
1
1
1
1
1
1
1
1
1
1
1
1
1
1
1
1
1
1
1
1
1
1
1
1
1
1
1
1
1
1.00669
2.72359
8.51529
9.51089
9.50177
9.48281
9.44796
9.43866
9.42016
9.37734
9.30587
9.22285
9.13804
9.06068
8.99865
8.94626
8.89863
8.84448
8.76044
8.63839
8.49964
8.35059
8.20049
8.04656
7.88968
7.72592
7.55445
7.3627
7.16567
6.95435
6.73263
6.49507
6.24223
5.98457
5.71983
1
1
1
1
1
1
1
1
1
1
1
1
1
1
1
1
1
1
1
1
1
1
1
1
1
1
1
1
1
1
1
1
1
1
1
1
1
1
1
1
1
1
1
1
1
1
1
1
1
1
1
1
1
1
1
1
1
1
1
1
1
1.00001
1.07359
4.50662
9.17928
9.411
9.39403
9.36013
9.32051
9.28975
9.25241
9.20213
9.1362
9.05942
8.97653
8.89765
8.82379
8.75784
8.69049
8.60529
8.49367
8.36943
8.23949
8.0999
7.9497
7.79067
7.62827
7.45892
7.27925
7.09621
6.90322
6.69875
6.48061
6.25363
6.01541
5.78288
1
1
1
1
1
1
1
1
1
1
1
1
1
1
1
1
1
1
1
1
1
1
1
1
1
1
1
1
1
1
1
1
1
1
1
1
1
1
1
1
1
1
1
1
1
1
1
1
1
1
1
1
1
1
1
1
1
1
1
1
1
1
1.00023
1.296
5.8132
9.1965
9.29169
9.26516
9.22657
9.18026
9.13799
9.09639
9.04725
8.98559
8.90831
8.82023
8.73068
8.64286
8.55464
8.45717
8.34788
8.23534
8.12447
8.0025
7.86673
7.71654
7.55855
7.39323
7.22203
7.04589
6.8639
6.66815
6.4667
6.25842
6.04133
5.83327
1
1
1
1
1
1
1
1
1
1
1
1
1
1
1
1
1
1
1
1
1
1
1
1
1
1
1
1
1
1
1
1
1
1
1
1
1
1
1
1
1
1
1
1
1
1
1
1
1
1
1
1
1
1
1
1
1
1
1
1
1
1
1
1.00258
1.60729
6.72998
9.04325
9.14784
9.1445
9.09544
9.04283
8.99191
8.94535
8.89388
8.82775
8.74418
8.64829
8.54885
8.44684
8.33818
8.2245
8.11497
8.01007
7.89952
7.77954
7.64457
7.49692
7.34242
7.18206
7.01344
6.83733
6.6458
6.45642
6.2608
6.06232
5.87255
1
1
1
1
1
1
1
1
1
1
1
1
1
1
1
1
1
1
1
1
1
1
1
1
1
1
1
1
1
1
1
1
1
1
1
1
1
1
1
1
1
1
1
1
1
1
1
1
1
1
1
1
1
1
1
1
1
1
1
1
1
1
1
1
1.01006
1.98093
7.44765
9.02085
9.04654
9.02974
8.97459
8.91644
8.85379
8.79332
8.72837
8.65171
8.56144
8.46134
8.35805
8.25149
8.14007
8.02658
7.91553
7.80502
7.69118
7.56803
7.4316
7.28904
7.14085
6.98399
6.81593
6.63276
6.45297
6.26651
6.08151
5.90614
1
1
1
1
1
1
1
1
1
1
1
1
1
1
1
1
1
1
1
1
1
1
1
1
1
1
1
1
1
1
1
1
1
1
1
1
1
1
1
1
1
1
1
1
1
1
1
1
1
1
1
1
1
1
1
1
1
1
1
1
1
1
1
1
1.00002
1.02498
2.67626
7.92878
8.90694
8.90543
8.88786
8.83627
8.77334
8.70484
8.63549
8.55952
8.47273
8.37799
8.28021
8.18048
8.07579
7.96442
7.84759
7.73197
7.61758
7.49882
7.36958
7.23372
7.09394
6.94888
6.79072
6.61958
6.44969
6.27492
6.10123
5.9377
1
1
1
1
1
1
1
1
1
1
1
1
1
1
1
1
1
1
1
1
1
1
1
1
1
1
1
1
1
1
1
1
1
1
1
1
1
1
1
1
1
1
1
1
1
1
1
1
1
1
1
1
1
1
1
1
1
1
1
1
1
1
1
1
1
1.00006
1.06823
3.31265
8.17229
8.78186
8.76037
8.73358
8.68239
8.62261
8.55544
8.47994
8.39433
8.30391
8.21272
8.11864
8.01819
7.90977
7.79283
7.67353
7.55748
7.44004
7.31532
7.18308
7.04686
6.90968
6.7633
6.60742
6.44841
6.28455
6.12054
5.96642
1
1
1
1
1
1
1
1
1
1
1
1
1
1
1
1
1
1
1
1
1
1
1
1
1
1
1
1
1
1
1
1
1
1
1
1
1
1
1
1
1
1
1
1
1
1
1
1
1
1
1
1
1
1
1
1
1
1
1
1
1
1
1
1
1
1
1.00027
1.13131
3.73172
8.21888
8.67693
8.62226
8.59392
8.54408
8.4824
8.40961
8.3279
8.2411
8.15271
8.06091
7.96347
7.85836
7.74361
7.62222
7.50442
7.38849
7.26836
7.13994
7.00624
6.87644
6.74209
6.59933
6.45096
6.29499
6.13913
5.992
1
1
1
1
1
1
1
1
1
1
1
1
1
1
1
1
1
1
1
1
1
1
1
1
1
1
1
1
1
1
1
1
1
1
1
1
1
1
1
1
1
1
1
1
1
1
1
1
1
1
1
1
1
1
1
1
1
1
1
1
1
1
1
1
1
1
1
1.00076
1.18877
3.92603
8.15768
8.56198
8.49438
8.46063
8.40601
8.34008
8.2663
8.18571
8.1003
8.01078
7.91497
7.8115
7.69961
7.58129
7.46349
7.34736
7.23036
7.10879
6.98088
6.85521
6.72669
6.59124
6.45336
6.30619
6.15881
6.01908
1
1
1
1
1
1
1
1
1
1
1
1
1
1
1
1
1
1
1
1
1
1
1
1
1
1
1
1
1
1
1
1
1
1
1
1
1
1
1
1
1
1
1
1
1
1
1
1
1
1
1
1
1
1
1
1
1
1
1
1
1
1
1
1
1
1
1
1
1.0014
1.22341
3.94005
8.03968
8.44109
8.36928
8.32742
8.26945
8.20225
8.12964
8.04969
7.96316
7.86987
7.76914
7.66122
7.54731
7.43184
7.31713
7.20266
7.08621
6.96403
6.84235
6.71848
6.58696
6.45711
6.31887
6.17929
6.04711
1
1
1
1
1
1
1
1
1
1
1
1
1
1
1
1
1
1
1
1
1
1
1
1
1
1
1
1
1
1
1
1
1
1
1
1
1
1
1
1
1
1
1
1
1
1
1
1
1
1
1
1
1
1
1
1
1
1
1
1
1
1
1
1
1
1
1
1
1
1.00189
1.23151
3.80011
7.8673
8.31666
8.24611
8.1984
8.13626
8.06483
7.99185
7.91272
7.82564
7.73098
7.62935
7.52157
7.40988
7.29688
7.18422
7.07151
6.95505
6.83819
6.71901
6.59015
6.46355
6.33352
6.20069
6.07446
1
1
1
1
1
1
1
1
1
1
1
1
1
1
1
1
1
1
1
1
1
1
1
1
1
1
1
1
1
1
1
1
1
1
1
1
1
1
1
1
1
1
1
1
1
1
1
1
1
1
1
1
1
1
1
1
1
1
1
1
1
1
1
1
1
1
1
1
1
1
1.00207
1.21316
3.51926
7.66056
8.19238
8.127
8.06759
8.0066
7.93521
7.86182
7.78112
7.69329
7.59889
7.49839
7.39245
7.28261
7.17159
7.06179
6.95012
6.83644
6.7216
6.59752
6.47315
6.35086
6.22357
6.10275
1
1
1
1
1
1
1
1
1
1
1
1
1
1
1
1
1
1
1
1
1
1
1
1
1
1
1
1
1
1
1
1
1
1
1
1
1
1
1
1
1
1
1
1
1
1
1
1
1
1
1
1
1
1
1
1
1
1
1
1
1
1
1
1
1
1
1
1
1
1
1
1.00185
1.17295
3.16022
7.37085
8.07784
8.02454
7.94668
7.88033
7.80655
7.73009
7.6492
7.56213
7.46907
7.37046
7.26705
7.16017
7.05403
6.94745
6.83748
6.72582
6.60628
6.48579
6.36922
6.24872
6.13243
1
1
1
1
1
1
1
1
1
1
1
1
1
1
1
1
1
1
1
1
1
1
1
1
1
1
1
1
1
1
1
1
1
1
1
1
1
1
1
1
1
1
1
1
1
1
1
1
1
1
1
1
1
1
1
1
1
1
1
1
1
1
1
1
1
1
1
1
1
1
1
1
1.00134
1.12694
2.83569
6.93034
7.90697
7.90757
7.82199
7.75468
7.68309
7.60642
7.52502
7.4377
7.34487
7.2484
7.14882
7.0473
6.94426
6.83856
6.73118
6.61714
6.50048
6.38779
6.27251
6.15828
1
1
1
1
1
1
1
1
1
1
1
1
1
1
1
1
1
1
1
1
1
1
1
1
1
1
1
1
1
1
1
1
1
1
1
1
1
1
1
1
1
1
1
1
1
1
1
1
1
1
1
1
1
1
1
1
1
1
1
1
1
1
1
1
1
1
1
1
1
1
1
1
1
1.00083
1.09002
2.4686
6.2241
7.74567
7.83777
7.72826
7.65289
7.57585
7.49413
7.40988
7.32258
7.23069
7.13562
7.03805
6.93897
6.8392
6.73739
6.62952
6.5176
6.40606
6.2923
6.18247
1
1
1
1
1
1
1
1
1
1
1
1
1
1
1
1
1
1
1
1
1
1
1
1
1
1
1
1
1
1
1
1
1
1
1
1
1
1
1
1
1
1
1
1
1
1
1
1
1
1
1
1
1
1
1
1
1
1
1
1
1
1
1
1
1
1
1
1
1
1
1
1
1
1
1.0005
1.0569
2.04968
5.31261
7.56516
7.75188
7.65051
7.56049
7.47484
7.38856
7.30058
7.21168
7.1225
7.02934
6.93263
6.83489
6.73646
6.63742
6.53234
6.42251
6.31405
6.20504
1
1
1
1
1
1
1
1
1
1
1
1
1
1
1
1
1
1
1
1
1
1
1
1
1
1
1
1
1
1
1
1
1
1
1
1
1
1
1
1
1
1
1
1
1
1
1
1
1
1
1
1
1
1
1
1
1
1
1
1
1
1
1
1
1
1
1
1
1
1
1
1
1
1
1
1.00025
1.0298
1.65451
4.33589
7.29431
7.63633
7.56814
7.44854
7.36463
7.28197
7.1974
7.10966
7.01865
6.92506
6.82778
6.73338
6.64206
6.54311
6.44086
6.33456
6.22616
1
1
1
1
1
1
1
1
1
1
1
1
1
1
1
1
1
1
1
1
1
1
1
1
1
1
1
1
1
1
1
1
1
1
1
1
1
1
1
1
1
1
1
1
1
1
1
1
1
1
1
1
1
1
1
1
1
1
1
1
1
1
1
1
1
1
1
1
1
1
1
1
1
1
1
1
1.0001
1.01275
1.36003
3.42755
6.76441
7.46645
7.48437
7.35673
7.27362
7.19048
7.10223
7.01401
6.92303
6.82865
6.7367
6.64153
6.54657
6.45335
6.35085
6.24992
1
1
1
1
1
1
1
1
1
1
1
1
1
1
1
1
1
1
1
1
1
1
1
1
1
1
1
1
1
1
1
1
1
1
1
1
1
1
1
1
1
1
1
1
1
1
1
1
1
1
1
1
1
1
1
1
1
1
1
1
1
1
1
1
1
1
1
1
1
1
1
1
1
1
1
1
1
1.00003
1.00468
1.17477
2.6608
5.78856
7.2926
7.40143
7.30797
7.19962
7.10365
7.01416
6.9204
6.82984
6.74041
6.64815
6.55707
6.46285
6.36203
6.27021
1
1
1
1
1
1
1
1
1
1
1
1
1
1
1
1
1
1
1
1
1
1
1
1
1
1
1
1
1
1
1
1
1
1
1
1
1
1
1
1
1
1
1
1
1
1
1
1
1
1
1
1
1
1
1
1
1
1
1
1
1
1
1
1
1
1
1
1
1
1
1
1
1
1
1
1
1
1
1.00001
1.00146
1.07695
1.96672
4.66581
6.97996
7.27879
7.24159
7.11686
7.02604
6.93999
6.84656
6.74831
6.65808
6.56985
6.47924
6.39052
6.29439
1
1
1
1
1
1
1
1
1
1
1
1
1
1
1
1
1
1
1
1
1
1
1
1
1
1
1
1
1
1
1
1
1
1
1
1
1
1
1
1
1
1
1
1
1
1
1
1
1
1
1
1
1
1
1
1
1
1
1
1
1
1
1
1
1
1
1
1
1
1
1
1
1
1
1
1
1
1
1
1
1.00041
1.02711
1.48665
3.52442
6.30339
7.1138
7.17237
7.07375
6.9729
6.87343
6.77462
6.67835
6.58646
6.50167
6.4137
6.31485
1
1
1
1
1
1
1
1
1
1
1
1
1
1
1
1
1
1
1
1
1
1
1
1
1
1
1
1
1
1
1
1
1
1
1
1
1
1
1
1
1
1
1
1
1
1
1
1
1
1
1
1
1
1
1
1
1
1
1
1
1
1
1
1
1
1
1
1
1
1
1
1
1
1
1
1
1
1
1
1
1
1.00009
1.00816
1.2045
2.51729
5.25605
6.89968
7.0654
7.01967
6.909
6.79886
6.68862
6.6019
6.52348
6.44009
6.35745
1
1
1
1
1
1
1
1
1
1
1
1
1
1
1
1
1
1
1
1
1
1
1
1
1
1
1
1
1
1
1
1
1
1
1
1
1
1
1
1
1
1
1
1
1
1
1
1
1
1
1
1
1
1
1
1
1
1
1
1
1
1
1
1
1
1
1
1
1
1
1
1
1
1
1
1
1
1
1
1
1
1
1.00001
1.00196
1.06912
1.77433
4.08141
6.22335
6.9113
6.99463
6.90387
6.78242
6.63736
6.51643
6.45302
6.40095
1
1
1
1
1
1
1
1
1
1
1
1
1
1
1
1
1
1
1
1
1
1
1
1
1
1
1
1
1
1
1
1
1
1
1
1
1
1
1
1
1
1
1
1
1
1
1
1
1
1
1
1
1
1
1
1
1
1
1
1
1
1
1
1
1
1
1
1
1
1
1
1
1
1
1
1
1
1
1
1
1
1
1
1
1.00037
1.01912
1.3375
2.82976
5.25088
6.70117
6.91332
6.88168
6.73435
6.53811
6.45718
6.41479
1
1
1
1
1
1
1
1
1
1
1
1
1
1
1
1
1
1
1
1
1
1
1
1
1
1
1
1
1
1
1
1
1
1
1
1
1
1
1
1
1
1
1
1
1
1
1
1
1
1
1
1
1
1
1
1
1
1
1
1
1
1
1
1
1
1
1
1
1
1
1
1
1
1
1
1
1
1
1
1
1
1
1
1
1
1.00005
1.0045
1.10858
1.89995
4.02643
6.12107
6.78658
6.81192
6.66253
6.46302
6.38209
1
1
1
1
1
1
1
1
1
1
1
1
1
1
1
1
1
1
1
1
1
1
1
1
1
1
1
1
1
1
1
1
1
1
1
1
1
1
1
1
1
1
1
1
1
1
1
1
1
1
1
1
1
1
1
1
1
1
1
1
1
1
1
1
1
1
1
1
1
1
1
1
1
1
1
1
1
1
1
1
1
1
1
1
1
1
1.00001
1.00074
1.02686
1.35943
2.84427
5.02917
6.56352
6.72665
6.59612
6.40816
1
1
1
1
1
1
1
1
1
1
1
1
1
1
1
1
1
1
1
1
1
1
1
1
1
1
1
1
1
1
1
1
1
1
1
1
1
1
1
1
1
1
1
1
1
1
1
1
1
1
1
1
1
1
1
1
1
1
1
1
1
1
1
1
1
1
1
1
1
1
1
1
1
1
1
1
1
1
1
1
1
1
1
1
1
1
1
1
1.0001
1.00526
1.1154
1.86954
3.74482
5.94053
6.52442
6.45642
1
1
1
1
1
1
1
1
1
1
1
1
1
1
1
1
1
1
1
1
1
1
1
1
1
1
1
1
1
1
1
1
1
1
1
1
1
1
1
1
1
1
1
1
1
1
1
1
1
1
1
1
1
1
1
1
1
1
1
1
1
1
1
1
1
1
1
1
1
1
1
1
1
1
1
1
1
1
1
1
1
1
1
1
1
1
1
1
1
1.00001
1.00081
1.02683
1.3085
2.58301
4.76882
6.08099
1
1
1
1
1
1
1
1
1
1
1
1
1
1
1
1
1
1
1
1
1
1
1
1
1
1
1
1
1
1
1
1
1
1
1
1
1
1
1
1
1
1
1
1
1
1
1
1
1
1
1
1
1
1
1
1
1
1
1
1
1
1
1
1
1
1
1
1
1
1
1
1
1
1
1
1
1
1
1
1
1
1
1
1
1
1
1
1
1
1
1
1.00009
1.00442
1.08678
1.69026
3.38904
1
1
1
1
1
1
1
1
1
1
1
1
1
1
1
1
1
1
1
1
1
1
1
1
1
1
1
1
1
1
1
1
1
1
1
1
1
1
1
1
1
1
1
1
1
1
1
1
1
1
1
1
1
1
1
1
1
1
1
1
1
1
1
1
1
1
1
1
1
1
1
1
1
1
1
1
1
1
1
1
1
1
1
1
1
1
1
1
1
1
1
1
1.00001
1.00055
1.01734
1.21811
1
1
1
1
1
1
1
1
1
1
1
1
1
1
1
1
1
1
1
1
1
1
1
1
1
1
1
1
1
1
1
1
1
1
1
1
1
1
1
1
1
1
1
1
1
1
1
1
1
1
1
1
1
1
1
1
1
1
1
1
1
1
1
1
1
1
1
1
1
1
1
1
1
1
1
1
1
1
1
1
1
1
1
1
1
1
1
1
1
1
1
1
1
1
1.00005
1.00215
1
1
1
1
1
1
1
1
1
1
1
1
1
1
1
1
1
1
1
1
1
1
1
1
1
1
1
1
1
1
1
1
1
1
1
1
1
1
1
1
1
1
1
1
1
1
1
1
1
1
1
1
1
1
1
1
1
1
1
1
1
1
1
1
1
1
1
1
1
1
1
1
1
1
1
1
1
1
1
1
1
1
1
1
1
1
1
1
1
1
1
1
1
1
1
1
1
1
1
1
1
1
1
1
1
1
1
1
1
1
1
1
1
1
1
1
1
1
1
1
1
1
1
1
1
1
1
1
1
1
1
1
1
1
1
1
1
1
1
1
1
1
1
1
1
1
1
1
1
1
1
1
1
1
1
1
1
1
1
1
1
1
1
1
1
1
1
1
1
1
1
1
1
1
1
1
1
1
1
1
1
1
1
1
1
1
1
1
1
1
1
1
1
1
1
1
1
1
1
1
1
1
1
1
1
1
1
1
1
1
1
1
1
1
1
1
1
1
1
1
1
1
1
1
1
1
1
1
1
1
1
1
1
1
1
1
1
1
1
1
1
1
1
1
1
1
1
1
1
1
1
1
1
1
1
1
1
1
1
1
1
1
1
1
1
1
1
1
1
1
1
1
1
1
1
1
1
1
1
1
1
1
1
1
1
1
1
1
1
1
1
1
1
1
1
1
1
1
1
1
1
1
1
1
1
1
1
1
1
1
1
1
1
1
1
1
1
1
1
1
1
1
1
1
1
1
1
1
1
1
1
1
1
1
1
1
1
1
1
1
1
1
1
1
1
1
1
1
1
1
1
1
1
1
1
1
1
1
1
1
1
1
1
1
1
1
1
1
1
1
1
1
1
1
1
1
1
1
1
1
1
1
1
1
1
1
1
1
1
1
1
1
1
1
1
1
1
1
1
1
1
1
1
1
1
1
1
1
1
1
1
1
1
1
1
1
1
1
1
1
1
1
1
1
1
1
1
1
1
1
1
1
1
1
1
1
1
1
1
1
1
1
1
1
1
1
1
1
1
1
1
1
1
1
1
1
1
1
1
1
1
1
1
1
1
1
1
1
1
1
1
1
1
1
1
1
1
1
1
1
1
1
1
1
1
1
1
1
1
1
1
1
1
1
1
1
1
1
1
1
1
1
1
1
1
1
1
1
1
1
1
1
1
1
1
1
1
1
1
1
1
1
1
1
1
1
1
1
1
1
1
1
1
1
1
1
1
1
1
1
1
1
1
1
1
1
1
1
1
1
1
1
1
1
1
1
1
1
1
1
1
1
1
1
1
1
1
1
1
1
1
1
1
1
1
1
1
1
1
1
1
1
1
1
1
1
1
1
1
1
1
1
1
1
1
1
1
1
1
1
1
1
1
1
1
1
1
1
1
1
1
1
1
1
1
1
1
1
1
1
1
1
1
1
1
1
1
1
1
1
1
1
1
1
1
1
1
1
1
1
1
1
1
1
1
1
1
1
1
1
1
1
1
1
1
1
1
1
1
1
1
1
1
1
1
1
1
1
1
1
1
1
1
1
1
1
1
1
1
1
1
1
1
1
1
1
1
1
1
1
1
1
1
1
1
1
1
1
1
1
1
1
1
1
1
1
1
1
1
1
1
1
1
1
1
1
1
1
1
1
1
1
1
1
1
1
1
1
1
1
1
1
1
1
1
1
1
1
1
1
1
1
1
1
1
1
1
1
1
1
1
1
1
1
1
1
1
1
1
1
1
1
1
1
1
1
1
1
1
1
1
1
1
1
1
1
1
1
1
1
1
1
1
1
1
1
1
1
1
1
1
1
1
1
1
1
1
1
1
1
1
1
1
1
1
1
1
1
1
1
1
1
1
1
1
1
1
1
1
1
1
1
1
1
1
1
1
1
1
1
1
1
1
1
1
1
1
1
1
1
1
1
1
1
1
1
1
1
1
1
1
1
1
1
1
1
1
1
1
1
1
1
1
1
1
1
1
1
1
1
1
1
1
1
1
1
1
1
1
1
1
1
1
1
1
1
1
1
1
1
1
1
1
1
1
1
1
1
1
1
1
1
1
1
1
1
1
1
1
1
1
1
1
1
1
1
1
1
1
1
1
1
1
1
1
1
1
1
1
1
1
1
1
1
1
1
1
1
1
1
1
1
1
1
1
1
1
1
1
1
1
1
1
1
1
1
1
1
1
1
1
1
1
1
1
1
1
1
1
1
1
1
1
1
1
1
1
1
1
1
1
1
1
1
1
1
1
1
1
1
1
1
1
1
1
1
1
1
1
1
1
1
1
1
1
1
1
1
1
1
1
1
1
1
1
1
1
1
1
1
1
1
1
1
1
1
1
1
1
1
1
1
1
1
1
1
1
1
1
1
1
1
1
1
1
1
1
1
1
1
1
1
1
1
1
1
1
1
1
1
1
1
1
1
1
1
1
1
1
1
1
1
1
1
1
1
1
1
1
1
1
1
1
1
1
1
1
1
1
1
1
1
1
1
1
1
1
1
1
1
1
1
1
1
1
1
1
1
1
1
1
1
1
1
1
1
1
1
1
1
1
1
1
1
1
1
1
1
1
1
1
1
1
1
1
1
1
1
1
1
1
1
1
1
1
1
1
1
1
1
1
1
1
1
1
1
1
1
1
1
1
1
1
1
1
1
1
1
1
1
1
1
1
1
1
1
1
1
1
1
1
1
1
1
1
1
1
1
1
1
1
1
1
1
1
1
1
1
1
1
1
1
1
1
1
1
1
1
1
1
1
1
1
1
1
1
1
1
1
1
1
1
1
1
1
1
1
1
1
1
1
1
1
1
1
1
1
1
1
1
1
1
1
1
1
1
1
1
1
1
1
1
1
1
1
1
1
1
1
1
1
1
1
1
1
1
1
1
1
1
1
1
1
1
1
1
1
1
1
1
1
1
1
1
1
1
1
1
1
1
1
1
1
1
1
1
1
1
1
1
1
1
1
1
1
1
1
1
1
1
1
1
1
1
1
1
1
1
1
1
1
1
1
1
1
1
1
1
1
1
1
1
1
1
1
1
1
1
1
1
1
1
1
1
1
1
1
1
1
1
1
1
1
1
1
1
1
1
1
1
1
1
1
1
1
1
1
1
1
1
1
1
1
1
1
1
1
1
1
1
1
1
1
1
1
1
1
1
1
1
1
1
1
1
1
1
1
1
1
1
1
1
1
1
1
1
1
1
1
1
1
1
1
1
1
1
1
1
1
1
1
1
1
1
1
1
1
1
1
1
1
1
1
1
1
1
1
1
1
1
1
1
1
1
1
1
1
1
1
1
1
1
1
1
1
1
1
1
1
1
1
1
1
1
1
1
1
1
1
1
1
1
1
1
1
1
1
1
1
1
1
1
1
1
1
1
1
1
1
1
1
1
1
1
1
1
1
1
1
1
1
1
1
1
1
1
1
1
1
1
1
1
1
1
1
1
1
1
1
1
1
1
1
1
1
1
1
1
1
1
1
1
1
1
1
1
1
1
1
1
1
1
1
1
1
1
1
1
1
1
1
1
1
1
1
1
1
1
1
1
1
1
1
1
1
1
1
1
1
1
1
1
1
1
1
1
1
1
1
1
1
1
1
1
1
1
1
1
1
1
1
1
1
1
1
1
1
1
1
1
1
1
1
1
1
1
1
1
1
1
1
1
1
1
1
1
1
1
1
1
1
1
1
1
1
1
1
1
1
1
1
1
1
1
1
1
1
1
1
1
1
1
1
1
1
1
1
1
1
1
1
1
1
1
1
1
1
1
1
1
1
1
1
1
1
1
1
1
1
1
1
1
1
1
1
1
1
1
1
1
1
1
1
1
1
1
1
1
1
1
1
1
1
1
1
1
1
1
1
1
1
1
1
1
1
1
1
1
1
1
1
1
1
1
1
1
1
1
1
1
1
1
1
1
1
1
1
1
1
1
1
1
1
1
1
1
1
1
1
1
1
1
1
1
1
1
1
1
1
1
1
1
1
1
1
1
1
1
1
1
1
1
1
1
1
1
1
1
1
1
1
1
1
1
1
1
1
1
1
1
1
1
1
1
1
1
1
1
1
1
1
1
1
1
1
1
1
1
1
1
1
1
1
1
1
1
1
1
1
1
1
1
1
1
1
1
1
1
1
1
1
1
1
1
1
1
1
1
1
1
1
1
1
1
1
1
1
1
1
1
1
1
1
1
1
1
1
1
1
1
1
1
1
1
1
1
1
1
1
1
1
1
1
1
1
1
1
1
1
1
1
1
1
1
1
1
1
1
1
1
1
1
1
1
1
1
1
1
1
1
1
1
1
1
1
1
1
1
1
1
1
1
1
1
1
1
1
1
1
1
1
1
1
1
1
1
1
1
1
1
1
1
1
1
1
1
1
1
1
1
1
1
1
1
1
1
1
1
1
1
1
1
1
1
1
1
1
1
1
1
1
1
1
1
1
1
1
1
1
1
1
1
1
1
1
1
1
1
1
1
1
1
1
1
1
1
1
1
1
1
1
1
1
1
1
1
1
1
1
1
1
1
1
1
1
1
1
1
1
1
1
1
1
1
1
1
1
1
1
1
1
1
1
1
1
1
1
1
1
1
1
1
1
1
1
1
1
1
1
1
1
1
1
1
1
1
1
1
1
1
1
1
1
1
1
1
1
1
1
1
1
1
1
1
1
1
1
1
1
1
1
1
1
1
1
1
1
1
1
1
1
1
1
1
1
1
1
1
1
1
1
1
1
1
1
1
1
1
1
1
1
1
1
1
1
1
1
1
1
1
1
1
1
1
1
1
1
1
1
1
1
1
1
1
1
1
1
1
1
1
1
1
1
1
1
1
1
1
1
1
1
1
1
1
1
1
1
1
1
1
1
1
1
1
1
1
1
1
1
1
1
1
1
1
1
1
1
1
1
1
1
1
1
1
1
1
1
1
1
1
1
1
1
1
1
1
1
1
1
1
1
1
1
1
1
1
1
1
1
1
1
1
1
1
1
1
1
1
1
1
1
1
1
1
1
1
1
1
1.14941
0.254425
0.0357347
0.0137412
0.022355
0.0532394
0.10727
0.145911
0.185932
0.268045
0.345525
0.424281
0.512223
0.540834
0.556641
0.614723
0.710001
0.792101
0.854596
0.906318
0.922934
0.935071
0.940647
0.954838
0.968121
0.975009
0.978425
0.997672
1.02943
1.05583
1.07241
1.08549
1.09169
1.09683
1.09925
1.09676
1.10074
1.10925
1.12081
1.13187
1.13956
1.14678
1.15347
1.15615
1.15935
1.16008
1.15727
1.15621
1.15519
1.15451
1.15411
1.15339
1.15457
1.15905
1.16574
1.16842
1.16562
1.1609
1.1559
1.14858
1.13783
1.13155
1.13043
1.12883
1.12724
1.12696
1.13018
1.12964
1.12423
1.11913
1.11305
1.10514
1.09457
1.08944
1.0884
1.08576
1.08215
1.07779
1.07277
1.06697
1.06017
1.05238
1.04416
1.03705
1.03217
1.02936
1.0275
1.02503
1.02172
1.01708
1.01066
1.00314
0.995354
0.987828
0.982085
0.978809
0.977161
0.976317
0.975212
0.972919
0.969004
0.964118
0.959933
0.956819
0.953744
0.950377
0.946828
0.942713
0.938178
0.934605
0.931965
0.929375
0.926438
0.923354
0.920552
0.917805
0.915231
0.912614
0.909016
0.90409
0.899314
0.897144
0.895901
0.895008
0.89455
0.89472
0.896652
0.897365
0.896663
0.896199
0.895718
0.8948
0.892271
0.88685
0.876936
0.865159
0.856172
0.850956
0.847438
0.844787
0.843093
0.841906
0.841279
0.841529
0.842859
0.844335
0.843694
0.84261
0.840615
0.834617
0.824193
0.817837
0.817358
0.81898
0.82167
0.825051
0.829064
0.833718
0.839503
0.84583
0.848911
0.850457
0.85167
0.851274
0.847062
0.845158
0.845384
0.845506
0.846546
0.849524
0.855782
0.863872
0.869625
0.874633
0.880575
0.887625
0.894552
0.899818
0.902762
0.908385
0.91855
0.930697
0.944134
0.958629
0.972651
0.984118
0.992366
0.998669
1.00225
1.0038
1.00283
1.00655
2.06114
0.94015
0.443386
0.253401
0.202093
0.185964
0.205254
0.219185
0.221023
0.22121
0.231215
0.249257
0.299852
0.363969
0.417309
0.472453
0.533014
0.601966
0.662903
0.72761
0.788229
0.828228
0.856745
0.885863
0.925982
0.958096
0.976996
1.00562
1.03218
1.04426
1.05553
1.06731
1.07409
1.07693
1.08173
1.08915
1.09667
1.10535
1.11582
1.12661
1.13766
1.14637
1.14929
1.15112
1.15278
1.15317
1.156
1.15693
1.15554
1.15283
1.14954
1.14655
1.14576
1.14952
1.15693
1.15884
1.15623
1.15252
1.14818
1.14175
1.13284
1.12848
1.12916
1.12886
1.12811
1.12869
1.1303
1.12597
1.11925
1.11309
1.10648
1.09973
1.09192
1.08526
1.08375
1.08139
1.07836
1.07509
1.07177
1.06797
1.06311
1.05772
1.05151
1.04433
1.03651
1.02894
1.0235
1.02063
1.0183
1.01583
1.01258
1.00849
1.00332
0.99685
0.989489
0.982176
0.976006
0.971366
0.968588
0.9668
0.964701
0.961916
0.958669
0.955827
0.953295
0.950597
0.947387
0.94326
0.939191
0.937151
0.935421
0.933624
0.931142
0.927674
0.923929
0.920385
0.916879
0.913614
0.910521
0.906687
0.903241
0.902059
0.901006
0.899475
0.898418
0.897331
0.895759
0.894214
0.892663
0.890935
0.88922
0.887198
0.884546
0.880755
0.875889
0.869707
0.863091
0.857002
0.851942
0.848064
0.845568
0.843625
0.841748
0.840743
0.841145
0.842155
0.843272
0.842664
0.840993
0.837501
0.830699
0.822425
0.817862
0.81708
0.818754
0.821512
0.82476
0.828639
0.833664
0.83942
0.844149
0.847326
0.850151
0.852347
0.85214
0.850378
0.852905
0.857626
0.864577
0.875088
0.892191
0.916642
0.945584
0.975913
1.00692
1.03993
1.07237
1.09722
1.11787
1.13963
1.16168
1.18344
1.20495
1.22581
1.24584
1.26276
1.27538
1.28593
1.29229
1.29372
1.29327
1.29356
2.84013
1.5963
1.06451
0.78003
0.583033
0.446711
0.378982
0.363035
0.335801
0.307239
0.292772
0.285995
0.29868
0.341974
0.392702
0.42254
0.441062
0.467862
0.514119
0.575099
0.647669
0.705697
0.76018
0.812876
0.870457
0.938309
0.981096
1.019
1.04921
1.05552
1.06778
1.08103
1.08585
1.08401
1.08045
1.08319
1.09016
1.09584
1.10457
1.11864
1.13363
1.14504
1.15129
1.15666
1.15984
1.16085
1.1612
1.16114
1.15883
1.1526
1.1491
1.14819
1.14891
1.15392
1.161
1.16175
1.15994
1.15742
1.15273
1.14397
1.13156
1.12434
1.12465
1.12611
1.12767
1.13229
1.13462
1.12992
1.12287
1.11466
1.10454
1.09538