/*--------------------------------*- C++ -*----------------------------------*\
  =========                 |
  \\      /  F ield         | OpenFOAM: The Open Source CFD Toolbox
   \\    /   O peration     | Website:  https://openfoam.org
    \\  /    A nd           | Version:  7
     \\/     M anipulation  |
\*---------------------------------------------------------------------------*/
FoamFile
{
    version     2.0;
    format      ascii;
    class       volScalarField;
    location    "1.1";
    object      T;
}
// * * * * * * * * * * * * * * * * * * * * * * * * * * * * * * * * * * * * * //

dimensions      [0 0 0 1 0 0 0];

internalField   nonuniform List<scalar> 
19968
(
1
1
1
1
1
1
1
1
1
1
1
1
1
1
1
1
1
1
1
1
1
1
1
1
1
1
1
1
1
1
1
1
1
1
1
1
1
1
1
1
1
1
1
1
1
1
1
1
1
1
1
1
1
1.89861
2.69906
2.7669
2.76796
2.77339
2.77124
2.76397
2.75589
2.75173
2.75393
2.76487
2.78305
2.80195
2.81609
2.81896
2.8162
2.81095
2.80749
2.8085
2.81418
2.82406
2.83442
2.84023
2.8406
2.83898
2.83799
2.84004
2.84604
2.85437
2.86213
2.86808
2.87271
2.87708
2.88128
2.88502
2.88873
2.89454
2.90801
2.93866
2.99322
3.06092
3.11277
3.13046
1
1
1
1
1
1
1
1
1
1
1
1
1
1
1
1
1
1
1
1
1
1
1
1
1
1
1
1
1
1
1
1
1
1
1
1
1
1
1
1
1
1
1
1
1
1
1
1
1
1
1
1
1
1.8842
2.69822
2.76527
2.76801
2.77249
2.77034
2.76299
2.7551
2.75134
2.75324
2.76459
2.78284
2.80189
2.81554
2.81826
2.81549
2.81027
2.807
2.80812
2.81389
2.8237
2.8338
2.83952
2.84005
2.83865
2.83792
2.84019
2.8463
2.85455
2.8622
2.86795
2.87226
2.87625
2.88023
2.88408
2.88816
2.89437
2.9081
2.93885
2.99344
3.06108
3.11287
3.13079
1
1
1
1
1
1
1
1
1
1
1
1
1
1
1
1
1
1
1
1
1
1
1
1
1
1
1
1
1
1
1
1
1
1
1
1
1
1
1
1
1
1
1
1
1
1
1
1
1
1
1
1
1
1.8526
2.69383
2.76261
2.76508
2.76914
2.76705
2.75982
2.75282
2.75039
2.75259
2.76476
2.78295
2.80167
2.81433
2.81672
2.81403
2.80898
2.80603
2.80737
2.81332
2.82294
2.83262
2.8383
2.83919
2.83818
2.83789
2.84043
2.84658
2.85461
2.86217
2.86781
2.87179
2.87519
2.87864
2.88241
2.88706
2.89405
2.90824
2.93966
2.99484
3.06251
3.1139
3.13189
1
1
1
1
1
1
1
1
1
1
1
1
1
1
1
1
1
1
1
1
1
1
1
1
1
1
1
1
1
1
1
1
1
1
1
1
1
1
1
1
1
1
1
1
1
1
1
1
1
1
1
1
1
1.80144
2.68341
2.75936
2.76064
2.76419
2.76172
2.75478
2.7493
2.74939
2.75273
2.76622
2.78374
2.80119
2.81219
2.81396
2.81146
2.80687
2.80449
2.80617
2.81242
2.82179
2.83089
2.83649
2.83783
2.83733
2.8377
2.84076
2.8468
2.85438
2.86162
2.86712
2.87086
2.87369
2.87658
2.88021
2.88542
2.89326
2.90815
2.94063
2.99692
3.06495
3.11587
3.1339
1
1
1
1
1
1
1
1
1
1
1
1
1
1
1
1
1
1
1
1
1
1
1
1
1
1
1
1
1
1
1
1
1
1
1
1
1
1
1
1
1
1
1
1
1
1
1
1
1
1
1
1
1
1.7243
2.66591
2.75481
2.7539
2.75629
2.75353
2.74863
2.74643
2.74896
2.7551
2.76963
2.78525
2.80017
2.80889
2.8099
2.8077
2.80395
2.80247
2.80463
2.81128
2.82024
2.82846
2.83393
2.83567
2.83603
2.83739
2.84102
2.84678
2.8536
2.86024
2.8656
2.86931
2.87191
2.8744
2.87775
2.88317
2.89158
2.90737
2.941
2.99865
3.0675
3.11828
3.13644
1
1
1
1
1
1
1
1
1
1
1
1
1
1
1
1
1
1
1
1
1
1
1
1
1
1
1
1
1
1
1
1
1
1
1
1
1
1
1
1
1
1
1
1
1
1
1
1
1
1
1
1
1
1.60982
2.63186
2.74851
2.7464
2.74691
2.74492
2.74345
2.74522
2.75101
2.76025
2.77426
2.78675
2.79822
2.80426
2.80449
2.80259
2.80002
2.79986
2.80292
2.80989
2.81839
2.82548
2.83055
2.83267
2.83412
2.83673
2.84105
2.8464
2.85213
2.85797
2.86312
2.86706
2.86988
2.87217
2.87513
2.88036
2.88887
2.90529
2.94021
2.99927
3.06915
3.12017
3.13854
1
1
1
1
1
1
1
1
1
1
1
1
1
1
1
1
1
1
1
1
1
1
1
1
1
1
1
1
1
1
1
1
1
1
1
1
1
1
1
1
1
1
1
1
1
1
1
1
1
1
1
1
1
1.46204
2.5748
2.73875
2.73572
2.73659
2.73775
2.74062
2.74662
2.75565
2.76628
2.77782
2.78666
2.79465
2.79839
2.79828
2.79681
2.79544
2.79649
2.8011
2.80837
2.81634
2.82228
2.82656
2.82909
2.83166
2.83547
2.84033
2.84515
2.84971
2.85468
2.85963
2.86391
2.86715
2.8695
2.87218
2.87692
2.88509
2.90177
2.93786
2.99848
3.06959
3.121
3.13954
1
1
1
1
1
1
1
1
1
1
1
1
1
1
1
1
1
1
1
1
1
1
1
1
1
1
1
1
1
1
1
1
1
1
1
1
1
1
1
1
1
1
1
1
1
1
1
1
1
1
1
1
1
1.26869
2.47696
2.72529
2.72737
2.73155
2.73654
2.74242
2.7507
2.76121
2.77112
2.77951
2.78439
2.78879
2.79091
2.79082
2.79005
2.79001
2.79244
2.7987
2.80655
2.81395
2.81872
2.8223
2.82517
2.82861
2.83321
2.83825
2.84262
2.8464
2.85067
2.85547
2.85996
2.86363
2.86621
2.86884
2.87284
2.8803
2.89702
2.93369
2.99557
3.06811
3.1202
3.139
1
1
1
1
1
1
1
1
1
1
1
1
1
1
1
1
1
1
1
1
1
1
1
1
1
1
1
1
1
1
1
1
1
1
1
1
1
1
1
1
1
1
1
1
1
1
1
1
1
1
1
1
1
1.01001
2.30508
2.71671
2.72769
2.73388
2.74128
2.74915
2.75725
2.76476
2.77105
2.77514
2.7768
2.77943
2.78128
2.78205
2.78267
2.78435
2.78864
2.79613
2.80434
2.81101
2.81476
2.81785
2.82092
2.82487
2.82961
2.83443
2.83838
2.84178
2.84559
2.85017
2.85467
2.85861
2.86155
2.86431
2.86782
2.87462
2.89103
2.92757
2.98998
3.06393
3.11741
3.1369
1
1
1
1
1
1
1
1
1
1
1
1
1
1
1
1
1
1
1
1
1
1
1
1
1
1
1
1
1
1
1
1
1
1
1
1
1
1
1
1
1
1
1
1
1
1
1
1
1
1
1
1
1
1.00003
2.0984
2.69659
2.71913
2.72995
2.74189
2.75215
2.76001
2.76556
2.76828
2.7684
2.76815
2.76915
2.77038
2.77238
2.77503
2.77902
2.7852
2.79381
2.80166
2.80724
2.81011
2.81232
2.81547
2.8197
2.82431
2.82889
2.83258
2.83586
2.83946
2.84386
2.84835
2.85248
2.85572
2.85852
2.86179
2.86813
2.88374
2.91916
2.98105
3.05592
3.1111
3.13151
1
1
1
1
1
1
1
1
1
1
1
1
1
1
1
1
1
1
1
1
1
1
1
1
1
1
1
1
1
1
1
1
1
1
1
1
1
1
1
1
1
1
1
1
1
1
1
1
1
1
1
1
1
1
1.81354
2.65161
2.7094
2.72622
2.74017
2.75026
2.7572
2.76054
2.76078
2.75976
2.75873
2.75883
2.76035
2.76341
2.76781
2.77399
2.7822
2.79167
2.79865
2.80253
2.80348
2.80456
2.80727
2.81202
2.81699
2.82186
2.82551
2.82852
2.8317
2.83571
2.84006
2.84423
2.84753
2.85021
2.85343
2.8596
2.87433
2.90796
2.96851
3.04396
3.10117
3.12268
1
1
1
1
1
1
1
1
1
1
1
1
1
1
1
1
1
1
1
1
1
1
1
1
1
1
1
1
1
1
1
1
1
1
1
1
1
1
1
1
1
1
1
1
1
1
1
1
1
1
1
1
1
1
1.40212
2.5161
2.69702
2.71616
2.7316
2.74261
2.7502
2.7534
2.7536
2.75276
2.75113
2.75023
2.75171
2.75551
2.76115
2.76883
2.77842
2.78774
2.79373
2.79594
2.79514
2.79495
2.79719
2.80216
2.80772
2.81337
2.81736
2.81987
2.82249
2.82594
2.83012
2.83432
2.83765
2.84013
2.84324
2.8491
2.86253
2.89345
2.95141
3.02649
3.08542
3.10769
1
1
1
1
1
1
1
1
1
1
1
1
1
1
1
1
1
1
1
1
1
1
1
1
1
1
1
1
1
1
1
1
1
1
1
1
1
1
1
1
1
1
1
1
1
1
1
1
1
1
1
1
1
1
1.01399
2.26081
2.69244
2.71087
2.72105
2.73184
2.73966
2.74336
2.74331
2.74201
2.74002
2.73928
2.7413
2.74677
2.75446
2.76349
2.77323
2.78122
2.7859
2.78671
2.78569
2.78455
2.78609
2.79065
2.79627
2.80233
2.80661
2.80847
2.81033
2.81313
2.8169
2.82074
2.82353
2.82557
2.82823
2.8335
2.84554
2.87353
2.92833
3.00267
3.06338
3.08631
1
1
1
1
1
1
1
1
1
1
1
1
1
1
1
1
1
1
1
1
1
1
1
1
1
1
1
1
1
1
1
1
1
1
1
1
1
1
1
1
1
1
1
1
1
1
1
1
1
1
1
1
1
1
1.00002
1.86074
2.63769
2.69336
2.70658
2.71993
2.72907
2.7342
2.73478
2.73315
2.73053
2.72949
2.73145
2.73755
2.7466
2.75662
2.76585
2.77228
2.7756
2.77562
2.77409
2.7728
2.7736
2.77692
2.78201
2.78783
2.7925
2.79436
2.79512
2.79744
2.801
2.80457
2.80709
2.80878
2.81093
2.81538
2.82546
2.84918
2.89807
2.96818
3.02754
3.04919
1
1
1
1
1
1
1
1
1
1
1
1
1
1
1
1
1
1
1
1
1
1
1
1
1
1
1
1
1
1
1
1
1
1
1
1
1
1
1
1
1
1
1
1
1
1
1
1
1
1
1
1
1
1
1
1.1991
2.40098
2.66969
2.69217
2.70635
2.71728
2.72407
2.72604
2.72466
2.72207
2.7209
2.7225
2.72837
2.73746
2.74739
2.75528
2.75945
2.76117
2.76063
2.75891
2.7579
2.75839
2.76047
2.76521
2.77056
2.77569
2.77784
2.77723
2.7782
2.78038
2.78256
2.78357
2.7836
2.78365
2.78505
2.79027
2.80624
2.84616
2.91196
2.97581
3.00146
1
1
1
1
1
1
1
1
1
1
1
1
1
1
1
1
1
1
1
1
1
1
1
1
1
1
1
1
1
1
1
1
1
1
1
1
1
1
1
1
1
1
1
1
1
1
1
1
1
1
1
1
1
1
1
1.00196
1.94134
2.6122
2.66575
2.68365
2.69782
2.70709
2.71074
2.70975
2.70794
2.707
2.70812
2.71265
2.72082
2.73046
2.7379
2.74143
2.74307
2.74317
2.74158
2.74089
2.74174
2.74363
2.74699
2.75145
2.75571
2.7568
2.75486
2.75332
2.75308
2.7532
2.75277
2.75168
2.75046
2.74993
2.75122
2.75977
2.78788
2.84866
2.91681
2.97178
1
1
1
1
1
1
1
1
1
1
1
1
1
1
1
1
1
1
1
1
1
1
1
1
1
1
1
1
1
1
1
1
1
1
1
1
1
1
1
1
1
1
1
1
1
1
1
1
1
1
1
1
1
1
1
0.99998
1.23437
2.39805
2.64354
2.66434
2.6809
2.69333
2.69872
2.69829
2.69667
2.69538
2.69524
2.69868
2.70577
2.71439
2.72171
2.72513
2.72675
2.72661
2.7248
2.72339
2.72403
2.72578
2.72873
2.73245
2.73557
2.73537
2.73281
2.72934
2.72637
2.72363
2.72059
2.71685
2.71195
2.70511
2.69464
2.68206
2.67243
2.67178
2.66314
2.58325
1
1
1
1
1
1
1
1
1
1
1
1
1
1
1
1
1
1
1
1
1
1
1
1
1
1
1
1
1
1
1
1
1
1
1
1
1
1
1
1
1
1
1
1
1
1
1
1
1
1
1
1
1
1
1
0.999998
1.00436
2.04911
2.613
2.65289
2.66757
2.68089
2.6868
2.68665
2.68487
2.68278
2.6812
2.68368
2.6895
2.69705
2.70482
2.70939
2.71181
2.71187
2.71002
2.70795
2.708
2.70948
2.71243
2.71574
2.71782
2.71647
2.71276
2.70754
2.70201
2.6964
2.69033
2.68346
2.67444
2.66214
2.64295
2.61669
2.58169
2.54274
2.46905
2.34235
1
1
1
1
1
1
1
1
1
1
1
1
1
1
1
1
1
1
1
1
1
1
1
1
1
1
1
1
1
1
1
1
1
1
1
1
1
1
1
1
1
1
1
1
1
1
1
1
1
1
1
1
1
1
1
1
1
1.36975
2.43475
2.63543
2.65055
2.66552
2.67317
2.67546
2.67375
2.67119
2.66932
2.66927
2.67311
2.68009
2.68762
2.69358
2.69669
2.69687
2.6948
2.69198
2.6908
2.69154
2.69372
2.69648
2.69797
2.69622
2.69146
2.68462
2.677
2.66916
2.66039
2.65006
2.63671
2.61918
2.59466
2.55969
2.51434
2.44675
2.35849
2.2537
1
1
1
1
1
1
1
1
1
1
1
1
1
1
1
1
1
1
1
1
1
1
1
1
1
1
1
1
1
1
1
1
1
1
1
1
1
1
1
1
1
1
1
1
1
1
1
1
1
1
1
1
1
1
1
1
1
1.01101
2.07325
2.60787
2.63762
2.6472
2.65667
2.66187
2.6617
2.66013
2.6581
2.65492
2.65668
2.66173
2.66868
2.6753
2.67985
2.68118
2.67911
2.67617
2.67389
2.67329
2.67426
2.67606
2.67691
2.67513
2.66967
2.66119
2.65148
2.64174
2.6312
2.61846
2.60209
2.58078
2.55294
2.51567
2.46574
2.40015
2.31573
2.22369
1
1
1
1
1
1
1
1
1
1
1
1
1
1
1
1
1
1
1
1
1
1
1
1
1
1
1
1
1
1
1
1
1
1
1
1
1
1
1
1
1
1
1
1
1
1
1
1
1
1
1
1
1
1
1
1
1
1.00001
1.31902
2.40548
2.61801
2.62772
2.63998
2.64749
2.6512
2.6509
2.64935
2.64577
2.64334
2.64532
2.65061
2.65715
2.66226
2.66482
2.66347
2.66059
2.65695
2.65417
2.65315
2.65358
2.65382
2.65229
2.64697
2.63792
2.62702
2.61574
2.60372
2.5895
2.57152
2.54842
2.51933
2.48214
2.43572
2.37907
2.31331
2.23533
1
1
1
1
1
1
1
1
1
1
1
1
1
1
1
1
1
1
1
1
1
1
1
1
1
1
1
1
1
1
1
1
1
1
1
1
1
1
1
1
1
1
1
1
1
1
1
1
1
1
1
1
1
1
1
1
1
1
1.00728
1.95498
2.56374
2.60556
2.6222
2.63322
2.63845
2.63957
2.63837
2.63512
2.62938
2.62787
2.63058
2.63637
2.64241
2.64664
2.64774
2.64523
2.64063
2.63589
2.63249
2.63101
2.63023
2.62835
2.62335
2.61462
2.60354
2.59139
2.57815
2.56302
2.54462
2.52161
2.49318
2.4585
2.4173
2.37043
2.31575
2.25265
1
1
1
1
1
1
1
1
1
1
1
1
1
1
1
1
1
1
1
1
1
1
1
1
1
1
1
1
1
1
1
1
1
1
1
1
1
1
1
1
1
1
1
1
1
1
1
1
1
1
1
1
1
1
1
1
1
1
1
1.12893
2.30299
2.59392
2.60928
2.62151
2.6268
2.62738
2.62652
2.62355
2.61781
2.6134
2.61389
2.6173
2.62282
2.6275
2.62991
2.62844
2.62408
2.6181
2.61259
2.609
2.60657
2.60373
2.59875
2.5908
2.58054
2.56855
2.55483
2.53884
2.52039
2.49804
2.47208
2.44102
2.40546
2.36624
2.32027
2.26823
1
1
1
1
1
1
1
1
1
1
1
1
1
1
1
1
1
1
1
1
1
1
1
1
1
1
1
1
1
1
1
1
1
1
1
1
1
1
1
1
1
1
1
1
1
1
1
1
1
1
1
1
1
1
1
1
1
1
1
1.00104
1.69159
2.48277
2.58293
2.59671
2.60515
2.607
2.60705
2.60536
2.60241
2.59813
2.59717
2.59914
2.6037
2.60855
2.61108
2.61059
2.60745
2.60171
2.59534
2.58975
2.58506
2.58024
2.57415
2.56645
2.55726
2.54631
2.53317
2.51711
2.49884
2.47745
2.45403
2.42659
2.39642
2.36249
2.32435
2.28033
1
1
1
1
1
1
1
1
1
1
1
1
1
1
1
1
1
1
1
1
1
1
1
1
1
1
1
1
1
1
1
1
1
1
1
1
1
1
1
1
1
1
1
1
1
1
1
1
1
1
1
1
1
1
1
1
1
1
1
1
1.0503
2.10569
2.55957
2.58638
2.59116
2.59098
2.58967
2.58827
2.58693
2.5845
2.58326
2.5844
2.58722
2.59013
2.59163
2.59102
2.58863
2.58403
2.57826
2.57174
2.56535
2.55878
2.55132
2.54341
2.53474
2.52446
2.51196
2.49703
2.47936
2.45946
2.43817
2.41406
2.38816
2.35814
2.32573
2.2882
1
1
1
1
1
1
1
1
1
1
1
1
1
1
1
1
1
1
1
1
1
1
1
1
1
1
1
1
1
1
1
1
1
1
1
1
1
1
1
1
1
1
1
1
1
1
1
1
1
1
1
1
1
1
1
1
1
1
1
1
1.00017
1.21765
2.28882
2.55526
2.57381
2.57656
2.57514
2.57343
2.57296
2.57258
2.57185
2.57223
2.57332
2.57372
2.57368
2.57231
2.56968
2.56599
2.56127
2.55486
2.54741
2.53969
2.53097
2.52267
2.5137
2.50358
2.49167
2.47802
2.46134
2.44344
2.4241
2.40293
2.3798
2.35284
2.32482
2.29291
1
1
1
1
1
1
1
1
1
1
1
1
1
1
1
1
1
1
1
1
1
1
1
1
1
1
1
1
1
1
1
1
1
1
1
1
1
1
1
1
1
1
1
1
1
1
1
1
1
1
1
1
1
1
1
1
1
1
1
1
1
1.00304
1.59939
2.41971
2.54002
2.55152
2.55661
2.55599
2.55683
2.55772
2.558
2.55772
2.55749
2.55666
2.55513
2.55313
2.55028
2.54681
2.54275
2.53707
2.52953
2.52162
2.51326
2.5047
2.49532
2.48491
2.4731
2.45999
2.44464
2.42864
2.41114
2.39231
2.37132
2.34784
2.32265
2.29552
1
1
1
1
1
1
1
1
1
1
1
1
1
1
1
1
1
1
1
1
1
1
1
1
1
1
1
1
1
1
1
1
1
1
1
1
1
1
1
1
1
1
1
1
1
1
1
1
1
1
1
1
1
1
1
1
1
1
1
1
1
1
1.03373
1.9534
2.49677
2.53148
2.5372
2.53967
2.53989
2.54069
2.54136
2.5416
2.54114
2.53983
2.53753
2.53483
2.5316
2.52804
2.5239
2.51842
2.51135
2.5039
2.49644
2.48831
2.47903
2.46845
2.45688
2.44408
2.42989
2.41512
2.39922
2.38194
2.36284
2.34211
2.31929
2.29587
1
1
1
1
1
1
1
1
1
1
1
1
1
1
1
1
1
1
1
1
1
1
1
1
1
1
1
1
1
1
1
1
1
1
1
1
1
1
1
1
1
1
1
1
1
1
1
1
1
1
1
1
1
1
1
1
1
1
1
1
1
1
1.00009
1.13555
2.12995
2.49487
2.52246
2.52571
2.526
2.52519
2.52414
2.52333
2.52265
2.52153
2.51955
2.51688
2.51383
2.51034
2.50616
2.50064
2.49382
2.4867
2.47991
2.47236
2.46367
2.45355
2.44241
2.43021
2.41711
2.40327
2.38857
2.37212
2.35457
2.33567
2.31505
2.29459
1
1
1
1
1
1
1
1
1
1
1
1
1
1
1
1
1
1
1
1
1
1
1
1
1
1
1
1
1
1
1
1
1
1
1
1
1
1
1
1
1
1
1
1
1
1
1
1
1
1
1
1
1
1
1
1
1
1
1
1
1
1
1
1.00114
1.26143
2.21955
2.4719
2.50687
2.51333
2.51157
2.50836
2.50513
2.50298
2.50139
2.49976
2.4978
2.49543
2.49271
2.48924
2.48431
2.47791
2.47096
2.4639
2.45621
2.44782
2.43833
2.42789
2.41689
2.40527
2.39265
2.37893
2.36318
2.34697
2.32935
2.31058
2.29203
1
1
1
1
1
1
1
1
1
1
1
1
1
1
1
1
1
1
1
1
1
1
1
1
1
1
1
1
1
1
1
1
1
1
1
1
1
1
1
1
1
1
1
1
1
1
1
1
1
1
1
1
1
1
1
1
1
1
1
1
1
1
1
1
1.00451
1.38718
2.27344
2.46214
2.48679
2.49437
2.49287
2.48972
2.48565
2.48216
2.47943
2.47733
2.47557
2.47369
2.47143
2.46823
2.46343
2.45697
2.44931
2.44086
2.43192
2.42246
2.41243
2.40252
2.3925
2.3817
2.3695
2.35515
2.34021
2.32363
2.3062
2.289
1
1
1
1
1
1
1
1
1
1
1
1
1
1
1
1
1
1
1
1
1
1
1
1
1
1
1
1
1
1
1
1
1
1
1
1
1
1
1
1
1
1
1
1
1
1
1
1
1
1
1
1
1
1
1
1
1
1
1
1
1
1
1
1
1.00001
1.01125
1.57432
2.32199
2.44805
2.46387
2.47134
2.47085
2.46843
2.46488
2.46139
2.45822
2.45567
2.45389
2.45241
2.45065
2.44769
2.44269
2.43537
2.42661
2.41713
2.40727
2.39717
2.38752
2.37838
2.36918
2.35863
2.34618
2.33282
2.31782
2.30173
2.28572
1
1
1
1
1
1
1
1
1
1
1
1
1
1
1
1
1
1
1
1
1
1
1
1
1
1
1
1
1
1
1
1
1
1
1
1
1
1
1
1
1
1
1
1
1
1
1
1
1
1
1
1
1
1
1
1
1
1
1
1
1
1
1
1
1
1.00002
1.03103
1.71204
2.35084
2.43605
2.44323
2.44781
2.44767
2.44627
2.44378
2.44074
2.4376
2.43519
2.43355
2.43202
2.42978
2.42592
2.41981
2.41175
2.40263
2.39283
2.38269
2.37285
2.36374
2.35534
2.34636
2.33607
2.32453
2.31126
2.2966
2.28177
1
1
1
1
1
1
1
1
1
1
1
1
1
1
1
1
1
1
1
1
1
1
1
1
1
1
1
1
1
1
1
1
1
1
1
1
1
1
1
1
1
1
1
1
1
1
1
1
1
1
1
1
1
1
1
1
1
1
1
1
1
1
1
1
1
1
1.0001
1.0597
1.78876
2.35923
2.42608
2.42487
2.42651
2.42593
2.4246
2.42264
2.42026
2.41786
2.41581
2.41383
2.41141
2.40792
2.4026
2.39532
2.38712
2.37815
2.36853
2.35868
2.34948
2.34173
2.33403
2.32538
2.31544
2.30359
2.29034
2.27669
1
1
1
1
1
1
1
1
1
1
1
1
1
1
1
1
1
1
1
1
1
1
1
1
1
1
1
1
1
1
1
1
1
1
1
1
1
1
1
1
1
1
1
1
1
1
1
1
1
1
1
1
1
1
1
1
1
1
1
1
1
1
1
1
1
1
1
1.0003
1.08528
1.81913
2.35447
2.41039
2.40639
2.40648
2.40513
2.40341
2.40185
2.40032
2.39864
2.39663
2.39396
2.39032
2.38541
2.37908
2.37168
2.36347
2.35473
2.34575
2.33688
2.32909
2.32165
2.31368
2.30503
2.29457
2.28281
2.27058
1
1
1
1
1
1
1
1
1
1
1
1
1
1
1
1
1
1
1
1
1
1
1
1
1
1
1
1
1
1
1
1
1
1
1
1
1
1
1
1
1
1
1
1
1
1
1
1
1
1
1
1
1
1
1
1
1
1
1
1
1
1
1
1
1
1
1
1
1.00057
1.10012
1.81788
2.33821
2.39258
2.38816
2.38678
2.38439
2.38232
2.38123
2.38024
2.37886
2.37671
2.37352
2.36913
2.36348
2.35682
2.34939
2.34141
2.33312
2.32461
2.31677
2.3093
2.30139
2.29349
2.28421
2.27382
2.26314
1
1
1
1
1
1
1
1
1
1
1
1
1
1
1
1
1
1
1
1
1
1
1
1
1
1
1
1
1
1
1
1
1
1
1
1
1
1
1
1
1
1
1
1
1
1
1
1
1
1
1
1
1
1
1
1
1
1
1
1
1
1
1
1
1
1
1
1
1
1.00077
1.1032
1.78988
2.31447
2.37382
2.36947
2.36687
2.36351
2.36085
2.36011
2.35955
2.3585
2.35655
2.35334
2.34871
2.34285
2.33605
2.32864
2.32087
2.31274
2.3049
2.29728
2.28906
2.28119
2.27278
2.26354
2.25424
1
1
1
1
1
1
1
1
1
1
1
1
1
1
1
1
1
1
1
1
1
1
1
1
1
1
1
1
1
1
1
1
1
1
1
1
1
1
1
1
1
1
1
1
1
1
1
1
1
1
1
1
1
1
1
1
1
1
1
1
1
1
1
1
1
1
1
1
1
1
1.00083
1.09487
1.73641
2.28601
2.35409
2.35003
2.34615
2.3425
2.33984
2.33944
2.33913
2.33832
2.33652
2.33341
2.32889
2.32309
2.31633
2.30904
2.30123
2.2932
2.2853
2.27683
2.26865
2.26082
2.25236
2.24424
1
1
1
1
1
1
1
1
1
1
1
1
1
1
1
1
1
1
1
1
1
1
1
1
1
1
1
1
1
1
1
1
1
1
1
1
1
1
1
1
1
1
1
1
1
1
1
1
1
1
1
1
1
1
1
1
1
1
1
1
1
1
1
1
1
1
1
1
1
1
1
1.00073
1.077
1.66386
2.24841
2.33452
2.33141
2.32532
2.32144
2.31953
2.31908
2.31869
2.31784
2.31616
2.31336
2.30923
2.30374
2.29729
2.29005
2.28208
2.27388
2.26509
2.25654
2.24874
2.2408
2.23344
1
1
1
1
1
1
1
1
1
1
1
1
1
1
1
1
1
1
1
1
1
1
1
1
1
1
1
1
1
1
1
1
1
1
1
1
1
1
1
1
1
1
1
1
1
1
1
1
1
1
1
1
1
1
1
1
1
1
1
1
1
1
1
1
1
1
1
1
1
1
1
1
1.00052
1.05623
1.59539
2.20479
2.30482
2.31124
2.30575
2.30287
2.30091
2.29957
2.29863
2.29758
2.29598
2.2935
2.28976
2.28465
2.27833
2.27098
2.26303
2.25427
2.24533
2.23711
2.22908
2.22173
1
1
1
1
1
1
1
1
1
1
1
1
1
1
1
1
1
1
1
1
1
1
1
1
1
1
1
1
1
1
1
1
1
1
1
1
1
1
1
1
1
1
1
1
1
1
1
1
1
1
1
1
1
1
1
1
1
1
1
1
1
1
1
1
1
1
1
1
1
1
1
1
1
1.00031
1.03974
1.51313
2.11788
2.27737
2.29809
2.28968
2.28566
2.28263
2.28039
2.27889
2.27756
2.27579
2.2732
2.26948
2.2646
2.25875
2.25195
2.24396
2.23516
2.22635
2.21764
2.21
1
1
1
1
1
1
1
1
1
1
1
1
1
1
1
1
1
1
1
1
1
1
1
1
1
1
1
1
1
1
1
1
1
1
1
1
1
1
1
1
1
1
1
1
1
1
1
1
1
1
1
1
1
1
1
1
1
1
1
1
1
1
1
1
1
1
1
1
1
1
1
1
1
1
1.00018
1.02504
1.39777
1.99642
2.24778
2.27955
2.2726
2.26748
2.26359
2.26055
2.25801
2.25585
2.25383
2.25132
2.248
2.24387
2.23878
2.23264
2.22499
2.21624
2.20749
2.19897
1
1
1
1
1
1
1
1
1
1
1
1
1
1
1
1
1
1
1
1
1
1
1
1
1
1
1
1
1
1
1
1
1
1
1
1
1
1
1
1
1
1
1
1
1
1
1
1
1
1
1
1
1
1
1
1
1
1
1
1
1
1
1
1
1
1
1
1
1
1
1
1
1
1
1
1.00009
1.01294
1.26808
1.84886
2.20565
2.25804
2.25421
2.24621
2.24198
2.23851
2.23568
2.23331
2.23127
2.22924
2.22663
2.2235
2.21959
2.21381
2.20653
2.19811
2.18906
1
1
1
1
1
1
1
1
1
1
1
1
1
1
1
1
1
1
1
1
1
1
1
1
1
1
1
1
1
1
1
1
1
1
1
1
1
1
1
1
1
1
1
1
1
1
1
1
1
1
1
1
1
1
1
1
1
1
1
1
1
1
1
1
1
1
1
1
1
1
1
1
1
1
1
1
1.00003
1.0054
1.15434
1.69158
2.15069
2.22608
2.23663
2.22771
2.22286
2.21893
2.21556
2.21325
2.21142
2.20956
2.2076
2.20466
2.20066
2.19553
2.1884
2.18032
1
1
1
1
1
1
1
1
1
1
1
1
1
1
1
1
1
1
1
1
1
1
1
1
1
1
1
1
1
1
1
1
1
1
1
1
1
1
1
1
1
1
1
1
1
1
1
1
1
1
1
1
1
1
1
1
1
1
1
1
1
1
1
1
1
1
1
1
1
1
1
1
1
1
1
1
1
1.00001
1.0019
1.07591
1.54261
2.03662
2.19807
2.22127
2.21471
2.20747
2.20217
2.19836
2.19509
2.19303
2.1914
2.18938
2.18681
2.183
2.17734
2.1711
1
1
1
1
1
1
1
1
1
1
1
1
1
1
1
1
1
1
1
1
1
1
1
1
1
1
1
1
1
1
1
1
1
1
1
1
1
1
1
1
1
1
1
1
1
1
1
1
1
1
1
1
1
1
1
1
1
1
1
1
1
1
1
1
1
1
1
1
1
1
1
1
1
1
1
1
1
1
1
1.00056
1.03336
1.36438
1.88511
2.15822
2.20187
2.19972
2.19042
2.18528
2.18178
2.17857
2.17557
2.17372
2.17194
2.16948
2.16624
2.16108
1
1
1
1
1
1
1
1
1
1
1
1
1
1
1
1
1
1
1
1
1
1
1
1
1
1
1
1
1
1
1
1
1
1
1
1
1
1
1
1
1
1
1
1
1
1
1
1
1
1
1
1
1
1
1
1
1
1
1
1
1
1
1
1
1
1
1
1
1
1
1
1
1
1
1
1
1
1
1
1
1.00014
1.01153
1.20247
1.70062
2.08337
2.16932
2.1841
2.17678
2.17059
2.16562
2.16164
2.1587
2.15648
2.15489
2.15264
2.14866
1
1
1
1
1
1
1
1
1
1
1
1
1
1
1
1
1
1
1
1
1
1
1
1
1
1
1
1
1
1
1
1
1
1
1
1
1
1
1
1
1
1
1
1
1
1
1
1
1
1
1
1
1
1
1
1
1
1
1
1
1
1
1
1
1
1
1
1
1
1
1
1
1
1
1
1
1
1
1
1
1
1.00003
1.00335
1.08799
1.50013
1.95212
2.13612
2.16546
2.16263
2.15452
2.14738
2.14263
2.14077
2.13939
2.13771
2.13595
1
1
1
1
1
1
1
1
1
1
1
1
1
1
1
1
1
1
1
1
1
1
1
1
1
1
1
1
1
1
1
1
1
1
1
1
1
1
1
1
1
1
1
1
1
1
1
1
1
1
1
1
1
1
1
1
1
1
1
1
1
1
1
1
1
1
1
1
1
1
1
1
1
1
1
1
1
1
1
1
1
1
1
1.00075
1.0294
1.29962
1.78258
2.0597
2.13458
2.14877
2.14242
2.13547
2.12726
2.12187
2.12138
2.12161
1
1
1
1
1
1
1
1
1
1
1
1
1
1
1
1
1
1
1
1
1
1
1
1
1
1
1
1
1
1
1
1
1
1
1
1
1
1
1
1
1
1
1
1
1
1
1
1
1
1
1
1
1
1
1
1
1
1
1
1
1
1
1
1
1
1
1
1
1
1
1
1
1
1
1
1
1
1
1
1
1
1
1
1
1.00013
1.00796
1.14278
1.55855
1.93374
2.10178
2.13282
2.13092
2.12052
2.10722
2.10512
2.10518
1
1
1
1
1
1
1
1
1
1
1
1
1
1
1
1
1
1
1
1
1
1
1
1
1
1
1
1
1
1
1
1
1
1
1
1
1
1
1
1
1
1
1
1
1
1
1
1
1
1
1
1
1
1
1
1
1
1
1
1
1
1
1
1
1
1
1
1
1
1
1
1
1
1
1
1
1
1
1
1
1
1
1
1
1
1.00002
1.00179
1.04615
1.32876
1.76033
2.03641
2.11026
2.11223
2.10215
2.08985
2.08688
1
1
1
1
1
1
1
1
1
1
1
1
1
1
1
1
1
1
1
1
1
1
1
1
1
1
1
1
1
1
1
1
1
1
1
1
1
1
1
1
1
1
1
1
1
1
1
1
1
1
1
1
1
1
1
1
1
1
1
1
1
1
1
1
1
1
1
1
1
1
1
1
1
1
1
1
1
1
1
1
1
1
1
1
1
1
1
1.00027
1.01098
1.14819
1.55474
1.90279
2.07208
2.09548
2.0866
2.07472
1
1
1
1
1
1
1
1
1
1
1
1
1
1
1
1
1
1
1
1
1
1
1
1
1
1
1
1
1
1
1
1
1
1
1
1
1
1
1
1
1
1
1
1
1
1
1
1
1
1
1
1
1
1
1
1
1
1
1
1
1
1
1
1
1
1
1
1
1
1
1
1
1
1
1
1
1
1
1
1
1
1
1
1
1
1
1
1
1.00003
1.00207
1.04869
1.3169
1.71185
2.00354
2.06351
2.06229
1
1
1
1
1
1
1
1
1
1
1
1
1
1
1
1
1
1
1
1
1
1
1
1
1
1
1
1
1
1
1
1
1
1
1
1
1
1
1
1
1
1
1
1
1
1
1
1
1
1
1
1
1
1
1
1
1
1
1
1
1
1
1
1
1
1
1
1
1
1
1
1
1
1
1
1
1
1
1
1
1
1
1
1
1
1
1
1
1
1
1.00029
1.01085
1.12686
1.49821
1.85612
2.005
1
1
1
1
1
1
1
1
1
1
1
1
1
1
1
1
1
1
1
1
1
1
1
1
1
1
1
1
1
1
1
1
1
1
1
1
1
1
1
1
1
1
1
1
1
1
1
1
1
1
1
1
1
1
1
1
1
1
1
1
1
1
1
1
1
1
1
1
1
1
1
1
1
1
1
1
1
1
1
1
1
1
1
1
1
1
1
1
1
1
1
1.00003
1.00169
1.03624
1.26299
1.65073
1
1
1
1
1
1
1
1
1
1
1
1
1
1
1
1
1
1
1
1
1
1
1
1
1
1
1
1
1
1
1
1
1
1
1
1
1
1
1
1
1
1
1
1
1
1
1
1
1
1
1
1
1
1
1
1
1
1
1
1
1
1
1
1
1
1
1
1
1
1
1
1
1
1
1
1
1
1
1
1
1
1
1
1
1
1
1
1
1
1
1
1
1
1.00019
1.00697
1.09175
1
1
1
1
1
1
1
1
1
1
1
1
1
1
1
1
1
1
1
1
1
1
1
1
1
1
1
1
1
1
1
1
1
1
1
1
1
1
1
1
1
1
1
1
1
1
1
1
1
1
1
1
1
1
1
1
1
1
1
1
1
1
1
1
1
1
1
1
1
1
1
1
1
1
1
1
1
1
1
1
1
1
1
1
1
1
1
1
1
1
1
1
1
1
1.00002
1.00084
1
1
1
1
1
1
1
1
1
1
1
1
1
1
1
1
1
1
1
1
1
1
1
1
1
1
1
1
1
1
1
1
1
1
1
1
1
1
1
1
1
1
1
1
1
1
1
1
1
1
1
1
1
1
1
1
1
1
1
1
1
1
1
1
1
1
1
1
1
1
1
1
1
1
1
1
1
1
1
1
1
1
1
1
1
1
1
1
1
1
1
1
1
1
1
1
1
1
1
1
1
1
1
1
1
1
1
1
1
1
1
1
1
1
1
1
1
1
1
1
1
1
1
1
1
1
1
1
1
1
1
1
1
1
1
1
1
1
1
1
1
1
1
1
1
1
1
1
1
1
1
1
1
1
1
1
1
1
1
1
1
1
1
1
1
1
1
1
1
1
1
1
1
1
1
1
1
1
1
1
1
1
1
1
1
1
1
1
1
1
1
1
1
1
1
1
1
1
1
1
1
1
1
1
1
1
1
1
1
1
1
1
1
1
1
1
1
1
1
1
1
1
1
1
1
1
1
1
1
1
1
1
1
1
1
1
1
1
1
1
1
1
1
1
1
1
1
1
1
1
1
1
1
1
1
1
1
1
1
1
1
1
1
1
1
1
1
1
1
1
1
1
1
1
1
1
1
1
1
1
1
1
1
1
1
1
1
1
1
1
1
1
1
1
1
1
1
1
1
1
1
1
1
1
1
1
1
1
1
1
1
1
1
1
1
1
1
1
1
1
1
1
1
1
1
1
1
1
1
1
1
1
1
1
1
1
1
1
1
1
1
1
1
1
1
1
1
1
1
1
1
1
1
1
1
1
1
1
1
1
1
1
1
1
1
1
1
1
1
1
1
1
1
1
1
1
1
1
1
1
1
1
1
1
1
1
1
1
1
1
1
1
1
1
1
1
1
1
1
1
1
1
1
1
1
1
1
1
1
1
1
1
1
1
1
1
1
1
1
1
1
1
1
1
1
1
1
1
1
1
1
1
1
1
1
1
1
1
1
1
1
1
1
1
1
1
1
1
1
1
1
1
1
1
1
1
1
1
1
1
1
1
1
1
1
1
1
1
1
1
1
1
1
1
1
1
1
1
1
1
1
1
1
1
1
1
1
1
1
1
1
1
1
1
1
1
1
1
1
1
1
1
1
1
1
1
1
1
1
1
1
1
1
1
1
1
1
1
1
1
1
1
1
1
1
1
1
1
1
1
1
1
1
1
1
1
1
1
1
1
1
1
1
1
1
1
1
1
1
1
1
1
1
1
1
1
1
1
1
1
1
1
1
1
1
1
1
1
1
1
1
1
1
1
1
1
1
1
1
1
1
1
1
1
1
1
1
1
1
1
1
1
1
1
1
1
1
1
1
1
1
1
1
1
1
1
1
1
1
1
1
1
1
1
1
1
1
1
1
1
1
1
1
1
1
1
1
1
1
1
1
1
1
1
1
1
1
1
1
1
1
1
1
1
1
1
1
1
1
1
1
1
1
1
1
1
1
1
1
1
1
1
1
1
1
1
1
1
1
1
1
1
1
1
1
1
1
1
1
1
1
1
1
1
1
1
1
1
1
1
1
1
1
1
1
1
1
1
1
1
1
1
1
1
1
1
1
1
1
1
1
1
1
1
1
1
1
1
1
1
1
1
1
1
1
1
1
1
1
1
1
1
1
1
1
1
1
1
1
1
1
1
1
1
1
1
1
1
1
1
1
1
1
1
1
1
1
1
1
1
1
1
1
1
1
1
1
1
1
1
1
1
1
1
1
1
1
1
1
1
1
1
1
1
1
1
1
1
1
1
1
1
1
1
1
1
1
1
1
1
1
1
1
1
1
1
1
1
1
1
1
1
1
1
1
1
1
1
1
1
1
1
1
1
1
1
1
1
1
1
1
1
1
1
1
1
1
1
1
1
1
1
1
1
1
1
1
1
1
1
1
1
1
1
1
1
1
1
1
1
1
1
1
1
1
1
1
1
1
1
1
1
1
1
1
1
1
1
1
1
1
1
1
1
1
1
1
1
1
1
1
1
1
1
1
1
1
1
1
1
1
1
1
1
1
1
1
1
1
1
1
1
1
1
1
1
1
1
1
1
1
1
1
1
1
1
1
1
1
1
1
1
1
1
1
1
1
1
1
1
1
1
1
1
1
1
1
1
1
1
1
1
1
1
1
1
1
1
1
1
1
1
1
1
1
1
1
1
1
1
1
1
1
1
1
1
1
1
1
1
1
1
1
1
1
1
1
1
1
1
1
1
1
1
1
1
1
1
1
1
1
1
1
1
1
1
1
1
1
1
1
1
1
1
1
1
1
1
1
1
1
1
1
1
1
1
1
1
1
1
1
1
1
1
1
1
1
1
1
1
1
1
1
1
1
1
1
1
1
1
1
1
1
1
1
1
1
1
1
1
1
1
1
1
1
1
1
1
1
1
1
1
1
1
1
1
1
1
1
1
1
1
1
1
1
1
1
1
1
1
1
1
1
1
1
1
1
1
1
1
1
1
1
1
1
1
1
1
1
1
1
1
1
1
1
1
1
1
1
1
1
1
1
1
1
1
1
1
1
1
1
1
1
1
1
1
1
1
1
1
1
1
1
1
1
1
1
1
1
1
1
1
1
1
1
1
1
1
1
1
1
1
1
1
1
1
1
1
1
1
1
1
1
1
1
1
1
1
1
1
1
1
1
1
1
1
1
1
1
1
1
1
1
1
1
1
1
1
1
1
1
1
1
1
1
1
1
1
1
1
1
1
1
1
1
1
1
1
1
1
1
1
1
1
1
1
1
1
1
1
1
1
1
1
1
1
1
1
1
1
1
1
1
1
1
1
1
1
1
1
1
1
1
1
1
1
1
1
1
1
1
1
1
1
1
1
1
1
1
1
1
1
1
1
1
1
1
1
1
1
1
1
1
1
1
1
1
1
1
1
1
1
1
1
1
1
1
1
1
1
1
1
1
1
1
1
1
1
1
1
1
1
1
1
1
1
1
1
1
1
1
1
1
1
1
1
1
1
1
1
1
1
1
1
1
1
1
1
1
1
1
1
1
1
1
1
1
1
1
1
1
1
1
1
1
1
1
1
1
1
1
1
1
1
1
1
1
1
1
1
1
1
1
1
1
1
1
1
1
1
1
1
1
1
1
1
1
1
1
1
1
1
1
1
1
1
1
1
1
1
1
1
1
1
1
1
1
1
1
1
1
1
1
1
1
1
1
1
1
1
1
1
1
1
1
1
1
1
1
1
1
1
1
1
1
1
1
1
1
1
1
1
1
1
1
1
1
1
1
1
1
1
1
1
1
1
1
1
1
1
1
1
1
1
1
1
1
1
1
1
1
1
1
1
1
1
1
1
1
1
1
1
1
1
1
1
1
1
1
1
1
1
1
1
1
1
1
1
1
1
1
1
1
1
1
1
1
1
1
1
1
1
1
1
1
1
1
1
1
1
1
1
1
1
1
1
1
1
1
1
1
1
1
1
1
1
1
1
1
1
1
1
1
1
1
1
1
1
1
1
1
1
1
1
1
1
1
1
1
1
1
1
1
1
1
1
1
1
1
1
1
1
1
1
1
1
1
1
1
1
1
1
1
1
1
1
1
1
1
1
1
1
1
1
1
1
1
1
1
1
1
1
1
1
1
1
1
1
1
1
1
1
1
1
1
1
1
1
1
1
1
1
1
1
1
1
1
1
1
1
1
1
1
1
1
1
1
1
1
1
1
1
1
1
1
1
1
1
1
1
1
1
1
1
1
1
1
1
1
1
1
1
1
1
1
1
1
1
1
1
1
1
1
1
1
1
1
1
1
1
1
1
1
1
1
1
1
1
1
1
1
1
1
1
1
1
1
1
1
1
1
1
1
1
1
1
1
1
1
1
1
1
1
1
1
1
1
1
1
1
1
1
1
1
1
1
1
1
1
1
1
1
1
1
1
1
1
1
1
1
1
1
1
1
1
1
1
1
1
1
1
1
1
1
1
1
1
1
1
1
1
1
1
1
1
1
1
1
1
1
1
1
1
1
1
1
1
1
1
1
1
1
1
1
1
1
1
1
1
1
1
1
1
1
1
1
1
1
1
1
1
1
1
1
1
1
1
1
1
1
1
1
1
1
1
1
1
1
1
1
1
1
1
1
1
1
1
1
1
1
1
1
1
1
1
1
1
1
1
1
1
1
1
1
1
1
1
1
1
1
1
1
1
1
1
1
1
1
1
1
1
1
1
1
1
1
1
1
1
1
1
1
1
1
1
1
1
1
1
1
1
1
1
1
1
1
1
1
1
1
1
1
1
1
1
1
1
1
1
1
1
1
1
1
1
1
1
1
1
1
1
1
1
1
1
1
1
1
1
1
1
1
1
1
1
1
1
1
1
1
1
1
1
1
1
1
1
1
1
1
1
1
1
1
1
1
1
1
1
1
1
1
1
1
1
1
1
1
1
1
1
1
1
1
1
1
1
1
1
1
1
1
1
1
1
1
1
1
1
1
1
1
1
1
1
1
1
1
1
1
1
1
1
1
1
1
1
1
1
1
1
1
1
1
1
1
1
1
1
1
1
1
1
1
1
1
1
1
1
1
1
1
1
1
1
1
1
1
1
1
1
1
1
1
1
1
1
1
1
1
1
1
1
1
1
1
1
1
1
1
1
1
1
1
1
1
1
1
1
1
1
1
1
1
1
1
1
1
1
1
1
1
1
1
1
1
1
1
1
1
1
1
1
1
1
1
1
1
1
1
1
1
1
1
1
1
1
1
1
1
1
1
1
1
1
1
1
1
1
1
1
1
1
1
1
1
1
1
1
1
1
1
1
1
1
1
1
1
1
1
1
1
1
1
1
1
1
1
1
1
1
1
1
1
1
1
1
1
1
1
1
1
1
1
1
1
1
1
1
1
1
1
1
1
1
1
1
1
1
1
1
1
1
1
1
1
1
1
1
1
1
1
1
1
1
1
1
1
1
1
1
1
1
1
1
1
1
1
1
1
1
1
1
1
1
1
1
1
1.69737
1.07684
0.622117
0.541213
0.729079
0.989812
1.15285
1.23999
1.37178
1.56657
1.60621
1.60279
1.58592
1.56794
1.58616
1.68135
1.80099
1.82578
1.81661
1.79255
1.76876
1.76907
1.78235
1.80754
1.81613
1.80794
1.78511
1.77408
1.77562
1.78534
1.80189
1.81721
1.8203
1.81924
1.81404
1.80601
1.80559
1.81019
1.82137
1.8305
1.83202
1.83192
1.83262
1.83494
1.8406
1.84741
1.85151
1.85201
1.8505
1.84684
1.84158
1.83683
1.83505
1.83551
1.83754
1.83778
1.8345
1.82919
1.82556
1.82398
1.82329
1.82423
1.82646
1.82636
1.82457
1.82152
1.81829
1.81365
1.8085
1.80814
1.80885
1.81022
1.81139
1.81455
1.81811
1.81843
1.81793
1.81638
1.81341
1.80876
1.80282
1.79698
1.793
1.79154
1.79147
1.79231
1.79384
1.79446
1.79422
1.79224
1.78747
1.78105
1.77512
1.77121
1.76994
1.77008
1.77141
1.77401
1.77682
1.77874
1.77953
1.77964
1.77973
1.78009
1.78039
1.7805
1.7804
1.77929
1.7765
1.7732
1.77005
1.76675
1.76336
1.76099
1.76048
1.76066
1.76151
1.76276
1.76315
1.76255
1.76067
1.75922
1.75811
1.75716
1.7567
1.7568
1.75856
1.7608
1.76302
1.76623
1.76986
1.7729
1.77409
1.77345
1.76915
1.76222
1.75631
1.75247
1.74981
1.74833
1.74814
1.74841
1.74956
1.75198
1.75519
1.75761
1.75778
1.75785
1.75721
1.75377
1.74784
1.74496
1.7453
1.74799
1.7525
1.75765
1.76266
1.76717
1.77133
1.77467
1.77546
1.7755
1.77536
1.77402
1.769
1.76456
1.76107
1.75748
1.75554
1.7555
1.75754
1.76261
1.7674
1.77197
1.77755
1.78425
1.7911
1.79712
1.80144
1.80755
1.81659
1.82647
1.83618
1.84546
1.85379
1.86038
1.86506
1.86831
1.86905
1.8685
1.86619
1.87105
1.93695
1.55753
1.36957
1.27638
1.15008
1.06162
1.07956
1.11388
1.16223
1.20286
1.22677
1.22893
1.24767
1.28857
1.34779
1.42447
1.49362
1.53882
1.55849
1.5754
1.59692
1.61877
1.64648
1.67747
1.70919
1.71813
1.71513
1.71555
1.71752
1.72443
1.73722
1.75118
1.75625
1.75598
1.75578
1.75652
1.75928
1.76568
1.77498
1.7821
1.78583
1.7877
1.78917
1.79201
1.79673
1.80294
1.80937
1.81153
1.8111
1.80899
1.80483
1.80029
1.79813
1.79858
1.80118
1.80179
1.7998
1.79678
1.79472
1.79386
1.79355
1.7951
1.79913
1.80035
1.79963
1.79789
1.79506
1.78892
1.78326
1.78221
1.7825
1.78381
1.78613
1.78943
1.79332
1.79401
1.79377
1.79292
1.79114
1.78809
1.78387
1.78003
1.7775
1.77611
1.77521
1.77466
1.77476
1.77555
1.77575
1.77511
1.77275
1.76892
1.76467
1.76099
1.75835
1.75675
1.75631
1.75661
1.75805
1.76013
1.76185
1.76292
1.76346
1.76404
1.76476
1.76543
1.76563
1.76502
1.76306
1.76119
1.75918
1.75682
1.75407
1.75148
1.75029
1.75026
1.75062
1.75157
1.75263
1.75271
1.7522
1.75187
1.75122
1.75001
1.74924
1.74881
1.74875
1.74942
1.75107
1.75344
1.75625
1.75876
1.76018
1.76025
1.75926
1.75641
1.75233
1.74797
1.74433
1.74219
1.7418
1.74199
1.74277
1.74465
1.74749
1.74997
1.75157
1.75163
1.75129
1.74961
1.74585
1.7417
1.74043
1.74123
1.74462
1.74934
1.75383
1.7577
1.76118
1.764
1.76577
1.76699
1.76834
1.76917
1.76775
1.76384
1.76222
1.76181
1.76375
1.7684
1.77772
1.79275
1.81133
1.83089
1.85081
1.87184
1.89222
1.90816
1.92149
1.93484
1.94756
1.95903
1.96917
1.97812
1.98627
1.99287
1.99769
2.00155
2.00273
2.0023
2.00078
2.00611
2.00606
1.74527
1.62176
1.52265
1.3994
1.298
1.23052
1.21353
1.19016
1.17388
1.16028
1.13547
1.13923
1.16863
1.20642
1.23021
1.24607
1.26865
1.30379
1.34485
1.39182
1.42581
1.45827
1.49374
1.53091
1.56976
1.59561
1.61321
1.62449
1.62932
1.63804
1.64675
1.6501
1.65026
1.65072
1.65441
1.66139
1.66699
1.67225
1.67787
1.68325
1.68846
1.69351
1.69916
1.70469
1.70918
1.71276
1.71576
1.71754
1.71762
1.71749
1.71667
1.71632
1.71725
1.72026
1.7217
1.72253
1.72339
1.7234
1.72227
1.72019
1.72053
1.72442
1.72851
1.73063
1.73182
1.73128
1.72673
1.72159
1.7184
1.71684
1.71695
1.71894
1.72312
1.72813
1.72962
1.72948
1.72874
1.72724
1.72538
1.72333
1.72237
1.72259
1.7238
1.72581
1.72698
1.72694
1.72597
1.72404
1.72292
1.72217
1.72092
1.71876
1.71657
1.71569
1.7156
1.71536
1.71468
1.71384
1.71322
1.71321
1.71391
1.71491
1.71573
1.71669
1.71792
1.71871
1.71845
1.71701
1.71647
1.71629