/*--------------------------------*- C++ -*----------------------------------*\
  =========                 |
  \\      /  F ield         | OpenFOAM: The Open Source CFD Toolbox
   \\    /   O peration     | Website:  https://openfoam.org
    \\  /    A nd           | Version:  7
     \\/     M anipulation  |
\*---------------------------------------------------------------------------*/
FoamFile
{
    version     2.0;
    format      ascii;
    class       volScalarField;
    location    "40";
    object      p;
}
// * * * * * * * * * * * * * * * * * * * * * * * * * * * * * * * * * * * * * //

dimensions      [0 2 -2 0 0 0 0];

internalField   nonuniform List<scalar> 
16000
(
8.3755641e-06
-0.00013200898
-0.00044352149
-0.00084588495
-0.001264099
-0.0016527719
-0.0019810309
-0.0022300348
-0.0023891462
-0.002452662
-0.0024176429
-0.0022826312
-0.0020470554
-0.0017111584
-0.001276298
-0.00074548375
-0.00012402855
0.00057979967
0.0013542247
0.0021835958
0.0030482877
0.0039249389
0.0047870625
0.0056060646
0.0063526234
0.0069983671
0.0075177448
0.0078899565
0.0081007913
0.0081442022
0.0080234422
0.0077516399
0.0073517959
0.0068563158
0.0063060144
0.0057484194
0.0052386384
0.0048330267
0.0045932467
0.0045545506
0.00015288761
7.9636018e-06
-0.00024212756
-0.0005510109
-0.00087320765
-0.0011744092
-0.001430372
-0.0016249152
-0.0017476767
-0.0017922145
-0.0017545893
-0.0016324387
-0.0014245083
-0.0011305658
-0.0007516011
-0.00029021851
0.00024887282
0.00085836008
0.0015279059
0.0022438758
0.0029892726
0.003744073
0.0044855709
0.0051894053
0.0058307166
0.0063856075
0.0068327642
0.0071550983
0.0073412714
0.0073869784
0.0072958668
0.0070799686
0.0067595504
0.0063624012
0.0059226817
0.0054793144
0.0050734439
0.0047485953
0.0045500648
0.0045148005
0.00047152769
0.00025364467
-2.1931127e-06
-0.00028124266
-0.00056148799
-0.00081842518
-0.0010342675
-0.0011969579
-0.0012982893
-0.0013327399
-0.0012965909
-0.0011873107
-0.0010032599
-0.00074368432
-0.00040893045
-8.1363427e-07
0.00047693168
0.0010181904
0.0016140678
0.0022526277
0.0029188651
0.0035948303
0.0042601698
0.0048928884
0.0054704383
0.0059710747
0.0063753858
0.0066678536
0.0068382799
0.0068829322
0.0068053095
0.0066164566
0.0063347446
0.0059850567
0.005597428
0.0052052516
0.0048430092
0.0045449136
0.0043474335
0.0042802263
0.00089314138
0.00056188356
0.00026119163
-2.4594627e-05
-0.00029519903
-0.00053434848
-0.00073047845
-0.00087637654
-0.00096697222
-0.00099856943
-0.00096835382
-0.00087403825
-0.00071375089
-0.00048615387
-0.00019074052
0.00017174586
0.00059882762
0.0010857996
0.0016252889
0.0022069447
0.0028173306
0.0034399941
0.0040559775
0.0046445035
0.005184017
0.0056534917
0.0060339364
0.0063099768
0.0064713312
0.0065139784
0.0064408653
0.0062620941
0.0059945872
0.0056612142
0.0052893474
0.0049089499
0.0045506342
0.004244193
0.0040161716
0.0038805748
0.0013439386
0.00088427107
0.00052111844
0.00021080467
-6.6905154e-05
-0.00030296545
-0.00049169843
-0.0006308421
-0.0007187414
-0.00075383196
-0.00073445106
-0.00065869661
-0.00052448436
-0.00032980273
-7.3118854e-05
0.00024611209
0.0006268845
0.0010660775
0.00155794
0.0020936903
0.0026613014
0.0032455341
0.0038283029
0.0043893675
0.0049073593
0.0053610922
0.005731082
0.0060011731
0.0061601094
0.006202831
0.0061312674
0.0059544861
0.0056882079
0.005353783
0.0049766613
0.0045844913
0.0042056195
0.0038671367
0.0035844404
0.0033607851
0.0017707872
0.0011776581
0.00074299678
0.00039695087
0.00010039009
-0.00014390159
-0.00033561448
-0.00047719909
-0.00057034584
-0.00061563146
-0.00061256751
-0.00055962927
-0.00045446088
-0.00029426165
-7.6308977e-05
0.0002014214
0.00053958365
0.00093679007
0.0013889926
0.0018889752
0.0024260255
0.0029858687
0.0035509159
0.0041009163
0.0046139847
0.0050679671
0.0054420425
0.005718434
0.0058840846
0.0059321088
0.0058627762
0.005683793
0.005409788
0.0050611033
0.0046620473
0.0042389774
0.0038194259
0.0034299518
0.0030774254
0.0027501141
0.0021284816
0.0014035032
0.00089391558
0.00050568575
0.00018241755
-7.8560786e-05
-0.00028176633
-0.00043397844
-0.00053997817
-0.00060230945
-0.00062152311
-0.00059634624
-0.00052401698
-0.00040079385
-0.00022259328
1.4276078e-05
0.00031231913
0.00067205114
0.0010912456
0.0015642972
0.0020817675
0.0026302073
0.0031922775
0.0037473289
0.0042723978
0.0047436307
0.0051380226
0.0054352989
0.0056197562
0.0056818803
0.0056195375
0.0054385024
0.0051521168
0.0047800435
0.0043462517
0.0038769082
0.003400097
0.0029435881
0.0025073799
0.0020658443
0.002378456
0.0015270517
0.00094297706
0.0005098006
0.00015521532
-0.0001283385
-0.00034973199
-0.00051965209
-0.00064563009
-0.00073190046
-0.00077981933
-0.00078815726
-0.00075355001
-0.0006711224
-0.00053523567
-0.00034033099
-8.1842634e-05
0.00024286176
0.00063357549
0.0010864552
0.0015934138
0.0021418189
0.0027144679
0.0032900857
0.0038442422
0.0043507899
0.0047837282
0.0051193198
0.0053382157
0.0054273385
0.0053813155
0.0052032718
0.0049047862
0.0045048303
0.0040276316
0.0035002793
0.002952825
0.0024158778
0.001884467
0.0013219549
0.0024869031
0.001516609
0.00086087852
0.00038241567
-5.8905539e-06
-0.00031611419
-0.00056109428
-0.00075501959
-0.00090780894
-0.0010250712
-0.00110869
-0.0011572314
-0.0011664979
-0.0011302552
-0.0010410831
-0.00089132306
-0.00067410244
-0.00038440354
-2.0124526e-05
0.0004169401
0.00092029855
0.0014783042
0.0020739328
0.0026851954
0.0032859467
0.0038472873
0.0043394952
0.0047343631
0.0050076916
0.0051416093
0.0051264051
0.0049616582
0.0046565219
0.0042289744
0.0037037718
0.0031098616
0.002480712
0.0018514496
0.0012135097
0.00052001926
0.0024233524
0.0013430954
0.00062005336
9.7483563e-05
-0.00032555436
-0.0006654043
-0.0009385662
-0.0011623644
-0.0013487577
-0.0015044143
-0.0016314626
-0.0017280101
-0.0017887887
-0.0018059683
-0.0017700952
-0.0016711362
-0.0014996083
-0.001247769
-0.00091082366
-0.00048809633
1.5943935e-05
0.00059106184
0.0012206473
0.0018820988
0.00254744
0.00318466
0.0037596682
0.0042387943
0.00459165
0.0047940101
0.0048302848
0.0046952159
0.0043946016
0.0039448996
0.003371378
0.0027054966
0.0019854944
0.0012527685
0.00049626331
-0.00034088593
0.0021600283
0.00097987856
0.00019490375
-0.00036964913
-0.00082759545
-0.0011993745
-0.0015048996
-0.0017643115
-0.0019912995
-0.0021933046
-0.0023724394
-0.0025261151
-0.002647771
-0.0027277534
-0.0027543173
-0.0027147468
-0.0025965802
-0.0023889179
-0.0020837754
-0.0016774431
-0.0011717593
-0.00057484182
9.7588878e-05
0.00082270827
0.0015708096
0.0023065344
0.0029908242
0.003583551
0.0040467138
0.004347919
0.0044636846
0.0043820295
0.0041039438
0.0036434875
0.0030261677
0.0022863552
0.00146825
0.00062129366
-0.00026720009
-0.0012643732
0.0016717333
0.00040284207
-0.00043791998
-0.0010417562
-0.0015343384
-0.0019400495
-0.0022820035
-0.0025828821
-0.0028578444
-0.0031148681
-0.0033558341
-0.0035772582
-0.0037710936
-0.0039256586
-0.0040266735
-0.0040584226
-0.00400505
-0.0038519745
-0.003587391
-0.0032037953
-0.0026994681
-0.0020800066
-0.0013589303
-0.00055866889
0.00028975115
0.0011476395
0.0019704842
0.0027106896
0.0033211061
0.0037591274
0.0039909393
0.0039952956
0.0037661652
0.0033136927
0.0026629436
0.0018513541
0.00093014644
-4.1407038e-05
-0.0010770049
-0.0022548439
0.00093606612
-0.00040935182
-0.0012991487
-0.0019392215
-0.0024659598
-0.0029075318
-0.0032900545
-0.0036385095
-0.0039693175
-0.0042908198
-0.0046045154
-0.0049058851
-0.0051852517
-0.0054287375
-0.0056193108
-0.0057379536
-0.0057649864
-0.0056815607
-0.0054712976
-0.0051220117
-0.0046274668
-0.0039892927
-0.0032179649
-0.0023343526
-0.0013699194
-0.00036625536
0.00062648919
0.0015523454
0.0023533785
0.0029744567
0.0033685535
0.0035019495
0.0033584932
0.002941968
0.0022755946
0.0013996313
0.00037327397
-0.00073250512
-0.0019319841
-0.0033156067
-6.6149928e-05
-0.0014748625
-0.0024064473
-0.0030794952
-0.0036398227
-0.0041192017
-0.0045465614
-0.0049489719
-0.005343961
-0.0057401279
-0.0061385177
-0.0065335179
-0.0069137499
-0.0072630305
-0.0075614003
-0.007786266
-0.007913711
-0.0079200174
-0.0077834086
-0.0074859769
-0.0070157469
-0.0063688485
-0.0055513306
-0.0045809851
-0.0034883706
-0.0023170144
-0.0011223819
3.0628299e-05
0.0010717364
0.0019307442
0.002544038
0.0028614788
0.0028527127
0.0025115695
0.0018569539
0.00093098587
-0.0001984505
-0.0014466741
-0.002828179
-0.0044471568
-0.0013503302
-0.0028082052
-0.003773936
-0.0044765471
-0.0050698233
-0.0055889283
-0.0060654198
-0.006528279
-0.0069960427
-0.0074775362
-0.0079733626
-0.0084768497
-0.0089749421
-0.0094491285
-0.0098764178
-0.01023042
-0.010482606
-0.010603812
-0.010566032
-0.010344511
-0.009920102
-0.0092818247
-0.0084293745
-0.007375545
-0.0061481334
-0.004791029
-0.0033640183
-0.001940866
-0.0006053655
0.00055468526
0.0014552812
0.0020250955
0.0022143485
0.0020019537
0.0013986286
0.00044628094
-0.0007783283
-0.0021747251
-0.0037572127
-0.0056453904
-0.0029275669
-0.0044197925
-0.0054117379
-0.0061403584
-0.0067657853
-0.0073263272
-0.0078559993
-0.0083855603
-0.0089345265
-0.0095120006
-0.010118246
-0.01074566
-0.01137964
-0.011999436
-0.012579025
-0.013088089
-0.013493186
-0.013759186
-0.013851073
-0.013736131
-0.013386555
-0.012782423
-0.01191488
-0.010789329
-0.0094283581
-0.0078739379
-0.0061883705
-0.0044533663
-0.0027666516
-0.001235747
3.1012115e-05
0.00093559433
0.0014022843
0.0013884592
0.00089099004
-5.2067591e-05
-0.0013558266
-0.0029020755
-0.0047044451
-0.0068995982
-0.0048041178
-0.0063155521
-0.0073256226
-0.0080765143
-0.0087329512
-0.0093361092
-0.009922311
-0.010524018
-0.011161781
-0.011845128
-0.012574185
-0.013340655
-0.014128622
-0.0149153
-0.015671762
-0.016363765
-0.016952769
-0.017397277
-0.017654573
-0.017682959
-0.01744454
-0.016908565
-0.016055262
-0.014879871
-0.013396735
-0.01164284
-0.009680245
-0.0075966
-0.0055028819
-0.0035275678
-0.0018068897
-0.00047150145
0.00036919557
0.00064250137
0.0003235156
-0.00055934234
-0.0019152968
-0.0036069602
-0.0056468164
-0.0081901108
-0.0069810193
-0.0084966891
-0.0095168094
-0.010285965
-0.01097164
-0.011617583
-0.012262318
-0.012940014
-0.013672414
-0.014469732
-0.01533228
-0.016251406
-0.017210223
-0.018184225
-0.01914184
-0.020045042
-0.020850184
-0.021509164
-0.021971052
-0.022184311
-0.022099683
-0.021673818
-0.020873635
-0.019681277
-0.018099344
-0.016156024
-0.01390932
-0.011449516
-0.0088987012
-0.0064061346
-0.0041384915
-0.002264742
-0.00093659168
-0.00026732841
-0.00031428502
-0.0010673345
-0.0024342973
-0.0042582402
-0.0065502531
-0.0094854578
-0.0094539008
-0.010959662
-0.011981999
-0.012765023
-0.013477136
-0.014164384
-0.01486746
-0.015622368
-0.016452326
-0.017368632
-0.018372228
-0.01945457
-0.020598252
-0.021777464
-0.022958353
-0.024099405
-0.025152026
-0.026061486
-0.02676837
-0.027210704
-0.027326862
-0.027059366
-0.026359665
-0.025193933
-0.02354933
-0.021440885
-0.018917756
-0.016068137
-0.013021319
-0.0099452234
-0.0070377474
-0.0045107831
-0.0025670848
-0.0013726791
-0.0010309888
-0.0015624937
-0.0028813526
-0.004812649
-0.0073664782
-0.010738889
-0.012213074
-0.013696449
-0.014713699
-0.015505658
-0.016239882
-0.016964492
-0.017722463
-0.018551934
-0.01947807
-0.020513798
-0.021661271
-0.022912635
-0.024250513
-0.025648302
-0.027070325
-0.028471976
-0.029800033
-0.030993328
-0.031983969
-0.032699282
-0.033064644
-0.033007316
-0.032461463
-0.031374989
-0.029715868
-0.027481449
-0.024706581
-0.021471356
-0.017906439
-0.014193887
-0.010561032
-0.0072651497
-0.004567797
-0.0027007163
-0.0018299165
-0.0020230989
-0.0032129559
-0.0052113167
-0.0080290697
-0.011884101
-0.015243962
-0.016695174
-0.01770092
-0.018496147
-0.019246003
-0.020000583
-0.020805479
-0.021701539
-0.022716588
-0.023865934
-0.025153675
-0.026573324
-0.028108167
-0.029731375
-0.031405963
-0.033084695
-0.03471014
-0.036215061
-0.03752335
-0.038551723
-0.03921238
-0.039416714
-0.03908034
-0.038131494
-0.036515385
-0.034207528
-0.031222843
-0.027626427
-0.023542758
-0.019160895
-0.014732577
-0.010559619
-0.0069676944
-0.004266694
-0.002703787
-0.0024150504
-0.0033695611
-0.0053754034
-0.0084486171
-0.01283002
-0.018527919
-0.019941179
-0.020930309
-0.021722143
-0.022478216
-0.023250728
-0.024088573
-0.025036273
-0.026125373
-0.027374582
-0.02879084
-0.030369809
-0.032096097
-0.033943231
-0.035873429
-0.0378373
-0.039773662
-0.041609663
-0.043261434
-0.044635484
-0.045631098
-0.046144021
-0.046071639
-0.045318197
-0.043807124
-0.041487881
-0.038350066
-0.034436697
-0.029857345
-0.024798586
-0.019527991
-0.01438677
-0.0097659363
-0.0060635049
-0.0036269186
-0.0026858724
-0.0032702744
-0.00520064
-0.0085068195
-0.013454525
-0.022043511
-0.023418605
-0.024387802
-0.025168197
-0.025917126
-0.026689419
-0.027538507
-0.028514115
-0.029653037
-0.030978734
-0.032502092
-0.034221773
-0.03612436
-0.038184249
-0.040363289
-0.042610329
-0.044860841
-0.047036812
-0.04904714
-0.050788736
-0.052148603
-0.053007199
-0.053243255
-0.052739911
-0.051394793
-0.049129611
-0.045904688
-0.041734545
-0.036704933
-0.030988918
-0.024858112
-0.01868318
-0.012916122
-0.0080483097
-0.0045447392
-0.0027565947
-0.0028059633
-0.0045505635
-0.0080493533
-0.013596982
-0.025768324
-0.027112609
-0.028060879
-0.028819795
-0.0295429
-0.030288872
-0.031117752
-0.032086798
-0.033240198
-0.034607919
-0.036206106
-0.038037324
-0.040090711
-0.042341882
-0.04475256
-0.047270041
-0.04982669
-0.052339675
-0.054711139
-0.05682905
-0.058568968
-0.05979702
-0.060374304
-0.06016299
-0.059035802
-0.056885511
-0.053640614
-0.049282222
-0.043864293
-0.037535096
-0.030556363
-0.023313833
-0.016309716
-0.010127033
-0.005360734
-0.0025113433
-0.0018305509
-0.0032482272
-0.0068773087
-0.013049464
-0.029681461
-0.031012402
-0.031941565
-0.032665933
-0.033337277
-0.034020505
-0.034785594
-0.035700777
-0.036820562
-0.03818363
-0.039812878
-0.041715656
-0.043884069
-0.046295052
-0.048910131
-0.05167494
-0.054518698
-0.057353844
-0.060076062
-0.062564914
-0.064685337
-0.066290241
-0.067224477
-0.067330526
-0.066457252
-0.064469339
-0.061262699
-0.056782218
-0.051044132
-0.044161923
-0.036373118
-0.028061097
-0.019761348
-0.01213842
-0.0059215719
-0.0017847366
-0.00015033304
-0.0010661555
-0.0047369271
-0.011546456
-0.03376696
-0.035115427
-0.036030393
-0.036702301
-0.037285843
-0.037856439
-0.038499161
-0.039298133
-0.04032205
-0.041620965
-0.0432261
-0.045150309
-0.047388768
-0.049919441
-0.052703165
-0.055683376
-0.058785691
-0.061917547
-0.064968147
-0.067808919
-0.070294805
-0.072266505
-0.073554103
-0.073982356
-0.073377048
-0.071577606
-0.068448205
-0.063897021
-0.057899445
-0.050526912
-0.041980092
-0.032621805
-0.022999387
-0.013840298
-0.0060019422
-0.00034763997
0.0024887189
0.0022857468
-0.0013072113
-0.008752676
-0.038018675
-0.03943325
-0.040341732
-0.040935214
-0.04138049
-0.041770826
-0.042214149
-0.042817237
-0.043667838
-0.044830362
-0.046345803
-0.048232843
-0.050489303
-0.05309333
-0.056004026
-0.059161556
-0.062486986
-0.065882022
-0.069228942
-0.072390925
-0.075213198
-0.077524961
-0.079142585
-0.079874342
-0.079526759
-0.077914712
-0.074873393
-0.070276046
-0.064057085
-0.056242291
-0.046986372
-0.036615347
-0.025665352
-0.014901397
-0.005291496
0.0021076011
0.0064154821
0.0071747271
0.0038153516
-0.0042482301
-0.042447604
-0.044000175
-0.044911102
-0.045386469
-0.045621956
-0.045740801
-0.045885046
-0.046193011
-0.046777213
-0.047719385
-0.049071224
-0.050856808
-0.053075375
-0.055703628
-0.058697197
-0.061991302
-0.065500964
-0.069120926
-0.07272566
-0.076169514
-0.079287856
-0.081898626
-0.083805205
-0.084800659
-0.084673743
-0.083217558
-0.080241137
-0.075585793
-0.069147278
-0.060905824
-0.050965692
-0.039604222
-0.027325175
-0.014902419
-0.0033871328
0.0059805189
0.012049621
0.014062789
0.011136342
0.0024906198
-0.047093671
-0.04888638
-0.04980551
-0.050099439
-0.050022359
-0.049746828
-0.049464675
-0.049356725
-0.049566272
-0.050194606
-0.051303902
-0.052921956
-0.055047026
-0.05765174
-0.06068572
-0.064076895
-0.067732212
-0.071537726
-0.075359112
-0.079040371
-0.082406712
-0.085264523
-0.087404292
-0.088604488
-0.088637268
-0.08727564
-0.08430517
-0.079538568
-0.072836525
-0.064136584
-0.053492521
-0.041126702
-0.027494221
-0.013350011
0.00020529144
0.011771502
0.019918005
0.02352834
0.021289778
0.012118733
-0.052045873
-0.054218704
-0.055138435
-0.0551468
-0.054607556
-0.053772223
-0.052902969
-0.05223538
-0.051948578
-0.052163709
-0.052951081
-0.054338635
-0.056319678
-0.058858913
-0.061896729
-0.065350455
-0.069116621
-0.073070378
-0.077068495
-0.080940764
-0.084502807
-0.087548573
-0.089855137
-0.091186222
-0.091298383
-0.089944214
-0.086887807
-0.081915933
-0.074857574
-0.065611401
-0.054183476
-0.040739861
-0.025676839
-0.009707046
0.0060547374
0.020081711
0.030669539
0.036293194
0.035075764
0.025465132
-0.057478546
-0.06021455
-0.061091784
-0.060640183
-0.059418919
-0.057801481
-0.05614486
-0.05475076
-0.053835926
-0.053537883
-0.053929346
-0.055032157
-0.056828767
-0.059270653
-0.062285678
-0.065775508
-0.069624681
-0.073695486
-0.077830145
-0.081849283
-0.085553999
-0.088725277
-0.091126294
-0.092505496
-0.092601459
-0.091149034
-0.087889841
-0.082585117
-0.075033983
-0.065098896
-0.05274099
-0.038070942
-0.021420672
-0.0034425909
0.01476799
0.03159683
0.045084064
0.05325595
0.053516321
0.043607092
-0.063719378
-0.067238128
-0.067947746
-0.066741404
-0.064513392
-0.061816457
-0.059126713
-0.056817804
-0.055138902
-0.054234109
-0.054167939
-0.054946533
-0.056533514
-0.058860996
-0.061836883
-0.065347391
-0.069259737
-0.073421426
-0.077660261
-0.081783753
-0.085579004
-0.088813007
-0.091234068
-0.092574394
-0.092554339
-0.090888671
-0.087295678
-0.081510037
-0.073299847
-0.062490554
-0.048998102
-0.032876298
-0.014386877
0.0058943899
0.026923972
0.047044384
0.064067107
0.075530799
0.077939006
0.068004897
-0.071381553
-0.075894254
-0.076133129
-0.073672989
-0.069958883
-0.065788049
-0.061769466
-0.058340727
-0.055765705
-0.054175782
-0.053610244
-0.05404614
-0.055417347
-0.057629441
-0.060565951
-0.064092234
-0.068056626
-0.072290011
-0.076604918
-0.080794388
-0.084631281
-0.087868069
-0.090237615
-0.091455191
-0.09122211
-0.089231346
-0.08517566
-0.078760274
-0.069718036
-0.057831978
-0.042965901
-0.02510846
-0.0044394879
0.018569777
0.042964485
0.067104669
0.088610433
0.10448293
0.11010449
0.10076037
-0.081632171
-0.087182392
-0.086270919
-0.081716967
-0.075815281
-0.069655436
-0.063961846
-0.059201134
-0.055614208
-0.053287377
-0.052210035
-0.05231153
-0.05348481
-0.055600088
-0.058511688
-0.062060676
-0.066074932
-0.070367771
-0.074736085
-0.078958458
-0.08279372
-0.085980077
-0.088235188
-0.089257447
-0.088728844
-0.08631952
-0.081694329
-0.074525317
-0.064503449
-0.051359288
-0.034889981
-0.014998128
0.008248371
0.034515052
0.063013194
0.092225709
0.1196597
0.14172229
0.15240424
0.14512446
-0.096760523
-0.10273884
-0.099198611
-0.091155925
-0.082063181
-0.073262134
-0.065508487
-0.059217668
-0.054540851
-0.05147006
-0.049910859
-0.049723659
-0.050746498
-0.052806667
-0.055725169
-0.059316958
-0.063389029
-0.067737493
-0.072144478
-0.076375267
-0.080175985
-0.08327199
-0.085367161
-0.086144327
-0.085267235
-0.082383425
-0.077128898
-0.069139177
-0.058056242
-0.043545349
-0.025315792
-0.0031513154
0.023041003
0.053141432
0.086633496
0.12228315
0.15778099
0.1889518
0.20809802
0.20632785
-0.12134007
-0.12518772
-0.11587349
-0.10208159
-0.088417708
-0.07619868
-0.066006141
-0.058052612
-0.052291703
-0.048550633
-0.046608792
-0.04623343
-0.047195214
-0.049273139
-0.052253461
-0.055925763
-0.060077991
-0.064491405
-0.068935957
-0.073166316
-0.076918686
-0.079908434
-0.081828598
-0.082349396
-0.08111933
-0.07776503
-0.071896439
-0.063110885
-0.050996699
-0.035142284
-0.015145869
0.0093691087
0.038725555
0.073129829
0.11251993
0.15626274
0.20263103
0.24752329
0.28130109
0.29235669
-0.16445752
-0.15843325
-0.13714875
-0.11415783
-0.094107677
-0.077631573
-0.064738249
-0.055162166
-0.048490294
-0.044291962
-0.042173282
-0.041787868
-0.042832923
-0.045040179
-0.048165283
-0.051977614
-0.056251347
-0.060757901
-0.06525972
-0.069505269
-0.073225104
-0.076128898
-0.077903334
-0.078211086
-0.076691073
-0.072948332
-0.066578237
-0.057141141
-0.044172842
-0.027180825
-0.0056364857
0.021034873
0.053464215
0.092331723
0.13829637
0.19182702
0.25266814
0.31751155
0.37626869
0.41537087
-0.24629438
-0.20631843
-0.16213072
-0.12552936
-0.097144129
-0.075878645
-0.060488027
-0.049752822
-0.042660733
-0.038436702
-0.036490845
-0.036365897
-0.037697873
-0.040185688
-0.043567795
-0.047604781
-0.052066478
-0.056722272
-0.061333721
-0.065648872
-0.069397903
-0.072289838
-0.074010207
-0.074220427
-0.072559094
-0.068606115
-0.061962214
-0.05215639
-0.038683394
-0.02098158
0.0015957993
0.029825386
0.06468658
0.10746512
0.15987137
0.22417815
0.30290581
0.39553255
0.49624377
0.60321266
-0.42543915
-0.26573052
-0.17722174
-0.12463636
-0.089116984
-0.065103115
-0.049324324
-0.039185802
-0.032984197
-0.029674592
-0.028571238
-0.02918729
-0.031157368
-0.034190449
-0.038038168
-0.04247389
-0.047278732
-0.052231761
-0.057102818
-0.061647121
-0.065601163
-0.06867954
-0.070572219
-0.070941101
-0.069408388
-0.065630261
-0.05913281
-0.049453259
-0.036075171
-0.01840359
0.0042715101
0.032847483
0.068542965
0.11314243
0.16943703
0.2420176
0.33806649
0.46591624
0.64305506
0.92086264
-0.7933131
-0.32444233
-0.14899758
-0.087725537
-0.055345938
-0.035999635
-0.025091668
-0.01920112
-0.016355652
-0.015619232
-0.016494472
-0.018654291
-0.021853415
-0.025888786
-0.030575805
-0.035734203
-0.041179423
-0.046716672
-0.05213638
-0.057210566
-0.061689889
-0.065301284
-0.067746287
-0.068701317
-0.067824912
-0.06470835
-0.058942163
-0.050072813
-0.037593738
-0.020927487
0.00061038438
0.027881101
0.062058818
0.10491344
0.15945141
0.23152808
0.33385155
0.49409231
0.79001646
1.3837784
1.178857e-05
-0.00013107376
-0.00044326563
-0.00084582402
-0.001264228
-0.0016530295
-0.0019813728
-0.0022304367
-0.0023895914
-0.002453136
-0.0024181328
-0.0022831255
-0.0020475438
-0.001711631
-0.0012767446
-0.00074589335
-0.00012438841
0.00057950313
0.0013540035
0.0021834588
0.0030482408
0.0039249872
0.0047872115
0.0056063183
0.0063529783
0.0069988078
0.0075182472
0.0078904975
0.0081013556
0.0081447772
0.008024003
0.0077521421
0.007352192
0.0068565835
0.0063061693
0.005748499
0.0052386185
0.0048328316
0.0045928392
0.0045543407
0.00015372652
8.4581136e-06
-0.00024169563
-0.00055055296
-0.00087271046
-0.0011738598
-0.001429773
-0.0016242801
-0.0017470219
-0.001791556
-0.0017539418
-0.0016318151
-0.0014239209
-0.0011300267
-0.00075112335
-0.00028981582
0.00024918712
0.00085857569
0.0015280153
0.0022438735
0.0029891526
0.0037438277
0.0044851984
0.0051889135
0.005830124
0.0063849359
0.0068320303
0.007154312
0.0073404484
0.0073861537
0.0072950908
0.0070792805
0.0067589554
0.0063618819
0.0059222406
0.0054789976
0.005073313
0.0047485657
0.0045499717
0.0045148697
0.00047199466
0.00025389893
-1.8931573e-06
-0.0002809909
-0.00056130452
-0.00081827995
-0.001034147
-0.001196857
-0.0012982043
-0.0013326696
-0.0012965355
-0.0011872706
-0.0010032348
-0.00074367335
-0.00040893254
-8.2857303e-07
0.00047690247
0.0010181456
0.0016140085
0.0022525586
0.0029187914
0.0035947541
0.0042600878
0.004892796
0.0054703371
0.0059709755
0.006375301
0.0066677831
0.0068382065
0.006882838
0.006805199
0.0066163578
0.0063346773
0.0059849994
0.0055973316
0.0052051001
0.004842856
0.0045447963
0.0043472942
0.0042802067
0.00089361768
0.00056193211
0.00026142781
-2.4379946e-05
-0.00029507376
-0.0005342694
-0.00073043092
-0.00087635707
-0.00096697493
-0.00099858944
-0.00096838838
-0.00087408588
-0.00071381046
-0.00048622378
-0.00019081772
0.0001716655
0.00059874722
0.0010857199
0.0016252095
0.0022068671
0.0028172602
0.0034399397
0.0040559435
0.0046444859
0.005184006
0.0056534831
0.0060339386
0.0063100035
0.0064713817
0.0065140279
0.0064408824
0.0062620742
0.0059945602
0.0056612066
0.0052893392
0.0049088868
0.0045504937
0.0042440235
0.0040160232
0.0038804519
0.0013444714
0.00088411401
0.00052132486
0.00021104885
-6.6742152e-05
-0.00030282636
-0.00049157108
-0.00063073172
-0.00071864761
-0.0007537527
-0.00073438526
-0.00065864405
-0.00052444582
-0.00032977985
-7.3112765e-05
0.00024610251
0.0006268623
0.001066045
0.0015578964
0.0020936321
0.002661227
0.0032454483
0.003828216
0.004389287
0.0049072819
0.0053610056
0.0057309793
0.0060010655
0.0061600194
0.0062027674
0.0061312071
0.0059543935
0.0056880774
0.0053536529
0.0049765703
0.0045844196
0.0042054993
0.0038669912
0.0035844085
0.0033605676
0.001771412
0.0011773148
0.00074317116
0.00039719914
0.00010054429
-0.00014376595
-0.00033548176
-0.00047707855
-0.00057023977
-0.00061553954
-0.00061248948
-0.00055956461
-0.00045440919
-0.00029422379
-7.628741e-05
0.00020142453
0.00053956901
0.00093676145
0.0013889537
0.0018889259
0.0024259611
0.0029857854
0.0035508177
0.0041008156
0.0046138929
0.0050678823
0.0054419489
0.0057183191
0.0058839584
0.0059319994
0.0058626987
0.0056837244
0.0054096871
0.0050609624
0.0046619095
0.0042388717
0.0038193018
0.0034298313
0.0030774823
0.0027497966
0.0021292085
0.0014029939
0.00089406463
0.00050593706
0.00018255697
-7.8439864e-05
-0.00028164428
-0.00043386593
-0.00053987793
-0.00060222191
-0.00062144933
-0.00059628669
-0.00052397085
-0.00040075991
-0.00022257192
1.4282117e-05
0.00031230682
0.00067202071
0.0010912018
0.0015642459
0.0020817101
0.0026301384
0.0031921906
0.0037472261
0.0042722932
0.0047435401
0.0051379463
0.0054352177
0.0056196508
0.0056817572
0.0056194282
0.0054384263
0.0051520509
0.0047799465
0.0043461222
0.0038767753
0.0033999393
0.0029434751
0.0025075435
0.002065454
0.0023792862
0.0015263938
0.00094310847
0.00051006114
0.00015534881
-0.0001282224
-0.00034961113
-0.00051953906
-0.00064552723
-0.0007318077
-0.00077973826
-0.00078809002
-0.00075349775
-0.00067108425
-0.00053520972
-0.000340317
-8.1843646e-05
0.00024284146
0.00063353498
0.0010863997
0.0015933517
0.0021417534
0.0027143937
0.0032899932
0.0038441307
0.0043506745
0.004783629
0.0051192409
0.005338136
0.0054272332
0.005381188
0.0052031545
0.0049046994
0.004504753
0.0040275336
0.0035001487
0.0029526329
0.0024157567
0.0018847362
0.00132148
0.0024878346
0.0015158191
0.00086099805
0.00038268758
-5.7598114e-06
-0.00031599894
-0.0005609704
-0.0007549026
-0.0009077016
-0.0010249725
-0.0011086006
-0.0011571534
-0.001166434
-0.0011302076
-0.0010410509
-0.00089130366
-0.00067409463
-0.00038441038
-2.0151708e-05
0.0004168901
0.00092023124
0.0014782295
0.0020738575
0.0026851148
0.0032858486
0.0038471673
0.004339368
0.0047342525
0.0050076054
0.0051415264
0.0051262979
0.0049615281
0.0046563991
0.0042288781
0.0037036895
0.0031097514
0.0024805038
0.0018513179
0.001213877
0.00051945117
0.0024243799
0.0013421884
0.00062016647
9.7768506e-05
-0.00032542557
-0.0006652894
-0.00093843816
-0.0011622416
-0.0013486444
-0.0015043098
-0.0016313669
-0.0017279234
-0.0017887131
-0.0018059074
-0.0017700521
-0.0016711103
-0.0014995963
-0.0012477682
-0.00091083678
-0.00048812998
1.5886007e-05
0.00059098219
0.0012205591
0.0018820126
0.0025473527
0.0031845573
0.0037595421
0.0042386583
0.0045915301
0.0047939165
0.0048301971
0.0046951065
0.0043944713
0.0039447771
0.0033712855
0.0027053975
0.0019852805
0.0012526368
0.00049673582
-0.00034155689
0.0021611445
0.0009788679
0.00019501492
-0.00036934843
-0.0008274659
-0.001199259
-0.0015047671
-0.0017641818
-0.0019911777
-0.0021931915
-0.0023723358
-0.002526021
-0.002647686
-0.0027276791
-0.0027542582
-0.0027147071
-0.0025965601
-0.0023889132
-0.002083782
-0.001677462
-0.0011717964
-0.00057490862
9.7497079e-05
0.00082260616
0.001570711
0.0023064387
0.0029907163
0.0035834204
0.0040465723
0.0043477928
0.0044635843
0.0043819356
0.0041038309
0.0036433608
0.0030260603
0.0022862498
0.0014680225
0.00062116766
-0.00026660538
-0.0012651579
0.0016729303
0.00040174059
-0.00043780853
-0.0010414381
-0.0015342044
-0.0019399308
-0.0022818659
-0.0025827455
-0.0028577134
-0.0031147437
-0.003355719
-0.0035771541
-0.0037709998
-0.0039255739
-0.0040265993
-0.004058364
-0.0040050125
-0.0038519593
-0.0035873935
-0.0032038099
-0.002699496
-0.002080053
-0.0013590055
-0.0005587718
0.00028963544
0.0011475277
0.0019703783
0.0027105753
0.0033209717
0.0037589836
0.0039908105
0.0039951902
0.003766064
0.0033135798
0.0026628373
0.0018512396
0.00092989199
-4.1531852e-05
-0.0010762697
-0.0022557554
0.00093733549
-0.00041052971
-0.0012990359
-0.0019388867
-0.0024658188
-0.0029074067
-0.0032899097
-0.0036383655
-0.003969178
-0.0042906844
-0.0046043866
-0.0049057666
-0.0051851456
-0.0054286429
-0.0056192256
-0.0057378786
-0.0057649272
-0.0056815242
-0.0054712863
-0.0051220215
-0.0046274917
-0.0039893273
-0.0032180183
-0.0023344357
-0.0013700326
-0.00036638352
0.00062636469
0.0015522288
0.002353257
0.00297432
0.0033684113
0.0035018217
0.0033583831
0.0029418641
0.0022755021
0.0013995186
0.00037298776
-0.00073263546
-0.0019310905
-0.0033166644
-6.4818316e-05
-0.0014761003
-0.0024063316
-0.0030791456
-0.0036396743
-0.0041190681
-0.0045464066
-0.0049488184
-0.0053438125
-0.0057399828
-0.0061383766
-0.0065333837
-0.0069136268
-0.0072629212
-0.0075613039
-0.0077861799
-0.0079136351
-0.0079199574
-0.0077833725
-0.0074859692
-0.007015764
-0.0063688806
-0.0055513744
-0.0045810476
-0.0034884628
-0.0023171375
-0.0011225211
3.0492469e-05
0.0010716098
0.0019306168
0.0025439019
0.0028613418
0.0028525872
0.0025114606
0.0018568725
0.00093088266
-0.00019876636
-0.0014468111
-0.002827105
-0.004448387
-0.0013489491
-0.002809486
-0.0037738145
-0.0044761838
-0.0050696677
-0.0055887862
-0.0060652539
-0.0065281135
-0.0069958828
-0.0074773808
-0.0079732111
-0.0084767023
-0.0089748015
-0.0094489999
-0.0098763046
-0.010230322
-0.010482519
-0.010603736
-0.010565972
-0.010344476
-0.0099200984
-0.0092818487
-0.0084294169
-0.0073756006
-0.0061482076
-0.0047911321
-0.0033641514
-0.0019410145
-0.00060551042
0.00055455104
0.0014551512
0.0020249639
0.0022142182
0.0020018371
0.0013985507
0.00044618556
-0.00077867494
-0.0021748664
-0.0037559285
-0.0056468236
-0.0029261509
-0.0044211001
-0.0054116086
-0.0061399817
-0.0067656216
-0.0073261769
-0.0078558231
-0.0083853823
-0.008934353
-0.0095118321