/*--------------------------------*- C++ -*----------------------------------*\
  =========                 |
  \\      /  F ield         | OpenFOAM: The Open Source CFD Toolbox
   \\    /   O peration     | Website:  https://openfoam.org
    \\  /    A nd           | Version:  7
     \\/     M anipulation  |
\*---------------------------------------------------------------------------*/
FoamFile
{
    version     2.0;
    format      ascii;
    class       surfaceScalarField;
    location    "40";
    object      phi;
}
// * * * * * * * * * * * * * * * * * * * * * * * * * * * * * * * * * * * * * //

dimensions      [0 3 -1 0 0 0 0];

internalField   nonuniform List<scalar> 
45600
(
2.7513117e-07
-2.8227804e-07
-8.0241566e-11
4.0331578e-07
-1.2815931e-07
-2.5248966e-11
1.3255177e-07
2.7077145e-07
-6.9077521e-12
-5.6231214e-07
6.9486701e-07
-1.645187e-12
-1.6393112e-06
1.0769972e-06
3.4833259e-12
-3.0276208e-06
1.3883029e-06
6.9568288e-12
-4.652464e-06
1.624833e-06
9.2316764e-12
-6.4450973e-06
1.7926224e-06
1.0851183e-11
-8.3454239e-06
1.9003164e-06
1.2019545e-11
-1.0301443e-05
1.9560078e-06
1.2799472e-11
-1.2267402e-05
1.9659459e-06
1.3228562e-11
-1.4201582e-05
1.9341648e-06
1.3346569e-11
-1.606424e-05
1.862643e-06
1.3185744e-11
-1.781603e-05
1.7517756e-06
1.2759132e-11
-1.9417058e-05
1.6010164e-06
1.2059251e-11
-2.0826662e-05
1.4095949e-06
1.1058245e-11
-2.200391e-05
1.1772389e-06
9.7153708e-12
-2.2908772e-05
9.0485021e-07
8.0059254e-12
-2.3503872e-05
5.9508847e-07
5.9725284e-12
-2.3756707e-05
2.5282845e-07
3.6975717e-12
-2.3642147e-05
-1.1455746e-07
1.2656706e-12
-2.3145013e-05
-4.9712326e-07
-1.3020515e-12
-2.2262575e-05
-8.8242878e-07
-4.0240019e-12
-2.1006616e-05
-1.2559582e-06
-6.8496402e-12
-1.9404866e-05
-1.6017555e-06
-9.5804034e-12
-1.7501566e-05
-1.9032967e-06
-1.1895958e-11
-1.5356982e-05
-2.1445583e-06
-1.3563157e-11
-1.3045757e-05
-2.3111834e-06
-1.4605035e-11
-1.0654085e-05
-2.3916427e-06
-1.5234905e-11
-8.2757964e-06
-2.3782948e-06
-1.5523965e-11
-6.0075666e-06
-2.2682582e-06
-1.513915e-11
-3.9435562e-06
-2.0640132e-06
-1.3558858e-11
-2.1698083e-06
-1.773695e-06
-1.069495e-11
-7.5852699e-07
-1.4112101e-06
-7.2260027e-12
2.3825497e-07
-9.9677304e-07
-4.1811822e-12
7.9657305e-07
-5.583932e-07
-2.1494166e-12
9.2923423e-07
-1.3274513e-07
5.3800481e-13
7.0550055e-07
2.2377151e-07
5.2658961e-12
2.904159e-07
4.1523191e-07
1.1003752e-11
2.9052077e-07
5.3015384e-12
1.3287078e-07
-4.1512556e-07
-2.2648905e-11
-3.0169876e-07
3.0642617e-07
-1.4342067e-11
-1.6154113e-06
1.5844969e-06
-1.2526962e-11
-3.8747149e-06
2.954184e-06
-1.3281419e-11
-7.0073464e-06
4.2096453e-06
-1.44198e-11
-1.0879753e-05
5.2607286e-06
-1.5936174e-11
-1.5335165e-05
6.0802631e-06
-1.7371753e-11
-2.0216003e-05
6.6734766e-06
-1.8418717e-11
-2.5374062e-05
7.0583915e-06
-1.8991575e-11
-3.0673275e-05
7.2552387e-06
-1.9096537e-11
-3.5988542e-05
7.2812323e-06
-1.8779337e-11
-4.1202829e-05
7.1484708e-06
-1.8085419e-11
-4.6203973e-05
6.8638018e-06
-1.7037338e-11
-5.0882103e-05
6.4299157e-06
-1.5634266e-11
-5.5128237e-05
5.8471582e-06
-1.3855812e-11
-5.8834326e-05
5.1156918e-06
-1.1678993e-11
-6.189481e-05
4.2377339e-06
-9.1152362e-12
-6.4209613e-05
3.2196656e-06
-6.2532037e-12
-6.568836e-05
2.0738406e-06
-3.1728942e-12
-6.625547e-05
8.1993131e-07
6.67482e-14
-6.5855989e-05
-5.140552e-07
3.4794239e-12
-6.4460818e-05
-1.8923075e-06
7.1147004e-12
-6.2072484e-05
-3.2707618e-06
1.0803157e-11
-5.8729086e-05
-4.5993475e-06
1.4263349e-11
-5.4507066e-05
-5.8237827e-06
1.7188758e-11
-4.9521898e-05
-6.8885032e-06
1.9475509e-11
-4.3926404e-05
-7.7401109e-06
2.128543e-11
-3.7906468e-05
-8.3311569e-06
2.2804723e-11
-3.1674151e-05
-8.6239468e-06
2.3869767e-11
-2.5458383e-05
-8.5940276e-06
2.3918168e-11
-1.949358e-05
-8.23307e-06
2.2507437e-11
-1.400671e-05
-7.5509713e-06
1.995728e-11
-9.2033207e-06
-6.5771887e-06
1.725895e-11
-5.2529446e-06
-5.3615955e-06
1.5061737e-11
-2.2739794e-06
-3.9756314e-06
1.2794998e-11
-3.172124e-07
-2.515067e-06
9.1874849e-12
6.5711095e-07
-1.107149e-06
3.79481e-12
8.0364399e-07
7.6995149e-08
8.5908313e-13
4.1774032e-07
8.009295e-07
2.7013813e-12
7.0835445e-07
-1.8680361e-12
-2.7359147e-07
-1.4152073e-07
-1.260726e-11
-1.6274905e-06
1.6603347e-06
-7.374121e-12
-4.2894102e-06
4.2464265e-06
-8.6994494e-12
-8.2746825e-06
6.9394627e-06
-7.3016657e-12
-1.3474422e-05
9.4093894e-06
-5.3211895e-12
-1.9708724e-05
1.1495037e-05
-4.2119654e-12
-2.6765751e-05
1.3137297e-05
-3.4934446e-12
-3.4426616e-05
1.4334346e-05
-2.9262253e-12
-4.2478631e-05
1.5110407e-05
-2.4630837e-12
-5.0720451e-05
1.5497058e-05
-2.0372229e-12
-5.8962296e-05
1.5523078e-05
-1.6054512e-12
-6.7023692e-05
1.5209868e-05
-1.1644419e-12
-7.4730533e-05
1.4570646e-05
-7.2900959e-13
-8.191272e-05
1.3612104e-05
-3.1812042e-13
-8.8403149e-05
1.2337585e-05
6.0699063e-14
-9.403848e-05
1.0751016e-05
4.3326095e-13
-9.8661803e-05
8.8610503e-06
8.4725373e-13
-0.0001021271
6.6849659e-06
1.2988208e-12
-0.00010430523
4.2519761e-06
1.718996e-12
-0.000105091
1.6057104e-06
2.0046189e-12
-0.00010441064
-1.1944244e-06
2.1354227e-12
-0.00010222946
-4.073505e-06
2.2097301e-12
-9.855853e-05
-6.9417079e-06
2.3761303e-12
-9.3460013e-05
-9.6978584e-06
2.6787083e-12
-8.7050393e-05
-1.2233376e-05
2.9355965e-12
-7.9500985e-05
-1.4437889e-05
2.8755465e-12
-7.103527e-05
-1.6205842e-05
2.4570824e-12
-6.1922732e-05
-1.7443747e-05
2.0446116e-12
-5.2469173e-05
-1.8077544e-05
2.1265736e-12
-4.3003698e-05
-1.8059474e-05
2.7298946e-12
-3.3862808e-05
-1.7373881e-05
3.2049881e-12
-2.5372189e-05
-1.6041552e-05
2.865724e-12
-1.7826868e-05
-1.4122582e-05
1.9513741e-12
-1.1470445e-05
-1.1718143e-05
1.6626747e-12
-6.4739259e-06
-8.9721752e-06
2.796256e-12
-2.9140537e-06
-6.074793e-06
4.3937767e-12
-7.5116262e-07
-3.2698548e-06
4.4424133e-12
1.9440318e-07
-8.6856096e-07
3.4015601e-12
2.6544696e-07
7.2972601e-07
4.0409138e-12
9.7380449e-07
5.2959811e-13
-7.4585125e-07
6.0434339e-07
-1.2859231e-11
-3.179644e-06
4.0941303e-06
-1.4080886e-12
-7.3461143e-06
8.4129066e-06
-6.8496742e-12
-1.3163068e-05
1.2756424e-05
-6.2262915e-12
-2.0455833e-05
1.6702156e-05
-3.6332352e-12
-2.8992651e-05
2.0031856e-05
-2.2934474e-12
-3.8513893e-05
2.2658542e-05
-1.3783142e-12
-4.8752691e-05
2.4573147e-05
-5.6486973e-13
-5.9446995e-05
2.5804713e-05
7.8589804e-14
-7.0344847e-05
2.6394908e-05
5.8026155e-13
-8.1205142e-05
2.6383369e-05
1.0025743e-12
-9.1795996e-05
2.5800718e-05
1.3811713e-12
-0.00010189243
2.4667075e-05
1.7277845e-12
-0.00011127464
2.2994323e-05
2.0276508e-12
-0.00011972779
2.0790736e-05
2.2391143e-12
-0.00012704362
1.8066839e-05
2.3305344e-12
-0.00013302417
1.4841593e-05
2.3317219e-12
-0.00013748743
1.1148216e-05
2.3102978e-12
-0.00014027453
7.0390729e-06
2.3029873e-12
-0.00014125806
2.5892547e-06
2.2516023e-12
-0.00014035078
-2.1016982e-06
2.0420648e-12
-0.00013751438
-6.9098974e-06
1.5798527e-12
-0.00013276703
-1.1689084e-05
9.8404658e-13
-0.00012618932
-1.6275588e-05
5.1151086e-13
-0.0001179279
-2.0494795e-05
3.1928128e-13
-0.00010819592
-2.4169841e-05
2.5168428e-13
-9.726986e-05
-2.7131857e-05
-6.2357588e-14
-8.5482394e-05
-2.9231214e-05
-7.7345698e-13
-7.3210953e-05
-3.0349043e-05
-1.4663512e-12
-6.0862301e-05
-3.0408185e-05
-1.4354288e-12
-4.8853485e-05
-2.9382675e-05
-4.9534603e-13
-3.7589894e-05
-2.7305042e-05
5.7829385e-13
-2.7441265e-05
-2.4271138e-05
7.8385256e-13
-1.871666e-05
-2.0442814e-05
2.1963071e-13
-1.1639493e-05
-1.6049506e-05
2.3843412e-13
-6.3236401e-06
-1.1390729e-05
1.8315152e-12
-2.751547e-06
-6.8418505e-06
4.0746862e-12
-7.5709914e-07
-2.8628756e-06
4.9169946e-12
-9.510926e-09
-1.7881692e-08
4.3059166e-12
9.6424845e-07
3.3164306e-12
-1.2279701e-06
1.8323278e-06
-1.4383031e-11
-4.7881187e-06
7.654273e-06
4.555148e-12
-1.0521554e-05
1.414635e-05
-5.9867855e-12
-1.8214345e-05
2.0449225e-05
-7.0818355e-12
-2.7603949e-05
2.6091765e-05
-4.7274565e-12
-3.8396309e-05
3.0824218e-05
-4.0341292e-12
-5.0283066e-05
3.4545301e-05
-3.6935505e-12
-6.2954793e-05
3.7244878e-05
-3.2011597e-12
-7.6109045e-05
3.8958972e-05
-2.7202148e-12
-8.9453779e-05
3.9739648e-05
-2.2985459e-12
-0.00010270748
3.9637069e-05
-1.9085379e-12
-0.00011559754
3.8690776e-05
-1.5244848e-12
-0.00012785835
3.6927887e-05
-1.1179197e-12
-0.0001392302
3.4366178e-05
-6.6364846e-13
-0.00014945975
3.1020289e-05
-1.7659268e-13
-0.00015830248
2.690957e-05
2.7782338e-13
-0.00016552724
2.2066357e-05
6.4410677e-13
-0.00017092275
1.6543718e-05
9.4092293e-13
-0.0001743056
1.0421912e-05
1.2632069e-12
-0.00017552936
3.8130147e-06
1.686855e-12
-0.00017449413
-3.1369169e-06
2.1590751e-12
-0.00017115588
-1.0248129e-05
2.4876876e-12
-0.00016553479
-1.7310165e-05
2.5196107e-12
-0.0001577219
-2.4088504e-05
2.3337782e-12
-0.00014788321
-3.0333523e-05
2.2451943e-12
-0.00013626062
-3.5792444e-05
2.510916e-12
-0.00012316897
-4.0223469e-05
2.9783543e-12
-0.0001089887
-4.3411426e-05
3.1226287e-12
-9.4153774e-05
-4.5183961e-05
2.6083446e-12
-7.9134851e-05
-4.5427178e-05
1.8448102e-12
-6.4418101e-05
-4.4099513e-05
1.7488562e-12
-5.0480411e-05
-4.124273e-05
2.6861261e-12
-3.7762136e-05
-3.6989296e-05
3.7829793e-12
-2.6638769e-05
-3.1566069e-05
3.7715584e-12
-1.7393136e-05
-2.5295172e-05
2.6395318e-12
-1.0189951e-05
-1.8594058e-05
2.0781803e-12
-5.0547898e-06
-1.1977078e-05
3.4845041e-12
-1.8598233e-06
-6.0577624e-06
4.2211108e-12
-3.2220904e-07
-1.5554532e-06
9.2429481e-13
6.4201349e-07
5.8708985e-12
-1.6931697e-06
3.5255156e-06
-1.6868477e-11
-6.3714167e-06
1.2332507e-05
9.9561963e-12
-1.3671463e-05
2.1446399e-05
-5.0573723e-12
-2.323407e-05
3.0011841e-05
-7.200441e-12
-3.4695252e-05
3.7552955e-05
-4.4721932e-12
-4.768983e-05
4.38188e-05
-3.9340843e-12
-6.1857531e-05
4.8713005e-05
-3.8492141e-12
-7.6848074e-05
5.2235424e-05
-3.4960244e-12
-9.2323876e-05
5.4434777e-05
-3.0763178e-12
-0.00010796028
5.5376054e-05
-2.6661538e-12
-0.00012344397
5.5120769e-05
-2.263164e-12
-0.0001384707
5.3717506e-05
-1.8751435e-12
-0.00015274323
5.1200419e-05
-1.4990823e-12
-0.00016597054
4.759349e-05
-1.0979513e-12
-0.00017786875
4.291849e-05
-6.2550272e-13
-0.00018816406
3.7204887e-05
-9.0917075e-14
-0.00019659789
3.0500204e-05
4.2447667e-13
-0.00020293383
2.2879667e-05
8.300645e-13
-0.00020696614
1.445421e-05
1.1262759e-12
-0.0002085293
5.3761583e-06
1.429628e-12
-0.00020750813
-4.1580988e-06
1.8659179e-12
-0.00020384769
-1.3908561e-05
2.4148948e-12
-0.00019756246
-2.359536e-05
2.848266e-12
-0.00018874395
-3.2906998e-05
2.9206442e-12
-0.00017756588
-4.1511617e-05
2.6620798e-12
-0.00016428627
-4.9072105e-05
2.4590996e-12
-0.00014924554
-5.526423e-05
2.7132871e-12
-0.00013285992
-5.9797011e-05
3.3306274e-12
-0.00011560966
-6.2434146e-05
3.6600557e-12
-9.8021723e-05
-6.3015081e-05
3.1720994e-12
-8.0647213e-05
-6.1474094e-05
2.246588e-12
-6.4034215e-05
-5.7855844e-05
1.9888727e-12
-4.8697497e-05
-5.2326042e-05
2.9272318e-12
-3.5086901e-05
-4.517656e-05
4.0857566e-12
-2.3556623e-05
-3.682534e-05
3.9989711e-12
-1.4337841e-05
-2.7812867e-05
3.0672117e-12
-7.517518e-06
-1.8797508e-05
3.6004528e-12
-3.0267452e-06
-1.0548549e-05
3.4952555e-12
-6.424848e-07
-3.939668e-06
-1.6500222e-12
-4.7414093e-10
8.5716056e-12
-2.1329382e-06
5.6584752e-06
-1.962344e-11
-7.8910806e-06
1.8090634e-05
1.4773556e-11
-1.6717414e-05
3.0272734e-05
-4.3230828e-12
-2.8105752e-05
4.1400185e-05
-7.2887044e-12
-4.15851e-05
5.1032309e-05
-4.0435981e-12
-5.6714146e-05
5.8947853e-05
-3.5070332e-12
-7.3078289e-05
6.5077153e-05
-3.5400064e-12
-9.0287099e-05
6.9444236e-05
-3.2628797e-12
-0.00010797133
7.2119014e-05
-2.9070761e-12
-0.00012577928
7.3184001e-05
-2.5388805e-12
-0.00014337275
7.2714245e-05
-2.1398882e-12
-0.00016042342
7.0768186e-05
-1.7270892e-12
-0.00017661019
6.7387194e-05
-1.3379073e-12
-0.00019161814
6.260144e-05
-9.84206e-13
-0.00020513951
5.6439862e-05
-6.1931083e-13
-0.00021687684
4.8942211e-05
-1.7514002e-13
-0.00022654815
4.0171514e-05
3.5674976e-13
-0.00023389407
3.0225596e-05
8.823058e-13
-0.00023868649
1.924665e-05
1.2711552e-12
-0.00024073841
7.4280725e-06
1.4890055e-12
-0.00023991436
-4.9821669e-06
1.6645253e-12
-0.00023614103
-1.7681916e-05
1.9993894e-12
-0.00022941748
-3.0318905e-05
2.5212823e-12
-0.00021982415
-4.250029e-05
2.9813585e-12
-0.0002075299
-5.380584e-05
3.0327245e-12
-0.00019279608
-6.3805942e-05
2.6283044e-12
-0.0001759767
-7.2083665e-05
2.2129701e-12
-0.00015751367
-7.8260098e-05
2.3546411e-12
-0.00013792615
-8.2021637e-05
3.0568679e-12
-0.00011779371
-8.3147428e-05
3.568302e-12
-9.7732912e-05
-8.1534836e-05
3.1717584e-12
-7.8368107e-05
-7.7220706e-05
2.207696e-12
-6.0297899e-05
-7.0396369e-05
1.9111145e-12
-4.4059568e-05
-6.1414928e-05
2.8137342e-12
-3.0094422e-05
-5.0790399e-05
3.754784e-12
-1.871722e-05
-3.918999e-05
3.8542459e-12
-1.0093041e-05
-2.7421725e-05
4.5747226e-12
-4.2253282e-06
-1.6416319e-05
3.27804e-12
-9.5849375e-07
-7.2064963e-06
-4.7454815e-12
-9.589593e-07
1.0537232e-11
-2.5450562e-06
8.2035538e-06
-2.2413102e-11
-9.3288493e-06
2.487441e-05
1.9080073e-11
-1.9615368e-05
4.0559256e-05
-3.8111952e-12
-3.2756857e-05
5.4541678e-05
-7.5565045e-12
-4.8175897e-05
6.645135e-05
-3.8715369e-12
-6.5354101e-05
7.6126062e-05
-3.3671725e-12
-8.3822149e-05
8.3545208e-05
-3.5050933e-12
-0.00010315063
8.8772725e-05
-3.2782709e-12
-0.00012294163
9.1910015e-05
-2.9830527e-12
-0.00014282096
9.3063337e-05
-2.6902322e-12
-0.00016243135
9.2324635e-05
-2.3512313e-12
-0.00018142688
8.9763724e-05
-1.9500031e-12
-0.00019946925
8.5429569e-05
-1.5155849e-12
-0.00021622604
7.9358241e-05
-1.1064982e-12
-0.0002313713
7.1585122e-05
-7.5266688e-13
-0.00024458832
6.2159227e-05
-4.0566006e-13
-0.0002555746
5.1157784e-05
2.9363765e-14
-0.00026404868
3.869968e-05
5.8863452e-13
-0.00026975868
2.4956661e-05
1.1746287e-12
-0.00027249209
1.0161502e-05
1.6096125e-12
-0.00027208667
-5.3875848e-06
1.8031362e-12
-0.00026844172
-2.1326891e-05
1.8996034e-12
-0.00026152976
-3.7230898e-05
2.1534639e-12
-0.00025140741
-5.2622648e-05
2.681275e-12
-0.00023822498
-6.6988229e-05
3.2312414e-12
-0.00022223362
-7.979726e-05
3.3473133e-12
-0.00020378861
-9.0528674e-05
2.87578e-12
-0.00018334762
-9.8701153e-05
2.2899327e-12
-0.00016146244
-0.00010390689
2.3126862e-12
-0.0001387633
-0.00010584656
3.0541447e-12
-0.00011593534
-0.00010436271
3.6961248e-12
-9.3687505e-05
-9.9468467e-05
3.4028232e-12
-7.2715416e-05
-9.1368502e-05
2.5194162e-12
-5.3660777e-05
-8.0469672e-05
2.2425812e-12
-3.7071118e-05
-6.7380083e-05
2.8448027e-12
-2.3363935e-05
-5.2897102e-05
3.7856076e-12
-1.2799291e-05
-3.7986332e-05
5.5696462e-12
-5.4648759e-06
-2.3750762e-05
3.5148011e-12
-1.2772646e-06
-1.1394126e-05
-7.8087459e-12
-2.2362321e-06
1.2820753e-11
-2.9284839e-06
1.1132061e-05
-2.5148226e-11
-1.0673675e-05
3.2619578e-05
2.291033e-11
-2.2336178e-05
5.2221764e-05
-3.4667637e-12
-3.713598e-05
6.9341487e-05
-7.8861241e-12
-5.4394116e-05
8.3709488e-05
-3.7918567e-12
-7.3517635e-05
9.5249582e-05
-3.3424582e-12
-9.3984306e-05
0.00010401188
-3.5929254e-12
-0.00011532796
0.00011011639
-3.3929246e-12
-0.00013712518
0.00011370724
-3.1131775e-12
-0.00015898353
0.0001149217
-2.8613803e-12
-0.00018053178
0.00011387288
-2.5923085e-12
-0.00020141215
0.00011064409
-2.2640429e-12
-0.00022127503
0.00010529246
-1.8513983e-12
-0.00023977618
9.7859399e-05
-1.3813236e-12
-0.00025657637
8.8385325e-05
-9.3316395e-13
-0.00027134346
7.6926315e-05
-5.6271001e-13
-0.00028375659
6.3570905e-05
-2.2655451e-13
-0.00029351244
4.8455518e-05
1.9835307e-13
-0.00030033323
3.1777449e-05
7.8835128e-13
-0.00030397636
1.3804649e-05
1.4499922e-12
-0.00030424556
-5.118358e-06
1.9520598e-12
-0.00030100296
-2.4569489e-05
2.1666656e-12
-0.00029418251
-4.4051372e-05
2.1820987e-12
-0.00028380326
-6.3001939e-05
2.3355582e-12
-0.00026998223
-8.0809278e-05
2.8453815e-12
-0.0002529455
-9.6833957e-05
3.4811451e-12
-0.00023303598
-0.00011043814
3.691249e-12
-0.00021071597
-0.00012102114
3.205704e-12
-0.00018656267
-0.00012806026
2.4976521e-12
-0.00016125486
-0.00013115445
2.4039198e-12
-0.00013555001
-0.00013006757
3.1099295e-12
-0.00011025147
-0.00012476692
3.773107e-12
-8.6167348e-05
-0.00011545256
3.56146e-12
-6.4063722e-05
-0.00010257334
2.7912567e-12
-4.4616697e-05
-8.6827189e-05
2.3843352e-12
-2.836855e-05
-6.9145258e-05
3.1953242e-12
-1.5693145e-05
-5.0661695e-05
6.0382204e-12
-6.775209e-06
-3.2668681e-05
3.818268e-12
-1.6070328e-06
-1.6562303e-05
-1.0653453e-11
-3.8432883e-06
1.5337243e-11
-3.2817007e-06
1.4413787e-05
-2.7742109e-11
-1.1915874e-05
4.1253722e-05
2.6304539e-11
-2.4855515e-05
6.516141e-05
-3.2805026e-12
-4.1199922e-05
8.5685904e-05
-8.2640607e-12
-6.0176313e-05
0.00010268588
-3.7354237e-12
-8.1122254e-05
0.00011619552
-3.3322015e-12
-0.00010346631
0.00012635594
-3.7133858e-12
-0.00012670889
0.00013335897
-3.561418e-12
-0.00015040465
0.00013740301
-3.2869783e-12
-0.00017414714
0.00013866419
-3.0296357e-12
-0.00019755594
0.00013728169
-2.7762265e-12
-0.00022026668
0.00013335484
-2.5125446e-12
-0.00024192389
0.00012694966
-2.1920482e-12
-0.00026217668
0.00011811219
-1.7648144e-12
-0.00028067717
0.00010688582
-1.2509371e-12
-0.0002970813
9.3330456e-05
-7.4992018e-13
-0.00031105195
7.7541563e-05
-3.5065213e-13
-0.00032226414
5.96677e-05
-2.3440791e-14
-0.00033041221
3.9925497e-05
3.8056661e-13
-0.00033521898
1.8611414e-05
9.7590564e-13
-0.00033644713
-3.8901933e-06
1.6800565e-12
-0.00033391172
-2.7104871e-05
2.3100247e-12
-0.00032749595
-5.0467132e-05
2.5570989e-12
-0.00031716687
-7.3331043e-05
2.4994736e-12
-0.00030299231
-9.498389e-05
2.5328922e-12
-0.00028515685
-0.00011466945
2.9796464e-12
-0.00026397519
-0.00013161977
3.6561651e-12
-0.0002399006
-0.00014509567
3.9443361e-12
-0.0002135258
-0.00015443503
3.4774351e-12
-0.00018557378
-0.00015910653
2.7153695e-12
-0.00015687661
-0.00015876481
2.5451972e-12
-0.00012834166
-0.00015330188
3.1724073e-12
-0.00010090606
-0.0001428881
3.7787497e-12
-7.5482445e-05
-0.0001279969
3.551603e-12
-5.2901142e-05
-0.00010940853
2.6814093e-12
-3.3855132e-05
-8.819132e-05
2.8742572e-12
-1.8854795e-05
-6.5662039e-05
6.202009e-12
-8.1982586e-06
-4.3325195e-05
3.8194226e-12
-1.9611568e-06
-2.2799382e-05
-1.3704107e-11
-5.8044699e-06
1.8114569e-11
-3.6023025e-06
1.801612e-05
-3.013727e-11
-1.3044874e-05
5.069626e-05
2.9311391e-11
-2.7149293e-05
7.9265829e-05
-3.2240517e-12
-4.4907173e-05
0.00010344379
-8.7212243e-12
-6.5461507e-05
0.00012324022
-3.7573709e-12
-8.8087234e-05
0.00013882126
-3.3501331e-12
-0.0001121688
0.00015043752
-3.8420443e-12
-0.00013717742
0.00015836759
-3.763724e-12
-0.00016264988
0.00016287547
-3.5330516e-12
-0.00018816993
0.00016418425
-3.2815703e-12
-0.00021335264
0.00016246441
-3.0021988e-12
-0.00023783202
0.00015783423
-2.7285906e-12
-0.0002612519
0.00015036954
-2.46713e-12
-0.00028325983
0.00014012011
-2.154327e-12
-0.00030350383
0.00012712982
-1.7131645e-12
-0.00032163166
0.0001114583
-1.1506528e-12
-0.00033729244
9.3202355e-05
-5.8260836e-13
-0.00035014037
7.2515642e-05
-1.3640399e-13
-0.00035984078
4.96259e-05
1.9046978e-13
-0.00036607842
2.4849035e-05
5.4730902e-13
-0.00036856897
-1.3996659e-06
1.0772017e-12
-0.00036707135
-2.8602489e-05
1.9374e-12
-0.00036140636
-5.6132089e-05
2.662401e-12
-0.00035147456
-8.3262819e-05
2.9614547e-12
-0.0003372778
-0.00010918066
2.8597694e-12
-0.00031894091
-0.0001330064
2.7774781e-12
-0.00029673177
-0.00015382895
3.1299439e-12
-0.00027107728
-0.00017075014
3.7882102e-12
-0.00024257161
-0.00018294064
4.1034605e-12
-0.00021197324
-0.00018970486
3.6601797e-12
-0.00018018759
-0.00019055052
2.9090214e-12
-0.00014823334
-0.0001852562
2.7244465e-12
-0.00011719278
-0.00017392866
3.2722091e-12
-8.8148942e-05
-0.00015704069
3.67505e-12
-6.2115363e-05
-0.00013544208
3.1146638e-12
-3.9966487e-05
-0.00011034022
3.0591913e-12
-2.237762e-05
-8.3250943e-05
6.5991869e-12
-9.7826946e-06
-5.5920124e-05
3.6543573e-12
-2.3546934e-06
-3.0227354e-05
-1.7248014e-11
-8.1591831e-06
2.1184345e-11
-3.8870499e-06
2.1903203e-05
-3.2316943e-11
-1.404866e-05
6.0857837e-05
3.1945603e-11
-2.9192055e-05
9.4409224e-05
-3.2322815e-12
-4.8215267e-05
0.00012246701
-9.2254157e-12
-7.0187844e-05
0.00014521281
-3.8861917e-12
-9.433006e-05
0.00016296348
-3.4421931e-12
-0.00011998821
0.00017609567
-3.9900506e-12
-0.00014660908
0.00018498846
-3.9632985e-12
-0.00017371588
0.00018998227
-3.7997188e-12
-0.00020088685
0.00019135522
-3.6072566e-12
-0.00022773708
0.00018931464
-3.3375207e-12
-0.0002539038
0.00018400096
-3.0196161e-12
-0.00027903519
0.00017550094
-2.7205847e-12
-0.00030278231
0.00016386724
-2.4565835e-12
-0.00032479396
0.00014914146
-2.1517601e-12
-0.00034471404
0.00013137837
-1.7003498e-12
-0.00036218126
0.00011066958
-1.0876136e-12
-0.00037683113
8.716553e-05
-4.4086657e-13
-0.0003883004
6.109519e-05
7.0303768e-14
-0.00039623426
3.2782887e-05
4.2275949e-13
-0.00040029637
2.6624265e-06
8.0968769e-13
-0.00040018388
-2.871501e-05
1.348119e-12
-0.00039564406
-6.0671914e-05
2.1811387e-12
-0.00038649735
-9.2409496e-05
2.9847574e-12
-0.0003726626
-0.00012301537
3.3560556e-12
-0.00035418495
-0.00015148406
3.2416266e-12
-0.0003312638
-0.00017675016
3.0696916e-12
-0.00030427786
-0.00019773613
3.3170123e-12
-0.00027380301
-0.00021341548
3.896933e-12
-0.00024061829
-0.00022288952
4.1686437e-12
-0.00020569516
-0.00022547361
3.7340836e-12
-0.00017016638
-0.00022078503
3.0580865e-12
-0.00013527319
-0.0002088219
2.9350581e-12
-0.00010229334
-0.00019002055
3.2757382e-12
-7.2455924e-05
-0.00016527945
3.0821042e-12
-4.685328e-05
-0.00013594285
3.3189755e-12
-2.636136e-05
-0.00010374288
7.3797145e-12
-1.1580446e-05
-7.0701059e-05
3.6199109e-12
-2.8033167e-06
-3.9004464e-05
-2.1324519e-11
-1.096252e-05
2.4608054e-11
-4.1321177e-06
2.6035355e-05
-3.4270358e-11
-1.4914097e-05
7.1639784e-05
3.4161842e-11
-3.0957131e-05
0.00011045226
-3.270123e-12
-5.1080656e-05
0.00014259054
-9.7099426e-12
-7.4292274e-05
0.00016842443
-4.0890636e-12
-9.9766125e-05
0.00018843734
-3.6293827e-12
-0.00012681669
0.00020314624
-4.2012312e-12
-0.0001548713
0.00021304308
-4.1763495e-12
-0.00018344393
0.00021855491
-4.0453998e-12
-0.00021211149
0.00022002279
-3.9268563e-12
-0.00024049344
0.00021769659
-3.734419e-12
-0.00026823493
0.00021174245
-3.4358786e-12
-0.00029499351
0.00020225953
-3.0776336e-12
-0.00032042904
0.00018930278
-2.745166e-12
-0.0003441964
0.00017290881
-2.4708998e-12
-0.00036594073
0.0001531227
-2.1727693e-12
-0.00038529505
0.00013002388
-1.7159714e-12
-0.00040188001
0.00010375049
-1.0580482e-12
-0.00041530644
7.4521627e-05
-3.2804182e-13
-0.00042518076
4.2657229e-05
2.8396794e-13
-0.00043111395
8.5956204e-06
7.2266036e-13
-0.00043273621
-2.7092773e-05
1.0038501e-12
-0.00042971416
-6.3693994e-05
1.5481578e-12
-0.00042177619
-0.00010034748
2.4116752e-12
-0.00040874172
-0.00013604981
3.2825053e-12
-0.00039055536
-0.00016967038
3.7170614e-12
-0.00036732348
-0.00019998204
3.6106561e-12
-0.0003393498
-0.00022570986
3.3811214e-12
-0.00030716539
-0.00024559994
3.5219375e-12
-0.00027154684
-0.00025850806
3.965762e-12
-0.00023351599
-0.00026350441
4.124615e-12
-0.00019431496
-0.00025998604
3.706039e-12
-0.0001553529
-0.00024778399
3.1924903e-12
-0.00011812528
-0.00022724822
3.0137681e-12
-8.4111836e-05
-0.0001992929
2.68267e-12
-5.4665474e-05
-0.00016538919
3.2702294e-12
-3.0907332e-05
-0.00012750102
8.3006743e-12
-1.3644695e-05
-8.7963708e-05
3.7802328e-12
-3.3229939e-06
-4.9326148e-05
-2.5916303e-11
-1.4285543e-05
2.8556318e-11
-4.333456e-06
3.0368845e-05
-3.5950804e-11
-1.5627795e-05
8.293409e-05
3.5900579e-11
-3.241791e-05
0.00012724238
-3.3575987e-12
-5.3460307e-05
0.00016363295
-1.0140746e-11
-7.771246e-05
0.00019267658
-4.3057727e-12
-0.000104311
0.00021503588
-3.8744845e-12
-0.00013254491
0.00023138016
-4.490779e-12
-0.00016182693
0.00024232511
-4.4540394e-12
-0.00019166587
0.00024839386
-4.3050064e-12
-0.00022164124
0.00024999816
-4.2070199e-12
-0.00025138096
0.00024743631
-4.093486e-12
-0.00028054264
0.00024090413
-3.8943459e-12
-0.00030879822
0.00023051511
-3.5718572e-12
-0.00033582178
0.00021632635
-3.169822e-12
-0.00036128017
0.00019836722
-2.7935939e-12
-0.00038482595
0.00017666848
-2.4973029e-12
-0.00040609255
0.00015129047
-2.1998019e-12
-0.00042469179
0.00012234971
-1.7413726e-12
-0.00044021385
9.004369e-05
-1.0451222e-12
-0.00045223065
5.4674039e-05
-2.2221629e-13
-0.00046030302
1.6668018e-05
4.9724435e-13
-0.00046399355
-2.3402231e-05
9.3115243e-13
-0.00046288447
-6.4803098e-05
1.2699084e-12
-0.00045660341
-0.00010662858
1.8121794e-12
-0.0004448561
-0.00014779715
2.673725e-12
-0.00042746613
-0.00018706032
3.5696605e-12
-0.0004044202
-0.00022302792
4.0359338e-12
-0.00037591559
-0.00025421447
3.9394215e-12
-0.00034240457
-0.00027911099
3.6726122e-12
-0.00030462864
-0.00029628404
3.6966525e-12
-0.00026363339
-0.00030449966
3.9481906e-12
-0.00022075512
-0.00030286427
3.9716429e-12
-0.00017757161
-0.00029096747
3.6420141e-12
-0.000135815
-0.00026900485
3.1556647e-12
-9.7251937e-05
-0.00023785599
2.3616275e-12
-6.3544842e-05
-0.00019909629
2.993377e-12
-3.6114686e-05
-0.00015493117
9.1607772e-12
-1.6028553e-05
-0.00010804984
3.97395e-12
-3.9298348e-06
-6.142484e-05
-3.114875e-11
-1.8215414e-05
3.321387e-11
-4.4872247e-06
3.4856105e-05
-3.7285947e-11
-1.6177326e-05
9.4624153e-05
3.714559e-11
-3.3549901e-05
0.00014461496
-3.5234676e-12
-5.5314555e-05
0.00018539762
-1.0537425e-11
-8.0390367e-05
0.0002177524
-4.5145241e-12
-0.0001078848
0.00024253032
-4.1205012e-12
-0.00013706725
0.00026056261
-4.8125425e-12
-0.00016734027
0.00027259813
-4.8023668e-12
-0.00019821119
0.00027926479
-4.6372806e-12
-0.00022926561
0.00028105258
-4.5055319e-12
-0.00026014367
0.00027831438
-4.3942066e-12
-0.00029051966
0.00027128012
-4.2758621e-12
-0.00032008483
0.00026008026
-4.0758167e-12
-0.00034853318
0.0002447747
-3.7311971e-12
-0.00037554994
0.00022538398
-3.2814031e-12
-0.00040080218
0.00020192074
-2.8499413e-12
-0.00042393159
0.00017441989
-2.5153805e-12
-0.0004445493
0.00014296741
-2.2057922e-12
-0.00046223322
0.00010772759
-1.7415366e-12
-0.00047652863
6.8969442e-05
-1.0081407e-12
-0.00048695288
2.709228e-05
-1.0439697e-13
-0.00049300563
-1.7349453e-05
6.9617635e-13
-0.00049418562
-6.3623094e-05
1.2299913e-12
-0.00049001581
-0.00011079841
1.6127475e-12
-0.00048007775
-0.00015773525
2.1522204e-12
-0.00046405568
-0.00020308242
2.9902244e-12
-0.00044178976
-0.00024529383
3.8596192e-12
-0.00041333573
-0.00028266845
4.3083115e-12
-0.00037902594
-0.00031342078
4.2030143e-12
-0.00033952333
-0.00033578668
3.8929621e-12
-0.00029585753
-0.0003481655
3.7691622e-12
-0.0002494298
-0.000349292
3.8146801e-12
-0.00020197496
-0.00033842229
3.7792235e-12
-0.00015547282
-0.00031550697
3.3814515e-12
-0.00011201158
-0.00028131724
2.2578359e-12
-7.3617497e-05
-0.0002374904
2.7662813e-12
-4.2077004e-05
-0.00018647168
1.0053534e-11
-1.8784e-05
-0.00013134284
4.097034e-12
-4.6400084e-06
-7.5568792e-05
-3.724544e-11
-2.2855463e-05
3.8694612e-11
-4.5902828e-06
3.9446427e-05
-3.8228285e-11
-1.6552691e-05
0.00010658652
3.7922582e-11
-3.4333351e-05
0.00016239563
-3.7508371e-12
-5.6610889e-05
0.00020767517
-1.0925212e-11
-8.2277185e-05
0.00024341871
-4.7471483e-12
-0.00011041819
0.00027067133
-4.3570707e-12
-0.00014028892
0.00029043335
-5.1111088e-12
-0.00017128551
0.00030359473
-5.1618113e-12
-0.00020291689
0.00031089617
-5.0335766e-12
-0.00023477769
0.00031291339
-4.8866989e-12
-0.00026652358
0.00031006028
-4.7203862e-12
-0.00029784945
0.000302606
-4.5794762e-12
-0.0003284706
0.00029070141
-4.455162e-12
-0.00035810672
0.00027441081
-4.2517895e-12
-0.00038646826
0.00025374551
-3.8835288e-12
-0.00041324486
0.00022869735
-3.3821215e-12
-0.00043809568
0.00019927073
-2.8837928e-12
-0.00046064152
0.00016551326
-2.4916063e-12
-0.00048045931
0.00012754538
-2.1494532e-12
-0.00049707946
8.5589572e-05
-1.6665278e-12
-0.0005099872
4.0000007e-05
-9.0061197e-13
-0.00051862939
-8.707258e-06
6.7030338e-14
-0.00052242833
-5.9824122e-05
9.6371113e-13
-0.00052080461
-0.00011242211
1.5923672e-12
-0.00051321089
-0.00016532898
2.0356847e-12
-0.00049917822
-0.00021711512
2.5822465e-12
-0.00047837551
-0.00026609657
3.3698289e-12
-0.0004506806
-0.00031036335
4.1521838e-12
-0.0004162589
-0.00034784245
4.5215849e-12
-0.00037564085
-0.00037640473
4.3635972e-12
-0.00032978532
-0.00039402105
3.9692596e-12
-0.00028011191
-0.00039896543
3.6910426e-12
-0.00022848373
-0.00039005047
3.6225244e-12
-0.00017712616
-0.00036686453
3.3522291e-12
-0.00012847764
-0.00032996575
2.1235837e-12
-8.4985579e-05
-0.00028098247
2.6368368e-12
-4.8878639e-05
-0.00022257864
1.1159936e-11
-2.1960824e-05
-0.00015826066
4.2115354e-12
-5.4696771e-06
-9.2059893e-05
-4.4374499e-11
-2.8325184e-05
4.5080335e-11
-4.6407187e-06
4.4087187e-05
-3.8782795e-11
-1.6747988e-05
0.00011869375
3.8247847e-11
-3.4756314e-05
0.00018040396
-3.9865403e-12
-5.7328466e-05
0.00023024733
-1.1284085e-11
-8.3339267e-05
0.00026942952
-5.0348845e-12
-0.00011185972
0.00029919179
-4.6264234e-12
-0.00014213475
0.00032070839
-5.3910951e-12
-0.00017355703
0.00033501701
-5.4804969e-12
-0.00020563944
0.00034297858
-5.417889e-12
-0.00023798811
0.00034526205
-5.3217075e-12
-0.00027027702
0.0003423492
-5.1380205e-12
-0.0003022252
0.00033455419
-4.9168427e-12
-0.00033357653
0.00032205275
-4.7379289e-12
-0.00036408207
0.00030491635
-4.5943821e-12
-0.0003934846
0.00028314804
-4.3764765e-12
-0.00042150502
0.00025671776
-3.9787537e-12
-0.00044783033
0.00022559604
-3.4210732e-12
-0.00047210323
0.00018978618
-2.8452531e-12
-0.00049391353
0.0001493557
-2.3760935e-12
-0.00051279207
0.00010446812
-1.9772171e-12
-0.00052820808
5.5415997e-05
-1.4576205e-12
-0.0005395714
2.6560514e-06
-6.5327747e-13
-0.00054624184
-5.3153682e-05
3.5752923e-13
-0.00054754741
-0.00011111652
1.332177e-12
-0.00054281499
-0.00017006138
2.0501834e-12
-0.00053141579
-0.00022851432
2.5603079e-12
-0.00051282805
-0.00028468435
3.1080871e-12
-0.00048671738
-0.00033647403
3.8046128e-12
-0.00045303247
-0.00038152736
4.4290619e-12
-0.00041210823
-0.00041732894
4.640307e-12
-0.00036476273
-0.00044136654
4.3539684e-12
-0.00031236681
-0.00045136137
3.8524158e-12
-0.00025686081
-0.00044555649
3.5134937e-12
-0.0002006938
-0.00042303153
3.1165377e-12
-0.00014667113
-0.00038398841
1.7424719e-12
-9.77174e-05
-0.00032993619
2.4216202e-12
-5.6590329e-05
-0.00026370572
1.2499129e-11
-2.5605326e-05
-0.00018924567
4.4022087e-12
-6.4348946e-06
-0.00011123027