/*--------------------------------*- C++ -*----------------------------------*\
  =========                 |
  \\      /  F ield         | OpenFOAM: The Open Source CFD Toolbox
   \\    /   O peration     | Website:  https://openfoam.org
    \\  /    A nd           | Version:  7
     \\/     M anipulation  |
\*---------------------------------------------------------------------------*/
FoamFile
{
    version     2.0;
    format      ascii;
    class       surfaceScalarField;
    location    "40";
    object      phi_0;
}
// * * * * * * * * * * * * * * * * * * * * * * * * * * * * * * * * * * * * * //

dimensions      [0 3 -1 0 0 0 0];

internalField   nonuniform List<scalar> 
45600
(
2.751305e-07
-2.8227837e-07
-8.0214047e-11
4.0331551e-07
-1.2815928e-07
-2.5248966e-11
1.3255197e-07
2.7077124e-07
-6.9077521e-12
-5.6231187e-07
6.9486642e-07
-1.645187e-12
-1.6393114e-06
1.076997e-06
3.4833259e-12
-3.027621e-06
1.3883034e-06
6.9568288e-12
-4.6524635e-06
1.6248337e-06
9.2316764e-12
-6.4450961e-06
1.7926222e-06
1.0851183e-11
-8.3454229e-06
1.9003151e-06
1.2019545e-11
-1.0301442e-05
1.9560068e-06
1.2799472e-11
-1.2267402e-05
1.9659459e-06
1.3228562e-11
-1.4201582e-05
1.9341657e-06
1.3346569e-11
-1.606424e-05
1.8626438e-06
1.3185744e-11
-1.7816029e-05
1.7517752e-06
1.2759132e-11
-1.9417057e-05
1.6010147e-06
1.2059251e-11
-2.0826662e-05
1.409593e-06
1.1058245e-11
-2.2003912e-05
1.1772386e-06
9.7153708e-12
-2.2908773e-05
9.0485232e-07
8.0059254e-12
-2.3503872e-05
5.9509125e-07
5.9725284e-12
-2.3756705e-05
2.5282839e-07
3.6975717e-12
-2.3642144e-05
-1.1456204e-07
1.2656706e-12
-2.3145013e-05
-4.9712912e-07
-1.3020515e-12
-2.2262579e-05
-8.8242985e-07
-4.0240019e-12
-2.1006621e-05
-1.2559516e-06
-6.8496402e-12
-1.9404866e-05
-1.6017465e-06
-9.5804034e-12
-1.7501559e-05
-1.9032959e-06
-1.1895958e-11
-1.5356973e-05
-2.1445706e-06
-1.3563157e-11
-1.3045757e-05
-2.3111991e-06
-1.4605035e-11
-1.0654098e-05
-2.3916436e-06
-1.5234905e-11
-8.2758099e-06
-2.3782745e-06
-1.5523965e-11
-6.0075632e-06
-2.2682355e-06
-1.513915e-11
-3.9435336e-06
-2.0640171e-06
-1.3558858e-11
-2.1697897e-06
-1.7737294e-06
-1.069495e-11
-7.5853896e-07
-1.4112388e-06
-7.2260027e-12
2.3821977e-07
-9.9675603e-07
-4.1811822e-12
7.9655468e-07
-5.5834139e-07
-2.1494165e-12
9.2927074e-07
-1.3272303e-07
5.3800481e-13
7.0556842e-07
2.2370249e-07
5.2658961e-12
2.9045689e-07
4.1511593e-07
1.1003752e-11
2.9046125e-07
5.3015384e-12
1.3287043e-07
-4.1512561e-07
-2.2648905e-11
-3.0169942e-07
3.0642641e-07
-1.4342067e-11
-1.6154115e-06
1.5844973e-06
-1.2526962e-11
-3.8747142e-06
2.9541838e-06
-1.3281419e-11
-7.0073459e-06
4.2096445e-06
-1.44198e-11
-1.0879754e-05
5.2607282e-06
-1.5936174e-11
-1.5335166e-05
6.080264e-06
-1.7371753e-11
-2.0216003e-05
6.6734778e-06
-1.8418717e-11
-2.5374061e-05
7.0583918e-06
-1.8991575e-11
-3.0673274e-05
7.2552379e-06
-1.9096537e-11
-3.5988542e-05
7.2812312e-06
-1.8779337e-11
-4.120283e-05
7.1484706e-06
-1.8085419e-11
-4.6203974e-05
6.8638028e-06
-1.7037338e-11
-5.0882103e-05
6.4299174e-06
-1.5634266e-11
-5.5128236e-05
5.847159e-06
-1.3855812e-11
-5.8834324e-05
5.1156903e-06
-1.1678993e-11
-6.1894808e-05
4.2377308e-06
-9.1152362e-12
-6.4209614e-05
3.2196638e-06
-6.2532037e-12
-6.5688364e-05
2.0738426e-06
-3.1728942e-12
-6.6255473e-05
8.1993612e-07
6.67482e-14
-6.5855987e-05
-5.1405269e-07
3.4794239e-12
-6.4460812e-05
-1.8923118e-06
7.1147004e-12
-6.207248e-05
-3.2707711e-06
1.0803157e-11
-5.872909e-05
-4.5993531e-06
1.4263349e-11
-5.4507076e-05
-5.8237766e-06
1.7188758e-11
-4.9521904e-05
-6.8884886e-06
1.9475509e-11
-4.3926396e-05
-7.7401032e-06
2.1285429e-11
-3.790645e-05
-8.3311692e-06
2.2804723e-11
-3.1674142e-05
-8.6239715e-06
2.3869767e-11
-2.5458398e-05
-8.594038e-06
2.3918168e-11
-1.9493608e-05
-8.2330479e-06
2.2507437e-11
-1.4006717e-05
-7.5509353e-06
1.995728e-11
-9.2032892e-06
-6.5771831e-06
1.725895e-11
-5.2529046e-06
-5.3616382e-06
1.5061737e-11
-2.2739844e-06
-3.9756792e-06
1.2794998e-11
-3.1727412e-07
-2.5150534e-06
9.1874849e-12
6.5705586e-07
-1.1070658e-06
3.7948099e-12
8.0366913e-07
7.706502e-08
8.5908312e-13
4.1783272e-07
8.0092674e-07
2.7013813e-12
7.0830381e-07
-1.8680361e-12
-2.7359144e-07
-1.4152082e-07
-1.260726e-11
-1.627491e-06
1.6603346e-06
-7.374121e-12
-4.289411e-06
4.2464273e-06
-8.6994494e-12
-8.2746824e-06
6.9394636e-06
-7.3016657e-12
-1.3474421e-05
9.4093893e-06
-5.3211895e-12
-1.9708723e-05
1.1495036e-05
-4.2119654e-12
-2.6765751e-05
1.3137297e-05
-3.4934446e-12
-3.4426617e-05
1.4334346e-05
-2.9262253e-12
-4.2478631e-05
1.5110408e-05
-2.4630837e-12
-5.072045e-05
1.5497059e-05
-2.0372229e-12
-5.8962295e-05
1.5523077e-05
-1.6054512e-12
-6.7023691e-05
1.5209867e-05
-1.1644419e-12
-7.4730533e-05
1.4570645e-05
-7.2900959e-13
-8.1912721e-05
1.3612105e-05
-3.1812042e-13
-8.8403151e-05
1.2337587e-05
6.0699063e-14
-9.403848e-05
1.0751017e-05
4.3326095e-13
-9.86618e-05
8.861049e-06
8.4725373e-13
-0.0001021271
6.6849614e-06
1.2988208e-12
-0.00010430523
4.251972e-06
1.718996e-12
-0.00010509101
1.6057113e-06
2.0046189e-12
-0.00010441064
-1.1944181e-06
2.1354227e-12
-0.00010222946
-4.0734992e-06
2.2097301e-12
-9.8558522e-05
-6.9417108e-06
2.3761303e-12
-9.3460006e-05
-9.6978707e-06
2.6787083e-12
-8.7050395e-05
-1.2233387e-05
2.9355965e-12
-7.9500999e-05
-1.4437885e-05
2.8755465e-12
-7.1035282e-05
-1.6205823e-05
2.4570824e-12
-6.1922726e-05
-1.7443731e-05
2.0446116e-12
-5.2469149e-05
-1.8077554e-05
2.1265736e-12
-4.300368e-05
-1.8059507e-05
2.7298946e-12
-3.3862824e-05
-1.7373902e-05
3.2049881e-12
-2.5372228e-05
-1.6041531e-05
2.865724e-12
-1.7826885e-05
-1.4122533e-05
1.9513741e-12
-1.1470409e-05
-1.1718125e-05
1.6626747e-12
-6.4738687e-06
-8.9722249e-06
2.796256e-12
-2.9140475e-06
-6.0748682e-06
4.3937767e-12
-7.5122659e-07
-3.2698754e-06
4.4424133e-12
1.9435211e-07
-8.6851075e-07
3.4015601e-12
2.6548817e-07
7.2977445e-07
4.0409137e-12
9.7379366e-07
5.2959811e-13
-7.4585094e-07
6.043436e-07
-1.2859231e-11
-3.1796437e-06
4.0941297e-06
-1.4080886e-12
-7.346115e-06
8.4129065e-06
-6.8496742e-12
-1.3163069e-05
1.2756425e-05
-6.2262915e-12
-2.0455833e-05
1.6702157e-05
-3.6332352e-12
-2.899265e-05
2.0031856e-05
-2.2934474e-12
-3.8513892e-05
2.265854e-05
-1.3783142e-12
-4.8752691e-05
2.4573147e-05
-5.6486973e-13
-5.9446996e-05
2.5804714e-05
7.8589804e-14
-7.0344847e-05
2.6394909e-05
5.8026155e-13
-8.1205141e-05
2.638337e-05
1.0025743e-12
-9.1795995e-05
2.5800718e-05
1.3811713e-12
-0.00010189243
2.4667074e-05
1.7277845e-12
-0.00011127464
2.2994321e-05
2.0276508e-12
-0.0001197278
2.0790736e-05
2.2391143e-12
-0.00012704362
1.8066841e-05
2.3305344e-12
-0.00013302417
1.4841596e-05
2.3317219e-12
-0.00013748743
1.1148215e-05
2.3102978e-12
-0.00014027453
7.0390677e-06
2.3029873e-12
-0.00014125806
2.5892483e-06
2.2516023e-12
-0.00014035078
-2.1016991e-06
2.0420648e-12
-0.00013751439
-6.9098899e-06
1.5798527e-12
-0.00013276703
-1.1689074e-05
9.8404658e-13
-0.00012618931
-1.6275588e-05
5.1151086e-13
-0.00011792789
-2.0494809e-05
3.1928128e-13
-0.00010819592
-2.4169858e-05
2.5168428e-13
-9.7269876e-05
-2.7131858e-05
-6.2357588e-14
-8.5482414e-05
-2.9231192e-05
-7.7345698e-13
-7.3210952e-05
-3.0349018e-05
-1.4663512e-12
-6.0862271e-05
-3.040819e-05
-1.4354288e-12
-4.8853457e-05
-2.9382714e-05
-4.9534603e-13
-3.7589905e-05
-2.7305075e-05
5.7829386e-13
-2.7441314e-05
-2.427112e-05
7.8385256e-13
-1.8716691e-05
-2.0442753e-05
2.1963071e-13
-1.1639461e-05
-1.6049466e-05
2.3843412e-13
-6.3235789e-06
-1.1390757e-05
1.8315152e-12
-2.7515404e-06
-6.8419094e-06
4.0746862e-12
-7.5715214e-07
-2.8628918e-06
4.9169946e-12
-9.5281964e-09
-1.7857324e-08
4.3059166e-12
9.6426112e-07
3.3164305e-12
-1.2279702e-06
1.8323287e-06
-1.4383031e-11
-4.7881178e-06
7.6542729e-06
4.555148e-12
-1.0521554e-05
1.4146349e-05
-5.9867855e-12
-1.8214346e-05
2.0449225e-05
-7.0818355e-12
-2.760395e-05
2.6091767e-05
-4.7274565e-12
-3.8396309e-05
3.0824219e-05
-4.0341292e-12
-5.0283065e-05
3.4545301e-05
-3.6935505e-12
-6.2954792e-05
3.7244877e-05
-3.2011597e-12
-7.6109045e-05
3.895897e-05
-2.7202148e-12
-8.945378e-05
3.9739648e-05
-2.2985459e-12
-0.00010270748
3.963707e-05
-1.9085379e-12
-0.00011559754
3.8690778e-05
-1.5244848e-12
-0.00012785835
3.6927887e-05
-1.1179197e-12
-0.0001392302
3.4366176e-05
-6.6364846e-13
-0.00014945975
3.1020286e-05
-1.7659268e-13
-0.00015830248
2.6909568e-05
2.7782338e-13
-0.00016552724
2.206636e-05
6.4410677e-13
-0.00017092275
1.6543722e-05
9.4092293e-13
-0.00017430559
1.0421913e-05
1.2632069e-12
-0.00017552936
3.8130095e-06
1.686855e-12
-0.00017449413
-3.1369259e-06
2.1590751e-12
-0.00017115589
-1.0248133e-05
2.4876876e-12
-0.0001655348
-1.7310157e-05
2.5196107e-12
-0.0001577219
-2.4088489e-05
2.3337782e-12
-0.0001478832
-3.0333517e-05
2.2451943e-12
-0.0001362606
-3.5792458e-05
2.510916e-12
-0.00012316896
-4.0223494e-05
2.9783543e-12
-0.00010898872
-4.3411434e-05
3.1226287e-12
-9.4153803e-05
-4.5183937e-05
2.6083446e-12
-7.9134856e-05
-4.5427142e-05
1.8448102e-12
-6.4418068e-05
-4.4099509e-05
1.7488562e-12
-5.0480372e-05
-4.1242773e-05
2.6861261e-12
-3.7762141e-05
-3.6989345e-05
3.7829793e-12
-2.6638822e-05
-3.1566067e-05
3.7715585e-12
-1.7393172e-05
-2.5295119e-05
2.6395318e-12
-1.018992e-05
-1.8594019e-05
2.0781803e-12
-5.054741e-06
-1.1977095e-05
3.4845041e-12
-1.8598327e-06
-6.0577972e-06
4.2211109e-12
-3.2222964e-07
-1.555457e-06
9.2429481e-13
6.4202403e-07
5.8708985e-12
-1.6931707e-06
3.5255166e-06
-1.6868477e-11
-6.3714164e-06
1.2332508e-05
9.9561963e-12
-1.3671462e-05
2.1446399e-05
-5.0573723e-12
-2.323407e-05
3.001184e-05
-7.200441e-12
-3.4695253e-05
3.7552955e-05
-4.4721932e-12
-4.7689831e-05
4.3818802e-05
-3.9340843e-12
-6.1857531e-05
4.8713006e-05
-3.8492141e-12
-7.6848074e-05
5.2235424e-05
-3.4960244e-12
-9.2323875e-05
5.4434777e-05
-3.0763178e-12
-0.00010796028
5.5376053e-05
-2.6661538e-12
-0.00012344397
5.5120769e-05
-2.263164e-12
-0.0001384707
5.3717507e-05
-1.8751435e-12
-0.00015274323
5.1200421e-05
-1.4990823e-12
-0.00016597054
4.7593491e-05
-1.0979513e-12
-0.00017786874
4.2918488e-05
-6.2550272e-13
-0.00018816405
3.7204883e-05
-9.0917075e-14
-0.00019659789
3.0500201e-05
4.2447667e-13
-0.00020293384
2.2879669e-05
8.300645e-13
-0.00020696614
1.4454216e-05
1.1262759e-12
-0.0002085293
5.3761626e-06
1.429628e-12
-0.00020750812
-4.158103e-06
1.8659179e-12
-0.00020384768
-1.3908572e-05
2.4148948e-12
-0.00019756247
-2.3595368e-05
2.848266e-12
-0.00018874397
-3.2906991e-05
2.9206442e-12
-0.00017756589
-4.1511598e-05
2.6620798e-12
-0.00016428626
-4.9072093e-05
2.4590996e-12
-0.00014924551
-5.5264243e-05
2.7132871e-12
-0.00013285991
-5.9797042e-05
3.3306274e-12
-0.00011560968
-6.2434163e-05
3.6600557e-12
-9.802176e-05
-6.3015058e-05
3.1720994e-12
-8.0647226e-05
-6.1474048e-05
2.246588e-12
-6.403418e-05
-5.7855827e-05
1.9888727e-12
-4.8697451e-05
-5.2326078e-05
2.9272318e-12
-3.5086903e-05
-4.517661e-05
4.0857567e-12
-2.3556673e-05
-3.6825345e-05
3.9989712e-12
-1.4337867e-05
-2.7812828e-05
3.0672117e-12
-7.5174874e-06
-1.8797483e-05
3.6004527e-12
-3.0267243e-06
-1.0548563e-05
3.4952555e-12
-6.4248981e-07
-3.9396851e-06
-1.6500222e-12
-4.7337586e-10
8.5716056e-12
-2.132939e-06
5.6584753e-06
-1.962344e-11
-7.8910815e-06
1.8090635e-05
1.4773556e-11
-1.6717413e-05
3.0272735e-05
-4.3230828e-12
-2.8105751e-05
4.1400184e-05
-7.2887044e-12
-4.15851e-05
5.1032308e-05
-4.0435981e-12
-5.6714147e-05
5.8947852e-05
-3.5070332e-12
-7.307829e-05
6.5077154e-05
-3.5400064e-12
-9.0287099e-05
6.9444237e-05
-3.2628797e-12
-0.00010797133
7.2119014e-05
-2.9070761e-12
-0.00012577928
7.3184001e-05
-2.5388805e-12
-0.00014337275
7.2714244e-05
-2.1398882e-12
-0.00016042342
7.0768185e-05
-1.7270892e-12
-0.00017661019
6.7387194e-05
-1.3379073e-12
-0.00019161814
6.2601442e-05
-9.84206e-13
-0.00020513951
5.6439864e-05
-6.1931083e-13
-0.00021687684
4.894221e-05
-1.7514002e-13
-0.00022654815
4.0171509e-05
3.5674976e-13
-0.00023389407
3.0225592e-05
8.823058e-13
-0.0002386865
1.9246652e-05
1.2711552e-12
-0.00024073842
7.428081e-06
1.4890055e-12
-0.00023991436
-4.9821588e-06
1.6645253e-12
-0.00023614102
-1.7681918e-05
1.9993894e-12
-0.00022941747
-3.0318919e-05
2.5212823e-12
-0.00021982416
-4.2500304e-05
2.9813585e-12
-0.00020752992
-5.3805836e-05
3.0327245e-12
-0.00019279609
-6.3805918e-05
2.6283044e-12
-0.0001759767
-7.2083644e-05
2.2129701e-12
-0.00015751364
-7.8260106e-05
2.3546411e-12
-0.00013792613
-8.2021673e-05
3.0568679e-12
-0.00011779373
-8.3147455e-05
3.568302e-12
-9.7732954e-05
-8.153482e-05
3.1717584e-12
-7.8368125e-05
-7.722066e-05
2.207696e-12
-6.0297867e-05
-7.0396346e-05
1.9111145e-12
-4.4059525e-05
-6.1414955e-05
2.8137342e-12
-3.0094428e-05
-5.0790439e-05
3.754784e-12
-1.8717259e-05
-3.9189992e-05
3.8542459e-12
-1.0093049e-05
-2.7421698e-05
4.5747226e-12
-4.2253108e-06
-1.6416307e-05
3.27804e-12
-9.5848458e-07
-7.2065047e-06
-4.7454815e-12
-9.5896651e-07
1.0537232e-11
-2.5450559e-06
8.2035532e-06
-2.2413102e-11
-9.3288502e-06
2.4874409e-05
1.9080073e-11
-1.9615369e-05
4.0559257e-05
-3.8111952e-12
-3.2756857e-05
5.4541679e-05
-7.5565045e-12
-4.8175895e-05
6.645135e-05
-3.8715369e-12
-6.53541e-05
7.6126061e-05
-3.3671725e-12
-8.3822149e-05
8.3545207e-05
-3.5050933e-12
-0.00010315063
8.8772725e-05
-3.2782709e-12
-0.00012294163
9.1910016e-05
-2.9830527e-12
-0.00014282096
9.3063338e-05
-2.6902322e-12
-0.00016243135
9.2324635e-05
-2.3512313e-12
-0.00018142688
8.9763722e-05
-1.9500031e-12
-0.00019946925
8.5429567e-05
-1.5155849e-12
-0.00021622605
7.9358241e-05
-1.1064982e-12
-0.0002313713
7.1585126e-05
-7.5266688e-13
-0.00024458832
6.2159231e-05
-4.0566006e-13
-0.0002555746
5.1157784e-05
2.9363765e-14
-0.00026404868
3.8699675e-05
5.8863452e-13
-0.00026975868
2.4956654e-05
1.1746287e-12
-0.0002724921
1.0161502e-05
1.6096125e-12
-0.00027208668
-5.3875752e-06
1.8031362e-12
-0.00026844172
-2.1326879e-05
1.8996034e-12
-0.00026152975
-3.7230896e-05
2.1534639e-12
-0.00025140739
-5.2622662e-05
2.681275e-12
-0.00023822498
-6.6988248e-05
3.2312414e-12
-0.00022223364
-7.9797262e-05
3.3473133e-12
-0.00020378863
-9.0528649e-05
2.87578e-12
-0.00018334762
-9.8701124e-05
2.2899327e-12
-0.00016146241
-0.00010390689
2.3126862e-12
-0.00013876327
-0.00010584659
3.0541447e-12
-0.00011593535
-0.00010436274
3.6961248e-12
-9.3687547e-05
-9.9468459e-05
3.4028232e-12
-7.2715434e-05
-9.1368462e-05
2.5194162e-12
-5.3660747e-05
-8.046965e-05
2.2425811e-12
-3.7071086e-05
-6.7380103e-05
2.8448027e-12
-2.3363945e-05
-5.289713e-05
3.7856076e-12
-1.2799314e-05
-3.7986331e-05
5.5696462e-12
-5.4648785e-06
-2.3750747e-05
3.5148011e-12
-1.2772569e-06
-1.1394119e-05
-7.8087459e-12
-2.236235e-06
1.2820753e-11
-2.9284829e-06
1.113206e-05
-2.5148226e-11
-1.0673675e-05
3.2619577e-05
2.291033e-11
-2.2336179e-05
5.2221763e-05
-3.4667637e-12
-3.7135981e-05
6.9341488e-05
-7.8861241e-12
-5.4394116e-05
8.3709489e-05
-3.7918567e-12
-7.3517634e-05
9.5249582e-05
-3.3424582e-12
-9.3984306e-05
0.00010401188
-3.5929254e-12
-0.00011532796
0.00011011639
-3.3929246e-12
-0.00013712518
0.00011370724
-3.1131775e-12
-0.00015898353
0.0001149217
-2.8613803e-12
-0.00018053178
0.00011387289
-2.5923085e-12
-0.00020141215
0.00011064409
-2.2640429e-12
-0.00022127503
0.00010529245
-1.8513983e-12
-0.00023977618
9.7859396e-05
-1.3813236e-12
-0.00025657638
8.8385324e-05
-9.3316395e-13
-0.00027134346
7.6926319e-05
-5.6271001e-13
-0.00028375659
6.3570911e-05
-2.2655451e-13
-0.00029351243
4.845552e-05
1.9835307e-13
-0.00030033322
3.1777443e-05
7.8835128e-13
-0.00030397636
1.380464e-05
1.4499922e-12
-0.00030424557
-5.1183612e-06
1.9520598e-12
-0.00030100297
-2.456948e-05
2.1666656e-12
-0.00029418251
-4.4051355e-05
2.1820987e-12
-0.00028380325
-6.3001932e-05
2.3355582e-12
-0.00026998221
-8.0809292e-05
2.8453815e-12
-0.00025294549
-9.6833981e-05
3.4811451e-12
-0.000233036
-0.00011043814
3.691249e-12
-0.000210716
-0.00012102112
3.205704e-12
-0.00018656267
-0.00012806023
2.4976521e-12
-0.00016125483
-0.00013115444
2.4039198e-12
-0.00013554998
-0.0001300676
3.1099295e-12
-0.00011025148
-0.00012476696
3.773107e-12
-8.6167385e-05
-0.00011545255
3.56146e-12
-6.4063735e-05
-0.0001025733
2.7912567e-12
-4.4616672e-05
-8.6827173e-05
2.3843352e-12
-2.8368531e-05
-6.9145273e-05
3.1953242e-12
-1.5693152e-05
-5.0661711e-05
6.0382204e-12
-6.7752204e-06
-3.266868e-05
3.818268e-12
-1.6070343e-06
-1.6562295e-05
-1.0653453e-11
-3.8432849e-06
1.5337243e-11
-3.2817004e-06
1.4413788e-05
-2.7742109e-11
-1.1915872e-05
4.1253721e-05
2.6304539e-11
-2.4855515e-05
6.5161408e-05
-3.2805026e-12
-4.1199923e-05
8.5685904e-05
-8.2640607e-12
-6.0176314e-05
0.00010268588
-3.7354237e-12
-8.1122254e-05
0.00011619553
-3.3322015e-12
-0.00010346631
0.00012635594
-3.7133858e-12
-0.00012670889
0.00013335897
-3.561418e-12
-0.00015040465
0.00013740301
-3.2869783e-12
-0.00017414714
0.00013866419
-3.0296357e-12
-0.00019755594
0.0001372817
-2.7762265e-12
-0.00022026668
0.00013335484
-2.5125446e-12
-0.00024192389
0.00012694966
-2.1920482e-12
-0.00026217668
0.00011811219
-1.7648144e-12
-0.00028067717
0.00010688582
-1.2509371e-12
-0.0002970813
9.3330454e-05
-7.4992018e-13
-0.00031105196
7.7541567e-05
-3.5065213e-13
-0.00032226414
5.9667708e-05
-2.3440791e-14
-0.0003304122
3.9925502e-05
3.8056661e-13
-0.00033521897
1.8611409e-05
9.7590564e-13
-0.00033644713
-3.8902051e-06
1.6800565e-12
-0.00033391173
-2.7104878e-05
2.3100247e-12
-0.00032749596
-5.0467125e-05
2.5570989e-12
-0.00031716687
-7.3331023e-05
2.4994736e-12
-0.0003029923
-9.4983877e-05
2.5328922e-12
-0.00028515683
-0.00011466946
2.9796464e-12
-0.00026397518
-0.00013161979
3.6561651e-12
-0.00023990062
-0.00014509568
3.9443361e-12
-0.00021352583
-0.00015443502
3.4774351e-12
-0.00018557378
-0.00015910649
2.7153695e-12
-0.00015687658
-0.0001587648
2.5451972e-12
-0.00012834164
-0.0001533019
3.1724073e-12
-0.00010090607
-0.00014288812
3.7787497e-12
-7.5482474e-05
-0.0001279969
3.551603e-12
-5.2901148e-05
-0.0001094085
2.6814093e-12
-3.3855116e-05
-8.819131e-05
2.8742572e-12
-1.8854785e-05
-6.5662048e-05
6.202009e-12
-8.1982627e-06
-4.3325204e-05
3.8194226e-12
-1.961162e-06
-2.2799381e-05
-1.3704107e-11
-5.8044659e-06
1.8114569e-11
-3.6023033e-06
1.801612e-05
-3.013727e-11
-1.3044874e-05
5.0696261e-05
2.9311391e-11
-2.7149292e-05
7.9265828e-05
-3.2240517e-12
-4.4907173e-05
0.00010344379
-8.7212243e-12
-6.5461508e-05
0.00012324022
-3.7573709e-12
-8.8087235e-05
0.00013882126
-3.3501331e-12
-0.00011216881
0.00015043752
-3.8420443e-12
-0.00013717742
0.00015836759
-3.763724e-12
-0.00016264988
0.00016287547
-3.5330516e-12
-0.00018816993
0.00016418425
-3.2815703e-12
-0.00021335264
0.00016246441
-3.0021988e-12
-0.00023783203
0.00015783423
-2.7285906e-12
-0.00026125191
0.00015036954
-2.46713e-12
-0.00028325983
0.00014012012
-2.154327e-12
-0.00030350382
0.00012712981
-1.7131645e-12
-0.00032163166
0.00011145829
-1.1506528e-12
-0.00033729244
9.3202351e-05
-5.8260836e-13
-0.00035014038
7.2515645e-05
-1.3640399e-13
-0.00035984078
4.9625909e-05
1.9046978e-13
-0.00036607842
2.4849043e-05
5.4730902e-13
-0.00036856896
-1.3996687e-06
1.0772017e-12
-0.00036707134
-2.8602502e-05
1.9374e-12
-0.00036140636
-5.6132101e-05
2.662401e-12
-0.00035147457
-8.3262815e-05
2.9614547e-12
-0.00033727782
-0.00010918064
2.8597694e-12
-0.0003189409
-0.00013300638
2.7774781e-12
-0.00029673174
-0.00015382896
3.1299439e-12
-0.00027107727
-0.00017075016
3.7882102e-12
-0.00024257163
-0.00018294065
4.1034605e-12
-0.00021197327
-0.00018970485
3.6601797e-12
-0.0001801876
-0.00019055049
2.9090214e-12
-0.00014823332
-0.00018525619
2.7244465e-12
-0.00011719276
-0.00017392868
3.2722091e-12
-8.8148951e-05
-0.00015704071
3.67505e-12
-6.2115382e-05
-0.00013544207
3.1146638e-12
-3.996649e-05
-0.00011034021
3.0591913e-12
-2.237761e-05
-8.3250936e-05
6.5991869e-12
-9.7826897e-06
-5.5920128e-05
3.6543573e-12
-2.3546948e-06
-3.0227358e-05
-1.7248014e-11
-8.1591825e-06
2.1184345e-11
-3.8870508e-06
2.1903203e-05
-3.2316943e-11
-1.4048661e-05
6.0857838e-05
3.1945603e-11
-2.9192055e-05
9.4409225e-05
-3.2322815e-12
-4.8215266e-05
0.00012246701
-9.2254157e-12
-7.0187843e-05
0.0001452128
-3.8861917e-12
-9.4330061e-05
0.00016296348
-3.4421931e-12
-0.00011998821
0.00017609567
-3.9900506e-12
-0.00014660908
0.00018498846
-3.9632985e-12
-0.00017371588
0.00018998227
-3.7997188e-12
-0.00020088685
0.00019135522
-3.6072566e-12
-0.00022773708
0.00018931464
-3.3375207e-12
-0.0002539038
0.00018400096
-3.0196161e-12
-0.00027903519
0.00017550094
-2.7205847e-12
-0.00030278231
0.00016386724
-2.4565835e-12
-0.00032479396
0.00014914146
-2.1517601e-12
-0.00034471403
0.00013137837
-1.7003498e-12
-0.00036218125
0.00011066957
-1.0876136e-12
-0.00037683113
8.7165524e-05
-4.4086657e-13
-0.00038830041
6.109519e-05
7.0303768e-14
-0.00039623426
3.2782897e-05
4.2275949e-13
-0.00040029637
2.6624371e-06
8.0968769e-13
-0.00040018387
-2.871501e-05
1.348119e-12
-0.00039564405
-6.0671928e-05
2.1811387e-12
-0.00038649735
-9.2409512e-05
2.9847574e-12
-0.00037266262
-0.00012301537
3.3560556e-12
-0.00035418496
-0.00015148404
3.2416266e-12
-0.00033126379
-0.00017675014
3.0696916e-12
-0.00030427783
-0.00019773613
3.3170123e-12
-0.00027380299
-0.0002134155
3.896933e-12
-0.0002406183
-0.00022288954
4.1686437e-12
-0.00020569519
-0.0002254736
3.7340836e-12
-0.00017016638
-0.000220785
3.0580865e-12
-0.00013527317
-0.00020882189
2.9350581e-12
-0.00010229332
-0.00019002056
3.2757382e-12
-7.2455931e-05
-0.00016527947
3.0821042e-12
-4.6853291e-05
-0.00013594285
3.3189755e-12
-2.6361362e-05
-0.00010374287
7.3797145e-12
-1.1580441e-05
-7.0701055e-05
3.6199109e-12
-2.8033142e-06
-3.9004465e-05
-2.1324519e-11
-1.0962522e-05
2.4608054e-11
-4.1321175e-06
2.6035354e-05
-3.4270358e-11
-1.4914098e-05
7.1639784e-05
3.4161842e-11
-3.0957132e-05
0.00011045226
-3.270123e-12
-5.1080656e-05
0.00014259055
-9.7099426e-12
-7.4292274e-05
0.00016842443
-4.0890636e-12
-9.9766125e-05
0.00018843733
-3.6293827e-12
-0.00012681669
0.00020314624
-4.2012312e-12
-0.0001548713
0.00021304308
-4.1763495e-12
-0.00018344393
0.00021855491
-4.0453998e-12
-0.00021211149
0.00022002279
-3.9268563e-12
-0.00024049344
0.00021769659
-3.734419e-12
-0.00026823493
0.00021174245
-3.4358786e-12
-0.00029499351
0.00020225953
-3.0776336e-12
-0.00032042905
0.00018930278
-2.745166e-12
-0.0003441964
0.00017290882
-2.4708998e-12
-0.00036594074
0.00015312271
-2.1727693e-12
-0.00038529504
0.00013002388
-1.7159714e-12
-0.00040188001
0.00010375049
-1.0580482e-12
-0.00041530643
7.4521618e-05
-3.2804182e-13
-0.00042518076
4.2657227e-05
2.8396794e-13
-0.00043111396
8.5956294e-06
7.2266036e-13
-0.00043273621
-2.709276e-05
1.0038501e-12
-0.00042971415
-6.3693991e-05
1.5481578e-12
-0.00042177617
-0.0001003475
2.4116752e-12
-0.00040874171
-0.00013604983
3.2825053e-12
-0.00039055538
-0.00016967038
3.7170614e-12
-0.0003673235
-0.00019998202
3.6106561e-12
-0.00033934979
-0.00022570984
3.3811214e-12
-0.00030716536
-0.00024559994
3.5219375e-12
-0.00027154683
-0.00025850808
3.965762e-12
-0.00023351601
-0.00026350443
4.124615e-12
-0.00019431498
-0.00025998603
3.706039e-12
-0.00015535291
-0.00024778397
3.1924903e-12
-0.00011812526
-0.00022724821
3.0137681e-12
-8.4111828e-05
-0.00019929291
2.68267e-12
-5.4665478e-05
-0.0001653892
3.2702294e-12
-3.0907339e-05
-0.00012750102
8.3006743e-12
-1.3644696e-05
-8.7963703e-05
3.7802328e-12
-3.3229921e-06
-4.9326146e-05
-2.5916303e-11
-1.4285544e-05
2.8556318e-11
-4.333455e-06
3.0368844e-05
-3.5950804e-11
-1.5627795e-05
8.2934088e-05
3.5900579e-11
-3.2417912e-05
0.00012724238
-3.3575987e-12
-5.3460308e-05
0.00016363295
-1.0140746e-11
-7.771246e-05
0.00019267658
-4.3057727e-12
-0.000104311
0.00021503588
-3.8744845e-12
-0.00013254491
0.00023138016
-4.490779e-12
-0.00016182693
0.00024232511
-4.4540394e-12
-0.00019166587
0.00024839386
-4.3050064e-12
-0.00022164124
0.00024999816
-4.2070199e-12
-0.00025138096
0.00024743632
-4.093486e-12
-0.00028054264
0.00024090413
-3.8943459e-12
-0.00030879821
0.0002305151
-3.5718572e-12
-0.00033582178
0.00021632634
-3.169822e-12
-0.00036128018
0.00019836722
-2.7935939e-12
-0.00038482595
0.00017666848
-2.4973029e-12
-0.00040609255
0.00015129048
-2.1998019e-12
-0.00042469178
0.00012234971
-1.7413726e-12
-0.00044021385
9.0043683e-05
-1.0451222e-12
-0.00045223065
5.4674028e-05
-2.2221629e-13
-0.00046030303
1.6668013e-05
4.9724435e-13
-0.00046399357
-2.3402223e-05
9.3115243e-13
-0.00046288448
-6.4803084e-05
1.2699084e-12
-0.0004566034
-0.00010662858
1.8121794e-12
-0.00044485608
-0.00014779716
2.673725e-12
-0.00042746612
-0.00018706034
3.5696605e-12
-0.00040442022
-0.00022302793
4.0359339e-12
-0.0003759156
-0.00025421446
3.9394215e-12
-0.00034240457
-0.00027911097
3.6726122e-12
-0.00030462862
-0.00029628404
3.6966525e-12
-0.00026363337
-0.00030449967
3.9481906e-12
-0.00022075512
-0.00030286428
3.971643e-12
-0.00017757163
-0.00029096747
3.6420141e-12
-0.00013581501
-0.00026900484
3.1556647e-12
-9.7251929e-05
-0.00023785599
2.3616274e-12
-6.3544837e-05
-0.0001990963
2.993377e-12
-3.6114688e-05
-0.00015493118
9.1607772e-12
-1.6028557e-05
-0.00010804984
3.97395e-12
-3.9298355e-06
-6.1424838e-05
-3.114875e-11
-1.8215414e-05
3.321387e-11
-4.4872243e-06
3.4856105e-05
-3.7285947e-11
-1.6177325e-05
9.4624152e-05
3.714559e-11
-3.3549901e-05
0.00014461496
-3.5234676e-12
-5.5314556e-05
0.00018539762
-1.0537425e-11
-8.0390368e-05
0.0002177524
-4.5145241e-12
-0.0001078848
0.00024253032
-4.1205012e-12
-0.00013706725
0.00026056261
-4.8125425e-12
-0.00016734027
0.00027259813
-4.8023668e-12
-0.00019821119
0.00027926479
-4.6372806e-12
-0.00022926561
0.00028105258
-4.5055319e-12
-0.00026014367
0.00027831438
-4.3942066e-12
-0.00029051966
0.00027128012
-4.2758621e-12
-0.00032008482
0.00026008027
-4.0758167e-12
-0.00034853317
0.00024477469
-3.7311971e-12
-0.00037554993
0.00022538398
-3.2814031e-12
-0.00040080218
0.00020192074
-2.8499413e-12
-0.0004239316
0.0001744199
-2.5153805e-12
-0.0004445493
0.00014296742
-2.2057922e-12
-0.00046223321
0.0001077276
-1.7415366e-12
-0.00047652862
6.8969437e-05
-1.0081407e-12
-0.00048695288
2.7092269e-05
-1.0439697e-13
-0.00049300564
-1.734946e-05
6.9617635e-13
-0.00049418563
-6.3623089e-05
1.2299913e-12
-0.00049001582
-0.00011079839
1.6127475e-12
-0.00048007774
-0.00015773524
2.1522204e-12
-0.00046405566
-0.00020308243
2.9902244e-12
-0.00044178975
-0.00024529385
3.8596192e-12
-0.00041333575
-0.00028266846
4.3083115e-12
-0.00037902595
-0.00031342077
4.2030143e-12
-0.00033952333
-0.00033578667
3.8929621e-12
-0.00029585751
-0.0003481655
3.7691622e-12
-0.00024942979
-0.00034929201
3.8146801e-12
-0.00020197496
-0.0003384223
3.7792235e-12
-0.00015547283
-0.00031550697
3.3814515e-12
-0.00011201159
-0.00028131724
2.2578358e-12
-7.3617493e-05
-0.0002374904
2.7662813e-12
-4.2077001e-05
-0.00018647168
1.0053534e-11
-1.8784001e-05
-0.00013134284
4.097034e-12
-4.6400097e-06
-7.5568793e-05
-3.724544e-11
-2.2855463e-05
3.8694612e-11
-4.5902837e-06
3.9446428e-05
-3.8228285e-11
-1.655269e-05
0.00010658652
3.7922582e-11
-3.4333351e-05
0.00016239563
-3.7508371e-12
-5.6610889e-05
0.00020767517
-1.0925212e-11
-8.2277186e-05
0.00024341871
-4.7471483e-12
-0.00011041819
0.00027067133
-4.3570707e-12
-0.00014028892
0.00029043335
-5.1111088e-12
-0.00017128551
0.00030359473
-5.1618113e-12
-0.00020291689
0.00031089617
-5.0335766e-12
-0.00023477769
0.00031291338
-4.8866989e-12
-0.00026652358
0.00031006028
-4.7203862e-12
-0.00029784946
0.000302606
-4.5794762e-12
-0.00032847061
0.00029070142
-4.455162e-12
-0.00035810672
0.00027441081
-4.2517895e-12
-0.00038646825
0.00025374551
-3.8835288e-12
-0.00041324486
0.00022869734
-3.3821215e-12
-0.00043809568
0.00019927072
-2.8837928e-12
-0.00046064153
0.00016551327
-2.4916063e-12
-0.00048045932
0.00012754539
-2.1494532e-12
-0.00049707946
8.5589578e-05
-1.6665278e-12
-0.00050998719
4.0000004e-05
-9.0061197e-13
-0.00051862938
-8.7072687e-06
6.7030338e-14
-0.00052242834
-5.9824131e-05
9.6371113e-13
-0.00052080462
-0.00011242211
1.5923672e-12
-0.00051321089
-0.00016532897
2.0356847e-12
-0.00049917822
-0.00021711511
2.5822465e-12
-0.00047837549
-0.00026609657
3.3698289e-12
-0.00045068059
-0.00031036336
4.1521838e-12
-0.00041625891
-0.00034784246
4.5215849e-12
-0.00037564086
-0.00037640472
4.3635972e-12
-0.00032978532
-0.00039402104
3.9692596e-12
-0.0002801119
-0.00039896543
3.6910426e-12
-0.00022848372
-0.00039005048
3.6225244e-12
-0.00017712616
-0.00036686453
3.3522291e-12
-0.00012847765
-0.00032996575
2.1235837e-12
-8.498558e-05
-0.00028098247
2.6368368e-12
-4.8878637e-05
-0.00022257864
1.1159936e-11
-2.1960822e-05
-0.00015826066
4.2115354e-12
-5.469677e-06
-9.2059895e-05
-4.4374499e-11
-2.8325185e-05
4.5080335e-11
-4.6407199e-06
4.4087187e-05
-3.8782795e-11
-1.6747989e-05
0.00011869375
3.8247847e-11
-3.4756314e-05
0.00018040396
-3.9865403e-12
-5.7328465e-05
0.00023024733
-1.1284085e-11
-8.3339267e-05
0.00026942951
-5.0348845e-12
-0.00011185972
0.00029919179
-4.6264234e-12
-0.00014213475
0.00032070839
-5.3910951e-12
-0.00017355703
0.00033501701
-5.4804969e-12
-0.00020563944
0.00034297858
-5.417889e-12
-0.0002379881
0.00034526205
-5.3217075e-12
-0.00027027701
0.00034234919
-5.1380205e-12
-0.0003022252
0.00033455419
-4.9168427e-12
-0.00033357653
0.00032205275
-4.7379289e-12
-0.00036408207
0.00030491635
-4.5943821e-12
-0.0003934846
0.00028314804
-4.3764765e-12
-0.00042150501
0.00025671776
-3.9787537e-12
-0.00044783033
0.00022559604
-3.4210732e-12
-0.00047210323
0.00018978617
-2.8452531e-12
-0.00049391354
0.0001493557
-2.3760935e-12
-0.00051279208
0.00010446812
-1.9772171e-12
-0.00052820808
5.5416004e-05
-1.4576205e-12
-0.00053957139
2.6560503e-06
-6.5327747e-13
-0.00054624183
-5.3153692e-05
3.5752923e-13
-0.00054754741
-0.00011111653
1.332177e-12
-0.000542815
-0.00017006138
2.0501834e-12
-0.0005314158
-0.00022851431
2.5603079e-12
-0.00051282804
-0.00028468434
3.1080871e-12
-0.00048671737
-0.00033647404
3.8046128e-12
-0.00045303246
-0.00038152737
4.4290619e-12
-0.00041210824
-0.00041732895
4.640307e-12
-0.00036476274
-0.00044136653
4.3539684e-12
-0.00031236681
-0.00045136137
3.8524158e-12
-0.0002568608
-0.00044555649
3.5134937e-12
-0.0002006938
-0.00042303154
3.1165377e-12
-0.00014667113
-0.00038398842
1.7424719e-12
-9.7717403e-05
-0.0003299362
2.4216202e-12
-5.6590329e-05
-0.00026370572
1.2499129e-11
-2.5605325e-05
-0.00018924567
4.4022087e-12