/*--------------------------------*- C++ -*----------------------------------*\
  =========                 |
  \\      /  F ield         | OpenFOAM: The Open Source CFD Toolbox
   \\    /   O peration     | Website:  https://openfoam.org
    \\  /    A nd           | Version:  7
     \\/     M anipulation  |
\*---------------------------------------------------------------------------*/
FoamFile
{
    version     2.0;
    format      ascii;
    class       volVectorField;
    location    "40";
    object      U_0;
}
// * * * * * * * * * * * * * * * * * * * * * * * * * * * * * * * * * * * * * //

dimensions      [0 1 -1 0 0 0 0];

internalField   nonuniform List<vector> 
16000
(
(6.6045932e-05 -6.7331203e-05 -4.0818096e-07)
(0.00016275742 -5.6353784e-05 5.6944316e-06)
(0.00014192657 4.6437236e-07 1.9194526e-05)
(-5.0614773e-05 6.1891819e-05 3.6617077e-05)
(-0.00040996848 0.00011563166 5.4725693e-05)
(-0.00090902296 0.00015774418 7.1554143e-05)
(-0.0015177093 0.000188505 8.5766315e-05)
(-0.0022068846 0.0002096092 9.6547001e-05)
(-0.0029506002 0.00022287677 0.00010343588)
(-0.0037264639 0.00022981105 0.0001061861)
(-0.0045150498 0.00023147708 0.00010467047)
(-0.0052990127 0.00022850394 9.8825902e-05)
(-0.0060621928 0.00022114734 8.8627687e-05)
(-0.0067888641 0.0002093829 7.4086351e-05)
(-0.0074632165 0.00019301349 5.5260662e-05)
(-0.008069118 0.00017178038 3.228089e-05)
(-0.0085901709 0.00014547154 5.3769906e-06)
(-0.0090100512 0.00011402186 -2.5093134e-05)
(-0.0093131038 7.760136e-05 -5.8619657e-05)
(-0.00948515 3.668728e-05 -9.4524992e-05)
(-0.0095144498 -7.8865952e-06 -0.00013195949)
(-0.0093927311 -5.4924206e-05 -0.00016991182)
(-0.0091162248 -0.00010284346 -0.00020723537)
(-0.0086866025 -0.00014974926 -0.00024269227)
(-0.008111692 -0.00019351202 -0.00027501302)
(-0.007405896 -0.00023188632 -0.00030296915)
(-0.0065902214 -0.00026266098 -0.00032545437)
(-0.0056918546 -0.00028382707 -0.00034156827)
(-0.0047432598 -0.00029374793 -0.00035069582)
(-0.0037808164 -0.00029131153 -0.00035257531)
(-0.0028430629 -0.00027604667 -0.0003473473)
(-0.0019686538 -0.00024818901 -0.0003355797)
(-0.0011941468 -0.00020869787 -0.00031826814)
(-0.00055166703 -0.00015926155 -0.000296816)
(-6.6503932e-05 -0.00010240676 -0.00027299099)
(0.00024492417 -4.1754667e-05 -0.00024885105)
(0.00037893966 1.7848214e-05 -0.00022678045)
(0.00034977923 6.7070021e-05 -0.00020921771)
(0.00020618543 8.9851256e-05 -0.00019883303)
(5.7467137e-05 5.7408544e-05 -0.00018439051)
(5.8004741e-05 -0.00016702548 -6.6366694e-06)
(4.0887865e-05 -3.995214e-05 -3.8190036e-07)
(-0.00029496892 0.0002485706 1.1251702e-05)
(-0.0010110204 0.00056212796 2.5617764e-05)
(-0.0020992263 0.0008474997 4.0602747e-05)
(-0.0035140876 0.0010831231 5.4610907e-05)
(-0.005194687 0.0012643031 6.6515001e-05)
(-0.0070766314 0.0013940692 7.556268e-05)
(-0.0090981527 0.0014779617 8.1272062e-05)
(-0.011202309 0.0015215277 8.3343499e-05)
(-0.013337038 0.0015292114 8.1593746e-05)
(-0.015454181 0.0015039759 7.591288e-05)
(-0.017508154 0.0014473575 6.624254e-05)
(-0.01945472 0.0013597781 5.2571918e-05)
(-0.02125016 0.001241002 3.494708e-05)
(-0.02285098 0.0010906586 1.348917e-05)
(-0.02421423 0.00090877505 -1.1582789e-05)
(-0.025298437 0.00069627569 -3.9928739e-05)
(-0.02606506 0.00045541429 -7.1067936e-05)
(-0.026480401 0.00019010665 -0.00010436626)
(-0.026517817 -9.386538e-05 -0.00013903314)
(-0.026159989 -0.00038877556 -0.00017413723)
(-0.02540117 -0.00068509049 -0.00020862254)
(-0.02424917 -0.00097175895 -0.00024135625)
(-0.022726751 -0.0012366941 -0.00027118234)
(-0.020872349 -0.0014674287 -0.00029698938)
(-0.018739913 -0.0016519061 -0.00031778592)
(-0.016397718 -0.0017793506 -0.00033277698)
(-0.013926127 -0.0018411454 -0.00034143534)
(-0.011414317 -0.0018316352 -0.00034356121)
(-0.0089560967 -0.0017487774 -0.00033932459)
(-0.0066450034 -0.0015945885 -0.00032928486)
(-0.0045688969 -0.0013753903 -0.00031438385)
(-0.0028042256 -0.0011019661 -0.00029591356)
(-0.001410022 -0.00078992185 -0.00027546331)
(-0.00042163466 -0.0004605888 -0.00025484447)
(0.00015577065 -0.00014255849 -0.00023597109)
(0.00035672987 0.00012231673 -0.00022086421)
(0.00027526616 0.00027112905 -0.00021162875)
(9.0124729e-05 0.00020509662 -0.00019544741)
(1.9194467e-06 -0.00014895514 -2.0422562e-05)
(-0.00025604526 0.00029702904 -1.180334e-05)
(-0.0010504478 0.0010236316 9.5029533e-08)
(-0.0023878239 0.0017975447 1.3075199e-05)
(-0.0042394419 0.0025099075 2.6111454e-05)
(-0.006545562 0.0031100601 3.806291e-05)
(-0.0092251248 0.0035809278 4.8102662e-05)
(-0.012190001 0.0039234349 5.5670115e-05)
(-0.015352991 0.0041461867 6.0383573e-05)
(-0.018631058 0.004259592 6.1986268e-05)
(-0.021946082 0.0042728157 6.0305265e-05)
(-0.025224259 0.0041924758 5.522282e-05)
(-0.028394926 0.0040224699 4.6662668e-05)
(-0.031389394 0.0037645239 3.4589713e-05)
(-0.034140224 0.0034191702 1.902007e-05)
(-0.036581147 0.0029869394 3.8190867e-08)
(-0.038647755 0.0024696053 -2.2182189e-05)
(-0.040278949 0.0018713584 -4.7356653e-05)
(-0.04141906 0.0011998077 -7.5071541e-05)
(-0.042020508 0.00046672949 -0.00010477177)
(-0.042046773 -0.00031150038 -0.00013575945)
(-0.041475477 -0.0011138122 -0.00016719964)
(-0.040301323 -0.0019148769 -0.00019814553)
(-0.038538562 -0.0026858628 -0.00022757406)
(-0.036222758 -0.0033956788 -0.00025443664)
(-0.033411587 -0.0040126083 -0.0002777221)
(-0.030184432 -0.0045062497 -0.0002965276)
(-0.026640648 -0.0048496379 -0.00031013108)
(-0.022896384 -0.0050213891 -0.00031805782)
(-0.019080023 -0.0050076881 -0.00032013419)
(-0.015326332 -0.0048039541 -0.00031652345)
(-0.011769573 -0.0044160691 -0.00030773987)
(-0.0085358373 -0.0038611619 -0.00029463772)
(-0.0057348835 -0.0031681031 -0.0002783734)
(-0.0034517071 -0.002378115 -0.00026034325)
(-0.0017379823 -0.0015461892 -0.0002421012)
(-0.00060368481 -0.00074418881 -0.00022525268)
(-8.0360025e-06 -6.6360243e-05 -0.0002113886)
(0.00015540871 0.00036039704 -0.00020220297)
(7.3554083e-05 0.0003543789 -0.00018529076)
(-6.4683812e-05 5.0428589e-05 -3.8674439e-05)
(-0.00060837991 0.001045767 -2.6135248e-05)
(-0.0019305379 0.002381743 -1.2153941e-05)
(-0.0039464387 0.0037565241 1.1389436e-06)
(-0.0065890176 0.0050153179 1.3727274e-05)
(-0.009779205 0.006080066 2.4851579e-05)
(-0.013417134 0.0069205234 3.3974637e-05)
(-0.017395539 0.0075341142 4.0761247e-05)
(-0.02160775 0.0079313966 4.4975515e-05)
(-0.025950712 0.0081270401 4.6445555e-05)
(-0.030325869 0.0081347679 4.5040516e-05)
(-0.03463882 0.0079650009 4.065405e-05)
(-0.038798388 0.0076243739 3.3199101e-05)
(-0.042715709 0.0071165069 2.2613434e-05)
(-0.046303778 0.0064435524 8.8734475e-06)
(-0.049477696 0.005608143 -7.9863106e-06)
(-0.052155753 0.0046154479 -2.7850578e-05)
(-0.054261316 0.0034751105 -5.0500453e-05)
(-0.055725444 0.0022028883 -7.5592985e-05)
(-0.056490046 0.0008218511 -0.00010264679)
(-0.056511345 -0.00063696975 -0.000131037)
(-0.055763447 -0.0021345967 -0.00015999846)
(-0.054241671 -0.0036248153 -0.00018864933)
(-0.05196532 -0.0050556213 -0.00021602301)
(-0.048979666 -0.0063713939 -0.00024111681)
(-0.045356812 -0.0075157193 -0.0002629529)
(-0.041195194 -0.0084347284 -0.00028064826)
(-0.036617537 -0.0090807509 -0.00029348791)
(-0.031767145 -0.0094160281 -0.00030099332)
(-0.02680252 -0.0094162027 -0.00030297689)
(-0.021890419 -0.0090733062 -0.00029957553)
(-0.017197571 -0.0083980423 -0.00029125973)
(-0.012881385 -0.0074212974 -0.00027881738)
(-0.0090800541 -0.0061950242 -0.00026331211)
(-0.005902483 -0.0047929337 -0.00024601597)
(-0.0034184993 -0.0033118195 -0.00022832178)
(-0.0016495331 -0.0018745337 -0.00021165414)
(-0.00055980089 -0.00063470762 -0.00019740039)
(-5.0114256e-05 0.00021500337 -0.00018679523)
(3.8094982e-05 0.00041383224 -0.00016798759)
(-0.00013086538 0.00044556525 -5.8190693e-05)
(-0.00097095028 0.002242692 -4.1125234e-05)
(-0.0028462131 0.0043591869 -2.4242867e-05)
(-0.0055648146 0.0064572151 -9.8105472e-06)
(-0.0090094434 0.0083534765 3.1080769e-06)
(-0.013075462 0.0099514524 1.4088182e-05)
(-0.01764228 0.011211748 2.2866733e-05)
(-0.022584682 0.012129584 2.9338926e-05)
(-0.027779634 0.012717525 3.3427651e-05)
(-0.033108114 0.012994146 3.5060108e-05)
(-0.038455495 0.012977365 3.4158984e-05)
(-0.043711128 0.012681214 3.0635829e-05)
(-0.048767519 0.012115129 2.4393725e-05)
(-0.053519632 0.011284987 1.533913e-05)
(-0.057864699 0.010195259 3.4007353e-06)
(-0.061702794 0.0088517409 -1.1446851e-05)
(-0.064938228 0.0072644396 -2.9156902e-05)
(-0.067481793 0.0054502914 -4.9584245e-05)
(-0.069253702 0.003435435 -7.2461312e-05)
(-0.070187074 0.0012568429 -9.7379591e-05)
(-0.070231725 -0.0010368519 -0.00012377973)
(-0.069358017 -0.0033854759 -0.00015095308)
(-0.067560463 -0.0057183962 -0.00017805858)
(-0.064860799 -0.0079566865 -0.00020415475)
(-0.061310201 -0.010016304 -0.00022824747)
(-0.056990366 -0.011812191 -0.00024935111)
(-0.052013154 -0.013263141 -0.00026655957)
(-0.046518561 -0.014297146 -0.00027912183)
(-0.040670851 -0.01485689 -0.00028651462)
(-0.034652768 -0.014904998 -0.00028850229)
(-0.028657899 -0.01442861 -0.00028517382)
(-0.022881407 -0.013442969 -0.00027695069)
(-0.017509482 -0.011993826 -0.00026456477)
(-0.012708058 -0.010158717 -0.00024901014)
(-0.0086114676 -0.0080475004 -0.0002314705)
(-0.0053117551 -0.0058029609 -0.00021323049)
(-0.0028485202 -0.0036024764 -0.00019560741)
(-0.0012000347 -0.0016605445 -0.00017986344)
(-0.00028880973 -0.00023377903 -0.00016671742)
(-2.4715533e-06 0.00035046389 -0.00014548383)
(-0.00019286502 0.0010313062 -7.6670979e-05)
(-0.0013239871 0.0038925329 -5.476681e-05)
(-0.0037518585 0.0069679985 -3.4562045e-05)
(-0.0071733021 0.0099108183 -1.8468605e-05)
(-0.01141481 0.012527397 -4.6728924e-06)
(-0.016341487 0.014714504 6.6899428e-06)
(-0.021809623 0.016430502 1.5606889e-05)
(-0.027675882 0.017672018 2.2192503e-05)
(-0.0338024 0.018455248 2.6525247e-05)
(-0.040056851 0.018803213 2.8631884e-05)
(-0.04631184 0.018738078 2.8489697e-05)
(-0.052444062 0.018277407 2.6027765e-05)
(-0.058333357 0.017433435 2.1136513e-05)
(-0.063862063 0.016214494 1.3685708e-05)
(-0.068914993 0.014627823 3.5487532e-06)
(-0.073380203 0.012683108 -9.3685101e-06)
(-0.077150615 0.010396209 -2.5096573e-05)
(-0.080126455 0.007792637 -4.3570966e-05)
(-0.082218395 0.004910445 -6.4603402e-05)
(-0.083351221 0.0018022812 -8.7858166e-05)
(-0.083467824 -0.0014636092 -0.0001128369)
(-0.082533263 -0.0048035799 -0.00013887568)
(-0.080538654 -0.0081200479 -0.0001651566)
(-0.077504587 -0.011304336 -0.00019073795)
(-0.073483764 -0.014240831 -0.0002146018)
(-0.068562534 -0.016812391 -0.00023571743)
(-0.062861005 -0.018906782 -0.00025311608)
(-0.0565314 -0.020423861 -0.000265971)
(-0.049754416 -0.021283051 -0.00027367542)
(-0.042733402 -0.021430611 -0.00027590949)
(-0.035686357 -0.020846122 -0.00027268546)
(-0.028835913 -0.019547674 -0.00026436087)
(-0.022397705 -0.017595393 -0.0002516157)
(-0.01656776 -0.015093169 -0.00023539688)
(-0.011509867 -0.012188859 -0.00021683621)
(-0.0073438997 -0.0090736715 -0.00019715928)
(-0.0041345362 -0.0059816734 -0.00017764483)
(-0.0018815981 -0.0031890386 -0.00015952984)
(-0.00053619243 -0.0010143225 -0.00014313739)
(-4.1245713e-05 0.00015894854 -0.00011904569)
(-0.00025011673 0.0017985703 -9.2157794e-05)
(-0.0016597734 0.0059841404 -6.5267374e-05)
(-0.0046244578 0.010198616 -4.1580935e-05)
(-0.0087321719 0.01410702 -2.3526112e-05)
(-0.013751608 0.017522336 -8.4877794e-06)
(-0.019515083 0.020347117 3.6511779e-06)
(-0.025854148 0.022545924 1.3102572e-05)
(-0.032607012 0.024122002 2.0182427e-05)
(-0.039621884 0.025098108 2.5112933e-05)
(-0.046755013 0.025503178 2.8012357e-05)
(-0.053868801 0.025364228 2.8906336e-05)
(-0.060830248 0.024702537 2.773565e-05)
(-0.067509641 0.023533174 2.437181e-05)
(-0.073779768 0.021866979 1.8640785e-05)
(-0.079515879 0.019714124 1.0352679e-05)
(-0.084596503 0.017088491 -6.6414407e-07)
(-0.088905129 0.014012234 -1.4526185e-05)
(-0.092332705 0.010520009 -3.1257485e-05)
(-0.094780824 0.0066624816 -5.0754592e-05)
(-0.09616547 0.0025088066 -7.2756815e-05)
(-0.096421123 -0.0018521452 -9.682506e-05)
(-0.095505032 -0.0063119943 -0.00012233362)
(-0.093401435 -0.01074459 -0.000148476)
(-0.090125482 -0.015009424 -0.00017429198)
(-0.085726506 -0.018956669 -0.00019871374)
(-0.080290343 -0.022433824 -0.00022063188)
(-0.073940284 -0.025293748 -0.00023897602)
(-0.066836242 -0.027403771 -0.00025280271)
(-0.059171755 -0.028655378 -0.00026138156)
(-0.051168507 -0.028973823 -0.00026427064)
(-0.043068247 -0.028326927 -0.0002613713)
(-0.035122196 -0.026732283 -0.00025295183)
(-0.027578339 -0.024262246 -0.00023963181)
(-0.020667346 -0.021046307 -0.00022232535)
(-0.01458835 -0.017270901 -0.00020214823)
(-0.0094958197 -0.013177225 -0.00018031822)
(-0.0054864895 -0.0090579294 -0.00015814038)
(-0.0025879525 -0.0052522179 -0.00013690845)
(-0.00078446872 -0.0021405351 -0.00011662613)
(-7.6873259e-05 -0.00016053757 -8.9422041e-05)
(-0.00030295629 0.0027365292 -0.00010298143)
(-0.0019754996 0.0084981041 -7.1010359e-05)
(-0.0054521432 0.01402858 -4.3862454e-05)
(-0.010217976 0.019021394 -2.3717715e-05)
(-0.015985185 0.023311101 -7.2224218e-06)
(-0.022552803 0.026818203 5.9665326e-06)
(-0.029727189 0.029522438 1.6263794e-05)
(-0.037328213 0.031439785 2.4167236e-05)
(-0.04519099 0.032603411 3.0026914e-05)
(-0.053161896 0.033050381 3.4039725e-05)
(-0.061095252 0.0328137 3.6268781e-05)
(-0.068850863 0.031918831 3.6656913e-05)
(-0.076292144 0.03038379 3.5047622e-05)
(-0.083284993 0.028221865 3.1214108e-05)
(-0.089697553 0.025446023 2.4894079e-05)
(-0.095400893 0.022074174 1.5829023e-05)
(-0.10027057 0.018134571 3.8066577e-06)
(-0.10418904 0.013670803 -1.1295424e-05)
(-0.10704872 0.0087459295 -2.9467685e-05)
(-0.10875573 0.0034454471 -5.0531509e-05)
(-0.10923405 -0.0021211638 -7.4110826e-05)
(-0.10842999 -0.0078205196 -9.9617959e-05)
(-0.10631684 -0.01349715 -0.0001262526)
(-0.10289945 -0.018977287 -0.00015302509)
(-0.098218427 -0.024074607 -0.00017879937)
(-0.09235356 -0.028597964 -0.00020235964)
(-0.085426037 -0.032360983 -0.00022249668)
(-0.077598902 -0.035193194 -0.00023810606)
(-0.069075168 -0.036952162 -0.00024828725)
(-0.060093121 -0.037535853 -0.0002524319)
(-0.050918476 -0.036894262 -0.00025029078)
(-0.041833361 -0.035039218 -0.00024200991)
(-0.033122487 -0.032051383 -0.00022812757)
(-0.025057301 -0.028083648 -0.00020952519)
(-0.01787965 -0.023360681 -0.00018732942)
(-0.01178648 -0.018174998 -0.00016280065)
(-0.0069140686 -0.012880397 -0.00013733623)
(-0.0033238378 -0.0078822623 -0.00011236359)
(-0.0010368623 -0.0036261488 -8.7655889e-05)
(-0.00011093462 -0.00060701898 -5.7217205e-05)
(-0.00035169329 0.0038338216 -0.00010767831)
(-0.0022696864 0.011410362 -7.0521583e-05)
(-0.0062274805 0.018427302 -4.0043641e-05)
(-0.011614751 0.024619959 -1.7793099e-05)
(-0.018090319 0.029857563 2.7093873e-07)
(-0.025421024 0.034089881 1.4700305e-05)
(-0.033388718 0.037320716 2.6094528e-05)
(-0.041795675 0.03958525 3.511447e-05)
(-0.050464971 0.040931444 4.2221175e-05)
(-0.059234592 0.041407239 4.7675434e-05)
(-0.067952676 0.041053185 5.1564899e-05)
(-0.07647404 0.039899667 5.3822902e-05)
(-0.084657597 0.037967841 5.4254231e-05)
(-0.092364713 0.035273271 5.2568902e-05)
(-0.09945859 0.03183129 4.8421723e-05)
(-0.10580463 0.027663184 4.1456436e-05)
(-0.11127169 0.022802465 3.135342e-05)
(-0.11573423 0.01730063 1.7879393e-05)
(-0.11907517 0.011231986 9.3665661e-07)
(-0.12118942 0.0046971945 -1.93914e-05)
(-0.12198809 -0.0021747103 -4.2803019e-05)
(-0.12140313 -0.0092260675 -6.8756597e-05)
(-0.11939248 -0.016272193 -9.6460239e-05)
(-0.11594549 -0.023105288 -0.00012489093)
(-0.11108823 -0.029500581 -0.00015283245)
(-0.10488841 -0.035224941 -0.00017894081)
(-0.097459313 -0.040047912 -0.00020183403)
(-0.088962031 -0.04375492 -0.00022020036)
(-0.079605256 -0.046162115 -0.00023291388)
(-0.069641889 -0.04713196 -0.00023914269)
(-0.059361865 -0.046588361 -0.00023843495)
(-0.049080954 -0.044529875 -0.00023077178)
(-0.039125755 -0.041039498 -0.00021657956)
(-0.029815744 -0.036289759 -0.00019669424)
(-0.021444141 -0.030542381 -0.00017226654)
(-0.014259509 -0.024142639 -0.00014464216)
(-0.008446122 -0.017509198 -0.00011537711)
(-0.0041057553 -0.011119102 -8.6110873e-05)
(-0.0013000792 -0.0054896927 -5.6450853e-05)
(-0.00014466049 -0.0011817403 -2.249936e-05)
(-0.00039639261 0.0050786753 -0.00010492927)
(-0.0025408056 0.014693489 -6.244846e-05)
(-0.006944215 0.023357982 -2.8842321e-05)
(-0.01290925 0.030860814 -4.5407458e-06)
(-0.020045661 0.037117355 1.5139068e-05)
(-0.028090315 0.042116911 3.0946365e-05)
(-0.036802159 0.045895791 4.3651264e-05)
(-0.045967209 0.048514822 5.4060603e-05)
(-0.055397848 0.050041366 6.2730281e-05)
(-0.064925217 0.050537309 6.9970328e-05)
(-0.074393077 0.0500526 7.5879757e-05)
(-0.083653298 0.04862349 8.0370546e-05)
(-0.092562458 0.046274538 8.3197715e-05)
(-0.10097956 0.043023319 8.3997109e-05)
(-0.10876487 0.038886827 8.2329006e-05)
(-0.11577978 0.033888626 7.7726662e-05)
(-0.12188764 0.028066014 6.9748944e-05)
(-0.1269554 0.021476601 5.803575e-05)
(-0.13085612 0.014203879 4.2364196e-05)
(-0.13347226 0.0063614892 2.2702937e-05)
(-0.13469977 -0.0019040854 -7.402312e-07)
(-0.13445283 -0.010412654 -2.7489396e-05)
(-0.1326696 -0.018951377 -5.6772242e-05)
(-0.12931855 -0.027278403 -8.7537476e-05)
(-0.12440509 -0.035129035 -0.00011848355)
(-0.11797826 -0.042224889 -0.00014812133)
(-0.11013685 -0.048286165 -0.00017486536)
(-0.10103395 -0.053046899 -0.00019715006)
(-0.090879083 -0.056272748 -0.00021356233)
(-0.079936768 -0.057780334 -0.00022297504)
(-0.068520634 -0.057456693 -0.00022466237)
(-0.056982433 -0.055276924 -0.00021837959)
(-0.045695958 -0.051317904 -0.00020439704)
(-0.03503666 -0.045766098 -0.00018348085)
(-0.025358975 -0.038918054 -0.00015680613)
(-0.016973702 -0.031173319 -0.00012583474)
(-0.010123128 -0.023020491 -9.2343603e-05)
(-0.004957303 -0.015016288 -5.8265241e-05)
(-0.0015839109 -0.00776017 -2.3093003e-05)
(-0.00018000454 -0.0018919985 1.477149e-05)
(-0.00043687345 0.0064585697 -9.3531879e-05)
(-0.0027868528 0.018316905 -4.5552243e-05)
(-0.0075959012 0.028778328 -9.0678761e-06)
(-0.014088642 0.037694915 1.718599e-05)
(-0.021830809 0.04503822 3.8489799e-05)
(-0.030532271 0.050846284 5.5782174e-05)
(-0.039931321 0.055195703 6.9992247e-05)
(-0.049799512 0.058179129 8.2057984e-05)
(-0.059940136 0.059887933 9.2615748e-05)
(-0.070179119 0.06040116 0.00010201154)
(-0.080357622 0.059780205 0.00011034361)
(-0.090326509 0.058068289 0.00011749154)
(-0.099942081 0.055293697 0.00012315016)
(-0.10906305 0.051475679 0.00012687052)
(-0.11754872 0.046631959 0.00012810641)
(-0.12525817 0.040786894 0.00012626637)
(-0.13205051 0.033979548 0.0001207707)
(-0.1377859 0.026271128 0.00011111235)
(-0.14232754 0.017751399 9.691994e-05)
(-0.14554452 0.0085438151 7.8021048e-05)
(-0.14731572 -0.0011908573 5.4501294e-05)
(-0.14753462 -0.011252634 2.6738382e-05)
(-0.14611544 -0.021402754 -4.5368827e-06)
(-0.14300051 -0.031366232 -3.8263126e-05)
(-0.13816826 -0.040837688 -7.3058616e-05)
(-0.13164197 -0.049490598 -0.00010727844)
(-0.12349841 -0.056990434 -0.00013910559)
(-0.11387531 -0.063011811 -0.00016667376)
(-0.10297655 -0.067259347 -0.00018821596)
(-0.091073523 -0.069491285 -0.00020222586)
(-0.078501391 -0.069544188 -0.00020761091)
(-0.065648986 -0.06735634 -0.00020381314)
(-0.052942011 -0.062986919 -0.00019087848)
(-0.040820058 -0.056628018 -0.00016946159)
(-0.029709665 -0.048607164 -0.00014074949)
(-0.01999622 -0.039379405 -0.00010633965)
(-0.01199217 -0.029509503 -6.8285406e-05)
(-0.0059060243 -0.019644351 -2.8894449e-05)
(-0.0018995939 -0.010479295 1.2414081e-05)
(-0.00021911051 -0.0027504897 5.4751756e-05)
(-0.00047276093 0.0079598532 -7.2395315e-05)
(-0.0030053075 0.022246666 -1.8711225e-05)
(-0.008175483 0.034640712 2.0365779e-05)
(-0.01513964 0.045066391 4.8446381e-05)
(-0.023425075 0.053560166 7.1361459e-05)
(-0.03271809 0.060216905 9.02321e-05)
(-0.042738981 0.065160517 0.0001061365)
(-0.053246925 0.06852123 0.00012013088)
(-0.064037882 0.070418881 0.00013291995)
(-0.074934241 0.07095292 0.00014487469)
(-0.085776311 0.07019836 0.00015608263)
(-0.096415827 0.068206614 0.00016638168)
(-0.10671081 0.065010088 0.00017539752)
(-0.11652174 0.060629351 0.0001825868)
(-0.12570895 0.055081783 0.00018728541)
(-0.1341311 0.048390753 0.00018876248)
(-0.14164462 0.040594628 0.00018628052)
(-0.14810402 0.031755109 0.00017916125)
(-0.15336319 0.021964579 0.00016685545)
(-0.15727766 0.011352261 0.00014901407)
(-0.15970802 8.9013599e-05 0.0001255573)
(-0.16052491 -0.011609441 9.6745572e-05)
(-0.15961529 -0.023481694 6.3207811e-05)
(-0.15689041 -0.035221787 2.5986993e-05)
(-0.15229557 -0.046484022 -1.3474107e-05)
(-0.14582083 -0.056891692 -5.3375982e-05)
(-0.13751249 -0.066050536 -9.1647964e-05)
(-0.12748404 -0.073567428 -0.00012607593)
(-0.11592513 -0.07907426 -0.00015446693)
(-0.10310687 -0.082256242 -0.00017483979)
(-0.08938123 -0.08288284 -0.00018562209)
(-0.075173048 -0.080838449 -0.00018582525)
(-0.060963176 -0.076149011 -0.00017516812)
(-0.04726309 -0.069000364 -0.00015412262)
(-0.034583091 -0.059744613 -0.00012385537)
(-0.023397397 -0.048892504 -8.6106831e-05)
(-0.014103446 -0.037091895 -4.3256708e-05)
(-0.0069814329 -0.025092621 1.9288114e-06)
(-0.0022590059 -0.013702947 5.0076153e-05)
(-0.00026414585 -0.0037760389 9.763202e-05)
(-0.00050355115 0.0095674416 -4.0549818e-05)
(-0.0031932765 0.026445189 1.9067012e-05)
(-0.008675406 0.040892101 6.0422899e-05)
(-0.016048496 0.052912588 9.0188561e-05)
(-0.024807366 0.06261542 0.00011469253)
(-0.03461842 0.070159225 0.00013523113)
(-0.045186795 0.075721408 0.00015302242)
(-0.056261503 0.079475008 0.00016922965)
(-0.067632972 0.08157255 0.00018461617)
(-0.079121713 0.082137096 0.00019956987)
(-0.090568872 0.081259519 0.00021416051)
(-0.10182886 0.079000774 0.00022817795)
(-0.11276336 0.075397893 0.00024117203)
(-0.1232367 0.07047245 0.00025249722)
(-0.13311239 0.06424036 0.00026136131)
(-0.14225078 0.056722072 0.00026687982)
(-0.15050761 0.047952511 0.00026813753)
(-0.15773347 0.037990337 0.00026425779)
(-0.16377429 0.026926306 0.0002544787)
(-0.16847278 0.014890606 0.00023823333)
(-0.17167133 0.0020590329 0.00021523159)
(-0.17321661 -0.011342255 0.0001855493)
(-0.17296593 -0.025033765 0.00014967403)
(-0.17079571 -0.038682247 0.00010857647)
(-0.16661244 -0.051903619 6.3719813e-05)
(-0.16036551 -0.064270378 1.7038114e-05)
(-0.15206157 -0.075324605 -2.9136137e-05)
(-0.14177939 -0.084597519 -7.2199399e-05)
(-0.12968348 -0.091636042 -0.00010945664)
(-0.11603435 -0.096035946 -0.00013834364)
(-0.10119274 -0.097479896 -0.0001566736)
(-0.085615083 -0.095777105 -0.0001628784)
(-0.069838049 -0.090899833 -0.00015620642)
(-0.054451421 -0.083010927 -0.0001368333)
(-0.040061183 -0.072476744 -0.00010583946)
(-0.027246485 -0.059861712 -6.509651e-05)
(-0.016507705 -0.045903615 -1.7354924e-05)
(-0.008213771 -0.031469866 3.4073037e-05)
(-0.00267432 -0.017501842 8.9838943e-05)
(-0.0003172957 -0.0049938551 0.00014355565)
(-0.00052868076 0.011264647 2.8348105e-06)
(-0.0033477391 0.030871103 6.8627042e-05)
(-0.0090880533 0.047474051 0.00011192509)
(-0.016801586 0.061164145 0.0001432242)
(-0.025956889 0.072128397 0.00016929063)
(-0.036204181 0.08059491 0.00019158767)
(-0.047236294 0.086799862 0.00021146437)
(-0.058794243 0.090963767 0.00023018117)
(-0.070664655 0.093275767 0.00024855287)
(-0.082667721 0.09388567 0.00026697932)
(-0.094646996 0.092902527 0.00028550917)
(-0.10646127 0.090398322 0.00030388143)
(-0.11797782 0.086415379 0.0003215669)
(-0.12906689 0.080976105 0.00033781283)
(-0.13959748 0.074093915 0.0003516908)
(-0.14943402 0.065784414 0.0003621499)
(-0.15843404 0.056076244 0.00036807782)
(-0.1664467 0.045021274 0.00036837151)
(-0.17331223 0.032704006 0.00036201817)
(-0.17886253 0.019250184 0.00034818479)
(-0.18292318 0.0048345346 0.00032631421)
(-0.18531738 -0.010312571 0.00029622626)
(-0.18587199 -0.025899807 0.00025820244)
(-0.18442618 -0.041572074 0.00021307053)
(-0.18084315 -0.056910854 0.00016225194)
(-0.17502466 -0.071439352 0.00010777097)
(-0.16692828 -0.084633988 5.2207047e-05)
(-0.15658627 -0.095943789 -1.4214132e-06)
(-0.14412461 -0.10481883 -4.9845261e-05)
(-0.12977948 -0.11074796 -8.9799093e-05)
(-0.113908 -0.11330453 -0.00011832418)
(-0.096989368 -0.11219671 -0.00013308885)
(-0.079612827 -0.10731675 -0.00013268139)
(-0.062450283 -0.098781327 -0.00011681465)
(-0.04621468 -0.086954994 -8.6368056e-05)
(-0.031607745 -0.072449909 -4.3299268e-05)
(-0.019254152 -0.056099263 9.2376013e-06)
(-0.0096331381 -0.038903927 6.7290353e-05)
(-0.0031578294 -0.021961653 0.00013151823)
(-0.0003807851 -0.0064355928 0.00019254424)
(-0.00054759929 0.013033167 5.8425958e-05)
(-0.0034658581 0.035479372 0.00013064398)
(-0.0094063975 0.054322969 0.00017552908)
(-0.017386396 0.069745287 0.00020820304)
(-0.026854435 0.082015892 0.00023580212)
(-0.037448153 0.091436753 0.00025994685)
(-0.048850774 0.098307147 0.00028210869)
(-0.060797323 0.10289913 0.00030363703)
(-0.073072178 0.10544208 0.00032539362)
(-0.085496592 0.10611561 0.00034778877)
(-0.097917948 0.10504935 0.00037085055)
(-0.110201 0.10232799 0.00039426865)
(-0.12222042 0.098000031 0.0004174359)
(-0.13385451 0.092088788 0.00043949136)
(-0.14498015 0.08460437 0.00045936564)
(-0.15546858 0.075555807 0.0004758312)
(-0.16518214 0.064962754 0.00048756106)
(-0.17397175 0.052866568 0.00049319879)
(-0.1816753 0.039340758 0.00049144195)
(-0.18811716 0.02450089 0.00048113923)
(-0.19310912 0.0085140063 0.00046140001)
(-0.19645328 -0.0083925686 0.00043171334)
(-0.19794729 -0.025923368 0.00039206492)
(-0.19739265 -0.043708869 0.0003430499)
(-0.19460649 -0.061302523 0.00028596142)
(-0.18943731 -0.078182571 0.00022284096)
(-0.18178454 -0.093760683 0.00015646906)
(-0.17162149 -0.10739972 9.027629e-05)
(-0.15902009 -0.11844267 2.8159905e-05)
(-0.14417482 -0.12625405 -2.5796193e-05)
(-0.1274219 -0.13027328 -6.7684475e-05)
(-0.1092488 -0.13007711 -9.4187429e-05)
(-0.090288549 -0.12544458 -0.00010298992)
(-0.071294715 -0.11641496 -9.3111414e-05)
(-0.053096438 -0.10332684 -6.5050682e-05)
(-0.036536436 -0.086827872 -2.0755035e-05)
(-0.02238844 -0.067848918 3.6209378e-05)
(-0.011268762 -0.04754043 0.00010115329)
(-0.0037218432 -0.027182722 0.00017472422)
(-0.00045691163 -0.0081393821 0.00024442022)
(-0.00055984477 0.014853262 0.00012670385)
(-0.003545338 0.040221774 0.00020560215)
(-0.0096248089 0.061370777 0.00025170573)
(-0.017792803 0.078574527 0.00028558931)
(-0.027484127 0.092187642 0.00031468388)
(-0.038327159 0.10258895 0.00034075591)
(-0.049997928 0.11014417 0.00036539122)
(-0.062227201 0.11518036 0.00039002192)
(-0.074798408 0.11797048 0.00041555534)
(-0.087535021 0.11872695 0.00044241471)
(-0.10028947 0.11760246 0.00047061229)
(-0.11293389 0.11469632 0.00049979445)
(-0.12535206 0.11006442 0.00052928202)
(-0.13743243 0.10373138 0.0005581099)
(-0.14906227 0.095703597 0.00058506781)
(-0.16012262 0.085982165 0.00060874562)
(-0.17048407 0.074575414 0.00062758772)
(-0.18000324 0.061510786 0.00063996016)
(-0.18852004 0.046846251 0.00064423423)
(-0.19585597 0.030681467 0.00063888846)
(-0.20181373 0.013168863 0.00062262975)
(-0.20617875 -0.0054753489 0.00059453137)
(-0.2087231 -0.024960525 0.00055418123)
(-0.20921262 -0.04491216 0.00050183052)
(-0.20741816 -0.064864855 0.00043852992)
(-0.20313139 -0.084259653 0.00036623174)
(-0.19618605 -0.1024483 0.00028783389)
(-0.18648429 -0.11870744 0.00020713665)
(-0.17402712 -0.13226603 0.00012868509)
(-0.15894668 -0.14234853 5.7480104e-05)
(-0.14153584 -0.14823509 -1.4392412e-06)
(-0.12226912 -0.14933666 -4.3513055e-05)
(-0.10180729 -0.14527869 -6.5219622e-05)
(-0.080978725 -0.13598182 -6.4576808e-05)
(-0.060733906 -0.12172372 -4.1439694e-05)
(-0.042074315 -0.1031659 2.4238628e-06)
(-0.025950478 -0.081333242 6.307065e-05)
(-0.013148241 -0.057540539 0.00013498363)
(-0.0043785971 -0.033279405 0.00021877582)
(-0.00054808331 -0.010149843 0.00029872005)
(-0.00056512281 0.016704136 0.00020793937)
(-0.0035848221 0.045047813 0.00029377728)
(-0.0097399826 0.068546101 0.00034072344)
(-0.018014596 0.087565902 0.00037564278)
(-0.027835515 0.10254742 0.00040617974)
(-0.038824727 0.1139479 0.00043423393)
(-0.050653064 0.12220188 0.00046149852)
(-0.063048416 0.1276943 0.00048948482)
(-0.075794273 0.13074479 0.00051914825)
(-0.08871724 0.13160155 0.0005509319)
(-0.1016758 0.13044302 0.00058484172)
(-0.11455071 0.12738527 0.00062049166)
(-0.12723646 0.12249312 0.00065714142)
(-0.13963367 0.11579342 0.0006937312)
(-0.15164252 0.10728888 0.00072891567)
(-0.16315701 0.096971897 0.00076110215)
(-0.17405977 0.084837728 0.00078849814)
(-0.18421764 0.070897082 0.00080917339)
(-0.19347778 0.055188371 0.00082114101)
(-0.20166471 0.03778998 0.0008224616)
(-0.20857841 0.018832872 0.00081137278)
(-0.21399413 -0.0014862904 0.00078644435)
(-0.21766445 -0.022891664 0.00074675667)
(-0.2193246 -0.045015035 0.0006920881)
(-0.21870194 -0.067384154 0.00062310558)
(-0.21553096 -0.089414509 0.00054152949)
(-0.20957472 -0.11040753 0.00045024644)
(-0.20065358 -0.12955895 0.00035333328)
(-0.1886808 -0.14598189 0.00025595155)
(-0.17370326 -0.15874899 0.00016407664)
(-0.15594313 -0.16695712 8.4044872e-05)
(-0.13583341 -0.1698146 2.1933389e-05)
(-0.11403768 -0.16674579 -1.716907e-05)
(-0.091443306 -0.15750014 -2.9881286e-05)
(-0.06912048 -0.14224565 -1.504584e-05)
(-0.048244338 -0.1216226 2.6017864e-05)
(-0.029971803 -0.096736575 8.9093594e-05)
(-0.015296621 -0.069077572 0.00016776912)
(-0.0051401269 -0.040378991 0.00026260043)
(-0.00065685494 -0.012518071 0.00035459233)
(-0.00056338823 0.018564535 0.00030217737)
(-0.0035843183 0.049906099 0.00039522539)
(-0.0097519591 0.07577605 0.00044263893)
(-0.018051163 0.096630831 0.00047840771)
(-0.027905938 0.11299474 0.00051030452)
(-0.038934098 0.12540357 0.00054034872)
(-0.050802752 0.1343622 0.0005703358)
(-0.063237893 0.14031587 0.0006018565)
(-0.076023791 0.14363374 0.00063592161)
(-0.088990873 0.1446028 0.00067300619)
(-0.10200451 0.14343009 0.00071312481)
(-0.11495519 0.14025091 0.00075587505)
(-0.12774955 0.13514102 0.00080047142)
(-0.14030233 0.12813081 0.00084577406)
(-0.15252914 0.11922004 0.0008903144)
(-0.16434008 0.10839231 0.00093232401)
(-0.17563383 0.095628828 0.00096977286)