/*--------------------------------*- C++ -*----------------------------------*\
  =========                 |
  \\      /  F ield         | OpenFOAM: The Open Source CFD Toolbox
   \\    /   O peration     | Website:  https://openfoam.org
    \\  /    A nd           | Version:  7
     \\/     M anipulation  |
\*---------------------------------------------------------------------------*/
FoamFile
{
    version     2.0;
    format      ascii;
    class       volScalarField;
    location    "1.9";
    object      T;
}
// * * * * * * * * * * * * * * * * * * * * * * * * * * * * * * * * * * * * * //

dimensions      [0 0 0 1 0 0 0];

internalField   nonuniform List<scalar> 
1000
(
0
0
0
0
0
0
0
0
0
0
0
0
0
0
0
0
0
0
0
0
0
0
0
0
0
0
0
0
0
0
0
0
0
0
0
0
0
0
0
0
0
0
0
0
0
0
0
0
0
0
0
0
0
0
0
0
0
0
0
0
0
0
0
0
0
0
0
0
0
0
0
0
0
0
0
0
0
0
0
0
0
0
0
0
0
0
0
0
0
0
0
0
0
0
0
0
0
0
0
0
0
0
0
0
0
0
0
0
0
0
0
0
0
0
0
0
0
0
0
0
0
0
0
0
0
0
0
0
0
0
0
0
0
0
0
0
0
0
0
0
0
0
0
0
0
0
0
0
0
0
0
0
0
0
0
0
0
0
0
0
0
0
0
0
0
0
0
0
0
0
0
0
0
0
0
0
0
0
0
0
0
0
0
0
0
0
0
0
0
0
0
0
0
0
0
0
0
0
0
0
0
0
0
0
0
0
0
0
0
0
0
0
0
0
0
0
0
0
0
0
0
0
0
0
0
0
0
0
0
0
0
0
0
0
0
0
0
0
0
0
0
0
0
0
0
0
0
0
0
0
0
0
0
0
0
0
0
0
0
0
1.41665e-148
-6.26631e-146
1.3717e-143
-1.98092e-141
2.12279e-139
-1.80022e-137
1.25825e-135
-7.4537e-134
3.81945e-132
-1.71947e-130
6.88403e-129
-2.47514e-127
8.05663e-126
-2.39006e-124
6.49848e-123
-1.62723e-121
3.76796e-120
-8.0971e-119
1.61979e-117
-3.02453e-116
5.28377e-115
-8.65361e-114
1.33102e-112
-1.92558e-111
2.62358e-110
-3.37015e-109
4.08517e-108
-4.676e-107
5.05657e-106
-5.16748e-105
4.99086e-104
-4.5549e-103
3.92651e-102
-3.19484e-101
2.45094e-100
-1.77008e-99
1.20091e-98
-7.63153e-98
4.52424e-97
-2.48781e-96
1.2582e-95
-5.77517e-95
2.35121e-94
-8.10577e-94
2.0876e-93
-1.813e-93
-2.05677e-92
1.67741e-91
-7.93014e-91
2.58815e-90
-4.60554e-90
-8.81007e-90
1.15481e-88
-5.40183e-88
1.47051e-87
-9.41285e-88
-1.3724e-86
8.19633e-86
-2.41236e-85
1.91753e-85
1.91852e-84
-1.10364e-83
2.79062e-83
-4.36586e-86
-3.02458e-82
1.25672e-81
-1.92741e-81
-5.28981e-81
3.97952e-80
-9.70012e-80
-3.21674e-80
1.04277e-78
-3.32995e-78
1.67477e-78
2.47232e-77
-9.49369e-77
8.20946e-77
5.68903e-76
-2.40815e-75
2.29004e-75
1.33191e-74
-5.57693e-74
4.53334e-74
3.1878e-73
-1.17799e-72
5.43733e-73
7.5251e-72
-2.2148e-71
-2.97797e-72
1.66332e-70
-3.50545e-70
-3.99856e-70
3.26804e-69
-4.05429e-69
-1.37231e-68
5.38542e-68
-1.39302e-68
-3.20409e-67
6.73019e-67
8.09636e-67
-5.56002e-66
4.44544e-66
2.61406e-65
-6.82122e-65
-4.69239e-65
4.65625e-64
-4.18887e-64
-2.02326e-63
5.15413e-63
4.12374e-63
-3.33999e-62
2.07003e-62
1.50958e-61
-2.90585e-61
-4.38359e-61
1.98036e-60
2.23599e-62
-9.87766e-60
1.01285e-59
3.78098e-59
-8.53465e-59
-9.90947e-59
4.90034e-58
2.87344e-59
-2.26753e-57
1.72462e-57
8.7807e-57
-1.42938e-56
-2.79212e-56
8.13792e-56
6.42972e-56
-3.85306e-55
-2.91521e-56
1.608e-54
-7.94856e-55
-6.06002e-54
6.30616e-54
2.08236e-53
-3.43486e-53
-6.52182e-53
1.58488e-52
1.83892e-52
-6.60539e-52
-4.50243e-52
2.56199e-51
8.55547e-52
-9.41007e-51
-6.08639e-52
3.31167e-50
-4.96848e-51
-1.12655e-49
3.61509e-50
3.73001e-49
-1.68503e-49
-1.2087e-48
6.56009e-49
3.84953e-48
-2.28079e-48
-1.20839e-47
7.24672e-48
3.74361e-47
-2.1127e-47
-1.14435e-46
5.58581e-47
3.4453e-46
-1.28923e-46
-1.01835e-45
2.30455e-46
2.94155e-45
-1.39363e-46
-8.2549e-45
-1.33726e-45
2.23391e-44
9.06003e-45
-5.77316e-44
-4.01047e-44
1.40538e-43
1.48321e-43
-3.15304e-43
-4.88135e-43
6.25466e-43
1.46187e-42
-9.87237e-43
-4.00875e-42
7.21699e-43
1.00252e-41
2.81118e-42
-2.25177e-41
-1.75186e-41
4.38167e-41
6.30552e-41
-6.70534e-41
-1.79731e-40
5.04312e-41
4.29966e-40
1.41681e-40
-8.56981e-40
-8.37697e-40
1.31584e-39
2.64076e-39
-1.03812e-39
-6.24567e-39
-2.15281e-39
1.13743e-38
1.25884e-38
-1.38581e-38
-3.57118e-38
4.70299e-40
7.11279e-38
5.52821e-38
-9.42694e-38
-1.84142e-37
2.77718e-38
3.74513e-37
2.69714e-37
-4.67524e-37
-9.18269e-37
3.68519e-38
1.72185e-36
1.53464e-36
-1.67319e-36
-4.3677e-36
-1.25178e-36
6.53244e-36
8.74485e-36
-2.60673e-36
-1.79481e-35
-1.41739e-35
1.60171e-35
4.1466e-35
1.75817e-35
-5.1148e-35
-8.65681e-35
-1.13728e-35
1.32003e-34
1.71176e-34
-1.93575e-35
-3.0584e-34
-3.33511e-34
9.87006e-35
6.65853e-34
6.62234e-34
-2.53737e-34
-1.3929e-33
-1.36927e-33
4.75696e-34
2.82011e-33
2.9541e-33
-5.7746e-34
-5.49195e-33
-6.53832e-33
-2.29802e-34
1.00675e-32
1.44354e-32
4.41266e-33
-1.65662e-32
-3.07761e-32
-1.84275e-32
2.16582e-32
6.1022e-32
5.65788e-32
-1.14004e-32
-1.06453e-31
-1.44266e-31
-5.37701e-32
1.44243e-31
3.0983e-31
2.5946e-31
-7.8064e-32
-5.34125e-31
-7.34817e-31
-3.44833e-31
6.00084e-31
1.52993e-30
1.57637e-30
1.96249e-31
-2.17136e-30
-3.9677e-30
-3.27403e-30
7.26038e-31
6.45564e-30
9.98384e-30
7.03716e-30
-3.649e-30
-1.76518e-29
-2.53344e-29
-1.67203e-29
1.07609e-29
4.61505e-29
6.59906e-29
4.54667e-29
-2.33783e-29
-1.16153e-28
-1.7618e-28
-1.38333e-28
2.78377e-29
2.76151e-28
4.73306e-28
4.44219e-28
7.20186e-29
-5.86218e-28
-1.23819e-27
-1.42081e-27
-7.16577e-28
9.37076e-28
2.99672e-27
4.31578e-27
3.54183e-27
-1.23311e-28
-6.07584e-27
-1.18562e-26
-1.35947e-26
-7.59716e-27
7.24272e-27
2.71843e-26
4.29751e-26
4.21e-26
1.43178e-26
-4.08172e-26
-1.0763e-25
-1.53514e-25
-1.37366e-25
-2.79813e-26
1.7188e-25
4.05693e-25
5.61006e-25
4.96701e-25
1.02765e-25
-6.19615e-25
-1.48761e-24
-2.11871e-24
-2.00656e-24
-7.09068e-25
1.87792e-24
5.2471e-24
8.14331e-24
8.71744e-24
5.0754e-24
-3.79877e-24
-1.69578e-23
-3.06628e-23
-3.83672e-23
-3.20335e-23
-5.01513e-24
4.3839e-23
1.05958e-22
1.60546e-22
1.76038e-22
1.17411e-22
-4.01207e-23
-2.929e-22
-5.91119e-22
-8.29566e-22
-8.56306e-22
-5.07317e-22
3.30447e-22
1.63516e-21
3.16628e-21
4.41514e-21
4.63267e-21
2.97443e-21
-1.21689e-21
-8.01133e-21
-1.64517e-20
-2.42178e-20
-2.75931e-20
-2.19514e-20
-2.92863e-21
3.16931e-20
7.96065e-20
1.3164e-19
1.70339e-19
1.706e-19
1.03548e-19
-5.55184e-20
-3.15079e-19
-6.52628e-19
-1.00039e-18
-1.23669e-18
-1.1899e-18
-6.62173e-19
5.20935e-19
2.43344e-18
4.95029e-18
7.64383e-18
9.705e-18
9.93143e-18
6.83315e-18
-1.09414e-18
-1.4894e-17
-3.44741e-17
-5.77933e-17
-8.00544e-17
-9.31459e-17
-8.56721e-17
-4.39812e-17
4.53899e-17
1.91538e-16
3.93213e-16
6.31404e-16
8.61506e-16
1.00689e-15
9.56628e-16
5.70942e-16
-3.0142e-16
-1.78988e-15
-3.94978e-15
-6.69094e-15
-9.69095e-15
-1.23039e-14
-1.34841e-14
-1.17535e-14
-5.25349e-15
8.06968e-15
3.00931e-14
6.19084e-14
1.02943e-13
1.49818e-13
1.94996e-13
2.25388e-13
2.21172e-13
1.55257e-13
-6.02928e-15
-3.00254e-13
-7.63305e-13
-1.41994e-12
-2.26951e-12
-3.26623e-12
-4.29385e-12
-5.13562e-12
-5.44191e-12
-4.7e-12
-2.21344e-12
2.89804e-12
1.16627e-11
2.51648e-11
4.4371e-11
6.98452e-11
1.01318e-10
1.3708e-10
1.7316e-10
2.02285e-10
2.12606e-10
1.8625e-10
9.77723e-11
-8.72932e-11
-4.13501e-10
-9.35725e-10
-1.71788e-09
-2.82919e-09
-4.33675e-09
-6.29253e-09
-8.71269e-09
-1.15461e-08
-1.46284e-08
-1.76169e-08
-1.98999e-08
-2.04747e-08
-1.77837e-08
-9.49959e-09
7.75279e-09
3.87532e-08
9.01373e-08
1.70961e-07
2.93404e-07
4.73628e-07
7.32829e-07
1.09851e-06
1.60599e-06
2.30024e-06
3.23799e-06
4.49027e-06
6.14533e-06
8.312e-06
1.11236e-05
1.47425e-05
1.93649e-05
2.5227e-05
3.26108e-05
4.18518e-05
5.33466e-05
6.75621e-05
8.50442e-05
0.000106429
0.000132455
0.000163972
0.000201957
0.00024753
0.000301962
0.000366698
0.000443366
0.000533799
0.000640051
0.000764411
0.000909424
0.00107791
0.00127297
0.00149802
0.00175681
0.0020534
0.00239222
0.00277807
0.00321614
0.00371196
0.00427152
0.00490116
0.00560765
0.00639816
0.00728026
0.0082619
0.00935145
0.0105576
0.0118895
0.0133564
0.0149682
0.0167348
0.0186665
0.0207736
0.0230669
0.025557
0.0282548
0.0311711
0.0343167
0.0377024
0.0413388
0.0452361
0.0494046
0.0538539
0.0585935
0.0636322
0.0689785
0.0746401
0.0806241
0.0869371
0.0935846
0.100571
0.107902
0.115578
0.123603
0.131977
0.140701
0.149774
0.159193
0.168955
0.179056
0.18949
0.200251
0.211332
0.222723
0.234415
0.246397
0.258657
0.271183
0.28396
0.296976
0.310213
0.323657
0.33729
0.351096
0.365056
0.379152
0.393366
0.407679
0.422072
0.436525
0.451019
0.465534
0.480052
0.494553
0.509018
0.523429
0.537767
0.552015
0.566155
0.58017
0.594045
0.607763
0.621309
0.634669
0.647829
0.660777
0.673501
0.685988
0.698229
0.710213
0.721931
0.733376
0.744539
0.755413
0.765992
0.776271
0.786245
0.795908
0.805258
0.81429
0.823003
0.831393
0.839458
0.847196
0.854605
0.861685
0.868434
0.87485
0.880933
0.886681
0.892093
0.897168
0.901905
0.906302
0.910357
0.914069
0.917435
0.920454
0.923123
0.925439
0.927399
0.929
0.930238
0.931111
0.931614
0.931743
0.931494
0.930864
0.929847
0.928441
0.926641
0.924443
0.921844
0.91884
0.915427
0.911604
0.907367
0.902716
0.897647
0.892161
0.886257
0.879936
0.8732
0.866049
0.858487
0.850518
0.842146
0.833377
0.824217
0.814674
0.804756
0.794471
0.783832
0.772847
0.761531
0.749895
0.737953
0.725721
0.713213
0.700445
0.687436
0.674201
0.660759
0.647129
0.63333
0.619381
0.605301
0.591111
0.576831
0.56248
0.54808
0.533649
0.519209
0.504778
0.490376
0.476023
0.461736
0.447535
0.433437
0.419458
0.405616
0.391926
0.378403
0.365063
0.351917
0.338979
0.326261
0.313774
0.301528
0.289532
0.277795
0.266324
0.255126
0.244206
0.233571
0.223223
0.213166
0.203402
0.193933
0.18476
0.175884
0.167303
0.159016
0.151023
0.143319
0.135903
0.128771
0.121919
0.115342
0.109036
0.102995
0.0972149
0.0916888
0.0864108
0.0813746
0.0765739
0.0720018
0.0676516
0.0635164
0.0595893
0.0558631
0.0523309
0.0489855
0.0458201
0.0428275
0.0400009
0.0373334
0.0348184
0.0324491
0.030219
0.0281218
0.0261513
0.0243014
0.0225662
0.0209399
0.019417
0.0179921
0.01666
0.0154156
0.0142543
0.0131708
0.0121641
0.0112108
0.0104081
0.00922142
)
;

boundaryField
{
    sides
    {
        type            zeroGradient;
    }
    empty
    {
        type            empty;
    }
}


// ************************************************************************* //
