/*--------------------------------*- C++ -*----------------------------------*\
  =========                 |
  \\      /  F ield         | OpenFOAM: The Open Source CFD Toolbox
   \\    /   O peration     | Website:  https://openfoam.org
    \\  /    A nd           | Version:  7
     \\/     M anipulation  |
\*---------------------------------------------------------------------------*/
FoamFile
{
    version     2.0;
    format      ascii;
    class       volScalarField;
    location    "4.1";
    object      rho;
}
// * * * * * * * * * * * * * * * * * * * * * * * * * * * * * * * * * * * * * //

dimensions      [1 -3 0 0 0 0 0];

internalField   nonuniform List<scalar> 
19968
(
1.40001
1.40001
1.40001
1.40001
1.40001
1.40001
1.40001
1.40001
1.40001
1.40001
1.40001
1.40001
1.40001
1.40001
1.40001
1.40001
1.40001
1.40001
1.40001
1.40001
1.40001
1.40001
1.40001
1.40001
1.40001
1.40001
1.40001
1.40001
1.40001
1.40001
1.40001
1.40001
1.40001
1.40001
1.40001
1.40001
1.40001
1.40001
1.40001
1.40001
1.40001
1.40001
1.40001
1.40001
1.40001
1.40001
1.40001
1.40001
1.64046
4.48667
5.41522
5.42962
5.45409
5.47996
5.50618
5.52882
5.54696
5.56218
5.57748
5.59528
5.61641
5.63983
5.66304
5.68376
5.70111
5.71556
5.72851
5.74174
5.75677
5.77397
5.79228
5.81006
5.82613
5.8402
5.85257
5.86379
5.87471
5.88613
5.89813
5.91028
5.92202
5.93283
5.94231
5.95045
5.95758
5.96435
5.97157
5.9799
5.98906
5.99776
6.00442
6.00806
6.00892
6.00801
6.0068
6.00625
1.40001
1.40001
1.40001
1.40001
1.40001
1.40001
1.40001
1.40001
1.40001
1.40001
1.40001
1.40001
1.40001
1.40001
1.40001
1.40001
1.40001
1.40001
1.40001
1.40001
1.40001
1.40001
1.40001
1.40001
1.40001
1.40001
1.40001
1.40001
1.40001
1.40001
1.40001
1.40001
1.40001
1.40001
1.40001
1.40001
1.40001
1.40001
1.40001
1.40001
1.40001
1.40001
1.40001
1.40001
1.40001
1.40001
1.40001
1.40001
1.62404
4.45514
5.40892
5.42997
5.45462
5.48033
5.50594
5.52823
5.54636
5.56178
5.57723
5.59498
5.61593
5.63915
5.66222
5.68289
5.70021
5.71461
5.72745
5.7405
5.75533
5.77234
5.79053
5.80822
5.82421
5.83822
5.85066
5.86211
5.87339
5.88515
5.89737
5.90953
5.92105
5.93144
5.94046
5.94826
5.95531
5.96224
5.96972
5.97819
5.98726
5.9957
6.00211
6.00567
6.00661
6.00588
6.00485
6.00444
1.40001
1.40001
1.40001
1.40001
1.40001
1.40001
1.40001
1.40001
1.40001
1.40001
1.40001
1.40001
1.40001
1.40001
1.40001
1.40001
1.40001
1.40001
1.40001
1.40001
1.40001
1.40001
1.40001
1.40001
1.40001
1.40001
1.40001
1.40001
1.40001
1.40001
1.40001
1.40001
1.40001
1.40001
1.40001
1.40001
1.40001
1.40001
1.40001
1.40001
1.40001
1.40001
1.40001
1.40001
1.40001
1.40001
1.40001
1.40001
1.58997
4.39432
5.40722
5.42849
5.45394
5.47899
5.50389
5.52598
5.5443
5.56011
5.57584
5.59362
5.61441
5.63745
5.66043
5.68108
5.69837
5.71269
5.72538
5.73817
5.75273
5.76952
5.7876
5.80522
5.82112
5.83502
5.84746
5.85913
5.87086
5.88319
5.89592
5.90833
5.9197
5.92959
5.93795
5.94516
5.95188
5.95878
5.96637
5.97479
5.98351
5.99145
5.99746
6.00092
6.002
6.00158
6.00086
6.0007
1.40001
1.40001
1.40001
1.40001
1.40001
1.40001
1.40001
1.40001
1.40001
1.40001
1.40001
1.40001
1.40001
1.40001
1.40001
1.40001
1.40001
1.40001
1.40001
1.40001
1.40001
1.40001
1.40001
1.40001
1.40001
1.40001
1.40001
1.40001
1.40001
1.40001
1.40001
1.40001
1.40001
1.40001
1.40001
1.40001
1.40001
1.40001
1.40001
1.40001
1.40001
1.40001
1.40001
1.40001
1.40001
1.40001
1.40001
1.40001
1.54008
4.30253
5.40953
5.42962
5.4536
5.47707
5.50099
5.52318
5.54211
5.55845
5.57443
5.59206
5.61247
5.63508
5.65774
5.67818
5.6953
5.70947
5.72201
5.73457
5.74886
5.76539
5.78333
5.80087
5.81671
5.83052
5.84294
5.85479
5.86697
5.87991
5.89325
5.90598
5.91725
5.92663
5.9343
5.94093
5.94736
5.9543
5.96203
5.97036
5.9786
5.98578
5.9911
5.99416
5.99516
5.99493
5.99436
5.99435
1.40001
1.40001
1.40001
1.40001
1.40001
1.40001
1.40001
1.40001
1.40001
1.40001
1.40001
1.40001
1.40001
1.40001
1.40001
1.40001
1.40001
1.40001
1.40001
1.40001
1.40001
1.40001
1.40001
1.40001
1.40001
1.40001
1.40001
1.40001
1.40001
1.40001
1.40001
1.40001
1.40001
1.40001
1.40001
1.40001
1.40001
1.40001
1.40001
1.40001
1.40001
1.40001
1.40001
1.40001
1.40001
1.40001
1.40001
1.40001
1.45235
4.16029
5.41579
5.43338
5.45368
5.47547
5.49785
5.51956
5.53867
5.55541
5.57159
5.58911
5.60905
5.631
5.65305
5.67306
5.68991
5.70395
5.71649
5.72892
5.74302
5.75928
5.77705
5.79448
5.81024
5.82393
5.83618
5.84788
5.86004
5.87318
5.88685
5.89986
5.91112
5.92016
5.92729
5.93343
5.93961
5.94654
5.95436
5.96264
5.97059
5.97737
5.98244
5.98555
5.98694
5.98727
5.98701
5.98737
1.40001
1.40001
1.40001
1.40001
1.40001
1.40001
1.40001
1.40001
1.40001
1.40001
1.40001
1.40001
1.40001
1.40001
1.40001
1.40001
1.40001
1.40001
1.40001
1.40001
1.40001
1.40001
1.40001
1.40001
1.40001
1.40001
1.40001
1.40001
1.40001
1.40001
1.40001
1.40001
1.40001
1.40001
1.40001
1.40001
1.40001
1.40001
1.40001
1.40001
1.40001
1.40001
1.40001
1.40001
1.40001
1.40001
1.40001
1.40001
1.40129
3.942
5.4016
5.42516
5.44149
5.46234
5.48453
5.50707
5.52742
5.54556
5.56289
5.58115
5.60133
5.62304
5.64466
5.66431
5.68084
5.69462
5.70704
5.71925
5.73307
5.74903
5.76656
5.78394
5.79973
5.81348
5.82561
5.83702
5.84882
5.86173
5.87543
5.88873
5.90034
5.90963
5.91686
5.92299
5.92912
5.936
5.94371
5.95173
5.95927
5.96562
5.97046
5.9736
5.97528
5.97607
5.97616
5.97689
1.40001
1.40001
1.40001
1.40001
1.40001
1.40001
1.40001
1.40001
1.40001
1.40001
1.40001
1.40001
1.40001
1.40001
1.40001
1.40001
1.40001
1.40001
1.40001
1.40001
1.40001
1.40001
1.40001
1.40001
1.40001
1.40001
1.40001
1.40001
1.40001
1.40001
1.40001
1.40001
1.40001
1.40001
1.40001
1.40001
1.40001
1.40001
1.40001
1.40001
1.40001
1.40001
1.40001
1.40001
1.40001
1.40001
1.40001
1.40001
1.40001
3.63085
5.3632
5.41476
5.43168
5.45268
5.47484
5.49744
5.51819
5.53678
5.55449
5.57308
5.59333
5.61473
5.63583
5.65507
5.67127
5.68469
5.69698
5.70899
5.72259
5.73843
5.75593
5.77351
5.78946
5.8033
5.81519
5.82602
5.83701
5.84912
5.86228
5.87541
5.88712
5.89659
5.90391
5.91001
5.91599
5.92262
5.92999
5.93763
5.94481
5.95091
5.95571
5.95907
5.96112
5.96242
5.96289
5.96401
1.40001
1.40001
1.40001
1.40001
1.40001
1.40001
1.40001
1.40001
1.40001
1.40001
1.40001
1.40001
1.40001
1.40001
1.40001
1.40001
1.40001
1.40001
1.40001
1.40001
1.40001
1.40001
1.40001
1.40001
1.40001
1.40001
1.40001
1.40001
1.40001
1.40001
1.40001
1.40001
1.40001
1.40001
1.40001
1.40001
1.40001
1.40001
1.40001
1.40001
1.40001
1.40001
1.40001
1.40001
1.40001
1.40001
1.40001
1.40001
1.40001
3.23674
5.30376
5.4041
5.42214
5.4439
5.46568
5.4876
5.50804
5.52655
5.54425
5.56293
5.58338
5.60483
5.62581
5.64495
5.66101
5.67393
5.68571
5.69714
5.7101
5.72552
5.74273
5.76035
5.77623
5.7899
5.80126
5.81121
5.82104
5.83205
5.84449
5.85745
5.86947
5.87944
5.88718
5.89346
5.89938
5.90572
5.91266
5.91978
5.92648
5.9322
5.93676
5.93998
5.94199
5.94333
5.94384
5.94503
1.40001
1.40001
1.40001
1.40001
1.40001
1.40001
1.40001
1.40001
1.40001
1.40001
1.40001
1.40001
1.40001
1.40001
1.40001
1.40001
1.40001
1.40001
1.40001
1.40001
1.40001
1.40001
1.40001
1.40001
1.40001
1.40001
1.40001
1.40001
1.40001
1.40001
1.40001
1.40001
1.40001
1.40001
1.40001
1.40001
1.40001
1.40001
1.40001
1.40001
1.40001
1.40001
1.40001
1.40001
1.40001
1.40001
1.40001
1.40001
1.40001
2.77353
5.19969
5.40113
5.41994
5.44266
5.46313
5.48342
5.50233
5.51957
5.53616
5.55392
5.57395
5.59536
5.6163
5.63537
5.65124
5.66339
5.67397
5.6842
5.69573
5.71005
5.72644
5.74368
5.75917
5.77241
5.78306
5.79194
5.80043
5.81012
5.82154
5.83397
5.84594
5.85609
5.86401
5.87034
5.87615
5.88231
5.88904
5.89603
5.9027
5.9085
5.91318
5.91647
5.9185
5.9198
5.92025
5.92138
1.40001
1.40001
1.40001
1.40001
1.40001
1.40001
1.40001
1.40001
1.40001
1.40001
1.40001
1.40001
1.40001
1.40001
1.40001
1.40001
1.40001
1.40001
1.40001
1.40001
1.40001
1.40001
1.40001
1.40001
1.40001
1.40001
1.40001
1.40001
1.40001
1.40001
1.40001
1.40001
1.40001
1.40001
1.40001
1.40001
1.40001
1.40001
1.40001
1.40001
1.40001
1.40001
1.40001
1.40001
1.40001
1.40001
1.40001
1.40001
1.40001
2.25143
4.99093
5.40789
5.42397
5.44631
5.46483
5.4836
5.50072
5.51604
5.53035
5.54582
5.56412
5.58477
5.60566
5.6249
5.64097
5.65278
5.66217
5.67124
5.6812
5.69416
5.70934
5.72579
5.74075
5.75337
5.76313
5.77076
5.77768
5.78573
5.79576
5.80721
5.81864
5.82855
5.83626
5.84231
5.84779
5.85359
5.85999
5.86668
5.87307
5.87853
5.88271
5.88533
5.88656
5.88704
5.88686
5.88743
1.40001
1.40001
1.40001
1.40001
1.40001
1.40001
1.40001
1.40001
1.40001
1.40001
1.40001
1.40001
1.40001
1.40001
1.40001
1.40001
1.40001
1.40001
1.40001
1.40001
1.40001
1.40001
1.40001
1.40001
1.40001
1.40001
1.40001
1.40001
1.40001
1.40001
1.40001
1.40001
1.40001
1.40001
1.40001
1.40001
1.40001
1.40001
1.40001
1.40001
1.40001
1.40001
1.40001
1.40001
1.40001
1.40001
1.40001
1.40001
1.40001
1.75283
4.62208
5.42726
5.42034
5.44199
5.45809
5.47659
5.49355
5.50863
5.52211
5.53588
5.55214
5.57127
5.59155
5.61085
5.62751
5.63977
5.64845
5.65647
5.66483
5.67609
5.68971
5.70474
5.71899
5.73098
5.74006
5.74664
5.75209
5.75834
5.76651
5.77625
5.78619
5.79479
5.80127
5.80604
5.81027
5.81497
5.82062
5.82698
5.83343
5.83913
5.84341
5.84587
5.8467
5.84651
5.84573
5.84591
1.40001
1.40001
1.40001
1.40001
1.40001
1.40001
1.40001
1.40001
1.40001
1.40001
1.40001
1.40001
1.40001
1.40001
1.40001
1.40001
1.40001
1.40001
1.40001
1.40001
1.40001
1.40001
1.40001
1.40001
1.40001
1.40001
1.40001
1.40001
1.40001
1.40001
1.40001
1.40001
1.40001
1.40001
1.40001
1.40001
1.40001
1.40001
1.40001
1.40001
1.40001
1.40001
1.40001
1.40001
1.40001
1.40001
1.40001
1.40001
1.40001
1.41382
3.93013
5.37575
5.39544
5.41607
5.43638
5.45751
5.47722
5.49457
5.50929
5.52257
5.53693
5.55375
5.57226
5.59055
5.6071
5.61989
5.6286
5.63597
5.64314
5.6523
5.66407
5.67723
5.69048
5.70173
5.71042
5.71642
5.72089
5.72564
5.73201
5.73993
5.74822
5.75542
5.76068
5.76426
5.7673
5.77088
5.77556
5.78104
5.7865
5.79081
5.79317
5.79332
5.79154
5.78894
5.78626
5.78516
1.40001
1.40001
1.40001
1.40001
1.40001
1.40001
1.40001
1.40001
1.40001
1.40001
1.40001
1.40001
1.40001
1.40001
1.40001
1.40001
1.40001
1.40001
1.40001
1.40001
1.40001
1.40001
1.40001
1.40001
1.40001
1.40001
1.40001
1.40001
1.40001
1.40001
1.40001
1.40001
1.40001
1.40001
1.40001
1.40001
1.40001
1.40001
1.40001
1.40001
1.40001
1.40001
1.40001
1.40001
1.40001
1.40001
1.40001
1.40001
1.40001
1.40002
3.0311
5.20881
5.36793
5.39084
5.41234
5.4325
5.45235
5.47018
5.48512
5.49758
5.50982
5.52374
5.53971
5.55648
5.57249
5.58605
5.59583
5.60347
5.61049
5.61825
5.62839
5.6399
5.65176
5.66215
5.67052
5.67639
5.68037
5.68383
5.68827
5.6939
5.69979
5.70466
5.70762
5.70871
5.7089
5.70934
5.71083
5.71328
5.71614
5.71859
5.71991
5.71971
5.71764
5.71505
5.71216
5.71083
1.40001
1.40001
1.40001
1.40001
1.40001
1.40001
1.40001
1.40001
1.40001
1.40001
1.40001
1.40001
1.40001
1.40001
1.40001
1.40001
1.40001
1.40001
1.40001
1.40001
1.40001
1.40001
1.40001
1.40001
1.40001
1.40001
1.40001
1.40001
1.40001
1.40001
1.40001
1.40001
1.40001
1.40001
1.40001
1.40001
1.40001
1.40001
1.40001
1.40001
1.40001
1.40001
1.40001
1.40001
1.40001
1.40001
1.40001
1.40001
1.40001
1.4
2.03828
4.82764
5.3822
5.38396
5.40141
5.418
5.4364
5.45421
5.4698
5.48247
5.49345
5.50462
5.51723
5.5311
5.54505
5.55783
5.56777
5.57524
5.58183
5.58825
5.59595
5.60487
5.61381
5.62173
5.62807
5.6326
5.63535
5.63701
5.63892
5.64144
5.64392
5.64539
5.64527
5.64331
5.6403
5.63774
5.63636
5.63612
5.63635
5.6361
5.63366
5.62824
5.61884
5.60763
5.59647
5.58736
1.40001
1.40001
1.40001
1.40001
1.40001
1.40001
1.40001
1.40001
1.40001
1.40001
1.40001
1.40001
1.40001
1.40001
1.40001
1.40001
1.40001
1.40001
1.40001
1.40001
1.40001
1.40001
1.40001
1.40001
1.40001
1.40001
1.40001
1.40001
1.40001
1.40001
1.40001
1.40001
1.40001
1.40001
1.40001
1.40001
1.40001
1.40001
1.40001
1.40001
1.40001
1.40001
1.40001
1.40001
1.40001
1.40001
1.40001
1.40001
1.40001
1.40001
1.42951
3.78199
5.35653
5.39258
5.40003
5.41168
5.42462
5.43863
5.45145
5.46183
5.47022
5.47813
5.48706
5.49738
5.50845
5.51941
5.52889
5.53633
5.54261
5.54815
5.55343
5.55922
5.56496
5.56985
5.5732
5.57545
5.57633
5.576
5.57544
5.57456
5.57334
5.57075
5.56584
5.55883
5.55032
5.54127
5.53192
5.522
5.51066
5.49691
5.48034
5.46138
5.44336
5.42689
5.41822
5.41328
1.40001
1.40001
1.40001
1.40001
1.40001
1.40001
1.40001
1.40001
1.40001
1.40001
1.40001
1.40001
1.40001
1.40001
1.40001
1.40001
1.40001
1.40001
1.40001
1.40001
1.40001
1.40001
1.40001
1.40001
1.40001
1.40001
1.40001
1.40001
1.40001
1.40001
1.40001
1.40001
1.40001
1.40001
1.40001
1.40001
1.40001
1.40001
1.40001
1.40001
1.40001
1.40001
1.40001
1.40001
1.40001
1.40001
1.40001
1.40001
1.40001
1.40001
1.40003
2.42525
5.00601
5.3569
5.35869
5.37485
5.39023
5.40593
5.42043
5.43248
5.44164
5.44871
5.45509
5.46193
5.46965
5.47802
5.48621
5.49324
5.49899
5.50363
5.50714
5.50993
5.51239
5.51368
5.51342
5.51166
5.50878
5.50557
5.50148
5.49671
5.49055
5.48171
5.47026
5.45616
5.43986
5.42202
5.4028
5.38195
5.3591
5.33432
5.3078
5.27997
5.24378
5.20178
5.1445
5.16345
1.40001
1.40001
1.40001
1.40001
1.40001
1.40001
1.40001
1.40001
1.40001
1.40001
1.40001
1.40001
1.40001
1.40001
1.40001
1.40001
1.40001
1.40001
1.40001
1.40001
1.40001
1.40001
1.40001
1.40001
1.40001
1.40001
1.40001
1.40001
1.40001
1.40001
1.40001
1.40001
1.40001
1.40001
1.40001
1.40001
1.40001
1.40001
1.40001
1.40001
1.40001
1.40001
1.40001
1.40001
1.40001
1.40001
1.40001
1.40001
1.40001
1.40001
1.40001
1.47485
4.1753
5.3663
5.35416
5.36065
5.37082
5.38253
5.39511
5.40658
5.41555
5.42182
5.4263
5.43032
5.4348
5.4401
5.44594
5.45158
5.45628
5.45981
5.46164
5.46163
5.46092
5.45915
5.45568
5.45006
5.4433
5.4361
5.42824
5.41931
5.408
5.39347
5.37526
5.35342
5.32827
5.30007
5.26808
5.23093
5.18569
5.13026
5.05741
4.96106
4.81496
4.58932
4.184
3.29306
1.40001
1.40001
1.40001
1.40001
1.40001
1.40001
1.40001
1.40001
1.40001
1.40001
1.40001
1.40001
1.40001
1.40001
1.40001
1.40001
1.40001
1.40001
1.40001
1.40001
1.40001
1.40001
1.40001
1.40001
1.40001
1.40001
1.40001
1.40001
1.40001
1.40001
1.40001
1.40001
1.40001
1.40001
1.40001
1.40001
1.40001
1.40001
1.40001
1.40001
1.40001
1.40001
1.40001
1.40001
1.40001
1.40001
1.40001
1.40001
1.40001
1.40001
1.40001
1.40015
2.99626
5.16565
5.31647
5.32952
5.34027
5.35151
5.36442
5.37683
5.38717
5.39442
5.39892
5.40208
5.40508
5.40858
5.41252
5.41647
5.41952
5.42107
5.42097
5.41929
5.41621
5.41206
5.40628
5.39755
5.38714
5.37583
5.36389
5.35074
5.33498
5.31534
5.29091
5.26161
5.22746
5.18891
5.14397
5.09111
5.02412
4.94142
4.83053
4.68954
4.48521
4.22141
3.68574
2.91461
1.40001
1.40001
1.40001
1.40001
1.40001
1.40001
1.40001
1.40001
1.40001
1.40001
1.40001
1.40001
1.40001
1.40001
1.40001
1.40001
1.40001
1.40001
1.40001
1.40001
1.40001
1.40001
1.40001
1.40001
1.40001
1.40001
1.40001
1.40001
1.40001
1.40001
1.40001
1.40001
1.40001
1.40001
1.40001
1.40001
1.40001
1.40001
1.40001
1.40001
1.40001
1.40001
1.40001
1.40001
1.40001
1.40001
1.40001
1.40001
1.40001
1.40001
1.40001
1.4
1.79696
4.64478
5.34969
5.32702
5.32719
5.33398
5.34376
5.35385
5.36276
5.36914
5.37259
5.37415
5.37528
5.37666
5.3784
5.38001
5.38096
5.38073
5.37862
5.37508
5.36927
5.36233
5.35403
5.34271
5.32896
5.31348
5.29685
5.27892
5.25836
5.23378
5.2034
5.16724
5.12431
5.07585
5.0188
4.95198
4.86819
4.76437
4.63218
4.46312
4.24791
3.92974
3.48275
2.98068
1.40001
1.40001
1.40001
1.40001
1.40001
1.40001
1.40001
1.40001
1.40001
1.40001
1.40001
1.40001
1.40001
1.40001
1.40001
1.40001
1.40001
1.40001
1.40001
1.40001
1.40001
1.40001
1.40001
1.40001
1.40001
1.40001
1.40001
1.40001
1.40001
1.40001
1.40001
1.40001
1.40001
1.40001
1.40001
1.40001
1.40001
1.40001
1.40001
1.40001
1.40001
1.40001
1.40001
1.40001
1.40001
1.40001
1.40001
1.40001
1.40001
1.40001
1.40001
1.4
1.41052
3.40743
5.23911
5.30241
5.30767
5.31597
5.32521
5.33432
5.34191
5.34613
5.34677
5.34397
5.34117
5.34
5.34059
5.34158
5.34186
5.33992
5.33528
5.32875
5.32024
5.31084
5.30014
5.28689
5.27037
5.25105
5.2296
5.20652
5.18069
5.15115
5.11534
5.07329
5.02306
4.96598
4.8993
4.82152
4.72715
4.61162
4.47058
4.29349
4.07662
3.78743
3.45211
3.07245
1.40001
1.40001
1.40001
1.40001
1.40001
1.40001
1.40001
1.40001
1.40001
1.40001
1.40001
1.40001
1.40001
1.40001
1.40001
1.40001
1.40001
1.40001
1.40001
1.40001
1.40001
1.40001
1.40001
1.40001
1.40001
1.40001
1.40001
1.40001
1.40001
1.40001
1.40001
1.40001
1.40001
1.40001
1.40001
1.40001
1.40001
1.40001
1.40001
1.40001
1.40001
1.40001
1.40001
1.40001
1.40001
1.40001
1.40001
1.40001
1.40001
1.40001
1.40001
1.40001
1.39999
1.96788
4.75377
5.31039
5.30207
5.30794
5.3157
5.324
5.32987
5.33184
5.32867
5.32108
5.31349
5.30892
5.30723
5.3066
5.30483
5.30037
5.29282
5.28312
5.27187
5.25966
5.24613
5.23069
5.21195
5.1899
5.16458
5.13675
5.10572
5.07113
5.03059
4.98362
4.92827
4.86486
4.79181
4.70726
4.60755
4.48798
4.34886
4.17374
3.97485
3.73396
3.46852
3.17701
1.40001
1.40001
1.40001
1.40001
1.40001
1.40001
1.40001
1.40001
1.40001
1.40001
1.40001
1.40001
1.40001
1.40001
1.40001
1.40001
1.40001
1.40001
1.40001
1.40001
1.40001
1.40001
1.40001
1.40001
1.40001
1.40001
1.40001
1.40001
1.40001
1.40001
1.40001
1.40001
1.40001
1.40001
1.40001
1.40001
1.40001
1.40001
1.40001
1.40001
1.40001
1.40001
1.40001
1.40001
1.40001
1.40001
1.40001
1.40001
1.40001
1.40001
1.40001
1.40001
1.4
1.42176
3.44555
5.1989
5.2736
5.28471
5.29479
5.30383
5.30992
5.31219
5.30918
5.30089
5.29089
5.28315
5.27818
5.27456
5.2699
5.26245
5.2519
5.23869
5.22391
5.20826
5.19161
5.17382
5.15302
5.12885
5.10041
5.06853
5.03293
4.99363
4.94906
4.89823
4.83956
4.77254
4.69623
4.60894
4.50852
4.39036
4.25636
4.09482
3.92052
3.71888
3.50243
3.26381
1.40001
1.40001
1.40001
1.40001
1.40001
1.40001
1.40001
1.40001
1.40001
1.40001
1.40001
1.40001
1.40001
1.40001
1.40001
1.40001
1.40001
1.40001
1.40001
1.40001
1.40001
1.40001
1.40001
1.40001
1.40001
1.40001
1.40001
1.40001
1.40001
1.40001
1.40001
1.40001
1.40001
1.40001
1.40001
1.40001
1.40001
1.40001
1.40001
1.40001
1.40001
1.40001
1.40001
1.40001
1.40001
1.40001
1.40001
1.40001
1.40001
1.40001
1.40001
1.40001
1.4
1.40001
1.89777
4.68745
5.28286
5.27699
5.28348
5.28637
5.2887
5.28885
5.28548
5.27797
5.26844
5.25979
5.25286
5.24649
5.23854
5.22753
5.21345
5.19736
5.17973
5.16112
5.14144
5.12084
5.09754
5.07127
5.04056
5.00576
4.96666
4.92353
4.87561
4.82192
4.76119
4.69258
4.61532
4.52808
4.43001
4.31587
4.18899
4.04473
3.89169
3.71851
3.53649
3.33618
1.40001
1.40001
1.40001
1.40001
1.40001
1.40001
1.40001
1.40001
1.40001
1.40001
1.40001
1.40001
1.40001
1.40001
1.40001
1.40001
1.40001
1.40001
1.40001
1.40001
1.40001
1.40001
1.40001
1.40001
1.40001
1.40001
1.40001
1.40001
1.40001
1.40001
1.40001
1.40001
1.40001
1.40001
1.40001
1.40001
1.40001
1.40001
1.40001
1.40001
1.40001
1.40001
1.40001
1.40001
1.40001
1.40001
1.40001
1.40001
1.40001
1.40001
1.40001
1.40001
1.40001
1.40001
1.4152
3.22167
5.09395
5.24127
5.2425
5.24696
5.25252
5.25616
5.25673
5.25266
5.24526
5.23647
5.22765
5.2183
5.20712
5.19344
5.1768
5.15851
5.13846
5.11663
5.09349
5.06959
5.04359
5.01517
4.98263
4.94568
4.90389
4.85795
4.80744
4.75182
4.69022
4.62161
4.54565
4.46054
4.36695
4.2591
4.14101
4.01178
3.87562
3.72274
3.56885
3.39672
1.40001
1.40001
1.40001
1.40001
1.40001
1.40001
1.40001
1.40001
1.40001
1.40001
1.40001
1.40001
1.40001
1.40001
1.40001
1.40001
1.40001
1.40001
1.40001
1.40001
1.40001
1.40001
1.40001
1.40001
1.40001
1.40001
1.40001
1.40001
1.40001
1.40001
1.40001
1.40001
1.40001
1.40001
1.40001
1.40001
1.40001
1.40001
1.40001
1.40001
1.40001
1.40001
1.40001
1.40001
1.40001
1.40001
1.40001
1.40001
1.40001
1.40001
1.40001
1.40001
1.40001
1.40001
1.40001
1.6398
4.43186
5.27835
5.24292
5.23563
5.2314
5.22989
5.22838
5.22399
5.21707
5.20813
5.1982
5.18716
5.17449
5.15992
5.14232
5.12283
5.10108
5.07699
5.05127
5.02443
4.99562
4.96475
4.93029
4.89158
4.84809
4.80056
4.74816
4.69124
4.62935
4.56137
4.48794
4.40537
4.31693
4.21659
4.10734
3.99036
3.86775
3.73106
3.59752
3.44649
1.40001
1.40001
1.40001
1.40001
1.40001
1.40001
1.40001
1.40001
1.40001
1.40001
1.40001
1.40001
1.40001
1.40001
1.40001
1.40001
1.40001
1.40001
1.40001
1.40001
1.40001
1.40001
1.40001
1.40001
1.40001
1.40001
1.40001
1.40001
1.40001
1.40001
1.40001
1.40001
1.40001
1.40001
1.40001
1.40001
1.40001
1.40001
1.40001
1.40001
1.40001
1.40001
1.40001
1.40001
1.40001
1.40001
1.40001
1.40001
1.40001
1.40001
1.40001
1.40001
1.40001
1.40001
1.40001
1.40302
2.81239
4.99107
5.17224
5.18058
5.19184
5.19251
5.19054
5.18694
5.18068
5.17095
5.16
5.14765
5.13414
5.11944
5.10233
5.08344
5.06163
5.03705
5.00996
4.98097
4.94997
4.91702
4.8809
4.84085
4.79671
4.74865
4.69547
4.638
4.57647
4.50923
4.43828
4.35879
4.27548
4.18368
4.08267
3.97679
3.86481
3.74287
3.62283
3.4898
1.40001
1.40001
1.40001
1.40001
1.40001
1.40001
1.40001
1.40001
1.40001
1.40001
1.40001
1.40001
1.40001
1.40001
1.40001
1.40001
1.40001
1.40001
1.40001
1.40001
1.40001
1.40001
1.40001
1.40001
1.40001
1.40001
1.40001
1.40001
1.40001
1.40001
1.40001
1.40001
1.40001
1.40001
1.40001
1.40001
1.40001
1.40001
1.40001
1.40001
1.40001
1.40001
1.40001
1.40001
1.40001
1.40001
1.40001
1.40001
1.40001
1.40001
1.40001
1.40001
1.40001
1.40001
1.40001
1.4
1.53008
3.82867
5.15259
5.17825
5.1732
5.16834
5.16512
5.16076
5.15425
5.1443
5.13196
5.11776
5.10256
5.08657
5.06917
5.05006
5.02782
5.00302
4.97508
4.94464
4.91193
4.87685
4.83885
4.79716
4.75225
4.70367
4.651
4.59364
4.53332
4.46639
4.39714
4.32103
4.24217
4.1579
4.06383
3.96771
3.86436
3.75625
3.64578
3.52881
1.40001
1.40001
1.40001
1.40001
1.40001
1.40001
1.40001
1.40001
1.40001
1.40001
1.40001
1.40001
1.40001
1.40001
1.40001
1.40001
1.40001
1.40001
1.40001
1.40001
1.40001
1.40001
1.40001
1.40001
1.40001
1.40001
1.40001
1.40001
1.40001
1.40001
1.40001
1.40001
1.40001
1.40001
1.40001
1.40001
1.40001
1.40001
1.40001
1.40001
1.40001
1.40001
1.40001
1.40001
1.40001
1.40001
1.40001
1.40001
1.40001
1.40001
1.40001
1.40001
1.40001
1.40001
1.40001
1.4
1.40082
1.9596
4.67054
5.1957
5.15533
5.15194
5.14377
5.13596
5.12721
5.11626
5.10305
5.08737
5.06975
5.05153
5.03241
5.01199
4.98936
4.96501
4.9376
4.90772
4.87465
4.83871
4.79932
4.75707
4.71177
4.66332
4.6124
4.55555
4.49685
4.43115
4.36418
4.29126
4.21607
4.13721
4.04956
3.96126
3.86523
3.76908
3.66655
3.56385
1.40001
1.40001
1.40001
1.40001
1.40001
1.40001
1.40001
1.40001
1.40001
1.40001
1.40001
1.40001
1.40001
1.40001
1.40001
1.40001
1.40001
1.40001
1.40001
1.40001
1.40001
1.40001
1.40001
1.40001
1.40001
1.40001
1.40001
1.40001
1.40001
1.40001
1.40001
1.40001
1.40001
1.40001
1.40001
1.40001
1.40001
1.40001
1.40001
1.40001
1.40001
1.40001
1.40001
1.40001
1.40001
1.40001
1.40001
1.40001
1.40001
1.40001
1.40001
1.40001
1.40001
1.40001
1.40001
1.40001
1.40001
1.41804
2.95922
5.02339
5.13077
5.12563
5.1205
5.11267
5.10327
5.09186
5.0781
5.06229
5.04306
5.02265
5.00086
4.97788
4.95385
4.9291
4.90217
4.87338
4.84148
4.80589
4.76624
4.72366
4.67687
4.62944
4.57832
4.52304
4.46608
4.40335
4.33947
4.26941
4.19763
4.12215
4.04042
3.95761
3.86813
3.7806
3.68613
3.59443
1.40001
1.40001
1.40001
1.40001
1.40001
1.40001
1.40001
1.40001
1.40001
1.40001
1.40001
1.40001
1.40001
1.40001
1.40001
1.40001
1.40001
1.40001
1.40001
1.40001
1.40001
1.40001
1.40001
1.40001
1.40001
1.40001
1.40001
1.40001
1.40001
1.40001
1.40001
1.40001
1.40001
1.40001
1.40001
1.40001
1.40001
1.40001
1.40001
1.40001
1.40001
1.40001
1.40001
1.40001
1.40001
1.40001
1.40001
1.40001
1.40001
1.40001
1.40001
1.40001
1.40001
1.40001
1.40001
1.40001
1.40001
1.40003
1.54775
3.67702
5.08599
5.1256
5.11467
5.1076
5.09592
5.0807
5.06387
5.04561
5.02458
5.00147
4.97656
4.95053
4.92386
4.89724
4.86972
4.84071
4.80925
4.77535
4.7364
4.69393
4.64807
4.59909
4.54824
4.49496
4.4401
4.38083
4.3202
4.25343
4.18526
4.11257
4.03638
3.95709
3.87394
3.7919
3.70527
3.62093
1.40001
1.40001
1.40001
1.40001
1.40001
1.40001
1.40001
1.40001
1.40001
1.40001
1.40001
1.40001
1.40001
1.40001
1.40001
1.40001
1.40001
1.40001
1.40001
1.40001
1.40001
1.40001
1.40001
1.40001
1.40001
1.40001
1.40001
1.40001
1.40001
1.40001
1.40001
1.40001
1.40001
1.40001
1.40001
1.40001
1.40001
1.40001
1.40001
1.40001
1.40001
1.40001
1.40001
1.40001
1.40001
1.40001
1.40001
1.40001
1.40001
1.40001
1.40001
1.40001
1.40001
1.40001
1.40001
1.40001
1.40001
1.40001
1.40116
1.75191
4.34862
5.15148
5.12501
5.10854
5.08363
5.06316
5.04335
5.02399
5.00292
4.97967
4.9539
4.92665
4.89806
4.8692
4.83983
4.81056
4.77865
4.74533
4.70817
4.66735
4.62285
4.5747
4.52394
4.47151
4.41789
4.36163
4.30399
4.24126
4.1768
4.10749
4.03623
3.96028
3.8834
3.80508
3.72492
3.64515
1.40001
1.40001
1.40001
1.40001
1.40001
1.40001
1.40001
1.40001
1.40001
1.40001
1.40001
1.40001
1.40001
1.40001
1.40001
1.40001
1.40001
1.40001
1.40001
1.40001
1.40001
1.40001
1.40001
1.40001
1.40001
1.40001
1.40001
1.40001
1.40001
1.40001
1.40001
1.40001
1.40001
1.40001
1.40001
1.40001
1.40001
1.40001
1.40001
1.40001
1.40001
1.40001
1.40001
1.40001
1.40001
1.40001
1.40001
1.40001
1.40001
1.40001
1.40001
1.40001
1.40001
1.40001
1.40001
1.40001
1.40001
1.40001
1.40001
1.40664
2.3663
4.83524
5.11647
5.08129
5.05888
5.03823
5.02005
5.00226
4.98284
4.96106
4.93652
4.90968
4.88067
4.85005
4.81828
4.78682
4.75343
4.71925
4.68275
4.64269
4.5997
4.55365
4.50447
4.45349
4.40066
4.34615
4.29042
4.23155
4.17028
4.10479
4.03782
3.9664
3.89454
3.81969
3.74462
3.66754
1.40001
1.40001
1.40001
1.40001
1.40001
1.40001
1.40001
1.40001
1.40001
1.40001
1.40001
1.40001
1.40001
1.40001
1.40001
1.40001
1.40001
1.40001
1.40001
1.40001
1.40001
1.40001
1.40001
1.40001
1.40001
1.40001
1.40001
1.40001
1.40001
1.40001
1.40001
1.40001
1.40001
1.40001
1.40001
1.40001
1.40001
1.40001
1.40001
1.40001
1.40001
1.40001
1.40001
1.40001
1.40001
1.40001
1.40001
1.40001
1.40001
1.40001
1.40001
1.40001
1.40001
1.40001
1.40001
1.40001
1.40001
1.40001
1.40001
1.40002
1.4533
3.0649
4.97564
5.04856
5.02589
5.01798
5.00546
4.99021
4.97197
4.95105
4.92668
4.89987
4.87019
4.83861
4.80506
4.77035
4.73554
4.69916
4.66121
4.62113
4.57899
4.5345
4.48732
4.43818
4.38716
4.33435
4.27986
4.22418
4.16574
4.10421
4.04098
3.97414
3.90635
3.83532
3.76423
3.68959
1.40001
1.40001
1.40001
1.40001
1.40001
1.40001
1.40001
1.40001
1.40001
1.40001
1.40001
1.40001
1.40001
1.40001
1.40001
1.40001
1.40001
1.40001
1.40001
1.40001
1.40001
1.40001
1.40001
1.40001
1.40001
1.40001
1.40001
1.40001
1.40001
1.40001
1.40001
1.40001
1.40001
1.40001
1.40001
1.40001
1.40001
1.40001
1.40001
1.40001
1.40001
1.40001
1.40001
1.40001
1.40001
1.40001
1.40001
1.40001
1.40001
1.40001
1.40001
1.40001
1.40001
1.40001
1.40001
1.40001
1.40001
1.40001
1.40001
1.40001
1.40022
1.56634
3.48483
4.97626
5.00438
4.99946
4.99323
4.98065
4.96373
4.94327
4.9195
4.89309
4.86376
4.83199
4.79807
4.76241
4.72542
4.68725
4.64772
4.60638
4.56345
4.51905
4.47297
4.42538
4.37624
4.3253
4.27247
4.21873
4.16232
4.10438
4.04459
3.9818
3.91715
3.85008
3.78208
3.71103
1.40001
1.40001
1.40001
1.40001
1.40001
1.40001
1.40001
1.40001
1.40001
1.40001
1.40001
1.40001
1.40001
1.40001
1.40001
1.40001
1.40001
1.40001
1.40001
1.40001
1.40001
1.40001
1.40001
1.40001
1.40001
1.40001
1.40001
1.40001
1.40001
1.40001
1.40001
1.40001
1.40001
1.40001
1.40001
1.40001
1.40001
1.40001
1.40001
1.40001
1.40001
1.40001
1.40001
1.40001
1.40001
1.40001
1.40001
1.40001
1.40001
1.40001
1.40001
1.40001
1.40001
1.40001
1.40001
1.40001
1.40001
1.40001
1.40001
1.40001
1.40001
1.40158
1.6842
3.7866
4.98953
4.99843
4.98825
4.97273
4.95421
4.93368
4.9107
4.88512
4.85678
4.82603
4.79294
4.7578
4.72082
4.68201
4.64139
4.59905
4.55516
4.51004
4.46388
4.41668
4.36844
4.31866
4.26747
4.21492
4.16018
4.10505
4.04792
3.9885
3.92691
3.86393
3.79891
3.73212
1.40001
1.40001
1.40001
1.40001
1.40001
1.40001
1.40001
1.40001
1.40001
1.40001
1.40001
1.40001
1.40001
1.40001
1.40001
1.40001
1.40001
1.40001
1.40001
1.40001
1.40001
1.40001
1.40001
1.40001
1.40001
1.40001
1.40001
1.40001
1.40001
1.40001
1.40001
1.40001
1.40001
1.40001
1.40001
1.40001
1.40001
1.40001
1.40001
1.40001
1.40001
1.40001
1.40001
1.40001
1.40001
1.40001
1.40001
1.40001
1.40001
1.40001
1.40001
1.40001
1.40001
1.40001
1.40001
1.40001
1.40001
1.40001
1.40001
1.40001
1.40001
1.40001
1.40443
1.80392
4.05634
5.00105
4.99133
4.97055
4.94728
4.92423
4.90008
4.87388
4.84618
4.81684
4.78556
4.75192
4.71604
4.6781
4.63819
4.59625
4.55241
4.50711
4.46058
4.41306
4.36481
4.3153
4.26483
4.2128
4.15925
4.1058
4.05074
3.9941
3.9358
3.87653
3.81468
3.75197
1.40001
1.40001
1.40001
1.40001
1.40001
1.40001
1.40001
1.40001
1.40001
1.40001
1.40001
1.40001
1.40001
1.40001
1.40001
1.40001
1.40001
1.40001
1.40001
1.40001
1.40001
1.40001
1.40001
1.40001
1.40001
1.40001
1.40001
1.40001
1.40001
1.40001
1.40001
1.40001
1.40001
1.40001
1.40001
1.40001
1.40001
1.40001
1.40001
1.40001
1.40001
1.40001
1.40001
1.40001
1.40001
1.40001
1.40001
1.40001
1.40001
1.40001
1.40001
1.40001
1.40001
1.40001
1.40001
1.40001
1.40001
1.40001
1.40001
1.40001
1.40001
1.40001
1.40001
1.40885
1.93587
4.26708
5.00255
4.98137
4.95445
4.92726
4.89848
4.86903
4.83945
4.80959
4.77823
4.74496
4.7101
4.67379
4.63558
4.595
4.5522
4.50752
4.46134
4.41393
4.36561
4.31615
4.26565
4.21372
4.16098
4.10854
4.05535
4.00085
3.94547
3.88899
3.8303
3.77107
1.40001
1.40001
1.40001
1.40001
1.40001
1.40001
1.40001
1.40001
1.40001
1.40001
1.40001
1.40001
1.40001
1.40001
1.40001
1.40001
1.40001
1.40001
1.40001
1.40001
1.40001
1.40001
1.40001
1.40001
1.40001
1.40001
1.40001
1.40001
1.40001
1.40001
1.40001
1.40001
1.40001
1.40001
1.40001
1.40001
1.40001
1.40001
1.40001
1.40001
1.40001
1.40001
1.40001
1.40001
1.40001
1.40001
1.40001
1.40001
1.40001
1.40001
1.40001
1.40001
1.40001
1.40001
1.40001
1.40001
1.40001
1.40001
1.40001
1.40001
1.40001
1.40001
1.40001
1.40003
1.41547
2.06748
4.41164
4.99904
4.97335
4.94248
4.90926
4.87678
4.84481
4.81148
4.77673
4.7413
4.70567
4.66939
4.6317
4.5921
4.55065
4.50741
4.46247
4.41601
4.36836
4.31955
4.26958
4.21856
4.16713
4.11582
4.06391
4.01088
3.95759
3.90289
3.84668
3.78966
1.40001
1.40001
1.40001
1.40001
1.40001
1.40001
1.40001
1.40001
1.40001
1.40001
1.40001
1.40001
1.40001
1.40001
1.40001
1.40001
1.40001
1.40001
1.40001
1.40001
1.40001
1.40001
1.40001
1.40001
1.40001
1.40001
1.40001
1.40001
1.40001
1.40001
1.40001
1.40001
1.40001
1.40001
1.40001
1.40001
1.40001
1.40001
1.40001
1.40001