/*--------------------------------*- C++ -*----------------------------------*\
  =========                 |
  \\      /  F ield         | OpenFOAM: The Open Source CFD Toolbox
   \\    /   O peration     | Website:  https://openfoam.org
    \\  /    A nd           | Version:  7
     \\/     M anipulation  |
\*---------------------------------------------------------------------------*/
FoamFile
{
    version     2.0;
    format      ascii;
    class       volScalarField;
    location    "6";
    object      p;
}
// * * * * * * * * * * * * * * * * * * * * * * * * * * * * * * * * * * * * * //

dimensions      [0 2 -2 0 0 0 0];

internalField   nonuniform List<scalar> 
8800
(
0.458453
0.41092
0.372623
0.344137
0.32387
0.309692
0.299734
0.292805
0.28837
0.286428
0.287324
0.290865
0.296727
0.305214
0.317183
0.334175
0.358332
0.391778
0.433891
0.492519
0.288935
0.296828
0.305234
0.309169
0.308391
0.304096
0.298336
0.292864
0.288522
0.285766
0.285285
0.28742
0.291289
0.296468
0.302366
0.307745
0.310514
0.309106
0.302767
0.293416
0.266475
0.273121
0.278283
0.282116
0.284821
0.286045
0.285645
0.284212
0.282663
0.281903
0.282427
0.284038
0.285928
0.287163
0.286921
0.284965
0.281766
0.277271
0.271726
0.267924
0.263453
0.266187
0.270382
0.273969
0.276347
0.277823
0.278579
0.278685
0.278389
0.278206
0.278612
0.279334
0.279771
0.279558
0.278593
0.276836
0.273928
0.269876
0.266242
0.265121
0.264739
0.265479
0.267052
0.268815
0.270639
0.27229
0.273465
0.274138
0.274464
0.274693
0.275017
0.275256
0.275129
0.27446
0.273211
0.271529
0.269838
0.26813
0.266978
0.266701
0.263345
0.263629
0.264345
0.265206
0.26608
0.266952
0.267753
0.268457
0.269004
0.269431
0.26976
0.269873
0.269688
0.269238
0.268629
0.267837
0.267086
0.266299
0.265818
0.265718
0.260858
0.260988
0.261344
0.26188
0.262522
0.263246
0.263987
0.264687
0.26532
0.265883
0.266276
0.266402
0.26627
0.265924
0.265444
0.264918
0.264433
0.264027
0.263812
0.263766
0.257435
0.257501
0.25768
0.257964
0.258333
0.258795
0.259347
0.259969
0.260625
0.261276
0.261784
0.262038
0.262066
0.261948
0.261759
0.261549
0.26135
0.261185
0.261098
0.261074
0.253617
0.25366
0.253783
0.253986
0.254272
0.254656
0.255146
0.255743
0.256438
0.257201
0.257861
0.258274
0.258468
0.258515
0.258478
0.258402
0.258318
0.258245
0.258204
0.258189
0.249484
0.249508
0.249602
0.249757
0.249992
0.250331
0.250799
0.251415
0.252187
0.253096
0.253951
0.254554
0.254924
0.255128
0.255227
0.255265
0.25527
0.255261
0.255252
0.255243
0.245073
0.245098
0.245176
0.245318
0.245544
0.245886
0.246378
0.247059
0.247955
0.249064
0.250163
0.250994
0.251547
0.251903
0.252119
0.252244
0.252311
0.252342
0.252352
0.252346
0.240373
0.240393
0.240477
0.240628
0.240874
0.241254
0.241815
0.242612
0.243691
0.245066
0.246467
0.247559
0.248333
0.248846
0.249176
0.24938
0.249499
0.249564
0.24959
0.249586
0.235365
0.235387
0.23548
0.235654
0.235941
0.23639
0.237063
0.238032
0.239363
0.241086
0.242873
0.244298
0.245308
0.245998
0.24645
0.246736
0.246907
0.247003
0.247043
0.247039
0.229983
0.230007
0.230119
0.23033
0.230681
0.231232
0.232064
0.233269
0.234936
0.237109
0.23938
0.241202
0.24251
0.243408
0.244001
0.244379
0.244608
0.244737
0.244793
0.244789
0.224137
0.224167
0.224307
0.22457
0.22501
0.225703
0.226749
0.228268
0.230373
0.233125
0.236008
0.238328
0.239997
0.241146
0.241908
0.242394
0.242691
0.242859
0.242931
0.242927
0.217708
0.217746
0.217924
0.21826
0.218819
0.2197
0.221031
0.222962
0.225635
0.229127
0.232783
0.235722
0.237839
0.239297
0.240264
0.240883
0.241261
0.241474
0.241567
0.241561
0.210532
0.210581
0.210811
0.211243
0.211962
0.213092
0.214798
0.217265
0.220672
0.225109
0.229739
0.233454
0.236126
0.237966
0.239187
0.239968
0.240445
0.240715
0.240831
0.240825
0.202391
0.202455
0.202755
0.203317
0.204248
0.20571
0.207908
0.211075
0.21543
0.22107
0.226926
0.231609
0.234971
0.237284
0.238819
0.2398
0.2404
0.240739
0.240885
0.240877
0.19299
0.193076
0.19347
0.194208
0.195427
0.197332
0.200183
0.204267
0.209845
0.217016
0.22441
0.230297
0.234514
0.237413
0.239336
0.240566
0.241317
0.241742
0.241924
0.241913
0.181926
0.182044
0.18257
0.18355
0.185163
0.18767
0.191395
0.19669
0.20385
0.212962
0.222274
0.229648
0.23492
0.238544
0.240949
0.242488
0.243428
0.24396
0.244187
0.244172
0.168643
0.168809
0.16952
0.170844
0.173011
0.176353
0.181268
0.188171
0.197383
0.208942
0.220623
0.22982
0.236386
0.240905
0.243909
0.245836
0.247014
0.247679
0.247964
0.247945
0.152345
0.152585
0.153567
0.1554
0.158379
0.162914
0.169478
0.178539
0.190405
0.205023
0.219591
0.230991
0.239134
0.244758
0.248515
0.250933
0.252414
0.253248
0.253603
0.25358
0.131821
0.132169
0.133582
0.13623
0.140468
0.14677
0.155672
0.167652
0.182933
0.201315
0.219334
0.233352
0.243393
0.25038
0.255093
0.258154
0.260035
0.26109
0.261535
0.261508
0.105107
0.105629
0.107823
0.111907
0.118207
0.127221
0.139505
0.155434
0.175053
0.197971
0.220012
0.237065
0.249351
0.258016
0.263969
0.267911
0.270375
0.271761
0.272338
0.272299
0.0688208
0.0697472
0.073641
0.0804986
0.0903355
0.103628
0.120803
0.141982
0.166961
0.195173
0.22175
0.242212
0.257086
0.267789
0.275364
0.280579
0.283992
0.285999
0.286853
0.286785
0.0162923
0.0190224
0.0273865
0.0399571
0.0560464
0.0760242
0.0999973
0.127804
0.159078
0.193186
0.224654
0.248778
0.266506
0.279583
0.289213
0.296233
0.301231
0.304503
0.306101
0.306035
-0.0640709
-0.0507935
-0.0314162
-0.00850919
0.0171551
0.0460752
0.0782759
0.113621
0.151795
0.192268
0.22903
0.257224
0.278279
0.294298
0.306694
0.316436
0.32417
0.330182
0.334255
0.335265
-0.14932
-0.121157
-0.0900371
-0.0567656
-0.0213846
0.0163585
0.0566564
0.0995141
0.144779
0.192142
0.235058
0.268271
0.293526
0.313273
0.329116
0.342163
0.353102
0.362689
0.37135
0.372822
-0.210978
-0.180639
-0.141725
-0.100302
-0.0567778
-0.0111541
0.0365735
0.0863983
0.13826
0.191981
0.240401
0.277792
0.306214
0.328404
0.346098
0.360456
0.372289
0.382085
0.389492
0.390963
-0.25876
-0.22634
-0.183096
-0.136398
-0.087112
-0.0354927
0.0182554
0.073987
0.131575
0.190844
0.243977
0.284766
0.315477
0.33912
0.357653
0.372415
0.384366
0.394116
0.401532
0.403106
-0.29498
-0.26221
-0.21612
-0.165839
-0.112546
-0.0565176
0.00191508
0.0624791
0.124967
0.189153
0.246508
0.290236
0.322814
0.347578
0.366709
0.38172
0.393676
0.403267
0.410405
0.411993
-0.324009
-0.291136
-0.24335
-0.190514
-0.134172
-0.0747349
-0.0125986
0.0518904
0.118478
0.186935
0.248112
0.294581
0.328926
0.354738
0.37443
0.389676
0.40167
0.41118
0.418137
0.419725
-0.348199
-0.315265
-0.266337
-0.211714
-0.15312
-0.0910401
-0.0259874
0.0416569
0.111689
0.183982
0.248856
0.29814
0.334367
0.36134
0.381686
0.397248
0.409343
0.418807
0.425615
0.42721
-0.369296
-0.336151
-0.286285
-0.230292
-0.169983
-0.105904
-0.0385849
0.0315735
0.104473
0.180229
0.248803
0.301153
0.339542
0.367912
0.389085
0.405081
0.417361
0.426843
0.433563
0.435165
-0.388054
-0.354636
-0.304052
-0.246935
-0.185267
-0.119641
-0.0506208
0.0214346
0.0966246
0.1755
0.247887
0.303709
0.344705
0.374829
0.397079
0.413678
0.426237
0.435807
0.442444
0.444038
-0.405235
-0.371419
-0.320099
-0.262065
-0.199331
-0.13255
-0.0623104
0.0110726
0.087978
0.169598
0.245964
0.30581
0.350006
0.382363
0.406031
0.423448
0.436416
0.446143
0.452753
0.454352
-0.42084
-0.386664
-0.334735
-0.275921
-0.212349
-0.144743
-0.0737425
0.000400718
0.0783942
0.162316
0.242808
0.307355
0.355503
0.390715
0.416236
0.434754
0.448301
0.45824
0.464861
0.466548
-0.435294
-0.400711
-0.348129
-0.288654
-0.224441
-0.156291
-0.0849447
-0.0106195
0.0677747
0.153428
0.238147
0.308145
0.361169
0.400017
0.42795
0.447918
0.46226
0.472587
0.479109
0.480952
-0.448599
-0.413773
-0.360456
-0.300377
-0.235668
-0.167216
-0.0958937
-0.021949
0.0560796
0.142731
0.231646
0.307924
0.366905
0.410337
0.441362
0.463221
0.478593
0.489389
0.496064
0.497854
-0.460867
-0.425499
-0.371807
-0.311165
-0.246042
-0.177494
-0.106531
-0.0335219
0.0433168
0.130051
0.222954
0.306364
0.372533
0.421679
0.456621
0.480893
0.497611
0.509033
0.51587
0.51761
-0.472257
-0.436419
-0.382138
-0.321017
-0.255581
-0.18708
-0.116775
-0.0452148
0.0295716
0.115257
0.211702
0.303077
0.377815
0.433956
0.473747
0.501053
0.519531
0.531828
0.53891
0.540433
-0.482813
-0.446457
-0.39158
-0.32997
-0.264278
-0.195939
-0.126517
-0.0568944
0.0149665
0.0982933
0.197529
0.297649
0.382474
0.446942
0.492712
0.523796
0.544447
0.557851
0.565246
0.566464
-0.492524
-0.455601
-0.400143
-0.338062
-0.27214
-0.204032
-0.135661
-0.0683728
-0.000331544
0.079175
0.180082
0.289643
0.386092
0.460393
0.513198
0.548974
0.572266
0.586886
0.594529
0.595371
-0.501416
-0.463945
-0.407894
-0.345332
-0.279187
-0.211338
-0.144119
-0.0794863
-0.016096
0.057968
0.159084
0.278644
0.388436
0.47377
0.534702
0.576413
0.603201
0.619085
0.626528
0.626654
-0.509719
-0.47155
-0.414888
-0.351829
-0.285445
-0.21785
-0.151816
-0.0900687
-0.0320653
0.0348155
0.13425
0.264197
0.388928
0.486685
0.556797
0.605216
0.636926
0.654502
0.660199
0.658786
-0.517334
-0.478491
-0.421158
-0.357593
-0.290957
-0.223572
-0.1587
-0.0999544
-0.0479814
0.00997234
0.105308
0.245905
0.387356
0.498677
0.577869
0.633743
0.672609
0.69502
0.697211
0.690239
-0.524499
-0.484836
-0.426762
-0.362694
-0.2958
-0.228562
-0.164795
-0.109129
-0.0638101
-0.0167101
0.0715149
0.222619
0.38367
0.509866
0.59606
0.658153
0.705827
0.741339
0.748757
0.722166
-0.531222
-0.490581
-0.43176
-0.367268
-0.300122
-0.232962
-0.170254
-0.11778
-0.0799325
-0.0465258
0.03001
0.191004
0.376868
0.519836
0.609191
0.672764
0.723161
0.754196
0.753414
0.717702
-0.537363
-0.495615
-0.436026
-0.37129
-0.303832
-0.236649
-0.174979
-0.125602
-0.0957939
-0.0788877
-0.0200627
0.148875
0.366298
0.532232
0.615227
0.664919
0.699282
0.703083
0.632847
0.582199
-0.542186
-0.499562
-0.439178
-0.374274
-0.306514
-0.239374
-0.178827
-0.132369
-0.111
-0.113849
-0.0799498
0.0940749
0.35348
0.546661
0.614209
0.621283
0.633286
0.582085
0.492067
0.432566
-0.601208
-0.499909
-0.442373
-0.377206
-0.309318
-0.242124
-0.181654
-0.137541
-0.124874
-0.151814
-0.153135
0.019282
0.326603
0.556057
0.602267
0.563736
0.509529
0.42115
0.313508
0.253526
-0.51787
-0.501761
-0.44609
-0.380891
-0.312414
-0.244518
-0.18503
-0.144692
-0.145104
-0.21383
-0.299416
-0.16155
0.243237
0.535809
0.562469
0.362011
0.181816
0.0669913
-0.0402923
0.0164688
-0.544307
-0.508578
-0.450378
-0.384826
-0.315461
-0.246812
-0.186495
-0.147488
-0.155293
-0.251697
-0.422015
-0.371913
0.09641
0.452038
0.387967
0.125208
-0.102749
-0.25275
-0.399136
-0.288588
-0.558489
-0.517555
-0.456612
-0.389621
-0.318933
-0.249118
-0.187625
-0.14901
-0.162846
-0.291583
-0.585234
-0.694629
-0.138752
0.228975
0.120881
-0.195579
-0.445599
-0.63462
-0.855832
-0.707081
-0.571195
-0.526182
-0.462966
-0.393919
-0.321653
-0.250391
-0.187626
-0.148819
-0.16762
-0.332599
-0.791886
-1.17554
-0.518051
-0.127125
-0.267534
-0.574607
-0.869082
-1.11637
-1.43749
-1.34277
-0.581465
-0.534359
-0.469099
-0.398042
-0.324035
-0.251
-0.186521
-0.146405
-0.168031
-0.362531
-1.00865
-1.78722
-1.05811
-0.571352
-0.696777
-0.953307
-1.29758
-1.64914
-2.07963
-2.40987
-0.590375
-0.542143
-0.475299
-0.402381
-0.326439
-0.251306
-0.184479
-0.141814
-0.163241
-0.377491
-1.18607
-2.33789
-1.58733
-1.03768
-1.07812
-1.26644
-1.58845
-1.96036
-2.14315
-2.53617
-0.599262
-0.55002
-0.481812
-0.40709
-0.329046
-0.251504
-0.181617
-0.135096
-0.152508
-0.377775
-1.32483
-2.66609
-1.96418
-1.43597
-1.40864
-1.51184
-1.65211
-1.89087
-2.03556
-2.07643
-0.60854
-0.55838
-0.488804
-0.412245
-0.331987
-0.251667
-0.178104
-0.126171
-0.135028
-0.355844
-1.33319
-2.69914
-2.0881
-1.6687
-1.66279
-1.75227
-1.64423
-1.6831
-1.82884
-1.8281
-0.618704
-0.567553
-0.496491
-0.418018
-0.335389
-0.251976
-0.174169
-0.115239
-0.110807
-0.297148
-1.17364
-2.35034
-1.89274
-1.71679
-1.85886
-2.10682
-1.82333
-1.51779
-1.72555
-1.85543
-0.630413
-0.577935
-0.505211
-0.424704
-0.33951
-0.252789
-0.170115
-0.103073
-0.081074
-0.211569
-0.859833
-1.66736
-1.43886
-1.54816
-2.04411
-2.83686
-3.1976
-2.95021
-2.68771
-2.6114
-0.643968
-0.589948
-0.515354
-0.432629
-0.344737
-0.254438
-0.166602
-0.0906061
-0.0482026
-0.110927
-0.478321
-0.893129
-0.872343
-1.18823
-2.02182
-3.50866
-4.71674
-4.45758
-3.82651
-3.50131
-0.659711
-0.603967
-0.527285
-0.442167
-0.351398
-0.25742
-0.16419
-0.0787387
-0.0155549
-0.0113869
-0.131055
-0.232721
-0.311411
-0.654697
-1.43043
-2.58881
-3.45688
-3.35011
-2.89657
-2.65682
-0.67795
-0.620386
-0.541338
-0.453624
-0.359833
-0.262028
-0.163395
-0.0689532
0.0139784
0.0741565
0.112646
0.178339
0.140117
-0.0270394
-0.363269
-0.736355
-1.00372
-1.00334
-0.90253
-0.855714
-0.698966
-0.639418
-0.557708
-0.46716
-0.370217
-0.268663
-0.16478
-0.0614881
0.0387156
0.139335
0.257715
0.390241
0.432524
0.412648
0.338039
0.281815
0.289092
0.330791
0.353631
0.359329
-0.722647
-0.661054
-0.576358
-0.482831
-0.382611
-0.27715
-0.168157
-0.056927
0.0574467
0.185243
0.339101
0.495224
0.593917
0.657212
0.704757
0.756433
0.815065
0.861897
0.883017
0.885499
-0.74806
-0.684536
-0.596889
-0.500134
-0.396547
-0.287331
-0.17354
-0.0551626
0.0703922
0.215641
0.384609
0.54839
0.674402
0.773308
0.856684
0.930845
0.9951
1.04182
1.06589
1.07027
-0.774433
-0.70914
-0.618315
-0.518388
-0.411436
-0.298512
-0.180177
-0.055899
0.0780619
0.233956
0.408563
0.571961
0.705019
0.812029
0.899843
0.972562
1.03117
1.07453
1.09984
1.10528
-0.799656
-0.732716
-0.639433
-0.536179
-0.425971
-0.309627
-0.187405
-0.0583465
0.0818208
0.243413
0.418442
0.576996
0.707279
0.811702
0.89503
0.961298
1.01392
1.05349
1.07843
1.0841
-0.820302
-0.752952
-0.657607
-0.551599
-0.438549
-0.319332
-0.194066
-0.061451
0.0826549
0.24667
0.41889
0.570433
0.694006
0.79255
0.870366
0.931668
0.979845
1.01716
1.0398
1.04631
-0.833839
-0.766821
-0.670107
-0.561931
-0.446968
-0.325873
-0.198704
-0.0641592
0.0814136
0.245521
0.412254
0.555768
0.671798
0.764113
0.837094
0.894721
0.94031
0.975895
0.997733
1.00439
-0.835939
-0.769907
-0.673602
-0.564417
-0.448612
-0.327158
-0.199854
-0.0654585
0.0791493
0.239516
0.399223
0.534354
0.642726
0.729167
0.797873
0.852481
0.89601
0.929971
0.951302
0.958173
-0.820101
-0.75721
-0.663086
-0.554947
-0.440778
-0.32124
-0.196126
-0.0645014
0.0761344
0.230079
0.380475
0.506363
0.606867
0.687445
0.752067
0.803876
0.845599
0.878017
0.899145
0.906318
-0.778525
-0.721427
-0.633117
-0.529219
-0.419755
-0.30551
-0.186196
-0.060825
0.0725849
0.217084
0.355892
0.471261
0.562913
0.637015
0.697094
0.745814
0.78534
0.816527
0.837322
0.844934
-0.707428
-0.659668
-0.57732
-0.482757
-0.382699
-0.278082
-0.168583
-0.0533731
0.0690111
0.200678
0.325944
0.428365
0.509584
0.575129
0.628816
0.673021
0.708935
0.737724
0.758727
0.766235
-0.596944
-0.562145
-0.492795
-0.412604
-0.327602
-0.237634
-0.142294
-0.0411429
0.0666524
0.182138
0.290757
0.378022
0.446078
0.499951
0.543282
0.578937
0.608262
0.631058
0.646443
0.651404
-0.431525
-0.414302
-0.370991
-0.315686
-0.253824
-0.184618
-0.108324
-0.0244748
0.0671603
0.166751
0.260622
0.33528
0.392413
0.436548
0.47068
0.496692
0.516569
0.532725
0.544841
0.548145
-0.262
-0.256709
-0.236838
-0.207865
-0.170431
-0.12418
-0.0686162
-0.0036286
0.0707702
0.154128
0.233761
0.296892
0.344338
0.379563
0.405359
0.424216
0.437791
0.446557
0.451313
0.452373
-0.135106
-0.133313
-0.126081
-0.113055
-0.0933462
-0.0654459
-0.0279736
0.0197696
0.0778341
0.145489
0.211302
0.263346
0.301758
0.329605
0.34932
0.362487
0.370616
0.375417
0.377865
0.378193
-0.0518015
-0.0523985
-0.05139
-0.0462157
-0.0355377
-0.018319
0.00681176
0.0411845
0.0854351
0.139131
0.192548
0.234883
0.26569
0.28725
0.301653
0.310944
0.316652
0.31967
0.320722
0.320765
-0.00283184
-0.00353023
-0.0039694
-0.00210555
0.00367047
0.0147077
0.0322905
0.0575229
0.0912228
0.133333
0.175897
0.209666
0.234012
0.250919
0.262224
0.269315
0.273315
0.275236
0.275881
0.275908
0.0262926
0.0260041
0.0259342
0.0273186
0.0311451
0.0385095
0.0507947
0.0693117
0.0949566
0.127836
0.161589
0.188476
0.207791
0.221018
0.229603
0.234867
0.237867
0.23935
0.239882
0.239925
0.0454213
0.0453203
0.0454061
0.046499
0.0493368
0.0547704
0.0638195
0.0776025
0.0970893
0.122598
0.149117
0.170293
0.185423
0.195716
0.202402
0.206507
0.208824
0.209954
0.210364
0.210399
0.0578247
0.0578156
0.0580071
0.058928
0.0610882
0.0651436
0.071931
0.0823764
0.0973041
0.11708
0.13784
0.154478
0.166367
0.174439
0.179652
0.182834
0.184631
0.18551
0.185837
0.185864
0.0656305
0.0656615
0.0658955
0.0666851
0.0684001
0.0715271
0.0766997
0.0846645
0.0961315
0.111464
0.127673
0.140697
0.149996
0.156295
0.160357
0.162836
0.164236
0.164924
0.165177
0.165196
0.0701003
0.0701402
0.0703629
0.0710147
0.0723685
0.0747941
0.0787789
0.0849058
0.09375
0.105638
0.118268
0.128443
0.13571
0.14063
0.1438
0.145731
0.14682
0.147353
0.147548
0.147561
0.0720552
0.0720937
0.0722868
0.0728144
0.0738823
0.0757703
0.0788526
0.0835838
0.090422
0.0996454
0.109481
0.117417
0.123087
0.126924
0.129393
0.130895
0.131739
0.132151
0.1323
0.132308
0.072078
0.0721111
0.0722702
0.0726903
0.073528
0.0749986
0.0773896
0.0810528
0.0863501
0.0935089
0.10116
0.107343
0.111762
0.11475
0.116672
0.11784
0.118494
0.118812
0.118924
0.11893
0.0706048
0.0706319
0.0707591
0.0710898
0.0717447
0.0728891
0.0747448
0.0775849
0.0816922
0.0872501
0.0932003
0.0980124
0.101452
0.103777
0.105271
0.106176
0.106683
0.106927
0.107013
0.107016
0.0679697
0.0679915
0.0680923
0.0683514
0.0688615
0.0697511
0.0711919
0.0733952
0.076581
0.0808952
0.0855182
0.0892595
0.0919341
0.0937418
0.0949022
0.0956049
0.095996
0.0961827
0.096247
0.096249
0.064434
0.064451
0.0645296
0.0647312
0.0651282
0.0658194
0.0669372
0.0686456
0.0711163
0.0744639
0.0780541
0.0809608
0.0830383
0.084441
0.08534
0.0858831
0.0861849
0.0863297
0.086379
0.08638
0.060198
0.0602111
0.0602724
0.0604291
0.0607369
0.0612724
0.0621386
0.0634627
0.0653778
0.0679734
0.0707578
0.0730121
0.0746228
0.0757099
0.0764059
0.0768261
0.0770592
0.0771697
0.0772066
0.0772071
0.0554196
0.0554296
0.0554768
0.0555977
0.0558355
0.0562498
0.05692
0.0579445
0.0594263
0.0614347
0.0635907
0.0653358
0.0665819
0.067423
0.0679617
0.0682863
0.0684652
0.0685493
0.0685773
0.0685774
0.0502208
0.0502284
0.0502645
0.0503574
0.0505408
0.0508602
0.0513769
0.0521671
0.0533106
0.0548613
0.056526
0.057874
0.0588368
0.0594857
0.0598996
0.060148
0.0602848
0.0603484
0.0603691
0.060369
0.0446984
0.0447041
0.0447311
0.0448017
0.0449414
0.0451859
0.0455825
0.0461892
0.0470675
0.0482593
0.0495384
0.0505741
0.0513135
0.0518111
0.0521286
0.0523192
0.0524234
0.0524715
0.0524859
0.0524857
0.0389252
0.0389292
0.0389489
0.0390017
0.0391076
0.0392938
0.0395963
0.0400593
0.0407294
0.0416387
0.0426148
0.043404
0.0439656
0.0443433
0.0445843
0.0447288
0.044808
0.0448444
0.0448556
0.0448552
0.0329595
0.0329623
0.0329768
0.0330162
0.0330957
0.0332353
0.0334619
0.0338096
0.0343137
0.034998
0.0357324
0.0363266
0.0367503
0.0370352
0.0372163
0.0373237
0.0373814
0.0374075
0.0374145
0.0374142
0.0268504
0.0268521
0.0268618
0.0268897
0.0269473
0.0270493
0.0272154
0.0274707
0.0278414
0.0283452
0.0288869
0.0293255
0.029638
0.0298469
0.0299782
0.030056
0.0300975
0.0301155
0.03012
0.0301197
0.0206325
0.020633
0.0206392
0.0206584
0.0206982
0.0207691
0.020886
0.0210667
0.0213292
0.0216854
0.0220676
0.0223756
0.0225944
0.0227411
0.0228345
0.0228895
0.0229185
0.0229308
0.0229337
0.0229332
0.014338
0.0143381
0.0143413
0.0143531
0.0143782
0.0144241
0.0144998
0.014617
0.0147874
0.0150194
0.0152686
0.0154697
0.0156124
0.0157079
0.0157671
0.0158007
0.0158175
0.0158235
0.0158239
0.0158234
0.00798768
0.00798762
0.00798879
0.00799424
0.00800719
0.00803153
0.00807189
0.00813396
0.00822452
0.00834774
0.00848163
0.00858759
0.00866233
0.00871101
0.00874151
0.00875924
0.00876747
0.00876968
0.00876929
0.00876934
0.00160035
0.00159886
0.0015964
0.00159564
0.00159704
0.00160063
0.00160714
0.00161781
0.00163357
0.00165552
0.00168363
0.00170956
0.00172756
0.00173979
0.00174796
0.00175277
0.00175531
0.00175599
0.00175458
0.0017521
-0.938257
-0.621678
-0.287167
-0.0221333
0.189262
0.359067
0.503959
0.629558
0.692502
0.662214
-0.378493
-0.179748
0.0193648
0.188822
0.331815
0.451387
0.549427
0.620606
0.654972
0.656732
-0.0249333
0.0998159
0.226619
0.338323
0.434362
0.514752
0.578651
0.62314
0.650168
0.659733
0.202957
0.283888
0.367803
0.443992
0.510921
0.567251
0.611816
0.643662
0.665412
0.676956
0.361611
0.415818
0.476163
0.531873
0.580346
0.62091
0.653198
0.677661
0.696295
0.709361
0.4797
0.520667
0.565497
0.607757
0.64491
0.677137
0.704474
0.726083
0.742709
0.756902
0.575915
0.60859
0.647356
0.683278
0.716595
0.746099
0.770774
0.790299
0.80473
0.82
0.665528
0.698124
0.735114
0.769979
0.801643
0.829354
0.852678
0.871232
0.883934
0.899967
0.761769
0.797469
0.837011
0.872166
0.903561
0.930647
0.952979
0.969974
0.981285
0.998182
0.878686
0.917945
0.958227
0.993746
1.02375
1.04894
1.06941
1.0853
1.09657
1.11443
1.02511
1.06451
1.10137
1.1327
1.15885
1.18122
1.2005
1.21601
1.22834
1.2463
1.20093
1.23317
1.25966
1.28239
1.3026
1.32143
1.33926
1.35596
1.37146
1.3895
1.39007
1.40766
1.42294
1.43917
1.45515
1.46983
1.48316
1.49714
1.51485
1.53498
1.57245
1.58184
1.59351
1.60452
1.61395
1.62357
1.63431
1.6457
1.65714
1.67253
1.77934
1.78304
1.76819
1.75367
1.7476
1.75326
1.7718
1.80212
1.83424
1.86086
2.08632
1.95157
1.87483
1.83201
1.81438
1.81861
1.84588
1.90237
2.00523
2.22968
0.348782
0.346857
0.342678
0.334634
0.323025
0.311578
0.302037
0.294764
0.289632
0.286605
0.286094
0.288323
0.292687
0.299076
0.307615
0.318322
0.330218
0.340585
0.346214
0.348973
0.272402
0.278443
0.285461
0.290843
0.294135
0.294684
0.292802
0.289665
0.286557
0.284378
0.284028
0.285806
0.288832
0.292287
0.295107
0.295948
0.294069
0.289644
0.283589
0.27644
0.263896
0.266015
0.270731
0.275097
0.278022
0.279874
0.280855
0.280936
0.280359
0.279765
0.279786
0.280537
0.281551
0.282106
0.281751
0.280453
0.278182
0.274605
0.269806
0.266168
0.26428
0.264836
0.267146
0.270183
0.272861
0.274885
0.27619
0.276839
0.276985
0.27692
0.277087
0.277603
0.277967
0.277843
0.277043
0.275541
0.273242
0.270431
0.267577
0.266167
0.264265
0.264416
0.265063
0.26612
0.267205
0.268346
0.269531
0.270465
0.27111
0.271536
0.271877
0.272108
0.272053
0.271603
0.270755
0.269725
0.268703
0.267698
0.266817
0.266465
0.262239
0.262306
0.262686
0.263364
0.264139
0.264963
0.265737
0.266452
0.267074
0.267603
0.268035
0.268287
0.268276
0.268013
0.267554
0.266937
0.266251
0.265577
0.265057
0.264872
0.259219
0.259249
0.259398
0.259702
0.260114
0.260635
0.261249
0.261916
0.262587
0.263225
0.26377
0.264089
0.264134
0.263966
0.26367
0.263332
0.263013
0.262733
0.262544
0.262481
0.255567
0.255585
0.255684
0.255882
0.256163
0.256532
0.256994
0.25755
0.258186
0.258877
0.25954
0.260003
0.260218
0.260255
0.260182
0.260055
0.259913
0.259781
0.259687
0.259652
0.251585
0.251595
0.251663
0.2518
0.252012
0.252314
0.252728
0.253266
0.253935
0.254721
0.255539
0.256179
0.256562
0.256755
0.256827
0.256832
0.256805
0.256768
0.256737
0.256723
0.247315
0.247323
0.247371
0.247484
0.247668
0.247945
0.248346
0.248901
0.249635
0.250554
0.251573
0.252433
0.253014
0.253375
0.253588
0.253704
0.253761
0.253784
0.25379
0.253788
0.242759
0.242761
0.242815
0.242925
0.243109
0.243399
0.243833
0.244455
0.245308
0.246417
0.247696
0.248825
0.249615
0.250158
0.250503
0.250717
0.250842
0.250911
0.250943
0.25095
0.237911
0.237912
0.237967
0.238089
0.238297
0.238628
0.239131
0.239867
0.240897
0.242265
0.243878
0.245332
0.246397
0.247125
0.247609
0.247919
0.248109
0.248218
0.248273
0.248287
0.232726
0.232725
0.232789
0.232932
0.233179
0.233577
0.234189
0.235091
0.236366
0.238077
0.240117
0.241981
0.243353
0.244311
0.244955
0.245371
0.245629
0.245781
0.245858
0.245879
0.227124
0.227122
0.227201
0.227377
0.227683
0.228178
0.22894
0.230068
0.231669
0.233827
0.236412
0.238785
0.24054
0.241772
0.242603
0.243144
0.243482
0.243681
0.243784
0.243812
0.221004
0.221002
0.221101
0.221324
0.22171
0.222335
0.223299
0.224728
0.226755
0.229491
0.232769
0.235781
0.238011
0.239579
0.240639
0.24133
0.241761
0.242017
0.24215
0.242186
0.214226
0.214222
0.21435
0.214635
0.21513
0.215929
0.217161
0.218982
0.221565
0.225042
0.229201
0.233015
0.235836
0.23782
0.239161
0.240035
0.240582
0.240906
0.241074
0.24112
0.2066
0.206595
0.206761
0.20713
0.207769
0.2088
0.210385
0.212722
0.216024
0.220453
0.225728
0.230547
0.234105
0.236604
0.238292
0.239393
0.240082
0.24049
0.240702
0.240759
0.197873
0.197868
0.198086
0.198569
0.199403
0.200742
0.202795
0.20581
0.210047
0.215696
0.222381
0.228458
0.23293
0.236068
0.238187
0.239568
0.240432
0.240944
0.24121
0.241281
0.187702
0.187697
0.187989
0.188629
0.189729
0.191486
0.194165
0.198076
0.203532
0.210744
0.219205
0.226847
0.232452
0.236379
0.23903
0.240758
0.24184
0.242482
0.242814
0.242902
0.17561
0.175606
0.176004
0.176868
0.17834
0.180672
0.184202
0.189312
0.196365
0.205577
0.216261
0.225835
0.232832
0.237733
0.241043
0.243203
0.244558
0.245362
0.245779
0.245889
0.160911
0.160911
0.161475
0.162672
0.164678
0.167822
0.172533
0.179269
0.188426
0.200191
0.213633
0.225565
0.234261
0.240356
0.244484
0.247186
0.248887
0.249903
0.250432
0.25057
0.142601
0.142617
0.143454
0.145169
0.147966
0.152295
0.158696
0.167674
0.179612
0.194613
0.211428
0.226195
0.236937
0.244494
0.249643
0.253036
0.25519
0.256491
0.257178
0.257357
0.119154
0.119226
0.120551
0.123103
0.127137
0.133294
0.14219
0.154297
0.169897
0.188933
0.209788
0.227889
0.241053
0.250385
0.25682
0.261118
0.263885
0.265592
0.266518
0.266765
0.0880336
0.0882718
0.0905409
0.0945847
0.100785
0.109964
0.12264
0.139102
0.15943
0.183368
0.208913
0.230811
0.246762
0.258212
0.266269
0.271787
0.275435
0.277747
0.279048
0.279412
0.0444536
0.0451468
0.0496541
0.0568909
0.0673185
0.0816479
0.0999838
0.122342
0.148574
0.178241
0.20902
0.235074
0.254113
0.268007
0.278074
0.285251
0.29024
0.293582
0.295576
0.296114
-0.0200058
-0.0175267
-0.00703063
0.00741353
0.0259596
0.0484808
0.0747366
0.104603
0.1378
0.17384
0.210195
0.24059
0.262886
0.279456
0.291868
0.301188
0.308152
0.313325
0.316767
0.317359
-0.0982581
-0.0929681
-0.0733999
-0.0470975
-0.0180318
0.0138767
0.0487064
0.0864582
0.126974
0.169933
0.212704
0.248498
0.275166
0.295561
0.311485
0.324135
0.33436
0.342713
0.347665
0.349634
-0.177203
-0.164237
-0.134631
-0.0984081
-0.0597692
-0.0189285
0.0241069
0.0694085
0.116979
0.166668
0.21578
0.256895
0.2877
0.311503
0.330375
0.345617
0.358046
0.368264
0.375455
0.379194
-0.232566
-0.218633
-0.184271
-0.141729
-0.0962349
-0.0484475
0.00147739
0.0534424
0.107367
0.163122
0.217816
0.263355
0.297311
0.323346
0.343715
0.359868
0.372768
0.383124
0.3904
0.393938
-0.274997
-0.260884
-0.223066
-0.17645
-0.126403
-0.0736206
-0.0184745
0.0387983
0.0980234
0.159038
0.21867
0.268069
0.304573
0.33221
0.353528
0.370199
0.383333
0.393712
0.401072
0.404623
-0.307691
-0.293806
-0.254327
-0.204903
-0.151559
-0.0951212
-0.0359445
0.0256254
0.0892952
0.154857
0.21886
0.271695
0.310447
0.33947
0.361574
0.378631
0.391915
0.402291
0.409707
0.413268
-0.334497
-0.320772
-0.280131
-0.228848
-0.173099
-0.113811
-0.0514719
0.0134913
0.0807881
0.150232
0.218214
0.274364
0.315363
0.345801
0.368725
0.386214
0.399686
0.410105
0.417612
0.421176
-0.357319
-0.343642
-0.302125
-0.249462
-0.191956
-0.13055
-0.0657659
0.00191166
0.0721899
0.14501
0.216749
0.276295
0.319735
0.351783
0.37568
0.393706
0.407448
0.417963
0.425566
0.429128
-0.377399
-0.363762
-0.321395
-0.267641
-0.208747
-0.145697
-0.079049
-0.00930023
0.0633344
0.139038
0.214383
0.277557
0.323809
0.357797
0.382922
0.401663
0.41578
0.426469
0.434166
0.43777
-0.395447
-0.381741
-0.338798
-0.284027
-0.224011
-0.159672
-0.0916287
-0.0203647
0.054031
0.132126
0.210952
0.278118
0.327707
0.364111
0.390816
0.410506
0.425143
0.436084
0.443884
0.447513
-0.411967
-0.398091
-0.354575
-0.298935
-0.238007
-0.172702
-0.103665
-0.0314075
0.0441426
0.12408
0.20625
0.277853
0.331451
0.370899
0.39965
0.420599
0.435946
0.447239
0.455224
0.458888
-0.427136
-0.413103
-0.368889
-0.312606
-0.250918
-0.184893
-0.115234
-0.0424801
0.0335988
0.114742
0.200014
0.276549
0.334986
0.378252
0.40965
0.432254
0.448558
0.460342
0.46852
0.472215
-0.441164
-0.426937
-0.38201
-0.325117
-0.26284
-0.196314
-0.12636
-0.053589
0.0223692
0.103978
0.191974
0.273918
0.338152
0.386196
0.420975
0.445735
0.463292
0.475743
0.484188
0.487911
-0.454066
-0.439607
-0.394185
-0.33663
-0.273837
-0.206966
-0.137005
-0.064674
0.0104759
0.0916994
0.181839
0.269622
0.340719
0.394677
0.433738
0.461251
0.480427
0.493747
0.502559
0.506367
-0.466065
-0.45126
-0.405329
-0.347185
-0.28394
-0.216856
-0.147112
-0.0756423
-0.00198621
0.0778686
0.169349
0.263276
0.3424
0.403568
0.447974
0.47899
0.500225
0.514646
0.523925
0.527875
-0.477099
-0.462115
-0.415472
-0.356808
-0.293154
-0.225963
-0.156621
-0.0863665
-0.0148999
0.0625096
0.15426
0.254467
0.342854
0.412679
0.463628
0.499004
0.522838
0.538616
0.548493
0.552502
-0.487322
-0.472056
-0.424748
-0.365545
-0.30151
-0.234266
-0.165465
-0.09672
-0.0280657
0.0457064
0.13637
0.24278
0.341674
0.421761
0.480479
0.521118
0.548252
0.565786
0.576421
0.58043
-0.49665
-0.481127
-0.433171
-0.373427
-0.309028
-0.241752
-0.173581
-0.106573
-0.0413007
0.0276445
0.115525
0.22779
0.338542
0.430358
0.498083
0.545105
0.576278
0.59597
0.607325
0.611191
-0.505296
-0.489467
-0.440825
-0.380523
-0.315749
-0.248448
-0.180924
-0.115797
-0.0543873
0.0085371
0.0916592
0.209021
0.333034
0.438073
0.515951
0.570456
0.606795
0.629246
0.640667
0.643574
-0.513271
-0.497078
-0.447765
-0.386869
-0.321705
-0.254362
-0.187462
-0.124279
-0.0670999
-0.0113729
0.0647568
0.186138
0.324778
0.444662
0.53312
0.595795
0.639052
0.666214
0.677406
0.676213
-0.520704
-0.504157
-0.454021
-0.39251
-0.326954
-0.259532
-0.193193
-0.131942
-0.0792347
-0.0317783
0.0348913
0.158574
0.313311
0.449855
0.549147
0.618992
0.669919
0.705798
0.722005
0.710608
-0.527644
-0.510704
-0.459649
-0.39753
-0.331621
-0.264085
-0.198252
-0.13895
-0.0910651
-0.0534162
6.02368e-05
0.123544
0.297028
0.454124
0.563355
0.637413
0.693881
0.740289
0.764578
0.764444
-0.534123
-0.516686
-0.464619
-0.401971
-0.335776
-0.268084
-0.202637
-0.14523
-0.102392
-0.0760994
-0.0403968
0.0790546
0.274166
0.456837
0.576061
0.645558
0.696594
0.732425