/*--------------------------------*- C++ -*----------------------------------*\
  =========                 |
  \\      /  F ield         | OpenFOAM: The Open Source CFD Toolbox
   \\    /   O peration     | Website:  https://openfoam.org
    \\  /    A nd           | Version:  7
     \\/     M anipulation  |
\*---------------------------------------------------------------------------*/
FoamFile
{
    version     2.0;
    format      ascii;
    class       volScalarField;
    location    "4.3";
    object      T;
}
// * * * * * * * * * * * * * * * * * * * * * * * * * * * * * * * * * * * * * //

dimensions      [0 0 0 1 0 0 0];

internalField   nonuniform List<scalar> 
19968
(
1
1
1
1
1
1
1
1
1
1
1
1
1
1
1
1
1
1
1
1
1
1
1
1
1
1
1
1
1
1
1
1
1
1
1
1
1
1
1
1
1
1
1
1
1
1
1
1
1.23771
2.43756
2.6921
2.69471
2.6991
2.702
2.70484
2.70823
2.71258
2.7178
2.7232
2.7279
2.73143
2.73401
2.73626
2.73876
2.74187
2.74571
2.75008
2.75443
2.75808
2.76076
2.7628
2.76478
2.76718
2.77019
2.77355
2.77671
2.77925
2.78117
2.78283
2.78457
2.78655
2.7887
2.7908
2.79267
2.79427
2.79567
2.79694
2.7981
2.79914
2.80011
2.80111
2.80225
2.80353
2.80478
2.80575
2.80632
1
1
1
1
1
1
1
1
1
1
1
1
1
1
1
1
1
1
1
1
1
1
1
1
1
1
1
1
1
1
1
1
1
1
1
1
1
1
1
1
1
1
1
1
1
1
1
1
1.22286
2.42861
2.69172
2.69509
2.69903
2.7019
2.7047
2.70809
2.71252
2.7178
2.72318
2.72782
2.73128
2.7338
2.73601
2.7385
2.74163
2.74552
2.74992
2.75428
2.75791
2.76056
2.76257
2.76454
2.76694
2.76994
2.77329
2.77643
2.77895
2.78088
2.78253
2.78427
2.78624
2.78839
2.7905
2.79239
2.79399
2.79538
2.79663
2.79775
2.79875
2.79969
2.80069
2.80183
2.80314
2.80439
2.80537
2.80594
1
1
1
1
1
1
1
1
1
1
1
1
1
1
1
1
1
1
1
1
1
1
1
1
1
1
1
1
1
1
1
1
1
1
1
1
1
1
1
1
1
1
1
1
1
1
1
1
1.1896
2.40824
2.69216
2.69465
2.69818
2.70097
2.70389
2.70759
2.71233
2.71776
2.72308
2.72752
2.73077
2.73314
2.7353
2.73784
2.74111
2.74515
2.74967
2.75402
2.75758
2.76014
2.76211
2.76409
2.76651
2.76952
2.77285
2.77596
2.77848
2.78041
2.78208
2.78382
2.78579
2.78793
2.79005
2.79194
2.79355
2.79491
2.79609
2.79711
2.79801
2.79889
2.79985
2.80099
2.80232
2.8036
2.80458
2.80516
1
1
1
1
1
1
1
1
1
1
1
1
1
1
1
1
1
1
1
1
1
1
1
1
1
1
1
1
1
1
1
1
1
1
1
1
1
1
1
1
1
1
1
1
1
1
1
1
1.14188
2.37756
2.69188
2.69376
2.69662
2.69942
2.7028
2.70712
2.71232
2.71788
2.72304
2.72713
2.73002
2.73216
2.73426
2.73692
2.74042
2.7447
2.74931
2.75361
2.75701
2.75945
2.76136
2.76335
2.7658
2.76883
2.77213
2.77521
2.77771
2.77965
2.78133
2.78308
2.78506
2.78721
2.78934
2.79127
2.7929
2.79424
2.79535
2.79627
2.79706
2.79783
2.79871
2.7998
2.80108
2.80232
2.80326
2.80379
1
1
1
1
1
1
1
1
1
1
1
1
1
1
1
1
1
1
1
1
1
1
1
1
1
1
1
1
1
1
1
1
1
1
1
1
1
1
1
1
1
1
1
1
1
1
1
1
1.07664
2.33777
2.69021
2.69185
2.69469
2.69798
2.70194
2.70668
2.71207
2.71761
2.72254
2.72623
2.72875
2.73073
2.73288
2.73577
2.7396
2.74412
2.74876
2.75289
2.75604
2.75831
2.76015
2.76216
2.76467
2.76772
2.771
2.77403
2.77649
2.77843
2.78012
2.78187
2.78383
2.78596
2.78808
2.79001
2.79164
2.79296
2.79402
2.79487
2.7956
2.79632
2.79719
2.79828
2.79957
2.80079
2.80169
2.80217
1
1
1
1
1
1
1
1
1
1
1
1
1
1
1
1
1
1
1
1
1
1
1
1
1
1
1
1
1
1
1
1
1
1
1
1
1
1
1
1
1
1
1
1
1
1
1
1
1.00228
2.27428
2.68627
2.6897
2.69351
2.69782
2.7022
2.70698
2.71214
2.71724
2.72157
2.72469
2.72689
2.72884
2.7312
2.73446
2.73869
2.74344
2.74802
2.75186
2.75466
2.75669
2.75844
2.76046
2.76303
2.76611
2.76935
2.77232
2.77474
2.77669
2.77843
2.78023
2.78221
2.78434
2.78645
2.78837
2.79
2.79131
2.79233
2.79312
2.79378
2.79444
2.79526
2.79631
2.79755
2.79872
2.79956
2.8
1
1
1
1
1
1
1
1
1
1
1
1
1
1
1
1
1
1
1
1
1
1
1
1
1
1
1
1
1
1
1
1
1
1
1
1
1
1
1
1
1
1
1
1
1
1
1
1
1.00001
2.18285
2.68004
2.68758
2.69209
2.69682
2.70121
2.70574
2.71048
2.71503
2.71883
2.7217
2.72397
2.72624
2.72902
2.73269
2.73722
2.74206
2.7464
2.74983
2.7522
2.75396
2.75567
2.7578
2.76054
2.76374
2.767
2.76991
2.77229
2.77425
2.77603
2.77787
2.77986
2.78194
2.78398
2.78584
2.78743
2.78873
2.78976
2.79054
2.79118
2.79183
2.79263
2.79367
2.79487
2.796
2.79678
2.79719
1
1
1
1
1
1
1
1
1
1
1
1
1
1
1
1
1
1
1
1
1
1
1
1
1
1
1
1
1
1
1
1
1
1
1
1
1
1
1
1
1
1
1
1
1
1
1
1
1
2.05103
2.66539
2.68439
2.68976
2.6948
2.69897
2.70304
2.70722
2.7113
2.71484
2.71775
2.72032
2.72307
2.72636
2.73043
2.73517
2.74001
2.74411
2.74716
2.74921
2.75077
2.75249
2.75474
2.75766
2.76095
2.76419
2.76701
2.7693
2.77123
2.77305
2.77495
2.77696
2.77902
2.78099
2.78277
2.78431
2.7856
2.78663
2.78741
2.78803
2.78863
2.78936
2.79032
2.79143
2.79247
2.79318
2.79356
1
1
1
1
1
1
1
1
1
1
1
1
1
1
1
1
1
1
1
1
1
1
1
1
1
1
1
1
1
1
1
1
1
1
1
1
1
1
1
1
1
1
1
1
1
1
1
1
1
1.87051
2.6317
2.67815
2.6846
2.69016
2.69425
2.69804
2.70186
2.70575
2.70937
2.7126
2.71565
2.71894
2.72275
2.72714
2.73198
2.73674
2.74064
2.74339
2.74523
2.7466
2.74827
2.75058
2.75361
2.75697
2.76019
2.76293
2.76513
2.76702
2.76885
2.77077
2.7728
2.77481
2.77669
2.77835
2.77982
2.78109
2.78216
2.78302
2.7837
2.78432
2.78504
2.78596
2.78702
2.78802
2.7887
2.78909
1
1
1
1
1
1
1
1
1
1
1
1
1
1
1
1
1
1
1
1
1
1
1
1
1
1
1
1
1
1
1
1
1
1
1
1
1
1
1
1
1
1
1
1
1
1
1
1
1
1.63236
2.56896
2.67188
2.67864
2.68454
2.68856
2.69225
2.69587
2.6997
2.70353
2.70713
2.71057
2.71417
2.71822
2.72273
2.72753
2.73221
2.73607
2.73877
2.74063
2.742
2.74366
2.74598
2.74905
2.7524
2.75556
2.75818
2.76023
2.76197
2.76368
2.76553
2.76751
2.76949
2.77129
2.77287
2.77427
2.77551
2.77661
2.77751
2.7782
2.77877
2.77937
2.78014
2.78106
2.78198
2.78262
2.78301
1
1
1
1
1
1
1
1
1
1
1
1
1
1
1
1
1
1
1
1
1
1
1
1
1
1
1
1
1
1
1
1
1
1
1
1
1
1
1
1
1
1
1
1
1
1
1
1
1
1.32061
2.45693
2.67147
2.67338
2.6797
2.6833
2.68695
2.69049
2.69425
2.69816
2.70195
2.70555
2.70914
2.71303
2.7173
2.72184
2.72636
2.73031
2.73318
2.73522
2.73673
2.73842
2.7407
2.74368
2.74701
2.75015
2.75271
2.75463
2.75616
2.75763
2.75926
2.76105
2.76285
2.76446
2.76581
2.76697
2.76803
2.76903
2.76992
2.77063
2.77121
2.7718
2.77253
2.77343
2.77438
2.77511
2.77557
1
1
1
1
1
1
1
1
1
1
1
1
1
1
1
1
1
1
1
1
1
1
1
1
1
1
1
1
1
1
1
1
1
1
1
1
1
1
1
1
1
1
1
1
1
1
1
1
1
1.01125
2.268
2.67637
2.67653
2.67861
2.68148
2.68473
2.68807
2.6915
2.69496
2.69826
2.70133
2.70431
2.7075
2.71106
2.71494
2.71897
2.72279
2.72585
2.72809
2.72985
2.73151
2.73367
2.73644
2.73966
2.74279
2.74539
2.74729
2.7487
2.74997
2.75139
2.75303
2.75473
2.75627
2.75751
2.75853
2.75944
2.76032
2.76107
2.7616
2.7619
2.76211
2.76237
2.76281
2.76347
2.76408
2.76449
1
1
1
1
1
1
1
1
1
1
1
1
1
1
1
1
1
1
1
1
1
1
1
1
1
1
1
1
1
1
1
1
1
1
1
1
1
1
1
1
1
1
1
1
1
1
1
1
1
1.00002
1.97514
2.64066
2.66296
2.66797
2.67334
2.67754
2.68132
2.68481
2.68808
2.69109
2.69383
2.69642
2.69907
2.70202
2.70534
2.70889
2.7125
2.71578
2.71832
2.72038
2.72212
2.72418
2.72674
2.72977
2.73287
2.73556
2.73756
2.73894
2.74005
2.74122
2.74259
2.74407
2.74539
2.74635
2.74695
2.74735
2.74766
2.74787
2.74795
2.74793
2.74792
2.74808
2.74849
2.74912
2.74958
2.74994
1
1
1
1
1
1
1
1
1
1
1
1
1
1
1
1
1
1
1
1
1
1
1
1
1
1
1
1
1
1
1
1
1
1
1
1
1
1
1
1
1
1
1
1
1
1
1
1
1
1
1.49281
2.49809
2.64561
2.65509
2.66436
2.66959
2.67402
2.6779
2.68141
2.68456
2.68736
2.68992
2.69237
2.69493
2.69773
2.70073
2.70383
2.7069
2.7095
2.71158
2.71324
2.7149
2.71694
2.71941
2.7221
2.72459
2.72652
2.72777
2.72858
2.72931
2.73021
2.73129
2.73229
2.73295
2.73318
2.73311
2.73292
2.73269
2.7324
2.732
2.73137
2.73053
2.7292
2.72736
2.72513
2.72318
1
1
1
1
1
1
1
1
1
1
1
1
1
1
1
1
1
1
1
1
1
1
1
1
1
1
1
1
1
1
1
1
1
1
1
1
1
1
1
1
1
1
1
1
1
1
1
1
1
1
1.02203
2.21948
2.65413
2.65358
2.65541
2.65965
2.66396
2.6679
2.67145
2.67461
2.67744
2.68005
2.68256
2.68509
2.68771
2.69041
2.69307
2.69572
2.69819
2.7002
2.70179
2.70308
2.7045
2.70628
2.70839
2.71047
2.71215
2.71323
2.71377
2.71399
2.71425
2.71465
2.71501
2.71506
2.71464
2.71358
2.71192
2.70986
2.70742
2.70459
2.70133
2.69782
2.69462
2.69143
2.68926
2.68802
1
1
1
1
1
1
1
1
1
1
1
1
1
1
1
1
1
1
1
1
1
1
1
1
1
1
1
1
1
1
1
1
1
1
1
1
1
1
1
1
1
1
1
1
1
1
1
1
1
1
1.00003
1.70231
2.54084
2.63163
2.6392
2.64635
2.65085
2.6547
2.65818
2.66143
2.66451
2.66748
2.67043
2.67336
2.67614
2.67875
2.68113
2.68336
2.68558
2.68757
2.68912
2.6902
2.69108
2.69212
2.69336
2.69464
2.69575
2.69636
2.69639
2.69605
2.6954
2.69466
2.69388
2.69284
2.69124
2.68879
2.68541
2.68135
2.67685
2.67206
2.66685
2.66136
2.65607
2.65407
2.65163
2.6661
1
1
1
1
1
1
1
1
1
1
1
1
1
1
1
1
1
1
1
1
1
1
1
1
1
1
1
1
1
1
1
1
1
1
1
1
1
1
1
1
1
1
1
1
1
1
1
1
1
1
1
1.05543
2.30359
2.63638
2.63602
2.63917
2.64295
2.64633
2.64909
2.6515
2.65389
2.65642
2.65921
2.66216
2.66498
2.6675
2.66965
2.67149
2.67325
2.67504
2.67657
2.67765
2.67811
2.67848
2.67893
2.67942
2.67978
2.67975
2.67934
2.67831
2.67671
2.67475
2.67259
2.67014
2.66703
2.66283
2.65717
2.65
2.64114
2.63033
2.61581
2.59591
2.56624
2.52398
2.46049
2.33325
1
1
1
1
1
1
1
1
1
1
1
1
1
1
1
1
1
1
1
1
1
1
1
1
1
1
1
1
1
1
1
1
1
1
1
1
1
1
1
1
1
1
1
1
1
1
1
1
1
1
1
1.00023
1.94357
2.58945
2.61826
2.62588
2.63093
2.63486
2.63795
2.64042
2.64276
2.64531
2.64821
2.65141
2.65451
2.65712
2.65912
2.66062
2.6619
2.66336
2.66485
2.6659
2.66628
2.66639
2.66629
2.66609
2.66575
2.66514
2.66411
2.66241
2.65996
2.6569
2.65337
2.64938
2.64457
2.63851
2.63046
2.62024
2.607
2.59069
2.56848
2.53879
2.49472
2.43749
2.32466
2.16278
1
1
1
1
1
1
1
1
1
1
1
1
1
1
1
1
1
1
1
1
1
1
1
1
1
1
1
1
1
1
1
1
1
1
1
1
1
1
1
1
1
1
1
1
1
1
1
1
1
1
1
1
1.31825
2.40313
2.60018
2.61065
2.61724
2.62187
2.62539
2.62814
2.63071
2.63348
2.63666
2.64019
2.64357
2.64627
2.64817
2.64943
2.65035
2.65139
2.65259
2.65339
2.65371
2.65357
2.65298
2.65209
2.65106
2.64979
2.64805
2.6456
2.64229
2.63819
2.63331
2.62776
2.62111
2.61309
2.60271
2.58973
2.57301
2.55216
2.52513
2.48887
2.44004
2.36825
2.26233
2.13037
1
1
1
1
1
1
1
1
1
1
1
1
1
1
1
1
1
1
1
1
1
1
1
1
1
1
1
1
1
1
1
1
1
1
1
1
1
1
1
1
1
1
1
1
1
1
1
1
1
1
1
1
1.00925
2.08114
2.59638
2.59831
2.60159
2.6061
2.61044
2.6139
2.61696
2.62008
2.62365
2.62753
2.63108
2.63384
2.63569
2.6368
2.63765
2.63858
2.6396
2.64031
2.64039
2.63999
2.63895
2.63754
2.63594
2.63403
2.63153
2.62826
2.62404
2.61896
2.61284
2.60586
2.5975
2.58761
2.57526
2.56002
2.541
2.51732
2.48787
2.44908
2.4
2.33273
2.24749
2.14826
1
1
1
1
1
1
1
1
1
1
1
1
1
1
1
1
1
1
1
1
1
1
1
1
1
1
1
1
1
1
1
1
1
1
1
1
1
1
1
1
1
1
1
1
1
1
1
1
1
1
1
1
1
1.41843
2.43516
2.58136
2.58942
2.59509
2.59838
2.60104
2.60359
2.60657
2.61017
2.61401
2.61761
2.62034
2.62202
2.62304
2.62398
2.62507
2.62615
2.62679
2.62669
2.62595
2.62453
2.6227
2.62057
2.61812
2.61495
2.61095
2.60588
2.59985
2.59268
2.58447
2.57482
2.56345
2.54968
2.53296
2.51267
2.48791
2.45773
2.42003
2.37392
2.31731
2.25143
2.17229
1
1
1
1
1
1
1
1
1
1
1
1
1
1
1
1
1
1
1
1
1
1
1
1
1
1
1
1
1
1
1
1
1
1
1
1
1
1
1
1
1
1
1
1
1
1
1
1
1
1
1
1
1
1.01636
2.09543
2.58195
2.58431
2.5856
2.58707
2.5887
2.59046
2.59309
2.59686
2.60038
2.60371
2.6062
2.60755
2.60843
2.6094
2.6106
2.61178
2.61241
2.61221
2.61124
2.60951
2.60732
2.60473
2.60178
2.5981
2.59356
2.58785
2.58101
2.57297
2.56376
2.55316
2.5408
2.52616
2.5087
2.48809
2.46335
2.43424
2.39903
2.35752
2.31087
2.25658
2.19577
1
1
1
1
1
1
1
1
1
1
1
1
1
1
1
1
1
1
1
1
1
1
1
1
1
1
1
1
1
1
1
1
1
1
1
1
1
1
1
1
1
1
1
1
1
1
1
1
1
1
1
1
1
1.00002
1.37241
2.40903
2.57574
2.57648
2.5787
2.57969
2.58055
2.58215
2.58463
2.58713
2.58974
2.59186
2.59288
2.59356
2.59435
2.59545
2.59659
2.59725
2.59702
2.59603
2.59421
2.59183
2.58888
2.58548
2.58139
2.57649
2.57044
2.56313
2.55447
2.54456
2.53331
2.52041
2.50542
2.48783
2.46772
2.44346
2.41632
2.38396
2.34764
2.3077
2.26152
2.21225
1
1
1
1
1
1
1
1
1
1
1
1
1
1
1
1
1
1
1
1
1
1
1
1
1
1
1
1
1
1
1
1
1
1
1
1
1
1
1
1
1
1
1
1
1
1
1
1
1
1
1
1
1
1
1.0117
2.01443
2.55744
2.56565
2.56734
2.5688
2.5703
2.57224
2.57463
2.57639
2.57792
2.57896
2.57917
2.57922
2.57935
2.57985
2.58051
2.58097
2.58076
2.57992
2.57822
2.57579
2.57258
2.56875
2.56432
2.5592
2.55306
2.54561
2.53667
2.52644
2.5149
2.50182
2.48692
2.46957
2.45044
2.42708
2.40215
2.37303
2.34099
2.30663
2.26667
2.22596
1
1
1
1
1
1
1
1
1
1
1
1
1
1
1
1
1
1
1
1
1
1
1
1
1
1
1
1
1
1
1
1
1
1
1
1
1
1
1
1
1
1
1
1
1
1
1
1
1
1
1
1
1
1
1.00001
1.1944
2.33979
2.56618
2.56063
2.56105
2.56155
2.56283
2.56442
2.56572
2.56666
2.56686
2.56658
2.56596
2.56512
2.56472
2.56464
2.56459
2.56432
2.56355
2.5619
2.55947
2.5561
2.55201
2.54733
2.54207
2.53596
2.5286
2.51978
2.50967
2.49823
2.48527
2.47081
2.45382
2.43563
2.41359
2.3909
2.36463
2.3364
2.306
2.27166
2.2368
1
1
1
1
1
1
1
1
1
1
1
1
1
1
1
1
1
1
1
1
1
1
1
1
1
1
1
1
1
1
1
1
1
1
1
1
1
1
1
1
1
1
1
1
1
1
1
1
1
1
1
1
1
1
1
1.00259
1.82494
2.49411
2.53852
2.54459
2.54881
2.55114
2.55254
2.55391
2.55476
2.55468
2.55419
2.55316
2.55155
2.55022
2.54919
2.54829
2.54757
2.54668
2.54505
2.54267
2.53923
2.53497
2.53007
2.52469
2.51862
2.51146
2.50306
2.49343
2.4826
2.47001
2.45616
2.43967
2.42235
2.40197
2.38134
2.35747
2.33263
2.30548
2.27584
2.24508
1
1
1
1
1
1
1
1
1
1
1
1
1
1
1
1
1
1
1
1
1
1
1
1
1
1
1
1
1
1
1
1
1
1
1
1
1
1
1
1
1
1
1
1
1
1
1
1
1
1
1
1
1
1
1
1
1.09098
2.17425
2.52522
2.5373
2.53815
2.53909
2.54054
2.54212
2.54342
2.54366
2.54329
2.54227
2.54042
2.53836
2.53647
2.5347
2.53318
2.53168
2.52965
2.52701
2.52331
2.51876
2.51358
2.50794
2.50176
2.49468
2.48673
2.4777
2.46772
2.45564
2.4424
2.42689
2.41045
2.39173
2.37281
2.35107
2.32912
2.30462
2.27879
2.25119
1
1
1
1
1
1
1
1
1
1
1
1
1
1
1
1
1
1
1
1
1
1
1
1
1
1
1
1
1
1
1
1
1
1
1
1
1
1
1
1
1
1
1
1
1
1
1
1
1
1
1
1
1
1
1
1
1.00056
1.38898
2.33892
2.51543
2.51522
2.51968
2.52337
2.5267
2.52928
2.53067
2.53071
2.53013
2.52864
2.52648
2.52416
2.52191
2.51962
2.51735
2.51485
2.51194
2.50798
2.50322
2.49774
2.49168
2.48525
2.47805
2.47069
2.46203
2.45261
2.44135
2.42887
2.41475
2.39927
2.38222
2.36481
2.34511
2.32554
2.30339
2.28075
2.25582
1
1
1
1
1
1
1
1
1
1
1
1
1
1
1
1
1
1
1
1
1
1
1
1
1
1
1
1
1
1
1
1
1
1
1
1
1
1
1
1
1
1
1
1
1
1
1
1
1
1
1
1
1
1
1
1
1
1.01264
1.85153
2.45719
2.49606
2.50287
2.50752
2.51091
2.51378
2.51574
2.51636
2.51615
2.51531
2.51374
2.51164
2.50945
2.50704
2.50432
2.50145
2.49825
2.4941
2.48922
2.48345
2.47718
2.47037
2.463
2.45542
2.44697
2.43779
2.42737
2.41566
2.40285
2.38851
2.37308
2.35705
2.33931
2.32148
2.30152
2.28132
2.25881
1
1
1
1
1
1
1
1
1
1
1
1
1
1
1
1
1
1
1
1
1
1
1
1
1
1
1
1
1
1
1
1
1
1
1
1
1
1
1
1
1
1
1
1
1
1
1
1
1
1
1
1
1
1
1
1
1
1.00002
1.10208
2.09465
2.47303
2.49722
2.49728
2.49897
2.50036
2.5012
2.50144
2.50126
2.50072
2.4997
2.49811
2.49622
2.49421
2.49167
2.48876
2.48543
2.48131
2.47634
2.47041
2.46413
2.45689
2.44941
2.44143
2.43289
2.42375
2.41382
2.40275
2.39104
2.37782
2.3639
2.34914
2.33329
2.31671
2.29889
2.2806
2.26031
1
1
1
1
1
1
1
1
1
1
1
1
1
1
1
1
1
1
1
1
1
1
1
1
1
1
1
1
1
1
1
1
1
1
1
1
1
1
1
1
1
1
1
1
1
1
1
1
1
1
1
1
1
1
1
1
1
1
1.00071
1.24404
2.24574
2.47834
2.48005
2.48311
2.48268
2.48293
2.48324
2.48348
2.48347
2.48328
2.4826
2.48144
2.48007
2.47821
2.47574
2.47264
2.46883
2.464
2.45824
2.45178
2.44481
2.43711
2.42899
2.42044
2.41131
2.40162
2.39094
2.37997
2.36773
2.35495
2.34116
2.32666
2.31114
2.29519
2.27838
2.26003
1
1
1
1
1
1
1
1
1
1
1
1
1
1
1
1
1
1
1
1
1
1
1
1
1
1
1
1
1
1
1
1
1
1
1
1
1
1
1
1
1
1
1
1
1
1
1
1
1
1
1
1
1
1
1
1
1
1
1
1.00419
1.58776
2.35401
2.45801
2.45591
2.45779
2.45971
2.46159
2.46311
2.46421
2.46493
2.46525
2.46501
2.46447
2.46343
2.46176
2.45922
2.45589
2.45156
2.44619
2.44009
2.43313
2.42566
2.41769
2.40924
2.40028
2.39087
2.38067
2.37009
2.35866
2.3466
2.33359
2.31996
2.30533
2.29064
2.27492
2.25853
1
1
1
1
1
1
1
1
1
1
1
1
1
1
1
1
1
1
1
1
1
1
1
1
1
1
1
1
1
1
1
1
1
1
1
1
1
1
1
1
1
1
1
1
1
1
1
1
1
1
1
1
1
1
1
1
1
1
1
1
1.03632
1.86854
2.41111
2.44312
2.44122
2.44308
2.44472
2.44604
2.44699
2.44764
2.44812
2.44825
2.44805
2.44744
2.44629
2.44444
2.44168
2.43798
2.43339
2.42776
2.42143
2.41445
2.4069
2.39882
2.39031
2.38135
2.37175
2.36157
2.35079
2.33918
2.32679
2.31372
2.29983
2.28582
2.27094
2.25594
1
1
1
1
1
1
1
1
1
1
1
1
1
1
1
1
1
1
1
1
1
1
1
1
1
1
1
1
1
1
1
1
1
1
1
1
1
1
1
1
1
1
1
1
1
1
1
1
1
1
1
1
1
1
1
1
1
1
1
1
1.00013
1.11449
2.00027
2.41087
2.43206
2.43348
2.43486
2.43459
2.43423
2.43378
2.43325
2.43266
2.43193
2.43104
2.42985
2.42822
2.42594
2.42287
2.41894
2.41412
2.40859
2.40244
2.39569
2.38836
2.38056
2.3722
2.36325
2.35364
2.34347
2.33237
2.32055
2.30799
2.29481
2.28128
2.26717
2.25307
1
1
1
1
1
1
1
1
1
1
1
1
1
1
1
1
1
1
1
1
1
1
1
1
1
1
1
1
1
1
1
1
1
1
1
1
1
1
1
1
1
1
1
1
1
1
1
1
1
1
1
1
1
1
1
1
1
1
1
1
1
1.00094
1.19261
2.07754
2.39737
2.42595
2.42553
2.42501
2.42404
2.42283
2.42159
2.42016
2.41845
2.4166
2.41464
2.4125
2.40999
2.40703
2.4035
2.39933
2.3946
2.38932
2.38348
2.37708
2.37016
2.36264
2.35444
2.34553
2.33594
2.32544
2.3142
2.3023
2.28992
2.27704
2.26386
2.25053
1
1
1
1
1
1
1
1
1
1
1
1
1
1
1
1
1
1
1
1
1
1
1
1
1
1
1
1
1
1
1
1
1
1
1
1
1
1
1
1
1
1
1
1
1
1
1
1
1
1
1
1
1
1
1
1
1
1
1
1
1
1
1.0026
1.26795
2.13245
2.38606
2.41062
2.41168
2.41162
2.41119
2.41023
2.40866
2.40655
2.40414
2.40149
2.39858
2.3954
2.392
2.38833
2.38434
2.38001
2.37531
2.37018
2.36455
2.35842
2.35173
2.34432
2.33617
2.32726
2.31748
2.30704
2.29613
2.2847
2.27276
2.26064
2.24819
1
1
1
1
1
1
1
1
1
1
1
1
1
1
1
1
1
1
1
1
1
1
1
1
1
1
1
1
1
1
1
1
1
1
1
1
1
1
1
1
1
1
1
1
1
1
1
1
1
1
1
1
1
1
1
1
1
1
1
1
1
1
1
1.00522
1.34531
2.17031
2.37309
2.39013
2.3941
2.39602
2.39591
2.39529
2.39402
2.3921
2.38952
2.38632
2.38272
2.37892
2.37493
2.37074
2.36633
2.36168
2.35673
2.35142
2.34572
2.33955
2.3328
2.32538
2.31726
2.30852
2.29922
2.28946
2.279
2.26812
2.25704
2.24552
1
1
1
1
1
1
1
1
1
1
1
1
1
1
1
1
1
1
1
1
1
1
1
1
1
1
1
1
1
1
1
1
1
1
1
1
1
1
1
1
1
1
1
1
1
1
1
1
1
1
1
1
1
1
1
1
1
1
1
1
1
1
1
1.00001
1.00935
1.41385
2.19713
2.35929
2.37039
2.37472
2.37696
2.37857
2.37866
2.37789
2.37603
2.37336
2.37018
2.36656
2.36259
2.35826
2.35368
2.34886
2.34381
2.33854
2.33299
2.32712
2.32082
2.31398
2.30661
2.2987
2.29034
2.28155
2.27206
2.26221
2.25215
2.24166
1
1
1
1
1
1
1
1
1
1
1
1
1
1
1
1
1
1
1
1
1
1
1
1
1
1
1
1
1
1
1
1
1
1
1
1
1
1
1
1
1
1
1
1
1
1
1
1
1
1
1
1
1
1
1
1
1
1
1
1
1
1
1
1
1.00002
1.01468
1.46995
2.21517
2.34808
2.35277
2.355
2.35737
2.35882
2.35944
2.35909
2.35798
2.35598
2.35317
2.34965
2.34564
2.3413
2.33664
2.33166
2.32642
2.32096
2.31521
2.3091
2.30257
2.29564
2.28826
2.28054
2.27245
2.26381
2.25485
2.24574
2.23623
1
1
1
1
1
1
1
1
1
1
1
1
1
1
1
1
1
1
1
1
1
1
1
1
1
1
1
1
1
1
1
1
1
1
1
1
1
1
1
1
1
1
1
1
1
1
1
1
1
1
1
1
1
1
1
1
1
1
1
1
1
1
1
1
1
1.00004
1.02053
1.51418
2.22574
2.3376
2.33839
2.33822
2.33866
2.33921
2.33932
2.33909
2.33833
2.3368
2.33452
2.3316
2.3281
2.32405
2.31959
2.31477
2.30958
2.30401
2.29805
2.29172
2.28503
2.27796
2.2706
2.26292
2.25484
2.24649
2.23804
2.22932
1
1
1
1
1
1
1
1
1
1
1
1
1
1
1
1
1
1
1
1
1
1
1
1
1
1
1
1
1
1
1
1
1
1
1
1
1
1
1
1
1
1
1
1
1
1
1
1
1
1
1
1
1
1
1
1
1
1
1
1
1
1
1
1
1
1
1.00007
1.02634
1.54422
2.22895
2.3269
2.3255
2.32381
2.32259
2.32137
2.32043
2.31943
2.31814
2.31663
2.31476
2.31234
2.30936
2.30588
2.3019
2.29741
2.2924
2.28692
2.28103
2.27471
2.26801
2.26094
2.25353
2.2458
2.23778
2.22978
2.22154
1
1
1
1
1
1
1
1
1
1
1
1
1
1
1
1
1
1
1
1
1
1
1
1
1
1
1
1
1
1
1
1
1
1
1
1
1
1
1
1
1
1
1
1
1
1
1
1
1
1
1
1
1
1
1
1
1
1
1
1
1
1
1
1
1
1
1
1.0001
1.03103
1.55794
2.22272
2.31581
2.31395
2.31054
2.30815
2.3058
2.30343
2.30113
2.29899
2.29693
2.29483
2.29251
2.28989
2.28688
2.28335
2.27927
2.27464
2.26949
2.26388
2.25779
2.25119
2.24426
2.2369
2.22929
2.22157
2.21363
1
1
1
1
1
1
1
1
1
1
1
1
1
1
1
1
1
1
1
1
1
1
1
1
1
1
1
1
1
1
1
1
1
1
1
1
1
1
1
1
1
1
1
1
1
1
1
1
1
1
1
1
1
1
1
1
1
1
1
1
1
1
1
1
1
1
1
1
1.00012
1.03343
1.55394
2.20568
2.30429
2.30258
2.2987
2.29511
2.2915
2.28821
2.28499
2.2818
2.27881
2.27598
2.27332
2.27059
2.26759
2.26422
2.26042
2.2562
2.25155
2.24633
2.24058
2.2343
2.2276
2.22064
2.21331
2.20598
1
1
1
1
1
1
1
1
1
1
1
1
1
1
1
1
1
1
1
1
1
1
1
1
1
1
1
1
1
1
1
1
1
1
1
1
1
1
1
1
1
1
1
1
1
1
1
1
1
1
1
1
1
1
1
1
1
1
1
1
1
1
1
1
1
1
1
1
1
1.00014
1.03289
1.53149
2.1772
2.29149
2.29079
2.28669
2.28293
2.27892
2.27499
2.271
2.26692
2.26295
2.2592
2.25551
2.25186
2.24833
2.2448
2.24113
2.2372
2.23291
2.22816
2.22289
2.21723
2.21113
2.20472
2.19799
1
1
1
1
1
1
1
1
1
1
1
1
1
1
1
1
1
1
1
1
1
1
1
1
1
1
1
1
1
1
1
1
1
1
1
1
1
1
1
1
1
1
1
1
1
1
1
1
1
1
1
1
1
1
1
1
1
1
1
1
1
1
1
1
1
1
1
1
1
1
1.00014
1.02944
1.49192
2.13439
2.27526
2.27946
2.27527
2.27176
2.26763
2.26323
2.25865
2.25397
2.24917
2.24427
2.23941
2.2349
2.23071
2.22676
2.22295
2.21911
2.21505
2.21068
2.20588
2.20065
2.1951
2.18913
1
1
1
1
1
1
1
1
1
1
1
1
1
1
1
1
1
1
1
1
1
1
1
1
1
1
1
1
1
1
1
1
1
1
1
1
1
1
1
1
1
1
1
1
1
1
1
1
1
1
1
1
1
1
1
1
1
1
1
1
1
1
1
1
1
1
1
1
1
1
1
1.00012
1.02408
1.43362
2.07821
2.25146
2.26816
2.26405
2.2603
2.25599
2.2514
2.24646
2.24123
2.23582
2.23039
2.22511
2.22013
2.21549
2.21112
2.20694
2.2028
2.19861
2.19425
2.18959
2.18469
2.1794
1
1
1
1
1
1
1
1
1
1
1
1
1
1
1
1
1
1
1
1
1
1
1
1
1
1
1
1
1
1
1
1
1
1
1
1
1
1
1
1
1
1
1
1
1
1
1
1
1
1
1
1
1
1
1
1
1
1
1
1
1
1
1
1
1
1
1
1
1
1
1
1
1.00009
1.01741
1.36325
1.99303
2.22328
2.25635
2.25023
2.24674
2.24288
2.23861
2.23387
2.22886
2.22375
2.21853
2.21328
2.20812
2.20309
2.19826
2.19353
2.18885
2.18418
2.17932
2.17431
2.16913
1
1
1
1
1
1
1
1
1
1
1
1
1
1
1
1
1
1
1
1
1
1
1
1
1
1
1
1
1
1
1
1
1
1
1
1
1
1
1
1
1
1
1
1
1
1
1
1
1
1
1
1
1
1
1
1
1
1
1
1
1
1
1
1
1
1
1
1
1
1
1
1
1
1.00006
1.01134
1.27873
1.87804
2.18894
2.2382
2.2342
2.2324
2.22986
2.22661
2.22268
2.2184
2.21376
2.20881
2.20365
2.19833
2.19294
2.1875
2.18206
2.17669
2.17118
2.16571
2.16019
1
1
1
1
1
1
1
1
1
1
1
1
1
1
1
1
1
1
1
1
1
1
1
1
1
1
1
1
1
1
1
1
1
1
1
1
1
1
1
1
1
1
1
1
1
1
1
1
1
1
1
1
1
1
1
1
1
1
1
1
1
1
1
1
1
1
1
1
1
1
1
1
1
1
1.00003
1.00641
1.1879
1.75309
2.14198
2.21684
2.21662
2.21629
2.21472
2.21268
2.20993
2.20645
2.20241
2.19785
2.1929
2.18766
2.18228
2.17672
2.171
2.16528
2.15934
2.15331
1
1
1
1
1
1
1
1
1
1
1
1
1
1
1
1
1
1
1
1
1
1
1
1
1
1
1
1
1
1
1
1
1
1
1
1
1
1
1
1
1
1
1
1
1
1
1
1
1
1
1
1
1
1
1
1
1
1
1
1
1
1
1
1
1
1
1
1
1
1
1
1
1
1
1
1.00001
1.003
1.11354
1.61935
2.08959
2.18474
2.20166
2.19702
2.19704
2.19629
2.19468
2.19227
2.18909
2.18533
2.18105
2.17638
2.17125
2.16597
2.16047
2.15459
2.14869
1
1
1
1
1
1
1
1
1
1
1
1
1
1
1
1
1
1
1
1
1
1
1
1
1
1
1
1
1
1
1
1
1
1
1
1
1
1
1
1
1
1
1
1
1
1
1
1
1
1
1
1
1
1
1
1
1
1
1
1
1
1
1
1
1
1
1
1
1
1
1
1
1
1
1
1
1
1.00123
1.06031
1.49111
2.00354
2.15578
2.18762
2.1806
2.18035
2.17973
2.1785
2.17667
2.17429
2.17129
2.16782
2.16387
2.15949
2.15465
2.14957
2.14412
1
1
1
1
1
1
1
1
1
1
1
1
1
1
1
1
1
1
1
1
1
1
1
1
1
1
1
1
1
1
1
1
1
1
1
1
1
1
1
1
1
1
1
1
1
1
1
1
1
1
1
1
1
1
1
1
1
1
1
1
1
1
1
1
1
1
1
1
1
1
1
1
1
1
1
1
1
1
1.00043
1.02891
1.35671
1.88139
2.12587
2.16843
2.16601
2.1638
2.1625
2.16134
2.15959
2.15777
2.15559
2.15297
2.14991
2.14627
2.14219
2.13779
1
1
1
1
1
1
1
1
1
1
1
1
1
1
1
1
1
1
1
1
1
1
1
1
1
1
1
1
1
1
1
1
1
1
1
1
1
1
1
1
1
1
1
1
1
1
1
1
1
1
1
1
1
1
1
1
1
1
1
1
1
1
1
1
1
1
1
1
1
1
1
1
1
1
1
1
1
1
1
1.00013
1.0123
1.22347
1.72644
2.08181
2.14245
2.1529
2.14793
2.14581
2.14482
2.14348
2.14164
2.13984
2.13749
2.13496
2.13225
2.12887
1
1
1
1
1
1
1
1
1
1
1
1
1
1
1
1
1
1
1
1
1
1
1
1
1
1
1
1
1
1
1
1
1
1
1
1
1
1
1
1
1
1
1
1
1
1
1
1
1
1
1
1
1
1
1
1
1
1
1
1
1
1
1
1
1
1
1
1
1
1
1
1
1
1
1
1
1
1
1
1
1.00004
1.00447
1.11434
1.56416
2.00268
2.11431
2.13894
2.13514
2.13194
2.12962
2.12804
2.12598
2.12399
2.12208
2.11956
2.11685
1
1
1
1
1
1
1
1
1
1
1
1
1
1
1
1
1
1
1
1
1
1
1
1
1
1
1
1
1
1
1
1
1
1
1
1
1
1
1
1
1
1
1
1
1
1
1
1
1
1
1
1
1
1
1
1
1
1
1
1
1
1
1
1
1
1
1
1
1
1
1
1
1
1
1
1
1
1
1
1
1
1.00001
1.00132
1.04854
1.40273
1.88056
2.08102
2.12363
2.12193
2.11815
2.11601
2.11379
2.11139
2.10858
2.10598
2.10434
1
1
1
1
1
1
1
1
1
1
1
1
1
1
1
1
1
1
1
1
1
1
1
1
1
1
1
1
1
1
1
1
1
1
1
1
1
1
1
1
1
1
1
1
1
1
1
1
1
1
1
1
1
1
1
1
1
1
1
1
1
1
1
1
1
1
1
1
1
1
1
1
1
1
1
1
1
1
1
1
1
1
1
1.00032
1.01784
1.24729
1.702
2.03744
2.10226
2.10977
2.10672
2.10278
2.09835
2.09617
2.09405
2.09175
1
1
1
1
1
1
1
1
1
1
1
1
1
1
1
1
1
1
1
1
1
1
1
1
1
1
1
1
1
1
1
1
1
1
1
1
1
1
1
1
1
1
1
1
1
1
1
1
1
1
1
1
1
1
1
1
1
1
1
1
1
1
1
1
1
1
1
1
1
1
1
1
1
1
1
1
1
1
1
1
1
1
1
1
1.00007
1.00574
1.11194
1.53168
1.93612
2.06983
2.09896
2.09671
2.09175
2.08817
2.08444
2.07922
1
1
1
1
1
1
1
1
1
1
1
1
1
1
1
1
1
1
1
1
1
1
1
1
1
1
1
1
1
1
1
1
1
1
1
1
1
1
1
1
1
1
1
1
1
1
1
1
1
1
1
1
1
1
1
1
1
1
1
1
1
1
1
1
1
1
1
1
1
1
1
1
1
1
1
1
1
1
1
1
1
1
1
1
1
1.00001
1.00133
1.04315
1.34576
1.79166
2.03839
2.07592
2.08298
2.07813
2.07186
2.07313
1
1
1
1
1
1
1
1
1
1
1
1
1
1
1
1
1
1
1
1
1
1
1
1
1
1
1
1
1
1
1
1
1
1
1
1
1
1
1
1
1
1
1
1
1
1
1
1
1
1
1
1
1
1
1
1
1
1
1
1
1
1
1
1
1
1
1
1
1
1
1
1
1
1
1
1
1
1
1
1
1
1
1
1
1
1
1
1.00027
1.01296
1.18334
1.60017
1.95688
2.06745
2.06071
2.07784
2.11752
1
1
1
1
1
1
1
1
1
1
1
1
1
1
1
1
1
1
1
1
1
1
1
1
1
1
1
1
1
1
1
1
1
1
1
1
1
1
1
1
1
1
1
1
1
1
1
1
1
1
1
1
1
1
1
1
1
1
1
1
1
1
1
1
1
1
1
1
1
1
1
1
1
1
1
1
1
1
1
1
1
1
1
1
1
1
1
1
1.00004
1.00347
1.06859
1.41713
1.81832
2.02803
2.24555
2.31174
1
1
1
1
1
1
1
1
1
1
1
1
1
1
1
1
1
1
1
1
1
1
1
1
1
1
1
1
1
1
1
1
1
1
1
1
1
1
1
1
1
1
1
1
1
1
1
1
1
1
1
1
1
1
1
1
1
1
1
1
1
1
1
1
1
1
1
1
1
1
1
1
1
1
1
1
1
1
1
1
1
1
1
1
1
1
1
1
1
1.00001
1.0006
1.02258
1.21478
2.22343
2.5609
2.52264
1
1
1
1
1
1
1
1
1
1
1
1
1
1
1
1
1
1
1
1
1
1
1
1
1
1
1
1
1
1
1
1
1
1
1
1
1
1
1
1
1
1
1
1
1
1
1
1
1
1
1
1
1
1
1
1
1
1
1
1
1
1
1
1
1
1
1
1
1
1
1
1
1
1
1
1
1
1
1
1
1
1
1
1
1
1
1
1
1
1
1
1.00012
1.25516
2.47702
2.69063
2.64661
1
1
1
1
1
1
1
1
1
1
1
1
1
1
1
1
1
1
1
1
1
1
1
1
1
1
1
1
1
1
1
1
1
1
1
1
1
1
1
1
1
1
1
1
1
1
1
1
1
1
1
1
1
1
1
1
1
1
1
1
1
1
1
1
1
1
1
1
1
1
1
1
1
1
1
1
1
1
1
1
1
1
1
1
1
1
1
1
1
1
1
1
1.32263
2.51975
2.71266
2.70407
1
1
1
1
1
1
1
1
1
1
1
1
1
1
1
1
1
1
1
1
1
1
1
1
1
1
1
1
1
1
1
1
1
1
1
1
1
1
1
1
1
1
1
1
1
1
1
1
1
1
1
1
1
1
1
1
1
1
1
1
1
1
1
1
1
1
1
1
1
1
1
1
1
1
1
1
1
1
1
1
1
1
1
1
1
1
1
1
1
1
1
1
1.16963
2.41231
2.70325
2.71639
1
1
1
1
1
1
1
1
1
1
1
1
1
1
1
1
1
1
1
1
1
1
1
1
1
1
1
1
1
1
1
1
1
1
1
1
1
1
1
1
1
1
1
1
1
1
1
1
1
1
1
1
1
1
1
1
1
1
1
1
1
1
1
1
1
1
1
1
1
1
1
1
1
1
1
1
1
1
1
1
1
1
1
1
1
1
1
1
1
1
1
1
1.00485
2.24441
2.69473
2.71671
1
1
1
1
1
1
1
1
1
1
1
1
1
1
1
1
1
1
1
1
1
1
1
1
1
1
1
1
1
1
1
1
1
1
1
1
1
1
1
1
1
1
1
1
1
1
1
1
1
1
1
1
1
1
1
1
1
1
1
1
1
1
1
1
1
1
1
1
1
1
1
1
1
1
1
1
1
1
1
1
1
1
1
1
1
1
1
1
1
1
1
1
1.00001
2.08215
2.67837
2.71921
1
1
1
1
1
1
1
1
1
1
1
1
1
1
1
1
1
1
1
1
1
1
1
1
1
1
1
1
1
1
1
1
1
1
1
1
1
1
1
1
1
1
1
1
1
1
1
1
1
1
1
1
1
1
1
1
1
1
1
1
1
1
1
1
1
1
1
1
1
1
1
1
1
1
1
1
1
1
1
1
1
1
1
1
1
1
1
1
1
1
1
1
1
1.9161
2.66643
2.71792
1
1
1
1
1
1
1
1
1
1
1
1
1
1
1
1
1
1
1
1
1
1
1
1
1
1
1
1
1
1
1
1
1
1
1
1
1
1
1
1
1
1
1
1
1
1
1
1
1
1
1
1
1
1
1
1
1
1
1
1
1
1
1
1
1
1
1
1
1
1
1
1
1
1
1
1
1
1
1
1
1
1
1
1
1
1
1
1
1
1
1
1
1
1.74293
2.6433
2.71645
1
1
1
1
1
1
1
1
1
1
1
1
1
1
1
1
1
1
1
1
1
1
1
1
1
1
1
1
1
1
1
1
1
1
1
1
1
1
1
1
1
1
1
1
1
1
1
1
1
1
1
1
1
1
1
1
1
1
1
1
1
1
1
1
1
1
1
1
1
1
1
1
1
1
1
1
1
1
1
1
1
1
1
1
1
1
1
1
1
1
1
1
1
1.56485
2.59717
2.71561
1
1
1
1
1
1
1
1
1
1
1
1
1
1
1
1
1
1
1
1
1
1
1
1
1
1
1
1
1
1
1
1
1
1
1
1
1
1
1
1
1
1
1
1
1
1
1
1
1
1
1
1
1
1
1
1
1
1
1
1
1
1
1
1
1
1
1
1
1
1
1
1
1
1
1
1
1
1
1
1
1
1
1
1
1
1
1
1
1
1
1
1
1
1.40502
2.53716
2.71368
1
1
1
1
1
1
1
1
1
1
1
1
1
1
1
1
1
1
1
1
1
1
1
1
1
1
1
1
1
1
1
1
1
1
1
1
1
1
1
1
1
1
1
1
1
1
1
1
1
1
1
1
1
1
1
1
1
1
1
1
1
1
1
1
1
1
1
1
1
1
1
1
1
1
1
1
1
1
1
1
1
1
1
1
1
1
1
1
1
1
1
1
1
1.25968
2.46163
2.71062
1
1
1
1
1
1
1
1
1
1
1
1
1
1
1
1
1
1
1
1
1
1
1
1
1
1
1
1
1
1
1
1
1
1
1
1
1
1
1
1
1
1
1
1
1
1
1
1
1
1
1
1
1
1
1
1
1
1
1
1
1
1
1
1
1
1
1
1
1
1
1
1
1
1
1
1
1
1
1
1
1
1
1
1
1
1
1
1
1
1
1
1
1
1.10236
2.36508
2.70857
1
1
1
1
1
1
1
1
1
1
1
1
1
1
1
1
1
1
1
1
1
1
1
1
1
1
1
1
1
1
1
1
1
1
1
1
1
1
1
1
1
1
1
1
1
1
1
1
1
1
1
1
1
1
1
1
1
1
1
1
1
1
1
1
1
1
1
1
1
1
1
1
1
1
1
1
1
1
1
1
1
1
1
1
1
1
1
1
1
1
1
1
1
1.00157
2.27447
2.71171
1
1
1
1
1
1
1
1
1
1
1
1
1
1
1
1
1
1
1
1
1
1
1
1
1
1
1
1
1
1
1
1
1
1
1
1
1
1
1
1
1
1
1
1
1
1
1
1
1
1
1
1
1
1
1
1
1
1
1
1
1
1
1
1
1
1
1
1
1
1
1
1
1
1
1
1
1
1
1
1
1
1
1
1
1
1
1
1
1
1
1
1
1
1
2.19082
2.71254
1
1
1
1
1
1
1
1
1
1
1
1
1
1
1
1
1
1
1
1
1
1
1
1
1
1
1
1
1
1
1
1
1
1
1
1
1
1
1
1
1
1
1
1
1
1
1
1
1
1
1
1
1
1
1
1
1
1
1
1
1
1
1
1
1
1
1
1
1
1
1
1
1
1
1
1
1
1
1
1
1
1
1
1
1
1
1
1
1
1
1
1
1
1
2.11974
2.70957
1
1
1
1
1
1
1
1
1
1
1
1
1
1
1
1
1
1
1
1
1
1
1
1
1
1
1
1
1
1
1
1
1
1
1
1
1
1
1
1
1
1
1
1
1
1
1
1
1
1
1
1
1
1
1
1
1
1
1
1
1
1
1
1
1
1
1
1
1
1
1
1
1
1
1
1
1
1
1
1
1
1
1
1
1
1
1
1
1
1
1
1
1
1
2.05897
2.70108
1
1
1
1
1
1
1
1
1
1
1
1
1
1
1
1
1
1
1
1
1
1
1
1
1
1
1
1
1
1
1
1
1
1
1
1
1
1
1
1
1
1
1
1
1
1
1
1
1
1
1
1
1
1
1
1
1
1
1
1
1
1
1
1
1
1
1
1
1
1
1
1
1
1
1
1
1
1
1
1
1
1
1
1
1
1
1
1
1
1
1
1
1
1
2.00846
2.69108
1
1
1
1
1
1
1
1
1
1
1
1
1
1
1
1
1
1
1
1
1
1
1
1
1
1
1
1
1
1
1
1
1
1
1
1
1
1
1
1
1
1
1
1
1
1
1
1
1
1
1
1
1
1
1
1
1
1
1
1
1
1
1
1
1
1
1
1
1
1
1
1
1
1
1
1
1
1
1
1
1
1
1
1
1
1
1
1
1
1
1
1
1
1
1.97033
2.68164
1
1
1
1
1
1
1
1
1
1
1
1
1
1
1
1
1
1
1
1
1
1
1
1
1
1
1
1
1
1
1
1
1
1
1
1
1
1
1
1
1
1
1
1
1
1
1
1
1
1
1
1
1
1
1
1
1
1
1
1
1
1
1
1
1
1
1
1
1
1
1
1
1
1
1
1
1
1
1
1
1
1
1
1
1
1
1
1
1
1
1
1
1
1
1.94502
2.67478
1
1
1
1
1
1
1
1
1
1
1
1
1
1
1
1
1
1
1
1
1
1
1
1
1
1
1
1
1
1
1
1
1
1
1
1
1
1
1
1
1
1
1
1
1
1
1
1
1
1
1
1
1
1
1
1
1
1
1
1
1
1
1
1
1
1
1
1
1
1
1
1
1
1
1
1
1
1
1
1
1
1
1
1
1
1
1
1
1
1
1
1
1
1
1.93385
2.67109
1.4818
0.895299
0.84339
0.754649
0.70435
0.794498
0.962027
1.05074
1.08502
1.13515
1.23225
1.3367
1.41291
1.46195
1.48604
1.49073
1.49737
1.52795
1.56673
1.59188
1.60914
1.60785
1.59557
1.59316
1.59231
1.59714
1.61518
1.62361
1.62135
1.61569
1.61388
1.61516
1.62226
1.63465
1.64301
1.64529
1.64543
1.64361
1.64338
1.64409
1.64605
1.64776
1.64927
1.65305
1.65783
1.6599
1.66038
1.66007
1.65822
1.65455
1.65085
1.64892
1.64587
1.64745
2.25809
2.76798
2.7708
2.76623
2.76112
2.75138
2.74088
2.73273
2.72756
2.723
2.71883
2.71417
2.70858
2.70207
2.69458
2.68585
2.67586
2.6649
2.65384
2.64331
2.63367
2.62502
2.61747
2.61109
2.60565
2.6005
2.59498
2.58888
2.5824
2.5758
2.56914
2.56246
2.55592
2.54955
2.54306
2.53603
2.52853
2.52086
2.51319
2.50569
2.49846
2.4917
2.48546
2.47967
2.47406
2.46776
2.46016
2.45182
2.4432
2.4348
2.42712
2.42054
2.41503
2.40964
2.40328
2.3967
2.39022
2.38406
2.37867
2.37411
2.37081
2.36836
2.36547
2.36166
2.35727
2.35199
2.34562
2.33871
2.33195
2.32539
2.31916
2.31345
2.30849
2.30368
2.29742
2.29023
2.28281
2.27485
2.26669
2.25919
2.25285
2.24752
2.24283
2.23855
2.23442
2.23026
2.22574
2.22065
2.21508
2.20913
2.20288
2.19672
2.19104
2.18586
2.18103
2.17648
2.17221
2.16823
2.16413
2.16001
2.15564
2.15065
2.14509
2.1396
2.13495
2.13129
2.12821
2.12524
2.12188
2.11768