-4.995 	348.432 	2.72053e-12 	100000
-4.994 	348.432 	2.79301e-12 	100000
-4.993 	348.432 	2.79439e-12 	100000
-4.992 	348.432 	2.61073e-12 	100000
-4.991 	348.432 	2.63337e-12 	100000
-4.99 	348.432 	2.59641e-12 	100000
-4.98901 	348.432 	2.69049e-12 	100000
-4.98801 	348.432 	2.77159e-12 	100000
-4.98701 	348.432 	2.7644e-12 	100000
-4.98601 	348.432 	2.83593e-12 	100000
-4.98501 	348.432 	2.88165e-12 	100000
-4.98401 	348.432 	2.94461e-12 	100000
-4.98301 	348.432 	2.99879e-12 	100000
-4.98201 	348.432 	3.2173e-12 	100000
-4.98101 	348.432 	3.19523e-12 	100000
-4.98001 	348.432 	3.0866e-12 	100000
-4.97901 	348.432 	3.07048e-12 	100000
-4.97802 	348.432 	2.95676e-12 	100000
-4.97702 	348.432 	2.96595e-12 	100000
-4.97602 	348.432 	2.82944e-12 	100000
-4.97502 	348.432 	2.71093e-12 	100000
-4.97402 	348.432 	2.5814e-12 	100000
-4.97302 	348.432 	2.47045e-12 	100000
-4.97202 	348.432 	2.41787e-12 	100000
-4.97102 	348.432 	2.55787e-12 	100000
-4.97002 	348.432 	2.47879e-12 	100000
-4.96902 	348.432 	2.38264e-12 	100000
-4.96802 	348.432 	2.4569e-12 	100000
-4.96703 	348.432 	2.45214e-12 	100000
-4.96603 	348.432 	2.45606e-12 	100000
-4.96503 	348.432 	2.52203e-12 	100000
-4.96403 	348.432 	2.44948e-12 	100000
-4.96303 	348.432 	2.54018e-12 	100000
-4.96203 	348.432 	2.73729e-12 	100000
-4.96103 	348.432 	2.66441e-12 	100000
-4.96003 	348.432 	2.73506e-12 	100000
-4.95903 	348.432 	2.72951e-12 	100000
-4.95803 	348.432 	2.60237e-12 	100000
-4.95703 	348.432 	2.61212e-12 	100000
-4.95604 	348.432 	2.45413e-12 	100000
-4.95504 	348.432 	2.32405e-12 	100000
-4.95404 	348.432 	2.33612e-12 	100000
-4.95304 	348.432 	2.27108e-12 	100000
-4.95204 	348.432 	2.29915e-12 	100000
-4.95104 	348.432 	2.40459e-12 	100000
-4.95004 	348.432 	2.42938e-12 	100000
-4.94904 	348.432 	2.31446e-12 	100000
-4.94804 	348.432 	2.12133e-12 	100000
-4.94704 	348.432 	1.99558e-12 	100000
-4.94604 	348.432 	1.97336e-12 	100000
-4.94505 	348.432 	1.92676e-12 	100000
-4.94405 	348.432 	1.81679e-12 	100000
-4.94305 	348.432 	1.82866e-12 	100000
-4.94205 	348.432 	1.91857e-12 	100000
-4.94105 	348.432 	1.84701e-12 	100000
-4.94005 	348.432 	1.84695e-12 	100000
-4.93905 	348.432 	1.87465e-12 	100000
-4.93805 	348.432 	1.89559e-12 	100000
-4.93705 	348.432 	2.00171e-12 	100000
-4.93605 	348.432 	2.09443e-12 	100000
-4.93505 	348.432 	2.3235e-12 	100000
-4.93405 	348.432 	2.21913e-12 	100000
-4.93306 	348.432 	2.19471e-12 	100000
-4.93206 	348.432 	1.98853e-12 	100000
-4.93106 	348.432 	2.05372e-12 	100000
-4.93006 	348.432 	2.2449e-12 	100000
-4.92906 	348.432 	2.26825e-12 	100000
-4.92806 	348.432 	2.15643e-12 	100000
-4.92706 	348.432 	2.10502e-12 	100000
-4.92606 	348.432 	1.95679e-12 	100000
-4.92506 	348.432 	2.19373e-12 	100000
-4.92406 	348.432 	2.21661e-12 	100000
-4.92306 	348.432 	2.34653e-12 	100000
-4.92207 	348.432 	2.31288e-12 	100000
-4.92107 	348.432 	2.26684e-12 	100000
-4.92007 	348.432 	2.07654e-12 	100000
-4.91907 	348.432 	2.11024e-12 	100000
-4.91807 	348.432 	2.10751e-12 	100000
-4.91707 	348.432 	2.10212e-12 	100000
-4.91607 	348.432 	2.04654e-12 	100000
-4.91507 	348.432 	1.95517e-12 	100000
-4.91407 	348.432 	1.80564e-12 	100000
-4.91307 	348.432 	2.03291e-12 	100000
-4.91207 	348.432 	1.83951e-12 	100000
-4.91108 	348.432 	1.72962e-12 	100000
-4.91008 	348.432 	1.64183e-12 	100000
-4.90908 	348.432 	1.76299e-12 	100000
-4.90808 	348.432 	1.68387e-12 	100000
-4.90708 	348.432 	1.66844e-12 	100000
-4.90608 	348.432 	1.5681e-12 	100000
-4.90508 	348.432 	1.60852e-12 	100000
-4.90408 	348.432 	1.60906e-12 	100000
-4.90308 	348.432 	1.68451e-12 	100000
-4.90208 	348.432 	1.57642e-12 	100000
-4.90108 	348.432 	1.72556e-12 	100000
-4.90009 	348.432 	1.69809e-12 	100000
-4.89909 	348.432 	1.86375e-12 	100000
-4.89809 	348.432 	1.75256e-12 	100000
-4.89709 	348.432 	1.6595e-12 	100000
-4.89609 	348.432 	1.50784e-12 	100000
-4.89509 	348.432 	1.63174e-12 	100000
-4.89409 	348.432 	1.5131e-12 	100000
-4.89309 	348.432 	1.79274e-12 	100000
-4.89209 	348.432 	1.61591e-12 	100000
-4.89109 	348.432 	1.67521e-12 	100000
-4.89009 	348.432 	1.67759e-12 	100000
-4.8891 	348.432 	1.76239e-12 	100000
-4.8881 	348.432 	1.58574e-12 	100000
-4.8871 	348.432 	1.69111e-12 	100000
-4.8861 	348.432 	1.66092e-12 	100000
-4.8851 	348.432 	1.72368e-12 	100000
-4.8841 	348.432 	1.60465e-12 	100000
-4.8831 	348.432 	1.60231e-12 	100000
-4.8821 	348.432 	1.30049e-12 	100000
-4.8811 	348.432 	1.38394e-12 	100000
-4.8801 	348.432 	1.26505e-12 	100000
-4.8791 	348.432 	1.29138e-12 	100000
-4.87811 	348.432 	1.16812e-12 	100000
-4.87711 	348.432 	1.22186e-12 	100000
-4.87611 	348.432 	1.10083e-12 	100000
-4.87511 	348.432 	1.25766e-12 	100000
-4.87411 	348.432 	1.25133e-12 	100000
-4.87311 	348.432 	1.26341e-12 	100000
-4.87211 	348.432 	1.29426e-12 	100000
-4.87111 	348.432 	1.33962e-12 	100000
-4.87011 	348.432 	1.34112e-12 	100000
-4.86911 	348.432 	1.36887e-12 	100000
-4.86811 	348.432 	1.29702e-12 	100000
-4.86712 	348.432 	1.20288e-12 	100000
-4.86612 	348.432 	1.11658e-12 	100000
-4.86512 	348.432 	9.85419e-13 	100000
-4.86412 	348.432 	9.43427e-13 	100000
-4.86312 	348.432 	9.45356e-13 	100000
-4.86212 	348.432 	7.79495e-13 	100000
-4.86112 	348.432 	7.1529e-13 	100000
-4.86012 	348.432 	8.04277e-13 	100000
-4.85912 	348.432 	8.03936e-13 	100000
-4.85812 	348.432 	8.73931e-13 	100000
-4.85712 	348.432 	1.05939e-12 	100000
-4.85613 	348.432 	9.95603e-13 	100000
-4.85513 	348.432 	9.80788e-13 	100000
-4.85413 	348.432 	1.0923e-12 	100000
-4.85313 	348.432 	1.09202e-12 	100000
-4.85213 	348.432 	1.08906e-12 	100000
-4.85113 	348.432 	9.3088e-13 	100000
-4.85013 	348.432 	7.75353e-13 	100000
-4.84913 	348.432 	7.07858e-13 	100000
-4.84813 	348.432 	6.87107e-13 	100000
-4.84713 	348.432 	6.34521e-13 	100000
-4.84613 	348.432 	4.90631e-13 	100000
-4.84514 	348.432 	3.85546e-13 	100000
-4.84414 	348.432 	2.34743e-13 	100000
-4.84314 	348.432 	3.79125e-13 	100000
-4.84214 	348.432 	4.98935e-13 	100000
-4.84114 	348.432 	4.76614e-13 	100000
-4.84014 	348.432 	5.10884e-13 	100000
-4.83914 	348.432 	2.27502e-13 	100000
-4.83814 	348.432 	2.68598e-13 	100000
-4.83714 	348.432 	3.78594e-13 	100000
-4.83614 	348.432 	5.61742e-13 	100000
-4.83514 	348.432 	4.25533e-13 	100000
-4.83414 	348.432 	5.97016e-13 	100000
-4.83315 	348.432 	3.64991e-13 	100000
-4.83215 	348.432 	5.30296e-13 	100000
-4.83115 	348.432 	6.47677e-13 	100000
-4.83015 	348.432 	7.12756e-13 	100000
-4.82915 	348.432 	5.84418e-13 	100000
-4.82815 	348.432 	6.79879e-13 	100000
-4.82715 	348.432 	6.09929e-13 	100000
-4.82615 	348.432 	7.97844e-13 	100000
-4.82515 	348.432 	5.98079e-13 	100000
-4.82415 	348.432 	5.47595e-13 	100000
-4.82315 	348.432 	4.97524e-13 	100000
-4.82216 	348.432 	5.08159e-13 	100000
-4.82116 	348.432 	4.09764e-13 	100000
-4.82016 	348.432 	4.46009e-13 	100000
-4.81916 	348.432 	3.65043e-13 	100000
-4.81816 	348.432 	3.24282e-13 	100000
-4.81716 	348.432 	2.98679e-13 	100000
-4.81616 	348.432 	3.82028e-13 	100000
-4.81516 	348.432 	2.44682e-13 	100000
-4.81416 	348.432 	3.8812e-13 	100000
-4.81316 	348.432 	2.62821e-13 	100000
-4.81216 	348.432 	3.20921e-13 	100000
-4.81117 	348.432 	2.81899e-13 	100000
-4.81017 	348.432 	3.35567e-13 	100000
-4.80917 	348.432 	4.13722e-13 	100000
-4.80817 	348.432 	2.71165e-13 	100000
-4.80717 	348.432 	6.56987e-13 	100000
-4.80617 	348.432 	5.77925e-13 	100000
-4.80517 	348.432 	5.51613e-13 	100000
-4.80417 	348.432 	4.00672e-13 	100000
-4.80317 	348.432 	5.63128e-13 	100000
-4.80217 	348.432 	2.31237e-13 	100000
-4.80117 	348.432 	3.23704e-13 	100000
-4.80018 	348.432 	6.85905e-14 	100000
-4.79918 	348.432 	1.09418e-13 	100000
-4.79818 	348.432 	3.00694e-13 	100000
-4.79718 	348.432 	2.65604e-13 	100000
-4.79618 	348.432 	6.88006e-14 	100000
-4.79518 	348.432 	1.98393e-14 	100000
-4.79418 	348.432 	3.25818e-14 	100000
-4.79318 	348.432 	1.53166e-13 	100000
-4.79218 	348.432 	2.34802e-13 	100000
-4.79118 	348.432 	2.212e-13 	100000
-4.79018 	348.432 	3.48533e-13 	100000
-4.78919 	348.432 	2.84544e-13 	100000
-4.78819 	348.432 	1.65587e-13 	100000
-4.78719 	348.432 	4.36654e-13 	100000
-4.78619 	348.432 	3.92774e-13 	100000
-4.78519 	348.432 	5.56274e-13 	100000
-4.78419 	348.432 	6.36189e-13 	100000
-4.78319 	348.432 	8.62483e-13 	100000
-4.78219 	348.432 	7.56459e-13 	100000
-4.78119 	348.432 	8.27111e-13 	100000
-4.78019 	348.432 	6.9738e-13 	100000
-4.77919 	348.432 	8.60637e-13 	100000
-4.7782 	348.432 	6.51523e-13 	100000
-4.7772 	348.432 	9.046e-13 	100000
-4.7762 	348.432 	7.46125e-13 	100000
-4.7752 	348.432 	7.69227e-13 	100000
-4.7742 	348.432 	5.3283e-13 	100000
-4.7732 	348.432 	6.78244e-13 	100000
-4.7722 	348.432 	6.10758e-13 	100000
-4.7712 	348.432 	8.06546e-13 	100000
-4.7702 	348.432 	4.02635e-13 	100000
-4.7692 	348.432 	5.81661e-13 	100000
-4.7682 	348.432 	1.61865e-13 	100000
-4.76721 	348.432 	4.04144e-13 	100000
-4.76621 	348.432 	3.8957e-13 	100000
-4.76521 	348.432 	3.74996e-13 	100000
-4.76421 	348.432 	2.7947e-13 	100000
-4.76321 	348.432 	2.08857e-13 	100000
-4.76221 	348.432 	4.29636e-13 	100000
-4.76121 	348.432 	3.16646e-13 	100000
-4.76021 	348.432 	5.52906e-13 	100000
-4.75921 	348.432 	2.3578e-13 	100000
-4.75821 	348.432 	3.87732e-13 	100000
-4.75721 	348.432 	3.77162e-13 	100000
-4.75622 	348.432 	2.33055e-13 	100000
-4.75522 	348.432 	5.78995e-13 	100000
-4.75422 	348.432 	7.6433e-13 	100000
-4.75322 	348.432 	8.89825e-13 	100000
-4.75222 	348.432 	9.63682e-13 	100000
-4.75122 	348.432 	1.1115e-12 	100000
-4.75022 	348.432 	1.07175e-12 	100000
-4.74922 	348.432 	1.1749e-12 	100000
-4.74822 	348.432 	1.15234e-12 	100000
-4.74722 	348.432 	1.41458e-12 	100000
-4.74622 	348.432 	1.24948e-12 	100000
-4.74523 	348.432 	1.56705e-12 	100000
-4.74423 	348.432 	1.53751e-12 	100000
-4.74323 	348.432 	1.81544e-12 	100000
-4.74223 	348.432 	1.89751e-12 	100000
-4.74123 	348.432 	2.15372e-12 	100000
-4.74023 	348.432 	2.14397e-12 	100000
-4.73923 	348.432 	2.24137e-12 	100000
-4.73823 	348.432 	2.31744e-12 	100000
-4.73723 	348.432 	2.66948e-12 	100000
-4.73623 	348.432 	2.72788e-12 	100000
-4.73523 	348.432 	2.77577e-12 	100000
-4.73423 	348.432 	2.59285e-12 	100000
-4.73324 	348.432 	2.73083e-12 	100000
-4.73224 	348.432 	2.29873e-12 	100000
-4.73124 	348.432 	2.64529e-12 	100000
-4.73024 	348.432 	2.49618e-12 	100000
-4.72924 	348.432 	2.94488e-12 	100000
-4.72824 	348.432 	2.64312e-12 	100000
-4.72724 	348.432 	2.77606e-12 	100000
-4.72624 	348.432 	2.59838e-12 	100000
-4.72524 	348.432 	2.65913e-12 	100000
-4.72424 	348.432 	2.47218e-12 	100000
-4.72324 	348.432 	2.8402e-12 	100000
-4.72225 	348.432 	2.78321e-12 	100000
-4.72125 	348.432 	2.86221e-12 	100000
-4.72025 	348.432 	2.88605e-12 	100000
-4.71925 	348.432 	3.23792e-12 	100000
-4.71825 	348.432 	3.12927e-12 	100000
-4.71725 	348.432 	3.39525e-12 	100000
-4.71625 	348.432 	3.29634e-12 	100000
-4.71525 	348.432 	3.49419e-12 	100000
-4.71425 	348.432 	3.39765e-12 	100000
-4.71325 	348.432 	3.55435e-12 	100000
-4.71225 	348.432 	3.25352e-12 	100000
-4.71126 	348.432 	3.69903e-12 	100000
-4.71026 	348.432 	3.59798e-12 	100000
-4.70926 	348.432 	3.54767e-12 	100000
-4.70826 	348.432 	3.0817e-12 	100000
-4.70726 	348.432 	3.46391e-12 	100000
-4.70626 	348.432 	2.82107e-12 	100000
-4.70526 	348.432 	3.33646e-12 	100000
-4.70426 	348.432 	2.91468e-12 	100000
-4.70326 	348.432 	2.88493e-12 	100000
-4.70226 	348.432 	2.29654e-12 	100000
-4.70126 	348.432 	2.38797e-12 	100000
-4.70027 	348.432 	1.91073e-12 	100000
-4.69927 	348.432 	2.03583e-12 	100000
-4.69827 	348.432 	1.86074e-12 	100000
-4.69727 	348.432 	1.94668e-12 	100000
-4.69627 	348.432 	1.89414e-12 	100000
-4.69527 	348.432 	2.14317e-12 	100000
-4.69427 	348.432 	2.23154e-12 	100000
-4.69327 	348.432 	2.36442e-12 	100000
-4.69227 	348.432 	2.37243e-12 	100000
-4.69127 	348.432 	2.59901e-12 	100000
-4.69027 	348.432 	2.77345e-12 	100000
-4.68928 	348.432 	2.79718e-12 	100000
-4.68828 	348.432 	2.78521e-12 	100000
-4.68728 	348.432 	3.09727e-12 	100000
-4.68628 	348.432 	3.05184e-12 	100000
-4.68528 	348.432 	3.39223e-12 	100000
-4.68428 	348.432 	3.4782e-12 	100000
-4.68328 	348.432 	3.59367e-12 	100000
-4.68228 	348.432 	3.96537e-12 	100000
-4.68128 	348.432 	4.09142e-12 	100000
-4.68028 	348.432 	3.95151e-12 	100000
-4.67928 	348.432 	3.78466e-12 	100000
-4.67829 	348.432 	3.90512e-12 	100000
-4.67729 	348.432 	3.65105e-12 	100000
-4.67629 	348.432 	3.52204e-12 	100000
-4.67529 	348.432 	3.36261e-12 	100000
-4.67429 	348.432 	3.32524e-12 	100000
-4.67329 	348.432 	3.37292e-12 	100000
-4.67229 	348.432 	2.93442e-12 	100000
-4.67129 	348.432 	2.83966e-12 	100000
-4.67029 	348.432 	2.71239e-12 	100000
-4.66929 	348.432 	2.88082e-12 	100000
-4.66829 	348.432 	2.61506e-12 	100000
-4.6673 	348.432 	2.48298e-12 	100000
-4.6663 	348.432 	2.92766e-12 	100000
-4.6653 	348.432 	2.6642e-12 	100000
-4.6643 	348.432 	2.73576e-12 	100000
-4.6633 	348.432 	2.48312e-12 	100000
-4.6623 	348.432 	2.66064e-12 	100000
-4.6613 	348.432 	2.42722e-12 	100000
-4.6603 	348.432 	2.53841e-12 	100000
-4.6593 	348.432 	2.44743e-12 	100000
-4.6583 	348.432 	2.56999e-12 	100000
-4.6573 	348.432 	2.5889e-12 	100000
-4.65631 	348.432 	2.40047e-12 	100000
-4.65531 	348.432 	2.50575e-12 	100000
-4.65431 	348.432 	2.47955e-12 	100000
-4.65331 	348.432 	2.23518e-12 	100000
-4.65231 	348.432 	2.51396e-12 	100000
-4.65131 	348.432 	2.62153e-12 	100000
-4.65031 	348.432 	2.74165e-12 	100000
-4.64931 	348.432 	2.79251e-12 	100000
-4.64831 	348.432 	2.79533e-12 	100000
-4.64731 	348.432 	2.97484e-12 	100000
-4.64631 	348.432 	3.05585e-12 	100000
-4.64532 	348.432 	3.14816e-12 	100000
-4.64432 	348.432 	3.18192e-12 	100000
-4.64332 	348.432 	3.41097e-12 	100000
-4.64232 	348.432 	3.56735e-12 	100000
-4.64132 	348.432 	3.7952e-12 	100000
-4.64032 	348.432 	4.08039e-12 	100000
-4.63932 	348.432 	4.11773e-12 	100000
-4.63832 	348.432 	4.05422e-12 	100000
-4.63732 	348.432 	4.02641e-12 	100000
-4.63632 	348.432 	4.23806e-12 	100000
-4.63532 	348.432 	4.31002e-12 	100000
-4.63432 	348.432 	4.40169e-12 	100000
-4.63333 	348.432 	4.20836e-12 	100000
-4.63233 	348.432 	4.85432e-12 	100000
-4.63133 	348.432 	4.29617e-12 	100000
-4.63033 	348.432 	4.93757e-12 	100000
-4.62933 	348.432 	4.59524e-12 	100000
-4.62833 	348.432 	5.08718e-12 	100000
-4.62733 	348.432 	4.73632e-12 	100000
-4.62633 	348.432 	4.75962e-12 	100000
-4.62533 	348.432 	4.30087e-12 	100000
-4.62433 	348.432 	4.3546e-12 	100000
-4.62333 	348.432 	3.9628e-12 	100000
-4.62234 	348.432 	3.93244e-12 	100000
-4.62134 	348.432 	3.58494e-12 	100000
-4.62034 	348.432 	3.78505e-12 	100000
-4.61934 	348.432 	3.3461e-12 	100000
-4.61834 	348.432 	3.2402e-12 	100000
-4.61734 	348.432 	3.19539e-12 	100000
-4.61634 	348.432 	2.53683e-12 	100000
-4.61534 	348.432 	2.61724e-12 	100000
-4.61434 	348.432 	2.27707e-12 	100000
-4.61334 	348.432 	2.29252e-12 	100000
-4.61234 	348.432 	1.89056e-12 	100000
-4.61135 	348.432 	1.84045e-12 	100000
-4.61035 	348.432 	2.14665e-12 	100000
-4.60935 	348.432 	1.98288e-12 	100000
-4.60835 	348.432 	1.98485e-12 	100000
-4.60735 	348.432 	2.38747e-12 	100000
-4.60635 	348.432 	2.00052e-12 	100000
-4.60535 	348.432 	2.65921e-12 	100000
-4.60435 	348.432 	2.16537e-12 	100000
-4.60335 	348.432 	2.52316e-12 	100000
-4.60235 	348.432 	2.42541e-12 	100000
-4.60135 	348.432 	2.35466e-12 	100000
-4.60036 	348.432 	2.37855e-12 	100000
-4.59936 	348.432 	2.75671e-12 	100000
-4.59836 	348.432 	2.49222e-12 	100000
-4.59736 	348.432 	2.98017e-12 	100000
-4.59636 	348.432 	2.90802e-12 	100000
-4.59536 	348.432 	3.38221e-12 	100000
-4.59436 	348.432 	3.3717e-12 	100000
-4.59336 	348.432 	3.41851e-12 	100000
-4.59236 	348.432 	3.64025e-12 	100000
-4.59136 	348.432 	3.74032e-12 	100000
-4.59036 	348.432 	4.02168e-12 	100000
-4.58937 	348.432 	3.85047e-12 	100000
-4.58837 	348.432 	4.13601e-12 	100000
-4.58737 	348.432 	4.25047e-12 	100000
-4.58637 	348.432 	4.66986e-12 	100000
-4.58537 	348.432 	4.715e-12 	100000
-4.58437 	348.432 	4.86411e-12 	100000
-4.58337 	348.432 	4.50662e-12 	100000
-4.58237 	348.432 	5.04232e-12 	100000
-4.58137 	348.432 	4.747e-12 	100000
-4.58037 	348.432 	5.00915e-12 	100000
-4.57937 	348.432 	5.15848e-12 	100000
-4.57838 	348.432 	5.19861e-12 	100000
-4.57738 	348.432 	5.03262e-12 	100000
-4.57638 	348.432 	5.01111e-12 	100000
-4.57538 	348.432 	4.85401e-12 	100000
-4.57438 	348.432 	4.81604e-12 	100000
-4.57338 	348.432 	4.67546e-12 	100000
-4.57238 	348.432 	4.32587e-12 	100000
-4.57138 	348.432 	4.47908e-12 	100000
-4.57038 	348.432 	4.37276e-12 	100000
-4.56938 	348.432 	4.33682e-12 	100000
-4.56838 	348.432 	4.2848e-12 	100000
-4.56739 	348.432 	4.43477e-12 	100000
-4.56639 	348.432 	4.109e-12 	100000
-4.56539 	348.432 	4.16184e-12 	100000
-4.56439 	348.432 	3.94323e-12 	100000
-4.56339 	348.432 	3.70029e-12 	100000
-4.56239 	348.432 	3.32419e-12 	100000
-4.56139 	348.432 	3.3658e-12 	100000
-4.56039 	348.432 	2.85278e-12 	100000
-4.55939 	348.432 	2.829e-12 	100000
-4.55839 	348.432 	3.06022e-12 	100000
-4.55739 	348.432 	3.02645e-12 	100000
-4.5564 	348.432 	3.00558e-12 	100000
-4.5554 	348.432 	3.36605e-12 	100000
-4.5544 	348.432 	3.24228e-12 	100000
-4.5534 	348.432 	3.5495e-12 	100000
-4.5524 	348.432 	3.75078e-12 	100000
-4.5514 	348.432 	4.02316e-12 	100000
-4.5504 	348.432 	3.99547e-12 	100000
-4.5494 	348.432 	3.96364e-12 	100000
-4.5484 	348.432 	3.80695e-12 	100000
-4.5474 	348.432 	3.97103e-12 	100000
-4.5464 	348.432 	4.28387e-12 	100000
-4.54541 	348.432 	4.34156e-12 	100000
-4.54441 	348.432 	4.05679e-12 	100000
-4.54341 	348.432 	4.48881e-12 	100000
-4.54241 	348.432 	4.4895e-12 	100000
-4.54141 	348.432 	4.87875e-12 	100000
-4.54041 	348.432 	4.78602e-12 	100000
-4.53941 	348.432 	4.66119e-12 	100000
-4.53841 	348.432 	4.72276e-12 	100000
-4.53741 	348.432 	4.58786e-12 	100000
-4.53641 	348.432 	5.11e-12 	100000
-4.53541 	348.432 	4.99341e-12 	100000
-4.53441 	348.432 	4.89171e-12 	100000
-4.53342 	348.432 	4.96105e-12 	100000
-4.53242 	348.432 	5.16509e-12 	100000
-4.53142 	348.432 	5.45976e-12 	100000
-4.53042 	348.432 	5.07388e-12 	100000
-4.52942 	348.432 	5.66368e-12 	100000
-4.52842 	348.432 	5.26228e-12 	100000
-4.52742 	348.432 	5.84502e-12 	100000
-4.52642 	348.432 	5.31808e-12 	100000
-4.52542 	348.432 	5.74177e-12 	100000
-4.52442 	348.432 	5.52049e-12 	100000
-4.52342 	348.432 	5.69325e-12 	100000
-4.52243 	348.432 	4.72643e-12 	100000
-4.52143 	348.432 	5.40429e-12 	100000
-4.52043 	348.432 	4.78505e-12 	100000
-4.51943 	348.432 	5.12319e-12 	100000
-4.51843 	348.432 	4.62283e-12 	100000
-4.51743 	348.432 	4.98886e-12 	100000
-4.51643 	348.432 	5.00192e-12 	100000
-4.51543 	348.432 	5.18146e-12 	100000
-4.51443 	348.432 	5.23399e-12 	100000
-4.51343 	348.432 	5.37221e-12 	100000
-4.51243 	348.432 	5.02279e-12 	100000
-4.51144 	348.432 	5.08064e-12 	100000
-4.51044 	348.432 	4.9157e-12 	100000
-4.50944 	348.432 	4.71536e-12 	100000
-4.50844 	348.432 	4.95198e-12 	100000
-4.50744 	348.432 	4.42978e-12 	100000
-4.50644 	348.432 	5.01516e-12 	100000
-4.50544 	348.432 	4.77097e-12 	100000
-4.50444 	348.432 	5.23619e-12 	100000
-4.50344 	348.432 	4.98469e-12 	100000
-4.50244 	348.432 	4.92495e-12 	100000
-4.50144 	348.432 	5.07154e-12 	100000
-4.50045 	348.432 	4.98727e-12 	100000
-4.49945 	348.432 	4.94952e-12 	100000
-4.49845 	348.432 	4.79847e-12 	100000
-4.49745 	348.432 	5.30752e-12 	100000
-4.49645 	348.432 	5.26157e-12 	100000
-4.49545 	348.432 	5.20108e-12 	100000
-4.49445 	348.432 	5.61496e-12 	100000
-4.49345 	348.432 	5.29924e-12 	100000
-4.49245 	348.432 	5.10269e-12 	100000
-4.49145 	348.432 	5.35247e-12 	100000
-4.49045 	348.432 	5.62871e-12 	100000
-4.48946 	348.432 	5.58174e-12 	100000
-4.48846 	348.432 	5.47342e-12 	100000
-4.48746 	348.432 	5.54504e-12 	100000
-4.48646 	348.432 	5.59671e-12 	100000
-4.48546 	348.432 	5.8269e-12 	100000
-4.48446 	348.432 	5.98897e-12 	100000
-4.48346 	348.432 	6.19759e-12 	100000
-4.48246 	348.432 	6.49311e-12 	100000
-4.48146 	348.432 	6.19931e-12 	100000
-4.48046 	348.432 	6.91696e-12 	100000
-4.47946 	348.432 	6.23908e-12 	100000
-4.47847 	348.432 	6.89012e-12 	100000
-4.47747 	348.432 	6.24078e-12 	100000
-4.47647 	348.432 	6.9904e-12 	100000
-4.47547 	348.432 	6.66253e-12 	100000
-4.47447 	348.432 	6.98143e-12 	100000
-4.47347 	348.432 	6.80912e-12 	100000
-4.47247 	348.432 	7.16671e-12 	100000
-4.47147 	348.432 	6.831e-12 	100000
-4.47047 	348.432 	6.97513e-12 	100000
-4.46947 	348.432 	7.05831e-12 	100000
-4.46847 	348.432 	6.98844e-12 	100000
-4.46748 	348.432 	7.03108e-12 	100000
-4.46648 	348.432 	7.03734e-12 	100000
-4.46548 	348.432 	7.28662e-12 	100000
-4.46448 	348.432 	6.99633e-12 	100000
-4.46348 	348.432 	7.38218e-12 	100000
-4.46248 	348.432 	6.76662e-12 	100000
-4.46148 	348.432 	7.37524e-12 	100000
-4.46048 	348.432 	7.07672e-12 	100000
-4.45948 	348.432 	7.17081e-12 	100000
-4.45848 	348.432 	6.83099e-12 	100000
-4.45748 	348.432 	7.06979e-12 	100000
-4.45649 	348.432 	6.75977e-12 	100000
-4.45549 	348.432 	7.14636e-12 	100000
-4.45449 	348.432 	7.04776e-12 	100000
-4.45349 	348.432 	7.2056e-12 	100000
-4.45249 	348.432 	7.164e-12 	100000
-4.45149 	348.432 	7.31081e-12 	100000
-4.45049 	348.432 	7.55401e-12 	100000
-4.44949 	348.432 	7.32419e-12 	100000
-4.44849 	348.432 	7.47938e-12 	100000
-4.44749 	348.432 	6.97588e-12 	100000
-4.44649 	348.432 	7.43576e-12 	100000
-4.4455 	348.432 	6.79862e-12 	100000
-4.4445 	348.432 	6.98413e-12 	100000
-4.4435 	348.432 	6.20066e-12 	100000
-4.4425 	348.432 	6.53406e-12 	100000
-4.4415 	348.432 	6.0685e-12 	100000
-4.4405 	348.432 	6.1996e-12 	100000
-4.4395 	348.432 	6.1996e-12 	100000
-4.4385 	348.432 	5.95195e-12 	100000
-4.4375 	348.432 	6.12628e-12 	100000
-4.4365 	348.432 	5.93763e-12 	100000
-4.4355 	348.432 	6.64891e-12 	100000
-4.4345 	348.432 	5.80994e-12 	100000
-4.43351 	348.432 	6.63236e-12 	100000
-4.43251 	348.432 	5.84034e-12 	100000
-4.43151 	348.432 	6.081e-12 	100000
-4.43051 	348.432 	5.88043e-12 	100000
-4.42951 	348.432 	6.50001e-12 	100000
-4.42851 	348.432 	5.94292e-12 	100000
-4.42751 	348.432 	6.77357e-12 	100000
-4.42651 	348.432 	6.66782e-12 	100000
-4.42551 	348.432 	6.91114e-12 	100000
-4.42451 	348.432 	6.88562e-12 	100000
-4.42351 	348.432 	7.41692e-12 	100000
-4.42252 	348.432 	7.58287e-12 	100000
-4.42152 	348.432 	7.95835e-12 	100000
-4.42052 	348.432 	8.07931e-12 	100000
-4.41952 	348.432 	8.0241e-12 	100000
-4.41852 	348.432 	8.33773e-12 	100000
-4.41752 	348.432 	8.10097e-12 	100000
-4.41652 	348.432 	8.35297e-12 	100000
-4.41552 	348.432 	8.7009e-12 	100000
-4.41452 	348.432 	8.95091e-12 	100000
-4.41352 	348.432 	8.92813e-12 	100000
-4.41252 	348.432 	9.38267e-12 	100000
-4.41153 	348.432 	8.98204e-12 	100000
-4.41053 	348.432 	8.99959e-12 	100000
-4.40953 	348.432 	8.65988e-12 	100000
-4.40853 	348.432 	9.21722e-12 	100000
-4.40753 	348.432 	8.66734e-12 	100000
-4.40653 	348.432 	8.90492e-12 	100000
-4.40553 	348.432 	8.8563e-12 	100000
-4.40453 	348.432 	9.05218e-12 	100000
-4.40353 	348.432 	8.77655e-12 	100000
-4.40253 	348.432 	9.11934e-12 	100000
-4.40153 	348.432 	8.7092e-12 	100000
-4.40054 	348.432 	9.10202e-12 	100000
-4.39954 	348.432 	8.73757e-12 	100000
-4.39854 	348.432 	9.36916e-12 	100000
-4.39754 	348.432 	8.98737e-12 	100000
-4.39654 	348.432 	9.44774e-12 	100000
-4.39554 	348.432 	9.24311e-12 	100000
-4.39454 	348.432 	9.66745e-12 	100000
-4.39354 	348.432 	9.02906e-12 	100000
-4.39254 	348.432 	9.55891e-12 	100000
-4.39154 	348.432 	9.3746e-12 	100000
-4.39054 	348.432 	9.43473e-12 	100000
-4.38955 	348.432 	9.68861e-12 	100000
-4.38855 	348.432 	9.78402e-12 	100000
-4.38755 	348.432 	9.98265e-12 	100000
-4.38655 	348.432 	9.54799e-12 	100000
-4.38555 	348.432 	1.02468e-11 	100000
-4.38455 	348.432 	1.02286e-11 	100000
-4.38355 	348.432 	1.0281e-11 	100000
-4.38255 	348.432 	1.02703e-11 	100000
-4.38155 	348.432 	9.96544e-12 	100000
-4.38055 	348.432 	1.03628e-11 	100000
-4.37955 	348.432 	9.95858e-12 	100000
-4.37856 	348.432 	1.08572e-11 	100000
-4.37756 	348.432 	1.05396e-11 	100000
-4.37656 	348.432 	1.11226e-11 	100000
-4.37556 	348.432 	1.05135e-11 	100000
-4.37456 	348.432 	1.04325e-11 	100000
-4.37356 	348.432 	1.05533e-11 	100000
-4.37256 	348.432 	1.07941e-11 	100000
-4.37156 	348.432 	1.02617e-11 	100000
-4.37056 	348.432 	1.0048e-11 	100000
-4.36956 	348.432 	1.0159e-11 	100000
-4.36856 	348.432 	9.60776e-12 	100000
-4.36757 	348.432 	9.48746e-12 	100000
-4.36657 	348.432 	9.2093e-12 	100000
-4.36557 	348.432 	9.40775e-12 	100000
-4.36457 	348.432 	9.30103e-12 	100000
-4.36357 	348.432 	9.36003e-12 	100000
-4.36257 	348.432 	9.25649e-12 	100000
-4.36157 	348.432 	9.09923e-12 	100000
-4.36057 	348.432 	9.29104e-12 	100000
-4.35957 	348.432 	9.25258e-12 	100000
-4.35857 	348.432 	9.30242e-12 	100000
-4.35757 	348.432 	9.37421e-12 	100000
-4.35658 	348.432 	9.39312e-12 	100000
-4.35558 	348.432 	9.98728e-12 	100000
-4.35458 	348.432 	9.95528e-12 	100000
-4.35358 	348.432 	1.00965e-11 	100000
-4.35258 	348.432 	1.05794e-11 	100000
-4.35158 	348.432 	1.07941e-11 	100000
-4.35058 	348.432 	1.11042e-11 	100000
-4.34958 	348.432 	1.11837e-11 	100000
-4.34858 	348.432 	1.13491e-11 	100000
-4.34758 	348.432 	1.15909e-11 	100000
-4.34658 	348.432 	1.07164e-11 	100000
-4.34559 	348.432 	1.14349e-11 	100000
-4.34459 	348.432 	1.10427e-11 	100000
-4.34359 	348.432 	1.14384e-11 	100000
-4.34259 	348.432 	1.12141e-11 	100000
-4.34159 	348.432 	1.15873e-11 	100000
-4.34059 	348.432 	1.14667e-11 	100000
-4.33959 	348.432 	1.16103e-11 	100000
-4.33859 	348.432 	1.09236e-11 	100000
-4.33759 	348.432 	1.12105e-11 	100000
-4.33659 	348.432 	1.08764e-11 	100000
-4.33559 	348.432 	1.09573e-11 	100000
-4.33459 	348.432 	1.11808e-11 	100000
-4.3336 	348.432 	1.10975e-11 	100000
-4.3326 	348.432 	1.09282e-11 	100000
-4.3316 	348.432 	1.09771e-11 	100000
-4.3306 	348.432 	1.09053e-11 	100000
-4.3296 	348.432 	1.08573e-11 	100000
-4.3286 	348.432 	1.09317e-11 	100000
-4.3276 	348.432 	1.08094e-11 	100000
-4.3266 	348.432 	1.10827e-11 	100000
-4.3256 	348.432 	1.08539e-11 	100000
-4.3246 	348.432 	1.085e-11 	100000
-4.3236 	348.432 	1.10749e-11 	100000
-4.32261 	348.432 	1.08401e-11 	100000
-4.32161 	348.432 	1.09265e-11 	100000
-4.32061 	348.432 	1.08233e-11 	100000
-4.31961 	348.432 	1.06011e-11 	100000
-4.31861 	348.432 	1.05368e-11 	100000
-4.31761 	348.432 	1.06878e-11 	100000
-4.31661 	348.432 	1.06811e-11 	100000
-4.31561 	348.432 	1.09628e-11 	100000
-4.31461 	348.432 	1.09212e-11 	100000
-4.31361 	348.432 	1.08854e-11 	100000
-4.31261 	348.432 	1.06884e-11 	100000
-4.31162 	348.432 	1.06762e-11 	100000
-4.31062 	348.432 	1.07166e-11 	100000
-4.30962 	348.432 	1.05543e-11 	100000
-4.30862 	348.432 	1.05706e-11 	100000
-4.30762 	348.432 	1.0139e-11 	100000
-4.30662 	348.432 	1.03494e-11 	100000
-4.30562 	348.432 	1.01169e-11 	100000
-4.30462 	348.432 	1.02079e-11 	100000
-4.30362 	348.432 	1.0149e-11 	100000
-4.30262 	348.432 	1.02787e-11 	100000
-4.30162 	348.432 	9.69849e-12 	100000
-4.30063 	348.432 	1.03146e-11 	100000
-4.29963 	348.432 	9.8674e-12 	100000
-4.29863 	348.432 	1.05646e-11 	100000
-4.29763 	348.432 	9.87677e-12 	100000
-4.29663 	348.432 	1.02797e-11 	100000
-4.29563 	348.432 	9.48137e-12 	100000
-4.29463 	348.432 	9.74345e-12 	100000
-4.29363 	348.432 	9.3721e-12 	100000
-4.29263 	348.432 	9.53441e-12 	100000
-4.29163 	348.432 	9.29125e-12 	100000
-4.29063 	348.432 	9.56396e-12 	100000
-4.28964 	348.432 	9.37342e-12 	100000
-4.28864 	348.432 	9.67602e-12 	100000
-4.28764 	348.432 	9.33959e-12 	100000
-4.28664 	348.432 	9.59182e-12 	100000
-4.28564 	348.432 	9.81803e-12 	100000
-4.28464 	348.432 	9.74606e-12 	100000
-4.28364 	348.432 	9.89265e-12 	100000
-4.28264 	348.432 	1.00821e-11 	100000
-4.28164 	348.432 	1.01466e-11 	100000
-4.28064 	348.432 	9.86542e-12 	100000
-4.27964 	348.432 	1.01167e-11 	100000
-4.27865 	348.432 	9.90553e-12 	100000
-4.27765 	348.432 	9.25079e-12 	100000
-4.27665 	348.432 	9.68118e-12 	100000
-4.27565 	348.432 	9.3261e-12 	100000
-4.27465 	348.432 	9.17386e-12 	100000
-4.27365 	348.432 	9.34684e-12 	100000
-4.27265 	348.432 	9.55307e-12 	100000
-4.27165 	348.432 	9.11361e-12 	100000
-4.27065 	348.432 	9.74652e-12 	100000
-4.26965 	348.432 	9.69037e-12 	100000
-4.26865 	348.432 	9.87883e-12 	100000
-4.26766 	348.432 	9.91936e-12 	100000
-4.26666 	348.432 	1.02271e-11 	100000
-4.26566 	348.432 	1.03086e-11 	100000
-4.26466 	348.432 	1.0694e-11 	100000
-4.26366 	348.432 	1.07041e-11 	100000
-4.26266 	348.432 	1.08274e-11 	100000
-4.26166 	348.432 	1.09509e-11 	100000
-4.26066 	348.432 	1.12999e-11 	100000
-4.25966 	348.432 	1.13757e-11 	100000
-4.25866 	348.432 	1.19517e-11 	100000
-4.25766 	348.432 	1.18077e-11 	100000
-4.25667 	348.432 	1.28047e-11 	100000
-4.25567 	348.432 	1.23307e-11 	100000
-4.25467 	348.432 	1.28633e-11 	100000
-4.25367 	348.432 	1.24146e-11 	100000
-4.25267 	348.432 	1.29397e-11 	100000
-4.25167 	348.432 	1.28885e-11 	100000
-4.25067 	348.432 	1.36015e-11 	100000
-4.24967 	348.432 	1.35866e-11 	100000
-4.24867 	348.432 	1.43967e-11 	100000
-4.24767 	348.432 	1.40782e-11 	100000
-4.24667 	348.432 	1.46854e-11 	100000
-4.24568 	348.432 	1.45104e-11 	100000
-4.24468 	348.432 	1.45016e-11 	100000
-4.24368 	348.432 	1.45024e-11 	100000
-4.24268 	348.432 	1.48116e-11 	100000
-4.24168 	348.432 	1.48071e-11 	100000
-4.24068 	348.432 	1.50189e-11 	100000
-4.23968 	348.432 	1.54871e-11 	100000
-4.23868 	348.432 	1.50538e-11 	100000
-4.23768 	348.432 	1.551e-11 	100000
-4.23668 	348.432 	1.58521e-11 	100000
-4.23568 	348.432 	1.54717e-11 	100000
-4.23468 	348.432 	1.54939e-11 	100000
-4.23369 	348.432 	1.62691e-11 	100000
-4.23269 	348.432 	1.53367e-11 	100000
-4.23169 	348.432 	1.63038e-11 	100000
-4.23069 	348.432 	1.54376e-11 	100000
-4.22969 	348.432 	1.61876e-11 	100000
-4.22869 	348.432 	1.59057e-11 	100000
-4.22769 	348.432 	1.55475e-11 	100000
-4.22669 	348.432 	1.5692e-11 	100000
-4.22569 	348.432 	1.57279e-11 	100000
-4.22469 	348.432 	1.53488e-11 	100000
-4.22369 	348.432 	1.54697e-11 	100000