/*--------------------------------*- C++ -*----------------------------------*\
  =========                 |
  \\      /  F ield         | OpenFOAM: The Open Source CFD Toolbox
   \\    /   O peration     | Website:  https://openfoam.org
    \\  /    A nd           | Version:  7
     \\/     M anipulation  |
\*---------------------------------------------------------------------------*/
FoamFile
{
    version     2.0;
    format      ascii;
    class       volScalarField;
    location    "59";
    object      p;
}
// * * * * * * * * * * * * * * * * * * * * * * * * * * * * * * * * * * * * * //

dimensions      [0 2 -2 0 0 0 0];

internalField   nonuniform List<scalar> 
8800
(
0.765592
0.717805
0.679117
0.650123
0.629261
0.614434
0.603843
0.596371
0.591563
0.589523
0.59081
0.595016
0.601672
0.610996
0.623782
0.64152
0.666299
0.700242
0.742793
0.801495
0.59684
0.604519
0.611996
0.615305
0.613803
0.608727
0.602245
0.596174
0.591461
0.588633
0.588372
0.590896
0.595399
0.601354
0.60813
0.614415
0.618059
0.617324
0.611906
0.603217
0.575242
0.581402
0.58553
0.588475
0.590526
0.591134
0.590033
0.587936
0.585934
0.585045
0.586028
0.588426
0.591237
0.593427
0.59404
0.592845
0.590506
0.587115
0.582557
0.578797
0.56943
0.572081
0.574833
0.577237
0.578874
0.580039
0.580785
0.580912
0.580631
0.580601
0.581376
0.582564
0.583417
0.583491
0.582888
0.581802
0.579989
0.57742
0.575018
0.573515
0.564048
0.565472
0.567252
0.569284
0.57107
0.572414
0.573409
0.574216
0.574847
0.575434
0.57611
0.576626
0.57674
0.576462
0.575772
0.574529
0.572836
0.570991
0.569685
0.568853
0.558969
0.559889
0.56113
0.562697
0.564331
0.565859
0.56715
0.568228
0.56921
0.570129
0.570846
0.571197
0.571171
0.570742
0.56987
0.568675
0.567352
0.566095
0.565273
0.564722
0.554059
0.554728
0.555691
0.556993
0.558403
0.559864
0.561309
0.562643
0.563861
0.564997
0.565851
0.566244
0.566178
0.565682
0.564885
0.563943
0.562935
0.562015
0.561431
0.561025
0.549272
0.549788
0.550571
0.551701
0.552979
0.554356
0.555808
0.557292
0.55874
0.560109
0.561151
0.561651
0.561646
0.561275
0.560683
0.559965
0.559197
0.558516
0.558083
0.557766
0.544536
0.544946
0.545602
0.546607
0.547813
0.549143
0.550594
0.552162
0.553805
0.555437
0.556723
0.557413
0.5576
0.557447
0.557076
0.556567
0.556003
0.555514
0.555193
0.554935
0.539765
0.540099
0.540666
0.541592
0.542749
0.544063
0.545549
0.547215
0.549044
0.550964
0.552566
0.553548
0.554009
0.554106
0.553963
0.553676
0.553304
0.552975
0.552738
0.552521
0.534871
0.535149
0.535654
0.536533
0.537672
0.53901
0.540568
0.542372
0.544429
0.546682
0.548682
0.55004
0.550831
0.551214
0.551319
0.551256
0.551076
0.550886
0.550716
0.550529
0.529767
0.53
0.530465
0.531329
0.532489
0.533894
0.535567
0.537564
0.539912
0.542577
0.545065
0.546876
0.548051
0.548763
0.549146
0.549312
0.549324
0.549263
0.549148
0.548982
0.52436
0.524558
0.525004
0.525881
0.527103
0.52862
0.530463
0.532718
0.535439
0.538623
0.541703
0.544051
0.545676
0.546761
0.547456
0.547866
0.548086
0.548144
0.548076
0.547924
0.518551
0.51872
0.519164
0.520083
0.52141
0.523088
0.525168
0.527763
0.530955
0.534782
0.538579
0.541569
0.543723
0.545238
0.546286
0.546991
0.547415
0.547588
0.547561
0.547417
0.512222
0.512368
0.512824
0.513815
0.515292
0.517192
0.519585
0.522613
0.526402
0.531018
0.535685
0.539441
0.542222
0.544242
0.545692
0.546714
0.547373
0.547668
0.547677
0.547538
0.505237
0.505358
0.505841
0.506936
0.508615
0.510807
0.513602
0.51718
0.521709
0.527292
0.53301
0.537683
0.541207
0.543822
0.545746
0.547135
0.548054
0.548473
0.548516
0.548377
0.497417
0.497515
0.498042
0.499277
0.501214
0.503777
0.507086
0.511357
0.516806
0.52357
0.530555
0.536322
0.540722
0.544037
0.546531
0.548346
0.549556
0.550105
0.55018
0.550038
0.488534
0.488635
0.489215
0.490607
0.492877
0.495921
0.499883
0.505025
0.511614
0.519823
0.52833
0.535396
0.54083
0.544967
0.548133
0.55045
0.551986
0.552674
0.552778
0.552629
0.478283
0.478365
0.479036
0.480653
0.483355
0.487018
0.491806
0.498045
0.506052
0.516026
0.526357
0.534952
0.541601
0.546706
0.550641
0.553546
0.555455
0.556289
0.556421
0.556261
0.466293
0.46636
0.46713
0.469059
0.472319
0.476775
0.482621
0.490249
0.500022
0.512145
0.52465
0.535042
0.543105
0.549338
0.554169
0.557759
0.560073
0.561055
0.561208
0.561035
0.452016
0.452071
0.452984
0.455328
0.459324
0.464826
0.472053
0.481464
0.493448
0.508185
0.523261
0.535738
0.545418
0.55295
0.558817
0.563177
0.565925
0.567051
0.567216
0.567026
0.434692
0.434736
0.435862
0.438788
0.443792
0.45071
0.459775
0.471507
0.486277
0.504185
0.522265
0.537122
0.548632
0.557624
0.564647
0.569864
0.573058
0.57431
0.574477
0.574266
0.413168
0.41321
0.414682
0.418488
0.424948
0.433857
0.445444
0.460242
0.478525
0.500238
0.521777
0.53929
0.552831
0.563437
0.571703
0.577845
0.58146
0.582801
0.582951
0.582718
0.38572
0.385782
0.387839
0.393061
0.401772
0.413607
0.428746
0.447615
0.470287
0.496499
0.521937
0.542353
0.55807
0.570407
0.580017
0.587067
0.591027
0.592393
0.592505
0.592251
0.349321
0.349481
0.352742
0.360578
0.373089
0.38939
0.409593
0.433809
0.461853
0.493251
0.522967
0.546445
0.564426
0.578544
0.589534
0.597384
0.601541
0.602841
0.602892
0.60262
0.298191
0.299163
0.305643
0.318841
0.337956
0.361161
0.388342
0.419317
0.4537
0.490865
0.525094
0.551694
0.571941
0.587798
0.600087
0.608532
0.612667
0.613797
0.613773
0.613489
0.223433
0.230668
0.245658
0.26889
0.297861
0.330315
0.366032
0.404792
0.446206
0.489629
0.528715
0.558688
0.581392
0.599159
0.612742
0.62162
0.625609
0.626554
0.626484
0.626236
0.14305
0.160185
0.184479
0.218404
0.257604
0.299442
0.343765
0.390512
0.439378
0.489775
0.534649
0.568841
0.594614
0.614702
0.62985
0.638982
0.642521
0.643193
0.64314
0.642986
0.0760639
0.0962507
0.12824
0.171245
0.219487
0.27017
0.322846
0.377434
0.433605
0.490774
0.541176
0.579324
0.607956
0.630063
0.646185
0.655193
0.658405
0.659005
0.659006
0.6589
0.0212036
0.0430431
0.0805348
0.129963
0.185352
0.243492
0.303558
0.365341
0.428383
0.492018
0.547687
0.58955
0.620783
0.644628
0.661712
0.67087
0.674057
0.67472
0.674748
0.674671
-0.024473
-0.00145365
0.0398206
0.0943485
0.155483
0.219782
0.286202
0.354394
0.423741
0.493428
0.554088
0.599476
0.633184
0.65875
0.676837
0.686517
0.68995
0.69051
0.690567
0.69052
-0.0632302
-0.039543
0.0045922
0.0631655
0.129134
0.198678
0.270619
0.344508
0.419594
0.494916
0.560299
0.609063
0.645167
0.672435
0.691594
0.701943
0.705592
0.706201
0.706272
0.706253
-0.097087
-0.0729609
-0.0265584
0.035347
0.105399
0.179502
0.256338
0.335368
0.41574
0.496344
0.566213
0.618203
0.656605
0.685528
0.705687
0.716675
0.720659
0.72137
0.721469
0.721468
-0.127534
-0.103021
-0.0547721
0.00998134
0.083555
0.161656
0.242885
0.326609
0.411887
0.497477
0.571626
0.626702
0.667279
0.697713
0.718878
0.730437
0.734747
0.735631
0.735739
0.735748
-0.155531
-0.130669
-0.0808405
-0.0136339
0.0630397
0.144684
0.229862
0.317886
0.407753
0.498095
0.576377
0.634418
0.67705
0.70886
0.730896
0.742989
0.747574
0.74859
0.748686
0.748682
-0.18188
-0.15662
-0.105326
-0.0360152
0.0434212
0.128225
0.216972
0.308955
0.403131
0.498034
0.580356
0.641295
0.685892
0.718996
0.741741
0.754205
0.758988
0.760092
0.760182
0.760161
-0.206954
-0.181284
-0.128769
-0.0574962
0.0243942
0.112031
0.204015
0.299644
0.397873
0.49718
0.5835
0.647339
0.693851
0.728146
0.751471
0.764193
0.769068
0.770208
0.770273
0.770227
-0.231172
-0.204975
-0.15143
-0.0783195
0.00575006
0.0959291
0.19085
0.289836
0.391869
0.495441
0.585768
0.652566
0.701021
0.736447
0.760265
0.773061
0.777953
0.779078
0.779124
0.779054
-0.254669
-0.228055
-0.173378
-0.09866
-0.0126384
0.0798197
0.177396
0.279461
0.385058
0.492757
0.587131
0.657013
0.707509
0.744057
0.76824
0.781018
0.785839
0.786928
0.786956
0.786862
-0.277577
-0.250458
-0.194758
-0.118602
-0.0308334
0.0636597
0.163619
0.268489
0.377403
0.489077
0.58754
0.660706
0.713426
0.751157
0.775628
0.788249
0.7929
0.793902
0.79388
0.793767
-0.300028
-0.272347
-0.215653
-0.138181
-0.0488641
0.047442
0.149532
0.256932
0.368898
0.48436
0.586946
0.663643
0.718875
0.757907
0.78258
0.794885
0.799224
0.800073
0.799996
0.799861
-0.322045
-0.293714
-0.236099
-0.157402
-0.0667051
0.0311909
0.135171
0.244826
0.359564
0.478581
0.585288
0.665788
0.723911
0.764486
0.789303
0.801043
0.804878
0.805503
0.805374
0.805227
-0.343474
-0.314529
-0.256032
-0.176244
-0.0843293
0.0149663
0.120591
0.232239
0.349454
0.471757
0.582498
0.667069
0.728531
0.771069
0.796095
0.806986
0.809998
0.810268
0.810079
0.809936
-0.364298
-0.334766
-0.275441
-0.194666
-0.101683
-0.00117694
0.105879
0.219244
0.338641
0.463908
0.578526
0.667362
0.732661
0.777766
0.803365
0.813236
0.814907
0.814464
0.814169
0.81408
-0.384583
-0.354395
-0.294303
-0.212638
-0.118708
-0.0171597
0.0911165
0.20594
0.32721
0.455095
0.573322
0.666519
0.736126
0.784509
0.811487
0.820679
0.820497
0.818502
0.817797
0.817996
-0.404163
-0.373393
-0.312565
-0.230102
-0.135347
-0.0329014
0.0763971
0.192437
0.315276
0.445409
0.566871
0.664361
0.738653
0.790956
0.820455
0.830329
0.828725
0.824317
0.821724
0.821335
-0.423131
-0.391751
-0.330245
-0.247089
-0.151634
-0.0484446
0.0616657
0.178677
0.302772
0.434779
0.559038
0.660615
0.739939
0.796588
0.829633
0.84245
0.842053
0.83552
0.827444
0.813453
-0.441416
-0.409457
-0.347459
-0.2638
-0.167849
-0.0641147
0.0465151
0.164191
0.289177
0.422583
0.549195
0.65452
0.739439
0.800698
0.83734
0.854925
0.856373
0.843717
0.823823
0.81232
-0.458842
-0.426646
-0.364016
-0.280033
-0.183644
-0.0795726
0.0311682
0.149296
0.274788
0.409073
0.537391
0.645583
0.736296
0.802113
0.839399
0.856821
0.860879
0.837387
0.769759
0.739439
-0.474746
-0.444568
-0.379589
-0.295301
-0.198231
-0.0943197
0.0159389
0.134222
0.259821
0.394367
0.523547
0.633477
0.729047
0.800135
0.830775
0.842869
0.83149
0.776975
0.707882
0.665389
-0.530158
-0.460378
-0.393712
-0.310731
-0.213231
-0.109818
0.000759006
0.118682
0.243902
0.377997
0.50704
0.617527
0.71376
0.791342
0.79547
0.797478
0.74698
0.676126
0.599293
0.556539
-0.491597
-0.475589
-0.414807
-0.330832
-0.235418
-0.132065
-0.0225228
0.0947329
0.218938
0.351585
0.478677
0.587511
0.675881
0.75835
0.744219
0.629795
0.523877
0.450191
0.376522
0.40675
-0.522415
-0.493118
-0.431422
-0.348271
-0.252868
-0.149646
-0.0398465
0.0767586
0.199878
0.330701
0.454963
0.559573
0.638303
0.682375
0.633184
0.483244
0.354724
0.262869
0.1639
0.213681
-0.546148
-0.513914
-0.450996
-0.367692
-0.272177
-0.169062
-0.0593564
0.0564007
0.178101
0.3065
0.426989
0.525371
0.595357
0.604749
0.497426
0.323904
0.17069
0.0514784
-0.0798482
-0.0471872
-0.569369
-0.535601
-0.471496
-0.387269
-0.291671
-0.188711
-0.0795374
0.035242
0.155327
0.280919
0.396685
0.487182
0.541912
0.519759
0.360634
0.163923
-0.0266476
-0.194718
-0.383315
-0.401946
-0.591996
-0.557772
-0.492771
-0.407765
-0.312021
-0.209285
-0.10077
0.0129055
0.131116
0.2535
0.363843
0.446417
0.481585
0.423281
0.2305
0.0198045
-0.197505
-0.386744
-0.628613
-0.926231
-0.614917
-0.580682
-0.515134
-0.429636
-0.333703
-0.231138
-0.123211
-0.0106741
0.105552
0.224464
0.329075
0.403202
0.417309
0.307954
0.117302
-0.0926701
-0.296943
-0.469179
-0.53845
-0.617402
-0.639087
-0.604781
-0.538928
-0.453195
-0.357209
-0.254908
-0.147664
-0.0364408
0.0774816
0.19239
0.290887
0.354019
0.343136
0.200178
0.0167348
-0.174199
-0.337011
-0.429884
-0.453956
-0.469863
-0.664812
-0.630372
-0.564323
-0.47852
-0.382667
-0.280805
-0.174484
-0.0648803
0.0463172
0.156576
0.24849
0.29744
0.269015
0.100151
-0.0743955
-0.240246
-0.366733
-0.405797
-0.418667
-0.419992
-0.692291
-0.657632
-0.591382
-0.505604
-0.410026
-0.30883
-0.203689
-0.0960408
0.0119936
0.11703
0.201446
0.236099
0.188135
0.00778627
-0.157724
-0.306223
-0.382232
-0.399384
-0.400734
-0.400549
-0.721585
-0.686621
-0.620127
-0.534442
-0.439298
-0.338968
-0.235279
-0.129935
-0.0254808
0.0738161
0.149841
0.172968
0.0889356
-0.0765308
-0.233884
-0.356239
-0.392822
-0.39114
-0.39021
-0.3896
-0.752405
-0.717154
-0.65045
-0.564943
-0.47039
-0.371162
-0.269219
-0.166533
-0.0660708
0.0270381
0.0945348
0.100835
-0.00141238
-0.155016
-0.294351
-0.369827
-0.380226
-0.382987
-0.383712
-0.383425
-0.784196
-0.748787
-0.682091
-0.596871
-0.503112
-0.405246
-0.305351
-0.205701
-0.109596
-0.0229558
0.0359539
0.0275381
-0.0825192
-0.221581
-0.338265
-0.370116
-0.378206
-0.379579
-0.379388
-0.379123
-0.816485
-0.780957
-0.714602
-0.629823
-0.537112
-0.440893
-0.343387
-0.247145
-0.15578
-0.0755071
-0.0270032
-0.042151
-0.15689
-0.275632
-0.368803
-0.384471
-0.376932
-0.376148
-0.376125
-0.375922
-0.848366
-0.812923
-0.747075
-0.663206
-0.571832
-0.477616
-0.382864
-0.29038
-0.204148
-0.130046
-0.0913637
-0.106824
-0.22154
-0.317905
-0.371147
-0.381502
-0.377713
-0.375702
-0.374827
-0.374504
-0.878253
-0.843501
-0.778537
-0.696075
-0.606493
-0.514702
-0.423113
-0.334708
-0.253886
-0.186074
-0.150825
-0.179872
-0.273533
-0.353117
-0.363118
-0.376983
-0.378541
-0.375742
-0.374713
-0.374162
-0.904527
-0.870867
-0.807844
-0.727215
-0.640034
-0.551191
-0.463242
-0.379237
-0.303857
-0.24273
-0.207907
-0.251537
-0.320808
-0.361625
-0.393264
-0.386499
-0.3832
-0.382602
-0.382578
-0.382121
-0.925048
-0.893101
-0.832952
-0.755195
-0.671149
-0.585902
-0.502125
-0.422881
-0.352888
-0.298588
-0.267465
-0.315683
-0.366116
-0.38182
-0.407631
-0.40847
-0.411415
-0.414362
-0.414217
-0.413152
-0.937535
-0.908292
-0.851863
-0.778126
-0.698308
-0.61746
-0.538472
-0.46435
-0.399774
-0.351907
-0.32577
-0.378479
-0.434133
-0.440472
-0.42711
-0.454463
-0.468774
-0.469707
-0.465679
-0.46485
-0.939328
-0.914146
-0.862632
-0.794152
-0.719778
-0.644442
-0.570855
-0.502186
-0.443082
-0.400887
-0.375368
-0.43515
-0.547794
-0.651548
-0.594213
-0.534426
-0.498019
-0.481571
-0.475211
-0.474033
-0.92827
-0.907967
-0.863068
-0.801642
-0.73404
-0.665268
-0.597864
-0.534833
-0.481049
-0.442983
-0.416537
-0.459738
-0.550986
-0.803549
-0.697677
-0.529048
-0.450237
-0.428828
-0.423104
-0.420535
-0.902248
-0.886927
-0.851339
-0.799353
-0.740104
-0.678922
-0.618212
-0.560868
-0.511405
-0.476324
-0.435004
-0.381589
-0.284159
-0.271149
-0.287352
-0.297994
-0.318388
-0.328261
-0.330879
-0.329343
-0.863769
-0.853851
-0.828188
-0.787456
-0.737968
-0.685154
-0.631344
-0.579215
-0.53284
-0.49795
-0.455887
-0.284929
0.0212138
0.385545
0.237023
-0.0637169
-0.241387
-0.30907
-0.328186
-0.333028
-0.819539
-0.813892
-0.798509
-0.768767
-0.729635
-0.684876
-0.637633
-0.589913
-0.545611
-0.509323
-0.470957
-0.397978
-0.306171
-0.253193
-0.382001
-0.509304
-0.56627
-0.57255
-0.58142
-0.593509
-0.779468
-0.776045
-0.768615
-0.748844
-0.718129
-0.680351
-0.638404
-0.594163
-0.550158
-0.516196
-0.494435
-0.642074
-1.12075
-1.73401
-2.0011
-1.9706
-1.8214
-1.56544
-1.34126
-1.2934
-0.750696
-0.748521
-0.74477
-0.73248
-0.707997
-0.674755
-0.635758
-0.591978
-0.54645
-0.502609
-0.486336
-0.574085
-0.947493
-1.43246
-1.78724
-1.76561
-1.58989
-1.37032
-1.16555
-1.0931
-0.729412
-0.728595
-0.72739
-0.721223
-0.702094
-0.671062
-0.631701
-0.585843
-0.533374
-0.472743
-0.427577
-0.406285
-0.411233
-0.302166
-0.133371
0.0978227
0.269854
0.378948
0.442571
0.467833
-0.717521
-0.717156
-0.716513
-0.713725
-0.699868
-0.669883
-0.628151
-0.578037
-0.518273
-0.450423
-0.375886
-0.300798
-0.117523
0.285632
0.709397
1.09155
1.34494
1.45875
1.50374
1.51325
-0.710457
-0.710073
-0.709132
-0.70815
-0.700148
-0.671708
-0.626675
-0.570464
-0.504823
-0.421763
-0.322276
-0.218129
0.0444923
0.49827
0.969247
1.39947
1.66852
1.78814
1.8247
1.82913
-0.708537
-0.70837
-0.708048
-0.708537
-0.704354
-0.677303
-0.627683
-0.566532
-0.492115
-0.399912
-0.293582
-0.179334
0.0519895
0.460377
0.86411
1.21951
1.45403
1.55793
1.58743
1.59201
-0.707254
-0.708179
-0.710908
-0.714499
-0.712084
-0.68359
-0.631799
-0.566797
-0.486348
-0.390765
-0.283189
-0.177125
0.00194989
0.33282
0.636017
0.881934
1.04181
1.11872
1.15358
1.16501
-0.702475
-0.703111
-0.702509
-0.700744
-0.698085
-0.679292
-0.638081
-0.572248
-0.487308
-0.388101
-0.288917
-0.197199
-0.0608149
0.195211
0.429703
0.607163
0.725273
0.792813
0.830476
0.844482
-0.719214
-0.715628
-0.698771
-0.669732
-0.657463
-0.672262
-0.653241
-0.585322
-0.493818
-0.391595
-0.298686
-0.219299
-0.111582
0.0997162
0.29229
0.438289
0.550018
0.617217
0.650616
0.660755
-0.784381
-0.779733
-0.771221
-0.763635
-0.759196
-0.758956
-0.704059
-0.608533
-0.500269
-0.393436
-0.307007
-0.23869
-0.15561
0.016445
0.176982
0.307351
0.407289
0.467386
0.494174
0.50077
-0.907205
-0.920321
-0.957446
-0.986331
-0.979488
-0.925439
-0.78515
-0.635797
-0.503693
-0.391446
-0.306048
-0.242923
-0.178992
-0.0436721
0.0887495
0.192425
0.273747
0.322178
0.343063
0.347009
-0.991614
-1.01483
-1.05387
-1.08026
-1.06913
-0.992999
-0.813164
-0.63476
-0.491761
-0.379044
-0.296998
-0.236354
-0.176935
-0.0787199
0.0222349
0.100889
0.161536
0.196491
0.210585
0.21267
-0.892766
-0.916015
-0.951434
-0.980055
-0.971192
-0.884363
-0.723774
-0.573499
-0.449701
-0.351358
-0.27743
-0.220299
-0.165352
-0.101537
-0.0287823
0.0304433
0.0767148
0.103015
0.114247
0.114042
-0.600103
-0.61728
-0.646992
-0.676303
-0.67969
-0.630077
-0.543252
-0.455028
-0.377472
-0.308353
-0.251094
-0.205145
-0.165804
-0.122066
-0.0698217
-0.0249597
0.00990093
0.0294104
0.0358627
0.0353325
-0.265387
-0.273914
-0.292346
-0.31928
-0.343898
-0.350172
-0.34283
-0.322436
-0.29395
-0.258248
-0.221897
-0.19026
-0.169247
-0.143295
-0.105921
-0.0733412
-0.0489849
-0.0364303
-0.0325996
-0.0342817
-0.0391413
-0.0429106
-0.0553091
-0.0808844
-0.118689
-0.160304
-0.193002
-0.213181
-0.218641
-0.210415
-0.193605
-0.176352
-0.164697
-0.155112
-0.134395
-0.115789
-0.103255
-0.0991898
-0.0987922
-0.100382
0.0564935
0.0543463
0.0451429
0.0227319
-0.0149619
-0.0611179
-0.10495
-0.140228
-0.162987
-0.172084
-0.168911
-0.161373
-0.157935
-0.156819
-0.154233
-0.151768
-0.152052
-0.154685
-0.156768
-0.157571
0.0740379
0.0724728
0.0656248
0.0485411
0.018988
-0.0191696
-0.0597927
-0.0970152
-0.126409
-0.145174
-0.151103
-0.147396
-0.144361
-0.152577
-0.163313
-0.173008
-0.182805
-0.190445
-0.19335
-0.193782
0.0601503
0.0590089
0.0541916
0.04218
0.0210051
-0.00767981
-0.0408648
-0.0743256
-0.105021
-0.12999
-0.144033
-0.145676
-0.144518
-0.160071
-0.176674
-0.189841
-0.200262
-0.206516
-0.208422
-0.208835
0.0384676
0.0376673
0.034369
0.0261506
0.0113467
-0.00964427
-0.035716
-0.0644928
-0.0942946
-0.124126
-0.149681
-0.167571
-0.176614
-0.189428
-0.198084
-0.204376
-0.209408
-0.212044
-0.212961
-0.213528
0.0183612
0.017806
0.0155682
0.00996812
-0.000361601
-0.0156656
-0.0358744
-0.0601898
-0.0885475
-0.122722
-0.163593
-0.209919
-0.237822
-0.235462
-0.225627
-0.219911
-0.217901
-0.217822
-0.217973
-0.218435
0.002979
0.00257511
0.00105947
-0.00276452
-0.00999935
-0.0212005
-0.0368161
-0.0570595
-0.0831515
-0.11892
-0.17005
-0.237049
-0.276597
-0.257655
-0.236038
-0.225651
-0.222307
-0.222164
-0.222074
-0.22205
-0.00701961
-0.00731724
-0.00835387
-0.0109516
-0.0159944
-0.0241014
-0.0359207
-0.052072
-0.0740247
-0.107041
-0.156439
-0.22096
-0.248382
-0.228286
-0.211469
-0.207631
-0.20966
-0.211698
-0.211811
-0.211457
-0.0121648
-0.0123625
-0.0130608
-0.0147456
-0.018129
-0.023816
-0.0324143
-0.0446171
-0.0616943
-0.0864194
-0.12199
-0.163352
-0.174398
-0.164335
-0.16162
-0.168046
-0.176006
-0.179772
-0.180064
-0.17962
-0.0132638
-0.0133858
-0.0138218
-0.0148652
-0.016975
-0.0206946
-0.0264992
-0.0348137
-0.0460814
-0.0609363
-0.0769738
-0.0894843
-0.0871096
-0.0868288
-0.0995759
-0.114025
-0.124393
-0.128748
-0.12943
-0.129344
-0.0112791
-0.0113435
-0.0115813
-0.0121084
-0.0132897
-0.0154616
-0.0189488
-0.0238893
-0.0301249
-0.0360561
-0.0353155
-0.0222129
-0.000912177
-0.0190058
-0.0430723
-0.0619441
-0.072371
-0.0750493
-0.0761115
-0.0763063
-0.00715368
-0.00717376
-0.00725597
-0.00745738
-0.0079524
-0.00896097
-0.0106303
-0.0129479
-0.0155544
-0.0163095
-0.00848543
0.0129714
0.0361801
0.0172013
-0.00682993
-0.0232066
-0.029489
-0.031
-0.0314826
-0.0319044
-0.00166425
-0.00163969
-0.0016592
-0.00161345
-0.00154431
-0.00155368
-0.0017641
-0.00224843
-0.00267571
-0.00293863
-0.00163569
0.00371895
0.0119011
0.00649404
0.0026833
0.00140175
0.001268
0.000480854
-0.00272679
-0.00348725
-0.155404
0.0111556
0.205533
0.375195
0.510657
0.617209
0.70525
0.780229
0.814444
0.791179
0.146384
0.266813
0.396363
0.508279
0.602543
0.680494
0.743606
0.788432
0.81087
0.822991
0.364616
0.447213
0.535761
0.613919
0.681119
0.737338
0.782061
0.814751
0.838407
0.856422
0.525019
0.584155
0.645581
0.702535
0.752053
0.794114
0.828677
0.856266
0.879018
0.897338
0.65018
0.693183
0.73905
0.782752
0.821371
0.855113
0.884006
0.908068
0.928429
0.946276
0.754328
0.787141
0.82519
0.860672
0.893251
0.922465
0.948002
0.969476
0.987313
1.00467
0.84677
0.875428
0.909357
0.941457
0.971378
0.99853
1.02226
1.04197
1.05747
1.07455
0.935295
0.964477
0.998461
1.03048
1.06007
1.08665
1.1095
1.12798
1.14135
1.15838
1.03057
1.06377
1.1004
1.13396
1.164
1.19018
1.21212
1.2294
1.24126
1.25866
1.14555
1.18337
1.222
1.25624
1.28558
1.31032
1.33069
1.34658
1.35804
1.37611
1.29047
1.32901
1.36515
1.39583
1.4215
1.4436
1.46265
1.47818
1.4906
1.5086
1.46554
1.49716
1.52334
1.54578
1.56576
1.58448
1.60219
1.61867
1.63402
1.65208
1.65415
1.67135
1.68639
1.70261
1.71852
1.73305
1.74625
1.76018
1.77772
1.79787
1.83587
1.8454
1.85694
1.86775
1.87704
1.88662
1.8974
1.90877
1.92013
1.93548
2.0431
2.04676
2.03182
2.01701
2.01073
2.0164
2.03488
2.06519
2.09737
2.12403
2.34942
2.21456
2.13792
2.09553
2.07811
2.08208
2.10947
2.16589
2.26851
2.49287
0.656191
0.654062
0.649579
0.640955
0.628732
0.616604
0.606378
0.598487
0.592875
0.58963
0.589285
0.592033
0.597144
0.604372
0.613763
0.625304
0.637956
0.648991
0.655104
0.658158
0.580641
0.586488
0.592822
0.597315
0.599786
0.599463
0.596728
0.592922
0.589419
0.587168
0.587031
0.589239
0.592909
0.597202
0.601012
0.602897
0.601962
0.598481
0.593318
0.586698
0.572212
0.574508
0.577912
0.580909
0.582985
0.584482
0.58524
0.584928
0.583909
0.583036
0.583222
0.58466
0.586482
0.587792
0.587975
0.587087
0.585539
0.583203
0.579941
0.57702
0.566695
0.567781
0.569614
0.571993
0.574017
0.575446
0.576469
0.577226
0.577635
0.577868
0.578371
0.579189
0.579794
0.579865
0.579455
0.578608
0.57714
0.575057
0.572971
0.571589
0.561484
0.562146
0.563254
0.564959
0.566742
0.568375
0.569673
0.570694
0.571585
0.572387
0.573129
0.573693
0.573893
0.573732
0.573167
0.572115
0.570688
0.569145
0.567828
0.567048
0.556498
0.556958
0.557744
0.559042
0.560529
0.562048
0.563515
0.564818
0.565962
0.567031
0.567961
0.568542
0.568695
0.568426
0.567732
0.566744
0.56562
0.564489
0.563574
0.563057
0.551656
0.552
0.552611
0.553679
0.554973
0.556348
0.557789
0.55924
0.560622
0.561916
0.563043
0.563748
0.563934
0.563664
0.563068
0.562294
0.561445
0.560579
0.559908
0.55953
0.546905
0.547173
0.547666
0.548574
0.549743
0.55104
0.552437
0.55393
0.555479
0.557014
0.55838
0.559265
0.559576
0.559462
0.559073
0.558516
0.55787
0.557232
0.556742
0.556453
0.542163
0.542376
0.542785
0.543583
0.544672
0.54592
0.547307
0.548847
0.550528
0.552298
0.553951
0.555095
0.555644
0.55577
0.555609
0.555271
0.554831
0.554385
0.554034
0.553808
0.537342
0.537513
0.537864
0.538589
0.539631
0.540857
0.542272
0.543894
0.545731
0.547755
0.549748
0.551247
0.552117
0.552527
0.552616
0.552506
0.552277
0.552003
0.551767
0.551587
0.532354
0.532493
0.532802
0.533482
0.534507
0.535757
0.537237
0.538985
0.54103
0.543363
0.545774
0.547714
0.548968
0.549708
0.550082
0.550214
0.550193
0.550084
0.549947
0.549803
0.527111
0.527222
0.527504
0.528164
0.529206
0.530525
0.532115
0.534042
0.536363
0.539088
0.542012
0.544483
0.546191
0.547312
0.548008
0.548403
0.548595
0.548656
0.548604
0.548487
0.521516
0.521604
0.52187
0.522535
0.523631
0.525061
0.526815
0.528989
0.531663
0.534884
0.538441
0.541548
0.543793
0.545356
0.546411
0.547116
0.547549
0.547765
0.547788
0.547692
0.515463
0.51553
0.515789
0.516481
0.517669
0.519257
0.52124
0.523739
0.526866
0.530707
0.535035
0.538908
0.541789
0.543871
0.545342
0.546389
0.547085
0.547471
0.547567
0.547488
0.508823
0.50887
0.509131
0.509873
0.511193
0.512995
0.515279
0.518196
0.521896
0.526503
0.53177
0.536564
0.540204
0.542899
0.544854
0.546284
0.547287
0.547856
0.548023
0.547957
0.501443
0.501472
0.501738
0.502554
0.504051
0.506131
0.508802
0.512249
0.516666
0.522217
0.528626
0.534527
0.539066
0.542483
0.545016
0.546901
0.54825
0.549016
0.549252
0.549198
0.49313
0.493147
0.493414
0.494327
0.496057
0.498482
0.501651
0.505772
0.511083
0.517796
0.52559
0.532815
0.538422
0.542686
0.545899
0.548334
0.550075
0.551054
0.551362
0.551316
0.483576
0.483562
0.483891
0.484944
0.486959
0.489839
0.493642
0.498612
0.505043
0.513189
0.52266
0.531458
0.538324
0.543588
0.547598
0.550674
0.552865
0.554084
0.554464
0.554422
0.472496
0.472457
0.472831
0.474078
0.476465
0.479932
0.484543
0.490589
0.498423
0.508335
0.51983
0.530494
0.538834
0.545269
0.550214
0.554026
0.55674
0.558213
0.558664
0.558622
0.459409
0.459344
0.459795
0.461295
0.464166
0.468401
0.474058
0.481487
0.491092
0.503183
0.51711
0.52997
0.540019
0.547805
0.553845
0.558501
0.561798
0.563539
0.564054
0.564008
0.44367
0.443576
0.444152
0.446003
0.449525
0.454784
0.461831
0.471065
0.48293
0.497711
0.514542
0.529955
0.541962
0.551282
0.558568
0.564183
0.568117
0.570125
0.570691
0.570635
0.424345
0.424224
0.425001
0.427367
0.431805
0.438487
0.447432
0.459075
0.473851
0.491958
0.512222
0.530548
0.544754
0.555787
0.564441
0.571126
0.575728
0.577982
0.578577
0.578503
0.400022
0.399884
0.400993
0.404158
0.409981
0.418748
0.430383
0.445301
0.463832
0.486004
0.510265
0.53186
0.548475
0.561383
0.571505
0.579346
0.584593
0.587037
0.587627
0.587527
0.368406
0.368289
0.370008
0.374552
0.382672
0.394679
0.410259
0.429673
0.453013
0.480073
0.508888
0.534048
0.553221
0.568105
0.579787
0.588786
0.594574
0.597108
0.597648
0.597515
0.325353
0.325397
0.328455
0.335875
0.34825
0.365543
0.386961
0.41243
0.441759
0.474523
0.508366
0.53729
0.559091
0.575981
0.589213
0.599291
0.605413
0.607876
0.608314
0.608146
0.263122
0.264317
0.271792
0.285626
0.30577
0.331468
0.361104
0.394287
0.430708
0.469834
0.50899
0.541738
0.566136
0.584957
0.599617
0.610505
0.616688
0.618841
0.619111
0.61892
0.189304
0.19105
0.205356
0.229107
0.260147
0.295773
0.33438
0.375786
0.419804
0.465944
0.511269
0.548755
0.576526
0.597805
0.614226
0.625947
0.63205
0.633973
0.634206
0.634109
0.113122
0.119276
0.140404
0.174362
0.215781
0.26104
0.308582
0.358274
0.409993
0.463282
0.514957
0.557338
0.588581
0.612466
0.630797
0.643164
0.648806
0.650278
0.650443
0.650415
0.0508043
0.0592545
0.0849421
0.125897
0.175445
0.22893
0.284532
0.341973
0.401031
0.461191
0.518961
0.56597
0.60044
0.626611
0.646287
0.659056
0.664633
0.665935
0.666142
0.666169
0.000115243
0.00916105
0.0383888
0.0845701
0.140258
0.200371
0.262789
0.327079
0.392851
0.459462
0.523014
0.574412
0.611892
0.640188
0.661301
0.674596
0.680079
0.681653
0.681945
0.682016
-0.0423209
-0.0329926
-0.00131833
0.0488554
0.109584
0.175202
0.243407
0.313693
0.385504
0.458058
0.527042
0.582612
0.622976
0.653348
0.675832
0.689871
0.695809
0.697645
0.697961
0.698044
-0.0788605
-0.0694195
-0.0359042
0.0174706
0.0823685
0.152682
0.225928
0.30152
0.378796
0.456848
0.530951
0.590496
0.633637
0.666008
0.689856
0.704831
0.71129
0.713289
0.713644
0.713724
-0.111169
-0.10169
-0.0667606
-0.0106822
0.057707
0.132066
0.209774
0.290147
0.372441
0.455619
0.534568
0.597905
0.643694
0.677955
0.703119
0.71891
0.725951
0.728129
0.728505
0.728562
-0.140524
-0.131002
-0.0949122
-0.0364989
0.0348834
0.112788
0.194464
0.279174
0.366095
0.454096
0.537673
0.604653
0.652969
0.688991
0.715372
0.731894
0.739476
0.741811
0.742201
0.742242
-0.167797
-0.158225
-0.121112
-0.0606944
0.0133584
0.0943997
0.179623
0.268276
0.359493
0.452064
0.540111
0.610631
0.661364
0.699042
0.726468
0.743603
0.751596
0.754067
0.754467
0.754485
-0.193552
-0.183918
-0.145843
-0.0837332
-0.00727305
0.0765629
0.16498
0.257235
0.352445
0.449361
0.541763
0.615786
0.668889
0.708134
0.736489
0.754096
0.762296
0.764885
0.765284
0.765275
-0.21829
-0.208495
-0.169569
-0.105878
-0.0272815
0.0590465
0.15035
0.245891
0.344817
0.445871
0.542549
0.620101
0.67559
0.716349
0.745558
0.763498
0.771771
0.774348
0.774749
0.774718
-0.242254
-0.232239
-0.192564
-0.127339
-0.0468478
0.0417028
0.135607
0.234149
0.336519
0.441516
0.542418
0.623568
0.681532
0.723826
0.753768
0.771903
0.780162
0.782698
0.783069
0.783009
-0.265554
-0.25533
-0.214865
-0.148268
-0.0660893
0.0244589
0.120692
0.221955
0.327504
0.436235
0.541311
0.626186
0.686783
0.730705
0.761347
0.779563
0.787692
0.790126
0.790447
0.790365
-0.288353
-0.277829
-0.236613
-0.168741
-0.0850515
0.00727348
0.105586
0.209301
0.317762
0.430003
0.539174
0.627931
0.691411
0.737134
0.768469
0.786622
0.794508
0.796763
0.797005
0.796895
-0.310612
-0.299814
-0.257868
-0.188799
-0.103744
-0.00984419
0.0903159
0.196216
0.307308
0.422806
0.535962
0.628753
0.695445
0.743241
0.775317
0.793242
0.800674
0.802651
0.802784
0.802645
-0.332393
-0.32129
-0.278566
-0.208426
-0.122151
-0.0268654
0.0749194
0.182755
0.296193
0.414663
0.531633
0.628583
0.698863
0.749132
0.782122
0.79964
0.806319
0.807845
0.807846
0.80769
-0.353526
-0.342188
-0.298704
-0.227588
-0.140229
-0.0437221
0.0594593
0.168984
0.284485
0.405626
0.526164
0.627336
0.701584
0.754855
0.789156
0.806218
0.811753
0.812485
0.812257
0.812098
-0.37415
-0.362468
-0.318269
-0.246264
-0.157947
-0.0603773
0.044025
0.154983
0.272269
0.395771
0.51956
0.624908
0.70346
0.76034
0.79663
0.813565
0.817639
0.816909
0.816099
0.815934
-0.394104
-0.382108
-0.337235
-0.264412
-0.17523
-0.0767486
0.0286958
0.14087
0.259652
0.38516
0.511862
0.621192
0.70429
0.765359
0.804495
0.822318
0.825302
0.822343
0.819869
0.81894
-0.413448
-0.40115
-0.355547
-0.281982
-0.192042
-0.0927676
0.0135542
0.126723
0.246745
0.373929
0.503134
0.616084
0.703838
0.769512
0.812228
0.832549
0.836339
0.831848
0.825362
0.81699
-0.4321
-0.419553
-0.373298
-0.299128
-0.20859
-0.108703
-0.00172797
0.112151
0.23311
0.361587
0.492856
0.60904
0.701621
0.772448
0.819166
0.843551
0.850897
0.846696
0.836301
0.831008
-0.450013
-0.43724
-0.390475
-0.315823
-0.224879
-0.12455
-0.0171384
0.0971352
0.218698
0.348013
0.480828
0.599666
0.69685