/*--------------------------------*- C++ -*----------------------------------*\
  =========                 |
  \\      /  F ield         | OpenFOAM: The Open Source CFD Toolbox
   \\    /   O peration     | Website:  https://openfoam.org
    \\  /    A nd           | Version:  7
     \\/     M anipulation  |
\*---------------------------------------------------------------------------*/
FoamFile
{
    version     2.0;
    format      ascii;
    class       volScalarField;
    location    "27";
    object      p;
}
// * * * * * * * * * * * * * * * * * * * * * * * * * * * * * * * * * * * * * //

dimensions      [0 2 -2 0 0 0 0];

internalField   nonuniform List<scalar> 
8800
(
0.612598
0.56481
0.526116
0.497115
0.476241
0.461392
0.450768
0.443249
0.438373
0.436228
0.437379
0.441459
0.448011
0.457254
0.469981
0.487679
0.512431
0.546353
0.588887
0.647587
0.443859
0.451537
0.459002
0.462308
0.460797
0.455708
0.449204
0.443099
0.438326
0.435403
0.435013
0.437394
0.441776
0.447635
0.454337
0.460568
0.464175
0.463419
0.457974
0.44927
0.42228
0.428441
0.432567
0.435506
0.437547
0.438136
0.437004
0.434858
0.432777
0.431766
0.432597
0.434852
0.437544
0.439638
0.440178
0.438926
0.436543
0.433118
0.428545
0.42478
0.416508
0.419159
0.421911
0.424313
0.425942
0.427089
0.427804
0.427878
0.427509
0.427342
0.427949
0.428978
0.429691
0.42965
0.428955
0.427795
0.425925
0.423311
0.420883
0.419378
0.411181
0.412607
0.414393
0.416431
0.418216
0.419547
0.420509
0.421255
0.421787
0.422223
0.422701
0.423025
0.422974
0.422559
0.421752
0.420411
0.418638
0.416727
0.415387
0.414557
0.406176
0.407097
0.408354
0.409938
0.411584
0.413112
0.414381
0.4154
0.416271
0.417012
0.417497
0.417616
0.417385
0.416775
0.415743
0.414412
0.412976
0.411631
0.410769
0.410222
0.401376
0.402044
0.403029
0.404365
0.405803
0.407278
0.408717
0.410004
0.411107
0.412037
0.412611
0.412717
0.412381
0.411641
0.410633
0.409509
0.408346
0.407309
0.406679
0.406282
0.396741
0.397253
0.398072
0.39926
0.400589
0.401997
0.403456
0.404905
0.406238
0.407366
0.408075
0.408215
0.407859
0.407172
0.406305
0.405343
0.404364
0.403529
0.403042
0.402739
0.39223
0.392629
0.393327
0.394409
0.395681
0.397048
0.398498
0.400006
0.401504
0.402861
0.403742
0.403993
0.403771
0.403246
0.402539
0.401725
0.400894
0.400217
0.399838
0.399602
0.38779
0.388103
0.38872
0.389751
0.391001
0.392363
0.393838
0.395413
0.397053
0.398639
0.399759
0.400225
0.400208
0.399867
0.399317
0.398642
0.397924
0.397359
0.397063
0.396878
0.383398
0.383643
0.384199
0.385198
0.386443
0.387842
0.389402
0.391095
0.392888
0.394705
0.396152
0.396942
0.397175
0.397012
0.396606
0.396066
0.395464
0.395002
0.394774
0.39463
0.379011
0.379198
0.379712
0.380711
0.381985
0.383438
0.385082
0.386954
0.389039
0.391221
0.393041
0.394128
0.394608
0.394675
0.394464
0.394057
0.393563
0.393185
0.393016
0.392907
0.37461
0.374737
0.375207
0.376194
0.37749
0.37899
0.380713
0.382707
0.385008
0.387585
0.389897
0.391479
0.39239
0.392805
0.392841
0.392643
0.39229
0.392018
0.391913
0.391837
0.370244
0.370321
0.370752
0.371721
0.373055
0.374646
0.376541
0.378828
0.38154
0.384648
0.387555
0.389651
0.390953
0.391679
0.39202
0.392026
0.391862
0.39172
0.391676
0.391625
0.365764
0.365817
0.36619
0.36708
0.368375
0.370004
0.372038
0.374582
0.377736
0.381498
0.385155
0.38792
0.389829
0.391051
0.39176
0.392146
0.392292
0.392339
0.392355
0.39231
0.360724
0.36077
0.361124
0.361977
0.363304
0.365063
0.367359
0.370328
0.374083
0.378669
0.383246
0.386824
0.389346
0.391092
0.392306
0.393064
0.393497
0.39372
0.393784
0.393737
0.354829
0.35487
0.355232
0.356122
0.357576
0.359571
0.362233
0.365752
0.370306
0.375945
0.381645
0.386187
0.3895
0.391865
0.393532
0.394668
0.395403
0.395784
0.395885
0.395829
0.347756
0.347798
0.34823
0.349224
0.350895
0.353239
0.356416
0.360676
0.366235
0.373188
0.380289
0.386001
0.390216
0.393274
0.395479
0.397032
0.398061
0.398584
0.398711
0.398646
0.33916
0.339208
0.339732
0.340952
0.342976
0.34584
0.349758
0.355043
0.361948
0.370568
0.379364
0.386456
0.391701
0.395531
0.398318
0.400306
0.401613
0.402244
0.402404
0.402329
0.328671
0.328723
0.329387
0.330921
0.333455
0.337044
0.341972
0.348597
0.357221
0.36793
0.378794
0.387503
0.393973
0.398729
0.402185
0.404667
0.406265
0.407023
0.407219
0.407134
0.315803
0.315855
0.316692
0.318673
0.321948
0.326563
0.332863
0.341272
0.352102
0.365392
0.378743
0.389414
0.397319
0.403083
0.407387
0.410386
0.4123
0.4132
0.41344
0.41334
0.299928
0.299979
0.301051
0.303649
0.307958
0.313989
0.322153
0.332904
0.346526
0.36298
0.3793
0.392255
0.401841
0.408881
0.414048
0.417672
0.419953
0.421046
0.421336
0.421218
0.280069
0.28014
0.281578
0.285038
0.290788
0.29881
0.30951
0.32335
0.340517
0.360813
0.380615
0.396213
0.407749
0.416233
0.422426
0.426775
0.429499
0.430813
0.43115
0.431005
0.25451
0.254632
0.25669
0.26156
0.269474
0.280364
0.294627
0.312568
0.334181
0.359065
0.382873
0.401447
0.415163
0.425274
0.432663
0.437864
0.441142
0.442705
0.44308
0.442899
0.220269
0.220544
0.223889
0.231353
0.242871
0.258124
0.277391
0.300696
0.32777
0.357999
0.38629
0.40812
0.424209
0.436105
0.444854
0.451067
0.454996
0.456825
0.45722
0.456992
0.171567
0.172767
0.179525
0.19234
0.210098
0.232009
0.258128
0.288195
0.321723
0.357941
0.39106
0.416318
0.434894
0.44869
0.458946
0.466346
0.471036
0.473151
0.473542
0.473251
0.0992083
0.107041
0.122653
0.14535
0.172511
0.203331
0.237833
0.275702
0.316429
0.359247
0.397681
0.426781
0.448223
0.4643
0.476481
0.485488
0.491338
0.494068
0.494635
0.494434
0.0215536
0.0395194
0.064751
0.0977658
0.134595
0.174513
0.217522
0.263435
0.311836
0.362084
0.406964
0.441041
0.466353
0.48557
0.500437
0.511835
0.519265
0.522839
0.523903
0.523895
-0.0421303
-0.0212684
0.0117918
0.0532996
0.0986965
0.147095
0.198275
0.252009
0.307869
0.365216
0.416114
0.45469
0.483413
0.505341
0.522327
0.535216
0.544119
0.548569
0.549365
0.549465
-0.094045
-0.0713404
-0.0331403
0.014399
0.0665165
0.12198
0.180321
0.241146
0.303913
0.367884
0.424269
0.466781
0.498318
0.522295
0.540856
0.554967
0.564945
0.569631
0.570587
0.570786
-0.137089
-0.113357
-0.071601
-0.0192959
0.0381785
0.0994253
0.163853
0.230915
0.299887
0.369862
0.431175
0.477073
0.51089
0.536482
0.5562
0.571186
0.581642
0.586803
0.58811
0.588338
-0.173891
-0.149551
-0.105107
-0.049074
0.0128741
0.0790227
0.148701
0.221241
0.295776
0.371176
0.436903
0.48575
0.52145
0.548253
0.568752
0.584292
0.594912
0.600436
0.601963
0.602199
-0.206372
-0.18164
-0.135111
-0.0759643
-0.0102663
0.0601244
0.134434
0.21188
0.291462
0.371851
0.441634
0.493131
0.530434
0.558157
0.579132
0.594899
0.605642
0.61129
0.612916
0.613098
-0.235958
-0.210873
-0.162638
-0.100817
-0.0318885
0.0422121
0.120643
0.202536
0.286777
0.371854
0.445498
0.499499
0.538281
0.566792
0.588129
0.603995
0.614771
0.620461
0.622195
0.622355
-0.263515
-0.23811
-0.188372
-0.124289
-0.0525079
0.0248806
0.107009
0.192967
0.28156
0.371113
0.448543
0.505055
0.545305
0.574625
0.596354
0.612363
0.623151
0.628802
0.630619
0.630789
-0.289758
-0.263974
-0.212861
-0.146791
-0.0724764
0.00784206
0.0933094
0.182997
0.275668
0.369548
0.450766
0.509878
0.551737
0.581986
0.604188
0.620384
0.631212
0.636763
0.638558
0.638752
-0.314972
-0.288781
-0.236569
-0.168612
-0.0920271
-0.00908512
0.0793982
0.17251
0.269011
0.367094
0.45217
0.514086
0.557764
0.589097
0.611902
0.628386
0.639291
0.644783
0.646454
0.646586
-0.339505
-0.312776
-0.259581
-0.189929
-0.11133
-0.0260318
0.0651866
0.161437
0.261527
0.363704
0.452759
0.51771
0.563426
0.596057
0.619629
0.636511
0.647533
0.652966
0.654476
0.654523
-0.363422
-0.336297
-0.282024
-0.210861
-0.130459
-0.0430454
0.0506362
0.149753
0.253195
0.359345
0.452444
0.520665
0.568733
0.6029
0.627405
0.64478
0.655926
0.661262
0.662638
0.662569
-0.386809
-0.359165
-0.304
-0.231456
-0.149429
-0.0601307
0.0357515
0.137461
0.244
0.353935
0.451105
0.522875
0.573631
0.60962
0.635234
0.653175
0.664424
0.669595
0.670795
0.670629
-0.409754
-0.381548
-0.325491
-0.251709
-0.168244
-0.0772668
0.0205712
0.124596
0.233942
0.347431
0.448667
0.524218
0.578026
0.616186
0.64312
0.661677
0.672976
0.677874
0.678857
0.678616
-0.432254
-0.403431
-0.346504
-0.271595
-0.186847
-0.0944019
0.00515471
0.11121
0.223065
0.339837
0.44504
0.524528
0.581768
0.622545
0.651096
0.670295
0.68148
0.685978
0.686706
0.686399
-0.454134
-0.424739
-0.366992
-0.291073
-0.205189
-0.111459
-0.0104262
0.0973975
0.211451
0.331184
0.440138
0.523643
0.58465
0.628588
0.659239
0.679168
0.689941
0.693758
0.694164
0.693808
-0.475362
-0.445423
-0.386917
-0.310084
-0.223205
-0.128372
-0.0260688
0.0832492
0.19919
0.321506
0.433919
0.521391
0.586419
0.634105
0.667623
0.688666
0.698635
0.701154
0.701053
0.700691
-0.495997
-0.465443
-0.40624
-0.328585
-0.240829
-0.14505
-0.0416799
0.0688756
0.186382
0.310891
0.426366
0.517633
0.586767
0.638706
0.676142
0.699383
0.708541
0.708674
0.707298
0.707066
-0.515868
-0.484776
-0.424903
-0.346506
-0.257996
-0.161411
-0.0571632
0.0543911
0.173156
0.299457
0.417506
0.512254
0.585386
0.641776
0.684215
0.711627
0.721622
0.718966
0.714395
0.713184
-0.535058
-0.503413
-0.442926
-0.363874
-0.274738
-0.177502
-0.0725772
0.0397349
0.159445
0.287134
0.407219
0.505003
0.581957
0.642511
0.690557
0.724512
0.739255
0.738051
0.72752
0.709429
-0.553501
-0.521353
-0.460431
-0.38088
-0.291348
-0.193656
-0.0883393
0.0244176
0.144693
0.273253
0.39481
0.495007
0.575772
0.639683
0.69235
0.733668
0.753985
0.746459
0.732132
0.712034
-0.57103
-0.538737
-0.477238
-0.397276
-0.307532
-0.209527
-0.104221
0.0087731
0.129229
0.258122
0.380462
0.481988
0.566356
0.632497
0.684395
0.726546
0.748559
0.73296
0.661383
0.626593
-0.587008
-0.556697
-0.493007
-0.412478
-0.322579
-0.224633
-0.11993
-0.00697576
0.113274
0.241889
0.364186
0.465821
0.55274
0.621292
0.66322
0.695404
0.701449
0.652692
0.57952
0.533584
-0.642494
-0.572308
-0.507436
-0.427731
-0.337914
-0.240359
-0.13553
-0.0230926
0.0964886
0.224155
0.345486
0.446165
0.531921
0.607585
0.61054
0.626801
0.594442
0.529978
0.451311
0.406856
-0.60369
-0.587909
-0.528369
-0.4494
-0.360138
-0.262936
-0.15917
-0.0476806
0.0704685
0.195997
0.314265
0.411861
0.489015
0.563344
0.56301
0.456129
0.349923
0.276905
0.201529
0.238385
-0.634311
-0.605381
-0.545157
-0.466518
-0.377433
-0.280596
-0.176722
-0.066034
0.0508074
0.174164
0.289116
0.382399
0.452022
0.491433
0.446151
0.298673
0.165731
0.0715016
-0.0319437
0.0252735
-0.657874
-0.625917
-0.564627
-0.485655
-0.396589
-0.299923
-0.196267
-0.0865695
0.0286591
0.149327
0.260259
0.347854
0.407734
0.416634
0.310428
0.127563
-0.0352841
-0.161516
-0.301015
-0.260258
-0.680794
-0.647316
-0.584925
-0.505153
-0.415944
-0.31944
-0.216385
-0.107792
0.00565275
0.123327
0.229511
0.31078
0.356319
0.330807
0.168698
-0.0422951
-0.249338
-0.436811
-0.642458
-0.645267
-0.702907
-0.669163
-0.605942
-0.525477
-0.436094
-0.339807
-0.237454
-0.130064
-0.0186249
0.095739
0.196641
0.270886
0.299303
0.238903
0.0332427
-0.195283
-0.434887
-0.650895
-0.921334
-1.2571
-0.725227
-0.691599
-0.627928
-0.547008
-0.457442
-0.361322
-0.259595
-0.153421
-0.0440626
0.0668138
0.162276
0.228677
0.239771
0.128139
-0.0847363
-0.313711
-0.542793
-0.738572
-0.813929
-0.922759
-0.748561
-0.715041
-0.651182
-0.570063
-0.480438
-0.384571
-0.283555
-0.178754
-0.0717684
0.0351656
0.124774
0.181765
0.168339
0.0156022
-0.188878
-0.398429
-0.580603
-0.687148
-0.711369
-0.731608
-0.773239
-0.739806
-0.675846
-0.594698
-0.505179
-0.409716
-0.30963
-0.206486
-0.10227
0.000116062
0.0834089
0.128937
0.0924937
-0.0877927
-0.283074
-0.466865
-0.608181
-0.6563
-0.671484
-0.673909
-0.799462
-0.765985
-0.701963
-0.620868
-0.531577
-0.436718
-0.337788
-0.236607
-0.135579
-0.0383224
0.0380365
0.0702772
0.0156752
-0.184955
-0.370565
-0.535194
-0.634197
-0.647134
-0.649946
-0.650171
-0.827205
-0.793643
-0.729526
-0.648524
-0.559596
-0.465508
-0.367962
-0.269056
-0.17162
-0.0800075
-0.0114057
0.00858592
-0.0768827
-0.274653
-0.452242
-0.59032
-0.630855
-0.63839
-0.639357
-0.638638
-0.856159
-0.822406
-0.75841
-0.677533
-0.589091
-0.495957
-0.400037
-0.303706
-0.21028
-0.124742
-0.0644402
-0.0571468
-0.175826
-0.359913
-0.521788
-0.624079
-0.628545
-0.630698
-0.631937
-0.631613
-0.885745
-0.851972
-0.788271
-0.707633
-0.619812
-0.527824
-0.433758
-0.340306
-0.251247
-0.172264
-0.119899
-0.132917
-0.265031
-0.437064
-0.584559
-0.619638
-0.633677
-0.629746
-0.626834
-0.62593
-0.915542
-0.881986
-0.81852
-0.738387
-0.651347
-0.560692
-0.46872
-0.37843
-0.294025
-0.221946
-0.177268
-0.206723
-0.353233
-0.502452
-0.630452
-0.670018
-0.645586
-0.628801
-0.621716
-0.619026
-0.94464
-0.911569
-0.848564
-0.769132
-0.68309
-0.593979
-0.504321
-0.417425
-0.33792
-0.272762
-0.237286
-0.280378
-0.444458
-0.553277
-0.64272
-0.656075
-0.644491
-0.631162
-0.623748
-0.621027
-0.971768
-0.93939
-0.877555
-0.799032
-0.71421
-0.626871
-0.539725
-0.456355
-0.381953
-0.323785
-0.296957
-0.351456
-0.535684
-0.634884
-0.57552
-0.628731
-0.679299
-0.701419
-0.700758
-0.696882
-0.99555
-0.964311
-0.904215
-0.826964
-0.743686
-0.658318
-0.573838
-0.494026
-0.424685
-0.374051
-0.352495
-0.428461
-0.630542
-0.8206
-0.85431
-0.85778
-0.874954
-0.8935
-0.886825
-0.876939
-1.01426
-0.984848
-0.926903
-0.851608
-0.770252
-0.687067
-0.605269
-0.528977
-0.464261
-0.421111
-0.404549
-0.507894
-0.735001
-1.03187
-1.40292
-1.13794
-1.04637
-1.03994
-1.03993
-1.04041
-1.02619
-0.999316
-0.944275
-0.871413
-0.792374
-0.711616
-0.632457
-0.55937
-0.498574
-0.461554
-0.457257
-0.578055
-0.769682
-0.755052
-0.513602
-0.79544
-1.13389
-1.17643
-1.15664
-1.15131
-1.02932
-1.00605
-0.954744
-0.884919
-0.808541
-0.730382
-0.653696
-0.582873
-0.525254
-0.49265
-0.503215
-0.6354
-0.789559
-0.691964
-0.587375
-0.918582
-1.17327
-1.17849
-1.12976
-1.15776
-1.02254
-1.00332
-0.956754
-0.890891
-0.817513
-0.741909
-0.667175
-0.59747
-0.540598
-0.510432
-0.531262
-0.716879
-1.18823
-1.95441
-2.66899
-3.11975
-2.9156
-2.43116
-1.9938
-1.86412
-1.00427
-0.988966
-0.949192
-0.88851
-0.818521
-0.745245
-0.671562
-0.601455
-0.541342
-0.505012
-0.522182
-0.740331
-1.37424
-2.275
-2.98118
-3.32429
-3.23555
-2.93316
-2.55875
-2.34344
-0.975694
-0.964946
-0.932315
-0.878011
-0.811628
-0.740324
-0.666569
-0.59351
-0.526178
-0.471839
-0.462789
-0.537631
-0.806347
-1.06284
-1.27163
-1.22325
-0.993329
-0.728062
-0.507135
-0.391652
-0.940229
-0.93368
-0.908906
-0.861265
-0.79843
-0.728349
-0.653444
-0.575125
-0.495932
-0.418137
-0.339492
-0.221826
-0.0483652
0.319148
0.778087
1.23696
1.6021
1.8413
1.96164
2.00009
-0.902514
-0.898863
-0.882712
-0.84158
-0.781799
-0.712273
-0.635156
-0.551617
-0.459096
-0.356377
-0.229484
-0.0903103
0.24153
0.82924
1.49137
2.0861
2.52587
2.77914
2.89008
2.92191
-0.867383
-0.8652
-0.855916
-0.82275
-0.766156
-0.695728
-0.616549
-0.528512
-0.431805
-0.318221
-0.192486
-0.0503949
0.148315
0.623882
1.18859
1.6811
2.03502
2.23804
2.32914
2.35625
-0.833366
-0.832184
-0.829101
-0.805797
-0.752522
-0.680703
-0.600189
-0.512646
-0.417708
-0.308727
-0.195763
-0.0773016
0.0503621
0.344863
0.761226
1.11062
1.37129
1.52871
1.60594
1.62941
-0.811891
-0.812037
-0.811973
-0.792275
-0.737381
-0.663475
-0.583121
-0.499172
-0.409805
-0.311664
-0.214928
-0.125199
-0.0409589
0.125573
0.40254
0.649889
0.835038
0.945084
0.994112
1.00651
-0.782573
-0.785696
-0.787312
-0.767139
-0.709717
-0.635865
-0.559266
-0.482442
-0.402727
-0.318485
-0.240425
-0.17822
-0.118324
-0.0189516
0.162257
0.325679
0.44467
0.513564
0.544495
0.55179
-0.703577
-0.707593
-0.708938
-0.691611
-0.645838
-0.58585
-0.522933
-0.459163
-0.392847
-0.323567
-0.263585
-0.223919
-0.190092
-0.124375
-0.00140802
0.104445
0.179883
0.221207
0.238604
0.240692
-0.581304
-0.583228
-0.583693
-0.574745
-0.550828
-0.516568
-0.475871
-0.430165
-0.379597
-0.325147
-0.281169
-0.260539
-0.250429
-0.20692
-0.118456
-0.0428862
0.00614961
0.03212
0.0423808
0.0424746
-0.469233
-0.469632
-0.470209
-0.46905
-0.462973
-0.450091
-0.429386
-0.400462
-0.364062
-0.321885
-0.287679
-0.274829
-0.279004
-0.244996
-0.183016
-0.131585
-0.0986346
-0.0817428
-0.075337
-0.0756559
-0.398196
-0.398251
-0.399411
-0.402017
-0.40385
-0.401551
-0.392422
-0.374867
-0.348632
-0.314693
-0.283695
-0.266888
-0.262517
-0.231302
-0.187579
-0.158871
-0.142291
-0.134271
-0.131499
-0.132143
-0.363696
-0.363852
-0.365109
-0.368106
-0.371204
-0.371896
-0.367642
-0.356219
-0.335623
-0.305384
-0.272281
-0.244005
-0.220177
-0.196008
-0.17067
-0.156946
-0.148577
-0.143395
-0.141367
-0.142464
-0.351472
-0.351579
-0.352418
-0.354648
-0.356991
-0.357598
-0.354487
-0.344996
-0.326723
-0.298364
-0.262469
-0.224978
-0.183615
-0.157778
-0.153946
-0.149193
-0.142736
-0.136492
-0.133421
-0.134817
-0.353531
-0.353348
-0.353447
-0.354474
-0.355557
-0.355111
-0.351377
-0.341836
-0.323786
-0.295103
-0.259123
-0.222518
-0.181097
-0.159613
-0.156324
-0.147415
-0.136834
-0.128818
-0.125125
-0.126924
-0.368419
-0.367911
-0.367312
-0.367135
-0.366672
-0.364535
-0.359079
-0.348109
-0.328012
-0.29796
-0.264147
-0.237164
-0.213603
-0.199201
-0.188751
-0.169437
-0.148053
-0.132975
-0.127309
-0.130521
-0.396884
-0.396056
-0.394717
-0.3936
-0.391679
-0.387638
-0.380049
-0.366748
-0.343549
-0.309671
-0.275419
-0.257476
-0.254853
-0.260437
-0.236806
-0.206625
-0.185843
-0.175219
-0.171672
-0.171914
-0.438857
-0.437878
-0.436427
-0.434595
-0.431683
-0.42656
-0.417866
-0.403008
-0.376863
-0.337113
-0.294043
-0.269126
-0.282873
-0.290165
-0.259383
-0.22434
-0.200259
-0.191613
-0.189218
-0.189608
-0.495531
-0.494418
-0.492895
-0.490983
-0.488313
-0.484319
-0.477908
-0.466193
-0.44348
-0.400899
-0.337651
-0.282273
-0.277538
-0.282121
-0.251314
-0.216549
-0.190843
-0.176289
-0.176471
-0.177094
-0.56602
-0.565056
-0.564079
-0.563267
-0.563094
-0.564257
-0.567178
-0.570528
-0.569351
-0.541106
-0.450298
-0.34599
-0.308109
-0.29772
-0.255728
-0.203007
-0.164165
-0.149524
-0.149926
-0.149473
-0.646135
-0.645807
-0.646304
-0.648346
-0.65398
-0.666286
-0.689499
-0.728311
-0.781317
-0.798265
-0.671846
-0.497517
-0.410256
-0.365311
-0.283877
-0.199268
-0.129192
-0.107227
-0.114742
-0.116397
-0.725253
-0.72611
-0.729048
-0.735834
-0.750806
-0.780653
-0.836471
-0.935364
-1.083
-1.18006
-1.02119
-0.746254
-0.586972
-0.491303
-0.358939
-0.232297
-0.154426
-0.133967
-0.139382
-0.143613
-0.785798
-0.788164
-0.794043
-0.806626
-0.832777
-0.883455
-0.978848
-1.15391
-1.42499
-1.63086
-1.42969
-1.04926
-0.820215
-0.663951
-0.492858
-0.353516
-0.286975
-0.283538
-0.286439
-0.29041
-0.80703
-0.810816
-0.819165
-0.836652
-0.872315
-0.940658
-1.06748
-1.30627
-1.67949
-1.97138
-1.75904
-1.31612
-1.03649
-0.851616
-0.652638
-0.545123
-0.509804
-0.503517
-0.502598
-0.504803
-0.77344
-0.777584
-0.786668
-0.805948
-0.8452
-0.920015
-1.05946
-1.32144
-1.72741
-2.05735
-1.87345
-1.44837
-1.19979
-1.01571
-0.85803
-0.754044
-0.734927
-0.732172
-0.731596
-0.733741
-0.682249
-0.685935
-0.693987
-0.711151
-0.746476
-0.814316
-0.943285
-1.1829
-1.53817
-1.80714
-1.67579
-1.38214
-1.25242
-1.17068
-1.11718
-1.02745
-0.987168
-0.969802
-0.962158
-0.961662
-0.547877
-0.55032
-0.555837
-0.568322
-0.594845
-0.646505
-0.745244
-0.929522
-1.19643
-1.3639
-1.2823
-1.17436
-1.14738
-1.3163
-1.42411
-1.30036
-1.20266
-1.15255
-1.12825
-1.12032
-0.393892
-0.395051
-0.397783
-0.404869
-0.421059
-0.453591
-0.516765
-0.63776
-0.826351
-0.950129
-0.916668
-0.878922
-0.947029
-1.16859
-1.37192
-1.26589
-1.1628
-1.10645
-1.07826
-1.06824
-0.245246
-0.24526
-0.245866
-0.248607
-0.2561
-0.272093
-0.304165
-0.368417
-0.484838
-0.588582
-0.595636
-0.572235
-0.575502
-0.719071
-0.881353
-0.863111
-0.819976
-0.795081
-0.782453
-0.776524
-0.118606
-0.118073
-0.117902
-0.118533
-0.120702
-0.125733
-0.136401
-0.158528
-0.204213
-0.271012
-0.256066
-0.209068
-0.218329
-0.307487
-0.394794
-0.409039
-0.404964
-0.402499
-0.402169
-0.401453
-0.0193701
-0.0191705
-0.018117
-0.0169245
-0.0162525
-0.0162607
-0.0166451
-0.0174172
-0.018695
-0.01701
-0.0438966
-0.0618838
-0.0511982
-0.0428234
-0.0587638
-0.0602769
-0.0627691
-0.0656039
-0.0665441
-0.0645606
-0.391365
-0.201039
0.0203597
0.207927
0.359227
0.480203
0.581458
0.66692
0.705105
0.682364
-0.045168
0.0899951
0.233675
0.357987
0.463318
0.551108
0.622275
0.672804
0.698586
0.710302
0.198883
0.290675
0.387976
0.474338
0.548846
0.611267
0.660845
0.697032
0.722856
0.740435
0.374708
0.438661
0.506796
0.569194
0.623384
0.669328
0.706923
0.736735
0.760796
0.77884
0.509637
0.556279
0.605786
0.652976
0.694576
0.730765
0.76159
0.78707
0.808246
0.825933
0.61978
0.654804
0.695214
0.732948
0.767433
0.7982
0.824968
0.84734
0.865717
0.882996
0.715945
0.745911
0.781482
0.814947
0.846059
0.874204
0.898721
0.919009
0.934881
0.951942
0.806818
0.83682
0.871808
0.904677
0.935007
0.962217
0.985584
1.00444
1.01808
1.03512
0.903573
0.93718
0.974448
1.00857
1.03908
1.06567
1.08794
1.10546
1.11752
1.13494
1.01955
1.05743
1.0965
1.13113
1.16077
1.18576
1.20633
1.22238
1.23397
1.25207
1.16513
1.20388
1.24004
1.2709
1.29675
1.31899
1.33817
1.35379
1.3663
1.38432
1.3402
1.37214
1.39844
1.42095
1.44102
1.45983
1.47761
1.49415
1.50955
1.52763
1.529
1.54632
1.5615
1.57781
1.59377
1.60835
1.6216
1.63556
1.65314
1.6733
1.71106
1.72049
1.73206
1.74291
1.75222
1.76185
1.77268
1.78408
1.79547
1.81083
1.91819
1.92189
1.90697
1.89217
1.88594
1.89165
1.91015
1.94048
1.97267
1.99933
2.22454
2.08967
2.01307
1.97076
1.95336
1.95733
1.98475
2.04117
2.1438
2.36817
0.503196
0.501065
0.496579
0.487948
0.475717
0.463577
0.45333
0.445403
0.439732
0.436397
0.435926
0.438534
0.443527
0.450661
0.459982
0.471471
0.484085
0.495094
0.501194
0.504238
0.42766
0.433506
0.439843
0.444331
0.446793
0.446457
0.443702
0.43986
0.436296
0.433948
0.433676
0.435738
0.439281
0.443473
0.447205
0.449032
0.448053
0.444538
0.439348
0.432716
0.419267
0.421563
0.424966
0.427959
0.430029
0.431515
0.432249
0.431898
0.430812
0.429833
0.429871
0.431148
0.432832
0.434026
0.434117
0.433156
0.431551
0.429171
0.425879
0.422946
0.413795
0.414881
0.416717
0.419099
0.421124
0.422546
0.423548
0.42426
0.424596
0.424713
0.425049
0.425682
0.426122
0.426055
0.425533
0.424592
0.423047
0.4209
0.418769
0.417372
0.408652
0.409314
0.410427
0.412142
0.413932
0.415565
0.416847
0.417824
0.418631
0.419301
0.419852
0.420194
0.420198
0.419867
0.419158
0.417981
0.41645
0.414822
0.413447
0.412653
0.403751
0.404207
0.405004
0.406328
0.40784
0.409374
0.410841
0.412111
0.413174
0.414096
0.4148
0.415114
0.415018
0.414525
0.413634
0.412477
0.411207
0.409954
0.408962
0.408431
0.399043
0.399382
0.400007
0.401114
0.402452
0.403861
0.405317
0.406749
0.408054
0.409177
0.410033
0.410422
0.410295
0.40973
0.408872
0.407873
0.406827
0.405801
0.405035
0.404644
0.394475
0.394732
0.395242
0.396207
0.397441
0.398787
0.400205
0.401682
0.403159
0.404518
0.405567
0.406048
0.405955
0.405471
0.404758
0.403915
0.403017
0.402168
0.401562
0.401264
0.390005
0.390202
0.390627
0.391499
0.39268
0.393996
0.395403
0.3969
0.398457
0.399992
0.401265
0.401939
0.402036
0.401741
0.401197
0.400503
0.399734
0.399019
0.398534
0.398304
0.385591
0.385738
0.3861
0.386912
0.388067
0.389379
0.39082
0.392387
0.394064
0.395796
0.397332
0.398278
0.398614
0.398524
0.398143
0.39759
0.396952
0.396349
0.395962
0.395787
0.381208
0.381314
0.381629
0.382407
0.383567
0.384914
0.386429
0.388132
0.389996
0.391964
0.393824
0.395134
0.395757
0.395872
0.395658
0.395242
0.394721
0.394216
0.393911
0.39378
0.376805
0.376873
0.377145
0.3779
0.37907
0.380453
0.382011
0.383803
0.385871
0.388186
0.390471
0.392168
0.39313
0.393576
0.393643
0.393432
0.393056
0.392656
0.392431
0.392344
0.372426
0.372457
0.372691
0.373413
0.374589
0.376025
0.377689
0.379654
0.381958
0.384606
0.387399
0.389676
0.391133
0.391937
0.392288
0.392301
0.392104
0.39185
0.391716
0.39167
0.368046
0.368048
0.368247
0.368918
0.370067
0.371536
0.3733
0.375478
0.378151
0.381355
0.384807
0.387686
0.389655
0.390906
0.391585
0.39193
0.392016
0.391967
0.391938
0.391919
0.363339
0.363339
0.36351
0.364117
0.365209
0.366692
0.368579
0.370999
0.374062
0.377847
0.382091
0.38582
0.388487
0.390302
0.391487
0.392232
0.392687
0.392902
0.392994
0.392993
0.357905
0.357888
0.358071
0.358676
0.359811
0.361416
0.363558
0.366395
0.370075
0.374698
0.379949
0.384623
0.388046
0.390482
0.392195
0.393376
0.394129
0.394575
0.39476
0.394766
0.351457
0.351431
0.351641
0.352295
0.353541
0.35536
0.357851
0.3612
0.365618
0.371258
0.377765
0.383646
0.38804
0.391226
0.393508
0.395135
0.396257
0.396935
0.397203
0.397216
0.343669
0.343637
0.343895
0.344687
0.346138
0.348299
0.351307
0.355407
0.360854
0.367828
0.375888
0.383203
0.388695
0.392722
0.395632
0.397746
0.399229
0.400113
0.400444
0.400462
0.334164
0.334117
0.334446
0.335432
0.337229
0.339901
0.343646
0.348757
0.355542
0.364215
0.374201
0.383237
0.390039
0.395007
0.398654
0.401309
0.403182
0.404258
0.404658
0.404685
0.322534
0.32247
0.32289
0.324157
0.326442
0.329835
0.334595
0.341068
0.349607
0.360421
0.37277
0.383884
0.392205
0.398333
0.40282
0.406087
0.408364
0.409655
0.410137
0.410175
0.308212
0.308123
0.308671
0.310315
0.313298
0.317711
0.32387
0.332157
0.342963
0.356469
0.371688
0.385258
0.3954
0.402856
0.408323
0.41232
0.415034
0.416559
0.417146
0.417197
0.290449
0.290339
0.291089
0.29325
0.297173
0.303008
0.311084
0.321805
0.335543
0.352387
0.371042
0.387495
0.399753
0.40878
0.4154
0.42018
0.423431
0.425269
0.425976
0.42603
0.267896
0.267775
0.26888
0.27186
0.277122
0.285024
0.295782
0.309804
0.327329
0.348288
0.371007
0.390779
0.405441
0.416248
0.424176
0.429897
0.433779
0.435989
0.436822
0.436875
0.238304
0.238221
0.239995
0.244377
0.251849
0.262878
0.277532
0.296043
0.318428
0.344376
0.371793
0.395282
0.412604
0.425385
0.434786
0.441597
0.44625
0.448888
0.449847
0.449887
0.197559
0.197662
0.200922
0.208222
0.219747
0.23586
0.256222
0.280752
0.309185
0.340983
0.373658
0.40118
0.421347
0.436243
0.447265
0.455327
0.46089
0.463993
0.465054
0.465069
0.137913
0.139239
0.147169
0.160856
0.179935
0.204104
0.232435
0.264602
0.300183
0.338529
0.376837
0.408552
0.431642
0.448718
0.461453
0.470894
0.477487
0.481093
0.482224
0.482198
0.066478
0.0686257
0.0836731
0.107398
0.13701
0.170651
0.207748
0.248121
0.291448
0.337136
0.382147
0.419259
0.446412
0.46669
0.482001
0.493491
0.501668
0.506142
0.507368
0.507419
-0.00699978
-5.214e-05
0.0221759
0.0558303
0.0951841
0.138029
0.183827
0.232422
0.28354
0.336671
0.388536
0.431192
0.462485
0.48607
0.504199
0.518124
0.528021
0.532692
0.534453
0.534856
-0.065872
-0.057035
-0.0301216
0.010273
0.0571826
0.107804
0.161372
0.217587
0.276065
0.336237
0.39452
0.4422
0.477101
0.50339
0.523578
0.539036
0.550043
0.555915
0.558569
0.559118
-0.113764
-0.104373
-0.0739857
-0.0286988
0.023963
0.0807959
0.140864
0.203726
0.268838
0.33547
0.399599
0.451733
0.489672
0.518099
0.539867
0.556596
0.568636
0.575388
0.578407
0.579023
-0.153882
-0.144287
-0.111635
-0.0625429
-0.00522846
0.0567137
0.122263
0.190885
0.261864
0.334317
0.403723
0.459768
0.500255
0.53039
0.553332
0.570897
0.58363
0.591046
0.594275
0.594922
-0.188763
-0.179094
-0.144737
-0.0926113
-0.0314546
0.0348273
0.105128
0.17881
0.255044
0.332762
0.406975
0.466532
0.509205
0.540691
0.564446
0.582489
0.595541
0.603319
0.606663
0.607348
-0.21996
-0.210272
-0.17462
-0.119906
-0.0555468
0.01445
0.0889318
0.167141
0.248149
0.33073
0.409428
0.472264
0.516916
0.549539
0.573894
0.592189
0.605356
0.613279
0.616589
0.617338
-0.248672
-0.238943
-0.202212
-0.145309
-0.0781812
-0.00491338
0.0732676
0.15556
0.240958
0.328107
0.411099
0.477115
0.523706
0.557407
0.582309
0.60085
0.614071
0.622104
0.625419
0.626047
-0.275674
-0.265889
-0.228197
-0.169415
-0.0998222
-0.0236634
0.0578245
0.143828
0.233289
0.324766
0.41196
0.481172
0.529741
0.564607
0.590127
0.60896
0.622297
0.630304
0.633641
0.634137
-0.301454
-0.291599
-0.253016
-0.192617
-0.120792
-0.042051
0.0424061
0.131785
0.225012
0.320612
0.411954
0.484473
0.5352
0.571392
0.597658
0.616864
0.630352
0.638345
0.641639
0.642122
-0.326434
-0.316413
-0.277005
-0.215108
-0.141309
-0.0602613
0.0268749
0.119325
0.216047
0.315576
0.411055
0.487076
0.540199
0.577905
0.60508
0.624791
0.638512
0.646524
0.649698
0.650173
-0.350776
-0.34052
-0.300386
-0.237053
-0.1615
-0.0783964
0.0111557
0.1064
0.206347
0.309624
0.409238
0.488933
0.544699
0.584184
0.612464
0.632814
0.646834
0.654861
0.657901
0.65832
-0.374532
-0.364062
-0.323208
-0.25857
-0.181432
-0.0964773
-0.00476807
0.0929957
0.195905
0.302717
0.406399
0.489935
0.548665
0.590224
0.619827
0.64094
0.655291
0.663297
0.666172
0.666495
-0.397832
-0.387059
-0.345488
-0.279676
-0.201116
-0.114513
-0.0208842
0.0791351
0.184731
0.294822
0.402449
0.489988
0.552006
0.595988
0.627166
0.649162
0.66385
0.671793
0.67444
0.674633
-0.420593
-0.409543
-0.36726
-0.300362
-0.220529
-0.132468
-0.0371389
0.0648691
0.172856
0.285941
0.397355
0.488968
0.554573
0.601387
0.634475
0.657495
0.67246
0.680187
0.682539
0.68261
-0.442845
-0.4315
-0.388492
-0.320603
-0.239629
-0.150285
-0.0534739
0.0502707
0.160354
0.276123
0.391075
0.48674
0.556184
0.606283
0.641751
0.666012
0.681136
0.68841
0.690339
0.690277
-0.464414
-0.452842
-0.409134
-0.340346
-0.258353
-0.167883
-0.0698114
0.0354281
0.14732
0.26544
0.383591
0.48319
0.556629
0.610464
0.648955
0.674914
0.690071
0.696433
0.697672
0.697461
-0.485416
-0.473519
-0.429153
-0.359553
-0.276662
-0.185216
-0.0860499
0.0204349
0.133851
0.253982
0.374936
0.478221
0.555683
0.613612
0.655909
0.684471
0.699876
0.704605
0.704471
0.703999
-0.505692
-0.493496
-0.448515
-0.378167
-0.294468
-0.202193
-0.102103
0.00541471
0.120066
0.241835
0.365179
0.471771
0.553138
0.6153
0.662145
0.694741
0.711674
0.714489
0.711395
0.709628
-0.525292
-0.51282
-0.467168
-0.396134
-0.31173
-0.218743
-0.117887
-0.00954845
0.106085
0.229155
0.354426
0.463803
0.548838
0.615044
0.666759
0.704968
0.726169
0.729593
0.72265
0.712091
-0.544129
-0.531442
-0.485214
-0.413604
-0.328656
-0.235152
-0.133744
-0.0248683
0.0914373
0.215402
0.342089
0.453667
0.542155
0.612175
0.668352
0.713302
0.741875
0.749837
0.743149
0.732687
-0.562161
-0.549264
-0.502657
-0.430537
-0.345235
-0.251421
-0.14965
-0.0405553
0.0760934
0.200485
0.328026
0.44107
0.532451
0.606047
0.664327
0.713977
0.746067
0.758659
0.72414
0.66926
-0.579135
-0.565532
-0.519399
-0.44688
-0.361584