/*--------------------------------*- C++ -*----------------------------------*\
  =========                 |
  \\      /  F ield         | OpenFOAM: The Open Source CFD Toolbox
   \\    /   O peration     | Website:  https://openfoam.org
    \\  /    A nd           | Version:  7
     \\/     M anipulation  |
\*---------------------------------------------------------------------------*/
FoamFile
{
    version     2.0;
    format      ascii;
    class       volScalarField;
    location    "0.48";
    object      T;
}
// * * * * * * * * * * * * * * * * * * * * * * * * * * * * * * * * * * * * * //

dimensions      [0 0 0 1 0 0 0];

internalField   nonuniform List<scalar> 
1000
(
0
0
0
0
0
0
0
0
0
0
0
0
0
0
0
0
0
0
0
0
0
0
0
0
0
0
0
0
0
0
0
0
0
0
0
0
0
0
0
0
0
0
0
0
0
0
0
0
0
0
0
0
0
0
0
0
0
0
0
0
0
0
0
0
0
0
0
0
0
0
0
0
0
0
0
0
0
0
0
0
0
0
0
0
0
0
0
0
0
0
0
0
0
0
0
0
0
0
0
0
0
0
0
0
0
0
0
0
0
0
0
0
0
0
0
0
0
0
0
0
0
0
0
0
0
0
0
0
0
0
0
0
0
0
0
0
0
0
0
0
0
0
0
0
0
0
0
0
0
0
0
0
0
0
0
0
0
0
0
0
0
0
0
0
0
0
0
0
0
0
0
0
0
0
0
0
0
0
0
0
0
0
0
0
0
0
0
0
0
0
0
0
0
0
0
0
0
0
0
0
0
0
0
0
0
0
0
0
0
0
0
0
0
0
0
0
0
0
0
0
0
0
0
0
0
0
0
0
0
0
0
0
0
0
0
0
0
0
0
0
0
0
0
0
0
0
0
0
0
0
0
0
0
0
0
0
0
0
0
0
0
0
0
0
0
0
0
0
0
0
0
0
0
0
0
0
0
0
0
0
0
0
0
0
0
0
0
0
0
0
0
0
0
0
0
0
0
0
0
0
0
0
0
0
0
0
0
0
0
0
0
0
0
0
0
0
0
0
0
0
0
0
0
0
0
0
0
0
0
0
3.25441e-320
3.93815e-316
4.73901e-312
5.67046e-308
6.74569e-304
7.97725e-300
9.37643e-296
1.09526e-291
1.27123e-287
1.46585e-283
1.67898e-279
1.90993e-275
2.15738e-271
2.41934e-267
2.69305e-263
2.97496e-259
3.26076e-255
3.54539e-251
3.82312e-247
4.08769e-243
4.33252e-239
4.55084e-235
4.73604e-231
4.88191e-227
4.98296e-223
5.03471e-219
5.03396e-215
4.97904e-211
4.86997e-207
4.70857e-203
4.49844e-199
4.24485e-195
3.95456e-191
3.63553e-187
3.29652e-183
2.94669e-179
2.59515e-175
2.25053e-171
1.92056e-167
1.61176e-163
1.3292e-159
1.07638e-155
8.55215e-152
6.66089e-148
5.08073e-144
3.79153e-140
2.76515e-136
1.96842e-132
1.366e-128
9.22782e-125
6.05889e-121
3.86006e-117
2.38172e-113
1.42032e-109
8.16728e-106
4.51706e-102
2.39589e-98
1.21478e-94
5.86601e-91
2.68629e-87
1.1609e-83
4.7073e-80
1.77879e-76
6.21299e-73
1.98589e-69
5.73668e-66
1.47384e-62
3.29661e-59
6.2316e-56
9.52343e-53
1.09324e-49
8.13426e-47
2.44172e-44
-7.38855e-42
8.50483e-40
-6.0281e-38
3.05023e-36
-1.1853e-34
3.69446e-33
-9.50431e-32
2.05881e-30
-3.80993e-29
6.08739e-28
-8.46324e-27
1.02951e-25
-1.0997e-24
1.03333e-23
-8.54113e-23
6.19676e-22
-3.92724e-21
2.1552e-20
-1.00872e-19
3.91663e-19
-1.19048e-18
2.39724e-18
-4.90705e-19
-1.88038e-17
7.96265e-17
-1.44641e-16
-1.1071e-16
1.37221e-15
-3.07832e-15
-1.11289e-15
2.16856e-14
-3.83083e-14
-5.22227e-14
2.95731e-13
-1.61715e-13
-1.27705e-12
2.21495e-12
3.79618e-12
-1.29618e-11
-7.72512e-12
5.77293e-11
8.2941e-12
-2.24527e-10
7.8291e-13
8.06302e-10
6.94467e-11
-2.69349e-09
-1.04213e-09
8.05868e-09
7.22903e-09
-1.95491e-08
-3.42644e-08
2.79801e-08
1.17426e-07
3.7397e-08
-2.64856e-07
-3.8907e-07
1.89918e-07
1.1805e-06
1.13583e-06
-1.13572e-06
-4.28775e-06
-4.12726e-06
2.80701e-06
1.38217e-05
1.8255e-05
3.57994e-06
-3.22615e-05
-7.05867e-05
-7.38224e-05
-4.1444e-06
0.000146417
0.000328691
0.000429027
0.000293923
-0.000212207
-0.00112719
-0.00230898
-0.00337378
-0.00367265
-0.00231594
0.00175577
0.00966576
0.0224777
0.0410743
0.0660571
0.0976781
0.135812
0.179969
0.229338
0.282862
0.339323
0.39743
0.455903
0.513549
0.569317
0.622329
0.671909
0.717578
0.75905
0.796208
0.829084
0.857826
0.882671
0.903919
0.921905
0.936983
0.949506
0.959816
0.968231
0.975045
0.980519
0.984884
0.98834
0.991056
0.993178
0.994824
0.996094
0.997067
0.997808
0.99837
0.998794
0.999111
0.999348
0.999524
0.999654
0.999749
0.999819
0.99987
0.999907
0.999934
0.999953
0.999967
0.999976
0.999983
0.999988
0.999992
0.999994
0.999996
0.999997
0.999998
0.999999
0.999999
0.999999
1
1
1
1
1
1
1
1
1
1
1
1
1
1
0.999999
0.999999
1
1
1
0.999997
0.999986
0.999982
0.999996
1.00003
1.00007
1.00007
1
0.999854
0.999671
0.999571
0.999706
1.00021
1.00113
1.00231
1.00337
1.00367
1.00232
0.998244
0.990334
0.977522
0.958926
0.933943
0.902322
0.864188
0.820031
0.770662
0.717138
0.660677
0.60257
0.544097
0.486451
0.430683
0.377671
0.328091
0.282422
0.24095
0.203792
0.170916
0.142174
0.117329
0.0960812
0.0780952
0.0630172
0.050494
0.0401843
0.0317688
0.0249549
0.0194808
0.0151159
0.0116603
0.00894364
0.00682203
0.0051758
0.00390634
0.0029333
0.00219177
0.00162983
0.00120631
0.000888777
0.000651927
0.00047613
0.000346275
0.000250801
0.000180924
0.000130006
9.30622e-05
6.63686e-05
4.71597e-05
3.33914e-05
2.35607e-05
1.65679e-05
1.16119e-05
8.11199e-06
5.64901e-06
3.92163e-06
2.71418e-06
1.87291e-06
1.28863e-06
8.84094e-07
6.04856e-07
4.12681e-07
2.80807e-07
1.9057e-07
1.28997e-07
8.7097e-08
5.86604e-08
3.94118e-08
2.6416e-08
1.76638e-08
1.17842e-08
7.84382e-09
5.20941e-09
3.45222e-09
2.28283e-09
1.50637e-09
9.91939e-10
6.51855e-10
4.27509e-10
2.79821e-10
1.82798e-10
1.19188e-10
7.75666e-11
5.03865e-11
3.26709e-11
2.11461e-11
1.36625e-11
8.81204e-12
5.67386e-12
3.6471e-12
2.34043e-12
1.49945e-12
9.59107e-13
6.12509e-13
3.9055e-13
2.4864e-13
1.58053e-13
1.00319e-13
6.35804e-14
4.02371e-14
2.54276e-14
1.60461e-14
1.01116e-14
6.3632e-15
3.99886e-15
2.50965e-15
1.57294e-15
9.84563e-16
6.15477e-16
3.8426e-16
2.39603e-16
1.49216e-16
9.28126e-17
5.76595e-17
3.57777e-17
2.21738e-17
1.37265e-17
8.48745e-18
5.24201e-18
3.23391e-18
1.99285e-18
1.22671e-18
7.54285e-19
4.63299e-19
2.84266e-19
1.74234e-19
1.06681e-19
6.5252e-20
3.98712e-20
2.43382e-20
1.48417e-20
9.04178e-21
5.50301e-21
3.34602e-21
2.03256e-21
1.23353e-21
7.47908e-22
4.53052e-22
2.7419e-22
1.65792e-22
1.00158e-22
6.04538e-23
3.64571e-23
2.19666e-23
1.32243e-23
7.9545e-24
4.78066e-24
2.87079e-24
1.72249e-24
1.03266e-24
6.18597e-25
3.70263e-25
2.21447e-25
1.32339e-25
7.90253e-26
4.71532e-26
2.81142e-26
1.67499e-26
9.97177e-27
5.93213e-27
3.52639e-27
2.09476e-27
1.24344e-27
7.3757e-28
4.37195e-28
2.58966e-28
1.53288e-28
9.06721e-29
5.35972e-29
3.16604e-29
1.86896e-29
1.10254e-29
6.49983e-30
3.82935e-30
2.25459e-30
1.32657e-30
7.80039e-31
4.58382e-31
2.69195e-31
1.57993e-31
9.26699e-32
5.43219e-32
3.18235e-32
1.8632e-32
1.09022e-32
6.37545e-33
3.72608e-33
2.17642e-33
1.27052e-33
7.4126e-34
4.32229e-34
2.51891e-34
1.46713e-34
8.54051e-35
4.9689e-35
2.88934e-35
1.6792e-35
9.75379e-36
5.66255e-36
3.28565e-36
1.90547e-36
1.10448e-36
6.39862e-37
3.70504e-37
2.14427e-37
1.24035e-37
7.17121e-38
4.14404e-38
2.39354e-38
1.38179e-38
7.97324e-39
4.5985e-39
2.65087e-39
1.52741e-39
8.7966e-40
5.06373e-40
2.91356e-40
1.67562e-40
9.63224e-41
5.53453e-41
3.17861e-41
1.82473e-41
1.04704e-41
6.00533e-42
3.44286e-42
1.97292e-42
1.13009e-42
6.47034e-43
3.70301e-43
2.11835e-43
1.21131e-43
6.92361e-44
3.95573e-44
2.25913e-44
1.28966e-44
7.35925e-45
4.19773e-45
2.39342e-45
1.36411e-45
7.77153e-46
4.4258e-46
2.51945e-46
1.43367e-46
8.155e-47
4.63694e-47
2.63555e-47
1.49743e-47
8.50466e-48
4.8284e-48
2.74023e-48
1.55457e-48
8.816e-49
4.99774e-49
2.83216e-49
1.60437e-49
9.08518e-50
5.1429e-50
2.91023e-50
1.64624e-50
9.30905e-51
5.26219e-51
2.97356e-51
1.67972e-51
9.4852e-52
5.35437e-52
3.02151e-52
1.70448e-52
9.61202e-53
5.41867e-53
3.0537e-53
1.72035e-53
9.68871e-54
5.45473e-54
3.07001e-54
1.72729e-54
9.71524e-55
5.46264e-55
3.07054e-55
1.7254e-55
9.69235e-56
5.44294e-56
3.05565e-56
1.7149e-56
9.62151e-57
5.39653e-57
3.0259e-57
1.69615e-57
9.50481e-58
5.32468e-58
2.98205e-58
1.66959e-58
9.34493e-59
5.22897e-59
2.92504e-59
1.63577e-59
9.14506e-60
5.11126e-60
2.85593e-60
1.5953e-60
8.90878e-61
4.97361e-61
2.77591e-61
1.54888e-61
8.63998e-62
4.81824e-62
2.68625e-62
1.49723e-62
8.34279e-63
4.6475e-63
2.58828e-63
1.44108e-63
8.02144e-64
4.46377e-64
2.48335e-64
1.38122e-64
7.68024e-65
4.26948e-65
2.37282e-65
1.31839e-65
7.32344e-66
4.06701e-66
2.25802e-66
1.25335e-66
6.95518e-67
3.85868e-67
2.14024e-67
1.1868e-67
6.57947e-68
3.64668e-68
2.02069e-68
1.11944e-68
6.20004e-69
3.4331e-69
1.90054e-69
1.05188e-69
5.82039e-70
3.21987e-70
1.78084e-70
9.84713e-71
5.44372e-71
3.00873e-71
1.66254e-71
9.18466e-72
5.0729e-72
2.80125e-72
1.54651e-72
8.53601e-73
4.71045e-73
2.59881e-73
1.43348e-73
7.90524e-74
4.35857e-74
2.40259e-74
1.3241e-74
7.29578e-75
4.0191e-75
2.21358e-75
1.2189e-75
6.71045e-76
3.69355e-76
2.03257e-76
1.1183e-76
6.15151e-77
3.38311e-77
1.86021e-77
1.02263e-77
5.62067e-78
3.08866e-78
1.69694e-78
9.32125e-79
5.11914e-79
2.81082e-79
1.54306e-79
8.46935e-80
4.64762e-80
2.54993e-80
1.39875e-80
7.67131e-81
4.20645e-81
2.3061e-81
1.26403e-81
6.92718e-82
3.79553e-82
2.07925e-82
1.13884e-82
6.2364e-83
3.41449e-83
1.86913e-83
1.02299e-83
5.59788e-84
3.06265e-84
1.6753e-84
9.1624e-85
5.01012e-85
2.7391e-85
1.49724e-85
8.18272e-86
4.47123e-86
2.44275e-86
1.33431e-86
7.28713e-87
3.97907e-87
2.17236e-87
1.18579e-87
6.47152e-88
3.53128e-88
1.92657e-88
1.0509e-88
5.73148e-89
3.12534e-89
1.70395e-89
9.28832e-90
5.06603e-90
2.64362e-90
)
;

boundaryField
{
    sides
    {
        type            zeroGradient;
    }
    empty
    {
        type            empty;
    }
}


// ************************************************************************* //
