/*--------------------------------*- C++ -*----------------------------------*\
  =========                 |
  \\      /  F ield         | OpenFOAM: The Open Source CFD Toolbox
   \\    /   O peration     | Website:  https://openfoam.org
    \\  /    A nd           | Version:  7
     \\/     M anipulation  |
\*---------------------------------------------------------------------------*/
FoamFile
{
    version     2.0;
    format      ascii;
    class       volScalarField;
    location    "58";
    object      p;
}
// * * * * * * * * * * * * * * * * * * * * * * * * * * * * * * * * * * * * * //

dimensions      [0 2 -2 0 0 0 0];

internalField   nonuniform List<scalar> 
8800
(
0.798752
0.750965
0.712276
0.683282
0.66242
0.647592
0.637
0.629527
0.624717
0.622674
0.623958
0.628161
0.634816
0.644138
0.656923
0.67466
0.699439
0.733381
0.775932
0.834634
0.630001
0.637679
0.645156
0.648464
0.646962
0.641886
0.635403
0.629331
0.624616
0.621785
0.621522
0.624043
0.628543
0.634497
0.641272
0.647555
0.651198
0.650464
0.645045
0.636356
0.608403
0.614563
0.61869
0.621635
0.623686
0.624293
0.62319
0.621093
0.619087
0.618196
0.619175
0.621571
0.62438
0.626568
0.62718
0.625984
0.623644
0.620253
0.615695
0.611935
0.602593
0.605244
0.607996
0.610399
0.612035
0.613199
0.613944
0.614069
0.613785
0.613752
0.614524
0.615709
0.616559
0.616631
0.616027
0.614939
0.613125
0.610556
0.608154
0.60665
0.597213
0.598637
0.600416
0.602448
0.604233
0.605576
0.606569
0.607374
0.608002
0.608585
0.609257
0.609769
0.60988
0.609601
0.608909
0.607664
0.605971
0.604124
0.602818
0.601986
0.592136
0.593056
0.594297
0.595864
0.597497
0.599023
0.600312
0.601387
0.602366
0.60328
0.603993
0.604339
0.60431
0.603879
0.603004
0.601807
0.600483
0.599225
0.598403
0.597852
0.58723
0.587899
0.588861
0.590163
0.591572
0.593031
0.594474
0.595805
0.597019
0.59815
0.598997
0.599385
0.599315
0.598815
0.598015
0.597072
0.596062
0.595141
0.594556
0.594151
0.582447
0.582963
0.583746
0.584875
0.586152
0.587526
0.588976
0.590456
0.5919
0.593262
0.594297
0.59479
0.59478
0.594406
0.59381
0.593089
0.592319
0.591637
0.591203
0.590886
0.577716
0.578127
0.578782
0.579786
0.58099
0.582318
0.583766
0.58533
0.586968
0.588592
0.589869
0.590551
0.590732
0.590573
0.590197
0.589686
0.589119
0.588628
0.588306
0.588048
0.572952
0.573286
0.573852
0.574777
0.575932
0.577244
0.578726
0.580387
0.58221
0.58412
0.585711
0.586684
0.587137
0.587227
0.587079
0.586788
0.586413
0.586081
0.585843
0.585627
0.568066
0.568343
0.568848
0.569726
0.570862
0.572197
0.573752
0.57555
0.577599
0.57984
0.581828
0.583174
0.583955
0.58433
0.584428
0.58436
0.584175
0.583983
0.583812
0.583625
0.562971
0.563204
0.563669
0.564531
0.565688
0.56709
0.568758
0.570748
0.573087
0.575739
0.578212
0.580008
0.581171
0.581872
0.582248
0.582407
0.582412
0.582348
0.582233
0.582067
0.557576
0.557773
0.558219
0.559094
0.560314
0.561826
0.563664
0.565912
0.568621
0.571789
0.574851
0.577181
0.578792
0.579863
0.580548
0.580949
0.581162
0.581216
0.581147
0.580995
0.55178
0.55195
0.552392
0.55331
0.554633
0.556307
0.558381
0.560967
0.564147
0.567955
0.57173
0.574698
0.576834
0.578333
0.579368
0.580061
0.580476
0.580645
0.580616
0.580473
0.545468
0.545614
0.546069
0.547058
0.548532
0.550427
0.552814
0.555831
0.559605
0.5642
0.56884
0.572571
0.575329
0.577328
0.578762
0.57977
0.580418
0.580707
0.580715
0.580577
0.538504
0.538624
0.539107
0.5402
0.541874
0.544061
0.546848
0.550414
0.554926
0.560484
0.566171
0.570813
0.574309
0.5769
0.578804
0.580174
0.581079
0.581492
0.581535
0.581397
0.530708
0.530806
0.531332
0.532564
0.534498
0.537055
0.540355
0.544613
0.550041
0.556777
0.563725
0.569456
0.573823
0.577107
0.579575
0.581368
0.582562
0.583103
0.583178
0.583036
0.521854
0.521956
0.522535
0.523924
0.52619
0.529227
0.533179
0.538307
0.544873
0.553049
0.561514
0.568537
0.573931
0.578032
0.581165
0.583454
0.584971
0.585651
0.585755
0.585607
0.511639
0.511721
0.512391
0.514005
0.516703
0.520358
0.525136
0.531358
0.53934
0.549276
0.559559
0.568104
0.574706
0.579767
0.583664
0.586535
0.588421
0.589246
0.589377
0.589219
0.499691
0.499758
0.500527
0.502454
0.505709
0.510157
0.515991
0.523601
0.533346
0.545428
0.557878
0.568211
0.576219
0.582402
0.587185
0.590735
0.593023
0.593996
0.594149
0.593978
0.485466
0.485522
0.486433
0.488774
0.492765
0.498259
0.505472
0.514862
0.526814
0.541504
0.55652
0.568934
0.578551
0.58602
0.591834
0.596146
0.598865
0.599983
0.60015
0.599962
0.468204
0.468248
0.469372
0.472296
0.477294
0.484201
0.493252
0.504962
0.5197
0.537557
0.555571
0.570355
0.581794
0.590716
0.597675
0.602838
0.606003
0.607249
0.607418
0.607209
0.446754
0.446796
0.448266
0.452068
0.458521
0.467419
0.47899
0.493762
0.512009
0.533668
0.555136
0.572572
0.586035
0.596564
0.604758
0.610841
0.614429
0.615767
0.615922
0.615691
0.419399
0.41946
0.421514
0.426731
0.43543
0.447252
0.462373
0.481215
0.503848
0.530004
0.555367
0.5757
0.591334
0.603585
0.613119
0.620109
0.624048
0.625418
0.625536
0.625283
0.383109
0.383268
0.386525
0.394352
0.406849
0.423132
0.443311
0.467495
0.495498
0.526837
0.556481
0.579875
0.597771
0.6118
0.62271
0.630507
0.634654
0.635965
0.636023
0.635752
0.332113
0.333083
0.339554
0.352738
0.371831
0.395012
0.422166
0.453107
0.487448
0.524555
0.558711
0.58523
0.60539
0.621167
0.633375
0.641782
0.645922
0.647069
0.647053
0.646769
0.257527
0.264749
0.279719
0.302924
0.331865
0.364286
0.399966
0.438685
0.480054
0.523423
0.562448
0.592352
0.614981
0.632672
0.646203
0.655074
0.659093
0.660063
0.66
0.659753
0.177314
0.194422
0.218686
0.252574
0.291732
0.33353
0.377816
0.424527
0.473357
0.523715
0.568544
0.602692
0.628415
0.648458
0.663602
0.672791
0.676399
0.677103
0.67706
0.676908
0.110468
0.130627
0.16258
0.205538
0.253731
0.304368
0.357002
0.411551
0.467688
0.524831
0.575214
0.613343
0.641955
0.664049
0.680226
0.689346
0.692647
0.693271
0.693274
0.69317
0.0557176
0.0775282
0.114982
0.164356
0.219689
0.277777
0.337799
0.399548
0.462568
0.526193
0.581861
0.623728
0.654967
0.678823
0.696009
0.705309
0.708636
0.70929
0.709339
0.709267
0.0101204
0.0331124
0.0743484
0.128821
0.189897
0.254142
0.320518
0.388677
0.458003
0.527686
0.588359
0.633767
0.667494
0.693098
0.711286
0.721222
0.724795
0.725393
0.725452
0.72541
-0.0285829
-0.00492008
0.0391763
0.0976944
0.163601
0.233088
0.304981
0.378834
0.453903
0.529231
0.594638
0.643432
0.679569
0.706902
0.726205
0.736797
0.740627
0.741282
0.741362
0.741349
-0.0624092
-0.0383034
0.00806127
0.0699084
0.139895
0.213938
0.290725
0.369721
0.450079
0.530691
0.600587
0.652609
0.691048
0.720041
0.740367
0.751609
0.755787
0.756564
0.756682
0.756688
-0.0928478
-0.0683505
-0.0201381
0.0445565
0.118061
0.196099
0.277277
0.360966
0.446228
0.531827
0.606
0.661107
0.701716
0.732213
0.753545
0.765363
0.769871
0.770833
0.770949
0.770957
-0.120858
-0.0960053
-0.0462123
0.020934
0.0975362
0.179114
0.264238
0.352225
0.442078
0.532427
0.61073
0.668791
0.71144
0.743302
0.765508
0.77784
0.782631
0.783732
0.783845
0.783842
-0.147237
-0.121983
-0.070711
-0.0014729
0.0778934
0.162627
0.251318
0.343265
0.437425
0.532332
0.614671
0.675624
0.720225
0.753372
0.776266
0.788977
0.793955
0.795145
0.795255
0.795234
-0.172359
-0.146687
-0.0942028
-0.0229872
0.0588277
0.146393
0.238319
0.333911
0.432122
0.531433
0.617769
0.681614
0.728123
0.762456
0.785932
0.798878
0.803935
0.805166
0.805249
0.80521
-0.196636
-0.170423
-0.116909
-0.0438553
0.0401354
0.130241
0.225103
0.32405
0.426066
0.529641
0.619985
0.686786
0.735237
0.77069
0.794643
0.807662
0.812746
0.81397
0.814035
0.813974
-0.220201
-0.19358
-0.138914
-0.0642524
0.0216893
0.114073
0.21159
0.313617
0.419195
0.526898
0.621285
0.691173
0.741671
0.778251
0.80258
0.815583
0.820591
0.821766
0.821818
0.821738
-0.243186
-0.216051
-0.16036
-0.0842571
0.00343128
0.0978494
0.19775
0.30258
0.411475
0.523151
0.621626
0.694805
0.747537
0.785314
0.809952
0.822804
0.827642
0.828725
0.828723
0.828632
-0.265718
-0.238014
-0.181328
-0.103904
-0.0146672
0.0815641
0.183595
0.290955
0.402901
0.518363
0.620959
0.697678
0.752932
0.792036
0.8169
0.829444
0.833964
0.834886
0.83482
0.83468
-0.287819
-0.259459
-0.201848
-0.123197
-0.0325797
0.0652425
0.169165
0.278779
0.393497
0.51251
0.619226
0.699753
0.757908
0.798591
0.823625
0.835617
0.839631
0.840321
0.8402
0.840049
-0.309333
-0.280354
-0.221859
-0.142114
-0.050277
0.048946
0.154514
0.266122
0.383316
0.505611
0.61636
0.700956
0.762463
0.805149
0.830426
0.84159
0.844776
0.845098
0.844914
0.844765
-0.330244
-0.300674
-0.241345
-0.160612
-0.0677047
0.0327302
0.139731
0.253057
0.372432
0.497689
0.612312
0.701164
0.76652
0.81181
0.837701
0.847879
0.84972
0.849313
0.849014
0.848919
-0.350617
-0.320385
-0.260286
-0.178661
-0.0848035
0.0166752
0.124898
0.239685
0.360933
0.488805
0.607031
0.700228
0.7699
0.818492
0.845811
0.855365
0.855368
0.853373
0.852649
0.852852
-0.370284
-0.339467
-0.278626
-0.196201
-0.101516
0.000861988
0.11011
0.226114
0.348933
0.479052
0.600502
0.697972
0.772326
0.824841
0.854735
0.865039
0.863674
0.859246
0.856602
0.85617
-0.389339
-0.357908
-0.296384
-0.213264
-0.117876
-0.0147521
0.0953103
0.212289
0.336365
0.468356
0.592591
0.694124
0.773486
0.83033
0.863827
0.877172
0.877059
0.870647
0.862447
0.848421
-0.407709
-0.375696
-0.313677
-0.230049
-0.134164
-0.0304937
0.0800914
0.197736
0.322705
0.456096
0.582665
0.687918
0.772828
0.83424
0.871384
0.889581
0.891393
0.878848
0.859049
0.84742
-0.425219
-0.392965
-0.33031
-0.246354
-0.150034
-0.0460228
0.0646765
0.182776
0.308252
0.442522
0.570777
0.678867
0.769502
0.835403
0.873199
0.89122
0.895725
0.872397
0.804736
0.774384
-0.441202
-0.410963
-0.345957
-0.261683
-0.1647
-0.0608399
0.0493791
0.167636
0.293221
0.427752
0.556851
0.666645
0.762058
0.83314
0.864267
0.876883
0.865944
0.811637
0.742557
0.700064
-0.496757
-0.426845
-0.360159
-0.27716
-0.179778
-0.0764047
0.0341315
0.152033
0.27724
0.411319
0.54027
0.650582
0.7466
0.824192
0.828681
0.831051
0.781031
0.710451
0.633707
0.590997
-0.458202
-0.442164
-0.381377
-0.297433
-0.202066
-0.098756
0.010753
0.127991
0.252189
0.384823
0.511823
0.620435
0.708536
0.790884
0.777255
0.663363
0.557747
0.484256
0.410687
0.441037
-0.489136
-0.459784
-0.398072
-0.314942
-0.219584
-0.116411
-0.00664341
0.109948
0.233064
0.363883
0.488058
0.592455
0.671087
0.715074
0.66625
0.516778
0.388533
0.29685
0.197953
0.247846
-0.512973
-0.480683
-0.417732
-0.33444
-0.238973
-0.135904
-0.0262247
0.0895245
0.211227
0.339629
0.460057
0.558264
0.628107
0.637602
0.530698
0.357479
0.204485
0.0854238
-0.045842
-0.0131497
-0.53631
-0.502478
-0.438334
-0.354116
-0.258557
-0.155637
-0.0464832
0.0682945
0.188391
0.313997
0.429748
0.520113
0.574724
0.552817
0.394073
0.197614
0.00720795
-0.160771
-0.349365
-0.367939
-0.559059
-0.524768
-0.459722
-0.37472
-0.279006
-0.176302
-0.0677982
0.0458848
0.164117
0.28653
0.396904
0.479401
0.514602
0.456612
0.264135
0.0536596
-0.163523
-0.352699
-0.594579
-0.892573
-0.58211
-0.547806
-0.482206
-0.396705
-0.300793
-0.19825
-0.0903251
0.0222291
0.138489
0.257447
0.362136
0.436378
0.45056
0.341551
0.151139
-0.0586226
-0.262758
-0.434905
-0.504046
-0.583097
-0.606422
-0.572044
-0.506134
-0.420389
-0.324414
-0.222125
-0.11487
-0.00361802
0.110351
0.225328
0.323969
0.387232
0.376597
0.233982
0.050792
-0.139936
-0.302566
-0.395311
-0.419344
-0.435257
-0.632303
-0.59779
-0.531677
-0.445852
-0.35
-0.248136
-0.141791
-0.0321434
0.0791152
0.189469
0.281603
0.330819
0.30268
0.134183
-0.0401028
-0.205765
-0.332073
-0.371008
-0.383885
-0.385217
-0.659956
-0.62522
-0.558902
-0.47309
-0.3775
-0.276287
-0.171104
-0.0633948
0.0447158
0.149872
0.234568
0.269803
0.222088
0.0420702
-0.123168
-0.271535
-0.347459
-0.364499
-0.365814
-0.365623
-0.689442
-0.654401
-0.58783
-0.5021
-0.406929
-0.306564
-0.202812
-0.0973855
0.00716074
0.106601
0.182936
0.206508
0.123129
-0.0420046
-0.199008
-0.321302
-0.357848
-0.35607
-0.355062
-0.35443
-0.720479
-0.685146
-0.618359
-0.532794
-0.438197
-0.33891
-0.236881
-0.134087
-0.0335127
0.0597556
0.127579
0.134515
0.0328872
-0.12027
-0.259005
-0.334376
-0.344793
-0.347508
-0.348222
-0.347918
-0.752513
-0.71702
-0.650232
-0.564939
-0.471116
-0.373165
-0.273151
-0.173362
-0.077121
0.00966307
0.0688228
0.0608504
-0.0481504
-0.186455
-0.302184
-0.333635
-0.342088
-0.343646
-0.343517
-0.343264
-0.785077
-0.749463
-0.683004
-0.598137
-0.505338
-0.409002
-0.311338
-0.214919
-0.123376
-0.0430063
0.00569921
-0.00953015
-0.122979
-0.239777
-0.332311
-0.34791
-0.340564
-0.339892
-0.339941
-0.339774
-0.817271
-0.781741
-0.715779
-0.631803
-0.540314
-0.445943
-0.350983
-0.258266
-0.171798
-0.0976636
-0.0589949
-0.075443
-0.189172
-0.280256
-0.333488
-0.344356
-0.340902
-0.33925
-0.338574
-0.338319
-0.847518
-0.812676
-0.74759
-0.665001
-0.575274
-0.483281
-0.391421
-0.302697
-0.221569
-0.153735
-0.118618
-0.149954
-0.2456
-0.314351
-0.320121
-0.337334
-0.341619
-0.339914
-0.33927
-0.338845
-0.87421
-0.840464
-0.777301
-0.696533
-0.60917
-0.520075
-0.431774
-0.347323
-0.271526
-0.210254
-0.175781
-0.223906
-0.302723
-0.333437
-0.348825
-0.349753
-0.349577
-0.349153
-0.349132
-0.348715
-0.895223
-0.863191
-0.802905
-0.724979
-0.640723
-0.55516
-0.470932
-0.391079
-0.32043
-0.265749
-0.235154
-0.28714
-0.365656
-0.405416
-0.403356
-0.39685
-0.386304
-0.382855
-0.380525
-0.378848
-0.908298
-0.878972
-0.822403
-0.748489
-0.668426
-0.587211
-0.507649
-0.4327
-0.367041
-0.318215
-0.292412
-0.34009
-0.434196
-0.536997
-0.494358
-0.45399
-0.436243
-0.426237
-0.419405
-0.417698
-0.910805
-0.885542
-0.83389
-0.765227
-0.690585
-0.614833
-0.540584
-0.470838
-0.410044
-0.365389
-0.337418
-0.370249
-0.449916
-0.637888
-0.54944
-0.461091
-0.419996
-0.403519
-0.39786
-0.396323
-0.900588
-0.880224
-0.835203
-0.773595
-0.705736
-0.636548
-0.568431
-0.50419
-0.447913
-0.405365
-0.367073
-0.338767
-0.296317
-0.374843
-0.352319
-0.319574
-0.315112
-0.31914
-0.322551
-0.322347
-0.87556
-0.860198
-0.824519
-0.772393
-0.712927
-0.651384
-0.590053
-0.531564
-0.479543
-0.439239
-0.389046
-0.263594
0.00143171
0.338214
0.174024
-0.110268
-0.238084
-0.283973
-0.301854
-0.305702
-0.838247
-0.828314
-0.802604
-0.761783
-0.712169
-0.659132
-0.604968
-0.552052
-0.504567
-0.466661
-0.416182
-0.318562
-0.129608
0.0265077
-0.150215
-0.326678
-0.425626
-0.470099
-0.488499
-0.495877
-0.795356
-0.789717
-0.774352
-0.744577
-0.705387
-0.66057
-0.613348
-0.56586
-0.522052
-0.489637
-0.468997
-0.585437
-0.959305
-1.40332
-1.46091
-1.22879
-1.02932
-0.915692
-0.877254
-0.874015
-0.756782
-0.753394
-0.746045
-0.72627
-0.695485
-0.657706
-0.616013
-0.572362
-0.530141
-0.498544
-0.48838
-0.693574
-1.0655
-1.46808
-1.58499
-1.47055
-1.36168
-1.20256
-1.0773
-1.05083
-0.729507
-0.727408
-0.723787
-0.711452
-0.68684
-0.65337
-0.614721
-0.571524
-0.526906
-0.482052
-0.463722
-0.461985
-0.561692
-0.686689
-0.787044
-0.803316
-0.801687
-0.719755
-0.613604
-0.570165
-0.709317
-0.70855
-0.70744
-0.701299
-0.682065
-0.650849
-0.611556
-0.566511
-0.51496
-0.460709
-0.41972
-0.391651
-0.294726
-0.0659955
0.178846
0.370273
0.45791
0.506569
0.539205
0.55748
-0.698042
-0.697668
-0.697047
-0.694377
-0.680549
-0.650394
-0.608706
-0.558952
-0.502066
-0.437893
-0.368823
-0.301006
-0.0805156
0.301724
0.679135
1.00738
1.17595
1.24608
1.26429
1.26406
-0.691567
-0.691221
-0.690419
-0.689794
-0.681751
-0.652617
-0.607072
-0.551524
-0.487123
-0.407492
-0.318981
-0.222749
0.0278054
0.410113
0.790561
1.10986
1.29125
1.37031
1.39407
1.39928
-0.689407
-0.689443
-0.689596
-0.690743
-0.686131
-0.657619
-0.60745
-0.546529
-0.472765
-0.38702
-0.288834
-0.189844
0.046452
0.377271
0.681417
0.93518
1.0945
1.18556
1.2355
1.25413
-0.686033
-0.687059
-0.689617
-0.693238
-0.690001
-0.661249
-0.609983
-0.544733
-0.464697
-0.370651
-0.268976
-0.180511
0.0126694
0.315475
0.592517
0.822913
0.984092
1.08531
1.14395
1.16499
-0.680558
-0.680558
-0.677954
-0.672829
-0.669201
-0.654376
-0.615342
-0.548645
-0.462653
-0.363035
-0.264691
-0.175859
-0.0108861
0.250876
0.51106
0.728704
0.902382
1.0094
1.06087
1.07591
-0.702238
-0.698316
-0.679708
-0.651403
-0.642426
-0.656761
-0.633339
-0.560784
-0.46541
-0.359884
-0.262942
-0.177312
-0.0596553
0.18238
0.403391
0.592468
0.742414
0.83327
0.874158
0.884687
-0.776754
-0.773795
-0.771793
-0.77495
-0.771048
-0.762234
-0.687965
-0.582237
-0.468186
-0.356893
-0.260599
-0.175342
-0.0798386
0.0951077
0.280825
0.432395
0.550443
0.620212
0.650784
0.657738
-0.900902
-0.916878
-0.955436
-0.985369
-0.974484
-0.911105
-0.759964
-0.602759
-0.467421
-0.350646
-0.255551
-0.176119
-0.0987251
0.0273165
0.170652
0.28646
0.377377
0.429261
0.450744
0.453883
-0.954526
-0.977797
-1.01438
-1.03917
-1.02625
-0.943103
-0.763113
-0.589247
-0.449328
-0.336363
-0.248926
-0.181617
-0.121365
-0.0338353
0.0747697
0.164091
0.233565
0.271176
0.286686
0.286508
-0.809729
-0.83168
-0.866987
-0.895582
-0.885998
-0.797712
-0.651481
-0.514862
-0.400927
-0.307562
-0.235374
-0.182363
-0.143883
-0.0845644
-0.00543817
0.0616985
0.114198
0.139931
0.14831
0.148418
-0.493542
-0.50816
-0.534062
-0.559947
-0.564966
-0.528924
-0.463182
-0.39245
-0.327238
-0.266205
-0.214945
-0.176756
-0.151296
-0.114533
-0.0649766
-0.0209965
0.0111899
0.0269022
0.0320252
0.0305197
-0.178805
-0.185578
-0.201678
-0.227361
-0.255352
-0.271352
-0.275687
-0.26683
-0.247543
-0.219733
-0.19051
-0.166016
-0.149021
-0.128939
-0.102942
-0.0827492
-0.0705865
-0.0676423
-0.0671438
-0.0682048
0.0129472
0.00949887
-0.00179837
-0.0264601
-0.0648157
-0.10842
-0.144627
-0.169085
-0.179717
-0.177602
-0.166735
-0.152529
-0.139344
-0.134139
-0.130729
-0.128797
-0.131004
-0.134784
-0.136573
-0.137101
0.0840555
0.0821476
0.0736221
0.0525502
0.0168268
-0.0272041
-0.0701334
-0.105874
-0.131139
-0.145158
-0.148279
-0.142666
-0.133569
-0.137868
-0.146572
-0.155672
-0.165231
-0.171651
-0.173663
-0.173962
0.0928387
0.0913479
0.0849981
0.0692327
0.0419744
0.00662001
-0.0317712
-0.0680815
-0.0991128
-0.123617
-0.140555
-0.148868
-0.149791
-0.157899
-0.165572
-0.172443
-0.179726
-0.183966
-0.185137
-0.185583
0.0781755
0.0770949
0.072668
0.061686
0.0423348
0.0159849
-0.0150011
-0.0471534
-0.0788025
-0.110132
-0.142219
-0.175425
-0.198872
-0.193437
-0.186742
-0.185847
-0.185077
-0.185503
-0.185703
-0.186137
0.0588137
0.0580817
0.0551173
0.047723
0.0343773
0.0153945
-0.00839093
-0.0351762
-0.0643931
-0.0984551
-0.141573
-0.19533
-0.235927
-0.216429
-0.195754
-0.184417
-0.181393
-0.181192
-0.181169
-0.181381
0.0415939
0.0411272
0.0392195
0.0343779
0.0253814
0.0120601
-0.00547181
-0.0264996
-0.051056
-0.0824536
-0.125821
-0.183364
-0.211438
-0.189786
-0.171325
-0.165196
-0.165142
-0.166306
-0.166507
-0.166377
0.0283474
0.0280569
0.0268924
0.0238329
0.0179591
0.00891692
-0.00340401
-0.0187193
-0.0371136
-0.0602942
-0.091071
-0.128473
-0.13989
-0.125913
-0.119929
-0.123336
-0.129328
-0.132772
-0.133338
-0.1331
0.0189681
0.0188057
0.0181397
0.0163223
0.0126852
0.00690809
-0.00112348
-0.0111003
-0.0224913
-0.0347701
-0.0460922
-0.0550904
-0.0500915
-0.0466123
-0.056413
-0.068719
-0.0780219
-0.0821671
-0.0830274
-0.0829838
0.0124668
0.0124142
0.0120848
0.0111333
0.00912622
0.00577546
0.00111393
-0.00433347
-0.00927636
-0.0108408
-0.00318792
0.0149354
0.0393334
0.0257651
0.00429338
-0.0138266
-0.0236862
-0.0266084
-0.0281632
-0.028596
0.00795901
0.00796302
0.00785429
0.00748619
0.00655754
0.00492565
0.00269096
0.000571988
0.000360486
0.00648221
0.0266179
0.059918
0.0902739
0.0726271
0.047446
0.0287661
0.0197936
0.0166537
0.0154622
0.0148616
0.00469846
0.00473556
0.00474865
0.00470736
0.00443416
0.00385473
0.00309665
0.00290024
0.00499299
0.0140524
0.0377361
0.0734057
0.100247
0.0854207
0.0619959
0.0490849
0.0450857
0.0442574
0.0424317
0.0412178
0.00216948
0.00219804
0.00224857
0.00237895
0.00244635
0.00239238
0.00231047
0.00270513
0.00479028
0.011907
0.0299785
0.0556589
0.076299
0.0635067
0.0485875
0.0426732
0.0425148
0.0431838
0.0417056
0.040468
0.000241669
0.000267365
0.000261669
0.000336034
0.000437848
0.00049177
0.000479505
0.000545441
0.000841247
0.00188574
0.00480503
0.0108716
0.0173747
0.0168876
0.0133079
0.0148122
0.0147846
0.0127832
0.00990671
0.00947272
-0.121289
0.0453304
0.239835
0.409595
0.545176
0.651872
0.740061
0.815152
0.849388
0.826118
0.180728
0.301221
0.430851
0.542852
0.637212
0.715259
0.77845
0.823326
0.845789
0.857907
0.399117
0.481768
0.570374
0.648604
0.715866
0.77214
0.816906
0.849627
0.873302
0.891313
0.559622
0.618793
0.680286
0.737267
0.786832
0.828928
0.863518
0.891128
0.913892
0.93221
0.68486
0.727897
0.773793
0.817524
0.856168
0.889932
0.918843
0.942917
0.963286
0.981133
0.789057
0.82189
0.85996
0.895461
0.928058
0.957285
0.982834
1.00432
1.02216
1.03951
0.88153
0.910201
0.944144
0.976257
1.00619
1.03335
1.05709
1.0768
1.09231
1.10938
0.970077
0.999266
1.03326
1.06529
1.09488
1.12146
1.14432
1.16281
1.17618
1.19321
1.06537
1.09856
1.1352
1.16877
1.19881
1.22499
1.24694
1.26422
1.27609
1.29349
1.18035
1.21817
1.25681
1.29105
1.32039
1.34514
1.36551
1.3814
1.39286
1.41093
1.32528
1.36382
1.39996
1.43064
1.45632
1.47841
1.49747
1.513
1.52542
1.54342
1.50035
1.53197
1.55815
1.5806
1.60057
1.61929
1.63701
1.65349
1.66883
1.6869
1.68896
1.70617
1.7212
1.73743
1.75333
1.76787
1.78107
1.795
1.81254
1.83269
1.87068
1.88022
1.89176
1.90257
1.91185
1.92144
1.93222
1.94358
1.95495
1.9703
2.07792
2.08158
2.06663
2.05182
2.04555
2.05122
2.0697
2.10001
2.13219
2.15884
2.38424
2.24937
2.17273
2.13035
2.11293
2.11689
2.14429
2.20071
2.30332
2.52769
0.689351
0.687222
0.682739
0.674115
0.661891
0.649763
0.639535
0.631643
0.62603
0.622782
0.622435
0.62518
0.630289
0.637515
0.646904
0.658445
0.671096
0.682131
0.688243
0.691298
0.613802
0.619649
0.625982
0.630475
0.632946
0.632622
0.629886
0.626079
0.622573
0.62032
0.620181
0.622385
0.626053
0.630344
0.634153
0.636037
0.635101
0.63162
0.626457
0.619836
0.605374
0.60767
0.611074
0.61407
0.616146
0.617643
0.618399
0.618085
0.617065
0.616189
0.616372
0.617805
0.619625
0.620933
0.621115
0.620225
0.618677
0.616341
0.613078
0.610157
0.599859
0.600945
0.602778
0.605156
0.60718
0.608608
0.60963
0.610384
0.610791
0.611021
0.61152
0.612334
0.612936
0.613005
0.612594
0.611746
0.610276
0.608192
0.606106
0.604723
0.59465
0.595313
0.59642
0.598125
0.599906
0.601538
0.602835
0.603854
0.604742
0.60554
0.606279
0.606837
0.607035
0.60687
0.606304
0.605249
0.603821
0.602278
0.60096
0.60018
0.589667
0.590127
0.590913
0.59221
0.593697
0.595214
0.596679
0.59798
0.599121
0.600185
0.601111
0.601686
0.601835
0.601562
0.600865
0.599876
0.59875
0.597617
0.596702
0.596185
0.584829
0.585174
0.585784
0.586851
0.588144
0.589518
0.590957
0.592405
0.593783
0.595071
0.596192
0.596891
0.597072
0.596798
0.596199
0.595422
0.59457
0.593703
0.593031
0.592653
0.580083
0.580351
0.580843
0.581751
0.582919
0.584214
0.585608
0.587098
0.588643
0.590172
0.591531
0.592407
0.592712
0.592592
0.592199
0.591639
0.59099
0.59035
0.589859
0.58957
0.575347
0.575559
0.575969
0.576766
0.577853
0.579099
0.580483
0.582019
0.583695
0.585459
0.587101
0.588237
0.588778
0.588897
0.588731
0.588389
0.587945
0.587496
0.587144
0.586918
0.570533
0.570704
0.571055
0.571778
0.572819
0.574043
0.575454
0.577072
0.578902
0.580918
0.5829
0.584388
0.585247
0.585649
0.585732
0.585616
0.585383
0.585105
0.584868
0.584689
0.565553
0.565692
0.566001
0.566679
0.567703
0.56895
0.570426
0.572169
0.574207
0.57653
0.578927
0.580853
0.582095
0.582825
0.583191
0.583315
0.58329
0.583177
0.583038
0.582893
0.56032
0.560432
0.560713
0.561372
0.562412
0.563728
0.565314
0.567235
0.569547
0.572259
0.575168
0.577622
0.579315
0.580424
0.581109
0.581496
0.58168
0.581736
0.581683
0.581565
0.554738
0.554827
0.555092
0.555755
0.556849
0.558276
0.560025
0.562192
0.564856
0.568063
0.5716
0.574688
0.576914
0.578462
0.579504
0.580197
0.580621
0.580831
0.580852
0.580756
0.5487
0.548768
0.549026
0.549717
0.550903
0.552486
0.554464
0.556955
0.56007
0.563895
0.5682
0.572049
0.574908
0.576971
0.578425
0.579458
0.580142
0.580521
0.580615
0.580536
0.542078
0.542126
0.542386
0.543127
0.544445
0.546242
0.54852
0.551428
0.555114
0.559702
0.564943
0.569708
0.573321
0.575993
0.577927
0.579339
0.580328
0.580888
0.581051
0.580986
0.534721
0.534751
0.535016
0.53583
0.537324
0.539399
0.542063
0.545501
0.549902
0.55543
0.561808
0.567675
0.572182
0.575571
0.578078
0.579941
0.581272
0.582027
0.582261
0.582207
0.526435
0.526452
0.526719
0.527631
0.529357
0.531777
0.534938
0.539047
0.544341
0.551028
0.558786
0.565971
0.571539
0.57577
0.578951
0.581359
0.583078
0.584045
0.58435
0.584303
0.516914
0.5169
0.517229
0.51828
0.520291
0.523166
0.526961
0.531918
0.538329
0.546447
0.555877
0.564628
0.571449
0.57667
0.580642
0.583684
0.585849
0.587054
0.58743
0.587389
0.505873
0.505834
0.506207
0.507452
0.509835
0.513297
0.517898
0.52393
0.531742
0.541622
0.55307
0.563681
0.571968
0.578354
0.583253
0.587024
0.589708
0.591165
0.591612
0.591572
0.492833
0.492768
0.493218
0.494716
0.497583
0.501811
0.507459
0.514872
0.524454
0.536508
0.550383
0.563181
0.573171
0.580899
0.586884
0.591493
0.594754
0.596478
0.59699
0.596946
0.477152
0.477057
0.477632
0.47948
0.482998
0.488249
0.495285
0.504502
0.51634
0.531083
0.547856
0.563201
0.57514
0.584393
0.591617
0.597175
0.60107
0.603061
0.603627
0.603573
0.457892
0.457771
0.458547
0.46091
0.465344
0.472019
0.480951
0.492575
0.507323
0.525388
0.545589
0.563842
0.577971
0.588933
0.597514
0.604133
0.608693
0.610933
0.611529
0.611458
0.433655
0.433516
0.434623
0.437782
0.443599
0.452356
0.463977
0.478873
0.497373
0.5195
0.543696
0.565212
0.581746
0.594573
0.604617
0.612387
0.617592
0.620028
0.620623
0.620526
0.402138
0.40202
0.403736
0.408275
0.416386
0.42838
0.443943
0.463332
0.486637
0.513647
0.542396
0.567476
0.586566
0.601363
0.61296
0.621888
0.62764
0.630174
0.630722
0.630592
0.359206
0.359249
0.362303
0.369713
0.382074
0.399349
0.420743
0.446183
0.475476
0.508193
0.541969
0.570813
0.592528
0.609331
0.622481
0.632488
0.638588
0.641061
0.641511
0.641346
0.297129
0.29832
0.305785
0.3196
0.339722
0.365394
0.395001
0.428149
0.464528
0.503603
0.542695
0.57537
0.599689
0.618427
0.633009
0.643845
0.650027
0.652201
0.652483
0.652295
0.223478
0.225218
0.239505
0.263227
0.294231
0.329821
0.36839
0.409758
0.453737
0.499837
0.545111
0.582541
0.610252
0.631467
0.647832
0.659552
0.665701
0.667665
0.667911
0.667818
0.147455
0.153597
0.174699
0.208617
0.249991
0.295207
0.342708
0.392362
0.444045
0.497299
0.548941
0.591291
0.622503
0.646357
0.664675
0.677099
0.68283
0.684351
0.684525
0.684492
0.0852638
0.0937002
0.11936
0.160269
0.209765
0.263198
0.318753
0.376152
0.435177
0.495316
0.553073
0.600074
0.634538
0.660705
0.680412
0.693293
0.698977
0.70033
0.700558
0.700586
0.0346697
0.0437014
0.0729002
0.119033
0.174664
0.234721
0.297091
0.361344
0.427089
0.493686
0.557237
0.608647
0.646139
0.674456
0.695643
0.709068
0.714708
0.71637
0.716682
0.716756
-0.00769965
0.00161527
0.0332619
0.0833879
0.144058
0.209617
0.277771
0.348016
0.419798
0.492343
0.561338
0.616932
0.657322
0.687727
0.710291
0.724551
0.730673
0.732617
0.732959
0.733044
-0.0441964
-0.0347671
-0.001277
0.0520502
0.116884
0.187135
0.260326
0.335877
0.413128
0.491177
0.565298
0.624874
0.668047
0.700466
0.724425
0.739603
0.7463
0.748411
0.748801
0.748882
-0.0764851
-0.0670149
-0.0321086
0.0239213
0.0922435
0.166537
0.244189
0.32452
0.406789
0.489963
0.568931
0.632299
0.67812
0.712429
0.73771
0.753736
0.761013
0.763306
0.763716
0.763771
-0.105842
-0.0963266
-0.0602566
-0.00188994
0.0694224
0.147258
0.228875
0.31354
0.400434
0.488432
0.572027
0.639033
0.687372
0.723425
0.749907
0.766658
0.774498
0.776962
0.77739
0.777434
-0.133137
-0.123568
-0.0864676
-0.0261012
0.0478805
0.12885
0.214011
0.302618
0.393809
0.486375
0.574436
0.644976
0.695719
0.733421
0.760942
0.778293
0.786523
0.78913
0.789577
0.789598
-0.15893
-0.149298
-0.111228
-0.0491754
0.0272188
0.110979
0.199333
0.29154
0.386723
0.483633
0.576047
0.650086
0.70319
0.742446
0.770897
0.788719
0.797139
0.799848
0.800299
0.800297
-0.183722
-0.173925
-0.135006
-0.0713567
0.00716963
0.0934185
0.184656
0.280149
0.379047
0.480093
0.576785
0.654349
0.709835
0.750601
0.779888
0.798023
0.806514
0.809225
0.809678
0.80964
-0.20775
-0.19773
-0.15806
-0.0928676
-0.0124503
0.0760216
0.169859
0.268351
0.370693
0.475682
0.576598
0.657758
0.715721
0.758021
0.788038
0.806371
0.814848
0.817519
0.817936
0.817872
-0.231123
-0.220891
-0.180423
-0.113858
-0.0317522
0.0587167
0.154882
0.256096
0.361616
0.470338
0.575426
0.660312
0.720917
0.764852
0.795584
0.814007
0.822354
0.824921
0.825284
0.825201
-0.253998
-0.243465
-0.20224
-0.134398
-0.05078
0.0414657
0.13971
0.243376
0.351806
0.464039
0.573218
0.66199
0.725487
0.771236
0.802687
0.821063
0.829172
0.831552
0.831829
0.831714
-0.27634
-0.26553
-0.223569
-0.154526
-0.0695427
0.0242785
0.124371
0.230222
0.341284
0.456772
0.569931
0.66274
0.729458
0.777299
0.809525
0.827686
0.835343
0.837441
0.837604
0.837465
-0.298207
-0.287089
-0.244345
-0.174229
-0.0880231
0.00718539
0.108904
0.21669
0.330098
0.448557
0.565526
0.662496
0.732806
0.783147
0.816325
0.834099
0.841012
0.842649
0.842674
0.842516
-0.319426
-0.30807
-0.264561
-0.193467
-0.106175
-0.00974416
0.0933725
0.202849
0.31832
0.439447
0.559981
0.66117
0.735447
0.788821
0.823348
0.840701
0.846482
0.847311
0.847098
0.846934
-0.340139
-0.328436
-0.284207
-0.212221
-0.12397
-0.026473
0.0778667
0.188778
0.306035
0.429522
0.553304
0.658659
0.737235
0.794243
0.830794
0.848072
0.852416
0.851767
0.850954
0.850782
-0.36018
-0.34816
-0.303253
-0.230447
-0.141328
-0.0429175
0.0624667
0.174596
0.293351
0.418842
0.545534
0.654855
0.737968
0.799175
0.838598
0.856837
0.86013
0.857216
0.854744
0.853785
-0.379611
-0.367288
-0.321645
-0.248094
-0.158214
-0.0590087
0.0472555
0.160382
0.280379
0.407546
0.536737
0.649658
0.737409
0.80321
0.846232
0.867052
0.871168
0.866851
0.860351
0.851917
-0.39835
-0.385775
-0.339476
-0.265317
-0.174835
-0.0750171
0.0319036
0.145744
0.266678
0.395139
0.52639
0.642519
0.735072
0.805982
0.853018
0.877987
0.885806
0.881791
0.871489
0.866092
-0.416348
-0.403546
-0.356733
-0.282087
-0.191196
-0.0909371
0.016424
0.130661
0.252201
0.381501
0.514291
0.633048
0.730166
0.806686
0.85695
0.885297
0.895492
0.895493
0.857703
0.805861
-0.433313
-0.41982
-0.373271