/*--------------------------------*- C++ -*----------------------------------*\
  =========                 |
  \\      /  F ield         | OpenFOAM: The Open Source CFD Toolbox
   \\    /   O peration     | Website:  https://openfoam.org
    \\  /    A nd           | Version:  7
     \\/     M anipulation  |
\*---------------------------------------------------------------------------*/
FoamFile
{
    version     2.0;
    format      ascii;
    class       volScalarField;
    location    "8";
    object      p;
}
// * * * * * * * * * * * * * * * * * * * * * * * * * * * * * * * * * * * * * //

dimensions      [0 2 -2 0 0 0 0];

internalField   nonuniform List<scalar> 
16000
(
-8.0227198e-08
-0.00012973771
-0.00042566755
-0.00080997683
-0.0012092001
-0.001578954
-0.0018888672
-0.0021205194
-0.0022635264
-0.002312347
-0.0022641461
-0.0021176244
-0.0018724219
-0.0015290163
-0.0010889435
-0.00055531958
6.6513518e-05
0.00076844488
0.001538831
0.0023624214
0.0032201393
0.0040892844
0.0049441695
0.0057570501
0.0064994083
0.007143609
0.0076647128
0.0080423188
0.0082623623
0.0083186608
0.008214018
0.0079607991
0.0075810205
0.0071059938
0.0065753756
0.0060349932
0.005539105
0.0051425941
0.0049062841
0.0048658309
0.00014931826
1.1519715e-05
-0.00022633291
-0.00052070137
-0.00082725947
-0.0011123725
-0.0013523334
-0.0015313061
-0.0016391581
-0.0016696212
-0.0016188966
-0.0014848234
-0.0012663963
-0.00096361729
-0.00057764299
-0.00011119539
0.00043094411
0.0010415164
0.0017103028
0.002423963
0.0031659379
0.0039167279
0.0046542733
0.005354928
0.0059945243
0.0065497806
0.0069998729
0.0073280198
0.0075229942
0.0075803897
0.0075035037
0.0073037348
0.0070004807
0.0066205551
0.0061971375
0.0057681367
0.0053740486
0.005057207
0.0048617695
0.0048245573
0.00046445181
0.00025396467
8.7950068e-06
-0.0002576097
-0.00052400158
-0.00076651292
-0.00096777901
-0.0011159654
-0.0012030466
-0.0012236354
-0.0011741689
-0.0010523506
-0.00085682197
-0.00058706426
-0.00024360639
0.00017155552
0.00065455575
0.0011992497
0.0017968141
0.0024355453
0.0031007874
0.0037750411
0.0044385193
0.0050698555
0.0056471264
0.0061491755
0.006557073
0.0068555874
0.007034592
0.0070902451
0.0070257574
0.0068516689
0.0065856101
0.0062515518
0.0058785838
0.0054992636
0.0051474494
0.0048566167
0.0046623846
0.0045935778
0.00087610974
0.00055441507
0.00026469096
-8.9329255e-06
-0.0002664637
-0.00049205786
-0.00067439794
-0.00080634566
-0.00088289474
-0.00090044958
-0.00085638497
-0.00074865676
-0.00057566979
-0.00033635355
-3.044061e-05
0.00034106802
0.00077549178
0.0012680225
0.0018112835
0.0023950944
0.0030063148
0.0036288967
0.0042444139
0.0048326787
0.0053727236
0.0058441018
0.0062283367
0.0065104004
0.0066801168
0.0067333422
0.0066727187
0.0065078965
0.0062551942
0.0059367036
0.0055788879
0.0052108394
0.004862551
0.0045632723
0.0043384408
0.0042029177
0.0013122935
0.00086610479
0.00051543472
0.0002175676
-4.7234624e-05
-0.00027008753
-0.00044534718
-0.00057064615
-0.00064429628
-0.00066479912
-0.00063067997
-0.0005402895
-0.0003918155
-0.00018356663
8.5658158e-05
0.00041605213
0.00080634314
0.0012532367
0.0017508871
0.0022906065
0.0028606171
0.0034460532
0.0040293464
0.0045908446
0.0051097686
0.0055655164
0.0059391435
0.0062149066
0.0063817528
0.0064345713
0.0063749892
0.0062115927
0.0059595299
0.005639505
0.0052762077
0.0048964459
0.0045278543
0.0041971367
0.0039194082
0.0036962686
0.0017229543
0.0011477872
0.00072767022
0.00039485229
0.00011149941
-0.00011947414
-0.00029757324
-0.0004249498
-0.00050320353
-0.00053295763
-0.00051386303
-0.00044463433
-0.00032324114
-0.00014729252
8.5522187e-05
0.00037678366
0.00072678082
0.0011338669
0.0015938312
0.002099487
0.002640307
0.0032023474
0.0037685236
0.0043192061
0.0048331543
0.0052888389
0.0056660027
0.0059473252
0.0061200541
0.0061773931
0.0061194087
0.0059533279
0.0056931524
0.0053585868
0.0049733115
0.0045629848
0.0041544011
0.0037735702
0.0034270475
0.0031023121
0.0020650796
0.001362585
0.00086981026
0.00049588562
0.00018645386
-6.0697855e-05
-0.00024970188
-0.0003869236
-0.00047696359
-0.0005223494
-0.00052375909
-0.00048018247
-0.00038924227
-0.00024769366
-5.1969201e-05
0.00020106666
0.0005134523
0.00088535113
0.0013142983
0.0017946549
0.0023171097
0.0028685068
0.0034319911
0.0039875531
0.0045129437
0.0049850305
0.005381458
0.0056824685
0.0058727291
0.0059429291
0.0058908926
0.0057220398
0.0054490952
0.0050910123
0.0046711213
0.0042150024
0.0037500868
0.0033034972
0.0028750734
0.0024396931
0.0023019444
0.0014773166
0.0009122859
0.0004946191
0.00015475047
-0.00011417214
-0.00032042519
-0.00047417031
-0.00058266964
-0.00065009348
-0.0006779204
-0.00066523792
-0.00060915649
-0.00050539926
-0.00034894503
-0.00013490255
0.0001407142
0.00048007253
0.00088262979
0.0013444391
0.0018574957
0.0024094355
0.0029835169
0.0035591019
0.0041125237
0.0046184686
0.0050517368
0.005389246
0.0056121109
0.0057075325
0.0056702203
0.0055031275
0.0052173589
0.0048311779
0.0043680754
0.0038545177
0.003319961
0.0027943708
0.0022726555
0.0017186887
0.0024014437
0.0014617703
0.00082714483
0.00036538905
-7.1865066e-06
-0.00030174393
-0.00053035481
-0.00070654972
-0.0008398822
-0.00093587862
-0.00099658383
-0.0010209596
-0.0010053829
-0.00094433013
-0.00083111166
-0.00065885341
-0.00042138363
-0.00011427134
0.00026414154
0.00071185906
0.0012224004
0.0017843711
0.0023811978
0.0029915403
0.0035900438
0.0041487253
0.0046388189
0.0050329785
0.0053076618
0.0054454045
0.0054366718
0.0052810084
0.0049872838
0.0045728975
0.0040618338
0.0034822888
0.0028670642
0.0022506359
0.0016244423
0.00094229346
0.0023346639
0.0012882296
0.0005880577
8.3301607e-05
-0.00032296828
-0.00064596754
-0.00090126443
-0.0011053865
-0.0012698799
-0.0014013459
-0.0015021382
-0.0015708476
-0.0016028843
-0.0015912533
-0.0015273702
-0.0014021165
-0.001206831
-0.00093448305
-0.00058083571
-0.00014554586
0.00036678934
0.00094627772
0.0015766199
0.0022359218
0.0028970552
0.0035289899
0.0040987078
0.0045736028
0.004924213
0.0051269739
0.0051666434
0.0050380439
0.0047468302
0.0043090507
0.0037492827
0.0030981474
0.0023930499
0.001674622
0.00093193688
0.00010906233
0.0020751026
0.00093122771
0.00017048715
-0.00037532687
-0.0008155077
-0.0011691311
-0.0014550227
-0.0016924351
-0.0018946382
-0.0020690484
-0.002218078
-0.0023397185
-0.0024282027
-0.0024748433
-0.0024689125
-0.0023987588
-0.0022528782
-0.0020212176
-0.0016964764
-0.001275442
-0.00076033589
-0.00015841877
0.00051424441
0.0012356889
0.0019771649
0.0027043937
0.0033794995
0.0039635849
0.0044198399
0.0047168686
0.004831848
0.0047530836
0.004481547
0.0040310158
0.003426428
0.0027013195
0.0018988941
0.0010676143
0.00019497181
-0.00078499867
0.0015986086
0.00036754973
-0.00044810999
-0.0010325102
-0.0015063704
-0.001892504
-0.0022128024
-0.0024890259
-0.0027359214
-0.0029614967
-0.003168026
-0.0033527153
-0.0035084363
-0.0036246103
-0.0036881211
-0.0036844712
-0.0035989217
-0.0034179002
-0.0031304285
-0.0027295292
-0.0022136048
-0.0015891272
-0.0008684679
-7.3590944e-05
0.00076539282
0.0016109908
0.0024200249
0.0031463065
0.0037441123
0.0041721662
0.0043977121
0.0044001469
0.0041736461
0.003728193
0.0030883756
0.0022908346
0.0013856839
0.00043097668
-0.00058683485
-0.0017445761
0.00088350399
-0.00042354278
-0.0012879072
-0.0019080728
-0.0024151725
-0.0028356455
-0.0031942908
-0.0035151555
-0.0038142726
-0.0041000784
-0.0043745703
-0.0046340471
-0.0048698823
-0.0050694395
-0.0052170004
-0.0052949175
-0.0052847968
-0.0051689818
-0.004932089
-0.0045626586
-0.0040548755
-0.0034106144
-0.002640063
-0.0017635443
-0.00081157392
0.0001755437
0.0011491655
0.0020549558
0.0028366628
0.0034407989
0.0038218018
0.0039470497
0.0038009787
0.0033874343
0.0027292539
0.0018659216
0.00085543109
-0.00023268994
-0.001412632
-0.0027733271
-8.9012438e-05
-0.001459878
-0.0023662477
-0.0030191513
-0.003558994
-0.004015693
-0.0044168092
-0.0047884731
-0.00514787
-0.0055037772
-0.0058578455
-0.0062054092
-0.0065362836
-0.0068356699
-0.0070850792
-0.0072634412
-0.0073482913
-0.0073172875
-0.0071498279
-0.0068289283
-0.0063432256
-0.0056891113
-0.004872555
-0.0039108846
-0.0028337724
-0.0016834511
-0.00051375214
0.00061230013
0.0016264147
0.0024603802
0.0030524495
0.0033540634
0.0033359494
0.0029923796
0.0023420651
0.001426384
0.00031191255
-0.00091833754
-0.0022788514
-0.0038722039
-0.0013343354
-0.0027559467
-0.0036972323
-0.0043797267
-0.0049517905
-0.0054466374
-0.0058944315
-0.006323239
-0.0067513195
-0.0071877724
-0.0076339185
-0.0080841534
-0.0085267585
-0.0089447583
-0.0093167988
-0.0096181694
-0.0098219592
-0.0099005524
-0.0098273001
-0.0095785658
-0.0091360067
-0.0084890661
-0.0076374737
-0.0065936595
-0.005384622
-0.0040530065
-0.0026569251
-0.0012680916
3.1994619e-05
0.0011579105
0.0020279558
0.0025728845
0.0027445447
0.0025228022
0.0019185214
0.00097299183
-0.00023842202
-0.0016171561
-0.0031776093
-0.0050376918
-0.0028638732
-0.0043224704
-0.0052913109
-0.0060001354
-0.0066037814
-0.0071385543
-0.0076370646
-0.0081292192
-0.0086343382
-0.0091618976
-0.009712996
-0.010281223
-0.010853449
-0.011410605
-0.011928475
-0.012378587
-0.012729285
-0.012947153
-0.012998698
-0.012852505
-0.01248176
-0.011867142
-0.010999981
-0.0098854353
-0.0085453845
-0.0070206271
-0.0053718202
-0.00367855
-0.0020360277
-0.0005490294
0.00067688787
0.0015463176
0.0019857634
0.0019541494
0.0014489811
0.00050796572
-0.00078541102
-0.0023150791
-0.0040949024
-0.006259834
-0.0046845912
-0.0061660654
-0.007154949
-0.007886685
-0.0085209753
-0.0090969896
-0.0096496616
-0.010210686
-0.010800504
-0.011429122
-0.012097626
-0.012799037
-0.013519048
-0.014236691
-0.01492501
-0.015551765
-0.016080385
-0.016471244
-0.016683304
-0.016676322
-0.016413547
-0.015864996
-0.015011243
-0.013847423
-0.012387281
-0.010666718
-0.0087462126
-0.006711309
-0.0046703764
-0.0027488863
-0.0010798588
0.00020924206
0.0010118803
0.0012575731
0.00092266845
3.5668187e-05
-0.0013139186
-0.0029910108
-0.0050084802
-0.0075199083
-0.0067986307
-0.0082889931
-0.0092903996
-0.01004138
-0.010704803
-0.011322449
-0.011931502
-0.012565463
-0.013246053
-0.013984075
-0.01478092
-0.015629391
-0.016514346
-0.017413234
-0.018296604
-0.019128584
-0.019867665
-0.020467769
-0.020879791
-0.021053775
-0.020941715
-0.020501146
-0.019699479
-0.01851887
-0.01696145
-0.015054432
-0.012854336
-0.010449423
-0.0079592044
-0.0055298363
-0.0033244867
-0.0015084404
-0.00022987802
0.00040087234
0.0003284622
-0.00043630524
-0.0018022083
-0.0036146571
-0.0058852684
-0.0087876132
-0.0092030571
-0.01068905
-0.011695676
-0.012461868
-0.013151955
-0.013810078
-0.014475672
-0.015184174
-0.015958884
-0.016811785
-0.01774502
-0.018751628
-0.019816089
-0.020914693
-0.022015857
-0.023080358
-0.024061892
-0.024907889
-0.025560889
-0.025960599
-0.026046713
-0.0257627
-0.02506056
-0.023906565
-0.022287501
-0.02021754
-0.017744486
-0.014954651
-0.011974885
-0.008970077
-0.0061345283
-0.0036761298
-0.0017935471
-0.0006490903
-0.00034335521
-0.00089537923
-0.0022197672
-0.0041437997
-0.0066781827
-0.010017586
-0.011889916
-0.01335981
-0.014364849
-0.015141712
-0.01585454
-0.016549646
-0.017268834
-0.018049791
-0.01891786
-0.019886757
-0.02095994
-0.022131258
-0.023385362
-0.0246979
-0.02603562
-0.027356347
-0.028609286
-0.029735541
-0.030669276
-0.031339565
-0.031673136
-0.031598203
-0.031049488
-0.029974868
-0.028342057
-0.026147607
-0.023425147
-0.020253071
-0.01675983
-0.013124679
-0.009571497
-0.0063535044
-0.0037278296
-0.0019218515
-0.0010978805
-0.0013212513
-0.0025243568
-0.0045208432
-0.0073221871
-0.011145108
-0.014846561
-0.016291193
-0.017288665
-0.01807095
-0.018800521
-0.01952579
-0.020291269
-0.021137455
-0.022092447
-0.02317243
-0.024382901
-0.025719192
-0.027166749
-0.028701152
-0.030288
-0.03188265
-0.033430226
-0.034865864
-0.036115582
-0.037097874
-0.037726272
-0.037913103
-0.03757458
-0.036638106
-0.035049209
-0.032782439
-0.029851529
-0.026320063
-0.022310596
-0.018009749
-0.013666181
-0.0095779067
-0.0060661584
-0.0034360784
-0.001930376
-0.0016817645
-0.0026580464
-0.0046684579
-0.0077294384
-0.012080859
-0.018056391
-0.01947043
-0.020455604
-0.021237078
-0.021974537
-0.022718632
-0.02351726
-0.024414676
-0.025442756
-0.026621153
-0.027958293
-0.029451766
-0.031088472
-0.032844508
-0.034684842
-0.036562854
-0.038420054
-0.040186074
-0.04177922
-0.043107769
-0.04407228
-0.044569203
-0.044495974
-0.04375725
-0.042275125
-0.039998249
-0.036915061
-0.033067174
-0.028562519
-0.023585686
-0.018401732
-0.01334863
-0.0088133395
-0.0051891419
-0.0028185468
-0.0019269721
-0.0025419267
-0.0044841054
-0.0077833426
-0.012704582
-0.02150009
-0.022883598
-0.023853472
-0.024626529
-0.025359147
-0.026104739
-0.026915805
-0.027841839
-0.028919978
-0.03017465
-0.031618295
-0.033251612
-0.035063616
-0.037031441
-0.039119857
-0.041280685
-0.043452247
-0.045559138
-0.047512487
-0.04921094
-0.050542673
-0.051388686
-0.051627609
-0.051142131
-0.049828793
-0.047608006
-0.044438685
-0.040333897
-0.035377928
-0.029742286
-0.023696742
-0.017609547
-0.011929436
-0.0071435637
-0.0037119919
-0.0019810109
-0.0020691987
-0.0038332192
-0.0073313358
-0.012857503
-0.025157345
-0.026517765
-0.027471578
-0.028226622
-0.028936414
-0.029658338
-0.030451522
-0.031372962
-0.032467137
-0.033764952
-0.035284136
-0.037029392
-0.038992442
-0.041151835
-0.043472409
-0.045904641
-0.048383939
-0.050830218
-0.053147927
-0.055226745
-0.056943274
-0.058163972
-0.058749553
-0.058561192
-0.057470293
-0.055367758
-0.052180293
-0.047887303
-0.042541258
-0.036289156
-0.029391521
-0.022232624
-0.015312535
-0.0092110924
-0.0045189287
-0.001731591
-0.0010964057
-0.0025408469
-0.0061762232
-0.012333415
-0.029009278
-0.030363979
-0.031303678
-0.032028067
-0.032689845
-0.033352715
-0.034085676
-0.034956573
-0.036020069
-0.037315694
-0.038867914
-0.0406863
-0.04276571
-0.045086236
-0.047612758
-0.050294331
-0.053063431
-0.055835413
-0.058508358
-0.060963548
-0.06306685
-0.064671272
-0.065621001
-0.065757237
-0.064926357
-0.062991262
-0.059845384
-0.05543141
-0.049763815
-0.042954839
-0.03524123
-0.027005788
-0.018783134
-0.011236097
-0.0050908983
-0.0010171551
0.00056738433
-0.0003814918
-0.0040657921
-0.01086823
-0.033041855
-0.034421405
-0.035351914
-0.036028128
-0.036606634
-0.037161676
-0.03777716
-0.03853656
-0.039508484
-0.04074367
-0.042274861
-0.044117202
-0.046268802
-0.048711039
-0.051408398
-0.054308012
-0.057339008
-0.06041194
-0.063418523
-0.066231953
-0.068708016
-0.07068732
-0.071998922
-0.072465692
-0.071911152
-0.070171589
-0.067108225
-0.062626458
-0.056699406
-0.049396981
-0.040919176
-0.031628838
-0.022073618
-0.012980921
-0.0052069499
0.00038778749
0.0031735357
0.0029331718
-0.00068023497
-0.0081275963
-0.037250762
-0.038703213
-0.039632131
-0.040234547
-0.040680116
-0.04106086
-0.041483189
-0.042052792
-0.042856951
-0.043960518
-0.045405933
-0.047214248
-0.049386425
-0.05190431
-0.054730993
-0.057810673
-0.061068224
-0.064408696
-0.067717033
-0.070858273
-0.073678431
-0.076006473
-0.077657497
-0.078437531
-0.078150172
-0.076606742
-0.073638763
-0.06911597
-0.062969804
-0.055223953
-0.046032155
-0.035720635
-0.024826662
-0.014116738
-0.0045598068
0.0027879535
0.0070486901
0.0077690372
0.0043833075
-0.0036918427
-0.041648749
-0.043245193
-0.044181178
-0.044670407
-0.044912327
-0.045028713
-0.045159529
-0.045441362
-0.045985728
-0.046874478
-0.048160662
-0.049870845
-0.052007664
-0.054551852
-0.057463407
-0.060681974
-0.064126727
-0.067696023
-0.07126715
-0.074696491
-0.077820146
-0.080455761
-0.082405236
-0.083459104
-0.083402723
-0.082025164
-0.079131142
-0.074557723
-0.068196891
-0.060026009
-0.050147721
-0.038839265
-0.026605803
-0.014223784
-0.0027473324
0.0065812818
0.012611127
0.01458743
0.011630498
0.0029634456
-0.046277467
-0.048118921
-0.049067287
-0.04938027
-0.049316592
-0.049046895
-0.048760094
-0.048634404
-0.048811445
-0.049392246
-0.050440247
-0.051985902
-0.054031199
-0.056553205
-0.059506315
-0.062823333
-0.066415752
-0.070173553
-0.073965057
-0.07763731
-0.081015455
-0.083905875
-0.086097428
-0.087365854
-0.087479705
-0.086207143
-0.08332926
-0.078653743
-0.072036729
-0.063412032
-0.052830934
-0.040514963
-0.026920275
-0.012804778
0.00072647483
0.01226858
0.020387655
0.023967044
0.021696353
0.012494867
-0.051227663
-0.053452578
-0.054405112
-0.054437984
-0.053919958
-0.053099856
-0.052235743
-0.051559487
-0.051247757
-0.051421064
-0.052150952
-0.053468252
-0.055370445
-0.057827192
-0.060783905
-0.064163606
-0.067867618
-0.071775462
-0.075744819
-0.079613338
-0.083192088
-0.086276805
-0.088642756
-0.090050922
-0.090254375
-0.088999153
-0.086045835
-0.081175227
-0.074211058
-0.065047454
-0.053687062
-0.040294104
-0.02526509
-0.0093152676
0.0064355724
0.020453925
0.031028838
0.036631172
0.035383002
0.025734302
-0.056675429
-0.059464828
-0.060377697
-0.05995638
-0.058765014
-0.057173145
-0.055532106
-0.054138571
-0.053206018
-0.052871039
-0.053207685
-0.054241037
-0.055958277
-0.058316586
-0.061248197
-0.06466284
-0.068448878
-0.072473422
-0.076581862
-0.080598017
-0.08432314
-0.087538285
-0.090004881
-0.091468407
-0.091663476
-0.090319727
-0.087173542
-0.081980258
-0.074533288
-0.0646898
-0.052406759
-0.037791919
-0.021176378
-0.0032141508
0.014994813
0.031828681
0.04531825
0.053481274
0.053715571
0.043762988
-0.062950024
-0.066520937
-0.067268268
-0.066098434
-0.063909819
-0.061249418
-0.058585778
-0.056286104
-0.05459557
-0.053657213
-0.053537197
-0.054245352
-0.055750584
-0.05799122
-0.060881181
-0.06431323
-0.068159966
-0.072273751
-0.076486052
-0.080606854
-0.084424299
-0.087705131
-0.09019595
-0.091625969
-0.091711451
-0.090162137
-0.086690651
-0.081025652
-0.072929206
-0.062221078
-0.048812319
-0.032752964
-0.014303086
0.0059616182
0.026993698
0.047128713
0.064167376
0.075635893
0.078025703
0.068046066
-0.070665553
-0.075226228
-0.075504246
-0.073087412
-0.069422826
-0.065299539
-0.06131684
-0.057904554
-0.055322058
-0.053699798
-0.053079355
-0.053441741
-0.05472728
-0.056847946
-0.059694093
-0.063137656
-0.067032839
-0.071215493
-0.075501947
-0.079687785
-0.083546964
-0.08683169
-0.089273166
-0.09058369
-0.090460477
-0.088591492
-0.084663703
-0.078376293
-0.069455913
-0.05767968
-0.042906131
-0.025119752
-0.0044978206
0.018490547
0.042886153
0.067044738
0.088576011
0.10446606
0.11007902
0.10069084
-0.080988417
-0.086579384
-0.085708048
-0.081204733
-0.075362776
-0.069260644
-0.063610949
-0.058871537
-0.055278698
-0.052918181
-0.051782877
-0.051806232
-0.052888446
-0.054906758
-0.05772266
-0.061184035
-0.065124801
-0.06936331
-0.073700304
-0.077916921
-0.081773116
-0.085006831
-0.087334093
-0.088450361
-0.088033562
-0.085748945
-0.081255427
-0.074219158
-0.064324872
-0.051297158
-0.03492779
-0.01511495
0.0080765938
0.034314083
0.062807968
0.092036369
0.11949934
0.14158876
0.15227241
0.1449538
-0.096203988
-0.10221327
-0.098713877
-0.090729201
-0.08170553
-0.0729704
-0.065265939
-0.058998309
-0.054314479
-0.051206749
-0.049584428
-0.049313662
-0.050239669
-0.052197233
-0.055014765
-0.058514131
-0.0625084
-0.066798709
-0.071171013
-0.075393107
-0.079212245
-0.082353526
-0.084519232
-0.085389323
-0.084623527
-0.08186465
-0.076742719
-0.068887535
-0.057934946
-0.043544307
-0.025419612
-0.0033402362
0.022789918
0.052852809
0.086331964
0.12199132
0.15751385
0.18871474
0.20787131
0.20607088
-0.12087644
-0.12474389
-0.11547064
-0.10174316
-0.088155701
-0.076007993
-0.065866921
-0.057935839
-0.052164927
-0.048382577
-0.046372587
-0.045908585
-0.046768628
-0.048739363
-0.051614489
-0.055190447
-0.059261182
-0.063612898
-0.068019299
-0.072237515
-0.076004865
-0.079036479
-0.08102386
-0.081634497
-0.080512918
-0.077281168
-0.071543284
-0.062891036
-0.050906902
-0.035173533
-0.015284015
0.0091423825
0.03843151
0.072791208
0.11215941
0.15590156
0.20228716
0.24720405
0.28099657
0.29203234
-0.16407637
-0.15806078
-0.13681636
-0.11389444
-0.09392567
-0.07752374
-0.06468217
-0.055126783
-0.048442019
-0.044199137
-0.042009116
-0.041532139
-0.042472816
-0.044570454
-0.047588004
-0.051301556
-0.055491148
-0.059933036
-0.064393347
-0.068622976
-0.072353605
-0.075294709
-0.077131513
-0.077524052
-0.07610717
-0.072483215
-0.066239739
-0.056932213
-0.044091165
-0.027218492
-0.0057806219
0.020801093
0.053160295
0.091978314
0.13791371
0.19143355
0.25227969
0.31713959
0.37590919
0.41499946
-0.24596639
-0.20598758
-0.16183934
-0.12531062
-0.097010443
-0.075821116
-0.060482737
-0.049767978
-0.04266264
-0.038393937
-0.036376899
-0.036160709
-0.037388572
-0.039766759
-0.043040834
-0.04697794
-0.051353667
-0.05594219
-0.060508738
-0.064803835
-0.068558863
-0.071482763
-0.073259683
-0.073548045
-0.071980415
-0.068143373
-0.06162151
-0.051940682
-0.038591121
-0.021005874
0.0014665639
0.029606626
0.064396263
0.1071222
0.1594941
0.22378252
0.30250475
0.395136
0.49585422
0.60281388
-0.42512458
-0.26540078
-0.17693387
-0.12442648
-0.088996687
-0.065063078
-0.049340588
-0.039226724
-0.033016142
-0.029665936
-0.028494953
-0.029022497
-0.03089016
-0.033814149
-0.037553159
-0.041887132
-0.046603015
-0.05148478
-0.056306091
-0.060824814
-0.064778847
-0.067882951
-0.069826113
-0.070268472
-0.068831072
-0.065154541
-0.058773153
-0.049215427
-0.03595839
-0.018402039
0.0041682104
0.032653512
0.068275177
0.11281884
0.16907515
0.24163256
0.33766976
0.46551543
0.64265306
0.92045812
-0.79297024
-0.32409285
-0.14868972
-0.087499291
-0.055216581
-0.035960116
-0.025119333
-0.019264419
-0.016419842
-0.015650687
-0.016463662
-0.01853767
-0.021634481
-0.025558498
-0.030132516
-0.035183214
-0.040532265
-0.04599018
-0.0513516
-0.056391559
-0.060862485
-0.064491825
-0.066980421
-0.068002723
-0.067213103
-0.064197246
-0.058545809
-0.0497982
-0.037441517
-0.020893174
0.00053598159
0.027711245
0.061809827
0.10460333
0.1590983
0.23114834
0.333458
0.49369314
0.78961532
1.3833752
2.078641e-05
-0.00011816273
-0.00041961313
-0.00080732038
-0.0012083652
-0.0015790928
-0.0018895475
-0.0021214665
-0.0022645773
-0.0023133938
-0.0022651327
-0.0021185523
-0.0018733124
-0.001529859
-0.001089699
-0.00055595573
6.60147e-05
0.00076796238
0.0015384043
0.0023620772
0.0032198785
0.0040891211
0.0049441202
0.0057571105
0.0064995716
0.0071438708
0.0076650521
0.0080427017
0.0082627624
0.0083190618
0.0082143953
0.0079611202
0.0075812583
0.0071061301
0.0065754002
0.0060349213
0.0055389162
0.0051422661
0.0049058111
0.0048655851
0.0001608534
1.9383178e-05
-0.0002218419
-0.0005183594
-0.00082613042
-0.0011119182
-0.0013522127
-0.0015313097
-0.0016391649
-0.0016695622
-0.0016187752
-0.0014846896
-0.0012662726
-0.00096348659
-0.000577498
-0.00011105863
0.0004310415
0.0010415121
0.0017101898
0.0024237449
0.0031656007
0.0039162713
0.0046537152
0.005354277
0.0059937838
0.0065489618
0.0069989904
0.0073270908
0.0075220411
0.0075794424
0.0075025908
0.0073028809
0.00699971
0.0066198886
0.0061965881
0.0057677104
0.0053737505
0.0050569682
0.0048614991
0.0048245184
0.00047074032
0.0002582919
1.1421301e-05
-0.00025630393
-0.00052361693
-0.00076668549
-0.00096824502
-0.0011165448
-0.0012036107
-0.001224137
-0.0011746317
-0.0010528076
-0.00085725742
-0.00058744267
-0.00024393053
0.00017126606
0.00065428273
0.0011989729
0.0017965323
0.0024352583
0.0031004902
0.0037747467
0.0044382427
0.0050695935
0.0056468722
0.0061489298
0.0065568328
0.0068553443
0.0070343445
0.007089999
0.0070255148
0.0068514258
0.0065853645
0.006251306
0.0058783384
0.0054990163
0.0051472037
0.0048563566
0.0046620761
0.0045934072
0.00087918607
0.00055637285
0.00026599029
-8.3964703e-06
-0.00026653716
-0.00049250312
-0.00067502362
-0.00080701031
-0.00088352034
-0.00090103692
-0.00085695358
-0.0007492048
-0.00057617198
-0.00033679352
-3.0833273e-05
0.00034070736
0.00077515591
0.0012676968
0.0018109701
0.0023947952
0.0030060246
0.0036286303
0.0042441866
0.0048324844
0.00537255
0.0058439457
0.0062281963
0.0065102666
0.0066799825
0.0067332065
0.0066725789
0.0065077463
0.0062550291
0.0059365223
0.0055786885
0.0052106175
0.0048623023
0.0045630046
0.0043381737
0.0042026412
0.0013137828
0.00086660834
0.00051585316
0.00021761831
-4.7559956e-05
-0.00027061148
-0.00044591995
-0.00057119134
-0.00064480392
-0.00066529268
-0.00063115704
-0.00054072409
-0.00039219494
-0.00018389702
8.5351357e-05
0.00041576301
0.00080606844
0.0012529546
0.001750598
0.0022903185
0.0028603281
0.003445773
0.0040290853
0.0045905958
0.0051095221
0.0055652711
0.0059389003
0.0062146613
0.0063815034
0.006434321
0.0063747413
0.0062113458
0.0059592813
0.0056392552
0.0052759585
0.0048961931
0.0045275819
0.0041968766
0.0039192478
0.003695914
0.0017236899
0.0011473882
0.00072754161
0.00039458661
0.00011100382
-0.00012003944
-0.00029810676
-0.00042544949
-0.0005036907
-0.00053343393
-0.00051430358
-0.00044502141
-0.00032358336
-0.00014759513
8.5239475e-05
0.0003765126
0.00072651612
0.0011335887
0.001593544
0.0020992028
0.0026400255
0.0032020732
0.0037682637
0.0043189548
0.0048329024
0.0052885837
0.0056657449
0.0059470638
0.0061197903
0.0061771299
0.0061191483
0.0059530694
0.0056928939
0.0053583292
0.0049730584
0.0045627297
0.004154115
0.0037733124
0.0034269804
0.0031018742
0.0020654538
0.0013616436
0.00086938571
0.00049546696
0.00018590802
-6.1241631e-05
-0.00025020593
-0.00038741376
-0.00047744423
-0.00052280375
-0.00052416505
-0.00048053731
-0.00038956121
-0.0002479806
-5.2241559e-05
0.0002008018
0.00051319001
0.00088507442
0.0013140148
0.0017943776
0.00231684
0.002868247
0.0034317435
0.003987311
0.0045126988
0.0049847805
0.0053812042
0.0056822124
0.0058724726
0.0059426734
0.0058906378
0.0057217857
0.0054488412
0.0050907603
0.0046708757
0.0042147527
0.0037497881
0.0033032385
0.0028751003
0.0024391721
0.0023022114
0.00147607
0.0009117572
0.00049419807
0.00015424075
-0.00011466793
-0.00032090134
-0.00047464247
-0.00058312026
-0.00065049771
-0.00067827416
-0.00066555147
-0.00060944451
-0.00050566055
-0.00034919769
-0.00013515487
0.00014045924
0.00047980237
0.00088235508
0.001344173
0.0018572394
0.002409188
0.0029832756
0.0035588599
0.0041122754
0.0046182134
0.0050514766
0.0053889839
0.0056118497
0.0057072724
0.0056699607
0.0055028694
0.0052171032
0.0048309271
0.0043678347
0.0038542718
0.0033196484
0.002794112
0.0022727802
0.0017180811
0.0024017598
0.001460381
0.00082664152
0.00036504582
-7.6455189e-06
-0.00030221131
-0.00053080753
-0.00070697915
-0.00084027444
-0.00093622384
-0.00099688867
-0.0010212341
-0.0010056378
-0.00094456265
-0.0008313432
-0.00065909374
-0.00042163054
-0.00011452966
0.0002638822
0.00071160834
0.0012221582
0.0017841333
0.002380959
0.0029912945
0.0035897889
0.0041484629
0.004638551
0.0050327082
0.0053073924
0.0054451369
0.0054364065
0.0052807475
0.0049870283
0.0045726487
0.0040615977
0.0034820464
0.0028667381
0.0022503803
0.0016246716
0.00094159931
0.0023351005
0.0012867921
0.00058762801
8.3034369e-05
-0.00032339595
-0.00064641025
-0.00090167141
-0.0011057535
-0.0012702065
-0.0014016365
-0.0015023991
-0.001571082
-0.0016031044
-0.001591461
-0.0015275853
-0.001402344
-0.0012070653
-0.00093472345
-0.00058107347
-0.00014577636
0.00036656493
0.00094604905
0.0015763824
0.0022356722
0.0028967948
0.0035287216
0.0040984335
0.0045733257
0.0049239364
0.0051266998
0.005166374
0.0050377826
0.0047465771
0.0043088051
0.003749051
0.0030979078
0.0023927099
0.0016743716
0.0009322797
0.00010827773
0.0020757017
0.00092976331
0.00017010495
-0.00037554805
-0.0008159024
-0.0011695257
-0.001455361
-0.0016927342
-0.0018949072
-0.0020692893
-0.0022182946
-0.002339914
-0.0024283925
-0.0024750312
-0.0024691132
-0.0023989695
-0.0022530923
-0.0020214336
-0.0016966894
-0.0012756511
-0.00076053843
-0.00015863828
0.00051400857
0.0012354371
0.0019769011
0.0027041208
0.003379219
0.0039633008
0.004419557
0.0047165899
0.0048315763
0.0047528228
0.0044812962
0.0040307725
0.0034261998
0.0027010817
0.0018985376
0.0010673672
0.00019543791
-0.00078588677
0.0015993529
0.00036603324
-0.00044847095
-0.0010326811
-0.0015067034
-0.0018928242
-0.0022130706
-0.0024892647
-0.0027361385
-0.0029616916
-0.0031682025
-0.0033528796
-0.0035086049
-0.0036247832
-0.0036883051
-0.0036846597
-0.0035991102
-0.0034180879
-0.0031306149
-0.0027297222
-0.002213816
-0.0015893428
-0.00086869995
-7.384177e-05
0.00076512818
0.0016107149
0.002419739
0.0031460155
0.0037438227
0.004171883
0.0043974388
0.0043998866
0.0041733966
0.0037279515
0.0030881516
0.0022905993
0.0013853074
0.00043072961
-0.00058623237
-0.0017455885
0.00088435251
-0.00042510705
-0.0012882264
-0.0019081663
-0.0024154302
-0.0028358921
-0.0031944964
-0.0035153402
-0.003814439
-0.0041002296
-0.004374714
-0.0046341872
-0.0048700315
-0.0050695943
-0.005217162
-0.0052950774
-0.0052849549
-0.0051691393
-0.0049322496
-0.0045628307
-0.004055065
-0.0034108192
-0.0026402894
-0.0017637922
-0.0008118382
0.00017526545
0.0011488748
0.0020546583
0.0028363667
0.0034405107
0.0038215261
0.0039467885
0.0038007292
0.0033871946
0.0027290367
0.0018656918
0.0008550318
-0.00023293758
-0.0014118727
-0.0027744851
-8.8080962e-05
-0.0014614567
-0.0023665006
-0.0030191611
-0.0035591855
-0.0040158856
-0.0044169651
-0.0047886125
-0.0051479967
-0.0055038969
-0.0058579673
-0.0062055324
-0.0065364129
-0.0068358007
-0.0070852119
-0.0072635685
-0.0073484169
-0.0073174139
-0.0071499628
-0.0068290803
-0.0063433971
-0.005689304
-0.0048727733
-0.0039111276
-0.0028340356
-0.001683732
-0.00051404717
0.00061199776
0.0016261137
0.0024600877
0.0030521708
0.0033538002
0.0033356988
0.0029921415
0.002341856
0.0014261609
0.00031148656
-0.00091858546
-0.0022779099
-0.0038735299
-0.0013333078
-0.0027575037
-0.0036974162
-0.0043796691
-0.0049519286
-0.0054467835
-0.0058945415
-0.0063233375
-0.0067514147
-0.007187869
-0.0076340208
-0.008084257
-0.008526863
-0.00894486
-0.0093168988
-0.0096182638
-0.0098220547
-0.0099006518
-0.0098274128
-0.0095787006
-0.0091361639
-0.0084892471
-0.007637682
-0.0065938942
-0.0053848806
-0.0040532871
-0.0026572219
-0.0012683958
3.169182e-05
0.0011576156
0.0020276747
0.0025726189
0.0027442925
0.0025225644
0.0019183192
0.00097277289
-0.00023888264
-0.001617408
-0.0031764592
-0.0050392164
-0.0028627566
-0.0043240072
-0.0052914471
-0.0060000318
-0.0066038792
-0.0071386607
-0.0076371399
-0.0081292908
-0.0086344135
-0.0091619774
-0.0097130799