/*--------------------------------*- C++ -*----------------------------------*\
  =========                 |
  \\      /  F ield         | OpenFOAM: The Open Source CFD Toolbox
   \\    /   O peration     | Website:  https://openfoam.org
    \\  /    A nd           | Version:  7
     \\/     M anipulation  |
\*---------------------------------------------------------------------------*/
FoamFile
{
    version     2.0;
    format      ascii;
    class       surfaceScalarField;
    location    "8";
    object      phi;
}
// * * * * * * * * * * * * * * * * * * * * * * * * * * * * * * * * * * * * * //

dimensions      [0 3 -1 0 0 0 0];

internalField   nonuniform List<scalar> 
45600
(
2.6895568e-07
-2.6842767e-07
-4.3371593e-10
3.8488665e-07
-1.1559691e-07
-3.1250078e-10
1.1233376e-07
2.7268364e-07
-1.6345715e-10
-5.720411e-07
6.8445648e-07
-7.1718883e-11
-1.6272169e-06
1.0552043e-06
-2.253955e-11
-2.9842184e-06
1.3569986e-06
3.7472247e-12
-4.5704163e-06
1.5861916e-06
1.8367263e-11
-6.3191282e-06
1.7486739e-06
2.5571652e-11
-8.1719908e-06
1.8528331e-06
2.8371675e-11
-1.0078508e-05
1.9064979e-06
2.8261416e-11
-1.1994249e-05
1.915717e-06
2.6637835e-11
-1.3878713e-05
1.8844303e-06
2.5051888e-11
-1.5693358e-05
1.8146169e-06
2.4041655e-11
-1.7400094e-05
1.7067153e-06
2.275197e-11
-1.8960348e-05
1.5602353e-06
2.0396168e-11
-2.033482e-05
1.3744538e-06
1.7174889e-11
-2.1483937e-05
1.1491063e-06
7.7833867e-12
-2.2368964e-05
8.850222e-07
1.3026668e-11
-2.2953681e-05
5.8470424e-07
1.1520558e-11
-2.3206477e-05
2.5277975e-07
9.2909767e-12
-2.3102766e-05
-1.03717e-07
7.0396855e-12
-2.2627512e-05
-4.7526143e-07
4.4099491e-12
-2.1777624e-05
-8.4989352e-07
1.3309111e-12
-2.0563991e-05
-1.2136289e-06
-1.6303238e-12
-1.9012931e-05
-1.5510548e-06
-4.4090018e-12
-1.7166783e-05
-1.8461468e-06
-7.0689458e-12
-1.5083485e-05
-2.0832921e-06
-9.1602193e-12
-1.2835041e-05
-2.2484286e-06
-1.0338178e-11
-1.0504837e-05
-2.330189e-06
-1.0800943e-11
-8.1838867e-06
-2.3209424e-06
-1.0826531e-11
-5.9662319e-06
-2.2176448e-06
-1.0186157e-11
-3.9438009e-06
-2.022417e-06
-8.6689294e-12
-2.200966e-06
-1.7428237e-06
-6.4203631e-12
-8.0895e-07
-1.3920126e-06
-3.6809995e-12
1.803671e-07
-9.8931907e-07
-6.6204692e-13
7.4247685e-07
-5.6211194e-07
1.9422314e-12
8.8788668e-07
-1.4541287e-07
5.0978862e-12
6.8201271e-07
2.0586668e-07
8.8527894e-12
2.8343627e-07
3.9856433e-07
1.2770835e-11
2.8343227e-07
6.2082251e-12
1.2426924e-07
-3.9236785e-07
-3.1142549e-10
-3.1118815e-07
3.2006259e-07
-2.2805991e-10
-1.6042979e-06
1.5659542e-06
-1.3025032e-10
-3.8166071e-06
2.8968059e-06
-6.7923089e-11
-6.8764094e-06
4.1150197e-06
-3.2745219e-11
-1.0653604e-05
5.1342285e-06
-1.3177785e-11
-1.499598e-05
5.9285765e-06
-3.5023326e-12
-1.9750663e-05
6.5033466e-06
1.0385861e-13
-2.4773892e-05
6.876066e-06
1.9623741e-13
-2.993372e-05
7.0663253e-06
-1.7124164e-12
-3.5108837e-05
7.0908331e-06
-3.5211499e-12
-4.0185804e-05
6.9614059e-06
-3.8820651e-12
-4.5055984e-05
6.6848135e-06
-3.5898171e-12
-4.9613051e-05
6.2637886e-06
-3.7908056e-12
-5.3751571e-05
5.6987507e-06
-4.2051122e-12
-5.7366992e-05
4.989878e-06
-3.9664109e-12
-6.0357117e-05
4.1392338e-06
-2.8245702e-12
-6.2624897e-05
3.1528101e-06
1.2486478e-13
-6.4082486e-05
2.0422895e-06
3.2771348e-12
-6.4656104e-05
8.263804e-07
6.3263181e-12
-6.4291676e-05
-4.681592e-07
9.7795257e-12
-6.2959957e-05
-1.806993e-06
1.324082e-11
-6.0662147e-05
-3.1477223e-06
1.6185439e-11
-5.7433781e-05
-4.4420185e-06
1.8880427e-11
-5.3347533e-05
-5.6373272e-06
2.1477203e-11
-4.8514015e-05
-6.6796883e-06
2.3748246e-11
-4.308028e-05
-7.5170517e-06
2.5593072e-11
-3.7225812e-05
-8.1029244e-06
2.6944839e-11
-3.1155958e-05
-8.4000705e-06
2.7642809e-11
-2.5092974e-05
-8.3839524e-06
2.7473358e-11
-1.9265046e-05
-8.0455956e-06
2.6478159e-11
-1.3893799e-05
-7.3936846e-06
2.4765916e-11
-9.1807664e-06
-6.4558765e-06
2.2354425e-11
-5.2931397e-06
-5.2796558e-06
1.9331216e-11
-2.3488923e-06
-3.9335774e-06
1.5934745e-11
-4.0093332e-07
-2.5100776e-06
1.2363673e-11
5.8569634e-07
-1.1320471e-06
8.6466578e-12
7.5883211e-07
3.2726628e-08
6.9250695e-12
4.0136132e-07
7.5603109e-07
7.8425032e-12
6.8479464e-07
1.0515917e-12
-2.7328573e-07
-1.1894594e-07
-1.6977701e-10
-1.6031978e-06
1.6501303e-06
-1.2550022e-10
-4.206593e-06
4.1694371e-06
-7.6169037e-11
-8.0957305e-06
6.7859664e-06
-3.7870741e-11
-1.3163528e-05
9.1828372e-06
-1.1155833e-11
-1.9234952e-05
1.1205634e-05
5.0049956e-12
-2.6104434e-05
1.2798031e-05
1.3515326e-11
-3.3559753e-05
1.3958667e-05
1.6803156e-11
-4.1394805e-05
1.4711112e-05
1.6360784e-11
-4.9414499e-05
1.5085992e-05
1.4547288e-11
-5.7434973e-05
1.5111279e-05
1.3420688e-11
-6.5281432e-05
1.4807859e-05
1.3255283e-11
-7.2785341e-05
1.4188719e-05
1.2629165e-11
-7.9782079e-05
1.326051e-05
1.0975006e-11
-8.6109882e-05
1.2026541e-05
9.4009411e-12
-9.1610542e-05
1.0490533e-05
8.3949801e-12
-9.6131899e-05
8.6605851e-06
7.9180303e-12
-9.953206e-05
6.5529631e-06
8.0293076e-12
-0.00010168513
4.1953461e-06
8.1722855e-12
-0.00010248804
1.6292759e-06
8.3259156e-12
-0.00010186778
-1.0884271e-06
8.6187775e-12
-9.9788919e-05
-3.8858651e-06
8.5361177e-12
-9.6260144e-05
-6.6765121e-06
8.0218799e-12
-9.1339575e-05
-9.3625969e-06
7.5962136e-12
-8.5138057e-05
-1.1838853e-05
7.3725588e-12
-7.7819826e-05
-1.399793e-05
7.125034e-12
-6.9600092e-05
-1.5736794e-05
6.9649788e-12
-6.0739261e-05
-1.6963758e-05
7.0504967e-12
-5.1533701e-05
-1.7605636e-05
7.1794626e-12
-4.23032e-05
-1.7614462e-05
7.135776e-12
-3.3375563e-05
-1.697324e-05
7.0353809e-12
-2.506894e-05
-1.5700311e-05
7.0506633e-12
-1.7672563e-05
-1.3852257e-05
7.1235965e-12
-1.142653e-05
-1.1525698e-05
7.1303325e-12
-6.5011155e-06
-8.8590018e-06
7.1177742e-12
-2.9754646e-06
-6.0357347e-06
7.1740391e-12
-8.153051e-07
-3.2922088e-06
7.1252086e-12
1.4869652e-07
-9.3127781e-07
7.5424395e-12
2.4706192e-07
6.5765945e-07
8.9476679e-12
9.3185269e-07
4.6062877e-12
-7.3115353e-07
6.1230136e-07
-8.3054795e-11
-3.1075469e-06
4.0265512e-06
-5.6780312e-11
-7.1682254e-06
8.2301523e-06
-3.7683796e-11
-1.2831545e-05
1.2449336e-05
-1.5558531e-11
-1.9927234e-05
1.6278532e-05
2.1306743e-12
-2.8230347e-05
1.9508718e-05
1.2913424e-11
-3.7489252e-05
2.2056918e-05
1.8146224e-11
-4.7445475e-05
2.3914877e-05
1.9276686e-11
-5.7845264e-05
2.5110879e-05
1.8144108e-11
-6.8444641e-05
2.5685352e-05
1.7034369e-11
-7.9010182e-05
2.5676804e-05
1.6491122e-11
-8.9317417e-05
2.511508e-05
1.589452e-11
-9.9148573e-05
2.4019861e-05
1.4564721e-11
-0.00010829087
2.2402782e-05
1.2760332e-11
-0.00011653615
2.0271811e-05
1.1388195e-11
-0.00012368244
1.7636826e-05
1.046005e-11
-0.00012953744
1.4515571e-05
9.7410318e-12
-0.00013392382
1.0939331e-05
9.4461659e-12
-0.00013668624
6.9577497e-06
9.0893891e-12
-0.00013769936
2.6423814e-06
8.677847e-12
-0.00013687631
-1.9114803e-06
8.4150805e-12
-0.00013417737
-6.5848155e-06
7.7249267e-12
-0.00012961733
-1.1236572e-05
6.5919597e-12
-0.00012327153
-1.57084e-05
5.6335973e-12
-0.00011527958
-1.9830806e-05
5.0343455e-12
-0.00010584597
-2.3431543e-05
4.5285447e-12
-9.5237228e-05
-2.6345546e-05
4.073409e-12
-8.3775104e-05
-2.8425887e-05
3.8809825e-12
-7.1825709e-05
-2.9555033e-05
3.8922319e-12
-5.9784628e-05
-2.9655544e-05
3.9356876e-12
-4.8058462e-05
-2.8699407e-05
4.0557689e-12
-3.7043464e-05
-2.6715311e-05
4.356858e-12
-2.7102148e-05
-2.3793578e-05
4.7893975e-12
-1.8538883e-05
-2.0088967e-05
5.2585407e-12
-1.1575531e-05
-1.5822357e-05
5.7829246e-12
-6.328001e-06
-1.1283268e-05
6.4350048e-12
-2.7844967e-06
-6.8357172e-06
7.2131069e-12
-7.8827697e-07
-2.9275027e-06
7.7638452e-12
-2.3799459e-08
-1.0682439e-07
7.7463776e-12
9.0804621e-07
7.4661741e-12
-1.1970138e-06
1.8093633e-06
-4.0206126e-11
-4.6615448e-06
7.4910689e-06
-1.4604209e-11
-1.023651e-05
1.3805138e-05
-1.2135722e-11
-1.7713426e-05
1.992625e-05
-1.4706175e-12
-2.6837575e-05
2.5402669e-05
9.4354235e-12
-3.7324175e-05
2.9995309e-05
1.5195832e-11
-4.8874784e-05
3.3607518e-05
1.6611866e-11
-6.1189969e-05
3.6230039e-05
1.581177e-11
-7.3977045e-05
3.7897927e-05
1.4723043e-11
-8.6953369e-05
3.8661667e-05
1.4314424e-11
-9.9846491e-05
3.8569926e-05
1.3836114e-11
-0.00011239257
3.7661144e-05
1.2604224e-11
-0.00012433445
3.5961719e-05
1.1004907e-11
-0.00013542053
3.3488845e-05
9.5819796e-12
-0.00014540509
3.0256378e-05
8.8979951e-12
-0.00015405063
2.6282361e-05
8.3851816e-12
-0.0001611321
2.1597019e-05
7.9668865e-12
-0.0001664431
1.6250317e-05
8.1831269e-12
-0.00016980369
1.0318337e-05
8.3862509e-12
-0.00017106925
3.9079289e-06
8.3520293e-12
-0.00017013978
-2.8409608e-06
8.3803853e-12
-0.00016696917
-9.7554318e-06
8.1255689e-12
-0.0001615735
-1.6632259e-05
7.5709647e-12
-0.00015403765
-2.3244252e-05
7.2164909e-12
-0.00014451965
-2.9348812e-05
7.1488322e-12
-0.00013325175
-3.4699455e-05
7.1152535e-12
-0.00012053776
-3.9059544e-05
7.0530903e-12
-0.00010674609
-4.2217564e-05
7.1135911e-12
-9.229813e-05
-4.4002992e-05
7.2348874e-12
-7.7652041e-05
-4.4301639e-05
7.2572292e-12
-6.3282178e-05
-4.3069278e-05
7.1871608e-12
-4.9654971e-05
-4.0342524e-05
7.1621065e-12
-3.720229e-05
-3.6246262e-05
7.2112098e-12
-2.6293716e-05
-3.0997544e-05
7.2450669e-12
-1.7209363e-05
-2.4906715e-05
7.2275287e-12
-1.0114997e-05
-1.837764e-05
7.3327355e-12
-5.0413365e-06
-1.1909384e-05
7.8997298e-12
-1.8701143e-06
-6.0987301e-06
7.5442601e-12
-3.3017693e-07
-1.6467651e-06
4.6525709e-12
5.7786123e-07
9.5743568e-12
-1.6453336e-06
3.4547211e-06
-1.9859483e-11
-6.1882319e-06
1.2033979e-05
1.1572185e-11
-1.3275314e-05
2.0892202e-05
3.7299738e-12
-2.255846e-05
2.9209362e-05
7.7053882e-12
-3.368554e-05
3.6529742e-05
1.437321e-11
-4.6303497e-05
4.2613267e-05
1.639505e-11
-6.0064035e-05
4.7368026e-05
1.5473436e-11
-7.4628402e-05
5.0794382e-05
1.449198e-11
-8.9670064e-05
5.2939583e-05
1.4129356e-11
-0.00010487493
5.3866526e-05
1.3813763e-11
-0.00011993982
5.3634798e-05
1.2776918e-11
-0.00013457018
5.2291489e-05
1.1226218e-11
-0.00014847808
4.9869618e-05
9.9251082e-12
-0.00016138133
4.6392084e-05
8.7765375e-12
-0.00017300419
4.1879232e-05
8.1993589e-12
-0.00018308021
3.6358367e-05
7.8614863e-12
-0.00019135699
2.9873792e-05
7.6768061e-12
-0.00019760294
2.2496261e-05
8.0690132e-12
-0.00020161554
1.433092e-05
8.3311506e-12
-0.00020323068
5.5230578e-06
8.2400601e-12
-0.00020233265
-3.7389997e-06
8.1647973e-12
-0.00019886395
-1.3224142e-05
7.9527346e-12
-0.00019283446
-2.266175e-05
7.5372906e-12
-0.00018432909
-3.1749631e-05
7.2869554e-12
-0.00017351309
-4.0164822e-05
7.3057318e-12
-0.00016063434
-4.7578209e-05
7.40034e-12
-0.00014602173
-5.3672164e-05
7.4788302e-12
-0.00013007887
-5.8160431e-05
7.5828863e-12
-0.00011327272
-6.0809145e-05
7.6508805e-12
-9.6116825e-05
-6.1457541e-05
7.632354e-12
-7.9149337e-05
-6.0036773e-05
7.5528349e-12
-6.2906619e-05
-5.6585246e-05
7.4978982e-12
-4.7893643e-05
-5.1259241e-05
7.4968845e-12
-3.4552997e-05
-4.4338196e-05
7.470295e-12
-2.3234734e-05
-3.6224984e-05
7.3429906e-12
-1.4169596e-05
-2.7442786e-05
7.3987465e-12
-7.4482769e-06
-1.8630711e-05
8.2988104e-12
-3.0098502e-06
-1.053716e-05
7.478141e-12
-6.4265542e-07
-4.0139597e-06
1.9476783e-12
-6.4804076e-08
1.1821722e-11
-2.068584e-06
5.5233264e-06
-1.0102796e-11
-7.6524157e-06
1.7617781e-05
2.7301502e-11
-1.6212397e-05
2.9452163e-05
1.231311e-11
-2.7259416e-05
4.0256373e-05
1.2142009e-11
-4.0338665e-05
4.960897e-05
1.5830793e-11
-5.5023945e-05
5.7298533e-05
1.5770852e-11
-7.0914722e-05
6.3258785e-05
1.4618519e-11
-8.763361e-05
6.7513259e-05
1.4216043e-11
-0.00010482356
7.0129524e-05
1.3939684e-11
-0.00012214432
7.1187283e-05
1.3177189e-11
-0.00013926859
7.0759052e-05
1.1773962e-11
-0.00015587837
6.8901252e-05
1.0291282e-11
-0.00017166232
6.565357e-05
9.2500577e-12
-0.0001863147
6.1044452e-05
8.3220901e-12
-0.00019953606
5.5100586e-05
7.899043e-12
-0.00021103623
4.7858527e-05
7.6817199e-12
-0.00022053927
3.9376814e-05
7.6070615e-12
-0.00022779033
2.9747317e-05
8.0251438e-12
-0.00023256419
1.9104766e-05
8.2244131e-12
-0.00023467484
7.6337012e-06
8.0444556e-12
-0.00023398596
-4.427896e-06
7.8215028e-12
-0.00023042136
-1.6788743e-05
7.5329875e-12
-0.00022397539
-2.9107733e-05
7.1816417e-12
-0.00021472183
-4.1003201e-05
7.0197123e-12
-0.00020282107
-5.2065591e-05
7.1041769e-12
-0.00018852433
-6.1874952e-05
7.2498188e-12
-0.00017217405
-7.0022456e-05
7.3594849e-12
-0.00015419933
-7.6135154e-05
7.4260105e-12
-0.00013510576
-7.990272e-05
7.4363978e-12
-0.00011545888
-8.1104428e-05
7.4183776e-12
-9.5861378e-05
-7.9634277e-05
7.3913571e-12
-7.6924628e-05
-7.5522e-05
7.3695538e-12
-5.9235928e-05
-6.8947945e-05
7.3646787e-12
-4.3323696e-05
-6.0250436e-05
7.3090396e-12
-2.9623411e-05
-4.9925278e-05
7.1211541e-12
-1.8447578e-05
-3.8618627e-05
7.2420503e-12
-9.9631036e-06
-2.7115192e-05
8.664035e-12
-4.1795856e-06
-1.632068e-05
7.5040092e-12
-9.5187648e-07
-7.2416659e-06
-7.8021362e-13
-1.0166939e-06
1.4063998e-11
-2.465289e-06
7.9886138e-06
-7.2096641e-12
-9.0383274e-06
2.4190783e-05
3.6151968e-11
-1.9008688e-05
3.9422512e-05
1.5333573e-11
-3.1751487e-05
5.2999173e-05
1.221092e-11
-4.6709736e-05
6.4567198e-05
1.478321e-11
-6.3383155e-05
7.3971922e-05
1.4379121e-11
-8.1318519e-05
8.1194134e-05
1.3809546e-11
-0.00010010088
8.6295617e-05
1.3693709e-11
-0.00011934548
8.9374119e-05
1.3069132e-11
-0.00013869029
9.0532079e-05
1.1723827e-11
-0.00015778937
8.9858112e-05
1.026009e-11
-0.00017630743
8.7419308e-05
9.0937167e-12
-0.0001939161
8.3262246e-05
8.3534895e-12
-0.00021029212
7.7420464e-05
7.5780177e-12
-0.00022511768
6.9926133e-05
7.3279142e-12
-0.00023808307
6.0823903e-05
7.3180062e-12
-0.00024889142
5.0185152e-05
7.394471e-12
-0.00025726539
3.8121273e-05
7.8351442e-12
-0.00026295552
2.4794888e-05
7.9671234e-12
-0.00026575002
1.0428193e-05
7.7152996e-12
-0.00026548556
-4.6923598e-06
7.4320333e-12
-0.00026205856
-2.0215757e-05
7.178646e-12
-0.00025543694
-3.5729362e-05
6.9990024e-12
-0.00024567102
-5.0769125e-05
7.0182875e-12
-0.00023290314
-6.4833479e-05
7.2013642e-12
-0.00021737479
-7.7403303e-05
7.4003122e-12
-0.00019943011
-8.796715e-05
7.5450574e-12
-0.0001795142
-9.6051067e-05
7.6025809e-12
-0.00015816524
-0.00010125169
7.5771122e-12
-0.00013599911
-0.00010327056
7.5440222e-12
-0.00011368636
-0.00010194704
7.5265635e-12
-9.1921727e-05
-9.7286633e-05
7.4844557e-12
-7.1387876e-05
-8.9481803e-05
7.415658e-12
-5.2715696e-05
-7.8922625e-05
7.2758576e-12
-3.6444825e-05
-6.6196159e-05
6.9811166e-12
-2.2988353e-05
-5.2075104e-05
7.1316949e-12
-1.2605891e-05
-3.7497659e-05
9.0665067e-12
-5.3889691e-06
-2.3537606e-05
7.5053604e-12
-1.2620966e-06
-1.1368534e-05
-3.6161458e-12
-2.2788083e-06
1.6403456e-11
-2.8349819e-06
1.0823584e-05
-8.5336636e-12
-1.0337012e-05
3.1692781e-05
4.0294439e-11
-2.1639244e-05
5.0724733e-05
1.4597101e-11
-3.5989856e-05
6.734977e-05
9.9544552e-12
-5.2734219e-05
8.1311541e-05
1.3312493e-11
-7.1300266e-05
9.2537951e-05
1.3555044e-11
-9.1183756e-05
0.00010107762
1.3129931e-11
-0.00011193424
0.00010704609
1.2454513e-11
-0.00013314222
0.00011058209
1.1376041e-11
-0.00015442791
0.00011181775
1.0012069e-11
-0.0001754316
0.0001108618
8.8412426e-12
-0.00019580619
0.0001077939
7.9629302e-12
-0.00021521186
0.00010266792
7.3905897e-12
-0.0002333132
9.5521788e-05
6.7437317e-12
-0.0002497787
8.6391619e-05
6.7152258e-12
-0.00026428267
7.5327868e-05
6.9700372e-12
-0.00027650934
6.2411812e-05
7.160916e-12
-0.00028615894
4.7770865e-05
7.491955e-12
-0.00029295569
3.1591631e-05
7.5216477e-12
-0.00029665744
1.4129931e-05
7.2716183e-12
-0.00029706681
-4.2829981e-06
7.023091e-12
-0.00029404318
-2.3239397e-05
6.8962446e-12
-0.00028751639
-4.2256152e-05
6.926857e-12
-0.00027749989
-6.0785631e-05
7.1300614e-12
-0.00026410357
-7.8229805e-05
7.392011e-12
-0.00024754484
-9.3962039e-05
7.6099249e-12
-0.00022815633
-0.00010735567
7.7705621e-12
-0.00020638848
-0.00011781892
7.8379946e-12
-0.00018280517
-0.00012483501
7.8126913e-12
-0.00015807075
-0.00012800499
7.7611253e-12
-0.0001329275
-0.00012709029
7.6948062e-12
-0.00010816348
-0.00012205066
7.5661008e-12
-8.4572113e-05
-0.00011307317
7.4104337e-12
-6.2906465e-05
-0.00010058828
7.2156825e-12
-4.3832261e-05
-8.5270369e-05
6.8476278e-12
-2.788482e-05
-6.8022548e-05
7.0308475e-12
-1.5434957e-05
-4.9947529e-05
9.4589479e-12
-6.668595e-06
-3.2303974e-05
7.4124412e-12
-1.5834371e-06
-1.6453687e-05
-6.6510654e-12
-3.8622667e-06
1.8740612e-11
-3.176652e-06
1.4000259e-05
-1.1786852e-11
-1.154062e-05
4.0056704e-05
4.1691589e-11
-2.4083387e-05
6.3267472e-05
1.2462156e-11
-3.9937008e-05
8.3203374e-05
7.7505728e-12
-5.8356429e-05
9.9730957e-05
1.240347e-11
-7.8702516e-05
0.00011288403
1.2839609e-11
-0.00010042347
0.00012279856
1.180323e-11
-0.00012303642
0.00012965903
1.06445e-11
-0.00014611059
0.00013365624
9.4702802e-12
-0.00016925236
0.00013495952
8.4271643e-12
-0.00019209291
0.00013370234
7.5668382e-12
-0.00021427829
0.00012997928
6.7992212e-12
-0.00023546243
0.00012385204
6.3812436e-12
-0.00025530272
0.00011536207
6.0249236e-12
-0.00027345833
0.00010454723
6.2396468e-12
-0.00028959097
9.1460495e-05
6.5983941e-12
-0.00030336786
7.6188693e-05
6.7941945e-12
-0.00031446693
5.8869937e-05
6.9720333e-12
-0.00032258407
3.9708754e-05
6.8955678e-12
-0.0003274423
1.8988148e-05
6.6851269e-12
-0.00032880352
-2.9217787e-06
6.5085887e-12
-0.00032647996
-2.5562967e-05
6.631813e-12
-0.00032035165
-4.8384472e-05
6.8880934e-12
-0.00031038102
-7.0756266e-05
7.2372391e-12
-0.00029662998
-9.1980857e-05
7.5530574e-12
-0.00027927575
-0.00011131627
7.7818854e-12
-0.00025862412
-0.00012800731
7.9557391e-12
-0.00023511763
-0.00014132542
8.0377686e-12
-0.00020933647
-0.00015061617
8.0216085e-12
-0.00018198942
-0.00015535204
7.9498819e-12
-0.00015389302
-0.0001551867
7.8143847e-12
-0.00012593832
-0.00015000537
7.5771453e-12
-9.9046104e-05
-0.0001399654
7.3416543e-12
-7.411368e-05
-0.00012552071
7.1244237e-12
-5.1958172e-05
-0.00010742588
6.7194319e-12
-3.3262608e-05
-8.6718115e-05
6.9487382e-12
-1.8531343e-05
-6.4678804e-05
9.8612007e-12
-8.0607989e-06
-4.2774525e-05
7.2629512e-12
-1.929286e-06
-2.2585193e-05
-9.9426198e-12
-5.7915763e-06
2.118272e-11
-3.4883873e-06
1.7488668e-05
-1.6172488e-11
-1.2640186e-05
4.920845e-05
4.2471258e-11
-2.6320155e-05
7.694742e-05
1.1084748e-11
-4.3556288e-05
0.0001004395
6.414702e-12
-6.352201e-05
0.00011969668
1.1447275e-11
-8.5517481e-05
0.0001348795
1.1443722e-11
-0.00010894808
0.00014622913
9.8119872e-12
-0.00013330253
0.00015401346
8.6751128e-12
-0.00015813255
0.00015848626
7.8003086e-12
-0.00018303484
0.00015986181
6.9884162e-12
-0.00020763584
0.00015830335
6.2821288e-12
-0.00023157962
0.00015392305
5.6699182e-12
-0.00025451876
0.00014679117
5.5032723e-12
-0.00027610835
0.00013695165
5.4493285e-12
-0.00029600263
0.0001244415
5.8191909e-12
-0.00031385426
0.00010931212
6.113612e-12
-0.00032931585
9.165028e-05
6.2086197e-12
-0.00034204384
7.1597918e-05
6.2656226e-12
-0.00035170455
4.9369454e-05
6.1797819e-12
-0.00035798245
2.5266038e-05
6.0646051e-12
-0.00036059368
-3.1055688e-07
5.8741237e-12
-0.00035929304
-2.6863613e-05
6.3663067e-12
-0.00035390019
-5.377733e-05
6.8399309e-12
-0.00034431199
-8.0344467e-05
7.3020811e-12
-0.00033052586
-0.000105767
7.6513127e-12
-0.0003126609
-0.00012918123
7.9145015e-12
-0.00029097783
-0.00014969039
8.1337537e-12
-0.00026589449
-0.00016640877
8.238112e-12
-0.00023799384
-0.00017851682
8.2042607e-12
-0.00020802091
-0.00018532498
8.0847972e-12
-0.00017686557
-0.00018634204
7.8817905e-12
-0.00014552943
-0.00018134152
7.5623828e-12
-0.00011507686
-0.00017041798
7.2756808e-12
-8.65732e-05
-0.00015402438
7.0554488e-12
-6.1015806e-05
-0.00013298328
6.6172967e-12
-3.9265774e-05
-0.00010846815
6.8969676e-12
-2.198896e-05
-8.1955628e-05
1.0339613e-11
-9.6143321e-06
-5.5149162e-05
7.1663355e-12
-2.3145431e-06
-2.9884972e-05
-1.351816e-11
-8.1061452e-06
2.397686e-11
-3.7673491e-06
2.125603e-05
-2.0094104e-11
-1.3625033e-05
5.9066097e-05
4.3982052e-11
-2.8326706e-05
9.1649088e-05
1.0468765e-11
-4.6809263e-05
0.00011892206
4.9544748e-12
-6.8174558e-05
0.00014106196
9.6580048e-12
-9.1669441e-05
0.00015837436
9.2863698e-12
-0.00011666202
0.0001712217
7.7771079e-12
-0.00014261713
0.00017996857
6.9266503e-12
-0.00016907313
0.00018494225
6.2945567e-12
-0.0001956211
0.00018640978
5.6514537e-12
-0.00022188715
0.0001845694
5.1212148e-12
-0.00024751801
0.00017955389
4.7641848e-12
-0.00027216987
0.00017144303
4.8914875e-12
-0.00029550043
0.0001602822
5.013833e-12
-0.00031716373
0.00014610481
5.337632e-12
-0.00033680757
0.00012895595
5.4667279e-12
-0.00035407323
0.00010891594
5.4665892e-12
-0.00036859767
8.6122349e-05
5.4423206e-12
-0.00038001809
6.0789859e-05
5.4074361e-12
-0.00038797957
3.3227512e-05
5.5962617e-12
-0.00039214328
3.8531482e-06
6.124375e-12
-0.0003922076
-2.6799298e-05
6.2523998e-12
-0.00038791649
-5.8068447e-05
6.7297958e-12
-0.00037908849
-8.9172469e-05
7.2745929e-12
-0.00036563971
-0.0001192158
7.6753542e-12
-0.00034761154
-0.00014720941
8.0010207e-12
-0.00032519832
-0.00017210361
8.2900441e-12
-0.00029877184
-0.00019283525
8.4420943e-12
-0.00026889869
-0.00020838997
8.3974082e-12
-0.00023634591
-0.00021787778
8.2132442e-12
-0.00020207006
-0.0002206179
7.926843e-12
-0.00016718646
-0.00021622512
7.5495779e-12
-0.00013291716
-0.00020468728
7.2366032e-12
-0.00010051991
-0.00018642163
7.0053897e-12
-7.1204568e-05
-0.00016229863
6.4959851e-12
-4.604642e-05
-0.00013362631
6.8231142e-12
-2.5908106e-05
-0.00010209395
1.0921015e-11
-1.1381215e-05
-6.9676061e-05
7.1653672e-12
-2.7548184e-06
-3.8511352e-05
-1.7473209e-11
-1.0860992e-05
2.7332084e-11
-4.0100246e-06
2.5266072e-05
-2.2908303e-11
-1.4483095e-05
6.9539132e-05
4.5367616e-11
-3.0078417e-05
0.0001072444
9.2580941e-12
-4.9655506e-05
0.00013849914
2.7118207e-12
-7.2255219e-05
0.00016366166
7.4726535e-12
-9.7078983e-05
0.00018319811
7.1520879e-12
-0.00012346358
0.0001976063
5.9634176e-12
-0.00015085466
0.00020735964
5.3561788e-12
-0.00017878132
0.00021286891
4.825617e-12
-0.00020683311
0.00021446156
4.3863465e-12
-0.00023464005
0.00021237633
4.1699567e-12
-0.00026185611
0.00020676995
4.0649973e-12
-0.00028814602
0.00019773294
4.3272124e-12
-0.00031317528
0.00018531146
4.4909311e-12
-0.00033660293
0.00016953246
4.686545e-12
-0.00035807694
0.00015042994
4.6360503e-12
-0.00037723182
0.00012807081
4.5845576e-12
-0.00039368878
0.00010257931
4.5687335e-12
-0.00040705837
7.4159443e-05
4.6575347e-12
-0.00041694621
4.3115354e-05
4.9926371e-12
-0.00042296205
9.8689759e-06
5.4963731e-12
-0.00042473542
-2.5025932e-05
5.9379884e-12
-0.00042193177
-6.0872102e-05
6.5664776e-12
-0.0004142785
-9.6825743e-05
7.190789e-12
-0.00040159398
-0.00013190033
7.6645844e-12
-0.00038382124
-0.00016498216
8.0699161e-12
-0.00036106398
-0.00019486087
8.4286837e-12
-0.00033362162
-0.00022027762
8.6294361e-12
-0.00030201851
-0.00023999309
8.5875883e-12
-0.00026702143
-0.00025287486
8.3570697e-12
-0.00022963883
-0.0002580005
7.9966871e-12
-0.00019109585
-0.00025476811
7.5756262e-12
-0.00015278163
-0.00024300151
7.2351508e-12
-0.00011616964
-0.00022303363
6.9523173e-12
-8.2717274e-05
-0.000195751
6.3005693e-12
-5.3756531e-05
-0.00016258705
6.6651901e-12
-3.039094e-05
-0.00012545956
1.1580584e-11
-1.3414848e-05
-8.6652162e-05
7.1819981e-12
-3.2660744e-06
-4.8660104e-05
-2.2020414e-11
-1.4127098e-05
3.1263917e-11
-4.2125973e-06
2.9478698e-05
-2.5147954e-11
-1.5201731e-05
8.052822e-05
4.5784039e-11
-3.1550088e-05
0.00012359275
7.3324304e-12
-5.2054107e-05
0.00015900315
2.8537142e-13
-7.5704483e-05
0.00018731203
5.5535357e-12
-0.00010166518
0.00020915881
5.5851735e-12
-0.00012924754
0.00022518866
4.522002e-12
-0.00015788258
0.00023599468
4.0443371e-12
-0.00018709409
0.00024208043
3.6740697e-12
-0.00021647389
0.00024384135
3.4729213e-12
-0.00024565993
0.00024156238
3.532743e-12
-0.00027431792
0.00023542792
3.5728025e-12
-0.00030212605
0.00022554107
3.7499295e-12
-0.00032876305
0.00021194846
3.7945543e-12
-0.00035389879
0.0001946682
3.8485174e-12
-0.00037718748
0.00017371861
3.692383e-12
-0.00039826295
0.00014914629
3.6405494e-12
-0.00041673651
0.00012105286
3.6654977e-12
-0.00043219722
8.9620149e-05
3.9112925e-12
-0.00044421554
5.5133668e-05
4.4094324e-12
-0.00045235094
1.8004372e-05
4.9730076e-12
-0.00045616497
-2.121191e-05
5.5886011e-12
-0.00045523931
-6.1797772e-05
6.3318939e-12
-0.0004492016
-0.00010286346
7.0472168e-12
-0.00043775805
-0.00014334389
7.6344441e-12
-0.00042073279
-0.00018200742
8.1464127e-12
-0.00039811259
-0.00021748108
8.5564275e-12
-0.00037009345
-0.00024829677
8.7695589e-12
-0.00033712414
-0.00027296241
8.7281932e-12
-0.00029993939
-0.00029005962
8.4824198e-12
-0.00025957395
-0.00029836595
8.082288e-12
-0.00021734861
-0.00029699345
7.6345338e-12
-0.00017482123
-0.00028552889
7.2660145e-12
-0.00013370051
-0.00026415436
6.9076256e-12
-9.5727832e-05
-0.00023372368
6.0631775e-12
-6.2540748e-05
-0.00019577414
6.4697496e-12
-3.5537951e-05
-0.00015246237
1.2354954e-11
-1.5768778e-05
-0.00010642134
7.1901308e-12
-3.864473e-06
-6.0564381e-05
-2.7304329e-11
-1.7991606e-05
3.5801403e-11
-4.3713589e-06
3.3850086e-05
-2.7741784e-11
-1.5768895e-05
9.1925697e-05
4.5157804e-11
-3.2717927e-05
0.00014054177
5.3323044e-12
-5.3966442e-05
0.00018025166
-1.6707102e-12
-7.8465697e-05
0.00021181128
4.0049958e-12
-0.00010534983
0.00023604295
4.2391348e-12
-0.00013391021
0.00025374903
3.1894739e-12
-0.00016356738
0.00026565183
2.8544519e-12
-0.00019384333
0.00027235638
2.7611602e-12
-0.00022433557
0.00027433358
2.8018925e-12
-0.00025469373
0.00027192053
2.9662956e-12
-0.00028459943
0.00026533362
3.0040854e-12
-0.00031374931
0.00025469095
3.0316349e-12
-0.00034184096
0.0002400401
2.9490633e-12
-0.00036856152
0.00022138875
2.9015275e-12
-0.00039357851
0.0001987356
2.7395893e-12
-0.00041653283
0.00017210061
2.7704546e-12
-0.00043703396
0.00014155399
2.8810283e-12
-0.00045465763
0.00010724381
3.2703073e-12
-0.0004689468
6.942283e-05
3.9089198e-12
-0.00047941676
2.8474333e-05
4.5588637e-12
-0.0004855658
-1.5062881e-05
5.2502879e-12
-0.00048689213
-6.0471446e-05
6.0393552e-12
-0.00048291932
-0.00010683628
6.8076238e-12
-0.00047323058
-0.00015303264
7.5004811e-12
-0.00045751266
-0.00019772534
8.1358505e-12
-0.0004356085
-0.00023938525
8.6064407e-12
-0.00040757596
-0.00027632932
8.8206458e-12
-0.0003737477
-0.00030679068
8.7819371e-12
-0.00033478388
-0.00032902345
8.5516756e-12
-0.00029170688
-0.00034144295
8.1529841e-12
-0.00024590527
-0.00034279507
7.700549e-12
-0.00019909522
-0.00033233895
7.3137156e-12
-0.00015323264
-0.00031001694
6.8957101e-12
-0.00011037811
-0.00027657822
5.8652094e-12
-7.2529055e-05
-0.00023362321
6.3498501e-12
-4.1444667e-05
-0.00018354677
1.3359189e-11
-1.8495715e-05
-0.0001293703
7.3051145e-12
-4.566313e-06
-7.4493749e-05
-3.3356002e-11
-2.2557959e-05
4.116213e-11
-4.4831688e-06
3.8333283e-05
-3.0148026e-11
-1.6174568e-05
0.00010361704
4.4569753e-11
-3.3562136e-05
0.00015792933
3.9494308e-12
-5.5359916e-05
0.00020204945
-3.0062003e-12
-8.0489905e-05
0.00023694126
2.8377234e-12
-0.00010806338
0.00026361642
3.0858535e-12
-0.00013735648
0.00028304212
2.1836627e-12
-0.00016778278
0.00029607813
2.0758661e-12
-0.00019886545
0.00030343904
2.1821248e-12
-0.00023021057
0.0003056787
2.3162813e-12
-0.00026148272
0.00030319268
2.4325809e-12
-0.00029238345
0.00029623435
2.3648579e-12
-0.00032263259
0.00028494008
2.2467151e-12
-0.0003519524
0.00026935991
2.1025481e-12
-0.00038005415
0.00024949051
2.0117499e-12
-0.00040662679
0.00022530822
1.908973e-12
-0.00043132745
0.00019680127
2.0348931e-12
-0.00045377406
0.0001640006
2.2342766e-12
-0.00047354015
0.0001270099
2.7117859e-12
-0.00049015263
8.6035311e-05
3.4071971e-12
-0.0005030937
4.1415394e-05
4.1070072e-12
-0.00051180802
-6.34857e-06
4.8620254e-12
-0.00051571695
-5.6562523e-05
5.6965546e-12
-0.0005142417
-0.00010831153
6.50695e-12
-0.00050683734
-0.00016043701
7.2729152e-12
-0.00049303895
-0.00021152373
8.0049235e-12
-0.00047252068
-0.00025990353
8.5425608e-12
-0.00044516597
-0.00030368404
8.7850898e-12
-0.00041114485
-0.00034081181
8.7834702e-12
-0.00037098977
-0.00036917854
8.606204e-12
-0.00032565717
-0.00038677556
8.2383183e-12
-0.00027655813
-0.00039189411
7.7775207e-12
-0.00022554001
-0.00038335707
7.3549569e-12
-0.00017480515
-0.00036075181
6.8683004e-12
-0.00012676298
-0.00032462039
5.64827e-12
-8.3828516e-05
-0.00027655768
6.235884e-12
-4.8198047e-05
-0.00021917725
1.456704e-11
-2.1646506e-05
-0.00015592185
7.5593149e-12
-5.3879833e-06
-9.0752229e-05
-4.0302472e-11
-2.7945991e-05
4.7547799e-11
-4.5459776e-06
4.2879292e-05
-3.1711104e-11
-1.6412415e-05
0.00011548344
4.4403803e-11
-3.4069949e-05
0.00017558687
3.1129003e-12
-5.6212437e-05
0.00022419194
-4.0178181e-12
-8.1741746e-05
0.00026247057
1.9846902e-12
-0.00010975218
0.00029162685
2.2661086e-12
-0.0001395085
0.00031279844
1.5845229e-12
-0.00017042
0.00032698963
1.6440025e-12
-0.00020201327
0.0003350323
1.7774889e-12
-0.00023390534
0.00033757077
1.817507e-12
-0.00026577861
0.00033506596
1.7882189e-12
-0.00029735812
0.00032781385
1.6036547e-12
-0.00032839148
0.00031597344
1.3971906e-12
-0.00035863144
0.00029959987
1.2783101e-12
-0.00038782059
0.00027867965
1.2104622e-12
-0.00041567797
0.00025316561
1.2186281e-12
-0.00044188742
0.00022301072
1.4453096e-12
-0.00046608746
0.00018820064
1.7400595e-12
-0.00048786318
0.00014878561
2.2776327e-12
-0.00050674056
0.0001049127
2.9781167e-12
-0.00052218444
5.685927e-05
3.6883556e-12
-0.00053360127
5.0682501e-06
4.4849113e-12
-0.0005403489
-4.9814899e-05
5.3620878e-12
-0.00054175545
-0.00010690498
6.2153064e-12
-0.00053715026
-0.00016504221
7.0250694e-12
-0.00052590949
-0.0002227645
7.8057453e-12
-0.00050751861
-0.00027829442
8.4047821e-12
-0.00048165203
-0.00032955062
8.7208295e-12
-0.00044826746
-0.00037419639
8.8100441e-12
-0.00040770723
-0.00040973878
8.7122798e-12
-0.00036079291
-0.00043368988
8.3762987e-12
-0.00030889252
-0.00044379451
7.8696904e-12
-0.00025393529
-0.00043831431
7.3638172e-12
-0.00019834993
-0.00041633718
6.7463561e-12
-0.00014491279
-0.00037805753
5.2641584e-12
-9.6513396e-05
-0.00032495708
5.9254613e-12
-5.5872092e-05
-0.00025981857
1.5821674e-11
-2.5268846e-05
-0.0001865251
7.7925517e-12
-6.3458662e-06
-0.00010967516
-4.8426349e-11
-3.4291913e-05
5.4965657e-11
-4.5593996e-06
4.7438723e-05
-3.2557319e-11
-1.6481609e-05
0.0001274056
4.3905903e-11
-3.4239032e-05
0.00019334428
2.3576606e-12
-5.6517489e-05