/*--------------------------------*- C++ -*----------------------------------*\
  =========                 |
  \\      /  F ield         | OpenFOAM: The Open Source CFD Toolbox
   \\    /   O peration     | Website:  https://openfoam.org
    \\  /    A nd           | Version:  7
     \\/     M anipulation  |
\*---------------------------------------------------------------------------*/
FoamFile
{
    version     2.0;
    format      ascii;
    class       surfaceScalarField;
    location    "8";
    object      phi_0;
}
// * * * * * * * * * * * * * * * * * * * * * * * * * * * * * * * * * * * * * //

dimensions      [0 3 -1 0 0 0 0];

internalField   nonuniform List<scalar> 
45600
(
2.7333189e-07
-2.639237e-07
6.2997364e-10
3.8713414e-07
-1.1422697e-07
3.3448842e-10
1.1362994e-07
2.7336781e-07
2.4207042e-10
-5.7121633e-07
6.8465386e-07
1.8202814e-10
-1.6265871e-06
1.0552018e-06
1.3910583e-10
-2.9835918e-06
1.356912e-06
1.0797621e-10
-4.5697019e-06
1.586039e-06
8.2977101e-11
-6.3182613e-06
1.748472e-06
6.3234479e-11
-8.1709279e-06
1.8525961e-06
5.0315744e-11
-1.0077208e-05
1.9062417e-06
4.246441e-11
-1.1992691e-05
1.9154601e-06
3.6433768e-11
-1.38769e-05
1.8841825e-06
3.1215665e-11
-1.5691309e-05
1.8143744e-06
2.7172174e-11
-1.7397822e-05
1.7064786e-06
2.423646e-11
-1.8957867e-05
1.5600165e-06
2.2082246e-11
-2.0332158e-05
1.3742695e-06
2.0752764e-11
-2.1481096e-05
1.1489722e-06
-2.9734076e-11
-2.2366033e-05
8.8492309e-07
1.6455347e-11
-2.2950702e-05
5.8465491e-07
1.2830446e-11
-2.3203498e-05
2.527839e-07
9.3396733e-12
-2.3099854e-05
-1.0365629e-07
5.8397807e-12
-2.262472e-05
-4.7514171e-07
2.9549362e-12
-2.1775002e-05
-8.4971824e-07
5.0868746e-13
-2.0561595e-05
-1.2134027e-06
-2.2041671e-12
-1.9010805e-05
-1.550781e-06
-4.9485422e-12
-1.7164957e-05
-1.8458348e-06
-7.2050417e-12
-1.5081986e-05
-2.082958e-06
-8.942023e-12
-1.2833885e-05
-2.2480884e-06
-1.0277626e-11
-1.0504017e-05
-2.3298558e-06
-1.10542e-11
-8.1833764e-06
-2.3206302e-06
-1.1081804e-11
-5.9659975e-06
-2.2173703e-06
-1.0376731e-11
-3.9437973e-06
-2.0221937e-06
-9.0316339e-12
-2.2011335e-06
-1.7426593e-06
-6.9658545e-12
-8.092208e-07
-1.3919104e-06
-4.0821286e-12
1.8005789e-07
-9.8927951e-07
-6.8307175e-13
7.4218751e-07
-5.6213334e-07
2.2050221e-12
8.876633e-07
-1.4548243e-07
5.3968153e-12
6.8188479e-07
2.0576967e-07
9.0921402e-12
2.8339787e-07
3.9847579e-07
1.306396e-11
2.8339327e-07
6.615392e-12
1.2554636e-07
-3.8989605e-07
3.368952e-10
-3.100807e-07
3.2128558e-07
2.2326229e-10
-1.6034867e-06
1.5664589e-06
2.2318558e-10
-3.8158336e-06
2.8968079e-06
1.6924212e-10
-6.8754024e-06
4.1146944e-06
1.2554248e-10
-1.0652211e-05
5.1336562e-06
8.9311532e-11
-1.4994062e-05
5.9278258e-06
5.9149344e-11
-1.9748118e-05
6.5024763e-06
3.7228319e-11
-2.4770654e-05
6.8751126e-06
2.2934707e-11
-2.9929736e-05
7.06533e-06
1.3075593e-11
-3.5104101e-05
7.0898314e-06
5.9260456e-12
-4.0180344e-05
6.9604213e-06
1.122384e-12
-4.5049841e-05
6.6838626e-06
-1.6644522e-12
-4.9606266e-05
6.2628994e-06
-2.8493291e-12
-5.3744201e-05
5.6979593e-06
-2.622668e-12
-5.7359133e-05
4.9892102e-06
-1.1580972e-12
-6.0348871e-05
4.1387141e-06
1.1602137e-12
-6.2616405e-05
3.1524549e-06
2.3796377e-12
-6.4073884e-05
2.0421215e-06
3.6138257e-12
-6.4647533e-05
8.264175e-07
5.6174772e-12
-6.4283295e-05
-4.6791175e-07
8.2366873e-12
-6.2951917e-05
-1.8065375e-06
1.1499437e-11
-6.0654585e-05
-3.1470649e-06
1.5066486e-11
-5.742683e-05
-4.441175e-06
1.8215186e-11
-5.3341305e-05
-5.6363264e-06
2.0866099e-11
-4.8508597e-05
-6.6785677e-06
2.3286166e-11
-4.3075729e-05
-7.5158546e-06
2.5372793e-11
-3.7222151e-05
-8.1016988e-06
2.6740423e-11
-3.1153172e-05
-8.3988696e-06
2.7229465e-11
-2.5091011e-05
-8.3828279e-06
2.6903846e-11
-1.9263821e-05
-8.0445944e-06
2.5849152e-11
-1.38932e-05
-7.3928465e-06
2.4091219e-11
-9.1806535e-06
-6.4552322e-06
2.1715904e-11
-5.2933622e-06
-5.279224e-06
1.8882527e-11
-2.3492991e-06
-3.9333605e-06
1.5720748e-11
-4.0138658e-07
-2.5100599e-06
1.2281379e-11
5.8530916e-07
-1.132189e-06
8.6024673e-12
7.5859041e-07
3.2477701e-08
6.9502859e-12
4.0127e-07
7.5578347e-07
8.0378677e-12
6.8466329e-07
1.3659293e-12
-2.7260128e-07
-1.1742544e-07
2.3632133e-10
-1.6024604e-06
1.6508232e-06
2.2807041e-10
-4.2057074e-06
4.1694699e-06
1.8768904e-10
-8.0944532e-06
6.785435e-06
1.5134482e-10
-1.3161654e-05
9.1818041e-06
1.1855117e-10
-1.9232301e-05
1.1204191e-05
8.8332424e-11
-2.6100836e-05
1.2796275e-05
6.511331e-11
-3.3555098e-05
1.3956686e-05
4.9044086e-11
-4.1389004e-05
1.4708997e-05
3.7258437e-11
-4.9407502e-05
1.508382e-05
2.8004525e-11
-5.7426791e-05
1.5109098e-05
2.1204997e-11
-6.5272119e-05
1.4805716e-05
1.6443423e-11
-7.2774955e-05
1.4186672e-05
1.3214279e-11
-7.9770694e-05
1.3258624e-05
1.1273531e-11
-8.6097616e-05
1.2024877e-05
1.0463526e-11
-9.1597549e-05
1.048914e-05
1.0320332e-11
-9.6118356e-05
8.6595118e-06
1.0077892e-11
-9.9518169e-05
6.552255e-06
9.0107777e-12
-0.0001016711
4.1950405e-06
7.8240614e-12
-0.0001024741
1.6293998e-06
7.168055e-12
-0.00010185416
-1.0878614e-06
7.0189339e-12
-9.9775847e-05
-3.8848622e-06
7.2387182e-12
-9.6247824e-05
-6.6750925e-06
7.4021699e-12
-9.1328203e-05
-9.3607989e-06
7.2178399e-12
-8.5127797e-05
-1.1836734e-05
7.0057079e-12
-7.7810801e-05
-1.3995567e-05
7.0406457e-12
-6.9592385e-05
-1.5734277e-05
7.132973e-12
-6.0732909e-05
-1.6961184e-05
6.985752e-12
-5.1528684e-05
-1.7603106e-05
6.6863526e-12
-4.2299446e-05
-1.7612078e-05
6.4919523e-12
-3.3372955e-05
-1.6971096e-05
6.4492886e-12
-2.5067323e-05
-1.5698489e-05
6.4792887e-12
-1.7671748e-05
-1.3850818e-05
6.5798182e-12
-1.1426305e-05
-1.1524676e-05
6.7811658e-12
-6.5012694e-06
-8.8584045e-06
7.034171e-12
-2.9757999e-06
-6.035536e-06
7.2072864e-12
-8.1565273e-07
-3.2923411e-06
7.1310177e-12
1.4844719e-07
-9.3162806e-07
7.5746978e-12
2.469607e-07
6.5725888e-07
9.1112198e-12
9.3161981e-07
4.8205267e-12
-7.3081784e-07
6.1321207e-07
1.7107295e-10
-3.1068527e-06
4.0266519e-06
1.8075934e-10
-7.166993e-06
8.2295013e-06
1.5178648e-10
-1.2829564e-05
1.2447915e-05
1.2484372e-10
-1.9924273e-05
1.627641e-05
9.9453687e-11
-2.8226204e-05
1.9506008e-05
7.6062837e-11
-3.7483748e-05
2.2053749e-05
5.8813392e-11
-4.7438482e-05
2.3911386e-05
4.6171833e-11
-5.7836697e-05
2.5107195e-05
3.604621e-11
-6.843448e-05
2.5681584e-05
2.8019618e-11
-7.8998454e-05
2.5673041e-05
2.2140629e-11
-8.9304183e-05
2.5111411e-05
1.78225e-11
-9.9133923e-05
2.4016389e-05
1.4801543e-11
-0.00010827492
2.239961e-05
1.3145943e-11
-0.00011651907
2.026903e-05
1.2335667e-11
-0.00012366446
1.7634517e-05
1.1837629e-11
-0.00012951878
1.4513816e-05
1.0856472e-11
-0.00013390474
1.0938205e-05
9.2140415e-12
-0.00013666703
6.9573071e-06
7.9499351e-12
-0.0001376803
2.6426564e-06
7.2957098e-12
-0.0001368577
-1.9104717e-06
6.7929809e-12
-0.00013415949
-6.583081e-06
6.4254991e-12
-0.00012960044
-1.123415e-05
6.0187254e-12
-0.00012325588
-1.5705359e-05
5.3587967e-12
-0.00011526537
-1.9827244e-05
4.7325019e-12
-0.00010583336
-2.3427582e-05
4.3950446e-12
-9.5226315e-05
-2.6341326e-05
4.1634816e-12
-8.376594e-05
-2.8421566e-05
3.7796527e-12
-7.1818278e-05
-2.9550775e-05
3.3431281e-12
-5.9778852e-05
-2.9651512e-05
3.1622959e-12
-4.8054206e-05
-2.869575e-05
3.3001428e-12
-3.7040545e-05
-2.6712158e-05
3.6463988e-12
-2.7100341e-05
-2.3791028e-05
4.1600195e-12
-1.8537941e-05
-2.0087083e-05
4.8440372e-12
-1.1575198e-05
-1.5821155e-05
5.6012162e-12
-6.3280329e-06
-1.1282709e-05
6.3542111e-12
-2.7846797e-06
-6.8357013e-06
7.1863965e-12
-7.884501e-07
-2.9278636e-06
7.8903604e-12
-2.3878294e-08
-1.073207e-07
7.9845056e-12
9.0773421e-07
7.6723758e-12
-1.1967317e-06
1.8097944e-06
1.2135556e-10
-4.6606934e-06
7.4905024e-06
1.4362308e-10
-1.0234823e-05
1.3803536e-05
1.1765668e-10
-1.7710626e-05
1.9923611e-05
9.5850672e-11
-2.6833405e-05
2.5399089e-05
7.8007322e-11
-3.731842e-05
2.9990943e-05
6.1557094e-11
-4.8867252e-05
3.3602544e-05
4.821642e-11
-6.1180535e-05
3.6224649e-05
3.7438434e-11
-7.3965647e-05
3.7892288e-05
2.879805e-11
-8.6940011e-05
3.8655921e-05
2.2128987e-11
-9.9831221e-05
3.8564218e-05
1.7133858e-11
-0.00011237546
3.7655628e-05
1.3526786e-11
-0.00012431563
3.5956541e-05
1.1245784e-11
-0.00013540016
3.3484139e-05
1.0337909e-11
-0.0001453834
3.0252274e-05
9.8190614e-12
-0.00015402788
2.6278987e-05
9.2755583e-12
-0.00016110856
2.159449e-05
8.4344949e-12
-0.0001664191
1.6248729e-05
7.2488517e-12
-0.00016977957
1.0317763e-05
6.7418555e-12
-0.00017104535
3.9084192e-06
6.9508803e-12
-0.00017011643
-2.8393907e-06
7.0916419e-12
-0.00016694672
-9.7528024e-06
7.1317031e-12
-0.00016155224
-1.6628632e-05
7.1742151e-12
-0.00015401787
-2.3239729e-05
7.1390471e-12
-0.00014450159
-2.9343531e-05
7.1004649e-12
-0.00013323559
-3.469359e-05
7.1608112e-12
-0.00012052363
-3.9053297e-05
7.1511259e-12
-0.00010673404
-4.2211159e-05
6.9082436e-12
-9.228817e-05
-4.399666e-05
6.5701743e-12
-7.7644087e-05
-4.4295606e-05
6.4136796e-12
-6.3276089e-05
-4.3063758e-05
6.474856e-12
-4.9650551e-05
-4.0337705e-05
6.6050595e-12
-3.7199297e-05
-3.6242289e-05
6.7148531e-12
-2.6291876e-05
-3.0994511e-05
6.8293394e-12
-1.7208386e-05
-2.4904651e-05
6.9374282e-12
-1.0114602e-05
-1.83765e-05
7.1612263e-12
-5.0412688e-06
-1.1909041e-05
7.9116837e-12
-1.8701709e-06
-6.0989679e-06
7.8042204e-12
-3.302224e-07
-1.647273e-06
4.9833591e-12
5.7750233e-07
9.8395716e-12
-1.6449976e-06
3.4547347e-06
8.4416406e-11
-6.1871572e-06
1.2032581e-05
1.1404931e-10
-1.3273113e-05
2.0889389e-05
8.73289e-11
-2.2554788e-05
2.9205187e-05
7.107166e-11
-3.3680114e-05
3.6524346e-05
6.1109489e-11
-4.6296092e-05
4.2606877e-05
5.0033334e-11
-6.0054448e-05
4.7360888e-05
3.9749052e-11
-7.4616537e-05
5.0786723e-05
3.1009419e-11
-8.9655891e-05
5.2931616e-05
2.4003399e-11
-0.00010485846
5.3858462e-05
1.859973e-11
-0.00011992111
5.3626842e-05
1.4535124e-11
-0.00013454934
5.2283844e-05
1.1777201e-11
-0.00014845528
4.9862477e-05
1.0221597e-11
-0.00016135678
4.6385631e-05
9.7242597e-12
-0.00017297815
4.1873643e-05
9.1587303e-12
-0.00018305298
3.6353804e-05
8.2177682e-12
-0.00019132891
2.9870404e-05
7.2805028e-12
-0.00019757437
2.2494172e-05
6.4907484e-12
-0.00020158685
1.4330224e-05
6.4400524e-12
-0.00020320226
5.5238125e-06
6.8344663e-12
-0.00020230488
-3.7367825e-06
6.9915888e-12
-0.00019883719
-1.3220496e-05
7.0407667e-12
-0.00019280907
-2.265676e-05
7.1809364e-12
-0.00018430537
-3.1743434e-05
7.3688907e-12
-0.00017349131
-4.0157602e-05
7.5003222e-12
-0.00016061471
-4.7570195e-05
7.5521615e-12
-0.0001460044
-5.3663622e-05
7.4505416e-12
-0.00013006392
-5.8151651e-05
7.1757447e-12
-0.00011326017
-6.0800427e-05
6.8983491e-12
-9.6106595e-05
-6.1449187e-05
6.806163e-12
-7.9141297e-05
-6.0029066e-05
6.8736457e-12
-6.2900572e-05
-5.6578438e-05
6.9586526e-12
-4.7889338e-05
-5.1253531e-05
7.0018923e-12
-3.4550141e-05
-4.4333715e-05
7.0314437e-12
-2.3233014e-05
-3.6221783e-05
7.0167135e-12
-1.4168697e-05
-2.7440822e-05
7.2227518e-12
-7.4479077e-06
-1.8629838e-05
8.3644684e-12
-3.0097624e-06
-1.053712e-05
7.7688973e-12
-6.4266005e-07
-4.0143761e-06
2.2779832e-12
-6.5169408e-08
1.2105689e-11
-2.0681867e-06
5.522872e-06
5.4335108e-11
-7.6510889e-06
1.7615377e-05
8.9627261e-11
-1.620966e-05
2.9447869e-05
6.3921574e-11
-2.7254879e-05
4.0250337e-05
5.2634611e-11
-4.0331996e-05
4.9601427e-05
4.7729655e-11
-5.5014918e-05
5.7289773e-05
3.980104e-11
-7.090316e-05
6.3249118e-05
3.1945154e-11
-8.7619438e-05
6.7502974e-05
2.5415776e-11
-0.00010480676
7.0118901e-05
2.0052222e-11
-0.00012212492
7.1176597e-05
1.5714034e-11
-0.00013924667
7.0748574e-05
1.2587926e-11
-0.00015585407
6.8891238e-05
1.0823736e-11
-0.00017163586
6.5644263e-05
9.9585435e-12
-0.00018628631
6.1036081e-05
9.4494966e-12
-0.00019950604
5.5093373e-05
8.5394318e-12
-0.00021100493
4.7852677e-05
7.4236751e-12
-0.00022050705
3.9372508e-05
6.6810325e-12
-0.00022775759
2.9744705e-05
6.2872659e-12
-0.00023253133
1.9103957e-05
6.4706644e-12
-0.00023464229
7.6347577e-06
6.7947117e-12
-0.00023395411
-4.4249637e-06
6.8333481e-12
-0.00023039062
-1.6783984e-05
6.9044195e-12
-0.00022394613
-2.9101257e-05
7.1519305e-12
-0.00021469439
-4.0995183e-05
7.4149592e-12
-0.00020279574
-5.2056261e-05
7.5053328e-12
-0.00018850135
-6.1864593e-05
7.4163884e-12
-0.00017215359
-7.0011395e-05
7.1911627e-12
-0.0001541815
-7.6123749e-05
6.9152917e-12
-0.00013509059
-7.9891346e-05
6.7112929e-12
-0.00011544633
-8.1093463e-05
6.6382066e-12
-9.5851321e-05
-7.9624079e-05
6.6540438e-12
-7.6916876e-05
-7.551289e-05
6.6966036e-12
-5.923023e-05
-6.8940183e-05
6.7643312e-12
-4.3319749e-05
-6.02442e-05
6.8577515e-12
-2.9620885e-05
-4.9920652e-05
6.865173e-12
-1.8446131e-05
-3.861558e-05
7.1523037e-12
-9.9624063e-06
-2.7113569e-05
8.7410821e-12
-4.1793417e-06
-1.6320191e-05
7.6796113e-12
-9.5183891e-07
-7.2418769e-06
-5.6530751e-13
-1.0170221e-06
1.4252775e-11
-2.4648248e-06
7.9876512e-06
3.0309009e-11
-9.0367534e-06
2.4187209e-05
7.263332e-11
-1.9005432e-05
3.9416504e-05
4.7806565e-11
-3.1746118e-05
5.2990994e-05
3.8866513e-11
-4.6701902e-05
6.4557199e-05
3.6497308e-11
-6.3372625e-05
7.3960475e-05
3.0793449e-11
-8.1305144e-05
8.1181616e-05
2.4981195e-11
-0.0001000846
8.6282395e-05
2.0100728e-11
-0.00011932628
8.9360557e-05
1.5997587e-11
-0.00013866823
9.0518523e-05
1.2872139e-11
-0.00015776455
8.9844889e-05
1.0924019e-11
-0.00017628004
8.7406726e-05
9.9424733e-12
-0.00019388638
8.3250598e-05
9.2886608e-12
-0.00021026033
7.7410032e-05
8.5323541e-12
-0.00022508415
6.9917185e-05
7.394652e-12
-0.00023804817
6.0816683e-05
6.4653378e-12
-0.00024885555
5.0179871e-05
6.1544895e-12
-0.00025722896
3.8118101e-05
6.0855675e-12
-0.00026291897
2.4793951e-05
6.3182125e-12
-0.00026571378
1.042956e-05
6.5801043e-12
-0.00026545006
-4.6886841e-06
6.6919014e-12
-0.00026202421
-2.0209838e-05
6.92559e-12
-0.00025540414
-3.5721334e-05
7.2974869e-12
-0.00024564013
-5.0759197e-05
7.5939487e-12
-0.00023287448
-6.4821925e-05
7.6392485e-12
-0.00021734862
-7.7390457e-05
7.4726537e-12
-0.00019940663
-8.7953399e-05
7.2109365e-12
-0.00017949356
-9.6036836e-05
6.973658e-12
-0.00015814749
-0.00010123743
6.8423836e-12
-0.00013598423
-0.00010325673
6.7845581e-12
-0.00011367425
-0.00010193406
6.7428111e-12
-9.1912231e-05
-9.727492e-05
6.7223299e-12
-7.138074e-05
-8.9471679e-05
6.7793872e-12
-5.2710616e-05
-7.8914329e-05
6.8957682e-12
-3.6441458e-05
-6.6189815e-05
6.8732187e-12
-2.2986335e-05
-5.2070709e-05
7.1764164e-12
-1.2604852e-05
-3.7495058e-05
9.1442784e-12
-5.3885629e-06
-2.3536487e-05
7.5606408e-12
-1.262015e-06
-1.136842e-05
-3.5176917e-12
-2.2790532e-06
1.6468167e-11
-2.8344561e-06
1.0822083e-05
1.3825363e-11
-1.0335207e-05
3.1687893e-05
6.2626434e-11
-2.1635515e-05
5.07168e-05
3.5891235e-11
-3.5983731e-05
6.7339203e-05
2.7811548e-11
-5.2725348e-05
8.1298803e-05
2.7436286e-11
-7.1288423e-05
9.2523521e-05
2.3443937e-11
-9.1168804e-05
0.00010106197
1.9054039e-11
-0.00011191612
0.00010702968
1.5450287e-11
-0.00013312095
0.00011056537
1.2563603e-11
-0.00015440355
0.00011180112
1.0659907e-11
-0.00017540431
0.00011084565
9.6814614e-12
-0.00019577617
0.00010777859
9.0480239e-12
-0.00021517937
0.0001026538
8.2161626e-12
-0.00023327854
9.5509191e-05
7.2577987e-12
-0.00024974222
8.6380852e-05
6.2176261e-12
-0.00026424476
7.5319209e-05
5.672323e-12
-0.00027647041
6.2405502e-05
5.718145e-12
-0.00028611941
4.7767095e-05
5.8282852e-12
-0.00029291601
3.1590541e-05
6.0467619e-12
-0.00029661805
1.4131594e-05
6.2752817e-12
-0.00029702815
-4.2785841e-06
6.5364627e-12
-0.00029400568
-2.3232313e-05
6.9734553e-12
-0.00028748047
-4.2246557e-05
7.4229645e-12
-0.00027746591
-6.0773762e-05
7.6888318e-12
-0.00026407188
-7.8215972e-05
7.6942654e-12
-0.00024751572
-9.3946623e-05
7.5250008e-12
-0.00022813002
-0.00010733911
7.2978166e-12
-0.00020636516
-0.00011780172
7.112714e-12
-0.00018278492
-0.00012481767
7.0161023e-12
-0.00015805359
-0.00012798806
6.9477528e-12
-0.00013291337
-0.00012707429
6.8722547e-12
-0.00010815223
-0.00012203607
6.8354229e-12
-8.4563524e-05
-0.00011306039
6.8956177e-12
-6.2900234e-05
-0.00010057762
6.9990663e-12
-4.3828038e-05
-8.5262017e-05
6.8936213e-12
-2.7882218e-05
-6.8016534e-05
7.1890358e-12
-1.5433569e-05
-4.9943715e-05
9.5848146e-12
-6.6680236e-06
-3.2302039e-05
7.5020369e-12
-1.5833108e-06
-1.6453126e-05
-6.521535e-12
-3.8623826e-06
1.8833187e-11
-3.1760798e-06
1.3998167e-05
2.6102077e-12
-1.1538611e-05
4.0050379e-05
5.6246318e-11
-2.4079252e-05
6.3257433e-05
2.6398015e-11
-3.9930252e-05
8.3190192e-05
1.8871681e-11
-5.8346706e-05
9.9715235e-05
2.0337424e-11
-7.8689601e-05
0.00011286638
1.7574769e-11
-0.00010040722
0.00012277956
1.4222984e-11
-0.0001230168
0.00012963925
1.1770234e-11
-0.00014608762
0.00013363619
1.0110718e-11
-0.00016922617
0.00013493967
9.1740104e-12
-0.00019206365
0.00013368313
8.6166136e-12
-0.00021424619
0.00012996113
7.9131372e-12
-0.00023542777
0.00012383536
6.8465635e-12
-0.00025526581
0.00011534723
5.9297781e-12
-0.00027341955
0.00010453458
5.2576888e-12
-0.00028955071
9.1450347e-05
5.1271324e-12
-0.00030332653
7.618131e-05
5.3456869e-12
-0.00031442497
5.8865532e-05
5.4741304e-12
-0.00032254191
3.9707475e-05
5.6899231e-12
-0.00032740039
1.8990068e-05
5.9639563e-12
-0.00032876231
-2.9166612e-06
6.3273775e-12
-0.00032643987
-2.5554757e-05
6.9581146e-12
-0.00032031309
-4.837334e-05
7.4304671e-12
-0.00031034439
-7.0742473e-05
7.6425168e-12
-0.00029659563
-9.1964746e-05
7.6411733e-12
-0.00027924401
-0.00011129826
7.5337049e-12
-0.00025859523
-0.0001279879
7.3932453e-12
-0.00023509181
-0.00014130515
7.2758154e-12
-0.00020931386
-0.00015059563
7.1876058e-12
-0.00018197008
-0.00015533185
7.0812996e-12
-0.00015387693
-0.00015516745
6.9712459e-12
-0.00012592536
-0.00014998764
6.9403806e-12
-9.9036076e-05
-0.00013994968
7.0154611e-12
-7.41063e-05
-0.0001255074
7.0843658e-12
-5.195309e-05
-0.00010741523
6.8557087e-12
-3.3259417e-05
-8.6710212e-05
7.143919e-12
-1.8529603e-05
-6.4673539e-05
1.0064464e-11
-8.0600607e-06
-4.2771588e-05
7.5021296e-12
-1.9291147e-06
-2.2584062e-05
-9.6782253e-12
-5.7915191e-06
2.1474473e-11
-3.4877649e-06
1.7485958e-05
-6.305752e-12
-1.2638015e-05
4.9200582e-05
5.1638564e-11
-2.6315715e-05
7.6935117e-05
1.9152586e-11
-4.3549068e-05
0.00010042352
1.1976117e-11
-6.3511651e-05
0.00011967779
1.4799e-11
-8.5503762e-05
0.00013485847
1.29641e-11
-0.00010893087
0.00014620665
1.0590591e-11
-0.0001332818
0.00015399017
9.2204464e-12
-0.00015810836
0.00015846275
8.4992256e-12
-0.00018300733
0.00015983863
8.0008898e-12
-0.00020760519
0.00015828099
7.3441459e-12
-0.00023154606
0.000153902
6.4242152e-12
-0.0002544826
0.00014677189
5.3745906e-12
-0.00027606991
0.00013693453
4.790711e-12
-0.00029596228
0.00012442694
4.5557218e-12
-0.0003138124
0.00010930045
4.6740078e-12
-0.00032927289
9.1641794e-05
4.8898735e-12
-0.0003420002
7.1592838e-05
5.0177895e-12
-0.00035166067
4.9367935e-05
5.299915e-12
-0.00035793875
2.5268148e-05
5.6649846e-12
-0.00036055062
-3.0479315e-07
6.0038801e-12
-0.00035925102
-2.6854363e-05
6.8694642e-12
-0.00035385962
-5.3764744e-05
7.3321228e-12
-0.00034427328
-8.0328829e-05
7.5008503e-12
-0.00033048936
-0.00010574868
7.5452326e-12
-0.00031262696
-0.00012916068
7.5388073e-12
-0.00029094673
-0.00014966813
7.4986516e-12
-0.00026586648
-0.00016638541
7.4465097e-12
-0.00023796911
-0.00017849301
7.3694986e-12
-0.00020799956
-0.00018530141
7.2408323e-12
-0.00017684763
-0.00018631939
7.099027e-12
-0.00014551483
-0.00018132045
7.0490982e-12
-0.00011506543
-0.00017039908
7.1089977e-12
-8.6564694e-05
-0.00015400815
7.1240333e-12
-6.1009873e-05
-0.00013297006
6.7542439e-12
-3.9261996e-05
-0.0001084581
7.043369e-12
-2.1986867e-05
-8.1948679e-05
1.056365e-11
-9.6134257e-06
-5.5145036e-05
7.4840862e-12
-2.3143268e-06
-2.9883149e-05
-1.318752e-11
-8.1058712e-06
2.4413611e-11
-3.7666864e-06
2.1252674e-05
-1.379584e-11
-1.3622762e-05
5.9056596e-05
4.8637515e-11
-2.832208e-05
9.1634412e-05
1.3939392e-11
-4.6801753e-05
0.00011890318
6.8273814e-12
-6.8163802e-05
0.00014103983
1.0620141e-11
-9.1655218e-05
0.00015834987
9.6477104e-12
-0.00011664422
0.00017119566
8.1636051e-12
-0.00014259576
0.00017994171
7.5967528e-12
-0.00016904825
0.00018491524
7.2335918e-12
-0.00019559285
0.00018638324
6.6154969e-12
-0.00022185575
0.00018454389
5.6895491e-12
-0.0002474837
0.00017952994
4.7783481e-12
-0.00027213295
0.00017142113
4.0776491e-12
-0.00029546124
0.00016026281
3.9049553e-12
-0.00031712265
0.00014608833
3.94516e-12
-0.00033676496
0.00012894275
4.1383842e-12
-0.0003540295
0.00010890633
4.2974128e-12
-0.00036855323
8.6116564e-05
4.4918927e-12
-0.00037997335
6.0788051e-05
4.9170778e-12
-0.00038793496
3.3229752e-05
5.5580487e-12
-0.00039209918
3.8594254e-06
6.5170183e-12
-0.00039216445
-2.6789104e-05
6.8286478e-12
-0.00038787467
-5.8054529e-05
7.0983666e-12
-0.00037904839
-8.9155118e-05
7.2802822e-12
-0.00036560169
-0.0001191954
7.4350955e-12
-0.00034757596
-0.00014718643
7.5484198e-12
-0.00032516549
-0.00017207861
7.5913134e-12
-0.00029874204
-0.00019280887
7.584143e-12
-0.00026887216
-0.00020836291
7.5262591e-12
-0.0002363228
-0.00021785078
7.403178e-12
-0.00020205045
-0.00022059174
7.2488168e-12
-0.00016717035
-0.00021620055
7.1617628e-12
-0.00013290442
-0.00020466501
7.178279e-12
-0.00010051033
-0.00018640225
7.128315e-12
-7.1197808e-05
-0.00016228259
6.6170133e-12
-4.6042064e-05
-0.00013361385
6.920566e-12
-2.5905661e-05
-0.0001020851
1.1107139e-11
-1.138014e-05
-6.9670565e-05
7.4293186e-12
-2.7545571e-06
-3.8508717e-05
-1.7192402e-11
-1.0860457e-05
2.770398e-11
-4.0093524e-06
2.5262048e-05
-1.9655069e-11
-1.4480791e-05
6.9527965e-05
4.6961692e-11
-3.0073723e-05
0.00010722733
1.0213901e-11
-4.9647888e-05
0.00013847733
3.0712129e-12
-7.2244321e-05
0.00016363625
7.7855792e-12
-9.7064597e-05
0.00018317014
7.6393774e-12
-0.00012344562
0.00019757668
6.6865469e-12
-0.00015083312
0.00020732922
6.3330284e-12
-0.0001787563
0.00021283842
5.8013836e-12
-0.00020680476
0.0002144317
4.9167506e-12
-0.00023460859
0.00021234771
3.968933e-12
-0.0002618218
0.00020674314
3.3752614e-12
-0.00028810916
0.00019770848
3.1300644e-12
-0.0003131362
0.00018528984
3.2276211e-12
-0.00033656199
0.00016951411
3.3126428e-12
-0.00035803449
0.00015041525
3.4784982e-12
-0.00037718826
0.0001280601
3.6508563e-12
-0.0003936445
0.0001025728
4.0117625e-12
-0.00040701375
7.4157298e-05
4.5837167e-12
-0.00041690164
4.3117641e-05
5.2478704e-12
-0.00042291789
9.8756734e-06
6.0061981e-12
-0.00042469206
-2.5014938e-05
6.4317734e-12
-0.00042188959
-6.0857016e-05
6.7105914e-12
-0.00041423786
-9.6806859e-05
6.9602244e-12
-0.00040155524
-0.00013187803
7.2574802e-12
-0.00038378473
-0.00016495694
7.5077107e-12
-0.00036103005
-0.0001948333
7.6381713e-12
-0.00033359058
-0.00022024836
7.6727348e-12
-0.00030199062
-0.00023996287
7.6384725e-12
-0.00026699691
-0.00025284449
7.5318855e-12
-0.00022961783
-0.00025797083
7.3813984e-12
-0.00019107842
-0.00025473997
7.2604206e-12
-0.00015276771
-0.00024297573
7.2286155e-12
-0.00011615906
-0.00022301092
7.118242e-12
-8.2709731e-05
-0.00019573192
6.4762047e-12
-5.3751617e-05
-0.00016257197
6.8137457e-12
-3.0388151e-05
-0.00012544858
1.1769715e-11
-1.3413605e-05
-8.6645118e-05
7.4126579e-12
-3.2657675e-06
-4.8656536e-05
-2.1755861e-11
-1.4126257e-05
3.1537207e-11
-4.2119435e-06
2.947401e-05
-2.4095573e-11
-1.5199453e-05
8.0515416e-05
4.5959039e-11
-3.1545445e-05
0.00012357331
7.6111949e-12
-5.2046575e-05
0.00015897847
5.8369161e-13
-7.5693723e-05
0.0001872834
6.0700585e-12
-0.000101651
0.00020912742
6.344997e-12
-0.00012922985
0.00022515554
5.400525e-12
-0.0001578614
0.00023596077
4.801885e-12
-0.00018706953
0.00024204655
4.0064697e-12
-0.0002164461
0.00024380826
3.1252147e-12
-0.00024562914
0.00024153074
2.5046325e-12
-0.00027428438
0.00023539837
2.3527583e-12
-0.00030209008
0.00022551416
2.4111751e-12
-0.00032872496
0.00021192471
2.5582018e-12
-0.00035385893
0.00019464808
2.602791e-12
-0.00037714618
0.0001737025
2.7882604e-12
-0.00039822059
0.0001491345
3.0707861e-12
-0.00041669343
0.00012104564
3.6268917e-12
-0.00043215378
8.9617642e-05
4.2803755e-12
-0.00044417208
5.5135936e-05
4.8759251e-12
-0.0004523078
1.8011388e-05
5.4431893e-12
-0.00045612248
-2.1200265e-05
5.8708628e-12
-0.0004551978
-6.1781705e-05
6.2033946e-12
-0.00044916141
-0.00010284326
6.5642396e-12
-0.0004377195
-0.00014331995
7.0000173e-12
-0.00042069623
-0.00018198022
7.3739119e-12
-0.00039807835
-0.00021745119
7.6062142e-12
-0.00037006185
-0.00024826487
7.7162457e-12
-0.00033709549
-0.00027292924
7.7348693e-12
-0.00029991395
-0.00029002604
7.6514875e-12
-0.00025955193
-0.00029833285
7.4995801e-12
-0.00021733015
-0.00029696177
7.3360152e-12
-0.00017480633
-0.00028549955
7.2484902e-12
-0.00013368905
-0.0002641282
7.066609e-12
-9.571958e-05
-0.0002337014
6.279454e-12
-6.2535313e-05
-0.00019575624
6.6638823e-12
-3.5534832e-05
-0.00015244907
1.2556379e-11
-1.5767372e-05
-0.00010641259
7.4622627e-12
-3.86412e-06
-6.0559765e-05
-2.7002058e-11
-1.7990414e-05
3.6111141e-11
-4.3707377e-06
3.3844773e-05
-2.7304774e-11
-1.5766704e-05
9.1911336e-05
4.5495566e-11
-3.2713463e-05
0.00014052007
6.0138139e-12
-5.3959208e-05
0.00018022422
-8.6477479e-13
-7.8455367e-05
0.00021177957
4.9970137e-12
-0.00010533623
0.00023600828
5.1455735e-12
-0.00013389325
0.00025371256
3.8545527e-12
-0.00016354709
0.0002656146
3.0126705e-12
-0.00019381983
0.00027231928
2.2713385e-12
-0.00022430902
0.00027429744
1.7260677e-12
-0.00025466435
0.00027188606
1.5115636e-12
-0.00028456749
0.0002653015
1.6234566e-12
-0.0003137151
0.00025466176
1.7544484e-12
-0.00034180479
0.0002400144
1.8211801e-12
-0.00036852371
0.00022136699
1.8593484e-12
-0.00039353938
0.00019871818
2.1552861e-12
-0.00041649272
0.00017208785
2.5975699e-12
-0.00043699318
0.0001415461
3.2774228e-12
-0.00045461649
0.00010724095
3.8934064e-12
-0.0004689056
6.9425036e-05
4.3724645e-12
-0.00047937579
2.8481572e-05
4.8243349e-12
-0.00048552534
-1.5050732e-05
5.240486e-12
-0.00048685246
-6.0454597e-05
5.6611441e-12
-0.00048288071
-0.00010681502
6.1589428e-12
-0.00047319333
-0.00015300735
6.7092957e-12
-0.00045747707
-0.00019769649
7.1756657e-12
-0.00043557488
-0.00023935339
7.5129398e-12
-0.00040754464
-0.00027629511
7.733346e-12
-0.000373719
-0.00030675489
7.8377598e-12
-0.00033475812
-0.00032898692
7.7887274e-12
-0.00029168434
-0.00034140664
7.6224346e-12
-0.00024588613
-0.00034275998
7.391845e-12
-0.0001990796
-0.0003323061
7.2201254e-12
-0.00015322049
-0.00030998731
6.9228219e-12
-0.00011036926
-0.00027655265
5.9324233e-12
-7.2523156e-05
-0.00023360235
6.3675531e-12
-4.1441242e-05
-0.000183531
1.3411843e-11
-1.8494152e-05
-0.00012935968
7.5109049e-12
-4.5659146e-06
-7.4487973e-05
-3.3152553e-11
-2.2556371e-05
4.1488359e-11
-4.4825913e-06
3.8327401e-05
-2.9425568e-11
-1.6172532e-05
0.00010360124
4.5467631e-11
-3.3557988e-05
0.00015790553
5.0784065e-12
-5.5353192e-05
0.00020201944
-2.0133981e-12
-8.0480297e-05
0.00023690667
3.7310444e-12
-0.00010805071
0.0002635787
3.5827244e-12
-0.0001373407
0.00028300254
2.0556836e-12
-0.00016776392
0.00029603782
1.2929462e-12
-0.00019884362
0.00030339897
9.1245156e-13
-0.00023018594
0.00030563975
7.7176172e-13
-0.00026145551
0.00030315563
7.9014287e-13
-0.00029235392
0.0002961999
9.0540623e-13
-0.00032260101
0.00028490885
9.8072555e-13
-0.00035191907
0.00026933246
1.0297594e-12
-0.00038001938
0.0002494673
1.1943584e-12
-0.00040659087
0.00022528966
1.6453685e-12
-0.00043129068
0.00019678766
2.2059142e-12
-0.00045373672
0.00016399214
2.8920538e-12
-0.00047350249
0.00012700672
3.3968805e-12
-0.00049011491
8.6037447e-05
3.7703565e-12
-0.00050305614
4.142279e-05
4.1720901e-12
-0.00051177083
-6.3360483e-06
4.6152278e-12
-0.00051568035
-5.6545089e-05
5.1323748e-12
-0.00051420592
-0.00010828947
5.7548863e-12
-0.00050680258
-0.00016041069
6.3974897e-12
-0.00049300548
-0.0002114936
6.9391803e-12
-0.00047248877
-0.00025987012
7.3768222e-12
-0.00044513593
-0.00030364797
7.7192139e-12
-0.000411117
-0.00034077382
7.9238907e-12
-0.00037096445
-0.00036913949
7.9256522e-12
-0.00032563471
-0.00038673639
7.7454054e-12
-0.00027653881
-0.00039185589
7.4410071e-12
-0.00022552401
-0.0003833209
7.1645946e-12
-0.00017479254
-0.00036071879
6.7181142e-12
-0.00012675368
-0.00032459152
5.4612646e-12
-8.3822237e-05
-0.0002765338
5.9592059e-12
-4.8194356e-05
-0.0002191589
1.4372945e-11
-2.16448e-05
-0.00015590924
7.539348e-12
-5.3875415e-06
-9.0745193e-05
-4.0357671e-11
-2.7943961e-05
4.7693384e-11
-4.5454605e-06
4.2872903e-05
-3.0738478e-11
-1.6410605e-05
0.00011546634
4.5228825e-11
-3.406625e-05
0.00017556118
4.0642593e-12
-5.6206424e-05
0.00022415962
-3.4303648e-12
-8.1733143e-05
0.00026243338
2.0325263e-12
-0.00010974082
0.00029158637
1.8207691e-12
-0.00013949435
0.00031275606
4.4494596e-13
-0.00017040308
0.00032694655
4.2400349e-14
-0.00020199369
0.00033498958
3.3223853e-14
-0.00023388328
0.00033752933
8.1173092e-14
-0.00026575429
0.00033502663
1.0486139e-13
-0.00029733177
0.00032777738
1.494294e-13
-0.00032836338
0.00031594046
2.3608005e-13
-0.00035860186
0.00029957095
3.9453307e-13
-0.00038778981
0.00027865525
7.4567105e-13
-0.00041564627
0.00025314613
1.2876625e-12
-0.00044185505
0.00022299644
1.8482198e-12
-0.00046605466
0.00018819175
2.4260945e-12
-0.00048783016
0.00014878221
2.8028208e-12
-0.00050670751
0.0001049148
3.1231351e-12
-0.00052215153
5.6866793e-05
3.5471112e-12
-0.00053356863
5.0810439e-06
4.0493999e-12
-0.00054031667
-4.9797058e-05
4.6395924e-12
-0.00054172377
-0.00010688238
5.3434476e-12
-0.00053711928
-0.0001650152
6.053128e-12
-0.00052587939
-0.0002227335
6.6656821e-12
-0.00050748959
-0.00027825992
7.2023954e-12
-0.00048162436
-0.0003295132
7.6677936e-12
-0.00044824144
-0.00037415674
7.9750559e-12
-0.00040768322
-0.00040969771
8.0457539e-12
-0.00036077127
-0.00043364834
7.8610286e-12
-0.0003088736
-0.00044375357
7.4933571e-12
-0.00025391937
-0.00043827513
7.1111536e-12
-0.00019833718
-0.00041630098
6.5140138e-12
-0.00014490323
-0.00037802547
4.9576204e-12
-9.6506852e-05
-0.00032493018
5.5619703e-12
-5.5868192e-05
-0.00025979758
1.5567164e-11
-2.5267017e-05
-0.00018651042
7.6444678e-12
-6.3453841e-06
-0.00010966678
-4.8600464e-11
-3.42894e-05
5.4942467e-11
-4.5589649e-06
4.7431907e-05
-3.1554046e-11
-1.6480085e-05
0.00012738741
4.4405808e-11
-3.4235903e-05
0.00019331699
2.6654927e-12
-5.651238e-05
0.00024643609
-4.9889654e-12
-8.2198859e-05