/*--------------------------------*- C++ -*----------------------------------*\
  =========                 |
  \\      /  F ield         | OpenFOAM: The Open Source CFD Toolbox
   \\    /   O peration     | Website:  https://openfoam.org
    \\  /    A nd           | Version:  7
     \\/     M anipulation  |
\*---------------------------------------------------------------------------*/
FoamFile
{
    version     2.0;
    format      ascii;
    class       volVectorField;
    location    "8";
    object      U;
}
// * * * * * * * * * * * * * * * * * * * * * * * * * * * * * * * * * * * * * //

dimensions      [0 1 -1 0 0 0 0];

internalField   nonuniform List<vector> 
16000
(
(6.4778375e-05 -6.4234093e-05 -4.1915336e-07)
(0.00015744352 -5.3097754e-05 5.3658103e-06)
(0.00013345282 2.1243326e-06 1.8296119e-05)
(-5.7568193e-05 6.1686885e-05 3.5006433e-05)
(-0.00041042867 0.0001138001 5.2328254e-05)
(-0.00089868164 0.00015461305 6.8355991e-05)
(-0.0014931922 0.00018440783 8.1783867e-05)
(-0.0021656835 0.00020482908 9.1817877e-05)
(-0.0028909687 0.00021763935 9.8010903e-05)
(-0.0036473014 0.00022429082 0.00010012426)
(-0.0044158163 0.00022581299 9.8036337e-05)
(-0.0051796709 0.00022282025 9.1692138e-05)
(-0.0059231843 0.00021557139 8.1076498e-05)
(-0.0066311191 0.00020405345 6.6209422e-05)
(-0.007288181 0.00018808382 4.7156763e-05)
(-0.0078787766 0.00016741843 2.4053578e-05)
(-0.0083870581 0.00014185504 -2.8685762e-06)
(-0.0087972397 0.00011132704 -3.3255568e-05)
(-0.0090941643 7.5992334e-05 -6.6606825e-05)
(-0.0092640708 3.630242e-05 -0.00010226187)
(-0.0092955124 -6.9502614e-06 -0.00013939432)
(-0.0091803591 -5.2623087e-05 -0.00017702177)
(-0.0089148018 -9.919839e-05 -0.00021403224)
(-0.008500264 -0.00014485308 -0.00024922425)
(-0.0079441112 -0.00018753249 -0.0002813632)
(-0.0072600787 -0.00022506203 -0.00030925281)
(-0.0064683167 -0.00025529202 -0.00033181309)
(-0.0055950042 -0.00027626124 -0.00034816062)
(-0.004671503 -0.00028636078 -0.00035768668)
(-0.0037330567 -0.00028448063 -0.00036012386)
(-0.0028171029 -0.00027012476 -0.00035559336)
(-0.0019613068 -0.00024348012 -0.00034463029)
(-0.001201427 -0.00020543476 -0.00032818785)
(-0.00056903422 -0.00015758046 -0.00030762173)
(-8.9093949e-05 -0.0001023275 -0.00028464883)
(0.00022173721 -4.3228609e-05 -0.00026125356)
(0.00035922329 1.514369e-05 -0.00023978401)
(0.00033661621 6.3753325e-05 -0.00022261602)
(0.00020043905 8.6976304e-05 -0.00021238301)
(5.6375566e-05 5.6314018e-05 -0.00019699223)
(5.5858509e-05 -0.0001589751 -6.7136722e-06)
(3.5747866e-05 -3.2766486e-05 -7.1867192e-07)
(-0.00029699212 0.00024840732 1.042267e-05)
(-0.00099971078 0.00055297257 2.4164204e-05)
(-0.0020637503 0.00082984685 3.8450928e-05)
(-0.0034446092 0.0010582871 5.1727691e-05)
(-0.005083107 0.0012338527 6.2896422e-05)
(-0.0069167655 0.0013595231 7.1223624e-05)
(-0.0088856688 0.0014406775 7.624007e-05)
(-0.01093459 0.0014826832 7.7655429e-05)
(-0.013013044 0.0014898487 7.5294692e-05)
(-0.015074339 0.0014650685 6.9058441e-05)
(-0.017074304 0.0014098705 5.8899277e-05)
(-0.018970117 0.001324701 4.4816369e-05)
(-0.020719477 0.0012093601 2.6863744e-05)
(-0.022280308 0.001063504 5.1686982e-06)
(-0.023611047 0.00088715076 -2.0046177e-05)
(-0.024671514 0.00068116093 -4.8442522e-05)
(-0.0254243 0.00044766159 -7.954634e-05)
(-0.025836591 0.00019037338 -0.00011273739)
(-0.025882297 -8.518511e-05 -0.00014724508)
(-0.025544257 -0.00037161335 -0.00018216277)
(-0.024816432 -0.00065974861 -0.00021646485)
(-0.023705854 -0.00093893593 -0.00024905128)
(-0.022234013 -0.0011974856 -0.00027879786)
(-0.020437609 -0.0014232997 -0.00030462192)
(-0.018368444 -0.0016046347 -0.00032555496)
(-0.016092329 -0.0017309442 -0.00034081653)
(-0.013686966 -0.0017937317 -0.00034988454)
(-0.011238814 -0.0017873345 -0.00035255423)
(-0.0088390696 -0.001709565 -0.00034897894)
(-0.0065789279 -0.0015621598 -0.00033968874)
(-0.0045443432 -0.0013510313 -0.00032558583)
(-0.0028104418 -0.0010864281 -0.0003079173)
(-0.0014356582 -0.00078331351 -0.00028822618)
(-0.00045573043 -0.00046233574 -0.00026827551)
(0.00012299194 -0.00015097511 -0.00024994882)
(0.00033278712 0.00011006674 -0.00023521338)
(0.00026339827 0.00025931322 -0.00022612253)
(8.727392e-05 0.00019937763 -0.00020885445)
(7.1240846e-07 -0.00013888538 -2.0242254e-05)
(-0.00025417615 0.0003005543 -1.1912943e-05)
(-0.0010326729 0.0010087549 -4.701467e-07)
(-0.0023391271 0.001760759 1.195148e-05)
(-0.0041447814 0.0024520277 2.4363221e-05)
(-0.0063913744 0.0030340109 3.5655777e-05)
(-0.0090002013 0.0034904502 4.5023815e-05)
(-0.011885795 0.0038223675 5.191884e-05)
(-0.014963642 0.0040381344 5.5968773e-05)
(-0.018153282 0.0041478395 5.6924941e-05)
(-0.021379025 0.0041603865 5.462327e-05)
(-0.024569378 0.0040822373 4.8957169e-05)
(-0.027655921 0.0039172352 3.9862312e-05)
(-0.030572174 0.003667117 2.7314115e-05)
(-0.033252869 0.0033324389 1.1338068e-05)
(-0.035633847 0.0029137129 -7.9725947e-06)
(-0.037652696 0.002412597 -3.0438104e-05)
(-0.039250114 0.0018330308 -5.5772619e-05)
(-0.040371931 0.0011822179 -8.3566194e-05)
(-0.040971665 0.00047136517 -0.0001132745)
(-0.041013389 -0.00028387573 -0.00014421576)
(-0.040474745 -0.0010632941 -0.00017557646)
(-0.039349815 -0.0018425123 -0.00020643633)
(-0.03765156 -0.0025936927 -0.00023580114)
(-0.035413594 -0.0032867208 -0.00026265113)
(-0.032691027 -0.0038907756 -0.00028600245)
(-0.02956015 -0.0043762016 -0.00030497455)
(-0.026116812 -0.0047165676 -0.00031885888)
(-0.022473415 -0.0048907541 -0.00032718457)
(-0.018754531 -0.0048849018 -0.00032977312)
(-0.01509127 -0.0046940523 -0.00032677377)
(-0.011614601 -0.004323374 -0.00031867662)
(-0.0084479157 -0.0037889565 -0.00030630173)
(-0.0056990675 -0.0031183288 -0.00029076413)
(-0.0034521461 -0.0023510956 -0.0002734168)
(-0.0017591156 -0.0015403593 -0.00025577395)
(-0.00063145383 -0.0007556553 -0.00023941054)
(-3.1354332e-05 -8.8714331e-05 -0.0002258831)
(0.00014260126 0.00033649785 -0.00021684792)
(7.0149307e-05 0.00034122167 -0.00019885249)
(-6.3938407e-05 5.7780902e-05 -3.7993416e-05)
(-0.00059577669 0.0010336437 -2.5832277e-05)
(-0.0018855038 0.0023347052 -1.2341424e-05)
(-0.0038491338 0.0036703376 4.030092e-07)
(-0.0064209955 0.0048919131 1.2395369e-05)
(-0.0095242822 0.0059246528 2.2896767e-05)
(-0.013062173 0.006739715 3.1381897e-05)
(-0.016930752 0.0073347989 3.7519906e-05)
(-0.021026722 0.0077201892 4.1079421e-05)
(-0.025250296 0.0079101193 4.1895035e-05)
(-0.029506047 0.0079179272 3.9845083e-05)
(-0.033702589 0.0077537797 3.483399e-05)
(-0.037751666 0.0074241855 2.6787018e-05)
(-0.041567261 0.0069327196 1.5654583e-05)
(-0.045065123 0.0062814845 1.424974e-06)
(-0.048162971 0.0054729643 -1.5855241e-05)
(-0.050781504 0.0045120007 -3.6061574e-05)
(-0.052846183 0.0034076766 -5.8970214e-05)
(-0.054289737 0.0021749256 -8.4238455e-05)
(-0.055055214 0.00083572228 -0.00011139278)
(-0.055099343 -0.00058024845 -0.00013982185)
(-0.054396034 -0.002035556 -0.0001687797)
(-0.05293965 -0.0034856657 -0.00019740931)
(-0.050747765 -0.0048803014 -0.00022477123)
(-0.047863173 -0.0061655192 -0.00024989008)
(-0.044354808 -0.0072864258 -0.00027181506)
(-0.040317348 -0.0081904067 -0.00028968681)
(-0.035869308 -0.008830678 -0.00030280621)
(-0.031149502 -0.0091699108 -0.00031069998)
(-0.026311876 -0.0091836515 -0.00031317555)
(-0.021518793 -0.0088632694 -0.00031035576)
(-0.016932994 -0.0082182268 -0.00030268937)
(-0.012708567 -0.0072776062 -0.00029093542)
(-0.008981283 -0.0060910307 -0.00027612153)
(-0.0058587608 -0.0047294029 -0.00025947852)
(-0.0034108704 -0.0032862571 -0.00024235946)
(-0.0016604918 -0.0018807195 -0.00022615938)
(-0.0005748678 -0.00066233279 -0.000212239)
(-6.0252389e-05 0.0001808988 -0.00020178173)
(3.4951441e-05 0.00039374934 -0.0001819385)
(-0.00012790433 0.00044402842 -5.6841478e-05)
(-0.00094607796 0.0022002589 -4.0295654e-05)
(-0.002770191 0.0042596384 -2.3983439e-05)
(-0.0054130028 0.006297409 -1.0120603e-05)
(-0.0087604936 0.0081377079 2.2045251e-06)
(-0.012711314 0.0096881103 1.2574396e-05)
(-0.01714874 0.010911022 2.0727142e-05)
(-0.021951599 0.011802042 2.655436e-05)
(-0.027000835 0.012373413 2.9979074e-05)
(-0.032181261 0.012643157 3.0932368e-05)
(-0.037381943 0.012628674 2.9345047e-05)
(-0.042495797 0.012343629 2.5139851e-05)
(-0.047418772 0.011797235 1.8232801e-05)
(-0.052049151 0.010995219 8.5456663e-06)
(-0.056287335 0.009941852 -3.9769655e-06)
(-0.060036347 0.0086425581 -1.9344538e-05)
(-0.063203145 0.0071067042 -3.7497944e-05)
(-0.065700744 0.0053502437 -5.8283519e-05)
(-0.067451055 0.0033979563 -8.1429885e-05)
(-0.068388271 0.0012850812 -0.00010653314)
(-0.06846256 -0.00094181619 -0.00013304524)
(-0.067643856 -0.0032248877 -0.00016027503)
(-0.065925435 -0.0054959826 -0.00018740539)
(-0.063326974 -0.0076786969 -0.00021352187)
(-0.05989681 -0.009691412 -0.00023765792)
(-0.055713082 -0.011451255 -0.00025885552)
(-0.050883476 -0.012878812 -0.00027623358)
(-0.045543335 -0.01390334 -0.00028905972)
(-0.039851962 -0.01446814 -0.00029681991)
(-0.03398704 -0.014535699 -0.00029927657)
(-0.028137232 -0.014092209 -0.00029650536)
(-0.022493169 -0.013151122 -0.00028890555)
(-0.017237174 -0.011755576 -0.00027718166)
(-0.012532247 -0.0099797223 -0.00026229675)
(-0.0085109645 -0.0079293327 -0.00024539921)
(-0.0052650146 -0.0057424769 -0.00022773579)
(-0.0028351791 -0.0035912445 -0.00021059154)
(-0.0012025282 -0.0016843722 -0.00019520961)
(-0.00029405265 -0.00027215291 -0.00018229432)
(-4.4782706e-06 0.00032572982 -0.00016000395)
(-0.00018761387 0.0010140267 -7.4602688e-05)
(-0.0012863616 0.0038039379 -5.337617e-05)
(-0.0036436198 0.0067941783 -3.3842136e-05)
(-0.0069650503 0.0096518963 -1.8359044e-05)
(-0.011082628 0.01219158 -5.1744937e-06)
(-0.015865967 0.014314432 5.5700831e-06)
(-0.021176153 0.015980725 1.3853023e-05)
(-0.026874592 0.017187417 1.9776728e-05)
(-0.032827947 0.017950249 2.3416145e-05)
(-0.038908211 0.018291529 2.4799804e-05)
(-0.044992124 0.018232751 2.3910851e-05)
(-0.050960348 0.017790971 2.0689668e-05)
(-0.056696528 0.016978067 1.504243e-05)
(-0.06208664 0.015802053 6.8578525e-06)
(-0.067018914 0.014269744 -3.9712014e-06)
(-0.071384527 0.012390149 -1.7518518e-05)
(-0.075079129 0.010178081 -3.3797603e-05)
(-0.078005174 0.0076575513 -5.2731526e-05)
(-0.080074962 0.0048646352 -7.4125004e-05)
(-0.081214225 0.0018495385 -9.7643949e-05)
(-0.081366034 -0.0013223356 -0.00012279843)
(-0.080494828 -0.0045704831 -0.00014894001)
(-0.078590287 -0.0078006291 -0.00017527412)
(-0.075670753 -0.010907425 -0.00020088746)
(-0.071785901 -0.01377844 -0.00022479202)
(-0.06701834 -0.016299387 -0.00024598657)
(-0.061483809 -0.018360386 -0.00026352901)
(-0.055329654 -0.019862969 -0.0002766137)
(-0.048731346 -0.0207274 -0.00028464755)
(-0.041886847 -0.020899806 -0.00028731449)
(-0.035008834 -0.020358576 -0.00028461761)
(-0.028314942 -0.019119497 -0.00027689296)
(-0.022016413 -0.017239292 -0.00026479177)
(-0.016305781 -0.014817409 -0.0002492306)
(-0.011344502 -0.011996321 -0.00023131093)
(-0.0072515195 -0.0089610318 -0.00021222592)
(-0.0040921468 -0.0059386897 -0.00019322131)
(-0.0018684913 -0.0031979677 -0.0001755089)
(-0.00053554815 -0.0010494491 -0.000159396)
(-4.2228143e-05 0.00013203788 -0.00013428975)
(-0.00024263628 0.0017587864 -8.9405485e-05)
(-0.0016096623 0.0058334519 -6.3354154e-05)
(-0.0044846238 0.0099286793 -4.0446418e-05)
(-0.0084686419 0.013723605 -2.3054711e-05)
(-0.013338208 0.017039257 -8.6595785e-06)
(-0.018931467 0.019782457 2.835802e-06)
(-0.025085728 0.02191943 1.1625763e-05)
(-0.031644646 0.023453489 1.8007846e-05)
(-0.03846147 0.024406669 2.2195531e-05)
(-0.045397167 0.024806951 2.4305887e-05)
(-0.052318597 0.024680481 2.4370329e-05)
(-0.059097 0.024047849 2.2342321e-05)
(-0.065606691 0.022923575 1.8111709e-05)
(-0.07172426 0.021317956 1.1527308e-05)
(-0.077328471 0.019240443 2.4235061e-06)
(-0.082301 0.016703862 -9.345778e-06)
(-0.086528028 0.013728838 -2.3875403e-05)
(-0.08990263 0.010347947 -4.1172687e-05)
(-0.092327894 0.0066092097 -6.112356e-05)
(-0.093720591 0.0025786021 -8.3465871e-05)
(-0.09401524 -0.0016586296 -0.00010776627)
(-0.093168338 -0.0059980566 -0.00013341288)
(-0.091162598 -0.010317639 -0.00015962174)
(-0.088010877 -0.014480977 -0.00018546196)
(-0.083759476 -0.018342166 -0.00020989866)
(-0.078490503 -0.021752231 -0.00023185607)
(-0.072322886 -0.024566963 -0.00025029447)
(-0.065411634 -0.026655817 -0.00026429491)
(-0.057944961 -0.02791141 -0.00027314423)
(-0.050138974 -0.028258956 -0.00027640936)
(-0.042229795 -0.027664933 -0.00027398908)
(-0.034463221 -0.02614421 -0.00026613548)
(-0.027082309 -0.023765025 -0.00025344038)
(-0.020313605 -0.020651423 -0.00023678541)
(-0.014353215 -0.016983184 -0.00021725574)
(-0.0093539462 -0.012993817 -0.00019604082)
(-0.0054124508 -0.0089674326 -0.0001744157)
(-0.0025579843 -0.0052340519 -0.00015364502)
(-0.00077799349 -0.0021645333 -0.00013372497)
(-7.7174793e-05 -0.00018622343 -0.00010560314)
(-0.0002934027 0.0026677934 -9.9657052e-05)
(-0.001913727 0.0082700771 -6.868341e-05)
(-0.005282778 0.013641671 -4.2419607e-05)
(-0.0099028598 0.018489403 -2.2995748e-05)
(-0.015496221 0.022655176 -7.1858423e-06)
(-0.021869034 0.02606309 5.3218619e-06)
(-0.028834372 0.028693932 1.491457e-05)
(-0.036218221 0.030563218 2.2065414e-05)
(-0.043861201 0.031702961 2.7111393e-05)
(-0.051614721 0.032148932 3.0246307e-05)
(-0.059337786 0.031932987 3.1539408e-05)
(-0.066894592 0.031079659 3.0948591e-05)
(-0.074152671 0.029606165 2.8339558e-05)
(-0.080981752 0.027524958 2.3513019e-05)
(-0.087253458 0.024847928 1.6235877e-05)
(-0.092841908 0.021591483 6.280405e-06)
(-0.09762521 0.017781818 -6.5389171e-06)
(-0.10148777 0.013459829 -2.2322672e-05)
(-0.10432332 0.0086852511 -4.104616e-05)
(-0.10603863 0.0035396835 -6.2525863e-05)
(-0.10655759 -0.0018717653 -8.6389189e-05)
(-0.10582571 -0.007420428 -0.00011206101)
(-0.10381479 -0.012955677 -0.00013876262)
(-0.10052749 -0.018308583 -0.000165534)
(-0.096001545 -0.023297445 -0.0001912744)
(-0.090313214 -0.027735303 -0.00021480656)
(-0.083579521 -0.031439313 -0.00023495845)
(-0.075958754 -0.034241643 -0.00025065651)
(-0.067648666 -0.036001375 -0.00026102234)
(-0.058881895 -0.036616652 -0.00026546058)
(-0.049918302 -0.036036116 -0.00026372514)
(-0.041034198 -0.034268597 -0.00025595342)
(-0.0325088 -0.031390052 -0.00024266191)
(-0.024608723 -0.027547023 -0.00022470012)
(-0.017571971 -0.022956319 -0.0002031607)
(-0.011592946 -0.017901318 -0.00017927417)
(-0.006806946 -0.012725656 -0.00015440952)
(-0.0032762019 -0.0078238587 -0.00012996472)
(-0.0010239224 -0.0036302273 -0.00010570781)
(-0.00011019844 -0.00062786856 -7.4388956e-05)
(-0.0003402908 0.0037302467 -0.00010396544)
(-0.0021975287 0.011091095 -6.7957007e-05)
(-0.006031861 0.017904454 -3.8460148e-05)
(-0.011253889 0.023917606 -1.6986858e-05)
(-0.01753457 0.029005845 3.4493082e-07)
(-0.024649104 0.033121376 1.4045471e-05)
(-0.032386952 0.036268065 2.4678194e-05)
(-0.040557118 0.038479836 3.2872765e-05)
(-0.048988572 0.039802884 3.907341e-05)
(-0.057524574 0.04028339 4.3537266e-05)
(-0.066018071 0.039960388 4.6359825e-05)
(-0.074328323 0.038863013 4.7492876e-05)
(-0.082318333 0.037011306 4.6767923e-05)
(-0.089853207 0.034419643 4.3927739e-05)
(-0.096799473 0.031101865 3.8661741e-05)
(-0.10302538 0.027077271 3.0649934e-05)
(-0.10840212 0.022376751 1.9604981e-05)
(-0.11280587 0.017048499 5.3209534e-06)
(-0.11612066 0.011162844 -1.2279622e-05)
(-0.1182419 0.0048158852 -3.3103893e-05)
(-0.11908055 -0.0018683852 -5.68502e-05)
(-0.1185678 -0.0087377399 -8.2988475e-05)
(-0.11666018 -0.01561294 -0.00011074783)
(-0.11334514 -0.022291675 -0.00013913569)
(-0.10864617 -0.028554446 -0.00016697285)
(-0.10262784 -0.034172948 -0.00019295787)
(-0.095399625 -0.03892088 -0.00021575279)
(-0.0871182 -0.042586892 -0.00023408574)
(-0.077987215 -0.044989161 -0.00024686173)
(-0.068253989 -0.045990703 -0.0002532684)
(-0.058202472 -0.045514254 -0.00025286229)
(-0.048142257 -0.043555284 -0.00024562223)
(-0.038393875 -0.040191688 -0.00023196075)
(-0.029271191 -0.035588888 -0.00021268712)
(-0.021062652 -0.029999652 -0.00018891701)
(-0.014013243 -0.023758714 -0.00016196128)
(-0.0083052086 -0.017272979 -0.00013334424)
(-0.0040401241 -0.011006942 -0.0001046748)
(-0.0012806266 -0.0054650608 -7.556079e-05)
(-0.00014291376 -0.0011948201 -4.07769e-05)
(-0.0003834281 0.004935165 -0.00010107715)
(-0.0024599393 0.014270978 -5.9884224e-05)
(-0.0067266737 0.022682888 -2.7341528e-05)
(-0.012510336 0.029969494 -3.8682785e-06)
(-0.019434601 0.036050428 1.5031726e-05)
(-0.027245765 0.040915835 3.0055297e-05)
(-0.035711162 0.04460076 4.1928741e-05)
(-0.04462406 0.047163731 5.142186e-05)
(-0.053803047 0.048669552 5.9071776e-05)
(-0.063084696 0.049177746 6.5185638e-05)
(-0.072317628 0.048736275 6.9872962e-05)
(-0.081358108 0.047379737 7.3068132e-05)
(-0.090066682 0.045131189 7.4557876e-05)
(-0.098305895 0.042006604 7.401661e-05)
(-0.10593909 0.038021021 7.1045476e-05)
(-0.11283024 0.033195499 6.5220011e-05)
(-0.1188447 0.027564152 5.6137124e-05)
(-0.12385089 0.021180691 4.3469919e-05)
(-0.12772276 0.014124035 2.7021144e-05)
(-0.13034308 0.0065026818 6.7749353e-06)
(-0.13160771 -0.0015424849 -1.7054751e-05)
(-0.13143009 -0.0098373293 -4.4007599e-05)
(-0.12974715 -0.018174916 -7.3325633e-05)
(-0.12652583 -0.026319445 -0.00010399056)
(-0.12176944 -0.034012061 -0.0001347407)
(-0.11552438 -0.040979813 -0.00016413283)
(-0.10788619 -0.046947693 -0.00019063119)
(-0.09900404 -0.05165363 -0.00021271927)
(-0.089082811 -0.054865953 -0.00022902673)
(-0.078381675 -0.056402411 -0.00023845753)
(-0.067208267 -0.056149281 -0.00024030273)
(-0.055907888 -0.054078743 -0.00023432155)
(-0.044847704 -0.050262408 -0.00022077691)
(-0.034396738 -0.044879087 -0.00020041525)
(-0.024903624 -0.038215416 -0.00017437985)
(-0.016674415 -0.030659087 -0.00014409431)
(-0.0099481582 -0.022685344 -0.00011129674)
(-0.0048735559 -0.014836632 -7.7883573e-05)
(-0.0015579798 -0.0076978366 -4.3353874e-05)
(-0.00017729806 -0.0018940073 -4.7043304e-06)
(-0.00042270003 0.0062710086 -8.9844249e-05)
(-0.0026993175 0.017781528 -4.3278861e-05)
(-0.0073616822 0.027938019 -7.9207465e-06)
(-0.013660956 0.03659997 1.7462207e-05)
(-0.021178214 0.04374097 3.793977e-05)
(-0.029633611 0.049397939 5.4387366e-05)
(-0.038774447 0.053644605 6.7683341e-05)
(-0.048379937 0.056570055 7.8724868e-05)
(-0.058259803 0.058262136 8.8128963e-05)
(-0.068245492 0.058796795 9.6240411e-05)
(-0.078182997 0.058232863 0.00010317146)
(-0.087927452 0.056611417 0.00010882866)
(-0.097338919 0.053958779 0.00011294407)
(-0.10627938 0.050292123 0.00011511336)
(-0.11461088 0.045626717 0.00011483781)
(-0.12219475 0.039983873 0.00011157508)
(-0.12889174 0.033398917 0.00010479001)
(-0.13456318 0.02592861 9.4015144e-05)
(-0.13907287 0.017657611 7.8910833e-05)
(-0.14229008 0.0087037013 5.9327746e-05)
(-0.14409365 -0.00077841393 3.536917e-05)
(-0.14437634 -0.010594808 7.3734198e-06)
(-0.14305134 -0.020513444 -2.391286e-05)
(-0.14005997 -0.030265762 -5.7468047e-05)
(-0.13537908 -0.039552647 -9.1955022e-05)
(-0.12902995 -0.048053541 -0.00012577941)
(-0.1210868 -0.055439346 -0.0001571795)
(-0.11168414 -0.061389296 -0.00018434618)
(-0.10102179 -0.065611473 -0.00020556737)
(-0.089366258 -0.067866024 -0.00021938276)
(-0.077046871 -0.067989444 -0.0002247308)
(-0.064445884 -0.065917565 -0.00022106759)
(-0.051981897 -0.06170444 -0.00020843821)
(-0.040087259 -0.055534225 -0.00018748345)
(-0.029181615 -0.047723785 -0.00015936344)
(-0.019644313 -0.038715107 -0.00012563724)
(-0.011783198 -0.029058033 -8.8312367e-05)
(-0.0058041231 -0.019383408 -4.9650734e-05)
(-0.0018671707 -0.010370201 -9.0792959e-06)
(-0.00021545064 -0.0027380971 3.4001849e-05)
(-0.00045778658 0.0077252759 -6.9219946e-05)
(-0.0029134472 0.021591604 -1.7060069e-05)
(-0.0079305946 0.033626118 2.085072e-05)
(-0.01469378 0.043757733 4.8027705e-05)
(-0.022746618 0.052022412 7.0071484e-05)
(-0.031786299 0.058511685 8.8030887e-05)
(-0.04154256 0.063344762 0.00010292728)
(-0.051782524 0.066646864 0.0001157742)
(-0.062308722 0.068533189 0.00012725721)
(-0.072949082 0.069099232 0.00013774857)
(-0.083548656 0.068416759 0.00014735415)
(-0.09396326 0.066534463 0.00015594407)
(-0.10405441 0.063482247 0.000163187)
(-0.11368551 0.059278076 0.00016859055)
(-0.12271929 0.05393633 0.0001715448)
(-0.13101622 0.047476791 0.00017137514)
(-0.13843401 0.039933559 0.00016739609)
(-0.14482796 0.031363393 0.00015897647)
(-0.15005232 0.021853137 0.00014560566)
(-0.15396264 0.011525975 0.00012695934)
(-0.15641902 0.00054640628 0.00010296327)
(-0.15729181 -0.010876196 7.3917909e-05)
(-0.15646751 -0.022487355 4.0399252e-05)
(-0.15385642 -0.033987793 3.4286678e-06)
(-0.14940285 -0.045038414 -3.5593512e-05)
(-0.14309564 -0.055268924 -7.4923389e-05)
(-0.13497938 -0.064291092 -0.00011255265)
(-0.12516521 -0.07171717 -0.00014633307)
(-0.11383957 -0.077183418 -0.00017413802)
(-0.10126931 -0.08037795 -0.00019404766)
(-0.087801075 -0.081071137 -0.00020453839)
(-0.073853178 -0.079145752 -0.00020465194)
(-0.059899062 -0.074623128 -0.00019411727)
(-0.046442228 -0.067681234 -0.00017339871)
(-0.033984973 -0.058661034 -0.00014364017)
(-0.022994089 -0.048059178 -0.00010654498)
(-0.013860887 -0.036507088 -6.4441657e-05)
(-0.0068614298 -0.024736722 -2.0039681e-05)
(-0.0022200478 -0.013538039 2.7280633e-05)
(-0.00025951068 -0.0037459162 7.554469e-05)
(-0.00048822689 0.0092841868 -3.8265292e-05)
(-0.0030996773 0.025666759 1.9736042e-05)
(-0.0084264609 0.039698494 5.9910083e-05)
(-0.015596091 0.051385195 8.8749745e-05)
(-0.024120188 0.060832418 0.0001123396)
(-0.033676362 0.068193085 0.00013189622)
(-0.043979431 0.073637932 0.00014857645)
(-0.054786502 0.07733342 0.0001634999)
(-0.065894628 0.079426206 0.0001774119)
(-0.077129815 0.080034433 0.00019070484)
(-0.088337812 0.079244951 0.00020347173)
(-0.09937688 0.077115326 0.00021554033)
(-0.1101119 0.073679479 0.00022650962)
(-0.12040975 0.068955789 0.00023579148)
(-0.13013591 0.0629566 0.00024265494)
(-0.13915209 0.055698224 0.00024627895)
(-0.14731489 0.047210815 0.00024580818)
(-0.1544753 0.037547656 0.00024042142)
(-0.16047925 0.026793622 0.00022940322)
(-0.16516923 0.015072654 0.00021222068)
(-0.16838716 0.0025540382 0.00018860327)
(-0.16997935 -0.010542911 0.00015863799)
(-0.16980274 -0.02394527 0.00012279889)
(-0.16773329 -0.037326597 8.203108e-05)
(-0.16367711 -0.050309613 3.775377e-05)
(-0.15758311 -0.062473537 -8.1583521e-06)
(-0.14945716 -0.073366981 -5.3442798e-05)
(-0.13937671 -0.082527279 -9.5572421e-05)
(-0.12750413 -0.089506697 -0.00013193092)
(-0.11409666 -0.093905084 -0.00016003046)
(-0.099510446 -0.095407288 -0.00017775181)
(-0.084195831 -0.093822123 -0.00018357763)
(-0.068682032 -0.08911821 -0.0001767839)
(-0.053550297 -0.081451037 -0.00015754951)
(-0.039397556 -0.07117572 -0.00012693699)
(-0.026794093 -0.058841807 -8.6781707e-05)
(-0.016232498 -0.045169238 -3.9778207e-05)
(-0.0080758881 -0.03100568 1.0828547e-05)
(-0.0026287915 -0.017272141 6.5686155e-05)
(-0.00031164708 -0.0049426425 0.00012008252)
(-0.00051349043 0.010932471 3.8331905e-06)
(-0.0032551605 0.029969012 6.7938017e-05)
(-0.0088420832 0.046101377 0.00011006391)
(-0.016354968 0.059418422 0.00014042587)
(-0.025279123 0.070101203 0.00016553906)
(-0.035275992 0.078369709 0.0001867809)
(-0.046048119 0.084451434 0.00020543661)
(-0.057344627 0.088558679 0.00022272292)
(-0.068958735 0.090873415 0.00023943876)
(-0.080716034 0.091539487 0.00025599242)
(-0.092464512 0.090661056 0.00027246076)
(-0.10406657 0.088305969 0.00028862655)
(-0.11539232 0.084512755 0.0003040162)
(-0.1263142 0.079299983 0.00031794118)
(-0.13670272 0.072676889 0.00032954166)
(-0.14642322 0.064654385 0.00033783743)
(-0.15533363 0.055255855 0.00034178391)
(-0.16328306 0.0445274 0.00034034189)
(-0.17011137 0.032547361 0.00033255327)
(-0.1756499 0.019435072 0.00031762811)
(-0.17972364 0.0053587042 0.00029503774)
(-0.18215528 -0.0094580461 0.00026461431)
(-0.18277137 -0.024730423 0.00022663554)
(-0.18141095 -0.040109998 0.00018190726)
(-0.17793734 -0.055184993 0.00013180949)
(-0.17225254 -0.06948543 7.8306585e-05)
(-0.16431431 -0.082494587 2.3902309e-05)
(-0.15415476 -0.09366823 -2.8472044e-05)
(-0.14189902 -0.10246274 -7.5640194e-05)
(-0.12778131 -0.10837235 -0.00011442948)
(-0.11215528 -0.11097413 -0.00014196791)
(-0.095494881 -0.1099775 -0.00015599683)
(-0.078382248 -0.10527253 -0.00015515461)
(-0.061480496 -0.096969644 -0.00013917491)
(-0.045492634 -0.085422532 -0.0001089284)
(-0.031110101 -0.071228074 -6.6338252e-05)
(-0.018948007 -0.055200392 -1.4497654e-05)
(-0.009477897 -0.038318759 4.2719139e-05)
(-0.0031057509 -0.021658367 0.00010597119)
(-0.000374078 -0.0063599031 0.00016765658)
(-0.00053304579 0.012653312 5.7741195e-05)
(-0.0033771503 0.034456875 0.00012821978)
(-0.0091706447 0.052776047 0.00017196857)
(-0.016958245 0.067787281 0.00020370688)
(-0.0262047 0.079751566 0.00023031905)
(-0.036558585 0.088960445 0.00025333537)
(-0.047712651 0.095702541 0.00027416216)
(-0.059409902 0.10024007 0.00029410643)
(-0.0714412 0.10279392 0.00031401708)
(-0.083633063 0.10353662 0.00033431724)
(-0.095837117 0.10259199 0.00035506836)
(-0.10792147 0.10003974 0.00037600955)
(-0.1197633 0.095923842 0.00039659585)
(-0.13124271 0.090263064 0.00041603764)
(-0.14223766 0.083062699 0.0004333418)
(-0.15261983 0.074326506 0.00044735891)
(-0.16225147 0.064068404 0.00045683753)
(-0.17098299 0.052323621 0.00046049312)
(-0.17865145 0.03915928 0.00045708635)
(-0.1850803 0.024684453 0.00044551782)
(-0.19008039 0.0090596994 0.0004249342)
(-0.19345311 -0.0074940823 0.00039484449)
(-0.19499571 -0.024687757 0.00035523618)
(-0.19450969 -0.042158139 0.0003066873)
(-0.19181265 -0.05946512 0.00025045355)
(-0.18675394 -0.076093588 0.00018851846)
(-0.17923413 -0.091462138 0.00012358481)
(-0.1692276 -0.10494078 5.8988079e-05)
(-0.15680689 -0.11587967 -1.48108e-06)
(-0.14216614 -0.12364999 -5.3849445e-05)
(-0.12563967 -0.12769665 -9.4316989e-05)
(-0.10771103 -0.12759966 -0.00011966287)
(-0.089006991 -0.12313797 -0.00012764738)
(-0.070272531 -0.11434629 -0.00011733411)
(-0.052326284 -0.10155345 -8.9228852e-05)
(-0.035999378 -0.085391923 -4.5250342e-05)
(-0.022054153 -0.066772625 1.1100109e-05)
(-0.011097149 -0.046822641 7.5222423e-05)
(-0.0036633526 -0.026797444 0.00014776904)
(-0.00044910447 -0.0080358376 0.0002181149)
(-0.00054643153 0.014428483 0.00012395303)
(-0.0034633476 0.039085724 0.00020108087)
(-0.009406502 0.059659362 0.00024611065)
(-0.017395774 0.076415989 0.00027907366)
(-0.026881001 0.089699304 0.0003071549)
(-0.037500896 0.099875624 0.00033202826)
(-0.048940611 0.1072982 0.00035521406)
(-0.060938629 0.11228271 0.00037810488)
(-0.073284683 0.11509229 0.00040159888)
(-0.085807342 0.11593116 0.00042613663)
(-0.098363081 0.11494522 0.00045176921)
(-0.11082713 0.11222791 0.00047819832)
(-0.12308549 0.10782975 0.00050481337)
(-0.13502802 0.1017701 0.00053072748)
(-0.14654265 0.094049819 0.00055481441)
(-0.1575104 0.084664155 0.00057574974)
(-0.1678013 0.073615206 0.00059206138)
(-0.17727095 0.06092393 0.00060219497)
(-0.18575796 0.046641712 0.00060459277)
(-0.19308241 0.030861686 0.00059779367)
(-0.19904564 0.013729938 0.00058055026)
(-0.20343199 -0.0045434269 0.00055196397)
(-0.20601284 -0.023673659 0.0005116316)
(-0.20655398 -0.043292049 0.00045979291)
(-0.20482683 -0.062939074 0.00039746557)
(-0.20062438 -0.082061945 0.00032654721)
(-0.1937823 -0.10001906 0.00024985895)
(-0.18420496 -0.1160943 0.00017110239)
(-0.17189559 -0.12952435 9.4706005e-05)
(-0.15698783 -0.13954156 2.5543152e-05)
(-0.13977464 -0.14543337 -3.1476551e-05)
(-0.12072849 -0.14661636 -7.1915512e-05)
(-0.10050538 -0.1427185 -9.2355193e-05)
(-0.079925865 -0.13365839 -9.0885164e-05)
(-0.059929851 -0.11970581 -6.7389943e-05)
(-0.041506206 -0.10150798 -2.3621312e-05)
(-0.025592274 -0.080069443 3.6542426e-05)
(-0.012961896 -0.056680087 0.00010768416)
(-0.0043140196 -0.032804396 0.00019042826)
(-0.00053914978 -0.010015148 0.0002710266)
(-0.00055333384 0.016238673 0.00020277073)
(-0.0035122941 0.043808601 0.00028682935)
(-0.0095461061 0.066684798 0.00033279082)
(-0.017660931 0.085224186 0.00036681934)
(-0.027296982 0.099854145 0.00039632602)
(-0.03808567 0.11101767 0.00042311761)
(-0.049706333 0.11913527 0.00044882274)
(-0.061894178 0.12457913 0.00047491694)
(-0.074438744 0.12765779 0.00050235044)
(-0.087171535 0.12861015 0.00053158854)
(-0.09995488 0.12760681 0.00056268172)
(-0.11267241 0.12475706 0.00059530534)
(-0.12522053 0.12011949 0.00062879403)
(-0.13750095 0.11371483 0.00066217269)
(-0.14941412 0.10553958 0.00069418749)
(-0.16085359 0.095579628 0.00072333889)
(-0.17170098 0.083823485 0.00074792606)
(-0.18182158 0.070275003 0.00076610576)
(-0.19106077 0.054965806 0.00077596946)
(-0.19924108 0.03796773 0.00077564527)
(-0.20616059 0.019405572 0.00076342373)
(-0.21159294 -0.00052973397 0.00073791038)
(-0.21528957 -0.021567668 0.00069820166)
(-0.21698531 -0.043345088 0.00064407119)
(-0.216408 -0.06539479 0.00057615823)
(-0.2132936 -0.087137602 0.00049613267)
(-0.20740768 -0.10788092 0.00040680732)
(-0.19857388 -0.12682737 0.0003121609)
(-0.18670916 -0.14309797 0.00021723387)
(-0.1718639 -0.15577415 0.00012786216)
(-0.15426268 -0.16396178 5.0232707e-05)
(-0.13433888 -0.16687736 -9.7258785e-06)
(-0.11275346 -0.16395091 -4.7058297e-05)
(-0.090387504 -0.15493315 -5.8486364e-05)
(-0.068301206 -0.13998707 -4.291059e-05)
(-0.047656547 -0.1197405 -1.6542341e-06)
(-0.029595679 -0.095279044 6.1125181e-05)
(-0.015098031 -0.068066709 0.00013912303)
(-0.0050700512 -0.039807558 0.00023291374)
(-0.00064679705 -0.01234912 0.00032558122)
(-0.00055366871 0.018064037 0.00029428692)
(-0.0035238006 0.048577471 0.00038556977)
(-0.0095890246 0.073784084 0.0004321135)
(-0.017752308 0.094128645 0.00046703697)
(-0.027448846 0.11012129 0.00049789884)
(-0.038304671 0.12228232 0.00052662685)
(-0.049994561 0.13110135 0.00055495449)
(-0.062251295 0.1370097 0.00058444107)
(-0.074864861 0.14036433 0.00061609646)
(-0.087670356 0.14144187 0.00065042298)
(-0.1005368 0.14044046 0.00068748545)
(-0.11335733 0.13748768 0.000726949)
(-0.12604029 0.13265212 0.00076810954)
(-0.13850117 0.12595721 0.0008099183)
(-0.15065553 0.11739572 0.00085100529)
(-0.16241266 0.10694404 0.00088970216)