/*--------------------------------*- C++ -*----------------------------------*\
  =========                 |
  \\      /  F ield         | OpenFOAM: The Open Source CFD Toolbox
   \\    /   O peration     | Website:  https://openfoam.org
    \\  /    A nd           | Version:  7
     \\/     M anipulation  |
\*---------------------------------------------------------------------------*/
FoamFile
{
    version     2.0;
    format      ascii;
    class       volVectorField;
    location    "8";
    object      U_0;
}
// * * * * * * * * * * * * * * * * * * * * * * * * * * * * * * * * * * * * * //

dimensions      [0 1 -1 0 0 0 0];

internalField   nonuniform List<vector> 
16000
(
(6.5530371e-05 -6.3461426e-05 8.7856471e-07)
(0.00015872991 -5.2930205e-05 7.1628729e-06)
(0.00013413835 2.2165374e-06 2.032811e-05)
(-5.7119095e-05 6.1717858e-05 3.7197953e-05)
(-0.00041013401 0.00011380589 5.4633455e-05)
(-0.00089843057 0.00015460885 7.0750162e-05)
(-0.0014929249 0.0001843947 8.4251996e-05)
(-0.0021653678 0.00020480918 9.4347639e-05)
(-0.0028905827 0.00021761423 0.00010059076)
(-0.0036468283 0.00022426239 0.00010274552)
(-0.004415244 0.00022578429 0.00010069508)
(-0.0051789958 0.00022279282 9.4384616e-05)
(-0.0059224103 0.00021554404 8.3797784e-05)
(-0.0066302526 0.00020402567 6.8954394e-05)
(-0.0072872271 0.00018805732 4.9922377e-05)
(-0.0078777443 0.00016739562 2.6838372e-05)
(-0.0083859535 0.00014183831 -6.5780477e-08)
(-0.0087960809 0.00011131348 -3.0435659e-05)
(-0.0090929776 7.5984587e-05 -6.3772061e-05)
(-0.0092628739 3.6300986e-05 -9.941385e-05)
(-0.0092943287 -6.944801e-06 -0.00013653448)
(-0.0091792127 -5.2610266e-05 -0.000174152)
(-0.0089137139 -9.9178711e-05 -0.00021115262)
(-0.0084992561 -0.00014482702 -0.00024633444)
(-0.0079432033 -0.00018750014 -0.00027846408)
(-0.0072592858 -0.00022502454 -0.00030634491)
(-0.0064676505 -0.00025525168 -0.00032889647)
(-0.0055944733 -0.00027622026 -0.00034523647)
(-0.0046711091 -0.00028632075 -0.00035475731)
(-0.0037327932 -0.00028444332 -0.00035719127)
(-0.0028169577 -0.00027009255 -0.00035265905)
(-0.0019612638 -0.00024345489 -0.00034169621)
(-0.0012014651 -0.00020541751 -0.00032525594)
(-0.00056912747 -0.00015757158 -0.00030469281)
(-8.9214868e-05 -0.00010232711 -0.00028172247)
(0.0002216133 -4.3236724e-05 -0.00025832913)
(0.00035911739 1.5128867e-05 -0.00023686144)
(0.00033654504 6.3735254e-05 -0.0002196951)
(0.00020040788 8.6960867e-05 -0.00020946279)
(5.636964e-05 5.6307869e-05 -0.00019426066)
(5.599946e-05 -0.00015762007 -4.9167926e-06)
(3.6140703e-05 -3.2311821e-05 1.3805813e-06)
(-0.00029663552 0.00024862352 1.2687605e-05)
(-0.00099940261 0.00055302234 2.6558455e-05)
(-0.0020634014 0.00082980637 4.095079e-05)
(-0.003444136 0.0010581896 5.431748e-05)
(-0.0050824505 0.001233712 6.5561335e-05)
(-0.0069158768 0.0013593528 7.3950736e-05)
(-0.0088845136 0.001440486 7.9019484e-05)
(-0.010933146 0.0014824802 8.0480248e-05)
(-0.013011299 0.0014896437 7.81602e-05)
(-0.015072296 0.0014648673 7.1959092e-05)
(-0.017071979 0.0014096742 6.1829063e-05)
(-0.018967524 0.0013245143 4.7770205e-05)
(-0.020716637 0.0012091914 2.9838925e-05)
(-0.022277251 0.0010633606 8.1642511e-06)
(-0.023607814 0.00088703969 -1.7031516e-05)
(-0.024668154 0.00068108186 -4.5409982e-05)
(-0.025420867 0.0004476215 -7.6498741e-05)
(-0.025833142 0.00019037626 -0.00010967712)
(-0.025878891 -8.5137645e-05 -0.00014417341)
(-0.025540957 -0.00037152105 -0.00017908117)
(-0.024813298 -0.00065961286 -0.00021337352)
(-0.02370294 -0.00093875997 -0.00024594969)
(-0.022231367 -0.0011972746 -0.0002756864)
(-0.020435273 -0.0014230618 -0.00030150121)
(-0.018366447 -0.0016043799 -0.00032242538)
(-0.016090687 -0.0017306837 -0.00033767912)
(-0.01368568 -0.0017934768 -0.00034674132)
(-0.011237871 -0.0017870965 -0.0003494074)
(-0.0088384415 -0.001709355 -0.00034583046)
(-0.0065785749 -0.0015619869 -0.00033654048)
(-0.0045442141 -0.0013509021 -0.00032243923)
(-0.0028104781 -0.0010863465 -0.00030477283)
(-0.0014357981 -0.00078327983 -0.00028508356)
(-0.00045591521 -0.00046234706 -0.00026513449)
(0.0001228144 -0.00015102208 -0.00024680941)
(0.00033265761 0.0001099997 -0.00023207531)
(0.00026333393 0.00025924849 -0.00022298481)
(8.7258224e-05 0.00019934565 -0.0002059337)
(7.8954253e-07 -0.00013810282 -1.8207606e-05)
(-0.00025394781 0.00030093815 -9.6462753e-06)
(-0.0010323817 0.0010088709 1.893759e-06)
(-0.0023387166 0.0017606722 1.4407956e-05)
(-0.0041441686 0.0024517839 2.6906855e-05)
(-0.0063904829 0.0030336419 3.8277513e-05)
(-0.0089989611 0.0034899874 4.7710772e-05)
(-0.011884151 0.0038218393 5.4661931e-05)
(-0.014961554 0.0040375644 5.8761269e-05)
(-0.018150723 0.0041472497 5.9761548e-05)
(-0.021375986 0.0041597925 5.7499131e-05)
(-0.024565874 0.004081652 5.1866444e-05)
(-0.027651972 0.0039166729 4.2798556e-05)
(-0.030567809 0.003666595 3.0272919e-05)
(-0.033248125 0.0033319756 1.4317696e-05)
(-0.035628778 0.0029133227 -4.9730092e-06)
(-0.03764737 0.0024122934 -2.7419785e-05)
(-0.039244607 0.0018328261 -5.2737441e-05)
(-0.040366325 0.0011821236 -8.0517276e-05)
(-0.040966048 0.00047139028 -0.00011021392)
(-0.041007854 -0.00028372757 -0.00014114475)
(-0.040469385 -0.001063024 -0.00017249614)
(-0.039344716 -0.001842125 -0.00020334641)
(-0.037646804 -0.0025931983 -0.00023270122)
(-0.035409254 -0.0032861357 -0.00025954183)
(-0.032687161 -0.0038901214 -0.00028288426)
(-0.029556799 -0.0043755037 -0.00030184762)
(-0.026114 -0.0047158537 -0.00031572434)
(-0.022471146 -0.0048900537 -0.00032404477)
(-0.018752786 -0.0048842441 -0.00032663026)
(-0.01509001 -0.0046934647 -0.00032362946)
(-0.011613774 -0.0043228795 -0.00031553234)
(-0.0084474487 -0.0037885725 -0.00030315885)
(-0.0056988802 -0.0031180654 -0.00028762314)
(-0.0034521523 -0.0023509544 -0.00027027737)
(-0.0017592316 -0.001540332 -0.00025263575)
(-0.00063160475 -0.00075572076 -0.00023627349)
(-3.1481096e-05 -8.8837922e-05 -0.00022274696)
(0.00014253142 0.00033636572 -0.00021371211)
(7.0130775e-05 0.00034114848 -0.00019593349)
(-6.3901826e-05 5.8302539e-05 -3.5795257e-05)
(-0.00059560971 0.0010338254 -2.3433376e-05)
(-0.0018851544 0.0023346051 -9.882809e-06)
(-0.00384852 0.0036699743 2.9297299e-06)
(-0.0064200305 0.0048913133 1.4991349e-05)
(-0.0095228794 0.0059238569 2.5556613e-05)
(-0.013060256 0.0067387674 3.409674e-05)
(-0.01692826 0.0073337433 4.0284554e-05)
(-0.021023614 0.0077190682 4.3890183e-05)
(-0.02524655 0.0079089691 4.4747388e-05)
(-0.029501665 0.0079167748 4.2733217e-05)
(-0.033697588 0.0077526508 3.7752278e-05)
(-0.037746076 0.0074231121 2.9730152e-05)
(-0.041561125 0.0069317343 1.8618909e-05)
(-0.045058499 0.0062806168 4.4096988e-06)
(-0.048155938 0.0054722399 -1.285097e-05)
(-0.05077415 0.0045114452 -3.3039378e-05)
(-0.052838608 0.003407314 -5.5932543e-05)
(-0.054282049 0.0021747743 -8.1188633e-05)
(-0.055047528 0.00083579446 -0.00010833208)
(-0.055091779 -0.00057994688 -0.00013675103)
(-0.054388707 -0.0020350271 -0.00016569994)
(-0.05293267 -0.0034849208 -0.00019432015)
(-0.050741234 -0.0048793613 -0.00022167202)
(-0.047857182 -0.0061644146 -0.00024678158)
(-0.04434943 -0.0072851953 -0.00026869808)
(-0.040312636 -0.0081890958 -0.00028656169)
(-0.035865291 -0.0088293366 -0.00029967398)
(-0.031146187 -0.0091685912 -0.00030756296)
(-0.026309245 -0.0091824057 -0.00031003607)
(-0.021516802 -0.0088621455 -0.00030721541)
(-0.016931579 -0.008217266 -0.00029954934)
(-0.012707645 -0.0072768398 -0.00028779663)
(-0.008980758 -0.0060904776 -0.00027298429)
(-0.0058585305 -0.0047290674 -0.0002563427)
(-0.003410833 -0.0032861258 -0.00023922496)
(-0.0016605535 -0.0018807586 -0.00022302608)
(-0.00057495105 -0.0006624864 -0.00020910646)
(-6.030754e-05 0.00018071159 -0.00019864936)
(3.4934895e-05 0.00039363796 -0.00017902276)
(-0.00012787253 0.00044431335 -5.4525146e-05)
(-0.00094589146 0.0022001909 -3.7787995e-05)
(-0.0027697228 0.0042592164 -2.1435781e-05)
(-0.0054121383 0.0062966283 -7.5233582e-06)
(-0.008759126 0.0081366014 4.8537514e-06)
(-0.012709348 0.0096867314 1.5273837e-05)
(-0.017146096 0.010909431 2.3473304e-05)
(-0.021948214 0.011800303 2.9345382e-05)
(-0.026996672 0.012371584 3.2811886e-05)
(-0.032176308 0.012641289 3.3802652e-05)
(-0.037376211 0.012626812 3.2247146e-05)
(-0.04248931 0.012341821 2.8068056e-05)
(-0.047411569 0.011795531 2.118345e-05)
(-0.052041291 0.010993665 1.1516723e-05)
(-0.056278898 0.0099404923 -9.8604084e-07)
(-0.06002743 0.0086414339 -1.6335392e-05)
(-0.063193856 0.0071058547 -3.4472386e-05)
(-0.065691205 0.0053497032 -5.5243711e-05)
(-0.067441398 0.0033977507 -7.8379295e-05)
(-0.068378631 0.0012852271 -0.00010347285)
(-0.068453076 -0.0009413121 -0.0001299752)
(-0.067634664 -0.0032240307 -0.00015719584)
(-0.065916663 -0.0054947924 -0.0001843167)
(-0.063318741 -0.0076772072 -0.00021042331)
(-0.059889221 -0.0096896697 -0.00023455031)
(-0.055706222 -0.011449318 -0.00025573968)
(-0.050877408 -0.01287675 -0.00027310993)
(-0.045538097 -0.013901227 -0.00028592964)
(-0.039847565 -0.014466056 -0.00029368592)
(-0.033983467 -0.01453372 -0.00029614098)
(-0.02813444 -0.014090407 -0.00029336943)
(-0.022491089 -0.01314956 -0.00028576998)
(-0.017235717 -0.011754303 -0.00027404716)
(-0.012531308 -0.0099787683 -0.00025916391)
(-0.0085104295 -0.0079287061 -0.00024226817)
(-0.0052647673 -0.0057421602 -0.00022460629)
(-0.0028351097 -0.0035911918 -0.00020746304)
(-0.0012025427 -0.0016845065 -0.00019208154)
(-0.0002940818 -0.00027236399 -0.00017916652)
(-4.4897304e-06 0.00032559222 -0.00015709252)
(-0.00018757339 0.0010141274 -7.2193279e-05)
(-0.0012861267 0.0038035685 -5.0776234e-05)
(-0.0036430089 0.0067933246 -3.1214989e-05)
(-0.0069639112 0.0096505659 -1.5697269e-05)
(-0.011080836 0.01218982 -2.4745406e-06)
(-0.015863421 0.014312317 8.3100809e-06)
(-0.021172768 0.015978338 1.6632362e-05)
(-0.026870309 0.017184842 2.2596441e-05)
(-0.032822741 0.017947561 2.6273065e-05)
(-0.038902079 0.018288798 2.7688401e-05)
(-0.04498508 0.018230046 2.6826533e-05)
(-0.050952424 0.017788364 2.3628686e-05)
(-0.056687781 0.016975625 1.8002101e-05)
(-0.062077145 0.01579984 9.8363528e-06)
(-0.067008768 0.014267819 -9.7400183e-07)
(-0.071373842 0.012388572 -1.4504299e-05)
(-0.075068033 0.010176903 -3.0768795e-05)
(-0.077993806 0.0076568177 -4.9690571e-05)
(-0.080063472 0.0048643794 -7.107473e-05)
(-0.081202763 0.0018497819 -9.4584522e-05)
(-0.081354756 -0.0013215872 -0.00011972934)
(-0.080483887 -0.0045692405 -0.00014586176)
(-0.078579824 -0.0077989212 -0.00017218654)
(-0.075660901 -0.010905299 -0.00019779021)
(-0.071776777 -0.013775961 -0.00022168563)
(-0.067010041 -0.016296635 -0.00024287202)
(-0.061476406 -0.018357455 -0.00026040728)
(-0.055323195 -0.01985996 -0.0002734866)
(-0.048725849 -0.02072442 -0.00028151755)
(-0.0418823 -0.02089696 -0.0002841834)
(-0.035005197 -0.020355963 -0.00028148632)
(-0.028312146 -0.019117204 -0.00027376214)
(-0.022014369 -0.017237387 -0.00026166227)
(-0.016304379 -0.014815936 -0.00024610313)
(-0.011343618 -0.011995296 -0.00022818554)
(-0.0072510262 -0.008960436 -0.00020910201)
(-0.0040919208 -0.0059384674 -0.00019009813)
(-0.001868422 -0.0031980235 -0.00017238597)
(-0.00053554615 -0.0010496446 -0.00015627358)
(-4.2234355e-05 0.00013188893 -0.00013138378)
(-0.00024258781 0.001758708 -8.6917629e-05)
(-0.001609374 0.0058327131 -6.0675929e-05)
(-0.0044838608 0.0099272861 -3.7751486e-05)
(-0.0084672251 0.013721594 -2.0335614e-05)
(-0.013335995 0.017036703 -5.9120112e-06)
(-0.018928348 0.019779461 5.6168672e-06)
(-0.025081624 0.021916102 1.4440657e-05)
(-0.031639506 0.023449931 2.085673e-05)
(-0.038455275 0.02440298 2.507546e-05)
(-0.045389919 0.024803228 2.7212469e-05)
(-0.05231032 0.024676819 2.7299781e-05)
(-0.059087739 0.024044338 2.5291985e-05)
(-0.065596516 0.022920304 2.1080261e-05)
(-0.07171326 0.021315005 1.4513623e-05)
(-0.077316758 0.019237893 5.4269756e-06)
(-0.082288702 0.016701787 -6.3277424e-06)
(-0.086515285 0.013727304 -2.0845301e-05)
(-0.089889597 0.010347009 -3.8132362e-05)
(-0.092314733 0.0066089078 -5.8074961e-05)
(-0.093707467 0.0025789607 -8.0408567e-05)
(-0.094002318 -0.0016576057 -0.00010469971)
(-0.093155782 -0.0059963841 -0.0001303374)
(-0.091150562 -0.010315357 -0.00015653683)
(-0.087999505 -0.014478147 -0.00018236712)
(-0.083748895 -0.018338872 -0.00020679456)
(-0.07848082 -0.021748575 -0.00022874411)
(-0.072314184 -0.024563063 -0.00024717615)
(-0.065403971 -0.026651804 -0.00026117213)
(-0.057938363 -0.027907418 -0.00027001906)
(-0.050133438 -0.028255121 -0.00027328325)
(-0.042225288 -0.027661382 -0.00027086291)
(-0.034459681 -0.026141058 -0.00026301008)
(-0.027079646 -0.023762362 -0.00025031666)
(-0.020311707 -0.02064931 -0.00023366394)
(-0.014351954 -0.016981648 -0.0002141363)
(-0.0093531855 -0.012992842 -0.00019292263)
(-0.0054120538 -0.0089669558 -0.00017129819)
(-0.0025578238 -0.0052339634 -0.00015052805)
(-0.00077795841 -0.0021646701 -0.00013060902)
(-7.7175932e-05 -0.0001863665 -0.00010270393)
(-0.0002933453 0.0026675185 -9.7104843e-05)
(-0.0019133849 0.008268901 -6.5940767e-05)
(-0.0052818669 0.013639637 -3.9668419e-05)
(-0.009901175 0.01848659 -2.0226241e-05)
(-0.01549361 0.022651698 -4.393093e-06)
(-0.021865382 0.026059078 8.1417917e-06)
(-0.028829603 0.028689523 1.7762643e-05)
(-0.036212294 0.030558543 2.4941281e-05)
(-0.043854103 0.031698149 3.0012275e-05)
(-0.05160646 0.032144106 3.3168826e-05)
(-0.059328395 0.031928267 3.4481326e-05)
(-0.066884129 0.031075157 3.3908761e-05)
(-0.074141221 0.029601988 3.1317281e-05)
(-0.080969417 0.027521209 2.6506833e-05)
(-0.08724036 0.024844704 1.9244506e-05)
(-0.092828186 0.021588875 9.3008255e-06)
(-0.097611015 0.017779905 -3.5087052e-06)
(-0.10147326 0.013458675 -1.9283774e-05)
(-0.10430868 0.0086849024 -3.8000045e-05)
(-0.10602402 0.0035401671 -5.9471877e-05)
(-0.1065432 -0.0018704463 -8.3326459e-05)
(-0.1058117 -0.0074182964 -0.00010898936)
(-0.10380132 -0.012952782 -0.00013568134)
(-0.10051472 -0.018305002 -0.00016244279)
(-0.095989607 -0.023293278 -0.00018817423)
(-0.090302226 -0.027730675 -0.00021169912)
(-0.083569576 -0.031434366 -0.0002318454)
(-0.075949922 -0.034236535 -0.00024753958)
(-0.067640986 -0.035996271 -0.00025790319)
(-0.058875375 -0.036611717 -0.00026234044)
(-0.049912919 -0.03603151 -0.00026060495)
(-0.041029899 -0.034264462 -0.00025283414)
(-0.0325055 -0.031386505 -0.00023954438)
(-0.024606312 -0.027544147 -0.00022158471)
(-0.017570318 -0.022954154 -0.00020004705)
(-0.011591906 -0.017899856 -0.00017616168)
(-0.0068063707 -0.012724835 -0.00015129809)
(-0.0032759464 -0.0078235551 -0.00012685451)
(-0.001023853 -0.0036302585 -0.00010259925)
(-0.00011019436 -0.00062798737 -7.1497415e-05)
(-0.00034022557 0.0037297613 -0.0001013618)
(-0.0021971362 0.011089419 -6.5161153e-05)
(-0.0060308138 0.017901688 -3.565918e-05)
(-0.011251961 0.023913881 -1.4171953e-05)
(-0.017531601 0.029001323 3.1789846e-06)
(-0.024644982 0.033116225 1.6901189e-05)
(-0.032381604 0.036262454 2.7555796e-05)
(-0.040550506 0.038473932 3.5771813e-05)
(-0.048980688 0.039796846 4.1992224e-05)
(-0.057515435 0.040277371 4.6473993e-05)
(-0.066007724 0.039954528 4.93136e-05)
(-0.074316837 0.038857447 5.0463239e-05)
(-0.082305803 0.037006163 4.9754002e-05)
(-0.089839744 0.034415046 4.6927448e-05)
(-0.096785208 0.031097929 4.1673496e-05)
(-0.10301046 0.0270741 3.3670827e-05)
(-0.1083867 0.022374437 2.26335e-05)
(-0.11279013 0.017047114 8.3564363e-06)
(-0.11610477 0.011162441 -9.2380987e-06)
(-0.11822604 0.004816493 -3.0055318e-05)
(-0.1190649 -0.0018667658 -5.3793346e-05)
(-0.11855252 -0.0087351387 -7.9922648e-05)
(-0.11664546 -0.015609416 -0.00010767227)
(-0.11333112 -0.022287318 -0.00013605042)
(-0.108633 -0.028549373 -0.00016387918)
(-0.10261565 -0.034167303 -0.00018985743)
(-0.09538852 -0.038914828 -0.00021264708)
(-0.087108259 -0.042580618 -0.00023097624)
(-0.077978493 -0.04498286 -0.00024374986)
(-0.068246509 -0.045984571 -0.0002501553)
(-0.058196225 -0.045508484 -0.00024974892)
(-0.048137201 -0.04355005 -0.00024250956)
(-0.038389934 -0.040187136 -0.0002288495)
(-0.029268259 -0.035585127 -0.0002095776)
(-0.021060599 -0.029996742 -0.000185809)
(-0.014011917 -0.02375666 -0.00015885465)
(-0.0083044511 -0.01727172 -0.00013023932)
(-0.0040397719 -0.011006349 -0.00010157184)
(-0.0012805225 -0.0054649377 -7.2460128e-05)
(-0.00014290446 -0.0011948965 -3.7893403e-05)
(-0.00038335766 0.0049344523 -9.8429568e-05)
(-0.0024595041 0.014268749 -5.704234e-05)
(-0.0067255089 0.022679311 -2.4495989e-05)
(-0.012508202 0.029964763 -1.0124089e-06)
(-0.019431336 0.036044756 1.7901973e-05)
(-0.027241256 0.040909437 3.2941793e-05)
(-0.035705339 0.044593849 4.4831048e-05)
(-0.044616887 0.04715651 5.4340473e-05)
(-0.053794523 0.04866221 6.2006357e-05)
(-0.06307485 0.049170461 6.8135552e-05)
(-0.072306517 0.048729212 7.2837938e-05)
(-0.081345811 0.047373054 7.6047619e-05)
(-0.090053299 0.045125035 7.755059e-05)
(-0.098291547 0.042001122 7.7020054e-05)
(-0.10592392 0.038016342 7.405793e-05)
(-0.11281439 0.033191741 6.8238837e-05)
(-0.11882834 0.027561416 5.9161403e-05)
(-0.12383419 0.021179059 4.6499362e-05)
(-0.12770589 0.014123565 3.0055401e-05)
(-0.13032622 0.0065034029 9.8155218e-06)
(-0.13159105 -0.0015405741 -1.4006239e-05)
(-0.13141379 -0.0098342656 -4.095027e-05)
(-0.12973138 -0.018170766 -7.025883e-05)
(-0.12651076 -0.026314308 -0.00010091456)
(-0.12175521 -0.03400607 -0.00013165668)
(-0.11551114 -0.040973128 -0.00016104214)
(-0.10787404 -0.046940502 -0.0001875351)
(-0.098993083 -0.051646141 -0.00020961908)
(-0.089073117 -0.05485839 -0.00022592369)
(-0.078373284 -0.056395002 -0.00023535268)
(-0.067201188 -0.056142252 -0.00023719705)
(-0.055902092 -0.054072302 -0.00023121598)
(-0.04484313 -0.050256735 -0.00021767216)
(-0.034393288 -0.044874322 -0.00019731175)
(-0.02490117 -0.038211645 -0.00017127775)
(-0.016672802 -0.03065633 -0.00014099396)
(-0.0099472165 -0.022683552 -0.00010819867)
(-0.0048731058 -0.014835676 -7.4788046e-05)
(-0.0015578406 -0.0076975101 -4.026122e-05)
(-0.00017728357 -0.0018940233 -1.8288655e-06)
(-0.00042262277 0.0062700522 -8.7158834e-05)
(-0.0026988454 0.017778699 -4.0396827e-05)
(-0.0073604271 0.027933563 -5.0369585e-06)
(-0.013658669 0.036594151 2.035267e-05)
(-0.021174729 0.043734063 4.0839698e-05)
(-0.029628813 0.049390215 5.7298606e-05)
(-0.038768268 0.053636322 7.0606027e-05)
(-0.048372348 0.056561452 8.166037e-05)
(-0.058250812 0.058253432 9.1077749e-05)
(-0.068235137 0.058788193 9.9202459e-05)
(-0.078171343 0.058224554 0.00010614644)
(-0.087914583 0.056603582 0.00011181553)
(-0.097324944 0.053951587 0.00011594106)
(-0.10626443 0.050285735 0.00011811783)
(-0.11459509 0.045621276 0.00011784821)
(-0.12217827 0.039979511 0.00011458913)
(-0.12887474 0.033395746 0.00010780734)
(-0.13454582 0.025926716 9.7035909e-05)
(-0.13905532 0.017657056 8.1935389e-05)
(-0.14227252 0.0087045131 6.235797e-05)
(-0.14407626 -0.00077624076 3.8406961e-05)
(-0.14435928 -0.010591307 1.0419391e-05)
(-0.14303478 -0.020508691 -2.0857956e-05)
(-0.14004408 -0.030259866 -5.4404542e-05)
(-0.135364 -0.039545752 -8.888382e-05)
(-0.12901583 -0.048045822 -0.0001227014)
(-0.12107377 -0.055431008 -0.00015409564)
(-0.1116723 -0.06138057 -0.00018125768)
(-0.10101123 -0.065602608 -0.0002024753)
(-0.089357035 -0.067857279 -0.00021628794)
(-0.077039014 -0.067981078 -0.0002216341)
(-0.064439387 -0.065909824 -0.00021796997)
(-0.051976713 -0.061697541 -0.00020534056)
(-0.040083304 -0.055528343 -0.00018438656)
(-0.029178765 -0.047719038 -0.00015626788)
(-0.019642415 -0.038711541 -0.00012254372)
(-0.011782072 -0.029055614 -8.522143e-05)
(-0.0058035744 -0.019382014 -4.6562774e-05)
(-0.0018669963 -0.010369622 -5.9946977e-06)
(-0.00021543097 -0.0027380352 3.6869194e-05)
(-0.00045770318 0.0077240648 -6.6502763e-05)
(-0.0029129506 0.021588135 -1.4144933e-05)
(-0.0079292844 0.033620729 2.3765047e-05)
(-0.014691398 0.043750768 5.0945231e-05)
(-0.022742995 0.052014216 7.2994913e-05)
(-0.03178132 0.058502585 9.0962032e-05)
(-0.041536161 0.063335062 0.00010586731)
(-0.051774686 0.066636838 0.00011872462)
(-0.062299459 0.068523088 0.00013021873)
(-0.072938439 0.069089287 0.00014072119)
(-0.083536703 0.068407186 0.00015033696)
(-0.093950088 0.066525462 0.00015893544)
(-0.10404013 0.063474007 0.00016618499)
(-0.11367026 0.059270772 0.0001715927)
(-0.1227032 0.053930121 0.00017454985)
(-0.13099944 0.047471818 0.00017438128)
(-0.1384167 0.039929941 0.0001704035)
(-0.14481028 0.031361223 0.00016198573)
(-0.15003445 0.021852476 0.0001486178)
(-0.15394473 0.011526852 0.00012997634)
(-0.15640123 0.00054881395 0.00010598648)
(-0.15727432 -0.010872295 7.694908e-05)
(-0.15645048 -0.02248204 4.3438697e-05)
(-0.15384 -0.03398118 6.4761014e-06)
(-0.14938719 -0.045030654 -3.2538601e-05)
(-0.14308089 -0.055260203 -7.1861399e-05)
(-0.13496567 -0.064281629 -0.00010948425)
(-0.12515266 -0.071707213 -0.00014325924)
(-0.11382828 -0.077173239 -0.00017105954)
(-0.10125937 -0.080367836 -0.00019096507)
(-0.087792528 -0.081061381 -0.00020145243)
(-0.073846041 -0.079136637 -0.00020156364)
(-0.05989331 -0.074614913 -0.00019102782)
(-0.046437792 -0.067674134 -0.00017030935)
(-0.033981741 -0.058655205 -0.00014055187)
(-0.022991911 -0.048054699 -0.00010345871)
(-0.013859578 -0.036503949 -6.1358105e-05)
(-0.0068607826 -0.024734816 -1.6959506e-05)
(-0.0022198377 -0.013537159 3.0357048e-05)
(-0.00025948577 -0.0037457587 7.8403645e-05)
(-0.00048814204 0.0092827114 -3.5523063e-05)
(-0.0030991732 0.025662626 2.2676235e-05)
(-0.0084251309 0.039692144 6.2847506e-05)
(-0.015593673 0.051377059 9.1688164e-05)
(-0.024116514 0.060822911 0.00011528179)
(-0.03367132 0.068182589 0.00013484408)
(-0.043972966 0.073626797 0.00015153159)
(-0.054778598 0.077321958 0.0001664634)
(-0.065885305 0.079414701 0.00018038417)
(-0.077119123 0.080023144 0.0001936854)
(-0.088325826 0.079234116 0.00020645903)
(-0.099363695 0.077105167 0.0002185324)
(-0.11009763 0.0736702 0.00022950467)
(-0.12039452 0.06894758 0.00023878754)
(-0.13011986 0.06294963 0.00024565104)
(-0.13913537 0.055692644 0.00024927375)
(-0.14729765 0.047206749 0.00024880247)
(-0.15445769 0.037545199 0.00024341616)
(-0.16046143 0.026792836 0.00023239999)
(-0.16515136 0.015073567 0.00021522143)
(-0.16836937 0.0025566448 0.00019160936)
(-0.16996181 -0.010538658 0.00016165074)
(-0.1697856 -0.02393945 0.00012581893)
(-0.16771669 -0.037319329 8.505843e-05)
(-0.1636612 -0.050301052 4.078842e-05)
(-0.15756803 -0.062463875 -5.1162778e-06)
(-0.14944305 -0.073356446 -5.0393562e-05)
(-0.13936369 -0.082516131 -9.2516598e-05)
(-0.12749232 -0.089495225 -0.00012886889)
(-0.11408617 -0.093893601 -0.00015696252)
(-0.099501334 -0.095396118 -0.0001746786)
(-0.084188146 -0.093811587 -0.00018050035)
(-0.068675775 -0.08910861 -0.00017370407)
(-0.053545421 -0.081442634 -0.00015446872)
(-0.039393966 -0.071168715 -0.00012385667)
(-0.026791647 -0.05883632 -8.3703098e-05)
(-0.01623101 -0.04516529 -3.6702301e-05)
(-0.0080751433 -0.031003189 1.3900744e-05)
(-0.0026285456 -0.017270912 6.8754232e-05)
(-0.00031161668 -0.0049423716 0.00012293293)
(-0.00051340831 0.010930727 6.5939395e-06)
(-0.0032546644 0.029964215 7.0896599e-05)
(-0.0088407677 0.046094068 0.00011301881)
(-0.016352577 0.059409119 0.00014338105)
(-0.025275492 0.07009039 0.00016849701)
(-0.035271017 0.078357826 0.00018974348)
(-0.046041748 0.084438876 0.00020840491)
(-0.057336849 0.088545799 0.00022569732)
(-0.068949574 0.090860529 0.00024241902)
(-0.080705544 0.091526881 0.00025897742)
(-0.092452771 0.09064899 0.00027544859)
(-0.10405367 0.088294684 0.00029161528)
(-0.11537839 0.084502469 0.00030700438)
(-0.12629936 0.079290898 0.00032092736)
(-0.13668709 0.072669185 0.00033252513)
(-0.14640695 0.064648217 0.00034081741)
(-0.15531687 0.05525135 0.00034476171)
(-0.16326594 0.044524653 0.00034331877)
(-0.17009403 0.032546434 0.00033553127)
(-0.17563249 0.019435991 0.00032060897)
(-0.17970628 0.005361459 0.00029802266)
(-0.18213812 -0.0094535018 0.00026760457)
(-0.18275453 -0.024724171 0.00022963204)
(-0.18139458 -0.040102158 0.00018491047)
(-0.17792156 -0.055175719 0.00013481994)
(-0.17223749 -0.069474917 8.1324931e-05)
(-0.16430012 -0.082483065 2.6928751e-05)
(-0.15414156 -0.093655967 -2.5437514e-05)
(-0.14188694 -0.10245004 -7.2597448e-05)
(-0.12777046 -0.10835954 -0.00011137857)
(-0.11214577 -0.11096156 -0.00013890956)
(-0.095486778 -0.10996553 -0.00015293242)
(-0.078375578 -0.10526151 -0.00015208597)
(-0.061475242 -0.096959876 -0.00013610389)
(-0.045488724 -0.085414274 -0.00010585694)
(-0.031107407 -0.071221493 -6.3267985e-05)
(-0.01894635 -0.055195555 -1.1429927e-05)
(-0.0094770573 -0.038315615 4.5783064e-05)
(-0.0031054691 -0.021656741 0.00010903063)
(-0.00037404182 -0.0063595008 0.00017049832)
(-0.00053296802 0.012651309 6.0514933e-05)
(-0.0033766745 0.034451434 0.00013119213)
(-0.0091693799 0.052767807 0.00017493738)
(-0.016955947 0.067776843 0.00020667589)
(-0.026201214 0.079739483 0.00023329031)
(-0.036553811 0.088947213 0.00025631019)
(-0.04770654 0.095688605 0.00027714082)
(-0.059402447 0.10022582 0.00029708836)
(-0.071432428 0.1027797 0.00031700136)
(-0.083623032 0.10352276 0.00033730245)
(-0.095825907 0.10257875 0.00035805253)
(-0.10790917 0.10002739 0.00037899107)
(-0.11975004 0.095912605 0.00039957357)
(-0.13122861 0.090253157 0.00041901061)
(-0.14222283 0.083054307 0.00043630951)
(-0.15260441 0.074319788 0.00045032117)
(-0.16223559 0.064063486 0.0004597961)
(-0.17096678 0.052320596 0.0004634495)
(-0.17863504 0.039158205 0.00046004264)
(-0.1850638 0.024685353 0.00044847554)
(-0.19006393 0.0090625611 0.00042789439)
(-0.19343679 -0.007489307 0.00039780857)
(-0.19497966 -0.024681151 0.00035820539)
(-0.194494 -0.042149821 0.00030966264)
(-0.19179745 -0.059455243 0.00025343623)
(-0.18673934 -0.076082341 0.00019150971)
(-0.17922026 -0.09144975 0.00012658537)
(-0.16921458 -0.10492752 6.1998543e-05)
(-0.15679486 -0.11586584 1.5398892e-06)
(-0.14215522 -0.12363593 -5.0817827e-05)
(-0.12562999 -0.12768274 -9.127559e-05)
(-0.10770268 -0.12758629 -0.00011661324)
(-0.089000035 -0.12312552 -0.00012459163)
(-0.070266986 -0.11433513 -0.00011427429)
(-0.052322108 -0.10154388 -8.6167447e-05)
(-0.035996467 -0.085384183 -4.2189458e-05)
(-0.022052342 -0.066766828 1.4158864e-05)
(-0.01109622 -0.046818779 7.8277587e-05)
(-0.0036630357 -0.026795375 0.00015081947)
(-0.00044906232 -0.0080352856 0.00022094775)
(-0.00054635926 0.014426239 0.00012673633)
(-0.0034629057 0.039079679 0.0002040644)
(-0.0094053272 0.059650244 0.00024909131)
(-0.017393639 0.076404477 0.00028205465)
(-0.026877759 0.089686019 0.00031013759)
(-0.037496454 0.099861119 0.00033501271)
(-0.048934924 0.10728297 0.00035820005)
(-0.060931694 0.11226717 0.00038109089)
(-0.07327653 0.11507683 0.00040458347)
(-0.085798029 0.11591611 0.00042911846)
(-0.098352688 0.11493089 0.0004547465)
(-0.11081576 0.11221457 0.00048116967)
(-0.12307324 0.10781764 0.00050777786)
(-0.13501501 0.10175944 0.00053368463)
(-0.146529 0.094040806 0.00055776392)
(-0.15749623 0.084656941 0.00057869204)
(-0.16778674 0.073609916 0.00059499842)
(-0.1772561 0.060920652 0.00060512841)
(-0.18574294 0.0466405 0.00060752472)
(-0.19306731 0.030862556 0.00060072534)
(-0.19903056 0.013732874 0.00058348271)
(-0.20341702 -0.0045384775 0.00055489892)
(-0.20599807 -0.02366678 0.00051457066)
(-0.20653949 -0.043283356 0.0004627376)
(-0.2048127 -0.062928717 0.00040041777)
(-0.20061071 -0.082050106 0.00032950876)
(-0.19376919 -0.10000595 0.00025283115)
(-0.18419254 -0.11608019 0.00017408646)
(-0.17188398 -0.12950954 9.7702944e-05)
(-0.15697716 -0.13952639 2.8553273e-05)
(-0.13976506 -0.14541823 -2.8454219e-05)
(-0.12072011 -0.14660166 -6.8882588e-05)
(-0.1004983 -0.14270467 -8.9313964e-05)
(-0.079920146 -0.13364584 -8.7837973e-05)
(-0.059925486 -0.11969492 -6.4339728e-05)
(-0.041503122 -0.10149904 -2.05706e-05)
(-0.025590331 -0.080062629 3.9591787e-05)
(-0.012960885 -0.056675453 0.00011073027)
(-0.0043136694 -0.032801842 0.00019346964)
(-0.00053910156 -0.010014427 0.00027385056)
(-0.00055326929 0.016236213 0.00020556142)
(-0.0035119014 0.043802003 0.00028982232)
(-0.0095450607 0.066674876 0.00033578144)
(-0.017659026 0.08521169 0.00036980992)
(-0.027294082 0.099839757 0.00039931716)
(-0.03808169 0.11100199 0.00042610821)
(-0.049701232 0.11911885 0.00045181221)
(-0.061887956 0.12456242 0.00047790304)
(-0.074431431 0.1276412 0.00050533165)
(-0.087163189 0.12859404 0.00053456374)
(-0.099945579 0.12759151 0.00056564928)
(-0.11266225 0.12474284 0.00059826397)
(-0.12520961 0.12010662 0.00063174303)
(-0.13748938 0.11370353 0.00066511211)
(-0.14940202 0.10553004 0.00069711726)
(-0.16084107 0.095571998 0.00072625993)
(-0.17168813 0.083817887 0.00075084019)
(-0.18180853 0.07027152 0.00076901468)
(-0.19104758 0.054964483 0.00077887514)
(-0.19922785 0.037968575 0.0007785488)
(-0.20614739 0.019408561 0.00076632635)
(-0.21157981 -0.00052465801 0.00074081413)
(-0.21527659 -0.021560592 0.00070110858)
(-0.21697252 -0.043336126 0.00064698335)
(-0.21639545 -0.065384086 0.00057907812)
(-0.21328137 -0.087125329 0.00049906272)
(-0.20739583 -0.10786728 0.00040974941)
(-0.19856251 -0.12681262 0.00031511682)
(-0.18669839 -0.14308238 0.00022020495)
(-0.17185386 -0.15575806 0.00013084888)
(-0.15425352 -0.16394558 5.3234126e-05)
(-0.13433074 -0.16686148 -6.7113444e-06)
(-0.11274646 -0.1639358 -4.4032894e-05)
(-0.09038176 -0.15491928 -5.5452759e-05)
(-0.068296751 -0.13997487 -3.9872129e-05)
(-0.047653353 -0.11973033 1.3862625e-06)
(-0.029593636 -0.095271177 6.4165543e-05)
(-0.015096952 -0.068061258 0.00014216059)
(-0.0050696706 -0.039804481 0.00023594682)
(-0.00064674269 -0.012348215 0.00032839708)
(-0.0005536151 0.018061388 0.00029708269)
(-0.0035234715 0.048570392 0.00038856956)
(-0.0095881436 0.073773459 0.00043511135)
(-0.017750694 0.094115285 0.00047003388)
(-0.027446378 0.11010594 0.0005008945)
(-0.038301272 0.12226562 0.00052961969)
(-0.049990197 0.13108388 0.00055794365)
(-0.062245966 0.13699195 0.00058742385)
(-0.074858596 0.14034675 0.0006190715)
(-0.087663211 0.14142483 0.00065338934)
(-0.10052885 0.14042432 0.00069044153)
(-0.11334867 0.13747272 0.00072989364)
(-0.12603101 0.13263861 0.00077104224)
(-0.13849137 0.12594538 0.00081283962)
(-0.15064533 0.11738575 0.00085391516)
(-0.16240215 0.10693609 0.00089260173)