/*--------------------------------*- C++ -*----------------------------------*\
  =========                 |
  \\      /  F ield         | OpenFOAM: The Open Source CFD Toolbox
   \\    /   O peration     | Website:  https://openfoam.org
    \\  /    A nd           | Version:  7
     \\/     M anipulation  |
\*---------------------------------------------------------------------------*/
FoamFile
{
    version     2.0;
    format      ascii;
    class       volScalarField;
    location    "1.12";
    object      T;
}
// * * * * * * * * * * * * * * * * * * * * * * * * * * * * * * * * * * * * * //

dimensions      [0 0 0 1 0 0 0];

internalField   nonuniform List<scalar> 
1000
(
2.72933e-193
3.7117e-193
7.42922e-193
1.88962e-192
5.26565e-192
1.50832e-191
4.35325e-191
1.25878e-190
3.64101e-190
1.05305e-189
3.04493e-189
8.80224e-189
2.54386e-188
7.34982e-188
2.12296e-187
6.13038e-187
1.76976e-186
5.10767e-186
1.47371e-185
4.25088e-185
1.22582e-184
3.53388e-184
1.01849e-183
2.93453e-183
8.45277e-183
2.43409e-182
7.00729e-182
2.0167e-181
5.80239e-181
1.66897e-180
4.79917e-180
1.37961e-179
3.96481e-179
1.1391e-178
3.27171e-178
9.39419e-178
2.6966e-177
7.73831e-177
2.21997e-176
6.36676e-176
1.82541e-175
5.23206e-175
1.49918e-174
4.29443e-174
1.22977e-173
3.52056e-173
1.00755e-172
2.88263e-172
8.24475e-172
2.35739e-171
6.73833e-171
1.92548e-170
5.50032e-170
1.57073e-169
4.48415e-169
1.27974e-168
3.65111e-168
1.04134e-167
2.96906e-167
8.46266e-167
2.41133e-166
6.86855e-166
1.95584e-165
5.56751e-165
1.58433e-164
4.50703e-164
1.28171e-163
3.64375e-163
1.03553e-162
2.94193e-162
8.35522e-162
2.37212e-161
6.73241e-161
1.91011e-160
5.41748e-160
1.53599e-159
4.35344e-159
1.23347e-158
3.4936e-158
9.89164e-158
2.79971e-157
7.92149e-157
2.24052e-156
6.33487e-156
1.7905e-155
5.05891e-155
1.42884e-154
4.03421e-154
1.13861e-153
3.21247e-153
9.06033e-153
2.55442e-152
7.19916e-152
2.02821e-151
5.71196e-151
1.60804e-150
4.52531e-150
1.27303e-149
3.57987e-149
1.00631e-148
2.82771e-148
7.94281e-148
2.23022e-147
6.25975e-147
1.75631e-146
4.92579e-146
1.38097e-145
3.87013e-145
1.08417e-144
3.03599e-144
8.49833e-144
2.37791e-143
6.65097e-143
1.85953e-142
5.19694e-142
1.45184e-141
4.05429e-141
1.13171e-140
3.15777e-140
8.80743e-140
2.4555e-139
6.84309e-139
1.90627e-138
5.30809e-138
1.47745e-137
4.11058e-137
1.14317e-136
3.17788e-136
8.83039e-136
2.45266e-135
6.80941e-135
1.88971e-134
5.24196e-134
1.45346e-133
4.02834e-133
1.11598e-132
3.0903e-132
8.55363e-132
2.36651e-131
6.54446e-131
1.80903e-130
4.99829e-130
1.38039e-129
3.81054e-129
1.05141e-128
2.89975e-128
7.99374e-128
2.20261e-127
6.06633e-127
1.66998e-126
4.59509e-126
1.26378e-125
3.47412e-125
9.54581e-125
2.62164e-124
7.19658e-124
1.97456e-123
5.41508e-123
1.48432e-122
4.06668e-122
1.11362e-121
3.04806e-121
8.33861e-121
2.28007e-120
6.2314e-120
1.70218e-119
4.64735e-119
1.26819e-118
3.45895e-118
9.42934e-118
2.56918e-117
6.99655e-117
1.90435e-116
5.18065e-116
1.40862e-115
3.82802e-115
1.03974e-114
2.82256e-114
7.65826e-114
2.07675e-113
5.62862e-113
1.5247e-112
4.12791e-112
1.11696e-111
3.02068e-111
8.16455e-111
2.20555e-110
5.9547e-110
1.60678e-109
4.33321e-109
1.16792e-108
3.14609e-108
8.4699e-108
2.27895e-107
6.12828e-107
1.64698e-106
4.4237e-106
1.18748e-105
3.18572e-105
8.54143e-105
2.28873e-104
6.12908e-104
1.64034e-103
4.3874e-103
1.17278e-102
3.13297e-102
8.36427e-102
2.23167e-101
5.95058e-101
1.58568e-100
4.22277e-100
1.12384e-99
2.98904e-99
7.94475e-99
2.11032e-98
5.60187e-98
1.48605e-97
3.93958e-97
1.04371e-96
2.76324e-96
7.31085e-96
1.93297e-95
5.10726e-95
1.34852e-94
3.55817e-94
9.38208e-94
2.47212e-93
6.50938e-93
1.71279e-92
4.50364e-92
1.18335e-91
3.10711e-91
8.15244e-91
2.1375e-90
5.60026e-90
1.4662e-89
3.83585e-89
1.00278e-88
2.61958e-88
6.83803e-88
1.78363e-87
4.64889e-87
1.21077e-86
3.15098e-86
8.19393e-86
2.12914e-85
5.5281e-85
1.43419e-84
3.71788e-84
9.6303e-84
2.49251e-83
6.4459e-83
1.66563e-82
4.30053e-82
1.10945e-81
2.85981e-81
7.36554e-81
1.89544e-80
4.8736e-80
1.25205e-79
3.21384e-79
8.24243e-79
2.11208e-78
5.40741e-78
1.38321e-77
3.53513e-77
9.02689e-77
2.30295e-76
5.87002e-76
1.49487e-75
3.80339e-75
9.66812e-75
2.45535e-74
6.22989e-74
1.57922e-73
3.99941e-73
1.0119e-72
2.5578e-72
6.45918e-72
1.62955e-71
4.10712e-71
1.03414e-70
2.60132e-70
6.53697e-70
1.64106e-69
4.11561e-69
1.03111e-68
2.58064e-68
6.45217e-68
1.61151e-67
4.02074e-67
1.00213e-66
2.49505e-66
6.20543e-66
1.54169e-65
3.82606e-65
9.48491e-65
2.34875e-64
5.80978e-64
1.43548e-63
3.5428e-63
8.73383e-63
2.15064e-62
5.28969e-62
1.29954e-61
3.18891e-61
7.81598e-61
1.91342e-60
4.67862e-60
1.14262e-59
2.78716e-59
6.79029e-59
1.65227e-58
4.01543e-58
9.74633e-58
2.36266e-57
5.72018e-57
1.38312e-56
3.34003e-56
8.05517e-56
1.94012e-55
4.66666e-55
1.121e-54
2.68917e-54
6.44233e-54
1.54125e-53
3.68217e-53
8.78478e-53
2.0929e-52
4.97911e-52
1.18286e-51
2.80603e-51
6.64693e-51
1.57222e-50
3.71334e-50
8.7573e-50
2.06216e-49
4.84861e-49
1.13828e-48
2.66815e-48
6.24448e-48
1.45915e-47
3.40423e-47
7.92944e-47
1.84403e-46
4.28139e-46
9.92409e-46
2.29656e-45
5.30566e-45
1.22368e-44
2.81747e-44
6.47595e-44
1.48592e-43
3.40353e-43
7.78207e-43
1.77618e-42
4.04668e-42
9.20284e-42
2.08905e-41
4.73339e-41
1.07049e-40
2.41645e-40
5.44432e-40
1.22426e-39
2.74766e-39
6.15459e-39
1.37587e-38
3.06962e-38
6.83467e-38
1.51867e-37
3.36757e-37
7.45189e-37
1.64552e-36
3.62593e-36
7.97268e-36
1.74924e-35
3.82952e-35
8.36526e-35
1.82325e-34
3.9649e-34
8.6026e-34
1.8622e-33
4.02175e-33
8.66526e-33
1.86259e-32
3.99402e-32
8.54377e-32
1.82316e-31
3.88083e-31
8.24018e-31
1.74522e-30
3.68683e-30
7.76844e-30
1.6326e-29
3.42199e-29
7.1535e-29
1.49137e-28
3.10077e-28
6.42916e-28
1.32932e-27
2.74081e-27
5.63498e-27
1.15519e-26
2.3613e-26
4.81249e-26
9.77901e-26
1.98113e-25
4.00137e-25
8.0569e-25
1.61724e-24
3.23606e-24
6.45471e-24
1.28333e-23
2.54325e-23
5.02355e-23
9.88982e-23
1.94046e-22
3.79442e-22
7.39423e-22
1.43592e-21
2.7787e-21
5.35809e-21
1.02948e-20
1.97083e-20
3.7591e-20
7.14345e-20
1.35239e-19
2.55063e-19
4.79212e-19
8.9686e-19
1.67194e-18
3.10453e-18
5.74161e-18
1.05759e-17
1.94009e-17
3.54435e-17
6.44821e-17
1.16818e-16
2.10734e-16
3.78522e-16
6.76959e-16
1.20539e-15
2.13684e-15
3.77116e-15
6.62549e-15
1.15873e-14
2.01722e-14
3.49549e-14
6.02882e-14
1.03492e-13
1.76813e-13
3.00634e-13
5.08699e-13
8.56574e-13
1.43528e-12
2.39307e-12
3.97017e-12
6.55361e-12
1.07635e-11
1.75881e-11
2.85928e-11
4.6244e-11
7.44048e-11
1.19092e-10
1.8962e-10
3.0033e-10
4.73164e-10
7.41506e-10
1.15584e-09
1.79205e-09
2.76353e-09
4.23871e-09
6.4662e-09
9.81083e-09
1.48046e-08
2.22187e-08
3.31639e-08
4.92308e-08
7.2682e-08
1.06718e-07
1.55834e-07
2.26311e-07
3.26865e-07
4.69515e-07
6.70737e-07
9.52972e-07
1.34659e-06
1.89246e-06
2.64518e-06
3.6773e-06
5.08458e-06
6.99262e-06
9.56518e-06
1.30144e-05
1.76133e-05
2.37114e-05
3.17527e-05
4.22986e-05
5.60537e-05
7.38973e-05
9.692e-05
0.000126466
0.00016418
0.000212067
0.00027255
0.000348542
0.000443525
0.000561631
0.000707738
0.000887565
0.00110778
0.00137609
0.0017014
0.00209386
0.00256501
0.00312789
0.00379714
0.00458906
0.00552172
0.00661499
0.00789058
0.00937206
0.0110848
0.0130561
0.0153147
0.0178911
0.0208172
0.024126
0.0278515
0.0320283
0.0366914
0.0418757
0.0476159
0.0539454
0.0608967
0.0685002
0.0767844
0.0857748
0.0954939
0.10596
0.117189
0.12919
0.141969
0.155527
0.169858
0.184952
0.200794
0.217361
0.234628
0.25256
0.271122
0.290269
0.309955
0.330127
0.350731
0.371708
0.392996
0.414531
0.436249
0.458083
0.479966
0.501833
0.523617
0.545255
0.566685
0.587848
0.608685
0.629145
0.649178
0.668737
0.687782
0.706275
0.724185
0.741482
0.758145
0.774154
0.789495
0.804159
0.81814
0.831436
0.844049
0.855986
0.867254
0.877866
0.887836
0.897181
0.905919
0.914071
0.921658
0.928705
0.935233
0.941269
0.946836
0.951959
0.956663
0.960973
0.964913
0.968505
0.971773
0.974737
0.97742
0.979839
0.982014
0.983961
0.985695
0.987232
0.988582
0.989757
0.990765
0.991614
0.99231
0.992854
0.99325
0.993495
0.993587
0.99352
0.993288
0.99288
0.992284
0.991486
0.990468
0.989211
0.987694
0.985893
0.983783
0.981335
0.978519
0.975307
0.971664
0.967558
0.962956
0.957825
0.95213
0.945839
0.93892
0.931345
0.923085
0.914115
0.904413
0.893962
0.882745
0.870755
0.857985
0.844435
0.83011
0.815021
0.799184
0.78262
0.765357
0.747427
0.728867
0.709722
0.690038
0.669867
0.649264
0.628288
0.607001
0.585466
0.563749
0.541916
0.520032
0.498166
0.476382
0.454744
0.433314
0.412152
0.391314
0.370854
0.350822
0.331263
0.312218
0.293725
0.275815
0.258518
0.241855
0.225846
0.210504
0.195841
0.18186
0.168564
0.15595
0.144014
0.132746
0.122134
0.112163
0.102818
0.0940799
0.0859274
0.078339
0.0712918
0.0647617
0.0587243
0.0531548
0.048028
0.0433191
0.039003
0.0350556
0.0314528
0.0281714
0.0251888
0.0224835
0.0200345
0.017822
0.0158272
0.0140321
0.0124199
0.0109747
0.00968178
0.0085272
0.00749812
0.00658259
0.00576958
0.00504893
0.0044113
0.00384814
0.00335163
0.00291465
0.00253073
0.00219402
0.00189922
0.00164154
0.0014167
0.00122083
0.00105048
0.000902573
0.000774359
0.000663395
0.000567513
0.000484795
0.000413544
0.000352268
0.000299651
0.000254539
0.000215919
0.000182907
0.000154732
0.000130719
0.000110285
9.29206e-05
7.81866e-05
6.57022e-05
5.51391e-05
4.62142e-05
3.8684e-05
3.23393e-05
2.70008e-05
2.25151e-05
1.87511e-05
1.55969e-05
1.29573e-05
1.07511e-05
8.90971e-06
7.37475e-06
6.09689e-06
5.03442e-06
4.15217e-06
3.42049e-06
2.81445e-06
2.31309e-06
1.89885e-06
1.557e-06
1.27524e-06
1.04329e-06
8.52567e-07
6.95932e-07
5.67444e-07
4.62169e-07
3.76013e-07
3.05585e-07
2.4808e-07
2.01181e-07
1.62974e-07
1.31883e-07
1.06611e-07
8.60922e-08
6.94501e-08
5.59673e-08
4.50558e-08
3.62347e-08
2.91111e-08
2.33645e-08
1.87336e-08
1.50056e-08
1.20077e-08
9.59931e-09
7.6665e-09
6.11695e-09
4.8759e-09
3.88294e-09
3.08925e-09
2.45549e-09
1.94991e-09
1.54699e-09
1.22619e-09
9.71026e-10
7.68256e-10
6.07277e-10
4.79597e-10
3.78422e-10
2.98324e-10
2.34972e-10
1.84911e-10
1.45388e-10
1.14213e-10
8.96457e-11
7.03023e-11
5.50856e-11
4.3126e-11
3.37344e-11
2.63659e-11
2.05898e-11
1.60657e-11
1.25254e-11
9.75722e-12
7.59465e-12
5.90661e-12
4.59008e-12
3.56413e-12
2.7653e-12
2.14382e-12
1.66071e-12
1.28546e-12
9.9423e-13
7.68387e-13
5.93389e-13
4.57897e-13
3.53075e-13
2.72043e-13
2.09451e-13
1.6114e-13
1.23881e-13
9.51663e-14
7.3054e-14
5.60387e-14
4.29553e-14
3.29028e-14
2.51848e-14
1.92634e-14
1.47238e-14
1.12461e-14
8.58376e-15
6.54713e-15
4.99026e-15
3.80099e-15
2.89315e-15
2.20064e-15
1.67276e-15
1.27065e-15
9.64548e-16
7.31701e-16
5.54695e-16
4.20232e-16
3.18154e-16
2.40715e-16
1.82006e-16
1.37527e-16
1.03851e-16
7.8371e-17
5.9105e-17
4.4547e-17
3.35535e-17
2.52573e-17
1.90005e-17
1.42847e-17
1.07328e-17
8.05911e-18
6.04778e-18
4.53567e-18
3.39957e-18
2.54652e-18
1.90638e-18
1.42631e-18
1.0665e-18
7.96985e-19
5.95233e-19
4.44294e-19
3.31437e-19
2.47105e-19
1.84125e-19
1.37119e-19
1.02055e-19
7.59143e-20
5.64377e-20
4.19346e-20
3.1141e-20
2.31128e-20
1.71448e-20
1.27108e-20
9.41841e-21
6.97501e-21
5.16271e-21
3.81923e-21
2.82385e-21
2.08678e-21
1.54127e-21
1.13777e-21
8.39457e-22
6.19036e-22
4.56255e-22
3.36105e-22
2.47467e-22
1.82111e-22
1.33947e-22
9.84714e-23
7.23546e-23
5.31378e-23
3.90053e-23
2.86171e-23
2.09852e-23
1.5381e-23
1.12679e-23
8.25064e-24
6.03838e-24
4.41716e-24
3.22965e-24
2.36025e-24
1.72406e-24
1.25875e-24
9.18591e-25
6.70037e-25
4.88506e-25
3.55991e-25
2.59301e-25
1.88786e-25
1.37383e-25
9.993e-26
7.26542e-26
5.27992e-26
3.83527e-26
2.78464e-26
2.02091e-26
1.46599e-26
1.06296e-26
7.70398e-27
5.58109e-27
4.0414e-27
2.92519e-27
2.11635e-27
1.53049e-27
1.10634e-27
7.99386e-28
5.7735e-28
4.16808e-28
3.0078e-28
2.16958e-28
1.56431e-28
1.12742e-28
8.12204e-29
5.84878e-29
4.21003e-29
3.02918e-29
2.17865e-29
1.56629e-29
1.12559e-29
8.08554e-30
5.80583e-30
4.1672e-30
2.98985e-30
2.14428e-30
1.53724e-30
1.10161e-30
7.89123e-31
5.65054e-31
4.04451e-31
2.89382e-31
2.06971e-31
1.47972e-31
1.0575e-31
7.5547e-32
5.39495e-32
3.85116e-32
2.7481e-32
1.96024e-32
1.39772e-32
9.96258e-33
7.0984e-33
5.05578e-33
3.5996e-33
2.56189e-33
1.82267e-33
1.29627e-33
9.21567e-34
6.54937e-34
4.65281e-34
3.30427e-34
2.34573e-34
1.66467e-34
1.18092e-34
8.37456e-35
5.93676e-35
4.20711e-35
2.98034e-35
2.11056e-35
1.49412e-35
1.0574e-35
7.48216e-36
5.29701e-36
3.76248e-36
2.71391e-36
2.08685e-36
)
;

boundaryField
{
    sides
    {
        type            zeroGradient;
    }
    empty
    {
        type            empty;
    }
}


// ************************************************************************* //
