/*--------------------------------*- C++ -*----------------------------------*\
  =========                 |
  \\      /  F ield         | OpenFOAM: The Open Source CFD Toolbox
   \\    /   O peration     | Website:  https://openfoam.org
    \\  /    A nd           | Version:  7
     \\/     M anipulation  |
\*---------------------------------------------------------------------------*/
FoamFile
{
    version     2.0;
    format      ascii;
    class       volVectorField;
    location    "0.1";
    object      U;
}
// * * * * * * * * * * * * * * * * * * * * * * * * * * * * * * * * * * * * * //

dimensions      [0 1 -1 0 0 0 0];

internalField   nonuniform List<vector> 
19968
(
(3 -4.60011e-17 0)
(3 -2.23674e-17 0)
(3 -1.10698e-16 0)
(3 2.92967e-17 0)
(3 -3.97445e-16 0)
(3 -3.19597e-16 0)
(3 -3.53256e-17 0)
(3 1.37631e-16 0)
(3 -7.56883e-18 0)
(3 -1.77257e-16 0)
(3 -4.45559e-16 0)
(3 -5.14537e-16 0)
(3 -7.3128e-16 0)
(3 -9.14313e-16 0)
(3 -9.47988e-16 0)
(3 -5.22058e-16 0)
(3 1.44636e-16 0)
(3 1.28488e-16 0)
(3 1.8261e-16 0)
(3 1.87986e-16 0)
(3 -2.52748e-16 0)
(3 -4.13098e-16 0)
(3 -5.52334e-16 0)
(3 -9.93312e-17 0)
(3 3.25287e-16 0)
(3 9.31543e-17 0)
(3 1.51818e-16 0)
(3 2.13383e-16 0)
(3 1.68039e-16 0)
(3 1.00675e-15 0)
(3 1.0317e-15 0)
(3 5.50172e-16 0)
(3 -1.87118e-16 0)
(3 -4.27925e-16 0)
(3 -5.05925e-16 0)
(3 -7.09423e-16 0)
(3 -9.5144e-16 0)
(3 -5.4582e-16 0)
(3 2.08994e-16 0)
(3 6.27354e-16 0)
(3 3.50876e-16 0)
(3 4.50317e-16 0)
(3 3.81423e-16 0)
(3 4.44234e-16 0)
(3 -1.87063e-16 0)
(3 -5.49879e-16 0)
(3 -5.58689e-16 0)
(3 -3.78534e-16 0)
(3 -3.27235e-16 0)
(3 -2.15323e-16 0)
(3 1.65974e-16 0)
(3 2.1315e-16 0)
(3 2.06606e-16 0)
(3 4.82328e-16 0)
(3 1.88643e-16 0)
(3 -1.99795e-16 0)
(3 -4.87568e-16 0)
(3 -9.35542e-16 0)
(3 -1.18408e-15 0)
(3 -9.86059e-16 0)
(3 -7.06432e-16 0)
(3 -4.87443e-16 0)
(3 -2.222e-16 0)
(3 7.65403e-17 0)
(3 -3.53106e-16 0)
(3 -6.5813e-16 0)
(3 -6.1536e-16 0)
(3 -4.35333e-16 0)
(3 -2.9671e-16 0)
(3 -4.07828e-16 0)
(3 -3.47927e-17 0)
(3 1.58477e-16 0)
(3 9.0983e-16 0)
(3 1.11678e-15 0)
(3 4.34877e-16 0)
(3 3.05026e-16 0)
(3 -3.36223e-16 0)
(3 -6.20777e-16 0)
(3 -1.82269e-15 0)
(3 -2.62866e-15 0)
(3 -2.38388e-15 0)
(2.38344 -1.58757e-05 0)
(0.302581 -2.40397e-05 0)
(0.0383179 3.7444e-06 0)
(0.00403231 4.45792e-05 0)
(0.000333735 9.42474e-05 0)
(0.000521639 0.000255761 0)
(0.00181534 0.000460079 0)
(0.00161414 0.000784485 0)
(-4.97918e-05 0.00118937 0)
(-0.0030842 0.00151227 0)
(-0.00309688 0.00174944 0)
(-0.00254276 0.00204501 0)
(-0.00180547 0.00219179 0)
(-0.00167881 0.00223001 0)
(-0.000766702 0.00226104 0)
(3 -2.46115e-16 0)
(3 -1.83693e-16 0)
(3 -1.89709e-17 0)
(3 -1.44149e-16 0)
(3 -2.79527e-16 0)
(3 -2.31955e-16 0)
(3 -5.05108e-16 0)
(3 -8.98073e-16 0)
(3 -5.39736e-16 0)
(3 -5.47138e-16 0)
(3 -1.12094e-15 0)
(3 -9.26759e-16 0)
(3 -8.51156e-16 0)
(3 -6.97236e-16 0)
(3 -4.59927e-16 0)
(3 -4.01372e-16 0)
(3 -3.95903e-17 0)
(3 4.03203e-16 0)
(3 6.79161e-16 0)
(3 6.52333e-16 0)
(3 -8.1716e-16 0)
(3 -1.19075e-15 0)
(3 -1.55967e-15 0)
(3 -1.19307e-15 0)
(3 2.80382e-16 0)
(3 8.64541e-16 0)
(3 1.49025e-15 0)
(3 1.55129e-15 0)
(3 1.20307e-15 0)
(3 9.85959e-16 0)
(3 1.2143e-16 0)
(3 -5.53987e-16 0)
(3 -1.42731e-15 0)
(3 -1.42608e-15 0)
(3 -1.83862e-15 0)
(3 -2.17481e-15 0)
(3 -2.58983e-15 0)
(3 -1.82867e-15 0)
(3 -4.57727e-16 0)
(3 4.5311e-16 0)
(3 3.93672e-16 0)
(3 8.51685e-16 0)
(3 8.10181e-16 0)
(3 2.54129e-16 0)
(3 -1.02491e-16 0)
(3 -4.91272e-16 0)
(3 -4.71485e-16 0)
(3 -7.42464e-16 0)
(3 -7.561e-16 0)
(3 -5.22856e-16 0)
(3 -1.43135e-16 0)
(3 8.17512e-16 0)
(3 1.23505e-15 0)
(3 1.19761e-15 0)
(3 3.86025e-16 0)
(3 -7.18432e-17 0)
(3 -9.60337e-16 0)
(3 -1.15641e-15 0)
(3 -1.11204e-15 0)
(3 -1.2891e-15 0)
(3 -1.60511e-15 0)
(3 -1.59801e-15 0)
(3 -1.33419e-15 0)
(3 -5.78879e-16 0)
(3 -4.3653e-16 0)
(3 -8.55775e-16 0)
(3 -4.60754e-16 0)
(3 2.31696e-16 0)
(3 -4.50524e-16 0)
(3 -2.01037e-15 0)
(3 -1.88308e-15 0)
(3 -1.68193e-15 0)
(3 -2.98561e-16 0)
(3 1.28232e-15 0)
(3 4.30467e-16 0)
(3 -5.11922e-16 0)
(3 -1.55929e-15 0)
(3 -1.42358e-15 0)
(3 -1.4283e-15 0)
(3 -2.91056e-15 0)
(3 -3.25176e-15 0)
(2.38304 -7.45977e-05 0)
(0.302645 -1.22676e-05 0)
(0.038662 0.00042908 0)
(0.00476334 0.00121302 0)
(0.00145933 0.00210667 0)
(0.00156479 0.00389233 0)
(0.00381983 0.00574336 0)
(0.00361578 0.00821844 0)
(0.00188605 0.0106795 0)
(-0.00120853 0.0125148 0)
(-0.00202717 0.0141951 0)
(-0.00134545 0.0154852 0)
(-0.00104031 0.0163283 0)
(-0.00137974 0.0165975 0)
(-0.000684892 0.0166832 0)
(3 -6.70447e-17 0)
(3 -1.6662e-16 0)
(3 -1.33179e-17 0)
(3 2.68483e-16 0)
(3 8.87788e-16 0)
(3 9.11085e-16 0)
(3 -6.37343e-16 0)
(3 -1.30743e-15 0)
(3 -5.25931e-16 0)
(3 -4.59224e-16 0)
(3 -5.3729e-16 0)
(3 -5.14119e-16 0)
(3 -5.73311e-16 0)
(3 -2.24749e-16 0)
(3 3.04334e-16 0)
(3 -9.26154e-18 0)
(3 -1.26676e-16 0)
(3 7.1515e-16 0)
(3 1.78747e-15 0)
(3 1.97699e-15 0)
(3 3.83947e-16 0)
(3 -7.71445e-16 0)
(3 -8.62182e-16 0)
(3 -1.39991e-15 0)
(3 -6.84067e-16 0)
(3 9.35357e-16 0)
(3 2.10582e-15 0)
(3 1.70434e-15 0)
(3 -2.92505e-16 0)
(3 -1.38101e-15 0)
(3 -2.29942e-15 0)
(3 -2.21382e-15 0)
(3 -1.36505e-15 0)
(3 -9.16249e-16 0)
(3 -8.88245e-16 0)
(3 -6.42183e-16 0)
(3 -4.4717e-16 0)
(3 -8.11051e-16 0)
(3 -9.91881e-16 0)
(3 -9.45801e-16 0)
(3 -1.69938e-16 0)
(3 4.10518e-16 0)
(3 5.34036e-16 0)
(3 -1.19144e-16 0)
(3 -3.59064e-16 0)
(3 -2.05362e-16 0)
(3 -3.79867e-16 0)
(3 -7.36471e-16 0)
(3 -5.95668e-16 0)
(3 -5.45108e-16 0)
(3 -1.6385e-16 0)
(3 4.76399e-16 0)
(3 5.45463e-16 0)
(3 3.18421e-17 0)
(3 -5.34918e-16 0)
(3 -5.90028e-16 0)
(3 -7.52199e-16 0)
(3 -8.73994e-16 0)
(3 -1.08602e-16 0)
(3 -1.13897e-16 0)
(3 2.08675e-16 0)
(3 4.39149e-17 0)
(3 -5.09921e-17 0)
(3 2.00524e-17 0)
(3 1.21876e-15 0)
(3 1.34208e-15 0)
(3 1.33924e-15 0)
(3 -2.16223e-16 0)
(3 -2.10419e-15 0)
(3 -2.09913e-15 0)
(3 -1.79192e-15 0)
(3 -1.43173e-15 0)
(3 -1.21931e-15 0)
(3 -2.68659e-16 0)
(3 1.05861e-15 0)
(3 -8.79221e-16 0)
(3 -1.28674e-15 0)
(3 -7.85221e-16 0)
(3 2.78723e-16 0)
(3 1.00911e-15 0)
(3 5.02896e-16 0)
(2.3829 0.000250993 0)
(0.30434 0.00134565 0)
(0.0409319 0.00367027 0)
(0.00824792 0.0068473 0)
(0.00568983 0.00984401 0)
(0.00517471 0.0141178 0)
(0.00859297 0.0179694 0)
(0.008399 0.0227198 0)
(0.00594911 0.0265626 0)
(0.00240814 0.0297875 0)
(0.000407963 0.0327813 0)
(0.0012474 0.0346714 0)
(0.000525539 0.0357452 0)
(-0.000628859 0.036186 0)
(-0.00044376 0.0362364 0)
(3 3.41708e-16 0)
(3 6.18598e-17 0)
(3 -4.95759e-16 0)
(3 8.24896e-17 0)
(3 4.49383e-16 0)
(3 2.13256e-16 0)
(3 1.63446e-16 0)
(3 1.95794e-16 0)
(3 2.20329e-16 0)
(3 4.86069e-16 0)
(3 3.6651e-16 0)
(3 3.93418e-16 0)
(3 4.55152e-16 0)
(3 5.68844e-16 0)
(3 5.46431e-16 0)
(3 5.81669e-16 0)
(3 5.92494e-16 0)
(3 1.10978e-15 0)
(3 1.76065e-15 0)
(3 1.76137e-15 0)
(3 1.38417e-15 0)
(3 -9.24537e-17 0)
(3 -1.26103e-15 0)
(3 -1.01105e-15 0)
(3 8.72456e-16 0)
(3 5.63876e-16 0)
(3 2.21163e-16 0)
(3 -8.2217e-17 0)
(3 -8.38535e-16 0)
(3 -1.49458e-15 0)
(3 -2.15202e-15 0)
(3 -2.42267e-15 0)
(3 -2.04725e-15 0)
(3 -1.95395e-15 0)
(3 -1.8266e-15 0)
(3 -1.7491e-15 0)
(3 -1.03741e-15 0)
(3 -9.33942e-16 0)
(3 -8.61332e-16 0)
(3 -1.15304e-15 0)
(3 -1.20053e-15 0)
(3 -9.00568e-16 0)
(3 -5.03841e-16 0)
(3 -6.1701e-16 0)
(3 -5.04606e-16 0)
(3 -6.81524e-16 0)
(3 -6.63913e-16 0)
(3 2.237e-16 0)
(3 2.973e-16 0)
(3 3.02659e-16 0)
(3 4.95748e-17 0)
(3 -2.34354e-16 0)
(3 -1.36007e-16 0)
(3 -7.66966e-16 0)
(3 -1.26697e-15 0)
(3 -1.18924e-15 0)
(3 -9.8043e-16 0)
(3 -1.10745e-15 0)
(3 -1.04643e-15 0)
(3 -4.59371e-16 0)
(3 -5.20104e-16 0)
(3 -1.28788e-16 0)
(3 1.78891e-17 0)
(3 1.52641e-16 0)
(3 8.78472e-16 0)
(3 1.27315e-15 0)
(3 6.73202e-16 0)
(3 -1.7292e-15 0)
(3 -1.72722e-15 0)
(3 -7.99308e-16 0)
(3 -6.62018e-16 0)
(3 -1.28405e-15 0)
(3 -1.31915e-15 0)
(3 -2.24905e-15 0)
(3 -3.54401e-15 0)
(3 -1.30789e-15 0)
(3 -6.948e-16 0)
(3 -7.43525e-16 0)
(3 2.12765e-16 0)
(3 1.50596e-15 0)
(3 1.73648e-15 0)
(2.39491 0.00390657 0)
(0.314161 0.0104756 0)
(0.0475265 0.0145706 0)
(0.0164131 0.020123 0)
(0.0133917 0.0251606 0)
(0.0126757 0.0314657 0)
(0.0153228 0.0369046 0)
(0.0157054 0.0431765 0)
(0.0117329 0.0476386 0)
(0.00775172 0.0525043 0)
(0.00375087 0.0562472 0)
(0.00460754 0.0584723 0)
(0.00281474 0.0593162 0)
(0.000630546 0.0596857 0)
(0.00011227 0.0598449 0)
(3 1.00947e-16 0)
(3 -2.96458e-16 0)
(3 -3.04744e-16 0)
(3 -1.92274e-16 0)
(3 -5.10257e-16 0)
(3 -5.20279e-16 0)
(3 1.23895e-16 0)
(3 2.65384e-16 0)
(3 -7.32715e-16 0)
(3 2.73649e-16 0)
(3 7.55001e-16 0)
(3 9.78326e-16 0)
(3 4.37426e-16 0)
(3 -2.72098e-16 0)
(3 -3.68127e-16 0)
(3 -1.57741e-16 0)
(3 1.23032e-16 0)
(3 6.76032e-16 0)
(3 1.80894e-15 0)
(3 2.27313e-15 0)
(3 1.58609e-15 0)
(3 6.56071e-16 0)
(3 5.18763e-16 0)
(3 1.01912e-15 0)
(3 1.79998e-15 0)
(3 1.75485e-15 0)
(3 9.59995e-16 0)
(3 6.24144e-16 0)
(3 5.89536e-16 0)
(3 3.85646e-16 0)
(3 1.56397e-16 0)
(3 -1.08124e-15 0)
(3 -1.76973e-15 0)
(3 -2.09846e-15 0)
(3 -1.69416e-15 0)
(3 -1.6579e-15 0)
(3 -1.89275e-15 0)
(3 -1.22885e-15 0)
(3 -3.38246e-16 0)
(3 6.53612e-17 0)
(3 5.50422e-16 0)
(3 4.12683e-16 0)
(3 2.58655e-16 0)
(3 4.59474e-16 0)
(3 4.36649e-16 0)
(3 5.27756e-17 0)
(3 -3.11487e-16 0)
(3 -4.42228e-16 0)
(3 -1.45381e-16 0)
(3 2.35775e-16 0)
(3 8.4732e-17 0)
(3 -1.55258e-16 0)
(3 -7.07541e-16 0)
(3 -6.66968e-16 0)
(3 -3.67948e-16 0)
(3 -7.91123e-16 0)
(3 -7.59568e-16 0)
(3 -1.28622e-15 0)
(3 -1.66822e-15 0)
(3 -1.07614e-15 0)
(3 -1.07696e-15 0)
(3 -1.13022e-15 0)
(3 -9.44375e-16 0)
(3 -1.03934e-15 0)
(3 -8.65493e-16 0)
(3 -6.42223e-16 0)
(3 2.13251e-16 0)
(3 1.21862e-15 0)
(3 2.82185e-16 0)
(3 1.51471e-16 0)
(3 -1.46538e-15 0)
(3 -3.15613e-15 0)
(3 -3.45611e-15 0)
(3 -5.16963e-15 0)
(3 -5.24805e-15 0)
(3 -2.55421e-15 0)
(3 -5.69334e-16 0)
(3 -4.12858e-16 0)
(3 -7.87599e-16 0)
(3 -6.35827e-16 0)
(3 -1.70713e-16 0)
(2.44818 0.0135405 0)
(0.344856 0.0352036 0)
(0.0611651 0.0373074 0)
(0.0282381 0.040731 0)
(0.0233375 0.0467649 0)
(0.0229608 0.054146 0)
(0.023559 0.0602165 0)
(0.0242808 0.0675378 0)
(0.0187705 0.0723706 0)
(0.0142215 0.0786235 0)
(0.00844877 0.0823005 0)
(0.00884631 0.084802 0)
(0.00567329 0.0853651 0)
(0.00231566 0.0854482 0)
(0.000619747 0.0858772 0)
(3 -7.56909e-17 0)
(3 6.33472e-17 0)
(3 5.71739e-16 0)
(3 7.173e-16 0)
(3 5.23753e-16 0)
(3 5.37671e-16 0)
(3 9.04442e-16 0)
(3 3.1971e-16 0)
(3 -5.23656e-16 0)
(3 1.16155e-16 0)
(3 1.06663e-15 0)
(3 1.89676e-15 0)
(3 1.67527e-15 0)
(3 5.69675e-16 0)
(3 5.00441e-16 0)
(3 3.16034e-16 0)
(3 8.88062e-16 0)
(3 8.51425e-16 0)
(3 1.23049e-15 0)
(3 9.67483e-16 0)
(3 3.7032e-16 0)
(3 6.60243e-16 0)
(3 8.80741e-16 0)
(3 1.14787e-15 0)
(3 7.94268e-16 0)
(3 5.12452e-16 0)
(3 6.68805e-16 0)
(3 1.22992e-15 0)
(3 1.6181e-15 0)
(3 2.24037e-15 0)
(3 2.4965e-15 0)
(3 1.89937e-15 0)
(3 4.39968e-16 0)
(3 -3.92007e-16 0)
(3 -9.39973e-16 0)
(3 -1.58037e-15 0)
(3 -1.46886e-15 0)
(3 -1.00861e-15 0)
(3 1.02958e-15 0)
(3 2.46725e-15 0)
(3 1.56048e-15 0)
(3 1.33066e-15 0)
(3 6.6045e-16 0)
(3 5.1829e-16 0)
(3 3.38388e-16 0)
(3 -5.75984e-16 0)
(3 -1.32295e-15 0)
(3 -1.83453e-15 0)
(3 -2.19754e-15 0)
(3 -7.59102e-16 0)
(3 -4.19494e-16 0)
(3 -4.23013e-16 0)
(3 -8.3949e-16 0)
(3 -8.39988e-16 0)
(3 -5.94949e-16 0)
(3 -5.42126e-16 0)
(3 -6.82758e-16 0)
(3 -8.58175e-16 0)
(3 -1.15898e-15 0)
(3 -1.15941e-15 0)
(3 -9.21334e-16 0)
(3 -1.13802e-15 0)
(3 -1.38873e-15 0)
(3 -1.84479e-15 0)
(3 -1.66191e-15 0)
(3 -7.25051e-16 0)
(3 9.36444e-16 0)
(3 2.01701e-15 0)
(3 1.50626e-15 0)
(3 -3.19553e-16 0)
(3 -1.09484e-15 0)
(3 -2.60564e-15 0)
(3 -4.39502e-15 0)
(3 -5.01942e-15 0)
(3 -4.91146e-15 0)
(3 -4.31959e-15 0)
(3 -2.99333e-15 0)
(3 -1.16186e-15 0)
(3 -4.12993e-16 0)
(3 -4.90713e-16 0)
(3 -1.66904e-16 0)
(2.57003 0.0242434 0)
(0.412624 0.0766919 0)
(0.0845772 0.0741318 0)
(0.0427757 0.0665891 0)
(0.0365111 0.0726199 0)
(0.0360233 0.0803103 0)
(0.0327724 0.0862707 0)
(0.0326612 0.0945738 0)
(0.0262949 0.0996469 0)
(0.0214416 0.106558 0)
(0.0141837 0.109888 0)
(0.0136375 0.112901 0)
(0.0088019 0.113108 0)
(0.00409809 0.112876 0)
(0.00116827 0.113404 0)
(3 8.23591e-17 0)
(3 1.86294e-16 0)
(3 6.90502e-16 0)
(3 9.76884e-16 0)
(3 1.06815e-15 0)
(3 5.57736e-16 0)
(3 -4.56074e-17 0)
(3 -5.58344e-17 0)
(3 1.4356e-16 0)
(3 6.58066e-16 0)
(3 6.51881e-16 0)
(3 6.05375e-16 0)
(3 8.08716e-16 0)
(3 1.92313e-15 0)
(3 2.29619e-15 0)
(3 2.33969e-15 0)
(3 1.69112e-15 0)
(3 9.27119e-16 0)
(3 5.57165e-16 0)
(3 -1.0228e-15 0)
(3 -1.65148e-15 0)
(3 -2.01266e-15 0)
(3 -1.95666e-15 0)
(3 -1.66493e-15 0)
(3 -9.05801e-16 0)
(3 -2.50476e-16 0)
(3 4.2935e-16 0)
(3 2.0437e-15 0)
(3 2.93147e-15 0)
(3 3.57717e-15 0)
(3 3.43756e-15 0)
(3 2.74244e-15 0)
(3 2.21418e-15 0)
(3 1.95091e-15 0)
(3 1.29245e-15 0)
(3 7.02973e-16 0)
(3 9.52768e-16 0)
(3 1.8968e-15 0)
(3 2.25271e-15 0)
(3 2.18208e-15 0)
(3 1.92298e-15 0)
(3 1.89144e-15 0)
(3 2.01902e-15 0)
(3 4.26001e-16 0)
(3 -5.78686e-16 0)
(3 -6.45565e-16 0)
(3 -8.24362e-16 0)
(3 -6.49342e-16 0)
(3 -5.60289e-16 0)
(3 -5.74998e-16 0)
(3 -5.43831e-16 0)
(3 -2.67994e-16 0)
(3 2.66523e-16 0)
(3 9.62652e-17 0)
(3 -1.34859e-16 0)
(3 -4.52811e-17 0)
(3 -9.53474e-17 0)
(3 -5.08997e-17 0)
(3 -3.34058e-16 0)
(3 -9.59128e-16 0)
(3 -9.87236e-16 0)
(3 -4.85719e-16 0)
(3 -3.63103e-16 0)
(3 9.61553e-16 0)
(3 1.2552e-15 0)
(3 1.03397e-15 0)
(3 7.53475e-16 0)
(3 1.2559e-15 0)
(3 1.62518e-15 0)
(3 -1.41558e-15 0)
(3 -3.76951e-15 0)
(3 -4.43334e-15 0)
(3 -5.31983e-15 0)
(3 -5.97726e-15 0)
(3 -7.10687e-15 0)
(3 -4.83227e-15 0)
(3 -3.15442e-15 0)
(3 4.51975e-16 0)
(3 1.41896e-15 0)
(3 8.33026e-16 0)
(3 4.60401e-16 0)
(2.75775 0.0233033 0)
(0.537953 0.130981 0)
(0.118584 0.12544 0)
(0.0646189 0.100977 0)
(0.0545727 0.103457 0)
(0.0505039 0.109011 0)
(0.0437246 0.114312 0)
(0.040176 0.122989 0)
(0.0339838 0.128494 0)
(0.0291004 0.135449 0)
(0.0206443 0.138736 0)
(0.0185432 0.142301 0)
(0.0121347 0.142158 0)
(0.00591424 0.1414 0)
(0.0018892 0.142311 0)
(3 -4.57374e-17 0)
(3 -2.63062e-16 0)
(3 -2.67754e-16 0)
(3 5.82851e-19 0)
(3 -5.23089e-16 0)
(3 -7.39555e-16 0)
(3 -8.47059e-16 0)
(3 9.41817e-16 0)
(3 7.5321e-16 0)
(3 2.06595e-17 0)
(3 -3.1313e-16 0)
(3 -2.89723e-16 0)
(3 -3.94185e-16 0)
(3 9.96725e-16 0)
(3 1.54126e-15 0)
(3 1.45769e-15 0)
(3 1.10557e-15 0)
(3 1.1905e-15 0)
(3 -7.29321e-17 0)
(3 -2.59349e-15 0)
(3 -2.77119e-15 0)
(3 -2.81278e-15 0)
(3 -2.01624e-15 0)
(3 -1.08618e-15 0)
(3 -1.06441e-16 0)
(3 1.1992e-16 0)
(3 7.53578e-16 0)
(3 1.48249e-15 0)
(3 1.68988e-15 0)
(3 1.13419e-15 0)
(3 1.30483e-15 0)
(3 1.07277e-15 0)
(3 2.54782e-16 0)
(3 -3.73328e-16 0)
(3 -3.71001e-16 0)
(3 3.33235e-16 0)
(3 1.73769e-15 0)
(3 1.56228e-15 0)
(3 1.34186e-15 0)
(3 9.83851e-17 0)
(3 2.18533e-16 0)
(3 9.39928e-16 0)
(3 9.37929e-16 0)
(3 7.27348e-16 0)
(3 3.51168e-16 0)
(3 2.08892e-16 0)
(3 6.88782e-17 0)
(3 3.06599e-16 0)
(3 1.10732e-15 0)
(3 5.48996e-16 0)
(3 -1.40187e-16 0)
(3 -5.89299e-16 0)
(3 -1.02305e-15 0)
(3 -8.87681e-16 0)
(3 -5.32593e-16 0)
(3 -1.13299e-16 0)
(3 -1.4656e-16 0)
(3 -1.8925e-16 0)
(3 -5.13178e-16 0)
(3 -1.01562e-15 0)
(3 -1.7226e-15 0)
(3 -1.98249e-15 0)
(3 -6.78522e-16 0)
(3 3.4241e-16 0)
(3 1.04962e-15 0)
(3 -1.99487e-16 0)
(3 -1.00114e-15 0)
(3 -1.5862e-15 0)
(3 -1.88511e-15 0)
(3 -1.62131e-15 0)
(3 -2.31921e-15 0)
(3 -2.63434e-15 0)
(3 -2.84379e-15 0)
(3 -2.81392e-15 0)
(3 -2.54056e-15 0)
(3 -2.1451e-15 0)
(3 -1.53218e-15 0)
(3 -1.53153e-15 0)
(3 -1.31961e-15 0)
(3 -8.15173e-16 0)
(3 -6.95454e-16 0)
(2.95283 0.00525355 0)
(0.749151 0.192267 0)
(0.161649 0.187864 0)
(0.0910226 0.15532 0)
(0.0816676 0.139754 0)
(0.0684081 0.141378 0)
(0.0574101 0.144912 0)
(0.0483507 0.152236 0)
(0.0432354 0.158711 0)
(0.0373239 0.165165 0)
(0.0273748 0.168882 0)
(0.0233015 0.172626 0)
(0.0158605 0.172513 0)
(0.00816482 0.171217 0)
(0.00257943 0.172477 0)
(3 -1.08738e-17 0)
(3 -1.54123e-17 0)
(3 -5.8741e-17 0)
(3 -1.89909e-16 0)
(3 -7.74928e-17 0)
(3 1.1854e-16 0)
(3 6.7006e-16 0)
(3 1.03395e-15 0)
(3 6.93054e-16 0)
(3 -7.25455e-16 0)
(3 -1.26878e-15 0)
(3 -1.84305e-16 0)
(3 2.36605e-16 0)
(3 4.07134e-16 0)
(3 -7.17234e-16 0)
(3 -7.14381e-16 0)
(3 -7.95651e-16 0)
(3 -1.01508e-15 0)
(3 -2.03193e-15 0)
(3 -2.62717e-15 0)
(3 -1.91356e-15 0)
(3 -1.25012e-15 0)
(3 -1.3625e-15 0)
(3 -1.2541e-15 0)
(3 -1.32906e-15 0)
(3 -1.33115e-15 0)
(3 -2.8207e-16 0)
(3 5.10843e-16 0)
(3 5.89998e-16 0)
(3 3.23103e-16 0)
(3 -4.6807e-16 0)
(3 -1.56032e-15 0)
(3 -1.88305e-15 0)
(3 -2.1186e-15 0)
(3 -1.47458e-15 0)
(3 -2.99273e-16 0)
(3 1.50993e-17 0)
(3 -8.61419e-16 0)
(3 -1.09139e-15 0)
(3 -1.04173e-15 0)
(3 -7.33558e-16 0)
(3 9.01061e-16 0)
(3 1.41458e-15 0)
(3 1.39286e-15 0)
(3 9.86233e-16 0)
(3 7.31558e-16 0)
(3 1.10338e-15 0)
(3 1.50568e-15 0)
(3 1.37329e-15 0)
(3 1.25475e-15 0)
(3 6.95814e-16 0)
(3 -1.10618e-15 0)
(3 -1.59096e-15 0)
(3 -1.53508e-15 0)
(3 -1.36608e-15 0)
(3 -8.7413e-16 0)
(3 -4.14818e-16 0)
(3 -5.92142e-16 0)
(3 -5.04585e-16 0)
(3 -1.12283e-16 0)
(3 4.34722e-16 0)
(3 1.84382e-16 0)
(3 -3.4266e-16 0)
(3 -1.00789e-15 0)
(3 -1.09686e-15 0)
(3 -1.00957e-15 0)
(3 -1.26152e-15 0)
(3 -1.72836e-15 0)
(3 -1.9893e-15 0)
(3 -1.98425e-15 0)
(3 -1.809e-15 0)
(3 -1.77365e-15 0)
(3 -1.42919e-15 0)
(3 -7.21894e-16 0)
(3 5.24092e-17 0)
(3 -6.92047e-16 0)
(3 -1.63054e-15 0)
(3 -2.63104e-15 0)
(3 -2.67645e-15 0)
(3 -1.83453e-15 0)
(3 -1.21667e-15 0)
(2.99998 3.05254e-05 0)
(1.10066 0.249558 0)
(0.21545 0.253904 0)
(0.128522 0.224132 0)
(0.117231 0.19398 0)
(0.0930287 0.183619 0)
(0.0726563 0.17986 0)
(0.0597319 0.18415 0)
(0.05619 0.191207 0)
(0.0468194 0.196918 0)
(0.0341808 0.200639 0)
(0.0279083 0.204072 0)
(0.0204445 0.204574 0)
(0.0114493 0.203231 0)
(0.00323427 0.204134 0)
(3 -3.96283e-17 0)
(3 -1.34809e-16 0)
(3 -1.69261e-16 0)
(3 -3.53612e-16 0)
(3 -4.60892e-18 0)
(3 2.81399e-16 0)
(3 3.27829e-16 0)
(3 1.59622e-16 0)
(3 2.21323e-16 0)
(3 4.36304e-16 0)
(3 7.43681e-16 0)
(3 8.07322e-16 0)
(3 2.93065e-16 0)
(3 -5.17492e-16 0)
(3 -8.06856e-16 0)
(3 -1.14575e-15 0)
(3 -1.46843e-15 0)
(3 -1.39709e-15 0)
(3 -9.80311e-16 0)
(3 -6.87531e-16 0)
(3 -1.25371e-15 0)
(3 -1.27345e-15 0)
(3 -9.9708e-16 0)
(3 -1.22813e-15 0)
(3 -1.30046e-15 0)
(3 -6.53207e-16 0)
(3 -9.32385e-17 0)
(3 -3.55133e-16 0)
(3 -1.40426e-15 0)
(3 -1.86767e-15 0)
(3 -2.47595e-15 0)
(3 -2.11802e-15 0)
(3 -1.81772e-15 0)
(3 -9.05517e-16 0)
(3 -5.92222e-16 0)
(3 -1.16434e-15 0)
(3 -2.4999e-15 0)
(3 -3.01042e-15 0)
(3 -2.99535e-15 0)
(3 -2.38934e-15 0)
(3 -3.87082e-16 0)
(3 6.14063e-16 0)
(3 2.06431e-15 0)
(3 2.79384e-15 0)
(3 2.83003e-15 0)
(3 2.93064e-15 0)
(3 2.59443e-15 0)
(3 1.354e-15 0)
(3 3.70851e-16 0)
(3 -2.6809e-16 0)
(3 -5.43386e-16 0)
(3 -1.12253e-15 0)
(3 -1.26951e-15 0)
(3 -1.33542e-15 0)
(3 -9.09176e-16 0)
(3 -2.91397e-16 0)
(3 3.70597e-16 0)
(3 3.72596e-16 0)
(3 3.75761e-16 0)
(3 6.56018e-16 0)
(3 7.0915e-16 0)
(3 5.96774e-16 0)
(3 -8.816e-16 0)
(3 -1.74894e-15 0)
(3 -1.28389e-15 0)
(3 -4.50832e-16 0)
(3 -5.51783e-16 0)
(3 -1.49918e-15 0)
(3 -1.48475e-15 0)
(3 -1.42292e-15 0)
(3 -1.44344e-15 0)
(3 -1.70941e-15 0)
(3 -2.26724e-15 0)
(3 -2.087e-15 0)
(3 -6.56055e-16 0)
(3 -3.38178e-16 0)
(3 -1.45485e-15 0)
(3 -2.10821e-15 0)
(3 -1.94089e-15 0)
(3 -8.75368e-16 0)
(3 -4.30191e-16 0)
(3 3.47488e-10 0)
(1.70421 0.266284 0)
(0.307447 0.316481 0)
(0.184102 0.307829 0)
(0.161729 0.26899 0)
(0.12441 0.239394 0)
(0.0913536 0.225601 0)
(0.0799421 0.221733 0)
(0.0734346 0.228848 0)
(0.0559117 0.232498 0)
(0.0418305 0.235091 0)
(0.0333575 0.238003 0)
(0.026475 0.239646 0)
(0.0152514 0.23849 0)
(0.00387692 0.237984 0)
(3 -1.54254e-17 0)
(3 -7.01685e-17 0)
(3 -1.09883e-15 0)
(3 -1.37702e-15 0)
(3 -2.47542e-16 0)
(3 3.37172e-17 0)
(3 3.93166e-16 0)
(3 5.00747e-16 0)
(3 8.37867e-16 0)
(3 1.08425e-15 0)
(3 1.35023e-15 0)
(3 1.21608e-15 0)
(3 1.19591e-15 0)
(3 8.22316e-16 0)
(3 1.05382e-15 0)
(3 4.99565e-16 0)
(3 1.74688e-16 0)
(3 9.05797e-17 0)
(3 7.3435e-16 0)
(3 1.31508e-15 0)
(3 1.25282e-15 0)
(3 3.5732e-16 0)
(3 7.15004e-17 0)
(3 -1.40586e-16 0)
(3 -2.58825e-16 0)
(3 1.93311e-17 0)
(3 2.42308e-16 0)
(3 5.70379e-16 0)
(3 1.57657e-16 0)
(3 -5.50845e-16 0)
(3 -8.94057e-16 0)
(3 -3.77278e-16 0)
(3 -2.82324e-17 0)
(3 -6.61134e-16 0)
(3 -1.10915e-15 0)
(3 -2.65235e-15 0)
(3 -3.31746e-15 0)
(3 -2.19693e-15 0)
(3 -1.55418e-15 0)
(3 -9.47957e-16 0)
(3 -1.57905e-16 0)
(3 2.80637e-16 0)
(3 9.96174e-17 0)
(3 2.27933e-16 0)
(3 5.28355e-16 0)
(3 5.11985e-16 0)
(3 3.42418e-16 0)
(3 -4.94901e-17 0)
(3 -4.11269e-16 0)
(3 -7.70093e-16 0)
(3 -1.4093e-15 0)
(3 -1.70708e-15 0)
(3 -1.57413e-15 0)
(3 -1.6068e-15 0)
(3 -1.78573e-16 0)
(3 6.59713e-16 0)
(3 1.07336e-15 0)
(3 1.22122e-15 0)
(3 9.52024e-16 0)
(3 9.6587e-16 0)
(3 5.5805e-16 0)
(3 6.17211e-16 0)
(3 2.77342e-16 0)
(3 -3.19237e-16 0)
(3 3.93909e-16 0)
(3 1.04122e-15 0)
(3 1.25958e-15 0)
(3 -1.16592e-15 0)
(3 -1.54285e-15 0)
(3 -1.82333e-15 0)
(3 -1.80177e-15 0)
(3 -1.51003e-15 0)
(3 -1.55371e-15 0)
(3 -1.08071e-15 0)
(3 -8.98209e-17 0)
(3 3.80808e-16 0)
(3 2.04772e-16 0)
(3 6.90387e-17 0)
(3 2.12235e-16 0)
(3 -1.58495e-16 0)
(3 -4.79052e-16 0)
(3 3.05577e-14 0)
(2.57948 0.138237 0)
(0.55307 0.390786 0)
(0.266222 0.399377 0)
(0.204124 0.357532 0)
(0.157466 0.312375 0)
(0.123957 0.29089 0)
(0.11704 0.275297 0)
(0.0956492 0.275283 0)
(0.0655041 0.272746 0)
(0.0544859 0.274624 0)
(0.0436138 0.277361 0)
(0.0338715 0.279511 0)
(0.0171969 0.277627 0)
(0.00433009 0.275864 0)
(3 7.58742e-18 0)
(3 2.85108e-17 0)
(3 7.47356e-17 0)
(3 2.96161e-16 0)
(3 1.85063e-16 0)
(3 7.30376e-17 0)
(3 -8.18507e-17 0)
(3 1.9524e-17 0)
(3 2.73922e-16 0)
(3 4.7205e-16 0)
(3 1.51561e-16 0)
(3 1.6347e-17 0)
(3 3.18208e-17 0)
(3 1.17002e-16 0)
(3 6.77928e-17 0)
(3 9.79905e-17 0)
(3 6.70984e-17 0)
(3 1.0473e-16 0)
(3 3.46078e-16 0)
(3 3.70707e-16 0)
(3 1.12413e-15 0)
(3 1.43143e-15 0)
(3 1.20986e-15 0)
(3 1.418e-15 0)
(3 1.54751e-15 0)
(3 1.14627e-15 0)
(3 2.03921e-16 0)
(3 -1.70854e-16 0)
(3 -2.88302e-16 0)
(3 -2.82783e-16 0)
(3 -1.56986e-16 0)
(3 -9.6276e-18 0)
(3 -1.8227e-16 0)
(3 -7.47759e-16 0)
(3 -1.24072e-15 0)
(3 -8.56058e-16 0)
(3 -5.29683e-16 0)
(3 -9.25448e-16 0)
(3 -8.69504e-16 0)
(3 -9.94439e-16 0)
(3 -1.18743e-15 0)
(3 -1.49711e-15 0)
(3 -2.02622e-15 0)
(3 -1.44751e-15 0)
(3 -1.27207e-15 0)
(3 -1.38124e-15 0)
(3 -9.29549e-16 0)
(3 -8.71025e-16 0)
(3 -1.0677e-15 0)
(3 -8.16738e-16 0)
(3 -7.14031e-16 0)
(3 -5.50613e-16 0)
(3 -6.07116e-16 0)
(3 -4.09044e-16 0)
(3 -3.46071e-16 0)
(3 -2.70597e-16 0)
(3 -2.5894e-16 0)
(3 4.73848e-16 0)
(3 1.65817e-15 0)
(3 1.76746e-15 0)
(3 1.69838e-15 0)
(3 1.56921e-15 0)
(3 1.52621e-15 0)
(3 1.38115e-15 0)
(3 1.67648e-15 0)
(3 2.02502e-15 0)
(3 2.49835e-15 0)
(3 1.22504e-15 0)
(3 5.36483e-16 0)
(3 1.89493e-16 0)
(3 -2.24844e-15 0)
(3 -3.45113e-15 0)
(3 -1.39422e-15 0)
(3 -4.77244e-16 0)
(3 -3.41273e-16 0)
(3 -6.86895e-16 0)
(3 -5.59852e-16 0)
(3 -1.99672e-16 0)
(3 -2.63412e-16 0)
(3 -9.07512e-16 0)
(3 -1.4017e-15 0)
(3 -1.76152e-15 0)
(3.00037 0.00597243 0)
(1.18003 0.450351 0)
(0.357474 0.48046 0)
(0.241834 0.449422 0)
(0.217948 0.408658 0)
(0.18869 0.379886 0)
(0.159875 0.355088 0)
(0.115155 0.335822 0)
(0.0802904 0.326224 0)
(0.0719449 0.326941 0)
(0.0603179 0.324779 0)
(0.0408142 0.324973 0)
(0.0162793 0.321178 0)
(0.00613768 0.321985 0)
(3 4.33839e-17 0)
(3 1.44314e-16 0)
(3 4.87124e-16 0)
(3 3.41969e-16 0)
(3 -7.18525e-17 0)
(3 -6.28614e-16 0)
(3 -6.69158e-16 0)
(3 -6.47698e-16 0)
(3 -6.62458e-16 0)
(3 -4.06035e-16 0)
(3 -4.22671e-16 0)
(3 -8.68472e-16 0)
(3 -1.17647e-15 0)
(3 -9.94931e-16 0)
(3 -1.06454e-15 0)
(3 -1.03349e-15 0)
(3 -5.5497e-16 0)
(3 -9.81637e-17 0)
(3 -2.20893e-16 0)
(3 -2.69119e-16 0)
(3 -2.75911e-16 0)
(3 5.9842e-16 0)
(3 1.72937e-15 0)
(3 2.20438e-15 0)
(3 1.33031e-15 0)
(3 2.75398e-16 0)
(3 9.6647e-17 0)
(3 3.3625e-17 0)
(3 1.96797e-16 0)
(3 3.42525e-16 0)
(3 4.61215e-16 0)
(3 6.2203e-16 0)
(3 8.02995e-16 0)
(3 1.00507e-15 0)
(3 1.4236e-15 0)
(3 1.07295e-15 0)
(3 2.71103e-16 0)
(3 3.00796e-16 0)
(3 -5.82327e-16 0)
(3 -1.56396e-15 0)
(3 -2.30402e-15 0)
(3 -2.54228e-15 0)
(3 -2.24485e-15 0)
(3 -1.83279e-15 0)
(3 -2.76181e-15 0)
(3 -3.51919e-15 0)
(3 -2.3113e-15 0)
(3 -1.13766e-15 0)
(3 -8.05359e-16 0)
(3 -3.45409e-16 0)
(3 -2.96638e-16 0)
(3 -3.4827e-16 0)
(3 -6.71704e-16 0)
(3 -3.40054e-16 0)
(3 -1.12003e-16 0)
(3 -1.65696e-16 0)
(3 -3.56472e-17 0)
(3 2.28661e-16 0)
(3 1.20332e-15 0)
(3 1.89881e-15 0)
(3 2.42315e-15 0)
(3 2.64939e-15 0)
(3 2.50802e-15 0)
(3 2.00177e-15 0)
(3 1.28298e-15 0)
(3 8.18124e-16 0)
(3 5.1818e-16 0)
(3 5.91438e-16 0)
(3 8.44667e-16 0)
(3 4.42196e-16 0)
(3 -4.22683e-16 0)
(3 -7.44813e-16 0)
(3 -8.2814e-16 0)
(3 -1.09158e-15 0)
(3 -1.37104e-15 0)
(3 -1.31576e-15 0)
(3 -1.1375e-15 0)
(3 -1.2108e-15 0)
(3 -1.38915e-15 0)
(3 -1.31854e-15 0)
(3 -1.11959e-15 0)
(3 -1.51075e-15 0)
(3 5.79138e-06 0)
(2.40649 0.261285 0)
(0.580164 0.538683 0)
(0.340906 0.55233 0)
(0.297265 0.525725 0)
(0.259029 0.483659 0)
(0.201791 0.453978 0)
(0.163447 0.419627 0)
(0.129535 0.404412 0)
(0.113234 0.389751 0)
(0.0835337 0.383527 0)
(0.0547612 0.379527 0)
(0.0251309 0.37758 0)
(0.0107326 0.38226 0)
(3 2.13308e-16 0)
(3 3.13299e-16 0)
(3 2.05436e-16 0)
(3 1.00748e-16 0)
(3 -4.75849e-17 0)
(3 4.37168e-17 0)
(3 1.4573e-17 0)
(3 4.42264e-17 0)
(3 -6.41489e-17 0)
(3 -5.0566e-16 0)
(3 -6.84723e-16 0)
(3 -9.20818e-16 0)
(3 -9.66439e-16 0)
(3 -9.62847e-16 0)
(3 -9.29824e-16 0)
(3 -8.14167e-16 0)
(3 -3.71155e-16 0)
(3 4.96706e-16 0)
(3 7.86025e-16 0)
(3 6.9895e-16 0)
(3 -1.87022e-16 0)
(3 -6.05457e-16 0)
(3 -4.62804e-16 0)
(3 -2.6916e-16 0)
(3 -9.01589e-17 0)
(3 1.34451e-16 0)
(3 5.87822e-16 0)
(3 7.84167e-16 0)
(3 1.05173e-15 0)
(3 1.18916e-15 0)
(3 1.27479e-15 0)
(3 1.68878e-15 0)
(3 2.25077e-15 0)
(3 2.30094e-15 0)
(3 1.79754e-15 0)
(3 1.13796e-15 0)
(3 3.15436e-16 0)
(3 3.07976e-16 0)
(3 -3.00516e-16 0)
(3 -3.2491e-16 0)
(3 -3.26914e-16 0)
(3 -5.05973e-16 0)
(3 -8.91943e-16 0)
(3 -1.44009e-15 0)
(3 -1.53961e-15 0)
(3 -1.48413e-15 0)
(3 -1.33878e-15 0)
(3 -1.15146e-15 0)
(3 -6.35743e-16 0)
(3 3.08564e-16 0)
(3 1.19744e-15 0)
(3 1.02416e-15 0)
(3 7.45247e-16 0)
(3 3.11546e-16 0)
(3 2.01258e-17 0)
(3 7.55417e-16 0)
(3 1.41927e-15 0)
(3 2.10168e-15 0)
(3 2.93909e-15 0)
(3 3.79039e-15 0)
(3 3.97738e-15 0)
(3 4.19208e-15 0)
(3 4.20838e-15 0)
(3 4.06026e-15 0)
(3 2.72659e-15 0)
(3 1.32173e-15 0)
(3 9.12382e-16 0)
(3 2.49996e-16 0)
(3 -6.51312e-16 0)
(3 -1.28981e-15 0)
(3 3.20995e-16 0)
(3 3.48829e-15 0)
(3 2.38159e-15 0)
(3 2.09557e-16 0)
(3 -1.0791e-15 0)
(3 -1.19134e-15 0)
(3 -8.15264e-16 0)
(3 -1.15231e-15 0)
(3 -2.03911e-15 0)
(3 -1.20227e-15 0)
(3 -4.39881e-16 0)
(3 -5.97982e-16 0)
(3 2.45806e-09 0)
(3.00338 0.0106018 0)
(1.47419 0.52462 0)
(0.473532 0.630977 0)
(0.353447 0.626347 0)
(0.344833 0.59551 0)
(0.293362 0.570304 0)
(0.241931 0.546518 0)
(0.196852 0.520697 0)
(0.154988 0.494983 0)
(0.109454 0.481463 0)
(0.0800794 0.468699 0)
(0.0520792 0.463012 0)
(0.0188705 0.468131 0)
(3 4.98847e-18 0)
(3 -2.87122e-17 0)
(3 -4.99114e-17 0)
(3 -2.19459e-16 0)
(3 -1.61845e-16 0)
(3 4.09756e-17 0)
(3 8.60583e-18 0)
(3 -2.04e-16 0)
(3 -5.00003e-16 0)
(3 -5.13699e-16 0)
(3 -5.73883e-16 0)
(3 -2.82939e-16 0)
(3 -2.9943e-16 0)
(3 -6.53207e-16 0)
(3 -7.88371e-16 0)
(3 -5.49891e-16 0)
(3 -5.2396e-16 0)
(3 -3.14184e-16 0)
(3 3.48801e-16 0)
(3 -4.74498e-16 0)
(3 -7.90314e-16 0)
(3 -1.73985e-15 0)
(3 -2.19019e-15 0)
(3 -2.468e-15 0)
(3 -1.2441e-15 0)
(3 -5.73421e-16 0)
(3 -4.11117e-16 0)
(3 -4.92129e-17 0)
(3 6.08476e-16 0)
(3 1.35027e-15 0)
(3 2.12882e-15 0)
(3 2.00247e-15 0)
(3 1.79034e-15 0)
(3 2.03163e-15 0)
(3 2.38301e-15 0)
(3 2.42566e-15 0)
(3 1.18918e-15 0)
(3 -4.72786e-16 0)
(3 -3.29434e-16 0)
(3 -1.52187e-16 0)
(3 -1.75172e-16 0)
(3 -7.34136e-16 0)
(3 -6.28076e-16 0)
(3 -5.00202e-16 0)
(3 1.30404e-17 0)
(3 7.32893e-16 0)
(3 8.22681e-16 0)
(3 4.31162e-16 0)
(3 1.20672e-16 0)
(3 1.00492e-15 0)
(3 1.5067e-15 0)
(3 1.77558e-15 0)
(3 1.69314e-15 0)
(3 1.59218e-15 0)
(3 1.55357e-15 0)
(3 1.97174e-15 0)
(3 1.20692e-15 0)
(3 9.956e-16 0)
(3 8.65371e-16 0)
(3 1.68586e-15 0)
(3 3.55388e-15 0)
(3 3.02107e-15 0)
(3 1.76385e-15 0)
(3 2.13046e-16 0)
(3 -4.2269e-16 0)
(3 -4.01808e-16 0)
(3 -2.48812e-16 0)
(3 -3.29293e-16 0)
(3 -3.76566e-17 0)
(3 -1.75167e-16 0)
(3 -1.55689e-16 0)
(3 1.48506e-15 0)
(3 1.3363e-15 0)
(3 1.16857e-15 0)
(3 -1.52685e-17 0)
(3 -1.06021e-15 0)
(3 -9.72015e-16 0)
(3 -1.02113e-15 0)
(3 -1.45687e-15 0)
(3 -1.54035e-15 0)
(3 -1.21642e-15 0)
(3 -2.84574e-18 0)
(3 7.80753e-13 0)
(3.00001 1.77733e-05 0)
(2.97333 0.0806638 0)
(1.06763 0.657427 0)
(0.505036 0.709536 0)
(0.408434 0.717477 0)
(0.394058 0.694254 0)
(0.347754 0.682387 0)
(0.327467 0.646548 0)
(0.266718 0.629978 0)
(0.211561 0.599126 0)
(0.170638 0.579919 0)
(0.125352 0.594528 0)
(0.0601071 0.629297 0)
(3 -7.30573e-17 0)
(3 -1.32581e-17 0)
(3 5.05084e-17 0)
(3 -1.27351e-16 0)
(3 -3.47251e-16 0)
(3 3.26698e-16 0)
(3 5.73573e-16 0)
(3 4.68221e-16 0)
(3 -4.32268e-16 0)
(3 -6.14431e-16 0)
(3 -5.2509e-16 0)
(3 -3.30877e-16 0)
(3 6.43794e-17 0)
(3 1.39804e-16 0)
(3 1.69183e-16 0)
(3 3.80889e-16 0)
(3 4.41482e-16 0)
(3 2.74266e-16 0)
(3 -3.959e-16 0)
(3 4.73288e-17 0)
(3 2.97655e-16 0)
(3 -3.71401e-17 0)
(3 -5.39913e-16 0)
(3 -9.186e-16 0)
(3 -8.89619e-16 0)
(3 -7.94943e-16 0)
(3 -4.66793e-16 0)
(3 -2.59336e-16 0)
(3 4.02658e-16 0)
(3 1.1238e-15 0)
(3 1.37009e-15 0)
(3 1.25826e-15 0)
(3 1.27725e-15 0)
(3 1.79769e-15 0)
(3 1.65875e-15 0)
(3 1.36992e-15 0)
(3 9.42794e-16 0)
(3 6.37626e-16 0)
(3 3.75632e-16 0)
(3 -2.82729e-16 0)
(3 -6.35252e-16 0)
(3 -7.85315e-16 0)
(3 -1.65834e-15 0)
(3 -1.95197e-15 0)
(3 -1.42632e-15 0)
(3 1.29601e-16 0)
(3 8.18474e-16 0)
(3 1.44567e-15 0)
(3 1.33817e-15 0)
(3 4.78709e-16 0)
(3 -6.32704e-17 0)
(3 4.04804e-16 0)
(3 6.77598e-16 0)
(3 1.06074e-15 0)
(3 9.77316e-16 0)
(3 9.23519e-16 0)
(3 7.29955e-16 0)
(3 2.89212e-16 0)
(3 2.58701e-16 0)
(3 2.51643e-16 0)
(3 9.91519e-16 0)
(3 5.18537e-16 0)
(3 -9.87564e-16 0)
(3 -1.82314e-15 0)
(3 -2.03271e-15 0)
(3 -1.87977e-15 0)
(3 -1.9363e-15 0)
(3 -1.39421e-15 0)
(3 -2.36994e-16 0)
(3 4.09551e-16 0)
(3 7.93846e-16 0)
(3 7.74679e-16 0)
(3 5.66609e-16 0)
(3 5.12728e-16 0)
(3 3.35861e-16 0)
(3 9.60158e-17 0)
(3 -1.33567e-16 0)
(3 -4.73228e-16 0)
(3 -6.54662e-16 0)
(3 -7.30783e-16 0)
(3 -9.50409e-17 0)
(3 -2.32117e-16 0)
(3 -2.56186e-16 0)
(3 9.93578e-09 0)
(3.00056 0.00051506 0)
(2.83093 0.178685 0)
(0.98711 0.738549 0)
(0.565177 0.786023 0)
(0.489711 0.813156 0)