/*--------------------------------*- C++ -*----------------------------------*\
  =========                 |
  \\      /  F ield         | OpenFOAM: The Open Source CFD Toolbox
   \\    /   O peration     | Website:  https://openfoam.org
    \\  /    A nd           | Version:  7
     \\/     M anipulation  |
\*---------------------------------------------------------------------------*/
FoamFile
{
    version     2.0;
    format      ascii;
    class       volScalarField;
    location    "4.14";
    object      T;
}
// * * * * * * * * * * * * * * * * * * * * * * * * * * * * * * * * * * * * * //

dimensions      [0 0 0 1 0 0 0];

internalField   nonuniform List<scalar> 
1000
(
0
0
0
0
0
0
0
0
0
0
0
0
0
0
0
0
0
0
0
0
0
0
0
0
0
0
0
0
0
0
0
0
0
0
0
0
6.91692e-323
-6.75981e-320
3.24612e-317
-1.03436e-314
2.46016e-312
-4.65859e-310
7.31574e-308
-9.7992e-306
1.14285e-303
-1.1789e-301
1.089e-299
-9.09895e-298
6.93348e-296
-4.85193e-294
3.13646e-292
-1.88247e-290
1.05364e-288
-5.52093e-287
2.71752e-285
-1.26035e-283
5.52272e-282
-2.29203e-280
9.02937e-279
-3.38326e-277
1.20796e-275
-4.11662e-274
1.34111e-272
-4.18257e-271
1.25039e-269
-3.58751e-268
9.88962e-267
-2.62214e-265
6.69332e-264
-1.64638e-262
3.90563e-261
-8.94259e-260
1.97774e-258
-4.22771e-257
8.74087e-256
-1.74896e-254
3.38866e-253
-6.36104e-252
1.15744e-250
-2.0424e-249
3.4966e-248
-5.81019e-247
9.37436e-246
-1.46911e-244
2.23703e-243
-3.31077e-242
4.76377e-241
-6.66578e-240
9.07266e-239
-1.20143e-237
1.54821e-236
-1.94181e-235
2.37081e-234
-2.81815e-233
3.2618e-232
-3.67639e-231
4.03541e-230
-4.31402e-229
4.49177e-228
-4.55512e-227
4.49906e-226
-4.32779e-225
4.05418e-224
-3.69822e-223
3.28456e-222
-2.83979e-221
2.38964e-220
-1.95665e-219
1.55847e-218
-1.2071e-217
9.08795e-217
-6.64761e-216
4.7217e-215
-3.25447e-214
2.17507e-213
-1.40826e-212
8.8233e-212
-5.34252e-211
3.12125e-210
-1.75594e-209
9.48846e-209
-4.90864e-208
2.42048e-207
-1.13072e-206
4.95889e-206
-2.01236e-205
7.3627e-205
-2.29622e-204
5.13123e-204
8.08343e-207
-8.76083e-203
6.5748e-202
-3.40565e-201
1.402e-200
-4.54203e-200
9.6599e-200
4.68168e-200
-1.84259e-198
1.18116e-197
-5.0949e-197
1.57703e-196
-2.63632e-196
-6.48287e-196
8.00668e-195
-4.08115e-194
1.37364e-193
-2.5748e-193
-3.85981e-193
5.89732e-192
-2.93332e-191
8.94995e-191
-1.15212e-190
-5.49293e-190
4.5989e-189
-1.81374e-188
3.88651e-188
2.49764e-188
-6.29226e-187
2.98442e-186
-7.57401e-186
1.70047e-186
8.45628e-185
-4.42896e-184
1.16337e-183
-3.7025e-184
-1.20062e-182
6.14386e-182
-1.48904e-181
-1.74612e-182
1.78225e-180
-7.87895e-180
1.52668e-179
2.01526e-179
-2.56596e-178
8.88379e-178
-1.01098e-177
-5.28579e-177
3.28274e-176
-7.94592e-176
-2.03402e-176
9.07903e-175
-3.40456e-174
4.11461e-174
1.85164e-173
-1.12569e-172
2.4313e-172
2.00325e-172
-3.13016e-171
9.54207e-171
-4.40213e-171
-7.56329e-170
3.10147e-169
-3.74376e-169
-1.60425e-168
8.97544e-168
-1.56384e-167
-2.96568e-167
2.4013e-166
-5.1954e-166
-4.6301e-166
6.08966e-165
-1.52048e-164
-5.59751e-165
1.49152e-163
-4.08284e-163
-3.86709e-164
3.57777e-162
-1.02587e-161
1.11016e-163
8.47819e-161
-2.43373e-160
-5.03972e-162
1.98981e-159
-5.46035e-159
-9.98425e-160
4.60888e-158
-1.15293e-157
-5.64597e-158
1.04454e-156
-2.26219e-156
-2.23638e-156
2.28856e-155
-4.02225e-155
-7.26968e-155
4.77693e-154
-6.13929e-154
-2.0526e-153
9.33261e-153
-6.85571e-153
-5.1537e-152
1.66634e-151
-8.59575e-153
-1.1595e-150
2.61448e-150
2.40071e-150
-2.32988e-149
3.30396e-149
8.99736e-149
-4.11769e-148
2.38442e-148
2.27977e-147
-6.16853e-147
-2.86499e-147
4.62409e-146
-7.09129e-146
-1.64759e-145
7.70196e-145
-3.83778e-145
-4.20397e-144
1.01175e-143
8.21287e-144
-7.80098e-143
8.64728e-143
3.31756e-142
-1.10269e-141
-1.50817e-142
6.94826e-141
-1.06262e-140
-2.42443e-140
1.02628e-139
-2.0598e-140
-5.71877e-139
1.01354e-138
1.76483e-138
-8.55071e-138
2.71353e-138
4.48444e-137
-8.11922e-137
-1.35718e-136
6.4998e-136
-1.59997e-136
-3.38413e-135
5.53884e-135
1.10397e-134
-4.50037e-134
-3.0785e-136
2.42985e-133
-3.11473e-133
-8.98657e-133
2.77772e-132
1.29504e-132
-1.61301e-131
1.26899e-131
6.84438e-131
-1.4557e-130
-1.82127e-130
9.48739e-130
-1.44593e-130
-4.61569e-129
5.76796e-129
1.67628e-128
-4.63532e-128
-3.40053e-128
2.61996e-127
-1.00731e-127
-1.16761e-126
1.63694e-126
4.00033e-126
-1.16247e-125
-7.98861e-126
6.21735e-125
-1.93959e-125
-2.72244e-124
3.30979e-124
9.66356e-124
-2.3461e-123
-2.4266e-123
1.26543e-122
6.14583e-124
-5.72708e-122
4.247e-122
2.2127e-121
-3.56319e-121
-7.0473e-121
2.07579e-120
1.56068e-120
-1.00826e-119
3.24504e-121
4.29071e-119
-3.02315e-119
-1.61677e-118
2.31958e-118
5.29992e-118
-1.29657e-117
-1.40584e-117
6.18805e-117
2.14164e-117
-2.64868e-116
6.1898e-117
1.03596e-115
-8.06469e-116
-3.71758e-115
5.12254e-115
1.21349e-114
-2.61391e-114
-3.4983e-114
1.18291e-113
8.15233e-114
-4.92811e-113
-9.84558e-114
1.92411e-112
-4.20708e-113
-7.1065e-112
4.36305e-112
2.49441e-111
-2.54704e-111
-8.33106e-111
1.22938e-110
2.64212e-110
-5.35289e-110
-7.90517e-110
2.17721e-109
2.2e-109
-8.42174e-109
-5.51942e-109
3.13144e-108
1.14894e-108
-1.12725e-107
-1.36769e-108
3.94882e-107
-3.74996e-108
-1.35152e-106
3.92077e-107
4.53432e-106
-2.12608e-106
-1.49544e-105
9.47959e-106
4.86074e-105
-3.82089e-105
-1.56075e-104
1.44373e-104
4.96149e-104
-5.20623e-104
-1.56469e-103
1.8099e-103
4.90442e-103
-6.10313e-103
-1.53037e-102
2.00399e-102
4.76018e-102
-6.4228e-102
-1.47733e-101
2.01192e-101
4.57692e-101
-6.16229e-101
-1.41554e-100
1.84479e-100
4.36848e-100
-5.391e-100
-1.34404e-99
1.53419e-99
4.11735e-99
-4.2355e-99
-1.25391e-98
1.12737e-98
3.78941e-98
-2.86389e-98
-1.13415e-97
6.81877e-98
3.35452e-97
-1.46636e-97
-9.7826e-97
2.5836e-97
2.80577e-96
-2.28818e-97
-7.89244e-96
-8.88439e-97
2.17029e-95
6.99343e-96
-5.81094e-95
-3.22061e-95
1.50717e-94
1.23582e-94
-3.75969e-94
-4.28351e-94
8.92311e-94
1.38293e-93
-1.97848e-93
-4.21716e-93
3.95408e-93
1.22246e-92
-6.50565e-93
-3.37535e-92
5.81692e-93
8.86578e-92
1.52685e-92
-2.20486e-91
-1.16974e-91
5.14234e-91
4.84138e-91
-1.10432e-90
-1.63082e-90
2.10076e-90
4.86648e-90
-3.18928e-90
-1.32357e-89
2.20684e-90
3.30766e-89
9.05922e-90
-7.56052e-89
-5.5694e-89
1.54994e-88
2.04213e-88
-2.70594e-88
-6.1045e-88
3.38836e-88
1.59283e-87
6.48077e-90
-3.68668e-87
-1.90594e-87
7.47833e-87
8.29993e-87
-1.26064e-86
-2.56458e-86
1.44386e-86
6.57069e-86
4.53029e-87
-1.44048e-85
-9.28963e-86
2.64761e-85
3.60611e-85
-3.66495e-85
-1.00913e-84
1.83497e-85
2.30152e-84
1.03632e-84
-4.29935e-84
-4.95475e-84
5.99171e-84
1.44235e-83
-3.22436e-84
-3.25565e-83
-1.50193e-83
5.79722e-83
7.08829e-83
-7.15055e-83
-1.96369e-82
9.35768e-84
4.09658e-82
2.74097e-82
-6.36362e-82
-1.02004e-81
5.36018e-82
2.45189e-81
7.60344e-82
-4.32644e-81
-4.80998e-81
4.88779e-81
1.32953e-80
7.62992e-82
-2.54882e-80
-2.17416e-80
3.22401e-80
6.8239e-80
-6.81333e-81
-1.37117e-79
-1.00314e-79
1.78818e-79
3.41539e-79
-5.07602e-80
-6.90234e-79
-4.97429e-79
8.67788e-79
1.68978e-78
-1.36453e-79
-3.26809e-78
-2.66144e-78
3.65612e-78
8.21673e-78
7.6647e-79
-1.4354e-77
-1.46665e-77
1.24886e-77
3.83285e-77
1.35666e-77
-5.62632e-77
-7.82214e-77
2.55719e-77
1.64654e-76
1.15102e-76
-1.79612e-76
-3.81625e-76
-6.23862e-77
6.10099e-76
7.24768e-76
-3.33906e-76
-1.60782e-75
-1.07013e-75
1.68878e-75
3.61288e-75
8.61767e-76
-5.32497e-75
-7.12686e-75
1.54077e-75
1.38565e-74
1.23229e-74
-1.02345e-74
-3.21287e-74
-1.7937e-74
3.45532e-74
6.86954e-74
1.8579e-74
-9.46074e-74
-1.38157e-73
1.27294e-75
2.32295e-73
2.65052e-73
-8.00357e-74
-5.33339e-73
-4.91013e-73
3.05226e-73
1.17193e-72
8.89747e-73
-8.65749e-73
-2.50227e-72
-1.60209e-72
2.15316e-72
5.24816e-72
2.92376e-72
-4.95044e-72
-1.0897e-71
-5.5306e-72
1.07642e-71
2.25159e-71
1.10552e-71
-2.23552e-71
-4.64182e-71
-2.35363e-71
4.44273e-71
9.54833e-71
5.29638e-71
-8.40259e-71
-1.95496e-70
-1.23655e-70
1.48897e-70
3.96457e-70
2.93247e-70
-2.3847e-70
-7.90518e-70
-6.93618e-70
3.13237e-70
1.53393e-69
1.61344e-69
-2.08354e-70
-2.85384e-69
-3.65005e-69
-5.8277e-70
4.97204e-69
7.94964e-69
3.39766e-69
-7.75612e-69
-1.64794e-68
-1.13948e-68
9.64648e-69
3.20031e-68
3.12826e-68
-4.93473e-69
-5.66937e-68
-7.56367e-68
-2.21535e-68
8.66559e-68
1.64025e-67
1.08272e-67
-9.66328e-68
-3.16526e-67
-3.25859e-67
5.44638e-69
5.22863e-67
7.90534e-67
3.86959e-67
-6.52676e-67
-1.61945e-66
-1.48005e-66
2.55066e-67
2.73614e-66
3.88384e-66
1.78277e-66
-3.32503e-66
-8.08054e-66
-7.57702e-66
7.02099e-67
1.31044e-65
1.99084e-65
1.13046e-65
-1.32534e-65
-3.9358e-65
-4.29631e-65
-7.69413e-66
5.5479e-65
1.03182e-64
8.18103e-65
-2.86004e-65
-1.77099e-64
-2.48643e-64
-1.32952e-64
1.72732e-64
5.0051e-64
5.66398e-64
1.58748e-64
-6.32399e-64
-1.32419e-63
-1.24396e-63
-1.18038e-65
1.96109e-63
3.37963e-63
2.68178e-63
-7.68435e-64
-5.60647e-63
-8.48708e-63
-5.79101e-63
3.47214e-63
1.53202e-62
2.12741e-62
1.28389e-62
-1.14536e-62
-4.07727e-62
-5.37843e-62
-3.00387e-62
3.28445e-62
1.06748e-61
1.38034e-61
7.58203e-62
-8.56624e-62
-2.76115e-61
-3.60456e-61
-2.07609e-61
2.04026e-61
7.05303e-61
9.55975e-61
6.0802e-61
-4.29887e-61
-1.7703e-60
-2.56044e-60
-1.85697e-60
7.11008e-61
4.32086e-60
6.86503e-60
5.76515e-60
-3.83494e-61
-1.0065e-59
-1.82145e-59
-1.78229e-59
-3.91367e-60
2.15937e-59
4.71229e-59
5.40005e-59
2.56446e-59
-3.92465e-59
-1.1649e-58
-1.58172e-58
-1.12222e-58
4.33071e-59
2.66391e-58
4.41388e-58
4.14701e-58
7.83153e-59
-5.27399e-58
-1.15024e-57
-1.36887e-57
-7.76678e-58
7.32143e-58
2.70459e-57
4.08854e-57
3.5688e-57
2.84992e-58
-5.3109e-57
-1.09365e-56
-1.28471e-56
-7.38964e-57
6.53975e-57
2.5175e-56
3.92733e-56
3.66655e-56
8.2771e-57
-4.40781e-56
-1.01978e-55
-1.31641e-55
-9.56731e-56
2.55362e-56
2.10136e-55
3.82143e-55
4.2448e-55
2.25721e-55
-2.47092e-55
-8.7782e-55
-1.37713e-54
-1.34879e-54
-4.63117e-55
1.29949e-54
3.43656e-54
4.88985e-54
4.32242e-54
7.39343e-55
-5.69648e-54
-1.3009e-53
-1.73996e-53
-1.4301e-53
-5.59228e-55
2.27961e-53
4.84157e-53
6.27581e-53
4.98623e-53
-1.04385e-54
-8.59465e-53
-1.786e-52
-2.30813e-52
-1.85291e-52
-2.00481e-54
3.07843e-52
6.5412e-52
8.657e-52
7.31831e-52
9.2579e-53
-1.03897e-51
-2.3684e-51
-3.2932e-51
-3.02539e-51
-8.95693e-52
3.20434e-51
8.38689e-51
1.25747e-50
1.28117e-50
6.24719e-51
-8.27909e-51
-2.84789e-50
-4.74869e-50
-5.43625e-50
-3.70473e-50
1.21105e-50
8.93838e-50
1.7384e-49
2.26385e-49
1.97421e-49
4.50182e-50
-2.38476e-49
-5.99051e-49
-9.05999e-49
-9.65e-49
-5.71807e-49
3.92542e-49
1.84368e-48
3.39528e-48
4.34112e-48
3.78099e-48
9.27573e-49
-4.43081e-48
-1.14273e-47
-1.77861e-47
-1.99402e-47
-1.38458e-47
3.41294e-48
3.14446e-47
6.4422e-47
9.00346e-47
9.07489e-47
4.83817e-47
-4.78442e-47
-1.91062e-46
-3.47523e-46
-4.53253e-46
-4.22213e-46
-1.70211e-46
3.45265e-46
1.07615e-45
1.84138e-45
2.31438e-45
2.06676e-45
6.88187e-46
-2.01734e-45
-5.79129e-45
-9.71093e-45
-1.21225e-44
-1.08464e-44
-3.75683e-45
1.02511e-44
3.00474e-44
5.11523e-44
6.52613e-44
6.10661e-44
2.69362e-44
-4.43474e-44
-1.49336e-43
-2.67663e-43
-3.58398e-43
-3.62361e-43
-2.13677e-43
1.37603e-43
6.93166e-43
1.37064e-42
1.97639e-42
2.20392e-42
1.67708e-42
5.24501e-44
-2.81724e-42
-6.68003e-42
-1.06939e-41
-1.33322e-41
-1.24916e-41
-5.90656e-42
8.0715e-42
2.93684e-41
5.49475e-41
7.78165e-41
8.68388e-41
6.80065e-41
7.74539e-42
-1.01523e-40
-2.54024e-40
-4.22946e-40
-5.55051e-40
-5.71285e-40
-3.77513e-40
1.11211e-40
9.31882e-40
2.02396e-39
3.17913e-39
4.0083e-39
3.9503e-39
2.34984e-39
-1.3726e-39
-7.45212e-39
-1.54355e-38
-2.38287e-38
-2.9854e-38
-2.94835e-38
-1.79414e-38
9.15579e-39
5.39448e-38
1.13864e-37
1.79005e-37
2.30041e-37
2.37858e-37
1.66286e-37
-2.06937e-38
-3.46389e-37
-8.03714e-37
-1.33452e-36
-1.81063e-36
-2.02412e-36
-1.69699e-36
-5.21593e-37
1.75863e-36
5.22424e-36
9.6184e-36
1.41741e-35
1.74771e-35
1.7436e-35
1.14489e-35
-3.13835e-36
-2.82085e-35
-6.367e-35
-1.05967e-34
-1.46558e-34
-1.70802e-34
-1.57934e-34
-8.29192e-35
7.89162e-35
3.43843e-34
7.08125e-34
1.13369e-33
1.53341e-33
1.75997e-33
1.60476e-33
8.14226e-34
-8.67378e-34
-3.62181e-33
-7.4441e-33
-1.19987e-32
-1.64625e-32
-1.9392e-32
-1.86689e-32
-1.16028e-32
4.71923e-33
3.27492e-32
7.33973e-32
1.24559e-31
1.79362e-31
2.24421e-31
2.38583e-31
1.92907e-31
5.28135e-32
-2.16491e-31
-6.40318e-31
-1.21988e-30
-1.91294e-30
-2.61139e-30
-3.11935e-30
-3.13827e-30
-2.26825e-30
-3.80258e-32
4.02245e-30
1.02527e-29
1.8666e-29
2.8687e-29
3.88396e-29
4.64272e-29
4.7283e-29
3.57082e-29
4.7616e-30
-5.29005e-29
-1.43418e-28
-2.69164e-28
-4.25119e-28
-5.94274e-28
-7.42426e-28
-8.13222e-28
-7.24828e-28
-3.70357e-28
3.75137e-28
1.63763e-27
3.51333e-27
6.02075e-27
9.03373e-27
1.21964e-26
1.48261e-26
1.58184e-26
1.35767e-26
6.00454e-27
-9.38992e-27
-3.52125e-26
-7.36499e-26
-1.25609e-25
-1.89467e-25
-2.5941e-25
-3.23416e-25
-3.61038e-25
-3.4136e-25
-2.2169e-25
5.21214e-26
5.42519e-25
1.31268e-24
2.41269e-24
3.85759e-24
5.5954e-24
7.4644e-24
9.13967e-24
1.00731e-23
9.43148e-24
6.05082e-24
-1.58477e-24
-1.52864e-23
-3.70306e-23
-6.86349e-23
-1.11261e-22
-1.64687e-22
-2.25848e-22
-2.88465e-22
-3.38065e-22
-3.57284e-22
-3.07524e-22
-1.57361e-22
1.66448e-22
7.28681e-22
1.55228e-21
2.97675e-21
4.26643e-21
7.46922e-21
8.10616e-21
1.42445e-20
1.323e-20
)
;

boundaryField
{
    sides
    {
        type            zeroGradient;
    }
    empty
    {
        type            empty;
    }
}


// ************************************************************************* //
