/*--------------------------------*- C++ -*----------------------------------*\
  =========                 |
  \\      /  F ield         | OpenFOAM: The Open Source CFD Toolbox
   \\    /   O peration     | Website:  https://openfoam.org
    \\  /    A nd           | Version:  7
     \\/     M anipulation  |
\*---------------------------------------------------------------------------*/
FoamFile
{
    version     2.0;
    format      ascii;
    class       volScalarField;
    location    "4";
    object      p;
}
// * * * * * * * * * * * * * * * * * * * * * * * * * * * * * * * * * * * * * //

dimensions      [0 2 -2 0 0 0 0];

internalField   nonuniform List<scalar> 
16000
(
4.0637244e-06
-0.00011333454
-0.0003561555
-0.0006629236
-0.0009659192
-0.0012336858
-0.0014413306
-0.0015740081
-0.0016237525
-0.0015867204
-0.0014615285
-0.0012482698
-0.00094797809
-0.00056249098
-9.4565787e-05
0.00045183509
0.0010711391
0.0017557365
0.0024956056
0.0032780375
0.0040875212
0.0049058606
0.005712526
0.0064853116
0.0072012457
0.0078377486
0.0083739767
0.0087922605
0.0090795231
0.0092285566
0.0092390452
0.0091182422
0.0088812808
0.0085511437
0.008158311
0.0077396695
0.0073390489
0.0070041698
0.0067913192
0.0067370195
0.0001327322
1.0082142e-05
-0.0001835506
-0.00041285369
-0.00064084407
-0.00084051976
-0.00099242734
-0.0010837448
-0.0011065293
-0.0010562058
-0.00093046426
-0.00072854588
-0.00045081645
-9.8618064e-05
0.00032566671
0.00081841541
0.0013744825
0.00198689
0.00264655
0.0033420699
0.0040596912
0.004783491
0.00549559
0.0061768436
0.0068076035
0.0073687238
0.0078427191
0.0082149904
0.008475021
0.0086174355
0.0086428237
0.0085582352
0.0083773177
0.0081200774
0.0078122958
0.0074846916
0.0071716891
0.0069068153
0.0067336381
0.0066821237
0.0003857917
0.00020470545
6.3205174e-06
-0.00019893985
-0.00039420727
-0.00055963071
-0.00068071716
-0.00074773473
-0.00075425318
-0.00069628305
-0.00057159654
-0.00037923399
-0.00011922064
0.00020751074
0.0005990483
0.0010523165
0.0015628174
0.0021243535
0.0027287825
0.0033658478
0.0040231364
0.0046861841
0.0053387907
0.0059635518
0.0065425924
0.0070584967
0.0074953809
0.0078400318
0.0080830131
0.0082196345
0.0082506778
0.0081827873
0.0080284837
0.0078057707
0.0075373553
0.0072495715
0.0069709569
0.0067302192
0.0065569085
0.0064733793
0.00071032706
0.0004369717
0.00020285152
-7.8291543e-06
-0.00019587543
-0.00034777314
-0.00045373368
-0.00050764443
-0.00050537174
-0.00044423441
-0.00032265056
-0.0001398468
0.00010429265
0.00040921153
0.00077354957
0.0011949208
0.0016696351
0.0021924057
0.0027560847
0.0033514702
0.0039672365
0.0045899845
0.0052045428
0.0057944405
0.0063426066
0.0068322722
0.0072480263
0.0075769476
0.0078097007
0.0079415023
0.0079728196
0.0079097144
0.0077637715
0.0075515856
0.0072938115
0.0070139103
0.0067369917
0.0064881918
0.0062867221
0.006142644
0.0010390567
0.00066837063
0.0003861943
0.00015634118
-3.7487996e-05
-0.00018714504
-0.00028718844
-0.0003351491
-0.00032939595
-0.00026881801
-0.00015270699
1.9371103e-05
0.00024759997
0.00053180258
0.00087123591
0.0012643103
0.0017082634
0.0021988225
0.0027298908
0.0032933003
0.003878684
0.0044735048
0.005063251
0.0056319049
0.0061626078
0.0066385606
0.0070440988
0.0073658621
0.007593945
0.0077229068
0.007752501
0.0076880196
0.0075401766
0.007324503
0.0070602428
0.006768964
0.006473742
0.006197496
0.0059505704
0.005729516
0.0013381567
0.00086704197
0.00053025096
0.00027260859
6.3979992e-05
-9.1944628e-05
-0.00019357511
-0.00024186477
-0.00023763693
-0.00018138695
-7.3341669e-05
8.6547084e-05
0.00029851977
0.00056280838
0.000879354
0.0012474539
0.0016653696
0.0021299236
0.0026361172
0.0031768064
0.0037424906
0.0043212917
0.0048990662
0.0054598472
0.0059864741
0.0064615084
0.0068683673
0.0071925636
0.0074229608
0.0075528826
0.0075809342
0.0075114005
0.0073541364
0.0071239108
0.0068391731
0.0065205512
0.0061904113
0.0058710584
0.0055655581
0.0052584968
0.0015745319
0.001004836
0.00061095141
0.0003205048
9.1098659e-05
-7.7283279e-05
-0.00018641252
-0.00024034616
-0.00024218328
-0.00019393232
-9.6704498e-05
4.9201431e-05
0.00024412911
0.00048878223
0.00078386668
0.0011296609
0.0015255487
0.0019695388
0.0024578013
0.0029842382
0.0035401476
0.0041141853
0.0046923597
0.005258447
0.0057945379
0.0062820123
0.0067027354
0.0070404134
0.0072819887
0.0074189136
0.0074481286
0.0073725825
0.007201194
0.0069481964
0.0066318089
0.006272637
0.0058936074
0.0055179918
0.0051434544
0.0047445681
0.0017213801
0.0010571956
0.00060634477
0.00028079775
2.7125078e-05
-0.00015785919
-0.00027888418
-0.00034278573
-0.00035470536
-0.00031799942
-0.00023453989
-0.00010487127
7.1546023e-05
0.00029598232
0.00057001091
0.00089500403
0.0012715881
0.0016990824
0.0021749397
0.0026941577
0.0032488198
0.0038283461
0.0044185341
0.0050027172
0.0055619158
0.0060758428
0.0065242145
0.0068882358
0.0071521812
0.0073048971
0.007341014
0.0072616741
0.0070746439
0.0067937281
0.0064373833
0.0060270269
0.0055873271
0.0051439961
0.0046909133
0.004194026
0.0017561185
0.0010022225
0.00049591415
0.00013466231
-0.00014512205
-0.00034944788
-0.00048569634
-0.00056319552
-0.00058889341
-0.0005673035
-0.00050090121
-0.00039034236
-0.0002347692
-3.2224064e-05
0.00021986064
0.0005240911
0.00088249319
0.0012958619
0.0017630841
0.0022803819
0.0028406273
0.0034349673
0.0040480942
0.0046629522
0.0052592912
0.0058147628
0.006306353
0.0067120265
0.0070125419
0.0071932515
0.0072456393
0.0071683642
0.0069676308
0.0066567561
0.0062547727
0.0057846483
0.0052739044
0.0047520901
0.0042105363
0.0036073642
0.0016585695
0.00081991751
0.00026038775
-0.00013618969
-0.00044293444
-0.0006684778
-0.00082263668
-0.00091699813
-0.00096010661
-0.00095744892
-0.00091194254
-0.00082421051
-0.00069294181
-0.00051535471
-0.00028773782
-6.0774119e-06
0.00033325529
0.00073275136
0.0011929814
0.0017119428
0.0022844987
0.002899802
0.0035455092
0.0042033207
0.0048513404
0.0054648249
0.0060174655
0.0064831879
0.0068382485
0.0070634064
0.0071459005
0.0070809432
0.0068724904
0.0065330769
0.0060824745
0.0055458246
0.0049545659
0.0043434541
0.0037021218
0.0029810115
0.0014101074
0.00049173985
-0.00011836939
-0.00054934026
-0.00088333827
-0.0011315159
-0.0013059833
-0.0014204086
-0.0014847615
-0.001505345
-0.0014853744
-0.0014253053
-0.001323241
-0.0011754343
-0.0009768647
-0.00072191044
-0.00040509183
-2.1904524e-05
0.00043027864
0.00095136857
0.0015377264
0.0021808493
0.0028678452
0.0035802811
0.004294899
0.0049843366
0.0056184576
0.0061663012
0.0065984777
0.0068897931
0.0070217983
0.0069849081
0.0067797556
0.0064174623
0.0059184502
0.0053105068
0.0046300163
0.0039183453
0.0031639448
0.0023091038
0.0009932785
3.8635724e-07
-0.00065741485
-0.0011215619
-0.001482856
-0.0017549312
-0.0019521038
-0.0020899964
-0.002179878
-0.0022287486
-0.0022400099
-0.0022138408
-0.0021476444
-0.0020365743
-0.0018741316
-0.0016528628
-0.0013651436
-0.0010040722
-0.00056446939
-4.3924143e-05
0.00055616538
0.0012294509
0.0019639539
0.0027414366
0.0035374962
0.0043220939
0.0050608359
0.0057170096
0.0062542792
0.006639837
0.0068476764
0.0068615519
0.0066771682
0.0063031217
0.0057600278
0.0050785762
0.0043010902
0.0034770486
0.0025939892
0.0015850294
0.00039168647
-0.00067027033
-0.0013726925
-0.0018686774
-0.0022572632
-0.0025545597
-0.002777045
-0.0029422136
-0.003062555
-0.0031456946
-0.0031951521
-0.0032107615
-0.003189145
-0.0031242482
-0.0030079357
-0.0028306918
-0.0025824208
-0.0022533796
-0.0018352701
-0.0013224381
-0.00071317009
-1.1033067e-05
0.00077405718
0.0016248166
0.0025162624
0.0034159233
0.0042849167
0.0050799736
0.0057563975
0.0062717972
0.0065902404
0.0066863119
0.0065484697
0.0061809971
0.0056037059
0.0048501136
0.0039694103
0.0030208417
0.00199115
0.00080281768
-0.00040990877
-0.001535095
-0.0022789008
-0.0028053566
-0.0032212995
-0.0035453267
-0.0037960638
-0.0039928367
-0.0041493246
-0.0042737592
-0.0043697655
-0.0044368185
-0.00447073
-0.0044641718
-0.0044072468
-0.00428816
-0.0040940035
-0.0038117064
-0.0034291855
-0.0029366942
-0.0023283485
-0.0016037745
-0.00076956392
0.00015910482
0.0011576885
0.002191938
0.0032185824
0.0041871831
0.0050432579
0.0057325949
0.0062064282
0.0064268878
0.0063719437
0.0060388461
0.0054448159
0.004625605
0.0036380494
0.0025529991
0.0013564667
-4.1499909e-05
-0.0014253534
-0.0026074972
-0.0033892941
-0.0039448667
-0.0043883439
-0.004740827
-0.0050231006
-0.0052563205
-0.0054553759
-0.0056291464
-0.0057814154
-0.0059113528
-0.0060139978
-0.0060807467
-0.0060998703
-0.006057119
-0.0059364488
-0.0057209506
-0.005394032
-0.0049408775
-0.0043501997
-0.0036162371
-0.0027405946
-0.0017347539
-0.00062126766
0.00056503914
0.0017771177
0.0029571351
0.0040395636
0.0049559898
0.005641395
0.0060412988
0.0061187998
0.0058601497
0.005277056
0.0044061002
0.0033122243
0.0020798858
0.00069446924
-0.00094843161
-0.0026667724
-0.0038991803
-0.0047154437
-0.0052987935
-0.0057700623
-0.0061528696
-0.0064701937
-0.0067450603
-0.0069936476
-0.0072255928
-0.007444967
-0.0076507707
-0.0078373925
-0.0079950363
-0.0081101508
-0.0081659238
-0.0081429095
-0.0080198771
-0.0077749761
-0.0073872703
-0.0068386614
-0.0061162005
-0.0052149261
-0.0041400753
-0.0029101521
-0.001558687
-0.00013517808
0.0012955643
0.0026561449
0.0038616592
0.0048270496
0.0054761906
0.005751596
0.0056229543
0.0050919575
0.004193369
0.003000079
0.0016122176
1.4735988e-05
-0.0019133372
-0.0041441965
-0.0054198781
-0.0062669997
-0.0068767718
-0.0073760602
-0.0077910115
-0.0081468603
-0.0084685922
-0.0087738206
-0.0090731295
-0.0093710933
-0.0096667719
-0.0099541228
-0.010222342
-0.01045617
-0.01063623
-0.010739499
-0.010740017
-0.010609975
-0.010321257
-0.0098475168
-0.009166826
-0.0082649471
-0.0071386464
-0.0057994917
-0.0042769879
-0.0026208256
-0.00090143487
0.0007919005
0.0023559647
0.0036818145
0.0046659144
0.0052230616
0.0052988775
0.0048784187
0.0039901465
0.0027136404
0.0011665875
-0.00066621023
-0.0029243587
-0.0058652052
-0.0071771284
-0.0080515023
-0.008686265
-0.0092135743
-0.0096621121
-0.010059472
-0.010432755
-0.010801239
-0.011176732
-0.011564626
-0.011964369
-0.012369818
-0.012769458
-0.013146555
-0.013479293
-0.013741028
-0.013900797
-0.013924245
-0.013775101
-0.013417332
-0.012818071
-0.011951335
-0.010802363
-0.0093723885
-0.0076833279
-0.0057817233
-0.0037410294
-0.0016612087
0.00033537992
0.0021125168
0.0035331423
0.0044759039
0.0048526733
0.0046225579
0.0038006298
0.0024700754
0.00076738664
-0.0013225254
-0.003959804
-0.0078346463
-0.0091761436
-0.0100743
-0.010732447
-0.011287253
-0.011769956
-0.012210672
-0.01263887
-0.013075818
-0.01353494
-0.014022861
-0.014539852
-0.015080104
-0.01563181
-0.016177121
-0.016692051
-0.017146451
-0.017504254
-0.017724159
-0.017760947
-0.017567612
-0.01709847
-0.016313301
-0.015182573
-0.013693302
-0.011855476
-0.0097080143
-0.0073233406
-0.0048092235
-0.0023063846
1.9479213e-05
0.0019920114
0.0034444134
0.004242953
0.0043082763
0.0036314731
0.0022934256
0.00044927981
-0.0019160182
-0.0049847975
-0.01005449
-0.011419848
-0.012338645
-0.013018249
-0.013599083
-0.014114996
-0.014598898
-0.015083001
-0.015591034
-0.016138545
-0.016733926
-0.017378817
-0.018068277
-0.018790727
-0.019527686
-0.020253398
-0.020934496
-0.02152991
-0.021991231
-0.02226377
-0.022288553
-0.022005473
-0.02135776
-0.020297923
-0.018794709
-0.016841284
-0.014463465
-0.011727067
-0.0087428041
-0.0056667379
-0.002694151
-4.5105706e-05
0.0020588768
0.0034248664
0.0039190939
0.0034936436
0.0022170602
0.00026042846
-0.0023922867
-0.0059469966
-0.012523894
-0.01390916
-0.014846033
-0.015544642
-0.016148517
-0.016694272
-0.017218039
-0.017755347
-0.018333034
-0.018969439
-0.019675377
-0.020454497
-0.021303349
-0.02221118
-0.023159443
-0.024121128
-0.025060082
-0.025930532
-0.02667706
-0.027235316
-0.027533758
-0.027496715
-0.027049
-0.026122232
-0.024663164
-0.022643059
-0.020068504
-0.016991806
-0.013519699
-0.0098178356
-0.006108175
-0.0026562387
0.00025385791
0.0023557009
0.0034419853
0.0034056174
0.0022871553
0.00026669032
-0.0026758117
-0.006771175
-0.015239567
-0.016643625
-0.017596896
-0.018311231
-0.018932884
-0.01950156
-0.020057307
-0.020639836
-0.021279983
-0.021999739
-0.022813135
-0.023726552
-0.024738707
-0.025840307
-0.027013342
-0.028230119
-0.029452224
-0.030629636
-0.031700269
-0.032590262
-0.033215363
-0.033483751
-0.033300547
-0.032574375
-0.03122702
-0.029202902
-0.026483215
-0.023099087
-0.019144577
-0.014786351
-0.010266397
-0.0058934351
-0.0020188252
0.0010043476
0.0028740471
0.0033985141
0.0025675819
0.00055706059
-0.0026637846
-0.0073524691
-0.01819654
-0.019622505
-0.020591749
-0.021317254
-0.021948109
-0.022527767
-0.023101314
-0.02371392
-0.024401658
-0.02519126
-0.026100911
-0.027140517
-0.028311644
-0.029607067
-0.031009876
-0.032492241
-0.034014024
-0.035521486
-0.036946378
-0.03820577
-0.039202992
-0.039830092
-0.039972032
-0.039513109
-0.038348856
-0.036392203
-0.03359359
-0.029955349
-0.025549167
-0.02053173
-0.015154475
-0.0097619632
-0.0047722516
-0.00063470633
0.00223278
0.0035238187
0.0031466377
0.0012506479
-0.0022184388
-0.0075481099
-0.021389467
-0.022846505
-0.023832928
-0.024563064
-0.025189808
-0.025761605
-0.02633036
-0.026948598
-0.02765932
-0.028495385
-0.029480208
-0.030628045
-0.03194394
-0.033423237
-0.035050562
-0.03679836
-0.038625206
-0.040474129
-0.042271274
-0.043925264
-0.045327651
-0.046354922
-0.046872566
-0.046741572
-0.045825677
-0.044008573
-0.041204797
-0.037380979
-0.032576852
-0.02692677
-0.020677697
-0.014197211
-0.0079626672
-0.0025229118
0.0015704741
0.0038642796
0.0041460818
0.0025055099
-0.0011576266
-0.0071674634
-0.024814679
-0.026320361
-0.027327127
-0.028052215
-0.028654772
-0.029190485
-0.029720881
-0.030308601
-0.031005857
-0.031853355
-0.032880945
-0.034108021
-0.035543599
-0.03718589
-0.039021243
-0.041022548
-0.043147297
-0.045335594
-0.047508435
-0.049566627
-0.051390774
-0.052842794
-0.053769488
-0.05400846
-0.053396143
-0.051782429
-0.049044698
-0.045109458
-0.039976397
-0.033745451
-0.026643324
-0.019043083
-0.011466432
-0.0045559491
0.00099250011
0.0045483092
0.0057328818
0.0045296908
0.00075666045
-0.005960181
-0.028473275
-0.030056664
-0.031089001
-0.031794281
-0.032342863
-0.032801596
-0.03324596
-0.033752651
-0.034386105
-0.035196934
-0.036222685
-0.037488544
-0.03900773
-0.040781284
-0.042797109
-0.045028328
-0.047431201
-0.049942897
-0.052479454
-0.054934334
-0.057177987
-0.05905891
-0.060406654
-0.06103704
-0.060760141
-0.059394469
-0.056779432
-0.052799409
-0.047408703
-0.040662848
-0.032752866
-0.024037088
-0.015059904
-0.0065415756
0.00067821405
0.0057676658
0.0081339328
0.007594836
0.0038322553
-0.0036021332
-0.032375846
-0.034081524
-0.03514625
-0.035808586
-0.036259288
-0.036583016
-0.036875739
-0.037233668
-0.037737277
-0.038449398
-0.039416439
-0.040669718
-0.042226451
-0.044089994
-0.046249123
-0.048676494
-0.051326513
-0.054132958
-0.057006714
-0.059834029
-0.062475738
-0.064767891
-0.066524251
-0.067540752
-0.067602643
-0.066502118
-0.064040026
-0.060059699
-0.054468221
-0.047270409
-0.038609005
-0.028807688
-0.018407742
-0.0081814425
0.00090175759
0.0077973517
0.011653688
0.012052802
0.008463953
0.0003215306
-0.036549811
-0.038443085
-0.039546864
-0.040129068
-0.040417195
-0.040524676
-0.040577531
-0.04069875
-0.040989375
-0.041526772
-0.042366964
-0.043547138
-0.045087638
-0.046992933
-0.049251356
-0.051833792
-0.054691609
-0.057754221
-0.060926679
-0.064087703
-0.067088636
-0.069753692
-0.071882009
-0.073252249
-0.073630037
-0.07277246
-0.070456479
-0.066484615
-0.060717368
-0.053106831
-0.043739618
-0.032888391
-0.021065351
-0.0090625274
0.0020484589
0.011015444
0.016694189
0.018355809
0.015155062
0.0063376795
-0.041051293
-0.043224627
-0.044369516
-0.044810563
-0.044840448
-0.04461887
-0.044315353
-0.04408875
-0.044065494
-0.044339245
-0.044975465
-0.046015918
-0.047482215
-0.049377847
-0.051688603
-0.054381609
-0.057403411
-0.060677541
-0.064102031
-0.067547266
-0.070854727
-0.073836927
-0.076279095
-0.07794317
-0.078574376
-0.077909404
-0.07569296
-0.071693438
-0.06572913
-0.05770132
-0.047638059
-0.035750591
-0.02250006
-0.0086642804
0.0046210196
0.015918981
0.023776224
0.027080897
0.024545661
0.015114215
-0.045985209
-0.048565252
-0.049738605
-0.04993677
-0.049566221
-0.048859841
-0.048048493
-0.047337188
-0.04688186
-0.046792656
-0.047142558
-0.047975003
-0.049309624
-0.051145723
-0.05346354
-0.056223745
-0.05936568
-0.062804979
-0.066431125
-0.070104767
-0.073656797
-0.076887634
-0.079568729
-0.081446046
-0.082246078
-0.081684596
-0.079479515
-0.075368448
-0.069131491
-0.060623401
-0.049815642
-0.036854025
-0.022133518
-0.0063871762
0.0092283249
0.023129885
0.033558908
0.03895967
0.037451711
0.027504171
-0.05154089
-0.054693265
-0.055845998
-0.055629832
-0.054646549
-0.053241513
-0.051728404
-0.05036804
-0.049347263
-0.048789728
-0.048771129
-0.049331312
-0.050482885
-0.052216415
-0.05450263
-0.057292357
-0.060514848
-0.06407545
-0.067853596
-0.071697933
-0.075428052
-0.078831462
-0.081665389
-0.083659852
-0.084523145
-0.083950188
-0.081634349
-0.077285325
-0.070647148
-0.061532718
-0.049860579
-0.035711326
-0.019405484
-0.001607145
0.016548884
0.033382304
0.046852529
0.054913971
0.054921603
0.044619799
-0.058058139
-0.061980979
-0.06298183
-0.062060431
-0.060146781
-0.057751471
-0.055292469
-0.053091274
-0.051360971
-0.050230204
-0.049768211
-0.050002797
-0.050932293
-0.05253252
-0.054759813
-0.057551247
-0.060822857
-0.064467286
-0.068350837
-0.072310443
-0.076152131
-0.079649705
-0.082545577
-0.084553369
-0.085362971
-0.08464848
-0.082078203
-0.077333316
-0.070125091
-0.060224397
-0.047498471
-0.031962816
-0.013858384
0.0062408126
0.0272602
0.047479691
0.064615457
0.076096177
0.078319499
0.067965947
-0.066155049
-0.071035314
-0.071575872
-0.069454758
-0.066136513
-0.062357431
-0.058651642
-0.055393743
-0.052807077
-0.051008065
-0.050044231
-0.049918909
-0.050606391
-0.052060333
-0.05421701
-0.056995474
-0.060295492
-0.063994567
-0.067944598
-0.071968762
-0.075859057
-0.079374942
-0.082243533
-0.084161632
-0.084800238
-0.083812052
-0.080838724
-0.075532117
-0.067567106
-0.056669854
-0.042652092
-0.025459419
-0.0052424605
0.017543729
0.041919852
0.066200745
0.087913901
0.10392483
0.1094515
0.099695664
-0.076988609
-0.082845723
-0.082242609
-0.078085407
-0.072661478
-0.066976937
-0.06166463
-0.057119525
-0.053540495
-0.051001906
-0.049506411
-0.049015858
-0.049468099
-0.050786078
-0.052880122
-0.055647207
-0.058968068
-0.062703356
-0.066689614
-0.070735547
-0.074619052
-0.078085317
-0.080846377
-0.082582395
-0.082945324
-0.081565751
-0.078058957
-0.072043151
-0.0631515
-0.051057469
-0.03550535
-0.0163525
0.0063669323
0.032337667
0.060770414
0.090105545
0.11778483
0.14007659
0.15076071
0.14311345
-0.092810915
-0.099016047
-0.095787714
-0.088198614
-0.079657927
-0.071400123
-0.064074992
-0.058021463
-0.053350688
-0.050048008
-0.048038506
-0.047220434
-0.04748129
-0.048704197
-0.050768155
-0.05354505
-0.056895054
-0.060661456
-0.064665616
-0.068702436
-0.072536723
-0.075900658
-0.078492642
-0.079977706
-0.079990466
-0.078141477
-0.074011994
-0.067191717
-0.057264303
-0.043838337
-0.0265714
-0.0052026555
0.020395033
0.050122774
0.083469161
0.11918504
0.15489517
0.18633003
0.20556135
0.20350109
-0.11811603
-0.12210094
-0.11309656
-0.099805973
-0.086752053
-0.075122107
-0.06538176
-0.057666506
-0.051894905
-0.047893797
-0.045467825
-0.044426333
-0.044592225
-0.045801757
-0.047899633
-0.050732117
-0.054139652
-0.057949782
-0.061970765
-0.065986099
-0.069750135
-0.072984893
-0.075378194
-0.076583302
-0.076221611
-0.073889458
-0.069122182
-0.061492999
-0.050530338
-0.035766699
-0.016750474
0.0069373198
0.035651631
0.069617946
0.10877912
0.15249317
0.19900609
0.24411739
0.27802431
0.28888675
-0.16186123
-0.15588645
-0.13490078
-0.11244402
-0.093042979
-0.077182013
-0.06474879
-0.055403431
-0.048704055
-0.044225225
-0.041602021
-0.04053214
-0.040765606
-0.042091051
-0.044321643
-0.047282227
-0.050798178
-0.054685974
-0.058745335
-0.062752801
-0.066456688
-0.069573312
-0.071784534
-0.072736638
-0.07203942
-0.069264137
-0.063976986
-0.055664594
-0.043819454
-0.027899728
-0.0073288812
0.018507975
0.050271051
0.088656413
0.13432447
0.18773285
0.24860509
0.31359419
0.37246273
0.41144713
-0.2440848
-0.20406885
-0.16017186
-0.12413132
-0.096425142
-0.075793734
-0.060871276
-0.050369111
-0.043250612
-0.038748784
-0.036303508
-0.035501022
-0.036028841
-0.037641183
-0.040132424
-0.04331717
-0.047015243
-0.051040163
-0.055190159
-0.059241122
-0.062941146
-0.066006442
-0.068118525
-0.068922796
-0.068027227
-0.06500097
-0.059386714
-0.050659608
-0.038270813
-0.021611439
1.104499e-05
0.027411699
0.061597511
0.10386822
0.1559327
0.22004784
0.29870977
0.39137054
0.49214419
0.59902181
-0.42330838
-0.26346604
-0.17526423
-0.1232803
-0.088475687
-0.06512895
-0.049851371
-0.039980415
-0.033787939
-0.030235404
-0.028664586
-0.028629957
-0.029815862
-0.031985318
-0.034945126
-0.038522346
-0.042548139
-0.046846077
-0.051223331
-0.0554639
-0.059323399
-0.062525142
-0.064757185
-0.065669665
-0.064869325
-0.061947466
-0.056428478
-0.047791311
-0.035469758
-0.018822563
0.002904475
0.030646749
0.065651083
0.10971726
0.16563628
0.23798217
0.33390696
0.46170927
0.63883277
0.91661549
-0.79095374
-0.32201467
-0.14687213
-0.086225119
-0.054612783
-0.036004812
-0.025681129
-0.020144315
-0.017388148
-0.016475968
-0.016933616
-0.01847338
-0.020899521
-0.024064039
-0.027839288
-0.032100943
-0.036717013
-0.04153989
-0.046400108
-0.051101288
-0.055416084
-0.059083057
-0.061804615
-0.063246658
-0.063041302
-0.06075377
-0.055942019
-0.048104568
-0.036685448
-0.021059844
-0.00049810186
0.025901129
0.059343554
0.101619
0.15573944
0.22754907
0.32972751
0.4899047
0.78580484
1.3795454
1.7984757e-05
-0.00010509435
-0.00035110427
-0.00065965542
-0.00096393941
-0.0012325821
-0.0014408221
-0.0015739037
-0.0016239188
-0.0015870613
-0.0014619769
-0.001248776
-0.00094850837
-0.00056302353
-9.5081672e-05
0.00045135179
0.0010706998
0.0017553505
0.0024952818
0.0032777834
0.0040873428
0.0049057624
0.0057125107
0.0064853793
0.0072013927
0.0078379671
0.0083742549
0.0087925832
0.0090798719
0.0092289111
0.0092393838
0.0091185432
0.0088815225
0.0085513052
0.0081583744
0.0077396363
0.0073389201
0.0070039334
0.006790948
0.0067368076
0.00014095942
1.6237277e-05
-0.00017913845
-0.00040969334
-0.0006385808
-0.00083888248
-0.00099122108
-0.001082838
-0.0011058317
-0.0010556498
-0.00093000602
-0.00072815958
-0.00045048797
-9.8342382e-05
0.00032588947
0.00081858221
0.0013745878
0.0019869266
0.0026465098
0.0033419455
0.0040594779
0.0047831861
0.0054951945
0.0061763607
0.0068070386
0.0073680859
0.0078420212
0.0082142496
0.0084742567
0.0086166682
0.0086420743
0.0085575253
0.0083766677
0.0081195043
0.0078118112
0.0074842993
0.0071713862
0.0069065993
0.0067334084
0.0066820572
0.00039108802
0.00020895836
9.6371445e-06
-0.00019653052
-0.00039255421
-0.00055853977
-0.00068003509
-0.00074734729
-0.00075407126
-0.00069623749
-0.00057163865
-0.00037933147
-0.00011935305
0.00020735656
0.00059888176
0.0010521436
0.0015626401
0.0021241719
0.0027285971
0.0033656592
0.004022945
0.0046859907
0.0053385969
0.0059633591
0.0065424011
0.0070583064
0.0074951915
0.0078398433
0.0080828263
0.0082194495
0.0082504931
0.008182601
0.0080282942
0.0078055769
0.0075371561
0.0072493648
0.0069707419
0.0067299968
0.0065566654
0.0064731939
0.00071393789
0.00043977101
0.00020524904
-6.0137112e-06
-0.00019463323
-0.00034696878
-0.00045326112
-0.00050741884
-0.00050531948
-0.00044429743
-0.00032278861
-0.00014003158
0.00010408103
0.00040898678
0.0007733211
0.0011946944
0.0016694135
0.0021921901
0.0027558768
0.0033512721
0.0039670498
0.00458981
0.0052043815
0.0057942937
0.0063424743
0.0068321528
0.0072479175
0.0075768464
0.0078096047
0.0079414082
0.007972723
0.0079096098
0.0077636534
0.0075514495
0.0072936552
0.0070137303
0.0067367804
0.0064879663
0.0062865342
0.0061423682
0.0010415964
0.00067008871
0.00038787446
0.00015769085
-3.6546719e-05
-0.000186515
-0.00028679854
-0.00033494322
-0.00032932269
-0.00026883515
-0.00015278492
1.9253703e-05
0.00024745831
0.00053164682
0.00087107197
0.0012641411
0.0017080899
0.0021986443
0.0027297077
0.0032931133
0.0038784942
0.0044733129
0.0050630575
0.0056317104
0.0061624131
0.0066383668
0.0070439059
0.0073656702
0.007593754
0.0077227165
0.0077523106
0.0076878278
0.0075399813
0.0073243026
0.0070600381
0.0067687508
0.0064735015
0.0061972662
0.0059504567
0.0057291691
0.0013400106
0.00086796261
0.00053137865
0.00027356397
6.4630196e-05
-9.1513521e-05
-0.00019331215
-0.00024173557
-0.0002376068
-0.00018142583
-7.342766e-05
8.6430283e-05
0.00029838399
0.0005626615
0.00087919967
0.0012472934
0.0016652034
0.0021297515
0.0026359384
0.0031766211
0.0037423001
0.0043210971
0.0048988682
0.0054596461
0.0059862705
0.0064613033
0.0068681618
0.0071923587
0.0074227569
0.0075526795
0.0075807311
0.0075111965
0.0073539299
0.0071237009
0.0068389623
0.0065203328
0.0061901547
0.0058708267
0.005565522
0.0052580818
0.0015759397
0.0010051715
0.00061167447
0.00032115725
9.1510794e-05
-7.7022563e-05
-0.00018626435
-0.00024029239
-0.00024220162
-0.00019400182
-9.6808935e-05
4.9074354e-05
0.00024398805
0.00048863308
0.00078371146
0.0011294998
0.0015253818
0.0019693658
0.0024576219
0.0029840525
0.0035399572
0.0041139904
0.0046921615
0.005258246
0.0057943351
0.0062818085
0.0067025319
0.0070402113
0.0072817882
0.0074187144
0.0074479295
0.0073723822
0.0072009902
0.0069479883
0.0066316004
0.0062724192
0.0058933379
0.0055177589
0.0051434949
0.0047440799
0.0017225095
0.0010571011
0.0006067794
0.00028123559
2.7364818e-05
-0.00015772181
-0.00027881738
-0.00034278317
-0.00035475369
-0.00031808414
-0.0002346491
-0.00010499635
7.1410417e-05
0.00029583998
0.00056986259
0.0008948491
0.0012714263
0.0016989134
0.0021747628
0.002693975
0.0032486338
0.0038281515
0.0044183329
0.0050025116
0.0055617069
0.0060756323
0.0065240041
0.0068880266
0.0071519739
0.0073046917
0.0073408095
0.0072614688
0.0070744355
0.006793516
0.0064371727
0.0060268067
0.005587043
0.0051437615
0.0046910308
0.0041934649
0.0017570866
0.0010018142
0.00049615254
0.00013495699
-0.00014500051
-0.00034939543
-0.00048568492
-0.00056322669
-0.00058895936
-0.00056739413
-0.00050100811
-0.0003904602
-0.00023489549
-3.2356853e-05
0.00021972105
0.00052394367
0.00088233791
0.0012956986
0.0017629122
0.0022802039
0.0028404497
0.0034347726
0.0040478891
0.0046627404
0.0052590746
0.0058145437
0.0063061335
0.0067118082
0.0070123257
0.0071930376
0.0072454269
0.0071681519
0.0069674163
0.006656539
0.0062545596
0.0057844254
0.0052736049
0.0047518535
0.0042107335
0.003606727
0.001659456
0.00081928018
0.00026049945
-0.00013598381
-0.0004428896
-0.00066848064
-0.00082266024
-0.00091704893
-0.00096018015
-0.00095753826
-0.00091204232
-0.00082431827
-0.00069305714
-0.00051547677
-0.00028786758
-6.2162391e-06
0.00033310748
0.00073259492
0.0011928153
0.0017117633
0.0022842995
0.0028996004
0.0035453003
0.004203103
0.004851116
0.0054645967
0.0060172363
0.0064829598
0.0068380229
0.0070631835
0.0071456798
0.0070807236
0.0068722697
0.0065328552
0.0060822596
0.0055455996
0.00495425
0.004343215
0.003702405
0.0029802906
0.0014109694
0.0004909363
-0.00011833475
-0.00054918353
-0.00088333911
-0.0011315511
-0.0013060251
-0.0014204667
-0.0014848337
-0.0015054271
-0.0014854636
-0.0014254013
-0.0013233447
-0.0011755451
-0.00097698392
-0.0007220397
-0.00040523107
-2.2053818e-05
0.00043011853
0.00095119423
0.0015375352
0.002180648
0.0028676326
0.0035800575
0.0042946668
0.004984099
0.0056182178
0.006166062
0.006598241
0.0068895596
0.0070215682
0.0069846805
0.0067795284
0.0064172358
0.0059182337
0.0053102796
0.0046296817
0.0039181027
0.0031643241
0.0023082873
0.00099415285
-5.4008321e-07
-0.00065742396
-0.001121427
-0.0014828799
-0.0017549808
-0.0019521502
-0.0020900516
-0.0021799418
-0.0022288192
-0.002240086
-0.0022139233
-0.0021477351
-0.0020366728
-0.0018742391
-0.0016529811
-0.0013652731
-0.0010042132
-0.00056462342
-4.4093046e-05
0.00055598005
0.0012292501
0.0019637379
0.0027412072
0.0035372561
0.0043218463
0.0050605844
0.0057167577
0.0062540295
0.0066395911
0.0068474354
0.0068613154
0.006676934
0.00630289
0.0057598098
0.0050783467
0.0043007336
0.0034768014
0.0025944794
0.0015841013
0.00039259437
-0.00067129055
-0.001372723
-0.0018685461
-0.0022572941
-0.0025546106
-0.0027770856
-0.0029422587
-0.003062606
-0.0031457511
-0.0031952136
-0.0032108295
-0.0031892216
-0.003124333
-0.0030080301
-0.0028307978
-0.0025825395
-0.0022535117
-0.0018354176
-0.0013226033
-0.00071335371
-1.1234515e-05
0.00077383822
0.0016245818
0.0025160144
0.0034156654
0.004284653
0.0050797079
0.0057561333
0.0062715373
0.0065899869
0.0066860653
0.0065482276
0.0061807598
0.0056034867
0.004849882
0.0039690281
0.0030205888
0.0019917707
0.00080175779
-0.00040895606
-0.0015361876
-0.0022789376
-0.0028052168
-0.0032213265
-0.0035453702
-0.0037960927
-0.003992868
-0.004149361
-0.0042738011
-0.0043698127
-0.0044368723
-0.0044707925
-0.004464243
-0.0044073278
-0.0042882537
-0.0040941112
-0.0038118294
-0.003429326
-0.0029368545
-0.0023285293
-0.0016039747
-0.00076978432
0.00015886584
0.0011574334
0.0021916702
0.003218306
0.0041869027
0.0050429778
0.0057323195
0.0062061608
0.0064266297
0.0063716925
0.0060386028
0.0054445962
0.0046253718
0.003637637
0.0025527395
0.0013572429
-4.2715888e-05
-0.0014243517
-0.0026086451
-0.0033893272
-0.0039447106
-0.0043883601
-0.0047408581
-0.0050231147
-0.0052563361
-0.0054553964
-0.0056291727
-0.0057814472
-0.0059113916
-0.0060140455
-0.0060808037
-0.0060999379
-0.0060572001
-0.0059365455
-0.0057210644
-0.005394165
-0.0049410316
-0.0043503758
-0.0036164336
-0.0027408146
-0.0017349954
-0.00062152846
0.00056476203
0.0017768286
0.0029568391
0.0040392665
0.0049556971
0.0056411118
0.0060410276
0.0061185387
0.0058599002
0.0052768368
0.0044058662
0.0033117769
0.0020796185
0.00069543099
-0.00094983274
-0.0026657218
-0.0039003695
-0.0047154674
-0.0052986176
-0.0057700641
-0.0061528861
-0.0064701921
-0.00674506
-0.0069936521
-0.0072256032
-0.0074449831
-0.0076507942
-0.0078374253
-0.0079950793
-0.0081102059
-0.0081659936
-0.0081429961