/*--------------------------------*- C++ -*----------------------------------*\
  =========                 |
  \\      /  F ield         | OpenFOAM: The Open Source CFD Toolbox
   \\    /   O peration     | Website:  https://openfoam.org
    \\  /    A nd           | Version:  7
     \\/     M anipulation  |
\*---------------------------------------------------------------------------*/
FoamFile
{
    version     2.0;
    format      ascii;
    class       surfaceScalarField;
    location    "4";
    object      phi;
}
// * * * * * * * * * * * * * * * * * * * * * * * * * * * * * * * * * * * * * //

dimensions      [0 3 -1 0 0 0 0];

internalField   nonuniform List<scalar> 
45600
(
2.0756043e-07
-2.1072346e-07
-3.6672955e-10
2.5901979e-07
-5.1231696e-08
-2.224684e-10
-2.2899816e-08
2.8205425e-07
-1.3637294e-10
-6.4459104e-07
6.217833e-07
-8.8234294e-11
-1.5698275e-06
9.2528525e-07
-5.3450152e-11
-2.7387256e-06
1.1689254e-06
-2.9795797e-11
-4.0900741e-06
1.351361e-06
-1.373004e-11
-5.5684234e-06
1.4783519e-06
-2.8192153e-12
-7.1255077e-06
1.5570795e-06
4.4887599e-12
-8.719678e-06
1.594158e-06
9.2031846e-12
-1.0314514e-05
1.5948287e-06
1.2108209e-11
-1.1877269e-05
1.5627371e-06
1.3664806e-11
-1.3377321e-05
1.5000353e-06
1.4316465e-11
-1.4784984e-05
1.4076534e-06
1.4377712e-11
-1.6070708e-05
1.2857083e-06
1.392784e-11
-1.7204705e-05
1.1339785e-06
1.3048176e-11
-1.8157095e-05
9.5237902e-07
1.1861549e-11
-1.889854e-05
7.414374e-07
1.0421312e-11
-1.9401302e-05
5.027495e-07
8.7431716e-12
-1.9640678e-05
2.393635e-07
6.8607049e-12
-1.9596743e-05
-4.3940936e-08
4.8152327e-12
-1.9256204e-05
-3.4053823e-07
2.6512989e-12
-1.861434e-05
-6.4186292e-07
4.1250806e-13
-1.7676681e-05
-9.3765911e-07
-1.8293518e-12
-1.6460352e-05
-1.216326e-06
-3.9700732e-12
-1.4994869e-05
-1.4654752e-06
-5.9000913e-12
-1.3322203e-05
-1.6726535e-06
-7.5103611e-12
-1.149601e-05
-1.8261799e-06
-8.7125013e-12
-9.5799657e-06
-1.9160331e-06
-9.4175771e-12
-7.6452482e-06
-1.934708e-06
-9.5707691e-12
-5.7672842e-06
-1.877955e-06
-9.1439153e-12
-4.0219358e-06
-1.7453391e-06
-8.1258016e-12
-2.481336e-06
-1.5405911e-06
-6.525695e-12
-1.2094975e-06
-1.2718325e-06
-4.3592567e-12
-2.5744526e-07
-9.5205052e-07
-1.7131605e-12
3.4332971e-07
-6.0077787e-07
8.9760266e-13
5.889115e-07
-2.4558852e-07
3.4755676e-12
5.1389675e-07
7.5004851e-08
6.3827007e-12
2.3520202e-07
2.7868192e-07
1.0020693e-11
2.3519496e-07
5.351684e-12
5.5950595e-08
-2.6644638e-07
-2.2211838e-10
-3.89671e-07
3.9456782e-07
-1.7851416e-10
-1.5636689e-06
1.4561852e-06
-1.279631e-10
-3.4994625e-06
2.5576677e-06
-9.1657977e-11
-6.1249049e-06
3.5507982e-06
-6.5640387e-11
-9.3279439e-06
4.3720188e-06
-4.7485232e-11
-1.298091e-05
5.004361e-06
-3.4984343e-11
-1.6957092e-05
5.4545585e-06
-2.6299658e-11
-2.1138211e-05
5.7382288e-06
-2.0230693e-11
-2.5416448e-05
5.8724087e-06
-1.6124398e-11
-2.9693555e-05
5.8719544e-06
-1.3290219e-11
-3.3878811e-05
5.7480145e-06
-1.120371e-11
-3.7886603e-05
5.5078382e-06
-9.5267908e-12
-4.1634334e-05
5.1553925e-06
-7.9954681e-12
-4.504107e-05
4.6924551e-06
-6.4605094e-12
-4.8027094e-05
4.1200124e-06
-4.8375968e-12
-5.0514509e-05
3.4397962e-06
-3.0545888e-12
-5.2428888e-05
2.6558118e-06
-1.061415e-12
-5.3701888e-05
1.7757442e-06
1.1663031e-12
-5.4274657e-05
8.1212756e-07
3.6083683e-12
-5.4101936e-05
-2.1666836e-07
6.1849941e-12
-5.3156003e-05
-1.2864825e-06
8.8423671e-12
-5.143123e-05
-2.3666543e-06
1.1468427e-11
-4.8947496e-05
-3.4214121e-06
1.4003466e-11
-4.5752997e-05
-4.4108434e-06
1.6381205e-11
-4.1925661e-05
-5.2928297e-06
1.8501637e-11
-3.7572902e-05
-6.025433e-06
2.0240807e-11
-3.2829459e-05
-6.5696482e-06
2.1484315e-11
-2.7853202e-05
-6.8923166e-06
2.2166411e-11
-2.2818977e-05
-6.9689596e-06
2.2254836e-11
-1.7910664e-05
-6.7862907e-06
2.1733727e-11
-1.3311799e-05
-6.3442248e-06
2.0588936e-11
-9.1950658e-06
-5.6573418e-06
1.8852983e-11
-5.7109031e-06
-4.7560129e-06
1.6621168e-11
-2.9751585e-06
-3.6878129e-06
1.4054625e-11
-1.0556672e-06
-2.5202853e-06
1.1379205e-11
4.5839544e-08
-1.3471083e-06
8.78213e-12
4.24807e-07
-3.039713e-07
6.2652669e-12
2.8191337e-07
4.2156849e-07
6.6635626e-12
5.1710559e-07
1.7967122e-12
-2.817007e-07
1.5396388e-08
-1.4298971e-10
-1.4796887e-06
1.5926845e-06
-1.2334503e-10
-3.7432484e-06
3.7198341e-06
-9.6190398e-11
-7.0639818e-06
5.8784711e-06
-6.987668e-11
-1.1342103e-05
7.828968e-06
-4.794306e-11
-1.6427587e-05
9.4575334e-06
-3.1639863e-11
-2.2148884e-05
1.0725681e-05
-1.9781708e-11
-2.8331009e-05
1.1636688e-05
-1.1236738e-11
-3.4805341e-05
1.2212568e-05
-5.2760345e-12
-4.1413567e-05
1.2480641e-05
-1.3213765e-12
-4.8007929e-05
1.2466315e-05
1.2213084e-12
-5.4449606e-05
1.2189682e-05
2.827298e-12
-6.0606407e-05
1.1664636e-05
3.8402569e-12
-6.6350701e-05
1.0899689e-05
4.4717499e-12
-7.1558126e-05
9.8998751e-06
4.8300446e-12
-7.6107437e-05
8.6693119e-06
5.016572e-12
-7.98817e-05
7.2140507e-06
5.1438606e-12
-8.2770846e-05
5.5449536e-06
5.2662524e-12
-8.4675457e-05
3.680352e-06
5.3784508e-12
-8.5511594e-05
1.648258e-06
5.4703919e-12
-8.5216269e-05
-5.1200006e-07
5.5508897e-12
-8.3753259e-05
-2.7494982e-06
5.6107167e-12
-8.1118708e-05
-5.0012084e-06
5.6206182e-12
-7.734594e-05
-7.1941827e-06
5.5889229e-12
-7.2508968e-05
-9.2478173e-06
5.5496244e-12
-6.6724183e-05
-1.1077617e-05
5.5193661e-12
-6.014974e-05
-1.2599878e-05
5.4943064e-12
-5.298232e-05
-1.3737072e-05
5.4679804e-12
-4.5451089e-05
-1.4423552e-05
5.4183413e-12
-3.7808896e-05
-1.4611156e-05
5.3656969e-12
-3.0320938e-05
-1.4274252e-05
5.3562905e-12
-2.3251272e-05
-1.3413895e-05
5.4017046e-12
-1.6847657e-05
-1.2060961e-05
5.4943546e-12
-1.1325176e-05
-1.0278499e-05
5.6211975e-12
-6.8489225e-06
-8.1640751e-06
5.7763001e-12
-3.5155224e-06
-5.8536947e-06
5.9957879e-12
-1.33279e-06
-3.5298504e-06
6.2355135e-12
-2.0205266e-07
-1.4347173e-06
6.4509919e-12
1.1129433e-07
1.0821498e-07
7.0498254e-12
6.2839451e-07
5.0047791e-12
-6.5086583e-07
6.6636364e-07
-9.7485023e-11
-2.6979835e-06
3.6398857e-06
-8.1186685e-11
-6.1379592e-06
7.1598823e-06
-6.9533989e-11
-1.0887778e-05
1.0628346e-05
-5.2652347e-11
-1.6798077e-05
1.3739312e-05
-3.6026939e-11
-2.36796e-05
1.6339073e-05
-2.3328585e-11
-3.1324274e-05
1.8370372e-05
-1.3705373e-11
-3.9520376e-05
1.9832805e-05
-6.5426835e-12
-4.8061594e-05
2.075379e-05
-1.5156075e-12
-5.6751171e-05
2.1170212e-05
1.8275283e-12
-6.5402636e-05
2.111778e-05
4.0039081e-12
-7.3838631e-05
2.0625676e-05
5.3591547e-12
-8.1888929e-05
1.9714932e-05
6.1374617e-12
-8.9388676e-05
1.839943e-05
6.5184259e-12
-9.6177449e-05
1.6688638e-05
6.6262882e-12
-0.00010209957
1.4591421e-05
6.5643196e-12
-0.00010700589
1.2120373e-05
6.4267051e-12
-0.00011075715
9.2962089e-06
6.2531607e-12
-0.00011322863
6.1518219e-06
6.0323345e-12
-0.00011431602
2.7356363e-06
5.7448118e-12
-0.00011394195
-8.8607784e-07
5.4161006e-12
-0.00011206295
-4.6284969e-06
5.0614283e-12
-0.00010867602
-8.3881505e-06
4.6768778e-12
-0.00010382424
-1.2045966e-05
4.2592984e-12
-9.7600958e-05
-1.5471099e-05
3.8378943e-12
-9.0151721e-05
-1.8526857e-05
3.4642002e-12
-8.1673508e-05
-2.1078093e-05
3.1554295e-12
-7.2410858e-05
-2.2999722e-05
2.9332127e-12
-6.2648604e-05
-2.4185808e-05
2.7842303e-12
-5.2701211e-05
-2.4558551e-05
2.7279959e-12
-4.2898954e-05
-2.4076512e-05
2.8025699e-12
-3.3571366e-05
-2.2741484e-05
3.0337933e-12
-2.5028623e-05
-2.0603707e-05
3.4255502e-12
-1.7541584e-05
-1.7765542e-05
3.9469941e-12
-1.1321298e-05
-1.4384366e-05
4.5352052e-12
-6.4986524e-06
-1.0676347e-05
5.2183236e-12
-3.1050553e-06
-6.9234555e-06
6.1290077e-12
-1.0559034e-06
-3.4838775e-06
6.5408577e-12
-1.3908222e-07
-8.0861148e-07
5.4498584e-12
4.8930422e-07
7.4463952e-12
-1.0193728e-06
1.6858012e-06
-6.856677e-11
-3.9250418e-06
6.5456088e-06
-4.9828525e-11
-8.561811e-06
1.1796711e-05
-4.8728552e-11
-1.4746348e-05
1.6812914e-05
-3.9143679e-11
-2.2263977e-05
2.125697e-05
-2.7299351e-11
-3.0879221e-05
2.4954339e-05
-1.8272705e-11
-4.0347696e-05
2.783886e-05
-1.1308003e-11
-5.0425793e-05
2.9910906e-05
-5.9709642e-12
-6.0876896e-05
3.1204896e-05
-2.1246675e-12
-7.147425e-05
3.1767565e-05
4.9710955e-13
-8.2001232e-05
3.1644764e-05
2.2601962e-12
-9.2250123e-05
3.0874563e-05
3.4048792e-12
-0.00010202028
2.9485087e-05
4.1084954e-12
-0.00011111665
2.7495789e-05
4.5173658e-12
-0.00011934912
2.4921108e-05
4.7547619e-12
-0.00012653333
2.1775627e-05
4.9061268e-12
-0.00013249294
1.8079971e-05
5.0341936e-12
-0.00013706354
1.3866808e-05
5.1684448e-12
-0.00014009811
9.1863901e-06
5.3083047e-12
-0.00014147361
4.1111285e-06
5.4249683e-12
-0.0001410984
-1.2612994e-06
5.5055581e-12
-0.00013891992
-6.8069735e-06
5.566329e-12
-0.00013493235
-1.2375721e-05
5.6120067e-12
-0.00012918299
-1.7795334e-05
5.6407673e-12
-0.00012177712
-2.2876975e-05
5.6453408e-12
-0.00011288055
-2.7423432e-05
5.622536e-12
-0.00010271913
-3.1239513e-05
5.5948988e-12
-9.1574769e-05
-3.4144086e-05
5.5668388e-12
-7.9777539e-05
-3.5983041e-05
5.53892e-12
-6.7693831e-05
-3.6642262e-05
5.5186033e-12
-5.5710693e-05
-3.6059653e-05
5.5195331e-12
-4.4216881e-05
-3.42353e-05
5.5616543e-12
-3.3581428e-05
-3.1239164e-05
5.6655641e-12
-2.413084e-05
-2.7216134e-05
5.8138475e-12
-1.6126212e-05
-2.2389e-05
5.9372674e-12
-9.741733e-06
-1.7060833e-05
6.1833068e-12
-5.0463721e-06
-1.1618824e-05
6.9756324e-12
-1.9911826e-06
-6.5390757e-06
6.6642005e-12
-4.0480969e-07
-2.3949888e-06
3.2955634e-12
8.4483651e-08
9.3650304e-12
-1.3659669e-06
3.0518217e-06
-5.0052902e-11
-5.1089146e-06
1.0288582e-05
-2.6700847e-11
-1.0924379e-05
1.7612214e-05
-3.2705843e-11
-1.8521943e-05
2.441051e-05
-2.7708407e-11
-2.7612426e-05
3.034747e-05
-1.8857545e-11
-3.7908035e-05
3.5249963e-05
-1.2503168e-11
-4.9126043e-05
3.9056877e-05
-7.6266409e-12
-6.0992527e-05
4.1777394e-05
-3.7471846e-12
-7.3244742e-05
4.3457112e-05
-8.7405355e-13
-8.5631679e-05
4.41545e-05
1.1276173e-12
-9.7913069e-05
4.3926152e-05
2.4939549e-12
-0.00010985751
4.2818999e-05
3.3875028e-12
-0.00012124041
4.0867981e-05
3.9380135e-12
-0.00013184247
3.8097843e-05
4.2597124e-12
-0.00014144923
3.4527863e-05
4.4758917e-12
-0.00014985207
3.017846e-05
4.6529747e-12
-0.00015685085
2.5078749e-05
4.8187097e-12
-0.00016225828
1.9274232e-05
4.993959e-12
-0.00016590582
1.283392e-05
5.1876599e-12
-0.00016765093
5.8562356e-06
5.374812e-12
-0.00016738525
-1.5269846e-06
5.525278e-12
-0.00016504302
-9.1492047e-06
5.6416308e-12
-0.00016060982
-1.6808926e-05
5.7411982e-12
-0.00015412995
-2.4275204e-05
5.8299169e-12
-0.00014571243
-3.1294505e-05
5.903637e-12
-0.00013553453
-3.7601337e-05
5.9483151e-12
-0.00012384221
-4.2931832e-05
5.9597313e-12
-0.00011094666
-4.703964e-05
5.9423147e-12
-9.7216436e-05
-4.9713267e-05
5.9131853e-12
-8.3065014e-05
-5.0793687e-05
5.8923395e-12
-6.8933768e-05
-5.0190902e-05
5.8906073e-12
-5.5270955e-05
-4.7898117e-05
5.9176736e-12
-4.2507679e-05
-4.4002445e-05
5.9916112e-12
-3.1032276e-05
-3.8691543e-05
6.0885359e-12
-2.1164943e-05
-3.2256339e-05
6.1148271e-12
-1.3134732e-05
-2.509105e-05
6.3341918e-12
-7.0613656e-06
-1.7692199e-05
7.4403018e-12
-2.9447337e-06
-1.0655717e-05
6.7189933e-12
-6.651463e-07
-4.6745797e-06
1.048777e-12
-5.8067639e-07
1.1204641e-11
-1.6883177e-06
4.7401847e-06
-3.8010179e-11
-6.2318426e-06
1.4832114e-05
-9.7288421e-12
-1.3187747e-05
2.4568139e-05
-2.0970523e-11
-2.2159243e-05
3.3382026e-05
-1.8922753e-11
-3.2779213e-05
4.0967453e-05
-1.195294e-11
-4.4704055e-05
4.7174814e-05
-7.5614086e-12
-5.7610925e-05
5.196375e-05
-4.2973335e-12
-7.1196079e-05
5.5362547e-05
-1.5594254e-12
-8.5173183e-05
5.7434215e-05
5.3176923e-13
-9.9271035e-05
5.8252348e-05
2.01573e-12
-0.00011323071
5.7885823e-05
3.028935e-12
-0.00012680252
5.6390805e-05
3.6855516e-12
-0.0001397433
5.3808747e-05
4.0910847e-12
-0.00015181448
5.0169021e-05
4.3256052e-12
-0.00016278155
4.5494927e-05
4.50158e-12
-0.00017241499
3.9811891e-05
4.6722417e-12
-0.00018049303
3.3156789e-05
4.840233e-12
-0.00018680625
2.5587439e-05
5.0149948e-12
-0.00019116375
1.7191419e-05
5.2055255e-12
-0.00019340101
8.0934889e-06
5.3847077e-12
-0.00019338865
-1.5393484e-06
5.5231247e-12
-0.00019104168
-1.1496181e-05
5.6534068e-12
-0.00018632963
-2.1520978e-05
5.7479104e-12
-0.00017928526
-3.1319576e-05
5.8278133e-12
-0.00017001211
-4.0567663e-05
5.8835296e-12
-0.00015868977
-4.892368e-05
5.9112823e-12
-0.00014557593
-5.6045676e-05
5.9015834e-12
-0.00013100421
-6.1611364e-05
5.8629045e-12
-0.00011537709
-6.5340382e-05
5.812977e-12
-9.9153457e-05
-6.7017323e-05
5.7775485e-12
-8.2830584e-05
-6.6513778e-05
5.7727067e-12
-6.69212e-05
-6.3807505e-05
5.8111607e-12
-5.1926656e-05
-5.8996993e-05
5.9114524e-12
-3.8308011e-05
-5.2310193e-05
6.0332852e-12
-2.6457365e-05
-4.4106991e-05
6.0452385e-12
-1.6672173e-05
-3.4876249e-05
6.317003e-12
-9.1355253e-06
-2.5228857e-05
7.8163221e-12
-3.9055532e-06
-1.5885699e-05
6.7543362e-12
-9.171936e-07
-7.662942e-06
-1.1748137e-12
-1.4978861e-06
1.3180893e-11
-1.9888865e-06
6.7291042e-06
-3.0491107e-11
-7.2919465e-06
2.0135167e-05
2.7420981e-12
-1.534074e-05
3.2616951e-05
-1.2605353e-11
-2.5637008e-05
4.3678304e-05
-1.2698546e-11
-3.773634e-05
5.3066793e-05
-6.9530562e-12
-5.1238516e-05
6.0676993e-05
-3.9842176e-12
-6.5780059e-05
6.6505292e-05
-1.937436e-12
-8.1028038e-05
7.0610524e-05
-7.4231938e-14
-9.667453e-05
7.3080703e-05
1.4017775e-12
-0.00011243133
7.400914e-05
2.4570696e-12
-0.00012802488
7.3479368e-05
3.1674106e-12
-0.00014319169
7.1557605e-05
3.6275854e-12
-0.0001576745
6.8291555e-05
3.9329008e-12
-0.00017121972
6.3714231e-05
4.1281533e-12
-0.00018357626
5.7851466e-05
4.3016325e-12
-0.00019449626
5.0731887e-05
4.4933402e-12
-0.00020373762
4.2398143e-05
4.691675e-12
-0.00021106853
3.2918338e-05
4.9027444e-12
-0.00021627383
2.2396717e-05
5.1298894e-12
-0.00021916321
1.0982867e-05
5.298041e-12
-0.00021958141
-1.1211496e-06
5.3938253e-12
-0.00021741562
-1.3661983e-05
5.6431549e-12
-0.00021261118
-2.6325419e-05
5.8378117e-12
-0.00020517943
-3.8751336e-05
5.9619532e-12
-0.00019520806
-5.053904e-05
6.0578348e-12
-0.00018286895
-6.1262794e-05
6.1049923e-12
-0.00016842265
-7.0491974e-05
6.102738e-12
-0.00015221848
-7.7815538e-05
6.0658089e-12
-0.00013468906
-8.2869802e-05
6.009855e-12
-0.00011633855
-8.5367836e-05
5.9572218e-12
-9.772412e-05
-8.5128216e-05
5.9313748e-12
-7.943107e-05
-8.2100559e-05
5.9530404e-12
-6.2042803e-05
-7.6385266e-05
6.0437999e-12
-4.6107692e-05
-6.8245309e-05
6.1511997e-12
-3.2105773e-05
-5.8108917e-05
6.1072634e-12
-2.0418608e-05
-4.6563423e-05
6.3866079e-12
-1.1305879e-05
-3.4341595e-05
8.2401925e-12
-4.8922232e-06
-2.2299366e-05
6.8039274e-12
-1.167313e-06
-1.1387853e-05
-3.4074873e-12
-2.6652164e-06
1.5148901e-11
-2.2704622e-06
8.9995943e-06
-2.6138524e-11
-8.2921835e-06
2.6156869e-05
1.1841742e-11
-1.7382705e-05
4.1707483e-05
-6.9139628e-12
-2.8948976e-05
5.5244581e-05
-8.5463343e-12
-4.2472501e-05
6.6590322e-05
-3.5252037e-12
-5.7497818e-05
7.5702308e-05
-1.5211313e-12
-7.3621726e-05
8.2629198e-05
-3.3120273e-13
-9.0483403e-05
8.7472199e-05
9.0399096e-13
-0.00010775539
9.0352685e-05
1.9127253e-12
-0.00012513534
9.138909e-05
2.628346e-12
-0.00014233862
9.0682638e-05
3.1004645e-12
-0.00015909182
8.8310794e-05
3.4175633e-12
-0.00017512757
8.4327311e-05
3.6628185e-12
-0.00019018091
7.8767556e-05
3.8512e-12
-0.00020398723
7.1657788e-05
4.0483353e-12
-0.00021628242
6.302707e-05
4.2759267e-12
-0.00022680484
5.2920567e-05
4.5033396e-12
-0.00023529963
4.1413124e-05
4.7364618e-12
-0.00024152492
2.8621999e-05
4.9857876e-12
-0.0002452595
1.4717453e-05
5.1613187e-12
-0.00024631824
-6.2419419e-08
5.15157e-12
-0.00024454888
-1.5431346e-05
5.6465671e-12
-0.00023986515
-3.1009157e-05
5.9486527e-12
-0.00023224513
-4.6371367e-05
6.1425109e-12
-0.00022174903
-6.103514e-05
6.2824925e-12
-0.00020852964
-7.4482192e-05
6.3551506e-12
-0.00019284022
-8.6181404e-05
6.3647176e-12
-0.00017503794
-9.5617816e-05
6.3309663e-12
-0.00015558119
-0.00010232655
6.2703788e-12
-0.00013501935
-0.00010592968
6.2046851e-12
-0.00011397434
-0.00010617323
6.159738e-12
-9.311394e-05
-0.00010296097
6.1579554e-12
-7.3117984e-05
-9.6381229e-05
6.2233286e-12
-5.4639888e-05
-8.6723412e-05
6.2966429e-12
-3.8266899e-05
-7.4481912e-05
6.1809783e-12
-2.4483277e-05
-6.0347053e-05
6.4643614e-12
-1.3640696e-05
-4.5184187e-05
8.6867793e-12
-5.939945e-06
-3.0000128e-05
6.8627496e-12
-1.4268489e-06
-1.5900946e-05
-5.7216903e-12
-4.0920831e-06
1.7202798e-11
-2.5350813e-06
1.1534704e-05
-2.3934032e-11
-9.235629e-06
3.2857396e-05
1.8484058e-11
-1.9315104e-05
5.1786961e-05
-3.2396793e-12
-3.2092845e-05
6.8022327e-05
-5.9708673e-12
-4.6980884e-05
8.147836e-05
-1.3004391e-12
-6.3471409e-05
9.2192831e-05
8.2286328e-14
-8.1123616e-05
0.0001002814
6.8330349e-13
-9.9550822e-05
0.0001058994
1.4732044e-12
-0.00011840841
0.00010921026
2.1328755e-12
-0.00013738277
0.00011036345
2.5911454e-12
-0.00015618152
0.00010948138
2.893797e-12
-0.000174525
0.00010665426
3.1253681e-12
-0.00019213943
0.00010194174
3.3449831e-12
-0.00020875189
9.5380011e-05
3.5399985e-12
-0.0002240872
8.6993091e-05
3.7632268e-12
-0.00023786697
7.6806842e-05
4.0263319e-12
-0.00024981091
6.4864507e-05
4.2869446e-12
-0.00025964038
5.1242588e-05
4.5369661e-12
-0.00026708436
3.6065978e-05
4.8171193e-12
-0.00027188844
1.9521528e-05
5.2048081e-12
-0.00027382024
1.8693692e-06
5.7797878e-12
-0.00027269672
-1.6554874e-05
5.8459159e-12
-0.00026837855
-3.5327331e-05
6.057399e-12
-0.0002608005
-5.3949416e-05
6.3140066e-12
-0.00024998235
-7.1853298e-05
6.5103182e-12
-0.00023604457
-8.8419979e-05
6.6174911e-12
-0.00021922094
-0.00010300504
6.6456946e-12
-0.00019986654
-0.00011497223
6.6133588e-12
-0.00017845909
-0.00012373401
6.5438858e-12
-0.00015559165
-0.00012879712
6.4646747e-12
-0.00013195514
-0.00012980976
6.3991044e-12
-0.00010831012
-0.00012660599
6.3680693e-12
-8.5448968e-05
-0.00011924239
6.3999724e-12
-6.4150607e-05
-0.00010802178
6.4305223e-12
-4.5132309e-05
-9.3500217e-05
6.2326082e-12
-2.9003494e-05
-7.6475875e-05
6.5264249e-12
-1.6227052e-05
-5.7960639e-05
9.162895e-12
-7.0932471e-06
-3.913394e-05
6.9364202e-12
-1.709429e-06
-2.1284757e-05
-8.2131289e-12
-5.801531e-06
1.9464165e-11
-2.7837485e-06
1.4318477e-05
-2.3274572e-11
-1.0123579e-05
4.0197195e-05
2.3305035e-11
-2.1137504e-05
6.2800888e-05
-1.0046105e-12
-3.5064406e-05
8.194923e-05
-4.5457623e-12
-5.1252113e-05
9.7666066e-05
2.4279351e-14
-6.9144292e-05
0.00011008501
1.0191896e-12
-8.8265489e-05
0.0001194026
1.2116405e-12
-0.00010820581
0.00012583972
1.6846135e-12
-0.00012860619
0.00012961064
2.0949844e-12
-0.00014914479
0.00013090206
2.3831722e-12
-0.00016952482
0.00012986141
2.5866293e-12
-0.00018946395
0.00012659339
2.7843493e-12
-0.00020868567
0.00012116345
3.0073561e-12
-0.0002269126
0.00011360694
3.2144037e-12
-0.00024386199
0.00010394249
3.4576441e-12
-0.0002592435
9.2188357e-05
3.7486455e-12
-0.00027275934
7.8380345e-05
4.0381178e-12
-0.00028410691
6.2590158e-05
4.3298899e-12
-0.00029298414
4.4943202e-05
4.6436139e-12
-0.00029909743
2.563482e-05
5.0565431e-12
-0.00030217182
4.943759e-06
5.5447704e-12
-0.00030196796
-1.6758744e-05
5.838972e-12
-0.00029829355
-3.9001745e-05
6.1642167e-12
-0.00029102522
-6.1217756e-05
6.486636e-12
-0.00028012773
-8.2750789e-05
6.7342008e-12
-0.00026567401
-0.00010287371
6.8905997e-12
-0.00024786333
-0.00012081573
6.9549609e-12
-0.00022703544
-0.00013580012
6.936998e-12
-0.00020367761
-0.00014709184
6.8658224e-12
-0.00017842191
-0.00015405283
6.7712381e-12
-0.00015203011
-0.00015620157
6.6741644e-12
-0.00012536494
-0.00015327117
6.6001142e-12
-9.9347945e-05
-0.0001452594
6.5876584e-12
-7.4906431e-05
-0.0001324633
6.5692885e-12
-5.2914381e-05
-0.00011549227
6.278846e-12
-3.4133772e-05
-9.5256492e-05
6.5884648e-12
-1.9163408e-05
-7.2931011e-05
9.7051083e-12
-8.4020273e-06
-4.9895327e-05
7.0368894e-12
-2.0298166e-06
-2.7656956e-05
-1.1000134e-11
-7.831369e-06
2.2045366e-11
-3.016435e-06
1.7334939e-05
-2.3605458e-11
-1.0954904e-05
4.8135627e-05
2.6869067e-11
-2.2845881e-05
7.469187e-05
2.6438661e-13
-3.785474e-05
9.695809e-05
-3.9123692e-12
-5.5270617e-05
0.00011508194
6.9329492e-13
-7.4492919e-05
0.00012930731
1.4396391e-12
-9.5014973e-05
0.00013992465
1.3443643e-12
-0.00011640669
0.00014723143
1.6001673e-12
-0.00013829755
0.0001515015
1.8501691e-12
-0.00016036063
0.00015296513
2.0480314e-12
-0.00018229813
0.00015179891
2.2064113e-12
-0.00020382874
0.00014812399
2.394363e-12
-0.00022467698
0.00014201169
2.6327067e-12
-0.00024456479
0.00013349474
2.8578981e-12
-0.00026320532
0.00012258302
3.1186497e-12
-0.00028029919
0.00010928222
3.4312553e-12
-0.00029553315
9.3614301e-05
3.7538839e-12
-0.00030858151
7.5638514e-05
4.0879935e-12
-0.0003191104
5.5472092e-05
4.467061e-12
-0.00032678515
3.3309568e-05
4.8986049e-12
-0.00033128109
9.4396929e-06
5.374988e-12
-0.00033229834
-1.5741496e-05
5.8232705e-12
-0.00032957914
-4.1720954e-05
6.263702e-12
-0.00032292972
-6.7867182e-05
6.6530218e-12
-0.00031224441
-9.34361e-05
6.9643816e-12
-0.00029753121
-0.00011758692
7.1832593e-12
-0.0002789368
-0.00013941014
7.2948475e-12
-0.00025676822
-0.0001579687
7.3045203e-12
-0.00023150772
-0.00017235235
7.2411907e-12
-0.00020381679
-0.00018174378
7.130067e-12
-0.00017452571
-0.00018549266
6.9903815e-12
-0.00014460584
-0.00018319104
6.8587979e-12
-0.00011512384
-0.00017474141
6.792768e-12
-8.7179889e-05
-0.00016040726
6.718599e-12
-6.1835422e-05
-0.00014083675
6.3224979e-12
-4.0038314e-05
-0.00011705361
6.6542089e-12
-2.255508e-05
-9.0414254e-05
1.0340479e-11
-9.9194726e-06
-6.2530941e-05
7.1700382e-12
-2.4034664e-06
-3.5172947e-05
-1.421585e-11
-1.0234861e-05
2.5058524e-11
-3.2322117e-06
2.0567178e-05
-2.4511621e-11
-1.1726094e-05
5.6629473e-05
2.9589105e-11
-2.4432301e-05
8.7398081e-05
8.8573338e-13
-4.0449439e-05
0.00011297523
-3.8093532e-12
-5.9013421e-05
0.00013364592
8.960782e-13
-7.9483729e-05
0.00014977762
1.4752698e-12
-0.00010132602
0.00016176694
1.1783959e-12
-0.00012409315
0.00016999856
1.3066814e-12
-0.00014740619
0.00017481454
1.4769972e-12
-0.00017093634
0.00017649528
1.6398993e-12
-0.00019438829
0.00017525084
1.7860309e-12
-0.00021748546
0.00017122117
1.9723071e-12
-0.00023995746
0.00016448369
2.2196994e-12
-0.00026152969
0.00015506696
2.4616269e-12
-0.00028191528
0.00014296861
2.7394055e-12
-0.00030080962
0.00012817656
3.0758374e-12
-0.0003178873
0.00011069198
3.4419766e-12
-0.0003328019
9.0553111e-05
3.8299054e-12
-0.00034518887
6.785906e-05
4.2768592e-12
-0.00035467184
4.279254e-05
4.7892588e-12
-0.00036087289
1.5640736e-05
5.325572e-12
-0.00036342733
-1.3187062e-05
5.8424875e-12
-0.00036200246
-4.3145827e-05
6.3503688e-12
-0.00035632195
-7.3547698e-05
6.8087664e-12
-0.00034619393
-0.00010356412
7.1930217e-12
-0.00033154249
-0.00013223837
7.4795459e-12
-0.00031244035
-0.0001585123
7.649837e-12
-0.00028913972
-0.00018126934
7.7048248e-12
-0.00026209718
-0.0001993949
7.6616221e-12
-0.00023198734
-0.00021185362
7.5357771e-12
-0.00019970017
-0.00021777984
7.3496262e-12
-0.00016631695
-0.00021657426
7.1514933e-12
-0.00013306261
-0.00020799576
7.0226509e-12
-0.00010123519
-0.0001922347
6.880978e-12
-7.2118112e-05
-0.00016995383
6.3575794e-12
-4.6885246e-05
-0.00014228648
6.7164331e-12
-2.651128e-05
-0.00011078823
1.1086506e-11
-1.1700974e-05
-7.7341255e-05
7.3352692e-12
-2.846391e-06
-4.4027513e-05
-1.8003012e-11
-1.3081282e-05
2.8614858e-11
-3.429457e-06
2.3996663e-05
-2.5721233e-11
-1.2431725e-05
6.5631705e-05
3.1689624e-11
-2.588552e-05
0.00010085188
1.0696352e-12
-4.2829248e-05
0.00012991896
-4.0553284e-12
-6.2450804e-05
0.00015326748
7.84234e-13
-8.4073844e-05
0.00017140066
1.2619129e-12
-0.00010713971
0.0001848328
8.3799555e-13
-0.00013118719
0.00019404605
9.0832402e-13
-0.00015583191
0.00019945925
1.0554814e-12
-0.00018074626
0.00020140963
1.2155556e-12
-0.00020564086
0.00020014544
1.3670203e-12
-0.00023024777
0.00019582807
1.5601483e-12
-0.00025430589
0.00018854181
1.8115589e-12
-0.00027754866
0.00017830972
2.0627576e-12
-0.00029969407
0.00016511403
2.3505075e-12
-0.00032043719
0.00014891969
2.7179546e-12
-0.00033944519
0.00012969997
3.123244e-12
-0.0003563552
0.00010746312
3.5672173e-12
-0.00037077542
8.2279273e-05
4.0765395e-12
-0.00038228979
5.4306909e-05
4.6508666e-12
-0.00039046712
2.3818057e-05
5.2443457e-12
-0.00039487534
-8.7788494e-06
5.8057268e-12
-0.00039510057
-4.2920593e-05
6.392039e-12
-0.00039077364
-7.7874636e-05
6.9312138e-12
-0.00038160146
-0.00011273631
7.3978089e-12
-0.00036740437
-0.00014643546
7.7674082e-12
-0.000348157
-0.00017775968
8.0163308e-12
-0.00032402962
-0.00020539672
8.1337201e-12
-0.00029542545
-0.00022799908
8.121602e-12
-0.00026300742
-0.00024427165
7.9882345e-12
-0.00022770725
-0.00025308001
7.7563897e-12
-0.00019070944
-0.00025357208
7.4868174e-12
-0.00015340484
-0.00024530037
7.2830807e-12
-0.00011731266
-0.0002283269
7.0545833e-12
-8.397581e-05
-0.00020329068
6.3731882e-12
-5.4841374e-05
-0.00017142092
6.7642165e-12
-3.1142853e-05
-0.00013448676
1.1959501e-11
-1.3803521e-05
-9.4680596e-05
7.5299423e-12
-3.3751792e-06
-5.4455836e-05
-2.2511609e-11
-1.6456496e-05
3.2828963e-11
-3.6061357e-06
2.760283e-05
-2.7043358e-11
-1.3065227e-05
7.5090756e-05
3.3292281e-11
-2.7192277e-05
0.00011497893
9.6186122e-13
-4.4971824e-05
0.00014769851
-4.5280634e-12
-6.5548474e-05
0.00017384413
4.6791757e-13
-8.8213634e-05
0.00019406581
9.0239847e-13
-0.00011238721
0.00020900638
4.0733872e-13
-0.00013759653
0.00021925537
4.5242273e-13
-0.00016345434
0.00022531706
5.9434069e-13
-0.00018963713
0.00022759243
7.6327158e-13
-0.00021586475
0.00022637306
9.2334657e-13
-0.0002418817
0.00022184502
1.1243271e-12
-0.00026744064
0.00021410075
1.3839557e-12
-0.00029228809
0.00020315717
1.6530395e-12
-0.0003161525
0.00018897844
1.9623314e-12
-0.00033873471
0.0001715019
2.3526857e-12
-0.00035970088
0.00015066614
2.8050059e-12
-0.0003786782
0.00012644044
3.3014951e-12
-0.00039525374
9.885481e-05
3.8552042e-12
-0.00040897709
6.8030251e-05
4.4702911e-12
-0.00041936745
3.420842e-05
5.1057683e-12
-0.00042592677
-2.2195403e-06
5.7005016e-12
-0.00042815756
-4.0689807e-05
6.3820041e-12
-0.00042559093
-8.0441268e-05
7.0042173e-12
-0.00041781985
-0.00012050739
7.5638369e-12
-0.00040454173
-0.00015971359
8.0370009e-12
-0.00038560722
-0.0001966942
8.3860762e-12
-0.00036107308
-0.00022993087
8.5839517e-12
-0.00033125404
-0.00025781814
8.6180273e-12
-0.00029676641
-0.00027875928
8.4874783e-12
-0.00025855415
-0.00029129228
8.2139914e-12
-0.00021788666
-0.00029423959
7.8663099e-12
-0.00017631911
-0.00028686792
7.5732951e-12
-0.00013561039
-0.00026903563
7.2352031e-12
-9.7601364e-05
-0.00024129972
6.3589922e-12
-6.4066431e-05
-0.00020495586
6.7882484e-12
-3.6560026e-05
-0.00016199318
1.2977744e-11
-1.6285241e-05
-0.00011495539
7.753958e-12
-4.0070757e-06
-6.6733975e-05
-2.7893224e-11
-2.0463608e-05
3.7827601e-11
-3.7601425e-06
3.1363006e-05
-2.8364132e-11
-1.3619926e-05
8.4950497e-05
3.4489164e-11
-2.8339182e-05
0.00012969819
6.8792194e-13
-4.6854464e-05
0.0001662138
-5.1030289e-12
-6.8271072e-05
0.00019526074
5.2704255e-14
-9.1850945e-05
0.00021764569
4.78977e-13
-0.00011699471
0.00023415015
-4.8380821e-14
-0.00014322017
0.00024548083
-7.363927e-15
-0.00017013932
0.0002522362
1.2971002e-13
-0.00019743523
0.00025488834
3.0039725e-13
-0.00022484002
0.00025377784
4.6734064e-13
-0.00025211436
0.00024911936
6.7925745e-13
-0.00027902917
0.00024101556
9.5145689e-13
-0.00030534946
0.00022947746
1.2458119e-12
-0.00033082045
0.00021444942
1.5974832e-12
-0.00035515598
0.00019583743
2.0244866e-12
-0.00037802931
0.00017353947
2.5116094e-12
-0.00039906646
0.00014747758
3.0458671e-12
-0.00041784254
0.00011763089
3.6323889e-12
-0.0004338818
8.4069508e-05
4.2744222e-12
-0.00044666212
4.6988739e-05
4.9691189e-12
-0.00045562484
6.7431779e-06
5.7174704e-12
-0.00046019303
-3.6121625e-05
6.3610253e-12
-0.00045979536
-8.0838936e-05
7.0346371e-12
-0.00045390253
-0.00012640023
7.6910188e-12
-0.00044207244
-0.00017154369
8.2766326e-12
-0.0004240062
-0.00021476045
8.7389354e-12
-0.00039961235
-0.00025432473
9.0343323e-12
-0.00036907499
-0.0002883555
9.1344723e-12
-0.00033291799
-0.0003149163
9.0251662e-12
-0.00029205385
-0.00033215642
8.718013e-12
-0.00024780319
-0.00033849026
8.2874219e-12
-0.00020186995
-0.00033280117
7.8909508e-12
-0.00015626168
-0.00031464391
7.4184196e-12
-0.0001131532
-0.0002844082
6.3019834e-12
-7.4705898e-05
-0.00024340318
6.7725528e-12
-4.2869597e-05
-0.0001938295
1.4153193e-11
-1.9204793e-05
-0.0001386202
8.005813e-12
-4.760057e-06
-8.1178677e-05
-3.4294264e-11
-2.5223707e-05
4.3755196e-11
-3.8897074e-06
3.5252744e-05
-2.9615228e-11
-1.4090355e-05
9.5151103e-05
3.5368812e-11
-2.9315137e-05
0.00014492297
3.3632682e-13
-4.845768e-05
0.00018535635
-5.6863243e-12
-7.0586871e-05
0.00021738993
-3.8084179e-13
-9.4936856e-05
0.00024199567
4.3697197e-14
-0.00012089015
0.00026010345
-5.0614503e-13
-0.00014795622
0.0002725469
-4.5883264e-13
-0.00017574775
0.00028002773
-3.1633218e-13
-0.0002039564
0.00028309699
-1.4586622e-13
-0.00023232923
0.00028215067
2.9555976e-14
-0.00026064661
0.00027743675
2.5768346e-13
-0.00028870222
0.00026907118
5.5028928e-13
-0.00031628516
0.00025706039
8.8299418e-13
-0.00034316425
0.00024132852
1.2796301e-12
-0.00036907458
0.00022174776
1.7409239e-12
-0.00039370611
0.000198171
2.2598408e-12
-0.00041669467
0.00017046613
2.8265116e-12
-0.00043761558
0.0001385518
3.4381446e-12
-0.00045598059
0.00010243452
4.0954368e-12
-0.00047123905
6.2247189e-05
4.8029003e-12
-0.0004827843
1.8288431e-05
5.5593702e-12
-0.00048996795
-2.893798e-05
6.2870265e-12
-0.00049212178
-7.868511e-05
7.041601e-12
-0.00048859198
-0.00012993004
7.7913451e-12
-0.00047878567
-0.00018135001
8.4827692e-12
-0.00046223174
-0.00023131439
9.0560763e-12
-0.00043865528
-0.0002779012
9.4587324e-12
-0.00040806239
-0.00031894841
9.6446324e-12
-0.00037082796
-0.00035215074
9.5787917e-12
-0.0003277737
-0.00037521069
9.2520901e-12
-0.00028021848
-0.00038604549
8.7402872e-12
-0.00022997981
-0.00038303985
8.2307418e-12
-0.00017930718
-0.00036531654
7.5957953e-12
-0.00013073756
-0.00033297783
6.18216e-12
-8.6881504e-05
-0.00028725924
6.6933381e-12
-5.0171021e-05
-0.00023054
1.5494803e-11
-2.2620404e-05
-0.00016617082
8.28462e-12
-5.6528457e-06
-9.8146191e-05
-4.1858383e-11
-3.0876601e-05
5.0761145e-11
-3.9938803e-06
3.9246656e-05
-3.0726089e-11
-1.4473833e-05
0.00010563102
3.6007212e-11
-3.0114298e-05
0.00016056344