/*--------------------------------*- C++ -*----------------------------------*\
  =========                 |
  \\      /  F ield         | OpenFOAM: The Open Source CFD Toolbox
   \\    /   O peration     | Website:  https://openfoam.org
    \\  /    A nd           | Version:  7
     \\/     M anipulation  |
\*---------------------------------------------------------------------------*/
FoamFile
{
    version     2.0;
    format      ascii;
    class       surfaceScalarField;
    location    "4";
    object      phi_0;
}
// * * * * * * * * * * * * * * * * * * * * * * * * * * * * * * * * * * * * * //

dimensions      [0 3 -1 0 0 0 0];

internalField   nonuniform List<scalar> 
45600
(
2.1063362e-07
-2.0713392e-07
-4.4834778e-11
2.6035414e-07
-4.9668814e-08
-5.5057847e-11
-2.2243585e-08
2.8261043e-07
-1.1480938e-11
-6.4407741e-07
6.2182211e-07
9.206184e-12
-1.5689689e-06
9.2486899e-07
2.4748764e-11
-2.737157e-06
1.1681554e-06
3.2429672e-11
-4.0875194e-06
1.3503234e-06
3.5080738e-11
-5.5646701e-06
1.4771149e-06
3.4726254e-11
-7.1203998e-06
1.5556964e-06
3.3054432e-11
-8.713107e-06
1.5926722e-06
3.0789449e-11
-1.0306411e-05
1.5932792e-06
2.8247e-11
-1.1867604e-05
1.5611629e-06
2.5585433e-11
-1.3366105e-05
1.4984764e-06
2.3116382e-11
-1.4772273e-05
1.406152e-06
2.0950534e-11
-1.6056606e-05
1.2843107e-06
1.8892749e-11
-1.7189364e-05
1.1327353e-06
1.680997e-11
-1.8140722e-05
9.5134322e-07
1.4760883e-11
-1.8881392e-05
7.4066103e-07
1.2688028e-11
-1.9383687e-05
5.0228075e-07
1.0603999e-11
-1.9622945e-05
2.3924331e-07
8.4457467e-12
-1.957927e-05
-4.3683254e-08
6.1453299e-12
-1.9239383e-05
-3.3988842e-07
3.8199588e-12
-1.8598557e-05
-6.4082485e-07
1.4276623e-12
-1.7662301e-05
-9.3625713e-07
-9.809122e-13
-1.6447694e-05
-1.2146058e-06
-3.1979851e-12
-1.4984183e-05
-1.4635032e-06
-5.1535892e-12
-1.3313657e-05
-1.6705148e-06
-6.8353695e-12
-1.148967e-05
-1.8239743e-06
-8.1263091e-12
-9.5757906e-06
-1.9138689e-06
-8.9848624e-12
-7.643087e-06
-1.9326948e-06
-9.2869002e-12
-5.7668819e-06
-1.8761964e-06
-8.9175586e-12
-4.0229481e-06
-1.7439249e-06
-7.876473e-12
-2.4833505e-06
-1.5395892e-06
-6.2567791e-12
-1.2120632e-06
-1.2712816e-06
-4.119326e-12
-2.6010938e-07
-9.5195266e-07
-1.5370625e-12
3.4097846e-07
-6.0109149e-07
1.0080911e-12
5.8721988e-07
-2.4624878e-07
3.514781e-12
5.1295982e-07
7.4249798e-08
6.3843135e-12
2.3494543e-07
2.7800155e-07
1.0046702e-11
2.3493817e-07
5.4443046e-12
5.6915524e-08
-2.6399775e-07
-5.4592264e-11
-3.888412e-07
3.9612408e-07
-3.4527342e-11
-1.5626053e-06
1.4563814e-06
-7.354806e-12
-3.4973397e-06
2.5565491e-06
7.5223835e-12
-6.1209527e-06
3.548465e-06
1.5432473e-11
-9.3214516e-06
4.3686389e-06
1.7631269e-11
-1.2971273e-05
5.00013e-06
1.6192846e-11
-1.694383e-05
5.449661e-06
1.3199412e-11
-2.1120967e-05
5.7328324e-06
9.8957215e-12
-2.5394975e-05
5.8666689e-06
6.5782196e-12
-2.9667713e-05
5.86602e-06
3.5968689e-12
-3.3848574e-05
5.7420326e-06
1.2852551e-12
-3.7852057e-05
5.501961e-06
-2.4699891e-13
-4.1595687e-05
5.149782e-06
-1.0353553e-12
-4.4998657e-05
4.687285e-06
-1.2121817e-12
-4.7981382e-05
4.1154655e-06
-8.973676e-13
-5.0466097e-05
3.4360582e-06
-2.1354017e-14
-5.2378505e-05
2.6530624e-06
1.3244923e-12
-5.3650379e-05
1.7741461e-06
3.1279375e-12
-5.4222956e-05
8.1181398e-07
5.3062573e-12
-5.4051042e-05
-2.1560674e-07
7.5869261e-12
-5.3106935e-05
-1.2840089e-06
1.0017611e-11
-5.1384984e-05
-2.3627952e-06
1.2524142e-11
-4.8904998e-05
-3.4162634e-06
1.4946692e-11
-4.5715051e-05
-4.4045728e-06
1.7217613e-11
-4.18929e-05
-5.2856737e-06
1.9243888e-11
-3.7545749e-05
-6.0176886e-06
2.0868649e-11
-3.2808093e-05
-6.5616579e-06
2.2005469e-11
-2.783754e-05
-6.8844498e-06
2.2588301e-11
-2.2808672e-05
-6.9615897e-06
2.2585314e-11
-1.7905124e-05
-6.7797687e-06
2.1960157e-11
-1.3310216e-05
-6.3388531e-06
2.077792e-11
-9.1964758e-06
-5.6533484e-06
1.9066782e-11
-5.7142492e-06
-4.7535266e-06
1.6850292e-11
-2.9793811e-06
-3.6868394e-06
1.4271032e-11
-1.0598135e-06
-2.5206759e-06
1.1545721e-11
4.2464112e-08
-1.3485401e-06
8.8657784e-12
4.228149e-07
-3.0611036e-07
6.2660463e-12
2.8122623e-07
4.1958229e-07
6.6593605e-12
5.1616149e-07
1.8638232e-12
-2.8115311e-07
1.7174434e-08
-1.7325155e-11
-1.4784591e-06
1.5934298e-06
-2.632355e-12
-3.7405341e-06
3.7184532e-06
9.0505782e-12
-7.0587549e-06
5.8747511e-06
1.9557676e-11
-1.1333316e-05
7.8229936e-06
2.6461329e-11
-1.6414273e-05
9.4495656e-06
2.862112e-11
-2.2130217e-05
1.071605e-05
2.7972911e-11
-2.8306327e-05
1.1625737e-05
2.5944261e-11
-3.4774147e-05
1.220063e-05
2.3203964e-11
-4.1375531e-05
1.2468038e-05
2.0107849e-11
-4.7962889e-05
1.2453361e-05
1.7135903e-11
-5.4397573e-05
1.2176695e-05
1.4641406e-11
-6.0547571e-05
1.1651946e-05
1.2662094e-11
-6.6285439e-05
1.0887646e-05
1.1071168e-11
-7.1487013e-05
9.8888475e-06
9.7776111e-12
-7.6031244e-05
8.6596822e-06
8.7123572e-12
-7.9801398e-05
7.206201e-06
7.9747926e-12
-8.268759e-05
5.5392479e-06
7.5211815e-12
-8.4590565e-05
3.6771141e-06
7.2623467e-12
-8.5426506e-05
1.6477468e-06
7.1317939e-12
-8.5132507e-05
-5.096154e-07
6.9699174e-12
-8.3672362e-05
-2.7441609e-06
6.7628386e-12
-8.1042173e-05
-4.9929888e-06
6.6015736e-12
-7.7275149e-05
-7.1832901e-06
6.5281484e-12
-7.2445122e-05
-9.234603e-06
6.4705315e-12
-6.6668232e-05
-1.1062567e-05
6.3397216e-12
-6.010233e-05
-1.2583595e-05
6.1755786e-12
-5.2943746e-05
-1.3720246e-05
5.9809732e-12
-4.5421275e-05
-1.4406926e-05
5.8205066e-12
-3.7787392e-05
-1.4595478e-05
5.7282908e-12
-3.030694e-05
-1.4260224e-05
5.657317e-12
-2.3243672e-05
-1.3402126e-05
5.6481683e-12
-1.6845116e-05
-1.205191e-05
5.7198943e-12
-1.1326215e-05
-1.0272434e-05
5.8283144e-12
-6.8520402e-06
-8.1610233e-06
5.9636736e-12
-3.5193205e-06
-5.8534057e-06
6.1602044e-12
-1.3360937e-06
-3.531777e-06
6.3620209e-12
-2.0422237e-07
-1.4379908e-06
6.5218615e-12
1.1049103e-07
1.0486189e-07
7.0658153e-12
6.266469e-07
5.0509216e-12
-6.5028237e-07
6.6745769e-07
-1.5475379e-12
-2.6957456e-06
3.638878e-06
1.7289169e-11
-6.1328488e-06
7.1555394e-06
1.9690459e-11
-1.0878468e-05
1.0620347e-05
2.479756e-11
-1.6783284e-05
1.372779e-05
2.930189e-11
-2.3658166e-05
1.6324412e-05
3.0180827e-11
-3.1295218e-05
1.8353075e-05
2.9210547e-11
-3.9482913e-05
1.9813411e-05
2.7156019e-11
-4.8015144e-05
2.0732838e-05
2.4377407e-11
-5.6695366e-05
2.1148235e-05
2.1358552e-11
-6.5337328e-05
2.1095308e-05
1.8616297e-11
-7.3763896e-05
2.060325e-05
1.6295119e-11
-8.1805078e-05
1.9693117e-05
1.4340119e-11
-8.9296267e-05
1.8378821e-05
1.2645349e-11
-9.6077289e-05
1.6669856e-05
1.1201767e-11
-0.00010199272
1.4575103e-05
1.0003517e-11
-0.00010689368
1.2107147e-05
9.0841545e-12
-0.0001106411
9.2866681e-06
8.3962424e-12
-0.00011311048
6.146485e-06
7.8560599e-12
-0.00011419766
2.7349115e-06
7.3411889e-12
-0.00011382535
-8.8193284e-07
6.7884846e-12
-0.00011195011
-4.6194119e-06
6.2036339e-12
-0.00010856884
-8.3742591e-06
5.6382709e-12
-0.00010372451
-1.2027623e-05
5.1589391e-12
-9.7510236e-05
-1.5448887e-05
4.7415293e-12
-9.0071238e-05
-1.8501569e-05
4.2748023e-12
-8.1604129e-05
-2.1050707e-05
3.8405568e-12
-7.2353022e-05
-2.2971356e-05
3.412116e-12
-6.2602293e-05
-2.4157658e-05
3.1252534e-12
-5.2665949e-05
-2.4531824e-05
3.0400098e-12
-4.287383e-05
-2.4052346e-05
3.1086943e-12
-3.3555089e-05
-2.2720868e-05
3.3159997e-12
-2.5019602e-05
-2.05874e-05
3.680148e-12
-1.753804e-05
-1.7754e-05
4.1807598e-12
-1.1321397e-05
-1.4377673e-05
4.7387497e-12
-6.5006507e-06
-1.067416e-05
5.374633e-12
-3.1074721e-06
-6.9249641e-06
6.2481939e-12
-1.0576994e-06
-3.4877721e-06
6.6355805e-12
-1.3982156e-07
-8.1302166e-07
5.4940945e-12
4.8681701e-07
7.4994189e-12
-1.0184308e-06
1.6858836e-06
8.8012761e-12
-3.9214408e-06
6.5418557e-06
3.0471008e-11
-8.5538365e-06
1.1787914e-05
2.5355384e-11
-1.4732349e-05
1.6798826e-05
2.6091189e-11
-2.2242447e-05
2.1237863e-05
2.8275432e-11
-3.0848845e-05
2.4930789e-05
2.782685e-11
-4.0307381e-05
2.7811584e-05
2.6009199e-11
-5.0374675e-05
2.9880679e-05
2.3471468e-11
-6.0814355e-05
3.1172499e-05
2.0584344e-11
-7.1399917e-05
3.1733779e-05
1.7775978e-11
-8.1914998e-05
3.1610377e-05
1.5350844e-11
-9.2152146e-05
3.0840384e-05
1.3287275e-11
-0.000101911
2.9451962e-05
1.154056e-11
-0.0001109968
2.7464605e-05
1.0077606e-11
-0.00011921974
2.4892789e-05
8.8991559e-12
-0.00012639576
2.1751108e-05
8.0455649e-12
-0.00013234878
1.8060169e-05
7.5437746e-12
-0.0001369147
1.3852577e-05
7.2483172e-12
-0.0001399467
9.1784722e-06
7.0717021e-12
-0.00014132189
4.1101003e-06
6.9307919e-12
-0.00014094875
-1.2550826e-06
6.7976993e-12
-0.00013877473
-6.7934371e-06
6.6794442e-12
-0.00013479392
-1.2355072e-05
6.6061701e-12
-0.00012905345
-1.7768095e-05
6.5710732e-12
-0.00012165836
-2.2843991e-05
6.5135073e-12
-0.00011277409
-2.7385845e-05
6.4101353e-12
-0.00010262607
-3.1198727e-05
6.2449073e-12
-9.1495726e-05
-3.4101702e-05
6.0658115e-12
-7.9712612e-05
-3.5940775e-05
5.9075676e-12
-6.7642592e-05
-3.6601848e-05
5.8173e-12
-5.5672209e-05
-3.6022733e-05
5.8135935e-12
-4.4189766e-05
-3.4203316e-05
5.8616474e-12
-3.3563933e-05
-3.1213238e-05
5.96474e-12
-2.4120969e-05
-2.719697e-05
6.103722e-12
-1.612186e-05
-2.2376788e-05
6.1826935e-12
-9.7408537e-06
-1.7055173e-05
6.352505e-12
-5.0471539e-06
-1.1618672e-05
7.0943494e-12
-1.992237e-06
-6.542698e-06
6.7624751e-12
-4.0534329e-07
-2.3999202e-06
3.3712694e-12
8.1462581e-08
9.4424427e-12
-1.3646005e-06
3.0504774e-06
1.1790322e-11
-5.1037865e-06
1.0280998e-05
3.7820162e-11
-1.0913293e-05
1.7597399e-05
2.7243986e-11
-1.8502932e-05
2.4388443e-05
2.566574e-11
-2.7583773e-05
3.0318676e-05
2.7195191e-11
-3.786829e-05
3.521528e-05
2.6083195e-11
-4.9074026e-05
3.9017296e-05
2.3788168e-11
-6.0927331e-05
4.1733961e-05
2.1164791e-11
-7.3165734e-05
4.3410885e-05
1.8510713e-11
-8.5538511e-05
4.410654e-05
1.6071276e-11
-9.7805686e-05
4.3877537e-05
1.3945945e-11
-0.00010973616
4.2770844e-05
1.2094827e-11
-0.00012110566
4.0821452e-05
1.0493776e-11
-0.00013169523
3.805416e-05
9.189564e-12
-0.00014129074
3.4488288e-05
8.2037244e-12
-0.0001496839
3.0144266e-05
7.5131685e-12
-0.00015667492
2.5051173e-05
7.1541009e-12
-0.00016207677
1.925442e-05
6.9864204e-12
-0.00016572117
1.282286e-05
6.8822795e-12
-0.00016746576
5.8546917e-06
6.7763887e-12
-0.00016720231
-1.5185464e-06
6.737893e-12
-0.00016486503
-9.1307153e-06
6.7487556e-12
-0.00016043944
-1.6780667e-05
6.747935e-12
-0.00015396967
-2.4237875e-05
6.7888657e-12
-0.00014556444
-3.1249228e-05
6.7776459e-12
-0.00013540066
-3.7549631e-05
6.7068487e-12
-0.00012372383
-4.2875559e-05
6.5765869e-12
-0.00011084461
-4.6980926e-05
6.4435347e-12
-9.7130989e-05
-4.9654397e-05
6.3010254e-12
-8.2995859e-05
-5.0736981e-05
6.2101382e-12
-6.8880023e-05
-5.0138574e-05
6.2002768e-12
-5.5231215e-05
-4.7852128e-05
6.2307083e-12
-4.2480103e-05
-4.3964355e-05
6.3027758e-12
-3.1014706e-05
-3.8662374e-05
6.3901722e-12
-2.1155046e-05
-3.2236454e-05
6.3759106e-12
-1.3130174e-05
-2.5080053e-05
6.5217763e-12
-7.0599965e-06
-1.7688859e-05
7.562445e-12
-2.9447811e-06
-1.0657923e-05
6.8116046e-12
-6.6539585e-07
-4.6793093e-06
1.1426318e-12
-5.8394734e-07
1.1297885e-11
-1.6865035e-06
4.7369747e-06
1.0650549e-11
-6.2251322e-06
1.4819586e-05
4.0984447e-11
-1.3173474e-05
2.4545716e-05
2.6507731e-11
-2.2135129e-05
3.3350074e-05
2.3816631e-11
-3.2743343e-05
4.0926865e-05
2.5272575e-11
-4.4654861e-05
4.7126773e-05
2.3809367e-11
-5.754716e-05
5.1909573e-05
2.138407e-11
-7.111681e-05
5.5303591e-05
1.9002838e-11
-8.5077785e-05
5.7371842e-05
1.6749246e-11
-9.9159192e-05
5.818793e-05
1.4678517e-11
-0.00011310243
5.7820757e-05
1.2804727e-11
-0.00012665814
5.6326539e-05
1.1156644e-11
-0.0001395835
5.3746798e-05
9.74149e-12
-0.00015164032
5.0110975e-05
8.6186438e-12
-0.00016259446
4.5442415e-05
7.8429868e-12
-0.00017221675
3.9766553e-05
7.3232415e-12
-0.0001802858
3.3120211e-05
7.0225411e-12
-0.00018659247
2.5561082e-05
6.8602053e-12
-0.00019094616
1.7176539e-05
6.7817417e-12
-0.00019318253
8.0910641e-06
6.7120278e-12
-0.00019317236
-1.5287273e-06
6.6898696e-12
-0.00019083062
-1.147246e-05
6.6988282e-12
-0.00018612679
-2.1484505e-05
6.7448676e-12
-0.00017909346
-3.1271215e-05
6.7448427e-12
-0.00016983387
-4.050882e-05
6.7156781e-12
-0.00015852725
-4.885626e-05
6.6112587e-12
-0.00014543079
-5.5972018e-05
6.5077151e-12
-0.00013087757
-6.1534147e-05
6.3997956e-12
-0.00011526947
-6.5262501e-05
6.2658611e-12
-9.9064718e-05
-6.6941735e-05
6.1601501e-12
-8.2759964e-05
-6.6443332e-05
6.1244275e-12
-6.6867342e-05
-6.3744756e-05
6.1469285e-12
-5.1887683e-05
-5.8944019e-05
6.2270447e-12
-3.8281644e-05
-5.2268419e-05
6.3177106e-12
-2.6441069e-05
-4.4077036e-05
6.2825366e-12
-1.6663333e-05
-3.4857798e-05
6.4920844e-12
-9.1316345e-06
-2.5220568e-05
7.9265156e-12
-3.9044185e-06
-1.588515e-05
6.841486e-12
-9.1712488e-07
-7.6666061e-06
-1.0718226e-12
-1.5010887e-06
1.3288086e-11
-1.9866234e-06
6.7235929e-06
7.0558099e-12
-7.283674e-06
2.0116593e-05
4.1880039e-11
-1.5323335e-05
3.2585359e-05
2.4350853e-11
-2.5607895e-05
4.3634607e-05
2.0846236e-11
-3.7693419e-05
5.3012367e-05
2.2393032e-11
-5.1180112e-05
6.0613444e-05
2.086964e-11
-6.5704874e-05
6.6434315e-05
1.8611579e-11
-8.0935128e-05
7.0533826e-05
1.6614085e-11
-9.6563281e-05
7.2999978e-05
1.4748436e-11
-0.00011230146
7.3926091e-05
1.2966248e-11
-0.00012787645
7.3395735e-05
1.132654e-11
-0.00014302512
7.1475194e-05
9.9126675e-12
-0.00015749059
6.8212258e-05
8.7355652e-12
-0.00017101965
6.364002e-05
7.8212214e-12
-0.00018336162
5.7784369e-05
7.2551954e-12
-0.000194269
5.0673933e-05
6.9457101e-12
-0.00020350009
4.235129e-05
6.761094e-12
-0.0002108234
3.2884383e-05
6.6216951e-12
-0.00021602406
2.2377191e-05
6.5726438e-12
-0.00021891198
1.0978981e-05
6.5108964e-12
-0.00021933225
-1.1084655e-06
6.4714013e-12
-0.00021717168
-1.3633029e-05
6.7068662e-12
-0.00021237579
-2.6280407e-05
6.8381916e-12
-0.00020495573
-3.8691277e-05
6.8914613e-12
-0.00019499894
-5.0465622e-05
6.8268032e-12
-0.0001826769
-6.1178305e-05
6.7411254e-12
-0.00016824968
-7.0399237e-05
6.6697923e-12
-0.00015206603
-7.7717802e-05
6.5753381e-12
-0.00013455793
-8.2770599e-05
6.4580367e-12
-0.00011622887
-8.5270807e-05
6.3584005e-12
-9.7635299e-05
-8.5036905e-05
6.3075705e-12
-7.9361864e-05
-8.2018196e-05
6.3043013e-12
-6.1991353e-05
-7.6314536e-05
6.3553724e-12
-4.6071638e-05
-6.818814e-05
6.4054412e-12
-3.2082397e-05
-5.8066284e-05
6.3056211e-12
-2.0405013e-05
-4.6535191e-05
6.5373596e-12
-1.1299187e-05
-3.4326405e-05
8.3407736e-12
-4.8897806e-06
-2.2294568e-05
6.9001474e-12
-1.1668963e-06
-1.1389492e-05
-3.2924645e-12
-2.6680027e-06
1.5275181e-11
-2.2677692e-06
8.9913618e-06
2.5087172e-12
-8.2824295e-06
2.6131203e-05
4.1722851e-11
-1.7362339e-05
4.1665249e-05
2.1415109e-11
-2.8915144e-05
5.5187391e-05
1.7237174e-11
-4.2422937e-05
6.652014e-05
1.9118229e-11
-5.7430753e-05
7.5621241e-05
1.7846447e-11
-7.3535824e-05
8.2539367e-05
1.5903464e-11
-9.0377709e-05
8.7375693e-05
1.4248962e-11
-0.00010762931
9.0251558e-05
1.2691568e-11
-0.00012498862
9.1285395e-05
1.1196222e-11
-0.00014217137
9.0578473e-05
9.8169261e-12
-0.00015890453
8.8208339e-05
8.646354e-12
-0.00017492113
8.4228849e-05
7.7299335e-12
-0.00018995658
7.8675466e-05
7.0633723e-12
-0.00020374673
7.1574512e-05
6.6788138e-12
-0.00021602785
6.2955046e-05
6.4749023e-12
-0.00022653871
5.2862142e-05
6.3570097e-12
-0.00023502477
4.1370442e-05
6.3174723e-12
-0.00024124447
2.8596889e-05
6.3805729e-12
-0.00024497668
1.4711181e-05
6.3627748e-12
-0.00024603747
-4.7683981e-08
6.3004016e-12
-0.00024427291
-1.5397595e-05
6.6871802e-12
-0.00023959777
-3.0955549e-05
6.951104e-12
-0.00023198983
-4.6299233e-05
7.0495139e-12
-0.00022150903
-6.0946428e-05
7.0335926e-12
-0.00020830778
-7.437956e-05
6.994629e-12
-0.00019263888
-8.6068145e-05
6.9305783e-12
-0.00017485893
-9.549775e-05
6.8271673e-12
-0.00015542567
-0.00010220387
6.7106506e-12
-0.00013488774
-0.00010580874
6.6101769e-12
-0.00011386632
-0.00010605833
6.5352531e-12
-9.3028429e-05
-0.0001028561
6.4908298e-12
-7.3053198e-05
-9.6289774e-05
6.503275e-12
-5.4593429e-05
-8.6647917e-05
6.5199766e-12
-3.8235892e-05
-7.4423828e-05
6.3538763e-12
-2.4464548e-05
-6.0306543e-05
6.6016406e-12
-1.3630978e-05
-4.5159986e-05
8.8001588e-12
-5.9360952e-06
-2.9989461e-05
6.9872747e-12
-1.4260611e-06
-1.5899524e-05
-5.5721611e-12
-4.094082e-06
1.7350722e-11
-2.5319963e-06
1.1523364e-05
-2.2494732e-12
-9.2245279e-06
3.2823688e-05
4.0999149e-11
-1.9292054e-05
5.1732756e-05
1.8073777e-11
-3.2054746e-05
6.7950069e-05
1.3504462e-11
-4.6925324e-05
8.1390701e-05
1.597168e-11
-6.3396543e-05
9.2092442e-05
1.503947e-11
-8.1028071e-05
0.00010017088
1.3375818e-11
-9.9433637e-05
0.00010578124
1.2014893e-11
-0.000118269
0.0001090869
1.0708345e-11
-0.00013722092
0.0001102373
9.4616647e-12
-0.00015599738
0.00010935492
8.3382508e-12
-0.00017431909
0.00010653005
7.4552858e-12
-0.00019191271
0.00010182246
6.8407616e-12
-0.00020850571
9.5268459e-05
6.4130512e-12
-0.00022382335
8.6892141e-05
6.1604018e-12
-0.00023758766
7.6719355e-05
6.0038916e-12
-0.00024951876
6.4793238e-05
5.9158294e-12
-0.00025933838
5.1190058e-05
5.9172817e-12
-0.00026677584
3.6034345e-05
6.0392211e-12
-0.00027157716
1.9512498e-05
6.3767199e-12
-0.00027350906
1.8842109e-06
6.8524395e-12
-0.00027239037
-1.6516294e-05
6.8484126e-12
-0.00026808067
-3.5265258e-05
6.955824e-12
-0.00026051481
-5.3865103e-05
7.1127304e-12
-0.00024971235
-7.1748895e-05
7.1946906e-12
-0.00023579346
-8.829846e-05
7.2174061e-12
-0.00021899147
-0.00010287014
7.1915326e-12
-0.00019966092
-0.00011482831
7.1128164e-12
-0.00017827887
-0.00012358592
7.0060246e-12
-0.00015543764
-0.00012864998
6.8897181e-12
-0.00013182732
-0.00012966866
6.7658671e-12
-0.00010820767
-0.00012647575
6.6629366e-12
-8.5370232e-05
-0.00011912722
6.6359351e-12
-6.4093201e-05
-0.00010792496
6.628088e-12
-4.5093238e-05
-9.3423799e-05
6.3980308e-12
-2.8979325e-05
-7.6420465e-05
6.6676888e-12
-1.6214125e-05
-5.7925196e-05
9.3055541e-12
-7.0879063e-06
-3.9115689e-05
7.0871818e-12
-1.7082497e-06
-2.1279173e-05
-8.0288938e-12
-5.8023509e-06
1.9620585e-11
-2.7803238e-06
1.4303695e-05
-7.0544598e-12
-1.0111318e-05
4.0154633e-05
4.0016987e-11
-2.1112152e-05
6.2733578e-05
1.4828315e-11
-3.5022662e-05
8.1860566e-05
1.003686e-11
-5.1191444e-05
9.7559469e-05
1.3131896e-11
-6.9062789e-05
0.00010996377
1.2509933e-11
-8.8161752e-05
0.00011926983
1.1052492e-11
-0.00010807887
0.00012569835
9.918521e-12
-0.00012845548
0.0001294635
8.8478062e-12
-0.00014897011
0.00013075193
7.8691194e-12
-0.00016932634
0.00012971114
7.0113518e-12
-0.00018924224
0.00012644594
6.3783744e-12
-0.00020844171
0.00012102192
5.9967147e-12
-0.00022664779
0.00011347454
5.7435563e-12
-0.00024357818
0.00010382253
5.5917302e-12
-0.00025894295
9.2084129e-05
5.5269186e-12
-0.00027244473
7.8295016e-05
5.5473662e-12
-0.00028378131
6.252663e-05
5.6024632e-12
-0.00029265094
4.4903974e-05
5.8072297e-12
-0.0002987603
2.5621859e-05
6.1458339e-12
-0.00030183443
4.9583336e-06
6.6407497e-12
-0.00030163449
-1.6716246e-05
6.8562888e-12
-0.00029796803
-3.8931725e-05
7.054288e-12
-0.0002907116
-6.1121545e-05
7.2638969e-12
-0.00027982981
-8.2630691e-05
7.3844628e-12
-0.0002653953
-0.00010273297
7.4448168e-12
-0.00024760697
-0.00012065847
7.4631169e-12
-0.00022680405
-0.00013563124
7.4240215e-12
-0.00020347318
-0.00014691681
7.3344787e-12
-0.00017824566
-0.00015387751
7.196556e-12
-0.00015188242
-0.0001560319
7.0160932e-12
-0.00012524531
-0.00015311288
6.8526392e-12
-9.9254931e-05
-0.00014511761
6.7899605e-12
-7.4837737e-05
-0.00013234216
6.74776e-12
-5.2866941e-05
-0.0001153946
6.4335957e-12
-3.4103928e-05
-9.5183486e-05
6.7267432e-12
-1.9147122e-05
-7.2882012e-05
9.8535547e-12
-8.3951227e-06
-4.9867695e-05
7.1883702e-12
-2.0282267e-06
-2.7646058e-05
-1.0817052e-11
-7.8305994e-06
2.218658e-11
-3.0127379e-06
1.7316449e-05
-1.1592002e-11
-1.0941724e-05
4.8083569e-05
3.9165116e-11
-2.2818718e-05
7.4610567e-05
1.2019508e-11
-3.781014e-05
9.6851977e-05
7.0450013e-12
-5.5205958e-05
0.00011495528
1.0636749e-11
-7.4406246e-05
0.00012916405
1.0208077e-11
-9.4904867e-05
0.00013976844
8.889904e-12
-0.00011627218
0.00014706566
7.9619991e-12
-0.00013813807
0.00015132938
7.1471757e-12
-0.000160176
0.00015278985
6.4521723e-12
-0.00018208854
0.00015162368
5.8761249e-12
-0.00020359477
0.00014795217
5.4604405e-12
-0.00022441964
0.00014184678
5.210586e-12
-0.0002442855
0.00013334039
5.0287398e-12
-0.00026290593
0.00012244296
4.9236713e-12
-0.00027998198
0.00010916018
4.9613667e-12
-0.00029520082
9.3513852e-05
5.1012019e-12
-0.00030823714
7.556294e-05
5.3138754e-12
-0.00031875739
5.5424225e-05
5.5551459e-12
-0.00032642718
3.3291642e-05
5.9275184e-12
-0.00033092204
9.4531913e-06
6.3751513e-12
-0.0003319423
-1.5695996e-05
6.770318e-12
-0.00032923025
-4.1643788e-05
7.1282563e-12
-0.00032259209
-6.7759708e-05
7.4082229e-12
-0.00031192205
-9.330073e-05
7.5872506e-12
-0.00029722793
-0.00011742711
7.7105116e-12
-0.00027865606
-0.00013923035
7.7848882e-12
-0.00025651305
-0.00015777426
7.7815565e-12
-0.00023128053
-0.00017214933
7.6951752e-12
-0.00020361929
-0.00018153877
7.5257003e-12
-0.00017435874
-0.00018529246
7.2948781e-12
-0.0001444693
-0.00018300233
7.0802142e-12
-0.00011501659
-0.00017457032
6.9707014e-12
-8.7099809e-05
-0.00016025895
6.8744752e-12
-6.177946e-05
-0.00014071496
6.4575828e-12
-4.0002645e-05
-0.00011696031
6.7820869e-12
-2.2535323e-05
-9.0349345e-05
1.0470311e-11
-9.9109422e-06
-6.2492083e-05
7.3065049e-12
-2.401447e-06
-3.5155539e-05
-1.4060391e-11
-1.0232072e-05
2.5176754e-11
-3.2283258e-06
2.0544794e-05
-1.5613571e-11
-1.1712287e-05
5.6567485e-05
3.8671477e-11
-2.4403919e-05
8.7302192e-05
9.6805573e-12
-4.0402932e-05
0.00011285098
4.45906e-12
-5.8946115e-05
0.00013349845
8.4246318e-12
-7.9393645e-05
0.00014961157
8.1381823e-12
-0.00010121173
0.00016158652
6.9432706e-12
-0.00012395369
0.00016980761
6.2121768e-12
-0.000147241
0.00017461669
5.6337071e-12
-0.00017074524
0.00017629408
5.1770058e-12
-0.00019417148
0.00017504991
4.837873e-12
-0.00021724355
0.00017102423
4.627316e-12
-0.00023969144
0.00016429467
4.494939e-12
-0.00026124097
0.00015488991
4.3763574e-12
-0.00028160572
0.00014280771
4.33625e-12
-0.00030048148
0.00012803594
4.4504224e-12
-0.00031754324
0.00011057561
4.68277e-12
-0.00033244495
9.0464646e-05
5.0252911e-12
-0.00034482239
6.780166e-05
5.4046313e-12
-0.00035429946
4.2768712e-05
5.8124886e-12
-0.00036049846
1.5652183e-05
6.2704802e-12
-0.00036305489
-1.3139574e-05
6.7268277e-12
-0.00036163615
-4.306254e-05
7.1458467e-12
-0.00035596592
-7.342994e-05
7.4816847e-12
-0.0003458523
-0.00010341435
7.7491246e-12
-0.00033121924
-0.00013206018
7.9749132e-12
-0.00031213921
-0.00015831038
8.1304607e-12
-0.00028886408
-0.0001810494
8.17282e-12
-0.00026184989
-0.00019916353
8.0946652e-12
-0.0002317706
-0.00021161806
7.9036999e-12
-0.00019951533
-0.00021754774
7.6306499e-12
-0.00016616439
-0.00021635328
7.361255e-12
-0.00013294163
-0.0002077931
7.1852374e-12
-0.00010114394
-0.00019205665
7.0121248e-12
-7.205367e-05
-0.00016980523
6.471901e-12
-4.6843709e-05
-0.00014217028
6.8360595e-12
-2.6487987e-05
-0.00011070508
1.1199422e-11
-1.1690771e-05
-7.7289307e-05
7.4558207e-12
-2.8439245e-06
-4.4002369e-05
-1.7870664e-11
-1.3076028e-05
2.871373e-11
-3.4254811e-06
2.3970296e-05
-1.9058835e-11
-1.2417636e-05
6.5559595e-05
3.8444419e-11
-2.5856607e-05
0.00010074116
7.6730298e-12
-4.2781933e-05
0.0001297763
2.177379e-12
-6.2382405e-05
0.00015309892
6.4748305e-12
-8.3982382e-05
0.00017121154
6.3304363e-12
-0.00010702376
0.0001846279
5.2826983e-12
-0.00013104581
0.00019382965
4.7625134e-12
-0.00015566453
0.00019923541
4.387637e-12
-0.00018055273
0.00020118227
4.0938076e-12
-0.00020542138
0.00019991855
3.86589e-12
-0.00023000293
0.00019560578
3.7657354e-12
-0.00025403669
0.00018832842
3.7265575e-12
-0.0002772565
0.00017810972
3.7115359e-12
-0.00029938077
0.00016493198
3.7963719e-12
-0.00032010496
0.00014876012
3.9672297e-12
-0.0003390966
0.00012956725
4.2721853e-12
-0.00035599321
0.00010736124
4.6779203e-12
-0.00037040324
8.2211693e-05
5.1073647e-12
-0.00038191093
5.4276398e-05
5.5984652e-12
-0.00039008528
2.3826531e-05
6.1194364e-12
-0.00039449442
-8.7304472e-06
6.615946e-12
-0.00039472458
-4.2832391e-05
7.1127661e-12
-0.00039040663
-7.7747892e-05
7.53168e-12
-0.00038124752
-0.00011257347
7.902327e-12
-0.00036706754
-0.00014624017
8.2352122e-12
-0.00034784115
-0.00017753677
8.4770934e-12
-0.00032373841
-0.00020515215
8.5789102e-12
-0.00029516212
-0.00022773983
8.5288782e-12
-0.00026277464
-0.00024400555
8.3298496e-12
-0.00022750694
-0.00025281545
8.0194281e-12
-0.00019054256
-0.00025331767
7.6821676e-12
-0.00015327121
-0.00024506446
7.427044e-12
-0.00011721086
-0.000228117
7.16821e-12
-8.3903183e-05
-0.00020311292
6.4783596e-12
-5.4794066e-05
-0.0001712794
6.8807032e-12
-3.1116026e-05
-0.00013438313
1.2069683e-11
-1.3791621e-05
-9.4613721e-05
7.6356611e-12
-3.372251e-06
-5.4421721e-05
-2.2387856e-11
-1.6448313e-05
3.290889e-11
-3.6021819e-06
2.7572503e-05
-2.1996735e-11
-1.3051241e-05
7.5008608e-05
3.8340512e-11
-2.7163604e-05
0.00011485351
5.9148632e-12
-4.4924935e-05
0.00014753763
1.5658657e-13
-6.5480722e-05
0.0001736547
4.7766578e-12
-8.8123068e-05
0.00019385388
4.7825313e-12
-0.00011227244
0.00020877726
3.8891737e-12
-0.00013745661
0.00021901382
3.5791697e-12
-0.00016328873
0.00022506753
3.3816412e-12
-0.00018944569
0.00022733923
3.2178789e-12
-0.00021564769
0.00022612055
3.0462936e-12
-0.00024163963
0.00022159771
2.9773488e-12
-0.00026717453
0.00021386332
2.9892744e-12
-0.00029199932
0.0002029345
3.0675616e-12
-0.00031584283
0.00018877548
3.279642e-12
-0.00033840627
0.00017132356
3.5928476e-12
-0.00035935615
0.00015051712
3.9251383e-12
-0.00037831996
0.00012632504
4.3210925e-12
-0.00039488503
9.8776766e-05
4.783179e-12
-0.00040860119
6.7992549e-05
5.3237328e-12
-0.00041898782
3.421316e-05
5.8738514e-12
-0.00042554702
-2.1712529e-06
6.4026308e-12
-0.00042778142
-4.0597997e-05
7.0214726e-12
-0.00042522223
-8.0307094e-05
7.5580209e-12
-0.00041746247
-0.00012033323
8.0465124e-12
-0.00040419957
-0.00015950307
8.4840387e-12
-0.00038528417
-0.00019645218
8.8134036e-12
-0.00036077292
-0.00022966341
8.9823545e-12
-0.00033098029
-0.00025753247
8.9752167e-12
-0.0002965222
-0.00027846365
8.7813059e-12
-0.00025834195
-0.00029099571
8.4285474e-12
-0.00021770806
-0.00029395157
8.0148022e-12
-0.00017617461
-0.00028659792
7.6824995e-12
-0.00013549916
-0.00026879246
7.3317202e-12
-9.7521171e-05
-0.00024109092
6.4526826e-12
-6.4013637e-05
-0.00020478694
6.8906732e-12
-3.6529758e-05
-0.00016186702
1.3085973e-11
-1.6271652e-05
-0.00011487184
7.8551731e-12
-4.0036766e-06
-6.6689671e-05
-2.7770054e-11
-2.0452027e-05
3.7892978e-11
-3.756333e-06
3.1328865e-05
-2.4513522e-11
-1.3606464e-05
8.4858691e-05
3.831995e-11
-2.8311589e-05
0.00012955864
4.4644905e-12
-4.6809337e-05
0.00016603538
-1.5240313e-12
-6.8205853e-05
0.00019505121
3.3771398e-12
-9.1763743e-05
0.00021741177
3.5242755e-12
-0.00011688417
0.00023389768
2.7364543e-12
-0.00014308539
0.00024521504
2.5503919e-12
-0.00016997979
0.00025196192
2.4541876e-12
-0.00019725082
0.00025461026
2.3810181e-12
-0.00022463096
0.00025350068
2.2900697e-12
-0.00025188126
0.000248848
2.2694673e-12
-0.00027877301
0.00024075507
2.3603656e-12
-0.00030507158
0.00022923307
2.5274384e-12
-0.00033052255
0.00021422645
2.7828339e-12
-0.0003548401
0.0001956411
3.1508739e-12
-0.00037769777
0.00017337479
3.5483367e-12
-0.00039872185
0.00014734911
3.9953989e-12
-0.00041748766
0.00011754257
4.4901785e-12
-0.00043351961
8.4024498e-05
5.0538152e-12
-0.00044629573
4.6989275e-05
5.654038e-12
-0.00045525745
6.790463e-06
6.3369731e-12
-0.00045982794
-3.6027505e-05
6.9316973e-12
-0.00045943598
-8.0699057e-05
7.5471293e-12
-0.00045355235
-0.00012621687
8.1465148e-12
-0.00044173505
-0.00017132038
8.6872323e-12
-0.00042368529
-0.00021450195
9.1153977e-12
-0.00039931163
-0.00025403708
9.3653878e-12
-0.00036879814
-0.00028804598
9.4211976e-12
-0.00033266845
-0.00031459335
9.2454525e-12
-0.00029183464
-0.00033182952
8.8566404e-12
-0.0002476166
-0.00033816962
8.3699887e-12
-0.00020171723
-0.0003324973
7.959569e-12
-0.00015614275
-0.00031436695
7.4937735e-12
-0.00011306646
-0.00028416722
6.3742618e-12
-7.4648143e-05
-0.00024320527
6.8553849e-12
-4.2836103e-05
-0.00019367908
1.4253005e-11
-1.918957e-05
-0.00013851838
8.1147058e-12
-4.7561865e-06
-8.1123021e-05
-3.4177288e-11
-2.5208255e-05
4.3804852e-11
-3.8861719e-06
3.5215066e-05
-2.6661716e-11
-1.407786e-05
9.5050334e-05
3.8312809e-11
-2.9289511e-05
0.00014477029
3.2816699e-12
-4.8415728e-05
0.0001851616
-2.8451938e-12
-7.0526176e-05
0.00021716166
2.3089041e-12
-9.4855619e-05
0.00024174121
2.5653806e-12
-0.00012078709
0.00025982915
1.8260981e-12
-0.00014783046
0.00027225842
1.6753306e-12
-0.00017559884
0.00027973029
1.6106297e-12
-0.00020378423
0.00028279566
1.5803052e-12
-0.00023213408
0.00028185052
1.584571e-12
-0.00026042909
0.00027714302
1.6612535e-12
-0.00028846331
0.00026878929
1.8444894e-12
-0.00031602617
0.00025679593
2.0995287e-12
-0.00034288682
0.0002410871
2.3970903e-12
-0.00036878063
0.00022153491
2.7995038e-12
-0.00039339779
0.00019799195
3.2313622e-12
-0.00041637433
0.00017032564
3.6857823e-12
-0.00043728571
0.00013845395
4.1929846e-12
-0.00045564379
0.00010238258
4.782204e-12
-0.00047089795
6.2243433e-05
5.4225056e-12
-0.00048244161
1.8334114e-05
6.1279534e-12
-0.00048962639
-2.8842727e-05
6.8088605e-12
-0.00049178416
-7.85413e-05
7.50727e-12
-0.00048826118
-0.00012973985
8.1998957e-12
-0.00047846477
-0.0001811168
8.8357155e-12
-0.00046192398
-0.00023104276
9.3630182e-12
-0.0004383641
-0.00027759697
9.7266319e-12
-0.00040779138
-0.0003186187
9.8692615e-12
-0.00037058076
-0.00035180398
9.7331511e-12
-0.00032755377
-0.00037485652
9.3290086e-12
-0.00028002878
-0.00038569462
8.7752161e-12
-0.00022982245
-0.00038270365
8.2666662e-12
-0.00017918299
-0.00036500642
7.6464366e-12
-0.00013064579
-0.00033270442
6.2306439e-12
-8.6819614e-05
-0.00028703146
6.7568434e-12
-5.0134674e-05
-0.00023036404
1.5574124e-11
-2.2603664e-05
-0.00016604939
8.3824892e-12
-5.6485166e-06
-9.8078125e-05
-4.1767962e-11
-3.0856821e-05
5.0762629e-11
-3.9907518e-06
3.9205847e-05
-2.8361168e-11
-1.4462762e-05
0.0001055223
3.8367375e-11
-3.0091546e-05
0.00016039907
2.3363499e-12
-4.9732286e-05
0.00020480235
-3.9096902e-12
-7.2419455e-05