/*--------------------------------*- C++ -*----------------------------------*\
  =========                 |
  \\      /  F ield         | OpenFOAM: The Open Source CFD Toolbox
   \\    /   O peration     | Website:  https://openfoam.org
    \\  /    A nd           | Version:  7
     \\/     M anipulation  |
\*---------------------------------------------------------------------------*/
FoamFile
{
    version     2.0;
    format      ascii;
    class       volVectorField;
    location    "4";
    object      U;
}
// * * * * * * * * * * * * * * * * * * * * * * * * * * * * * * * * * * * * * //

dimensions      [0 1 -1 0 0 0 0];

internalField   nonuniform List<vector> 
16000
(
(5.1413445e-05 -5.1768884e-05 -4.4632548e-07)
(0.00011682744 -3.7362225e-05 4.727898e-06)
(7.7081352e-05 1.0939371e-05 1.5308653e-05)
(-0.00010413809 6.0042158e-05 2.8627252e-05)
(-0.00041906737 0.00010282497 4.1771831e-05)
(-0.00084285748 0.00013585301 5.3382423e-05)
(-0.0013517605 0.00015957791 6.2384258e-05)
(-0.0019222533 0.0001754946 6.8136619e-05)
(-0.0025334266 0.00018507665 7.0295915e-05)
(-0.0031673154 0.00018952278 6.8696573e-05)
(-0.003808399 0.00018970301 6.3279338e-05)
(-0.0044429532 0.0001861736 5.404861e-05)
(-0.0050584047 0.00017922319 4.1049491e-05)
(-0.0056427683 0.00016892945 2.4361786e-05)
(-0.0061842385 0.00015522932 4.1049234e-06)
(-0.006670951 0.00013799355 -1.95495e-05)
(-0.0070909346 0.00011709633 -4.636015e-05)
(-0.0074322694 9.2484434e-05 -7.5997556e-05)
(-0.0076834296 6.4245012e-05 -0.00010802787)
(-0.0078337893 3.2663545e-05 -0.00014190089)
(-0.0078742697 -1.7338166e-06 -0.00017694511)
(-0.0077980668 -3.8163352e-05 -0.00021237279)
(-0.0076014264 -7.5553915e-05 -0.00024729517)
(-0.0072843866 -0.00011258469 -0.00028075088)
(-0.006851395 -0.00014772735 -0.00031174542)
(-0.0063117506 -0.00017932077 -0.00033930121)
(-0.0056797891 -0.00020567125 -0.00036251584)
(-0.0049747478 -0.00022517003 -0.00038062432)
(-0.0042202794 -0.00023641809 -0.0003930605)
(-0.0034436095 -0.00023834526 -0.00039951229)
(-0.0026743706 -0.00023030968 -0.000399966)
(-0.001943176 -0.00021216614 -0.00039473562)
(-0.0012800143 -0.00018429795 -0.00038447626)
(-0.00071251263 -0.00014762939 -0.00037018288)
(-0.0002640288 -0.0001037021 -0.00035317501)
(4.8135359e-05 -5.4979359e-05 -0.00033504991)
(0.00021557721 -5.0608052e-06 -0.00031770496)
(0.00024234364 3.9892655e-05 -0.0003032057)
(0.00016009805 6.6568437e-05 -0.00029398847)
(4.9132202e-05 4.9041097e-05 -0.00027274954)
(3.903708e-05 -0.00011902844 -5.9240611e-06)
(-3.2010268e-06 4.8623487e-06 -6.120795e-07)
(-0.00031864068 0.00024634258 8.4346291e-06)
(-0.00094340654 0.00049847388 1.9129001e-05)
(-0.0018643892 0.00072466692 2.9754067e-05)
(-0.0030414804 0.00090892646 3.9055866e-05)
(-0.0044247981 0.0010486682 4.6131359e-05)
(-0.0059623612 0.0011469386 5.0385647e-05)
(-0.0076047107 0.0012084008 5.1450255e-05)
(-0.0093065613 0.001237633 4.911292e-05)
(-0.011026823 0.0012383991 4.3266751e-05)
(-0.012727902 0.0012133923 3.3876871e-05)
(-0.014374729 0.0011642605 2.0960568e-05)
(-0.015933816 0.0010917898 4.5804755e-06)
(-0.017372534 0.00099618746 -1.5152469e-05)
(-0.018658738 0.00087742265 -3.8069712e-05)
(-0.019760791 0.00073558558 -6.3931867e-05)
(-0.020648022 0.00057124412 -9.2414339e-05)
(-0.021291588 0.00038577635 -0.00012309441)
(-0.021665697 0.00018165068 -0.00015544222)
(-0.021749139 -3.736973e-05 -0.00018881789)
(-0.02152692 -0.00026610963 -0.00022248086)
(-0.020992005 -0.0004979936 -0.00025559964)
(-0.020146946 -0.0007251828 -0.00028728382)
(-0.019005172 -0.00093885775 -0.00031661958)
(-0.017591856 -0.0011296401 -0.0003427165)
(-0.015944187 -0.0012881342 -0.0003647614)
(-0.014110901 -0.001405554 -0.00038207535)
(-0.01215101 -0.0014743874 -0.00039416925)
(-0.010131725 -0.0014890378 -0.00040079311)
(-0.0081256133 -0.0014463838 -0.00040197437)
(-0.0062070996 -0.0013462126 -0.00039804094)
(-0.0044484681 -0.0011915152 -0.00038962757)
(-0.0029154776 -0.00098870502 -0.00037766469)
(-0.0016626382 -0.00074797547 -0.00036335133)
(-0.00072796753 -0.00048421889 -0.00034811607)
(-0.00012653556 -0.00021858275 -0.00033355989)
(0.00015474812 1.7088256e-05 -0.0003212422)
(0.00017645783 0.00017250813 -0.00031318713)
(6.7036347e-05 0.00015929027 -0.00028926799)
(-8.8352041e-06 -8.2011613e-05 -1.6815578e-05)
(-0.00024965184 0.00032042907 -9.6200887e-06)
(-0.00093731937 0.00092177497 -3.7110842e-07)
(-0.0020624549 0.0015435418 9.1969852e-06)
(-0.0035948185 0.0021067569 1.8296779e-05)
(-0.0054833094 0.0025754991 2.6003965e-05)
(-0.0076617441 0.0029388359 3.1645401e-05)
(-0.010059334 0.003198944 3.4769349e-05)
(-0.012606694 0.0033634417 3.5077312e-05)
(-0.015238258 0.0034412002 3.2384199e-05)
(-0.017892885 0.0034402053 2.6586865e-05)
(-0.020513445 0.0033666037 1.7641057e-05)
(-0.023045947 0.0032245087 5.5482253e-06)
(-0.025438586 0.0030162908 -9.6480768e-06)
(-0.027641026 0.002743169 -2.7858839e-05)
(-0.029604089 0.0024059833 -4.8940932e-05)
(-0.031279953 0.002006047 -7.2685059e-05)
(-0.032622903 0.0015460022 -9.8802917e-05)
(-0.033590621 0.0010306082 -0.0001269158)
(-0.034145931 0.00046739995 -0.00015654668)
(-0.034258902 -0.00013284267 -0.00018711817)
(-0.033909139 -0.00075584736 -0.00021795755)
(-0.033088124 -0.0013839563 -0.00024831134)
(-0.031801354 -0.0019964983 -0.00027737002)
(-0.03007005 -0.0025705369 -0.00030430217)
(-0.027932246 -0.0030819434 -0.00032829775)
(-0.02544304 -0.003506753 -0.00034861796)
(-0.02267385 -0.0038227258 -0.00036464826)
(-0.01971056 -0.0040109991 -0.00037594975)
(-0.016650544 -0.0040576992 -0.00038230428)
(-0.013598607 -0.003955381 -0.00038374816)
(-0.010661982 -0.0037041973 -0.00038059043)
(-0.0079445557 -0.0033127712 -0.00037341344)
(-0.005540531 -0.0027988708 -0.0003630546)
(-0.0035276814 -0.0021901823 -0.00035057003)
(-0.0019601938 -0.0015257756 -0.00033718457)
(-0.00086097113 -0.00085918025 -0.00032422555)
(-0.00021418525 -0.000264305 -0.00031302828)
(4.6247091e-05 0.00015728068 -0.00030496684)
(4.589067e-05 0.00024678566 -0.00028022886)
(-6.0860927e-05 0.00010231577 -3.0828246e-05)
(-0.000526065 0.00096529506 -2.0389365e-05)
(-0.0016275363 0.0020601309 -9.4907106e-06)
(-0.0032826047 0.0031604774 3.219271e-07)
(-0.005431777 0.0041538289 9.0815966e-06)
(-0.0080096949 0.0049850502 1.6156789e-05)
(-0.010935863 0.0056342484 2.1092902e-05)
(-0.014124825 0.0061017128 2.3606123e-05)
(-0.017492297 0.006397258 2.3504447e-05)
(-0.020957461 0.0065337287 2.0663531e-05)
(-0.024443708 0.0065233629 1.5010213e-05)
(-0.027878431 0.0063760154 6.5087994e-06)
(-0.031192297 0.0060986496 -4.8458995e-06)
(-0.034318423 0.0056956934 -1.9027868e-05)
(-0.03719178 0.0051699608 -3.5973737e-05)
(-0.03974904 0.0045239163 -5.5572447e-05)
(-0.041928985 0.0037610999 -7.7652294e-05)
(-0.043673532 0.0028875677 -0.00010196735)
(-0.044929363 0.0019132239 -0.00012818515)
(-0.045650063 0.00085292189 -0.00015587773)
(-0.045798637 -0.00027277099 -0.00018451829)
(-0.045350262 -0.0014372392 -0.00021348359)
(-0.044295043 -0.0026079809 -0.00024206801)
(-0.042640527 -0.0037473648 -0.00026950545)
(-0.040413712 -0.0048139573 -0.00029500188)
(-0.037662321 -0.0057644135 -0.00031777733)
(-0.034455085 -0.0065558585 -0.00033711497)
(-0.030880851 -0.0071486214 -0.00035241381)
(-0.027046361 -0.0075091414 -0.00036323966)
(-0.023072659 -0.0076128273 -0.00036937001)
(-0.019090165 -0.0074466516 -0.00037082657)
(-0.015232549 -0.0070113032 -0.00036789126)
(-0.011629633 -0.0063228222 -0.00036110291)
(-0.0083996004 -0.005413805 -0.00035123338)
(-0.0056408624 -0.004334501 -0.00033924341)
(-0.0034238747 -0.0031544837 -0.0003262242)
(-0.0017827424 -0.0019658917 -0.00031334354)
(-0.00070716358 -0.00088857614 -0.00030177112)
(-0.00014061805 -7.7764641e-05 -0.00029240131)
(1.2612157e-05 0.00024648396 -0.00026590935)
(-0.0001114742 0.00043897726 -4.503578e-05)
(-0.0008027744 0.0019563541 -3.1126961e-05)
(-0.0023262489 0.003675762 -1.8001599e-05)
(-0.0045182166 0.005348614 -7.3030706e-06)
(-0.0072813758 0.0068428163 1.7217375e-06)
(-0.010531484 0.0080905549 8.6897684e-06)
(-0.014172654 0.0090658748 1.3348535e-05)
(-0.018106005 0.009768089 1.5583542e-05)
(-0.02223497 0.010209239 1.5319038e-05)
(-0.026466762 0.01040592 1.2503562e-05)
(-0.030712767 0.010374409 7.1044629e-06)
(-0.034888271 0.010128164 -8.9825131e-07)
(-0.038911769 0.0096770287 -1.1512983e-05)
(-0.042704225 0.0090276736 -2.4731381e-05)
(-0.046188599 0.0081848572 -4.0518788e-05)
(-0.049289845 0.0071532122 -5.8801195e-05)
(-0.051935505 0.0059392814 -7.9450077e-05)
(-0.054056968 0.0045535869 -0.00010226667)
(-0.055591353 0.0030125406 -0.00012696741)
(-0.056483953 0.0013400188 -0.00015317241)
(-0.056691087 -0.00043156657 -0.00018039949)
(-0.056183171 -0.0022608379 -0.00020806553)
(-0.054947847 -0.0040976918 -0.00023549555)
(-0.05299286 -0.0058844816 -0.00026194454)
(-0.050348373 -0.0075579868 -0.00028662839)
(-0.04706851 -0.0090522181 -0.00030876575)
(-0.043231823 -0.010301952 -0.00032762802)
(-0.038940437 -0.011246803 -0.00034259377)
(-0.034317703 -0.011835588 -0.0003532023)
(-0.029504247 -0.012030653 -0.00035920054)
(-0.024652437 -0.011811865 -0.00036057701)
(-0.019919402 -0.011179953 -0.00035757785)
(-0.015458866 -0.010159052 -0.00035070135)
(-0.01141218 -0.0087984421 -0.0003406699)
(-0.0078991096 -0.0071737678 -0.00032837862)
(-0.0050089388 -0.0053883804 -0.00031483058)
(-0.0027914739 -0.0035756944 -0.00030109869)
(-0.0012487867 -0.0019024875 -0.00028825028)
(-0.00034308571 -0.00057427782 -0.00027676807)
(-2.1497055e-05 0.00013908382 -0.00024802349)
(-0.00015744721 0.0009177442 -5.7968989e-05)
(-0.0010660959 0.0032887561 -4.0348944e-05)
(-0.0030042547 0.0057689862 -2.4689061e-05)
(-0.0057260253 0.0081079913 -1.2701687e-05)
(-0.0090926739 0.010168101 -2.9909346e-06)
(-0.012997763 0.011877547 4.2664686e-06)
(-0.017328377 0.013209355 8.9973782e-06)
(-0.021972207 0.014164483 1.124652e-05)
(-0.026821663 0.014758382 1.105218e-05)
(-0.03177406 0.015011807 8.4375065e-06)
(-0.036731295 0.014945125 3.4132402e-06)
(-0.04159923 0.014575311 -4.0227295e-06)
(-0.046286845 0.013915001 -1.3881483e-05)
(-0.050705459 0.012973078 -2.6173718e-05)
(-0.054768295 0.01175633 -4.0896597e-05)
(-0.05839055 0.01027179 -5.8017379e-05)
(-0.061490124 0.0085294136 -7.7455187e-05)
(-0.063989018 0.0065448107 -9.9062212e-05)
(-0.065815409 0.0043417617 -0.00012260594)
(-0.066906324 0.001954302 -0.00014775413)
(-0.067210771 -0.00057187577 -0.0001740649)
(-0.066693082 -0.0031788851 -0.00020098579)
(-0.065336432 -0.0057968779 -0.00022785894)
(-0.063146155 -0.0083457173 -0.0002539417)
(-0.060152454 -0.010737572 -0.00027843592)
(-0.056412396 -0.012880679 -0.0003005305)
(-0.052010777 -0.014684117 -0.00031945417)
(-0.04705957 -0.01606337 -0.00033453308)
(-0.041695704 -0.016946324 -0.00034524925)
(-0.036077012 -0.017279322 -0.00035129214)
(-0.03037631 -0.017032797 -0.00035259687)
(-0.024773725 -0.016206059 -0.00034936272)
(-0.019447569 -0.014830915 -0.00034204805)
(-0.014564235 -0.012973973 -0.00033133981)
(-0.010267915 -0.010737805 -0.00031809617)
(-0.006670902 -0.0082615049 -0.00030327637)
(-0.0038437256 -0.0057213947 -0.00028792014)
(-0.0018062984 -0.00333157 -0.00027306709)
(-0.00054475604 -0.0013453154 -0.00025886233)
(-5.2706654e-05 -7.4861901e-05 -0.00022763157)
(-0.00019895038 0.0015302918 -6.8192026e-05)
(-0.0013129525 0.0049496395 -4.6744361e-05)
(-0.0036505218 0.0083275189 -2.843316e-05)
(-0.0068866996 0.011426315 -1.4922373e-05)
(-0.0108407 0.014115009 -4.2467315e-06)
(-0.015382134 0.016326929 3.588508e-06)
(-0.02037987 0.018040187 8.6669039e-06)
(-0.025707922 0.019261168 1.1177641e-05)
(-0.031248325 0.020010884 1.1264765e-05)
(-0.036889878 0.020315331 9.0217243e-06)
(-0.042526855 0.020199395 4.5003124e-06)
(-0.048057816 0.019683628 -2.2854834e-06)
(-0.053384415 0.018783331 -1.1351562e-05)
(-0.058410432 0.017509407 -2.2730589e-05)
(-0.063041232 0.015870484 -3.6455306e-05)
(-0.067183814 0.013875858 -5.2538622e-05)
(-0.070747559 0.011538858 -7.0951872e-05)
(-0.073645687 0.0088802672 -9.1602432e-05)
(-0.075797432 0.0059314987 -0.00011431217)
(-0.077130889 0.0027372408 -0.00013879746)
(-0.077586426 -0.00064278307 -0.0001646536)
(-0.077120196 -0.0041331833 -0.00019135292)
(-0.075708164 -0.007642732 -0.00021824468)
(-0.073350039 -0.011066794 -0.00024457426)
(-0.070072452 -0.014290409 -0.00026950867)
(-0.065931667 -0.017192968 -0.00029218188)
(-0.061015145 -0.019654305 -0.0003117504)
(-0.055441585 -0.021561854 -0.00032745639)
(-0.04935915 -0.022818515 -0.00033869249)
(-0.042941579 -0.023350693 -0.00034506112)
(-0.036382088 -0.02311592 -0.00034641996)
(-0.029885113 -0.022109403 -0.00034290616)
(-0.023656213 -0.020368986 -0.00033493451)
(-0.017890702 -0.017978149 -0.00032316709)
(-0.01276203 -0.015067033 -0.00030845138)
(-0.0084108984 -0.011811891 -0.00029174549)
(-0.0049339809 -0.0084335915 -0.00027411501)
(-0.0023737128 -0.0051947526 -0.00025664536)
(-0.00074294621 -0.0023963875 -0.00023923138)
(-8.0764665e-05 -0.00039121651 -0.00020538199)
(-0.00023688877 0.0022674094 -7.4543063e-05)
(-0.0015441221 0.0069227689 -4.9169691e-05)
(-0.0042626865 0.011333288 -2.821219e-05)
(-0.0079935549 0.015285081 -1.3070543e-05)
(-0.012515083 0.018664224 -1.2672069e-06)
(-0.017672545 0.02141776 7.3390931e-06)
(-0.023316175 0.023535323 1.2969804e-05)
(-0.029306297 0.025033166 1.5943463e-05)
(-0.035515105 0.025940685 1.6499048e-05)
(-0.041823944 0.026290752 1.4792641e-05)
(-0.048120948 0.026113572 1.0911372e-05)
(-0.054299117 0.025433514 4.8806422e-06)
(-0.060254617 0.02426843 -3.3245684e-06)
(-0.06588546 0.022630908 -1.3763309e-05)
(-0.071090729 0.020530952 -2.6508686e-05)
(-0.075770468 0.017979597 -4.1624491e-05)
(-0.079826329 0.014993006 -5.913987e-05)
(-0.083162984 0.011596634 -7.9023159e-05)
(-0.085690295 0.0078291242 -0.00010115587)
(-0.087326316 0.0037455711 -0.00012530541)
(-0.088001034 -0.00058022854 -0.00015110357)
(-0.087659701 -0.0050549358 -0.00017805808)
(-0.086267688 -0.0095650194 -0.00020550854)
(-0.083815431 -0.013979769 -0.00023267974)
(-0.080321881 -0.018154742 -0.0002586889)
(-0.075838335 -0.021937326 -0.00028259245)
(-0.07045105 -0.025174132 -0.00030344694)
(-0.064282241 -0.027719883 -0.0003203782)
(-0.057489115 -0.029447358 -0.00033265477)
(-0.050260481 -0.030257779 -0.00033975788)
(-0.042810706 -0.030090829 -0.00034143776)
(-0.03537097 -0.028933442 -0.00033774751)
(-0.028178121 -0.026826509 -0.00032904836)
(-0.021461785 -0.023868858 -0.00031598242)
(-0.015430942 -0.020218217 -0.00029940828)
(-0.010261248 -0.016089395 -0.00028032171)
(-0.006081529 -0.01175021 -0.00025986907)
(-0.0029612872 -0.0075147323 -0.00023925018)
(-0.0009420798 -0.0037347615 -0.00021818475)
(-0.00010675946 -0.00080721042 -0.00018154742)
(-0.00027202152 0.0031208396 -7.60434e-05)
(-0.0017611333 0.0091915001 -4.6605505e-05)
(-0.0048414676 0.014766187 -2.3071318e-05)
(-0.0090452398 0.019663174 -6.2702163e-06)
(-0.014112106 0.023794516 6.7470363e-06)
(-0.019863637 0.027128874 1.625217e-05)
(-0.026131759 0.029673753 2.2590262e-05)
(-0.032763492 0.031459984 2.6195865e-05)
(-0.039621846 0.032528588 2.7391925e-05)
(-0.046581705 0.032921345 2.6388317e-05)
(-0.053526366 0.032674876 2.3300217e-05)
(-0.060344789 0.031817783 1.8158199e-05)
(-0.066929259 0.030370372 1.0922435e-05)
(-0.073173583 0.028346461 1.5018818e-06)
(-0.078971936 0.025756706 -1.022283e-05)
(-0.084218465 0.022612962 -2.4372902e-05)
(-0.088807705 0.018933172 -4.1042584e-05)
(-0.092635824 0.014746345 -6.0268848e-05)
(-0.095602701 0.010097208 -8.1999914e-05)
(-0.097614982 0.0050501437 -0.00010606013)
(-0.098590122 -0.00030768446 -0.00013211807)
(-0.098459546 -0.0058642283 -0.00015976139)
(-0.097174375 -0.011484437 -0.00018827868)
(-0.094711543 -0.017010325 -0.00021687657)
(-0.091077695 -0.022265668 -0.00024461316)
(-0.086314464 -0.027062506 -0.00027044899)
(-0.080502482 -0.031209737 -0.00029331364)
(-0.073763782 -0.034523784 -0.0003121822)
(-0.066262071 -0.036840877 -0.00032615971)
(-0.058200265 -0.038030188 -0.00033456486)
(-0.049814802 -0.03800681 -0.00033700154)
(-0.041366575 -0.036743419 -0.00033340735)
(-0.033128663 -0.034279358 -0.00032407086)
(-0.025371565 -0.030726105 -0.00030961151)
(-0.018347395 -0.026268458 -0.0002909147)
(-0.012274572 -0.021161445 -0.00026904822)
(-0.007321118 -0.015723443 -0.00024529091)
(-0.0035887709 -0.010325121 -0.00022102195)
(-0.0011503878 -0.0053754549 -0.00019584348)
(-0.00013241289 -0.0013240785 -0.00015614916)
(-0.00030484584 0.0040834207 -7.1818734e-05)
(-0.0019652238 0.011739685 -3.8120877e-05)
(-0.0053879988 0.018605365 -1.2113656e-05)
(-0.010041715 0.024537887 6.3296163e-06)
(-0.015629922 0.029482966 2.0600559e-05)
(-0.021951779 0.033438056 3.1092057e-05)
(-0.028821796 0.036434599 3.8262719e-05)
(-0.036074477 0.03852275 4.2652257e-05)
(-0.043564497 0.039758596 4.4657832e-05)
(-0.05116133 0.040195114 4.4534585e-05)
(-0.058744692 0.039876667 4.2418253e-05)
(-0.066200923 0.038836629 3.8337878e-05)
(-0.073419922 0.037097694 3.2232534e-05)
(-0.080292752 0.034674339 2.3972825e-05)
(-0.086709984 0.03157691 1.3386172e-05)
(-0.09256088 0.027816794 2.8589886e-07)
(-0.097733453 0.023412167 -1.5496809e-05)
(-0.10211544 0.018393865 -3.407782e-05)
(-0.10559626 0.012810916 -5.5483645e-05)
(-0.10806971 0.0067353536 -7.9621071e-05)
(-0.10943748 0.000266163 -0.00010625112)
(-0.10961513 -0.0064679173 -0.00013486982)
(-0.10853657 -0.013309731 -0.00016490255)
(-0.10615953 -0.020073418 -0.00019549823)
(-0.10247327 -0.02654921 -0.00022563852)
(-0.097504527 -0.032510465 -0.0002541726)
(-0.091323122 -0.037723401 -0.00027987679)
(-0.084046338 -0.041959611 -0.00030153832)
(-0.075840981 -0.045010917 -0.00031805282)
(-0.066922369 -0.046705721 -0.00032852535)
(-0.057549482 -0.046925646 -0.00033236233)
(-0.048015839 -0.045620914 -0.00032934109)
(-0.038636108 -0.042822728 -0.00031964558)
(-0.029729136 -0.038651026 -0.00030385889)
(-0.021599067 -0.03331645 -0.0002829008)
(-0.014516431 -0.027116185 -0.0002579401)
(-0.0086970309 -0.020424124 -0.00023043758)
(-0.0042814223 -0.013675058 -0.00020201556)
(-0.0013780353 -0.0073447677 -0.0001721983)
(-0.00015965554 -0.0019481383 -0.00012903251)
(-0.00033561664 0.0051486398 -6.1062268e-05)
(-0.0021570055 0.014551543 -2.2852934e-05)
(-0.0059026522 0.02282944 5.5047474e-06)
(-0.010982217 0.029885123 2.5547065e-05)
(-0.017065896 0.035704793 4.108552e-05)
(-0.023932086 0.040321233 5.2629465e-05)
(-0.031379158 0.043795546 6.0744382e-05)
(-0.039230176 0.046201857 6.6066866e-05)
(-0.047332535 0.047614838 6.9060355e-05)
(-0.055551426 0.048101096 7.0017955e-05)
(-0.063764265 0.047714211 6.9089256e-05)
(-0.071856171 0.046492984 6.62955e-05)
(-0.079716135 0.044462441 6.1548503e-05)
(-0.087233931 0.041637069 5.4673938e-05)
(-0.094297862 0.038025729 4.543834e-05)
(-0.1007934 0.033637717 3.3580236e-05)
(-0.10660277 0.028489438 1.8844719e-05)
(-0.1116055 0.022611236 1.022287e-06)
(-0.11568 0.016053961 -2.0009236e-05)
(-0.1187062 0.0088948626 -4.4245647e-05)
(-0.12056909 0.0012423159 -7.1517712e-05)
(-0.12116444 -0.0067611414 -0.00010143017)
(-0.12040426 -0.014936459 -0.0001333832)
(-0.11822344 -0.023070051 -0.0001665195)
(-0.11458833 -0.030917339 -0.00019975734)
(-0.1095046 -0.038209814 -0.00023182408)
(-0.1030251 -0.044665759 -0.00026131803)
(-0.095256542 -0.050004565 -0.00028679914)
(-0.086364072 -0.053964344 -0.00030690043)
(-0.076572354 -0.056321989 -0.00032045006)
(-0.066162232 -0.056914294 -0.00032658992)
(-0.055462048 -0.055658144 -0.00032487415)
(-0.044833318 -0.052567433 -0.00031533219)
(-0.034651307 -0.047764321 -0.00029848135)
(-0.025282369 -0.041482909 -0.00027527172)
(-0.017060305 -0.034064482 -0.00024699503)
(-0.010259407 -0.025944645 -0.00021534181)
(-0.00506777 -0.01763218 -0.00018224298)
(-0.0016362225 -0.0096824136 -0.00014716905)
(-0.00019047872 -0.0026914519 -9.9943531e-05)
(-0.00036438572 0.0063101808 -4.3017995e-05)
(-0.0023363959 0.017611165 3.5750228e-09)
(-0.0063845883 0.027416167 3.0577647e-05)
(-0.011864343 0.03567912 5.2162533e-05)
(-0.018415276 0.042432904 6.8970604e-05)
(-0.025796831 0.047751636 8.162586e-05)
(-0.033792714 0.051731461 9.0796604e-05)
(-0.042215808 0.054474969 9.7210417e-05)
(-0.050907394 0.056078925 0.00010139116)
(-0.059729599 0.056626086 0.00010366437)
(-0.068558843 0.056180841 0.00010418828)
(-0.077280454 0.054788158 0.00010297126)
(-0.085784017 0.052475381 9.9892546e-05)
(-0.093959551 0.049256302 9.4726678e-05)
(-0.10169456 0.045136979 8.7171413e-05)
(-0.10887203 0.040122719 7.6880092e-05)
(-0.11536943 0.034225743 6.3498063e-05)
(-0.12105867 0.027473055 4.6704312e-05)
(-0.12580727 0.019914107 2.6257972e-05)
(-0.12948061 0.011627882 2.0469114e-06)
(-0.13194555 0.0027288689 -2.5863847e-05)
(-0.13307563 -0.0066284992 -5.7179093e-05)
(-0.13275744 -0.016246605 -9.134167e-05)
(-0.13089838 -0.025885143 -0.00012750334)
(-0.12743617 -0.035264002 -0.00016452912)
(-0.1223488 -0.044070079 -0.00020102186)
(-0.1156649 -0.051968509 -0.00023538187)
(-0.10747339 -0.058618552 -0.00026590157)
(-0.097931122 -0.063694014 -0.0002908909)
(-0.087267072 -0.066907472 -0.00030882391)
(-0.075781369 -0.068036748 -0.00031849097)
(-0.063837878 -0.066951257 -0.00031913645)
(-0.051849437 -0.063635103 -0.00031056052)
(-0.040255965 -0.058203548 -0.00029316306)
(-0.029497369 -0.050909842 -0.0002679032)
(-0.019983961 -0.04214074 -0.00023620751)
(-0.012061874 -0.032400664 -0.00020004241)
(-0.0059783603 -0.022284472 -0.00016171744)
(-0.0019367866 -0.012442806 -0.00012066206)
(-0.00022690719 -0.003572166 -6.8595902e-05)
(-0.00039104463 0.0075615264 -1.6975776e-05)
(-0.0025026823 0.020901902 3.119909e-05)
(-0.0068317187 0.032341845 6.3846873e-05)
(-0.012683831 0.04189186 8.6912175e-05)
(-0.019670789 0.049637179 0.0001049897)
(-0.027534899 0.055698797 0.00011881792)
(-0.036046719 0.060212949 0.00012916583)
(-0.045010263 0.063315025 0.00013684819)
(-0.054261913 0.065127353 0.00014244561)
(-0.06366196 0.06575142 0.00014631269)
(-0.073087161 0.065264112 0.00014861316)
(-0.082424498 0.063717413 0.00014933932)
(-0.091565721 0.061141036 0.00014833411)
(-0.10040274 0.057547394 0.00014531584)
(-0.10882392 0.05293834 0.00013990618)
(-0.11671139 0.047313127 0.00013166255)
(-0.12393928 0.040677092 0.00012011535)
(-0.13037309 0.033050623 0.00010481143)
(-0.13587015 0.024478022 8.536483e-05)
(-0.14028146 0.015035896 6.151259e-05)
(-0.14345491 0.0048406565 3.3174972e-05)
(-0.14524035 -0.0059453479 5.1785076e-07)
(-0.1454962 -0.017109378 -3.5997568e-05)
(-0.1440981 -0.02838671 -7.5567405e-05)
(-0.14094949 -0.03946231 -0.00011702969)
(-0.13599371 -0.049976771 -0.00015887415)
(-0.12922699 -0.059537465 -0.00019929232)
(-0.12071156 -0.067735532 -0.00023627166)
(-0.1105872 -0.074168961 -0.00026773327)
(-0.099079507 -0.078471257 -0.00029170545)
(-0.086502565 -0.080344161 -0.00030651691)
(-0.073254027 -0.079591663 -0.00031098552)
(-0.059800851 -0.076151366 -0.00030457435)
(-0.046655324 -0.070118511 -0.00028748272)
(-0.034343118 -0.06175813 -0.00026063239)
(-0.023366473 -0.051502299 -0.00022558129)
(-0.014159904 -0.039931684 -0.00018461485)
(-0.0070450457 -0.027741284 -0.00014049838)
(-0.0022920518 -0.015695865 -9.2626063e-05)
(-0.00027101749 -0.0046147384 -3.4731071e-05)
(-0.00041536719 0.0088956305 1.7724347e-05)
(-0.0026546627 0.024405797 7.1425176e-05)
(-0.0072409284 0.037580694 0.00010599624)
(-0.013434812 0.048492404 0.00013047845)
(-0.020822892 0.057283674 0.00014982851)
(-0.029132043 0.064127477 0.00016489993)
(-0.038121105 0.069204889 0.00017656178)
(-0.047586465 0.072688269 0.00018571406)
(-0.057360763 0.074728951 0.00019299269)
(-0.067303649 0.075449787 0.00019878047)
(-0.077293515 0.074941966 0.00020324601)
(-0.087220455 0.073265469 0.0002063649)
(-0.096980002 0.070452563 0.00020794238)
(-0.10646773 0.066513679 0.00020763755)
(-0.1155748 0.061445104 0.00020499011)
(-0.12418441 0.055237922 0.00019945148)
(-0.13216934 0.047887733 0.00019042127)
(-0.1393905 0.03940475 0.00017729153)
(-0.14569664 0.029823926 0.00015950027)
(-0.15092549 0.019214783 0.00013659416)
(-0.15490645 0.0076905754 0.00010829948)
(-0.15746521 -0.004583648 7.459882e-05)
(-0.15843039 -0.017384659 3.5798796e-05)
(-0.15764253 -0.030427163 -7.3946665e-06)
(-0.15496586 -0.043363475 -5.3840046e-05)
(-0.15030202 -0.055787777 -0.00010194438)
(-0.14360599 -0.067246346 -0.00014969508)
(-0.13490288 -0.077254901 -0.00019474618)
(-0.12430417 -0.085323832 -0.00023456362)
(-0.11202121 -0.090991292 -0.00026662592)
(-0.098373098 -0.093862868 -0.00028866486)
(-0.083785946 -0.093654859 -0.00029891901)
(-0.06878077 -0.090236406 -0.00029636363)
(-0.053948397 -0.083664181 -0.0002808709)
(-0.039912708 -0.074203004 -0.00025324214)
(-0.027285389 -0.062327211 -0.000215139)
(-0.016609451 -0.048700504 -0.00016920201)
(-0.0083005317 -0.034133673 -0.00011873811)
(-0.0027148019 -0.019527531 -6.3109528e-05)
(-0.00032497733 -0.0058501555 1.8228528e-06)
(-0.00043705655 0.010304692 6.168193e-05)
(-0.0027908434 0.028103167 0.00012130563)
(-0.0076084884 0.043104368 0.00015764236)
(-0.014110427 0.055446332 0.00018347854)
(-0.021860571 0.065333902 0.00020410939)
(-0.030571838 0.072996684 0.0002205043)
(-0.03999258 0.07866506 0.00023363291)
(-0.049912622 0.082552386 0.00024448039)
(-0.060161878 0.084842437 0.00025373889)
(-0.070600428 0.08568215 0.00026182137)
(-0.081109524 0.085178969 0.00026890378)
(-0.091583792 0.083402045 0.00027494754)
(-0.1019242 0.080386572 0.00027972194)
(-0.1120319 0.076140591 0.00028282675)
(-0.12180293 0.07065362 0.00028371647)
(-0.13112398 0.063906563 0.00028172835)
(-0.13986897 0.055882456 0.00027611615)
(-0.14789682 0.046577685 0.00026609337)
(-0.15505028 0.036013396 0.0002508883)
(-0.16115617 0.024246831 0.00022981184)
(-0.16602726 0.011382283 0.00020233896)
(-0.1694662 -0.0024187117 0.00016820164)
(-0.17127167 -0.016928493 0.00012747463)
(-0.17124744 -0.031846929 8.0691846e-05)
(-0.1692146 -0.046798036 2.8902235e-05)
(-0.16502683 -0.061331713 -2.6274446e-05)
(-0.15858879 -0.074931976 -8.2649914e-05)
(-0.14987686 -0.0870335 -0.00013753428)
(-0.1389606 -0.097048026 -0.00018787977)
(-0.12602267 -0.10440134 -0.00023050435)
(-0.11137374 -0.10858022 -0.00026238388)
(-0.095458261 -0.10918641 -0.00028098434)
(-0.078846849 -0.10599239 -0.00028458927)
(-0.062212042 -0.098990595 -0.0002725593)
(-0.046287508 -0.088426944 -0.00024543937)
(-0.031813523 -0.074810074 -0.00020492945)
(-0.019465538 -0.05889141 -0.00015404654)
(-0.0097779872 -0.041614093 -9.6732658e-05)
(-0.0032183006 -0.024040074 -3.2323261e-05)
(-0.00039109585 -0.0073161778 4.1087973e-05)
(-0.00045579766 0.011780051 0.00011542195)
(-0.0029096928 0.031972438 0.00018138488)
(-0.0079306336 0.048881749 0.00021932351)
(-0.014703753 0.06271545 0.00024645142)
(-0.022772584 0.073744365 0.00026837503)
(-0.03183723 0.082258916 0.00028618036)
(-0.041636462 0.088542982 0.0003009392)
(-0.05195434 0.092854851 0.00031372373)
(-0.062618838 0.095414198 0.00032528604)
(-0.073491365 0.096394889 0.00033607432)
(-0.084457121 0.095922777 0.00034627791)
(-0.095416608 0.094077591 0.00035585035)
(-0.10627787 0.090898112 0.00036453065)
(-0.11694961 0.086389874 0.00037186315)
(-0.12733511 0.08053472 0.0003772176)
(-0.1373272 0.073301644 0.00037981203)
(-0.14680408 0.06465852 0.00037874199)
(-0.15562606 0.054584399 0.00037301998)
(-0.16363352 0.043082163 0.00036162971)
(-0.17064606 0.030191363 0.00034359739)
(-0.17646334 0.016001018 0.00031808126)
(-0.18086786 0.00066205991 0.00028447903)
(-0.1836304 -0.015601075 0.0002425598)
(-0.18451834 -0.032480906 0.00019256728)
(-0.18330765 -0.049580005 0.00013536208)
(-0.17979917 -0.066409075 7.2503706e-05)
(-0.17383888 -0.082391836 6.2943599e-06)
(-0.16534231 -0.096879227 -6.0251559e-05)
(-0.1543215 -0.10917538 -0.0001235343)
(-0.14091238 -0.11857728 -0.00017960482)
(-0.12539864 -0.12442852 -0.00022450694)
(-0.1082268 -0.12618507 -0.00025469989)
(-0.090006457 -0.12348742 -0.00026750977)
(-0.071490036 -0.11622918 -0.00026152681)
(-0.053529994 -0.10460942 -0.00023683018)
(-0.037014952 -0.089155458 -0.00019503499)
(-0.022780494 -0.070706832 -0.00013952721)
(-0.011510552 -0.050355313 -7.4980448e-05)
(-0.0038163079 -0.029352175 -7.1289385e-07)
(-0.00047187908 -0.0090576241 8.2863529e-05)
(-0.00047131563 0.013312232 0.0001793787)
(-0.0030099488 0.03599029 0.00025211572)
(-0.0082042963 0.054879131 0.00029148863)
(-0.015209006 0.070257898 0.00031984529)
(-0.023549128 0.082466465 0.00034307226)
(-0.032912631 0.091859758 0.00036237266)
(-0.043029187 0.09877911 0.00037892333)
(-0.053677529 0.10353163 0.00039388764)
(-0.064684194 0.10637643 0.00040808443)
(-0.075912596 0.10751733 0.0004220059)
(-0.087252804 0.10710101 0.00043586483)
(-0.098612423 0.10521947 0.0004496175)
(-0.10990817 0.1019161 0.0004629829)
(-0.12105828 0.097194218 0.00047545846)
(-0.13197578 0.091027515 0.00048633449)
(-0.14256267 0.083371806 0.00049470978)
(-0.15270494 0.074177662 0.00049951339)
(-0.16226847 0.063403696 0.00049953795)
(-0.17109588 0.051030369 0.00049348998)
(-0.17900465 0.037074231 0.00048006176)
(-0.18578654 0.021602514 0.00045802789)
(-0.19120905 0.0047478219 0.00042636846)
(-0.19501937 -0.013277511 0.00038442119)
(-0.19695143 -0.032168066 0.00033203571)
(-0.19673693 -0.051514552 0.00026975005)
(-0.19412139 -0.070797068 0.00019893647)
(-0.18888552 -0.089385128 0.00012190613)
(-0.18087246 -0.10654755 4.1934788e-05)
(-0.17002008 -0.12147575 -3.6824848e-05)
(-0.15639639 -0.13332389 -0.00010957207)
(-0.14023419 -0.14126794 -0.00017123977)
(-0.12195862 -0.14458334 -0.00021701226)
(-0.10219948 -0.14273589 -0.0002429265)
(-0.081779788 -0.1354751 -0.00024645333)
(-0.061674707 -0.12291287 -0.00022689824)
(-0.042939784 -0.10556837 -0.00018558284)
(-0.026601536 -0.084362041 -0.00012620341)
(-0.0135306 -0.060548336 -5.4253239e-05)
(-0.0045230426 -0.035598697 3.0952958e-05)
(-0.00057008535 -0.011126679 0.00012663631)
(-0.00048344438 0.014891171 0.00025388035)
(-0.0030909868 0.040132212 0.0003338488)
(-0.008427994 0.061060907 0.00037448845)
(-0.015623013 0.078028789 0.00040400733)
(-0.024183894 0.091446927 0.0004285377)
(-0.033786518 0.10173797 0.00044940026)
(-0.044151416 0.10930448 0.00046788163)
(-0.055052017 0.11450632 0.0004852437)
(-0.066313612 0.11764576 0.00050238258)
(-0.077802062 0.11895984 0.00051984753)
(-0.08941305 0.11861873 0.00053788928)