/*--------------------------------*- C++ -*----------------------------------*\
  =========                 |
  \\      /  F ield         | OpenFOAM: The Open Source CFD Toolbox
   \\    /   O peration     | Website:  https://openfoam.org
    \\  /    A nd           | Version:  7
     \\/     M anipulation  |
\*---------------------------------------------------------------------------*/
FoamFile
{
    version     2.0;
    format      ascii;
    class       volVectorField;
    location    "4";
    object      U_0;
}
// * * * * * * * * * * * * * * * * * * * * * * * * * * * * * * * * * * * * * //

dimensions      [0 1 -1 0 0 0 0];

internalField   nonuniform List<vector> 
16000
(
(5.201302e-05 -5.105885e-05 8.2494142e-08)
(0.00011771175 -3.7045066e-05 5.3686426e-06)
(7.7433155e-05 1.1075307e-05 1.5966332e-05)
(-0.00010396266 6.0101055e-05 2.9285071e-05)
(-0.00041882005 0.00010281347 4.2421713e-05)
(-0.00084239407 0.00013578821 5.4021046e-05)
(-0.0013509551 0.00015947529 6.3010458e-05)
(-0.0019210065 0.00017536511 6.8750366e-05)
(-0.002531665 0.00018492785 7.0897704e-05)
(-0.0031649865 0.00018936001 6.9287516e-05)
(-0.0038054672 0.00018953074 6.3861006e-05)
(-0.0044393988 0.00018599617 5.4622789e-05)
(-0.0050542238 0.00017904495 4.1618112e-05)
(-0.0056379741 0.00016875504 2.4927185e-05)
(-0.0061788626 0.00015506413 4.669757e-06)
(-0.0066650443 0.00013784373 -1.8982401e-05)
(-0.0070845689 0.00011696857 -4.5787989e-05)
(-0.0074255378 9.2385574e-05 -7.5417579e-05)
(-0.0076764459 6.4181625e-05 -0.0001074376)
(-0.0078266857 3.2641379e-05 -0.0001412982)
(-0.0078671927 -1.7103897e-06 -0.00017632866)
(-0.0077911717 -3.8091759e-05 -0.00021174246)
(-0.007594871 -7.5433876e-05 -0.00024665188)
(-0.007278323 -0.00011241865 -0.00028009696)
(-0.0068459614 -0.00014752073 -0.00031108442)
(-0.0063070628 -0.00017908197 -0.00033863772)
(-0.0056759321 -0.00020541125 -0.00036185563)
(-0.0049717691 -0.00022490183 -0.00037997385)
(-0.0042181845 -0.00023615603 -0.00039242638)
(-0.0034423598 -0.00023810401 -0.00039890077)
(-0.0026738841 -0.00023010319 -0.00039938209)
(-0.0019433311 -0.00021200667 -0.00039418342)
(-0.0012806573 -0.00018419486 -0.00038395837)
(-0.00071346827 -0.00014758815 -0.00036969977)
(-0.0002651159 -0.00010372337 -0.00035272474)
(4.7096739e-05 -5.5058239e-05 -0.00033462865)
(0.00021475095 -5.1884715e-06 -0.00031730613)
(0.00024181786 3.9762234e-05 -0.00030282059)
(0.00015987677 6.6457011e-05 -0.00029360832)
(4.9095128e-05 4.9004659e-05 -0.00027239022)
(3.9215771e-05 -0.00011779161 -5.2778273e-06)
(-2.8748489e-06 5.5315585e-06 1.0357015e-07)
(-0.00031832725 0.00024657213 9.1549874e-06)
(-0.00094284107 0.00049838106 1.9847795e-05)
(-0.0018632415 0.00072427677 3.0466449e-05)
(-0.0030394513 0.00090828909 3.9759218e-05)
(-0.0044216219 0.0010478361 4.6824314e-05)
(-0.0059578199 0.001145957 5.1067571e-05)
(-0.0075986371 0.001207308 5.2121254e-05)
(-0.0092988349 0.0012364623 4.9773684e-05)
(-0.011017367 0.0012371815 4.3918237e-05)
(-0.012716682 0.0012121581 3.4520184e-05)
(-0.014361756 0.0011630409 2.1597125e-05)
(-0.015919149 0.0010906182 5.2121494e-06)
(-0.017356281 0.00099510025 -1.4523572e-05)
(-0.018641059 0.00087645881 -3.7441351e-05)
(-0.0197419 0.00073478543 -6.3301846e-05)
(-0.020628185 0.00057064729 -9.1780345e-05)
(-0.021271121 0.00038541933 -0.00012245431)
(-0.02164496 0.00018156397 -0.00015479414)
(-0.021728521 -3.7164526e-05 -0.00018816066)
(-0.021506829 -0.00026560256 -0.0002218145)
(-0.020972848 -0.00049718851 -0.00025492507)
(-0.020129113 -0.00072409896 -0.00028660298)
(-0.018989013 -0.00093753067 -0.0003159356)
(-0.017577663 -0.001128121 -0.0003420334)
(-0.015932175 -0.0012864881 -0.00036408412)
(-0.014101192 -0.0014038565 -0.00038140935)
(-0.012143624 -0.0014727205 -0.00039352019)
(-0.010126576 -0.0014874845 -0.00040016651)
(-0.0081225109 -0.0014450224 -0.0004013744)
(-0.0062057597 -0.0013451107 -0.00039747073)
(-0.0044485302 -0.0011907238 -0.00038908904)
(-0.0029165304 -0.00098825276 -0.00037715786)
(-0.0016642532 -0.00074786308 -0.00036287415)
(-0.00072972656 -0.0004844128 -0.00034766506)
(-0.00012803975 -0.00021901736 -0.0003331307)
(0.00015371541 1.6529295e-05 -0.00032082283)
(0.00017594928 0.00017200522 -0.00031277419)
(6.6920723e-05 0.00015907017 -0.00028887965)
(-8.7650835e-06 -8.1099734e-05 -1.6133217e-05)
(-0.00024937872 0.00032096678 -8.8805974e-06)
(-0.0009366321 0.00092165369 3.6792734e-07)
(-0.002060973 0.0015427248 9.9321064e-06)
(-0.0035921149 0.0021052753 1.9025435e-05)
(-0.0054789761 0.0025734357 2.6724448e-05)
(-0.0076554199 0.0029362917 3.2356548e-05)
(-0.01005072 0.0031960196 3.5470511e-05)
(-0.012595558 0.0033602322 3.5768495e-05)
(-0.015224435 0.0034377956 3.3065669e-05)
(-0.017876275 0.0034366924 2.725899e-05)
(-0.020494019 0.0033630694 1.8304412e-05)
(-0.023023744 0.0032210432 6.2037706e-06)
(-0.025413718 0.0030129896 -8.9989935e-06)
(-0.027613683 0.0027401342 -2.7214709e-05)
(-0.02957454 0.0024033213 -4.8300046e-05)
(-0.031248547 0.0020038655 -7.2045631e-05)
(-0.032590068 0.0015444044 -9.8162963e-05)
(-0.033556854 0.0010296871 -0.00012627336)
(-0.034111788 0.00046723101 -0.00015590006)
(-0.03422498 -0.00013220885 -0.0001864663)
(-0.033876056 -0.0007543917 -0.00021730034)
(-0.033056494 -0.001381696 -0.00024764964)
(-0.031771761 -0.0019934903 -0.00027670544)
(-0.030043016 -0.0025668792 -0.00030363717)
(-0.027908208 -0.0030777729 -0.00032763565)
(-0.025422321 -0.0035022408 -0.00034796308)
(-0.022656642 -0.0038180688 -0.00036400534)
(-0.019696908 -0.0040064091 -0.00037532359)
(-0.016640341 -0.0040533898 -0.00038169948)
(-0.013591599 -0.0039515532 -0.00038316839)
(-0.010657782 -0.0037010242 -0.00038003826)
(-0.0079426655 -0.0033103833 -0.00037289027)
(-0.0055403767 -0.002797342 -0.00036256025)
(-0.0035286568 -0.0021895166 -0.00035010263)
(-0.0019617053 -0.0015258934 -0.00033674069)
(-0.00086248214 -0.00085991478 -0.00032380054)
(-0.00021532055 -0.00026541741 -0.00031261524)
(4.5663455e-05 0.00015621245 -0.00030455912)
(4.5748991e-05 0.00024624886 -0.00027984481)
(-6.0804258e-05 0.00010296087 -3.01025e-05)
(-0.00052563087 0.00096534021 -1.9620782e-05)
(-0.0016262073 0.0020591241 -8.7292105e-06)
(-0.0032798558 0.0031583018 1.0766059e-06)
(-0.0054270798 0.0041505214 9.8285892e-06)
(-0.0080025564 0.0049807354 1.6895111e-05)
(-0.010925852 0.0056290883 2.1821866e-05)
(-0.014111588 0.0060958792 2.4325429e-05)
(-0.01747556 0.0063909217 2.4213945e-05)
(-0.020937035 0.006527056 2.136308e-05)
(-0.024419488 0.0065165183 1.5699729e-05)
(-0.027850402 0.0063691657 7.1885144e-06)
(-0.031160536 0.0060919687 -4.1754311e-06)
(-0.034283101 0.0056893647 -1.836578e-05)
(-0.037153172 0.0051641773 -3.5318976e-05)
(-0.03970752 0.0045188768 -5.4923688e-05)
(-0.041885028 0.003757002 -7.7007913e-05)
(-0.043627714 0.0028845987 -0.00010132545)
(-0.044882342 0.0019115492 -0.00012754379)
(-0.045602569 0.00085267316 -0.0001552352)
(-0.045751449 -0.00027150919 -0.00018387357)
(-0.045304178 -0.0014344408 -0.00021283647)
(-0.044250855 -0.002603685 -0.00024141898)
(-0.042598982 -0.0037416814 -0.00026885568)
(-0.040375485 -0.0048070688 -0.00029435336)
(-0.037627975 -0.0057565709 -0.00031713304)
(-0.034425048 -0.0065473718 -0.00033647881)
(-0.030855387 -0.0071398455 -0.00035178977)
(-0.027025555 -0.0075004568 -0.00036263227)
(-0.023056412 -0.0076046172 -0.0003687835)
(-0.019078196 -0.0074392769 -0.00037026431)
(-0.015224411 -0.0070050758 -0.00036735564)
(-0.01162474 -0.0063179797 -0.00036059512)
(-0.0083972665 -0.0054104862 -0.00035075323)
(-0.0056403519 -0.0043327246 -0.00033878919)
(-0.0034244565 -0.0031541281 -0.00032579274)
(-0.0017837511 -0.0019666834 -0.00031293039)
(-0.00070807682 -0.00089008419 -0.00030137065)
(-0.00014113426 -7.9350521e-05 -0.00029200614)
(1.2475239e-05 0.00024562406 -0.00026553848)
(-0.00011137387 0.00043925311 -4.4280078e-05)
(-0.00080204874 0.0019555066 -3.0330547e-05)
(-0.0023241144 0.0036732838 -1.7216358e-05)
(-0.0045139837 0.0053443775 -6.5273436e-06)
(-0.0072744131 0.0068368932 2.4879414e-06)
(-0.010521225 0.0080831305 9.4462888e-06)
(-0.014158614 0.0090571885 1.4095289e-05)
(-0.018087792 0.0097583991 1.6320421e-05)
(-0.022212287 0.010198806 1.6045632e-05)
(-0.026439411 0.010395003 1.3219349e-05)
(-0.03068065 0.010363268 7.8090432e-06)
(-0.034851398 0.010117064 -2.0495838e-07)
(-0.038870257 0.0096662491 -1.0830828e-05)
(-0.04265831 0.0090175058 -2.4059977e-05)
(-0.046138634 0.0081756058 -3.9857437e-05)
(-0.049236304 0.0071451876 -5.814882e-05)
(-0.051878982 0.0059327889 -7.8805104e-05)
(-0.053998169 0.0045489126 -0.00010162709)
(-0.055531082 0.0030099343 -0.00012633127)
(-0.056423093 0.0013396757 -0.00015253804)
(-0.056630576 -0.00042952506 -0.00017976571)
(-0.05612397 -0.0022563815 -0.00020743176)
(-0.0548909 -0.0040908881 -0.00023486177)
(-0.052939066 -0.0058755047 -0.00026131154)
(-0.050298544 -0.0075471189 -0.0002859979)
(-0.047023335 -0.0090398434 -0.00030814022)
(-0.043191832 -0.010288542 -0.00032701088)
(-0.03890598 -0.011232897 -0.00034198889)
(-0.034288924 -0.011821762 -0.00035261388)
(-0.029481081 -0.01201749 -0.00035863249)
(-0.024634606 -0.011799914 -0.00036003271)
(-0.019906437 -0.011169693 -0.00035705967)
(-0.01545013 -0.010150852 -0.0003502105)
(-0.011406911 -0.0087925283 -0.00034020635)
(-0.0078964723 -0.0071701892 -0.00032794101)
(-0.0050080866 -0.005386984 -0.00031441608)
(-0.0027916155 -0.0035761049 -0.00030070323)
(-0.0012492612 -0.0019040932 -0.00028786874)
(-0.00034344562 -0.00057620954 -0.00027639386)
(-2.160852e-05 0.0001379625 -0.00024767457)
(-0.00015729307 0.00091753347 -5.7181827e-05)
(-0.0010650368 0.0032865972 -3.9524795e-05)
(-0.003001234 0.0057644192 -2.3880212e-05)
(-0.0057201935 0.008100947 -1.1905254e-05)
(-0.0090833015 0.010158728 -2.2061417e-06)
(-0.012984217 0.01186612 5.0403424e-06)
(-0.01731013 0.013196212 9.7606948e-06)
(-0.021948842 0.014149983 1.1999122e-05)
(-0.026792871 0.014742889 1.1793424e-05)
(-0.031739644 0.014995687 9.166568e-06)
(-0.036691175 0.014928748 4.129473e-06)
(-0.041553442 0.014559058 -3.3198045e-06)
(-0.046235551 0.013899271 -1.3192142e-05)
(-0.050648953 0.012958289 -2.5498016e-05)
(-0.054707005 0.011742915 -4.02341e-05)
(-0.058325043 0.010260188 -5.7367023e-05)
(-0.061421098 0.0085200525 -7.6815349e-05)
(-0.063917295 0.0065380875 -9.8430839e-05)
(-0.065741922 0.0043380204 -0.00012198105)
(-0.066832091 0.0019538082 -0.00014713393)
(-0.067136875 -0.00056895931 -0.00017344791)
(-0.066620626 -0.0031725279 -0.00020037075)
(-0.065266502 -0.0057871782 -0.00022724537)
(-0.063079789 -0.0083329197 -0.00025332986)
(-0.060090598 -0.010722069 -0.00027782665)
(-0.056355865 -0.012863 -0.00029992629)
(-0.051960216 -0.014664914 -0.00031885799)
(-0.047015427 -0.016043383 -0.00033394881)
(-0.041658205 -0.016926349 -0.00034468093)
(-0.03604615 -0.017260164 -0.00035074367)
(-0.030351842 -0.01701522 -0.00035207171)
(-0.024755189 -0.016190738 -0.00034886342)
(-0.019434304 -0.014818378 -0.00034157611)
(-0.01455543 -0.012964557 -0.0003308956)
(-0.010262656 -0.010731614 -0.00031767869)
(-0.0066682365 -0.0082583734 -0.00030288318)
(-0.003842738 -0.0057208611 -0.00028754759)
(-0.0018061834 -0.0033328597 -0.00027271054)
(-0.00054490131 -0.0013473266 -0.00025851592)
(-5.2782502e-05 -7.614562e-05 -0.00022731205)
(-0.00019873878 0.0015294224 -6.7374512e-05)
(-0.0013115459 0.0049457257 -4.5894247e-05)
(-0.0036465886 0.0083202262 -2.7602694e-05)
(-0.0068792344 0.011415697 -1.4107188e-05)
(-0.010828879 0.014101337 -3.4451378e-06)
(-0.015365264 0.0163106 4.3777402e-06)
(-0.020357388 0.018021657 9.44427e-06)
(-0.025679394 0.019240914 1.1942877e-05)
(-0.031213439 0.019989387 1.2017042e-05)
(-0.036848446 0.020293074 9.759955e-06)
(-0.042478812 0.020176871 5.2235385e-06)
(-0.048003229 0.019661347 -1.5782045e-06)
(-0.053323489 0.018761828 -1.0660992e-05)
(-0.058343515 0.017489239 -2.2057111e-05)
(-0.062968818 0.015852227 -3.5798575e-05)
(-0.06710655 0.013860092 -5.1897504e-05)
(-0.070666234 0.011526145 -7.0324704e-05)
(-0.073561224 0.0088711266 -9.0987171e-05)
(-0.075710874 0.005926377 -0.00011370674)
(-0.077043374 0.0027364854 -0.00013819994)
(-0.077499168 -0.00063895287 -0.00016406201)
(-0.077034427 -0.0041247648 -0.00019076466)
(-0.075625095 -0.0076298431 -0.00021765856)
(-0.073270844 -0.011049747 -0.00024399005)
(-0.06999821 -0.01426971 -0.0002689271)
(-0.065863324 -0.017169301 -0.0002916045)
(-0.060953474 -0.019628509 -0.00031118007)
(-0.05538715 -0.021534887 -0.00032689674)
(-0.049312279 -0.022791409 -0.00033814752)
(-0.04290235 -0.0233245 -0.00034453499)
(-0.03635032 -0.023091644 -0.00034591646)
(-0.029860378 -0.022087941 -0.00034242827)
(-0.023637853 -0.020351057 -0.00033448424)
(-0.017877875 -0.017964233 -0.0003227453)
(-0.012753755 -0.015057317 -0.00030805759)
(-0.0084061285 -0.011806224 -0.0002913778)
(-0.0049316713 -0.0084314517 -0.00027377033)
(-0.0023729046 -0.0051952254 -0.00025631949)
(-0.0007428438 -0.0023981564 -0.00023891922)
(-8.0802964e-05 -0.00039254302 -0.00020509903)
(-0.00023661906 0.0022657051 -7.3698725e-05)
(-0.0015423709 0.0069166529 -4.8297375e-05)
(-0.0042578553 0.011322634 -2.7363577e-05)
(-0.0079844874 0.015270129 -1.2239771e-05)
(-0.012500866 0.018645416 -4.5193197e-07)
(-0.01765243 0.021395648 8.1402905e-06)
(-0.023289571 0.023510502 1.3757408e-05)
(-0.029272757 0.025006246 1.671706e-05)
(-0.035474318 0.025912275 1.7257602e-05)
(-0.041775732 0.026261464 1.5534787e-05)
(-0.048065265 0.026084032 1.1635611e-05)
(-0.054236058 0.025404371 5.585505e-06)
(-0.060184422 0.024240363 -2.6401984e-06)
(-0.065808525 0.022604627 -1.3099997e-05)
(-0.071007606 0.020507186 -2.5866169e-05)
(-0.075681867 0.017959079 -4.1001645e-05)
(-0.079733116 0.014976441 -5.8534948e-05)
(-0.083066167 0.011584673 -7.8433975e-05)
(-0.085591004 0.0078223232 -0.00010058037)
(-0.08722578 0.0037443734 -0.00012474159)
(-0.087900619 -0.00057554557 -0.00015054848)
(-0.087560754 -0.0050443944 -0.00017750725)
(-0.086171499 -0.0095487534 -0.00020495963)
(-0.083723312 -0.01395815 -0.00023213236)
(-0.08023505 -0.018128389 -0.00025814329)
(-0.075757877 -0.021907079 -0.00028204971)
(-0.070377873 -0.025141022 -0.00030290955)
(-0.064217045 -0.027685095 -0.00031984941)
(-0.057432353 -0.029412176 -0.00033213868)
(-0.050212341 -0.030223516 -0.00033925897)
(-0.042771095 -0.030058759 -0.00034096023)
(-0.035339518 -0.028904714 -0.00033729488)
(-0.0281542 -0.026802065 -0.00032862332)
(-0.021444537 -0.023849359 -0.0003155866)
(-0.015419337 -0.020203971 -0.00029904193)
(-0.010254143 -0.016080301 -0.00027998369)
(-0.0060777496 -0.011745718 -0.00025955693)
(-0.0029597093 -0.0075138181 -0.00023896019)
(-0.00094170527 -0.0037359209 -0.0002179126)
(-0.00010675798 -0.00080844295 -0.00018130693)
(-0.00027169581 0.003118128 -7.5177654e-05)
(-0.0017590542 0.0091827484 -4.5716284e-05)
(-0.0048357859 0.014751559 -2.2209428e-05)
(-0.0090346584 0.01964316 -5.4284651e-06)
(-0.01409563 0.023769774 7.5713253e-06)
(-0.019840469 0.027100139 1.7060414e-05)
(-0.026101282 0.029641784 2.3382915e-05)
(-0.032725252 0.031425536 2.697233e-05)
(-0.039575533 0.032492408 2.8150742e-05)
(-0.04652715 0.032884184 2.7127593e-05)
(-0.053463542 0.0326375 2.4017927e-05)
(-0.060273813 0.031780986 1.8852405e-05)
(-0.066850402 0.03033499 1.159163e-05)
(-0.073087277 0.028313361 2.1453104e-06)
(-0.078878778 0.02572678 -9.6049257e-06)
(-0.084119218 0.022587103 -2.3779392e-05)
(-0.088703294 0.018912238 -4.0471668e-05)
(-0.092527322 0.014731122 -5.9718126e-05)
(-0.0954913 0.010088365 -8.1466848e-05)
(-0.097501985 0.0050481677 -0.00010554166)
(-0.098477043 -0.00030250926 -0.00013161037)
(-0.098347828 -0.0058516768 -0.00015925968)
(-0.09706536 -0.011464723 -0.0001877797)
(-0.094606673 -0.016983924 -0.00021637861)
(-0.090978333 -0.022233312 -0.00024411551)
(-0.086221831 -0.027025187 -0.00026995221)
(-0.080417634 -0.03116868 -0.00029281943)
(-0.073687566 -0.034480404 -0.00031169348)
(-0.066195086 -0.036796717 -0.00032568063)
(-0.058142832 -0.037986843 -0.00033410017)
(-0.049766944 -0.037965846 -0.00033655591)
(-0.04132801 -0.036706268 -0.00033298508)
(-0.033098812 -0.034247225 -0.00032367559)
(-0.025349579 -0.030699873 -0.00030924587)
(-0.018332205 -0.026248601 -0.00029057991)
(-0.012264948 -0.021147954 -0.00026874407)
(-0.0073157504 -0.015715782 -0.00024501572)
(-0.0035863627 -0.010322195 -0.00022077258)
(-0.0011497219 -0.005375604 -0.00019561653)
(-0.00013236974 -0.0013250725 -0.00015595645)
(-0.00030446879 0.0040795391 -7.0938586e-05)
(-0.0019628459 0.011727895 -3.7221541e-05)
(-0.0053815452 0.018586198 -1.1244815e-05)
(-0.010029763 0.024512141 7.1760733e-06)
(-0.015611405 0.029451555 2.1427558e-05)
(-0.021925858 0.033401929 3.190106e-05)
(-0.028787833 0.036394696 3.9053909e-05)
(-0.03603201 0.038479985 4.342457e-05)
(-0.04351322 0.039713865 4.5409306e-05)
(-0.051101081 0.04014931 4.5262694e-05)
(-0.058675457 0.039830701 4.3120344e-05)
(-0.066122837 0.03879145 3.9011488e-05)
(-0.073333279 0.037054295 3.2875804e-05)
(-0.080198011 0.034633755 2.4584809e-05)
(-0.086607774 0.031540202 1.3966946e-05)
(-0.092452002 0.02778502 8.3646247e-07)
(-0.097618875 0.023386347 -1.4974542e-05)
(-0.10199629 0.018374929 -3.3580872e-05)
(-0.10547381 0.012799659 -5.5007996e-05)
(-0.10794537 0.0067323613 -7.9162059e-05)
(-0.10931261 0.000271789 -0.00010580458)
(-0.10949125 -0.0064534159 -0.00013443213)
(-0.10841534 -0.013286575 -0.00016446941)
(-0.10604246 -0.020042133 -0.000195066)
(-0.1023618 -0.026510622 -0.00022520482)
(-0.097400008 -0.032465704 -0.00025373672)
(-0.091226759 -0.037673876 -0.00027943954)
(-0.083959134 -0.041906962 -0.00030110216)
(-0.075763697 -0.044956952 -0.00031762176)
(-0.066855482 -0.046652331 -0.00032810431)
(-0.057493156 -0.046874708 -0.00033195659)
(-0.047969907 -0.04557418 -0.00032895592)
(-0.03860007 -0.042781706 -0.00031928583)
(-0.029702176 -0.038616868 -0.00030352842)
(-0.021580093 -0.033289844 -0.00028260207)
(-0.014504137 -0.027097269 -0.00025767409)
(-0.0086899784 -0.020412423 -0.0002302036)
(-0.0042781334 -0.01366945 -0.00020181129)
(-0.0013770615 -0.0073434782 -0.00017202136)
(-0.00015956891 -0.001948741 -0.00012889252)
(-0.00033519473 0.0051434427 -6.017626e-05)
(-0.0021543694 0.014536359 -2.1951948e-05)
(-0.0058955354 0.022805236 6.3725027e-06)
(-0.010969092 0.029853056 2.6390506e-05)
(-0.017045637 0.03566607 4.1907625e-05)
(-0.02390382 0.040277041 5.3431509e-05)
(-0.03134223 0.043747023 6.1526092e-05)
(-0.03918412 0.046150088 6.6826546e-05)
(-0.047277045 0.047560872 6.9795317e-05)
(-0.055486348 0.048045975 7.0724933e-05)
(-0.063689593 0.047658996 6.9764944e-05)
(-0.071772053 0.04643878 6.693693e-05)
(-0.079622879 0.044410403 6.215342e-05)
(-0.087132013 0.0415884 5.5241024e-05)
(-0.09418793 0.037981664 4.5967325e-05)
(-0.10067628 0.033599488 3.4071931e-05)
(-0.10647945 0.028458227 1.9301261e-05)
(-0.11147713 0.022588128 1.446994e-06)
(-0.11554788 0.016039888 -1.9611422e-05)
(-0.11857177 0.0088905659 -4.3868534e-05)
(-0.12043379 0.0012482761 -7.1155894e-05)
(-0.12102986 -0.0067448491 -0.00010107938)
(-0.12027206 -0.014909987 -0.00013303762)
(-0.11809523 -0.023033915 -0.00016617368)
(-0.11446566 -0.030872432 -0.0001994074)
(-0.10938895 -0.038157388 -0.0002314679)
(-0.1029178 -0.044607389 -0.00026095531)
(-0.095158767 -0.049942107 -0.00028643158)
(-0.08627675 -0.053899867 -0.00030653162)
(-0.076496136 -0.056257686 -0.00032008498)
(-0.06609745 -0.056852373 -0.00032623449)
(-0.05540868 -0.055600704 -0.00032453477)
(-0.044790973 -0.05251633 -0.00031501512)
(-0.034619233 -0.047721027 -0.00029819199)
(-0.025259477 -0.041448385 -0.00027501409)
(-0.017045233 -0.034039072 -0.00024677165)
(-0.010250592 -0.025927991 -0.00021515335)
(-0.0050635573 -0.017623185 -0.00018208818)
(-0.0016349252 -0.0096792338 -0.00014704675)
(-0.00019034646 -0.0026915027 -9.986092e-05)
(-0.00036392731 0.0063035467 -4.2136398e-05)
(-0.0023335539 0.017592293 8.9619898e-07)
(-0.0063769478 0.027386516 3.1434889e-05)
(-0.011850297 0.035640249 5.2993899e-05)
(-0.018393655 0.042386343 6.9778939e-05)
(-0.025766737 0.047698833 8.2411955e-05)
(-0.03375348 0.051673762 9.155948e-05)
(-0.042166964 0.054413638 9.7947557e-05)
(-0.050848636 0.05601517 0.00010209898)
(-0.059660777 0.0565611 0.00010433882)
(-0.068479959 0.056115836 0.00010482533)
(-0.077191661 0.054724397 0.00010356732)
(-0.085685632 0.052414182 0.00010044483)
(-0.093852055 0.049199042 9.52333e-05)
(-0.10157861 0.045085065 8.7631705e-05)
(-0.10874846 0.040077554 7.7294768e-05)
(-0.11523923 0.034188677 6.3869372e-05)
(-0.120923 0.027445325 4.7036023e-05)
(-0.12566743 0.019896781 2.6555754e-05)
(-0.12933804 0.011621798 2.3175688e-06)
(-0.13180175 0.0027345865 -2.5612946e-05)
(-0.1329322 -0.0066108103 -5.6941066e-05)
(-0.13261604 -0.016217086 -9.1108928e-05)
(-0.13076067 -0.025844336 -0.00012726879)
(-0.12730379 -0.035212857 -0.00016428712)
(-0.12222331 -0.044009942 -0.00020076858)
(-0.11554777 -0.051901103 -0.00023511549)
(-0.10736593 -0.058545928 -0.00026562259)
(-0.097834445 -0.063618491 -0.00029060215)
(-0.087182009 -0.06683154 -0.00030853026)
(-0.075708439 -0.067962959 -0.00031819897)
(-0.063777235 -0.066882084 -0.00031885368)
(-0.051800838 -0.063572787 -0.00031029485)
(-0.040218756 -0.058149936 -0.00029292176)
(-0.029470503 -0.050866233 -0.00026769233)
(-0.019966043 -0.042107748 -0.00023603158)
(-0.012051241 -0.032378118 -0.00019990388)
(-0.0059731887 -0.02227136 -0.00016161639)
(-0.0019351513 -0.012437265 -0.00012059878)
(-0.00022672669 -0.0035714965 -6.8574945e-05)
(-0.00039056032 0.0075533635 -1.6110217e-05)
(-0.0024996989 0.020879123 3.2072103e-05)
(-0.006823724 0.032306448 6.468313e-05)
(-0.012669168 0.041845835 8.77214e-05)
(-0.019648261 0.049582402 0.00010577429)
(-0.027503595 0.055636988 0.00011957788)
(-0.036005967 0.060145675 0.00012989929)
(-0.044959591 0.063243732 0.00013755167)
(-0.05420102 0.065053411 0.00014311456)
(-0.0635907 0.065676174 0.00014694219)
(-0.073005539 0.065188928 0.00014919828)
(-0.082332672 0.06364371 0.00014987566)
(-0.091464008 0.061070297 0.0001488181)
(-0.10029162 0.057481165 0.00014574488)
(-0.10870406 0.0528782 0.00014027917)
(-0.1165836 0.04726065 0.00013198011)
(-0.12380455 0.04063379 0.00012037972)
(-0.13023256 0.033017884 0.00010502725)
(-0.13572511 0.024457045 8.5538236e-05)
(-0.14013331 0.01502763 6.165151e-05)
(-0.14330515 0.0048457378 3.3288585e-05)
(-0.14509057 -0.0059266493 6.1563426e-07)
(-0.14534804 -0.017077181 -3.5905912e-05)
(-0.14395321 -0.028341558 -7.547264e-05)
(-0.14080956 -0.039405181 -0.00011692391)
(-0.13586036 -0.049909084 -0.00015875123)
(-0.12910177 -0.059461057 -0.00019914831)
(-0.1205959 -0.067652623 -0.00023610527)
(-0.11048237 -0.074082092 -0.00026754617)
(-0.098986527 -0.078383204 -0.00029150214)
(-0.086422163 -0.080257816 -0.00030630439)
(-0.073186562 -0.07950989 -0.00031077257)
(-0.059746268 -0.076076827 -0.00030437063)
(-0.046613113 -0.070053481 -0.00028729772)
(-0.034312319 -0.061704312 -0.00026047475)
(-0.023345702 -0.051460654 -0.00022545806)
(-0.014147426 -0.039902302 -0.00018453068)
(-0.0070388902 -0.027723308 -0.00014045508)
(-0.0022900657 -0.015687476 -9.2625635e-05)
(-0.00027078571 -0.004613173 -3.4775438e-05)
(-0.0004148698 0.0088858828 1.8561295e-05)
(-0.0026516135 0.024378983 7.2266507e-05)
(-0.0072327765 0.037539378 0.00010680024)
(-0.013419883 0.048439027 0.00013125459)
(-0.020799986 0.057220471 0.00015057844)
(-0.029100245 0.064056447 0.00016562271)
(-0.038079745 0.069127825 0.00017725448)
(-0.047535075 0.072606801 0.00018637208)
(-0.057299047 0.074644612 0.00019361042)
(-0.067231464 0.075364075 0.0001993519)
(-0.077210869 0.074856398 0.00020376518)
(-0.087127508 0.07318162 0.00020682644)
(-0.096877071 0.070372079 0.00020834175)
(-0.1063553 0.066438271 0.0002079713)
(-0.1154535 0.061376519 0.00020525664)
(-0.12405505 0.055177898 0.00019965111)
(-0.13203289 0.047837938 0.00019055651)
(-0.13924807 0.039366717 0.00017736712)
(-0.14554946 0.029798981 0.00015952364)
(-0.15077491 0.019203983 0.0001365745)
(-0.15475392 0.0076946469 0.00010824756)
(-0.15731227 -0.0045643625 7.4526528e-05)
(-0.1582786 -0.017350234 3.5718368e-05)
(-0.15749353 -0.03037812 -7.4712815e-06)
(-0.15482127 -0.043300801 -5.3902073e-05)
(-0.15016348 -0.055712928 -0.00010198273)
(-0.14347509 -0.067161237 -0.00014970301)
(-0.13478113 -0.077161878 -0.00019472005)
(-0.12419298 -0.085225622 -0.00023450342)
(-0.11192177 -0.090890924 -0.00026653534)
(-0.09828634 -0.093763556 -0.00028855101)
(-0.083712468 -0.09355986 -0.00029879173)
(-0.068720743 -0.09014883 -0.00029623449)
(-0.053901511 -0.08358678 -0.00028075202)
(-0.039878146 -0.074137952 -0.00025314518)
(-0.027261832 -0.062275896 -0.0002150741)
(-0.01659514 -0.048663363 -0.00016917657)
(-0.0082933825 -0.034110087 -0.0001187561)
(-0.0027124548 -0.019515799 -6.3175098e-05)
(-0.00032469097 -0.0058475118 1.7102483e-06)
(-0.00043656074 0.010293346 6.2477066e-05)
(-0.002787814 0.028072294 0.00012210265)
(-0.0076004008 0.043057108 0.00015840224)
(-0.014095628 0.055385583 0.00018421005)
(-0.021837876 0.065262256 0.00020481322)
(-0.030540346 0.072916423 0.00022117846)
(-0.039951631 0.078578199 0.00023427326)
(-0.049861756 0.082460741 0.00024508104)
(-0.060100806 0.084747704 0.00025429297)
(-0.070529015 0.085585979 0.00026232151)
(-0.081027781 0.085083029 0.00026934276)
(-0.091491882 0.083308062 0.00027531881)
(-0.10182244 0.08029635 0.00028001986)
(-0.11192076 0.076056001 0.00028304709)
(-0.12168304 0.07057657 0.000283857)
(-0.13099611 0.063838945 0.00028178888)
(-0.13973406 0.055826083 0.00027609932)
(-0.14775592 0.046534222 0.00026600457)
(-0.15490456 0.035984287 0.00025073557)
(-0.1610069 0.02423323 0.00022960563)
(-0.16587579 0.011384998 0.00020209204)
(-0.16931396 -0.0023992712 0.00016792833)
(-0.17112012 -0.016892351 0.00012718982)
(-0.17109809 -0.031794573 8.0410636e-05)
(-0.169069 -0.046730437 2.8638879e-05)
(-0.16488654 -0.061250332 -2.6507261e-05)
(-0.15845538 -0.074838761 -8.2842016e-05)
(-0.14975187 -0.086930875 -0.00013767907)
(-0.1388455 -0.096938847 -0.0001879749)
(-0.12591881 -0.10428884 -0.00023055205)
(-0.11128226 -0.10846789 -0.00026239088)
(-0.095379999 -0.1090779 -0.00028096126)
(-0.078782247 -0.10589125 -0.00028454955)
(-0.062161047 -0.098900092 -0.00027251792)
(-0.046249513 -0.088349791 -0.00024541147)
(-0.031787344 -0.074748173 -0.00020492884)
(-0.019449456 -0.058845642 -0.00015408397)
(-0.0097698554 -0.041584173 -9.6814887e-05)
(-0.0032155873 -0.024024505 -3.2457117e-05)
(-0.00039075155 -0.0073122684 4.090517e-05)
(-0.00045531943 0.011767138 0.0001161618)
(-0.0029067764 0.031937596 0.00018212472)
(-0.0079228515 0.048828682 0.00022002726)
(-0.014689513 0.062647499 0.00024712671)
(-0.022750741 0.073664471 0.00026902146)
(-0.031806913 0.082169636 0.00028679468)
(-0.04159703 0.08844655 0.00030151593)
(-0.051905348 0.092753266 0.00031425555)
(-0.062560007 0.095309315 0.00032576454)
(-0.07342257 0.096288511 0.00033649066)
(-0.084378383 0.09581672 0.00034662338)
(-0.095328094 0.093973731 0.00035611702)
(-0.1061799 0.090798406 0.0003647117)
(-0.11684264 0.086296345 0.00037195338)
(-0.12721976 0.080449423 0.00037721383)
(-0.13720422 0.073226614 0.00037971393)
(-0.14667434 0.0645957 0.00037855193)
(-0.15549055 0.054535567 0.00037274355)
(-0.16349332 0.043048861 0.00036127586)
(-0.17050233 0.030174827 0.00034317805)
(-0.1763173 0.01600212 0.00031761102)
(-0.18072077 0.00068126589 0.00028397447)
(-0.18348357 -0.015563744 0.00024203908)
(-0.1843731 -0.0324259 0.00019204886)
(-0.1831654 -0.04950826 0.00013486411)
(-0.1796613 -0.066322025 7.2042965e-05)
(-0.17370687 -0.082291419 5.8849924e-06)
(-0.16521763 -0.09676788 -6.0599314e-05)
(-0.15420564 -0.10905603 -0.00012381501)
(-0.14080679 -0.11845328 -0.00017981849)
(-0.12530463 -0.12430359 -0.00022465922)
(-0.10814547 -0.12606318 -0.00025480166)
(-0.089938534 -0.12337256 -0.00026757612)
(-0.071435785 -0.11612516 -0.00026157564)
(-0.053489094 -0.10451954 -0.00023688046)
(-0.03698644 -0.089082222 -0.00019510473)
(-0.022762772 -0.070651668 -0.00013963125)
(-0.011501479 -0.050318382 -7.5129086e-05)
(-0.0038132309 -0.029332289 -9.1629237e-07)
(-0.00047147378 -0.0090522591 8.260976e-05)
(-0.00047087199 0.013297837 0.00018005008)
(-0.003007244 0.035951694 0.00025278598)
(-0.0081970746 0.054820567 0.00029212477)
(-0.015195778 0.070183122 0.00032045344)
(-0.023528815 0.082378746 0.00034365071)
(-0.032884405 0.091761911 0.00036291671)
(-0.042992437 0.098673581 0.00037942595)
(-0.053631832 0.10342059 0.0003943399)
(-0.064629288 0.1062619 0.00040847622)
(-0.07584837 0.10740126 0.00042232682)
(-0.087179292 0.10698536 0.00043610458)
(-0.098529803 0.10510626 0.00044976655)
(-0.10981676 0.10180744 0.00046303314)
(-0.12095854 0.097092262 0.00047540386)
(-0.13186831 0.090934459 0.00048617092)
(-0.14244818 0.083289808 0.00049443607)
(-0.15258425 0.074108775 0.00049913172)
(-0.16214248 0.063349789 0.00049905421)
(-0.17096558 0.050993054 0.00049291388)
(-0.17887105 0.037054802 0.00047940648)
(-0.18565069 0.021601884 0.00045730981)
(-0.19107202 0.0047664883 0.00042560668)
(-0.19488224 -0.013239498 0.00038363685)
(-0.19681531 -0.032111122 0.00033125106)
(-0.19660296 -0.051439568 0.00026898738)
(-0.19399075 -0.070705427 0.00019821695)
(-0.18875947 -0.089278711 0.00012124832)
(-0.18075234 -0.10642874 4.1353199e-05)
(-0.16990729 -0.12134746 -3.7320919e-05)
(-0.15629241 -0.13318952 -0.00010997956)
(-0.14014046 -0.14113134 -0.00017156244)
(-0.12187645 -0.14444872 -0.00021726054)
(-0.10212993 -0.14260765 -0.00024311664)
(-0.08172347 -0.13535755 -0.00024660594)
(-0.061631673 -0.12280996 -0.00022703625)
(-0.042909384 -0.10548328 -0.00018572896)
(-0.026582391 -0.084296862 -0.00012637729)
(-0.013520664 -0.060503798 -5.4469505e-05)
(-0.0045196151 -0.035574045 3.0680092e-05)
(-0.00056961675 -0.011119671 0.00012631235)
(-0.00048305288 0.014875431 0.00025447098)
(-0.0030885951 0.040090204 0.0003344381)
(-0.0084215937 0.060997336 0.00037504668)
(-0.01561126 0.077947779 0.00040453868)
(-0.024165801 0.09135204 0.0004290389)
(-0.033761318 0.10163225 0.00044986496)
(-0.044118539 0.10919059 0.00046830108)
(-0.055011069 0.11438659 0.00048560717)
(-0.066264354 0.11752236 0.00050267827)
(-0.077744402 0.11883487 0.00052006341)
(-0.089347041 0.11849429 0.00053801355)
(-0.10098821 0.11660708 0.00055650385)