/*--------------------------------*- C++ -*----------------------------------*\
  =========                 |
  \\      /  F ield         | OpenFOAM: The Open Source CFD Toolbox
   \\    /   O peration     | Website:  https://openfoam.org
    \\  /    A nd           | Version:  7
     \\/     M anipulation  |
\*---------------------------------------------------------------------------*/
FoamFile
{
    version     2.0;
    format      ascii;
    class       volScalarField;
    location    "1.7";
    object      p;
}
// * * * * * * * * * * * * * * * * * * * * * * * * * * * * * * * * * * * * * //

dimensions      [1 -1 -2 0 0 0 0];

internalField   nonuniform List<scalar> 
19968
(
1
1
1
1
1
1
1
1
1
1
1
1
1
1
1
1
1
1
1
1
1
1
1
1
1
1
1
1
1
1
1
1
1
1
1
1
1
1
1
1
1
1
1
1
1
1
1
1
1
1
2.34182
9.05811
10.4797
10.5001
10.5782
10.6556
10.7334
10.7985
10.8583
10.9192
10.9846
11.0511
11.1132
11.1683
11.2151
11.254
11.2885
11.3266
11.3742
11.4328
11.4953
11.5496
11.5888
11.6132
11.6241
11.631
11.6536
11.6936
11.7476
11.7996
11.8373
11.8592
11.8694
11.8826
11.9096
11.949
11.9921
12.0286
12.0538
12.0736
12.0918
12.105
12.1097
12.1084
12.1044
12.0985
1
1
1
1
1
1
1
1
1
1
1
1
1
1
1
1
1
1
1
1
1
1
1
1
1
1
1
1
1
1
1
1
1
1
1
1
1
1
1
1
1
1
1
1
1
1
1
1
1
1
2.29527
8.99594
10.4757
10.5006
10.58
10.6602
10.7393
10.8061
10.8654
10.9225
10.9835
11.0467
11.107
11.1617
11.21
11.2513
11.2877
11.3267
11.3735
11.4308
11.4909
11.5433
11.582
11.6071
11.6203
11.6297
11.6537
11.6935
11.7465
11.797
11.8333
11.8539
11.8635
11.8766
11.9032
11.9421
11.9848
12.0213
12.0476
12.0685
12.0864
12.0988
12.103
12.1014
12.0974
12.092
1
1
1
1
1
1
1
1
1
1
1
1
1
1
1
1
1
1
1
1
1
1
1
1
1
1
1
1
1
1
1
1
1
1
1
1
1
1
1
1
1
1
1
1
1
1
1
1
1
1
2.18267
8.87815
10.4768
10.4958
10.5781
10.6593
10.7393
10.8077
10.8667
10.9215
10.9794
11.0398
11.0977
11.1514
11.2008
11.2451
11.284
11.3249
11.3711
11.4264
11.4836
11.5335
11.5716
11.5977
11.6137
11.6263
11.6514
11.691
11.7426
11.7922
11.8277
11.8471
11.8559
11.8682
11.8936
11.9312
11.9729
12.0094
12.037
12.0586
12.0753
12.0868
12.091
12.0898
12.0861
12.0814
1
1
1
1
1
1
1
1
1
1
1
1
1
1
1
1
1
1
1
1
1
1
1
1
1
1
1
1
1
1
1
1
1
1
1
1
1
1
1
1
1
1
1
1
1
1
1
1
1
1
1.9889
8.68021
10.4837
10.5019
10.5803
10.6601
10.7388
10.8065
10.8631
10.9165
10.9728
11.0304
11.0854
11.1369
11.1867
11.2338
11.2755
11.3187
11.3644
11.4171
11.4708
11.5183
11.556
11.5836
11.603
11.6196
11.6464
11.6855
11.735
11.7827
11.8166
11.8345
11.8428
11.8549
11.8793
11.9155
11.956
11.9923
12.0209
12.0428
12.0582
12.0684
12.0724
12.0715
12.0676
12.0637
1
1
1
1
1
1
1
1
1
1
1
1
1
1
1
1
1
1
1
1
1
1
1
1
1
1
1
1
1
1
1
1
1
1
1
1
1
1
1
1
1
1
1
1
1
1
1
1
1
1
1.74498
8.373
10.4898
10.5081
10.5762
10.6562
10.7299
10.7936
10.8517
10.9084
10.9659
11.0223
11.0747
11.1224
11.17
11.2177
11.2604
11.3048
11.3503
11.4006
11.4516
11.4976
11.5357
11.565
11.5875
11.6076
11.636
11.6743
11.7215
11.7668
11.7985
11.8152
11.8243
11.8372
11.8612
11.8959
11.9341
11.969
11.9976
12.0194
12.0341
12.0435
12.0476
12.0471
12.0435
12.0406
1
1
1
1
1
1
1
1
1
1
1
1
1
1
1
1
1
1
1
1
1
1
1
1
1
1
1
1
1
1
1
1
1
1
1
1
1
1
1
1
1
1
1
1
1
1
1
1
1
1
1.50624
7.93793
10.4687
10.4941
10.5513
10.6275
10.7083
10.7787
10.8394
10.8957
10.9512
11.0054
11.0558
11.1013
11.1482
11.1964
11.2387
11.282
11.3256
11.373
11.4224
11.4689
11.5088
11.5405
11.5659
11.589
11.6178
11.6552
11.6992
11.7411
11.771
11.7878
11.7996
11.8153
11.8401
11.873
11.9072
11.9388
11.9658
11.987
12.0011
12.0103
12.0148
12.0152
12.0124
12.0108
1
1
1
1
1
1
1
1
1
1
1
1
1
1
1
1
1
1
1
1
1
1
1
1
1
1
1
1
1
1
1
1
1
1
1
1
1
1
1
1
1
1
1
1
1
1
1
1
1
1
1.23442
7.30118
10.4369
10.4796
10.5339
10.6138
10.6956
10.7686
10.8288
10.8796
10.9265
10.9734
11.0204
11.0661
11.1158
11.1665
11.2098
11.2523
11.2944
11.3399
11.3892
11.4378
11.4801
11.513
11.5396
11.5642
11.5926
11.6271
11.6655
11.7018
11.7298
11.7494
11.7666
11.7878
11.8145
11.8445
11.8731
11.8995
11.9237
11.9437
11.9572
11.9666
11.9717
11.9733
11.9719
11.9721
1
1
1
1
1
1
1
1
1
1
1
1
1
1
1
1
1
1
1
1
1
1
1
1
1
1
1
1
1
1
1
1
1
1
1
1
1
1
1
1
1
1
1
1
1
1
1
1
1
1
1.00678
6.30205
10.4241
10.4875
10.5143
10.5827
10.6528
10.7187
10.7755
10.8253
10.8739
10.9259
10.9798
11.0339
11.0897
11.1412
11.1813
11.2173
11.2534
11.2951
11.3432
11.3921
11.4349
11.4683
11.4978
11.526
11.5546
11.5847
11.6158
11.6472
11.6764
11.7027
11.7292
11.7571
11.7846
11.8099
11.8314
11.8513
11.8713
11.8893
11.9023
11.9116
11.9169
11.9193
11.919
11.9207
1
1
1
1
1
1
1
1
1
1
1
1
1
1
1
1
1
1
1
1
1
1
1
1
1
1
1
1
1
1
1
1
1
1
1
1
1
1
1
1
1
1
1
1
1
1
1
1
1
1
1.00002
5.08463
10.2389
10.4396
10.4792
10.5554
10.6251
10.6871
10.7389
10.7855
10.8332
10.8867
10.9422
10.9968
11.0498
11.0973
11.1348
11.1698
11.2065
11.2496
11.2979
11.3455
11.3864
11.4194
11.452
11.4827
11.51
11.5343
11.5577
11.5844
11.6143
11.647
11.6814
11.7139
11.7401
11.7598
11.7742
11.7884
11.8046
11.8207
11.8339
11.8437
11.8495
11.8528
11.8535
11.8563
1
1
1
1
1
1
1
1
1
1
1
1
1
1
1
1
1
1
1
1
1
1
1
1
1
1
1
1
1
1
1
1
1
1
1
1
1
1
1
1
1
1
1
1
1
1
1
1
1
1
1
3.78303
9.86002
10.3987
10.4518
10.5271
10.5946
10.6532
10.7017
10.7459
10.7918
10.8459
10.9026
10.9563
11.0046
11.0468
11.0816
11.1168
11.1555
11.1997
11.2458
11.2883
11.3243
11.3555
11.3895
11.4205
11.4461
11.4662
11.4852
11.509
11.5395
11.5759
11.6144
11.6494
11.6754
11.6927
11.7034
11.7143
11.727
11.7398
11.7513
11.7589
11.7623
11.7631
11.7614
11.7627
1
1
1
1
1
1
1
1
1
1
1
1
1
1
1
1
1
1
1
1
1
1
1
1
1
1
1
1
1
1
1
1
1
1
1
1
1
1
1
1
1
1
1
1
1
1
1
1
1
1
1
2.49009
9.0631
10.348
10.3882
10.4669
10.5324
10.5926
10.6439
10.6921
10.7395
10.7933
10.8495
10.9016
10.9469
10.9862
11.0207
11.057
11.0975
11.1423
11.1861
11.2243
11.2562
11.2855
11.3187
11.349
11.3729
11.3914
11.4102
11.4343
11.4649
11.5
11.5335
11.5614
11.5807
11.5928
11.5992
11.6059
11.6149
11.6256
11.636
11.6425
11.6442
11.6423
11.6374
11.6367
1
1
1
1
1
1
1
1
1
1
1
1
1
1
1
1
1
1
1
1
1
1
1
1
1
1
1
1
1
1
1
1
1
1
1
1
1
1
1
1
1
1
1
1
1
1
1
1
1
1
1
1.34135
7.5644
10.3794
10.4061
10.4737
10.532
10.5855
10.6328
10.6744
10.7136
10.7568
10.8044
10.8507
10.8925
10.9285
10.9589
10.9892
11.0222
11.0588
11.0951
11.1269
11.1537
11.1782
11.2053
11.2317
11.255
11.2755
11.2975
11.3229
11.3521
11.3812
11.4071
11.4302
11.4485
11.462
11.4705
11.4786
11.4881
11.4972
11.5041
11.5044
11.4983
11.4883
11.4767
11.4714
1
1
1
1
1
1
1
1
1
1
1
1
1
1
1
1
1
1
1
1
1
1
1
1
1
1
1
1
1
1
1
1
1
1
1
1
1
1
1
1
1
1
1
1
1
1
1
1
1
1
1
1.0047
5.29819
10.1153
10.2736
10.3401
10.4115
10.4776
10.5374
10.5878
10.6316
10.6741
10.7181
10.7617
10.8045
10.844
10.878
10.9105
10.944
10.9801
11.0156
11.045
11.0681
11.0866
11.1058
11.1281
11.1507
11.1727
11.195
11.2178
11.2387
11.2532
11.2641
11.2722
11.2793
11.2827
11.2835
11.2845
11.288
11.2956
11.3026
11.3049
11.3
11.2911
11.2796
11.2735
1
1
1
1
1
1
1
1
1
1
1
1
1
1
1
1
1
1
1
1
1
1
1
1
1
1
1
1
1
1
1
1
1
1
1
1
1
1
1
1
1
1
1
1
1
1
1
1
1
1
1
1
2.78104
9.1176
10.1938
10.2609
10.3595
10.4263
10.4837
10.5322
10.5753
10.6155
10.6544
10.6913
10.7279
10.7616
10.7892
10.8147
10.8412
10.8713
10.9034
10.9299
10.9487
10.9608
10.9708
10.9855
11.004
11.0227
11.041
11.058
11.0701
11.0737
11.0741
11.0715
11.0691
11.0664
11.0652
11.0647
11.067
11.0722
11.0708
11.0584
11.0308
10.9953
10.9587
10.9301
1
1
1
1
1
1
1
1
1
1
1
1
1
1
1
1
1
1
1
1
1
1
1
1
1
1
1
1
1
1
1
1
1
1
1
1
1
1
1
1
1
1
1
1
1
1
1
1
1
1
1
1
1.08679
6.73415
10.2816
10.3099
10.3407
10.3887
10.4291
10.4696
10.5081
10.5441
10.5773
10.6075
10.637
10.665
10.6876
10.7074
10.7269
10.7495
10.7764
10.801
10.8181
10.8276
10.8301
10.8367
10.8469
10.8584
10.8703
10.8797
10.8829
10.876
10.864
10.8456
10.8231
10.799
10.7738
10.7466
10.7197
10.6897
10.6519
10.6054
10.5595
10.5153
10.4934
10.4803
1
1
1
1
1
1
1
1
1
1
1
1
1
1
1
1
1
1
1
1
1
1
1
1
1
1
1
1
1
1
1
1
1
1
1
1
1
1
1
1
1
1
1
1
1
1
1
1
1
1
1
1
1.00019
3.42443
9.35289
10.1161
10.1721
10.2548
10.3072
10.3531
10.3963
10.4365
10.4704
10.4972
10.5194
10.5413
10.5594
10.5715
10.5832
10.5956
10.6146
10.635
10.6498
10.6569
10.6516
10.6459
10.6427
10.6417
10.6426
10.642
10.6342
10.6179
10.5926
10.5578
10.5134
10.4655
10.4147
10.3607
10.3059
10.2488
10.1858
10.1166
10.0292
9.94785
9.82653
9.93658
1
1
1
1
1
1
1
1
1
1
1
1
1
1
1
1
1
1
1
1
1
1
1
1
1
1
1
1
1
1
1
1
1
1
1
1
1
1
1
1
1
1
1
1
1
1
1
1
1
1
1
1
1
1.20275
7.22688
10.1566
10.1522
10.1893
10.2375
10.2767
10.313
10.3475
10.3756
10.3956
10.4099
10.4243
10.4374
10.4424
10.4474
10.4529
10.4609
10.4735
10.4856
10.4918
10.4836
10.4673
10.4486
10.4325
10.4207
10.4095
10.3932
10.3676
10.3298
10.2775
10.2107
10.134
10.0482
9.9506
9.83564
9.69782
9.5138
9.26773
8.88877
8.34748
7.39875
5.48686
1
1
1
1
1
1
1
1
1
1
1
1
1
1
1
1
1
1
1
1
1
1
1
1
1
1
1
1
1
1
1
1
1
1
1
1
1
1
1
1
1
1
1
1
1
1
1
1
1
1
1
1
1
1.00145
4.40931
9.61382
9.99899
10.0703
10.1442
10.1866
10.2203
10.2497
10.2761
10.2948
10.3071
10.3195
10.3298
10.3304
10.3298
10.328
10.3276
10.3311
10.338
10.3424
10.3335
10.3117
10.2819
10.251
10.2243
10.2012
10.1757
10.1411
10.0916
10.0245
9.93824
9.83616
9.71524
9.57659
9.4046
9.19914
8.92335
8.56735
8.04547
7.37879
6.13001
4.54635
1
1
1
1
1
1
1
1
1
1
1
1
1
1
1
1
1
1
1
1
1
1
1
1
1
1
1
1
1
1
1
1
1
1
1
1
1
1
1
1
1
1
1
1
1
1
1
1
1
1
1
1
1
0.999998
1.75156
8.03442
10.0311
10.0086
10.0625
10.105
10.1349
10.1592
10.1824
10.1985
10.2077
10.2161
10.2213
10.2181
10.2124
10.2042
10.196
10.1888
10.1859
10.1852
10.1767
10.1544
10.1184
10.0742
10.0295
9.98867
9.9481
9.90101
9.83847
9.7576
9.65385
9.53005
9.37843
9.20215
8.98552
8.72743
8.40217
7.98241
7.45256
6.67514
5.67041
4.52992
1
1
1
1
1
1
1
1
1
1
1
1
1
1
1
1
1
1
1
1
1
1
1
1
1
1
1
1
1
1
1
1
1
1
1
1
1
1
1
1
1
1
1
1
1
1
1
1
1
1
1
1
1
1
1.0196
5.08368
9.75455
9.91213
9.94796
10.0031
10.0357
10.0586
10.0762
10.0889
10.0953
10.0997
10.1022
10.1006
10.0934
10.0824
10.0677
10.0496
10.0345
10.0257
10.0157
9.99442
9.95697
9.9052
9.84618
9.78814
9.73022
9.66766
9.59091
9.49683
9.37943
9.23925
9.06787
8.86386
8.62041
8.33064
7.98378
7.54966
7.02276
6.35006
5.58526
4.72568
1
1
1
1
1
1
1
1
1
1
1
1
1
1
1
1
1
1
1
1
1
1
1
1
1
1
1
1
1
1
1
1
1
1
1
1
1
1
1
1
1
1
1
1
1
1
1
1
1
1
1
1
1
1
0.999999
1.94583
8.18318
9.8798
9.85994
9.92128
9.95038
9.96906
9.98077
9.9886
9.99055
9.98857
9.98912
9.98759
9.97974
9.9671
9.94677
9.91985
9.89343
9.8739
9.85817
9.83491
9.79582
9.74096
9.6731
9.60055
9.52412
9.44259
9.34884
9.24043
9.11172
8.96006
8.77851
8.5625
8.31002
8.01271
7.66513
7.24874
6.76373
6.21268
5.61798
4.9317
1
1
1
1
1
1
1
1
1
1
1
1
1
1
1
1
1
1
1
1
1
1
1
1
1
1
1
1
1
1
1
1
1
1
1
1
1
1
1
1
1
1
1
1
1
1
1
1
1
1
1
1
1
1
0.999999
1.02904
4.96118
9.60021
9.80168
9.84052
9.86905
9.88731
9.89564
9.89302
9.88892
9.8803
9.87573
9.86931
9.85883
9.84481
9.82408
9.79445
9.7601
9.72983
9.70137
9.66914
9.62644
9.57107
9.50197
9.42317
9.33441
9.23745
9.1295
9.00944
8.87277
8.71452
8.52897
8.31175
8.06231
7.77375
7.44261
7.06115
6.62861
6.16873
5.67699
5.12845
1
1
1
1
1
1
1
1
1
1
1
1
1
1
1
1
1
1
1
1
1
1
1
1
1
1
1
1
1
1
1
1
1
1
1
1
1
1
1
1
1
1
1
1
1
1
1
1
1
1
1
1
1
1
1
1.00002
1.68572
7.832
9.81035
9.78382
9.79584
9.80326
9.80405
9.79458
9.78607
9.77243
9.76131
9.752
9.73936
9.7267
9.70754
9.68038
9.64237
9.60065
9.55709
9.51338
9.46567
9.40858
9.33906
9.25761
9.16079
9.05127
8.93029
8.79898
8.65407
8.4915
8.30627
8.09383
7.85595
7.58318
7.28025
6.94022
6.56265
6.16502
5.74359
5.29152
1
1
1
1
1
1
1
1
1
1
1
1
1
1
1
1
1
1
1
1
1
1
1
1
1
1
1
1
1
1
1
1
1
1
1
1
1
1
1
1
1
1
1
1
1
1
1
1
1
1
1
1
1
1
1
1
1.01428
4.26951
9.29044
9.64319
9.65905
9.67197
9.67827
9.6792
9.67047
9.65643
9.63957
9.62545
9.60682
9.58697
9.56686
9.54167
9.50676
9.4621
9.40713
9.35515
9.30019
9.23858
9.16681
9.08387
8.98475
8.87204
8.74751
8.61183
8.46312
8.29944
8.1177
7.91265
7.69079
7.43295
7.16081
6.85868
6.52637
6.18324
5.81053
5.43097
1
1
1
1
1
1
1
1
1
1
1
1
1
1
1
1
1
1
1
1
1
1
1
1
1
1
1
1
1
1
1
1
1
1
1
1
1
1
1
1
1
1
1
1
1
1
1
1
1
1
1
1
1
1
1
1
1
1.27728
6.94441
9.62054
9.58221
9.56732
9.57687
9.58311
9.58326
9.5702
9.54973
9.53239
9.50985
9.48317
9.45849
9.43063
9.39274
9.34588
9.28677
9.22697
9.16356
9.0921
9.01114
8.9212
8.81852
8.70527
8.58127
8.44469
8.29551
8.13161
7.95425
7.75607
7.54826
7.30688
7.06108
6.79365
6.49876
6.19554
5.86387
5.53829
1
1
1
1
1
1
1
1
1
1
1
1
1
1
1
1
1
1
1
1
1
1
1
1
1
1
1
1
1
1
1
1
1
1
1
1
1
1
1
1
1
1
1
1
1
1
1
1
1
1
1
1
1
1
1
1
1
1.00231
2.85524
8.55216
9.37467
9.39099
9.43936
9.46724
9.47978
9.4707
9.45281
9.43443
9.40739
9.37458
9.34175
9.31001
9.26781
9.22011
9.16154
9.09646
9.02583
8.94546
8.85704
8.76055
8.65509
8.54332
8.42361
8.29179
8.14837
7.98729
7.81736
7.62514
7.43003
7.20833
6.98355
6.74171
6.47365
6.20391
5.90942
5.62541
1
1
1
1
1
1
1
1
1
1
1
1
1
1
1
1
1
1
1
1
1
1
1
1
1
1
1
1
1
1
1
1
1
1
1
1
1
1
1
1
1
1
1
1
1
1
1
1
1
1
1
1
1
1
1
1
1
1
1.09278
4.9231
9.12939
9.35534
9.37769
9.40929
9.42208
9.41198
9.39469
9.36499
9.32307
9.27585
9.233
9.19465
9.15214
9.10509
9.04647
8.97571
8.8964
8.81007
8.71673
8.61747
8.51097
8.40089
8.28494
8.15774
8.02192
7.86418
7.70098
7.51727
7.33521
7.13148
6.92329
6.69595
6.45154
6.20606
5.94079
5.68777
1
1
1
1
1
1
1
1
1
1
1
1
1
1
1
1
1
1
1
1
1
1
1
1
1
1
1
1
1
1
1
1
1
1
1
1
1
1
1
1
1
1
1
1
1
1
1
1
1
1
1
1
1
1
1
1
1
1
1.00031
1.39757
6.59397
9.27842
9.3641
9.36758
9.35906
9.34202
9.31767
9.28025
9.22542
9.17271
9.12553
9.08201
9.03987
8.9929
8.9318
8.85523
8.76659
8.67739
8.58464
8.48888
8.38552
8.27856
8.16406
8.03928
7.90684
7.75515
7.59971
7.42965
7.25995
7.07081
6.87589
6.66088
6.43909
6.21339
5.97401
5.74656
1
1
1
1
1
1
1
1
1
1
1
1
1
1
1
1
1
1
1
1
1
1
1
1
1
1
1
1
1
1
1
1
1
1
1
1
1
1
1
1
1
1
1
1
1
1
1
1
1
1
1
1
1
1
1
1
1
1
1
1.00464
2.27831
8.05787
9.31658
9.28166
9.27335
9.24007
9.20958
9.16751
9.11276
9.06009
9.00993
8.96191
8.916
8.86769
8.80573
8.72813
8.64008
8.55399
8.46998
8.37621
8.2772
8.17279
8.06094
7.93936
7.80897
7.66563
7.51593
7.35807
7.19699
7.01965
6.83644
6.63422
6.43258
6.22488
6.00666
5.80162
1
1
1
1
1
1
1
1
1
1
1
1
1
1
1
1
1
1
1
1
1
1
1
1
1
1
1
1
1
1
1
1
1
1
1
1
1
1
1
1
1
1
1
1
1
1
1
1
1
1
1
1
1
1
1
1
1
1
1
1.00001
1.04323
4.11581
8.87425
9.17401
9.10939
9.08532
9.05693
9.0229
8.98586
8.94872
8.90758
8.86186
8.81192
8.75751
8.69494
8.61899
8.53538
8.45417
8.37632
8.28496
8.18886
8.08577
7.97451
7.85346
7.72518
7.58827
7.44396
7.29561
7.14166
6.97458
6.80314
6.61485
6.43048
6.24054
6.04011
5.85478
1
1
1
1
1
1
1
1
1
1
1
1
1
1
1
1
1
1
1
1
1
1
1
1
1
1
1
1
1
1
1
1
1
1
1
1
1
1
1
1
1
1
1
1
1
1
1
1
1
1
1
1
1
1
1
1
1
1
1
1
1.0001
1.24262
5.45821
8.97204
8.98599
8.96035
8.95816
8.93851
8.90883
8.87347
8.8309
8.78235
8.72795
8.66694
8.60286
8.53121
8.45095
8.37156
8.29382
8.20215
8.10604
8.00321
7.89312
7.77439
7.64873
7.51995
7.3839
7.24303
7.09492
6.93658
6.77466
6.59882
6.42795
6.25202
6.06649
5.89577
1
1
1
1
1
1
1
1
1
1
1
1
1
1
1
1
1
1
1
1
1
1
1
1
1
1
1
1
1
1
1
1
1
1
1
1
1
1
1
1
1
1
1
1
1
1
1
1
1
1
1
1
1
1
1
1
1
1
1
1
1
1.00186
1.52575
6.35877
8.83245
8.90137
8.88278
8.86384
8.83859
8.80271
8.7598
8.70849
8.65131
8.58797
8.5212
8.45569
8.37823
8.30091
8.21982
8.1283
8.03135
7.92817
7.81793
7.70151
7.57899
7.45551
7.32678
7.19224
7.05205
6.90391
6.75097
6.58714
6.42702
6.26167
6.0887
5.92862
1
1
1
1
1
1
1
1
1
1
1
1
1
1
1
1
1
1
1
1
1
1
1
1
1
1
1
1
1
1
1
1
1
1
1
1
1
1
1
1
1
1
1
1
1
1
1
1
1
1
1
1
1
1
1
1
1
1
1
1
1
1
1.00793
1.8601
7.05195
8.8275
8.82648
8.80109
8.76722
8.73285
8.68959
8.63848
8.58052
8.5173
8.45069
8.38618
8.31116
8.23325
8.14899
8.05621
7.95868
7.85627
7.74698
7.63298
7.51609
7.39784
7.27361
7.14465
7.01305
6.87484
6.73092
6.57739
6.42633
6.26931
6.10705
5.95476
1
1
1
1
1
1
1
1
1
1
1
1
1
1
1
1
1
1
1
1
1
1
1
1
1
1
1
1
1
1
1
1
1
1
1
1
1
1
1
1
1
1
1
1
1
1
1
1
1
1
1
1
1
1
1
1
1
1
1
1
1
1
1.00001
1.0203
2.35977
7.61545
8.76733
8.72956
8.71092
8.66435
8.61972
8.56837
8.51155
8.44865
8.38384
8.31801
8.24402
8.16509
8.07939
7.98804
7.89262
7.79301
7.6869
7.57648
7.46469
7.35063
7.22908
7.10195
6.97532
6.84512
6.71042
6.56736
6.42532
6.27698
6.12447
5.97812
1
1
1
1
1
1
1
1
1
1
1
1
1
1
1
1
1
1
1
1
1
1
1
1
1
1
1
1
1
1
1
1
1
1
1
1
1
1
1
1
1
1
1
1
1
1
1
1
1
1
1
1
1
1
1
1
1
1
1
1
1
1
1
1.00005
1.04793
3.04288
7.95766
8.66765
8.62332
8.59324
8.54365
8.49374
8.43786
8.37769
8.31473
8.24798
8.17576
8.098
8.01388
7.92502
7.83211
7.73511
7.63275
7.52674
7.41966
7.30948
7.19154
7.06617
6.94086
6.81775
6.69276
6.55914
6.42458
6.28463
6.14119
6.00039
1
1
1
1
1
1
1
1
1
1
1
1
1
1
1
1
1
1
1
1
1
1
1
1
1
1
1
1
1
1
1
1
1
1
1
1
1
1
1
1
1
1
1
1
1
1
1
1
1
1
1
1
1
1
1
1
1
1
1
1
1
1
1
1
1.00016
1.10615
3.58454
8.09645
8.56994
8.51332
8.47594
8.42726
8.37477
8.31443
8.24954
8.18146
8.10878
8.03105
7.9493
7.86376
7.77432
7.68112
7.58395
7.48357
7.381
7.27342
7.15823
7.03684
6.91407
6.79651
6.67924
6.55302
6.42357
6.29119
6.15707
6.02173
1
1
1
1
1
1
1
1
1
1
1
1
1
1
1
1
1
1
1
1
1
1
1
1
1
1
1
1
1
1
1
1
1
1
1
1
1
1
1
1
1
1
1
1
1
1
1
1
1
1
1
1
1
1
1
1
1
1
1
1
1
1
1
1
1
1.00056
1.17306
3.91255
8.10026
8.47148
8.40371
8.36351
8.31175
8.25347
8.19222
8.12626
8.05461
7.97757
7.89565
7.80996
7.72154
7.63036
7.53668
7.44059
7.34168
7.23729
7.12667
7.01165
6.89492
6.78292
6.67186
6.55154
6.42507
6.2985
6.17211
6.04191
1
1
1
1
1
1
1
1
1
1
1
1
1
1
1
1
1
1
1
1
1
1
1
1
1
1
1
1
1
1
1
1
1
1
1
1
1
1
1
1
1
1
1
1
1
1
1
1
1
1
1
1
1
1
1
1
1
1
1
1
1
1
1
1
1
1
1.00124
1.22617
4.0464
8.02317
8.37235
8.29923
8.2531
8.19685
8.13819
8.07383
8.00363
7.92878
7.85004
7.76751
7.68105
7.59109
7.49839
7.40317
7.30492
7.2028
7.09727
6.98961
6.88063
6.77311
6.66544
6.5498
6.42687
6.30506
6.18478
6.06027
1
1
1
1
1
1
1
1
1
1
1
1
1
1
1
1
1
1
1
1
1
1
1
1
1
1
1
1
1
1
1
1
1
1
1
1
1
1
1
1
1
1
1
1
1
1
1
1
1
1
1
1
1
1
1
1
1
1
1
1
1
1
1
1
1
1
1
1.00196
1.25411
4.02353
7.89513
8.27172
8.19849
8.14567
8.08536
8.02237
7.95497
7.8826
7.80601
7.72558
7.64136
7.55362
7.46318
7.37043
7.27483
7.17608
7.07459
6.97229
6.86904
6.76457
6.65907
6.54792
6.43081
6.31435
6.20038
6.08205
1
1
1
1
1
1
1
1
1
1
1
1
1
1
1
1
1
1
1
1
1
1
1
1
1
1
1
1
1
1
1
1
1
1
1
1
1
1
1
1
1
1
1
1
1
1
1
1
1
1
1
1
1
1
1
1
1
1
1
1
1
1
1
1
1
1
1
1
1.00243
1.25546
3.85933
7.73457
8.17683
8.10586
8.0452
7.97861
7.91123
7.84095
7.76624
7.68855
7.60766
7.52306
7.435
7.34392
7.25028
7.15482
7.05744
6.95938
6.86008
6.75806
6.6542
6.54654
6.43542
6.32449
6.21575
6.10315
1
1
1
1
1
1
1
1
1
1
1
1
1
1
1
1
1
1
1
1
1
1
1
1
1
1
1
1
1
1
1
1
1
1
1
1
1
1
1
1
1
1
1
1
1
1
1
1
1
1
1
1
1
1
1
1
1
1
1
1
1
1
1
1
1
1
1
1
1
1.00251
1.23158
3.58345
7.55934
8.08296
8.01335
7.94595
7.87383
7.79975
7.72593
7.65011
7.57184
7.49062
7.40654
7.31936
7.2292
7.13692
7.04309
6.94861
6.85239
6.75272
6.65019
6.5453
6.44002
6.33463
6.2303
6.12384
1
1
1
1
1
1
1
1
1
1
1
1
1
1
1
1
1
1
1
1
1
1
1
1
1
1
1
1
1
1
1
1
1
1
1
1
1
1
1
1
1
1
1
1
1
1
1
1
1
1
1
1
1
1
1
1
1
1
1
1
1
1
1
1
1
1
1
1
1
1
1.00219
1.18983
3.25982
7.35019
7.96828
7.90835
7.83311
7.75868
7.68321
7.60941
7.53423
7.45733
7.37846
7.29661
7.21133
7.12284
7.03203
6.93947
6.8455
6.74923
6.65011
6.54945
6.4486
6.34703
6.24505
6.14324
1
1
1
1
1
1
1
1
1
1
1
1
1
1
1
1
1
1
1
1
1
1
1
1
1
1
1
1
1
1
1
1
1
1
1
1
1
1
1
1
1
1
1
1
1
1
1
1
1
1
1
1
1
1
1
1
1
1
1
1
1
1
1
1
1
1
1
1
1
1
1
1.00162
1.14445
2.98239
7.0015
7.83078
7.79315
7.71965
7.64613
7.5696
7.49711
7.42686
7.35451
7.2785
7.19808
7.11298
7.02405
6.93244
6.83981
6.74602
6.65123
6.55535
6.45872
6.36125
6.26153
6.16331
1
1
1
1
1
1
1
1
1
1
1
1
1
1
1
1
1
1
1
1
1
1
1
1
1
1
1
1
1
1
1
1
1
1
1
1
1
1
1
1
1
1
1
1
1
1
1
1
1
1
1
1
1
1
1
1
1
1
1
1
1
1
1
1
1
1
1
1
1
1
1
1
1.00106
1.10889
2.64544
6.51299
7.65796
7.69193
7.6157
7.54757
7.47567
7.4029
7.33067
7.25782
7.18164
7.10071
7.01558
6.92722
6.83726
6.74656
6.65558
6.56332
6.47077
6.37626
6.27861
6.18361
1
1
1
1
1
1
1
1
1
1
1
1
1
1
1
1
1
1
1
1
1
1
1
1
1
1
1
1
1
1
1
1
1
1
1
1
1
1
1
1
1
1
1
1
1
1
1
1
1
1
1
1
1
1
1
1
1
1
1
1
1
1
1
1
1
1
1
1
1
1
1
1
1
1.00069
1.07498
2.27999
5.8147
7.49862
7.61997
7.52297
7.45867
7.39331
7.32302
7.24849
7.17084
7.09044
7.00732
6.92184
6.83524
6.74785
6.66026
6.57195
6.48216
6.38965
6.29633
6.20475
1
1
1
1
1
1
1
1
1
1
1
1
1
1
1
1
1
1
1
1
1
1
1
1
1
1
1
1
1
1
1
1
1
1
1
1
1
1
1
1
1
1
1
1
1
1
1
1
1
1
1
1
1
1
1
1
1
1
1
1
1
1
1
1
1
1
1
1
1
1
1
1
1
1
1.0004
1.04565
1.89989
4.93427
7.30225
7.53132
7.45822
7.39322
7.31947
7.24235
7.16243
7.082
7.00095
6.91885
6.83574
6.75165
6.66732
6.58059
6.49209
6.40371
6.31379
6.22404
1
1
1
1
1
1
1
1
1
1
1
1
1
1
1
1
1
1
1
1
1
1
1
1
1
1
1
1
1
1
1
1
1
1
1
1
1
1
1
1
1
1
1
1
1
1
1
1
1
1
1
1
1
1
1
1
1
1
1
1
1
1
1
1
1
1
1
1
1
1
1
1
1
1
1
1.00019
1.02372
1.55421
4.04484
6.98599
7.45516
7.4052
7.31212
7.2332
7.15392
7.07559
6.99671
6.91655
6.83598
6.75495
6.67285
6.58865
6.50435
6.41829
6.32999
6.24412
1
1
1
1
1
1
1
1
1
1
1
1
1
1
1
1
1
1
1
1
1
1
1
1
1
1
1
1
1
1
1
1
1
1
1
1
1
1
1
1
1
1
1
1
1
1
1
1
1
1
1
1
1
1
1
1
1
1
1
1
1
1
1
1
1
1
1
1
1
1
1
1
1
1
1
1
1.00007
1.01019
1.3071
3.21765
6.4907
7.31261
7.35598
7.22291
7.15024
7.07858
7.00183
6.92241
6.84304
6.76226
6.68166
6.6004
6.51672
6.43173
6.34755
6.26343
1
1
1
1
1
1
1
1
1
1
1
1
1
1
1
1
1
1
1
1
1
1
1
1
1
1
1
1
1
1
1
1
1
1
1
1
1
1
1
1
1
1
1
1
1
1
1
1
1
1
1
1
1
1
1
1
1
1
1
1
1
1
1
1
1
1
1
1
1
1
1
1
1
1
1
1
1
1.00002
1.00383
1.15206
2.52545
5.67001
7.1355
7.23808
7.1598
7.08304
7.00449
6.92751
6.84487
6.76596
6.69013
6.61132
6.53131
6.44982
6.36621
6.28269
1
1
1
1
1
1
1
1
1
1
1
1
1
1
1
1
1
1
1
1
1
1
1
1
1
1
1
1
1
1
1
1
1
1
1
1
1
1
1
1
1
1
1
1
1
1
1
1
1
1
1
1
1
1
1
1
1
1
1
1
1
1
1
1
1
1
1
1
1
1
1
1
1
1
1
1
1
1
1.00001
1.00125
1.06867
1.93951
4.6163
6.84655
7.1468
7.1056
7.00727
6.92537
6.85366
6.78158
6.70342
6.6251
6.5474
6.46668
6.38521
6.30298
1
1
1
1
1
1
1
1
1
1
1
1
1
1
1
1
1
1
1
1
1
1
1
1
1
1
1
1
1
1
1
1
1
1
1
1
1
1
1
1
1
1
1
1
1
1
1
1
1
1
1
1
1
1
1
1
1
1
1
1
1
1
1
1
1
1
1
1
1
1
1
1
1
1
1
1
1
1
1
1
1.00037
1.02694
1.49414
3.53609
6.32118
7.00471
7.05667
6.95732
6.87886
6.79942
6.72389
6.64757
6.56725
6.48826
6.40543
6.32225
1
1
1
1
1
1
1
1
1
1
1
1
1
1
1
1
1
1
1
1
1
1
1
1
1
1
1
1
1
1
1
1
1
1
1
1
1
1
1
1
1
1
1
1
1
1
1
1
1
1
1
1
1
1
1
1
1
1
1
1
1
1
1
1
1
1
1
1
1
1
1
1
1
1
1
1
1
1
1
1
1
1.00009
1.00878
1.21822
2.61117
5.4203
6.80414
6.97163
6.91364
6.82055
6.74098
6.66458
6.587
6.50741
6.42878
6.34744
1
1
1
1
1
1
1
1
1
1
1
1
1
1
1
1
1
1
1
1
1
1
1
1
1
1
1
1
1
1
1
1
1
1
1
1
1
1
1
1
1
1
1
1
1
1
1
1
1
1
1
1
1
1
1
1
1
1
1
1
1
1
1
1
1
1
1
1
1
1
1
1
1
1
1
1
1
1
1
1
1
1
1.00002
1.00234
1.08142
1.89963
4.236
6.4791
6.85915
6.85231
6.75721
6.666
6.59831
6.53523
6.46614
6.38457
1
1
1
1
1
1
1
1
1
1
1
1
1
1
1
1
1
1
1
1
1
1
1
1
1
1
1
1
1
1
1
1
1
1
1
1
1
1
1
1
1
1
1
1
1
1
1
1
1
1
1
1
1
1
1
1
1
1
1
1
1
1
1
1
1
1
1
1
1
1
1
1
1
1
1
1
1
1
1
1
1
1
1
1
1.00049
1.02619
1.40777
3.11823
5.65764
6.75306
6.81622
6.72284
6.6172
6.53125
6.46161
6.40691
1
1
1
1
1
1
1
1
1
1
1
1
1
1
1
1
1
1
1
1
1
1
1
1
1
1
1
1
1
1
1
1
1
1
1
1
1
1
1
1
1
1
1
1
1
1
1
1
1
1
1
1
1
1
1
1
1
1
1
1
1
1
1
1
1
1
1
1
1
1
1
1
1
1
1
1
1
1
1
1
1
1
1
1
1
1.00009
1.00648
1.15327
2.18562
4.62925
6.37302
6.69073
6.67044
6.58243
6.50447
6.43893
1
1
1
1
1
1
1
1
1
1
1
1
1
1
1
1
1
1
1
1
1
1
1
1
1
1
1
1
1
1
1
1
1
1
1
1
1
1
1
1
1
1
1
1
1
1
1
1
1
1
1
1
1
1
1
1
1
1
1
1
1
1
1
1
1
1
1
1
1
1
1
1
1
1
1
1
1
1
1
1
1
1
1
1
1
1
1.00001
1.00138
1.04644
1.57842
3.30641
5.7839
6.5459
6.57229
6.51598
6.4308
1
1
1
1
1
1
1
1
1
1
1
1
1
1
1
1
1
1
1
1
1
1
1
1
1
1
1
1
1
1
1
1
1
1
1
1
1
1
1
1
1
1
1
1
1
1
1
1
1
1
1
1
1
1
1
1
1
1
1
1
1
1
1
1
1
1
1
1
1
1
1
1
1
1
1
1
1
1
1
1
1
1
1
1
1
1
1
1
1.00021
1.01257
1.19772
2.37912
4.53267
6.22866
6.58046
6.53851
1
1
1
1
1
1
1
1
1
1
1
1
1
1
1
1
1
1
1
1
1
1
1
1
1
1
1
1
1
1
1
1
1
1
1
1
1
1
1
1
1
1
1
1
1
1
1
1
1
1
1
1
1
1
1
1
1
1
1
1
1
1
1
1
1
1
1
1
1
1
1
1
1
1
1
1
1
1
1
1
1
1
1
1
1
1
1
1
1
1.00003
1.00206
1.06413
1.59543
3.37061
5.44547
6.37389
1
1
1
1
1
1
1
1
1
1
1
1
1
1
1
1
1
1
1
1
1
1
1
1
1
1
1
1
1
1
1
1
1
1
1
1
1
1
1
1
1
1
1
1
1
1
1
1
1
1
1
1
1
1
1
1
1
1
1
1
1
1
1
1
1
1
1
1
1
1
1
1
1
1
1
1
1
1
1
1
1
1
1
1
1
1
1
1
1
1
1
1.00037
1.01335
1.21658
2.23252
4.49232
1
1
1
1
1
1
1
1
1
1
1
1
1
1
1
1
1
1
1
1
1
1
1
1
1
1
1
1
1
1
1
1
1
1
1
1
1
1
1
1
1
1
1
1
1
1
1
1
1
1
1
1
1
1
1
1
1
1
1
1
1
1
1
1
1
1
1
1
1
1
1
1
1
1
1
1
1
1
1
1
1
1
1
1
1
1
1
1
1
1
1
1
1.00003
1.0025
1.05471
1.56964
1
1
1
1
1
1
1
1
1
1
1
1
1
1
1
1
1
1
1
1
1
1
1
1
1
1
1
1
1
1
1
1
1
1
1
1
1
1
1
1
1
1
1
1
1
1
1
1
1
1
1
1
1
1
1
1
1
1
1
1
1
1
1
1
1
1
1
1
1
1
1
1
1
1
1
1
1
1
1
1
1
1
1
1
1
1
1
1
1
1
1
1
1
1
1.00031
1.01177
1
1
1
1
1
1
1
1
1
1
1
1
1
1
1
1
1
1
1
1
1
1
1
1
1
1
1
1
1
1
1
1
1
1
1
1
1
1
1
1
1
1
1
1
1
1
1
1
1
1
1
1
1
1
1
1
1
1
1
1
1
1
1
1
1
1
1
1
1
1
1
1
1
1
1
1
1
1
1
1
1
1
1
1
1
1
1
1
1
1
1
1
1
1
1
1.00003
1
1
1
1
1
1
1
1
1
1
1
1
1
1
1
1
1
1
1
1
1
1
1
1
1
1
1
1
1
1
1
1
1
1
1
1
1
1
1
1
1
1
1
1
1
1
1
1
1
1
1
1
1
1
1
1
1
1
1
1
1
1
1
1
1
1
1
1
1
1
1
1
1
1
1
1
1
1
1
1
1
1
1
1
1
1
1
1
1
1
1
1
1
1
1
1
1
1
1
1
1
1
1
1
1
1
1
1
1
1
1
1
1
1
1
1
1
1
1
1
1
1
1
1
1
1
1
1
1
1
1
1
1
1
1
1
1
1
1
1
1
1
1
1
1
1
1
1
1
1
1
1
1
1
1
1
1
1
1
1
1
1
1
1
1
1
1
1
1
1
1
1
1
1
1
1
1
1
1
1
1
1
1
1
1
1
1
1
1
1
1
1
1
1
1
1
1
1
1
1
1
1
1
1
1
1
1
1
1
1
1
1
1
1
1
1
1
1
1
1
1
1
1
1
1
1
1
1
1
1
1
1
1
1
1
1
1
1
1
1
1
1
1
1
1
1
1
1
1
1
1
1
1
1
1
1
1
1
1
1
1
1
1
1
1
1
1
1
1
1
1
1
1
1
1
1
1
1
1
1
1
1
1
1
1
1
1
1
1
1
1
1
1
1
1
1
1
1
1
1
1
1
1
1
1
1
1
1
1
1
1
1
1
1
1
1
1
1
1
1
1
1
1
1
1
1
1
1
1
1
1
1
1
1
1
1
1
1
1
1
1
1
1
1
1
1
1
1
1
1
1
1
1
1
1
1
1
1
1
1
1
1
1
1
1
1
1
1
1
1
1
1
1
1
1
1
1
1
1
1
1
1
1
1
1
1
1
1
1
1
1
1
1
1
1
1
1
1
1
1
1
1
1
1
1
1
1
1
1
1
1
1
1
1
1
1
1
1
1
1
1
1
1
1
1
1
1
1
1
1
1
1
1
1
1
1
1
1
1
1
1
1
1
1
1
1
1
1
1
1
1
1
1
1
1
1
1
1
1
1
1
1
1
1
1
1
1
1
1
1
1
1
1
1
1
1
1
1
1
1
1
1
1
1
1
1
1
1
1
1
1
1
1
1
1
1
1
1
1
1
1
1
1
1
1
1
1
1
1
1
1
1
1
1
1
1
1
1
1
1
1
1
1
1
1
1
1
1
1
1
1
1
1
1
1
1
1
1
1
1
1
1
1
1
1
1
1
1
1
1
1
1
1
1
1
1
1
1
1
1
1
1
1
1
1
1
1
1
1
1
1
1
1
1
1
1
1
1
1
1
1
1
1
1
1
1
1
1
1
1
1
1
1
1
1
1
1
1
1
1
1
1
1
1
1
1
1
1
1
1
1
1
1
1
1
1
1
1
1
1
1
1
1
1
1
1
1
1
1
1
1
1
1
1
1
1
1
1
1
1
1
1
1
1
1
1
1
1
1
1
1
1
1
1
1
1
1
1
1
1
1
1
1
1
1
1
1
1
1
1
1
1
1
1
1
1
1
1
1
1
1
1
1
1
1
1
1
1
1
1
1
1
1
1
1
1
1
1
1
1
1
1
1
1
1
1
1
1
1
1
1
1
1
1
1
1
1
1
1
1
1
1
1
1
1
1
1
1
1
1
1
1
1
1
1
1
1
1
1
1
1
1
1
1
1
1
1
1
1
1
1
1
1
1
1
1
1
1
1
1
1
1
1
1
1
1
1
1
1
1
1
1
1
1
1
1
1
1
1
1
1
1
1
1
1
1
1
1
1
1
1
1
1
1
1
1
1
1
1
1
1
1
1
1
1
1
1
1
1
1
1
1
1
1
1
1
1
1
1
1
1
1
1
1
1
1
1
1
1
1
1
1
1
1
1
1
1
1
1
1
1
1
1
1
1
1
1
1
1
1
1
1
1
1
1
1
1
1
1
1
1
1
1
1
1
1
1
1
1
1
1
1
1
1
1
1
1
1
1
1
1
1
1
1
1
1
1
1
1
1
1
1
1
1
1
1
1
1
1
1
1
1
1
1
1
1
1
1
1
1
1
1
1
1
1
1
1
1
1
1
1
1
1
1
1
1
1
1
1
1
1
1
1
1
1
1
1
1
1
1
1
1
1
1
1
1
1
1
1
1
1
1
1
1
1
1
1
1
1
1
1
1
1
1
1
1
1
1
1
1
1
1
1
1
1
1
1
1
1
1
1
1
1
1
1
1
1
1
1
1
1
1
1
1
1
1
1
1
1
1
1
1
1
1
1
1
1
1
1
1
1
1
1
1
1
1
1
1
1
1
1
1
1
1
1
1
1
1
1
1
1
1
1
1
1
1
1
1
1
1
1
1
1
1
1
1
1
1
1
1
1
1
1
1
1
1
1
1
1
1
1
1
1
1
1
1
1
1
1
1
1
1
1
1
1
1
1
1
1
1
1
1
1
1
1
1
1
1
1
1
1
1
1
1
1
1
1
1
1
1
1
1
1
1
1
1
1
1
1
1
1
1
1
1
1
1
1
1
1
1
1
1
1
1
1
1
1
1
1
1
1
1
1
1
1
1
1
1
1
1
1
1
1
1
1
1
1
1
1
1
1
1
1
1
1
1
1
1
1
1
1
1
1
1
1
1
1
1
1
1
1
1
1
1
1
1
1
1
1
1
1
1
1
1
1
1
1
1
1
1
1
1
1
1
1
1
1
1
1
1
1
1
1
1
1
1
1
1
1
1
1
1
1
1
1
1
1
1
1
1
1
1
1
1
1
1
1
1
1
1
1
1
1
1
1
1
1
1
1
1
1
1
1
1
1
1
1
1
1
1
1
1
1
1
1
1
1
1
1
1
1
1
1
1
1
1
1
1
1
1
1
1
1
1
1
1
1
1
1
1
1
1
1
1
1
1
1
1
1
1
1
1
1
1
1
1
1
1
1
1
1
1
1
1
1
1
1
1
1
1
1
1
1
1
1
1
1
1
1
1
1
1
1
1
1
1
1
1
1
1
1
1
1
1
1
1
1
1
1
1
1
1
1
1
1
1
1
1
1
1
1
1
1
1
1
1
1
1
1
1
1
1
1
1
1
1
1
1
1
1
1
1
1
1
1
1
1
1
1
1
1
1
1
1
1
1
1
1
1
1
1
1
1
1
1
1
1
1
1
1
1
1
1
1
1
1
1
1
1
1
1
1
1
1
1
1
1
1
1
1
1
1
1
1
1
1
1
1
1
1
1
1
1
1
1
1
1
1
1
1
1
1
1
1
1
1
1
1
1
1
1
1
1
1
1
1
1
1
1
1
1
1
1
1
1
1
1
1
1
1
1
1
1
1
1
1
1
1
1
1
1
1
1
1
1
1
1
1
1
1
1
1
1
1
1
1
1
1
1
1
1
1
1
1
1
1
1
1
1
1
1
1
1
1
1
1
1
1
1
1
1
1
1
1
1
1
1
1
1
1
1
1
1
1
1
1
1
1
1
1
1
1
1
1
1
1
1
1
1
1
1
1
1
1
1
1
1
1
1
1
1
1
1
1
1
1
1
1
1
1
1
1
1
1
1
1
1
1
1
1
1
1
1
1
1
1
1
1
1
1
1
1
1
1
1
1
1
1
1
1
1
1
1
1
1
1
1
1
1
1
1
1
1
1
1
1
1
1
1
1
1
1
1
1
1
1
1
1
1
1
1
1
1
1
1
1
1
1
1
1
1
1
1
1
1
1
1
1
1
1
1
1
1
1
1
1
1
1
1
1
1
1
1
1
1
1
1
1
1
1
1
1
1
1
1
1
1
1
1
1
1
1
1
1
1
1
1
1
1
1
1
1
1
1
1
1
1
1
1
1
1
1
1
1
1
1
1
1
1
1
1
1
1
1
1
1
1
1
1
1
1
1
1
1
1
1
1
1
1.05697
0.20708
0.0895683
0.0275176
0.0188849
0.0267558
0.0536964
0.108515
0.171381
0.259554
0.352992
0.434654
0.519058
0.612501
0.637772
0.660187
0.700463
0.75524
0.819629
0.886856
0.928796
0.962833
0.993524
0.998037
1.003
1.0139
1.02495
1.03704
1.04882
1.07326
1.10526
1.13465
1.16062
1.17923
1.19194
1.20095
1.20159
1.19696
1.19655
1.19859
1.20436
1.21498
1.233
1.24879
1.25269
1.25404
1.2549
1.25405
1.25379
1.2557
1.26039
1.26644
1.26793
1.26738
1.26462
1.26043
1.25765
1.25982
1.2648
1.26762
1.26779
1.2676
1.26721
1.26727
1.26746
1.26627
1.264
1.26122
1.25854
1.25627
1.25476
1.25261
1.24868
1.24566
1.24485
1.24432
1.24382
1.24351
1.2438
1.2447
1.2457
1.24354
1.23979
1.23554
1.23109
1.22745
1.22469
1.22209
1.21928
1.21494
1.20789
1.20927
1.25299
1.48517
2.07291
3.14056
4.22906
5.1379
5.86688
6.15291
6.04184
5.83312
5.51612
5.36418
5.27806
5.19837
5.12235
5.05895
5.00971
4.96813
4.9285
4.88585
4.84657
4.8091
4.76122
4.70795
4.64907
4.58556
4.52032
4.45422
4.39055
4.34138
4.30432
4.26924
4.23314
4.19362
4.14706
4.09078
4.02858
3.97802
3.94305
3.91235
3.88258
3.85098
3.8166
3.77517
3.72317
3.66546
3.61617
3.58101
3.55323
3.5282
3.5073
3.48629
3.46164
3.43376
3.3954
3.33669
3.26421
3.20387
3.16712
3.14293
3.12292
3.10586
3.09049
3.0738
3.05583
3.03571
3.01157
2.98328
2.95196
2.9183
2.8827
2.84658
2.81229
2.78125
2.75392
2.73096
2.71222
2.69589
2.68
2.66309
2.64424
2.62391
2.60325
2.58226
2.55973
2.53381
2.50167
2.46382
2.42739
2.39898
2.38042
2.36805
2.35805
2.34934
2.34181
2.33273
2.32144
2.30167
2.26642
2.20093
1.95895
0.909204
0.518661
0.33441
0.240994
0.18836
0.174859
0.19662
0.219903
0.225626
0.240871
0.268294
0.295633
0.351668
0.430965
0.496908
0.542157
0.597819
0.654662
0.720531
0.801196
0.871485
0.922874
0.942562
0.957047
0.977375
1.00219
1.03112
1.0542
1.08009
1.10083
1.11695
1.13894
1.15513
1.16274
1.17293
1.18262
1.18844
1.19225
1.19614
1.20227
1.21252
1.22937
1.24345
1.24722
1.24894
1.24977
1.2493
1.24842
1.24898
1.25263
1.25956
1.26251
1.2624
1.26107
1.25901
1.2583
1.25976
1.26236
1.26493
1.2657
1.26581
1.2665
1.2668
1.26732
1.26727
1.26558
1.26277
1.25957
1.25585
1.25193
1.24878
1.24681
1.24621
1.24613
1.24623
1.24626
1.24589
1.24514
1.24405
1.24145
1.23805
1.23445
1.23102
1.2278
1.22523
1.22232
1.21849
1.21382
1.20788
1.2185
1.30263
1.60546
2.0812
2.48764
2.83184
3.32131
3.85687
4.31964
4.87882
5.2623
5.44563
5.45258
5.39827
5.34165
5.25347
5.15921
5.08645
5.02971
4.97678
4.92241
4.86127
4.81082
4.76987
4.72977
4.6882
4.64273
4.59237