/*--------------------------------*- C++ -*----------------------------------*\
  =========                 |
  \\      /  F ield         | OpenFOAM: The Open Source CFD Toolbox
   \\    /   O peration     | Website:  https://openfoam.org
    \\  /    A nd           | Version:  7
     \\/     M anipulation  |
\*---------------------------------------------------------------------------*/
FoamFile
{
    version     2.0;
    format      ascii;
    class       volScalarField;
    location    "1.7";
    object      T;
}
// * * * * * * * * * * * * * * * * * * * * * * * * * * * * * * * * * * * * * //

dimensions      [0 0 0 1 0 0 0];

internalField   nonuniform List<scalar> 
19968
(
1
1
1
1
1
1
1
1
1
1
1
1
1
1
1
1
1
1
1
1
1
1
1
1
1
1
1
1
1
1
1
1
1
1
1
1
1
1
1
1
1
1
1
1
1
1
1
1
1
1
1.54738
2.57938
2.71323
2.71402
2.71906
2.72376
2.72772
2.73004
2.73177
2.7338
2.73681
2.74105
2.74641
2.75247
2.75843
2.76331
2.76677
2.76945
2.77232
2.77637
2.78219
2.78973
2.79749
2.80235
2.80333
2.80243
2.80099
2.80013
2.80071
2.80243
2.80536
2.80923
2.81327
2.81758
2.82193
2.82573
2.82891
2.83169
2.83445
2.83816
2.84444
2.85523
2.87099
2.88828
2.90046
2.90445
1
1
1
1
1
1
1
1
1
1
1
1
1
1
1
1
1
1
1
1
1
1
1
1
1
1
1
1
1
1
1
1
1
1
1
1
1
1
1
1
1
1
1
1
1
1
1
1
1
1
1.53408
2.57352
2.7128
2.71364
2.71863
2.72355
2.72768
2.73021
2.73202
2.73394
2.73677
2.74085
2.7461
2.75213
2.75814
2.76317
2.76674
2.76949
2.77233
2.77631
2.78198
2.7894
2.79706
2.80193
2.80305
2.80225
2.80087
2.80001
2.80057
2.80225
2.80513
2.80894
2.81294
2.81722
2.82152
2.82525
2.82841
2.83121
2.83405
2.83786
2.84416
2.85493
2.87066
2.8879
2.90007
2.90409
1
1
1
1
1
1
1
1
1
1
1
1
1
1
1
1
1
1
1
1
1
1
1
1
1
1
1
1
1
1
1
1
1
1
1
1
1
1
1
1
1
1
1
1
1
1
1
1
1
1
1.49977
2.56006
2.71145
2.71198
2.71713
2.72212
2.72644
2.72941
2.73164
2.73383
2.73677
2.74083
2.74587
2.7517
2.75767
2.76284
2.76658
2.76949
2.77236
2.77624
2.78174
2.78894
2.79641
2.80123
2.80245
2.80175
2.8004
2.79958
2.80016
2.8019
2.80485
2.80865
2.81258
2.81676
2.82087
2.82446
2.82758
2.83042
2.8334
2.83734
2.84365
2.85445
2.87023
2.88745
2.89957
2.90361
1
1
1
1
1
1
1
1
1
1
1
1
1
1
1
1
1
1
1
1
1
1
1
1
1
1
1
1
1
1
1
1
1
1
1
1
1
1
1
1
1
1
1
1
1
1
1
1
1
1
1.43654
2.53598
2.70957
2.71003
2.71479
2.71975
2.7245
2.72821
2.73107
2.7338
2.73706
2.74105
2.74575
2.75111
2.75686
2.76213
2.76612
2.76929
2.77223
2.776
2.78125
2.78814
2.79532
2.80004
2.80138
2.80078
2.79953
2.79877
2.7994
2.80123
2.80422
2.808
2.81191
2.81598
2.81987
2.82329
2.82637
2.82926
2.83239
2.83646
2.84283
2.8537
2.86955
2.88675
2.89878
2.90282
1
1
1
1
1
1
1
1
1
1
1
1
1
1
1
1
1
1
1
1
1
1
1
1
1
1
1
1
1
1
1
1
1
1
1
1
1
1
1
1
1
1
1
1
1
1
1
1
1
1
1.34882
2.50117
2.70806
2.70775
2.71124
2.71632
2.7217
2.72647
2.7306
2.73435
2.7381
2.74195
2.74602
2.75055
2.75569
2.76089
2.76509
2.76858
2.77169
2.7754
2.7804
2.78691
2.79371
2.79828
2.79969
2.79916
2.79803
2.7974
2.79812
2.80006
2.80309
2.80689
2.81086
2.81487
2.81855
2.82178
2.82475
2.82763
2.83085
2.83507
2.84156
2.85254
2.86851
2.88574
2.89773
2.90181
1
1
1
1
1
1
1
1
1
1
1
1
1
1
1
1
1
1
1
1
1
1
1
1
1
1
1
1
1
1
1
1
1
1
1
1
1
1
1
1
1
1
1
1
1
1
1
1
1
1
1.25319
2.45512
2.70535
2.70436
2.70664
2.71169
2.71854
2.72518
2.73078
2.73536
2.73922
2.74264
2.7459
2.74943
2.75386
2.75889
2.76326
2.76704
2.77033
2.77401
2.77881
2.78496
2.79135
2.79574
2.79721
2.79675
2.79573
2.79529
2.79612
2.79815
2.80126
2.80517
2.80935
2.81341
2.81693
2.81995
2.8227
2.82544
2.82867
2.83299
2.83959
2.85072
2.86684
2.8842
2.89626
2.90043
1
1
1
1
1
1
1
1
1
1
1
1
1
1
1
1
1
1
1
1
1
1
1
1
1
1
1
1
1
1
1
1
1
1
1
1
1
1
1
1
1
1
1
1
1
1
1
1
1
1
1.12634
2.37984
2.70308
2.7018
2.70347
2.70905
2.71676
2.72468
2.73138
2.73637
2.73981
2.74236
2.74463
2.74718
2.75094
2.75576
2.76037
2.76457
2.76824
2.77208
2.7768
2.78261
2.78853
2.79261
2.79401
2.79361
2.79272
2.79239
2.79319
2.79516
2.79839
2.80264
2.80724
2.81149
2.81491
2.81767
2.82007
2.82253
2.8257
2.83004
2.83669
2.84796
2.86427
2.88186
2.89411
2.89844
1
1
1
1
1
1
1
1
1
1
1
1
1
1
1
1
1
1
1
1
1
1
1
1
1
1
1
1
1
1
1
1
1
1
1
1
1
1
1
1
1
1
1
1
1
1
1
1
1
1
1.00329
2.25828
2.70624
2.70341
2.70177
2.70534
2.71184
2.71995
2.72762
2.73362
2.73784
2.74074
2.74289
2.74509
2.74828
2.75251
2.75691
2.76112
2.76496
2.7689
2.77352
2.7789
2.78421
2.78797
2.7895
2.78934
2.78871
2.78841
2.78903
2.79093
2.79454
2.79949
2.80474
2.80924
2.81254
2.8149
2.81682
2.81892
2.8219
2.82617
2.83281
2.84416
2.86063
2.87848
2.89099
2.89549
1
1
1
1
1
1
1
1
1
1
1
1
1
1
1
1
1
1
1
1
1
1
1
1
1
1
1
1
1
1
1
1
1
1
1
1
1
1
1
1
1
1
1
1
1
1
1
1
1
1
1.00001
2.09883
2.70149
2.70105
2.69958
2.70262
2.7077
2.7147
2.72246
2.72958
2.73511
2.73881
2.74098
2.7426
2.74471
2.74786
2.75178
2.75616
2.76052
2.76493
2.7696
2.77456
2.77928
2.7828
2.78464
2.78483
2.78438
2.78394
2.78424
2.78597
2.78996
2.7956
2.80141
2.8061
2.80914
2.81103
2.81245
2.81422
2.81696
2.8211
2.82779
2.83918
2.85581
2.874
2.88683
2.89152
1
1
1
1
1
1
1
1
1
1
1
1
1
1
1
1
1
1
1
1
1
1
1
1
1
1
1
1
1
1
1
1
1
1
1
1
1
1
1
1
1
1
1
1
1
1
1
1
1
1
1
1.88341
2.67309
2.70169
2.69993
2.70182
2.70473
2.70911
2.71531
2.72289
2.72993
2.73513
2.73804
2.73964
2.74105
2.74313
2.74623
2.75042
2.75507
2.7598
2.76438
2.76884
2.773
2.77643
2.77874
2.77934
2.779
2.77842
2.77848
2.78012
2.78439
2.79051
2.79668
2.80146
2.80437
2.80597
2.80708
2.80865
2.81115
2.81501
2.82158
2.83282
2.84939
2.86768
2.88062
2.88532
1
1
1
1
1
1
1
1
1
1
1
1
1
1
1
1
1
1
1
1
1
1
1
1
1
1
1
1
1
1
1
1
1
1
1
1
1
1
1
1
1
1
1
1
1
1
1
1
1
1
1
1.58645
2.58318
2.69733
2.6962
2.69898
2.70121
2.70397
2.70832
2.715
2.72226
2.72851
2.73264
2.73496
2.73648
2.73814
2.74059
2.74423
2.74866
2.75334
2.75778
2.76192
2.76587
2.76949
2.77235
2.77347
2.77326
2.77266
2.77266
2.77438
2.77887
2.78507
2.79097
2.79521
2.7975
2.7986
2.79933
2.80058
2.80278
2.80643
2.81288
2.82397
2.84048
2.85885
2.87186
2.87655
1
1
1
1
1
1
1
1
1
1
1
1
1
1
1
1
1
1
1
1
1
1
1
1
1
1
1
1
1
1
1
1
1
1
1
1
1
1
1
1
1
1
1
1
1
1
1
1
1
1
1
1.17056
2.39679
2.69022
2.69465
2.69969
2.70265
2.70541
2.70858
2.71242
2.71703
2.72198
2.72633
2.7294
2.73148
2.73319
2.73509
2.73772
2.74106
2.74479
2.74852
2.75218
2.75594
2.75967
2.76283
2.76439
2.76449
2.76417
2.76434
2.76624
2.7707
2.77657
2.78198
2.78588
2.78799
2.78901
2.78975
2.79103
2.79317
2.79656
2.80255
2.81296
2.82885
2.84693
2.85991
2.86448
1
1
1
1
1
1
1
1
1
1
1
1
1
1
1
1
1
1
1
1
1
1
1
1
1
1
1
1
1
1
1
1
1
1
1
1
1
1
1
1
1
1
1
1
1
1
1
1
1
1
1
1.00231
2.12139
2.66916
2.67785
2.68439
2.69174
2.69797
2.70272
2.70609
2.70924
2.71278
2.71649
2.71979
2.72265
2.72522
2.7277
2.7305
2.73364
2.73698
2.7403
2.74353
2.74708
2.75082
2.75413
2.75625
2.75688
2.75686
2.75714
2.7588
2.76246
2.76711
2.77148
2.77433
2.7756
2.77585
2.77597
2.77654
2.778
2.78104
2.78662
2.79661
2.81223
2.83064
2.84414
2.84889
1
1
1
1
1
1
1
1
1
1
1
1
1
1
1
1
1
1
1
1
1
1
1
1
1
1
1
1
1
1
1
1
1
1
1
1
1
1
1
1
1
1
1
1
1
1
1
1
1
1
1
1
1.65149
2.55921
2.65665
2.66982
2.68264
2.69116
2.69726
2.70115
2.70372
2.70585
2.70802
2.7103
2.71286
2.71567
2.71853
2.7215
2.72448
2.72742
2.73022
2.73284
2.73583
2.7393
2.74254
2.74497
2.74609
2.74631
2.74651
2.74754
2.75
2.7533
2.7569
2.75921
2.75994
2.75983
2.75977
2.76001
2.7611
2.76361
2.76801
2.77609
2.78933
2.80557
2.81718
2.82002
1
1
1
1
1
1
1
1
1
1
1
1
1
1
1
1
1
1
1
1
1
1
1
1
1
1
1
1
1
1
1
1
1
1
1
1
1
1
1
1
1
1
1
1
1
1
1
1
1
1
1
1
1.0409
2.28993
2.66127
2.66638
2.67246
2.68041
2.68705
2.69195
2.69487
2.69653
2.69772
2.69898
2.70084
2.70355
2.7069
2.7105
2.71386
2.71682
2.71943
2.72163
2.724
2.72701
2.72992
2.73252
2.73391
2.73436
2.73448
2.73485
2.73594
2.7376
2.73987
2.74115
2.74097
2.73981
2.73797
2.73598
2.73462
2.73423
2.73515
2.73914
2.74945
2.76498
2.77908
2.78401
1
1
1
1
1
1
1
1
1
1
1
1
1
1
1
1
1
1
1
1
1
1
1
1
1
1
1
1
1
1
1
1
1
1
1
1
1
1
1
1
1
1
1
1
1
1
1
1
1
1
1
1
1.0001
1.79084
2.57045
2.63913
2.6508
2.66213
2.66987
2.67588
2.68027
2.68314
2.68471
2.68562
2.68667
2.68877
2.69212
2.69591
2.69967
2.70274
2.70554
2.70765
2.70951
2.71175
2.71382
2.71604
2.71738
2.71784
2.71776
2.7174
2.71708
2.71716
2.71752
2.71745
2.7164
2.71411
2.71072
2.70666
2.70266
2.69941
2.69767
2.69871
2.70457
2.72059
2.73674
2.76282
1
1
1
1
1
1
1
1
1
1
1
1
1
1
1
1
1
1
1
1
1
1
1
1
1
1
1
1
1
1
1
1
1
1
1
1
1
1
1
1
1
1
1
1
1
1
1
1
1
1
1
1
1
1.09736
2.33629
2.63976
2.64387
2.6504
2.6576
2.66366
2.66873
2.67244
2.67428
2.67469
2.67482
2.6758
2.6783
2.68142
2.68519
2.68863
2.69131
2.69349
2.69533
2.69716
2.69855
2.69996
2.70079
2.70099
2.70075
2.69985
2.69853
2.69713
2.69574
2.69401
2.69141
2.68753
2.68207
2.67492
2.66605
2.65571
2.64295
2.62747
2.60557
2.57777
2.52845
2.41149
1
1
1
1
1
1
1
1
1
1
1
1
1
1
1
1
1
1
1
1
1
1
1
1
1
1
1
1
1
1
1
1
1
1
1
1
1
1
1
1
1
1
1
1
1
1
1
1
1
1
1
1
1
1.00071
1.974
2.59574
2.62667
2.63624
2.64552
2.65242
2.6581
2.66235
2.66481
2.66534
2.66517
2.66553
2.667
2.66899
2.67186
2.67488
2.67753
2.67974
2.68174
2.68359
2.68477
2.68557
2.68578
2.68549
2.68477
2.6835
2.68157
2.67905
2.67603
2.67255
2.6682
2.6626
2.65494
2.64497
2.6316
2.61519
2.59339
2.56583
2.52606
2.47654
2.37349
2.22378
1
1
1
1
1
1
1
1
1
1
1
1
1
1
1
1
1
1
1
1
1
1
1
1
1
1
1
1
1
1
1
1
1
1
1
1
1
1
1
1
1
1
1
1
1
1
1
1
1
1
1
1
1
1
1.32455
2.40927
2.61398
2.62251
2.63317
2.64141
2.64752
2.65204
2.65506
2.65617
2.65615
2.65625
2.65675
2.65737
2.65863
2.66036
2.6623
2.6642
2.66623
2.66837
2.66998
2.67069
2.67041
2.66942
2.66782
2.66584
2.66322
2.6597
2.65512
2.64978
2.64343
2.63594
2.62608
2.6135
2.59667
2.57551
2.54815
2.51228
2.46651
2.39597
2.29728
2.16917
1
1
1
1
1
1
1
1
1
1
1
1
1
1
1
1
1
1
1
1
1
1
1
1
1
1
1
1
1
1
1
1
1
1
1
1
1
1
1
1
1
1
1
1
1
1
1
1
1
1
1
1
1
1
1.00917
2.07418
2.5948
2.61182
2.61955
2.62828
2.6344
2.6388
2.64191
2.64391
2.64503
2.64579
2.64615
2.64615
2.64603
2.64619
2.64665
2.64745
2.64892
2.65127
2.65369
2.65492
2.65461
2.65317
2.65076
2.64796
2.6446
2.64022
2.63439
2.62739
2.61917
2.60974
2.59806
2.58335
2.5645
2.54054
2.51045
2.47129
2.4221
2.35558
2.27247
2.17495
1
1
1
1
1
1
1
1
1
1
1
1
1
1
1
1
1
1
1
1
1
1
1
1
1
1
1
1
1
1
1
1
1
1
1
1
1
1
1
1
1
1
1
1
1
1
1
1
1
1
1
1
1
1
1
1.38715
2.4138
2.59559
2.60538
2.61623
2.62125
2.62437
2.62697
2.6294
2.63182
2.63395
2.63527
2.63528
2.63455
2.63329
2.63189
2.63115
2.63147
2.63319
2.63605
2.63806
2.63801
2.63663
2.63374
2.63008
2.62569
2.62028
2.61334
2.60499
2.59522
2.58405
2.57086
2.55483
2.5352
2.51063
2.48018
2.44167
2.39451
2.33789
2.2735
2.19231
1
1
1
1
1
1
1
1
1
1
1
1
1
1
1
1
1
1
1
1
1
1
1
1
1
1
1
1
1
1
1
1
1
1
1
1
1
1
1
1
1
1
1
1
1
1
1
1
1
1
1
1
1
1
1
1.01339
2.05041
2.57994
2.60114
2.60559
2.60827
2.61005
2.61175
2.61323
2.61594
2.6193
2.62225
2.62302
2.62232
2.62062
2.61813
2.61575
2.61467
2.61525
2.61719
2.61929
2.6197
2.61877
2.61617
2.6122
2.60698
2.60065
2.59295
2.58384
2.57319
2.56086
2.54652
2.5297
2.50994
2.48605
2.4571
2.42175
2.3793
2.33148
2.2776
2.21328
1
1
1
1
1
1
1
1
1
1
1
1
1
1
1
1
1
1
1
1
1
1
1
1
1
1
1
1
1
1
1
1
1
1
1
1
1
1
1
1
1
1
1
1
1
1
1
1
1
1
1
1
1
1
1
1.00001
1.29442
2.37684
2.59349
2.59483
2.59649
2.59664
2.59663
2.59663
2.59829
2.60161
2.60591
2.60885
2.60906
2.60816
2.6059
2.60277
2.5999
2.59883
2.59912
2.60024
2.60094
2.60042
2.59841
2.59457
2.5888
2.58154
2.57301
2.56326
2.55203
2.53909
2.52418
2.50699
2.48758
2.4647
2.43827
2.40703
2.3703
2.32919
2.28329
2.23121
1
1
1
1
1
1
1
1
1
1
1
1
1
1
1
1
1
1
1
1
1
1
1
1
1
1
1
1
1
1
1
1
1
1
1
1
1
1
1
1
1
1
1
1
1
1
1
1
1
1
1
1
1
1
1
1
1.00671
1.93482
2.55228
2.58181
2.58122
2.58062
2.57995
2.57999
2.58037
2.58246
2.58651
2.59113
2.59334
2.593
2.59162
2.58891
2.58541
2.5826
2.581
2.581
2.58107
2.58062
2.579
2.57554
2.5698
2.56231
2.55351
2.54351
2.53212
2.51913
2.50431
2.48726
2.46863
2.44648
2.4226
2.39503
2.36316
2.32859
2.28881
2.24609
1
1
1
1
1
1
1
1
1
1
1
1
1
1
1
1
1
1
1
1
1
1
1
1
1
1
1
1
1
1
1
1
1
1
1
1
1
1
1
1
1
1
1
1
1
1
1
1
1
1
1
1
1
1
1
1
1
1.12732
2.28868
2.57182
2.56937
2.5676
2.56743
2.56687
2.567
2.56751
2.56988
2.57444
2.57832
2.57951
2.57899
2.57716
2.57376
2.56989
2.56648
2.56469
2.56356
2.56225
2.5601
2.55652
2.55091
2.54358
2.5348
2.52466
2.51325
2.50034
2.48595
2.46937
2.45162
2.43044
2.40853
2.38405
2.35605
2.32614
2.29162
2.25607
1
1
1
1
1
1
1
1
1
1
1
1
1
1
1
1
1
1
1
1
1
1
1
1
1
1
1
1
1
1
1
1
1
1
1
1
1
1
1
1
1
1
1
1
1
1
1
1
1
1
1
1
1
1
1
1
1
1.00106
1.63156
2.4396
2.53963
2.54597
2.55133
2.5529
2.55381
2.55411
2.5555
2.55892
2.56266
2.56478
2.5647
2.56376
2.56103
2.55718
2.55285
2.54927
2.54657
2.54395
2.54098
2.53704
2.53161
2.52474
2.51642
2.50658
2.49553
2.48283
2.46918
2.45321
2.43656
2.41696
2.39665
2.37428
2.34873
2.32233
2.29212
2.26206
1
1
1
1
1
1
1
1
1
1
1
1
1
1
1
1
1
1
1
1
1
1
1
1
1
1
1
1
1
1
1
1
1
1
1
1
1
1
1
1
1
1
1
1
1
1
1
1
1
1
1
1
1
1
1
1
1
1
1.04195
2.02182
2.51265
2.53728
2.54101
2.54428
2.54595
2.54625
2.54686
2.54791
2.54928
2.5501
2.54994
2.54936
2.5477
2.54468
2.5403
2.53546
2.53105
2.52706
2.52309
2.51872
2.51337
2.50696
2.49919
2.48978
2.47927
2.46672
2.45365
2.43855
2.42324
2.4054
2.38658
2.36536
2.34182
2.31764
2.29073
2.26434
1
1
1
1
1
1
1
1
1
1
1
1
1
1
1
1
1
1
1
1
1
1
1
1
1
1
1
1
1
1
1
1
1
1
1
1
1
1
1
1
1
1
1
1
1
1
1
1
1
1
1
1
1
1
1
1
1
1
1.00013
1.17804
2.22549
2.51246
2.53224
2.53494
2.53627
2.53675
2.53647
2.53607
2.53532
2.53486
2.53438
2.53384
2.53291
2.53077
2.5268
2.52151
2.51583
2.51089
2.50626
2.50171
2.49646
2.4904
2.48297
2.4739
2.46366
2.45153
2.43906
2.42522
2.41123
2.39501
2.37765
2.35765
2.33628
2.31394
2.28958
2.26599
1
1
1
1
1
1
1
1
1
1
1
1
1
1
1
1
1
1
1
1
1
1
1
1
1
1
1
1
1
1
1
1
1
1
1
1
1
1
1
1
1
1
1
1
1
1
1
1
1
1
1
1
1
1
1
1
1
1
1
1.00208
1.47491
2.35401
2.50692
2.5131
2.51869
2.51968
2.52019
2.51986
2.51889
2.51802
2.51721
2.5165
2.51566
2.51403
2.51075
2.50593
2.5004
2.49542
2.49104
2.48617
2.48093
2.47494
2.46775
2.45905
2.44904
2.43761
2.42559
2.41288
2.39985
2.38504
2.36915
2.3507
2.33152
2.31101
2.28873
2.2674
1
1
1
1
1
1
1
1
1
1
1
1
1
1
1
1
1
1
1
1
1
1
1
1
1
1
1
1
1
1
1
1
1
1
1
1
1
1
1
1
1
1
1
1
1
1
1
1
1
1
1
1
1
1
1
1
1
1
1
1
1.01954
1.87807
2.4591
2.4976
2.49451
2.49586
2.497
2.49786
2.49862
2.49935
2.49955
2.49928
2.49849
2.4969
2.49424
2.49026
2.4856
2.48123
2.47732
2.47241
2.46708
2.46091
2.45358
2.44485
2.43502
2.42416
2.41262
2.40082
2.3886
2.37504
2.3607
2.34401
2.327
2.30861
2.2883
2.26903
1
1
1
1
1
1
1
1
1
1
1
1
1
1
1
1
1
1
1
1
1
1
1
1
1
1
1
1
1
1
1
1
1
1
1
1
1
1
1
1
1
1
1
1
1
1
1
1
1
1
1
1
1
1
1
1
1
1
1
1
1.00004
1.11078
2.08047
2.47629
2.48102
2.47963
2.4809
2.48136
2.48181
2.48244
2.4827
2.48246
2.48165
2.47999
2.47776
2.4748
2.47109
2.46742
2.46384
2.45901
2.45355
2.44713
2.43959
2.43081
2.42104
2.41083
2.40004
2.389
2.37749
2.36506
2.35203
2.33717
2.32205
2.30558
2.28722
2.26961
1
1
1
1
1
1
1
1
1
1
1
1
1
1
1
1
1
1
1
1
1
1
1
1
1
1
1
1
1
1
1
1
1
1
1
1
1
1
1
1
1
1
1
1
1
1
1
1
1
1
1
1
1
1
1
1
1
1
1
1
1
1.00082
1.22853
2.18159
2.44943
2.46948
2.4689
2.46869
2.46846
2.46803
2.46754
2.46665
2.46535
2.46349
2.46128
2.4592
2.45624
2.45331
2.44999
2.44554
2.44017
2.43367
2.42591
2.41702
2.40725
2.39736
2.38718
2.37679
2.36618
2.35497
2.34323
2.3301
2.31666
2.30187
2.28535
2.26928
1
1
1
1
1
1
1
1
1
1
1
1
1
1
1
1
1
1
1
1
1
1
1
1
1
1
1
1
1
1
1
1
1
1
1
1
1
1
1
1
1
1
1
1
1
1
1
1
1
1
1
1
1
1
1
1
1
1
1
1
1
1
1.00353
1.34576
2.2359
2.43827
2.44956
2.45266
2.45363
2.45411
2.45363
2.45244
2.45063
2.44841
2.44597
2.44389
2.4412
2.43848
2.43528
2.43114
2.42605
2.41979
2.41211
2.40329
2.39381
2.3842
2.37433
2.36446
2.35478
2.34476
2.33429
2.32264
2.31066
2.29732
2.2825
2.26785
1
1
1
1
1
1
1
1
1
1
1
1
1
1
1
1
1
1
1
1
1
1
1
1
1
1
1
1
1
1
1
1
1
1
1
1
1
1
1
1
1
1
1
1
1
1
1
1
1
1
1
1
1
1
1
1
1
1
1
1
1
1
1
1.00903
1.4903
2.28426
2.42226
2.42786
2.43362
2.43567
2.43725
2.43703
2.43599
2.43406
2.43173
2.42931
2.42646
2.4235
2.42016
2.41622
2.41148
2.40567
2.39843
2.39003
2.38103
2.37174
2.36204
2.35232
2.34319
2.33413
2.32486
2.31463
2.30405
2.29215
2.27892
2.26545
1
1
1
1
1
1
1
1
1
1
1
1
1
1
1
1
1
1
1
1
1
1
1
1
1
1
1
1
1
1
1
1
1
1
1
1
1
1
1
1
1
1
1
1
1
1
1
1
1
1
1
1
1
1
1
1
1
1
1
1
1
1
1
1.00002
1.02151
1.65105
2.32089
2.40926
2.41009
2.41348
2.41575
2.41767
2.41816
2.41765
2.41637
2.41439
2.41184
2.40891
2.40552
2.4016
2.39697
2.39139
2.38461
2.37681
2.36841
2.35955
2.35013
2.3405
2.33153
2.32335
2.3153
2.30637
2.29698
2.28643
2.27465
2.26225
1
1
1
1
1
1
1
1
1
1
1
1
1
1
1
1
1
1
1
1
1
1
1
1
1
1
1
1
1
1
1
1
1
1
1
1
1
1
1
1
1
1
1
1
1
1
1
1
1
1
1
1
1
1
1
1
1
1
1
1
1
1
1
1
1.00006
1.04786
1.75828
2.339
2.39771
2.39496
2.39616
2.39731
2.39847
2.39858
2.3982
2.39729
2.39569
2.39341
2.39052
2.38695
2.38258
2.37732
2.37108
2.36392
2.35607
2.34753
2.33839
2.32913
2.32038
2.31276
2.3056
2.2977
2.28923
2.27991
2.26957
2.25818
1
1
1
1
1
1
1
1
1
1
1
1
1
1
1
1
1
1
1
1
1
1
1
1
1
1
1
1
1
1
1
1
1
1
1
1
1
1
1
1
1
1
1
1
1
1
1
1
1
1
1
1
1
1
1
1
1
1
1
1
1
1
1
1
1
1.00022
1.0779
1.81428
2.3399
2.38548
2.38089
2.3807
2.38004
2.37938
2.37911
2.37871
2.37788
2.37645
2.37427
2.37138
2.36771
2.36313
2.35758
2.35108
2.34372
2.33552
2.32675
2.31796
2.30961
2.3024
2.29585
2.28871
2.28086
2.27252
2.26342
2.25302
1
1
1
1
1
1
1
1
1
1
1
1
1
1
1
1
1
1
1
1
1
1
1
1
1
1
1
1
1
1
1
1
1
1
1
1
1
1
1
1
1
1
1
1
1
1
1
1
1
1
1
1
1
1
1
1
1
1
1
1
1
1
1
1
1
1
1.0005
1.10101
1.83263
2.32798
2.37216
2.36725
2.36536
2.36326
2.36164
2.36029
2.35914
2.35805
2.35677
2.35497
2.35236
2.34874
2.34402
2.3382
2.33134
2.32363
2.31544
2.30721
2.2993
2.2922
2.28574
2.27896
2.27154
2.26392
2.25581
2.24645
1
1
1
1
1
1
1
1
1
1
1
1
1
1
1
1
1
1
1
1
1
1
1
1
1
1
1
1
1
1
1
1
1
1
1
1
1
1
1
1
1
1
1
1
1
1
1
1
1
1
1
1
1
1
1
1
1
1
1
1
1
1
1
1
1
1
1
1.0008
1.11263
1.82367
2.30783
2.35757
2.35278
2.35022
2.34735
2.3447
2.34227
2.34017
2.33843
2.33681
2.33493
2.3324
2.32897
2.32449
2.31888
2.31222
2.30478
2.29709
2.28953
2.28233
2.27564
2.26888
2.26178
2.25463
2.24731
2.23892
1
1
1
1
1
1
1
1
1
1
1
1
1
1
1
1
1
1
1
1
1
1
1
1
1
1
1
1
1
1
1
1
1
1
1
1
1
1
1
1
1
1
1
1
1
1
1
1
1
1
1
1
1
1
1
1
1
1
1
1
1
1
1
1
1
1
1
1
1.00099
1.11272
1.79049
2.28279
2.34237
2.33826
2.33542
2.33208
2.32873
2.32537
2.32222
2.31959
2.31732
2.31507
2.31246
2.30918
2.30499
2.2998
2.29368
2.28698
2.27999
2.27288
2.26593
2.25899
2.25197
2.24503
2.23808
2.23036
1
1
1
1
1
1
1
1
1
1
1
1
1
1
1
1
1
1
1
1
1
1
1
1
1
1
1
1
1
1
1
1
1
1
1
1
1
1
1
1
1
1
1
1
1
1
1
1
1
1
1
1
1
1
1
1
1
1
1
1
1
1
1
1
1
1
1
1
1
1.00101
1.10197
1.73724
2.25588
2.3267
2.32334
2.32051
2.31693
2.31292
2.30886
2.30488
2.30126
2.29806
2.2952
2.29238
2.28923
2.28545
2.28089
2.27561
2.26964
2.26308
2.25621
2.24924
2.24239
2.23557
2.22875
2.22147
1
1
1
1
1
1
1
1
1
1
1
1
1
1
1
1
1
1
1
1
1
1
1
1
1
1
1
1
1
1
1
1
1
1
1
1
1
1
1
1
1
1
1
1
1
1
1
1
1
1
1
1
1
1
1
1
1
1
1
1
1
1
1
1
1
1
1
1
1
1
1.00087
1.0835
1.67355
2.22638
2.30936
2.30716
2.30413
2.30061
2.2965
2.29217
2.28769
2.28341
2.27959
2.27624
2.27314
2.26996
2.26642
2.2623
2.25752
2.25205
2.246
2.23963
2.23316
2.22654
2.21971
2.21268
1
1
1
1
1
1
1
1
1
1
1
1
1
1
1
1
1
1
1
1
1
1
1
1
1
1
1
1
1
1
1
1
1
1
1
1
1
1
1
1
1
1
1
1
1
1
1
1
1
1
1
1
1
1
1
1
1
1
1
1
1
1
1
1
1
1
1
1
1
1
1
1.00063
1.0634
1.6171
2.18922
2.29011
2.28976
2.28721
2.28418
2.28019
2.27586
2.27145
2.26707
2.26294
2.25909
2.25539
2.2517
2.24785
2.24376
2.23927
2.23435
2.229
2.22331
2.21728
2.21075
2.20411
1
1
1
1
1
1
1
1
1
1
1
1
1
1
1
1
1
1
1
1
1
1
1
1
1
1
1
1
1
1
1
1
1
1
1
1
1
1
1
1
1
1
1
1
1
1
1
1
1
1
1
1
1
1
1
1
1
1
1
1
1
1
1
1
1
1
1
1
1
1
1
1
1.0004
1.04771
1.54331
2.13843
2.26013
2.27534
2.27203
2.26947
2.26581
2.26133
2.25666
2.25206
2.24748
2.24291
2.23849
2.23423
2.23011
2.22601
2.2218
2.21725
2.2124
2.20708
2.20113
2.19513
1
1
1
1
1
1
1
1
1
1
1
1
1
1
1
1
1
1
1
1
1
1
1
1
1
1
1
1
1
1
1
1
1
1
1
1
1
1
1
1
1
1
1
1
1
1
1
1
1
1
1
1
1
1
1
1
1
1
1
1
1
1
1
1
1
1
1
1
1
1
1
1
1
1.00026
1.03262
1.45524
2.05192
2.23162
2.26324
2.25708
2.25483
2.25194
2.24801
2.24326
2.23809
2.2328
2.2276
2.22264
2.21799
2.21358
2.2093
2.205
2.20052
2.19565
2.1905
2.1853
1
1
1
1
1
1
1
1
1
1
1
1
1
1
1
1
1
1
1
1
1
1
1
1
1
1
1
1
1
1
1
1
1
1
1
1
1
1
1
1
1
1
1
1
1
1
1
1
1
1
1
1
1
1
1
1
1
1
1
1
1
1
1
1
1
1
1
1
1
1
1
1
1
1
1.00014
1.01971
1.34626
1.9277
2.20017
2.24545
2.24208
2.2402
2.23703
2.23294
2.22809
2.22296
2.21777
2.21263
2.20762
2.20272
2.19799
2.19322
2.18845
2.18383
2.17909
2.17433
1
1
1
1
1
1
1
1
1
1
1
1
1
1
1
1
1
1
1
1
1
1
1
1
1
1
1
1
1
1
1
1
1
1
1
1
1
1
1
1
1
1
1
1
1
1
1
1
1
1
1
1
1
1
1
1
1
1
1
1
1
1
1
1
1
1
1
1
1
1
1
1
1
1
1
1.00007
1.0101
1.22738
1.78782
2.15615
2.22606
2.22522
2.2214
2.21839
2.21484
2.21096
2.20672
2.20211
2.19728
2.19229
2.18721
2.18205
2.1771
2.17224
2.16737
2.1629
1
1
1
1
1
1
1
1
1
1
1
1
1
1
1
1
1
1
1
1
1
1
1
1
1
1
1
1
1
1
1
1
1
1
1
1
1
1
1
1
1
1
1
1
1
1
1
1
1
1
1
1
1
1
1
1
1
1
1
1
1
1
1
1
1
1
1
1
1
1
1
1
1
1
1
1
1.00002
1.00422
1.13057
1.64004
2.10348
2.19296
2.21064
2.20215
2.19997
2.19756
2.19443
2.19065
2.1864
2.18163
2.17662
2.17147
2.16618
2.16096
2.15606
2.15137
1
1
1
1
1
1
1
1
1
1
1
1
1
1
1
1
1
1
1
1
1
1
1
1
1
1
1
1
1
1
1
1
1
1
1
1
1
1
1
1
1
1
1
1
1
1
1
1
1
1
1
1
1
1
1
1
1
1
1
1
1
1
1
1
1
1
1
1
1
1
1
1
1
1
1
1
1
1.00001
1.00152
1.06496
1.50102
2.0055
2.16347
2.19218
2.18768
2.18438
2.18115
2.17793
2.1739
2.16976
2.16553
2.16076
2.15576
2.15063
2.1454
2.14033
1
1
1
1
1
1
1
1
1
1
1
1
1
1
1
1
1
1
1
1
1
1
1
1
1
1
1
1
1
1
1
1
1
1
1
1
1
1
1
1
1
1
1
1
1
1
1
1
1
1
1
1
1
1
1
1
1
1
1
1
1
1
1
1
1
1
1
1
1
1
1
1
1
1
1
1
1
1
1
1.00047
1.02921
1.35034
1.86352
2.12669
2.17464
2.17332
2.16781
2.16406
2.16133
2.15838
2.15453
2.15024
2.14569
2.14067
2.13549
2.13023
1
1
1
1
1
1
1
1
1
1
1
1
1
1
1
1
1
1
1
1
1
1
1
1
1
1
1
1
1
1
1
1
1
1
1
1
1
1
1
1
1
1
1
1
1
1
1
1
1
1
1
1
1
1
1
1
1
1
1
1
1
1
1
1
1
1
1
1
1
1
1
1
1
1
1
1
1
1
1
1
1.00013
1.01132
1.20223
1.68976
2.07015
2.14333
2.16036
2.15394
2.15037
2.14698
2.14383
2.14025
2.13594
2.1314
2.12624
2.12084
1
1
1
1
1
1
1
1
1
1
1
1
1
1
1
1
1
1
1
1
1
1
1
1
1
1
1
1
1
1
1
1
1
1
1
1
1
1
1
1
1
1
1
1
1
1
1
1
1
1
1
1
1
1
1
1
1
1
1
1
1
1
1
1
1
1
1
1
1
1
1
1
1
1
1
1
1
1
1
1
1
1.00003
1.00358
1.09236
1.51303
1.95905
2.11201
2.14391
2.14102
2.13607
2.13269
2.12943
2.1258
2.12164
2.11724
2.11235
1
1
1
1
1
1
1
1
1
1
1
1
1
1
1
1
1
1
1
1
1
1
1
1
1
1
1
1
1
1
1
1
1
1
1
1
1
1
1
1
1
1
1
1
1
1
1
1
1
1
1
1
1
1
1
1
1
1
1
1
1
1
1
1
1
1
1
1
1
1
1
1
1
1
1
1
1
1
1
1
1
1
1.00001
1.00089
1.03434
1.33331
1.79492
2.07314
2.12228
2.1267
2.12175
2.1173
2.11469
2.1121
2.10893
2.10466
1
1
1
1
1
1
1
1
1
1
1
1
1
1
1
1
1
1
1
1
1
1
1
1
1
1
1
1
1
1
1
1
1
1
1
1
1
1
1
1
1
1
1
1
1
1
1
1
1
1
1
1
1
1
1
1
1
1
1
1
1
1
1
1
1
1
1
1
1
1
1
1
1
1
1
1
1
1
1
1
1
1
1
1
1.00017
1.01085
1.16704
1.60741
1.97937
2.09694
2.1157
2.11036
2.10394
2.09881
2.09609
2.09481
1
1
1
1
1
1
1
1
1
1
1
1
1
1
1
1
1
1
1
1
1
1
1
1
1
1
1
1
1
1
1
1
1
1
1
1
1
1
1
1
1
1
1
1
1
1
1
1
1
1
1
1
1
1
1
1
1
1
1
1
1
1
1
1
1
1
1
1
1
1
1
1
1
1
1
1
1
1
1
1
1
1
1
1
1
1.00003
1.00259
1.06444
1.40571
1.84374
2.05229
2.093
2.095
2.09077
2.08762
2.08556
1
1
1
1
1
1
1
1
1
1
1
1
1
1
1
1
1
1
1
1
1
1
1
1
1
1
1
1
1
1
1
1
1
1
1
1
1
1
1
1
1
1
1
1
1
1
1
1
1
1
1
1
1
1
1
1
1
1
1
1
1
1
1
1
1
1
1
1
1
1
1
1
1
1
1
1
1
1
1
1
1
1
1
1
1
1
1
1.0005
1.01925
1.22659
1.63633
1.98341
2.06387
2.07997
2.07746
2.07224
1
1
1
1
1
1
1
1
1
1
1
1
1
1
1
1
1
1
1
1
1
1
1
1
1
1
1
1
1
1
1
1
1
1
1
1
1
1
1
1
1
1
1
1
1
1
1
1
1
1
1
1
1
1
1
1
1
1
1
1
1
1
1
1
1
1
1
1
1
1
1
1
1
1
1
1
1
1
1
1
1
1
1
1
1
1
1
1
1.00007
1.00503
1.08269
1.44899
1.82224
2.02538
2.07026
2.06868
1
1
1
1
1
1
1
1
1
1
1
1
1
1
1
1
1
1
1
1
1
1
1
1
1
1
1
1
1
1
1
1
1
1
1
1
1
1
1
1
1
1
1
1
1
1
1
1
1
1
1
1
1
1
1
1
1
1
1
1
1
1
1
1
1
1
1
1
1
1
1
1
1
1
1
1
1
1
1
1
1
1
1
1
1
1
1
1
1
1.00001
1.00077
1.02651
1.23143
1.64129
1.93251
2.03772
1
1
1
1
1
1
1
1
1
1
1
1
1
1
1
1
1
1
1
1
1
1
1
1
1
1
1
1
1
1
1
1
1
1
1
1
1
1
1
1
1
1
1
1
1
1
1
1
1
1
1
1
1
1
1
1
1
1
1
1
1
1
1
1
1
1
1
1
1
1
1
1
1
1
1
1
1
1
1
1
1
1
1
1
1
1
1
1
1
1
1
1.00013
1.00536
1.0899
1.40674
1.81369
1
1
1
1
1
1
1
1
1
1
1
1
1
1
1
1
1
1
1
1
1
1
1
1
1
1
1
1
1
1
1
1
1
1
1
1
1
1
1
1
1
1
1
1
1
1
1
1
1
1
1
1
1
1
1
1
1
1
1
1
1
1
1
1
1
1
1
1
1
1
1
1
1
1
1
1
1
1
1
1
1
1
1
1
1
1
1
1
1
1
1
1
1.00001
1.00094
1.02216
1.22242
1
1
1
1
1
1
1
1
1
1
1
1
1
1
1
1
1
1
1
1
1
1
1
1
1
1
1
1
1
1
1
1
1
1
1
1
1
1
1
1
1
1
1
1
1
1
1
1
1
1
1
1
1
1
1
1
1
1
1
1
1
1
1
1
1
1
1
1
1
1
1
1
1
1
1
1
1
1
1
1
1
1
1
1
1
1
1
1
1
1
1
1
1
1
1.0001
1.00478
1
1
1
1
1
1
1
1
1
1
1
1
1
1
1
1
1
1
1
1
1
1
1
1
1
1
1
1
1
1
1
1
1
1
1
1
1
1
1
1
1
1
1
1
1
1
1
1
1
1
1
1
1
1
1
1
1
1
1
1
1
1
1
1
1
1
1
1
1
1
1
1
1
1
1
1
1
1
1
1
1
1
1
1
1
1
1
1
1
1
1
1
1
1
1
1.00001
1
1
1
1
1
1
1
1
1
1
1
1
1
1
1
1
1
1
1
1
1
1
1
1
1
1
1
1
1
1
1
1
1
1
1
1
1
1
1
1
1
1
1
1
1
1
1
1
1
1
1
1
1
1
1
1
1
1
1
1
1
1
1
1
1
1
1
1
1
1
1
1
1
1
1
1
1
1
1
1
1
1
1
1
1
1
1
1
1
1
1
1
1
1
1
1
1
1
1
1
1
1
1
1
1
1
1
1
1
1
1
1
1
1
1
1
1
1
1
1
1
1
1
1
1
1
1
1
1
1
1
1
1
1
1
1
1
1
1
1
1
1
1
1
1
1
1
1
1
1
1
1
1
1
1
1
1
1
1
1
1
1
1
1
1
1
1
1
1
1
1
1
1
1
1
1
1
1
1
1
1
1
1
1
1
1
1
1
1
1
1
1
1
1
1
1
1
1
1
1
1
1
1
1
1
1
1
1
1
1
1
1
1
1
1
1
1
1
1
1
1
1
1
1
1
1
1
1
1
1
1
1
1
1
1
1
1
1
1
1
1
1
1
1
1
1
1
1
1
1
1
1
1
1
1
1
1
1
1
1
1
1
1
1
1
1
1
1
1
1
1
1
1
1
1
1
1
1
1
1
1
1
1
1
1
1
1
1
1
1
1
1
1
1
1
1
1
1
1
1
1
1
1
1
1
1
1
1
1
1
1
1
1
1
1
1
1
1
1
1
1
1
1
1
1
1
1
1
1
1
1
1
1
1
1
1
1
1
1
1
1
1
1
1
1
1
1
1
1
1
1
1
1
1
1
1
1
1
1
1
1
1
1
1
1
1
1
1
1
1
1
1
1
1
1
1
1
1
1
1
1
1
1
1
1
1
1
1
1
1
1
1
1
1
1
1
1
1
1
1
1
1
1
1
1
1
1
1
1
1
1
1
1
1
1
1
1
1
1
1
1
1
1
1
1
1
1
1
1
1
1
1
1
1
1
1
1
1
1
1
1
1
1
1
1
1
1
1
1
1
1
1
1
1
1
1
1
1
1
1
1
1
1
1
1
1
1
1
1
1
1
1
1
1
1
1
1
1
1
1
1
1
1
1
1
1
1
1
1
1
1
1
1
1
1
1
1
1
1
1
1
1
1
1
1
1
1
1
1
1
1
1
1
1
1
1
1
1
1
1
1
1
1
1
1
1
1
1
1
1
1
1
1
1
1
1
1
1
1
1
1
1
1
1
1
1
1
1
1
1
1
1
1
1
1
1
1
1
1
1
1
1
1
1
1
1
1
1
1
1
1
1
1
1
1
1
1
1
1
1
1
1
1
1
1
1
1
1
1
1
1
1
1
1
1
1
1
1
1
1
1
1
1
1
1
1
1
1
1
1
1
1
1
1
1
1
1
1
1
1
1
1
1
1
1
1
1
1
1
1
1
1
1
1
1
1
1
1
1
1
1
1
1
1
1
1
1
1
1
1
1
1
1
1
1
1
1
1
1
1
1
1
1
1
1
1
1
1
1
1
1
1
1
1
1
1
1
1
1
1
1
1
1
1
1
1
1
1
1
1
1
1
1
1
1
1
1
1
1
1
1
1
1
1
1
1
1
1
1
1
1
1
1
1
1
1
1
1
1
1
1
1
1
1
1
1
1
1
1
1
1
1
1
1
1
1
1
1
1
1
1
1
1
1
1
1
1
1
1
1
1
1
1
1
1
1
1
1
1
1
1
1
1
1
1
1
1
1
1
1
1
1
1
1
1
1
1
1
1
1
1
1
1
1
1
1
1
1
1
1
1
1
1
1
1
1
1
1
1
1
1
1
1
1
1
1
1
1
1
1
1
1
1
1
1
1
1
1
1
1
1
1
1
1
1
1
1
1
1
1
1
1
1
1
1
1
1
1
1
1
1
1
1
1
1
1
1
1
1
1
1
1
1
1
1
1
1
1
1
1
1
1
1
1
1
1
1
1
1
1
1
1
1
1
1
1
1
1
1
1
1
1
1
1
1
1
1
1
1
1
1
1
1
1
1
1
1
1
1
1
1
1
1
1
1
1
1
1
1
1
1
1
1
1
1
1
1
1
1
1
1
1
1
1
1
1
1
1
1
1
1
1
1
1
1
1
1
1
1
1
1
1
1
1
1
1
1
1
1
1
1
1
1
1
1
1
1
1
1
1
1
1
1
1
1
1
1
1
1
1
1
1
1
1
1
1
1
1
1
1
1
1
1
1
1
1
1
1
1
1
1
1
1
1
1
1
1
1
1
1
1
1
1
1
1
1
1
1
1
1
1
1
1
1
1
1
1
1
1
1
1
1
1
1
1
1
1
1
1
1
1
1
1
1
1
1
1
1
1
1
1
1
1
1
1
1
1
1
1
1
1
1
1
1
1
1
1
1
1
1
1
1
1
1
1
1
1
1
1
1
1
1
1
1
1
1
1
1
1
1
1
1
1
1
1
1
1
1
1
1
1
1
1
1
1
1
1
1
1
1
1
1
1
1
1
1
1
1
1
1
1
1
1
1
1
1
1
1
1
1
1
1
1
1
1
1
1
1
1
1
1
1
1
1
1
1
1
1
1
1
1
1
1
1
1
1
1
1
1
1
1
1
1
1
1
1
1
1
1
1
1
1
1
1
1
1
1
1
1
1
1
1
1
1
1
1
1
1
1
1
1
1
1
1
1
1
1
1
1
1
1
1
1
1
1
1
1
1
1
1
1
1
1
1
1
1
1
1
1
1
1
1
1
1
1
1
1
1
1
1
1
1
1
1
1
1
1
1
1
1
1
1
1
1
1
1
1
1
1
1
1
1
1
1
1
1
1
1
1
1
1
1
1
1
1
1
1
1
1
1
1
1
1
1
1
1
1
1
1
1
1
1
1
1
1
1
1
1
1
1
1
1
1
1
1
1
1
1
1
1
1
1
1
1
1
1
1
1
1
1
1
1
1
1
1
1
1
1
1
1
1
1
1
1
1
1
1
1
1
1
1
1
1
1
1
1
1
1
1
1
1
1
1
1
1
1
1
1
1
1
1
1
1
1
1
1
1
1
1
1
1
1
1
1
1
1
1
1
1
1
1
1
1
1
1
1
1
1
1
1
1
1
1
1
1
1
1
1
1
1
1
1
1
1
1
1
1
1
1
1
1
1
1
1
1
1
1
1
1
1
1
1
1
1
1
1
1
1
1
1
1
1
1
1
1
1
1
1
1
1
1
1
1
1
1
1
1
1
1
1
1
1
1
1
1
1
1
1
1
1
1
1
1
1
1
1
1
1
1
1
1
1
1
1
1
1
1
1
1
1
1
1
1
1
1
1
1
1
1
1
1
1
1
1
1
1
1
1
1
1
1
1
1
1
1
1
1
1
1
1
1
1
1
1
1
1
1
1
1
1
1
1
1
1
1
1
1
1
1
1
1
1
1
1
1
1
1
1
1
1
1
1
1
1
1
1
1
1
1
1
1
1
1
1
1
1
1
1
1
1
1
1
1
1
1
1
1
1
1
1
1
1
1
1
1
1
1
1
1
1
1
1
1
1
1
1
1
1
1
1
1
1
1
1
1
1
1
1
1
1
1
1
1
1
1
1
1
1
1
1
1
1
1
1
1
1
1
1
1
1
1
1
1
1
1
1
1
1
1
1
1
1
1
1
1
1
1
1
1
1
1
1
1
1
1
1
1
1
1
1
1
1
1
1
1
1
1
1
1
1
1
1
1
1
1
1
1
1
1
1
1
1
1
1
1
1
1
1
1
1
1
1
1
1
1
1
1
1
1
1
1
1
1
1
1
1
1
1
1
1
1
1
1
1
1
1
1
1
1
1
1
1
1
1
1
1
1
1
1
1
1
1
1
1
1
1
1
1
1
1
1
1
1
1
1
1
1
1
1
1
1
1
1
1
1
1
1
1
1.53581
0.925719
0.823443
0.739294
0.750134
0.826342
0.934463
1.05765
1.14984
1.27461
1.42534
1.525
1.54684
1.54093
1.50823
1.50839
1.54385
1.61219
1.6654
1.66998
1.65291
1.6275
1.62452
1.62847
1.64102
1.65934
1.66473
1.6607
1.65147
1.65167
1.65812
1.67297
1.69243
1.70055
1.69987
1.69595
1.6877
1.67954
1.67839
1.68001
1.68545
1.69298
1.69972
1.70224
1.70129
1.69975
1.69963
1.69952
1.70012
1.70224
1.706
1.70964
1.7097
1.70882
1.70586
1.70075
1.69538
1.69217
1.6921
1.69272
1.6934
1.69437
1.69483
1.69472
1.69419
1.69276
1.69062
1.68891
1.68849
1.68873
1.68969
1.69042
1.69021
1.68963
1.68951
1.68939
1.68914
1.68867
1.68788
1.68654
1.68498
1.68239
1.67956
1.67751
1.67591
1.67468
1.67372
1.67273
1.67149
1.66925
1.66479
1.6653
1.68467
1.77991
1.97465
2.2303
2.42388
2.55883
2.6548
2.68718
2.67227
2.64233
2.59524
2.56877
2.55018
2.53354
2.51988
2.50907
2.49995
2.49207
2.48519
2.47833
2.47192
2.46548
2.45731
2.44834
2.43862
2.42825
2.41765
2.4071
2.39725
2.38987
2.38433
2.37886
2.37302
2.36664
2.35941
2.35097
2.34174
2.33431
2.32921
2.32458
2.3199
2.31478
2.30912
2.30218
2.29324
2.28302
2.27396
2.26715
2.26151
2.25639
2.2522
2.24829
2.24403
2.23946
2.23312
2.22299
2.21006
2.19922
2.19274
2.18864
2.18547
2.18304
2.18106
2.17887
2.17636
2.17318
2.16881
2.16319
2.15661
2.14936
2.14166
2.13392
2.12676
2.12062
2.1157
2.11211
2.10968
2.10783
2.10598
2.10359
2.1003
2.09616
2.09157
2.08666
2.08129
2.07515
2.06774
2.05925
2.05156
2.04641
2.044
2.0431
2.0428
2.04283
2.04309
2.04288
2.04183
2.03813
2.02995
2.01338
1.79705
1.45458
1.22613
1.17146
1.18093
1.12361
1.01709
1.00662
1.02333
1.05863
1.11297
1.1741
1.19007
1.21399
1.25339
1.29544
1.33589
1.39314
1.44225
1.4756
1.50646
1.52318
1.53543
1.54808
1.56435
1.58502
1.60043
1.60704
1.60784
1.61126
1.61707
1.62721
1.64345
1.65267
1.65316
1.65324
1.65148
1.64919
1.64918
1.65124
1.65676
1.66446
1.67207
1.67554
1.67537
1.67492
1.67469
1.67457
1.6749
1.67659
1.68046
1.68533
1.68679
1.68636
1.6842
1.68035
1.67646
1.67401
1.67351
1.67428
1.67585
1.6776
1.67897
1.67926
1.6792
1.6787
1.67729
1.67588
1.67526
1.67502
1.67491
1.67499
1.67528
1.67568
1.67606
1.67636
1.67641
1.67615
1.67525
1.67366
1.67112
1.66842
1.66628
1.66493
1.66395
1.66324
1.66237
1.6609
1.65873
1.6553
1.65965
1.69388
1.80944
1.95042
2.0394
2.1015
2.19368
2.29105
2.36376
2.44569
2.50547
2.53748
2.54075
2.53087
2.51918
2.50406
2.49146
2.48228
2.47383
2.46572
2.45821
2.45021
2.44341
2.43743
2.4313
2.425
2.41824
2.41074
2.40229
2.39299
2.38304
2.3739
2.36792
2.36285
2.35731
2.35134
2.34509
2.33823
2.33042
2.32224
2.31497
2.30919
2.30427
2.29962
2.29488