/*--------------------------------*- C++ -*----------------------------------*\
  =========                 |
  \\      /  F ield         | OpenFOAM: The Open Source CFD Toolbox
   \\    /   O peration     | Website:  https://openfoam.org
    \\  /    A nd           | Version:  7
     \\/     M anipulation  |
\*---------------------------------------------------------------------------*/
FoamFile
{
    version     2.0;
    format      ascii;
    class       volVectorField;
    location    "1.7";
    object      U;
}
// * * * * * * * * * * * * * * * * * * * * * * * * * * * * * * * * * * * * * //

dimensions      [0 1 -1 0 0 0 0];

internalField   nonuniform List<vector> 
19968
(
(3 4.16368e-17 0)
(3 3.74417e-17 0)
(3 -4.21401e-16 0)
(3 -8.33743e-16 0)
(3 -3.73782e-16 0)
(3 -3.27645e-16 0)
(3 -4.23301e-16 0)
(3 -5.8974e-16 0)
(3 -3.86937e-16 0)
(3 -3.35273e-16 0)
(3 -7.33826e-16 0)
(3 -7.04516e-16 0)
(3 -4.64178e-16 0)
(3 4.25877e-16 0)
(3 4.58051e-16 0)
(3 3.51967e-16 0)
(3 4.20376e-16 0)
(3 6.56804e-16 0)
(3 3.12216e-16 0)
(3 -4.57965e-16 0)
(3 1.60019e-17 0)
(3 6.96371e-16 0)
(3 9.8529e-16 0)
(3 3.76251e-16 0)
(3 -2.09079e-16 0)
(3 -4.47481e-16 0)
(3 -2.36789e-16 0)
(3 2.65086e-16 0)
(3 5.31014e-16 0)
(3 2.84063e-16 0)
(3 3.56376e-16 0)
(3 -6.74996e-16 0)
(3 -7.62493e-16 0)
(3 -4.07998e-16 0)
(3 -2.41277e-17 0)
(3 7.88014e-16 0)
(3 7.19044e-16 0)
(3 5.84094e-16 0)
(3 2.9123e-16 0)
(3 -1.12727e-16 0)
(3 -4.35443e-16 0)
(3 -2.38654e-16 0)
(3 3.03273e-16 0)
(3 9.49778e-17 0)
(3 -8.74021e-17 0)
(3 -1.16894e-15 0)
(3 -1.66436e-15 0)
(3 -1.17115e-15 0)
(3 -7.62441e-17 0)
(3 6.70543e-16 0)
(2.41401 0.00435619 0)
(0.873793 0.00839783 0)
(0.744074 0.00789464 0)
(0.730783 0.00767197 0)
(0.712934 0.00746291 0)
(0.695911 0.00810897 0)
(0.677863 0.00974019 0)
(0.658808 0.0120486 0)
(0.63798 0.0135444 0)
(0.616757 0.012729 0)
(0.597875 0.00992076 0)
(0.582821 0.00729827 0)
(0.570756 0.00622428 0)
(0.559981 0.00647212 0)
(0.548869 0.00761992 0)
(0.536204 0.00907881 0)
(0.521715 0.00977456 0)
(0.50645 0.00904537 0)
(0.491204 0.00817869 0)
(0.475513 0.00848172 0)
(0.45929 0.00957209 0)
(0.443292 0.0105541 0)
(0.428073 0.0108174 0)
(0.414069 0.0107262 0)
(0.399157 0.0108787 0)
(0.383172 0.0113446 0)
(0.36437 0.0116476 0)
(0.344191 0.0118014 0)
(0.32391 0.0119781 0)
(0.304836 0.0121039 0)
(0.287616 0.011846 0)
(0.271194 0.0114241 0)
(0.255654 0.0112874 0)
(0.240527 0.0114563 0)
(0.225242 0.0117191 0)
(0.209883 0.0119406 0)
(0.194155 0.0121721 0)
(0.177144 0.0123721 0)
(0.158079 0.0126299 0)
(0.136761 0.0129026 0)
(0.114438 0.0133039 0)
(0.0923279 0.0137473 0)
(0.0712181 0.0141996 0)
(0.0509306 0.0146824 0)
(0.0308126 0.014849 0)
(0.0102127 0.0151839 0)
(3 -7.91663e-17 0)
(3 -1.274e-16 0)
(3 -5.18278e-16 0)
(3 -8.96199e-16 0)
(3 -7.52791e-16 0)
(3 -3.99112e-16 0)
(3 -3.74701e-16 0)
(3 -5.73731e-16 0)
(3 -5.00212e-16 0)
(3 -5.22767e-16 0)
(3 -6.9886e-16 0)
(3 -9.36134e-16 0)
(3 -7.89866e-16 0)
(3 1.53721e-16 0)
(3 3.06996e-16 0)
(3 7.42759e-16 0)
(3 1.49555e-15 0)
(3 2.84973e-15 0)
(3 2.7294e-15 0)
(3 1.51156e-15 0)
(3 1.53553e-15 0)
(3 1.95116e-15 0)
(3 1.95378e-15 0)
(3 1.08348e-15 0)
(3 7.31643e-16 0)
(3 3.50222e-16 0)
(3 4.86988e-16 0)
(3 1.50974e-15 0)
(3 1.4573e-15 0)
(3 5.47331e-16 0)
(3 -6.77443e-16 0)
(3 -1.2349e-15 0)
(3 -1.04854e-15 0)
(3 -5.46797e-16 0)
(3 5.39875e-16 0)
(3 1.0755e-15 0)
(3 1.16424e-15 0)
(3 5.71665e-16 0)
(3 -4.06192e-16 0)
(3 -4.47701e-16 0)
(3 2.32518e-17 0)
(3 3.34455e-16 0)
(3 -1.74238e-16 0)
(3 -1.12491e-15 0)
(3 -1.01389e-15 0)
(3 -1.11767e-15 0)
(3 -1.02961e-15 0)
(3 -5.84085e-16 0)
(3 1.42316e-16 0)
(3 1.00044e-15 0)
(2.43356 0.0215229 0)
(0.875255 0.0345197 0)
(0.741152 0.0274705 0)
(0.727199 0.0239776 0)
(0.708437 0.023856 0)
(0.689468 0.0253061 0)
(0.669609 0.0288536 0)
(0.649908 0.0335248 0)
(0.630271 0.0359264 0)
(0.611725 0.0337069 0)
(0.595431 0.0279328 0)
(0.581337 0.0224119 0)
(0.568876 0.0199006 0)
(0.557448 0.0205661 0)
(0.546055 0.0237053 0)
(0.533476 0.0276706 0)
(0.51905 0.0295276 0)
(0.503753 0.0277862 0)
(0.487894 0.0255232 0)
(0.471232 0.0260938 0)
(0.454445 0.0290486 0)
(0.438195 0.0317112 0)
(0.423037 0.032449 0)
(0.409136 0.0324154 0)
(0.394221 0.0329554 0)
(0.378075 0.0342165 0)
(0.359259 0.0348958 0)
(0.339261 0.0351807 0)
(0.319346 0.0356658 0)
(0.300643 0.0362203 0)
(0.283618 0.0357544 0)
(0.267107 0.0348243 0)
(0.251365 0.0345973 0)
(0.236076 0.035085 0)
(0.220798 0.0357627 0)
(0.20568 0.0363529 0)
(0.190315 0.0370456 0)
(0.173703 0.0376582 0)
(0.155118 0.0384122 0)
(0.134352 0.0391885 0)
(0.112707 0.040393 0)
(0.0913223 0.0418776 0)
(0.0707448 0.0434464 0)
(0.0507668 0.0451114 0)
(0.0307676 0.0457645 0)
(0.0102513 0.0468951 0)
(3 1.00172e-16 0)
(3 -2.16568e-16 0)
(3 -1.00783e-16 0)
(3 3.26111e-16 0)
(3 2.79884e-16 0)
(3 3.70525e-16 0)
(3 4.62539e-16 0)
(3 1.93779e-16 0)
(3 -2.52058e-16 0)
(3 -3.29956e-16 0)
(3 -2.65328e-16 0)
(3 -2.16019e-16 0)
(3 -3.19825e-16 0)
(3 -2.33541e-16 0)
(3 2.3105e-16 0)
(3 6.93984e-16 0)
(3 1.08387e-15 0)
(3 1.56664e-15 0)
(3 2.01152e-15 0)
(3 2.40118e-15 0)
(3 2.02426e-15 0)
(3 1.63442e-15 0)
(3 9.45009e-16 0)
(3 5.70601e-16 0)
(3 7.01743e-16 0)
(3 3.08123e-16 0)
(3 2.43008e-16 0)
(3 2.33629e-16 0)
(3 -3.51374e-16 0)
(3 -5.26279e-16 0)
(3 -5.47169e-16 0)
(3 -9.60233e-16 0)
(3 -9.28668e-16 0)
(3 -5.35665e-16 0)
(3 3.19354e-17 0)
(3 3.77242e-16 0)
(3 5.57369e-16 0)
(3 1.01951e-16 0)
(3 -5.18394e-17 0)
(3 5.11128e-17 0)
(3 3.14919e-16 0)
(3 -1.28173e-17 0)
(3 -2.09836e-15 0)
(3 -2.56849e-15 0)
(3 -2.36962e-15 0)
(3 -1.32672e-15 0)
(3 -1.11075e-15 0)
(3 -1.24205e-15 0)
(3 -1.48515e-15 0)
(3 -1.1381e-15 0)
(2.49085 0.0396362 0)
(0.88816 0.0588804 0)
(0.747387 0.0454651 0)
(0.73231 0.0426947 0)
(0.711075 0.0439164 0)
(0.689714 0.0479251 0)
(0.667767 0.0534856 0)
(0.647312 0.0582272 0)
(0.628837 0.0584664 0)
(0.612813 0.053391 0)
(0.598674 0.0452464 0)
(0.585196 0.0380277 0)
(0.572104 0.035022 0)
(0.559661 0.0365053 0)
(0.547651 0.0416726 0)
(0.534896 0.0479541 0)
(0.520239 0.0508497 0)
(0.504751 0.0484943 0)
(0.488177 0.0453352 0)
(0.47032 0.0461909 0)
(0.452611 0.0505506 0)
(0.43562 0.0543541 0)
(0.42002 0.0553132 0)
(0.405775 0.0554884 0)
(0.390583 0.0567008 0)
(0.37416 0.0589192 0)
(0.355338 0.0600403 0)
(0.335528 0.0602505 0)
(0.315881 0.0606938 0)
(0.29726 0.0612222 0)
(0.280034 0.0603025 0)
(0.263037 0.0588837 0)
(0.246787 0.058721 0)
(0.231132 0.0596728 0)
(0.215711 0.0607738 0)
(0.200629 0.0616206 0)
(0.185319 0.0626161 0)
(0.168723 0.0634846 0)
(0.150344 0.0646471 0)
(0.130061 0.0659291 0)
(0.109283 0.0679495 0)
(0.0888408 0.0704615 0)
(0.0690288 0.073123 0)
(0.0496316 0.0759794 0)
(0.0300269 0.07723 0)
(0.0100636 0.0792611 0)
(3 2.8692e-18 0)
(3 6.25299e-18 0)
(3 3.65532e-16 0)
(3 4.72191e-16 0)
(3 7.75421e-16 0)
(3 8.29939e-16 0)
(3 6.72144e-16 0)
(3 2.52789e-16 0)
(3 1.51376e-16 0)
(3 -1.7086e-16 0)
(3 -3.95418e-16 0)
(3 -1.54612e-17 0)
(3 2.97354e-16 0)
(3 9.41148e-16 0)
(3 1.45126e-15 0)
(3 9.35222e-16 0)
(3 3.49198e-16 0)
(3 -2.43955e-16 0)
(3 -9.18117e-17 0)
(3 6.55043e-16 0)
(3 9.63667e-16 0)
(3 2.37365e-16 0)
(3 -3.31214e-16 0)
(3 -8.32586e-16 0)
(3 -8.51517e-16 0)
(3 -7.4491e-16 0)
(3 -1.10508e-15 0)
(3 -1.79499e-15 0)
(3 -2.12331e-15 0)
(3 -2.17722e-15 0)
(3 -1.31717e-15 0)
(3 -6.75163e-16 0)
(3 -9.50452e-16 0)
(3 -7.54362e-16 0)
(3 -2.14709e-16 0)
(3 5.49931e-16 0)
(3 9.44216e-16 0)
(3 2.55235e-16 0)
(3 1.24053e-16 0)
(3 1.358e-17 0)
(3 -3.22667e-16 0)
(3 -1.1827e-15 0)
(3 -1.38118e-15 0)
(3 -1.26303e-15 0)
(3 -1.49441e-15 0)
(3 -1.42251e-15 0)
(3 -1.70272e-15 0)
(3 -1.65223e-15 0)
(3 -2.05355e-15 0)
(3 -1.71308e-15 0)
(2.58923 0.0511655 0)
(0.910496 0.0764044 0)
(0.751551 0.0655847 0)
(0.733296 0.0657331 0)
(0.70982 0.068842 0)
(0.68693 0.0739981 0)
(0.665832 0.0793481 0)
(0.648404 0.0811061 0)
(0.634522 0.0776691 0)
(0.62212 0.0701727 0)
(0.609277 0.0608046 0)
(0.59526 0.0535211 0)
(0.580801 0.0511537 0)
(0.566795 0.0540516 0)
(0.553685 0.0613795 0)
(0.540444 0.0697878 0)
(0.525386 0.0736319 0)
(0.50958 0.0710623 0)
(0.492336 0.0674539 0)
(0.473493 0.0685569 0)
(0.455012 0.0739194 0)
(0.437366 0.0785084 0)
(0.421269 0.0796626 0)
(0.406472 0.0803037 0)
(0.390831 0.0824224 0)
(0.374033 0.0856153 0)
(0.355245 0.0871277 0)
(0.335723 0.0870396 0)
(0.316354 0.0871943 0)
(0.297644 0.0874427 0)
(0.279907 0.0860775 0)
(0.262103 0.0843741 0)
(0.245096 0.0845252 0)
(0.228921 0.0861535 0)
(0.213165 0.0877493 0)
(0.19784 0.0887713 0)
(0.182163 0.0899293 0)
(0.165074 0.0908675 0)
(0.146432 0.0922262 0)
(0.126274 0.0938234 0)
(0.106091 0.0964035 0)
(0.0863722 0.0997288 0)
(0.0671731 0.103317 0)
(0.0482931 0.107266 0)
(0.0290776 0.109141 0)
(0.00979646 0.112082 0)
(3 -7.7312e-17 0)
(3 8.14563e-17 0)
(3 3.64535e-16 0)
(3 1.68107e-16 0)
(3 2.25522e-16 0)
(3 7.98943e-16 0)
(3 1.04507e-15 0)
(3 1.21113e-15 0)
(3 1.1065e-15 0)
(3 7.70124e-16 0)
(3 1.96367e-16 0)
(3 1.53854e-16 0)
(3 6.69088e-16 0)
(3 9.19053e-16 0)
(3 7.53616e-16 0)
(3 6.74575e-16 0)
(3 4.11196e-16 0)
(3 4.9799e-16 0)
(3 8.22324e-16 0)
(3 8.98895e-16 0)
(3 6.25015e-16 0)
(3 3.68308e-16 0)
(3 2.94433e-16 0)
(3 2.79923e-16 0)
(3 3.02858e-17 0)
(3 -2.6193e-16 0)
(3 -4.24618e-16 0)
(3 -6.2447e-16 0)
(3 -6.85616e-16 0)
(3 -7.35771e-16 0)
(3 4.2332e-17 0)
(3 4.8549e-16 0)
(3 7.23685e-17 0)
(3 8.33959e-17 0)
(3 9.83449e-17 0)
(3 -5.90308e-16 0)
(3 -1.0182e-15 0)
(3 -1.20567e-15 0)
(3 -8.01078e-16 0)
(3 -7.52208e-16 0)
(3 -1.46531e-15 0)
(3 -1.37055e-15 0)
(3 -1.02773e-15 0)
(3 -1.24646e-15 0)
(3 -1.50173e-15 0)
(3 -1.46438e-15 0)
(3 -7.97596e-16 0)
(3 -6.97489e-16 0)
(3 -6.53484e-16 0)
(3 -1.09644e-15 0)
(2.7125 0.0497485 0)
(0.941351 0.0904159 0)
(0.748941 0.0926233 0)
(0.726302 0.0938876 0)
(0.703912 0.0960751 0)
(0.685556 0.0991547 0)
(0.670877 0.100497 0)
(0.659083 0.0975848 0)
(0.648664 0.0914694 0)
(0.636929 0.084365 0)
(0.622815 0.0773185 0)
(0.606689 0.0720516 0)
(0.589777 0.071088 0)
(0.573281 0.0752686 0)
(0.558349 0.0842386 0)
(0.544324 0.0941617 0)
(0.528928 0.0987195 0)
(0.51301 0.0961462 0)
(0.495599 0.0921488 0)
(0.476448 0.0931027 0)
(0.457871 0.098833 0)
(0.440242 0.103814 0)
(0.424098 0.105261 0)
(0.408994 0.106683 0)
(0.393106 0.109972 0)
(0.376157 0.114202 0)
(0.357654 0.115981 0)
(0.338753 0.115484 0)
(0.319904 0.115012 0)
(0.301217 0.114689 0)
(0.28294 0.112877 0)
(0.264369 0.111083 0)
(0.246683 0.111812 0)
(0.230156 0.114404 0)
(0.214171 0.116727 0)
(0.198554 0.118009 0)
(0.182329 0.119357 0)
(0.164529 0.120381 0)
(0.145364 0.121872 0)
(0.125039 0.123679 0)
(0.105038 0.126531 0)
(0.0856076 0.130329 0)
(0.0665569 0.134474 0)
(0.0477706 0.139209 0)
(0.0285814 0.141564 0)
(0.00968138 0.14525 0)
(3 3.30941e-16 0)
(3 2.38192e-16 0)
(3 2.86947e-16 0)
(3 8.68474e-16 0)
(3 9.62501e-16 0)
(3 8.56699e-16 0)
(3 8.25825e-16 0)
(3 9.49782e-16 0)
(3 1.01199e-15 0)
(3 1.36995e-15 0)
(3 1.78295e-15 0)
(3 1.91024e-15 0)
(3 1.39985e-15 0)
(3 9.14556e-16 0)
(3 8.32786e-16 0)
(3 1.00354e-15 0)
(3 8.27129e-16 0)
(3 7.97708e-16 0)
(3 3.25184e-16 0)
(3 -1.45313e-16 0)
(3 -3.73322e-16 0)
(3 -2.86904e-16 0)
(3 5.46878e-16 0)
(3 3.88308e-16 0)
(3 -4.34593e-17 0)
(3 -8.50886e-16 0)
(3 -1.09939e-15 0)
(3 -1.34318e-15 0)
(3 -1.50384e-15 0)
(3 -6.99003e-16 0)
(3 -2.10122e-16 0)
(3 -1.93713e-17 0)
(3 1.74455e-16 0)
(3 1.62141e-15 0)
(3 7.54845e-16 0)
(3 -4.15815e-16 0)
(3 -4.80279e-16 0)
(3 3.40814e-16 0)
(3 9.56934e-16 0)
(3 7.27183e-16 0)
(3 4.59035e-16 0)
(3 -2.62607e-16 0)
(3 -9.32559e-16 0)
(3 -1.16906e-15 0)
(3 -8.59051e-16 0)
(3 -7.08929e-16 0)
(3 -6.03085e-16 0)
(3 -5.3892e-16 0)
(3 1.59387e-16 0)
(3 8.01024e-17 0)
(2.82602 0.0530206 0)
(0.977666 0.121606 0)
(0.742159 0.123293 0)
(0.725249 0.119516 0)
(0.710557 0.117619 0)
(0.697686 0.114057 0)
(0.686212 0.110915 0)
(0.675487 0.108945 0)
(0.663596 0.107434 0)
(0.648966 0.105256 0)
(0.631676 0.101455 0)
(0.612899 0.0972829 0)
(0.593876 0.096217 0)
(0.575777 0.100268 0)
(0.560125 0.109512 0)
(0.546365 0.119972 0)
(0.531466 0.12498 0)
(0.516028 0.122643 0)
(0.499095 0.118425 0)
(0.480334 0.118966 0)
(0.462252 0.124517 0)
(0.445147 0.129635 0)
(0.429163 0.131655 0)
(0.413747 0.134265 0)
(0.39756 0.139051 0)
(0.380423 0.144411 0)
(0.362222 0.146505 0)
(0.344061 0.145414 0)
(0.325832 0.144043 0)
(0.307221 0.14294 0)
(0.2884 0.14074 0)
(0.269217 0.139059 0)
(0.250997 0.140599 0)
(0.234216 0.144423 0)
(0.218042 0.147753 0)
(0.201981 0.149438 0)
(0.185057 0.151046 0)
(0.166498 0.152265 0)
(0.14676 0.153925 0)
(0.126117 0.155931 0)
(0.106051 0.158921 0)
(0.0865349 0.162949 0)
(0.0672403 0.167341 0)
(0.0481627 0.172576 0)
(0.0286595 0.175241 0)
(0.00976269 0.179466 0)
(3 3.34614e-17 0)
(3 7.51147e-16 0)
(3 9.96391e-16 0)
(3 9.07387e-16 0)
(3 5.09765e-16 0)
(3 -5.49184e-17 0)
(3 -9.0796e-17 0)
(3 2.56134e-16 0)
(3 2.10423e-16 0)
(3 2.99885e-16 0)
(3 4.40275e-16 0)
(3 8.35345e-16 0)
(3 1.21231e-15 0)
(3 1.42645e-15 0)
(3 8.02621e-16 0)
(3 2.39192e-16 0)
(3 2.64381e-17 0)
(3 -2.98398e-16 0)
(3 -5.86139e-16 0)
(3 -1.08055e-15 0)
(3 -8.43162e-16 0)
(3 -7.8568e-16 0)
(3 -2.14628e-16 0)
(3 -4.38254e-16 0)
(3 -4.97817e-16 0)
(3 -1.14954e-15 0)
(3 -1.31503e-15 0)
(3 -1.31361e-15 0)
(3 -1.57387e-15 0)
(3 -1.36329e-15 0)
(3 -1.31032e-15 0)
(3 -1.40313e-15 0)
(3 -8.03616e-16 0)
(3 2.28024e-16 0)
(3 1.33409e-16 0)
(3 7.25161e-17 0)
(3 4.27245e-16 0)
(3 1.244e-15 0)
(3 1.42106e-15 0)
(3 1.52132e-15 0)
(3 1.7386e-15 0)
(3 1.43895e-15 0)
(3 2.6591e-16 0)
(3 -1.53978e-16 0)
(3 2.19695e-16 0)
(3 5.624e-16 0)
(3 4.21736e-16 0)
(3 5.96019e-16 0)
(3 7.504e-16 0)
(3 8.3334e-16 0)
(2.93928 0.0334002 0)
(1.0382 0.161234 0)
(0.747811 0.14539 0)
(0.737515 0.134861 0)
(0.726809 0.12951 0)
(0.714196 0.127269 0)
(0.701566 0.127415 0)
(0.688181 0.129715 0)
(0.672707 0.132731 0)
(0.654577 0.133784 0)
(0.634922 0.130978 0)
(0.615296 0.126075 0)
(0.596336 0.123677 0)
(0.578735 0.126468 0)
(0.563846 0.134994 0)
(0.55093 0.145485 0)
(0.536588 0.151159 0)
(0.521333 0.149647 0)
(0.504571 0.145763 0)
(0.485972 0.146091 0)
(0.468036 0.15137 0)
(0.451049 0.156701 0)
(0.434691 0.159689 0)
(0.418391 0.163766 0)
(0.401433 0.170164 0)
(0.383862 0.176507 0)
(0.365936 0.17868 0)
(0.34857 0.176829 0)
(0.331092 0.174382 0)
(0.312803 0.172405 0)
(0.293855 0.169932 0)
(0.274612 0.16859 0)
(0.256351 0.171146 0)
(0.239549 0.176455 0)
(0.223196 0.181076 0)
(0.206443 0.183341 0)
(0.188709 0.185262 0)
(0.169478 0.186782 0)
(0.149297 0.188679 0)
(0.128324 0.190905 0)
(0.108079 0.193957 0)
(0.08824 0.198088 0)
(0.0684833 0.202524 0)
(0.0489385 0.208059 0)
(0.0290001 0.210891 0)
(0.00993942 0.215472 0)
(3 -2.91105e-17 0)
(3 2.44909e-17 0)
(3 5.57097e-17 0)
(3 -5.36061e-16 0)
(3 -9.83709e-16 0)
(3 -9.53677e-16 0)
(3 -8.84903e-16 0)
(3 -5.43886e-16 0)
(3 -2.62525e-16 0)
(3 -2.49254e-16 0)
(3 7.54054e-17 0)
(3 3.57503e-16 0)
(3 3.3763e-16 0)
(3 3.26909e-16 0)
(3 -2.91281e-16 0)
(3 -9.10035e-16 0)
(3 -1.24029e-15 0)
(3 -1.06609e-15 0)
(3 -7.40363e-16 0)
(3 -9.08969e-16 0)
(3 -1.37783e-15 0)
(3 -1.92331e-15 0)
(3 -2.06177e-15 0)
(3 -1.80017e-15 0)
(3 -1.46167e-15 0)
(3 -1.00105e-15 0)
(3 -1.08074e-15 0)
(3 -8.13471e-16 0)
(3 2.1332e-17 0)
(3 -6.37872e-16 0)
(3 -7.26308e-16 0)
(3 -6.92341e-16 0)
(3 1.80385e-17 0)
(3 3.77261e-16 0)
(3 5.19765e-16 0)
(3 5.56041e-16 0)
(3 2.09152e-16 0)
(3 3.57355e-16 0)
(3 6.21308e-16 0)
(3 1.1633e-15 0)
(3 1.22301e-15 0)
(3 1.08954e-15 0)
(3 1.09627e-15 0)
(3 9.1149e-16 0)
(3 7.82512e-16 0)
(3 1.31817e-15 0)
(3 2.22497e-15 0)
(3 2.32185e-15 0)
(3 2.35574e-15 0)
(3 1.62574e-15 0)
(3.0017 0.00243308 0)
(1.17189 0.183892 0)
(0.766898 0.155612 0)
(0.747668 0.15022 0)
(0.735223 0.151018 0)
(0.718635 0.151649 0)
(0.702202 0.153899 0)
(0.686163 0.157897 0)
(0.670303 0.162402 0)
(0.653582 0.164164 0)
(0.636202 0.161208 0)
(0.618743 0.155357 0)
(0.600935 0.151879 0)
(0.583569 0.154051 0)
(0.56803 0.1623 0)
(0.553659 0.173048 0)
(0.537721 0.17945 0)
(0.520989 0.178755 0)
(0.503458 0.175343 0)
(0.484863 0.17552 0)
(0.467329 0.180371 0)
(0.450886 0.185756 0)
(0.434756 0.189628 0)
(0.418511 0.194999 0)
(0.402257 0.202803 0)
(0.385667 0.209658 0)
(0.36925 0.211444 0)
(0.353612 0.208598 0)
(0.337663 0.205035 0)
(0.320348 0.202515 0)
(0.301913 0.200339 0)
(0.282955 0.199961 0)
(0.264711 0.203937 0)
(0.247726 0.211006 0)
(0.230617 0.217175 0)
(0.212678 0.220168 0)
(0.193911 0.222404 0)
(0.174061 0.224307 0)
(0.153572 0.226475 0)
(0.13223 0.228944 0)
(0.1116 0.232028 0)
(0.0911217 0.236217 0)
(0.0705768 0.240575 0)
(0.0502871 0.24628 0)
(0.0297041 0.249169 0)
(0.0102179 0.253962 0)
(3 -1.0911e-16 0)
(3 -5.62133e-16 0)
(3 -1.25679e-15 0)
(3 -1.10082e-15 0)
(3 -8.85864e-16 0)
(3 -7.11051e-16 0)
(3 -8.85512e-16 0)
(3 -1.21933e-15 0)
(3 -1.27425e-15 0)
(3 -1.12729e-15 0)
(3 -1.18818e-15 0)
(3 -1.24092e-15 0)
(3 -1.12994e-15 0)
(3 -9.18294e-16 0)
(3 -8.26032e-16 0)
(3 -8.28406e-16 0)
(3 -8.97821e-16 0)
(3 -9.79568e-16 0)
(3 -7.93685e-16 0)
(3 -6.85987e-16 0)
(3 -9.29948e-16 0)
(3 -1.21058e-15 0)
(3 -1.7845e-15 0)
(3 -2.23075e-15 0)
(3 -2.05231e-15 0)
(3 -1.80622e-15 0)
(3 -1.49001e-15 0)
(3 -1.49712e-15 0)
(3 -1.63436e-15 0)
(3 -1.55304e-15 0)
(3 -1.16183e-15 0)
(3 6.69339e-16 0)
(3 1.56554e-15 0)
(3 1.33704e-15 0)
(3 9.74717e-16 0)
(3 4.45454e-16 0)
(3 -4.76027e-16 0)
(3 -4.84858e-16 0)
(3 -3.13051e-16 0)
(3 -4.49378e-17 0)
(3 -1.97123e-16 0)
(3 2.40512e-17 0)
(3 5.99132e-16 0)
(3 1.15784e-15 0)
(3 1.56327e-15 0)
(3 1.71162e-15 0)
(3 2.26185e-15 0)
(3 2.45129e-15 0)
(3 3.09424e-15 0)
(3 1.95059e-15 0)
(3.00002 5.77473e-06 0)
(1.42408 0.205072 0)
(0.784851 0.180698 0)
(0.750601 0.172858 0)
(0.738978 0.176411 0)
(0.722056 0.178521 0)
(0.704569 0.181835 0)
(0.686696 0.186472 0)
(0.66924 0.191513 0)
(0.651834 0.193865 0)
(0.634395 0.191615 0)
(0.617151 0.186107 0)
(0.599589 0.18251 0)
(0.582395 0.184585 0)
(0.566914 0.192584 0)
(0.553003 0.203191 0)
(0.538177 0.209823 0)
(0.522917 0.209709 0)
(0.50702 0.20696 0)
(0.490004 0.207044 0)
(0.473519 0.211222 0)
(0.457639 0.216283 0)
(0.441717 0.220672 0)
(0.42577 0.226992 0)
(0.410598 0.235687 0)
(0.395304 0.24234 0)
(0.380412 0.243151 0)
(0.366144 0.239329 0)
(0.351168 0.235322 0)
(0.334433 0.233301 0)
(0.316418 0.232466 0)
(0.297781 0.233801 0)
(0.279584 0.239498 0)
(0.26215 0.24838 0)
(0.243945 0.256157 0)
(0.224568 0.259927 0)
(0.204594 0.262444 0)
(0.183935 0.264866 0)
(0.162727 0.267433 0)
(0.140847 0.270317 0)
(0.119095 0.273674 0)
(0.097286 0.278129 0)
(0.0752476 0.282556 0)
(0.0535011 0.288525 0)
(0.0315465 0.291512 0)
(0.0108655 0.296489 0)
(3 1.35471e-16 0)
(3 2.24496e-16 0)
(3 1.67683e-16 0)
(3 9.01215e-17 0)
(3 1.3694e-16 0)
(3 -1.22018e-16 0)
(3 -9.80519e-17 0)
(3 -1.26826e-16 0)
(3 -3.8011e-16 0)
(3 -7.48204e-16 0)
(3 -1.09459e-15 0)
(3 -1.60934e-15 0)
(3 -1.61895e-15 0)
(3 -1.29143e-15 0)
(3 -8.73437e-16 0)
(3 -6.90504e-16 0)
(3 -8.07217e-16 0)
(3 -8.78321e-16 0)
(3 -9.18954e-16 0)
(3 -4.83362e-16 0)
(3 -2.77748e-17 0)
(3 9.17145e-17 0)
(3 -1.59061e-17 0)
(3 -2.97007e-16 0)
(3 -5.51851e-16 0)
(3 -5.3468e-16 0)
(3 -6.98201e-16 0)
(3 -1.03466e-15 0)
(3 -1.09964e-15 0)
(3 -1.2787e-15 0)
(3 -1.27008e-15 0)
(3 -8.42286e-16 0)
(3 -1.95069e-16 0)
(3 2.93714e-16 0)
(3 2.54384e-16 0)
(3 -5.29721e-17 0)
(3 -1.10543e-16 0)
(3 -1.77036e-16 0)
(3 -1.38442e-16 0)
(3 -7.84055e-16 0)
(3 -1.02844e-15 0)
(3 -8.16544e-16 0)
(3 -7.08243e-16 0)
(3 1.96471e-16 0)
(3 1.00785e-15 0)
(3 1.48933e-15 0)
(3 1.35458e-15 0)
(3 1.38309e-15 0)
(3 1.33317e-15 0)
(3 1.35862e-15 0)
(3 1.11842e-08 0)
(1.81028 0.221636 0)
(0.81911 0.215909 0)
(0.748347 0.201971 0)
(0.733507 0.204558 0)
(0.717657 0.207112 0)
(0.702328 0.211217 0)
(0.686921 0.216549 0)
(0.672033 0.222732 0)
(0.65693 0.226326 0)
(0.641654 0.225046 0)
(0.626561 0.219502 0)
(0.610953 0.214648 0)
(0.595096 0.215202 0)
(0.58041 0.221749 0)
(0.56712 0.231314 0)
(0.55337 0.237837 0)
(0.539367 0.238636 0)
(0.524874 0.237324 0)
(0.509286 0.238103 0)
(0.493577 0.2421 0)
(0.477904 0.246824 0)
(0.46208 0.251176 0)
(0.446538 0.257707 0)
(0.432171 0.26648 0)
(0.417537 0.272387 0)
(0.403033 0.272267 0)
(0.388631 0.268362 0)
(0.373294 0.265154 0)
(0.356319 0.264748 0)
(0.338169 0.266201 0)
(0.319307 0.269923 0)
(0.300459 0.277746 0)
(0.281707 0.288745 0)
(0.261655 0.298618 0)
(0.240107 0.3038 0)
(0.218107 0.307113 0)
(0.195732 0.310535 0)
(0.172779 0.313877 0)
(0.149449 0.317327 0)
(0.125899 0.321007 0)
(0.102305 0.325662 0)
(0.0786266 0.330008 0)
(0.0555365 0.336073 0)
(0.0325905 0.339024 0)
(0.0111232 0.344101 0)
(3 1.68962e-16 0)
(3 2.40833e-16 0)
(3 4.07464e-16 0)
(3 4.21515e-16 0)
(3 5.41118e-16 0)
(3 4.26621e-16 0)
(3 3.43979e-16 0)
(3 2.50623e-16 0)
(3 2.94244e-16 0)
(3 2.24981e-16 0)
(3 1.16108e-16 0)
(3 -2.92911e-17 0)
(3 -3.18184e-16 0)
(3 -6.08493e-16 0)
(3 -9.65489e-16 0)
(3 -1.0563e-15 0)
(3 -9.46174e-16 0)
(3 -7.22573e-16 0)
(3 -6.19107e-16 0)
(3 -3.9045e-16 0)
(3 -1.45648e-16 0)
(3 1.63748e-16 0)
(3 2.73997e-16 0)
(3 -7.61659e-17 0)
(3 -7.24645e-16 0)
(3 -6.15533e-16 0)
(3 -4.9617e-16 0)
(3 -2.23317e-16 0)
(3 -1.6636e-16 0)
(3 -1.99474e-16 0)
(3 -7.28924e-16 0)
(3 -8.4403e-16 0)
(3 -8.73781e-16 0)
(3 -3.09839e-16 0)
(3 -1.17046e-16 0)
(3 2.62743e-16 0)
(3 6.45432e-16 0)
(3 8.59425e-16 0)
(3 4.99861e-16 0)
(3 -4.78566e-16 0)
(3 -1.5736e-15 0)
(3 -2.21738e-15 0)
(3 -2.46533e-15 0)
(3 -1.67252e-15 0)
(3 2.53718e-16 0)
(3 1.76023e-15 0)
(3 1.92076e-15 0)
(3 1.25623e-15 0)
(3 7.52904e-16 0)
(3 8.95427e-16 0)
(3 1.94524e-11 0)
(2.34542 0.219086 0)
(0.886839 0.267878 0)
(0.758517 0.24296 0)
(0.749612 0.230421 0)
(0.735544 0.229022 0)
(0.722318 0.232352 0)
(0.708065 0.237867 0)
(0.694042 0.24493 0)
(0.679714 0.250918 0)
(0.665018 0.252032 0)
(0.650791 0.247625 0)
(0.636296 0.241891 0)
(0.620768 0.240735 0)
(0.605751 0.245874 0)
(0.591967 0.254725 0)
(0.578233 0.261593 0)
(0.564596 0.263692 0)
(0.550844 0.264369 0)
(0.536262 0.266828 0)
(0.521174 0.271735 0)
(0.505601 0.276712 0)
(0.489747 0.280851 0)
(0.474269 0.287127 0)
(0.459869 0.295878 0)
(0.444819 0.302126 0)
(0.429127 0.303096 0)
(0.412981 0.301043 0)
(0.395923 0.300102 0)
(0.377606 0.302347 0)
(0.358215 0.3069 0)
(0.33778 0.313465 0)
(0.316676 0.323604 0)
(0.295114 0.336726 0)
(0.272382 0.348649 0)
(0.248482 0.355141 0)
(0.224725 0.358965 0)
(0.201168 0.36292 0)
(0.177368 0.366655 0)
(0.153361 0.370331 0)
(0.128992 0.374026 0)
(0.104551 0.378597 0)
(0.0800926 0.382543 0)
(0.0563416 0.388369 0)
(0.0329421 0.390923 0)
(0.0111702 0.39605 0)
(3 -3.78934e-16 0)
(3 -5.98127e-16 0)
(3 -5.46755e-16 0)
(3 -4.66902e-16 0)
(3 -3.83658e-16 0)
(3 -1.69524e-16 0)
(3 -2.72298e-16 0)
(3 -3.92217e-16 0)
(3 -3.61549e-16 0)
(3 -3.20912e-16 0)
(3 -2.14695e-16 0)
(3 -2.49536e-16 0)
(3 -5.05936e-16 0)
(3 -1.21509e-15 0)
(3 -1.56652e-15 0)
(3 -1.10086e-15 0)
(3 -3.28058e-16 0)
(3 -1.10716e-16 0)
(3 4.13286e-16 0)
(3 4.96193e-16 0)
(3 7.17552e-16 0)
(3 8.04494e-16 0)
(3 6.51456e-16 0)
(3 5.26269e-16 0)
(3 3.47104e-16 0)
(3 3.53726e-16 0)
(3 4.8581e-16 0)
(3 4.08925e-16 0)
(3 9.3822e-17 0)
(3 -6.206e-16 0)
(3 -1.05989e-15 0)
(3 -5.78832e-16 0)
(3 -6.9781e-16 0)
(3 -7.27506e-16 0)
(3 -1.10692e-15 0)
(3 -7.2951e-16 0)
(3 -3.42039e-16 0)
(3 9.75928e-18 0)
(3 1.53358e-16 0)
(3 -3.96381e-16 0)
(3 -1.06683e-15 0)
(3 -1.06502e-15 0)
(3 -1.07486e-15 0)
(3 -1.00189e-15 0)
(3 1.03941e-15 0)
(3 1.3389e-15 0)
(3 1.18793e-15 0)
(3 1.0135e-15 0)
(3 1.81304e-15 0)
(3 1.3048e-15 0)
(3 5.05888e-14 0)
(2.94001 0.0688369 0)
(1.05932 0.303313 0)
(0.792696 0.264782 0)
(0.779084 0.249582 0)
(0.76122 0.249785 0)
(0.745742 0.255116 0)
(0.730463 0.262466 0)
(0.715989 0.27119 0)
(0.701817 0.278637 0)
(0.687317 0.281221 0)
(0.673024 0.278829 0)
(0.65815 0.274473 0)
(0.641675 0.273404 0)
(0.624851 0.278295 0)
(0.608579 0.286852 0)
(0.592344 0.293432 0)
(0.576601 0.295691 0)
(0.561185 0.297421 0)
(0.545606 0.301488 0)
(0.53008 0.307935 0)
(0.514292 0.313857 0)
(0.498338 0.318117 0)
(0.482621 0.323932 0)
(0.467658 0.332618 0)
(0.451852 0.339763 0)
(0.434806 0.342262 0)
(0.417303 0.34231 0)
(0.399111 0.343586 0)
(0.380295 0.34821 0)
(0.360843 0.35537 0)
(0.340264 0.364153 0)
(0.318963 0.375799 0)
(0.297344 0.390404 0)
(0.275029 0.40407 0)
(0.251602 0.41191 0)
(0.228444 0.416113 0)
(0.205737 0.420417 0)
(0.182739 0.424608 0)
(0.159537 0.428754 0)
(0.135628 0.432807 0)
(0.111156 0.43766 0)
(0.0859656 0.44155 0)
(0.0607608 0.447083 0)
(0.0356947 0.448973 0)
(0.0118623 0.453998 0)
(3 -3.51563e-17 0)
(3 2.44293e-17 0)
(3 1.20872e-16 0)
(3 8.38206e-18 0)
(3 -9.03394e-17 0)
(3 7.28579e-17 0)
(3 2.2098e-16 0)
(3 2.77243e-16 0)
(3 3.94807e-16 0)
(3 3.03825e-16 0)
(3 -2.18664e-16 0)
(3 -5.04058e-16 0)
(3 -7.74035e-16 0)
(3 -9.90112e-16 0)
(3 -1.09858e-15 0)
(3 -3.94691e-16 0)
(3 -1.57142e-17 0)
(3 3.17063e-17 0)
(3 3.47315e-16 0)
(3 8.73192e-16 0)
(3 7.04296e-16 0)
(3 2.07162e-16 0)
(3 1.56782e-16 0)
(3 1.04993e-15 0)
(3 1.39872e-15 0)
(3 1.11366e-15 0)
(3 5.57646e-16 0)
(3 -5.07177e-16 0)
(3 -1.0167e-15 0)
(3 -9.15305e-16 0)
(3 -7.80031e-16 0)
(3 -5.81656e-16 0)
(3 -2.83619e-16 0)
(3 -5.06388e-16 0)
(3 -1.05025e-15 0)
(3 -1.35081e-15 0)
(3 -1.5214e-15 0)
(3 -1.25841e-15 0)
(3 -1.34054e-15 0)
(3 -1.91632e-16 0)
(3 4.54173e-16 0)
(3 4.69817e-16 0)
(3 2.79304e-16 0)
(3 4.75941e-16 0)
(3 5.95558e-16 0)
(3 2.27867e-16 0)
(3 -4.45332e-16 0)
(3 3.46986e-16 0)
(3 1.97211e-15 0)
(3 2.0702e-15 0)
(3 1.09793e-15 0)
(3.00507 0.00137369 0)
(1.41223 0.327506 0)
(0.815491 0.298638 0)
(0.776474 0.289928 0)
(0.755524 0.288603 0)
(0.737051 0.288653 0)
(0.721168 0.293336 0)
(0.706972 0.300918 0)
(0.69404 0.308437 0)
(0.681223 0.312346 0)
(0.668657 0.312158 0)
(0.655737 0.310169 0)
(0.641533 0.310504 0)
(0.62711 0.315678 0)
(0.613043 0.323362 0)
(0.598626 0.328355 0)
(0.584322 0.329265 0)
(0.569701 0.330582 0)
(0.554691 0.335308 0)
(0.539976 0.343241 0)
(0.525022 0.350788 0)
(0.509747 0.355905 0)
(0.494241 0.361147 0)
(0.479538 0.369731 0)
(0.464144 0.378298 0)
(0.447354 0.383299 0)
(0.429808 0.386196 0)
(0.41166 0.389909 0)
(0.393308 0.396802 0)
(0.374298 0.405863 0)
(0.35506 0.416724 0)
(0.334992 0.429368 0)
(0.315304 0.444957 0)
(0.295553 0.460172 0)
(0.27443 0.469672 0)
(0.253222 0.474223 0)
(0.232249 0.478306 0)
(0.210985 0.482502 0)
(0.188507 0.487456 0)
(0.16429 0.493361 0)
(0.138101 0.501522 0)
(0.109174 0.509704 0)
(0.0783604 0.518393 0)
(0.0464076 0.521717 0)
(0.0153377 0.527157 0)
(3 1.40277e-16 0)
(3 2.89949e-16 0)
(3 4.04097e-16 0)
(3 6.1246e-16 0)
(3 6.39466e-16 0)
(3 7.38318e-16 0)
(3 9.07663e-16 0)
(3 9.14205e-16 0)
(3 1.06277e-15 0)
(3 1.16036e-15 0)
(3 8.22104e-16 0)
(3 6.0478e-16 0)
(3 4.9524e-16 0)
(3 5.29805e-16 0)
(3 5.94727e-16 0)
(3 4.0532e-16 0)
(3 2.59086e-16 0)
(3 3.12014e-16 0)
(3 4.90262e-16 0)
(3 3.90219e-16 0)
(3 -8.1046e-17 0)
(3 -1.40313e-16 0)
(3 -1.49317e-16 0)
(3 -5.0827e-16 0)
(3 -6.19949e-16 0)
(3 1.83777e-16 0)
(3 1.87932e-16 0)
(3 -6.24418e-17 0)
(3 -8.42968e-16 0)
(3 -9.45799e-16 0)
(3 -7.96524e-16 0)
(3 -1.17386e-15 0)
(3 -1.1398e-15 0)
(3 -1.09519e-15 0)
(3 -7.59199e-16 0)
(3 -9.08659e-16 0)
(3 -8.21063e-16 0)
(3 -1.3957e-15 0)
(3 -1.4804e-15 0)
(3 -9.9356e-16 0)
(3 7.04186e-16 0)
(3 9.24702e-16 0)
(3 6.86566e-16 0)
(3 2.17866e-16 0)
(3 -2.66078e-16 0)
(3 -2.04832e-16 0)
(3 -3.49717e-16 0)
(3 7.2586e-17 0)
(3 3.54618e-16 0)
(3 6.28362e-16 0)
(3 1.17506e-17 0)
(3.00001 2.81e-06 0)
(2.20637 0.324432 0)
(0.889023 0.355871 0)
(0.780816 0.336721 0)
(0.767247 0.32558 0)
(0.748685 0.324434 0)
(0.732668 0.325888 0)
(0.718173 0.331116 0)
(0.705433 0.336786 0)
(0.693794 0.340289 0)
(0.682712 0.341438 0)
(0.671369 0.341543 0)
(0.658998 0.343427 0)
(0.64631 0.349313 0)
(0.633393 0.35704 0)
(0.61951 0.361834 0)
(0.605282 0.362607 0)
(0.590461 0.363842 0)
(0.57524 0.36906 0)
(0.560817 0.378392 0)
(0.546688 0.388082 0)
(0.532303 0.394861 0)
(0.517578 0.399503 0)
(0.503796 0.407147 0)
(0.49028 0.416492 0)
(0.475268 0.424044 0)
(0.458996 0.429848 0)
(0.441745 0.435705 0)
(0.424405 0.444103 0)
(0.406171 0.454073 0)
(0.388653 0.465983 0)
(0.37036 0.479276 0)
(0.352016 0.495214 0)
(0.333673 0.512204 0)
(0.313541 0.525383 0)
(0.291791 0.533297 0)
(0.269206 0.540533 0)
(0.245171 0.54909 0)
(0.218769 0.559731 0)
(0.190002 0.572454 0)
(0.159402 0.587773 0)
(0.127108 0.603467 0)
(0.0929635 0.61661 0)
(0.0569544 0.622795 0)
(0.0179029 0.626906 0)
(3 -2.47254e-17 0)
(3 -1.34836e-16 0)
(3 -2.40858e-16 0)
(3 -2.10506e-16 0)
(3 -1.88162e-16 0)
(3 -2.60511e-16 0)
(3 -2.93081e-16 0)
(3 -2.78339e-16 0)
(3 -2.13276e-16 0)
(3 2.14122e-17 0)
(3 3.46806e-16 0)
(3 5.72579e-16 0)
(3 9.40879e-16 0)
(3 1.2635e-15 0)
(3 1.27263e-15 0)
(3 7.29076e-16 0)
(3 1.91184e-16 0)
(3 1.36077e-16 0)
(3 -2.96172e-16 0)
(3 -7.81632e-16 0)
(3 -7.71801e-16 0)
(3 -3.41099e-16 0)
(3 7.56682e-17 0)
(3 6.54269e-16 0)
(3 8.52741e-16 0)
(3 1.22538e-15 0)
(3 1.30938e-15 0)
(3 9.92472e-16 0)
(3 8.71482e-18 0)
(3 -2.16239e-17 0)
(3 4.76002e-17 0)
(3 -4.84057e-17 0)
(3 -2.84278e-16 0)
(3 -1.74586e-16 0)
(3 -4.23749e-16 0)
(3 -7.03291e-16 0)
(3 -6.49506e-16 0)
(3 -1.10407e-15 0)
(3 -2.04786e-15 0)
(3 -2.41e-15 0)
(3 -1.62363e-15 0)
(3 -8.94651e-16 0)
(3 -1.0495e-15 0)
(3 -1.19247e-15 0)
(3 -1.8918e-15 0)
(3 -2.41682e-15 0)
(3 -2.09981e-15 0)
(3 -1.91591e-15 0)
(3 -2.44646e-15 0)
(3 -2.05571e-15 0)
(3 -3.38591e-15 0)
(3 6.29357e-09 0)
(3.02745 0.0276174 0)
(1.21346 0.399168 0)
(0.835922 0.354372 0)
(0.811428 0.351789 0)
(0.793359 0.351006 0)
(0.774265 0.352965 0)
(0.756806 0.357252 0)
(0.740749 0.360373 0)
(0.726822 0.362024 0)
(0.714569 0.363672 0)
(0.702843 0.366047 0)
(0.690621 0.370433 0)
(0.678212 0.378508 0)
(0.665296 0.388521 0)
(0.650686 0.395912 0)
(0.635018 0.398717 0)
(0.618791 0.400467 0)
(0.602221 0.405728 0)
(0.586695 0.41563 0)
(0.572542 0.427138 0)
(0.558816 0.436033 0)
(0.544803 0.441158 0)
(0.532065 0.447724 0)
(0.520619 0.457256 0)
(0.508222 0.466826 0)
(0.493969 0.475618 0)
(0.477679 0.483952 0)
(0.460936 0.494188 0)
(0.443153 0.505844 0)
(0.426685 0.519598 0)
(0.410096 0.534867 0)
(0.393469 0.552437 0)
(0.376609 0.57196 0)
(0.358997 0.590225 0)
(0.339115 0.603722 0)
(0.318074 0.615694 0)
(0.295809 0.629417 0)
(0.271784 0.645287 0)
(0.245885 0.663067 0)
(0.217483 0.681464 0)
(0.186489 0.702184 0)
(0.148586 0.726453 0)
(0.100342 0.752753 0)
(0.0374671 0.772058 0)
(3 -6.21808e-17 0)
(3 -2.13141e-16 0)
(3 -2.67955e-16 0)
(3 -3.09022e-16 0)
(3 -6.86943e-16 0)
(3 -8.47556e-16 0)
(3 -1.02376e-15 0)
(3 -1.00002e-15 0)
(3 -8.697e-16 0)
(3 -7.21671e-16 0)