/*--------------------------------*- C++ -*----------------------------------*\
  =========                 |
  \\      /  F ield         | OpenFOAM: The Open Source CFD Toolbox
   \\    /   O peration     | Website:  https://openfoam.org
    \\  /    A nd           | Version:  7
     \\/     M anipulation  |
\*---------------------------------------------------------------------------*/
FoamFile
{
    version     2.0;
    format      ascii;
    class       volScalarField;
    location    "2.1";
    object      rho;
}
// * * * * * * * * * * * * * * * * * * * * * * * * * * * * * * * * * * * * * //

dimensions      [1 -3 0 0 0 0 0];

internalField   nonuniform List<scalar> 
19968
(
1.40001
1.40001
1.40001
1.40001
1.40001
1.40001
1.40001
1.40001
1.40001
1.40001
1.40001
1.40001
1.40001
1.40001
1.40001
1.40001
1.40001
1.40001
1.40001
1.40001
1.40001
1.40001
1.40001
1.40001
1.40001
1.40001
1.40001
1.40001
1.40001
1.40001
1.40001
1.40001
1.40001
1.40001
1.40001
1.40001
1.40001
1.40001
1.40001
1.40001
1.40001
1.40001
1.40001
1.40001
1.40001
1.40001
1.40001
1.40001
1.40001
1.68133
4.54412
5.43638
5.45372
5.48243
5.50424
5.52249
5.5382
5.55434
5.57227
5.59238
5.61446
5.63744
5.66064
5.68357
5.70312
5.71629
5.72334
5.72873
5.73937
5.75885
5.78221
5.80434
5.82376
5.83893
5.84863
5.85207
5.85377
5.85941
5.8709
5.88579
5.90047
5.91292
5.92322
5.9326
5.94228
5.95205
5.96048
5.9661
5.96901
5.96963
5.96762
5.96051
5.94618
5.92673
5.91078
5.90172
1.40001
1.40001
1.40001
1.40001
1.40001
1.40001
1.40001
1.40001
1.40001
1.40001
1.40001
1.40001
1.40001
1.40001
1.40001
1.40001
1.40001
1.40001
1.40001
1.40001
1.40001
1.40001
1.40001
1.40001
1.40001
1.40001
1.40001
1.40001
1.40001
1.40001
1.40001
1.40001
1.40001
1.40001
1.40001
1.40001
1.40001
1.40001
1.40001
1.40001
1.40001
1.40001
1.40001
1.40001
1.40001
1.40001
1.40001
1.40001
1.40001
1.66272
4.51298
5.43213
5.45337
5.48115
5.50319
5.52127
5.53748
5.55413
5.57214
5.59208
5.61412
5.63727
5.66054
5.68351
5.70306
5.71599
5.72274
5.72814
5.73875
5.75804
5.78099
5.80294
5.82227
5.8374
5.84708
5.85063
5.85246
5.85815
5.86946
5.88404
5.89847
5.91091
5.92141
5.93102
5.94076
5.95037
5.95851
5.96387
5.96661
5.96703
5.96478
5.95753
5.94332
5.92441
5.90916
5.90091
1.40001
1.40001
1.40001
1.40001
1.40001
1.40001
1.40001
1.40001
1.40001
1.40001
1.40001
1.40001
1.40001
1.40001
1.40001
1.40001
1.40001
1.40001
1.40001
1.40001
1.40001
1.40001
1.40001
1.40001
1.40001
1.40001
1.40001
1.40001
1.40001
1.40001
1.40001
1.40001
1.40001
1.40001
1.40001
1.40001
1.40001
1.40001
1.40001
1.40001
1.40001
1.40001
1.40001
1.40001
1.40001
1.40001
1.40001
1.40001
1.40001
1.6243
4.45202
5.43252
5.45179
5.47804
5.49867
5.5169
5.53446
5.55243
5.57093
5.59089
5.61305
5.63653
5.65998
5.68285
5.70206
5.71439
5.72061
5.72601
5.7366
5.75585
5.77847
5.80027
5.81962
5.83479
5.84454
5.84823
5.85019
5.85593
5.86707
5.8814
5.89563
5.90807
5.91874
5.92848
5.93811
5.94736
5.95503
5.96003
5.96252
5.96265
5.96003
5.9525
5.93837
5.92013
5.90577
5.89865
1.40001
1.40001
1.40001
1.40001
1.40001
1.40001
1.40001
1.40001
1.40001
1.40001
1.40001
1.40001
1.40001
1.40001
1.40001
1.40001
1.40001
1.40001
1.40001
1.40001
1.40001
1.40001
1.40001
1.40001
1.40001
1.40001
1.40001
1.40001
1.40001
1.40001
1.40001
1.40001
1.40001
1.40001
1.40001
1.40001
1.40001
1.40001
1.40001
1.40001
1.40001
1.40001
1.40001
1.40001
1.40001
1.40001
1.40001
1.40001
1.40001
1.57033
4.35649
5.43407
5.45192
5.47142
5.48999
5.50891
5.52882
5.54907
5.56897
5.58967
5.61235
5.63631
5.66
5.68279
5.70141
5.71256
5.71767
5.72263
5.73268
5.7514
5.77346
5.795
5.81449
5.83003
5.84025
5.84434
5.84642
5.85214
5.86307
5.8772
5.89131
5.90374
5.9145
5.92426
5.93366
5.94245
5.94955
5.95412
5.95622
5.95586
5.95271
5.94476
5.93076
5.91349
5.90034
5.89474
1.40001
1.40001
1.40001
1.40001
1.40001
1.40001
1.40001
1.40001
1.40001
1.40001
1.40001
1.40001
1.40001
1.40001
1.40001
1.40001
1.40001
1.40001
1.40001
1.40001
1.40001
1.40001
1.40001
1.40001
1.40001
1.40001
1.40001
1.40001
1.40001
1.40001
1.40001
1.40001
1.40001
1.40001
1.40001
1.40001
1.40001
1.40001
1.40001
1.40001
1.40001
1.40001
1.40001
1.40001
1.40001
1.40001
1.40001
1.40001
1.40001
1.48255
4.20819
5.44229
5.44933
5.4662
5.48593
5.50655
5.52713
5.54743
5.56741
5.58797
5.61015
5.63328
5.65578
5.67722
5.69495
5.70565
5.71079
5.71615
5.72584
5.74403
5.7659
5.78728
5.80711
5.8232
5.83425
5.83888
5.84109
5.84682
5.8576
5.8717
5.8858
5.89816
5.90876
5.91823
5.92714
5.9353
5.94175
5.94586
5.94756
5.94678
5.94309
5.93477
5.92102
5.90489
5.89312
5.88918
1.40001
1.40001
1.40001
1.40001
1.40001
1.40001
1.40001
1.40001
1.40001
1.40001
1.40001
1.40001
1.40001
1.40001
1.40001
1.40001
1.40001
1.40001
1.40001
1.40001
1.40001
1.40001
1.40001
1.40001
1.40001
1.40001
1.40001
1.40001
1.40001
1.40001
1.40001
1.40001
1.40001
1.40001
1.40001
1.40001
1.40001
1.40001
1.40001
1.40001
1.40001
1.40001
1.40001
1.40001
1.40001
1.40001
1.40001
1.40001
1.40001
1.40284
3.9824
5.43361
5.44199
5.45584
5.4749
5.49495
5.51541
5.53608
5.55719
5.57951
5.6034
5.62778
5.65063
5.67132
5.68855
5.69958
5.70528
5.71063
5.71891
5.73517
5.75615
5.77694
5.79669
5.81289
5.82462
5.8299
5.8326
5.8387
5.84957
5.86383
5.87808
5.89041
5.90077
5.90976
5.91797
5.92536
5.93109
5.93472
5.9361
5.93511
5.93106
5.92254
5.90924
5.89434
5.88391
5.88155
1.40001
1.40001
1.40001
1.40001
1.40001
1.40001
1.40001
1.40001
1.40001
1.40001
1.40001
1.40001
1.40001
1.40001
1.40001
1.40001
1.40001
1.40001
1.40001
1.40001
1.40001
1.40001
1.40001
1.40001
1.40001
1.40001
1.40001
1.40001
1.40001
1.40001
1.40001
1.40001
1.40001
1.40001
1.40001
1.40001
1.40001
1.40001
1.40001
1.40001
1.40001
1.40001
1.40001
1.40001
1.40001
1.40001
1.40001
1.40001
1.40001
1.40002
3.65344
5.39153
5.42588
5.43825
5.45924
5.48119
5.50401
5.52713
5.55032
5.57366
5.59728
5.62076
5.64234
5.66133
5.67765
5.68925
5.69623
5.70243
5.71039
5.72455
5.74437
5.76545
5.7854
5.80178
5.81357
5.81979
5.82346
5.83
5.84098
5.85507
5.86894
5.88065
5.89023
5.89825
5.90526
5.91143
5.91614
5.91936
5.92068
5.91988
5.91591
5.90758
5.89488
5.881
5.87161
5.87038
1.40001
1.40001
1.40001
1.40001
1.40001
1.40001
1.40001
1.40001
1.40001
1.40001
1.40001
1.40001
1.40001
1.40001
1.40001
1.40001
1.40001
1.40001
1.40001
1.40001
1.40001
1.40001
1.40001
1.40001
1.40001
1.40001
1.40001
1.40001
1.40001
1.40001
1.40001
1.40001
1.40001
1.40001
1.40001
1.40001
1.40001
1.40001
1.40001
1.40001
1.40001
1.40001
1.40001
1.40001
1.40001
1.40001
1.40001
1.40001
1.40001
1.40001
3.24417
5.32593
5.41538
5.42441
5.44562
5.46833
5.49277
5.5177
5.54221
5.56589
5.58895
5.61157
5.63221
5.64999
5.66566
5.67795
5.68632
5.69343
5.70117
5.71266
5.72989
5.74929
5.76748
5.78284
5.79464
5.80254
5.80832
5.81611
5.82739
5.8411
5.85465
5.8662
5.87555
5.88297
5.88887
5.89365
5.89713
5.89986
5.9012
5.90077
5.89725
5.88935
5.87703
5.86346
5.85433
5.85335
1.40001
1.40001
1.40001
1.40001
1.40001
1.40001
1.40001
1.40001
1.40001
1.40001
1.40001
1.40001
1.40001
1.40001
1.40001
1.40001
1.40001
1.40001
1.40001
1.40001
1.40001
1.40001
1.40001
1.40001
1.40001
1.40001
1.40001
1.40001
1.40001
1.40001
1.40001
1.40001
1.40001
1.40001
1.40001
1.40001
1.40001
1.40001
1.40001
1.40001
1.40001
1.40001
1.40001
1.40001
1.40001
1.40001
1.40001
1.40001
1.40001
1.40001
2.76934
5.21022
5.41902
5.42076
5.43998
5.46195
5.48645
5.51146
5.53564
5.55846
5.58019
5.60126
5.62055
5.63685
5.65167
5.66463
5.6748
5.68377
5.69237
5.70218
5.71613
5.73231
5.74849
5.76253
5.77453
5.78411
5.79212
5.80117
5.81238
5.82504
5.83765
5.84865
5.85742
5.86386
5.86827
5.87131
5.87331
5.87545
5.87714
5.87765
5.87527
5.86827
5.85629
5.8424
5.83265
5.83093
1.40001
1.40001
1.40001
1.40001
1.40001
1.40001
1.40001
1.40001
1.40001
1.40001
1.40001
1.40001
1.40001
1.40001
1.40001
1.40001
1.40001
1.40001
1.40001
1.40001
1.40001
1.40001
1.40001
1.40001
1.40001
1.40001
1.40001
1.40001
1.40001
1.40001
1.40001
1.40001
1.40001
1.40001
1.40001
1.40001
1.40001
1.40001
1.40001
1.40001
1.40001
1.40001
1.40001
1.40001
1.40001
1.40001
1.40001
1.40001
1.40001
1.40001
2.23531
4.99161
5.42318
5.42672
5.44222
5.46035
5.48181
5.5041
5.52584
5.54661
5.5666
5.58631
5.60508
5.62076
5.63492
5.64826
5.66
5.67097
5.68108
5.69023
5.70108
5.71337
5.72685
5.73987
5.75205
5.76283
5.77238
5.78184
5.79236
5.80375
5.81547
5.82608
5.83449
5.84019
5.8433
5.84477
5.84539
5.8468
5.84874
5.85026
5.8492
5.84315
5.83134
5.81647
5.80523
5.8019
1.40001
1.40001
1.40001
1.40001
1.40001
1.40001
1.40001
1.40001
1.40001
1.40001
1.40001
1.40001
1.40001
1.40001
1.40001
1.40001
1.40001
1.40001
1.40001
1.40001
1.40001
1.40001
1.40001
1.40001
1.40001
1.40001
1.40001
1.40001
1.40001
1.40001
1.40001
1.40001
1.40001
1.40001
1.40001
1.40001
1.40001
1.40001
1.40001
1.40001
1.40001
1.40001
1.40001
1.40001
1.40001
1.40001
1.40001
1.40001
1.40001
1.40001
1.73824
4.60999
5.43997
5.42487
5.44138
5.45764
5.47643
5.49491
5.51282
5.53047
5.54818
5.56632
5.58476
5.60075
5.61466
5.62819
5.64081
5.65288
5.66405
5.67318
5.68169
5.69044
5.70058
5.71184
5.72331
5.73413
5.74391
5.75288
5.76237
5.77247
5.7833
5.79349
5.80142
5.80626
5.80803
5.8081
5.80755
5.80832
5.81058
5.81346
5.81437
5.81002
5.79877
5.78315
5.77048
5.76554
1.40001
1.40001
1.40001
1.40001
1.40001
1.40001
1.40001
1.40001
1.40001
1.40001
1.40001
1.40001
1.40001
1.40001
1.40001
1.40001
1.40001
1.40001
1.40001
1.40001
1.40001
1.40001
1.40001
1.40001
1.40001
1.40001
1.40001
1.40001
1.40001
1.40001
1.40001
1.40001
1.40001
1.40001
1.40001
1.40001
1.40001
1.40001
1.40001
1.40001
1.40001
1.40001
1.40001
1.40001
1.40001
1.40001
1.40001
1.40001
1.40001
1.40001
1.4128
3.9007
5.37816
5.39687
5.42022
5.44203
5.46129
5.47739
5.49185
5.50627
5.5214
5.53752
5.5549
5.57112
5.58462
5.59721
5.60921
5.62116
5.63293
5.64306
5.65131
5.65866
5.6665
5.67585
5.68577
5.69504
5.70329
5.71085
5.71898
5.72808
5.7383
5.74837
5.75625
5.76087
5.76233
5.76213
5.76137
5.76174
5.76348
5.76588
5.76629
5.76092
5.74812
5.73028
5.7155
5.70876
1.40001
1.40001
1.40001
1.40001
1.40001
1.40001
1.40001
1.40001
1.40001
1.40001
1.40001
1.40001
1.40001
1.40001
1.40001
1.40001
1.40001
1.40001
1.40001
1.40001
1.40001
1.40001
1.40001
1.40001
1.40001
1.40001
1.40001
1.40001
1.40001
1.40001
1.40001
1.40001
1.40001
1.40001
1.40001
1.40001
1.40001
1.40001
1.40001
1.40001
1.40001
1.40001
1.40001
1.40001
1.40001
1.40001
1.40001
1.40001
1.40001
1.40001
1.40002
2.98269
5.20127
5.37707
5.40685
5.4306
5.4481
5.46106
5.47156
5.48253
5.4955
5.51076
5.5283
5.54576
5.55977
5.57138
5.58175
5.59229
5.60354
5.61458
5.62398
5.632
5.63899
5.64603
5.6527
5.65828
5.66273
5.66721
5.67285
5.68011
5.68857
5.69697
5.70298
5.70543
5.70482
5.70244
5.69927
5.69725
5.69675
5.69719
5.69633
5.69052
5.67742
5.65949
5.6444
5.63737
1.40001
1.40001
1.40001
1.40001
1.40001
1.40001
1.40001
1.40001
1.40001
1.40001
1.40001
1.40001
1.40001
1.40001
1.40001
1.40001
1.40001
1.40001
1.40001
1.40001
1.40001
1.40001
1.40001
1.40001
1.40001
1.40001
1.40001
1.40001
1.40001
1.40001
1.40001
1.40001
1.40001
1.40001
1.40001
1.40001
1.40001
1.40001
1.40001
1.40001
1.40001
1.40001
1.40001
1.40001
1.40001
1.40001
1.40001
1.40001
1.40001
1.40001
1.40001
1.98608
4.78922
5.39881
5.39768
5.42191
5.43822
5.45084
5.4591
5.46676
5.47647
5.48919
5.50498
5.52184
5.53548
5.54507
5.552
5.55856
5.56648
5.57602
5.58566
5.59457
5.60187
5.60756
5.61138
5.61304
5.61316
5.6137
5.61623
5.62091
5.62657
5.63196
5.63549
5.63608
5.63349
5.62941
5.62504
5.6217
5.61935
5.61679
5.61127
5.59945
5.57886
5.55291
5.53059
5.51729
1.40001
1.40001
1.40001
1.40001
1.40001
1.40001
1.40001
1.40001
1.40001
1.40001
1.40001
1.40001
1.40001
1.40001
1.40001
1.40001
1.40001
1.40001
1.40001
1.40001
1.40001
1.40001
1.40001
1.40001
1.40001
1.40001
1.40001
1.40001
1.40001
1.40001
1.40001
1.40001
1.40001
1.40001
1.40001
1.40001
1.40001
1.40001
1.40001
1.40001
1.40001
1.40001
1.40001
1.40001
1.40001
1.40001
1.40001
1.40001
1.40001
1.40001
1.40001
1.42462
3.65291
5.3414
5.39149
5.41473
5.43385
5.44593
5.45188
5.45597
5.46157
5.47055
5.48312
5.49778
5.5106
5.51903
5.52338
5.52588
5.52903
5.53454
5.54216
5.5503
5.55732
5.56189
5.56359
5.56215
5.55832
5.55473
5.55394
5.5548
5.55592
5.5566
5.55585
5.552
5.54473
5.5351
5.5241
5.5119
5.49801
5.48118
5.45954
5.43291
5.40403
5.37308
5.35369
5.34486
1.40001
1.40001
1.40001
1.40001
1.40001
1.40001
1.40001
1.40001
1.40001
1.40001
1.40001
1.40001
1.40001
1.40001
1.40001
1.40001
1.40001
1.40001
1.40001
1.40001
1.40001
1.40001
1.40001
1.40001
1.40001
1.40001
1.40001
1.40001
1.40001
1.40001
1.40001
1.40001
1.40001
1.40001
1.40001
1.40001
1.40001
1.40001
1.40001
1.40001
1.40001
1.40001
1.40001
1.40001
1.40001
1.40001
1.40001
1.40001
1.40001
1.40001
1.40001
1.40002
2.23565
4.92982
5.37801
5.38211
5.40393
5.41978
5.43089
5.43778
5.44264
5.44835
5.45687
5.46838
5.48006
5.48821
5.49133
5.49061
5.48844
5.48796
5.49161
5.49731
5.50285
5.50618
5.50652
5.50335
5.49637
5.48845
5.48254
5.47754
5.47189
5.46563
5.45765
5.44678
5.43223
5.41472
5.39519
5.37392
5.35025
5.32351
5.29228
5.25552
5.20812
5.15525
5.0861
5.10041
1.40001
1.40001
1.40001
1.40001
1.40001
1.40001
1.40001
1.40001
1.40001
1.40001
1.40001
1.40001
1.40001
1.40001
1.40001
1.40001
1.40001
1.40001
1.40001
1.40001
1.40001
1.40001
1.40001
1.40001
1.40001
1.40001
1.40001
1.40001
1.40001
1.40001
1.40001
1.40001
1.40001
1.40001
1.40001
1.40001
1.40001
1.40001
1.40001
1.40001
1.40001
1.40001
1.40001
1.40001
1.40001
1.40001
1.40001
1.40001
1.40001
1.40001
1.40001
1.40001
1.44831
3.93341
5.34027
5.35537
5.37532
5.39317
5.40895
5.41995
5.42621
5.43011
5.43477
5.44201
5.45048
5.45724
5.45994
5.45764
5.45132
5.44564
5.44414
5.44566
5.44818
5.4497
5.44812
5.4434
5.43434
5.42302
5.4124
5.40169
5.38956
5.37637
5.3612
5.34287
5.32024
5.29297
5.26106
5.22405
5.179
5.12254
5.04622
4.94221
4.78578
4.55334
4.13658
3.24357
1.40001
1.40001
1.40001
1.40001
1.40001
1.40001
1.40001
1.40001
1.40001
1.40001
1.40001
1.40001
1.40001
1.40001
1.40001
1.40001
1.40001
1.40001
1.40001
1.40001
1.40001
1.40001
1.40001
1.40001
1.40001
1.40001
1.40001
1.40001
1.40001
1.40001
1.40001
1.40001
1.40001
1.40001
1.40001
1.40001
1.40001
1.40001
1.40001
1.40001
1.40001
1.40001
1.40001
1.40001
1.40001
1.40001
1.40001
1.40001
1.40001
1.40001
1.40001
1.40001
1.39999
2.68841
5.04158
5.31801
5.33691
5.36236
5.38218
5.39638
5.40483
5.40912
5.41241
5.41712
5.42293
5.42839
5.43102
5.42937
5.42231
5.41363
5.40754
5.40478
5.40336
5.40204
5.39811
5.39069
5.37982
5.36612
5.35158
5.33558
5.31727
5.29721
5.27479
5.24896
5.21814
5.18138
5.1369
5.08413
5.01773
4.93494
4.82224
4.67652
4.4644
4.18755
3.64532
2.87563
1.40001
1.40001
1.40001
1.40001
1.40001
1.40001
1.40001
1.40001
1.40001
1.40001
1.40001
1.40001
1.40001
1.40001
1.40001
1.40001
1.40001
1.40001
1.40001
1.40001
1.40001
1.40001
1.40001
1.40001
1.40001
1.40001
1.40001
1.40001
1.40001
1.40001
1.40001
1.40001
1.40001
1.40001
1.40001
1.40001
1.40001
1.40001
1.40001
1.40001
1.40001
1.40001
1.40001
1.40001
1.40001
1.40001
1.40001
1.40001
1.40001
1.40001
1.40001
1.40001
1.4
1.59303
4.43084
5.35969
5.34369
5.34962
5.36159
5.37188
5.37936
5.38315
5.38549
5.38834
5.39199
5.39619
5.39862
5.39789
5.39122
5.38041
5.36977
5.36182
5.35526
5.35007
5.34362
5.33439
5.3213
5.30545
5.28735
5.26616
5.24186
5.21504
5.18504
5.15148
5.1121
5.06616
5.01018
4.94324
4.8596
4.756
4.62342
4.4518
4.23014
3.90753
3.45658
2.95183
1.40001
1.40001
1.40001
1.40001
1.40001
1.40001
1.40001
1.40001
1.40001
1.40001
1.40001
1.40001
1.40001
1.40001
1.40001
1.40001
1.40001
1.40001
1.40001
1.40001
1.40001
1.40001
1.40001
1.40001
1.40001
1.40001
1.40001
1.40001
1.40001
1.40001
1.40001
1.40001
1.40001
1.40001
1.40001
1.40001
1.40001
1.40001
1.40001
1.40001
1.40001
1.40001
1.40001
1.40001
1.40001
1.40001
1.40001
1.40001
1.40001
1.40001
1.40001
1.40001
1.4
1.40194
3.10966
5.138
5.2952
5.31455
5.33047
5.34044
5.34738
5.35086
5.35285
5.35448
5.3566
5.35964
5.3621
5.36182
5.35628
5.34506
5.33228
5.32075
5.3098
5.3001
5.29018
5.27821
5.26269
5.24391
5.22185
5.1962
5.16669
5.13396
5.09699
5.05603
5.00862
4.95425
4.88944
4.81219
4.71807
4.60275
4.46143
4.28382
4.06284
3.77539
3.43166
3.06052
1.40001
1.40001
1.40001
1.40001
1.40001
1.40001
1.40001
1.40001
1.40001
1.40001
1.40001
1.40001
1.40001
1.40001
1.40001
1.40001
1.40001
1.40001
1.40001
1.40001
1.40001
1.40001
1.40001
1.40001
1.40001
1.40001
1.40001
1.40001
1.40001
1.40001
1.40001
1.40001
1.40001
1.40001
1.40001
1.40001
1.40001
1.40001
1.40001
1.40001
1.40001
1.40001
1.40001
1.40001
1.40001
1.40001
1.40001
1.40001
1.40001
1.40001
1.40001
1.40001
1.40001
1.4
1.7557
4.58794
5.32225
5.3099
5.31716
5.32227
5.32549
5.32623
5.3261
5.32529
5.32478
5.32506
5.3262
5.32533
5.32064
5.31022
5.29687
5.28273
5.26726
5.25227
5.2377
5.2225
5.2045
5.18294
5.15728
5.12766
5.09362
5.05581
5.01311
4.96573
4.91168
4.85009
4.77847
4.69447
4.59492
4.4758
4.33639
4.16303
3.96254
3.7246
3.4503
3.16675
1.40001
1.40001
1.40001
1.40001
1.40001
1.40001
1.40001
1.40001
1.40001
1.40001
1.40001
1.40001
1.40001
1.40001
1.40001
1.40001
1.40001
1.40001
1.40001
1.40001
1.40001
1.40001
1.40001
1.40001
1.40001
1.40001
1.40001
1.40001
1.40001
1.40001
1.40001
1.40001
1.40001
1.40001
1.40001
1.40001
1.40001
1.40001
1.40001
1.40001
1.40001
1.40001
1.40001
1.40001
1.40001
1.40001
1.40001
1.40001
1.40001
1.40001
1.40001
1.40001
1.40001
1.4
1.40755
3.15161
5.10136
5.27099
5.28426
5.29671
5.30244
5.3044
5.30491
5.30242
5.29846
5.29436
5.29088
5.28661
5.28019
5.26949
5.256
5.24051
5.22251
5.20425
5.1859
5.1676
5.14708
5.12291
5.09399
5.06067
5.02272
4.98084
4.93431
4.88282
4.82486
4.75887
4.68325
4.59593
4.49498
4.37691
4.24346
4.08241
3.90766
3.71046
3.48472
3.25553
1.40001
1.40001
1.40001
1.40001
1.40001
1.40001
1.40001
1.40001
1.40001
1.40001
1.40001
1.40001
1.40001
1.40001
1.40001
1.40001
1.40001
1.40001
1.40001
1.40001
1.40001
1.40001
1.40001
1.40001
1.40001
1.40001
1.40001
1.40001
1.40001
1.40001
1.40001
1.40001
1.40001
1.40001
1.40001
1.40001
1.40001
1.40001
1.40001
1.40001
1.40001
1.40001
1.40001
1.40001
1.40001
1.40001
1.40001
1.40001
1.40001
1.40001
1.40001
1.40001
1.40001
1.40001
1.4
1.65888
4.46561
5.31502
5.29563
5.29442
5.29451
5.29346
5.29146
5.28572
5.2772
5.26727
5.25747
5.24857
5.2397
5.22876
5.21604
5.20069
5.18167
5.1612
5.13918
5.11679
5.09278
5.06602
5.03464
4.99865
4.95773
4.91261
4.86296
4.80847
4.74806
4.67989
4.60266
4.5146
4.4154
4.29992
4.17453
4.02942
3.87632
3.70849
3.52011
3.32692
1.40001
1.40001
1.40001
1.40001
1.40001
1.40001
1.40001
1.40001
1.40001
1.40001
1.40001
1.40001
1.40001
1.40001
1.40001
1.40001
1.40001
1.40001
1.40001
1.40001
1.40001
1.40001
1.40001
1.40001
1.40001
1.40001
1.40001
1.40001
1.40001
1.40001
1.40001
1.40001
1.40001
1.40001
1.40001
1.40001
1.40001
1.40001
1.40001
1.40001
1.40001
1.40001
1.40001
1.40001
1.40001
1.40001
1.40001
1.40001
1.40001
1.40001
1.40001
1.40001
1.40001
1.40001
1.4
1.40363
2.90973
5.04889
5.24256
5.25852
5.26482
5.26672
5.26562
5.25948
5.24915
5.23612
5.22212
5.20908
5.19689
5.18393
5.17033
5.15444
5.13511
5.1137
5.08977
5.06485
5.03822
5.00962
4.97708
4.93997
4.89752
4.85026
4.79803
4.74124
4.67962
4.6114
4.53558
4.44963
4.35431
4.2438
4.12749
3.99547
3.86022
3.71186
3.55349
3.38502
1.40001
1.40001
1.40001
1.40001
1.40001
1.40001
1.40001
1.40001
1.40001
1.40001
1.40001
1.40001
1.40001
1.40001
1.40001
1.40001
1.40001
1.40001
1.40001
1.40001
1.40001
1.40001
1.40001
1.40001
1.40001
1.40001
1.40001
1.40001
1.40001
1.40001
1.40001
1.40001
1.40001
1.40001
1.40001
1.40001
1.40001
1.40001
1.40001
1.40001
1.40001
1.40001
1.40001
1.40001
1.40001
1.40001
1.40001
1.40001
1.40001
1.40001
1.40001
1.40001
1.40001
1.40001
1.40001
1.4
1.55104
4.10063
5.26474
5.24811
5.2483
5.2469
5.24442
5.23783
5.22719
5.2134
5.19724
5.18068
5.16457
5.14888
5.13349
5.11655
5.0968
5.07441
5.04891
5.02144
4.99179
4.96065
4.92663
4.88852
4.84532
4.79692
4.74313
4.68455
4.62131
4.55272
4.47916
4.39532
4.30474
4.20271
4.09502
3.97514
3.85491
3.72022
3.58425
3.43475
1.40001
1.40001
1.40001
1.40001
1.40001
1.40001
1.40001
1.40001
1.40001
1.40001
1.40001
1.40001
1.40001
1.40001
1.40001
1.40001
1.40001
1.40001
1.40001
1.40001
1.40001
1.40001
1.40001
1.40001
1.40001
1.40001
1.40001
1.40001
1.40001
1.40001
1.40001
1.40001
1.40001
1.40001
1.40001
1.40001
1.40001
1.40001
1.40001
1.40001
1.40001
1.40001
1.40001
1.40001
1.40001
1.40001
1.40001
1.40001
1.40001
1.40001
1.40001
1.40001
1.40001
1.40001
1.40001
1.4
1.4011
2.33598
4.88649
5.22873
5.21158
5.20998
5.20725
5.20212
5.19355
5.18191
5.16708
5.15038
5.13287
5.11574
5.09844
5.08005
5.05927
5.03564
5.00871
4.9789
4.94678
4.91334
4.87771
4.83895
4.79617
4.74831
4.6952
4.63687
4.57291
4.50395
4.43187
4.35038
4.26427
4.17122
4.07141
3.96431
3.85479
3.73246
3.61276
3.48005
1.40001
1.40001
1.40001
1.40001
1.40001
1.40001
1.40001
1.40001
1.40001
1.40001
1.40001
1.40001
1.40001
1.40001
1.40001
1.40001
1.40001
1.40001
1.40001
1.40001
1.40001
1.40001
1.40001
1.40001
1.40001
1.40001
1.40001
1.40001
1.40001
1.40001
1.40001
1.40001
1.40001
1.40001
1.40001
1.40001
1.40001
1.40001
1.40001
1.40001
1.40001
1.40001
1.40001
1.40001
1.40001
1.40001
1.40001
1.40001
1.40001
1.40001
1.40001
1.40001
1.40001
1.40001
1.40001
1.40001
1.40001
1.45534
3.39072
5.10931
5.17672
5.18217
5.18089
5.17479
5.16576
5.15414
5.13994
5.12391
5.10648
5.08861
5.06952
5.0496
5.02746
5.00282
4.97464
4.94285
4.90881
4.87289
4.83539
4.79555
4.75259
4.70546
4.6539
4.59726
4.53478
4.46561
4.39424
4.31582
4.23239
4.14694
4.05397
3.95815
3.85612
3.74724
3.63843
3.5198
1.40001
1.40001
1.40001
1.40001
1.40001
1.40001
1.40001
1.40001
1.40001
1.40001
1.40001
1.40001
1.40001
1.40001
1.40001
1.40001
1.40001
1.40001
1.40001
1.40001
1.40001
1.40001
1.40001
1.40001
1.40001
1.40001
1.40001
1.40001
1.40001
1.40001
1.40001
1.40001
1.40001
1.40001
1.40001
1.40001
1.40001
1.40001
1.40001
1.40001
1.40001
1.40001
1.40001
1.40001
1.40001
1.40001
1.40001
1.40001
1.40001
1.40001
1.40001
1.40001
1.40001
1.40001
1.40001
1.40001
1.40001
1.40016
1.65894
4.22598
5.18751
5.17166
5.16293
5.14815
5.13698
5.12561
5.11332
5.09892
5.08285
5.06557
5.04602
5.02517
5.00139
4.97503
4.94564
4.91225
4.87602
4.83767
4.79759
4.75603
4.71225
4.66546
4.61532
4.56087
4.50165
4.43386
4.36488
4.28952
4.20946
4.129
4.04169
3.95379
3.85791
3.76109
3.6588
3.55301
1.40001
1.40001
1.40001
1.40001
1.40001
1.40001
1.40001
1.40001
1.40001
1.40001
1.40001
1.40001
1.40001
1.40001
1.40001
1.40001
1.40001
1.40001
1.40001
1.40001
1.40001
1.40001
1.40001
1.40001
1.40001
1.40001
1.40001
1.40001
1.40001
1.40001
1.40001
1.40001
1.40001
1.40001
1.40001
1.40001
1.40001
1.40001
1.40001
1.40001
1.40001
1.40001
1.40001
1.40001
1.40001
1.40001
1.40001
1.40001
1.40001
1.40001
1.40001
1.40001
1.40001
1.40001
1.40001
1.40001
1.40001
1.40001
1.40356
2.34487
4.87062
5.16215
5.12322
5.10981
5.09808
5.08851
5.07964
5.06785
5.05421
5.0388
5.02078
5.00049
4.97642
4.94909
4.91863
4.88457
4.84721
4.80723
4.76527
4.72255
4.67678
4.63091
4.581
4.52743
4.47047
4.40612
4.34095
4.26935
4.19414
4.1173
4.0359
3.9526
3.86296
3.77396
3.67786
3.58246
1.40001
1.40001
1.40001
1.40001
1.40001
1.40001
1.40001
1.40001
1.40001
1.40001
1.40001
1.40001
1.40001
1.40001
1.40001
1.40001
1.40001
1.40001
1.40001
1.40001
1.40001
1.40001
1.40001
1.40001
1.40001
1.40001
1.40001
1.40001
1.40001
1.40001
1.40001
1.40001
1.40001
1.40001
1.40001
1.40001
1.40001
1.40001
1.40001
1.40001
1.40001
1.40001
1.40001
1.40001
1.40001
1.40001
1.40001
1.40001
1.40001
1.40001
1.40001
1.40001
1.40001
1.40001
1.40001
1.40001
1.40001
1.40001
1.40001
1.45277
3.22224
5.04249
5.07879
5.07223
5.07085
5.06657
5.05903
5.04738
5.03292
5.01703
4.99909
4.97905
4.95506
4.92743
4.89603
4.86142
4.82335
4.7822
4.73903
4.69418
4.64803
4.60003
4.54976
4.4969
4.44166
4.38109
4.31953
4.25181
4.18152
4.10846
4.03247
3.95337
3.87082
3.78642
3.69733
3.60893
1.40001
1.40001
1.40001
1.40001
1.40001
1.40001
1.40001
1.40001
1.40001
1.40001
1.40001
1.40001
1.40001
1.40001
1.40001
1.40001
1.40001
1.40001
1.40001
1.40001
1.40001
1.40001
1.40001
1.40001
1.40001
1.40001
1.40001
1.40001
1.40001
1.40001
1.40001
1.40001
1.40001
1.40001
1.40001
1.40001
1.40001
1.40001
1.40001
1.40001
1.40001
1.40001
1.40001
1.40001
1.40001
1.40001
1.40001
1.40001
1.40001
1.40001
1.40001
1.40001
1.40001
1.40001
1.40001
1.40001
1.40001
1.40001
1.40001
1.40019
1.604
3.74083
5.03415
5.06304
5.05754
5.05483
5.04808
5.03646
5.02132
5.00342
4.98387
4.96227
4.93761
4.9096
4.87749
4.84208
4.80344
4.76147
4.71731
4.67159
4.6245
4.57575
4.52454
4.4721
4.41798
4.36017
4.30051
4.23607
4.16987
4.10106
4.0301
3.95602
3.88044
3.80032
3.71832
3.63494
1.40001
1.40001
1.40001
1.40001
1.40001
1.40001
1.40001
1.40001
1.40001
1.40001
1.40001
1.40001
1.40001
1.40001
1.40001
1.40001
1.40001
1.40001
1.40001
1.40001
1.40001
1.40001
1.40001
1.40001
1.40001
1.40001
1.40001
1.40001
1.40001
1.40001
1.40001
1.40001
1.40001
1.40001
1.40001
1.40001
1.40001
1.40001
1.40001
1.40001
1.40001
1.40001
1.40001
1.40001
1.40001
1.40001
1.40001
1.40001
1.40001
1.40001
1.40001
1.40001
1.40001
1.40001
1.40001
1.40001
1.40001
1.40001
1.40001
1.40001
1.40224
1.77807
4.17616
5.08281
5.07451
5.05947
5.04321
5.02748
5.00958
4.989
4.96659
4.9425
4.91599
4.88746
4.85595
4.82143
4.78361
4.74242
4.69854
4.65262
4.60505
4.55595
4.5047
4.45284
4.39978
4.34387
4.28505
4.22315
4.15969
4.09487
4.02787
3.95816
3.8881
3.81251
3.73691
3.65879
1.40001
1.40001
1.40001
1.40001
1.40001
1.40001
1.40001
1.40001
1.40001
1.40001
1.40001
1.40001
1.40001
1.40001
1.40001
1.40001
1.40001
1.40001
1.40001
1.40001
1.40001
1.40001
1.40001
1.40001
1.40001
1.40001
1.40001
1.40001
1.40001
1.40001
1.40001
1.40001
1.40001
1.40001
1.40001
1.40001
1.40001
1.40001
1.40001
1.40001
1.40001
1.40001
1.40001
1.40001
1.40001
1.40001
1.40001
1.40001
1.40001
1.40001
1.40001
1.40001
1.40001
1.40001
1.40001
1.40001
1.40001
1.40001
1.40001
1.40001
1.40001
1.40773
2.0051
4.6092
5.13217
5.09048
5.06315
5.03267
5.00532
4.97943
4.95242
4.92474
4.8959
4.86554
4.83425
4.80045
4.76403
4.72473
4.68239
4.63763
4.59082
4.5421
4.49136
4.43992
4.38783
4.33304
4.27476
4.21491
4.15355
4.09187
4.0275
3.96066
3.89452
3.8232
3.75281
3.67982
1.40001
1.40001
1.40001
1.40001
1.40001
1.40001
1.40001
1.40001
1.40001
1.40001
1.40001
1.40001
1.40001
1.40001
1.40001
1.40001
1.40001
1.40001
1.40001
1.40001
1.40001
1.40001
1.40001
1.40001
1.40001
1.40001
1.40001
1.40001
1.40001
1.40001
1.40001
1.40001
1.40001
1.40001
1.40001
1.40001
1.40001
1.40001
1.40001
1.40001
1.40001
1.40001
1.40001
1.40001
1.40001
1.40001
1.40001
1.40001
1.40001
1.40001
1.40001
1.40001
1.40001
1.40001
1.40001
1.40001
1.40001
1.40001
1.40001
1.40001
1.40001
1.40002
1.42003
2.55617
4.87261
5.10177
5.06835
5.04275
5.00916
4.97625
4.94335
4.91098
4.87877
4.84634
4.81346
4.77977
4.74421
4.70644
4.66608
4.62317
4.578
4.53066
4.48137
4.43103
4.38023
4.32688
4.26978
4.21189
4.15218
4.09201
4.02939
3.96455
3.90052
3.83275
3.76627
3.69759
1.40001
1.40001
1.40001
1.40001
1.40001
1.40001
1.40001
1.40001
1.40001
1.40001
1.40001
1.40001
1.40001
1.40001
1.40001
1.40001
1.40001
1.40001
1.40001
1.40001
1.40001
1.40001
1.40001
1.40001
1.40001
1.40001
1.40001
1.40001
1.40001
1.40001
1.40001
1.40001
1.40001
1.40001
1.40001
1.40001
1.40001
1.40001
1.40001
1.40001
1.40001
1.40001
1.40001
1.40001
1.40001
1.40001
1.40001
1.40001
1.40001
1.40001
1.40001
1.40001
1.40001
1.40001
1.40001
1.40001
1.40001
1.40001
1.40001
1.40001
1.40001
1.40001
1.40006
1.4739
3.04167
4.95312
5.05612
5.02647
5.00124
4.97172
4.93946
4.90567
4.87131
4.8362
4.80117
4.76615
4.73009
4.69236
4.65266
4.611
4.56733
4.52166
4.47428
4.42551
4.3759
4.32406
4.26856
4.21241
4.15406
4.0948
4.03432
3.97124
3.90834
3.84375
3.78031
3.71517
1.40001
1.40001
1.40001
1.40001
1.40001
1.40001
1.40001
1.40001
1.40001
1.40001
1.40001
1.40001
1.40001
1.40001
1.40001
1.40001
1.40001
1.40001
1.40001
1.40001
1.40001
1.40001
1.40001
1.40001
1.40001
1.40001
1.40001
1.40001
1.40001
1.40001
1.40001
1.40001
1.40001
1.40001
1.40001
1.40001
1.40001
1.40001
1.40001
1.40001
1.40001
1.40001
1.40001
1.40001
1.40001
1.40001
1.40001
1.40001
1.40001
1.40001
1.40001
1.40001
1.40001
1.40001
1.40001
1.40001
1.40001
1.40001
1.40001
1.40001
1.40001
1.40001
1.40001
1.40041
1.55928
3.35045
4.95664
5.006
4.97917
4.95641
4.92965
4.90086
4.86973
4.83571
4.79976
4.76281
4.72462
4.68535
4.64501
4.60338
4.56005
4.51509
4.46895
4.4217
4.37333
4.32287
4.2692
4.21501
4.15889
4.10111
4.04276
3.98183
3.91973
3.85775
3.79681
3.73472
1.40001
1.40001
1.40001
1.40001
1.40001
1.40001
1.40001
1.40001
1.40001
1.40001
1.40001
1.40001
1.40001
1.40001
1.40001
1.40001
1.40001
1.40001
1.40001
1.40001
1.40001
1.40001
1.40001
1.40001
1.40001
1.40001
1.40001
1.40001
1.40001
1.40001
1.40001
1.40001
1.40001
1.40001
1.40001
1.40001
1.40001
1.40001
1.40001
1.40001
1.40001
1.40001
1.40001
1.40001
1.40001
1.40001
1.40001
1.40001
1.40001
1.40001
1.40001
1.40001
1.40001
1.40001
1.40001
1.40001
1.40001
1.40001
1.40001
1.40001
1.40001
1.40001
1.40001
1.40001
1.40151
1.63998
3.54266
4.9261
4.96093
4.93551
4.91391
4.89037
4.86388
4.83429
4.80196
4.76678
4.72862
4.6883
4.64611
4.60265
4.55809
4.51252
4.46632
4.41961
4.37186
4.32255
4.27119
4.21905
4.16544
4.10976
4.05353
3.99505
3.93408
3.87371
3.815
3.75582
1.40001
1.40001
1.40001
1.40001
1.40001
1.40001
1.40001
1.40001
1.40001
1.40001
1.40001
1.40001
1.40001
1.40001
1.40001
1.40001
1.40001
1.40001
1.40001
1.40001
1.40001
1.40001
1.40001
1.40001
1.40001
1.40001
1.40001
1.40001
1.40001
1.40001
1.40001
1.40001
1.40001
1.40001
1.40001
1.40001
1.40001
1.40001
1.40001
1.40001
1.40001
1.40001
1.40001
1.40001
1.40001
1.40001
1.40001
1.40001
1.40001
1.40001
1.40001
1.40001
1.40001
1.40001
1.40001
1.40001
1.40001
1.40001
1.40001
1.40001
1.40001
1.40001
1.40001
1.40001
1.40001
1.40323
1.70591
3.6576
4.90298
4.92232
4.89833
4.87776
4.85339
4.8277
4.79885
4.76675
4.7318
4.6932
4.65193
4.60861
4.56364
4.5176
4.47085
4.42369
4.37584
4.32733
4.27763
4.22662
4.17464
4.12072
4.066
4.00978
3.95074
3.89178
3.83502
3.77867
1.40001
1.40001
1.40001
1.40001
1.40001
1.40001
1.40001
1.40001
1.40001
1.40001
1.40001
1.40001
1.40001
1.40001
1.40001
1.40001
1.40001
1.40001
1.40001
1.40001
1.40001
1.40001
1.40001
1.40001
1.40001
1.40001
1.40001
1.40001
1.40001
1.40001
1.40001
1.40001
1.40001
1.40001
1.40001
1.40001
1.40001
1.40001
1.40001
1.40001
1.40001
1.40001
1.40001