/*--------------------------------*- C++ -*----------------------------------*\
  =========                 |
  \\      /  F ield         | OpenFOAM: The Open Source CFD Toolbox
   \\    /   O peration     | Website:  https://openfoam.org
    \\  /    A nd           | Version:  7
     \\/     M anipulation  |
\*---------------------------------------------------------------------------*/
FoamFile
{
    version     2.0;
    format      ascii;
    class       volScalarField;
    location    "2.1";
    object      T;
}
// * * * * * * * * * * * * * * * * * * * * * * * * * * * * * * * * * * * * * //

dimensions      [0 0 0 1 0 0 0];

internalField   nonuniform List<scalar> 
19968
(
1
1
1
1
1
1
1
1
1
1
1
1
1
1
1
1
1
1
1
1
1
1
1
1
1
1
1
1
1
1
1
1
1
1
1
1
1
1
1
1
1
1
1
1
1
1
1
1
1
1.25449
2.46005
2.70322
2.70081
2.70286
2.70673
2.71304
2.72021
2.72663
2.73133
2.73408
2.7351
2.73512
2.73529
2.73657
2.74041
2.74795
2.7586
2.76973
2.77813
2.78173
2.78161
2.78034
2.779
2.77905
2.78135
2.78669
2.79352
2.79974
2.80334
2.80434
2.8042
2.80395
2.8039
2.80427
2.80547
2.80779
2.81116
2.81501
2.81886
2.82242
2.82601
2.83057
2.83692
2.84403
2.84919
2.85046
1
1
1
1
1
1
1
1
1
1
1
1
1
1
1
1
1
1
1
1
1
1
1
1
1
1
1
1
1
1
1
1
1
1
1
1
1
1
1
1
1
1
1
1
1
1
1
1
1
1.23961
2.45033
2.7021
2.70023
2.70249
2.70706
2.71361
2.72059
2.72673
2.73126
2.73396
2.735
2.73508
2.73527
2.73655
2.74041
2.74799
2.75865
2.76979
2.7781
2.7816
2.7814
2.78007
2.77871
2.77877
2.78112
2.78651
2.79334
2.79951
2.803
2.80391
2.80374
2.8035
2.8035
2.80393
2.80517
2.80749
2.81083
2.81465
2.81848
2.82198
2.8255
2.83006
2.83643
2.84364
2.84893
2.85036
1
1
1
1
1
1
1
1
1
1
1
1
1
1
1
1
1
1
1
1
1
1
1
1
1
1
1
1
1
1
1
1
1
1
1
1
1
1
1
1
1
1
1
1
1
1
1
1
1
1.20698
2.42918
2.70004
2.69899
2.70227
2.70778
2.71453
2.72116
2.72689
2.73116
2.73376
2.73482
2.73497
2.73519
2.73646
2.74032
2.74792
2.7586
2.76975
2.77793
2.78133
2.78106
2.77966
2.77829
2.77837
2.78077
2.78618
2.79297
2.79902
2.80235
2.80317
2.803
2.80279
2.80285
2.80336
2.80464
2.80698
2.81031
2.8141
2.81789
2.8213
2.82471
2.82925
2.83566
2.84299
2.84845
2.8501
1
1
1
1
1
1
1
1
1
1
1
1
1
1
1
1
1
1
1
1
1
1
1
1
1
1
1
1
1
1
1
1
1
1
1
1
1
1
1
1
1
1
1
1
1
1
1
1
1
1.16003
2.39631
2.69595
2.6978
2.7022
2.70814
2.71477
2.72129
2.72698
2.73117
2.73372
2.73482
2.73503
2.73526
2.73653
2.74043
2.74805
2.75862
2.76957
2.77748
2.78076
2.78042
2.77897
2.77761
2.7777
2.78008
2.78542
2.79208
2.79799
2.80119
2.80199
2.80187
2.80173
2.80184
2.80241
2.80375
2.80613
2.80946
2.81324
2.81692
2.82018
2.82351
2.82801
2.83449
2.84201
2.8477
2.84964
1
1
1
1
1
1
1
1
1
1
1
1
1
1
1
1
1
1
1
1
1
1
1
1
1
1
1
1
1
1
1
1
1
1
1
1
1
1
1
1
1
1
1
1
1
1
1
1
1
1.07928
2.3419
2.6918
2.69674
2.70275
2.70916
2.71568
2.72188
2.72735
2.73135
2.7336
2.73443
2.73452
2.73468
2.73591
2.73982
2.74734
2.75765
2.76835
2.77616
2.77958
2.77934
2.77801
2.77678
2.77683
2.779
2.78401
2.79043
2.79625
2.79947
2.80042
2.80044
2.80037
2.80051
2.8011
2.80245
2.80484
2.80817
2.81192
2.81547
2.81859
2.82185
2.82634
2.83293
2.84071
2.84669
2.84895
1
1
1
1
1
1
1
1
1
1
1
1
1
1
1
1
1
1
1
1
1
1
1
1
1
1
1
1
1
1
1
1
1
1
1
1
1
1
1
1
1
1
1
1
1
1
1
1
1
1.00202
2.26776
2.68687
2.69652
2.70302
2.70948
2.71555
2.72114
2.726
2.72957
2.73169
2.73278
2.73344
2.73415
2.73581
2.73977
2.7468
2.75629
2.76632
2.77398
2.77767
2.77771
2.77669
2.7756
2.7755
2.7772
2.78156
2.78759
2.79339
2.79685
2.79819
2.79849
2.79856
2.79873
2.7993
2.80063
2.803
2.80628
2.80996
2.81341
2.81645
2.81967
2.82417
2.83094
2.83906
2.84534
2.84791
1
1
1
1
1
1
1
1
1
1
1
1
1
1
1
1
1
1
1
1
1
1
1
1
1
1
1
1
1
1
1
1
1
1
1
1
1
1
1
1
1
1
1
1
1
1
1
1
1
1.00001
2.16612
2.67754
2.69581
2.70265
2.70984
2.71604
2.72123
2.7251
2.72772
2.72936
2.7305
2.73159
2.73287
2.73495
2.73888
2.74518
2.75348
2.76254
2.7701
2.77456
2.77564
2.77509
2.77434
2.77409
2.77526
2.77873
2.78414
2.78979
2.79363
2.79548
2.79611
2.79627
2.79643
2.79691
2.7981
2.80035
2.8035
2.80707
2.81049
2.81357
2.81681
2.8214
2.82839
2.83683
2.84338
2.84618
1
1
1
1
1
1
1
1
1
1
1
1
1
1
1
1
1
1
1
1
1
1
1
1
1
1
1
1
1
1
1
1
1
1
1
1
1
1
1
1
1
1
1
1
1
1
1
1
1
1
2.02818
2.66156
2.69261
2.70074
2.70895
2.71513
2.71967
2.7225
2.72419
2.72539
2.72669
2.72846
2.73072
2.73355
2.73754
2.74299
2.74977
2.75746
2.76468
2.76989
2.77217
2.77216
2.77166
2.7712
2.77188
2.7746
2.77944
2.78489
2.78906
2.79145
2.79253
2.79298
2.79329
2.79379
2.79486
2.79691
2.79984
2.80328
2.80668
2.80985
2.81317
2.81788
2.82505
2.83368
2.84036
2.84324
1
1
1
1
1
1
1
1
1
1
1
1
1
1
1
1
1
1
1
1
1
1
1
1
1
1
1
1
1
1
1
1
1
1
1
1
1
1
1
1
1
1
1
1
1
1
1
1
1
1
1.84756
2.62982
2.6843
2.69537
2.70537
2.71178
2.71598
2.71832
2.71954
2.72057
2.72209
2.72458
2.72791
2.73153
2.73556
2.74013
2.74539
2.7516
2.75819
2.76386
2.76748
2.76854
2.76835
2.76794
2.76836
2.77053
2.77476
2.77982
2.78405
2.78676
2.78824
2.78898
2.78943
2.78992
2.79079
2.7925
2.79511
2.79838
2.80181
2.80517
2.80872
2.81358
2.82089
2.8296
2.8363
2.8391
1
1
1
1
1
1
1
1
1
1
1
1
1
1
1
1
1
1
1
1
1
1
1
1
1
1
1
1
1
1
1
1
1
1
1
1
1
1
1
1
1
1
1
1
1
1
1
1
1
1
1.59766
2.56374
2.67508
2.6887
2.69871
2.70545
2.71019
2.71297
2.71449
2.71575
2.71758
2.72055
2.7246
2.72879
2.73278
2.73661
2.74053
2.74522
2.75079
2.75635
2.76089
2.76329
2.76401
2.76405
2.76453
2.76633
2.76979
2.77411
2.77806
2.7809
2.78274
2.78386
2.78458
2.78512
2.78583
2.78718
2.7894
2.79244
2.79585
2.79943
2.80324
2.80818
2.81552
2.8242
2.83084
2.83345
1
1
1
1
1
1
1
1
1
1
1
1
1
1
1
1
1
1
1
1
1
1
1
1
1
1
1
1
1
1
1
1
1
1
1
1
1
1
1
1
1
1
1
1
1
1
1
1
1
1
1.278
2.44561
2.67905
2.68195
2.69005
2.69707
2.70307
2.70732
2.71005
2.71204
2.71415
2.71706
2.72104
2.72526
2.72907
2.73238
2.73528
2.7385
2.74259
2.74733
2.75202
2.75553
2.75752
2.75852
2.75942
2.76099
2.76361
2.76695
2.77032
2.77303
2.77508
2.77656
2.77755
2.7782
2.77879
2.77981
2.78158
2.78437
2.7878
2.79159
2.79574
2.8009
2.80827
2.81698
2.8237
2.82618
1
1
1
1
1
1
1
1
1
1
1
1
1
1
1
1
1
1
1
1
1
1
1
1
1
1
1
1
1
1
1
1
1
1
1
1
1
1
1
1
1
1
1
1
1
1
1
1
1
1
1.00809
2.24923
2.68231
2.68102
2.68343
2.68822
2.69442
2.70033
2.7048
2.70777
2.71001
2.7124
2.71557
2.71921
2.72259
2.72548
2.72778
2.73006
2.73295
2.73664
2.7408
2.74469
2.74769
2.74986
2.75158
2.75332
2.75543
2.7579
2.76047
2.76275
2.76474
2.76645
2.76779
2.76875
2.7695
2.77051
2.7721
2.77463
2.77784
2.78149
2.78544
2.79022
2.79719
2.80563
2.81226
2.81456
1
1
1
1
1
1
1
1
1
1
1
1
1
1
1
1
1
1
1
1
1
1
1
1
1
1
1
1
1
1
1
1
1
1
1
1
1
1
1
1
1
1
1
1
1
1
1
1
1
1
1.00001
1.93856
2.64586
2.66806
2.67244
2.67865
2.68596
2.69323
2.699
2.70272
2.705
2.70693
2.70935
2.71238
2.71545
2.71831
2.72073
2.72294
2.72535
2.72821
2.7314
2.73472
2.73777
2.74051
2.74296
2.74519
2.74724
2.74914
2.75078
2.75217
2.75349
2.75485
2.75604
2.75698
2.75769
2.75839
2.75949
2.76135
2.76392
2.76706
2.77066
2.77526
2.782
2.79031
2.79684
2.79905
1
1
1
1
1
1
1
1
1
1
1
1
1
1
1
1
1
1
1
1
1
1
1
1
1
1
1
1
1
1
1
1
1
1
1
1
1
1
1
1
1
1
1
1
1
1
1
1
1
1
1
1.43267
2.48886
2.65216
2.65723
2.66632
2.6743
2.68268
2.68984
2.69473
2.69748
2.69926
2.70118
2.70368
2.70647
2.70934
2.71205
2.71451
2.71683
2.71912
2.72133
2.72358
2.7259
2.72844
2.73126
2.7341
2.73658
2.73838
2.73932
2.7397
2.74005
2.74059
2.74135
2.74217
2.74275
2.74344
2.74436
2.74581
2.74785
2.75029
2.75293
2.75622
2.76103
2.76696
2.77081
2.77082
1
1
1
1
1
1
1
1
1
1
1
1
1
1
1
1
1
1
1
1
1
1
1
1
1
1
1
1
1
1
1
1
1
1
1
1
1
1
1
1
1
1
1
1
1
1
1
1
1
1
1
1.01572
2.16534
2.65421
2.65211
2.65384
2.65913
2.66671
2.67448
2.68078
2.68491
2.68754
2.68978
2.69233
2.69522
2.69837
2.70165
2.70483
2.70761
2.70981
2.71131
2.71236
2.71345
2.71504
2.71744
2.72036
2.72333
2.72539
2.72611
2.72587
2.72525
2.72456
2.7242
2.72415
2.72403
2.72383
2.72353
2.72318
2.7227
2.72198
2.72132
2.72129
2.72344
2.72788
2.73259
2.73382
1
1
1
1
1
1
1
1
1
1
1
1
1
1
1
1
1
1
1
1
1
1
1
1
1
1
1
1
1
1
1
1
1
1
1
1
1
1
1
1
1
1
1
1
1
1
1
1
1
1
1
1.00002
1.56348
2.50573
2.63337
2.63874
2.64558
2.65142
2.65752
2.66328
2.66791
2.67137
2.67434
2.67746
2.68089
2.68454
2.68845
2.69245
2.69584
2.69831
2.69974
2.69994
2.70006
2.70051
2.70175
2.70383
2.70668
2.70907
2.70993
2.7094
2.70791
2.70577
2.70355
2.70168
2.7
2.69832
2.69649
2.69438
2.69176
2.68858
2.68519
2.6829
2.68228
2.68729
2.69252
2.71126
1
1
1
1
1
1
1
1
1
1
1
1
1
1
1
1
1
1
1
1
1
1
1
1
1
1
1
1
1
1
1
1
1
1
1
1
1
1
1
1
1
1
1
1
1
1
1
1
1
1
1
1
1.03062
2.24254
2.64306
2.64237
2.64436
2.64629
2.64856
2.65134
2.65447
2.65757
2.66056
2.66375
2.66719
2.67093
2.67509
2.67936
2.68322
2.68627
2.68766
2.68771
2.68738
2.68696
2.68687
2.68763
2.68953
2.69181
2.69297
2.69248
2.69066
2.68751
2.68359
2.67964
2.67588
2.67209
2.66785
2.66265
2.65561
2.646
2.63246
2.61437
2.58821
2.5523
2.4945
2.37044
1
1
1
1
1
1
1
1
1
1
1
1
1
1
1
1
1
1
1
1
1
1
1
1
1
1
1
1
1
1
1
1
1
1
1
1
1
1
1
1
1
1
1
1
1
1
1
1
1
1
1
1
1.00004
1.79197
2.56236
2.63625
2.63771
2.6401
2.64156
2.64312
2.64516
2.64758
2.65013
2.65286
2.65578
2.65908
2.6629
2.66712
2.67102
2.67457
2.67658
2.67683
2.67644
2.67546
2.67432
2.67396
2.67454
2.67588
2.67693
2.67653
2.67468
2.67097
2.66575
2.65988
2.65385
2.64768
2.6407
2.63225
2.6208
2.60548
2.58355
2.55464
2.51268
2.45972
2.35223
2.18951
1
1
1
1
1
1
1
1
1
1
1
1
1
1
1
1
1
1
1
1
1
1
1
1
1
1
1
1
1
1
1
1
1
1
1
1
1
1
1
1
1
1
1
1
1
1
1
1
1
1
1
1
0.999999
1.13809
2.35174
2.63158
2.63044
2.63221
2.63431
2.63578
2.63743
2.63933
2.64131
2.64327
2.64527
2.64764
2.65055
2.65412
2.65754
2.66099
2.66339
2.66394
2.66356
2.6625
2.66086
2.65947
2.6588
2.65896
2.65922
2.65872
2.65678
2.65281
2.64676
2.63934
2.63103
2.62227
2.61236
2.60069
2.58551
2.5656
2.53881
2.50275
2.45529
2.38387
2.27936
2.15707
1
1
1
1
1
1
1
1
1
1
1
1
1
1
1
1
1
1
1
1
1
1
1
1
1
1
1
1
1
1
1
1
1
1
1
1
1
1
1
1
1
1
1
1
1
1
1
1
1
1
1
1
1
1.00136
1.95782
2.58028
2.61187
2.61741
2.62151
2.62442
2.62717
2.62975
2.63202
2.63371
2.63504
2.63653
2.63844
2.64094
2.64361
2.64646
2.64886
2.6497
2.64944
2.64851
2.64684
2.64483
2.64302
2.64178
2.64085
2.63963
2.63733
2.6333
2.62698
2.61868
2.60863
2.59748
2.58493
2.57045
2.55266
2.53
2.50091
2.46261
2.4132
2.34567
2.259
2.16494
1
1
1
1
1
1
1
1
1
1
1
1
1
1
1
1
1
1
1
1
1
1
1
1
1
1
1
1
1
1
1
1
1
1
1
1
1
1
1
1
1
1
1
1
1
1
1
1
1
1
1
1
1
1
1.25527
2.38386
2.60368
2.60312
2.60668
2.61099
2.6152
2.61896
2.62211
2.62417
2.62529
2.62609
2.62718
2.62862
2.63054
2.63263
2.63446
2.63495
2.63453
2.63345
2.6317
2.62951
2.62706
2.62469
2.62244
2.62012
2.61709
2.61281
2.60648
2.5979
2.58699
2.57414
2.55947
2.5427
2.52303
2.49906
2.47007
2.43225
2.38661
2.32981
2.2614
2.18606
1
1
1
1
1
1
1
1
1
1
1
1
1
1
1
1
1
1
1
1
1
1
1
1
1
1
1
1
1
1
1
1
1
1
1
1
1
1
1
1
1
1
1
1
1
1
1
1
1
1
1
1
1
1
1.00496
1.97478
2.56551
2.5858
2.59078
2.59631
2.60123
2.60583
2.61007
2.61282
2.61418
2.61473
2.61527
2.61599
2.61709
2.61831
2.61934
2.61927
2.61855
2.61723
2.61534
2.61311
2.61041
2.60735
2.60398
2.60043
2.59641
2.59159
2.58529
2.57696
2.56619
2.55287
2.53716
2.51902
2.49822
2.47375
2.4456
2.41029
2.37049
2.32353
2.26741
2.20762
1
1
1
1
1
1
1
1
1
1
1
1
1
1
1
1
1
1
1
1
1
1
1
1
1
1
1
1
1
1
1
1
1
1
1
1
1
1
1
1
1
1
1
1
1
1
1
1
1
1
1
1
1
1
1
1.18518
2.34813
2.58773
2.58439
2.58567
2.58842
2.59207
2.59597
2.5987
2.60034
2.60109
2.60158
2.6022
2.6031
2.60406
2.60477
2.60449
2.6034
2.60168
2.59929
2.59656
2.59344
2.58992
2.58584
2.58134
2.57635
2.57079
2.56421
2.55607
2.5458
2.53289
2.51725
2.49882
2.47785
2.45324
2.42627
2.39427
2.35956
2.31977
2.27337
2.22408
1
1
1
1
1
1
1
1
1
1
1
1
1
1
1
1
1
1
1
1
1
1
1
1
1
1
1
1
1
1
1
1
1
1
1
1
1
1
1
1
1
1
1
1
1
1
1
1
1
1
1
1
1
1
1
1.00232
1.85947
2.52279
2.56481
2.57
2.57305
2.57598
2.57896
2.58108
2.5827
2.58386
2.58477
2.5858
2.58696
2.58791
2.58846
2.58812
2.58699
2.58513
2.58244
2.57931
2.57577
2.5719
2.56747
2.56246
2.55679
2.55053
2.54343
2.53522
2.52546
2.51345
2.49889
2.48133
2.4612
2.43734
2.41195
2.38257
2.35191
2.31713
2.27869
2.23649
1
1
1
1
1
1
1
1
1
1
1
1
1
1
1
1
1
1
1
1
1
1
1
1
1
1
1
1
1
1
1
1
1
1
1
1
1
1
1
1
1
1
1
1
1
1
1
1
1
1
1
1
1
1
1
1
1.10062
2.24266
2.56522
2.56252
2.56314
2.56413
2.56531
2.566
2.56665
2.56747
2.56845
2.56966
2.57092
2.57191
2.57245
2.57226
2.57143
2.56974
2.56705
2.56365
2.55963
2.55524
2.55035
2.54484
2.53865
2.5318
2.52416
2.51563
2.50591
2.49449
2.4812
2.46479
2.44612
2.42431
2.40077
2.374
2.34672
2.31543
2.28299
2.24622
1
1
1
1
1
1
1
1
1
1
1
1
1
1
1
1
1
1
1
1
1
1
1
1
1
1
1
1
1
1
1
1
1
1
1
1
1
1
1
1
1
1
1
1
1
1
1
1
1
1
1
1
1
1
1
1
1.00066
1.57399
2.42657
2.54489
2.54641
2.54882
2.55014
2.55047
2.55062
2.55108
2.55192
2.55307
2.55415
2.55493
2.55524
2.55516
2.55462
2.55328
2.55099
2.54779
2.54377
2.53913
2.53383
2.52788
2.52133
2.51412
2.50624
2.49755
2.48771
2.47651
2.46406
2.44879
2.43171
2.41236
2.39088
2.3672
2.34248
2.31426
2.2861
2.25401
1
1
1
1
1
1
1
1
1
1
1
1
1
1
1
1
1
1
1
1
1
1
1
1
1
1
1
1
1
1
1
1
1
1
1
1
1
1
1
1
1
1
1
1
1
1
1
1
1
1
1
1
1
1
1
1
1
1.03362
2.02509
2.52456
2.53803
2.53966
2.54023
2.53964
2.53891
2.53852
2.53851
2.53867
2.53876
2.53872
2.5384
2.53796
2.53732
2.53636
2.53476
2.53226
2.52885
2.52443
2.51907
2.51282
2.50585
2.49824
2.49012
2.48132
2.47153
2.46025
2.44814
2.43392
2.4179
2.40073
2.38124
2.36057
2.33791
2.31309
2.28782
2.25964
1
1
1
1
1
1
1
1
1
1
1
1
1
1
1
1
1
1
1
1
1
1
1
1
1
1
1
1
1
1
1
1
1
1
1
1
1
1
1
1
1
1
1
1
1
1
1
1
1
1
1
1
1
1
1
1
1
1.00009
1.17836
2.2524
2.52179
2.52791
2.52904
2.52801
2.52762
2.52721
2.52676
2.52608
2.52518
2.5241
2.52271
2.52144
2.52025
2.51929
2.51822
2.5165
2.5139
2.51015
2.50513
2.49894
2.49175
2.4838
2.47538
2.46644
2.45683
2.44552
2.43382
2.42035
2.40528
2.38955
2.37169
2.35322
2.33235
2.31085
2.28745
2.26285
1
1
1
1
1
1
1
1
1
1
1
1
1
1
1
1
1
1
1
1
1
1
1
1
1
1
1
1
1
1
1
1
1
1
1
1
1
1
1
1
1
1
1
1
1
1
1
1
1
1
1
1
1
1
1
1
1
1
1.00212
1.56531
2.38562
2.50716
2.50539
2.50832
2.51089
2.51252
2.51289
2.51241
2.51137
2.50978
2.50771
2.50563
2.50372
2.5024
2.50142
2.50023
2.4984
2.49554
2.49134
2.48584
2.47876
2.47105
2.46234
2.45303
2.44331
2.43221
2.421
2.40819
2.3942
2.37937
2.36299
2.34571
2.3266
2.30732
2.28589
2.26421
1
1
1
1
1
1
1
1
1
1
1
1
1
1
1
1
1
1
1
1
1
1
1
1
1
1
1
1
1
1
1
1
1
1
1
1
1
1
1
1
1
1
1
1
1
1
1
1
1
1
1
1
1
1
1
1
1
1
1
1.0318
1.93319
2.46186
2.49126
2.49455
2.4976
2.49973
2.50072
2.50031
2.49915
2.4973
2.49479
2.49205
2.48932
2.48719
2.4856
2.48428
2.48269
2.48039
2.47704
2.47231
2.46614
2.45864
2.45006
2.44074
2.43097
2.4202
2.40934
2.39708
2.38403
2.37
2.35488
2.33861
2.32122
2.30311
2.2836
2.26388
1
1
1
1
1
1
1
1
1
1
1
1
1
1
1
1
1
1
1
1
1
1
1
1
1
1
1
1
1
1
1
1
1
1
1
1
1
1
1
1
1
1
1
1
1
1
1
1
1
1
1
1
1
1
1
1
1
1
1
1.00009
1.13666
2.08938
2.45631
2.4835
2.48722
2.49003
2.49116
2.49076
2.48952
2.48734
2.48446
2.48109
2.47754
2.47431
2.47151
2.46922
2.46711
2.4647
2.46169
2.45772
2.45252
2.44594
2.43796
2.42915
2.4197
2.40936
2.39863
2.38682
2.3745
2.36134
2.34736
2.33228
2.3165
2.29934
2.2815
2.26314
1
1
1
1
1
1
1
1
1
1
1
1
1
1
1
1
1
1
1
1
1
1
1
1
1
1
1
1
1
1
1
1
1
1
1
1
1
1
1
1
1
1
1
1
1
1
1
1
1
1
1
1
1
1
1
1
1
1
1
1
1.00125
1.24954
2.19086
2.44508
2.47179
2.47646
2.47877
2.47966
2.47895
2.47702
2.47408
2.47044
2.46626
2.46211
2.4582
2.45477
2.45169
2.4487
2.44552
2.44184
2.43733
2.43174
2.42484
2.41704
2.40843
2.39884
2.38841
2.37716
2.36544
2.35322
2.34021
2.32622
2.31176
2.29564
2.27921
2.262
1
1
1
1
1
1
1
1
1
1
1
1
1
1
1
1
1
1
1
1
1
1
1
1
1
1
1
1
1
1
1
1
1
1
1
1
1
1
1
1
1
1
1
1
1
1
1
1
1
1
1
1
1
1
1
1
1
1
1
1
1
1.00441
1.38171
2.26036
2.43705
2.44995
2.45875
2.46193
2.46316
2.46277
2.46122
2.45852
2.45482
2.45043
2.44595
2.44151
2.43737
2.43352
2.42973
2.42583
2.42153
2.41654
2.41057
2.40381
2.3963
2.38771
2.37796
2.36757
2.35664
2.34543
2.3333
2.32029
2.30702
2.29205
2.27685
2.2607
1
1
1
1
1
1
1
1
1
1
1
1
1
1
1
1
1
1
1
1
1
1
1
1
1
1
1
1
1
1
1
1
1
1
1
1
1
1
1
1
1
1
1
1
1
1
1
1
1
1
1
1
1
1
1
1
1
1
1
1
1
1.00001
1.01166
1.63889
2.33344
2.4279
2.43044
2.43566
2.43902
2.44144
2.44223
2.44161
2.4398
2.43677
2.43283
2.42843
2.42385
2.41936
2.41495
2.41055
2.406
2.40108
2.39558
2.38951
2.38292
2.37534
2.36654
2.35724
2.34732
2.33709
2.32612
2.31423
2.302
2.28829
2.27423
2.2591
1
1
1
1
1
1
1
1
1
1
1
1
1
1
1
1
1
1
1
1
1
1
1
1
1
1
1
1
1
1
1
1
1
1
1
1
1
1
1
1
1
1
1
1
1
1
1
1
1
1
1
1
1
1
1
1
1
1
1
1
1
1
1.00002
1.04534
1.83422
2.37922
2.41841
2.41443
2.4155
2.41731
2.41916
2.42027
2.42008
2.41902
2.41689
2.41384
2.4101
2.40594
2.40152
2.39689
2.39202
2.38685
2.38134
2.37541
2.36911
2.3621
2.35404
2.3457
2.33687
2.32775
2.31816
2.30759
2.29646
2.28421
2.27139
2.25738
1
1
1
1
1
1
1
1
1
1
1
1
1
1
1
1
1
1
1
1
1
1
1
1
1
1
1
1
1
1
1
1
1
1
1
1
1
1
1
1
1
1
1
1
1
1
1
1
1
1
1
1
1
1
1
1
1
1
1
1
1
1
1
1.00019
1.10314
1.93953
2.38891
2.40581
2.40117
2.39957
2.39878
2.39909
2.39923
2.39884
2.39783
2.39617
2.39389
2.39101
2.38756
2.38352
2.3789
2.37376
2.3682
2.36221
2.35581
2.34882
2.34117
2.33357
2.32571
2.31759
2.3093
2.30017
2.2902
2.27944
2.26797
2.25525
1
1
1
1
1
1
1
1
1
1
1
1
1
1
1
1
1
1
1
1
1
1
1
1
1
1
1
1
1
1
1
1
1
1
1
1
1
1
1
1
1
1
1
1
1
1
1
1
1
1
1
1
1
1
1
1
1
1
1
1
1
1
1
1
1.00078
1.15707
1.99265
2.37449
2.39307
2.38871
2.38596
2.38379
2.38204
2.3806
2.37931
2.37794
2.37628
2.37422
2.37158
2.36839
2.36463
2.36018
2.35506
2.34932
2.34294
2.33601
2.32876
2.32158
2.3144
2.30706
2.29975
2.29184
2.2829
2.27333
2.26319
2.25193
1
1
1
1
1
1
1
1
1
1
1
1
1
1
1
1
1
1
1
1
1
1
1
1
1
1
1
1
1
1
1
1
1
1
1
1
1
1
1
1
1
1
1
1
1
1
1
1
1
1
1
1
1
1
1
1
1
1
1
1
1
1
1
1
1
1.00173
1.19898
2.01574
2.35463
2.37969
2.37618
2.37343
2.37019
2.3672
2.36436
2.36185
2.3596
2.35734
2.35507
2.35254
2.34954
2.34591
2.34152
2.33636
2.3305
2.32416
2.31743
2.31056
2.30379
2.29692
2.29008
2.28289
2.27477
2.26603
2.25694
2.24705
1
1
1
1
1
1
1
1
1
1
1
1
1
1
1
1
1
1
1
1
1
1
1
1
1
1
1
1
1
1
1
1
1
1
1
1
1
1
1
1
1
1
1
1
1
1
1
1
1
1
1
1
1
1
1
1
1
1
1
1
1
1
1
1
1
1
1.00278
1.22839
2.01471
2.33295
2.36632
2.36274
2.36014
2.35669
2.35312
2.34948
2.34607
2.34299
2.34017
2.33724
2.33417
2.33076
2.32683
2.32233
2.31723
2.31166
2.30569
2.29948
2.29328
2.28693
2.28037
2.27355
2.26605
2.25786
2.24943
2.24056
1
1
1
1
1
1
1
1
1
1
1
1
1
1
1
1
1
1
1
1
1
1
1
1
1
1
1
1
1
1
1
1
1
1
1
1
1
1
1
1
1
1
1
1
1
1
1
1
1
1
1
1
1
1
1
1
1
1
1
1
1
1
1
1
1
1
1
1.00373
1.24043
1.99599
2.30981
2.35084
2.34732
2.34474
2.34167
2.33837
2.33468
2.33082
2.32706
2.32351
2.31993
2.3162
2.31223
2.30798
2.30339
2.29849
2.29334
2.28792
2.28237
2.27656
2.27028
2.2637
2.25666
2.24894
2.241
2.23271
1
1
1
1
1
1
1
1
1
1
1
1
1
1
1
1
1
1
1
1
1
1
1
1
1
1
1
1
1
1
1
1
1
1
1
1
1
1
1
1
1
1
1
1
1
1
1
1
1
1
1
1
1
1
1
1
1
1
1
1
1
1
1
1
1
1
1
1.00001
1.00421
1.23594
1.95972
2.28501
2.33362
2.32905
2.32779
2.32557
2.32266
2.31938
2.31572
2.3118
2.30775
2.3036
2.2993
2.29485
2.29027
2.28556
2.28076
2.27583
2.27075
2.2654
2.25957
2.25331
2.24668
2.2395
2.23183
2.22394
1
1
1
1
1
1
1
1
1
1
1
1
1
1
1
1
1
1
1
1
1
1
1
1
1
1
1
1
1
1
1
1
1
1
1
1
1
1
1
1
1
1
1
1
1
1
1
1
1
1
1
1
1
1
1
1
1
1
1
1
1
1
1
1
1
1
1
1
1.00001
1.00412
1.21598
1.90472
2.25852
2.31395
2.30949
2.30956
2.30892
2.30732
2.30482
2.30159
2.29779
2.29344
2.28871
2.28378
2.2788
2.27385
2.26895
2.26407
2.25911
2.25399
2.24843
2.24242
2.23616
2.22933
2.22218
2.21476
1
1
1
1
1
1
1
1
1
1
1
1
1
1
1
1
1
1
1
1
1
1
1
1
1
1
1
1
1
1
1
1
1
1
1
1
1
1
1
1
1
1
1
1
1
1
1
1
1
1
1
1
1
1
1
1
1
1
1
1
1
1
1
1
1
1
1
1
1
1.00001
1.00352
1.1826
1.82662
2.22951
2.29376
2.29121
2.29226
2.29197
2.29089
2.28898
2.28602
2.28219
2.27772
2.27285
2.26782
2.26276
2.25776
2.25279
2.24778
2.24262
2.23715
2.23135
2.22523
2.21888
2.21217
2.20493
1
1
1
1
1
1
1
1
1
1
1
1
1
1
1
1
1
1
1
1
1
1
1
1
1
1
1
1
1
1
1
1
1
1
1
1
1
1
1
1
1
1
1
1
1
1
1
1
1
1
1
1
1
1
1
1
1
1
1
1
1
1
1
1
1
1
1
1
1
1
1.00001
1.0026
1.13827
1.73459
2.19948
2.27487
2.27425
2.27362
2.27336
2.27218
2.27032
2.26766
2.26427
2.26032
2.25604
2.25156
2.24689
2.24209
2.2371
2.23196
2.22667
2.22094
2.21491
2.20864
2.20197
2.19529
1
1
1
1
1
1
1
1
1
1
1
1
1
1
1
1
1
1
1
1
1
1
1
1
1
1
1
1
1
1
1
1
1
1
1
1
1
1
1
1
1
1
1
1
1
1
1
1
1
1
1
1
1
1
1
1
1
1
1
1
1
1
1
1
1
1
1
1
1
1
1
1
1.0016
1.09441
1.65551
2.1682
2.25597
2.25807
2.25566
2.25455
2.25248
2.25037
2.24799
2.24531
2.24228
2.23887
2.23506
2.23093
2.22652
2.22177
2.21664
2.21113
2.20522
2.19899
2.19275
2.18631
1
1
1
1
1
1
1
1
1
1
1
1
1
1
1
1
1
1
1
1
1
1
1
1
1
1
1
1
1
1
1
1
1
1
1
1
1
1
1
1
1
1
1
1
1
1
1
1
1
1
1
1
1
1
1
1
1
1
1
1
1
1
1
1
1
1
1
1
1
1
1
1
1
1.00083
1.06402
1.57162
2.12719
2.23415
2.24369
2.23878
2.23659
2.23378
2.23147
2.22933
2.2271
2.22463
2.2218
2.21857
2.21496
2.21075
2.20615
2.20123
2.19575
2.19007
2.18406
2.17765
1
1
1
1
1
1
1
1
1
1
1
1
1
1
1
1
1
1
1
1
1
1
1
1
1
1
1
1
1
1
1
1
1
1
1
1
1
1
1
1
1
1
1
1
1
1
1
1
1
1
1
1
1
1
1
1
1
1
1
1
1
1
1
1
1
1
1
1
1
1
1
1
1
1
1.00043
1.0407
1.4812
2.05938
2.21076
2.23019
2.22396
2.22111
2.21843
2.21592
2.21352
2.21119
2.20869
2.20583
2.20267
2.19914
2.19516
2.19085
2.18612
2.18087
2.17546
2.16978
1
1
1
1
1
1
1
1
1
1
1
1
1
1
1
1
1
1
1
1
1
1
1
1
1
1
1
1
1
1
1
1
1
1
1
1
1
1
1
1
1
1
1
1
1
1
1
1
1
1
1
1
1
1
1
1
1
1
1
1
1
1
1
1
1
1
1
1
1
1
1
1
1
1
1
1.00021
1.02412
1.37658
1.95109
2.18392
2.21537
2.21129
2.20856
2.20578
2.20308
2.20018
2.19722
2.19417
2.19103
2.18768
2.18401
2.18016
2.17601
2.17149
2.16684
2.16172
1
1
1
1
1
1
1
1
1
1
1
1
1
1
1
1
1
1
1
1
1
1
1
1
1
1
1
1
1
1
1
1
1
1
1
1
1
1
1
1
1
1
1
1
1
1
1
1
1
1
1
1
1
1
1
1
1
1
1
1
1
1
1
1
1
1
1
1
1
1
1
1
1
1
1
1
1.00009
1.01271
1.25789
1.81202
2.14134
2.19859
2.19725
2.19482
2.19224
2.18952
2.18659
2.1835
2.18024
2.17691
2.17345
2.16975
2.16606
2.162
2.15763
2.15329
1
1
1
1
1
1
1
1
1
1
1
1
1
1
1
1
1
1
1
1
1
1
1
1
1
1
1
1
1
1
1
1
1
1
1
1
1
1
1
1
1
1
1
1
1
1
1
1
1
1
1
1
1
1
1
1
1
1
1
1
1
1
1
1
1
1
1
1
1
1
1
1
1
1
1
1
1
1.00004
1.00557
1.15019
1.65416
2.08845
2.16764
2.18643
2.17939
2.17734
2.17507
2.17236
2.16931
2.16611
2.16279
2.15935
2.15575
2.15206
2.14831
2.14428
1
1
1
1
1
1
1
1
1
1
1
1
1
1
1
1
1
1
1
1
1
1
1
1
1
1
1
1
1
1
1
1
1
1
1
1
1
1
1
1
1
1
1
1
1
1
1
1
1
1
1
1
1
1
1
1
1
1
1
1
1
1
1
1
1
1
1
1
1
1
1
1
1
1
1
1
1
1
1.00001
1.00201
1.07335
1.50543
1.98965
2.14259
2.1702
2.16613
2.16291
2.16006
2.15721
2.15402
2.15093
2.14788
2.14485
2.14173
2.13819
2.13459
1
1
1
1
1
1
1
1
1
1
1
1
1
1
1
1
1
1
1
1
1
1
1
1
1
1
1
1
1
1
1
1
1
1
1
1
1
1
1
1
1
1
1
1
1
1
1
1
1
1
1
1
1
1
1
1
1
1
1
1
1
1
1
1
1
1
1
1
1
1
1
1
1
1
1
1
1
1
1
1
1.00059
1.03158
1.35003
1.85668
2.10689
2.15225
2.15128
2.14651
2.14387
2.14171
2.13893
2.13589
2.13309
2.1301
2.12749
2.12476
1
1
1
1
1
1
1
1
1
1
1
1
1
1
1
1
1
1
1
1
1
1
1
1
1
1
1
1
1
1
1
1
1
1
1
1
1
1
1
1
1
1
1
1
1
1
1
1
1
1
1
1
1
1
1
1
1
1
1
1
1
1
1
1
1
1
1
1
1
1
1
1
1
1
1
1
1
1
1
1
1
1.00015
1.01184
1.20527
1.68557
2.04515
2.12485
2.13945
2.1349
2.13141
2.1277
2.12417
2.12037
2.11755
2.11575
2.11361
1
1
1
1
1
1
1
1
1
1
1
1
1
1
1
1
1
1
1
1
1
1
1
1
1
1
1
1
1
1
1
1
1
1
1
1
1
1
1
1
1
1
1
1
1
1
1
1
1
1
1
1
1
1
1
1
1
1
1
1
1
1
1
1
1
1
1
1
1
1
1
1
1
1
1
1
1
1
1
1
1
1
1.00003
1.00379
1.09462
1.50285
1.94588
2.08967
2.12399
2.12206
2.11845
2.11509
2.11053
2.10551
2.10094
2.10006
1
1
1
1
1
1
1
1
1
1
1
1
1
1
1
1
1
1
1
1
1
1
1
1
1
1
1
1
1
1
1
1
1
1
1
1
1
1
1
1
1
1
1
1
1
1
1
1
1
1
1
1
1
1
1
1
1
1
1
1
1
1
1
1
1
1
1
1
1
1
1
1
1
1
1
1
1
1
1
1
1
1
1
1.00001
1.00095
1.03475
1.33055
1.79519
2.04189
2.10325
2.11203
2.10664
2.10184
2.09654
2.08855
2.08592
1
1
1
1
1
1
1
1
1
1
1
1
1
1
1
1
1
1
1
1
1
1
1
1
1
1
1
1
1
1
1
1
1
1
1
1
1
1
1
1
1
1
1
1
1
1
1
1
1
1
1
1
1
1
1
1
1
1
1
1
1
1
1
1
1
1
1
1
1
1
1
1
1
1
1
1
1
1
1
1
1
1
1
1
1
1.00019
1.01097
1.17358
1.60267
1.96258
2.07047
2.09731
2.09576
2.09194
2.08714
2.07783
1
1
1
1
1
1
1
1
1
1
1
1
1
1
1
1
1
1
1
1
1
1
1
1
1
1
1
1
1
1
1
1
1
1
1
1
1
1
1
1
1
1
1
1
1
1
1
1
1
1
1
1
1
1
1
1
1
1
1
1
1
1
1
1
1
1
1
1
1
1
1
1
1
1
1
1
1
1
1
1
1
1
1
1
1
1
1.00003
1.00283
1.06778
1.39934
1.84118
2.02154
2.07279
2.0861
2.08124
2.07544
1
1
1
1
1
1
1
1
1
1
1
1
1
1
1
1
1
1
1
1
1
1
1
1
1
1
1
1
1
1
1
1
1
1
1
1
1
1
1
1
1
1
1
1
1
1
1
1
1
1
1
1
1
1
1
1
1
1
1
1
1
1
1
1
1
1
1
1
1
1
1
1
1
1
1
1
1
1
1
1
1
1
1
1
1
1
1
1
1.00058
1.0193
1.22993
1.65147
1.95512
2.04152
2.06993
2.06997
1
1
1
1
1
1
1
1
1
1
1
1
1
1
1
1
1
1
1
1
1
1
1
1
1
1
1
1
1
1
1
1
1
1
1
1
1
1
1
1
1
1
1
1
1
1
1
1
1
1
1
1
1
1
1
1
1
1
1
1
1
1
1
1
1
1
1
1
1
1
1
1
1
1
1
1
1
1
1
1
1
1
1
1
1
1
1
1
1
1.00008
1.00507
1.09502
1.43128
1.83779
1.99582
2.05035
1
1
1
1
1
1
1
1
1
1
1
1
1
1
1
1
1
1
1
1
1
1
1
1
1
1
1
1
1
1
1
1
1
1
1
1
1
1
1
1
1
1
1
1
1
1
1
1
1
1
1
1
1
1
1
1
1
1
1
1
1
1
1
1
1
1
1
1
1
1
1
1
1
1
1
1
1
1
1
1
1
1
1
1
1
1
1
1
1
1
1.00001
1.00106
1.02518
1.24715
1.63177
1.9439
1
1
1
1
1
1
1
1
1
1
1
1
1
1
1
1
1
1
1
1
1
1
1
1
1
1
1
1
1
1
1
1
1
1
1
1
1
1
1
1
1
1
1
1
1
1
1
1
1
1
1
1
1
1
1
1
1
1
1
1
1
1
1
1
1
1
1
1
1
1
1
1
1
1
1
1
1
1
1
1
1
1
1
1
1
1
1
1
1
1
1
1
1.00012
1.00632
1.09274
1.44403
1
1
1
1
1
1
1
1
1
1
1
1
1
1
1
1
1
1
1
1
1
1
1
1
1
1
1
1
1
1
1
1
1
1
1
1
1
1
1
1
1
1
1
1
1
1
1
1
1
1
1
1
1
1
1
1
1
1
1
1
1
1
1
1
1
1
1
1
1
1
1
1
1
1
1
1
1
1
1
1
1
1
1
1
1
1
1
1
1
1
1
1
1
1.00001
1.00107
1.02676
1
1
1
1
1
1
1
1
1
1
1
1
1
1
1
1
1
1
1
1
1
1
1
1
1
1
1
1
1
1
1
1
1
1
1
1
1
1
1
1
1
1
1
1
1
1
1
1
1
1
1
1
1
1
1
1
1
1
1
1
1
1
1
1
1
1
1
1
1
1
1
1
1
1
1
1
1
1
1
1
1
1
1
1
1
1
1
1
1
1
1
1
1
1
1
1.00012
1
1
1
1
1
1
1
1
1
1
1
1
1
1
1
1
1
1
1
1
1
1
1
1
1
1
1
1
1
1
1
1
1
1
1
1
1
1
1
1
1
1
1
1
1
1
1
1
1
1
1
1
1
1
1
1
1
1
1
1
1
1
1
1
1
1
1
1
1
1
1
1
1
1
1
1
1
1
1
1
1
1
1
1
1
1
1
1
1
1
1
1
1
1
1
1
1
1
1
1
1
1
1
1
1
1
1
1
1
1
1
1
1
1
1
1
1
1
1
1
1
1
1
1
1
1
1
1
1
1
1
1
1
1
1
1
1
1
1
1
1
1
1
1
1
1
1
1
1
1
1
1
1
1
1
1
1
1
1
1
1
1
1
1
1
1
1
1
1
1
1
1
1
1
1
1
1
1
1
1
1
1
1
1
1
1
1
1
1
1
1
1
1
1
1
1
1
1
1
1
1
1
1
1
1
1
1
1
1
1
1
1
1
1
1
1
1
1
1
1
1
1
1
1
1
1
1
1
1
1
1
1
1
1
1
1
1
1
1
1
1
1
1
1
1
1
1
1
1
1
1
1
1
1
1
1
1
1
1
1
1
1
1
1
1
1
1
1
1
1
1
1
1
1
1
1
1
1
1
1
1
1
1
1
1
1
1
1
1
1
1
1
1
1
1
1
1
1
1
1
1
1
1
1
1
1
1
1
1
1
1
1
1
1
1
1
1
1
1
1
1
1
1
1
1
1
1
1
1
1
1
1
1
1
1
1
1
1
1
1
1
1
1
1
1
1
1
1
1
1
1
1
1
1
1
1
1
1
1
1
1
1
1
1
1
1
1
1
1
1
1
1
1
1
1
1
1
1
1
1
1
1
1
1
1
1
1
1
1
1
1
1
1
1
1
1
1
1
1
1
1
1
1
1
1
1
1
1
1
1
1
1
1
1
1
1
1
1
1
1
1
1
1
1
1
1
1
1
1
1
1
1
1
1
1
1
1
1
1
1
1
1
1
1
1
1
1
1
1
1
1
1
1
1
1
1
1
1
1
1
1
1
1
1
1
1
1
1
1
1
1
1
1
1
1
1
1
1
1
1
1
1
1
1
1
1
1
1
1
1
1
1
1
1
1
1
1
1
1
1
1
1
1
1
1
1
1
1
1
1
1
1
1
1
1
1
1
1
1
1
1
1
1
1
1
1
1
1
1
1
1
1
1
1
1
1
1
1
1
1
1
1
1
1
1
1
1
1
1
1
1
1
1
1
1
1
1
1
1
1
1
1
1
1
1
1
1
1
1
1
1
1
1
1
1
1
1
1
1
1
1
1
1
1
1
1
1
1
1
1
1
1
1
1
1
1
1
1
1
1
1
1
1
1
1
1
1
1
1
1
1
1
1
1
1
1
1
1
1
1
1
1
1
1
1
1
1
1
1
1
1
1
1
1
1
1
1
1
1
1
1
1
1
1
1
1
1
1
1
1
1
1
1
1
1
1
1
1
1
1
1
1
1
1
1
1
1
1
1
1
1
1
1
1
1
1
1
1
1
1
1
1
1
1
1
1
1
1
1
1
1
1
1
1
1
1
1
1
1
1
1
1
1
1
1
1
1
1
1
1
1
1
1
1
1
1
1
1
1
1
1
1
1
1
1
1
1
1
1
1
1
1
1
1
1
1
1
1
1
1
1
1
1
1
1
1
1
1
1
1
1
1
1
1
1
1
1
1
1
1
1
1
1
1
1
1
1
1
1
1
1
1
1
1
1
1
1
1
1
1
1
1
1
1
1
1
1
1
1
1
1
1
1
1
1
1
1
1
1
1
1
1
1
1
1
1
1
1
1
1
1
1
1
1
1
1
1
1
1
1
1
1
1
1
1
1
1
1
1
1
1
1
1
1
1
1
1
1
1
1
1
1
1
1
1
1
1
1
1
1
1
1
1
1
1
1
1
1
1
1
1
1
1
1
1
1
1
1
1
1
1
1
1
1
1
1
1
1
1
1
1
1
1
1
1
1
1
1
1
1
1
1
1
1
1
1
1
1
1
1
1
1
1
1
1
1
1
1
1
1
1
1
1
1
1
1
1
1
1
1
1
1
1
1
1
1
1
1
1
1
1
1
1
1
1
1
1
1
1
1
1
1
1
1
1
1
1
1
1
1
1
1
1
1
1
1
1
1
1
1
1
1
1
1
1
1
1
1
1
1
1
1
1
1
1
1
1
1
1
1
1
1
1
1
1
1
1
1
1
1
1
1
1
1
1
1
1
1
1
1
1
1
1
1
1
1
1
1
1
1
1
1
1
1
1
1
1
1
1
1
1
1
1
1
1
1
1
1
1
1
1
1
1
1
1
1
1
1
1
1
1
1
1
1
1
1
1
1
1
1
1
1
1
1
1
1
1
1
1
1
1
1
1
1
1
1
1
1
1
1
1
1
1
1
1
1
1
1
1
1
1
1
1
1
1
1
1
1
1
1
1
1
1
1
1
1
1
1
1
1
1
1
1
1
1
1
1
1
1
1
1
1
1
1
1
1
1
1
1
1
1
1
1
1
1
1
1
1
1
1
1
1
1
1
1
1
1
1
1
1
1
1
1
1
1
1
1
1
1
1
1
1
1
1
1
1
1
1
1
1
1
1
1
1
1
1
1
1
1
1
1
1
1
1
1
1
1
1
1
1
1
1
1
1
1
1
1
1
1
1
1
1
1
1
1
1
1
1
1
1
1
1
1
1
1
1
1
1
1
1
1
1
1
1
1
1
1
1
1
1
1
1
1
1
1
1
1
1
1
1
1
1
1
1
1
1
1
1
1
1
1
1
1
1
1
1
1
1
1
1
1
1
1
1
1
1
1
1
1
1
1
1
1
1
1
1
1
1
1
1
1
1
1
1
1
1
1
1
1
1
1
1
1
1
1
1
1
1
1
1
1
1
1
1
1
1
1
1
1
1
1
1
1
1
1
1
1
1
1
1
1
1
1
1
1
1
1
1
1
1
1
1
1
1
1
1
1
1
1
1
1
1
1
1
1
1
1
1
1
1
1
1
1
1
1
1
1
1
1
1
1
1
1
1
1
1
1
1
1
1
1
1
1
1
1
1
1
1
1
1
1
1
1
1
1
1
1
1
1
1
1
1
1
1
1
1
1
1
1
1
1
1
1
1
1
1
1
1
1
1
1
1
1
1
1
1
1
1
1
1
1
1
1
1
1
1
1
1
1
1
1
1
1
1
1
1
1
1
1
1
1
1
1
1
1
1
1
1
1
1
1
1
1
1
1
1
1
1
1
1
1
1
1
1
1
1
1
1
1
1
1
1
1
1
1
1
1
1
1
1
1
1
1
1
1
1
1
1
1
1
1
1
1
1
1
1
1
1
1
1
1
1
1
1
1
1
1
1
1
1
1
1
1
1
1
1
1
1
1
1
1
1
1
1
1
1
1
1
1
1
1
1
1
1
1
1
1
1
1
1
1
1
1
1
1
1
1
1
1
1
1
1
1
1
1
1
1
1
1
1
1
1
1
1
1
1
1
1
1
1
1
1
1
1
1
1
1
1
1
1
1
1
1
1
1
1
1
1
1
1
1
1
1
1
1
1
1
1
1
1
1
1
1
1
1
1
1
1
1
1
1
1
1
1
1
1
1
1
1
1
1
1
1
1
1
1
1
1
1
1
1
1
1
1
1
1
1
1
1
1
1
1
1.53111
0.846812
0.495102
0.699863
0.886046
1.00995
1.08638
1.19666
1.26742
1.26457
1.25889
1.28202
1.35976
1.50223
1.6067
1.61799
1.59994
1.58937
1.58876
1.6043
1.63176
1.65187
1.64649
1.61384
1.59535
1.59908
1.61126
1.62852
1.64915
1.65778
1.65614
1.64836
1.64105
1.64073
1.6447
1.65324
1.66076
1.66571
1.66671
1.66593
1.66532
1.66511
1.66589
1.66741
1.66919
1.67296
1.678
1.68096
1.68347
1.68639
1.68851
1.68883
1.68848
1.68708
1.68551
1.6853
1.68482
1.68219
1.67742
1.67218
1.66789
1.66571
1.66549
1.66604
1.66566
1.66379
1.66102
1.65736
1.6532
1.65007
1.64931
1.65
1.65157
1.65176
1.65209
1.65215
1.65158
1.65032
1.65062
1.65743
1.73735
1.97677
2.31201
2.6676
2.76159
2.72417
2.66589
2.64474
2.6303
2.61329
2.59271
2.5748
2.56012
2.54785
2.53875
2.53086
2.52037
2.50968
2.49889
2.48849
2.47974
2.47204
2.46545
2.45861
2.4503
2.4413
2.43203
2.42353
2.41598
2.40866
2.40122
2.39351
2.38543
2.377
2.36832
2.3598
2.35235
2.34585
2.33947
2.3329
2.32596
2.31841
2.31006
2.30084
2.29114
2.28227
2.27549
2.27095
2.26744
2.2642
2.26079
2.25668
2.2513
2.2437
2.23389
2.22417
2.21716
2.21235
2.20845
2.20498
2.20087
2.19562
2.18815
2.17858
2.16979
2.16328
2.15823
2.15407
2.15055
2.14739
2.14429
2.14023
2.13353
2.12371
2.11422
2.1083
2.10381
2.09943
2.09558
2.09221
2.08884
2.0857
2.0819
2.07603
2.06828
2.0611
2.05635
2.05322
2.05043
2.04733
2.0435
2.0384
2.03124
2.0218
2.01281
2.00636
2.00143
1.99726
1.99374
1.99074
1.98817
1.98577
1.98317
1.97952
1.97381
1.96676
1.96103
1.9575
1.95464
1.95179
1.94905
1.94231
1.75388
1.39104
1.16047
1.03871
0.979936
1.00416
1.03184
1.04335
1.04018
1.03818
1.05313
1.07902
1.13871
1.21563
1.28192
1.32866
1.35674
1.38737
1.41241
1.43837
1.47787
1.5174
1.53633
1.53187
1.53164
1.54044
1.55949
1.57973
1.59863
1.60552
1.6038
1.60127
1.60168
1.6039
1.6107
1.62077
1.62964
1.63611
1.63883
1.63995
1.64064
1.641
1.64258
1.64472
1.6469
1.65067
1.65544
1.65819
1.66031
1.66224
1.66294
1.66317
1.66325
1.66372
1.6653
1.66798
1.66871
1.66774
1.66441
1.65945
1.65417
1.65052
1.64913
1.64897
1.64863
1.6478
1.64645
1.6443
1.64145
1.6393
1.63888
1.63937
1.64006
1.64021
1.64066
1.64046