/*--------------------------------*- C++ -*----------------------------------*\
  =========                 |
  \\      /  F ield         | OpenFOAM: The Open Source CFD Toolbox
   \\    /   O peration     | Website:  https://openfoam.org
    \\  /    A nd           | Version:  7
     \\/     M anipulation  |
\*---------------------------------------------------------------------------*/
FoamFile
{
    version     2.0;
    format      ascii;
    class       volScalarField;
    location    "0.005";
    object      mag(U);
}
// * * * * * * * * * * * * * * * * * * * * * * * * * * * * * * * * * * * * * //

dimensions      [0 1 -1 0 0 0 0];

internalField   nonuniform List<scalar> 
1000
(
7.4687e-13
4.08444e-13
5.48482e-13
7.352e-13
8.28559e-13
8.75238e-13
8.86908e-13
6.65181e-13
6.53511e-13
5.13473e-13
6.41841e-13
5.25143e-13
3.15086e-13
3.03416e-13
4.08444e-13
6.41841e-13
2.91746e-13
3.50095e-13
1.98387e-13
5.95162e-13
3.61765e-13
6.18502e-13
2.21727e-13
2.68406e-13
1.75048e-13
1.98387e-13
1.98387e-13
3.03416e-13
4.43454e-13
1.75048e-13
4.90133e-13
1.98387e-13
1.75048e-13
4.43454e-13
3.03416e-13
2.33397e-13
3.96775e-13
4.08444e-13
2.45067e-13
2.80076e-13
1.40038e-13
1.75048e-13
1.16698e-14
1.98387e-13
1.40038e-13
2.61113e-27
7.0019e-14
1.16698e-13
1.28368e-13
3.85105e-13
1.75048e-13
2.45067e-13
1.16698e-13
1.98387e-13
1.28368e-13
1.16698e-13
2.33397e-14
1.16698e-14
2.91746e-13
4.20114e-13
1.86717e-13
4.78463e-13
3.15086e-13
3.50095e-13
2.68406e-13
4.20114e-13
1.51708e-13
3.15086e-13
2.33397e-14
4.66794e-14
2.68406e-13
2.33397e-13
5.83492e-14
1.28368e-13
1.86717e-13
1.51708e-13
3.15086e-13
3.26756e-13
1.40038e-13
4.66794e-14
9.33587e-14
1.63378e-13
1.75048e-13
2.10057e-13
2.33397e-13
3.73435e-13
4.78463e-13
5.36813e-13
2.21727e-13
4.31784e-13
3.38425e-13
5.48482e-13
2.80076e-13
1.51708e-13
3.85105e-13
1.86717e-13
5.25143e-13
7.0019e-14
3.50095e-13
2.56736e-13
1.16698e-14
4.43454e-13
2.33397e-14
4.20114e-13
9.33587e-14
2.56736e-13
1.28368e-13
7.0019e-14
2.33397e-14
5.83492e-14
8.16889e-14
1.40038e-13
1.63378e-13
3.50095e-14
1.51708e-13
2.80076e-13
1.16698e-13
8.16889e-14
2.80076e-13
8.16889e-14
1.16698e-13
1.05029e-13
2.21727e-13
5.36813e-13
1.51708e-13
2.68406e-13
2.33397e-14
2.56736e-13
2.80076e-13
5.25143e-13
2.68406e-13
4.31784e-13
2.68406e-13
3.61765e-13
2.80076e-13
1.63378e-13
2.68406e-13
1.16698e-13
3.73435e-13
2.10057e-13
4.08444e-13
5.83492e-14
8.16889e-14
8.16889e-14
3.73435e-13
1.63378e-13
5.83492e-14
1.05029e-13
1.51708e-13
9.33587e-14
3.50095e-14
4.31784e-13
3.50095e-14
3.26756e-13
2.21727e-13
8.16889e-14
2.56736e-13
2.33397e-14
2.33397e-14
1.63378e-13
1.16698e-14
7.0019e-14
5.83492e-14
7.0019e-14
2.68406e-13
1.75048e-13
1.63378e-13
7.0019e-14
1.51708e-13
1.51708e-13
5.83492e-14
1.51708e-13
1.05029e-13
1.16698e-13
2.56736e-13
2.56736e-13
5.83492e-14
1.16698e-14
4.66794e-13
1.40038e-13
4.78463e-13
1.51708e-13
3.15086e-13
1.16698e-14
3.96775e-13
1.40038e-13
1.16698e-13
1.86717e-13
7.0019e-14
1.40038e-13
3.50095e-14
1.86717e-13
3.50095e-14
8.16889e-14
4.08444e-13
8.16889e-14
3.50095e-14
1.28368e-13
1.28368e-13
1.40038e-13
2.68406e-13
1.28368e-13
1.05029e-13
1.98387e-13
2.45067e-13
1.86717e-13
2.68406e-13
1.16698e-13
2.91746e-13
3.50095e-14
8.16889e-14
8.16889e-14
3.15086e-13
1.16698e-13
3.15086e-13
3.15086e-13
3.03416e-13
2.10057e-13
1.16698e-14
1.98387e-13
8.16889e-14
1.05029e-13
1.28368e-13
1.75048e-13
2.45067e-13
1.16698e-13
8.16889e-14
3.50095e-14
8.16889e-14
3.50095e-14
1.86717e-13
4.78463e-13
5.60152e-13
1.17865e-12
1.87884e-12
3.03416e-12
5.33312e-12
9.72098e-12
1.79249e-11
3.26172e-11
5.94228e-11
1.07339e-10
1.93019e-10
3.45089e-10
6.13297e-10
1.08459e-09
1.90711e-09
3.33578e-09
5.80233e-09
1.00394e-08
1.72742e-08
2.95612e-08
5.03052e-08
8.5127e-08
1.43236e-07
2.39634e-07
3.9859e-07
6.59117e-07
1.0835e-06
1.77049e-06
2.87564e-06
4.64215e-06
7.44763e-06
1.18741e-05
1.88121e-05
2.96138e-05
4.63168e-05
7.19678e-05
0.000111086
0.00017032
0.000259371
0.000392274
0.00058916
0.000878645
0.00130104
0.0019126
0.00279108
0.00404291
0.00581227
0.00829245
0.0117398
0.0164906
0.0229806
0.0317681
0.0435595
0.0592366
0.079886
0.106828
0.141641
0.186189
0.242632
0.313435
0.401357
0.509436
0.640947
0.799349
0.988216
1.21115
1.47169
1.77323
2.11888
2.51142
2.95322
3.44614
3.99153
4.59021
5.24244
5.94799
6.70612
7.51569
8.3752
9.28281
10.2365
11.234
12.2731
13.3514
14.4665
15.616
16.7978
18.0096
19.2494
20.5151
21.8049
23.1171
24.4501
25.8024
27.1726
28.5594
29.9617
31.3784
32.8086
34.2513
35.7058
37.1712
38.6469
40.1323
41.6267
43.1297
44.6407
46.1593
47.6851
49.2176
50.7565
52.3015
53.8523
55.4084
56.9697
58.5359
60.1067
61.682
63.2613
64.8447
66.4318
68.0225
69.6166
71.2139
72.8143
74.4176
76.0236
77.6323
79.2435
80.8571
82.473
84.091
85.7111
87.3332
88.9571
90.5828
92.2102
93.8393
95.4698
97.1019
98.7354
100.37
102.006
103.644
105.282
106.922
108.563
110.204
111.847
113.491
115.135
116.781
118.427
120.074
121.722
123.371
125.02
126.67
128.321
129.972
131.624
133.276
134.929
136.583
138.237
139.891
141.546
143.202
144.857
146.514
148.17
149.827
151.485
153.142
154.8
156.459
158.117
159.776
161.435
163.095
164.754
166.414
168.075
169.735
171.396
173.055
174.717
176.377
178.039
179.7
181.362
183.024
184.685
186.347
188.009
189.672
191.334
192.996
194.659
196.322
197.984
199.647
201.31
202.973
204.636
206.298
207.962
209.625
211.288
212.951
214.614
216.277
217.94
219.603
221.266
222.93
224.593
226.256
227.919
229.582
231.245
232.908
234.571
236.234
237.897
239.56
241.223
242.886
244.548
246.211
247.874
249.536
251.199
252.861
254.524
256.186
257.848
259.51
261.172
262.834
264.496
266.158
267.82
269.481
271.143
272.804
274.465
276.126
277.787
279.448
281.109
282.77
284.43
286.091
287.751
289.411
291.071
292.731
294.391
296.051
297.71
299.369
301.028
302.687
304.346
306.005
307.664
309.322
310.98
312.638
314.296
315.954
317.611
319.268
320.925
322.582
324.239
325.896
327.552
329.208
330.864
332.52
334.175
335.83
337.485
339.14
340.795
342.449
344.103
345.757
347.411
349.064
350.717
352.37
354.023
355.675
357.327
358.979
360.63
362.282
363.932
365.583
367.233
368.883
370.533
372.182
373.831
375.48
377.128
378.776
380.424
382.071
383.718
385.365
387.011
388.657
390.302
391.947
393.591
395.235
396.879
398.522
400.165
401.807
403.449
405.09
406.731
408.371
410.011
411.65
413.288
414.926
416.563
418.2
419.836
421.472
423.107
424.741
426.374
428.007
429.639
431.27
432.901
434.53
436.159
437.787
439.414
441.041
442.666
444.29
445.914
447.536
449.157
450.777
452.396
454.014
455.631
457.246
458.86
460.473
462.085
463.695
465.303
466.91
468.516
470.12
471.722
473.322
474.921
476.518
478.112
479.705
481.296
482.884
484.47
486.054
487.636
489.214
490.79
492.364
493.934
495.502
497.066
498.628
500.185
501.74
503.29
504.837
506.38
507.919
509.454
510.984
512.509
514.029
515.545
517.055
518.559
520.058
521.55
523.037
524.517
525.989
527.455
528.913
530.363
531.806
533.239
534.664
536.079
537.485
538.88
540.265
541.639
543.001
544.352
545.689
547.014
548.325
549.622
550.904
552.171
553.422
554.656
555.873
557.072
558.252
559.413
560.555
561.675
562.775
563.852
564.907
565.938
566.945
567.928
568.885
569.817
570.722
571.6
572.45
573.273
574.067
574.832
575.569
576.276
576.954
577.602
578.22
578.809
579.369
579.9
580.402
580.875
581.321
581.739
582.13
582.496
582.836
583.152
583.444
583.713
583.961
584.188
584.396
584.585
584.757
584.912
585.052
585.178
585.291
585.391
585.48
585.558
585.627
585.688
585.741
585.786
585.826
585.86
585.889
585.913
585.934
585.951
585.966
585.977
585.987
585.994
586
586.004
586.008
586.01
586.012
586.013
586.013
586.012
586.012
586.011
586.009
586.008
586.007
586.005
586.004
586.002
586.001
585.999
585.998
585.996
585.995
585.994
585.993
585.992
585.991
585.99
585.989
585.988
585.988
585.987
585.987
585.986
585.986
585.986
585.986
585.986
585.986
585.986
585.986
585.986
585.986
585.987
585.987
585.987
585.987
585.988
585.988
585.988
585.988
585.988
585.987
585.987
585.986
585.985
585.983
585.981
585.978
585.975
585.971
585.967
585.962
585.957
585.951
585.945
585.938
585.931
585.924
585.918
585.911
585.906
585.9
585.896
585.896
585.896
585.895
585.896
585.896
585.899
585.903
585.909
585.917
585.926
585.936
585.947
585.959
585.97
585.982
585.993
586.003
586.014
586.024
586.033
586.041
586.047
586.052
586.056
586.061
586.065
586.069
586.072
586.075
586.078
586.081
586.084
586.087
586.089
586.092
586.095
586.098
586.101
586.103
586.106
586.109
586.111
586.113
586.116
586.118
586.12
586.123
586.125
586.127
586.13
586.133
586.135
586.138
586.141
586.144
586.148
586.151
586.155
586.159
586.162
586.165
586.169
586.172
586.175
586.178
586.181
586.184
586.187
586.19
586.193
586.197
586.2
586.204
586.208
586.211
586.215
586.219
586.223
586.227
586.231
586.235
586.239
586.243
586.246
586.25
586.254
586.258
586.261
586.265
586.269
586.273
586.277
586.281
586.286
586.29
586.295
586.301
586.306
586.311
586.316
586.321
586.326
586.33
586.335
586.339
586.343
586.346
586.348
586.348
586.343
586.335
586.315
586.296
586.256
586.226
586.101
586.024
585.697
585.206
584.183
581.978
577.778
569.163
552.089
518.816
456.595
348.295
196.076
67.3767
15.1599
2.77119
0.438772
0.066044
0.00987647
0.00147819
0.000221437
3.31862e-05
4.97435e-06
7.45659e-07
1.11777e-07
1.67561e-08
2.51179e-09
3.76761e-10
5.6555e-11
8.81074e-12
1.34203e-12
5.54318e-13
1.75048e-13
1.89635e-13
2.77159e-13
1.45873e-14
2.91746e-14
2.47984e-13
2.77159e-13
2.91746e-14
8.75239e-14
1.45873e-13
2.77159e-13
2.62572e-13
2.62572e-13
5.83493e-14
4.3762e-14
2.95034e-26
2.1881e-13
1.16699e-13
1.16699e-13
2.77159e-13
4.08445e-13
4.81382e-13
7.73128e-13
5.25144e-13
8.89827e-13
5.39731e-13
9.33589e-13
4.95969e-13
7.58541e-13
5.10556e-13
6.71017e-13
6.12667e-13
4.95969e-13
4.66794e-13
4.95969e-13
4.08445e-13
7.43953e-13
6.71017e-13
6.71017e-13
5.83493e-13
6.41842e-13
3.35508e-13
1.16699e-13
5.83493e-14
1.45873e-14
2.04222e-13
2.77159e-13
2.62572e-13
1.45873e-14
1.60461e-13
7.29366e-14
8.75239e-14
4.23032e-13
1.31286e-13
1.16699e-13
7.29366e-14
3.20921e-13
1.31286e-13
1.16699e-13
7.29366e-14
3.33812e-27
5.83493e-14
)
;

boundaryField
{
    sides
    {
        type            calculated;
        value           nonuniform List<scalar> 2(5.83493e-14 7.4687e-13);
    }
    empty
    {
        type            empty;
    }
}


// ************************************************************************* //
