/*--------------------------------*- C++ -*----------------------------------*\
  =========                 |
  \\      /  F ield         | OpenFOAM: The Open Source CFD Toolbox
   \\    /   O peration     | Website:  https://openfoam.org
    \\  /    A nd           | Version:  7
     \\/     M anipulation  |
\*---------------------------------------------------------------------------*/
FoamFile
{
    version     2.0;
    format      ascii;
    class       volScalarField;
    location    "0.005";
    object      p;
}
// * * * * * * * * * * * * * * * * * * * * * * * * * * * * * * * * * * * * * //

dimensions      [1 -1 -2 0 0 0 0];

internalField   nonuniform List<scalar> 
1000
(
1e+06
1e+06
1e+06
1e+06
1e+06
1e+06
1e+06
1e+06
1e+06
1e+06
1e+06
1e+06
1e+06
1e+06
1e+06
1e+06
1e+06
1e+06
1e+06
1e+06
1e+06
1e+06
1e+06
1e+06
1e+06
1e+06
1e+06
1e+06
1e+06
1e+06
1e+06
1e+06
1e+06
1e+06
1e+06
1e+06
1e+06
1e+06
1e+06
1e+06
1e+06
1e+06
1e+06
1e+06
1e+06
1e+06
1e+06
1e+06
1e+06
1e+06
1e+06
1e+06
1e+06
1e+06
1e+06
1e+06
1e+06
1e+06
1e+06
1e+06
1e+06
1e+06
1e+06
1e+06
1e+06
1e+06
1e+06
1e+06
1e+06
1e+06
1e+06
1e+06
1e+06
1e+06
1e+06
1e+06
1e+06
1e+06
1e+06
1e+06
1e+06
1e+06
1e+06
1e+06
1e+06
1e+06
1e+06
1e+06
1e+06
1e+06
1e+06
1e+06
1e+06
1e+06
1e+06
1e+06
1e+06
1e+06
1e+06
1e+06
1e+06
1e+06
1e+06
1e+06
1e+06
1e+06
1e+06
1e+06
1e+06
1e+06
1e+06
1e+06
1e+06
1e+06
1e+06
1e+06
1e+06
1e+06
1e+06
1e+06
1e+06
1e+06
1e+06
1e+06
1e+06
1e+06
1e+06
1e+06
1e+06
1e+06
1e+06
1e+06
1e+06
1e+06
1e+06
1e+06
1e+06
1e+06
1e+06
1e+06
1e+06
1e+06
1e+06
1e+06
1e+06
1e+06
1e+06
1e+06
1e+06
1e+06
1e+06
1e+06
1e+06
1e+06
1e+06
1e+06
1e+06
1e+06
1e+06
1e+06
1e+06
1e+06
1e+06
1e+06
1e+06
1e+06
1e+06
1e+06
1e+06
1e+06
1e+06
1e+06
1e+06
1e+06
1e+06
1e+06
1e+06
1e+06
1e+06
1e+06
1e+06
1e+06
1e+06
1e+06
1e+06
1e+06
1e+06
1e+06
1e+06
1e+06
1e+06
1e+06
1e+06
1e+06
1e+06
1e+06
1e+06
1e+06
1e+06
1e+06
1e+06
1e+06
1e+06
1e+06
1e+06
1e+06
1e+06
1e+06
1e+06
1e+06
1e+06
1e+06
1e+06
1e+06
1e+06
1e+06
1e+06
1e+06
1e+06
1e+06
1e+06
1e+06
1e+06
1e+06
1e+06
1e+06
1e+06
1e+06
1e+06
1e+06
1e+06
1e+06
1e+06
1e+06
1e+06
1e+06
1e+06
1e+06
1e+06
1e+06
1e+06
1e+06
1e+06
1e+06
1e+06
1e+06
1e+06
1e+06
1e+06
1e+06
1e+06
1e+06
1e+06
1e+06
1e+06
1e+06
1e+06
1e+06
1e+06
1e+06
1e+06
1e+06
1e+06
1e+06
1e+06
1e+06
1e+06
1e+06
1e+06
999999
999999
999999
999998
999997
999995
999993
999990
999985
999979
999969
999957
999939
999915
999882
999839
999781
999704
999604
999474
999309
999099
998836
998508
998106
997617
997027
996325
995496
994527
993407
992124
990668
989031
987208
985193
982985
980585
977993
975215
972256
969123
965823
962367
958762
955021
951151
947163
943068
938874
934590
930224
925786
921282
916720
912105
907444
902743
898006
893238
888444
883627
878790
873938
869072
864196
859312
854422
849528
844633
839738
834844
829953
825066
820186
815312
810446
805589
800742
795905
791080
786268
781469
776684
771913
767157
762416
757692
752984
748293
743619
738964
734326
729707
725107
720525
715963
711420
706898
702395
697912
693449
689007
684586
680185
675805
671446
667107
662790
658494
654219
649966
645733
641522
637333
633164
629017
624891
620787
616704
612643
608602
604584
600586
596610
592655
588721
584808
580917
577046
573197
569369
565562
561775
558010
554265
550542
546838
543156
539494
535853
532232
528631
525051
521491
517952
514432
510933
507454
503996
500556
497136
493736
490356
486995
483653
480331
477028
473745
470480
467235
464009
460802
457613
454443
451292
448160
445046
441951
438874
435815
432775
429753
426748
423762
420794
417843
414910
411995
409098
406217
403355
400509
397681
394870
392076
389299
386539
383796
381070
378360
375667
372991
370331
367687
365059
362448
359853
357274
354711
352163
349632
347116
344616
342132
339663
337209
334771
332348
329941
327548
325170
322808
320460
318127
315809
313505
311216
308942
306682
304436
302205
299988
297785
295596
293421
291260
289112
286979
284859
282753
280661
278582
276516
274464
272425
270399
268387
266387
264401
262427
260466
258518
256583
254661
252751
250854
248969
247096
245236
243388
241552
239729
237917
236118
234330
232555
230791
229039
227298
225569
223852
222147
220452
218770
217098
215438
213789
212151
210524
208908
207303
205710
204126
202554
200993
199442
197902
196372
194853
193344
191846
190358
188881
187413
185956
184509
183072
181645
180228
178821
177424
176037
174659
173291
171933
170585
169246
167917
166597
165286
163985
162694
161411
160138
158874
157620
156374
155137
153910
152692
151482
150282
149090
147907
146733
145568
144412
143264
142125
140994
139873
138759
137655
136558
135471
134392
133321
132258
131204
130159
129121
128092
127071
126059
125055
124059
123071
122091
121120
120157
119202
118255
117316
116386
115464
114549
113643
112746
111856
110975
110101
109236
108379
107531
106691
105859
105035
104220
103413
102615
101825
101044
100271
99506.7
98751.3
98004.7
97266.9
96538
95818
95107.2
94405.4
93713
93029.8
92356
91691.8
91037.3
90392.4
89757.5
89132.5
88517.7
87913.1
87318.9
86735.2
86162.2
85600
85048.8
84508.6
83979.8
83462.3
82956.5
82462.3
81980
81509.8
81051.7
80605.9
80172.6
79751.8
79343.7
78948.4
78566
78196.5
77840.1
77496.7
77166.5
76849.4
76545.4
76254.5
75976.7
75711.8
75459.7
75220.4
74993.6
74779.2
74577
74386.7
74208
74040.7
73884.4
73738.9
73603.7
73478.4
73362.7
73256.2
73158.4
73068.9
72987.3
72913.1
72845.9
72785.1
72730.9
72682
72637.8
72599
72564.8
72534.6
72508.2
72485.2
72465.2
72448
72433.3
72420.8
72410.3
72401.5
72394.3
72388.4
72383.7
72380
72377.3
72375.3
72374
72373.1
72373
72373.1
72373.3
72373.9
72374.9
72376.2
72377.5
72379
72380.5
72382.1
72383.8
72385.5
72387.2
72388.9
72390.7
72392.4
72394.2
72395.9
72397.6
72399.3
72401
72402.6
72404.3
72405.9
72407.5
72409
72410.6
72412.1
72413.6
72415.1
72416.5
72417.9
72419.3
72420.7
72422
72423.3
72424.6
72425.8
72427
72428.1
72429.2
72430.3
72431.3
72432.3
72433.2
72434
72434.9
72435.6
72436.4
72437
72437.6
72438.1
72438.6
72439
72439.4
72439.8
72440.2
72440.5
72440.8
72441.2
72441.5
72442
72442.4
72442.9
72443.5
72444.2
72444.9
72445.9
72446.9
72448.6
72449.9
72450.2
72451.9
72453.3
72454.5
72456.5
72458.5
72460.3
72462.1
72463.9
72465.6
72467.3
72468.9
72470.4
72471.8
72473.1
72474.5
72475.6
72476.7
72477.4
72478.1
72478.5
72479
72479.7
72480.3
72480.8
72481.2
72481.6
72482
72482.3
72482.6
72482.9
72483.2
72483.5
72483.8
72484.1
72484.4
72484.8
72485.2
72485.6
72486.1
72486.6
72487.1
72487.7
72488.3
72488.9
72489.6
72490.2
72490.9
72491.5
72492.2
72492.8
72493.4
72494
72494.5
72495.2
72495.8
72496.3
72496.9
72497.5
72498.2
72498.8
72499.5
72500.3
72501
72501.8
72502.6
72503.4
72504.2
72505.1
72505.8
72506.6
72507.4
72508.1
72508.8
72509.5
72510.2
72511
72511.7
72512.5
72513.4
72514.2
72515.1
72516
72516.9
72517.8
72518.7
72519.7
72520.7
72521.6
72522.6
72523.6
72524.5
72525.4
72526.2
72527
72527.8
72528.6
72529.4
72530.2
72531.1
72532
72532.9
72533.6
72534.3
72534.8
72535.2
72535.5
72535.6
72535.6
72535
72533.3
72529
72522
72508.2
72491.5
72466
72361.7
72296.8
71883
71379.7
70140
67882.9
63624.4
56228
45038
31029.3
19055.9
12647.2
10542.7
10088.3
10013.3
10002
10000.3
10000
10000
10000
10000
10000
10000
10000
10000
10000
10000
10000
10000
10000
10000
10000
10000
10000
10000
10000
10000
10000
10000
10000
10000
10000
10000
10000
10000
10000
10000
10000
10000
10000
10000
10000
10000
10000
10000
10000
10000
10000
10000
10000
10000
10000
10000
10000
10000
10000
10000
10000
10000
10000
10000
10000
10000
10000
10000
10000
10000
10000
10000
10000
10000
10000
10000
10000
10000
10000
10000
10000
10000
10000
10000
10000
)
;

boundaryField
{
    sides
    {
        type            zeroGradient;
    }
    empty
    {
        type            empty;
    }
}


// ************************************************************************* //
