/*--------------------------------*- C++ -*----------------------------------*\
  =========                 |
  \\      /  F ield         | OpenFOAM: The Open Source CFD Toolbox
   \\    /   O peration     | Website:  https://openfoam.org
    \\  /    A nd           | Version:  7
     \\/     M anipulation  |
\*---------------------------------------------------------------------------*/
FoamFile
{
    version     2.0;
    format      ascii;
    class       surfaceScalarField;
    location    "0.005";
    object      phi;
}
// * * * * * * * * * * * * * * * * * * * * * * * * * * * * * * * * * * * * * //

dimensions      [1 0 -1 0 0 0 0];

internalField   nonuniform List<scalar> 
999
(
-2.50111e-11
-1.59162e-11
-3.09228e-11
-3.27418e-11
-3.31966e-11
-3.45608e-11
-3.36513e-11
-2.41016e-11
-2.50111e-11
-2.18279e-11
-2.41016e-11
-1.77351e-11
-1.27329e-11
-1.22782e-11
-2.45564e-11
-1.77351e-11
-1.31877e-11
-1.13687e-11
-1.90994e-11
-1.81899e-11
-1.95541e-11
-1.95541e-11
-1.27329e-11
-6.82121e-12
-7.7307e-12
-7.7307e-12
-9.09495e-12
-1.77351e-11
-1.31877e-11
-1.31877e-11
-1.31877e-11
-5.45697e-12
-1.63709e-11
-1.45519e-11
-1.04592e-11
-1.22782e-11
-1.59162e-11
-1.18234e-11
-1.13687e-11
-7.7307e-12
-6.36646e-12
-5.00222e-12
-5.45697e-12
-5.45697e-12
-4.09273e-12
2.72848e-12
4.09273e-12
-3.18323e-12
-9.54969e-12
-1.31877e-11
-9.09495e-12
-6.82121e-12
-6.82121e-12
-3.18323e-12
0
-2.27374e-12
0
-8.18545e-12
-1.59162e-11
-1.18234e-11
-1.40972e-11
-1.81899e-11
-1.45519e-11
-1.18234e-11
-1.63709e-11
-1.27329e-11
-7.27596e-12
-6.82121e-12
-9.09495e-13
5.00222e-12
1.13687e-11
2.27374e-12
-4.54747e-12
-6.36646e-12
-6.36646e-12
-8.6402e-12
-1.40972e-11
-1.27329e-11
-1.36424e-12
4.54747e-13
-8.6402e-12
-5.45697e-12
-9.09495e-12
-9.54969e-12
-1.18234e-11
-1.90994e-11
-2.09184e-11
-1.77351e-11
-1.13687e-11
-1.77351e-11
-1.86446e-11
-1.50067e-11
-9.54969e-12
-1.04592e-11
-8.6402e-12
-2.00089e-11
-1.18234e-11
-7.27596e-12
-2.72848e-12
5.45697e-12
1.18234e-11
8.6402e-12
6.36646e-12
7.7307e-12
4.09273e-12
6.82121e-12
6.36646e-12
9.09495e-13
1.36424e-12
-5.91172e-12
-3.18323e-12
-5.45697e-12
-3.63798e-12
-2.27374e-12
-1.00044e-11
-6.36646e-12
-4.09273e-12
-7.7307e-12
-7.27596e-12
-5.45697e-12
-4.54747e-12
-7.7307e-12
-1.63709e-11
-1.45519e-11
-9.54969e-12
-7.27596e-12
-3.63798e-12
-1.18234e-11
-1.90994e-11
-1.50067e-11
-1.68257e-11
-1.31877e-11
-1.50067e-11
-1.18234e-11
-1.09139e-11
-9.09495e-12
-8.6402e-12
-8.6402e-12
-1.31877e-11
-1.50067e-11
-5.91172e-12
-4.54747e-13
4.54747e-13
-7.7307e-12
-5.00222e-12
1.36424e-12
9.09495e-13
-3.18323e-12
4.54747e-13
0
1.04592e-11
9.54969e-12
4.09273e-12
2.72848e-12
-4.54747e-12
-3.18323e-12
-6.36646e-12
-5.04871e-29
2.72848e-12
3.18323e-12
2.72848e-12
-4.54747e-13
-2.27374e-12
-5.45697e-12
-1.18234e-11
-6.36646e-12
-4.54747e-12
-5.45697e-12
-6.82121e-12
-4.54747e-13
-4.09273e-12
-4.54747e-13
6.82121e-12
-5.00222e-12
-1.09139e-11
-4.54747e-12
0
1.09139e-11
1.50067e-11
1.40972e-11
1.00044e-11
1.09139e-11
6.36646e-12
5.91172e-12
1.27329e-11
6.36646e-12
-9.09495e-13
-6.36646e-12
-7.7307e-12
-1.81899e-12
-5.00222e-12
-6.82121e-12
-2.72848e-12
-9.09495e-12
-1.18234e-11
-2.27374e-12
6.82121e-12
-9.09495e-13
-4.54747e-13
-2.27374e-12
-3.63798e-12
0
2.27374e-12
-4.54747e-13
-3.18323e-12
-1.81899e-12
-1.81899e-12
-6.36646e-12
-5.45697e-12
-5.00222e-12
4.54747e-13
-6.36646e-12
-4.54747e-12
-4.09273e-12
-1.54614e-11
-1.09139e-11
-1.22782e-11
-4.09273e-12
-1.81899e-12
-9.09495e-12
1.36424e-12
3.63798e-12
5.00222e-12
1.09139e-11
1.81899e-12
-3.18323e-12
-3.18323e-12
-2.27374e-12
-9.09495e-13
2.27374e-12
1.72804e-11
2.09184e-11
3.36513e-11
5.72982e-11
9.23137e-11
1.56433e-10
2.77851e-10
5.14774e-10
9.39963e-10
1.7103e-09
3.11366e-09
5.60658e-09
1.00617e-08
1.79425e-08
3.18169e-08
5.61245e-08
9.84619e-08
1.71809e-07
2.98164e-07
5.14658e-07
8.83482e-07
1.50824e-06
2.56043e-06
4.32217e-06
7.25457e-06
1.21065e-05
2.00862e-05
3.313e-05
5.43202e-05
8.85298e-05
0.000143409
0.000230885
0.000369414
0.000587355
0.000927952
0.00145665
0.00227174
0.00351966
0.00541684
0.00828055
0.012572
0.0189559
0.0283819
0.0421945
0.0622799
0.0912589
0.132738
0.191633
0.274568
0.390385
0.550749
0.770879
1.0704
1.47429
2.01397
2.72844
3.66538
4.88233
6.44763
8.44114
10.9547
14.092
17.968
22.7076
28.4437
35.3145
43.4603
53.0194
64.1246
76.8986
91.4501
107.871
126.232
146.582
168.947
193.329
219.708
248.042
278.272
310.32
344.095
379.499
416.422
454.752
494.375
535.177
577.045
619.871
663.549
707.982
753.074
798.739
844.895
891.465
938.382
985.58
1033
1080.59
1128.3
1176.09
1223.91
1271.74
1319.52
1367.25
1414.88
1462.39
1509.77
1556.98
1604.01
1650.84
1697.46
1743.85
1790
1835.9
1881.53
1926.88
1971.94
2016.71
2061.18
2105.34
2149.18
2192.69
2235.88
2278.73
2321.23
2363.39
2405.21
2446.67
2487.77
2528.51
2568.89
2608.91
2648.56
2687.83
2726.74
2765.28
2803.44
2841.23
2878.64
2915.68
2952.34
2988.63
3024.53
3060.06
3095.22
3130
3164.4
3198.43
3232.08
3265.36
3298.26
3330.79
3362.95
3394.74
3426.16
3457.21
3487.9
3518.22
3548.17
3577.76
3606.98
3635.85
3664.36
3692.51
3720.3
3747.74
3774.82
3801.56
3827.94
3853.97
3879.66
3905
3930
3954.66
3978.98
4002.96
4026.61
4049.9
4072.92
4095.5
4117.92
4139.76
4161.62
4182.72
4203.99
4224.48
4244.96
4265.07
4284.62
4304.37
4323.12
4342.29
4360.59
4378.82
4396.85
4414.29
4431.67
4448.72
4465.32
4481.83
4497.95
4513.73
4529.32
4544.6
4559.52
4574.25
4588.67
4602.79
4616.65
4630.25
4643.55
4656.59
4669.37
4681.87
4694.1
4706.08
4717.8
4729.25
4740.44
4751.38
4762.06
4772.49
4782.67
4792.6
4802.28
4811.72
4820.91
4829.86
4838.57
4847.04
4855.27
4863.27
4871.04
4878.58
4885.88
4892.96
4899.81
4906.43
4912.84
4919.02
4924.98
4930.72
4936.25
4941.56
4946.66
4951.55
4956.23
4960.7
4964.97
4969.03
4972.89
4976.54
4980
4983.26
4986.32
4989.19
4991.86
4994.34
4996.64
4998.74
5000.66
5002.39
5003.93
5005.3
5006.48
5007.49
5008.31
5008.96
5009.44
5009.74
5009.87
5009.83
5009.62
5009.25
5008.7
5008
5007.13
5006.1
5004.91
5003.56
5002.05
5000.39
4998.57
4996.61
4994.48
4992.21
4989.79
4987.23
4984.52
4981.66
4978.66
4975.52
4972.23
4968.81
4965.25
4961.56
4957.73
4953.76
4949.66
4945.44
4941.08
4936.59
4931.98
4927.24
4922.38
4917.39
4912.28
4907.05
4901.7
4896.23
4890.65
4884.95
4879.13
4873.2
4867.16
4861.01
4854.75
4848.38
4841.91
4835.33
4828.64
4821.85
4814.96
4807.97
4800.87
4793.68
4786.39
4779.01
4771.53
4763.95
4756.29
4748.53
4740.68
4732.74
4724.72
4716.6
4708.41
4700.12
4691.76
4683.31
4674.78
4666.17
4657.49
4648.72
4639.88
4630.96
4621.97
4612.91
4603.77
4594.57
4585.29
4575.95
4566.54
4557.06
4547.52
4537.92
4528.25
4518.53
4508.74
4498.9
4488.99
4479.03
4469.02
4458.95
4448.83
4438.66
4428.44
4418.17
4407.86
4397.49
4387.09
4376.64
4366.15
4355.61
4345.04
4334.43
4323.79
4313.11
4302.4
4291.65
4280.88
4270.08
4259.25
4248.39
4237.51
4226.61
4215.69
4204.75
4193.8
4182.83
4171.85
4160.86
4149.86
4138.85
4127.84
4116.82
4105.81
4094.8
4083.8
4072.8
4061.81
4050.84
4039.88
4028.94
4018.02
4007.13
3996.26
3985.43
3974.63
3963.86
3953.14
3942.46
3931.84
3921.26
3910.74
3900.28
3889.89
3879.57
3869.32
3859.15
3849.06
3839.06
3829.16
3819.36
3809.66
3800.07
3790.59
3781.24
3772.01
3762.91
3753.95
3745.14
3736.47
3727.96
3719.62
3711.43
3703.42
3695.59
3687.94
3680.48
3673.22
3666.15
3659.28
3652.62
3646.16
3639.92
3633.9
3628.09
3622.5
3617.13
3611.98
3607.04
3602.33
3597.84
3593.56
3589.49
3585.64
3581.99
3578.53
3575.28
3572.21
3569.32
3566.61
3564.07
3561.69
3559.46
3557.38
3555.44
3553.61
3551.9
3550.31
3548.82
3547.43
3546.12
3544.89
3543.73
3542.62
3541.58
3540.58
3539.63
3538.71
3537.81
3536.94
3536.09
3535.26
3534.43
3533.6
3532.78
3531.95
3531.12
3530.28
3529.41
3528.53
3527.64
3526.72
3525.79
3524.82
3523.83
3522.8
3521.74
3520.64
3519.5
3518.32
3517.1
3515.83
3514.5
3513.13
3511.69
3510.2
3508.64
3507.02
3505.32
3503.55
3501.69
3499.74
3497.69
3495.52
3493.22
3490.76
3488.11
3485.24
3482.12
3478.67
3474.85
3470.57
3465.75
3460.29
3454.07
3446.97
3438.83
3429.5
3418.82
3406.58
3392.62
3376.72
3358.69
3338.32
3315.41
3289.79
3261.27
3229.71
3194.96
3156.93
3115.53
3070.75
3022.58
2971.08
2916.33
2858.47
2797.68
2734.2
2668.27
2600.21
2530.36
2459.07
2386.74
2313.76
2240.54
2167.5
2095.03
2023.54
1953.38
1884.91
1818.44
1754.27
1692.67
1633.82
1577.88
1524.98
1475.21
1428.62
1385.21
1344.97
1307.83
1273.72
1242.54
1214.17
1188.46
1165.27
1144.45
1125.84
1109.27
1094.58
1081.62
1070.24
1060.27
1051.59
1044.06
1037.56
1031.97
1027.18
1023.1
1019.64
1016.72
1014.26
1012.21
1010.51
1009.1
1007.94
1006.99
1006.23
1005.61
1005.12
1004.73
1004.42
1004.19
1004.01
1003.88
1003.79
1003.73
1003.69
1003.67
1003.66
1003.66
1003.67
1003.69
1003.71
1003.74
1003.77
1003.8
1003.83
1003.86
1003.89
1003.92
1003.95
1003.98
1004.01
1004.03
1004.06
1004.08
1004.11
1004.13
1004.16
1004.18
1004.2
1004.22
1004.24
1004.26
1004.28
1004.3
1004.32
1004.34
1004.36
1004.38
1004.4
1004.42
1004.44
1004.46
1004.48
1004.5
1004.52
1004.54
1004.56
1004.58
1004.6
1004.62
1004.64
1004.66
1004.68
1004.7
1004.72
1004.74
1004.76
1004.78
1004.8
1004.82
1004.84
1004.85
1004.86
1004.86
1004.86
1004.83
1004.8
1004.69
1004.59
1004.3
1003.8
1003.02
1001.13
997.837
991.365
977.546
951.561
900.751
812.306
667.848
463.606
241.163
84.5325
19.2656
3.17216
0.472325
0.0699074
0.010411
0.00155649
0.000233093
3.49294e-05
5.23546e-06
7.84791e-07
1.17643e-07
1.76352e-08
2.64365e-09
3.96298e-10
5.94298e-11
9.00258e-12
1.42819e-12
3.05533e-13
1.49214e-13
8.52651e-14
1.35003e-13
8.52651e-14
-2.84217e-14
8.52651e-14
9.9476e-14
1.13687e-13
1.42109e-14
7.81597e-14
7.81597e-14
1.56319e-13
1.27898e-13
5.68434e-14
2.84217e-14
1.42109e-14
7.81597e-14
9.23706e-14
4.9738e-14
1.06581e-13
1.7053e-13
2.20268e-13
3.05533e-13
3.55271e-13
3.19744e-13
3.55271e-13
3.97904e-13
3.48166e-13
3.12639e-13
3.41061e-13
2.98428e-13
3.33955e-13
2.98428e-13
1.98952e-13
2.91323e-13
1.91847e-13
2.84217e-13
3.62377e-13
3.33955e-13
3.55271e-13
2.41585e-13
2.70006e-13
1.20792e-13
2.84217e-14
1.42109e-14
-4.26326e-14
-1.56319e-13
-9.23706e-14
-1.13687e-13
-4.26326e-14
-2.84217e-14
2.84217e-14
1.84741e-13
1.42109e-13
7.81597e-14
1.42109e-14
4.9738e-14
6.39488e-14
7.10543e-15
-7.10543e-15
-7.10543e-15
-1.42109e-14
)
;

boundaryField
{
    sides
    {
        type            calculated;
        value           nonuniform List<scalar> 2(-2.91038e-14 2.84053e-11);
    }
    empty
    {
        type            empty;
        value           nonuniform 0();
    }
}


// ************************************************************************* //
