/*--------------------------------*- C++ -*----------------------------------*\
  =========                 |
  \\      /  F ield         | OpenFOAM: The Open Source CFD Toolbox
   \\    /   O peration     | Website:  https://openfoam.org
    \\  /    A nd           | Version:  7
     \\/     M anipulation  |
\*---------------------------------------------------------------------------*/
FoamFile
{
    version     2.0;
    format      ascii;
    class       volScalarField;
    location    "0.005";
    object      rho;
}
// * * * * * * * * * * * * * * * * * * * * * * * * * * * * * * * * * * * * * //

dimensions      [1 -3 0 0 0 0 0];

internalField   nonuniform List<scalar> 
1000
(
9.97574
9.97574
9.97574
9.97574
9.97574
9.97574
9.97574
9.97574
9.97574
9.97574
9.97574
9.97574
9.97574
9.97574
9.97574
9.97574
9.97574
9.97574
9.97574
9.97574
9.97574
9.97574
9.97574
9.97574
9.97574
9.97574
9.97574
9.97574
9.97574
9.97574
9.97574
9.97574
9.97574
9.97574
9.97574
9.97574
9.97574
9.97574
9.97574
9.97574
9.97574
9.97574
9.97574
9.97574
9.97574
9.97574
9.97574
9.97574
9.97574
9.97574
9.97574
9.97574
9.97574
9.97574
9.97574
9.97574
9.97574
9.97574
9.97574
9.97574
9.97574
9.97574
9.97574
9.97574
9.97574
9.97574
9.97574
9.97574
9.97574
9.97574
9.97574
9.97574
9.97574
9.97574
9.97574
9.97574
9.97574
9.97574
9.97574
9.97574
9.97574
9.97574
9.97574
9.97574
9.97574
9.97574
9.97574
9.97574
9.97574
9.97574
9.97574
9.97574
9.97574
9.97574
9.97574
9.97574
9.97574
9.97574
9.97574
9.97574
9.97574
9.97574
9.97574
9.97574
9.97574
9.97574
9.97574
9.97574
9.97574
9.97574
9.97574
9.97574
9.97574
9.97574
9.97574
9.97574
9.97574
9.97574
9.97574
9.97574
9.97574
9.97574
9.97574
9.97574
9.97574
9.97574
9.97574
9.97574
9.97574
9.97574
9.97574
9.97574
9.97574
9.97574
9.97574
9.97574
9.97574
9.97574
9.97574
9.97574
9.97574
9.97574
9.97574
9.97574
9.97574
9.97574
9.97574
9.97574
9.97574
9.97574
9.97574
9.97574
9.97574
9.97574
9.97574
9.97574
9.97574
9.97574
9.97574
9.97574
9.97574
9.97574
9.97574
9.97574
9.97574
9.97574
9.97574
9.97574
9.97574
9.97574
9.97574
9.97574
9.97574
9.97574
9.97574
9.97574
9.97574
9.97574
9.97574
9.97574
9.97574
9.97574
9.97574
9.97574
9.97574
9.97574
9.97574
9.97574
9.97574
9.97574
9.97574
9.97574
9.97574
9.97574
9.97574
9.97574
9.97574
9.97574
9.97574
9.97574
9.97574
9.97574
9.97574
9.97574
9.97574
9.97574
9.97574
9.97574
9.97574
9.97574
9.97574
9.97574
9.97574
9.97574
9.97574
9.97574
9.97574
9.97574
9.97574
9.97574
9.97574
9.97574
9.97574
9.97574
9.97574
9.97574
9.97574
9.97574
9.97574
9.97574
9.97574
9.97574
9.97574
9.97574
9.97574
9.97574
9.97574
9.97574
9.97574
9.97574
9.97574
9.97574
9.97574
9.97574
9.97574
9.97574
9.97574
9.97574
9.97574
9.97574
9.97574
9.97574
9.97574
9.97574
9.97574
9.97574
9.97574
9.97574
9.97574
9.97574
9.97574
9.97574
9.97574
9.97574
9.97574
9.97574
9.97574
9.97574
9.97574
9.97574
9.97574
9.97573
9.97573
9.97572
9.97571
9.97569
9.97567
9.97564
9.97559
9.97552
9.97543
9.97531
9.97514
9.97491
9.97459
9.97418
9.97363
9.97292
9.972
9.97082
9.96933
9.96745
9.96512
9.96225
9.95877
9.95457
9.94956
9.94365
9.93674
9.92875
9.9196
9.9092
9.89751
9.88448
9.87008
9.85428
9.8371
9.81853
9.79861
9.77737
9.75487
9.73114
9.70626
9.68029
9.6533
9.62536
9.59653
9.56688
9.53648
9.50539
9.47367
9.44137
9.40855
9.37525
9.34153
9.30742
9.27296
9.23819
9.20314
9.16784
9.13231
9.09659
9.06069
9.02464
8.98846
8.95215
8.91575
8.87925
8.84269
8.80606
8.76938
8.73267
8.69593
8.65916
8.62239
8.58561
8.54884
8.51208
8.47534
8.43862
8.40194
8.36529
8.32868
8.29211
8.2556
8.21915
8.18275
8.14641
8.11015
8.07395
8.03782
8.00178
7.96581
7.92992
7.89411
7.85839
7.82276
7.78722
7.75177
7.71642
7.68116
7.646
7.61094
7.57597
7.54111
7.50635
7.4717
7.43714
7.4027
7.36836
7.33412
7.29999
7.26598
7.23207
7.19827
7.16458
7.131
7.09753
7.06418
7.03093
6.9978
6.96478
6.93187
6.89908
6.8664
6.83383
6.80138
6.76904
6.73682
6.70471
6.67271
6.64083
6.60906
6.57741
6.54587
6.51446
6.48311
6.45199
6.42077
6.39007
6.35875
6.3288
6.29694
6.26826
6.23534
6.2083
6.1743
6.14837
6.11447
6.08804
6.05586
6.02764
5.99774
5.96821
5.93918
5.91012
5.88058
5.85237
5.82296
5.79457
5.7659
5.73749
5.70893
5.68097
5.65258
5.62467
5.5967
5.56895
5.54114
5.51365
5.48612
5.45876
5.43147
5.40436
5.37727
5.35035
5.3235
5.2968
5.27016
5.24366
5.21725
5.19097
5.16476
5.13869
5.1127
5.08685
5.06106
5.03541
5.00985
4.9844
4.95904
4.9338
4.90866
4.88363
4.85868
4.83386
4.80912
4.7845
4.75997
4.73555
4.71122
4.687
4.66288
4.63886
4.61494
4.59112
4.5674
4.54378
4.52026
4.49683
4.47351
4.45028
4.42716
4.40412
4.3812
4.35836
4.33562
4.31297
4.29043
4.26798
4.24563
4.22336
4.2012
4.17913
4.15716
4.13527
4.11349
4.0918
4.0702
4.04869
4.02728
4.00596
3.98473
3.96359
3.94255
3.92159
3.90073
3.87996
3.85928
3.83869
3.81819
3.79778
3.77746
3.75723
3.73709
3.71703
3.69707
3.67719
3.6574
3.6377
3.61809
3.59856
3.57912
3.55977
3.5405
3.52132
3.50223
3.48322
3.4643
3.44546
3.4267
3.40803
3.38945
3.37095
3.35253
3.3342
3.31595
3.29778
3.2797
3.2617
3.24378
3.22594
3.20819
3.19051
3.17292
3.15541
3.13798
3.12063
3.10336
3.08618
3.06907
3.05204
3.03509
3.01822
3.00143
2.98472
2.96809
2.95154
2.93507
2.91867
2.90235
2.88611
2.86995
2.85386
2.83786
2.82193
2.80607
2.7903
2.7746
2.75897
2.74343
2.72796
2.71257
2.69725
2.682
2.66684
2.65175
2.63673
2.62179
2.60692
2.59214
2.57742
2.56278
2.54822
2.53373
2.51931
2.50497
2.49071
2.47652
2.4624
2.44836
2.43439
2.4205
2.40668
2.39294
2.37927
2.36568
2.35216
2.33872
2.32535
2.31206
2.29884
2.2857
2.27263
2.25964
2.24672
2.23388
2.22112
2.20843
2.19582
2.18329
2.17084
2.15846
2.14616
2.13394
2.1218
2.10974
2.09776
2.08586
2.07404
2.0623
2.05065
2.03907
2.02758
2.01618
2.00486
1.99363
1.98248
1.97142
1.96045
1.94957
1.93879
1.92809
1.91749
1.90698
1.89657
1.88625
1.87604
1.86592
1.85591
1.846
1.8362
1.8265
1.81691
1.80744
1.79807
1.78882
1.77969
1.77068
1.76179
1.75303
1.74439
1.73589
1.72751
1.71927
1.71117
1.70321
1.69539
1.68772
1.6802
1.67283
1.66562
1.65856
1.65166
1.64493
1.63836
1.63196
1.62574
1.61968
1.61381
1.60811
1.60259
1.59725
1.59209
1.58712
1.58234
1.57773
1.57332
1.56908
1.56504
1.56117
1.55749
1.55399
1.55066
1.54751
1.54453
1.54172
1.53907
1.53658
1.53425
1.53206
1.53002
1.52812
1.52634
1.5247
1.52317
1.52176
1.52045
1.51924
1.51812
1.51709
1.51614
1.51527
1.51446
1.51372
1.51303
1.5124
1.5118
1.51125
1.51072
1.51025
1.50977
1.50935
1.50892
1.50852
1.50812
1.50775
1.50737
1.507
1.50663
1.50626
1.50589
1.50552
1.50513
1.50474
1.50434
1.50394
1.50352
1.5031
1.50265
1.5022
1.50172
1.50123
1.50073
1.5002
1.49965
1.49907
1.49848
1.49786
1.49722
1.49653
1.49584
1.49509
1.49433
1.49351
1.49267
1.49176
1.49083
1.4898
1.48873
1.48754
1.48628
1.48488
1.48334
1.48162
1.47969
1.47751
1.47502
1.47221
1.46896
1.46527
1.461
1.45615
1.45056
1.44423
1.43699
1.42884
1.41961
1.4093
1.39775
1.38497
1.37082
1.35532
1.33838
1.32001
1.30018
1.27892
1.25625
1.23222
1.2069
1.18037
1.15274
1.12414
1.0947
1.06456
1.03389
1.00285
0.971632
0.940393
0.909314
0.878571
0.848316
0.818693
0.789876
0.761983
0.735118
0.709396
0.684884
0.661646
0.639727
0.619156
0.599946
0.582093
0.565581
0.550382
0.536456
0.523755
0.512226
0.501804
0.492427
0.484025
0.476531
0.469875
0.463991
0.458811
0.454269
0.450303
0.446857
0.443874
0.441303
0.439098
0.437215
0.435614
0.434259
0.433118
0.432161
0.431364
0.430703
0.430157
0.42971
0.429346
0.429052
0.428816
0.428628
0.42848
0.428365
0.428278
0.428211
0.428163
0.428129
0.428106
0.428091
0.428084
0.428081
0.428082
0.428086
0.428092
0.4281
0.42811
0.42812
0.42813
0.428141
0.428152
0.428162
0.428172
0.428182
0.428192
0.428202
0.428211
0.42822
0.428228
0.428236
0.428243
0.42825
0.428257
0.428263
0.428269
0.428275
0.428281
0.428286
0.428292
0.428298
0.428304
0.428309
0.428315
0.428321
0.428326
0.428332
0.428337
0.428343
0.428349
0.428354
0.428359
0.428365
0.42837
0.428375
0.428379
0.428384
0.428389
0.428393
0.428399
0.428404
0.42841
0.428415
0.42842
0.428425
0.428429
0.428433
0.428438
0.428438
0.428443
0.428435
0.428443
0.42841
0.428416
0.428299
0.428313
0.428079
0.427817
0.427331
0.426073
0.424002
0.419581
0.411205
0.395044
0.366931
0.321654
0.258822
0.192709
0.147944
0.129898
0.125548
0.124823
0.124715
0.124699
0.124697
0.124697
0.124697
0.124697
0.124697
0.124697
0.124697
0.124697
0.124697
0.124697
0.124697
0.124697
0.124697
0.124697
0.124697
0.124697
0.124697
0.124697
0.124697
0.124697
0.124697
0.124697
0.124697
0.124697
0.124697
0.124697
0.124697
0.124697
0.124697
0.124697
0.124697
0.124697
0.124697
0.124697
0.124697
0.124697
0.124697
0.124697
0.124697
0.124697
0.124697
0.124697
0.124697
0.124697
0.124697
0.124697
0.124697
0.124697
0.124697
0.124697
0.124697
0.124697
0.124697
0.124697
0.124697
0.124697
0.124697
0.124697
0.124697
0.124697
0.124697
0.124697
0.124697
0.124697
0.124697
0.124697
0.124697
0.124697
0.124697
0.124697
0.124697
0.124697
0.124697
0.124697
0.124697
)
;

boundaryField
{
    sides
    {
        type            calculated;
        value           nonuniform List<scalar> 2(0.124697 9.97574);
    }
    empty
    {
        type            empty;
    }
}


// ************************************************************************* //
