/*--------------------------------*- C++ -*----------------------------------*\
  =========                 |
  \\      /  F ield         | OpenFOAM: The Open Source CFD Toolbox
   \\    /   O peration     | Website:  https://openfoam.org
    \\  /    A nd           | Version:  7
     \\/     M anipulation  |
\*---------------------------------------------------------------------------*/
FoamFile
{
    version     2.0;
    format      ascii;
    class       volScalarField;
    location    "0.005";
    object      T;
}
// * * * * * * * * * * * * * * * * * * * * * * * * * * * * * * * * * * * * * //

dimensions      [0 0 0 1 0 0 0];

internalField   nonuniform List<scalar> 
1000
(
348.432
348.432
348.432
348.432
348.432
348.432
348.432
348.432
348.432
348.432
348.432
348.432
348.432
348.432
348.432
348.432
348.432
348.432
348.432
348.432
348.432
348.432
348.432
348.432
348.432
348.432
348.432
348.432
348.432
348.432
348.432
348.432
348.432
348.432
348.432
348.432
348.432
348.432
348.432
348.432
348.432
348.432
348.432
348.432
348.432
348.432
348.432
348.432
348.432
348.432
348.432
348.432
348.432
348.432
348.432
348.432
348.432
348.432
348.432
348.432
348.432
348.432
348.432
348.432
348.432
348.432
348.432
348.432
348.432
348.432
348.432
348.432
348.432
348.432
348.432
348.432
348.432
348.432
348.432
348.432
348.432
348.432
348.432
348.432
348.432
348.432
348.432
348.432
348.432
348.432
348.432
348.432
348.432
348.432
348.432
348.432
348.432
348.432
348.432
348.432
348.432
348.432
348.432
348.432
348.432
348.432
348.432
348.432
348.432
348.432
348.432
348.432
348.432
348.432
348.432
348.432
348.432
348.432
348.432
348.432
348.432
348.432
348.432
348.432
348.432
348.432
348.432
348.432
348.432
348.432
348.432
348.432
348.432
348.432
348.432
348.432
348.432
348.432
348.432
348.432
348.432
348.432
348.432
348.432
348.432
348.432
348.432
348.432
348.432
348.432
348.432
348.432
348.432
348.432
348.432
348.432
348.432
348.432
348.432
348.432
348.432
348.432
348.432
348.432
348.432
348.432
348.432
348.432
348.432
348.432
348.432
348.432
348.432
348.432
348.432
348.432
348.432
348.432
348.432
348.432
348.432
348.432
348.432
348.432
348.432
348.432
348.432
348.432
348.432
348.432
348.432
348.432
348.432
348.432
348.432
348.432
348.432
348.432
348.432
348.432
348.432
348.432
348.432
348.432
348.432
348.432
348.432
348.432
348.432
348.432
348.432
348.432
348.432
348.432
348.432
348.432
348.432
348.432
348.432
348.432
348.432
348.432
348.432
348.432
348.432
348.432
348.432
348.432
348.432
348.432
348.432
348.432
348.432
348.432
348.432
348.432
348.432
348.432
348.432
348.432
348.432
348.432
348.432
348.432
348.432
348.432
348.432
348.432
348.432
348.432
348.432
348.432
348.432
348.432
348.432
348.432
348.432
348.432
348.432
348.432
348.432
348.432
348.432
348.432
348.432
348.432
348.432
348.432
348.432
348.432
348.432
348.432
348.432
348.432
348.432
348.431
348.431
348.431
348.43
348.429
348.428
348.426
348.424
348.42
348.416
348.41
348.402
348.392
348.38
348.363
348.342
348.316
348.283
348.243
348.194
348.135
348.065
347.982
347.885
347.773
347.644
347.498
347.334
347.151
346.948
346.725
346.483
346.22
345.939
345.638
345.319
344.983
344.629
344.259
343.875
343.475
343.063
342.638
342.202
341.755
341.297
340.831
340.356
339.873
339.383
338.886
338.383
337.875
337.361
336.842
336.319
335.792
335.26
334.726
334.188
333.646
333.102
332.556
332.007
331.455
330.902
330.346
329.789
329.23
328.669
328.107
327.544
326.979
326.413
325.846
325.278
324.709
324.139
323.568
322.997
322.425
321.852
321.279
320.705
320.131
319.557
318.982
318.407
317.831
317.255
316.68
316.104
315.527
314.951
314.375
313.799
313.222
312.646
312.07
311.494
310.917
310.341
309.766
309.19
308.614
308.039
307.464
306.889
306.314
305.739
305.165
304.591
304.018
303.444
302.871
302.298
301.726
301.153
300.582
300.01
299.439
298.868
298.298
297.728
297.158
296.589
296.02
295.451
294.883
294.316
293.748
293.183
292.613
292.054
291.476
290.933
290.332
289.825
289.177
288.73
288.017
287.633
286.88
286.504
285.784
285.34
284.715
284.175
283.624
283.055
282.493
281.96
281.369
280.841
280.271
279.719
279.162
278.616
278.049
277.508
276.949
276.399
275.844
275.299
274.743
274.195
273.645
273.098
272.547
272.001
271.453
270.907
270.359
269.815
269.269
268.725
268.18
267.638
267.095
266.553
266.01
265.47
264.929
264.389
263.849
263.311
262.772
262.235
261.697
261.161
260.625
260.089
259.554
259.02
258.486
257.953
257.42
256.888
256.357
255.826
255.296
254.766
254.237
253.709
253.181
252.654
252.127
251.601
251.075
250.55
250.026
249.502
248.979
248.456
247.935
247.413
246.893
246.372
245.853
245.334
244.816
244.298
243.781
243.264
242.748
242.233
241.719
241.204
240.691
240.178
239.666
239.154
238.643
238.133
237.623
237.114
236.606
236.098
235.591
235.084
234.578
234.072
233.568
233.064
232.56
232.057
231.555
231.053
230.553
230.052
229.553
229.054
228.555
228.057
227.56
227.064
226.568
226.073
225.579
225.085
224.592
224.099
223.607
223.116
222.626
222.136
221.647
221.158
220.671
220.183
219.697
219.211
218.726
218.242
217.758
217.275
216.793
216.311
215.83
215.35
214.87
214.392
213.914
213.436
212.96
212.484
212.009
211.534
211.061
210.588
210.115
209.644
209.173
208.703
208.234
207.766
207.298
206.832
206.366
205.9
205.436
204.973
204.51
204.048
203.587
203.127
202.667
202.209
201.751
201.294
200.839
200.384
199.93
199.477
199.025
198.573
198.123
197.674
197.226
196.778
196.332
195.887
195.443
194.999
194.558
194.117
193.677
193.238
192.801
192.364
191.929
191.495
191.063
190.632
190.202
189.773
189.346
188.92
188.496
188.073
187.651
187.231
186.813
186.396
185.981
185.568
185.157
184.747
184.339
183.934
183.53
183.128
182.728
182.331
181.935
181.542
181.152
180.763
180.378
179.995
179.615
179.237
178.863
178.491
178.123
177.758
177.396
177.038
176.683
176.332
175.985
175.642
175.303
174.968
174.638
174.312
173.991
173.675
173.364
173.058
172.758
172.463
172.174
171.891
171.614
171.343
171.079
170.821
170.571
170.327
170.09
169.861
169.639
169.425
169.218
169.019
168.828
168.645
168.47
168.304
168.145
167.995
167.852
167.718
167.592
167.474
167.364
167.262
167.167
167.08
167
166.928
166.862
166.803
166.751
166.704
166.664
166.629
166.6
166.576
166.557
166.542
166.531
166.525
166.523
166.525
166.528
166.534
166.545
166.557
166.573
166.589
166.61
166.63
166.654
166.678
166.706
166.733
166.764
166.794
166.827
166.86
166.896
166.932
166.971
167.009
167.05
167.092
167.136
167.18
167.226
167.274
167.323
167.374
167.427
167.482
167.538
167.597
167.658
167.721
167.786
167.855
167.925
167.999
168.075
168.156
168.238
168.326
168.415
168.511
168.609
168.716
168.826
168.946
169.071
169.209
169.356
169.519
169.698
169.898
170.123
170.377
170.667
170.996
171.378
171.812
172.317
172.893
173.562
174.325
175.205
176.207
177.354
178.654
180.132
181.796
183.674
185.776
188.129
190.748
193.658
196.878
200.432
204.341
208.63
213.319
218.433
223.992
230.019
236.532
243.551
251.09
259.161
267.773
276.929
286.627
296.854
307.597
318.826
330.504
342.588
355.019
367.735
380.66
393.713
406.803
419.839
432.726
445.369
457.678
469.568
480.963
491.798
502.02
511.587
520.473
528.663
536.155
542.958
549.094
554.588
559.476
563.794
567.586
570.895
573.765
576.238
578.359
580.166
581.697
582.986
584.067
584.966
585.711
586.323
586.824
587.23
587.557
587.819
588.026
588.189
588.314
588.41
588.482
588.535
588.572
588.597
588.613
588.621
588.624
588.623
588.62
588.614
588.605
588.596
588.587
588.577
588.568
588.559
588.551
588.543
588.536
588.53
588.524
588.519
588.514
588.509
588.505
588.502
588.499
588.496
588.493
588.491
588.489
588.488
588.486
588.485
588.484
588.483
588.483
588.482
588.482
588.482
588.482
588.482
588.482
588.483
588.483
588.483
588.484
588.484
588.484
588.484
588.484
588.483
588.483
588.483
588.482
588.482
588.481
588.48
588.478
588.476
588.472
588.473
588.466
588.473
588.447
588.459
588.393
588.442
588.287
588.402
587.914
588.056
586.416
585.153
581.05
573.807
559.811
532.638
486.691
416.711
343.708
297.139
282.108
279.3
278.835
278.76
278.748
278.746
278.746
278.746
278.746
278.746
278.746
278.746
278.746
278.746
278.746
278.746
278.746
278.746
278.746
278.746
278.746
278.746
278.746
278.746
278.746
278.746
278.746
278.746
278.746
278.746
278.746
278.746
278.746
278.746
278.746
278.746
278.746
278.746
278.746
278.746
278.746
278.746
278.746
278.746
278.746
278.746
278.746
278.746
278.746
278.746
278.746
278.746
278.746
278.746
278.746
278.746
278.746
278.746
278.746
278.746
278.746
278.746
278.746
278.746
278.746
278.746
278.746
278.746
278.746
278.746
278.746
278.746
278.746
278.746
278.746
278.746
278.746
278.746
278.746
278.746
)
;

boundaryField
{
    sides
    {
        type            zeroGradient;
    }
    empty
    {
        type            empty;
    }
}


// ************************************************************************* //
