/*--------------------------------*- C++ -*----------------------------------*\
  =========                 |
  \\      /  F ield         | OpenFOAM: The Open Source CFD Toolbox
   \\    /   O peration     | Website:  https://openfoam.org
    \\  /    A nd           | Version:  7
     \\/     M anipulation  |
\*---------------------------------------------------------------------------*/
FoamFile
{
    version     2.0;
    format      ascii;
    class       volVectorField;
    location    "0.005";
    object      U;
}
// * * * * * * * * * * * * * * * * * * * * * * * * * * * * * * * * * * * * * //

dimensions      [0 1 -1 0 0 0 0];

internalField   nonuniform List<vector> 
1000
(
(-7.4687e-13 0 0)
(-4.08444e-13 0 0)
(-5.48482e-13 0 0)
(-7.352e-13 0 0)
(-8.28559e-13 0 0)
(-8.75238e-13 0 0)
(-8.86908e-13 0 0)
(-6.65181e-13 0 0)
(-6.53511e-13 0 0)
(-5.13473e-13 0 0)
(-6.41841e-13 0 0)
(-5.25143e-13 0 0)
(-3.15086e-13 0 0)
(-3.03416e-13 0 0)
(-4.08444e-13 0 0)
(-6.41841e-13 0 0)
(-2.91746e-13 0 0)
(-3.50095e-13 0 0)
(-1.98387e-13 0 0)
(-5.95162e-13 0 0)
(-3.61765e-13 0 0)
(-6.18502e-13 0 0)
(-2.21727e-13 0 0)
(-2.68406e-13 0 0)
(-1.75048e-13 0 0)
(-1.98387e-13 0 0)
(-1.98387e-13 0 0)
(-3.03416e-13 0 0)
(-4.43454e-13 0 0)
(-1.75048e-13 0 0)
(-4.90133e-13 0 0)
(-1.98387e-13 0 0)
(-1.75048e-13 0 0)
(-4.43454e-13 0 0)
(-3.03416e-13 0 0)
(-2.33397e-13 0 0)
(-3.96775e-13 0 0)
(-4.08444e-13 0 0)
(-2.45067e-13 0 0)
(-2.80076e-13 0 0)
(-1.40038e-13 0 0)
(-1.75048e-13 0 0)
(-1.16698e-14 0 0)
(-1.98387e-13 0 0)
(-1.40038e-13 0 0)
(-2.61113e-27 0 0)
(7.0019e-14 0 0)
(1.16698e-13 0 0)
(-1.28368e-13 0 0)
(-3.85105e-13 0 0)
(-1.75048e-13 0 0)
(-2.45067e-13 0 0)
(-1.16698e-13 0 0)
(-1.98387e-13 0 0)
(1.28368e-13 0 0)
(-1.16698e-13 0 0)
(-2.33397e-14 0 0)
(1.16698e-14 0 0)
(-2.91746e-13 0 0)
(-4.20114e-13 0 0)
(-1.86717e-13 0 0)
(-4.78463e-13 0 0)
(-3.15086e-13 0 0)
(-3.50095e-13 0 0)
(-2.68406e-13 0 0)
(-4.20114e-13 0 0)
(-1.51708e-13 0 0)
(-3.15086e-13 0 0)
(2.33397e-14 0 0)
(-4.66794e-14 0 0)
(2.68406e-13 0 0)
(2.33397e-13 0 0)
(-5.83492e-14 0 0)
(-1.28368e-13 0 0)
(-1.86717e-13 0 0)
(-1.51708e-13 0 0)
(-3.15086e-13 0 0)
(-3.26756e-13 0 0)
(-1.40038e-13 0 0)
(4.66794e-14 0 0)
(-9.33587e-14 0 0)
(-1.63378e-13 0 0)
(-1.75048e-13 0 0)
(-2.10057e-13 0 0)
(-2.33397e-13 0 0)
(-3.73435e-13 0 0)
(-4.78463e-13 0 0)
(-5.36813e-13 0 0)
(-2.21727e-13 0 0)
(-4.31784e-13 0 0)
(-3.38425e-13 0 0)
(-5.48482e-13 0 0)
(-2.80076e-13 0 0)
(-1.51708e-13 0 0)
(-3.85105e-13 0 0)
(-1.86717e-13 0 0)
(-5.25143e-13 0 0)
(-7.0019e-14 0 0)
(-3.50095e-13 0 0)
(2.56736e-13 0 0)
(1.16698e-14 0 0)
(4.43454e-13 0 0)
(2.33397e-14 0 0)
(4.20114e-13 0 0)
(-9.33587e-14 0 0)
(2.56736e-13 0 0)
(1.28368e-13 0 0)
(7.0019e-14 0 0)
(2.33397e-14 0 0)
(-5.83492e-14 0 0)
(-8.16889e-14 0 0)
(-1.40038e-13 0 0)
(-1.63378e-13 0 0)
(3.50095e-14 0 0)
(-1.51708e-13 0 0)
(-2.80076e-13 0 0)
(-1.16698e-13 0 0)
(-8.16889e-14 0 0)
(-2.80076e-13 0 0)
(-8.16889e-14 0 0)
(-1.16698e-13 0 0)
(-1.05029e-13 0 0)
(-2.21727e-13 0 0)
(-5.36813e-13 0 0)
(-1.51708e-13 0 0)
(-2.68406e-13 0 0)
(-2.33397e-14 0 0)
(-2.56736e-13 0 0)
(-2.80076e-13 0 0)
(-5.25143e-13 0 0)
(-2.68406e-13 0 0)
(-4.31784e-13 0 0)
(-2.68406e-13 0 0)
(-3.61765e-13 0 0)
(-2.80076e-13 0 0)
(-1.63378e-13 0 0)
(-2.68406e-13 0 0)
(-1.16698e-13 0 0)
(-3.73435e-13 0 0)
(-2.10057e-13 0 0)
(-4.08444e-13 0 0)
(5.83492e-14 0 0)
(-8.16889e-14 0 0)
(8.16889e-14 0 0)
(-3.73435e-13 0 0)
(1.63378e-13 0 0)
(-5.83492e-14 0 0)
(1.05029e-13 0 0)
(-1.51708e-13 0 0)
(9.33587e-14 0 0)
(-3.50095e-14 0 0)
(4.31784e-13 0 0)
(-3.50095e-14 0 0)
(3.26756e-13 0 0)
(-2.21727e-13 0 0)
(8.16889e-14 0 0)
(-2.56736e-13 0 0)
(2.33397e-14 0 0)
(-2.33397e-14 0 0)
(1.63378e-13 0 0)
(1.16698e-14 0 0)
(7.0019e-14 0 0)
(-5.83492e-14 0 0)
(-7.0019e-14 0 0)
(-2.68406e-13 0 0)
(-1.75048e-13 0 0)
(-1.63378e-13 0 0)
(-7.0019e-14 0 0)
(-1.51708e-13 0 0)
(-1.51708e-13 0 0)
(5.83492e-14 0 0)
(-1.51708e-13 0 0)
(1.05029e-13 0 0)
(1.16698e-13 0 0)
(-2.56736e-13 0 0)
(-2.56736e-13 0 0)
(5.83492e-14 0 0)
(-1.16698e-14 0 0)
(4.66794e-13 0 0)
(1.40038e-13 0 0)
(4.78463e-13 0 0)
(1.51708e-13 0 0)
(3.15086e-13 0 0)
(-1.16698e-14 0 0)
(3.96775e-13 0 0)
(1.40038e-13 0 0)
(1.16698e-13 0 0)
(-1.86717e-13 0 0)
(-7.0019e-14 0 0)
(-1.40038e-13 0 0)
(-3.50095e-14 0 0)
(-1.86717e-13 0 0)
(-3.50095e-14 0 0)
(-8.16889e-14 0 0)
(-4.08444e-13 0 0)
(-8.16889e-14 0 0)
(3.50095e-14 0 0)
(1.28368e-13 0 0)
(-1.28368e-13 0 0)
(1.40038e-13 0 0)
(-2.68406e-13 0 0)
(1.28368e-13 0 0)
(-1.05029e-13 0 0)
(1.98387e-13 0 0)
(-2.45067e-13 0 0)
(1.86717e-13 0 0)
(-2.68406e-13 0 0)
(1.16698e-13 0 0)
(-2.91746e-13 0 0)
(-3.50095e-14 0 0)
(-8.16889e-14 0 0)
(8.16889e-14 0 0)
(-3.15086e-13 0 0)
(1.16698e-13 0 0)
(-3.15086e-13 0 0)
(-3.15086e-13 0 0)
(-3.03416e-13 0 0)
(-2.10057e-13 0 0)
(1.16698e-14 0 0)
(-1.98387e-13 0 0)
(-8.16889e-14 0 0)
(1.05029e-13 0 0)
(1.28368e-13 0 0)
(1.75048e-13 0 0)
(2.45067e-13 0 0)
(-1.16698e-13 0 0)
(-8.16889e-14 0 0)
(-3.50095e-14 0 0)
(-8.16889e-14 0 0)
(3.50095e-14 0 0)
(1.86717e-13 0 0)
(4.78463e-13 0 0)
(5.60152e-13 0 0)
(1.17865e-12 0 0)
(1.87884e-12 0 0)
(3.03416e-12 0 0)
(5.33312e-12 0 0)
(9.72098e-12 0 0)
(1.79249e-11 0 0)
(3.26172e-11 0 0)
(5.94228e-11 0 0)
(1.07339e-10 0 0)
(1.93019e-10 0 0)
(3.45089e-10 0 0)
(6.13297e-10 0 0)
(1.08459e-09 0 0)
(1.90711e-09 0 0)
(3.33578e-09 0 0)
(5.80233e-09 0 0)
(1.00394e-08 0 0)
(1.72742e-08 0 0)
(2.95612e-08 0 0)
(5.03052e-08 0 0)
(8.5127e-08 0 0)
(1.43236e-07 0 0)
(2.39634e-07 0 0)
(3.9859e-07 0 0)
(6.59117e-07 0 0)
(1.0835e-06 0 0)
(1.77049e-06 0 0)
(2.87564e-06 0 0)
(4.64215e-06 0 0)
(7.44763e-06 0 0)
(1.18741e-05 0 0)
(1.88121e-05 0 0)
(2.96138e-05 0 0)
(4.63168e-05 0 0)
(7.19678e-05 0 0)
(0.000111086 0 0)
(0.00017032 0 0)
(0.000259371 0 0)
(0.000392274 0 0)
(0.00058916 0 0)
(0.000878645 0 0)
(0.00130104 0 0)
(0.0019126 0 0)
(0.00279108 0 0)
(0.00404291 0 0)
(0.00581227 0 0)
(0.00829245 0 0)
(0.0117398 0 0)
(0.0164906 0 0)
(0.0229806 0 0)
(0.0317681 0 0)
(0.0435595 0 0)
(0.0592366 0 0)
(0.079886 0 0)
(0.106828 0 0)
(0.141641 0 0)
(0.186189 0 0)
(0.242632 0 0)
(0.313435 0 0)
(0.401357 0 0)
(0.509436 0 0)
(0.640947 0 0)
(0.799349 0 0)
(0.988216 0 0)
(1.21115 0 0)
(1.47169 0 0)
(1.77323 0 0)
(2.11888 0 0)
(2.51142 0 0)
(2.95322 0 0)
(3.44614 0 0)
(3.99153 0 0)
(4.59021 0 0)
(5.24244 0 0)
(5.94799 0 0)
(6.70612 0 0)
(7.51569 0 0)
(8.3752 0 0)
(9.28281 0 0)
(10.2365 0 0)
(11.234 0 0)
(12.2731 0 0)
(13.3514 0 0)
(14.4665 0 0)
(15.616 0 0)
(16.7978 0 0)
(18.0096 0 0)
(19.2494 0 0)
(20.5151 0 0)
(21.8049 0 0)
(23.1171 0 0)
(24.4501 0 0)
(25.8024 0 0)
(27.1726 0 0)
(28.5594 0 0)
(29.9617 0 0)
(31.3784 0 0)
(32.8086 0 0)
(34.2513 0 0)
(35.7058 0 0)
(37.1712 0 0)
(38.6469 0 0)
(40.1323 0 0)
(41.6267 0 0)
(43.1297 0 0)
(44.6407 0 0)
(46.1593 0 0)
(47.6851 0 0)
(49.2176 0 0)
(50.7565 0 0)
(52.3015 0 0)
(53.8523 0 0)
(55.4084 0 0)
(56.9697 0 0)
(58.5359 0 0)
(60.1067 0 0)
(61.682 0 0)
(63.2613 0 0)
(64.8447 0 0)
(66.4318 0 0)
(68.0225 0 0)
(69.6166 0 0)
(71.2139 0 0)
(72.8143 0 0)
(74.4176 0 0)
(76.0236 0 0)
(77.6323 0 0)
(79.2435 0 0)
(80.8571 0 0)
(82.473 0 0)
(84.091 0 0)
(85.7111 0 0)
(87.3332 0 0)
(88.9571 0 0)
(90.5828 0 0)
(92.2102 0 0)
(93.8393 0 0)
(95.4698 0 0)
(97.1019 0 0)
(98.7354 0 0)
(100.37 0 0)
(102.006 0 0)
(103.644 0 0)
(105.282 0 0)
(106.922 0 0)
(108.563 0 0)
(110.204 0 0)
(111.847 0 0)
(113.491 0 0)
(115.135 0 0)
(116.781 0 0)
(118.427 0 0)
(120.074 0 0)
(121.722 0 0)
(123.371 0 0)
(125.02 0 0)
(126.67 0 0)
(128.321 0 0)
(129.972 0 0)
(131.624 0 0)
(133.276 0 0)
(134.929 0 0)
(136.583 0 0)
(138.237 0 0)
(139.891 0 0)
(141.546 0 0)
(143.202 0 0)
(144.857 0 0)
(146.514 0 0)
(148.17 0 0)
(149.827 0 0)
(151.485 0 0)
(153.142 0 0)
(154.8 0 0)
(156.459 0 0)
(158.117 0 0)
(159.776 0 0)
(161.435 0 0)
(163.095 0 0)
(164.754 0 0)
(166.414 0 0)
(168.075 0 0)
(169.735 0 0)
(171.396 0 0)
(173.055 0 0)
(174.717 0 0)
(176.377 0 0)
(178.039 0 0)
(179.7 0 0)
(181.362 0 0)
(183.024 0 0)
(184.685 0 0)
(186.347 0 0)
(188.009 0 0)
(189.672 0 0)
(191.334 0 0)
(192.996 0 0)
(194.659 0 0)
(196.322 0 0)
(197.984 0 0)
(199.647 0 0)
(201.31 0 0)
(202.973 0 0)
(204.636 0 0)
(206.298 0 0)
(207.962 0 0)
(209.625 0 0)
(211.288 0 0)
(212.951 0 0)
(214.614 0 0)
(216.277 0 0)
(217.94 0 0)
(219.603 0 0)
(221.266 0 0)
(222.93 0 0)
(224.593 0 0)
(226.256 0 0)
(227.919 0 0)
(229.582 0 0)
(231.245 0 0)
(232.908 0 0)
(234.571 0 0)
(236.234 0 0)
(237.897 0 0)
(239.56 0 0)
(241.223 0 0)
(242.886 0 0)
(244.548 0 0)
(246.211 0 0)
(247.874 0 0)
(249.536 0 0)
(251.199 0 0)
(252.861 0 0)
(254.524 0 0)
(256.186 0 0)
(257.848 0 0)
(259.51 0 0)
(261.172 0 0)
(262.834 0 0)
(264.496 0 0)
(266.158 0 0)
(267.82 0 0)
(269.481 0 0)
(271.143 0 0)
(272.804 0 0)
(274.465 0 0)
(276.126 0 0)
(277.787 0 0)
(279.448 0 0)
(281.109 0 0)
(282.77 0 0)
(284.43 0 0)
(286.091 0 0)
(287.751 0 0)
(289.411 0 0)
(291.071 0 0)
(292.731 0 0)
(294.391 0 0)
(296.051 0 0)
(297.71 0 0)
(299.369 0 0)
(301.028 0 0)
(302.687 0 0)
(304.346 0 0)
(306.005 0 0)
(307.664 0 0)
(309.322 0 0)
(310.98 0 0)
(312.638 0 0)
(314.296 0 0)
(315.954 0 0)
(317.611 0 0)
(319.268 0 0)
(320.925 0 0)
(322.582 0 0)
(324.239 0 0)
(325.896 0 0)
(327.552 0 0)
(329.208 0 0)
(330.864 0 0)
(332.52 0 0)
(334.175 0 0)
(335.83 0 0)
(337.485 0 0)
(339.14 0 0)
(340.795 0 0)
(342.449 0 0)
(344.103 0 0)
(345.757 0 0)
(347.411 0 0)
(349.064 0 0)
(350.717 0 0)
(352.37 0 0)
(354.023 0 0)
(355.675 0 0)
(357.327 0 0)
(358.979 0 0)
(360.63 0 0)
(362.282 0 0)
(363.932 0 0)
(365.583 0 0)
(367.233 0 0)
(368.883 0 0)
(370.533 0 0)
(372.182 0 0)
(373.831 0 0)
(375.48 0 0)
(377.128 0 0)
(378.776 0 0)
(380.424 0 0)
(382.071 0 0)
(383.718 0 0)
(385.365 0 0)
(387.011 0 0)
(388.657 0 0)
(390.302 0 0)
(391.947 0 0)
(393.591 0 0)
(395.235 0 0)
(396.879 0 0)
(398.522 0 0)
(400.165 0 0)
(401.807 0 0)
(403.449 0 0)
(405.09 0 0)
(406.731 0 0)
(408.371 0 0)
(410.011 0 0)
(411.65 0 0)
(413.288 0 0)
(414.926 0 0)
(416.563 0 0)
(418.2 0 0)
(419.836 0 0)
(421.472 0 0)
(423.107 0 0)
(424.741 0 0)
(426.374 0 0)
(428.007 0 0)
(429.639 0 0)
(431.27 0 0)
(432.901 0 0)
(434.53 0 0)
(436.159 0 0)
(437.787 0 0)
(439.414 0 0)
(441.041 0 0)
(442.666 0 0)
(444.29 0 0)
(445.914 0 0)
(447.536 0 0)
(449.157 0 0)
(450.777 0 0)
(452.396 0 0)
(454.014 0 0)
(455.631 0 0)
(457.246 0 0)
(458.86 0 0)
(460.473 0 0)
(462.085 0 0)
(463.695 0 0)
(465.303 0 0)
(466.91 0 0)
(468.516 0 0)
(470.12 0 0)
(471.722 0 0)
(473.322 0 0)
(474.921 0 0)
(476.518 0 0)
(478.112 0 0)
(479.705 0 0)
(481.296 0 0)
(482.884 0 0)
(484.47 0 0)
(486.054 0 0)
(487.636 0 0)
(489.214 0 0)
(490.79 0 0)
(492.364 0 0)
(493.934 0 0)
(495.502 0 0)
(497.066 0 0)
(498.628 0 0)
(500.185 0 0)
(501.74 0 0)
(503.29 0 0)
(504.837 0 0)
(506.38 0 0)
(507.919 0 0)
(509.454 0 0)
(510.984 0 0)
(512.509 0 0)
(514.029 0 0)
(515.545 0 0)
(517.055 0 0)
(518.559 0 0)
(520.058 0 0)
(521.55 0 0)
(523.037 0 0)
(524.517 0 0)
(525.989 0 0)
(527.455 0 0)
(528.913 0 0)
(530.363 0 0)
(531.806 0 0)
(533.239 0 0)
(534.664 0 0)
(536.079 0 0)
(537.485 0 0)
(538.88 0 0)
(540.265 0 0)
(541.639 0 0)
(543.001 0 0)
(544.352 0 0)
(545.689 0 0)
(547.014 0 0)
(548.325 0 0)
(549.622 0 0)
(550.904 0 0)
(552.171 0 0)
(553.422 0 0)
(554.656 0 0)
(555.873 0 0)
(557.072 0 0)
(558.252 0 0)
(559.413 0 0)
(560.555 0 0)
(561.675 0 0)
(562.775 0 0)
(563.852 0 0)
(564.907 0 0)
(565.938 0 0)
(566.945 0 0)
(567.928 0 0)
(568.885 0 0)
(569.817 0 0)
(570.722 0 0)
(571.6 0 0)
(572.45 0 0)
(573.273 0 0)
(574.067 0 0)
(574.832 0 0)
(575.569 0 0)
(576.276 0 0)
(576.954 0 0)
(577.602 0 0)
(578.22 0 0)
(578.809 0 0)
(579.369 0 0)
(579.9 0 0)
(580.402 0 0)
(580.875 0 0)
(581.321 0 0)
(581.739 0 0)
(582.13 0 0)
(582.496 0 0)
(582.836 0 0)
(583.152 0 0)
(583.444 0 0)
(583.713 0 0)
(583.961 0 0)
(584.188 0 0)
(584.396 0 0)
(584.585 0 0)
(584.757 0 0)
(584.912 0 0)
(585.052 0 0)
(585.178 0 0)
(585.291 0 0)
(585.391 0 0)
(585.48 0 0)
(585.558 0 0)
(585.627 0 0)
(585.688 0 0)
(585.741 0 0)
(585.786 0 0)
(585.826 0 0)
(585.86 0 0)
(585.889 0 0)
(585.913 0 0)
(585.934 0 0)
(585.951 0 0)
(585.966 0 0)
(585.977 0 0)
(585.987 0 0)
(585.994 0 0)
(586 0 0)
(586.004 0 0)
(586.008 0 0)
(586.01 0 0)
(586.012 0 0)
(586.013 0 0)
(586.013 0 0)
(586.012 0 0)
(586.012 0 0)
(586.011 0 0)
(586.009 0 0)
(586.008 0 0)
(586.007 0 0)
(586.005 0 0)
(586.004 0 0)
(586.002 0 0)
(586.001 0 0)
(585.999 0 0)
(585.998 0 0)
(585.996 0 0)
(585.995 0 0)
(585.994 0 0)
(585.993 0 0)
(585.992 0 0)
(585.991 0 0)
(585.99 0 0)
(585.989 0 0)
(585.988 0 0)
(585.988 0 0)
(585.987 0 0)
(585.987 0 0)
(585.986 0 0)
(585.986 0 0)
(585.986 0 0)
(585.986 0 0)
(585.986 0 0)
(585.986 0 0)
(585.986 0 0)
(585.986 0 0)
(585.986 0 0)
(585.986 0 0)
(585.987 0 0)
(585.987 0 0)
(585.987 0 0)
(585.987 0 0)
(585.988 0 0)
(585.988 0 0)
(585.988 0 0)
(585.988 0 0)
(585.988 0 0)
(585.987 0 0)
(585.987 0 0)
(585.986 0 0)
(585.985 0 0)
(585.983 0 0)
(585.981 0 0)
(585.978 0 0)
(585.975 0 0)
(585.971 0 0)
(585.967 0 0)
(585.962 0 0)
(585.957 0 0)
(585.951 0 0)
(585.945 0 0)
(585.938 0 0)
(585.931 0 0)
(585.924 0 0)
(585.918 0 0)
(585.911 0 0)
(585.906 0 0)
(585.9 0 0)
(585.896 0 0)
(585.896 0 0)
(585.896 0 0)
(585.895 0 0)
(585.896 0 0)
(585.896 0 0)
(585.899 0 0)
(585.903 0 0)
(585.909 0 0)
(585.917 0 0)
(585.926 0 0)
(585.936 0 0)
(585.947 0 0)
(585.959 0 0)
(585.97 0 0)
(585.982 0 0)
(585.993 0 0)
(586.003 0 0)
(586.014 0 0)
(586.024 0 0)
(586.033 0 0)
(586.041 0 0)
(586.047 0 0)
(586.052 0 0)
(586.056 0 0)
(586.061 0 0)
(586.065 0 0)
(586.069 0 0)
(586.072 0 0)
(586.075 0 0)
(586.078 0 0)
(586.081 0 0)
(586.084 0 0)
(586.087 0 0)
(586.089 0 0)
(586.092 0 0)
(586.095 0 0)
(586.098 0 0)
(586.101 0 0)
(586.103 0 0)
(586.106 0 0)
(586.109 0 0)
(586.111 0 0)
(586.113 0 0)
(586.116 0 0)
(586.118 0 0)
(586.12 0 0)
(586.123 0 0)
(586.125 0 0)
(586.127 0 0)
(586.13 0 0)
(586.133 0 0)
(586.135 0 0)
(586.138 0 0)
(586.141 0 0)
(586.144 0 0)
(586.148 0 0)
(586.151 0 0)
(586.155 0 0)
(586.159 0 0)
(586.162 0 0)
(586.165 0 0)
(586.169 0 0)
(586.172 0 0)
(586.175 0 0)
(586.178 0 0)
(586.181 0 0)
(586.184 0 0)
(586.187 0 0)
(586.19 0 0)
(586.193 0 0)
(586.197 0 0)
(586.2 0 0)
(586.204 0 0)
(586.208 0 0)
(586.211 0 0)
(586.215 0 0)
(586.219 0 0)
(586.223 0 0)
(586.227 0 0)
(586.231 0 0)
(586.235 0 0)
(586.239 0 0)
(586.243 0 0)
(586.246 0 0)
(586.25 0 0)
(586.254 0 0)
(586.258 0 0)
(586.261 0 0)
(586.265 0 0)
(586.269 0 0)
(586.273 0 0)
(586.277 0 0)
(586.281 0 0)
(586.286 0 0)
(586.29 0 0)
(586.295 0 0)
(586.301 0 0)
(586.306 0 0)
(586.311 0 0)
(586.316 0 0)
(586.321 0 0)
(586.326 0 0)
(586.33 0 0)
(586.335 0 0)
(586.339 0 0)
(586.343 0 0)
(586.346 0 0)
(586.348 0 0)
(586.348 0 0)
(586.343 0 0)
(586.335 0 0)
(586.315 0 0)
(586.296 0 0)
(586.256 0 0)
(586.226 0 0)
(586.101 0 0)
(586.024 0 0)
(585.697 0 0)
(585.206 0 0)
(584.183 0 0)
(581.978 0 0)
(577.778 0 0)
(569.163 0 0)
(552.089 0 0)
(518.816 0 0)
(456.595 0 0)
(348.295 0 0)
(196.076 0 0)
(67.3767 0 0)
(15.1599 0 0)
(2.77119 0 0)
(0.438772 0 0)
(0.066044 0 0)
(0.00987647 0 0)
(0.00147819 0 0)
(0.000221437 0 0)
(3.31862e-05 0 0)
(4.97435e-06 0 0)
(7.45659e-07 0 0)
(1.11777e-07 0 0)
(1.67561e-08 0 0)
(2.51179e-09 0 0)
(3.76761e-10 0 0)
(5.6555e-11 0 0)
(8.81074e-12 0 0)
(1.34203e-12 0 0)
(5.54318e-13 0 0)
(1.75048e-13 0 0)
(1.89635e-13 0 0)
(2.77159e-13 0 0)
(-1.45873e-14 0 0)
(-2.91746e-14 0 0)
(2.47984e-13 0 0)
(2.77159e-13 0 0)
(2.91746e-14 0 0)
(8.75239e-14 0 0)
(1.45873e-13 0 0)
(2.77159e-13 0 0)
(2.62572e-13 0 0)
(2.62572e-13 0 0)
(5.83493e-14 0 0)
(4.3762e-14 0 0)
(-2.95034e-26 0 0)
(2.1881e-13 0 0)
(1.16699e-13 0 0)
(1.16699e-13 0 0)
(2.77159e-13 0 0)
(4.08445e-13 0 0)
(4.81382e-13 0 0)
(7.73128e-13 0 0)
(5.25144e-13 0 0)
(8.89827e-13 0 0)
(5.39731e-13 0 0)
(9.33589e-13 0 0)
(4.95969e-13 0 0)
(7.58541e-13 0 0)
(5.10556e-13 0 0)
(6.71017e-13 0 0)
(6.12667e-13 0 0)
(4.95969e-13 0 0)
(4.66794e-13 0 0)
(4.95969e-13 0 0)
(4.08445e-13 0 0)
(7.43953e-13 0 0)
(6.71017e-13 0 0)
(6.71017e-13 0 0)
(5.83493e-13 0 0)
(6.41842e-13 0 0)
(3.35508e-13 0 0)
(1.16699e-13 0 0)
(5.83493e-14 0 0)
(-1.45873e-14 0 0)
(-2.04222e-13 0 0)
(-2.77159e-13 0 0)
(-2.62572e-13 0 0)
(-1.45873e-14 0 0)
(-1.60461e-13 0 0)
(7.29366e-14 0 0)
(8.75239e-14 0 0)
(4.23032e-13 0 0)
(1.31286e-13 0 0)
(1.16699e-13 0 0)
(-7.29366e-14 0 0)
(3.20921e-13 0 0)
(-1.31286e-13 0 0)
(1.16699e-13 0 0)
(-7.29366e-14 0 0)
(3.33812e-27 0 0)
(-5.83493e-14 0 0)
)
;

boundaryField
{
    sides
    {
        type            zeroGradient;
    }
    empty
    {
        type            empty;
    }
}


// ************************************************************************* //
