/*--------------------------------*- C++ -*----------------------------------*\
  =========                 |
  \\      /  F ield         | OpenFOAM: The Open Source CFD Toolbox
   \\    /   O peration     | Website:  https://openfoam.org
    \\  /    A nd           | Version:  7
     \\/     M anipulation  |
\*---------------------------------------------------------------------------*/
FoamFile
{
    version     2.0;
    format      ascii;
    class       volScalarField;
    location    "2.7";
    object      p;
}
// * * * * * * * * * * * * * * * * * * * * * * * * * * * * * * * * * * * * * //

dimensions      [1 -1 -2 0 0 0 0];

internalField   nonuniform List<scalar> 
19968
(
1
1
1
1
1
1
1
1
1
1
1
1
1
1
1
1
1
1
1
1
1
1
1
1
1
1
1
1
1
1
1
1
1
1
1
1
1
1
1
1
1
1
1
1
1
1
1
1
1
4.80902
10.2389
10.4705
10.5103
10.5714
10.6334
10.6969
10.7553
10.8068
10.854
10.9022
10.9555
11.0132
11.0719
11.1266
11.1764
11.2233
11.2716
11.3207
11.3699
11.4172
11.4605
11.5014
11.5386
11.5722
11.6017
11.6282
11.6558
11.6866
11.7225
11.7629
11.8029
11.8386
11.8692
11.895
11.9169
11.9362
11.954
11.9705
11.9847
11.9961
12.0059
12.0155
12.0255
12.0327
12.038
12.046
1
1
1
1
1
1
1
1
1
1
1
1
1
1
1
1
1
1
1
1
1
1
1
1
1
1
1
1
1
1
1
1
1
1
1
1
1
1
1
1
1
1
1
1
1
1
1
1
1
4.72611
10.2026
10.4603
10.5078
10.5723
10.6357
10.6994
10.7575
10.809
10.8565
10.9051
10.9585
11.0151
11.0727
11.1265
11.1744
11.2197
11.2665
11.3147
11.364
11.4124
11.4578
11.5004
11.5379
11.5706
11.5985
11.6237
11.6506
11.6815
11.7178
11.7588
11.7992
11.8352
11.8656
11.8908
11.9118
11.9303
11.9476
11.9639
11.9781
11.9897
11.9998
12.0095
12.0194
12.0266
12.032
12.0397
1
1
1
1
1
1
1
1
1
1
1
1
1
1
1
1
1
1
1
1
1
1
1
1
1
1
1
1
1
1
1
1
1
1
1
1
1
1
1
1
1
1
1
1
1
1
1
1
1
4.54293
10.1455
10.4486
10.5
10.568
10.6331
10.6979
10.7564
10.8081
10.8561
10.9053
10.9585
11.0145
11.0715
11.1246
11.1706
11.2138
11.2583
11.3042
11.3533
11.4029
11.4509
11.4961
11.535
11.5672
11.5934
11.6166
11.6423
11.6728
11.7095
11.7512
11.7924
11.8289
11.8593
11.8839
11.9037
11.9209
11.9372
11.9531
11.9673
11.9792
11.9895
11.9986
12.0079
12.015
12.0211
12.0287
1
1
1
1
1
1
1
1
1
1
1
1
1
1
1
1
1
1
1
1
1
1
1
1
1
1
1
1
1
1
1
1
1
1
1
1
1
1
1
1
1
1
1
1
1
1
1
1
1
4.25287
10.0519
10.4385
10.4921
10.5622
10.6294
10.6952
10.7538
10.8052
10.8531
10.9024
10.9553
11.0108
11.0671
11.1193
11.1636
11.2044
11.2465
11.2896
11.3383
11.3893
11.4398
11.4875
11.5278
11.5598
11.5845
11.6058
11.63
11.6598
11.6969
11.7395
11.7815
11.8184
11.8486
11.8723
11.8909
11.9067
11.9218
11.9366
11.9504
11.9626
11.9731
11.9819
11.9904
11.9976
12.0037
12.0104
1
1
1
1
1
1
1
1
1
1
1
1
1
1
1
1
1
1
1
1
1
1
1
1
1
1
1
1
1
1
1
1
1
1
1
1
1
1
1
1
1
1
1
1
1
1
1
1
1
3.85465
9.90727
10.4312
10.4827
10.5516
10.6192
10.6865
10.7463
10.7981
10.8461
10.8949
10.9469
11.0015
11.0568
11.1087
11.1523
11.1913
11.2314
11.2722
11.3193
11.37
11.4214
11.4709
11.5124
11.545
11.5693
11.5891
11.6117
11.6406
11.6778
11.721
11.7637
11.8009
11.8308
11.8538
11.8717
11.8867
11.9006
11.914
11.9271
11.9394
11.9508
11.9605
11.9688
11.9759
11.981
11.9855
1
1
1
1
1
1
1
1
1
1
1
1
1
1
1
1
1
1
1
1
1
1
1
1
1
1
1
1
1
1
1
1
1
1
1
1
1
1
1
1
1
1
1
1
1
1
1
1
1
3.35435
9.68265
10.4218
10.4715
10.5383
10.6045
10.672
10.7328
10.7853
10.8329
10.8807
10.9312
10.9841
11.0382
11.0902
11.1343
11.1731
11.2126
11.2525
11.2973
11.3463
11.396
11.4451
11.4874
11.5213
11.5466
11.5666
11.5885
11.6168
11.6537
11.6966
11.739
11.7757
11.8048
11.8273
11.8447
11.8589
11.8713
11.8828
11.8947
11.9072
11.9207
11.9326
11.9412
11.9481
11.9512
11.9527
1
1
1
1
1
1
1
1
1
1
1
1
1
1
1
1
1
1
1
1
1
1
1
1
1
1
1
1
1
1
1
1
1
1
1
1
1
1
1
1
1
1
1
1
1
1
1
1
1
2.76644
9.35087
10.4199
10.4612
10.5267
10.5894
10.6549
10.7161
10.7693
10.8161
10.8617
10.9095
10.9599
11.0119
11.0638
11.1096
11.1496
11.1899
11.2298
11.2722
11.3187
11.3655
11.4126
11.4542
11.4886
11.5152
11.5363
11.5581
11.5858
11.6214
11.6626
11.7035
11.739
11.7675
11.7899
11.8074
11.8212
11.8321
11.8417
11.8528
11.8664
11.882
11.8963
11.906
11.9116
11.9123
11.9108
1
1
1
1
1
1
1
1
1
1
1
1
1
1
1
1
1
1
1
1
1
1
1
1
1
1
1
1
1
1
1
1
1
1
1
1
1
1
1
1
1
1
1
1
1
1
1
1
1
2.11334
8.79554
10.4223
10.4568
10.5154
10.5727
10.6351
10.6955
10.7495
10.7963
10.8403
10.8856
10.933
10.982
11.0325
11.0794
11.1206
11.1617
11.2018
11.242
11.2859
11.3296
11.3739
11.4144
11.4488
11.4768
11.4993
11.5216
11.5487
11.5828
11.6221
11.6613
11.6957
11.7236
11.7456
11.7624
11.7745
11.783
11.7903
11.8004
11.8145
11.8317
11.8473
11.8569
11.861
11.8594
11.8555
1
1
1
1
1
1
1
1
1
1
1
1
1
1
1
1
1
1
1
1
1
1
1
1
1
1
1
1
1
1
1
1
1
1
1
1
1
1
1
1
1
1
1
1
1
1
1
1
1
1.55673
8.01837
10.4241
10.4246
10.4778
10.5311
10.5921
10.6534
10.7098
10.7586
10.8026
10.847
10.8938
10.9419
10.992
11.0399
11.0824
11.1239
11.1645
11.2039
11.2459
11.2877
11.3298
11.3695
11.4035
11.432
11.4555
11.4778
11.5035
11.5352
11.5715
11.6082
11.6407
11.6668
11.687
11.7015
11.7112
11.7175
11.7239
11.7344
11.7498
11.7688
11.7859
11.7961
11.8
11.7978
11.7935
1
1
1
1
1
1
1
1
1
1
1
1
1
1
1
1
1
1
1
1
1
1
1
1
1
1
1
1
1
1
1
1
1
1
1
1
1
1
1
1
1
1
1
1
1
1
1
1
1
1.04504
6.83462
10.3924
10.4212
10.4723
10.5262
10.5845
10.6426
10.6961
10.7422
10.7823
10.8219
10.8642
10.9084
10.9551
11.0009
11.0417
11.0797
11.1171
11.1534
11.1918
11.2309
11.2696
11.3074
11.3402
11.3682
11.3915
11.4133
11.4373
11.4664
11.5001
11.5351
11.567
11.5934
11.6137
11.6278
11.6368
11.6427
11.6489
11.6593
11.6737
11.6911
11.7062
11.7139
11.7164
11.7131
11.7086
1
1
1
1
1
1
1
1
1
1
1
1
1
1
1
1
1
1
1
1
1
1
1
1
1
1
1
1
1
1
1
1
1
1
1
1
1
1
1
1
1
1
1
1
1
1
1
1
1
1.0002
5.31388
10.1387
10.295
10.3498
10.4173
10.4825
10.5456
10.6025
10.6512
10.6925
10.7322
10.7748
10.8196
10.8668
10.9132
10.9552
10.9928
11.0294
11.0653
11.1019
11.1396
11.1768
11.2142
11.2483
11.2774
11.3017
11.3239
11.3467
11.373
11.4029
11.4343
11.4637
11.4888
11.5082
11.5216
11.5299
11.5357
11.5423
11.5533
11.5679
11.5853
11.6001
11.6076
11.6108
11.6086
11.606
1
1
1
1
1
1
1
1
1
1
1
1
1
1
1
1
1
1
1
1
1
1
1
1
1
1
1
1
1
1
1
1
1
1
1
1
1
1
1
1
1
1
1
1
1
1
1
1
1
1
3.53191
9.62119
10.2532
10.3201
10.3874
10.4499
10.5097
10.5635
10.6095
10.6478
10.6833
10.7208
10.761
10.8041
10.8477
10.8878
10.9228
10.9557
10.9882
11.0206
11.0545
11.0879
11.1213
11.1533
11.1812
11.205
11.2262
11.2467
11.2681
11.2913
11.3158
11.3402
11.3631
11.3832
11.3988
11.4095
11.4172
11.4236
11.4317
11.4417
11.4521
11.4583
11.4591
11.457
11.452
11.4488
1
1
1
1
1
1
1
1
1
1
1
1
1
1
1
1
1
1
1
1
1
1
1
1
1
1
1
1
1
1
1
1
1
1
1
1
1
1
1
1
1
1
1
1
1
1
1
1
1
1
1.87907
8.38562
10.2719
10.2768
10.346
10.3993
10.4555
10.5074
10.5526
10.5899
10.6234
10.6572
10.6937
10.7336
10.7752
10.8139
10.8466
10.8755
10.9033
10.9306
10.9589
10.987
11.0146
11.0418
11.0667
11.0883
11.1075
11.125
11.1412
11.1566
11.172
11.1878
11.2047
11.2213
11.2347
11.243
11.2466
11.246
11.2457
11.2479
11.2527
11.2574
11.2582
11.257
11.2528
11.2509
1
1
1
1
1
1
1
1
1
1
1
1
1
1
1
1
1
1
1
1
1
1
1
1
1
1
1
1
1
1
1
1
1
1
1
1
1
1
1
1
1
1
1
1
1
1
1
1
1
1
1.02805
6.00364
10.2176
10.2635
10.2941
10.3376
10.3857
10.4333
10.4763
10.5124
10.5438
10.5738
10.6056
10.6416
10.6808
10.7185
10.7504
10.7765
10.7999
10.8219
10.844
10.8657
10.8864
10.9067
10.9261
10.9437
10.959
10.973
10.9844
10.9926
10.9993
11.0054
11.0129
11.0234
11.034
11.0414
11.0432
11.0388
11.0319
11.0243
11.0159
11.0052
10.9848
10.9582
10.928
10.9024
1
1
1
1
1
1
1
1
1
1
1
1
1
1
1
1
1
1
1
1
1
1
1
1
1
1
1
1
1
1
1
1
1
1
1
1
1
1
1
1
1
1
1
1
1
1
1
1
1
1
1.00003
3.24305
9.32927
10.1539
10.2
10.2478
10.2957
10.3419
10.3847
10.421
10.4513
10.478
10.5057
10.538
10.5753
10.6133
10.6463
10.6717
10.6917
10.7086
10.724
10.738
10.7511
10.7635
10.7751
10.7852
10.7937
10.8008
10.8056
10.8069
10.8043
10.798
10.7903
10.7852
10.7811
10.7741
10.758
10.7306
10.6923
10.6465
10.5976
10.5476
10.5036
10.4636
10.4406
10.4267
1
1
1
1
1
1
1
1
1
1
1
1
1
1
1
1
1
1
1
1
1
1
1
1
1
1
1
1
1
1
1
1
1
1
1
1
1
1
1
1
1
1
1
1
1
1
1
1
1
1
1
1.15364
7.13786
10.1668
10.1752
10.1893
10.2235
10.2618
10.3027
10.3384
10.3659
10.3867
10.4058
10.4283
10.4566
10.4885
10.5182
10.5412
10.5575
10.5696
10.5793
10.5853
10.5913
10.5948
10.5966
10.5971
10.5956
10.5919
10.5863
10.5775
10.5641
10.544
10.5183
10.491
10.4634
10.4335
10.3954
10.3454
10.2825
10.2105
10.1351
10.0602
9.97301
9.89125
9.77498
9.86654
1
1
1
1
1
1
1
1
1
1
1
1
1
1
1
1
1
1
1
1
1
1
1
1
1
1
1
1
1
1
1
1
1
1
1
1
1
1
1
1
1
1
1
1
1
1
1
1
1
1
1
0.998635
4.23571
9.55952
9.98115
10.035
10.0896
10.1373
10.1833
10.2214
10.2488
10.2675
10.2832
10.3013
10.325
10.3537
10.3832
10.408
10.4254
10.4359
10.4414
10.4403
10.4394
10.4365
10.4329
10.4266
10.4161
10.4015
10.3838
10.363
10.3375
10.3039
10.2606
10.2098
10.154
10.0933
10.0222
9.93315
9.81676
9.66794
9.47171
9.21533
8.83872
8.28545
7.36214
5.48341
1
1
1
1
1
1
1
1
1
1
1
1
1
1
1
1
1
1
1
1
1
1
1
1
1
1
1
1
1
1
1
1
1
1
1
1
1
1
1
1
1
1
1
1
1
1
1
1
1
1
1
0.999802
1.81778
8.08309
9.94567
9.94833
10.0015
10.0492
10.0973
10.1368
10.1657
10.1841
10.1978
10.2121
10.23
10.2524
10.2771
10.2998
10.3154
10.3227
10.3239
10.3159
10.3076
10.2978
10.2886
10.276
10.2581
10.2346
10.2058
10.1725
10.1341
10.0872
10.0283
9.95726
9.87513
9.78411
9.67793
9.55066
9.38359
9.17175
8.8827
8.5136
7.99228
7.34485
6.10298
4.5063
1
1
1
1
1
1
1
1
1
1
1
1
1
1
1
1
1
1
1
1
1
1
1
1
1
1
1
1
1
1
1
1
1
1
1
1
1
1
1
1
1
1
1
1
1
1
1
1
1
1
1
0.999988
1.02565
5.34562
9.7486
9.8825
9.92025
9.95917
9.99916
10.0345
10.066
10.0891
10.1061
10.1211
10.135
10.1502
10.1654
10.1826
10.1945
10.2
10.1988
10.1863
10.1709
10.1528
10.1359
10.1157
10.0913
10.0606
10.0226
9.97804
9.9266
9.866
9.7914
9.70168
9.59468
9.47437
9.33434
9.17157
8.96645
8.70788
8.37393
7.94229
7.40603
6.63599
5.62443
4.50706
1
1
1
1
1
1
1
1
1
1
1
1
1
1
1
1
1
1
1
1
1
1
1
1
1
1
1
1
1
1
1
1
1
1
1
1
1
1
1
1
1
1
1
1
1
1
1
1
1
1
1
1
0.999999
2.23893
8.48525
9.89095
9.86253
9.89909
9.93111
9.95973
9.98855
10.0115
10.0293
10.044
10.0522
10.059
10.0645
10.0706
10.074
10.0752
10.0704
10.0569
10.0365
10.0117
9.98573
9.95556
9.92149
9.88205
9.83507
9.78038
9.71671
9.64314
9.55452
9.44971
9.32372
9.17978
9.01362
8.82284
8.59397
8.31202
7.96445
7.52436
6.99612
6.30654
5.54543
4.71232
1
1
1
1
1
1
1
1
1
1
1
1
1
1
1
1
1
1
1
1
1
1
1
1
1
1
1
1
1
1
1
1
1
1
1
1
1
1
1
1
1
1
1
1
1
1
1
1
1
1
1
1
0.999999
1.05082
5.65506
9.78315
9.81049
9.83295
9.85482
9.87868
9.90277
9.92433
9.94062
9.95272
9.95772
9.96038
9.95934
9.95639
9.95126
9.94564
9.93767
9.92491
9.9021
9.87112
9.83515
9.79466
9.7505
9.70228
9.64667
9.58257
9.50739
9.42183
9.32182
9.20597
9.06788
8.90751
8.72358
8.51472
8.27367
7.98763
7.6469
7.23296
6.74881
6.18745
5.57929
4.9366
1
1
1
1
1
1
1
1
1
1
1
1
1
1
1
1
1
1
1
1
1
1
1
1
1
1
1
1
1
1
1
1
1
1
1
1
1
1
1
1
1
1
1
1
1
1
1
1
1
1
1
1
1
1.00005
2.26458
8.44044
9.7563
9.75372
9.77692
9.795
9.81167
9.82885
9.84161
9.84964
9.85291
9.853
9.84723
9.8378
9.82541
9.81262
9.79993
9.78548
9.76134
9.72731
9.6856
9.63765
9.58554
9.52956
9.46638
9.39414
9.30891
9.21236
9.10337
8.98056
8.8372
8.66955
8.47719
8.25976
8.01517
7.73455
7.41246
7.0374
6.61156
6.15053
5.64814
5.1242
1
1
1
1
1
1
1
1
1
1
1
1
1
1
1
1
1
1
1
1
1
1
1
1
1
1
1
1
1
1
1
1
1
1
1
1
1
1
1
1
1
1
1
1
1
1
1
1
1
1
1
1
1
1
1.04995
5.34441
9.59196
9.68857
9.7104
9.72985
9.74327
9.75562
9.76396
9.76754
9.76452
9.75974
9.74795
9.73166
9.71405
9.69506
9.67438
9.6536
9.62547
9.58978
9.54468
9.49053
9.43044
9.36618
9.29552
9.21564
9.12058
9.01282
8.89535
8.76805
8.62393
8.45676
8.26529
8.04795
7.80987
7.53745
7.24044
6.90489
6.53377
6.14506
5.71785
5.27917
1
1
1
1
1
1
1
1
1
1
1
1
1
1
1
1
1
1
1
1
1
1
1
1
1
1
1
1
1
1
1
1
1
1
1
1
1
1
1
1
1
1
1
1
1
1
1
1
1
1
1
1
1
1
1.00006
1.86906
8.0304
9.66445
9.64269
9.64495
9.64982
9.65547
9.66132
9.66118
9.65489
9.6474
9.63368
9.6133
9.59158
9.56838
9.5405
9.51387
9.4832
9.44745
9.403
9.34822
9.28412
9.21402
9.13767
9.05226
8.95075
8.83544
8.71155
8.58096
8.43724
8.27411
8.08893
7.87831
7.65267
7.39038
7.11781
6.8196
6.48995
6.15539
5.78235
5.41334
1
1
1
1
1
1
1
1
1
1
1
1
1
1
1
1
1
1
1
1
1
1
1
1
1
1
1
1
1
1
1
1
1
1
1
1
1
1
1
1
1
1
1
1
1
1
1
1
1
1
1
1
1
1
1
1.02261
4.47996
9.23436
9.52957
9.52979
9.53865
9.54614
9.55498
9.55682
9.55209
9.5462
9.53299
9.51045
9.48473
9.45591
9.42038
9.38565
9.34929
9.31179
9.26683
9.21122
9.14386
9.06876
8.98723
8.89723
8.79243
8.67393
8.5461
8.41187
8.26793
8.10921
7.93357
7.73355
7.52314
7.27704
7.02897
6.76141
6.46575
6.17103
5.83944
5.52252
1
1
1
1
1
1
1
1
1
1
1
1
1
1
1
1
1
1
1
1
1
1
1
1
1
1
1
1
1
1
1
1
1
1
1
1
1
1
1
1
1
1
1
1
1
1
1
1
1
1
1
1
1
1
1
1.00001
1.31381
7.05184
9.54891
9.4935
9.47808
9.47687
9.4733
9.46698
9.45748
9.4476
9.43043
9.40313
9.37323
9.34075
9.30251
9.26482
9.22569
9.18531
9.13795
9.08027
9.01089
8.93299
8.84807
8.75532
8.65023
8.53276
8.40565
8.26988
8.12644
7.96939
7.80165
7.61075
7.41586
7.18945
6.96363
6.7177
6.45196
6.18685
5.8929
5.61442
1
1
1
1
1
1
1
1
1
1
1
1
1
1
1
1
1
1
1
1
1
1
1
1
1
1
1
1
1
1
1
1
1
1
1
1
1
1
1
1
1
1
1
1
1
1
1
1
1
1
1
1
1
1
1
1
1.00295
3.01874
8.59352
9.30158
9.33612
9.36023
9.36419
9.35816
9.34861
9.33836
9.3196
9.28988
9.2578
9.22391
9.18492
9.14693
9.10579
9.06118
9.00877
8.94699
8.87536
8.79695
8.71075
8.61796
8.51521
8.4014
8.27817
8.14409
8.00364
7.84643
7.68404
7.5038
7.32445
7.11712
6.90917
6.67873
6.44011
6.19683
5.93807
5.68898
1
1
1
1
1
1
1
1
1
1
1
1
1
1
1
1
1
1
1
1
1
1
1
1
1
1
1
1
1
1
1
1
1
1
1
1
1
1
1
1
1
1
1
1
1
1
1
1
1
1
1
1
1
1
1
1
1
1.1097
5.11316
9.08107
9.29409
9.30416
9.29376
9.2781
9.26089
9.24593
9.22557
9.19603
9.16304
9.12843
9.09019
9.0511
9.00654
8.95631
8.89743
8.8314
8.75758
8.67842
8.5918
8.49934
8.39832
8.28728
8.16692
8.03602
7.89861
7.74355
7.58609
7.4189
7.24991
7.05741
6.86143
6.64411
6.42827
6.20294
5.97482
5.75124
1
1
1
1
1
1
1
1
1
1
1
1
1
1
1
1
1
1
1
1
1
1
1
1
1
1
1
1
1
1
1
1
1
1
1
1
1
1
1
1
1
1
1
1
1
1
1
1
1
1
1
1
1
1
1
1
1
1.00041
1.45055
6.86094
9.25661
9.2416
9.22378
9.18623
9.16096
9.13987
9.12049
9.09585
9.06714
9.03333
8.99561
8.95467
8.90575
8.84983
8.78521
8.71694
8.64237
8.56196
8.47661
8.38541
8.2858
8.17872
8.06109
7.93466
7.8006
7.65236
7.50157
7.34633
7.18578
7.00685
6.8205
6.61633
6.41901
6.20996
6.00825
5.80502
1
1
1
1
1
1
1
1
1
1
1
1
1
1
1
1
1
1
1
1
1
1
1
1
1
1
1
1
1
1
1
1
1
1
1
1
1
1
1
1
1
1
1
1
1
1
1
1
1
1
1
1
1
1
1
1
1
1
1.00598
2.63722
8.22437
9.12994
9.06855
9.05573
9.04312
9.0342
9.02175
9.00367
8.97892
8.94756
8.90857
8.86524
8.81393
8.75473
8.68715
8.61641
8.54321
8.46196
8.37566
8.28433
8.18701
8.08023
7.96503
7.84193
7.71243
7.57343
7.43008
7.28417
7.13092
6.96355
6.7872
6.59709
6.41465
6.22154
6.04012
5.85182
1
1
1
1
1
1
1
1
1
1
1
1
1
1
1
1
1
1
1
1
1
1
1
1
1
1
1
1
1
1
1
1
1
1
1
1
1
1
1
1
1
1
1
1
1
1
1
1
1
1
1
1
1
1
1
1
1
1
1.00001
1.07177
4.30563
8.75814
8.96067
8.95496
8.96178
8.95726
8.94679
8.92851
8.90222
8.86907
8.82705
8.77808
8.7242
8.66312
8.59416
8.5214
8.44836
8.36739
8.28064
8.18888
8.09238
7.98718
7.87399
7.75476
7.63051
7.50149
7.36686
7.22935
7.08169
6.92406
6.75833
6.58326
6.41477
6.23679
6.06951
5.89079
1
1
1
1
1
1
1
1
1
1
1
1
1
1
1
1
1
1
1
1
1
1
1
1
1
1
1
1
1
1
1
1
1
1
1
1
1
1
1
1
1
1
1
1
1
1
1
1
1
1
1
1
1
1
1
1
1
1
1
1.00024
1.27955
5.36556
8.7596
8.90916
8.91591
8.91621
8.90227
8.87694
8.84387
8.80369
8.75695
8.70269
8.64269
8.58069
8.51064
8.43651
8.36174
8.28024
8.19281
8.10035
8.00393
7.90124
7.79088
7.67565
7.5577
7.43762
7.31106
7.17924
7.03596
6.88747
6.73205
6.57094
6.41408
6.25039
6.0931
5.92247
1
1
1
1
1
1
1
1
1
1
1
1
1
1
1
1
1
1
1
1
1
1
1
1
1
1
1
1
1
1
1
1
1
1
1
1
1
1
1
1
1
1
1
1
1
1
1
1
1
1
1
1
1
1
1
1
1
1
1
1
1.00251
1.52855
6.29504
8.80166
8.91139
8.89483
8.86333
8.82748
8.78606
8.73889
8.68554
8.6268
8.56285
8.4978
8.42912
8.35457
8.27895
8.1975
8.11038
8.0184
7.92272
7.82248
7.71572
7.60499
7.49421
7.38093
7.26035
7.13235
6.9941
6.85416
6.7079
6.55941
6.41284
6.26147
6.11054
5.94775
1
1
1
1
1
1
1
1
1
1
1
1
1
1
1
1
1
1
1
1
1
1
1
1
1
1
1
1
1
1
1
1
1
1
1
1
1
1
1
1
1
1
1
1
1
1
1
1
1
1
1
1
1
1
1
1
1
1
1
1
1
1.0082
1.87288
7.19575
8.88413
8.86144
8.82386
8.77073
8.71943
8.666
8.60783
8.54608
8.48069
8.41399
8.34529
8.2729
8.19747
8.1173
8.03223
7.94229
7.84836
7.75053
7.64732
7.54154
7.43708
7.32819
7.21192
7.08777
6.95593
6.82384
6.68629
6.54865
6.41102
6.26872
6.12277
5.96857
1
1
1
1
1
1
1
1
1
1
1
1
1
1
1
1
1
1
1
1
1
1
1
1
1
1
1
1
1
1
1
1
1
1
1
1
1
1
1
1
1
1
1
1
1
1
1
1
1
1
1
1
1
1
1
1
1
1
1
1
1
1.00001
1.02107
2.73071
7.95709
8.79448
8.73449
8.70097
8.64416
8.58241
8.51951
8.45655
8.39264
8.3287
8.26353
8.19519
8.12266
8.04513
7.96275
7.87576
7.7848
7.69016
7.5907
7.48938
7.3886
7.28244
7.16944
7.04909
6.92312
6.79702
6.66797
6.53907
6.4097
6.27461
6.13318
5.98821
1
1
1
1
1
1
1
1
1
1
1
1
1
1
1
1
1
1
1
1
1
1
1
1
1
1
1
1
1
1
1
1
1
1
1
1
1
1
1
1
1
1
1
1
1
1
1
1
1
1
1
1
1
1
1
1
1
1
1
1
1
1
1.00005
1.07757
3.73544
8.2973
8.66293
8.59552
8.54197
8.48587
8.42767
8.36759
8.30633
8.24531
8.18333
8.11776
8.04843
7.97426
7.89524
7.81178
7.7245
7.63366
7.5386
7.44147
7.34288
7.23971
7.13057
7.01451
6.8934
6.77275
6.65241
6.53114
6.40941
6.28084
6.14397
6.00714
1
1
1
1
1
1
1
1
1
1
1
1
1
1
1
1
1
1
1
1
1
1
1
1
1
1
1
1
1
1
1
1
1
1
1
1
1
1
1
1
1
1
1
1
1
1
1
1
1
1
1
1
1
1
1
1
1
1
1
1
1
1
1
1.00033
1.1927
4.38251
8.32973
8.5096
8.44718
8.39675
8.34587
8.29516
8.24229
8.18554
8.1231
8.05638
7.98602
7.91265
7.83623
7.75557
7.67096
7.58284
7.49115
7.39693
7.30015
7.19974
7.09462
6.98361
6.86789
6.75334
6.64044
6.52584
6.41054
6.28897
6.15741
6.02722
1
1
1
1
1
1
1
1
1
1
1
1
1
1
1
1
1
1
1
1
1
1
1
1
1
1
1
1
1
1
1
1
1
1
1
1
1
1
1
1
1
1
1
1
1
1
1
1
1
1
1
1
1
1
1
1
1
1
1
1
1
1
1
1
1.00142
1.30622
4.74055
8.215
8.38542
8.32695
8.28176
8.23603
8.18595
8.13012
8.06905
8.0046
7.93627
7.86407
7.78853
7.70904
7.62714
7.54225
7.45434
7.36314
7.26834
7.17029
7.069
6.96373
6.85398
6.74362
6.6351
6.52535
6.41449
6.29988
6.17391
6.04898
1
1
1
1
1
1
1
1
1
1
1
1
1
1
1
1
1
1
1
1
1
1
1
1
1
1
1
1
1
1
1
1
1
1
1
1
1
1
1
1
1
1
1
1
1
1
1
1
1
1
1
1
1
1
1
1
1
1
1
1
1
1
1
1
1
1.00318
1.39435
4.92343
8.10621
8.27465
8.22593
8.18637
8.13602
8.08093
8.02079
7.95636
7.88948
7.82051
7.74725
7.66992
7.58926
7.50464
7.41814
7.32902
7.23684
7.14179
7.04444
6.94474
6.84126
6.73487
6.62975
6.52404
6.41684
6.30828
6.18861
6.06907
1
1
1
1
1
1
1
1
1
1
1
1
1
1
1
1
1
1
1
1
1
1
1
1
1
1
1
1
1
1
1
1
1
1
1
1
1
1
1
1
1
1
1
1
1
1
1
1
1
1
1
1
1
1
1
1
1
1
1
1
1
1
1
1
1
1
1.00503
1.45462
4.94524
8.00181
8.19736
8.14158
8.09144
8.03296
7.97249
7.90883
7.84357
7.77573
7.70529
7.6333
7.55634
7.47477
7.39115
7.30474
7.21558
7.12377
7.02938
6.9328
6.83348
6.73092
6.62845
6.52549
6.4209
6.31596
6.20235
6.08766
1
1
1
1
1
1
1
1
1
1
1
1
1
1
1
1
1
1
1
1
1
1
1
1
1
1
1
1
1
1
1
1
1
1
1
1
1
1
1
1
1
1
1
1
1
1
1
1
1
1
1
1
1
1
1
1
1
1
1
1
1
1
1
1
1
1
1.00001
1.00656
1.47386
4.84796
7.89171
8.11652
8.04377
7.98442
7.92181
7.86107
7.79876
7.73393
7.666
7.59473
7.52073
7.44514
7.36639
7.28423
7.19862
7.10974
7.01776
6.92325
6.82675
6.72785
6.62818
6.52765
6.42515
6.32197
6.21325
6.10358
1
1
1
1
1
1
1
1
1
1
1
1
1
1
1
1
1
1
1
1
1
1
1
1
1
1
1
1
1
1
1
1
1
1
1
1
1
1
1
1
1
1
1
1
1
1
1
1
1
1
1
1
1
1
1
1
1
1
1
1
1
1
1
1
1
1
1
1.00001
1.00717
1.45691
4.62267
7.74582
8.02466
7.93503
7.88127
7.82424
7.7643
7.70104
7.63373
7.56428
7.49365
7.42219
7.34718
7.26815
7.18489
7.09789
7.0078
6.91516
6.82083
6.7245
6.62712
6.52846
6.42777
6.32677
6.22222
6.11789
1
1
1
1
1
1
1
1
1
1
1
1
1
1
1
1
1
1
1
1
1
1
1
1
1
1
1
1
1
1
1
1
1
1
1
1
1
1
1
1
1
1
1
1
1
1
1
1
1
1
1
1
1
1
1
1
1
1
1
1
1
1
1
1
1
1
1
1
1.00001
1.00683
1.40631
4.25143
7.56966
7.92887
7.85167
7.79993
7.74445
7.68332
7.61952
7.55282
7.48447
7.41367
7.33806
7.25746
7.17236
7.08447
6.99519
6.9048
6.81323
6.71984
6.62509
6.52847
6.43059
6.33264
6.23251
6.13355
1
1
1
1
1
1
1
1
1
1
1
1
1
1
1
1
1
1
1
1
1
1
1
1
1
1
1
1
1
1
1
1
1
1
1
1
1
1
1
1
1
1
1
1
1
1
1
1
1
1
1
1
1
1
1
1
1
1
1
1
1
1
1
1
1
1
1
1
1
1.00001
1.00569
1.32649
3.75684
7.38617
7.85554
7.79332
7.7396
7.67719
7.61069
7.54417
7.47369
7.39898
7.31949
7.23597
7.14946
7.06207
6.97506
6.88821
6.80057
6.71132
6.62022
6.52719
6.43353
6.33928
6.24457
6.15055
1
1
1
1
1
1
1
1
1
1
1
1
1
1
1
1
1
1
1
1
1
1
1
1
1
1
1
1
1
1
1
1
1
1
1
1
1
1
1
1
1
1
1
1
1
1
1
1
1
1
1
1
1
1
1
1
1
1
1
1
1
1
1
1
1
1
1
1
1
1
1.00001
1.00406
1.2313
3.3452
7.12849
7.77526
7.73605
7.66421
7.60089
7.52853
7.45452
7.37619
7.29469
7.21103
7.12659
7.04226
6.95842
6.87496
6.79094
6.70533
6.61782
6.52888
6.43925
6.34954
6.26028
6.1703
1
1
1
1
1
1
1
1
1
1
1
1
1
1
1
1
1
1
1
1
1
1
1
1
1
1
1
1
1
1
1
1
1
1
1
1
1
1
1
1
1
1
1
1
1
1
1
1
1
1
1
1
1
1
1
1
1
1
1
1
1
1
1
1
1
1
1
1
1
1
1
1.00001
1.00234
1.16218
2.93915
6.77314
7.66655
7.66639
7.58042
7.51671
7.43539
7.35437
7.27221
7.19046
7.1091
7.02839
6.94815
6.86755
6.78606
6.70301
6.61876
6.53324
6.44737
6.36211
6.27639
6.19021
1
1
1
1
1
1
1
1
1
1
1
1
1
1
1
1
1
1
1
1
1
1
1
1
1
1
1
1
1
1
1
1
1
1
1
1
1
1
1
1
1
1
1
1
1
1
1
1
1
1
1
1
1
1
1
1
1
1
1
1
1
1
1
1
1
1
1
1
1
1
1
1
1
1.00134
1.10808
2.54845
6.28546
7.53919
7.58388
7.48082
7.4102
7.32911
7.25048
7.17242
7.09524
7.01816
6.9406
6.86222
6.78309
6.70263
6.62138
6.53943
6.45796
6.37536
6.2924
6.21001
1
1
1
1
1
1
1
1
1
1
1
1
1
1
1
1
1
1
1
1
1
1
1
1
1
1
1
1
1
1
1
1
1
1
1
1
1
1
1
1
1
1
1
1
1
1
1
1
1
1
1
1
1
1
1
1
1
1
1
1
1
1
1
1
1
1
1
1
1
1
1
1
1
1
1.00071
1.06805
2.17869
5.61634
7.39456
7.46907
7.37832
7.30853
7.23561
7.16278
7.08836
7.01411
6.93916
6.86323
6.78621
6.70804
6.62977
6.5513
6.47179
6.3907
6.31088
6.2295
1
1
1
1
1
1
1
1
1
1
1
1
1
1
1
1
1
1
1
1
1
1
1
1
1
1
1
1
1
1
1
1
1
1
1
1
1
1
1
1
1
1
1
1
1
1
1
1
1
1
1
1
1
1
1
1
1
1
1
1
1
1
1
1
1
1
1
1
1
1
1
1
1
1
1
1.00036
1.03985
1.82799
4.78213
7.17435
7.35999
7.29455
7.22913
7.15711
7.08645
7.01407
6.94082
6.86688
6.79189
6.71631
6.64088
6.56352
6.48538
6.40762
6.32826
6.24719
1
1
1
1
1
1
1
1
1
1
1
1
1
1
1
1
1
1
1
1
1
1
1
1
1
1
1
1
1
1
1
1
1
1
1
1
1
1
1
1
1
1
1
1
1
1
1
1
1
1
1
1
1
1
1
1
1
1
1
1
1
1
1
1
1
1
1
1
1
1
1
1
1
1
1
1
1.00016
1.02087
1.51483
3.90763
6.79893
7.26753
7.22691
7.15262
7.08414
7.01542
6.9449
6.87394
6.8016
6.72882
6.65367
6.57684
6.50175
6.42389
6.34405
6.26574
1
1
1
1
1
1
1
1
1
1
1
1
1
1
1
1
1
1
1
1
1
1
1
1
1
1
1
1
1
1
1
1
1
1
1
1
1
1
1
1
1
1
1
1
1
1
1
1
1
1
1
1
1
1
1
1
1
1
1
1
1
1
1
1
1
1
1
1
1
1
1
1
1
1
1
1
1
1.00007
1.00923
1.28344
3.08485
6.24761
7.13186
7.19523
7.08452
7.01612
6.95146
6.88333
6.81235
6.74039
6.66544
6.592
6.51559
6.43655
6.36176
6.28425
1
1
1
1
1
1
1
1
1
1
1
1
1
1
1
1
1
1
1
1
1
1
1
1
1
1
1
1
1
1
1
1
1
1
1
1
1
1
1
1
1
1
1
1
1
1
1
1
1
1
1
1
1
1
1
1
1
1
1
1
1
1
1
1
1
1
1
1
1
1
1
1
1
1
1
1
1
1
1.00002
1.00349
1.13785
2.40108
5.39931
6.96776
7.09933
7.02807
6.95613
6.88439
6.81679
6.74365
6.67212
6.60008
6.52533
6.45383
6.37875
6.30155
1
1
1
1
1
1
1
1
1
1
1
1
1
1
1
1
1
1
1
1
1
1
1
1
1
1
1
1
1
1
1
1
1
1
1
1
1
1
1
1
1
1
1
1
1
1
1
1
1
1
1
1
1
1
1
1
1
1
1
1
1
1
1
1
1
1
1
1
1
1
1
1
1
1
1
1
1
1
1
1.00001
1.00112
1.06023
1.83878
4.37616
6.67201
7.00055
6.97121
6.88302
6.81142
6.74826
6.68304
6.61122
6.5411
6.46925
6.39449
6.32897
1
1
1
1
1
1
1
1
1
1
1
1
1
1
1
1
1
1
1
1
1
1
1
1
1
1
1
1
1
1
1
1
1
1
1
1
1
1
1
1
1
1
1
1
1
1
1
1
1
1
1
1
1
1
1
1
1
1
1
1
1
1
1
1
1
1
1
1
1
1
1
1
1
1
1
1
1
1
1
1
1
1.00031
1.0228
1.4335
3.36264
6.06538
6.86034
6.92508
6.8536
6.78416
6.71288
6.64
6.56021
6.48472
6.41645
6.34538
1
1
1
1
1
1
1
1
1
1
1
1
1
1
1
1
1
1
1
1
1
1
1
1
1
1
1
1
1
1
1
1
1
1
1
1
1
1
1
1
1
1
1
1
1
1
1
1
1
1
1
1
1
1
1
1
1
1
1
1
1
1
1
1
1
1
1
1
1
1
1
1
1
1
1
1
1
1
1
1
1
1
1.00008
1.00729
1.19256
2.44824
5.23221
6.61117
6.84724
6.80005
6.72706
6.66697
6.59816
6.52441
6.44217
6.34955
1
1
1
1
1
1
1
1
1
1
1
1
1
1
1
1
1
1
1
1
1
1
1
1
1
1
1
1
1
1
1
1
1
1
1
1
1
1
1
1
1
1
1
1
1
1
1
1
1
1
1
1
1
1
1
1
1
1
1
1
1
1
1
1
1
1
1
1
1
1
1
1
1
1
1
1
1
1
1
1
1
1
1
1.00001
1.00201
1.06837
1.81571
4.05447
6.34458
6.71476
6.71986
6.64721
6.58702
6.54018
6.48518
6.4082
1
1
1
1
1
1
1
1
1
1
1
1
1
1
1
1
1
1
1
1
1
1
1
1
1
1
1
1
1
1
1
1
1
1
1
1
1
1
1
1
1
1
1
1
1
1
1
1
1
1
1
1
1
1
1
1
1
1
1
1
1
1
1
1
1
1
1
1
1
1
1
1
1
1
1
1
1
1
1
1
1
1
1
1
1
1.00039
1.02255
1.37217
2.96664
5.52178
6.63012
6.6952
6.62618
6.54556
6.47445
6.416
1
1
1
1
1
1
1
1
1
1
1
1
1
1
1
1
1
1
1
1
1
1
1
1
1
1
1
1
1
1
1
1
1
1
1
1
1
1
1
1
1
1
1
1
1
1
1
1
1
1
1
1
1
1
1
1
1
1
1
1
1
1
1
1
1
1
1
1
1
1
1
1
1
1
1
1
1
1
1
1
1
1
1
1
1
1
1.00008
1.00585
1.13509
2.10197
4.4936
6.24266
6.60642
6.60082
6.53614
6.46608
1
1
1
1
1
1
1
1
1
1
1
1
1
1
1
1
1
1
1
1
1
1
1
1
1
1
1
1
1
1
1
1
1
1
1
1
1
1
1
1
1
1
1
1
1
1
1
1
1
1
1
1
1
1
1
1
1
1
1
1
1
1
1
1
1
1
1
1
1
1
1
1
1
1
1
1
1
1
1
1
1
1
1
1
1
1
1
1.00001
1.00118
1.04113
1.53537
3.26827
5.70151
6.38644
6.48445
6.48666
1
1
1
1
1
1
1
1
1
1
1
1
1
1
1
1
1
1
1
1
1
1
1
1
1
1
1
1
1
1
1
1
1
1
1
1
1
1
1
1
1
1
1
1
1
1
1
1
1
1
1
1
1
1
1
1
1
1
1
1
1
1
1
1
1
1
1
1
1
1
1
1
1
1
1
1
1
1
1
1
1
1
1
1
1
1
1
1
1
1.00018
1.01149
1.19568
2.31334
4.50114
6.27976
6.44771
1
1
1
1
1
1
1
1
1
1
1
1
1
1
1
1
1
1
1
1
1
1
1
1
1
1
1
1
1
1
1
1
1
1
1
1
1
1
1
1
1
1
1
1
1
1
1
1
1
1
1
1
1
1
1
1
1
1
1
1
1
1
1
1
1
1
1
1
1
1
1
1
1
1
1
1
1
1
1
1
1
1
1
1
1
1
1
1
1
1
1.00003
1.00209
1.05995
1.59645
3.36615
5.56284
1
1
1
1
1
1
1
1
1
1
1
1
1
1
1
1
1
1
1
1
1
1
1
1
1
1
1
1
1
1
1
1
1
1
1
1
1
1
1
1
1
1
1
1
1
1
1
1
1
1
1
1
1
1
1
1
1
1
1
1
1
1
1
1
1
1
1
1
1
1
1
1
1
1
1
1
1
1
1
1
1
1
1
1
1
1
1
1
1
1
1
1
1.00033
1.01429
1.21724
2.36493
1
1
1
1
1
1
1
1
1
1
1
1
1
1
1
1
1
1
1
1
1
1
1
1
1
1
1
1
1
1
1
1
1
1
1
1
1
1
1
1
1
1
1
1
1
1
1
1
1
1
1
1
1
1
1
1
1
1
1
1
1
1
1
1
1
1
1
1
1
1
1
1
1
1
1
1
1
1
1
1
1
1
1
1
1
1
1
1
1
1
1
1
1
1.00004
1.00271
1.06436
1
1
1
1
1
1
1
1
1
1
1
1
1
1
1
1
1
1
1
1
1
1
1
1
1
1
1
1
1
1
1
1
1
1
1
1
1
1
1
1
1
1
1
1
1
1
1
1
1
1
1
1
1
1
1
1
1
1
1
1
1
1
1
1
1
1
1
1
1
1
1
1
1
1
1
1
1
1
1
1
1
1
1
1
1
1
1
1
1
1
1
1
1
1
1
1.00033
1
1
1
1
1
1
1
1
1
1
1
1
1
1
1
1
1
1
1
1
1
1
1
1
1
1
1
1
1
1
1
1
1
1
1
1
1
1
1
1
1
1
1
1
1
1
1
1
1
1
1
1
1
1
1
1
1
1
1
1
1
1
1
1
1
1
1
1
1
1
1
1
1
1
1
1
1
1
1
1
1
1
1
1
1
1
1
1
1
1
1
1
1
1
1
1
1
1
1
1
1
1
1
1
1
1
1
1
1
1
1
1
1
1
1
1
1
1
1
1
1
1
1
1
1
1
1
1
1
1
1
1
1
1
1
1
1
1
1
1
1
1
1
1
1
1
1
1
1
1
1
1
1
1
1
1
1
1
1
1
1
1
1
1
1
1
1
1
1
1
1
1
1
1
1
1
1
1
1
1
1
1
1
1
1
1
1
1
1
1
1
1
1
1
1
1
1
1
1
1
1
1
1
1
1
1
1
1
1
1
1
1
1
1
1
1
1
1
1
1
1
1
1
1
1
1
1
1
1
1
1
1
1
1
1
1
1
1
1
1
1
1
1
1
1
1
1
1
1
1
1
1
1
1
1
1
1
1
1
1
1
1
1
1
1
1
1
1
1
1
1
1
1
1
1
1
1
1
1
1
1
1
1
1
1
1
1
1
1
1
1
1
1
1
1
1
1
1
1
1
1
1
1
1
1
1
1
1
1
1
1
1
1
1
1
1
1
1
1
1
1
1
1
1
1
1
1
1
1
1
1
1
1
1
1
1
1
1
1
1
1
1
1
1
1
1
1
1
1
1
1
1
1
1
1
1
1
1
1
1
1
1
1
1
1
1
1
1
1
1
1
1
1
1
1
1
1
1
1
1
1
1
1
1
1
1
1
1
1
1
1
1
1
1
1
1
1
1
1
1
1
1
1
1
1
1
1
1
1
1
1
1
1
1
1
1
1
1
1
1
1
1
1
1
1
1
1
1
1
1
1
1
1
1
1
1
1
1
1
1
1
1
1
1
1
1
1
1
1
1
1
1
1
1
1
1
1
1
1
1
1
1
1
1
1
1
1
1
1
1
1
1
1
1
1
1
1
1
1
1
1
1
1
1
1
1
1
1
1
1
1
1
1
1
1
1
1
1
1
1
1
1
1
1
1
1
1
1
1
1
1
1
1
1
1
1
1
1
1
1
1
1
1
1
1
1
1
1
1
1
1
1
1
1
1
1
1
1
1
1
1
1
1
1
1
1
1
1
1
1
1
1
1
1
1
1
1
1
1
1
1
1
1
1
1
1
1
1
1
1
1
1
1
1
1
1
1
1
1
1
1
1
1
1
1
1
1
1
1
1
1
1
1
1
1
1
1
1
1
1
1
1
1
1
1
1
1
1
1
1
1
1
1
1
1
1
1
1
1
1
1
1
1
1
1
1
1
1
1
1
1
1
1
1
1
1
1
1
1
1
1
1
1
1
1
1
1
1
1
1
1
1
1
1
1
1
1
1
1
1
1
1
1
1
1
1
1
1
1
1
1
1
1
1
1
1
1
1
1
1
1
1
1
1
1
1
1
1
1
1
1
1
1
1
1
1
1
1
1
1
1
1
1
1
1
1
1
1
1
1
1
1
1
1
1
1
1
1
1
1
1
1
1
1
1
1
1
1
1
1
1
1
1
1
1
1
1
1
1
1
1
1
1
1
1
1
1
1
1
1
1
1
1
1
1
1
1
1
1
1
1
1
1
1
1
1
1
1
1
1
1
1
1
1
1
1
1
1
1
1
1
1
1
1
1
1
1
1
1
1
1
1
1
1
1
1
1
1
1
1
1
1
1
1
1
1
1
1
1
1
1
1
1
1
1
1
1
1
1
1
1
1
1
1
1
1
1
1
1
1
1
1
1
1
1
1
1
1
1
1
1
1
1
1
1
1
1
1
1
1
1
1
1
1
1
1
1
1
1
1
1
1
1
1
1
1
1
1
1
1
1
1
1
1
1
1
1
1
1
1
1
1
1
1
1
1
1
1
1
1
1
1
1
1
1
1
1
1
1
1
1
1
1
1
1
1
1
1
1
1
1
1
1
1
1
1
1
1
1
1
1
1
1
1
1
1
1
1
1
1
1
1
1
1
1
1
1
1
1
1
1
1
1
1
1
1
1
1
1
1
1
1
1
1
1
1
1
1
1
1
1
1
1
1
1
1
1
1
1
1
1
1
1
1
1
1
1
1
1
1
1
1
1
1
1
1
1
1
1
1
1
1
1
1
1
1
1
1
1
1
1
1
1
1
1
1
1
1
1
1
1
1
1
1
1
1
1
1
1
1
1
1
1
1
1
1
1
1
1
1
1
1
1
1
1
1
1
1
1
1
1
1
1
1
1
1
1
1
1
1
1
1
1
1
1
1
1
1
1
1
1
1
1
1
1
1
1
1
1
1
1
1
1
1
1
1
1
1
1
1
1
1
1
1
1
1
1
1
1
1
1
1
1
1
1
1
1
1
1
1
1
1
1
1
1
1
1
1
1
1
1
1
1
1
1
1
1
1
1
1
1
1
1
1
1
1
1
1
1
1
1
1
1
1
1
1
1
1
1
1
1
1
1
1
1
1
1
1
1
1
1
1
1
1
1
1
1
1
1
1
1
1
1
1
1
1
1
1
1
1
1
1
1
1
1
1
1
1
1
1
1
1
1
1
1
1
1
1
1
1
1
1
1
1
1
1
1
1
1
1
1
1
1
1
1
1
1
1
1
1
1
1
1
1
1
1
1
1
1
1
1
1
1
1
1
1
1
1
1
1
1
1
1
1
1
1
1
1
1
1
1
1
1
1
1
1
1
1
1
1
1
1
1
1
1
1
1
1
1
1
1
1
1
1
1
1
1
1
1
1
1
1
1
1
1
1
1
1
1
1
1
1
1
1
1
1
1
1
1
1
1
1
1
1
1
1
1
1
1
1
1
1
1
1
1
1
1
1
1
1
1
1
1
1
1
1
1
1
1
1
1
1
1
1
1
1
1
1
1
1
1
1
1
1
1
1
1
1
1
1
1
1
1
1
1
1
1
1
1
1
1
1
1
1
1
1
1
1
1
1
1
1
1
1
1
1
1
1
1
1
1
1
1
1
1
1
1
1
1
1
1
1
1
1
1
1
1
1
1
1
1
1
1
1
1
1
1
1
1
1
1
1
1
1
1
1
1
1
1
1
1
1
1
1
1
1
1
1
1
1
1
1
1
1
1
1
1
1
1
1
1
1
1
1
1
1
1
1
1
1
1
1
1
1
1
1
1
1
1
1
1
1
1
1
1
1
1
1
1
1
1
1
1
1
1
1
1
1
1
1
1
1
1
1
1
1
1
1
1
1
1
1
1
1
1
1
1
1
1
1
1
1
1
1
1
1
1
1
1
1
1
1
1
1
1
1
1
1
1
1
1
1
1
1
1
1
1
1
1
1
1
1
1
1
1
1
1
1
1
1
1
1
1
1
1
1
1.06611
0.135713
0.0914047
0.0645465
0.0377008
0.0415818
0.0609947
0.10901
0.168029
0.232332
0.315484
0.397025
0.466175
0.541519
0.603466
0.678422
0.768559
0.837198
0.86291
0.909894
0.944221
0.962683
0.992906
1.01779
1.03282
1.05194
1.07196
1.08407
1.09551
1.11822
1.14303
1.15985
1.17226
1.1896
1.20929
1.22685
1.23634
1.23705
1.24229
1.24976
1.25705
1.26503
1.27354
1.28236
1.28857
1.2937
1.30105
1.30979
1.31864
1.3242
1.32539
1.32323
1.31883
1.31464
1.31366
1.31443
1.3205
1.3284
1.33254
1.33482
1.33624
1.33667
1.33617
1.33616
1.33789
1.33965
1.33957
1.33869
1.33478
1.32659
1.36971
4.45175
6.88379
6.88243
6.85731
6.81985
6.7506
6.67254
6.58214
6.49541
6.4157
6.34014
6.26713
6.19169
6.1132
6.03399
5.95977
5.89324
5.83436
5.78166
5.73259
5.68335
5.62896
5.56528
5.49712
5.43157
5.37111
5.31456
5.2602
5.20505
5.14786
5.09092
5.0388
4.99492
4.95829
4.92316
4.8856
4.84554
4.80492
4.76658
4.73142
4.68822
4.63808
4.58605
4.53003
4.47227
4.42057
4.37621
4.33595
4.29973
4.26074
4.22066
4.17938
4.13518
4.08874
4.04424
4.00471
3.96871
3.93488
3.90382
3.87654
3.8522
3.82669
3.7932
3.74691
3.69339
3.6468
3.61269
3.58407
3.55629
3.52801
3.49789
3.46427
3.42727
3.39076
3.36033
3.3355
3.31254
3.29306
3.27729
3.25748
3.23415
3.20675
3.17186
3.13501
3.10208
3.07332
3.04735
3.02292
2.99839
2.97206
2.94249
2.90876
2.8722
2.83706
2.80697
2.78276
2.7632
2.74662
2.7316
2.71699
2.70165
2.68396
2.6623
2.63657
2.60917
2.58147
2.5509
2.5182
2.48414
2.45363
2.43417
2.42098
2.40877
2.39817
2.38652
2.37266
2.35798
2.34176
2.32028
2.29327
2.2485
1.94531
0.766443
0.518246
0.35088
0.21936
0.17841
0.184243
0.196953
0.216018
0.235969
0.251698
0.27125
0.308466
0.342702
0.389767
0.454503
0.531231
0.62235
0.686288
0.737353
0.802297