/*--------------------------------*- C++ -*----------------------------------*\
  =========                 |
  \\      /  F ield         | OpenFOAM: The Open Source CFD Toolbox
   \\    /   O peration     | Website:  https://openfoam.org
    \\  /    A nd           | Version:  7
     \\/     M anipulation  |
\*---------------------------------------------------------------------------*/
FoamFile
{
    version     2.0;
    format      ascii;
    class       volScalarField;
    location    "2.7";
    object      T;
}
// * * * * * * * * * * * * * * * * * * * * * * * * * * * * * * * * * * * * * //

dimensions      [0 0 0 1 0 0 0];

internalField   nonuniform List<scalar> 
19968
(
1
1
1
1
1
1
1
1
1
1
1
1
1
1
1
1
1
1
1
1
1
1
1
1
1
1
1
1
1
1
1
1
1
1
1
1
1
1
1
1
1
1
1
1
1
1
1
1
1
2.04277
2.66684
2.69946
2.7066
2.71305
2.71755
2.72084
2.72281
2.72358
2.72367
2.72395
2.72523
2.7285
2.73451
2.74288
2.75201
2.75966
2.76415
2.76551
2.76553
2.76518
2.76496
2.76573
2.76881
2.77474
2.78171
2.7872
2.79018
2.79131
2.79202
2.79289
2.79401
2.79548
2.79733
2.79939
2.80134
2.80288
2.80393
2.80462
2.80522
2.80617
2.80792
2.81092
2.8152
2.81949
2.8226
2.82415
1
1
1
1
1
1
1
1
1
1
1
1
1
1
1
1
1
1
1
1
1
1
1
1
1
1
1
1
1
1
1
1
1
1
1
1
1
1
1
1
1
1
1
1
1
1
1
1
1
2.03033
2.66396
2.69861
2.70643
2.71313
2.71773
2.721
2.72293
2.72368
2.72381
2.72419
2.72556
2.72882
2.73471
2.74289
2.75176
2.75923
2.76364
2.76499
2.76504
2.76482
2.76479
2.76568
2.76883
2.77468
2.7815
2.78687
2.7898
2.79093
2.79166
2.79257
2.79373
2.79523
2.79708
2.7991
2.80099
2.80247
2.80349
2.80416
2.80477
2.80575
2.80753
2.81055
2.81483
2.81911
2.82221
2.82374
1
1
1
1
1
1
1
1
1
1
1
1
1
1
1
1
1
1
1
1
1
1
1
1
1
1
1
1
1
1
1
1
1
1
1
1
1
1
1
1
1
1
1
1
1
1
1
1
1
2.00126
2.65851
2.69699
2.70558
2.71272
2.71746
2.72077
2.72265
2.72341
2.72368
2.72424
2.72584
2.72922
2.73496
2.74273
2.75102
2.75809
2.76247
2.76394
2.76416
2.76414
2.76436
2.76554
2.7688
2.77449
2.78104
2.78621
2.78909
2.79022
2.791
2.79197
2.7932
2.79475
2.79662
2.79861
2.80042
2.80181
2.80275
2.8034
2.80403
2.80506
2.80688
2.8099
2.81415
2.81841
2.82152
2.82303
1
1
1
1
1
1
1
1
1
1
1
1
1
1
1
1
1
1
1
1
1
1
1
1
1
1
1
1
1
1
1
1
1
1
1
1
1
1
1
1
1
1
1
1
1
1
1
1
1
1.95345
2.64933
2.69457
2.70412
2.71179
2.71676
2.72005
2.72184
2.72261
2.72309
2.72397
2.72594
2.72954
2.7351
2.74219
2.74952
2.75592
2.76027
2.76214
2.76285
2.76321
2.76379
2.76528
2.76855
2.7739
2.78003
2.78497
2.78788
2.78913
2.79001
2.79108
2.79238
2.79395
2.7958
2.79775
2.79949
2.8008
2.80166
2.80226
2.80289
2.80396
2.80586
2.80891
2.81313
2.81738
2.82042
2.82183
1
1
1
1
1
1
1
1
1
1
1
1
1
1
1
1
1
1
1
1
1
1
1
1
1
1
1
1
1
1
1
1
1
1
1
1
1
1
1
1
1
1
1
1
1
1
1
1
1
1.88355
2.63568
2.69115
2.70167
2.70975
2.71489
2.71823
2.72002
2.72089
2.72166
2.72304
2.72556
2.72948
2.73485
2.7411
2.74727
2.75275
2.75699
2.75944
2.76089
2.76184
2.76285
2.76463
2.76777
2.77261
2.77818
2.78289
2.78596
2.7875
2.78856
2.78972
2.79107
2.79262
2.79442
2.79633
2.79806
2.79935
2.80015
2.8007
2.80133
2.80243
2.80447
2.80765
2.81183
2.81607
2.81898
2.82017
1
1
1
1
1
1
1
1
1
1
1
1
1
1
1
1
1
1
1
1
1
1
1
1
1
1
1
1
1
1
1
1
1
1
1
1
1
1
1
1
1
1
1
1
1
1
1
1
1
1.78614
2.61486
2.68588
2.69782
2.70649
2.71181
2.71525
2.71715
2.71819
2.71925
2.72111
2.72423
2.72858
2.73377
2.73923
2.74427
2.74878
2.75278
2.75583
2.75814
2.75988
2.76141
2.76343
2.76634
2.77054
2.77551
2.78004
2.78337
2.78536
2.78669
2.78793
2.78925
2.79071
2.7924
2.79427
2.79602
2.79732
2.79809
2.79856
2.79915
2.80028
2.80254
2.80595
2.81011
2.8143
2.81704
2.81801
1
1
1
1
1
1
1
1
1
1
1
1
1
1
1
1
1
1
1
1
1
1
1
1
1
1
1
1
1
1
1
1
1
1
1
1
1
1
1
1
1
1
1
1
1
1
1
1
1
1.65416
2.58396
2.68045
2.69292
2.70243
2.70799
2.7116
2.71375
2.71507
2.71637
2.71849
2.72192
2.72648
2.73153
2.73646
2.74071
2.74442
2.7481
2.75152
2.75459
2.75723
2.75941
2.76168
2.76434
2.76784
2.77213
2.77643
2.78
2.78248
2.78412
2.78543
2.78667
2.78796
2.78952
2.79136
2.79319
2.79457
2.79533
2.79575
2.79633
2.79754
2.80001
2.80361
2.8078
2.81189
2.81447
2.81524
1
1
1
1
1
1
1
1
1
1
1
1
1
1
1
1
1
1
1
1
1
1
1
1
1
1
1
1
1
1
1
1
1
1
1
1
1
1
1
1
1
1
1
1
1
1
1
1
1
1.47043
2.5274
2.67776
2.68913
2.69792
2.7035
2.70744
2.71004
2.71184
2.71348
2.71577
2.71922
2.72372
2.72861
2.73324
2.73704
2.74017
2.74342
2.7469
2.75042
2.75384
2.75671
2.75931
2.76183
2.76473
2.76833
2.7723
2.77601
2.77895
2.78099
2.78245
2.78363
2.78477
2.78616
2.78792
2.78977
2.79116
2.79187
2.79223
2.79279
2.79406
2.79662
2.8003
2.80447
2.80846
2.8109
2.81152
1
1
1
1
1
1
1
1
1
1
1
1
1
1
1
1
1
1
1
1
1
1
1
1
1
1
1
1
1
1
1
1
1
1
1
1
1
1
1
1
1
1
1
1
1
1
1
1
1
1.27022
2.44785
2.68151
2.68625
2.69334
2.69864
2.70294
2.70612
2.70851
2.71061
2.71311
2.71654
2.72094
2.72567
2.73012
2.73368
2.73639
2.73911
2.74225
2.74581
2.7497
2.75325
2.75633
2.75894
2.7614
2.76429
2.76772
2.77136
2.77462
2.77707
2.77874
2.77988
2.78083
2.78194
2.78347
2.78518
2.78653
2.78725
2.78766
2.7883
2.78965
2.79229
2.79602
2.80023
2.80424
2.80669
2.8073
1
1
1
1
1
1
1
1
1
1
1
1
1
1
1
1
1
1
1
1
1
1
1
1
1
1
1
1
1
1
1
1
1
1
1
1
1
1
1
1
1
1
1
1
1
1
1
1
1
1.02381
2.31421
2.68576
2.69022
2.69525
2.69947
2.70323
2.70631
2.70877
2.71094
2.71336
2.71653
2.72044
2.72459
2.72848
2.73154
2.73361
2.7354
2.73762
2.7406
2.74439
2.7484
2.75194
2.75479
2.75699
2.75919
2.76189
2.76517
2.76858
2.77149
2.77352
2.7748
2.7757
2.77666
2.778
2.77964
2.78105
2.78192
2.78245
2.78315
2.78442
2.78689
2.79039
2.79439
2.79839
2.80084
2.80147
1
1
1
1
1
1
1
1
1
1
1
1
1
1
1
1
1
1
1
1
1
1
1
1
1
1
1
1
1
1
1
1
1
1
1
1
1
1
1
1
1
1
1
1
1
1
1
1
1
1.0001
2.1232
2.67279
2.68176
2.68505
2.68936
2.69346
2.69728
2.70062
2.70369
2.70684
2.71051
2.71472
2.71897
2.72282
2.72575
2.72759
2.72887
2.73047
2.73296
2.73655
2.74085
2.74494
2.74828
2.75063
2.75249
2.75458
2.75737
2.7607
2.7639
2.76629
2.76773
2.76856
2.76929
2.77034
2.77178
2.7732
2.77424
2.77498
2.77581
2.77712
2.77949
2.78284
2.7868
2.79094
2.79358
2.79437
1
1
1
1
1
1
1
1
1
1
1
1
1
1
1
1
1
1
1
1
1
1
1
1
1
1
1
1
1
1
1
1
1
1
1
1
1
1
1
1
1
1
1
1
1
1
1
1
1
1
1.82427
2.62114
2.67124
2.67505
2.67982
2.68437
2.68869
2.69269
2.6965
2.70028
2.70437
2.70884
2.71326
2.71719
2.72017
2.72199
2.72305
2.72421
2.72621
2.72939
2.7336
2.73791
2.74151
2.74399
2.74561
2.74714
2.74928
2.75216
2.75526
2.75776
2.75924
2.75998
2.76054
2.76141
2.76276
2.76432
2.76564
2.76655
2.76734
2.76841
2.77012
2.77265
2.77616
2.78002
2.78256
2.78334
1
1
1
1
1
1
1
1
1
1
1
1
1
1
1
1
1
1
1
1
1
1
1
1
1
1
1
1
1
1
1
1
1
1
1
1
1
1
1
1
1
1
1
1
1
1
1
1
1
1
1.38118
2.47093
2.66009
2.66429
2.67166
2.67627
2.68064
2.68467
2.6885
2.69228
2.69633
2.70076
2.70524
2.70936
2.71262
2.71473
2.71589
2.71691
2.71858
2.72138
2.72532
2.72961
2.73332
2.73589
2.73736
2.73844
2.7399
2.74215
2.74488
2.74727
2.74869
2.7492
2.74946
2.74996
2.7509
2.75217
2.75329
2.75385
2.75423
2.7548
2.75599
2.75822
2.76161
2.76547
2.768
2.76885
1
1
1
1
1
1
1
1
1
1
1
1
1
1
1
1
1
1
1
1
1
1
1
1
1
1
1
1
1
1
1
1
1
1
1
1
1
1
1
1
1
1
1
1
1
1
1
1
1
1
1.01307
2.21049
2.66649
2.66648
2.66782
2.67088
2.67437
2.67772
2.68077
2.68369
2.68691
2.69061
2.6947
2.69879
2.70236
2.70493
2.70646
2.70755
2.70901
2.71143
2.71498
2.71908
2.72279
2.72544
2.72684
2.72757
2.72841
2.72995
2.73217
2.73432
2.73563
2.73591
2.73584
2.73598
2.73654
2.73754
2.73848
2.73882
2.73883
2.73883
2.73907
2.74003
2.74154
2.74287
2.74303
2.74191
1
1
1
1
1
1
1
1
1
1
1
1
1
1
1
1
1
1
1
1
1
1
1
1
1
1
1
1
1
1
1
1
1
1
1
1
1
1
1
1
1
1
1
1
1
1
1
1
1
1
1.00002
1.75864
2.58274
2.65762
2.66033
2.66357
2.66694
2.67009
2.67284
2.67516
2.67745
2.68012
2.68341
2.68718
2.69096
2.69407
2.69612
2.69737
2.69857
2.70044
2.70336
2.70697
2.71054
2.71329
2.71474
2.71517
2.71545
2.7162
2.71761
2.71921
2.7202
2.72014
2.71958
2.7189
2.71842
2.71807
2.71743
2.71615
2.71398
2.71108
2.7081
2.7061
2.70579
2.70599
2.70661
2.70635
1
1
1
1
1
1
1
1
1
1
1
1
1
1
1
1
1
1
1
1
1
1
1
1
1
1
1
1
1
1
1
1
1
1
1
1
1
1
1
1
1
1
1
1
1
1
1
1
1
1
1
1.07508
2.3282
2.64636
2.64975
2.65233
2.65649
2.66062
2.66429
2.66695
2.66881
2.67049
2.67259
2.67544
2.67881
2.682
2.68427
2.68549
2.68621
2.68729
2.68929
2.69198
2.69526
2.69802
2.69945
2.69972
2.69955
2.69937
2.6996
2.70019
2.7006
2.70022
2.69902
2.69721
2.69516
2.69299
2.69046
2.68729
2.68319
2.67819
2.67286
2.66848
2.66589
2.66782
2.66832
2.68434
1
1
1
1
1
1
1
1
1
1
1
1
1
1
1
1
1
1
1
1
1
1
1
1
1
1
1
1
1
1
1
1
1
1
1
1
1
1
1
1
1
1
1
1
1
1
1
1
1
1
1
0.999583
1.94581
2.59374
2.62307
2.63032
2.63757
2.6441
2.64983
2.65396
2.65649
2.65816
2.65996
2.66255
2.66598
2.66959
2.67242
2.67396
2.67452
2.67501
2.67607
2.67764
2.68027
2.68297
2.68465
2.68494
2.6845
2.68359
2.68272
2.68216
2.68167
2.68069
2.67873
2.6757
2.67186
2.66742
2.66221
2.65578
2.64733
2.63619
2.62105
2.60129
2.57338
2.53448
2.47426
2.35041
1
1
1
1
1
1
1
1
1
1
1
1
1
1
1
1
1
1
1
1
1
1
1
1
1
1
1
1
1
1
1
1
1
1
1
1
1
1
1
1
1
1
1
1
1
1
1
1
1
1
1
0.99994
1.3484
2.41698
2.60616
2.61213
2.61982
2.62688
2.63407
2.64002
2.64405
2.64653
2.64869
2.65149
2.65521
2.65928
2.66265
2.6645
2.6649
2.66487
2.66512
2.66551
2.66716
2.6694
2.67106
2.67133
2.67077
2.66939
2.66759
2.6659
2.66434
2.66245
2.65962
2.65551
2.65006
2.64349
2.63551
2.62584
2.613
2.59637
2.57305
2.54248
2.49882
2.44463
2.33391
2.174
1
1
1
1
1
1
1
1
1
1
1
1
1
1
1
1
1
1
1
1
1
1
1
1
1
1
1
1
1
1
1
1
1
1
1
1
1
1
1
1
1
1
1
1
1
1
1
1
1
1
1
0.999997
1.01188
2.11405
2.60227
2.60322
2.6056
2.6107
2.61742
2.62373
2.62866
2.63198
2.63481
2.63822
2.64243
2.64703
2.65081
2.65327
2.65385
2.65376
2.65364
2.65326
2.65386
2.65524
2.65649
2.65659
2.65593
2.65418
2.65165
2.64891
2.64617
2.64318
2.6393
2.63408
2.62708
2.61851
2.60794
2.59523
2.57887
2.55775
2.5297
2.49213
2.44384
2.37057
2.26604
2.13637
1
1
1
1
1
1
1
1
1
1
1
1
1
1
1
1
1
1
1
1
1
1
1
1
1
1
1
1
1
1
1
1
1
1
1
1
1
1
1
1
1
1
1
1
1
1
1
1
1
1
1
1
1.00001
1.47975
2.45451
2.59566
2.59639
2.60186
2.60753
2.61225
2.61598
2.61861
2.62117
2.62459
2.62853
2.63323
2.63753
2.64033
2.6413
2.64153
2.64128
2.64087
2.64093
2.64151
2.64207
2.64178
2.6406
2.63828
2.63503
2.63131
2.62737
2.62319
2.6182
2.61194
2.60372
2.59355
2.58104
2.56599
2.54731
2.52357
2.49337
2.45359
2.40365
2.33401
2.25004
2.15114
1
1
1
1
1
1
1
1
1
1
1
1
1
1
1
1
1
1
1
1
1
1
1
1
1
1
1
1
1
1
1
1
1
1
1
1
1
1
1
1
1
1
1
1
1
1
1
1
1
1
1
1
1
1.02307
2.1495
2.59625
2.59492
2.59653
2.59965
2.60279
2.60502
2.60651
2.60802
2.61043
2.61355
2.61769
2.62195
2.62516
2.6267
2.62728
2.62743
2.62752
2.62757
2.62772
2.62758
2.62676
2.62493
2.62203
2.61806
2.61338
2.60821
2.60278
2.59668
2.58951
2.58042
2.56911
2.5553
2.53878
2.51889
2.49435
2.46403
2.4256
2.37843
2.3204
2.25319
2.17597
1
1
1
1
1
1
1
1
1
1
1
1
1
1
1
1
1
1
1
1
1
1
1
1
1
1
1
1
1
1
1
1
1
1
1
1
1
1
1
1
1
1
1
1
1
1
1
1
1
1
1
1
1
1.00003
1.48193
2.43943
2.58082
2.58726
2.59197
2.59441
2.59544
2.59597
2.59643
2.59751
2.59947
2.60239
2.60573
2.60869
2.61043
2.61122
2.61168
2.61223
2.61267
2.61295
2.61264
2.61154
2.6094
2.60613
2.6016
2.59607
2.58971
2.58296
2.57577
2.56781
2.55821
2.54634
2.53191
2.51472
2.49447
2.47021
2.4412
2.40591
2.36385
2.31587
2.26039
2.19861
1
1
1
1
1
1
1
1
1
1
1
1
1
1
1
1
1
1
1
1
1
1
1
1
1
1
1
1
1
1
1
1
1
1
1
1
1
1
1
1
1
1
1
1
1
1
1
1
1
1
1
1
1
1
1.02261
2.10276
2.57546
2.58128
2.58374
2.58581
2.58681
2.58735
2.58767
2.58823
2.58896
2.59047
2.59227
2.59404
2.59524
2.59565
2.59576
2.59613
2.59667
2.5973
2.59712
2.59609
2.59393
2.59051
2.58566
2.57946
2.57197
2.56382
2.55542
2.54666
2.53672
2.52475
2.51035
2.49316
2.47347
2.44987
2.42306
2.39142
2.35477
2.31412
2.26732
2.21668
1
1
1
1
1
1
1
1
1
1
1
1
1
1
1
1
1
1
1
1
1
1
1
1
1
1
1
1
1
1
1
1
1
1
1
1
1
1
1
1
1
1
1
1
1
1
1
1
1
1
1
1
1
1
1.00003
1.35726
2.39194
2.56852
2.56989
2.57228
2.57391
2.57513
2.57627
2.57708
2.57781
2.57888
2.57978
2.58023
2.58037
2.58009
2.57929
2.57906
2.57922
2.57989
2.58026
2.5797
2.57796
2.57485
2.57018
2.56385
2.55576
2.54659
2.53709
2.52749
2.5171
2.50514
2.49109
2.47437
2.45573
2.43301
2.40848
2.3805
2.34818
2.31389
2.27355
2.23173
1
1
1
1
1
1
1
1
1
1
1
1
1
1
1
1
1
1
1
1
1
1
1
1
1
1
1
1
1
1
1
1
1
1
1
1
1
1
1
1
1
1
1
1
1
1
1
1
1
1
1
1
1
1
1
1.01045
1.96912
2.53968
2.55511
2.55663
2.55852
2.5605
2.56279
2.56472
2.56656
2.56848
2.5694
2.56921
2.56854
2.56718
2.56504
2.56334
2.56244
2.56255
2.56279
2.56244
2.56106
2.55839
2.55419
2.54821
2.54019
2.53067
2.52044
2.50995
2.49897
2.48689
2.47331
2.45727
2.43985
2.4185
2.39625
2.37131
2.34259
2.31291
2.27783
2.24282
1
1
1
1
1
1
1
1
1
1
1
1
1
1
1
1
1
1
1
1
1
1
1
1
1
1
1
1
1
1
1
1
1
1
1
1
1
1
1
1
1
1
1
1
1
1
1
1
1
1
1
1
1
1
1
1.00001
1.14352
2.29383
2.55077
2.54587
2.54617
2.54757
2.54935
2.55147
2.55398
2.55677
2.55824
2.55797
2.55698
2.55509
2.55231
2.54963
2.54751
2.5464
2.54582
2.54509
2.54368
2.54132
2.53769
2.53242
2.52512
2.51606
2.50585
2.49489
2.48344
2.47097
2.45762
2.44204
2.42576
2.40605
2.3858
2.36295
2.33728
2.3109
2.28043
2.2505
1
1
1
1
1
1
1
1
1
1
1
1
1
1
1
1
1
1
1
1
1
1
1
1
1
1
1
1
1
1
1
1
1
1
1
1
1
1
1
1
1
1
1
1
1
1
1
1
1
1
1
1
1
1
1
1
1.00136
1.66722
2.44128
2.51579
2.5257
2.53082
2.53348
2.53584
2.5387
2.54212
2.54454
2.54472
2.54411
2.5425
2.53987
2.537
2.53409
2.53165
2.52966
2.52787
2.52586
2.52344
2.52013
2.5156
2.50936
2.5013
2.4918
2.48101
2.46957
2.4567
2.4434
2.4284
2.41326
2.3951
2.37639
2.35491
2.33193
2.30781
2.28124
2.25491
1
1
1
1
1
1
1
1
1
1
1
1
1
1
1
1
1
1
1
1
1
1
1
1
1
1
1
1
1
1
1
1
1
1
1
1
1
1
1
1
1
1
1
1
1
1
1
1
1
1
1
1
1
1
1
1
1
1.04946
2.05127
2.50209
2.5172
2.52071
2.52162
2.52274
2.52445
2.52709
2.52966
2.53088
2.53081
2.52999
2.52823
2.52584
2.52278
2.5195
2.51619
2.51314
2.51013
2.50713
2.50362
2.49937
2.49384
2.48671
2.47803
2.46787
2.45681
2.44403
2.43097
2.41692
2.40253
2.3856
2.36788
2.34752
2.3267
2.30431
2.28094
2.25748
1
1
1
1
1
1
1
1
1
1
1
1
1
1
1
1
1
1
1
1
1
1
1
1
1
1
1
1
1
1
1
1
1
1
1
1
1
1
1
1
1
1
1
1
1
1
1
1
1
1
1
1
1
1
1
1
1
1.00018
1.19987
2.2505
2.50264
2.50621
2.50792
2.50753
2.50828
2.50989
2.51225
2.51436
2.51562
2.51554
2.5148
2.51322
2.51053
2.50708
2.50311
2.49933
2.49555
2.49175
2.48783
2.48344
2.47809
2.47159
2.46357
2.45421
2.44375
2.43175
2.41934
2.40638
2.39275
2.37707
2.36025
2.34114
2.32211
2.30131
2.28069
2.25941
1
1
1
1
1
1
1
1
1
1
1
1
1
1
1
1
1
1
1
1
1
1
1
1
1
1
1
1
1
1
1
1
1
1
1
1
1
1
1
1
1
1
1
1
1
1
1
1
1
1
1
1
1
1
1
1
1
1
1.0027
1.56599
2.37118
2.48406
2.48286
2.48569
2.48844
2.49127
2.49403
2.49667
2.49881
2.49993
2.49975
2.49892
2.49699
2.49406
2.49033
2.48645
2.48262
2.4784
2.47395
2.46912
2.46365
2.45704
2.44926
2.44035
2.43051
2.41957
2.40805
2.39614
2.38336
2.36895
2.35326
2.33564
2.31824
2.29917
2.28072
2.26106
1
1
1
1
1
1
1
1
1
1
1
1
1
1
1
1
1
1
1
1
1
1
1
1
1
1
1
1
1
1
1
1
1
1
1
1
1
1
1
1
1
1
1
1
1
1
1
1
1
1
1
1
1
1
1
1
1
1
1
1.03218
1.90478
2.44352
2.46949
2.47151
2.47427
2.47633
2.47839
2.48029
2.48201
2.48332
2.48333
2.48271
2.48134
2.47909
2.47603
2.47261
2.46921
2.46522
2.46072
2.45568
2.44998
2.4432
2.43534
2.42661
2.4172
2.40721
2.39663
2.38571
2.37372
2.36053
2.34617
2.33036
2.31467
2.2974
2.28064
2.26215
1
1
1
1
1
1
1
1
1
1
1
1
1
1
1
1
1
1
1
1
1
1
1
1
1
1
1
1
1
1
1
1
1
1
1
1
1
1
1
1
1
1
1
1
1
1
1
1
1
1
1
1
1
1
1
1
1
1
1
1.0001
1.12625
2.05812
2.44173
2.46245
2.46583
2.46785
2.4684
2.46837
2.4683
2.46814
2.46763
2.46654
2.46488
2.46296
2.46038
2.45751
2.45466
2.45125
2.4472
2.44239
2.43678
2.43011
2.42228
2.41364
2.40455
2.39523
2.38535
2.37503
2.36363
2.35157
2.33854
2.32451
2.31038
2.29496
2.27961
2.26221
1
1
1
1
1
1
1
1
1
1
1
1
1
1
1
1
1
1
1
1
1
1
1
1
1
1
1
1
1
1
1
1
1
1
1
1
1
1
1
1
1
1
1
1
1
1
1
1
1
1
1
1
1
1
1
1
1
1
1
1
1.00109
1.22703
2.16383
2.43079
2.45839
2.45859
2.45813
2.45742
2.45627
2.4548
2.45306
2.45105
2.44873
2.44641
2.44397
2.44129
2.43878
2.43593
2.43251
2.42833
2.42325
2.41709
2.40969
2.40139
2.39278
2.38389
2.3744
2.36436
2.35343
2.34232
2.33037
2.3179
2.30515
2.29137
2.27709
2.26102
1
1
1
1
1
1
1
1
1
1
1
1
1
1
1
1
1
1
1
1
1
1
1
1
1
1
1
1
1
1
1
1
1
1
1
1
1
1
1
1
1
1
1
1
1
1
1
1
1
1
1
1
1
1
1
1
1
1
1
1
1
1.00361
1.34761
2.23671
2.42922
2.43829
2.44209
2.44197
2.44143
2.44013
2.43812
2.43572
2.43303
2.43031
2.42762
2.42495
2.42241
2.41977
2.41681
2.41324
2.40885
2.40343
2.39677
2.38919
2.38128
2.3728
2.36364
2.35387
2.34348
2.33311
2.32209
2.3108
2.29912
2.28653
2.27307
2.25827
1
1
1
1
1
1
1
1
1
1
1
1
1
1
1
1
1
1
1
1
1
1
1
1
1
1
1
1
1
1
1
1
1
1
1
1
1
1
1
1
1
1
1
1
1
1
1
1
1
1
1
1
1
1
1
1
1
1
1
1
1
1
1.00937
1.57754
2.31169
2.41871
2.41833
2.42104
2.42112
2.42061
2.41947
2.41786
2.41587
2.41374
2.4115
2.40916
2.40673
2.40414
2.40131
2.39805
2.39417
2.38945
2.38362
2.37692
2.36976
2.36182
2.35316
2.34383
2.334
2.32415
2.31394
2.30351
2.2927
2.28093
2.26805
2.25439
1
1
1
1
1
1
1
1
1
1
1
1
1
1
1
1
1
1
1
1
1
1
1
1
1
1
1
1
1
1
1
1
1
1
1
1
1
1
1
1
1
1
1
1
1
1
1
1
1
1
1
1
1
1
1
1
1
1
1
1
1
1
1.00002
1.03476
1.78673
2.36359
2.40654
2.4022
2.40055
2.39948
2.39855
2.39753
2.39641
2.3953
2.39404
2.39245
2.39055
2.3883
2.38567
2.38263
2.37906
2.37482
2.36969
2.36382
2.35736
2.35019
2.34231
2.33369
2.3245
2.31528
2.30594
2.29625
2.28618
2.27503
2.26258
2.24974
1
1
1
1
1
1
1
1
1
1
1
1
1
1
1
1
1
1
1
1
1
1
1
1
1
1
1
1
1
1
1
1
1
1
1
1
1
1
1
1
1
1
1
1
1
1
1
1
1
1
1
1
1
1
1
1
1
1
1
1
1
1
1
1.00013
1.08683
1.89729
2.37434
2.39229
2.38749
2.38436
2.3819
2.38017
2.37887
2.37774
2.3765
2.37516
2.37359
2.37175
2.36953
2.36677
2.36343
2.35947
2.35483
2.34963
2.34389
2.33757
2.33062
2.32299
2.31477
2.30644
2.29799
2.28904
2.27963
2.26915
2.25719
2.24494
1
1
1
1
1
1
1
1
1
1
1
1
1
1
1
1
1
1
1
1
1
1
1
1
1
1
1
1
1
1
1
1
1
1
1
1
1
1
1
1
1
1
1
1
1
1
1
1
1
1
1
1
1
1
1
1
1
1
1
1
1
1
1
1
1.00059
1.13591
1.94791
2.35883
2.37956
2.37505
2.37185
2.3689
2.36614
2.36361
2.36142
2.35954
2.3577
2.35571
2.35344
2.35075
2.34769
2.34416
2.34015
2.33562
2.33059
2.32511
2.31916
2.31264
2.30544
2.29787
2.29013
2.28187
2.27304
2.26334
2.25197
2.24025
1
1
1
1
1
1
1
1
1
1
1
1
1
1
1
1
1
1
1
1
1
1
1
1
1
1
1
1
1
1
1
1
1
1
1
1
1
1
1
1
1
1
1
1
1
1
1
1
1
1
1
1
1
1
1
1
1
1
1
1
1
1
1
1
1
1.00134
1.17169
1.96673
2.33793
2.36645
2.36331
2.36085
2.35755
2.3541
2.35067
2.3474
2.34447
2.3417
2.33874
2.33556
2.33214
2.3284
2.32452
2.32041
2.31602
2.31133
2.3063
2.30086
2.2948
2.28811
2.28115
2.27368
2.26555
2.25672
2.24623
2.23524
1
1
1
1
1
1
1
1
1
1
1
1
1
1
1
1
1
1
1
1
1
1
1
1
1
1
1
1
1
1
1
1
1
1
1
1
1
1
1
1
1
1
1
1
1
1
1
1
1
1
1
1
1
1
1
1
1
1
1
1
1
1
1
1
1
1
1.00213
1.19484
1.95967
2.3147
2.35388
2.35089
2.34856
2.34539
2.34189
2.33811
2.3343
2.33046
2.32665
2.32284
2.31869
2.31438
2.31018
2.306
2.30181
2.29752
2.29302
2.28824
2.28301
2.27719
2.271
2.26433
2.25698
2.249
2.23958
2.22949
1
1
1
1
1
1
1
1
1
1
1
1
1
1
1
1
1
1
1
1
1
1
1
1
1
1
1
1
1
1
1
1
1
1
1
1
1
1
1
1
1
1
1
1
1
1
1
1
1
1
1
1
1
1
1
1
1
1
1
1
1
1
1
1
1
1
1
1.00278
1.20112
1.93579
2.29045
2.33889
2.33518
2.3333
2.33091
2.3282
2.32495
2.3212
2.31698
2.31243
2.30772
2.30299
2.29825
2.29355
2.28893
2.28434
2.27971
2.27498
2.27008
2.26484
2.25931
2.25336
2.24678
2.23959
2.23129
2.22234
1
1
1
1
1
1
1
1
1
1
1
1
1
1
1
1
1
1
1
1
1
1
1
1
1
1
1
1
1
1
1
1
1
1
1
1
1
1
1
1
1
1
1
1
1
1
1
1
1
1
1
1
1
1
1
1
1
1
1
1
1
1
1
1
1
1
1
1
1.00302
1.19348
1.89427
2.26391
2.32068
2.3159
2.31609
2.31534
2.31364
2.31099
2.30746
2.30331
2.29882
2.29413
2.28913
2.28393
2.27859
2.27322
2.26788
2.2626
2.25737
2.25207
2.24667
2.24102
2.23494
2.22846
2.22118
2.21347
1
1
1
1
1
1
1
1
1
1
1
1
1
1
1
1
1
1
1
1
1
1
1
1
1
1
1
1
1
1
1
1
1
1
1
1
1
1
1
1
1
1
1
1
1
1
1
1
1
1
1
1
1
1
1
1
1
1
1
1
1
1
1
1
1
1
1
1
1
1.00286
1.1727
1.83102
2.23485
2.29988
2.2972
2.29848
2.29901
2.2984
2.29687
2.29435
2.291
2.28689
2.28198
2.27642
2.27041
2.26423
2.25811
2.25212
2.24626
2.24045
2.23466
2.22877
2.22275
2.21661
2.21005
2.20336
1
1
1
1
1
1
1
1
1
1
1
1
1
1
1
1
1
1
1
1
1
1
1
1
1
1
1
1
1
1
1
1
1
1
1
1
1
1
1
1
1
1
1
1
1
1
1
1
1
1
1
1
1
1
1
1
1
1
1
1
1
1
1
1
1
1
1
1
1
1
1.00236
1.13973
1.7455
2.20435
2.28015
2.2794
2.28082
2.28171
2.2816
2.28097
2.27926
2.27637
2.27231
2.26726
2.2615
2.2554
2.24922
2.24306
2.23689
2.23067
2.22441
2.2181
2.21183
2.20559
2.19931
2.19309
1
1
1
1
1
1
1
1
1
1
1
1
1
1
1
1
1
1
1
1
1
1
1
1
1
1
1
1
1
1
1
1
1
1
1
1
1
1
1
1
1
1
1
1
1
1
1
1
1
1
1
1
1
1
1
1
1
1
1
1
1
1
1
1
1
1
1
1
1
1
1
1.00164
1.09954
1.67093
2.17575
2.26074
2.26291
2.26255
2.26318
2.26291
2.26224
2.2607
2.25814
2.25461
2.25029
2.24538
2.24006
2.23447
2.22863
2.22253
2.2162
2.20973
2.20324
2.19681
2.19052
2.18423
1
1
1
1
1
1
1
1
1
1
1
1
1
1
1
1
1
1
1
1
1
1
1
1
1
1
1
1
1
1
1
1
1
1
1
1
1
1
1
1
1
1
1
1
1
1
1
1
1
1
1
1
1
1
1
1
1
1
1
1
1
1
1
1
1
1
1
1
1
1
1
1
1.00092
1.07004
1.59419
2.14133
2.24064
2.24925
2.24607
2.24572
2.24415
2.2426
2.24077
2.23859
2.23593
2.23272
2.22895
2.22462
2.21974
2.21435
2.20857
2.20245
2.19617
2.18988
2.18352
2.17713
1
1
1
1
1
1
1
1
1
1
1
1
1
1
1
1
1
1
1
1
1
1
1
1
1
1
1
1
1
1
1
1
1
1
1
1
1
1
1
1
1
1
1
1
1
1
1
1
1
1
1
1
1
1
1
1
1
1
1
1
1
1
1
1
1
1
1
1
1
1
1
1
1
1.00051
1.04666
1.5127
2.09152
2.22101
2.23751
2.23136
2.2291
2.22629
2.22399
2.2219
2.21987
2.21769
2.21513
2.21208
2.20849
2.20432
2.19962
2.19447
2.18904
2.18324
2.1772
2.17107
1
1
1
1
1
1
1
1
1
1
1
1
1
1
1
1
1
1
1
1
1
1
1
1
1
1
1
1
1
1
1
1
1
1
1
1
1
1
1
1
1
1
1
1
1
1
1
1
1
1
1
1
1
1
1
1
1
1
1
1
1
1
1
1
1
1
1
1
1
1
1
1
1
1
1.00026
1.0293
1.42295
2.0131
2.20116
2.22424
2.21825
2.21501
2.21184
2.20901
2.2063
2.20381
2.20133
2.19873
2.19587
2.19265
2.18907
2.18509
2.18063
2.17563
2.17039
2.16471
1
1
1
1
1
1
1
1
1
1
1
1
1
1
1
1
1
1
1
1
1
1
1
1
1
1
1
1
1
1
1
1
1
1
1
1
1
1
1
1
1
1
1
1
1
1
1
1
1
1
1
1
1
1
1
1
1
1
1
1
1
1
1
1
1
1
1
1
1
1
1
1
1
1
1
1.00013
1.01708
1.32088
1.89895
2.17228
2.2093
2.20557
2.20261
2.19917
2.19604
2.1929
2.18983
2.18683
2.18384
2.18081
2.17772
2.17429
2.17054
2.1665
2.16196
2.15692
1
1
1
1
1
1
1
1
1
1
1
1
1
1
1
1
1
1
1
1
1
1
1
1
1
1
1
1
1
1
1
1
1
1
1
1
1
1
1
1
1
1
1
1
1
1
1
1
1
1
1
1
1
1
1
1
1
1
1
1
1
1
1
1
1
1
1
1
1
1
1
1
1
1
1
1
1.00006
1.00884
1.21189
1.76064
2.12612
2.19237
2.19153
2.18831
2.18562
2.18282
2.17979
2.17671
2.17354
2.1704
2.16709
2.16361
2.16022
2.15642
2.15221
2.1479
1
1
1
1
1
1
1
1
1
1
1
1
1
1
1
1
1
1
1
1
1
1
1
1
1
1
1
1
1
1
1
1
1
1
1
1
1
1
1
1
1
1
1
1
1
1
1
1
1
1
1
1
1
1
1
1
1
1
1
1
1
1
1
1
1
1
1
1
1
1
1
1
1
1
1
1
1
1.00002
1.0038
1.12026
1.61016
2.06887
2.16062
2.18139
2.17408
2.17169
2.16947
2.16678
2.16373
2.16054
2.15706
2.15372
2.15008
2.14612
2.14244
2.13837
1
1
1
1
1
1
1
1
1
1
1
1
1
1
1
1
1
1
1
1
1
1
1
1
1
1
1
1
1
1
1
1
1
1
1
1
1
1
1
1
1
1
1
1
1
1
1
1
1
1
1
1
1
1
1
1
1
1
1
1
1
1
1
1
1
1
1
1
1
1
1
1
1
1
1
1
1
1
1.00001
1.00137
1.05846
1.46801
1.96263
2.13505
2.1654
2.16144
2.15833
2.15536
2.15271
2.14954
2.14647
2.14331
2.13982
2.13654
2.13281
2.12875
1
1
1
1
1
1
1
1
1
1
1
1
1
1
1
1
1
1
1
1
1
1
1
1
1
1
1
1
1
1
1
1
1
1
1
1
1
1
1
1
1
1
1
1
1
1
1
1
1
1
1
1
1
1
1
1
1
1
1
1
1
1
1
1
1
1
1
1
1
1
1
1
1
1
1
1
1
1
1
1
1.00041
1.02536
1.31659
1.8212
2.09755
2.14781
2.14736
2.14268
2.13974
2.13774
2.13554
2.13264
2.12973
2.12652
2.12286
2.11994
1
1
1
1
1
1
1
1
1
1
1
1
1
1
1
1
1
1
1
1
1
1
1
1
1
1
1
1
1
1
1
1
1
1
1
1
1
1
1
1
1
1
1
1
1
1
1
1
1
1
1
1
1
1
1
1
1
1
1
1
1
1
1
1
1
1
1
1
1
1
1
1
1
1
1
1
1
1
1
1
1
1.00011
1.00946
1.17806
1.65317
2.03091
2.11648
2.13555
2.13118
2.12827
2.12556
2.12272
2.11914
2.11575
2.11276
2.10939
1
1
1
1
1
1
1
1
1
1
1
1
1
1
1
1
1
1
1
1
1
1
1
1
1
1
1
1
1
1
1
1
1
1
1
1
1
1
1
1
1
1
1
1
1
1
1
1
1
1
1
1
1
1
1
1
1
1
1
1
1
1
1
1
1
1
1
1
1
1
1
1
1
1
1
1
1
1
1
1
1
1
1.00002
1.00293
1.08094
1.47079
1.92602
2.08154
2.11924
2.11741
2.11429
2.11261
2.11005
2.1067
2.10225
2.09691
1
1
1
1
1
1
1
1
1
1
1
1
1
1
1
1
1
1
1
1
1
1
1
1
1
1
1
1
1
1
1
1
1
1
1
1
1
1
1
1
1
1
1
1
1
1
1
1
1
1
1
1
1
1
1
1
1
1
1
1
1
1
1
1
1
1
1
1
1
1
1
1
1
1
1
1
1
1
1
1
1
1
1
1
1.00075
1.02847
1.30578
1.76176
2.04883
2.09388
2.10353
2.10034
2.0973
2.09521
2.09306
2.08985
1
1
1
1
1
1
1
1
1
1
1
1
1
1
1
1
1
1
1
1
1
1
1
1
1
1
1
1
1
1
1
1
1
1
1
1
1
1
1
1
1
1
1
1
1
1
1
1
1
1
1
1
1
1
1
1
1
1
1
1
1
1
1
1
1
1
1
1
1
1
1
1
1
1
1
1
1
1
1
1
1
1
1
1
1
1.00014
1.00925
1.15209
1.574
1.95286
2.07485
2.09458
2.08962
2.0836
2.07968
2.07823
1
1
1
1
1
1
1
1
1
1
1
1
1
1
1
1
1
1
1
1
1
1
1
1
1
1
1
1
1
1
1
1
1
1
1
1
1
1
1
1
1
1
1
1
1
1
1
1
1
1
1
1
1
1
1
1
1
1
1
1
1
1
1
1
1
1
1
1
1
1
1
1
1
1
1
1
1
1
1
1
1
1
1
1
1
1
1.00002
1.0023
1.05632
1.38059
1.81918
2.02946
2.0741
2.0776
2.07441
2.07145
1
1
1
1
1
1
1
1
1
1
1
1
1
1
1
1
1
1
1
1
1
1
1
1
1
1
1
1
1
1
1
1
1
1
1
1
1
1
1
1
1
1
1
1
1
1
1
1
1
1
1
1
1
1
1
1
1
1
1
1
1
1
1
1
1
1
1
1
1
1
1
1
1
1
1
1
1
1
1
1
1
1
1
1
1
1
1
1
1.00042
1.01688
1.21146
1.62498
1.96584
2.0399
2.06138
2.06389
1
1
1
1
1
1
1
1
1
1
1
1
1
1
1
1
1
1
1
1
1
1
1
1
1
1
1
1
1
1
1
1
1
1
1
1
1
1
1
1
1
1
1
1
1
1
1
1
1
1
1
1
1
1
1
1
1
1
1
1
1
1
1
1
1
1
1
1
1
1
1
1
1
1
1
1
1
1
1
1
1
1
1
1
1
1
1
1
1
1.00006
1.00457
1.08091
1.4323
1.81464
2.02216
2.05175
1
1
1
1
1
1
1
1
1
1
1
1
1
1
1
1
1
1
1
1
1
1
1
1
1
1
1
1
1
1
1
1
1
1
1
1
1
1
1
1
1
1
1
1
1
1
1
1
1
1
1
1
1
1
1
1
1
1
1
1
1
1
1
1
1
1
1
1
1
1
1
1
1
1
1
1
1
1
1
1
1
1
1
1
1
1
1
1
1
1
1.00001
1.00078
1.02463
1.22925
1.63648
1.94459
1
1
1
1
1
1
1
1
1
1
1
1
1
1
1
1
1
1
1
1
1
1
1
1
1
1
1
1
1
1
1
1
1
1
1
1
1
1
1
1
1
1
1
1
1
1
1
1
1
1
1
1
1
1
1
1
1
1
1
1
1
1
1
1
1
1
1
1
1
1
1
1
1
1
1
1
1
1
1
1
1
1
1
1
1
1
1
1
1
1
1
1
1.00011
1.00568
1.08924
1.44264
1
1
1
1
1
1
1
1
1
1
1
1
1
1
1
1
1
1
1
1
1
1
1
1
1
1
1
1
1
1
1
1
1
1
1
1
1
1
1
1
1
1
1
1
1
1
1
1
1
1
1
1
1
1
1
1
1
1
1
1
1
1
1
1
1
1
1
1
1
1
1
1
1
1
1
1
1
1
1
1
1
1
1
1
1
1
1
1
1
1
1
1
1
1.00001
1.001
1.02671
1
1
1
1
1
1
1
1
1
1
1
1
1
1
1
1
1
1
1
1
1
1
1
1
1
1
1
1
1
1
1
1
1
1
1
1
1
1
1
1
1
1
1
1
1
1
1
1
1
1
1
1
1
1
1
1
1
1
1
1
1
1
1
1
1
1
1
1
1
1
1
1
1
1
1
1
1
1
1
1
1
1
1
1
1
1
1
1
1
1
1
1
1
1
1
1.00012
1
1
1
1
1
1
1
1
1
1
1
1
1
1
1
1
1
1
1
1
1
1
1
1
1
1
1
1
1
1
1
1
1
1
1
1
1
1
1
1
1
1
1
1
1
1
1
1
1
1
1
1
1
1
1
1
1
1
1
1
1
1
1
1
1
1
1
1
1
1
1
1
1
1
1
1
1
1
1
1
1
1
1
1
1
1
1
1
1
1
1
1
1
1
1
1
1
1
1
1
1
1
1
1
1
1
1
1
1
1
1
1
1
1
1
1
1
1
1
1
1
1
1
1
1
1
1
1
1
1
1
1
1
1
1
1
1
1
1
1
1
1
1
1
1
1
1
1
1
1
1
1
1
1
1
1
1
1
1
1
1
1
1
1
1
1
1
1
1
1
1
1
1
1
1
1
1
1
1
1
1
1
1
1
1
1
1
1
1
1
1
1
1
1
1
1
1
1
1
1
1
1
1
1
1
1
1
1
1
1
1
1
1
1
1
1
1
1
1
1
1
1
1
1
1
1
1
1
1
1
1
1
1
1
1
1
1
1
1
1
1
1
1
1
1
1
1
1
1
1
1
1
1
1
1
1
1
1
1
1
1
1
1
1
1
1
1
1
1
1
1
1
1
1
1
1
1
1
1
1
1
1
1
1
1
1
1
1
1
1
1
1
1
1
1
1
1
1
1
1
1
1
1
1
1
1
1
1
1
1
1
1
1
1
1
1
1
1
1
1
1
1
1
1
1
1
1
1
1
1
1
1
1
1
1
1
1
1
1
1
1
1
1
1
1
1
1
1
1
1
1
1
1
1
1
1
1
1
1
1
1
1
1
1
1
1
1
1
1
1
1
1
1
1
1
1
1
1
1
1
1
1
1
1
1
1
1
1
1
1
1
1
1
1
1
1
1
1
1
1
1
1
1
1
1
1
1
1
1
1
1
1
1
1
1
1
1
1
1
1
1
1
1
1
1
1
1
1
1
1
1
1
1
1
1
1
1
1
1
1
1
1
1
1
1
1
1
1
1
1
1
1
1
1
1
1
1
1
1
1
1
1
1
1
1
1
1
1
1
1
1
1
1
1
1
1
1
1
1
1
1
1
1
1
1
1
1
1
1
1
1
1
1
1
1
1
1
1
1
1
1
1
1
1
1
1
1
1
1
1
1
1
1
1
1
1
1
1
1
1
1
1
1
1
1
1
1
1
1
1
1
1
1
1
1
1
1
1
1
1
1
1
1
1
1
1
1
1
1
1
1
1
1
1
1
1
1
1
1
1
1
1
1
1
1
1
1
1
1
1
1
1
1
1
1
1
1
1
1
1
1
1
1
1
1
1
1
1
1
1
1
1
1
1
1
1
1
1
1
1
1
1
1
1
1
1
1
1
1
1
1
1
1
1
1
1
1
1
1
1
1
1
1
1
1
1
1
1
1
1
1
1
1
1
1
1
1
1
1
1
1
1
1
1
1
1
1
1
1
1
1
1
1
1
1
1
1
1
1
1
1
1
1
1
1
1
1
1
1
1
1
1
1
1
1
1
1
1
1
1
1
1
1
1
1
1
1
1
1
1
1
1
1
1
1
1
1
1
1
1
1
1
1
1
1
1
1
1
1
1
1
1
1
1
1
1
1
1
1
1
1
1
1
1
1
1
1
1
1
1
1
1
1
1
1
1
1
1
1
1
1
1
1
1
1
1
1
1
1
1
1
1
1
1
1
1
1
1
1
1
1
1
1
1
1
1
1
1
1
1
1
1
1
1
1
1
1
1
1
1
1
1
1
1
1
1
1
1
1
1
1
1
1
1
1
1
1
1
1
1
1
1
1
1
1
1
1
1
1
1
1
1
1
1
1
1
1
1
1
1
1
1
1
1
1
1
1
1
1
1
1
1
1
1
1
1
1
1
1
1
1
1
1
1
1
1
1
1
1
1
1
1
1
1
1
1
1
1
1
1
1
1
1
1
1
1
1
1
1
1
1
1
1
1
1
1
1
1
1
1
1
1
1
1
1
1
1
1
1
1
1
1
1
1
1
1
1
1
1
1
1
1
1
1
1
1
1
1
1
1
1
1
1
1
1
1
1
1
1
1
1
1
1
1
1
1
1
1
1
1
1
1
1
1
1
1
1
1
1
1
1
1
1
1
1
1
1
1
1
1
1
1
1
1
1
1
1
1
1
1
1
1
1
1
1
1
1
1
1
1
1
1
1
1
1
1
1
1
1
1
1
1
1
1
1
1
1
1
1
1
1
1
1
1
1
1
1
1
1
1
1
1
1
1
1
1
1
1
1
1
1
1
1
1
1
1
1
1
1
1
1
1
1
1
1
1
1
1
1
1
1
1
1
1
1
1
1
1
1
1
1
1
1
1
1
1
1
1
1
1
1
1
1
1
1
1
1
1
1
1
1
1
1
1
1
1
1
1
1
1
1
1
1
1
1
1
1
1
1
1
1
1
1
1
1
1
1
1
1
1
1
1
1
1
1
1
1
1
1
1
1
1
1
1
1
1
1
1
1
1
1
1
1
1
1
1
1
1
1
1
1
1
1
1
1
1
1
1
1
1
1
1
1
1
1
1
1
1
1
1
1
1
1
1
1
1
1
1
1
1
1
1
1
1
1
1
1
1
1
1
1
1
1
1
1
1
1
1
1
1
1
1
1
1
1
1
1
1
1
1
1
1
1
1
1
1
1
1
1
1
1
1
1
1
1
1
1
1
1
1
1
1
1
1
1
1
1
1
1
1
1
1
1
1
1
1
1
1
1
1
1
1
1
1
1
1
1
1
1
1
1
1
1
1
1
1
1
1
1
1
1
1
1
1
1
1
1
1
1
1
1
1
1
1
1
1
1
1
1
1
1
1
1
1
1
1
1
1
1
1
1
1
1
1
1
1
1
1
1
1
1
1
1
1
1
1
1
1
1
1
1
1
1
1
1
1
1
1
1
1
1
1
1
1
1
1
1
1
1
1
1
1
1
1
1
1
1
1
1
1
1
1
1
1
1
1
1
1
1
1
1
1
1
1
1
1
1
1
1
1
1
1
1
1
1
1
1
1
1
1
1
1
1
1
1
1
1
1
1
1
1
1
1
1
1
1
1
1
1
1
1
1
1
1
1
1
1
1
1
1
1
1
1
1
1
1
1
1
1
1
1
1
1
1
1
1
1
1
1
1
1
1
1
1
1
1
1
1
1
1
1
1
1
1
1
1
1
1
1
1
1
1
1
1
1
1
1
1
1
1
1
1
1
1
1
1
1
1
1
1
1
1
1
1
1
1
1
1
1
1
1
1
1
1
1
1
1
1
1
1
1
1
1
1
1
1
1
1
1
1
1
1
1
1
1
1
1
1
1
1
1
1
1
1
1
1
1
1
1
1
1
1
1
1
1
1
1
1
1
1
1
1
1
1
1
1
1
1
1
1
1
1
1
1
1
1
1
1
1
1
1
1
1
1
1
1
1
1
1
1
1
1
1
1
1
1
1.49007
0.748228
0.799025
0.884329
0.890008
0.921036
0.994458
1.10362
1.13875
1.17461
1.24065
1.34256
1.43611
1.49843
1.50065
1.50362
1.51384
1.52826
1.54352
1.58618
1.60979
1.60678
1.59839
1.58753
1.58729
1.59449
1.60819
1.6163
1.62065
1.62695
1.62934
1.62894
1.63155
1.64287
1.65802
1.66643
1.66683
1.66319
1.66183
1.66246
1.66528
1.66798
1.66805
1.66648
1.66218
1.65882
1.65859
1.65942
1.66075
1.66092
1.65978
1.65658
1.65242
1.64981
1.64961
1.6503
1.65343
1.65653
1.65741
1.65744
1.65716
1.65642
1.65531
1.65466
1.6549
1.65561
1.65571
1.65556
1.65404
1.64875
1.66672
2.50222
2.87066
2.84615
2.81131
2.78223
2.76018
2.74511
2.7316
2.71771
2.70216
2.68447
2.66541
2.64624
2.62882
2.61419
2.60239
2.59226
2.58229
2.57125
2.55865
2.5449
2.53097
2.51799
2.50724
2.49881
2.49158
2.48408
2.47519
2.46433
2.45207
2.44009
2.43021
2.42315
2.41815
2.41351
2.40781
2.40039
2.3915
2.38218
2.37344
2.36431
2.35526
2.34665
2.33764
2.32806
2.31878
2.31012
2.30193
2.29461
2.28738
2.28062
2.27415
2.26748
2.26045
2.25355
2.24725
2.24151
2.23639
2.23221
2.22917
2.2269
2.22449
2.22047
2.21365
2.20483
2.19654
2.18992
2.18401
2.17821
2.17247
2.16659
2.16019
2.15312
2.14586
2.1393
2.13336
2.12743
2.12193
2.11712
2.1117
2.10586
2.09949
2.09203
2.08444
2.07777
2.07205
2.06701
2.06243
2.05797
2.05326
2.04795
2.04187
2.03522
2.02885
2.0235
2.0194
2.01634
2.01398
2.01199
2.01006
2.00785
2.00484
2.00062
1.99521
1.98924
1.98303
1.97598
1.9681
1.95952
1.9514
1.94569
1.9415
1.9376
1.93412
1.9305
1.92664
1.92285
1.91888
1.91379
1.9075
1.89677
1.74798
1.35252
1.23924
1.10798
0.987949
0.997021
1.0333
1.04451
1.02484
1.01964
1.0416
1.08894
1.15653
1.18658
1.21091
1.2431
1.28077
1.33022
1.37249
1.41133
1.45433
1.4931
1.51821
1.53244
1.53722
1.54752
1.56544
1.57446
1.57845
1.58243
1.58345
1.58531
1.59122
1.60357