/*--------------------------------*- C++ -*----------------------------------*\
  =========                 |
  \\      /  F ield         | OpenFOAM: The Open Source CFD Toolbox
   \\    /   O peration     | Website:  https://openfoam.org
    \\  /    A nd           | Version:  7
     \\/     M anipulation  |
\*---------------------------------------------------------------------------*/
FoamFile
{
    version     2.0;
    format      ascii;
    class       volScalarField;
    location    "49";
    object      p;
}
// * * * * * * * * * * * * * * * * * * * * * * * * * * * * * * * * * * * * * //

dimensions      [0 2 -2 0 0 0 0];

internalField   nonuniform List<scalar> 
16000
(
8.0606122e-06
-0.00013241807
-0.00044395029
-0.0008463189
-0.0012645378
-0.0016532134
-0.0019814739
-0.0022304788
-0.0023895911
-0.0024531062
-0.002418085
-0.0022830704
-0.002047492
-0.0017115936
-0.0012767329
-0.00074591941
-0.00012446474
0.00057936385
0.0013537895
0.0021831594
0.0030478475
0.0039244943
0.0047866166
0.0056056227
0.0063521878
0.0069979332
0.0075173042
0.0078895064
0.0081003403
0.0081437646
0.0080230212
0.0077512177
0.0073513493
0.0068558451
0.0063055521
0.0057479969
0.0052382437
0.0048325961
0.0045927367
0.0045539834
0.00015247829
7.5401369e-06
-0.00024255647
-0.00055144398
-0.0008736455
-0.0011748505
-0.0014308146
-0.0016253577
-0.0017481192
-0.0017926567
-0.0017550306
-0.0016328781
-0.0014249453
-0.0011310005
-0.00075203447
-0.0002906525
0.00024843643
0.00085792133
0.0015274671
0.002243439
0.0029888367
0.003743634
0.0044851254
0.0051889556
0.0058302708
0.0063851723
0.0068323365
0.0071546646
0.0073408209
0.0073865186
0.0072954211
0.0070795504
0.0067591404
0.006361961
0.0059222011
0.0054788368
0.0050730266
0.004748231
0.0045496719
0.0045143104
0.00047109857
0.00025321519
-2.6243553e-06
-0.0002816763
-0.00056192488
-0.00081886547
-0.0010347098
-0.0011974003
-0.0012987306
-0.0013331804
-0.0012970311
-0.0011877507
-0.0010036993
-0.00074412236
-0.0004093666
-1.2484518e-06
0.0004764959
0.0010177511
0.0016136248
0.0022521844
0.0029184255
0.0035943943
0.0042597318
0.0048924422
0.0054699846
0.0059706241
0.00637495
0.0066674308
0.0068378515
0.00688248
0.0068048403
0.0066160027
0.006334329
0.005984657
0.0055969913
0.0052047583
0.0048425129
0.0045444852
0.0043470498
0.004279797
0.00089270793
0.00056145017
0.00026075679
-2.5030459e-05
-0.00029563564
-0.00053478663
-0.00073091862
-0.00087681781
-0.00096741318
-0.00099900949
-0.00096879328
-0.00087447777
-0.00071419117
-0.00048659517
-0.00019118186
0.00017130625
0.00059839025
0.0010853621
0.0016248474
0.0022064981
0.0028168825
0.0034395509
0.0040555413
0.0046440684
0.0051835727
0.0056530351
0.0060334792
0.0063095367
0.0064709117
0.0065135578
0.0064404155
0.0062616164
0.005994121
0.0056607955
0.0052889579
0.0049085275
0.0045501526
0.0042437082
0.0040157377
0.0038801528
0.0013435009
0.00088383456
0.00052068098
0.00021036662
-6.7342454e-05
-0.00030340181
-0.00049213515
-0.00063128027
-0.00071918091
-0.00075427214
-0.0007348914
-0.00065913694
-0.00052492512
-0.00033024511
-7.356354e-05
0.00024566649
0.00062644109
0.001065638
0.0015575019
0.0020932483
0.0026608523
0.0032450815
0.003827856
0.0043889318
0.0049069288
0.0053606516
0.0057306231
0.006000708
0.0061596636
0.0062024147
0.0061308558
0.0059540398
0.0056877211
0.0053533014
0.0049762322
0.0045840968
0.0042051937
0.0038666631
0.003583976
0.0033603437
0.0017703456
0.0011772188
0.00074255804
0.00039651205
9.9952135e-05
-0.00014433749
-0.00033604885
-0.00047763383
-0.00057078266
-0.00061607102
-0.00061300957
-0.00056007277
-0.00045490452
-0.00029470522
-7.6753918e-05
0.00020097376
0.00053913467
0.0009363438
0.001388552
0.0018885383
0.0024255851
0.0029854191
0.0035504598
0.0041004654
0.0046135488
0.0050675415
0.0054416077
0.0057179748
0.0058836121
0.0059316555
0.0058623604
0.0056833893
0.0054093486
0.0050606174
0.0046615639
0.0042385433
0.0038190166
0.0034295123
0.0030769651
0.0027496598
0.0021280365
0.0014030605
0.00089347543
0.00050524741
0.00018198044
-7.8996222e-05
-0.0002821999
-0.00043441138
-0.00054041265
-0.00060274737
-0.00062196551
-0.00059679275
-0.00052446545
-0.00040124146
-0.00022303897
1.3830469e-05
0.00031187107
0.00067160111
0.0010907982
0.0015638569
0.0020813333
0.0026297708
0.0031918294
0.0037468701
0.0042719421
0.0047431935
0.0051376021
0.0054348716
0.0056192994
0.0056814018
0.0056190755
0.0054380826
0.0051517148
0.0047796078
0.0043457726
0.0038764346
0.0033996629
0.002943163
0.0025069381
0.002065393
0.0023780085
0.0015266056
0.00094253447
0.00050936229
0.00015478004
-0.00012877216
-0.00035016478
-0.00052008486
-0.00064606428
-0.00073233772
-0.00078026105
-0.00078860428
-0.00075400153
-0.00067157516
-0.00053568545
-0.00034077601
-8.2285413e-05
0.00024241679
0.00063312704
0.0010860077
0.001592974
0.0021413876
0.0027140362
0.0032896408
0.0038437816
0.004350329
0.0047832879
0.0051189027
0.0053377962
0.0054268869
0.005380836
0.0052028054
0.0049043622
0.0045044239
0.0040271947
0.00349981
0.0029523658
0.0024154418
0.0018840342
0.0013215137
0.0024864546
0.001516161
0.00086043347
0.00038197599
-6.3250206e-06
-0.00031654566
-0.00056152529
-0.00075545204
-0.00090824417
-0.0010255099
-0.0011091324
-0.0011576778
-0.0011669487
-0.0011307095
-0.0010415371
-0.00089177164
-0.00067454336
-0.00038484016
-2.0563596e-05
0.00041649479
0.00091985096
0.0014778633
0.0020735029
0.0026847682
0.0032855062
0.0038468268
0.0043390296
0.0047339181
0.0050072748
0.0051411947
0.005125959
0.0049611825
0.0046560575
0.0042285478
0.0037033576
0.0031094225
0.0024802547
0.0018509998
0.0012130714
0.00051958258
0.0024229028
0.0013426469
0.00061960739
9.7042319e-05
-0.00032598974
-0.0006658351
-0.00093899555
-0.0011627956
-0.0013491932
-0.001504855
-0.0016319078
-0.0017284576
-0.0017892377
-0.0018064192
-0.0017705478
-0.0016715873
-0.0015000527
-0.0012482039
-0.00091125281
-0.00048852875
1.5501616e-05
0.00059061258
0.0012202026
0.0018816675
0.0025470159
0.0031842245
0.0037592098
0.0042383262
0.0045912011
0.0047935917
0.0048298716
0.0046947737
0.0043941327
0.0039444416
0.0033709496
0.0027050741
0.0019850557
0.00125232
0.00049581857
-0.00034132509
0.0021595768
0.00097942963
0.00019445818
-0.00037009066
-0.0008280321
-0.0011998065
-0.0015053291
-0.001764742
-0.0019917341
-0.0021937456
-0.0023728865
-0.0025265655
-0.0026482208
-0.0027282007
-0.0027547635
-0.0027151935
-0.0025970259
-0.0023893574
-0.0020842052
-0.0016778665
-0.0011721867
-0.0005752827
9.7136059e-05
0.00082225736
0.001570374
0.0023061112
0.0029903931
0.0035830964
0.0040462464
0.0043474685
0.0044632638
0.0043816144
0.0041035036
0.0036430269
0.0030257169
0.0022859237
0.0014678213
0.00062085551
-0.00026764348
-0.0012648153
0.00167128
0.00040239166
-0.00043836554
-0.001042197
-0.0015347751
-0.0019404829
-0.0022824349
-0.0025833138
-0.0028582788
-0.0031153077
-0.0033562803
-0.0035777097
-0.0037715458
-0.0039261062
-0.0040271147
-0.0040588604
-0.0040054888
-0.0038524149
-0.0035878281
-0.0032042239
-0.0026998899
-0.0020804322
-0.0013593716
-0.00055912592
0.00028929367
0.0011471989
0.0019700603
0.0027102617
0.0033206556
0.0037586631
0.0039904894
0.0039948716
0.0037657453
0.0033132532
0.0026624905
0.0018509077
0.00092971149
-4.1840509e-05
-0.0010774432
-0.0022552853
0.00093561251
-0.00040980372
-0.0012995954
-0.0019396622
-0.0024663959
-0.0029079654
-0.0032904875
-0.0036389435
-0.0039697538
-0.0042912592
-0.004604959
-0.0049063336
-0.0051857034
-0.0054291873
-0.0056197529
-0.0057383868
-0.0057654156
-0.0056819931
-0.0054717358
-0.0051224509
-0.0046278995
-0.0039897177
-0.0032183921
-0.0023347951
-0.0013703792
-0.00036671705
0.00062604508
0.0015519203
0.0023529519
0.0029740097
0.0033680935
0.003501501
0.0033580645
0.0029415416
0.0022751548
0.0013991829
0.00037282933
-0.0007329434
-0.0019324214
-0.0033160464
-6.6602353e-05
-0.0014753143
-0.0024068952
-0.003079937
-0.0036402589
-0.0041196349
-0.0045469945
-0.0049494074
-0.0053443997
-0.0057405693
-0.0061389606
-0.0065339623
-0.0069141967
-0.0072634785
-0.0075618451
-0.0077867023
-0.0079141381
-0.0079204416
-0.0077838388
-0.0074864173
-0.0070161925
-0.0063692892
-0.0055517619
-0.0045814151
-0.0034888134
-0.0023174739
-0.0011228439
3.0183161e-05
0.00107131
0.0019303171
0.0025435931
0.0028610226
0.0028522647
0.0025111348
0.0018565207
0.00093054449
-0.00019889703
-0.0014471187
-0.0028286202
-0.0044475974
-0.0013507812
-0.0028086553
-0.0037743834
-0.00447699
-0.005070261
-0.0055893621
-0.0060658527
-0.0065287142
-0.0069964821
-0.0074779797
-0.0079738076
-0.0084772931
-0.0089753836
-0.0094495704
-0.0098768606
-0.010230861
-0.01048304
-0.010604238
-0.010566457
-0.010344944
-0.009920548
-0.0092822782
-0.0084298235
-0.0073759822
-0.0061485654
-0.0047914701
-0.0033644741
-0.0019413246
-0.0006058099
0.00055425642
0.0014548513
0.002024651
0.0022138949
0.0020015048
0.001398188
0.0004458417
-0.00077877184
-0.0021751713
-0.0037576578
-0.005645834
-0.0029280173
-0.0044202407
-0.0054121833
-0.0061408008
-0.0067662241
-0.0073267629
-0.0078564334
-0.0083859952
-0.0089349648
-0.0095124438
-0.010118692
-0.010746106
-0.011380081
-0.011999873
-0.012579461
-0.013088528
-0.013493626
-0.013759623
-0.013851504
-0.013736561
-0.013386994
-0.012782875
-0.011915339
-0.010789783
-0.0094287981
-0.0078743695
-0.006188808
-0.0044538166
-0.0027671054
-0.0012361908
3.0579257e-05
0.00093515977
0.0014018388
0.0013880067
0.00089053976
-5.2512712e-05
-0.0013562702
-0.0029025207
-0.0047048911
-0.0069000441
-0.0048045677
-0.0063159994
-0.0073260663
-0.008076955
-0.0087333898
-0.0093365464
-0.0099227476
-0.010524455
-0.011162219
-0.011845568
-0.012574631
-0.013341103
-0.014129067
-0.014915739
-0.015672196
-0.016364199
-0.016953208
-0.017397721
-0.017655017
-0.017683399
-0.017444978
-0.016909009
-0.016055717
-0.014880331
-0.013397188
-0.011643279
-0.0096806747
-0.0075970339
-0.0055033272
-0.0035280179
-0.0018073343
-0.00047193965
0.00036875578
0.00064205427
0.00032306372
-0.00055979311
-0.0019157441
-0.0036074057
-0.0056472619
-0.0081905571
-0.0069814677
-0.008497136
-0.0095172526
-0.010286405
-0.010972077
-0.01161802
-0.012262756
-0.012940454
-0.013672854
-0.014470172
-0.015332722
-0.016251851
-0.01721067
-0.01818467
-0.019142277
-0.020045475
-0.02085062
-0.021509607
-0.021971503
-0.022184764
-0.022100132
-0.021674262
-0.02087408
-0.019681729
-0.0180998
-0.016156474
-0.013909757
-0.011449945
-0.0088991339
-0.0064065774
-0.0041389401
-0.0022651888
-0.00093703505
-0.00026777252
-0.00031473308
-0.0010677851
-0.0024347468
-0.0042586872
-0.0065506985
-0.0094859035
-0.0094543468
-0.010960108
-0.011982442
-0.012765463
-0.013477573
-0.014164821
-0.014867898
-0.015622809
-0.01645277
-0.017369075
-0.01837267
-0.019455012
-0.020598697
-0.021777911
-0.022958798
-0.024099845
-0.025152463
-0.026061925
-0.026768818
-0.027211161
-0.027327321
-0.027059819
-0.02636011
-0.025194375
-0.023549776
-0.021441334
-0.018918201
-0.016068573
-0.01302175
-0.0099456581
-0.0070381905
-0.0045112317
-0.0025675335
-0.0013731257
-0.0010314349
-0.001562941
-0.0028818005
-0.0048130958
-0.0073669232
-0.010739334
-0.012213518
-0.013696892
-0.014714142
-0.015506099
-0.016240321
-0.016964929
-0.017722901
-0.018552375
-0.019478515
-0.020514245
-0.021661717
-0.022913077
-0.024250955
-0.025648747
-0.027070773
-0.028472424
-0.029800477
-0.03099377
-0.031984414
-0.032699734
-0.033065103
-0.033007776
-0.032461915
-0.031375431
-0.029716306
-0.027481888
-0.024707024
-0.021471798
-0.017906876
-0.014194322
-0.010561471
-0.0072655942
-0.0045682454
-0.0027011648
-0.0018303631
-0.0020235441
-0.0032134007
-0.0052117611
-0.0080295133
-0.011884545
-0.015244405
-0.016695616
-0.017701361
-0.018496588
-0.019246443
-0.020001022
-0.020805918
-0.021701979
-0.022717031
-0.023866382
-0.025154124
-0.026573771
-0.028108609
-0.029731817
-0.031406408
-0.033085144
-0.034710591
-0.03621551
-0.037523796
-0.038552171
-0.039212832
-0.039417171
-0.039080796
-0.038131941
-0.036515823
-0.034207962
-0.031223279
-0.027626868
-0.0235432
-0.019161336
-0.014733018
-0.010560061
-0.0069681392
-0.0042671405
-0.0027042329
-0.0024154945
-0.0033700036
-0.0053758451
-0.0084490586
-0.012830462
-0.018528363
-0.019941621
-0.02093075
-0.021722583
-0.022478657
-0.023251169
-0.024089015
-0.025036714
-0.026125815
-0.027375027
-0.028791289
-0.030370259
-0.032096543
-0.033943673
-0.035873871
-0.037837746
-0.039774113
-0.041610116
-0.043261885
-0.044635932
-0.045631544
-0.046144469
-0.04607209
-0.045318647
-0.043807568
-0.041488318
-0.038350501
-0.034437135
-0.029857787
-0.02479903
-0.019528435
-0.014387213
-0.0097663791
-0.0060639479
-0.0036273615
-0.0026863145
-0.0032707152
-0.0052010801
-0.0085072593
-0.013454965
-0.022043955
-0.023419048
-0.024388244
-0.025168637
-0.025917567
-0.026689861
-0.027538951
-0.028514559
-0.02965348
-0.030979178
-0.032502538
-0.034222222
-0.03612481
-0.038184695
-0.040363731
-0.042610771
-0.044861286
-0.047037262
-0.049047593
-0.050789186
-0.052149049
-0.053007642
-0.053243699
-0.052740356
-0.051395238
-0.049130054
-0.045905127
-0.041734983
-0.036705374
-0.030989362
-0.024858557
-0.018683625
-0.012916564
-0.0080487507
-0.0045451792
-0.0027570341
-0.0028064025
-0.0045510025
-0.0080497925
-0.013597422
-0.025768768
-0.027113053
-0.028061323
-0.028820238
-0.029543341
-0.030289313
-0.031118195
-0.032087243
-0.033240644
-0.034608363
-0.036206548
-0.038037768
-0.040091158
-0.04234233
-0.044753006
-0.047270482
-0.04982713
-0.052340118
-0.054711587
-0.0568295
-0.058569415
-0.059797463
-0.060374744
-0.06016343
-0.059036246
-0.056885956
-0.053641058
-0.049282665
-0.043864736
-0.03753554
-0.030556808
-0.023314278
-0.016310159
-0.010127473
-0.0053611726
-0.002511781
-0.0018309888
-0.0032486658
-0.0068777481
-0.013049904
-0.029681905
-0.031012846
-0.031942009
-0.032666377
-0.033337719
-0.034020946
-0.034786035
-0.03570122
-0.036821008
-0.038184077
-0.039813321
-0.041716097
-0.043884511
-0.046295497
-0.048910576
-0.051675383
-0.054519138
-0.057354282
-0.060076501
-0.062565356
-0.064685782
-0.066290684
-0.067224918
-0.067330965
-0.066457693
-0.064469783
-0.061263146
-0.056782666
-0.05104458
-0.04416237
-0.036373563
-0.02806154
-0.01976179
-0.012138859
-0.00592201
-0.0017851741
-0.00015077117
-0.0010665948
-0.0047373676
-0.011546897
-0.033767405
-0.035115871
-0.036030837
-0.036702745
-0.037286287
-0.037856881
-0.038499602
-0.039298574
-0.040322493
-0.041621411
-0.043226545
-0.045150751
-0.047389207
-0.04991988
-0.052703606
-0.055683819
-0.058786131
-0.061917984
-0.064968582
-0.067809355
-0.070295244
-0.072266946
-0.073554545
-0.073982798
-0.07337749
-0.071578051
-0.068448653
-0.063897471
-0.057899896
-0.05052736
-0.041980538
-0.032622248
-0.022999827
-0.013840737
-0.0060023801
-0.00034807826
0.0024882794
0.0022853057
-0.0013076537
-0.0087531194
-0.038019121
-0.039433695
-0.040342176
-0.040935657
-0.041380933
-0.041771269
-0.042214591
-0.042817677
-0.043668277
-0.044830803
-0.046346247
-0.048233286
-0.050489743
-0.053093767
-0.056004462
-0.059161994
-0.062487425
-0.06588246
-0.069229377
-0.072391358
-0.075213632
-0.077525397
-0.079143025
-0.079874785
-0.079527204
-0.077915159
-0.074873841
-0.070276496
-0.064057535
-0.05624274
-0.046986818
-0.03661579
-0.025665792
-0.014901835
-0.0052919342
0.0021071616
0.0064150407
0.0071742836
0.0038149066
-0.0042486759
-0.04244805
-0.044000621
-0.044911546
-0.045386911
-0.045622397
-0.045741242
-0.045885488
-0.046193452
-0.046777653
-0.047719823
-0.049071664
-0.050857251
-0.053075818
-0.055704068
-0.058697634
-0.061991737
-0.0655014
-0.069121362
-0.072726095
-0.076169948
-0.079288288
-0.08189906
-0.083805642
-0.0848011
-0.084674188
-0.083218006
-0.080241587
-0.075586244
-0.069147728
-0.060906272
-0.050966137
-0.039604664
-0.027325614
-0.014902858
-0.0033875717
0.0059800781
0.012049177
0.014062343
0.011135894
0.0024901715
-0.047094117
-0.048886825
-0.049805954
-0.050099881
-0.050022799
-0.049747266
-0.049465114
-0.049357166
-0.049566713
-0.050195046
-0.05130434
-0.052922397
-0.055047469
-0.057652183
-0.060686161
-0.064077332
-0.067732646
-0.071538161
-0.075359547
-0.079040806
-0.082407146
-0.085264958
-0.087404728
-0.088604928
-0.088637712
-0.087276087
-0.08430562
-0.079539018
-0.072836974
-0.064137031
-0.053492965
-0.041127143
-0.02749466
-0.013350449
0.00020485186
0.01177106
0.01991756
0.023527892
0.021289328
0.012118283
-0.052046319
-0.054219149
-0.055138879
-0.055147243
-0.054607996
-0.053772661
-0.052903406
-0.052235819
-0.05194902
-0.052164151
-0.052951522
-0.054339076
-0.05632012
-0.058859357
-0.061897173
-0.065350897
-0.06911706
-0.073070814
-0.07706893
-0.080941199
-0.084503243
-0.087549009
-0.089855574
-0.091186661
-0.091298825
-0.08994466
-0.086888255
-0.081916382
-0.074858022
-0.065611847
-0.054183919
-0.040740301
-0.025677278
-0.0097074842
0.0060542975
0.020081268
0.030669093
0.036292746
0.035075314
0.02546468
-0.057478991
-0.060214994
-0.061092227
-0.060640625
-0.05941936
-0.05780192
-0.056145297
-0.054751197
-0.053836366
-0.053538327
-0.053929791
-0.055032602
-0.056829211
-0.059271099
-0.062286125
-0.065775956
-0.069625126
-0.073695928
-0.077830584
-0.081849721
-0.085554436
-0.088725715
-0.091126733
-0.092505936
-0.092601901
-0.091149478
-0.087890286
-0.082585564
-0.075034429
-0.06509934
-0.052741432
-0.038071382
-0.02142111
-0.0034430289
0.014767551
0.031596387
0.045083618
0.053255501
0.05351587
0.043606641
-0.063719823
-0.067238572
-0.067948188
-0.066741845
-0.064513832
-0.061816897
-0.059127152
-0.056818243
-0.055139341
-0.054234552
-0.054168386
-0.054946982
-0.056533963
-0.058861445
-0.061837332
-0.065347841
-0.069260187
-0.073421874
-0.077660706
-0.081784195
-0.085579444
-0.088813447
-0.091234509
-0.092574835
-0.092554781
-0.090889114
-0.087296123
-0.081510481
-0.073300292
-0.062490997
-0.048998543
-0.032876737
-0.014387315
0.0058939519
0.026923532
0.047043942
0.064066662
0.075530351
0.077938556
0.068004447
-0.071381997
-0.075894698
-0.076133572
-0.073673429
-0.069959323
-0.065788489
-0.061769907
-0.058341168
-0.055766147
-0.054176225
-0.05361069
-0.05404659
-0.055417799
-0.057629895
-0.060566404
-0.064092687
-0.068057078
-0.072290463
-0.076605368
-0.080794835
-0.084631726
-0.087868511
-0.090238057
-0.091455632
-0.091222553
-0.089231789
-0.085176103
-0.078760718
-0.069718479
-0.05783242
-0.042966342
-0.025108899
-0.0044399259
0.018569339
0.042964045
0.067104227
0.088609989
0.10448248
0.11010404
0.10075993
-0.081632614
-0.087182835
-0.086271362
-0.081717408
-0.075815721
-0.069655876
-0.063962288
-0.059201578
-0.055614652
-0.053287822
-0.052210481
-0.052311979
-0.053485262
-0.055600542
-0.058512142
-0.06206113
-0.066075386
-0.070368224
-0.074736536
-0.078958908
-0.082794168
-0.085980522
-0.088235632
-0.08925789
-0.088729286
-0.086319963
-0.081694772
-0.07452576
-0.064503891
-0.051359729
-0.034890422
-0.014998568
0.0082479325
0.034514614
0.063012755
0.092225268
0.11965925
0.14172185
0.15240379
0.14512401
-0.096760965
-0.10273928
-0.099199053
-0.091156368
-0.082063623
-0.073262575
-0.065508928
-0.059218111
-0.054541297
-0.051470507
-0.049911306
-0.049724107
-0.050746947
-0.052807118
-0.055725621
-0.059317412
-0.063389483
-0.067737946
-0.07214493
-0.076375717
-0.080176434
-0.083272437
-0.085367607
-0.086144771
-0.085267678
-0.082383868
-0.07712934
-0.069139619
-0.058056684
-0.043545791
-0.025316233
-0.0031517554
0.023040564
0.053140993
0.086633056
0.12228271
0.15778055
0.18895136
0.20809757
0.20632741
-0.12134052
-0.12518816
-0.11587393
-0.10208203
-0.088418151
-0.076199123
-0.066006583
-0.058053055
-0.052292147
-0.048551079
-0.046609238
-0.046233875
-0.047195659
-0.049273585
-0.052253908
-0.055926211
-0.06007844
-0.064491855
-0.068936406
-0.073166765
-0.076919134
-0.079908881
-0.081829044
-0.082349841
-0.081119774
-0.077765473
-0.071896881
-0.063111327
-0.050997141
-0.035142726
-0.015146311
0.0093686677
0.038725114
0.073129389
0.11251949
0.1562623
0.20263058
0.24752285
0.28130065
0.29235625
-0.16445796
-0.15843369
-0.13714919
-0.11415827
-0.094108119
-0.077632017
-0.064738693
-0.055162609
-0.048490738
-0.044292404
-0.042173724
-0.04178831
-0.042833364
-0.045040619
-0.048165723
-0.051978055
-0.05625179
-0.060758344
-0.065260166
-0.069505714
-0.07322555
-0.076129343
-0.077903779
-0.07821153
-0.076691516
-0.072948775
-0.066578679
-0.057141583
-0.044173284
-0.027181268
-0.0056369281
0.021034431
0.053463774
0.092331282
0.13829593
0.19182658
0.25266769
0.3175111
0.37626825
0.41537043
-0.24629482
-0.20631887
-0.16213116
-0.1255298
-0.097144571
-0.075879088
-0.060488471
-0.049753266
-0.042661176
-0.038437143
-0.036491283
-0.036366334
-0.037698308
-0.040186122
-0.043568229
-0.047605216
-0.052066914
-0.05672271
-0.061334161
-0.065649314
-0.069398346
-0.072290282
-0.074010651
-0.07422087
-0.072559538
-0.068606558
-0.061962657
-0.052156833
-0.038683837
-0.020982023
0.0015953564
0.029824943
0.064686138
0.10746468
0.15987093
0.22417771
0.30290537
0.3955321
0.49624333
0.60321222
-0.42543959
-0.26573096
-0.17722219
-0.1246368
-0.089117427
-0.065103558
-0.049324766
-0.039186244
-0.032984637
-0.02967503
-0.028571674
-0.029187723
-0.031157799
-0.034190879
-0.038038597
-0.04247432
-0.047279163
-0.052232195
-0.057103254
-0.06164756
-0.065601603
-0.068679981
-0.070572661
-0.070941544
-0.069408831
-0.065630704
-0.059133253
-0.049453701
-0.036075614
-0.018404033
0.0042710669
0.032847039
0.068542522
0.11314198
0.16943659
0.24201715
0.33806605
0.4659158
0.64305462
0.92086219
-0.79331354
-0.32444277
-0.14899802
-0.08772598
-0.055346382
-0.036000078
-0.025092112
-0.019201562
-0.016356092
-0.015619669
-0.016494907
-0.018654723
-0.021853844
-0.025889213
-0.030576232
-0.035734631
-0.041179852
-0.046717103
-0.052136815
-0.057211004
-0.061690329
-0.065301725
-0.067746729
-0.06870176
-0.067825355
-0.064708793
-0.058942606
-0.050073256
-0.037594181
-0.020927931
0.00060994088
0.027880658
0.062058375
0.104913
0.15945096
0.23152764
0.33385111
0.49409187
0.79001602
1.383778
1.1343623e-05
-0.00013151903
-0.00044371171
-0.00084627197
-0.0012646782
-0.0016534815
-0.001981826
-0.0022308905
-0.0023900451
-0.0024535884
-0.0024185826
-0.0022835723
-0.0020479879
-0.0017120732
-0.0012771858
-0.00074633437
-0.00012482966
0.00057906137
0.0013535612
0.0021830152
0.0030477947
0.0039245388
0.0047867628
0.0056058716
0.0063525341
0.0069983642
0.0075178008
0.0078900474
0.0081009059
0.0081443339
0.0080235666
0.0077517043
0.0073517426
0.0068561234
0.0063057139
0.0057480628
0.0052381957
0.0048323912
0.004592358
0.0045538275
0.00015328083
8.0126118e-06
-0.00024214174
-0.00055100079
-0.00087316066
-0.0011743119
-0.0014302261
-0.001624733
-0.0017474742
-0.0017920071
-0.0017543909
-0.0016322617
-0.0014243649
-0.0011304685
-0.00075156388
-0.00029025629
0.00024874575
0.00085813255
0.0015275714
0.0022434296
0.0029887084
0.0037433816
0.0044847493
0.0051884628
0.0058296753
0.0063844922
0.0068315899
0.0071538691
0.0073399982
0.0073856997
0.0072946433
0.0070788454
0.0067585237
0.006361436
0.0059217754
0.0054785334
0.005072879
0.0047481598
0.0045495523
0.0045143962
0.00047154876
0.00025345298
-2.339779e-06
-0.00028143866
-0.00056175405
-0.00081873135
-0.0010345994
-0.0011973093
-0.0012986556
-0.0013331196
-0.0012969841
-0.0011877177
-0.0010036804
-0.00074411735
-0.0004093752
-1.2705697e-06
0.00047645997
0.0010177011
0.0016135617
0.0022521111
0.002918345
0.0035943088
0.0042596414
0.004892346
0.0054698841
0.0059705245
0.006374857
0.0066673451
0.006837766
0.0068823866
0.0068047396
0.0066159056
0.0063342432
0.0059845729
0.0055968872
0.0052046268
0.0048423804
0.0045443567
0.0043468802
0.0042797663
0.00089317091
0.00056148515
0.0002609801
-2.4828173e-05
-0.00029552248
-0.00053471895
-0.00073088127
-0.00087680764
-0.00096742487
-0.00099903833
-0.0009688363
-0.00087453306
-0.00071425721
-0.00048667033
-0.00019126391
0.0001712201
0.00059830266
0.0010852749
0.0016247622
0.002206417
0.0028168092
0.0034394906
0.0040554976
0.0046440404
0.0051835566
0.0056530286
0.0060334843
0.0063095574
0.0064709454
0.0065135911
0.0064404317
0.0062616098
0.0059941008
0.0056607704
0.0052889183
0.0049084495
0.0045500247
0.0042435517
0.0040155807
0.0038800163
0.0013440232
0.00088366596
0.00052087632
0.00021060021
-6.7190219e-05
-0.00030327383
-0.00049201835
-0.00063117935
-0.00071909556
-0.00075420069
-0.00073483314
-0.00065909182
-0.00052489366
-0.00033022822
-7.3561968e-05
0.00024565296
0.00062641369
0.001065598
0.0015574497
0.0020931833
0.0026607748
0.0032449946
0.003827765
0.0043888413
0.0049068388
0.0053605582
0.0057305238
0.0060006073
0.0061595705
0.0062023326
0.0061307748
0.0059539443
0.0056876074
0.0053531845
0.0049761287
0.0045839972
0.0042050606
0.0038665249
0.0035839481
0.0033601212
0.0017709616
0.0011768653
0.00074272213
0.00039675072
0.00010009708
-0.00014421141
-0.00033592611
-0.00047752289
-0.00057068516
-0.00061598645
-0.00061293795
-0.00056001424
-0.00045485934
-0.00029467416
-7.6738372e-05
0.00020097253
0.00053911664
0.00093631047
0.0013885054
0.0018884792
0.0024255128
0.002985333
0.0035503625
0.004100363
0.0046134476
0.0050674422
0.0054415049
0.0057178638
0.0058834964
0.0059315465
0.0058622641
0.0056832964
0.0054092413
0.0050604917
0.0046614389
0.0042384277
0.0038188724
0.0034293845
0.0030770236
0.0027493422
0.0021287557
0.0014025423
0.0008936148
0.00050548926
0.00018211112
-7.8883816e-05
-0.00028208662
-0.00043430784
-0.00054032103
-0.00060266751
-0.00062189806
-0.00059673833
-0.00052442424
-0.00040121344
-0.00022302465
1.3829766e-05
0.00031185395
0.00067156757
0.0010907503
0.0015637979
0.0020812651
0.0026296925
0.0031917395
0.0037467702
0.004271839
0.0047430948
0.0051375095
0.0054347781
0.0056191969
0.0056812919
0.0056189703
0.0054379898
0.0051516245
0.0047795028
0.0043456543
0.0038763095
0.0033994962
0.0029430372
0.0025070956
0.0020650008
0.0023788316
0.0015259401
0.00094265741
0.00050961372
0.00015490471
-0.0001286643
-0.00035005173
-0.00051997956
-0.00064596922
-0.00073225261
-0.00078018697
-0.0007885427
-0.00075395357
-0.00067154116
-0.00053566522
-0.00034076977
-8.2294467e-05
0.00024239072
0.0006330836
0.0010859494
0.0015929051
0.0021413108
0.0027139511
0.0032895446
0.0038436748
0.0043502183
0.0047831829
0.0051188065
0.005337701
0.0054267821
0.0053807217
0.0052026939
0.0049042612
0.0045043252
0.0040270894
0.0034996857
0.0029521757
0.0024153131
0.0018842941
0.0013210328
0.0024873787
0.0015153639
0.00086054564
0.00038223971
-6.2031253e-06
-0.00031643897
-0.0005614092
-0.00075534209
-0.00090814344
-0.0010254179
-0.00110905
-0.0011576065
-0.0011668904
-0.0011306659
-0.0010415087
-0.00089175801
-0.00067454422
-0.00038485661
-2.0597771e-05
0.00041644208
0.0009197825
0.0014777837
0.0020734167
0.0026846752
0.0032854028
0.0038467118
0.0043389097
0.0047338044
0.0050071718
0.0051410945
0.0051258498
0.0049610634
0.0046559396
0.0042284396
0.0037032586
0.0031093062
0.002480048
0.0018508669
0.0012134327
0.00051900758
0.0024239229
0.0013417326
0.00061971347
9.7320144e-05
-0.00032586865
-0.0006657284
-0.00093887554
-0.00116268
-0.0013490861
-0.0015047562
-0.0016318178
-0.0017283776
-0.0017891692
-0.0018063645
-0.0017705091
-0.0016715651
-0.0015000463
-0.0012482124
-0.00091127699
-0.00048857068
1.5441135e-05
0.00059053379
0.0012201121
0.0018815714
0.0025469148
0.0031841141
0.0037590878
0.0042381987
0.0045910799
0.0047934823
0.0048297665
0.0046946606
0.0043940101
0.0039443215
0.003370847
0.0027049626
0.0019848361
0.0012521867
0.00049628822
-0.00034200109
0.0021606861
0.00097841145
0.00019456194
-0.00036979688
-0.00082790938
-0.0011996982
-0.0015052042
-0.0017646198
-0.0019916192
-0.0021936381
-0.0023727878
-0.0025264766
-0.0026481425
-0.0027281344
-0.0027547117
-0.0027151588
-0.0025970092
-0.0023893578
-0.0020842211
-0.0016778974
-0.0011722334
-0.00057535216
9.7046929e-05
0.00082215569
0.0015702672
0.002306001
0.0029902754
0.0035829678
0.0040461126
0.0043473416
0.0044631493
0.0043815044
0.0041033861
0.0036429041
0.0030256093
0.0022858102
0.0014675846
0.00062072404
-0.00026705201
-0.0012656035
0.0016724708
0.00040128329
-0.00043826152
-0.0010418862
-0.0015346478
-0.0019403705
-0.0022823038
-0.0025831841
-0.002858155
-0.0031151901
-0.0033561707
-0.00357761
-0.0037714569
-0.0039260286
-0.0040270495
-0.0040588103
-0.0040054569
-0.0038524027
-0.0035878345
-0.0032042469
-0.0026999301
-0.0020804894
-0.0013594501
-0.00055922519
0.00028918048
0.0011470805
0.00196994
0.0027101358
0.003320521
0.0037585252
0.0039903595
0.0039947537
0.0037656304
0.0033131352
0.0026623849
0.0018507914
0.0009294507
-4.1972363e-05
-0.0010767132
-0.0022562006
0.00093687591
-0.00041098762
-0.0012994894
-0.0019393346
-0.0024662619
-0.0029078466
-0.0032903485
-0.0036388054
-0.0039696208
-0.0042911309
-0.0046048371
-0.0049062208
-0.0051856015
-0.0054290972
-0.0056196749
-0.0057383217
-0.0057653661
-0.0056819627
-0.0054717268
-0.005122463
-0.0046279313
-0.0039897642
-0.003218457
-0.0023348826
-0.0013704889
-0.00036684183
0.00062591508
0.0015517899
0.0023528184
0.0029738708
0.0033679546
0.0035013712
0.003357944
0.0029414266
0.002275057
0.0013990686
0.00037254042
-0.00073307886
-0.0019315333
-0.0033171088
-6.5277007e-05
-0.0014765579
-0.0024067852
-0.0030795937
-0.0036401173
-0.004119508
-0.0045468458
-0.0049492592
-0.0053442566
-0.0057404302
-0.0061388266
-0.0065338354
-0.0069140795
-0.0072633734
-0.0075617529
-0.007786623
-0.0079140723
-0.0079203919
-0.0077838094
-0.0074864115
-0.0070162103
-0.0063693263
-0.0055518167
-0.0045814896
-0.0034889112
-0.0023175947
-0.00112298
3.00424e-05
0.0010711705
0.001930178
0.0025434534
0.0028608866
0.0028521364
0.0025110178
0.0018564306
0.00093043615
-0.00019921559
-0.0014472588
-0.0028275504
-0.0044488322
-0.0013494066
-0.0028099421
-0.0037742674
-0.0044766322
-0.0050701113
-0.0055892266
-0.0060656934
-0.0065285546
-0.0069963273
-0.007477829
-0.0079736616
-0.0084771529
-0.008975251
-0.0094494481
-0.0098767514
-0.010230766
-0.010482959
-0.010604172
-0.010566407
-0.010344916
-0.0099205459
-0.0092823018
-0.0084298694
-0.0073760478
-0.0061486517
-0.00479158
-0.0033646066
-0.0019414714
-0.00060595953
0.00055411092
0.0014547108
0.002024515
0.0022137636
0.0020013851
0.0013981038
0.00044573962
-0.00077912318
-0.0021753158
-0.0037563769
-0.005647271
-0.0029266072
-0.0044215545
-0.0054120599
-0.0061404294
-0.0067660656
-0.0073266182
-0.0078562634