/*--------------------------------*- C++ -*----------------------------------*\
  =========                 |
  \\      /  F ield         | OpenFOAM: The Open Source CFD Toolbox
   \\    /   O peration     | Website:  https://openfoam.org
    \\  /    A nd           | Version:  7
     \\/     M anipulation  |
\*---------------------------------------------------------------------------*/
FoamFile
{
    version     2.0;
    format      ascii;
    class       surfaceScalarField;
    location    "49";
    object      phi;
}
// * * * * * * * * * * * * * * * * * * * * * * * * * * * * * * * * * * * * * //

dimensions      [0 3 -1 0 0 0 0];

internalField   nonuniform List<scalar> 
45600
(
2.7526545e-07
-2.8214385e-07
-7.717404e-11
4.0338332e-07
-1.2809274e-07
-2.4272315e-11
1.3259037e-07
2.7080035e-07
-6.4411968e-12
-5.6228942e-07
6.9488232e-07
-1.2671034e-12
-1.6392973e-06
1.0770052e-06
3.7895045e-12
-3.0276121e-06
1.3883072e-06
7.2375965e-12
-4.6524586e-06
1.6248352e-06
9.506911e-12
-6.4450943e-06
1.7926232e-06
1.1114158e-11
-8.345423e-06
1.9003164e-06
1.2258952e-11
-1.0301443e-05
1.956008e-06
1.3017429e-11
-1.2267403e-05
1.9659464e-06
1.3436264e-11
-1.4201583e-05
1.9341655e-06
1.3551449e-11
-1.6064241e-05
1.8626436e-06
1.3386526e-11
-1.781603e-05
1.751776e-06
1.2948264e-11
-1.9417056e-05
1.6010167e-06
1.2227361e-11
-2.082666e-05
1.4095954e-06
1.1203034e-11
-2.2003908e-05
1.1772403e-06
9.8520095e-12
-2.2908769e-05
9.0485241e-07
8.1664069e-12
-2.3503869e-05
5.950906e-07
6.1638994e-12
-2.3756703e-05
2.5282922e-07
3.8956055e-12
-2.3642143e-05
-1.1455823e-07
1.4246391e-12
-2.3145011e-05
-4.9712403e-07
-1.2032424e-12
-2.2262576e-05
-8.8242745e-07
-3.9467109e-12
-2.1006619e-05
-1.2559545e-06
-6.7188742e-12
-1.9404868e-05
-1.6017522e-06
-9.3506777e-12
-1.7501564e-05
-1.9032973e-06
-1.1635477e-11
-1.5356978e-05
-2.1445633e-06
-1.3404926e-11
-1.3045756e-05
-2.3111879e-06
-1.4606582e-11
-1.065409e-05
-2.3916406e-06
-1.5270207e-11
-8.2758042e-06
-2.3782863e-06
-1.5368202e-11
-6.0075673e-06
-2.2682517e-06
-1.4725407e-11
-3.9435459e-06
-2.0640176e-06
-1.3135681e-11
-2.1697966e-06
-1.7737078e-06
-1.0618306e-11
-7.5852924e-07
-1.4112161e-06
-7.5142917e-12
2.3823717e-07
-9.9676139e-07
-4.3695156e-12
7.9655868e-07
-5.5837451e-07
-1.7777526e-12
9.2924778e-07
-1.3274361e-07
1.2944092e-12
7.0552991e-07
2.2374982e-07
5.5318624e-12
2.9043189e-07
4.1520063e-07
1.0222975e-11
2.904977e-07
3.9373682e-12
1.3293785e-07
-4.1505897e-07
-2.1667072e-11
-3.0163157e-07
3.0649257e-07
-1.370294e-11
-1.6153593e-06
1.584541e-06
-1.2028403e-11
-3.874676e-06
2.9542118e-06
-1.2853616e-11
-7.0073184e-06
4.2096621e-06
-1.4061632e-11
-1.0879734e-05
5.2607389e-06
-1.5620488e-11
-1.5335152e-05
6.0802698e-06
-1.7068613e-11
-2.0215994e-05
6.673481e-06
-1.8116975e-11
-2.5374056e-05
7.0583946e-06
-1.8704428e-11
-3.0673272e-05
7.2552413e-06
-1.8838179e-11
-3.598854e-05
7.2812349e-06
-1.8550696e-11
-4.1202828e-05
7.148474e-06
-1.787641e-11
-4.6203972e-05
6.8638056e-06
-1.6834592e-11
-5.08821e-05
6.4299199e-06
-1.5427663e-11
-5.5128234e-05
5.8471623e-06
-1.3648214e-11
-5.8834321e-05
5.1156953e-06
-1.1490981e-11
-6.1894805e-05
4.2377369e-06
-8.9709623e-12
-6.4209609e-05
3.219669e-06
-6.1260773e-12
-6.5688357e-05
2.0738449e-06
-3.0245701e-12
-6.6255468e-05
8.1993592e-07
2.7204973e-13
-6.5855986e-05
-5.1405193e-07
3.7231644e-12
-6.4460814e-05
-1.8923069e-06
7.3222476e-12
-6.2072481e-05
-3.2707627e-06
1.0909548e-11
-5.8729087e-05
-4.5993472e-06
1.4292057e-11
-5.4507069e-05
-5.823779e-06
1.727042e-11
-4.9521902e-05
-6.8884977e-06
1.9724802e-11
-4.3926403e-05
-7.7401082e-06
2.1653064e-11
-3.7906463e-05
-8.3311604e-06
2.30712e-11
-3.1674147e-05
-8.6239532e-06
2.3859407e-11
-2.5458386e-05
-8.5940289e-06
2.3750833e-11
-1.9493589e-05
-8.2330615e-06
2.2558639e-11
-1.4006714e-05
-7.5509596e-06
2.0446882e-11
-9.2033117e-06
-6.5771864e-06
1.7885499e-11
-5.25293e-06
-5.3616064e-06
1.5226327e-11
-2.2739773e-06
-3.9756419e-06
1.2348514e-11
-3.1723017e-07
-2.5150592e-06
8.7990256e-12
6.5709436e-07
-1.1071251e-06
4.2816143e-12
8.0365174e-07
7.7021634e-08
2.0644902e-12
4.1776991e-07
8.0093115e-07
3.469688e-12
7.0833315e-07
-2.3174896e-12
-2.7356214e-07
-1.4148356e-07
-1.2154235e-11
-1.6274456e-06
1.6603855e-06
-6.8964049e-12
-4.2893653e-06
4.2464707e-06
-8.2534174e-12
-8.274643e-06
6.9394958e-06
-6.8920185e-12
-1.347439e-05
9.4094122e-06
-4.9545882e-12
-1.9708699e-05
1.1495052e-05
-3.8898095e-12
-2.6765733e-05
1.3137308e-05
-3.2018675e-12
-3.4426602e-05
1.4334353e-05
-2.6393322e-12
-4.2478621e-05
1.5110413e-05
-2.1769639e-12
-5.0720444e-05
1.5497064e-05
-1.765354e-12
-5.8962291e-05
1.5523083e-05
-1.3628493e-12
-6.7023687e-05
1.5209873e-05
-9.564397e-13
-7.4730529e-05
1.4570651e-05
-5.4855099e-13
-8.1912717e-05
1.3612111e-05
-1.4524141e-13
-8.8403146e-05
1.2337592e-05
2.493738e-13
-9.4038476e-05
1.0751022e-05
6.4147267e-13
-9.8661797e-05
8.8610553e-06
1.0421462e-12
-0.0001021271
6.6849693e-06
1.4506502e-12
-0.00010430523
4.2519793e-06
1.8298213e-12
-0.000105091
1.6057151e-06
2.1283275e-12
-0.00010441064
-1.1944185e-06
2.3340913e-12
-0.00010222946
-4.0735004e-06
2.4790849e-12
-9.8558526e-05
-6.9417076e-06
2.6227004e-12
-9.346001e-05
-9.6978619e-06
2.7896641e-12
-8.7050394e-05
-1.2233379e-05
2.915121e-12
-7.9500991e-05
-1.4437886e-05
2.8898003e-12
-7.1035276e-05
-1.6205834e-05
2.6953329e-12
-6.1922731e-05
-1.744374e-05
2.4865242e-12
-5.2469164e-05
-1.8077547e-05
2.4805405e-12
-4.300369e-05
-1.8059486e-05
2.7102185e-12
-3.3862812e-05
-1.7373887e-05
2.9188251e-12
-2.5372203e-05
-1.6041542e-05
2.8157335e-12
-1.7826875e-05
-1.4122561e-05
2.4894235e-12
-1.1470432e-05
-1.1718133e-05
2.4397016e-12
-6.4739035e-06
-8.9721897e-06
3.0201677e-12
-2.9140498e-06
-6.0748162e-06
3.8145232e-12
-7.5118818e-07
-3.2698586e-06
3.8426106e-12
1.9438924e-07
-8.6853789e-07
3.729231e-12
2.6546558e-07
7.2974662e-07
4.9191307e-12
9.7380473e-07
8.2933082e-13
-7.4583547e-07
6.0436495e-07
-1.2499627e-11
-3.179615e-06
4.0941676e-06
-1.0143658e-12
-7.3460805e-06
8.412945e-06
-6.4763664e-12
-1.3163035e-05
1.2756457e-05
-5.866793e-12
-2.0455802e-05
1.6702181e-05
-3.2817201e-12
-2.8992625e-05
2.0031875e-05
-1.9630044e-12
-3.8513872e-05
2.2658555e-05
-1.0832038e-12
-4.8752674e-05
2.4573158e-05
-2.9493618e-13
-5.9446983e-05
2.5804722e-05
3.392111e-13
-7.0344837e-05
2.6394916e-05
8.3645278e-13
-8.1205134e-05
2.6383376e-05
1.2477372e-12
-9.1795989e-05
2.5800726e-05
1.6035488e-12
-0.00010189242
2.4667082e-05
1.9154142e-12
-0.00011127464
2.299433e-05
2.179768e-12
-0.00011972779
2.0790744e-05
2.379496e-12
-0.00012704362
1.8066847e-05
2.4983744e-12
-0.00013302417
1.4841601e-05
2.5404522e-12
-0.00013748743
1.1148221e-05
2.5286966e-12
-0.00014027453
7.0390754e-06
2.4730405e-12
-0.00014125806
2.5892562e-06
2.3513416e-12
-0.00014035078
-2.101695e-06
2.1274989e-12
-0.00013751439
-6.9098919e-06
1.7469565e-12
-0.00013276703
-1.1689079e-05
1.2682713e-12
-0.00012618932
-1.6275589e-05
8.118397e-13
-0.0001179279
-2.0494801e-05
4.6552021e-13
-0.00010819592
-2.4169847e-05
1.9019118e-13
-9.7269866e-05
-2.7131857e-05
-1.4841383e-13
-8.5482402e-05
-2.9231205e-05
-5.9956096e-13
-7.3210954e-05
-3.0349034e-05
-9.7657924e-13
-6.086229e-05
-3.0408188e-05
-9.6551847e-13
-4.8853474e-05
-2.938269e-05
-4.700275e-13
-3.7589896e-05
-2.7305052e-05
1.9096218e-13
-2.744128e-05
-2.4271128e-05
5.8583155e-13
-1.8716669e-05
-2.0442788e-05
7.2727765e-13
-1.1639481e-05
-1.6049489e-05
1.1490099e-12
-6.3236192e-06
-1.1390737e-05
2.2608073e-12
-2.7515474e-06
-6.8418688e-06
3.709201e-12
-7.5711616e-07
-2.8628793e-06
4.5382857e-12
-9.5135742e-09
-1.7870637e-08
4.5531584e-12
9.6425957e-07
3.6834735e-12
-1.2279622e-06
1.8323417e-06
-1.4098916e-11
-4.7881005e-06
7.6543003e-06
4.88988e-12
-1.052153e-05
1.4146381e-05
-5.6653246e-12
-1.8214319e-05
2.0449255e-05
-6.7748258e-12
-2.7603923e-05
2.6091791e-05
-4.4151989e-12
-3.8396285e-05
3.0824238e-05
-3.711721e-12
-5.0283046e-05
3.4545317e-05
-3.3874587e-12
-6.2954775e-05
3.7244891e-05
-2.9266821e-12
-7.6109031e-05
3.8958982e-05
-2.4752546e-12
-8.9453768e-05
3.9739658e-05
-2.0720895e-12
-0.00010270747
3.9637079e-05
-1.6899346e-12
-0.00011559753
3.8690786e-05
-1.3085515e-12
-0.00012785834
3.6927897e-05
-9.125222e-13
-0.0001392302
3.4366186e-05
-4.8973479e-13
-0.00014945975
3.1020296e-05
-4.5615388e-14
-0.00015830247
2.6909577e-05
3.9220296e-13
-0.00016552724
2.2066365e-05
7.9474116e-13
-0.00017092274
1.6543725e-05
1.1597343e-12
-0.00017430559
1.0421916e-05
1.5144613e-12
-0.00017552936
3.813015e-06
1.8836738e-12
-0.00017449413
-3.1369186e-06
2.2470751e-12
-0.00017115588
-1.0248129e-05
2.5205819e-12
-0.0001655348
-1.7310161e-05
2.6379396e-12
-0.0001577219
-2.4088499e-05
2.6245744e-12
-0.00014788321
-3.0333524e-05
2.6089451e-12
-0.00013626061
-3.5792452e-05
2.7082575e-12
-0.00012316897
-4.022348e-05
2.8793787e-12
-0.00010898871
-4.3411428e-05
2.9210426e-12
-9.4153784e-05
-4.5183951e-05
2.6985597e-12
-7.9134854e-05
-4.5427166e-05
2.3807178e-12
-6.4418089e-05
-4.4099514e-05
2.3502646e-12
-5.0480395e-05
-4.1242747e-05
2.7714753e-12
-3.7762135e-05
-3.6989313e-05
3.298754e-12
-2.6638785e-05
-3.1566066e-05
3.392028e-12
-1.7393147e-05
-2.5295151e-05
2.9991724e-12
-1.0189939e-05
-1.8594043e-05
2.8886222e-12
-5.0547736e-06
-1.1977082e-05
3.8617034e-12
-1.859829e-06
-6.0577745e-06
4.0064556e-12
-3.2221788e-07
-1.5554551e-06
8.0944406e-13
6.4202068e-07
6.0069953e-12
-1.6931661e-06
3.5255256e-06
-1.6632217e-11
-6.3714056e-06
1.2332528e-05
1.0252124e-11
-1.3671446e-05
2.1446425e-05
-4.7590308e-12
-2.323405e-05
3.0011867e-05
-6.9222179e-12
-3.4695232e-05
3.7552979e-05
-4.203778e-12
-4.768981e-05
4.3818821e-05
-3.656729e-12
-6.1857512e-05
4.8713022e-05
-3.5596319e-12
-7.6848057e-05
5.2235438e-05
-3.2176957e-12
-9.2323861e-05
5.443479e-05
-2.8276776e-12
-0.00010796026
5.5376065e-05
-2.4526184e-12
-0.00012344396
5.512078e-05
-2.0770989e-12
-0.00013847069
5.3717517e-05
-1.6973788e-12
-0.00015274322
5.120043e-05
-1.3102464e-12
-0.00016597054
4.7593499e-05
-9.0083946e-13
-0.00017786874
4.2918497e-05
-4.5086786e-13
-0.00018816405
3.7204892e-05
3.5502362e-14
-0.00019659789
3.0500209e-05
5.2281337e-13
-0.00020293383
2.2879673e-05
9.6656377e-13
-0.00020696614
1.4454215e-05
1.3529696e-12
-0.0002085293
5.3761605e-06
1.7150457e-12
-0.00020750813
-4.1581014e-06
2.0974428e-12
-0.00020384768
-1.3908567e-05
2.496958e-12
-0.00019756247
-2.3595364e-05
2.8223445e-12
-0.00018874396
-3.2906996e-05
2.9682551e-12
-0.00017756589
-4.1511612e-05
2.9362e-12
-0.00016428627
-4.9072105e-05
2.8807373e-12
-0.00014924553
-5.526424e-05
2.9799242e-12
-0.00013285991
-5.9797026e-05
3.2209709e-12
-0.00011560966
-6.2434153e-05
3.3549706e-12
-9.8021736e-05
-6.3015072e-05
3.1629984e-12
-8.0647218e-05
-6.1474078e-05
2.7913454e-12
-6.4034202e-05
-5.7855841e-05
2.6954382e-12
-4.8697479e-05
-5.2326058e-05
3.1137273e-12
-3.50869e-05
-4.5176579e-05
3.6464978e-12
-2.355664e-05
-3.6825342e-05
3.6269829e-12
-1.4337849e-05
-2.7812853e-05
3.352035e-12
-7.5175071e-06
-1.8797499e-05
4.1833209e-12
-3.0267398e-06
-1.0548554e-05
3.7072605e-12
-6.4248937e-07
-3.9396751e-06
-1.6965457e-12
-4.7531611e-10
8.5746827e-12
-2.1329366e-06
5.6584826e-06
-1.9419432e-11
-7.8910743e-06
1.8090651e-05
1.5030278e-11
-1.6717402e-05
3.0272755e-05
-4.0420268e-12
-2.8105737e-05
4.1400208e-05
-7.01411e-12
-4.1585084e-05
5.1032331e-05
-3.7900483e-12
-5.6714129e-05
5.8947873e-05
-3.2600607e-12
-7.3078272e-05
6.5077171e-05
-3.2853719e-12
-9.0287083e-05
6.9444252e-05
-3.0030594e-12
-0.00010797132
7.2119028e-05
-2.6572344e-12
-0.00012577926
7.3184014e-05
-2.3163372e-12
-0.00014337274
7.2714257e-05
-1.9563722e-12
-0.00016042341
7.0768197e-05
-1.5780604e-12
-0.00017661018
6.7387204e-05
-1.1950708e-12
-0.00019161813
6.260145e-05
-8.1277989e-13
-0.00020513951
5.643987e-05
-4.1547176e-13
-0.00021687684
4.8942216e-05
2.0386761e-14
-0.00022654815
4.0171516e-05
4.9643868e-13
-0.00023389407
3.0225597e-05
9.7261045e-13
-0.0002386865
1.9246653e-05
1.387682e-12
-0.00024073842
7.4280758e-06
1.7110611e-12
-0.00023991437
-4.9821661e-06
1.9782402e-12
-0.00023614103
-1.7681921e-05
2.2718771e-12
-0.00022941748
-3.0318914e-05
2.6082671e-12
-0.00021982416
-4.2500298e-05
2.8956632e-12
-0.00020752991
-5.3805841e-05
2.9903123e-12
-0.00019279609
-6.3805936e-05
2.8609509e-12
-0.0001759767
-7.2083663e-05
2.6849547e-12
-0.00015751366
-7.8260109e-05
2.7113586e-12
-0.00013792614
-8.2021656e-05
2.9741694e-12
-0.00011779372
-8.314744e-05
3.1876726e-12
-9.7732925e-05
-8.153483e-05
3.0514304e-12
-7.8368113e-05
-7.7220691e-05
2.6910809e-12
-6.0297887e-05
-7.0396365e-05
2.6185905e-12
-4.4059552e-05
-6.1414942e-05
3.0457584e-12
-3.0094424e-05
-5.0790416e-05
3.4312571e-12
-1.8717234e-05
-3.9189993e-05
3.6272794e-12
-1.0093045e-05
-2.7421718e-05
4.8339799e-12
-4.2253228e-06
-1.6416316e-05
3.6487581e-12
-9.5849191e-07
-7.2065002e-06
-4.5686506e-12
-9.5896505e-07
1.0588981e-11
-2.5450553e-06
8.2035595e-06
-2.2221317e-11
-9.328846e-06
2.4874423e-05
1.9299935e-11
-1.9615361e-05
4.0559275e-05
-3.5654468e-12
-3.2756847e-05
5.4541699e-05
-7.2922023e-12
-4.8175884e-05
6.6451371e-05
-3.6156893e-12
-6.5354087e-05
7.6126082e-05
-3.1283439e-12
-8.3822134e-05
8.3545226e-05
-3.2784639e-12
-0.00010315062
8.8772741e-05
-3.0538713e-12
-0.00012294161
9.191003e-05
-2.7572181e-12
-0.00014282095
9.3063351e-05
-2.4682604e-12
-0.00016243134
9.2324648e-05
-2.1485099e-12
-0.00018142687
8.9763734e-05
-1.7858888e-12
-0.00019946924
8.5429578e-05
-1.3909586e-12
-0.00021622604
7.9358249e-05
-9.8621374e-13
-0.0002313713
7.158513e-05
-5.8666968e-13
-0.00024458832
6.2159232e-05
-1.8070801e-13
-0.0002555746
5.1157786e-05
2.6260154e-13
-0.00026404868
3.8699678e-05
7.5594969e-13
-0.00026975868
2.4956658e-05
1.2595891e-12
-0.00027249209
1.0161501e-05
1.6926041e-12
-0.00027208668
-5.3875827e-06
1.9982235e-12
-0.00026844172
-2.132689e-05
2.2259868e-12
-0.00026152976
-3.7230903e-05
2.4697844e-12
-0.0002514074
-5.2622659e-05
2.7903139e-12
-0.00023822498
-6.698824e-05
3.0996271e-12
-0.00022223362
-7.9797263e-05
3.2103308e-12
-0.00020378862
-9.0528668e-05
3.0451718e-12
-0.00018334762
-9.8701148e-05
2.791031e-12
-0.00016146243
-0.0001039069
2.762196e-12
-0.00013876329
-0.00010584658
3.0407554e-12
-0.00011593534
-0.00010436272
3.314575e-12
-9.3687519e-05
-9.9468465e-05
3.2334228e-12
-7.2715422e-05
-9.1368491e-05
2.9289933e-12
-5.3660766e-05
-8.0469668e-05
2.8611224e-12
-3.7071106e-05
-6.7380095e-05
3.0552488e-12
-2.3363939e-05
-5.2897116e-05
3.604258e-12
-1.2799301e-05
-3.7986336e-05
5.513855e-12
-5.464877e-06
-2.375076e-05
3.7332504e-12
-1.2772612e-06
-1.1394126e-05
-7.5389703e-12
-2.2362359e-06
1.2983191e-11
-2.9284833e-06
1.1132066e-05
-2.4950356e-11
-1.0673673e-05
3.261959e-05
2.3117557e-11
-2.2336174e-05
5.222178e-05
-3.2531912e-12
-3.7135973e-05
6.9341507e-05
-7.648468e-12
-5.4394107e-05
8.3709508e-05
-3.5352638e-12
-7.3517623e-05
9.5249602e-05
-3.0942877e-12
-9.3984293e-05
0.0001040119
-3.3667804e-12
-0.00011532795
0.00011011641
-3.1887748e-12
-0.00013712517
0.00011370725
-2.9213214e-12
-0.00015898352
0.00011492171
-2.6683642e-12
-0.00018053177
0.0001138729
-2.3909225e-12
-0.00020141214
0.0001106441
-2.0675223e-12
-0.00022127503
0.00010529246
-1.6889831e-12
-0.00023977618
9.7859404e-05
-1.2638702e-12
-0.00025657638
8.838533e-05
-8.232514e-13
-0.00027134346
7.692632e-05
-3.9528518e-13
-0.00028375659
6.3570909e-05
2.5002744e-14
-0.00029351244
4.8455518e-05
4.7724538e-13
-0.00030033323
3.1777444e-05
9.9116199e-13
-0.00030397636
1.3804644e-05
1.5287586e-12
-0.00030424557
-5.1183605e-06
1.9856737e-12
-0.00030100297
-2.4569487e-05
2.308146e-12
-0.00029418252
-4.4051369e-05
2.4998757e-12
-0.00028380326
-6.3001942e-05
2.6956795e-12
-0.00026998223
-8.080929e-05
2.9998184e-12
-0.0002529455
-9.683397e-05
3.3352023e-12
-0.00023303599
-0.00011043814
3.4771244e-12
-0.00021071599
-0.00012102114
3.2995821e-12
-0.00018656267
-0.00012806025
2.9886871e-12
-0.00016125485
-0.00013115445
2.9069888e-12
-0.00013555
-0.00013006759
3.1684494e-12
-0.00011025147
-0.00012476694
3.4534331e-12
-8.6167361e-05
-0.00011545256
3.4194077e-12
-6.4063727e-05
-0.00010257333
3.1400231e-12
-4.4616688e-05
-8.6827189e-05
2.8711075e-12
-2.8368544e-05
-6.9145268e-05
3.3725155e-12
-1.5693148e-05
-5.0661706e-05
5.9969533e-12
-6.7752133e-06
-3.2668685e-05
3.8557776e-12
-1.6070327e-06
-1.6562304e-05
-1.0478877e-11
-3.8432892e-06
1.5523838e-11
-3.2817006e-06
1.4413792e-05
-2.7541088e-11
-1.1915873e-05
4.1253733e-05
2.6519482e-11
-2.4855513e-05
6.5161425e-05
-3.0765387e-12
-4.1199918e-05
8.5685922e-05
-8.0576168e-12
-6.0176307e-05
0.0001026859
-3.5118618e-12
-8.1122245e-05
0.00011619554
-3.0946624e-12
-0.0001034663
0.00012635596
-3.480511e-12
-0.00012670887
0.00013335899
-3.3506476e-12
-0.00015040464
0.00013740302
-3.1050533e-12
-0.00017414713
0.00013866421
-2.8675258e-12
-0.00019755593
0.00013728171
-2.6093153e-12
-0.00022026668
0.00013335485
-2.3198874e-12
-0.00024192388
0.00012694967
-1.9847966e-12
-0.00026217668
0.0001181122
-1.5848954e-12
-0.00028067717
0.00010688583
-1.1252329e-12
-0.0002970813
9.3330458e-05
-6.442402e-13
-0.00031105196
7.7541566e-05
-1.8555283e-13
-0.00032226414
5.9667703e-05
2.4706739e-13
-0.00033041221
3.9925497e-05
7.0134662e-13
-0.00033521898
1.8611409e-05
1.2162973e-12
-0.00033644714
-3.8902e-06
1.7540879e-12
-0.00033391173
-2.7104874e-05
2.2850976e-12
-0.00032749596
-5.046713e-05
2.6239188e-12
-0.00031716688
-7.3331038e-05
2.7863545e-12
-0.00030299231
-9.498389e-05
2.9303368e-12
-0.00028515684
-0.00011466946
3.1996477e-12
-0.00026397519
-0.00013161978
3.5387479e-12
-0.00023990061
-0.00014509567
3.6988762e-12
-0.00021352581
-0.00015443503
3.5155581e-12
-0.00018557378
-0.00015910652
3.170894e-12
-0.0001568766
-0.00015876482
3.0498922e-12
-0.00012834165
-0.0001533019
3.2794652e-12
-0.00010090606
-0.00014288811
3.555766e-12
-7.5482456e-05
-0.0001279969
3.4823348e-12
-5.2901145e-05
-0.00010940852
2.9739263e-12
-3.3855127e-05
-8.8191321e-05
3.2341838e-12
-1.8854792e-05
-6.5662047e-05
6.3698524e-12
-8.1982606e-06
-4.3325203e-05
3.8653242e-12
-1.961159e-06
-2.2799386e-05
-1.3621082e-11
-5.8044708e-06
1.8250705e-11
-3.6023029e-06
1.8016125e-05
-2.9949626e-11
-1.3044874e-05
5.0696271e-05
2.9529609e-11
-2.7149292e-05
7.9265843e-05
-3.0093498e-12
-4.490717e-05
0.00010344381
-8.5202893e-12
-6.5461502e-05
0.00012324024
-3.5593983e-12
-8.8087227e-05
0.00013882127
-3.1420098e-12
-0.0001121688
0.00015043754
-3.6218584e-12
-0.00013717741
0.00015836761
-3.5443776e-12
-0.00016264987
0.00016287549
-3.3334978e-12
-0.00018816992
0.00016418426
-3.1158349e-12
-0.00021335263
0.00016246442
-2.8622188e-12
-0.00023783202
0.00015783424
-2.5785254e-12
-0.0002612519
0.00015036955
-2.2717113e-12
-0.00028325983
0.00014012012
-1.9223365e-12
-0.00030350383
0.00012712982
-1.5014774e-12
-0.00032163166
0.0001114583
-1.0074801e-12
-0.00033729244
9.3202355e-05
-4.8304954e-13
-0.00035014038
7.2515645e-05
1.2346821e-14
-0.00035984079
4.9625904e-05
4.6058471e-13
-0.00036607843
2.4849037e-05
8.9633997e-13
-0.00036856897
-1.3996692e-06
1.3540063e-12
-0.00036707135
-2.8602495e-05
2.0145521e-12
-0.00036140636
-5.6132093e-05
2.5849856e-12
-0.00035147457
-8.3262816e-05
2.9487636e-12
-0.00033727782
-0.00010918065
3.0996317e-12
-0.00031894091
-0.0001330064
3.1956102e-12
-0.00029673176
-0.00015382896
3.4157934e-12
-0.00027107728
-0.00017075015
3.7292232e-12
-0.00024257162
-0.00018294064
3.8781555e-12
-0.00021197325
-0.00018970486
3.6810539e-12
-0.00018018759
-0.00019055051
3.320693e-12
-0.00014823334
-0.0001852562
3.1886831e-12
-0.00011719278
-0.00017392868
3.4056105e-12
-8.8148946e-05
-0.0001570407
3.5602612e-12
-6.2115372e-05
-0.00013544208
3.1197749e-12
-3.9966489e-05
-0.00011034022
3.2916611e-12
-2.2377617e-05
-8.3250944e-05
6.8644089e-12
-9.7826936e-06
-5.5920129e-05
3.8128579e-12
-2.3546946e-06
-3.0227359e-05
-1.7154209e-11
-8.1591852e-06
2.1280807e-11
-3.8870505e-06
2.1903208e-05
-3.214917e-11
-1.4048661e-05
6.0857848e-05
3.2145434e-11
-2.9192055e-05
9.4409238e-05
-3.0166245e-12
-4.8215265e-05
0.00012246703
-9.0153185e-12
-7.0187841e-05
0.00014521282
-3.6925072e-12
-9.4330056e-05
0.0001629635
-3.2579906e-12
-0.00011998821
0.00017609569
-3.8003065e-12
-0.00014660907
0.00018498848
-3.760547e-12
-0.00017371587
0.00018998229
-3.5898821e-12
-0.00020088684
0.00019135524
-3.4113668e-12
-0.00022773707
0.00018931465
-3.1784565e-12
-0.0002539038
0.00018400097
-2.8925467e-12
-0.00027903519
0.00017550094
-2.5800722e-12
-0.00030278231
0.00016386724
-2.2529496e-12
-0.00032479396
0.00014914147
-1.8900811e-12
-0.00034471404
0.00013137837
-1.4520549e-12
-0.00036218126
0.00011066958
-9.2525145e-13
-0.00037683113
8.7165531e-05
-3.5417042e-13
-0.00038830041
6.1095194e-05
1.8477716e-13
-0.00039623426
3.2782894e-05
6.6793103e-13
-0.00040029638
2.6624315e-06
1.166974e-12
-0.00040018388
-2.8715011e-05
1.6571553e-12
-0.00039564406
-6.067192e-05
2.2749079e-12
-0.00038649735
-9.2409501e-05
2.8790868e-12
-0.00037266261
-0.00012301537
3.2830263e-12
-0.00035418496
-0.00015148405
3.4344297e-12
-0.0003312638
-0.00017675015
3.4889026e-12
-0.00030427785
-0.00019773614
3.649172e-12
-0.000273803
-0.00021341549
3.9034412e-12
-0.00024061829
-0.00022288953
3.9998423e-12
-0.00020569517
-0.00022547361
3.7693159e-12
-0.00017016638
-0.00022078502
3.419963e-12
-0.00013527319
-0.0002088219
3.3325047e-12
-0.00010229333
-0.00019002056
3.4238022e-12
-7.2455929e-05
-0.00016527946
3.0634017e-12
-4.6853286e-05
-0.00013594285
3.3730138e-12
-2.6361362e-05
-0.00010374288
7.5636639e-12
-1.1580445e-05
-7.0701059e-05
3.8240805e-12
-2.803316e-06
-3.9004466e-05
-2.1174407e-11
-1.0962522e-05
2.4713138e-11
-4.132118e-06
2.6035359e-05
-3.4109192e-11
-1.4914098e-05
7.1639794e-05
3.4335955e-11
-3.0957132e-05
0.00011045227
-3.0765388e-12
-5.1080655e-05
0.00014259056
-9.5013257e-12
-7.4292273e-05
0.00016842445
-3.8849174e-12
-9.9766122e-05
0.00018843735
-3.443677e-12
-0.00012681668
0.00020314626
-4.0303244e-12
-0.0001548713
0.0002130431
-4.0056195e-12
-0.00018344393
0.00021855493
-3.8584927e-12
-0.00021211149
0.0002200228
-3.7211291e-12
-0.00024049344
0.0002176966
-3.5332042e-12
-0.00026823493
0.00021174246
-3.2735139e-12
-0.00029499352
0.00020225954
-2.9561515e-12
-0.00032042905
0.00018930278
-2.6125161e-12
-0.0003441964
0.00017290882
-2.2632416e-12
-0.00036594074
0.00015312271
-1.8882781e-12
-0.00038529505
0.00013002388
-1.4363615e-12
-0.00040188001
0.0001037505
-8.7948108e-13
-0.00041530644
7.4521629e-05
-2.5932229e-13
-0.00042518076
4.2657235e-05
3.5131076e-13
-0.00043111395
8.5956295e-06
9.2234889e-13
-0.00043273621
-2.7092766e-05
1.3493313e-12
-0.00042971416
-6.3693993e-05
1.8816123e-12
-0.00042177619
-0.00010034749
2.5362517e-12
-0.00040874172
-0.00013604982
3.1820314e-12
-0.00039055537
-0.00016967038
3.6191405e-12
-0.00036732349
-0.00019998203
3.7702775e-12
-0.0003393498
-0.00022570985
3.7840676e-12
-0.00030716538
-0.00024559994
3.8710421e-12
-0.00027154684
-0.00025850807
4.0281523e-12
-0.000233516
-0.00026350442
4.0275845e-12
-0.00019431496
-0.00025998604
3.7665366e-12
-0.00015535291
-0.00024778398
3.4950437e-12
-0.00011812528
-0.00022724822
3.3350236e-12
-8.4111836e-05
-0.0001992929
2.8367273e-12
-5.4665478e-05
-0.0001653892
3.3148068e-12
-3.0907336e-05
-0.00012750102
8.3791096e-12
-1.3644696e-05
-8.7963706e-05
3.9286131e-12
-3.3229931e-06
-4.9326147e-05
-2.575579e-11
-1.4285543e-05
2.8682132e-11
-4.3334561e-06
3.0368848e-05
-3.5781627e-11
-1.5627796e-05
8.2934098e-05
3.6065996e-11
-3.2417912e-05
0.00012724239
-3.1910003e-12
-5.3460308e-05
0.00016363297
-9.9560207e-12
-7.7712459e-05
0.0001926766
-4.1064495e-12
-0.000104311
0.0002150359
-3.6778014e-12
-0.00013254491
0.00023138018
-4.312002e-12
-0.00016182693
0.00024232512
-4.296322e-12
-0.00019166587
0.00024839387
-4.1528471e-12
-0.00022164124
0.00024999817
-4.0337887e-12
-0.00025138096
0.00024743633
-3.8865314e-12
-0.00028054264
0.00024090414
-3.6800937e-12
-0.00030879822
0.00023051511
-3.3987309e-12
-0.00033582178
0.00021632635
-3.0506492e-12
-0.00036128018
0.00019836723
-2.6733777e-12
-0.00038482595
0.00017666849
-2.2987093e-12
-0.00040609255
0.00015129048
-1.9092742e-12
-0.00042469179
0.00012234972
-1.4431331e-12
-0.00044021385
9.0043693e-05
-8.5459268e-13
-0.00045223065
5.4674042e-05
-1.7017563e-13
-0.00046030303
1.6668024e-05
5.1693891e-13
-0.00046399356
-2.3402221e-05
1.0774685e-12
-0.00046288448
-6.4803089e-05
1.589912e-12
-0.00045660341
-0.00010662858
2.1600329e-12
-0.0004448561
-0.00014779715
2.8361856e-12
-0.00042746613
-0.00018706033
3.5030333e-12
-0.00040442021
-0.00022302793
3.9489055e-12
-0.0003759156
-0.00025421446
4.0824207e-12
-0.00034240458
-0.00027911099
4.0440945e-12
-0.00030462863
-0.00029628405
4.0338842e-12
-0.00026363338
-0.00030449967
4.0512139e-12
-0.00022075512
-0.00030286428
3.9444322e-12
-0.00017757162
-0.00029096747
3.7217865e-12
-0.00013581501
-0.00026900484
3.3949326e-12
-9.7251938e-05
-0.00023785599
2.613179e-12
-6.3544843e-05
-0.0001990963
3.1421311e-12
-3.611469e-05
-0.00015493118
9.2388714e-12
-1.6028556e-05
-0.00010804984
4.064521e-12
-3.9298352e-06
-6.1424838e-05
-3.102542e-11
-1.8215412e-05
3.3335487e-11
-4.487225e-06
3.4856108e-05
-3.711312e-11
-1.6177327e-05
9.4624161e-05
3.7320416e-11
-3.3549903e-05
0.00014461497
-3.3635726e-12
-5.5314557e-05
0.00018539763
-1.0378164e-11
-8.0390368e-05
0.00021775242
-4.3389119e-12
-0.0001078848
0.00024253034
-3.9296984e-12
-0.00013706725
0.00026056263
-4.6194053e-12
-0.00016734027
0.00027259815
-4.6275726e-12
-0.00019821119
0.0002792648
-4.4908236e-12
-0.00022926561
0.00028105259
-4.3714047e-12
-0.00026014367
0.00027831439
-4.2339655e-12
-0.00029051966
0.00027128013
-4.0658649e-12
-0.00032008483
0.00026008027
-3.8458672e-12
-0.00034853318
0.00024477471
-3.5450363e-12
-0.00037554994
0.00022538399
-3.1653146e-12
-0.00040080218
0.00020192075
-2.7501447e-12
-0.0004239316
0.00017441991
-2.3424907e-12
-0.0004445493
0.00014296742
-1.929569e-12
-0.00046223322
0.0001077276
-1.4394244e-12
-0.00047652863
6.8969447e-05
-8.0793502e-13
-0.00048695288
2.7092282e-05
-5.9145759e-14
-0.00049300564
-1.7349449e-05
6.8275107e-13
-0.00049418563
-6.3623087e-05
1.3313276e-12
-0.00049001582
-0.0001107984
1.9025813e-12
-0.00048007775
-0.00015773525
2.5029579e-12
-0.00046405568
-0.00020308243
3.1878643e-12
-0.00044178976
-0.00024529384
3.842794e-12
-0.00041333574
-0.00028266846
4.2566009e-12
-0.00037902595
-0.00031342078
4.3395255e-12
-0.00033952334
-0.00033578668
4.2199243e-12
-0.00029585753
-0.0003481655
4.0737742e-12
-0.0002494298
-0.000349292
3.9438901e-12
-0.00020197496
-0.00033842229
3.8081989e-12
-0.00015547283
-0.00031550697
3.469511e-12
-0.00011201159
-0.00028131724
2.4419066e-12
-7.36175e-05
-0.0002374904
2.9604538e-12
-4.2077006e-05
-0.00018647168
1.0189497e-11
-1.8784003e-05
-0.00013134284
4.1915417e-12
-4.6400097e-06
-7.5568791e-05
-3.7149399e-11
-2.2855461e-05
3.8796193e-11
-4.5902835e-06
3.944643e-05
-3.8068991e-11
-1.6552692e-05
0.00010658653
3.8102206e-11
-3.4333353e-05
0.00016239564
-3.5794601e-12
-5.661089e-05
0.00020767518
-1.0771458e-11
-8.2277187e-05
0.00024341872
-4.5983157e-12
-0.00011041819
0.00027067134
-4.1957327e-12
-0.00014028892
0.00029043336
-4.9322637e-12
-0.00017128551
0.00030359475
-4.9742332e-12
-0.00020291689
0.00031089618
-4.8623638e-12
-0.00023477769
0.0003129134
-4.7505964e-12
-0.00026652358
0.00031006029
-4.6047442e-12
-0.00029784946
0.00030260601
-4.4336958e-12
-0.00032847061
0.00029070143
-4.2449787e-12
-0.00035810672
0.00027441082
-4.0096767e-12
-0.00038646826
0.00025374552
-3.6867634e-12
-0.00041324486
0.00022869736
-3.2713458e-12
-0.00043809568
0.00019927074
-2.8105215e-12
-0.00046064152
0.00016551328
-2.3571318e-12
-0.00048045931
0.0001275454
-1.9038235e-12
-0.00049707946
8.5589582e-05
-1.3729458e-12
-0.0005099872
4.0000011e-05
-6.918175e-13
-0.00051862939
-8.7072581e-06
1.1843303e-13
-0.00052242834
-5.9824122e-05
9.3841696e-13
-0.00052080462
-0.00011242211
1.6648847e-12
-0.0005132109
-0.00016532898
2.2954722e-12
-0.00049917823
-0.00021711512
2.9224453e-12
-0.00047837551
-0.00026609658
3.591166e-12
-0.0004506806
-0.00031036336
4.1873935e-12
-0.0004162589
-0.00034784245
4.5148856e-12
-0.00037564085
-0.00037640473
4.4956919e-12
-0.00032978532
-0.00039402105
4.2437302e-12
-0.00028011191
-0.00039896544
3.9532359e-12
-0.00022848373
-0.00039005048
3.764734e-12
-0.00017712616
-0.00036686453
3.4186261e-12
-0.00012847765
-0.00032996575
2.2140322e-12
-8.4985584e-05
-0.00028098247
2.7804443e-12
-4.8878643e-05
-0.00022257864
1.1312239e-11
-2.1960826e-05
-0.00015826066
4.3355512e-12
-5.4696782e-06
-9.2059892e-05
-4.4272081e-11
-2.8325183e-05
4.5172852e-11
-4.6407195e-06
4.4087189e-05
-3.8643667e-11
-1.6747989e-05
0.00011869376
3.8412241e-11
-3.4756316e-05
0.00018040397
-3.8102634e-12
-5.7328468e-05
0.00023024735
-1.1117351e-11
-8.3339269e-05
0.00026942953
-4.8877315e-12
-0.00011185972
0.0002991918
-4.4874706e-12
-0.00014213475
0.0003207084
-5.2419379e-12
-0.00017355703
0.00033501703
-5.3090259e-12
-0.00020563944
0.0003429786
-5.231112e-12
-0.00023798811
0.00034526207
-5.1485069e-12
-0.00027027702
0.00034234921
-5.0099596e-12
-0.0003022252
0.00033455421
-4.8193209e-12
-0.00033357653
0.00032205277
-4.6093831e-12
-0.00036408207
0.00030491636
-4.3907978e-12
-0.0003934846
0.00028314805
-4.1301491e-12
-0.00042150501
0.00025671778
-3.7760424e-12
-0.00044783033
0.00022559605
-3.3159631e-12
-0.00047210323
0.00018978619
-2.7981421e-12
-0.00049391353
0.00014935571
-2.2829718e-12
-0.00051279207
0.00010446813
-1.769146e-12
-0.00052820808
5.5416004e-05
-1.1802229e-12
-0.0005395714
2.6560523e-06
-4.3729328e-13
-0.00054624184
-5.3153686e-05
4.2584407e-13
-0.00054754741
-0.00011111652
1.3149507e-12
-0.000542815
-0.00017006138
2.1102331e-12
-0.0005314158
-0.00022851432
2.7903256e-12
-0.00051282805
-0.00028468435
3.4229924e-12
-0.00048671738
-0.00033647404
4.0333784e-12
-0.00045303246
-0.00038152737
4.5085099e-12
-0.00041210823
-0.00041732895
4.6761256e-12
-0.00036476274
-0.00044136654
4.4792564e-12
-0.00031236681
-0.00045136138
4.0741545e-12
-0.00025686081
-0.00044555649
3.7322075e-12
-0.00020069381
-0.00042303154
3.2596222e-12
-0.00014667113
-0.00038398842
1.8305331e-12
-9.7717406e-05
-0.0003299362
2.5143468e-12
-5.6590333e-05
-0.00026370573
1.2619045e-11
-2.5605329e-05
-0.00018924567
4.5301471e-12
-6.4348955e-06