/*--------------------------------*- C++ -*----------------------------------*\
  =========                 |
  \\      /  F ield         | OpenFOAM: The Open Source CFD Toolbox
   \\    /   O peration     | Website:  https://openfoam.org
    \\  /    A nd           | Version:  7
     \\/     M anipulation  |
\*---------------------------------------------------------------------------*/
FoamFile
{
    version     2.0;
    format      ascii;
    class       surfaceScalarField;
    location    "49";
    object      phi_0;
}
// * * * * * * * * * * * * * * * * * * * * * * * * * * * * * * * * * * * * * //

dimensions      [0 3 -1 0 0 0 0];

internalField   nonuniform List<scalar> 
45600
(
2.7526519e-07
-2.82144e-07
-7.7192223e-11
4.0338282e-07
-1.2809286e-07
-2.4272315e-11
1.3258974e-07
2.7080014e-07
-6.4411968e-12
-5.6229012e-07
6.9488199e-07
-1.2671034e-12
-1.6392981e-06
1.077005e-06
3.7895045e-12
-3.0276128e-06
1.3883074e-06
7.2375965e-12
-4.6524587e-06
1.6248357e-06
9.506911e-12
-6.4450937e-06
1.7926235e-06
1.1114158e-11
-8.3454221e-06
1.9003164e-06
1.2258952e-11
-1.0301442e-05
1.9560079e-06
1.3017429e-11
-1.2267402e-05
1.9659466e-06
1.3436264e-11
-1.4201582e-05
1.9341658e-06
1.3551449e-11
-1.606424e-05
1.8626438e-06
1.3386526e-11
-1.7816029e-05
1.7517757e-06
1.2948264e-11
-1.9417056e-05
1.6010158e-06
1.2227361e-11
-2.082666e-05
1.4095943e-06
1.1203034e-11
-2.2003909e-05
1.1772396e-06
9.8520095e-12
-2.2908771e-05
9.0485252e-07
8.1664069e-12
-2.350387e-05
5.9509098e-07
6.1638994e-12
-2.3756703e-05
2.5282879e-07
3.8956055e-12
-2.3642143e-05
-1.1456003e-07
1.4246391e-12
-2.3145011e-05
-4.9712626e-07
-1.2032424e-12
-2.2262577e-05
-8.8242824e-07
-3.9467109e-12
-2.1006621e-05
-1.2559529e-06
-6.7188742e-12
-1.9404868e-05
-1.6017497e-06
-9.3506777e-12
-1.7501561e-05
-1.9032973e-06
-1.1635477e-11
-1.5356974e-05
-2.1445673e-06
-1.3404926e-11
-1.3045755e-05
-2.3111931e-06
-1.4606582e-11
-1.0654094e-05
-2.3916414e-06
-1.5270207e-11
-8.275809e-06
-2.3782804e-06
-1.5368202e-11
-6.0075669e-06
-2.2682449e-06
-1.4725407e-11
-3.9435389e-06
-2.0640189e-06
-1.3135681e-11
-2.1697902e-06
-1.7737186e-06
-1.0618306e-11
-7.5853281e-07
-1.4112252e-06
-7.5142917e-12
2.3822559e-07
-9.9675648e-07
-4.3695156e-12
7.965518e-07
-5.5835889e-07
-1.7777526e-12
9.2925867e-07
-1.3273666e-07
1.2944092e-12
7.0555034e-07
2.2372826e-07
5.5318624e-12
2.9044346e-07
4.1516514e-07
1.0222975e-11
2.9048018e-07
3.9373683e-12
1.3293756e-07
-4.1505932e-07
-2.1667072e-11
-3.0163241e-07
3.0649221e-07
-1.370294e-11
-1.6153604e-06
1.5845408e-06
-1.2028403e-11
-3.8746769e-06
2.9542116e-06
-1.2853616e-11
-7.0073192e-06
4.209662e-06
-1.4061632e-11
-1.0879734e-05
5.2607391e-06
-1.5620488e-11
-1.5335152e-05
6.0802707e-06
-1.7068613e-11
-2.0215994e-05
6.6734821e-06
-1.8116975e-11
-2.5374055e-05
7.0583953e-06
-1.8704428e-11
-3.067327e-05
7.2552414e-06
-1.8838179e-11
-3.5988538e-05
7.2812346e-06
-1.8550696e-11
-4.1202827e-05
7.1484735e-06
-1.787641e-11
-4.6203971e-05
6.8638052e-06
-1.6834592e-11
-5.08821e-05
6.4299194e-06
-1.5427663e-11
-5.5128233e-05
5.8471613e-06
-1.3648214e-11
-5.8834321e-05
5.1156933e-06
-1.1490981e-11
-6.1894805e-05
4.2377345e-06
-8.9709623e-12
-6.420961e-05
3.219667e-06
-6.1260773e-12
-6.5688359e-05
2.0738444e-06
-3.0245701e-12
-6.625547e-05
8.1993645e-07
2.7204973e-13
-6.5855986e-05
-5.1405206e-07
3.7231644e-12
-6.4460813e-05
-1.8923092e-06
7.3222476e-12
-6.207248e-05
-3.2707667e-06
1.0909548e-11
-5.8729088e-05
-4.5993498e-06
1.4292057e-11
-5.4507072e-05
-5.8237777e-06
1.727042e-11
-4.9521903e-05
-6.8884936e-06
1.9724802e-11
-4.39264e-05
-7.7401066e-06
2.1653064e-11
-3.7906457e-05
-8.3311654e-06
2.30712e-11
-3.1674144e-05
-8.6239624e-06
2.3859407e-11
-2.5458391e-05
-8.5940331e-06
2.3750833e-11
-1.9493598e-05
-8.2330549e-06
2.2558639e-11
-1.4006716e-05
-7.5509486e-06
2.0446882e-11
-9.2033021e-06
-6.5771857e-06
1.7885499e-11
-5.2529176e-06
-5.3616215e-06
1.5226327e-11
-2.2739789e-06
-3.9756583e-06
1.2348514e-11
-3.1724932e-07
-2.515055e-06
8.7990256e-12
6.570768e-07
-1.1070987e-06
4.2816143e-12
8.0365865e-07
7.7044181e-08
2.0644902e-12
4.1779783e-07
8.0093052e-07
3.469688e-12
7.0831706e-07
-2.3174896e-12
-2.7356233e-07
-1.4148418e-07
-1.2154235e-11
-1.6274462e-06
1.6603847e-06
-6.8964049e-12
-4.2893664e-06
4.2464704e-06
-8.2534174e-12
-8.2746439e-06
6.939496e-06
-6.8920185e-12
-1.347439e-05
9.4094126e-06
-4.9545882e-12
-1.9708699e-05
1.1495052e-05
-3.8898095e-12
-2.6765733e-05
1.3137308e-05
-3.2018675e-12
-3.4426602e-05
1.4334355e-05
-2.6393322e-12
-4.247862e-05
1.5110415e-05
-2.1769639e-12
-5.0720443e-05
1.5497064e-05
-1.765354e-12
-5.8962289e-05
1.5523082e-05
-1.3628493e-12
-6.7023686e-05
1.5209872e-05
-9.564397e-13
-7.4730528e-05
1.457065e-05
-5.4855099e-13
-8.1912717e-05
1.3612109e-05
-1.4524141e-13
-8.8403146e-05
1.233759e-05
2.493738e-13
-9.4038476e-05
1.0751021e-05
6.4147267e-13
-9.8661797e-05
8.8610531e-06
1.0421462e-12
-0.0001021271
6.6849662e-06
1.4506502e-12
-0.00010430523
4.2519766e-06
1.8298213e-12
-0.000105091
1.6057141e-06
2.1283275e-12
-0.00010441064
-1.1944176e-06
2.3340913e-12
-0.00010222946
-4.0734995e-06
2.4790849e-12
-9.8558524e-05
-6.9417093e-06
2.6227004e-12
-9.3460007e-05
-9.6978667e-06
2.7896641e-12
-8.7050394e-05
-1.2233383e-05
2.915121e-12
-7.9500995e-05
-1.4437886e-05
2.8898003e-12
-7.103528e-05
-1.6205828e-05
2.6953329e-12
-6.1922729e-05
-1.7443736e-05
2.4865242e-12
-5.2469156e-05
-1.8077552e-05
2.4805405e-12
-4.3003684e-05
-1.8059498e-05
2.7102185e-12
-3.3862817e-05
-1.7373895e-05
2.9188251e-12
-2.5372216e-05
-1.6041536e-05
2.8157335e-12
-1.7826882e-05
-1.4122547e-05
2.4894235e-12
-1.1470421e-05
-1.1718129e-05
2.4397016e-12
-6.4738847e-06
-8.9722068e-06
3.0201677e-12
-2.9140465e-06
-6.0748417e-06
3.8145232e-12
-7.5120838e-07
-3.269867e-06
3.8426106e-12
1.943722e-07
-8.6852359e-07
3.729231e-12
2.654777e-07
7.2976066e-07
4.9191307e-12
9.7380085e-07
8.2933082e-13
-7.4583556e-07
6.0436425e-07
-1.2499627e-11
-3.1796152e-06
4.0941665e-06
-1.0143658e-12
-7.3460811e-06
8.4129444e-06
-6.4763664e-12
-1.3163036e-05
1.2756457e-05
-5.866793e-12
-2.0455803e-05
1.6702182e-05
-3.2817201e-12
-2.8992625e-05
2.0031876e-05
-1.9630044e-12
-3.8513872e-05
2.2658556e-05
-1.0832038e-12
-4.8752674e-05
2.4573159e-05
-2.9493618e-13
-5.9446983e-05
2.5804723e-05
3.392111e-13
-7.0344837e-05
2.6394917e-05
8.3645278e-13
-8.1205133e-05
2.6383377e-05
1.2477372e-12
-9.1795988e-05
2.5800725e-05
1.6035488e-12
-0.00010189242
2.466708e-05
1.9154142e-12
-0.00011127464
2.2994327e-05
2.179768e-12
-0.00011972779
2.0790742e-05
2.379496e-12
-0.00012704362
1.8066846e-05
2.4983744e-12
-0.00013302417
1.48416e-05
2.5404522e-12
-0.00013748743
1.1148219e-05
2.5286966e-12
-0.00014027452
7.0390725e-06
2.4730405e-12
-0.00014125806
2.5892532e-06
2.3513416e-12
-0.00014035078
-2.1016962e-06
2.1274989e-12
-0.00013751439
-6.9098903e-06
1.7469565e-12
-0.00013276703
-1.1689077e-05
1.2682713e-12
-0.00012618932
-1.6275589e-05
8.118397e-13
-0.0001179279
-2.0494806e-05
4.6552021e-13
-0.00010819592
-2.4169853e-05
1.9019118e-13
-9.7269871e-05
-2.7131858e-05
-1.4841383e-13
-8.5482408e-05
-2.9231198e-05
-5.9956096e-13
-7.3210953e-05
-3.0349027e-05
-9.7657924e-13
-6.0862281e-05
-3.0408191e-05
-9.6551846e-13
-4.8853465e-05
-2.9382703e-05
-4.700275e-13
-3.75899e-05
-2.7305064e-05
1.9096218e-13
-2.7441296e-05
-2.4271124e-05
5.8583155e-13
-1.871668e-05
-2.044277e-05
7.2727765e-13
-1.163947e-05
-1.6049478e-05
1.1490099e-12
-6.323599e-06
-1.1390747e-05
2.2608073e-12
-2.7515449e-06
-6.8418894e-06
3.709201e-12
-7.5713364e-07
-2.8628869e-06
4.5382857e-12
-9.5192194e-09
-1.7864883e-08
4.5531584e-12
9.6426333e-07
3.6834735e-12
-1.2279623e-06
1.8323411e-06
-1.4098916e-11
-4.7881002e-06
7.6542994e-06
4.88988e-12
-1.0521529e-05
1.414638e-05
-5.6653246e-12
-1.8214319e-05
2.0449255e-05
-6.7748258e-12
-2.7603924e-05
2.6091792e-05
-4.4151989e-12
-3.8396285e-05
3.082424e-05
-3.711721e-12
-5.0283045e-05
3.4545319e-05
-3.3874587e-12
-6.2954775e-05
3.7244892e-05
-2.9266821e-12
-7.6109031e-05
3.8958983e-05
-2.4752546e-12
-8.9453769e-05
3.9739658e-05
-2.0720895e-12
-0.00010270747
3.9637079e-05
-1.6899346e-12
-0.00011559753
3.8690786e-05
-1.3085515e-12
-0.00012785834
3.6927895e-05
-9.125222e-13
-0.0001392302
3.4366183e-05
-4.8973479e-13
-0.00014945975
3.1020293e-05
-4.5615388e-14
-0.00015830247
2.6909575e-05
3.9220296e-13
-0.00016552724
2.2066364e-05
7.9474116e-13
-0.00017092275
1.6543725e-05
1.1597343e-12
-0.00017430559
1.0421916e-05
1.5144613e-12
-0.00017552936
3.8130129e-06
1.8836738e-12
-0.00017449413
-3.1369217e-06
2.2470751e-12
-0.00017115588
-1.024813e-05
2.5205819e-12
-0.0001655348
-1.7310159e-05
2.6379396e-12
-0.0001577219
-2.4088494e-05
2.6245744e-12
-0.0001478832
-3.0333522e-05
2.6089451e-12
-0.00013626061
-3.5792457e-05
2.7082575e-12
-0.00012316897
-4.0223488e-05
2.8793787e-12
-0.00010898871
-4.3411432e-05
2.9210426e-12
-9.4153793e-05
-4.5183944e-05
2.6985597e-12
-7.9134855e-05
-4.5427155e-05
2.3807178e-12
-6.4418079e-05
-4.4099513e-05
2.3502646e-12
-5.0480383e-05
-4.1242762e-05
2.7714753e-12
-3.7762137e-05
-3.6989329e-05
3.298754e-12
-2.6638803e-05
-3.1566066e-05
3.392028e-12
-1.7393158e-05
-2.5295135e-05
2.9991724e-12
-1.0189929e-05
-1.8594031e-05
2.8886222e-12
-5.0547579e-06
-1.1977089e-05
3.8617034e-12
-1.8598326e-06
-6.0577866e-06
4.0064556e-12
-3.2222435e-07
-1.5554569e-06
8.0944406e-13
6.4202408e-07
6.0069953e-12
-1.6931663e-06
3.525525e-06
-1.6632217e-11
-6.3714052e-06
1.2332528e-05
1.0252124e-11
-1.3671445e-05
2.1446425e-05
-4.7590308e-12
-2.3234049e-05
3.0011867e-05
-6.9222179e-12
-3.4695231e-05
3.755298e-05
-4.203778e-12
-4.768981e-05
4.3818823e-05
-3.656729e-12
-6.1857512e-05
4.8713024e-05
-3.5596319e-12
-7.6848057e-05
5.223544e-05
-3.2176957e-12
-9.2323862e-05
5.4434791e-05
-2.8276776e-12
-0.00010796027
5.5376065e-05
-2.4526184e-12
-0.00012344396
5.512078e-05
-2.0770989e-12
-0.00013847069
5.3717517e-05
-1.6973788e-12
-0.00015274322
5.1200429e-05
-1.3102464e-12
-0.00016597054
4.7593498e-05
-9.0083946e-13
-0.00017786874
4.2918495e-05
-4.5086786e-13
-0.00018816405
3.7204889e-05
3.5502362e-14
-0.00019659789
3.0500207e-05
5.2281337e-13
-0.00020293384
2.2879673e-05
9.6656377e-13
-0.00020696614
1.4454217e-05
1.3529696e-12
-0.0002085293
5.3761624e-06
1.7150457e-12
-0.00020750812
-4.1581021e-06
2.0974428e-12
-0.00020384768
-1.390857e-05
2.496958e-12
-0.00019756247
-2.3595366e-05
2.8223445e-12
-0.00018874396
-3.2906994e-05
2.9682551e-12
-0.00017756589
-4.1511606e-05
2.9362e-12
-0.00016428626
-4.9072101e-05
2.8807373e-12
-0.00014924552
-5.5264244e-05
2.9799242e-12
-0.00013285991
-5.9797036e-05
3.2209709e-12
-0.00011560967
-6.2434159e-05
3.3549707e-12
-9.8021747e-05
-6.3015065e-05
3.1629984e-12
-8.0647223e-05
-6.1474064e-05
2.7913454e-12
-6.4034192e-05
-5.7855836e-05
2.6954382e-12
-4.8697465e-05
-5.232607e-05
3.1137273e-12
-3.5086901e-05
-4.5176595e-05
3.6464978e-12
-2.3556656e-05
-3.6825343e-05
3.6269829e-12
-1.4337857e-05
-2.7812841e-05
3.352035e-12
-7.5174971e-06
-1.8797491e-05
4.1833209e-12
-3.026733e-06
-1.0548558e-05
3.7072605e-12
-6.4249077e-07
-3.9396801e-06
-1.6965457e-12
-4.7477985e-10
8.5746827e-12
-2.1329365e-06
5.6584817e-06
-1.9419432e-11
-7.8910737e-06
1.809065e-05
1.5030278e-11
-1.6717401e-05
3.0272755e-05
-4.0420268e-12
-2.8105736e-05
4.1400208e-05
-7.01411e-12
-4.1585083e-05
5.1032332e-05
-3.7900483e-12
-5.6714129e-05
5.8947874e-05
-3.2600607e-12
-7.3078273e-05
6.5077173e-05
-3.2853719e-12
-9.0287084e-05
6.9444254e-05
-3.0030594e-12
-0.00010797132
7.2119029e-05
-2.6572344e-12
-0.00012577927
7.3184014e-05
-2.3163372e-12
-0.00014337274
7.2714256e-05
-1.9563722e-12
-0.00016042341
7.0768196e-05
-1.5780604e-12
-0.00017661018
6.7387203e-05
-1.1950708e-12
-0.00019161813
6.2601449e-05
-8.1277989e-13
-0.00020513951
5.643987e-05
-4.1547176e-13
-0.00021687684
4.8942216e-05
2.0386761e-14
-0.00022654814
4.0171515e-05
4.9643868e-13
-0.00023389406
3.0225596e-05
9.7261045e-13
-0.0002386865
1.9246654e-05
1.387682e-12
-0.00024073842
7.4280797e-06
1.7110611e-12
-0.00023991437
-4.9821621e-06
1.9782402e-12
-0.00023614103
-1.768192e-05
2.2718771e-12
-0.00022941747
-3.0318917e-05
2.6082671e-12
-0.00021982416
-4.2500302e-05
2.8956632e-12
-0.00020752991
-5.3805839e-05
2.9903123e-12
-0.00019279609
-6.3805928e-05
2.8609509e-12
-0.0001759767
-7.2083656e-05
2.6849547e-12
-0.00015751365
-7.8260111e-05
2.7113586e-12
-0.00013792613
-8.2021667e-05
2.9741694e-12
-0.00011779372
-8.3147448e-05
3.1876726e-12
-9.7732939e-05
-8.1534825e-05
3.0514304e-12
-7.836812e-05
-7.7220676e-05
2.6910809e-12
-6.0297877e-05
-7.0396357e-05
2.6185905e-12
-4.4059539e-05
-6.141495e-05
3.0457584e-12
-3.0094426e-05
-5.0790428e-05
3.4312571e-12
-1.8717247e-05
-3.9189993e-05
3.6272794e-12
-1.0093047e-05
-2.7421708e-05
4.8339799e-12
-4.2253168e-06
-1.6416311e-05
3.6487581e-12
-9.5848884e-07
-7.2065019e-06
-4.5686506e-12
-9.589669e-07
1.0588981e-11
-2.5450546e-06
8.2035585e-06
-2.2221317e-11
-9.3288448e-06
2.4874422e-05
1.9299935e-11
-1.961536e-05
4.0559275e-05
-3.5654468e-12
-3.2756845e-05
5.4541699e-05
-7.2922023e-12
-4.8175882e-05
6.6451372e-05
-3.6156893e-12
-6.5354086e-05
7.6126082e-05
-3.1283439e-12
-8.3822135e-05
8.3545227e-05
-3.2784639e-12
-0.00010315062
8.8772742e-05
-3.0538713e-12
-0.00012294162
9.1910031e-05
-2.7572181e-12
-0.00014282095
9.3063351e-05
-2.4682604e-12
-0.00016243134
9.2324647e-05
-2.1485099e-12
-0.00018142688
8.9763733e-05
-1.7858888e-12
-0.00019946925
8.5429577e-05
-1.3909586e-12
-0.00021622604
7.9358248e-05
-9.8621374e-13
-0.0002313713
7.1585131e-05
-5.8666968e-13
-0.00024458832
6.2159234e-05
-1.8070801e-13
-0.0002555746
5.1157787e-05
2.6260154e-13
-0.00026404868
3.8699678e-05
7.5594969e-13
-0.00026975868
2.4956658e-05
1.2595891e-12
-0.0002724921
1.0161503e-05
1.6926041e-12
-0.00027208668
-5.3875779e-06
1.9982235e-12
-0.00026844173
-2.1326885e-05
2.2259868e-12
-0.00026152975
-3.7230901e-05
2.4697844e-12
-0.0002514074
-5.2622663e-05
2.7903139e-12
-0.00023822498
-6.6988245e-05
3.0996271e-12
-0.00022223363
-7.9797263e-05
3.2103308e-12
-0.00020378863
-9.0528659e-05
3.0451718e-12
-0.00018334762
-9.8701138e-05
2.791031e-12
-0.00016146242
-0.0001039069
2.762196e-12
-0.00013876328
-0.00010584659
3.0407554e-12
-0.00011593534
-0.00010436273
3.314575e-12
-9.3687532e-05
-9.9468462e-05
3.2334228e-12
-7.2715428e-05
-9.1368477e-05
2.9289933e-12
-5.3660757e-05
-8.046966e-05
2.8611224e-12
-3.7071096e-05
-6.73801e-05
3.0552488e-12
-2.3363943e-05
-5.2897124e-05
3.604258e-12
-1.2799308e-05
-3.7986334e-05
5.513855e-12
-5.4648775e-06
-2.3750754e-05
3.7332504e-12
-1.2772587e-06
-1.1394122e-05
-7.5389703e-12
-2.236236e-06
1.2983191e-11
-2.9284823e-06
1.1132065e-05
-2.4950356e-11
-1.0673671e-05
3.2619589e-05
2.3117557e-11
-2.2336172e-05
5.222178e-05
-3.2531912e-12
-3.7135971e-05
6.9341507e-05
-7.648468e-12
-5.4394105e-05
8.3709509e-05
-3.5352638e-12
-7.3517622e-05
9.5249602e-05
-3.0942877e-12
-9.3984294e-05
0.0001040119
-3.3667804e-12
-0.00011532795
0.00011011641
-3.1887748e-12
-0.00013712517
0.00011370725
-2.9213214e-12
-0.00015898353
0.00011492171
-2.6683642e-12
-0.00018053177
0.0001138729
-2.3909225e-12
-0.00020141214
0.0001106441
-2.0675223e-12
-0.00022127503
0.00010529246
-1.6889831e-12
-0.00023977618
9.7859404e-05
-1.2638702e-12
-0.00025657637
8.8385331e-05
-8.232514e-13
-0.00027134346
7.6926322e-05
-3.9528518e-13
-0.00028375659
6.3570912e-05
2.5002744e-14
-0.00029351243
4.8455521e-05
4.7724538e-13
-0.00030033322
3.1777445e-05
9.9116199e-13
-0.00030397636
1.3804643e-05
1.5287586e-12
-0.00030424557
-5.1183598e-06
1.9856737e-12
-0.00030100297
-2.4569483e-05
2.308146e-12
-0.00029418252
-4.4051363e-05
2.4998757e-12
-0.00028380326
-6.3001939e-05
2.6956795e-12
-0.00026998222
-8.0809294e-05
2.9998184e-12
-0.00025294549
-9.6833978e-05
3.3352023e-12
-0.00023303599
-0.00011043814
3.4771244e-12
-0.000210716
-0.00012102113
3.2995821e-12
-0.00018656267
-0.00012806024
2.9886871e-12
-0.00016125485
-0.00013115445
2.9069888e-12
-0.00013554999
-0.00013006759
3.1684494e-12
-0.00011025147
-0.00012476695
3.4534331e-12
-8.6167373e-05
-0.00011545256
3.4194077e-12
-6.4063731e-05
-0.00010257332
3.1400231e-12
-4.461668e-05
-8.6827182e-05
2.8711075e-12
-2.8368538e-05
-6.9145271e-05
3.3725155e-12
-1.5693151e-05
-5.066171e-05
5.9969533e-12
-6.7752169e-06
-3.2668684e-05
3.8557776e-12
-1.6070332e-06
-1.6562301e-05
-1.0478877e-11
-3.8432873e-06
1.5523838e-11
-3.2816997e-06
1.4413792e-05
-2.7541088e-11
-1.191587e-05
4.1253732e-05
2.6519482e-11
-2.485551e-05
6.5161424e-05
-3.0765387e-12
-4.1199915e-05
8.5685922e-05
-8.0576168e-12
-6.0176305e-05
0.0001026859
-3.5118618e-12
-8.1122244e-05
0.00011619554
-3.0946624e-12
-0.0001034663
0.00012635596
-3.480511e-12
-0.00012670888
0.00013335899
-3.3506476e-12
-0.00015040464
0.00013740302
-3.1050533e-12
-0.00017414713
0.00013866421
-2.8675258e-12
-0.00019755594
0.00013728171
-2.6093153e-12
-0.00022026668
0.00013335485
-2.3198874e-12
-0.00024192388
0.00012694967
-1.9847966e-12
-0.00026217668
0.0001181122
-1.5848954e-12
-0.00028067717
0.00010688583
-1.1252329e-12
-0.0002970813
9.3330459e-05
-6.442402e-13
-0.00031105196
7.7541569e-05
-1.8555283e-13
-0.00032226414
5.9667707e-05
2.4706739e-13
-0.00033041221
3.99255e-05
7.0134662e-13
-0.00033521898
1.861141e-05
1.2162973e-12
-0.00033644713
-3.8902024e-06
1.7540879e-12
-0.00033391173
-2.7104876e-05
2.2850976e-12
-0.00032749596
-5.0467127e-05
2.6239188e-12
-0.00031716688
-7.3331031e-05
2.7863545e-12
-0.00030299231
-9.4983886e-05
2.9303368e-12
-0.00028515684
-0.00011466946
3.1996477e-12
-0.00026397518
-0.00013161979
3.5387479e-12
-0.00023990061
-0.00014509568
3.6988762e-12
-0.00021352582
-0.00015443502
3.5155581e-12
-0.00018557378
-0.00015910651
3.170894e-12
-0.00015687659
-0.00015876481
3.0498922e-12
-0.00012834165
-0.0001533019
3.2794652e-12
-0.00010090606
-0.00014288812
3.555766e-12
-7.5482465e-05
-0.0001279969
3.4823348e-12
-5.2901147e-05
-0.00010940851
2.9739263e-12
-3.3855122e-05
-8.8191317e-05
3.2341838e-12
-1.8854789e-05
-6.5662048e-05
6.3698524e-12
-8.1982621e-06
-4.3325205e-05
3.8653242e-12
-1.9611607e-06
-2.2799385e-05
-1.3621082e-11
-5.8044689e-06
1.8250705e-11
-3.6023023e-06
1.8016125e-05
-2.9949626e-11
-1.3044872e-05
5.0696271e-05
2.9529609e-11
-2.7149288e-05
7.9265843e-05
-3.0093498e-12
-4.4907167e-05
0.00010344381
-8.5202893e-12
-6.5461501e-05
0.00012324024
-3.5593983e-12
-8.8087227e-05
0.00013882127
-3.1420098e-12
-0.0001121688
0.00015043754
-3.6218584e-12
-0.00013717742
0.00015836761
-3.5443776e-12
-0.00016264988
0.00016287549
-3.3334978e-12
-0.00018816993
0.00016418426
-3.1158349e-12
-0.00021335264
0.00016246442
-2.8622188e-12
-0.00023783202
0.00015783424
-2.5785254e-12
-0.0002612519
0.00015036955
-2.2717113e-12
-0.00028325983
0.00014012012
-1.9223365e-12
-0.00030350382
0.00012712982
-1.5014774e-12
-0.00032163166
0.0001114583
-1.0074801e-12
-0.00033729244
9.3202356e-05
-4.8304954e-13
-0.00035014038
7.2515648e-05
1.2346821e-14
-0.00035984079
4.9625909e-05
4.6058471e-13
-0.00036607843
2.4849041e-05
8.9633997e-13
-0.00036856897
-1.3996693e-06
1.3540063e-12
-0.00036707134
-2.86025e-05
2.0145521e-12
-0.00036140636
-5.6132097e-05
2.5849856e-12
-0.00035147457
-8.3262815e-05
2.9487636e-12
-0.00033727782
-0.00010918064
3.0996317e-12
-0.00031894091
-0.00013300639
3.1956102e-12
-0.00029673176
-0.00015382896
3.4157934e-12
-0.00027107727
-0.00017075016
3.7292232e-12
-0.00024257162
-0.00018294065
3.8781555e-12
-0.00021197326
-0.00018970486
3.6810539e-12
-0.00018018759
-0.0001905505
3.320693e-12
-0.00014823333
-0.0001852562
3.1886831e-12
-0.00011719277
-0.00017392868
3.4056105e-12
-8.8148949e-05
-0.0001570407
3.5602612e-12
-6.2115378e-05
-0.00013544208
3.1197749e-12
-3.996649e-05
-0.00011034022
3.2916611e-12
-2.2377614e-05
-8.3250941e-05
6.8644089e-12
-9.7826922e-06
-5.592013e-05
3.8128579e-12
-2.3546951e-06
-3.022736e-05
-1.7154209e-11
-8.1591849e-06
2.1280807e-11
-3.8870498e-06
2.1903207e-05
-3.214917e-11
-1.4048659e-05
6.0857848e-05
3.2145434e-11
-2.9192052e-05
9.4409238e-05
-3.0166245e-12
-4.8215262e-05
0.00012246703
-9.0153185e-12
-7.0187838e-05
0.00014521282
-3.6925072e-12
-9.4330055e-05
0.0001629635
-3.2579906e-12
-0.00011998821
0.00017609569
-3.8003065e-12
-0.00014660907
0.00018498848
-3.760547e-12
-0.00017371587
0.00018998229
-3.5898821e-12
-0.00020088685
0.00019135524
-3.4113668e-12
-0.00022773707
0.00018931465
-3.1784565e-12
-0.0002539038
0.00018400097
-2.8925467e-12
-0.00027903519
0.00017550095
-2.5800722e-12
-0.00030278231
0.00016386725
-2.2529496e-12
-0.00032479396
0.00014914147
-1.8900811e-12
-0.00034471404
0.00013137837
-1.4520549e-12
-0.00036218125
0.00011066957
-9.2525145e-13
-0.00037683113
8.716553e-05
-3.5417042e-13
-0.00038830041
6.1095195e-05
1.8477716e-13
-0.00039623427
3.2782898e-05
6.6793103e-13
-0.00040029638
2.6624348e-06
1.166974e-12
-0.00040018388
-2.8715012e-05
1.6571553e-12
-0.00039564405
-6.0671925e-05
2.2749079e-12
-0.00038649735
-9.2409507e-05
2.8790868e-12
-0.00037266262
-0.00012301537
3.2830263e-12
-0.00035418496
-0.00015148405
3.4344297e-12
-0.0003312638
-0.00017675014
3.4889026e-12
-0.00030427784
-0.00019773614
3.649172e-12
-0.000273803
-0.0002134155
3.9034412e-12
-0.0002406183
-0.00022288954
3.9998423e-12
-0.00020569518
-0.0002254736
3.7693159e-12
-0.00017016638
-0.00022078501
3.419963e-12
-0.00013527318
-0.0002088219
3.3325047e-12
-0.00010229333
-0.00019002056
3.4238022e-12
-7.2455931e-05
-0.00016527946
3.0634017e-12
-4.6853289e-05
-0.00013594285
3.3730138e-12
-2.6361363e-05
-0.00010374288
7.5636639e-12
-1.1580443e-05
-7.0701058e-05
3.8240805e-12
-2.8033153e-06
-3.9004466e-05
-2.1174407e-11
-1.0962523e-05
2.4713138e-11
-4.132117e-06
2.6035358e-05
-3.4109192e-11
-1.4914096e-05
7.1639794e-05
3.4335955e-11
-3.0957129e-05
0.00011045227
-3.0765388e-12
-5.1080652e-05
0.00014259056
-9.5013257e-12
-7.429227e-05
0.00016842444
-3.8849174e-12
-9.9766121e-05
0.00018843735
-3.443677e-12
-0.00012681668
0.00020314626
-4.0303244e-12
-0.0001548713
0.0002130431
-4.0056195e-12
-0.00018344393
0.00021855493
-3.8584927e-12
-0.00021211149
0.0002200228
-3.7211291e-12
-0.00024049344
0.0002176966
-3.5332042e-12
-0.00026823493
0.00021174246
-3.2735139e-12
-0.00029499351
0.00020225954
-2.9561515e-12
-0.00032042905
0.00018930278
-2.6125161e-12
-0.0003441964
0.00017290883
-2.2632416e-12
-0.00036594074
0.00015312271
-1.8882781e-12
-0.00038529505
0.00013002388
-1.4363615e-12
-0.00040188001
0.00010375049
-8.7948108e-13
-0.00041530644
7.4521626e-05
-2.5932229e-13
-0.00042518077
4.2657233e-05
3.5131076e-13
-0.00043111396
8.595631e-06
9.2234889e-13
-0.00043273622
-2.7092763e-05
1.3493313e-12
-0.00042971416
-6.3693993e-05
1.8816123e-12
-0.00042177618
-0.0001003475
2.5362517e-12
-0.00040874172
-0.00013604983
3.1820314e-12
-0.00039055538
-0.00016967038
3.6191405e-12
-0.00036732349
-0.00019998203
3.7702775e-12
-0.0003393498
-0.00022570985
3.7840676e-12
-0.00030716537
-0.00024559994
3.8710421e-12
-0.00027154683
-0.00025850808
4.0281523e-12
-0.000233516
-0.00026350442
4.0275845e-12
-0.00019431497
-0.00025998604
3.7665366e-12
-0.00015535291
-0.00024778398
3.4950437e-12
-0.00011812527
-0.00022724822
3.3350236e-12
-8.4111833e-05
-0.0001992929
2.8367273e-12
-5.4665479e-05
-0.0001653892
3.3148068e-12
-3.0907338e-05
-0.00012750102
8.3791096e-12
-1.3644697e-05
-8.7963706e-05
3.9286131e-12
-3.3229926e-06
-4.9326147e-05
-2.575579e-11
-1.4285543e-05
2.8682132e-11
-4.3334548e-06
3.0368848e-05
-3.5781627e-11
-1.5627794e-05
8.2934098e-05
3.6065996e-11
-3.241791e-05
0.00012724239
-3.1910003e-12
-5.3460306e-05
0.00016363297
-9.9560207e-12
-7.7712458e-05
0.0001926766
-4.1064495e-12
-0.000104311
0.0002150359
-3.6778014e-12
-0.00013254491
0.00023138017
-4.312002e-12
-0.00016182693
0.00024232512
-4.296322e-12
-0.00019166587
0.00024839387
-4.1528471e-12
-0.00022164124
0.00024999817
-4.0337887e-12
-0.00025138096
0.00024743633
-3.8865314e-12
-0.00028054264
0.00024090414
-3.6800937e-12
-0.00030879822
0.00023051511
-3.3987309e-12
-0.00033582178
0.00021632635
-3.0506492e-12
-0.00036128017
0.00019836723
-2.6733777e-12
-0.00038482595
0.00017666849
-2.2987093e-12
-0.00040609255
0.00015129049
-1.9092742e-12
-0.00042469179
0.00012234972
-1.4431331e-12
-0.00044021385
9.004369e-05
-8.5459268e-13
-0.00045223065
5.4674036e-05
-1.7017563e-13
-0.00046030303
1.666802e-05
5.1693891e-13
-0.00046399357
-2.3402221e-05
1.0774685e-12
-0.00046288448
-6.4803087e-05
1.589912e-12
-0.00045660341
-0.00010662858
2.1600329e-12
-0.00044485609
-0.00014779716
2.8361856e-12
-0.00042746613
-0.00018706034
3.5030333e-12
-0.00040442021
-0.00022302793
3.9489055e-12
-0.0003759156
-0.00025421446
4.0824207e-12
-0.00034240458
-0.00027911098
4.0440945e-12
-0.00030462863
-0.00029628405
4.0338842e-12
-0.00026363338
-0.00030449967
4.0512139e-12
-0.00022075512
-0.00030286428
3.9444322e-12
-0.00017757163
-0.00029096747
3.7217865e-12
-0.00013581501
-0.00026900484
3.3949326e-12
-9.7251936e-05
-0.00023785599
2.613179e-12
-6.3544842e-05
-0.0001990963
3.1421311e-12
-3.611469e-05
-0.00015493118
9.2388714e-12
-1.6028557e-05
-0.00010804984
4.064521e-12
-3.9298355e-06
-6.1424838e-05
-3.102542e-11
-1.8215413e-05
3.3335487e-11
-4.487224e-06
3.4856109e-05
-3.711312e-11
-1.6177325e-05
9.4624161e-05
3.7320416e-11
-3.35499e-05
0.00014461497
-3.3635726e-12
-5.5314555e-05
0.00018539763
-1.0378164e-11
-8.0390367e-05
0.00021775242
-4.3389119e-12
-0.0001078848
0.00024253034
-3.9296984e-12
-0.00013706725
0.00026056263
-4.6194053e-12
-0.00016734027
0.00027259815
-4.6275726e-12
-0.00019821119
0.0002792648
-4.4908236e-12
-0.00022926561
0.00028105259
-4.3714047e-12
-0.00026014367
0.00027831439
-4.2339655e-12
-0.00029051966
0.00027128013
-4.0658649e-12
-0.00032008482
0.00026008028
-3.8458672e-12
-0.00034853318
0.00024477471
-3.5450363e-12
-0.00037554993
0.00022538399
-3.1653146e-12
-0.00040080218
0.00020192075
-2.7501447e-12
-0.0004239316
0.00017441991
-2.3424907e-12
-0.0004445493
0.00014296742
-1.929569e-12
-0.00046223322
0.0001077276
-1.4394244e-12
-0.00047652863
6.8969443e-05
-8.0793502e-13
-0.00048695288
2.7092276e-05
-5.9145759e-14
-0.00049300564
-1.7349454e-05
6.8275107e-13
-0.00049418563
-6.3623087e-05
1.3313276e-12
-0.00049001582
-0.0001107984
1.9025813e-12
-0.00048007775
-0.00015773524
2.5029579e-12
-0.00046405567
-0.00020308243
3.1878643e-12
-0.00044178975
-0.00024529384
3.842794e-12
-0.00041333574
-0.00028266846
4.2566009e-12
-0.00037902595
-0.00031342077
4.3395255e-12
-0.00033952334
-0.00033578668
4.2199243e-12
-0.00029585752
-0.0003481655
4.0737742e-12
-0.0002494298
-0.00034929201
3.9438901e-12
-0.00020197496
-0.0003384223
3.8081989e-12
-0.00015547283
-0.00031550697
3.469511e-12
-0.00011201159
-0.00028131724
2.4419066e-12
-7.3617498e-05
-0.0002374904
2.9604538e-12
-4.2077005e-05
-0.00018647168
1.0189497e-11
-1.8784003e-05
-0.00013134284
4.1915417e-12
-4.64001e-06
-7.5568792e-05
-3.7149399e-11
-2.2855461e-05
3.8796193e-11
-4.590283e-06
3.9446431e-05
-3.8068991e-11
-1.655269e-05
0.00010658653
3.8102206e-11
-3.4333351e-05
0.00016239564
-3.5794601e-12
-5.6610888e-05
0.00020767518
-1.0771458e-11
-8.2277186e-05
0.00024341872
-4.5983157e-12
-0.00011041819
0.00027067134
-4.1957327e-12
-0.00014028892
0.00029043336
-4.9322637e-12
-0.00017128551
0.00030359475
-4.9742332e-12
-0.00020291689
0.00031089618
-4.8623638e-12
-0.00023477769
0.0003129134
-4.7505964e-12
-0.00026652358
0.00031006029
-4.6047442e-12
-0.00029784946
0.00030260601
-4.4336958e-12
-0.00032847061
0.00029070143
-4.2449787e-12
-0.00035810672
0.00027441082
-4.0096767e-12
-0.00038646825
0.00025374552
-3.6867634e-12
-0.00041324486
0.00022869736
-3.2713458e-12
-0.00043809568
0.00019927073
-2.8105215e-12
-0.00046064152
0.00016551328
-2.3571318e-12
-0.00048045932
0.0001275454
-1.9038235e-12
-0.00049707946
8.5589581e-05
-1.3729458e-12
-0.0005099872
4.0000007e-05
-6.918175e-13
-0.00051862939
-8.7072638e-06
1.1843303e-13
-0.00052242834
-5.9824126e-05
9.3841696e-13
-0.00052080462
-0.00011242211
1.6648847e-12
-0.0005132109
-0.00016532898
2.2954722e-12
-0.00049917823
-0.00021711511
2.9224453e-12
-0.0004783755
-0.00026609658
3.591166e-12
-0.00045068059
-0.00031036336
4.1873935e-12
-0.0004162589
-0.00034784246
4.5148856e-12
-0.00037564086
-0.00037640473
4.4956919e-12
-0.00032978532
-0.00039402105
4.2437302e-12
-0.00028011191
-0.00039896544
3.9532359e-12
-0.00022848373
-0.00039005048
3.764734e-12
-0.00017712616
-0.00036686453
3.4186261e-12
-0.00012847765
-0.00032996575
2.2140322e-12
-8.4985584e-05
-0.00028098247
2.7804443e-12
-4.8878642e-05
-0.00022257864
1.1312239e-11
-2.1960826e-05
-0.00015826066
4.3355512e-12
-5.469678e-06
-9.2059893e-05
-4.4272081e-11
-2.8325184e-05
4.5172852e-11
-4.6407192e-06
4.408719e-05
-3.8643667e-11
-1.6747988e-05
0.00011869376
3.8412241e-11
-3.4756314e-05
0.00018040397
-3.8102634e-12
-5.7328466e-05
0.00023024735
-1.1117351e-11
-8.3339268e-05
0.00026942953
-4.8877315e-12
-0.00011185972
0.0002991918
-4.4874706e-12
-0.00014213476
0.0003207084
-5.2419379e-12
-0.00017355703
0.00033501703
-5.3090259e-12
-0.00020563944
0.0003429786
-5.231112e-12
-0.00023798811
0.00034526207
-5.1485069e-12
-0.00027027702
0.00034234921
-5.0099596e-12
-0.0003022252
0.0003345542
-4.8193209e-12
-0.00033357653
0.00032205277
-4.6093831e-12
-0.00036408207
0.00030491636
-4.3907978e-12
-0.0003934846
0.00028314805
-4.1301491e-12
-0.00042150501
0.00025671777
-3.7760424e-12
-0.00044783033
0.00022559605
-3.3159631e-12
-0.00047210323
0.00018978619
-2.7981421e-12
-0.00049391353
0.00014935571
-2.2829718e-12
-0.00051279208
0.00010446813
-1.769146e-12
-0.00052820808
5.5416005e-05
-1.1802229e-12
-0.0005395714
2.6560505e-06
-4.3729328e-13
-0.00054624184
-5.315369e-05
4.2584407e-13
-0.00054754741
-0.00011111652
1.3149507e-12
-0.000542815
-0.00017006138
2.1102331e-12
-0.0005314158
-0.00022851431
2.7903256e-12
-0.00051282805
-0.00028468435
3.4229924e-12
-0.00048671738
-0.00033647404
4.0333784e-12
-0.00045303246
-0.00038152737
4.5085099e-12
-0.00041210823
-0.00041732895
4.6761256e-12
-0.00036476274
-0.00044136654
4.4792564e-12
-0.00031236681
-0.00045136137
4.0741545e-12
-0.00025686081
-0.00044555649
3.7322075e-12
-0.00020069381
-0.00042303154
3.2596222e-12
-0.00014667113
-0.00038398842
1.8305331e-12
-9.7717406e-05
-0.0003299362
2.5143468e-12
-5.6590333e-05
-0.00026370573
1.2619045e-11
-2.5605328e-05
-0.00018924567
4.5301471e-12
-6.4348949e-06
-0.00011123027