/*--------------------------------*- C++ -*----------------------------------*\
  =========                 |
  \\      /  F ield         | OpenFOAM: The Open Source CFD Toolbox
   \\    /   O peration     | Website:  https://openfoam.org
    \\  /    A nd           | Version:  7
     \\/     M anipulation  |
\*---------------------------------------------------------------------------*/
FoamFile
{
    version     2.0;
    format      ascii;
    class       volVectorField;
    location    "49";
    object      U_0;
}
// * * * * * * * * * * * * * * * * * * * * * * * * * * * * * * * * * * * * * //

dimensions      [0 1 -1 0 0 0 0];

internalField   nonuniform List<vector> 
16000
(
(6.6075685e-05 -6.7301563e-05 -3.9279838e-07)
(0.00016280194 -5.6336865e-05 5.7129244e-06)
(0.00014194793 4.7175538e-07 1.9213463e-05)
(-5.0604193e-05 6.1895375e-05 3.6636166e-05)
(-0.00040996195 0.00011563327 5.4744936e-05)
(-0.00090901884 0.00015774481 7.1573483e-05)
(-0.0015177068 0.00018850523 8.5785711e-05)
(-0.0022068832 0.0002096094 9.6566436e-05)
(-0.0029505996 0.00022287706 0.00010345533)
(-0.0037264638 0.0002298113 0.00010620551)
(-0.0045150499 0.00023147714 0.00010468978)
(-0.0052990128 0.00022850385 9.8845079e-05)
(-0.0060621929 0.00022114728 8.8646751e-05)
(-0.0067888641 0.00020938304 7.4105342e-05)
(-0.0074632161 0.00019301384 5.5279628e-05)
(-0.0080691173 0.00017178075 3.2299865e-05)
(-0.0085901699 0.00014547165 5.3959826e-06)
(-0.00901005 0.00011402164 -2.5074139e-05)
(-0.0093131028 7.7601095e-05 -5.8600663e-05)
(-0.0094851492 3.6687475e-05 -9.4505944e-05)
(-0.0095144492 -7.885769e-06 -0.00013194031)
(-0.0093927305 -5.4923274e-05 -0.00016989249)
(-0.0091162241 -0.00010284332 -0.000207216)
(-0.008686602 -0.00014975026 -0.00024267304)
(-0.008111692 -0.00019351326 -0.00027499398)
(-0.0074058966 -0.00023188627 -0.00030295016)
(-0.0065902222 -0.00026265905 -0.00032543517)
(-0.0056918547 -0.00028382487 -0.00034154878)
(-0.004743259 -0.00029374808 -0.00035067633)
(-0.0037808154 -0.00029131469 -0.00035255624)
(-0.0028430629 -0.00027604988 -0.00034732874)
(-0.0019686554 -0.00024818814 -0.00033556108)
(-0.0011941486 -0.00020869272 -0.00031824874)
(-0.00055166669 -0.00015925751 -0.00029679585)
(-6.6501317e-05 -0.00010240941 -0.00027297112)
(0.00024492625 -4.1762056e-05 -0.00024883246)
(0.0003789382 1.7846351e-05 -0.00022676276)
(0.00034977316 6.7081246e-05 -0.00020919886)
(0.00020617604 8.9870361e-05 -0.00019881157)
(5.7461669e-05 5.741721e-05 -0.00018436864)
(5.8021822e-05 -0.00016698121 -6.6181627e-06)
(4.0919191e-05 -3.9921262e-05 -3.6169183e-07)
(-0.00029494471 0.00024858723 1.1272051e-05)
(-0.0010110031 0.0005621374 2.563825e-05)
(-0.0020992139 0.00084750495 4.0623399e-05)
(-0.0035140787 0.0010831259 5.4631685e-05)
(-0.0051946805 0.0012643047 6.6535829e-05)
(-0.0070766268 0.0013940702 7.5583506e-05)
(-0.0090981497 0.0014779626 8.1292869e-05)
(-0.011202307 0.0015215287 8.3364274e-05)
(-0.013337036 0.0015292122 8.1614453e-05)
(-0.01545418 0.0015039764 7.5933485e-05)
(-0.017508153 0.0014473579 6.6263028e-05)
(-0.019454719 0.0013597786 5.2592302e-05)
(-0.021250159 0.0012410028 3.4967403e-05)
(-0.022850978 0.0010906596 1.3509507e-05)
(-0.024214229 0.00090877594 -1.1562376e-05)
(-0.025298435 0.00069627613 -3.990823e-05)
(-0.026065058 0.00045541432 -7.1047405e-05)
(-0.026480399 0.00019010683 -0.00010434578)
(-0.026517816 -9.3864454e-05 -0.00013901268)
(-0.026159989 -0.00038877399 -0.00017411664)
(-0.02540117 -0.00068508929 -0.00020860174)
(-0.02424917 -0.00097175923 -0.00024133531)
(-0.022726749 -0.0012366957 -0.00027116154)
(-0.020872348 -0.0014674299 -0.00029696894)
(-0.018739913 -0.001651905 -0.00031776573)
(-0.01639772 -0.0017793473 -0.0003327566)
(-0.013926129 -0.0018411432 -0.0003414144)
(-0.011414316 -0.0018316373 -0.00034353996)
(-0.0089560926 -0.0017487825 -0.00033930382)
(-0.0066450004 -0.0015945908 -0.00032926502)
(-0.0045688994 -0.0013753856 -0.00031436428)
(-0.0028042321 -0.0011019579 -0.00029589295)
(-0.0014100245 -0.00078991972 -0.00027544131)
(-0.00042162729 -0.00046059715 -0.00025482256)
(0.00015578329 -0.00014256848 -0.00023595129)
(0.00035673312 0.00012231955 -0.0002208463)
(0.00027525057 0.00027114786 -0.00021160986)
(9.0111178e-05 0.00020510737 -0.00019542655)
(1.9268386e-06 -0.0001489341 -2.0403622e-05)
(-0.00025602836 0.00029705274 -1.1782981e-05)
(-0.0010504293 0.0010236496 1.1544498e-07)
(-0.0023878071 0.0017975573 1.3095697e-05)
(-0.0042394281 0.002509916 2.6132068e-05)
(-0.006545551 0.0031100658 3.8083647e-05)
(-0.0092251163 0.0035809315 4.812347e-05)
(-0.012189994 0.0039234374 5.569092e-05)
(-0.015352986 0.0041461886 6.040433e-05)
(-0.018631054 0.0042595938 6.2006977e-05)
(-0.021946079 0.0042728175 6.0325936e-05)
(-0.025224257 0.0041924774 5.524345e-05)
(-0.028394924 0.0040224713 4.6683247e-05)
(-0.031389392 0.0037645251 3.4610226e-05)
(-0.034140222 0.0034191713 1.9040507e-05)
(-0.036581145 0.0029869407 5.8581896e-08)
(-0.038647754 0.0024696069 -2.2161764e-05)
(-0.040278948 0.0018713601 -4.7336096e-05)
(-0.041419058 0.0011998089 -7.5050848e-05)
(-0.042020507 0.00046672988 -0.00010475106)
(-0.042046772 -0.00031150041 -0.00013573885)
(-0.041475477 -0.0011138117 -0.00016717914)
(-0.040301323 -0.0019148754 -0.00019812496)
(-0.038538563 -0.002685861 -0.00022755321)
(-0.036222759 -0.0033956783 -0.00025441555)
(-0.033411585 -0.00401261 -0.00027770113)
(-0.03018443 -0.0045062521 -0.00029650714)
(-0.026640648 -0.0048496382 -0.00031011107)
(-0.022896387 -0.005021386 -0.00031803762)
(-0.019080026 -0.0050076844 -0.00032011318)
(-0.015326331 -0.0048039543 -0.00031650186)
(-0.011769568 -0.0044160742 -0.0003077188)
(-0.0085358331 -0.0038611661 -0.00029461796)
(-0.0057348856 -0.0031680997 -0.00027835418)
(-0.0034517146 -0.0023781053 -0.00026032275)
(-0.0017379866 -0.0015461835 -0.00024207872)
(-0.0006036788 -0.00074419532 -0.00022523008)
(-8.0248395e-06 -6.637283e-05 -0.00021136842)
(0.00015540764 0.00036039271 -0.00020218442)
(7.3547402e-05 0.00035438186 -0.00018527193)
(-6.4680353e-05 5.0438785e-05 -3.8655386e-05)
(-0.00060837044 0.0010457839 -2.6114775e-05)
(-0.0019305249 0.0023817594 -1.2133416e-05)
(-0.0039464248 0.0037565374 1.1595031e-06)
(-0.0065890047 0.0050153279 1.3747863e-05)
(-0.0097791941 0.0060800735 2.4872223e-05)
(-0.013417126 0.0069205291 3.3995346e-05)
(-0.017395532 0.0075341184 4.0781987e-05)
(-0.021607744 0.0079313998 4.4996234e-05)
(-0.025950708 0.0081270428 4.6466229e-05)
(-0.030325866 0.0081347704 4.5061153e-05)
(-0.034638817 0.0079650034 4.067467e-05)
(-0.038798385 0.0076243763 3.321973e-05)
(-0.042715707 0.0071165091 2.2634081e-05)
(-0.046303775 0.0064435542 8.8940876e-06)
(-0.049477694 0.0056081445 -7.9657291e-06)
(-0.052155751 0.0046154494 -2.7830068e-05)
(-0.054261314 0.0034751124 -5.0479929e-05)
(-0.055725443 0.0022028903 -7.5572316e-05)
(-0.056490045 0.00082185262 -0.00010262593)
(-0.056511344 -0.00063696937 -0.00013101609)
(-0.055763446 -0.0021345972 -0.00015997771)
(-0.05424167 -0.0036248156 -0.00018862881)
(-0.051965321 -0.0050556203 -0.00021600253)
(-0.048979668 -0.0063713919 -0.00024109603)
(-0.045356813 -0.0075157183 -0.00026293171)
(-0.041195193 -0.0084347303 -0.00028062706)
(-0.036617534 -0.0090807545 -0.00029346731)
(-0.031767143 -0.0094160297 -0.00030097342)
(-0.026802523 -0.0094161996 -0.00030295695)
(-0.021890423 -0.0090733011 -0.00029955459)
(-0.017197571 -0.0083980412 -0.00029123782)
(-0.01288138 -0.0074213029 -0.00027879586)
(-0.009080047 -0.0061950303 -0.00026329223)
(-0.0059024827 -0.0047929318 -0.00024599712)
(-0.0034185072 -0.0033118094 -0.00022830179)
(-0.001649539 -0.0018745261 -0.00021163203)
(-0.0005597963 -0.00063471049 -0.00019737814)
(-5.0108428e-05 0.00021499595 -0.00018677485)
(3.8095752e-05 0.00041383273 -0.00016796903)
(-0.00013086375 0.00044557142 -5.8171517e-05)
(-0.000970945 0.0022427044 -4.1104663e-05)
(-0.0028462044 0.0043592008 -2.4222263e-05)
(-0.0055648041 0.0064572277 -9.7899262e-06)
(-0.0090094326 0.0083534868 3.1286668e-06)
(-0.013075452 0.0099514607 1.4108736e-05)
(-0.017642272 0.011211755 2.2887291e-05)
(-0.022584674 0.012129589 2.9359526e-05)
(-0.027779628 0.012717529 3.344829e-05)
(-0.033108109 0.01299415 3.5080763e-05)
(-0.038455491 0.012977369 3.417964e-05)
(-0.043711125 0.012681217 3.0656483e-05)
(-0.048767517 0.012115132 2.441439e-05)
(-0.053519629 0.01128499 1.5359845e-05)
(-0.057864697 0.010195262 3.4215234e-06)
(-0.061702792 0.008851743 -1.1426034e-05)
(-0.064938226 0.007264441 -2.9136158e-05)
(-0.067481792 0.0054502927 -4.9563627e-05)
(-0.069253701 0.0034354366 -7.2440737e-05)
(-0.070187074 0.0012568449 -9.7358875e-05)
(-0.070231726 -0.0010368503 -0.00012375877)
(-0.069358016 -0.0033854757 -0.000150932)
(-0.067560462 -0.0057183975 -0.0001780377)
(-0.064860799 -0.0079566882 -0.00020413426)
(-0.061310202 -0.010016304 -0.00022822715)
(-0.056990369 -0.011812189 -0.00024933046)
(-0.052013156 -0.01326314 -0.0002665383)
(-0.04651856 -0.014297147 -0.00027910036)
(-0.040670847 -0.014856895 -0.00028649382)
(-0.034652765 -0.014905001 -0.0002884825)
(-0.028657902 -0.014428607 -0.0002851542)
(-0.022881413 -0.013442963 -0.00027692986)
(-0.017509484 -0.011993823 -0.00026454252)
(-0.012708052 -0.010158722 -0.00024898805)
(-0.0086114593 -0.0080475082 -0.00023145025)
(-0.0053117545 -0.0058029617 -0.00021321149)
(-0.0028485273 -0.0036024693 -0.00019558731)
(-0.0012000384 -0.0016605395 -0.00017984158)
(-0.0002888067 -0.0002337808 -0.00016669591)
(-2.4690252e-06 0.00035046399 -0.00014546461)
(-0.00019286418 0.0010313101 -7.6651672e-05)
(-0.0013239839 0.0038925419 -5.4746141e-05)
(-0.0037518527 0.0069680098 -3.4541399e-05)
(-0.0071732944 0.0099108297 -1.8447971e-05)
(-0.011414802 0.012527408 -4.6523073e-06)
(-0.016341478 0.014714513 6.7104396e-06)
(-0.021809615 0.016430509 1.5627325e-05)
(-0.027675875 0.017672025 2.2212947e-05)
(-0.033802394 0.018455253 2.6545763e-05)
(-0.040056846 0.018803218 2.8652499e-05)
(-0.046311836 0.018738082 2.8510407e-05)
(-0.052444059 0.018277411 2.6048535e-05)
(-0.058333354 0.017433439 2.1157299e-05)
(-0.063862061 0.016214497 1.3706497e-05)
(-0.068914992 0.014627826 3.5695881e-06)
(-0.073380202 0.012683111 -9.3475881e-06)
(-0.077150613 0.010396211 -2.5075612e-05)
(-0.080126453 0.007792638 -4.3550099e-05)
(-0.082218393 0.0049104454 -6.4582731e-05)
(-0.083351221 0.001802282 -8.7837616e-05)
(-0.083467825 -0.0014636077 -0.00011281623)
(-0.082533265 -0.0048035784 -0.0001388547)
(-0.080538655 -0.008120048 -0.0001651354)
(-0.077504586 -0.011304338 -0.00019071694)
(-0.073483763 -0.014240834 -0.00021458131)
(-0.068562535 -0.016812392 -0.0002356973)
(-0.062861009 -0.01890678 -0.00025309564)
(-0.056531403 -0.020423858 -0.00026594973)
(-0.049754415 -0.021283052 -0.00027365369)
(-0.042733396 -0.021430617 -0.00027588842)
(-0.035686353 -0.020846127 -0.00027266569)
(-0.028835915 -0.019547673 -0.00026434153)
(-0.022397712 -0.017595386 -0.00025159511)
(-0.016567763 -0.015093164 -0.00023537463)
(-0.011509862 -0.012188863 -0.00021681402)
(-0.007343893 -0.0090736786 -0.00019713886)
(-0.004134537 -0.0059816745 -0.00017762533)
(-0.001881603 -0.0031890345 -0.00015950923)
(-0.00053619361 -0.0010143205 -0.00014311602)
(-4.1244823e-05 0.00015894836 -0.00011902602)
(-0.00025011632 0.0017985732 -9.2138359e-05)
(-0.0016597714 0.0059841471 -6.5246577e-05)
(-0.0046244536 0.010198625 -4.1560238e-05)
(-0.0087321662 0.014107029 -2.3505504e-05)
(-0.013751601 0.017522345 -8.4672455e-06)
(-0.019515076 0.020347126 3.6716288e-06)
(-0.025854141 0.022545931 1.3122942e-05)
(-0.032607006 0.024122009 2.0202773e-05)
(-0.039621879 0.025098114 2.5133341e-05)
(-0.046755008 0.025503183 2.8032904e-05)
(-0.053868797 0.025364233 2.892706e-05)
(-0.060830245 0.024702541 2.7756537e-05)
(-0.067509638 0.023533177 2.4392784e-05)
(-0.073779765 0.021866982 1.8661742e-05)
(-0.079515877 0.019714126 1.0373573e-05)
(-0.084596502 0.017088493 -6.4326128e-07)
(-0.088905129 0.014012236 -1.4505233e-05)
(-0.092332704 0.010520011 -3.1236481e-05)
(-0.094780823 0.0066624819 -5.0733686e-05)
(-0.096165469 0.002508806 -7.2736159e-05)
(-0.096421124 -0.0018521457 -9.6804614e-05)
(-0.095505034 -0.0063119937 -0.0001223131)
(-0.093401437 -0.010744589 -0.00014845509)
(-0.090125483 -0.015009424 -0.0001742707)
(-0.085726505 -0.018956672 -0.00019869258)
(-0.080290341 -0.022433829 -0.00022061136)
(-0.073940285 -0.025293751 -0.00023895608)
(-0.066836246 -0.02740377 -0.00025278255)
(-0.059171759 -0.028655374 -0.00026136038)
(-0.051168506 -0.028973823 -0.00026424869)
(-0.043068241 -0.028326933 -0.0002613499)
(-0.035122191 -0.02673229 -0.00025293192)
(-0.02757834 -0.024262246 -0.00023961254)
(-0.020667352 -0.021046301 -0.0002223049)
(-0.014588353 -0.017270897 -0.00020212621)
(-0.0094958155 -0.013177228 -0.00018029638)
(-0.0054864857 -0.0090579342 -0.00015811998)
(-0.0025879537 -0.005252218 -0.00013688838)
(-0.00078447142 -0.0021405331 -0.00011660543)
(-7.6874336e-05 -0.00016053774 -8.9402463e-05)
(-0.0003029562 0.0027365314 -0.00010296191)
(-0.0019754985 0.0084981095 -7.0989434e-05)
(-0.0054521402 0.014028587 -4.3841672e-05)
(-0.010217971 0.019021403 -2.3697116e-05)
(-0.015985179 0.02331111 -7.2019711e-06)
(-0.022552797 0.026818211 5.9868943e-06)
(-0.029727183 0.029522445 1.6284105e-05)
(-0.037328207 0.031439792 2.4187545e-05)
(-0.045190985 0.032603417 3.0047291e-05)
(-0.053161892 0.033050386 3.406024e-05)
(-0.061095249 0.032813705 3.6289489e-05)
(-0.06885086 0.031918835 3.6677837e-05)
(-0.076292141 0.030383794 3.5068723e-05)
(-0.083284991 0.028221868 3.1235263e-05)
(-0.089697551 0.025446025 2.4915132e-05)
(-0.095400892 0.022074175 1.5849902e-05)
(-0.10027057 0.018134573 3.8274391e-06)
(-0.10418904 0.013670805 -1.1274593e-05)
(-0.10704872 0.0087459307 -2.9446759e-05)
(-0.10875573 0.0034454468 -5.051063e-05)
(-0.10923405 -0.0021211654 -7.4090212e-05)
(-0.10842999 -0.0078205213 -9.9597638e-05)
(-0.10631684 -0.01349715 -0.00012623226)
(-0.10289945 -0.018977286 -0.00015300431)
(-0.098218429 -0.024074607 -0.00017877806)
(-0.092353559 -0.028597967 -0.00020233831)
(-0.085426034 -0.032360989 -0.00022247607)
(-0.077598901 -0.035193198 -0.00023808626)
(-0.069075172 -0.036952161 -0.00024826738)
(-0.060093126 -0.037535849 -0.00025241091)
(-0.050918476 -0.03689426 -0.00025026879)
(-0.041833356 -0.035039224 -0.00024198835)
(-0.033122481 -0.03205139 -0.00022810752)
(-0.025057302 -0.02808365 -0.00020950579)
(-0.017879655 -0.023360676 -0.00018730893)
(-0.011786482 -0.018174996 -0.00016277897)
(-0.0069140659 -0.0128804 -0.00013731492)
(-0.003323836 -0.0078822651 -0.00011234314)
(-0.0010368632 -0.0036261492 -8.7635543e-05)
(-0.00011093569 -0.00060701923 -5.7197975e-05)
(-0.00035169335 0.0038338235 -0.00010765873)
(-0.0022696858 0.011410367 -7.0500579e-05)
(-0.0062274783 0.018427309 -4.002277e-05)
(-0.011614747 0.024619967 -1.7772458e-05)
(-0.018090315 0.029857571 2.9135223e-07)
(-0.02542102 0.034089889 1.4720573e-05)
(-0.033388714 0.037320724 2.6114756e-05)
(-0.04179567 0.039585257 3.5134747e-05)
(-0.050464967 0.04093145 4.2241572e-05)
(-0.059234588 0.041407244 4.7695996e-05)
(-0.067952672 0.041053189 5.1585638e-05)
(-0.076474038 0.039899671 5.3843822e-05)
(-0.084657595 0.037967845 5.4275328e-05)
(-0.092364712 0.035273274 5.2590124e-05)
(-0.099458589 0.031831292 4.8442925e-05)
(-0.10580462 0.027663185 4.1477434e-05)
(-0.11127169 0.022802465 3.137413e-05)
(-0.11573423 0.017300631 1.7899925e-05)
(-0.11907517 0.011231987 9.5724111e-07)
(-0.12118942 0.0046971955 -1.9370625e-05)
(-0.12198809 -0.0021747108 -4.2782173e-05)
(-0.12140313 -0.0092260699 -6.8735977e-05)
(-0.11939248 -0.016272196 -9.6439989e-05)
(-0.11594549 -0.02310529 -0.00012487078)
(-0.11108823 -0.02950058 -0.00015281184)
(-0.10488841 -0.03522494 -0.0001789195)
(-0.097459312 -0.040047914 -0.00020181254)
(-0.088962027 -0.043754927 -0.00022017959)
(-0.079605255 -0.046162121 -0.00023289411)
(-0.069641892 -0.04713196 -0.000239123)
(-0.05936187 -0.046588358 -0.00023841416)
(-0.049080955 -0.044529873 -0.00023074991)
(-0.03912575 -0.041039502 -0.00021655807)
(-0.02981574 -0.036289765 -0.00019667413)
(-0.021444143 -0.030542382 -0.00017224689)
(-0.014259512 -0.024142636 -0.0001446216)
(-0.0084461228 -0.017509197 -0.00011535588)
(-0.0041057538 -0.011119105 -8.6089923e-05)
(-0.0013000783 -0.0054896949 -5.6430329e-05)
(-0.00014466049 -0.0011817411 -2.2480307e-05)
(-0.00039639257 0.0050786771 -0.00010490965)
(-0.0025408052 0.014693494 -6.242743e-05)
(-0.0069442136 0.023357988 -2.8821415e-05)
(-0.012909247 0.030860821 -4.5200573e-06)
(-0.020045657 0.037117362 1.5159498e-05)
(-0.028090311 0.042116919 3.0966593e-05)
(-0.036802155 0.045895799 4.3671421e-05)
(-0.045967205 0.048514829 5.4080828e-05)
(-0.055397845 0.050041373 6.2750682e-05)
(-0.064925214 0.050537315 6.9990958e-05)
(-0.074393074 0.050052604 7.5900594e-05)
(-0.083653296 0.048623493 8.0391517e-05)
(-0.092562456 0.046274541 8.3218764e-05)
(-0.10097956 0.043023323 8.4018226e-05)
(-0.10876487 0.038886829 8.235016e-05)
(-0.11577978 0.033888627 7.7747731e-05)
(-0.12188764 0.028066015 6.9769745e-05)
(-0.1269554 0.021476601 5.8056192e-05)
(-0.13085612 0.01420388 4.2384414e-05)
(-0.13347227 0.0063614904 2.2723243e-05)
(-0.13469977 -0.0019040841 -7.1959885e-07)
(-0.13445283 -0.010412654 -2.746852e-05)
(-0.1326696 -0.01895138 -5.6751506e-05)
(-0.12931856 -0.027278407 -8.7517183e-05)
(-0.12440509 -0.035129037 -0.00011846351)
(-0.11797827 -0.042224888 -0.0001481009)
(-0.11013685 -0.048286163 -0.00017484413)
(-0.10103395 -0.0530469 -0.00019712849)
(-0.090879079 -0.056272753 -0.00021354142)
(-0.079936766 -0.05778034 -0.00022295521)
(-0.068520637 -0.057456695 -0.00022464275)
(-0.056982438 -0.055276921 -0.00021835894)
(-0.045695959 -0.051317902 -0.00020437541)
(-0.035036656 -0.045766102 -0.00018345961)
(-0.025358973 -0.038918059 -0.00015678597)
(-0.016973703 -0.03117332 -0.00012581481)
(-0.010123131 -0.02302049 -9.2323066e-05)
(-0.0049573036 -0.015016289 -5.8244342e-05)
(-0.0015839102 -0.0077601719 -2.3072251e-05)
(-0.00018000399 -0.0018919997 1.479061e-05)
(-0.00043687324 0.0064585715 -9.3512185e-05)
(-0.0027868522 0.018316909 -4.5531188e-05)
(-0.0075959 0.028778334 -9.0469797e-06)
(-0.01408864 0.037694922 1.7206687e-05)
(-0.021830807 0.045038228 3.8510267e-05)
(-0.030532268 0.050846291 5.5802434e-05)
(-0.039931317 0.05519571 7.0012403e-05)
(-0.049799509 0.058179136 8.207818e-05)
(-0.059940134 0.05988794 9.2636122e-05)
(-0.070179117 0.060401165 0.00010203218)
(-0.080357621 0.05978021 0.00011036452)
(-0.090326507 0.058068293 0.00011751261)
(-0.09994208 0.055293699 0.00012317124)
(-0.10906305 0.051475681 0.00012689151)
(-0.11754872 0.046631961 0.00012812733)
(-0.12525817 0.040786897 0.00012628726)
(-0.13205051 0.03397955 0.00012079151)
(-0.1377859 0.026271128 0.00011113291)
(-0.14232754 0.017751398 9.6940145e-05)
(-0.14554452 0.0085438149 7.8041019e-05)
(-0.14731572 -0.0011908563 5.4521396e-05)
(-0.14753462 -0.011252633 2.675895e-05)
(-0.14611544 -0.021402753 -4.5158834e-06)
(-0.14300051 -0.031366234 -3.8242164e-05)
(-0.13816826 -0.040837692 -7.3038167e-05)
(-0.13164197 -0.049490601 -0.00010725842)
(-0.12349841 -0.056990433 -0.00013908531)
(-0.11387531 -0.063011808 -0.00016665265)
(-0.10297655 -0.067259348 -0.00018819439)
(-0.091073519 -0.06949129 -0.00020220489)
(-0.078501389 -0.069544194 -0.000207591)
(-0.065648988 -0.067356342 -0.00020379346)
(-0.052942016 -0.062986917 -0.0001908579)
(-0.040820059 -0.056628017 -0.00016944025)
(-0.029709663 -0.048607167 -0.00014072852)
(-0.019996219 -0.039379409 -0.00010631939)
(-0.011992172 -0.029509504 -6.8265254e-05)
(-0.0059060258 -0.019644351 -2.8873943e-05)
(-0.0018995943 -0.010479296 1.2434779e-05)
(-0.00021911032 -0.0027504908 5.4770968e-05)
(-0.00047276071 0.0079598551 -7.2375559e-05)
(-0.0030053068 0.02224667 -1.8690115e-05)
(-0.0081754819 0.034640718 2.0386676e-05)
(-0.015139638 0.045066397 4.8467052e-05)
(-0.023425073 0.053560174 7.1381929e-05)
(-0.032718088 0.060216913 9.0252405e-05)
(-0.042738978 0.065160525 0.00010615671)
(-0.053246923 0.068521237 0.00012015111)
(-0.06403788 0.070418887 0.00013294032)
(-0.07493424 0.070952925 0.0001448953)
(-0.085776311 0.070198364 0.00015610351)
(-0.096415826 0.068206618 0.00016640278)
(-0.10671081 0.065010091 0.00017541867)
(-0.11652174 0.060629353 0.00018260779)
(-0.12570895 0.055081785 0.00018730614)
(-0.1341311 0.048390755 0.00018878304)
(-0.14164462 0.040594631 0.00018630106)
(-0.14810402 0.031755111 0.0001791818)
(-0.15336319 0.021964579 0.00016687587)
(-0.15727766 0.01135226 0.0001490342)
(-0.15970803 8.9012949e-05 0.00012557721)
(-0.16052492 -0.011609441 9.6765619e-05)
(-0.15961529 -0.023481692 6.3228412e-05)
(-0.15689041 -0.035221786 2.6008165e-05)
(-0.15229557 -0.046484024 -1.3452887e-05)
(-0.14582083 -0.056891696 -5.3355337e-05)
(-0.13751249 -0.06605054 -9.1627914e-05)
(-0.12748404 -0.073567428 -0.00012605576)
(-0.11592514 -0.079074257 -0.00015444597)
(-0.10310687 -0.082256241 -0.00017481833)
(-0.089381226 -0.082882844 -0.00018560114)
(-0.075173047 -0.080838454 -0.00018580524)
(-0.060963179 -0.076149012 -0.00017514827)
(-0.047263093 -0.069000362 -0.00015410206)
(-0.034583092 -0.059744613 -0.00012383431)
(-0.023397397 -0.048892507 -8.6086024e-05)
(-0.014103445 -0.037091898 -4.323633e-05)
(-0.0069814337 -0.025092622 1.9491366e-06)
(-0.0022590067 -0.013702947 5.0096661e-05)
(-0.00026414613 -0.0037760395 9.7651209e-05)
(-0.00050355112 0.0095674436 -4.0530053e-05)
(-0.003193276 0.026445193 1.9088171e-05)
(-0.008675405 0.040892107 6.0443832e-05)
(-0.016048495 0.052912595 9.0209226e-05)
(-0.024807365 0.062615427 0.00011471297)
(-0.034618419 0.070159232 0.00013525144)
(-0.045186794 0.075721415 0.0001530427)
(-0.056261502 0.079475015 0.00016924997)
(-0.067632971 0.081572556 0.00018463662)
(-0.079121713 0.082137101 0.00019959047)
(-0.090568872 0.081259524 0.0002141813)
(-0.10182886 0.079000778 0.00022819894)
(-0.11276336 0.075397896 0.00024119314)
(-0.1232367 0.070472453 0.00025251825)
(-0.13311239 0.064240362 0.00026138204)
(-0.14225078 0.056722074 0.0002669002)
(-0.15050761 0.047952514 0.00026815771)
(-0.15773347 0.03799034 0.00026427804)
(-0.16377429 0.026926308 0.00025449913)
(-0.16847278 0.014890607 0.00023825381)
(-0.17167133 0.0020590321 0.00021525188)
(-0.17321661 -0.011342257 0.00018556935)
(-0.17296594 -0.025033765 0.00014969416)
(-0.17079572 -0.038682245 0.00010859715)
(-0.16661244 -0.051903617 6.3741119e-05)
(-0.1603655 -0.064270379 1.7059509e-05)
(-0.15206157 -0.075324609 -2.9115352e-05)
(-0.14177939 -0.084597523 -7.2179307e-05)
(-0.12968349 -0.091636042 -0.00010943652)
(-0.11603436 -0.096035944 -0.0001383228)
(-0.10119274 -0.097479895 -0.00015665228)
(-0.08561508 -0.095777108 -0.00016285749)
(-0.069838048 -0.090899837 -0.00015618625)
(-0.054451424 -0.083010929 -0.00013681321)
(-0.040061186 -0.072476744 -0.00010581888)
(-0.027246487 -0.059861712 -6.5075618e-05)
(-0.016507705 -0.045903616 -1.733418e-05)
(-0.008213771 -0.031469867 3.4093541e-05)
(-0.0026743204 -0.017501843 8.9859413e-05)
(-0.00031729598 -0.0049938553 0.00014357479)
(-0.00052868084 0.011264649 2.8545316e-06)
(-0.003347739 0.030871107 6.864819e-05)
(-0.0090880526 0.047474057 0.00011194606)
(-0.016801585 0.061164151 0.0001432449)
(-0.025956888 0.072128404 0.00016931108)
(-0.03620418 0.080594917 0.00019160797)
(-0.047236293 0.086799869 0.00021148466)
(-0.058794243 0.090963774 0.00023020155)
(-0.070664655 0.093275773 0.0002485734)
(-0.082667721 0.093885675 0.00026699999)
(-0.094646996 0.092902531 0.00028552993)
(-0.10646127 0.090398327 0.00030390227)
(-0.11797782 0.086415383 0.00032158782)
(-0.1290669 0.080976109 0.00033783377)
(-0.13959748 0.074093918 0.00035171158)
(-0.14943402 0.065784416 0.00036217036)
(-0.15843404 0.056076246 0.00036809792)
(-0.1664467 0.045021277 0.00036839148)
(-0.17331224 0.032704009 0.00036203833)
(-0.17886253 0.019250187 0.00034820532)
(-0.18292318 0.004834536 0.00032633495)
(-0.18531738 -0.010312571 0.00029624687)
(-0.18587199 -0.025899808 0.00025822276)
(-0.18442619 -0.041572074 0.00021309081)
(-0.18084315 -0.056910852 0.00016227267)
(-0.17502466 -0.07143935 0.00010779229)
(-0.16692828 -0.084633988 5.2228463e-05)
(-0.15658627 -0.095943792 -1.4005945e-06)
(-0.14412461 -0.10481883 -4.9825127e-05)
(-0.12977948 -0.11074796 -8.9778955e-05)
(-0.113908 -0.11330452 -0.00011830341)
(-0.096989368 -0.11219671 -0.00013306766)
(-0.079612825 -0.10731675 -0.00013266049)
(-0.062450283 -0.09878133 -0.00011679425)
(-0.046214682 -0.086954994 -8.6347707e-05)
(-0.031607747 -0.072449908 -4.327862e-05)
(-0.019254153 -0.056099262 9.2584329e-06)
(-0.0096331384 -0.038903927 6.7311105e-05)
(-0.0031578294 -0.021961654 0.00013153885)
(-0.00038078511 -0.0064355927 0.00019256341)
(-0.00054759926 0.013033168 5.8445623e-05)
(-0.003465858 0.035479376 0.00013066506)
(-0.0094063971 0.054322974 0.00017555002)
(-0.017386395 0.069745293 0.00020822377)
(-0.026854434 0.082015898 0.00023582261)
(-0.037448152 0.09143676 0.00025996718)
(-0.048850774 0.098307154 0.00028212898)
(-0.060797324 0.10289913 0.00030365741)
(-0.073072179 0.10544208 0.00032541417)
(-0.085496592 0.10611562 0.00034780951)
(-0.097917949 0.10504936 0.00037087138)
(-0.110201 0.10232799 0.00039428944)
(-0.12222042 0.098000036 0.00041745662)
(-0.13385451 0.092088792 0.00043951206)
(-0.14498015 0.084604375 0.00045938632)
(-0.15546858 0.075555811 0.00047585177)
(-0.16518214 0.064962756 0.00048758138)
(-0.17397175 0.05286657 0.00049321884)
(-0.1816753 0.039340761 0.00049146196)
(-0.18811716 0.024500893 0.00048115953)
(-0.19310912 0.0085140094 0.00046142079)
(-0.19645328 -0.008392567 0.00043173442)
(-0.19794729 -0.025923369 0.00039208588)
(-0.19739265 -0.043708871 0.00034307046)
(-0.1946065 -0.061302524 0.00028598179)
(-0.18943731 -0.07818257 0.00022286163)
(-0.18178454 -0.093760681 0.00015649025)
(-0.17162149 -0.10739972 9.0297581e-05)
(-0.15902009 -0.11844268 2.8180684e-05)
(-0.14417482 -0.12625405 -2.5775985e-05)
(-0.12742191 -0.13027328 -6.7664234e-05)
(-0.1092488 -0.1300771 -9.4166651e-05)
(-0.090288549 -0.12544458 -0.0001029688)
(-0.071294715 -0.11641496 -9.3090462e-05)
(-0.053096439 -0.10332684 -6.5030044e-05)
(-0.036536438 -0.086827872 -2.0734449e-05)
(-0.022388442 -0.067848918 3.6230117e-05)
(-0.011268763 -0.04754043 0.00010117412)
(-0.0037218435 -0.027182722 0.00017474499)
(-0.00045691159 -0.0081393817 0.0002444395)
(-0.00055984455 0.014853263 0.00012672348)
(-0.0035453377 0.040221778 0.00020562314)
(-0.0096248087 0.061370782 0.00025172659)
(-0.017792803 0.078574533 0.00028561001)
(-0.027484127 0.092187648 0.00031470441)
(-0.038327159 0.10258896 0.0003407763)
(-0.049997929 0.11014418 0.00036541155)
(-0.062227202 0.11518037 0.0003900423)
(-0.074798409 0.11797049 0.00041557586)
(-0.087535022 0.11872695 0.00044243544)
(-0.10028947 0.11760247 0.00047063316)
(-0.11293389 0.11469633 0.00049981531)
(-0.12535206 0.11006442 0.00052930271)
(-0.13743243 0.10373139 0.00055813042)
(-0.14906227 0.095703602 0.00058508827)
(-0.16012262 0.08598217 0.00060876613)
(-0.17048407 0.074575418 0.00062760824)
(-0.18000324 0.061510788 0.00063998058)
(-0.18852004 0.046846253 0.00064425449)
(-0.19585597 0.030681469 0.00063890873)
(-0.20181373 0.013168866 0.00062265032)
(-0.20617875 -0.0054753462 0.00059455242)
(-0.2087231 -0.024960524 0.00055420257)
(-0.20921262 -0.044912161 0.00050185169)
(-0.20741816 -0.064864858 0.00043855059)
(-0.20313139 -0.084259655 0.00036625209)
(-0.19618606 -0.1024483 0.00028785441)
(-0.18648429 -0.11870744 0.00020715762)
(-0.17402711 -0.13226603 0.0001287062)
(-0.15894668 -0.14234853 5.7500849e-05)
(-0.14153585 -0.14823509 -1.4188882e-06)
(-0.12226912 -0.14933666 -4.3492633e-05)
(-0.1018073 -0.14527869 -6.5198788e-05)
(-0.080978726 -0.13598182 -6.455571e-05)
(-0.060733907 -0.12172372 -4.1418679e-05)
(-0.042074316 -0.1031659 2.4446812e-06)
(-0.02595048 -0.081333242 6.3091405e-05)
(-0.013148242 -0.057540538 0.00013500444)
(-0.0043785978 -0.033279404 0.00021879664)
(-0.00054808343 -0.010149842 0.00029873942)
(-0.00056512258 0.016704137 0.00020795896)
(-0.0035848217 0.045047816 0.00029379822)
(-0.0097399823 0.068546105 0.00034074421)
(-0.018014596 0.087565907 0.00037566341)
(-0.027835515 0.10254743 0.00040620026)
(-0.038824727 0.1139479 0.00043425437)
(-0.050653065 0.12220188 0.00046151894)
(-0.063048417 0.12769431 0.00048950527)
(-0.075794275 0.1307448 0.00051916877)
(-0.088717242 0.13160156 0.00055095255)
(-0.1016758 0.13044303 0.00058486253)
(-0.11455071 0.12738527 0.00062051256)
(-0.12723646 0.12249313 0.00065716222)
(-0.13963366 0.11579342 0.00069375176)
(-0.15164252 0.10728888 0.00072893603)
(-0.16315701 0.096971902 0.00076112249)
(-0.17405977 0.084837733 0.00078851864)
(-0.18421763 0.070897086 0.00080919407)
(-0.19347778 0.055188374 0.00082116174)
(-0.20166471 0.037789981 0.00082248225)
(-0.20857841 0.018832872 0.00081139339)
(-0.21399413 -0.0014862891 0.00078646516)
(-0.21766446 -0.022891662 0.00074677785)
(-0.2193246 -0.045015034 0.00069210948)
(-0.21870194 -0.067384155 0.00062312673)
(-0.21553096 -0.089414513 0.0005415501)
(-0.20957472 -0.11040753 0.00045026668)
(-0.20065358 -0.12955896 0.00035335365)
(-0.1886808 -0.14598189 0.00025597232)
(-0.17370326 -0.15874899 0.00016409761)
(-0.15594313 -0.16695712 8.4065652e-05)
(-0.13583341 -0.1698146 2.1953948e-05)
(-0.11403768 -0.16674579 -1.7148439e-05)
(-0.091443308 -0.15750014 -2.9860376e-05)
(-0.069120481 -0.14224565 -1.5024752e-05)
(-0.04824434 -0.1216226 2.6038905e-05)
(-0.029971804 -0.096736576 8.9114497e-05)
(-0.015296622 -0.069077572 0.00016778994)
(-0.0051401278 -0.04037899 0.00026262125)
(-0.00065685518 -0.01251807 0.00035461173)
(-0.0005633882 0.018564536 0.00030219689)
(-0.0035843181 0.049906102 0.00039524629)
(-0.0097519587 0.075776054 0.00044265967)
(-0.018051163 0.096630836 0.00047842829)
(-0.027905938 0.11299475 0.000510325)
(-0.038934098 0.12540358 0.00054036917)
(-0.050802753 0.13436221 0.00057035629)
(-0.063237894 0.14031587 0.00060187705)
(-0.076023792 0.14363374 0.00063594221)
(-0.088990874 0.14460281 0.00067302683)
(-0.10200451 0.1434301 0.00071314552)
(-0.11495519 0.14025091 0.00075589586)
(-0.12774955 0.13514103 0.00080049229)
(-0.14030233 0.12813082 0.0008457948)
(-0.15252914 0.11922005 0.00089033491)
(-0.16434008 0.10839231 0.00093234435)