/*--------------------------------*- C++ -*----------------------------------*\
  =========                 |
  \\      /  F ield         | OpenFOAM: The Open Source CFD Toolbox
   \\    /   O peration     | Website:  https://openfoam.org
    \\  /    A nd           | Version:  7
     \\/     M anipulation  |
\*---------------------------------------------------------------------------*/
FoamFile
{
    version     2.0;
    format      ascii;
    class       volScalarField;
    location    "8.9";
    object      p;
}
// * * * * * * * * * * * * * * * * * * * * * * * * * * * * * * * * * * * * * //

dimensions      [1 -1 -2 0 0 0 0];

internalField   nonuniform List<scalar> 
19968
(
1
1
1
1
1
1
1
1
1
1
1
1
1
1
1
1
1
1
1
1
1
1
1
1
1
1
1
1
1
1
1
1
1
1
1
1
1
1
1
1
1
1
1
1
1
1
1
1
1.571
8.07326
10.4195
10.4596
10.5187
10.5757
10.6336
10.6908
10.7479
10.8044
10.8593
10.9114
10.9606
11.0098
11.062
11.1166
11.1692
11.2168
11.2596
11.2995
11.3387
11.3801
11.4249
11.4711
11.5154
11.5551
11.5904
11.6234
11.6568
11.692
11.7285
11.7641
11.7966
11.8248
11.8487
11.869
11.8865
11.9025
11.9182
11.9347
11.9531
11.9732
11.994
12.0139
12.0309
12.0434
12.0514
12.0562
1
1
1
1
1
1
1
1
1
1
1
1
1
1
1
1
1
1
1
1
1
1
1
1
1
1
1
1
1
1
1
1
1
1
1
1
1
1
1
1
1
1
1
1
1
1
1
1
1.53766
8.00328
10.4091
10.456
10.5191
10.5764
10.6341
10.6909
10.7476
10.803
10.857
10.9084
10.9576
11.0071
11.0591
11.1133
11.1654
11.2131
11.2563
11.2965
11.3359
11.3773
11.4217
11.4676
11.5115
11.5512
11.5868
11.6201
11.6535
11.6885
11.7245
11.7596
11.7918
11.8198
11.8436
11.8639
11.8816
11.8978
11.9136
11.9301
11.9481
11.9675
11.9876
12.0068
12.0234
12.0359
12.0439
12.0488
1
1
1
1
1
1
1
1
1
1
1
1
1
1
1
1
1
1
1
1
1
1
1
1
1
1
1
1
1
1
1
1
1
1
1
1
1
1
1
1
1
1
1
1
1
1
1
1
1.46305
7.85025
10.4038
10.448
10.5141
10.571
10.6285
10.6851
10.7415
10.7963
10.8497
10.9009
10.95
11
11.0515
11.1053
11.157
11.205
11.2488
11.2896
11.3293
11.3706
11.4146
11.46
11.5036
11.5435
11.5793
11.6129
11.6464
11.6811
11.7166
11.7513
11.783
11.8106
11.8343
11.8546
11.8727
11.8894
11.9057
11.9223
11.9399
11.9586
11.9778
11.9963
12.0125
12.0249
12.033
12.0382
1
1
1
1
1
1
1
1
1
1
1
1
1
1
1
1
1
1
1
1
1
1
1
1
1
1
1
1
1
1
1
1
1
1
1
1
1
1
1
1
1
1
1
1
1
1
1
1
1.36077
7.60579
10.3961
10.443
10.5078
10.564
10.6208
10.6768
10.7325
10.7866
10.8396
10.8908
10.94
10.9904
11.0414
11.0947
11.1459
11.1943
11.2387
11.28
11.3198
11.3608
11.4043
11.4491
11.4925
11.5323
11.5685
11.6023
11.6357
11.67
11.7051
11.7392
11.7702
11.7972
11.8203
11.8402
11.8582
11.875
11.8916
11.9082
11.9253
11.9431
11.9613
11.979
11.9948
12.0072
12.0156
12.0213
1
1
1
1
1
1
1
1
1
1
1
1
1
1
1
1
1
1
1
1
1
1
1
1
1
1
1
1
1
1
1
1
1
1
1
1
1
1
1
1
1
1
1
1
1
1
1
1
1.23533
7.27943
10.3882
10.4338
10.4986
10.5553
10.6121
10.6678
10.7227
10.776
10.8281
10.8786
10.9271
10.9773
11.0275
11.0803
11.1314
11.1806
11.2258
11.2676
11.3074
11.3481
11.391
11.4354
11.4785
11.5185
11.5548
11.5887
11.6219
11.6561
11.6909
11.7248
11.7556
11.7821
11.8044
11.8238
11.8415
11.8585
11.8751
11.8915
11.9077
11.9236
11.9396
11.9551
11.9692
11.9805
11.9882
11.9936
1
1
1
1
1
1
1
1
1
1
1
1
1
1
1
1
1
1
1
1
1
1
1
1
1
1
1
1
1
1
1
1
1
1
1
1
1
1
1
1
1
1
1
1
1
1
1
1
1.02637
6.75648
10.3915
10.4376
10.4919
10.5503
10.6059
10.6611
10.7154
10.7682
10.8195
10.869
10.9161
10.965
11.0141
11.0659
11.1165
11.1657
11.2109
11.2523
11.2911
11.3303
11.3719
11.415
11.4571
11.4962
11.5318
11.5649
11.5974
11.6309
11.6654
11.699
11.7295
11.7554
11.777
11.7956
11.813
11.8302
11.8477
11.865
11.8817
11.8974
11.9125
11.9267
11.9394
11.9496
11.9567
11.9615
1
1
1
1
1
1
1
1
1
1
1
1
1
1
1
1
1
1
1
1
1
1
1
1
1
1
1
1
1
1
1
1
1
1
1
1
1
1
1
1
1
1
1
1
1
1
1
1
1.0002
6.02237
10.3042
10.3916
10.4419
10.5067
10.5641
10.6213
10.6766
10.7302
10.782
10.8319
10.8792
10.9286
10.9782
11.0301
11.0806
11.1297
11.1751
11.2163
11.2546
11.2931
11.3339
11.3764
11.4182
11.4572
11.4928
11.5258
11.5583
11.5918
11.6265
11.6605
11.6912
11.7171
11.7382
11.7563
11.7733
11.7907
11.809
11.8274
11.8447
11.8604
11.8746
11.8872
11.898
11.9063
11.912
11.9156
1
1
1
1
1
1
1
1
1
1
1
1
1
1
1
1
1
1
1
1
1
1
1
1
1
1
1
1
1
1
1
1
1
1
1
1
1
1
1
1
1
1
1
1
1
1
1
1
1
5.07662
10.1631
10.3605
10.4104
10.4806
10.5393
10.5971
10.6518
10.7046
10.7558
10.8051
10.8517
10.9001
10.9494
11.0001
11.0498
11.0983
11.1431
11.1837
11.2208
11.2582
11.2976
11.3387
11.379
11.4167
11.4513
11.4837
11.5156
11.5487
11.5831
11.617
11.6476
11.6729
11.6933
11.7105
11.7267
11.7437
11.7621
11.781
11.7988
11.8145
11.8278
11.8388
11.8474
11.8534
11.857
11.8588
1
1
1
1
1
1
1
1
1
1
1
1
1
1
1
1
1
1
1
1
1
1
1
1
1
1
1
1
1
1
1
1
1
1
1
1
1
1
1
1
1
1
1
1
1
1
1
1
1
4.00198
9.86972
10.3214
10.3747
10.4473
10.5073
10.5658
10.6205
10.6732
10.7242
10.7737
10.8205
10.8676
10.9157
10.9644
11.0121
11.0585
11.1016
11.1403
11.1755
11.2109
11.2482
11.2871
11.3249
11.3605
11.3936
11.425
11.4563
11.4892
11.5235
11.5572
11.5873
11.612
11.6315
11.6477
11.6629
11.6792
11.6975
11.7168
11.7355
11.7517
11.765
11.7752
11.7824
11.7863
11.7875
11.788
1
1
1
1
1
1
1
1
1
1
1
1
1
1
1
1
1
1
1
1
1
1
1
1
1
1
1
1
1
1
1
1
1
1
1
1
1
1
1
1
1
1
1
1
1
1
1
1
1
2.88165
9.31589
10.2973
10.3663
10.4342
10.4914
10.5458
10.5965
10.6462
10.695
10.7428
10.7894
10.8349
10.8811
10.9271
10.9726
11.0166
11.0577
11.0946
11.1277
11.161
11.1957
11.2314
11.2655
11.2972
11.3269
11.3557
11.3851
11.4165
11.4497
11.4822
11.5111
11.5349
11.5537
11.5692
11.5838
11.5994
11.617
11.6359
11.6544
11.6704
11.683
11.6918
11.6969
11.6985
11.6976
11.6969
1
1
1
1
1
1
1
1
1
1
1
1
1
1
1
1
1
1
1
1
1
1
1
1
1
1
1
1
1
1
1
1
1
1
1
1
1
1
1
1
1
1
1
1
1
1
1
1
1
1.83423
8.36661
10.3403
10.3341
10.4002
10.4506
10.5032
10.5537
10.6037
10.6526
10.6999
10.7464
10.7911
10.8361
10.881
10.9253
10.9676
11.0066
11.042
11.0739
11.106
11.1389
11.1719
11.2028
11.2308
11.2568
11.2824
11.3092
11.3382
11.3685
11.3978
11.4232
11.4433
11.4587
11.4708
11.4818
11.4937
11.5081
11.5249
11.5426
11.5591
11.5724
11.5813
11.5861
11.587
11.5853
11.5843
1
1
1
1
1
1
1
1
1
1
1
1
1
1
1
1
1
1
1
1
1
1
1
1
1
1
1
1
1
1
1
1
1
1
1
1
1
1
1
1
1
1
1
1
1
1
1
1
1
1.0324
6.71406
10.3539
10.3663
10.4053
10.4466
10.4902
10.5337
10.5769
10.6201
10.6623
10.7046
10.7458
10.786
10.826
10.866
10.9043
10.9396
10.972
11.0008
11.03
11.0603
11.0901
11.1178
11.1418
11.1639
11.186
11.2101
11.2365
11.2644
11.2909
11.3135
11.331
11.344
11.3539
11.3623
11.3713
11.3823
11.3959
11.4102
11.423
11.4321
11.4363
11.4357
11.432
11.4273
11.4243
1
1
1
1
1
1
1
1
1
1
1
1
1
1
1
1
1
1
1
1
1
1
1
1
1
1
1
1
1
1
1
1
1
1
1
1
1
1
1
1
1
1
1
1
1
1
1
1
1
1.00006
4.62315
9.93084
10.2
10.2627
10.3254
10.3797
10.43
10.4764
10.5206
10.5627
10.6033
10.6433
10.6821
10.7205
10.7597
10.7977
10.832
10.8635
10.8916
10.9192
10.9485
10.9774
11.004
11.0263
11.0458
11.0646
11.085
11.1077
11.1318
11.1546
11.1733
11.1866
11.1949
11.1992
11.2006
11.2007
11.2019
11.2064
11.2128
11.22
11.2262
11.2305
11.2309
11.2287
11.2243
11.2216
1
1
1
1
1
1
1
1
1
1
1
1
1
1
1
1
1
1
1
1
1
1
1
1
1
1
1
1
1
1
1
1
1
1
1
1
1
1
1
1
1
1
1
1
1
1
1
1
1
1
2.41192
8.82091
10.1377
10.1894
10.2692
10.3249
10.3748
10.4195
10.4614
10.5013
10.5389
10.5756
10.6113
10.6458
10.6807
10.7154
10.7461
10.7734
10.7977
10.8206
10.8451
10.8705
10.8936
10.9123
10.9268
10.939
10.9513
10.9653
10.9812
10.9968
11.0094
11.0172
11.0199
11.0166
11.0101
11.0028
10.9975
10.9948
10.9938
10.9927
10.9876
10.9771
10.9575
10.9312
10.9023
10.8768
1
1
1
1
1
1
1
1
1
1
1
1
1
1
1
1
1
1
1
1
1
1
1
1
1
1
1
1
1
1
1
1
1
1
1
1
1
1
1
1
1
1
1
1
1
1
1
1
1
1
1.06029
6.43258
10.2161
10.2293
10.2462
10.2815
10.3176
10.3531
10.3869
10.4201
10.4523
10.4838
10.5154
10.5455
10.5748
10.6043
10.631
10.6537
10.6734
10.6907
10.7085
10.7287
10.7487
10.765
10.7758
10.7817
10.7845
10.7872
10.7915
10.7972
10.8017
10.8022
10.7958
10.7819
10.762
10.7388
10.7138
10.6862
10.6538
10.6145
10.5683
10.5187
10.475
10.4361
10.4161
10.4047
1
1
1
1
1
1
1
1
1
1
1
1
1
1
1
1
1
1
1
1
1
1
1
1
1
1
1
1
1
1
1
1
1
1
1
1
1
1
1
1
1
1
1
1
1
1
1
1
1
1
1.00009
3.33798
9.25547
10.0471
10.0845
10.1409
10.1879
10.232
10.2721
10.309
10.3434
10.3758
10.4059
10.4337
10.4596
10.4845
10.5074
10.526
10.5401
10.5503
10.5586
10.5688
10.5822
10.5958
10.6052
10.6068
10.6009
10.5905
10.5788
10.568
10.5578
10.5448
10.525
10.4964
10.4592
10.4153
10.3665
10.3126
10.2518
10.1834
10.1081
10.0306
9.9419
9.86084
9.74991
9.84111
1
1
1
1
1
1
1
1
1
1
1
1
1
1
1
1
1
1
1
1
1
1
1
1
1
1
1
1
1
1
1
1
1
1
1
1
1
1
1
1
1
1
1
1
1
1
1
1
1
1
1
1.23916
7.28087
10.1081
10.0816
10.0959
10.1314
10.1694
10.2066
10.239
10.2664
10.2912
10.3143
10.3365
10.3571
10.3755
10.3925
10.4063
10.4153
10.4196
10.4187
10.4176
10.4208
10.4287
10.4357
10.4345
10.4231
10.4032
10.3772
10.3491
10.321
10.2915
10.2562
10.2114
10.1548
10.0862
10.005
9.90982
9.79289
9.64683
9.4511
9.19269
8.81437
8.26452
7.35054
5.47868
1
1
1
1
1
1
1
1
1
1
1
1
1
1
1
1
1
1
1
1
1
1
1
1
1
1
1
1
1
1
1
1
1
1
1
1
1
1
1
1
1
1
1
1
1
1
1
1
1
1
1
1.00208
4.62706
9.65773
9.93218
9.96628
10.0112
10.0493
10.0859
10.121
10.151
10.1779
10.2027
10.2248
10.244
10.2607
10.2753
10.2879
10.2966
10.2986
10.2946
10.2868
10.2798
10.2777
10.2779
10.2724
10.258
10.2332
10.1983
10.1565
10.1121
10.066
10.015
9.95459
9.87955
9.78796
9.6746
9.53899
9.36735
9.15596
8.8707
8.50695
7.9897
7.33203
6.1209
4.51318
1
1
1
1
1
1
1
1
1
1
1
1
1
1
1
1
1
1
1
1
1
1
1
1
1
1
1
1
1
1
1
1
1
1
1
1
1
1
1
1
1
1
1
1
1
1
1
1
1
1
1
0.999996
1.91529
8.17553
9.94174
9.91878
9.95906
9.99037
10.0183
10.0484
10.074
10.0959
10.116
10.1344
10.1501
10.1635
10.1733
10.1806
10.185
10.1826
10.1757
10.1636
10.1483
10.1351
10.1248
10.111
10.0899
10.0587
10.0152
9.96125
9.90098
9.8379
9.769
9.69159
9.59753
9.48458
9.34289
9.17188
8.95789
8.69687
8.3653
7.93918
7.40522
6.63773
5.62406
4.52551
1
1
1
1
1
1
1
1
1
1
1
1
1
1
1
1
1
1
1
1
1
1
1
1
1
1
1
1
1
1
1
1
1
1
1
1
1
1
1
1
1
1
1
1
1
1
1
1
1
1
1
0.999999
1.03028
5.3382
9.76678
9.85262
9.88957
9.91802
9.94245
9.96811
9.99052
10.0074
10.0224
10.0374
10.0512
10.0622
10.0681
10.069
10.0653
10.0567
10.0448
10.0288
10.0095
9.99024
9.97112
9.94839
9.91903
9.87951
9.82705
9.76304
9.68993
9.61223
9.52604
9.43055
9.31797
9.18606
9.02489
8.82999
8.59242
8.30449
7.95404
7.51946
6.98157
6.31312
5.53827
4.70082
1
1
1
1
1
1
1
1
1
1
1
1
1
1
1
1
1
1
1
1
1
1
1
1
1
1
1
1
1
1
1
1
1
1
1
1
1
1
1
1
1
1
1
1
1
1
1
1
1
1
1
1
1
2.17233
8.40235
9.82304
9.8213
9.85069
9.87188
9.893
9.91108
9.92339
9.93327
9.94128
9.95089
9.95646
9.95978
9.9587
9.95131
9.93762
9.91894
9.89597
9.87187
9.84775
9.8213
9.79061
9.75274
9.70457
9.64293
9.57033
9.48741
9.39801
9.29778
9.18568
9.05657
8.90817
8.73404
8.52699
8.28146
7.98839
7.64844
7.22695
6.73777
6.18381
5.56789
4.9168
1
1
1
1
1
1
1
1
1
1
1
1
1
1
1
1
1
1
1
1
1
1
1
1
1
1
1
1
1
1
1
1
1
1
1
1
1
1
1
1
1
1
1
1
1
1
1
1
1
1
1
1
0.999999
1.04519
5.46187
9.68917
9.75647
9.77893
9.79506
9.8141
9.82925
9.83904
9.84343
9.84608
9.85069
9.84904
9.84818
9.84539
9.83598
9.81984
9.79623
9.76642
9.73616
9.70609
9.673
9.63523
9.5891
9.53253
9.46242
9.38246
9.29264
9.19518
9.08626
8.96289
8.82136
8.65975
8.47539
8.263
8.01944
7.7344
7.41843
7.02985
6.60794
6.14276
5.63863
5.11409
1
1
1
1
1
1
1
1
1
1
1
1
1
1
1
1
1
1
1
1
1
1
1
1
1
1
1
1
1
1
1
1
1
1
1
1
1
1
1
1
1
1
1
1
1
1
1
1
1
1
1
1
1
1.00004
2.06229
8.24798
9.69204
9.70075
9.71968
9.73095
9.73827
9.74303
9.74125
9.74088
9.73901
9.72754
9.7194
9.71512
9.7056
9.69217
9.66986
9.63941
9.60553
9.56843
9.52696
9.48022
9.4249
9.36094
9.28564
9.2011
9.10682
9.00364
8.88995
8.76243
8.61655
8.44929
8.25972
8.04604
7.80747
7.53331
7.24013
6.89975
6.53093
6.14085
5.72171
5.27677
1
1
1
1
1
1
1
1
1
1
1
1
1
1
1
1
1
1
1
1
1
1
1
1
1
1
1
1
1
1
1
1
1
1
1
1
1
1
1
1
1
1
1
1
1
1
1
1
1
1
1
1
1
1
1.03492
4.93504
9.39575
9.60222
9.62207
9.63871
9.65563
9.66651
9.66627
9.66326
9.65151
9.63063
9.61292
9.60108
9.58684
9.57185
9.54788
9.51778
9.48304
9.44098
9.39162
9.33526
9.26987
9.19827
9.119
9.03158
8.93417
8.8262
8.70864
8.58035
8.43593
8.27015
8.08239
7.87052
7.6379
7.37731
7.1034
6.80299
6.47772
6.15226
5.78723
5.40762
1
1
1
1
1
1
1
1
1
1
1
1
1
1
1
1
1
1
1
1
1
1
1
1
1
1
1
1
1
1
1
1
1
1
1
1
1
1
1
1
1
1
1
1
1
1
1
1
1
1
1
1
1
1
1.00003
1.55372
7.63389
9.6288
9.59642
9.58709
9.58083
9.57968
9.5749
9.56712
9.54818
9.52178
9.49807
9.48107
9.46385
9.44714
9.42226
9.39349
9.35856
9.31229
9.25636
9.19224
9.11849
9.04099
8.95947
8.87164
8.7739
8.66302
8.54224
8.41364
8.27297
8.11423
7.93745
7.73063
7.50983
7.26309
7.00445
6.73392
6.44968
6.16206
5.83222
5.51038
1
1
1
1
1
1
1
1
1
1
1
1
1
1
1
1
1
1
1
1
1
1
1
1
1
1
1
1
1
1
1
1
1
1
1
1
1
1
1
1
1
1
1
1
1
1
1
1
1
1
1
1
1
1
1
1.00906
3.92
8.97597
9.41454
9.43829
9.46702
9.46816
9.46564
9.4607
9.44446
9.42045
9.39395
9.36971
9.34518
9.32258
9.29543
9.26842
9.23438
9.18527
9.12647
9.05881
8.98002
8.89763
8.81316
8.72538
8.62907
8.51776
8.39516
8.26481
8.12665
7.97341
7.80822
7.61051
7.40643
7.17455
6.93703
6.69352
6.43818
6.16463
5.87671
5.59967
1
1
1
1
1
1
1
1
1
1
1
1
1
1
1
1
1
1
1
1
1
1
1
1
1
1
1
1
1
1
1
1
1
1
1
1
1
1
1
1
1
1
1
1
1
1
1
1
1
1
1
1
1
1
1
1
1.22522
6.2744
9.33319
9.38551
9.38767
9.37481
9.37144
9.36879
9.35779
9.33596
9.30757
9.27675
9.24372
9.21222
9.17899
9.14908
9.11365
9.06197
9.00268
8.93473
8.85471
8.76904
8.68089
8.59191
8.49671
8.38682
8.2642
8.13398
7.99989
7.84756
7.6888
7.50467
7.31721
7.10344
6.89299
6.66991
6.42878
6.1767
5.93272
5.67473
1
1
1
1
1
1
1
1
1
1
1
1
1
1
1
1
1
1
1
1
1
1
1
1
1
1
1
1
1
1
1
1
1
1
1
1
1
1
1
1
1
1
1
1
1
1
1
1
1
1
1
1
1
1
1
1
1.00155
2.18156
8.0045
9.31234
9.25677
9.2673
9.26432
9.26326
9.25684
9.23975
9.21404
9.18288
9.14569
9.10758
9.06783
9.0302
8.99156
8.93798
8.87911
8.81325
8.73607
8.65044
8.56018
8.46806
8.37239
8.26426
8.14646
8.01905
7.88554
7.73546
7.58093
7.41222
7.23632
7.04361
6.85578
6.64423
6.42264
6.20232
5.9798
5.73209
1
1
1
1
1
1
1
1
1
1
1
1
1
1
1
1
1
1
1
1
1
1
1
1
1
1
1
1
1
1
1
1
1
1
1
1
1
1
1
1
1
1
1
1
1
1
1
1
1
1
1
1
1
1
1
1
1
1.03961
4.17266
8.88502
9.15604
9.17317
9.18475
9.18143
9.17152
9.15031
9.12243
9.09124
9.05406
9.01399
8.97081
8.92495
8.88144
8.82604
8.7657
8.70147
8.62865
8.54621
8.45573
8.36133
8.26439
8.15813
8.04033
7.91482
7.78219
7.64007
7.49053
7.33405
7.16734
6.99444
6.81631
6.61817
6.42122
6.22265
6.00859
5.78048
1
1
1
1
1
1
1
1
1
1
1
1
1
1
1
1
1
1
1
1
1
1
1
1
1
1
1
1
1
1
1
1
1
1
1
1
1
1
1
1
1
1
1
1
1
1
1
1
1
1
1
1
1
1
1
1
1
1.00008
1.25748
5.71851
8.99365
9.16431
9.14752
9.13421
9.11398
9.08201
9.04553
9.00821
8.96957
8.92853
8.88341
8.83304
8.78438
8.72802
8.66447
8.59865
8.52813
8.44986
8.36053
8.26658
8.16962
8.06056
7.94422
7.82051
7.69039
7.55481
7.41098
7.26431
7.10951
6.95041
6.77808
6.59723
6.41795
6.22909
6.02664
5.8239
1
1
1
1
1
1
1
1
1
1
1
1
1
1
1
1
1
1
1
1
1
1
1
1
1
1
1
1
1
1
1
1
1
1
1
1
1
1
1
1
1
1
1
1
1
1
1
1
1
1
1
1
1
1
1
1
1
1
1.00209
1.62191
7.25769
9.16282
9.10323
9.07077
9.02709
8.98658
8.94779
8.91009
8.87349
8.83684
8.7929
8.74252
8.69208
8.63463
8.56922
8.50031
8.43004
8.35657
8.27085
8.1802
8.08397
7.97829
7.86263
7.74132
7.61373
7.48251
7.34356
7.20356
7.06022
6.91067
6.74718
6.58147
6.41252
6.23143
6.04526
5.86386
1
1
1
1
1
1
1
1
1
1
1
1
1
1
1
1
1
1
1
1
1
1
1
1
1
1
1
1
1
1
1
1
1
1
1
1
1
1
1
1
1
1
1
1
1
1
1
1
1
1
1
1
1
1
1
1
1
1
1
1.0111
3.05318
8.31449
8.9579
8.89745
8.87061
8.84777
8.82576
8.79961
8.76893
8.73645
8.69715
8.65012
8.60222
8.5454
8.48118
8.41198
8.33864
8.26532
8.18323
8.09586
8.00084
7.89957
7.78909
7.67189
7.5482
7.42038
7.28586
7.15053
7.01508
6.8732
6.72046
6.56704
6.40604
6.23413
6.06619
5.90297
1
1
1
1
1
1
1
1
1
1
1
1
1
1
1
1
1
1
1
1
1
1
1
1
1
1
1
1
1
1
1
1
1
1
1
1
1
1
1
1
1
1
1
1
1
1
1
1
1
1
1
1
1
1
1
1
1
1
1
1.00001
1.11027
4.37252
8.60314
8.79527
8.77191
8.7739
8.7612
8.73892
8.7079
8.67248
8.63136
8.58372
8.53279
8.47325
8.40654
8.33563
8.26106
8.18317
8.10331
8.01566
7.92452
7.82576
7.72085
7.60894
7.49098
7.36811
7.23968
7.11004
6.97953
6.84357
6.69984
6.55566
6.40318
6.2451
6.09576
5.9494
1
1
1
1
1
1
1
1
1
1
1
1
1
1
1
1
1
1
1
1
1
1
1
1
1
1
1
1
1
1
1
1
1
1
1
1
1
1
1
1
1
1
1
1
1
1
1
1
1
1
1
1
1
1
1
1
1
1
1
1
1.00052
1.29611
5.19996
8.59326
8.72005
8.72052
8.71068
8.68595
8.65312
8.61461
8.56913
8.51833
8.46223
8.40049
8.3336
8.26259
8.18847
8.1101
8.02647
7.93865
7.84934
7.75461
7.65377
7.54726
7.43562
7.31885
7.19823
7.07689
6.95249
6.8215
6.68628
6.55356
6.41331
6.2761
6.1497
6.02262
1
1
1
1
1
1
1
1
1
1
1
1
1
1
1
1
1
1
1
1
1
1
1
1
1
1
1
1
1
1
1
1
1
1
1
1
1
1
1
1
1
1
1
1
1
1
1
1
1
1
1
1
1
1
1
1
1
1
1
1
1
1.00286
1.49342
5.88212
8.59076
8.69396
8.66463
8.63471
8.59816
8.55592
8.50921
8.45805
8.40068
8.33733
8.27012
8.19899
8.12426
8.04589
7.96241
7.87453
7.78539
7.69224
7.59416
7.4921
7.38589
7.27555
7.16302
7.04913
6.93094
6.80972
6.68944
6.57513
6.45942
6.35333
6.25888
6.16355
1
1
1
1
1
1
1
1
1
1
1
1
1
1
1
1
1
1
1
1
1
1
1
1
1
1
1
1
1
1
1
1
1
1
1
1
1
1
1
1
1
1
1
1
1
1
1
1
1
1
1
1
1
1
1
1
1
1
1
1
1
1
1.00729
1.72253
6.46155
8.56662
8.61428
8.58409
8.54152
8.49779
8.44918
8.3962
8.33722
8.27379
8.20722
8.1365
8.06179
7.98341
7.90105
7.81517
7.72681
7.63466
7.53913
7.44127
7.33984
7.23494
7.13126
7.02747
6.92449
6.82799
6.73824
6.6575
6.58107
6.51987
6.46007
6.39553
1
1
1
1
1
1
1
1
1
1
1
1
1
1
1
1
1
1
1
1
1
1
1
1
1
1
1
1
1
1
1
1
1
1
1
1
1
1
1
1
1
1
1
1
1
1
1
1
1
1
1
1
1
1
1
1
1
1
1
1
1
1
1.00001
1.01476
1.98491
6.89934
8.53814
8.54515
8.50484
8.45263
8.40062
8.3434
8.28018
8.21585
8.14887
8.07846
8.00456
7.92737
7.84714
7.76353
7.67648
7.58652
7.49383
7.39974
7.3033
7.20809
7.12197
7.0441
6.97973
6.92457
6.88079
6.84577
6.80422
6.77184
6.72162
6.6571
1
1
1
1
1
1
1
1
1
1
1
1
1
1
1
1
1
1
1
1
1
1
1
1
1
1
1
1
1
1
1
1
1
1
1
1
1
1
1
1
1
1
1
1
1
1
1
1
1
1
1
1
1
1
1
1
1
1
1
1
1
1
1
1.00004
1.02653
2.24549
7.29216
8.50038
8.45708
8.40747
8.34413
8.28384
8.22063
8.15644
8.08901
8.02026
7.94817
7.87287
7.79398
7.7115
7.62623
7.53894
7.45168
7.36661
7.2878
7.22351
7.18368
7.15513
7.14099
7.13479
7.13105
7.10709
7.07128
7.03014
6.95441
6.86769
1
1
1
1
1
1
1
1
1
1
1
1
1
1
1
1
1
1
1
1
1
1
1
1
1
1
1
1
1
1
1
1
1
1
1
1
1
1
1
1
1
1
1
1
1
1
1
1
1
1
1
1
1
1
1
1
1
1
1
1
1
1
1
1
1.00008
1.04177
2.65388
7.53003
8.38512
8.32964
8.28566
8.2252
8.16218
8.09912
8.03583
7.97039
7.90033
7.82529
7.74498
7.6624
7.58
7.50032
7.42629
7.37497
7.34749
7.34713
7.36377
7.38934
7.4155
7.42779
7.40592
7.35412
7.30189
7.22974
7.12609
7.02958
1
1
1
1
1
1
1
1
1
1
1
1
1
1
1
1
1
1
1
1
1
1
1
1
1
1
1
1
1
1
1
1
1
1
1
1
1
1
1
1
1
1
1
1
1
1
1
1
1
1
1
1
1
1
1
1
1
1
1
1
1
1
1
1
1
1.00015
1.07235
2.94437
7.57657
8.26756
8.21506
8.15949
8.10529
8.0496
7.98999
7.92493
7.8525
7.77649
7.69561
7.61986
7.54883
7.5038
7.48741
7.50348
7.55268
7.62357
7.6751
7.70457
7.72366
7.68834
7.61935
7.54253
7.47249
7.37695
7.26597
7.1766
1
1
1
1
1
1
1
1
1
1
1
1
1
1
1
1
1
1
1
1
1
1
1
1
1
1
1
1
1
1
1
1
1
1
1
1
1
1
1
1
1
1
1
1
1
1
1
1
1
1
1
1
1
1
1
1
1
1
1
1
1
1
1
1
1
1
1.00034
1.10096
3.04051
7.50065
8.15729
8.10741
8.05857
8.00645
7.94925
7.88338
7.80944
7.73504
7.66351
7.61628
7.59805
7.62511
7.70541
7.80568
7.91212
7.98157
7.99591
7.98702
7.94989
7.86561
7.76967
7.68941
7.60963
7.50423
7.40248
7.32558
1
1
1
1
1
1
1
1
1
1
1
1
1
1
1
1
1
1
1
1
1
1
1
1
1
1
1
1
1
1
1
1
1
1
1
1
1
1
1
1
1
1
1
1
1
1
1
1
1
1
1
1
1
1
1
1
1
1
1
1
1
1
1
1
1
1
1
1.00058
1.11358
2.98094
7.37068
8.07244
8.0277
7.97661
7.90934
7.84047
7.76727
7.71117
7.68163
7.70442
7.8069
7.94699
8.1087
8.22272
8.28803
8.28686
8.23436
8.17833
8.10131
7.9939
7.8986
7.82528
7.74202
7.63649
7.54949
7.4797
1
1
1
1
1
1
1
1
1
1
1
1
1
1
1
1
1
1
1
1
1
1
1
1
1
1
1
1
1
1
1
1
1
1
1
1
1
1
1
1
1
1
1
1
1
1
1
1
1
1
1
1
1
1
1
1
1
1
1
1
1
1
1
1
1
1
1
1
1.00072
1.10891
2.89563
7.19295
7.98077
7.9385
7.86398
7.79864
7.74824
7.7497
7.84548
8.0113
8.24398
8.43148
8.53755
8.58645
8.55433
8.47365
8.39022
8.31559
8.22269
8.11147
8.02754
7.96089
7.8775
7.77875
7.70489
7.63554
1
1
1
1
1
1
1
1
1
1
1
1
1
1
1
1
1
1
1
1
1
1
1
1
1
1
1
1
1
1
1
1
1
1
1
1
1
1
1
1
1
1
1
1
1
1
1
1
1
1
1
1
1
1
1
1
1
1
1
1
1
1
1
1
1
1
1
1
1
1.00069
1.10008
2.76319
6.94685
7.85802
7.80191
7.79497
7.84366
8.02893
8.32369
8.59446
8.77228
8.83116
8.83796
8.78967
8.69943
8.59856
8.51617
8.44255
8.34868
8.2444
8.17273
8.10876
8.02198
7.92958
7.86282
7.78993
1
1
1
1
1
1
1
1
1
1
1
1
1
1
1
1
1
1
1
1
1
1
1
1
1
1
1
1
1
1
1
1
1
1
1
1
1
1
1
1
1
1
1
1
1
1
1
1
1
1
1
1
1
1
1
1
1
1
1
1
1
1
1
1
1
1
1
1
1
1
1.00061
1.08662
2.56897
6.56786
7.77621
8.02165
8.27908
8.6934
8.9947
9.12093
9.12172
9.04498
8.98132
8.89455
8.78741
8.69772
8.63347
8.566
8.47351
8.38544
8.32926
8.26691
8.17518
8.08586
8.02095
7.94363
1
1
1
1
1
1
1
1
1
1
1
1
1
1
1
1
1
1
1
1
1
1
1
1
1
1
1
1
1
1
1
1
1
1
1
1
1
1
1
1
1
1
1
1
1
1
1
1
1
1
1
1
1
1
1
1
1
1
1
1
1
1
1
1
1
1
1
1
1
1
1
1.00049
1.06873
2.294
6.41746
8.54798
9.09652
9.34719
9.41397
9.36598
9.27687
9.17184
9.09146
8.99924
8.89953
8.82556
8.77102
8.70062
8.60431
8.52884
8.48187
8.41667
8.3184
8.23334
8.17507
8.10079
1
1
1
1
1
1
1
1
1
1
1
1
1
1
1
1
1
1
1
1
1
1
1
1
1
1
1
1
1
1
1
1
1
1
1
1
1
1
1
1
1
1
1
1
1
1
1
1
1
1
1
1
1
1
1
1
1
1
1
1
1
1
1
1
1
1
1
1
1
1
1
1
1.00036
1.04675
2.46492
8.46924
9.97901
9.74522
9.60215
9.46396
9.34413
9.24616
9.17296
9.0917
9.01636
8.96501
8.92042
8.85136
8.75953
8.68801
8.63811
8.56328
8.45647
8.37357
8.32174
8.25026
1
1
1
1
1
1
1
1
1
1
1
1
1
1
1
1
1
1
1
1
1
1
1
1
1
1
1
1
1
1
1
1
1
1
1
1
1
1
1
1
1
1
1
1
1
1
1
1
1
1
1
1
1
1
1
1
1
1
1
1
1
1
1
1
1
1
1
1
1
1
1
1
1
1.00022
1.05945
6.24477
10.028
9.68176
9.55892
9.47469
9.40816
9.35523
9.30142
9.23359
9.17187
9.1213
9.06886
8.98965
8.89885
8.82636
8.77868
8.70557
8.60702
8.53114
8.48087
8.40725
1
1
1
1
1
1
1
1
1
1
1
1
1
1
1
1
1
1
1
1
1
1
1
1
1
1
1
1
1
1
1
1
1
1
1
1
1
1
1
1
1
1
1
1
1
1
1
1
1
1
1
1
1
1
1
1
1
1
1
1
1
1
1
1
1
1
1
1
1
1
1
1
1
1
1.0001
2.77291
8.76451
9.68108
9.62276
9.61672
9.57925
9.5275
9.46235
9.40074
9.34149
9.27851
9.20881
9.11982
9.0301
8.96189
8.91265
8.83718
8.74362
8.6726
8.62232
8.55329
1
1
1
1
1
1
1
1
1
1
1
1
1
1
1
1
1
1
1
1
1
1
1
1
1
1
1
1
1
1
1
1
1
1
1
1
1
1
1
1
1
1
1
1
1
1
1
1
1
1
1
1
1
1
1
1
1
1
1
1
1
1
1
1
1
1
1
1
1
1
1
1
1
1
1
1.091
6.33038
9.82222
9.83347
9.78122
9.70525
9.63683
9.57091
9.50262
9.43387
9.36323
9.29202
9.21797
9.15361
9.1031
9.04762
8.97117
8.89065
8.82644
8.77151
8.7002
1
1
1
1
1
1
1
1
1
1
1
1
1
1
1
1
1
1
1
1
1
1
1
1
1
1
1
1
1
1
1
1
1
1
1
1
1
1
1
1
1
1
1
1
1
1
1
1
1
1
1
1
1
1
1
1
1
1
1
1
1
1
1
1
1
1
1
1
1
1
1
1
1
1
1
1.00022
3.0608
8.90035
9.78682
9.74982
9.71263
9.67034
9.62509
9.58074
9.53294
9.47818
9.41906
9.35908
9.29985
9.23611
9.16739
9.09663
9.03507
8.97847
8.91549
8.84113
1
1
1
1
1
1
1
1
1
1
1
1
1
1
1
1
1
1
1
1
1
1
1
1
1
1
1
1
1
1
1
1
1
1
1
1
1
1
1
1
1
1
1
1
1
1
1
1
1
1
1
1
1
1
1
1
1
1
1
1
1
1
1
1
1
1
1
1
1
1
1
1
1
1
1
1
1.12995
6.97674
9.91822
9.87424
9.80187
9.76495
9.71886
9.66725
9.61527
9.5617
9.50698
9.45194
9.39537
9.33801
9.27732
9.21572
9.15293
9.087
9.01891
8.94876
1
1
1
1
1
1
1
1
1
1
1
1
1
1
1
1
1
1
1
1
1
1
1
1
1
1
1
1
1
1
1
1
1
1
1
1
1
1
1
1
1
1
1
1
1
1
1
1
1
1
1
1
1
1
1
1
1
1
1
1
1
1
1
1
1
1
1
1
1
1
1
1
1
1
1
1
1.00045
4.00547
9.38139
9.85545
9.82359
9.79021
9.74955
9.70698
9.66067
9.61346
9.56568
9.51724
9.4672
9.41572
9.36402
9.31131
9.25544
9.19683
9.13465
9.07439
1
1
1
1
1
1
1
1
1
1
1
1
1
1
1
1
1
1
1
1
1
1
1
1
1
1
1
1
1
1
1
1
1
1
1
1
1
1
1
1
1
1
1
1
1
1
1
1
1
1
1
1
1
1
1
1
1
1
1
1
1
1
1
1
1
1
1
1
1
1
1
1
1
1
1
1
0.999999
1.65564
8.07793
10.023
9.91893
9.86101
9.81198
9.76894
9.72784
9.68737
9.64645
9.603
9.55683
9.50515
9.44962
9.39419
9.33861
9.28371
9.22844
9.17273
1
1
1
1
1
1
1
1
1
1
1
1
1
1
1
1
1
1
1
1
1
1
1
1
1
1
1
1
1
1
1
1
1
1
1
1
1
1
1
1
1
1
1
1
1
1
1
1
1
1
1
1
1
1
1
1
1
1
1
1
1
1
1
1
1
1
1
1
1
1
1
1
1
1
1
1
1
1.01401
5.74095
9.89839
9.97099
9.92624
9.87859
9.83086
9.78561
9.74085
9.69608
9.65005
9.60285
9.55434
9.50528
9.45535
9.4023
9.34776
9.29328
9.23723
1
1
1
1
1
1
1
1
1
1
1
1
1
1
1
1
1
1
1
1
1
1
1
1
1
1
1
1
1
1
1
1
1
1
1
1
1
1
1
1
1
1
1
1
1
1
1
1
1
1
1
1
1
1
1
1
1
1
1
1
1
1
1
1
1
1
1
1
1
1
1
1
1
1
1
1
1
0.999997
3.10631
9.10845
10.0165
9.96374
9.92954
9.88497
9.84092
9.79568
9.74958
9.70263
9.65512
9.60752
9.55895
9.50996
9.45993
9.40995
9.35885
9.30629
1
1
1
1
1
1
1
1
1
1
1
1
1
1
1
1
1
1
1
1
1
1
1
1
1
1
1
1
1
1
1
1
1
1
1
1
1
1
1
1
1
1
1
1
1
1
1
1
1
1
1
1
1
1
1
1
1
1
1
1
1
1
1
1
1
1
1
1
1
1
1
1
1
1
1
1
1
0.999999
1.38361
7.71019
10.1528
10.0416
9.98068
9.93202
9.88854
9.84456
9.79898
9.75226
9.70458
9.65638
9.60749
9.55844
9.50867
9.45887
9.40849
9.35669
1
1
1
1
1
1
1
1
1
1
1
1
1
1
1
1
1
1
1
1
1
1
1
1
1
1
1
1
1
1
1
1
1
1
1
1
1
1
1
1
1
1
1
1
1
1
1
1
1
1
1
1
1
1
1
1
1
1
1
1
1
1
1
1
1
1
1
1
1
1
1
1
1
1
1
1
1
1
1.0051
5.67332
9.97504
10.0584
10.0194
9.98055
9.93552
9.88929
9.84187
9.79405
9.74597
9.69754
9.64895
9.60001
9.55036
9.50051
9.45026
9.39954
1
1
1
1
1
1
1
1
1
1
1
1
1
1
1
1
1
1
1
1
1
1
1
1
1
1
1
1
1
1
1
1
1
1
1
1
1
1
1
1
1
1
1
1
1
1
1
1
1
1
1
1
1
1
1
1
1
1
1
1
1
1
1
1
1
1
1
1
1
1
1
1
1
1
1
1
1
1
0.999997
3.47882
9.36146
10.0781
10.0256
9.99411
9.95366
9.91145
9.86725
9.82206
9.77652
9.73017
9.68371
9.63645
9.58853
9.54025
9.49124
9.44208
1
1
1
1
1
1
1
1
1
1
1
1
1
1
1
1
1
1
1
1
1
1
1
1
1
1
1
1
1
1
1
1
1
1
1
1
1
1
1
1
1
1
1
1
1
1
1
1
1
1
1
1
1
1
1
1
1
1
1
1
1
1
1
1
1
1
1
1
1
1
1
1
1
1
1
1
1
1
0.999999
1.85136
8.34129
10.2337
10.1322
10.0807
10.0282
9.97867
9.93007
9.88214
9.83495
9.78741
9.74002
9.69197
9.64328
9.59436
9.54454
9.49489
1
1
1
1
1
1
1
1
1
1
1
1
1
1
1
1
1
1
1
1
1
1
1
1
1
1
1
1
1
1
1
1
1
1
1
1
1
1
1
1
1
1
1
1
1
1
1
1
1
1
1
1
1
1
1
1
1
1
1
1
1
1
1
1
1
1
1
1
1
1
1
1
1
1
1
1
1
1
1
1.03265
6.73027
10.2317
10.1743
10.1063
10.0522
10.0023
9.95528
9.9092
9.86346
9.8172
9.77091
9.72414
9.67667
9.62902
9.58043
9.53192
1
1
1
1
1
1
1
1
1
1
1
1
1
1
1
1
1
1
1
1
1
1
1
1
1
1
1
1
1
1
1
1
1
1
1
1
1
1
1
1
1
1
1
1
1
1
1
1
1
1
1
1
1
1
1
1
1
1
1
1
1
1
1
1
1
1
1
1
1
1
1
1
1
1
1
1
1
1
1
1.00002
4.94356
9.91622
10.1319
10.0946
10.0662
10.0266
9.98453
9.94094
9.89648
9.85104
9.80526
9.75903
9.71212
9.66502
9.61718
9.56923
1
1
1
1
1
1
1
1
1
1
1
1
1
1
1
1
1
1
1
1
1
1
1
1
1
1
1
1
1
1
1
1
1
1
1
1
1
1
1
1
1
1
1
1
1
1
1
1
1
1
1
1
1
1
1
1
1
1
1
1
1
1
1
1
1
1
1
1
1
1
1
1
1
1
1
1
1
1
1
1
3.31059
9.32876
10.1582
10.101
10.0735
10.0345
9.99495
9.95411
9.91227
9.86952
9.82602
9.78199
9.73711
9.69163
9.64535
9.59867
1
1
1
1
1
1
1
1
1
1
1
1
1
1
1
1
1
1
1
1
1
1
1
1
1
1
1
1
1
1
1
1
1
1
1
1
1
1
1
1
1
1
1
1
1
1
1
1
1
1
1
1
1
1
1
1
1
1
1
1
1
1
1
1
1
1
1
1
1
1
1
1
1
1
1
1
1
1
1
1
2.0264
8.52577
10.2864
10.1993
10.1531
10.104
10.0579
10.0128
9.96792
9.92321
9.87829
9.83319
9.78766
9.74155
9.6949
9.64773
1
1
1
1
1
1
1
1
1
1
1
1
1
1
1
1
1
1
1
1
1
1
1
1
1
1
1
1
1
1
1
1
1
1
1
1
1
1
1
1
1
1
1
1
1
1
1
1
1
1
1
1
1
1
1
1
1
1
1
1
1
1
1
1
1
1
1
1
1
1
1
1
1
1
1
1
1
1
1
1
1.17993
7.28694
10.3267
10.2278
10.1607
10.113
10.0707
10.0288
9.98653
9.94415
9.90094
9.85726
9.81311
9.76816
9.72256
9.67637
1
1
1
1
1
1
1
1
1
1
1
1
1
1
1
1
1
1
1
1
1
1
1
1
1
1
1
1
1
1
1
1
1
1
1
1
1
1
1
1
1
1
1
1
1
1
1
1
1
1
1
1
1
1
1
1
1
1
1
1
1
1
1
1
1
1
1
1
1
1
1
1
1
1
1
1
1
1
1
1
1.00165
6.01553
10.1924
10.2284
10.1756
10.1373
10.0955
10.053
10.0103
9.96776
9.92461
9.88116
9.83742
9.793
9.74788
9.7023
1
1
1
1
1
1
1
1
1
1
1
1
1
1
1
1
1
1
1
1
1
1
1
1
1
1
1
1
1
1
1
1
1
1
1
1
1
1
1
1
1
1
1
1
1
1
1
1
1
1
1
1
1
1
1
1
1
1
1
1
1
1
1
1
1
1
1
1
1
1
1
1
1
1
1
1
1
1
1
1
1
4.77634
9.94127
10.2219
10.1744
10.1455
10.1078
10.0697
10.03
9.98914
9.94697
9.90407
9.86101
9.8172
9.77248
9.72731
1
1
1
1
1
1
1
1
1
1
1
1
1
1
1
1
1
1
1
1
1
1
1
1
1
1
1
1
1
1
1
1
1
1
1
1
1
1
1
1
1
1
1
1
1
1
1
1
1
1
1
1
1
1
1
1
1
1
1
1
1
1
1
1
1
1
1
1
1
1
1
1
1
1
1
1
1
1
1
1
1
3.62098
9.57523
10.2653
10.2082
10.1814
10.1439
10.106
10.0659
10.024
9.98102
9.93706
9.89304
9.84823
9.8028
9.75691
1
1
1
1
1
1
1
1
1
1
1
1
1
1
1
1
1
1
1
1
1
1
1
1
1
1
1
1
1
1
1
1
1
1
1
1
1
1
1
1
1
1
1
1
1
1
1
1
1
1
1
1
1
1
1
1
1
1
1
1
1
1
1
1
1
1
1
1
1
1
1
1
1
1
1
1
1
1
1
1
1
2.64547
9.13281
10.2985
10.2256
10.1928
10.1528
10.1136
10.0729
10.0312
9.98926
9.94631
9.90326
9.85938
9.81526
9.77044
1
1
1
1
1
1
1
1
1
1
1
1
1
1
1
1
1
1
1
1
1
1
1
1
1
1
1
1
1
1
1
1
1
1
1
1
1
1
1
1
1
1
1
1
1
1
1
1
1
1
1
1
1
1
1
1
1
1
1
1
1
1
1
1
1
1
1
1
1
1
1
1
1
1
1
1
1
1
1
1
1
1.90555
8.51638
10.3429
10.2601
10.2199
10.1771
10.1361
10.0944
10.0525
10.0108
9.96812
9.92531
9.88185
9.83818
9.79372
1
1
1
1
1
1
1
1
1
1
1
1
1
1
1
1
1
1
1
1
1
1
1
1
1
1
1
1
1
1
1
1
1
1
1
1
1
1
1
1
1
1
1
1
1
1
1
1
1
1
1
1
1
1
1
1
1
1
1
1
1
1
1
1
1
1
1
1
1
1
1
1
1
1
1
1
1
1
1
1
1
1.44607
7.81468
10.3735
10.2885
10.2402
10.1945
10.1517
10.1094
10.0672
10.0253
9.9829
9.94002
9.89677
9.85331
9.80892
1
1
1
1
1
1
1
1
1
1
1
1
1
1
1
1
1
1
1
1
1
1
1
1
1
1
1
1
1
1
1
1
1
1
1
1
1
1
1
1
1
1
1
1
1
1
1
1
1
1
1
1
1
1
1
1
1
1
1
1
1
1
1
1
1
1
1
1
1
1
1
1
1
1
1
1
1
1
1
1
1
1.16026
7.13101
10.3459
10.2979
10.2482
10.2055
10.1641
10.1227
10.0813
10.039
9.99689
9.95376
9.91076
9.86732
9.82308
1
1
1
1
1
1
1
1
1
1
1
1
1
1
1
1
1
1
1
1
1
1
1
1
1
1
1
1
1
1
1
1
1
1
1
1
1
1
1
1
1
1
1
1
1
1
1
1
1
1
1
1
1
1
1
1
1
1
1
1
1
1
1
1
1
1
1
1
1
1
1
1
1
1
1
1
1
1
1
1
1
1.00302
6.49725
10.2843
10.3079
10.2511
10.2153
10.1748
10.1343
10.0932
10.0511
10.0095
9.96646
9.92376
9.88038
9.83647
1
1
1
1
1
1
1
1
1
1
1
1
1
1
1
1
1
1
1
1
1
1
1
1
1
1
1
1
1
1
1
1
1
1
1
1
1
1
1
1
1
1
1
1
1
1
1
1
1
1
1
1
1
1
1
1
1
1
1
1
1
1
1
1
1
1
1
1
1
1
1
1
1
1
1
1
1
1
1
1
1
1
5.8262
10.2119
10.3066
10.2505
10.2186
10.1798
10.1409
10.101
10.0597
10.019
9.97661
9.93444
9.89135
9.84808
1
1
1
1
1
1
1
1
1
1
1
1
1
1
1
1
1
1
1
1
1
1
1
1
1
1
1
1
1
1
1
1
1
1
1
1
1
1
1
1
1
1
1
1
1
1
1
1
1
1
1
1
1
1
1
1
1
1
1
1
1
1
1
1
1
1
1
1
1
1
1
1
1
1
1
1
1
1
1
1
1
1
5.23794
10.1377
10.3203
10.2608
10.2288
10.1904
10.1524
10.1129
10.0722
10.0316
9.98957
9.94748
9.90435
9.86127
1
1
1
1
1
1
1
1
1
1
1
1
1
1
1
1
1
1
1
1
1
1
1
1
1
1
1
1
1
1
1
1
1
1
1
1
1
1
1
1
1
1
1
1
1
1
1
1
1
1
1
1
1
1
1
1
1
1
1
1
1
1
1
1
1
1
1
1
1
1
1
1
1
1
1
1
1
1
1
1
1
1
4.76147
10.0506
10.3349
10.2704
10.2368
10.1974
10.1591
10.1194
10.079
10.0383
9.99665
9.95465
9.91166
9.8688
1
1
1
1
1
1
1
1
1
1
1
1
1
1
1
1
1
1
1
1
1
1
1
1
1
1
1
1
1
1
1
1
1
1
1
1
1
1
1
1
1
1
1
1
1
1
1
1
1
1
1
1
1
1
1
1
1
1
1
1
1
1
1
1
1
1
1
1
1
1
1
1
1
1
1
1
1
1
1
1
1
1
4.3973
9.96048
10.3471
10.2788
10.2441
10.2039
10.1653
10.1254
10.0852
10.0442
10.003
9.96116
9.91833
9.87543
1
1
1
1
1
1
1
1
1
1
1
1
1
1
1
1
1
1
1
1
1
1
1
1
1
1
1
1
1
1
1
1
1
1
1
1
1
1
1
1
1
1
1
1
1
1
1
1
1
1
1
1
1
1
1
1
1
1
1
1
1
1
1
1
1
1
1
1
1
1
1
1
1
1
1
1
1
1
1
1
1
1
4.13232
9.88091
10.3568
10.2849
10.2495
10.2086
10.1695
10.1295
10.0893
10.048
10.0071
9.96543
9.92281
9.87991
1
1
1
1
1
1
1
1
1
1
1
1
1
1
1
1
1
1
1
1
1
1
1
1
1
1
1
1
1
1
1
1
1
1
1
1
1
1
1
1
1
1
1
1
1
1
1
1