/*--------------------------------*- C++ -*----------------------------------*\
  =========                 |
  \\      /  F ield         | OpenFOAM: The Open Source CFD Toolbox
   \\    /   O peration     | Website:  https://openfoam.org
    \\  /    A nd           | Version:  7
     \\/     M anipulation  |
\*---------------------------------------------------------------------------*/
FoamFile
{
    version     2.0;
    format      ascii;
    class       volScalarField;
    location    "7";
    object      p;
}
// * * * * * * * * * * * * * * * * * * * * * * * * * * * * * * * * * * * * * //

dimensions      [0 2 -2 0 0 0 0];

internalField   nonuniform List<scalar> 
16000
(
-9.012164e-06
-0.00014825456
-0.00044408705
-0.000823244
-0.0012139886
-0.0015738592
-0.0018734523
-0.0020948608
-0.0022280866
-0.0022677954
-0.0022113633
-0.0020577053
-0.0018065898
-0.0014585939
-0.0010154146
-0.00048030502
0.00014136863
0.00084150018
0.0016087015
0.0024279605
0.0032805574
0.0041442841
0.0049939822
0.0058024676
0.0065418023
0.007184867
0.0077071311
0.0080884862
0.00831499
0.0083803599
0.0082870754
0.0080469921
0.0076814446
0.0072209345
0.0067042502
0.00617589
0.005689795
0.0052998315
0.0050659712
0.0050243178
0.00012686278
-1.3123412e-05
-0.00024967821
-0.00053940349
-0.00083904928
-0.0011159677
-0.0013470655
-0.0015169157
-0.0016157403
-0.0016375195
-0.0015786629
-0.0014371912
-0.0012122277
-0.0009039088
-0.00051357543
-4.4095754e-05
0.00049971131
0.0011106034
0.0017785112
0.0024902858
0.0032296439
0.0039774789
0.0047121694
0.0054105246
0.0060488485
0.0066042956
0.0070563918
0.0073885958
0.0075897705
0.0076554209
0.0075885708
0.0074001827
0.0071090782
0.0067413908
0.0063295605
0.0059107059
0.005524918
0.0052141147
0.005020426
0.0049818747
0.00042893016
0.00022001375
-2.1897498e-05
-0.0002831763
-0.0005430285
-0.00077798784
-0.00097104501
-0.0011106765
-0.0011890971
-0.0012011145
-0.0011433608
-0.0010137173
-0.00081094546
-0.00053469273
-0.00018571185
0.00023384121
0.0007200287
0.0012667014
0.0018651206
0.0025037168
0.0031680618
0.003840993
0.0045030924
0.0051334016
0.0057104353
0.0062134391
0.0066238041
0.0069265265
0.0071115771
0.0071750372
0.0071198692
0.0069562209
0.0067012115
0.0063782102
0.0060156621
0.0056454949
0.0053009722
0.00501476
0.0048232085
0.0047532718
0.00082655314
0.00050980666
0.00022530356
-4.2364394e-05
-0.00029308207
-0.00051119072
-0.00068552046
-0.00080907511
-0.00087701351
-0.00088586261
-0.00083311596
-0.0007169009
-0.00053578678
-0.00028890612
2.3754545e-05
0.00040100999
0.00084006587
0.0013360611
0.0018816545
0.002466744
0.0030783731
0.003700794
0.0043159171
0.0049039429
0.0054443363
0.005917055
0.0063039504
0.006590229
0.0067658287
0.0068265558
0.0067748322
0.0066199442
0.0063777333
0.0060697361
0.0057218329
0.0053625618
0.0050214246
0.0047271767
0.0045048593
0.0043688818
0.0012480585
0.00081030707
0.00046680993
0.00017590293
-8.156287e-05
-0.0002967048
-0.00046386374
-0.00058067667
-0.000645506
-0.00065688999
-0.00061342608
-0.00051363199
-0.00035592155
-0.00013884808
0.00013851403
0.00047614338
0.00087258692
0.0013244345
0.0018258348
0.0023681309
0.0029396776
0.0035258746
0.0041094817
0.004671238
0.0051908054
0.0056480001
0.0060242314
0.0063040261
0.0064764795
0.0065364619
0.0064854097
0.0063315743
0.0060896592
0.0057798517
0.005426295
0.0050552778
0.0046939908
0.0043687624
0.0040943021
0.0038716691
0.0016444412
0.0010810833
0.00067009289
0.00034533932
7.0006433e-05
-0.00015282577
-0.00032249188
-0.00044103858
-0.00050997376
-0.00052986676
-0.00050045335
-0.00042064928
-0.00028867109
-0.00010239648
0.00014015321
0.00044028531
0.00079805253
0.0012116331
0.0016767467
0.0021861829
0.0027295109
0.0032930302
0.0038599829
0.0044111383
0.0049257146
0.0053826381
0.005762054
0.0060469631
0.0062248077
0.0062888154
0.0062389079
0.0060820186
0.0058317376
0.0055072774
0.0051317913
0.0047304374
0.0043295781
0.0039548698
0.0036125865
0.0032899584
0.0019735153
0.0012861563
0.00080440156
0.00043965171
0.00013902503
-9.9411369e-05
-0.00027946188
-0.00040721972
-0.00048710479
-0.00052157059
-0.00051138236
-0.00045575132
-0.00035258397
-0.00019894959
8.337339e-06
0.00027208007
0.00059400231
0.00097401839
0.0014095293
0.0018948221
0.0024206509
0.002974078
0.0035385691
0.0040945331
0.0046202144
0.0050929862
0.0054909577
0.005794757
0.0059893123
0.0060654056
0.0060207811
0.0058606193
0.00559727
0.0052492163
0.0048392727
0.0043925277
0.0039359757
0.0034963766
0.00307342
0.0026420333
0.0021996071
0.0013932232
0.000840997
0.00043355378
0.00010327928
-0.00015622655
-0.00035279086
-0.00049616102
-0.00059335681
-0.00064847052
-0.00066309469
-0.00063655736
-0.00056628646
-0.00044837329
-0.0002782477
-5.142503e-05
0.00023568236
0.00058491405
0.00099552616
0.0014634422
0.0019806804
0.0025350707
0.0031101887
0.0036858382
0.0042388867
0.0047445827
0.0051782649
0.0055173231
0.0057432242
0.0058433573
0.0058124406
0.0056532602
0.0053765952
0.0050002646
0.0045472544
0.0040435371
0.0035181086
0.0030005302
0.0024856618
0.00193765
0.0022916222
0.0013729425
0.00075268919
0.00030211291
-6.0089842e-05
-0.00034442965
-0.00056239888
-0.00072702958
-0.00084761406
-0.00092960149
-0.00097516526
-0.00098353087
-0.0009514458
-0.00087382616
-0.00074451319
-0.00055712241
-0.00030596713
1.2970002e-05
0.00040106237
0.0008561225
0.0013716475
0.001936411
0.0025341439
0.0031439668
0.0037411002
0.0042981856
0.0047870826
0.0051810253
0.005456943
0.005597683
0.0055938361
0.0054448783
0.0051594245
0.004754471
0.0042535114
0.0036842348
0.0030789341
0.00247161
0.0018537312
0.001179588
0.0022214975
0.0011983741
0.00051386313
2.1116367e-05
-0.00037399647
-0.00068586704
-0.00092937427
-0.0011205106
-0.0012705337
-0.0013859716
-0.0014693272
-0.0015194949
-0.0015323282
-0.0015013555
-0.0014186039
-0.0012755366
-0.0010640797
-0.00077770847
-0.00041256504
3.1433415e-05
0.0005496259
0.0011322105
0.0017632069
0.0024211824
0.0030796161
0.0037081704
0.0042745534
0.0047468671
0.0050962671
0.0052996561
0.0053420698
0.005218395
0.0049341335
0.0045049929
0.0039550818
0.0033144917
0.0026200494
0.0019118138
0.0011789414
0.00036616517
0.0019635541
0.00084473953
0.00010064172
-0.00043245167
-0.00086068589
-0.0012021829
-0.0014749907
-0.0016977854
-0.0018835208
-0.0020395555
-0.0021684931
-0.0022686846
-0.0023348851
-0.0023590235
-0.0023310743
-0.0022400664
-0.0020751965
-0.0018270211
-0.0014887172
-0.0010573946
-0.00053534408
6.9914776e-05
0.00074289338
0.0014620211
0.0021991643
0.0029208002
0.0035898881
0.0041683836
0.0046202643
0.0049147899
0.0050296084
0.0049532677
0.0046867285
0.0042435191
0.0036481443
0.0029335854
0.0021423831
0.0013223052
0.00046095131
-0.0005068157
0.0014943122
0.00028942909
-0.00050891965
-0.0010800211
-0.0015411841
-0.0019141462
-0.0022199492
-0.0024797182
-0.00270788
-0.0029124208
-0.0030958579
-0.0032558246
-0.0033858017
-0.0034759246
-0.0035138802
-0.0034859626
-0.00337825
-0.0031778888
-0.0028744853
-0.0024615156
-0.0019376785
-0.0013092044
-0.00058850654
0.00020295349
0.0010357277
0.0018731364
0.0026729445
0.0033899689
0.003979467
0.0044010421
0.0046226467
0.0046241483
0.0043999027
0.0039597773
0.0033279864
0.0025405986
0.0016469719
0.00070432061
-0.00030080004
-0.0014442452
0.00079258467
-0.00048782609
-0.0013345646
-0.0019410337
-0.002434761
-0.0028409912
-0.0031836081
-0.003485989
-0.0037638592
-0.0040256851
-0.0042737686
-0.0045049052
-0.0047111756
-0.0048807655
-0.0049988625
-0.0050487265
-0.0050129029
-0.0048745683
-0.0046190421
-0.0042354116
-0.0037182205
-0.0030693952
-0.0022990408
-0.0014270641
-0.00048333731
0.00049268939
0.0014534129
0.002345655
0.0031143523
0.0037071511
0.0040794799
0.0041994696
0.0040519872
0.003640948
0.0029889156
0.0021348047
0.0011357604
6.0308373e-05
-0.0011056717
-0.0024500235
-0.00016014462
-0.0015046155
-0.0023934438
-0.0030324607
-0.0035583388
-0.0039997063
-0.0043831509
-0.004734137
-0.0050695666
-0.0053983023
-0.0057223712
-0.0060376825
-0.0063348576
-0.0066000364
-0.0068157406
-0.0069619238
-0.0070171826
-0.0069601311
-0.0067710012
-0.0064334651
-0.005936618
-0.0052770752
-0.004460766
-0.0035046825
-0.0024378875
-0.0013017404
-0.00014895602
0.00095873643
0.0019544425
0.0027713595
0.0033490526
0.0036400502
0.0036158259
0.0032709744
0.0026240918
0.001716026
0.00061242378
-0.00060488182
-0.0019503614
-0.0035254135
-0.0013792127
-0.00277543
-0.0036996807
-0.0043683043
-0.0049258952
-0.0054043157
-0.0058327256
-0.0062385459
-0.0066397883
-0.0070456993
-0.0074580526
-0.0078719073
-0.0082764506
-0.0086557592
-0.0089895941
-0.0092543879
-0.0094244103
-0.0094731279
-0.0093748585
-0.0091067463
-0.0086510269
-0.0079974967
-0.0071459532
-0.0061085847
-0.0049118389
-0.0035974989
-0.0022225153
-0.00085719558
0.00041854815
0.001520975
0.0023700419
0.0028979704
0.0030577374
0.0028298628
0.0022253309
0.0012849997
8.3251159e-05
-0.0012827064
-0.0028273339
-0.0046673099
-0.0028762661
-0.0043112446
-0.0052639663
-0.0059591398
-0.0065479087
-0.0070651885
-0.0075425896
-0.0080093972
-0.0084847309
-0.0089782884
-0.0094917015
-0.010019312
-0.010548994
-0.011062842
-0.011537859
-0.011946831
-0.012259402
-0.012443366
-0.012466324
-0.012297768
-0.011911591
-0.011288952
-0.010421366
-0.0093138546
-0.0079878315
-0.0064832788
-0.0048596888
-0.0031951737
-0.0015832053
-0.00012663162
0.0010709884
0.0019161225
0.002336844
0.0022931492
0.0017829901
0.00084382417
-0.00044184391
-0.0019594568
-0.0037230389
-0.0058662921
-0.0046587726
-0.0061191465
-0.0070932191
-0.0078117328
-0.0084308773
-0.008988413
-0.0095182998
-0.010051648
-0.010608759
-0.01119994
-0.011826892
-0.012483475
-0.013156481
-0.013826215
-0.014467038
-0.015048087
-0.015534196
-0.015887076
-0.016066907
-0.016034471
-0.015753844
-0.015195639
-0.014340733
-0.013184229
-0.011739503
-0.010041717
-0.0081502272
-0.0061490919
-0.004144852
-0.0022608632
-0.00062784828
0.00062900338
0.0014052
0.0016318309
0.0012861203
0.00039660948
-0.00094808682
-0.0026145092
-0.0046158021
-0.0071043198
-0.0067296041
-0.0082020661
-0.00919036
-0.009928776
-0.010576957
-0.011175285
-0.011760008
-0.012364098
-0.01300921
-0.013706523
-0.014458124
-0.015257736
-0.016091413
-0.016937982
-0.017769402
-0.018551297
-0.019243665
-0.019801882
-0.020178174
-0.020323711
-0.020191418
-0.019739518
-0.018935813
-0.01776253
-0.016221524
-0.014339357
-0.012171511
-0.0098048103
-0.0073569327
-0.0049718215
-0.0028101342
-0.0010345343
0.00020930889
0.00081319104
0.0007231738
-4.9481487e-05
-0.0014142421
-0.0032181697
-0.0054732571
-0.0083519222
-0.0090867881
-0.010558698
-0.011554283
-0.012308824
-0.012983792
-0.013621977
-0.014261929
-0.014938627
-0.015675374
-0.016484609
-0.017369239
-0.018323311
-0.019332592
-0.020374847
-0.021420008
-0.022430456
-0.023361495
-0.024162116
-0.024776284
-0.025144917
-0.025208709
-0.024911871
-0.02420685
-0.023060056
-0.021458063
-0.019414477
-0.016976165
-0.01422811
-0.01129541
-0.0083407645
-0.005555881
-0.0031457977
-0.0013062652
-0.00019692058
8.3661729e-05
-0.00048254294
-0.0018104706
-0.0037289634
-0.006249169
-0.0095647212
-0.011723512
-0.01318369
-0.014180104
-0.0149465
-0.015644611
-0.016319465
-0.017012049
-0.017759665
-0.018587726
-0.019510469
-0.020532189
-0.021647824
-0.0228434
-0.02409614
-0.025374413
-0.026637761
-0.027837089
-0.028915166
-0.029807652
-0.030444891
-0.030754642
-0.030665873
-0.030113757
-0.02904631
-0.027431053
-0.025264023
-0.022578002
-0.019450191
-0.016007451
-0.012427
-0.0089302017
-0.0057673707
-0.0031924564
-0.0014296941
-0.00063874089
-0.00088325214
-0.0020954223
-0.0040901983
-0.0068794916
-0.010679133
-0.014628444
-0.016068174
-0.017059758
-0.01783305
-0.018548645
-0.019253751
-0.019992134
-0.020803979
-0.021717503
-0.022749471
-0.023906278
-0.02518443
-0.026570836
-0.028042747
-0.029567501
-0.031102283
-0.032594024
-0.033979608
-0.035186608
-0.036134821
-0.036738806
-0.036911613
-0.036569895
-0.035640908
-0.034070146
-0.031831574
-0.02893812
-0.025452295
-0.021495269
-0.017251892
-0.012968555
-0.0089405382
-0.0054858518
-0.0029061996
-0.0014410812
-0.0012208106
-0.0022123
-0.0042256117
-0.0072774975
-0.011607097
-0.017786433
-0.019200715
-0.020183019
-0.020957282
-0.021681902
-0.022406419
-0.02317805
-0.024040785
-0.02502666
-0.026155947
-0.027438017
-0.028871714
-0.030445497
-0.032137232
-0.033913754
-0.035730388
-0.037530572
-0.039245759
-0.040795861
-0.042090472
-0.043031137
-0.043514918
-0.043439474
-0.042709527
-0.041246639
-0.038998836
-0.035953739
-0.032151955
-0.027700225
-0.022781694
-0.017659546
-0.012669418
-0.0081952924
-0.004626994
-0.0023034665
-0.0014470631
-0.0020835972
-0.004033892
-0.0073278085
-0.012229691
-0.021179652
-0.022568766
-0.023539018
-0.024306967
-0.025028331
-0.025755516
-0.026540383
-0.027432181
-0.02846822
-0.029673562
-0.031061622
-0.032634427
-0.034382651
-0.036285304
-0.03830917
-0.040408143
-0.042522598
-0.044579038
-0.046490244
-0.048156182
-0.049465949
-0.050301037
-0.050540131
-0.050065638
-0.048773494
-0.046583187
-0.043452663
-0.039393946
-0.034490258
-0.028911964
-0.02292745
-0.016903196
-0.011285522
-0.0065584666
-0.0031785001
-0.0014883875
-0.0016042013
-0.0033818519
-0.0068791471
-0.012389503
-0.024789287
-0.026160771
-0.027118381
-0.027870737
-0.028571354
-0.029276707
-0.030045287
-0.030933824
-0.031986936
-0.033236142
-0.034700158
-0.036385082
-0.038284397
-0.040378653
-0.042634864
-0.04500573
-0.04742885
-0.049826151
-0.052103786
-0.054152753
-0.055850506
-0.057063842
-0.057653309
-0.057479446
-0.056412935
-0.054343254
-0.051195887
-0.046949034
-0.041654094
-0.035457106
-0.02861769
-0.021519005
-0.0146595
-0.0086166261
-0.0039778479
-0.0012351018
-0.00063257012
-0.0020960045
-0.0057355916
-0.011881613
-0.028597933
-0.029969103
-0.030916126
-0.031640553
-0.032295763
-0.032944626
-0.033655456
-0.034495741
-0.03552019
-0.036768877
-0.038267247
-0.04002633
-0.042042853
-0.04429905
-0.046762157
-0.049383637
-0.052098312
-0.05482367
-0.057459571
-0.059888625
-0.06197748
-0.063579331
-0.064538009
-0.064693921
-0.063891687
-0.061993034
-0.058889635
-0.054522599
-0.048905161
-0.042148601
-0.034489088
-0.026308939
-0.018142077
-0.010649985
-0.0045566206
-0.00052843606
0.0010202079
4.7700717e-05
-0.0036460672
-0.010442994
-0.032592961
-0.033994186
-0.034935565
-0.035614823
-0.036189917
-0.03673429
-0.037331047
-0.038063118
-0.038998984
-0.040189801
-0.041669258
-0.043454023
-0.045544191
-0.047923454
-0.05055885
-0.053400138
-0.056378979
-0.059408199
-0.062381391
-0.065173103
-0.067639861
-0.069622312
-0.070948911
-0.071441335
-0.070921389
-0.069223319
-0.066206224
-0.061773496
-0.05589663
-0.048644412
-0.040216311
-0.03097514
-0.021468711
-0.012424282
-0.0046971146
0.00085439865
0.0036035264
0.0033362721
-0.00029165968
-0.0077399959
-0.036771381
-0.038250351
-0.039193595
-0.039802307
-0.040248185
-0.040622415
-0.041030372
-0.041576904
-0.0423489
-0.04341144
-0.044807857
-0.046560787
-0.048673323
-0.051129826
-0.05389617
-0.056919428
-0.060127222
-0.063427049
-0.066705842
-0.069830044
-0.072646404
-0.074983802
-0.076656541
-0.077469209
-0.07722327
-0.075727649
-0.072811199
-0.068341157
-0.06224681
-0.054550327
-0.045404707
-0.03513628
-0.024283089
-0.013612613
-0.00409439
0.0032159111
0.0074423588
0.0081345853
0.0047299846
-0.003353145
-0.041147223
-0.042774472
-0.043728036
-0.044227016
-0.044473543
-0.044588411
-0.044710152
-0.044974071
-0.04549093
-0.046342557
-0.047582838
-0.049239994
-0.051318961
-0.053803239
-0.05665588
-0.059819672
-0.063216782
-0.066748219
-0.070293402
-0.073710171
-0.076835419
-0.079486575
-0.08146458
-0.082558393
-0.082550852
-0.08122839
-0.078392478
-0.073877122
-0.06757163
-0.059451271
-0.049617484
-0.038347397
-0.026147163
-0.013795011
-0.0023471254
0.0069527974
0.012953912
0.014903426
0.011924542
0.003242413
-0.045763401
-0.047639142
-0.048608024
-0.048934395
-0.048880212
-0.048614827
-0.048325122
-0.048187429
-0.048342146
-0.048889998
-0.04989521
-0.051389996
-0.053378865
-0.055841944
-0.058736998
-0.06200027
-0.065546504
-0.069268583
-0.073037099
-0.076700408
-0.08008515
-0.082996695
-0.085222938
-0.086539096
-0.08670891
-0.08549913
-0.082686802
-0.078075979
-0.071519613
-0.062948794
-0.052412961
-0.040133009
-0.026565856
-0.01247149
0.0010418861
0.012566052
0.020664853
0.024221626
0.021927696
0.012704474
-0.050711936
-0.052973516
-0.053949077
-0.053999163
-0.053496131
-0.052686958
-0.05182684
-0.051144995
-0.050816317
-0.050960733
-0.051650561
-0.052918568
-0.054765033
-0.057163018
-0.060061649
-0.063387736
-0.067046092
-0.070919463
-0.0748679
-0.078729229
-0.082319529
-0.085429666
-0.087834625
-0.089300877
-0.089564711
-0.088379888
-0.085499881
-0.08070135
-0.073804455
-0.064700011
-0.053388141
-0.040031722
-0.025027427
-0.009092334
0.0066501634
0.020661796
0.031226899
0.036813502
0.035543017
0.025866976
-0.056170183
-0.058997175
-0.059935071
-0.059535034
-0.058364781
-0.056791136
-0.055161463
-0.053768877
-0.0528245
-0.052464118
-0.052762627
-0.053747304
-0.055408485
-0.057707144
-0.06057953
-0.063939677
-0.067679476
-0.071669501
-0.075757748
-0.079769543
-0.083507676
-0.086752276
-0.089263723
-0.090786684
-0.091050817
-0.089784157
-0.086718383
-0.081604569
-0.074232098
-0.064454307
-0.052225055
-0.037649992
-0.021059626
-0.0031090727
0.01509838
0.031935467
0.045426287
0.053582556
0.053797839
0.043814002
-0.062468537
-0.066076152
-0.066849972
-0.065705806
-0.063545017
-0.060910584
-0.05826575
-0.055973178
-0.054275156
-0.053313834
-0.053156404
-0.053815251
-0.05526285
-0.057441785
-0.060270374
-0.06364583
-0.067444743
-0.07152298
-0.07571475
-0.079831875
-0.083663447
-0.086976036
-0.089515106
-0.09100791
-0.091167754
-0.089701002
-0.086316049
-0.08073721
-0.072722217
-0.062086697
-0.048738118
-0.032723753
-0.014302505
0.0059500999
0.026983713
0.047128947
0.064178768
0.075650453
0.078026765
0.068014213
-0.070221736
-0.074816113
-0.075121623
-0.072735254
-0.069105648
-0.065016119
-0.061059153
-0.057659105
-0.055072107
-0.053427845
-0.052769192
-0.053080254
-0.054305402
-0.056361206
-0.059142841
-0.062526899
-0.066371802
-0.070517007
-0.074781656
-0.078963254
-0.082836697
-0.086154085
-0.088645523
-0.090021308
-0.089975699
-0.088193202
-0.08435657
-0.078160652
-0.069327618
-0.057630276
-0.042923312
-0.025188186
-0.0046003771
0.018372962
0.042768919
0.066940528
0.088489951
0.10439241
0.10999896
0.10057885
-0.080595624
-0.086215135
-0.085371989
-0.080904302
-0.075104545
-0.069043373
-0.063425107
-0.058701393
-0.05510523
-0.052722021
-0.051545956
-0.0515149
-0.052533005
-0.054482594
-0.057230276
-0.060628766
-0.064516305
-0.06871491
-0.07302817
-0.077239147
-0.081108753
-0.084374817
-0.086752302
-0.087934672
-0.087596954
-0.085400977
-0.081001349
-0.074060036
-0.064257253
-0.051313233
-0.035015827
-0.015260001
0.0078917498
0.034108035
0.062598615
0.0918383
0.119322
0.14143059
0.15211532
0.14476851
-0.095872711
-0.10190359
-0.098432869
-0.090488999
-0.081514119
-0.072825765
-0.065156519
-0.058905971
-0.054218042
-0.05108518
-0.049419012
-0.049089838
-0.049947671
-0.051832587
-0.054578236
-0.058011394
-0.061949472
-0.06619726
-0.070543555
-0.074758031
-0.078588883
-0.081761118
-0.083975971
-0.084911432
-0.084224413
-0.081554372
-0.076527022
-0.068768109
-0.05790903
-0.043604846
-0.025555693
-0.0035377555
0.022547383
0.052582979
0.086052561
0.1217187
0.15725894
0.18848142
0.20764533
0.20582289
-0.12061054
-0.12449169
-0.11524718
-0.10156497
-0.088031477
-0.075934388
-0.065830207
-0.057915759
-0.052138707
-0.048328165
-0.046270895
-0.045744902
-0.046533353
-0.048428273
-0.051228612
-0.054735682
-0.058747722
-0.063054521
-0.067432558
-0.071640821
-0.075417534
-0.078477757
-0.080511983
-0.081185807
-0.080140998
-0.076996359
-0.071351771
-0.062794938
-0.050904106
-0.035257755
-0.015445251
0.0089171777
0.038157548
0.072484832
0.11183695
0.15557839
0.20197634
0.24691092
0.28071401
0.29173531
-0.1638683
-0.15785854
-0.13664219
-0.11376874
-0.093857412
-0.077508151
-0.064703739
-0.055163825
-0.048470959
-0.044197626
-0.041958104
-0.041417111
-0.042284396
-0.044304579
-0.04724577
-0.050888815
-0.055017949
-0.059412946
-0.06384263
-0.068059735
-0.071796848
-0.074763406
-0.076643685
-0.077095895
-0.075752121
-0.072212292
-0.066059186
-0.056844432
-0.044094657
-0.027307759
-0.0059465775
0.020570411
0.052878826
0.091660885
0.13757486
0.19108667
0.25193627
0.31680799
0.37558656
0.41466812
-0.24579536
-0.20581422
-0.16169357
-0.12521589
-0.096975751
-0.075840517
-0.060539676
-0.049840261
-0.04272662
-0.038427425
-0.036361049
-0.036081123
-0.037235856
-0.039536674
-0.042734158
-0.046600096
-0.050914191
-0.055454096
-0.059987724
-0.064267458
-0.068025638
-0.070971245
-0.072787555
-0.0731311
-0.071631097
-0.067874987
-0.061439917
-0.051848496
-0.0385874
-0.021085885
0.0013110019
0.029386471
0.064124339
0.10681209
0.15915891
0.22343381
0.30215194
0.39478634
0.49550957
0.60246249
-0.42496265
-0.26522787
-0.17679016
-0.12433757
-0.088971027
-0.065094421
-0.049412345
-0.039316809
-0.033100954
-0.029723157
-0.028505383
-0.028971188
-0.030767012
-0.033614115
-0.03727617
-0.04153777
-0.046190025
-0.051020453
-0.055805498
-0.060305005
-0.064257968
-0.067379343
-0.069357443
-0.069850995
-0.06847964
-0.064877017
-0.058578579
-0.049107787
-0.035937397
-0.01846374
0.004031089
0.032451034
0.068019344
0.11252255
0.16875097
0.24129145
0.33732001
0.46516258
0.64229929
0.92010251
-0.79278831
-0.32390598
-0.1485318
-0.087398623
-0.055184231
-0.035991462
-0.025198732
-0.019369886
-0.016527024
-0.015735892
-0.016505963
-0.018520263
-0.021545449
-0.025391133
-0.029885301
-0.034859546
-0.040139974
-0.045540912
-0.050860059
-0.055874686
-0.060338569
-0.063979603
-0.066498202
-0.067567505
-0.06683914
-0.063895182
-0.058325369
-0.049664475
-0.037395271
-0.020931442
0.00041958668
0.027526113
0.06156759
0.10431684
0.15878054
0.23081112
0.33311061
0.49334155
0.7892622
1.3830205
-9.2714961e-06
-0.00014715454
-0.00044340887
-0.00082308772
-0.0012141919
-0.0015743392
-0.0018741368
-0.0020957057
-0.0022290415
-0.0022688143
-0.0022124244
-0.002058779
-0.0018076461
-0.0014596186
-0.0010163983
-0.00048123079
0.00014052098
0.00084074464
0.0016080444
0.0024274064
0.0032801135
0.0041439578
0.0049937762
0.0058023788
0.0065418223
0.0071849829
0.0077073266
0.0080887423
0.0083152842
0.008380666
0.008287365
0.0080472369
0.0076816177
0.0072210102
0.0067042106
0.0061757566
0.0056895456
0.0052994469
0.005065444
0.0050240099
0.00012789116
-1.2204072e-05
-0.00024904571
-0.00053899964
-0.0008387674
-0.0011157602
-0.0013469123
-0.0015168145
-0.0016156803
-0.0016374839
-0.0015786508
-0.0014372034
-0.0012122638
-0.00090397566
-0.00051368247
-4.4248443e-05
0.00049950759
0.0011103389
0.0017781726
0.0024898622
0.0032291306
0.0039768735
0.0047114722
0.005409738
0.0060479789
0.0066033552
0.0070553978
0.0073875699
0.007588737
0.0076544049
0.0075875971
0.007399275
0.0071082571
0.0067406722
0.0063289544
0.0059102202
0.0055245558
0.0052138117
0.0050200935
0.004981768
0.00042982786
0.0002204737
-2.1608098e-05
-0.00028309983
-0.00054313815
-0.00077823821
-0.00097140946
-0.0011111316
-0.00118961
-0.0012016596
-0.0011439295
-0.0010142981
-0.00081152423
-0.00053526506
-0.00018627765
0.0002332863
0.00071949038
0.0012661817
0.0018646178
0.0025032293
0.0031675907
0.0038405401
0.0045026581
0.0051329849
0.0057100349
0.0062130542
0.0066234346
0.0069261724
0.0071112377
0.0071747107
0.007119553
0.0069559119
0.0067009067
0.0063779059
0.006015355
0.0056451841
0.0053006646
0.0050144398
0.0048228417
0.004753034
0.00082711842
0.00050981998
0.00022537424
-4.2423236e-05
-0.00029332746
-0.00051157197
-0.00068600372
-0.00080964055
-0.00087763154
-0.00088650859
-0.00083378061
-0.00071757204
-0.00053645003
-0.0002895558
2.3119454e-05
0.00040039431
0.00083947676
0.001335503
0.0018811283
0.0024662493
0.003077911
0.003700367
0.0043155258
0.004903586
0.0054440117
0.0059167599
0.0063036815
0.0065899824
0.0067655997
0.0068263384
0.0067746192
0.0066197278
0.0063775063
0.0060694927
0.0057215695
0.0053622754
0.0050211126
0.0047268466
0.0045045323
0.0043685372
0.0012485114
0.00080997476
0.00046673352
0.00017578131
-8.1845939e-05
-0.00029708782
-0.00046431397
-0.00058118232
-0.00064604684
-0.00065744827
-0.00061399764
-0.00051420875
-0.0003564927
-0.00013941005
0.00013796034
0.00047559973
0.00087205775
0.001323923
0.0018253403
0.0023676518
0.0029392136
0.0035254268
0.0041090508
0.004670824
0.0051904077
0.0056476177
0.0060238636
0.0063036722
0.0064761388
0.0065361327
0.0064850895
0.0063312594
0.0060893459
0.0057795375
0.0054259803
0.0050549583
0.0046936499
0.0043684309
0.0040940702
0.0038712434
0.0016448326
0.0010804626
0.00066988764
0.00034513603
6.9648616e-05
-0.00015325877
-0.00032296688
-0.000441552
-0.00051051134
-0.00053041604
-0.0005010122
-0.00042121116
-0.0002892267
-0.00010294252
0.00013961543
0.00043975613
0.00079753559
0.0012111315
0.0016762602
0.0021857096
0.0027290501
0.0032925827
0.0038595495
0.0044107193
0.0049253098
0.0053822469
0.0057616757
0.0060465972
0.0062244536
0.0062884723
0.0062385739
0.0060816909
0.0058314129
0.0055069539
0.0051314706
0.0047301127
0.0043292193
0.0039545372
0.0036124452
0.003289449
0.0019738776
0.0012852791
0.00080408803
0.00043937905
0.00013859984
-9.9891646e-05
-0.00027996494
-0.0004077488
-0.00048765067
-0.00052212475
-0.00051194239
-0.00045631145
-0.00035313643
-0.00019949131
7.8054416e-06
0.00027155684
0.00059349101
0.00097352238
0.0014090487
0.0018943551
0.0024201964
0.0029736366
0.0035381418
0.0040941205
0.0046198163
0.0050926021
0.0054905868
0.0057943987
0.0059889656
0.0060650694
0.0060204534
0.0058602973
0.0055969503
0.0052488969
0.0048389563
0.0043922047
0.0039356021
0.0034960434
0.0030733715
0.0026414412
0.0021999733
0.0013921272
0.00084060358
0.00043324236
0.00010281663
-0.00015672896
-0.00035330161
-0.00049668846
-0.00059389646
-0.00064901584
-0.00066364245
-0.00063710282
-0.00056682424
-0.00044890102
-0.0002787663
-5.1935302e-05
0.00023518267
0.00058442807
0.00099505403
0.0014629819
0.001980231
0.0025346323
0.0031097627
0.0036854256
0.0042384877
0.0047441968
0.0051778914
0.0055169616
0.0057428745
0.0058430184
0.0058121104
0.0056529359
0.0053762733
0.0049999437
0.0045469388
0.0040432146
0.0035177203
0.0030001978
0.0024857097
0.0019369739
0.0022920162
0.0013716696
0.00075224473
0.00030178717
-6.0569928e-05
-0.00034493928
-0.00056290706
-0.00072754861
-0.00084814121
-0.00093013135
-0.00097569388
-0.00098405518
-0.00095196303
-0.00087433422
-0.00074501242
-0.00055761375
-0.00030644935
1.2499363e-05
0.00040060331
0.00085567306
0.0013712066
0.0019359781
0.0025337209
0.003143555
0.0037407001
0.0042977969
0.004786705
0.0051806587
0.0054565879
0.0055973391
0.0055935018
0.0054445509
0.0051591006
0.0047541489
0.0042531976
0.003683914
0.0030785317
0.0024712792
0.0018538797
0.0011788247
0.0022219411
0.00119696
0.00051339174
2.0792992e-05
-0.00037448068
-0.00068637519
-0.00092987438
-0.0011210164
-0.0012710432
-0.0013864807
-0.0014698316
-0.0015199935
-0.0015328204
-0.0015018391
-0.0014190782
-0.0012760031
-0.0010645387
-0.00077815867
-0.00041300635
3.0999771e-05
0.00054920006
0.0011317874
0.0017627894
0.0024207728
0.0030792156
0.0037077793
0.004274172
0.0047464961
0.0050959074
0.0052993081
0.0053417324
0.0052180659
0.0049338091
0.0045046716
0.0039547716
0.0033141738
0.0026196325
0.0019114847
0.0011791976
0.0003653071
0.0019640671
0.00084321489
0.00010016352
-0.00043276066
-0.00086116457
-0.0012026819
-0.0014754765
-0.0016982724
-0.0018840083
-0.0020400411
-0.0021689719
-0.0022691572
-0.0023353526
-0.0023594828
-0.0023315236
-0.0022405081
-0.0020756327
-0.001827451
-0.0014891402
-0.0010578109
-0.00053575061
6.9503728e-05
0.00074248361
0.0014616157
0.0021987649
0.0029204079
0.0035895039
0.004168009
0.0046199009
0.0049144383
0.0050292678
0.0049529367
0.0046864036
0.0042431987
0.0036478383
0.0029332709
0.0021419497
0.0013219771
0.00046132616
-0.00050778066
0.0014949
0.00028781718
-0.00050939433
-0.0010803085
-0.0015416502
-0.0019146294
-0.0022204142
-0.0024801804
-0.0027083404
-0.0029128787
-0.0030963079
-0.0032562676
-0.0033862405
-0.0034763554
-0.0035143006
-0.003486376
-0.0033786601
-0.0031782951
-0.0028748866
-0.002461915
-0.0019380846
-0.001309604
-0.00058890516
0.00020255555
0.0010353321
0.0018727449
0.0026725588
0.0033895912
0.0039790996
0.0044006862
0.0046223021
0.0046238142
0.0043995762
0.0039594571
0.0033276846
0.0025402871
0.0016465183
0.00070399201
-0.0003002917
-0.0014453337
0.00079324408
-0.00048950638
-0.0013350296
-0.0019412951
-0.0024352088
-0.0028414527
-0.0031840471
-0.0034864217
-0.0037642885
-0.0040261116
-0.0042741854
-0.0045053137
-0.0047115799
-0.0048811621
-0.0049992485
-0.0050491063
-0.0050132816
-0.0048749461
-0.0046194169
-0.0042357852
-0.0037185979
-0.0030697748
-0.0022994247
-0.0014274517
-0.00048372659
0.0004923006
0.0014530269
0.0023452746
0.0031139805
0.00370679
0.0040791302
0.0041991316
0.0040516583
0.0036406274
0.0029886181
0.0021344957
0.001135282
5.9977065e-05
-0.0011050108
-0.002451257
-0.00015941498
-0.0015063445
-0.0023938918
-0.0030326909
-0.0035587616
-0.0040001405
-0.0043835599
-0.0047345378
-0.0050699632
-0.0053986959
-0.0057227534
-0.006038055
-0.0063352264
-0.0066003983
-0.006816092
-0.0069622697
-0.0070175294
-0.0069604796
-0.0067713489
-0.0064338123
-0.0059369688
-0.005277433
-0.0044611328
-0.0035050574
-0.0024382681
-0.0013021241
-0.00014934034
0.00095835468
0.0019540669
0.0027709931
0.0033486974
0.0036397078
0.0036154944
0.0032706535
0.002623799
0.0017157196
0.00061191553
-0.00060521782
-0.0019495242
-0.0035268175
-0.0013784149
-0.0027771879
-0.0037001036
-0.0043684975
-0.0049262865
-0.0054047175
-0.0058331013
-0.0062389126
-0.0066401505
-0.0070460586
-0.0074583992
-0.0078722436
-0.0082767845
-0.0086560879
-0.008989913
-0.0092547019
-0.0094247268
-0.0094734483
-0.0093751802
-0.0091070689
-0.0086513541
-0.0079978332
-0.0071463019
-0.006108945
-0.0049122086
-0.0035978753
-0.0022228957
-0.00085757699
0.00041816975
0.0015206038
0.0023696815
0.0028976239
0.0030574037
0.0028295424
0.0022250446
0.001284697
8.2708146e-05
-0.001283048
-0.0028262905
-0.0046689132
-0.0028754079
-0.0043130128
-0.0052643587
-0.0059592936
-0.006548265
-0.0070655547
-0.0075429292
-0.0080097267
-0.0084850552
-0.0089786099
-0.0094920097