/*--------------------------------*- C++ -*----------------------------------*\
  =========                 |
  \\      /  F ield         | OpenFOAM: The Open Source CFD Toolbox
   \\    /   O peration     | Website:  https://openfoam.org
    \\  /    A nd           | Version:  7
     \\/     M anipulation  |
\*---------------------------------------------------------------------------*/
FoamFile
{
    version     2.0;
    format      ascii;
    class       surfaceScalarField;
    location    "7";
    object      phi;
}
// * * * * * * * * * * * * * * * * * * * * * * * * * * * * * * * * * * * * * //

dimensions      [0 3 -1 0 0 0 0];

internalField   nonuniform List<scalar> 
45600
(
2.6565204e-07
-2.5792327e-07
6.5488168e-12
3.7246073e-07
-1.067758e-07
-2.9698365e-11
9.8381149e-08
2.7410786e-07
-1.8309492e-11
-5.7887117e-07
6.7725053e-07
-4.219294e-12
-1.6189926e-06
1.040121e-06
5.4904605e-12
-2.9543174e-06
1.3353153e-06
1.2959015e-11
-4.5137101e-06
1.5593712e-06
1.8478376e-11
-6.2318447e-06
1.7181167e-06
2.2810111e-11
-8.0516233e-06
1.8197483e-06
2.5778253e-11
-9.9235789e-06
1.8719278e-06
2.7509607e-11
-1.1804188e-05
1.8805888e-06
2.8646509e-11
-1.365382e-05
1.8496052e-06
2.8989605e-11
-1.5434794e-05
1.7809406e-06
2.851797e-11
-1.7109894e-05
1.6750687e-06
2.7663418e-11
-1.8641469e-05
1.5315517e-06
2.6559654e-11
-1.9991191e-05
1.3497004e-06
2.4994013e-11
-2.112046e-05
1.1292462e-06
2.2884954e-11
-2.1991458e-05
8.7097473e-07
2.0397894e-11
-2.2568761e-05
5.7728177e-07
1.7740474e-11
-2.2821395e-05
2.526181e-07
1.4959522e-11
-2.2725188e-05
-9.621914e-08
1.1982938e-11
-2.2265191e-05
-4.600051e-07
8.8093666e-12
-2.1438072e-05
-8.2712558e-07
5.5610373e-12
-2.025411e-05
-1.1839664e-06
2.3956354e-12
-1.8738628e-05
-1.5154847e-06
-5.4076107e-13
-1.6932619e-05
-1.8060093e-06
-3.1285542e-12
-1.4892385e-05
-2.0402321e-06
-5.2787644e-12
-1.268807e-05
-2.2043115e-06
-6.915624e-12
-1.040107e-05
-2.2869945e-06
-7.9442238e-12
-8.1204154e-06
-2.2806493e-06
-8.2651075e-12
-5.9383053e-06
-2.1821048e-06
-7.8183634e-12
-3.9450804e-06
-1.9932206e-06
-6.6084673e-12
-2.2239053e-06
-1.7211725e-06
-4.6749251e-12
-8.4531332e-07
-1.3785916e-06
-2.0432693e-12
1.3887777e-07
-9.841928e-07
1.070492e-12
7.0383016e-07
-5.6495562e-07
3.6009857e-12
8.5829378e-07
-1.5446944e-07
6.7338288e-12
6.6540298e-07
1.9288075e-07
1.038416e-11
2.7852819e-07
3.8686008e-07
1.4231163e-11
2.7851989e-07
7.7750788e-12
1.1840183e-07
-3.7629377e-07
-2.7764235e-11
-3.1786953e-07
3.2952975e-07
-2.666314e-11
-1.5969223e-06
1.5531664e-06
-1.8344249e-11
-3.7768209e-06
2.8571611e-06
-1.1712589e-11
-6.7862555e-06
4.0495665e-06
-8.1750686e-12
-1.04975e-05
5.0465679e-06
-6.0155804e-12
-1.4761417e-05
5.8232796e-06
-4.442927e-12
-1.9428341e-05
6.3850417e-06
-2.9328575e-12
-2.4357618e-05
6.7490287e-06
-1.7404775e-12
-2.9420128e-05
6.9344374e-06
-1.0311711e-12
-3.4497207e-05
6.9576633e-06
-3.491796e-13
-3.9477954e-05
6.830343e-06
3.549937e-13
-4.4256215e-05
6.5591946e-06
1.0485313e-12
-4.8728146e-05
6.1469953e-06
1.9390292e-12
-5.2790828e-05
5.5942297e-06
3.1043167e-12
-5.6342213e-05
4.901078e-06
4.4283796e-12
-5.9282479e-05
4.0695003e-06
5.9083471e-12
-6.1516739e-05
3.1052219e-06
7.6727481e-12
-6.2958932e-05
2.0194621e-06
9.8183956e-12
-6.3536578e-05
8.3025298e-07
1.2285151e-11
-6.3196277e-05
-4.3653338e-07
1.4887422e-11
-6.1908696e-05
-1.747602e-06
1.7558369e-11
-5.9674113e-05
-3.0617276e-06
2.022142e-11
-5.6526284e-05
-4.3318181e-06
2.2814702e-11
-5.2535245e-05
-5.5065486e-06
2.5218473e-11
-4.780819e-05
-6.5330909e-06
2.727552e-11
-4.2488107e-05
-7.3603428e-06
2.8829415e-11
-3.6749951e-05
-7.9424955e-06
2.975369e-11
-3.0794309e-05
-8.2426647e-06
2.9974447e-11
-2.4838716e-05
-8.2362706e-06
2.9467464e-11
-1.9106973e-05
-7.9138764e-06
2.8239388e-11
-1.381694e-05
-7.2832802e-06
2.6326647e-11
-9.1672939e-06
-6.370843e-06
2.3812095e-11
-5.3235396e-06
-5.2223679e-06
2.0841633e-11
-2.4033449e-06
-3.904407e-06
1.7577744e-11
-4.6128684e-07
-2.5070297e-06
1.4084665e-11
5.3396555e-07
-1.1497335e-06
1.0506177e-11
7.2746018e-07
-6.228486e-10
8.7885425e-12
3.897933e-07
7.245177e-07
9.6411766e-12
6.6830982e-07
2.8810208e-12
-2.7309062e-07
-1.0316954e-07
-2.4236024e-11
-1.5867154e-06
1.6431555e-06
-1.333961e-11
-4.1499072e-06
4.116369e-06
-8.3933141e-12
-7.9727093e-06
6.6799792e-06
-2.2177649e-12
-1.2949287e-05
9.0261356e-06
3.1800649e-12
-1.8907842e-05
1.1005113e-05
7.2614663e-12
-2.5647099e-05
1.2562526e-05
1.0570145e-11
-3.2959427e-05
1.3697365e-05
1.3200137e-11
-4.0643243e-05
1.4432828e-05
1.4876534e-11
-4.850777e-05
1.4798947e-05
1.5809331e-11
-5.6373283e-05
1.4823161e-05
1.6494107e-11
-6.4068997e-05
1.4526041e-05
1.6842896e-11
-7.1430282e-05
1.392046e-05
1.6785693e-11
-7.8296368e-05
1.3013064e-05
1.6598855e-11
-8.4509305e-05
1.180715e-05
1.6409484e-11
-8.9914544e-05
1.03063e-05
1.6093937e-11
-9.4363305e-05
8.5182425e-06
1.5612414e-11
-9.7716646e-05
6.4585453e-06
1.5073131e-11
-9.985101e-05
4.1538089e-06
1.458229e-11
-0.00010066488
1.644105e-06
1.4137571e-11
-0.00010008586
-1.0155686e-06
1.3664052e-11
-9.8078029e-05
-3.7554455e-06
1.3135555e-11
-9.4648439e-05
-6.4913319e-06
1.2595577e-11
-8.9852396e-05
-9.1278768e-06
1.2085973e-11
-8.3796782e-05
-1.1562179e-05
1.1612896e-11
-7.6640842e-05
-1.3689046e-05
1.1162532e-11
-6.8593965e-05
-1.5407234e-05
1.0716684e-11
-5.9910145e-05
-1.6626329e-05
1.0270275e-11
-5.0879049e-05
-1.7273773e-05
9.8442415e-12
-4.1813844e-05
-1.7301489e-05
9.4698532e-12
-3.303617e-05
-1.6691561e-05
9.1705544e-12
-2.4858865e-05
-1.5460595e-05
8.959054e-12
-1.7567074e-05
-1.3662643e-05
8.841666e-12
-1.1398396e-05
-1.1391055e-05
8.8256089e-12
-6.5225478e-06
-8.7802641e-06
8.9064405e-12
-3.0203421e-06
-6.0092453e-06
9.0130206e-12
-8.6105607e-07
-3.3090299e-06
8.9229999e-12
1.1524766e-07
-9.7693679e-07
9.2869103e-12
2.3389187e-07
6.0586246e-07
1.063818e-11
9.0219467e-07
6.4217415e-12
-7.2111143e-07
6.1795079e-07
-1.5261491e-11
-3.0581346e-06
3.9801895e-06
-3.8612609e-13
-7.0460033e-06
8.1042386e-06
-2.0498093e-12
-1.2603316e-05
1.2237291e-05
1.7065812e-12
-1.9562696e-05
1.5985505e-05
7.1170237e-12
-2.7703798e-05
1.9146202e-05
1.1057134e-11
-3.6780483e-05
2.1639194e-05
1.401563e-11
-4.6540012e-05
2.3456884e-05
1.6399154e-11
-5.6734347e-05
2.4627143e-05
1.7924243e-11
-6.7125052e-05
2.5189629e-05
1.8735053e-11
-7.7484051e-05
2.5182142e-05
1.9276536e-11
-8.7592084e-05
2.4634054e-05
1.9464949e-11
-9.7236462e-05
2.3564814e-05
1.9235928e-11
-0.00010620935
2.198593e-05
1.8842184e-11
-0.0001143074
1.9905176e-05
1.8419219e-11
-0.00012133311
1.7332e-05
1.7856332e-11
-0.00012709822
1.4283331e-05
1.7085635e-11
-0.00013142881
1.0789116e-05
1.6183752e-11
-0.0001341721
6.8970803e-06
1.5260448e-11
-0.00013520429
2.6762836e-06
1.4345842e-11
-0.0001344389
-1.780977e-06
1.340135e-11
-0.00013183523
-6.3591199e-06
1.238514e-11
-0.00012740579
-1.0920786e-05
1.1349951e-11
-0.00012122227
-1.5311412e-05
1.0349853e-11
-0.0001134193
-1.9365161e-05
9.4133673e-12
-0.00010419526
-2.2913094e-05
8.5593302e-12
-9.3809629e-05
-2.5792872e-05
7.7999617e-12
-8.2576459e-05
-2.7859507e-05
7.1508562e-12
-7.0853829e-05
-2.8996411e-05
6.640023e-12
-5.902937e-05
-2.9125955e-05
6.305009e-12
-4.7502237e-05
-2.8218701e-05
6.1782965e-12
-3.6662189e-05
-2.6300651e-05
6.2754725e-12
-2.6866637e-05
-2.3458203e-05
6.5837113e-12
-1.8416662e-05
-1.9841039e-05
7.05871e-12
-1.1533026e-05
-1.5663908e-05
7.6392064e-12
-6.3330359e-06
-1.1209245e-05
8.3050206e-12
-2.8089943e-06
-6.8330814e-06
9.0500183e-12
-8.1150432e-07
-2.9744374e-06
9.573561e-12
-3.4253546e-08
-1.7139927e-07
9.4832296e-12
8.6793087e-07
9.3026502e-12
-1.1757905e-06
1.7937511e-06
-1.2228735e-11
-4.574565e-06
7.3789659e-06
9.6378148e-12
-1.0040343e-05
1.3570015e-05
2.2159166e-12
-1.7368174e-05
1.9565116e-05
3.527101e-12
-2.6308608e-05
2.4925929e-05
8.2097049e-12
-3.6583145e-05
2.9420731e-05
1.1108523e-11
-4.7900104e-05
3.2956141e-05
1.3057675e-11
-5.996689e-05
3.5523659e-05
1.4665269e-11
-7.249756e-05
3.7157795e-05
1.5685864e-11
-8.5216007e-05
3.7908058e-05
1.6191596e-11
-9.7856102e-05
3.7822221e-05
1.6576783e-11
-0.00011016015
3.6938082e-05
1.6727339e-11
-0.00012187697
3.5281618e-05
1.6564937e-11
-0.00013276074
3.2869676e-05
1.629842e-11
-0.00014257121
2.971563e-05
1.6058452e-11
-0.00015107588
2.583666e-05
1.5767124e-11
-0.00015805412
2.1261547e-05
1.5347132e-11
-0.00016330311
1.6038095e-05
1.4836595e-11
-0.00016664551
1.0239457e-05
1.4340462e-11
-0.00016793804
3.9688052e-06
1.389535e-11
-0.00016708079
-2.6382433e-06
1.3459068e-11
-0.00016402627
-9.413654e-06
1.2988377e-11
-0.00015878772
-1.6159355e-05
1.2495368e-11
-0.00015144576
-2.2653379e-05
1.2005852e-11
-0.0001421528
-2.8658138e-05
1.1534593e-11
-0.00013113424
-3.3931665e-05
1.1089235e-11
-0.00011868608
-3.8241046e-05
1.0666028e-11
-0.00010516818
-4.1377417e-05
1.0262126e-11
-9.099303e-05
-4.3171575e-05
9.8815178e-12
-7.6609882e-05
-4.3509113e-05
9.5453298e-12
-6.2484678e-05
-4.2343914e-05
9.2860582e-12
-4.9076375e-05
-3.9708963e-05
9.1317871e-12
-3.6810793e-05
-3.5723795e-05
9.088217e-12
-2.6053347e-05
-3.0598496e-05
9.1100473e-12
-1.7082281e-05
-2.4634986e-05
9.1261926e-12
-1.006412e-05
-1.8227416e-05
9.2658904e-12
-5.0331978e-06
-1.1864014e-05
9.8872366e-12
-1.8778883e-06
-6.1297579e-06
9.6124723e-12
-3.3631071e-07
-1.7129858e-06
6.7239199e-12
5.3160741e-07
1.1492622e-11
-1.6124577e-06
3.4062218e-06
-1.0565961e-11
-6.0621781e-06
1.1828668e-05
1.8002542e-11
-1.300234e-05
2.0510166e-05
5.9528513e-12
-2.20923e-05
2.8655069e-05
5.8958402e-12
-3.2987971e-05
3.5821592e-05
1.0377598e-11
-4.5344504e-05
4.1777255e-05
1.2558249e-11
-5.8821737e-05
4.643336e-05
1.3776268e-11
-7.3088855e-05
4.9790767e-05
1.4890258e-11
-8.7826968e-05
5.189589e-05
1.5591263e-11
-0.00010272931
5.2810377e-05
1.5930506e-11
-0.00011749976
5.2592655e-05
1.6207978e-11
-0.00013185062
5.1288928e-05
1.6295836e-11
-0.00014550057
4.8931556e-05
1.6114004e-11
-0.00015817371
4.554279e-05
1.583657e-11
-0.00016960016
4.1142071e-05
1.5597145e-11
-0.00017951877
3.5755254e-05
1.5347623e-11
-0.00018768168
2.9424435e-05
1.499266e-11
-0.00019386085
2.2217255e-05
1.4546408e-11
-0.00019785621
1.4234798e-05
1.4107663e-11
-0.00019950481
5.6173885e-06
1.372675e-11
-0.0001986907
-3.4523701e-06
1.3364043e-11
-0.00019535467
-1.2749689e-05
1.2979517e-11
-0.00018950347
-2.2010571e-05
1.256899e-11
-0.00018121737
-3.093949e-05
1.2151236e-11
-0.00017065568
-3.921985e-05
1.1740988e-11
-0.00015805908
-4.6528275e-05
1.1347217e-11
-0.00014374824
-5.2551895e-05
1.0971208e-11
-0.00012811779
-5.7007885e-05
1.0611751e-11
-0.00011162521
-5.9664167e-05
1.0268378e-11
-9.477448e-05
-6.0359853e-05
9.9516399e-12
-7.8094549e-05
-5.9023855e-05
9.6862413e-12
-6.2113409e-05
-5.5690112e-05
9.5020294e-12
-4.7329006e-05
-5.0508208e-05
9.4162683e-12
-3.4178742e-05
-4.3748771e-05
9.3824695e-12
-2.3009786e-05
-3.5803953e-05
9.3015727e-12
-1.4052648e-05
-2.7184566e-05
9.4179086e-12
-7.4006917e-06
-1.8515983e-05
1.0406218e-11
-2.998663e-06
-1.0531798e-05
9.6483431e-12
-6.4343256e-07
-4.0682229e-06
4.098381e-12
-1.118403e-07
1.3754845e-11
-2.0242982e-06
5.4305277e-06
-9.779979e-12
-7.4879466e-06
1.7292296e-05
2.5442155e-11
-1.586397e-05
2.8886176e-05
9.0933436e-12
-2.6674817e-05
3.9465912e-05
7.9079725e-12
-3.9476636e-05
4.8623403e-05
1.2331521e-11
-5.3853522e-05
5.6154132e-05
1.3929236e-11
-6.9414531e-05
6.1994354e-05
1.4589906e-11
-8.5791244e-05
6.6167466e-05
1.5344674e-11
-0.00010263504
6.8739662e-05
1.5831862e-11
-0.00011961363
6.9788953e-05
1.6071999e-11
-0.00013640733
6.9386336e-05
1.6242086e-11
-0.00015270544
6.7587027e-05
1.6245115e-11
-0.00016820363
6.4429721e-05
1.6022612e-11
-0.00018260266
5.9941809e-05
1.5711047e-11
-0.00019560915
5.4148544e-05
1.5426341e-11
-0.00020693825
4.7084332e-05
1.5174951e-11
-0.00021631846
3.8804632e-05
1.4828925e-11
-0.00022349838
2.9397154e-05
1.4385574e-11
-0.00022825498
1.8991377e-05
1.3937736e-11
-0.00023040318
7.7655729e-06
1.3546818e-11
-0.00022980619
-4.0493698e-06
1.3181109e-11
-0.00022638599
-1.6169905e-05
1.2801935e-11
-0.00022013361
-2.8262961e-05
1.2391858e-11
-0.0002111182
-3.9954921e-05
1.1966531e-11
-0.00019949415
-5.0843909e-05
1.1546072e-11
-0.00018550551
-6.0516928e-05
1.1140514e-11
-0.00016948644
-6.8570978e-05
1.075639e-11
-0.00015185692
-7.463742e-05
1.0393691e-11
-0.00013311276
-7.8408331e-05
1.0054478e-11
-0.00011380949
-7.9663137e-05
9.7513022e-12
-9.4539904e-05
-7.8293449e-05
9.5053384e-12
-7.5906128e-05
-7.4323898e-05
9.339763e-12
-5.8487378e-05
-6.7926968e-05
9.2736686e-12
-4.2805702e-05
-5.9430457e-05
9.2627303e-12
-2.9292428e-05
-4.9317237e-05
9.1747738e-12
-1.825854e-05
-3.8218467e-05
9.3670826e-12
-9.8723218e-06
-2.6902214e-05
1.0834927e-11
-4.1477579e-06
-1.6256374e-05
9.6634349e-12
-9.4699379e-07
-7.2689912e-06
1.4045809e-12
-1.0588516e-06
1.5984345e-11
-2.4103082e-06
7.8408381e-06
-9.8855035e-12
-8.8378407e-06
2.3719801e-05
3.1787707e-11
-1.858957e-05
3.8637892e-05
1.1410075e-11
-3.105616e-05
5.1932496e-05
9.0319686e-12
-4.5694488e-05
6.326172e-05
1.3418125e-11
-6.2016618e-05
7.2476248e-05
1.4571115e-11
-7.958035e-05
7.9558068e-05
1.4812976e-11
-9.7980665e-05
8.4567767e-05
1.5297042e-11
-0.00011684191
8.7600887e-05
1.5651204e-11
-0.00013581051
8.8757535e-05
1.581546e-11
-0.00015454849
8.8124305e-05
1.5886389e-11
-0.00017272813
8.5766656e-05
1.5819892e-11
-0.00019002817
8.1729743e-05
1.5596837e-11
-0.00020613192
7.6045543e-05
1.5305381e-11
-0.00022072754
6.874415e-05
1.5040611e-11
-0.0002335105
5.9867276e-05
1.4799165e-11
-0.00024418815
4.9482273e-05
1.4492053e-11
-0.00025248631
3.7695297e-05
1.409461e-11
-0.00025815749
2.4662537e-05
1.3692824e-11
-0.00026099059
1.0598665e-05
1.3349386e-11
-0.00026082173
-4.2182447e-06
1.3035448e-11
-0.00025754543
-1.944622e-05
1.2715543e-11
-0.00025112645
-3.4681944e-05
1.235534e-11
-0.0002416107
-4.9470691e-05
1.1966102e-11
-0.00022913481
-6.3319811e-05
1.1572232e-11
-0.00021393343
-7.5718326e-05
1.1192524e-11
-0.00019634268
-8.6161738e-05
1.0831464e-11
-0.0001767987
-9.4181405e-05
1.0481848e-11
-0.00015582987
-9.9377173e-05
1.014097e-11
-0.00013404175
-0.00010145127
9.8279084e-12
-0.00011209441
-0.0001002408
9.5745723e-12
-9.0672474e-05
-9.5745845e-05
9.405228e-12
-7.0449358e-05
-8.8150095e-05
9.3342476e-12
-5.2048221e-05
-7.7831605e-05
9.3078691e-12
-3.6003042e-05
-6.5362429e-05
9.1509855e-12
-2.2723805e-05
-5.1497715e-05
9.3536921e-12
-1.2469905e-05
-3.7156128e-05
1.1261045e-11
-5.3356795e-06
-2.3390611e-05
9.6413868e-12
-1.2513624e-06
-1.135331e-05
-1.387577e-12
-2.3102339e-06
1.8254694e-11
-2.7704305e-06
1.0611279e-05
-1.0636182e-11
-1.0104341e-05
3.1053682e-05
3.6915595e-11
-2.1157074e-05
4.9690615e-05
1.289029e-11
-3.5196024e-05
6.5971442e-05
9.4471271e-12
-5.1583155e-05
7.9648838e-05
1.3923671e-11
-6.9760653e-05
9.0653731e-05
1.4780268e-11
-8.9236608e-05
9.9034007e-05
1.4738385e-11
-0.00010957136
0.0001049025
1.505336e-11
-0.00013036508
0.0001083946
1.5288477e-11
-0.00015124678
0.00010963922
1.5367321e-11
-0.00017186492
0.00010874243
1.5331323e-11
-0.00019187998
0.0001057817
1.5206081e-11
-0.0002109592
0.00010080894
1.5000864e-11
-0.00022877357
9.3859901e-05
1.4735027e-11
-0.00024499731
8.4967875e-05
1.4478795e-11
-0.00025930958
7.4179531e-05
1.4250014e-11
-0.00027139848
6.157115e-05
1.398549e-11
-0.00028096704
4.7263843e-05
1.3649699e-11
-0.00028774118
3.1436658e-05
1.3313729e-11
-0.00029147927
1.4336742e-05
1.3034861e-11
-0.00029198336
-3.7141735e-06
1.2784754e-11
-0.00028911108
-2.2318516e-05
1.255382e-11
-0.00028278945
-4.1003589e-05
1.2268996e-11
-0.00027302794
-5.9232213e-05
1.1943157e-11
-0.00025993136
-7.6416399e-05
1.1603236e-11
-0.0002437109
-9.1938804e-05
1.1272231e-11
-0.00022469178
-0.00010518087
1.0952905e-11
-0.0002033159
-0.00011555729
1.0632292e-11
-0.00018013758
-0.00012255551
1.0299995e-11
-0.00015581075
-0.00012577811
9.9745557e-12
-0.00013106674
-0.00012498481
9.6949718e-12
-0.00010668264
-0.00012012996
9.4930962e-12
-8.3441401e-05
-0.00011139134
9.3941977e-12
-6.208682e-05
-9.9186197e-05
9.3401402e-12
-4.3277216e-05
-8.4172045e-05
9.1007563e-12
-2.7542944e-05
-6.7231999e-05
9.3058302e-12
-1.5252725e-05
-4.9446362e-05
1.1669951e-11
-6.593462e-06
-3.2049887e-05
9.5942707e-12
-1.5668324e-06
-1.6379938e-05
-4.3067e-12
-3.8770884e-06
2.0606957e-11
-3.1040241e-06
1.3715316e-05
-1.197581e-11
-1.1280847e-05
3.9230472e-05
4.1014078e-11
-2.3548302e-05
6.1958056e-05
1.3671627e-11
-3.9060838e-05
8.1483971e-05
9.3786598e-12
-5.7092357e-05
9.7680341e-05
1.4043357e-11
-7.7019641e-05
0.000110581
1.4737699e-11
-9.8304339e-05
0.00012031869
1.4504459e-11
-0.00012047513
0.00012707328
1.4668283e-11
-0.0001431113
0.00013103075
1.4778012e-11
-0.00016582827
0.00013235617
1.4765503e-11
-0.00018826537
0.00013117951
1.4628943e-11
-0.00021007615
0.00012759247
1.4459198e-11
-0.00023092134
0.00012165411
1.427526e-11
-0.00025046441
0.00011340296
1.4025103e-11
-0.00026836984
0.00010287329
1.3755728e-11
-0.0002843037
9.0113377e-05
1.352992e-11
-0.00029793664
7.5204078e-05
1.331474e-11
-0.00030894901
5.8276197e-05
1.3056719e-11
-0.00031703806
3.9525689e-05
1.2799272e-11
-0.00032192721
1.9225874e-05
1.2576739e-11
-0.00032337774
-2.2636539e-06
1.2350452e-11
-0.00032120057
-2.4495705e-05
1.2271198e-11
-0.00031527331
-4.6930865e-05
1.2109856e-11
-0.00030555511
-6.8950424e-05
1.1878139e-11
-0.00029210363
-8.9867889e-05
1.1616319e-11
-0.0002750908
-0.00010895165
1.1343333e-11
-0.00025481589
-0.0001254558
1.1061923e-11
-0.0002317137
-0.00013865949
1.0760645e-11
-0.00020635537
-0.00014791385
1.0430284e-11
-0.00017943941
-0.00015269408
1.0092093e-11
-0.00015177114
-0.00015265309
9.7863613e-12
-0.00012422985
-0.00014767126
9.5444804e-12
-9.7724611e-05
-0.00013789659
9.4070193e-12
-7.31418e-05
-0.00012376902
9.3194854e-12
-5.1289167e-05
-0.00010602469
8.9960459e-12
-3.2842652e-05
-8.5678525e-05
9.2184559e-12
-1.8302361e-05
-6.3986668e-05
1.2091307e-11
-7.9636235e-06
-4.2388637e-05
9.5445222e-12
-1.9068006e-06
-2.2436755e-05
-7.4319857e-12
-5.7839134e-06
2.3166062e-11
-3.4094736e-06
1.7124799e-05
-1.3851859e-11
-1.2359494e-05
4.8180455e-05
4.4218365e-11
-2.5744486e-05
7.5343029e-05
1.3869031e-11
-4.2617364e-05
9.8356838e-05
8.9614785e-12
-6.217239e-05
0.00011723535
1.3882926e-11
-8.3726993e-05
0.00013213559
1.4472928e-11
-0.00010670091
0.00014329259
1.4090068e-11
-0.00013059495
0.00015096731
1.4124077e-11
-0.00015497123
0.00015540702
1.4139288e-11
-0.00017943552
0.00015682045
1.4080839e-11
-0.00020362234
0.00015536631
1.3889052e-11
-0.00022718296
0.00015115307
1.3706055e-11
-0.00024977641
0.00014424755
1.355712e-11
-0.00027106337
0.00013468992
1.3319146e-11
-0.00029070285
0.00012251275
1.3030665e-11
-0.00030835128
0.0001077618
1.2811382e-11
-0.00032366417
9.0516953e-05
1.2650659e-11
-0.00033629987
7.0911882e-05
1.2466723e-11
-0.00034592576
4.9151564e-05
1.2269567e-11
-0.00035222666
2.5526767e-05
1.2074473e-11
-0.00035491759
4.2725618e-07
1.1790189e-11
-0.00035375329
-2.566002e-05
1.1921413e-11
-0.00034855099
-5.2133176e-05
1.1884373e-11
-0.00033920524
-7.8296186e-05
1.1755441e-11
-0.00032571025
-0.00010336289
1.1582695e-11
-0.000308181
-0.0001264809
1.1377935e-11
-0.00028687292
-0.00014676389
1.1141598e-11
-0.00026219721
-0.00016333521
1.0863754e-11
-0.00023472867
-0.0001753824
1.0539992e-11
-0.00020520256
-0.0001822202
1.019767e-11
-0.00017449755
-0.00018335811
9.8769634e-12
-0.0001436029
-0.00017856593
9.6015111e-12
-0.00011357008
-0.00016792942
9.4235941e-12
-8.5451778e-05
-0.00015188733
9.2930254e-12
-6.0233839e-05
-0.00013124264
8.8726367e-12
-3.8767885e-05
-0.00010714449
9.121716e-12
-2.1713089e-05
-8.1041478e-05
1.2571868e-11
-9.4949819e-06
-5.4606755e-05
9.5152078e-12
-2.286134e-06
-2.9645593e-05
-1.0871509e-11
-8.0700741e-06
2.6052072e-11
-3.6842261e-06
2.0809036e-05
-1.5869654e-11
-1.3330569e-05
5.7826757e-05
4.6749276e-11
-2.7724641e-05
8.9737082e-05
1.376678e-11
-4.5830024e-05
0.00011646221
8.3349056e-12
-6.6770742e-05
0.00013817606
1.3519158e-11
-8.9811872e-05
0.0001551767
1.4013861e-11
-0.00011433653
0.00016781723
1.3488321e-11
-0.00013982202
0.00017645279
1.3404822e-11
-0.00016581722
0.00018140221
1.3353692e-11
-0.00019192226
0.00018292547
1.3280825e-11
-0.0002177711
0.00018121514
1.3050968e-11
-0.00024301732
0.00017639928
1.2850322e-11
-0.00026732306
0.00016855327
1.2724066e-11
-0.00029035104
0.00015771788
1.2493619e-11
-0.00031175938
0.00014392107
1.2191532e-11
-0.000331199
0.0001272014
1.1989851e-11
-0.00034831341
0.00010763136
1.1892857e-11
-0.00036274096
8.5339417e-05
1.1782403e-11
-0.00037411948
6.0530069e-05
1.1638374e-11
-0.00038209401
3.3501281e-05
1.1581351e-11
-0.00038632583
4.6590609e-06
1.1776903e-11
-0.0003865116
-2.5474266e-05
1.158969e-11
-0.00038239468
-5.625011e-05
1.1560922e-11
-0.00037379199
-8.6898886e-05
1.1541306e-11
-0.00036061758
-0.00011653731
1.1473057e-11
-0.00034291011
-0.00014418839
1.1355906e-11
-0.00032086011
-0.0001688139
1.1187382e-11
-0.0002948342
-0.00018936113
1.0955166e-11
-0.00026539214
-0.00020482447
1.0656289e-11
-0.00023329214
-0.00021432021
1.0322474e-11
-0.00019948
-0.00021717026
9.9944275e-12
-0.00016505844
-0.00021298749
9.6891069e-12
-0.00013123564
-0.00020175223
9.4701486e-12
-9.9255021e-05
-0.00018386796
9.2871203e-12
-7.0312668e-05
-0.000160185
8.7513995e-12
-4.5471797e-05
-0.00013198537
9.0348957e-12
-2.5585617e-05
-0.00010092767
1.315457e-11
-1.123963e-05
-6.8952752e-05
9.530346e-12
-2.7204136e-06
-3.8164795e-05
-1.4743084e-11
-1.0790517e-05
2.938605e-11
-3.9250202e-06
2.4734072e-05
-1.7802922e-11
-1.4182778e-05
6.8084471e-05
4.8732478e-11
-2.9465623e-05
0.00010501991
1.3488065e-11
-4.8660661e-05
0.00013565724
7.5830432e-12
-7.0831633e-05
0.00016034702
1.2986969e-11
-9.5198718e-05
0.00017954378
1.3384865e-11
-0.00012111406
0.00019373256
1.2730847e-11
-0.00014803595
0.00020337467
1.2548785e-11
-0.00017550404
0.00020887029
1.2450303e-11
-0.00020311678
0.00021053819
1.2368965e-11
-0.00023051175
0.0002086101
1.2087631e-11
-0.00025734933
0.00020323686
1.184677e-11
-0.00028329963
0.00019450356
1.1726139e-11
-0.00030803249
0.00018245072
1.150166e-11
-0.0003312103
0.00016709887
1.119332e-11
-0.0003524834
0.00014847449
1.1014881e-11
-0.00037148783
0.00012663578
1.0984895e-11
-0.00038784554
0.00010169712
1.0956382e-11
-0.00040116723
7.3851742e-05
1.087106e-11
-0.00041105826
4.3392295e-05
1.0833221e-11
-0.00041712799
1.0728774e-05
1.0945828e-11
-0.0004190051
-2.3597168e-05
1.1007909e-11
-0.00041635453
-5.8900695e-05
1.1134402e-11
-0.000408903
-9.4350421e-05
1.1242444e-11
-0.00039646805
-0.00012897228
1.1290139e-11
-0.00037899143
-0.00016166503
1.1275916e-11
-0.0003565748
-0.00019123054
1.1194959e-11
-0.00032951427
-0.00021642167
1.1032295e-11
-0.00029832911
-0.00023600964
1.0781704e-11
-0.00026377884
-0.0002488705
1.0471963e-11
-0.00022686209
-0.00025408701
1.0141183e-11
-0.00018879171
-0.00025105789
9.8038291e-12
-0.00015094236
-0.00023960159
9.5404337e-12
-0.00011477172
-0.00022003861
9.2980972e-12
-8.1721169e-05
-0.00019323556
8.6303576e-12
-5.3107819e-05
-0.00016059873
8.9617742e-12
-3.0022726e-05
-0.00012401278
1.3873305e-11
-1.3251134e-05
-8.5724354e-05
9.6087495e-12
-3.2255986e-06
-4.8190311e-05
-1.916573e-11
-1.4016149e-05
3.3300516e-11
-4.1282162e-06
2.8862304e-05
-1.9698847e-11
-1.490404e-05
7.8860249e-05
5.0146486e-11
-3.0943294e-05
0.00012105915
1.2993575e-11
-5.1069989e-05
0.00015578394
6.6743669e-12
-7.4297737e-05
0.00018357475
1.2261523e-11
-9.9809318e-05
0.00020505535
1.2592543e-11
-0.00012693147
0.0002208547
1.1862122e-11
-0.00015510786
0.00023155105
1.1625129e-11
-0.00018387275
0.00023763517
1.1502423e-11
-0.00021282661
0.00023949204
1.1417069e-11
-0.00024161464
0.00023739811
1.1084118e-11
-0.00026990843
0.00023153064
1.0804103e-11
-0.00029739097
0.00022198609
1.0697502e-11
-0.00032374459
0.00020880434
1.0495002e-11
-0.00034864175
0.00019199602
1.0191342e-11
-0.00037173822
0.00017157094
1.0032738e-11
-0.00039266857
0.00014756612
1.0059254e-11
-0.00041104412
0.00012007265
1.0105932e-11
-0.00042645346
8.9261077e-05
1.0083655e-11
-0.00043846635
5.540517e-05
1.0068989e-11
-0.00044664152
1.8903925e-05
1.0174161e-11
-0.00045053987
-1.9698833e-05
1.0378704e-11
-0.00044974279
-5.969779e-05
1.0640725e-11
-0.00044387795
-0.00010021527
1.087365e-11
-0.00043265182
-0.00014019842
1.1037914e-11
-0.00041588881
-0.00017842806
1.1130058e-11
-0.00039357549
-0.00021354386
1.114637e-11
-0.00036590676
-0.00024409042
1.1071742e-11
-0.00033332859
-0.00026858782
1.0892933e-11
-0.00029657057
-0.00028562853
1.0625846e-11
-0.00025665938
-0.00029399822
1.0299717e-11
-0.00021490449
-0.00029281278
9.9286256e-12
-0.00017284932
-0.00028165677
9.6159652e-12
-0.00013218568
-0.00026070226
9.3078881e-12
-9.4636862e-05
-0.00023078438
8.4906376e-12
-6.182263e-05
-0.00019341297
8.8868138e-12
-3.5125859e-05
-0.00015070956
1.474051e-11
-1.558336e-05
-0.00010526686
9.7447318e-12
-3.8178912e-06
-5.9955754e-05
-2.428007e-11
-1.7834078e-05
3.7904105e-11
-4.2901981e-06
3.3152519e-05
-2.1536814e-11
-1.5482626e-05
9.0052631e-05
5.098416e-11
-3.2134466e-05
0.00013771097
1.2265398e-11
-5.3020292e-05
0.00017666976
5.6025406e-12
-7.7113599e-05
0.00020766805
1.1349081e-11
-0.00010356694
0.00023150867
1.1652203e-11
-0.0001316868
0.00024897456
1.0895147e-11
-0.00016090621
0.00026077045
1.0635147e-11
-0.00019075742
0.00026748637
1.0503079e-11
-0.00022084633
0.00026958093
1.0419496e-11
-0.0002508294
0.00026738117
1.0051478e-11
-0.00028039368
0.00026109491
9.7541397e-12
-0.00030923994
0.00025083234
9.6858083e-12
-0.00033706868
0.00023663306
9.5322909e-12
-0.00036356879
0.00021849612
9.2501071e-12
-0.00038840855
0.00019641069
9.107841e-12
-0.00041122874
0.0001703863
9.1788141e-12
-0.00043163802
0.00014048193
9.2927528e-12
-0.00044921093
0.00010683398
9.3315959e-12
-0.00046348907
6.968329e-05
9.3563264e-12
-0.00047398649
2.9401336e-05
9.4904487e-12
-0.00048020062
-1.3484718e-05
9.7609427e-12
-0.00048162941
-5.8269006e-05
1.0111761e-11
-0.00047779688
-0.0001040478
1.0449134e-11
-0.0004682874
-0.00014970792
1.0720483e-11
-0.00045278936
-0.0001939261
1.0916251e-11
-0.00043114747
-0.00023518577
1.1034668e-11
-0.00040342086
-0.00027181704
1.1061966e-11
-0.00036994212
-0.00030206656
1.0974574e-11
-0.00033136912
-0.00032420154
1.076622e-11
-0.00028871868
-0.00033664866
1.0452912e-11
-0.00024336995
-0.00033816153
1.0048121e-11
-0.00019702554
-0.00032800118
9.6789528e-12
-0.00015162407
-0.00030610373
9.2933453e-12
-0.00010920628
-0.00027320218
8.3019686e-12
-7.174897e-05
-0.00023087029
8.7786219e-12
-4.0991924e-05
-0.00018146662
1.5748718e-11
-1.8289537e-05
-0.00012796926
9.9073575e-12
-4.5136865e-06
-7.3731572e-05
-3.0260753e-11
-2.2347808e-05
4.3285037e-11
-4.4078397e-06
3.7560378e-05
-2.3170495e-11
-1.5908575e-05
0.00010155332
5.1283106e-11
-3.3019434e-05
0.00015482182
1.138171e-11
-5.4479093e-05
0.00019812941
4.4602864e-12
-7.9230408e-05
0.00023241935
1.0333562e-11
-0.00010640217
0.00025868042
1.0621613e-11
-0.0001352851
0.00027785748
9.8477962e-12
-0.00016530488
0.00029079022
9.5573135e-12
-0.00019599461
0.00029817609
9.4065657e-12
-0.00022696847
0.00030055479
9.3238699e-12
-0.0002578975
0.00029831019
8.9394416e-12
-0.00028848816
0.00029168556
8.6460708e-12
-0.0003184638
0.00028080798
8.6323991e-12
-0.0003475489
0.00026571816
8.5472263e-12
-0.00037545572
0.00024640293
8.3025487e-12
-0.00040187308
0.00022282804
8.175516e-12
-0.00042645713
0.00019497034
8.2774592e-12
-0.00044882411
0.00016284889
8.4574258e-12
-0.00046854543
0.0001265553
8.5709028e-12
-0.00048514586
8.6283708e-05
8.6519321e-12
-0.00049810561
4.236107e-05
8.8256647e-12
-0.00050686792
-4.7224128e-06
9.145402e-12
-0.00051085359
-5.428334e-05
9.5617662e-12
-0.00050948435
-0.00010541706
9.9867294e-12
-0.00050221691
-0.00015697536
1.0357431e-11
-0.00048858916
-0.00020755386
1.0655859e-11
-0.00046827879
-0.00025549615
1.0880234e-11
-0.00044117298
-0.00029892286
1.1019215e-11
-0.00040744477
-0.00033579479
1.1035718e-11
-0.00036762767
-0.00036401865
1.089303e-11
-0.00032267606
-0.00038160029
1.0595427e-11
-0.0002739945
-0.00038684309
1.0156306e-11
-0.00022341875
-0.00037857693
9.7199325e-12
-0.00017313443
-0.00035638806
9.2352016e-12
-0.00012553006
-0.00032080655
8.0316248e-12
-8.2997437e-05
-0.00027340293
8.6013198e-12
-4.770974e-05
-0.00021675433
1.688857e-11
-2.1421261e-05
-0.00015425775
1.0072506e-11
-5.3295336e-06
-8.982326e-05
-3.7269644e-11
-2.7677391e-05
4.9545813e-11
-4.479023e-06
4.2039422e-05
-2.4495872e-11
-1.6175318e-05
0.00011324957
5.1082358e-11
-3.3584981e-05
0.00017223147
1.0435238e-11
-5.5423605e-05
0.00021996803
3.3536606e-12
-8.0611855e-05
0.00025760759
9.3009845e-12
-0.00010826017
0.00028632872
9.559298e-12
-0.00013764703
0.00030724433
8.7541827e-12
-0.00016819328
0.00032133645
8.417082e-12
-0.00019943505
0.00032941785
8.2399952e-12
-0.00023099714
0.00033211687
8.1624617e-12
-0.00026256801
0.00032988104
7.7833863e-12
-0.00029387714
0.00032299469
7.5098723e-12
-0.00032467513
0.00031160596
7.5528587e-12
-0.00035471627
0.0002957593
7.5403588e-12
-0.00038374339
0.00027543004
7.340492e-12
-0.00041147463
0.00025055926
7.2255958e-12
-0.00043759191
0.00022108762
7.3470459e-12
-0.00046173115
0.00018698813
7.5857262e-12
-0.00048347438
0.00014829852
7.7819237e-12
-0.00050234443
0.00010515375
7.9376039e-12
-0.00051780319
5.7819821e-05
8.1660862e-12
-0.00052925482
6.7292108e-06
8.5369637e-12
-0.00053605594
-4.7482233e-05
9.0076506e-12
-0.00053753477
-0.00010393824
9.5124919e-12
-0.0005330224
-0.00016148774
9.9824142e-12
-0.00052189848
-0.00021867779
1.0386948e-11
-0.00050365346
-0.00027374118
1.071961e-11
-0.00047796783
-0.0003246085
1.0975295e-11
-0.00044480544
-0.0003689572
1.1102501e-11
-0.00040451358
-0.00040431052
1.1023548e-11
-0.00035791593
-0.00042819795
1.0737504e-11
-0.00030637807
-0.00043838096
1.0263199e-11
-0.00025182088
-0.00043313413
9.7499616e-12
-0.00019665816
-0.00041155079
9.1333584e-12
-0.00014364529
-0.00037381942
7.6558241e-12
-9.5646586e-05
-0.00032140164
8.3208588e-12
-5.5355652e-05
-0.00025704529
1.8157368e-11
-2.5027223e-05
-0.00018458619
1.0239356e-11
-6.2820447e-06
-0.00010856839
-4.5431728e-11
-3.3959494e-05
5.6827474e-11
-4.5032038e-06
4.654265e-05
-2.5504014e-11
-1.6281498e-05
0.00012502781
5.0411701e-11
-3.3827779e-05
0.00018977774
9.4688404e-12
-5.5845807e-05
0.00024198605
2.3205204e-12
-8.1240866e-05