/*--------------------------------*- C++ -*----------------------------------*\
  =========                 |
  \\      /  F ield         | OpenFOAM: The Open Source CFD Toolbox
   \\    /   O peration     | Website:  https://openfoam.org
    \\  /    A nd           | Version:  7
     \\/     M anipulation  |
\*---------------------------------------------------------------------------*/
FoamFile
{
    version     2.0;
    format      ascii;
    class       surfaceScalarField;
    location    "7";
    object      phi_0;
}
// * * * * * * * * * * * * * * * * * * * * * * * * * * * * * * * * * * * * * //

dimensions      [0 3 -1 0 0 0 0];

internalField   nonuniform List<scalar> 
45600
(
2.6674728e-07
-2.5665365e-07
5.9725755e-11
3.7297858e-07
-1.0624797e-07
6.5644203e-12
9.8694846e-08
2.7427722e-07
1.0758e-11
-5.7857747e-07
6.7725334e-07
2.1894919e-11
-1.6185964e-06
1.039988e-06
2.8745603e-11
-2.9537101e-06
1.3350823e-06
3.4007174e-11
-4.5127995e-06
1.5590577e-06
3.7303013e-11
-6.2305895e-06
1.7177458e-06
3.8842242e-11
-8.0499735e-06
1.8193447e-06
3.9551015e-11
-9.9215027e-06
1.8714984e-06
3.9582344e-11
-1.1801689e-05
1.8801431e-06
3.8414759e-11
-1.3650889e-05
1.8491637e-06
3.6643401e-11
-1.5431431e-05
1.7805169e-06
3.4814717e-11
-1.710613e-05
1.6746682e-06
3.2778053e-11
-1.863735e-05
1.5311843e-06
3.0405239e-11
-1.998676e-05
1.3493824e-06
2.7847951e-11
-2.1115771e-05
1.1289929e-06
2.5207056e-11
-2.1986587e-05
8.7079706e-07
2.2363203e-11
-2.2563797e-05
5.7718794e-07
1.9214917e-11
-2.2816434e-05
2.5261583e-07
1.581057e-11
-2.2720324e-05
-9.612356e-08
1.2303484e-11
-2.2260522e-05
-4.5980917e-07
8.8380706e-12
-2.1433693e-05
-8.2683191e-07
5.4793271e-12
-2.0250112e-05
-1.1835832e-06
2.2492102e-12
-1.8735088e-05
-1.5150255e-06
-7.959247e-13
-1.6929596e-05
-1.8054918e-06
-3.5173318e-12
-1.4889916e-05
-2.0396771e-06
-5.7555751e-12
-1.2686168e-05
-2.2037423e-06
-7.3773174e-12
-1.0399723e-05
-2.2864365e-06
-8.3049144e-12
-8.1195873e-06
-2.2801283e-06
-8.4985769e-12
-5.9379363e-06
-2.1816453e-06
-7.9382485e-12
-3.9450897e-06
-1.9928432e-06
-6.6415938e-12
-2.2241961e-06
-1.7208929e-06
-4.6533512e-12
-8.4577935e-07
-1.3784184e-06
-1.9905916e-12
1.3834398e-07
-9.841268e-07
1.1610328e-12
7.0333337e-07
-5.6499383e-07
3.7458327e-12
8.579147e-07
-1.5458844e-07
6.931728e-12
6.6518703e-07
1.9271614e-07
1.0600366e-11
2.78464e-07
3.867072e-07
1.4427812e-11
2.7845473e-07
7.9417926e-12
1.1873504e-07
-3.7540727e-07
7.606361e-12
-3.1756477e-07
3.3004639e-07
6.4238609e-12
-1.5965002e-06
1.5532019e-06
1.1357136e-11
-3.7760517e-06
2.8567835e-06
1.5391562e-11
-6.7849014e-06
4.0488193e-06
1.6821262e-11
-1.0495356e-05
5.0455158e-06
1.6572938e-11
-1.4758299e-05
5.8219914e-06
1.5507785e-11
-1.9424134e-05
6.3835698e-06
1.423368e-11
-2.435224e-05
6.7474273e-06
1.2941934e-11
-2.9413519e-05
6.9327681e-06
1.1670152e-11
-3.4489357e-05
6.9559755e-06
1.0122411e-11
-3.9468878e-05
6.8286758e-06
8.6794845e-12
-4.4245962e-05
6.5575898e-06
7.7800278e-12
-4.8716804e-05
6.1454997e-06
7.3665553e-12
-5.2778516e-05
5.5928902e-06
7.3162303e-12
-5.6329077e-05
4.899939e-06
7.6847825e-12
-5.9268697e-05
4.0686037e-06
8.5154767e-12
-6.1502521e-05
3.1046069e-06
9.7143051e-12
-6.2944514e-05
2.0191635e-06
1.122659e-11
-6.352221e-05
8.3029731e-07
1.3052882e-11
-6.3182214e-05
-4.3613143e-07
1.5177527e-11
-6.1895195e-05
-1.7468418e-06
1.759571e-11
-5.966142e-05
-3.0606243e-06
2.0131919e-11
-5.6514623e-05
-4.3304027e-06
2.2602599e-11
-5.2524807e-05
-5.5048676e-06
2.4847797e-11
-4.779912e-05
-6.5312051e-06
2.676689e-11
-4.2480497e-05
-7.3583254e-06
2.8269609e-11
-3.6743836e-05
-7.9404293e-06
2.9249374e-11
-3.0789662e-05
-8.2406371e-06
2.9595938e-11
-2.4835451e-05
-8.2343683e-06
2.9229826e-11
-1.9104946e-05
-7.9121804e-06
2.8128304e-11
-1.3815959e-05
-7.2818598e-06
2.6311115e-11
-9.1671296e-06
-6.3697507e-06
2.3840825e-11
-5.3239395e-06
-5.2216346e-06
2.0861946e-11
-2.4040527e-06
-3.9040376e-06
1.757797e-11
-4.6206781e-07
-2.5069994e-06
1.4099555e-11
5.3330524e-07
-1.1499774e-06
1.0563336e-11
7.2704347e-07
-1.0344237e-09
8.8681381e-12
3.8964054e-07
7.2409834e-07
9.7203567e-12
6.6809179e-07
2.9788269e-12
-2.729423e-07
-1.0246624e-07
4.4585657e-12
-1.5863144e-06
1.6434079e-06
1.6092405e-11
-4.1490101e-06
4.1158769e-06
1.9366957e-11
-7.9710049e-06
6.6787496e-06
2.3864418e-11
-1.2946442e-05
9.0242355e-06
2.7570393e-11
-1.8903583e-05
1.100263e-05
2.9220241e-11
-2.56412e-05
1.2559573e-05
2.9769963e-11
-3.2951727e-05
1.3694066e-05
2.9769949e-11
-4.063362e-05
1.44293e-05
2.9275808e-11
-4.8496167e-05
1.4795294e-05
2.8202771e-11
-5.6359707e-05
1.4819484e-05
2.6507728e-11
-6.4053494e-05
1.4522435e-05
2.477603e-11
-7.1412943e-05
1.3917022e-05
2.3376615e-11
-7.8277348e-05
1.3009888e-05
2.2108155e-11
-8.4488809e-05
1.180433e-05
2.07517e-11
-8.9892818e-05
1.0303927e-05
1.9385113e-11
-9.4340635e-05
8.5164029e-06
1.8139175e-11
-9.7693364e-05
6.4573184e-06
1.6983457e-11
-9.9827479e-05
4.1532604e-06
1.5892047e-11
-0.00010064148
1.6442816e-06
1.4877726e-11
-0.00010006298
-1.0146444e-06
1.3971841e-11
-9.8056055e-05
-3.7537793e-06
1.3184509e-11
-9.4627733e-05
-6.4889593e-06
1.2487403e-11
-8.9833286e-05
-9.1248645e-06
1.1837218e-11
-8.3779545e-05
-1.1558624e-05
1.1216949e-11
-7.662569e-05
-1.3685073e-05
1.0654146e-11
-6.8581034e-05
-1.5402993e-05
1.0178156e-11
-5.989949e-05
-1.6621985e-05
9.7866033e-12
-5.0870638e-05
-1.72695e-05
9.4526887e-12
-4.1807559e-05
-1.7297459e-05
9.1733627e-12
-3.3031817e-05
-1.6687936e-05
8.9709624e-12
-2.4856177e-05
-1.5457512e-05
8.8562439e-12
-1.7565732e-05
-1.3660206e-05
8.8174728e-12
-1.1398049e-05
-1.1389328e-05
8.838792e-12
-6.5228374e-06
-8.7792597e-06
8.9202689e-12
-3.0209325e-06
-6.0089162e-06
9.013718e-12
-8.6166261e-07
-3.3092588e-06
8.9158095e-12
1.1482093e-07
-9.7752883e-07
9.2677761e-12
2.337222e-07
6.051856e-07
1.0607534e-11
9.0180767e-07
6.4151229e-12
-7.2089007e-07
6.1841244e-07
1.0834161e-11
-3.0573936e-06
3.979875e-06
2.6500844e-11
-7.0443357e-06
8.1027978e-06
2.4126443e-11
-1.2600311e-05
1.2234703e-05
2.6590372e-11
-1.9557971e-05
1.598186e-05
3.0037521e-11
-2.7697026e-05
1.9141649e-05
3.1613413e-11
-3.6771396e-05
2.1633914e-05
3.2350845e-11
-4.6528431e-05
2.345107e-05
3.2325704e-11
-5.6720147e-05
2.4620983e-05
3.1610888e-11
-6.7108183e-05
2.5183301e-05
3.0364629e-11
-7.7464544e-05
2.5175813e-05
2.8687666e-11
-8.7570023e-05
2.4627888e-05
2.7056761e-11
-9.7211994e-05
2.3558973e-05
2.5664445e-11
-0.0001061827
2.198057e-05
2.4268914e-11
-0.00011427885
1.9900452e-05
2.2678206e-11
-0.00012130301
1.7328063e-05
2.1000746e-11
-0.00012706694
1.4280321e-05
1.9400839e-11
-0.0001313968
1.0787157e-05
1.7880185e-11
-0.00013413983
6.8962712e-06
1.6424371e-11
-0.00013517225
2.6766911e-06
1.5027827e-11
-0.00013440759
-1.7793251e-06
1.3685803e-11
-0.00013180514
-6.3562403e-06
1.238777e-11
-0.00012737736
-1.0916743e-05
1.1176354e-11
-0.00012119592
-1.5306319e-05
1.0054176e-11
-0.00011339537
-1.935918e-05
9.0172451e-12
-0.00010417403
-2.2906427e-05
8.0901492e-12
-9.3791267e-05
-2.5785761e-05
7.3078037e-12
-8.2561043e-05
-2.7852217e-05
6.690173e-12
-7.0841331e-05
-2.8989219e-05
6.2406376e-12
-5.9019661e-05
-2.9119137e-05
5.9742752e-12
-4.7495092e-05
-2.8212513e-05
5.9115285e-12
-3.6657297e-05
-2.6295316e-05
6.0534488e-12
-2.6863622e-05
-2.3453892e-05
6.3877243e-12
-1.8415105e-05
-1.9837856e-05
6.8887786e-12
-1.1532495e-05
-1.566188e-05
7.4937555e-12
-6.333115e-06
-1.1208306e-05
8.1622639e-12
-2.8093217e-06
-6.8330617e-06
8.9090213e-12
-8.1180649e-07
-2.9750536e-06
9.4356661e-12
-3.438929e-08
-1.7224112e-07
9.3387507e-12
8.6740946e-07
9.1880516e-12
-1.1754597e-06
1.7938607e-06
1.1180258e-11
-4.5733773e-06
7.3777569e-06
3.4515032e-11
-1.0037767e-05
1.3567154e-05
2.6433275e-11
-1.7363702e-05
1.9560618e-05
2.6489183e-11
-2.6301805e-05
2.4919934e-05
2.9310978e-11
-3.6573652e-05
2.9413463e-05
3.0130896e-11
-4.7887635e-05
3.2947869e-05
3.0122423e-11
-5.9951261e-05
3.5514664e-05
2.949399e-11
-7.2478655e-05
3.7148348e-05
2.8358568e-11
-8.5193799e-05
3.789842e-05
2.6983183e-11
-9.7830654e-05
3.7812641e-05
2.5415353e-11
-0.00011013159
3.6928803e-05
2.3960121e-11
-0.00012184551
3.5272876e-05
2.2730596e-11
-0.00013272667
3.2861702e-05
2.1509931e-11
-0.00014253489
2.9708652e-05
2.0118398e-11
-0.00015103774
2.5830894e-05
1.8674039e-11
-0.00015801463
2.1257191e-05
1.7390837e-11
-0.0001632628
1.6035319e-05
1.6298677e-11
-0.00016660494
1.0238395e-05
1.5349034e-11
-0.00016789781
3.969541e-06
1.448896e-11
-0.00016704147
-2.6356795e-06
1.3671749e-11
-0.00016398843
-9.4092957e-06
1.2902201e-11
-0.00015875188
-1.6153302e-05
1.2232825e-11
-0.00015141241
-2.26458e-05
1.1657699e-11
-0.00014212234
-2.8649267e-05
1.113364e-11
-0.00013110699
-3.3921792e-05
1.0639256e-11
-0.00011866225
-3.8230514e-05
1.0187266e-11
-0.00010514787
-4.1366602e-05
9.7888332e-12
-9.0976232e-05
-4.316087e-05
9.4454583e-12
-7.6596471e-05
-4.3498907e-05
9.1673361e-12
-6.247442e-05
-4.2334574e-05
8.9678197e-12
-4.9068938e-05
-3.9700807e-05
8.8447324e-12
-3.6805767e-05
-3.5717073e-05
8.7925832e-12
-2.6050268e-05
-3.0593366e-05
8.8032905e-12
-1.7080659e-05
-2.4631499e-05
8.8195923e-12
-1.0063478e-05
-1.8225496e-05
8.9566625e-12
-5.0331027e-06
-1.1863446e-05
9.5937877e-12
-1.8779931e-06
-6.1301714e-06
9.3464195e-12
-3.3639104e-07
-1.7138494e-06
6.4747225e-12
5.3100748e-07
1.1282598e-11
-1.612002e-06
3.4058493e-06
1.0541427e-11
-6.0605115e-06
1.1826236e-05
4.0797671e-11
-1.2998802e-05
2.0505411e-05
2.7798606e-11
-2.2086305e-05
2.8648093e-05
2.6474416e-11
-3.2979034e-05
3.5812632e-05
2.9473727e-11
-4.5332241e-05
4.176664e-05
2.9884339e-11
-5.8805859e-05
4.642146e-05
2.9353589e-11
-7.3069186e-05
4.9777961e-05
2.8403092e-11
-8.7803414e-05
5.1882548e-05
2.7153999e-11
-0.00010270187
5.2796854e-05
2.5825982e-11
-0.00011746855
5.2579288e-05
2.4415177e-11
-0.00013181581
5.1276048e-05
2.3087825e-11
-0.00014546244
4.8919483e-05
2.1894976e-11
-0.0001581326
4.5531839e-05
2.0686418e-11
-0.00016955651
4.1132545e-05
1.9324044e-11
-0.00017947308
3.5747438e-05
1.7909805e-11
-0.00018763449
2.9418588e-05
1.6701464e-11
-0.00019381278
2.2213594e-05
1.571185e-11
-0.00019780789
1.4233487e-05
1.487959e-11
-0.0001994569
5.6185299e-06
1.4128775e-11
-0.00019864384
-3.4487485e-06
1.3404718e-11
-0.00019530951
-1.2743641e-05
1.2735721e-11
-0.00018946058
-2.2002238e-05
1.2176193e-11
-0.0001811773
-3.0929098e-05
1.1715964e-11
-0.00017061887
-3.920771e-05
1.1300573e-11
-0.0001580259
-4.6514773e-05
1.0893188e-11
-0.00014371895
-5.2537478e-05
1.0497012e-11
-0.00012809252
-5.6993044e-05
1.0122021e-11
-0.00011160398
-5.9649419e-05
9.7766003e-12
-9.4757187e-05
-6.0345711e-05
9.4819633e-12
-7.8080964e-05
-5.9010805e-05
9.2603077e-12
-6.2103199e-05
-5.5678581e-05
9.1135952e-12
-4.7321743e-05
-5.0498537e-05
9.0349232e-12
-3.4173934e-05
-4.3741185e-05
8.9928651e-12
-2.3006902e-05
-3.579854e-05
8.8903105e-12
-1.4051153e-05
-2.7181254e-05
8.9847326e-12
-7.4000874e-06
-1.8514521e-05
9.9798339e-12
-2.9985235e-06
-1.0531743e-05
9.2749647e-12
-6.4344354e-07
-4.0689325e-06
3.773111e-12
-1.1244902e-07
1.3481353e-11
-2.0237058e-06
5.4295434e-06
8.7450858e-12
-7.4858093e-06
1.7288296e-05
4.5425135e-11
-1.5859484e-05
2.8879056e-05
2.8375873e-11
-2.6667327e-05
3.9455905e-05
2.6064686e-11
-3.9465612e-05
4.8610887e-05
2.9281662e-11
-5.3838567e-05
5.6139565e-05
2.9368028e-11
-6.939536e-05
6.1978227e-05
2.8455973e-11
-8.5767701e-05
6.6150272e-05
2.7381933e-11
-0.00010260706
6.8721876e-05
2.6214098e-11
-0.00011958126
6.977103e-05
2.5028474e-11
-0.00013637071
6.9368713e-05
2.3772001e-11
-0.00015266481
6.7570126e-05
2.252982e-11
-0.0001681593
6.4413955e-05
2.1335187e-11
-0.00018255506
5.9927578e-05
2.0129886e-11
-0.00019555876
5.4136228e-05
1.8853624e-11
-0.00020688563
4.7074288e-05
1.7420295e-11
-0.00021626423
3.8797176e-05
1.6254132e-11
-0.00022344319
2.9392548e-05
1.5311719e-11
-0.00022819954
1.8989816e-05
1.4515399e-11
-0.00023034819
7.7671728e-06
1.3790531e-11
-0.00022975237
-4.0445864e-06
1.3085118e-11
-0.000226334
-1.6162016e-05
1.2437139e-11
-0.0002200841
-2.8252148e-05
1.1900798e-11
-0.00021107174
-3.9941472e-05
1.1468813e-11
-0.00019945125
-5.0828211e-05
1.10779e-11
-0.00018546658
-6.0499459e-05
1.0682041e-11
-0.00016945178
-6.8552292e-05
1.028193e-11
-0.0001518267
-7.4618128e-05
9.8969553e-12
-0.00013308706
-7.8389075e-05
9.5415028e-12
-0.00011378822
-7.9644561e-05
9.2360669e-12
-9.4522865e-05
-7.8276166e-05
9.0059454e-12
-7.5893e-05
-7.4308455e-05
8.8684356e-12
-5.8477734e-05
-6.791381e-05
8.8293037e-12
-4.2799034e-05
-5.9419894e-05
8.8260916e-12
-2.9288172e-05
-4.930941e-05
8.7101351e-12
-1.8256113e-05
-3.8213322e-05
8.875917e-12
-9.8711593e-06
-2.6899485e-05
1.0341102e-11
-4.1473517e-06
-1.6255559e-05
9.2402242e-12
-9.4693116e-07
-7.2693533e-06
1.0529855e-12
-1.0593953e-06
1.5698916e-11
-2.4095849e-06
7.8391206e-06
6.2212946e-12
-8.8352559e-06
2.3713917e-05
4.9092831e-11
-1.8584195e-05
3.8627966e-05
2.8303344e-11
-3.1047265e-05
5.191895e-05
2.5054808e-11
-4.5681512e-05
6.3245106e-05
2.8359947e-11
-6.1999157e-05
7.245718e-05
2.8120249e-11
-7.9558133e-05
7.9537177e-05
2.6973171e-11
-9.7953559e-05
8.4545669e-05
2.5919991e-11
-0.00011680988
8.7578174e-05
2.488709e-11
-0.00013577364
8.8734769e-05
2.3816694e-11
-0.00015450698
8.8102024e-05
2.2664738e-11
-0.00017268226
8.5745383e-05
2.1474476e-11
-0.0001899783
8.1709981e-05
2.0263275e-11
-0.00020607852
7.6027776e-05
1.9052848e-11
-0.00022067115
6.8728839e-05
1.7791433e-11
-0.00023345173
5.9854846e-05
1.6538378e-11
-0.00024412766
4.9473095e-05
1.5502237e-11
-0.0002524248
3.7689676e-05
1.4669233e-11
-0.0002580957
2.4660696e-05
1.3962087e-11
-0.00026092926
1.0600729e-05
1.3318069e-11
-0.0002607616
-4.2122582e-06
1.2697296e-11
-0.00025748722
-1.9436412e-05
1.2147682e-11
-0.00025107084
-3.4668537e-05
1.17077e-11
-0.00024155829
-4.9454029e-05
1.1366596e-11
-0.00022908616
-6.3300355e-05
1.1055889e-11
-0.00021388899
-7.5696643e-05
1.0716242e-11
-0.00019630281
-8.6138487e-05
1.0347601e-11
-0.00017676364
-9.4157311e-05
9.9794552e-12
-0.00015579972
-9.9353006e-05
9.6382291e-12
-0.00013401648
-0.00010142781
9.3404817e-12
-0.00011207386
-0.00010021879
9.0979663e-12
-9.0656352e-05
-9.5725973e-05
8.9323404e-12
-7.043725e-05
-8.8132921e-05
8.8711809e-12
-5.2039616e-05
-7.7817539e-05
8.8437078e-12
-3.599735e-05
-6.5351685e-05
8.6693735e-12
-2.27204e-05
-5.1490281e-05
8.8753623e-12
-1.2468157e-05
-3.7151738e-05
1.0785485e-11
-5.3349955e-06
-2.3388729e-05
9.2396753e-12
-1.2512242e-06
-1.1353122e-05
-1.7134377e-12
-2.3106372e-06
1.8008268e-11
-2.769593e-06
1.0608705e-05
3.3323542e-12
-1.0101351e-05
3.1045629e-05
5.2087585e-11
-2.1150902e-05
4.9677486e-05
2.7578201e-11
-3.5185875e-05
6.5953902e-05
2.3381855e-11
-5.1568443e-05
7.9627646e-05
2.6823698e-11
-6.9740973e-05
9.0629681e-05
2.6451913e-11
-8.9211707e-05
9.9007885e-05
2.5247176e-11
-0.00010954113
0.00010487506
2.4302652e-11
-0.00013032953
0.00010836655
2.3403806e-11
-0.00015120603
0.00010961124
2.2412145e-11
-0.0001718192
0.00010871517
2.1330299e-11
-0.00019182961
0.00010575578
2.0174972e-11
-0.0002109046
0.00010078495
1.8963347e-11
-0.00022871525
9.3838404e-05
1.7796641e-11
-0.00024493584
8.4949412e-05
1.6648741e-11
-0.0002592456
7.4164591e-05
1.5570832e-11
-0.00027133267
6.1560156e-05
1.4678051e-11
-0.00028090015
4.7257139e-05
1.3954545e-11
-0.00028767395
3.143449e-05
1.3348117e-11
-0.00029141248
1.4339243e-05
1.2806749e-11
-0.00029191775
-3.706993e-06
1.2288759e-11
-0.00028904739
-2.2306777e-05
1.186645e-11
-0.00028272839
-4.0987551e-05
1.1543228e-11
-0.00027297016
-5.9212272e-05
1.1301245e-11
-0.00025987744
-7.639308e-05
1.1073295e-11
-0.00024366134
-9.1912757e-05
1.0794411e-11
-0.00022464699
-0.00010515285
1.0462172e-11
-0.00020327618
-0.00011552813
1.0111188e-11
-0.0001801031
-0.0001225261
9.7802534e-12
-0.00015578153
-0.00012574938
9.4883715e-12
-0.0001310427
-0.00012495764
9.2392385e-12
-0.0001066635
-0.00012010518
9.0565343e-12
-8.3426796e-05
-0.00011136964
8.974511e-12
-6.2076238e-05
-9.9168108e-05
8.909317e-12
-4.3270054e-05
-8.415788e-05
8.6593253e-12
-2.7538537e-05
-6.7221809e-05
8.8997996e-12
-1.5250378e-05
-4.9439909e-05
1.1275949e-11
-6.5924951e-06
-3.2046622e-05
9.2635354e-12
-1.5666185e-06
-1.6378994e-05
-4.5706779e-12
-3.8772764e-06
2.043037e-11
-3.1030855e-06
1.3711786e-05
6.2270943e-14
-1.1277516e-05
3.9220008e-05
5.4076803e-11
-2.3541456e-05
6.1941395e-05
2.6132427e-11
-3.9049635e-05
8.1462059e-05
2.1153707e-11
-5.7076193e-05
9.7654176e-05
2.4926498e-11
-7.6998117e-05
0.00011055158
2.4622703e-11
-9.827722e-05
0.00012028696
2.3465002e-11
-0.00012044233
0.00012704015
2.2651657e-11
-0.00014307287
0.00013099707
2.1861318e-11
-0.00016578437
0.00013232272
2.0914476e-11
-0.00018821626
0.00013114704
1.9889237e-11
-0.00021002219
0.00012756169
1.8778792e-11
-0.00023086298
0.00012162572
1.7608643e-11
-0.00025040218
0.0001133776
1.6540321e-11
-0.00026830434
0.00010285156
1.5554582e-11
-0.0002842356
9.0095831e-05
1.4648684e-11
-0.00029786663
7.5191185e-05
1.3875732e-11
-0.00030887784
5.8268334e-05
1.3237021e-11
-0.00031696648
3.9523121e-05
1.2717428e-11
-0.00032185598
1.9228741e-05
1.2261134e-11
-0.00032330763
-2.2553523e-06
1.1801598e-11
-0.00032113232
-2.44821e-05
1.1552743e-11
-0.00031520763
-4.6912249e-05
1.1345517e-11
-0.00030549268
-6.8927235e-05
1.1183719e-11
-0.00029204507
-8.9840707e-05
1.1021787e-11
-0.00027503665
-0.00010892119
1.0807194e-11
-0.00025476661
-0.0001254229
1.0532365e-11
-0.00023166965
-0.0001386251
1.0223551e-11
-0.00020631679
-0.00014787897
9.9177444e-12
-0.00017940641
-0.00015265977
9.6324866e-12
-0.00015174369
-0.00015262037
9.3715474e-12
-0.00012420775
-0.00014764112
9.1723776e-12
-9.7707522e-05
-0.00013786988
9.0765313e-12
-7.3129237e-05
-0.0001237464
8.9761284e-12
-5.1280524e-05
-0.0001060066
8.64055e-12
-3.283723e-05
-8.5665114e-05
8.9112405e-12
-1.8299407e-05
-6.3977746e-05
1.1797645e-11
-7.9623707e-06
-4.2383668e-05
9.2972275e-12
-1.906511e-06
-2.2434848e-05
-7.6304631e-12
-5.7838113e-06
2.3043228e-11
-3.4084537e-06
1.7120246e-05
-3.5269499e-12
-1.2355899e-05
4.8167398e-05
5.5152092e-11
-2.5737119e-05
7.5322588e-05
2.4269222e-11
-4.2605351e-05
9.8330271e-05
1.8744354e-11
-6.215512e-05
0.00011720392
2.2963723e-11
-8.3704073e-05
0.00013210051
2.2781466e-11
-0.00010667212
0.00014325499
2.1659746e-11
-0.00013056025
0.00015092826
2.0924157e-11
-0.00015493069
0.00015536749
2.0177344e-11
-0.00017938933
0.00015678134
1.9222395e-11
-0.00020357079
0.00015532848
1.8235365e-11
-0.00022712644
0.00015111733
1.7188995e-11
-0.00024971539
0.00014421465
1.6090063e-11
-0.00027099842
0.0001346606
1.5150152e-11
-0.00029063455
0.00012248768
1.4339469e-11
-0.00030828032
0.00010774158
1.358641e-11
-0.00032359123
9.0502088e-05
1.2910814e-11
-0.00033622569
7.0902777e-05
1.2354545e-11
-0.00034585108
4.9148501e-05
1.1940372e-11
-0.00035215224
2.5529894e-05
1.1597622e-11
-0.00035484415
4.3654287e-07
1.1172295e-11
-0.00035368158
-2.5644675e-05
1.1178304e-11
-0.00034848173
-5.2112115e-05
1.1104361e-11
-0.0003391391
-7.8269874e-05
1.1026744e-11
-0.00032564786
-0.00010333195
1.0936618e-11
-0.00030812296
-0.00012644611
1.0798512e-11
-0.00028681974
-0.00014672614
1.0600876e-11
-0.00026214931
-0.00016329554
1.0356113e-11
-0.00023468637
-0.00017534193
1.0089563e-11
-0.00020516605
-0.0001821801
9.8109735e-12
-0.00017446688
-0.00018331955
9.5253161e-12
-0.00014357795
-0.00017853006
9.2917994e-12
-0.00011355057
-0.00016789727
9.1735553e-12
-8.5437266e-05
-0.00015185972
9.0371413e-12
-6.0223725e-05
-0.00013122016
8.6057289e-12
-3.8761449e-05
-0.0001071274
8.9026508e-12
-2.1709526e-05
-8.1029684e-05
1.2361661e-11
-9.4934413e-06
-5.4599764e-05
9.3344685e-12
-2.2857682e-06
-2.9642512e-05
-1.1031919e-11
-8.0696065e-06
2.594687e-11
-3.6831546e-06
2.0803405e-05
-7.3869805e-12
-1.3326796e-05
5.7810984e-05
5.5616871e-11
-2.7716931e-05
8.9712697e-05
2.2252543e-11
-4.5817485e-05
0.00011643081
1.6343371e-11
-6.6752763e-05
0.00013813917
2.1012849e-11
-8.978807e-05
0.00015513579
2.0929817e-11
-0.00011430672
0.00016777362
1.9806966e-11
-0.00013978616
0.00017640769
1.9102604e-11
-0.00016577542
0.00018135672
1.8367127e-11
-0.00019187473
0.00018288063
1.7400792e-11
-0.00021771817
0.0001811719
1.64777e-11
-0.0002429594
0.00017635854
1.5544901e-11
-0.00026726063
0.00016851587
1.4559412e-11
-0.00029028466
0.00015768461
1.3752034e-11
-0.00031168965
0.00014389266
1.3094912e-11
-0.00033112657
0.00012717849
1.2469883e-11
-0.00034823898
0.00010761449
1.1877018e-11
-0.00036266522
8.5329009e-05
1.1400055e-11
-0.00037404315
6.0526417e-05
1.110114e-11
-0.0003820178
3.3504532e-05
1.1005618e-11
-0.00038625047
4.6692055e-06
1.1146986e-11
-0.00038643778
-2.545738e-05
1.0891871e-11
-0.00038232309
-5.6226814e-05
1.0826771e-11
-0.00037372331
-8.6869669e-05
1.0831725e-11
-0.00036055245
-0.00011650283
1.0824665e-11
-0.00034284912
-0.00014414944
1.0773993e-11
-0.00032080383
-0.00016877144
1.0663984e-11
-0.00029478312
-0.00018931626
1.0492095e-11
-0.00026534665
-0.0002047784
1.0269513e-11
-0.00023325254
-0.00021427423
9.9986917e-12
-0.00019944641
-0.00021712569
9.6852379e-12
-0.00016503086
-0.00021294563
9.4064357e-12
-0.00013121385
-0.00020171429
9.2553962e-12
-9.9238635e-05
-0.00018383495
9.0788117e-12
-7.030112e-05
-0.00016015769
8.5411906e-12
-4.5464361e-05
-0.00013196417
8.8662462e-12
-2.5581446e-05
-0.00010091261
1.2986355e-11
-1.12378e-05
-6.8943421e-05
9.3729298e-12
-2.7199705e-06
-3.8160329e-05
-1.4909437e-11
-1.0789607e-05
2.9254264e-11
-3.9239273e-06
2.4727336e-05
-1.1235613e-11
-1.4178926e-05
6.8065931e-05
5.5734562e-11
-2.9457768e-05
0.00010499151
2.0229925e-11
-4.8647911e-05
0.00013562093
1.3999531e-11
-7.0813382e-05
0.00016030462
1.9044773e-11
-9.51746e-05
0.00017949699
1.9029524e-11
-0.0001210839
0.0001936829
1.7884812e-11
-0.00014799975
0.00020332351
1.7197589e-11
-0.00017546192
0.00020881888
1.6484679e-11
-0.00020306897
0.00021048767
1.5553698e-11
-0.0002304586
0.00020856151
1.4759526e-11
-0.00025729125
0.00020319118
1.3988182e-11
-0.00028323713
0.00019446173
1.3134558e-11
-0.0003079661
0.00018241358
1.244355e-11
-0.00033114063
0.00016706717
1.1910326e-11
-0.00035241107
0.00014844892
1.1393728e-11
-0.0003714135
0.00012661691
1.087502e-11
-0.00038776987
0.00010168537
1.0472387e-11
-0.00040109089
7.3847425e-05
1.0278883e-11
-0.00041098191
4.3395548e-05
1.0281606e-11
-0.0004170523
1.0739586e-05
1.0410632e-11
-0.00041893073
-2.3578964e-05
1.0414457e-11
-0.00041628212
-5.8875435e-05
1.0469008e-11
-0.0004088332
-9.4318602e-05
1.0558226e-11
-0.00039640148
-0.00012893456
1.0645023e-11
-0.0003789287
-0.00016162224
1.0700178e-11
-0.00035651649
-0.00019118366
1.069414e-11
-0.00032946092
-0.00021637184
1.0605818e-11
-0.0002982812
-0.00023595814
1.0431902e-11
-0.00026373674
-0.00024881871
1.0172713e-11
-0.00022682605
-0.00025403639
9.8371575e-12
-0.00018876181
-0.00025100989
9.5133553e-12
-0.0001509185
-0.0002395576
9.3218392e-12
-0.00011475359
-0.00021999987
9.0945306e-12
-8.1708259e-05
-0.00019320303
8.433824e-12
-5.3099415e-05
-0.00016057303
8.7925714e-12
-3.0017959e-05
-0.00012399409
1.3690113e-11
-1.3249016e-05
-8.5712374e-05
9.4075682e-12
-3.2250772e-06
-4.818425e-05
-1.9397686e-11
-1.4014717e-05
3.3091332e-11
-4.1271303e-06
2.8854476e-05
-1.467963e-11
-1.4900217e-05
7.8838968e-05
5.562667e-11
-3.0935507e-05
0.00012102678
1.8275682e-11
-5.1057361e-05
0.00015574278
1.1743127e-11
-7.427968e-05
0.00018352693
1.7061131e-11
-9.9785483e-05
0.00020500278
1.7069139e-11
-0.0001269017
0.00022079911
1.5878084e-11
-0.00015507218
0.00023149397
1.5209904e-11
-0.00018383129
0.00023757798
1.455525e-11
-0.00021277964
0.00023943599
1.3708846e-11
-0.00024156248
0.00023734434
1.3076956e-11
-0.00026985153
0.00023148022
1.2471167e-11
-0.00029732982
0.00022194
1.1729613e-11
-0.00032367972
0.00020876347
1.1124155e-11
-0.00034857374
0.00019196118
1.0694636e-11
-0.00037166765
0.00017154283
1.0286171e-11
-0.00039259607
0.00014754531
9.8502937e-12
-0.00041097029
0.00012005959
9.5249011e-12
-0.00042637892
8.9256047e-05
9.4242684e-12
-0.00043839169
5.5408311e-05
9.5167563e-12
-0.00044656734
1.8915218e-05
9.6925259e-12
-0.00045046675
-1.9679563e-05
9.8434301e-12
-0.00044967132
-5.9670881e-05
9.9988003e-12
-0.00044380872
-0.00010018122
1.0174835e-11
-0.00043258541
-0.00014015789
1.0369369e-11
-0.0004158258
-0.00017838186
1.0551348e-11
-0.00039351648
-0.00021349299
1.0672552e-11
-0.00036585231
-0.00024403603
1.0688926e-11
-0.00033327923
-0.00026853122
1.0577579e-11
-0.00029652678
-0.00028557118
1.0338792e-11
-0.0002566215
-0.00029394168
9.9882917e-12
-0.00021487274
-0.00029275867
9.622016e-12
-0.00017282371
-0.00028160664
9.3821975e-12
-0.00013216601
-0.00026065758
9.08612e-12
-9.4622708e-05
-0.00023074635
8.2742185e-12
-6.1813318e-05
-0.00019338242
8.6747618e-12
-3.5120518e-05
-0.0001506869
1.4498401e-11
-1.5580959e-05
-0.00010525194
9.4485572e-12
-3.8172904e-06
-5.9947895e-05
-2.4625129e-11
-1.7832043e-05
3.7593708e-11
-4.2891511e-06
3.3143645e-05
-1.7594509e-11
-1.5478946e-05
9.0028713e-05
5.5254615e-11
-3.2126969e-05
0.00013767479
1.6403023e-11
-5.3008134e-05
0.00017662394
9.5989366e-12
-7.7096219e-05
0.000207615
1.5106802e-11
-0.00010354401
0.00023145055
1.5114876e-11
-0.00013165819
0.00024891328
1.3884634e-11
-0.00016087194
0.00026070771
1.3259475e-11
-0.00019071765
0.00026742368
1.269516e-11
-0.00022080132
0.00026951965
1.1954852e-11
-0.00025077951
0.00026732252
1.147109e-11
-0.00028033933
0.00026104004
1.0995572e-11
-0.00030918162
0.00025078227
1.0328078e-11
-0.0003370069
0.00023658874
9.7745967e-12
-0.00036350409
0.00021845837
9.433024e-12
-0.00038834149
0.00019638022
9.1379067e-12
-0.00041115989
0.0001703637
8.7962157e-12
-0.00043156793
0.00014046762
8.5459421e-12
-0.00044914013
0.00010682824
8.5193495e-12
-0.00046341807
6.9686245e-05
8.6881357e-12
-0.00047391581
2.9412951e-05
8.9397927e-12
-0.00048013076
-1.346463e-05
9.1845841e-12
-0.00048156087
-5.8240784e-05
9.426321e-12
-0.00047773016
-0.00010401194
9.6946914e-12
-0.000468223
-0.00014966505
1.0005014e-11
-0.00045272783
-0.00019387704
1.0323735e-11
-0.00043108936
-0.00023513147
1.058619e-11
-0.00040336674
-0.00027175866
1.0726673e-11
-0.00036989257
-0.0003020054
1.0698901e-11
-0.00033132467
-0.0003241391
1.0498903e-11
-0.0002886798
-0.00033658656
1.0145473e-11
-0.00024333698
-0.0003381015
9.7417618e-12
-0.00019699863
-0.000327945
9.4495041e-12
-0.00015160317
-0.00030605305
9.064457e-12
-0.00010919106
-0.00027315846
8.0611245e-12
-7.1738843e-05
-0.00023083465
8.5104561e-12
-4.0986051e-05
-0.00018143971
1.5445758e-11
-1.8286864e-05
-0.00012795114
9.5318617e-12
-4.5130065e-06
-7.3721721e-05
-3.0697395e-11
-2.2345091e-05
4.2902866e-11
-4.4068664e-06
3.7550531e-05
-2.0094734e-11
-1.5905151e-05
0.00010152695
5.4528298e-11
-3.3012449e-05
0.00015478207
1.4557741e-11
-5.4467755e-05
0.00019807924
7.5362159e-12
-7.9214193e-05
0.00023236143
1.3180518e-11
-0.00010638077
0.00025861712
1.3202536e-11
-0.0001352584
0.0002777909
1.198134e-11
-0.00016527292
0.00029072222
1.1446183e-11
-0.00019595755
0.0002981083
1.0995905e-11
-0.00022692659
0.00030048867
1.0360119e-11
-0.00025785114
0.00029824706
9.9930946e-12
-0.00028843774
0.00029162663
9.6112328e-12
-0.00031840979
0.00028075431
8.9974816e-12
-0.0003474918
0.00026567074
8.4868239e-12
-0.00037539603
0.00024636259
8.2317927e-12
-0.00040181131
0.0002227955
8.0566225e-12
-0.0004263938
0.00019494617
7.8212441e-12
-0.00044875968
0.0001628335
7.6374113e-12
-0.00046848038
0.00012654893
7.6499801e-12
-0.0004850806
8.6286464e-05
7.8549011e-12
-0.00049804056
4.2372894e-05
8.1581549e-12
-0.00050680347
-4.7017259e-06
8.4786336e-12
-0.00051079013
-5.4254137e-05
8.8010488e-12
-0.00050942226
-0.00010537982
9.159615e-12
-0.00050215661
-0.00015693072
9.5799403e-12
-0.00048853108
-0.00020750257
1.00286e-11
-0.00046822343
-0.00025543913
1.042963e-11
-0.00044112089
-0.00029886121
1.0700344e-11
-0.00040739651
-0.0003357298
1.0774494e-11
-0.00036758384
-0.00036395178
1.0638989e-11
-0.00032263721
-0.0003815332
1.0300868e-11
-0.00027396111
-0.00038677762
9.866948e-12
-0.00022339114
-0.00037851497
9.524217e-12
-0.0001731127
-0.00035633151
9.035042e-12
-0.00012551404
-0.00032075713
7.7915932e-12
-8.2986637e-05
-0.00027336206
8.2897892e-12
-4.7703398e-05
-0.00021672296
1.6550909e-11
-2.1418337e-05
-0.00015423621
9.6798619e-12
-5.3287769e-06
-8.9811243e-05
-3.7722775e-11
-2.7673917e-05
4.9158363e-11
-4.4781574e-06
4.2028708e-05
-2.2267888e-11
-1.6172259e-05
0.000113221
5.3400195e-11
-3.3578726e-05
0.00017218853
1.2706872e-11
-5.5413432e-05
0.00021991394
5.5448213e-12
-8.0597281e-05
0.00025754526
1.1291904e-11
-0.00010824092
0.00028626074
1.1364411e-11
-0.000137623
0.00030717298
1.020293e-11
-0.00016816451
0.00032126372
9.7850552e-12
-0.00019940171
0.00032934549
9.4487006e-12
-0.00023095951
0.00033204645
8.9003921e-12
-0.00026252642
0.00032981396
8.6230587e-12
-0.000293832
0.0003229322
8.3213834e-12
-0.0003246269
0.0003115492
7.773016e-12
-0.00035466541
0.00029570924
7.3245334e-12
-0.00038369036
0.00027538754
7.170986e-12
-0.0004114199
0.00025052503
7.1255255e-12
-0.00043753593
0.00022106219
7.003535e-12
-0.00046167433
0.00018697189
6.8834877e-12
-0.00048341709
0.00014829168
6.914948e-12
-0.000502287
0.00010515637
7.1257794e-12
-0.00051774592
5.7831807e-05
7.4528586e-12
-0.00052919798
6.7503286e-06
7.8292551e-12
-0.00053599978
-4.7452345e-05
8.2143231e-12
-0.00053747955
-0.00010390006
8.6448081e-12
-0.0005329684
-0.00016144187
9.1507571e-12
-0.00052184601
-0.00021862497
9.7042285e-12
-0.00050360291
-0.00027368224
1.0224784e-11
-0.00047791966
-0.00032454447
1.0614947e-11
-0.0004447602
-0.00036888928
1.0796221e-11
-0.00040447187
-0.00040424012
1.0747585e-11
-0.00035787838
-0.00042812671
1.0440816e-11
-0.00030634527
-0.00043831074
9.9743748e-12
-0.00025179332
-0.00043306693
9.5745729e-12
-0.00019663612
-0.00041148871
8.968367e-12
-0.00014362879
-0.00037376447
7.4367927e-12
-9.5635309e-05
-0.00032135555
7.9874132e-12
-5.5348938e-05
-0.00025700935
1.7811661e-11
-2.5024083e-05
-0.00018456107
9.8744172e-12
-6.2812173e-06
-0.00010855406
-4.5842421e-11
-3.3955191e-05
5.6484167e-11
-4.5024761e-06
4.6531206e-05
-2.4060884e-11
-1.6278908e-05
0.00012499739
5.1931159e-11
-3.3822461e-05
0.00018973207
1.0919114e-11
-5.5837123e-05
0.0002419286
3.7037227e-12
-8.1228386e-05
0.00028293652
9.513377e-12
-0.00010909249