/*--------------------------------*- C++ -*----------------------------------*\
  =========                 |
  \\      /  F ield         | OpenFOAM: The Open Source CFD Toolbox
   \\    /   O peration     | Website:  https://openfoam.org
    \\  /    A nd           | Version:  7
     \\/     M anipulation  |
\*---------------------------------------------------------------------------*/
FoamFile
{
    version     2.0;
    format      ascii;
    class       volVectorField;
    location    "7";
    object      U;
}
// * * * * * * * * * * * * * * * * * * * * * * * * * * * * * * * * * * * * * //

dimensions      [0 1 -1 0 0 0 0];

internalField   nonuniform List<vector> 
16000
(
(6.4012925e-05 -6.1990481e-05 3.7011446e-07)
(0.00015401348 -5.0891518e-05 6.3941363e-06)
(0.00012763197 3.2546014e-06 1.9209869e-05)
(-6.2378976e-05 6.1526866e-05 3.5634886e-05)
(-0.0004107918 0.00011252404 5.255802e-05)
(-0.00089158084 0.00015243949 6.8142823e-05)
(-0.0014762707 0.00018155999 8.1116647e-05)
(-0.0021371691 0.00020150293 9.0704902e-05)
(-0.0028496163 0.000213988 9.6474634e-05)
(-0.0035923248 0.00022043447 9.8195015e-05)
(-0.0043468131 0.00022185111 9.5752981e-05)
(-0.0050965896 0.00021884194 8.9101392e-05)
(-0.0058263169 0.00021166491 7.8230216e-05)
(-0.006521103 0.0002003154 6.3164773e-05)
(-0.0071660129 0.00018462307 4.3978634e-05)
(-0.007745835 0.00016435404 2.0812463e-05)
(-0.0082451131 0.00013931153 -6.1015068e-06)
(-0.0086484446 0.00010942977 -3.6412226e-05)
(-0.0089410205 7.4857513e-05 -6.9626536e-05)
(-0.0091093711 3.6027028e-05 -0.00010509452)
(-0.0091422653 -6.2973827e-06 -0.00014200586)
(-0.0090316773 -5.1010387e-05 -0.00017939918)
(-0.0087737701 -9.6640649e-05 -0.00021618525)
(-0.0083697973 -0.00014141554 -0.00025118715)
(-0.0078268026 -0.0001833319 -0.00028319534)
(-0.0071580492 -0.00022026578 -0.00031103571)
(-0.006383085 -0.00025011228 -0.00033364627)
(-0.005527382 -0.00027094334 -0.00035015646)
(-0.0046215226 -0.00028116824 -0.00035996265)
(-0.0036999452 -0.00027967921 -0.00036279277)
(-0.0027993108 -0.00026596481 -0.00035875412)
(-0.0019565884 -0.00024017746 -0.00034835994)
(-0.0012069714 -0.0002031525 -0.00033253382)
(-0.00058163343 -0.00015641043 -0.00031259621)
(-0.00010528769 -0.00010228246 -0.00029022642)
(0.00020518005 -4.4300089e-05 -0.00026735166)
(0.00034512452 1.3200001e-05 -0.00024630608)
(0.00032725355 6.1329696e-05 -0.00022942161)
(0.00019641494 8.4923334e-05 -0.0002192947)
(5.5621859e-05 5.5545514e-05 -0.00020340744)
(5.4331322e-05 -0.00015317318 -5.5141544e-06)
(3.2164378e-05 -2.7806066e-05 5.8901125e-07)
(-0.00029848855 0.00024829042 1.1598231e-05)
(-0.00099203554 0.00054663103 2.5079143e-05)
(-0.0020393787 0.00081762962 3.9018993e-05)
(-0.0033967089 0.001041075 5.1900649e-05)
(-0.0050060186 0.0012127138 6.2650645e-05)
(-0.0068061264 0.0013355018 7.0551865e-05)
(-0.0087383968 0.0014147011 7.5149316e-05)
(-0.010748793 0.0014555662 7.616287e-05)
(-0.01278792 0.001462323 7.3425899e-05)
(-0.014810113 0.0014378211 6.6846386e-05)
(-0.016772203 0.0013835787 5.6383524e-05)
(-0.018632358 0.0013000625 4.2043825e-05)
(-0.020349278 0.0011871021 2.3889719e-05)
(-0.021881898 0.0010443702 2.0545162e-06)
(-0.023189641 0.0008718781 -2.3237649e-05)
(-0.024233246 0.00067044508 -5.1649821e-05)
(-0.024976105 0.00044210996 -8.2713577e-05)
(-0.025386034 0.00019045487 -0.00011581739)
(-0.025437351 -7.9187685e-05 -0.00015020406)
(-0.02511302 -0.00035964639 -0.00018498494)
(-0.024406806 -0.0006420196 -0.00021915446)
(-0.0233252 -0.00091593172 -0.00025163401)
(-0.021888804 -0.0011699736 -0.00028132157)
(-0.020133096 -0.0013923102 -0.00030715467)
(-0.018108368 -0.0015714209 -0.00032818115)
(-0.015878691 -0.0016969223 -0.00034363176)
(-0.013519886 -0.0017604034 -0.00035298855)
(-0.011116491 -0.0017561976 -0.00035604246)
(-0.0087578525 -0.0016820174 -0.00035293414)
(-0.0065335092 -0.0015394009 -0.00034417343)
(-0.0045280665 -0.0013339676 -0.00033063571)
(-0.0028157145 -0.0010755827 -0.00031353635)
(-0.0014544635 -0.00077875462 -0.00029438407)
(-0.00048036787 -0.00046366884 -0.00027490526)
(9.93417e-05 -0.00015691353 -0.00025696451)
(0.00031567143 0.00010160708 -0.00024250992)
(0.00025509791 0.00025101901 -0.00023350045)
(8.5301466e-05 0.00019538273 -0.00021566326)
(-1.5707437e-07 -0.00013188776 -1.8587836e-05)
(-0.00025296802 0.00030298961 -1.0243894e-05)
(-0.0010205749 0.00099848464 1.0117581e-06)
(-0.0023057244 0.0017353463 1.3169212e-05)
(-0.0040796327 0.0024119898 2.5259689e-05)
(-0.0062850266 0.0029813163 3.6191304e-05)
(-0.0088447897 0.0034276484 4.517336e-05)
(-0.011675285 0.0037520841 5.1669954e-05)
(-0.014693845 0.0039628457 5.5318771e-05)
(-0.017821782 0.0040698227 5.5878468e-05)
(-0.020985093 0.0040817505 5.3192798e-05)
(-0.024113909 0.0040049937 4.7163148e-05)
(-0.027141389 0.003843367 3.7731853e-05)
(-0.030002606 0.0035986214 2.4882739e-05)
(-0.032633828 0.003271333 8.6509186e-06)
(-0.034972402 0.0028620004 -1.0863431e-05)
(-0.036957338 0.0023722037 -3.3477188e-05)
(-0.038530617 0.001805712 -5.8904256e-05)
(-0.039639143 0.0011694452 -8.6738101e-05)
(-0.040237228 0.00047420933 -0.00011644061)
(-0.040289395 -0.00026485585 -0.00014734076)
(-0.039773319 -0.0010281459 -0.0001786403)
(-0.038682659 -0.0017919542 -0.00020943606)
(-0.037029486 -0.0025291465 -0.00023875318)
(-0.034846049 -0.0032103032 -0.00026559233)
(-0.032185654 -0.0038052401 -0.00028898822)
(-0.029122406 -0.0042848335 -0.00030807532)
(-0.025749681 -0.004623033 -0.00032215579)
(-0.022177229 -0.004798911 -0.00033076314)
(-0.018526921 -0.0047985799 -0.00033371507)
(-0.014927274 -0.0046168164 -0.00033114935)
(-0.011506925 -0.0042582829 -0.00032353797)
(-0.0083873481 -0.0037383317 -0.00031167717)
(-0.0056750471 -0.003083537 -0.00029665386)
(-0.0034534654 -0.0023323537 -0.00027979109)
(-0.0017747587 -0.001536541 -0.00026257393)
(-0.00065146802 -0.00076393298 -0.00024654969)
(-4.8166974e-05 -0.000104469 -0.00023323721)
(0.00013332291 0.00031952891 -0.00022432675)
(6.773501e-05 0.00033195123 -0.00020576419)
(-6.3452636e-05 6.2905052e-05 -3.5793757e-05)
(-0.00058717072 0.0010253396 -2.3712247e-05)
(-0.0018546164 0.0023022954 -1.0480879e-05)
(-0.0037822277 0.0036108276 1.9718054e-06)
(-0.006305239 0.0048065574 1.3637431e-05)
(-0.0093483548 0.0058169702 2.3785179e-05)
(-0.012816831 0.0066141992 3.1895911e-05)
(-0.016609049 0.0071961584 3.764455e-05)
(-0.020624023 0.0075729799 4.0805699e-05)
(-0.024764223 0.007758626 4.1217935e-05)
(-0.0289364 0.0077661876 3.8765036e-05)
(-0.033051275 0.0076056756 3.3359836e-05)
(-0.037022652 0.0072835351 2.493574e-05)
(-0.040766523 0.0068033224 1.3452603e-05)
(-0.044200595 0.0061671104 -1.090093e-06)
(-0.047244459 0.0053772848 -1.8637309e-05)
(-0.049820532 0.0044384672 -3.9059131e-05)
(-0.051855784 0.0033593539 -6.2129398e-05)
(-0.053284158 0.0021542992 -8.7506578e-05)
(-0.054049538 0.00084450634 -0.00011472077)
(-0.054109052 -0.00054128818 -0.0001431694)
(-0.053436501 -0.0019667467 -0.00017212002)
(-0.052025597 -0.003388526 -0.00020073123)
(-0.049892721 -0.0047575773 -0.00022808207)
(-0.04707893 -0.0060211513 -0.00025321739)
(-0.043650926 -0.0071254382 -0.000275205)
(-0.039700731 -0.0080187204 -0.00029320074)
(-0.035343877 -0.0086548502 -0.00030651654)
(-0.030715999 -0.0089968104 -0.00031468438)
(-0.025967808 -0.0090200851 -0.00031750917)
(-0.021258543 -0.0087155769 -0.00031510352)
(-0.016748117 -0.0080918689 -0.00030789935)
(-0.012588254 -0.0071767629 -0.00029663348)
(-0.008913008 -0.0060182278 -0.00028230765)
(-0.0058290864 -0.0046851712 -0.00026612564)
(-0.0034063883 -0.0032688155 -0.00024941482)
(-0.0016688496 -0.0018856563 -0.00023354738)
(-0.00058598642 -0.00068234886 -0.000219861)
(-6.7581167e-05 0.00015661333 -0.00020952074)
(3.2797533e-05 0.00037947318 -0.00018912162)
(-0.00012588972 0.00044305115 -5.4038309e-05)
(-0.0009290148 0.0021711429 -3.7680973e-05)
(-0.0027179279 0.0041910584 -2.1710313e-05)
(-0.0053084672 0.0061870704 -8.1787033e-06)
(-0.008588809 0.0079884568 3.8002049e-06)
(-0.012459822 0.0095056102 1.3809131e-05)
(-0.016807416 0.010702197 2.1585528e-05)
(-0.021513177 0.011574126 2.7019977e-05)
(-0.026460779 0.012133465 3.0036113e-05)
(-0.031537698 0.012397892 3.0566006e-05)
(-0.036635568 0.012384492 2.8544738e-05)
(-0.041649796 0.01210671 2.3903273e-05)
(-0.046478761 0.011573637 1.6567773e-05)
(-0.051023103 0.010790913 6.4711193e-06)
(-0.055185482 0.009762687 -6.4296366e-06)
(-0.058871033 0.0084941383 -2.2133561e-05)
(-0.061988619 0.0069941979 -4.0573132e-05)
(-0.064452872 0.0052781361 -6.158971e-05)
(-0.066186957 0.0033697785 -8.491105e-05)
(-0.067125869 0.0013031437 -0.00011013448)
(-0.067220076 -0.00087666209 -0.0001367184)
(-0.066439255 -0.0031134375 -0.00016398375)
(-0.064775839 -0.0053407983 -0.00019112866)
(-0.062248081 -0.0074841376 -0.00021725726)
(-0.058902325 -0.0094635676 -0.00024142356)
(-0.0548142 -0.011197776 -0.00026268879)
(-0.050088436 -0.012608636 -0.00028018826)
(-0.044857075 -0.013626317 -0.00029320229)
(-0.039275893 -0.014194565 -0.00030122368)
(-0.033518972 -0.01427578 -0.00030401383)
(-0.027771471 -0.013855481 -0.00030163952)
(-0.022220793 -0.012945856 -0.0002944845)
(-0.017046513 -0.011588184 -0.00028323268)
(-0.012409543 -0.0098542087 -0.000268823)
(-0.0084412136 -0.0078467973 -0.0002523785)
(-0.0052329622 -0.0057006674 -0.00023512177)
(-0.002826413 -0.0035841574 -0.00021831722)
(-0.0012046563 -0.0017019001 -0.00020319054)
(-0.00029797695 -0.00029962704 -0.00019042726)
(-5.9994755e-06 0.00030800581 -0.00016759551)
(-0.00018401889 0.0010022278 -7.1196403e-05)
(-0.0012605004 0.0037430547 -5.0268509e-05)
(-0.0035691026 0.0066743938 -3.1162338e-05)
(-0.0068214776 0.0094730947 -1.6057566e-05)
(-0.010853313 0.011959228 -3.2477918e-06)
(-0.015537273 0.014037076 7.1182451e-06)
(-0.020737698 0.015668264 1.5010669e-05)
(-0.026319235 0.016850043 2.0525362e-05)
(-0.03215167 0.0175979 2.3732212e-05)
(-0.038109985 0.01793371 2.465774e-05)
(-0.044073797 0.017878565 2.3289897e-05)
(-0.049926551 0.017449224 1.957815e-05)
(-0.055554591 0.016657356 1.3439483e-05)
(-0.060846478 0.015510787 4.7753254e-06)
(-0.06569289 0.014016064 -6.5062474e-06)
(-0.069987253 0.01218175 -2.046608e-05)
(-0.073627199 0.010021938 -3.7106701e-05)
(-0.076516823 0.007559597 -5.6343364e-05)
(-0.078569643 0.0048294135 -7.7976904e-05)
(-0.079712119 0.0018798714 -0.00010167192)
(-0.079887515 -0.0012256385 -0.00012694328)
(-0.079059887 -0.0044088435 -0.00015315379)
(-0.077217938 -0.0075778289 -0.00017952401)
(-0.074378449 -0.010629625 -0.00020515948)
(-0.070588971 -0.013454081 -0.00022909359)
(-0.065929466 -0.015938958 -0.00025034616)
(-0.06051257 -0.017976069 -0.00026799372)
(-0.054482163 -0.019468154 -0.00028124559)
(-0.048009985 -0.020336086 -0.0002895177)
(-0.041290157 -0.020525913 -0.00029249506)
(-0.034531558 -0.020015178 -0.00029017399)
(-0.027948259 -0.018818038 -0.00028287697)
(-0.021748375 -0.016988793 -0.00027123606)
(-0.016121948 -0.014623728 -0.00025614491)
(-0.011228778 -0.011861483 -0.00023868051)
(-0.0071871508 -0.0088826442 -0.00022001279)
(-0.0040628457 -0.0059094476 -0.00020136738)
(-0.0018596342 -0.0032052459 -0.0001839397)
(-0.0005353803 -0.0010749483 -0.00016802399)
(-4.3063438e-05 0.00011285329 -0.00014241142)
(-0.00023750322 0.0017315027 -8.5441404e-05)
(-0.0015751653 0.0057297843 -5.9800823e-05)
(-0.0043882225 0.0097425641 -3.7406735e-05)
(-0.0082867453 0.013458727 -2.0442576e-05)
(-0.013052515 0.016704869 -6.4563925e-06)
(-0.018527627 0.019390801 4.6349538e-06)
(-0.024553314 0.02148396 1.3009926e-05)
(-0.030976957 0.022987776 1.8952756e-05)
(-0.037655279 0.023923869 2.2668732e-05)
(-0.044452514 0.024319653 2.4271985e-05)
(-0.051238635 0.024200747 2.379825e-05)
(-0.057887866 0.023587334 2.1210762e-05)
(-0.064277384 0.022493614 1.6412102e-05)
(-0.070286496 0.020929553 9.2660674e-06)
(-0.075796497 0.018904145 -3.754135e-07)
(-0.080691352 0.016429509 -1.2642719e-05)
(-0.084859214 0.013525218 -2.7616124e-05)
(-0.088194752 0.010222404 -4.5291646e-05)
(-0.090602194 0.0065672233 -6.5548325e-05)
(-0.091998944 0.0026234083 -8.81204e-05)
(-0.092319618 -0.0015263688 -0.00011257784)
(-0.09152025 -0.0057804916 -0.00013831894)
(-0.089582517 -0.010019864 -0.00016457467)
(-0.086517685 -0.014111035 -0.00019043381)
(-0.082369917 -0.017910916 -0.00021488443)
(-0.077218674 -0.021273072 -0.00023687415)
(-0.07117978 -0.024055405 -0.00025538476)
(-0.064404739 -0.026128908 -0.00026951525)
(-0.05707796 -0.02738702 -0.0002785646)
(-0.049411557 -0.027754938 -0.00028210407)
(-0.041637627 -0.027198192 -0.00028002871)
(-0.033998093 -0.025729712 -0.00027257946)
(-0.026732492 -0.023414803 -0.0002603307)
(-0.020064425 -0.020373627 -0.00024414217)
(-0.014187848 -0.016781222 -0.00022507509)
(-0.0092543909 -0.01286562 -0.0002042961)
(-0.0053606604 -0.0089048529 -0.00018305995)
(-0.0025371 -0.0052224196 -0.00016261442)
(-0.00077343274 -0.0021823487 -0.00014294864)
(-7.7323132e-05 -0.00020462448 -0.00011436092)
(-0.0002868315 0.0026205717 -9.5229014e-05)
(-0.0018711358 0.0081130634 -6.4775592e-05)
(-0.0051658581 0.013374732 -3.910699e-05)
(-0.0096850769 0.018121668 -2.015805e-05)
(-0.015157884 0.022200882 -4.7929282e-06)
(-0.021395303 0.02553901 7.2780353e-06)
(-0.028214992 0.028117647 1.6420755e-05)
(-0.035447134 0.02995209 2.3089523e-05)
(-0.042936136 0.031073666 2.7610541e-05)
(-0.050536901 0.031517361 3.0174101e-05)
(-0.058111712 0.031314338 3.0854352e-05)
(-0.065527866 0.030488577 2.9620004e-05)
(-0.072655838 0.029056821 2.6351412e-05)
(-0.079368104 0.027031011 2.0866845e-05)
(-0.085538811 0.024422344 1.2953814e-05)
(-0.091044321 0.021246219 2.4037286e-06)
(-0.095764637 0.017527414 -1.0950349e-05)
(-0.099585652 0.013304948 -2.7194003e-05)
(-0.10240214 0.0086362145 -4.6292563e-05)
(-0.10412139 0.0036000487 -6.8056375e-05)
(-0.10466734 -0.0017015539 -9.2114218e-05)
(-0.10398499 -0.0071432841 -0.00011790007)
(-0.10204514 -0.012578008 -0.00014465003)
(-0.098848915 -0.01784028 -0.00017142474)
(-0.094432033 -0.022751726 -0.00019714824)
(-0.088868232 -0.02712841 -0.00022066929)
(-0.082271556 -0.030790038 -0.00024084084)
(-0.074796887 -0.033570689 -0.00025661127)
(-0.066638198 -0.035330546 -0.00026711857)
(-0.058024075 -0.035967889 -0.00027177618)
(-0.049210182 -0.035430403 -0.0002703384)
(-0.040468661 -0.033724776 -0.00026293479)
(-0.032074798 -0.03092361 -0.00025006671)
(-0.024291756 -0.027168911 -0.00023256298)
(-0.017354805 -0.022671884 -0.00021149287)
(-0.011456541 -0.01770939 -0.00018806399)
(-0.0067315848 -0.012617828 -0.00016362393)
(-0.0032427576 -0.0077839948 -0.00013955181)
(-0.0010148207 -0.0036342021 -0.00011561329)
(-0.00010965237 -0.00064314126 -8.3866318e-05)
(-0.00033243211 0.0036590074 -9.9212953e-05)
(-0.0021476995 0.010871055 -6.3828187e-05)
(-0.0058966173 0.017543452 -3.4998463e-05)
(-0.011004126 0.02343177 -1.4044188e-05)
(-0.017149464 0.028415536 2.8060412e-06)
(-0.02411353 0.032448702 1.6031836e-05)
(-0.031690984 0.035535288 2.6169906e-05)
(-0.039695449 0.037708481 3.38274e-05)
(-0.047959959 0.039013394 3.9436169e-05)
(-0.056331441 0.039495125 4.3249601e-05)
(-0.064666222 0.039191787 4.5368817e-05)
(-0.072826708 0.038131765 4.5757815e-05)
(-0.080678836 0.036334434 4.4265322e-05)
(-0.088090413 0.033813432 4.0654893e-05)
(-0.094930406 0.03058163 3.4640131e-05)
(-0.10106919 0.026656987 2.5924097e-05)
(-0.10637971 0.022068591 1.4242244e-05)
(-0.11073949 0.016862322 -5.9231083e-07)
(-0.11403347 0.011105704 -1.8643388e-05)
(-0.11615748 0.0048915835 -3.9809199e-05)
(-0.11702249 -0.0016596534 -6.3787305e-05)
(-0.11655919 -0.0083996065 -9.005556e-05)
(-0.11472324 -0.015153039 -0.00011785732)
(-0.11150069 -0.021721604 -0.00014622144)
(-0.10691325 -0.027889604 -0.00017399536)
(-0.10102319 -0.033432227 -0.00019990657)
(-0.093937296 -0.038126179 -0.00022264622)
(-0.08580903 -0.041762449 -0.0002409694)
(-0.076838417 -0.04416068 -0.00025380304)
(-0.067268753 -0.045184296 -0.00026034935)
(-0.057379682 -0.044755198 -0.00026017065)
(-0.047476363 -0.04286665 -0.00025324254)
(-0.037874974 -0.039592893 -0.0002399657)
(-0.028885371 -0.03509427 -0.0002211307)
(-0.020792598 -0.029617149 -0.00019783044)
(-0.013839101 -0.023488743 -0.0001713523)
(-0.0082057006 -0.017107567 -0.00014319688)
(-0.0039938557 -0.010929171 -0.00011495091)
(-0.0012669379 -0.0054488494 -8.6223511e-05)
(-0.00014168751 -0.0012046305 -5.1047893e-05)
(-0.00037447979 0.004836345 -9.6178326e-05)
(-0.0024040051 0.013979505 -5.5705444e-05)
(-0.0065760214 0.02221638 -2.3889648e-05)
(-0.012233776 0.029352459 -9.7463625e-07)
(-0.019010473 0.035310374 1.7406445e-05)
(-0.026658841 0.040080937 3.191261e-05)
(-0.034951954 0.043698458 4.3238341e-05)
(-0.043688059 0.046220035 5.2128534e-05)
(-0.052690033 0.047708866 5.910644e-05)
(-0.061798238 0.048223007 6.4475637e-05)
(-0.070864715 0.047809201 6.8352531e-05)
(-0.079748852 0.046501051 7.0685777e-05)
(-0.088314057 0.044320701 7.1282525e-05)
(-0.09642546 0.041283119 6.9841737e-05)
(-0.10394869 0.037402066 6.5992608e-05)
(-0.11074966 0.032696908 5.9338134e-05)
(-0.1166953 0.027199564 4.9502754e-05)
(-0.12165519 0.020961016 3.6182957e-05)
(-0.12550404 0.014056943 1.9199335e-05)
(-0.12812498 0.0065921533 -1.4519346e-06)
(-0.12941378 -0.0012965007 -2.5554092e-05)
(-0.1292835 -0.0094390765 -5.2651113e-05)
(-0.12767036 -0.017633096 -8.1999915e-05)
(-0.12454013 -0.025647124 -0.00011260361)
(-0.11989463 -0.033226529 -0.00014322864)
(-0.11377835 -0.040102299 -0.00017246394)
(-0.10628448 -0.046002907 -0.00019880757)
(-0.09755936 -0.050669098 -0.00022077589)
(-0.087804498 -0.05387114 -0.00023702731)
(-0.077275194 -0.055427591 -0.00024648754)
(-0.066274757 -0.055224185 -0.00024846052)
(-0.055143845 -0.053231004 -0.00024270839)
(-0.044244865 -0.049515879 -0.00022948704)
(-0.033942237 -0.044252133 -0.00020952708)
(-0.024580455 -0.037719313 -0.00018395008)
(-0.016462199 -0.030296635 -0.00015415501)
(-0.0098242305 -0.02244981 -0.00012185307)
(-0.0048143235 -0.014711098 -8.891392e-05)
(-0.0015396779 -0.007654996 -5.4840443e-05)
(-0.0001753995 -0.0018960047 -1.5832733e-05)
(-0.00041289693 0.0061417015 -8.5013445e-05)
(-0.0026386511 0.017411824 -3.9254754e-05)
(-0.0071991711 0.027356815 -4.6698893e-06)
(-0.013363897 0.035841309 2.0121217e-05)
(-0.020724425 0.042840366 4.0043034e-05)
(-0.02900794 0.04839025 5.5927088e-05)
(-0.037967913 0.052562859 6.8615517e-05)
(-0.04738883 0.055445004 7.8978087e-05)
(-0.057084866 0.057122288 8.7616955e-05)
(-0.066891321 0.057668717 9.487434e-05)
(-0.076657599 0.05714154 0.00010087128)
(-0.086241882 0.055580526 0.0001055312)
(-0.095506964 0.05301079 0.00010861018)
(-0.10431724 0.049448193 0.0001097327)
(-0.11253683 0.044906387 0.00010843251)
(-0.12002877 0.039404629 0.00010419941)
(-0.12665516 0.032975664 9.653091e-05)
(-0.13227827 0.025673132 8.4987724e-05)
(-0.13676251 0.017578075 6.9252498e-05)
(-0.13997739 0.0088042435 4.9190824e-05)
(-0.14180162 -0.00049802188 2.4909179e-05)
(-0.14212769 -0.010139461 -3.2422908e-06)
(-0.1408683 -0.019892637 -3.4543651e-05)
(-0.13796384 -0.029493691 -6.7991554e-05)
(-0.13339005 -0.038648103 -0.00010227742)
(-0.12716676 -0.047039668 -0.00013584205)
(-0.11936634 -0.054343238 -0.00016696261)
(-0.11012092 -0.060241396 -0.00019386959)
(-0.099627396 -0.064444728 -0.00021488756)
(-0.088148665 -0.066714749 -0.0002285867)
(-0.076009859 -0.06688789 -0.00023392735)
(-0.063588477 -0.064898213 -0.00023037685)
(-0.051298003 -0.060796074 -0.00021797981)
(-0.039565595 -0.054759926 -0.00019736553)
(-0.028805969 -0.047098991 -0.00016967401)
(-0.019394179 -0.038245905 -0.00013643852)
(-0.011634807 -0.028739844 -9.9635647e-05)
(-0.0057318513 -0.019200192 -6.1494936e-05)
(-0.0018442181 -0.010294236 -2.1448313e-05)
(-0.00021287356 -0.0027299192 2.196096e-05)
(-0.00044740179 0.0075633621 -6.4701565e-05)
(-0.0028496384 0.021138771 -1.3424332e-05)
(-0.0077603187 0.032923679 2.3681721e-05)
(-0.014383457 0.042850139 5.0240224e-05)
(-0.022273883 0.05095384 7.1693821e-05)
(-0.031136243 0.057324135 8.9041294e-05)
(-0.04070676 0.062077164 0.00010326426)
(-0.050758028 0.065334898 0.00011534648)
(-0.061097133 0.067209558 0.00012595861)
(-0.071555872 0.067794138 0.00013547208)
(-0.081982654 0.067158386 0.00014400386)
(-0.092236227 0.065349314 0.000151444)
(-0.10218066 0.062395275 0.00015748935)
(-0.11168157 0.058312571 0.00016168093)
(-0.12060348 0.053113605 0.00016344607)
(-0.12880831 0.046815732 0.00016214741)
(-0.13615484 0.039450097 0.00015713745)
(-0.14249908 0.031069983 0.00014781823)
(-0.14769569 0.021758292 0.00013370632)
(-0.1516003 0.011633899 0.00011449839)
(-0.154073 0.00085669707 9.0134025e-05)
(-0.15498384 -0.010368836 6.0902521e-05)
(-0.15421884 -0.021792994 2.7381668e-05)
(-0.15168784 -0.03312142 -9.4304427e-06)
(-0.14733447 -0.044019878 -4.8164183e-05)
(-0.14114661 -0.054122767 -8.711352e-05)
(-0.13316758 -0.063046251 -0.00012431403)
(-0.12350675 -0.070406488 -0.00015766419)
(-0.11234819 -0.075842891 -0.00018508294)
(-0.099955662 -0.079045652 -0.00020469135)
(-0.086671858 -0.079785771 -0.00021499881)
(-0.072910405 -0.077944823 -0.00021506889)
(-0.059139385 -0.073540801 -0.00020463905)
(-0.045856573 -0.066745997 -0.00018416824)
(-0.033558535 -0.057893371 -0.00015478305)
(-0.022706771 -0.047469465 -0.00011816013)
(-0.013688246 -0.036093937 -7.6592795e-05)
(-0.0067761125 -0.024485965 -3.2751456e-05)
(-0.0021923963 -0.013422436 1.3978878e-05)
(-0.00025623547 -0.003725177 6.2544998e-05)
(-0.00047756891 0.0090884332 -3.4325298e-05)
(-0.0030344959 0.025128044 2.2728662e-05)
(-0.0082529498 0.038871261 6.2083586e-05)
(-0.015280482 0.050324849 9.0286716e-05)
(-0.02364029 0.059592209 0.00011325511)
(-0.033017675 0.066822454 0.00013214986)
(-0.043134114 0.07218191 0.000148085)
(-0.053752294 0.075832731 0.00016214908)
(-0.06467386 0.077917781 0.0001750732)
(-0.075728668 0.078552071 0.00018725108)
(-0.086765732 0.077819929 0.00019878963)
(-0.097646099 0.07577681 0.00020953998)
(-0.108237 0.072454686 0.00021913385)
(-0.11840726 0.067869888 0.00022702157)
(-0.12802388 0.062032398 0.00023251421)
(-0.13694973 0.054955719 0.00023483332)
(-0.14504216 0.046666691 0.00023316708)
(-0.15215261 0.037214801 0.00022673289)
(-0.15812717 0.026680714 0.00021484789)
(-0.16280829 0.015183839 0.00019700458)
(-0.16603773 0.0028887127 0.00017294926)
(-0.16766155 -0.0099901858 0.0001427714)
(-0.16753641 -0.023184949 0.00010694106)
(-0.16553803 -0.036374124 6.638409e-05)
(-0.16157224 -0.049185418 2.2489858e-05)
(-0.15558756 -0.06120298 -2.2906744e-05)
(-0.14758923 -0.07198019 -6.7591621e-05)
(-0.13765368 -0.081058827 -0.00010909138)
(-0.12594164 -0.087995015 -0.00014484495)
(-0.11270795 -0.092391525 -0.00017241723)
(-0.098305325 -0.093934736 -0.00018973512)
(-0.083179698 -0.092433121 -0.00019531631)
(-0.067854874 -0.087852635 -0.00018845687)
(-0.052905957 -0.080343432 -0.00016933896)
(-0.038923386 -0.070252527 -0.00013901241)
(-0.026471114 -0.058118777 -9.9286054e-05)
(-0.016036195 -0.044649331 -5.2814939e-05)
(-0.0079776422 -0.030677728 -2.7973358e-06)
(-0.0025964009 -0.017110415 5.1411221e-05)
(-0.00030764416 -0.0049069239 0.00010608832)
(-0.00050289285 0.010702612 6.9168744e-06)
(-0.0031905058 0.029343994 7.0022326e-05)
(-0.0086701811 0.045149015 0.00011133339)
(-0.016042587 0.058205256 0.00014105004)
(-0.024804607 0.068689707 0.00016551396)
(-0.034625409 0.076816885 0.00018604295)
(-0.045214219 0.082808495 0.00020387699)
(-0.056325754 0.086871432 0.00022020174)
(-0.067757811 0.089183003 0.00023580302)
(-0.079339768 0.089883232 0.00025109298)
(-0.090922768 0.089073193 0.00026616569)
(-0.10237182 0.086818137 0.0002808311)
(-0.11355918 0.083154198 0.00029465312)
(-0.12435896 0.078097469 0.00030698685)
(-0.13464287 0.071654412 0.00031701936)
(-0.14427711 0.063832742 0.00032381845)
(-0.15312004 0.054652184 0.00032638865)
(-0.16102089 0.044154752 0.00032373513)
(-0.16781942 0.032414366 0.00031493837)
(-0.17334671 0.019545697 0.00029923901)
(-0.17742742 0.0057121173 0.00027612992)
(-0.17988397 -0.0088675172 0.00024545368)
(-0.1805427 -0.023913392 0.00020748602)
(-0.17924259 -0.039082018 0.00016301721)
(-0.17584705 -0.053966598 0.00011339897)
(-0.1702582 -0.06810218 6.0554988e-05)
(-0.16243386 -0.080977066 6.9371247e-06)
(-0.15240596 -0.092051932 -4.4583514e-05)
(-0.1402989 -0.10078772 -9.0895569e-05)
(-0.12634538 -0.10668251 -0.00012889192)
(-0.11089647 -0.10931601 -0.00015576163)
(-0.094422256 -0.10839845 -0.0001692967)
(-0.077499674 -0.10381827 -0.00016817024)
(-0.060785499 -0.095681306 -0.00015213088)
(-0.044975604 -0.084333405 -0.00012204397)
(-0.030754065 -0.070360432 -7.9808036e-05)
(-0.018729182 -0.054562826 -2.8473007e-05)
(-0.0093670533 -0.037904381 2.8141852e-05)
(-0.0030686217 -0.021444149 9.0695013e-05)
(-0.00036931333 -0.0063067603 0.00015264569)
(-0.00052285544 0.01239011 5.9688909e-05)
(-0.0033149943 0.033747586 0.00012913065)
(-0.0090053749 0.051701598 0.00017208801)
(-0.016657906 0.066425151 0.00020318144)
(-0.025748537 0.078173324 0.00022912051)
(-0.035933378 0.087230587 0.00025137286)
(-0.046911744 0.093878426 0.0002712983)
(-0.058432154 0.098372547 0.00029017345)
(-0.070289974 0.10092827 0.00030883579)
(-0.082315421 0.10171361 0.0003277153)
(-0.094363148 0.10084865 0.00034689423)
(-0.10630369 0.098409985 0.00036614305)
(-0.11801615 0.094438689 0.00038495896)
(-0.12938202 0.088950592 0.00040260109)
(-0.14028016 0.081947769 0.00041812807)
(-0.15058278 0.073430384 0.00043044395)
(-0.16015222 0.06340835 0.00043835202)
(-0.16883867 0.051912543 0.00044061805)
(-0.17647878 0.039005486 0.00043604741)
(-0.18289543 0.024791519 0.0004235771)
(-0.18789896 0.0094264227 0.00040238095)
(-0.1912903 -0.0068736515 0.00037198442)
(-0.19286645 -0.023824309 0.00033237802)
(-0.19242894 -0.041067099 0.0002841286)
(-0.18979571 -0.058166715 0.00022846622)
(-0.18481669 -0.074612979 0.00016733428)
(-0.17739318 -0.089829589 0.00010338165)
(-0.16750022 -0.10319178 3.9878432e-05)
(-0.15521071 -0.11405488 -1.9458556e-05)
(-0.14071837 -0.12179489 -7.0734392e-05)
(-0.12435608 -0.12586058 -0.00011022612)
(-0.10660441 -0.12583421 -0.00013478126)
(-0.088085559 -0.12149456 -0.00014221259)
(-0.069538256 -0.11287297 -0.00013161407)
(-0.05177357 -0.10029113 -0.00010349711)
(-0.035614322 -0.084370587 -5.9760389e-05)
(-0.02181472 -0.066007873 -3.8595187e-06)
(-0.010974369 -0.046313323 5.9668707e-05)
(-0.0036215688 -0.026524619 0.00013147964)
(-0.00044354653 -0.0079628254 0.00020208275)
(-0.00053699749 0.014133751 0.00012449511)
(-0.0034056749 0.038296702 0.00020056413)
(-0.0092529164 0.058469313 0.00024484477)
(-0.017116335 0.074912741 0.00027717287)
(-0.026456211 0.087963118 0.00030456218)
(-0.036918396 0.097978227 0.00032862194)
(-0.048194337 0.10530293 0.00035082602)
(-0.060027855 0.11024534 0.00037253777)
(-0.072213066 0.11306217 0.00039464619)
(-0.08458212 0.11395234 0.00041760228)
(-0.096994381 0.11305739 0.00044148166)
(-0.10932735 0.11046705 0.00046602142)
(-0.12146869 0.10622842 0.00049065778)
(-0.13330941 0.10035738 0.00051455765)
(-0.14473807 0.092851137 0.00053665125)
(-0.15563585 0.083700895 0.00055567312)
(-0.16587252 0.072904403 0.00057021139)
(-0.17530314 0.060478005 0.00057876799)
(-0.18376552 0.046468325 0.00057983588)
(-0.19107885 0.030963722 0.00057199615)
(-0.19704363 0.014105584 0.00055403456)
(-0.20144346 -0.0039005469 0.00052507486)
(-0.20404933 -0.02277436 0.00048472235)
(-0.20462696 -0.042151527 0.00043321055)
(-0.20294822 -0.061576953 0.00037153535)
(-0.19880701 -0.08050247 0.0003015564)
(-0.1920403 -0.098291405 0.00022604076)
(-0.18255399 -0.11423296 0.00014862156)
(-0.17035277 -0.12756943 7.3646307e-05)
(-0.1555712 -0.13753884 5.8985775e-06)
(-0.13850218 -0.14343382 -4.9804919e-05)
(-0.11961655 -0.14467486 -8.9113833e-05)
(-0.099566747 -0.14089163 -0.00010868262)
(-0.07916763 -0.13200109 -0.0001066507)
(-0.059351437 -0.11826724 -8.2923331e-05)
(-0.041097978 -0.10032691 -3.9240739e-05)
(-0.025335169 -0.079169968 2.0564422e-05)
(-0.012828307 -0.056068425 9.1145602e-05)
(-0.0042677979 -0.032467302 0.00017313472)
(-0.00053277751 -0.0099198706 0.00025399176)
(-0.00054499536 0.015915262 0.00020165883)
(-0.0034610356 0.042946859 0.00028465242)
(-0.0094091236 0.065389045 0.00032992554)
(-0.017411021 0.083591621 0.0003633391)
(-0.026916261 0.097973031 0.00039214129)
(-0.037562782 0.10896651 0.00041807339)
(-0.049035795 0.1169831 0.00044271864)
(-0.061075578 0.12238647 0.00046752525)
(-0.073475877 0.12547789 0.00049343725)
(-0.08607164 0.12649023 0.000520934)
(-0.098727946 0.12558907 0.00055009426)
(-0.11133052 0.12287936 0.00058063276)
(-0.12377725 0.11841566 0.00061193539)
(-0.13597073 0.11221473 0.00064308582)
(-0.14781177 0.10426884 0.00067289137)
(-0.15919376 0.094559443 0.00069991679)
(-0.16999772 0.083070308 0.00072252662)
(-0.18008805 0.069800397 0.00073893984)
(-0.18930893 0.054776411 0.00074730426)
(-0.19748162 0.038065373 0.00074579573)
(-0.20440296 0.019787486 0.00073274349)
(-0.20984548 0.00012936683 0.00070678077)
(-0.21355989 -0.020642523 0.00066701806)
(-0.21528075 -0.042168924 0.0006132276)
(-0.21473625 -0.063986498 0.00054603142)
(-0.21166341 -0.085520129 0.00046706495)
(-0.20582952 -0.10608169 0.00037908893)
(-0.19706049 -0.1248789 0.00028601307)
(-0.18527584 -0.14103853 0.00019279271)
(-0.17052831 -0.15364835 0.00010516527)
(-0.15304406 -0.16182067 2.9210856e-05)
(-0.13325655 -0.16477772 -2.9247742e-05)
(-0.11182471 -0.16195345 -6.5350321e-05)
(-0.089624995 -0.15309929 -7.5891787e-05)
(-0.067710313 -0.13837445 -5.9813409e-05)
(-0.047233164 -0.11839763 -1.844028e-05)
(-0.02932511 -0.09424003 4.4111621e-05)
(-0.014955365 -0.067346903 0.00012161329)
(-0.005019795 -0.039401257 0.00021465204)
(-0.00063960894 -0.012229312 0.00030759187)
(-0.00054674212 0.017715792 0.00029130441)
(-0.0034807642 0.0476524 0.00038153187)
(-0.0094732672 0.072395797 0.0004274662)
(-0.017540059 0.092382364 0.00046180539)
(-0.027124179 0.10811232 0.00049195812)
(-0.037857368 0.1200953 0.00051978749)
(-0.049419713 0.12881059 0.00054698324)
(-0.061548694 0.1346802 0.00057508016)
(-0.074038279 0.1380531 0.00060508521)
(-0.086726849 0.13919914 0.00063751834)
(-0.099486031 0.1383108 0.00067247623)
(-0.11221091 0.13551062 0.0007096673)
(-0.12481111 0.1308626 0.00074844308)
(-0.1372028 0.12438556 0.00078781839)
(-0.14930166 0.11606753 0.00082648901)