/*--------------------------------*- C++ -*----------------------------------*\
  =========                 |
  \\      /  F ield         | OpenFOAM: The Open Source CFD Toolbox
   \\    /   O peration     | Website:  https://openfoam.org
    \\  /    A nd           | Version:  7
     \\/     M anipulation  |
\*---------------------------------------------------------------------------*/
FoamFile
{
    version     2.0;
    format      ascii;
    class       volVectorField;
    location    "7";
    object      U_0;
}
// * * * * * * * * * * * * * * * * * * * * * * * * * * * * * * * * * * * * * //

dimensions      [0 1 -1 0 0 0 0];

internalField   nonuniform List<vector> 
16000
(
(6.422825e-05 -6.1736353e-05 5.2631126e-07)
(0.00015433609 -5.0782529e-05 6.5815686e-06)
(0.00012779897 3.3004649e-06 1.9397627e-05)
(-6.2263283e-05 6.1544827e-05 3.581691e-05)
(-0.00041066155 0.00011252128 5.2732669e-05)
(-0.00089138768 0.00015242238 6.8307966e-05)
(-0.0014759726 0.00018153118 8.1271218e-05)
(-0.0021367398 0.00020146581 9.0849481e-05)
(-0.0028490379 0.00021394628 9.6607453e-05)
(-0.0035915808 0.00022038864 9.8316967e-05)
(-0.004345898 0.00022180214 9.5865884e-05)
(-0.0050955024 0.00021879265 8.9204554e-05)
(-0.0058250557 0.00021161694 7.8324774e-05)
(-0.0065196742 0.00020026906 6.3253954e-05)
(-0.0071644318 0.00018457944 4.4064208e-05)
(-0.0077441191 0.00016431524 2.0894757e-05)
(-0.0082432825 0.00013927963 -6.0212449e-06)
(-0.0086465251 0.00010940628 -3.6331489e-05)
(-0.0089390452 7.4843611e-05 -6.954315e-05)
(-0.0091073771 3.6023879e-05 -0.00010500755)
(-0.009140291 -6.2887458e-06 -0.00014191508)
(-0.0090297616 -5.0989364e-05 -0.0001793042)
(-0.008771952 -9.6607327e-05 -0.00021608538)
(-0.0083681144 -0.00014137078 -0.00025108188)
(-0.0078252889 -0.00018327733 -0.00028308479)
(-0.0071567323 -0.00022020361 -0.00031092075)
(-0.0063819844 -0.00025004522 -0.00033352813)
(-0.0055265078 -0.00027087444 -0.00035003643)
(-0.004620875 -0.00028110087 -0.00035984192)
(-0.0036995146 -0.00027961685 -0.00036267256)
(-0.0027990777 -0.00026591078 -0.00035863573)
(-0.0019565244 -0.00024013455 -0.0003482447)
(-0.0012070405 -0.00020312284 -0.00033242296)
(-0.00058179433 -0.00015639519 -0.00031249069)
(-0.0001054954 -0.00010228178 -0.00029012674)
(0.00020496747 -4.4314049e-05 -0.00026725741)
(0.00034494378 1.3174972e-05 -0.00024621662)
(0.00032713303 6.1299343e-05 -0.00022933555)
(0.00019636245 8.4897026e-05 -0.00021921018)
(5.5612031e-05 5.5535466e-05 -0.00020332793)
(5.4392926e-05 -0.00015273136 -5.3236191e-06)
(3.2276296e-05 -2.7584154e-05 7.967659e-07)
(-0.00029836123 0.00024835899 1.180378e-05)
(-0.00099181589 0.00054659497 2.5278783e-05)
(-0.0020389743 0.00081750435 3.9210757e-05)
(-0.003396027 0.0010408792 5.2083724e-05)
(-0.0050049799 0.0012124628 6.2822603e-05)
(-0.0068046711 0.0013352084 7.0713257e-05)
(-0.0087364857 0.0014143786 7.5299378e-05)
(-0.010746398 0.0014552265 7.6301221e-05)
(-0.012785027 0.0014619759 7.3553815e-05)
(-0.014806724 0.0014374763 6.6964225e-05)
(-0.01676833 0.0013832452 5.6492474e-05)
(-0.018628028 0.0012997489 4.2146083e-05)
(-0.020344534 0.0011868178 2.3986705e-05)
(-0.021876792 0.0010441255 2.1470781e-06)
(-0.023184238 0.00087168277 -2.3147911e-05)
(-0.024227624 0.00067030788 -5.1560645e-05)
(-0.024970354 0.00044203854 -8.2623183e-05)
(-0.025380252 0.00019045546 -0.0001157249)
(-0.02543164 -7.9111073e-05 -0.00015010896)
(-0.025107483 -0.00035949275 -0.00018488654)
(-0.024401545 -0.00064179152 -0.00021905189)
(-0.023320309 -0.00091563554 -0.00025152672)
(-0.021884368 -0.0011696193 -0.00028120966)
(-0.020129183 -0.0013919109 -0.00030703887)
(-0.018105026 -0.0015709929 -0.00032806242)
(-0.015875946 -0.0016964836 -0.00034351106)
(-0.013517739 -0.0017599735 -0.00035286681)
(-0.011114919 -0.001755796 -0.00035592074)
(-0.0087568101 -0.0016816622 -0.00035281361)
(-0.0065329279 -0.0015391076 -0.00034405536)
(-0.0045278606 -0.0013337481 -0.00033052124)
(-0.002815786 -0.0010754437 -0.00031342639)
(-0.0014547087 -0.00077869708 -0.00029427905)
(-0.0004806869 -0.00046368823 -0.00027480505)
(9.9037618e-05 -0.00015699394 -0.00025686862)
(0.00031544988 0.00010149152 -0.00024241722)
(0.00025498806 0.00025090882 -0.0002334093)
(8.5275251e-05 0.00019532975 -0.00021557799)
(-1.3661693e-07 -0.0001315546 -1.8387483e-05)
(-0.00025288416 0.00030317072 -1.0029995e-05)
(-0.001020347 0.00099843071 1.2220389e-06)
(-0.002305236 0.0017350713 1.3373965e-05)
(-0.0040787528 0.002411516 2.5456241e-05)
(-0.0062836305 0.0029806722 3.6379519e-05)
(-0.0088427772 0.0034268685 4.5351765e-05)
(-0.011672579 0.0037512021 5.1837498e-05)
(-0.014690388 0.0039618937 5.5474202e-05)
(-0.017817539 0.0040688324 5.602289e-05)
(-0.020980054 0.0040807497 5.332745e-05)
(-0.024108086 0.0040040079 4.7287195e-05)
(-0.027134808 0.0038424219 3.7845944e-05)
(-0.029995316 0.0035977434 2.4989365e-05)
(-0.032625902 0.0032705487 8.7518365e-06)
(-0.03496393 0.0028613355 -1.0767576e-05)
(-0.036948428 0.002371683 -3.3385319e-05)
(-0.038521392 0.0018053582 -5.881442e-05)
(-0.039629743 0.0011692776 -8.664841e-05)
(-0.040227804 0.00047424253 -0.00011634985)
(-0.040280101 -0.00026461431 -0.00014724815)
(-0.039764312 -0.0010276964 -0.00017854506)
(-0.038674089 -0.001791306 -0.00020933736)
(-0.037021493 -0.0025283178 -0.00023865047)
(-0.034838756 -0.0032093211 -0.00026548561)
(-0.032179158 -0.0038041398 -0.00028887796)
(-0.02911678 -0.0042836574 -0.00030796226)
(-0.025744963 -0.0046218286 -0.00032204075)
(-0.022173423 -0.0047977283 -0.00033064696)
(-0.018523998 -0.0047974685 -0.00033359874)
(-0.014925169 -0.0046158222 -0.00033103397)
(-0.011505545 -0.0042574456 -0.00032342468)
(-0.0083865748 -0.0037376813 -0.00031156704)
(-0.0056747441 -0.0030830913 -0.00029654771)
(-0.0034534881 -0.0023321154 -0.00027968934)
(-0.0017749656 -0.0015364961 -0.00026247661)
(-0.00065173158 -0.00076404572 -0.00024645642)
(-4.838559e-05 -0.00010468055 -0.00023314702)
(0.0001332046 0.00031930528 -0.00022423798)
(6.770416e-05 0.0003318296 -0.00020568106)
(-6.3426165e-05 6.3150996e-05 -3.5585478e-05)
(-0.00058701948 0.0010253612 -2.3491542e-05)
(-0.0018541793 0.0023019525 -1.0265661e-05)
(-0.0037813345 0.0036101157 2.1813389e-06)
(-0.0063037294 0.0048055062 1.3839762e-05)
(-0.0093460851 0.0058156251 2.3978748e-05)
(-0.012813682 0.0066126174 3.2079083e-05)
(-0.01660493 0.0071944021 3.7817307e-05)
(-0.020618875 0.0075711085 4.0966856e-05)
(-0.02475801 0.0077566945 4.1368118e-05)
(-0.028929119 0.0077642482 3.8904919e-05)
(-0.033042949 0.007603779 3.3488471e-05)
(-0.037013327 0.0072817311 2.5053912e-05)
(-0.040756274 0.00680166 1.3562796e-05)
(-0.044189524 0.0061656382 -9.863286e-07)
(-0.047232691 0.0053760504 -1.8539632e-05)
(-0.049808214 0.0044375157 -3.8966703e-05)
(-0.051843081 0.003358725 -6.2040278e-05)
(-0.053271253 0.0021540258 -8.7418626e-05)
(-0.054036627 0.00084461124 -0.00011463241)
(-0.054096334 -0.0005407946 -0.0001430796)
(-0.053424172 -0.0019658683 -0.00017202798)
(-0.052013849 -0.0033872819 -0.00020063617)
(-0.049881729 -0.0047560027 -0.0002279834)
(-0.047068845 -0.0060192967 -0.00025311493)
(-0.043641873 -0.0071233681 -0.00027509903)
(-0.0396928 -0.0080165113 -0.00029309192)
(-0.035337119 -0.0086525869 -0.00030640571)
(-0.030710424 -0.0089945819 -0.00031457248)
(-0.025963384 -0.0090179794 -0.00031739719)
(-0.021255199 -0.008713676 -0.00031499253)
(-0.016745744 -0.0080902434 -0.00030779044)
(-0.012586712 -0.0071754668 -0.00029652768)
(-0.0089121359 -0.0060172936 -0.00028220575)
(-0.0058287109 -0.0046846059 -0.00026602807)
(-0.0034063366 -0.0032685959 -0.00024932167)
(-0.0016689627 -0.0018857247 -0.00023345829)
(-0.00058613246 -0.00068260961 -0.00021977507)
(-6.7675791e-05 0.00015629747 -0.00020943636)
(3.2769863e-05 0.00037928755 -0.0001890428)
(-0.00012585007 0.00044317876 -5.3821828e-05)
(-0.00092876789 0.0021708712 -3.7453767e-05)
(-0.0027172312 0.0041902439 -2.1488815e-05)
(-0.0053071063 0.0061857076 -7.9639209e-06)
(-0.0085865949 0.0079865882 4.0074065e-06)
(-0.012456596 0.0095033082 1.4007505e-05)
(-0.016803048 0.01069955 2.1773576e-05)
(-0.021507572 0.011571227 2.7197944e-05)
(-0.026453879 0.012130405 3.0202591e-05)
(-0.031529473 0.012394758 3.0721236e-05)
(-0.036626027 0.012381365 2.8689093e-05)
(-0.041638977 0.012103671 2.4035885e-05)
(-0.046466733 0.011570765 1.6689389e-05)
(-0.051009965 0.010788284 6.5839336e-06)
(-0.055171365 0.0097603768 -6.324342e-06)
(-0.058856096 0.0084922199 -2.2035615e-05)
(-0.061973042 0.0069927387 -4.0481755e-05)
(-0.064436858 0.0052771947 -6.1502832e-05)
(-0.066170725 0.0033694012 -8.482622e-05)
(-0.067109651 0.0013033613 -0.0001100498)
(-0.067204107 -0.00087583772 -0.00013663267)
(-0.066423767 -0.003112016 -0.0001638961)
(-0.064761053 -0.0053388119 -0.00019103828)
(-0.062234199 -0.0074816419 -0.00021716338)
(-0.058889526 -0.0094606409 -0.00024132581)
(-0.05480263 -0.011194517 -0.00026258733)
(-0.050078202 -0.01260516 -0.00028008377)
(-0.044848241 -0.013622751 -0.00029309567)
(-0.039268478 -0.014191043 -0.00030111596)
(-0.033512948 -0.014272433 -0.00030390607)
(-0.027766765 -0.013852434 -0.00030153285)
(-0.022217291 -0.012943214 -0.00029438007)
(-0.017044064 -0.011586031 -0.00028313149)
(-0.012407969 -0.0098525963 -0.00026872582)
(-0.0084403216 -0.0078457394 -0.00025228576)
(-0.0052325552 -0.0057001348 -0.00023503362)
(-0.0028263048 -0.0035840719 -0.0002182333)
(-0.0012046865 -0.0017021304 -0.00020310997)
(-0.0002980285 -0.00029998446 -0.00019034864)
(-6.0193122e-06 0.00030777587 -0.00016752248)
(-0.0001839635 0.0010021874 -7.0972109e-05)
(-0.0012601494 0.0037423593 -5.0035402e-05)
(-0.0035681293 0.0066729169 -3.0935829e-05)
(-0.0068196264 0.0094708544 -1.5838152e-05)
(-0.010850371 0.011956296 -3.0365359e-06)
(-0.015533067 0.01403356 7.3205122e-06)
(-0.020732093 0.015664291 1.5202827e-05)
(-0.026312139 0.016845742 2.0707527e-05)
(-0.032143029 0.017593399 2.3902819e-05)
(-0.038099782 0.017929131 2.4816793e-05)
(-0.044062054 0.017874025 2.3437523e-05)
(-0.049913325 0.017444836 1.9713525e-05)
(-0.055539971 0.016653231 1.3563217e-05)
(-0.06083059 0.015507034 4.8891938e-06)
(-0.065675892 0.014012788 -6.4012366e-06)
(-0.069969331 0.012179052 -2.0369779e-05)
(-0.073608564 0.010019909 -3.70182e-05)
(-0.076497708 0.0075583139 -5.6260398e-05)
(-0.078550299 0.0048289365 -7.7896786e-05)
(-0.079692806 0.0018802382 -0.00010159251)
(-0.079868497 -0.0012244162 -0.00012686321)
(-0.079041422 -0.0044067827 -0.00015307204)
(-0.077200271 -0.0075749775 -0.00017943958)
(-0.074361807 -0.010626062 -0.00020507142)
(-0.070573553 -0.013449914 -0.00022900137)
(-0.065915437 -0.015934323 -0.00025024988)
(-0.060500056 -0.017971124 -0.00026789406)
(-0.054471242 -0.019463071 -0.00028114354)
(-0.04800069 -0.020331047 -0.00028941436)
(-0.04128247 -0.020521097 -0.00029239159)
(-0.03452541 -0.020010755 -0.00029007166)
(-0.027943538 -0.018814156 -0.00028277697)
(-0.021744926 -0.016985568 -0.00027113942)
(-0.016119585 -0.014621237 -0.00025605239)
(-0.011227293 -0.011859751 -0.0002385927)
(-0.0071863267 -0.0088816406 -0.00021992985)
(-0.0040624725 -0.0059090773 -0.00020128899)
(-0.0018595228 -0.0032053454 -0.000183865)
(-0.00053537917 -0.001075281 -0.00016795177)
(-4.3074394e-05 0.00011260489 -0.00014234514)
(-0.00023743017 0.0017312433 -8.5210687e-05)
(-0.0015747098 0.0057285297 -5.9562165e-05)
(-0.0043869767 0.0097402337 -3.7176543e-05)
(-0.0082844109 0.013455382 -2.0219808e-05)
(-0.013048859 0.016700629 -6.2422056e-06)
(-0.018522466 0.019385821 4.8400631e-06)
(-0.024546512 0.02147841 1.3205017e-05)
(-0.030968426 0.022981829 1.9137722e-05)
(-0.037644975 0.023917694 2.2841912e-05)
(-0.044440433 0.02431341 2.4433206e-05)
(-0.051224817 0.024194591 2.3947406e-05)
(-0.057872386 0.023581415 2.1347028e-05)
(-0.064260354 0.022488078 1.6535844e-05)
(-0.070268063 0.020924542 9.3785906e-06)
(-0.075776844 0.018899797 -2.732644e-07)
(-0.080670689 0.016425952 -1.255063e-05)
(-0.084837778 0.013522567 -2.7532971e-05)
(-0.0881728 0.010220755 -4.5215001e-05)
(-0.090579998 0.0065666485 -6.5475336e-05)
(-0.091976789 0.0026239514 -8.8048701e-05)
(-0.092297787 -0.0015246974 -0.00011250577)
(-0.091499021 -0.0057777181 -0.00013824523)
(-0.089562156 -0.010016053 -0.00016449811)
(-0.086498436 -0.014106289 -0.00019035325)
(-0.082351999 -0.017905376 -0.0002147992)
(-0.077202272 -0.02126691 -0.00023678425)
(-0.071165035 -0.024048821 -0.00025529084)
(-0.064391751 -0.026122123 -0.00026941838)
(-0.057066777 -0.027380264 -0.000278466)
(-0.049402175 -0.027748444 -0.00028200507)
(-0.041629991 -0.027192177 -0.00027993072)
(-0.033992097 -0.025724371 -0.00027248381)
(-0.026727984 -0.023410291 -0.00026023847)
(-0.020061216 -0.02037005 -0.00024405414)
(-0.01418572 -0.016778624 -0.000224992)
(-0.0092531118 -0.012863974 -0.0002042182)
(-0.0053599965 -0.0089040529 -0.00018298707)
(-0.0025368332 -0.0052222756 -0.00016254575)
(-0.00077337477 -0.0021825824 -0.00014288316)
(-7.7325103e-05 -0.00020486211 -0.00011430192)
(-0.00028674169 0.0026200425 -9.4994044e-05)
(-0.0018705811 0.0081111154 -6.4534006e-05)
(-0.0051643555 0.013371364 -3.8874955e-05)
(-0.009682289 0.018117005 -1.9934009e-05)
(-0.015153559 0.022195106 -4.5776766e-06)
(-0.02138925 0.025532334 7.4841786e-06)
(-0.028207078 0.028110293 1.6616844e-05)
(-0.035437278 0.029944278 2.3275225e-05)
(-0.042924306 0.031065609 2.7784199e-05)
(-0.05052311 0.031509262 3.0335422e-05)
(-0.058096014 0.031306392 3.1002919e-05)
(-0.065510356 0.030480972 2.975493e-05)
(-0.072636647 0.029049741 2.6472799e-05)
(-0.079347399 0.027024632 2.097558e-05)
(-0.085516795 0.024416835 1.3050681e-05)
(-0.091021225 0.021241736 2.4892922e-06)
(-0.095740715 0.017524096 -1.087476e-05)
(-0.099561179 0.013302908 -2.7125876e-05)
(-0.10237741 0.0086355361 -4.6228922e-05)
(-0.10409669 0.0036007806 -6.7994613e-05)
(-0.10464297 -0.0016994038 -9.2052369e-05)
(-0.10396126 -0.0071397513 -0.00011783658)
(-0.10202231 -0.012573174 -0.00014458347)
(-0.098827253 -0.017834271 -0.00017135377)
(-0.094411774 -0.022744713 -0.00019707194)
(-0.088849576 -0.027120602 -0.00022058755)
(-0.082254667 -0.030781678 -0.00024075426)
(-0.074781883 -0.033562044 -0.00025652092)
(-0.06662515 -0.0353219 -0.00026702576)
(-0.058012999 -0.035959525 -0.00027168237)
(-0.04920104 -0.035422594 -0.00027024514)
(-0.040461361 -0.033717765 -0.00026284353)
(-0.032069198 -0.030917597 -0.00024997861)
(-0.024287669 -0.027164038 -0.00023247913)
(-0.017352006 -0.022668221 -0.0002114142)
(-0.011454784 -0.017706921 -0.00018799091)
(-0.0067306157 -0.012616444 -0.00016355641)
(-0.0032423282 -0.0077834866 -0.00013948914)
(-0.001014704 -0.0036342572 -0.00011555463)
(-0.00010964538 -0.00064333786 -8.3814761e-05)
(-0.00033232779 0.0036581588 -9.897547e-05)
(-0.0021470555 0.010868293 -6.3585989e-05)
(-0.0058948836 0.017538876 -3.4766213e-05)
(-0.011000932 0.023425593 -1.3820467e-05)
(-0.017144542 0.028408017 3.020747e-06)
(-0.024106685 0.032440121 1.623723e-05)
(-0.031682087 0.035525926 2.6365013e-05)
(-0.039684428 0.037698611 3.4011662e-05)
(-0.047946796 0.039003277 3.9608e-05)
(-0.056316162 0.039485008 4.340852e-05)
(-0.0646489 0.039181906 4.5514022e-05)
(-0.072807453 0.038122348 4.5888363e-05)
(-0.080657796 0.036325702 4.4381089e-05)
(-0.088067774 0.033805595 4.075641e-05)
(-0.094906384 0.030574888 3.4728199e-05)
(-0.10104403 0.026651523 2.5999604e-05)
(-0.10635368 0.022064564 1.4306751e-05)
(-0.11071288 0.016859863 -5.3623134e-07)
(-0.11400657 0.011104907 -1.8592646e-05)
(-0.1161306 0.0048924999 -3.9760912e-05)
(-0.11699593 -0.0016570182 -6.3739155e-05)
(-0.11653327 -0.0083952965 -9.0005677e-05)
(-0.11469823 -0.015147151 -0.00011780397)
(-0.11147686 -0.021714287 -0.000146163)
(-0.10689085 -0.027881057 -0.00017393074)
(-0.10100245 -0.033422693 -0.00019983546)
(-0.093918393 -0.038115942 -0.00022256912)
(-0.085792106 -0.041751822 -0.00024088734)
(-0.076823566 -0.044149997 -0.0002537174)
(-0.067256018 -0.045173894 -0.00026026173)
(-0.057369048 -0.044745406 -0.00026008279)
(-0.047467758 -0.042857767 -0.00025315606)
(-0.037868271 -0.039585169 -0.00023988199)
(-0.028880388 -0.035087892 -0.00022105111)
(-0.020789112 -0.029612218 -0.00019775616)
(-0.013836855 -0.023485265 -0.00017128393)
(-0.0082044184 -0.017105439 -0.0001431346)
(-0.0039932601 -0.010928173 -0.00011489418)
(-0.0012667619 -0.0054486439 -8.6171681e-05)
(-0.00014167177 -0.0012047561 -5.1003879e-05)
(-0.0003743623 0.0048351321 -9.5941673e-05)
(-0.0024032848 0.013975822 -5.5465188e-05)
(-0.0065740925 0.02221045 -2.3660121e-05)
(-0.01223024 0.029344601 -7.5402889e-07)
(-0.01900505 0.035300936 1.7617818e-05)
(-0.026651336 0.040070276 3.2114381e-05)
(-0.034942241 0.04368692 4.3429566e-05)
(-0.043676078 0.04620795 5.2308436e-05)
(-0.052675778 0.047696545 5.9273501e-05)
(-0.06178175 0.048210743 6.4629118e-05)
(-0.07084608 0.047797273 6.84912e-05)
(-0.079728197 0.046489726 7.0808681e-05)
(-0.088291543 0.044310236 7.1389382e-05)
(-0.096401285 0.041273757 6.9932766e-05)
(-0.10392308 0.037394036 6.6068668e-05)
(-0.11072287 0.032690418 5.9400439e-05)
(-0.11666761 0.027194794 4.9553069e-05)
(-0.12162688 0.020958109 3.6223866e-05)
(-0.12547541 0.014056003 1.9233996e-05)
(-0.12809634 0.006593234 -1.4203902e-06)
(-0.12938543 -0.0012933967 -2.5523006e-05)
(-0.12925576 -0.0094339998 -5.2618141e-05)
(-0.1276435 -0.017626158 -8.1963041e-05)
(-0.12451445 -0.025638492 -0.00011256099)
(-0.11987037 -0.033216426 -0.00014317895)
(-0.11375576 -0.040091 -0.00017240664)
(-0.10626376 -0.045990731 -0.00019874298)
(-0.097540663 -0.050656402 -0.00022070491)
(-0.087787955 -0.053858306 -0.00023695125)
(-0.077260875 -0.05541501 -0.00024640809)
(-0.066262679 -0.055212244 -0.00024837958)
(-0.055133961 -0.053220061 -0.00024262779)
(-0.044237069 -0.049506242 -0.00022940845)
(-0.033936361 -0.044244042 -0.00020945223)
(-0.024576278 -0.037712913 -0.00018388041)
(-0.016459458 -0.030291962 -0.00015409149)
(-0.0098226312 -0.022446776 -0.00012179611)
(-0.0048135598 -0.014709483 -8.8863245e-05)
(-0.0015394422 -0.0076544468 -5.479562e-05)
(-0.00017537515 -0.0018960293 -1.5796527e-05)
(-0.00041276861 0.0061400907 -8.478133e-05)
(-0.0026378711 0.017407135 -3.9019877e-05)
(-0.0071970907 0.027349415 -4.4465683e-06)
(-0.013360097 0.035831636 2.0335404e-05)
(-0.02071862 0.04282887 4.024786e-05)
(-0.028999933 0.048377371 5.6122115e-05)
(-0.037957586 0.052549016 6.8799826e-05)
(-0.047376133 0.055430586 7.9150649e-05)
(-0.057069804 0.057107658 8.7776276e-05)
(-0.066873948 0.057654215 9.5019347e-05)
(-0.076638015 0.057127487 0.00010100029)
(-0.086220223 0.055567228 0.00010564331)
(-0.095483405 0.052998537 0.00010870498)
(-0.10429199 0.049437261 0.00010981012)
(-0.11251011 0.044897031 0.00010849343)
(-0.12000085 0.039397079 0.00010424534)
(-0.12662631 0.032970118 9.6563745e-05)
(-0.13224877 0.025669745 8.5009972e-05)
(-0.13673266 0.017576958 6.9267331e-05)
(-0.1399475 0.0088054534 4.9201607e-05)
(-0.14177197 -0.000494483 2.4918859e-05)
(-0.14209859 -0.010133656 -3.2305386e-06)
(-0.14084004 -0.019884686 -3.452763e-05)
(-0.13793669 -0.029483775 -6.7969204e-05)
(-0.13336428 -0.038636465 -0.00010224711)
(-0.12714262 -0.047026607 -0.00013580293)
(-0.11934405 -0.054329104 -0.00016691464)
(-0.11010067 -0.060226585 -0.00019381339)
(-0.09960933 -0.064429666 -0.00021482428)
(-0.088132891 -0.066699882 -0.00022851807)
(-0.075996427 -0.066873663 -0.00023385544)
(-0.063577372 -0.064885046 -0.00023030373)
(-0.051289148 -0.060784341 -0.00021790754)
(-0.039558843 -0.054749927 -0.0001972963)
(-0.028801109 -0.047090925 -0.00016960964)
(-0.019390944 -0.03823985 -0.0001363804)
(-0.011632889 -0.028735741 -9.9584509e-05)
(-0.0057309182 -0.019197833 -6.1450796e-05)
(-0.0018439222 -0.010293259 -2.1410998e-05)
(-0.00021284053 -0.0027298127 2.1988843e-05)
(-0.00044726661 0.0075613286 -6.4476851e-05)
(-0.0028488186 0.021133014 -1.3198392e-05)
(-0.0077581377 0.032914725 2.3895777e-05)
(-0.014379484 0.042838557 5.044506e-05)
(-0.02226783 0.050940189 7.1889185e-05)
(-0.031127917 0.057308946 8.9226661e-05)
(-0.040696048 0.062060931 0.00010343868)
(-0.05074489 0.065318073 0.00011550859)
(-0.061081584 0.067192557 0.00012610689)
(-0.071537979 0.067777348 0.00013560506)
(-0.081962526 0.067142169 0.00014411944)
(-0.09221401 0.065334012 0.00015154137)
(-0.10215654 0.062381213 0.00015756805)
(-0.11165575 0.058300051 0.00016174058)
(-0.12057619 0.053102907 0.00016348754)
(-0.12877981 0.046807105 0.00016217246)
(-0.1361254 0.039443751 0.00015714807)
(-0.14246898 0.031066086 0.00014781684)
(-0.1476652 0.021756958 0.00013369614)
(-0.15156971 0.011635188 0.00011448323)
(-0.15404262 0.00086060901 9.0117743e-05)
(-0.15495393 -0.010362368 6.0887829e-05)
(-0.15418969 -0.021784098 2.7371476e-05)
(-0.15165973 -0.033110289 -9.4336684e-06)
(-0.14730764 -0.044006767 -4.8158475e-05)
(-0.14112133 -0.054107994 -8.7097597e-05)
(-0.13314408 -0.063030191 -0.00012428737)
(-0.12348523 -0.070389566 -0.00015762698)
(-0.11232885 -0.075825575 -0.00018503617)
(-0.099938625 -0.079028437 -0.00020463677)
(-0.086657215 -0.079769159 -0.00021493865)
(-0.072898182 -0.077929302 -0.00021500552)
(-0.059129539 -0.073526813 -0.00020457495)
(-0.045848985 -0.066733912 -0.00018410614)
(-0.033553012 -0.057883454 -0.00015472524)
(-0.022703052 -0.047461849 -0.0001181085)
(-0.013686013 -0.036088605 -7.65484e-05)
(-0.0067750096 -0.024482732 -3.2714671e-05)
(-0.0021920395 -0.013420947 1.4007906e-05)
(-0.00025619349 -0.0037249088 6.256383e-05)
(-0.00047743084 0.0090859605 -3.4111895e-05)
(-0.0030336584 0.025121183 2.2941647e-05)
(-0.0082507252 0.038860706 6.228486e-05)
(-0.015276437 0.050311307 9.0478815e-05)
(-0.023634139 0.059576354 0.00011343775)
(-0.033009229 0.066804912 0.00013232236)
(-0.043123269 0.072163251 0.00014824633)
(-0.053739016 0.075813473 0.00016229748)
(-0.064658176 0.077898393 0.00017520704)
(-0.075710652 0.078532987 0.00018736853)
(-0.086745501 0.07780155 0.00019888821)
(-0.097623806 0.075759514 0.00020961902)
(-0.10821283 0.072438826 0.00021919282)
(-0.11838142 0.067855794 0.00022705974)
(-0.1279966 0.062020368 0.00023253234)
(-0.13692126 0.054946017 0.00023483335)
(-0.14501276 0.04665954 0.00023315107)
(-0.15212254 0.037210374 0.00022670318)
(-0.1580967 0.026679128 0.00021480776)
(-0.16277768 0.015185153 0.00019695818)
(-0.16600726 0.0028929237 0.00017290087)
(-0.16763148 -0.0099831429 0.00014272458)
(-0.16750699 -0.023175207 0.00010689902)
(-0.16550952 -0.036361883 6.6349602e-05)
(-0.16154491 -0.049170941 2.2465307e-05)
(-0.15556164 -0.061186595 -2.2919528e-05)
(-0.14756497 -0.071962288 -6.7591517e-05)
(-0.1376313 -0.081039857 -0.0001090781)
(-0.12592135 -0.087975477 -0.0001448192)
(-0.11268991 -0.092371956 -0.00017238074)
(-0.09828968 -0.093915694 -0.00018969028)
(-0.08316651 -0.092415158 -0.00019526577)
(-0.067844142 -0.087836269 -0.00018840359)
(-0.0528976 -0.080329111 -0.00016928616)
(-0.038917239 -0.070240593 -0.00013896294)
(-0.026466929 -0.058109434 -9.9242357e-05)
(-0.016033653 -0.044642616 -5.2778462e-05)
(-0.0079763709 -0.030673496 -2.768894e-06)
(-0.0025959825 -0.01710833 5.1431068e-05)
(-0.00030759281 -0.0049064627 0.00010609731)
(-0.00050275556 0.010699697 7.114285e-06)
(-0.0031896743 0.029336024 7.0218346e-05)
(-0.0086679747 0.045136853 0.00011151811)
(-0.016038579 0.058189751 0.0001412258)
(-0.024798518 0.06867165 0.00016568048)
(-0.034617056 0.076796998 0.00018619933)
(-0.045203507 0.082787428 0.00020402207)
(-0.056312657 0.086849766 0.00022033327)
(-0.067742362 0.089161262 0.00023591932)
(-0.079322049 0.089861895 0.00025119185)
(-0.090902902 0.089052699 0.00026624435)
(-0.10234997 0.086798897 0.00028088902)
(-0.11353552 0.083136592 0.00029468959)
(-0.12433369 0.078081846 0.00030700069)
(-0.13461623 0.07164109 0.00031701111)
(-0.14424933 0.063821995 0.00032379015)
(-0.15309136 0.054644241 0.00032634243)
(-0.16099156 0.044149789 0.00032367323)
(-0.16778968 0.032412501 0.00031486411)
(-0.1733168 0.019546988 0.00029915682)
(-0.17739759 0.0057165581 0.00027604454)
(-0.17985446 -0.0088599949 0.00024536934)
(-0.18051372 -0.023902923 0.00020740636)
(-0.1792144 -0.039068802 0.00016294546)
(-0.17581986 -0.053950901 0.00011333807)
(-0.17023226 -0.068084332 6.0507442e-05)
(-0.1624094 -0.080957465 6.9047604e-06)
(-0.15238322 -0.092031039 -4.4599816e-05)
(-0.14027809 -0.10076606 -9.0896151e-05)
(-0.12632671 -0.10666065 -0.00012887838)
(-0.11088011 -0.10929456 -0.00015573642)
(-0.094408319 -0.10837802 -0.00016926272)
(-0.07748821 -0.10379946 -0.0001681309)
(-0.060776475 -0.095664638 -0.0001520899)
(-0.044968894 -0.084319317 -0.00012200484)
(-0.030749447 -0.070349213 -7.9773828e-05)
(-0.018726346 -0.054554586 -2.8445656e-05)
(-0.0093656175 -0.037899029 2.8160992e-05)
(-0.0030681416 -0.021441385 9.0704887e-05)
(-0.00036925208 -0.006306074 0.00015264421)
(-0.0005227231 0.012386765 5.986677e-05)
(-0.0033141939 0.033738533 0.00012930661)
(-0.009003251 0.051687868 0.0001722532)
(-0.016654048 0.066407731 0.00020333804)
(-0.025742675 0.078153122 0.00022926815)
(-0.03592534 0.08720842 0.00025151042)
(-0.046901441 0.093855022 0.00027142437)
(-0.058419568 0.098348551 0.00029028533)
(-0.070275144 0.10090427 0.00030893175)
(-0.082298434 0.10169011 0.00032779283)
(-0.094344129 0.10082613 0.00034695026)
(-0.1062828 0.098388894 0.00036617709)
(-0.11799356 0.094419426 0.00038497006)
(-0.12935794 0.088933525 0.00040258753)
(-0.14025481 0.081933227 0.00041809013)
(-0.15055637 0.073418649 0.00043038377)
(-0.16012498 0.063399654 0.00043827183)
(-0.16881082 0.051907061 0.00044052003)
(-0.17645054 0.039003332 0.00043593478)
(-0.18286702 0.024792746 0.00042345451)
(-0.18787058 0.0094310225 0.00040225361)
(-0.19126214 -0.006865752 0.00037185712)
(-0.19283872 -0.023813245 0.00033225495)
(-0.19240184 -0.041053069 0.00028401357)
(-0.18976944 -0.058149979 0.00022836284)
(-0.18479145 -0.074593865 0.00016724582)
(-0.17736919 -0.08980849 0.00010331074)
(-0.16747772 -0.10316916 3.9826625e-05)
(-0.15518992 -0.11403127 -1.9491126e-05)
(-0.14069953 -0.12177087 -7.0749053e-05)
(-0.12433937 -0.1258368 -0.00011022522)
(-0.10659002 -0.12581135 -0.00013476788)
(-0.088073577 -0.12147328 -0.00014219057)
(-0.069528712 -0.1128539 -0.00013158759)
(-0.051766389 -0.10027479 -0.00010347035)
(-0.035609323 -0.084357371 -5.9737162e-05)
(-0.021811613 -0.065997982 -3.8423847e-06)
(-0.010972777 -0.046306739 5.9677765e-05)
(-0.0036210277 -0.026521095 0.00013147901)
(-0.00044347491 -0.0079618819 0.00020207048)
(-0.00053687479 0.014129998 0.00012465115)
(-0.0034049311 0.038286623 0.00020071777)
(-0.0092509395 0.058454097 0.00024498837)
(-0.017112739 0.074893506 0.00027730837)
(-0.026450744 0.087940883 0.00030468902)
(-0.036910896 0.097953901 0.00032873866)
(-0.048184722 0.10527732 0.00035093098)
(-0.060016114 0.11021915 0.00037262781)
(-0.07219924 0.11303603 0.00039471956)
(-0.0845663 0.11392681 0.00041765615)
(-0.096976693 0.11303299 0.00044151261)
(-0.10930794 0.11044425 0.00046602891)
(-0.12144775 0.10620763 0.00049064054)
(-0.13328714 0.100339 0.00051451345)
(-0.14471465 0.092835485 0.00053658016)
(-0.1556115 0.083688265 0.00055557743)
(-0.16584745 0.072895025 0.00057009346)
(-0.17527754 0.060472048 0.00057862995)
(-0.18373958 0.046465897 0.00057968089)
(-0.19105275 0.030964867 0.00057182897)
(-0.19701753 0.014110286 0.00055386076)
(-0.20141753 -0.003892366 0.00052489981)
(-0.20402371 -0.022762837 0.00048455085)
(-0.20460181 -0.042136856 0.00043304707)
(-0.2029237 -0.061559389 0.0003713842)
(-0.19878329 -0.080482326 0.00030142164)
(-0.19201756 -0.098269062 0.00022592583)
(-0.18253245 -0.11420887 0.00014852876)
(-0.17033264 -0.12754412 7.3576338e-05)
(-0.15555273 -0.1375129 5.8505587e-06)
(-0.13848559 -0.14340791 -4.9833031e-05)
(-0.11960206 -0.1446497 -8.912518e-05)
(-0.099554526 -0.14086796 -0.00010868143)
(-0.079157763 -0.13197962 -0.00010664148)
(-0.059343915 -0.11824861 -8.2911005e-05)
(-0.041092672 -0.10031161 -3.922991e-05)
(-0.025331829 -0.079158326 2.0570426e-05)
(-0.012826572 -0.056060512 9.1144034e-05)
(-0.0042671986 -0.032462943 0.00017312334)
(-0.00053269519 -0.0099186385 0.00025396866)
(-0.00054488686 0.015911139 0.00020179095)
(-0.0034603732 0.042935843 0.00028478168)
(-0.0094073565 0.065372467 0.00033004577)
(-0.017407798 0.08357072 0.00036345182)
(-0.026911351 0.097948927 0.0003922457)
(-0.037556036 0.1089402 0.00041816765)
(-0.049027141 0.11695546 0.00044280085)
(-0.061065007 0.12235826 0.00046759183)
(-0.073463433 0.1254498 0.00049348638)
(-0.086057414 0.12646287 0.00052096247)
(-0.098712062 0.12556298 0.00055009825)
(-0.11131313 0.12285502 0.00058061154)
(-0.12375853 0.11839353 0.00061188742)
(-0.13595086 0.11219518 0.00064300847)
(-0.14779094 0.10425223 0.00067278449)
(-0.15917216 0.094546051 0.00069978282)
(-0.16997553 0.083060357 0.00072236819)
(-0.18006545 0.069794047 0.00073875908)
(-0.18928607 0.054773756 0.00074710423)
(-0.19745864 0.038066445 0.0007455812)
(-0.20437999 0.019792256 0.00073252036)
(-0.20982263 0.00013774933 0.00070655497)
(-0.21353727 -0.020630669 0.00066679503)
(-0.21525845 -0.042153791 0.00061301241)
(-0.21471438 -0.06396833 0.00054582902)
(-0.21164209 -0.085499225 0.00046688014)
(-0.20580888 -0.10605841 0.00037892593)
(-0.1970407 -0.12485366 0.00028587492)
(-0.18525711 -0.14101185 0.00019268078)
(-0.17051086 -0.15362079 0.00010507928)
(-0.15302815 -0.1617929 2.9149338e-05)
(-0.13324243 -0.1647505 -2.9287806e-05)
(-0.1118126 -0.16192755 -6.537341e-05)
(-0.08961506 -0.15307552 -7.5902654e-05)
(-0.06770262 -0.13835354 -5.9817589e-05)
(-0.047227655 -0.11838023 -1.8443218e-05)
(-0.029321591 -0.094226571 4.4105762e-05)
(-0.014953511 -0.067337584 0.00012160083)
(-0.0050191425 -0.039396 0.00021462997)
(-0.00063951592 -0.012227761 0.00030755817)
(-0.00054665179 0.017711347 0.00029141035)
(-0.0034802063 0.047640566 0.00038163475)
(-0.0094717696 0.072378025 0.00042756137)
(-0.017537314 0.092359996 0.00046189378)
(-0.027119982 0.10808657 0.00049203864)
(-0.037851584 0.12006723 0.00051985791)
(-0.049412278 0.12878115 0.00054704143)
(-0.061539602 0.13465022 0.0005751221)
(-0.074027573 0.13802331 0.00060510894)
(-0.08671462 0.13917018 0.00063752018)
(-0.099472399 0.13828324 0.00067245198)
(-0.11219602 0.13548498 0.00070961601)
(-0.12479513 0.13083933 0.00074836295)
(-0.13718591 0.12436506 0.00078770653)
(-0.14928402 0.11605015 0.00082634512)