/*--------------------------------*- C++ -*----------------------------------*\
  =========                 |
  \\      /  F ield         | OpenFOAM: The Open Source CFD Toolbox
   \\    /   O peration     | Website:  https://openfoam.org
    \\  /    A nd           | Version:  7
     \\/     M anipulation  |
\*---------------------------------------------------------------------------*/
FoamFile
{
    version     2.0;
    format      ascii;
    class       volScalarField;
    location    "0.58";
    object      T;
}
// * * * * * * * * * * * * * * * * * * * * * * * * * * * * * * * * * * * * * //

dimensions      [0 0 0 1 0 0 0];

internalField   nonuniform List<scalar> 
1000
(
0
0
0
0
0
0
0
0
0
0
0
0
0
0
0
0
0
0
0
0
0
0
0
0
0
0
0
0
0
0
0
0
0
0
0
0
0
0
0
0
0
0
0
0
0
0
0
0
0
0
0
0
0
0
0
0
0
0
0
0
0
0
0
0
0
0
0
0
0
0
0
0
0
0
0
0
0
0
0
0
0
0
0
0
0
0
0
0
0
0
0
0
0
0
0
0
0
0
0
0
0
0
0
0
0
0
0
0
0
0
0
0
0
0
0
0
0
0
0
0
0
0
0
0
0
0
0
0
0
0
0
0
0
0
0
0
0
0
0
0
0
0
0
0
0
0
0
0
0
0
0
0
0
0
0
0
0
0
0
0
0
0
0
0
0
0
0
0
0
0
0
0
0
0
0
0
0
0
0
0
0
0
0
0
0
0
0
0
0
0
0
0
0
0
0
0
0
0
0
0
0
0
0
0
0
0
0
0
0
0
0
0
0
0
0
0
0
0
0
0
0
0
0
0
0
0
0
0
0
0
0
0
0
0
0
0
0
0
0
0
0
0
0
0
0
0
0
0
0
0
0
0
0
0
0
0
0
0
0
0
0
0
0
0
0
0
0
0
0
0
0
0
0
0
0
0
0
0
0
0
0
0
0
0
0
0
0
0
0
0
0
0
0
0
0
0
0
0
0
0
0
0
0
0
0
0
0
0
0
0
0
0
0
0
0
0
0
0
0
0
0
0
0
0
0
0
0
0
0
0
0
0
0
0
0
0
0
0
0
0
0
0
0
0
0
0
0
0
0
0
0
0
0
0
0
0
0
0
0
0
0
0
0
0
0
0
0
0
0
0
0
0
0
0
0
0
0
0
0
0
0
0
0
0
0
0
0
0
0
0
0
0
2.55557e-63
-1.28204e-60
3.15438e-58
-5.07313e-56
5.99725e-54
-5.55611e-52
4.2e-50
-2.66318e-48
1.44526e-46
-6.81519e-45
2.82572e-43
-1.03989e-41
3.42265e-40
-1.01383e-38
2.71669e-37
-6.61375e-36
1.46803e-34
-2.97982e-33
5.54451e-32
-9.47568e-31
1.48972e-29
-2.15697e-28
2.87854e-27
-3.5422e-26
4.01947e-25
-4.20448e-24
4.05113e-23
-3.59106e-22
2.92333e-21
-2.18005e-20
1.48437e-19
-9.18673e-19
5.13658e-18
-2.57272e-17
1.14012e-16
-4.38518e-16
1.41578e-15
-3.57729e-15
5.6888e-15
2.14293e-15
-4.92532e-14
1.65102e-13
-2.25162e-13
-3.73014e-13
2.44656e-12
-3.96433e-12
-5.17536e-12
3.29683e-11
-3.18599e-11
-1.23173e-10
3.34736e-10
2.13061e-10
-1.82314e-09
4.76115e-10
7.96216e-09
-5.67977e-09
-3.24103e-08
2.73878e-08
1.31817e-07
-8.19164e-08
-5.30847e-07
4.64098e-08
1.94809e-06
1.3183e-06
-5.5116e-06
-1.0039e-05
6.5148e-06
4.02961e-05
3.55013e-05
-6.96816e-05
-0.000218541
-0.000172848
0.000311002
0.00109052
0.00136436
-5.35447e-05
-0.00379508
-0.0087475
-0.0113522
-0.00596746
0.0136944
0.05263
0.112921
0.193041
0.288251
0.391807
0.496464
0.595803
0.685083
0.761545
0.824273
0.873779
0.911508
0.939358
0.959326
0.973265
0.982758
0.989078
0.993197
0.99583
0.997482
0.998501
0.99912
0.999489
0.999708
0.999834
0.999907
0.999949
0.999972
0.999985
0.999992
0.999996
0.999998
0.999999
0.999999
1
1
1
1
1
1
1
1
1
1
1
1
1
1
1
1
1
1
1
1
1
1
1
1
1
1
1
1
1
1
1
1
1
1
1
1
1
1
1
1
1
1
1
1
1
1
1
0.999998
0.999999
1.00001
1.00001
0.999993
0.99996
0.999964
1.00007
1.00022
1.00017
0.999689
0.998909
0.998636
1.00005
1.0038
1.00875
1.01135
1.00597
0.986306
0.94737
0.887079
0.806959
0.711749
0.608193
0.503536
0.404197
0.314917
0.238455
0.175727
0.126221
0.0884924
0.0606421
0.0406739
0.026735
0.0172417
0.0109219
0.00680264
0.00417
0.00251801
0.00149899
0.000880419
0.000510547
0.000292497
0.000165657
9.27991e-05
5.14463e-05
2.8239e-05
1.53543e-05
8.27325e-06
4.41939e-06
2.34125e-06
1.23051e-06
6.41818e-07
3.32325e-07
1.70868e-07
8.7262e-08
4.42755e-08
2.23244e-08
1.11885e-08
5.57489e-09
2.7622e-09
1.36117e-09
6.67251e-10
3.2543e-10
1.57939e-10
7.62871e-11
3.66781e-11
1.75557e-11
8.36644e-12
3.97038e-12
1.87648e-12
8.83337e-13
4.14217e-13
1.93506e-13
9.00681e-14
4.17732e-14
1.93071e-14
8.89334e-15
4.08302e-15
1.86853e-15
8.52424e-16
3.87688e-16
1.75796e-16
7.94823e-17
3.58337e-17
1.61103e-17
7.22324e-18
3.23001e-18
1.4406e-18
6.40881e-19
2.84399e-19
1.25897e-19
5.55991e-20
2.44963e-20
1.07681e-20
4.72279e-21
2.06681e-21
9.02537e-22
3.93286e-22
1.71021e-22
7.42169e-23
3.2143e-23
1.38937e-23
5.99392e-24
2.58096e-24
1.10928e-24
4.75893e-25
2.03797e-25
8.71199e-26
3.71778e-26
1.58383e-26
6.73606e-27
2.86013e-27
1.21244e-27
5.13149e-28
2.16841e-28
9.14892e-29
3.85422e-29
1.62126e-29
6.80969e-30
2.85609e-30
1.19617e-30
5.00271e-31
2.08936e-31
8.71417e-32
3.62956e-32
1.50975e-32
6.27172e-33
2.60201e-33
1.07814e-33
4.4617e-34
1.8441e-34
7.61274e-35
3.13887e-35
1.29268e-35
5.31737e-36
2.18475e-36
8.96625e-37
3.67562e-37
1.50511e-37
6.15641e-38
2.51546e-38
1.02669e-38
4.18607e-39
1.70498e-39
6.93718e-40
2.81971e-40
1.14496e-40
4.64456e-41
1.88223e-41
7.6204e-42
3.08224e-42
1.2455e-42
5.02825e-43
2.02808e-43
8.17255e-44
3.29031e-44
1.32351e-44
5.31904e-45
2.13579e-45
8.5686e-46
3.4347e-46
1.37563e-46
5.50489e-47
2.20109e-47
8.79366e-48
3.51035e-48
1.40018e-48
5.58047e-49
2.22237e-49
8.84355e-50
3.51643e-50
1.39716e-50
5.54707e-51
2.20068e-51
8.72427e-52
3.45608e-52
1.36812e-52
5.41195e-53
2.13931e-53
8.45065e-54
3.33583e-54
1.31588e-54
5.18722e-55
2.04342e-55
8.04435e-56
3.16472e-56
1.24421e-56
4.88844e-57
1.9194e-57
7.53154e-58
2.95343e-58
1.15743e-58
4.53311e-59
1.7743e-59
6.94055e-60
2.7133e-60
1.06008e-60
4.13927e-61
1.61529e-61
6.29978e-62
2.45554e-62
9.56576e-63
3.7243e-63
1.44918e-63
5.63585e-64
2.19056e-64
8.50961e-65
3.30391e-65
1.28207e-65
4.97233e-66
1.92742e-66
7.46733e-67
2.89152e-67
1.11908e-67
4.32883e-68
1.67363e-68
6.46735e-69
2.4979e-69
9.64288e-70
3.72069e-70
1.43491e-70
5.53116e-71
2.13106e-71
8.20669e-72
3.15887e-72
1.21532e-72
4.67353e-73
1.79638e-73
6.90158e-74
2.65033e-74
1.01731e-74
3.90311e-75
1.49683e-75
5.73774e-76
2.19845e-76
8.4198e-77
3.22328e-77
1.2334e-77
4.71765e-78
1.80369e-78
6.89307e-79
2.63318e-79
1.00547e-79
3.83774e-80
1.46421e-80
5.5841e-81
2.12876e-81
8.11195e-82
3.08994e-82
1.17652e-82
4.47796e-83
1.70369e-83
6.47932e-84
2.46321e-84
9.36065e-85
3.55586e-85
1.35026e-85
5.1254e-86
1.9448e-86
7.37667e-87
2.79695e-87
1.06011e-87
4.01659e-88
1.52127e-88
5.7597e-89
2.1799e-89
8.24745e-90
3.11924e-90
1.17931e-90
4.45709e-91
1.68394e-91
6.35992e-92
2.4012e-92
9.06268e-93
3.41931e-93
1.28966e-93
4.86256e-94
1.83278e-94
6.90581e-95
2.60121e-95
9.79478e-96
3.687e-96
1.38743e-96
5.21929e-97
1.96279e-97
7.37899e-98
2.77322e-98
1.04192e-98
3.91339e-99
1.46939e-99
5.5155e-100
2.06967e-100
7.76402e-101
2.91166e-101
1.0916e-101
4.09127e-102
1.53293e-102
5.74195e-103
2.15015e-103
8.04919e-104
3.01238e-104
1.12705e-104
4.2155e-105
1.57628e-105
5.8924e-106
2.20207e-106
8.2271e-107
3.07285e-107
1.1474e-107
4.28323e-108
1.59848e-108
5.96382e-109
2.22446e-109
8.29481e-110
3.09223e-110
1.15245e-110
4.29394e-111
1.59947e-111
5.95637e-112
2.21755e-112
8.25379e-113
3.07129e-113
1.14255e-113
4.24933e-114
1.57999e-114
5.87324e-115
2.18269e-115
8.10957e-116
3.01228e-116
1.11863e-116
4.15305e-117
1.5415e-117
5.72023e-118
2.12216e-118
7.87113e-119
2.91872e-119
1.08204e-119
4.01042e-120
1.48606e-120
5.50525e-121
2.039e-121
7.55017e-122
2.79508e-122
1.03451e-122
3.82799e-123
1.41615e-123
5.2378e-124
1.93682e-124
7.16033e-125
2.64654e-125
9.77975e-126
3.6131e-126
1.33455e-126
4.92829e-127
1.81954e-127
6.71634e-128
2.47862e-128
9.14517e-129
3.3735e-129
1.24416e-129
4.58756e-130
1.69119e-130
6.23323e-131
2.2969e-131
8.46215e-132
3.11694e-132
1.14785e-132
4.22625e-133
1.55573e-133
5.72565e-134
2.10682e-134
7.75071e-135
2.85081e-135
1.04835e-135
3.85444e-136
1.41686e-136
5.20725e-137
1.91339e-137
7.02933e-138
2.5819e-138
9.48157e-139
3.48126e-139
1.27794e-139
4.69029e-140
1.7211e-140
6.31439e-141
2.31619e-141
8.49442e-142
3.11468e-142
1.14185e-142
4.18531e-143
1.53378e-143
5.61979e-144
2.05872e-144
7.54039e-145
2.76129e-145
1.011e-145
3.70095e-146
1.35455e-146
4.95679e-147
1.81355e-147
6.63406e-148
2.42635e-148
8.8726e-149
3.24394e-149
1.18582e-149
4.33399e-150
1.58374e-150
5.78633e-151
2.11373e-151
7.72005e-152
2.81915e-152
1.0293e-152
3.75744e-153
1.37142e-153
5.00465e-154
1.82602e-154
6.66141e-155
2.42971e-155
8.86076e-156
3.23085e-156
1.17785e-156
4.29333e-157
1.56469e-157
5.70152e-158
2.07723e-158
7.56672e-159
2.75589e-159
1.00357e-159
3.65396e-160
1.33018e-160
4.84162e-161
1.76199e-161
6.41131e-162
2.33251e-162
8.48463e-163
3.08585e-163
1.12215e-163
4.08001e-164
1.48322e-164
5.39115e-165
1.95927e-165
7.1193e-166
2.58812e-166
8.7978e-167
)
;

boundaryField
{
    sides
    {
        type            zeroGradient;
    }
    empty
    {
        type            empty;
    }
}


// ************************************************************************* //
