/*--------------------------------*- C++ -*----------------------------------*\
  =========                 |
  \\      /  F ield         | OpenFOAM: The Open Source CFD Toolbox
   \\    /   O peration     | Website:  https://openfoam.org
    \\  /    A nd           | Version:  7
     \\/     M anipulation  |
\*---------------------------------------------------------------------------*/
FoamFile
{
    version     2.0;
    format      ascii;
    class       volScalarField;
    location    "63";
    object      p;
}
// * * * * * * * * * * * * * * * * * * * * * * * * * * * * * * * * * * * * * //

dimensions      [0 2 -2 0 0 0 0];

internalField   nonuniform List<scalar> 
8800
(
0.893516
0.84573
0.807042
0.77805
0.75719
0.742365
0.731778
0.724312
0.719512
0.717481
0.71878
0.722995
0.729658
0.738987
0.751777
0.769517
0.794299
0.828242
0.870795
0.929497
0.724762
0.732441
0.739919
0.743229
0.741728
0.736655
0.730176
0.72411
0.719404
0.716585
0.716336
0.718871
0.723383
0.729345
0.736125
0.742413
0.746059
0.745325
0.739909
0.731222
0.70316
0.70932
0.713449
0.716396
0.71845
0.719061
0.717964
0.715874
0.71388
0.713002
0.713998
0.716407
0.719227
0.721422
0.722039
0.720848
0.718511
0.715122
0.710565
0.706805
0.697342
0.699993
0.702747
0.705153
0.706792
0.707961
0.708713
0.708846
0.708575
0.708558
0.709347
0.710548
0.71141
0.711491
0.710893
0.70981
0.708
0.705434
0.703034
0.70153
0.691951
0.693376
0.695157
0.697192
0.698981
0.70033
0.701331
0.702146
0.702788
0.70339
0.704082
0.704612
0.704737
0.704468
0.703784
0.702545
0.700857
0.699014
0.69771
0.696878
0.686861
0.687782
0.689025
0.690595
0.692232
0.693766
0.695064
0.696151
0.697146
0.698083
0.69882
0.699187
0.699174
0.698756
0.697891
0.696703
0.695384
0.694131
0.693311
0.692759
0.681938
0.682607
0.683572
0.684877
0.686292
0.687759
0.689213
0.690558
0.691792
0.692948
0.693825
0.694238
0.694189
0.693705
0.692918
0.691985
0.690983
0.690067
0.689485
0.689079
0.677133
0.67765
0.678435
0.679569
0.680853
0.682237
0.683699
0.685196
0.686663
0.688056
0.689126
0.68965
0.689666
0.689311
0.688731
0.688023
0.687263
0.686588
0.686157
0.685839
0.672377
0.672787
0.673445
0.674455
0.675668
0.677006
0.678468
0.680053
0.681718
0.683379
0.684699
0.685419
0.685631
0.685498
0.685142
0.684647
0.684092
0.68361
0.683291
0.683032
0.667581
0.667915
0.668484
0.669415
0.670579
0.671904
0.673404
0.675088
0.676944
0.678898
0.680541
0.68156
0.682052
0.682175
0.682051
0.681781
0.681422
0.681101
0.680866
0.680649
0.662657
0.662934
0.663441
0.664327
0.665474
0.666824
0.668399
0.670226
0.672313
0.674608
0.676657
0.678061
0.678889
0.679304
0.679434
0.679392
0.679227
0.679047
0.67888
0.678692
0.657515
0.657748
0.658216
0.659087
0.660256
0.661675
0.663367
0.66539
0.667775
0.670492
0.673039
0.674905
0.676126
0.676877
0.677292
0.677484
0.677517
0.677467
0.677356
0.677188
0.652064
0.652262
0.652711
0.653595
0.654828
0.65636
0.658226
0.660512
0.663276
0.66652
0.669671
0.672087
0.673769
0.674903
0.675637
0.67608
0.676326
0.676399
0.676335
0.676181
0.646201
0.64637
0.646817
0.647744
0.649083
0.650779
0.652884
0.655514
0.658758
0.662656
0.666538
0.66961
0.671835
0.67341
0.674509
0.675255
0.675711
0.675902
0.675878
0.675733
0.639807
0.639953
0.640412
0.641412
0.642903
0.644823
0.647245
0.650313
0.65416
0.658861
0.663629
0.667484
0.670352
0.672447
0.67396
0.675034
0.675734
0.676049
0.676063
0.675921
0.632745
0.632865
0.633352
0.634456
0.63615
0.638364
0.641191
0.644816
0.649414
0.655095
0.660933
0.665725
0.669353
0.672061
0.674065
0.675521
0.676489
0.67693
0.676977
0.676836
0.624827
0.624928
0.625458
0.626703
0.628657
0.631244
0.634589
0.638915
0.644442
0.651321
0.658447
0.664355
0.668881
0.67231
0.674901
0.6768
0.678069
0.678645
0.678724
0.678578
0.615832
0.615933
0.616518
0.61792
0.620206
0.623278
0.627281
0.632484
0.639163
0.647504
0.656176
0.663408
0.668994
0.673268
0.676555
0.678973
0.680582
0.6813
0.681408
0.681254
0.605445
0.605526
0.606201
0.607829
0.61055
0.614242
0.619075
0.625381
0.633488
0.643612
0.654134
0.662924
0.669756
0.675027
0.679109
0.68214
0.684133
0.684999
0.685132
0.684968
0.593289
0.593357
0.594132
0.596071
0.59935
0.603839
0.609735
0.617439
0.627325
0.639619
0.652342
0.662958
0.671233
0.677666
0.682669
0.686411
0.688822
0.689837
0.689989
0.689809
0.578811
0.578867
0.579785
0.582141
0.586158
0.591697
0.598977
0.608472
0.620583
0.635511
0.650833
0.663566
0.673492
0.681255
0.687331
0.691867
0.694721
0.695877
0.696039
0.695842
0.561246
0.56129
0.562421
0.565361
0.57039
0.577347
0.586473
0.598298
0.613209
0.631326
0.649679
0.664824
0.676615
0.685877
0.693136
0.698558
0.701861
0.703135
0.703293
0.703075
0.539428
0.539471
0.540949
0.544771
0.551258
0.560211
0.571866
0.586767
0.605204
0.627147
0.648983
0.666818
0.680669
0.691581
0.700122
0.706485
0.710201
0.711549
0.711684
0.711445
0.511612
0.511675
0.513744
0.518989
0.52774
0.539629
0.55485
0.573837
0.59668
0.623138
0.648895
0.669652
0.685707
0.698377
0.708296
0.715568
0.719606
0.720958
0.721049
0.720791
0.474762
0.474925
0.478206
0.486075
0.498645
0.515014
0.535316
0.559668
0.587901
0.619561
0.649608
0.673444
0.691784
0.706265
0.717572
0.72563
0.729826
0.731086
0.73111
0.730836
0.423055
0.424039
0.43056
0.443819
0.463024
0.486329
0.513638
0.544771
0.579355
0.616789
0.651353
0.678319
0.698937
0.715152
0.727764
0.736371
0.740487
0.741551
0.741499
0.741217
0.347549
0.354848
0.369931
0.393285
0.422382
0.454973
0.490847
0.529789
0.57142
0.615113
0.654511
0.684819
0.707885
0.725991
0.739833
0.74878
0.75267
0.753524
0.753425
0.753179
0.266407
0.283674
0.308112
0.342203
0.381578
0.423591
0.468095
0.515029
0.564089
0.614708
0.659828
0.694271
0.7203
0.740655
0.755885
0.764835
0.768137
0.768713
0.768643
0.768484
0.198772
0.219108
0.251275
0.294492
0.342939
0.393822
0.44669
0.501465
0.557822
0.615176
0.665746
0.704042
0.732821
0.75503
0.771011
0.779621
0.782509
0.783023
0.783014
0.782901
0.143376
0.165371
0.203058
0.252721
0.308343
0.366707
0.42699
0.488974
0.552189
0.615958
0.671718
0.713643
0.744919
0.768749
0.785478
0.794121
0.796827
0.797364
0.797397
0.79731
0.0972727
0.120443
0.161922
0.216707
0.278097
0.342641
0.409287
0.477674
0.547176
0.616973
0.677675
0.723058
0.75673
0.782183
0.799774
0.808667
0.811583
0.812019
0.812059
0.811995
0.0581895
0.0820184
0.126368
0.185201
0.251442
0.321246
0.39343
0.467533
0.542788
0.618211
0.683608
0.732322
0.768341
0.795389
0.813979
0.82338
0.826397
0.826869
0.826929
0.826889
0.0240968
0.048351
0.0949639
0.157142
0.227485
0.301873
0.378975
0.458234
0.53878
0.619485
0.689364
0.741301
0.7796
0.808245
0.827754
0.83776
0.841035
0.841547
0.841615
0.841595
-0.00650691
0.0181191
0.0665754
0.131611
0.205495
0.283901
0.365411
0.449382
0.534857
0.620577
0.694763
0.749809
0.790304
0.820478
0.840922
0.851463
0.85503
0.855642
0.855706
0.855699
-0.0345947
-0.00963631
0.0403947
0.107896
0.184891
0.266861
0.352346
0.440649
0.530745
0.621248
0.699602
0.757661
0.800254
0.831842
0.853201
0.864248
0.868066
0.868793
0.868839
0.86883
-0.0609753
-0.0356381
0.0158269
0.0854658
0.165241
0.250396
0.339478
0.431767
0.526204
0.621308
0.703752
0.764764
0.809382
0.842324
0.864433
0.875876
0.879898
0.880691
0.880721
0.880699
-0.0860305
-0.0603102
-0.00758537
0.0639754
0.146228
0.23424
0.326582
0.422549
0.521078
0.620637
0.707131
0.771085
0.817682
0.851859
0.874546
0.886302
0.890442
0.891261
0.891269
0.891226
-0.110194
-0.0839935
-0.0302372
0.0431761
0.127631
0.218208
0.313516
0.412873
0.515251
0.619124
0.709673
0.776628
0.825196
0.860516
0.883716
0.895596
0.899736
0.900572
0.900544
0.900482
-0.133602
-0.106956
-0.0521491
0.0228935
0.109318
0.202196
0.300188
0.40266
0.508643
0.616698
0.711339
0.78141
0.832029
0.868456
0.892016
0.90387
0.907988
0.908776
0.908727
0.908642
-0.156393
-0.129279
-0.0734451
0.00303042
0.0912207
0.186154
0.286556
0.391865
0.501212
0.613299
0.71208
0.785456
0.83828
0.875839
0.899643
0.911342
0.915298
0.916009
0.915936
0.915833
-0.178706
-0.151058
-0.0942348
-0.0164534
0.0733015
0.170066
0.272624
0.380498
0.492945
0.608881
0.711842
0.788768
0.844067
0.882856
0.90678
0.918129
0.921802
0.922394
0.922279
0.922156
-0.200576
-0.172298
-0.114568
-0.0355676
0.055581
0.153952
0.258425
0.368588
0.483855
0.603411
0.710564
0.791318
0.849471
0.889696
0.913643
0.924395
0.927587
0.927993
0.92784
0.927711
-0.221852
-0.192979
-0.134379
-0.0542948
0.0380822
0.137868
0.244008
0.356196
0.473989
0.596902
0.708175
0.793039
0.854506
0.896566
0.920565
0.930402
0.932802
0.932903
0.932711
0.932584
-0.242521
-0.213078
-0.153662
-0.0725924
0.0208545
0.121865
0.229456
0.343393
0.463416
0.589369
0.704614
0.793813
0.859118
0.903606
0.927983
0.936687
0.937771
0.937229
0.936963
0.9369
-0.26265
-0.232566
-0.172398
-0.0904405
0.00395539
0.10602
0.214849
0.330275
0.452218
0.580866
0.699826
0.793487
0.863139
0.910784
0.936318
0.944157
0.943372
0.94138
0.940791
0.941032
-0.282076
-0.251424
-0.190534
-0.107783
-0.0125618
0.0904113
0.200278
0.316948
0.440505
0.57148
0.693787
0.791876
0.866297
0.917791
0.945637
0.953869
0.95159
0.947188
0.944821
0.944598
-0.300894
-0.269646
-0.208091
-0.124653
-0.0287307
0.0749964
0.185689
0.303356
0.428213
0.561138
0.686362
0.788703
0.868295
0.92415
0.955374
0.966219
0.964849
0.957917
0.950215
0.936401
-0.319033
-0.287218
-0.225186
-0.14125
-0.0448309
0.0594518
0.170676
0.289033
0.414826
0.549231
0.676937
0.783228
0.868627
0.929237
0.963957
0.979226
0.979314
0.966243
0.945985
0.934984
-0.336322
-0.304285
-0.241629
-0.15738
-0.0605098
0.0441154
0.15546
0.274296
0.400636
0.535997
0.665544
0.774928
0.866396
0.931864
0.967294
0.982402
0.984728
0.960614
0.893128
0.862946
-0.3521
-0.322106
-0.257104
-0.172567
-0.0749712
0.029486
0.140358
0.25937
0.385858
0.521551
0.652093
0.763456
0.860086
0.931286
0.960197
0.970259
0.95717
0.901812
0.832622
0.790111
-0.407148
-0.337827
-0.271115
-0.18794
-0.0898575
0.0140882
0.125299
0.243969
0.370113
0.505418
0.635946
0.748094
0.845684
0.923559
0.926352
0.92699
0.874565
0.802537
0.72526
0.682276
-0.368847
-0.352896
-0.292035
-0.207775
-0.111901
-0.00799902
0.102186
0.220218
0.345397
0.479346
0.608076
0.71881
0.809007
0.892264
0.876542
0.759906
0.652571
0.577923
0.503702
0.5333
-0.399421
-0.370289
-0.308538
-0.225117
-0.129271
-0.0254859
0.08497
0.202366
0.326482
0.458645
0.584622
0.691188
0.771725
0.816132
0.765718
0.613734
0.483863
0.391094
0.291604
0.34081
-0.422985
-0.390929
-0.328009
-0.244455
-0.148489
-0.044809
0.0655606
0.182121
0.304837
0.434597
0.556854
0.657192
0.728763
0.738366
0.629477
0.454468
0.300083
0.179994
0.0480775
0.0804218
-0.446026
-0.412464
-0.348389
-0.263921
-0.167882
-0.0643571
0.0454817
0.161074
0.28219
0.409159
0.526707
0.619184
0.675239
0.653046
0.492287
0.294257
0.102702
-0.0661525
-0.255238
-0.274254
-0.468483
-0.434484
-0.369533
-0.284295
-0.188126
-0.0848302
0.0243503
0.138847
0.258098
0.381865
0.493967
0.578464
0.614702
0.555866
0.36169
0.149763
-0.0684606
-0.258397
-0.500744
-0.798011
-0.491243
-0.457245
-0.391764
-0.306051
-0.209704
-0.106585
0.00200671
0.115368
0.232639
0.352925
0.459273
0.535174
0.550043
0.439877
0.248029
0.0368365
-0.168374
-0.341331
-0.411173
-0.490093
-0.51526
-0.481202
-0.41543
-0.3295
-0.233111
-0.130262
-0.0223533
0.0896977
0.204664
0.320932
0.421101
0.485746
0.475485
0.331634
0.147002
-0.0451364
-0.208961
-0.302499
-0.326724
-0.342585
-0.540839
-0.506657
-0.440702
-0.354718
-0.258474
-0.156072
-0.0490869
0.0613489
0.173587
0.285185
0.378637
0.42899
0.40096
0.231144
0.0554862
-0.111554
-0.239006
-0.278324
-0.291184
-0.292502
-0.568182
-0.533787
-0.467645
-0.381703
-0.285747
-0.184019
-0.0782141
0.0302715
0.139342
0.245688
0.331515
0.367393
0.319658
0.138415
-0.0281505
-0.177787
-0.254673
-0.271654
-0.272944
-0.272742
-0.597351
-0.562658
-0.496287
-0.410457
-0.314947
-0.214094
-0.109739
-0.00354923
0.101943
0.202516
0.279841
0.303842
0.220035
0.0538726
-0.104385
-0.227778
-0.264609
-0.262919
-0.261948
-0.26132
-0.628065
-0.593091
-0.526528
-0.440895
-0.345992
-0.246246
-0.143633
-0.0400865
0.0614307
0.155778
0.224456
0.231672
0.129516
-0.02452
-0.164554
-0.241256
-0.251498
-0.254012
-0.254644
-0.254346
-0.659778
-0.62465
-0.558117
-0.472793
-0.378697
-0.280321
-0.179744
-0.0792087
0.017989
0.105818
0.165821
0.15778
0.048362
-0.0905288
-0.208007
-0.239764
-0.248219
-0.249585
-0.249329
-0.249031
-0.692028
-0.656785
-0.590611
-0.505762
-0.412726
-0.316003
-0.217797
-0.120629
-0.0280966
0.0533329
0.103027
0.0877438
-0.0265935
-0.143376
-0.236528
-0.254017
-0.245743
-0.245035
-0.245087
-0.244871
-0.723921
-0.688777
-0.623139
-0.539219
-0.447543
-0.352827
-0.25735
-0.16387
-0.0763552
-0.00103084
0.0388185
0.0230617
-0.0930135
-0.183083
-0.234857
-0.246717
-0.244543
-0.243475
-0.242987
-0.24278
-0.753914
-0.719461
-0.65474
-0.572248
-0.482393
-0.390105
-0.297761
-0.208253
-0.125987
-0.056662
-0.0201842
-0.0484967
-0.14909
-0.221643
-0.22014
-0.239679
-0.244646
-0.243248
-0.242617
-0.242227
-0.7804
-0.747031
-0.684291
-0.603675
-0.516253
-0.426922
-0.338182
-0.252939
-0.175854
-0.112663
-0.076367
-0.117404
-0.201854
-0.254602
-0.264585
-0.257946
-0.252819
-0.24993
-0.248832
-0.248154
-0.801269
-0.769619
-0.709771
-0.632102
-0.547864
-0.462155
-0.37755
-0.296925
-0.224816
-0.167644
-0.133735
-0.171678
-0.245723
-0.32773
-0.339763
-0.30165
-0.27559
-0.267505
-0.264217
-0.262598
-0.814296
-0.785348
-0.729257
-0.655675
-0.575749
-0.494514
-0.414686
-0.339041
-0.271825
-0.219753
-0.188077
-0.210964
-0.258912
-0.354103
-0.332412
-0.299708
-0.288283
-0.281215
-0.276636
-0.275522
-0.816868
-0.791972
-0.740827
-0.672596
-0.598242
-0.522651
-0.448317
-0.37809
-0.315752
-0.267493
-0.231632
-0.226277
-0.205876
-0.249157
-0.242779
-0.243575
-0.247037
-0.249231
-0.251179
-0.251668
-0.806779
-0.786744
-0.74232
-0.681284
-0.613891
-0.545083
-0.477205
-0.412851
-0.355557
-0.310507
-0.264479
-0.225797
-0.119842
0.00399072
-0.0711783
-0.166102
-0.212516
-0.232441
-0.240449
-0.242385
-0.78205
-0.766997
-0.731921
-0.680506
-0.621716
-0.560847
-0.500204
-0.442197
-0.390476
-0.34917
-0.296176
-0.258968
-0.136245
0.039321
-0.0837445
-0.213156
-0.275978
-0.301089
-0.31067
-0.314474
-0.745233
-0.735546
-0.710448
-0.670406
-0.621669
-0.569634
-0.516653
-0.465198
-0.419441
-0.38474
-0.358301
-0.393393
-0.546611
-0.792461
-0.837331
-0.665742
-0.540637
-0.489861
-0.475341
-0.472694
-0.703037
-0.697562
-0.682732
-0.653751
-0.615588
-0.572141
-0.52643
-0.481039
-0.44007
-0.411439
-0.397189
-0.522911
-0.75362
-0.995216
-0.950874
-0.703682
-0.565462
-0.503858
-0.482877
-0.475377
-0.665215
-0.661938
-0.654915
-0.635863
-0.606327
-0.569956
-0.530298
-0.488984
-0.45005
-0.419209
-0.407822
-0.401992
-0.324541
-0.194642
-0.0751046
-0.0983209
-0.198177
-0.266313
-0.280463
-0.285332
-0.63817
-0.636188
-0.63263
-0.620892
-0.597612
-0.565978
-0.529799
-0.489889
-0.448801
-0.409981
-0.391935
-0.344819
-0.274004
-0.236416
-0.311863
-0.48196
-0.606242
-0.5999
-0.524334
-0.487763
-0.617383
-0.616636
-0.615471
-0.609685
-0.592024
-0.563359
-0.527415
-0.486463
-0.441285
-0.397417
-0.369008
-0.351421
-0.281114
-0.260816
-0.266702
-0.314768
-0.393593
-0.411927
-0.375154
-0.355446
-0.605332
-0.605035
-0.604433
-0.601828
-0.589282
-0.561954
-0.524359
-0.479805
-0.43001
-0.373115
-0.325991
-0.28196
-0.198064
-0.125501
-0.112157
-0.138863
-0.119069
-0.0466822
0.0288828
0.0649451
-0.597365
-0.597192
-0.596654
-0.595824
-0.588343
-0.562656
-0.522562
-0.472965
-0.413615
-0.343235
-0.270603
-0.176556
-0.0234066
0.125501
0.246712
0.356076
0.499383
0.666504
0.781863
0.827286
-0.593004
-0.592711
-0.591915
-0.591461
-0.588191
-0.566227
-0.523251
-0.467081
-0.398764
-0.318637
-0.217267
-0.105864
0.109319
0.398094
0.705474
0.999788
1.25613
1.44204
1.54644
1.58039
-0.592676
-0.592837
-0.593308
-0.593919
-0.594092
-0.573567
-0.526351
-0.464063
-0.389295
-0.295374
-0.185624
-0.0808483
0.148065
0.474986
0.865424
1.22529
1.51401
1.69309
1.77413
1.79568
-0.590587
-0.591949
-0.595478
-0.600959
-0.603076
-0.580373
-0.530991
-0.467297
-0.386834
-0.286609
-0.175423
-0.0600295
0.103056
0.437383
0.787694
1.10528
1.35059
1.49276
1.55378
1.56848
-0.592961
-0.593323
-0.589291
-0.579452
-0.571303
-0.564749
-0.536199
-0.477555
-0.391678
-0.287088
-0.178141
-0.0680625
0.0563464
0.310306
0.603459
0.852292
1.04003
1.14255
1.18432
1.19331
-0.628433
-0.624467
-0.604277
-0.564216
-0.539055
-0.557058
-0.556959
-0.496331
-0.402428
-0.293993
-0.188572
-0.0903269
-0.00157643
0.180888
0.40325
0.587022
0.723146
0.793399
0.820801
0.824969
-0.70844
-0.708073
-0.714585
-0.727155
-0.720183
-0.706189
-0.642184
-0.532203
-0.415914
-0.300289
-0.20026
-0.117963
-0.0523524
0.0787066
0.231833
0.357588
0.448617
0.494628
0.510391
0.512818
-0.844553
-0.864582
-0.912433
-0.95206
-0.947821
-0.894231
-0.742953
-0.571517
-0.423873
-0.302909
-0.209751
-0.138646
-0.0856666
0.00285786
0.101863
0.179514
0.230739
0.254916
0.264033
0.263968
-0.9068
-0.931164
-0.970637
-1.00055
-0.995976
-0.93008
-0.756213
-0.565081
-0.411276
-0.293038
-0.210752
-0.151691
-0.106265
-0.0474977
0.00299025
0.0403949
0.0612965
0.0698903
0.0725985
0.0727801
-0.774869
-0.796689
-0.832783
-0.864697
-0.863396
-0.792376
-0.636933
-0.486409
-0.360738
-0.265508
-0.201194
-0.157816
-0.125306
-0.0853674
-0.0598762
-0.0491831
-0.0505039
-0.0532271
-0.0520705
-0.0510817
-0.461601
-0.478611
-0.509516
-0.542944
-0.556056
-0.519172
-0.43892
-0.353818
-0.280357
-0.221294
-0.182017
-0.15964
-0.142387
-0.117256
-0.0988085
-0.094224
-0.0972225
-0.0993024
-0.0980733
-0.0973246
-0.122993
-0.131884
-0.151632
-0.181661
-0.211078
-0.224169
-0.225052
-0.211666
-0.191174
-0.168598
-0.156443
-0.158063
-0.159409
-0.132572
-0.111885
-0.0999556
-0.0956424
-0.0930067
-0.0910947
-0.090827
0.102605
0.0980919
0.0842521
0.0568331
0.0157429
-0.0313146
-0.0689894
-0.0954616
-0.109166
-0.114478
-0.122552
-0.141848
-0.152345
-0.121857
-0.0941228
-0.0769705
-0.0676456
-0.0631187
-0.06128
-0.0617994
0.198009
0.195515
0.185434
0.161839
0.122305
0.0727837
0.0241726
-0.0164074
-0.0450573
-0.063524
-0.0785033
-0.0981282
-0.10406
-0.0794044
-0.0589137
-0.0460146
-0.0371874
-0.0330425
-0.0322544
-0.0329892
0.214255
0.212565
0.205372
0.187715
0.157079
0.116976
0.0739116
0.0343566
0.0031541
-0.0176059
-0.0288965
-0.0337677
-0.0271212
-0.0166437
-0.0112695
-0.00832956
-0.00618626
-0.00500855
-0.00510339
-0.00587253
0.196953
0.195881
0.191152
0.179231
0.158049
0.129228
0.0961689
0.0640825
0.0374639
0.0209129
0.0196191
0.0306169
0.0464054
0.0418589
0.0324875
0.0268402
0.0241259
0.0232118
0.0224281
0.0214827
0.169711
0.169116
0.166236
0.158715
0.144926
0.125437
0.102013
0.0784461
0.0590158
0.0491494
0.0546624
0.0733546
0.0913394
0.0795812
0.063836
0.0533913
0.0477308
0.0452404
0.0437612
0.0428522
0.141287
0.141089
0.139473
0.135005
0.126477
0.113983
0.0985138
0.0827142
0.0701722
0.0662028
0.0762733
0.0953991
0.108415
0.0959336
0.0809001
0.0704705
0.0643669
0.0598585
0.0574665
0.0566253
0.114673
0.114555
0.113721
0.111225
0.106205
0.0986099
0.0890407
0.0793703
0.0726954
0.0735978
0.0862323
0.102732
0.109409
0.0980792
0.0867452
0.0776946
0.071385
0.066902
0.0645194
0.0639642
0.0898206
0.0898542
0.0894926
0.0882395
0.0855464
0.0812265
0.0758278
0.0706856
0.0683898
0.0730188
0.0874493
0.103933
0.108445
0.0970691
0.087163
0.0800001
0.0749541
0.0707868
0.0690398
0.0686809
0.0666102
0.0666954
0.06662
0.0661443
0.0649043
0.0627325
0.0601007
0.0579404
0.0584438
0.0651747
0.0815244
0.100962
0.10746
0.0932934
0.0837331
0.0787185
0.0755338
0.0732935
0.0721472
0.0716398
0.0447447
0.044835
0.0448861
0.0448086
0.0443982
0.0435766
0.0425142
0.0420773
0.0438227
0.0508455
0.0661088
0.0851411
0.0932003
0.0831079
0.0721767
0.0686029
0.0681024
0.067695
0.0669056
0.066159
0.024062
0.0241422
0.0242407
0.0243393
0.0243235
0.0241675
0.0239721
0.0241125
0.0254888
0.030319
0.040078
0.0515878
0.0562413
0.0486463
0.0447271
0.0446508
0.0473563
0.0484018
0.0473779
0.0464019
0.00445684
0.00450041
0.00448644
0.00458409
0.00483968
0.00499239
0.00502324
0.00500022
0.00508636
0.00515753
0.00568639
0.00499432
0.00926841
0.0114775
0.0100625
0.0123562
0.0108346
0.00863329
0.00884427
0.00898228
-0.0283157
0.137971
0.331945
0.501152
0.636057
0.741928
0.829271
0.903671
0.93768
0.914428
0.272445
0.392617
0.521822
0.633343
0.727172
0.804675
0.867404
0.911972
0.934281
0.946438
0.48994
0.572303
0.660585
0.738447
0.805353
0.861313
0.905832
0.938388
0.961973
0.980011
0.64984
0.708821
0.769994
0.826777
0.876109
0.91802
0.952469
0.979982
1.00269
1.02103
0.774646
0.817515
0.863259
0.906835
0.945348
0.979001
1.00783
1.03184
1.05218
1.07003
0.878571
0.911306
0.949273
0.984676
1.01719
1.04635
1.07185
1.09329
1.11111
1.12847
0.970876
0.999489
1.03336
1.06542
1.0953
1.12242
1.14613
1.16582
1.1813
1.19838
1.05932
1.08847
1.12243
1.15442
1.18398
1.21054
1.23338
1.25185
1.26521
1.28224
1.15455
1.18772
1.22433
1.25789
1.28791
1.31407
1.33601
1.35328
1.36513
1.38253
1.26949
1.3073
1.34592
1.38015
1.40948
1.43422
1.45458
1.47046
1.48192
1.49999
1.4144
1.45294
1.48906
1.51974
1.54541
1.5675
1.58655
1.60207
1.61449
1.63249
1.58946
1.62108
1.64725
1.66969
1.68966
1.70838
1.72609
1.74257
1.75791
1.77598
1.77806
1.79526
1.81029
1.82652
1.84242
1.85695
1.87015
1.88408
1.90162
1.92177
1.95978
1.96931
1.98085
1.99166
2.00094
2.01052
2.0213
2.03267
2.04403
2.05938
2.16701
2.17067
2.15572
2.14091
2.13464
2.14031
2.15879
2.1891
2.22127
2.24793
2.47333
2.33846
2.26182
2.21944
2.20201
2.20598
2.23337
2.28979
2.39241
2.61677
0.784114
0.781986
0.777502
0.76888
0.756658
0.744533
0.73431
0.726424
0.720819
0.717582
0.717249
0.720008
0.725128
0.732362
0.741757
0.753301
0.765955
0.776992
0.783105
0.78616
0.708561
0.714409
0.720743
0.725237
0.72771
0.72739
0.724658
0.720858
0.717361
0.71512
0.714995
0.717214
0.720893
0.725193
0.729008
0.730897
0.729964
0.726485
0.721323
0.714703
0.700127
0.702424
0.705828
0.708826
0.710905
0.712405
0.713167
0.71286
0.71185
0.710987
0.711186
0.712636
0.714468
0.715786
0.715975
0.71509
0.713546
0.711212
0.707951
0.705032
0.694603
0.695689
0.697523
0.699904
0.701931
0.703363
0.704391
0.705154
0.705572
0.705817
0.706335
0.707167
0.707784
0.707864
0.707461
0.706619
0.705154
0.703074
0.70099
0.699608
0.689382
0.690045
0.691154
0.692861
0.694646
0.696284
0.697588
0.698616
0.699517
0.700333
0.701093
0.701673
0.701888
0.701736
0.70118
0.700134
0.698712
0.697173
0.695858
0.695079
0.684383
0.684844
0.685631
0.686931
0.688423
0.689946
0.69142
0.692732
0.693889
0.694974
0.695925
0.696525
0.696695
0.696439
0.695755
0.694775
0.693657
0.69253
0.691619
0.691103
0.679527
0.679871
0.680483
0.681554
0.682852
0.684233
0.685682
0.687143
0.688539
0.689853
0.691005
0.691734
0.69194
0.691687
0.691104
0.690339
0.689498
0.688638
0.68797
0.687593
0.674757
0.675024
0.675518
0.67643
0.677604
0.678908
0.680314
0.68182
0.683387
0.684945
0.68634
0.687254
0.687591
0.687497
0.687124
0.686579
0.685943
0.685313
0.684826
0.684538
0.669992
0.670204
0.670615
0.671417
0.672511
0.673768
0.675166
0.67672
0.678421
0.68022
0.681907
0.683088
0.683668
0.683818
0.683678
0.683356
0.682928
0.682491
0.682145
0.68192
0.665143
0.665314
0.665666
0.666395
0.667444
0.66868
0.670107
0.671747
0.673608
0.675665
0.677701
0.679244
0.680151
0.680592
0.680707
0.680618
0.680404
0.680141
0.679911
0.679732
0.660122
0.66026
0.66057
0.661254
0.662287
0.663549
0.665043
0.666812
0.668886
0.671259
0.673721
0.675714
0.677014
0.677793
0.678198
0.678356
0.678355
0.678261
0.678131
0.677987
0.654837
0.654948
0.655231
0.655896
0.656948
0.658279
0.659887
0.661838
0.664192
0.666964
0.669951
0.672486
0.67425
0.675419
0.676153
0.676582
0.676801
0.676879
0.676835
0.676718
0.649194
0.649282
0.649549
0.650219
0.651325
0.652769
0.654543
0.656745
0.659459
0.662736
0.666365
0.669551
0.671864
0.673486
0.674591
0.675337
0.675803
0.676041
0.676074
0.675978
0.643081
0.643149
0.643409
0.644107
0.645306
0.646909
0.648914
0.651446
0.654618
0.658524
0.662939
0.666907
0.669872
0.672027
0.673558
0.674658
0.675397
0.67581
0.675916
0.675837
0.63637
0.636417
0.636679
0.637428
0.63876
0.640579
0.642889
0.645842
0.649594
0.654277
0.659647
0.664555
0.668296
0.67108
0.673113
0.674607
0.675664
0.676265
0.676443
0.676378
0.628905
0.628934
0.629201
0.630023
0.631532
0.633632
0.636331
0.639821
0.644298
0.649938
0.656467
0.662502
0.667165
0.670689
0.673317
0.675287
0.676699
0.677503
0.677752
0.677697
0.620486
0.620501
0.620773
0.621693
0.623437
0.625883
0.629083
0.633251
0.638632
0.645447
0.653382
0.660763
0.666517
0.670913
0.674243
0.67678
0.678598
0.679626
0.679947
0.679899
0.610809
0.610794
0.611124
0.612186
0.614215
0.617118
0.620956
0.625978
0.632487
0.640748
0.650382
0.659364
0.666405
0.671826
0.67598
0.679181
0.681468
0.68274
0.683134
0.683089
0.599578
0.599539
0.599914
0.60117
0.603571
0.607063
0.611712
0.617816
0.625737
0.63578
0.64746
0.658338
0.666882
0.673506
0.678625
0.682586
0.685415
0.686948
0.687411
0.687366
0.586308
0.586242
0.586697
0.588206
0.591094
0.595354
0.601053
0.608546
0.61825
0.630488
0.644624
0.657726
0.668013
0.67602
0.682264
0.687102
0.690532
0.692335
0.69286
0.692809
0.570348
0.570253
0.570833
0.572696
0.576235
0.581522
0.588615
0.597921
0.609895
0.624842
0.641906
0.657591
0.669866
0.679442
0.686967
0.692796
0.696879
0.698949
0.699519
0.699456
0.550755
0.550633
0.551416
0.553795
0.558252
0.564967
0.573963
0.585685
0.60058
0.618865
0.639385
0.658016
0.672524
0.683851
0.692775
0.699709
0.704468
0.706775
0.707365
0.707282
0.526104
0.525966
0.527085
0.530265
0.536112
0.544915
0.55661
0.571619
0.590286
0.612655
0.637194
0.659116
0.67606
0.689289
0.699723
0.707835
0.713235
0.715713
0.716285
0.716173
0.49408
0.493964
0.495696
0.500265
0.508418
0.520477
0.536132
0.555651
0.579141
0.606413
0.635521
0.66103
0.680556
0.695789
0.707809
0.717088
0.72301
0.725546
0.726054
0.725907
0.450518
0.450567
0.453646
0.461106
0.473536
0.4909
0.512416
0.538014
0.567513
0.600505
0.63465
0.663928
0.686098
0.703353
0.716936
0.72729
0.733498
0.735922
0.736315
0.736134
0.387621
0.388831
0.396358
0.41027
0.430515
0.456321
0.48609
0.519428
0.556037
0.5954
0.634863
0.667961
0.692728
0.711919
0.726919
0.738035
0.744233
0.746308
0.746533
0.746331
0.313068
0.314842
0.329246
0.353129
0.384319
0.420095
0.458864
0.500449
0.544666
0.591033
0.636621
0.674397
0.702466
0.724067
0.740709
0.752537
0.758515
0.7603
0.760485
0.760375
0.236166
0.242375
0.263643
0.297786
0.339394
0.384844
0.432574
0.48245
0.534351
0.58783
0.639714
0.682302
0.713744
0.737823
0.756297
0.768478
0.773811
0.77511
0.775228
0.77519
0.173249
0.181772
0.207609
0.248776
0.298548
0.352248
0.408057
0.465699
0.524949
0.585284
0.643196
0.690318
0.724882
0.75112
0.770721
0.783085
0.788236
0.789393
0.789514
0.789532
0.122075
0.131195
0.160584
0.206995
0.262928
0.323285
0.385934
0.450436
0.516386
0.583134
0.646777
0.698214
0.735709
0.763981
0.78487
0.797643
0.802585
0.803839
0.804073
0.804139
0.0792602
0.0886604
0.120498
0.17091
0.231905
0.297782
0.366229
0.436733
0.508727
0.581419
0.650469
0.70603
0.746351
0.776609
0.798734
0.812034
0.817272
0.818752
0.819005
0.819092
0.0424377
0.0519449
0.0856176
0.139234
0.204414
0.275006
0.348517
0.424352
0.501829
0.580017
0.654171
0.713686
0.756754
0.788976
0.812423
0.826476
0.832126
0.833729
0.833973
0.834052
0.00993162
0.0194692
0.0545483
0.110871
0.179561
0.254222
0.332216
0.412845
0.49535
0.578678
0.657695
0.721015
0.766741
0.800849
0.825536
0.840425
0.846526
0.84828
0.848543
0.848612
-0.0195466
-0.00997568
0.0262569
0.0849141
0.156612
0.234836
0.316818
0.401807
0.488968
0.577152
0.660828
0.727825
0.77611
0.812004
0.837909
0.853506
0.860118
0.861991
0.862257
0.862304
-0.0468836
-0.0372723
-3.75123e-05
0.0606467
0.135018
0.216399
0.301954
0.390917
0.482405
0.575189
0.663373
0.733958
0.784721
0.822326
0.849325
0.865571
0.872595
0.874565
0.874824
0.874841
-0.0726508
-0.0629832
-0.0248083
0.0375853
0.114368
0.198568
0.287343
0.379932
0.475444
0.572614
0.665205
0.739343
0.79253
0.831763
0.859749
0.876471
0.883749
0.885818
0.886066
0.886044
-0.0973471
-0.0875354
-0.0485009
0.0154385
0.09438
0.181095
0.272778
0.368685
0.467951
0.569306
0.666224
0.743937
0.799554
0.840342
0.869193
0.886278
0.893686
0.895741
0.895996
0.895951
-0.121237
-0.111216
-0.0714443
-0.00599364
0.0748642
0.163825
0.258134
0.357073
0.459822
0.565167
0.666359
0.747714
0.805831
0.848164
0.877768
0.895061
0.902452
0.904494
0.904714
0.904651
-0.144432
-0.13421
-0.0936913
-0.0268586
0.055702
0.146678
0.243341
0.345031
0.450997
0.560127
0.665548
0.750666
0.811428
0.855367
0.885629
0.902992
0.910275
0.912226
0.912398
0.912308
-0.167111
-0.156599
-0.115339
-0.0472433
0.0368373
0.129607
0.228372
0.332543
0.441461
0.554156
0.66373
0.75277
0.816406
0.862101
0.892994
0.910258
0.917283
0.919077
0.919193
0.919082
-0.189229
-0.178455
-0.136485
-0.0671986
0.0182548
0.112613
0.213248
0.319633
0.431224
0.547231
0.660856
0.753978
0.820816
0.86852
0.900044
0.917014
0.923592
0.925142
0.925171
0.925037
-0.210857
-0.199789
-0.157063
-0.0867152
-3.36199e-05
0.0957224
0.198001
0.30635
0.420327
0.539363
0.65688
0.754222
0.824648
0.874752
0.907042
0.923517
0.929328
0.930471
0.930397
0.930249
-0.231834
-0.220541
-0.177072
-0.105754
-0.0179886
0.078998
0.182692
0.292756
0.408835
0.530602
0.651772
0.753415
0.827834
0.880869
0.914291
0.930174
0.934815
0.935222
0.934962
0.934824
-0.252301
-0.240673
-0.196507
-0.124305
-0.035583
0.0624743
0.167405
0.278927
0.396829
0.521017
0.645532
0.751448
0.830234
0.886822
0.922044
0.937606
0.940717
0.939722
0.938955
0.938818
-0.272098
-0.260164
-0.21534
-0.142329
-0.0527434
0.0462321
0.152219
0.264978
0.384414
0.510667
0.63819
0.748207
0.831645
0.892401
0.930308
0.946498
0.948372
0.945198
0.942838
0.942024
-0.291289
-0.279061
-0.233523
-0.159777
-0.069437
0.0303378
0.137214
0.250988
0.371698
0.499684
0.629807
0.743579
0.831817
0.897217
0.938606
0.957001
0.959351
0.954592
0.948157
0.940002
-0.309792
-0.297321
-0.251148
-0.176805
-0.0858698
0.0145246
0.122064
0.236568
0.358248
0.487586
0.619876
0.737039
0.830295
0.900984
0.946356
0.968538
0.974106
0.969246
0.958484
0.953594
-0.327562
-0.314869
-0.2682
-0.193387
-0.102051
-0.00120169
0.10678
0.221697
0.344014
0.474248
0.608185
0.728184
0.826269
0.902909
0.951613
0.976954
0.984787
0.983319
0.945275
0.893516
-0.344313
-0.330926
-0.284532
-0.209453
-0.118083
-0.0170007
0.091305
0.206488
0.329047