/*--------------------------------*- C++ -*----------------------------------*\
  =========                 |
  \\      /  F ield         | OpenFOAM: The Open Source CFD Toolbox
   \\    /   O peration     | Website:  https://openfoam.org
    \\  /    A nd           | Version:  7
     \\/     M anipulation  |
\*---------------------------------------------------------------------------*/
FoamFile
{
    version     2.0;
    format      ascii;
    class       volScalarField;
    location    "16";
    object      p;
}
// * * * * * * * * * * * * * * * * * * * * * * * * * * * * * * * * * * * * * //

dimensions      [0 2 -2 0 0 0 0];

internalField   nonuniform List<scalar> 
16000
(
7.7488986e-06
-0.00013279949
-0.00044421438
-0.00084635315
-0.0012642988
-0.0016526992
-0.0019807037
-0.0022294857
-0.0023884065
-0.0024517554
-0.0024165885
-0.0022814485
-0.0020457679
-0.0017097921
-0.0012748827
-0.00074405033
-0.00012260351
0.00058119301
0.0013555627
0.0021848552
0.0030494495
0.0039259934
0.0047880132
0.0056069283
0.006353424
0.0069991313
0.0075185063
0.0078907658
0.0081017206
0.0081453299
0.0080248191
0.007753269
0.0073536575
0.0068584183
0.0063084058
0.0057511191
0.0052415758
0.0048360315
0.0045961813
0.0045573875
0.00015201403
7.0947262e-06
-0.00024286418
-0.00055154757
-0.00087351719
-0.0011744897
-0.0014302358
-0.001624585
-0.0017471732
-0.0017915526
-0.0017537818
-0.0016314981
-0.0014234505
-0.0011294099
-0.00075037028
-0.00028893839
0.0002501784
0.00085967204
0.0015292095
0.0022451572
0.0029905151
0.0037452578
0.0044866863
0.0051904581
0.0058317346
0.0063866285
0.0068338204
0.0071562119
0.0073424716
0.007388323
0.0072974323
0.0070818027
0.0067616319
0.0063646659
0.0059251047
0.0054819484
0.0050763527
0.0047517153
0.0045531936
0.0045177383
0.00047048524
0.00025268877
-3.002747e-06
-0.00028186677
-0.00056190976
-0.00081864975
-0.001034306
-0.0011968226
-0.0012979888
-0.0013322808
-0.0012959818
-0.0011865611
-0.0010023797
-0.00074268527
-0.00040782901
3.7082362e-07
0.00047817895
0.00101948
0.0016153817
0.0022539529
0.0029201906
0.0035961414
0.0042614471
0.0048941186
0.0054716307
0.0059722693
0.0063766368
0.0066691981
0.006839726
0.0068844853
0.0068070128
0.0066183886
0.0063369571
0.0059875125
0.0056000261
0.0052079349
0.0048458338
0.0045479571
0.0043506088
0.0042833057
0.00089193474
0.00056081388
0.00026028114
-2.5327337e-05
-0.00029574605
-0.00053471962
-0.00073068322
-0.00087642054
-0.00096685484
-0.00099828945
-0.00096791318
-0.00087344153
-0.00071300513
-0.00048526817
-0.00018972576
0.00017287853
0.00060006474
0.001087121
0.001626669
0.0022083597
0.002818764
0.0034414351
0.0040574148
0.0046459211
0.0051854027
0.0056548588
0.0060353351
0.0063114743
0.0064729707
0.0065157573
0.0064427653
0.0062641385
0.0059968547
0.0056637674
0.0052921463
0.0049118676
0.0045535935
0.0042472466
0.0040193458
0.0038837897
0.0013425344
0.00088306042
0.00052008441
0.00020994169
-6.7596563e-05
-0.00030349383
-0.00049206814
-0.00063105483
-0.00071879096
-0.00075371001
-0.00073415294
-0.00065822073
-0.00052383226
-0.00032898037
-7.2136194e-05
0.00024724561
0.00062816006
0.0010674803
0.0015594435
0.0020952588
0.0026629007
0.0032471426
0.0038299145
0.0043909807
0.0049089664
0.0053626846
0.0057326743
0.0060028202
0.0061618887
0.0062047927
0.0061333987
0.0059567422
0.0056905914
0.0053563742
0.0049795336
0.004587597
0.0042088184
0.0038703665
0.0035877659
0.0033641471
0.0017691703
0.0011762926
0.00074182803
0.00039595097
9.9553141e-05
-0.00014458155
-0.00033613451
-0.00047755499
-0.0005705283
-0.00061562896
-0.00061237003
-0.00055922787
-0.0004538496
-0.00029344098
-7.528733e-05
0.00020263211
0.00054097086
0.00093833871
0.0013906791
0.0018907625
0.0024278657
0.0029877179
0.0035527517
0.0041027425
0.0046158167
0.0050698117
0.0054438941
0.0057203
0.0058860165
0.0059341939
0.0058650768
0.0056862918
0.0054124194
0.0050638528
0.0046649914
0.0042421802
0.0038228228
0.0034334157
0.0030809367
0.0027536779
0.002126652
0.001401978
0.00089261042
0.00050455627
0.00018145212
-7.9367323e-05
-0.00028240621
-0.00043444076
-0.00054024799
-0.00060237104
-0.00062136314
-0.00059595198
-0.00052337685
-0.00039990092
-0.00022145
1.5657144e-05
0.0003139165
0.00067383829
0.0010931935
0.0015663707
0.0020839206
0.0026323859
0.0031944343
0.0037494438
0.0042744869
0.0047457302
0.0051401554
0.0054374593
0.0056219402
0.0056841342
0.0056219577
0.0054411611
0.0051549936
0.0047830598
0.0043493867
0.0038802332
0.003403651
0.0029472885
0.0025111539
0.0020696826
0.0023764375
0.0015253857
0.00094155537
0.0005085691
0.00015415901
-0.00012922623
-0.00035044191
-0.00052016756
-0.00064592877
-0.00073195998
-0.00077962094
-0.00078768497
-0.00075279041
-0.00067006549
-0.00053387835
-0.00033868179
-7.9927339e-05
0.00024500212
0.00063589399
0.0010889067
0.0015959551
0.002144404
0.0027170454
0.0032926087
0.0038466932
0.0043531978
0.0047861495
0.0051217921
0.0053407329
0.005429887
0.0053839366
0.0052060667
0.0049078316
0.0045081001
0.0040310454
0.0035038265
0.0029565639
0.0024198052
0.001888529
0.0013261184
0.0024847452
0.0015148504
0.0008593883
0.00038113141
-6.9838426e-06
-0.00031702202
-0.00056180699
-0.00075551724
-0.0009080628
-0.0010250506
-0.0011083676
-0.0011565848
-0.0011655117
-0.0011289215
-0.0010394002
-0.00088929805
-0.00067175939
-0.00038178899
-1.7302368e-05
0.00041990175
0.00092334154
0.0014813864
0.0020770182
0.0026882401
0.0032889051
0.0038501433
0.0043422866
0.0047371616
0.0050105483
0.0051445226
0.005129359
0.0049646935
0.0046597404
0.0042324441
0.0037074592
0.0031137026
0.002484709
0.001855629
0.0012178676
0.00052453306
0.0024211319
0.0013413175
0.0006185668
9.6216731e-05
-0.00032661555
-0.0006662604
-0.00093920369
-0.0011627593
-0.0013488766
-0.00150422
-0.0016309191
-0.0017270861
-0.001787463
-0.0018042335
-0.0017679565
-0.0016686081
-0.0014967179
-0.0012445613
-0.00090736572
-0.00048447265
1.9648174e-05
0.00059478418
0.0012243533
0.0018857642
0.002551028
0.0031881272
0.0037629993
0.0042420324
0.0045948791
0.004797295
0.0048336322
0.0046986144
0.0043980953
0.0039485836
0.0033753051
0.0027096359
0.0019898059
0.0012572546
0.00050094334
-0.00033600406
0.0021578433
0.00097817164
0.00019350862
-0.0003708118
-0.00082853936
-0.0012000943
-0.0015053743
-0.0017645097
-0.001991182
-0.0021928289
-0.0023715636
-0.0025248014
-0.0026459901
-0.0027254929
-0.0027515854
-0.00271157
-0.002592999
-0.0023849833
-0.0020795513
-0.0016730126
-0.0011672225
-0.00057029088
0.00010208971
0.00082712952
0.0015751353
0.0023107372
0.0029948658
0.0035874179
0.0040504534
0.0043516257
0.0044674353
0.0043858415
0.004107817
0.0036474734
0.0030303526
0.0022907768
0.0014728883
0.00062612821
-0.00026216032
-0.0012590987
0.0016696985
0.00040130744
-0.00043912735
-0.0010427182
-0.0015350676
-0.0019405362
-0.0022822183
-0.0025827837
-0.0028573843
-0.0031139965
-0.0033545043
-0.0035754294
-0.0037687325
-0.0039227466
-0.0040232147
-0.004054449
-0.0040006178
-0.0038471527
-0.0035822513
-0.0031984159
-0.0026939418
-0.0020744416
-0.0013534239
-0.00055328959
0.00029497304
0.0011526952
0.0019753571
0.0027153497
0.0033255452
0.0037634014
0.0039951536
0.0039995372
0.0037704636
0.0033180678
0.0026674567
0.0018560768
0.00093510919
-3.6211508e-05
-0.001071578
-0.0022491496
0.0009343083
-0.00041060327
-0.001300067
-0.0019398835
-0.002466374
-0.0029076829
-0.003289906
-0.0036380095
-0.0039684067
-0.0042894376
-0.0046026074
-0.0049034077
-0.0051821729
-0.0054250388
-0.0056149926
-0.0057330447
-0.0057595491
-0.0056756805
-0.0054650668
-0.0051155199
-0.0046208042
-0.0039825571
-0.0032112652
-0.0023277959
-0.0013635843
-0.00036017405
0.00063231587
0.0015579132
0.0023586698
0.0029794776
0.0033733746
0.0035066861
0.0033632398
0.0029467735
0.0022805027
0.0014047068
0.00037857834
-0.00072694657
-0.0019261598
-0.0033094748
-6.750238e-05
-0.0014757159
-0.0024069719
-0.0030797583
-0.0036398234
-0.0041189155
-0.0045459439
-0.0049479621
-0.0053424893
-0.0057381227
-0.0061359139
-0.006530265
-0.0069098166
-0.0072584043
-0.0075560861
-0.0077802911
-0.0079071337
-0.0079129266
-0.0077759123
-0.0074781885
-0.0070077735
-0.0063607891
-0.0055432874
-0.0045730745
-0.0034807101
-0.0023096893
-0.001115423
3.7229482e-05
0.0010779897
0.0019366511
0.0025496274
0.0028668396
0.0028579706
0.0025168308
0.0018622903
0.00093646073
-0.00019277043
-0.001440741
-0.0028219545
-0.0044405833
-0.0013511532
-0.0028085487
-0.0037739616
-0.0044763124
-0.0050693155
-0.0055881092
-0.0060642339
-0.0065266552
-0.0069939022
-0.0074747992
-0.0079699545
-0.0084727098
-0.0089700343
-0.0094434444
-0.0098699721
-0.010223248
-0.010474767
-0.010595388
-0.010557131
-0.010335263
-0.0099106411
-0.0092722744
-0.0084198445
-0.007366147
-0.0061389922
-0.0047822672
-0.0033557211
-0.0019330584
-0.00059802819
0.00056157998
0.0014617609
0.0020312188
0.002220228
0.0020077275
0.0014044178
0.00045217929
-0.00077224565
-0.0021683999
-0.0037505841
-0.0056383797
-0.0029277442
-0.0044195234
-0.0054111667
-0.006139532
-0.0067646791
-0.0073248883
-0.0078541576
-0.0083832312
-0.0089316211
-0.0095084319
-0.010113934
-0.010740537
-0.011373663
-0.011992593
-0.012571336
-0.013079603
-0.013483971
-0.013749328
-0.013840672
-0.013725315
-0.013375475
-0.012771233
-0.01190372
-0.010778324
-0.0094176302
-0.0078636149
-0.0061785723
-0.0044441707
-0.0027580727
-0.0012277512
3.8474467e-05
0.00094258442
0.0014088978
0.001394833
0.00089727785
-4.5728359e-05
-0.0013493315
-0.00289535
-0.0046974126
-0.0068921599
-0.004803543
-0.0063145795
-0.0073243704
-0.0080750135
-0.0087311661
-0.0093339732
-0.0099197392
-0.010520911
-0.011158036
-0.011840648
-0.012568889
-0.013334472
-0.014121507
-0.014907234
-0.015662763
-0.016353886
-0.016942095
-0.017385904
-0.017642608
-0.017670523
-0.017431783
-0.016895655
-0.016042373
-0.014867161
-0.01338434
-0.011630887
-0.0096688587
-0.0075858906
-0.0054929127
-0.0035183378
-0.0017983468
-0.00046356659
0.00037662378
0.00064955641
0.00033036185
-0.00055253603
-0.0019083871
-0.0035998417
-0.005639394
-0.0081822638
-0.0069795988
-0.0084949344
-0.0095148075
-0.010283725
-0.010969111
-0.011614688
-0.012258958
-0.012936076
-0.013667781
-0.014464296
-0.015325951
-0.016244114
-0.017201927
-0.018174907
-0.01913151
-0.020033752
-0.020838023
-0.021496243
-0.021957494
-0.022170248
-0.022085259
-0.021659198
-0.020859006
-0.019666827
-0.018085241
-0.016142411
-0.013896323
-0.011437251
-0.0088872628
-0.0063955657
-0.0041287702
-0.0022557901
-0.00092829459
-0.00025954172
-0.00030683534
-0.0010600353
-0.0024269724
-0.0042507485
-0.0065424718
-0.0094772383
-0.0094515597
-0.010957062
-0.011979194
-0.012761998
-0.013473824
-0.014160691
-0.014863277
-0.015617569
-0.016446786
-0.017362231
-0.018364863
-0.019446168
-0.020588773
-0.021766898
-0.022946714
-0.02408674
-0.025138421
-0.026047056
-0.026753256
-0.027195056
-0.027310834
-0.027043123
-0.026343387
-0.025177814
-0.023533565
-0.021425645
-0.018903184
-0.016054353
-0.013008426
-0.0099332935
-0.0070267968
-0.0045007608
-0.0025578806
-0.0013641371
-0.0010229206
-0.0015546956
-0.002873623
-0.0048048152
-0.0073583848
-0.010730355
-0.012209762
-0.013692961
-0.014710057
-0.015501822
-0.016235769
-0.016959991
-0.017717451
-0.018546276
-0.019471632
-0.020506453
-0.021652907
-0.022903169
-0.024239903
-0.025636543
-0.027057441
-0.028458019
-0.029785086
-0.030977507
-0.031967419
-0.032682169
-0.033047142
-0.032989599
-0.03244371
-0.031357384
-0.029698607
-0.027464721
-0.024690554
-0.021456165
-0.017892195
-0.014180673
-0.010548891
-0.0072540637
-0.0045576804
-0.0026914191
-0.0018212419
-0.002014824
-0.0032048548
-0.0052031899
-0.0080207281
-0.011875332
-0.015239656
-0.016690783
-0.017696429
-0.018491496
-0.019241094
-0.019995291
-0.020799666
-0.021695058
-0.022709295
-0.023857701
-0.025144384
-0.026562887
-0.028096531
-0.029718536
-0.03139195
-0.033069575
-0.034694005
-0.036198028
-0.037505564
-0.038533355
-0.039193617
-0.039397749
-0.039061363
-0.038112671
-0.036496905
-0.034189578
-0.031205599
-0.027610044
-0.023527359
-0.019146573
-0.014719387
-0.010547569
-0.0069567275
-0.0042566848
-0.0026945476
-0.002406348
-0.0033611488
-0.0053670556
-0.0084401125
-0.01282112
-0.018522625
-0.019935898
-0.020924985
-0.021716696
-0.022472539
-0.023244684
-0.024082014
-0.025029037
-0.026117308
-0.027365553
-0.028780728
-0.030358524
-0.032083584
-0.033929476
-0.035858465
-0.037821203
-0.039756539
-0.041591643
-0.043242667
-0.044616142
-0.04561137
-0.046124106
-0.046051727
-0.045298487
-0.043787784
-0.041469078
-0.038331968
-0.034419458
-0.029841097
-0.02478343
-0.019513992
-0.014373953
-0.0097542707
-0.0060528954
-0.003617202
-0.0026768237
-0.003261638
-0.0051921675
-0.0084982614
-0.01344562
-0.02203726
-0.023412471
-0.02438169
-0.025162004
-0.025910736
-0.026682688
-0.02753128
-0.028506223
-0.029644317
-0.030969041
-0.032491303
-0.034209799
-0.036111149
-0.038169783
-0.040347599
-0.042593493
-0.044842977
-0.047018069
-0.049027681
-0.050768739
-0.052128258
-0.052986706
-0.053222813
-0.052719712
-0.051375009
-0.049110396
-0.045886186
-0.041716893
-0.036688254
-0.030973309
-0.024843644
-0.01866989
-0.012904
-0.0080372916
-0.0045346941
-0.0027473232
-0.002797219
-0.004542086
-0.0080408745
-0.013588223
-0.025761178
-0.027105686
-0.028054046
-0.028812929
-0.029535877
-0.030281545
-0.031109961
-0.032078371
-0.033230966
-0.034597727
-0.03619482
-0.038024854
-0.040077007
-0.042326933
-0.044736396
-0.047252739
-0.049808374
-0.052320505
-0.054691298
-0.056808732
-0.05854837
-0.059776342
-0.060353744
-0.060142738
-0.059016028
-0.056866357
-0.053622205
-0.049264664
-0.04384768
-0.037519507
-0.030541859
-0.023300453
-0.016297465
-0.010115875
-0.0053505752
-0.0025020222
-0.0018218488
-0.0032398896
-0.0068690627
-0.013041023
-0.029673507
-0.031004775
-0.031934097
-0.032658486
-0.033329724
-0.034012697
-0.034777367
-0.035691958
-0.036810981
-0.038173125
-0.039801306
-0.041702917
-0.043870109
-0.046279864
-0.048893754
-0.051657455
-0.05450023
-0.057334559
-0.060056158
-0.062544604
-0.064664836
-0.066269757
-0.067204209
-0.06731066
-0.066437944
-0.064450725
-0.06124488
-0.056765271
-0.051028114
-0.044146875
-0.036359074
-0.028048079
-0.019749368
-0.01212746
-0.0059115761
-0.0017755899
-0.00014185998
-0.0010581282
-0.0047290862
-0.011538524
-0.033758314
-0.035107204
-0.036022397
-0.036694384
-0.03727788
-0.037848284
-0.03849065
-0.03928909
-0.040312303
-0.041610348
-0.043214465
-0.045137544
-0.047374807
-0.049904275
-0.052686839
-0.05566598
-0.058767356
-0.061898446
-0.064948488
-0.06778893
-0.070274721
-0.072246552
-0.073534486
-0.073963257
-0.073358621
-0.071559968
-0.068431436
-0.063881167
-0.057884523
-0.050512919
-0.041967019
-0.032609641
-0.022988126
-0.013829931
-0.0059924394
-0.00033893701
0.0024967422
0.0022932704
-0.0012999627
-0.0087454552
-0.038009475
-0.039424561
-0.040333334
-0.040926954
-0.041372253
-0.041762477
-0.042205526
-0.042808162
-0.043658131
-0.044819849
-0.046334333
-0.048220294
-0.050475598
-0.053078448
-0.055988008
-0.059144501
-0.062469038
-0.065863364
-0.069209794
-0.072371527
-0.075193802
-0.077505811
-0.079123905
-0.07985632
-0.079509542
-0.077898403
-0.074858052
-0.07026169
-0.064043691
-0.056229811
-0.046974747
-0.036604517
-0.025655273
-0.014892044
-0.0052828532
0.0021155562
0.0064228083
0.0071815376
0.003821812
-0.0042419237
-0.042438006
-0.04399117
-0.044902444
-0.045378011
-0.0456136
-0.045732424
-0.045876496
-0.04618411
-0.046767769
-0.047709207
-0.04906015
-0.050844708
-0.053062163
-0.055689272
-0.058681727
-0.061974817
-0.065483619
-0.069102919
-0.072707228
-0.076150913
-0.079269352
-0.081880483
-0.083787661
-0.084783915
-0.08465795
-0.083202812
-0.080227483
-0.075573221
-0.069135732
-0.060895212
-0.050955902
-0.039595139
-0.027316703
-0.014894494
-0.003379727
0.0059874038
0.012055986
0.014068669
0.01114182
0.0024958166
-0.047083854
-0.04887722
-0.049796751
-0.050090945
-0.050014057
-0.049738611
-0.049456398
-0.049348212
-0.049557318
-0.050185
-0.051293457
-0.052910528
-0.055034519
-0.057638115
-0.060670999
-0.064061175
-0.067715647
-0.071520521
-0.075341552
-0.079022703
-0.08238923
-0.085247506
-0.087387994
-0.088589121
-0.088622999
-0.08726256
-0.084293321
-0.079527923
-0.072827002
-0.064128056
-0.053484827
-0.041119672
-0.027487697
-0.013343872
0.00021110918
0.011777
0.019923145
0.023533076
0.021294094
0.012122648
-0.05203604
-0.05420957
-0.055129747
-0.055138447
-0.054599497
-0.053764371
-0.052895183
-0.052227477
-0.051940338
-0.052154899
-0.052941486
-0.054328083
-0.056308061
-0.058846192
-0.061882902
-0.06533564
-0.069100961
-0.073054047
-0.077051943
-0.080924111
-0.084486402
-0.087532721
-0.089840105
-0.091172231
-0.091285636
-0.089932785
-0.086877747
-0.081907213
-0.074850099
-0.065605017
-0.054177986
-0.040735045
-0.025672479
-0.0097029532
0.0060586839
0.020085547
0.030673212
0.036296594
0.035078765
0.025467631
-0.057468921
-0.060205641
-0.061083355
-0.060632163
-0.059411307
-0.057794213
-0.056137795
-0.054743697
-0.053828619
-0.053530076
-0.053920794
-0.055022661
-0.056818202
-0.059258998
-0.062272824
-0.065761684
-0.06961002
-0.073680199
-0.077814541
-0.081833648
-0.085538665
-0.088710561
-0.09111248
-0.092492823
-0.09259012
-0.091139144
-0.087881451
-0.082578202
-0.075028445
-0.065094568
-0.052737655
-0.038068341
-0.021418535
-0.0034406671
0.014769892
0.031598804
0.045086079
0.053257859
0.053517895
0.043608095
-0.063710209
-0.067229657
-0.06793978
-0.066733929
-0.064506446
-0.061810002
-0.059120604
-0.056811808
-0.055132738
-0.054227487
-0.054160587
-0.054938229
-0.056524104
-0.058850424
-0.061825147
-0.065334615
-0.069246092
-0.073407148
-0.077645645
-0.081769121
-0.085564695
-0.08879935
-0.091221365
-0.092562901
-0.09254426
-0.09088014
-0.087288759
-0.081504713
-0.073296027
-0.062488073
-0.04899673
-0.032875756
-0.014386863
0.0058941817
0.026923797
0.047044409
0.064067354
0.075531123
0.077939098
0.068004389
-0.071373097
-0.07588644
-0.076125841
-0.073666282
-0.069952836
-0.065782636
-0.061764531
-0.058336002
-0.055760866
-0.054170494
-0.053604203
-0.05403912
-0.055409167
-0.057620034
-0.060555334
-0.064080515
-0.06804399
-0.072276712
-0.076591261
-0.080780705
-0.084617918
-0.087855366
-0.090225887
-0.091444709
-0.091213095
-0.089223948
-0.085169958
-0.078756267
-0.069715642
-0.057831039
-0.04296619
-0.025109693
-0.004441346
0.018567639
0.042962361
0.067102795
0.088608908
0.10448165
0.11010311
0.10075841
-0.081624679
-0.087175444
-0.086264511
-0.081711241
-0.075810352
-0.069651274
-0.063958265
-0.059197829
-0.055610809
-0.053283512
-0.052205372
-0.052305814
-0.053477869
-0.05559185
-0.058502171
-0.062049995
-0.066063281
-0.07035541
-0.074723327
-0.078945645
-0.082781204
-0.085968206
-0.088224287
-0.0892478
-0.088720683
-0.086313015
-0.081689572
-0.074522321
-0.064502145
-0.051359529
-0.034891549
-0.015000746
0.0082450242
0.034511319
0.063009409
0.09222214
0.11965652
0.14171948
0.15240146
0.14512117
-0.096754194
-0.10273292
-0.099193244
-0.091151341
-0.082059524
-0.073259354
-0.065506354
-0.059215833
-0.054538907
-0.051467604
-0.049907539
-0.049719208
-0.050740746
-0.052799543
-0.0557167
-0.059307264
-0.06337831
-0.067726013
-0.072132552
-0.076363241
-0.080164216
-0.08326083
-0.085356942
-0.086135342
-0.085259727
-0.082377576
-0.077124811
-0.069136878
-0.058055676
-0.043546382
-0.025318219
-0.0031548713
0.023036624
0.053136559
0.086628459
0.12227825
0.15777643
0.18894765
0.20809401
0.20632344
-0.12133498
-0.12518289
-0.11586921
-0.10207819
-0.088415331
-0.076197258
-0.066005397
-0.058052154
-0.052291093
-0.048549452
-0.04660668
-0.046230117
-0.047190532
-0.049267023
-0.052245945
-0.05591697
-0.060068124
-0.064480731
-0.068924787
-0.073154994
-0.076907565
-0.079897869
-0.081818921
-0.082340907
-0.08111228
-0.077759609
-0.071892759
-0.063108981
-0.05099653
-0.035143727
-0.015148733
0.0093650718
0.038720629
0.073124318
0.11251414
0.15625695
0.20262547
0.24751807
0.28129607
0.29235141
-0.16445352
-0.15842937
-0.13714542
-0.11415542
-0.094106373
-0.077631267
-0.064738631
-0.055162812
-0.048490748
-0.044291795
-0.042172139
-0.041785483
-0.042829132
-0.04503492
-0.048158591
-0.051969614
-0.056242237
-0.06074794
-0.065249214
-0.069494552
-0.073214525
-0.076118804
-0.077894057
-0.078202928
-0.07668428
-0.072943129
-0.066574725
-0.05713936
-0.04417276
-0.027182334
-0.0056394096
0.021030763
0.053459181
0.09232604
0.13829031
0.19182082
0.25266202
0.31750565
0.37626296
0.41536498
-0.24629109
-0.2063151
-0.16212794
-0.12552756
-0.097143479
-0.075879019
-0.060489098
-0.049754156
-0.04266187
-0.038437216
-0.036490382
-0.036364195
-0.037694767
-0.040181112
-0.043561779
-0.04759744
-0.052057999
-0.056712904
-0.061323755
-0.065638633
-0.069387732
-0.072280077
-0.074001184
-0.074212428
-0.072552311
-0.06860091
-0.061958648
-0.052154498
-0.038683154
-0.020982895
0.0015930901
0.029821494
0.064681747
0.1074596
0.1598654
0.22417195
0.30289954
0.39552634
0.49623766
0.60320642
-0.42543603
-0.26572721
-0.17721901
-0.12463468
-0.089116517
-0.065103728
-0.049325688
-0.039187486
-0.032985743
-0.029675571
-0.028571288
-0.029186134
-0.031154828
-0.034186444
-0.038032711
-0.04246708
-0.047270741
-0.052222824
-0.057093215
-0.061637168
-0.065591195
-0.068669899
-0.070563239
-0.070933099
-0.069401682
-0.065624877
-0.059128978
-0.049451063
-0.036074597
-0.018404552
0.0042691565
0.032843932
0.068538445
0.11313718
0.16943128
0.24201155
0.33806029
0.46590999
0.64304879
0.92085633
-0.79330961
-0.32443875
-0.14899457
-0.087723637
-0.05534535
-0.036000257
-0.02509319
-0.019203109
-0.016357635
-0.015620753
-0.016495135
-0.018653784
-0.021851523
-0.025885396
-0.030570904
-0.035727867
-0.041171808
-0.046708
-0.052126927
-0.057200645
-0.061679841
-0.065291459
-0.067737031
-0.068692954
-0.067817707
-0.064702483
-0.058937837
-0.050070122
-0.037592685
-0.020928005
0.00060842392
0.027877879
0.062054555
0.10490837
0.15944578
0.2315221
0.33384539
0.49408608
0.79001021
1.3837721
1.0774086e-05
-0.00013202901
-0.00044403784
-0.0008463426
-0.0012644624
-0.0016529834
-0.001981068
-0.0022299041
-0.0023888601
-0.0024522307
-0.0024170756
-0.0022819385
-0.0020462516
-0.0017102613
-0.0012753286
-0.0007444624
-0.00012297069
0.00058088185
0.0013553196
0.0021846924
0.0030493772
0.0039260188
0.0047881403
0.0056071577
0.0063537519
0.0069995483
0.0075189954
0.0078913047
0.0081022849
0.0081458934
0.008025353
0.0077537432
0.0073540447
0.0068586959
0.0063085615
0.0057511662
0.0052415063
0.0048358237
0.0045958251
0.0045572644
0.00015268555
7.484116e-06
-0.00024250499
-0.00055114071
-0.00087305684
-0.0011739689
-0.0014296606
-0.0016239672
-0.001746528
-0.0017908973
-0.0017531329
-0.001630871
-0.0014228595
-0.0011288691
-0.00074989428
-0.00028854087
0.00025048466
0.00085987513
0.0015293
0.0022451291
0.0029903651
0.0037449837
0.0044862916
0.0051899503
0.0058311259
0.0063859355
0.0068330627
0.007155411
0.0073416517
0.0073875102
0.0072966535
0.0070810836
0.0067609959
0.006364132
0.0059246849
0.0054816499
0.0050761898
0.0047516115
0.0045530507
0.0045178324
0.00047087068
0.00025287
-2.7619121e-06
-0.00028165961
-0.00056176181
-0.00081853204
-0.0010342054
-0.0011967341
-0.0012979102
-0.0013322129
-0.0012959256
-0.0011865174
-0.0010023499
-0.0007426718
-0.00040783354
3.4791822e-07
0.00047813742
0.00101942
0.0016153049
0.0022538627
0.0029200903
0.0035960339
0.0042613351
0.0048940051
0.0054715195
0.0059721634
0.0063765365
0.0066691019
0.0068396322
0.0068843931
0.0068069205
0.0066182938
0.0063368573
0.0059874056
0.0055999108
0.0052078123
0.004845713
0.00454782
0.0043504162
0.0042832638
0.00089235805
0.00056081023
0.00026047225
-2.5150178e-05
-0.00029565375
-0.00053466616
-0.00073065256
-0.00087641004
-0.00096686142
-0.00099831082
-0.00096794738
-0.00087348706
-0.00071306135
-0.00048533542
-0.00018980375
0.00017279131
0.00059997019
0.0010870216
0.0016265684
0.0022082622
0.0028186734
0.003441356
0.0040573503
0.0046458733
0.0051853735
0.0056548491
0.0060353425
0.0063114934
0.0064729953
0.0065157813
0.0064427823
0.006264142
0.0059968381
0.0056637266
0.0052920797
0.0049117738
0.0045534683
0.0042470933
0.0040191764
0.0038836335
0.0013430305
0.00088286584
0.00052025568
0.00021015603
-6.7459323e-05
-0.00030337435
-0.00049195391
-0.00063095109
-0.00071869912
-0.00075363054
-0.00073408599
-0.00065816665
-0.00052379242
-0.00032895722
-7.213153e-05
0.00024723121
0.00062812668
0.0010674285
0.0015593749
0.0020951757
0.002662806
0.0032470399
0.0038298069
0.0043908713
0.0049088592
0.0053625829
0.0057325787
0.0060027281
0.0061617972
0.0062047001
0.0061333042
0.0059566444
0.0056904881
0.0053562645
0.0049794194
0.004587474
0.0042086683
0.0038702231
0.0035877269
0.0033639048
0.0017697668
0.0011759191
0.00074197257
0.00039617543
9.9688939e-05
-0.00014445869
-0.00033601111
-0.00047744015
-0.00057042409
-0.00061553581
-0.00061228866
-0.00055915948
-0.00045379605
-0.00029340461
-7.5269791e-05
0.00020262975
0.00054094825
0.00093829632
0.001390618
0.0018906846
0.0024277739
0.0029876156
0.0035526419
0.0041026284
0.0046157021
0.0050697003
0.005443787
0.0057201953
0.005885912
0.0059340885
0.0058649699
0.0056861822
0.0054123052
0.0050637341
0.0046648714
0.0042420518
0.0038226553
0.0034332718
0.003080981
0.0027533432
0.0021273553
0.0014014447
0.00089273552
0.00050478939
0.00018157861
-7.9254373e-05
-0.00028228975
-0.00043433191
-0.0005401489
-0.00060228211
-0.00062128524
-0.0005958865
-0.00052332579
-0.00039986651
-0.00022143365
1.5654452e-05
0.00031389439
0.00067379718
0.0010931343
0.0015662952
0.0020838322
0.0026322879
0.0031943296
0.0037493352
0.0042743782
0.0047456251
0.0051400551
0.005437362
0.0056218436
0.0056840368
0.0056218581
0.0054410573
0.0051548835
0.004782944
0.0043492699
0.003880105
0.0034034677
0.0029471423
0.0025112925
0.0020692751
0.0023772478
0.0015247109
0.00094167028
0.00050881692
0.0001542827
-0.00012911601
-0.00035032412
-0.0005200552
-0.00064582446
-0.00073186434
-0.00077953544
-0.00078761159
-0.00075273156
-0.00067002352
-0.00053385461
-0.0003386773
-7.9942505e-05
0.00024496758
0.00063584046
0.0010888354
0.0015958697
0.0021443082
0.0027169422
0.0032925003
0.003846583
0.0043530895
0.0047860445
0.0051216892
0.0053406309
0.0054297852
0.0053838339
0.0052059606
0.0049077197
0.0045079828
0.0040309284
0.003503697
0.0029563644
0.002419659
0.0018887686
0.0013256219
0.0024856612
0.0015140493
0.00085949741
0.00038139523
-6.8606864e-06
-0.00031691207
-0.00056168525
-0.00075539841
-0.0009079502
-0.0010249455
-0.0011082721
-0.0011565015
-0.0011654434
-0.0011288704
-0.0010393678
-0.0008892851
-0.00067176629
-0.00038181551
-1.7348565e-05
0.00041983653
0.00092326081
0.0014812941
0.0020769174
0.0026881323
0.0032887929
0.0038500302
0.0043421745
0.0047370504
0.0050104381
0.0051444138
0.0051292511
0.0049645845
0.0046596271
0.004232326
0.0037073429
0.0031135732
0.0024844932
0.001855483
0.0012182127
0.00052394333
0.0024221478
0.0013404023
0.00061867217
9.6496597e-05
-0.00032649101
-0.00066614838
-0.00093907601
-0.0011626326
-0.0013487552
-0.0015041055
-0.0016308145
-0.0017269943
-0.0017873865
-0.0018041744
-0.001767916
-0.0016685871
-0.0014967166
-0.0012445793
-0.00090740319
-0.00048452945
1.9575457e-05
0.000594698
0.001224257
0.001885659
0.0025509159
0.0031880112
0.0037628819
0.0042419147
0.0045947618
0.0047971791
0.0048335181
0.0046985012
0.0043979802
0.0039484651
0.0033751916
0.0027095089
0.0019895736
0.0012571095
0.00050140118
-0.00033669269
0.0021589504
0.00097715402
0.00019361267
-0.00037051472
-0.00082841058
-0.0011999773
-0.0015052383
-0.0017643735
-0.0019910508
-0.0021927049
-0.0023714501
-0.0025247015
-0.0026459061
-0.002725426
-0.0027515366
-0.0027115403
-0.0025929887
-0.0023849918
-0.0020795786
-0.001673059
-0.0011672842
-0.0005703686
0.00010200029
0.0008270295
0.0015750255
0.00231062
0.0029947441
0.0035872939
0.0040503287
0.0043515019
0.0044673136
0.0043857224
0.0041076979
0.0036473535
0.0030302423
0.002290653
0.001472638
0.00062598438
-0.00026157892
-0.0012598979
0.0016708879
0.00040020058
-0.00043902219
-0.0010424031
-0.0015349325
-0.0019404124
-0.0022820729
-0.0025826376
-0.0028572434
-0.0031138629
-0.0033543818
-0.0035753211
-0.0037686403
-0.0039226712
-0.0040231566
-0.0040544093
-0.0040005969
-0.0038471497
-0.0035822663
-0.0031984502
-0.0026939959
-0.0020745096
-0.0013535047
-0.00055338298
0.00029486715
0.0011525783
0.0019752321
0.0027152198
0.0033254135
0.0037632702
0.003995025
0.003999412
0.0037703395
0.0033179451
0.0026673491
0.0018559552
0.00093483779
-3.6354683e-05
-0.0010708581
-0.0022500753
0.00093556982
-0.00041178528
-0.0012999587
-0.0019395509
-0.0024662315
-0.0029075517
-0.0032897515
-0.0036378545
-0.0039682572
-0.0042892956
-0.0046024764
-0.0049032909
-0.005182072
-0.0054249542
-0.0056149244
-0.0057329937
-0.0057595154
-0.0056756636
-0.0054650666
-0.0051155383
-0.0046208432
-0.0039826119
-0.0032113357
-0.0023278819
-0.0013636854
-0.00036028903
0.0006321897
0.0015577795
0.0023585324
0.0029793399
0.0033732396
0.003506555
0.0033631102
0.0029466475
0.0022803972
0.0014045865
0.00037828156
-0.00072709102
-0.001925282
-0.0033105468
-6.6179894e-05
-0.0014769583
-0.0024068592
-0.0030794096
-0.0036396734
-0.0041187774
-0.0045457817
-0.0049477997
-0.0053423328
-0.0057379736
-0.0061357752
-0.0065301396
-0.0069097062
-0.007258309
-0.0075560061
-0.007780227
-0.0079070855
-0.0079128935
-0.0077758946
-0.0074781883
-0.0070077928
-0.0063608273
-0.0055433451
-0.0045731514
-0.0034808054
-0.0023098013
-0.0011155489
3.7093254e-05
0.0010778475
0.0019365073
0.0025494859
0.0028667024
0.0028578358
0.0025167017
0.0018621873
0.0009363416
-0.00019309771
-0.0014408894
-0.0028208945
-0.0044418265
-0.0013497826
-0.0028098362
-0.0037738441
-0.0044759503
-0.005069159
-0.0055879653
-0.0060640653
-0.0065264864
-0.0069937394
-0.0074746432
-0.007969808
-0.0084725755
-0.0089699135
-0.0094433372
-0.0098698787
-0.01022317
-0.010474703
-0.010595338
-0.010557096
-0.010335243
-0.0099106408
-0.0092722947
-0.0084198872
-0.0073662127
-0.0061390802
-0.0047823754
-0.0033558463
-0.0019331967
-0.00059817489
0.00056143017
0.0014616131
0.0020310758
0.0022200887
0.0020075963
0.0014043189
0.00045206243
-0.00077260918
-0.0021685549
-0.0037493134
-0.0056398252
-0.0029263394
-0.0044208401
-0.0054110446
-0.0061391595
-0.0067645169
-0.0073247393
-0.0078539832
-0.0083830564
-0.0089314518