/*--------------------------------*- C++ -*----------------------------------*\
  =========                 |
  \\      /  F ield         | OpenFOAM: The Open Source CFD Toolbox
   \\    /   O peration     | Website:  https://openfoam.org
    \\  /    A nd           | Version:  7
     \\/     M anipulation  |
\*---------------------------------------------------------------------------*/
FoamFile
{
    version     2.0;
    format      ascii;
    class       surfaceScalarField;
    location    "16";
    object      phi;
}
// * * * * * * * * * * * * * * * * * * * * * * * * * * * * * * * * * * * * * //

dimensions      [0 3 -1 0 0 0 0];

internalField   nonuniform List<scalar> 
45600
(
2.7526431e-07
-2.81872e-07
-7.3570637e-11
4.0316422e-07
-1.2788345e-07
-2.0801614e-11
1.3231653e-07
2.7084046e-07
-4.7663987e-12
-5.6243509e-07
6.9474496e-07
-2.8468455e-13
-1.6391519e-06
1.07671e-06
4.4185321e-12
-3.0270411e-06
1.387884e-06
7.6734827e-12
-4.6513611e-06
1.6243152e-06
9.8367499e-12
-6.4433995e-06
1.7920332e-06
1.1294393e-11
-8.3430864e-06
1.8996793e-06
1.2246288e-11
-1.029844e-05
1.9553438e-06
1.2833251e-11
-1.2263723e-05
1.9652733e-06
1.3152198e-11
-1.4197233e-05
1.9334998e-06
1.3228846e-11
-1.6059244e-05
1.8620005e-06
1.3060289e-11
-1.7810425e-05
1.7511712e-06
1.2665869e-11
-1.9410903e-05
1.6004676e-06
1.2036371e-11
-2.0820035e-05
1.4091212e-06
1.1125112e-11
-2.1996907e-05
1.1768608e-06
9.9131341e-12
-2.2901503e-05
9.0458607e-07
8.4006573e-12
-2.3496463e-05
5.9495122e-07
6.5630086e-12
-2.3749296e-05
2.5282582e-07
4.3943363e-12
-2.3634881e-05
-1.1441939e-07
1.9527908e-12
-2.3138044e-05
-4.9683816e-07
-6.8580401e-13
-2.2256048e-05
-8.8199396e-07
-3.4317329e-12
-2.100066e-05
-1.2553829e-06
-6.1930227e-12
-1.9399586e-05
-1.6010661e-06
-8.8539756e-12
-1.7497045e-05
-1.9025318e-06
-1.1257773e-11
-1.5353283e-05
-2.1437537e-06
-1.3205402e-11
-1.3042912e-05
-2.3103615e-06
-1.4549207e-11
-1.0652081e-05
-2.3908203e-06
-1.5233095e-11
-8.2745653e-06
-2.3775044e-06
-1.5212525e-11
-6.006995e-06
-2.267558e-06
-1.4413062e-11
-3.9435181e-06
-2.0634648e-06
-1.2802582e-11
-2.170187e-06
-1.7733215e-06
-1.0453354e-11
-7.5920075e-07
-1.4109812e-06
-7.4952441e-12
2.374479e-07
-9.9664849e-07
-4.2043295e-12
7.9582965e-07
-5.5838416e-07
-1.2697362e-12
9.2872427e-07
-1.328979e-07
1.8775702e-12
7.0526149e-07
2.2345732e-07
5.6110253e-12
2.9036383e-07
4.1488757e-07
9.6153242e-12
2.9035952e-07
3.1065723e-12
1.3286064e-07
-4.1471854e-07
-1.8129492e-11
-3.0173875e-07
3.0670154e-07
-1.1293268e-11
-1.6152068e-06
1.584305e-06
-1.041732e-11
-3.8738973e-06
2.9534449e-06
-1.179999e-11
-7.0055607e-06
4.2083897e-06
-1.3351276e-11
-1.0876691e-05
5.2590368e-06
-1.5103145e-11
-1.5330585e-05
6.078231e-06
-1.6683398e-11
-2.0209727e-05
6.6711958e-06
-1.7919208e-11
-2.5365973e-05
7.055945e-06
-1.8713463e-11
-3.0663313e-05
7.2527018e-06
-1.900738e-11
-3.5976698e-05
7.2786748e-06
-1.8818463e-11
-4.118914e-05
7.1459595e-06
-1.8186607e-11
-4.6188523e-05
6.8614013e-06
-1.7142862e-11
-5.0865024e-05
6.4276896e-06
-1.5683184e-11
-5.5109709e-05
5.8451697e-06
-1.3805069e-11
-5.8814579e-05
5.1140041e-06
-1.1529031e-11
-6.1874119e-05
4.2364103e-06
-8.8820697e-12
-6.4188296e-05
3.2187667e-06
-5.890127e-12
-6.5666763e-05
2.0734183e-06
-2.6245772e-12
-6.6233962e-05
8.200207e-07
8.1459372e-13
-6.5834948e-05
-5.1344002e-07
4.3519623e-12
-6.4440625e-05
-1.8911714e-06
7.9485166e-12
-6.2053509e-05
-3.2691249e-06
1.1446614e-11
-5.8711665e-05
-4.5972458e-06
1.4726179e-11
-5.4491476e-05
-5.8212767e-06
1.765424e-11
-4.9508342e-05
-6.8856875e-06
2.0099978e-11
-4.3915007e-05
-7.7371115e-06
2.1977872e-11
-3.7897282e-05
-8.3281095e-06
2.3228305e-11
-3.1667154e-05
-8.6209705e-06
2.3780463e-11
-2.5453461e-05
-8.5912202e-06
2.3571933e-11
-1.9490509e-05
-8.2305308e-06
2.2586574e-11
-1.400517e-05
-7.5488222e-06
2.0855789e-11
-9.202955e-06
-6.5755533e-06
1.8445198e-11
-5.2534132e-06
-5.3605372e-06
1.5482498e-11
-2.2749627e-06
-3.975112e-06
1.217637e-11
-3.1837809e-07
-2.5149814e-06
8.6560405e-12
6.5611e-07
-1.1073963e-06
4.7245813e-12
8.0307159e-07
7.6489045e-08
3.0119351e-12
4.1762137e-07
8.0033291e-07
4.142427e-12
7.0798298e-07
-2.5418869e-12
-2.7354506e-07
-1.4117557e-07
-1.0405851e-11
-1.6271077e-06
1.6602562e-06
-5.2561876e-12
-4.2882444e-06
4.2454431e-06
-6.9848079e-12
-8.2722275e-06
6.9374369e-06
-6.0080162e-12
-1.3470196e-05
9.4063691e-06
-4.290792e-12
-1.9702309e-05
1.1491163e-05
-3.4138413e-12
-2.6756817e-05
1.313275e-05
-2.9175828e-12
-3.4414921e-05
1.4329308e-05
-2.5679558e-12
-4.2464022e-05
1.5105051e-05
-2.2800004e-12
-5.0702858e-05
1.5491543e-05
-1.9707529e-12
-5.8941729e-05
1.5517551e-05
-1.6315429e-12
-6.7000238e-05
1.5204472e-05
-1.2697106e-12
-7.4704354e-05
1.4565521e-05
-8.6603884e-13
-8.1884053e-05
1.3607389e-05
-3.9050707e-13
-8.83723e-05
1.2333416e-05
1.3156311e-13
-9.4005823e-05
1.0747525e-05
6.6431328e-13
-9.8627779e-05
8.8583611e-06
1.2046648e-12
-0.00010209221
6.6831908e-06
1.741558e-12
-0.00010427001
4.2512116e-06
2.227847e-12
-0.00010505602
1.6060263e-06
2.6167873e-12
-0.00010437647
-1.1929975e-06
2.909531e-12
-0.00010219666
-4.070984e-06
3.1179863e-12
-9.852763e-05
-6.9381563e-06
3.2488137e-12
-9.3431504e-05
-9.6933775e-06
3.2912674e-12
-8.7024689e-05
-1.22281e-05
3.2248154e-12
-7.9478399e-05
-1.4431988e-05
3.0715142e-12
-7.1015986e-05
-1.6199534e-05
2.9071316e-12
-6.1906808e-05
-1.7437296e-05
2.7901183e-12
-5.2456555e-05
-1.8071228e-05
2.7188392e-12
-4.2994237e-05
-1.8053542e-05
2.6760685e-12
-3.3856243e-05
-1.736853e-05
2.6766136e-12
-2.536812e-05
-1.6036952e-05
2.7492192e-12
-1.7824778e-05
-1.4118902e-05
2.8970572e-12
-1.1469784e-05
-1.1715538e-05
3.1005804e-12
-6.4741986e-06
-8.9707021e-06
3.3449708e-12
-2.9148436e-06
-6.0743408e-06
3.5542215e-12
-7.5207394e-07
-3.2701708e-06
3.5034695e-12
1.9375071e-07
-8.6934112e-07
3.973633e-12
2.6524639e-07
7.2883164e-07
5.5878674e-12
9.7322879e-07
1.131197e-12
-7.4563501e-07
6.0446286e-07
-1.1428558e-11
-3.1786368e-06
4.0932544e-06
1.0568138e-13
-7.3436761e-06
8.4104863e-06
-5.5427866e-12
-1.3158556e-05
1.2752327e-05
-5.1380467e-12
-2.0448666e-05
1.6696486e-05
-2.6770179e-12
-2.8982339e-05
2.0024843e-05
-1.550508e-12
-3.8500054e-05
2.2650468e-05
-8.8940057e-13
-4.8735057e-05
2.4564311e-05
-3.0469682e-13
-5.9425407e-05
2.57954e-05
1.9092267e-13
-7.031925e-05
2.6385386e-05
6.1967092e-13
-8.1175587e-05
2.6373888e-05
9.9188914e-13
-9.1762633e-05
2.5791519e-05
1.3205376e-12
-0.0001018555
2.4658393e-05
1.6304802e-12
-0.00011123451
2.2986389e-05
1.9504537e-12
-0.00011968487
2.078378e-05
2.2618469e-12
-0.00012699843
1.8061079e-05
2.5296539e-12
-0.00013297731
1.4837229e-05
2.7423173e-12
-0.00013743954
1.1145419e-05
2.8820871e-12
-0.00014022632
7.0379815e-06
2.9166107e-12
-0.00014121026
2.5899648e-06
2.8266595e-12
-0.00014030412
-2.0991438e-06
2.6251341e-12
-0.00013746958
-6.9055255e-06
2.2933429e-12
-0.00013272473
-1.1683002e-05
1.8706121e-12
-0.00012615013
-1.6267979e-05
1.386566e-12
-0.00011789232
-2.0485905e-05
8.4686595e-13
-0.00010816435
-2.4159959e-05
2.8353867e-13
-9.7242574e-05
-2.7121316e-05
-2.1369357e-13
-8.5459477e-05
-2.9220394e-05
-5.5585511e-13
-7.3192333e-05
-3.0338372e-05
-7.1363472e-13
-6.0847774e-05
-3.0398099e-05
-6.9500696e-13
-4.8842748e-05
-2.9373553e-05
-4.9529167e-13
-3.7582531e-05
-2.7297166e-05
-9.9887734e-14
-2.7436724e-05
-2.426471e-05
4.8011982e-13
-1.871427e-05
-2.0437996e-05
1.1842534e-12
-1.1638569e-05
-1.6046408e-05
1.9309428e-12
-6.323608e-06
-1.1389307e-05
2.7214316e-12
-2.7519622e-06
-6.8418218e-06
3.6327291e-12
-7.5754348e-07
-2.8637653e-06
4.4468501e-12
-9.7163859e-09
-1.9001046e-08
4.9137701e-12
9.6350758e-07
4.2163831e-12
-1.227547e-06
1.83202e-06
-1.3393711e-11
-4.7863884e-06
7.6520945e-06
5.6433781e-12
-1.0517678e-05
1.4141784e-05
-4.9670287e-12
-1.8207551e-05
2.0442215e-05
-6.2163915e-12
-2.7593577e-05
2.6082521e-05
-3.9802984e-12
-3.8381819e-05
3.0813092e-05
-3.4651094e-12
-5.0264055e-05
3.4532709e-05
-3.3129424e-12
-6.2930991e-05
3.723125e-05
-3.0087746e-12
-7.6080313e-05
3.8944725e-05
-2.6635833e-12
-8.9420103e-05
3.9725178e-05
-2.3050201e-12
-0.00010266896
3.962275e-05
-1.9414564e-12
-0.00011555441
3.8676966e-05
-1.5683628e-12
-0.00012781095
3.6914932e-05
-1.155615e-12
-0.00013917898
3.4354416e-05
-6.714298e-13
-0.00014940525
3.1010051e-05
-1.3526628e-13
-0.00015824534
2.690117e-05
4.1768409e-13
-0.0001654682
2.2060081e-05
9.6820133e-13
-0.00017086259
1.6539804e-05
1.5003481e-12
-0.00017424515
1.042054e-05
1.9895166e-12
-0.00017546949
3.8142974e-06
2.4103368e-12
-0.00017443569
-3.1329435e-06
2.7452625e-12
-0.0001710997
-1.0241514e-05
2.9783289e-12
-0.00016548165
-1.7301056e-05
3.1214422e-12
-0.00015767247
-2.4077161e-05
3.172665e-12
-0.00014783807
-3.032031e-05
3.1099214e-12
-0.00013622023
-3.5777805e-05
2.9482022e-12
-0.00012313366
-4.0207892e-05
2.7725842e-12
-0.00010895862
-4.3395431e-05
2.6704982e-12
-9.4128894e-05
-4.5168105e-05
2.655472e-12
-7.9114942e-05
-4.5412053e-05
2.6864725e-12
-6.4402799e-05
-4.4085697e-05
2.7405834e-12
-5.0469262e-05
-4.1230703e-05
2.8367212e-12
-3.7754594e-05
-3.6979379e-05
2.9968523e-12
-2.663416e-05
-3.1558435e-05
3.1811679e-12
-1.7390678e-05
-2.5289896e-05
3.3133938e-12
-1.0188892e-05
-1.8591099e-05
3.5683183e-12
-5.054548e-06
-1.1976171e-05
4.3554073e-12
-1.8599861e-06
-6.0583319e-06
4.1587903e-12
-3.2233326e-07
-1.5566579e-06
1.1306753e-12
6.411668e-07
6.5415187e-12
-1.6925241e-06
3.5245595e-06
-1.6105898e-11
-6.3689293e-06
1.2328496e-05
1.0833813e-11
-1.3666093e-05
2.1438954e-05
-4.1920092e-12
-2.3224924e-05
3.0001058e-05
-6.5099332e-12
-3.4681603e-05
3.7539205e-05
-3.9384929e-12
-4.767111e-05
4.3802603e-05
-3.5630619e-12
-6.1833335e-05
4.8694937e-05
-3.5788832e-12
-7.6818151e-05
5.2216069e-05
-3.3305844e-12
-9.2288124e-05
5.4414701e-05
-3.022467e-12
-0.00010791874
5.5355792e-05
-2.7015044e-12
-0.00012339682
5.5100833e-05
-2.3599141e-12
-0.00013841823
5.3698384e-05
-1.9834727e-12
-0.00015268588
5.1182584e-05
-1.5529703e-12
-0.00016590886
4.7577397e-05
-1.0550193e-12
-0.00017780339
4.2904575e-05
-5.086778e-13
-0.00018809578
3.7193559e-05
6.8449774e-14
-0.00019652754
3.0491832e-05
6.5557413e-13
-0.0002028623
2.2874562e-05
1.229421e-12
-0.00020689436
1.4452597e-05
1.7711977e-12
-0.00020845823
5.3781654e-06
2.2597889e-12
-0.00020743872
-4.152454e-06
2.6626737e-12
-0.00020378086
-1.3899371e-05
2.9670749e-12
-0.00019749909
-2.358283e-05
3.1831757e-12
-0.00018868479
-3.289146e-05
3.3109107e-12
-0.00017751157
-4.1493534e-05
3.3250114e-12
-0.00016423731
-4.9052064e-05
3.2322769e-12
-0.0001492023
-5.5242906e-05
3.1082763e-12
-0.00013282262
-5.9775112e-05
3.0357435e-12
-0.00011557834
-6.2412389e-05
3.0306438e-12
-9.7996212e-05
-6.2994185e-05
3.0574897e-12
-8.0627128e-05
-6.1454784e-05
3.0988478e-12
-6.4019038e-05
-5.7838796e-05
3.1773632e-12
-4.8686643e-05
-5.2311776e-05
3.3109466e-12
-3.5079715e-05
-4.5165365e-05
3.4436545e-12
-2.3552332e-05
-3.6817283e-05
3.479903e-12
-1.4335591e-05
-2.7807846e-05
3.7241217e-12
-7.5165461e-06
-1.8795223e-05
4.8572244e-12
-3.0264977e-06
-1.0548387e-05
4.175143e-12
-6.4249928e-07
-3.9406582e-06
-1.2844617e-12
-1.3436246e-09
9.03802e-12
-2.1320701e-06
5.6566509e-06
-1.8988439e-11
-7.8878479e-06
1.8084267e-05
1.5466489e-11
-1.6710581e-05
3.0261691e-05
-3.6281237e-12
-2.809431e-05
4.1384796e-05
-6.761096e-12
-4.1568267e-05
5.1013165e-05
-3.6687503e-12
-5.669134e-05
5.8925678e-05
-3.2758377e-12
-7.3049119e-05
6.5052717e-05
-3.3775102e-12
-9.0251347e-05
6.9418299e-05
-3.156764e-12
-0.00010792895
7.2092303e-05
-2.8739218e-12
-0.00012573036
7.3157207e-05
-2.5793107e-12
-0.00014331755
7.2688022e-05
-2.2594769e-12
-0.00016036232
7.0743161e-05
-1.899133e-12
-0.00017654371
6.7363971e-05
-1.4807948e-12
-0.00019154691
6.25806e-05
-9.9780943e-13
-0.00020506429
5.6421951e-05
-4.7431904e-13
-0.00021679847
4.8927732e-05
7.8094403e-14
-0.00022646755
4.016091e-05
6.4132888e-13
-0.00023381222
3.0219238e-05
1.1922866e-12
-0.00023860444
1.9244808e-05
1.7160009e-12
-0.00024065716
7.4308942e-06
2.1879307e-12
-0.00023983494
-4.9746779e-06
2.5653781e-12
-0.00023606441
-1.7669903e-05
2.8414681e-12
-0.00022934459
-3.0302652e-05
3.0347717e-12
-0.00021975583
-4.2480215e-05
3.1491733e-12
-0.00020746687
-5.3782499e-05
3.1529291e-12
-0.00019273891
-6.3780036e-05
3.0481425e-12
-0.00017592579
-7.2056026e-05
2.9100778e-12
-0.00015746926
-7.8231642e-05
2.821071e-12
-0.00013788836
-8.1993294e-05
2.8003118e-12
-0.00011776245
-8.3120092e-05
2.8243737e-12
-9.7707876e-05
-8.1509361e-05
2.8879669e-12
-7.8348775e-05
-7.71979e-05
3.0119936e-12
-6.0283619e-05
-7.0376935e-05
3.194164e-12
-4.4049642e-05
-6.1399344e-05
3.3569474e-12
-3.0088094e-05
-5.0778833e-05
3.3884004e-12
-1.8713629e-05
-3.9182316e-05
3.7186048e-12
-1.0091293e-05
-2.7417566e-05
5.3170669e-12
-4.224687e-06
-1.6415001e-05
4.2395269e-12
-9.5838593e-07
-7.2069587e-06
-4.0184749e-12
-9.5974285e-07
1.1001182e-11
-2.5439786e-06
8.200653e-06
-2.1876082e-11
-9.3249189e-06
2.4865194e-05
1.9570466e-11
-1.9607172e-05
4.0543945e-05
-3.3325819e-12
-3.2743281e-05
5.4520913e-05
-7.1874131e-12
-4.8156112e-05
6.6425998e-05
-3.5873138e-12
-6.5327525e-05
7.6097093e-05
-3.1966862e-12
-8.3788415e-05
8.3513609e-05
-3.4162569e-12
-0.00010310957
8.8739453e-05
-3.2587771e-12
-0.00012289324
9.1875976e-05
-3.025333e-12
-0.00014276541
9.3029382e-05
-2.7736063e-12
-0.00016236895
9.2291569e-05
-2.4798459e-12
-0.0001813581
8.9732315e-05
-2.1282685e-12
-0.00019939469
8.5400554e-05
-1.7067796e-12
-0.00021614641
7.9332323e-05
-1.2173156e-12
-0.00023128742
7.156296e-05
-6.8849458e-13
-0.0002445011
6.2141415e-05
-1.302042e-13
-0.00025548503
5.1144836e-05
4.3986319e-13
-0.00026395781
3.8692014e-05
1.0016145e-12
-0.00026966757
2.4954577e-05
1.5523414e-12
-0.00027240184
1.0165162e-05
2.0663006e-12
-0.00027199833
-5.3781811e-06
2.4787672e-12
-0.00026835631
-2.1311925e-05
2.7784141e-12
-0.00026144824
-3.7210728e-05
2.9931061e-12
-0.00025133066
-5.2597796e-05
3.1429466e-12
-0.0002381538
-6.6959363e-05
3.194635e-12
-0.00022216866
-7.9765186e-05
3.14049e-12
-0.00020373035
-9.0494341e-05
3.0466531e-12
-0.00018329635
-9.8665639e-05
2.983015e-12
-0.00016141831
-0.00010387135
2.9575212e-12
-0.00013872629
-0.00010581211
2.9522026e-12
-0.00011590525
-0.0001043304
2.9809934e-12
-9.3663909e-05
-9.9439245e-05
3.0784953e-12
-7.2697655e-05
-9.1343193e-05
3.2456269e-12
-5.3648079e-05
-8.0448923e-05
3.4005183e-12
-3.7062681e-05
-6.7364233e-05
3.3939543e-12
-2.33589e-05
-5.2886101e-05
3.756714e-12
-1.2796711e-05
-3.7979762e-05
5.7844356e-12
-5.4638515e-06
-2.3747868e-05
4.2396264e-12
-1.2770456e-06
-1.1393761e-05
-6.9497851e-12
-2.2368046e-06
1.3404563e-11
-2.9272208e-06
1.1127898e-05
-2.4729865e-11
-1.0669124e-05
3.2607079e-05
2.3232523e-11
-2.2326772e-05
5.220159e-05
-3.1644951e-12
-3.7120519e-05
6.9314666e-05
-7.6511689e-12
-5.4371738e-05
8.3677218e-05
-3.5718342e-12
-7.3487759e-05
9.5213115e-05
-3.188869e-12
-9.3946597e-05
0.00010397245
-3.5307565e-12
-0.0001152823
0.00011007516
-3.4464285e-12
-0.00013707162
0.0001136653
-3.2657089e-12
-0.00015892231
0.00011488008
-3.0504147e-12
-0.00018046328
0.00011383254
-2.7707766e-12
-0.00020133689
0.00011060593
-2.4163916e-12
-0.00022119368
0.00010525735
-1.9823788e-12
-0.00023968952
9.7828158e-05
-1.4801644e-12
-0.00025648528
8.8358716e-05
-9.4139709e-13
-0.00027124888
7.6905022e-05
-3.7575863e-13
-0.00028365956
6.3555512e-05
2.0009008e-13
-0.00029341402
4.8446481e-05
7.6895713e-13
-0.00030023453
3.1775084e-05
1.3398183e-12
-0.00030387848
1.3809119e-05
1.8913614e-12
-0.0003041496
-5.1070634e-06
2.3413101e-12
-0.00030090995
-2.4551573e-05
2.6779302e-12
-0.00029409344
-4.4027242e-05
2.9257349e-12
-0.00028371904
-6.2972205e-05
3.1265814e-12
-0.00026990368
-8.0774727e-05
3.2522961e-12
-0.00025287335
-9.6795521e-05
3.2793256e-12
-0.00023297081
-0.00011039688
3.2523464e-12
-0.0002106582
-0.00012097826
3.2245438e-12
-0.00018651247
-0.00012801707
3.1964917e-12
-0.00016121229
-0.0001311123
3.1553995e-12
-0.00013551493
-0.00013002776
3.1276891e-12
-0.00011022356
-0.00012473061
3.1615214e-12
-8.6146049e-05
-0.00011542071
3.2842145e-12
-6.4048248e-05
-0.00010254673
3.4259179e-12
-4.4606165e-05
-8.680632e-05
3.3730013e-12
-2.8362045e-05
-6.9130224e-05
3.7532516e-12
-1.5689686e-05
-5.0652128e-05
6.2575195e-12
-6.7737863e-06
-3.2663776e-05
4.2354796e-12
-1.6067141e-06
-1.6560826e-05
-1.0006607e-11
-3.8435368e-06
1.5921552e-11
-3.2802841e-06
1.4408207e-05
-2.7426781e-11
-1.1910806e-05
4.1237578e-05
2.6543053e-11
-2.4845103e-05
6.5135883e-05
-3.055915e-12
-4.1182901e-05
8.5652471e-05
-8.1168118e-12
-6.01518e-05
0.00010264612
-3.6120856e-12
-8.1089678e-05
0.000116151
-3.2489431e-12
-0.00010342537
0.00012630814
-3.7029845e-12
-0.00012665951
0.0001333093
-3.6747435e-12
-0.00015034695
0.00013735274
-3.5232976e-12
-0.00017408141
0.00013861454
-3.3197639e-12
-0.00019748262
0.00013723376
-3.0328264e-12
-0.00022018636
0.00013330968
-2.6629207e-12
-0.00024183728
0.00012690826
-2.2173086e-12
-0.00026208459
0.00011807548
-1.7132529e-12
-0.00028058052
0.00010685464
-1.1744805e-12
-0.00029698107
9.3305577e-05
-6.0902955e-13
-0.00031094919
7.7523628e-05
-3.8107777e-14
-0.00032215991
5.9657207e-05
5.2049373e-13
-0.0003303076
3.9922777e-05
1.0868545e-12
-0.00033511509
1.8616618e-05
1.6474334e-12
-0.00033634506
-3.8770985e-06
2.108963e-12
-0.00033381251
-2.7084116e-05
2.4993916e-12
-0.00032740061
-5.0439153e-05
2.7920999e-12
-0.00031707632
-7.3296496e-05
3.0486946e-12
-0.00030290741
-9.494365e-05
3.2524647e-12
-0.00028507836
-0.00011462458
3.3644551e-12
-0.00026390378
-0.00013157146
3.4046016e-12
-0.0002398368
-0.00014504525
3.4153284e-12
-0.00021346993
-0.00015438395
3.4038477e-12
-0.00018552594
-0.00015905629
3.3631525e-12
-0.00015683675
-0.00015871696
3.3099461e-12
-0.00012830954
-0.00015325782
3.2832098e-12
-0.00010088122
-0.00014284903
3.3408409e-12
-7.5464182e-05
-0.00012796377
3.4353395e-12
-5.2888538e-05
-0.00010938197
3.2940242e-12
-3.3847185e-05
-8.817158e-05
3.6841286e-12
-1.8850451e-05
-6.5648869e-05
6.7352669e-12
-8.1964189e-06
-4.3317814e-05
4.2105301e-12
-1.9607341e-06
-2.2796501e-05
-1.3278459e-11
-5.804291e-06
1.8591721e-11
-3.6007691e-06
1.8009003e-05
-2.9890082e-11
-1.3039416e-05
5.0676198e-05
2.9513475e-11
-2.7138122e-05
7.9234586e-05
-3.0176458e-12
-4.4888982e-05
0.00010340334
-8.6159508e-12
-6.5435405e-05
0.00012319255
-3.7347655e-12
-8.8052669e-05
0.00013876826
-3.3938057e-12
-0.00011212551
0.00015038099
-3.9444339e-12
-0.00013712536
0.00015830916
-3.9517969e-12
-0.00016258923
0.00016281662
-3.805799e-12
-0.00018810103
0.00016412634
-3.5959726e-12
-0.00021327599
0.00016240872
-3.2898173e-12
-0.00023774825
0.00015778194
-2.8953561e-12
-0.00026116174
0.00015032176
-2.4376703e-12
-0.00028316412
0.00014007786
-1.9415104e-12
-0.0003034035
0.00012709402
-1.4171789e-12
-0.0003215277
0.00011142978
-8.6173578e-13
-0.00033718588
9.3181809e-05
-2.9885501e-13
-0.00035003226
7.2503599e-05
2.4531265e-13
-0.00035973219
4.9622708e-05
7.9344344e-13
-0.00036597041
2.4854839e-05
1.3434029e-12
-0.00036846259
-1.3849223e-06
1.7895774e-12
-0.00036696762
-2.8579081e-05
2.2541322e-12
-0.0003613063
-5.6100479e-05
2.5935384e-12
-0.00035137911
-8.3223693e-05
2.900864e-12
-0.00033718784
-0.00010913493
3.1842571e-12
-0.00031885722
-0.0001329552
3.3983834e-12
-0.00029665507
-0.00015377362
3.5296449e-12
-0.00027100819
-0.00017069213
3.5972779e-12
-0.00024251061
-0.00018288153
3.6155469e-12
-0.00021192058
-0.00018964632
3.5901106e-12
-0.0001801433
-0.00019049425
3.527368e-12
-0.00014819725
-0.00018520387
3.454474e-12
-0.00011716453
-0.00017388176
3.4534399e-12
-8.8127917e-05
-0.00015700038
3.477659e-12
-6.2100698e-05
-0.00013540919
3.1989578e-12
-3.9957125e-05
-0.00011031516
3.5931213e-12
-2.2372411e-05
-8.3233591e-05
7.258913e-12
-9.7804352e-06
-5.5909796e-05
4.1713689e-12
-2.3541574e-06
-3.0222764e-05
-1.6861985e-11
-8.1584711e-06
2.1577698e-11
-3.8854402e-06
2.1894472e-05
-3.2109659e-11
-1.4042955e-05
6.0833684e-05
3.2101607e-11
-2.9180409e-05
9.4372039e-05
-3.0500733e-12
-4.8196352e-05
0.00012241929
-9.1371505e-12
-7.0160774e-05
0.00014515697
-3.9173874e-12
-9.4294307e-05
0.0001629018
-3.5903699e-12
-0.00011994354
0.00017603023
-4.2182038e-12
-0.0001465555
0.00018492112
-4.2377543e-12
-0.0001736536
0.00018991473
-4.0877341e-12
-0.00020081627
0.00019128901
-3.8736531e-12
-0.00022765872
0.00018925118
-3.5531946e-12
-0.00025381832
0.00018394155
-3.1407988e-12
-0.00027894335
0.0001754468
-2.6737902e-12
-0.00030268497
0.00016381948
-2.1866542e-12
-0.00032469203
0.00014910108
-1.6842312e-12
-0.00034460847
0.00013134624
-1.1515118e-12
-0.00036207306
0.0001106464
-6.0851683e-13
-0.00037672132
8.7151865e-05
-8.6027392e-14
-0.00038819
6.1091392e-05
4.3548132e-13
-0.00039612427
3.2789108e-05
9.959919e-13
-0.00040018778
2.6785879e-06
1.5682614e-12
-0.00040007766
-2.8689204e-05
1.9719417e-12
-0.00039554117
-6.0636973e-05
2.3416118e-12
-0.00038639874
-9.2366134e-05
2.7085587e-12
-0.00037256915
-0.00012296452
3.0709456e-12
-0.00035409748
-0.00015142688
3.389361e-12
-0.00033118306
-0.00017668804
3.6251101e-12
-0.00030420454
-0.00019767066
3.7653063e-12
-0.0002737377
-0.00021334838
3.8186764e-12
-0.00024056141
-0.00022282261
3.8035072e-12
-0.00020564691
-0.00022540875
3.7298996e-12
-0.00017012668
-0.0002207241
3.6301294e-12
-0.00013524177
-0.00020876667
3.5991166e-12
-0.00010226968
-0.00018997248
3.5578516e-12
-7.2439238e-05
-0.00016523963
3.1222833e-12
-4.6842522e-05
-0.00013591188
3.5265368e-12
-2.6355308e-05
-0.00010372081
7.871412e-12
-1.1577777e-05
-7.0687332e-05
4.1524227e-12
-2.8026652e-06
-3.8997858e-05
-2.0876841e-11
-1.0961162e-05
2.4992277e-11
-4.1304763e-06
2.602498e-05
-3.4058401e-11
-1.49083e-05
7.1611475e-05
3.4281242e-11
-3.094532e-05
0.00011040906
-3.1386589e-12
-5.1061505e-05
0.00014253548
-9.6465808e-12
-7.4264913e-05
0.00016836038
-4.1320713e-12
-9.9730051e-05
0.00018836694
-3.805796e-12
-0.0001267717
0.00020307188
-4.4795419e-12
-0.00015481745
0.00021296687
-4.4957079e-12
-0.00018338146
0.00021847874
-4.335357e-12
-0.00021204082
0.00021994837
-4.1195465e-12
-0.00024041511
0.00021762548
-3.7985845e-12
-0.00026814963
0.00021167607
-3.3869739e-12
-0.00029490202
0.00020219919
-2.9254331e-12
-0.00032033219
0.00018924965
-2.4542235e-12
-0.00034409508
0.00017286397
-1.9778623e-12
-0.00036583588
0.00015308704
-1.4789785e-12
-0.00038518759
0.00012999812
-9.750712e-13
-0.00040177091
0.00010373519
-4.9231066e-13
-0.00041519664
7.4517121e-05
-8.0570492e-15
-0.0004250712
4.2663668e-05
5.3342934e-13
-0.00043100553
8.6129259e-06
1.1312489e-12
-0.00043262983
-2.7064909e-05
1.588697e-12
-0.0004296107
-6.3656106e-05
2.0433344e-12
-0.00042167652
-0.00010030032
2.494911e-12
-0.00040864672
-0.00013599432
2.9338773e-12
-0.00039046588
-0.00016960772
3.3348214e-12
-0.0003672403
-0.00019991362
3.6594213e-12
-0.00033927365
-0.00022563731
3.8779104e-12
-0.00030709693
-0.0002455251
3.9845951e-12
-0.00027148664
-0.0002584329
3.9928576e-12
-0.00023346442
-0.00026343097
3.916156e-12
-0.00019427214
-0.00025991639
3.8036132e-12
-0.00015531868
-0.00024772013
3.7571348e-12
-0.00011809922
-0.00022719194
3.6551979e-12
-8.4093245e-05
-0.0001992456
3.0590388e-12
-5.4653361e-05
-0.00016535176
3.4890515e-12
-3.0900451e-05
-0.00012747373
8.6074413e-12
-1.3641628e-05
-8.794616e-05
4.1895018e-12
-3.3222309e-06
-4.9317231e-05
-2.5458679e-11
-1.4283423e-05
2.8940429e-11
-4.3318324e-06
3.0356847e-05
-3.5704431e-11
-1.5622071e-05
8.2901681e-05
3.6032605e-11
-3.2406261e-05
0.00012719325
-3.268863e-12
-5.3441435e-05
0.00016357067
-1.0113323e-11
-7.7685521e-05
0.00019260447
-4.3501174e-12
-0.00010427552
0.00021495695
-4.0045392e-12
-0.00013250072
0.00023129708
-4.7043785e-12
-0.0001617741
0.00024224026
-4.7120037e-12
-0.00019160468
0.00024830933
-4.5387876e-12
-0.00022157213
0.00024991582
-4.3263935e-12
-0.0002513045
0.00024735786
-4.0228348e-12
-0.00028045951
0.00024083108
-3.6347749e-12
-0.00030870917
0.00023044885
-3.2018162e-12
-0.00033572765
0.00021626813
-2.7632559e-12
-0.00036118182
0.00019831814
-2.3200556e-12
-0.00038472424
0.00017662946
-1.8578669e-12
-0.00040598836
0.00015126225
-1.3975922e-12
-0.00042458598
0.00012233281
-9.5966821e-13
-0.00044010729
9.0038431e-05
-5.1367053e-13
-0.00045212416
5.4680541e-05
-7.1724351e-15
-0.00046019743
1.6686191e-05
5.602438e-13
-0.00046388964
-2.3372697e-05
1.1081973e-12
-0.00046278301
-6.4762738e-05
1.6710363e-12
-0.00045650518
-0.00010657815
2.2314781e-12
-0.0004447619
-0.00014773761
2.7648435e-12
-0.00042737677
-0.00018699285
3.2476847e-12
-0.0004043365
-0.00022295389
3.6524261e-12
-0.00037583832
-0.0002541355
3.950941e-12
-0.00034233446
-0.00027902896
4.1257623e-12
-0.00030456633
-0.00029620103
4.1724063e-12
-0.00026357944
-0.00030441788
4.1024506e-12
-0.00022070984
-0.00030278598
3.9802232e-12
-0.00017753506
-0.00029089492
3.9107851e-12
-0.00013578688
-0.00026894012
3.7451476e-12
-9.7231644e-05
-0.00023780084
2.9850544e-12
-6.3531467e-05
-0.00019905195
3.4550776e-12
-3.6107005e-05
-0.0001548982
9.4921942e-12
-1.6025094e-05
-0.00010802808
4.3031661e-12
-3.928963e-06
-6.1413332e-05
-3.0741675e-11
-1.821242e-05
3.3562634e-11
-4.4856712e-06
3.4842554e-05
-3.7005495e-11
-1.6171847e-05
9.4587821e-05
3.7341925e-11
-3.3538748e-05
0.00014456015
-3.4075706e-12
-5.5296488e-05
0.00018532842
-1.0501137e-11
-8.0364581e-05
0.00021767257
-4.53958e-12
-0.00010785085
0.00024244323
-4.1733785e-12
-0.00013702499
0.00026047123
-4.8910338e-12
-0.0001672898
0.00027250507
-4.8961543e-12
-0.0001981528
0.00027917234
-4.7217518e-12
-0.00022919975
0.00028096277
-4.5239818e-12
-0.00026007093
0.00027822903
-4.2495454e-12
-0.0002904407
0.00027120086
-3.8960554e-12
-0.00032000039
0.00026000854
-3.5044668e-12
-0.00034844406
0.0002447118
-3.1111542e-12
-0.00037545694
0.00022533103
-2.7084212e-12
-0.00040070614
0.00020187866
-2.2818492e-12
-0.0004238333
0.00017438941
-1.8584e-12
-0.00044444951
0.00014294903
-1.4565019e-12
-0.00046213269
0.00010772161
-1.0399731e-12
-0.00047642807
6.8975922e-05
-5.5906049e-13
-0.00048685298
2.7111097e-05
-8.0921952e-15
-0.00049290705
-1.7318623e-05
5.890914e-13
-0.00049408901
-6.3580778e-05
1.2364504e-12
-0.00048992182
-0.00011074534
1.9070591e-12
-0.00047998704
-0.00015767238
2.5543194e-12
-0.00046396898
-0.00020301091
3.1383533e-12
-0.00044170785
-0.00024521503
3.6308073e-12
-0.00041325941
-0.00028258394
4.0097944e-12
-0.00037895598
-0.0003133324
4.2547061e-12
-0.00033946047
-0.00033569654
4.3449366e-12
-0.00029580244
-0.00034807591
4.2860721e-12
-0.000249383
-0.00034920543
4.1470249e-12
-0.00020193672
-0.00033834121
4.0394607e-12
-0.00015544307
-0.00031543377
3.8043508e-12
-0.00011198987
-0.00028125404
2.8673489e-12
-7.3603016e-05
-0.0002374388
3.3891233e-12
-4.2068586e-05
-0.00018643265
1.0543136e-11
-1.8780163e-05
-0.00013131651
4.4953246e-12
-4.6390277e-06
-7.5554432e-05
-3.6854026e-11
-2.2851488e-05
3.9025153e-11
-4.5888507e-06
3.9431442e-05
-3.7927403e-11
-1.6547628e-05
0.00010654656
3.8187541e-11
-3.4323029e-05
0.00016233555
-3.5433439e-12
-5.6594149e-05
0.00020759955
-1.0801802e-11
-8.2253275e-05
0.00024333171
-4.7044963e-12
-0.0001103867
0.00027057666
-4.3226385e-12
-0.00014024972
0.00029033426
-5.0564727e-12
-0.00017123872
0.00030349407
-5.0696903e-12
-0.0002028628
0.00031079642
-4.9109944e-12
-0.00023471676
0.00031281674
-4.7392015e-12
-0.00026645639
0.00030996866
-4.4988728e-12
-0.00029777666
0.00030252113
-4.1772292e-12
-0.00032839292
0.00029062481
-3.8229756e-12
-0.00035802489
0.00027434378
-3.4735318e-12
-0.00038638304
0.00025368918
-3.1143208e-12
-0.00041315701
0.00022865263
-2.7257655e-12
-0.00043800591
0.00019923831
-2.3342296e-12
-0.00046055051
0.00016549363
-1.9550299e-12
-0.00048036768
0.00012753878
-1.5492882e-12
-0.00049698778
8.5596017e-05
-1.0720865e-12
-0.000509896
4.0019319e-05
-5.1605621e-13
-0.00051853918
-8.6754428e-06
1.1320767e-13
-0.00052233962
-5.9780343e-05
8.0952654e-13
-0.00052071788
-0.00011236708
1.5550112e-12
-0.00051312665
-0.00016526361
2.2986105e-12
-0.00049909706
-0.0002170405
2.9864694e-12
-0.00047829807
-0.00026601401
3.5771988e-12
-0.00045060764
-0.00031027437
4.0439551e-12
-0.00041619122
-0.00034774882
4.3620419e-12
-0.00037557927
-0.0003763085
4.5014836e-12
-0.00032973063
-0.00039392456
4.4575981e-12
-0.00028006479
-0.00039887127
4.2895592e-12
-0.00022844468
-0.00038996133
4.1267592e-12
-0.00017709536
-0.0003667831
3.8061401e-12
-0.00012845488
-0.00032989452
2.6580932e-12
-8.4970209e-05
-0.00028092348
3.2467541e-12
-4.8869591e-05
-0.00022253328
1.1753346e-11
-2.1956643e-05
-0.00015822946
4.740852e-12
-5.4685899e-06
-9.2042441e-05
-4.3926655e-11
-2.8320124e-05
4.5466851e-11
-4.6394552e-06
4.4070935e-05
-3.8458959e-11
-1.6743507e-05
0.00011865057
3.8555742e-11
-3.4747147e-05
0.0001803392
-3.6806721e-12
-5.731356e-05
0.00023016598
-1.1021479e-11
-8.3317933e-05
0.00026933609
-4.8554864e-12
-0.00011183158
0.00029909031
-4.4713384e-12
-0.00014209971
0.00032060239
-5.2229764e-12
-0.00017351519
0.00033490956
-5.2518077e-12
-0.00020559111
0.00034287235
-5.1218908e-12
-0.00023793373
0.00034515936
-4.9838832e-12
-0.00027021715
0.00034225209
-4.7781161e-12
-0.00030216049
0.00033446447
-4.4889269e-12
-0.00033350765
0.00032197198
-4.1625714e-12
-0.00036400973
0.00030484586
-3.8432193e-12
-0.00039340949
0.00028308895
-3.5159371e-12
-0.00042142782
0.00025667096
-3.1569841e-12
-0.00044775167
0.00022556217
-2.7859331e-12
-0.00047202368
0.00018976564
-2.4108751e-12
-0.0004938336
0.0001493487
-1.9928909e-12
-0.00051271218
0.0001044746
-1.4962648e-12
-0.0005281286
5.5435736e-05
-9.1504347e-13
-0.00053949266
2.6886189e-06
-2.5354047e-13
-0.00054616414
-5.3108863e-05
4.6269546e-13
-0.00054747106
-0.00011106016
1.2349003e-12
-0.00054274032
-0.00016999435
2.0275088e-12
-0.00053134319
-0.00022843762
2.7927949e-12
-0.000512758
-0.00028459921
3.4800138e-12
-0.00048665052
-0.00033638186
4.0451483e-12
-0.00045296953
-0.00038142981
4.4475664e-12
-0.00041205008
-0.00041722796
4.646515e-12
-0.00036471024
-0.0004412644
4.6192621e-12
-0.00031232083
-0.00045126069
4.4083652e-12
-0.00025682206
-0.00044546011
4.171906e-12
-0.00020066274
-0.00042294243
3.7307128e-12
-0.00014664781
-0.00038390945
2.3067421e-12
-9.7701428e-05
-0.00032986987
2.9778506e-12
-5.6580794e-05
-0.00026365393
1.3088984e-11
-2.5600855e-05
-0.00018920941
4.9922544e-12