/*--------------------------------*- C++ -*----------------------------------*\
  =========                 |
  \\      /  F ield         | OpenFOAM: The Open Source CFD Toolbox
   \\    /   O peration     | Website:  https://openfoam.org
    \\  /    A nd           | Version:  7
     \\/     M anipulation  |
\*---------------------------------------------------------------------------*/
FoamFile
{
    version     2.0;
    format      ascii;
    class       surfaceScalarField;
    location    "16";
    object      phi_0;
}
// * * * * * * * * * * * * * * * * * * * * * * * * * * * * * * * * * * * * * //

dimensions      [0 3 -1 0 0 0 0];

internalField   nonuniform List<scalar> 
45600
(
2.7525608e-07
-2.8188091e-07
-7.1505511e-11
4.0316372e-07
-1.2789056e-07
-2.4556349e-11
1.3233616e-07
2.7084652e-07
-6.9659698e-12
-5.6241121e-07
6.9475197e-07
-1.9018056e-12
-1.6391303e-06
1.0767153e-06
2.9914702e-12
-3.0270238e-06
1.3878871e-06
6.5028364e-12
-4.6513501e-06
1.6243152e-06
8.9071875e-12
-6.4433925e-06
1.7920301e-06
1.0765105e-11
-8.3430798e-06
1.8996746e-06
1.2109127e-11
-1.0298431e-05
1.9553389e-06
1.3035552e-11
-1.2263712e-05
1.9652687e-06
1.3611173e-11
-1.4197219e-05
1.9334955e-06
1.3848751e-11
-1.6059226e-05
1.861996e-06
1.3776289e-11
-1.7810405e-05
1.7511657e-06
1.3378222e-11
-1.9410881e-05
1.6004616e-06
1.2616686e-11
-2.0820009e-05
1.4091158e-06
1.1492183e-11
-2.1996877e-05
1.1768563e-06
1.0045567e-11
-2.290147e-05
9.0458264e-07
8.2957e-12
-2.3496428e-05
5.9494988e-07
6.2587768e-12
-2.3749258e-05
2.5282694e-07
3.9556524e-12
-2.3634844e-05
-1.1441635e-07
1.4158912e-12
-2.3138009e-05
-4.9683388e-07
-1.2703824e-12
-2.2256016e-05
-8.8198875e-07
-4.0082139e-12
-2.1000631e-05
-1.2553769e-06
-6.7158775e-12
-1.9399559e-05
-1.6010599e-06
-9.2678322e-12
-1.7497021e-05
-1.9025263e-06
-1.1502321e-11
-1.5353262e-05
-2.1437491e-06
-1.3328699e-11
-1.3042895e-05
-2.3103568e-06
-1.4680699e-11
-1.0652067e-05
-2.3908148e-06
-1.5415129e-11
-8.2745544e-06
-2.3774987e-06
-1.5368002e-11
-6.0069884e-06
-2.2675536e-06
-1.4487247e-11
-3.9435167e-06
-2.0634624e-06
-1.2852761e-11
-2.1701894e-06
-1.7733205e-06
-1.0567008e-11
-7.592043e-07
-1.4109807e-06
-7.677661e-12
2.3744523e-07
-9.9664783e-07
-4.3779965e-12
7.9582854e-07
-5.5838315e-07
-1.3330537e-12
9.2872455e-07
-1.3289681e-07
1.9804283e-12
7.0526315e-07
2.2345742e-07
5.8035854e-12
2.9036581e-07
4.1488661e-07
9.7320262e-12
2.9035735e-07
3.1018134e-12
1.3285418e-07
-4.1472e-07
-2.2287893e-11
-3.0172293e-07
3.0671457e-07
-1.4957247e-11
-1.6151815e-06
1.5843166e-06
-1.3037183e-11
-3.8738677e-06
2.9534511e-06
-1.3704316e-11
-7.0055305e-06
4.2083896e-06
-1.4937667e-11
-1.0876662e-05
5.2590293e-06
-1.6381286e-11
-1.5330557e-05
6.0782171e-06
-1.7737081e-11
-2.0209695e-05
6.6711779e-06
-1.8590002e-11
-2.5365935e-05
7.0559255e-06
-1.8993976e-11
-3.0663266e-05
7.2526822e-06
-1.8978009e-11
-3.5976642e-05
7.2786551e-06
-1.8555168e-11
-4.1189076e-05
7.1459395e-06
-1.7770207e-11
-4.6188451e-05
6.8613823e-06
-1.6613439e-11
-5.0864945e-05
6.4276728e-06
-1.5090788e-11
-5.5109623e-05
5.8451551e-06
-1.3241151e-11
-5.8814485e-05
5.1139919e-06
-1.1100065e-11
-6.1874018e-05
4.2364017e-06
-8.662337e-12
-6.4188189e-05
3.2187628e-06
-5.9291491e-12
-6.5666653e-05
2.0734192e-06
-2.9044793e-12
-6.623385e-05
8.2002605e-07
3.7800967e-13
-6.5834838e-05
-5.1343077e-07
3.8107933e-12
-6.444052e-05
-1.8911586e-06
7.3423095e-12
-6.2053411e-05
-3.2691092e-06
1.0841039e-11
-5.8711576e-05
-4.5972285e-06
1.41722e-11
-5.4491396e-05
-5.8212581e-06
1.7205467e-11
-4.9508271e-05
-6.8856672e-06
1.98598e-11
-4.3914945e-05
-7.7370893e-06
2.2004501e-11
-3.789723e-05
-8.3280867e-06
2.3436757e-11
-3.1667114e-05
-8.6209493e-06
2.4013398e-11
-2.5453432e-05
-8.5912018e-06
2.3735799e-11
-1.9490491e-05
-8.2305147e-06
2.2685094e-11
-1.4005163e-05
-7.5488077e-06
2.0923062e-11
-9.202955e-06
-6.5755404e-06
1.8497104e-11
-5.2534172e-06
-5.3605268e-06
1.5525157e-11
-2.2749676e-06
-3.975105e-06
1.2219784e-11
-3.1838246e-07
-2.5149784e-06
8.7353967e-12
6.5610653e-07
-1.1073969e-06
4.9432147e-12
8.0306979e-07
7.6485717e-08
3.4316437e-12
4.1762039e-07
8.0032854e-07
4.5940748e-12
7.0797817e-07
-2.455218e-12
-2.7353734e-07
-1.4115849e-07
-1.2826365e-11
-1.6270886e-06
1.6602735e-06
-7.9776566e-12
-4.2882166e-06
4.2454531e-06
-9.3145299e-12
-8.2721927e-06
6.9374371e-06
-7.7812761e-12
-1.3470158e-05
9.4063585e-06
-5.7717942e-12
-1.9702266e-05
1.1491142e-05
-4.4984242e-12
-2.6756768e-05
1.313272e-05
-3.6624982e-12
-3.4414861e-05
1.4329274e-05
-2.9113199e-12
-4.2463947e-05
1.5105014e-05
-2.2573079e-12
-5.0702769e-05
1.5491505e-05
-1.6793278e-12
-5.8941626e-05
1.5517514e-05
-1.1549646e-12
-6.700012e-05
1.5204436e-05
-7.0206621e-13
-7.4704223e-05
1.4565486e-05
-2.7257932e-13
-8.188391e-05
1.3607357e-05
1.5999561e-13
-8.8372146e-05
1.2333388e-05
5.7991144e-13
-9.4005658e-05
1.0747503e-05
9.6809901e-13
-9.8627603e-05
8.858347e-06
1.3225125e-12
-0.00010209203
6.6831842e-06
1.6340403e-12
-0.00010426982
4.2512128e-06
1.9065419e-12
-0.00010505583
1.6060354e-06
2.158631e-12
-0.00010437629
-1.1929814e-06
2.3819923e-12
-0.00010219648
-4.0709622e-06
2.57383e-12
-9.8527469e-05
-6.9381296e-06
2.7199729e-12
-9.3431355e-05
-9.6933465e-06
2.774484e-12
-8.7024553e-05
-1.2228065e-05
2.7413931e-12
-7.9478278e-05
-1.4431951e-05
2.7185141e-12
-7.1015882e-05
-1.6199495e-05
2.7668376e-12
-6.1906721e-05
-1.7437256e-05
2.8332861e-12
-5.2456487e-05
-1.8071188e-05
2.8377594e-12
-4.2994185e-05
-1.8053504e-05
2.7800216e-12
-3.3856206e-05
-1.7368496e-05
2.7336137e-12
-2.5368098e-05
-1.6036922e-05
2.7667343e-12
-1.7824768e-05
-1.4118878e-05
2.9007576e-12
-1.1469782e-05
-1.1715521e-05
3.128092e-12
-6.4742014e-06
-8.9706912e-06
3.4086647e-12
-2.914848e-06
-6.0743361e-06
3.6014005e-12
-7.5207818e-07
-3.2701713e-06
3.5065041e-12
1.9374784e-07
-8.6934463e-07
4.0673998e-12
2.6524352e-07
7.2882512e-07
5.8673268e-12
9.7322264e-07
1.1672972e-12
-7.4562505e-07
6.0448076e-07
-1.3168859e-11
-3.1786165e-06
4.0932668e-06
-1.9605002e-12
-7.3436456e-06
8.4104868e-06
-7.548474e-12
-1.3158516e-05
1.2752313e-05
-6.7827245e-12
-2.0448618e-05
1.6696456e-05
-4.1098616e-12
-2.8982279e-05
2.00248e-05
-2.5702145e-12
-3.849998e-05
2.2650417e-05
-1.5364108e-12
-4.8734964e-05
2.4564254e-05
-5.8278931e-13
-5.9425294e-05
2.5795341e-05
2.2080379e-13
-7.0319118e-05
2.6385326e-05
8.8481241e-13
-8.1175435e-05
2.6373829e-05
1.4591123e-12
-9.1762462e-05
2.5791462e-05
1.9227802e-12
-0.00010185531
2.4658339e-05
2.291457e-12
-0.0001112343
2.2986341e-05
2.5642992e-12
-0.00011968465
2.0783738e-05
2.7385979e-12
-0.0001269982
1.8061047e-05
2.8317643e-12
-0.00013297706
1.4837207e-05
2.8558282e-12
-0.00013743929
1.1145409e-05
2.78626e-12
-0.00014022606
7.037983e-06
2.6197877e-12
-0.00014121
2.5899774e-06
2.3843139e-12
-0.00014030387
-2.0991208e-06
2.0955323e-12
-0.00013746934
-6.9054928e-06
1.7608086e-12
-0.00013272451
-1.168296e-05
1.4260256e-12
-0.00012614992
-1.6267931e-05
1.0529245e-12
-0.00011789214
-2.048585e-05
6.0508482e-13
-0.00010816418
-2.41599e-05
1.5893729e-13
-9.7242425e-05
-2.7121253e-05
-1.7918296e-13
-8.5459352e-05
-2.9220329e-05
-3.793846e-13
-7.3192231e-05
-3.0338307e-05
-4.6845343e-13
-6.0847694e-05
-3.0398038e-05
-4.5304496e-13
-4.8842689e-05
-2.9373499e-05
-3.0263278e-13
-3.7582492e-05
-2.7297119e-05
1.4420027e-14
-2.7436702e-05
-2.4264672e-05
5.1142636e-13
-1.8714259e-05
-2.0437968e-05
1.1888282e-12
-1.1638566e-05
-1.6046388e-05
1.9957225e-12
-6.323609e-06
-1.1389296e-05
2.8286303e-12
-2.7519642e-06
-6.8418195e-06
3.6401035e-12
-7.5754744e-07
-2.8637699e-06
4.3761898e-12
-9.7199398e-09
-1.9009512e-08
4.913925e-12
9.6350109e-07
4.1135734e-12
-1.2275376e-06
1.832033e-06
-1.4869664e-11
-4.7863676e-06
7.6520966e-06
4.0793624e-12
-1.0517645e-05
1.4141768e-05
-6.5827627e-12
-1.8207505e-05
2.044218e-05
-7.5015976e-12
-2.7593517e-05
2.6082468e-05
-5.0668467e-12
-3.838174e-05
3.0813025e-05
-4.1574664e-12
-5.0263955e-05
3.4532633e-05
-3.6965473e-12
-6.2930865e-05
3.7231168e-05
-3.0986259e-12
-7.6080161e-05
3.8944639e-05
-2.5139365e-12
-8.9419927e-05
3.9725091e-05
-1.9854306e-12
-0.00010266876
3.9622664e-05
-1.4769653e-12
-0.00011555418
3.8676884e-05
-9.9817557e-13
-0.0001278107
3.6914856e-05
-5.1681753e-13
-0.00013917871
3.4354348e-05
-5.3415916e-14
-0.00014940496
3.1009993e-05
3.5349709e-13
-0.00015824504
2.6901125e-05
7.1749179e-13
-0.00016546788
2.2060051e-05
1.0807608e-12
-0.00017086227
1.653979e-05
1.432412e-12
-0.00017424483
1.0420542e-05
1.7505324e-12
-0.00017546916
3.8143142e-06
2.0242073e-12
-0.00017443538
-3.1329129e-06
2.2383967e-12
-0.0001710994
-1.024147e-05
2.4192645e-12
-0.00016548137
-1.7301001e-05
2.6150075e-12
-0.00015767221
-2.4077093e-05
2.7850233e-12
-0.00014783783
-3.0320234e-05
2.8630086e-12
-0.00013622001
-3.5777721e-05
2.8763782e-12
-0.00012313347
-4.0207803e-05
2.8939623e-12
-0.00010895846
-4.339534e-05
2.9264903e-12
-9.4128758e-05
-4.5168016e-05
2.9406268e-12
-7.9114834e-05
-4.5411967e-05
2.9350138e-12
-6.4402717e-05
-4.4085618e-05
2.9469454e-12
-5.0469204e-05
-4.1230633e-05
3.0039641e-12
-3.7754555e-05
-3.6979321e-05
3.1022745e-12
-2.6634137e-05
-3.1558389e-05
3.2204957e-12
-1.7390667e-05
-2.5289865e-05
3.341957e-12
-1.0188888e-05
-1.8591082e-05
3.6168192e-12
-5.0545485e-06
-1.1976166e-05
4.3369624e-12
-1.8599905e-06
-6.0583362e-06
4.0281221e-12
-3.2233628e-07
-1.5566668e-06
9.342718e-13
6.4116039e-07
6.3258216e-12
-1.6925151e-06
3.5245628e-06
-1.7466546e-11
-6.3689095e-06
1.232848e-05
9.5141258e-12
-1.3666059e-05
2.1438915e-05
-5.580801e-12
-2.3224871e-05
3.0000996e-05
-7.5186871e-12
-3.4681529e-05
3.7539125e-05
-4.7463089e-12
-4.767101e-05
4.3802507e-05
-4.003136e-12
-6.1833207e-05
4.869483e-05
-3.7772584e-12
-7.6817992e-05
5.2215956e-05
-3.3017404e-12
-9.2287935e-05
5.4414584e-05
-2.785908e-12
-0.00010791852
5.5355675e-05
-2.2981825e-12
-0.00012339657
5.5100718e-05
-1.8105892e-12
-0.00013841795
5.3698275e-05
-1.3505734e-12
-0.00015268558
5.1182483e-05
-8.8588413e-13
-0.00016590854
4.7577307e-05
-4.1944274e-13
-0.00017780304
4.2904499e-05
1.6589355e-14
-0.00018809542
3.71935e-05
4.1288658e-13
-0.00019652716
3.0491793e-05
8.0230483e-13
-0.00020286191
2.2874542e-05
1.1952757e-12
-0.00020689397
1.4452598e-05
1.593676e-12
-0.00020845785
5.3781855e-06
1.9694897e-12
-0.00020743835
-4.1524154e-06
2.2672128e-12
-0.0002037805
-1.3899315e-05
2.5129798e-12
-0.00019749875
-2.3582757e-05
2.7717335e-12
-0.00018868448
-3.2891371e-05
3.021545e-12
-0.00017751128
-4.1493433e-05
3.1786361e-12
-0.00016423705
-4.9051953e-05
3.2407959e-12
-0.00014920207
-5.5242788e-05
3.2828136e-12
-0.00013282242
-5.9774992e-05
3.3383515e-12
-0.00011557817
-6.2412269e-05
3.3708754e-12
-9.7996074e-05
-6.2994069e-05
3.3603753e-12
-8.062702e-05
-6.1454677e-05
3.3478735e-12
-6.4018958e-05
-5.78387e-05
3.3860791e-12
-4.8686587e-05
-5.2311695e-05
3.4786893e-12
-3.507968e-05
-4.5165301e-05
3.5422993e-12
-2.3552312e-05
-3.6817238e-05
3.4796604e-12
-1.4335582e-05
-2.7807819e-05
3.6297446e-12
-7.5165441e-06
-1.8795211e-05
4.7092235e-12
-3.0265009e-06
-1.0548387e-05
3.9578196e-12
-6.4250004e-07
-3.9406646e-06
-1.6026631e-12
-1.3499116e-09
8.7723665e-12
-2.132063e-06
5.6566427e-06
-2.0153687e-11
-7.8878286e-06
1.8084231e-05
1.4465779e-11
-1.6710544e-05
3.0261628e-05
-4.6956985e-12
-2.8094248e-05
4.1384707e-05
-7.4303002e-12
-4.1568177e-05
5.1013055e-05
-4.1893177e-12
-5.6691218e-05
5.8925551e-05
-3.5037514e-12
-7.3048963e-05
6.5052578e-05
-3.4266543e-12
-9.0251156e-05
6.9418152e-05
-3.0304449e-12
-0.00010792872
7.2092153e-05
-2.5599142e-12
-0.0001257301
7.3157056e-05
-2.1033041e-12
-0.00014331725
7.2687874e-05
-1.6355141e-12
-0.00016036199
7.0743021e-05
-1.1938502e-12
-0.00017654335
6.7363843e-05
-7.5845389e-13
-0.00019154653
6.2580486e-05
-3.2882638e-13
-0.00020506388
5.6421855e-05
8.5147201e-14
-0.00021679804
4.8927657e-05
4.6856985e-13
-0.00022646711
4.0160859e-05
8.327065e-13
-0.00023381178
3.021921e-05
1.1832384e-12
-0.00023860399
1.9244806e-05
1.5402675e-12
-0.00024065673
7.4309161e-06
1.8952254e-12
-0.00023983452
-4.9746322e-06
2.1887338e-12
-0.000236064
-1.7669835e-05
2.4258555e-12
-0.0002293442
-3.0302562e-05
2.6621979e-12
-0.00021975547
-4.2480105e-05
2.9036771e-12
-0.00020746654
-5.3782372e-05
3.0731879e-12
-0.0001927386
-6.3779894e-05
3.1305832e-12
-0.00017592551
-7.2055876e-05
3.1318047e-12
-0.00015746902
-7.8231488e-05
3.1441199e-12
-0.00013788815
-8.1993139e-05
3.1659595e-12
-0.00011776228
-8.3119943e-05
3.1667224e-12
-9.7707741e-05
-8.1509222e-05
3.1583945e-12
-7.8348672e-05
-7.7197775e-05
3.1973289e-12
-6.0283545e-05
-7.0376827e-05
3.3260399e-12
-4.4049593e-05
-6.1399256e-05
3.4581641e-12
-3.0088065e-05
-5.0778767e-05
3.3983969e-12
-1.8713613e-05
-3.9182273e-05
3.5705686e-12
-1.0091288e-05
-2.7417543e-05
5.0863721e-12
-4.2246875e-06
-1.6414994e-05
3.9240101e-12
-9.5838518e-07
-7.2069612e-06
-4.398975e-12
-9.5974821e-07
1.0726655e-11
-2.5439739e-06
8.2006335e-06
-2.2824879e-11
-9.3248986e-06
2.4865139e-05
1.889268e-11
-1.9607129e-05
4.0543856e-05
-4.0915692e-12
-3.2743209e-05
5.4520795e-05
-7.5775888e-12
-4.8156007e-05
6.6425855e-05
-3.8842088e-12
-6.5327382e-05
7.6096931e-05
-3.2723447e-12
-8.3788234e-05
8.3513433e-05
-3.3290629e-12
-0.00010310935
8.8739268e-05
-3.0010729e-12
-0.00012289298
9.1875787e-05
-2.5839297e-12
-0.00014276511
9.3029193e-05
-2.1777217e-12
-0.00016236862
9.2291386e-05
-1.7516035e-12
-0.00018135774
8.9732141e-05
-1.3415957e-12
-0.00019939429
8.5400395e-05
-9.364483e-13
-0.00021614598
7.9332183e-05
-5.3659381e-13
-0.00023128696
7.1562842e-05
-1.2827022e-13
-0.00024450063
6.2141323e-05
2.7721324e-13
-0.00025548454
5.1144772e-05
6.6916439e-13
-0.00026395731
3.8691978e-05
1.0452455e-12
-0.00026966708
2.4954571e-05
1.4262916e-12
-0.00027240135
1.0165186e-05
1.8062937e-12
-0.00027199786
-5.3781282e-06
2.1366178e-12
-0.00026835586
-2.1311843e-05
2.4232635e-12
-0.00026144781
-3.7210619e-05
2.6983951e-12
-0.00025133026
-5.2597662e-05
2.9757328e-12
-0.00023815342
-6.6959206e-05
3.1976184e-12
-0.00022216831
-7.9765012e-05
3.3044898e-12
-0.00020373003
-9.0494155e-05
3.3132445e-12
-0.00018329608
-9.8665448e-05
3.2929915e-12
-0.00016141807
-0.00010387115
3.2862648e-12
-0.00013872609
-0.00010581193
3.2873459e-12
-0.00011590509
-0.00010433023
3.2831292e-12
-9.3663781e-05
-9.9439086e-05
3.2945554e-12
-7.2697561e-05
-9.1343054e-05
3.3756941e-12
-5.3648016e-05
-8.0448807e-05
3.484922e-12
-3.7062642e-05
-6.7364143e-05
3.4017258e-12
-2.3358878e-05
-5.2886038e-05
3.6217479e-12
-1.2796702e-05
-3.7979725e-05
5.5604967e-12
-5.4638488e-06
-2.3747852e-05
3.8909185e-12
-1.2770442e-06
-1.1393757e-05
-7.3283502e-12
-2.2368083e-06
1.312001e-11
-2.9272167e-06
1.1127871e-05
-2.540372e-11
-1.0669101e-05
3.2607006e-05
2.2878297e-11
-2.2326723e-05
5.2201476e-05
-3.6481914e-12
-3.7120437e-05
6.9314517e-05
-7.8308982e-12
-5.4371618e-05
8.367704e-05
-3.6853531e-12
-7.3487598e-05
9.5212914e-05
-3.1399817e-12
-9.3946395e-05
0.00010397223
-3.3284121e-12
-0.00011528205
0.00011007493
-3.0550466e-12
-0.00013707133
0.00011366507
-2.6753067e-12
-0.00015892198
0.00011487985
-2.3157713e-12
-0.00018046291
0.00011383232
-1.9394019e-12
-0.00020133649
0.00011060572
-1.5661026e-12
-0.00022119325
0.00010525716
-1.1912168e-12
-0.00023968905
9.7827989e-05
-8.2468072e-13
-0.00025648478
8.8358574e-05
-4.3758953e-13
-0.00027124837
7.690491e-05
-2.246277e-14
-0.00028365903
6.3555432e-05
3.9647317e-13
-0.00029341349
4.8446435e-05
8.0855529e-13
-0.00030023399
3.1775073e-05
1.2343897e-12
-0.00030387796
1.3809144e-05
1.6590066e-12
-0.00030414909
-5.1070027e-06
2.0352253e-12
-0.00030090946
-2.4551478e-05
2.386104e-12
-0.00029409297
-4.4027113e-05
2.7182918e-12
-0.00028371859
-6.2972044e-05
3.0448445e-12
-0.00026990326
-8.0774539e-05
3.3316192e-12
-0.00025287296
-9.6795311e-05
3.5195375e-12
-0.00023297046
-0.00011039666
3.5808863e-12
-0.00021065788
-0.00012097803
3.5467139e-12
-0.0001865122
-0.00012801684
3.4819946e-12
-0.00016121205
-0.00013111208
3.4365203e-12
-0.00013551473
-0.00013002755
3.4213082e-12
-0.00011022341
-0.00012473041
3.428927e-12
-8.6145935e-05
-0.00011542054
3.4772416e-12
-6.4048169e-05
-0.00010254658
3.5279976e-12
-4.4606114e-05
-8.6806204e-05
3.3682424e-12
-2.8362017e-05
-6.9130139e-05
3.6429422e-12
-1.5689674e-05
-5.0652073e-05
6.0751541e-12
-6.7737806e-06
-3.2663746e-05
3.9294793e-12
-1.6067128e-06
-1.6560816e-05
-1.0311479e-11
-3.8435378e-06
1.566243e-11
-3.2802797e-06
1.4408173e-05
-2.7858802e-11
-1.1910779e-05
4.1237487e-05
2.6459437e-11
-2.4845048e-05
6.5135742e-05
-3.3140832e-12
-4.118281e-05
8.5652288e-05
-8.1404442e-12
-6.0151668e-05
0.0001026459
-3.5574725e-12
-8.1089503e-05
0.00011615075
-3.0420108e-12
-0.00010342515
0.00012630788
-3.3451202e-12
-0.00012665924
0.00013330903
-3.1275893e-12
-0.00015034664
0.00013735247
-2.7860113e-12
-0.00017408105
0.00013861427
-2.4716714e-12
-0.00019748223
0.0001372335
-2.1506236e-12
-0.00022018593
0.00013330943
-1.8183782e-12
-0.00024183681
0.00012690803
-1.4691307e-12
-0.00026208409
0.00011807528
-1.1221461e-12
-0.00028057999
0.00010685448
-7.56345e-13
-0.00029698053
9.3305443e-05
-3.536381e-13
-0.00031094863
7.7523531e-05
6.6530777e-14
-0.00032215934
5.965715e-05
5.0175269e-13
-0.00033030703
3.9922761e-05
9.7551155e-13
-0.00033511454
1.8616644e-05
1.4496266e-12
-0.00033634451
-3.8770294e-06
1.8634985e-12
-0.00033381199
-2.7084005e-05
2.2984644e-12
-0.0003274001
-5.0439003e-05
2.6990029e-12
-0.00031707584
-7.3296309e-05
3.0651238e-12
-0.00030290695
-9.4943431e-05
3.3848418e-12
-0.00028507794
-0.00011462433
3.6364668e-12
-0.0002639034
-0.0001315712
3.7863678e-12
-0.00023983645
-0.00014504498
3.8087057e-12
-0.00021346962
-0.00015438367
3.7289816e-12
-0.00018552568
-0.00015905602
3.6170461e-12
-0.00015683653
-0.0001587167
3.537128e-12
-0.00012830937
-0.00015325759
3.5119469e-12
-0.00010088109
-0.00014284882
3.5459933e-12
-7.5464086e-05
-0.00012796359
3.558207e-12
-5.2888475e-05
-0.00010938182
3.2995474e-12
-3.3847149e-05
-8.8171471e-05
3.6095876e-12
-1.8850433e-05
-6.5648795e-05
6.5948075e-12
-8.1964112e-06
-4.331777e-05
3.9880182e-12
-1.9607331e-06
-2.2796482e-05
-1.349413e-11
-5.8042887e-06
1.8375046e-11
-3.6007636e-06
1.8008962e-05
-3.0178715e-11
-1.3039387e-05
5.0676088e-05
2.9602745e-11
-2.7138063e-05
7.9234416e-05
-3.0923311e-12
-4.4888884e-05
0.00010340312
-8.4964367e-12
-6.5435265e-05
0.00012319229
-3.510691e-12
-8.8052484e-05
0.00013876798
-2.9978146e-12
-0.00011212528
0.00015038068
-3.3872852e-12
-0.00013712509
0.00015830884
-3.2244872e-12
-0.00016258891
0.0001628163
-2.9326634e-12
-0.00018810066
0.00016412603
-2.6745829e-12
-0.00021327557
0.00016240842
-2.4227523e-12
-0.00023774779
0.00015778165
-2.1488141e-12
-0.00026116125
0.0001503215
-1.8388157e-12
-0.0002831636
0.00014007763
-1.5058574e-12
-0.00030340295
0.00012709383
-1.1386692e-12
-0.00032152713
0.00011142963
-7.3412387e-13
-0.0003371853
9.3181695e-05
-3.2106106e-13
-0.00035003168
7.250353e-05
1.1693911e-13
-0.00035973161
4.9622686e-05
6.2984578e-13
-0.00036596983
2.4854866e-05
1.162368e-12
-0.00036846202
-1.3848461e-06
1.6092981e-12
-0.00036696707
-2.8578956e-05
2.1549831e-12
-0.00036130577
-5.6100309e-05
2.6418111e-12
-0.0003513786
-8.322348e-05
3.0683525e-12
-0.00033718736
-0.00010913468
3.4117303e-12
-0.00031885677
-0.00013295492
3.6813547e-12
-0.00029665465
-0.00015377331
3.8899171e-12
-0.00027100782
-0.00017069181
4.0057939e-12
-0.00024251028
-0.00018288121
3.9967229e-12
-0.0002119203
-0.000189646
3.882209e-12
-0.00018014306
-0.00019049394
3.7316647e-12
-0.00014819706
-0.00018520359
3.6203236e-12
-0.00011716438
-0.00017388151
3.6023379e-12
-8.8127805e-05
-0.00015700016
3.5720228e-12
-6.2100623e-05
-0.00013540901
3.2083352e-12
-3.9957081e-05
-0.00011031502
3.5461451e-12
-2.2372388e-05
-8.3233495e-05
7.1478244e-12
-9.7804259e-06
-5.5909736e-05
4.0356269e-12
-2.354156e-06
-3.0222736e-05
-1.700305e-11
-8.1584652e-06
2.1401333e-11
-3.8854333e-06
2.1894425e-05
-3.2293102e-11
-1.4042924e-05
6.0833552e-05
3.2309838e-11
-2.9180347e-05
9.4371838e-05
-2.9641973e-12
-4.819625e-05
0.00012241903
-8.872139e-12
-7.0160628e-05
0.00014515667
-3.5321691e-12
-9.4294115e-05
0.00016290147
-3.0247537e-12
-0.0001199433
0.00017602987
-3.4914968e-12
-0.00014655521
0.00018492075
-3.3897308e-12
-0.00017365327
0.00018991436
-3.1517754e-12
-0.00020081589
0.00019128865
-2.9441902e-12
-0.00022765829
0.00018925083
-2.7485109e-12
-0.00025381786
0.00018394122
-2.5294877e-12
-0.00027894285
0.0001754465
-2.2695252e-12
-0.00030268444
0.00016381922
-1.966928e-12
-0.00032469147
0.00014910086
-1.5966752e-12
-0.0003446079
0.00013134606
-1.167211e-12
-0.00036207248
0.00011064627
-7.405723e-13
-0.00037672073
8.7151783e-05
-3.0731416e-13
-0.00038818941
6.1091364e-05
2.1839382e-13
-0.00039612368
3.2789134e-05
8.2928837e-13
-0.0004001872
2.6786703e-06
1.4584609e-12
-0.0004000771
-2.8689067e-05
1.9674106e-12
-0.00039554062
-6.0636783e-05
2.5091557e-12
-0.00038639821
-9.2365898e-05
3.0313966e-12
-0.00037256865
-0.00012296424
3.4484173e-12
-0.00035409701
-0.00015142657
3.7420433e-12
-0.00033118263
-0.0001766877
3.9559843e-12
-0.00030420415
-0.0001976703
4.1086323e-12
-0.00027373734
-0.00021334801
4.172061e-12
-0.0002405611
-0.00022282225
4.1165587e-12
-0.00020564664
-0.0002254084
3.9600478e-12
-0.00017012646
-0.00022072377
3.782751e-12
-0.0001352416
-0.00020876637
3.6921657e-12
-0.00010226955
-0.00018997222
3.5915949e-12
-7.2439151e-05
-0.00016523941
3.1033428e-12
-4.6842468e-05
-0.00013591171
3.4663027e-12
-2.6355279e-05
-0.00010372069
7.7711487e-12
-1.1577766e-05
-7.0687255e-05
4.0786423e-12
-2.8026625e-06
-3.8997819e-05
-2.0961812e-11
-1.0961153e-05
2.4865658e-11
-4.1304687e-06
2.6024925e-05
-3.416064e-11
-1.4908269e-05
7.1611322e-05
3.4562954e-11
-3.0945256e-05
0.00011040883
-2.9301947e-12
-5.1061402e-05
0.00014253519
-9.2657164e-12
-7.4264766e-05
0.00016836004
-3.6184064e-12
-9.9729858e-05
0.00018836656
-3.1237839e-12
-0.00012677146
0.00020307148
-3.6597288e-12
-0.00015481716
0.00021296646
-3.6211837e-12
-0.00018338112
0.00021847833
-3.4449534e-12
-0.00021204044
0.00021994797
-3.2892017e-12
-0.00024041469
0.00021762509
-3.1333539e-12
-0.00026814917
0.00021167571
-2.950089e-12
-0.00029490153
0.00020219886
-2.7335285e-12
-0.00032033167
0.00018924936
-2.4810298e-12
-0.00034409453
0.00017286373
-2.1387162e-12
-0.00036583531
0.00015308684
-1.6966088e-12
-0.00038518701
0.00012999797
-1.2388428e-12
-0.00040177032
0.0001037351
-7.8990616e-13
-0.00041519604
7.4517088e-05
-2.5397461e-13
-0.00042507061
4.2663695e-05
4.0085142e-13
-0.00043100495
8.6130138e-06
1.1105809e-12
-0.00043262926
-2.7064761e-05
1.6751335e-12
-0.00042961014
-6.3655902e-05
2.2707637e-12
-0.00042167598
-0.00010030006
2.8796307e-12
-0.0004086462
-0.00013599402
3.4116289e-12
-0.0003904654
-0.00016960738
3.7970175e-12
-0.00036723985
-0.00019991324
4.0443842e-12
-0.00033927324
-0.00022563692
4.1972548e-12
-0.00030709656
-0.00024552469
4.2747849e-12
-0.00027148632
-0.00025843249
4.2567438e-12
-0.00023346415
-0.00026343057
4.1227606e-12
-0.00019427191
-0.00025991601
3.9274831e-12
-0.00015531849
-0.00024771978
3.7910837e-12
-0.00011809908
-0.00022719164
3.6166762e-12
-8.4093147e-05
-0.00019924535
2.9864859e-12
-5.4653297e-05
-0.00016535156
3.3773788e-12
-3.0900415e-05
-0.00012747358
8.4875055e-12
-1.3641613e-05
-8.7946063e-05
4.1262675e-12
-3.3222265e-06
-4.931718e-05
-2.5521188e-11
-1.428341e-05
2.88739e-11
-4.3318243e-06
3.0356783e-05
-3.5741168e-11
-1.5622041e-05
8.2901505e-05
3.634503e-11
-3.2406198e-05
0.00012719298
-2.9777203e-12
-5.3441334e-05
0.00016357033
-9.6718762e-12
-7.7685376e-05
0.00019260408
-3.7701803e-12
-0.00010427533
0.00021495652
-3.3000131e-12
-0.00013250049
0.00023129663
-3.8933583e-12
-0.00016177382
0.00024223979
-3.9024516e-12
-0.00019160436
0.00024830887
-3.7831121e-12
-0.00022157176
0.00024991537
-3.68179e-12
-0.00025130409
0.00024735743
-3.5606509e-12
-0.00028045906
0.00024083068
-3.3965872e-12
-0.00030870869
0.00023044849
-3.1987208e-12
-0.00033572714
0.00021626782
-2.9847457e-12
-0.00036118128
0.00019831787
-2.6897527e-12
-0.00038472369
0.00017662925
-2.2700657e-12
-0.0004059878
0.00015126209
-1.7981826e-12
-0.00042458541
0.00012233271
-1.3271141e-12
-0.00044010672
9.0038393e-05
-7.8034461e-13
-0.00045212359
5.4680568e-05
-1.0987703e-13
-0.00046019686
1.6686284e-05
6.2624622e-13
-0.00046388908
-2.337254e-05
1.2963906e-12
-0.00046278247
-6.476252e-05
1.948408e-12
-0.00045650465
-0.00010657788
2.6076408e-12
-0.00044476139
-0.00014773728
3.2380484e-12
-0.00042737629
-0.00018699248
3.7593647e-12
-0.00040433605
-0.00022295348
4.119018e-12
-0.0003758379
-0.00025413507
4.3201126e-12
-0.00034233408
-0.00027902852
4.3976643e-12
-0.000304566
-0.00029620058
4.3697605e-12
-0.00026357915
-0.00030441743
4.2250584e-12
-0.0002207096
-0.00030278556
4.011452e-12
-0.00017753486
-0.00029089453
3.8442445e-12
-0.00013578673
-0.00026893977
3.606357e-12
-9.7231535e-05
-0.00023780054
2.8281472e-12
-6.3531394e-05
-0.00019905171
3.2723518e-12
-3.6106964e-05
-0.00015489803
9.3202799e-12
-1.6025076e-05
-0.00010802796
4.1914136e-12
-3.9289572e-06
-6.1413268e-05
-3.0833604e-11
-1.8212404e-05
3.3515303e-11
-4.4856633e-06
3.4842481e-05
-3.6995966e-11
-1.6171817e-05
9.4587623e-05
3.763771e-11
-3.3538687e-05
0.00014455985
-3.0974719e-12
-5.5296391e-05
0.00018532805
-1.0089007e-11
-8.0364443e-05
0.00021767214
-4.0019719e-12
-0.00010785067
0.00024244276
-3.5661455e-12
-0.00013702477
0.00026047073
-4.2098114e-12
-0.00016728953
0.00027250456
-4.242359e-12
-0.00019815249
0.00027917183
-4.1560598e-12
-0.0002291994
0.00028096229
-4.0979361e-12
-0.00026007053
0.00027822857
-4.0091129e-12
-0.00029044028
0.00027120043
-3.862461e-12
-0.00031999993
0.00026000816
-3.668725e-12
-0.00034844357
0.00024471146
-3.4639541e-12
-0.00037545644
0.00022533074
-3.1977214e-12
-0.00040070562
0.00020187843
-2.8113184e-12
-0.00042383277
0.00017438924
-2.351321e-12
-0.00044444898
0.00014294892
-1.8743785e-12
-0.00046213215
0.00010772157
-1.3323351e-12
-0.00047642753
6.8975949e-05
-6.7258542e-13
-0.00048685244
2.7111193e-05
7.9785524e-14
-0.00049290652
-1.731846e-05
8.3520594e-13
-0.00049408849
-6.358055e-05
1.5595734e-12
-0.00048992131
-0.00011074506
2.2659671e-12
-0.00047998656
-0.00015767204
2.9603521e-12
-0.00046396852
-0.00020301052
3.598728e-12
-0.00044170741
-0.0002452146
4.1071794e-12
-0.000413259
-0.00028258348
4.4276866e-12
-0.0003789556
-0.00031333192
4.5554839e-12
-0.00033946014
-0.00033569605
4.5180878e-12
-0.00029580215
-0.00034807543
4.3334507e-12
-0.00024938275
-0.00034920495
4.0715991e-12
-0.00020193651
-0.00033834077
3.8561795e-12
-0.00015544291
-0.00031543338
3.5455809e-12
-0.00011198975
-0.00028125369
2.5965951e-12
-7.3602937e-05
-0.00023743852
3.1282701e-12
-4.206854e-05
-0.00018643243
1.030005e-11
-1.8780141e-05
-0.00013131636
4.2964008e-12
-4.6390215e-06
-7.5554351e-05
-3.7013544e-11
-2.2851467e-05
3.8904832e-11
-4.5888435e-06
3.9431361e-05
-3.7899763e-11
-1.6547601e-05
0.00010654634
3.8439599e-11
-3.4322974e-05
0.00016233523
-3.2639773e-12
-5.659406e-05
0.00020759914
-1.0481538e-11
-8.2253148e-05
0.00024333123
-4.2859133e-12
-0.00011038653
0.00027057614
-3.8945316e-12
-0.00014024951
0.00029033372
-4.5920512e-12
-0.00017123847
0.00030349353
-4.641939e-12
-0.00020286251
0.00031079588
-4.5641187e-12
-0.00023471644
0.00031281622
-4.5280333e-12
-0.00026645603
0.00030996817
-4.4622866e-12
-0.00029777627
0.00030252067
-4.3369017e-12
-0.0003283925
0.0002906244
-4.1549666e-12
-0.00035802445
0.00027434342
-3.9506093e-12
-0.00038638258
0.00025368888
-3.6870403e-12
-0.00041315654
0.00022865239
-3.3110741e-12
-0.00043800543
0.00019923813
-2.8568568e-12
-0.00046055002
0.00016549352
-2.3753971e-12
-0.00048036719
0.00012753874
-1.8437185e-12
-0.00049698728
8.5596045e-05
-1.2173867e-12
-0.00050989551
4.0019418e-05
-4.879271e-13
-0.00051853869
-8.6752747e-06
3.0649697e-13
-0.00052233913
-5.9780108e-05
1.1030094e-12
-0.0005207174
-0.00011236678
1.8788387e-12
-0.00051312619
-0.00016526325
2.6326367e-12
-0.00049909662
-0.00021704009
3.3520799e-12
-0.00047829766
-0.00026601356
3.9869043e-12
-0.00045060725
-0.00031027388
4.4542668e-12
-0.00041619086
-0.00034774831
4.6921284e-12
-0.00037557894
-0.00037630797
4.6902256e-12
-0.00032973034
-0.00039392404
4.4763091e-12
-0.00028006454
-0.00039887075
4.148932e-12
-0.00022844447
-0.00038996084
3.8626942e-12
-0.00017709519
-0.00036678266
3.4530619e-12
-0.00012845476
-0.00032989412
2.2819902e-12
-8.4970125e-05
-0.00028092316
2.9177585e-12
-4.886954e-05
-0.00022253303
1.1450616e-11
-2.1956618e-05
-0.00015822929
4.4619174e-12
-5.4685841e-06
-9.2042342e-05
-4.4148092e-11
-2.8320096e-05
4.5218807e-11
-4.6394488e-06
4.4070846e-05
-3.845728e-11
-1.6743483e-05
0.00011865034
3.8730367e-11
-3.4747098e-05
0.00018033884
-3.4712889e-12
-5.7313481e-05
0.00023016553
-1.0825998e-11
-8.331782e-05
0.00026933558
-4.5894149e-12
-0.00011183144
0.00029908976
-4.2412795e-12
-0.00014209952
0.00032060182
-4.9875327e-12
-0.00017351497
0.00033490898
-5.0629692e-12
-0.00020559085
0.00034287177
-4.9861668e-12
-0.00023793344
0.00034515881
-4.9538718e-12
-0.00027021683
0.00034225157
-4.8913477e-12
-0.00030216014
0.00033446399
-4.7726344e-12
-0.00033350728
0.00032197155
-4.6046944e-12
-0.00036400934
0.00030484548
-4.4112452e-12
-0.00039340909
0.00028308864
-4.1531241e-12
-0.00042142741
0.00025667071
-3.7769117e-12
-0.00044775125
0.00022556198
-3.312516e-12
-0.00047202325
0.00018976553
-2.8106192e-12
-0.00049383316
0.00014934865
-2.2731232e-12
-0.00051271175
0.00010447463
-1.6731914e-12
-0.00052812817
5.5435837e-05
-9.8811476e-13
-0.00053949223
2.6887908e-06
-2.0696181e-13
-0.00054616371
-5.3108623e-05
6.2249209e-13
-0.00054747064
-0.00011105986
1.4716199e-12
-0.00054273991
-0.00016999398
2.3033338e-12
-0.0005313428
-0.0002284372
3.0937399e-12
-0.00051275763
-0.00028459874
3.8142595e-12
-0.00048665016
-0.00033638135
4.4008666e-12
-0.0004529692
-0.00038142927
4.7658697e-12
-0.00041204977
-0.0004172274
4.8426011e-12
-0.00036470997
-0.00044126384
4.6322842e-12
-0.00031232059
-0.00045126013
4.242603e-12
-0.00025682185
-0.00044545958
3.8745155e-12
-0.00020066257
-0.00042294194
3.3368433e-12
-0.00014664769
-0.00038390901
1.8718407e-12
-9.7701341e-05
-0.00032986951
2.6012574e-12
-5.658074e-05
-0.00026365364
1.2757471e-11
-2.560083e-05
-0.0001892092