/*--------------------------------*- C++ -*----------------------------------*\
  =========                 |
  \\      /  F ield         | OpenFOAM: The Open Source CFD Toolbox
   \\    /   O peration     | Website:  https://openfoam.org
    \\  /    A nd           | Version:  7
     \\/     M anipulation  |
\*---------------------------------------------------------------------------*/
FoamFile
{
    version     2.0;
    format      ascii;
    class       volVectorField;
    location    "16";
    object      U;
}
// * * * * * * * * * * * * * * * * * * * * * * * * * * * * * * * * * * * * * //

dimensions      [0 1 -1 0 0 0 0];

internalField   nonuniform List<vector> 
16000
(
(6.6075712e-05 -6.7242347e-05 -3.7495929e-07)
(0.00016275482 -5.6283735e-05 5.7322186e-06)
(0.00014183928 4.9758504e-07 1.9226239e-05)
(-5.0701465e-05 6.1893484e-05 3.6638436e-05)
(-0.00040997431 0.00011560839 5.4735091e-05)
(-0.00090888543 0.0001577023 7.1551573e-05)
(-0.0015173806 0.00018845006 8.5752633e-05)
(-0.0022063303 0.00020954534 9.6523589e-05)
(-0.002949797 0.00022280697 0.00010340404)
(-0.0037253976 0.00022973747 0.00010614689)
(-0.0045137133 0.0002314015 0.00010462476)
(-0.0052974054 0.00022842806 9.8774611e-05)
(-0.0060603203 0.00022107283 8.857185e-05)
(-0.0067867388 0.00020931156 7.402713e-05)
(-0.0074608579 0.00019294736 5.5199379e-05)
(-0.0080665531 0.0001717217 3.221889e-05)
(-0.0085874343 0.00014542268 5.3154588e-06)
(-0.0090071847 0.00011398527 -2.5153135e-05)
(-0.0093101553 7.7579327e-05 -5.8677104e-05)
(-0.009482173 3.6681726e-05 -9.4578952e-05)
(-0.0095115017 -7.8743363e-06 -0.00013200924)
(-0.0093898714 -5.4893566e-05 -0.00016995698)
(-0.0091135125 -0.0001027948 -0.00020727605)
(-0.0086840931 -0.00014968388 -0.00024272914)
(-0.0081094345 -0.00019343214 -0.0002750471)
(-0.0074039307 -0.00023179505 -0.00030300172)
(-0.0065885772 -0.00026256232 -0.00032548705)
(-0.0056905475 -0.00028372593 -0.00034160326)
(-0.0047422908 -0.00029364977 -0.00035073605)
(-0.0037801704 -0.00029122144 -0.00035262388)
(-0.0028427092 -0.00027596867 -0.00034740632)
(-0.0019685485 -0.00024812621 -0.00033564962)
(-0.0011942369 -0.00020865336 -0.00031834853)
(-0.00055189347 -0.0001592384 -0.00029690723)
(-6.6803178e-05 -0.0001024065 -0.00027309453)
(0.00024461499 -4.1776076e-05 -0.00024896721)
(0.00037867805 1.7811849e-05 -0.00022690654)
(0.00034960617 6.7028726e-05 -0.00020934752)
(0.00020610805 8.9818195e-05 -0.00019896118)
(5.7450657e-05 5.7396065e-05 -0.00018450712)
(5.8001827e-05 -0.00016684686 -6.5952289e-06)
(4.0863919e-05 -3.9809183e-05 -3.3904284e-07)
(-0.00029496674 0.0002485918 1.1287655e-05)
(-0.0010108507 0.00056201644 2.5643914e-05)
(-0.0020987376 0.00084726749 4.0618001e-05)
(-0.0035131445 0.0010827914 5.4615316e-05)
(-0.0051931787 0.0012638952 6.6509217e-05)
(-0.0070744741 0.0013936062 7.5547725e-05)
(-0.0090952883 0.0014774619 8.1248866e-05)
(-0.011198702 0.0015210068 8.3312789e-05)
(-0.013332675 0.0015286834 8.1556155e-05)
(-0.015449068 0.001503454 7.5869049e-05)
(-0.017502314 0.0014468548 6.6193256e-05)
(-0.019448198 0.0013593078 5.2518117e-05)
(-0.021243019 0.0012405778 3.4889873e-05)
(-0.0228433 0.0010902945 1.342975e-05)
(-0.024206114 0.00090848472 -1.1643327e-05)
(-0.025290002 0.00069607233 -3.9989469e-05)
(-0.026056441 0.00045530946 -7.1128129e-05)
(-0.026471741 0.00019010925 -0.00010442526)
(-0.026509269 -9.3750021e-05 -0.00013909024)
(-0.026151708 -0.00038854648 -0.00017419166)
(-0.025393305 -0.00068475169 -0.0002086739)
(-0.024241862 -0.00097131964 -0.00024140485)
(-0.022720122 -0.0012361688 -0.00027122931)
(-0.0208665 -0.0014668372 -0.00029703637)
(-0.018734914 -0.0016512723 -0.00031783449)
(-0.016393606 -0.0017787018 -0.00033282844)
(-0.013922904 -0.0018405104 -0.00034149124)
(-0.011411948 -0.0018310424 -0.00034362403)
(-0.0089545126 -0.0017482526 -0.00033939734)
(-0.0066441034 -0.0015941534 -0.00032936945)
(-0.0045685547 -0.0013750623 -0.00031447972)
(-0.0028042971 -0.0011017563 -0.00029601856)
(-0.001410355 -0.00078983307 -0.0002755765)
(-0.00042208227 -0.00046061311 -0.0002549674)
(0.0001553391 -0.00014267155 -0.00023610564)
(0.00035641266 0.0001221548 -0.0002210076)
(0.00027510476 0.00027097743 -0.00021177312)
(9.0083078e-05 0.00020502058 -0.00019557512)
(1.9137414e-06 -0.00014879056 -2.0375669e-05)
(-0.00025599735 0.0002971075 -1.1757181e-05)
(-0.0010501859 0.0010234545 1.3406184e-07)
(-0.0023871485 0.0017970652 1.3105265e-05)
(-0.0042381503 0.0025091387 2.6131897e-05)
(-0.0065434711 0.0031090436 3.8073995e-05)
(-0.0092220833 0.0035797157 4.8104915e-05)
(-0.012185894 0.0039220795 5.566411e-05)
(-0.015347741 0.0041447369 6.0369742e-05)
(-0.01862462 0.0042580922 6.1964969e-05)
(-0.021938444 0.0042713066 6.0276917e-05)
(-0.025215442 0.0041909962 5.5187872e-05)
(-0.028384979 0.0040210577 4.6621619e-05)
(-0.031378397 0.0037632172 3.4543188e-05)
(-0.034128285 0.003418007 1.8968896e-05)
(-0.036568404 0.0029859574 -1.6714926e-08)
(-0.038634373 0.0024688407 -2.2239916e-05)
(-0.040265115 0.0018708439 -4.741628e-05)
(-0.041404982 0.001199571 -7.5132246e-05)
(-0.04200641 0.0004667906 -0.00010483292)
(-0.042032884 -0.00031113109 -0.00013582048)
(-0.041462028 -0.0011131359 -0.00016725989)
(-0.040288535 -0.0019139076 -0.00019820424)
(-0.03852664 -0.0026846278 -0.00022763078)
(-0.036211882 -0.0033942185 -0.00025449186)
(-0.0334019 -0.0040109752 -0.0002777775)
(-0.030176039 -0.0045045062 -0.00029658543)
(-0.026633604 -0.0048478537 -0.00031019302)
(-0.022890693 -0.0050196373 -0.00031812461)
(-0.019075639 -0.0050060414 -0.00032020648)
(-0.01532316 -0.0048024799 -0.0003166031)
(-0.011767477 -0.0044148253 -0.00030782982)
(-0.0085346417 -0.0038601921 -0.00029473987)
(-0.0057343885 -0.0031674333 -0.00027848647)
(-0.0034516997 -0.00237775 -0.00026046365)
(-0.0017382541 -0.001546109 -0.00024222668)
(-0.00060404772 -0.00074434174 -0.00022538481)
(-8.3412422e-06 -6.6659097e-05 -0.0002115297)
(0.00015523717 0.00036008142 -0.00020234942)
(7.3504975e-05 0.00035420063 -0.00018542358)
(-6.466968e-05 5.053669e-05 -3.8621056e-05)
(-0.00060819843 0.0010456221 -2.6084282e-05)
(-0.0019299147 0.0023811288 -1.2110544e-05)
(-0.0039451093 0.0037553799 1.1738957e-06)
(-0.0065867353 0.0050136696 1.3753484e-05)
(-0.0097757531 0.0060779847 2.4869437e-05)
(-0.013412337 0.006918099 3.3984553e-05)
(-0.017389266 0.0075314399 4.0763502e-05)
(-0.021599916 0.007928562 4.4970146e-05)
(-0.025941274 0.0081241287 4.6432564e-05)
(-0.030314828 0.0081318578 4.5020013e-05)
(-0.034626216 0.0079621667 4.0626246e-05)
(-0.038784301 0.0076216882 3.3164337e-05)
(-0.042700258 0.0071140417 2.2572177e-05)
(-0.046287118 0.0064413791 8.8262678e-06)
(-0.049460018 0.0056063307 -8.0388336e-06)
(-0.052137279 0.0046140611 -2.7907789e-05)
(-0.054242297 0.0034742066 -5.0561456e-05)
(-0.055706153 0.0022025135 -7.5656684e-05)
(-0.05647077 0.00082203726 -0.00010271214)
(-0.056492379 -0.00063620894 -0.0001311032)
(-0.055745082 -0.0021332682 -0.00016006491)
(-0.054224185 -0.003622949 -0.00018871547)
(-0.051948969 -0.0050532701 -0.00021608824)
(-0.048964672 -0.0063686334 -0.00024118084)
(-0.045343355 -0.0075126452 -0.00026301646)
(-0.041183403 -0.0084314531 -0.00028071343)
(-0.036607485 -0.0090773983 -0.00029355739)
(-0.031758845 -0.0094127282 -0.00030106898)
(-0.026795923 -0.0094130841 -0.00030305904)
(-0.021885417 -0.009070489 -0.0002996639)
(-0.017194004 -0.00839563 -0.00029135536)
(-0.01287905 -0.0074193689 -0.00027892309)
(-0.0090787129 -0.006193627 -0.00026343009)
(-0.0059018823 -0.0047920778 -0.00024614479)
(-0.0034183854 -0.0033114725 -0.00022845678)
(-0.00164967 -0.0018746139 -0.00021179213)
(-0.00055999288 -0.00063507887 -0.00019754279)
(-5.0250679e-05 0.00021453917 -0.00018694238)
(3.8047264e-05 0.00041356081 -0.00016812604)
(-0.00013082433 0.00044554663 -5.8129112e-05)
(-0.00097060906 0.0022421312 -4.1068053e-05)
(-0.0028451764 0.0043578607 -2.4193956e-05)
(-0.0055627524 0.0064550776 -9.7697144e-06)
(-0.0090060702 0.0083505848 3.1408346e-06)
(-0.013070537 0.0099479196 1.4113213e-05)
(-0.017635614 0.011207712 2.2884234e-05)
(-0.02257614 0.012125186 2.9348975e-05)
(-0.027769135 0.012712905 3.3430002e-05)
(-0.033095627 0.012989435 3.5054431e-05)
(-0.03844104 0.012972686 3.4145091e-05)
(-0.043694771 0.012676685 3.061366e-05)
(-0.048749373 0.012110865 2.4363365e-05)
(-0.053499855 0.011281102 1.5300874e-05)
(-0.057843493 0.010191863 3.3550633e-06)
(-0.061680397 0.0088489383 -1.1499461e-05)
(-0.064914917 0.0072623275 -2.9215971e-05)
(-0.067457872 0.0054489533 -4.9649042e-05)
(-0.069229497 0.003434936 -7.2530659e-05)
(-0.070162926 0.0012572251 -9.7451964e-05)
(-0.070207979 -0.0010355741 -0.00012385364)
(-0.069335012 -0.0033833194 -0.0001510275)
(-0.067538523 -0.005715411 -0.00017813306)
(-0.064840219 -0.0079529569 -0.00020422912)
(-0.061291238 -0.010011946 -0.00022832152)
(-0.056973229 -0.011807351 -0.00024942483)
(-0.051997996 -0.013257989 -0.00026663379)
(-0.046505474 -0.014291866 -0.0002791988)
(-0.04065986 -0.014851679 -0.00028659735)
(-0.034643829 -0.014900047 -0.00028859286)
(-0.028650904 -0.014424099 -0.00028527216)
(-0.022876186 -0.013439054 -0.0002770555)
(-0.017505814 -0.011990629 -0.00026467627)
(-0.012705685 -0.010156314 -0.00024913113)
(-0.0086101059 -0.0080459116 -0.00023160356)
(-0.0053111178 -0.0058021446 -0.00021337374)
(-0.0028483354 -0.0036023207 -0.00019575551)
(-0.0012000685 -0.0016608622 -0.00018001371)
(-0.00028888086 -0.00023429898 -0.00016687193)
(-2.4971525e-06 0.00035013206 -0.00014562883)
(-0.00019279415 0.0010310727 -7.660037e-05)
(-0.0013234762 0.0038913451 -5.4702598e-05)
(-0.0037503898 0.0069656673 -3.4506991e-05)
(-0.007170481 0.0099073431 -1.8421544e-05)
(-0.011410317 0.012522888 -4.6335367e-06)
(-0.016335062 0.01470913 6.721866e-06)
(-0.021801073 0.016424461 1.5631294e-05)
(-0.027665076 0.01766551 2.2209189e-05)
(-0.033789268 0.018448467 2.6533777e-05)
(-0.040041381 0.018796344 2.8631739e-05)
(-0.046294076 0.018731297 2.8480435e-05)
(-0.0524241 0.018270882 2.6009008e-05)
(-0.058311345 0.01742733 2.1108038e-05)
(-0.063838197 0.016208967 1.3647572e-05)
(-0.068889516 0.014623027 3.5013284e-06)
(-0.073353398 0.012679187 -9.4246942e-06)
(-0.077122802 0.010393293 -2.516091e-05)
(-0.080097983 0.0077908346 -4.3642675e-05)
(-0.082189635 0.0049098401 -6.4681329e-05)
(-0.083322555 0.0018029241 -8.7940629e-05)
(-0.083439637 -0.0014617063 -0.00011292185)
(-0.082505931 -0.0048004468 -0.00013896124)
(-0.080512533 -0.008115759 -0.00016524171)
(-0.077480005 -0.01129901 -0.00019082258)
(-0.073461007 -0.014234629 -0.00021468648)
(-0.068541838 -0.016805513 -0.0002358026)
(-0.062842547 -0.018899458 -0.00025320189)
(-0.056515292 -0.020416343 -0.00026605803)
(-0.0497407 -0.021275603 -0.00027376578)
(-0.042722049 -0.021423497 -0.00027600657)
(-0.035677268 -0.020839586 -0.00027279178)
(-0.028828921 -0.019541933 -0.00026447614)
(-0.022392583 -0.017590616 -0.00025173778)
(-0.016564236 -0.015089468 -0.00023552528)
(-0.011507638 -0.012186272 -0.00021697356)
(-0.0073426512 -0.0090721546 -0.00019730772)
(-0.0041339617 -0.0059810891 -0.00017780182)
(-0.001881421 -0.0031891493 -0.00015969041)
(-0.000536185 -0.0010147834 -0.00014330041)
(-4.1259388e-05 0.00015859385 -0.00011919959)
(-0.00025001596 0.0017980328 -9.207808e-05)
(-0.0016590947 0.0059821122 -6.5195879e-05)
(-0.0046225645 0.010194986 -4.1519673e-05)
(-0.0087286076 0.014101864 -2.3473155e-05)
(-0.013746022 0.017515841 -8.4425751e-06)
(-0.019507204 0.020339527 3.6888767e-06)
(-0.025843783 0.022537505 1.3132464e-05)
(-0.032594041 0.024113022 2.0204016e-05)
(-0.039606254 0.025088825 2.5125509e-05)
(-0.046736734 0.025493834 2.801519e-05)
(-0.053847944 0.025355056 2.88988e-05)
(-0.060806941 0.024693759 2.7717174e-05)
(-0.067484064 0.023525005 2.4341922e-05)
(-0.073752154 0.021859626 1.8599243e-05)
(-0.079486507 0.019707784 1.029962e-05)
(-0.084565693 0.017083348 -7.2817664e-07)
(-0.088873238 0.01400845 -1.4600253e-05)
(-0.092300115 0.01051772 -3.134036e-05)
(-0.094747939 0.0066617851 -5.0844832e-05)
(-0.096132703 0.0025097596 -7.2852696e-05)
(-0.096388888 -0.001849535 -9.6924483e-05)
(-0.09547373 -0.006307772 -0.00012243427)
(-0.09337145 -0.010738856 -0.0001485759)
(-0.090097165 -0.015002332 -0.00017439021)
(-0.085700168 -0.018948428 -0.00019881082)
(-0.080266246 -0.022424687 -0.0002207292)
(-0.073918631 -0.025284009 -0.00023907466)
(-0.06681717 -0.027393749 -0.00025290282)
(-0.059155328 -0.02864541 -0.00026148334)
(-0.051154717 -0.028964245 -0.00026437607)
(-0.043057013 -0.028318057 -0.00026148409)
(-0.035113364 -0.026724402 -0.00025307485)
(-0.027571687 -0.02425558 -0.00023976458)
(-0.020662599 -0.02104101 -0.0002224652)
(-0.01458519 -0.017267038 -0.00020229434)
(-0.0094939096 -0.013174758 -0.00018047298)
(-0.0054854903 -0.0090567071 -0.00015830509)
(-0.0025875461 -0.0052519643 -0.00013707979)
(-0.00078437781 -0.0021408473 -0.00011680108)
(-7.6875065e-05 -0.00016087719 -8.9587828e-05)
(-0.00030282755 0.0027356014 -0.00010289362)
(-0.0019746639 0.008495031 -7.093248e-05)
(-0.0054498531 0.014023369 -4.3795945e-05)
(-0.010213719 0.019014234 -2.366014e-05)
(-0.015978584 0.023302276 -7.1730631e-06)
(-0.02254358 0.026808049 6.0079592e-06)
(-0.029715155 0.029511303 1.6296884e-05)
(-0.037313261 0.03142801 2.4191227e-05)
(-0.045173089 0.032591322 3.0040773e-05)
(-0.053141081 0.033038286 3.4042426e-05)
(-0.061071621 0.03280189 3.6259451e-05)
(-0.068824574 0.031907585 3.6634804e-05)
(-0.076263408 0.030373376 3.5012139e-05)
(-0.083254074 0.028212539 3.1164861e-05)
(-0.08966476 0.025438027 2.4830999e-05)
(-0.095366576 0.022067728 1.5752537e-05)
(-0.10023511 0.01812987 3.7179033e-06)
(-0.10415285 0.013668005 -1.1394644e-05)
(-0.10701222 0.0087451455 -2.957522e-05)
(-0.10871935 0.0034467381 -5.0645164e-05)
(-0.10919823 -0.002117796 -7.4228484e-05)
(-0.10839514 -0.0078151363 -9.9737494e-05)
(-0.10628336 -0.013489877 -0.00012637181)
(-0.10286772 -0.018968314 -0.00015314207)
(-0.098188777 -0.024064187 -0.0001789134)
(-0.092326273 -0.028586403 -0.0002024718)
(-0.085401344 -0.032348637 -0.00022260916)
(-0.077576968 -0.03518045 -0.00023822049)
(-0.06905609 -0.036939429 -0.00024840381)
(-0.060076919 -0.037523544 -0.00025255051)
(-0.050905092 -0.036882769 -0.00025041327)
(-0.041822664 -0.035028897 -0.00024214017)
(-0.033114269 -0.032042524 -0.00022826864)
(-0.025051291 -0.028076456 -0.00020967635)
(-0.017875524 -0.023355257 -0.00018748776)
(-0.011783882 -0.018171323 -0.00016296566)
(-0.0069126275 -0.012878314 -0.00013750996)
(-0.0033231949 -0.0078814705 -0.00011254568)
(-0.0010366855 -0.0036261973 -8.7844129e-05)
(-0.00011092335 -0.00060729864 -5.7396976e-05)
(-0.0003515397 0.0038324239 -0.00010758455)
(-0.0022687112 0.011406057 -7.0439527e-05)
(-0.0062248382 0.018420257 -3.9974086e-05)
(-0.011609881 0.024610502 -1.7733178e-05)
(-0.018082824 0.029846101 3.2196579e-07)
(-0.02541062 0.034076856 1.4742653e-05)
(-0.033375225 0.037306568 2.6127727e-05)
(-0.041779003 0.039570403 3.5137573e-05)
(-0.05044511 0.040916296 4.2232861e-05)
(-0.059211602 0.041392165 4.7674328e-05)
(-0.067926682 0.041038538 5.1549762e-05)
(-0.076445227 0.039885783 5.3792706e-05)
(-0.084626203 0.03795504 5.4208258e-05)
(-0.092331026 0.035261858 5.2506788e-05)
(-0.099422944 0.031821549 4.8343443e-05)
(-0.10576739 0.027655372 4.1362399e-05)
(-0.11123326 0.022796803 3.1244783e-05)
(-0.11569503 0.017297296 1.7758244e-05)
(-0.11903563 0.011231103 8.0583566e-07)
(-0.12114999 0.004698826 -1.9528797e-05)
(-0.12194921 -0.0021705697 -4.2944241e-05)
(-0.12136523 -0.0092194948 -6.8899545e-05)
(-0.11935596 -0.016263339 -9.6603153e-05)
(-0.11591074 -0.023094374 -0.00012503192)
(-0.1110556 -0.0294879 -0.00015296972)
(-0.10485821 -0.035210849 -0.0001790738)
(-0.0974318 -0.040032821 -0.00020196421)
(-0.088937401 -0.043739285 -0.00022033051)
(-0.079583641 -0.046146416 -0.00023304619)
(-0.069623346 -0.047116686 -0.00023927759)
(-0.059346371 -0.046573985 -0.00023857233)
(-0.049068405 -0.044516829 -0.00023091344)
(-0.039115967 -0.041028147 -0.00021672948)
(-0.029808458 -0.036280372 -0.00019685512)
(-0.021439035 -0.030535108 -0.00017243726)
(-0.014256209 -0.024137489 -0.00014482037)
(-0.0084442311 -0.017506025 -0.00011556284)
(-0.0041048729 -0.011117591 -8.6304929e-05)
(-0.0012998165 -0.0054893573 -5.6653031e-05)
(-0.00014463628 -0.0011819152 -2.2694294e-05)
(-0.00039621815 0.0050767386 -0.00010483289)
(-0.002539714 0.014687791 -6.2365578e-05)
(-0.0069412798 0.023348883 -2.8772999e-05)
(-0.012903871 0.03084881 -4.4817053e-06)
(-0.020037427 0.037102996 1.5188525e-05)
(-0.028078941 0.042100759 3.0986251e-05)
(-0.036787475 0.045878388 4.3680923e-05)
(-0.045949143 0.04849668 5.4078882e-05)
(-0.055376411 0.05002296 6.2735623e-05)
(-0.064900492 0.050519082 6.9961059e-05)
(-0.074365213 0.050034967 7.5854271e-05)
(-0.083622503 0.048606843 8.032745e-05)
(-0.092528993 0.04625925 8.3136035e-05)
(-0.10094373 0.043009739 8.3916463e-05)
(-0.10872703 0.038875278 8.2229591e-05)
(-0.1157403 0.033879397 7.7609189e-05)
(-0.12184693 0.028059353 6.9614754e-05)
(-0.12691389 0.0214727 5.7886991e-05)
(-0.13081424 0.014202871 4.2203928e-05)
(-0.13343046 0.006363437 2.2534933e-05)
(-0.13465847 -0.0018991931 -9.1217748e-07)
(-0.13441247 -0.010404908 -2.7662376e-05)
(-0.13263059 -0.018940948 -5.6944427e-05)
(-0.12928128 -0.027265542 -8.7707516e-05)
(-0.12436992 -0.035114069 -0.00011864986)
(-0.11794552 -0.042208218 -0.00014828229)
(-0.11010682 -0.048268251 -0.00017502049)
(-0.10100687 -0.053028257 -0.0001973011)
(-0.090855113 -0.056253929 -0.00021371258)
(-0.079916015 -0.057761904 -0.0002231273)
(-0.068503117 -0.057439206 -0.00022481745)
(-0.056968086 -0.055260896 -0.00021853757)
(-0.045684628 -0.051303781 -0.0002045599)
(-0.035028109 -0.045754226 -0.0001836523)
(-0.025352888 -0.038908646 -0.0001569883)
(-0.016969698 -0.031166429 -0.00012602662)
(-0.010120785 -0.023015996 -9.254371e-05)
(-0.0049561799 -0.015013875 -5.8473584e-05)
(-0.0015835623 -0.0077593298 -2.3310338e-05)
(-0.00017996775 -0.0018920245 1.4560536e-05)
(-0.00043668284 0.0064560386 -9.3437094e-05)
(-0.0027856725 0.018309685 -4.547269e-05)
(-0.0075927442 0.028767003 -9.0028208e-06)
(-0.014082882 0.03768017 1.7240152e-05)
(-0.021822024 0.045020763 3.8533719e-05)
(-0.030520179 0.050826809 5.5815619e-05)
(-0.039915764 0.055174864 7.0014245e-05)
(-0.049780434 0.05815753 8.2067052e-05)
(-0.059917568 0.059866128 9.2610064e-05)
(-0.070153166 0.060379661 0.00010198916)
(-0.080328454 0.05975949 0.00011030264)
(-0.090294351 0.058048804 0.0001174303)
(-0.099907211 0.055275862 0.00012306735)
(-0.10902579 0.051459886 0.00012676555)
(-0.11750942 0.046618566 0.00012797958)
(-0.12521721 0.040776219 0.00012611884)
(-0.1320083 0.033971856 0.00012060437)
(-0.13774286 0.026266625 0.00011092965)
(-0.14228409 0.017750224 9.672395e-05)
(-0.14550109 0.0085460312 7.7815618e-05)
(-0.14727274 -0.0011852689 5.4290854e-05)
(-0.1474925 -0.011243774 2.6526965e-05)
(-0.14607459 -0.02139081 -4.7462791e-06)
(-0.14296132 -0.031351477 -3.8468815e-05)
(-0.13813109 -0.040820477 -7.3259552e-05)
(-0.13160716 -0.049471367 -0.00010747342)
(-0.12346627 -0.056969686 -0.00013929325)
(-0.11384611 -0.062990115 -0.00016685376)
(-0.10295049 -0.067237317 -0.00018839028)
(-0.091050764 -0.069469559 -0.00020239832)
(-0.078481998 -0.069523406 -0.00020778486)
(-0.065632941 -0.067337106 -0.00020398986)
(-0.052929203 -0.062969771 -0.00019105849)
(-0.040810278 -0.056613388 -0.00016964714)
(-0.029702614 -0.048595344 -0.00014094407)
(-0.019991518 -0.039370513 -0.00010654488)
(-0.011989377 -0.029503454 -6.8500611e-05)
(-0.0059046604 -0.019640851 -2.9118897e-05)
(-0.0018991592 -0.01047783 1.2179982e-05)
(-0.00021906119 -0.002750323 5.4523737e-05)
(-0.00047255968 0.0079566882 -7.2307064e-05)
(-0.0030040703 0.022237834 -1.8639721e-05)
(-0.0081721859 0.034627041 2.0422082e-05)
(-0.01513364 0.04504877 4.8491193e-05)
(-0.02341595 0.053539478 7.1395353e-05)
(-0.032705565 0.060193983 9.0254618e-05)
(-0.042722907 0.065136131 0.00010614631)
(-0.053227263 0.068496079 0.00012012608)
(-0.06401468 0.070393602 0.00013289832)
(-0.074907622 0.070928094 0.00014483394)
(-0.085746461 0.070174523 0.00015602061)
(-0.096382985 0.068184266 0.00016629652)
(-0.10667526 0.064989693 0.00017528774)
(-0.11648381 0.060611339 0.00018245157)
(-0.12566899 0.055066541 0.00018712491)
(-0.1340895 0.04837862 0.0001885781)
(-0.14160176 0.040585887 0.00018607476)
(-0.14806032 0.031749973 0.00017893726)
(-0.15331905 0.02196319 0.00016661669)
(-0.15723348 0.01135468 0.00014876433)
(-0.15966421 9.5217195e-05 0.00012530088)
(-0.16048186 -0.011599564 9.6487235e-05)
(-0.15957338 -0.023468342 6.2951829e-05)
(-0.15685003 -0.035205247 2.5736571e-05)
(-0.15225707 -0.04646467 -1.3717214e-05)
(-0.14578456 -0.056869986 -5.3611012e-05)
(-0.13747878 -0.066027016 -9.1874169e-05)
(-0.12745317 -0.073542703 -0.00012629231)
(-0.11589737 -0.079048996 -0.00015467346)
(-0.1030824 -0.082231149 -0.00017503887)
(-0.089360186 -0.082858637 -0.00018581811)
(-0.075155466 -0.080815834 -0.00018602207)
(-0.060948997 -0.076128622 -0.00017536752)
(-0.047252147 -0.068982732 -0.00015432588)
(-0.034575113 -0.059730125 -0.00012406525)
(-0.023392016 -0.048881357 -8.6326324e-05)
(-0.014100207 -0.037084068 -4.3487139e-05)
(-0.0069798293 -0.025087853 1.6875858e-06)
(-0.0022584845 -0.013700736 4.9824096e-05)
(-0.00026408364 -0.0037756351 9.7385818e-05)
(-0.00050334541 0.0095636212 -4.0473552e-05)
(-0.0031920174 0.026434697 1.9125315e-05)
(-0.0086720583 0.040876023 6.0465714e-05)
(-0.016042415 0.052892029 9.0219406e-05)
(-0.024798134 0.06259144 0.00011471175)
(-0.034605769 0.070132804 0.00013523801)
(-0.045170591 0.075693436 0.00015301529)
(-0.056241719 0.079446284 0.00016920614)
(-0.06760967 0.081543791 0.00018457358)
(-0.079095031 0.082108951 0.00019950542)
(-0.090539008 0.081232583 0.00021407172)
(-0.10179606 0.078975595 0.00022806276)
(-0.11272792 0.075374974 0.00024102895)
(-0.12319894 0.070452254 0.00025232542)
(-0.13307266 0.064223298 0.00026116086)
(-0.14220945 0.0567085 0.00026665206)
(-0.15046505 0.047942721 0.00026788522)
(-0.15769006 0.037984547 0.00026398475)
(-0.16373041 0.026924657 0.00025418915)
(-0.16842881 0.014893156 0.00023793159)
(-0.17162764 0.0020657514 0.00021492203)
(-0.17317356 -0.011331486 0.00018523649)
(-0.17292388 -0.025019151 0.00014936281)
(-0.17075501 -0.038664082 0.00010827158)
(-0.16657343 -0.051882289 6.3424876e-05)
(-0.16032853 -0.064246356 1.6754955e-05)
(-0.15202696 -0.07529845 -2.9407106e-05)
(-0.14174746 -0.084569872 -7.245797e-05)
(-0.12965451 -0.091607611 -0.00010970238)
(-0.11600859 -0.096007498 -0.00013857715)
(-0.10117037 -0.097452225 -0.00015689801)
(-0.085596198 -0.095751002 -0.00016309863)
(-0.069822662 -0.090876043 -0.00015642674)
(-0.054439423 -0.082990093 -0.0001370563)
(-0.040052342 -0.072459361 -0.00010606744)
(-0.027240456 -0.059848079 -6.5332401e-05)
(-0.016504035 -0.045893794 -1.7601393e-05)
(-0.0082119309 -0.031463654 3.3814828e-05)
(-0.0026737117 -0.017498766 8.9568415e-05)
(-0.00031721998 -0.0049931693 0.00014329051)
(-0.00052847705 0.011260169 2.8935557e-06)
(-0.0033464956 0.030858949 6.8666844e-05)
(-0.00908475 0.047455568 0.00011194956)
(-0.016795591 0.061140656 0.00014323646)
(-0.025947794 0.072101143 0.00016929062)
(-0.036191731 0.080565019 0.00019157425)
(-0.047220365 0.086768345 0.00021143548)
(-0.058774821 0.090931523 0.00023013399)
(-0.070641814 0.093243593 0.00024848423)
(-0.082641607 0.093854284 0.00026688596)
(-0.094617816 0.092872577 0.00028538812)
(-0.10642928 0.090370401 0.00030373034)
(-0.1179433 0.086390026 0.00032138425)
(-0.12903017 0.080953808 0.00033759798)
(-0.13955889 0.074075104 0.000351444)
(-0.14939391 0.065769455 0.00036187251)
(-0.15839277 0.056065434 0.00036777254)
(-0.16640462 0.04501483 0.00036804233)
(-0.17326968 0.032702063 0.00036166993)
(-0.17881984 0.019252792 0.00034782272)
(-0.18288068 0.0048416588 0.0003259434)
(-0.1852754 -0.010301054 0.00029585154)
(-0.18583084 -0.025884108 0.00025782866)
(-0.18438617 -0.04155249 0.00021270293)
(-0.18080459 -0.056887771 0.00016189571)
(-0.17498788 -0.071413244 0.00010743002)
(-0.16689359 -0.084605421 5.1883069e-05)
(-0.15655399 -0.095913418 -1.7284357e-06)
(-0.14409506 -0.10478739 -5.013575e-05)
(-0.12975294 -0.11071626 -9.0073451e-05)
(-0.11388472 -0.11327344 -0.00011858403)
(-0.096969506 -0.1121671 -0.00013333819)
(-0.079596466 -0.10728947 -0.00013292573)
(-0.062437385 -0.098757146 -0.00011705889)
(-0.046205072 -0.086934533 -8.6615758e-05)
(-0.03160112 -0.072433589 -4.3553543e-05)
(-0.019250074 -0.056087251 8.9736777e-06)
(-0.009631069 -0.038896103 6.7014659e-05)
(-0.0031571346 -0.021957596 0.00013122905)
(-0.00038069528 -0.0064345801 0.00019225995)
(-0.00054740437 0.013028049 5.8461814e-05)
(-0.0034646684 0.035465601 0.00013066011)
(-0.0094032362 0.054302148 0.00017553036)
(-0.017380657 0.069718951 0.00020819216)
(-0.026845728 0.081985461 0.00023577848)
(-0.037436236 0.091403503 0.00025990871)
(-0.048835535 0.098272208 0.00028205347)
(-0.060778757 0.10286349 0.00030356143)
(-0.073050367 0.10540663 0.00032529399)
(-0.085471688 0.10608113 0.00034766145)
(-0.097890162 0.10501654 0.00037069215)
(-0.11017059 0.10229748 0.0003940764)
(-0.12218766 0.097972389 0.00041720809)
(-0.13381972 0.092064524 0.00043922748)
(-0.14494364 0.084583928 0.0004590663)
(-0.15543069 0.075539556 0.00047549809)
(-0.16514319 0.064950988 0.00048719696)
(-0.17393206 0.052859498 0.00049280757)
(-0.18163517 0.039338509 0.00049102853)
(-0.18807688 0.024503502 0.00048070944)
(-0.19306896 0.0085214345 0.00046096004)
(-0.19641352 -0.0083804544 0.00043126905)
(-0.19790819 -0.025906781 0.00039162167)
(-0.19735446 -0.043688103 0.00034261302)
(-0.19456949 -0.061277959 0.00028553657)
(-0.18940176 -0.078154674 0.00022243355)
(-0.18175075 -0.09373001 0.00015608296)
(-0.17158977 -0.10736692 8.9912908e-05)
(-0.15899075 -0.1184085 2.7818676e-05)
(-0.14414818 -0.12621933 -2.6116515e-05)
(-0.12739826 -0.13023893 -6.7985441e-05)
(-0.10922839 -0.13004407 -9.4471968e-05)
(-0.090271531 -0.12541382 -0.00010326318)
(-0.071281135 -0.11638737 -9.3379624e-05)
(-0.053086202 -0.10330318 -6.5319459e-05)
(-0.036529294 -0.086808707 -2.1028877e-05)
(-0.022383992 -0.067834548 3.5926857e-05)
(-0.011266477 -0.047530842 0.00010085941)
(-0.003721064 -0.027177572 0.00017441622)
(-0.00045680729 -0.008137998 0.00024411699)
(-0.00055966542 0.014847542 0.00012671177)
(-0.0035442406 0.040206482 0.00020558985)
(-0.0096218868 0.061347752 0.00025167933)
(-0.01778749 0.078545507 0.00028555097)
(-0.027476057 0.092154214 0.00031463247)
(-0.038316106 0.10255253 0.00034068901)
(-0.049983791 0.11010601 0.0003653056)
(-0.062209982 0.11514155 0.00038991367)
(-0.074778193 0.11793197 0.0004154203)
(-0.087511965 0.11868959 0.00044224884)
(-0.10026378 0.117567 0.00047041191)
(-0.11290582 0.11466343 0.00049955651)
(-0.12532188 0.11003469 0.00052900452)
(-0.13740045 0.10370534 0.00055779224)
(-0.14902878 0.095681693 0.0005847108)
(-0.16008793 0.085964764 0.00060835143)
(-0.17044848 0.074562802 0.00062715958)
(-0.17996702 0.06150316 0.00063950206)
(-0.18848345 0.046843722 0.00064375096)
(-0.19581925 0.030684057 0.00063838589)
(-0.20177711 0.013176514 0.00062211469)
(-0.20614242 -0.0054627777 0.00059401093)
(-0.20868726 -0.024943249 0.00055366205)
(-0.20917748 -0.044890471 0.00050131865)
(-0.20738391 -0.06483912 0.00043803116)
(-0.20309825 -0.08423032 0.00036575192)
(-0.19615427 -0.1024159 0.00028737832)
(-0.18645414 -0.11867261 0.00020670886)
(-0.17399891 -0.1322295 0.00012828595)
(-0.15892075 -0.14231114 5.7108319e-05)
(-0.14151252 -0.14819777 -1.7859357e-06)
(-0.1222487 -0.14930042 -4.3837696e-05)
(-0.10179003 -0.14524458 -6.552682e-05)
(-0.080964756 -0.13595085 -6.4872903e-05)
(-0.060723232 -0.12169682 -4.1731722e-05)
(-0.042066769 -0.10314379 2.1295039e-06)
(-0.025945718 -0.081316381 6.2769031e-05)
(-0.013145763 -0.057529054 0.00013467124)
(-0.0043777379 -0.033273062 0.00021844908)
(-0.00054796423 -0.010148044 0.00029839835)
(-0.00056496555 0.016697871 0.00020791475)
(-0.0035838538 0.045031141 0.00029373229)
(-0.0097373933 0.068521071 0.00034066544)
(-0.018009872 0.087534432 0.00037557319)
(-0.027828323 0.10251125 0.00040609685)
(-0.038814858 0.11390858 0.0004341347)
(-0.050640427 0.12216077 0.00046137903)
(-0.063033016 0.12765259 0.00048934047)
(-0.075776199 0.13070351 0.0005189743)
(-0.088696645 0.1315616 0.00055072384)
(-0.10165289 0.1304052 0.00058459564)
(-0.11452573 0.12735027 0.00062020441)
(-0.12720967 0.12246157 0.00065681092)
(-0.13960535 0.11576585 0.00069335664)
(-0.15161296 0.10726573 0.00072849779)
(-0.16312648 0.09695354 0.00076064335)
(-0.17402854 0.084824429 0.00078800218)
(-0.18418594 0.070889017 0.00080864478)
(-0.19344583 0.055185628 0.0008205848)
(-0.2016327 0.03779256 0.00082188361)
(-0.2085465 0.018840694 0.00081077986)
(-0.21396246 -0.0014733797 0.00078584422)
(-0.21763314 -0.022873888 0.00074615726)
(-0.21929376 -0.044992682 0.00069149683)
(-0.2186717 -0.06735758 0.00062252905)
(-0.21550146 -0.089384136 0.00054097372)
(-0.20954614 -0.11037386 0.00044971715)
(-0.20062614 -0.12952257 0.00035283537)
(-0.18865477 -0.1459435 0.00025548788)
(-0.17367896 -0.15870939 0.00016364734)
(-0.15592091 -0.16691725 8.3647742e-05)
(-0.13581363 -0.1697755 2.1564772e-05)
(-0.11402068 -0.16670858 -1.751404e-05)
(-0.091429318 -0.15746596 -3.0208934e-05)
(-0.069109618 -0.14221556 -1.5363818e-05)
(-0.048236541 -0.12159752 2.5701738e-05)
(-0.02996681 -0.096717145 8.8772686e-05)
(-0.015293983 -0.06906409 0.0001674385)
(-0.0051391956 -0.040371366 0.00026225562)
(-0.00065672115 -0.012515816 0.00035425302)
(-0.00056325905 0.018557803 0.00030211618)
(-0.003583513 0.049888233 0.00039514406)
(-0.0097497893 0.075749276 0.00044254612)
(-0.018047181 0.096597219 0.00047830381)
(-0.027899847 0.11295617 0.00051018721)
(-0.038925711 0.12536172 0.00054021433)
(-0.050791986 0.13431851 0.00057017976)
(-0.063224756 0.14027162 0.00060167357)
(-0.076008368 0.14359004 0.00063570644)
(-0.088973312 0.14456061 0.00067275376)
(-0.101985 0.14339024 0.00071283084)
(-0.11493397 0.14021414 0.00075553633)
(-0.12772688 0.13510797 0.000800086)
(-0.14027846 0.12810201 0.00084534113)
(-0.15250434 0.11919593 0.00088983456)
(-0.1643146 0.10837324 0.00093179959)
(-0.17560789 0.095615048 0.00096920785)