/*--------------------------------*- C++ -*----------------------------------*\
  =========                 |
  \\      /  F ield         | OpenFOAM: The Open Source CFD Toolbox
   \\    /   O peration     | Website:  https://openfoam.org
    \\  /    A nd           | Version:  7
     \\/     M anipulation  |
\*---------------------------------------------------------------------------*/
FoamFile
{
    version     2.0;
    format      ascii;
    class       volVectorField;
    location    "16";
    object      U_0;
}
// * * * * * * * * * * * * * * * * * * * * * * * * * * * * * * * * * * * * * //

dimensions      [0 1 -1 0 0 0 0];

internalField   nonuniform List<vector> 
16000
(
(6.6074335e-05 -6.7243835e-05 -3.7842026e-07)
(0.00016275324 -5.6284874e-05 5.7288327e-06)
(0.00014184295 4.9873844e-07 1.9224743e-05)
(-5.0693047e-05 6.189483e-05 3.6639935e-05)
(-0.00040996537 0.00011560944 5.4739506e-05)
(-0.00090887773 0.00015770297 7.1557995e-05)
(-0.001517375 0.00018845017 8.5759825e-05)
(-0.0022063267 0.0002095449 9.6530081e-05)
(-0.0029497943 0.00022280623 0.00010340911)
(-0.0037253945 0.00022973671 0.0001061502)
(-0.0045137092 0.00023140077 0.00010462633)
(-0.0052974001 0.00022842737 9.8774763e-05)
(-0.0060603138 0.00022107212 8.8570962e-05)
(-0.0067867312 0.00020931072 7.4025675e-05)
(-0.0074608495 0.00019294648 5.5197791e-05)
(-0.0080665436 0.00017172094 3.2217519e-05)
(-0.0085874232 0.00014542205 5.3146675e-06)
(-0.0090071721 0.00011398481 -2.5153012e-05)
(-0.0093101417 7.7579166e-05 -5.8675884e-05)
(-0.0094821584 3.6681928e-05 -9.4576574e-05)
(-0.0095114867 -7.8738507e-06 -0.00013200579)
(-0.0093898567 -5.4892909e-05 -0.00016995285)
(-0.0091134989 -0.00010279403 -0.00020727186)
(-0.0086840809 -0.00014968303 -0.00024272554)
(-0.0081094235 -0.00019343125 -0.00027504464)
(-0.0074039205 -0.00023179422 -0.00030300057)
(-0.0065885682 -0.00026256156 -0.00032548697)
(-0.0056905399 -0.00028372511 -0.00034160393)
(-0.0047422846 -0.00029364879 -0.00035073722)
(-0.0037801655 -0.00029122045 -0.00035262529)
(-0.0028427058 -0.00027596792 -0.00034740764)
(-0.001968547 -0.00024812579 -0.00033565056)
(-0.0011942372 -0.00020865314 -0.00031834894)
(-0.00055189475 -0.00015923822 -0.00029690694)
(-6.6804518e-05 -0.00010240629 -0.00027309328)
(0.00024461414 -4.1775869e-05 -0.00024896476)
(0.00037867781 1.7811956e-05 -0.00022690287)
(0.00034960653 6.7028653e-05 -0.00020934284)
(0.00020610882 8.9817949e-05 -0.00019895575)
(5.7451012e-05 5.7395625e-05 -0.00018450158)
(5.800075e-05 -0.00016684871 -6.5990303e-06)
(4.0865898e-05 -3.9807664e-05 -3.4248318e-07)
(-0.00029495873 0.00024859553 1.1287074e-05)
(-0.00101084 0.00056201936 2.5646821e-05)
(-0.0020987259 0.0008472689 4.062388e-05)
(-0.0035131328 0.0010827909 5.4622849e-05)
(-0.0051931673 0.0012638928 6.6517137e-05)
(-0.0070744622 0.0013936025 7.5554551e-05)
(-0.0090952742 0.0014774575 8.1253903e-05)
(-0.011198685 0.0015210024 8.3315893e-05)
(-0.013332654 0.001528679 8.1557446e-05)
(-0.015449044 0.0015034497 7.5868889e-05)
(-0.017502287 0.0014468506 6.6191972e-05)
(-0.019448168 0.0013593039 5.2516127e-05)
(-0.021242985 0.0012405742 3.4887624e-05)
(-0.022843264 0.0010902913 1.3427699e-05)
(-0.024206075 0.00090848242 -1.1644669e-05)
(-0.025289961 0.00069607111 -3.9989609e-05)
(-0.026056397 0.00045530948 -7.1126782e-05)
(-0.026471697 0.0001901105 -0.00010442241)
(-0.026509225 -9.3747752e-05 -0.0001390861)
(-0.026151664 -0.00038854338 -0.00017418676)
(-0.025393264 -0.00068474796 -0.00020866895)
(-0.024241824 -0.00097131554 -0.0002414006)
(-0.022720088 -0.0012361645 -0.00027122643)
(-0.020866469 -0.0014668327 -0.00029703519)
(-0.018734887 -0.0016512676 -0.00031783482)
(-0.016393583 -0.0017786969 -0.00033282975)
(-0.013922886 -0.0018405057 -0.000341493)
(-0.011411934 -0.0018310382 -0.00034362587)
(-0.0089545035 -0.001748249 -0.00033939905)
(-0.0066440986 -0.0015941505 -0.00032937087)
(-0.0045685535 -0.0013750599 -0.00031448068)
(-0.0028042982 -0.0011017543 -0.00029601882)
(-0.001410357 -0.0007898317 -0.00027557565)
(-0.00042208437 -0.00046061242 -0.00025496497)
(0.00015533733 -0.00014267159 -0.00023610147)
(0.00035641154 0.00012215412 -0.00022100199)
(0.00027510428 0.00027097635 -0.0002117667)
(9.0082913e-05 0.0002050192 -0.00019556907)
(1.9151031e-06 -0.00014878746 -2.0377646e-05)
(-0.00025599217 0.00029711374 -1.1758212e-05)
(-0.0010501768 0.0010234591 1.3561695e-07)
(-0.0023871363 0.0017970669 1.3109567e-05)
(-0.004238136 0.0025091371 2.6138341e-05)
(-0.0065434551 0.0031090384 3.8081156e-05)
(-0.009222065 0.0035797076 4.8111636e-05)
(-0.012185872 0.0039220698 5.5669309e-05)
(-0.015347714 0.0041447264 6.0372965e-05)
(-0.018624587 0.0042580815 6.1966202e-05)
(-0.021938406 0.0042712959 6.0276411e-05)
(-0.025215398 0.0041909856 5.5186087e-05)
(-0.028384929 0.0040210476 4.6618957e-05)
(-0.031378342 0.0037632079 3.454011e-05)
(-0.034128226 0.003417999 1.896586e-05)
(-0.03656834 0.002985951 -1.9250168e-08)
(-0.038634305 0.0024688363 -2.2241415e-05)
(-0.040265043 0.0018708419 -4.7416211e-05)
(-0.041404908 0.0011995714 -7.5130312e-05)
(-0.042006335 0.00046679334 -0.00010482918)
(-0.04203281 -0.00031112628 -0.00013581534)
(-0.041461956 -0.0011131293 -0.00016725403)
(-0.040288467 -0.0019138996 -0.00019819843)
(-0.038526577 -0.0026846186 -0.00022762577)
(-0.036211825 -0.0033942084 -0.00025448828)
(-0.033401849 -0.0040109643 -0.00027777564)
(-0.030175994 -0.0045044947 -0.00029658508)
(-0.026633565 -0.0048478419 -0.00031019374)
(-0.022890662 -0.0050196258 -0.00031812594)
(-0.019075615 -0.0050060308 -0.00032020806)
(-0.015323142 -0.0048024704 -0.0003166046)
(-0.011767465 -0.0044148171 -0.00030783095)
(-0.0085346356 -0.0038601854 -0.00029474044)
(-0.0057343865 -0.0031674282 -0.00027848635)
(-0.0034517003 -0.0023777468 -0.00026046261)
(-0.0017382559 -0.0015461077 -0.00024222433)
(-0.00060404973 -0.00074434211 -0.00022538085)
(-8.3428085e-06 -6.6660507e-05 -0.00021152424)
(0.0001552361 0.00036007921 -0.00020234306)
(7.3504486e-05 0.00035419843 -0.00018541764)
(-6.4667929e-05 5.0543582e-05 -3.8620147e-05)
(-0.00060819267 0.0010456281 -2.6082164e-05)
(-0.0019299049 0.0023811312 -1.2106502e-05)
(-0.0039450955 0.0037553775 1.1795855e-06)
(-0.0065867179 0.005013662 1.3760155e-05)
(-0.0097757318 0.0060779725 2.4875794e-05)
(-0.013412311 0.0069180834 3.3989727e-05)
(-0.017389233 0.0075314223 4.0766734e-05)
(-0.021599875 0.0079285434 4.497127e-05)
(-0.025941225 0.0081241098 4.6431674e-05)
(-0.030314771 0.008131839 4.5017394e-05)
(-0.034626151 0.0079621485 4.0622395e-05)
(-0.038784229 0.007621671 3.3159743e-05)
(-0.042700179 0.0071140261 2.2567409e-05)
(-0.046287032 0.0064413657 8.8219226e-06)
(-0.049459926 0.0056063202 -8.0421471e-06)
(-0.052137182 0.0046140541 -2.7909455e-05)
(-0.054242196 0.0034742033 -5.0560957e-05)
(-0.05570605 0.002202514 -7.5653808e-05)
(-0.056470667 0.00082204146 -0.00010270707)
(-0.056492277 -0.00063620135 -0.00013109655)
(-0.055744984 -0.0021332577 -0.00016005766)
(-0.054224092 -0.0036229357 -0.00018870862)
(-0.051948883 -0.0050532546 -0.00021608254)
(-0.048964593 -0.006368616 -0.00024117681)
(-0.045343283 -0.0075126264 -0.00026301429)
(-0.041183339 -0.0084314333 -0.00028071289)
(-0.036607431 -0.0090773779 -0.00029355799)
(-0.0317588 -0.0094127079 -0.00030107024)
(-0.026795887 -0.0094130648 -0.0003030606)
(-0.02188539 -0.0090704717 -0.00029966544)
(-0.017193985 -0.0083956153 -0.00029135654)
(-0.012879038 -0.0074193571 -0.00027892361)
(-0.0090787066 -0.0061936182 -0.00026342975)
(-0.00590188 -0.004792072 -0.00024614345)
(-0.0034183853 -0.0033114697 -0.00022845431)
(-0.001649671 -0.0018746138 -0.00021178838)
(-0.00055999427 -0.00063508064 -0.00019753766)
(-5.0252248e-05 0.00021453603 -0.0001869364)
(3.8046532e-05 0.00041355825 -0.00016812042)
(-0.00013082268 0.00044555286 -5.8125486e-05)
(-0.00097060343 0.0022421343 -4.1063406e-05)
(-0.0028451663 0.004357858 -2.4188295e-05)
(-0.0055627372 0.0064550681 -9.7636554e-06)
(-0.0090060493 0.0083505687 3.1467284e-06)
(-0.01307051 0.0099478982 1.4117825e-05)
(-0.017635579 0.011207687 2.2887088e-05)
(-0.022576095 0.012125159 2.9349605e-05)
(-0.027769079 0.012712876 3.3428475e-05)
(-0.033095561 0.012989406 3.5051008e-05)
(-0.038440964 0.012972657 3.414015e-05)
(-0.043694685 0.012676658 3.0607703e-05)
(-0.048749279 0.012110839 2.4356903e-05)
(-0.053499751 0.011281079 1.5294578e-05)
(-0.057843381 0.010191843 3.3496741e-06)
(-0.061680278 0.0088489231 -1.1503215e-05)
(-0.064914793 0.0072623173 -2.9217444e-05)
(-0.067457743 0.0054489485 -4.9647791e-05)
(-0.069229366 0.0034349366 -7.2526623e-05)
(-0.070162796 0.0012572309 -9.7445511e-05)
(-0.070207852 -0.0010355636 -0.00012384556)
(-0.069334889 -0.0033833044 -0.0001510189)
(-0.067538407 -0.0057153919 -0.00017812506)
(-0.064840111 -0.0079529341 -0.00020422256)
(-0.061291138 -0.01001192 -0.00022831693)
(-0.056973138 -0.011807323 -0.00024942233)
(-0.051997914 -0.013257959 -0.00026663308)
(-0.046505403 -0.014291836 -0.00027919932)
(-0.0406598 -0.014851649 -0.00028659858)
(-0.034643781 -0.014900018 -0.00028859447)
(-0.028650867 -0.014424072 -0.00028527385)
(-0.022876158 -0.013439031 -0.00027705693)
(-0.017505795 -0.01199061 -0.00026467707)
(-0.012705673 -0.010156299 -0.00024913094)
(-0.0086100994 -0.0080459017 -0.00023160215)
(-0.0053111153 -0.0058021393 -0.00021337117)
(-0.0028483351 -0.0036023195 -0.00019575188)
(-0.0012000697 -0.0016608642 -0.00018000906)
(-0.0002888824 -0.00023430265 -0.00016686662)
(-2.4977701e-06 0.00035012945 -0.00014562355)
(-0.00019279261 0.001031076 -7.6594629e-05)
(-0.001323471 0.0038913426 -5.4696201e-05)
(-0.0037503796 0.0069656568 -3.4500489e-05)
(-0.0071704639 0.0099073242 -1.841583e-05)
(-0.011410291 0.012522862 -4.6289577e-06)
(-0.016335027 0.014709099 6.724405e-06)
(-0.021801027 0.016424425 1.5631648e-05)
(-0.027665018 0.017665472 2.2207172e-05)
(-0.033789199 0.018448427 2.6529618e-05)
(-0.040041299 0.018796304 2.8625786e-05)
(-0.046293982 0.018731258 2.8473144e-05)
(-0.052423995 0.018270844 2.6000994e-05)
(-0.058311228 0.017427295 2.1099907e-05)
(-0.063838071 0.016208936 1.3640051e-05)
(-0.06888938 0.014623 3.4952276e-06)
(-0.073353255 0.012679166 -9.4285437e-06)
(-0.077122652 0.010393279 -2.5161832e-05)
(-0.080097829 0.0077908278 -4.3640349e-05)
(-0.082189479 0.0049098405 -6.4675938e-05)
(-0.083322401 0.0018029314 -8.7932815e-05)
(-0.083439486 -0.0014616926 -0.00011291262)
(-0.082505785 -0.0048004271 -0.00013895185)
(-0.080512395 -0.0081157335 -0.00016523328)
(-0.077479875 -0.011298979 -0.00019081585)
(-0.073460886 -0.014234594 -0.00021468187)
(-0.068541728 -0.016805474 -0.00023580022)
(-0.062842448 -0.018899417 -0.00025320148)
(-0.056515205 -0.020416301 -0.00026605905)
(-0.049740625 -0.021275562 -0.00027376763)
(-0.042721987 -0.021423457 -0.00027600876)
(-0.035677218 -0.020839549 -0.00027279392)
(-0.028828883 -0.019541901 -0.00026447786)
(-0.022392556 -0.017590589 -0.00025173876)
(-0.016564218 -0.015089446 -0.0002355252)
(-0.011507627 -0.012186257 -0.00021697222)
(-0.0073426459 -0.009072146 -0.00019730521)
(-0.0041339599 -0.0059810859 -0.00017779835)
(-0.0018814216 -0.0031891505 -0.00015968627)
(-0.000536186 -0.0010147866 -0.0001432958)
(-4.1259683e-05 0.00015859132 -0.0001191948)
(-0.00025001481 0.0017980319 -9.2071412e-05)
(-0.0016590902 0.0059821023 -6.5189119e-05)
(-0.0046225538 0.010194966 -4.1513485e-05)
(-0.0087285882 0.014101834 -2.3468554e-05)
(-0.013745991 0.017515803 -8.4397589e-06)
(-0.019507162 0.020339483 3.6892343e-06)
(-0.025843728 0.022537457 1.3130411e-05)
(-0.032593972 0.024112971 2.0199547e-05)
(-0.039606171 0.025088772 2.5118958e-05)
(-0.046736637 0.025493781 2.8006997e-05)
(-0.053847833 0.025355004 2.8889487e-05)
(-0.060806817 0.02469371 2.7707432e-05)
(-0.067483928 0.023524959 2.4332488e-05)
(-0.073752006 0.021859586 1.859097e-05)
(-0.079486349 0.01970775 1.0293371e-05)
(-0.084565527 0.017083322 -7.3157755e-07)
(-0.088873064 0.014008432 -1.4600202e-05)
(-0.092299938 0.01051771 -3.1336687e-05)
(-0.094747761 0.0066617846 -5.0837949e-05)
(-0.096132527 0.0025097679 -7.2843512e-05)
(-0.096388715 -0.0018495183 -9.691424e-05)
(-0.095473564 -0.0063077472 -0.00012242434)
(-0.093371291 -0.010738824 -0.00014856742)
(-0.090097015 -0.015002293 -0.00017438383)
(-0.085700029 -0.018948382 -0.00019880682)
(-0.080266118 -0.022424637 -0.00022072755)
(-0.073918514 -0.025283955 -0.00023907509)
(-0.066817066 -0.027393695 -0.00025290482)
(-0.059155238 -0.028645355 -0.00026148631)
(-0.051154642 -0.028964193 -0.00026437938)
(-0.043056953 -0.028318008 -0.00026148719)
(-0.035113317 -0.026724359 -0.00025307725)
(-0.027571652 -0.024255543 -0.00023976595)
(-0.020662575 -0.02104098 -0.00022246534)
(-0.014585175 -0.017267016 -0.00020229319)
(-0.0094939011 -0.013174744 -0.00018047059)
(-0.0054854866 -0.0090567004 -0.00015830167)
(-0.0025875455 -0.0052519634 -0.00013707586)
(-0.00078437805 -0.0021408493 -0.00011679678)
(-7.6875123e-05 -0.00016087951 -8.9583356e-05)
(-0.00030282681 0.002735596 -0.00010288692)
(-0.0019746597 0.0084950132 -7.0926241e-05)
(-0.0054498413 0.01402334 -4.3790738e-05)
(-0.010213696 0.019014193 -2.3656926e-05)
(-0.015978549 0.023302226 -7.1720027e-06)
(-0.02254353 0.026807992 6.0063641e-06)
(-0.02971509 0.02951124 1.6292753e-05)
(-0.037313181 0.031427944 2.4184674e-05)
(-0.045172993 0.032591254 3.0032212e-05)
(-0.05314097 0.033038218 3.4032381e-05)
(-0.061071495 0.032801824 3.6248526e-05)
(-0.068824433 0.031907523 3.662377e-05)
(-0.076263254 0.030373319 3.5001855e-05)
(-0.083253907 0.028212489 3.1156296e-05)
(-0.089664583 0.025437985 2.4825056e-05)
(-0.095366389 0.022067695 1.5749967e-05)
(-0.10023492 0.018129847 3.719129e-06)
(-0.10415265 0.013667992 -1.1389701e-05)
(-0.10701202 0.0087451437 -2.9567193e-05)
(-0.10871916 0.0034467472 -5.0635131e-05)
(-0.10919804 -0.0021177763 -7.4217817e-05)
(-0.10839496 -0.0078151064 -9.9727621e-05)
(-0.10628318 -0.013489837 -0.00012636383)
(-0.10286755 -0.018968266 -0.00015313658)
(-0.09818862 -0.02406413 -0.00017891055)
(-0.092326127 -0.02858634 -0.00020247144)
(-0.085401211 -0.032348569 -0.00022261091)
(-0.077576849 -0.035180381 -0.00023822382)
(-0.069055986 -0.036939361 -0.00024840811)
(-0.060076831 -0.037523477 -0.00025255516)
(-0.050905019 -0.036882707 -0.00025041762)
(-0.041822606 -0.035028841 -0.00024214361)
(-0.033114225 -0.032042475 -0.00022827067)
(-0.02505126 -0.028076416 -0.00020967678)
(-0.017875504 -0.023355226 -0.00018748674)
(-0.01178387 -0.018171302 -0.00016296333)
(-0.0069126219 -0.012878302 -0.00013750651)
(-0.0033231932 -0.0078814662 -0.00011254169)
(-0.0010366851 -0.0036261973 -8.7839752e-05)
(-0.00011092328 -0.00060730051 -5.73926e-05)
(-0.00035153906 0.0038324146 -0.00010757844)
(-0.0022687067 0.011406032 -7.0434268e-05)
(-0.0062248247 0.018420217 -3.997008e-05)
(-0.011609855 0.024610449 -1.773128e-05)
(-0.018082784 0.029846037 3.2156517e-07)
(-0.025410564 0.034076783 1.4739573e-05)
(-0.033375153 0.03730649 2.6122114e-05)
(-0.041778913 0.039570321 3.5129563e-05)
(-0.050445003 0.040916212 4.2222896e-05)
(-0.059211479 0.041392082 4.766301e-05)
(-0.067926543 0.041038457 5.1537793e-05)
(-0.076445072 0.039885706 5.3780927e-05)
(-0.084626033 0.03795497 5.4197619e-05)
(-0.092330844 0.035261797 5.2498335e-05)
(-0.09942275 0.031821497 4.8338095e-05)
(-0.10576719 0.027655331 4.1360823e-05)
(-0.11123305 0.022796774 3.1247206e-05)
(-0.11569482 0.017297279 1.7764309e-05)
(-0.11903542 0.0112311 8.1465703e-07)
(-0.12114978 0.0046988357 -1.9518427e-05)
(-0.121949 -0.002170547 -4.293372e-05)
(-0.12136503 -0.0092194593 -6.8890251e-05)
(-0.11935577 -0.016263291 -9.6596104e-05)
(-0.11591056 -0.023094315 -0.00012502762)
(-0.11105543 -0.029487831 -0.00015296826)
(-0.10485805 -0.035210772 -0.00017907497)
(-0.097431651 -0.040032739 -0.00020196756)
(-0.088937267 -0.0437392 -0.00022033543)
(-0.079583524 -0.046146331 -0.00023305199)
(-0.069623245 -0.047116604 -0.00023928358)
(-0.059346287 -0.046573908 -0.00023857785)
(-0.049068337 -0.044516758 -0.00023091786)
(-0.039115914 -0.041028085 -0.00021673223)
(-0.02980842 -0.036280321 -0.00019685595)
(-0.021439009 -0.030535068 -0.00017243634)
(-0.014256193 -0.02413746 -0.00014481797)
(-0.0084442235 -0.017506007 -0.00011555926)
(-0.0041048698 -0.011117582 -8.6300645e-05)
(-0.0012998155 -0.0054893546 -5.6648248e-05)
(-0.00014463626 -0.0011819162 -2.2689646e-05)
(-0.00039621745 0.0050767263 -0.00010482745)
(-0.0025397088 0.014687758 -6.236122e-05)
(-0.0069412646 0.023348833 -2.8769961e-05)
(-0.012903843 0.030848743 -4.480728e-06)
(-0.020037382 0.037102917 1.5187197e-05)
(-0.02807888 0.042100671 3.0982271e-05)
(-0.036787397 0.045878293 4.3674449e-05)
(-0.045949046 0.048496581 5.407007e-05)
(-0.055376296 0.050022859 6.2724893e-05)
(-0.064900359 0.050518982 6.994906e-05)
(-0.074365064 0.05003487 7.5841806e-05)
(-0.083622338 0.048606752 8.0315417e-05)
(-0.092528812 0.046259166 8.3125447e-05)
(-0.10094354 0.043009666 8.3908391e-05)
(-0.10872682 0.038875216 8.2224932e-05)
(-0.11574009 0.033879348 7.7608509e-05)
(-0.12184671 0.028059317 6.9618091e-05)
(-0.12691366 0.021472679 5.7893747e-05)
(-0.13081402 0.014202866 4.2213018e-05)
(-0.13343023 0.0063634474 2.2545071e-05)
(-0.13465825 -0.001899167 -9.0234976e-07)
(-0.13441226 -0.010404867 -2.7654114e-05)
(-0.13263038 -0.018940892 -5.6938601e-05)
(-0.12928109 -0.027265473 -8.7704526e-05)
(-0.12436973 -0.035113988 -0.00011864977)
(-0.11794535 -0.042208127 -0.00014828491)
(-0.11010666 -0.048268153 -0.00017502538)
(-0.10100672 -0.053028156 -0.00019730756)
(-0.090854983 -0.056253827 -0.00021371981)
(-0.079915902 -0.057761804 -0.0002231345)
(-0.068503022 -0.057439112 -0.0002248239)
(-0.056968008 -0.055260809 -0.0002185427)
(-0.045684566 -0.051303705 -0.00020456323)
(-0.035028063 -0.045754162 -0.00018365357)
(-0.025352857 -0.038908594 -0.00015698755)
(-0.016969679 -0.031166391 -0.00012602415)
(-0.010120775 -0.02301597 -9.2539918e-05)
(-0.0049561755 -0.01501386 -5.8468818e-05)
(-0.0015835611 -0.007759324 -2.3304971e-05)
(-0.00017996779 -0.0018920243 1.4565738e-05)
(-0.00043668197 0.0064560236 -9.3432078e-05)
(-0.0027856666 0.018309644 -4.5468798e-05)
(-0.0075927276 0.028766941 -9.000245e-06)
(-0.014082851 0.037680089 1.7240778e-05)
(-0.021821976 0.045020669 3.8532105e-05)
(-0.030520114 0.050826704 5.5811397e-05)
(-0.03991568 0.055174751 7.000753e-05)
(-0.049780332 0.058157413 8.2058036e-05)
(-0.059917448 0.059866009 9.2599141e-05)
(-0.070153027 0.060379543 0.00010197701)
(-0.080328297 0.059759376 0.00011029017)
(-0.090294178 0.058048697 0.00011741844)
(-0.099907022 0.055275764 0.00012305716)
(-0.10902559 0.051459799 0.00012675807)
(-0.1175092 0.046618493 0.00012797562)
(-0.12521699 0.040776161 0.00012611885)
(-0.13200807 0.033971814 0.00012060822)
(-0.13774262 0.0262666 0.00011093657)
(-0.14228386 0.017750217 9.6732721e-05)
(-0.14550086 0.008546042 7.7824972e-05)
(-0.14727251 -0.0011852397 5.4299549e-05)
(-0.14749227 -0.011243727 2.6533898e-05)
(-0.14607437 -0.021390746 -4.7418372e-06)
(-0.14296111 -0.031351397 -3.8467161e-05)
(-0.13813089 -0.040820383 -7.3260699e-05)
(-0.13160698 -0.049471261 -0.0001074772)
(-0.1234661 -0.056969573 -0.00013929928)
(-0.11384595 -0.062989996 -0.00016686141)
(-0.10295035 -0.067237196 -0.0001883987)
(-0.091050641 -0.069469441 -0.00020240659)
(-0.078481893 -0.069523293 -0.00020779216)
(-0.065632854 -0.067337003 -0.00020399555)
(-0.052929133 -0.062969679 -0.00019106221)
(-0.040810225 -0.05661331 -0.00016964873)
(-0.029702577 -0.04859528 -0.00014094348)
(-0.019991495 -0.039370464 -0.00010654235)
(-0.011989364 -0.029503421 -6.8496583e-05)
(-0.0059046546 -0.01964083 -2.9113617e-05)
(-0.0018991577 -0.01047782 1.2185967e-05)
(-0.00021906122 -0.0027503214 5.4529637e-05)
(-0.00047255862 0.0079566705 -7.2302204e-05)
(-0.0030040639 0.022237786 -1.8635862e-05)
(-0.0081721683 0.034626967 2.0424683e-05)
(-0.015133608 0.045048675 4.8492007e-05)
(-0.0234159 0.053539366 7.1394049e-05)
(-0.032705497 0.060193859 9.0250799e-05)
(-0.042722821 0.065135999 0.00010614)
(-0.053227158 0.068495943 0.00012011746)
(-0.064014556 0.070393464 0.00013288776)
(-0.074907479 0.070927958 0.00014482215)
(-0.085746301 0.070174393 0.00015600854)
(-0.096382808 0.068184144 0.00016628517)
(-0.10667507 0.064989582 0.00017527818)
(-0.1164836 0.06061124 0.0001824448)
(-0.12566878 0.055066457 0.0001871216)
(-0.13408927 0.048378553 0.00018857854)
(-0.14160153 0.040585838 0.00018607871)
(-0.14806008 0.031749943 0.00017894384)
(-0.15331881 0.02196318 0.00016662464)
(-0.15723324 0.011354691 0.00014877248)
(-0.15966398 9.5249073e-05 0.00012530815)
(-0.16048163 -0.011599511 9.6492742e-05)
(-0.15957315 -0.02346827 6.2954962e-05)
(-0.15684981 -0.035205157 2.5737079e-05)
(-0.15225686 -0.046464564 -1.3719338e-05)
(-0.14578436 -0.056869867 -5.3615621e-05)
(-0.1374786 -0.066026887 -9.188094e-05)
(-0.12745301 -0.073542567 -0.00012630069)
(-0.11589722 -0.079048858 -0.00015468268)
(-0.10308227 -0.082231012 -0.00017504801)
(-0.089360072 -0.082858506 -0.00018582621)
(-0.075155371 -0.080815712 -0.00018602838)
(-0.06094892 -0.076128512 -0.00017537164)
(-0.047252088 -0.068982638 -0.0001543277)
(-0.034575071 -0.059730047 -0.00012406474)
(-0.023391988 -0.048881297 -8.6323722e-05)
(-0.014100191 -0.037084025 -4.3482833e-05)
(-0.0069798219 -0.025087826 1.6933366e-06)
(-0.0022584825 -0.013700722 4.9830639e-05)
(-0.00026408352 -0.0037756321 9.7392428e-05)
(-0.00050334424 0.0095636005 -4.0468493e-05)
(-0.0031920108 0.02643464 1.9129574e-05)
(-0.0086720403 0.040875936 6.0468781e-05)
(-0.016042382 0.052891918 9.0220847e-05)
(-0.024798084 0.06259131 0.00011471119)
(-0.034605701 0.070132661 0.00013523503)
(-0.045170504 0.075693284 0.00015300981)
(-0.056241613 0.079446128 0.00016919836)
(-0.067609546 0.081543634 0.00018456385)
(-0.079094889 0.082108798 0.00019949445)
(-0.090538847 0.081232436 0.00021406049)
(-0.10179588 0.078975458 0.0002280523)
(-0.11272772 0.075374849 0.00024102034)
(-0.12319873 0.070452143 0.00025231954)
(-0.13307245 0.064223204 0.00026115822)
(-0.14220922 0.056708425 0.00026665279)
(-0.15046482 0.047942665 0.00026788899)
(-0.15768983 0.037984513 0.00026399063)
(-0.16373018 0.026924645 0.00025419596)
(-0.16842858 0.014893167 0.00023793828)
(-0.1716274 0.0020657856 0.00021492775)
(-0.17317333 -0.011331429 0.00018524055)
(-0.17292366 -0.025019072 0.00014936476)
(-0.17075479 -0.038663983 0.00010827117)
(-0.16657322 -0.051882172 6.3422062e-05)
(-0.16032833 -0.064246224 1.6749824e-05)
(-0.15202677 -0.075298307 -2.9414286e-05)
(-0.14174728 -0.08456972 -7.2466713e-05)
(-0.12965435 -0.091607456 -0.00010971199)
(-0.11600845 -0.096007343 -0.00013858677)
(-0.10117025 -0.097452075 -0.00015690668)
(-0.085596096 -0.095750861 -0.00016310553)
(-0.069822579 -0.090875914 -0.00015643135)
(-0.054439358 -0.082989981 -0.00013705841)
(-0.040052295 -0.072459268 -0.00010606705)
(-0.027240424 -0.059848006 -6.5329746e-05)
(-0.016504016 -0.04589374 -1.7596793e-05)
(-0.0082119218 -0.031463619 3.3820992e-05)
(-0.0026737088 -0.017498748 8.9575432e-05)
(-0.00031721961 -0.0049931649 0.00014329772)
(-0.00052847585 0.011260145 2.8989996e-06)
(-0.003346489 0.030858883 6.8671709e-05)
(-0.0090847322 0.047455468 0.00011195331)
(-0.016795559 0.061140529 0.00014323876)
(-0.025947745 0.072100995 0.00016929101)
(-0.036191664 0.080564857 0.00019157235)
(-0.04722028 0.086768174 0.00021143111)
(-0.058774718 0.090931347 0.00023012737)
(-0.070641692 0.093243418 0.00024847571)
(-0.082641468 0.093854113 0.00026687624)
(-0.094617659 0.092872414 0.00028537817)
(-0.10642911 0.090370249 0.00030372119)
(-0.11794312 0.086389888 0.0003213769)
(-0.12902997 0.080953686 0.0003375932)
(-0.13955868 0.074075 0.00035144209)
(-0.14939369 0.065769372 0.00036187344)
(-0.15839254 0.056065372 0.00036777589)
(-0.16640439 0.045014791 0.00036804727)
(-0.17326945 0.032702049 0.0003616754)
(-0.17881961 0.019252803 0.00034782785)
(-0.18288045 0.004841695 0.00032594754)
(-0.18527517 -0.010300993 0.0002958542)
(-0.18583062 -0.025884023 0.00025782949)
(-0.18438595 -0.041552384 0.00021270171)
(-0.18080438 -0.056887644 0.00016189237)
(-0.17498768 -0.071413101 0.00010742459)
(-0.1668934 -0.084605265 5.1875758e-05)
(-0.15655382 -0.095913252 -1.7372144e-06)
(-0.1440949 -0.10478722 -5.0145386e-05)
(-0.1297528 -0.11071609 -9.0083162e-05)
(-0.11388459 -0.11327327 -0.00011859295)
(-0.096969399 -0.11216694 -0.00013334549)
(-0.079596378 -0.10728932 -0.00013293079)
(-0.062437315 -0.098757016 -0.00011706137)
(-0.04620502 -0.086934423 -8.6615587e-05)
(-0.031601084 -0.072433502 -4.3550894e-05)
(-0.019250052 -0.056087186 8.978527e-06)
(-0.0096310581 -0.03889606 6.7021187e-05)
(-0.0031571307 -0.021957573 0.00013123648)
(-0.00038069468 -0.0064345743 0.00019226756)
(-0.00054740321 0.013028021 5.846768e-05)
(-0.0034646621 0.035465527 0.00013066559)
(-0.0094032192 0.054302035 0.00017553483)
(-0.017380626 0.069718809 0.00020819532)
(-0.026845681 0.081985295 0.00023577985)
(-0.037436172 0.091403322 0.00025990795)
(-0.048835454 0.098272018 0.00028205036)
(-0.060778659 0.1028633 0.00030355618)
(-0.073050251 0.10540644 0.00032528696)
(-0.085471555 0.10608094 0.00034765338)
(-0.097890013 0.10501636 0.00037068393)
(-0.11017042 0.10229731 0.00039406901)
(-0.12218748 0.09797224 0.00041720242)
(-0.13381953 0.092064393 0.00043922412)
(-0.14494344 0.084583816 0.00045906534)
(-0.15543048 0.075539467 0.0004754993)
(-0.16514298 0.064950922 0.00048719991)
(-0.17393184 0.052859457 0.00049281152)
(-0.18163495 0.039338494 0.00049103263)
(-0.18807666 0.024503513 0.00048071303)
(-0.19306875 0.0085214724 0.00046096267)
(-0.1964133 -0.0083803901 0.00043127036)
(-0.19790798 -0.025906691 0.00039162141)
(-0.19735426 -0.04368799 0.00034261099)
(-0.19456929 -0.061277825 0.00028553269)
(-0.18940157 -0.078154521 0.00022242787)
(-0.18175057 -0.093729842 0.00015607566)
(-0.1715896 -0.10736674 8.9904319e-05)
(-0.1589906 -0.11840831 2.7809321e-05)
(-0.14414804 -0.12621914 -2.6125957e-05)
(-0.12739813 -0.13023874 -6.799421e-05)
(-0.10922828 -0.1300439 -9.447931e-05)
(-0.090271441 -0.12541365 -0.00010326842)
(-0.071281063 -0.11638722 -9.3382325e-05)
(-0.053086147 -0.10330305 -6.5319458e-05)
(-0.036529255 -0.086808604 -2.1026231e-05)
(-0.022383968 -0.067834469 3.5931907e-05)
(-0.011266465 -0.047530789 0.00010086627)
(-0.0037210593 -0.027177544 0.00017442406)
(-0.0004568066 -0.0081379906 0.00024412481)
(-0.00055966441 0.014847511 0.000126718)
(-0.0035442347 0.040206399 0.00020559582)
(-0.0096218711 0.061347627 0.00025168439)
(-0.017787462 0.078545349 0.00028555485)
(-0.027476014 0.092154032 0.00031463468)
(-0.038316048 0.10255233 0.00034068928)
(-0.049983717 0.11010581 0.00036530369)
(-0.062209891 0.11514134 0.00038990984)
(-0.074778085 0.11793177 0.00041541492)
(-0.087511842 0.11868939 0.00044224267)
(-0.10026364 0.11756681 0.00047040576)
(-0.11290567 0.11466326 0.00049955125)
(-0.12532172 0.11003453 0.00052900091)
(-0.13740028 0.1037052 0.00055779065)
(-0.1490286 0.095681574 0.0005847111)
(-0.16008775 0.085964669 0.0006083532)
(-0.17044829 0.074562731 0.00062716232)
(-0.17996682 0.061503116 0.00063950516)
(-0.18848325 0.046843705 0.00064375379)
(-0.19581905 0.030684069 0.00063838801)
(-0.20177691 0.013176553 0.00062211587)
(-0.20614223 -0.0054627112 0.00059401097)
(-0.20868707 -0.024943156 0.00055366076)
(-0.20917729 -0.044890353 0.00050131584)
(-0.20738372 -0.06483898 0.00043802675)
(-0.20309807 -0.08423016 0.00036574599)
(-0.1961541 -0.10241572 0.00028737108)
(-0.18645398 -0.11867242 0.00020670062)
(-0.17399876 -0.1322293 0.00012827717)
(-0.15892061 -0.14231093 5.709955e-05)
(-0.14151239 -0.14819757 -1.7940821e-06)
(-0.12224859 -0.14930022 -4.3844549e-05)
(-0.10178994 -0.14524439 -6.5531745e-05)
(-0.080964681 -0.13595068 -6.4875429e-05)
(-0.060723175 -0.12169667 -4.1731609e-05)
(-0.042066728 -0.10314367 2.1322865e-06)
(-0.025945691 -0.081316289 6.277429e-05)
(-0.013145749 -0.05752899 0.00013467841)
(-0.0043777328 -0.033273026 0.00021845731)
(-0.00054796359 -0.010148034 0.00029840635)
(-0.00056496468 0.016697837 0.00020792121)
(-0.0035838486 0.04503105 0.00029373863)
(-0.0097373794 0.068520935 0.00034067093)
(-0.018009847 0.087534261 0.00037557761)
(-0.027828284 0.10251106 0.00040609971)
(-0.038814806 0.11390837 0.00043413578)
(-0.05064036 0.12216055 0.00046137814)
(-0.063032935 0.12765237 0.00048933795)
(-0.075776103 0.13070329 0.00051897055)
(-0.088696535 0.13156138 0.0005507196)
(-0.10165276 0.13040499 0.00058459165)
(-0.11452559 0.12735008 0.0006202014)
(-0.12720952 0.1224614 0.00065680946)
(-0.13960519 0.1157657 0.00069335694)
(-0.1516128 0.10726561 0.00072849952)
(-0.16312632 0.09695344 0.00076064589)
(-0.17402837 0.084824356 0.00078800497)
(-0.18418577 0.070888971 0.00080864731)
(-0.19344566 0.055185611 0.00082058662)
(-0.20163252 0.037792571 0.00082188444)
(-0.20854633 0.018840734 0.00081077963)
(-0.21396228 -0.0014733115 0.00078584297)
(-0.21763297 -0.022873793 0.00074615493)
(-0.2192936 -0.044992562 0.0006914933)
(-0.21867154 -0.067357435 0.00062252424)
(-0.2155013 -0.08938397 0.00054096773)
(-0.20954598 -0.11037367 0.0004497102)
(-0.20062599 -0.12952237 0.0003528278)
(-0.18865463 -0.14594328 0.00025548008)
(-0.17367883 -0.15870918 0.00016363973)
(-0.1559208 -0.16691703 8.3640761e-05)
(-0.13581353 -0.16977529 2.1558981e-05)
(-0.11402059 -0.16670837 -1.7518097e-05)
(-0.091429244 -0.15746577 -3.02108e-05)
(-0.06910956 -0.1422154 -1.5363204e-05)
(-0.048236499 -0.12159738 2.5704872e-05)
(-0.029966783 -0.096717037 8.8778189e-05)
(-0.015293968 -0.069064015 0.00016744592)
(-0.0051391904 -0.040371323 0.00026226408)
(-0.00065672055 -0.012515804 0.0003542612)
(-0.0005632583 0.018557766 0.00030212263)
(-0.0035835087 0.049888136 0.00039515058)
(-0.0097497777 0.07574913 0.00044255182)
(-0.01804716 0.096597037 0.00047830857)
(-0.027899815 0.11295596 0.00051019047)
(-0.038925667 0.12536149 0.00054021596)
(-0.050791929 0.13431827 0.00057017964)
(-0.063224686 0.14027138 0.0006016721)
(-0.076008286 0.1435898 0.0006357041)
(-0.088973217 0.14456038 0.00067275128)
(-0.1019849 0.14339003 0.00071282888)
(-0.11493386 0.14021394 0.00075553544)
(-0.12772676 0.13510779 0.00080008655)
(-0.14027833 0.12810185 0.00084534319)
(-0.15250421 0.1191958 0.00088983769)
(-0.16431446 0.10837314 0.00093180303)