/*--------------------------------*- C++ -*----------------------------------*\
  =========                 |
  \\      /  F ield         | OpenFOAM: The Open Source CFD Toolbox
   \\    /   O peration     | Website:  https://openfoam.org
    \\  /    A nd           | Version:  7
     \\/     M anipulation  |
\*---------------------------------------------------------------------------*/
FoamFile
{
    version     2.0;
    format      ascii;
    class       volScalarField;
    location    "1.15";
    object      T;
}
// * * * * * * * * * * * * * * * * * * * * * * * * * * * * * * * * * * * * * //

dimensions      [0 0 0 1 0 0 0];

internalField   nonuniform List<scalar> 
1000
(
1.6577e-104
2.62875e-104
5.1379e-104
1.06493e-103
2.23758e-103
4.7146e-103
9.93678e-103
2.09382e-102
4.41031e-102
9.28589e-102
1.95434e-101
4.11146e-101
8.64593e-101
1.81738e-100
3.81854e-100
8.01986e-100
1.68365e-99
3.53308e-99
7.41087e-99
1.55382e-98
3.25645e-98
6.82184e-98
1.42847e-97
2.98986e-97
6.25523e-97
1.30811e-96
2.73436e-96
5.71314e-96
1.19317e-95
2.49079e-95
5.19729e-95
1.08398e-94
2.25982e-94
4.709e-94
9.80815e-94
2.04196e-93
4.24923e-93
8.83841e-93
1.83754e-92
3.81857e-92
7.93162e-92
1.64673e-91
3.41726e-91
7.0881e-91
1.46953e-90
3.04523e-90
6.30748e-90
1.30583e-89
2.70213e-89
5.58879e-89
1.15537e-88
2.38733e-88
4.93053e-88
1.0178e-87
2.09999e-87
4.33071e-87
8.92658e-87
1.83906e-86
3.78696e-86
7.79413e-86
1.60334e-85
3.29659e-85
6.77462e-85
1.3915e-84
2.85666e-84
5.86155e-84
1.2021e-83
2.46403e-83
5.04807e-83
1.03366e-82
2.11545e-82
4.32711e-82
8.84636e-82
1.80759e-81
3.69152e-81
7.5349e-81
1.53715e-80
3.13415e-80
6.38688e-80
1.30083e-79
2.64799e-79
5.38732e-79
1.09544e-78
2.22621e-78
4.52169e-78
9.17895e-78
1.86227e-77
3.77612e-77
7.6525e-77
1.54994e-76
3.13746e-76
6.34735e-76
1.28338e-75
2.5934e-75
5.23757e-75
1.05715e-74
2.1325e-74
4.29919e-74
8.66217e-74
1.74425e-73
3.5102e-73
7.05984e-73
1.41904e-72
2.85059e-72
5.72281e-72
1.14821e-71
2.30231e-71
4.6136e-71
9.23948e-71
1.84921e-70
3.69873e-70
7.39345e-70
1.47696e-69
2.94859e-69
5.88281e-69
1.17295e-68
2.33718e-68
4.65401e-68
9.26149e-68
1.84184e-67
3.66049e-67
7.27011e-67
1.44297e-66
2.8621e-66
5.67314e-66
1.12375e-65
2.22448e-65
4.40039e-65
8.6988e-65
1.71843e-64
3.3924e-64
6.69242e-64
1.31935e-63
2.59916e-63
5.11687e-63
1.00663e-62
1.97893e-62
3.88762e-62
7.63182e-62
1.49714e-61
2.93483e-61
5.74898e-61
1.12534e-60
2.2012e-60
4.30246e-60
8.4034e-60
1.64011e-59
3.19864e-59
6.23355e-59
1.21389e-58
2.36208e-58
4.59283e-58
8.9235e-58
1.73244e-57
3.36083e-57
6.51476e-57
1.26187e-56
2.44224e-56
4.72305e-56
9.1267e-56
1.76222e-55
3.39986e-55
6.5541e-55
1.26245e-54
2.42978e-54
4.67266e-54
8.97855e-54
1.72382e-53
3.30687e-53
6.33844e-53
1.21391e-52
2.32286e-52
4.44114e-52
8.48394e-52
1.61931e-51
3.0881e-51
5.88406e-51
1.12018e-50
2.13068e-50
4.04921e-50
7.68847e-50
1.45856e-49
2.76455e-49
5.23522e-49
9.90501e-49
1.87233e-48
3.53603e-48
6.67193e-48
1.25773e-47
2.36878e-47
4.45716e-47
8.37887e-47
1.57364e-46
2.95267e-46
5.53493e-46
1.03656e-45
1.93938e-45
3.62501e-45
6.76917e-45
1.26281e-44
2.3535e-44
4.3819e-44
8.15041e-44
1.51448e-43
2.81133e-43
5.21341e-43
9.6581e-43
1.78738e-42
3.30445e-42
6.10284e-42
1.12594e-41
2.07512e-41
3.82047e-41
7.02637e-41
1.29088e-40
2.36905e-40
4.34308e-40
7.9534e-40
1.45491e-39
2.65854e-39
4.8526e-39
8.84758e-39
1.61136e-38
2.93139e-38
5.32682e-38
9.66873e-38
1.75298e-37
3.17458e-37
5.74244e-37
1.03754e-36
1.87242e-36
3.37516e-36
6.07677e-36
1.09279e-35
1.96282e-35
3.5213e-35
6.3096e-35
1.1292e-34
2.01842e-34
3.60342e-34
6.42514e-34
1.14422e-33
2.03512e-33
3.61513e-33
6.41367e-33
1.13641e-32
2.01097e-32
3.55398e-32
6.27277e-32
1.1057e-31
1.94644e-31
3.42191e-31
6.00784e-31
1.05338e-30
1.84445e-30
3.2252e-30
5.63189e-30
9.82095e-30
1.71022e-29
2.97402e-29
5.1645e-29
8.95568e-29
1.55079e-28
2.68155e-28
4.63014e-28
7.98313e-28
1.37442e-27
2.36281e-27
4.05599e-27
6.95216e-27
1.18985e-26
2.03335e-26
3.46956e-26
5.91117e-26
1.00555e-25
1.70792e-25
2.89636e-25
4.90408e-25
8.29046e-25
1.3993e-24
2.35803e-24
3.96724e-24
6.66385e-24
1.11752e-23
1.87099e-23
3.12731e-23
5.21854e-23
8.6936e-23
1.44584e-22
2.4005e-22
3.97871e-22
6.58318e-22
1.08737e-21
1.79293e-21
2.95111e-21
4.84888e-21
7.95287e-21
1.30205e-20
2.1279e-20
3.47124e-20
5.65228e-20
9.18678e-20
1.49038e-19
2.41336e-19
3.90059e-19
6.2924e-19
1.01315e-18
1.62817e-18
2.61148e-18
4.18049e-18
6.6791e-18
1.065e-17
1.69481e-17
2.69168e-17
4.26629e-17
6.74833e-17
1.06526e-16
1.67811e-16
2.63807e-16
4.13852e-16
6.47876e-16
1.01209e-15
1.57769e-15
2.45411e-15
3.80913e-15
5.89947e-15
9.11693e-15
1.40581e-14
2.1629e-14
3.3203e-14
5.08555e-14
7.77165e-14
1.18494e-13
1.80251e-13
2.73561e-13
4.14205e-13
6.25685e-13
9.42906e-13
1.41757e-12
2.12608e-12
3.18099e-12
4.74777e-12
7.06888e-12
1.04988e-11
1.55542e-11
2.29864e-11
3.38842e-11
4.9822e-11
7.30692e-11
1.06888e-10
1.55955e-10
2.26953e-10
3.29405e-10
4.76844e-10
6.88438e-10
9.91261e-10
1.42344e-09
2.03849e-09
2.91131e-09
4.14641e-09
5.88913e-09
8.34097e-09
1.17804e-08
1.65911e-08
2.32999e-08
3.26277e-08
4.55581e-08
6.34283e-08
8.80502e-08
1.21871e-07
1.68183e-07
2.31404e-07
3.17437e-07
4.34143e-07
5.91957e-07
8.04674e-07
1.09047e-06
1.47322e-06
1.98412e-06
2.66386e-06
3.56522e-06
4.7565e-06
6.32566e-06
8.38558e-06
1.10806e-05
1.45944e-05
1.916e-05
2.50718e-05
3.26999e-05
4.2508e-05
5.50748e-05
7.11188e-05
9.15289e-05
0.0001174
0.000150075
0.000191191
0.000242742
0.000307136
0.000387275
0.000486637
0.000609372
0.000760405
0.000945555
0.00117167
0.00144674
0.00178008
0.00218249
0.00266635
0.0032459
0.00393733
0.00475896
0.00573143
0.00687784
0.00822388
0.00979796
0.0116312
0.0137577
0.0162142
0.0190403
0.0222783
0.0259727
0.0301706
0.0349205
0.0402727
0.0462782
0.0529883
0.0604541
0.0687255
0.0778504
0.087874
0.0988378
0.110778
0.123727
0.137708
0.152739
0.168829
0.185977
0.204174
0.223399
0.243623
0.264804
0.28689
0.309819
0.33352
0.357909
0.382898
0.408388
0.434275
0.460449
0.486797
0.513203
0.539551
0.565725
0.591612
0.617102
0.642091
0.66648
0.690181
0.71311
0.735196
0.756377
0.776601
0.795826
0.814023
0.831171
0.847261
0.862292
0.876273
0.889222
0.901162
0.912126
0.922149
0.931274
0.939545
0.947011
0.953721
0.959726
0.965078
0.969827
0.974025
0.977718
0.980955
0.983779
0.986234
0.988358
0.990187
0.991757
0.993097
0.994236
0.995199
0.996008
0.996683
0.997242
0.9977
0.99807
0.998362
0.998586
0.998747
0.998852
0.998904
0.998904
0.998852
0.998747
0.998586
0.998362
0.99807
0.9977
0.997242
0.996683
0.996008
0.995199
0.994236
0.993097
0.991757
0.990187
0.988358
0.986234
0.983779
0.980955
0.977718
0.974025
0.969827
0.965078
0.959726
0.953721
0.947011
0.939545
0.931274
0.922149
0.912126
0.901162
0.889222
0.876273
0.862292
0.847261
0.831171
0.814023
0.795826
0.776601
0.756377
0.735196
0.71311
0.690181
0.66648
0.642091
0.617102
0.591612
0.565725
0.539551
0.513203
0.486797
0.460449
0.434275
0.408388
0.382898
0.357909
0.33352
0.309819
0.28689
0.264804
0.243623
0.223399
0.204174
0.185977
0.168829
0.152739
0.137708
0.123727
0.110778
0.0988378
0.087874
0.0778504
0.0687255
0.0604541
0.0529883
0.0462782
0.0402727
0.0349205
0.0301706
0.0259727
0.0222783
0.0190403
0.0162142
0.0137577
0.0116312
0.00979796
0.00822388
0.00687784
0.00573143
0.00475896
0.00393733
0.0032459
0.00266635
0.00218249
0.00178008
0.00144674
0.00117167
0.000945555
0.000760405
0.000609372
0.000486637
0.000387275
0.000307136
0.000242742
0.000191191
0.000150075
0.0001174
9.15289e-05
7.11188e-05
5.50748e-05
4.2508e-05
3.26999e-05
2.50718e-05
1.916e-05
1.45944e-05
1.10806e-05
8.38558e-06
6.32566e-06
4.7565e-06
3.56522e-06
2.66386e-06
1.98412e-06
1.47322e-06
1.09047e-06
8.04674e-07
5.91957e-07
4.34143e-07
3.17437e-07
2.31404e-07
1.68183e-07
1.21871e-07
8.80502e-08
6.34283e-08
4.55581e-08
3.26277e-08
2.32999e-08
1.65911e-08
1.17804e-08
8.34097e-09
5.88913e-09
4.14641e-09
2.91131e-09
2.03849e-09
1.42344e-09
9.91261e-10
6.88438e-10
4.76844e-10
3.29405e-10
2.26953e-10
1.55955e-10
1.06888e-10
7.30692e-11
4.9822e-11
3.38842e-11
2.29864e-11
1.55542e-11
1.04988e-11
7.06888e-12
4.74777e-12
3.18099e-12
2.12608e-12
1.41757e-12
9.42906e-13
6.25685e-13
4.14205e-13
2.73561e-13
1.80251e-13
1.18494e-13
7.77165e-14
5.08555e-14
3.3203e-14
2.1629e-14
1.40581e-14
9.11693e-15
5.89947e-15
3.80913e-15
2.45411e-15
1.57769e-15
1.01209e-15
6.47876e-16
4.13852e-16
2.63807e-16
1.67811e-16
1.06526e-16
6.74833e-17
4.26629e-17
2.69168e-17
1.69481e-17
1.065e-17
6.6791e-18
4.18049e-18
2.61148e-18
1.62817e-18
1.01315e-18
6.2924e-19
3.90059e-19
2.41336e-19
1.49038e-19
9.18678e-20
5.65228e-20
3.47124e-20
2.1279e-20
1.30205e-20
7.95287e-21
4.84888e-21
2.95111e-21
1.79293e-21
1.08737e-21
6.58318e-22
3.97871e-22
2.4005e-22
1.44584e-22
8.6936e-23
5.21854e-23
3.12731e-23
1.87099e-23
1.11752e-23
6.66385e-24
3.96724e-24
2.35803e-24
1.3993e-24
8.29046e-25
4.90408e-25
2.89636e-25
1.70792e-25
1.00555e-25
5.91117e-26
3.46956e-26
2.03335e-26
1.18985e-26
6.95216e-27
4.05599e-27
2.36281e-27
1.37442e-27
7.98313e-28
4.63014e-28
2.68155e-28
1.55079e-28
8.95568e-29
5.1645e-29
2.97402e-29
1.71022e-29
9.82095e-30
5.63189e-30
3.2252e-30
1.84445e-30
1.05338e-30
6.00784e-31
3.42191e-31
1.94644e-31
1.1057e-31
6.27277e-32
3.55398e-32
2.01097e-32
1.13641e-32
6.41367e-33
3.61513e-33
2.03512e-33
1.14422e-33
6.42514e-34
3.60342e-34
2.01842e-34
1.1292e-34
6.3096e-35
3.5213e-35
1.96282e-35
1.09279e-35
6.07677e-36
3.37516e-36
1.87242e-36
1.03754e-36
5.74244e-37
3.17458e-37
1.75298e-37
9.66873e-38
5.32682e-38
2.93139e-38
1.61136e-38
8.84758e-39
4.8526e-39
2.65854e-39
1.45491e-39
7.9534e-40
4.34308e-40
2.36905e-40
1.29088e-40
7.02637e-41
3.82047e-41
2.07512e-41
1.12594e-41
6.10284e-42
3.30445e-42
1.78738e-42
9.6581e-43
5.21341e-43
2.81133e-43
1.51448e-43
8.15041e-44
4.3819e-44
2.3535e-44
1.26281e-44
6.76917e-45
3.62501e-45
1.93938e-45
1.03656e-45
5.53493e-46
2.95267e-46
1.57364e-46
8.37887e-47
4.45716e-47
2.36878e-47
1.25773e-47
6.67193e-48
3.53603e-48
1.87233e-48
9.90501e-49
5.23522e-49
2.76455e-49
1.45856e-49
7.68847e-50
4.04921e-50
2.13068e-50
1.12018e-50
5.88406e-51
3.0881e-51
1.61931e-51
8.48394e-52
4.44114e-52
2.32286e-52
1.21391e-52
6.33844e-53
3.30687e-53
1.72382e-53
8.97855e-54
4.67266e-54
2.42978e-54
1.26245e-54
6.5541e-55
3.39986e-55
1.76222e-55
9.1267e-56
4.72305e-56
2.44224e-56
1.26187e-56
6.51476e-57
3.36083e-57
1.73244e-57
8.9235e-58
4.59283e-58
2.36208e-58
1.21389e-58
6.23355e-59
3.19864e-59
1.64011e-59
8.4034e-60
4.30246e-60
2.2012e-60
1.12534e-60
5.74898e-61
2.93483e-61
1.49714e-61
7.63182e-62
3.88762e-62
1.97893e-62
1.00663e-62
5.11687e-63
2.59916e-63
1.31935e-63
6.69242e-64
3.3924e-64
1.71843e-64
8.6988e-65
4.40039e-65
2.22448e-65
1.12375e-65
5.67314e-66
2.8621e-66
1.44297e-66
7.27011e-67
3.66049e-67
1.84184e-67
9.26149e-68
4.65401e-68
2.33718e-68
1.17295e-68
5.88281e-69
2.94859e-69
1.47696e-69
7.39345e-70
3.69873e-70
1.84921e-70
9.23948e-71
4.6136e-71
2.30231e-71
1.14821e-71
5.72281e-72
2.85059e-72
1.41904e-72
7.05984e-73
3.5102e-73
1.74425e-73
8.66217e-74
4.29919e-74
2.1325e-74
1.05715e-74
5.23757e-75
2.5934e-75
1.28338e-75
6.34735e-76
3.13746e-76
1.54994e-76
7.6525e-77
3.77612e-77
1.86227e-77
9.17895e-78
4.52169e-78
2.22621e-78
1.09544e-78
5.38732e-79
2.64799e-79
1.30083e-79
6.38688e-80
3.13415e-80
1.53715e-80
7.5349e-81
3.69152e-81
1.80759e-81
8.84636e-82
4.32711e-82
2.11545e-82
1.03366e-82
5.04807e-83
2.46403e-83
1.2021e-83
5.86155e-84
2.85666e-84
1.3915e-84
6.77462e-85
3.29659e-85
1.60334e-85
7.79413e-86
3.78696e-86
1.83906e-86
8.92658e-87
4.33071e-87
2.09999e-87
1.0178e-87
4.93053e-88
2.38733e-88
1.15537e-88
5.58879e-89
2.70213e-89
1.30583e-89
6.30748e-90
3.04523e-90
1.46953e-90
7.0881e-91
3.41726e-91
1.64673e-91
7.93162e-92
3.81857e-92
1.83754e-92
8.83841e-93
4.24923e-93
2.04196e-93
9.80815e-94
4.709e-94
2.25982e-94
1.08398e-94
5.19729e-95
2.49079e-95
1.19317e-95
5.71314e-96
2.73436e-96
1.30811e-96
6.25523e-97
2.98986e-97
1.42847e-97
6.82184e-98
3.25645e-98
1.55382e-98
7.41087e-99
3.53308e-99
1.68365e-99
8.01986e-100
3.81854e-100
1.81738e-100
8.64593e-101
4.11146e-101
1.95434e-101
9.28589e-102
4.41031e-102
2.09382e-102
9.93678e-103
4.7146e-103
2.23758e-103
1.06493e-103
5.1379e-104
2.62875e-104
1.6577e-104
)
;

boundaryField
{
    sides
    {
        type            zeroGradient;
    }
    empty
    {
        type            empty;
    }
}


// ************************************************************************* //
