/*--------------------------------*- C++ -*----------------------------------*\
  =========                 |
  \\      /  F ield         | OpenFOAM: The Open Source CFD Toolbox
   \\    /   O peration     | Website:  https://openfoam.org
    \\  /    A nd           | Version:  7
     \\/     M anipulation  |
\*---------------------------------------------------------------------------*/
FoamFile
{
    version     2.0;
    format      ascii;
    class       volVectorField;
    location    "4";
    object      U;
}
// * * * * * * * * * * * * * * * * * * * * * * * * * * * * * * * * * * * * * //

dimensions      [0 1 -1 0 0 0 0];

internalField   nonuniform List<vector> 
8800
(
(0.978371 -0.0913437 0)
(1.00272 -0.0589113 0)
(0.999948 -0.0312222 0)
(1.00116 -0.0157264 0)
(1.00093 -0.00808872 0)
(1.00061 -0.00418564 0)
(1.00044 -0.00217224 0)
(1.00031 -0.00119983 0)
(1.00021 -0.00057897 0)
(0.999964 -9.27718e-05 0)
(1.00012 0.000338711 0)
(1.00027 0.000903781 0)
(1.00037 0.00163768 0)
(1.00054 0.00297801 0)
(1.00077 0.00584513 0)
(1.00112 0.0112764 0)
(1.0009 0.0221672 0)
(0.998893 0.0424449 0)
(1.00761 0.0797455 0)
(0.774781 0.0480672 0)
(0.366349 -0.0132728 0)
(1.04974 -0.0668661 0)
(1.09066 -0.0610974 0)
(1.05036 -0.0479764 0)
(1.02375 -0.035255 0)
(1.00944 -0.0243055 0)
(1.00364 -0.0163185 0)
(1.00133 -0.0106009 0)
(1.00063 -0.0063262 0)
(1.00072 -0.00254138 0)
(1.00088 0.0010318 0)
(1.00054 0.00473668 0)
(1.00083 0.00858147 0)
(1.00215 0.013382 0)
(1.00586 0.0200611 0)
(1.01537 0.0295908 0)
(1.03534 0.0417005 0)
(1.06985 0.0545032 0)
(1.09663 0.0654101 0)
(0.850123 0.0517915 0)
(0.249116 -0.000368747 0)
(1.07564 -0.0307154 0)
(1.08951 -0.0345808 0)
(1.05895 -0.0326088 0)
(1.03833 -0.0290927 0)
(1.02499 -0.0244313 0)
(1.01617 -0.0185093 0)
(1.01091 -0.0124215 0)
(1.0081 -0.00665959 0)
(1.00682 -0.00104369 0)
(1.00728 0.00449257 0)
(1.00917 0.010097 0)
(1.01302 0.0159588 0)
(1.01986 0.0219933 0)
(1.03074 0.0272637 0)
(1.04715 0.0311186 0)
(1.07284 0.0339652 0)
(1.09776 0.0342068 0)
(0.967515 0.0249544 0)
(0.248934 0.000375313 0)
(0.238817 0.000372137 0)
(1.03219 -0.00887276 0)
(1.06815 -0.0188222 0)
(1.05194 -0.0243752 0)
(1.03745 -0.0252179 0)
(1.02673 -0.0227336 0)
(1.01896 -0.0185613 0)
(1.01365 -0.0133288 0)
(1.01043 -0.0074461 0)
(1.00893 -0.000939874 0)
(1.00937 0.00562773 0)
(1.01162 0.0116629 0)
(1.0158 0.0170833 0)
(1.02224 0.0216339 0)
(1.03138 0.0248689 0)
(1.04391 0.0258594 0)
(1.06022 0.0227186 0)
(1.06667 0.014584 0)
(0.91336 0.00390021 0)
(0.23848 -0.000363259 0)
(0.239467 -2.00853e-05 0)
(1.00974 -0.00365581 0)
(1.05124 -0.00944132 0)
(1.04669 -0.014069 0)
(1.03978 -0.0164503 0)
(1.03278 -0.0166756 0)
(1.02648 -0.0148619 0)
(1.02131 -0.0113871 0)
(1.01762 -0.00664066 0)
(1.01586 -0.000675966 0)
(1.0163 0.00551482 0)
(1.0189 0.0107893 0)
(1.02318 0.014719 0)
(1.02888 0.0171811 0)
(1.03556 0.0178224 0)
(1.04251 0.0162845 0)
(1.04892 0.012529 0)
(1.04461 0.00686053 0)
(0.895987 0.00153934 0)
(0.238943 3.09294e-05 0)
(0.238622 1.6474e-05 0)
(0.998518 -0.00150557 0)
(1.03942 -0.00429694 0)
(1.03849 -0.00711711 0)
(1.03519 -0.00921696 0)
(1.03128 -0.0101528 0)
(1.02724 -0.00968735 0)
(1.02345 -0.00777518 0)
(1.02043 -0.00448662 0)
(1.01894 -4.36653e-05 0)
(1.01922 0.00459622 0)
(1.02137 0.00827076 0)
(1.02441 0.0106235 0)
(1.02825 0.0114807 0)
(1.03219 0.0109042 0)
(1.03573 0.00904854 0)
(1.03828 0.00628884 0)
(1.03153 0.00314263 0)
(0.887679 0.000679618 0)
(0.237836 -7.34122e-06 0)
(0.238354 -2.14596e-06 0)
(0.993917 -0.000771285 0)
(1.03427 -0.00203715 0)
(1.0346 -0.00344622 0)
(1.0331 -0.00468947 0)
(1.03102 -0.00543878 0)
(1.02852 -0.00543646 0)
(1.02589 -0.0044526 0)
(1.02357 -0.00237983 0)
(1.02224 0.000593416 0)
(1.02234 0.00369256 0)
(1.02386 0.00592296 0)
(1.02591 0.00706731 0)
(1.02829 0.00714544 0)
(1.03044 0.00635239 0)
(1.03212 0.00497196 0)
(1.03308 0.00332209 0)
(1.02565 0.00168786 0)
(0.883906 0.000449043 0)
(0.237365 1.32268e-05 0)
(0.238173 4.85142e-06 0)
(0.991645 -0.000342487 0)
(1.03169 -0.000943556 0)
(1.03239 -0.00163262 0)
(1.03161 -0.00227466 0)
(1.03042 -0.00270007 0)
(1.02888 -0.00272261 0)
(1.0271 -0.00214068 0)
(1.02539 -0.000823182 0)
(1.02422 0.00114433 0)
(1.0241 0.00316239 0)
(1.02498 0.00445786 0)
(1.02622 0.00492388 0)
(1.02756 0.004707 0)
(1.02871 0.0040017 0)
(1.02954 0.00303743 0)
(1.02993 0.00200761 0)
(1.02237 0.00104559 0)
(0.881607 0.000308358 0)
(0.236904 1.11137e-05 0)
(0.238186 5.30318e-06 0)
(0.99065 -8.08331e-05 0)
(1.03051 -0.000328296 0)
(1.03139 -0.000615747 0)
(1.03093 -0.0008772 0)
(1.03019 -0.00102724 0)
(1.02917 -0.000950829 0)
(1.02792 -0.000511422 0)
(1.0266 0.000387947 0)
(1.02554 0.0017015 0)
(1.02519 0.00296764 0)
(1.02554 0.00365642 0)
(1.02617 0.00375603 0)
(1.02686 0.00341827 0)
(1.02743 0.00281277 0)
(1.02783 0.0020987 0)
(1.02795 0.00138749 0)
(1.02033 0.000744685 0)
(0.880073 0.000241069 0)
(0.236541 1.19016e-05 0)
(0.238326 1.21829e-05 0)
(0.990401 8.37668e-05 0)
(1.03012 5.35655e-05 0)
(1.03107 1.95661e-05 0)
(1.03076 1.56398e-05 0)
(1.03025 8.63483e-05 0)
(1.02951 0.000296055 0)
(1.02855 0.000721039 0)
(1.02745 0.00141187 0)
(1.02641 0.00231766 0)
(1.02581 0.00308545 0)
(1.02571 0.00341468 0)
(1.0259 0.00324525 0)
(1.02616 0.00282678 0)
(1.02638 0.00227026 0)
(1.02654 0.00167932 0)
(1.02652 0.00111799 0)
(1.01886 0.000621264 0)
(0.878879 0.000219637 0)
(0.236198 1.34813e-05 0)
(0.238575 1.43203e-05 0)
(0.990603 0.000211496 0)
(1.03027 0.000339815 0)
(1.03125 0.000486983 0)
(1.031 0.000676615 0)
(1.03058 0.00093179 0)
(1.02997 0.00128321 0)
(1.02913 0.0017629 0)
(1.02809 0.00237556 0)
(1.02697 0.00304218 0)
(1.02611 0.00347252 0)
(1.02566 0.00348164 0)
(1.02547 0.00317926 0)
(1.02542 0.00268193 0)
(1.02542 0.00211689 0)
(1.02543 0.00155815 0)
(1.02532 0.00104594 0)
(1.01763 0.000598542 0)
(0.877798 0.000226714 0)
(0.235835 1.6026e-05 0)
(0.238932 1.98789e-05 0)
(0.99122 0.000340717 0)
(1.03081 0.000598746 0)
(1.03179 0.000896935 0)
(1.03156 0.00125342 0)
(1.03117 0.00167908 0)
(1.03058 0.00218341 0)
(1.02974 0.00276423 0)
(1.02865 0.00338537 0)
(1.02735 0.00392972 0)
(1.02618 0.00413603 0)
(1.02539 0.00392076 0)
(1.0249 0.00345281 0)
(1.02461 0.00285526 0)
(1.02444 0.00223012 0)
(1.02433 0.00163805 0)
(1.02415 0.00110812 0)
(1.01644 0.000648277 0)
(0.876684 0.000257928 0)
(0.235419 1.97964e-05 0)
(0.239417 2.56871e-05 0)
(0.992198 0.000472197 0)
(1.03172 0.000859726 0)
(1.03269 0.00130801 0)
(1.03244 0.00183255 0)
(1.03202 0.00243797 0)
(1.03138 0.00311752 0)
(1.03045 0.00384206 0)
(1.02919 0.004537 0)
(1.02762 0.00504029 0)
(1.02608 0.00509048 0)
(1.02493 0.00469079 0)
(1.02416 0.00403832 0)
(1.02365 0.0032949 0)
(1.02333 0.00255686 0)
(1.02313 0.00187583 0)
(1.02289 0.00127462 0)
(1.01514 0.000755333 0)
(0.87542 0.000308178 0)
(0.234916 2.45771e-05 0)
(0.240052 3.3248e-05 0)
(0.993564 0.00062797 0)
(1.03302 0.00115707 0)
(1.03395 0.00177073 0)
(1.03366 0.00248365 0)
(1.03317 0.00329474 0)
(1.03241 0.0041844 0)
(1.03131 0.00509903 0)
(1.02979 0.00592389 0)
(1.02783 0.00644402 0)
(1.02584 0.00637083 0)
(1.02429 0.00577485 0)
(1.02321 0.00491795 0)
(1.02248 0.00398497 0)
(1.02201 0.0030812 0)
(1.02171 0.00225947 0)
(1.02142 0.0015391 0)
(1.01363 0.000919201 0)
(0.873908 0.000380316 0)
(0.234296 3.10317e-05 0)
(0.240877 4.29874e-05 0)
(0.995381 0.000820083 0)
(1.03475 0.00151876 0)
(1.03564 0.0023286 0)
(1.03528 0.00326598 0)
(1.03467 0.00432576 0)
(1.03375 0.00547527 0)
(1.03238 0.00663526 0)
(1.03049 0.00764635 0)
(1.02801 0.00822849 0)
(1.02545 0.00804421 0)
(1.02343 0.00722758 0)
(1.02199 0.00611857 0)
(1.02101 0.00493953 0)
(1.02038 0.00381228 0)
(1.01998 0.00279425 0)
(1.01963 0.00190483 0)
(1.01178 0.00114113 0)
(0.872045 0.000475286 0)
(0.233519 3.90121e-05 0)
(0.241945 5.56684e-05 0)
(0.997756 0.00106371 0)
(1.03701 0.00197239 0)
(1.03784 0.00302596 0)
(1.03738 0.00424252 0)
(1.03662 0.00561245 0)
(1.03545 0.00708879 0)
(1.03373 0.00856207 0)
(1.03133 0.00982055 0)
(1.02818 0.0105023 0)
(1.02491 0.0102005 0)
(1.0223 0.00911874 0)
(1.02044 0.00769353 0)
(1.01917 0.00619752 0)
(1.01835 0.00477741 0)
(1.01783 0.00350034 0)
(1.0174 0.00238836 0)
(1.00948 0.00143264 0)
(0.869714 0.000597941 0)
(0.232542 4.91193e-05 0)
(0.243331 7.24713e-05 0)
(1.00083 0.00137821 0)
(1.03995 0.00255384 0)
(1.0407 0.00391669 0)
(1.04011 0.00548708 0)
(1.03913 0.00725053 0)
(1.03763 0.00914157 0)
(1.03543 0.0110132 0)
(1.03236 0.012588 0)
(1.02835 0.0134025 0)
(1.02417 0.01296 0)
(1.02084 0.0115469 0)
(1.01846 0.00972049 0)
(1.01684 0.00781938 0)
(1.01578 0.00602271 0)
(1.01512 0.00441052 0)
(1.01461 0.00300917 0)
(1.0066 0.00180554 0)
(0.86678 0.000754183 0)
(0.231311 6.18244e-05 0)
(0.245134 9.48587e-05 0)
(1.00482 0.0017885 0)
(1.04375 0.0033086 0)
(1.04439 0.00507003 0)
(1.04361 0.00709524 0)
(1.04235 0.00936159 0)
(1.04041 0.0117801 0)
(1.03757 0.0141552 0)
(1.03364 0.0161257 0)
(1.02852 0.017101 0)
(1.0232 0.0164749 0)
(1.01896 0.0146393 0)
(1.01594 0.012302 0)
(1.01388 0.00988508 0)
(1.01254 0.00760879 0)
(1.0117 0.00557033 0)
(1.01108 0.00379917 0)
(1.00296 0.00227919 0)
(0.863077 0.00095103 0)
(0.229761 7.7713e-05 0)
(0.247492 0.000125188 0)
(1.00998 0.00233091 0)
(1.04867 0.00430045 0)
(1.04915 0.00657975 0)
(1.04813 0.00919291 0)
(1.04647 0.0121064 0)
(1.04394 0.0151972 0)
(1.04027 0.0182046 0)
(1.03521 0.0206596 0)
(1.02866 0.0218144 0)
(1.02191 0.0209365 0)
(1.01655 0.0185571 0)
(1.01273 0.015571 0)
(1.01013 0.0125004 0)
(1.00844 0.0096162 0)
(1.00737 0.00703729 0)
(1.00662 0.00479762 0)
(0.998366 0.00287686 0)
(0.858402 0.00119867 0)
(0.22781 9.73326e-05 0)
(0.250602 0.000167198 0)
(1.01668 0.00305895 0)
(1.05505 0.00562196 0)
(1.05531 0.00858102 0)
(1.05395 0.0119605 0)
(1.05176 0.0157082 0)
(1.04844 0.0196533 0)
(1.04365 0.023446 0)
(1.03712 0.0264787 0)
(1.02876 0.027813 0)
(1.02021 0.0265808 0)
(1.01345 0.0235002 0)
(1.00865 0.0196925 0)
(1.00538 0.0157983 0)
(1.00324 0.0121488 0)
(1.00191 0.00888799 0)
(1.00099 0.00605753 0)
(0.992556 0.00362952 0)
(0.8525 0.00150951 0)
(0.22536 0.000121878 0)
(0.254751 0.000226738 0)
(1.02543 0.00405498 0)
(1.06334 0.00741625 0)
(1.0633 0.0112772 0)
(1.06146 0.0156599 0)
(1.05852 0.0204849 0)
(1.05412 0.0255091 0)
(1.04784 0.0302596 0)
(1.03939 0.0339526 0)
(1.02874 0.0354285 0)
(1.01796 0.0336912 0)
(1.00949 0.0297096 0)
(1.00347 0.0248699 0)
(0.999371 0.0199465 0)
(0.996683 0.0153395 0)
(0.994997 0.0112237 0)
(0.993867 0.00764945 0)
(0.985218 0.0045808 0)
(0.845052 0.0019016 0)
(0.222283 0.000152547 0)
(0.260388 0.000316203 0)
(1.0369 0.00547314 0)
(1.07415 0.00993515 0)
(1.07367 0.0149974 0)
(1.07114 0.0206933 0)
(1.06713 0.0269042 0)
(1.06121 0.0332741 0)
(1.05292 0.0391555 0)
(1.04199 0.0435481 0)
(1.02847 0.0450573 0)
(1.01497 0.0426002 0)
(1.00442 0.0374731 0)
(0.99692 0.0313554 0)
(0.991785 0.0251616 0)
(0.988406 0.0193678 0)
(0.986281 0.014187 0)
(0.984886 0.00967914 0)
(0.975957 0.0057974 0)
(0.835652 0.00240169 0)
(0.218414 0.000191838 0)
(0.268283 0.000466699 0)
(1.05204 0.00764259 0)
(1.08836 0.0136529 0)
(1.08722 0.0202889 0)
(1.0836 0.0276844 0)
(1.07799 0.0356629 0)
(1.06988 0.0436676 0)
(1.05887 0.0508045 0)
(1.04474 0.0558349 0)
(1.0277 0.0571528 0)
(1.01096 0.0536773 0)
(0.997952 0.0471197 0)
(0.988663 0.0394581 0)
(0.982248 0.0317325 0)
(0.977987 0.0244957 0)
(0.975296 0.0180054 0)
(0.973563 0.0123333 0)
(0.964279 0.00741069 0)
(0.823762 0.00306939 0)
(0.213518 0.000246421 0)
(0.279901 0.000755846 0)
(1.07246 0.0112906 0)
(1.10753 0.0193991 0)
(1.10522 0.0279949 0)
(1.09973 0.03758 0)
(1.09153 0.047791 0)
(1.08023 0.0576802 0)
(1.06551 0.0660501 0)
(1.04733 0.0714636 0)
(1.02608 0.0721961 0)
(1.00561 0.0673098 0)
(0.989762 0.0590141 0)
(0.978363 0.0495568 0)
(0.970365 0.040057 0)
(0.964952 0.0311313 0)
(0.961481 0.0230837 0)
(0.959277 0.016003 0)
(0.949528 0.00975328 0)
(0.808628 0.00408193 0)
(0.207209 0.000336538 0)
(0.297986 0.00135145 0)
(1.10128 0.0179144 0)
(1.13443 0.0285615 0)
(1.12961 0.0396189 0)
(1.12066 0.0521232 0)
(1.1083 0.0649956 0)
(1.09234 0.0767262 0)
(1.07268 0.0859365 0)
(1.04949 0.0911453 0)
(1.02333 0.0906621 0)
(0.99869 0.0838759 0)
(0.979683 0.0735479 0)
(0.965842 0.0621193 0)
(0.955878 0.0507035 0)
(0.948885 0.03994 0)
(0.944192 0.0301599 0)
(0.941127 0.0214741 0)
(0.930671 0.0135796 0)
(0.789215 0.00589094 0)
(0.198893 0.00050763 0)
(0.325933 0.00279557 0)
(1.14347 0.0315688 0)
(1.17192 0.0449112 0)
(1.16181 0.0593551 0)
(1.14695 0.0752715 0)
(1.12838 0.090319 0)
(1.10606 0.102866 0)
(1.08017 0.111733 0)
(1.05109 0.115604 0)
(1.01947 0.112951 0)
(0.99032 0.103664 0)
(0.967886 0.0910509 0)
(0.951281 0.0776044 0)
(0.938911 0.064331 0)
(0.92973 0.0518073 0)
(0.923007 0.0403476 0)
(0.91811 0.0300382 0)
(0.906319 0.0202884 0)
(0.764171 0.00903079 0)
(0.188578 0.000761251 0)
(0.368612 0.0125431 1.88685e-20)
(1.19912 0.0611063 1.80832e-20)
(1.21802 0.077367 -6.80335e-21)
(1.19892 0.0947089 0)
(1.17573 0.111765 -1.99222e-34)
(1.14919 0.126505 2.96077e-21)
(1.11937 0.137811 -5.63009e-21)
(1.08652 0.144716 0)
(1.05104 0.14605 1.22026e-34)
(1.0135 0.140451 -7.5375e-21)
(0.979396 0.128311 0)
(0.953051 0.113417 -9.19994e-21)
(0.933088 0.0982007 -2.73044e-20)
(0.917589 0.0835196 -1.29703e-20)
(0.905258 0.0698725 -3.94192e-21)
(0.895253 0.0576479 -2.35886e-21)
(0.886826 0.0468424 0)
(0.872478 0.0371111 1.68422e-21)
(0.73043 0.0242586 1.99044e-21)
(0.177889 0.00549321 3.6034e-20)
(0.386573 0.0341547 6.33456e-21)
(1.25011 0.113775 4.93798e-22)
(1.26051 0.129883 1.57378e-21)
(1.23243 0.145147 0)
(1.20062 0.15987 -9.3736e-21)
(1.16622 0.172273 -1.10771e-20)
(1.1292 0.181257 -5.50959e-21)
(1.08965 0.185722 -2.0582e-20)
(1.04778 0.184512 0)
(1.00391 0.176242 3.18847e-20)
(0.963973 0.161887 3.20922e-20)
(0.93265 0.145613 9.62641e-21)
(0.908294 0.129736 3.56747e-20)
(0.888654 0.114953 5.0848e-20)
(0.872285 0.101708 0)
(0.858172 0.0904364 7.33395e-20)
(0.845533 0.0813878 1.06765e-19)
(0.827603 0.073826 1.19304e-19)
(0.696633 0.0583129 -1.38315e-19)
(0.174825 0.0153296 -2.57881e-21)
(0.373174 0.0554623 0)
(1.28319 0.184444 3.65936e-22)
(1.29185 0.196388 0)
(1.25741 0.206512 -9.17921e-21)
(1.2192 0.216506 0)
(1.17842 0.224658 -2.06535e-20)
(1.13517 0.229761 1.10136e-20)
(1.0896 0.230606 -4.03559e-20)
(1.04196 0.225977 -1.25897e-21)
(0.992546 0.214581 1.62211e-20)
(0.947807 0.197879 7.04993e-20)
(0.912711 0.180409 -5.97524e-23)
(0.885292 0.164376 -2.58861e-20)
(0.863151 0.150257 -4.76872e-20)
(0.844818 0.138246 5.72282e-20)
(0.829317 0.128498 -1.01819e-19)
(0.815857 0.121159 -1.3685e-20)
(0.798523 0.11537 0)
(0.678168 0.0960761 9.00666e-22)
(0.176178 0.0256343 0)
(0.362749 0.0744394 -3.5358e-20)
(1.29909 0.256535 8.22758e-21)
(1.30895 0.266955 -2.23752e-21)
(1.2715 0.272275 3.74608e-21)
(1.22952 0.277181 -6.92009e-21)
(1.1845 0.280497 4.33348e-20)
(1.13673 0.281076 2.28026e-20)
(1.08648 0.277707 0)
(1.03418 0.269138 -7.87935e-20)
(0.980245 0.25419 0)
(0.931706 0.234926 -3.63193e-20)
(0.893862 0.216165 -4.58384e-20)
(0.864575 0.199799 -2.78801e-20)
(0.841226 0.185907 -3.44012e-20)
(0.822224 0.174417 0)
(0.806485 0.165299 0)
(0.793097 0.158513 -8.88782e-20)
(0.776116 0.152944 1.76048e-20)
(0.661293 0.12902 -1.0499e-20)
(0.174347 0.0347083 -1.22589e-20)
(0.356402 0.092246 3.50761e-20)
(1.30457 0.326705 0)
(1.31569 0.336533 -1.11431e-21)
(1.27673 0.337705 9.49893e-21)
(1.23256 0.338241 1.848e-20)
(1.18476 0.337107 0)
(1.13364 0.333262 2.16531e-20)
(1.07973 0.325556 4.40915e-20)
(1.02368 0.312811 3.96974e-20)
(0.966182 0.294002 7.51848e-20)
(0.914859 0.27184 0)
(0.875246 0.251469 -9.70416e-20)
(0.844917 0.234367 -5.88327e-20)
(0.821019 0.220264 -3.46259e-20)
(0.801809 0.208825 2.17506e-19)
(0.7861 0.19976 2.61376e-20)
(0.77291 0.193014 1.25132e-19)
(0.756342 0.187257 -6.02388e-19)
(0.645964 0.158913 3.60916e-19)
(0.172384 0.0431229 -4.35435e-19)
(0.352178 0.109136 4.27458e-20)
(1.30443 0.39289 -5.28365e-21)
(1.31596 0.403264 1.74639e-21)
(1.276 0.401267 -3.69889e-21)
(1.2303 0.398044 -1.25044e-20)
(1.18039 0.392946 1.63836e-21)
(1.12673 0.384993 -2.38434e-20)
(1.06994 0.373072 4.53602e-20)
(1.01093 0.356092 -8.52184e-20)
(0.950676 0.333182 0)
(0.897391 0.307816 -4.35425e-20)
(0.856722 0.285512 -8.06029e-22)
(0.825899 0.267347 -6.34766e-20)
(0.801857 0.252694 0)
(0.78271 0.24096 -4.63357e-20)
(0.767198 0.231682 -1.10621e-19)
(0.754273 0.224701 3.01879e-19)
(0.738082 0.218563 -3.01553e-19)
(0.631555 0.186128 4.31166e-19)
(0.170305 0.0509186 -4.48609e-19)
(0.348778 0.125072 -7.18176e-22)
(1.3008 0.45565 7.98157e-21)
(1.3118 0.466682 1.45364e-20)
(1.27103 0.462157 -9.81496e-22)
(1.22414 0.455869 -6.62157e-21)
(1.17259 0.44733 0)
(1.11682 0.435635 -2.12824e-20)
(1.05764 0.419657 -4.75554e-20)
(0.996167 0.398399 -4.39736e-20)
(0.933769 0.371178 0)
(0.879191 0.342321 -4.33924e-20)
(0.838041 0.317798 -5.40264e-20)
(0.807187 0.298328 6.72589e-20)
(0.783279 0.28292 -4.1771e-20)
(0.764383 0.270672 -1.9589e-19)
(0.749188 0.261028 1.18544e-19)
(0.736576 0.253682 3.66215e-20)
(0.720818 0.247025 0)
(0.617788 0.210893 -4.05884e-19)
(0.168256 0.0581865 -1.47643e-20)
(0.346236 0.140427 7.74035e-21)
(1.29486 0.515185 -9.8311e-21)
(1.30474 0.526875 -7.3492e-21)
(1.26315 0.520282 5.35287e-21)
(1.21517 0.511417 -2.21885e-20)
(1.16213 0.499913 3.80308e-20)
(1.10453 0.484785 4.76752e-20)
(1.04323 0.464954 -7.65611e-20)
(0.979625 0.439394 2.74036e-20)
(0.915516 0.407633 -1.78484e-19)
(0.86022 0.374968 -4.85897e-20)
(0.819139 0.348002 0)
(0.788604 0.327089 7.09689e-20)
(0.765104 0.310772 8.47962e-20)
(0.746602 0.297954 1.02966e-19)
(0.731779 0.28786 -1.2516e-19)
(0.719562 0.280107 -3.72087e-20)
(0.704277 0.272812 4.48883e-20)
(0.604551 0.233432 0)
(0.166426 0.0650429 -3.13695e-20)
(0.344339 0.155293 -9.33858e-20)
(1.28745 0.571729 5.01895e-20)
(1.29576 0.583982 6.30611e-21)
(1.25327 0.575718 2.45754e-21)
(1.20422 0.564707 -8.80821e-21)
(1.14978 0.550576 -2.67069e-21)
(1.09038 0.532336 -5.41035e-20)
(1.02708 0.508812 -2.79932e-20)
(0.961487 0.47888 -7.65257e-20)
(0.896007 0.442307 -1.14879e-22)
(0.840493 0.405512 -1.46683e-19)
(0.799981 0.375914 1.24506e-19)
(0.770142 0.353481 -7.52579e-20)
(0.747281 0.336246 9.1004e-20)
(0.729292 0.322834 0)
(0.714904 0.3123 -6.52602e-20)
(0.703066 0.304148 -1.85682e-21)
(0.688296 0.296265 -1.87683e-19)
(0.591958 0.254109 -2.8252e-20)
(0.164785 0.0715402 0)
(0.343078 0.169631 0)
(1.2791 0.625408 4.81814e-20)
(1.2856 0.63827 2.01293e-20)
(1.24214 0.628606 -1.10305e-21)
(1.19195 0.615765 -1.55676e-20)
(1.13603 0.599361 0)
(1.07485 0.578274 -2.41172e-20)
(1.00949 0.551166 -1.54409e-22)
(0.941969 0.516821 1.63978e-19)
(0.875271 0.475087 -2.40083e-20)
(0.820007 0.433791 -1.04237e-19)
(0.780603 0.401386 6.3331e-20)
(0.751881 0.377445 -5.7329e-22)
(0.72986 0.359373 9.34322e-20)
(0.71249 0.345427 5.93446e-20)
(0.698569 0.33447 -1.39391e-19)
(0.687158 0.325953 1.66678e-19)
(0.672897 0.317527 4.95261e-20)
(0.579933 0.272964 2.08343e-19)
(0.163309 0.0776957 -5.56795e-19)
(0.342507 0.183761 -2.44842e-20)
(1.27041 0.676603 3.04812e-20)
(1.27471 0.690036 -1.79904e-20)
(1.23028 0.679132 -1.09432e-21)
(1.17885 0.664728 0)
(1.12137 0.646305 -1.89103e-20)
(1.05827 0.622609 8.64877e-20)
(0.990757 0.592065 6.35852e-20)
(0.921197 0.553244 0)
(0.853315 0.505956 -3.391e-19)
(0.798769 0.459633 2.70174e-19)
(0.761107 0.424243 0)
(0.733956 0.39892 8.21305e-20)
(0.712987 0.380185 -5.35485e-22)
(0.696297 0.365818 -1.8072e-19)
(0.682862 0.354545 7.1767e-20)
(0.671803 0.34571 0)
(0.658072 0.336811 2.61178e-19)
(0.56862 0.290394 0)
(0.162092 0.0836459 -2.57055e-19)
(0.342575 0.19768 2.70235e-20)
(1.26177 0.725273 3.75698e-20)
(1.26354 0.739451 -1.67469e-20)
(1.21807 0.727493 0)
(1.16533 0.711728 -1.52237e-20)
(1.10618 0.69153 0)
(1.04102 0.665429 -8.71127e-20)
(0.971127 0.631634 -3.01152e-20)
(0.899289 0.588269 2.9623e-20)
(0.830156 0.534951 -1.66409e-19)
(0.776674 0.482912 2.75796e-20)
(0.74157 0.44429 0)
(0.716624 0.417831 -1.66028e-19)
(0.696937 0.398801 6.95354e-22)
(0.680882 0.38428 0)
(0.667804 0.372807 2.44752e-21)
(0.657065 0.363657 2.29205e-19)
(0.643837 0.354324 -2.2268e-19)
(0.558041 0.306457 6.62588e-20)
(0.160958 0.0893192 0)
(0.342976 0.211472 0)
(1.25296 0.771836 4.22617e-20)
(1.25231 0.786629 2.2805e-20)
(1.20574 0.773819 -2.44759e-21)
(1.15166 0.756911 -3.52075e-21)
(1.09074 0.735156 -5.30248e-20)
(1.02341 0.70688 3.47893e-20)
(0.950885 0.669965 -3.63421e-20)
(0.876373 0.622035 1.32263e-19)
(0.805679 0.56216 -2.60867e-19)
(0.753614 0.503491 3.51087e-21)
(0.722148 0.461264 -7.00702e-20)
(0.70026 0.434064 2.57658e-19)
(0.682047 0.415373 -7.60675e-22)
(0.666457 0.401109 -1.30901e-19)
(0.653447 0.389547 -2.43232e-19)
(0.642848 0.380096 0)
(0.630049 0.370346 0)
(0.548079 0.321468 7.21358e-20)
(0.159675 0.0946433 -4.12412e-20)
(0.343948 0.225363 3.39483e-20)
(1.24434 0.816516 -8.7579e-20)
(1.2413 0.831706 -2.20325e-20)
(1.19351 0.818206 0)
(1.13802 0.800365 -3.80248e-22)
(1.0753 0.77726 -5.2376e-20)
(1.0057 0.747087 8.76956e-20)
(0.930296 0.707232 1.48575e-19)
(0.852596 0.654734 1.75747e-19)
(0.779773 0.587739 -2.13e-19)
(0.729417 0.521221 -2.05837e-19)
(0.702938 0.474816 1.78306e-19)
(0.685349 0.447515 0)
(0.668866 0.430244 -5.48734e-20)
(0.653257 0.416882 -1.39929e-19)
(0.639726 0.40533 -1.70392e-19)
(0.628892 0.395462 -2.09819e-19)
(0.616369 0.385153 6.30916e-20)
(0.538336 0.335432 -3.77422e-20)
(0.157749 0.0993907 1.73208e-22)
(0.345132 0.239113 0)
(1.23609 0.859365 0)
(1.23064 0.874816 7.26739e-22)
(1.18159 0.86074 0)
(1.12461 0.842122 1.38765e-20)
(1.06003 0.817911 3.96933e-20)
(0.98808 0.786095 0)
(0.9096 0.743632 1.88404e-20)
(0.82818 0.686609 3.02888e-19)
(0.752395 0.611878 -4.84968e-19)
(0.703696 0.535953 0)
(0.683926 0.484337 -1.01331e-19)
(0.672678 0.457785 -2.24037e-21)
(0.658184 0.443678 -3.06232e-21)
(0.641589 0.432332 1.40322e-19)
(0.626399 0.421253 -1.48873e-21)
(0.614537 0.410839 -4.4841e-19)
(0.602093 0.399282 1.37704e-19)
(0.527964 0.348348 4.12143e-20)
(0.154407 0.10309 0)
(0.34647 0.252621 -1.27175e-19)
(1.22821 0.900415 -5.42929e-20)
(1.22042 0.916068 -5.74699e-20)
(1.17013 0.901509 3.48738e-20)
(1.11164 0.882241 2.42845e-20)
(1.04513 0.857115 0)
(0.970707 0.823944 6.25746e-20)
(0.88897 0.779276 -4.33522e-20)
(0.80336 0.718019 1.18818e-21)
(0.723516 0.634992 3.39324e-20)
(0.675984 0.547604 2.41408e-19)
(0.66508 0.488937 -3.39531e-20)
(0.663261 0.464462 -1.29402e-19)
(0.651216 0.456152 -5.50119e-20)
(0.632457 0.448953 7.76506e-20)
(0.614123 0.438214 -1.62639e-21)
(0.599695 0.426714 1.23262e-19)
(0.585257 0.412889 -2.97227e-19)
(0.514613 0.360032 3.61993e-19)
(0.148784 0.104888 5.21737e-20)
(0.347585 0.265769 4.70785e-20)
(1.22073 0.939782 -2.82504e-20)
(1.21064 0.955514 4.82447e-21)
(1.15914 0.940543 2.13466e-20)
(1.09921 0.920764 -1.9089e-21)
(1.03082 0.894919 -8.1972e-20)
(0.953829 0.860686 1.94947e-20)
(0.868594 0.814181 -1.88874e-19)
(0.778292 0.749201 -3.56392e-19)
(0.693203 0.657546 -2.91289e-19)
(0.645699 0.556197 0)
(0.646099 0.487465 -1.206e-19)
(0.657735 0.465773 1.59182e-19)
(0.650865 0.468397 0)
(0.627403 0.469102 -1.5851e-19)
(0.601835 0.458808 1.05903e-19)
(0.581798 0.444876 -1.32177e-19)
(0.565484 0.426719 -1.67987e-19)
(0.498685 0.369191 -3.00291e-19)
(0.1391 0.103677 -2.35821e-19)
(0.349207 0.27887 -5.15796e-20)
(1.21357 0.977483 3.00995e-20)
(1.20136 0.993204 5.7853e-20)
(1.14868 0.97786 3.23199e-20)
(1.08736 0.957669 1.07343e-20)
(1.01719 0.931323 -5.36753e-20)
(0.937702 0.89633 6.80262e-20)
(0.848738 0.848442 -2.05323e-19)
(0.753126 0.780267 -2.20215e-19)
(0.66147 0.680158 3.11956e-19)
(0.612214 0.561943 4.74247e-19)
(0.62633 0.478914 0)
(0.65852 0.460973 0)
(0.660382 0.481531 -6.02057e-20)
(0.628593 0.495586 0)
(0.590013 0.488765 2.34172e-19)
(0.559216 0.466322 2.97153e-19)
(0.540955 0.443038 0)
(0.474567 0.377089 0)
(0.121721 0.0970328 2.69172e-19)
(0.350562 0.291354 5.79408e-20)
(1.20675 1.01348 4.17298e-20)
(1.19254 1.02915 4.06539e-20)
(1.13879 1.01348 -2.94398e-20)
(1.07616 0.99297 1.02307e-20)
(1.00428 0.96628 6.41669e-20)
(0.922448 0.930863 -1.01062e-19)
(0.829783 0.882085 -5.32838e-21)
(0.728214 0.81141 -1.34338e-21)
(0.628318 0.703342 2.04013e-21)
(0.574836 0.565525 2.31625e-19)
(0.603687 0.460995 0)
(0.667239 0.445004 9.64204e-20)
(0.685811 0.494213 9.80969e-20)
(0.640876 0.531714 3.3749e-19)
(0.570952 0.537633 1.22161e-19)
(0.520902 0.50574 -1.77774e-19)
(0.4982 0.464398 -1.09463e-19)
(0.432798 0.378559 0)
(0.0941239 0.081318 3.13478e-19)
(0.352413 0.304113 -1.28686e-19)
(1.20023 1.04784 0)
(1.18417 1.06337 4.69029e-20)
(1.12943 1.04739 -2.32821e-20)
(1.06566 1.02665 -8.68855e-21)
(0.992195 0.999783 -8.28733e-20)
(0.908142 0.964208 2.18118e-19)
(0.811894 0.915096 -1.21333e-20)
(0.704082 0.842804 0)
(0.594015 0.727576 -3.66622e-19)
(0.532682 0.568107 -4.73803e-19)
(0.575925 0.431843 9.32759e-21)
(0.685186 0.412519 1.81491e-20)
(0.734266 0.509729 0)
(0.671824 0.58686 2.11063e-19)
(0.560357 0.593768 0)
(0.476428 0.546874 0)
(0.436984 0.476317 -1.34119e-19)
(0.370394 0.360737 0)
(0.0827843 0.0587697 8.87413e-20)
(0.35386 0.316164 -1.4214e-19)
(1.19389 1.08074 0)
(1.17617 1.09596 7.94733e-20)
(1.12062 1.07973 0)
(1.05583 1.05887 3.54982e-21)
(0.980892 1.03203 0)
(0.894846 0.996654 1.24453e-20)
(0.795052 0.947763 3.32245e-20)
(0.680902 0.87499 3.03774e-20)
(0.558726 0.754132 -4.20221e-19)
(0.484172 0.571169 1.65436e-20)
(0.538933 0.388822 2.02065e-20)
(0.715515 0.353075 -4.08106e-20)
(0.819587 0.516093 7.55071e-22)
(0.699238 0.69232 1.53065e-19)
(0.508199 0.738514 0)
(0.374299 0.662014 4.33378e-19)
(0.310119 0.508662 -2.74471e-19)
(0.183795 0.298709 3.24196e-19)
(-0.0406382 0.514802 -4.00546e-19)
(0.355481 0.328134 1.17733e-19)
(1.18754 1.11235 1.58569e-19)
(1.16842 1.12718 0)
(1.11225 1.11088 1.7896e-21)
(1.04649 1.09022 -4.41412e-21)
(0.970122 1.06373 1.45635e-19)
(0.882221 1.02909 8.80857e-20)
(0.778868 0.981251 0)
(0.657895 0.909463 2.20626e-19)
(0.521151 0.785355 -2.49643e-20)
(0.423802 0.577182 0)
(0.482526 0.325329 0)
(0.760391 0.236819 -1.70247e-19)
(0.999059 0.481688 2.39963e-20)
(0.817075 0.800233 -1.28421e-19)
(0.505161 0.891872 0)
(0.278876 0.773218 2.35408e-19)
(0.0918176 0.799357 -2.86363e-19)
(0.114526 2.04176 -1.59207e-19)
(0.127796 2.87371 -1.89262e-19)
(0.357022 0.338928 -8.81243e-20)
(1.18092 1.14261 -2.00727e-19)
(1.16085 1.15677 4.4646e-20)
(1.10438 1.14064 2.52395e-20)
(1.0377 1.12037 0)
(0.959999 1.09449 1.00552e-19)
(0.870563 1.06108 1.35229e-19)
(0.763836 1.01506 -1.83892e-20)
(0.635913 0.945926 3.40613e-20)
(0.482738 0.822026 4.38698e-19)
(0.351979 0.590261 2.19938e-19)
(0.392185 0.237279 -1.36833e-19)
(0.792894 0.00280155 -3.95097e-19)
(1.23998 0.444139 3.75399e-19)
(1.0155 0.972117 -1.17557e-19)
(0.58012 1.12938 0)
(0.236437 1.17515 0)
(0.245319 2.52724 1.19597e-19)
(0.235998 3.11286 0)
(0.215112 3.26557 2.7076e-19)
(0.361907 0.348753 0)
(1.17365 1.17125 0)
(1.15338 1.18437 0)
(1.09675 1.16874 8.8283e-21)
(1.02921 1.14906 -8.26886e-21)
(0.950328 1.1241 7.33112e-20)
(0.859879 1.09249 9.43346e-20)
(0.750034 1.04911 -1.9149e-20)
(0.615493 0.984482 3.12847e-19)
(0.444035 0.865159 1.11439e-20)
(0.268464 0.618481 4.69003e-19)
(0.244423 0.157381 4.49386e-20)
(0.676285 -0.0416188 -8.9067e-20)
(1.29651 0.682526 -8.89158e-20)
(1.19614 1.35225 3.76803e-20)
(0.614293 1.6039 -1.15797e-21)
(0.371545 2.45717 -4.71845e-19)
(0.394448 3.19391 -1.8883e-19)
(0.311021 3.31584 8.46779e-20)
(0.257782 3.35179 -7.52558e-20)
(0.236995 0.277879 5.19816e-20)
(1.16453 1.19753 0)
(1.14693 1.21041 -9.26422e-20)
(1.0899 1.19572 -6.90996e-20)
(1.0217 1.17693 9.75534e-22)
(0.941971 1.15307 -7.52497e-20)
(0.851035 1.12235 -1.08035e-19)
(0.739311 1.08216 2.47376e-19)
(0.600102 1.02371 -2.75465e-19)
(0.413148 0.919428 0)
(0.185839 0.692015 2.74587e-19)
(0.0714103 0.231997 1.745e-19)
(0.432794 0.19729 0)
(1.09041 1.22375 -2.17307e-19)
(1.19677 1.97413 -1.04241e-19)
(0.631198 2.28437 -5.0126e-21)
(0.558182 3.30297 2.44558e-20)
(0.445318 3.41309 3.7899e-21)
(0.344385 3.43503 3.77042e-20)
(0.282143 3.4411 9.30066e-21)
(0.440053 0.429142 -7.55886e-20)
(1.14623 1.21486 0)
(1.13806 1.24887 9.87659e-20)
(1.07802 1.23614 7.86606e-20)
(1.00825 1.21884 -9.52634e-21)
(0.926616 1.19679 6.83658e-20)
(0.8315 1.169 1.40836e-19)
(0.715205 1.13337 2.02817e-20)
(0.56623 1.08354 3.05553e-19)
(0.352348 0.996323 5.11059e-19)
(0.0308387 0.797336 2.46304e-20)
(-0.421895 0.513757 -1.77564e-19)
(-0.379121 1.19603 -1.62351e-19)
(0.566512 2.54565 2.69677e-19)
(0.664209 3.04149 2.69484e-19)
(0.553383 3.54085 -1.89021e-19)
(0.491816 3.62962 1.96225e-19)
(0.411551 3.57767 7.93577e-20)
(0.340172 3.5751 1.2386e-19)
(0.269925 3.53791 9.60354e-21)
(0.433447 0.430558 0)
(1.14742 1.24273 3.52012e-20)
(1.13212 1.2764 -2.18927e-20)
(1.07146 1.26453 -1.08954e-20)
(1.0008 1.24804 -1.02426e-20)
(0.918442 1.22711 -6.35515e-20)
(0.822027 1.20105 -8.99366e-20)
(0.704134 1.16909 1.97928e-20)
(0.551348 1.12709 -3.42129e-19)
(0.324866 1.06093 1.14622e-20)
(-0.0460107 0.936844 -8.00547e-19)
(-0.605591 0.911274 -5.70329e-20)
(-0.747956 1.82594 1.3363e-19)
(0.129838 3.10126 2.00318e-19)
(0.387185 3.63225 1.51805e-20)
(0.44758 3.75954 1.95851e-20)
(0.434509 3.71307 -5.69588e-19)
(0.387943 3.66794 -3.3315e-19)
(0.320622 3.669 2.19967e-19)
(0.256619 3.62937 1.41127e-19)
(0.412135 0.425835 9.9725e-20)
(1.14721 1.2751 2.4016e-19)
(1.12654 1.30698 -6.03917e-20)
(1.06477 1.29524 -3.8652e-20)
(0.993292 1.27927 0)
(0.910332 1.25926 -7.12062e-20)
(0.813142 1.23506 -1.24e-19)
(0.694417 1.20687 1.91353e-20)
(0.539952 1.17401 -3.90484e-20)
(0.308422 1.1339 -5.83258e-19)
(-0.0781917 1.09821 -4.67089e-19)
(-0.65975 1.26902 8.20869e-20)
(-0.851042 2.26422 7.75853e-19)
(-0.131682 3.39337 -1.09793e-18)
(0.234129 3.7456 -9.24651e-19)
(0.379635 3.75941 0)
(0.40155 3.73351 0)
(0.381298 3.73769 2.21611e-19)
(0.313089 3.76164 0)
(0.237368 3.72723 3.61961e-19)
(0.394931 0.425266 -1.55817e-19)
(1.14448 1.31023 -2.09938e-19)
(1.11996 1.33991 0)
(1.05719 1.32769 3.91059e-21)
(0.984995 1.31183 -2.49626e-20)
(0.901663 1.2926 -9.01026e-20)
(0.804195 1.27007 -7.78085e-20)
(0.685601 1.24578 1.52377e-20)
(0.531651 1.22254 -2.90328e-19)
(0.302411 1.20924 3.28987e-20)
(-0.070027 1.25055 0)
(-0.59195 1.55146 0)
(-0.752631 2.49756 3.53142e-19)
(-0.151765 3.39091 -2.52179e-19)
(0.206292 3.64921 -5.11886e-19)
(0.375364 3.66171 0)