/*--------------------------------*- C++ -*----------------------------------*\
  =========                 |
  \\      /  F ield         | OpenFOAM: The Open Source CFD Toolbox
   \\    /   O peration     | Website:  https://openfoam.org
    \\  /    A nd           | Version:  7
     \\/     M anipulation  |
\*---------------------------------------------------------------------------*/
FoamFile
{
    version     2.0;
    format      ascii;
    class       volScalarField;
    location    "39";
    object      p;
}
// * * * * * * * * * * * * * * * * * * * * * * * * * * * * * * * * * * * * * //

dimensions      [0 2 -2 0 0 0 0];

internalField   nonuniform List<scalar> 
16000
(
8.4128629e-06
-0.0001319587
-0.00044346794
-0.00084583162
-0.0012640464
-0.001652719
-0.001980978
-0.0022299844
-0.0023891007
-0.0024526204
-0.0024176027
-0.0022825909
-0.0020470156
-0.0017111205
-0.001276263
-0.000745451
-0.00012399495
0.00057983833
0.0013542696
0.0021836425
0.003048329
0.0039249733
0.0047870977
0.0056061125
0.0063526868
0.0069984318
0.0075177891
0.0078899753
0.0081008097
0.008144256
0.0080235347
0.0077517233
0.0073518151
0.0068562816
0.0063060139
0.0057485211
0.0052387943
0.0048330782
0.0045931099
0.0045542996
0.00015293634
8.015043e-06
-0.00024207359
-0.00055095626
-0.00087315499
-0.0011743586
-0.0014303212
-0.0016248637
-0.0017476274
-0.0017921697
-0.0017545489
-0.0016324003
-0.0014244697
-0.0011305256
-0.00075156008
-0.00029017939
0.00024890788
0.00085839336
0.0015279443
0.0022439247
0.0029893284
0.0037441241
0.004485608
0.0051894336
0.0058307557
0.0063856729
0.0068328454
0.0071551598
0.0073412877
0.0073869721
0.0072958989
0.0070800711
0.0067596703
0.0063624411
0.0059226215
0.0054792673
0.0050735537
0.0047488466
0.0045502557
0.0045147311
0.00047157801
0.00025369493
-2.1410995e-06
-0.00028118817
-0.00056143366
-0.00081837389
-0.0010342187
-0.0011969089
-0.0012982393
-0.0013326911
-0.0012965457
-0.0011872696
-0.0010032214
-0.00074364553
-0.00040888817
-7.6738595e-07
0.00047697781
0.0010182312
0.0016141035
0.0022526668
0.0029189171
0.0035948948
0.0042602321
0.0048929311
0.0054704613
0.005971103
0.0063754487
0.006667948
0.0068383598
0.0068829513
0.0068052839
0.0066164682
0.0063348534
0.0059852085
0.0055974889
0.0052051656
0.0048429036
0.0045449709
0.0043476264
0.0042802992
0.00089319139
0.00056193266
0.00026124025
-2.454375e-05
-0.00029514531
-0.00053429499
-0.00073042807
-0.00087632856
-0.00096692398
-0.00099851986
-0.00096830402
-0.00087399017
-0.00071370619
-0.00048611263
-0.00019069949
0.00017179203
0.00059888113
0.0010858554
0.0016253382
0.0022069844
0.0028173693
0.0034400466
0.0040560488
0.0046445781
0.005184068
0.0056535102
0.0060339506
0.006310032
0.006471437
0.0065140807
0.0064408936
0.0062620518
0.0059945751
0.0056613252
0.0052895368
0.0049090575
0.0045505851
0.0042441262
0.0040162425
0.0038806789
0.0013439871
0.00088432003
0.0005211655
0.00021085133
-6.6855458e-05
-0.00030291223
-0.00049164487
-0.00063079097
-0.0007186923
-0.00075378275
-0.00073440015
-0.00065864367
-0.00052443082
-0.00032975179
-7.307255e-05
0.0002461568
0.00062693499
0.0010661383
0.001558006
0.002093749
0.0026613447
0.0032455695
0.0038283511
0.0043894421
0.004907446
0.005361154
0.0057310974
0.006001171
0.0061601526
0.0062029464
0.0061313955
0.0059545298
0.0056881526
0.0053537416
0.0049767524
0.0045846726
0.0042057233
0.003867117
0.0035844484
0.0033608525
0.0017708317
0.0011777054
0.00074304412
0.00039699638
0.00010043587
-0.00014385202
-0.00033556072
-0.00047714405
-0.00057029215
-0.00061557956
-0.00061251615
-0.00055957617
-0.0004544039
-0.00029420157
-7.6250575e-05
0.00020147355
0.0005396315
0.00093684264
0.0013890577
0.0018890494
0.002426093
0.0029859146
0.0035509446
0.0041009545
0.0046140573
0.0050680646
0.0054421184
0.0057184503
0.0058840661
0.0059321354
0.0058628961
0.0056839469
0.0054098579
0.0050610591
0.0046620082
0.0042390619
0.0038195745
0.0034300222
0.0030774438
0.0027501511
0.0021285221
0.0014035461
0.00089396166
0.00050573249
0.00018246323
-7.8514149e-05
-0.00028171557
-0.0004339231
-0.00053992045
-0.00060225194
-0.00062146755
-0.00059629252
-0.00052396206
-0.00040073357
-0.0002225274
1.434138e-05
0.00031237621
0.00067209969
0.0010912959
0.0015643616
0.0020818462
0.0026302822
0.0031923256
0.0037473488
0.004272421
0.0047436959
0.0051381292
0.0054353923
0.0056197793
0.005681849
0.0056195446
0.0054386149
0.0051522783
0.0047801259
0.0043462267
0.0038768962
0.0034001839
0.0029436941
0.0025074403
0.0020658807
0.0023784954
0.0015270903
0.00094301909
0.00050984703
0.00015526341
-0.00012829066
-0.00034968289
-0.0005195993
-0.00064557287
-0.00073183993
-0.00077975803
-0.00078809846
-0.00075349497
-0.0006710675
-0.00053517465
-0.00034026196
-8.1772561e-05
0.00024292178
0.00063362162
0.0010864981
0.0015934715
0.0021418976
0.0027145489
0.0032901371
0.003844254
0.0043507959
0.0047837813
0.0051194316
0.0053383272
0.0054273753
0.0053812831
0.0052032692
0.0049048891
0.0045049805
0.0040277079
0.003500274
0.0029528447
0.0024159534
0.0018845468
0.0013220112
0.0024869442
0.0015166474
0.00086091715
0.000382459
-5.8419357e-06
-0.00031606315
-0.0005610429
-0.00075496746
-0.00090775455
-0.0010250131
-0.001108628
-0.0011571678
-0.0011664375
-0.0011302009
-0.0010410313
-0.00089126522
-0.00067403415
-0.00038433149
-2.0063326e-05
0.0004169817
0.00092033026
0.0014783499
0.0020740072
0.0026852816
0.0032860047
0.0038472955
0.0043394859
0.0047344011
0.0050078014
0.0051417314
0.0051264542
0.0049616336
0.0046565227
0.0042290692
0.0037038981
0.0031099241
0.0024807279
0.0018514837
0.0012135715
0.00052008254
0.0024233945
0.0013431371
0.00062009309
9.7524652e-05
-0.00032550807
-0.00066535254
-0.00093851162
-0.0011623095
-0.0013487036
-0.0015043603
-0.0016314064
-0.0017279493
-0.0017887253
-0.0018059085
-0.001770044
-0.0016710905
-0.0014995577
-0.0012477054
-0.00091075192
-0.00048803429
1.5981385e-05
0.00059108148
0.0012206781
0.0018821654
0.0025475305
0.0031847276
0.0037596794
0.0042387768
0.0045916758
0.0047941133
0.0048304073
0.0046952702
0.0043945885
0.0039449114
0.0033714625
0.0027055936
0.0019855485
0.0012527971
0.00049630183
-0.00034083383
0.0021600695
0.0009799229
0.00019494806
-0.00036960584
-0.00082755054
-0.0011993249
-0.0015048451
-0.0017642545
-0.0019912429
-0.002193251
-0.0023723888
-0.0025260639
-0.0026477148
-0.0027276929
-0.0027542598
-0.0027146998
-0.0025965424
-0.0023888771
-0.002083719
-0.0016773728
-0.001171695
-0.00057480543
9.7599079e-05
0.00082272454
0.0015708663
0.0023066265
0.0029909016
0.0035835699
0.0040466962
0.0043479393
0.0044637798
0.0043821431
0.0041039964
0.0036434876
0.0030261905
0.0022864241
0.0014683231
0.00062134127
-0.0002671657
-0.0012643343
0.0016717742
0.00040288625
-0.00043787224
-0.0010417078
-0.0015342907
-0.001940001
-0.002281952
-0.0025828273
-0.0028577875
-0.0031148127
-0.0033557839
-0.0035772139
-0.0037710503
-0.0039256094
-0.0040266172
-0.0040583673
-0.0040050062
-0.0038519436
-0.0035873601
-0.0032037469
-0.0026993992
-0.002079938
-0.0013588906
-0.00055866269
0.00028975683
0.0011476869
0.0019705752
0.0027107735
0.0033211333
0.0037591159
0.0039909604
0.0039953817
0.0037662633
0.0033137413
0.0026629566
0.0018513821
0.00093020084
-4.1351188e-05
-0.0010769623
-0.0022548079
0.00093611018
-0.00040930793
-0.0012991008
-0.0019391696
-0.0024659071
-0.0029074805
-0.0032900043
-0.003638459
-0.0039692654
-0.0042907663
-0.0046044637
-0.0049058402
-0.0051852149
-0.005428703
-0.0056192691
-0.0057379011
-0.0057649312
-0.0056815166
-0.0054712699
-0.005121988
-0.0046274254
-0.0039892251
-0.0032178909
-0.0023343059
-0.0013699113
-0.00036625415
0.00062653041
0.0015524335
0.0023534643
0.0029744908
0.003368552
0.0035019751
0.0033585686
0.0029420487
0.0022756401
0.0013996536
0.00037330401
-0.000732461
-0.0019319389
-0.0033155673
-6.6100568e-05
-0.0014748156
-0.0024063997
-0.0030794435
-0.0036397675
-0.0041191463
-0.0045465086
-0.004948923
-0.0053439148
-0.0057400817
-0.0061384698
-0.0065334711
-0.0069137099
-0.0072629998
-0.0075613727
-0.0077862298
-0.0079136599
-0.007919959
-0.0077833596
-0.0074859474
-0.0070157263
-0.0063688121
-0.0055512643
-0.0045809063
-0.0034883158
-0.0023170001
-0.0011223791
3.0667259e-05
0.0010718205
0.0019308279
0.0025440776
0.0028614894
0.0028527437
0.0025116338
0.0018570204
0.00093102949
-0.00019842186
-0.0014466423
-0.00282814
-0.0044471165
-0.0013502773
-0.002808153
-0.0037738855
-0.0044764961
-0.0050697693
-0.0055888718
-0.0060653641
-0.0065282277
-0.0069959978
-0.0074774966
-0.0079733239
-0.0084768078
-0.0089748986
-0.0094490902
-0.0098763889
-0.010230395
-0.010482572
-0.010603759
-0.010565967
-0.010344453
-0.0099200662
-0.0092818031
-0.0084293406
-0.0073754802
-0.0061480518
-0.0047909674
-0.0033639958
-0.0019408568
-0.00060532546
0.00055476436
0.0014553603
0.0020251402
0.0022143718
0.0020019893
0.0013986844
0.0004463376
-0.00077828542
-0.0021746914
-0.003757178
-0.0056453521
-0.0029275143
-0.0044197369
-0.0054116826
-0.0061403052
-0.0067657324
-0.0073262731
-0.0078559442
-0.0083855068
-0.0089344784
-0.0095119608
-0.010118213
-0.010745627
-0.011379602
-0.011999392
-0.012578983
-0.013088056
-0.013493158
-0.01375915
-0.013851017
-0.013736059
-0.013386488
-0.012782379
-0.011914855
-0.010789296
-0.0094282955
-0.0078738562
-0.0061883044
-0.004453335
-0.0027666331
-0.0012357039
3.1085824e-05
0.00093566826
0.0014023343
0.0013884936
0.00089103011
-5.2016594e-05
-0.0013557754
-0.002902032
-0.0047044066
-0.0068995599
-0.0048040669
-0.0063154976
-0.0073255648
-0.008076457
-0.0087328965
-0.0093360567
-0.0099222593
-0.010523967
-0.011161731
-0.011845083
-0.012574149
-0.013340627
-0.014128593
-0.014915261
-0.015671714
-0.016363715
-0.016952727
-0.017397242
-0.017654532
-0.017682899
-0.017444463
-0.016908491
-0.016055212
-0.014879842
-0.013396701
-0.01164278
-0.0096801658
-0.007596532
-0.005502842
-0.0035275387
-0.0018068427
-0.00047143267
0.00036926541
0.00064255588
0.00032355886
-0.00055929791
-0.0019152474
-0.0036069108
-0.005646771
-0.0081900683
-0.0069809683
-0.0084966377
-0.0095167536
-0.010285906
-0.010971581
-0.011617529
-0.012262268
-0.012939967
-0.013672366
-0.014469685
-0.015332236
-0.01625137
-0.017210193
-0.018184194
-0.019141796
-0.020044985
-0.020850123
-0.02150911
-0.021971008
-0.022184266
-0.022099622
-0.021673739
-0.020873558
-0.019681223
-0.018099312
-0.01615599
-0.013909263
-0.011449442
-0.0088986334
-0.006406087
-0.0041384522
-0.0022646913
-0.00093652652
-0.00026726162
-0.00031422748
-0.0010672851
-0.002434249
-0.0042581903
-0.0065502035
-0.0094854103
-0.0094538483
-0.010959612
-0.011981947
-0.012764967
-0.013477077
-0.014164326
-0.014867407
-0.01562232
-0.016452282
-0.017368588
-0.018372182
-0.019454524
-0.020598211
-0.021777429
-0.022958315
-0.024099354
-0.02515196
-0.026061413
-0.026768306
-0.027210654
-0.027326815
-0.027059307
-0.026359591
-0.025193859
-0.023549275
-0.02144085
-0.018917721
-0.016068084
-0.01302125
-0.0099451569
-0.0070376936
-0.0045107353
-0.0025670308
-0.0013726164
-0.0010309246
-0.001562435
-0.0028812995
-0.0048125978
-0.0073664269
-0.010738839
-0.012213022
-0.013696398
-0.014713649
-0.015505607
-0.016239826
-0.016964434
-0.017722406
-0.018551881
-0.019478024
-0.020513756
-0.021661228
-0.022912587
-0.024250462
-0.025648254
-0.027070282
-0.028471931
-0.029799975
-0.030993255
-0.031983891
-0.032699213
-0.033064591
-0.033007271
-0.032461409
-0.031374923
-0.029715801
-0.027481396
-0.024706544
-0.02147132
-0.017906388
-0.014193823
-0.010560967
-0.0072650917
-0.0045677432
-0.00270066
-0.0018298558
-0.0020230375
-0.0032128978
-0.0052112621
-0.0080290168
-0.011884049
-0.015243914
-0.016695123
-0.017700869
-0.018496097
-0.019245951
-0.020000528
-0.020805422
-0.021701482
-0.022716535
-0.023865889
-0.025153633
-0.02657328
-0.028108114
-0.029731317
-0.031405906
-0.033084643
-0.034710088
-0.036215
-0.037523276
-0.038551645
-0.039212312
-0.039416664
-0.0390803
-0.038131448
-0.036515329
-0.034207469
-0.031222793
-0.027626388
-0.023542718
-0.019160846
-0.014732518
-0.010559557
-0.0069676347
-0.0042666373
-0.0027037302
-0.0024149921
-0.0033695028
-0.005375347
-0.0084485628
-0.012829967
-0.018527877
-0.019941133
-0.020930259
-0.021722092
-0.022478165
-0.023250676
-0.024088519
-0.025036216
-0.026125315
-0.027374528
-0.028790793
-0.030369766
-0.032096049
-0.033943174
-0.035873364
-0.037837236
-0.039773604
-0.041609609
-0.043261374
-0.044635415
-0.045631026
-0.046143959
-0.046071594
-0.045318162
-0.043807086
-0.041487834
-0.038350015
-0.03443665
-0.029857303
-0.024798543
-0.019527941
-0.014386713
-0.0097658763
-0.0060634461
-0.003626862
-0.0026858169
-0.003270219
-0.0052005851
-0.0085067657
-0.013454472
-0.022043471
-0.023418564
-0.024387755
-0.025168146
-0.025917074
-0.026689367
-0.027538455
-0.028514061
-0.02965298
-0.030978676
-0.032502036
-0.034221723
-0.036124315
-0.038184199
-0.040363229
-0.042610262
-0.044860774
-0.047036753
-0.049047088
-0.050788682
-0.052148543
-0.053007138
-0.053243202
-0.052739872
-0.051394762
-0.049129578
-0.045904647
-0.041734498
-0.036704886
-0.030988872
-0.024858066
-0.01868313
-0.012916067
-0.008048253
-0.0045446832
-0.0027565406
-0.0028059106
-0.0045505115
-0.0080493018
-0.013596931
-0.025768285
-0.027112571
-0.028060838
-0.028819748
-0.029542847
-0.030288817
-0.031117697
-0.032086745
-0.033240144
-0.034607863
-0.036206046
-0.038037266
-0.040090659
-0.042341835
-0.04475251
-0.047269981
-0.049826623
-0.05233961
-0.054711084
-0.056829003
-0.058568923
-0.059796971
-0.060374254
-0.060162945
-0.059035767
-0.05688548
-0.053640581
-0.049282182
-0.043864248
-0.037535048
-0.030556315
-0.023313785
-0.016309666
-0.010126981
-0.0053606813
-0.0025112914
-0.0018305004
-0.0032481779
-0.00687726
-0.013049415
-0.029681421
-0.031012364
-0.031941526
-0.032665889
-0.033337227
-0.03402045
-0.034785536
-0.03570072
-0.036820509
-0.038183578
-0.039812823
-0.041715598
-0.043884012
-0.046295
-0.048910084
-0.051674892
-0.054518642
-0.057353782
-0.060076002
-0.062564863
-0.064685296
-0.066290203
-0.067224436
-0.067330483
-0.066457212
-0.064469303
-0.061262665
-0.056782182
-0.051044091
-0.044161877
-0.036373069
-0.028061047
-0.019761299
-0.012138371
-0.0059215228
-0.0017846879
-0.00015028524
-0.0010661086
-0.0047368809
-0.011546409
-0.033766923
-0.035115387
-0.036030352
-0.036702258
-0.037285796
-0.037856386
-0.038499103
-0.039298073
-0.040321993
-0.041620914
-0.04322605
-0.045150258
-0.047388712
-0.049919386
-0.052703115
-0.055683331
-0.058785646
-0.061917496
-0.064968092
-0.067808866
-0.070294759
-0.072266467
-0.073554068
-0.07398232
-0.073377008
-0.071577566
-0.068448165
-0.063896982
-0.057899404
-0.050526867
-0.041980044
-0.032621755
-0.022999337
-0.01384025
-0.0060018949
-0.00034759378
0.0024887642
0.0022857914
-0.0013071669
-0.0087526317
-0.03801864
-0.03943321
-0.040341689
-0.040935169
-0.041380442
-0.041770774
-0.042214094
-0.042817178
-0.043667779
-0.044830307
-0.046345755
-0.048232798
-0.050489256
-0.053093279
-0.056003974
-0.059161508
-0.062486943
-0.065881979
-0.069228896
-0.072390875
-0.075213149
-0.077524916
-0.079142546
-0.079874306
-0.079526721
-0.07791467
-0.074873349
-0.070276001
-0.064057039
-0.056242244
-0.046986324
-0.036615298
-0.025665302
-0.014901348
-0.0052914493
0.0021076462
0.0064155261
0.0071747704
0.0038153949
-0.0042481867
-0.042447569
-0.044000137
-0.044911058
-0.045386421
-0.045621905
-0.045740747
-0.045884992
-0.046192955
-0.046777157
-0.047719329
-0.049071173
-0.050856764
-0.053075335
-0.055703587
-0.058697151
-0.061991253
-0.065500918
-0.069120883
-0.072725618
-0.07616947
-0.079287807
-0.081898577
-0.083805158
-0.084800616
-0.084673701
-0.083217514
-0.08024109
-0.075585744
-0.069147227
-0.060905773
-0.050965641
-0.039604172
-0.027325125
-0.014902371
-0.0033870862
0.005980564
0.012049665
0.014062832
0.011136385
0.0024906634
-0.047093633
-0.048886341
-0.049805466
-0.05009939
-0.050022305
-0.049746771
-0.049464618
-0.04935667
-0.049566219
-0.050194554
-0.051303851
-0.052921911
-0.055046987
-0.057651704
-0.060685682
-0.064076852
-0.067732165
-0.071537679
-0.075359066
-0.079040326
-0.082406665
-0.085264473
-0.08740424
-0.088604437
-0.088637218
-0.08727559
-0.08430512
-0.079538516
-0.072836471
-0.06413653
-0.053492468
-0.041126651
-0.027494171
-0.013349962
0.00020533825
0.011771547
0.01991805
0.023528385
0.021289823
0.012118778
-0.052045831
-0.054218662
-0.055138391
-0.05514675
-0.054607501
-0.053772164
-0.052902908
-0.052235323
-0.051948526
-0.052163661
-0.052951035
-0.05433859
-0.056319637
-0.058858876
-0.061896694
-0.065350418
-0.069116578
-0.07307033
-0.077068444
-0.080940713
-0.084502757
-0.087548521
-0.089855083
-0.091186165
-0.091298325
-0.089944158
-0.08688775
-0.081915877
-0.074857518
-0.065611346
-0.054183422
-0.040739808
-0.025676789
-0.0097069971
0.0060547848
0.020081758
0.030669586
0.036293241
0.035075812
0.025465179
-0.057478501
-0.060214504
-0.061091736
-0.060640132
-0.059418864
-0.057801421
-0.056144798
-0.0547507
-0.053835871
-0.053537836
-0.053929303
-0.055032116
-0.056828726
-0.059270614
-0.062285642
-0.065775472
-0.069624642
-0.073695441
-0.077830094
-0.081849228
-0.085553942
-0.08872522
-0.091126236
-0.092505436
-0.092601398
-0.091148972
-0.087889779
-0.082585057
-0.075033924
-0.065098839
-0.052740935
-0.03807089
-0.021420622
-0.0034425419
0.014768038
0.031596877
0.045084113
0.053255999
0.053516371
0.043607142
-0.063719332
-0.067238079
-0.067947695
-0.066741351
-0.064513335
-0.061816398
-0.059126653
-0.056817744
-0.055138845
-0.054234058
-0.054167896
-0.054946494
-0.056533476
-0.058860957
-0.061836843
-0.065347351
-0.069259697
-0.073421382
-0.077660212
-0.081783698
-0.085578945
-0.088812946
-0.091234006
-0.092574331
-0.092554276
-0.090888607
-0.087295615
-0.081509974
-0.073299787
-0.062490497
-0.048998048
-0.032876246
-0.014386827
0.0058944384
0.02692402
0.047044433
0.064067158
0.075530851
0.077939059
0.068004951
-0.071381506
-0.075894204
-0.076133076
-0.073672933
-0.069958825
-0.065787989
-0.061769407
-0.058340668
-0.055765648
-0.054175728
-0.053610196
-0.054046098
-0.055417309
-0.057629404
-0.060565911
-0.064092192
-0.068056581
-0.072289965
-0.076604869
-0.080794334
-0.084631223
-0.087868007
-0.090237551
-0.091455126
-0.091222045
-0.089231281
-0.085175596
-0.078760212
-0.069717977
-0.057831922
-0.042965848
-0.02510841
-0.0044394395
0.018569825
0.042964533
0.067104718
0.088610485
0.10448298
0.11010455
0.10076043
-0.081632123
-0.087182343
-0.086270866
-0.08171691
-0.075815222
-0.069655376
-0.063961787
-0.059201078
-0.055614153
-0.053287324
-0.052209984
-0.052311483
-0.053484767
-0.055600048
-0.058511647
-0.062060633
-0.066074886
-0.070367722
-0.074736033
-0.078958404
-0.082793663
-0.085980017
-0.088235126
-0.089257384
-0.08872878
-0.086319457
-0.081694267
-0.074525257
-0.064503391
-0.051359233
-0.03488993
-0.01499808
0.0082484175
0.034515098
0.063013241
0.092225758
0.11965975
0.14172235
0.1524043
0.14512452
-0.096760474
-0.10273879
-0.099198559
-0.09115587
-0.082063124
-0.073262076
-0.065508428
-0.059217611
-0.054540798
-0.051470009
-0.049910808
-0.04972361
-0.05074645
-0.052806621
-0.055725124
-0.059316914
-0.063388983
-0.067737444
-0.072144427
-0.076375214
-0.08017593
-0.083271933
-0.085367103
-0.086144267
-0.085267175
-0.082383365
-0.077128839
-0.06913912
-0.058056187
-0.043545297
-0.025315743
-0.0031512695
0.023041048
0.053141476
0.086633542
0.1222832
0.15778105
0.18895186
0.20809808
0.20632791
-0.12134003
-0.12518767
-0.11587344
-0.10208154
-0.088417654
-0.076198625
-0.066006085
-0.058052557
-0.052291649
-0.048550582
-0.046608741
-0.04623338
-0.047195164
-0.049273089
-0.052253412
-0.055925715
-0.060077943
-0.064491356
-0.068935907
-0.073166265
-0.076918633
-0.079908381
-0.081828544
-0.082349342
-0.081119275
-0.077764975
-0.071896384
-0.063110831
-0.050996648
-0.035142236
-0.015145824
0.0093691519
0.038725597
0.073129871
0.11251997
0.15626279
0.20263108
0.24752335
0.28130115
0.29235676
-0.16445747
-0.1584332
-0.1371487
-0.11415778
-0.094107627
-0.077631523
-0.064738197
-0.055162113
-0.048490241
-0.044291909
-0.04217323
-0.041787816
-0.042832871
-0.045040127
-0.04816523
-0.051977562
-0.056251296
-0.060757851
-0.065259672
-0.06950522
-0.073225056
-0.076128849
-0.077903285
-0.078211037
-0.076691023
-0.072948283
-0.066578187
-0.057141092
-0.044172794
-0.02718078
-0.0056364429
0.021034914
0.053464255
0.092331763
0.13829642
0.19182707
0.25266819
0.3175116
0.37626876
0.41537093
-0.24629434
-0.20631838
-0.16213068
-0.12552932
-0.097144083
-0.075878598
-0.060487979
-0.049752773
-0.042660683
-0.038436649
-0.036490791
-0.036365842
-0.037697818
-0.040185633
-0.043567741
-0.047604728
-0.052066426
-0.056722222
-0.061333672
-0.065648825
-0.069397857
-0.072289793
-0.074010163
-0.074220383
-0.07255905
-0.06860607
-0.061962169
-0.052156345
-0.03868335
-0.020981537
0.0015958402
0.029825425
0.064686619
0.10746516
0.15987141
0.2241782
0.30290586
0.3955326
0.49624384
0.60321272
-0.42543911
-0.26573048
-0.1772217
-0.12463632
-0.089116941
-0.06510307
-0.049324277
-0.039185754
-0.032984147
-0.02967454
-0.028571184
-0.029187234
-0.031157311
-0.034190392
-0.038038112
-0.042473835
-0.047278679
-0.052231711
-0.05710277
-0.061647075
-0.065601119
-0.068679497
-0.070572177
-0.07094106
-0.069408347
-0.06563022
-0.059132768
-0.049453216
-0.036075129
-0.018403549
0.0042715499
0.032847521
0.068543002
0.11314246
0.16943707
0.24201764
0.33806654
0.4659163
0.64305512
0.9208627
-0.79331306
-0.32444229
-0.14899754
-0.087725498
-0.055345898
-0.035999592
-0.025091624
-0.019201073
-0.016355603
-0.01561918
-0.016494418
-0.018654236
-0.021853358
-0.025888728
-0.030575748
-0.035734148
-0.041179369
-0.046716621
-0.052136333
-0.057210522
-0.061689847
-0.065301243
-0.067746247
-0.068701278
-0.067824873
-0.06470831
-0.058942123
-0.050072772
-0.037593697
-0.020927447
0.0006104235
0.027881139
0.062058855
0.10491348
0.15945145
0.23152813
0.3338516
0.49409236
0.79001652
1.3837785
1.1845022e-05
-0.00013101716
-0.00044320903
-0.00084576833
-0.0012641735
-0.0016529759
-0.0019813202
-0.0022303864
-0.0023895446
-0.0024530921
-0.0024180904
-0.0022830839
-0.0020475033
-0.0017115921
-0.0012767073
-0.00074585688
-0.00012435122
0.00057954264
0.001354046
0.0021835024
0.0030482825
0.0039250269
0.004787253
0.0056063663
0.0063530329
0.0069988624
0.0075182925
0.0078905321
0.008101391
0.0081448284
0.0080240701
0.0077522029
0.0073522225
0.0068565901
0.0063061928
0.0057485704
0.005238716
0.0048328783
0.0045927911
0.0045542274
0.00015378163
8.5136971e-06
-0.00024163937
-0.00055049704
-0.0008726562
-0.0011738072
-0.0014297213
-0.001624229
-0.001746973
-0.0017915103
-0.0017538989
-0.0016317738
-0.00142388
-0.0011299857
-0.00075108247
-0.00028977584
0.00024922591
0.00085861396
0.0015280564
0.0022439196
0.002989202
0.0037438754
0.0044852406
0.005188953
0.0058301692
0.0063849928
0.0068320934
0.0071543656
0.0073404817
0.0073861774
0.007295132
0.0070793529
0.0067590343
0.0063619226
0.0059222339
0.0054789963
0.0050733891
0.0047487156
0.0045500951
0.0045148489
0.00047204836
0.00025395264
-1.8388662e-06
-0.00028093591
-0.00056125015
-0.00081822761
-0.0010340964
-0.001196807
-0.0012981547
-0.0013326214
-0.0012964897
-0.0011872271
-0.0010031928
-0.0007436314
-0.00040888929
-7.8373602e-07
0.00047694753
0.0010181887
0.00161405
0.0022526023
0.0029188414
0.0035948098
0.0042601425
0.0048928423
0.0054703752
0.0059710168
0.0063753579
0.0066678535
0.0068382695
0.0068828727
0.0068052129
0.006616389
0.006334754
0.0059850966
0.0055973851
0.0052050796
0.0048428232
0.0045448481
0.0043474236
0.0042802661
0.00089366966
0.00056198375
0.00026147909
-2.4327844e-05
-0.00029502059
-0.00053421668
-0.00073037994
-0.00087630749
-0.00096692549
-0.00099853975
-0.00096833909
-0.00087403779
-0.00071376404
-0.00048617879
-0.00019077264
0.00017171298
0.00059879818
0.0010857721
0.0016252591
0.0022069129
0.0028173063
0.0034399922
0.0040560045
0.0046445479
0.0051840573
0.0056535199
0.0060339739
0.0063100576
0.0064714588
0.0065141028
0.0064409222
0.0062620799
0.0059945796
0.0056612862
0.0052894598
0.0049089676
0.0045504911
0.0042440081
0.0040160868
0.0038805339
0.0013445209
0.00088416391
0.00052137383
0.00021109764
-6.6691867e-05
-0.00030277447
-0.00049151888
-0.00063068054
-0.00071859716
-0.00075370196
-0.00073433367
-0.00065859167
-0.00052439324
-0.00032972825
-7.3062846e-05
0.0002461521
0.00062691479
0.0010661023
0.0015579561
0.0020936886
0.0026612767
0.0032454947
0.0038282682
0.0043893508
0.0049073507
0.0053610628
0.005731015
0.0060010931
0.0061600683
0.0062028505
0.0061312968
0.0059544426
0.0056880768
0.0053536574
0.0049766428
0.0045845423
0.0042055821
0.0038670028
0.0035844368
0.0033606314
0.0017714581
0.0011773623
0.00074321872
0.00039724612
0.00010059188
-0.00014371596
-0.00033542939
-0.00047702512
-0.0005701865
-0.00061548648
-0.00061243607
-0.00055951007
-0.00045435278
-0.00029416584
-7.6229874e-05
0.0002014797
0.00053962264
0.00093681738
0.0013890152
0.0018889911
0.002426023
0.0029858373
0.0035508615
0.0041008634
0.0046139561
0.0050679567
0.0054420133
0.0057183554
0.0058839778
0.0059320403
0.0058627856
0.00568383
0.0054097517
0.0050609671
0.0046619144
0.0042389434
0.0038194115
0.0034298954
0.003077516
0.0027498426
0.0021292514
0.0014030379
0.00089411022
0.00050598347
0.00018260369
-7.8391836e-05
-0.00028159328
-0.00043381186
-0.00053982201
-0.00060216536
-0.00062139287
-0.00059623034
-0.00052391353
-0.00040070001
-0.00022250938
1.4344613e-05
0.00031236589
0.00067207607
0.0010912577
0.0015643076
0.0020817777
0.0026302036
0.003192243
0.003747265
0.004272333
0.0047435991
0.0051380252
0.0054352912
0.0056196907
0.0056817698
0.0056194589
0.005438511
0.0051521637
0.0047800196
0.0043461361
0.0038767943
0.0034000152
0.0029435614
0.0025076017
0.0020654985
0.0023793277
0.001526435
0.00094315138
0.00051010675
0.00015539626
-0.00012817403
-0.00034956084
-0.00051948569
-0.00064547077
-0.000731749
-0.00077967853
-0.0007880307
-0.00075343951
-0.00067102578
-0.00053514851
-0.00034025234
-8.177861e-05
0.0002429019
0.00063358891
0.0010864515
0.0015934092
0.0021418197
0.0027144605
0.0032900459
0.0038441642
0.0043507044
0.0047836811
0.0051193223
0.0053382191
0.0054272803
0.0053811992
0.0052031794
0.0049047805
0.0045048624
0.0040276035
0.0035001713
0.0029526695
0.0024158258
0.0018848061
0.0013215352
0.0024878764
0.0015158598
0.00086103905
0.00038273149
-5.7123616e-06
-0.00031594903
-0.00056091893
-0.0007548493
-0.00090764598
-0.0010249145
-0.0011085404
-0.001157092
-0.0011663737
-0.0011301497
-0.0010409941
-0.00089124448
-0.00067403127
-0.00038434576
-2.0092315e-05
0.00041694009
0.00092027576
0.0014782792
0.0020739196
0.0026851823
0.0032859028
0.0038471974
0.0043393887
0.0047342961
0.0050076861
0.0051416159
0.0051263514
0.0049615418
0.0046564247
0.0042289559
0.0037037868
0.0031098119
0.0024805367
0.0018513619
0.0012139368
0.00051951077
0.0024244223
0.0013422308
0.00062020825
9.7811748e-05
-0.00032537868
-0.00066523866
-0.00093838488
-0.0011621869
-0.0013485889
-0.0015042537
-0.0016313095
-0.0017278642
-0.0017886527
-0.0018058486
-0.001769997
-0.001671058
-0.0014995424
-0.0012477093
-0.00091077483
-0.00048807274
1.5931511e-05
0.0005910184
0.0012205992
0.0018820688
0.0025474206
0.0031846151
0.0037595725
0.0042386734
0.0045915665
0.004793994
0.0048302876
0.0046951622
0.0043944891
0.0039448074
0.0033713576
0.0027054769
0.0019853341
0.0012526753
0.00049678048
-0.00034150423
0.0021611871
0.00097891215
0.00019505957
-0.0003693034
-0.0008274189
-0.0011992085
-0.0015047134
-0.0017641261
-0.0019911216
-0.0021931363
-0.002372282
-0.0025259673
-0.0026476307
-0.0027276224
-0.002754203
-0.0027146566
-0.002596514
-0.0023888666
-0.0020837293
-0.0016774034
-0.0011717406
-0.00057486587
9.7526545e-05
0.00082263704
0.0015707606
0.0023065066
0.0029907786
0.003583454
0.0040465861
0.0043478254
0.0044636579
0.0043820216
0.0041038842
0.0036433833
0.0030260954
0.0022863116
0.0014680861
0.0006212155
-0.00026656532
-0.0012651146
0.0016729737
0.00040178577
-0.00043776116
-0.0010413896
-0.0015341552
-0.0019398801
-0.002281813
-0.0025826908
-0.0028576579
-0.0031146891
-0.0033556671
-0.0035771054
-0.0037709524
-0.0039255248
-0.0040265477
-0.0040583128
-0.0040049662
-0.0038519189
-0.0035873538
-0.0032037631
-0.00269944
-0.0020799966
-0.0013589624
-0.00055874557
0.00028965985
0.001147572
0.0019704458
0.0027106413
0.0033210093
0.0037589996
0.0039908429
0.0039952591
0.003766141
0.0033136286
0.0026628649
0.0018512758
0.00092994345
-4.1480201e-05
-0.0010762263
-0.0022557158
0.0009373815
-0.00041048346
-0.0012989872
-0.0019388353
-0.0024657664
-0.0029073542
-0.0032898571
-0.0036383128
-0.0039691254
-0.0042906322
-0.0046043362
-0.00490572
-0.0051851034
-0.0054286027
-0.005619183
-0.0057378314
-0.0057648783
-0.0056814795
-0.0054712487
-0.0051219864
-0.0046274492
-0.0039892724
-0.0032179594
-0.0023343893
-0.0013700057
-0.00036636172
0.000626406
0.0015522957
0.002353325
0.002974361
0.0033684317
0.0035018562
0.0033584461
0.0029419304
0.0022755474
0.0013995499
0.00037302358
-0.00073259149
-0.0019310463
-0.0033166238
-6.4768692e-05
-0.0014760515
-0.0024062817
-0.0030790931
-0.0036396196
-0.0041190132
-0.0045463528
-0.0049487668
-0.0053437632
-0.0057399351
-0.0061383298
-0.0065333386
-0.0069135856
-0.0072628846
-0.0075612692
-0.0077861415
-0.0079135897
-0.0079199074
-0.0077833254
-0.0074859304
-0.0070157298
-0.0063688399
-0.0055513195
-0.0045809854
-0.0034884115
-0.002317107
-0.0011224982
3.0533433e-05
0.0010716759
0.0019306845
0.0025439456
0.0028613684
0.0028526247
0.0025115173
0.0018569299
0.00093092594
-0.00019873228
-0.0014467752
-0.0028270647
-0.0044483461
-0.0013488969
-0.0028094337
-0.0037737623
-0.0044761306
-0.0050696126
-0.0055887302
-0.0060651989
-0.0065280613
-0.0069958349
-0.0074773371
-0.0079731698
-0.0084766613
-0.0089747608
-0.0094489616
-0.0098762701
-0.010230288
-0.010482482
-0.010603689
-0.010565917
-0.010344423
-0.0099200547
-0.0092818125
-0.0084293761
-0.007375545
-0.0061481426
-0.0047910761
-0.0033641159
-0.0019409876
-0.00060546759
0.00055461617
0.0014552175
0.0020250107
0.002214252
0.0020018776
0.0013986027
0.00044623722
-0.00077863222
-0.0021748294
-0.0037558909
-0.0056467838
-0.0029260983
-0.0044210455
-0.0054115535
-0.0061399269
-0.0067655665
-0.0073261215
-0.0078557682
-0.0083853297