/*--------------------------------*- C++ -*----------------------------------*\
  =========                 |
  \\      /  F ield         | OpenFOAM: The Open Source CFD Toolbox
   \\    /   O peration     | Website:  https://openfoam.org
    \\  /    A nd           | Version:  7
     \\/     M anipulation  |
\*---------------------------------------------------------------------------*/
FoamFile
{
    version     2.0;
    format      ascii;
    class       surfaceScalarField;
    location    "39";
    object      phi;
}
// * * * * * * * * * * * * * * * * * * * * * * * * * * * * * * * * * * * * * //

dimensions      [0 3 -1 0 0 0 0];

internalField   nonuniform List<scalar> 
45600
(
2.7511458e-07
-2.8229441e-07
-8.0631075e-11
4.0330756e-07
-1.2816758e-07
-2.5419486e-11
1.3254746e-07
2.7076709e-07
-6.9900025e-12
-5.6231478e-07
6.9486385e-07
-1.7087074e-12
-1.6393138e-06
1.0769955e-06
3.4321511e-12
-3.0276235e-06
1.3883028e-06
6.9342073e-12
-4.6524659e-06
1.6248335e-06
9.238567e-12
-6.4450986e-06
1.792622e-06
1.0853849e-11
-8.3454256e-06
1.9003152e-06
1.1985686e-11
-1.0301445e-05
1.9560074e-06
1.2735903e-11
-1.2267405e-05
1.9659471e-06
1.3168229e-11
-1.4201584e-05
1.9341673e-06
1.3310065e-11
-1.6064241e-05
1.8626455e-06
1.3165851e-11
-1.7816029e-05
1.751777e-06
1.2730663e-11
-1.9417056e-05
1.6010164e-06
1.1996187e-11
-2.0826661e-05
1.4095949e-06
1.0957758e-11
-2.200391e-05
1.1772411e-06
9.6186245e-12
-2.2908771e-05
9.0485527e-07
7.9830645e-12
-2.350387e-05
5.9509395e-07
6.0370226e-12
-2.3756702e-05
2.5283003e-07
3.7805476e-12
-2.3642142e-05
-1.1456144e-07
1.2529285e-12
-2.3145012e-05
-4.9712858e-07
-1.4479079e-12
-2.2262579e-05
-8.8242811e-07
-4.1906351e-12
-2.1006622e-05
-1.2559487e-06
-6.8506501e-12
-1.9404867e-05
-1.6017442e-06
-9.3435366e-12
-1.7501559e-05
-1.9032964e-06
-1.1624474e-11
-1.5356972e-05
-2.1445737e-06
-1.3590986e-11
-1.3045758e-05
-2.3112013e-06
-1.5031363e-11
-1.06541e-05
-2.3916413e-06
-1.5691836e-11
-8.2758134e-06
-2.3782685e-06
-1.545455e-11
-6.007564e-06
-2.2682315e-06
-1.4455052e-11
-3.9435304e-06
-2.0640203e-06
-1.2950308e-11
-2.169786e-06
-1.7737368e-06
-1.0998926e-11
-7.5854018e-07
-1.4112405e-06
-8.3280424e-12
2.3821341e-07
-9.9674604e-07
-4.8299109e-12
7.9655089e-07
-5.5832816e-07
-1.3305594e-12
9.2927698e-07
-1.3272419e-07
2.1138891e-12
7.0557734e-07
2.2368879e-07
5.3984474e-12
2.9046017e-07
4.150957e-07
8.6074552e-12
2.9045066e-07
1.8247973e-12
1.3286275e-07
-4.151344e-07
-2.2821113e-11
-3.0170717e-07
3.0641683e-07
-1.4462205e-11
-1.6154176e-06
1.5844903e-06
-1.2593403e-11
-3.8747192e-06
2.9541789e-06
-1.3318494e-11
-7.0073505e-06
4.2096413e-06
-1.4466124e-11
-1.0879758e-05
5.2607265e-06
-1.5990937e-11
-1.5335171e-05
6.0802637e-06
-1.739895e-11
-2.0216008e-05
6.6734787e-06
-1.8407237e-11
-2.5374066e-05
7.0583936e-06
-1.8978643e-11
-3.0673278e-05
7.2552405e-06
-1.9124079e-11
-3.5988545e-05
7.2812347e-06
-1.8851109e-11
-4.1202833e-05
7.148475e-06
-1.8172155e-11
-4.6203976e-05
6.863808e-06
-1.7103061e-11
-5.0882103e-05
6.429923e-06
-1.5657757e-11
-5.5128235e-05
5.8471647e-06
-1.3852046e-11
-5.8834321e-05
5.1156958e-06
-1.1704118e-11
-6.1894805e-05
4.2377361e-06
-9.2237616e-12
-6.420961e-05
3.219669e-06
-6.3980387e-12
-6.568836e-05
2.073848e-06
-3.2493201e-12
-6.6255469e-05
8.1994121e-07
1.4795234e-13
-6.5855984e-05
-5.1404865e-07
3.6655756e-12
-6.4460809e-05
-1.8923093e-06
7.214151e-12
-6.2072478e-05
-3.2707697e-06
1.0654414e-11
-5.872909e-05
-4.5993515e-06
1.3936812e-11
-5.4507077e-05
-5.8237739e-06
1.7012249e-11
-4.9521906e-05
-6.8884854e-06
1.9724917e-11
-4.3926397e-05
-7.7401014e-06
2.1810788e-11
-3.7906449e-05
-8.3311699e-06
2.3034474e-11
-3.1674143e-05
-8.6239732e-06
2.3376361e-11
-2.54584e-05
-8.5940368e-06
2.3049694e-11
-1.9493612e-05
-8.2330421e-06
2.224343e-11
-1.4006718e-05
-7.5509282e-06
2.0828909e-11
-9.2032862e-06
-6.5771802e-06
1.8445378e-11
-5.2529002e-06
-5.3616407e-06
1.5036372e-11
-2.273984e-06
-3.9756807e-06
1.1239683e-11
-3.1728007e-07
-2.5150463e-06
7.8574423e-12
6.570498e-07
-1.1070512e-06
4.7740982e-12
8.0367085e-07
7.7083853e-08
3.8000567e-12
4.1785038e-07
8.0093236e-07
4.6580253e-12
7.0829872e-07
-3.1802821e-12
-2.735948e-07
-1.4152693e-07
-1.2698369e-11
-1.627496e-06
1.6603257e-06
-7.4741816e-12
-4.2894161e-06
4.2464194e-06
-8.7655136e-12
-8.2746871e-06
6.9394575e-06
-7.3163028e-12
-1.3474425e-05
9.4093851e-06
-5.3222426e-12
-1.9708727e-05
1.1495033e-05
-4.2426326e-12
-2.6765756e-05
1.3137296e-05
-3.5452181e-12
-3.4426621e-05
1.4334348e-05
-2.9553318e-12
-4.2478635e-05
1.5110411e-05
-2.4548336e-12
-5.0720454e-05
1.5497063e-05
-2.0221624e-12
-5.8962298e-05
1.5523082e-05
-1.6229297e-12
-6.7023693e-05
1.5209873e-05
-1.2312698e-12
-7.4730534e-05
1.4570652e-05
-8.3091547e-13
-8.1912721e-05
1.3612112e-05
-4.0980176e-13
-8.8403149e-05
1.2337595e-05
3.2568845e-14
-9.4038477e-05
1.0751025e-05
4.7419279e-13
-9.8661796e-05
8.8610564e-06
8.781529e-13
-0.0001021271
6.684968e-06
1.2318774e-12
-0.00010430523
4.2519781e-06
1.5523703e-12
-0.000105091
1.6057171e-06
1.8714819e-12
-0.00010441064
-1.1944127e-06
2.1961008e-12
-0.00010222946
-4.0734949e-06
2.4657637e-12
-9.855852e-05
-6.9417081e-06
2.5979277e-12
-9.3460004e-05
-9.6978696e-06
2.5758654e-12
-8.7050395e-05
-1.2233386e-05
2.4959354e-12
-7.9501001e-05
-1.4437883e-05
2.5013882e-12
-7.1035285e-05
-1.6205819e-05
2.6325431e-12
-6.1922727e-05
-1.7443728e-05
2.7407443e-12
-5.2469147e-05
-1.8077553e-05
2.6193406e-12
-4.3003678e-05
-1.8059508e-05
2.2813573e-12
-3.3862825e-05
-1.7373901e-05
2.0596061e-12
-2.5372232e-05
-1.6041524e-05
2.2971555e-12
-1.7826888e-05
-1.4122524e-05
2.883672e-12
-1.1470405e-05
-1.1718119e-05
3.246208e-12
-6.4738606e-06
-8.9722261e-06
3.0078507e-12
-2.9140439e-06
-6.0748724e-06
2.4945207e-12
-7.5123317e-07
-3.2698743e-06
2.3313063e-12
1.9434468e-07
-8.6850189e-07
3.5622768e-12
2.6549849e-07
7.2978361e-07
5.8837583e-12
9.7379421e-07
8.9236496e-13
-7.4585277e-07
6.0433895e-07
-1.2912226e-11
-3.1796464e-06
4.0941214e-06
-1.4818686e-12
-7.3461182e-06
8.4128985e-06
-6.9268101e-12
-1.3163072e-05
1.2756418e-05
-6.2618163e-12
-2.0455836e-05
1.6702152e-05
-3.6169555e-12
-2.8992653e-05
2.0031853e-05
-2.2713199e-12
-3.8513895e-05
2.265854e-05
-1.3960142e-12
-4.8752694e-05
2.4573148e-05
-6.113387e-13
-5.9446999e-05
2.5804717e-05
4.3658682e-14
-7.034485e-05
2.6394914e-05
5.7675221e-13
-8.1205143e-05
2.6383375e-05
1.0171149e-12
-9.1795996e-05
2.5800725e-05
1.3811746e-12
-0.00010189243
2.4667081e-05
1.6777259e-12
-0.00011127464
2.2994329e-05
1.9186768e-12
-0.00011972779
2.0790744e-05
2.1215825e-12
-0.00012704362
1.806685e-05
2.2924922e-12
-0.00013302417
1.4841604e-05
2.4057019e-12
-0.00013748742
1.1148223e-05
2.4155273e-12
-0.00014027452
7.0390736e-06
2.293738e-12
-0.00014125806
2.5892531e-06
2.0715866e-12
-0.00014035078
-2.1016948e-06
1.8286848e-12
-0.00013751439
-6.9098857e-06
1.5758921e-12
-0.00013276703
-1.1689071e-05
1.2857469e-12
-0.00012618931
-1.6275586e-05
8.7423503e-13
-0.00011792789
-2.0494809e-05
3.1052289e-13
-0.00010819592
-2.4169859e-05
-2.8225913e-13
-9.7269878e-05
-2.7131857e-05
-6.7466138e-13
-8.5482417e-05
-2.9231188e-05
-7.4131653e-13
-7.3210952e-05
-3.0349013e-05
-6.3102428e-13
-6.0862268e-05
-3.0408188e-05
-6.4020366e-13
-4.8853453e-05
-2.9382715e-05
-8.2950131e-13
-3.7589906e-05
-2.7305075e-05
-8.1695457e-13
-2.7441319e-05
-2.4271114e-05
-1.3245149e-13
-1.8716694e-05
-2.0442741e-05
1.1316029e-12
-1.1639457e-05
-1.6049457e-05
2.2314669e-12
-6.3235706e-06
-1.1390756e-05
2.6085394e-12
-2.7515389e-06
-6.8419127e-06
2.7258092e-12
-7.5715908e-07
-2.8628921e-06
3.4246525e-12
-9.5245046e-09
-1.7850923e-08
4.5143562e-12
9.6426548e-07
3.9143732e-12
-1.2279712e-06
1.832325e-06
-1.4411926e-11
-4.7881188e-06
7.6542655e-06
4.5280235e-12
-1.0521555e-05
1.4146341e-05
-6.0422456e-12
-1.8214347e-05
2.0449218e-05
-7.1436486e-12
-2.7603951e-05
2.6091762e-05
-4.7445482e-12
-3.839631e-05
3.0824216e-05
-3.9954752e-12
-5.0283066e-05
3.45453e-05
-3.6540044e-12
-6.2954793e-05
3.7244878e-05
-3.2029062e-12
-7.6109046e-05
3.8958973e-05
-2.7594228e-12
-8.9453781e-05
3.9739652e-05
-2.3430582e-12
-0.00010270748
3.9637075e-05
-1.9281503e-12
-0.00011559754
3.8690784e-05
-1.5080877e-12
-0.00012785835
3.6927894e-05
-1.0899975e-12
-0.0001392302
3.4366183e-05
-6.8277606e-13
-0.00014945975
3.1020293e-05
-2.8145546e-13
-0.00015830248
2.6909575e-05
1.3633791e-13
-0.00016552724
2.2066367e-05
5.8579034e-13
-0.00017092275
1.6543729e-05
1.0430733e-12
-0.00017430559
1.0421918e-05
1.4479279e-12
-0.00017552935
3.813013e-06
1.7528025e-12
-0.00017449413
-3.1369239e-06
1.9725043e-12
-0.00017115589
-1.0248131e-05
2.1684621e-12
-0.0001655348
-1.7310155e-05
2.404166e-12
-0.0001577219
-2.4088487e-05
2.6465308e-12
-0.0001478832
-3.0333517e-05
2.7615595e-12
-0.0001362606
-3.579246e-05
2.6457905e-12
-0.00012316896
-4.0223496e-05
2.3887175e-12
-0.00010898872
-4.3411433e-05
2.2590951e-12
-9.4153805e-05
-4.5183932e-05
2.4434762e-12
-7.9134856e-05
-4.5427137e-05
2.7805312e-12
-6.4418063e-05
-4.4099506e-05
2.8625278e-12
-5.0480366e-05
-4.1242775e-05
2.5296424e-12
-3.7762141e-05
-3.6989347e-05
2.1997516e-12
-2.6638827e-05
-3.1566063e-05
2.4431008e-12
-1.7393175e-05
-2.529511e-05
3.1794665e-12
-1.0189916e-05
-1.8594011e-05
3.7775131e-12
-5.0547357e-06
-1.1977094e-05
4.0934531e-12
-1.8598356e-06
-6.0577993e-06
3.3123749e-12
-3.2223442e-07
-1.5554558e-06
3.3477581e-13
6.4202685e-07
5.9681876e-12
-1.6931712e-06
3.5255135e-06
-1.6911141e-11
-6.3714162e-06
1.2332502e-05
9.9503948e-12
-1.3671461e-05
2.1446393e-05
-5.0639793e-12
-2.3234069e-05
3.0011834e-05
-7.2431379e-12
-3.4695252e-05
3.755295e-05
-4.5246041e-12
-4.768983e-05
4.3818799e-05
-3.946004e-12
-6.1857531e-05
4.8713005e-05
-3.8090818e-12
-7.6848073e-05
5.2235424e-05
-3.4490417e-12
-9.2323875e-05
5.4434778e-05
-3.0640984e-12
-0.00010796028
5.5376055e-05
-2.6995298e-12
-0.00012344397
5.5120772e-05
-2.3224251e-12
-0.0001384707
5.3717511e-05
-1.9169662e-12
-0.00015274323
5.1200426e-05
-1.4826683e-12
-0.00016597054
4.7593496e-05
-1.03624e-12
-0.00017786874
4.2918493e-05
-6.0036914e-13
-0.00018816405
3.7204887e-05
-1.7840625e-13
-0.00019659789
3.0500205e-05
2.5679781e-13
-0.00020293384
2.2879673e-05
7.3274516e-13
-0.00020696614
1.445422e-05
1.2335038e-12
-0.00020852929
5.3761648e-06
1.6905899e-12
-0.00020750812
-4.1581027e-06
2.0285151e-12
-0.00020384768
-1.3908574e-05
2.2411422e-12
-0.00019756247
-2.3595369e-05
2.4102252e-12
-0.00018874397
-3.2906991e-05
2.6428857e-12
-0.00017756589
-4.1511597e-05
2.9360862e-12
-0.00016428626
-4.9072092e-05
3.1282868e-12
-0.00014924551
-5.5264245e-05
3.0473929e-12
-0.0001328599
-5.9797045e-05
2.7498706e-12
-0.00011560968
-6.2434164e-05
2.5605699e-12
-9.8021762e-05
-6.3015054e-05
2.7603679e-12
-8.0647226e-05
-6.1474042e-05
3.20409e-12
-6.4034176e-05
-5.7855823e-05
3.3916066e-12
-4.8697445e-05
-5.232608e-05
3.0785904e-12
-3.5086902e-05
-4.5176613e-05
2.6691963e-12
-2.3556677e-05
-3.6825344e-05
2.7220812e-12
-1.4337869e-05
-2.7812822e-05
3.4363631e-12
-7.5174842e-06
-1.8797479e-05
4.7258586e-12
-3.0267229e-06
-1.0548564e-05
3.6777285e-12
-6.4249308e-07
-3.9396865e-06
-2.0946524e-12
-4.7443866e-10
8.328796e-12
-2.1329389e-06
5.6584728e-06
-1.9689187e-11
-7.8910803e-06
1.8090631e-05
1.4738621e-11
-1.6717411e-05
3.027273e-05
-4.3086669e-12
-2.8105748e-05
4.140018e-05
-7.2791175e-12
-4.1585097e-05
5.1032304e-05
-4.0737582e-12
-5.6714144e-05
5.8947849e-05
-3.5473653e-12
-7.3078288e-05
6.5077152e-05
-3.5467039e-12
-9.0287097e-05
6.9444236e-05
-3.2263862e-12
-0.00010797133
7.2119014e-05
-2.8551134e-12
-0.00012577928
7.3184001e-05
-2.510854e-12
-0.00014337275
7.2714245e-05
-2.1659099e-12
-0.00016042342
7.0768186e-05
-1.8033132e-12
-0.00017661019
6.7387196e-05
-1.4074119e-12
-0.00019161814
6.2601444e-05
-9.7308995e-13
-0.00020513951
5.6439866e-05
-5.2256211e-13
-0.00021687684
4.8942211e-05
-9.3768746e-14
-0.00022654814
4.0171509e-05
2.9930697e-13
-0.00023389406
3.0225591e-05
6.8529997e-13
-0.0002386865
1.9246651e-05
1.1071346e-12
-0.00024073842
7.4280809e-06
1.5657528e-12
-0.00023991436
-4.9821595e-06
1.988484e-12
-0.00023614102
-1.768192e-05
2.2790257e-12
-0.00022941747
-3.0318923e-05
2.3936002e-12
-0.00021982416
-4.2500308e-05
2.4302847e-12
-0.00020752992
-5.3805838e-05
2.5532339e-12
-0.00019279609
-6.3805918e-05
2.8078028e-12
-0.0001759767
-7.2083644e-05
3.0160747e-12
-0.00015751363
-7.8260108e-05
2.9329464e-12
-0.00013792612
-8.2021677e-05
2.5691223e-12
-0.00011779373
-8.3147458e-05
2.2964123e-12
-9.7732956e-05
-8.1534818e-05
2.4851683e-12
-7.8368126e-05
-7.7220654e-05
3.0132593e-12
-6.0297862e-05
-7.0396342e-05
3.323074e-12
-4.405952e-05
-6.1414957e-05
3.0826428e-12
-3.0094428e-05
-5.0790443e-05
2.6276252e-12
-1.8717264e-05
-3.9189993e-05
2.9563567e-12
-1.0093051e-05
-2.7421697e-05
4.8944548e-12
-4.2253091e-06
-1.6416308e-05
3.8486051e-12
-9.5848402e-07
-7.2065074e-06
-4.6829952e-12
-9.5896947e-07
1.0319134e-11
-2.5450552e-06
8.2035515e-06
-2.246985e-11
-9.3288482e-06
2.4874406e-05
1.9005381e-11
-1.9615366e-05
4.0559253e-05
-3.836834e-12
-3.2756853e-05
5.4541675e-05
-7.5323899e-12
-4.8175891e-05
6.6451347e-05
-3.8531248e-12
-6.5354096e-05
7.6126058e-05
-3.3826526e-12
-8.3822146e-05
8.3545205e-05
-3.5396622e-12
-0.00010315063
8.8772723e-05
-3.2948511e-12
-0.00012294163
9.1910014e-05
-2.9609852e-12
-0.00014282096
9.3063336e-05
-2.6373202e-12
-0.00016243135
9.2324633e-05
-2.3055328e-12
-0.00018142688
8.976372e-05
-1.9652812e-12
-0.00019946925
8.5429565e-05
-1.6083593e-12
-0.00021622604
7.9358238e-05
-1.2100013e-12
-0.0002313713
7.1585124e-05
-7.5801572e-13
-0.00024458832
6.2159228e-05
-2.7914365e-13
-0.00025557459
5.1157781e-05
1.7546281e-13
-0.00026404867
3.8699671e-05
5.7648138e-13
-0.00026975868
2.495665e-05
9.4874077e-13
-0.0002724921
1.0161498e-05
1.3507095e-12
-0.00027208668
-5.3875777e-06
1.8056963e-12
-0.00026844172
-2.1326881e-05
2.2598046e-12
-0.00026152975
-3.7230899e-05
2.5654081e-12
-0.00025140739
-5.2622667e-05
2.6465698e-12
-0.00023822498
-6.6988253e-05
2.6035801e-12
-0.00022223363
-7.9797265e-05
2.654734e-12
-0.00020378863
-9.0528649e-05
2.9040539e-12
-0.00018334762
-9.8701122e-05
3.1687215e-12
-0.0001614624
-0.00010390689
3.1335025e-12
-0.00013876327
-0.0001058466
2.7557807e-12
-0.00011593535
-0.00010436274
2.4346006e-12
-9.3687549e-05
-9.9468458e-05
2.6031295e-12
-7.2715435e-05
-9.1368458e-05
3.1501191e-12
-5.3660744e-05
-8.0469648e-05
3.427138e-12
-3.7071082e-05
-6.7380107e-05
3.0253782e-12
-2.3363947e-05
-5.2897135e-05
2.9775509e-12
-1.2799318e-05
-3.7986334e-05
5.0792375e-12
-5.4648793e-06
-2.3750749e-05
3.6988099e-12
-1.2772553e-06
-1.1394123e-05
-7.5208387e-12
-2.2362381e-06
1.2850429e-11
-2.9284818e-06
1.113206e-05
-2.5169573e-11
-1.0673672e-05
3.2619576e-05
2.2844699e-11
-2.2336175e-05
5.2221761e-05
-3.5353476e-12
-3.7135977e-05
6.9341486e-05
-7.9026623e-12
-5.4394112e-05
8.3709486e-05
-3.7579695e-12
-7.3517629e-05
9.5249579e-05
-3.3095649e-12
-9.3984301e-05
0.00010401188
-3.5955611e-12
-0.00011532796
0.00011011638
-3.4270175e-12
-0.00013712518
0.00011370723
-3.1485905e-12
-0.00015898353
0.00011492169
-2.8622505e-12
-0.00018053178
0.00011387288
-2.5421134e-12
-0.00020141215
0.00011064409
-2.198591e-12
-0.00022127503
0.00010529245
-1.8499748e-12
-0.00023977618
9.7859389e-05
-1.487247e-12
-0.00025657638
8.8385318e-05
-1.078012e-12
-0.00027134346
7.6926313e-05
-6.0163945e-13
-0.00028375659
6.3570906e-05
-8.3513306e-14
-0.00029351243
4.8455515e-05
4.1401631e-13
-0.00030033322
3.1777437e-05
8.4076566e-13
-0.00030397636
1.3804634e-05
1.2065728e-12
-0.00030424557
-5.1183662e-06
1.5807862e-12
-0.00030100297
-2.4569483e-05
2.0508672e-12
-0.00029418252
-4.4051357e-05
2.5391735e-12
-0.00028380325
-6.3001935e-05
2.881622e-12
-0.00026998221
-8.0809297e-05
2.9550889e-12
-0.00025294549
-9.6833986e-05
2.8460844e-12
-0.000233036
-0.00011043815
2.8205995e-12
-0.000210716
-0.00012102112
3.0452372e-12
-0.00018656267
-0.00012806022
3.3445382e-12
-0.00016125483
-0.00013115444
3.3506807e-12
-0.00013554997
-0.0001300676
2.9823025e-12
-0.00011025148
-0.00012476696
2.6611016e-12
-8.6167388e-05
-0.00011545255
2.8402832e-12
-6.4063736e-05
-0.0001025733
3.2862723e-12
-4.461667e-05
-8.6827174e-05
3.2282836e-12
-2.8368531e-05
-6.9145278e-05
3.2519348e-12
-1.5693155e-05
-5.0661717e-05
5.5463439e-12
-6.7752232e-06
-3.2668685e-05
3.5319171e-12
-1.6070345e-06
-1.65623e-05
-1.0594268e-11
-3.8432875e-06
1.5436689e-11
-3.2816993e-06
1.4413788e-05
-2.7750223e-11
-1.1915869e-05
4.1253721e-05
2.6285359e-11
-2.4855511e-05
6.5161408e-05
-3.3397971e-12
-4.1199918e-05
8.5685902e-05
-8.3265061e-12
-6.017631e-05
0.00010268588
-3.7526999e-12
-8.1122249e-05
0.00011619552
-3.3028018e-12
-0.0001034663
0.00012635594
-3.6758607e-12
-0.00012670888
0.00013335896
-3.554734e-12
-0.00015040465
0.000137403
-3.3251874e-12
-0.00017414714
0.00013866419
-3.0918632e-12
-0.00019755594
0.00013728169
-2.8084262e-12
-0.00022026668
0.00013335483
-2.4703165e-12
-0.00024192389
0.00012694965
-2.1051017e-12
-0.00026217668
0.00011811218
-1.7376466e-12
-0.00028067717
0.00010688581
-1.3623e-12
-0.0002970813
9.3330445e-05
-9.4188274e-13
-0.00031105196
7.7541559e-05
-4.4403761e-13
-0.00032226414
5.9667701e-05
1.1539357e-13
-0.0003304122
3.9925496e-05
6.645245e-13
-0.00033521897
1.8611403e-05
1.1150591e-12
-0.00033644713
-3.8902109e-06
1.4464433e-12
-0.00033391173
-2.7104883e-05
1.8295232e-12
-0.00032749596
-5.0467127e-05
2.2901166e-12
-0.00031716688
-7.3331023e-05
2.8037869e-12
-0.00030299229
-9.4983877e-05
3.1874052e-12
-0.00028515682
-0.00011466946
3.264895e-12
-0.00026397517
-0.0001316198
3.1008904e-12
-0.00023990062
-0.00014509568
2.9969287e-12
-0.00021352583
-0.00015443501
3.1723342e-12
-0.00018557378
-0.00015910649
3.4618618e-12
-0.00015687658
-0.0001587648
3.4730596e-12
-0.00012834163
-0.00015330191
3.1324868e-12
-0.00010090607
-0.00014288813
2.8847766e-12
-7.5482478e-05
-0.0001279969
3.0147269e-12
-5.290115e-05
-0.0001094085
3.0412885e-12
-3.3855116e-05
-8.8191312e-05
3.3846205e-12
-1.8854786e-05
-6.5662053e-05
6.2172202e-12
-8.1982653e-06
-4.332521e-05
3.533563e-12
-1.961164e-06
-2.2799387e-05
-1.3881942e-11
-5.8044684e-06
1.8099465e-11
-3.6023023e-06
1.8016122e-05
-3.0173123e-11
-1.3044871e-05
5.0696263e-05
2.9314283e-11
-2.7149288e-05
7.9265829e-05
-3.2339249e-12
-4.4907168e-05
0.00010344379
-8.7714979e-12
-6.5461504e-05
0.00012324022
-3.817831e-12
-8.8087231e-05
0.00013882125
-3.3757474e-12
-0.0001121688
0.00015043751
-3.8216958e-12
-0.00013717742
0.00015836759
-3.7238746e-12
-0.00016264988
0.00016287546
-3.5177345e-12
-0.00018816993
0.00016418424
-3.3266609e-12
-0.00021335264
0.0001624644
-3.0968217e-12
-0.00023783203
0.00015783422
-2.8001038e-12
-0.0002612519
0.00015036953
-2.4396508e-12
-0.00028325983
0.00014012011
-2.044346e-12
-0.00030350382
0.0001271298
-1.6477115e-12
-0.00032163166
0.00011145828
-1.2531559e-12
-0.00033729244
9.3202342e-05
-8.2119828e-13
-0.00035014038
7.2515638e-05
-3.0338091e-13
-0.00035984078
4.9625904e-05
2.9866495e-13
-0.00036607842
2.4849039e-05
8.8842042e-13
-0.00036856896
-1.3996723e-06
1.3219631e-12
-0.00036707134
-2.8602506e-05
1.7530224e-12
-0.00036140636
-5.6132104e-05
2.1036728e-12
-0.00035147457
-8.3262815e-05
2.537817e-12
-0.00033727782
-0.00010918063
3.0644092e-12
-0.0003189409
-0.00013300638
3.4796665e-12
-0.00029673174
-0.00015382896
3.5645466e-12
-0.00027107726
-0.00017075016
3.3611406e-12
-0.00024257162
-0.00018294065
3.1914996e-12
-0.00021197327
-0.00018970485
3.3031923e-12
-0.00018018759
-0.00019055048
3.5355995e-12
-0.00014823331
-0.00018525619
3.5233413e-12
-0.00011719276
-0.00017392868
3.2565024e-12
-8.8148953e-05
-0.00015704071
3.0251207e-12
-6.2115386e-05
-0.00013544207
2.7591078e-12
-3.9966492e-05
-0.00011034021
3.2641144e-12
-2.2377612e-05
-8.3250939e-05
6.8719251e-12
-9.7826913e-06
-5.5920133e-05
3.6474896e-12
-2.3546967e-06
-3.0227363e-05
-1.7412543e-11
-8.1591851e-06
2.1067204e-11
-3.8870497e-06
2.1903205e-05
-3.2382858e-11
-1.4048659e-05
6.0857841e-05
3.1916531e-11
-2.9192052e-05
9.4409226e-05
-3.2214406e-12
-4.8215262e-05
0.00012246701
-9.2268018e-12
-7.018784e-05
0.0001452128
-3.9286356e-12
-9.4330059e-05
0.00016296347
-3.5041536e-12
-0.00011998821
0.00017609567
-4.0301931e-12
-0.00014660908
0.00018498846
-3.9579304e-12
-0.00017371588
0.00018998227
-3.7600925e-12
-0.00020088685
0.00019135521
-3.5832999e-12
-0.00022773708
0.00018931463
-3.3883351e-12
-0.0002539038
0.00018400094
-3.147591e-12
-0.00027903519
0.00017550093
-2.8374002e-12
-0.00030278231
0.00016386723
-2.4515547e-12
-0.00032479396
0.00014914145
-2.0184457e-12
-0.00034471403
0.00013137836
-1.5823656e-12
-0.00036218125
0.00011066956
-1.1603182e-12
-0.00037683113
8.7165517e-05
-7.1494234e-13
-0.00038830041
6.1095186e-05
-1.8103433e-13
-0.00039623426
3.2782895e-05
4.7166369e-13
-0.00040029637
2.6624371e-06
1.1825037e-12
-0.00040018387
-2.871501e-05
1.7013184e-12
-0.00039564404
-6.0671928e-05
2.0837964e-12
-0.00038649735
-9.2409512e-05
2.4036815e-12
-0.00037266262
-0.00012301537
2.8127325e-12
-0.00035418496
-0.00015148404
3.3320652e-12
-0.00033126379
-0.00017675013
3.7536017e-12
-0.00030427782
-0.00019773613
3.8322414e-12
-0.00027380298
-0.0002134155
3.5966818e-12
-0.0002406183
-0.00022288954
3.3735662e-12
-0.00020569519
-0.0002254736
3.4071387e-12
-0.00017016638
-0.000220785
3.5568814e-12
-0.00013527317
-0.00020882189
3.546275e-12
-0.00010229332
-0.00019002056
3.2687979e-12
-7.2455934e-05
-0.00016527947
2.6592972e-12
-4.6853295e-05
-0.00013594285
3.081866e-12
-2.6361365e-05
-0.00010374287
7.4647743e-12
-1.1580443e-05
-7.0701057e-05
3.741715e-12
-2.803315e-06
-3.9004468e-05
-2.1345335e-11
-1.0962524e-05
2.4509801e-11
-4.1321163e-06
2.6035356e-05
-3.4323099e-11
-1.4914096e-05
7.1639787e-05
3.4093181e-11
-3.095713e-05
0.00011045226
-3.2945358e-12
-5.1080653e-05
0.00014259055
-9.6948811e-12
-7.4292272e-05
0.00016842443
-4.0820982e-12
-9.9766124e-05
0.00018843733
-3.6643156e-12
-0.00012681669
0.00020314624
-4.2687024e-12
-0.0001548713
0.00021304308
-4.2383089e-12
-0.00018344394
0.0002185549
-4.0616082e-12
-0.0002121115
0.00022002278
-3.8903469e-12
-0.00024049344
0.00021769658
-3.6988654e-12
-0.00026823493
0.00021174244
-3.4849081e-12
-0.00029499351
0.00020225952
-3.2330029e-12
-0.00032042904
0.00018930277
-2.9092226e-12
-0.0003441964
0.00017290881
-2.49635e-12
-0.00036594073
0.0001531227
-2.0195662e-12
-0.00038529504
0.00013002387
-1.5345556e-12
-0.00040188
0.00010375048
-1.0770602e-12
-0.00041530643
7.4521616e-05
-6.1476223e-13
-0.00042518076
4.2657227e-05
-4.8101315e-14
-0.00043111396
8.5956316e-06
6.8949157e-13
-0.00043273621
-2.7092756e-05
1.3729909e-12
-0.00042971415
-6.3693987e-05
1.9876203e-12
-0.00042177617
-0.00010034749
2.4186584e-12
-0.00040874171
-0.00013604983
2.7371395e-12
-0.00039055538
-0.00016967038
3.1197689e-12
-0.00036732349
-0.00019998201
3.608215e-12
-0.00033934979
-0.00022570983
3.9979831e-12
-0.00030716536
-0.00024559993
4.0408674e-12
-0.00027154682
-0.00025850808
3.7668382e-12
-0.000233516
-0.00026350442
3.4907205e-12
-0.00019431498
-0.00025998603
3.4479718e-12
-0.00015535291
-0.00024778396
3.5513275e-12
-0.00011812526
-0.00022724821
3.4317668e-12
-8.411183e-05
-0.0001992929
2.6883273e-12
-5.4665482e-05
-0.0001653892
3.0097494e-12
-3.0907342e-05
-0.00012750102
8.1329945e-12
-1.3644698e-05
-8.7963702e-05
3.7844769e-12
-3.3229925e-06
-4.9326146e-05
-2.5887974e-11
-1.4285544e-05
2.852396e-11
-4.3334538e-06
3.0368846e-05
-3.5957943e-11
-1.5627794e-05
8.2934091e-05
3.5843515e-11
-3.241791e-05
0.00012724238
-3.4226812e-12
-5.3460307e-05
0.00016363295
-1.0164362e-11
-7.7712459e-05
0.00019267658
-4.2890219e-12
-0.000104311
0.00021503588
-3.8606683e-12
-0.00013254491
0.00023138015
-4.5190832e-12
-0.00016182693
0.0002423251
-4.530755e-12
-0.00019166588
0.00024839385
-4.3950291e-12
-0.00022164124
0.00024999815
-4.2508604e-12
-0.00025138096
0.00024743631
-4.0615261e-12
-0.00028054264
0.00024090412
-3.8403814e-12
-0.00030879821
0.00023051509
-3.6049384e-12
-0.00033582178
0.00021632633
-3.3389397e-12
-0.00036128017
0.00019836721
-3.0010278e-12
-0.00038482595
0.00017666848
-2.5607835e-12
-0.00040609255
0.00015129048
-2.0367871e-12
-0.00042469178
0.00012234972
-1.4959119e-12
-0.00044021384
9.0043685e-05
-9.9207974e-13
-0.00045223064
5.467403e-05
-4.9303201e-13
-0.00046030303
1.6668017e-05
1.0355239e-13
-0.00046399357
-2.3402218e-05
8.0790417e-13
-0.00046288448
-6.4803077e-05
1.5988271e-12
-0.0004566034
-0.00010662857
2.2954809e-12
-0.00044485608
-0.00014779715
2.7733734e-12
-0.00042746612
-0.00018706034
3.0998862e-12
-0.00040442021
-0.00022302793
3.4529304e-12
-0.0003759156
-0.00025421445
3.8812969e-12
-0.00034240457
-0.00027911097
4.1920537e-12
-0.00030462861
-0.00029628404
4.1587817e-12
-0.00026363337
-0.00030449967
3.827293e-12
-0.00022075512
-0.00030286428
3.5116704e-12
-0.00017757163
-0.00029096746
3.4517319e-12
-0.00013581501
-0.00026900483
3.3772016e-12
-9.7251932e-05
-0.00023785598
2.6226776e-12
-6.354484e-05
-0.0001990963
3.0031574e-12
-3.6114692e-05
-0.00015493118
9.0028814e-12
-1.602856e-05
-0.00010804984
3.8531137e-12
-3.9298363e-06
-6.1424835e-05
-3.1185808e-11
-1.8215412e-05
3.3197212e-11
-4.4872236e-06
3.4856107e-05
-3.7268169e-11
-1.6177324e-05
9.4624154e-05
3.7143037e-11
-3.35499e-05
0.00014461496
-3.5747549e-12
-5.5314556e-05
0.00018539762
-1.0600603e-11
-8.0390369e-05
0.0002177524
-4.542645e-12
-0.0001078848
0.00024253032
-4.1069304e-12
-0.00013706725
0.00026056261
-4.792614e-12
-0.00016734027
0.00027259813
-4.8238393e-12
-0.0001982112
0.00027926478
-4.7242454e-12
-0.00022926561
0.00028105257
-4.6266253e-12
-0.00026014367
0.00027831437
-4.4688861e-12
-0.00029051966
0.00027128012
-4.2480484e-12
-0.00032008482
0.00026008026
-3.9945848e-12
-0.00034853317
0.00024477469
-3.7305166e-12
-0.00037554993
0.00022538398
-3.4446436e-12
-0.00040080218
0.00020192073
-3.0903824e-12
-0.00042393159
0.0001744199
-2.6222538e-12
-0.00044454929
0.00014296742
-2.0496554e-12
-0.00046223321
0.0001077276
-1.4453324e-12
-0.00047652862
6.8969442e-05
-8.7786346e-13
-0.00048695287
2.7092273e-05
-3.3306217e-13
-0.00049300564
-1.7349455e-05
2.7328447e-13
-0.00049418563
-6.3623082e-05
1.0301582e-12
-0.00049001582
-0.00011079839
1.8784457e-12
-0.00048007774
-0.00015773523
2.6328882e-12
-0.00046405566
-0.00020308242
3.1524241e-12
-0.00044178974
-0.00024529384
3.4846834e-12
-0.00041333574
-0.00028266845
3.7933091e-12
-0.00037902595
-0.00031342076
4.1222489e-12
-0.00033952333
-0.00033578666
4.2978939e-12
-0.00029585751
-0.00034816549
4.1414197e-12
-0.00024942979
-0.000349292
3.7570605e-12
-0.00020197496
-0.00033842229
3.476375e-12
-0.00015547284
-0.00031550696
3.2402663e-12
-0.00011201159
-0.00028131723
2.3707337e-12
-7.3617496e-05
-0.00023749039
2.9112227e-12
-4.2077004e-05
-0.00018647168
1.0057971e-11
-1.8784003e-05
-0.00013134284
4.0029091e-12
-4.6400108e-06
-7.5568789e-05
-3.7330489e-11
-2.285546e-05
3.8651075e-11
-4.5902835e-06
3.9446429e-05
-3.8230755e-11
-1.655269e-05
0.00010658652
3.7952936e-11
-3.433335e-05
0.00016239563
-3.74522e-12
-5.6610889e-05
0.00020767517
-1.0971105e-11
-8.2277188e-05
0.0002434187
-4.8133662e-12
-0.00011041819
0.00027067132
-4.3955014e-12
-0.00014028892
0.00029043334
-5.1045948e-12
-0.00017128552
0.00030359473
-5.1365852e-12
-0.00020291689
0.00031089616
-5.0456924e-12
-0.00023477769
0.00031291338
-4.980195e-12
-0.00026652358
0.00031006027
-4.8695777e-12
-0.00029784946
0.000302606
-4.6841166e-12
-0.0003284706
0.00029070142
-4.4303952e-12
-0.00035810671
0.00027441081
-4.1366075e-12
-0.00038646824
0.00025374551
-3.8333923e-12
-0.00041324485
0.00022869735
-3.5186282e-12
-0.00043809567
0.00019927072
-3.141985e-12
-0.00046064152
0.00016551327
-2.6433859e-12
-0.00048045931
0.0001275454
-2.0202532e-12
-0.00049707945
8.5589585e-05
-1.3460744e-12
-0.00050998719
4.000001e-05
-7.0657583e-13
-0.00051862938
-8.7072636e-06
-1.065619e-13
-0.00052242834
-5.9824126e-05
5.4488139e-13
-0.00052080462
-0.0001124221
1.3417508e-12
-0.00051321089
-0.00016532896
2.2295995e-12
-0.00049917821
-0.0002171151
3.0198424e-12
-0.00047837549
-0.00026609657
3.5595151e-12
-0.00045068059
-0.00031036336
3.8765103e-12
-0.0004162589
-0.00034784245
4.1071927e-12
-0.00037564086
-0.00037640471
4.2799617e-12
-0.00032978532
-0.00039402103
4.2559549e-12
-0.0002801119
-0.00039896542
3.9675505e-12
-0.00022848372
-0.00039005047
3.6134595e-12
-0.00017712616
-0.00036686453
3.1690716e-12
-0.00012847765
-0.00032996574
2.0185942e-12
-8.4985584e-05
-0.00028098246
2.6770551e-12
-4.887864e-05
-0.00022257863
1.1226627e-11
-2.1960825e-05
-0.00015826066
4.2080034e-12
-5.4696779e-06
-9.205989e-05
-4.4429847e-11
-2.8325182e-05
4.5027568e-11
-4.6407199e-06
4.4087187e-05
-3.8814583e-11
-1.6747989e-05
0.00011869375
3.8254093e-11
-3.4756314e-05
0.00018040396
-3.9489249e-12
-5.7328467e-05
0.00023024733
-1.127246e-11
-8.333927e-05
0.00026942951
-5.0774356e-12
-0.00011185972
0.00029919178
-4.6984612e-12
-0.00014213476
0.00032070838
-5.4454589e-12
-0.00017355703
0.00033501701
-5.4856442e-12
-0.00020563945
0.00034297858
-5.3868071e-12
-0.00023798811
0.00034526205
-5.3184457e-12
-0.00027027702
0.00034234919
-5.2281439e-12
-0.0003022252
0.00033455419
-5.0845611e-12
-0.00033357653
0.00032205275
-4.8675557e-12
-0.00036408206
0.00030491635
-4.5727241e-12
-0.00039348459
0.00028314804
-4.2271293e-12
-0.000421505
0.00025671777
-3.8718512e-12
-0.00044783032
0.00022559604
-3.5148737e-12
-0.00047210322
0.00018978618
-3.1045225e-12
-0.00049391353
0.00014935571
-2.5687324e-12
-0.00051279208
0.00010446813
-1.8915749e-12
-0.00052820807
5.5416011e-05
-1.1446472e-12
-0.00053957139
2.6560558e-06
-4.223056e-13
-0.00054624183
-5.3153688e-05
2.3866142e-13
-0.00054754741
-0.00011111652
9.4486327e-13
-0.000542815
-0.00017006138
1.7787598e-12
-0.0005314158
-0.0002285143
2.6837773e-12
-0.00051282804
-0.00028468433
3.4728095e-12
-0.00048671737
-0.00033647403
3.991378e-12
-0.00045303246
-0.00038152736
4.2472662e-12
-0.00041210823
-0.00041732894
4.3363868e-12
-0.00036476274
-0.00044136653
4.2750597e-12
-0.00031236681
-0.00045136136
4.0322603e-12
-0.0002568608
-0.00044555648
3.7046614e-12
-0.0002006938
-0.00042303153
3.1346392e-12
-0.00014667113
-0.00038398841
1.6398688e-12
-9.7717407e-05
-0.00032993619
2.3459621e-12
-5.6590333e-05
-0.00026370572
1.249966e-11
-2.5605327e-05
-0.00018924567