/*--------------------------------*- C++ -*----------------------------------*\
  =========                 |
  \\      /  F ield         | OpenFOAM: The Open Source CFD Toolbox
   \\    /   O peration     | Website:  https://openfoam.org
    \\  /    A nd           | Version:  7
     \\/     M anipulation  |
\*---------------------------------------------------------------------------*/
FoamFile
{
    version     2.0;
    format      ascii;
    class       surfaceScalarField;
    location    "39";
    object      phi_0;
}
// * * * * * * * * * * * * * * * * * * * * * * * * * * * * * * * * * * * * * //

dimensions      [0 3 -1 0 0 0 0];

internalField   nonuniform List<scalar> 
45600
(
2.7511498e-07
-2.8229442e-07
-8.0668437e-11
4.033079e-07
-1.2816762e-07
-2.5392123e-11
1.3254741e-07
2.7076715e-07
-6.9674011e-12
-5.623151e-07
6.9486392e-07
-1.6780647e-12
-1.6393143e-06
1.0769954e-06
3.4645353e-12
-3.0276242e-06
1.3883024e-06
6.9381827e-12
-4.6524671e-06
1.6248332e-06
9.2072964e-12
-6.4451001e-06
1.7926222e-06
1.0821832e-11
-8.3454271e-06
1.9003156e-06
1.1985351e-11
-1.0301446e-05
1.9560076e-06
1.2757882e-11
-1.2267406e-05
1.965947e-06
1.3177786e-11
-1.4201585e-05
1.9341671e-06
1.3288812e-11
-1.6064242e-05
1.8626456e-06
1.312557e-11
-1.781603e-05
1.7517774e-06
1.2700704e-11
-1.9417056e-05
1.6010173e-06
1.200608e-11
-2.082666e-05
1.4095957e-06
1.1012592e-11
-2.2003909e-05
1.1772413e-06
9.6765378e-12
-2.290877e-05
9.0485489e-07
7.9708716e-12
-2.3503869e-05
5.9509378e-07
5.9403705e-12
-2.3756702e-05
2.5283105e-07
3.6744629e-12
-2.3642142e-05
-1.1455929e-07
1.2556776e-12
-2.3145011e-05
-4.971267e-07
-1.3048006e-12
-2.2262577e-05
-8.8242827e-07
-4.0311653e-12
-2.100662e-05
-1.255951e-06
-6.8666556e-12
-1.9404867e-05
-1.6017462e-06
-9.6023024e-12
-1.750156e-05
-1.9032951e-06
-1.1908776e-11
-1.5356975e-05
-2.144569e-06
-1.3561467e-11
-1.3045758e-05
-2.3111975e-06
-1.4600283e-11
-1.0654098e-05
-2.3916433e-06
-1.5247958e-11
-8.2758102e-06
-2.3782757e-06
-1.5562973e-11
-6.0075649e-06
-2.2682364e-06
-1.518353e-11
-3.9435362e-06
-2.0640155e-06
-1.3572722e-11
-2.1697909e-06
-1.7737254e-06
-1.0666041e-11
-7.585372e-07
-1.4112355e-06
-7.1891808e-12
2.3822314e-07
-9.9675655e-07
-4.1907767e-12
7.9655613e-07
-5.5834436e-07
-2.2185084e-12
9.2926763e-07
-1.3272249e-07
4.629051e-13
7.055629e-07
2.2371108e-07
5.2749973e-12
2.9045318e-07
4.1512903e-07
1.1121168e-11
2.9046835e-07
5.4684318e-12
1.3286308e-07
-4.151349e-07
-2.2783989e-11
-3.0170677e-07
3.0641618e-07
-1.4424735e-11
-1.6154176e-06
1.5844896e-06
-1.2582166e-11
-3.8747196e-06
2.9541784e-06
-1.331599e-11
-7.0073511e-06
4.2096411e-06
-1.4439548e-11
-1.0879759e-05
5.2607264e-06
-1.5951706e-11
-1.5335171e-05
6.0802636e-06
-1.7392116e-11
-2.0216009e-05
6.6734788e-06
-1.8445217e-11
-2.5374067e-05
7.0583942e-06
-1.9022305e-11
-3.067328e-05
7.2552416e-06
-1.913087e-11
-3.5988547e-05
7.281236e-06
-1.8820017e-11
-4.1202834e-05
7.1484762e-06
-1.8134283e-11
-4.6203976e-05
6.8638091e-06
-1.7092507e-11
-5.0882103e-05
6.4299242e-06
-1.5691576e-11
-5.5128235e-05
5.8471662e-06
-1.3909576e-11
-5.8834321e-05
5.1156979e-06
-1.1723169e-11
-6.1894804e-05
4.2377384e-06
-9.1476808e-12
-6.4209609e-05
3.219671e-06
-6.2795081e-12
-6.5688358e-05
2.0738491e-06
-3.1998047e-12
-6.6255468e-05
8.1994175e-07
3.9578208e-14
-6.5855983e-05
-5.1404767e-07
3.4619169e-12
-6.4460809e-05
-1.8923071e-06
7.1140753e-12
-6.2072478e-05
-3.2707669e-06
1.0812494e-11
-5.8729089e-05
-4.59935e-06
1.4262622e-11
-5.4507075e-05
-5.823775e-06
1.7165659e-11
-4.9521905e-05
-6.888488e-06
1.9439284e-11
-4.3926398e-05
-7.7401022e-06
2.1260323e-11
-3.7906453e-05
-8.3311667e-06
2.280699e-11
-3.1674145e-05
-8.6239678e-06
2.3886422e-11
-2.5458398e-05
-8.594035e-06
2.3913201e-11
-1.9493607e-05
-8.2330468e-06
2.2459167e-11
-1.4006717e-05
-7.550935e-06
1.9891408e-11
-9.2032922e-06
-6.5771801e-06
1.7232371e-11
-5.2529078e-06
-5.361631e-06
1.5101323e-11
-2.2739833e-06
-3.9756712e-06
1.2859986e-11
-3.1726792e-07
-2.51505e-06
9.1946633e-12
6.5706155e-07
-1.1070683e-06
3.6963737e-12
8.036678e-07
7.7062908e-08
6.867493e-13
4.1782454e-07
8.0093092e-07
2.5624692e-12
7.0831064e-07
-1.8223487e-12
-2.7359478e-07
-1.4152773e-07
-1.2667566e-11
-1.6274957e-06
1.6603247e-06
-7.427237e-12
-4.2894159e-06
4.2464183e-06
-8.7418353e-12
-8.2746872e-06
6.9394565e-06
-7.3334914e-12
-1.3474426e-05
9.4093845e-06
-5.343746e-12
-1.9708728e-05
1.1495033e-05
-4.2285048e-12
-2.6765756e-05
1.3137296e-05
-3.5111493e-12
-3.4426622e-05
1.4334348e-05
-2.9479683e-12
-4.2478636e-05
1.5110411e-05
-2.4914844e-12
-5.0720455e-05
1.5497064e-05
-2.0707196e-12
-5.8962299e-05
1.5523084e-05
-1.6434615e-12
-6.7023694e-05
1.5209875e-05
-1.2077561e-12
-7.4730535e-05
1.4570654e-05
-7.7720244e-13
-8.1912721e-05
1.3612114e-05
-3.6951038e-13
-8.8403149e-05
1.2337597e-05
9.3510732e-15
-9.4038477e-05
1.0751027e-05
3.8851795e-13
-9.8661796e-05
8.8610589e-06
8.131492e-13
-0.0001021271
6.6849711e-06
1.2791663e-12
-0.00010430523
4.2519809e-06
1.7076662e-12
-0.000105091
1.6057187e-06
1.9911387e-12
-0.00010441064
-1.1944123e-06
2.1170641e-12
-0.00010222946
-4.0734945e-06
2.1940163e-12
-9.8558521e-05
-6.9417065e-06
2.3721002e-12
-9.3460006e-05
-9.6978666e-06
2.6821564e-12
-8.7050395e-05
-1.2233384e-05
2.9337447e-12
-7.9500998e-05
-1.4437884e-05
2.8577969e-12
-7.1035282e-05
-1.6205823e-05
2.4255261e-12
-6.1922728e-05
-1.744373e-05
2.0155482e-12
-5.2469152e-05
-1.807755e-05
2.1169037e-12
-4.3003683e-05
-1.8059502e-05
2.7369932e-12
-3.3862823e-05
-1.7373897e-05
3.2031302e-12
-2.5372225e-05
-1.6041528e-05
2.8300656e-12
-1.7826884e-05
-1.4122532e-05
1.8891259e-12
-1.1470412e-05
-1.1718121e-05
1.6181742e-12
-6.4738725e-06
-8.972215e-06
2.8186379e-12
-2.9140469e-06
-6.074856e-06
4.4879018e-12
-7.512204e-07
-3.2698679e-06
4.5456194e-12
1.9435712e-07
-8.6850985e-07
3.4159882e-12
2.6548464e-07
7.2977483e-07
3.9453622e-12
9.7379757e-07
4.987112e-13
-7.4585288e-07
6.0433774e-07
-1.2904174e-11
-3.1796463e-06
4.0941202e-06
-1.4475947e-12
-7.3461179e-06
8.4128974e-06
-6.8816289e-12
-1.3163072e-05
1.2756417e-05
-6.2525521e-12
-2.0455836e-05
1.6702151e-05
-3.6553694e-12
-2.8992653e-05
2.0031853e-05
-2.3109868e-12
-3.8513895e-05
2.265854e-05
-1.3927701e-12
-4.8752694e-05
2.4573148e-05
-5.8042701e-13
-5.9447e-05
2.5804718e-05
5.7424194e-14
-7.0344851e-05
2.6394915e-05
5.5312639e-13
-8.1205144e-05
2.6383377e-05
9.7124622e-13
-9.1795996e-05
2.5800727e-05
1.3463107e-12
-0.00010189243
2.4667084e-05
1.6898905e-12
-0.00011127464
2.2994331e-05
1.9878913e-12
-0.00011972779
2.0790747e-05
2.1989241e-12
-0.00012704362
1.8066852e-05
2.2943719e-12
-0.00013302417
1.4841606e-05
2.3025894e-12
-0.00013748742
1.1148225e-05
2.2946045e-12
-0.00014027452
7.0390767e-06
2.3007908e-12
-0.00014125806
2.5892561e-06
2.2527947e-12
-0.00014035078
-2.1016931e-06
2.0358148e-12
-0.00013751439
-6.9098859e-06
1.5649531e-12
-0.00013276703
-1.1689072e-05
9.6957989e-13
-0.00012618931
-1.6275586e-05
5.0346824e-13
-0.00011792789
-2.0494806e-05
3.1530856e-13
-0.00010819592
-2.4169855e-05
2.4284696e-13
-9.7269875e-05
-2.7131857e-05
-8.3769582e-14
-8.5482413e-05
-2.9231192e-05
-8.051055e-13
-7.3210952e-05
-3.0349018e-05
-1.4943167e-12
-6.0862274e-05
-3.0408187e-05
-1.4456548e-12
-4.8853459e-05
-2.9382707e-05
-4.9066563e-13
-3.7589904e-05
-2.7305068e-05
5.7417677e-13
-2.7441309e-05
-2.4271117e-05
7.4626384e-13
-1.8716688e-05
-2.0442752e-05
1.5131112e-13
-1.1639463e-05
-1.6049464e-05
1.7757523e-13
-6.3235831e-06
-1.1390749e-05
1.8299556e-12
-2.7515407e-06
-6.8418995e-06
4.1403083e-12
-7.5714777e-07
-2.862886e-06
4.9814429e-12
-9.5269736e-09
-1.7855737e-08
4.2683331e-12
9.6426279e-07
3.2616168e-12
-1.2279712e-06
1.8323234e-06
-1.4421727e-11
-4.7881187e-06
7.6542642e-06
4.5189262e-12
-1.0521555e-05
1.414634e-05
-6.0162645e-12
-1.8214346e-05
2.0449217e-05
-7.1041819e-12
-2.7603951e-05
2.6091761e-05
-4.7458722e-12
-3.8396309e-05
3.0824216e-05
-4.0504791e-12
-5.0283066e-05
3.45453e-05
-3.7045899e-12
-6.2954793e-05
3.7244879e-05
-3.2098502e-12
-7.6109046e-05
3.8958974e-05
-2.7316074e-12
-8.9453782e-05
3.9739653e-05
-2.3153836e-12
-0.00010270748
3.9637077e-05
-1.9298941e-12
-0.00011559754
3.8690786e-05
-1.5491959e-12
-0.00012785835
3.6927896e-05
-1.1450907e-12
-0.0001392302
3.4366185e-05
-6.9131815e-13
-0.00014945975
3.1020296e-05
-2.0302695e-13
-0.00015830248
2.6909578e-05
2.547283e-13
-0.00016552724
2.2066368e-05
6.2397178e-13
-0.00017092275
1.654373e-05
9.279682e-13
-0.00017430559
1.042192e-05
1.2618598e-12
-0.00017552935
3.8130153e-06
1.6936343e-12
-0.00017449413
-3.1369212e-06
2.1636082e-12
-0.00017115588
-1.024813e-05
2.481685e-12
-0.0001655348
-1.7310156e-05
2.5040464e-12
-0.0001577219
-2.408849e-05
2.31392e-12
-0.0001478832
-3.0333518e-05
2.225571e-12
-0.0001362606
-3.5792457e-05
2.4931806e-12
-0.00012316896
-4.0223492e-05
2.9608599e-12
-0.00010898872
-4.3411432e-05
3.1019123e-12
-9.41538e-05
-4.5183937e-05
2.583441e-12
-7.9134855e-05
-4.5427143e-05
1.8215293e-12
-6.4418069e-05
-4.4099506e-05
1.7367561e-12
-5.0480373e-05
-4.1242765e-05
2.6860187e-12
-3.776214e-05
-3.6989337e-05
3.7791242e-12
-2.6638817e-05
-3.1566062e-05
3.7423859e-12
-1.7393168e-05
-2.5295119e-05
2.5799626e-12
-1.0189922e-05
-1.8594018e-05
2.019618e-12
-5.0547452e-06
-1.197709e-05
3.4733987e-12
-1.8598323e-06
-6.0577914e-06
4.2517104e-12
-3.2222802e-07
-1.5554543e-06
9.2145481e-13
6.4202446e-07
5.837405e-12
-1.6931709e-06
3.5255121e-06
-1.6907607e-11
-6.3714159e-06
1.2332501e-05
9.9176684e-12
-1.3671461e-05
2.1446392e-05
-5.091306e-12
-2.3234068e-05
3.0011833e-05
-7.224108e-12
-3.4695251e-05
3.755295e-05
-4.4880408e-12
-4.7689829e-05
4.3818798e-05
-3.9454613e-12
-6.185753e-05
4.8713005e-05
-3.8584052e-12
-7.6848073e-05
5.2235424e-05
-3.5019978e-12
-9.2323875e-05
5.4434779e-05
-3.0818112e-12
-0.00010796028
5.5376056e-05
-2.6743772e-12
-0.00012344397
5.5120773e-05
-2.2745318e-12
-0.0001384707
5.3717513e-05
-1.8891795e-12
-0.00015274323
5.1200428e-05
-1.5158837e-12
-0.00016597054
4.7593497e-05
-1.1158408e-12
-0.00017786874
4.2918495e-05
-6.4128702e-13
-0.00018816405
3.7204889e-05
-1.0210993e-13
-0.00019659789
3.0500207e-05
4.1546813e-13
-0.00020293384
2.2879674e-05
8.2265618e-13
-0.00020696614
1.4454219e-05
1.1243962e-12
-0.00020852929
5.3761646e-06
1.4350551e-12
-0.00020750812
-4.1581016e-06
1.873063e-12
-0.00020384768
-1.3908572e-05
2.4146044e-12
-0.00019756247
-2.3595368e-05
2.8360557e-12
-0.00018874397
-3.2906993e-05
2.8972633e-12
-0.00017756589
-4.1511601e-05
2.6306762e-12
-0.00016428626
-4.9072095e-05
2.4249839e-12
-0.00014924551
-5.5264243e-05
2.6840429e-12
-0.0001328599
-5.979704e-05
3.3112304e-12
-0.00011560967
-6.2434162e-05
3.6475624e-12
-9.8021755e-05
-6.3015058e-05
3.1587235e-12
-8.0647223e-05
-6.147405e-05
2.229276e-12
-6.4034181e-05
-5.7855826e-05
1.9743726e-12
-4.8697453e-05
-5.2326072e-05
2.9227145e-12
-3.5086902e-05
-4.5176603e-05
4.0824983e-12
-2.3556668e-05
-3.6825342e-05
3.9757289e-12
-1.4337865e-05
-2.7812829e-05
3.0184216e-12
-7.5174904e-06
-1.8797484e-05
3.5583792e-12
-3.0267265e-06
-1.0548561e-05
3.4897134e-12
-6.4248956e-07
-3.9396836e-06
-1.6442285e-12
-4.7403779e-10
8.56121e-12
-2.1329389e-06
5.658472e-06
-1.9666057e-11
-7.8910796e-06
1.809063e-05
1.473312e-11
-1.6717411e-05
3.0272729e-05
-4.36161e-12
-2.8105748e-05
4.1400179e-05
-7.3150782e-12
-4.1585096e-05
5.1032304e-05
-4.0575053e-12
-5.6714143e-05
5.8947849e-05
-3.5162175e-12
-7.3078287e-05
6.5077152e-05
-3.5467085e-12
-9.0287097e-05
6.9444236e-05
-3.267245e-12
-0.00010797133
7.2119014e-05
-2.9100587e-12
-0.00012577928
7.3184002e-05
-2.5428337e-12
-0.00014337275
7.2714246e-05
-2.145221e-12
-0.00016042342
7.0768187e-05
-1.7331068e-12
-0.00017661019
6.7387197e-05
-1.3457278e-12
-0.00019161814
6.2601444e-05
-9.9444085e-13
-0.00020513951
5.6439866e-05
-6.2915765e-13
-0.00021687684
4.8942212e-05
-1.8054224e-13
-0.00022654814
4.0171511e-05
3.5428746e-13
-0.00023389406
3.0225592e-05
8.7890312e-13
-0.0002386865
1.9246651e-05
1.2679448e-12
-0.00024073842
7.4280791e-06
1.4901801e-12
-0.00023991436
-4.9821615e-06
1.6690139e-12
-0.00023614102
-1.7681921e-05
1.9992338e-12
-0.00022941747
-3.0318921e-05
2.5096703e-12
-0.00021982416
-4.2500306e-05
2.9573817e-12
-0.00020752992
-5.380584e-05
2.9986598e-12
-0.00019279609
-6.3805923e-05
2.5869157e-12
-0.0001759767
-7.2083648e-05
2.1700307e-12
-0.00015751364
-7.8260107e-05
2.3204697e-12
-0.00013792613
-8.2021671e-05
3.0394785e-12
-0.00011779372
-8.3147453e-05
3.5647459e-12
-9.7732947e-05
-8.1534821e-05
3.1701322e-12
-7.8368122e-05
-7.7220662e-05
2.1998337e-12
-6.0297867e-05
-7.0396346e-05
1.9016103e-12
-4.4059528e-05
-6.1414952e-05
2.811384e-12
-3.0094427e-05
-5.0790435e-05
3.7523873e-12
-1.8717257e-05
-3.9189993e-05
3.8330992e-12
-1.009305e-05
-2.7421702e-05
4.5392313e-12
-4.2253132e-06
-1.641631e-05
3.2571611e-12
-9.5848583e-07
-7.2065067e-06
-4.7434678e-12
-9.5896838e-07
1.0538358e-11
-2.5450555e-06
8.2035514e-06
-2.2461133e-11
-9.3288474e-06
2.4874406e-05
1.9037736e-11
-1.9615365e-05
4.0559253e-05
-3.850793e-12
-3.2756852e-05
5.4541675e-05
-7.5862791e-12
-4.817589e-05
6.6451347e-05
-3.8879108e-12
-6.5354095e-05
7.6126058e-05
-3.3774532e-12
-8.3822144e-05
8.3545205e-05
-3.5112929e-12
-0.00010315063
8.8772723e-05
-3.2818117e-12
-0.00012294163
9.1910014e-05
-2.9851646e-12
-0.00014282096
9.3063336e-05
-2.6931851e-12
-0.00016243135
9.2324633e-05
-2.3554634e-12
-0.00018142688
8.976372e-05
-1.9534984e-12
-0.00019946925
8.5429565e-05
-1.5184298e-12
-0.00021622604
7.9358238e-05
-1.1114211e-12
-0.0002313713
7.1585123e-05
-7.595748e-13
-0.00024458832
6.2159227e-05
-4.1016876e-13
-0.00025557459
5.115778e-05
2.8069296e-14
-0.00026404868
3.8699671e-05
5.852092e-13
-0.00026975868
2.495665e-05
1.1663163e-12
-0.0002724921
1.0161497e-05
1.601468e-12
-0.00027208668
-5.3875806e-06
1.8001147e-12
-0.00026844172
-2.1326885e-05
1.89734e-12
-0.00026152975
-3.7230901e-05
2.142243e-12
-0.00025140739
-5.2622666e-05
2.656529e-12
-0.00023822498
-6.698825e-05
3.1961669e-12
-0.00022223363
-7.9797265e-05
3.306379e-12
-0.00020378863
-9.0528654e-05
2.8309439e-12
-0.00018334762
-9.8701128e-05
2.2448489e-12
-0.00016146241
-0.00010390689
2.2770536e-12
-0.00013876327
-0.00010584659
3.0373535e-12
-0.00011593534
-0.00010436274
3.6956876e-12
-9.3687541e-05
-9.946846e-05
3.4051354e-12
-7.2715431e-05
-9.1368465e-05
2.5140537e-12
-5.3660749e-05
-8.0469652e-05
2.2337681e-12
-3.7071089e-05
-6.7380104e-05
2.8412967e-12
-2.3363946e-05
-5.2897131e-05
3.7784575e-12
-1.2799314e-05
-3.7986335e-05
5.5467778e-12
-5.4648799e-06
-2.3750753e-05
3.4882088e-12
-1.2772585e-06
-1.1394125e-05
-7.8186674e-12
-2.2362386e-06
1.2815741e-11
-2.9284821e-06
1.113206e-05
-2.5200175e-11
-1.0673672e-05
3.2619576e-05
2.2865909e-11
-2.2336174e-05
5.2221762e-05
-3.5054277e-12
-3.7135975e-05
6.9341486e-05
-7.9164018e-12
-5.439411e-05
8.3709486e-05
-3.8104764e-12
-7.3517628e-05
9.5249579e-05
-3.3554771e-12
-9.39843e-05
0.00010401188
-3.6009008e-12
-0.00011532796
0.00011011638
-3.3974303e-12
-0.00013712518
0.00011370723
-3.1158672e-12
-0.00015898353
0.00011492169
-2.8652049e-12
-0.00018053178
0.00011387288
-2.5991656e-12
-0.00020141215
0.00011064409
-2.2713806e-12
-0.00022127503
0.00010529245
-1.8562611e-12
-0.00023977618
9.7859388e-05
-1.3857997e-12
-0.00025657638
8.8385317e-05
-9.4051676e-13
-0.00027134346
7.6926311e-05
-5.7029337e-13
-0.00028375659
6.3570903e-05
-2.3061426e-13
-0.00029351243
4.8455513e-05
1.9354666e-13
-0.00030033322
3.1777437e-05
7.7478389e-13
-0.00030397636
1.3804634e-05
1.4286344e-12
-0.00030424557
-5.1183672e-06
1.9332178e-12
-0.00030100297
-2.4569486e-05
2.1558107e-12
-0.00029418252
-4.4051362e-05
2.1717958e-12
-0.00028380325
-6.3001937e-05
2.3143874e-12
-0.00026998221
-8.0809295e-05
2.8110673e-12
-0.00025294549
-9.6833982e-05
3.4406612e-12
-0.00023303599
-0.00011043815
3.6506859e-12
-0.000210716
-0.00012102112
3.1651325e-12
-0.00018656267
-0.00012806023
2.4573898e-12
-0.00016125483
-0.00013115444
2.3720708e-12
-0.00013554998
-0.0001300676
3.0960403e-12
-0.00011025148
-0.00012476695
3.7738435e-12
-8.6167381e-05
-0.00011545256
3.5611251e-12
-6.4063734e-05
-0.00010257331
2.7797908e-12
-4.4616675e-05
-8.6827178e-05
2.3691771e-12
-2.8368535e-05
-6.9145276e-05
3.1835614e-12
-1.5693154e-05
-5.0661716e-05
6.0200262e-12
-6.7752217e-06
-3.2668687e-05
3.7896079e-12
-1.6070355e-06
-1.6562303e-05
-1.0683543e-11
-3.84329e-06
1.5313864e-11
-3.2816992e-06
1.4413789e-05
-2.7793805e-11
-1.1915869e-05
4.1253722e-05
2.6257886e-11
-2.485551e-05
6.5161409e-05
-3.3194241e-12
-4.1199917e-05
8.5685903e-05
-8.2956771e-12
-6.0176308e-05
0.00010268588
-3.7593688e-12
-8.1122248e-05
0.00011619552
-3.349611e-12
-0.0001034663
0.00012635594
-3.7254014e-12
-0.00012670888
0.00013335896
-3.5697303e-12
-0.00015040465
0.000137403
-3.2928948e-12
-0.00017414714
0.00013866418
-3.0359582e-12
-0.00019755594
0.00013728169
-2.7871139e-12
-0.00022026668
0.00013335483
-2.5275301e-12
-0.00024192389
0.00012694965
-2.2055064e-12
-0.00026217668
0.00011811218
-1.7747288e-12
-0.00028067717
0.00010688581
-1.2619479e-12
-0.0002970813
9.3330443e-05
-7.6362516e-13
-0.00031105195
7.7541556e-05
-3.6167789e-13
-0.00032226414
5.9667698e-05
-3.0590612e-14
-0.0003304122
3.9925493e-05
3.6735656e-13
-0.00033521897
1.8611402e-05
9.4773839e-13
-0.00033644713
-3.8902104e-06
1.6432507e-12
-0.00033391173
-2.7104883e-05
2.2798056e-12
-0.00032749596
-5.046713e-05
2.5390855e-12
-0.00031716687
-7.3331028e-05
2.4836405e-12
-0.0003029923
-9.4983881e-05
2.5066843e-12
-0.00028515682
-0.00011466946
2.9425806e-12
-0.00026397518
-0.00013161979
3.6178166e-12
-0.00023990061
-0.00014509568
3.9111084e-12
-0.00021352582
-0.00015443502
3.4470051e-12
-0.00018557378
-0.0001591065
2.6854506e-12
-0.00015687658
-0.00015876481
2.5228162e-12
-0.00012834164
-0.0001533019
3.1659022e-12
-0.00010090606
-0.00014288812
3.7813711e-12
-7.5482473e-05
-0.0001279969
3.5459009e-12
-5.2901149e-05
-0.00010940851
2.6618297e-12
-3.385512e-05
-8.8191316e-05
2.8515565e-12
-1.8854789e-05
-6.5662053e-05
6.1792778e-12
-8.1982649e-06
-4.332521e-05
3.7907201e-12
-1.961163e-06
-2.2799389e-05
-1.3740667e-11
-5.8044711e-06
1.8077897e-11
-3.6023018e-06
1.8016123e-05
-3.0182736e-11
-1.3044871e-05
5.0696264e-05
2.9266764e-11
-2.7149287e-05
7.926583e-05
-3.2622487e-12
-4.4907167e-05
0.00010344379
-8.752646e-12
-6.5461502e-05
0.00012324022
-3.7835298e-12
-8.808723e-05
0.00013882125
-3.3703348e-12
-0.0001121688
0.00015043751
-3.8578469e-12
-0.00013717742
0.00015836759
-3.7774006e-12
-0.00016264988
0.00016287546
-3.5454247e-12
-0.00018816993
0.00016418424
-3.2932191e-12
-0.00021335264
0.0001624644
-3.0176802e-12
-0.00023783203
0.00015783422
-2.7516492e-12
-0.0002612519
0.00015036953
-2.4929301e-12
-0.00028325983
0.0001401201
-2.1750034e-12
-0.00030350382
0.0001271298
-1.7298234e-12
-0.00032163166
0.00011145828
-1.1698257e-12
-0.00033729244
9.320234e-05
-6.0282404e-13
-0.00035014037
7.2515636e-05
-1.5023931e-13
-0.00035984078
4.9625901e-05
1.8019375e-13
-0.00036607842
2.4849037e-05
5.2553081e-13
-0.00036856896
-1.3996731e-06
1.0357302e-12
-0.00036707134
-2.8602505e-05
1.8877086e-12
-0.00036140636
-5.6132102e-05
2.6236493e-12
-0.00035147457
-8.3262817e-05
2.9396141e-12
-0.00033727781
-0.00010918064
2.8431098e-12
-0.0003189409
-0.00013300638
2.7527593e-12
-0.00029673174
-0.00015382896
3.0977847e-12
-0.00027107726
-0.00017075016
3.7591984e-12
-0.00024257162
-0.00018294065
4.0827859e-12
-0.00021197327
-0.00018970485
3.6429487e-12
-0.00018018759
-0.00019055049
2.8916161e-12
-0.00014823332
-0.00018525619
2.7135405e-12
-0.00011719276
-0.00017392868
3.2732383e-12
-8.8148952e-05
-0.00015704071
3.6770821e-12
-6.2115384e-05
-0.00013544208
3.1021173e-12
-3.9966493e-05
-0.00011034021
3.0327012e-12
-2.2377615e-05
-8.3250941e-05
6.5680233e-12
-9.7826928e-06
-5.5920134e-05
3.6205906e-12
-2.354696e-06
-3.0227364e-05
-1.7286695e-11
-8.1591867e-06
2.1141711e-11
-3.8870493e-06
2.1903206e-05
-3.2353269e-11
-1.4048658e-05
6.0857842e-05
3.1907527e-11
-2.9192051e-05
9.4409227e-05
-3.2675489e-12
-4.8215262e-05
0.00012246701
-9.2556929e-12
-7.0187839e-05
0.0001452128
-3.9121804e-12
-9.4330058e-05
0.00016296348
-3.4635364e-12
-0.00011998821
0.00017609567
-4.0080387e-12
-0.00014660908
0.00018498845
-3.9813942e-12
-0.00017371588
0.00018998226
-3.819997e-12
-0.00020088685
0.00019135521
-3.6275721e-12
-0.00022773708
0.00018931463
-3.35888e-12
-0.0002539038
0.00018400094
-3.0487092e-12
-0.00027903519
0.00017550092
-2.7582866e-12
-0.00030278231
0.00016386723
-2.4922265e-12
-0.00032479396
0.00014914145
-2.1773052e-12
-0.00034471403
0.00013137836
-1.721594e-12
-0.00036218125
0.00011066956
-1.1121608e-12
-0.00037683113
8.7165517e-05
-4.6368068e-13
-0.00038830041
6.1095185e-05
5.7323508e-14
-0.00039623426
3.2782893e-05
4.120819e-13
-0.00040029637
2.6624347e-06
7.8243192e-13
-0.00040018387
-2.871501e-05
1.2975164e-12
-0.00039564405
-6.0671926e-05
2.1232724e-12
-0.00038649735
-9.2409509e-05
2.9418097e-12
-0.00037266261
-0.00012301537
3.3339815e-12
-0.00035418496
-0.00015148404
3.2277628e-12
-0.00033126379
-0.00017675013
3.0507061e-12
-0.00030427783
-0.00019773613
3.2941355e-12
-0.00027380299
-0.00021341549
3.8802155e-12
-0.00024061829
-0.00022288954
4.1606735e-12
-0.00020569518
-0.0002254736
3.727627e-12
-0.00017016638
-0.000220785
3.0496565e-12
-0.00013527318
-0.00020882189
2.9309322e-12
-0.00010229333
-0.00019002056
3.2773097e-12
-7.2455934e-05
-0.00016527947
3.0768606e-12
-4.6853294e-05
-0.00013594285
3.2968217e-12
-2.6361366e-05
-0.00010374288
7.34387e-12
-1.1580444e-05
-7.0701059e-05
3.577859e-12
-2.8033156e-06
-3.9004469e-05
-2.1368788e-11
-1.0962524e-05
2.4561172e-11
-4.1321161e-06
2.6035358e-05
-3.4297794e-11
-1.4914095e-05
7.1639788e-05
3.4132429e-11
-3.0957129e-05
0.00011045226
-3.2989282e-12
-5.1080652e-05
0.00014259055
-9.7367388e-12
-7.4292271e-05
0.00016842443
-4.1135094e-12
-9.9766124e-05
0.00018843733
-3.6518085e-12
-0.00012681669
0.00020314624
-4.2210792e-12
-0.0001548713
0.00021304307
-4.1970118e-12
-0.00018344394
0.0002185549
-4.0719917e-12
-0.0002121115
0.00022002278
-3.9574651e-12
-0.00024049344
0.00021769658
-3.7639877e-12
-0.00026823493
0.00021174244
-3.4684112e-12
-0.00029499351
0.00020225952
-3.1215603e-12
-0.00032042904
0.00018930276
-2.7955562e-12
-0.0003441964
0.00017290881
-2.511221e-12
-0.00036594073
0.0001531227
-2.1973221e-12
-0.00038529504
0.00013002387
-1.7361431e-12
-0.00040188
0.00010375048
-1.0818645e-12
-0.00041530643
7.4521617e-05
-3.4763129e-13
-0.00042518076
4.2657228e-05
2.75866e-13
-0.00043111395
8.5956309e-06
7.1441283e-13
-0.00043273621
-2.7092758e-05
9.750694e-13
-0.00042971415
-6.3693987e-05
1.4943807e-12
-0.00042177617
-0.00010034749
2.351798e-12
-0.00040874171
-0.00013604983
3.2397451e-12
-0.00039055537
-0.00016967038
3.696927e-12
-0.00036732349
-0.00019998202
3.6003166e-12
-0.00033934979
-0.00022570984
3.3680139e-12
-0.00030716536
-0.00024559993
3.5077306e-12
-0.00027154683
-0.00025850807
3.9587354e-12
-0.000233516
-0.00026350442
4.1241221e-12
-0.00019431497
-0.00025998603
3.7037287e-12
-0.00015535291
-0.00024778397
3.1861004e-12
-0.00011812527
-0.00022724821
3.0081685e-12
-8.4111833e-05
-0.0001992929
2.6759914e-12
-5.4665482e-05
-0.0001653892
3.2526054e-12
-3.0907342e-05
-0.00012750102
8.2671358e-12
-1.3644699e-05
-8.7963704e-05
3.7349983e-12
-3.3229933e-06
-4.9326146e-05
-2.5966258e-11
-1.4285544e-05
2.8505346e-11
-4.3334538e-06
3.0368848e-05
-3.5970456e-11
-1.5627793e-05
8.2934093e-05
3.5878432e-11
-3.2417909e-05
0.00012724238
-3.3785274e-12
-5.3460306e-05
0.00016363295
-1.0161536e-11
-7.7712459e-05
0.00019267658
-4.3270915e-12
-0.000104311
0.00021503588
-3.8977724e-12
-0.00013254491
0.00023138015
-4.5134847e-12
-0.00016182693
0.0002423251
-4.4767739e-12
-0.00019166588
0.00024839385
-4.3345131e-12
-0.00022164124
0.00024999815
-4.2459215e-12
-0.00025138097
0.0002474363
-4.1333723e-12
-0.00028054264
0.00024090412
-3.9300244e-12
-0.00030879821
0.00023051509
-3.613302e-12
-0.00033582178
0.00021632633
-3.2254906e-12
-0.00036128017
0.00019836721
-2.8504874e-12
-0.00038482594
0.00017666848
-2.5344021e-12
-0.00040609255
0.00015129048
-2.2159782e-12
-0.00042469177
0.00012234971
-1.753736e-12
-0.00044021384
9.0043686e-05
-1.0620104e-12
-0.00045223064
5.4674033e-05
-2.3441544e-13
-0.00046030303
1.6668019e-05
4.9571159e-13
-0.00046399356
-2.3402218e-05
9.2710794e-13
-0.00046288447
-6.4803078e-05
1.2435935e-12
-0.0004566034
-0.00010662857
1.7611266e-12
-0.00044485608
-0.00014779715
2.6175545e-12
-0.00042746612
-0.00018706033
3.5306499e-12
-0.00040442021
-0.00022302792
4.0186349e-12
-0.0003759156
-0.00025421445
3.9316274e-12
-0.00034240457
-0.00027911097
3.6635343e-12
-0.00030462861
-0.00029628404
3.688318e-12
-0.00026363337
-0.00030449967
3.9462784e-12
-0.00022075512
-0.00030286428
3.9728019e-12
-0.00017757163
-0.00029096746
3.6385075e-12
-0.00013581501
-0.00026900483
3.1463793e-12
-9.7251934e-05
-0.00023785598
2.3493278e-12
-6.3544842e-05
-0.00019909629
2.9757334e-12
-3.6114692e-05
-0.00015493118
9.1322074e-12
-1.6028559e-05
-0.00010804984
3.9332515e-12
-3.9298364e-06
-6.1424835e-05
-3.1197487e-11
-1.8215412e-05
3.3162907e-11
-4.4872233e-06
3.4856108e-05
-3.7297425e-11
-1.6177324e-05
9.4624155e-05
3.7129046e-11
-3.35499e-05
0.00014461496
-3.5383116e-12
-5.5314556e-05
0.00018539762
-1.0552114e-11
-8.0390369e-05
0.0002177524
-4.5312087e-12
-0.0001078848
0.00024253032
-4.142242e-12
-0.00013706725
0.00026056261
-4.8380431e-12
-0.00016734028
0.00027259813
-4.8283133e-12
-0.0001982112
0.00027926478
-4.6672238e-12
-0.00022926561
0.00028105257
-4.547192e-12
-0.00026014367
0.00027831437
-4.4433401e-12
-0.00029051966
0.00027128012
-4.3179443e-12
-0.00032008482
0.00026008026
-4.1103555e-12
-0.00034853317
0.00024477469
-3.7758679e-12
-0.00037554993
0.00022538398
-3.3422764e-12
-0.00040080218
0.00020192074
-2.9052325e-12
-0.00042393159
0.0001744199
-2.5417932e-12
-0.00044454929
0.00014296742
-2.2079721e-12
-0.00046223321
0.0001077276
-1.7415173e-12
-0.00047652862
6.8969444e-05
-1.0148203e-12
-0.00048695287
2.7092277e-05
-1.0841616e-13
-0.00049300564
-1.7349451e-05
7.0031801e-13
-0.00049418563
-6.3623081e-05
1.2300533e-12
-0.00049001582
-0.00011079839
1.5914969e-12
-0.00048007774
-0.00015773523
2.1085777e-12
-0.00046405566
-0.00020308242
2.9424703e-12
-0.00044178975
-0.00024529384
3.827358e-12
-0.00041333574
-0.00028266845
4.2948101e-12
-0.00037902595
-0.00031342076
4.197552e-12
-0.00033952333
-0.00033578666
3.8872606e-12
-0.00029585751
-0.00034816549
3.7651644e-12
-0.00024942979
-0.000349292
3.8151713e-12
-0.00020197496
-0.00033842229
3.7796001e-12
-0.00015547284
-0.00031550696
3.3756572e-12
-0.00011201159
-0.00028131723
2.2450954e-12
-7.3617498e-05
-0.00023749039
2.7481513e-12
-4.2077005e-05
-0.00018647168
1.0029123e-11
-1.8784004e-05
-0.00013134284
4.064449e-12
-4.6400103e-06
-7.5568788e-05
-3.7285565e-11
-2.2855459e-05
3.8650248e-11
-4.5902829e-06
3.9446429e-05
-3.8230792e-11
-1.655269e-05
0.00010658652
3.7912599e-11
-3.4333351e-05
0.00016239563
-3.7616156e-12
-5.661089e-05
0.00020767517
-1.0936224e-11
-8.2277189e-05
0.0002434187
-4.7590839e-12
-0.00011041819
0.00027067132
-4.3737543e-12
-0.00014028892
0.00029043334
-5.1369369e-12
-0.00017128552
0.00030359473
-5.1922644e-12
-0.00020291689
0.00031089616
-5.064846e-12
-0.00023477769
0.00031291338
-4.9254202e-12
-0.00026652359
0.00031006027
-4.77204e-12
-0.00029784946
0.000302606
-4.6304885e-12
-0.0003284706
0.00029070142
-4.4884144e-12
-0.00035810671
0.00027441081
-4.2762117e-12
-0.00038646824
0.00025374551
-3.924324e-12
-0.00041324485
0.00022869735
-3.440937e-12
-0.00043809567
0.00019927073
-2.9310815e-12
-0.00046064152
0.00016551327
-2.5040631e-12
-0.00048045931
0.0001275454
-2.1370982e-12
-0.00049707945
8.5589585e-05
-1.6547653e-12
-0.00050998719
4.0000012e-05
-8.9901645e-13
-0.00051862938
-8.7072597e-06
6.7603134e-14
-0.00052242834
-5.9824122e-05
9.6959913e-13
-0.00052080462
-0.0001124221
1.5944614e-12
-0.00051321089
-0.00016532896
2.0201888e-12
-0.00049917821
-0.0002171151
2.5486382e-12
-0.00047837549
-0.00026609657
3.3334678e-12
-0.00045068059
-0.00031036336
4.1288543e-12
-0.0004162589
-0.00034784245
4.513189e-12
-0.00037564085
-0.00037640472
4.3614764e-12
-0.00032978532
-0.00039402103
3.9675534e-12
-0.0002801119
-0.00039896542
3.6908995e-12
-0.00022848372
-0.00039005047
3.62442e-12
-0.00017712616
-0.00036686453
3.3518231e-12
-0.00012847765
-0.00032996574
2.116471e-12
-8.4985585e-05
-0.00028098246
2.6225355e-12
-4.8878642e-05
-0.00022257863
1.1140082e-11
-2.1960825e-05
-0.00015826066
4.1869131e-12
-5.4696777e-06
-9.2059888e-05
-4.4403534e-11
-2.8325181e-05
4.5046741e-11
-4.6407194e-06
4.4087187e-05
-3.8778206e-11
-1.6747988e-05
0.00011869375
3.8246133e-11
-3.4756314e-05
0.00018040396
-3.992586e-12
-5.7328467e-05
0.00023024733
-1.1293349e-11
-8.333927e-05
0.00026942951
-5.0442056e-12
-0.00011185973
0.00029919178
-4.6368496e-12
-0.00014213476
0.00032070838
-5.4128719e-12
-0.00017355703
0.00033501701
-5.5144209e-12
-0.00020563945
0.00034297858
-5.4544228e-12
-0.00023798811
0.00034526205
-5.3572456e-12
-0.00027027702
0.00034234919
-5.182704e-12
-0.0003022252
0.00033455419
-4.9710995e-12
-0.00033357653
0.00032205275
-4.779233e-12
-0.00036408206
0.00030491635
-4.6080271e-12
-0.00039348459
0.00028314804
-4.3835378e-12
-0.000421505
0.00025671777
-4.0101021e-12
-0.00044783032
0.00022559605
-3.4730306e-12
-0.00047210322
0.00018978618
-2.8830027e-12
-0.00049391353
0.00014935571
-2.3777403e-12
-0.00051279207
0.00010446813
-1.9561719e-12
-0.00052820807
5.5416011e-05
-1.4406487e-12
-0.00053957139
2.656057e-06
-6.5002746e-13
-0.00054624183
-5.3153685e-05
3.5618711e-13
-0.00054754741
-0.00011111652
1.3342995e-12
-0.000542815
-0.00017006138
2.0506352e-12
-0.0005314158
-0.0002285143
2.5488129e-12
-0.00051282804
-0.00028468434
3.0841407e-12
-0.00048671737
-0.00033647403
3.7798733e-12
-0.00045303246
-0.00038152736
4.4149152e-12
-0.00041210823
-0.00041732894
4.6372998e-12
-0.00036476274
-0.00044136653
4.3554475e-12
-0.00031236681
-0.00045136136
3.8541756e-12
-0.0002568608
-0.00044555648
3.515681e-12
-0.0002006938
-0.00042303153
3.1185914e-12
-0.00014667113
-0.00038398841
1.7411018e-12
-9.7717407e-05
-0.00032993619
2.4140444e-12
-5.6590334e-05
-0.00026370572
1.248572e-11
-2.5605328e-05
-0.00018924567
4.3850361e-12
-6.4348945e-06