/*--------------------------------*- C++ -*----------------------------------*\
  =========                 |
  \\      /  F ield         | OpenFOAM: The Open Source CFD Toolbox
   \\    /   O peration     | Website:  https://openfoam.org
    \\  /    A nd           | Version:  7
     \\/     M anipulation  |
\*---------------------------------------------------------------------------*/
FoamFile
{
    version     2.0;
    format      ascii;
    class       volVectorField;
    location    "39";
    object      U;
}
// * * * * * * * * * * * * * * * * * * * * * * * * * * * * * * * * * * * * * //

dimensions      [0 1 -1 0 0 0 0];

internalField   nonuniform List<vector> 
16000
(
(6.6042467e-05 -6.7334692e-05 -4.1007874e-07)
(0.00016275221 -5.6355804e-05 5.6921181e-06)
(0.00014192406 4.6341998e-07 1.9192142e-05)
(-5.0616106e-05 6.1891304e-05 3.6614718e-05)
(-0.00040996951 0.00011563139 5.4723376e-05)
(-0.00090902392 0.00015774405 7.1551837e-05)
(-0.0015177103 0.00018850495 8.5764031e-05)
(-0.0022068856 0.00020960919 9.6544824e-05)
(-0.0029506013 0.00022287682 0.00010343388)
(-0.003726465 0.00022981117 0.00010618425)
(-0.0045150508 0.00023147726 0.00010466868)
(-0.0052990135 0.00022850418 9.8824131e-05)
(-0.0060621934 0.00022114762 8.8625951e-05)
(-0.0067888643 0.00020938322 7.4084689e-05)
(-0.0074632163 0.00019301384 5.5259096e-05)
(-0.0080691175 0.00017178078 3.2279391e-05)
(-0.0085901702 0.00014547198 5.3754582e-06)
(-0.0090100504 0.00011402234 -2.5094826e-05)
(-0.0093131029 7.7601828e-05 -5.8621551e-05)
(-0.0094851489 3.6687682e-05 -9.4526946e-05)
(-0.0095144488 -7.8862769e-06 -0.00013196129)
(-0.0093927303 -5.4923924e-05 -0.00016991342)
(-0.0091162245 -0.00010284316 -0.00020723703)
(-0.0086866027 -0.00014974895 -0.00024269435)
(-0.0081116923 -0.00019351178 -0.00027501558)
(-0.0074058961 -0.00023188626 -0.00030297173)
(-0.0065902212 -0.00026266106 -0.00032545631)
(-0.0056918545 -0.00028382712 -0.00034156942)
(-0.0047432605 -0.00029374776 -0.00035069698)
(-0.0037808176 -0.00029131115 -0.00035257759)
(-0.0028430636 -0.00027604639 -0.00034735075)
(-0.0019686533 -0.00024818909 -0.00033558282)
(-0.0011941456 -0.00020869817 -0.00031826921)
(-0.00055166676 -0.00015926149 -0.0002968154)
(-6.6505227e-05 -0.00010240599 -0.00027299149)
(0.00024492273 -4.1753709e-05 -0.00024885479)
(0.00037894052 1.7848518e-05 -0.00022678594)
(0.00034978219 6.706897e-05 -0.00020921984)
(0.00020618686 8.985001e-05 -0.00019882903)
(5.7467023e-05 5.7408228e-05 -0.00018438314)
(5.8002837e-05 -0.00016703088 -6.6389172e-06)
(4.0884329e-05 -3.9956175e-05 -3.8438931e-07)
(-0.00029497172 0.00024856818 1.1249139e-05)
(-0.0010110225 0.00056212642 2.5615193e-05)
(-0.0020992282 0.00084749876 4.060026e-05)
(-0.0035140895 0.0010831226 5.4608506e-05)
(-0.0051946889 0.001264303 6.6512614e-05)
(-0.0070766333 0.0013940694 7.5560297e-05)
(-0.0090981546 0.0014779621 8.1269776e-05)
(-0.01120231 0.0015215284 8.3341395e-05)
(-0.01333704 0.0015292123 8.1591808e-05)
(-0.015454183 0.001503977 7.5911026e-05)
(-0.017508155 0.0014473588 6.6240689e-05)
(-0.019454721 0.0013597796 5.257003e-05)
(-0.02125016 0.0012410035 3.4945176e-05)
(-0.022850979 0.0010906602 1.3487331e-05)
(-0.024214229 0.0009087766 -1.1584507e-05)
(-0.025298435 0.00069627727 -3.9930403e-05)
(-0.026065058 0.00045541587 -7.1069784e-05)
(-0.026480399 0.0001901081 -0.00010436847)
(-0.026517815 -9.3864212e-05 -0.00013903559)
(-0.026159988 -0.00038877472 -0.00017413952)
(-0.025401169 -0.00068508984 -0.00020862439)
(-0.02424917 -0.00097175828 -0.00024135783)
(-0.022726751 -0.0012366933 -0.0002711843)
(-0.02087235 -0.0014674281 -0.00029699223)
(-0.018739913 -0.0016519058 -0.00031778927)
(-0.016397718 -0.0017793507 -0.00033277966)
(-0.013926127 -0.0018411454 -0.0003414365)
(-0.011414317 -0.0018316346 -0.00034356162)
(-0.0089560978 -0.0017487761 -0.0003393263)
(-0.0066450043 -0.0015945872 -0.00032928893)
(-0.0045688966 -0.00137539 -0.00031438848)
(-0.0028042244 -0.0011019663 -0.00029591544)
(-0.0014100212 -0.00078992122 -0.00027546175)
(-0.00042163536 -0.00046058648 -0.00025484334)
(0.00015576916 -0.00014255544 -0.00023597542)
(0.0003567292 0.00012231813 -0.00022087354)
(0.00027526784 0.00027112897 -0.00021163607)
(9.0126206e-05 0.00020509528 -0.00019544545)
(1.91861e-06 -0.00014895816 -2.0424813e-05)
(-0.00025604717 0.00029702525 -1.1805757e-05)
(-0.0010504499 0.0010236285 9.2557342e-08)
(-0.0023878259 0.0017975424 1.3072653e-05)
(-0.0042394437 0.002509906 2.6108926e-05)
(-0.0065455636 0.0031100593 3.80605e-05)
(-0.0092251265 0.0035809276 4.8100351e-05)
(-0.012190002 0.0039234353 5.5667812e-05)
(-0.015352993 0.0041461876 6.0381256e-05)
(-0.018631059 0.0042595934 6.1984012e-05)
(-0.021946083 0.0042728175 6.0303148e-05)
(-0.02522426 0.004192478 5.5220853e-05)
(-0.028394926 0.0040224724 4.6660796e-05)
(-0.031389394 0.0037645266 3.4587836e-05)
(-0.034140224 0.003419173 1.9018081e-05)
(-0.036581146 0.0029869422 3.6072604e-08)
(-0.038647754 0.002469608 -2.218431e-05)
(-0.040278948 0.0018713609 -4.7358601e-05)
(-0.041419058 0.0011998101 -7.5073336e-05)
(-0.042020507 0.00046673173 -0.0001047737)
(-0.042046772 -0.00031149844 -0.00013576183)
(-0.041475476 -0.0011138107 -0.00016720243)
(-0.040301322 -0.0019148759 -0.00019814825)
(-0.038538561 -0.0026858621 -0.00022757613)
(-0.036222758 -0.003395678 -0.00025443806)
(-0.033411587 -0.0040126073 -0.00027772372)
(-0.030184433 -0.0045062487 -0.00029653039)
(-0.026640648 -0.0048496373 -0.00031013492)
(-0.022896384 -0.005021389 -0.00031806115)
(-0.019080022 -0.0050076878 -0.00032013544)
(-0.015326331 -0.0048039527 -0.00031652318)
(-0.011769574 -0.0044160667 -0.00030774086)
(-0.0085358384 -0.0038611596 -0.00029464203)
(-0.0057348832 -0.0031681022 -0.00027837919)
(-0.0034517051 -0.0023781151 -0.00026034591)
(-0.0017379803 -0.0015461883 -0.00024209872)
(-0.00060368495 -0.00074418581 -0.00022524946)
(-8.0379135e-06 -6.6356325e-05 -0.00021139114)
(0.00015540821 0.0003603997 -0.00020221047)
(7.3554685e-05 0.00035437782 -0.00018529362)
(-6.4684228e-05 5.0426564e-05 -3.8676646e-05)
(-0.00060838093 0.0010457635 -2.6137591e-05)
(-0.0019305392 0.0023817398 -1.2156264e-05)
(-0.00394644 0.0037565216 1.1365487e-06)
(-0.0065890188 0.0050153161 1.3724788e-05)
(-0.0097792062 0.0060800649 2.4849109e-05)
(-0.013417136 0.0069205231 3.3972279e-05)
(-0.017395541 0.0075341147 4.0758978e-05)
(-0.021607751 0.0079313978 4.4973244e-05)
(-0.025950713 0.0081270419 4.6443247e-05)
(-0.03032587 0.0081347701 4.5038212e-05)
(-0.034638821 0.0079650036 4.0651813e-05)
(-0.038798388 0.0076243769 3.3196982e-05)
(-0.042715709 0.0071165101 2.2611428e-05)
(-0.046303777 0.0064435558 8.871445e-06)
(-0.049477695 0.0056081464 -7.9884885e-06)
(-0.052155752 0.0046154511 -2.7853007e-05)
(-0.054261314 0.0034751135 -5.0502966e-05)
(-0.055725442 0.0022028909 -7.5595286e-05)
(-0.056490044 0.00082185335 -0.00010264877)
(-0.056511344 -0.00063696776 -0.00013103897)
(-0.055763447 -0.002134595 -0.0001600009)
(-0.05424167 -0.003624814 -0.0001886524)
(-0.051965319 -0.0050556205 -0.00021602619)
(-0.048979666 -0.0063713935 -0.00024111919)
(-0.045356812 -0.0075157189 -0.00026295419)
(-0.041195194 -0.0084347276 -0.00028064941)
(-0.036617538 -0.0090807496 -0.00029349046)
(-0.031767145 -0.009416027 -0.00030099758)
(-0.026802519 -0.0094162021 -0.00030298101)
(-0.021890418 -0.0090733058 -0.00029957711)
(-0.01719757 -0.008398041 -0.00029125888)
(-0.012881386 -0.0074212947 -0.00027881755)
(-0.0090800554 -0.0061950211 -0.00026331654)
(-0.0059024827 -0.0047929319 -0.00024602318)
(-0.0034184972 -0.0033118193 -0.00022832617)
(-0.0016495314 -0.0018745336 -0.00021165293)
(-0.00055980162 -0.00063470602 -0.00019739847)
(-5.0115786e-05 0.0002150055 -0.00018679836)
(3.8094602e-05 0.00041383298 -0.00016799162)
(-0.00013086558 0.00044556358 -5.8192815e-05)
(-0.00097095071 0.0022426889 -4.1127534e-05)
(-0.0028462135 0.0043591838 -2.4245101e-05)
(-0.0055648151 0.0064572125 -9.8127669e-06)
(-0.0090094439 0.0083534745 3.1057517e-06)
(-0.013075463 0.0099514513 1.4085737e-05)
(-0.017642281 0.011211748 2.2864273e-05)
(-0.022584682 0.012129584 2.9336547e-05)
(-0.027779634 0.012717526 3.3425336e-05)
(-0.033108114 0.012994148 3.5057784e-05)
(-0.038455496 0.012977368 3.4156601e-05)
(-0.043711128 0.012681217 3.063338e-05)
(-0.048767519 0.012115132 2.4391257e-05)
(-0.053519631 0.01128499 1.5336745e-05)
(-0.057864699 0.010195263 3.3984976e-06)
(-0.061702793 0.0088517441 -1.1449044e-05)
(-0.064938227 0.0072644427 -2.9159297e-05)
(-0.067481792 0.0054502943 -4.9586991e-05)
(-0.069253701 0.0034354374 -7.2464234e-05)
(-0.070187073 0.0012568448 -9.7382268e-05)
(-0.070231724 -0.0010368505 -0.00012378189)
(-0.069358016 -0.0033854747 -0.00015095498)
(-0.067560463 -0.0057183951 -0.00017806092)
(-0.064860799 -0.0079566858 -0.00020415797)
(-0.061310201 -0.010016303 -0.00022825109)
(-0.056990365 -0.011812191 -0.00024935388)
(-0.052013153 -0.013263141 -0.00026656075)
(-0.046518561 -0.014297145 -0.00027912242)
(-0.040670852 -0.014856889 -0.00028651676)
(-0.034652768 -0.014904997 -0.00028850691)
(-0.028657898 -0.014428609 -0.00028517889)
(-0.022881405 -0.013442969 -0.00027695285)
(-0.017509481 -0.011993825 -0.00026456347)
(-0.012708059 -0.010158714 -0.00024900928)
(-0.0086114688 -0.0080474971 -0.00023147431)
(-0.0053117551 -0.0058029591 -0.00021323756)
(-0.0028485187 -0.0036024765 -0.00019561175)
(-0.0012000344 -0.0016605445 -0.00017986325)
(-0.00028881056 -0.00023377794 -0.00016671826)
(-2.4718772e-06 0.00035046523 -0.00014548666)
(-0.00019286511 0.0010313048 -7.6672941e-05)
(-0.0013239871 0.0038925302 -5.4769015e-05)
(-0.0037518583 0.0069679957 -3.4564252e-05)
(-0.0071733018 0.0099108158 -1.8470756e-05)
(-0.01141481 0.012527395 -4.675064e-06)
(-0.016341486 0.014714503 6.6876275e-06)
(-0.021809623 0.016430502 1.5604421e-05)
(-0.027675881 0.017672019 2.2189981e-05)
(-0.0338024 0.018455249 2.6522759e-05)
(-0.040056851 0.018803214 2.8629443e-05)
(-0.04631184 0.01873808 2.8487261e-05)
(-0.052444062 0.018277409 2.6025262e-05)
(-0.058333357 0.017433438 2.1133876e-05)
(-0.063862063 0.016214497 1.3682963e-05)
(-0.068914993 0.014627825 3.5460569e-06)
(-0.073380202 0.012683111 -9.3710059e-06)
(-0.077150614 0.010396212 -2.5098933e-05)
(-0.080126454 0.007792639 -4.3573489e-05)
(-0.082218394 0.0049104467 -6.4606347e-05)
(-0.08335122 0.0018022824 -8.7861409e-05)
(-0.083467824 -0.0014636085 -0.00011283991)
(-0.082533263 -0.0048035797 -0.00013887795)
(-0.080538654 -0.0081200478 -0.00016515828)
(-0.077504587 -0.011304335 -0.00019073995)
(-0.073483764 -0.014240831 -0.00021460496)
(-0.068562534 -0.016812391 -0.00023572143)
(-0.062861004 -0.018906783 -0.00025311934)
(-0.056531399 -0.020423861 -0.00026597223)
(-0.049754415 -0.02128305 -0.00027367544)
(-0.042733402 -0.021430609 -0.00027591106)
(-0.035686357 -0.02084612 -0.00027269027)
(-0.028835912 -0.019547674 -0.0002643669)
(-0.022397704 -0.017595393 -0.00025161883)
(-0.016567759 -0.015093169 -0.00023539596)
(-0.011509867 -0.012188857 -0.00021683541)
(-0.007343901 -0.0090736693 -0.00019716292)
(-0.0041345362 -0.0059816727 -0.00017765084)
(-0.0018815975 -0.003189039 -0.00015953297)
(-0.00053619242 -0.0010143223 -0.0001431386)
(-4.12459e-05 0.00015894909 -0.00011904748)
(-0.00025011674 0.0017985692 -9.2159599e-05)
(-0.0016597732 0.0059841382 -6.5269395e-05)
(-0.0046244571 0.010198614 -4.1583067e-05)
(-0.008732171 0.014107017 -2.3528278e-05)
(-0.013751607 0.017522334 -8.4899282e-06)
(-0.019515082 0.020347116 3.6489764e-06)
(-0.025854147 0.022545923 1.3100206e-05)
(-0.032607012 0.024122002 2.0179883e-05)
(-0.039621884 0.025098109 2.511029e-05)
(-0.046755012 0.025503178 2.8009705e-05)
(-0.0538688 0.025364229 2.8903731e-05)
(-0.060830248 0.024702539 2.773309e-05)
(-0.067509641 0.023533175 2.43692e-05)
(-0.073779767 0.02186698 1.863799e-05)
(-0.079515878 0.019714125 1.0349693e-05)
(-0.084596502 0.017088492 -6.6711611e-07)
(-0.088905128 0.014012234 -1.4528886e-05)
(-0.092332704 0.01052001 -3.1259901e-05)
(-0.094780824 0.0066624821 -5.0757061e-05)
(-0.096165469 0.0025088069 -7.2759749e-05)
(-0.096421123 -0.0018521453 -9.6828463e-05)
(-0.095505032 -0.0063119949 -0.00012233688)
(-0.093401435 -0.010744591 -0.00014847834)
(-0.090125481 -0.015009424 -0.00017429334)
(-0.085726506 -0.018956669 -0.00019871521)
(-0.080290343 -0.022433824 -0.00022063477)
(-0.073940284 -0.025293749 -0.00023898034)
(-0.066836241 -0.027403772 -0.00025280659)
(-0.059171753 -0.028655378 -0.00026138302)
(-0.051168505 -0.028973823 -0.00026427021)
(-0.043068247 -0.028326925 -0.00026137217)
(-0.035122197 -0.026732281 -0.00025295642)
(-0.027578338 -0.024262245 -0.00023963818)
(-0.020667345 -0.021046307 -0.00022232896)
(-0.014588349 -0.017270901 -0.00020214797)
(-0.0094958204 -0.013177224 -0.00018031838)
(-0.0054864906 -0.0090579286 -0.00015814416)
(-0.0025879525 -0.0052522182 -0.00013691292)
(-0.0007844685 -0.0021405358 -0.00011662888)
(-7.6873272e-05 -0.00016053815 -8.9423792e-05)
(-0.0003029562 0.0027365283 -0.00010298319)
(-0.0019754991 0.0084981025 -7.1012215e-05)
(-0.0054521422 0.014028578 -4.386443e-05)
(-0.010217974 0.019021393 -2.3719855e-05)
(-0.015985183 0.023311099 -7.2246436e-06)
(-0.022552802 0.026818201 5.964295e-06)
(-0.029727188 0.029522437 1.6261482e-05)
(-0.037328211 0.031439784 2.4164767e-05)
(-0.045190989 0.03260341 3.0024271e-05)
(-0.053161895 0.03305038 3.4036952e-05)
(-0.061095251 0.032813699 3.6265966e-05)
(-0.068850862 0.031918831 3.6654167e-05)
(-0.076292143 0.03038379 3.5044988e-05)
(-0.083284992 0.028221865 3.1211472e-05)
(-0.089697553 0.025446023 2.4891236e-05)
(-0.095400893 0.022074173 1.5825914e-05)
(-0.10027057 0.018134571 3.8035156e-06)
(-0.10418904 0.013670803 -1.1298225e-05)
(-0.10704872 0.0087459286 -2.9470012e-05)
(-0.10875573 0.0034454462 -5.0533711e-05)
(-0.10923405 -0.0021211646 -7.4113506e-05)
(-0.10842999 -0.0078205206 -9.9621332e-05)
(-0.10631684 -0.013497151 -0.00012625603)
(-0.10289945 -0.018977289 -0.00015302751)
(-0.098218427 -0.024074608 -0.00017880042)
(-0.092353559 -0.028597964 -0.00020236047)
(-0.085426037 -0.032360983 -0.00022249913)
(-0.077598901 -0.035193194 -0.00023811056)
(-0.069075167 -0.036952163 -0.00024829178)
(-0.060093119 -0.037535854 -0.00025243385)
(-0.050918474 -0.036894262 -0.00025029029)
(-0.041833361 -0.035039217 -0.00024201043)
(-0.033122487 -0.032051382 -0.00022813185)
(-0.025057301 -0.028083649 -0.00020953123)
(-0.017879649 -0.023360682 -0.00018733282)
(-0.01178648 -0.018174999 -0.00016280105)
(-0.0069140696 -0.012880397 -0.00013733754)
(-0.0033238387 -0.0078822629 -0.00011236696)
(-0.0010368625 -0.0036261502 -8.7659371e-05)
(-0.00011093467 -0.00060702021 -5.7219618e-05)
(-0.00035169314 0.0038338211 -0.0001076801)
(-0.0022696857 0.011410361 -7.0523423e-05)
(-0.0062274792 0.018427301 -4.0045493e-05)
(-0.011614749 0.024619958 -1.7795128e-05)
(-0.018090318 0.029857562 2.6870459e-07)
(-0.025421022 0.034089879 1.4697958e-05)
(-0.033388717 0.037320715 2.6092136e-05)
(-0.041795673 0.039585249 3.5112018e-05)
(-0.05046497 0.040931442 4.2218617e-05)
(-0.059234591 0.041407238 4.7672735e-05)
(-0.067952675 0.041053183 5.1562056e-05)
(-0.07647404 0.039899665 5.3819997e-05)
(-0.084657596 0.037967839 5.4251424e-05)
(-0.092364712 0.035273269 5.2566293e-05)
(-0.09945859 0.031831288 4.8419195e-05)
(-0.10580462 0.027663182 4.1453714e-05)
(-0.11127169 0.022802463 3.1350359e-05)
(-0.11573423 0.017300628 1.7876215e-05)
(-0.11907517 0.011231984 9.3385212e-07)
(-0.12118942 0.0046971925 -1.939353e-05)
(-0.12198809 -0.002174712 -4.2804791e-05)
(-0.12140313 -0.0092260688 -6.8758816e-05)
(-0.11939248 -0.016272195 -9.6463414e-05)
(-0.11594549 -0.02310529 -0.00012489451)
(-0.11108823 -0.029500583 -0.00015283506)
(-0.10488841 -0.035224943 -0.00017894169)
(-0.097459312 -0.040047913 -0.00020183429)
(-0.088962031 -0.04375492 -0.00022020226)
(-0.079605255 -0.046162115 -0.00023291831)
(-0.069641887 -0.047131961 -0.00023914761)
(-0.059361863 -0.046588363 -0.00023843734)
(-0.049080953 -0.044529876 -0.00023077152)
(-0.039125755 -0.041039497 -0.00021658017)
(-0.029815744 -0.036289759 -0.00019669826)
(-0.021444142 -0.030542382 -0.00017227174)
(-0.014259508 -0.02414264 -0.00014464502)
(-0.0084461224 -0.0175092 -0.00011537825)
(-0.0041057563 -0.011119104 -8.6112687e-05)
(-0.0013000799 -0.0054896946 -5.645368e-05)
(-0.00014466069 -0.0011817415 -2.250202e-05)
(-0.00039639242 0.0050786753 -0.0001049311)
(-0.0025408048 0.014693489 -6.2450416e-05)
(-0.0069442136 0.023357981 -2.8844217e-05)
(-0.012909248 0.030860813 -4.542707e-06)
(-0.020045659 0.037117354 1.5136901e-05)
(-0.028090313 0.04211691 3.0943981e-05)
(-0.036802157 0.04589579 4.3648756e-05)
(-0.045967207 0.04851482 5.4058057e-05)
(-0.055397847 0.050041364 6.2727733e-05)
(-0.064925216 0.050537307 6.9967766e-05)
(-0.074393076 0.050052597 7.5877114e-05)
(-0.083653297 0.048623487 8.0367756e-05)
(-0.092562457 0.046274535 8.3194839e-05)
(-0.10097956 0.043023316 8.3994353e-05)
(-0.10876487 0.038886824 8.2326536e-05)
(-0.11577978 0.033888623 7.7724383e-05)
(-0.12188764 0.028066011 6.9746515e-05)
(-0.1269554 0.021476599 5.80329e-05)
(-0.13085612 0.014203877 4.2361087e-05)
(-0.13347226 0.0063614868 2.2700163e-05)
(-0.13469977 -0.0019040876 -7.4216037e-07)
(-0.13445283 -0.010412656 -2.7490695e-05)
(-0.1326696 -0.018951378 -5.6773891e-05)
(-0.12931856 -0.027278404 -8.7540331e-05)
(-0.12440509 -0.035129036 -0.00011848723)
(-0.11797826 -0.042224891 -0.00014812425)
(-0.11013685 -0.048286166 -0.00017486632)
(-0.10103395 -0.053046899 -0.00019715)
(-0.090879082 -0.056272747 -0.00021356377)
(-0.079936767 -0.057780333 -0.00022297924)
(-0.068520633 -0.057456694 -0.00022466732)
(-0.056982431 -0.055276925 -0.00021838215)
(-0.045695957 -0.051317904 -0.00020439715)
(-0.03503666 -0.045766098 -0.00018348183)
(-0.025358976 -0.038918054 -0.00015680977)
(-0.016973703 -0.03117332 -0.00012583885)
(-0.010123129 -0.023020493 -9.2346107e-05)
(-0.0049573037 -0.01501629 -5.8266801e-05)
(-0.0015839117 -0.0077601721 -2.3094937e-05)
(-0.00018000483 -0.0018919996 1.4769222e-05)
(-0.00043687325 0.0064585702 -9.3533693e-05)
(-0.002786852 0.018316905 -4.5554304e-05)
(-0.0075958998 0.028778328 -9.069945e-06)
(-0.014088641 0.037694915 1.7183936e-05)
(-0.021830808 0.045038219 3.8487661e-05)
(-0.030532269 0.050846282 5.5779848e-05)
(-0.039931319 0.055195701 6.9989733e-05)
(-0.049799511 0.058179127 8.2055364e-05)
(-0.059940136 0.059887931 9.2613129e-05)
(-0.070179119 0.060401157 0.00010200901)
(-0.080357622 0.059780201 0.00011034118)
(-0.090326509 0.058068286 0.0001174891)
(-0.099942081 0.055293693 0.00012314757)
(-0.10906305 0.051475674 0.0001268678)
(-0.11754872 0.046631955 0.00012810379)
(-0.12525817 0.04078689 0.0001262641)
(-0.13205051 0.033979545 0.00012076875)
(-0.1377859 0.026271125 0.00011111032)
(-0.14232754 0.017751396 9.6917402e-05)
(-0.14554452 0.0085438131 7.801805e-05)
(-0.14731572 -0.0011908592 5.4498501e-05)
(-0.14753461 -0.011252636 2.6736542e-05)
(-0.14611544 -0.021402755 -4.5378052e-06)
(-0.14300051 -0.031366232 -3.8264223e-05)
(-0.13816826 -0.040837687 -7.3061091e-05)
(-0.13164197 -0.049490598 -0.00010728217)
(-0.12349841 -0.056990434 -0.00013910884)
(-0.11387531 -0.063011811 -0.00016667497)
(-0.10297654 -0.067259347 -0.00018821587)
(-0.091073522 -0.069491284 -0.00020222709)
(-0.07850139 -0.069544188 -0.00020761483)
(-0.065648985 -0.067356341 -0.00020381778)
(-0.05294201 -0.06298692 -0.00019088094)
(-0.040820058 -0.056628019 -0.00016946211)
(-0.029709666 -0.048607164 -0.00014075083)
(-0.019996221 -0.039379406 -0.00010634269)
(-0.011992171 -0.029509505 -6.8288587e-05)
(-0.005906025 -0.019644353 -2.8896669e-05)
(-0.0018995945 -0.010479297 1.2412349e-05)
(-0.00021911075 -0.0027504908 5.4749977e-05)
(-0.0004727607 0.0079598539 -7.2397141e-05)
(-0.0030053068 0.022246667 -1.8713303e-05)
(-0.0081754818 0.034640713 2.0363567e-05)
(-0.015139638 0.04506639 4.8444126e-05)
(-0.023425073 0.053560166 7.1359206e-05)
(-0.032718089 0.060216904 9.0229793e-05)
(-0.04273898 0.065160516 0.00010613407)
(-0.053246925 0.068521228 0.00012012833)
(-0.064037882 0.070418878 0.00013291733)
(-0.074934241 0.070952916 0.00014487213)
(-0.085776312 0.070198355 0.00015608026)
(-0.096415827 0.068206609 0.00016637952)
(-0.10671081 0.065010083 0.00017539541)
(-0.11652174 0.060629347 0.00018258452)
(-0.12570895 0.055081779 0.0001872829)
(-0.1341311 0.048390749 0.00018876)
(-0.14164461 0.040594625 0.00018627843)
(-0.14810402 0.031755106 0.00017915959)
(-0.15336319 0.021964577 0.00016685381)
(-0.15727766 0.01135226 0.00014901186)
(-0.15970802 8.9012824e-05 0.0001255544)
(-0.16052491 -0.011609442 9.6742665e-05)
(-0.15961528 -0.023481695 6.3205883e-05)
(-0.15689041 -0.035221787 2.5986238e-05)
(-0.15229557 -0.046484021 -1.3474807e-05)
(-0.14582083 -0.05689169 -5.3378115e-05)
(-0.13751249 -0.066050535 -9.1651651e-05)
(-0.12748404 -0.073567428 -0.00012607941)
(-0.11592513 -0.07907426 -0.00015446843)
(-0.10310686 -0.082256241 -0.00017483989)
(-0.089381229 -0.082882839 -0.00018562333)
(-0.075173048 -0.080838448 -0.00018582886)
(-0.060963176 -0.076149011 -0.00017517219)
(-0.047263089 -0.069000364 -0.00015412488)
(-0.034583091 -0.059744613 -0.00012385632)
(-0.023397399 -0.048892505 -8.6108322e-05)
(-0.014103447 -0.037091896 -4.325917e-05)
(-0.0069814339 -0.025092622 1.9263114e-06)
(-0.0022590064 -0.013702949 5.0074152e-05)
(-0.00026414601 -0.0037760398 9.7630383e-05)
(-0.00050355092 0.0095674425 -4.0551768e-05)
(-0.0031932758 0.026445191 1.9064916e-05)
(-0.0086754051 0.040892102 6.0420652e-05)
(-0.016048495 0.052912588 9.0186161e-05)
(-0.024807365 0.06261542 0.00011469008)
(-0.034618419 0.070159224 0.00013522871)
(-0.045186795 0.075721406 0.00015302003)
(-0.056261503 0.079475006 0.00016922725)
(-0.067632973 0.081572547 0.00018461374)
(-0.079121714 0.082137092 0.00019956741)
(-0.090568873 0.081259515 0.00021415814)
(-0.10182886 0.07900077 0.00022817582)
(-0.11276336 0.075397888 0.00024117019)
(-0.1232367 0.070472446 0.00025249548)
(-0.13311239 0.064240356 0.00026135935)
(-0.14225078 0.056722069 0.0002668775)
(-0.1505076 0.047952509 0.0002681351)
(-0.15773347 0.037990335 0.00026425572)
(-0.16377429 0.026926304 0.00025447718)
(-0.16847278 0.014890606 0.00023823196)
(-0.17167133 0.0020590331 0.00021522964)
(-0.17321661 -0.011342255 0.00018554645)
(-0.17296593 -0.025033764 0.00014967094)
(-0.17079571 -0.038682246 0.00010857431)
(-0.16661244 -0.051903618 6.3718999e-05)
(-0.1603655 -0.064270376 1.7037578e-05)
(-0.15206157 -0.075324603 -2.9138056e-05)
(-0.14177939 -0.084597518 -7.2203004e-05)
(-0.12968348 -0.091636041 -0.00010946022)
(-0.11603435 -0.096035945 -0.00013834539)
(-0.10119274 -0.097479895 -0.00015667404)
(-0.085615082 -0.095777103 -0.0001628798)
(-0.069838049 -0.090899832 -0.00015620964)
(-0.054451422 -0.083010927 -0.00013683672)
(-0.040061184 -0.072476744 -0.00010584157)
(-0.027246487 -0.059861712 -6.5097756e-05)
(-0.016507706 -0.045903615 -1.7356456e-05)
(-0.0082137722 -0.031469866 3.4070988e-05)
(-0.0026743206 -0.017501843 8.9836863e-05)
(-0.00031729582 -0.0049938555 0.00014355392)
(-0.00052868054 0.011264648 2.832668e-06)
(-0.0033477385 0.030871104 6.8624817e-05)
(-0.0090880526 0.047474052 0.00011192282)
(-0.016801586 0.061164146 0.00014322178)
(-0.025956888 0.072128397 0.00016928807)
(-0.036204181 0.080594909 0.0001915851)
(-0.047236294 0.08679986 0.00021146189)
(-0.058794244 0.090963765 0.00023017883)
(-0.070664656 0.093275764 0.00024855065)
(-0.082667722 0.093885667 0.00026697714)
(-0.094646997 0.092902523 0.00028550697)
(-0.10646127 0.090398318 0.0003038793)
(-0.11797782 0.086415375 0.00032156501)
(-0.12906689 0.080976102 0.00033781126)
(-0.13959748 0.074093912 0.00035168935)
(-0.14943401 0.065784412 0.00036214817)
(-0.15843404 0.056076243 0.00036807557)
(-0.1664467 0.045021274 0.00036836898)
(-0.17331223 0.032704006 0.00036201593)
(-0.17886253 0.019250184 0.0003481832)
(-0.18292318 0.0048345356 0.00032631293)
(-0.18531738 -0.010312569 0.00029622446)
(-0.18587199 -0.025899805 0.00025819962)
(-0.18442618 -0.041572072 0.00021306725)
(-0.18084315 -0.056910852 0.00016224947)
(-0.17502466 -0.07143935 0.00010776993)
(-0.16692827 -0.084633986 5.2206449e-05)
(-0.15658627 -0.095943786 -1.4232719e-06)
(-0.14412461 -0.10481883 -4.9848754e-05)
(-0.12977948 -0.11074795 -8.9802616e-05)
(-0.113908 -0.11330452 -0.00011832612)
(-0.096989366 -0.11219671 -0.00013308972)
(-0.079612827 -0.10731674 -0.00013268299)
(-0.062450284 -0.098781326 -0.00011681747)
(-0.046214681 -0.086954992 -8.6370937e-05)
(-0.031607746 -0.072449908 -4.3301289e-05)
(-0.019254153 -0.056099262 9.2361427e-06)
(-0.0096331393 -0.038903926 6.7288778e-05)
(-0.00315783 -0.021961653 0.00013151639)
(-0.00038078522 -0.0064355925 0.00019254248)
(-0.00054759911 0.013033168 5.8423686e-05)
(-0.0034658577 0.035479373 0.00013064155)
(-0.009406397 0.054322969 0.00017552669)
(-0.017386396 0.069745287 0.00020820062)
(-0.026854435 0.082015891 0.00023579958)
(-0.037448153 0.091436752 0.00025994423)
(-0.048850775 0.098307146 0.00028210612)
(-0.060797325 0.10289912 0.00030363463)
(-0.07307218 0.10544207 0.00032539146)
(-0.085496593 0.10611561 0.00034778683)
(-0.097917949 0.10504935 0.00037084869)
(-0.110201 0.10232799 0.00039426672)
(-0.12222042 0.098000029 0.00041743394)
(-0.13385451 0.092088785 0.00043948958)
(-0.14498015 0.084604368 0.00045936416)
(-0.15546858 0.075555806 0.00047582985)
(-0.16518214 0.064962754 0.00048755938)
(-0.17397175 0.052866569 0.00049319647)
(-0.1816753 0.03934076 0.00049143918)
(-0.18811716 0.024500891 0.00048113666)
(-0.19310912 0.008514008 0.00046139816)
(-0.19645328 -0.0083925665 0.00043171199)
(-0.19794729 -0.025923366 0.00039206318)
(-0.19739265 -0.043708866 0.0003430471)
(-0.19460649 -0.061302521 0.00028595801)
(-0.18943731 -0.078182569 0.00022283822)
(-0.18178453 -0.093760681 0.00015646771)
(-0.17162149 -0.10739972 9.0275452e-05)
(-0.15902009 -0.11844267 2.8157978e-05)
(-0.14417482 -0.12625405 -2.5799547e-05)
(-0.1274219 -0.13027328 -6.7687854e-05)
(-0.1092488 -0.1300771 -9.4189555e-05)
(-0.090288548 -0.12544458 -0.00010299125)
(-0.071294715 -0.11641496 -9.3113183e-05)
(-0.053096439 -0.10332684 -6.5053187e-05)
(-0.036536437 -0.08682787 -2.0757554e-05)
(-0.022388441 -0.067848916 3.6207387e-05)
(-0.011268763 -0.047540429 0.00010115165)
(-0.0037218438 -0.02718272 0.00017472253)
(-0.00045691175 -0.0081393813 0.00024441853)
(-0.00055984466 0.014853263 0.00012670157)
(-0.0035453378 0.040221775 0.00020559959)
(-0.0096248087 0.061370777 0.00025170317)
(-0.017792804 0.078574527 0.00028558679)
(-0.027484128 0.092187641 0.00031468137)
(-0.03832716 0.10258895 0.00034075336)
(-0.04999793 0.11014417 0.00036538866)
(-0.062227203 0.11518036 0.00039001945)
(-0.07479841 0.11797048 0.00041555309)
(-0.087535023 0.11872694 0.00044241279)
(-0.10028947 0.11760246 0.00047061064)
(-0.11293389 0.11469632 0.00049979286)
(-0.12535206 0.11006442 0.00052928025)
(-0.13743243 0.10373138 0.00055810795)
(-0.14906227 0.095703597 0.00058506591)
(-0.16012262 0.085982165 0.00060874398)
(-0.17048407 0.074575415 0.00062758622)
(-0.18000324 0.061510788 0.00063995835)
(-0.18852004 0.046846254 0.00064423171)
(-0.19585596 0.03068147 0.00063888537)
(-0.20181373 0.013168866 0.00062262679)
(-0.20617875 -0.0054753467 0.00059452919)
(-0.20872309 -0.024960523 0.00055417972)
(-0.20921262 -0.044912158 0.00050182877)
(-0.20741816 -0.064864852 0.00043852716)
(-0.20313139 -0.08425965 0.00036622829)
(-0.19618605 -0.10244829 0.00028783097)
(-0.18648428 -0.11870744 0.00020713497)
(-0.17402711 -0.13226603 0.0001286839)
(-0.15894668 -0.14234853 5.747803e-05)
(-0.14153584 -0.14823509 -1.4424396e-06)
(-0.12226912 -0.14933666 -4.3516273e-05)
(-0.10180729 -0.14527869 -6.5221953e-05)
(-0.080978725 -0.13598181 -6.4578555e-05)
(-0.060733907 -0.12172372 -4.1441642e-05)
(-0.042074316 -0.1031659 2.4215231e-06)
(-0.025950479 -0.08133324 6.3068321e-05)
(-0.013148242 -0.057540537 0.00013498161)
(-0.0043785976 -0.033279403 0.00021877398)
(-0.0005480834 -0.010149842 0.00029871834)
(-0.00056512274 0.016704136 0.00020793715)
(-0.0035848221 0.045047813 0.00029377475)
(-0.0097399826 0.0685461 0.00034072078)
(-0.018014596 0.087565901 0.00037564012)
(-0.027835516 0.10254742 0.00040617716)
(-0.038824728 0.11394789 0.00043423143)
(-0.050653066 0.12220187 0.00046149607)
(-0.063048418 0.1276943 0.00048948242)
(-0.075794276 0.13074479 0.00051914595)
(-0.088717242 0.13160155 0.00055092982)
(-0.1016758 0.13044302 0.00058483996)
(-0.11455071 0.12738526 0.00062049018)
(-0.12723646 0.12249312 0.00065713994)
(-0.13963366 0.11579342 0.00069372941)
(-0.15164252 0.10728888 0.00072891353)
(-0.16315701 0.096971898 0.0007610999)
(-0.17405977 0.08483773 0.0007884961)
(-0.18421763 0.070897084 0.00080917155)
(-0.19347778 0.055188374 0.00082113896)
(-0.20166471 0.037789983 0.00082245888)
(-0.20857841 0.018832875 0.00081136945)
(-0.21399413 -0.0014862881 0.00078644109)
(-0.21766445 -0.022891662 0.00074675422)
(-0.2193246 -0.045015033 0.00069208642)
(-0.21870194 -0.067384152 0.00062310381)
(-0.21553096 -0.089414507 0.00054152681)
(-0.20957471 -0.11040753 0.00045024305)
(-0.20065358 -0.12955895 0.00035333027)
(-0.1886808 -0.14598189 0.00025594955)
(-0.17370326 -0.15874899 0.00016407505)
(-0.15594313 -0.16695712 8.4042625e-05)
(-0.13583341 -0.1698146 2.1930334e-05)
(-0.11403768 -0.16674578 -1.7172165e-05)
(-0.091443306 -0.15750014 -2.9883806e-05)
(-0.069120481 -0.14224565 -1.5047935e-05)
(-0.04824434 -0.1216226 2.6015737e-05)
(-0.029971804 -0.096736572 8.9091298e-05)
(-0.015296622 -0.069077569 0.00016776684)
(-0.0051401275 -0.040378988 0.00026259831)
(-0.00065685502 -0.012518069 0.00035459047)
(-0.00056338818 0.018564535 0.00030217515)
(-0.0035843183 0.049906099 0.00039522297)
(-0.0097519592 0.075776049 0.00044263634)
(-0.018051163 0.09663083 0.000478405)
(-0.027905938 0.11299474 0.00051030183)
(-0.038934099 0.12540357 0.00054034616)
(-0.050802754 0.1343622 0.00057033339)
(-0.063237895 0.14031586 0.00060185422)
(-0.076023793 0.14363374 0.0006359194)
(-0.088990874 0.1446028 0.00067300403)
(-0.10200451 0.14343009 0.00071312281)
(-0.11495519 0.14025091 0.00075587331)
(-0.12774955 0.13514102 0.00080046992)
(-0.14030233 0.12813081 0.00084577248)
(-0.15252914 0.11922005 0.0008903124)
(-0.16434008 0.10839231 0.00093232149)