/*--------------------------------*- C++ -*----------------------------------*\
  =========                 |
  \\      /  F ield         | OpenFOAM: The Open Source CFD Toolbox
   \\    /   O peration     | Website:  https://openfoam.org
    \\  /    A nd           | Version:  7
     \\/     M anipulation  |
\*---------------------------------------------------------------------------*/
FoamFile
{
    version     2.0;
    format      ascii;
    class       volVectorField;
    location    "39";
    object      U_0;
}
// * * * * * * * * * * * * * * * * * * * * * * * * * * * * * * * * * * * * * //

dimensions      [0 1 -1 0 0 0 0];

internalField   nonuniform List<vector> 
16000
(
(6.6042548e-05 -6.7334693e-05 -4.1005099e-07)
(0.00016275236 -5.6355815e-05 5.6921485e-06)
(0.00014192413 4.6341649e-07 1.9192172e-05)
(-5.0616172e-05 6.1891306e-05 3.661471e-05)
(-0.00040996965 0.00011563137 5.4723336e-05)
(-0.00090902415 0.00015774401 7.1551826e-05)
(-0.0015177106 0.00018850493 8.5764052e-05)
(-0.0022068861 0.00020960922 9.6544792e-05)
(-0.0029506019 0.00022287688 0.00010343372)
(-0.0037264656 0.00022981122 0.000106184)
(-0.0045150513 0.00023147729 0.00010466842)
(-0.0052990139 0.00022850419 9.8823903e-05)
(-0.0060621937 0.00022114766 8.862572e-05)
(-0.0067888645 0.0002093833 7.4084404e-05)
(-0.0074632164 0.00019301398 5.5258725e-05)
(-0.0080691174 0.00017178092 3.2278956e-05)
(-0.0085901699 0.00014547207 5.3750609e-06)
(-0.0090100499 0.00011402236 -2.5095059e-05)
(-0.0093131024 7.7601856e-05 -5.8621591e-05)
(-0.0094851487 3.6687826e-05 -9.4526955e-05)
(-0.0095144487 -7.8859949e-06 -0.0001319615)
(-0.0093927301 -5.4923647e-05 -0.00016991387)
(-0.009116224 -0.00010284309 -0.00020723744)
(-0.0086866021 -0.00014974914 -0.00024269435)
(-0.0081116919 -0.000193512 -0.00027501512)
(-0.0074058964 -0.00023188617 -0.00030297128)
(-0.006590222 -0.00026266057 -0.00032545654)
(-0.0056918551 -0.00028382663 -0.00034157044)
(-0.00474326 -0.00029374784 -0.00035069794)
(-0.0037808165 -0.00029131188 -0.00035257736)
(-0.0028430633 -0.00027604701 -0.00034734932)
(-0.0019686546 -0.00024818871 -0.00033558175)
(-0.0011941476 -0.00020869691 -0.00031827026)
(-0.00055166697 -0.00015926076 -0.00029681811)
(-6.6502918e-05 -0.00010240696 -0.00027299296)
(0.00024492521 -4.1755532e-05 -0.00024885286)
(0.00037893942 1.7848169e-05 -0.00022678225)
(0.00034977751 6.7071819e-05 -0.00020921971)
(0.00020618348 8.9854061e-05 -0.00019883532)
(5.7466372e-05 5.7410082e-05 -0.00018439287)
(5.8002908e-05 -0.00016703098 -6.6388855e-06)
(4.088448e-05 -3.9956312e-05 -3.843609e-07)
(-0.00029497165 0.00024856805 1.1249203e-05)
(-0.0010110226 0.00056212633 2.5615245e-05)
(-0.0020992284 0.0008474987 4.060022e-05)
(-0.0035140897 0.0010831225 5.4608397e-05)
(-0.0051946892 0.001264303 6.6512532e-05)
(-0.0070766337 0.0013940694 7.5560261e-05)
(-0.0090981551 0.0014779622 8.1269685e-05)
(-0.011202311 0.0015215286 8.3341159e-05)
(-0.01333704 0.0015292126 8.1591449e-05)
(-0.015454183 0.0015039773 7.591063e-05)
(-0.017508155 0.0014473591 6.624033e-05)
(-0.019454721 0.0013597799 5.2569734e-05)
(-0.02125016 0.001241004 3.4944908e-05)
(-0.022850979 0.0010906607 1.3486994e-05)
(-0.024214229 0.00090877716 -1.1584977e-05)
(-0.025298435 0.0006962777 -3.993093e-05)
(-0.026065058 0.00045541613 -7.1070122e-05)
(-0.026480398 0.00019010837 -0.00010436846)
(-0.026517815 -9.386372e-05 -0.00013903537)
(-0.026159988 -0.00038877401 -0.00017413951)
(-0.025401169 -0.00068508924 -0.00020862487)
(-0.02424917 -0.00097175816 -0.00024135859)
(-0.02272675 -0.0012366937 -0.00027118465)
(-0.020872349 -0.0014674285 -0.00029699169)
(-0.018739913 -0.0016519055 -0.00031778826)
(-0.016397719 -0.0017793496 -0.00033277939)
(-0.013926128 -0.0018411445 -0.00034143776)
(-0.011414317 -0.001831635 -0.00034356355)
(-0.0089560965 -0.0017487776 -0.00033932681)
(-0.0066450032 -0.0015945881 -0.00032928702)
(-0.0045688975 -0.0013753887 -0.00031438608)
(-0.0028042269 -0.0011019638 -0.00029591591)
(-0.0014100225 -0.0007899204 -0.00027546568)
(-0.00042163315 -0.00046058899 -0.00025484669)
(0.00015577321 -0.000142559 -0.00023597309)
(0.00035673081 0.00012231824 -0.00022086608)
(0.000275264 0.00027113291 -0.00021163069)
(9.0122971e-05 0.00020509964 -0.00019544966)
(1.9186421e-06 -0.00014895842 -2.0424821e-05)
(-0.00025604707 0.00029702493 -1.1805814e-05)
(-0.0010504498 0.0010236282 9.2543258e-08)
(-0.0023878259 0.0017975421 1.3072709e-05)
(-0.0042394438 0.0025099058 2.6108965e-05)
(-0.0065455638 0.0031100592 3.8060428e-05)
(-0.0092251267 0.0035809276 4.8100206e-05)
(-0.012190003 0.0039234354 5.5667707e-05)
(-0.015352993 0.0041461878 6.0381212e-05)
(-0.01863106 0.0042595938 6.1983944e-05)
(-0.021946083 0.0042728181 6.0302974e-05)
(-0.025224261 0.0041924786 5.5220564e-05)
(-0.028394927 0.004022473 4.6660444e-05)
(-0.031389394 0.0037645273 3.4587511e-05)
(-0.034140223 0.0034191737 1.9017879e-05)
(-0.036581146 0.0029869429 3.5995992e-08)
(-0.038647754 0.0024696089 -2.2184414e-05)
(-0.040278947 0.0018713619 -4.7358912e-05)
(-0.041419058 0.0011998109 -7.5073822e-05)
(-0.042020506 0.00046673218 -0.00010477406)
(-0.042046771 -0.00031149815 -0.00013576175)
(-0.041475476 -0.0011138102 -0.00016720197)
(-0.040301322 -0.0019148751 -0.0001981479)
(-0.038538561 -0.0026858613 -0.00022757646)
(-0.036222759 -0.0033956777 -0.00025443905)
(-0.033411587 -0.0040126079 -0.00027772449)
(-0.030184432 -0.0045062495 -0.00029652997)
(-0.026640648 -0.0048496372 -0.00031013346)
(-0.022896385 -0.0050213876 -0.00031806023)
(-0.019080024 -0.0050076863 -0.0003201366)
(-0.015326332 -0.0048039527 -0.00031652578)
(-0.011769572 -0.0044160686 -0.00030774209)
(-0.0085358364 -0.0038611612 -0.00029463987)
(-0.0057348837 -0.0031681008 -0.0002783756)
(-0.0034517085 -0.0023781113 -0.0002603456)
(-0.001737983 -0.0015461859 -0.00024210372)
(-0.00060368334 -0.00074418769 -0.00022525525)
(-8.0336589e-06 -6.636046e-05 -0.00021139101)
(0.00015540882 0.00036039798 -0.00020220507)
(7.3553234e-05 0.00035438107 -0.00018529286)
(-6.4684227e-05 5.0426154e-05 -3.8676666e-05)
(-0.0006083809 0.0010457631 -2.6137692e-05)
(-0.0019305391 0.0023817394 -1.215639e-05)
(-0.0039464399 0.0037565211 1.136494e-06)
(-0.0065890188 0.0050153158 1.3724829e-05)
(-0.0097792063 0.0060800648 2.4849134e-05)
(-0.013417136 0.0069205232 3.3972197e-05)
(-0.017395541 0.0075341148 4.0758831e-05)
(-0.021607752 0.0079313981 4.4973134e-05)
(-0.025950714 0.0081270423 4.6443205e-05)
(-0.03032587 0.0081347708 4.5038188e-05)
(-0.034638821 0.0079650044 4.0651742e-05)
(-0.038798388 0.0076243778 3.319681e-05)
(-0.042715709 0.0071165111 2.261115e-05)
(-0.046303777 0.0064435567 8.8711635e-06)
(-0.049477695 0.0056081472 -7.9886023e-06)
(-0.052155751 0.004615452 -2.7852897e-05)
(-0.054261314 0.0034751145 -5.0502816e-05)
(-0.055725442 0.002202892 -7.5595387e-05)
(-0.056490044 0.00082185426 -0.0001026492)
(-0.056511343 -0.0006369673 -0.00013103941)
(-0.055763446 -0.0021345949 -0.00016000088)
(-0.05424167 -0.0036248139 -0.00018865176)
(-0.05196532 -0.0050556199 -0.00021602546)
(-0.048979666 -0.0063713926 -0.00024111928)
(-0.045356812 -0.0075157184 -0.00026295537)
(-0.041195194 -0.0084347282 -0.0002806507)
(-0.036617536 -0.0090807508 -0.00029349034)
(-0.031767145 -0.0094160274 -0.00030099576)
(-0.026802521 -0.0094162007 -0.00030297934)
(-0.02189042 -0.0090733035 -0.00029957795)
(-0.017197571 -0.0083980402 -0.00029126208)
(-0.012881384 -0.0074212966 -0.00027881965)
(-0.0090800525 -0.0061950234 -0.00026331434)
(-0.0059024826 -0.0047929312 -0.00024601824)
(-0.0034185005 -0.0033118153 -0.0002283242)
(-0.001649534 -0.00187453 -0.00021165674)
(-0.00055980006 -0.00063470626 -0.00019740302)
(-5.0113189e-05 0.00021500376 -0.00018679757)
(3.809515e-05 0.00041383334 -0.00016798968)
(-0.00013086558 0.00044556303 -5.8192873e-05)
(-0.00097095069 0.0022426884 -4.1127621e-05)
(-0.0028462135 0.0043591833 -2.4245256e-05)
(-0.005564815 0.006457212 -9.812947e-06)
(-0.0090094437 0.0083534742 3.1056735e-06)
(-0.013075463 0.0099514511 1.4085774e-05)
(-0.017642281 0.011211748 2.2864316e-05)
(-0.022584682 0.012129584 2.9336505e-05)
(-0.027779634 0.012717526 3.3425238e-05)
(-0.033108114 0.012994149 3.5057709e-05)
(-0.038455496 0.012977368 3.4156595e-05)
(-0.043711129 0.012681218 3.0633447e-05)
(-0.048767519 0.012115133 2.4391348e-05)
(-0.053519631 0.011284991 1.5336748e-05)
(-0.057864699 0.010195264 3.3983394e-06)
(-0.061702792 0.008851745 -1.1449264e-05)
(-0.064938227 0.0072644434 -2.9159339e-05)
(-0.067481792 0.005450295 -4.9586716e-05)
(-0.069253701 0.0034354382 -7.2463822e-05)
(-0.070187073 0.0012568458 -9.7382127e-05)
(-0.070231725 -0.0010368496 -0.00012378227)
(-0.069358016 -0.0033854745 -0.0001509556)
(-0.067560463 -0.0057183954 -0.00017806108)
(-0.064860799 -0.0079566862 -0.00020415724)
(-0.061310201 -0.010016303 -0.00022824996)
(-0.056990366 -0.01181219 -0.0002493536)
(-0.052013154 -0.013263141 -0.00026656206)
(-0.046518561 -0.014297146 -0.00027912432)
(-0.04067085 -0.01485689 -0.00028651711)
(-0.034652767 -0.014904997 -0.00028850478)
(-0.028657899 -0.014428608 -0.00028517631)
(-0.022881407 -0.013442966 -0.00027695316)
(-0.017509482 -0.011993824 -0.00026456722)
(-0.012708057 -0.010158716 -0.00024901254)
(-0.0086114657 -0.0080474999 -0.00023147287)
(-0.0053117548 -0.0058029591 -0.00021323288)
(-0.0028485215 -0.0036024733 -0.00019560993)
(-0.0012000355 -0.001660542 -0.00017986607)
(-0.00028880925 -0.00023377805 -0.00016671991)
(-2.4711739e-06 0.00035046434 -0.00014548603)
(-0.00019286509 0.0010313042 -7.6673105e-05)
(-0.001323987 0.0038925297 -5.476913e-05)
(-0.0037518582 0.0069679953 -3.4564358e-05)
(-0.0071733016 0.0099108155 -1.8470942e-05)
(-0.01141481 0.012527395 -4.6752521e-06)
(-0.016341486 0.014714503 6.6875675e-06)
(-0.021809623 0.016430502 1.5604493e-05)
(-0.027675881 0.017672019 2.2190082e-05)
(-0.0338024 0.018455249 2.6522808e-05)
(-0.040056851 0.018803215 2.8629436e-05)
(-0.04631184 0.01873808 2.8487244e-05)
(-0.052444062 0.01827741 2.6025305e-05)
(-0.058333357 0.017433439 2.1134049e-05)
(-0.063862063 0.016214498 1.3683233e-05)
(-0.068914993 0.014627826 3.5462563e-06)
(-0.073380202 0.012683111 -9.3710322e-06)
(-0.077150614 0.010396212 -2.5099117e-05)
(-0.080126454 0.0077926394 -4.357353e-05)
(-0.082218394 0.0049104469 -6.4605993e-05)
(-0.08335122 0.0018022828 -8.7860779e-05)
(-0.083467824 -0.0014636079 -0.00011283951)
(-0.082533264 -0.004803579 -0.00013887827)
(-0.080538654 -0.0081200477 -0.00016515915)
(-0.077504587 -0.011304336 -0.00019074047)
(-0.073483764 -0.014240832 -0.00021460429)
(-0.068562534 -0.016812391 -0.0002357199)
(-0.062861005 -0.018906782 -0.00025311856)
(-0.056531401 -0.02042386 -0.00026597352)
(-0.049754415 -0.021283051 -0.00027367796)
(-0.0427334 -0.021430611 -0.00027591205)
(-0.035686355 -0.020846121 -0.00027268801)
(-0.028835913 -0.019547672 -0.00026436342)
(-0.022397706 -0.01759539 -0.00025161825)
(-0.016567761 -0.015093166 -0.00023539942)
(-0.011509866 -0.012188858 -0.00021683872)
(-0.0073438984 -0.0090736715 -0.00019716177)
(-0.0041345364 -0.0059816726 -0.00017764735)
(-0.0018815993 -0.003189037 -0.00015953245)
(-0.00053619286 -0.0010143215 -0.00014313999)
(-4.1245655e-05 0.00015894856 -0.00011904802)
(-0.00025011672 0.0017985687 -9.2159869e-05)
(-0.001659773 0.0059841377 -6.5269636e-05)
(-0.0046244569 0.010198613 -4.1583178e-05)
(-0.0087321707 0.014107017 -2.352838e-05)
(-0.013751606 0.017522334 -8.490089e-06)
(-0.019515081 0.020347116 3.6488297e-06)
(-0.025854147 0.022545923 1.310019e-05)
(-0.032607011 0.024122002 2.0180007e-05)
(-0.039621883 0.025098109 2.5110477e-05)
(-0.046755012 0.025503179 2.8009875e-05)
(-0.0538688 0.02536423 2.8903832e-05)
(-0.060830247 0.024702539 2.7733127e-05)
(-0.06750964 0.023533176 2.4369273e-05)
(-0.073779767 0.021866981 1.8638235e-05)
(-0.079515878 0.019714125 1.0350109e-05)
(-0.084596502 0.017088492 -6.6673886e-07)
(-0.088905128 0.014012235 -1.4528798e-05)
(-0.092332704 0.01052001 -3.1260104e-05)
(-0.094780823 0.006662482 -5.0757216e-05)
(-0.096165469 0.0025088065 -7.2759451e-05)
(-0.096421123 -0.0018521455 -9.6827699e-05)
(-0.095505032 -0.0063119946 -0.00012233624)
(-0.093401436 -0.010744591 -0.00014847857)
(-0.090125482 -0.015009424 -0.00017429449)
(-0.085726506 -0.01895667 -0.00019871621)
(-0.080290342 -0.022433826 -0.00022063431)
(-0.073940283 -0.025293749 -0.00023897846)
(-0.066836242 -0.027403771 -0.00025280518)
(-0.059171755 -0.028655377 -0.00026138408)
(-0.051168506 -0.028973823 -0.00026427322)
(-0.043068245 -0.028326927 -0.00026137391)
(-0.035122194 -0.026732283 -0.00025295445)
(-0.027578338 -0.024262244 -0.00023963443)
(-0.020667347 -0.021046305 -0.00022232797)
(-0.01458835 -0.017270899 -0.00020215086)
(-0.009495819 -0.013177225 -0.00018032081)
(-0.005486489 -0.0090579303 -0.00015814294)
(-0.0025879531 -0.0052522181 -0.00013691104)
(-0.00078446959 -0.0021405351 -0.00011662876)
(-7.6873597e-05 -0.00016053805 -8.942444e-05)
(-0.00030295623 0.0027365281 -0.00010298346)
(-0.001975499 0.0084981022 -7.1012578e-05)
(-0.0054521419 0.014028578 -4.3864653e-05)
(-0.010217974 0.019021392 -2.3719936e-05)
(-0.015985183 0.023311099 -7.2246917e-06)
(-0.022552801 0.026818202 5.964204e-06)
(-0.029727187 0.029522437 1.6261413e-05)
(-0.037328211 0.031439784 2.4164809e-05)
(-0.045190988 0.03260341 3.0024444e-05)
(-0.053161895 0.033050381 3.4037219e-05)
(-0.061095251 0.0328137 3.6266248e-05)
(-0.068850862 0.031918831 3.6654355e-05)
(-0.076292143 0.03038379 3.5045043e-05)
(-0.083284992 0.028221865 3.1211515e-05)
(-0.089697553 0.025446023 2.4891474e-05)
(-0.095400892 0.022074173 1.5826401e-05)
(-0.10027057 0.018134571 3.8040253e-06)
(-0.10418904 0.013670803 -1.1298047e-05)
(-0.10704872 0.0087459286 -2.9470287e-05)
(-0.10875573 0.0034454457 -5.05341e-05)
(-0.10923405 -0.0021211655 -7.4113418e-05)
(-0.10842999 -0.0078205214 -9.9620541e-05)
(-0.10631684 -0.013497151 -0.00012625514)
(-0.10289945 -0.018977288 -0.00015302757)
(-0.098218428 -0.024074608 -0.00017880179)
(-0.092353559 -0.028597965 -0.00020236203)
(-0.085426036 -0.032360985 -0.00022249906)
(-0.0775989 -0.035193195 -0.00023810846)
(-0.069075167 -0.036952162 -0.00024828969)
(-0.060093121 -0.037535852 -0.00025243442)
(-0.050918474 -0.036894261 -0.00025029337)
(-0.041833359 -0.035039219 -0.00024201255)
(-0.033122485 -0.032051384 -0.00022813022)
(-0.025057301 -0.028083648 -0.00020952784)
(-0.017879651 -0.02336068 -0.00018733208)
(-0.011786481 -0.018174999 -0.00016280329)
(-0.0069140686 -0.012880398 -0.00013733881)
(-0.0033238381 -0.0078822642 -0.00011236615)
(-0.001036863 -0.0036261505 -8.7658459e-05)
(-0.00011093504 -0.00060702012 -5.7219583e-05)
(-0.00035169317 0.0038338211 -0.00010768031)
(-0.0022696857 0.011410361 -7.0523768e-05)
(-0.0062274788 0.018427301 -4.004582e-05)
(-0.011614749 0.024619958 -1.77953e-05)
(-0.018090317 0.029857562 2.6868874e-07)
(-0.025421022 0.03408988 1.4697987e-05)
(-0.033388716 0.037320715 2.6092143e-05)
(-0.041795673 0.039585249 3.5112029e-05)
(-0.050464969 0.040931442 4.221869e-05)
(-0.059234591 0.041407238 4.7672915e-05)
(-0.067952675 0.041053183 5.1562358e-05)
(-0.07647404 0.039899665 5.3820343e-05)
(-0.084657596 0.037967839 5.4251652e-05)
(-0.092364712 0.035273269 5.2566311e-05)
(-0.09945859 0.031831288 4.8419129e-05)
(-0.10580462 0.027663182 4.1453838e-05)
(-0.11127169 0.022802462 3.1350819e-05)
(-0.11573423 0.017300628 1.7876809e-05)
(-0.11907517 0.011231984 9.3411457e-07)
(-0.12118942 0.0046971923 -1.9393899e-05)
(-0.12198809 -0.0021747127 -4.2805501e-05)
(-0.12140313 -0.0092260701 -6.8759082e-05)
(-0.11939248 -0.016272196 -9.6462713e-05)
(-0.11594549 -0.02310529 -0.00012489337)
(-0.11108823 -0.029500582 -0.00015283483)
(-0.10488841 -0.035224942 -0.00017894314)
(-0.097459312 -0.040047914 -0.00020183635)
(-0.088962029 -0.043754922 -0.0002202027)
(-0.079605254 -0.046162116 -0.00023291625)
(-0.069641888 -0.04713196 -0.00023914511)
(-0.059361864 -0.046588361 -0.00023843745)
(-0.049080953 -0.044529875 -0.00023077434)
(-0.039125753 -0.041039499 -0.00021658217)
(-0.029815742 -0.036289761 -0.00019669686)
(-0.021444142 -0.030542382 -0.00017226915)
(-0.01425951 -0.024142639 -0.00014464476)
(-0.0084461231 -0.017509199 -0.00011537967)
(-0.0041057559 -0.011119105 -8.6113383e-05)
(-0.0013000798 -0.0054896956 -5.6453334e-05)
(-0.00014466078 -0.0011817421 -2.2501663e-05)
(-0.00039639241 0.0050786755 -0.00010493127)
(-0.0025408047 0.014693489 -6.2450631e-05)
(-0.0069442133 0.023357981 -2.8844503e-05)
(-0.012909247 0.030860813 -4.5429595e-06)
(-0.020045658 0.037117354 1.5136805e-05)
(-0.028090312 0.04211691 3.0944036e-05)
(-0.036802157 0.04589579 4.3648866e-05)
(-0.045967207 0.04851482 5.4058148e-05)
(-0.055397847 0.050041364 6.2727784e-05)
(-0.064925216 0.050537307 6.9967806e-05)
(-0.074393076 0.050052596 7.5877228e-05)
(-0.083653297 0.048623486 8.0368017e-05)
(-0.092562457 0.046274534 8.319518e-05)
(-0.10097956 0.043023316 8.3994567e-05)
(-0.10876487 0.038886823 8.2326468e-05)
(-0.11577978 0.033888622 7.7724134e-05)
(-0.12188764 0.02806601 6.9746421e-05)
(-0.1269554 0.021476598 5.8033237e-05)
(-0.13085612 0.014203876 4.2361725e-05)
(-0.13347227 0.0063614866 2.2700533e-05)
(-0.13469977 -0.0019040877 -7.4258482e-07)
(-0.13445283 -0.010412656 -2.7491741e-05)
(-0.1326696 -0.018951379 -5.6774602e-05)
(-0.12931855 -0.027278405 -8.7539835e-05)
(-0.12440509 -0.035129036 -0.00011848588)
(-0.11797826 -0.04222489 -0.00014812362)
(-0.11013685 -0.048286165 -0.00017486763)
(-0.10103395 -0.053046899 -0.00019715235)
(-0.09087908 -0.056272749 -0.00021356464)
(-0.079936765 -0.057780335 -0.00022297738)
(-0.068520633 -0.057456694 -0.00022466476)
(-0.056982432 -0.055276924 -0.00021838206)
(-0.045695958 -0.051317904 -0.00020439957)
(-0.035036659 -0.045766099 -0.00018348339)
(-0.025358975 -0.038918056 -0.00015680864)
(-0.016973703 -0.031173321 -0.00012583724)
(-0.01012313 -0.023020493 -9.2346074e-05)
(-0.0049573042 -0.015016291 -5.8267679e-05)
(-0.0015839116 -0.0077601731 -2.3095402e-05)
(-0.00018000473 -0.0018920006 1.4769271e-05)
(-0.00043687318 0.0064585705 -9.3533902e-05)
(-0.0027868518 0.018316906 -4.5554425e-05)
(-0.0075958996 0.028778328 -9.0700763e-06)
(-0.01408864 0.037694915 1.7183746e-05)
(-0.021830807 0.045038219 3.8487501e-05)
(-0.030532269 0.050846282 5.5779815e-05)
(-0.039931319 0.055195701 6.9989827e-05)
(-0.049799511 0.058179127 8.2055515e-05)
(-0.059940136 0.05988793 9.261325e-05)
(-0.070179119 0.060401156 0.00010200903)
(-0.080357622 0.059780201 0.00011034111)
(-0.090326509 0.058068285 0.00011748906)
(-0.099942081 0.055293692 0.00012314771)
(-0.10906305 0.051475674 0.00012686807)
(-0.11754872 0.046631954 0.00012810396)
(-0.12525817 0.04078689 0.00012626394)
(-0.13205051 0.033979544 0.00012076829)
(-0.1377859 0.026271124 0.00011110994)
(-0.14232754 0.017751395 9.6917542e-05)
(-0.14554452 0.0085438123 7.8018704e-05)
(-0.14731572 -0.0011908593 5.4499026e-05)
(-0.14753462 -0.011252636 2.6736162e-05)
(-0.14611544 -0.021402755 -4.5391078e-06)
(-0.14300051 -0.031366233 -3.8265384e-05)
(-0.13816826 -0.040837689 -7.3060892e-05)
(-0.13164197 -0.049490599 -0.00010728071)
(-0.12349841 -0.056990433 -0.00013910784)
(-0.11387531 -0.06301181 -0.00016667601)
(-0.10297654 -0.067259347 -0.00018821823)
(-0.09107352 -0.069491285 -0.00020222816)
(-0.078501388 -0.069544189 -0.00020761323)
(-0.065648985 -0.06735634 -0.0002038155)
(-0.052942012 -0.062986919 -0.00019088089)
(-0.040820059 -0.056628019 -0.00016946402)
(-0.029709665 -0.048607166 -0.00014075189)
(-0.019996221 -0.039379408 -0.00010634201)
(-0.011992172 -0.029509505 -6.8287746e-05)
(-0.0059060258 -0.019644353 -2.8896778e-05)
(-0.0018995947 -0.010479298 1.2411765e-05)
(-0.00021911072 -0.0027504917 5.4749615e-05)
(-0.00047276063 0.0079598544 -7.2397381e-05)
(-0.0030053065 0.022246668 -1.8713446e-05)
(-0.0081754815 0.034640713 2.0363538e-05)
(-0.015139638 0.045066391 4.8444094e-05)
(-0.023425073 0.053560166 7.1359116e-05)
(-0.032718089 0.060216904 9.02297e-05)
(-0.04273898 0.065160516 0.00010613405)
(-0.053246924 0.068521227 0.00012012839)
(-0.064037882 0.070418877 0.00013291746)
(-0.074934241 0.070952915 0.00014487221)
(-0.085776312 0.070198355 0.00015608017)
(-0.096415827 0.068206608 0.00016637927)
(-0.10671081 0.065010082 0.00017539516)
(-0.11652174 0.060629346 0.00018258446)
(-0.12570895 0.055081778 0.00018728307)
(-0.1341311 0.048390748 0.00018876014)
(-0.14164462 0.040594624 0.0001862782)
(-0.14810402 0.031755106 0.00017915894)
(-0.15336319 0.021964576 0.00016685313)
(-0.15727766 0.011352259 0.00014901176)
(-0.15970802 8.9012218e-05 0.00012555505)
(-0.16052491 -0.011609442 9.6743395e-05)
(-0.15961529 -0.023481694 6.3205677e-05)
(-0.15689041 -0.035221787 2.5984841e-05)
(-0.15229557 -0.046484022 -1.3476309e-05)
(-0.14582082 -0.056891692 -5.337822e-05)
(-0.13751249 -0.066050536 -9.1650208e-05)
(-0.12748404 -0.073567427 -0.00012607817)
(-0.11592513 -0.079074258 -0.00015446918)
(-0.10310686 -0.082256241 -0.00017484207)
(-0.089381228 -0.08288284 -0.00018562437)
(-0.075173047 -0.080838449 -0.00018582754)
(-0.060963176 -0.07614901 -0.00017517042)
(-0.047263091 -0.069000363 -0.00015412494)
(-0.034583092 -0.059744613 -0.00012385768)
(-0.023397399 -0.048892506 -8.6109089e-05)
(-0.014103447 -0.037091897 -4.3258924e-05)
(-0.0069814344 -0.025092623 1.926605e-06)
(-0.0022590068 -0.013702949 5.0073934e-05)
(-0.0002641461 -0.0037760403 9.7629953e-05)
(-0.00050355088 0.0095674432 -4.0551929e-05)
(-0.0031932756 0.026445191 1.9064738e-05)
(-0.0086754047 0.040892102 6.0420598e-05)
(-0.016048494 0.052912589 9.0186217e-05)
(-0.024807365 0.06261542 0.00011469013)
(-0.034618419 0.070159224 0.00013522869)
(-0.045186795 0.075721406 0.00015301995)
(-0.056261503 0.079475005 0.00016922716)
(-0.067632973 0.081572547 0.0001846137)
(-0.079121714 0.082137091 0.00019956743)
(-0.090568873 0.081259514 0.00021415811)
(-0.10182886 0.079000769 0.0002281756)
(-0.11276336 0.075397887 0.00024116976)
(-0.1232367 0.070472445 0.000252495)
(-0.13311239 0.064240355 0.00026135909)
(-0.14225078 0.056722068 0.00026687757)
(-0.1505076 0.047952508 0.00026813527)
(-0.15773347 0.037990335 0.00026425553)
(-0.16377429 0.026926304 0.00025447643)
(-0.16847278 0.014890605 0.00023823104)
(-0.17167133 0.0020590326 0.0002152293)
(-0.17321661 -0.011342255 0.00018554707)
(-0.17296593 -0.025033764 0.00014967188)
(-0.17079571 -0.038682245 0.00010857436)
(-0.16661244 -0.051903617 6.3717677e-05)
(-0.1603655 -0.064270377 1.7035918e-05)
(-0.15206157 -0.075324604 -2.9138378e-05)
(-0.14177939 -0.084597518 -7.2201654e-05)
(-0.12968348 -0.09163604 -0.0001094589)
(-0.11603435 -0.096035944 -0.00013834592)
(-0.10119274 -0.097479894 -0.00015667588)
(-0.085615081 -0.095777104 -0.00016288066)
(-0.069838049 -0.090899833 -0.00015620867)
(-0.054451422 -0.083010927 -0.00013683554)
(-0.040061185 -0.072476744 -0.00010584169)
(-0.027246487 -0.059861712 -6.5098701e-05)
(-0.016507706 -0.045903615 -1.7357065e-05)
(-0.0082137723 -0.031469867 3.407092e-05)
(-0.0026743208 -0.017501843 8.9836811e-05)
(-0.0003172959 -0.0049938556 0.00014355366)
(-0.00052868052 0.011264648 2.8326619e-06)
(-0.0033477384 0.030871105 6.8624718e-05)
(-0.0090880524 0.047474053 0.00011192273)
(-0.016801586 0.061164146 0.00014322179)
(-0.025956888 0.072128397 0.00016928818)
(-0.036204181 0.080594909 0.00019158519)
(-0.047236294 0.08679986 0.00021146187)
(-0.058794245 0.090963764 0.00023017868)
(-0.070664657 0.093275763 0.00024855042)
(-0.082667722 0.093885666 0.00026697693)
(-0.094646997 0.092902522 0.00028550684)
(-0.10646127 0.090398318 0.00030387915)
(-0.11797782 0.086415375 0.00032156469)
(-0.12906689 0.080976101 0.00033781069)
(-0.13959748 0.074093912 0.00035168869)
(-0.14943401 0.065784411 0.00036214775)
(-0.15843404 0.056076243 0.0003680756)
(-0.1664467 0.045021274 0.00036836925)
(-0.17331223 0.032704006 0.0003620159)
(-0.17886253 0.019250185 0.00034818249)
(-0.18292318 0.004834536 0.00032631187)
(-0.18531738 -0.010312569 0.00029622393)
(-0.18587199 -0.025899805 0.00025820018)
(-0.18442618 -0.041572071 0.00021306834)
(-0.18084315 -0.056910851 0.0001622498)
(-0.17502466 -0.071439349 0.0001077688)
(-0.16692827 -0.084633986 5.2204817e-05)
(-0.15658627 -0.095943787 -1.4236887e-06)
(-0.14412461 -0.10481883 -4.984755e-05)
(-0.12977948 -0.11074795 -8.9801384e-05)
(-0.113908 -0.11330452 -0.00011832648)
(-0.096989367 -0.11219671 -0.00013309114)
(-0.079612826 -0.10731674 -0.00013268365)
(-0.062450284 -0.098781326 -0.00011681687)
(-0.046214681 -0.086954992 -8.6370253e-05)
(-0.031607747 -0.072449907 -4.3301435e-05)
(-0.019254154 -0.056099262 9.2354784e-06)
(-0.0096331394 -0.038903926 6.7288265e-05)
(-0.00315783 -0.021961653 0.00013151614)
(-0.00038078521 -0.0064355925 0.00019254229)
(-0.00054759906 0.013033168 5.8423778e-05)
(-0.0034658576 0.035479373 0.00013064162)
(-0.0094063969 0.05432297 0.00017552666)
(-0.017386396 0.069745287 0.00020820057)
(-0.026854435 0.082015891 0.00023579961)
(-0.037448153 0.091436752 0.00025994433)
(-0.048850775 0.098307145 0.00028210618)
(-0.060797325 0.10289912 0.00030363455)
(-0.07307218 0.10544207 0.00032539119)
(-0.085496594 0.10611561 0.00034778643)
(-0.09791795 0.10504935 0.0003708483)
(-0.11020101 0.10232799 0.00039426644)
(-0.12222042 0.098000028 0.00041743372)
(-0.13385451 0.092088785 0.00043948924)
(-0.14498015 0.084604369 0.00045936357)
(-0.15546858 0.075555806 0.00047582911)
(-0.16518214 0.064962754 0.00048755887)
(-0.17397175 0.052866569 0.0004931965)
(-0.1816753 0.03934076 0.0004914396)
(-0.18811716 0.024500892 0.00048113686)
(-0.19310912 0.0085140092 0.00046139761)
(-0.19645328 -0.0083925656 0.00043171091)
(-0.19794729 -0.025923365 0.00039206251)
(-0.19739265 -0.043708866 0.00034304756)
(-0.19460649 -0.06130252 0.00028595917)
(-0.18943731 -0.078182567 0.00022283875)
(-0.18178453 -0.09376068 0.00015646682)
(-0.17162149 -0.10739972 9.0273993e-05)
(-0.15902009 -0.11844267 2.815757e-05)
(-0.14417482 -0.12625405 -2.5798536e-05)
(-0.1274219 -0.13027328 -6.7686818e-05)
(-0.1092488 -0.1300771 -9.4189768e-05)
(-0.090288549 -0.12544458 -0.00010299224)
(-0.071294715 -0.11641496 -9.3113693e-05)
(-0.05309644 -0.10332684 -6.5052919e-05)
(-0.036536438 -0.086827869 -2.0757234e-05)
(-0.022388442 -0.067848916 3.6207219e-05)
(-0.011268764 -0.047540428 0.00010115117)
(-0.0037218439 -0.02718272 0.00017472211)
(-0.0004569117 -0.008139381 0.00024441828)
(-0.00055984456 0.014853263 0.00012670164)
(-0.0035453377 0.040221775 0.00020559975)
(-0.0096248087 0.061370777 0.00025170328)
(-0.017792804 0.078574527 0.00028558679)
(-0.027484128 0.092187641 0.00031468132)
(-0.03832716 0.10258895 0.00034075334)
(-0.04999793 0.11014417 0.00036538869)
(-0.062227204 0.11518036 0.00039001945)
(-0.074798411 0.11797048 0.00041555294)
(-0.087535024 0.11872694 0.00044241241)
(-0.10028947 0.11760246 0.00047061008)
(-0.11293389 0.11469632 0.00049979231)
(-0.12535206 0.11006442 0.00052927987)
(-0.13743243 0.10373138 0.00055810775)
(-0.14906227 0.095703597 0.00058506569)
(-0.16012262 0.085982166 0.00060874352)
(-0.17048407 0.074575415 0.00062758554)
(-0.18000324 0.061510788 0.00063995784)
(-0.18852004 0.046846254 0.00064423179)
(-0.19585596 0.03068147 0.00063888597)
(-0.20181373 0.013168867 0.00062262725)
(-0.20617875 -0.0054753452 0.00059452887)
(-0.20872309 -0.024960522 0.00055417872)
(-0.20921262 -0.044912157 0.00050182804)
(-0.20741816 -0.064864852 0.00043852751)
(-0.20313139 -0.08425965 0.00036622941)
(-0.19618605 -0.10244829 0.00028783158)
(-0.18648428 -0.11870744 0.00020713431)
(-0.17402711 -0.13226603 0.00012868271)
(-0.15894668 -0.14234853 5.747769e-05)
(-0.14153584 -0.14823509 -1.4416602e-06)
(-0.12226912 -0.14933666 -4.3515473e-05)
(-0.10180729 -0.14527869 -6.522203e-05)
(-0.080978726 -0.13598181 -6.457919e-05)
(-0.060733907 -0.12172372 -4.1442033e-05)
(-0.042074317 -0.1031659 2.4215732e-06)
(-0.02595048 -0.081333239 6.3068409e-05)
(-0.013148242 -0.057540536 0.00013498144)
(-0.0043785978 -0.033279402 0.00021877364)
(-0.0005480834 -0.010149841 0.00029871807)
(-0.00056512265 0.016704136 0.00020793716)
(-0.0035848219 0.045047813 0.00029377485)
(-0.0097399825 0.0685461 0.00034072096)
(-0.018014597 0.087565901 0.00037564025)
(-0.027835516 0.10254742 0.00040617716)
(-0.038824728 0.11394789 0.00043423133)
(-0.050653067 0.12220187 0.00046149596)
(-0.063048419 0.1276943 0.00048948235)
(-0.075794276 0.13074479 0.00051914588)
(-0.088717243 0.13160155 0.00055092961)
(-0.1016758 0.13044302 0.00058483953)
(-0.11455071 0.12738526 0.00062048955)
(-0.12723646 0.12249312 0.00065713931)
(-0.13963366 0.11579342 0.00069372902)
(-0.15164252 0.10728888 0.00072891345)
(-0.16315701 0.096971899 0.00076109992)
(-0.17405977 0.084837731 0.00078849589)
(-0.18421763 0.070897085 0.00080917103)
(-0.19347777 0.055188375 0.00082113851)
(-0.20166471 0.037789983 0.000822459)
(-0.20857841 0.018832875 0.00081137016)
(-0.21399413 -0.0014862872 0.00078644176)
(-0.21766445 -0.022891661 0.00074675411)
(-0.2193246 -0.045015032 0.00069208554)
(-0.21870194 -0.067384152 0.00062310306)
(-0.21553095 -0.089414507 0.00054152703)
(-0.20957471 -0.11040753 0.00045024403)
(-0.20065358 -0.12955895 0.00035333088)
(-0.1886808 -0.14598189 0.00025594911)
(-0.17370326 -0.15874899 0.00016407416)
(-0.15594313 -0.16695712 8.4042369e-05)
(-0.13583341 -0.1698146 2.1930881e-05)
(-0.11403768 -0.16674578 -1.7171575e-05)
(-0.091443307 -0.15750014 -2.9883778e-05)
(-0.069120481 -0.14224565 -1.50483e-05)
(-0.04824434 -0.1216226 2.6015453e-05)
(-0.029971805 -0.096736572 8.9091239e-05)
(-0.015296622 -0.069077569 0.00016776681)
(-0.0051401277 -0.040378988 0.00026259816)
(-0.00065685508 -0.012518069 0.00035459028)
(-0.00056338814 0.018564535 0.00030217517)
(-0.0035843181 0.049906098 0.00039522296)
(-0.009751959 0.075776049 0.00044263644)
(-0.018051163 0.09663083 0.00047840517)
(-0.027905938 0.11299474 0.00051030194)
(-0.038934099 0.12540357 0.00054034611)
(-0.050802754 0.1343622 0.00057033322)
(-0.063237896 0.14031586 0.00060185402)
(-0.076023794 0.14363374 0.00063591925)
(-0.088990875 0.1446028 0.00067300392)
(-0.10200451 0.14343009 0.00071312261)
(-0.11495519 0.14025091 0.00075587292)
(-0.12774955 0.13514102 0.00080046932)
(-0.14030233 0.12813082 0.00084577187)
(-0.15252914 0.11922005 0.00089031208)
(-0.16434008 0.10839231 0.00093232161)
(-0.17563382 0.095628831 0.00096977044)