/*--------------------------------*- C++ -*----------------------------------*\
  =========                 |
  \\      /  F ield         | OpenFOAM: The Open Source CFD Toolbox
   \\    /   O peration     | Website:  https://openfoam.org
    \\  /    A nd           | Version:  7
     \\/     M anipulation  |
\*---------------------------------------------------------------------------*/
FoamFile
{
    version     2.0;
    format      ascii;
    class       volScalarField;
    location    "67";
    object      p;
}
// * * * * * * * * * * * * * * * * * * * * * * * * * * * * * * * * * * * * * //

dimensions      [0 2 -2 0 0 0 0];

internalField   nonuniform List<scalar> 
8800
(
0.816283
0.768497
0.72981
0.700819
0.679961
0.665138
0.654555
0.647093
0.6423
0.640279
0.641588
0.645811
0.652481
0.661815
0.674608
0.692351
0.717134
0.751079
0.793632
0.852334
0.647526
0.655206
0.662685
0.665996
0.664497
0.659426
0.65295
0.646889
0.642189
0.639378
0.639139
0.641684
0.646204
0.652172
0.658956
0.665247
0.668895
0.668162
0.662748
0.654061
0.625922
0.632082
0.636212
0.639161
0.641216
0.64183
0.640737
0.638653
0.636667
0.6358
0.636806
0.639225
0.642052
0.644253
0.644875
0.643686
0.641352
0.637965
0.633408
0.629648
0.620098
0.622749
0.625504
0.627912
0.629554
0.630726
0.631482
0.631623
0.63136
0.631355
0.632157
0.633368
0.634238
0.634326
0.633733
0.632654
0.630846
0.628282
0.625883
0.624379
0.614699
0.616124
0.617907
0.619944
0.621736
0.623089
0.624095
0.624918
0.62557
0.626185
0.626892
0.627435
0.62757
0.627309
0.626631
0.625396
0.623711
0.621871
0.620568
0.619736
0.609599
0.610519
0.611764
0.613337
0.614978
0.616516
0.617821
0.618917
0.619924
0.620877
0.621631
0.622013
0.622012
0.621604
0.620746
0.619563
0.618249
0.616999
0.61618
0.615629
0.604663
0.605332
0.606299
0.607608
0.609027
0.6105
0.611961
0.613317
0.614564
0.61574
0.616637
0.617069
0.617034
0.616562
0.615784
0.614857
0.613861
0.612949
0.612368
0.611962
0.599843
0.600359
0.601147
0.602285
0.603573
0.604964
0.606435
0.607945
0.609429
0.610844
0.611939
0.612486
0.612519
0.612179
0.61161
0.610911
0.610158
0.609487
0.609058
0.60874
0.595067
0.595478
0.596137
0.597152
0.59837
0.599717
0.60119
0.602789
0.604474
0.606163
0.607512
0.60826
0.608494
0.608379
0.608037
0.607553
0.607008
0.606531
0.606214
0.605955
0.590247
0.590582
0.591153
0.59209
0.593261
0.594595
0.596108
0.597809
0.599689
0.601676
0.603355
0.604407
0.604927
0.605072
0.604966
0.60471
0.604362
0.604048
0.603815
0.603598
0.585295
0.585572
0.586083
0.586974
0.58813
0.589491
0.59108
0.592928
0.595044
0.597377
0.599471
0.600915
0.601777
0.60222
0.602373
0.602348
0.602198
0.602027
0.601862
0.601673
0.58012
0.580353
0.580824
0.581701
0.58288
0.584312
0.586022
0.58807
0.590488
0.593251
0.595852
0.597767
0.59903
0.599815
0.600259
0.600473
0.600525
0.600485
0.600376
0.600208
0.574628
0.574826
0.575278
0.57617
0.577414
0.578961
0.580847
0.583162
0.585965
0.589265
0.59248
0.594956
0.596689
0.597866
0.598636
0.599108
0.599377
0.599462
0.599401
0.599246
0.568717
0.568886
0.569336
0.570271
0.571622
0.573336
0.575464
0.578127
0.581417
0.585381
0.589341
0.592485
0.594773
0.596402
0.597545
0.598326
0.598812
0.599019
0.598998
0.598851
0.562265
0.56241
0.562873
0.563882
0.565386
0.567325
0.569774
0.57288
0.576782
0.581558
0.586419
0.590363
0.593308
0.59547
0.597039
0.598161
0.598895
0.599227
0.599244
0.5991
0.555133
0.555253
0.555743
0.556856
0.558565
0.5608
0.563658
0.567327
0.571988
0.577759
0.583706
0.588603
0.592326
0.595116
0.597189
0.598702
0.599714
0.600177
0.600227
0.600083
0.547128
0.547232
0.547766
0.549019
0.550991
0.5536
0.55698
0.561355
0.566955
0.573939
0.581194
0.587228
0.591868
0.595397
0.598075
0.600047
0.601368
0.601967
0.602049
0.601901
0.538033
0.538133
0.538722
0.540136
0.542439
0.545537
0.549578
0.554838
0.561599
0.570062
0.578885
0.586266
0.591988
0.596386
0.599779
0.602284
0.603959
0.604703
0.604813
0.604656
0.527524
0.527605
0.528284
0.529923
0.532662
0.536383
0.541258
0.547627
0.555828
0.56609
0.576787
0.585754
0.592748
0.598169
0.602375
0.605522
0.607588
0.608482
0.608616
0.608448
0.515222
0.515289
0.516068
0.518018
0.521316
0.525836
0.531778
0.539551
0.549543
0.561993
0.574917
0.58574
0.594207
0.600817
0.605977
0.609852
0.612347
0.61339
0.613542
0.613357
0.500565
0.50062
0.501543
0.50391
0.507948
0.513518
0.52085
0.530422
0.542653
0.557759
0.573308
0.586276
0.596427
0.604398
0.610658
0.615351
0.618298
0.619479
0.619637
0.619434
0.48278
0.482824
0.48396
0.486913
0.491964
0.498957
0.508138
0.520049
0.535092
0.553407
0.572017
0.587428
0.599478
0.60898
0.616448
0.622058
0.625453
0.626746
0.626896
0.626672
0.460694
0.460735
0.46222
0.466058
0.472569
0.481563
0.49328
0.508278
0.526861
0.549022
0.571142
0.589276
0.603415
0.614607
0.623393
0.62995
0.633752
0.635106
0.635228
0.634984
0.432542
0.432605
0.434683
0.439949
0.448734
0.460667
0.475961
0.495058
0.518063
0.54476
0.570826
0.591913
0.608287
0.621265
0.631462
0.638931
0.643034
0.644372
0.644445
0.644182
0.395267
0.395432
0.398731
0.406631
0.419249
0.435681
0.456073
0.480554
0.508967
0.540883
0.571258
0.595447
0.614136
0.628949
0.640559
0.648797
0.653019
0.654239
0.654241
0.653967
0.342998
0.343995
0.350558
0.363877
0.383161
0.406553
0.433979
0.465262
0.500043
0.537748
0.572651
0.599988
0.62098
0.637563
0.650473
0.659223
0.663311
0.664311
0.664236
0.663958
0.266734
0.274106
0.289293
0.312776
0.341986
0.374704
0.410725
0.449838
0.491675
0.535636
0.575365
0.606042
0.629489
0.64797
0.662078
0.671105
0.674902
0.67567
0.675546
0.675303
0.184805
0.202229
0.226834
0.261101
0.300639
0.34281
0.387475
0.434584
0.483838
0.534688
0.580077
0.614807
0.641165
0.661824
0.677231
0.686076
0.689181
0.689665
0.689571
0.689408
0.116501
0.137024
0.169402
0.212836
0.26148
0.312549
0.365597
0.420544
0.477064
0.534589
0.585344
0.623837
0.652821
0.675235
0.691149
0.699459
0.702069
0.702493
0.702457
0.70234
0.0605622
0.0827513
0.120677
0.170586
0.226426
0.284991
0.345456
0.407602
0.470957
0.534844
0.590693
0.632697
0.664054
0.687889
0.704337
0.712511
0.714915
0.715301
0.715303
0.715215
0.0140258
0.0373936
0.0791243
0.134172
0.195796
0.260554
0.327393
0.395943
0.46556
0.53541
0.596112
0.641474
0.675116
0.700464
0.717552
0.725712
0.728171
0.728532
0.728558
0.728494
-0.0253836
-0.00136388
0.043249
0.102357
0.168848
0.238878
0.311258
0.385509
0.460851
0.536291
0.601628
0.650251
0.686149
0.71296
0.730831
0.739423
0.741907
0.742269
0.742301
0.742252
-0.0597068
-0.0352714
0.0116065
0.0740718
0.144676
0.219297
0.296599
0.376013
0.456647
0.537346
0.607125
0.658916
0.697044
0.725359
0.74416
0.753156
0.755818
0.756195
0.756228
0.756202
-0.0904552
-0.065661
-0.0169396
0.0483885
0.122548
0.201203
0.28293
0.367063
0.452619
0.538317
0.612386
0.667277
0.707588
0.737393
0.757033
0.76655
0.769439
0.769851
0.769887
0.769872
-0.118613
-0.093502
-0.0432071
0.0245985
0.101882
0.184116
0.269828
0.358296
0.448481
0.538973
0.617219
0.675134
0.71756
0.748794
0.769304
0.779268
0.782397
0.782905
0.782943
0.782917
-0.144999
-0.119527
-0.0678153
0.00215294
0.082227
0.16766
0.256983
0.349458
0.444002
0.539109
0.621457
0.682347
0.726827
0.759424
0.780697
0.791089
0.794389
0.79493
0.794927
0.794904
-0.170002
-0.144171
-0.0911598
-0.0193114
0.0632603
0.151569
0.244173
0.340344
0.438995
0.538575
0.624994
0.688854
0.735344
0.769215
0.79111
0.801779
0.805212
0.805771
0.805739
0.8057
-0.19407
-0.16782
-0.113761
-0.0400368
0.0447547
0.135647
0.231233
0.330812
0.433335
0.537256
0.627754
0.694629
0.743111
0.778129
0.800519
0.811369
0.814832
0.815377
0.815313
0.815256
-0.21734
-0.190594
-0.13559
-0.060209
0.0265643
0.119775
0.218063
0.320779
0.426936
0.535067
0.629679
0.699678
0.750202
0.786307
0.809053
0.819893
0.823317
0.823836
0.823742
0.823666
-0.239965
-0.21279
-0.156748
-0.0799358
0.00861611
0.103898
0.204616
0.310193
0.41974
0.531935
0.630713
0.704018
0.75672
0.793903
0.816838
0.827518
0.830806
0.831265
0.831142
0.831053
-0.262077
-0.234398
-0.177373
-0.0992623
-0.00913245
0.0879961
0.190887
0.299051
0.411727
0.52781
0.6308
0.707649
0.762782
0.801096
0.824075
0.834392
0.837422
0.837784
0.837638
0.837532
-0.283739
-0.255449
-0.19753
-0.118203
-0.0266681
0.0720787
0.1769
0.287376
0.402904
0.522651
0.629872
0.710551
0.76848
0.808106
0.830986
0.840679
0.843265
0.843475
0.843303
0.843191
-0.304795
-0.27593
-0.217153
-0.136747
-0.0439743
0.0561975
0.162702
0.275224
0.39331
0.51646
0.627852
0.712664
0.773851
0.815154
0.837923
0.846642
0.848476
0.848434
0.848243
0.848138
-0.325239
-0.295822
-0.236239
-0.154855
-0.0610058
0.0403998
0.148369
0.262661
0.383008
0.509249
0.624677
0.713868
0.778854
0.822423
0.845358
0.852838
0.853388
0.852783
0.852563
0.852523
-0.345139
-0.315096
-0.254775
-0.172507
-0.0777079
0.0247592
0.133979
0.249778
0.372077
0.501065
0.620282
0.71401
0.78334
0.829926
0.85377
0.860214
0.858862
0.856932
0.856484
0.856774
-0.364338
-0.333741
-0.272711
-0.189654
-0.0940293
0.00935183
0.119619
0.236678
0.360622
0.491988
0.614637
0.712895
0.787042
0.837389
0.863304
0.86991
0.866955
0.862646
0.860589
0.860548
-0.382928
-0.35175
-0.290069
-0.20633
-0.110005
-0.00586548
0.105235
0.223308
0.34858
0.481949
0.607608
0.710246
0.789672
0.844366
0.873487
0.882409
0.880055
0.872939
0.865475
0.851914
-0.400843
-0.369111
-0.306964
-0.222734
-0.125913
-0.0212132
0.0904254
0.209205
0.335441
0.470346
0.598593
0.70534
0.790758
0.850291
0.882856
0.895896
0.894654
0.881187
0.860573
0.850111
-0.417917
-0.385977
-0.323211
-0.238676
-0.1414
-0.0363548
0.0754092
0.194682
0.321494
0.45741
0.587604
0.69763
0.789354
0.853941
0.887362
0.9004
0.900935
0.876036
0.808795
0.778808
-0.43349
-0.403618
-0.338504
-0.253681
-0.155667
-0.0507902
0.0605039
0.179966
0.306952
0.443252
0.574542
0.686739
0.783878
0.85451
0.881664
0.889642
0.875074
0.818943
0.749639
0.707167
-0.488189
-0.419164
-0.352326
-0.268878
-0.170373
-0.0660084
0.0456366
0.164767
0.29143
0.427389
0.55875
0.67191
0.770245
0.847768
0.849041
0.848225
0.793993
0.721043
0.643474
0.600334
-0.449853
-0.433937
-0.37295
-0.288401
-0.192143
-0.0878165
0.0227987
0.141302
0.267028
0.401686
0.531347
0.643251
0.734516
0.817741
0.800199
0.681576
0.573134
0.497745
0.423144
0.45219
-0.480131
-0.451108
-0.389242
-0.30554
-0.209325
-0.105119
0.00577375
0.123647
0.248322
0.381218
0.508161
0.615884
0.69736
0.741469
0.689671
0.535881
0.404962
0.311512
0.211732
0.260386
-0.503436
-0.471496
-0.408502
-0.324677
-0.228345
-0.124251
-0.0134443
0.103593
0.22687
0.357371
0.480586
0.582018
0.654392
0.663535
0.553036
0.376847
0.221589
0.100863
-0.0313521
0.000739079
-0.526192
-0.492765
-0.428647
-0.343922
-0.247522
-0.143593
-0.0333247
0.0827385
0.20441
0.33211
0.450587
0.543963
0.600626
0.577968
0.415585
0.216561
0.0243621
-0.144911
-0.334122
-0.353569
-0.548347
-0.514501
-0.449528
-0.36405
-0.267534
-0.163846
-0.0542494
0.0607059
0.180499
0.304974
0.417953
0.503089
0.539837
0.480108
0.284634
0.071824
-0.14689
-0.337102
-0.579474
-0.875651
-0.57079
-0.536956
-0.471475
-0.385541
-0.288866
-0.185372
-0.0763814
0.0374216
0.155213
0.276169
0.383283
0.459774
0.474713
0.363406
0.170561
-0.04146
-0.247209
-0.420491
-0.490785
-0.569307
-0.594466
-0.560587
-0.494832
-0.408704
-0.312006
-0.208805
-0.10052
0.0119478
0.127405
0.244287
0.345095
0.410247
0.399746
0.254665
0.0690334
-0.12392
-0.288375
-0.382353
-0.406713
-0.422541
-0.619677
-0.585689
-0.519768
-0.433613
-0.337084
-0.234354
-0.127022
-0.0162007
0.0964903
0.208627
0.302632
0.353176
0.324767
0.15359
-0.0230497
-0.190847
-0.318848
-0.358494
-0.371358
-0.372667
-0.646622
-0.612434
-0.546346
-0.460261
-0.364048
-0.262023
-0.155904
-0.0470735
0.0624041
0.169206
0.255465
0.291423
0.242603
0.0602314
-0.107344
-0.257601
-0.334715
-0.351879
-0.353283
-0.353106
-0.675358
-0.640883
-0.574591
-0.488649
-0.392914
-0.2918
-0.187172
-0.0806838
0.025158
0.126101
0.2037
0.22758
0.142287
-0.025066
-0.184233
-0.308143
-0.345175
-0.343554
-0.342683
-0.3421
-0.7056
-0.67086
-0.604402
-0.518689
-0.423596
-0.323632
-0.220793
-0.117004
-0.0152068
0.0794287
0.148263
0.154911
0.0510784
-0.104156
-0.245189
-0.322355
-0.332662
-0.335303
-0.335975
-0.335706
-0.736799
-0.701912
-0.63552
-0.550155
-0.455909
-0.357362
-0.256616
-0.155901
-0.0585007
0.029542
0.0896044
0.0810509
-0.0308506
-0.171106
-0.289578
-0.321826
-0.330269
-0.331695
-0.331461
-0.33117
-0.76849
-0.733496
-0.667492
-0.582654
-0.48951
-0.39267
-0.294363
-0.197084
-0.104438
-0.0228583
0.0268172
0.0110698
-0.106213
-0.225708
-0.319446
-0.33713
-0.32886
-0.328137
-0.328187
-0.327975
-0.799773
-0.764894
-0.699462
-0.615585
-0.523856
-0.429086
-0.333584
-0.240078
-0.152545
-0.0771066
-0.0372751
-0.0528541
-0.172409
-0.268497
-0.320701
-0.331494
-0.328952
-0.327604
-0.326987
-0.32675
-0.829104
-0.794931
-0.730451
-0.648032
-0.558187
-0.465913
-0.37363
-0.284206
-0.202013
-0.132624
-0.0963717
-0.122908
-0.225732
-0.310901
-0.311819
-0.328041
-0.330394
-0.327876
-0.326849
-0.326327
-0.854869
-0.821766
-0.759335
-0.678823
-0.59147
-0.502224
-0.413641
-0.328622
-0.251731
-0.188554
-0.152296
-0.1894
-0.268889
-0.338297
-0.360309
-0.344512
-0.336153
-0.332698
-0.331317
-0.330527
-0.874949
-0.843571
-0.784014
-0.706543
-0.622422
-0.536886
-0.452535
-0.372302
-0.300594
-0.243559
-0.209371
-0.241714
-0.294861
-0.362634
-0.400609
-0.36387
-0.346533
-0.343131
-0.341393
-0.340326
-0.887112
-0.858434
-0.802656
-0.729293
-0.64955
-0.568579
-0.489123
-0.414044
-0.34756
-0.296111
-0.264048
-0.283032
-0.291425
-0.318208
-0.319104
-0.335559
-0.34708
-0.3507
-0.350382
-0.35059
-0.888732
-0.864096
-0.813265
-0.745282
-0.671156
-0.595877
-0.522064
-0.452594
-0.391503
-0.345077
-0.309627
-0.321695
-0.295414
-0.24729
-0.282361
-0.324239
-0.342387
-0.348946
-0.352104
-0.353346
-0.877592
-0.857766
-0.813667
-0.752908
-0.685763
-0.617295
-0.549996
-0.486625
-0.431233
-0.389364
-0.350379
-0.371362
-0.387363
-0.350409
-0.37033
-0.379391
-0.378574
-0.377658
-0.377358
-0.37743
-0.851745
-0.836861
-0.802061
-0.750908
-0.692352
-0.631801
-0.571691
-0.514693
-0.465124
-0.428405
-0.389747
-0.424904
-0.512006
-0.674544
-0.608776
-0.489269
-0.427989
-0.405219
-0.396787
-0.394264
-0.813728
-0.804137
-0.779251
-0.739423
-0.690872
-0.639091
-0.586384
-0.535596
-0.491052
-0.459444
-0.434178
-0.434547
-0.453361
-0.537458
-0.508687
-0.403653
-0.352268
-0.336119
-0.33105
-0.328353
-0.77022
-0.764771
-0.750055
-0.721239
-0.683249
-0.639908
-0.594209
-0.548592
-0.507385
-0.476146
-0.44764
-0.365685
-0.188636
-0.00586299
-0.00614098
-0.101114
-0.190814
-0.234106
-0.244693
-0.245097
-0.730957
-0.727649
-0.720624
-0.701767
-0.672464
-0.636227
-0.59622
-0.554291
-0.5134
-0.478924
-0.453359
-0.360514
-0.2179
0.0100941
0.0815309
-0.0885503
-0.230646
-0.305626
-0.320053
-0.337628
-0.702617
-0.700529
-0.696916
-0.685437
-0.662461
-0.631246
-0.594673
-0.554206
-0.511282
-0.473077
-0.445787
-0.450847
-0.615626
-1.04284
-1.53087
-1.77868
-1.80189
-1.66083
-1.47401
-1.37836
-0.681288
-0.680509
-0.679325
-0.673595
-0.656099
-0.62772
-0.591862
-0.550055
-0.504022
-0.454111
-0.419001
-0.444169
-0.702126
-1.10129
-1.54025
-1.67786
-1.54981
-1.31849
-1.11843
-1.01891
-0.66891
-0.668663
-0.668135
-0.665517
-0.65295
-0.625897
-0.588595
-0.544209
-0.491708
-0.429275
-0.376988
-0.327961
-0.326878
-0.302874
-0.241566
-0.144978
0.0792004
0.264731
0.378808
0.429
-0.660108
-0.659997
-0.659567
-0.658603
-0.650638
-0.625585
-0.586886
-0.538179
-0.478996
-0.408776
-0.323726
-0.226193
-0.060973
0.260024
0.643673
1.04321
1.36097
1.53402
1.60455
1.62476
-0.654158
-0.653988
-0.653435
-0.652948
-0.648055
-0.627402
-0.587553
-0.534001
-0.469209
-0.385195
-0.280532
-0.17359
0.0649859
0.48505
0.95372
1.38891
1.71334
1.88441
1.94831
1.96087
-0.651925
-0.651641
-0.650756
-0.649003
-0.647749
-0.633104
-0.591885
-0.534233
-0.462992
-0.37228
-0.263662
-0.14758
0.0475109
0.447211
0.859459
1.23075
1.50152
1.64073
1.68677
1.69459
-0.65355
-0.654196
-0.655933
-0.658401
-0.660038
-0.64553
-0.600495
-0.539966
-0.464787
-0.371469
-0.263969
-0.15376
-0.00501271
0.313069
0.62671
0.895022
1.08227
1.17196
1.20186
1.20728
-0.655434
-0.656774
-0.6599
-0.666368
-0.670828
-0.652405
-0.609614
-0.551238
-0.474659
-0.379977
-0.279181
-0.178951
-0.0631394
0.161924
0.380394
0.547318
0.65552
0.707446
0.730067
0.737315
-0.676304
-0.676136
-0.666858
-0.640619
-0.615153
-0.61685
-0.614215
-0.569609
-0.490802
-0.394025
-0.300364
-0.21662
-0.12952
0.0368449
0.190197
0.297672
0.366629
0.403345
0.42363
0.431229
-0.727044
-0.723602
-0.706539
-0.666792
-0.632804
-0.639783
-0.653806
-0.600694
-0.510387
-0.409192
-0.323486
-0.253601
-0.187909
-0.060904
0.0602848
0.150227
0.211561
0.246224
0.263722
0.26893
-0.825656
-0.83212
-0.860742
-0.897481
-0.898804
-0.868537
-0.78671
-0.656449
-0.532281
-0.421653
-0.338062
-0.280818
-0.232229
-0.124661
-0.0221768
0.0569374
0.117382
0.153683
0.169199
0.171784
-0.971568
-0.997043
-1.05108
-1.0973
-1.10216
-1.05242
-0.896916
-0.705482
-0.54528
-0.424157
-0.342057
-0.292229
-0.251967
-0.161623
-0.0743232
-0.00773214
0.0433215
0.0729493
0.0843107
0.0856561
-1.00671
-1.02871
-1.06861
-1.10165
-1.10468
-1.0483
-0.884401
-0.688067
-0.527276
-0.407606
-0.329736
-0.283869
-0.243637
-0.176016
-0.108048
-0.054633
-0.0131296
0.0102787
0.0193854
0.0193112
-0.840661
-0.861624
-0.897767
-0.932805
-0.939895
-0.883857
-0.737822
-0.589401
-0.463463
-0.366828
-0.301073
-0.257681
-0.220456
-0.17232
-0.12467
-0.0851348
-0.0558741
-0.0383974
-0.032291
-0.0327287
-0.514085
-0.530569
-0.561545
-0.59668
-0.615966
-0.591
-0.521119
-0.441449
-0.369913
-0.308881
-0.26055
-0.224048
-0.195719
-0.166392
-0.134933
-0.107296
-0.0863675
-0.0746619
-0.0710527
-0.0723966
-0.175678
-0.184623
-0.204698
-0.236356
-0.269138
-0.288506
-0.295723
-0.287932
-0.269674
-0.243434
-0.216425
-0.191753
-0.174504
-0.158855
-0.140516
-0.124261
-0.111592
-0.105322
-0.104021
-0.105714
0.0454648
0.0408785
0.0269093
-0.00108731
-0.0440514
-0.0936736
-0.13525
-0.165624
-0.181524
-0.182971
-0.173849
-0.1618
-0.154593
-0.1516
-0.146134
-0.141247
-0.139173
-0.139798
-0.141
-0.142252
0.136031
0.133292
0.122911
0.0990649
0.0590012
0.00808121
-0.0436267
-0.0874067
-0.11825
-0.134732
-0.137273
-0.133767
-0.134322
-0.140088
-0.147139
-0.155329
-0.162635
-0.170024
-0.172996
-0.173561
0.14863
0.146753
0.139191
0.121128
0.089763
0.0482121
0.00233482
-0.0410302
-0.0768231
-0.100965
-0.110086
-0.109101
-0.109647
-0.125142
-0.143498
-0.159534
-0.173979
-0.183122
-0.186046
-0.186254
0.128656
0.127427
0.12224
0.109587
0.0871659
0.0562032
0.0193757
-0.0181764
-0.0526404
-0.08018
-0.0949302
-0.0972041
-0.0984403
-0.118678
-0.140315
-0.157644
-0.170922
-0.178156
-0.180131
-0.180421
0.100078
0.0992912
0.0958592
0.0873081
0.0717905
0.0494503
0.0212118
-0.009807
-0.0413804
-0.070921
-0.0939147
-0.107584
-0.11586
-0.131515
-0.145104
-0.155103
-0.162704
-0.165972
-0.166866
-0.1673
0.0724412
0.0720196
0.0698193
0.0641779
0.0536206
0.0377496
0.0165912
-0.00843813
-0.0367474
-0.0683671
-0.102456
-0.137619
-0.157831
-0.158957
-0.155927
-0.155508
-0.155845
-0.155917
-0.156017
-0.156422
0.0495172
0.0491963
0.047784
0.0441192
0.0370083
0.0258604
0.0102385
-0.00956902
-0.0341046
-0.0658869
-0.107642
-0.158381
-0.187709
-0.173843
-0.159343
-0.152043
-0.149483
-0.148534
-0.148107
-0.148211
0.0315214
0.0313562
0.0304863
0.0282145
0.0236155
0.0160166
0.00491096
-0.0100504
-0.029742
-0.0577031
-0.097748
-0.14749
-0.169276
-0.153185
-0.139832
-0.13573
-0.13553
-0.135691
-0.135281
-0.13511
0.0180631
0.0179825
0.0175051
0.0162353
0.0135366
0.00879372
0.00152079
-0.00871826
-0.022854
-0.0435068
-0.0722649
-0.103176
-0.110945
-0.104999
-0.101535
-0.104725
-0.108728
-0.110595
-0.110437
-0.110041
0.00837901
0.0083796
0.0082025
0.0076537
0.00632313
0.00390385
7.64222e-06
-0.00562119
-0.0135068
-0.0250249
-0.0394094
-0.0504005
-0.0489474
-0.0491955
-0.0532861
-0.0607472
-0.0668598
-0.0692643
-0.0692543
-0.068676
0.00118749
0.00124044
0.00120102
0.00126364
0.0013801
0.00122264
0.000704926
-0.000209972
-0.00149492
-0.00331107
-0.00539011
-0.00578999
-0.00682963
-0.00663639
-0.00978742
-0.0136671
-0.014668
-0.0145384
-0.0144558
-0.0141801
-0.108253
0.0576103
0.250925
0.419581
0.553879
0.659065
0.745721
0.819573
0.85343
0.830206
0.191248
0.31106
0.439838
0.550917
0.644288
0.721337
0.783689
0.828011
0.8502
0.86239
0.407908
0.489988
0.577968
0.655509
0.722106
0.777799
0.822114
0.854532
0.878039
0.896098
0.567278
0.626086
0.686964
0.743562
0.792699
0.834449
0.868778
0.896206
0.918868
0.937214
0.691703
0.734419
0.780028
0.823463
0.861859
0.895415
0.924166
0.948127
0.968432
0.986295
0.79539
0.828035
0.86591
0.901224
0.933663
0.962764
0.988212
1.00962
1.02742
1.04478
0.887545
0.916106
0.949918
0.981919
1.01175
1.03883
1.06251
1.08218
1.09765
1.11474
0.975898
1.00502
1.03893
1.07089
1.10043
1.12696
1.14978
1.16824
1.18159
1.19862
1.07107
1.10422
1.14081
1.17434
1.20435
1.2305
1.25242
1.26968
1.28153
1.29893
1.18598
1.22378
1.26239
1.2966
1.32592
1.35065
1.371
1.38688
1.39833
1.4164
1.33087
1.36939
1.40551
1.43618
1.46185
1.48393
1.50297
1.51849
1.53091
1.54891
1.50591
1.53753
1.5637
1.58613
1.6061
1.62481
1.64252
1.65899
1.67434
1.6924
1.69451
1.71171
1.72674
1.74296
1.75886
1.77339
1.78659
1.80051
1.81805
1.8382
1.87622
1.88575
1.89729
1.9081
1.91738
1.92696
1.93774
1.9491
1.96046
1.97582
2.08344
2.08711
2.07216
2.05735
2.05107
2.05674
2.07522
2.10553
2.13771
2.16436
2.38977
2.2549
2.17826
2.13587
2.11845
2.12241
2.14981
2.20622
2.30884
2.53321
0.70688
0.704752
0.700269
0.691648
0.679427
0.667305
0.657084
0.649202
0.643604
0.640376
0.640053
0.642821
0.647948
0.655188
0.664587
0.676134
0.68879
0.699828
0.705942
0.708998
0.631325
0.637172
0.643507
0.648003
0.650477
0.650159
0.647431
0.643635
0.640145
0.637912
0.637798
0.640027
0.643715
0.648021
0.65184
0.653732
0.652801
0.649324
0.644163
0.637543
0.622886
0.625182
0.628588
0.631587
0.633667
0.635171
0.635937
0.635635
0.634631
0.633778
0.633989
0.63545
0.637292
0.638616
0.63881
0.63793
0.636387
0.634056
0.630797
0.627878
0.617355
0.618441
0.620276
0.622658
0.624687
0.626123
0.627156
0.627925
0.628351
0.628606
0.629138
0.629983
0.63061
0.630698
0.630301
0.629464
0.628003
0.625925
0.623843
0.622462
0.612125
0.612787
0.613898
0.615607
0.617395
0.619036
0.620345
0.621381
0.622292
0.62312
0.623896
0.624491
0.624718
0.624576
0.624028
0.622987
0.621569
0.620033
0.618721
0.617942
0.607115
0.607575
0.608363
0.609666
0.611161
0.612689
0.614169
0.615489
0.616657
0.617757
0.618727
0.619346
0.61953
0.619286
0.618611
0.617638
0.616526
0.615403
0.614494
0.613978
0.602244
0.602588
0.603201
0.604275
0.605577
0.606964
0.60842
0.609891
0.611301
0.612632
0.613806
0.614557
0.614782
0.614543
0.613971
0.613215
0.612381
0.611526
0.610861
0.610484
0.597457
0.597724
0.598219
0.599134
0.600313
0.601624
0.603038
0.604556
0.606138
0.607717
0.60914
0.61008
0.610439
0.610363
0.610004
0.609471
0.608843
0.60822
0.607736
0.607449
0.592671
0.592883
0.593295
0.5941
0.5952
0.596465
0.597872
0.599441
0.601161
0.602985
0.604704
0.605918
0.606525
0.606698
0.606575
0.606268
0.605851
0.605422
0.60508
0.604855
0.587796
0.587967
0.58832
0.589053
0.590108
0.591354
0.592793
0.594449
0.596332
0.59842
0.600494
0.602077
0.603018
0.603487
0.603624
0.603552
0.603353
0.6031
0.602875
0.602696
0.582744
0.582882
0.583194
0.583882
0.584923
0.586195
0.587703
0.589491
0.591592
0.594001
0.59651
0.598551
0.599892
0.600705
0.601138
0.60132
0.601335
0.601255
0.60113
0.600986
0.577423
0.577534
0.577818
0.578488
0.579548
0.580891
0.582515
0.584488
0.586874
0.58969
0.592732
0.595325
0.59714
0.598351
0.59912
0.599578
0.599821
0.599913
0.599876
0.599759
0.571735
0.571822
0.572091
0.572766
0.573882
0.57534
0.577133
0.579361
0.582111
0.585439
0.589135
0.592391
0.594766
0.59644
0.597588
0.59837
0.598867
0.599124
0.599164
0.599068
0.565569
0.565636
0.565898
0.566602
0.567811
0.569431
0.571457
0.574018
0.577232
0.581198
0.585692
0.589744
0.592787
0.595005
0.59659
0.597736
0.598513
0.598949
0.599063
0.598984
0.558795
0.558841
0.559105
0.559859
0.561203
0.56304
0.565373
0.56836
0.572161
0.576914
0.582378
0.587386
0.59122
0.594083
0.596184
0.597737
0.598838
0.599469
0.599656
0.59959
0.551256
0.551283
0.55155
0.552378
0.553899
0.556019
0.558744
0.562273
0.566806
0.572527
0.579167
0.585322
0.590095
0.593716
0.596429
0.59847
0.599939
0.600778
0.601038
0.600982
0.542738
0.542751
0.543028
0.543956
0.545713
0.548178
0.551409
0.555622
0.561067
0.567976
0.576039
0.583563
0.589449
0.593961
0.597395
0.600023
0.60191
0.602978
0.603311
0.603261
0.532951
0.532936
0.533266
0.534337
0.536381
0.539306
0.543176
0.548247
0.554829
0.563197
0.572979
0.582129
0.589327
0.594891
0.59917
0.602481
0.604854
0.606172
0.606578
0.606531
0.521587
0.521547
0.521924
0.523189
0.525604
0.529119
0.533803
0.539962
0.547964
0.558129
0.56998
0.581051
0.589783
0.596575
0.601848
0.605941
0.608872
0.610457
0.610931
0.610883
0.508155
0.508087
0.508545
0.510063
0.512965
0.51725
0.522988
0.53054
0.540335
0.55271
0.567041
0.580366
0.590868
0.599074
0.605504
0.610501
0.614048
0.615906
0.616439
0.616384
0.491995
0.491899
0.492484
0.494357
0.497911
0.503225
0.51036
0.519732
0.531808
0.546908
0.56419
0.580128
0.592652
0.602461
0.610198
0.616216
0.620431
0.622554
0.623128
0.623057
0.472159
0.472037
0.472826
0.475216
0.479689
0.486432
0.495475
0.50727
0.522278
0.540735
0.561497
0.580413
0.595199
0.606795
0.615957
0.623118
0.628014
0.630365
0.630951
0.630859
0.447208
0.44707
0.448197
0.451391
0.457257
0.466093
0.477843
0.492935
0.511727
0.534283
0.559087
0.581325
0.59858
0.612111
0.622828
0.631176
0.636711
0.639215
0.639772
0.63965
0.414807
0.414692
0.416435
0.421024
0.429205
0.441308
0.457027
0.476645
0.500279
0.527757
0.557153
0.583
0.602864
0.618425
0.630756
0.640291
0.646326
0.648858
0.649338
0.649181
0.370758
0.37081
0.373912
0.381409
0.393886
0.411315
0.432918
0.458635
0.488295
0.521508
0.555956
0.585591
0.608126
0.625737
0.639661
0.650259
0.656535
0.658918
0.659272
0.659082
0.3072
0.308428
0.316014
0.33
0.350339
0.376243
0.406133
0.43962
0.476411
0.516011
0.555783
0.589244
0.614393
0.633964
0.649311
0.660645
0.666852
0.668847
0.669029
0.66882
0.231895
0.2337
0.248222
0.272246
0.303585
0.339498
0.378415
0.420162
0.464561
0.51115
0.557019
0.595114
0.623534
0.645489
0.662424
0.674407
0.680291
0.681957
0.682092
0.681968
0.154247
0.160519
0.181961
0.216303
0.258098
0.303725
0.351627
0.401677
0.453757
0.507425
0.559523
0.602352
0.63404
0.658394
0.677094
0.689166
0.69425
0.695408
0.695484
0.695433
0.0907124
0.0993247
0.125353
0.166757
0.216748
0.270651
0.326649
0.384465
0.44387
0.504348
0.562403
0.609661
0.64437
0.670734
0.69035
0.702396
0.707154
0.708224
0.708348
0.708358
0.0390483
0.0482599
0.0778568
0.124526
0.180698
0.24127
0.304116
0.368795
0.434894
0.501753
0.565455
0.616923
0.654441
0.682701
0.70339
0.715658
0.720186
0.721194
0.721375
0.721432
-0.00414925
0.00534268
0.0373966
0.0880777
0.149327
0.215437
0.284094
0.354777
0.426898
0.499654
0.568701
0.624209
0.664468
0.69462
0.716405
0.728947
0.733539
0.734746
0.734954
0.735047
-0.0412527
-0.0316575
0.00223258
0.0561255
0.121577
0.192414
0.266139
0.342147
0.419743
0.497982
0.572096
0.631499
0.674437
0.706441
0.729378
0.742583
0.747457
0.748759
0.748964
0.749064
-0.0739479
-0.0643291
-0.0290356
0.0275662
0.096541
0.171457
0.249677
0.330494
0.413125
0.49649
0.575437
0.638615
0.684181
0.718058
0.74222
0.756085
0.761355
0.762735
0.762933
0.763009
-0.103534
-0.0938901
-0.0574491
0.00149015
0.073487
0.151982
0.234206
0.319391
0.406676
0.494894
0.578499
0.645354
0.693482
0.729145
0.754451
0.769048
0.774704
0.776174
0.77635
0.776404
-0.130911
-0.121235
-0.0838061
-0.0228181
0.0518548
0.133521
0.21933
0.308498
0.400125
0.49296
0.581086
0.651543
0.702171
0.739559
0.765963
0.781178
0.787258
0.7888
0.788957
0.788985
-0.15666
-0.146932
-0.108585
-0.0458698
0.0312176
0.115719
0.204764
0.297581
0.393251
0.490486
0.583032
0.657063
0.710147
0.749195
0.77662
0.79233
0.798684
0.800276
0.800413
0.800407
-0.181278
-0.171427
-0.132195
-0.0679765
0.0112903
0.0983263
0.1903
0.28645
0.385891
0.487331
0.58423
0.661857
0.717395
0.758023
0.786338
0.802409
0.808906
0.810514
0.810632
0.810595
-0.20505
-0.194992
-0.155046
-0.089327
-0.00812453
0.0811725
0.17579
0.27499
0.377937
0.483397
0.584595
0.66588
0.723927
0.766098
0.795153
0.811452
0.817958
0.81954
0.819638
0.819574
-0.228089
-0.217841
-0.177195
-0.110071
-0.0271578
0.0641705
0.161159
0.263132
0.369323
0.478595
0.584049
0.669115
0.729794
0.773548
0.803233
0.819587
0.825979
0.827488
0.827546
0.827461
-0.250592
-0.24007
-0.198683
-0.130309
-0.0458691
0.0472678
0.146375
0.25085
0.360017
0.472886
0.58253
0.671532
0.735065
0.780518
0.810744
0.826975
0.833117
0.83449
0.834497
0.834392
-0.27251
-0.261733
-0.219656
-0.150098
-0.0642789
0.0304594
0.131451
0.238159
0.350024
0.466242
0.579978
0.673082
0.739791
0.787166
0.817911
0.83379
0.839498
0.840654
0.840595
0.840472
-0.29392
-0.28286
-0.24005
-0.169437
-0.0823827
0.0137626
0.116412
0.225102
0.33938
0.458665
0.576342
0.673697
0.743976
0.793647
0.824997
0.840289
0.845238
0.846036
0.8459
0.845773
-0.314674
-0.303399
-0.259863
-0.188288
-0.100146
-0.0027628
0.101314
0.211736
0.328143
0.450198
0.571584
0.67329
0.747562
0.800054
0.832343
0.846896
0.850665
0.850792
0.850516
0.850409
-0.334912
-0.323312
-0.279094
-0.206644
-0.117546
-0.0190861
0.0862382
0.198134
0.316389
0.440905
0.565698
0.671747
0.750413
0.806372
0.840248
0.854281
0.856459
0.855256
0.854559
0.854504
-0.354479
-0.342582
-0.297723
-0.22447
-0.13451
-0.0351289
0.0712598
0.184407
0.304219
0.43084
0.558707
0.668948
0.75233
0.812415
0.848781
0.863197
0.863982
0.860638
0.858449
0.857765
-0.37344
-0.361258
-0.3157
-0.241722
-0.151009
-0.0508272
0.0564571
0.170631
0.291739
0.420132
0.550666
0.664771
0.753056
0.817808
0.85752
0.873875
0.874883
0.869793
0.863515
0.85563
-0.391717
-0.379298
-0.33312
-0.258554
-0.167249
-0.066445
0.0415084
0.156423
0.278522
0.408307
0.54108
0.658709
0.75216
0.822309
0.865957
0.885873
0.889736
0.88422
0.873212
0.868673
-0.409265
-0.396628
-0.349971
-0.274942
-0.183241
-0.0819784
0.0264222
0.141761
0.264517
0.395238
0.529733
0.650343
0.748814
0.825122
0.872175
0.8952
0.901201
0.898449
0.860295
0.808676
-0.425806
-0.412468
-0.366102
-0.290817
-0.199088
-0.0975914
0.0111385
0.126754
0.249771
0.380966