/*--------------------------------*- C++ -*----------------------------------*\
  =========                 |
  \\      /  F ield         | OpenFOAM: The Open Source CFD Toolbox
   \\    /   O peration     | Website:  https://openfoam.org
    \\  /    A nd           | Version:  7
     \\/     M anipulation  |
\*---------------------------------------------------------------------------*/
FoamFile
{
    version     2.0;
    format      ascii;
    class       volScalarField;
    location    "6";
    object      p;
}
// * * * * * * * * * * * * * * * * * * * * * * * * * * * * * * * * * * * * * //

dimensions      [1 -1 -2 0 0 0 0];

internalField   nonuniform List<scalar> 
19968
(
1
1
1
1
1
1
1
1
1
1
1
1
1
1
1
1
1
1
1
1
1
1
1
1
1
1
1
1
1
1
1
1
1
1
1
1
1
1
1
1
1
1
1
1
1
1
1
1
1.56706
8.05857
10.4161
10.4527
10.5165
10.5728
10.6305
10.6876
10.7449
10.8009
10.8541
10.9046
10.9539
11.0047
11.0578
11.1109
11.1633
11.2154
11.2661
11.3133
11.3563
11.3955
11.4322
11.4683
11.5053
11.544
11.5835
11.6219
11.6575
11.6898
11.7196
11.7485
11.7776
11.8075
11.8377
11.8674
11.8954
11.9207
11.9429
11.9622
11.9791
11.994
12.007
12.0174
12.0246
12.0283
12.03
12.0308
1
1
1
1
1
1
1
1
1
1
1
1
1
1
1
1
1
1
1
1
1
1
1
1
1
1
1
1
1
1
1
1
1
1
1
1
1
1
1
1
1
1
1
1
1
1
1
1
1.53284
7.9841
10.4032
10.4527
10.5173
10.5743
10.6316
10.6882
10.7449
10.8005
10.8534
10.9037
10.9529
11.0031
11.0557
11.1085
11.161
11.213
11.2632
11.31
11.3525
11.3913
11.4278
11.4638
11.5009
11.5397
11.5795
11.6182
11.6542
11.687
11.7171
11.7459
11.7746
11.8036
11.8329
11.8617
11.8892
11.9143
11.9366
11.9561
11.9731
11.988
12.0006
12.0107
12.0177
12.0213
12.023
12.0238
1
1
1
1
1
1
1
1
1
1
1
1
1
1
1
1
1
1
1
1
1
1
1
1
1
1
1
1
1
1
1
1
1
1
1
1
1
1
1
1
1
1
1
1
1
1
1
1
1.45681
7.82475
10.3991
10.4429
10.5115
10.5694
10.627
10.6837
10.7401
10.7955
10.8483
10.8986
10.9481
10.9979
11.0501
11.1023
11.1548
11.2065
11.2565
11.3027
11.3447
11.3832
11.4194
11.4552
11.4923
11.5313
11.5713
11.6105
11.6472
11.6806
11.7112
11.7402
11.7685
11.7966
11.8247
11.8523
11.8789
11.9037
11.9262
11.9461
11.9635
11.9785
11.991
12.0007
12.0073
12.0109
12.0125
12.0135
1
1
1
1
1
1
1
1
1
1
1
1
1
1
1
1
1
1
1
1
1
1
1
1
1
1
1
1
1
1
1
1
1
1
1
1
1
1
1
1
1
1
1
1
1
1
1
1
1.35062
7.57005
10.3902
10.4371
10.5054
10.5638
10.6213
10.6777
10.7334
10.7881
10.8403
10.8906
10.9405
10.9902
11.042
11.0934
11.1456
11.1968
11.2463
11.292
11.3336
11.3716
11.4075
11.4432
11.4802
11.5193
11.5597
11.5996
11.637
11.6711
11.7021
11.731
11.7585
11.7852
11.8115
11.8374
11.8625
11.8866
11.9089
11.9291
11.9468
11.9619
11.9742
11.9838
11.9904
11.9944
11.9965
11.9981
1
1
1
1
1
1
1
1
1
1
1
1
1
1
1
1
1
1
1
1
1
1
1
1
1
1
1
1
1
1
1
1
1
1
1
1
1
1
1
1
1
1
1
1
1
1
1
1
1.22013
7.23853
10.3894
10.4335
10.4978
10.5555
10.6123
10.6684
10.7237
10.7781
10.8306
10.8816
10.9321
10.9817
11.0324
11.0822
11.1334
11.1836
11.2326
11.2781
11.3195
11.3573
11.393
11.4286
11.4656
11.5048
11.5456
11.586
11.6241
11.6588
11.6903
11.7191
11.7461
11.7718
11.7967
11.821
11.8448
11.8678
11.8896
11.9092
11.9263
11.9403
11.9514
11.9597
11.9655
11.9692
11.9713
11.9732
1
1
1
1
1
1
1
1
1
1
1
1
1
1
1
1
1
1
1
1
1
1
1
1
1
1
1
1
1
1
1
1
1
1
1
1
1
1
1
1
1
1
1
1
1
1
1
1
1.00961
6.69717
10.391
10.4381
10.4944
10.5522
10.6073
10.6618
10.7153
10.7687
10.8216
10.8737
10.925
10.9742
11.023
11.0702
11.119
11.1675
11.2155
11.2601
11.3008
11.3379
11.3729
11.4078
11.4441
11.4826
11.5228
11.563
11.6009
11.6355
11.6666
11.695
11.7213
11.7461
11.7699
11.7932
11.8162
11.8387
11.8602
11.88
11.8971
11.911
11.9219
11.93
11.9359
11.9401
11.9427
11.9451
1
1
1
1
1
1
1
1
1
1
1
1
1
1
1
1
1
1
1
1
1
1
1
1
1
1
1
1
1
1
1
1
1
1
1
1
1
1
1
1
1
1
1
1
1
1
1
1
1.00005
5.96458
10.3105
10.3912
10.4431
10.5042
10.5613
10.6172
10.6724
10.7275
10.7819
10.8359
10.8887
10.9391
10.9878
11.0342
11.082
11.1295
11.1769
11.2215
11.2625
11.3002
11.3357
11.3709
11.4072
11.4456
11.4858
11.5259
11.5637
11.598
11.6287
11.6566
11.6826
11.7073
11.7311
11.7542
11.777
11.7992
11.8204
11.8397
11.8564
11.8699
11.8804
11.8883
11.8941
11.8987
11.9017
11.9045
1
1
1
1
1
1
1
1
1
1
1
1
1
1
1
1
1
1
1
1
1
1
1
1
1
1
1
1
1
1
1
1
1
1
1
1
1
1
1
1
1
1
1
1
1
1
1
1
1
5.04185
10.1767
10.3558
10.4112
10.4741
10.5313
10.5871
10.6425
10.698
10.7524
10.8065
10.8594
10.9102
10.9584
11.0036
11.0497
11.0954
11.1412
11.1849
11.2256
11.2633
11.2988
11.3336
11.3694
11.4069
11.4462
11.4855
11.5226
11.556
11.5856
11.6126
11.6378
11.6621
11.6858
11.7088
11.7313
11.7529
11.7733
11.7917
11.8074
11.8201
11.83
11.8374
11.8429
11.8474
11.8504
11.8532
1
1
1
1
1
1
1
1
1
1
1
1
1
1
1
1
1
1
1
1
1
1
1
1
1
1
1
1
1
1
1
1
1
1
1
1
1
1
1
1
1
1
1
1
1
1
1
1
1
3.98325
9.89941
10.3143
10.3729
10.4398
10.4972
10.553
10.6081
10.6635
10.7165
10.7693
10.822
10.8733
10.9214
10.9659
11.0102
11.0536
11.0965
11.1383
11.1777
11.2146
11.2495
11.2835
11.3181
11.3539
11.3915
11.4293
11.4653
11.4976
11.5262
11.552
11.5764
11.6
11.6233
11.6462
11.6683
11.6893
11.7089
11.7267
11.742
11.7545
11.7643
11.7715
11.7767
11.7809
11.7834
11.786
1
1
1
1
1
1
1
1
1
1
1
1
1
1
1
1
1
1
1
1
1
1
1
1
1
1
1
1
1
1
1
1
1
1
1
1
1
1
1
1
1
1
1
1
1
1
1
1
1
2.88032
9.34637
10.2921
10.3506
10.4203
10.4788
10.5343
10.5871
10.6389
10.6873
10.7355
10.7853
10.8355
10.8833
10.927
10.9696
11.0103
11.0496
11.0889
11.1269
11.1626
11.1963
11.2286
11.2606
11.2929
11.3268
11.3615
11.395
11.4255
11.4524
11.4767
11.4997
11.5225
11.5452
11.5677
11.5893
11.6097
11.6286
11.6455
11.6602
11.6719
11.6807
11.6867
11.6904
11.693
11.6941
11.6955
1
1
1
1
1
1
1
1
1
1
1
1
1
1
1
1
1
1
1
1
1
1
1
1
1
1
1
1
1
1
1
1
1
1
1
1
1
1
1
1
1
1
1
1
1
1
1
1
1
1.84394
8.38647
10.315
10.3194
10.3908
10.4411
10.4961
10.5481
10.5999
10.6483
10.6942
10.7412
10.7895
10.8367
10.8804
10.9222
10.9612
10.9976
11.0341
11.071
11.1062
11.1396
11.1703
11.1996
11.2284
11.2582
11.289
11.3193
11.347
11.3712
11.3924
11.412
11.4311
11.4501
11.4687
11.4866
11.5035
11.5196
11.5349
11.5491
11.5611
11.5702
11.5762
11.5794
11.5809
11.5807
11.5812
1
1
1
1
1
1
1
1
1
1
1
1
1
1
1
1
1
1
1
1
1
1
1
1
1
1
1
1
1
1
1
1
1
1
1
1
1
1
1
1
1
1
1
1
1
1
1
1
1
1.03313
6.69823
10.3354
10.3527
10.3928
10.4351
10.4841
10.532
10.579
10.6216
10.6602
10.7
10.7423
10.7854
10.8263
10.8647
10.8999
10.9316
10.9631
10.9968
11.0299
11.0614
11.0902
11.1165
11.1415
11.1667
11.1931
11.2198
11.2449
11.2671
11.2863
11.3036
11.32
11.336
11.3516
11.3664
11.3805
11.394
11.4068
11.4181
11.4265
11.4311
11.4314
11.4281
11.4244
11.4207
11.4184
1
1
1
1
1
1
1
1
1
1
1
1
1
1
1
1
1
1
1
1
1
1
1
1
1
1
1
1
1
1
1
1
1
1
1
1
1
1
1
1
1
1
1
1
1
1
1
1
1
1.00006
4.59246
9.90196
10.207
10.2676
10.3284
10.3838
10.4357
10.4842
10.5278
10.5661
10.6035
10.6428
10.6839
10.7242
10.7618
10.7959
10.8265
10.8559
10.8872
10.9196
10.9507
10.9797
11.0054
11.0284
11.0499
11.0716
11.0938
11.1154
11.1348
11.1514
11.1654
11.1771
11.1871
11.1957
11.2028
11.2089
11.2141
11.2185
11.2221
11.2245
11.2259
11.2256
11.2228
11.2203
11.2168
11.2143
1
1
1
1
1
1
1
1
1
1
1
1
1
1
1
1
1
1
1
1
1
1
1
1
1
1
1
1
1
1
1
1
1
1
1
1
1
1
1
1
1
1
1
1
1
1
1
1
1
1
2.38126
8.75904
10.1634
10.2069
10.2771
10.3314
10.3824
10.4294
10.4717
10.5083
10.5416
10.5751
10.6108
10.6478
10.6832
10.7149
10.7427
10.768
10.7935
10.821
10.8481
10.8738
10.8967
10.9157
10.9314
10.9454
10.9593
10.9734
10.9866
10.9975
11.0052
11.0093
11.0108
11.0104
11.0095
11.0093
11.0088
11.0073
11.0038
10.9972
10.9864
10.9715
10.9498
10.9236
10.8957
10.8708
1
1
1
1
1
1
1
1
1
1
1
1
1
1
1
1
1
1
1
1
1
1
1
1
1
1
1
1
1
1
1
1
1
1
1
1
1
1
1
1
1
1
1
1
1
1
1
1
1
1
1.05822
6.34043
10.21
10.2245
10.2542
10.2906
10.3302
10.3683
10.4018
10.4304
10.4558
10.4814
10.51
10.5418
10.5739
10.6031
10.6279
10.6496
10.67
10.6913
10.713
10.7332
10.7519
10.7673
10.7785
10.7855
10.7904
10.7955
10.8007
10.8043
10.804
10.7981
10.7868
10.7716
10.7554
10.7393
10.7208
10.6962
10.6617
10.6172
10.566
10.5138
10.4702
10.4325
10.4138
10.4033
1
1
1
1
1
1
1
1
1
1
1
1
1
1
1
1
1
1
1
1
1
1
1
1
1
1
1
1
1
1
1
1
1
1
1
1
1
1
1
1
1
1
1
1
1
1
1
1
1
1
1.00008
3.23248
9.22713
10.0815
10.1181
10.1605
10.2
10.2408
10.2791
10.3126
10.3407
10.3655
10.3906
10.4187
10.449
10.4784
10.504
10.5247
10.5412
10.5544
10.5661
10.5766
10.5868
10.5974
10.6049
10.6054
10.6016
10.596
10.5898
10.5822
10.5701
10.5504
10.5217
10.4855
10.4459
10.4057
10.3634
10.3142
10.2536
10.1822
10.1044
10.027
9.94118
9.8623
9.75145
9.8421
1
1
1
1
1
1
1
1
1
1
1
1
1
1
1
1
1
1
1
1
1
1
1
1
1
1
1
1
1
1
1
1
1
1
1
1
1
1
1
1
1
1
1
1
1
1
1
1
1
1
1
1.19339
7.22865
10.1357
10.1025
10.1201
10.1426
10.1715
10.2013
10.2281
10.2509
10.2706
10.2901
10.3118
10.3367
10.3631
10.3873
10.4061
10.4189
10.4262
10.4288
10.4299
10.4306
10.4334
10.4351
10.4305
10.419
10.4032
10.385
10.3648
10.3401
10.3069
10.2619
10.2049
10.1393
10.0691
9.99264
9.90349
9.78937
9.64251
9.44593
9.18962
8.81581
8.26771
7.35057
5.4684
1
1
1
1
1
1
1
1
1
1
1
1
1
1
1
1
1
1
1
1
1
1
1
1
1
1
1
1
1
1
1
1
1
1
1
1
1
1
1
1
1
1
1
1
1
1
1
1
1
1
1
1.00117
4.56772
9.69442
9.94575
9.99275
10.0264
10.0622
10.0953
10.1258
10.1533
10.1766
10.1947
10.2086
10.2221
10.2396
10.2613
10.2836
10.3008
10.3085
10.3064
10.2987
10.2902
10.2843
10.2798
10.2705
10.2539
10.2308
10.2028
10.1712
10.1344
10.0889
10.0302
9.95631
9.86785
9.76898
9.65634
9.52637
9.35957
9.14924
8.86277
8.50049
7.98815
7.33495
6.1306
4.50718
1
1
1
1
1
1
1
1
1
1
1
1
1
1
1
1
1
1
1
1
1
1
1
1
1
1
1
1
1
1
1
1
1
1
1
1
1
1
1
1
1
1
1
1
1
1
1
1
1
1
1
0.999997
1.94223
8.25551
9.88711
9.91327
9.94933
9.98132
10.0132
10.0436
10.0732
10.0995
10.1188
10.1276
10.1316
10.1384
10.1527
10.172
10.1883
10.1931
10.1861
10.1712
10.1545
10.1397
10.1261
10.1092
10.0857
10.0549
10.0175
9.97443
9.92447
9.86504
9.79102
9.70066
9.59099
9.46615
9.32061
9.15374
8.94673
8.68998
8.359
7.9332
7.40121
6.64101
5.62128
4.56421
1
1
1
1
1
1
1
1
1
1
1
1
1
1
1
1
1
1
1
1
1
1
1
1
1
1
1
1
1
1
1
1
1
1
1
1
1
1
1
1
1
1
1
1
1
1
1
1
1
1
1
0.999999
1.03208
5.4226
9.72008
9.8361
9.86788
9.89736
9.92609
9.95319
9.97912
10.0046
10.0248
10.0357
10.0375
10.0378
10.0439
10.0553
10.0653
10.066
10.0555
10.0371
10.0156
9.99318
9.96933
9.94243
9.9101
9.8713
9.82532
9.77282
9.71141
9.6393
9.55097
9.44586
9.31929
9.1743
9.00557
8.81105
8.57923
8.297
7.94959
7.51529
6.98094
6.30854
5.53211
4.71641
1
1
1
1
1
1
1
1
1
1
1
1
1
1
1
1
1
1
1
1
1
1
1
1
1
1
1
1
1
1
1
1
1
1
1
1
1
1
1
1
1
1
1
1
1
1
1
1
1
1
1
1
1
2.22762
8.45408
9.77585
9.7954
9.83122
9.85466
9.87634
9.89385
9.91258
9.9254
9.9386
9.94519
9.94528
9.94615
9.94929
9.94957
9.94209
9.92523
9.90341
9.87891
9.85103
9.81917
9.78264
9.73966
9.69075
9.63464
9.57252
9.50121
9.41881
9.31957
9.20261
9.06385
8.90462
8.72207
8.51204
8.26824
7.9791
7.64282
7.22399
6.73611
6.17831
5.5615
4.9247
1
1
1
1
1
1
1
1
1
1
1
1
1
1
1
1
1
1
1
1
1
1
1
1
1
1
1
1
1
1
1
1
1
1
1
1
1
1
1
1
1
1
1
1
1
1
1
1
1
1
1
1
0.999999
1.04897
5.46897
9.60662
9.73426
9.76837
9.79632
9.81615
9.82645
9.83518
9.8421
9.85023
9.85487
9.8492
9.84319
9.83796
9.83084
9.81822
9.79782
9.77354
9.74565
9.71325
9.67482
9.6302
9.57759
9.51799
9.45062
9.37759
9.29664
9.20558
9.09857
8.97332
8.82689
8.66016
8.47209
8.25795
8.01429
7.72958
7.41725
7.02674
6.60672
6.13816
5.62943
5.11778
1
1
1
1
1
1
1
1
1
1
1
1
1
1
1
1
1
1
1
1
1
1
1
1
1
1
1
1
1
1
1
1
1
1
1
1
1
1
1
1
1
1
1
1
1
1
1
1
1
1
1
1
1
1.00005
2.03871
8.1973
9.71268
9.70187
9.72325
9.73018
9.73618
9.74422
9.75
9.75661
9.76045
9.75138
9.73796
9.72305
9.70769
9.68963
9.66684
9.64086
9.60903
9.57304
9.53057
9.48183
9.42425
9.35685
9.27927
9.19428
9.10314
9.0048
8.89261
8.76312
8.61374
8.4453
8.25753
8.04626
7.81151
7.53571
7.24707
6.89673
6.53348
6.13847
5.70632
5.27325
1
1
1
1
1
1
1
1
1
1
1
1
1
1
1
1
1
1
1
1
1
1
1
1
1
1
1
1
1
1
1
1
1
1
1
1
1
1
1
1
1
1
1
1
1
1
1
1
1
1
1
1
1
1
1.03356
4.88639
9.36234
9.61042
9.61156
9.63514
9.65261
9.65998
9.66432
9.66886
9.67162
9.66224
9.64389
9.61998
9.59704
9.57252
9.54639
9.51796
9.48144
9.44031
9.39196
9.33858
9.27768
9.20627
9.12245
9.02801
8.92737
8.82136
8.70372
8.5711
8.42125
8.25457
8.07176
7.86822
7.64537
7.38771
7.12041
6.80827
6.49131
6.14849
5.78042
5.40291
1
1
1
1
1
1
1
1
1
1
1
1
1
1
1
1
1
1
1
1
1
1
1
1
1
1
1
1
1
1
1
1
1
1
1
1
1
1
1
1
1
1
1
1
1
1
1
1
1
1
1
1
1
1
1.00002
1.4972
7.51291
9.6631
9.58364
9.586
9.57645
9.57179
9.56613
9.56304
9.56171
9.55407
9.53599
9.50857
9.48025
9.45075
9.4195
9.38743
9.34847
9.30467
9.25136
9.19409
9.13167
9.06017
8.97525
8.87753
8.77095
8.65787
8.53534
8.40078
8.25241
8.08939
7.91387
7.71909
7.50895
7.27364
7.02583
6.74544
6.46404
6.15587
5.83989
5.50932
1
1
1
1
1
1
1
1
1
1
1
1
1
1
1
1
1
1
1
1
1
1
1
1
1
1
1
1
1
1
1
1
1
1
1
1
1
1
1
1
1
1
1
1
1
1
1
1
1
1
1
1
1
1
1
1.00746
3.84153
8.96078
9.38598
9.42766
9.46596
9.46539
9.45671
9.44881
9.44295
9.43528
9.42044
9.3964
9.36898
9.3372
9.30005
9.26118
9.22001
9.17468
9.11814
9.05707
8.9914
8.91859
8.83415
8.73857
8.63057
8.5125
8.38644
8.24965
8.10279
7.944
7.77719
7.59216
7.39554
7.18251
6.9542
6.70183
6.44833
6.1656
5.8909
5.60107
1
1
1
1
1
1
1
1
1
1
1
1
1
1
1
1
1
1
1
1
1
1
1
1
1
1
1
1
1
1
1
1
1
1
1
1
1
1
1
1
1
1
1
1
1
1
1
1
1
1
1
1
1
1
1
1
1.21622
6.14839
9.41283
9.38042
9.38605
9.37831
9.36964
9.35844
9.34832
9.33721
9.3234
9.30253
9.27512
9.24032
9.19617
9.1488
9.10218
9.0533
8.99364
8.92919
8.85862
8.78341
8.69982
8.60859
8.50252
8.3842
8.25795
8.1204
7.97574
7.82147
7.66301
7.48691
7.30315
7.10799
6.89861
6.66896
6.43595
6.1812
5.93375
5.67777
1
1
1
1
1
1
1
1
1
1
1
1
1
1
1
1
1
1
1
1
1
1
1
1
1
1
1
1
1
1
1
1
1
1
1
1
1
1
1
1
1
1
1
1
1
1
1
1
1
1
1
1
1
1
1
1
1.00144
2.12881
7.98703
9.32761
9.26205
9.2723
9.27086
9.26056
9.24863
9.23299
9.2163
9.19555
9.16741
9.13515
9.09011
9.03876
8.98707
8.93427
8.87331
8.80721
8.73291
8.65666
8.57237
8.48024
8.37894
8.26454
8.14174
8.00752
7.86609
7.71712
7.56577
7.39756
7.22624
7.04525
6.85316
6.64106
6.42819
6.20249
5.97295
5.74295
1
1
1
1
1
1
1
1
1
1
1
1
1
1
1
1
1
1
1
1
1
1
1
1
1
1
1
1
1
1
1
1
1
1
1
1
1
1
1
1
1
1
1
1
1
1
1
1
1
1
1
1
1
1
1
1
1
1.03655
4.13546
8.88923
9.15734
9.17912
9.19055
9.18163
9.16658
9.14478
9.12115
9.09458
9.06187
9.02861
8.9856
8.93343
8.87969
8.82427
8.7625
8.6948
8.61806
8.54131
8.45722
8.36358
8.26441
8.15552
8.03615
7.90818
7.77293
7.63007
7.48525
7.32619
7.16438
6.99271
6.81436
6.61768
6.42308
6.21905
6.00603
5.79831
1
1
1
1
1
1
1
1
1
1
1
1
1
1
1
1
1
1
1
1
1
1
1
1
1
1
1
1
1
1
1
1
1
1
1
1
1
1
1
1
1
1
1
1
1
1
1
1
1
1
1
1
1
1
1
1
1
1.00007
1.25195
5.70678
9.02694
9.15787
9.13196
9.12507
9.10442
9.07398
9.04202
9.00784
8.97035
8.93321
8.88974
8.83679
8.7815
8.72461
8.66116
8.59031
8.51188
8.43377
8.3524
8.25939
8.16184
8.05643
7.94209
7.81633
7.68828
7.55253
7.41451
7.26645
7.1116
6.94704
6.77973
6.59737
6.41935
6.2303
6.03694
5.84556
1
1
1
1
1
1
1
1
1
1
1
1
1
1
1
1
1
1
1
1
1
1
1
1
1
1
1
1
1
1
1
1
1
1
1
1
1
1
1
1
1
1
1
1
1
1
1
1
1
1
1
1
1
1
1
1
1
1
1.00201
1.6171
7.2473
9.16665
9.10121
9.06794
9.02439
8.98327
8.94551
8.90914
8.87091
8.83371
8.78935
8.73791
8.68252
8.62656
8.56593
8.49425
8.41619
8.33711
8.25847
8.16751
8.07112
7.96861
7.85907
7.73835
7.61388
7.48665
7.35424
7.21465
7.06795
6.91119
6.752
6.58361
6.41756
6.24172
6.06493
5.88653
1
1
1
1
1
1
1
1
1
1
1
1
1
1
1
1
1
1
1
1
1
1
1
1
1
1
1
1
1
1
1
1
1
1
1
1
1
1
1
1
1
1
1
1
1
1
1
1
1
1
1
1
1
1
1
1
1
1
1
1.011
3.00386
8.30035
8.96349
8.89979
8.87124
8.84621
8.82436
8.79738
8.76674
8.73294
8.68978
8.64162
8.58996
8.53355
8.47459
8.40637
8.32962
8.2516
8.17371
8.0859
7.99157
7.89158
7.78495
7.67024
7.54882
7.42665
7.29848
7.1656
7.02747
6.87986
6.72905
6.57468
6.41653
6.25432
6.08913
5.92266
1
1
1
1
1
1
1
1
1
1
1
1
1
1
1
1
1
1
1
1
1
1
1
1
1
1
1
1
1
1
1
1
1
1
1
1
1
1
1
1
1
1
1
1
1
1
1
1
1
1
1
1
1
1
1
1
1
1
1
1.00002
1.10456
4.34205
8.60208
8.79328
8.76818
8.76761
8.75784
8.73742
8.70842
8.67019
8.62304
8.57094
8.51705
8.45952
8.396
8.33188
8.25662
8.17781
8.0995
8.01185
7.91954
7.82147
7.71726
7.60791
7.49193
7.3735
7.25044
7.12417
6.99411
6.85544
6.71344
6.56913
6.41756
6.26714
6.11045
5.95385
1
1
1
1
1
1
1
1
1
1
1
1
1
1
1
1
1
1
1
1
1
1
1
1
1
1
1
1
1
1
1
1
1
1
1
1
1
1
1
1
1
1
1
1
1
1
1
1
1
1
1
1
1
1
1
1
1
1
1
1
1.00048
1.28897
5.17909
8.58239
8.71297
8.71201
8.70345
8.68041
8.64935
8.60893
8.56143
8.50845
8.45236
8.39287
8.3266
8.25836
8.18715
8.10903
8.02946
7.94306
7.85163
7.75524
7.6541
7.54937
7.43946
7.32498
7.20663
7.08698
6.96457
6.83384
6.70014
6.56238
6.41826
6.27746
6.12922
5.98062
1
1
1
1
1
1
1
1
1
1
1
1
1
1
1
1
1
1
1
1
1
1
1
1
1
1
1
1
1
1
1
1
1
1
1
1
1
1
1
1
1
1
1
1
1
1
1
1
1
1
1
1
1
1
1
1
1
1
1
1
1
1.00273
1.48659
5.84401
8.57774
8.68723
8.65604
8.62609
8.59018
8.54724
8.50014
8.44937
8.3937
8.33231
8.26542
8.19582
8.12508
8.04968
7.96915
7.88297
7.7922
7.69757
7.59961
7.49884
7.39396
7.28386
7.16954
7.05562
6.93951
6.81538
6.68877
6.55614
6.4193
6.286
6.1463
6.0049
1
1
1
1
1
1
1
1
1
1
1
1
1
1
1
1
1
1
1
1
1
1
1
1
1
1
1
1
1
1
1
1
1
1
1
1
1
1
1
1
1
1
1
1
1
1
1
1
1
1
1
1
1
1
1
1
1
1
1
1
1
1
1.00709
1.71004
6.41369
8.5591
8.60634
8.57475
8.53323
8.48815
8.43963
8.38924
8.33335
8.2718
8.20613
8.13762
8.06666
7.99129
7.9107
7.82551
7.73671
7.64507
7.55059
7.45306
7.35188
7.24571
7.13505
7.02559
6.91395
6.79571
6.67517
6.5483
6.41896
6.29322
6.16192
6.02802
1
1
1
1
1
1
1
1
1
1
1
1
1
1
1
1
1
1
1
1
1
1
1
1
1
1
1
1
1
1
1
1
1
1
1
1
1
1
1
1
1
1
1
1
1
1
1
1
1
1
1
1
1
1
1
1
1
1
1
1
1
1
1.00001
1.01427
1.96403
6.84969
8.5264
8.53237
8.49532
8.44305
8.3935
8.33854
8.27787
8.21514
8.14913
8.08097
8.01085
7.93714
7.85897
7.77668
7.69113
7.60233
7.50984
7.414
7.31517
7.21224
7.10508
6.99907
6.89132
6.77861
6.66349
6.54299
6.4205
6.30146
6.177
6.05062
1
1
1
1
1
1
1
1
1
1
1
1
1
1
1
1
1
1
1
1
1
1
1
1
1
1
1
1
1
1
1
1
1
1
1
1
1
1
1
1
1
1
1
1
1
1
1
1
1
1
1
1
1
1
1
1
1
1
1
1
1
1
1
1.00003
1.02544
2.21614
7.2219
8.48888
8.45535
8.40526
8.34543
8.28423
8.22169
8.15797
8.09091
8.02384
7.95541
7.88401
7.80879
7.72972
7.64731
7.56128
7.47131
7.37775
7.28127
7.18161
7.07861
6.97604
6.87222
6.76409
6.65311
6.53786
6.42106
6.30718
6.18866
6.06947
1
1
1
1
1
1
1
1
1
1
1
1
1
1
1
1
1
1
1
1
1
1
1
1
1
1
1
1
1
1
1
1
1
1
1
1
1
1
1
1
1
1
1
1
1
1
1
1
1
1
1
1
1
1
1
1
1
1
1
1
1
1
1
1
1.00008
1.03987
2.56069
7.46785
8.39243
8.3452
8.29719
8.23332
8.16772
8.10384
8.04061
7.97685
7.91067
7.84079
7.76686
7.68928
7.60827
7.52414
7.43678
7.34593
7.25212
7.15572
7.05667
6.95718
6.85637
6.7515
6.64354
6.53286
6.42148
6.31154
6.19861
6.08541
1
1
1
1
1
1
1
1
1
1
1
1
1
1
1
1
1
1
1
1
1
1
1
1
1
1
1
1
1
1
1
1
1
1
1
1
1
1
1
1
1
1
1
1
1
1
1
1
1
1
1
1
1
1
1
1
1
1
1
1
1
1
1
1
1
1.00014
1.06469
2.85623
7.54041
8.28144
8.22718
8.17118
8.11707
8.05804
7.9979
7.93529
7.86967
7.80093
7.72839
7.65227
7.57284
7.49039
7.40492
7.31646
7.22543
7.13218
7.03662
6.93979
6.84142
6.73968
6.63478
6.52872
6.42228
6.31562
6.20714
6.09833
1
1
1
1
1
1
1
1
1
1
1
1
1
1
1
1
1
1
1
1
1
1
1
1
1
1
1
1
1
1
1
1
1
1
1
1
1
1
1
1
1
1
1
1
1
1
1
1
1
1
1
1
1
1
1
1
1
1
1
1
1
1
1
1
1
1
1.00029
1.09181
2.96569
7.47826
8.16957
8.12289
8.07257
8.02141
7.96592
7.90534
7.83974
7.76908
7.69471
7.61861
7.54008
7.4591
7.37568
7.28973
7.20131
7.11055
7.01776
6.92306
6.82693
6.72801
6.62622
6.52401
6.42193
6.31881
6.21412
6.10919
1
1
1
1
1
1
1
1
1
1
1
1
1
1
1
1
1
1
1
1
1
1
1
1
1
1
1
1
1
1
1
1
1
1
1
1
1
1
1
1
1
1
1
1
1
1
1
1
1
1
1
1
1
1
1
1
1
1
1
1
1
1
1
1
1
1
1
1.0005
1.10483
2.91714
7.35594
8.08554
8.043
7.99315
7.93646
7.87438
7.80855
7.73757
7.66313
7.58669
7.50827
7.42847
7.34691
7.26324
7.17727
7.08894
6.99882
6.90644
6.81291
6.71714
6.61964
6.52115
6.42338
6.32368
6.22274
6.1207
1
1
1
1
1
1
1
1
1
1
1
1
1
1
1
1
1
1
1
1
1
1
1
1
1
1
1
1
1
1
1
1
1
1
1
1
1
1
1
1
1
1
1
1
1
1
1
1
1
1
1
1
1
1
1
1
1
1
1
1
1
1
1
1
1
1
1
1
1.00064
1.10132
2.85025
7.17844
7.99127
7.95769
7.89832
7.83717
7.76901
7.70003
7.62989
7.55597
7.479
7.40059
7.32058
7.23876
7.15487
7.06887
6.9811
6.89137
6.80045
6.70806
6.61438
6.51975
6.42503
6.32893
6.23085
6.13241
1
1
1
1
1
1
1
1
1
1
1
1
1
1
1
1
1
1
1
1
1
1
1
1
1
1
1
1
1
1
1
1
1
1
1
1
1
1
1
1
1
1
1
1
1
1
1
1
1
1
1
1
1
1
1
1
1
1
1
1
1
1
1
1
1
1
1
1
1
1.00061
1.0947
2.72599
6.93274
7.88988
7.86471
7.79888
7.73408
7.66561
7.59667
7.52509
7.4513
7.3748
7.29619
7.21561
7.13315
7.04901
6.96353
6.87666
6.78899
6.70025
6.61073
6.5197
6.42814
6.33506
6.23971
6.14255
1
1
1
1
1
1
1
1
1
1
1
1
1
1
1
1
1
1
1
1
1
1
1
1
1
1
1
1
1
1
1
1
1
1
1
1
1
1
1
1
1
1
1
1
1
1
1
1
1
1
1
1
1
1
1
1
1
1
1
1
1
1
1
1
1
1
1
1
1
1
1.00056
1.08263
2.54506
6.60962
7.76917
7.76373
7.69643
7.63463
7.56655
7.49654
7.42444
7.34987
7.27299
7.19413
7.11359
7.03138
6.94861
6.86468
6.78068
6.69538
6.60909
6.52189
6.43047
6.33865
6.24399
6.1525
1
1
1
1
1
1
1
1
1
1
1
1
1
1
1
1
1
1
1
1
1
1
1
1
1
1
1
1
1
1
1
1
1
1
1
1
1
1
1
1
1
1
1
1
1
1
1
1
1
1
1
1
1
1
1
1
1
1
1
1
1
1
1
1
1
1
1
1
1
1
1
1.00046
1.06649
2.32255
6.16603
7.63972
7.67492
7.60404
7.53941
7.46835
7.39715
7.32391
7.24905
7.17258
7.09475
7.01617
6.93675
6.85702
6.77596
6.69411
6.60828
6.52217
6.43344
6.34504
6.25353
6.16739
1
1
1
1
1
1
1
1
1
1
1
1
1
1
1
1
1
1
1
1
1
1
1
1
1
1
1
1
1
1
1
1
1
1
1
1
1
1
1
1
1
1
1
1
1
1
1
1
1
1
1
1
1
1
1
1
1
1
1
1
1
1
1
1
1
1
1
1
1
1
1
1
1.00034
1.04922
2.06387
5.59636
7.48422
7.59943
7.50587
7.43782
7.36802
7.29747
7.22589
7.15316
7.07943
7.00465
6.92976
6.85211
6.77365
6.69086
6.61025
6.52271
6.43667
6.36762
6.31785
6.29482
1
1
1
1
1
1
1
1
1
1
1
1
1
1
1
1
1
1
1
1
1
1
1
1
1
1
1
1
1
1
1
1
1
1
1
1
1
1
1
1
1
1
1
1
1
1
1
1
1
1
1
1
1
1
1
1
1
1
1
1
1
1
1
1
1
1
1
1
1
1
1
1
1
1.00022
1.03266
1.79442
4.86471
7.30318
7.49519
7.41208
7.34889
7.28363
7.21647
7.14608
7.07709
7.00591
6.93041
6.85272
6.77441
6.69218
6.61794
6.556
6.52047
6.54874
6.67279
6.94022
1
1
1
1
1
1
1
1
1
1
1
1
1
1
1
1
1
1
1
1
1
1
1
1
1
1
1
1
1
1
1
1
1
1
1
1
1
1
1
1
1
1
1
1
1
1
1
1
1
1
1
1
1
1
1
1
1
1
1
1
1
1
1
1
1
1
1
1
1
1
1
1
1
1
1.00012
1.01925
1.53145
4.08939
7.00163
7.39588
7.3402
7.28173
7.21165
7.14503
7.07521
6.99818
6.92404
6.84461
6.78008
6.73096
6.72266
6.80235
7.03167
7.37113
7.8002
8.14832
1
1
1
1
1
1
1
1
1
1
1
1
1
1
1
1
1
1
1
1
1
1
1
1
1
1
1
1
1
1
1
1
1
1
1
1
1
1
1
1
1
1
1
1
1
1
1
1
1
1
1
1
1
1
1
1
1
1
1
1
1
1
1
1
1
1
1
1
1
1
1
1
1
1
1
1.00006
1.00968
1.32017
3.33544
6.56023
7.29335
7.28695
7.1991
7.13876
7.06974
6.98174
6.91799
6.88472
6.91878
7.07368
7.39092
7.85633
8.33441
8.65091
8.84213
8.85535
1
1
1
1
1
1
1
1
1
1
1
1
1
1
1
1
1
1
1
1
1
1
1
1
1
1
1
1
1
1
1
1
1
1
1
1
1
1
1
1
1
1
1
1
1
1
1
1
1
1
1
1
1
1
1
1
1
1
1
1
1
1
1
1
1
1
1
1
1
1
1
1
1
1
1
1
1.00002
1.0042
1.17375
2.669
5.9112
7.13735
7.25146
7.12724
7.02989
7.01639
7.10926
7.37713
7.8149
8.3734
8.83741
9.13635
9.29231
9.28273
9.18369
9.04972
1
1
1
1
1
1
1
1
1
1
1
1
1
1
1
1
1
1
1
1
1
1
1
1
1
1
1
1
1
1
1
1
1
1
1
1
1
1
1
1
1
1
1
1
1
1
1
1
1
1
1
1
1
1
1
1
1
1
1
1
1
1
1
1
1
1
1
1
1
1
1
1
1
1
1
1
1
1.00001
1.00159
1.08562
2.10563
4.98481
7.0328
7.11193
7.28344
7.63065
8.25716
8.92505
9.38807
9.65643
9.71028
9.63156
9.53764
9.43097
9.27015
9.12438
1
1
1
1
1
1
1
1
1
1
1
1
1
1
1
1
1
1
1
1
1
1
1
1
1
1
1
1
1
1
1
1
1
1
1
1
1
1
1
1
1
1
1
1
1
1
1
1
1
1
1
1
1
1
1
1
1
1
1
1
1
1
1
1
1
1
1
1
1
1
1
1
1
1
1
1
1
1
1
1.00055
1.03722
1.64795
4.03115
6.81603
8.80252
9.39599
9.88168
10.0881
10.0998
10.0359
9.92953
9.77835
9.61822
9.49271
9.34127
9.21906
1
1
1
1
1
1
1
1
1
1
1
1
1
1
1
1
1
1
1
1
1
1
1
1
1
1
1
1
1
1
1
1
1
1
1
1
1
1
1
1
1
1
1
1
1
1
1
1
1
1
1
1
1
1
1
1
1
1
1
1
1
1
1
1
1
1
1
1
1
1
1
1
1
1
1
1
1
1
1
1
1.00015
1.01487
1.30894
5.9624
10.9329
10.7499
10.5772
10.4346
10.2988
10.1664
10.0234
9.83802
9.65412
9.5158
9.42391
9.33974
1
1
1
1
1
1
1
1
1
1
1
1
1
1
1
1
1
1
1
1
1
1
1
1
1
1
1
1
1
1
1
1
1
1
1
1
1
1
1
1
1
1
1
1
1
1
1
1
1
1
1
1
1
1
1
1
1
1
1
1
1
1
1
1
1
1
1
1
1
1
1
1
1
1
1
1
1
1
1
1
1
1.00005
1.00366
4.93719
10.7562
10.6618
10.4453
10.2731
10.137
10.0075
9.88689
9.76985
9.66913
9.60778
9.57155
9.51146
1
1
1
1
1
1
1
1
1
1
1
1
1
1
1
1
1
1
1
1
1
1
1
1
1
1
1
1
1
1
1
1
1
1
1
1
1
1
1
1
1
1
1
1
1
1
1
1
1
1
1
1
1
1
1
1
1
1
1
1
1
1
1
1
1
1
1
1
1
1
1
1
1
1
1
1
1
1
1
1
1
1
1
3.61871
9.78616
10.3678
10.3249
10.2778
10.2014
10.1213
10.0451
9.97124
9.90711
9.84479
9.77374
9.70022
1
1
1
1
1
1
1
1
1
1
1
1
1
1
1
1
1
1
1
1
1
1
1
1
1
1
1
1
1
1
1
1
1
1
1
1
1
1
1
1
1
1
1
1
1
1
1
1
1
1
1
1
1
1
1
1
1
1
1
1
1
1
1
1
1
1
1
1
1
1
1
1
1
1
1
1
1
1
1
1
1
1
1
2.13528
8.66111
10.2774
10.2238
10.2159
10.1629
10.1205
10.0654
10.0116
9.95211
9.88402
9.80612
9.73557
1
1
1
1
1
1
1
1
1
1
1
1
1
1
1
1
1
1
1
1
1
1
1
1
1
1
1
1
1
1
1
1
1
1
1
1
1
1
1
1
1
1
1
1
1
1
1
1
1
1
1
1
1
1
1
1
1
1
1
1
1
1
1
1
1
1
1
1
1
1
1
1
1
1
1
1
1
1
1
1
1
1
1
1.07311
7.01494
10.3645
10.2918
10.2365
10.2027
10.161
10.1079
10.0485
9.98691
9.92425
9.8665
9.80921
1
1
1
1
1
1
1
1
1
1
1
1
1
1
1
1
1
1
1
1
1
1
1
1
1
1
1
1
1
1
1
1
1
1
1
1
1
1
1
1
1
1
1
1
1
1
1
1
1
1
1
1
1
1
1
1
1
1
1
1
1
1
1
1
1
1
1
1
1
1
1
1
1
1
1
1
1
1
1
1
1
1
1
1.00018
5.16367
9.96624
10.1935
10.179
10.1617
10.1309
10.0926
10.0523
10.0088
9.96047
9.90976
9.85717
1
1
1
1
1
1
1
1
1
1
1
1
1
1
1
1
1
1
1
1
1
1
1
1
1
1
1
1
1
1
1
1
1
1
1
1
1
1
1
1
1
1
1
1
1
1
1
1
1
1
1
1
1
1
1
1
1
1
1
1
1
1
1
1
1
1
1
1
1
1
1
1
1
1
1
1
1
1
1
1
1
1
1
1
3.31554
9.34672
10.2524
10.2126
10.1876
10.1506
10.1118
10.0709
10.0275
9.98146
9.93356
9.88184
1
1
1
1
1
1
1
1
1
1
1
1
1
1
1
1
1
1
1
1
1
1
1
1
1
1
1
1
1
1
1
1
1
1
1
1
1
1
1
1
1
1
1
1
1
1
1
1
1
1
1
1
1
1
1
1
1
1
1
1
1
1
1
1
1
1
1
1
1
1
1
1
1
1
1
1
1
1
1
1
1
1
1
1
1.8722
8.42094
10.3461
10.2689
10.2214
10.1741
10.1284
10.0842
10.0416
9.99783
9.95644
9.91358
1
1
1
1
1
1
1
1
1
1
1
1
1
1
1
1
1
1
1
1
1
1
1
1
1
1
1
1
1
1
1
1
1
1
1
1
1
1
1
1
1
1
1
1
1
1
1
1
1
1
1
1
1
1
1
1
1
1
1
1
1
1
1
1
1
1
1
1
1
1
1
1
1
1
1
1
1
1
1
1
1
1
1
1
1.03709
6.9568
10.3512
10.3074
10.2345
10.1874
10.1423
10.0998
10.0582
10.0147
9.97234
9.9287
1
1
1
1
1
1
1
1
1
1
1
1
1
1
1
1
1
1
1
1
1
1
1
1
1
1
1
1
1
1
1
1
1
1
1
1
1
1
1
1
1
1
1
1
1
1
1
1
1
1
1
1
1
1
1
1
1
1
1
1
1
1
1
1
1
1
1
1
1
1
1
1
1
1
1
1
1
1
1
1
1
1
1
1
1.00004
5.33356
10.1042
10.2706
10.2252
10.1995
10.1644
10.126
10.0846
10.0407
9.99677
9.95203
1
1
1
1
1
1
1
1
1
1
1
1
1
1
1
1
1
1
1
1
1
1
1
1
1
1
1
1
1
1
1
1
1
1
1
1
1
1
1
1
1
1
1
1
1
1
1
1
1
1
1
1
1
1
1
1
1
1
1
1
1
1
1
1
1
1
1
1
1
1
1
1
1
1
1
1
1
1
1
1
1
1
1
1
1
3.82593
9.67365
10.299
10.2421
10.2154
10.1784
10.1395
10.0978
10.0548
10.0105
9.96617
1
1
1
1
1
1
1
1
1
1
1
1
1
1
1
1
1
1
1
1
1
1
1
1
1
1
1
1
1
1
1
1
1
1
1
1
1
1
1
1
1
1
1
1
1
1
1
1
1
1
1
1
1
1
1
1
1
1
1
1
1
1
1
1
1
1
1
1
1
1
1
1
1
1
1
1
1
1
1
1
1
1
1
1
1
2.54358
9.05333
10.3548
10.2787
10.2472
10.2089
10.1694
10.1275
10.0854
10.0418
9.99773
1
1
1
1
1
1
1
1
1
1
1
1
1
1
1
1
1
1
1
1
1
1
1
1
1
1
1
1
1
1
1
1
1
1
1
1
1
1
1
1
1
1
1
1
1
1
1
1
1
1
1
1
1
1
1
1
1
1
1
1
1
1
1
1
1
1
1
1
1
1
1
1
1
1
1
1
1
1
1
1
1
1
1
1
1
1.59799
8.08984
10.4065
10.3189
10.2748
10.2322
10.1896
10.1458
10.1029
10.059
10.0142
1
1
1
1
1
1
1
1
1
1
1
1
1
1
1
1
1
1
1
1
1
1
1
1
1
1
1
1
1
1
1
1
1
1
1
1
1
1
1
1
1
1
1
1
1
1
1
1
1
1
1
1
1
1
1
1
1
1
1
1
1
1
1
1
1
1
1
1
1
1
1
1
1
1
1
1
1
1
1
1
1
1
1
1
1
1.07882
7.00064
10.3941
10.3558
10.3005
10.259
10.2152
10.1704
10.126
10.0815
10.0359
1
1
1
1
1
1
1
1
1
1
1
1
1
1
1
1
1
1
1
1
1
1
1
1
1
1
1
1
1
1
1
1
1
1
1
1
1
1
1
1
1
1
1
1
1
1
1
1
1
1
1
1
1
1
1
1
1
1
1
1
1
1
1
1
1
1
1
1
1
1
1
1
1
1
1
1
1
1
1
1
1
1
1
1
1
1.00047
5.8425
10.2528
10.3472
10.2927
10.2606
10.2219
10.1813
10.1395
10.0968
10.0528
1
1
1
1
1
1
1
1
1
1
1
1
1
1
1
1
1
1
1
1
1
1
1
1
1
1
1
1
1
1
1
1
1
1
1
1
1
1
1
1
1
1
1
1
1
1
1
1
1
1
1
1
1
1
1
1
1
1
1
1
1
1
1
1
1
1
1
1
1
1
1
1
1
1
1
1
1
1
1
1
1
1
1
1
1
1
4.726
10.0422
10.363
10.3052
10.274
10.2354
10.1969
10.1575
10.1173
10.0761
1
1
1
1
1
1
1
1
1
1
1
1
1
1
1
1
1
1
1
1
1
1
1
1
1
1
1
1
1
1
1
1
1
1
1
1
1
1
1
1
1
1
1
1
1
1
1
1
1
1
1
1
1
1
1
1
1
1
1
1
1
1
1
1
1
1
1
1
1
1
1
1
1
1
1
1
1
1
1
1
1
1
1
1
1
1
3.75243
9.75041
10.3929
10.3234
10.2906
10.2524
10.2149
10.1762
10.1355
10.0927
1
1
1
1
1
1
1
1
1
1
1
1
1
1
1
1
1
1
1
1
1
1
1
1
1
1
1
1
1
1
1
1
1
1
1
1
1
1
1
1
1
1
1
1
1
1
1
1
1
1
1
1
1
1
1
1
1
1
1
1
1
1
1
1
1
1
1
1
1
1
1
1
1
1
1
1
1
1
1
1
1
1
1
1
1
1
2.93383
9.42727
10.4179
10.3369
10.3015
10.2619
10.2234
10.1838
10.1429
10.1009
1
1
1
1
1
1
1
1
1
1
1
1
1
1
1
1
1
1
1
1
1
1
1
1
1
1
1
1
1
1
1
1
1
1
1
1
1
1
1
1
1
1
1
1
1
1
1
1
1
1
1
1
1
1
1
1
1
1
1
1
1
1
1
1
1
1
1
1
1
1
1
1
1
1
1
1
1
1
1
1
1
1
1
1
1
1
2.30901
9.0225
10.4302
10.3483
10.3104
10.2701
10.2313
10.1918
10.1514
10.1102
1
1
1
1
1
1
1
1
1
1
1
1
1
1
1
1
1
1
1
1
1
1
1
1
1
1
1
1
1
1
1
1
1
1
1
1
1
1
1
1
1
1
1
1
1
1
1
1
1
1
1
1
1
1
1
1
1
1
1
1
1
1
1
1
1
1
1
1
1
1
1
1
1
1
1
1
1
1
1
1
1
1
1
1
1
1
1.88424
8.57668
10.4288
10.357
10.3199
10.2796
10.2407
10.2012
10.1609
10.1195
1
1
1
1
1
1
1
1
1
1
1
1
1
1
1
1
1
1
1
1
1
1
1
1
1
1
1
1
1
1
1
1
1
1
1
1
1
1
1
1
1
1
1
1
1
1
1
1
1
1
1
1
1
1
1
1
1
1
1
1
1
1
1
1
1
1
1
1
1
1
1
1
1
1
1
1
1
1
1
1
1
1
1
1
1
1
1.59643
8.12382
10.4081
10.3552
10.3211
10.2827
10.2447
10.2065
10.1676
10.1275
1
1
1
1
1
1
1
1
1
1
1
1
1
1
1
1
1
1
1
1
1
1
1
1
1
1
1
1
1
1
1
1
1
1
1
1
1
1
1
1
1
1
1
1
1
1
1
1
1
1
1
1
1
1
1
1
1
1
1
1
1
1
1
1
1
1
1
1
1
1
1
1
1
1
1
1
1
1
1
1
1
1
1
1
1
1
1.39361
7.6932
10.394
10.3596
10.3208
10.2848
10.2463
10.2086
10.1703
10.1315
1
1
1
1
1
1
1
1
1
1
1
1
1
1
1
1
1
1
1
1
1
1
1
1
1
1
1
1
1
1
1
1
1
1
1
1
1
1
1
1
1
1
1
1
1
1
1
1
1
1
1
1
1
1
1
1
1
1
1
1
1
1
1
1
1
1
1
1
1
1
1
1
1
1
1
1
1
1
1
1
1
1
1
1
1
1
1.22161
7.24797
10.3854
10.372
10.3282
10.2975
10.2596
10.2217
10.1826
10.1432
1
1
1
1
1
1
1
1
1
1
1
1
1
1
1
1
1
1
1
1
1
1
1
1
1
1
1
1
1
1
1
1
1
1
1
1
1
1
1
1
1
1
1
1
1
1
1
1
1
1
1
1
1
1
1
1
1
1
1
1
1
1
1
1
1
1
1
1
1
1
1
1
1
1
1
1
1
1
1
1
1
1
1
1
1
1
1.05146
6.87698
10.4019
10.4075
10.3526
10.3169
10.2752
10.2342
10.1924
10.1512
1
1
1
1
1
1
1
1
1
1
1
1
1
1
1
1
1
1
1
1
1
1
1
1
1
1
1
1
1
1
1
1
1
1
1
1
1
1
1
1
1
1
1
1
1
1
1
1
1
1
1
1
1
1
1
1
1
1
1
1
1
1
1
1
1
1
1
1
1
1
1
1
1
1
1
1
1
1
1
1
1
1
1
1
1
1
1.00047
6.5344
10.3955
10.4315
10.3641
10.325
10.282
10.2408
10.1994
10.1586
1
1
1
1
1
1
1
1
1
1
1
1
1
1
1
1
1
1
1
1
1
1
1
1
1
1
1
1
1
1
1
1
1
1
1
1
1
1
1
1
1
1
1
1
1
1
1
1
1
1
1
1
1
1
1
1
1
1
1
1
1
1
1
1
1
1
1
1
1
1
1
1
1
1
1
1
1
1
1
1
1
1
1
1
1
1
1
6.28121
10.3794
10.4429
10.3709
10.3315
10.2882
10.2467
10.2048
10.163
1
1
1
1
1
1
1
1
1
1
1
1
1
1
1
1
1
1
1
1
1
1
1
1
1
1
1
1
1
1
1
1
1
1
1
1
1
1
1
1
1
1
1
1
1
1
1
1
1
1
1
1
1
1
1
1
1
1
1
1
1
1
1
1
1
1
1
1
1
1
1
1
1
1
1
1
1
1
1
1
1
1
1
1
1
1
1
6.16269
10.3569
10.437
10.3701
10.3343
10.2923
10.2514
10.2094
10.167
1.15671
0.22593
0.0233421
0.0168891
0.0456512
0.101363
0.122667
0.138363
0.200536
0.276605
0.323412
0.373574
0.427157
0.490812
0.563118
0.664981
0.769559
0.863587
0.944262
0.997162
0.998773
0.982327
0.98639
1.00204
1.01774
1.03528
1.04987
1.0751
1.10586
1.13353
1.16381
1.19098
1.20964
1.22803
1.23373
1.22976
1.22911