/*--------------------------------*- C++ -*----------------------------------*\
  =========                 |
  \\      /  F ield         | OpenFOAM: The Open Source CFD Toolbox
   \\    /   O peration     | Website:  https://openfoam.org
    \\  /    A nd           | Version:  7
     \\/     M anipulation  |
\*---------------------------------------------------------------------------*/
FoamFile
{
    version     2.0;
    format      ascii;
    class       volScalarField;
    location    "6";
    object      rho;
}
// * * * * * * * * * * * * * * * * * * * * * * * * * * * * * * * * * * * * * //

dimensions      [1 -3 0 0 0 0 0];

internalField   nonuniform List<scalar> 
19968
(
1.40001
1.40001
1.40001
1.40001
1.40001
1.40001
1.40001
1.40001
1.40001
1.40001
1.40001
1.40001
1.40001
1.40001
1.40001
1.40001
1.40001
1.40001
1.40001
1.40001
1.40001
1.40001
1.40001
1.40001
1.40001
1.40001
1.40001
1.40001
1.40001
1.40001
1.40001
1.40001
1.40001
1.40001
1.40001
1.40001
1.40001
1.40001
1.40001
1.40001
1.40001
1.40001
1.40001
1.40001
1.40001
1.40001
1.40001
1.40001
1.71811
4.58839
5.41372
5.43178
5.45925
5.48303
5.50589
5.52636
5.54501
5.56267
5.58016
5.59804
5.61673
5.63676
5.65791
5.67881
5.69871
5.71753
5.73498
5.75095
5.76579
5.77995
5.79373
5.80737
5.82112
5.83511
5.84918
5.86286
5.87563
5.88725
5.89794
5.90824
5.91864
5.92938
5.9403
5.95101
5.96106
5.97012
5.97806
5.98495
5.99099
5.99634
6.00095
6.00462
6.00713
6.00843
6.00898
6.00925
1.40001
1.40001
1.40001
1.40001
1.40001
1.40001
1.40001
1.40001
1.40001
1.40001
1.40001
1.40001
1.40001
1.40001
1.40001
1.40001
1.40001
1.40001
1.40001
1.40001
1.40001
1.40001
1.40001
1.40001
1.40001
1.40001
1.40001
1.40001
1.40001
1.40001
1.40001
1.40001
1.40001
1.40001
1.40001
1.40001
1.40001
1.40001
1.40001
1.40001
1.40001
1.40001
1.40001
1.40001
1.40001
1.40001
1.40001
1.40001
1.69908
4.55986
5.40864
5.4319
5.45972
5.4838
5.50644
5.52668
5.54515
5.56277
5.5802
5.59796
5.61654
5.63631
5.65725
5.67797
5.69787
5.71661
5.73395
5.74976
5.76445
5.77848
5.79218
5.80577
5.81951
5.83354
5.84771
5.86153
5.87447
5.88624
5.89703
5.90729
5.91754
5.92801
5.9386
5.94901
5.95886
5.96785
5.97582
5.98279
5.98888
5.99419
5.9987
6.00224
6.00467
6.00594
6.00649
6.00678
1.40001
1.40001
1.40001
1.40001
1.40001
1.40001
1.40001
1.40001
1.40001
1.40001
1.40001
1.40001
1.40001
1.40001
1.40001
1.40001
1.40001
1.40001
1.40001
1.40001
1.40001
1.40001
1.40001
1.40001
1.40001
1.40001
1.40001
1.40001
1.40001
1.40001
1.40001
1.40001
1.40001
1.40001
1.40001
1.40001
1.40001
1.40001
1.40001
1.40001
1.40001
1.40001
1.40001
1.40001
1.40001
1.40001
1.40001
1.40001
1.65784
4.50261
5.40831
5.42881
5.45785
5.48191
5.50443
5.52476
5.54355
5.56157
5.57917
5.59687
5.61534
5.63477
5.65539
5.67575
5.69555
5.71416
5.73142
5.74715
5.76175
5.77566
5.78923
5.80271
5.81638
5.83042
5.84469
5.85872
5.87191
5.88395
5.89493
5.90524
5.91535
5.92549
5.93565
5.94563
5.95517
5.96405
5.97209
5.97923
5.98547
5.99083
5.99527
5.99868
6.00099
6.00222
6.00277
6.00311
1.40001
1.40001
1.40001
1.40001
1.40001
1.40001
1.40001
1.40001
1.40001
1.40001
1.40001
1.40001
1.40001
1.40001
1.40001
1.40001
1.40001
1.40001
1.40001
1.40001
1.40001
1.40001
1.40001
1.40001
1.40001
1.40001
1.40001
1.40001
1.40001
1.40001
1.40001
1.40001
1.40001
1.40001
1.40001
1.40001
1.40001
1.40001
1.40001
1.40001
1.40001
1.40001
1.40001
1.40001
1.40001
1.40001
1.40001
1.40001
1.59936
4.40866
5.4076
5.42811
5.45568
5.47892
5.50098
5.52144
5.54084
5.55945
5.57727
5.59493
5.6133
5.63237
5.65253
5.67232
5.69182
5.71022
5.72746
5.74323
5.75783
5.77163
5.785
5.79829
5.81184
5.82588
5.84033
5.85465
5.86817
5.88049
5.8916
5.90185
5.91167
5.92132
5.93086
5.94023
5.94929
5.9579
5.9659
5.97314
5.97949
5.98489
5.98929
5.99266
5.99499
5.99637
5.9971
5.99764
1.40001
1.40001
1.40001
1.40001
1.40001
1.40001
1.40001
1.40001
1.40001
1.40001
1.40001
1.40001
1.40001
1.40001
1.40001
1.40001
1.40001
1.40001
1.40001
1.40001
1.40001
1.40001
1.40001
1.40001
1.40001
1.40001
1.40001
1.40001
1.40001
1.40001
1.40001
1.40001
1.40001
1.40001
1.40001
1.40001
1.40001
1.40001
1.40001
1.40001
1.40001
1.40001
1.40001
1.40001
1.40001
1.40001
1.40001
1.40001
1.52638
4.28613
5.41198
5.42824
5.45228
5.47407
5.49544
5.51623
5.53642
5.55583
5.57432
5.5924
5.6108
5.62936
5.64861
5.66741
5.68635
5.70451
5.7219
5.73795
5.75277
5.76657
5.77974
5.79278
5.80615
5.8202
5.83485
5.8495
5.86338
5.87597
5.88722
5.89746
5.90707
5.91635
5.92539
5.93423
5.94283
5.95111
5.9589
5.96598
5.97211
5.97716
5.98112
5.98406
5.9861
5.98739
5.98813
5.98877
1.40001
1.40001
1.40001
1.40001
1.40001
1.40001
1.40001
1.40001
1.40001
1.40001
1.40001
1.40001
1.40001
1.40001
1.40001
1.40001
1.40001
1.40001
1.40001
1.40001
1.40001
1.40001
1.40001
1.40001
1.40001
1.40001
1.40001
1.40001
1.40001
1.40001
1.40001
1.40001
1.40001
1.40001
1.40001
1.40001
1.40001
1.40001
1.40001
1.40001
1.40001
1.40001
1.40001
1.40001
1.40001
1.40001
1.40001
1.40001
1.40684
4.08423
5.4175
5.43054
5.44983
5.47073
5.49117
5.51166
5.53183
5.55175
5.57119
5.59011
5.60859
5.6263
5.64397
5.66123
5.67914
5.69696
5.71457
5.73099
5.74599
5.75965
5.77237
5.78486
5.79775
5.81151
5.82611
5.84086
5.85483
5.86742
5.87855
5.88858
5.89793
5.9069
5.91561
5.92412
5.93244
5.94056
5.94832
5.95544
5.96162
5.96667
5.97057
5.97347
5.97554
5.97701
5.97792
5.97876
1.40001
1.40001
1.40001
1.40001
1.40001
1.40001
1.40001
1.40001
1.40001
1.40001
1.40001
1.40001
1.40001
1.40001
1.40001
1.40001
1.40001
1.40001
1.40001
1.40001
1.40001
1.40001
1.40001
1.40001
1.40001
1.40001
1.40001
1.40001
1.40001
1.40001
1.40001
1.40001
1.40001
1.40001
1.40001
1.40001
1.40001
1.40001
1.40001
1.40001
1.40001
1.40001
1.40001
1.40001
1.40001
1.40001
1.40001
1.40001
1.40005
3.784
5.38595
5.41283
5.43094
5.45301
5.47404
5.49495
5.51572
5.5366
5.55712
5.57703
5.59594
5.61361
5.63063
5.64706
5.66436
5.68198
5.69985
5.7168
5.7323
5.74621
5.75888
5.77114
5.78383
5.79755
5.81227
5.8272
5.84126
5.85378
5.86474
5.87457
5.8838
5.89273
5.90145
5.90996
5.91825
5.92629
5.93393
5.94093
5.94699
5.9519
5.9557
5.95853
5.96063
5.96224
5.96329
5.9643
1.40001
1.40001
1.40001
1.40001
1.40001
1.40001
1.40001
1.40001
1.40001
1.40001
1.40001
1.40001
1.40001
1.40001
1.40001
1.40001
1.40001
1.40001
1.40001
1.40001
1.40001
1.40001
1.40001
1.40001
1.40001
1.40001
1.40001
1.40001
1.40001
1.40001
1.40001
1.40001
1.40001
1.40001
1.40001
1.40001
1.40001
1.40001
1.40001
1.40001
1.40001
1.40001
1.40001
1.40001
1.40001
1.40001
1.40001
1.40001
1.40001
3.39267
5.33376
5.4011
5.42204
5.44559
5.46665
5.48701
5.50719
5.52765
5.54774
5.56757
5.58664
5.60457
5.62139
5.6372
5.65364
5.67041
5.68762
5.70428
5.71963
5.7334
5.74576
5.75761
5.76991
5.7833
5.79779
5.81255
5.8264
5.83858
5.84911
5.85854
5.86747
5.87626
5.88495
5.89345
5.90167
5.90952
5.9169
5.92358
5.92934
5.934
5.9376
5.94029
5.9423
5.9439
5.94494
5.94597
1.40001
1.40001
1.40001
1.40001
1.40001
1.40001
1.40001
1.40001
1.40001
1.40001
1.40001
1.40001
1.40001
1.40001
1.40001
1.40001
1.40001
1.40001
1.40001
1.40001
1.40001
1.40001
1.40001
1.40001
1.40001
1.40001
1.40001
1.40001
1.40001
1.40001
1.40001
1.40001
1.40001
1.40001
1.40001
1.40001
1.40001
1.40001
1.40001
1.40001
1.40001
1.40001
1.40001
1.40001
1.40001
1.40001
1.40001
1.40001
1.40001
2.92529
5.24147
5.39251
5.4149
5.44016
5.4612
5.48096
5.50006
5.51926
5.53784
5.55662
5.57555
5.59399
5.61111
5.62673
5.64235
5.65789
5.6736
5.68913
5.70364
5.71679
5.72869
5.74003
5.75177
5.76451
5.77836
5.79256
5.80593
5.81764
5.82768
5.83663
5.84518
5.85373
5.8623
5.87072
5.87882
5.88648
5.89362
5.90011
5.90576
5.91039
5.91399
5.91665
5.91856
5.92007
5.92097
5.92188
1.40001
1.40001
1.40001
1.40001
1.40001
1.40001
1.40001
1.40001
1.40001
1.40001
1.40001
1.40001
1.40001
1.40001
1.40001
1.40001
1.40001
1.40001
1.40001
1.40001
1.40001
1.40001
1.40001
1.40001
1.40001
1.40001
1.40001
1.40001
1.40001
1.40001
1.40001
1.40001
1.40001
1.40001
1.40001
1.40001
1.40001
1.40001
1.40001
1.40001
1.40001
1.40001
1.40001
1.40001
1.40001
1.40001
1.40001
1.40001
1.40001
2.40127
5.05701
5.39322
5.41518
5.44121
5.46279
5.48261
5.50027
5.51676
5.5322
5.54838
5.56603
5.58432
5.60167
5.61724
5.63211
5.64624
5.66002
5.67396
5.68738
5.69969
5.71094
5.72153
5.73232
5.74374
5.75613
5.76896
5.78122
5.79204
5.80131
5.8096
5.81761
5.82576
5.83407
5.84233
5.85025
5.85768
5.86455
5.87077
5.8762
5.8806
5.88392
5.88617
5.88753
5.88848
5.88889
5.88937
1.40001
1.40001
1.40001
1.40001
1.40001
1.40001
1.40001
1.40001
1.40001
1.40001
1.40001
1.40001
1.40001
1.40001
1.40001
1.40001
1.40001
1.40001
1.40001
1.40001
1.40001
1.40001
1.40001
1.40001
1.40001
1.40001
1.40001
1.40001
1.40001
1.40001
1.40001
1.40001
1.40001
1.40001
1.40001
1.40001
1.40001
1.40001
1.40001
1.40001
1.40001
1.40001
1.40001
1.40001
1.40001
1.40001
1.40001
1.40001
1.40001
1.87782
4.73397
5.40808
5.40731
5.43293
5.45219
5.47265
5.49058
5.50713
5.52231
5.53738
5.55391
5.57163
5.58911
5.60496
5.61961
5.63289
5.64508
5.65738
5.66985
5.68167
5.69268
5.70277
5.7126
5.72263
5.73328
5.74435
5.75506
5.76455
5.77259
5.77963
5.78629
5.79302
5.79987
5.80664
5.81312
5.81924
5.8251
5.83075
5.83604
5.84058
5.84405
5.84633
5.84754
5.84807
5.84797
5.84811
1.40001
1.40001
1.40001
1.40001
1.40001
1.40001
1.40001
1.40001
1.40001
1.40001
1.40001
1.40001
1.40001
1.40001
1.40001
1.40001
1.40001
1.40001
1.40001
1.40001
1.40001
1.40001
1.40001
1.40001
1.40001
1.40001
1.40001
1.40001
1.40001
1.40001
1.40001
1.40001
1.40001
1.40001
1.40001
1.40001
1.40001
1.40001
1.40001
1.40001
1.40001
1.40001
1.40001
1.40001
1.40001
1.40001
1.40001
1.40001
1.40001
1.42441
4.08709
5.40505
5.41466
5.43169
5.44837
5.4668
5.48415
5.50066
5.51522
5.52842
5.54256
5.55811
5.57417
5.5892
5.60283
5.61475
5.62504
5.63517
5.64615
5.65702
5.66735
5.67685
5.6856
5.69414
5.70282
5.71186
5.72082
5.729
5.73604
5.74217
5.74784
5.75341
5.759
5.76448
5.76971
5.77471
5.77957
5.78429
5.78859
5.79185
5.7937
5.79392
5.79284
5.79154
5.79013
5.78925
1.40001
1.40001
1.40001
1.40001
1.40001
1.40001
1.40001
1.40001
1.40001
1.40001
1.40001
1.40001
1.40001
1.40001
1.40001
1.40001
1.40001
1.40001
1.40001
1.40001
1.40001
1.40001
1.40001
1.40001
1.40001
1.40001
1.40001
1.40001
1.40001
1.40001
1.40001
1.40001
1.40001
1.40001
1.40001
1.40001
1.40001
1.40001
1.40001
1.40001
1.40001
1.40001
1.40001
1.40001
1.40001
1.40001
1.40001
1.40001
1.40001
1.40005
3.19602
5.24409
5.36852
5.39138
5.41267
5.43179
5.45034
5.46815
5.48414
5.49792
5.5113
5.52551
5.54052
5.5552
5.56855
5.58021
5.59024
5.59965
5.60977
5.62041
5.63069
5.64038
5.64896
5.65663
5.66369
5.67065
5.67758
5.6841
5.68989
5.69484
5.69906
5.70268
5.7058
5.70846
5.71068
5.71262
5.71436
5.71597
5.7174
5.7185
5.71914
5.71911
5.71831
5.71772
5.71684
5.71615
1.40001
1.40001
1.40001
1.40001
1.40001
1.40001
1.40001
1.40001
1.40001
1.40001
1.40001
1.40001
1.40001
1.40001
1.40001
1.40001
1.40001
1.40001
1.40001
1.40001
1.40001
1.40001
1.40001
1.40001
1.40001
1.40001
1.40001
1.40001
1.40001
1.40001
1.40001
1.40001
1.40001
1.40001
1.40001
1.40001
1.40001
1.40001
1.40001
1.40001
1.40001
1.40001
1.40001
1.40001
1.40001
1.40001
1.40001
1.40001
1.40001
1.4
2.16591
4.88285
5.37739
5.38263
5.40241
5.41949
5.43693
5.45383
5.46928
5.48243
5.49395
5.50533
5.51755
5.53033
5.54257
5.55342
5.56268
5.57088
5.57911
5.58815
5.59712
5.60569
5.61327
5.61938
5.62412
5.62798
5.63163
5.63519
5.63849
5.64113
5.64278
5.64331
5.64292
5.64198
5.64099
5.64036
5.63982
5.63908
5.6377
5.63536
5.63143
5.62611
5.61875
5.61067
5.60257
5.59491
1.40001
1.40001
1.40001
1.40001
1.40001
1.40001
1.40001
1.40001
1.40001
1.40001
1.40001
1.40001
1.40001
1.40001
1.40001
1.40001
1.40001
1.40001
1.40001
1.40001
1.40001
1.40001
1.40001
1.40001
1.40001
1.40001
1.40001
1.40001
1.40001
1.40001
1.40001
1.40001
1.40001
1.40001
1.40001
1.40001
1.40001
1.40001
1.40001
1.40001
1.40001
1.40001
1.40001
1.40001
1.40001
1.40001
1.40001
1.40001
1.40001
1.40001
1.44243
3.95393
5.38714
5.39285
5.40112
5.4116
5.4249
5.43871
5.45106
5.4611
5.46918
5.47679
5.48537
5.49536
5.50593
5.51574
5.52403
5.5311
5.53764
5.54452
5.55156
5.5581
5.56414
5.56886
5.5718
5.57293
5.57319
5.5734
5.57366
5.57338
5.5719
5.56851
5.56311
5.55636
5.54933
5.54244
5.53486
5.52527
5.51232
5.49577
5.47686
5.45766
5.44212
5.42985
5.42531
5.4229
1.40001
1.40001
1.40001
1.40001
1.40001
1.40001
1.40001
1.40001
1.40001
1.40001
1.40001
1.40001
1.40001
1.40001
1.40001
1.40001
1.40001
1.40001
1.40001
1.40001
1.40001
1.40001
1.40001
1.40001
1.40001
1.40001
1.40001
1.40001
1.40001
1.40001
1.40001
1.40001
1.40001
1.40001
1.40001
1.40001
1.40001
1.40001
1.40001
1.40001
1.40001
1.40001
1.40001
1.40001
1.40001
1.40001
1.40001
1.40001
1.40001
1.40001
1.40006
2.59282
5.06539
5.35667
5.35953
5.37154
5.3857
5.4011
5.4154
5.42703
5.43554
5.44194
5.44824
5.45606
5.46542
5.47505
5.48346
5.49001
5.49492
5.4986
5.5018
5.50463
5.50732
5.50999
5.51133
5.51024
5.50739
5.50368
5.49977
5.49538
5.48934
5.4804
5.46824
5.45338
5.43723
5.42092
5.404
5.38476
5.36154
5.33456
5.30561
5.27689
5.24259
5.20509
5.15181
5.17171
1.40001
1.40001
1.40001
1.40001
1.40001
1.40001
1.40001
1.40001
1.40001
1.40001
1.40001
1.40001
1.40001
1.40001
1.40001
1.40001
1.40001
1.40001
1.40001
1.40001
1.40001
1.40001
1.40001
1.40001
1.40001
1.40001
1.40001
1.40001
1.40001
1.40001
1.40001
1.40001
1.40001
1.40001
1.40001
1.40001
1.40001
1.40001
1.40001
1.40001
1.40001
1.40001
1.40001
1.40001
1.40001
1.40001
1.40001
1.40001
1.40001
1.40001
1.40001
1.53105
4.34979
5.38691
5.36809
5.37161
5.37753
5.38692
5.39707
5.4056
5.4115
5.41531
5.41877
5.4236
5.43045
5.43855
5.44615
5.45163
5.45471
5.45571
5.45522
5.45419
5.45299
5.45243
5.45157
5.44874
5.44297
5.43544
5.4271
5.41804
5.40724
5.39317
5.37465
5.35161
5.32533
5.29733
5.26705
5.23214
5.18798
5.13166
5.05671
4.95872
4.81232
4.58787
4.18373
3.28407
1.40001
1.40001
1.40001
1.40001
1.40001
1.40001
1.40001
1.40001
1.40001
1.40001
1.40001
1.40001
1.40001
1.40001
1.40001
1.40001
1.40001
1.40001
1.40001
1.40001
1.40001
1.40001
1.40001
1.40001
1.40001
1.40001
1.40001
1.40001
1.40001
1.40001
1.40001
1.40001
1.40001
1.40001
1.40001
1.40001
1.40001
1.40001
1.40001
1.40001
1.40001
1.40001
1.40001
1.40001
1.40001
1.40001
1.40001
1.40001
1.40001
1.40001
1.40001
1.40074
3.20496
5.21122
5.32067
5.33709
5.34719
5.35843
5.36896
5.37807
5.38507
5.38956
5.39193
5.39334
5.39546
5.39976
5.40595
5.41227
5.41634
5.41697
5.41425
5.40934
5.40429
5.40024
5.39692
5.39208
5.38413
5.37382
5.36188
5.34858
5.33328
5.31453
5.29067
5.26098
5.2257
5.18646
5.14196
5.09085
5.02562
4.94369
4.83207
4.69013
4.4853
4.21454
3.68788
2.91869
1.40001
1.40001
1.40001
1.40001
1.40001
1.40001
1.40001
1.40001
1.40001
1.40001
1.40001
1.40001
1.40001
1.40001
1.40001
1.40001
1.40001
1.40001
1.40001
1.40001
1.40001
1.40001
1.40001
1.40001
1.40001
1.40001
1.40001
1.40001
1.40001
1.40001
1.40001
1.40001
1.40001
1.40001
1.40001
1.40001
1.40001
1.40001
1.40001
1.40001
1.40001
1.40001
1.40001
1.40001
1.40001
1.40001
1.40001
1.40001
1.40001
1.40001
1.40001
1.4
1.95879
4.74455
5.32481
5.32176
5.33098
5.34176
5.35231
5.36107
5.36811
5.37283
5.37465
5.37353
5.37152
5.37128
5.37409
5.37872
5.38178
5.38067
5.37525
5.36687
5.35819
5.35048
5.34343
5.33507
5.32418
5.31073
5.29511
5.2775
5.25722
5.23315
5.20332
5.16711
5.12343
5.07386
5.0162
4.95013
4.86825
4.76663
4.63512
4.46452
4.24751
3.92902
3.48278
2.98778
1.40001
1.40001
1.40001
1.40001
1.40001
1.40001
1.40001
1.40001
1.40001
1.40001
1.40001
1.40001
1.40001
1.40001
1.40001
1.40001
1.40001
1.40001
1.40001
1.40001
1.40001
1.40001
1.40001
1.40001
1.40001
1.40001
1.40001
1.40001
1.40001
1.40001
1.40001
1.40001
1.40001
1.40001
1.40001
1.40001
1.40001
1.40001
1.40001
1.40001
1.40001
1.40001
1.40001
1.40001
1.40001
1.40001
1.40001
1.40001
1.40001
1.40001
1.40001
1.4
1.42385
3.57089
5.2298
5.29567
5.31225
5.32479
5.33458
5.34178
5.3469
5.35052
5.35159
5.35044
5.34719
5.34427
5.34392
5.34507
5.3452
5.34169
5.33375
5.32323
5.31214
5.30102
5.2895
5.27675
5.26197
5.24501
5.22574
5.20429
5.17951
5.15049
5.11504
5.07294
5.02242
4.96464
4.8974
4.81982
4.72711
4.61385
4.47349
4.29629
4.0746
3.78942
3.44998
3.07474
1.40001
1.40001
1.40001
1.40001
1.40001
1.40001
1.40001
1.40001
1.40001
1.40001
1.40001
1.40001
1.40001
1.40001
1.40001
1.40001
1.40001
1.40001
1.40001
1.40001
1.40001
1.40001
1.40001
1.40001
1.40001
1.40001
1.40001
1.40001
1.40001
1.40001
1.40001
1.40001
1.40001
1.40001
1.40001
1.40001
1.40001
1.40001
1.40001
1.40001
1.40001
1.40001
1.40001
1.40001
1.40001
1.40001
1.40001
1.40001
1.40001
1.40001
1.40001
1.40001
1.39999
2.11409
4.8229
5.29293
5.29649
5.30942
5.31782
5.3242
5.32698
5.32807
5.32591
5.32508
5.32372
5.32119
5.31904
5.31712
5.31313
5.30542
5.29396
5.28121
5.26842
5.25454
5.23927
5.22222
5.20274
5.18122
5.15736
5.13165
5.10265
5.0694
5.0295
4.98253
4.92688
4.86304
4.7898
4.70537
4.60696
4.48961
4.35195
4.17876
3.97386
3.73496
3.46399
3.17602
1.40001
1.40001
1.40001
1.40001
1.40001
1.40001
1.40001
1.40001
1.40001
1.40001
1.40001
1.40001
1.40001
1.40001
1.40001
1.40001
1.40001
1.40001
1.40001
1.40001
1.40001
1.40001
1.40001
1.40001
1.40001
1.40001
1.40001
1.40001
1.40001
1.40001
1.40001
1.40001
1.40001
1.40001
1.40001
1.40001
1.40001
1.40001
1.40001
1.40001
1.40001
1.40001
1.40001
1.40001
1.40001
1.40001
1.40001
1.40001
1.40001
1.40001
1.40001
1.40001
1.4
1.43664
3.59976
5.2063
5.27398
5.29084
5.30244
5.30902
5.30995
5.30794
5.30388
5.30145
5.29987
5.29638
5.29227
5.28743
5.28051
5.27024
5.25653
5.24199
5.22732
5.21111
5.19272
5.17198
5.14812
5.12166
5.09252
5.06168
5.02821
4.99106
4.94771
4.89708
4.83793
4.77055
4.69446
4.60766
4.50849
4.39191
4.2628
4.09978
3.92185
3.72
3.49606
3.26543
1.40001
1.40001
1.40001
1.40001
1.40001
1.40001
1.40001
1.40001
1.40001
1.40001
1.40001
1.40001
1.40001
1.40001
1.40001
1.40001
1.40001
1.40001
1.40001
1.40001
1.40001
1.40001
1.40001
1.40001
1.40001
1.40001
1.40001
1.40001
1.40001
1.40001
1.40001
1.40001
1.40001
1.40001
1.40001
1.40001
1.40001
1.40001
1.40001
1.40001
1.40001
1.40001
1.40001
1.40001
1.40001
1.40001
1.40001
1.40001
1.40001
1.40001
1.40001
1.40001
1.4
1.40003
2.01902
4.75361
5.28161
5.27478
5.28151
5.28192
5.28098
5.27887
5.27529
5.27363
5.27298
5.26908
5.263
5.25489
5.24538
5.23314
5.21812
5.20241
5.18569
5.1677
5.14743
5.12473
5.0984
5.0681
5.03394
4.99732
4.95885
4.91801
4.87194
4.81904
4.75808
4.68931
4.61258
4.52614
4.42977
4.31601
4.19584
4.04858
3.89378
3.72306
3.53285
3.33803
1.40001
1.40001
1.40001
1.40001
1.40001
1.40001
1.40001
1.40001
1.40001
1.40001
1.40001
1.40001
1.40001
1.40001
1.40001
1.40001
1.40001
1.40001
1.40001
1.40001
1.40001
1.40001
1.40001
1.40001
1.40001
1.40001
1.40001
1.40001
1.40001
1.40001
1.40001
1.40001
1.40001
1.40001
1.40001
1.40001
1.40001
1.40001
1.40001
1.40001
1.40001
1.40001
1.40001
1.40001
1.40001
1.40001
1.40001
1.40001
1.40001
1.40001
1.40001
1.40001
1.40001
1.40001
1.42519
3.35379
5.12832
5.24462
5.24279
5.24983
5.25336
5.25139
5.24807
5.24661
5.24653
5.24284
5.23553
5.22494
5.21281
5.19878
5.18296
5.16638
5.14742
5.12726
5.10478
5.08033
5.0525
5.02006
4.98253
4.94107
4.89768
4.85276
4.80362
4.74867
4.68674
4.61785
4.54222
4.458
4.3656
4.25844
4.14644
4.01454
3.87892
3.73032
3.56841
3.39917
1.40001
1.40001
1.40001
1.40001
1.40001
1.40001
1.40001
1.40001
1.40001
1.40001
1.40001
1.40001
1.40001
1.40001
1.40001
1.40001
1.40001
1.40001
1.40001
1.40001
1.40001
1.40001
1.40001
1.40001
1.40001
1.40001
1.40001
1.40001
1.40001
1.40001
1.40001
1.40001
1.40001
1.40001
1.40001
1.40001
1.40001
1.40001
1.40001
1.40001
1.40001
1.40001
1.40001
1.40001
1.40001
1.40001
1.40001
1.40001
1.40001
1.40001
1.40001
1.40001
1.40001
1.40001
1.40002
1.71602
4.50033
5.2819
5.24745
5.24377
5.23413
5.22577
5.21774
5.21309
5.21139
5.20805
5.20082
5.18937
5.1759
5.16059
5.1435
5.12596
5.10591
5.0849
5.06085
5.03528
5.00707
4.97446
4.93596
4.89229
4.84547
4.79664
4.74455
4.68793
4.62572
4.5574
4.48375
4.40207
4.31386
4.21497
4.11034
3.99119
3.87033
3.73653
3.59749
3.44969
1.40001
1.40001
1.40001
1.40001
1.40001
1.40001
1.40001
1.40001
1.40001
1.40001
1.40001
1.40001
1.40001
1.40001
1.40001
1.40001
1.40001
1.40001
1.40001
1.40001
1.40001
1.40001
1.40001
1.40001
1.40001
1.40001
1.40001
1.40001
1.40001
1.40001
1.40001
1.40001
1.40001
1.40001
1.40001
1.40001
1.40001
1.40001
1.40001
1.40001
1.40001
1.40001
1.40001
1.40001
1.40001
1.40001
1.40001
1.40001
1.40001
1.40001
1.40001
1.40001
1.40001
1.40001
1.40001
1.40554
2.91278
5.02568
5.18656
5.19286
5.20041
5.19401
5.18499
5.17805
5.17386
5.16985
5.16319
5.15268
5.13972
5.1239
5.10505
5.0852
5.06471
5.04341
5.01849
4.99198
4.96305
4.93028
4.89196
4.84873
4.8006
4.7489
4.6945
4.63611
4.57366
4.50618
4.43512
4.35636
4.2726
4.18185
4.08443
3.97636
3.86701
3.74396
3.62295
3.4936
1.40001
1.40001
1.40001
1.40001
1.40001
1.40001
1.40001
1.40001
1.40001
1.40001
1.40001
1.40001
1.40001
1.40001
1.40001
1.40001
1.40001
1.40001
1.40001
1.40001
1.40001
1.40001
1.40001
1.40001
1.40001
1.40001
1.40001
1.40001
1.40001
1.40001
1.40001
1.40001
1.40001
1.40001
1.40001
1.40001
1.40001
1.40001
1.40001
1.40001
1.40001
1.40001
1.40001
1.40001
1.40001
1.40001
1.40001
1.40001
1.40001
1.40001
1.40001
1.40001
1.40001
1.40001
1.40001
1.40001
1.54968
3.93696
5.20394
5.18327
5.17863
5.17073
5.16305
5.15496
5.14835
5.14212
5.13487
5.12451
5.11086
5.09345
5.07175
5.04866
5.02626
5.00379
4.97791
4.95055
4.92033
4.88724
4.8497
4.80834
4.76078
4.70851
4.65343
4.59408
4.53187
4.46555
4.39711
4.32105
4.24153
4.15707
4.06649
3.96708
3.86589
3.75455
3.64529
3.53103
1.40001
1.40001
1.40001
1.40001
1.40001
1.40001
1.40001
1.40001
1.40001
1.40001
1.40001
1.40001
1.40001
1.40001
1.40001
1.40001
1.40001
1.40001
1.40001
1.40001
1.40001
1.40001
1.40001
1.40001
1.40001
1.40001
1.40001
1.40001
1.40001
1.40001
1.40001
1.40001
1.40001
1.40001
1.40001
1.40001
1.40001
1.40001
1.40001
1.40001
1.40001
1.40001
1.40001
1.40001
1.40001
1.40001
1.40001
1.40001
1.40001
1.40001
1.40001
1.40001
1.40001
1.40001
1.40001
1.40001
1.40111
2.08368
4.75044
5.18966
5.15259
5.14961
5.14245
5.13302
5.12405
5.11476
5.10516
5.09354
5.07834
5.06098
5.03819
5.01313
4.98852
4.9644
4.93799
4.91012
4.8788
4.84584
4.80862
4.76736
4.72192
4.67116
4.61724
4.55891
4.49767
4.43313
4.36715
4.29369
4.21848
4.13893
4.05455
3.96154
3.86802
3.76865
3.66686
3.56396
1.40001
1.40001
1.40001
1.40001
1.40001
1.40001
1.40001
1.40001
1.40001
1.40001
1.40001
1.40001
1.40001
1.40001
1.40001
1.40001
1.40001
1.40001
1.40001
1.40001
1.40001
1.40001
1.40001
1.40001
1.40001
1.40001
1.40001
1.40001
1.40001
1.40001
1.40001
1.40001
1.40001
1.40001
1.40001
1.40001
1.40001
1.40001
1.40001
1.40001
1.40001
1.40001
1.40001
1.40001
1.40001
1.40001
1.40001
1.40001
1.40001
1.40001
1.40001
1.40001
1.40001
1.40001
1.40001
1.40001
1.40001
1.42766
3.07422
5.0401
5.12759
5.12732
5.12671
5.11907
5.10846
5.09578
5.08231
5.06715
5.04879
5.02982
5.00692
4.9807
4.95468
4.92906
4.90194
4.87315
4.84076
4.80776
4.77097
4.72951
4.68525
4.63688
4.58437
4.52854
4.4698
4.40774
4.34439
4.27452
4.20285
4.12654
4.04711
3.95979
3.87319
3.78227
3.68738
3.59402
1.40001
1.40001
1.40001
1.40001
1.40001
1.40001
1.40001
1.40001
1.40001
1.40001
1.40001
1.40001
1.40001
1.40001
1.40001
1.40001
1.40001
1.40001
1.40001
1.40001
1.40001
1.40001
1.40001
1.40001
1.40001
1.40001
1.40001
1.40001
1.40001
1.40001
1.40001
1.40001
1.40001
1.40001
1.40001
1.40001
1.40001
1.40001
1.40001
1.40001
1.40001
1.40001
1.40001
1.40001
1.40001
1.40001
1.40001
1.40001
1.40001
1.40001
1.40001
1.40001
1.40001
1.40001
1.40001
1.40001
1.40001
1.40006
1.57277
3.77171
5.09
5.13122
5.11949
5.1133
5.10099
5.08438
5.06664
5.04745
5.02619
5.00471
4.9808
4.95341
4.92607
4.89924
4.87081
4.84012
4.80654
4.7727
4.7369
4.69571
4.65219
4.60529
4.55486
4.49996
4.44427
4.38531
4.32501
4.25991
4.19121
4.11773
4.04256
3.96074
3.88057
3.79545
3.70836
3.62188
1.40001
1.40001
1.40001
1.40001
1.40001
1.40001
1.40001
1.40001
1.40001
1.40001
1.40001
1.40001
1.40001
1.40001
1.40001
1.40001
1.40001
1.40001
1.40001
1.40001
1.40001
1.40001
1.40001
1.40001
1.40001
1.40001
1.40001
1.40001
1.40001
1.40001
1.40001
1.40001
1.40001
1.40001
1.40001
1.40001
1.40001
1.40001
1.40001
1.40001
1.40001
1.40001
1.40001
1.40001
1.40001
1.40001
1.40001
1.40001
1.40001
1.40001
1.40001
1.40001
1.40001
1.40001
1.40001
1.40001
1.40001
1.40001
1.40157
1.79348
4.47306
5.17131
5.13769
5.11649
5.09217
5.06883
5.04661
5.0245
5.0014
4.97899
4.95423
4.92693
4.89894
4.87181
4.84377
4.81194
4.77776
4.74289
4.70767
4.66688
4.62349
4.5775
4.52882
4.47586
4.42165
4.36638
4.30873
4.24757
4.18269
4.11279
4.04119
3.96507
3.88968
3.80989
3.7295
3.64829
1.40001
1.40001
1.40001
1.40001
1.40001
1.40001
1.40001
1.40001
1.40001
1.40001
1.40001
1.40001
1.40001
1.40001
1.40001
1.40001
1.40001
1.40001
1.40001
1.40001
1.40001
1.40001
1.40001
1.40001
1.40001
1.40001
1.40001
1.40001
1.40001
1.40001
1.40001
1.40001
1.40001
1.40001
1.40001
1.40001
1.40001
1.40001
1.40001
1.40001
1.40001
1.40001
1.40001
1.40001
1.40001
1.40001
1.40001
1.40001
1.40001
1.40001
1.40001
1.40001
1.40001
1.40001
1.40001
1.40001
1.40001
1.40001
1.40001
1.40844
2.55287
4.8937
5.10688
5.07656
5.05718
5.03846
5.02032
4.99971
4.97781
4.95547
4.93085
4.90444
4.87733
4.84908
4.82076
4.78936
4.75475
4.7194
4.6836
4.64325
4.59993
4.55429
4.50623
4.4553
4.40208
4.34886
4.29315
4.23515
4.17434
4.10874
4.04105
3.97113
3.89915
3.82515
3.74964
3.67333
1.40001
1.40001
1.40001
1.40001
1.40001
1.40001
1.40001
1.40001
1.40001
1.40001
1.40001
1.40001
1.40001
1.40001
1.40001
1.40001
1.40001
1.40001
1.40001
1.40001
1.40001
1.40001
1.40001
1.40001
1.40001
1.40001
1.40001
1.40001
1.40001
1.40001
1.40001
1.40001
1.40001
1.40001
1.40001
1.40001
1.40001
1.40001
1.40001
1.40001
1.40001
1.40001
1.40001
1.40001
1.40001
1.40001
1.40001
1.40001
1.40001
1.40001
1.40001
1.40001
1.40001
1.40001
1.40001
1.40001
1.40001
1.40001
1.40001
1.40002
1.47703
3.19412
4.98328
5.03918
5.02627
5.02202
5.01172
4.99559
4.97531
4.95138
4.9247
4.89621
4.8675
4.83782
4.8064
4.77552
4.74024
4.70331
4.66613
4.62466
4.58103
4.53511
4.48709
4.4376
4.38603
4.334
4.2803
4.22518
4.16805
4.10664
4.04303
3.97777
3.90884
3.84003
3.76824
3.69622
1.40001
1.40001
1.40001
1.40001
1.40001
1.40001
1.40001
1.40001
1.40001
1.40001
1.40001
1.40001
1.40001
1.40001
1.40001
1.40001
1.40001
1.40001
1.40001
1.40001
1.40001
1.40001
1.40001
1.40001
1.40001
1.40001
1.40001
1.40001
1.40001
1.40001
1.40001
1.40001
1.40001
1.40001
1.40001
1.40001
1.40001
1.40001
1.40001
1.40001
1.40001
1.40001
1.40001
1.40001
1.40001
1.40001
1.40001
1.40001
1.40001
1.40001
1.40001
1.40001
1.40001
1.40001
1.40001
1.40001
1.40001
1.40001
1.40001
1.40001
1.4004
1.5976
3.5846
4.98324
5.01201
5.00665
4.99881
4.98512
4.9671
4.94441
4.91866
4.89069
4.86148
4.83098
4.79794
4.76439
4.72968
4.69182
4.65287
4.61064
4.5661
4.51963
4.47169
4.42305
4.37311
4.32202
4.26982
4.21723
4.16328
4.10535
4.04548
3.9832
3.91759
3.85303
3.78493
3.71645
1.40001
1.40001
1.40001
1.40001
1.40001
1.40001
1.40001
1.40001
1.40001
1.40001
1.40001
1.40001
1.40001
1.40001
1.40001
1.40001
1.40001
1.40001
1.40001
1.40001
1.40001
1.40001
1.40001
1.40001
1.40001
1.40001
1.40001
1.40001
1.40001
1.40001
1.40001
1.40001
1.40001
1.40001
1.40001
1.40001
1.40001
1.40001
1.40001
1.40001
1.40001
1.40001
1.40001
1.40001
1.40001
1.40001
1.40001
1.40001
1.40001
1.40001
1.40001
1.40001
1.40001
1.40001
1.40001
1.40001
1.40001
1.40001
1.40001
1.40001
1.40001
1.40218
1.72041
3.89755
5.00951
5.00847
4.99206
4.97498
4.95543
4.93297
4.90875
4.88293
4.85503
4.82463
4.79181
4.75767
4.72273
4.68537
4.64527
4.60227
4.55706
4.51029
4.4626
4.41454
4.36568
4.31549
4.26417
4.21336
4.16164
4.10616
4.04911
3.9889
3.9263
3.86484
3.80031
3.73487
1.40001
1.40001
1.40001
1.40001
1.40001
1.40001
1.40001
1.40001
1.40001
1.40001
1.40001
1.40001
1.40001
1.40001
1.40001
1.40001
1.40001
1.40001
1.40001
1.40001
1.40001
1.40001
1.40001
1.40001
1.40001
1.40001
1.40001
1.40001
1.40001
1.40001
1.40001
1.40001
1.40001
1.40001
1.40001
1.40001
1.40001
1.40001
1.40001
1.40001
1.40001
1.40001
1.40001
1.40001
1.40001
1.40001
1.40001
1.40001
1.40001
1.40001
1.40001
1.40001
1.40001
1.40001
1.40001
1.40001
1.40001
1.40001
1.40001
1.40001
1.40001
1.40001
1.40559
1.85438
4.17458
5.01617
5.00021
4.97587
4.95073
4.92532
4.89926
4.8732
4.84536
4.81534
4.78352
4.75019
4.71535
4.67806
4.63789
4.59521
4.55063
4.50479
4.45808
4.41072
4.3626
4.31314
4.26241
4.2126
4.16195
4.10826
4.05321
3.99494
3.9351
3.87648
3.81522
3.7527
1.40001
1.40001
1.40001
1.40001
1.40001
1.40001
1.40001
1.40001
1.40001
1.40001
1.40001
1.40001
1.40001
1.40001
1.40001
1.40001
1.40001
1.40001
1.40001
1.40001
1.40001
1.40001
1.40001
1.40001
1.40001
1.40001
1.40001
1.40001
1.40001
1.40001
1.40001
1.40001
1.40001
1.40001
1.40001
1.40001
1.40001
1.40001
1.40001
1.40001
1.40001
1.40001
1.40001
1.40001
1.40001
1.40001
1.40001
1.40001
1.40001
1.40001
1.40001
1.40001
1.40001
1.40001
1.40001
1.40001
1.40001
1.40001
1.40001
1.40001
1.40001
1.40001
1.40002
1.41116
2.0039
4.37871
5.02617
4.99857
4.96722
4.93374
4.90376
4.87312
4.84095
4.80879
4.77581
4.74206
4.7073
4.67065
4.63168
4.59057
4.54784
4.50368
4.45809
4.41136
4.36381
4.31505
4.26497
4.21573
4.16585
4.11371
4.06018
4.00386
3.94623
3.88983
3.8309
3.77108
1.40001
1.40001
1.40001
1.40001
1.40001
1.40001
1.40001
1.40001
1.40001
1.40001
1.40001
1.40001
1.40001
1.40001
1.40001
1.40001
1.40001
1.40001
1.40001
1.40001
1.40001
1.40001
1.40001
1.40001
1.40001
1.40001
1.40001
1.40001
1.40001
1.40001
1.40001
1.40001
1.40001
1.40001
1.40001
1.40001
1.40001
1.40001
1.40001
1.40001
1.40001
1.40001
1.40001
1.40001
1.40001
1.40001
1.40001
1.40001
1.40001
1.40001
1.40001
1.40001
1.40001
1.40001
1.40001
1.40001
1.40001
1.40001
1.40001
1.40001
1.40001
1.40001
1.40001
1.40004
1.41971
2.14846
4.55311
5.02616
4.99463
4.95757
4.91832
4.88067
4.84437
4.80879
4.77263
4.73713
4.70141
4.66461
4.62628
4.58639
4.5452
4.50264
4.45855
4.41308
4.3666
4.31904
4.27034
4.22203
4.17318
4.12225
4.0697
4.01483
3.95886
3.90388
3.84673
3.78927
1.40001
1.40001
1.40001
1.40001
1.40001
1.40001
1.40001
1.40001
1.40001
1.40001
1.40001
1.40001
1.40001
1.40001
1.40001
1.40001
1.40001
1.40001
1.40001
1.40001
1.40001
1.40001
1.40001
1.40001
1.40001
1.40001
1.40001
1.40001
1.40001
1.40001
1.40001
1.40001
1.40001
1.40001
1.40001
1.40001
1.40001
1.40001
1.40001
1.40001
1.40001