/*--------------------------------*- C++ -*----------------------------------*\
  =========                 |
  \\      /  F ield         | OpenFOAM: The Open Source CFD Toolbox
   \\    /   O peration     | Website:  https://openfoam.org
    \\  /    A nd           | Version:  7
     \\/     M anipulation  |
\*---------------------------------------------------------------------------*/
FoamFile
{
    version     2.0;
    format      ascii;
    class       volScalarField;
    location    "6";
    object      T;
}
// * * * * * * * * * * * * * * * * * * * * * * * * * * * * * * * * * * * * * //

dimensions      [0 0 0 1 0 0 0];

internalField   nonuniform List<scalar> 
19968
(
1
1
1
1
1
1
1
1
1
1
1
1
1
1
1
1
1
1
1
1
1
1
1
1
1
1
1
1
1
1
1
1
1
1
1
1
1
1
1
1
1
1
1
1
1
1
1
1
1.27693
2.45883
2.69363
2.69412
2.69692
2.69961
2.70305
2.70752
2.71289
2.71836
2.72318
2.72711
2.73034
2.73325
2.73616
2.73918
2.74249
2.74623
2.75023
2.7541
2.75746
2.7602
2.7625
2.7647
2.76708
2.76974
2.77252
2.77522
2.77766
2.77986
2.78191
2.7839
2.7859
2.7879
2.7899
2.79186
2.79372
2.79543
2.79692
2.7982
2.79932
2.80032
2.8012
2.80191
2.80241
2.80269
2.80281
2.80287
1
1
1
1
1
1
1
1
1
1
1
1
1
1
1
1
1
1
1
1
1
1
1
1
1
1
1
1
1
1
1
1
1
1
1
1
1
1
1
1
1
1
1
1
1
1
1
1
1.26303
2.45134
2.69283
2.69405
2.69688
2.69959
2.70306
2.70751
2.71281
2.71821
2.72299
2.72692
2.73017
2.73307
2.73598
2.739
2.74233
2.74607
2.75004
2.75386
2.75717
2.75988
2.76217
2.76438
2.76677
2.76944
2.77225
2.77497
2.77744
2.77967
2.78173
2.78373
2.78569
2.78764
2.78957
2.79148
2.79331
2.795
2.7965
2.7978
2.79892
2.79991
2.80077
2.80146
2.80195
2.80222
2.80234
2.8024
1
1
1
1
1
1
1
1
1
1
1
1
1
1
1
1
1
1
1
1
1
1
1
1
1
1
1
1
1
1
1
1
1
1
1
1
1
1
1
1
1
1
1
1
1
1
1
1
1.23024
2.43296
2.69193
2.69305
2.69633
2.69927
2.70288
2.70731
2.71237
2.71753
2.72222
2.72619
2.72955
2.73253
2.73549
2.73854
2.74193
2.74567
2.7496
2.75334
2.75657
2.75925
2.76154
2.76377
2.7662
2.7689
2.77172
2.77446
2.77697
2.77924
2.78134
2.78335
2.78529
2.78717
2.78902
2.79084
2.79261
2.79428
2.79579
2.79712
2.79828
2.79928
2.80012
2.80078
2.80125
2.80151
2.80163
2.8017
1
1
1
1
1
1
1
1
1
1
1
1
1
1
1
1
1
1
1
1
1
1
1
1
1
1
1
1
1
1
1
1
1
1
1
1
1
1
1
1
1
1
1
1
1
1
1
1
1.18227
2.40393
2.68998
2.69192
2.69585
2.69932
2.70313
2.7074
2.712
2.71669
2.72114
2.72513
2.72865
2.73178
2.73486
2.738
2.74145
2.74517
2.749
2.7526
2.75574
2.75836
2.76068
2.76297
2.76546
2.76818
2.77102
2.77377
2.7763
2.77861
2.78075
2.78275
2.78464
2.78644
2.78816
2.78986
2.79153
2.79315
2.79465
2.79599
2.79716
2.79816
2.79899
2.79965
2.80012
2.8004
2.80056
2.80067
1
1
1
1
1
1
1
1
1
1
1
1
1
1
1
1
1
1
1
1
1
1
1
1
1
1
1
1
1
1
1
1
1
1
1
1
1
1
1
1
1
1
1
1
1
1
1
1
1.11911
2.36436
2.68758
2.69092
2.69557
2.6996
2.70358
2.70761
2.71173
2.71595
2.72013
2.7241
2.72778
2.73112
2.73438
2.73761
2.74109
2.74469
2.74834
2.75174
2.75473
2.75731
2.75968
2.76207
2.76464
2.7674
2.77023
2.77296
2.77549
2.77783
2.78
2.78202
2.78388
2.7856
2.78723
2.78881
2.79038
2.79192
2.79337
2.79468
2.7958
2.79673
2.79746
2.79803
2.79844
2.7987
2.79886
2.79899
1
1
1
1
1
1
1
1
1
1
1
1
1
1
1
1
1
1
1
1
1
1
1
1
1
1
1
1
1
1
1
1
1
1
1
1
1
1
1
1
1
1
1
1
1
1
1
1
1.0047
2.29568
2.68527
2.69098
2.69591
2.7004
2.70439
2.70817
2.71186
2.71559
2.71939
2.72324
2.72709
2.73074
2.73428
2.73762
2.74102
2.74437
2.74767
2.75071
2.75344
2.75593
2.75833
2.76082
2.76344
2.76617
2.76891
2.77155
2.77401
2.77631
2.77846
2.78047
2.7823
2.78396
2.7855
2.787
2.78851
2.79001
2.79145
2.79275
2.79387
2.79478
2.7955
2.79604
2.79645
2.79674
2.79693
2.7971
1
1
1
1
1
1
1
1
1
1
1
1
1
1
1
1
1
1
1
1
1
1
1
1
1
1
1
1
1
1
1
1
1
1
1
1
1
1
1
1
1
1
1
1
1
1
1
1
1.00002
2.20677
2.68007
2.68763
2.69207
2.69685
2.70108
2.70506
2.70887
2.71259
2.71629
2.72015
2.72415
2.72815
2.73202
2.73557
2.73902
2.74224
2.74528
2.74806
2.75066
2.75318
2.75575
2.75842
2.76117
2.76391
2.76659
2.76913
2.77153
2.7738
2.77595
2.77795
2.77978
2.78144
2.78297
2.78445
2.78593
2.7874
2.78881
2.79008
2.79116
2.79204
2.79272
2.79324
2.79364
2.79396
2.79417
2.79436
1
1
1
1
1
1
1
1
1
1
1
1
1
1
1
1
1
1
1
1
1
1
1
1
1
1
1
1
1
1
1
1
1
1
1
1
1
1
1
1
1
1
1
1
1
1
1
1
1
2.08055
2.67118
2.6843
2.68823
2.69279
2.69705
2.70129
2.70547
2.70952
2.71342
2.71736
2.72136
2.72535
2.72919
2.73276
2.73623
2.73943
2.7424
2.74513
2.74772
2.75033
2.75304
2.75585
2.75865
2.76136
2.76394
2.76639
2.76872
2.77095
2.77306
2.77504
2.77684
2.77848
2.78
2.78147
2.78292
2.78435
2.78569
2.78689
2.7879
2.78871
2.78934
2.78982
2.79019
2.7905
2.7907
2.7909
1
1
1
1
1
1
1
1
1
1
1
1
1
1
1
1
1
1
1
1
1
1
1
1
1
1
1
1
1
1
1
1
1
1
1
1
1
1
1
1
1
1
1
1
1
1
1
1
1
1.90633
2.64415
2.6778
2.68187
2.68664
2.69102
2.69556
2.70023
2.70488
2.70921
2.71335
2.71736
2.72125
2.72496
2.72846
2.73191
2.73515
2.73815
2.74096
2.74365
2.74638
2.74921
2.75208
2.75487
2.75749
2.75997
2.76235
2.76466
2.76688
2.76898
2.77093
2.77271
2.77432
2.77583
2.77729
2.77872
2.78011
2.78141
2.78256
2.78353
2.78432
2.78493
2.78538
2.78572
2.786
2.78617
2.78635
1
1
1
1
1
1
1
1
1
1
1
1
1
1
1
1
1
1
1
1
1
1
1
1
1
1
1
1
1
1
1
1
1
1
1
1
1
1
1
1
1
1
1
1
1
1
1
1
1
1.67931
2.58749
2.67169
2.67597
2.6811
2.6855
2.68997
2.69477
2.69985
2.70459
2.70886
2.7128
2.7165
2.72001
2.72337
2.72677
2.73004
2.73312
2.7361
2.73899
2.74185
2.74472
2.74752
2.75017
2.75259
2.7549
2.75718
2.75946
2.76168
2.76376
2.76568
2.76741
2.769
2.77051
2.77198
2.77341
2.77477
2.77601
2.77711
2.77804
2.77876
2.77929
2.77964
2.77987
2.78004
2.78012
2.78022
1
1
1
1
1
1
1
1
1
1
1
1
1
1
1
1
1
1
1
1
1
1
1
1
1
1
1
1
1
1
1
1
1
1
1
1
1
1
1
1
1
1
1
1
1
1
1
1
1
1.37474
2.48018
2.67026
2.6718
2.67758
2.68104
2.68508
2.68959
2.69467
2.69954
2.70379
2.70759
2.71111
2.71446
2.7177
2.72103
2.72432
2.72746
2.73055
2.73365
2.73665
2.73957
2.74227
2.74473
2.74697
2.74913
2.75134
2.7536
2.7558
2.75781
2.7596
2.76116
2.76257
2.76389
2.76516
2.76638
2.76753
2.76861
2.76961
2.7705
2.77124
2.77177
2.77212
2.77232
2.77242
2.77243
2.77247
1
1
1
1
1
1
1
1
1
1
1
1
1
1
1
1
1
1
1
1
1
1
1
1
1
1
1
1
1
1
1
1
1
1
1
1
1
1
1
1
1
1
1
1
1
1
1
1
1
1.01543
2.29444
2.67705
2.67678
2.67873
2.68138
2.68491
2.68863
2.69253
2.69623
2.69956
2.70273
2.70583
2.70886
2.71181
2.71482
2.71783
2.72074
2.72367
2.72673
2.72969
2.73249
2.73504
2.73729
2.73934
2.74136
2.74349
2.74573
2.74794
2.74997
2.75172
2.75322
2.75454
2.75577
2.75693
2.75803
2.75906
2.76
2.76085
2.76155
2.762
2.76224
2.7622
2.76192
2.76166
2.76142
2.76128
1
1
1
1
1
1
1
1
1
1
1
1
1
1
1
1
1
1
1
1
1
1
1
1
1
1
1
1
1
1
1
1
1
1
1
1
1
1
1
1
1
1
1
1
1
1
1
1
1
1.00003
2.01171
2.64351
2.6618
2.66622
2.67149
2.67634
2.68057
2.68427
2.68757
2.69059
2.69355
2.69658
2.69966
2.70269
2.70565
2.70854
2.71135
2.71414
2.71706
2.72
2.72276
2.72529
2.72751
2.72951
2.73142
2.73343
2.73558
2.73773
2.73973
2.74144
2.74283
2.74397
2.74493
2.74575
2.74644
2.747
2.74743
2.74774
2.74792
2.74799
2.74802
2.74795
2.74766
2.74733
2.7469
2.74661
1
1
1
1
1
1
1
1
1
1
1
1
1
1
1
1
1
1
1
1
1
1
1
1
1
1
1
1
1
1
1
1
1
1
1
1
1
1
1
1
1
1
1
1
1
1
1
1
1
1
1.5392
2.51138
2.64606
2.65479
2.66324
2.66889
2.67347
2.67724
2.68049
2.68343
2.68628
2.68924
2.69236
2.6955
2.69847
2.7012
2.7037
2.70607
2.70848
2.711
2.71343
2.71571
2.71775
2.71953
2.72115
2.72275
2.72445
2.72622
2.72791
2.72935
2.73044
2.73122
2.73176
2.73213
2.73239
2.73263
2.73277
2.73277
2.73255
2.73207
2.73127
2.73015
2.72832
2.72571
2.72269
2.72017
1
1
1
1
1
1
1
1
1
1
1
1
1
1
1
1
1
1
1
1
1
1
1
1
1
1
1
1
1
1
1
1
1
1
1
1
1
1
1
1
1
1
1
1
1
1
1
1
1
1
1.02709
2.24501
2.65337
2.65433
2.65795
2.66222
2.66593
2.66894
2.67151
2.67393
2.67647
2.6793
2.68242
2.68563
2.68864
2.69127
2.69352
2.69557
2.69755
2.69959
2.70163
2.70353
2.7053
2.70689
2.70828
2.70948
2.7106
2.71176
2.71295
2.71398
2.71462
2.71481
2.71459
2.71407
2.71342
2.71272
2.71176
2.71022
2.70784
2.70464
2.70091
2.69702
2.6935
2.68987
2.68728
2.68576
1
1
1
1
1
1
1
1
1
1
1
1
1
1
1
1
1
1
1
1
1
1
1
1
1
1
1
1
1
1
1
1
1
1
1
1
1
1
1
1
1
1
1
1
1
1
1
1
1
1
1.00005
1.74539
2.55025
2.63489
2.64303
2.64816
2.65148
2.65448
2.65739
2.66032
2.66339
2.66664
2.67001
2.67339
2.67658
2.67941
2.68182
2.68389
2.6857
2.68726
2.68868
2.68997
2.69124
2.69264
2.69388
2.69454
2.69498
2.69536
2.69572
2.69593
2.69581
2.69517
2.69381
2.69186
2.68965
2.68737
2.68483
2.68163
2.67743
2.67222
2.66628
2.66024
2.65474
2.65265
2.64996
2.6643
1
1
1
1
1
1
1
1
1
1
1
1
1
1
1
1
1
1
1
1
1
1
1
1
1
1
1
1
1
1
1
1
1
1
1
1
1
1
1
1
1
1
1
1
1
1
1
1
1
1
1
1.09125
2.32658
2.63417
2.63474
2.63761
2.64057
2.64347
2.64623
2.649
2.652
2.65524
2.65856
2.6618
2.66486
2.66768
2.6702
2.67234
2.67412
2.67549
2.67641
2.67719
2.67796
2.67895
2.67981
2.68001
2.67991
2.67955
2.67896
2.67823
2.67719
2.67555
2.67304
2.66964
2.66558
2.66112
2.65609
2.64995
2.64172
2.63064
2.61521
2.59453
2.5647
2.52292
2.45973
2.33119
1
1
1
1
1
1
1
1
1
1
1
1
1
1
1
1
1
1
1
1
1
1
1
1
1
1
1
1
1
1
1
1
1
1
1
1
1
1
1
1
1
1
1
1
1
1
1
1
1
1
1
1.00065
1.99529
2.60443
2.61698
2.62126
2.62512
2.62896
2.63244
2.63592
2.63964
2.6435
2.64705
2.64995
2.65242
2.65485
2.65741
2.66008
2.66252
2.66422
2.66501
2.66542
2.66572
2.66619
2.66667
2.66665
2.66626
2.66535
2.66399
2.66233
2.66032
2.65771
2.65416
2.64949
2.64367
2.63699
2.62914
2.61979
2.60733
2.59098
2.56783
2.5374
2.49335
2.43656
2.32732
2.16195
1
1
1
1
1
1
1
1
1
1
1
1
1
1
1
1
1
1
1
1
1
1
1
1
1
1
1
1
1
1
1
1
1
1
1
1
1
1
1
1
1
1
1
1
1
1
1
1
1
1
1
0.999999
1.38817
2.436
2.59953
2.6079
2.61286
2.61597
2.61915
2.62281
2.62708
2.63162
2.63577
2.63863
2.64065
2.64254
2.64488
2.64763
2.65035
2.65215
2.65302
2.65325
2.65321
2.65315
2.6531
2.65282
2.65207
2.65066
2.64858
2.646
2.6429
2.63916
2.63437
2.62835
2.62079
2.61195
2.60135
2.58887
2.57289
2.55233
2.52478
2.48773
2.43948
2.36635
2.25964
2.13868
1
1
1
1
1
1
1
1
1
1
1
1
1
1
1
1
1
1
1
1
1
1
1
1
1
1
1
1
1
1
1
1
1
1
1
1
1
1
1
1
1
1
1
1
1
1
1
1
1
1
1
1
1.01479
2.12599
2.60204
2.60035
2.60061
2.60223
2.605
2.60859
2.61288
2.61779
2.62254
2.62597
2.62802
2.62954
2.63132
2.63372
2.63628
2.6382
2.63937
2.63976
2.63959
2.63921
2.63865
2.63788
2.63669
2.63486
2.63226
2.62898
2.62496
2.62015
2.61414
2.60682
2.59776
2.58711
2.57439
2.55933
2.54087
2.5176
2.48787
2.44896
2.3986
2.33069
2.24494
2.1475
1
1
1
1
1
1
1
1
1
1
1
1
1
1
1
1
1
1
1
1
1
1
1
1
1
1
1
1
1
1
1
1
1
1
1
1
1
1
1
1
1
1
1
1
1
1
1
1
1
1
1
1
1.00001
1.47519
2.45407
2.58576
2.58919
2.59233
2.5944
2.597
2.60024
2.60463
2.60906
2.61294
2.61534
2.6166
2.61789
2.61966
2.6217
2.62354
2.62476
2.62531
2.62517
2.62468
2.62382
2.62259
2.62085
2.61852
2.6154
2.61155
2.60683
2.60117
2.59419
2.58578
2.57555
2.56352
2.54936
2.53262
2.51263
2.48814
2.45867
2.42025
2.37315
2.31587
2.24773
2.17083
1
1
1
1
1
1
1
1
1
1
1
1
1
1
1
1
1
1
1
1
1
1
1
1
1
1
1
1
1
1
1
1
1
1
1
1
1
1
1
1
1
1
1
1
1
1
1
1
1
1
1
1
1
1.02222
2.12697
2.58328
2.58401
2.5848
2.58653
2.58855
2.59081
2.5941
2.59791
2.60124
2.60325
2.60346
2.6039
2.60489
2.60642
2.60815
2.60951
2.61027
2.61013
2.60954
2.60842
2.6068
2.60458
2.60174
2.59811
2.59374
2.58846
2.58219
2.57453
2.56534
2.55433
2.54148
2.52659
2.50912
2.48865
2.46395
2.436
2.39951
2.35844
2.31007
2.25431
2.19417
1
1
1
1
1
1
1
1
1
1
1
1
1
1
1
1
1
1
1
1
1
1
1
1
1
1
1
1
1
1
1
1
1
1
1
1
1
1
1
1
1
1
1
1
1
1
1
1
1
1
1
1
1
1.00003
1.41366
2.41422
2.57456
2.57502
2.57741
2.57904
2.5811
2.58426
2.58754
2.59011
2.59145
2.59096
2.59038
2.59041
2.59101
2.59224
2.59358
2.59442
2.5942
2.59348
2.59214
2.5903
2.58787
2.58472
2.58069
2.57579
2.57004
2.56339
2.55539
2.54582
2.53449
2.52136
2.50632
2.48883
2.46879
2.4444
2.4181
2.3849
2.34911
2.30829
2.26131
2.21165
1
1
1
1
1
1
1
1
1
1
1
1
1
1
1
1
1
1
1
1
1
1
1
1
1
1
1
1
1
1
1
1
1
1
1
1
1
1
1
1
1
1
1
1
1
1
1
1
1
1
1
1
1
1
1.0153
2.03977
2.55587
2.56542
2.56662
2.56947
2.5724
2.57532
2.57811
2.58004
2.58081
2.58013
2.57882
2.57764
2.57748
2.57783
2.57864
2.57921
2.57878
2.57769
2.57578
2.57347
2.57077
2.56746
2.56325
2.558
2.55189
2.54494
2.53668
2.52693
2.51556
2.50256
2.48788
2.47096
2.4518
2.42878
2.40413
2.37427
2.34288
2.30756
2.26785
2.22528
1
1
1
1
1
1
1
1
1
1
1
1
1
1
1
1
1
1
1
1
1
1
1
1
1
1
1
1
1
1
1
1
1
1
1
1
1
1
1
1
1
1
1
1
1
1
1
1
1
1
1
1
1
1
1.00001
1.22148
2.33719
2.56127
2.55689
2.55931
2.56147
2.56432
2.56675
2.56821
2.56869
2.56828
2.56699
2.56526
2.56427
2.56388
2.56389
2.5639
2.56328
2.56182
2.55924
2.55631
2.55327
2.54988
2.54569
2.54044
2.5342
2.52699
2.51858
2.50881
2.49765
2.48501
2.47103
2.45493
2.43693
2.41594
2.39304
2.36613
2.33822
2.30649
2.27267
2.23587
1
1
1
1
1
1
1
1
1
1
1
1
1
1
1
1
1
1
1
1
1
1
1
1
1
1
1
1
1
1
1
1
1
1
1
1
1
1
1
1
1
1
1
1
1
1
1
1
1
1
1
1
1
1
1
1.00349
1.8464
2.49621
2.53355
2.54171
2.54834
2.55132
2.55342
2.5547
2.55519
2.55509
2.55436
2.55304
2.55201
2.55121
2.55044
2.54969
2.54863
2.54681
2.54368
2.54006
2.53634
2.53253
2.5282
2.52314
2.51694
2.50954
2.50102
2.49122
2.48028
2.46808
2.45497
2.4399
2.4233
2.40457
2.38367
2.3596
2.33454
2.30555
2.2764
2.24454
1
1
1
1
1
1
1
1
1
1
1
1
1
1
1
1
1
1
1
1
1
1
1
1
1
1
1
1
1
1
1
1
1
1
1
1
1
1
1
1
1
1
1
1
1
1
1
1
1
1
1
1
1
1
1
1
1.09876
2.1864
2.53231
2.53366
2.53745
2.53923
2.54066
2.5416
2.54211
2.54217
2.54199
2.54143
2.54071
2.53983
2.53851
2.53699
2.5353
2.53301
2.5294
2.52515
2.52059
2.51611
2.51145
2.50649
2.50034
2.49292
2.48444
2.47462
2.4639
2.45213
2.43984
2.42573
2.41056
2.39381
2.37504
2.35352
2.33073
2.30486
2.27891
2.25116
1
1
1
1
1
1
1
1
1
1
1
1
1
1
1
1
1
1
1
1
1
1
1
1
1
1
1
1
1
1
1
1
1
1
1
1
1
1
1
1
1
1
1
1
1
1
1
1
1
1
1
1
1
1
1
1
1.00065
1.43033
2.35386
2.51629
2.51658
2.52083
2.52394
2.52577
2.52693
2.52724
2.52742
2.52748
2.52729
2.52703
2.52595
2.52423
2.52218
2.51954
2.51574
2.51117
2.50597
2.50099
2.4958
2.49035
2.48428
2.47699
2.46868
2.45905
2.4485
2.4371
2.42541
2.41206
2.39821
2.38308
2.36634
2.34695
2.32664
2.30415
2.28047
2.25596
1
1
1
1
1
1
1
1
1
1
1
1
1
1
1
1
1
1
1
1
1
1
1
1
1
1
1
1
1
1
1
1
1
1
1
1
1
1
1
1
1
1
1
1
1
1
1
1
1
1
1
1
1
1
1
1
1
1.01648
1.88329
2.46919
2.50026
2.50634
2.50976
2.51107
2.51216
2.51242
2.51257
2.51275
2.51281
2.51303
2.5125
2.51106
2.50906
2.50637
2.50259
2.49792
2.49245
2.4872
2.48171
2.47575
2.4695
2.46238
2.45413
2.44482
2.43459
2.4235
2.41216
2.3995
2.38652
2.3724
2.35727
2.33972
2.32169
2.30198
2.28034
2.25866
1
1
1
1
1
1
1
1
1
1
1
1
1
1
1
1
1
1
1
1
1
1
1
1
1
1
1
1
1
1
1
1
1
1
1
1
1
1
1
1
1
1
1
1
1
1
1
1
1
1
1
1
1
1
1
1
1
1.00003
1.11442
2.11828
2.48286
2.49864
2.49728
2.49842
2.49878
2.49856
2.49847
2.4985
2.49862
2.49896
2.49873
2.49758
2.49573
2.49314
2.48946
2.48475
2.47926
2.47393
2.46858
2.4625
2.45618
2.44915
2.44112
2.43177
2.42191
2.41114
2.40007
2.38809
2.37551
2.36196
2.34793
2.33198
2.31593
2.29813
2.27911
2.25955
1
1
1
1
1
1
1
1
1
1
1
1
1
1
1
1
1
1
1
1
1
1
1
1
1
1
1
1
1
1
1
1
1
1
1
1
1
1
1
1
1
1
1
1
1
1
1
1
1
1
1
1
1
1
1
1
1
1
1.00089
1.26232
2.2683
2.48165
2.48005
2.48122
2.4811
2.48117
2.48162
2.48241
2.48317
2.48388
2.48376
2.48291
2.48127
2.479
2.47583
2.47135
2.46616
2.46095
2.45597
2.45015
2.44396
2.43716
2.4295
2.42048
2.41074
2.40047
2.38956
2.37796
2.36574
2.35259
2.33912
2.32457
2.30986
2.29362
2.27669
2.25891
1
1
1
1
1
1
1
1
1
1
1
1
1
1
1
1
1
1
1
1
1
1
1
1
1
1
1
1
1
1
1
1
1
1
1
1
1
1
1
1
1
1
1
1
1
1
1
1
1
1
1
1
1
1
1
1
1
1
1
1.00495
1.64733
2.37459
2.45726
2.45437
2.45587
2.45804
2.46083
2.46342
2.46564
2.4672
2.46727
2.46681
2.46569
2.46377
2.46112
2.45731
2.4526
2.44783
2.44326
2.43801
2.43226
2.4259
2.41865
2.41025
2.40077
2.39082
2.38005
2.36872
2.3569
2.34423
2.33125
2.31787
2.30388
2.28908
2.2735
2.25729
1
1
1
1
1
1
1
1
1
1
1
1
1
1
1
1
1
1
1
1
1
1
1
1
1
1
1
1
1
1
1
1
1
1
1
1
1
1
1
1
1
1
1
1
1
1
1
1
1
1
1
1
1
1
1
1
1
1
1
1.00001
1.04696
1.90315
2.41667
2.44298
2.44227
2.44417
2.44647
2.44865
2.45046
2.4515
2.45138
2.45074
2.4497
2.44808
2.44558
2.4426
2.43855
2.43424
2.43014
2.4254
2.42028
2.41452
2.40784
2.4002
2.3914
2.38185
2.37148
2.36058
2.34925
2.33711
2.32471
2.31205
2.29854
2.28488
2.2702
2.25512
1
1
1
1
1
1
1
1
1
1
1
1
1
1
1
1
1
1
1
1
1
1
1
1
1
1
1
1
1
1
1
1
1
1
1
1
1
1
1
1
1
1
1
1
1
1
1
1
1
1
1
1
1
1
1
1
1
1
1
1
1.00019
1.12955
2.02275
2.41116
2.43379
2.43613
2.43755
2.43778
2.43787
2.43761
2.43685
2.43562
2.43411
2.43223
2.42964
2.4267
2.42343
2.41968
2.41599
2.41188
2.40737
2.40227
2.39636
2.38957
2.38167
2.37274
2.36294
2.35268
2.34201
2.33047
2.31869
2.30653
2.29365
2.28093
2.26713
2.25293
1
1
1
1
1
1
1
1
1
1
1
1
1
1
1
1
1
1
1
1
1
1
1
1
1
1
1
1
1
1
1
1
1
1
1
1
1
1
1
1
1
1
1
1
1
1
1
1
1
1
1
1
1
1
1
1
1
1
1
1
1
1.00118
1.20973
2.09918
2.39721
2.42832
2.42755
2.42746
2.42689
2.42576
2.42429
2.42255
2.42042
2.41786
2.41488
2.41173
2.4086
2.40527
2.40177
2.39799
2.39389
2.38934
2.38415
2.37815
2.37113
2.36299
2.35389
2.34442
2.3345
2.32372
2.31268
2.30105
2.28894
2.27705
2.26425
2.25092
1
1
1
1
1
1
1
1
1
1
1
1
1
1
1
1
1
1
1
1
1
1
1
1
1
1
1
1
1
1
1
1
1
1
1
1
1
1
1
1
1
1
1
1
1
1
1
1
1
1
1
1
1
1
1
1
1
1
1
1
1
1
1.00309
1.29103
2.15092
2.38883
2.40968
2.41258
2.41309
2.41273
2.41169
2.41012
2.40781
2.40493
2.40171
2.39837
2.39502
2.39156
2.38794
2.38417
2.3802
2.37594
2.37117
2.36567
2.3593
2.35189
2.34354
2.33487
2.32573
2.31583
2.30564
2.29481
2.2837
2.27282
2.26114
2.24885
1
1
1
1
1
1
1
1
1
1
1
1
1
1
1
1
1
1
1
1
1
1
1
1
1
1
1
1
1
1
1
1
1
1
1
1
1
1
1
1
1
1
1
1
1
1
1
1
1
1
1
1
1
1
1
1
1
1
1
1
1
1
1
1.00625
1.37215
2.19005
2.37497
2.38975
2.39439
2.39581
2.39631
2.39559
2.39396
2.39171
2.38887
2.38575
2.38252
2.37912
2.37551
2.37169
2.36764
2.36324
2.35837
2.35293
2.34686
2.33999
2.33229
2.32433
2.31595
2.30694
2.29766
2.28785
2.2778
2.26799
2.25739
2.24628
1
1
1
1
1
1
1
1
1
1
1
1
1
1
1
1
1
1
1
1
1
1
1
1
1
1
1
1
1
1
1
1
1
1
1
1
1
1
1
1
1
1
1
1
1
1
1
1
1
1
1
1
1
1
1
1
1
1
1
1
1
1
1
1.00001
1.01121
1.44411
2.22061
2.36452
2.37006
2.37362
2.37554
2.37631
2.37604
2.37507
2.37339
2.37136
2.369
2.36626
2.3631
2.35951
2.35551
2.35103
2.34603
2.34052
2.3345
2.3279
2.32068
2.31322
2.30547
2.29723
2.28871
2.27981
2.27074
2.26188
2.25235
2.24246
1
1
1
1
1
1
1
1
1
1
1
1
1
1
1
1
1
1
1
1
1
1
1
1
1
1
1
1
1
1
1
1
1
1
1
1
1
1
1
1
1
1
1
1
1
1
1
1
1
1
1
1
1
1
1
1
1
1
1
1
1
1
1
1
1.00003
1.01763
1.5319
2.24482
2.35364
2.35319
2.35436
2.35466
2.35492
2.35515
2.35501
2.35447
2.35339
2.35171
2.34939
2.34644
2.34287
2.3387
2.33394
2.32858
2.3227
2.31634
2.30949
2.3024
2.29507
2.2873
2.27927
2.27105
2.26279
2.25466
2.24608
2.23723
1
1
1
1
1
1
1
1
1
1
1
1
1
1
1
1
1
1
1
1
1
1
1
1
1
1
1
1
1
1
1
1
1
1
1
1
1
1
1
1
1
1
1
1
1
1
1
1
1
1
1
1
1
1
1
1
1
1
1
1
1
1
1
1
1
1.00005
1.02874
1.59982
2.258
2.3409
2.33825
2.33691
2.33637
2.33592
2.33583
2.33568
2.3353
2.33453
2.33321
2.33124
2.32854
2.32511
2.32098
2.31618
2.31082
2.30495
2.2986
2.29192
2.28493
2.27756
2.2699
2.2622
2.25454
2.24687
2.2389
2.23072
1
1
1
1
1
1
1
1
1
1
1
1
1
1
1
1
1
1
1
1
1
1
1
1
1
1
1
1
1
1
1
1
1
1
1
1
1
1
1
1
1
1
1
1
1
1
1
1
1
1
1
1
1
1
1
1
1
1
1
1
1
1
1
1
1
1
1.00011
1.04083
1.62355
2.25302
2.32838
2.32574
2.3237
2.32211
2.32072
2.31947
2.31826
2.31694
2.31549
2.31387
2.31185
2.30928
2.30611
2.3023
2.29786
2.29282
2.28723
2.28116
2.27469
2.26782
2.2606
2.25336
2.24615
2.23881
2.23122
2.22343
1
1
1
1
1
1
1
1
1
1
1
1
1
1
1
1
1
1
1
1
1
1
1
1
1
1
1
1
1
1
1
1
1
1
1
1
1
1
1
1
1
1
1
1
1
1
1
1
1
1
1
1
1
1
1
1
1
1
1
1
1
1
1
1
1
1
1
1.00019
1.04649
1.61212
2.23699
2.31752
2.31531
2.31293
2.31029
2.30751
2.3048
2.30205
2.29943
2.297
2.2946
2.29215
2.28948
2.28644
2.28292
2.27886
2.27426
2.26908
2.26345
2.25736
2.25093
2.2443
2.23764
2.2307
2.22346
2.21593
1
1
1
1
1
1
1
1
1
1
1
1
1
1
1
1
1
1
1
1
1
1
1
1
1
1
1
1
1
1
1
1
1
1
1
1
1
1
1
1
1
1
1
1
1
1
1
1
1
1
1
1
1
1
1
1
1
1
1
1
1
1
1
1
1
1
1
1
1.00024
1.04479
1.59626
2.21621
2.30553
2.30413
2.30101
2.2978
2.2941
2.29056
2.28709
2.28356
2.2801
2.27682
2.27365
2.27047
2.26716
2.26359
2.25968
2.25534
2.2506
2.24546
2.23996
2.23415
2.22815
2.2218
2.21501
2.20796
1
1
1
1
1
1
1
1
1
1
1
1
1
1
1
1
1
1
1
1
1
1
1
1
1
1
1
1
1
1
1
1
1
1
1
1
1
1
1
1
1
1
1
1
1
1
1
1
1
1
1
1
1
1
1
1
1
1
1
1
1
1
1
1
1
1
1
1
1
1.00023
1.04176
1.56701
2.18768
2.29259
2.29205
2.28865
2.28513
2.28124
2.27735
2.27331
2.26919
2.26501
2.26089
2.25685
2.25287
2.2489
2.2449
2.24079
2.23655
2.2321
2.22742
2.22242
2.21716
2.21152
2.20536
2.19878
1
1
1
1
1
1
1
1
1
1
1
1
1
1
1
1
1
1
1
1
1
1
1
1
1
1
1
1
1
1
1
1
1
1
1
1
1
1
1
1
1
1
1
1
1
1
1
1
1
1
1
1
1
1
1
1
1
1
1
1
1
1
1
1
1
1
1
1
1
1
1.00021
1.03627
1.52309
2.15082
2.27532
2.27922
2.27588
2.27265
2.26879
2.2647
2.26039
2.25587
2.25119
2.24644
2.24168
2.23693
2.23231
2.22775
2.22333
2.21889
2.21441
2.20983
2.20477
2.19952
2.19376
2.18787
1
1
1
1
1
1
1
1
1
1
1
1
1
1
1
1
1
1
1
1
1
1
1
1
1
1
1
1
1
1
1
1
1
1
1
1
1
1
1
1
1
1
1
1
1
1
1
1
1
1
1
1
1
1
1
1
1
1
1
1
1
1
1
1
1
1
1
1
1
1
1
1.00017
1.02899
1.4664
2.09785
2.25351
2.26753
2.26353
2.26015
2.25616
2.25201
2.24758
2.24289
2.238
2.23295
2.22784
2.22272
2.21769
2.2127
2.2078
2.2027
2.19773
2.19244
2.1872
2.18193
2.1755
1
1
1
1
1
1
1
1
1
1
1
1
1
1
1
1
1
1
1
1
1
1
1
1
1
1
1
1
1
1
1
1
1
1
1
1
1
1
1
1
1
1
1
1
1
1
1
1
1
1
1
1
1
1
1
1
1
1
1
1
1
1
1
1
1
1
1
1
1
1
1
1
1.00012
1.02129
1.39496
2.02301
2.22672
2.25621
2.2498
2.24642
2.24278
2.23888
2.23469
2.23022
2.2255
2.22053
2.21549
2.21016
2.20479
2.19907
2.19361
2.18772
2.18187
2.17769
2.17659
2.17873
1
1
1
1
1
1
1
1
1
1
1
1
1
1
1
1
1
1
1
1
1
1
1
1
1
1
1
1
1
1
1
1
1
1
1
1
1
1
1
1
1
1
1
1
1
1
1
1
1
1
1
1
1
1
1
1
1
1
1
1
1
1
1
1
1
1
1
1
1
1
1
1
1
1.00008
1.01399
1.31144
1.91644
2.19613
2.23896
2.2342
2.23217
2.22964
2.22659
2.22289
2.219
2.21463
2.20964
2.20424
2.19856
2.1925
2.18726
2.18254
2.18345
2.18802
2.20228
2.23006
1
1
1
1
1
1
1
1
1
1
1
1
1
1
1
1
1
1
1
1
1
1
1
1
1
1
1
1
1
1
1
1
1
1
1
1
1
1
1
1
1
1
1
1
1
1
1
1
1
1
1
1
1
1
1
1
1
1
1
1
1
1
1
1
1
1
1
1
1
1
1
1
1
1
1.00004
1.00814
1.21834
1.79214
2.15307
2.21838
2.21729
2.21676
2.21495
2.2129
2.21004
2.20611
2.20171
2.19662
2.19237
2.18989
2.19156
2.20064
2.22402
2.25677
2.29585
2.32731
1
1
1
1
1
1
1
1
1
1
1
1
1
1
1
1
1
1
1
1
1
1
1
1
1
1
1
1
1
1
1
1
1
1
1
1
1
1
1
1
1
1
1
1
1
1
1
1
1
1
1
1
1
1
1
1
1
1
1
1
1
1
1
1
1
1
1
1
1
1
1
1
1
1
1
1.00002
1.00399
1.13533
1.658
2.1023
2.19091
2.20051
2.19747
2.1977
2.19616
2.19279
2.18992
2.1913
2.19725
2.21445
2.24555
2.28849
2.33071
2.35849
2.37381
2.37922
1
1
1
1
1
1
1
1
1
1
1
1
1
1
1
1
1
1
1
1
1
1
1
1
1
1
1
1
1
1
1
1
1
1
1
1
1
1
1
1
1
1
1
1
1
1
1
1
1
1
1
1
1
1
1
1
1
1
1
1
1
1
1
1
1
1
1
1
1
1
1
1
1
1
1
1
1.00001
1.00167
1.07383
1.52646
2.02915
2.15831
2.18864
2.18115
2.17659
2.18017
2.19395
2.22303
2.26446
2.31423
2.35446
2.38042
2.3964
2.3968
2.39119
2.383
1
1
1
1
1
1
1
1
1
1
1
1
1
1
1
1
1
1
1
1
1
1
1
1
1
1
1
1
1
1
1
1
1
1
1
1
1
1
1
1
1
1
1
1
1
1
1
1
1
1
1
1
1
1
1
1
1
1
1
1
1
1
1
1
1
1
1
1
1
1
1
1
1
1
1
1
1
1
1.0006
1.03614
1.39402
1.90543
2.14457
2.16107
2.18387
2.21845
2.2721
2.3263
2.36413
2.38722
2.39894
2.39459
2.38987
2.38547
2.37821
2.37192
1
1
1
1
1
1
1
1
1
1
1
1
1
1
1
1
1
1
1
1
1
1
1
1
1
1
1
1
1
1
1
1
1
1
1
1
1
1
1
1
1
1
1
1
1
1
1
1
1
1
1
1
1
1
1
1
1
1
1
1
1
1
1
1
1
1
1
1
1
1
1
1
1
1
1
1
1
1
1
1.00019
1.01568
1.25487
1.7692
2.10369
2.28454
2.33472
2.37247
2.38769
2.39413
2.39187
2.38874
2.38318
2.37619
2.37096
2.36376
2.35896
1
1
1
1
1
1
1
1
1
1
1
1
1
1
1
1
1
1
1
1
1
1
1
1
1
1
1
1
1
1
1
1
1
1
1
1
1
1
1
1
1
1
1
1
1
1
1
1
1
1
1
1
1
1
1
1
1
1
1
1
1
1
1
1
1
1
1
1
1
1
1
1
1
1
1
1
1
1
1
1
1.00005
1.00607
1.12852
2.05355
2.50254
2.48369
2.46452
2.44789
2.43325
2.41831
2.40406
2.38939
2.377
2.3679
2.36236
2.35755
1
1
1
1
1
1
1
1
1
1
1
1
1
1
1
1
1
1
1
1
1
1
1
1
1
1
1
1
1
1
1
1
1
1
1
1
1
1
1
1
1
1
1
1
1
1
1
1
1
1
1
1
1
1
1
1
1
1
1
1
1
1
1
1
1
1
1
1
1
1
1
1
1
1
1
1
1
1
1
1
1
1.00001
1.00147
2.04301
2.64404
2.61017
2.56443
2.52541
2.49325
2.4651
2.44083
2.41994
2.40319
2.39224
2.38457
2.37617
1
1
1
1
1
1
1
1
1
1
1
1
1
1
1
1
1
1
1
1
1
1
1
1
1
1
1
1
1
1
1
1
1
1
1
1
1
1
1
1
1
1
1
1
1
1
1
1
1
1
1
1
1
1
1
1
1
1
1
1
1
1
1
1
1
1
1
1
1
1
1
1
1
1
1
1
1
1
1
1
1
1
1
1.86548
2.65912
2.65698
2.64444
2.62417
2.59684
2.56766
2.5393
2.51272
2.48885
2.46746
2.44865
2.43173
1
1
1
1
1
1
1
1
1
1
1
1
1
1
1
1
1
1
1
1
1
1
1
1
1
1
1
1
1
1
1
1
1
1
1
1
1
1
1
1
1
1
1
1
1
1
1
1
1
1
1
1
1
1
1
1
1
1
1
1
1
1
1
1
1
1
1
1
1
1
1
1
1
1
1
1
1
1
1
1
1
1
1
1.47911
2.54281
2.68147
2.67481
2.66841
2.65643
2.6421
2.62381
2.60335
2.58081
2.55675
2.53237
2.50911
1
1
1
1
1
1
1
1
1
1
1
1
1
1
1
1
1
1
1
1
1
1
1
1
1
1
1
1
1
1
1
1
1
1
1
1
1
1
1
1
1
1
1
1
1
1
1
1
1
1
1
1
1
1
1
1
1
1
1
1
1
1
1
1
1
1
1
1
1
1
1
1
1
1
1
1
1
1
1
1
1
1
1
1.0353
2.33448
2.68865
2.68435
2.68059
2.67736
2.67231
2.66463
2.65436
2.64154
2.62619
2.60941
2.59105
1
1
1
1
1
1
1
1
1
1
1
1
1
1
1
1
1
1
1
1
1
1
1
1
1
1
1
1
1
1
1
1
1
1
1
1
1
1
1
1
1
1
1
1
1
1
1
1
1
1
1
1
1
1
1
1
1
1
1
1
1
1
1
1
1
1
1
1
1
1
1
1
1
1
1
1
1
1
1
1
1
1
1
1.00009
2.09764
2.6523
2.6757
2.67515
2.67445
2.67227
2.66904
2.66481
2.65928
2.65233
2.64406
2.6344
1
1
1
1
1
1
1
1
1
1
1
1
1
1
1
1
1
1
1
1
1
1
1
1
1
1
1
1
1
1
1
1
1
1
1
1
1
1
1
1
1
1
1
1
1
1
1
1
1
1
1
1
1
1
1
1
1
1
1
1
1
1
1
1
1
1
1
1
1
1
1
1
1
1
1
1
1
1
1
1
1
1
1
1
1.77456
2.58299
2.67018
2.6684
2.66873
2.66805
2.66645
2.66375
2.66005
2.65567
2.65071
2.6454
1
1
1
1
1
1
1
1
1
1
1
1
1
1
1
1
1
1
1
1
1
1
1
1
1
1
1
1
1
1
1
1
1
1
1
1
1
1
1
1
1
1
1
1
1
1
1
1
1
1
1
1
1
1
1
1
1
1
1
1
1
1
1
1
1
1
1
1
1
1
1
1
1
1
1
1
1
1
1
1
1
1
1
1
1.37996
2.47071
2.66669
2.66339
2.66342
2.66283
2.66167
2.65986
2.65745
2.65433
2.65105
2.64774
1
1
1
1
1
1
1
1
1
1
1
1
1
1
1
1
1
1
1
1
1
1
1
1
1
1
1
1
1
1
1
1
1
1
1
1
1
1
1
1
1
1
1
1
1
1
1
1
1
1
1
1
1
1
1
1
1
1
1
1
1
1
1
1
1
1
1
1
1
1
1
1
1
1
1
1
1
1
1
1
1
1
1
1
1.01718
2.31938
2.67379
2.67063
2.66596
2.66354
2.66115
2.65865
2.65599
2.65303
2.65013
2.64707
1
1
1
1
1
1
1
1
1
1
1
1
1
1
1
1
1
1
1
1
1
1
1
1
1
1
1
1
1
1
1
1
1
1
1
1
1
1
1
1
1
1
1
1
1
1
1
1
1
1
1
1
1
1
1
1
1
1
1
1
1
1
1
1
1
1
1
1
1
1
1
1
1
1
1
1
1
1
1
1
1
1
1
1
1.00002
2.12555
2.66709
2.67388
2.67017
2.66776
2.66459
2.66127
2.65789
2.65449
2.65127
2.64808
1
1
1
1
1
1
1
1
1
1
1
1
1
1
1
1
1
1
1
1
1
1
1
1
1
1
1
1
1
1
1
1
1
1
1
1
1
1
1
1
1
1
1
1
1
1
1
1
1
1
1
1
1
1
1
1
1
1
1
1
1
1
1
1
1
1
1
1
1
1
1
1
1
1
1
1
1
1
1
1
1
1
1
1
1
1.88179
2.63086
2.67842
2.67347
2.67054
2.66693
2.66338
2.65983
2.65637
2.65297
2.64969
1
1
1
1
1
1
1
1
1
1
1
1
1
1
1
1
1
1
1
1
1
1
1
1
1
1
1
1
1
1
1
1
1
1
1
1
1
1
1
1
1
1
1
1
1
1
1
1
1
1
1
1
1
1
1
1
1
1
1
1
1
1
1
1
1
1
1
1
1
1
1
1
1
1
1
1
1
1
1
1
1
1
1
1
1
1.59569
2.561
2.67861
2.6729
2.67049
2.66764
2.66479
2.66181
2.65883
2.65574
2.65261
1
1
1
1
1
1
1
1
1
1
1
1
1
1
1
1
1
1
1
1
1
1
1
1
1
1
1
1
1
1
1
1
1
1
1
1
1
1
1
1
1
1
1
1
1
1
1
1
1
1
1
1
1
1
1
1
1
1
1
1
1
1
1
1
1
1
1
1
1
1
1
1
1
1
1
1
1
1
1
1
1
1
1
1
1
1.28297
2.44921
2.67874
2.6731
2.67071
2.66812
2.66536
2.66251
2.65976
2.65696
2.65408
1
1
1
1
1
1
1
1
1
1
1
1
1
1
1
1
1
1
1
1
1
1
1
1
1
1
1
1
1
1
1
1
1
1
1
1
1
1
1
1
1
1
1
1
1
1
1
1
1
1
1
1
1
1
1
1
1
1
1
1
1
1
1
1
1
1
1
1
1
1
1
1
1
1
1
1
1
1
1
1
1
1
1
1
1
1.04336
2.33218
2.68319
2.67979
2.67532
2.67214
2.66891
2.66573
2.66275
2.65987
2.65694
1
1
1
1
1
1
1
1
1
1
1
1
1
1
1
1
1
1
1
1
1
1
1
1
1
1
1
1
1
1
1
1
1
1
1
1
1
1
1
1
1
1
1
1
1
1
1
1
1
1
1
1
1
1
1
1
1
1
1
1
1
1
1
1
1
1
1
1
1
1
1
1
1
1
1
1
1
1
1
1
1
1
1
1
1
1.00025
2.19307
2.67871
2.68292
2.67874
2.67616
2.67308
2.66995
2.66687
2.66385
2.66078
1
1
1
1
1
1
1
1
1
1
1
1
1
1
1
1
1
1
1
1
1
1
1
1
1
1
1
1
1
1
1
1
1
1
1
1
1
1
1
1
1
1
1
1
1
1
1
1
1
1
1
1
1
1
1
1
1
1
1
1
1
1
1
1
1
1
1
1
1
1
1
1
1
1
1
1
1
1
1
1
1
1
1
1
1
1
2.03355
2.66182
2.68686
2.68247
2.67996
2.67685
2.67374
2.67061
2.6675
2.66432
1
1
1
1
1
1
1
1
1
1
1
1
1
1
1
1
1
1
1
1
1
1
1
1
1
1
1
1
1
1
1
1
1
1
1
1
1
1
1
1
1
1
1
1
1
1
1
1
1
1
1
1
1
1
1
1
1
1
1
1
1
1
1
1
1
1
1
1
1
1
1
1
1
1
1
1
1
1
1
1
1
1
1
1
1
1
1.8674
2.63423
2.68989
2.6846
2.6819
2.67876
2.67562
2.67239
2.66903
2.66555
1
1
1
1
1
1
1
1
1
1
1
1
1
1
1
1
1
1
1
1
1
1
1
1
1
1
1
1
1
1
1
1
1
1
1
1
1
1
1
1
1
1
1
1
1
1
1
1
1
1
1
1
1
1
1
1
1
1
1
1
1
1
1
1
1
1
1
1
1
1
1
1
1
1
1
1
1
1
1
1
1
1
1
1
1
1
1.69645
2.60255
2.69093
2.68483
2.68197
2.67878
2.67562
2.67235
2.66896
2.6655
1
1
1
1
1
1
1
1
1
1
1
1
1
1
1
1
1
1
1
1
1
1
1
1
1
1
1
1
1
1
1
1
1
1
1
1
1
1
1
1
1
1
1
1
1
1
1
1
1
1
1
1
1
1
1
1
1
1
1
1
1
1
1
1
1
1
1
1
1
1
1
1
1
1
1
1
1
1
1
1
1
1
1
1
1
1
1.53299
2.56121
2.69145
2.68535
2.68234
2.67907
2.67583
2.6725
2.66908
2.66563
1
1
1
1
1
1
1
1
1
1
1
1
1
1
1
1
1
1
1
1
1
1
1
1
1
1
1
1
1
1
1
1
1
1
1
1
1
1
1
1
1
1
1
1
1
1
1
1
1
1
1
1
1
1
1
1
1
1
1
1
1
1
1
1
1
1
1
1
1
1
1
1
1
1
1
1
1
1
1
1
1
1
1
1
1
1
1.39812
2.51619
2.69193
2.68639
2.68313
2.6796
2.67621
2.67283
2.66942
2.66597
1
1
1
1
1
1
1
1
1
1
1
1
1
1
1
1
1
1
1
1
1
1
1
1
1
1
1
1
1
1
1
1
1
1
1
1
1
1
1
1
1
1
1
1
1
1
1
1
1
1
1
1
1
1
1
1
1
1
1
1
1
1
1
1
1
1
1
1
1
1
1
1
1
1
1
1
1
1
1
1
1
1
1
1
1
1
1.2902
2.46858
2.69052
2.68617
2.68282
2.67925
2.67597
2.67286
2.66973
2.66652
1
1
1
1
1
1
1
1
1
1
1
1
1
1
1
1
1
1
1
1
1
1
1
1
1
1
1
1
1
1
1
1
1
1
1
1
1
1
1
1
1
1
1
1
1
1
1
1
1
1
1
1
1
1
1
1
1
1
1
1
1
1
1
1
1
1
1
1
1
1
1
1
1
1
1
1
1
1
1
1
1
1
1
1
1
1
1.20309
2.41952
2.68794
2.68496
2.68156
2.67852
2.67553
2.67275
2.66999
2.66721
1
1
1
1
1
1
1
1
1
1
1
1
1
1
1
1
1
1
1
1
1
1
1
1
1
1
1
1
1
1
1
1
1
1
1
1
1
1
1
1
1
1
1
1
1
1
1
1
1
1
1
1
1
1
1
1
1
1
1
1
1
1
1
1
1
1
1
1
1
1
1
1
1
1
1
1
1
1
1
1
1
1
1
1
1
1
1.1205
2.36602
2.68435
2.68329
2.68047
2.67893
2.67668
2.67427
2.67177
2.66924
1
1
1
1
1
1
1
1
1
1
1
1
1
1
1
1
1
1
1
1
1
1
1
1
1
1
1
1
1
1
1
1
1
1
1
1
1
1
1
1
1
1
1
1
1
1
1
1
1
1
1
1
1
1
1
1
1
1
1
1
1
1
1
1
1
1
1
1
1
1
1
1
1
1
1
1
1
1
1
1
1
1
1
1
1
1
1.03033
2.31888
2.68129
2.68544
2.68279
2.68136
2.67915
2.6767
2.6741
2.67146
1
1
1
1
1
1
1
1
1
1
1
1
1
1
1
1
1
1
1
1
1
1
1
1
1
1
1
1
1
1
1
1
1
1
1
1
1
1
1
1
1
1
1
1
1
1
1
1
1
1
1
1
1
1
1
1
1
1
1
1
1
1
1
1
1
1
1
1
1
1
1
1
1
1
1
1
1
1
1
1
1
1
1
1
1
1
1.00026
2.27255
2.67757
2.68966
2.68579
2.68363
2.68103
2.67849
2.67589
2.6733
1
1
1
1
1
1
1
1
1
1
1
1
1
1
1
1
1
1
1
1
1
1
1
1
1
1
1
1
1
1
1
1
1
1
1
1
1
1
1
1
1
1
1
1
1
1
1
1
1
1
1
1
1
1
1
1
1
1
1
1
1
1
1
1
1
1
1
1
1
1
1
1
1
1
1
1
1
1
1
1
1
1
1
1
1
1
1
2.24111
2.67684
2.6921
2.68711
2.68477
2.68211
2.67956
2.67697
2.67437
1
1
1
1
1
1
1
1
1
1
1
1
1
1
1
1
1
1
1
1
1
1
1
1
1
1
1
1
1
1
1
1
1
1
1
1
1
1
1
1
1
1
1
1
1
1
1
1
1
1
1
1
1
1
1
1
1
1
1
1
1
1
1
1
1
1
1
1
1
1
1
1
1
1
1
1
1
1
1
1
1
1
1
1
1
1
1
2.22724
2.67637
2.6918
2.68714
2.68506
2.68253
2.68007
2.67752
2.67493
1.5112
0.913121
0.453222
0.464922
0.807184
1.01739
1.06316
1.11694
1.26072
1.28944
1.2697
1.27036
1.27927
1.31817
1.38902
1.48609
1.5563
1.59504
1.61028
1.60522
1.59402
1.58164
1.58666
1.60321
1.61361
1.61335
1.60563
1.60467
1.60948
1.6222
1.64381
1.65498
1.65319
1.64699
1.63677
1.62965
1.62939
1.63311
1.6392
1.6424
1.64465
1.64951
1.66296
1.71056
1.82763
2.01778
2.2007
2.36364
2.4407
2.49794