/*--------------------------------*- C++ -*----------------------------------*\
  =========                 |
  \\      /  F ield         | OpenFOAM: The Open Source CFD Toolbox
   \\    /   O peration     | Website:  https://openfoam.org
    \\  /    A nd           | Version:  7
     \\/     M anipulation  |
\*---------------------------------------------------------------------------*/
FoamFile
{
    version     2.0;
    format      ascii;
    class       volVectorField;
    location    "6";
    object      U;
}
// * * * * * * * * * * * * * * * * * * * * * * * * * * * * * * * * * * * * * //

dimensions      [0 1 -1 0 0 0 0];

internalField   nonuniform List<vector> 
19968
(
(3 -8.0963e-17 0)
(3 -2.65235e-17 0)
(3 9.85832e-16 0)
(3 1.06922e-15 0)
(3 9.69486e-16 0)
(3 4.98571e-16 0)
(3 3.92255e-16 0)
(3 1.99163e-16 0)
(3 -2.44682e-17 0)
(3 3.57683e-16 0)
(3 4.17546e-16 0)
(3 -5.0729e-16 0)
(3 -1.08784e-15 0)
(3 -1.24788e-15 0)
(3 -4.74774e-16 0)
(3 5.27871e-16 0)
(3 7.61523e-16 0)
(3 1.77086e-15 0)
(3 1.86337e-15 0)
(3 1.8128e-15 0)
(3 1.62579e-15 0)
(3 1.18144e-15 0)
(3 8.36038e-16 0)
(3 6.32112e-16 0)
(3 3.9859e-16 0)
(3 -1.27655e-16 0)
(3 -2.35722e-17 0)
(3 5.42269e-16 0)
(3 7.06918e-16 0)
(3 1.12094e-15 0)
(3 1.2892e-15 0)
(3 1.16933e-15 0)
(3 2.87601e-16 0)
(3 -2.10772e-16 0)
(3 -2.48006e-16 0)
(3 1.59023e-16 0)
(3 7.61687e-16 0)
(3 9.89206e-16 0)
(3 1.24005e-15 0)
(3 9.8001e-16 0)
(3 7.05268e-16 0)
(3 3.69015e-16 0)
(3 3.13934e-16 0)
(3 7.07977e-16 0)
(3 7.22823e-16 0)
(3 1.74331e-16 0)
(3 2.17278e-16 0)
(3 1.75357e-17 0)
(2.79927 0.0022725 0)
(0.968854 0.0068815 0)
(0.75939 0.00743961 0)
(0.744271 0.00769475 0)
(0.728554 0.00790903 0)
(0.713863 0.00849246 0)
(0.698339 0.00917695 0)
(0.682204 0.00952077 0)
(0.666061 0.0092482 0)
(0.650727 0.00867658 0)
(0.636322 0.00839956 0)
(0.622211 0.00874181 0)
(0.607524 0.00948041 0)
(0.592045 0.00979325 0)
(0.576602 0.00929224 0)
(0.561657 0.00888532 0)
(0.546586 0.00917356 0)
(0.530815 0.00969666 0)
(0.514583 0.0099439 0)
(0.498458 0.00991677 0)
(0.482717 0.00986091 0)
(0.467309 0.00990215 0)
(0.452038 0.0100333 0)
(0.436675 0.0101873 0)
(0.421041 0.0103087 0)
(0.405063 0.0103983 0)
(0.388777 0.0104929 0)
(0.372296 0.0106128 0)
(0.35573 0.0107504 0)
(0.339123 0.0108999 0)
(0.322454 0.0110605 0)
(0.305696 0.0112185 0)
(0.28887 0.0113578 0)
(0.272036 0.0114767 0)
(0.255235 0.0115831 0)
(0.238443 0.0116865 0)
(0.22157 0.0117961 0)
(0.204498 0.0119214 0)
(0.187125 0.0120759 0)
(0.169383 0.0122703 0)
(0.151237 0.0125082 0)
(0.132662 0.0127887 0)
(0.11362 0.013109 0)
(0.0940746 0.013453 0)
(0.0740118 0.0138274 0)
(0.0533818 0.0142437 0)
(0.0322786 0.0145108 0)
(0.0109364 0.0149027 0)
(3 -3.7437e-16 0)
(3 -2.80091e-16 0)
(3 4.23319e-16 0)
(3 5.18741e-16 0)
(3 6.6215e-16 0)
(3 7.51163e-16 0)
(3 5.31268e-16 0)
(3 2.55892e-16 0)
(3 1.86899e-16 0)
(3 3.11946e-16 0)
(3 -1.03363e-16 0)
(3 -6.00213e-16 0)
(3 -7.23699e-16 0)
(3 -4.67224e-16 0)
(3 3.37534e-16 0)
(3 1.267e-15 0)
(3 2.315e-15 0)
(3 3.12457e-15 0)
(3 1.93031e-15 0)
(3 1.25707e-15 0)
(3 9.3494e-16 0)
(3 5.46403e-16 0)
(3 2.18184e-16 0)
(3 -3.92542e-16 0)
(3 -4.5935e-16 0)
(3 -1.02763e-16 0)
(3 1.76515e-16 0)
(3 3.44191e-16 0)
(3 2.0014e-16 0)
(3 9.1379e-16 0)
(3 9.15637e-16 0)
(3 6.12665e-16 0)
(3 -4.58698e-17 0)
(3 5.22043e-16 0)
(3 1.06921e-15 0)
(3 1.46741e-15 0)
(3 2.1211e-15 0)
(3 1.42674e-15 0)
(3 7.08455e-16 0)
(3 7.99279e-16 0)
(3 1.49418e-15 0)
(3 2.22274e-15 0)
(3 2.04488e-15 0)
(3 2.23939e-15 0)
(3 2.27916e-15 0)
(3 2.30771e-15 0)
(3 1.36256e-15 0)
(3 4.69485e-16 0)
(2.8135 0.0127515 0)
(0.973718 0.0306283 0)
(0.755559 0.0293333 0)
(0.739378 0.0225963 0)
(0.723943 0.0230987 0)
(0.709361 0.024787 0)
(0.694111 0.0267129 0)
(0.678412 0.0277787 0)
(0.662709 0.0273735 0)
(0.647549 0.0261349 0)
(0.63298 0.025466 0)
(0.618642 0.0263757 0)
(0.603966 0.0283743 0)
(0.588628 0.0292743 0)
(0.573363 0.0280773 0)
(0.558347 0.0270478 0)
(0.543143 0.0278585 0)
(0.52734 0.0293242 0)
(0.51115 0.0300231 0)
(0.495098 0.0300358 0)
(0.479359 0.0300315 0)
(0.463856 0.0302702 0)
(0.44844 0.0306729 0)
(0.432953 0.0310767 0)
(0.417243 0.0313925 0)
(0.401216 0.0316507 0)
(0.384885 0.0319303 0)
(0.368358 0.0322643 0)
(0.351751 0.0326323 0)
(0.335115 0.0330341 0)
(0.318421 0.0334863 0)
(0.301637 0.0339611 0)
(0.284777 0.0344128 0)
(0.267899 0.0348277 0)
(0.251055 0.035212 0)
(0.234241 0.0355761 0)
(0.217389 0.0359376 0)
(0.200394 0.0363249 0)
(0.183153 0.0367869 0)
(0.165589 0.037366 0)
(0.147659 0.0380829 0)
(0.129334 0.038937 0)
(0.11059 0.0399154 0)
(0.0914062 0.0409657 0)
(0.0717852 0.0420907 0)
(0.0516985 0.0433289 0)
(0.0312049 0.0441091 0)
(0.0105687 0.0452265 0)
(3 2.84847e-16 0)
(3 3.37457e-16 0)
(3 3.04335e-17 0)
(3 -3.35195e-17 0)
(3 -7.00265e-17 0)
(3 -1.78641e-16 0)
(3 -6.16352e-16 0)
(3 -4.62304e-16 0)
(3 -2.86077e-16 0)
(3 -1.0881e-15 0)
(3 -1.55805e-15 0)
(3 -1.29491e-15 0)
(3 -8.39832e-16 0)
(3 -2.33541e-16 0)
(3 -3.61855e-16 0)
(3 1.01474e-15 0)
(3 2.1336e-15 0)
(3 2.13524e-15 0)
(3 1.59843e-15 0)
(3 1.16192e-15 0)
(3 9.06494e-16 0)
(3 3.02811e-16 0)
(3 -7.52553e-18 0)
(3 -1.82531e-15 0)
(3 -1.18389e-15 0)
(3 7.48488e-17 0)
(3 7.04696e-16 0)
(3 8.75132e-16 0)
(3 1.73492e-16 0)
(3 -6.57496e-16 0)
(3 -1.03316e-15 0)
(3 -5.90882e-16 0)
(3 -1.41369e-16 0)
(3 2.66213e-16 0)
(3 1.35868e-15 0)
(3 1.50473e-15 0)
(3 1.23289e-15 0)
(3 1.0885e-15 0)
(3 4.77886e-16 0)
(3 1.48963e-15 0)
(3 1.87494e-15 0)
(3 1.79019e-15 0)
(3 2.08599e-15 0)
(3 1.99492e-15 0)
(3 1.94594e-15 0)
(3 3.83959e-16 0)
(3 2.84037e-16 0)
(3 6.67878e-16 0)
(2.8492 0.0207607 0)
(0.990656 0.0522145 0)
(0.76021 0.0506512 0)
(0.744178 0.0403953 0)
(0.727173 0.0404985 0)
(0.711823 0.0428928 0)
(0.696259 0.0456845 0)
(0.680538 0.0470989 0)
(0.664923 0.0466252 0)
(0.649647 0.0450622 0)
(0.634657 0.0442183 0)
(0.619859 0.0455934 0)
(0.605012 0.0485248 0)
(0.589632 0.0498314 0)
(0.574386 0.0481434 0)
(0.559132 0.0467436 0)
(0.543644 0.0480659 0)
(0.52767 0.0502997 0)
(0.511364 0.0512753 0)
(0.49525 0.0512688 0)
(0.479406 0.0513831 0)
(0.463721 0.0519272 0)
(0.448066 0.0526642 0)
(0.432336 0.0533278 0)
(0.416419 0.0538542 0)
(0.400216 0.0543409 0)
(0.38372 0.0548852 0)
(0.367028 0.0554907 0)
(0.350259 0.0561031 0)
(0.333464 0.0567256 0)
(0.316616 0.057401 0)
(0.299675 0.0581043 0)
(0.282647 0.058779 0)
(0.265592 0.0594144 0)
(0.248573 0.0600234 0)
(0.231613 0.0606183 0)
(0.214673 0.0612202 0)
(0.197669 0.0618651 0)
(0.180496 0.0626212 0)
(0.163057 0.0635487 0)
(0.14528 0.0646784 0)
(0.127118 0.0660122 0)
(0.108553 0.067537 0)
(0.0895822 0.0691809 0)
(0.070233 0.0709412 0)
(0.0505166 0.072905 0)
(0.0304384 0.0741147 0)
(0.0103212 0.0758779 0)
(3 2.99855e-16 0)
(3 4.2389e-16 0)
(3 4.6298e-16 0)
(3 3.74743e-16 0)
(3 1.21123e-16 0)
(3 9.67544e-17 0)
(3 -3.58027e-16 0)
(3 -6.98494e-16 0)
(3 -7.58144e-16 0)
(3 -5.65294e-16 0)
(3 -1.12353e-16 0)
(3 3.23288e-16 0)
(3 5.43296e-16 0)
(3 5.42073e-16 0)
(3 6.94877e-16 0)
(3 1.07443e-15 0)
(3 1.04062e-15 0)
(3 1.62613e-15 0)
(3 2.30728e-15 0)
(3 2.29775e-15 0)
(3 2.42075e-15 0)
(3 1.94503e-15 0)
(3 1.03771e-15 0)
(3 -4.65994e-16 0)
(3 -4.1996e-16 0)
(3 4.85995e-17 0)
(3 1.71032e-16 0)
(3 3.58154e-16 0)
(3 7.44464e-16 0)
(3 7.33734e-17 0)
(3 -3.61247e-16 0)
(3 -4.52423e-16 0)
(3 1.01119e-17 0)
(3 6.47041e-16 0)
(3 1.44656e-15 0)
(3 2.09055e-15 0)
(3 1.8723e-15 0)
(3 1.84225e-15 0)
(3 1.86421e-15 0)
(3 1.74909e-15 0)
(3 1.50565e-15 0)
(3 1.67579e-15 0)
(3 1.87638e-15 0)
(3 8.76201e-16 0)
(3 -3.26844e-17 0)
(3 -7.12528e-16 0)
(3 -6.7719e-16 0)
(3 8.8607e-16 0)
(2.8957 0.0243687 0)
(1.01445 0.0721884 0)
(0.76137 0.0705855 0)
(0.745755 0.059424 0)
(0.728806 0.0593382 0)
(0.71353 0.0620421 0)
(0.698365 0.0651723 0)
(0.683172 0.066731 0)
(0.668002 0.0663261 0)
(0.652845 0.0648836 0)
(0.637652 0.0640825 0)
(0.622635 0.0657681 0)
(0.607891 0.0692782 0)
(0.59275 0.0708955 0)
(0.577692 0.069078 0)
(0.562317 0.0676467 0)
(0.54663 0.0694962 0)
(0.530519 0.072381 0)
(0.514071 0.0735382 0)
(0.497825 0.0735191 0)
(0.4818 0.0738566 0)
(0.465875 0.0748484 0)
(0.449924 0.0760173 0)
(0.433889 0.0769708 0)
(0.417707 0.0777325 0)
(0.401276 0.0785116 0)
(0.384563 0.0793999 0)
(0.367643 0.0803342 0)
(0.350622 0.0812141 0)
(0.333544 0.082047 0)
(0.316376 0.082907 0)
(0.29907 0.0837811 0)
(0.281629 0.0846111 0)
(0.264119 0.0853962 0)
(0.246636 0.0861612 0)
(0.229252 0.0869247 0)
(0.211987 0.0877147 0)
(0.194801 0.0885758 0)
(0.177609 0.089592 0)
(0.160301 0.0908359 0)
(0.142765 0.0923455 0)
(0.124912 0.0941269 0)
(0.10669 0.0961707 0)
(0.0880732 0.0983994 0)
(0.0690724 0.100783 0)
(0.0497276 0.103476 0)
(0.0299559 0.105115 0)
(0.0102134 0.107512 0)
(3 -3.87472e-16 0)
(3 -6.09757e-16 0)
(3 -5.08343e-16 0)
(3 -5.45261e-16 0)
(3 -3.5898e-17 0)
(3 1.1224e-15 0)
(3 1.51475e-15 0)
(3 1.30418e-15 0)
(3 8.1406e-16 0)
(3 7.92278e-16 0)
(3 1.0338e-15 0)
(3 1.07104e-15 0)
(3 1.08116e-15 0)
(3 1.51279e-15 0)
(3 1.6708e-15 0)
(3 1.65379e-15 0)
(3 1.91769e-15 0)
(3 2.16842e-15 0)
(3 2.38198e-15 0)
(3 2.56933e-15 0)
(3 2.22898e-15 0)
(3 1.91024e-15 0)
(3 1.75661e-15 0)
(3 1.5117e-15 0)
(3 1.0804e-15 0)
(3 -1.82334e-17 0)
(3 -7.08192e-16 0)
(3 -7.08656e-16 0)
(3 -4.02041e-16 0)
(3 -4.12319e-16 0)
(3 -4.31769e-16 0)
(3 -7.86164e-16 0)
(3 -1.8019e-16 0)
(3 1.47468e-15 0)
(3 1.71561e-15 0)
(3 1.83337e-15 0)
(3 1.56942e-15 0)
(3 1.26232e-15 0)
(3 9.97848e-16 0)
(3 8.20745e-16 0)
(3 1.41918e-15 0)
(3 1.12402e-15 0)
(3 2.6608e-16 0)
(3 -3.51424e-16 0)
(3 -1.90197e-16 0)
(3 1.21863e-16 0)
(3 2.65809e-16 0)
(3 4.14655e-16 0)
(2.94391 0.026736 0)
(1.04187 0.100113 0)
(0.763038 0.0898157 0)
(0.7492 0.0784378 0)
(0.733403 0.0790022 0)
(0.718383 0.0818479 0)
(0.703569 0.0849843 0)
(0.68881 0.0866178 0)
(0.673924 0.0866275 0)
(0.658666 0.0859192 0)
(0.643064 0.0855152 0)
(0.627617 0.0872798 0)
(0.61281 0.0908561 0)
(0.597967 0.0925912 0)
(0.583245 0.090937 0)
(0.568016 0.089834 0)
(0.552449 0.0922732 0)
(0.536473 0.0957624 0)
(0.520092 0.0970642 0)
(0.503898 0.0970392 0)
(0.487891 0.0976685 0)
(0.471961 0.0992465 0)
(0.455935 0.10099 0)
(0.439776 0.102311 0)
(0.423482 0.10336 0)
(0.406963 0.104519 0)
(0.390146 0.105869 0)
(0.373067 0.107245 0)
(0.35581 0.10849 0)
(0.338406 0.109615 0)
(0.320813 0.110728 0)
(0.302969 0.111836 0)
(0.284861 0.112881 0)
(0.266556 0.113861 0)
(0.248176 0.114798 0)
(0.229849 0.115699 0)
(0.211667 0.116585 0)
(0.193663 0.117504 0)
(0.175805 0.118559 0)
(0.158004 0.119847 0)
(0.140153 0.121442 0)
(0.122154 0.123393 0)
(0.103955 0.125727 0)
(0.0855358 0.128404 0)
(0.0668905 0.131335 0)
(0.0480915 0.134764 0)
(0.0289037 0.136868 0)
(0.00989725 0.139917 0)
(3 1.36342e-17 0)
(3 -7.06535e-17 0)
(3 -1.4036e-16 0)
(3 5.21551e-16 0)
(3 7.29809e-16 0)
(3 8.56699e-16 0)
(3 1.02044e-15 0)
(3 1.73247e-15 0)
(3 2.27276e-15 0)
(3 1.71264e-15 0)
(3 1.08488e-15 0)
(3 4.464e-16 0)
(3 -1.23225e-16 0)
(3 1.82634e-16 0)
(3 6.84709e-16 0)
(3 5.76232e-16 0)
(3 2.39053e-16 0)
(3 1.75786e-16 0)
(3 6.38261e-16 0)
(3 6.45839e-16 0)
(3 5.82158e-17 0)
(3 6.42495e-17 0)
(3 4.49571e-16 0)
(3 3.12155e-16 0)
(3 -8.99977e-17 0)
(3 -1.18512e-15 0)
(3 -1.26862e-15 0)
(3 -1.27972e-15 0)
(3 -1.43192e-15 0)
(3 -1.03323e-15 0)
(3 -5.10506e-16 0)
(3 2.38705e-16 0)
(3 6.14455e-16 0)
(3 1.53257e-15 0)
(3 1.89292e-15 0)
(3 1.92803e-15 0)
(3 1.95241e-15 0)
(3 1.5762e-15 0)
(3 9.44241e-16 0)
(3 5.45261e-16 0)
(3 -6.91732e-16 0)
(3 -1.56145e-15 0)
(3 -2.0114e-15 0)
(3 -1.41867e-15 0)
(3 6.74863e-17 0)
(3 4.16454e-16 0)
(3 -6.1547e-17 0)
(3 -2.08921e-16 0)
(3.00089 0.0032935 0)
(1.11121 0.118789 0)
(0.775972 0.101586 0)
(0.758852 0.0956496 0)
(0.743397 0.0987285 0)
(0.728019 0.10199 0)
(0.713353 0.104787 0)
(0.698943 0.106289 0)
(0.684376 0.107083 0)
(0.66918 0.107781 0)
(0.653375 0.108218 0)
(0.637646 0.109668 0)
(0.622771 0.112419 0)
(0.608316 0.113682 0)
(0.594031 0.112268 0)
(0.579131 0.111765 0)
(0.563891 0.114887 0)
(0.54817 0.119001 0)
(0.53192 0.120458 0)
(0.515846 0.120356 0)
(0.49997 0.121214 0)
(0.484223 0.123434 0)
(0.468348 0.125907 0)
(0.452268 0.127699 0)
(0.436051 0.129064 0)
(0.419628 0.130655 0)
(0.40289 0.13258 0)
(0.385823 0.134554 0)
(0.368485 0.136347 0)
(0.350905 0.137966 0)
(0.333044 0.139547 0)
(0.314828 0.141114 0)
(0.296217 0.142614 0)
(0.277255 0.144044 0)
(0.258056 0.145416 0)
(0.23877 0.146711 0)
(0.219539 0.147927 0)
(0.200452 0.149088 0)
(0.181524 0.150286 0)
(0.162698 0.151623 0)
(0.14388 0.153196 0)
(0.124987 0.155108 0)
(0.105988 0.157441 0)
(0.0869027 0.160257 0)
(0.0677286 0.16342 0)
(0.048597 0.167348 0)
(0.0291312 0.169779 0)
(0.0100088 0.173352 0)
(3 1.18295e-16 0)
(3 2.58302e-16 0)
(3 6.53016e-16 0)
(3 1.29116e-15 0)
(3 1.06725e-15 0)
(3 7.12626e-16 0)
(3 5.46335e-17 0)
(3 1.47062e-16 0)
(3 1.02644e-15 0)
(3 1.4512e-15 0)
(3 1.19974e-15 0)
(3 1.44555e-16 0)
(3 -6.98474e-16 0)
(3 -1.25996e-15 0)
(3 -1.57677e-15 0)
(3 -1.43729e-15 0)
(3 -1.10468e-15 0)
(3 -5.04423e-16 0)
(3 -1.66009e-16 0)
(3 2.63333e-17 0)
(3 -1.62687e-15 0)
(3 -2.24805e-15 0)
(3 -2.3072e-15 0)
(3 -2.13089e-15 0)
(3 -2.00867e-15 0)
(3 -1.68682e-15 0)
(3 -1.73516e-15 0)
(3 -1.80645e-15 0)
(3 -1.5254e-15 0)
(3 -1.01588e-15 0)
(3 -1.42843e-16 0)
(3 1.36003e-15 0)
(3 1.83431e-15 0)
(3 2.19132e-15 0)
(3 2.48048e-15 0)
(3 2.88415e-15 0)
(3 2.28147e-15 0)
(3 1.16725e-15 0)
(3 -1.18068e-16 0)
(3 -6.35887e-16 0)
(3 -1.17807e-15 0)
(3 -1.65143e-15 0)
(3 -1.50348e-15 0)
(3 -9.37681e-16 0)
(3 -1.33963e-15 0)
(3 -7.90902e-16 0)
(3 -3.09451e-16 0)
(3 4.38471e-16 0)
(3.00004 8.80196e-06 0)
(1.23025 0.138593 0)
(0.778678 0.1209 0)
(0.753462 0.119889 0)
(0.737272 0.122323 0)
(0.721811 0.124183 0)
(0.707747 0.126126 0)
(0.693862 0.127917 0)
(0.679619 0.130123 0)
(0.664675 0.132643 0)
(0.649077 0.134289 0)
(0.633596 0.135175 0)
(0.619065 0.136381 0)
(0.605285 0.13679 0)
(0.591634 0.135674 0)
(0.577261 0.136 0)
(0.562598 0.140051 0)
(0.547368 0.144908 0)
(0.531467 0.146604 0)
(0.515723 0.146399 0)
(0.500188 0.147392 0)
(0.48491 0.150237 0)
(0.469573 0.153555 0)
(0.453986 0.15595 0)
(0.438254 0.157676 0)
(0.422343 0.159717 0)
(0.406116 0.162265 0)
(0.389494 0.164905 0)
(0.372517 0.167322 0)
(0.355225 0.169516 0)
(0.337601 0.171639 0)
(0.319576 0.173728 0)
(0.301091 0.175724 0)
(0.282156 0.177617 0)
(0.262858 0.179409 0)
(0.243342 0.18107 0)
(0.223764 0.182583 0)
(0.204251 0.183958 0)
(0.184856 0.185272 0)
(0.165551 0.186619 0)
(0.146255 0.188096 0)
(0.12689 0.189855 0)
(0.107438 0.192013 0)
(0.0879483 0.194788 0)
(0.0684166 0.197965 0)
(0.0490534 0.202244 0)
(0.0293584 0.204918 0)
(0.0101215 0.208929 0)
(3 5.9607e-17 0)
(3 9.00646e-17 0)
(3 -1.37154e-16 0)
(3 -3.20053e-16 0)
(3 -1.92966e-16 0)
(3 -2.97939e-16 0)
(3 -4.72174e-16 0)
(3 -9.10327e-16 0)
(3 -1.03012e-15 0)
(3 -5.07692e-16 0)
(3 -5.59751e-18 0)
(3 1.41495e-16 0)
(3 6.15354e-16 0)
(3 2.21835e-17 0)
(3 -1.98706e-16 0)
(3 2.72847e-17 0)
(3 3.48908e-16 0)
(3 3.9582e-16 0)
(3 5.44111e-16 0)
(3 9.11668e-16 0)
(3 -6.52666e-16 0)
(3 -1.78445e-15 0)
(3 -2.25849e-15 0)
(3 -2.10104e-15 0)
(3 -2.07884e-15 0)
(3 -7.00184e-16 0)
(3 -3.55572e-16 0)
(3 -2.65737e-16 0)
(3 -3.0268e-16 0)
(3 -1.09425e-16 0)
(3 -5.51407e-17 0)
(3 -1.4075e-16 0)
(3 -1.8254e-16 0)
(3 -3.93254e-17 0)
(3 6.7468e-18 0)
(3 7.38804e-17 0)
(3 5.87185e-17 0)
(3 -7.38113e-16 0)
(3 -1.43462e-15 0)
(3 -1.98424e-15 0)
(3 -2.16754e-15 0)
(3 -2.112e-15 0)
(3 -1.54211e-15 0)
(3 -1.72689e-15 0)
(3 -2.30331e-15 0)
(3 -4.87042e-16 0)
(3 1.19122e-15 0)
(3 1.72012e-15 0)
(3 1.80929e-08 0)
(1.43352 0.165619 0)
(0.793559 0.14386 0)
(0.755524 0.148697 0)
(0.73739 0.147035 0)
(0.721015 0.146277 0)
(0.706687 0.147043 0)
(0.692838 0.149272 0)
(0.678823 0.153055 0)
(0.664246 0.157485 0)
(0.648968 0.160312 0)
(0.63377 0.160439 0)
(0.619449 0.1597 0)
(0.605989 0.158966 0)
(0.592705 0.158166 0)
(0.578828 0.159477 0)
(0.56489 0.16451 0)
(0.550398 0.17012 0)
(0.535107 0.172083 0)
(0.519946 0.171642 0)
(0.504978 0.172516 0)
(0.490414 0.175788 0)
(0.475919 0.179981 0)
(0.461088 0.183156 0)
(0.446025 0.185308 0)
(0.430759 0.187779 0)
(0.415136 0.190967 0)
(0.399006 0.194381 0)
(0.382382 0.197608 0)
(0.365336 0.200628 0)
(0.347881 0.203594 0)
(0.329954 0.206544 0)
(0.311475 0.209401 0)
(0.29242 0.212129 0)
(0.272849 0.214716 0)
(0.252892 0.217107 0)
(0.232719 0.219261 0)
(0.212485 0.221163 0)
(0.192286 0.222868 0)
(0.172129 0.224446 0)
(0.151957 0.225977 0)
(0.131711 0.227654 0)
(0.111384 0.229605 0)
(0.0910568 0.232247 0)
(0.0707219 0.235256 0)
(0.0506685 0.239741 0)
(0.0302968 0.242579 0)
(0.0104486 0.24694 0)
(3 -6.85959e-17 0)
(3 -7.96481e-17 0)
(3 -1.7396e-16 0)
(3 -3.93663e-16 0)
(3 -9.92674e-16 0)
(3 -9.24671e-16 0)
(3 -6.71893e-16 0)
(3 -1.24511e-15 0)
(3 -2.58543e-15 0)
(3 -3.04618e-15 0)
(3 -3.02604e-15 0)
(3 -2.48581e-15 0)
(3 -2.23896e-16 0)
(3 6.13872e-16 0)
(3 4.22537e-16 0)
(3 3.34376e-17 0)
(3 -1.61202e-16 0)
(3 -1.50872e-16 0)
(3 -3.70129e-16 0)
(3 -7.0072e-16 0)
(3 -8.23138e-16 0)
(3 -8.6069e-16 0)
(3 -9.11603e-16 0)
(3 -1.16634e-15 0)
(3 -8.00055e-16 0)
(3 7.79307e-16 0)
(3 1.68481e-15 0)
(3 2.14914e-15 0)
(3 1.90141e-15 0)
(3 9.88295e-16 0)
(3 7.20074e-17 0)
(3 -6.78673e-16 0)
(3 -2.40851e-15 0)
(3 -2.62229e-15 0)
(3 -2.43214e-15 0)
(3 -2.18427e-15 0)
(3 -1.73196e-15 0)
(3 -1.91758e-15 0)
(3 -2.73653e-15 0)
(3 -3.52178e-15 0)
(3 -4.13435e-15 0)
(3 -3.71797e-15 0)
(3 -3.05081e-15 0)
(3 -1.84019e-15 0)
(3 1.08079e-15 0)
(3 2.31564e-15 0)
(3 2.43127e-15 0)
(3 1.52315e-15 0)
(3 3.35781e-11 0)
(1.74425 0.184525 0)
(0.822676 0.169805 0)
(0.762356 0.181421 0)
(0.743646 0.174275 0)
(0.725565 0.170023 0)
(0.709804 0.168949 0)
(0.694953 0.171322 0)
(0.680571 0.176608 0)
(0.66612 0.183144 0)
(0.650897 0.187321 0)
(0.635595 0.187093 0)
(0.620986 0.184673 0)
(0.607024 0.182661 0)
(0.593308 0.181906 0)
(0.579315 0.183978 0)
(0.565625 0.18984 0)
(0.55153 0.196121 0)
(0.536556 0.198441 0)
(0.521635 0.197764 0)
(0.506857 0.198259 0)
(0.492667 0.201717 0)
(0.478904 0.206835 0)
(0.464858 0.211106 0)
(0.450523 0.2139 0)
(0.436033 0.216835 0)
(0.421253 0.220699 0)
(0.405941 0.224999 0)
(0.390045 0.229201 0)
(0.373654 0.233242 0)
(0.356804 0.237274 0)
(0.339433 0.241323 0)
(0.321432 0.245281 0)
(0.302745 0.249077 0)
(0.283395 0.252676 0)
(0.263479 0.256006 0)
(0.243149 0.25901 0)
(0.222557 0.261655 0)
(0.201816 0.263971 0)
(0.180957 0.266004 0)
(0.159952 0.267786 0)
(0.138767 0.269535 0)
(0.11741 0.271344 0)
(0.096002 0.273857 0)
(0.0745385 0.276571 0)
(0.0534024 0.281145 0)
(0.031936 0.28408 0)
(0.010997 0.288733 0)
(3 -1.74005e-16 0)
(3 -2.67852e-16 0)
(3 -1.06625e-16 0)
(3 -1.27918e-16 0)
(3 -3.90576e-16 0)
(3 -7.33936e-16 0)
(3 -8.01406e-16 0)
(3 -1.32956e-15 0)
(3 -1.81144e-15 0)
(3 -1.60981e-15 0)
(3 -1.38649e-15 0)
(3 -1.49329e-15 0)
(3 -1.39036e-15 0)
(3 -9.6085e-16 0)
(3 -7.96068e-16 0)
(3 -5.35766e-16 0)
(3 -3.6762e-16 0)
(3 -3.71906e-16 0)
(3 -9.22471e-16 0)
(3 -9.22959e-16 0)
(3 -1.12177e-16 0)
(3 2.99204e-16 0)
(3 7.01515e-16 0)
(3 8.74078e-16 0)
(3 7.4232e-16 0)
(3 3.05828e-16 0)
(3 1.42307e-16 0)
(3 -2.53496e-17 0)
(3 2.36731e-16 0)
(3 1.03393e-16 0)
(3 -5.3508e-16 0)
(3 -1.3276e-15 0)
(3 -1.81278e-15 0)
(3 -1.75656e-15 0)
(3 -1.64819e-15 0)
(3 -1.55112e-15 0)
(3 -1.72474e-15 0)
(3 -2.03037e-15 0)
(3 -2.15707e-15 0)
(3 -1.92701e-15 0)
(3 -1.09526e-15 0)
(3 -1.49176e-15 0)
(3 -1.66661e-16 0)
(3 1.38162e-15 0)
(3 2.87877e-15 0)
(3 2.76943e-15 0)
(3 3.00043e-15 0)
(3 1.65036e-15 0)
(3 5.80341e-14 0)
(2.15983 0.190361 0)
(0.861342 0.208999 0)
(0.760061 0.215065 0)
(0.745343 0.205588 0)
(0.728353 0.199088 0)
(0.712683 0.195646 0)
(0.697735 0.197125 0)
(0.683888 0.20288 0)
(0.67061 0.210749 0)
(0.656358 0.216104 0)
(0.641456 0.216149 0)
(0.626724 0.212874 0)
(0.612137 0.209804 0)
(0.597716 0.208759 0)
(0.583346 0.21107 0)
(0.56966 0.217289 0)
(0.555791 0.224001 0)
(0.540871 0.22678 0)
(0.525678 0.226004 0)
(0.510419 0.225752 0)
(0.495741 0.228729 0)
(0.481954 0.23432 0)
(0.468155 0.239652 0)
(0.454027 0.243097 0)
(0.439814 0.246256 0)
(0.425485 0.250545 0)
(0.410774 0.255638 0)
(0.395536 0.260842 0)
(0.379864 0.265994 0)
(0.363811 0.271237 0)
(0.347295 0.276596 0)
(0.33015 0.281932 0)
(0.312248 0.287133 0)
(0.293546 0.292144 0)
(0.274073 0.296875 0)
(0.253928 0.301238 0)
(0.233244 0.305163 0)
(0.212145 0.308621 0)
(0.190703 0.311599 0)
(0.168932 0.314056 0)
(0.146837 0.31622 0)
(0.12443 0.318107 0)
(0.10186 0.320603 0)
(0.0791164 0.322941 0)
(0.0566878 0.327465 0)
(0.0339224 0.330413 0)
(0.0116276 0.335306 0)
(3 7.4939e-17 0)
(3 1.77032e-16 0)
(3 1.92554e-16 0)
(3 1.19299e-16 0)
(3 8.77939e-17 0)
(3 -7.99034e-16 0)
(3 -1.80847e-15 0)
(3 -1.69699e-15 0)
(3 -1.06237e-15 0)
(3 -3.79452e-16 0)
(3 -1.39097e-16 0)
(3 1.11743e-16 0)
(3 -2.53595e-18 0)
(3 -9.47255e-17 0)
(3 2.29944e-16 0)
(3 8.44302e-16 0)
(3 9.61147e-16 0)
(3 1.05379e-15 0)
(3 9.08764e-16 0)
(3 5.8e-16 0)
(3 -8.94472e-16 0)
(3 -1.19958e-15 0)
(3 -1.08262e-15 0)
(3 -5.12701e-16 0)
(3 -2.57889e-16 0)
(3 -1.72283e-16 0)
(3 -2.1746e-16 0)
(3 -3.30771e-16 0)
(3 -7.03634e-16 0)
(3 -6.59514e-16 0)
(3 -4.77077e-16 0)
(3 -3.40336e-16 0)
(3 -2.29053e-16 0)
(3 -4.408e-16 0)
(3 -9.1624e-16 0)
(3 -1.38601e-15 0)
(3 -1.20145e-15 0)
(3 -6.18077e-16 0)
(3 5.40156e-16 0)
(3 7.941e-16 0)
(3 1.47207e-15 0)
(3 2.04723e-15 0)
(3 2.30297e-15 0)
(3 2.7667e-15 0)
(3 2.87293e-15 0)
(3 2.81799e-15 0)
(3 3.02553e-15 0)
(3 3.99297e-15 0)
(3 2.32421e-16 0)
(2.68061 0.172188 0)
(0.962847 0.258136 0)
(0.783747 0.240237 0)
(0.775926 0.228368 0)
(0.757216 0.224441 0)
(0.740612 0.219458 0)
(0.723346 0.219912 0)
(0.70748 0.225705 0)
(0.693103 0.234641 0)
(0.67852 0.241931 0)
(0.663181 0.24386 0)
(0.647815 0.241389 0)
(0.63228 0.238328 0)
(0.616713 0.237304 0)
(0.601375 0.239721 0)
(0.58702 0.24608 0)
(0.572941 0.253378 0)
(0.557753 0.257345 0)
(0.541767 0.257435 0)
(0.525352 0.256832 0)
(0.509255 0.259027 0)
(0.494388 0.264638 0)
(0.480044 0.270955 0)
(0.465321 0.275261 0)
(0.450404 0.278528 0)
(0.435442 0.282874 0)
(0.4203 0.288423 0)
(0.40477 0.294372 0)
(0.388923 0.300384 0)
(0.37287 0.306608 0)
(0.356563 0.313117 0)
(0.339829 0.319779 0)
(0.322501 0.326443 0)
(0.304486 0.333023 0)
(0.285746 0.339407 0)
(0.266287 0.345458 0)
(0.24614 0.351051 0)
(0.225328 0.356098 0)
(0.203857 0.360543 0)
(0.181695 0.364291 0)
(0.158848 0.367571 0)
(0.135288 0.370243 0)
(0.111212 0.373324 0)
(0.0866049 0.375683 0)
(0.0620931 0.380266 0)
(0.0371844 0.383224 0)
(0.0127056 0.388419 0)
(3 3.78872e-17 0)
(3 2.48342e-16 0)
(3 1.81079e-16 0)
(3 3.7636e-16 0)
(3 4.72429e-16 0)
(3 -1.88266e-17 0)
(3 -5.44835e-16 0)
(3 -3.82598e-16 0)
(3 7.77165e-17 0)
(3 1.57512e-17 0)
(3 -5.11723e-17 0)
(3 -1.91822e-16 0)
(3 9.36453e-17 0)
(3 1.82864e-16 0)
(3 -1.26879e-16 0)
(3 -2.47984e-16 0)
(3 -7.47593e-17 0)
(3 5.60124e-17 0)
(3 2.14494e-16 0)
(3 6.27652e-16 0)
(3 5.89299e-16 0)
(3 1.56818e-16 0)
(3 1.70508e-16 0)
(3 2.377e-16 0)
(3 1.09836e-16 0)
(3 -1.17603e-16 0)
(3 -3.7669e-16 0)
(3 -1.14614e-15 0)
(3 -1.7434e-15 0)
(3 -2.1404e-15 0)
(3 -1.33242e-15 0)
(3 -1.17122e-16 0)
(3 1.13389e-16 0)
(3 5.48358e-17 0)
(3 3.7739e-17 0)
(3 -1.4596e-16 0)
(3 -2.42643e-16 0)
(3 7.7092e-17 0)
(3 8.3951e-16 0)
(3 8.41258e-16 0)
(3 1.67137e-15 0)
(3 3.90477e-15 0)
(3 4.37909e-15 0)
(3 4.33983e-15 0)
(3 4.6882e-15 0)
(3 5.02617e-15 0)
(3 5.31125e-15 0)
(3 4.40258e-15 0)
(3 2.98334e-15 0)
(3.02056 0.0103752 0)
(1.15208 0.282402 0)
(0.810182 0.235903 0)
(0.798168 0.249541 0)
(0.782714 0.252722 0)
(0.76687 0.251419 0)
(0.74963 0.251489 0)
(0.732846 0.255308 0)
(0.71788 0.262326 0)
(0.704009 0.26868 0)
(0.689955 0.271039 0)
(0.675518 0.269543 0)
(0.660414 0.26703 0)
(0.644801 0.266122 0)
(0.629199 0.268235 0)
(0.614501 0.274013 0)
(0.600568 0.281409 0)
(0.585856 0.286842 0)
(0.569881 0.288927 0)
(0.552978 0.288954 0)
(0.535896 0.290279 0)
(0.519845 0.295276 0)
(0.504861 0.3024 0)
(0.489553 0.308288 0)
(0.473724 0.312331 0)
(0.457715 0.316894 0)
(0.441609 0.322913 0)
(0.425219 0.329677 0)
(0.408535 0.336579 0)
(0.391711 0.3437 0)
(0.374773 0.351226 0)
(0.357578 0.359109 0)
(0.339936 0.367214 0)
(0.321704 0.375467 0)
(0.302769 0.383788 0)
(0.283024 0.392052 0)
(0.26237 0.400091 0)
(0.240748 0.407731 0)
(0.21817 0.414773 0)
(0.194708 0.420925 0)
(0.170532 0.426274 0)
(0.1457 0.430527 0)
(0.1201 0.434728 0)
(0.0939216 0.437463 0)
(0.067407 0.442039 0)
(0.0403724 0.444758 0)
(0.0136159 0.449995 0)
(3 -1.0251e-16 0)
(3 -1.04155e-16 0)
(3 -9.03736e-17 0)
(3 9.10433e-17 0)
(3 7.80446e-17 0)
(3 9.82131e-16 0)
(3 1.41804e-15 0)
(3 1.65187e-15 0)
(3 1.68371e-15 0)
(3 1.82847e-15 0)
(3 1.44068e-15 0)
(3 1.46757e-15 0)
(3 1.20677e-15 0)
(3 5.52897e-16 0)
(3 1.47464e-16 0)
(3 -8.26366e-16 0)
(3 -7.53542e-16 0)
(3 -1.30312e-15 0)
(3 -1.36714e-15 0)
(3 -1.15048e-15 0)
(3 -6.9176e-16 0)
(3 -3.01052e-16 0)
(3 -4.52462e-16 0)
(3 -7.59433e-16 0)
(3 -1.07193e-15 0)
(3 -1.39067e-15 0)
(3 -1.24865e-15 0)
(3 -1.25725e-15 0)
(3 -1.57084e-15 0)
(3 -1.84601e-15 0)
(3 -1.24232e-15 0)
(3 -6.76563e-16 0)
(3 -5.04049e-16 0)
(3 -5.40065e-16 0)
(3 -2.48133e-16 0)
(3 -5.82364e-16 0)
(3 -7.98875e-16 0)
(3 -5.29768e-16 0)
(3 -3.30233e-16 0)
(3 -2.62047e-16 0)
(3 2.27884e-15 0)
(3 2.98639e-15 0)
(3 3.61024e-15 0)
(3 3.62625e-15 0)
(3 2.64678e-15 0)
(3 2.42298e-15 0)
(3 2.44169e-15 0)
(3 2.77784e-15 0)
(3 2.7681e-15 0)
(3.0003 1.03317e-05 0)
(1.56661 0.312234 0)
(0.823957 0.276599 0)
(0.783263 0.279859 0)
(0.769924 0.285064 0)
(0.75549 0.285946 0)
(0.740755 0.287081 0)
(0.726127 0.28946 0)
(0.712896 0.293662 0)
(0.701172 0.298348 0)
(0.689628 0.301388 0)
(0.677413 0.301824 0)
(0.664162 0.301149 0)
(0.649937 0.301477 0)
(0.635338 0.303904 0)
(0.621262 0.308964 0)
(0.608205 0.315864 0)
(0.595211 0.32232 0)
(0.581197 0.326506 0)
(0.565971 0.328109 0)
(0.550069 0.329159 0)
(0.534581 0.332971 0)
(0.520441 0.339941 0)
(0.506425 0.347119 0)
(0.491532 0.352272 0)
(0.47605 0.357008 0)
(0.460302 0.363123 0)
(0.444267 0.370377 0)
(0.427845 0.377969 0)
(0.411152 0.385761 0)
(0.394304 0.394035 0)
(0.377244 0.402907 0)
(0.359831 0.412296 0)
(0.341967 0.422138 0)
(0.323566 0.432349 0)
(0.304521 0.442864 0)
(0.284611 0.453415 0)
(0.263679 0.463731 0)
(0.241647 0.47348 0)
(0.218455 0.482156 0)
(0.194192 0.489916 0)
(0.168562 0.496536 0)
(0.141363 0.503541 0)
(0.111933 0.509383 0)
(0.0807785 0.515915 0)
(0.0483269 0.519368 0)
(0.0160714 0.524404 0)
(3 1.74996e-17 0)
(3 9.70128e-17 0)
(3 1.49772e-16 0)
(3 2.00278e-16 0)
(3 4.05604e-16 0)
(3 7.93861e-16 0)
(3 1.21753e-15 0)
(3 1.63918e-15 0)
(3 1.8199e-15 0)
(3 1.87364e-15 0)
(3 1.8891e-15 0)
(3 1.75363e-15 0)
(3 1.49208e-15 0)
(3 1.27524e-15 0)
(3 1.23492e-15 0)
(3 1.00459e-15 0)
(3 6.06955e-16 0)
(3 4.26022e-16 0)
(3 -1.00938e-15 0)
(3 -1.67361e-15 0)
(3 -2.18873e-15 0)
(3 -1.96444e-15 0)
(3 -2.38562e-15 0)
(3 -2.88781e-15 0)
(3 -2.98195e-15 0)
(3 -2.52025e-15 0)
(3 -2.0893e-15 0)
(3 -1.29899e-15 0)
(3 -8.95587e-16 0)
(3 -7.35323e-16 0)
(3 -9.19302e-16 0)
(3 -1.43111e-15 0)
(3 -1.49936e-15 0)
(3 -1.26766e-15 0)
(3 -9.98908e-16 0)
(3 -7.47879e-16 0)
(3 -8.21063e-16 0)
(3 3.9622e-17 0)
(3 3.17411e-16 0)
(3 1.96212e-16 0)
(3 2.24769e-16 0)
(3 4.39439e-16 0)
(3 5.60865e-16 0)
(3 4.69267e-16 0)
(3 -6.04176e-20 0)
(3 -2.34064e-16 0)
(3 -2.21093e-16 0)
(3 -1.40813e-16 0)
(3 1.85068e-16 0)
(3 1.84172e-08 0)
(2.39635 0.280575 0)
(0.919371 0.337075 0)
(0.793098 0.310819 0)
(0.782261 0.312122 0)
(0.768263 0.315621 0)
(0.754721 0.318297 0)
(0.740916 0.319824 0)
(0.727688 0.321478 0)
(0.715584 0.324282 0)
(0.704236 0.327647 0)
(0.692544 0.330143 0)
(0.679922 0.331724 0)
(0.666332 0.333738 0)
(0.6522 0.336809 0)
(0.6383 0.341187 0)
(0.625363 0.346958 0)
(0.613248 0.353394 0)
(0.600907 0.359235 0)
(0.587371 0.363178 0)
(0.572703 0.365213 0)
(0.557752 0.368326 0)
(0.543843 0.374814 0)
(0.530826 0.383231 0)
(0.51705 0.390573 0)
(0.502273 0.396566 0)
(0.486981 0.403299 0)
(0.47137 0.411386 0)
(0.455369 0.420201 0)
(0.438953 0.429229 0)
(0.422278 0.43868 0)
(0.405398 0.448864 0)
(0.388166 0.459788 0)
(0.370537 0.471482 0)
(0.352433 0.483811 0)
(0.333702 0.496894 0)
(0.313875 0.510528 0)
(0.29252 0.524536 0)
(0.269329 0.538731 0)
(0.244072 0.552581 0)
(0.21689 0.566147 0)
(0.187705 0.578878 0)
(0.157196 0.591782 0)
(0.125343 0.60348 0)
(0.0919741 0.613064 0)
(0.0565745 0.618221 0)
(0.0180578 0.621299 0)
(3 1.4275e-16 0)
(3 9.68389e-17 0)
(3 1.97371e-16 0)
(3 3.53329e-16 0)
(3 4.62202e-16 0)
(3 3.75897e-16 0)
(3 3.54492e-16 0)
(3 1.73846e-16 0)
(3 1.16093e-16 0)
(3 -9.17902e-19 0)
(3 7.60535e-17 0)
(3 2.54918e-17 0)
(3 7.55873e-17 0)
(3 3.98209e-16 0)
(3 7.72996e-16 0)
(3 1.29012e-15 0)
(3 1.08718e-15 0)
(3 6.77582e-16 0)
(3 1.75552e-16 0)
(3 5.01645e-17 0)
(3 7.39516e-17 0)
(3 -3.77385e-16 0)
(3 -5.35618e-16 0)
(3 -4.87357e-16 0)
(3 -3.97745e-16 0)
(3 -1.45127e-16 0)
(3 -3.68172e-16 0)
(3 -1.14564e-15 0)
(3 -1.25014e-15 0)
(3 -1.25815e-15 0)
(3 -7.19997e-16 0)
(3 -7.60178e-16 0)
(3 -7.3088e-16 0)
(3 -5.48615e-16 0)
(3 -3.93045e-16 0)
(3 -1.72951e-16 0)
(3 3.77679e-16 0)
(3 5.37191e-16 0)
(3 6.34545e-16 0)
(3 6.9388e-16 0)
(3 3.13502e-16 0)
(3 -1.14866e-15 0)
(3 -2.16042e-15 0)
(3 -2.26153e-15 0)
(3 -2.04811e-15 0)
(3 -1.42313e-15 0)
(3 -1.06984e-15 0)
(3 -8.27315e-16 0)
(3 -3.13939e-16 0)
(3 -7.10823e-09 0)
(3.02965 0.0175596 0)
(1.25231 0.380927 0)
(0.839228 0.316637 0)
(0.822597 0.331665 0)
(0.807977 0.339124 0)
(0.793332 0.343713 0)
(0.778277 0.345483 0)
(0.763399 0.346163 0)
(0.749205 0.347823 0)
(0.736065 0.351319 0)
(0.723401 0.355715 0)
(0.710309 0.359935 0)
(0.696519 0.364162 0)
(0.682203 0.368505 0)
(0.667891 0.372753 0)
(0.654315 0.37735 0)
(0.641783 0.382967 0)
(0.629873 0.389625 0)
(0.617418 0.396166 0)
(0.603601 0.400895 0)
(0.588994 0.404581 0)
(0.574861 0.410454 0)
(0.562074 0.419235 0)
(0.549443 0.428672 0)
(0.535715 0.436678 0)
(0.521204 0.444526 0)
(0.506292 0.453477 0)
(0.491123 0.463585 0)
(0.47552 0.474228 0)
(0.459497 0.485292 0)
(0.443291 0.497171 0)
(0.426698 0.510013 0)
(0.409804 0.524069 0)
(0.392524 0.539186 0)
(0.374769 0.555534 0)
(0.356144 0.573144 0)
(0.336226 0.591969 0)
(0.314764 0.611923 0)
(0.291562 0.632425 0)
(0.2667 0.652741 0)
(0.240121 0.671467 0)
(0.21147 0.687556 0)
(0.180687 0.703034 0)
(0.143936 0.721357 0)
(0.0978064 0.74361 0)
(0.0373308 0.762878 0)
(3 -8.8833e-17 0)
(3 -1.4118e-16 0)
(3 -2.54205e-17 0)
(3 -2.63714e-16 0)
(3 -5.08374e-16 0)
(3 -4.34448e-16 0)
(3 -1.78887e-16 0)
(3 -2.64418e-16 0)
(3 -9.60317e-16 0)
(3 -1.49458e-15 0)