/*--------------------------------*- C++ -*----------------------------------*\
  =========                 |
  \\      /  F ield         | OpenFOAM: The Open Source CFD Toolbox
   \\    /   O peration     | Website:  https://openfoam.org
    \\  /    A nd           | Version:  7
     \\/     M anipulation  |
\*---------------------------------------------------------------------------*/
FoamFile
{
    version     2.0;
    format      ascii;
    class       volScalarField;
    location    "2";
    object      p;
}
// * * * * * * * * * * * * * * * * * * * * * * * * * * * * * * * * * * * * * //

dimensions      [1 -1 -2 0 0 0 0];

internalField   nonuniform List<scalar> 
19968
(
1
1
1
1
1
1
1
1
1
1
1
1
1
1
1
1
1
1
1
1
1
1
1
1
1
1
1
1
1
1
1
1
1
1
1
1
1
1
1
1
1
1
1
1
1
1
1
1
1
1
6.68747
10.5053
10.5439
10.5991
10.6524
10.701
10.7478
10.7953
10.8461
10.9037
10.966
11.0295
11.0893
11.1444
11.1939
11.2411
11.29
11.3395
11.3879
11.4326
11.4754
11.5148
11.5539
11.5945
11.6341
11.6697
11.7014
11.7313
11.7612
11.7911
11.8218
11.8534
11.885
11.9124
11.9346
11.9545
11.9741
11.995
12.0132
12.0284
12.0413
12.0513
12.0625
12.0769
12.0908
12.1031
1
1
1
1
1
1
1
1
1
1
1
1
1
1
1
1
1
1
1
1
1
1
1
1
1
1
1
1
1
1
1
1
1
1
1
1
1
1
1
1
1
1
1
1
1
1
1
1
1
1
6.59978
10.4768
10.5356
10.5943
10.6491
10.6994
10.7478
10.7963
10.8477
10.9054
10.9676
11.0298
11.0876
11.1409
11.1886
11.2348
11.2832
11.3326
11.3813
11.4267
11.4702
11.5109
11.5504
11.591
11.6301
11.6655
11.6974
11.7276
11.7574
11.7868
11.8169
11.8481
11.8795
11.9071
11.9296
11.9494
11.9688
11.9891
12.0068
12.0216
12.0344
12.0442
12.0557
12.0705
12.0848
12.0974
1
1
1
1
1
1
1
1
1
1
1
1
1
1
1
1
1
1
1
1
1
1
1
1
1
1
1
1
1
1
1
1
1
1
1
1
1
1
1
1
1
1
1
1
1
1
1
1
1
1
6.40746
10.4452
10.5208
10.583
10.6397
10.6924
10.7432
10.7935
10.8463
10.9048
10.9673
11.0285
11.0843
11.1355
11.1808
11.225
11.2723
11.3214
11.3699
11.4161
11.4604
11.503
11.5436
11.5842
11.6229
11.658
11.69
11.7204
11.7501
11.7793
11.8092
11.8403
11.8713
11.8988
11.9213
11.9407
11.9596
11.9791
11.9961
12.0102
12.0226
12.0321
12.0439
12.0591
12.074
12.0871
1
1
1
1
1
1
1
1
1
1
1
1
1
1
1
1
1
1
1
1
1
1
1
1
1
1
1
1
1
1
1
1
1
1
1
1
1
1
1
1
1
1
1
1
1
1
1
1
1
1
6.09555
10.4004
10.5029
10.5657
10.6248
10.6817
10.7359
10.7878
10.841
10.9004
10.9636
11.0244
11.0782
11.1264
11.1686
11.2098
11.256
11.3048
11.3531
11.3999
11.4448
11.4892
11.5313
11.5725
11.611
11.646
11.6783
11.7087
11.7383
11.7672
11.7968
11.8275
11.8578
11.885
11.9076
11.9267
11.945
11.9637
11.9798
11.9933
12.0052
12.0143
12.0261
12.0414
12.0562
12.0692
1
1
1
1
1
1
1
1
1
1
1
1
1
1
1
1
1
1
1
1
1
1
1
1
1
1
1
1
1
1
1
1
1
1
1
1
1
1
1
1
1
1
1
1
1
1
1
1
1
1
5.6472
10.3362
10.4825
10.5431
10.606
10.6664
10.7234
10.7766
10.8303
10.8899
10.954
11.0151
11.0681
11.1142
11.1537
11.1918
11.2361
11.2839
11.3314
11.3779
11.4225
11.468
11.5114
11.5537
11.5925
11.6278
11.6603
11.6907
11.7201
11.7488
11.7782
11.8085
11.8379
11.8647
11.8872
11.9057
11.9237
11.9417
11.9573
11.9707
11.9824
11.9915
12.0035
12.0183
12.0322
12.0446
1
1
1
1
1
1
1
1
1
1
1
1
1
1
1
1
1
1
1
1
1
1
1
1
1
1
1
1
1
1
1
1
1
1
1
1
1
1
1
1
1
1
1
1
1
1
1
1
1
1
5.05204
10.2312
10.4632
10.5204
10.5857
10.6471
10.7056
10.7601
10.8139
10.8729
10.9368
10.9975
11.0512
11.0966
11.1348
11.1707
11.2131
11.2596
11.3063
11.3526
11.3967
11.4423
11.4866
11.5299
11.5694
11.6048
11.6371
11.6665
11.6949
11.7226
11.7512
11.7808
11.8096
11.8361
11.8582
11.8764
11.8943
11.9121
11.9275
11.9412
11.9532
11.9625
11.9744
11.9878
11.9996
12.0105
1
1
1
1
1
1
1
1
1
1
1
1
1
1
1
1
1
1
1
1
1
1
1
1
1
1
1
1
1
1
1
1
1
1
1
1
1
1
1
1
1
1
1
1
1
1
1
1
1
1
4.31319
10.0467
10.4452
10.4993
10.5662
10.6281
10.6879
10.7436
10.7972
10.855
10.9174
10.977
11.0307
11.076
11.1132
11.1475
11.1868
11.2304
11.2743
11.3184
11.3608
11.4056
11.4503
11.4946
11.5346
11.57
11.602
11.6305
11.6579
11.6848
11.713
11.7429
11.7724
11.7989
11.8208
11.8388
11.8563
11.8735
11.8886
11.9028
11.9147
11.9239
11.9349
11.946
11.9547
11.9631
1
1
1
1
1
1
1
1
1
1
1
1
1
1
1
1
1
1
1
1
1
1
1
1
1
1
1
1
1
1
1
1
1
1
1
1
1
1
1
1
1
1
1
1
1
1
1
1
1
1
3.47489
9.74181
10.4368
10.4856
10.5491
10.6073
10.6656
10.7214
10.775
10.8308
10.891
10.9485
11.0004
11.0465
11.0851
11.1202
11.1584
11.1995
11.2404
11.2815
11.3219
11.3656
11.4106
11.4558
11.4961
11.5306
11.5613
11.5879
11.6137
11.6396
11.6676
11.6978
11.7279
11.7548
11.7767
11.7945
11.8108
11.8269
11.8413
11.8554
11.8673
11.8761
11.8856
11.8937
11.8982
11.9036
1
1
1
1
1
1
1
1
1
1
1
1
1
1
1
1
1
1
1
1
1
1
1
1
1
1
1
1
1
1
1
1
1
1
1
1
1
1
1
1
1
1
1
1
1
1
1
1
1
1
2.56546
9.19393
10.4312
10.4866
10.5428
10.5942
10.6468
10.6994
10.7507
10.804
10.8608
10.9157
10.9659
11.012
11.052
11.0883
11.1259
11.1652
11.2037
11.2416
11.2793
11.3208
11.3647
11.4096
11.4497
11.4823
11.5103
11.5336
11.5566
11.5807
11.608
11.6379
11.668
11.6948
11.7165
11.7339
11.7493
11.7643
11.7778
11.7918
11.8044
11.814
11.8232
11.8295
11.8309
11.8338
1
1
1
1
1
1
1
1
1
1
1
1
1
1
1
1
1
1
1
1
1
1
1
1
1
1
1
1
1
1
1
1
1
1
1
1
1
1
1
1
1
1
1
1
1
1
1
1
1
1
1.7577
8.35147
10.4598
10.4596
10.5167
10.563
10.613
10.6638
10.714
10.7644
10.8174
10.8694
10.9176
10.9625
11.0027
11.0402
11.0773
11.1149
11.1514
11.1864
11.2212
11.2593
11.3007
11.3441
11.3837
11.4148
11.4402
11.4606
11.4807
11.5033
11.5304
11.5613
11.593
11.6214
11.6443
11.6622
11.6772
11.6904
11.7015
11.7118
11.7214
11.729
11.7349
11.7376
11.7353
11.7355
1
1
1
1
1
1
1
1
1
1
1
1
1
1
1
1
1
1
1
1
1
1
1
1
1
1
1
1
1
1
1
1
1
1
1
1
1
1
1
1
1
1
1
1
1
1
1
1
1
1
1.06718
6.92393
10.4416
10.4762
10.5261
10.5629
10.6023
10.6443
10.6888
10.7352
10.7846
10.8328
10.8764
10.9165
10.9532
10.9883
11.0234
11.0587
11.0935
11.1265
11.1588
11.1921
11.2281
11.2663
11.3027
11.3309
11.3522
11.3678
11.3826
11.4009
11.425
11.4548
11.4858
11.5137
11.5355
11.5519
11.5653
11.5768
11.5865
11.595
11.6036
11.6103
11.615
11.6164
11.6127
11.6125
1
1
1
1
1
1
1
1
1
1
1
1
1
1
1
1
1
1
1
1
1
1
1
1
1
1
1
1
1
1
1
1
1
1
1
1
1
1
1
1
1
1
1
1
1
1
1
1
1
1
1.0003
5.10652
10.15
10.3472
10.4161
10.4703
10.5165
10.559
10.6023
10.6474
10.6955
10.7425
10.7851
10.8241
10.8599
10.8943
10.9289
10.9641
10.9998
11.035
11.0688
11.1007
11.1333
11.1676
11.2018
11.2295
11.2496
11.264
11.2763
11.2918
11.3135
11.3421
11.3725
11.3992
11.4198
11.434
11.444
11.4506
11.4545
11.4556
11.4552
11.453
11.4488
11.4437
11.4365
11.4349
1
1
1
1
1
1
1
1
1
1
1
1
1
1
1
1
1
1
1
1
1
1
1
1
1
1
1
1
1
1
1
1
1
1
1
1
1
1
1
1
1
1
1
1
1
1
1
1
1
1
1
3.08045
9.43341
10.32
10.3709
10.4189
10.4601
10.4995
10.5406
10.5848
10.6319
10.677
10.7174
10.7543
10.7887
10.8213
10.8537
10.8866
10.9201
10.9544
10.9871
11.0157
11.0419
11.0696
11.0986
11.1236
11.141
11.1522
11.1597
11.1686
11.183
11.2045
11.2276
11.2469
11.2604
11.2652
11.2653
11.2623
11.2569
11.2495
11.2428
11.2368
11.2312
11.2266
11.2207
11.2197
1
1
1
1
1
1
1
1
1
1
1
1
1
1
1
1
1
1
1
1
1
1
1
1
1
1
1
1
1
1
1
1
1
1
1
1
1
1
1
1
1
1
1
1
1
1
1
1
1
1
1
1.43081
7.77071
10.3892
10.3731
10.3911
10.4106
10.4361
10.4671
10.5044
10.5468
10.5879
10.6248
10.6581
10.6895
10.7191
10.7481
10.7773
10.8066
10.8377
10.8683
10.8942
10.9155
10.9372
10.96
10.9811
10.997
11.0062
11.0098
11.0128
11.0186
11.0308
11.0461
11.0589
11.0659
11.0638
11.0582
11.0503
11.0386
11.0223
11.0024
10.9798
10.9525
10.9225
10.8934
10.8707
1
1
1
1
1
1
1
1
1
1
1
1
1
1
1
1
1
1
1
1
1
1
1
1
1
1
1
1
1
1
1
1
1
1
1
1
1
1
1
1
1
1
1
1
1
1
1
1
1
1
1
1.00532
4.99413
10.0557
10.1978
10.2224
10.2543
10.2926
10.3331
10.3771
10.4248
10.4718
10.514
10.551
10.5843
10.6146
10.6425
10.6689
10.6933
10.7184
10.746
10.771
10.7904
10.8062
10.8203
10.8328
10.8432
10.8473
10.8453
10.8396
10.8334
10.8293
10.8281
10.8258
10.8163
10.7976
10.771
10.7374
10.695
10.6418
10.5816
10.5201
10.469
10.427
10.4088
10.4003
1
1
1
1
1
1
1
1
1
1
1
1
1
1
1
1
1
1
1
1
1
1
1
1
1
1
1
1
1
1
1
1
1
1
1
1
1
1
1
1
1
1
1
1
1
1
1
1
1
1
1
1
2.03152
8.44059
10.0685
10.1117
10.1652
10.2016
10.2383
10.2766
10.3186
10.3621
10.4035
10.4398
10.4712
10.499
10.5235
10.5446
10.5635
10.5803
10.5987
10.6191
10.6348
10.6438
10.647
10.6489
10.6505
10.6459
10.6368
10.6223
10.6023
10.5796
10.5569
10.5321
10.5015
10.4619
10.4114
10.3519
10.2829
10.2043
10.1203
10.0342
9.93906
9.85966
9.73379
9.8401
1
1
1
1
1
1
1
1
1
1
1
1
1
1
1
1
1
1
1
1
1
1
1
1
1
1
1
1
1
1
1
1
1
1
1
1
1
1
1
1
1
1
1
1
1
1
1
1
1
1
1
1
1.02967
5.49102
9.92588
10.0532
10.1014
10.1402
10.1755
10.2067
10.2369
10.2691
10.3025
10.3339
10.3608
10.3828
10.4016
10.4176
10.4317
10.4428
10.4554
10.4685
10.4793
10.4843
10.4813
10.4753
10.4652
10.4518
10.4344
10.4112
10.3789
10.3389
10.2936
10.2442
10.1889
10.1236
10.0422
9.94243
9.81854
9.66532
9.46578
9.20336
8.82554
8.28687
7.35763
5.48955
1
1
1
1
1
1
1
1
1
1
1
1
1
1
1
1
1
1
1
1
1
1
1
1
1
1
1
1
1
1
1
1
1
1
1
1
1
1
1
1
1
1
1
1
1
1
1
1
1
1
1
1
0.99995
2.62328
8.8463
10.0026
10.0263
10.084
10.1172
10.1459
10.172
10.1996
10.2297
10.2594
10.2844
10.3028
10.3162
10.3271
10.3363
10.3418
10.3469
10.3509
10.3535
10.3519
10.342
10.3257
10.3045
10.2811
10.2542
10.2217
10.1791
10.1251
10.0607
9.9888
9.9086
9.81785
9.7058
9.5684
9.39154
9.17382
8.88464
8.51821
8.00136
7.34832
6.13952
4.54558
1
1
1
1
1
1
1
1
1
1
1
1
1
1
1
1
1
1
1
1
1
1
1
1
1
1
1
1
1
1
1
1
1
1
1
1
1
1
1
1
1
1
1
1
1
1
1
1
1
1
1
1
0.999991
1.09005
6.51026
10.0269
10.0189
10.0438
10.0629
10.0838
10.1007
10.1187
10.1404
10.1637
10.1845
10.2001
10.2102
10.2174
10.2213
10.2229
10.2225
10.2199
10.2149
10.2061
10.1898
10.1659
10.1362
10.103
10.0654
10.0216
9.96789
9.90154
9.82036
9.72797
9.62292
9.50607
9.36514
9.19499
8.97902
8.71242
8.37703
7.9484
7.42034
6.64291
5.64567
4.55612
1
1
1
1
1
1
1
1
1
1
1
1
1
1
1
1
1
1
1
1
1
1
1
1
1
1
1
1
1
1
1
1
1
1
1
1
1
1
1
1
1
1
1
1
1
1
1
1
1
1
1
1
0.999999
1.00018
3.27196
9.04334
9.8724
9.91652
9.9614
9.99409
10.0114
10.0258
10.0418
10.0602
10.079
10.095
10.1066
10.1117
10.1103
10.1062
10.099
10.0888
10.0752
10.0575
10.0347
10.0048
9.96757
9.92445
9.87546
9.8205
9.75506
9.67713
9.58242
9.47395
9.34932
9.20983
9.04648
8.85198
8.61398
8.32262
7.9701
7.53115
7.00036
6.31813
5.56103
4.72866
1
1
1
1
1
1
1
1
1
1
1
1
1
1
1
1
1
1
1
1
1
1
1
1
1
1
1
1
1
1
1
1
1
1
1
1
1
1
1
1
1
1
1
1
1
1
1
1
1
1
1
1
1
1
1.15708
6.80385
9.92581
9.90999
9.91372
9.92449
9.93337
9.94377
9.95445
9.96677
9.98024
9.99272
10.0019
10.0025
9.99579
9.98491
9.97049
9.95403
9.93512
9.9106
9.88096
9.84382
9.79797
9.74576
9.68572
9.61959
9.54217
9.45261
9.3464
9.22554
9.08762
8.93235
8.75459
8.54684
8.30109
8.00632
7.66241
7.23766
6.75711
6.19363
5.60153
4.94189
1
1
1
1
1
1
1
1
1
1
1
1
1
1
1
1
1
1
1
1
1
1
1
1
1
1
1
1
1
1
1
1
1
1
1
1
1
1
1
1
1
1
1
1
1
1
1
1
1
1
1
1
1
1
1.00069
3.3367
8.98919
9.72523
9.77809
9.80543
9.82574
9.83775
9.84498
9.85039
9.85813
9.86861
9.87789
9.88019
9.87278
9.85711
9.83651
9.81286
9.78619
9.7563
9.72125
9.68005
9.63053
9.57353
9.50548
9.42881
9.34103
9.2421
9.12777
8.9984
8.85186
8.68707
8.50073
8.28739
8.04276
7.75592
7.43074
7.04495
6.62822
6.15668
5.66987
5.1341
1
1
1
1
1
1
1
1
1
1
1
1
1
1
1
1
1
1
1
1
1
1
1
1
1
1
1
1
1
1
1
1
1
1
1
1
1
1
1
1
1
1
1
1
1
1
1
1
1
1
1
1
1
1
0.999999
1.15751
6.40323
9.74975
9.71888
9.71306
9.73042
9.74413
9.75451
9.7609
9.76546
9.77195
9.77822
9.77902
9.77008
9.75115
9.72529
9.69285
9.65613
9.61865
9.57716
9.52947
9.47398
9.40961
9.33303
9.24705
9.1502
9.04315
8.92333
8.78901
8.63791
8.46916
8.28075
8.06826
7.83098
7.55713
7.25592
6.91737
6.55442
6.14883
5.73767
5.2917
1
1
1
1
1
1
1
1
1
1
1
1
1
1
1
1
1
1
1
1
1
1
1
1
1
1
1
1
1
1
1
1
1
1
1
1
1
1
1
1
1
1
1
1
1
1
1
1
1
1
1
1
1
1
1
1.00071
2.61281
8.51441
9.55997
9.57547
9.61981
9.65189
9.66849
9.67228
9.67018
9.66678
9.66374
9.65917
9.64807
9.62876
9.60085
9.56374
9.51935
9.4726
9.42385
9.37232
9.31371
9.24667
9.16799
9.07817
8.97564
8.86293
8.73958
8.60318
8.4517
8.28312
8.09774
7.88868
7.65948
7.40111
7.12179
6.82382
6.49972
6.15551
5.80362
5.41948
1
1
1
1
1
1
1
1
1
1
1
1
1
1
1
1
1
1
1
1
1
1
1
1
1
1
1
1
1
1
1
1
1
1
1
1
1
1
1
1
1
1
1
1
1
1
1
1
1
1
1
1
1
1
1
1
1.0757
5.21983
9.34836
9.55569
9.56225
9.58103
9.59733
9.60161
9.59801
9.58874
9.57744
9.56458
9.54775
9.5249
9.49238
9.44935
9.39742
9.34136
9.28295
9.22425
9.16155
9.09096
9.01011
8.91785
8.81179
8.69643
8.57137
8.43429
8.28479
8.11947
7.94335
7.73983
7.52295
7.28348
7.02287
6.75651
6.46655
6.16908
5.85186
5.52248
1
1
1
1
1
1
1
1
1
1
1
1
1
1
1
1
1
1
1
1
1
1
1
1
1
1
1
1
1
1
1
1
1
1
1
1
1
1
1
1
1
1
1
1
1
1
1
1
1
1
1
1
1
1
1
1
1.00018
1.54097
7.5205
9.60628
9.54305
9.51184
9.51033
9.5072
9.49921
9.48283
9.46278
9.44083
9.41688
9.39086
9.35736
9.31534
9.26412
9.20543
9.14079
9.0735
9.00463
8.9334
8.85309
8.76274
8.65969
8.54637
8.42227
8.28624
8.13957
7.97738
7.80956
7.61216
7.41115
7.18936
6.94944
6.70758
6.44511
6.17914
5.89184
5.60888
1
1
1
1
1
1
1
1
1
1
1
1
1
1
1
1
1
1
1
1
1
1
1
1
1
1
1
1
1
1
1
1
1
1
1
1
1
1
1
1
1
1
1
1
1
1
1
1
1
1
1
1
1
1
1
1
1
1.00849
3.63088
8.86295
9.32898
9.36442
9.38666
9.39524
9.39002
9.37106
9.34509
9.31619
9.28443
9.2536
9.21843
9.17921
9.13119
9.07408
9.00686
8.93475
8.86112
8.78569
8.70371
8.61377
8.51469
8.40644
8.28901
8.15724
8.01572
7.85591
7.69225
7.5038
7.31927
7.11333
6.89748
6.67407
6.43587
6.19246
5.93365
5.68258
1
1
1
1
1
1
1
1
1
1
1
1
1
1
1
1
1
1
1
1
1
1
1
1
1
1
1
1
1
1
1
1
1
1
1
1
1
1
1
1
1
1
1
1
1
1
1
1
1
1
1
1
1
1
1
1
1
1
1.18048
5.55219
9.16415
9.32014
9.33873
9.33775
9.32448
9.29579
9.25976
9.22075
9.17986
9.13977
9.09781
9.05737
9.01245
8.95902
8.8962
8.82388
8.74742
8.66545
8.5752
8.48024
8.38243
8.27837
8.16588
8.04073
7.90401
7.75041
7.59123
7.41438
7.24153
7.04906
6.85464
6.64629
6.43015
6.20387
5.97282
5.74501
1
1
1
1
1
1
1
1
1
1
1
1
1
1
1
1
1
1
1
1
1
1
1
1
1
1
1
1
1
1
1
1
1
1
1
1
1
1
1
1
1
1
1
1
1
1
1
1
1
1
1
1
1
1
1
1
1
1
1.00105
1.5619
7.3253
9.35569
9.30695
9.27329
9.22942
9.18951
9.14923
9.10774
9.066
9.02363
8.97896
8.93652
8.89147
8.83744
8.77778
8.71144
8.63905
8.55726
8.46487
8.36629
8.26402
8.16202
8.05063
7.92992
7.79931
7.65672
7.50524
7.3424
7.17781
6.99963
6.82017
6.62461
6.42567
6.21537
6.00758
5.79688
1
1
1
1
1
1
1
1
1
1
1
1
1
1
1
1
1
1
1
1
1
1
1
1
1
1
1
1
1
1
1
1
1
1
1
1
1
1
1
1
1
1
1
1
1
1
1
1
1
1
1
1
1
1
1
1
1
1
1
1.00924
3.16491
8.53931
9.16579
9.08688
9.054
9.02517
8.99994
8.9748
8.94673
8.91496
8.8745
8.8319
8.78589
8.73135
8.6706
8.60678
8.54363
8.4707
8.38064
8.28091
8.17315
8.06423
7.94994
7.82924
7.70201
7.56865
7.42632
7.27748
7.12166
6.95908
6.7898
6.60675
6.4216
6.22685
6.03701
5.84134
1
1
1
1
1
1
1
1
1
1
1
1
1
1
1
1
1
1
1
1
1
1
1
1
1
1
1
1
1
1
1
1
1
1
1
1
1
1
1
1
1
1
1
1
1
1
1
1
1
1
1
1
1
1
1
1
1
1
1
1.00001
1.12059
4.78409
8.90102
8.96312
8.92163
8.92062
8.9066
8.88671
8.86121
8.83098
8.79064
8.74629
8.69869
8.63894
8.57353
8.50515
8.43767
8.37129
8.29062
8.1975
8.09425
7.98525
7.86821
7.74651
7.61976
7.49047
7.35559
7.21747
7.07201
6.92432
6.76386
6.59272
6.42003
6.23859
6.06299
5.87984
1
1
1
1
1
1
1
1
1
1
1
1
1
1
1
1
1
1
1
1
1
1
1
1
1
1
1
1
1
1
1
1
1
1
1
1
1
1
1
1
1
1
1
1
1
1
1
1
1
1
1
1
1
1
1
1
1
1
1
1
1.00055
1.36493
5.78843
8.77561
8.86347
8.85161
8.83971
8.82128
8.79711
8.76739
8.72584
8.68143
8.63124
8.56949
8.49962
8.42509
8.34703
8.27002
8.19635
8.11211
8.01858
7.91636
7.80539
7.68464
7.55688
7.42807
7.29704
7.16496
7.02811
6.89062
6.73747
6.57814
6.41767
6.2486
6.086
5.91402
1
1
1
1
1
1
1
1
1
1
1
1
1
1
1
1
1
1
1
1
1
1
1
1
1
1
1
1
1
1
1
1
1
1
1
1
1
1
1
1
1
1
1
1
1
1
1
1
1
1
1
1
1
1
1
1
1
1
1
1
1
1.00402
1.64763
6.55468
8.76049
8.81581
8.78795
8.76156
8.73299
8.69562
8.65416
8.60995
8.55872
8.49893
8.43125
8.35548
8.27252
8.18467
8.10332
8.02476
7.93996
7.8469
7.74448
7.62908
7.50387
7.37656
7.24866
7.12096
6.99133
6.85931
6.71127
6.56406
6.41551
6.2581
6.10698
5.94501
1
1
1
1
1
1
1
1
1
1
1
1
1
1
1
1
1
1
1
1
1
1
1
1
1
1
1
1
1
1
1
1
1
1
1
1
1
1
1
1
1
1
1
1
1
1
1
1
1
1
1
1
1
1
1
1
1
1
1
1
1
1.00001
1.01193
1.9939
7.20053
8.76196
8.74519
8.72061
8.67399
8.63013
8.58417
8.53515
8.48207
8.42394
8.35959
8.28713
8.20478
8.11459
8.02759
7.94754
7.86779
7.78087
7.6849
7.57653
7.45679
7.33289
7.20876
7.08527
6.96167
6.83219
6.688
6.55031
6.41151
6.26559
6.12471
5.97281
1
1
1
1
1
1
1
1
1
1
1
1
1
1
1
1
1
1
1
1
1
1
1
1
1
1
1
1
1
1
1
1
1
1
1
1
1
1
1
1
1
1
1
1
1
1
1
1
1
1
1
1
1
1
1
1
1
1
1
1
1
1
1.00002
1.02701
2.5796
7.72922
8.69514
8.65303
8.62251
8.5701
8.51976
8.46358
8.40809
8.34922
8.28592
8.21684
8.13873
8.05286
7.96781
7.88673
7.80565
7.71984
7.62656
7.52291
7.40884
7.28993
7.17049
7.05169
6.93388
6.80905
6.67113
6.54063
6.40905
6.27314
6.14064
5.99836
1
1
1
1
1
1
1
1
1
1
1
1
1
1
1
1
1
1
1
1
1
1
1
1
1
1
1
1
1
1
1
1
1
1
1
1
1
1
1
1
1
1
1
1
1
1
1
1
1
1
1
1
1
1
1
1
1
1
1
1
1
1
1
1.00008
1.06485
3.28272
8.01802
8.59197
8.54058
8.50487
8.44991
8.3958
8.33615
8.27449
8.2111
8.14357
8.06967
7.98978
7.90985
7.83163
7.75178
7.66648
7.57344
7.47124
7.36121
7.24809
7.13389
7.01949
6.90697
6.78924
6.65964
6.53464
6.40811
6.28044
6.15572
6.0226
1
1
1
1
1
1
1
1
1
1
1
1
1
1
1
1
1
1
1
1
1
1
1
1
1
1
1
1
1
1
1
1
1
1
1
1
1
1
1
1
1
1
1
1
1
1
1
1
1
1
1
1
1
1
1
1
1
1
1
1
1
1
1
1
1.00026
1.13417
3.78545
8.10194
8.48872
8.42686
8.38236
8.33028
8.2745
8.21568
8.15328
8.08546
8.01208
7.93557
7.85898
7.78215
7.70193
7.61555
7.52243
7.42244
7.31661
7.20906
7.1004
6.98998
6.88217
6.77146
6.65199
6.53269
6.41046
6.28895
6.17159
6.04658
1
1
1
1
1
1
1
1
1
1
1
1
1
1
1
1
1
1
1
1
1
1
1
1
1
1
1
1
1
1
1
1
1
1
1
1
1
1
1
1
1
1
1
1
1
1
1
1
1
1
1
1
1
1
1
1
1
1
1
1
1
1
1
1
1
1.00082
1.20516
4.05562
8.07021
8.39024
8.3192
8.27435
8.22007
8.16369
8.10056
8.03271
7.96213
7.89026
7.81586
7.73769
7.65489
7.5673
7.4744
7.37666
7.27589
7.17522
7.07348
6.96947
6.86622
6.76009
6.64848
6.53454
6.41628
6.29896
6.18723
6.06926
1
1
1
1
1
1
1
1
1
1
1
1
1
1
1
1
1
1
1
1
1
1
1
1
1
1
1
1
1
1
1
1
1
1
1
1
1
1
1
1
1
1
1
1
1
1
1
1
1
1
1
1
1
1
1
1
1
1
1
1
1
1
1
1
1
1
1.00166
1.25466
4.14964
7.96263
8.29373
8.22037
8.17219
8.11366
8.05316
7.98824
7.92025
7.84933
7.77455
7.6958
7.61258
7.52464
7.43302
7.33914
7.24367
7.14798
7.05122
6.95253
6.85262
6.74974
6.64422
6.53576
6.42228
6.30867
6.20091
6.0896
1
1
1
1
1
1
1
1
1
1
1
1
1
1
1
1
1
1
1
1
1
1
1
1
1
1
1
1
1
1
1
1
1
1
1
1
1
1
1
1
1
1
1
1
1
1
1
1
1
1
1
1
1
1
1
1
1
1
1
1
1
1
1
1
1
1
1
1.00243
1.27794
4.09655
7.82288
8.19707
8.12348
8.06962
8.00971
7.9467
7.88029
7.80918
7.73376
7.65459
7.57241
7.48733
7.39981
7.31049
7.21957
7.12746
7.03388
6.9389
6.84173
6.74105
6.63914
6.53539
6.42685
6.31753
6.2129
6.10514
1
1
1
1
1
1
1
1
1
1
1
1
1
1
1
1
1
1
1
1
1
1
1
1
1
1
1
1
1
1
1
1
1
1
1
1
1
1
1
1
1
1
1
1
1
1
1
1
1
1
1
1
1
1
1
1
1
1
1
1
1
1
1
1
1
1
1
1
1.00287
1.27459
3.90201
7.66717
8.10918
8.03635
7.97709
7.91293
7.84517
7.77311
7.69784
7.61988
7.5393
7.45654
7.37224
7.28683
7.20026
7.11167
7.02018
6.92665
6.83189
6.73441
6.63617
6.53769
6.43367
6.32867
6.22567
6.11822
1
1
1
1
1
1
1
1
1
1
1
1
1
1
1
1
1
1
1
1
1
1
1
1
1
1
1
1
1
1
1
1
1
1
1
1
1
1
1
1
1
1
1
1
1
1
1
1
1
1
1
1
1
1
1
1
1
1
1
1
1
1
1
1
1
1
1
1
1
1.00288
1.24436
3.59784
7.50225
8.02744
7.95552
7.89126
7.8185
7.74312
7.667
7.58905
7.50965
7.42941
7.34844
7.26613
7.18222
7.09685
7.00929
6.91873
6.82627
6.73074
6.63333
6.53744
6.43806
6.33824
6.24
6.13503
1
1
1
1
1
1
1
1
1
1
1
1
1
1
1
1
1
1
1
1
1
1
1
1
1
1
1
1
1
1
1
1
1
1
1
1
1
1
1
1
1
1
1
1
1
1
1
1
1
1
1
1
1
1
1
1
1
1
1
1
1
1
1
1
1
1
1
1
1
1
1.00244
1.19589
3.27518
7.30192
7.92293
7.86671
7.78878
7.71322
7.63491
7.55792
7.48127
7.40313
7.32308
7.24193
7.16076
7.08018
6.99822
6.91237
6.82281
6.72967
6.63295
6.53763
6.44275
6.34666
6.25336
6.15402
1
1
1
1
1
1
1
1
1
1
1
1
1
1
1
1
1
1
1
1
1
1
1
1
1
1
1
1
1
1
1
1
1
1
1
1
1
1
1
1
1
1
1
1
1
1
1
1
1
1
1
1
1
1
1
1
1
1
1
1
1
1
1
1
1
1
1
1
1
1
1
1.00173
1.14834
2.98861
6.96924
7.79485
7.75446
7.67519
7.60494
7.53088
7.45635
7.38061
7.3041
7.22625
7.14616
7.06488
6.9848
6.90512
6.82254
6.73535
6.64186
6.54452
6.44858
6.35268
6.26179
6.17168
1
1
1
1
1
1
1
1
1
1
1
1
1
1
1
1
1
1
1
1
1
1
1
1
1
1
1
1
1
1
1
1
1
1
1
1
1
1
1
1
1
1
1
1
1
1
1
1
1
1
1
1
1
1
1
1
1
1
1
1
1
1
1
1
1
1
1
1
1
1
1
1
1.00112
1.11109
2.64472
6.51843
7.63533
7.64547
7.56398
7.4972
7.43015
7.36471
7.29626
7.22174
7.14048
7.05494
6.97306
6.89546
6.81708
6.73618
6.65002
6.55668
6.46086
6.36557
6.27191
6.18462
1
1
1
1
1
1
1
1
1
1
1
1
1
1
1
1
1
1
1
1
1
1
1
1
1
1
1
1
1
1
1
1
1
1
1
1
1
1
1
1
1
1
1
1
1
1
1
1
1
1
1
1
1
1
1
1
1
1
1
1
1
1
1
1
1
1
1
1
1
1
1
1
1
1.00072
1.07526
2.29526
5.83163
7.47751
7.57222
7.47407
7.40877
7.34505
7.28084
7.21667
7.14591
7.06439
6.97585
6.88852
6.80842
6.73316
6.65545
6.56984
6.47795
6.38387
6.28754
6.19912
1
1
1
1
1
1
1
1
1
1
1
1
1
1
1
1
1
1
1
1
1
1
1
1
1
1
1
1
1
1
1
1
1
1
1
1
1
1
1
1
1
1
1
1
1
1
1
1
1
1
1
1
1
1
1
1
1
1
1
1
1
1
1
1
1
1
1
1
1
1
1
1
1
1
1.0004
1.04695
1.91835
4.97505
7.26907
7.47161
7.40197
7.3453
7.28401
7.21632
7.1423
7.06386
6.98044
6.89508
6.81216
6.73369
6.65696
6.57638
6.49046
6.40046
6.30531
6.21668
1
1
1
1
1
1
1
1
1
1
1
1
1
1
1
1
1
1
1
1
1
1
1
1
1
1
1
1
1
1
1
1
1
1
1
1
1
1
1
1
1
1
1
1
1
1
1
1
1
1
1
1
1
1
1
1
1
1
1
1
1
1
1
1
1
1
1
1
1
1
1
1
1
1
1
1.0002
1.02486
1.57301
4.07822
6.9323
7.40143
7.3552
7.2853
7.21531
7.13948
7.06055
6.97957
6.89787
6.8178
6.74048
6.66442
6.58557
6.50151
6.41364
6.32212
6.23588
1
1
1
1
1
1
1
1
1
1
1
1
1
1
1
1
1
1
1
1
1
1
1
1
1
1
1
1
1
1
1
1
1
1
1
1
1
1
1
1
1
1
1
1
1
1
1
1
1
1
1
1
1
1
1
1
1
1
1
1
1
1
1
1
1
1
1
1
1
1
1
1
1
1
1
1
1.00008
1.0109
1.31816
3.22696
6.45415
7.27629
7.33238
7.20352
7.13316
7.06126
6.98418
6.90537
6.82758
6.75018
6.6744
6.59564
6.51243
6.42896
6.34198
6.2582
1
1
1
1
1
1
1
1
1
1
1
1
1
1
1
1
1
1
1
1
1
1
1
1
1
1
1
1
1
1
1
1
1
1
1
1
1
1
1
1
1
1
1
1
1
1
1
1
1
1
1
1
1
1
1
1
1
1
1
1
1
1
1
1
1
1
1
1
1
1
1
1
1
1
1
1
1
1.00002
1.0041
1.15616
2.52859
5.66667
7.13079
7.21973
7.14012
7.061
6.98586
6.91141
6.83232
6.75633
6.68094
6.60169
6.52198
6.44107
6.35794
6.27945
1
1
1
1
1
1
1
1
1
1
1
1
1
1
1
1
1
1
1
1
1
1
1
1
1
1
1
1
1
1
1
1
1
1
1
1
1
1
1
1
1
1
1
1
1
1
1
1
1
1
1
1
1
1
1
1
1
1
1
1
1
1
1
1
1
1
1
1
1
1
1
1
1
1
1
1
1
1
1.00001
1.00133
1.06996
1.95008
4.66996
6.84129
7.12976
7.08361
6.98741
6.90576
6.83597
6.7666
6.6916
6.61713
6.5387
6.45881
6.3838
6.30486
1
1
1
1
1
1
1
1
1
1
1
1
1
1
1
1
1
1
1
1
1
1
1
1
1
1
1
1
1
1
1
1
1
1
1
1
1
1
1
1
1
1
1
1
1
1
1
1
1
1
1
1
1
1
1
1
1
1
1
1
1
1
1
1
1
1
1
1
1
1
1
1
1
1
1
1
1
1
1
1
1.00039
1.02782
1.51329
3.59293
6.35626
7.01055
7.02995
6.92775
6.8468
6.77319
6.70809
6.6389
6.56157
6.48662
6.40962
6.32711
1
1
1
1
1
1
1
1
1
1
1
1
1
1
1
1
1
1
1
1
1
1
1
1
1
1
1
1
1
1
1
1
1
1
1
1
1
1
1
1
1
1
1
1
1
1
1
1
1
1
1
1
1
1
1
1
1
1
1
1
1
1
1
1
1
1
1
1
1
1
1
1
1
1
1
1
1
1
1
1
1
1.0001
1.00936
1.23104
2.67364
5.53477
6.8517
6.94017
6.86804
6.771
6.70497
6.64688
6.58458
6.51456
6.4337
6.35569
1
1
1
1
1
1
1
1
1
1
1
1
1
1
1
1
1
1
1
1
1
1
1
1
1
1
1
1
1
1
1
1
1
1
1
1
1
1
1
1
1
1
1
1
1
1
1
1
1
1
1
1
1
1
1
1
1
1
1
1
1
1
1
1
1
1
1
1
1
1
1
1
1
1
1
1
1
1
1
1
1
1
1.00002
1.00255
1.08901
1.98279
4.37564
6.5623
6.85522
6.81409
6.72044
6.64738
6.59601
6.53639
6.46841
6.38869
1
1
1
1
1
1
1
1
1
1
1
1
1
1
1
1
1
1
1
1
1
1
1
1
1
1
1
1
1
1
1
1
1
1
1
1
1
1
1
1
1
1
1
1
1
1
1
1
1
1
1
1
1
1
1
1
1
1
1
1
1
1
1
1
1
1
1
1
1
1
1
1
1
1
1
1
1
1
1
1
1
1
1
1
1.00057
1.03115
1.46443
3.2511
5.93515
6.66746
6.71594
6.67037
6.60852
6.56419
6.51112
6.43267
1
1
1
1
1
1
1
1
1
1
1
1
1
1
1
1
1
1
1
1
1
1
1
1
1
1
1
1
1
1
1
1
1
1
1
1
1
1
1
1
1
1
1
1
1
1
1
1
1
1
1
1
1
1
1
1
1
1
1
1
1
1
1
1
1
1
1
1
1
1
1
1
1
1
1
1
1
1
1
1
1
1
1
1
1
1.00012
1.00852
1.17941
2.32786
4.87684
6.4639
6.59378
6.58426
6.54526
6.51785
6.4737
1
1
1
1
1
1
1
1
1
1
1
1
1
1
1
1
1
1
1
1
1
1
1
1
1
1
1
1
1
1
1
1
1
1
1
1
1
1
1
1
1
1
1
1
1
1
1
1
1
1
1
1
1
1
1
1
1
1
1
1
1
1
1
1
1
1
1
1
1
1
1
1
1
1
1
1
1
1
1
1
1
1
1
1
1
1
1.00002
1.00181
1.05687
1.69012
3.55228
5.91812
6.55648
6.55517
6.50986
6.45851
1
1
1
1
1
1
1
1
1
1
1
1
1
1
1
1
1
1
1
1
1
1
1
1
1
1
1
1
1
1
1
1
1
1
1
1
1
1
1
1
1
1
1
1
1
1
1
1
1
1
1
1
1
1
1
1
1
1
1
1
1
1
1
1
1
1
1
1
1
1
1
1
1
1
1
1
1
1
1
1
1
1
1
1
1
1
1
1
1.00028
1.01702
1.25389
2.55518
4.854
6.22125
6.55119
6.53698
1
1
1
1
1
1
1
1
1
1
1
1
1
1
1
1
1
1
1
1
1
1
1
1
1
1
1
1
1
1
1
1
1
1
1
1
1
1
1
1
1
1
1
1
1
1
1
1
1
1
1
1
1
1
1
1
1
1
1
1
1
1
1
1
1
1
1
1
1
1
1
1
1
1
1
1
1
1
1
1
1
1
1
1
1
1
1
1
1
1.00005
1.00323
1.08312
1.73681
3.65091
5.70006
6.37027
1
1
1
1
1
1
1
1
1
1
1
1
1
1
1
1
1
1
1
1
1
1
1
1
1
1
1
1
1
1
1
1
1
1
1
1
1
1
1
1
1
1
1
1
1
1
1
1
1
1
1
1
1
1
1
1
1
1
1
1
1
1
1
1
1
1
1
1
1
1
1
1
1
1
1
1
1
1
1
1
1
1
1
1
1
1
1
1
1
1
1
1.00056
1.01974
1.28526
2.48231
4.84837
1
1
1
1
1
1
1
1
1
1
1
1
1
1
1
1
1
1
1
1
1
1
1
1
1
1
1
1
1
1
1
1
1
1
1
1
1
1
1
1
1
1
1
1
1
1
1
1
1
1
1
1
1
1
1
1
1
1
1
1
1
1
1
1
1
1
1
1
1
1
1
1
1
1
1
1
1
1
1
1
1
1
1
1
1
1
1
1
1
1
1
1
1.00006
1.00398
1.08096
1.74817
1
1
1
1
1
1
1
1
1
1
1
1
1
1
1
1
1
1
1
1
1
1
1
1
1
1
1
1
1
1
1
1
1
1
1
1
1
1
1
1
1
1
1
1
1
1
1
1
1
1
1
1
1
1
1
1
1
1
1
1
1
1
1
1
1
1
1
1
1
1
1
1
1
1
1
1
1
1
1
1
1
1
1
1
1
1
1
1
1
1
1
1
1
1.00001
1.00058
1.01927
1
1
1
1
1
1
1
1
1
1
1
1
1
1
1
1
1
1
1
1
1
1
1
1
1
1
1
1
1
1
1
1
1
1
1
1
1
1
1
1
1
1
1
1
1
1
1
1
1
1
1
1
1
1
1
1
1
1
1
1
1
1
1
1
1
1
1
1
1
1
1
1
1
1
1
1
1
1
1
1
1
1
1
1
1
1
1
1
1
1
1
1
1
1
1
1.00006
1
1
1
1
1
1
1
1
1
1
1
1
1
1
1
1
1
1
1
1
1
1
1
1
1
1
1
1
1
1
1
1
1
1
1
1
1
1
1
1
1
1
1
1
1
1
1
1
1
1
1
1
1
1
1
1
1
1
1
1
1
1
1
1
1
1
1
1
1
1
1
1
1
1
1
1
1
1
1
1
1
1
1
1
1
1
1
1
1
1
1
1
1
1
1
1
1
1
1
1
1
1
1
1
1
1
1
1
1
1
1
1
1
1
1
1
1
1
1
1
1
1
1
1
1
1
1
1
1
1
1
1
1
1
1
1
1
1
1
1
1
1
1
1
1
1
1
1
1
1
1
1
1
1
1
1
1
1
1
1
1
1
1
1
1
1
1
1
1
1
1
1
1
1
1
1
1
1
1
1
1
1
1
1
1
1
1
1
1
1
1
1
1
1
1
1
1
1
1
1
1
1
1
1
1
1
1
1
1
1
1
1
1
1
1
1
1
1
1
1
1
1
1
1
1
1
1
1
1
1
1
1
1
1
1
1
1
1
1
1
1
1
1
1
1
1
1
1
1
1
1
1
1
1
1
1
1
1
1
1
1
1
1
1
1
1
1
1
1
1
1
1
1
1
1
1
1
1
1
1
1
1
1
1
1
1
1
1
1
1
1
1
1
1
1
1
1
1
1
1
1
1
1
1
1
1
1
1
1
1
1
1
1
1
1
1
1
1
1
1
1
1
1
1
1
1
1
1
1
1
1
1
1
1
1
1
1
1
1
1
1
1
1
1
1
1
1
1
1
1
1
1
1
1
1
1
1
1
1
1
1
1
1
1
1
1
1
1
1
1
1
1
1
1
1
1
1
1
1
1
1
1
1
1
1
1
1
1
1
1
1
1
1
1
1
1
1
1
1
1
1
1
1
1
1
1
1
1
1
1
1
1
1
1
1
1
1
1
1
1
1
1
1
1
1
1
1
1
1
1
1
1
1
1
1
1
1
1
1
1
1
1
1
1
1
1
1
1
1
1
1
1
1
1
1
1
1
1
1
1
1
1
1
1
1
1
1
1
1
1
1
1
1
1
1
1
1
1
1
1
1
1
1
1
1
1
1
1
1
1
1
1
1
1
1
1
1
1
1
1
1
1
1
1
1
1
1
1
1
1
1
1
1
1
1
1
1
1
1
1
1
1
1
1
1
1
1
1
1
1
1
1
1
1
1
1
1
1
1
1
1
1
1
1
1
1
1
1
1
1
1
1
1
1
1
1
1
1
1
1
1
1
1
1
1
1
1
1
1
1
1
1
1
1
1
1
1
1
1
1
1
1
1
1
1
1
1
1
1
1
1
1
1
1
1
1
1
1
1
1
1
1
1
1
1
1
1
1
1
1
1
1
1
1
1
1
1
1
1
1
1
1
1
1
1
1
1
1
1
1
1
1
1
1
1
1
1
1
1
1
1
1
1
1
1
1
1
1
1
1
1
1
1
1
1
1
1
1
1
1
1
1
1
1
1
1
1
1
1
1
1
1
1
1
1
1
1
1
1
1
1
1
1
1
1
1
1
1
1
1
1
1
1
1
1
1
1
1
1
1
1
1
1
1
1
1
1
1
1
1
1
1
1
1
1
1
1
1
1
1
1
1
1
1
1
1
1
1
1
1
1
1
1
1
1
1
1
1
1
1
1
1
1
1
1
1
1
1
1
1
1
1
1
1
1
1
1
1
1
1
1
1
1
1
1
1
1
1
1
1
1
1
1
1
1
1
1
1
1
1
1
1
1
1
1
1
1
1
1
1
1
1
1
1
1
1
1
1
1
1
1
1
1
1
1
1
1
1
1
1
1
1
1
1
1
1
1
1
1
1
1
1
1
1
1
1
1
1
1
1
1
1
1
1
1
1
1
1
1
1
1
1
1
1
1
1
1
1
1
1
1
1
1
1
1
1
1
1
1
1
1
1
1
1
1
1
1
1
1
1
1
1
1
1
1
1
1
1
1
1
1
1
1
1
1
1
1
1
1
1
1
1
1
1
1
1
1
1
1
1
1
1
1
1
1
1
1
1
1
1
1
1
1
1
1
1
1
1
1
1
1
1
1
1
1
1
1
1
1
1
1
1
1
1
1
1
1
1
1
1
1
1
1
1
1
1
1
1
1
1
1
1
1
1
1
1
1
1
1
1
1
1
1
1
1
1
1
1
1
1
1
1
1
1
1
1
1
1
1
1
1
1
1
1
1
1
1
1
1
1
1
1
1
1
1
1
1
1
1
1
1
1
1
1
1
1
1
1
1
1
1
1
1
1
1
1
1
1
1
1
1
1
1
1
1
1
1
1
1
1
1
1
1
1
1
1
1
1
1
1
1
1
1
1
1
1
1
1
1
1
1
1
1
1
1
1
1
1
1
1
1
1
1
1
1
1
1
1
1
1
1
1
1
1
1
1
1
1
1
1
1
1
1
1
1
1
1
1
1
1
1
1
1
1
1
1
1
1
1
1
1
1
1
1
1
1
1
1
1
1
1
1
1
1
1
1
1
1
1
1
1
1
1
1
1
1
1
1
1
1
1
1
1
1
1
1
1
1
1
1
1
1
1
1
1
1
1
1
1
1
1
1
1
1
1
1
1
1
1
1
1
1
1
1
1
1
1
1
1
1
1
1
1
1
1
1
1
1
1
1
1
1
1
1
1
1
1
1
1
1
1
1
1
1
1
1
1
1
1
1
1
1
1
1
1
1
1
1
1
1
1
1
1
1
1
1
1
1
1
1
1
1
1
1
1
1
1
1
1
1
1
1
1
1
1
1
1
1
1
1
1
1
1
1
1
1
1
1
1
1
1
1
1
1
1
1
1
1
1
1
1
1
1
1
1
1
1
1
1
1
1
1
1
1
1
1
1
1
1
1
1
1
1
1
1
1
1
1
1
1
1
1
1
1
1
1
1
1
1
1
1
1
1
1
1
1
1
1
1
1
1
1
1
1
1
1
1
1
1
1
1
1
1
1
1
1
1
1
1
1
1
1
1
1
1
1
1
1
1
1
1
1
1
1
1
1
1
1
1
1
1
1
1
1
1
1
1
1
1
1
1
1
1
1
1
1
1
1
1
1
1
1
1
1
1
1
1
1
1
1
1
1
1
1
1
1
1
1
1
1
1
1
1
1
1
1
1
1
1
1
1
1
1
1
1
1
1
1
1
1
1
1
1
1
1
1
1
1
1
1
1
1
1
1
1
1
1
1
1
1
1
1
1
1
1
1
1
1
1
1
1
1
1
1
1
1
1
1
1
1
1
1
1
1
1
1
1
1
1
1
1
1
1
1
1
1
1
1
1
1
1
1
1
1
1
1
1
1
1
1
1
1
1
1
1
1
1
1
1
1
1
1
1
1
1
1
1
1
1
1
1
1
1
1
1
1
1
1
1
1
1
1
1
1
1
1
1
1
1
1
1
1
1
1
1
1
1
1
1
1
1
1
1
1
1
1
1
1
1
1
1
1
1
1
1
1
1
1
1
1
1
1
1
1
1
1
1
1
1
1
1
1
1
1
1
1
1
1
1
1
1
1
1
1
1
1
1
1
1
1
1
1
1
1
1
1
1
1
1
1
1
1
1
1
1
1
1
1
1
1
1
1
1
1
1
1
1
1
1
1
1
1
1
1
1
1
1
1
1
1
1
1
1
1
1
1
1
1
1
1
1
1
1.17936
0.178143
0.0279796
0.0500988
0.0875797
0.0882675
0.0995958
0.138832
0.20656
0.263555
0.314048
0.376327
0.441514
0.507601
0.577734
0.654364
0.735171
0.828678
0.927819
0.986613
0.981537
0.972096
0.994378
1.0151
1.02169
1.02557
1.05077
1.07759
1.09123
1.11011
1.12771
1.14054
1.15632
1.17072
1.17538
1.18096
1.18669
1.19145
1.19821
1.21404
1.23937
1.25838
1.2651
1.2674
1.26755
1.26675
1.26623
1.26804
1.2741
1.2856
1.3021
1.31122
1.30925
1.30427
1.29668
1.28777
1.285
1.28478
1.28641
1.29289
1.29961
1.30232
1.30334
1.30174
1.29752
1.29428
1.29316
1.29243
1.29165
1.29052
1.28931
1.28795
1.28627
1.28437
1.28234
1.2805
1.27948
1.28021
1.28215
1.28345
1.28191
1.28951
1.37398
1.75669
2.89994
4.53823
6.35061
7.10561
6.8385
6.31406
6.09685
6.0485
6.00335
5.93732
5.86172
5.77198
5.68767
5.60705
5.53204
5.46602
5.40298
5.34703
5.30154
5.25281
5.196
5.13751
5.07548
5.0074
4.93677
4.86995
4.80988
4.75585
4.70672
4.66169
4.61858
4.57492
4.52886
4.47845
4.4231
4.36613
4.31388
4.27005
4.23184
4.19551
4.15915
4.12213
4.08309
4.04014
3.99319
3.94522
3.89945
3.85728
3.81951
3.78694
3.75841
3.73052
3.70008
3.66418
3.61934
3.56465
3.51094
3.47077
3.44122
3.41667
3.39441
3.37371
3.35286
3.33008
3.30384
3.26852
3.22092
3.17353
3.14219
3.12034
3.10035
3.08102
3.06006
3.03656
3.00503
2.96171
2.91308
2.87228
2.8433
2.82316
2.80674
2.79099
2.77513
2.7584
2.73842
2.71091
2.67263
2.63144
2.60241
2.58384
2.56829
2.55378
2.54013
2.52682
2.51254
2.49486
2.47012
2.43661
2.40177
2.37609
2.35854
2.34449
2.33137
2.31744
2.30165
2.27965
2.25139
2.20153
2.07513
0.815515
0.269131
0.298203
0.302324
0.248814
0.201883
0.20294
0.210581
0.216609
0.233615
0.253446
0.284763
0.326752
0.384837
0.453672
0.532793
0.59095
0.665788
0.762095
0.829019
0.875955
0.92028
0.954695
0.994592
1.0238
1.05235
1.08415
1.09354
1.1024
1.11014
1.11603
1.12935
1.14739
1.15814
1.16976
1.18173
1.19187
1.20145
1.21408
1.23306
1.2466
1.25329
1.25978
1.26512
1.26851
1.27087
1.27197
1.27299
1.27798
1.28696
1.29252
1.29233
1.29169
1.29037
1.28813
1.28741
1.28788
1.28985
1.29487
1.29854
1.29954
1.29897
1.29641
1.29252
1.29028
1.29
1.29007
1.29062
1.29028
1.28913
1.28784
1.28637
1.28475
1.28308