/*--------------------------------*- C++ -*----------------------------------*\
  =========                 |
  \\      /  F ield         | OpenFOAM: The Open Source CFD Toolbox
   \\    /   O peration     | Website:  https://openfoam.org
    \\  /    A nd           | Version:  7
     \\/     M anipulation  |
\*---------------------------------------------------------------------------*/
FoamFile
{
    version     2.0;
    format      ascii;
    class       volScalarField;
    location    "2";
    object      rho;
}
// * * * * * * * * * * * * * * * * * * * * * * * * * * * * * * * * * * * * * //

dimensions      [1 -3 0 0 0 0 0];

internalField   nonuniform List<scalar> 
19968
(
1.40001
1.40001
1.40001
1.40001
1.40001
1.40001
1.40001
1.40001
1.40001
1.40001
1.40001
1.40001
1.40001
1.40001
1.40001
1.40001
1.40001
1.40001
1.40001
1.40001
1.40001
1.40001
1.40001
1.40001
1.40001
1.40001
1.40001
1.40001
1.40001
1.40001
1.40001
1.40001
1.40001
1.40001
1.40001
1.40001
1.40001
1.40001
1.40001
1.40001
1.40001
1.40001
1.40001
1.40001
1.40001
1.40001
1.40001
1.40001
1.40001
1.40001
4.0709
5.44854
5.47516
5.50157
5.52093
5.53155
5.53728
5.54149
5.54732
5.55902
5.57898
5.60662
5.63748
5.66742
5.69497
5.71976
5.74151
5.75545
5.76008
5.76039
5.76504
5.77783
5.79661
5.81712
5.83643
5.85187
5.86319
5.87305
5.88439
5.8979
5.91255
5.92636
5.93672
5.94145
5.94211
5.94237
5.94472
5.95062
5.95772
5.96317
5.96432
5.95754
5.9428
5.92532
5.9134
5.91166
1.40001
1.40001
1.40001
1.40001
1.40001
1.40001
1.40001
1.40001
1.40001
1.40001
1.40001
1.40001
1.40001
1.40001
1.40001
1.40001
1.40001
1.40001
1.40001
1.40001
1.40001
1.40001
1.40001
1.40001
1.40001
1.40001
1.40001
1.40001
1.40001
1.40001
1.40001
1.40001
1.40001
1.40001
1.40001
1.40001
1.40001
1.40001
1.40001
1.40001
1.40001
1.40001
1.40001
1.40001
1.40001
1.40001
1.40001
1.40001
1.40001
1.40001
4.03435
5.43671
5.47253
5.5002
5.51952
5.53035
5.53646
5.54097
5.54716
5.55919
5.57942
5.60677
5.6368
5.66607
5.693
5.71737
5.73889
5.75277
5.75753
5.75826
5.76329
5.77658
5.79554
5.81599
5.83512
5.85049
5.86185
5.87176
5.8831
5.89646
5.91087
5.92449
5.93473
5.93945
5.94017
5.94042
5.94278
5.94855
5.9555
5.9608
5.96184
5.95497
5.94026
5.92291
5.91121
5.90961
1.40001
1.40001
1.40001
1.40001
1.40001
1.40001
1.40001
1.40001
1.40001
1.40001
1.40001
1.40001
1.40001
1.40001
1.40001
1.40001
1.40001
1.40001
1.40001
1.40001
1.40001
1.40001
1.40001
1.40001
1.40001
1.40001
1.40001
1.40001
1.40001
1.40001
1.40001
1.40001
1.40001
1.40001
1.40001
1.40001
1.40001
1.40001
1.40001
1.40001
1.40001
1.40001
1.40001
1.40001
1.40001
1.40001
1.40001
1.40001
1.40001
1.40001
3.95634
5.42347
5.46729
5.49611
5.51521
5.52632
5.53312
5.53841
5.54545
5.55821
5.57892
5.60608
5.63521
5.66359
5.68962
5.71323
5.73439
5.74834
5.75336
5.75476
5.76034
5.77428
5.79359
5.81404
5.83294
5.84813
5.85944
5.86938
5.88075
5.894
5.90824
5.92168
5.93168
5.93622
5.93688
5.93703
5.93936
5.94503
5.95176
5.95676
5.95751
5.95039
5.93565
5.91849
5.9071
5.90574
1.40001
1.40001
1.40001
1.40001
1.40001
1.40001
1.40001
1.40001
1.40001
1.40001
1.40001
1.40001
1.40001
1.40001
1.40001
1.40001
1.40001
1.40001
1.40001
1.40001
1.40001
1.40001
1.40001
1.40001
1.40001
1.40001
1.40001
1.40001
1.40001
1.40001
1.40001
1.40001
1.40001
1.40001
1.40001
1.40001
1.40001
1.40001
1.40001
1.40001
1.40001
1.40001
1.40001
1.40001
1.40001
1.40001
1.40001
1.40001
1.40001
1.40001
3.82866
5.40434
5.46043
5.48877
5.50802
5.52056
5.52886
5.53507
5.54275
5.55619
5.57725
5.60405
5.63211
5.65912
5.68384
5.70646
5.72741
5.74198
5.74787
5.75021
5.75623
5.77056
5.79015
5.8107
5.82943
5.84448
5.85577
5.8657
5.87698
5.89
5.90394
5.91703
5.92662
5.93098
5.9316
5.93168
5.93405
5.93964
5.94614
5.95076
5.95112
5.94363
5.92873
5.91156
5.90029
5.89901
1.40001
1.40001
1.40001
1.40001
1.40001
1.40001
1.40001
1.40001
1.40001
1.40001
1.40001
1.40001
1.40001
1.40001
1.40001
1.40001
1.40001
1.40001
1.40001
1.40001
1.40001
1.40001
1.40001
1.40001
1.40001
1.40001
1.40001
1.40001
1.40001
1.40001
1.40001
1.40001
1.40001
1.40001
1.40001
1.40001
1.40001
1.40001
1.40001
1.40001
1.40001
1.40001
1.40001
1.40001
1.40001
1.40001
1.40001
1.40001
1.40001
1.40001
3.6418
5.37735
5.45131
5.47712
5.49809
5.51336
5.52408
5.53191
5.54049
5.55414
5.57459
5.6003
5.62738
5.65285
5.67632
5.6979
5.71857
5.73409
5.74141
5.74492
5.75111
5.76518
5.78463
5.80529
5.82396
5.83893
5.85022
5.86007
5.87114
5.88381
5.89734
5.91004
5.91927
5.92351
5.92405
5.92401
5.9264
5.93197
5.93831
5.9427
5.94277
5.93508
5.92
5.9026
5.89114
5.88971
1.40001
1.40001
1.40001
1.40001
1.40001
1.40001
1.40001
1.40001
1.40001
1.40001
1.40001
1.40001
1.40001
1.40001
1.40001
1.40001
1.40001
1.40001
1.40001
1.40001
1.40001
1.40001
1.40001
1.40001
1.40001
1.40001
1.40001
1.40001
1.40001
1.40001
1.40001
1.40001
1.40001
1.40001
1.40001
1.40001
1.40001
1.40001
1.40001
1.40001
1.40001
1.40001
1.40001
1.40001
1.40001
1.40001
1.40001
1.40001
1.40001
1.40001
3.38891
5.33794
5.43933
5.46292
5.4865
5.50523
5.51971
5.53054
5.54047
5.55366
5.57225
5.59512
5.62031
5.64463
5.667
5.68776
5.70821
5.725
5.7344
5.73963
5.74614
5.75947
5.77816
5.79862
5.81716
5.83199
5.84314
5.85258
5.86302
5.87493
5.88771
5.89987
5.90887
5.91315
5.91365
5.91353
5.91607
5.92168
5.92795
5.93222
5.93211
5.92438
5.90906
5.89107
5.87892
5.87699
1.40001
1.40001
1.40001
1.40001
1.40001
1.40001
1.40001
1.40001
1.40001
1.40001
1.40001
1.40001
1.40001
1.40001
1.40001
1.40001
1.40001
1.40001
1.40001
1.40001
1.40001
1.40001
1.40001
1.40001
1.40001
1.40001
1.40001
1.40001
1.40001
1.40001
1.40001
1.40001
1.40001
1.40001
1.40001
1.40001
1.40001
1.40001
1.40001
1.40001
1.40001
1.40001
1.40001
1.40001
1.40001
1.40001
1.40001
1.40001
1.40001
1.40001
3.06621
5.27767
5.42733
5.44956
5.47526
5.49757
5.51677
5.53172
5.54377
5.55664
5.57275
5.59152
5.61331
5.63613
5.65693
5.6768
5.69657
5.71398
5.72486
5.73146
5.73826
5.75077
5.76842
5.78833
5.8065
5.82105
5.83206
5.84108
5.85083
5.86192
5.87404
5.88595
5.89518
5.89981
5.90049
5.90041
5.90284
5.90829
5.91436
5.91857
5.91827
5.91043
5.89473
5.87578
5.86244
5.85968
1.40001
1.40001
1.40001
1.40001
1.40001
1.40001
1.40001
1.40001
1.40001
1.40001
1.40001
1.40001
1.40001
1.40001
1.40001
1.40001
1.40001
1.40001
1.40001
1.40001
1.40001
1.40001
1.40001
1.40001
1.40001
1.40001
1.40001
1.40001
1.40001
1.40001
1.40001
1.40001
1.40001
1.40001
1.40001
1.40001
1.40001
1.40001
1.40001
1.40001
1.40001
1.40001
1.40001
1.40001
1.40001
1.40001
1.40001
1.40001
1.40001
1.40001
2.68341
5.18435
5.42499
5.44278
5.46692
5.48961
5.51169
5.53067
5.54587
5.5593
5.57336
5.58826
5.60537
5.62533
5.64555
5.66495
5.68433
5.70189
5.71383
5.72166
5.72907
5.74116
5.75796
5.77722
5.7948
5.80864
5.81906
5.82729
5.83611
5.8463
5.85779
5.86947
5.87891
5.88401
5.88514
5.88516
5.88722
5.89212
5.89771
5.90177
5.90146
5.89368
5.87744
5.85721
5.8422
5.83827
1.40001
1.40001
1.40001
1.40001
1.40001
1.40001
1.40001
1.40001
1.40001
1.40001
1.40001
1.40001
1.40001
1.40001
1.40001
1.40001
1.40001
1.40001
1.40001
1.40001
1.40001
1.40001
1.40001
1.40001
1.40001
1.40001
1.40001
1.40001
1.40001
1.40001
1.40001
1.40001
1.40001
1.40001
1.40001
1.40001
1.40001
1.40001
1.40001
1.40001
1.40001
1.40001
1.40001
1.40001
1.40001
1.40001
1.40001
1.40001
1.40001
1.40001
2.2428
5.00746
5.43328
5.44637
5.46499
5.48476
5.50646
5.52756
5.54539
5.56027
5.57353
5.58579
5.59903
5.61544
5.63385
5.65245
5.67103
5.68795
5.70047
5.70932
5.71753
5.72945
5.74544
5.76381
5.78058
5.79327
5.80251
5.8093
5.8167
5.82571
5.83644
5.84774
5.85724
5.86275
5.8643
5.86442
5.86607
5.87028
5.8753
5.87927
5.87948
5.87233
5.8561
5.83494
5.81841
5.81344
1.40001
1.40001
1.40001
1.40001
1.40001
1.40001
1.40001
1.40001
1.40001
1.40001
1.40001
1.40001
1.40001
1.40001
1.40001
1.40001
1.40001
1.40001
1.40001
1.40001
1.40001
1.40001
1.40001
1.40001
1.40001
1.40001
1.40001
1.40001
1.40001
1.40001
1.40001
1.40001
1.40001
1.40001
1.40001
1.40001
1.40001
1.40001
1.40001
1.40001
1.40001
1.40001
1.40001
1.40001
1.40001
1.40001
1.40001
1.40001
1.40001
1.40001
1.82526
4.71039
5.45132
5.44116
5.45663
5.47307
5.49381
5.51553
5.5353
5.5519
5.56623
5.57845
5.5902
5.60393
5.61956
5.63609
5.6526
5.66782
5.68002
5.68945
5.69859
5.71064
5.72615
5.74371
5.75981
5.7714
5.77928
5.78458
5.79048
5.79845
5.8087
5.82014
5.83032
5.83686
5.83932
5.83984
5.84121
5.84447
5.84825
5.85097
5.85056
5.84308
5.82591
5.80321
5.78487
5.77872
1.40001
1.40001
1.40001
1.40001
1.40001
1.40001
1.40001
1.40001
1.40001
1.40001
1.40001
1.40001
1.40001
1.40001
1.40001
1.40001
1.40001
1.40001
1.40001
1.40001
1.40001
1.40001
1.40001
1.40001
1.40001
1.40001
1.40001
1.40001
1.40001
1.40001
1.40001
1.40001
1.40001
1.40001
1.40001
1.40001
1.40001
1.40001
1.40001
1.40001
1.40001
1.40001
1.40001
1.40001
1.40001
1.40001
1.40001
1.40001
1.40001
1.40001
1.44249
4.16917
5.43692
5.44375
5.45947
5.47299
5.48882
5.50627
5.52443
5.54207
5.5589
5.57338
5.58551
5.5972
5.60919
5.62169
5.63426
5.64611
5.65663
5.66604
5.67607
5.68827
5.70307
5.71925
5.73413
5.7442
5.74986
5.75278
5.75621
5.76217
5.77107
5.78192
5.79198
5.79868
5.80119
5.80141
5.80218
5.8045
5.80749
5.8096
5.80918
5.8019
5.78455
5.76117
5.74188
5.73535
1.40001
1.40001
1.40001
1.40001
1.40001
1.40001
1.40001
1.40001
1.40001
1.40001
1.40001
1.40001
1.40001
1.40001
1.40001
1.40001
1.40001
1.40001
1.40001
1.40001
1.40001
1.40001
1.40001
1.40001
1.40001
1.40001
1.40001
1.40001
1.40001
1.40001
1.40001
1.40001
1.40001
1.40001
1.40001
1.40001
1.40001
1.40001
1.40001
1.40001
1.40001
1.40001
1.40001
1.40001
1.40001
1.40001
1.40001
1.40001
1.40001
1.40001
1.40022
3.41217
5.31632
5.40159
5.42649
5.44443
5.45973
5.47473
5.4913
5.50938
5.52844
5.54616
5.56116
5.57408
5.58526
5.59521
5.60425
5.61267
5.62121
5.63089
5.64258
5.65603
5.67101
5.68669
5.70124
5.71102
5.71553
5.71705
5.71883
5.72334
5.73114
5.74147
5.75135
5.75795
5.76037
5.76003
5.75955
5.75993
5.76061
5.76014
5.75692
5.74679
5.72668
5.70096
5.68012
5.67289
1.40001
1.40001
1.40001
1.40001
1.40001
1.40001
1.40001
1.40001
1.40001
1.40001
1.40001
1.40001
1.40001
1.40001
1.40001
1.40001
1.40001
1.40001
1.40001
1.40001
1.40001
1.40001
1.40001
1.40001
1.40001
1.40001
1.40001
1.40001
1.40001
1.40001
1.40001
1.40001
1.40001
1.40001
1.40001
1.40001
1.40001
1.40001
1.40001
1.40001
1.40001
1.40001
1.40001
1.40001
1.40001
1.40001
1.40001
1.40001
1.40001
1.40001
1.40001
2.49222
5.0758
5.40996
5.42267
5.43513
5.44545
5.45631
5.46965
5.48606
5.50505
5.52409
5.54136
5.55649
5.56897
5.57831
5.58465
5.58914
5.59383
5.60119
5.61232
5.62566
5.63916
5.6532
5.66674
5.67614
5.67939
5.6788
5.67786
5.67933
5.68413
5.69177
5.69925
5.70347
5.70383
5.70055
5.69641
5.69319
5.69039
5.68667
5.68137
5.67063
5.65082
5.62569
5.60534
5.59838
1.40001
1.40001
1.40001
1.40001
1.40001
1.40001
1.40001
1.40001
1.40001
1.40001
1.40001
1.40001
1.40001
1.40001
1.40001
1.40001
1.40001
1.40001
1.40001
1.40001
1.40001
1.40001
1.40001
1.40001
1.40001
1.40001
1.40001
1.40001
1.40001
1.40001
1.40001
1.40001
1.40001
1.40001
1.40001
1.40001
1.40001
1.40001
1.40001
1.40001
1.40001
1.40001
1.40001
1.40001
1.40001
1.40001
1.40001
1.40001
1.40001
1.40001
1.40001
1.65813
4.51555
5.44816
5.43349
5.43404
5.43491
5.43858
5.44578
5.45742
5.47348
5.49155
5.50927
5.52548
5.53945
5.5496
5.55516
5.55711
5.55805
5.56185
5.57058
5.58247
5.59422
5.60638
5.61806
5.62711
5.63046
5.62876
5.62535
5.62373
5.62487
5.62886
5.63368
5.63611
5.63486
5.62959
5.62344
5.61807
5.61257
5.60523
5.59507
5.5794
5.55338
5.52058
5.49336
5.4797
1.40001
1.40001
1.40001
1.40001
1.40001
1.40001
1.40001
1.40001
1.40001
1.40001
1.40001
1.40001
1.40001
1.40001
1.40001
1.40001
1.40001
1.40001
1.40001
1.40001
1.40001
1.40001
1.40001
1.40001
1.40001
1.40001
1.40001
1.40001
1.40001
1.40001
1.40001
1.40001
1.40001
1.40001
1.40001
1.40001
1.40001
1.40001
1.40001
1.40001
1.40001
1.40001
1.40001
1.40001
1.40001
1.40001
1.40001
1.40001
1.40001
1.40001
1.40001
1.40366
3.36592
5.30198
5.37914
5.38565
5.38994
5.39629
5.40475
5.41651
5.4324
5.45104
5.47019
5.48817
5.50405
5.51651
5.52416
5.52678
5.52617
5.52654
5.53138
5.54043
5.55051
5.55991
5.56846
5.57476
5.57747
5.57465
5.56864
5.56266
5.55857
5.556
5.55466
5.55224
5.5459
5.5354
5.52192
5.50626
5.48884
5.46839
5.44369
5.41413
5.38169
5.34607
5.32202
5.31243
1.40001
1.40001
1.40001
1.40001
1.40001
1.40001
1.40001
1.40001
1.40001
1.40001
1.40001
1.40001
1.40001
1.40001
1.40001
1.40001
1.40001
1.40001
1.40001
1.40001
1.40001
1.40001
1.40001
1.40001
1.40001
1.40001
1.40001
1.40001
1.40001
1.40001
1.40001
1.40001
1.40001
1.40001
1.40001
1.40001
1.40001
1.40001
1.40001
1.40001
1.40001
1.40001
1.40001
1.40001
1.40001
1.40001
1.40001
1.40001
1.40001
1.40001
1.40001
1.40001
1.99289
4.78769
5.36526
5.36143
5.37103
5.37752
5.38503
5.39409
5.40589
5.42019
5.43571
5.45098
5.46497
5.47699
5.48565
5.48965
5.4895
5.48756
5.4874
5.49119
5.49735
5.50276
5.50639
5.50875
5.50909
5.50488
5.49685
5.48693
5.47648
5.46583
5.45612
5.44569
5.43242
5.41499
5.39292
5.36748
5.33956
5.30953
5.27691
5.2381
5.18822
5.13297
5.05337
5.06792
1.40001
1.40001
1.40001
1.40001
1.40001
1.40001
1.40001
1.40001
1.40001
1.40001
1.40001
1.40001
1.40001
1.40001
1.40001
1.40001
1.40001
1.40001
1.40001
1.40001
1.40001
1.40001
1.40001
1.40001
1.40001
1.40001
1.40001
1.40001
1.40001
1.40001
1.40001
1.40001
1.40001
1.40001
1.40001
1.40001
1.40001
1.40001
1.40001
1.40001
1.40001
1.40001
1.40001
1.40001
1.40001
1.40001
1.40001
1.40001
1.40001
1.40001
1.40001
1.4
1.42071
3.58434
5.27943
5.34263
5.35892
5.36867
5.37739
5.3849
5.39211
5.40025
5.40957
5.41948
5.42909
5.43771
5.44479
5.44912
5.44999
5.44774
5.4453
5.44445
5.44595
5.44793
5.44756
5.44644
5.44292
5.4364
5.42668
5.41369
5.39757
5.37925
5.36021
5.34039
5.3183
5.2919
5.25871
5.21821
5.16898
5.10971
5.03305
4.92939
4.77425
4.54284
4.12299
3.234
1.40001
1.40001
1.40001
1.40001
1.40001
1.40001
1.40001
1.40001
1.40001
1.40001
1.40001
1.40001
1.40001
1.40001
1.40001
1.40001
1.40001
1.40001
1.40001
1.40001
1.40001
1.40001
1.40001
1.40001
1.40001
1.40001
1.40001
1.40001
1.40001
1.40001
1.40001
1.40001
1.40001
1.40001
1.40001
1.40001
1.40001
1.40001
1.40001
1.40001
1.40001
1.40001
1.40001
1.40001
1.40001
1.40001
1.40001
1.40001
1.40001
1.40001
1.40001
1.40001
1.39993
2.30374
4.93833
5.34092
5.33814
5.35399
5.36466
5.37393
5.38152
5.38873
5.39615
5.40342
5.40978
5.41486
5.4187
5.42119
5.42155
5.41901
5.41493
5.41033
5.40683
5.40416
5.39976
5.39347
5.38543
5.37569
5.36329
5.34751
5.32733
5.3031
5.27585
5.24677
5.21501
5.17919
5.13479
5.08018
5.01023
4.92486
4.81195
4.66743
4.45797
4.18188
3.64831
2.89201
1.40001
1.40001
1.40001
1.40001
1.40001
1.40001
1.40001
1.40001
1.40001
1.40001
1.40001
1.40001
1.40001
1.40001
1.40001
1.40001
1.40001
1.40001
1.40001
1.40001
1.40001
1.40001
1.40001
1.40001
1.40001
1.40001
1.40001
1.40001
1.40001
1.40001
1.40001
1.40001
1.40001
1.40001
1.40001
1.40001
1.40001
1.40001
1.40001
1.40001
1.40001
1.40001
1.40001
1.40001
1.40001
1.40001
1.40001
1.40001
1.40001
1.40001
1.40001
1.40001
1.39999
1.46639
4.03855
5.34378
5.34083
5.3469
5.35069
5.35747
5.36363
5.36959
5.37551
5.38076
5.38462
5.38693
5.38777
5.38774
5.38618
5.38294
5.37799
5.37148
5.3644
5.35736
5.34905
5.3383
5.32592
5.31213
5.29607
5.27675
5.25289
5.22391
5.18957
5.15162
5.1095
5.06327
5.00776
4.9406
4.85511
4.7494
4.61608
4.44439
4.22865
3.90188
3.46348
2.95626
1.40001
1.40001
1.40001
1.40001
1.40001
1.40001
1.40001
1.40001
1.40001
1.40001
1.40001
1.40001
1.40001
1.40001
1.40001
1.40001
1.40001
1.40001
1.40001
1.40001
1.40001
1.40001
1.40001
1.40001
1.40001
1.40001
1.40001
1.40001
1.40001
1.40001
1.40001
1.40001
1.40001
1.40001
1.40001
1.40001
1.40001
1.40001
1.40001
1.40001
1.40001
1.40001
1.40001
1.40001
1.40001
1.40001
1.40001
1.40001
1.40001
1.40001
1.40001
1.40001
1.4
1.40013
2.62223
5.01078
5.30344
5.30774
5.31884
5.32963
5.33636
5.34199
5.34752
5.3528
5.35714
5.35973
5.36026
5.35827
5.35374
5.34792
5.34057
5.33184
5.32187
5.31098
5.29898
5.28453
5.26779
5.24917
5.22836
5.20507
5.17732
5.14429
5.10456
5.05964
5.00889
4.9529
4.88796
4.81085
4.71619
4.59966
4.45758
4.27893
4.0593
3.77066
3.44123
3.05816
1.40001
1.40001
1.40001
1.40001
1.40001
1.40001
1.40001
1.40001
1.40001
1.40001
1.40001
1.40001
1.40001
1.40001
1.40001
1.40001
1.40001
1.40001
1.40001
1.40001
1.40001
1.40001
1.40001
1.40001
1.40001
1.40001
1.40001
1.40001
1.40001
1.40001
1.40001
1.40001
1.40001
1.40001
1.40001
1.40001
1.40001
1.40001
1.40001
1.40001
1.40001
1.40001
1.40001
1.40001
1.40001
1.40001
1.40001
1.40001
1.40001
1.40001
1.40001
1.40001
1.40001
1.4
1.51164
4.17968
5.32961
5.32257
5.31928
5.31784
5.31708
5.3185
5.32127
5.32509
5.32911
5.33194
5.33236
5.32876
5.32145
5.31191
5.30108
5.29005
5.27871
5.26558
5.2504
5.2324
5.21116
5.1877
5.16158
5.13352
5.10126
5.06413
5.02015
4.97016
4.91342
4.85009
4.77823
4.69474
4.596
4.47703
4.33698
4.16211
3.96116
3.72091
3.46167
3.16461
1.40001
1.40001
1.40001
1.40001
1.40001
1.40001
1.40001
1.40001
1.40001
1.40001
1.40001
1.40001
1.40001
1.40001
1.40001
1.40001
1.40001
1.40001
1.40001
1.40001
1.40001
1.40001
1.40001
1.40001
1.40001
1.40001
1.40001
1.40001
1.40001
1.40001
1.40001
1.40001
1.40001
1.40001
1.40001
1.40001
1.40001
1.40001
1.40001
1.40001
1.40001
1.40001
1.40001
1.40001
1.40001
1.40001
1.40001
1.40001
1.40001
1.40001
1.40001
1.40001
1.40001
1.40001
1.40051
2.66253
5.00764
5.27844
5.28603
5.28873
5.28984
5.28883
5.28763
5.28768
5.28961
5.29289
5.29494
5.29292
5.28573
5.27383
5.25978
5.24578
5.2316
5.21653
5.1996
5.18001
5.15676
5.13038
5.09989
5.06662
5.02967
4.98876
4.94181
4.88863
4.82825
4.76037
4.68384
4.59661
4.4968
4.37962
4.24588
4.08567
3.91016
3.70817
3.49504
3.2549
1.40001
1.40001
1.40001
1.40001
1.40001
1.40001
1.40001
1.40001
1.40001
1.40001
1.40001
1.40001
1.40001
1.40001
1.40001
1.40001
1.40001
1.40001
1.40001
1.40001
1.40001
1.40001
1.40001
1.40001
1.40001
1.40001
1.40001
1.40001
1.40001
1.40001
1.40001
1.40001
1.40001
1.40001
1.40001
1.40001
1.40001
1.40001
1.40001
1.40001
1.40001
1.40001
1.40001
1.40001
1.40001
1.40001
1.40001
1.40001
1.40001
1.40001
1.40001
1.40001
1.40001
1.40001
1.4
1.51188
4.01626
5.28812
5.2784
5.27201
5.27192
5.2684
5.26419
5.26112
5.26031
5.26175
5.26339
5.26205
5.25556
5.24317
5.22718
5.20962
5.19099
5.17309
5.15407
5.13238
5.10695
5.07734
5.04263
5.00449
4.96278
4.91786
4.86846
4.81342
4.75134
4.68165
4.6035
4.5153
4.4168
4.30317
4.17772
4.03576
3.88192
3.708
3.52809
3.32871
1.40001
1.40001
1.40001
1.40001
1.40001
1.40001
1.40001
1.40001
1.40001
1.40001
1.40001
1.40001
1.40001
1.40001
1.40001
1.40001
1.40001
1.40001
1.40001
1.40001
1.40001
1.40001
1.40001
1.40001
1.40001
1.40001
1.40001
1.40001
1.40001
1.40001
1.40001
1.40001
1.40001
1.40001
1.40001
1.40001
1.40001
1.40001
1.40001
1.40001
1.40001
1.40001
1.40001
1.40001
1.40001
1.40001
1.40001
1.40001
1.40001
1.40001
1.40001
1.40001
1.40001
1.40001
1.4
1.40053
2.32493
4.88887
5.25314
5.24084
5.24587
5.24692
5.24328
5.23688
5.23118
5.22757
5.22521
5.2222
5.21574
5.20448
5.18867
5.16929
5.1475
5.12578
5.10398
5.08117
5.05502
5.02465
4.9889
4.94844
4.90326
4.85486
4.80315
4.74689
4.6847
4.6152
4.53812
4.45066
4.35425
4.24535
4.12724
4.00068
3.86206
3.71337
3.55955
3.38862
1.40001
1.40001
1.40001
1.40001
1.40001
1.40001
1.40001
1.40001
1.40001
1.40001
1.40001
1.40001
1.40001
1.40001
1.40001
1.40001
1.40001
1.40001
1.40001
1.40001
1.40001
1.40001
1.40001
1.40001
1.40001
1.40001
1.40001
1.40001
1.40001
1.40001
1.40001
1.40001
1.40001
1.40001
1.40001
1.40001
1.40001
1.40001
1.40001
1.40001
1.40001
1.40001
1.40001
1.40001
1.40001
1.40001
1.40001
1.40001
1.40001
1.40001
1.40001
1.40001
1.40001
1.40001
1.40001
1.40001
1.45629
3.51434
5.1526
5.23846
5.23282
5.23176
5.2292
5.22283
5.21482
5.20658
5.19935
5.1923
5.18346
5.17157
5.155
5.13381
5.1092
5.08355
5.05769
5.03219
5.00498
4.97391
4.93772
4.89616
4.84885
4.79822
4.74457
4.68707
4.62519
4.55698
4.48379
4.39857
4.30676
4.2047
4.09302
3.97825
3.85278
3.72315
3.58382
3.43728
1.40001
1.40001
1.40001
1.40001
1.40001
1.40001
1.40001
1.40001
1.40001
1.40001
1.40001
1.40001
1.40001
1.40001
1.40001
1.40001
1.40001
1.40001
1.40001
1.40001
1.40001
1.40001
1.40001
1.40001
1.40001
1.40001
1.40001
1.40001
1.40001
1.40001
1.40001
1.40001
1.40001
1.40001
1.40001
1.40001
1.40001
1.40001
1.40001
1.40001
1.40001
1.40001
1.40001
1.40001
1.40001
1.40001
1.40001
1.40001
1.40001
1.40001
1.40001
1.40001
1.40001
1.40001
1.40001
1.40001
1.40014
1.74218
4.52123
5.27532
5.24585
5.22445
5.21474
5.20424
5.19245
5.17868
5.16538
5.1532
5.14058
5.12726
5.11068
5.09027
5.06597
5.03891
5.01013
4.98108
4.95176
4.92113
4.88595
4.84564
4.79945
4.74894
4.69452
4.63615
4.57439
4.50688
4.43701
4.35447
4.26932
4.17439
4.07076
3.96532
3.85052
3.73329
3.60599
3.47936
1.40001
1.40001
1.40001
1.40001
1.40001
1.40001
1.40001
1.40001
1.40001
1.40001
1.40001
1.40001
1.40001
1.40001
1.40001
1.40001
1.40001
1.40001
1.40001
1.40001
1.40001
1.40001
1.40001
1.40001
1.40001
1.40001
1.40001
1.40001
1.40001
1.40001
1.40001
1.40001
1.40001
1.40001
1.40001
1.40001
1.40001
1.40001
1.40001
1.40001
1.40001
1.40001
1.40001
1.40001
1.40001
1.40001
1.40001
1.40001
1.40001
1.40001
1.40001
1.40001
1.40001
1.40001
1.40001
1.40001
1.40001
1.40636
2.82381
5.00573
5.18544
5.1859
5.18533
5.17974
5.16849
5.15226
5.13453
5.11764
5.10058
5.08428
5.06632
5.0465
5.02293
4.99589
4.9655
4.93419
4.90304
4.87129
4.83632
4.79703
4.75291
4.70431
4.65182
4.59395
4.53294
4.46527
4.39647
4.31742
4.23927
4.15123
4.05782
3.96
3.85479
3.7465
3.63078
3.51746
1.40001
1.40001
1.40001
1.40001
1.40001
1.40001
1.40001
1.40001
1.40001
1.40001
1.40001
1.40001
1.40001
1.40001
1.40001
1.40001
1.40001
1.40001
1.40001
1.40001
1.40001
1.40001
1.40001
1.40001
1.40001
1.40001
1.40001
1.40001
1.40001
1.40001
1.40001
1.40001
1.40001
1.40001
1.40001
1.40001
1.40001
1.40001
1.40001
1.40001
1.40001
1.40001
1.40001
1.40001
1.40001
1.40001
1.40001
1.40001
1.40001
1.40001
1.40001
1.40001
1.40001
1.40001
1.40001
1.40001
1.40001
1.40001
1.52685
3.6772
5.10943
5.1782
5.17962
5.17325
5.16083
5.1417
5.11977
5.09769
5.07555
5.0541
5.03193
5.01018
4.98655
4.95984
4.93035
4.8984
4.86599
4.832
4.79453
4.75419
4.71135
4.66476
4.61397
4.55791
4.49757
4.43103
4.36291
4.28786
4.21434
4.13206
4.04798
3.95685
3.86118
3.76004
3.65602
3.55246
1.40001
1.40001
1.40001
1.40001
1.40001
1.40001
1.40001
1.40001
1.40001
1.40001
1.40001
1.40001
1.40001
1.40001
1.40001
1.40001
1.40001
1.40001
1.40001
1.40001
1.40001
1.40001
1.40001
1.40001
1.40001
1.40001
1.40001
1.40001
1.40001
1.40001
1.40001
1.40001
1.40001
1.40001
1.40001
1.40001
1.40001
1.40001
1.40001
1.40001
1.40001
1.40001
1.40001
1.40001
1.40001
1.40001
1.40001
1.40001
1.40001
1.40001
1.40001
1.40001
1.40001
1.40001
1.40001
1.40001
1.40001
1.40001
1.40082
1.75795
4.47207
5.21607
5.19041
5.16929
5.14399
5.12029
5.09663
5.07292
5.04945
5.0257
5.00064
4.97618
4.95099
4.9225
4.89312
4.86276
4.83161
4.79786
4.76018
4.71924
4.67538
4.63009
4.57981
4.52506
4.46622
4.40293
4.33662
4.26619
4.19531
4.11864
4.04089
3.95551
3.86762
3.77373
3.67987
3.58386
1.40001
1.40001
1.40001
1.40001
1.40001
1.40001
1.40001
1.40001
1.40001
1.40001
1.40001
1.40001
1.40001
1.40001
1.40001
1.40001
1.40001
1.40001
1.40001
1.40001
1.40001
1.40001
1.40001
1.40001
1.40001
1.40001
1.40001
1.40001
1.40001
1.40001
1.40001
1.40001
1.40001
1.40001
1.40001
1.40001
1.40001
1.40001
1.40001
1.40001
1.40001
1.40001
1.40001
1.40001
1.40001
1.40001
1.40001
1.40001
1.40001
1.40001
1.40001
1.40001
1.40001
1.40001
1.40001
1.40001
1.40001
1.40001
1.40001
1.40705
2.61771
4.9427
5.15325
5.11814
5.09723
5.07784
5.05999
5.04236
5.02361
5.00291
4.97771
4.95079
4.92324
4.89343
4.86227
4.83184
4.80378
4.77339
4.73692
4.69607
4.65053
4.60282
4.5515
4.49658
4.4386
4.37823
4.31458
4.24876
4.18044
4.10947
4.03548
3.95529
3.87347
3.78664
3.701
3.61191
1.40001
1.40001
1.40001
1.40001
1.40001
1.40001
1.40001
1.40001
1.40001
1.40001
1.40001
1.40001
1.40001
1.40001
1.40001
1.40001
1.40001
1.40001
1.40001
1.40001
1.40001
1.40001
1.40001
1.40001
1.40001
1.40001
1.40001
1.40001
1.40001
1.40001
1.40001
1.40001
1.40001
1.40001
1.40001
1.40001
1.40001
1.40001
1.40001
1.40001
1.40001
1.40001
1.40001
1.40001
1.40001
1.40001
1.40001
1.40001
1.40001
1.40001
1.40001
1.40001
1.40001
1.40001
1.40001
1.40001
1.40001
1.40001
1.40001
1.40001
1.48746
3.36946
5.0434
5.07295
5.05474
5.05112
5.04109
5.0276
5.01082
4.99074
4.96471
4.9354
4.90551
4.87246
4.83821
4.8047
4.7738
4.74531
4.71216
4.6739
4.63031
4.58271
4.53032
4.47498
4.41706
4.35805
4.29693
4.23481
4.1699
4.10423
4.0331
3.95721
3.88032
3.79916
3.71993
3.63667
1.40001
1.40001
1.40001
1.40001
1.40001
1.40001
1.40001
1.40001
1.40001
1.40001
1.40001
1.40001
1.40001
1.40001
1.40001
1.40001
1.40001
1.40001
1.40001
1.40001
1.40001
1.40001
1.40001
1.40001
1.40001
1.40001
1.40001
1.40001
1.40001
1.40001
1.40001
1.40001
1.40001
1.40001
1.40001
1.40001
1.40001
1.40001
1.40001
1.40001
1.40001
1.40001
1.40001
1.40001
1.40001
1.40001
1.40001
1.40001
1.40001
1.40001
1.40001
1.40001
1.40001
1.40001
1.40001
1.40001
1.40001
1.40001
1.40001
1.40001
1.40046
1.64222
3.82278
5.01476
5.03519
5.02959
5.02325
5.01315
4.99932
4.98164
4.95688
4.92879
4.89828
4.86392
4.82706
4.79009
4.75358
4.71931
4.68766
4.6519
4.6115
4.56622
4.51606
4.46101
4.40269
4.34394
4.28445
4.22473
4.16308
4.1011
4.03233
3.9606
3.88809
3.81154
3.73756
3.65908
1.40001
1.40001
1.40001
1.40001
1.40001
1.40001
1.40001
1.40001
1.40001
1.40001
1.40001
1.40001
1.40001
1.40001
1.40001
1.40001
1.40001
1.40001
1.40001
1.40001
1.40001
1.40001
1.40001
1.40001
1.40001
1.40001
1.40001
1.40001
1.40001
1.40001
1.40001
1.40001
1.40001
1.40001
1.40001
1.40001
1.40001
1.40001
1.40001
1.40001
1.40001
1.40001
1.40001
1.40001
1.40001
1.40001
1.40001
1.40001
1.40001
1.40001
1.40001
1.40001
1.40001
1.40001
1.40001
1.40001
1.40001
1.40001
1.40001
1.40001
1.40001
1.40315
1.81256
4.18285
5.04111
5.03304
5.01682
5.00064
4.98442
4.96437
4.94159
4.91629
4.8874
4.85484
4.81978
4.78257
4.74344
4.70317
4.66635
4.63094
4.59248
4.54974
4.50228
4.44896
4.39152
4.33347
4.27554
4.21798
4.15964
4.10006
4.03316
3.96597
3.89766
3.82515
3.75526
3.68043
1.40001
1.40001
1.40001
1.40001
1.40001
1.40001
1.40001
1.40001
1.40001
1.40001
1.40001
1.40001
1.40001
1.40001
1.40001
1.40001
1.40001
1.40001
1.40001
1.40001
1.40001
1.40001
1.40001
1.40001
1.40001
1.40001
1.40001
1.40001
1.40001
1.40001
1.40001
1.40001
1.40001
1.40001
1.40001
1.40001
1.40001
1.40001
1.40001
1.40001
1.40001
1.40001
1.40001
1.40001
1.40001
1.40001
1.40001
1.40001
1.40001
1.40001
1.40001
1.40001
1.40001
1.40001
1.40001
1.40001
1.40001
1.40001
1.40001
1.40001
1.40001
1.40001
1.40927
2.01383
4.50099
5.0692
5.03616
5.00986
4.98046
4.95384
4.92782
4.90101
4.87274
4.84262
4.81045
4.77547
4.73667
4.69468
4.654
4.61605
4.57784
4.53607
4.49005
4.43873
4.38294
4.32599
4.26963
4.21411
4.1588
4.10078
4.03574
3.97252
3.90795
3.83962
3.77316
3.70163
1.40001
1.40001
1.40001
1.40001
1.40001
1.40001
1.40001
1.40001
1.40001
1.40001
1.40001
1.40001
1.40001
1.40001
1.40001
1.40001
1.40001
1.40001
1.40001
1.40001
1.40001
1.40001
1.40001
1.40001
1.40001
1.40001
1.40001
1.40001
1.40001
1.40001
1.40001
1.40001
1.40001
1.40001
1.40001
1.40001
1.40001
1.40001
1.40001
1.40001
1.40001
1.40001
1.40001
1.40001
1.40001
1.40001
1.40001
1.40001
1.40001
1.40001
1.40001
1.40001
1.40001
1.40001
1.40001
1.40001
1.40001
1.40001
1.40001
1.40001
1.40001
1.40001
1.40003
1.42077
2.34217
4.73262
5.06007
5.02387
4.99379
4.958
4.92587
4.89373
4.86295
4.83179
4.79972
4.76592
4.72861
4.68803
4.64756
4.6083
4.56847
4.52607
4.48013
4.42977
4.3754
4.31973
4.2648
4.21105
4.15833
4.10266
4.04078
3.98104
3.9197
3.85541
3.79188
3.72355
1.40001
1.40001
1.40001
1.40001
1.40001
1.40001
1.40001
1.40001
1.40001
1.40001
1.40001
1.40001
1.40001
1.40001
1.40001
1.40001
1.40001
1.40001
1.40001
1.40001
1.40001
1.40001
1.40001
1.40001
1.40001
1.40001
1.40001
1.40001
1.40001
1.40001
1.40001
1.40001
1.40001
1.40001
1.40001
1.40001
1.40001
1.40001
1.40001
1.40001
1.40001
1.40001
1.40001
1.40001
1.40001
1.40001
1.40001
1.40001
1.40001
1.40001
1.40001
1.40001
1.40001
1.40001
1.40001
1.40001
1.40001
1.40001
1.40001
1.40001
1.40001
1.40001
1.40001
1.40007
1.44878
2.70889
4.83677
5.01889
4.99004
4.96443
4.92985
4.89609
4.86161
4.82669
4.79181
4.75614
4.71874
4.67948
4.64043
4.60192
4.56231
4.51988
4.47369
4.42344
4.37009
4.31606
4.26251
4.20991
4.15896
4.10615
4.04801
3.99102
3.9322
3.8716
3.81124
3.74635
1.40001
1.40001
1.40001
1.40001
1.40001
1.40001
1.40001
1.40001
1.40001
1.40001
1.40001
1.40001
1.40001
1.40001
1.40001
1.40001
1.40001
1.40001
1.40001
1.40001
1.40001
1.40001
1.40001
1.40001
1.40001
1.40001
1.40001
1.40001
1.40001
1.40001
1.40001
1.40001
1.40001
1.40001
1.40001
1.40001
1.40001
1.40001
1.40001
1.40001
1.40001
1.40001
1.40001
1.40001
1.40001
1.40001
1.40001
1.40001
1.40001
1.40001
1.40001
1.40001
1.40001
1.40001
1.40001
1.40001
1.40001
1.40001
1.40001
1.40001
1.40001
1.40001
1.40001
1.40001
1.40024
1.49749
2.95989
4.85431
4.98214
4.95397
4.92817
4.89833
4.86589
4.83146
4.79527
4.75705
4.71728
4.67714
4.63773
4.59863
4.55824
4.5151
4.46881
4.41943
4.36769
4.31564
4.26371
4.21191
4.16209
4.11162
4.05746
4.00292
3.94615
3.88845
3.83139
3.76994
1.40001
1.40001
1.40001
1.40001
1.40001
1.40001
1.40001
1.40001
1.40001
1.40001
1.40001
1.40001
1.40001
1.40001
1.40001
1.40001
1.40001
1.40001
1.40001
1.40001
1.40001
1.40001
1.40001
1.40001
1.40001
1.40001
1.40001
1.40001
1.40001
1.40001
1.40001
1.40001
1.40001
1.40001
1.40001
1.40001
1.40001
1.40001
1.40001
1.40001
1.40001
1.40001
1.40001
1.40001
1.40001
1.40001
1.40001
1.40001
1.40001
1.40001
1.40001
1.40001
1.40001
1.40001
1.40001
1.40001
1.40001
1.40001
1.40001
1.40001
1.40001
1.40001
1.40001
1.40001
1.40001
1.4007
1.54533
3.09501
4.84319
4.95006
4.91849
4.89524
4.86658
4.83538
4.79995
4.76158
4.72191
4.68215
4.64205
4.60103
4.55835
4.51364
4.46672
4.41785
4.36783
4.31818
4.2687
4.21898
4.17038
4.12114
4.06976
4.01716
3.96198
3.90616
3.85172
3.79351
1.40001
1.40001
1.40001
1.40001
1.40001
1.40001
1.40001
1.40001
1.40001
1.40001
1.40001
1.40001
1.40001
1.40001
1.40001
1.40001
1.40001
1.40001
1.40001
1.40001
1.40001
1.40001
1.40001
1.40001
1.40001
1.40001
1.40001
1.40001
1.40001
1.40001
1.40001
1.40001
1.40001
1.40001
1.40001
1.40001
1.40001
1.40001
1.40001
1.40001