/*--------------------------------*- C++ -*----------------------------------*\
  =========                 |
  \\      /  F ield         | OpenFOAM: The Open Source CFD Toolbox
   \\    /   O peration     | Website:  https://openfoam.org
    \\  /    A nd           | Version:  7
     \\/     M anipulation  |
\*---------------------------------------------------------------------------*/
FoamFile
{
    version     2.0;
    format      ascii;
    class       volScalarField;
    location    "2";
    object      T;
}
// * * * * * * * * * * * * * * * * * * * * * * * * * * * * * * * * * * * * * //

dimensions      [0 0 0 1 0 0 0];

internalField   nonuniform List<scalar> 
19968
(
1
1
1
1
1
1
1
1
1
1
1
1
1
1
1
1
1
1
1
1
1
1
1
1
1
1
1
1
1
1
1
1
1
1
1
1
1
1
1
1
1
1
1
1
1
1
1
1
1
1
2.29986
2.69934
2.69608
2.69719
2.70125
2.70835
2.71739
2.72734
2.73729
2.74602
2.75184
2.75412
2.7539
2.75298
2.7518
2.75144
2.75294
2.75832
2.76787
2.77857
2.78673
2.79011
2.79051
2.79046
2.79071
2.79185
2.79404
2.79649
2.79821
2.7989
2.79923
2.80017
2.80272
2.80697
2.81189
2.81646
2.81995
2.82207
2.82298
2.82396
2.82646
2.83201
2.84168
2.85348
2.86251
2.86626
1
1
1
1
1
1
1
1
1
1
1
1
1
1
1
1
1
1
1
1
1
1
1
1
1
1
1
1
1
1
1
1
1
1
1
1
1
1
1
1
1
1
1
1
1
1
1
1
1
1
2.29026
2.69787
2.69527
2.69665
2.70112
2.70854
2.71779
2.72783
2.73776
2.74637
2.75203
2.75414
2.75382
2.75276
2.75148
2.75106
2.75254
2.75792
2.76749
2.77818
2.78632
2.78977
2.79019
2.79013
2.79037
2.79152
2.79374
2.79621
2.79791
2.79856
2.79887
2.79981
2.80238
2.80666
2.81162
2.81618
2.81963
2.82167
2.82254
2.82351
2.82601
2.83158
2.84129
2.85311
2.86216
2.86592
1
1
1
1
1
1
1
1
1
1
1
1
1
1
1
1
1
1
1
1
1
1
1
1
1
1
1
1
1
1
1
1
1
1
1
1
1
1
1
1
1
1
1
1
1
1
1
1
1
1
2.26737
2.6963
2.69406
2.69577
2.70083
2.70874
2.71827
2.72839
2.73825
2.7467
2.75219
2.75415
2.75378
2.75261
2.75119
2.75064
2.75204
2.75731
2.76671
2.77728
2.78537
2.78895
2.78947
2.78945
2.78968
2.79085
2.79312
2.79562
2.7973
2.79794
2.79829
2.79929
2.8019
2.80622
2.81123
2.81574
2.81907
2.82097
2.82178
2.82274
2.82528
2.83091
2.84071
2.85255
2.86159
2.86535
1
1
1
1
1
1
1
1
1
1
1
1
1
1
1
1
1
1
1
1
1
1
1
1
1
1
1
1
1
1
1
1
1
1
1
1
1
1
1
1
1
1
1
1
1
1
1
1
1
1
2.22892
2.69424
2.69286
2.69496
2.70058
2.70885
2.71852
2.72859
2.73827
2.74659
2.7521
2.75412
2.75376
2.75255
2.75097
2.75019
2.75142
2.75634
2.76528
2.77553
2.78356
2.78742
2.78816
2.78822
2.78851
2.78973
2.79207
2.7946
2.79628
2.79696
2.79739
2.79846
2.80109
2.80544
2.81049
2.81495
2.81816
2.8199
2.82062
2.82161
2.82422
2.82992
2.83984
2.8517
2.86066
2.86438
1
1
1
1
1
1
1
1
1
1
1
1
1
1
1
1
1
1
1
1
1
1
1
1
1
1
1
1
1
1
1
1
1
1
1
1
1
1
1
1
1
1
1
1
1
1
1
1
1
1
2.17094
2.69105
2.69212
2.69491
2.70066
2.70851
2.71771
2.72733
2.73665
2.74497
2.751
2.75363
2.75358
2.75258
2.75094
2.74988
2.7508
2.75502
2.76308
2.77272
2.7806
2.78486
2.78602
2.78628
2.7867
2.78801
2.79041
2.79297
2.79472
2.79552
2.79609
2.79726
2.79987
2.80419
2.80924
2.81365
2.81675
2.81835
2.81903
2.82009
2.82283
2.82863
2.83867
2.85054
2.8594
2.86304
1
1
1
1
1
1
1
1
1
1
1
1
1
1
1
1
1
1
1
1
1
1
1
1
1
1
1
1
1
1
1
1
1
1
1
1
1
1
1
1
1
1
1
1
1
1
1
1
1
1
2.08707
2.68337
2.69308
2.69612
2.70118
2.70761
2.71535
2.72383
2.73252
2.74092
2.74782
2.75178
2.75283
2.75222
2.75079
2.7496
2.75014
2.75345
2.76034
2.76911
2.77671
2.78138
2.78312
2.78375
2.78438
2.78581
2.78822
2.79077
2.79258
2.79352
2.79425
2.79552
2.79809
2.80232
2.80731
2.81168
2.81473
2.81625
2.81692
2.81812
2.821
2.82689
2.83703
2.84888
2.85759
2.86111
1
1
1
1
1
1
1
1
1
1
1
1
1
1
1
1
1
1
1
1
1
1
1
1
1
1
1
1
1
1
1
1
1
1
1
1
1
1
1
1
1
1
1
1
1
1
1
1
1
1
1.96937
2.66509
2.69438
2.6973
2.70174
2.70655
2.71229
2.71906
2.7267
2.73495
2.74271
2.74841
2.75114
2.75127
2.75035
2.74918
2.74931
2.75161
2.75712
2.7647
2.77177
2.77666
2.77901
2.78016
2.7811
2.78267
2.78509
2.78763
2.78954
2.79068
2.79164
2.7931
2.79574
2.79985
2.80471
2.80903
2.81201
2.81349
2.81419
2.81554
2.81851
2.82441
2.83455
2.84634
2.85488
2.85824
1
1
1
1
1
1
1
1
1
1
1
1
1
1
1
1
1
1
1
1
1
1
1
1
1
1
1
1
1
1
1
1
1
1
1
1
1
1
1
1
1
1
1
1
1
1
1
1
1
1
1.81294
2.63072
2.69339
2.69713
2.70149
2.70515
2.70913
2.71395
2.72005
2.72754
2.73577
2.74289
2.74749
2.7492
2.74893
2.74819
2.74822
2.74986
2.75413
2.76043
2.76672
2.77155
2.7744
2.7761
2.77743
2.77913
2.78152
2.784
2.78598
2.78733
2.78854
2.7902
2.79288
2.79686
2.80155
2.80576
2.80866
2.81015
2.81089
2.81231
2.81527
2.8211
2.83116
2.84287
2.85126
2.85445
1
1
1
1
1
1
1
1
1
1
1
1
1
1
1
1
1
1
1
1
1
1
1
1
1
1
1
1
1
1
1
1
1
1
1
1
1
1
1
1
1
1
1
1
1
1
1
1
1
1
1.60142
2.57047
2.68784
2.6956
2.70081
2.70421
2.70694
2.70991
2.71414
2.7203
2.7281
2.73589
2.74197
2.74543
2.7464
2.74636
2.74665
2.74815
2.75156
2.7566
2.76188
2.76627
2.76926
2.77135
2.77302
2.77483
2.77716
2.77953
2.78152
2.78302
2.78444
2.78623
2.78889
2.79267
2.79713
2.80123
2.80411
2.80568
2.8065
2.80793
2.81083
2.81655
2.82656
2.83831
2.84671
2.84984
1
1
1
1
1
1
1
1
1
1
1
1
1
1
1
1
1
1
1
1
1
1
1
1
1
1
1
1
1
1
1
1
1
1
1
1
1
1
1
1
1
1
1
1
1
1
1
1
1
1
1.34819
2.48219
2.68627
2.69124
2.69826
2.702
2.70454
2.70679
2.70981
2.71441
2.72077
2.72786
2.73419
2.7387
2.74112
2.74238
2.74357
2.74549
2.74859
2.75263
2.75678
2.76031
2.76295
2.76507
2.76698
2.76896
2.77135
2.77374
2.77577
2.77742
2.77903
2.78102
2.78376
2.78746
2.79178
2.79582
2.79875
2.80037
2.8012
2.80237
2.80487
2.81026
2.81998
2.83166
2.84007
2.84314
1
1
1
1
1
1
1
1
1
1
1
1
1
1
1
1
1
1
1
1
1
1
1
1
1
1
1
1
1
1
1
1
1
1
1
1
1
1
1
1
1
1
1
1
1
1
1
1
1
1
1.03575
2.32505
2.68872
2.69423
2.69927
2.70203
2.70428
2.70638
2.70877
2.71186
2.7161
2.72114
2.72615
2.73049
2.73381
2.73648
2.7391
2.74211
2.74562
2.74921
2.75232
2.75461
2.7563
2.75785
2.75959
2.76162
2.76408
2.76649
2.76844
2.77001
2.77159
2.7736
2.77629
2.77981
2.78386
2.78771
2.79059
2.79225
2.79314
2.79418
2.79644
2.80159
2.81113
2.82287
2.83145
2.83463
1
1
1
1
1
1
1
1
1
1
1
1
1
1
1
1
1
1
1
1
1
1
1
1
1
1
1
1
1
1
1
1
1
1
1
1
1
1
1
1
1
1
1
1
1
1
1
1
1
1
1.00014
2.09519
2.6729
2.68183
2.68731
2.69239
2.69668
2.70017
2.70304
2.70563
2.70849
2.71171
2.71512
2.71862
2.72216
2.72592
2.73016
2.73484
2.73957
2.74362
2.74634
2.74769
2.74848
2.74934
2.75073
2.75281
2.75557
2.75835
2.7605
2.76212
2.76367
2.76568
2.76831
2.77164
2.77547
2.77909
2.78175
2.78319
2.78379
2.78429
2.78575
2.79011
2.7989
2.81026
2.81881
2.822
1
1
1
1
1
1
1
1
1
1
1
1
1
1
1
1
1
1
1
1
1
1
1
1
1
1
1
1
1
1
1
1
1
1
1
1
1
1
1
1
1
1
1
1
1
1
1
1
1
1
1
1.73045
2.60192
2.67065
2.67753
2.68375
2.68924
2.69401
2.69797
2.70117
2.70383
2.70593
2.70772
2.70965
2.7122
2.71586
2.72089
2.72694
2.73304
2.73801
2.74075
2.74137
2.74132
2.74138
2.74197
2.74362
2.74633
2.74938
2.75167
2.75315
2.75439
2.75596
2.75802
2.76073
2.76387
2.76663
2.76867
2.76949
2.76953
2.76951
2.77045
2.77423
2.78256
2.79384
2.8025
2.80574
1
1
1
1
1
1
1
1
1
1
1
1
1
1
1
1
1
1
1
1
1
1
1
1
1
1
1
1
1
1
1
1
1
1
1
1
1
1
1
1
1
1
1
1
1
1
1
1
1
1
1
1.20807
2.40924
2.66971
2.67276
2.67713
2.68173
2.68647
2.69088
2.69473
2.69765
2.69927
2.69995
2.70047
2.70159
2.70413
2.70872
2.71512
2.72204
2.72803
2.73143
2.73212
2.73172
2.7312
2.73119
2.73205
2.73438
2.7375
2.74005
2.74159
2.74248
2.74358
2.74502
2.74701
2.74938
2.75142
2.75304
2.75371
2.75348
2.75301
2.75303
2.7551
2.76112
2.76991
2.77622
2.77734
1
1
1
1
1
1
1
1
1
1
1
1
1
1
1
1
1
1
1
1
1
1
1
1
1
1
1
1
1
1
1
1
1
1
1
1
1
1
1
1
1
1
1
1
1
1
1
1
1
1
1
1.0027
2.07724
2.65524
2.65414
2.65731
2.66349
2.6703
2.6766
2.68217
2.68663
2.68949
2.69088
2.6915
2.69221
2.69381
2.69717
2.70257
2.70905
2.71522
2.71984
2.72171
2.72166
2.72104
2.72041
2.72048
2.72177
2.72417
2.72661
2.72809
2.72856
2.72878
2.72913
2.72975
2.73047
2.73091
2.73085
2.73006
2.72791
2.7245
2.72137
2.72031
2.72344
2.73058
2.73813
2.74082
1
1
1
1
1
1
1
1
1
1
1
1
1
1
1
1
1
1
1
1
1
1
1
1
1
1
1
1
1
1
1
1
1
1
1
1
1
1
1
1
1
1
1
1
1
1
1
1
1
1
1
1
1.42714
2.46818
2.62725
2.64043
2.64964
2.65593
2.66175
2.66723
2.67228
2.67648
2.67948
2.68132
2.68249
2.68372
2.68572
2.68914
2.69405
2.69928
2.70404
2.70738
2.70835
2.70798
2.707
2.70633
2.70657
2.70748
2.70911
2.7103
2.71036
2.70984
2.70884
2.70764
2.70636
2.70484
2.70281
2.7001
2.69613
2.69066
2.68499
2.68186
2.68198
2.6892
2.69669
2.71831
1
1
1
1
1
1
1
1
1
1
1
1
1
1
1
1
1
1
1
1
1
1
1
1
1
1
1
1
1
1
1
1
1
1
1
1
1
1
1
1
1
1
1
1
1
1
1
1
1
1
1
1
1.01467
2.14473
2.63216
2.63438
2.63896
2.64428
2.6492
2.65361
2.65791
2.66225
2.66631
2.66955
2.67174
2.67318
2.67453
2.67652
2.6797
2.68367
2.68812
2.6919
2.69393
2.69426
2.69366
2.69267
2.69182
2.69158
2.69192
2.69237
2.69205
2.6908
2.68853
2.68556
2.68215
2.67826
2.67349
2.66748
2.65933
2.64819
2.63302
2.61386
2.58801
2.55383
2.49836
2.37644
1
1
1
1
1
1
1
1
1
1
1
1
1
1
1
1
1
1
1
1
1
1
1
1
1
1
1
1
1
1
1
1
1
1
1
1
1
1
1
1
1
1
1
1
1
1
1
1
1
1
1
1
1
1.59419
2.50791
2.62197
2.62954
2.63684
2.64027
2.64319
2.64625
2.64987
2.65403
2.65816
2.66152
2.66378
2.66534
2.66694
2.66914
2.67181
2.67514
2.67845
2.68085
2.68178
2.6814
2.68028
2.67879
2.67754
2.67671
2.6761
2.67504
2.67301
2.66971
2.66533
2.66003
2.6539
2.64629
2.63688
2.62427
2.60787
2.58493
2.55505
2.51279
2.46006
2.35598
2.20049
1
1
1
1
1
1
1
1
1
1
1
1
1
1
1
1
1
1
1
1
1
1
1
1
1
1
1
1
1
1
1
1
1
1
1
1
1
1
1
1
1
1
1
1
1
1
1
1
1
1
1
1
0.999998
1.04071
2.25685
2.62692
2.62627
2.62981
2.63294
2.63509
2.63646
2.63824
2.64097
2.64445
2.64797
2.65089
2.6531
2.655
2.65678
2.65878
2.66114
2.66368
2.6659
2.6671
2.66698
2.66608
2.66447
2.66262
2.66076
2.65888
2.65665
2.65361
2.64927
2.64367
2.63668
2.62845
2.61818
2.60556
2.58916
2.5682
2.54066
2.50378
2.4567
2.3835
2.28209
2.15765
1
1
1
1
1
1
1
1
1
1
1
1
1
1
1
1
1
1
1
1
1
1
1
1
1
1
1
1
1
1
1
1
1
1
1
1
1
1
1
1
1
1
1
1
1
1
1
1
1
1
1
1
1
1.0001
1.7469
2.5267
2.60612
2.61565
2.622
2.62528
2.6265
2.62751
2.629
2.63122
2.63399
2.6369
2.63967
2.64198
2.64384
2.64566
2.6474
2.64905
2.65044
2.65122
2.65119
2.65053
2.64905
2.64695
2.64436
2.64142
2.63788
2.6336
2.62813
2.62144
2.61317
2.60329
2.59109
2.57602
2.55707
2.53317
2.5032
2.46408
2.41434
2.34585
2.26241
2.16475
1
1
1
1
1
1
1
1
1
1
1
1
1
1
1
1
1
1
1
1
1
1
1
1
1
1
1
1
1
1
1
1
1
1
1
1
1
1
1
1
1
1
1
1
1
1
1
1
1
1
1
1
1
1
1.07162
2.27898
2.60735
2.60664
2.60924
2.61278
2.61549
2.61753
2.61898
2.62033
2.6219
2.62379
2.62599
2.62792
2.62977
2.63162
2.63318
2.63432
2.63497
2.63502
2.63473
2.63386
2.63228
2.63009
2.62711
2.62344
2.61878
2.61322
2.60649
2.59867
2.58938
2.57837
2.56507
2.54873
2.52863
2.50364
2.47348
2.43452
2.38819
2.33037
2.26543
2.18626
1
1
1
1
1
1
1
1
1
1
1
1
1
1
1
1
1
1
1
1
1
1
1
1
1
1
1
1
1
1
1
1
1
1
1
1
1
1
1
1
1
1
1
1
1
1
1
1
1
1
1
1
1
1
1.00033
1.7545
2.51314
2.57943
2.58973
2.59564
2.60047
2.60415
2.60665
2.60806
2.60916
2.61031
2.61176
2.61336
2.61495
2.61669
2.6182
2.61888
2.61884
2.61838
2.61747
2.61623
2.61458
2.61247
2.60941
2.60536
2.60007
2.59363
2.58588
2.57696
2.56669
2.55483
2.54088
2.52412
2.50398
2.47929
2.45015
2.41404
2.37319
2.32443
2.27118
2.20829
1
1
1
1
1
1
1
1
1
1
1
1
1
1
1
1
1
1
1
1
1
1
1
1
1
1
1
1
1
1
1
1
1
1
1
1
1
1
1
1
1
1
1
1
1
1
1
1
1
1
1
1
1
1
1
1.07186
2.23206
2.5812
2.57777
2.57935
2.584
2.58937
2.5942
2.59741
2.59903
2.60004
2.6009
2.60177
2.60261
2.6037
2.60474
2.60481
2.60425
2.60312
2.60145
2.59944
2.59717
2.59457
2.59116
2.58686
2.58128
2.57438
2.56605
2.55633
2.5452
2.53263
2.51832
2.50163
2.48221
2.45866
2.43155
2.39963
2.36384
2.32157
2.2768
2.22561
1
1
1
1
1
1
1
1
1
1
1
1
1
1
1
1
1
1
1
1
1
1
1
1
1
1
1
1
1
1
1
1
1
1
1
1
1
1
1
1
1
1
1
1
1
1
1
1
1
1
1
1
1
1
1
1.00033
1.57335
2.43823
2.54781
2.55793
2.56731
2.57536
2.58158
2.58575
2.588
2.58888
2.58923
2.5895
2.58973
2.59013
2.5905
2.59016
2.58905
2.58725
2.58493
2.58234
2.57946
2.57637
2.57276
2.56838
2.56277
2.55582
2.54738
2.53734
2.52576
2.51265
2.49814
2.48147
2.46272
2.44069
2.41579
2.38794
2.35616
2.32073
2.28262
2.23905
1
1
1
1
1
1
1
1
1
1
1
1
1
1
1
1
1
1
1
1
1
1
1
1
1
1
1
1
1
1
1
1
1
1
1
1
1
1
1
1
1
1
1
1
1
1
1
1
1
1
1
1
1
1
1
1
1.03412
2.07942
2.54003
2.55381
2.55831
2.56386
2.56948
2.57376
2.57674
2.57833
2.57888
2.57891
2.57876
2.57851
2.57796
2.57686
2.57505
2.5726
2.56959
2.56628
2.56269
2.55883
2.55466
2.54996
2.54422
2.53741
2.5292
2.51928
2.50773
2.49448
2.48021
2.46348
2.44549
2.42512
2.40215
2.37772
2.34978
2.31974
2.286
2.24931
1
1
1
1
1
1
1
1
1
1
1
1
1
1
1
1
1
1
1
1
1
1
1
1
1
1
1
1
1
1
1
1
1
1
1
1
1
1
1
1
1
1
1
1
1
1
1
1
1
1
1
1
1
1
1
1
1.00008
1.23832
2.32873
2.54939
2.54684
2.5489
2.55325
2.55755
2.56121
2.56359
2.56475
2.56486
2.56463
2.56419
2.56333
2.56205
2.56018
2.55763
2.55426
2.55024
2.54587
2.54145
2.53674
2.53173
2.52604
2.5195
2.5117
2.50224
2.49114
2.47807
2.46414
2.44738
2.43028
2.41116
2.39003
2.36819
2.34337
2.31721
2.28747
2.25687
1
1
1
1
1
1
1
1
1
1
1
1
1
1
1
1
1
1
1
1
1
1
1
1
1
1
1
1
1
1
1
1
1
1
1
1
1
1
1
1
1
1
1
1
1
1
1
1
1
1
1
1
1
1
1
1
1
1.00393
1.80014
2.47879
2.51871
2.52805
2.53433
2.53939
2.5435
2.54637
2.54808
2.54858
2.54839
2.54807
2.54738
2.5465
2.54507
2.54284
2.53945
2.53511
2.53019
2.525
2.51953
2.51391
2.50807
2.50176
2.49465
2.48592
2.47567
2.46308
2.44951
2.43325
2.41716
2.39898
2.37973
2.35953
2.33742
2.31402
2.28798
2.26175
1
1
1
1
1
1
1
1
1
1
1
1
1
1
1
1
1
1
1
1
1
1
1
1
1
1
1
1
1
1
1
1
1
1
1
1
1
1
1
1
1
1
1
1
1
1
1
1
1
1
1
1
1
1
1
1
1
1
1.08241
2.11386
2.51101
2.51984
2.52418
2.52702
2.5295
2.5311
2.53209
2.53234
2.53211
2.53175
2.53123
2.53092
2.5303
2.52884
2.52613
2.52194
2.51674
2.51069
2.50396
2.49725
2.49089
2.48453
2.47775
2.46978
2.46036
2.44878
2.43594
2.42083
2.40564
2.38833
2.37069
2.35157
2.33148
2.30993
2.28718
2.26407
1
1
1
1
1
1
1
1
1
1
1
1
1
1
1
1
1
1
1
1
1
1
1
1
1
1
1
1
1
1
1
1
1
1
1
1
1
1
1
1
1
1
1
1
1
1
1
1
1
1
1
1
1
1
1
1
1
1
1.00046
1.24388
2.29322
2.51109
2.51036
2.51149
2.51191
2.51263
2.51323
2.51352
2.51363
2.5137
2.5138
2.51421
2.51427
2.51345
2.51147
2.50806
2.50325
2.49699
2.48958
2.48193
2.4746
2.46796
2.461
2.45343
2.44481
2.43462
2.42294
2.40951
2.39529
2.37931
2.36291
2.3447
2.32597
2.30582
2.28558
2.2645
1
1
1
1
1
1
1
1
1
1
1
1
1
1
1
1
1
1
1
1
1
1
1
1
1
1
1
1
1
1
1
1
1
1
1
1
1
1
1
1
1
1
1
1
1
1
1
1
1
1
1
1
1
1
1
1
1
1
1
1.00418
1.69266
2.41873
2.49011
2.48561
2.48677
2.48832
2.49011
2.49184
2.49332
2.49475
2.49599
2.49752
2.49841
2.49803
2.49655
2.49378
2.48994
2.4844
2.47691
2.46873
2.46046
2.45284
2.44534
2.43762
2.42934
2.42019
2.40971
2.39799
2.385
2.37081
2.35554
2.33851
2.32099
2.30221
2.28367
2.26415
1
1
1
1
1
1
1
1
1
1
1
1
1
1
1
1
1
1
1
1
1
1
1
1
1
1
1
1
1
1
1
1
1
1
1
1
1
1
1
1
1
1
1
1
1
1
1
1
1
1
1
1
1
1
1
1
1
1
1
1
1.05471
1.98778
2.47084
2.47359
2.47101
2.4725
2.47353
2.47463
2.47579
2.47727
2.47888
2.48102
2.48256
2.48223
2.48087
2.47825
2.4745
2.46977
2.46318
2.45545
2.44735
2.43947
2.43151
2.42351
2.41511
2.40629
2.39656
2.38606
2.37436
2.36198
2.34793
2.33241
2.31632
2.29894
2.28182
2.26356
1
1
1
1
1
1
1
1
1
1
1
1
1
1
1
1
1
1
1
1
1
1
1
1
1
1
1
1
1
1
1
1
1
1
1
1
1
1
1
1
1
1
1
1
1
1
1
1
1
1
1
1
1
1
1
1
1
1
1
1
1.00023
1.16362
2.11988
2.44995
2.46444
2.46388
2.46367
2.46349
2.46353
2.46392
2.4645
2.46593
2.46694
2.4666
2.46517
2.46241
2.45833
2.45334
2.4479
2.44137
2.43436
2.42716
2.41972
2.41168
2.403
2.39399
2.38441
2.37435
2.36349
2.35227
2.33922
2.32526
2.31084
2.29515
2.27968
2.26277
1
1
1
1
1
1
1
1
1
1
1
1
1
1
1
1
1
1
1
1
1
1
1
1
1
1
1
1
1
1
1
1
1
1
1
1
1
1
1
1
1
1
1
1
1
1
1
1
1
1
1
1
1
1
1
1
1
1
1
1
1
1.00177
1.27262
2.19386
2.43294
2.45223
2.45238
2.45293
2.45289
2.45226
2.45182
2.45184
2.45166
2.45086
2.44903
2.4459
2.4416
2.43635
2.43117
2.42601
2.42047
2.41458
2.40818
2.40073
2.39222
2.38313
2.37354
2.36354
2.35306
2.34218
2.32964
2.31714
2.30439
2.29046
2.27676
2.26143
1
1
1
1
1
1
1
1
1
1
1
1
1
1
1
1
1
1
1
1
1
1
1
1
1
1
1
1
1
1
1
1
1
1
1
1
1
1
1
1
1
1
1
1
1
1
1
1
1
1
1
1
1
1
1
1
1
1
1
1
1
1
1.00527
1.38615
2.23968
2.41987
2.43108
2.43697
2.43826
2.43896
2.43878
2.43812
2.43701
2.43537
2.43293
2.4295
2.42506
2.41986
2.41484
2.41041
2.40615
2.40148
2.39616
2.38969
2.38186
2.37312
2.36374
2.35386
2.34356
2.33251
2.32008
2.30847
2.29689
2.28457
2.27253
2.259
1
1
1
1
1
1
1
1
1
1
1
1
1
1
1
1
1
1
1
1
1
1
1
1
1
1
1
1
1
1
1
1
1
1
1
1
1
1
1
1
1
1
1
1
1
1
1
1
1
1
1
1
1
1
1
1
1
1
1
1
1
1
1.00001
1.012
1.54192
2.28646
2.40575
2.41134
2.41731
2.41996
2.42144
2.42127
2.42062
2.41918
2.41687
2.41373
2.40964
2.40486
2.40018
2.39599
2.39204
2.3879
2.38324
2.37757
2.37062
2.36264
2.35386
2.34441
2.33446
2.32354
2.31134
2.30013
2.28913
2.27795
2.26719
2.2553
1
1
1
1
1
1
1
1
1
1
1
1
1
1
1
1
1
1
1
1
1
1
1
1
1
1
1
1
1
1
1
1
1
1
1
1
1
1
1
1
1
1
1
1
1
1
1
1
1
1
1
1
1
1
1
1
1
1
1
1
1
1
1
1.00003
1.029
1.69657
2.32082
2.39671
2.39614
2.39843
2.39965
2.40072
2.40058
2.40006
2.39901
2.39712
2.39419
2.39038
2.38638
2.38255
2.37873
2.37465
2.37004
2.36462
2.35824
2.35107
2.3431
2.33433
2.32505
2.31481
2.30324
2.29228
2.28152
2.27106
2.26121
2.25063
1
1
1
1
1
1
1
1
1
1
1
1
1
1
1
1
1
1
1
1
1
1
1
1
1
1
1
1
1
1
1
1
1
1
1
1
1
1
1
1
1
1
1
1
1
1
1
1
1
1
1
1
1
1
1
1
1
1
1
1
1
1
1
1
1.0001
1.06034
1.79049
2.33664
2.38537
2.38145
2.38128
2.3809
2.38072
2.38065
2.38039
2.37956
2.37784
2.37535
2.37242
2.36919
2.36555
2.36137
2.35665
2.35131
2.34524
2.33864
2.33144
2.32342
2.31496
2.30568
2.29523
2.28478
2.27429
2.26429
2.25512
2.24545
1
1
1
1
1
1
1
1
1
1
1
1
1
1
1
1
1
1
1
1
1
1
1
1
1
1
1
1
1
1
1
1
1
1
1
1
1
1
1
1
1
1
1
1
1
1
1
1
1
1
1
1
1
1
1
1
1
1
1
1
1
1
1
1
1
1.00033
1.09182
1.83453
2.33283
2.37297
2.36798
2.36641
2.36473
2.36366
2.3627
2.36178
2.3607
2.35926
2.3572
2.35443
2.35105
2.34717
2.3427
2.33764
2.33211
2.32629
2.31989
2.31271
2.305
2.29649
2.28709
2.27733
2.26726
2.2576
2.2489
2.23987
1
1
1
1
1
1
1
1
1
1
1
1
1
1
1
1
1
1
1
1
1
1
1
1
1
1
1
1
1
1
1
1
1
1
1
1
1
1
1
1
1
1
1
1
1
1
1
1
1
1
1
1
1
1
1
1
1
1
1
1
1
1
1
1
1
1
1.00068
1.11292
1.84526
2.31619
2.35993
2.35499
2.35287
2.35039
2.34829
2.34629
2.34445
2.3426
2.34053
2.33814
2.33534
2.332
2.32816
2.32389
2.31911
2.31388
2.3081
2.30165
2.29457
2.28673
2.27828
2.26936
2.25995
2.25071
2.24233
2.23382
1
1
1
1
1
1
1
1
1
1
1
1
1
1
1
1
1
1
1
1
1
1
1
1
1
1
1
1
1
1
1
1
1
1
1
1
1
1
1
1
1
1
1
1
1
1
1
1
1
1
1
1
1
1
1
1
1
1
1
1
1
1
1
1
1
1
1
1.00099
1.12233
1.83087
2.29407
2.34594
2.34141
2.33914
2.33642
2.33354
2.33056
2.32747
2.32439
2.32144
2.31862
2.31574
2.31265
2.3092
2.30526
2.30079
2.29573
2.29007
2.28371
2.27655
2.26891
2.26084
2.25219
2.24349
2.23538
2.22706
1
1
1
1
1
1
1
1
1
1
1
1
1
1
1
1
1
1
1
1
1
1
1
1
1
1
1
1
1
1
1
1
1
1
1
1
1
1
1
1
1
1
1
1
1
1
1
1
1
1
1
1
1
1
1
1
1
1
1
1
1
1
1
1
1
1
1
1
1.00117
1.12038
1.79275
2.26928
2.33127
2.32736
2.32513
2.32223
2.31877
2.31487
2.31085
2.30696
2.30332
2.29994
2.29673
2.29354
2.29021
2.28649
2.2822
2.27732
2.27187
2.2657
2.25904
2.25202
2.24423
2.23618
2.22827
2.21987
1
1
1
1
1
1
1
1
1
1
1
1
1
1
1
1
1
1
1
1
1
1
1
1
1
1
1
1
1
1
1
1
1
1
1
1
1
1
1
1
1
1
1
1
1
1
1
1
1
1
1
1
1
1
1
1
1
1
1
1
1
1
1
1
1
1
1
1
1
1.00117
1.10698
1.73505
2.24308
2.31576
2.31259
2.31053
2.30738
2.30351
2.2993
2.29489
2.29049
2.28628
2.28233
2.27861
2.27502
2.27144
2.26768
2.26351
2.25892
2.2537
2.2479
2.24185
2.23511
2.22801
2.22083
2.21277
1
1
1
1
1
1
1
1
1
1
1
1
1
1
1
1
1
1
1
1
1
1
1
1
1
1
1
1
1
1
1
1
1
1
1
1
1
1
1
1
1
1
1
1
1
1
1
1
1
1
1
1
1
1
1
1
1
1
1
1
1
1
1
1
1
1
1
1
1
1
1.00097
1.08572
1.67264
2.21532
2.29878
2.2971
2.29437
2.29136
2.28759
2.28353
2.27925
2.27472
2.27006
2.26546
2.26113
2.25714
2.25331
2.24933
2.24512
2.24053
2.23541
2.23012
2.22453
2.21843
2.21224
2.20512
1
1
1
1
1
1
1
1
1
1
1
1
1
1
1
1
1
1
1
1
1
1
1
1
1
1
1
1
1
1
1
1
1
1
1
1
1
1
1
1
1
1
1
1
1
1
1
1
1
1
1
1
1
1
1
1
1
1
1
1
1
1
1
1
1
1
1
1
1
1
1
1.00068
1.06486
1.61524
2.1793
2.28069
2.28028
2.27756
2.27507
2.27196
2.2684
2.26433
2.25986
2.25507
2.25004
2.24507
2.24051
2.23629
2.23212
2.22777
2.22296
2.21774
2.21251
2.207
2.20162
2.19596
1
1
1
1
1
1
1
1
1
1
1
1
1
1
1
1
1
1
1
1
1
1
1
1
1
1
1
1
1
1
1
1
1
1
1
1
1
1
1
1
1
1
1
1
1
1
1
1
1
1
1
1
1
1
1
1
1
1
1
1
1
1
1
1
1
1
1
1
1
1
1
1
1.00043
1.04851
1.54074
2.13578
2.25222
2.26493
2.26183
2.25956
2.25699
2.25432
2.25103
2.24667
2.2413
2.23548
2.23016
2.22537
2.2207
2.21606
2.21123
2.20598
2.20061
2.19526
2.18987
2.18487
1
1
1
1
1
1
1
1
1
1
1
1
1
1
1
1
1
1
1
1
1
1
1
1
1
1
1
1
1
1
1
1
1
1
1
1
1
1
1
1
1
1
1
1
1
1
1
1
1
1
1
1
1
1
1
1
1
1
1
1
1
1
1
1
1
1
1
1
1
1
1
1
1
1.00027
1.03264
1.45821
2.05131
2.2245
2.25391
2.24749
2.24528
2.24325
2.24089
2.23802
2.23409
2.22888
2.2228
2.21672
2.21129
2.20638
2.20147
2.19611
2.19042
2.18464
2.17865
2.17341
1
1
1
1
1
1
1
1
1
1
1
1
1
1
1
1
1
1
1
1
1
1
1
1
1
1
1
1
1
1
1
1
1
1
1
1
1
1
1
1
1
1
1
1
1
1
1
1
1
1
1
1
1
1
1
1
1
1
1
1
1
1
1
1
1
1
1
1
1
1
1
1
1
1
1.00014
1.02026
1.35117
1.93162
2.19283
2.23553
2.23219
2.23157
2.23021
2.22791
2.22462
2.22044
2.21538
2.2098
2.2041
2.19864
2.19336
2.18784
2.18194
2.17575
2.16914
2.16326
1
1
1
1
1
1
1
1
1
1
1
1
1
1
1
1
1
1
1
1
1
1
1
1
1
1
1
1
1
1
1
1
1
1
1
1
1
1
1
1
1
1
1
1
1
1
1
1
1
1
1
1
1
1
1
1
1
1
1
1
1
1
1
1
1
1
1
1
1
1
1
1
1
1
1
1.00007
1.01058
1.234
1.79061
2.14759
2.21578
2.21571
2.21469
2.21349
2.21146
2.20861
2.20498
2.20068
2.19596
2.1911
2.1861
2.18069
2.17468
2.16822
2.16139
2.15511
1
1
1
1
1
1
1
1
1
1
1
1
1
1
1
1
1
1
1
1
1
1
1
1
1
1
1
1
1
1
1
1
1
1
1
1
1
1
1
1
1
1
1
1
1
1
1
1
1
1
1
1
1
1
1
1
1
1
1
1
1
1
1
1
1
1
1
1
1
1
1
1
1
1
1
1
1.00003
1.00452
1.13473
1.63922
2.09585
2.18183
2.20289
2.195
2.19465
2.19357
2.19151
2.18867
2.18532
2.1815
2.17737
2.17257
2.16701
2.16111
2.15467
2.14843
1
1
1
1
1
1
1
1
1
1
1
1
1
1
1
1
1
1
1
1
1
1
1
1
1
1
1
1
1
1
1
1
1
1
1
1
1
1
1
1
1
1
1
1
1
1
1
1
1
1
1
1
1
1
1
1
1
1
1
1
1
1
1
1
1
1
1
1
1
1
1
1
1
1
1
1
1
1.00001
1.00163
1.06644
1.49955
2.00026
2.15572
2.18428
2.18062
2.17806
2.1761
2.17408
2.17142
2.16869
2.16561
2.16173
2.15731
2.15232
2.14677
2.14137
1
1
1
1
1
1
1
1
1
1
1
1
1
1
1
1
1
1
1
1
1
1
1
1
1
1
1
1
1
1
1
1
1
1
1
1
1
1
1
1
1
1
1
1
1
1
1
1
1
1
1
1
1
1
1
1
1
1
1
1
1
1
1
1
1
1
1
1
1
1
1
1
1
1
1
1
1
1
1
1.0005
1.02965
1.35219
1.86694
2.11934
2.16758
2.16632
2.16168
2.1586
2.15675
2.15486
2.15231
2.14951
2.14602
2.14198
2.138
2.1333
1
1
1
1
1
1
1
1
1
1
1
1
1
1
1
1
1
1
1
1
1
1
1
1
1
1
1
1
1
1
1
1
1
1
1
1
1
1
1
1
1
1
1
1
1
1
1
1
1
1
1
1
1
1
1
1
1
1
1
1
1
1
1
1
1
1
1
1
1
1
1
1
1
1
1
1
1
1
1
1
1.00013
1.01168
1.2088
1.69554
2.06841
2.14083
2.15215
2.14705
2.14403
2.14122
2.13914
2.13685
2.13393
2.13104
2.12762
2.12329
1
1
1
1
1
1
1
1
1
1
1
1
1
1
1
1
1
1
1
1
1
1
1
1
1
1
1
1
1
1
1
1
1
1
1
1
1
1
1
1
1
1
1
1
1
1
1
1
1
1
1
1
1
1
1
1
1
1
1
1
1
1
1
1
1
1
1
1
1
1
1
1
1
1
1
1
1
1
1
1
1
1.00003
1.00383
1.09728
1.5238
1.97182
2.11247
2.13768
2.13338
2.1273
2.12499
2.12365
2.1221
2.11985
2.11635
2.1127
1
1
1
1
1
1
1
1
1
1
1
1
1
1
1
1
1
1
1
1
1
1
1
1
1
1
1
1
1
1
1
1
1
1
1
1
1
1
1
1
1
1
1
1
1
1
1
1
1
1
1
1
1
1
1
1
1
1
1
1
1
1
1
1
1
1
1
1
1
1
1
1
1
1
1
1
1
1
1
1
1
1
1.00001
1.00098
1.03747
1.35554
1.81497
2.07939
2.11752
2.11865
2.11502
2.11184
2.11037
2.10836
2.10584
2.10221
1
1
1
1
1
1
1
1
1
1
1
1
1
1
1
1
1
1
1
1
1
1
1
1
1
1
1
1
1
1
1
1
1
1
1
1
1
1
1
1
1
1
1
1
1
1
1
1
1
1
1
1
1
1
1
1
1
1
1
1
1
1
1
1
1
1
1
1
1
1
1
1
1
1
1
1
1
1
1
1
1
1
1
1
1.0002
1.01292
1.18772
1.63221
2.00645
2.08535
2.10414
2.10189
2.09901
2.09818
2.09669
2.09308
1
1
1
1
1
1
1
1
1
1
1
1
1
1
1
1
1
1
1
1
1
1
1
1
1
1
1
1
1
1
1
1
1
1
1
1
1
1
1
1
1
1
1
1
1
1
1
1
1
1
1
1
1
1
1
1
1
1
1
1
1
1
1
1
1
1
1
1
1
1
1
1
1
1
1
1
1
1
1
1
1
1
1
1
1
1.00004
1.0034
1.07486
1.44332
1.87867
2.05835
2.08008
2.08704
2.0857
2.08502
2.08374
1
1
1
1
1
1
1
1
1
1
1
1
1
1
1
1
1
1
1
1
1
1
1
1
1
1
1
1
1
1
1
1
1
1
1
1
1
1
1
1
1
1
1
1
1
1
1
1
1
1
1
1
1
1
1
1
1
1
1
1
1
1
1
1
1
1
1
1
1
1
1
1
1
1
1
1
1
1
1
1
1
1
1
1
1
1
1.00001
1.00067
1.02376
1.2646
1.67846
1.99394
2.06486
2.07634
2.07476
2.07178
1
1
1
1
1
1
1
1
1
1
1
1
1
1
1
1
1
1
1
1
1
1
1
1
1
1
1
1
1
1
1
1
1
1
1
1
1
1
1
1
1
1
1
1
1
1
1
1
1
1
1
1
1
1
1
1
1
1
1
1
1
1
1
1
1
1
1
1
1
1
1
1
1
1
1
1
1
1
1
1
1
1
1
1
1
1
1
1
1.0001
1.00691
1.10555
1.48711
1.8628
2.02194
2.06697
2.06804
1
1
1
1
1
1
1
1
1
1
1
1
1
1
1
1
1
1
1
1
1
1
1
1
1
1
1
1
1
1
1
1
1
1
1
1
1
1
1
1
1
1
1
1
1
1
1
1
1
1
1
1
1
1
1
1
1
1
1
1
1
1
1
1
1
1
1
1
1
1
1
1
1
1
1
1
1
1
1
1
1
1
1
1
1
1
1
1
1
1.00002
1.00123
1.03439
1.27746
1.68625
1.95995
2.03933
1
1
1
1
1
1
1
1
1
1
1
1
1
1
1
1
1
1
1
1
1
1
1
1
1
1
1
1
1
1
1
1
1
1
1
1
1
1
1
1
1
1
1
1
1
1
1
1
1
1
1
1
1
1
1
1
1
1
1
1
1
1
1
1
1
1
1
1
1
1
1
1
1
1
1
1
1
1
1
1
1
1
1
1
1
1
1
1
1
1
1
1.00019
1.008
1.11686
1.46422
1.86091
1
1
1
1
1
1
1
1
1
1
1
1
1
1
1
1
1
1
1
1
1
1
1
1
1
1
1
1
1
1
1
1
1
1
1
1
1
1
1
1
1
1
1
1
1
1
1
1
1
1
1
1
1
1
1
1
1
1
1
1
1
1
1
1
1
1
1
1
1
1
1
1
1
1
1
1
1
1
1
1
1
1
1
1
1
1
1
1
1
1
1
1
1.00002
1.00152
1.033
1.28019
1
1
1
1
1
1
1
1
1
1
1
1
1
1
1
1
1
1
1
1
1
1
1
1
1
1
1
1
1
1
1
1
1
1
1
1
1
1
1
1
1
1
1
1
1
1
1
1
1
1
1
1
1
1
1
1
1
1
1
1
1
1
1
1
1
1
1
1
1
1
1
1
1
1
1
1
1
1
1
1
1
1
1
1
1
1
1
1
1
1
1
1
1
1
1.0002
1.00789
1
1
1
1
1
1
1
1
1
1
1
1
1
1
1
1
1
1
1
1
1
1
1
1
1
1
1
1
1
1
1
1
1
1
1
1
1
1
1
1
1
1
1
1
1
1
1
1
1
1
1
1
1
1
1
1
1
1
1
1
1
1
1
1
1
1
1
1
1
1
1
1
1
1
1
1
1
1
1
1
1
1
1
1
1
1
1
1
1
1
1
1
1
1
1
1.00002
1
1
1
1
1
1
1
1
1
1
1
1
1
1
1
1
1
1
1
1
1
1
1
1
1
1
1
1
1
1
1
1
1
1
1
1
1
1
1
1
1
1
1
1
1
1
1
1
1
1
1
1
1
1
1
1
1
1
1
1
1
1
1
1
1
1
1
1
1
1
1
1
1
1
1
1
1
1
1
1
1
1
1
1
1
1
1
1
1
1
1
1
1
1
1
1
1
1
1
1
1
1
1
1
1
1
1
1
1
1
1
1
1
1
1
1
1
1
1
1
1
1
1
1
1
1
1
1
1
1
1
1
1
1
1
1
1
1
1
1
1
1
1
1
1
1
1
1
1
1
1
1
1
1
1
1
1
1
1
1
1
1
1
1
1
1
1
1
1
1
1
1
1
1
1
1
1
1
1
1
1
1
1
1
1
1
1
1
1
1
1
1
1
1
1
1
1
1
1
1
1
1
1
1
1
1
1
1
1
1
1
1
1
1
1
1
1
1
1
1
1
1
1
1
1
1
1
1
1
1
1
1
1
1
1
1
1
1
1
1
1
1
1
1
1
1
1
1
1
1
1
1
1
1
1
1
1
1
1
1
1
1
1
1
1
1
1
1
1
1
1
1
1
1
1
1
1
1
1
1
1
1
1
1
1
1
1
1
1
1
1
1
1
1
1
1
1
1
1
1
1
1
1
1
1
1
1
1
1
1
1
1
1
1
1
1
1
1
1
1
1
1
1
1
1
1
1
1
1
1
1
1
1
1
1
1
1
1
1
1
1
1
1
1
1
1
1
1
1
1
1
1
1
1
1
1
1
1
1
1
1
1
1
1
1
1
1
1
1
1
1
1
1
1
1
1
1
1
1
1
1
1
1
1
1
1
1
1
1
1
1
1
1
1
1
1
1
1
1
1
1
1
1
1
1
1
1
1
1
1
1
1
1
1
1
1
1
1
1
1
1
1
1
1
1
1
1
1
1
1
1
1
1
1
1
1
1
1
1
1
1
1
1
1
1
1
1
1
1
1
1
1
1
1
1
1
1
1
1
1
1
1
1
1
1
1
1
1
1
1
1
1
1
1
1
1
1
1
1
1
1
1
1
1
1
1
1
1
1
1
1
1
1
1
1
1
1
1
1
1
1
1
1
1
1
1
1
1
1
1
1
1
1
1
1
1
1
1
1
1
1
1
1
1
1
1
1
1
1
1
1
1
1
1
1
1
1
1
1
1
1
1
1
1
1
1
1
1
1
1
1
1
1
1
1
1
1
1
1
1
1
1
1
1
1
1
1
1
1
1
1
1
1
1
1
1
1
1
1
1
1
1
1
1
1
1
1
1
1
1
1
1
1
1
1
1
1
1
1
1
1
1
1
1
1
1
1
1
1
1
1
1
1
1
1
1
1
1
1
1
1
1
1
1
1
1
1
1
1
1
1
1
1
1
1
1
1
1
1
1
1
1
1
1
1
1
1
1
1
1
1
1
1
1
1
1
1
1
1
1
1
1
1
1
1
1
1
1
1
1
1
1
1
1
1
1
1
1
1
1
1
1
1
1
1
1
1
1
1
1
1
1
1
1
1
1
1
1
1
1
1
1
1
1
1
1
1
1
1
1
1
1
1
1
1
1
1
1
1
1
1
1
1
1
1
1
1
1
1
1
1
1
1
1
1
1
1
1
1
1
1
1
1
1
1
1
1
1
1
1
1
1
1
1
1
1
1
1
1
1
1
1
1
1
1
1
1
1
1
1
1
1
1
1
1
1
1
1
1
1
1
1
1
1
1
1
1
1
1
1
1
1
1
1
1
1
1
1
1
1
1
1
1
1
1
1
1
1
1
1
1
1
1
1
1
1
1
1
1
1
1
1
1
1
1
1
1
1
1
1
1
1
1
1
1
1
1
1
1
1
1
1
1
1
1
1
1
1
1
1
1
1
1
1
1
1
1
1
1
1
1
1
1
1
1
1
1
1
1
1
1
1
1
1
1
1
1
1
1
1
1
1
1
1
1
1
1
1
1
1
1
1
1
1
1
1
1
1
1
1
1
1
1
1
1
1
1
1
1
1
1
1
1
1
1
1
1
1
1
1
1
1
1
1
1
1
1
1
1
1
1
1
1
1
1
1
1
1
1
1
1
1
1
1
1
1
1
1
1
1
1
1
1
1
1
1
1
1
1
1
1
1
1
1
1
1
1
1
1
1
1
1
1
1
1
1
1
1
1
1
1
1
1
1
1
1
1
1
1
1
1
1
1
1
1
1
1
1
1
1
1
1
1
1
1
1
1
1
1
1
1
1
1
1
1
1
1
1
1
1
1
1
1
1
1
1
1
1
1
1
1
1
1
1
1
1
1
1
1
1
1
1
1
1
1
1
1
1
1
1
1
1
1
1
1
1
1
1
1
1
1
1
1
1
1
1
1
1
1
1
1
1
1
1
1
1
1
1
1
1
1
1
1
1
1
1
1
1
1
1
1
1
1
1
1
1
1
1
1
1
1
1
1
1
1
1
1
1
1
1
1
1
1
1
1
1
1
1
1
1
1
1
1
1
1
1
1
1
1
1
1
1
1
1
1
1
1
1
1
1
1
1
1
1
1
1
1
1
1
1
1
1
1
1
1
1
1
1
1
1
1
1
1
1
1
1
1
1
1
1
1
1
1
1
1
1
1
1
1
1
1
1
1
1
1
1
1
1
1
1
1
1
1
1
1
1
1
1
1
1
1
1
1
1
1
1
1
1
1
1
1
1
1
1
1
1
1
1
1
1
1
1
1
1
1
1
1
1
1
1
1
1
1
1
1
1
1
1
1
1
1
1
1
1
1
1
1
1
1
1
1
1
1
1
1
1
1
1
1
1
1
1
1
1
1
1
1
1
1
1
1
1
1
1
1
1
1
1
1
1
1
1
1
1
1
1
1
1
1
1
1
1
1
1
1
1
1
1
1
1
1
1
1
1
1
1
1
1
1
1
1
1
1
1
1
1
1
1
1
1
1
1
1
1
1
1
1
1
1
1
1
1
1
1
1
1
1
1
1
1
1
1
1
1
1
1
1
1
1
1
1
1
1
1
1
1
1
1
1
1
1
1
1
1
1
1
1
1
1
1
1
1
1
1
1
1
1
1
1
1
1
1
1
1
1
1
1
1
1
1
1
1
1
1
1
1
1
1
1
1
1
1
1
1
1
1
1
1
1
1
1
1
1
1
1
1
1
1
1
1
1
1
1
1
1
1
1
1
1
1
1
1
1
1
1
1
1
1
1
1
1
1
1
1
1
1
1
1
1
1
1
1
1
1
1
1
1
1
1
1
1
1
1
1
1
1
1
1
1
1
1
1
1
1
1
1
1
1
1
1
1
1
1
1
1
1
1
1
1
1
1
1
1
1
1
1
1
1
1
1
1
1
1
1
1
1
1
1
1
1
1
1
1
1
1
1
1
1
1
1
1
1
1
1
1
1
1
1
1
1
1
1
1
1
1
1
1
1
1
1
1
1
1
1
1
1
1
1
1
1
1
1
1
1
1
1
1
1
1
1
1
1
1
1
1
1
1
1
1
1
1
1
1
1
1
1
1
1
1
1
1
1
1
1
1
1
1
1
1
1
1
1
1
1
1
1
1
1
1
1
1
1
1
1
1
1
1
1
1
1
1
1
1
1
1
1
1
1
1
1
1
1
1
1
1
1
1
1
1
1
1
1
1.54086
0.888623
0.502851
0.760826
0.95427
1.00187
1.07909
1.19304
1.27568
1.26908
1.27169
1.29487
1.33255
1.38167
1.44225
1.50673
1.5569
1.59904
1.62246
1.61744
1.60794
1.60767
1.63072
1.64591
1.64265
1.63172
1.63267
1.63863
1.6492
1.66984
1.68285
1.68163
1.67708
1.67499
1.67527
1.67877
1.68115
1.67955
1.6741
1.6702
1.67114
1.67559
1.67943
1.68094
1.68059
1.67832
1.67401
1.66971
1.66747
1.66773
1.67164
1.67506
1.6743
1.67233
1.66948
1.66653
1.66616
1.66638
1.66759
1.67103
1.67502
1.67785
1.67923
1.67915
1.67827
1.67717
1.6766
1.6762
1.6758
1.67526
1.67447
1.67324
1.67141
1.66894
1.66614
1.66372
1.66228
1.66171
1.66109
1.65978
1.65628
1.65834
1.69048
1.82626
2.11893
2.40632
2.64765
2.7363
2.70574
2.64288
2.61205
2.59911
2.58973
2.57904
2.56777
2.55453
2.54185
2.53028
2.52016
2.51134
2.50254
2.4943
2.48735
2.48
2.47133
2.46175
2.45094
2.43896
2.42697
2.41639
2.40772
2.40066
2.39471
2.38942
2.38413
2.3782
2.3712
2.36293
2.35368
2.34434
2.33605
2.32929
2.32345
2.31785
2.31207
2.30597
2.29935
2.29196
2.28392
2.27583
2.26831
2.26161
2.2558
2.2509
2.24659
2.24218
2.23695
2.23035
2.22184
2.21149
2.20142
2.19404
2.18892
2.18507
2.18195
2.17931
2.17668
2.17365
2.16983
2.16407
2.15563
2.14679
2.14061
2.13593
2.13133
2.12671
2.12177
2.11649
2.10987
2.10122
2.09179
2.08408
2.07884
2.0754
2.07269
2.07007
2.06734
2.06432
2.0605
2.05491
2.04686
2.03807
2.03186
2.02793
2.02468
2.02171
2.01899
2.01641
2.01368
2.01021
2.0051
1.99794
1.99043
1.985
1.98142
1.97865
1.97611
1.9734
1.97024
1.96554
1.95923
1.94798
1.77873
1.41117
1.03788
1.09779
1.09828
1.05869
1.0252
1.02633
1.02681
1.02697
1.04629
1.0705
1.1037
1.1446
1.19678
1.25545
1.31729
1.35222
1.38803
1.42994
1.46368
1.4966
1.53253
1.5583
1.57651
1.58331
1.58953
1.59789
1.60643
1.61958
1.62728
1.62671
1.62654
1.62902
1.63292
1.64003
1.64662
1.64731
1.64526
1.64284
1.64383
1.64692
1.65008
1.65355
1.65531
1.65512
1.65376
1.65105
1.648
1.64724
1.6488
1.65077
1.65071
1.6507
1.6509
1.65097
1.65139
1.65233
1.65405
1.65706
1.66018
1.66223
1.66339
1.6635
1.6629
1.66204
1.6618
1.6618
1.66194
1.66178
1.66116
1.66011
1.65846
1.65628
1.65384
1.65182
1.65056
1.64957
1.64802
1.64469
1.64865
1.68895
1.82894
1.98985
2.08647
2.18305
2.35496
2.50819
2.58354
2.58502