/*--------------------------------*- C++ -*----------------------------------*\
  =========                 |
  \\      /  F ield         | OpenFOAM: The Open Source CFD Toolbox
   \\    /   O peration     | Website:  https://openfoam.org
    \\  /    A nd           | Version:  7
     \\/     M anipulation  |
\*---------------------------------------------------------------------------*/
FoamFile
{
    version     2.0;
    format      ascii;
    class       volVectorField;
    location    "2";
    object      U;
}
// * * * * * * * * * * * * * * * * * * * * * * * * * * * * * * * * * * * * * //

dimensions      [0 1 -1 0 0 0 0];

internalField   nonuniform List<vector> 
19968
(
(3 2.03151e-17 0)
(3 -8.51582e-17 0)
(3 -3.09462e-16 0)
(3 -3.96648e-16 0)
(3 -2.56512e-16 0)
(3 2.4163e-17 0)
(3 8.30899e-17 0)
(3 1.19207e-16 0)
(3 1.40775e-16 0)
(3 -1.38047e-16 0)
(3 -6.75191e-16 0)
(3 -5.97907e-16 0)
(3 -3.94883e-16 0)
(3 -6.34878e-16 0)
(3 -1.03447e-15 0)
(3 -1.12456e-15 0)
(3 -9.49544e-16 0)
(3 -7.87742e-16 0)
(3 -4.18053e-16 0)
(3 -4.52634e-16 0)
(3 -3.99771e-16 0)
(3 7.07032e-16 0)
(3 7.66743e-16 0)
(3 1.31052e-16 0)
(3 -3.21018e-16 0)
(3 -2.82237e-16 0)
(3 -9.28678e-17 0)
(3 -2.27567e-17 0)
(3 7.25971e-17 0)
(3 2.62741e-16 0)
(3 7.34837e-16 0)
(3 1.15334e-15 0)
(3 6.60731e-16 0)
(3 -4.55972e-16 0)
(3 -7.86379e-16 0)
(3 -6.08558e-16 0)
(3 -3.41711e-16 0)
(3 -2.84766e-16 0)
(3 -8.60142e-16 0)
(3 -1.09886e-15 0)
(3 -1.83735e-15 0)
(3 -2.14162e-15 0)
(3 -1.96216e-15 0)
(3 -1.78133e-15 0)
(3 -1.51063e-15 0)
(3 -9.45059e-16 0)
(3 -5.87617e-16 0)
(3 -1.15725e-16 0)
(3 -1.5087e-16 0)
(3 -4.32856e-16 0)
(1.09954 0.00506139 0)
(0.75654 0.0039875 0)
(0.73912 0.00926067 0)
(0.72296 0.00885567 0)
(0.707453 0.0080987 0)
(0.693172 0.00766562 0)
(0.679785 0.00786285 0)
(0.666378 0.00847697 0)
(0.651844 0.00938967 0)
(0.635229 0.0104051 0)
(0.616834 0.0111891 0)
(0.598046 0.0111842 0)
(0.580506 0.0101881 0)
(0.565883 0.00892347 0)
(0.553093 0.00840241 0)
(0.540755 0.00879992 0)
(0.527086 0.00981526 0)
(0.51128 0.0110001 0)
(0.493662 0.0114323 0)
(0.476374 0.0107269 0)
(0.459993 0.0100213 0)
(0.443854 0.0101765 0)
(0.427065 0.0106544 0)
(0.410173 0.0107704 0)
(0.393572 0.0106654 0)
(0.377028 0.0107776 0)
(0.359974 0.01118 0)
(0.342255 0.0115895 0)
(0.324193 0.0118151 0)
(0.306398 0.0118595 0)
(0.289508 0.0117492 0)
(0.273617 0.011539 0)
(0.258359 0.0113282 0)
(0.24306 0.0111835 0)
(0.227083 0.011192 0)
(0.210161 0.0114447 0)
(0.192066 0.0118804 0)
(0.172822 0.0122759 0)
(0.153039 0.0125616 0)
(0.133017 0.0129131 0)
(0.112361 0.0132428 0)
(0.0920371 0.013587 0)
(0.0716587 0.01398 0)
(0.0511115 0.0143987 0)
(0.0305245 0.0145841 0)
(0.0107024 0.014815 0)
(3 -8.4256e-17 0)
(3 -1.03363e-17 0)
(3 -5.84445e-16 0)
(3 -7.53687e-16 0)
(3 -7.5788e-16 0)
(3 -5.97611e-16 0)
(3 -1.76202e-16 0)
(3 2.20265e-16 0)
(3 1.46181e-16 0)
(3 -2.02115e-16 0)
(3 -4.54553e-16 0)
(3 -8.2925e-16 0)
(3 -7.28789e-16 0)
(3 -7.31889e-16 0)
(3 -8.78908e-16 0)
(3 -1.06918e-15 0)
(3 -8.91521e-16 0)
(3 -6.66776e-17 0)
(3 4.28845e-16 0)
(3 -1.78229e-16 0)
(3 -1.1863e-16 0)
(3 8.56875e-16 0)
(3 1.27175e-15 0)
(3 -5.66207e-17 0)
(3 -9.785e-16 0)
(3 -6.72811e-16 0)
(3 5.9452e-17 0)
(3 1.0313e-15 0)
(3 7.70188e-16 0)
(3 4.76075e-16 0)
(3 -3.00805e-16 0)
(3 -2.22048e-16 0)
(3 -1.03836e-15 0)
(3 -1.42223e-15 0)
(3 -1.42984e-15 0)
(3 -9.70563e-16 0)
(3 -1.00907e-15 0)
(3 -9.60339e-16 0)
(3 -1.72952e-15 0)
(3 -1.88809e-15 0)
(3 -2.56232e-15 0)
(3 -2.50052e-15 0)
(3 -2.18467e-15 0)
(3 -1.82221e-15 0)
(3 -1.29382e-15 0)
(3 -6.95222e-16 0)
(3 -5.15547e-16 0)
(3 6.3213e-18 0)
(3 3.45905e-16 0)
(3 4.86665e-17 0)
(1.11139 0.0253804 0)
(0.754744 0.0195198 0)
(0.736408 0.0288544 0)
(0.71997 0.0278502 0)
(0.70383 0.0255559 0)
(0.688736 0.0235348 0)
(0.674745 0.0232043 0)
(0.661124 0.0244779 0)
(0.646752 0.0269901 0)
(0.630625 0.0301297 0)
(0.612821 0.0327007 0)
(0.59439 0.0331438 0)
(0.57687 0.0309398 0)
(0.561767 0.0275635 0)
(0.548079 0.0257184 0)
(0.534988 0.0264802 0)
(0.521079 0.0292831 0)
(0.50545 0.0326049 0)
(0.488277 0.0338473 0)
(0.471535 0.0322012 0)
(0.455286 0.0304925 0)
(0.43897 0.0308359 0)
(0.422093 0.0320175 0)
(0.405201 0.0322744 0)
(0.388621 0.0320727 0)
(0.372034 0.0325452 0)
(0.354943 0.0338063 0)
(0.337232 0.0349966 0)
(0.319274 0.0355736 0)
(0.301693 0.0356608 0)
(0.285051 0.0354138 0)
(0.269332 0.0349564 0)
(0.254141 0.0344762 0)
(0.238886 0.0341067 0)
(0.222957 0.0341193 0)
(0.20618 0.0348505 0)
(0.188353 0.0360987 0)
(0.169511 0.0372985 0)
(0.150202 0.038192 0)
(0.130726 0.0393117 0)
(0.110623 0.0403836 0)
(0.090849 0.0415349 0)
(0.0709345 0.0428046 0)
(0.0507589 0.0441736 0)
(0.0304029 0.0448319 0)
(0.0107181 0.0456733 0)
(3 1.00172e-16 0)
(3 -6.10525e-17 0)
(3 -4.24646e-17 0)
(3 2.58073e-16 0)
(3 6.88113e-16 0)
(3 4.77442e-16 0)
(3 1.75807e-16 0)
(3 -2.3389e-16 0)
(3 -8.88701e-16 0)
(3 -7.18745e-16 0)
(3 1.18602e-16 0)
(3 -1.09102e-16 0)
(3 -2.12908e-16 0)
(3 -1.84942e-16 0)
(3 8.03936e-17 0)
(3 -2.04168e-17 0)
(3 -5.68484e-16 0)
(3 -7.56382e-16 0)
(3 8.20847e-16 0)
(3 2.16305e-15 0)
(3 2.43735e-15 0)
(3 1.15815e-15 0)
(3 9.1585e-16 0)
(3 1.42933e-16 0)
(3 -2.36212e-16 0)
(3 -4.1788e-17 0)
(3 4.22823e-16 0)
(3 7.00176e-16 0)
(3 -3.61094e-16 0)
(3 -1.95808e-16 0)
(3 -4.15953e-16 0)
(3 -4.59666e-16 0)
(3 -9.27705e-17 0)
(3 1.44716e-16 0)
(3 -6.58166e-16 0)
(3 -9.39783e-16 0)
(3 -4.53484e-16 0)
(3 -1.95461e-17 0)
(3 4.39007e-16 0)
(3 5.1766e-16 0)
(3 6.4053e-16 0)
(3 5.26628e-16 0)
(3 -1.39831e-16 0)
(3 -3.13515e-16 0)
(3 5.31722e-16 0)
(3 3.83959e-16 0)
(3 -3.47746e-16 0)
(3 -8.58121e-16 0)
(3 -1.02832e-15 0)
(3 -6.18089e-16 0)
(1.14438 0.0462504 0)
(0.757914 0.0360412 0)
(0.739673 0.0483834 0)
(0.723075 0.0478436 0)
(0.706319 0.0450195 0)
(0.690179 0.0419828 0)
(0.675092 0.0409991 0)
(0.660757 0.0424424 0)
(0.646195 0.0459678 0)
(0.630409 0.0507133 0)
(0.613124 0.0547583 0)
(0.594958 0.0556928 0)
(0.57738 0.0528281 0)
(0.561657 0.0480872 0)
(0.546735 0.045278 0)
(0.532338 0.046266 0)
(0.517755 0.0504433 0)
(0.501964 0.0553457 0)
(0.484933 0.0571156 0)
(0.468559 0.0548421 0)
(0.452398 0.0525709 0)
(0.435888 0.0531513 0)
(0.418828 0.0547454 0)
(0.401761 0.0549729 0)
(0.38501 0.0547352 0)
(0.368232 0.055731 0)
(0.351029 0.0579796 0)
(0.333241 0.0599553 0)
(0.315236 0.060704 0)
(0.297635 0.0605501 0)
(0.280929 0.0599364 0)
(0.265035 0.0591589 0)
(0.249592 0.0584544 0)
(0.234105 0.0579224 0)
(0.218 0.0579748 0)
(0.201186 0.0591365 0)
(0.183444 0.0610369 0)
(0.164806 0.0628426 0)
(0.145805 0.0641703 0)
(0.126793 0.0659785 0)
(0.107231 0.0677719 0)
(0.0881499 0.0698138 0)
(0.0688967 0.0720482 0)
(0.0493833 0.0744886 0)
(0.0295924 0.0757524 0)
(0.010504 0.0773586 0)
(3 -2.49732e-17 0)
(3 3.40954e-17 0)
(3 5.46508e-16 0)
(3 8.52704e-16 0)
(3 1.05384e-15 0)
(3 1.35894e-15 0)
(3 1.54454e-15 0)
(3 1.44073e-15 0)
(3 4.01958e-16 0)
(3 3.9527e-16 0)
(3 8.06447e-16 0)
(3 1.97063e-15 0)
(3 2.11175e-15 0)
(3 1.7393e-15 0)
(3 1.33989e-15 0)
(3 1.30181e-15 0)
(3 1.12415e-15 0)
(3 1.48692e-15 0)
(3 2.85021e-15 0)
(3 3.5553e-15 0)
(3 2.67134e-15 0)
(3 1.70837e-15 0)
(3 3.37004e-16 0)
(3 1.09416e-16 0)
(3 -4.47802e-16 0)
(3 4.85995e-17 0)
(3 8.61761e-18 0)
(3 -7.41622e-16 0)
(3 -1.93305e-15 0)
(3 -1.92664e-15 0)
(3 -1.84154e-15 0)
(3 -1.3573e-15 0)
(3 -8.25161e-16 0)
(3 -4.15612e-16 0)
(3 -5.07055e-16 0)
(3 -7.07619e-16 0)
(3 -5.91758e-16 0)
(3 2.78548e-17 0)
(3 1.14772e-16 0)
(3 -4.87584e-16 0)
(3 -7.31022e-16 0)
(3 -9.50682e-16 0)
(3 -7.40806e-16 0)
(3 -6.59774e-16 0)
(3 9.26065e-17 0)
(3 3.40844e-16 0)
(3 -2.96677e-16 0)
(3 -1.42021e-15 0)
(3 -1.96074e-15 0)
(3 -2.39689e-17 0)
(1.20057 0.0683629 0)
(0.762147 0.0535383 0)
(0.7427 0.0679762 0)
(0.725818 0.0688524 0)
(0.708593 0.0664143 0)
(0.691889 0.0626009 0)
(0.676153 0.0603507 0)
(0.661381 0.061034 0)
(0.646946 0.064781 0)
(0.632002 0.0707519 0)
(0.615763 0.0762839 0)
(0.598246 0.0780688 0)
(0.580783 0.0753078 0)
(0.564668 0.0700168 0)
(0.548893 0.0666746 0)
(0.533498 0.0678661 0)
(0.518484 0.0730531 0)
(0.502747 0.0790417 0)
(0.486023 0.0811894 0)
(0.469975 0.0786837 0)
(0.453867 0.0762798 0)
(0.437178 0.0771459 0)
(0.419904 0.0789326 0)
(0.402601 0.0790632 0)
(0.385582 0.0789353 0)
(0.368546 0.0806456 0)
(0.351218 0.084023 0)
(0.333321 0.0868436 0)
(0.315179 0.0876792 0)
(0.297392 0.087109 0)
(0.280367 0.0860101 0)
(0.264007 0.0849409 0)
(0.248015 0.0841313 0)
(0.232006 0.0835431 0)
(0.215441 0.0836899 0)
(0.198327 0.0852675 0)
(0.180343 0.0876733 0)
(0.161533 0.0898449 0)
(0.142451 0.0913525 0)
(0.12354 0.0936365 0)
(0.104157 0.0959205 0)
(0.085527 0.0987365 0)
(0.066745 0.101831 0)
(0.0478235 0.10532 0)
(0.0285964 0.10723 0)
(0.0102017 0.109669 0)
(3 -8.17429e-17 0)
(3 5.02387e-16 0)
(3 5.9494e-16 0)
(3 4.9599e-16 0)
(3 4.7365e-16 0)
(3 8.16666e-16 0)
(3 1.8958e-15 0)
(3 2.3986e-15 0)
(3 2.97189e-15 0)
(3 2.57348e-15 0)
(3 1.49018e-15 0)
(3 1.48311e-15 0)
(3 3.16809e-15 0)
(3 3.48895e-15 0)
(3 3.33237e-15 0)
(3 3.18244e-15 0)
(3 2.86146e-15 0)
(3 2.77988e-15 0)
(3 2.70987e-15 0)
(3 2.25031e-15 0)
(3 1.3118e-15 0)
(3 1.02851e-15 0)
(3 1.08312e-15 0)
(3 6.03375e-16 0)
(3 2.47398e-16 0)
(3 3.31804e-16 0)
(3 -8.11736e-18 0)
(3 -7.39672e-16 0)
(3 -4.59642e-16 0)
(3 -7.57925e-16 0)
(3 -5.55833e-16 0)
(3 -1.87999e-16 0)
(3 5.9964e-16 0)
(3 1.0892e-15 0)
(3 1.17504e-15 0)
(3 1.12443e-15 0)
(3 5.81341e-16 0)
(3 7.52771e-16 0)
(3 7.31997e-16 0)
(3 -1.36319e-16 0)
(3 -5.12673e-16 0)
(3 -9.7177e-16 0)
(3 -5.31473e-16 0)
(3 -4.53333e-16 0)
(3 -4.42756e-16 0)
(3 -2.68052e-16 0)
(3 7.84218e-16 0)
(3 1.72619e-15 0)
(3 1.91641e-15 0)
(3 -7.1539e-16 0)
(1.28995 0.0923613 0)
(0.767857 0.0725518 0)
(0.744002 0.0884688 0)
(0.72726 0.0913429 0)
(0.709856 0.0898074 0)
(0.692844 0.0855765 0)
(0.676612 0.0817483 0)
(0.661274 0.0809302 0)
(0.646589 0.0840591 0)
(0.63214 0.0905658 0)
(0.616927 0.0973765 0)
(0.600337 0.1004 0)
(0.583165 0.0983202 0)
(0.567093 0.093086 0)
(0.551048 0.0894955 0)
(0.535147 0.0906909 0)
(0.520149 0.0964353 0)
(0.504944 0.103078 0)
(0.488975 0.105631 0)
(0.47352 0.103366 0)
(0.457768 0.101229 0)
(0.441207 0.102427 0)
(0.42395 0.104256 0)
(0.406578 0.10426 0)
(0.389416 0.10438 0)
(0.372291 0.106985 0)
(0.355058 0.11164 0)
(0.337247 0.115397 0)
(0.319119 0.116278 0)
(0.301261 0.115155 0)
(0.283942 0.113486 0)
(0.267065 0.11218 0)
(0.250444 0.111406 0)
(0.233839 0.110921 0)
(0.216737 0.111334 0)
(0.199251 0.113459 0)
(0.180902 0.116432 0)
(0.161711 0.118911 0)
(0.14226 0.120481 0)
(0.123093 0.123093 0)
(0.103455 0.125608 0)
(0.0847872 0.128947 0)
(0.0659831 0.132635 0)
(0.047196 0.13697 0)
(0.0281076 0.139418 0)
(0.0100435 0.142619 0)
(3 1.65942e-16 0)
(3 4.20115e-16 0)
(3 3.63101e-16 0)
(3 4.91936e-16 0)
(3 2.34809e-16 0)
(3 2.64392e-16 0)
(3 2.75826e-16 0)
(3 3.59368e-17 0)
(3 5.76221e-16 0)
(3 9.68025e-16 0)
(3 7.29491e-16 0)
(3 3.11016e-16 0)
(3 3.92928e-16 0)
(3 1.34186e-15 0)
(3 2.63932e-15 0)
(3 2.882e-15 0)
(3 3.02713e-15 0)
(3 4.00016e-16 0)
(3 -6.77506e-16 0)
(3 -1.13531e-15 0)
(3 -1.02486e-15 0)
(3 -6.21134e-16 0)
(3 -3.62736e-16 0)
(3 -3.73229e-16 0)
(3 1.46925e-16 0)
(3 1.26026e-15 0)
(3 1.81137e-15 0)
(3 1.75373e-15 0)
(3 2.21077e-15 0)
(3 2.35984e-15 0)
(3 2.01103e-15 0)
(3 1.81678e-15 0)
(3 1.90907e-15 0)
(3 1.79064e-15 0)
(3 1.95638e-15 0)
(3 1.3738e-15 0)
(3 8.77796e-16 0)
(3 2.60429e-16 0)
(3 -1.55757e-16 0)
(3 -4.28154e-17 0)
(3 1.90356e-17 0)
(3 1.18162e-16 0)
(3 -1.96406e-16 0)
(3 -8.09441e-16 0)
(3 -1.41751e-15 0)
(3 -1.93585e-15 0)
(3 -7.80777e-16 0)
(3 -3.35844e-16 0)
(3 8.3233e-17 0)
(3 -1.87451e-15 0)
(1.4281 0.117698 0)
(0.777063 0.0938223 0)
(0.746116 0.110071 0)
(0.73 0.114843 0)
(0.712536 0.114418 0)
(0.695572 0.110118 0)
(0.679209 0.104883 0)
(0.663395 0.102484 0)
(0.648159 0.104595 0)
(0.633534 0.110869 0)
(0.618736 0.118244 0)
(0.602861 0.122598 0)
(0.586417 0.121399 0)
(0.570705 0.116612 0)
(0.554965 0.112977 0)
(0.539047 0.11409 0)
(0.524295 0.120021 0)
(0.509676 0.127021 0)
(0.494357 0.130182 0)
(0.479192 0.128702 0)
(0.463501 0.12732 0)
(0.446817 0.129071 0)
(0.429241 0.131056 0)
(0.411415 0.131071 0)
(0.393772 0.131589 0)
(0.376357 0.135171 0)
(0.35915 0.141121 0)
(0.341463 0.145773 0)
(0.323506 0.146592 0)
(0.305852 0.144762 0)
(0.28853 0.142419 0)
(0.27137 0.140881 0)
(0.254281 0.140228 0)
(0.237189 0.140021 0)
(0.219661 0.140939 0)
(0.201875 0.143815 0)
(0.183178 0.147536 0)
(0.163607 0.150406 0)
(0.143747 0.15204 0)
(0.124246 0.154942 0)
(0.104197 0.157521 0)
(0.0852451 0.161146 0)
(0.0661375 0.165157 0)
(0.0471933 0.170114 0)
(0.0279719 0.172949 0)
(0.0099645 0.176789 0)
(3 3.34614e-17 0)
(3 2.98699e-16 0)
(3 1.8845e-16 0)
(3 -2.17463e-17 0)
(3 -4.96122e-16 0)
(3 -7.65907e-16 0)
(3 -7.41189e-16 0)
(3 -5.27569e-16 0)
(3 -2.42024e-16 0)
(3 1.42336e-16 0)
(3 1.29218e-16 0)
(3 -2.55376e-16 0)
(3 -6.096e-16 0)
(3 -6.66121e-16 0)
(3 3.66332e-16 0)
(3 9.62299e-16 0)
(3 1.0606e-15 0)
(3 -3.54954e-16 0)
(3 -1.06686e-15 0)
(3 -2.67623e-15 0)
(3 -2.8105e-15 0)
(3 -1.8562e-15 0)
(3 -1.11952e-15 0)
(3 -7.89708e-16 0)
(3 -3.56427e-16 0)
(3 7.97603e-16 0)
(3 1.14516e-15 0)
(3 1.9626e-15 0)
(3 2.35676e-15 0)
(3 1.81596e-15 0)
(3 1.10543e-15 0)
(3 5.35927e-16 0)
(3 4.28495e-16 0)
(3 4.42128e-16 0)
(3 2.6672e-16 0)
(3 5.63573e-17 0)
(3 -2.52019e-17 0)
(3 -3.7592e-16 0)
(3 -5.74555e-16 0)
(3 -4.6218e-16 0)
(3 6.2124e-17 0)
(3 1.82597e-16 0)
(3 -8.79043e-18 0)
(3 -9.45761e-16 0)
(3 -1.59817e-15 0)
(3 -1.8897e-15 0)
(3 -2.6242e-15 0)
(3 -2.97508e-15 0)
(3 -2.38845e-15 0)
(3 -1.90154e-15 0)
(1.63586 0.139255 0)
(0.79346 0.116424 0)
(0.749658 0.132618 0)
(0.73406 0.139153 0)
(0.716793 0.13971 0)
(0.699976 0.135832 0)
(0.683473 0.129806 0)
(0.66707 0.125926 0)
(0.650772 0.12668 0)
(0.635079 0.132533 0)
(0.61971 0.140677 0)
(0.603525 0.14595 0)
(0.587189 0.145485 0)
(0.571052 0.141166 0)
(0.555232 0.137488 0)
(0.539042 0.138378 0)
(0.524192 0.144191 0)
(0.509848 0.151504 0)
(0.49495 0.155686 0)
(0.479975 0.155468 0)
(0.464515 0.155151 0)
(0.448146 0.157577 0)
(0.430757 0.159849 0)
(0.412943 0.159956 0)
(0.3953 0.160808 0)
(0.378174 0.165186 0)
(0.361713 0.172195 0)
(0.344887 0.177487 0)
(0.327794 0.178058 0)
(0.310924 0.175445 0)
(0.293924 0.172492 0)
(0.276533 0.170921 0)
(0.258824 0.170722 0)
(0.24092 0.171192 0)
(0.222683 0.172957 0)
(0.204267 0.176845 0)
(0.185052 0.181513 0)
(0.165022 0.184876 0)
(0.14477 0.186535 0)
(0.125008 0.189627 0)
(0.104641 0.192077 0)
(0.0854373 0.195641 0)
(0.0660757 0.199674 0)
(0.0470248 0.204986 0)
(0.0277339 0.208011 0)
(0.0098211 0.212343 0)
(3 1.71769e-17 0)
(3 -2.95111e-17 0)
(3 -2.33586e-16 0)
(3 -2.85337e-16 0)
(3 -2.81683e-16 0)
(3 -3.6737e-16 0)
(3 -5.87892e-16 0)
(3 -5.01455e-16 0)
(3 -3.35814e-16 0)
(3 -9.882e-17 0)
(3 1.75462e-17 0)
(3 -2.05104e-17 0)
(3 -2.2939e-16 0)
(3 -6.2584e-16 0)
(3 -6.73152e-16 0)
(3 -1.06818e-15 0)
(3 -1.26344e-15 0)
(3 -1.21267e-15 0)
(3 -1.19552e-15 0)
(3 -1.27927e-15 0)
(3 -1.12325e-15 0)
(3 -4.84544e-16 0)
(3 -2.37279e-16 0)
(3 2.32614e-16 0)
(3 7.33119e-16 0)
(3 7.42439e-16 0)
(3 1.09091e-15 0)
(3 1.09974e-15 0)
(3 5.42065e-16 0)
(3 -3.06146e-16 0)
(3 -2.67291e-16 0)
(3 -3.72187e-16 0)
(3 -3.98548e-16 0)
(3 -3.94195e-16 0)
(3 -8.68856e-16 0)
(3 -9.36727e-16 0)
(3 -7.2431e-16 0)
(3 -6.03108e-16 0)
(3 -6.4388e-16 0)
(3 -5.069e-16 0)
(3 -5.24343e-16 0)
(3 -1.94935e-16 0)
(3 -4.19642e-16 0)
(3 -2.91981e-16 0)
(3 -1.85666e-16 0)
(3 -3.95972e-17 0)
(3 -7.39662e-17 0)
(3 -3.35812e-16 0)
(3 -1.50926e-15 0)
(3 -1.91524e-15 0)
(1.92344 0.156543 0)
(0.818925 0.144275 0)
(0.749366 0.158424 0)
(0.73204 0.164214 0)
(0.71424 0.165682 0)
(0.697089 0.162925 0)
(0.680415 0.156923 0)
(0.664026 0.151774 0)
(0.647776 0.151481 0)
(0.632269 0.156495 0)
(0.617757 0.16474 0)
(0.602739 0.170744 0)
(0.587451 0.171087 0)
(0.572651 0.167198 0)
(0.557548 0.163692 0)
(0.542084 0.164243 0)
(0.527579 0.169487 0)
(0.513691 0.176745 0)
(0.499351 0.181934 0)
(0.484607 0.183184 0)
(0.469378 0.184027 0)
(0.45339 0.187192 0)
(0.436255 0.190029 0)
(0.418395 0.190476 0)
(0.400633 0.191556 0)
(0.383683 0.196379 0)
(0.368001 0.204105 0)
(0.352152 0.209859 0)
(0.335984 0.210294 0)
(0.319792 0.207279 0)
(0.302842 0.204269 0)
(0.284939 0.203244 0)
(0.266397 0.204051 0)
(0.247521 0.205649 0)
(0.228456 0.208417 0)
(0.209479 0.213353 0)
(0.190055 0.218985 0)
(0.169861 0.22286 0)
(0.149414 0.224472 0)
(0.129407 0.227537 0)
(0.108703 0.229773 0)
(0.0888453 0.232978 0)
(0.0687036 0.236789 0)
(0.0488636 0.242227 0)
(0.0287595 0.245248 0)
(0.0100615 0.249917 0)
(3 -1.60673e-16 0)
(3 -7.09457e-16 0)
(3 -9.2531e-16 0)
(3 -6.4043e-16 0)
(3 -4.21795e-16 0)
(3 -4.27453e-16 0)
(3 -6.97674e-16 0)
(3 -9.57826e-16 0)
(3 -9.64867e-16 0)
(3 -1.00206e-15 0)
(3 -1.00402e-15 0)
(3 -1.0715e-15 0)
(3 -1.25148e-15 0)
(3 -1.52232e-15 0)
(3 -2.08197e-15 0)
(3 -1.93333e-15 0)
(3 -1.76335e-15 0)
(3 -1.45469e-15 0)
(3 -7.20023e-16 0)
(3 3.58987e-17 0)
(3 4.29113e-16 0)
(3 5.72033e-16 0)
(3 5.39535e-16 0)
(3 7.45187e-16 0)
(3 1.07832e-15 0)
(3 1.14393e-15 0)
(3 8.48752e-16 0)
(3 5.28577e-16 0)
(3 -8.13026e-16 0)
(3 -9.96892e-16 0)
(3 -6.53562e-16 0)
(3 -1.07794e-16 0)
(3 1.2177e-16 0)
(3 1.10568e-16 0)
(3 -1.26528e-16 0)
(3 -8.87825e-16 0)
(3 -1.36734e-15 0)
(3 -1.27304e-15 0)
(3 -1.19331e-15 0)
(3 -1.19406e-15 0)
(3 -1.26154e-15 0)
(3 9.31887e-18 0)
(3 1.20684e-15 0)
(3 1.23887e-15 0)
(3 9.8871e-16 0)
(3 5.66173e-16 0)
(3 5.63944e-16 0)
(3 2.67212e-16 0)
(3 -1.18183e-15 0)
(3 -6.10434e-15 0)
(2.30918 0.155856 0)
(0.868054 0.177987 0)
(0.750009 0.187039 0)
(0.734535 0.192368 0)
(0.720046 0.193728 0)
(0.705308 0.192058 0)
(0.690327 0.186329 0)
(0.675058 0.179874 0)
(0.659186 0.177459 0)
(0.643705 0.18114 0)
(0.629298 0.1888 0)
(0.614731 0.19551 0)
(0.599769 0.19688 0)
(0.585415 0.193719 0)
(0.57083 0.190567 0)
(0.555838 0.190937 0)
(0.541264 0.195538 0)
(0.527298 0.202632 0)
(0.513109 0.208966 0)
(0.498256 0.212084 0)
(0.482956 0.214185 0)
(0.46724 0.218056 0)
(0.450527 0.221678 0)
(0.432849 0.222715 0)
(0.415171 0.223757 0)
(0.398485 0.228355 0)
(0.383657 0.236132 0)
(0.368946 0.242092 0)
(0.353752 0.242666 0)
(0.338116 0.239843 0)
(0.321142 0.237398 0)
(0.302808 0.237408 0)
(0.283607 0.239531 0)
(0.263967 0.242479 0)
(0.244161 0.24621 0)
(0.224586 0.252065 0)
(0.204815 0.25873 0)
(0.184174 0.263377 0)
(0.163051 0.265274 0)
(0.142132 0.268575 0)
(0.120174 0.2711 0)
(0.098645 0.274402 0)
(0.0765307 0.278294 0)
(0.0545585 0.284116 0)
(0.0321659 0.2873 0)
(0.0111316 0.292375 0)
(3 -5.79512e-17 0)
(3 -2.50268e-16 0)
(3 -3.70383e-16 0)
(3 -3.45958e-16 0)
(3 -1.65503e-16 0)
(3 -2.20488e-16 0)
(3 8.83369e-17 0)
(3 1.0328e-17 0)
(3 -2.42956e-16 0)
(3 -5.37198e-16 0)
(3 -6.51481e-16 0)
(3 -8.81369e-16 0)
(3 -1.04924e-15 0)
(3 -1.03119e-15 0)
(3 -1.09851e-15 0)
(3 -9.68329e-16 0)
(3 -7.22814e-16 0)
(3 -8.70477e-17 0)
(3 9.34384e-16 0)
(3 1.76385e-15 0)
(3 1.82556e-15 0)
(3 1.60744e-15 0)
(3 9.05488e-16 0)
(3 4.34482e-16 0)
(3 7.84522e-16 0)
(3 1.05138e-15 0)
(3 5.46735e-16 0)
(3 -4.89563e-16 0)
(3 -3.50569e-16 0)
(3 -1.74432e-16 0)
(3 -8.49332e-17 0)
(3 1.22892e-17 0)
(3 -8.25326e-17 0)
(3 -2.47869e-16 0)
(3 -5.61507e-16 0)
(3 -1.06229e-15 0)
(3 -6.87293e-16 0)
(3 1.04306e-16 0)
(3 1.2753e-15 0)
(3 1.33304e-15 0)
(3 1.32428e-15 0)
(3 1.29703e-15 0)
(3 1.37368e-15 0)
(3 1.58911e-15 0)
(3 1.18017e-15 0)
(3 1.1271e-15 0)
(3 5.80892e-16 0)
(3 -4.12032e-17 0)
(3 -1.12228e-16 0)
(3 -1.25785e-15 0)
(2.72123 0.140822 0)
(0.95652 0.222073 0)
(0.765759 0.2125 0)
(0.757905 0.209163 0)
(0.744909 0.211925 0)
(0.731508 0.211911 0)
(0.716893 0.208599 0)
(0.701688 0.203452 0)
(0.685425 0.200989 0)
(0.669043 0.20385 0)
(0.653603 0.211265 0)
(0.638317 0.218475 0)
(0.622811 0.220953 0)
(0.608015 0.218906 0)
(0.593385 0.216462 0)
(0.578561 0.217003 0)
(0.563893 0.221069 0)
(0.54965 0.227822 0)
(0.535492 0.235133 0)
(0.52067 0.240251 0)
(0.505375 0.243466 0)
(0.489946 0.247615 0)
(0.473839 0.25185 0)
(0.456585 0.253714 0)
(0.439066 0.25459 0)
(0.422372 0.258418 0)
(0.40773 0.26578 0)
(0.393613 0.272197 0)
(0.378833 0.273928 0)
(0.363235 0.272416 0)
(0.34599 0.271375 0)
(0.327126 0.273068 0)
(0.307136 0.277057 0)
(0.286468 0.281951 0)
(0.265392 0.287214 0)
(0.244381 0.29446 0)
(0.223248 0.30282 0)
(0.201085 0.309063 0)
(0.178204 0.312031 0)
(0.155325 0.316011 0)
(0.131513 0.3192 0)
(0.10772 0.322911 0)
(0.0833767 0.32687 0)
(0.0592774 0.332983 0)
(0.0348938 0.336265 0)
(0.0119281 0.341671 0)
(3 1.42098e-16 0)
(3 3.38214e-16 0)
(3 3.13441e-16 0)
(3 -2.50931e-17 0)
(3 -4.12542e-16 0)
(3 -3.35636e-16 0)
(3 4.51202e-17 0)
(3 7.60092e-17 0)
(3 -2.43029e-16 0)
(3 -4.29821e-16 0)
(3 -2.83489e-16 0)
(3 4.4584e-17 0)
(3 2.25805e-16 0)
(3 2.37712e-16 0)
(3 1.76217e-16 0)
(3 3.17103e-16 0)
(3 3.9701e-16 0)
(3 1.35936e-15 0)
(3 1.69453e-15 0)
(3 1.81909e-15 0)
(3 1.54005e-15 0)
(3 1.3659e-15 0)
(3 1.50637e-15 0)
(3 1.3006e-15 0)
(3 8.80459e-16 0)
(3 7.84736e-16 0)
(3 6.28746e-16 0)
(3 -4.18078e-16 0)
(3 -8.7489e-16 0)
(3 -6.12503e-16 0)
(3 -5.77815e-16 0)
(3 -1.02536e-15 0)
(3 -1.45807e-15 0)
(3 -1.36088e-15 0)
(3 -7.65132e-16 0)
(3 -2.04013e-16 0)
(3 1.03831e-15 0)
(3 1.53437e-15 0)
(3 1.42666e-15 0)
(3 1.19705e-15 0)
(3 3.33725e-16 0)
(3 2.54079e-16 0)
(3 5.50116e-16 0)
(3 6.10892e-16 0)
(3 9.48815e-16 0)
(3 1.38078e-15 0)
(3 1.99464e-15 0)
(3 1.90432e-15 0)
(3 1.81738e-15 0)
(3 1.201e-15 0)
(3.0026 0.0126287 0)
(1.1013 0.25092 0)
(0.78261 0.209757 0)
(0.776657 0.226153 0)
(0.76335 0.235961 0)
(0.749346 0.239447 0)
(0.735312 0.23764 0)
(0.721198 0.233595 0)
(0.705866 0.231539 0)
(0.689745 0.23389 0)
(0.67391 0.240507 0)
(0.658055 0.247354 0)
(0.642033 0.250119 0)
(0.626672 0.248737 0)
(0.611663 0.246866 0)
(0.596734 0.247668 0)
(0.581952 0.251388 0)
(0.567383 0.257551 0)
(0.553125 0.265179 0)
(0.538403 0.271799 0)
(0.522929 0.276052 0)
(0.507217 0.280385 0)
(0.491077 0.285354 0)
(0.473705 0.288688 0)
(0.455665 0.290198 0)
(0.438124 0.293543 0)
(0.422458 0.300465 0)
(0.407813 0.307596 0)
(0.39258 0.311026 0)
(0.376348 0.311353 0)
(0.358499 0.311976 0)
(0.339135 0.315426 0)
(0.318751 0.32125 0)
(0.29781 0.328 0)
(0.276488 0.334748 0)
(0.255204 0.34314 0)
(0.234071 0.353036 0)
(0.211876 0.360979 0)
(0.188682 0.36521 0)
(0.165227 0.370025 0)
(0.140543 0.374037 0)
(0.115377 0.378394 0)
(0.0893562 0.382448 0)
(0.0634469 0.388727 0)
(0.037292 0.391979 0)
(0.0127102 0.397631 0)
(3 -1.22429e-16 0)
(3 -9.79409e-17 0)
(3 -1.23521e-16 0)
(3 -2.4246e-16 0)
(3 -1.75248e-16 0)
(3 -1.56698e-16 0)
(3 -1.21601e-16 0)
(3 -8.12038e-17 0)
(3 -2.36503e-16 0)
(3 -1.99072e-16 0)
(3 -1.60187e-16 0)
(3 -3.79191e-17 0)
(3 -3.14011e-17 0)
(3 -3.10222e-18 0)
(3 2.16197e-16 0)
(3 3.25947e-16 0)
(3 7.52471e-16 0)
(3 1.13013e-15 0)
(3 6.08872e-16 0)
(3 -6.17062e-17 0)
(3 2.62255e-16 0)
(3 4.51799e-16 0)
(3 6.64281e-16 0)
(3 2.6335e-16 0)
(3 -5.57078e-16 0)
(3 -1.0795e-15 0)
(3 -2.01832e-15 0)
(3 -1.66236e-15 0)
(3 -1.4901e-15 0)
(3 -1.70113e-15 0)
(3 -1.91918e-15 0)
(3 -2.19482e-15 0)
(3 -2.34586e-15 0)
(3 -1.85292e-15 0)
(3 1.2431e-16 0)
(3 8.92887e-16 0)
(3 9.37283e-16 0)
(3 5.67659e-16 0)
(3 1.69389e-16 0)
(3 -1.81558e-16 0)
(3 -5.40994e-16 0)
(3 -2.69855e-16 0)
(3 2.20494e-16 0)
(3 4.33666e-17 0)
(3 -3.07241e-16 0)
(3 -3.21969e-16 0)
(3 -1.39488e-16 0)
(3 1.73445e-16 0)
(3 1.54691e-15 0)
(3 9.96993e-16 0)
(3.00034 0.000110463 0)
(1.42912 0.273946 0)
(0.797809 0.235215 0)
(0.764362 0.256726 0)
(0.748453 0.265997 0)
(0.735085 0.26791 0)
(0.723449 0.265389 0)
(0.711383 0.262514 0)
(0.697789 0.262245 0)
(0.683064 0.265839 0)
(0.668126 0.272777 0)
(0.65297 0.279443 0)
(0.637686 0.282069 0)
(0.62303 0.280861 0)
(0.608751 0.279175 0)
(0.594737 0.280114 0)
(0.581072 0.283722 0)
(0.567576 0.289331 0)
(0.554505 0.296867 0)
(0.541278 0.304539 0)
(0.527048 0.309891 0)
(0.512192 0.314303 0)
(0.497055 0.319838 0)
(0.480822 0.324928 0)
(0.463426 0.327817 0)
(0.446087 0.330913 0)
(0.430168 0.336985 0)
(0.415613 0.344456 0)
(0.40067 0.34971 0)
(0.384408 0.3523 0)
(0.366377 0.354881 0)
(0.346779 0.360191 0)
(0.326175 0.36798 0)
(0.30498 0.37673 0)
(0.28327 0.385263 0)
(0.261241 0.395056 0)
(0.239502 0.406837 0)
(0.216865 0.417339 0)
(0.192969 0.423731 0)
(0.168784 0.429983 0)
(0.14393 0.435365 0)
(0.118262 0.440877 0)
(0.0915333 0.445385 0)
(0.0647331 0.451689 0)
(0.0379058 0.454707 0)
(0.0127722 0.460286 0)
(3 -2.90333e-17 0)
(3 2.44293e-17 0)
(3 1.72918e-16 0)
(3 6.29872e-16 0)
(3 7.45457e-16 0)
(3 6.60671e-16 0)
(3 4.62841e-16 0)
(3 2.61936e-16 0)
(3 8.25316e-17 0)
(3 -1.12543e-16 0)
(3 -2.43157e-16 0)
(3 -3.4792e-16 0)
(3 -4.21959e-16 0)
(3 -1.60438e-16 0)
(3 -3.01048e-17 0)
(3 1.04338e-16 0)
(3 2.59823e-16 0)
(3 3.1949e-16 0)
(3 1.91177e-16 0)
(3 4.96417e-17 0)
(3 -1.92731e-16 0)
(3 -5.36789e-16 0)
(3 -7.98415e-16 0)
(3 -8.88017e-16 0)
(3 -1.34134e-15 0)
(3 -2.11013e-15 0)
(3 -2.09057e-15 0)
(3 -1.88793e-15 0)
(3 -2.10048e-15 0)
(3 -2.60833e-15 0)
(3 -3.02107e-15 0)
(3 -2.53797e-15 0)
(3 -2.01338e-15 0)
(3 -1.55037e-15 0)
(3 -4.04271e-16 0)
(3 -9.85894e-18 0)
(3 -2.53923e-16 0)
(3 -1.34832e-16 0)
(3 6.55579e-16 0)
(3 1.21055e-15 0)
(3 1.12771e-15 0)
(3 8.9843e-16 0)
(3 5.82395e-16 0)
(3 -3.32302e-16 0)
(3 -9.65821e-16 0)
(3 -1.15594e-15 0)
(3 -1.03927e-15 0)
(3 -6.93933e-16 0)
(3 -3.33224e-16 0)
(3 -1.5424e-15 0)
(3 1.66551e-07 0)
(2.0755 0.28738 0)
(0.851984 0.291004 0)
(0.762834 0.292601 0)
(0.752902 0.292234 0)
(0.743245 0.293085 0)
(0.733065 0.292345 0)
(0.721496 0.291969 0)
(0.708341 0.293954 0)
(0.694019 0.299127 0)
(0.679279 0.306558 0)
(0.664117 0.312922 0)
(0.648582 0.315406 0)
(0.633137 0.314659 0)
(0.617803 0.313316 0)
(0.60288 0.31424 0)
(0.588733 0.317676 0)
(0.575066 0.322593 0)
(0.562043 0.329528 0)
(0.549319 0.337635 0)
(0.535799 0.344175 0)
(0.521301 0.348985 0)
(0.506759 0.354983 0)
(0.491949 0.362003 0)
(0.475677 0.367382 0)
(0.458806 0.371356 0)
(0.442746 0.376989 0)
(0.428051 0.384709 0)
(0.413634 0.391942 0)
(0.397893 0.397276 0)
(0.38026 0.402269 0)
(0.36107 0.409525 0)
(0.341067 0.41923 0)
(0.320706 0.430098 0)
(0.299391 0.440456 0)
(0.278188 0.451598 0)
(0.257128 0.464909 0)
(0.235552 0.477856 0)
(0.212123 0.486492 0)
(0.188095 0.49398 0)
(0.162718 0.501019 0)
(0.135594 0.509033 0)
(0.105998 0.516319 0)
(0.0751713 0.524164 0)
(0.0439729 0.527593 0)
(0.0145985 0.532708 0)
(3 2.01666e-16 0)
(3 3.01642e-16 0)
(3 4.62562e-16 0)
(3 5.15992e-16 0)
(3 4.87456e-16 0)
(3 4.78147e-16 0)
(3 2.38234e-16 0)
(3 1.98004e-16 0)
(3 2.2087e-16 0)
(3 -9.9569e-17 0)
(3 -3.55975e-16 0)
(3 -5.06064e-16 0)
(3 -6.38989e-16 0)
(3 -5.13803e-16 0)
(3 -4.86884e-16 0)
(3 -1.00407e-16 0)
(3 -1.56019e-16 0)
(3 -3.57415e-16 0)
(3 -6.70277e-16 0)
(3 -1.0188e-15 0)
(3 -1.37606e-15 0)
(3 -1.87089e-15 0)
(3 -2.04652e-15 0)
(3 -2.13653e-15 0)
(3 -2.0085e-15 0)
(3 -1.42695e-15 0)
(3 -6.24738e-16 0)
(3 -9.51117e-16 0)
(3 -1.66441e-15 0)
(3 -1.96894e-15 0)
(3 -1.92198e-15 0)
(3 -2.04792e-15 0)
(3 -1.39997e-15 0)
(3 -5.42687e-16 0)
(3 -9.56165e-17 0)
(3 7.06377e-17 0)
(3 2.81011e-16 0)
(3 7.44131e-16 0)
(3 8.6991e-16 0)
(3 9.73803e-16 0)
(3 7.59728e-16 0)
(3 6.52598e-17 0)
(3 -5.11976e-16 0)
(3 -8.52052e-16 0)
(3 -5.64252e-16 0)
(3 -2.9253e-16 0)
(3 -3.52641e-16 0)
(3 -5.14992e-16 0)
(3 -1.32919e-15 0)
(3 -1.73364e-15 0)
(3 -3.45838e-10 0)
(2.91179 0.0889717 0)
(1.05846 0.336184 0)
(0.801938 0.308953 0)
(0.788554 0.305872 0)
(0.77741 0.310356 0)
(0.766353 0.314046 0)
(0.75419 0.31729 0)
(0.74082 0.321678 0)
(0.726459 0.328345 0)
(0.711527 0.336401 0)
(0.695988 0.343319 0)
(0.679699 0.347264 0)
(0.662925 0.348627 0)
(0.645923 0.348632 0)
(0.629325 0.349527 0)
(0.613839 0.352447 0)
(0.599308 0.356305 0)
(0.585685 0.361772 0)
(0.572818 0.369429 0)
(0.559738 0.376662 0)
(0.545559 0.381801 0)
(0.531454 0.387742 0)
(0.51754 0.39589 0)
(0.503002 0.40427 0)
(0.487098 0.410706 0)
(0.471051 0.416659 0)
(0.455939 0.424502 0)
(0.441754 0.433473 0)
(0.426572 0.441929 0)
(0.409612 0.4499 0)
(0.390741 0.459485 0)
(0.37077 0.4713 0)
(0.350464 0.484737 0)
(0.329018 0.497829 0)
(0.30726 0.511386 0)
(0.285037 0.527256 0)
(0.262136 0.544209 0)
(0.236742 0.558176 0)
(0.209446 0.570259 0)
(0.180651 0.582095 0)
(0.150504 0.595546 0)
(0.118955 0.608344 0)
(0.0862533 0.618713 0)
(0.0525292 0.623352 0)
(0.0166182 0.626367 0)
(3 -2.19341e-17 0)
(3 -1.18088e-16 0)
(3 -3.21804e-16 0)
(3 -5.92909e-16 0)
(3 -5.92895e-16 0)
(3 -4.78229e-16 0)
(3 -4.54974e-16 0)
(3 -2.30887e-16 0)
(3 -1.23053e-17 0)
(3 7.45589e-18 0)
(3 1.1234e-16 0)
(3 2.29254e-16 0)
(3 3.88209e-16 0)
(3 5.76849e-16 0)
(3 5.77608e-16 0)
(3 -6.60973e-16 0)
(3 -1.04535e-15 0)
(3 -1.45773e-15 0)
(3 -1.47967e-15 0)
(3 -1.33709e-15 0)
(3 -9.56024e-16 0)
(3 -3.60638e-16 0)
(3 -4.57463e-16 0)
(3 -7.88814e-16 0)
(3 -8.80633e-16 0)
(3 -1.00466e-16 0)
(3 2.82192e-16 0)
(3 5.48661e-16 0)
(3 5.16725e-16 0)
(3 1.29027e-15 0)
(3 1.75306e-15 0)
(3 2.38278e-15 0)
(3 1.46026e-15 0)
(3 2.32939e-16 0)
(3 9.82174e-17 0)
(3 1.14549e-16 0)
(3 5.53528e-16 0)
(3 7.82822e-16 0)
(3 4.64278e-16 0)
(3 -1.60246e-16 0)
(3 -1.41474e-16 0)
(3 -1.82879e-16 0)
(3 -1.5071e-16 0)
(3 -2.18322e-16 0)
(3 -1.88671e-17 0)
(3 -1.07518e-17 0)
(3 -5.72991e-16 0)
(3 -1.13156e-15 0)
(3 -9.69886e-16 0)
(3 -4.22822e-16 0)
(3 -2.98921e-10 0)
(3.00677 0.00157878 0)
(1.5135 0.363723 0)
(0.836845 0.343104 0)
(0.797901 0.351502 0)
(0.781047 0.353508 0)
(0.767867 0.35384 0)
(0.756038 0.355837 0)
(0.744598 0.359657 0)
(0.733344 0.366093 0)
(0.721967 0.37415 0)
(0.71002 0.381912 0)
(0.696915 0.387704 0)
(0.682692 0.391261 0)
(0.667632 0.392729 0)
(0.65235 0.393362 0)
(0.637634 0.395006 0)
(0.623655 0.397515 0)
(0.610121 0.401036 0)
(0.597596 0.40732 0)
(0.584991 0.414556 0)
(0.571523 0.420269 0)
(0.557409 0.426159 0)
(0.543793 0.43482 0)
(0.530322 0.445574 0)
(0.516176 0.455705 0)
(0.500608 0.463329 0)
(0.485514 0.471677 0)
(0.47144 0.481654 0)
(0.457578 0.492798 0)
(0.442044 0.503798 0)
(0.424862 0.515924 0)
(0.406363 0.530028 0)
(0.387355 0.546167 0)
(0.367828 0.562706 0)
(0.347855 0.579813 0)
(0.327198 0.598871 0)
(0.306682 0.620205 0)
(0.284535 0.640399 0)
(0.260446 0.658281 0)
(0.23418 0.673448 0)
(0.206716 0.687914 0)
(0.176668 0.703829 0)
(0.140393 0.723464 0)
(0.0949653 0.746585 0)
(0.0364073 0.765953 0)
(3 -1.10155e-16 0)
(3 -2.47789e-16 0)
(3 -4.17207e-16 0)
(3 -4.15631e-16 0)
(3 -3.75113e-16 0)
(3 -4.34448e-16 0)
(3 -3.22809e-16 0)
(3 -1.07171e-16 0)
(3 -4.37935e-16 0)
(3 -6.89689e-16 0)
(3 -6.6677e-16 0)