/*--------------------------------*- C++ -*----------------------------------*\
  =========                 |
  \\      /  F ield         | OpenFOAM: The Open Source CFD Toolbox
   \\    /   O peration     | Website:  https://openfoam.org
    \\  /    A nd           | Version:  7
     \\/     M anipulation  |
\*---------------------------------------------------------------------------*/
FoamFile
{
    version     2.0;
    format      ascii;
    class       volScalarField;
    location    "0.12";
    object      T;
}
// * * * * * * * * * * * * * * * * * * * * * * * * * * * * * * * * * * * * * //

dimensions      [0 0 0 1 0 0 0];

internalField   nonuniform List<scalar> 
1000
(
0
0
0
0
0
0
0
0
0
0
0
0
0
0
0
0
0
0
0
0
0
0
0
0
0
0
0
0
0
0
0
0
0
0
0
0
0
0
0
0
0
0
0
0
0
0
0
0
0
0
0
0
0
0
0
0
0
0
0
0
0
0
0
0
0
0
0
0
0
0
0
0
0
0
0
0
0
0
0
0
0
0
0
0
0
0
0
0
0
0
0
0
0
0
0
0
0
0
0
0
0
0
0
0
0
0
0
0
0
0
0
0
0
0
0
0
0
0
0
0
0
0
0
0
0
0
0
0
0
0
0
0
0
0
0
0
0
0
0
0
0
0
0
0
0
0
0
0
0
0
0
0
0
0
0
0
0
0
0
0
0
0
0
0
0
0
0
0
0
0
0
0
0
0
0
0
0
0
0
0
0
0
0
0
0
0
0
0
0
0
0
0
0
0
0
0
0
0
0
0
0
0
0
0
0
0
0
0
0
0
0
0
0
0
0
0
0
0
0
0
0
0
0
0
0
0
0
0
0
0
0
0
0
0
0
0
0
0
0
0
0
0
0
0
0
0
0
0
0
0
0
0
0
0
0
0
0
0
0
0
0
0
0
0
0
0
0
0
0
0
0
0
0
0
0
0
0
0
0
0
0
0
0
0
0
0
0
0
0
0
0
0
0
0
0
0
0
0
0
0
0
0
0
0
0
0
0
0
0
0
0
0
0
0
0
0
0
0
0
0
0
0
0
0
0
0
0
0
0
0
0
0
0
0
0
0
0
0
0
0
0
0
0
0
0
0
0
0
0
0
0
0
0
0
0
0
0
0
0
0
0
0
0
0
0
0
0
0
0
0
0
0
0
0
0
0
0
0
0
0
0
0
0
0
0
0
0
0
0
0
0
0
0
0
0
0
0
0
0
0
0
0
0
0
0
0
0
0
0
0
0
0
0
0
0
0
0
0
0
0
0
0
0
0
0
0
0
0
0
0
0
0
0
0
0
0
0
0
4.59394e-10
-1.24036e-08
1.38584e-07
-7.87622e-07
2.02936e-06
7.86391e-07
-1.67464e-05
2.03075e-05
6.50115e-05
-0.000120481
-0.000215434
0.000352687
0.000717608
-0.000419768
-0.00185103
-0.00101627
0.00202157
0.00433723
0.00341463
-0.000919791
-0.00700851
-0.0124068
-0.0145151
-0.0109764
2.28585e-05
0.0195816
0.0480485
0.0850868
0.129801
0.180896
0.236836
0.295994
0.356771
0.417696
0.477478
0.535053
0.589589
0.640483
0.687345
0.729972
0.768316
0.802455
0.832566
0.858891
0.88172
0.901367
0.918156
0.932408
0.944429
0.95451
0.962917
0.969889
0.975644
0.980372
0.984237
0.987384
0.989936
0.991996
0.993655
0.994984
0.996046
0.996892
0.997563
0.998094
0.998513
0.998843
0.999101
0.999304
0.999462
0.999585
0.99968
0.999754
0.999812
0.999856
0.99989
0.999916
0.999936
0.999951
0.999963
0.999972
0.999979
0.999984
0.999988
0.999991
0.999993
0.999995
0.999996
0.999997
0.999998
0.999998
0.999999
0.999999
0.999999
1
1
1
1
1
1
1
1
1
1
1
0.999998
0.999999
1.00002
0.99998
0.999935
1.00012
1.00022
0.999647
0.999282
1.00042
1.00185
1.00102
0.997978
0.995663
0.996585
1.00092
1.00701
1.01241
1.01452
1.01098
0.999977
0.980418
0.951951
0.914913
0.870199
0.819104
0.763164
0.704006
0.643229
0.582304
0.522522
0.464947
0.410411
0.359517
0.312655
0.270028
0.231684
0.197545
0.167434
0.141109
0.11828
0.098633
0.0818438
0.0675923
0.0555707
0.0454898
0.0370835
0.0301106
0.0243556
0.0196285
0.0157631
0.012616
0.0100643
0.00800353
0.00634541
0.0050161
0.00395408
0.00310842
0.00243718
0.00190602
0.00148694
0.00115724
0.00089856
0.000696139
0.000538145
0.000415131
0.000319581
0.000245535
0.00018828
0.000144105
0.000110093
8.39597e-05
6.39188e-05
4.85797e-05
3.68611e-05
2.79247e-05
2.11218e-05
1.5952e-05
1.20297e-05
9.05872e-06
6.81188e-06
5.11527e-06
3.83607e-06
2.87299e-06
2.14894e-06
1.60535e-06
1.1978e-06
8.92638e-07
6.64443e-07
4.94017e-07
3.66892e-07
2.72181e-07
2.01701e-07
1.49315e-07
1.1042e-07
8.15741e-08
6.02042e-08
4.43893e-08
3.26977e-08
2.4063e-08
1.76922e-08
1.29965e-08
9.53863e-09
6.99471e-09
5.12488e-09
3.75177e-09
2.7443e-09
2.00575e-09
1.46481e-09
1.06892e-09
7.79432e-10
5.67918e-10
4.13498e-10
3.00847e-10
2.1873e-10
1.58915e-10
1.15379e-10
8.37122e-11
6.06964e-11
4.39797e-11
3.18464e-11
2.30459e-11
1.66668e-11
1.20461e-11
8.70111e-12
6.28123e-12
4.53167e-12
3.26754e-12
2.3547e-12
1.69592e-12
1.22077e-12
8.78265e-13
6.31515e-13
4.53849e-13
3.25996e-13
2.34039e-13
1.67936e-13
1.20443e-13
8.63386e-14
6.18609e-14
4.43015e-14
3.17114e-14
2.26886e-14
1.62256e-14
1.15983e-14
8.28694e-15
5.91835e-15
4.2249e-15
3.0147e-15
2.15024e-15
1.53302e-15
1.09251e-15
7.78264e-16
5.5418e-16
3.94458e-16
2.80659e-16
1.99613e-16
1.41915e-16
1.00856e-16
7.16497e-17
5.0882e-17
3.61205e-17
2.56321e-17
1.81828e-17
1.28938e-17
9.14007e-18
6.4769e-18
4.58813e-18
3.24906e-18
2.30003e-18
1.62766e-18
1.15147e-18
8.14331e-19
5.75718e-19
4.06894e-19
2.87485e-19
2.03056e-19
1.43378e-19
1.01208e-19
7.14201e-20
5.03843e-20
3.55339e-20
2.50532e-20
1.76587e-20
1.24432e-20
8.76556e-21
6.17316e-21
4.34626e-21
3.05918e-21
2.15266e-21
1.51437e-21
1.06505e-21
7.48853e-22
5.26392e-22
3.69922e-22
2.59896e-22
1.82549e-22
1.28189e-22
8.99944e-23
6.31645e-23
4.43226e-23
3.10937e-23
2.1808e-23
1.52918e-23
1.07201e-23
7.5134e-24
5.26473e-24
3.68822e-24
2.58321e-24
1.80886e-24
1.26635e-24
8.86356e-25
6.20252e-25
4.33945e-25
3.03535e-25
2.12271e-25
1.48416e-25
1.03748e-25
7.25091e-26
5.06658e-26
3.53956e-26
2.47227e-26
1.72646e-26
1.2054e-26
8.4144e-27
5.87259e-27
4.09781e-27
2.85886e-27
1.99411e-27
1.39068e-27
9.69666e-28
6.75986e-28
4.71166e-28
3.28346e-28
2.28776e-28
1.59373e-28
1.11004e-28
7.73015e-29
5.38222e-29
3.74679e-29
2.60786e-29
1.81482e-29
1.26273e-29
8.78447e-30
6.1101e-30
4.24922e-30
2.9546e-30
2.05409e-30
1.4278e-30
9.92314e-31
6.89542e-31
4.79076e-31
3.32797e-31
2.31147e-31
1.6052e-31
1.11457e-31
7.73777e-32
5.37107e-32
3.7277e-32
2.58676e-32
1.79477e-32
1.24508e-32
8.63621e-33
5.98945e-33
4.15325e-33
2.87958e-33
1.99622e-33
1.38365e-33
9.58925e-34
6.64482e-34
4.60387e-34
3.18936e-34
2.20915e-34
1.52999e-34
1.05949e-34
7.33575e-35
5.07851e-35
3.51538e-35
2.43306e-35
1.68374e-35
1.16505e-35
8.06044e-36
5.57594e-36
3.85676e-36
2.66731e-36
1.84447e-36
1.27531e-36
8.81676e-37
6.09465e-37
4.21247e-37
2.9112e-37
2.01167e-37
1.38992e-37
9.60227e-38
6.63295e-38
4.58131e-38
3.1639e-38
2.18477e-38
1.50848e-38
1.04142e-38
7.18893e-39
4.96197e-39
3.42449e-39
2.36314e-39
1.63056e-39
1.12496e-39
7.76051e-40
5.353e-40
3.69198e-40
2.54609e-40
1.75568e-40
1.21051e-40
8.34544e-41
5.75287e-41
3.9653e-41
2.73289e-41
1.88333e-41
1.29773e-41
8.94134e-42
6.15993e-42
4.24333e-42
2.92277e-42
2.01299e-42
1.38626e-42
9.54569e-43
6.57247e-43
4.52489e-43
3.11492e-43
2.1441e-43
1.47571e-43
1.01559e-43
6.9887e-44
4.80877e-44
3.3085e-44
2.27609e-44
1.5657e-44
1.07694e-44
7.40681e-45
5.09372e-45
3.50268e-45
2.40839e-45
1.65583e-45
1.13833e-45
7.82496e-46
5.37848e-46
3.69658e-46
2.54041e-46
1.7457e-46
1.1995e-46
8.24129e-47
5.66179e-47
3.88934e-47
2.67155e-47
1.83491e-47
1.26018e-47
8.65394e-48
5.94239e-48
4.08012e-48
2.80125e-48
1.92307e-48
1.32009e-48
9.06109e-49
6.21903e-49
4.26807e-49
2.92892e-49
2.00978e-49
1.37898e-49
9.46096e-50
6.49052e-50
4.45236e-50
3.05401e-50
2.09468e-50
1.43659e-50
9.8518e-51
6.75565e-51
4.6322e-51
3.17597e-51
2.17738e-51
1.49266e-51
1.02319e-51
7.01332e-52
4.80683e-52
3.2943e-52
2.25755e-52
1.54697e-52
1.05998e-52
7.26243e-53
4.9755e-53
3.4085e-53
2.33485e-53
1.59929e-53
1.09538e-53
7.50196e-54
5.13755e-54
3.5181e-54
2.40897e-54
1.64941e-54
1.12926e-54
7.73098e-55
5.29232e-55
3.62268e-55
2.47962e-55
1.69713e-55
1.16149e-55
7.94859e-56
5.43922e-56
3.72183e-56
2.54654e-56
1.74228e-56
1.19195e-56
8.15399e-57
5.57773e-57
3.81521e-57
2.60948e-57
1.78469e-57
1.22052e-57
8.34647e-58
5.70735e-58
3.90248e-58
2.66822e-58
1.82422e-58
1.24712e-58
8.52538e-59
5.82767e-59
3.98337e-59
2.72259e-59
1.86075e-59
1.27166e-59
8.69018e-60
5.93831e-60
4.05763e-60
2.77241e-60
1.89417e-60
1.29407e-60
8.84039e-61
6.03896e-61
4.12505e-61
2.81756e-61
1.92439e-61
1.31429e-61
8.97564e-62
6.12939e-62
4.18548e-62
2.85793e-62
1.95135e-62
1.33228e-62
9.09563e-63
6.20939e-63
4.23879e-63
2.89343e-63
1.97498e-63
1.348e-63
9.20016e-64
6.27883e-64
4.2849e-64
2.92402e-64
1.99547e-64
1.34587e-64
)
;

boundaryField
{
    sides
    {
        type            zeroGradient;
    }
    empty
    {
        type            empty;
    }
}


// ************************************************************************* //
