/*--------------------------------*- C++ -*----------------------------------*\
  =========                 |
  \\      /  F ield         | OpenFOAM: The Open Source CFD Toolbox
   \\    /   O peration     | Website:  https://openfoam.org
    \\  /    A nd           | Version:  7
     \\/     M anipulation  |
\*---------------------------------------------------------------------------*/
FoamFile
{
    version     2.0;
    format      ascii;
    class       volScalarField;
    location    "6.8";
    object      p;
}
// * * * * * * * * * * * * * * * * * * * * * * * * * * * * * * * * * * * * * //

dimensions      [1 -1 -2 0 0 0 0];

internalField   nonuniform List<scalar> 
19968
(
1
1
1
1
1
1
1
1
1
1
1
1
1
1
1
1
1
1
1
1
1
1
1
1
1
1
1
1
1
1
1
1
1
1
1
1
1
1
1
1
1
1
1
1
1
1
1
1
1.55695
8.05202
10.4314
10.4624
10.5193
10.5759
10.6341
10.6923
10.7499
10.8056
10.8594
10.9127
10.9656
11.0188
11.0729
11.1258
11.1738
11.2151
11.2528
11.2914
11.3337
11.3801
11.4285
11.4749
11.5172
11.5556
11.5921
11.6282
11.6641
11.6987
11.731
11.7609
11.789
11.8158
11.8412
11.8648
11.8868
11.9075
11.9272
11.9458
11.9628
11.9785
11.9935
12.0084
12.0233
12.037
12.0479
12.0555
1
1
1
1
1
1
1
1
1
1
1
1
1
1
1
1
1
1
1
1
1
1
1
1
1
1
1
1
1
1
1
1
1
1
1
1
1
1
1
1
1
1
1
1
1
1
1
1
1.52603
7.98414
10.4218
10.4596
10.5183
10.5748
10.6324
10.6901
10.7476
10.8029
10.8561
10.9089
10.9613
11.0147
11.0689
11.122
11.17
11.2115
11.2493
11.2879
11.3302
11.3764
11.4246
11.4709
11.513
11.5512
11.5876
11.6238
11.6599
11.6948
11.7273
11.7573
11.7851
11.8114
11.8363
11.8597
11.8816
11.9025
11.9222
11.9406
11.9574
11.9727
11.9874
12.0019
12.0165
12.0298
12.0402
12.0476
1
1
1
1
1
1
1
1
1
1
1
1
1
1
1
1
1
1
1
1
1
1
1
1
1
1
1
1
1
1
1
1
1
1
1
1
1
1
1
1
1
1
1
1
1
1
1
1
1.45592
7.83847
10.4134
10.4512
10.5109
10.5667
10.6245
10.6822
10.7398
10.7951
10.8478
10.9001
10.952
11.0057
11.0603
11.1136
11.1619
11.2037
11.2418
11.2805
11.3225
11.3685
11.4165
11.4627
11.5047
11.5428
11.579
11.6152
11.6515
11.6869
11.7199
11.7499
11.7773
11.8029
11.8272
11.8504
11.8726
11.8938
11.9137
11.9319
11.9484
11.9635
11.9779
11.9923
12.0065
12.0193
12.0291
12.036
1
1
1
1
1
1
1
1
1
1
1
1
1
1
1
1
1
1
1
1
1
1
1
1
1
1
1
1
1
1
1
1
1
1
1
1
1
1
1
1
1
1
1
1
1
1
1
1
1.35758
7.60005
10.4016
10.4446
10.5024
10.5574
10.6148
10.6721
10.7294
10.7844
10.8366
10.8884
10.9399
10.9938
11.0489
11.1024
11.151
11.1932
11.2316
11.2703
11.3119
11.3574
11.405
11.4508
11.4925
11.5304
11.5665
11.6027
11.6394
11.6754
11.7088
11.7388
11.7656
11.7901
11.8135
11.8361
11.8582
11.8794
11.8991
11.9169
11.9328
11.9474
11.9615
11.9757
11.9898
12.0024
12.0119
12.0186
1
1
1
1
1
1
1
1
1
1
1
1
1
1
1
1
1
1
1
1
1
1
1
1
1
1
1
1
1
1
1
1
1
1
1
1
1
1
1
1
1
1
1
1
1
1
1
1
1.23493
7.27735
10.388
10.4341
10.4921
10.5476
10.6051
10.6625
10.7191
10.7732
10.8242
10.875
10.9254
10.9791
11.0343
11.0878
11.1368
11.1795
11.2187
11.2575
11.2988
11.3437
11.3907
11.436
11.4774
11.5151
11.5511
11.5875
11.6246
11.6612
11.6952
11.7253
11.7516
11.7752
11.7977
11.82
11.842
11.8632
11.8826
11.8995
11.9139
11.9269
11.9394
11.9522
11.9649
11.9764
11.9851
11.9913
1
1
1
1
1
1
1
1
1
1
1
1
1
1
1
1
1
1
1
1
1
1
1
1
1
1
1
1
1
1
1
1
1
1
1
1
1
1
1
1
1
1
1
1
1
1
1
1
1.02904
6.75998
10.3844
10.4349
10.4862
10.544
10.6005
10.6574
10.7131
10.7661
10.8159
10.865
10.9138
10.966
11.0205
11.0732
11.1219
11.1646
11.2038
11.2422
11.2824
11.3259
11.3711
11.415
11.455
11.4915
11.5267
11.5625
11.5995
11.6361
11.6702
11.7001
11.7257
11.7485
11.7701
11.792
11.8143
11.8361
11.8559
11.8728
11.8869
11.8992
11.911
11.923
11.9351
11.9462
11.9545
11.9607
1
1
1
1
1
1
1
1
1
1
1
1
1
1
1
1
1
1
1
1
1
1
1
1
1
1
1
1
1
1
1
1
1
1
1
1
1
1
1
1
1
1
1
1
1
1
1
1
1.00024
6.02915
10.2999
10.3885
10.4397
10.5039
10.5615
10.6198
10.676
10.7292
10.7795
10.8285
10.8772
10.9291
10.9838
11.0367
11.0857
11.1288
11.1686
11.2073
11.2471
11.2896
11.3336
11.3763
11.4155
11.4516
11.4866
11.5226
11.5599
11.5971
11.6316
11.6617
11.6872
11.7095
11.7308
11.7526
11.7754
11.7981
11.8186
11.8357
11.8493
11.8605
11.8711
11.8819
11.893
11.9035
11.9116
11.9176
1
1
1
1
1
1
1
1
1
1
1
1
1
1
1
1
1
1
1
1
1
1
1
1
1
1
1
1
1
1
1
1
1
1
1
1
1
1
1
1
1
1
1
1
1
1
1
1
1
5.07962
10.1577
10.3588
10.4111
10.4799
10.5386
10.5972
10.6523
10.7044
10.7538
10.8019
10.8494
10.8997
10.9535
11.0057
11.0544
11.0975
11.1376
11.1761
11.2149
11.2557
11.2977
11.3384
11.3759
11.4108
11.445
11.4803
11.5172
11.5542
11.5886
11.6183
11.6432
11.6647
11.6852
11.7066
11.7294
11.7525
11.7734
11.7904
11.8033
11.8132
11.8222
11.8314
11.8411
11.8507
11.8583
11.864
1
1
1
1
1
1
1
1
1
1
1
1
1
1
1
1
1
1
1
1
1
1
1
1
1
1
1
1
1
1
1
1
1
1
1
1
1
1
1
1
1
1
1
1
1
1
1
1
1
3.99797
9.86053
10.3251
10.3795
10.4498
10.5091
10.5676
10.622
10.6737
10.7229
10.7705
10.8177
10.8666
10.9187
10.9697
11.0168
11.0588
11.0977
11.1348
11.1715
11.2098
11.2489
11.287
11.3221
11.3551
11.3881
11.4225
11.4588
11.4952
11.5291
11.5582
11.5824
11.603
11.6226
11.6432
11.6658
11.6892
11.7106
11.7278
11.7405
11.7498
11.7577
11.7658
11.7743
11.7832
11.7902
11.7953
1
1
1
1
1
1
1
1
1
1
1
1
1
1
1
1
1
1
1
1
1
1
1
1
1
1
1
1
1
1
1
1
1
1
1
1
1
1
1
1
1
1
1
1
1
1
1
1
1
2.87258
9.30226
10.3048
10.3729
10.4398
10.4953
10.5483
10.598
10.6467
10.6936
10.7394
10.7857
10.8332
10.8834
10.9325
10.9777
11.0181
11.0554
11.091
11.1254
11.161
11.1968
11.2313
11.2628
11.2925
11.3226
11.3548
11.3889
11.4232
11.4552
11.4827
11.5055
11.5252
11.544
11.5643
11.5868
11.6102
11.6318
11.6487
11.6604
11.6683
11.6746
11.6809
11.6877
11.6951
11.7007
11.7045
1
1
1
1
1
1
1
1
1
1
1
1
1
1
1
1
1
1
1
1
1
1
1
1
1
1
1
1
1
1
1
1
1
1
1
1
1
1
1
1
1
1
1
1
1
1
1
1
1
1.82082
8.34938
10.3527
10.34
10.4051
10.4538
10.5042
10.5535
10.6025
10.65
10.6958
10.7417
10.7887
10.8379
10.8865
10.9312
10.9705
11.0059
11.04
11.0731
11.1071
11.1406
11.1719
11.2003
11.2267
11.2539
11.2833
11.3145
11.3455
11.3735
11.3971
11.4162
11.4325
11.448
11.4651
11.4845
11.5051
11.5244
11.5398
11.5505
11.5577
11.5637
11.5697
11.5762
11.5831
11.5879
11.5911
1
1
1
1
1
1
1
1
1
1
1
1
1
1
1
1
1
1
1
1
1
1
1
1
1
1
1
1
1
1
1
1
1
1
1
1
1
1
1
1
1
1
1
1
1
1
1
1
1
1.03147
6.70106
10.3518
10.3604
10.4005
10.4422
10.4861
10.5299
10.5731
10.6156
10.6574
10.6994
10.7433
10.788
10.8319
10.8723
10.9078
10.9394
10.9704
11.0007
11.0318
11.0627
11.0907
11.1158
11.1385
11.1621
11.1883
11.2166
11.2445
11.2692
11.2892
11.3052
11.3188
11.3322
11.3471
11.3645
11.3831
11.4003
11.413
11.4204
11.4234
11.4242
11.4243
11.4248
11.4265
11.4283
11.43
1
1
1
1
1
1
1
1
1
1
1
1
1
1
1
1
1
1
1
1
1
1
1
1
1
1
1
1
1
1
1
1
1
1
1
1
1
1
1
1
1
1
1
1
1
1
1
1
1
1.00005
4.60356
9.92668
10.1972
10.2604
10.3226
10.3775
10.4275
10.4731
10.5159
10.5573
10.5979
10.64
10.6833
10.7259
10.7657
10.8013
10.832
10.8614
10.8909
10.921
10.9518
10.9794
11.0029
11.0231
11.0434
11.0664
11.0921
11.1171
11.1384
11.1541
11.165
11.1733
11.1812
11.19
11.2006
11.2118
11.2209
11.2254
11.2256
11.2232
11.2203
11.2191
11.2193
11.2218
11.2237
11.226
1
1
1
1
1
1
1
1
1
1
1
1
1
1
1
1
1
1
1
1
1
1
1
1
1
1
1
1
1
1
1
1
1
1
1
1
1
1
1
1
1
1
1
1
1
1
1
1
1
1
2.39094
8.80365
10.143
10.1937
10.2699
10.3271
10.3759
10.4186
10.458
10.4962
10.5338
10.572
10.6117
10.6507
10.6871
10.7199
10.7473
10.7716
10.7963
10.8218
10.8487
10.8734
10.8929
10.9078
10.9214
10.9375
10.9568
10.9765
10.9923
11.0014
11.0048
11.0046
11.0032
11.0036
11.0068
11.0112
11.0142
11.0138
11.0087
10.9992
10.9857
10.9696
10.9482
10.924
10.899
10.8776
1
1
1
1
1
1
1
1
1
1
1
1
1
1
1
1
1
1
1
1
1
1
1
1
1
1
1
1
1
1
1
1
1
1
1
1
1
1
1
1
1
1
1
1
1
1
1
1
1
1
1.05864
6.40179
10.2226
10.2346
10.2594
10.2917
10.3232
10.3544
10.3848
10.4157
10.4472
10.4796
10.5142
10.5491
10.5811
10.6098
10.6339
10.6535
10.6727
10.6925
10.7134
10.7339
10.7494
10.7592
10.7656
10.7728
10.7836
10.7966
10.8068
10.8105
10.8054
10.7937
10.7786
10.7642
10.7522
10.7404
10.7244
10.7008
10.667
10.6233
10.5726
10.5193
10.4728
10.4315
10.4093
10.3983
1
1
1
1
1
1
1
1
1
1
1
1
1
1
1
1
1
1
1
1
1
1
1
1
1
1
1
1
1
1
1
1
1
1
1
1
1
1
1
1
1
1
1
1
1
1
1
1
1
1
1.00008
3.30804
9.28528
10.0467
10.1028
10.1543
10.1971
10.2356
10.2692
10.2992
10.3282
10.3592
10.393
10.428
10.4606
10.4888
10.5115
10.5281
10.541
10.5536
10.567
10.5813
10.5927
10.5979
10.5948
10.5891
10.5858
10.5868
10.5892
10.5861
10.5724
10.5476
10.5144
10.478
10.4421
10.4061
10.3661
10.3183
10.2604
10.1932
10.119
10.0409
9.9493
9.86094
9.74104
9.83015
1
1
1
1
1
1
1
1
1
1
1
1
1
1
1
1
1
1
1
1
1
1
1
1
1
1
1
1
1
1
1
1
1
1
1
1
1
1
1
1
1
1
1
1
1
1
1
1
1
1
1
1.25144
7.36166
10.0779
10.0631
10.0895
10.1261
10.1623
10.194
10.22
10.2428
10.2667
10.294
10.3241
10.3539
10.3792
10.3983
10.4107
10.4178
10.423
10.4287
10.4353
10.4417
10.4422
10.4329
10.416
10.3979
10.3842
10.3747
10.3626
10.3411
10.3054
10.2558
10.1969
10.1335
10.067
9.99324
9.90637
9.79599
9.65529
9.46467
9.20899
8.82865
8.26747
7.33805
5.45443
1
1
1
1
1
1
1
1
1
1
1
1
1
1
1
1
1
1
1
1
1
1
1
1
1
1
1
1
1
1
1
1
1
1
1
1
1
1
1
1
1
1
1
1
1
1
1
1
1
1
1
1.00218
4.65158
9.57709
9.92237
9.9734
10.0293
10.0729
10.1037
10.123
10.1405
10.1597
10.183
10.2102
10.238
10.2628
10.2821
10.2945
10.3005
10.3008
10.2998
10.2999
10.3008
10.299
10.2875
10.2655
10.2373
10.2094
10.1852
10.161
10.1301
10.0855
10.0238
9.94667
9.85786
9.76157
9.65263
9.52731
9.36687
9.16396
8.88309
8.51852
7.99699
7.34591
6.09913
4.49542
1
1
1
1
1
1
1
1
1
1
1
1
1
1
1
1
1
1
1
1
1
1
1
1
1
1
1
1
1
1
1
1
1
1
1
1
1
1
1
1
1
1
1
1
1
1
1
1
1
1
1
0.999995
1.94349
8.17011
9.89117
9.90128
9.96506
10.0085
10.0384
10.054
10.0687
10.0835
10.1006
10.1216
10.1441
10.1647
10.1807
10.1902
10.192
10.1876
10.1801
10.1717
10.1632
10.154
10.138
10.1127
10.0786
10.0395
9.9996
9.9596
9.9148
9.85846
9.78413
9.69125
9.57963
9.45573
9.31343
9.15159
8.95214
8.70251
8.37801
7.95335
7.41648
6.6489
5.63189
4.523
1
1
1
1
1
1
1
1
1
1
1
1
1
1
1
1
1
1
1
1
1
1
1
1
1
1
1
1
1
1
1
1
1
1
1
1
1
1
1
1
1
1
1
1
1
1
1
1
1
1
1
0.999999
1.03314
5.37475
9.73216
9.84166
9.87682
9.91101
9.93911
9.95906
9.97911
9.99748
10.0119
10.0268
10.0433
10.0596
10.0719
10.0769
10.0747
10.0666
10.0545
10.039
10.0216
10.0024
9.97878
9.94908
9.91147
9.86639
9.81538
9.76109
9.70109
9.63125
9.54377
9.43771
9.30935
9.1635
8.99514
8.80277
8.57618
8.30106
7.96285
7.53161
7.01125
6.32235
5.54936
4.73804
1
1
1
1
1
1
1
1
1
1
1
1
1
1
1
1
1
1
1
1
1
1
1
1
1
1
1
1
1
1
1
1
1
1
1
1
1
1
1
1
1
1
1
1
1
1
1
1
1
1
1
1
1.00001
2.15858
8.38525
9.85869
9.81624
9.84556
9.87031
9.88675
9.90135
9.91677
9.92716
9.93677
9.94648
9.95671
9.96206
9.96082
9.95328
9.9411
9.92597
9.90749
9.88512
9.85744
9.82437
9.78666
9.74289
9.69291
9.63488
9.57052
9.49724
9.41327
9.31254
9.19483
9.05622
8.8974
8.71433
8.50356
8.26064
7.97522
7.64111
7.23134
6.76165
6.19995
5.58525
4.95138
1
1
1
1
1
1
1
1
1
1
1
1
1
1
1
1
1
1
1
1
1
1
1
1
1
1
1
1
1
1
1
1
1
1
1
1
1
1
1
1
1
1
1
1
1
1
1
1
1
1
1
1
1
1.04369
5.41237
9.6908
9.75037
9.78009
9.7955
9.80988
9.82326
9.83649
9.84338
9.84739
9.8497
9.85408
9.85351
9.84675
9.83418
9.81596
9.79454
9.7716
9.74548
9.71335
9.67381
9.62837
9.57707
9.52167
9.45858
9.38727
9.30352
9.20669
9.09381
8.96595
8.82093
8.65668
8.4693
8.25336
8.00718
7.72131
7.40158
7.02311
6.61247
6.15078
5.64773
5.1354
1
1
1
1
1
1
1
1
1
1
1
1
1
1
1
1
1
1
1
1
1
1
1
1
1
1
1
1
1
1
1
1
1
1
1
1
1
1
1
1
1
1
1
1
1
1
1
1
1
1
1
1
1
1.00004
2.01152
8.17592
9.7381
9.7103
9.72174
9.72766
9.73527
9.74279
9.74714
9.74666
9.74392
9.74406
9.73837
9.72569
9.71001
9.68751
9.65947
9.63106
9.60099
9.56624
9.52341
9.47267
9.41496
9.35432
9.28752
9.21168
9.12093
9.01461
8.89236
8.75618
8.60587
8.44009
8.25555
8.04578
7.81039
7.5332
7.23524
6.88798
6.52789
6.13425
5.70966
5.28118
1
1
1
1
1
1
1
1
1
1
1
1
1
1
1
1
1
1
1
1
1
1
1
1
1
1
1
1
1
1
1
1
1
1
1
1
1
1
1
1
1
1
1
1
1
1
1
1
1
1
1
1
1
1
1.0319
4.86478
9.43181
9.61775
9.62925
9.6379
9.65491
9.66411
9.66874
9.66419
9.65625
9.65147
9.641
9.62336
9.60336
9.57596
9.53971
9.50255
9.46428
9.42408
9.37748
9.32302
9.26159
9.19727
9.12715
9.04694
8.95106
8.83913
8.71212
8.57128
8.41699
8.24959
8.06804
7.86735
7.6471
7.39055
7.11784
6.80549
6.48568
6.14184
5.77052
5.39972
1
1
1
1
1
1
1
1
1
1
1
1
1
1
1
1
1
1
1
1
1
1
1
1
1
1
1
1
1
1
1
1
1
1
1
1
1
1
1
1
1
1
1
1
1
1
1
1
1
1
1
1
1
1
1.00002
1.52837
7.59422
9.67276
9.61323
9.59308
9.58382
9.57855
9.57432
9.56376
9.55108
9.54156
9.52753
9.50723
9.48458
9.45665
9.41738
9.37557
9.33061
9.28519
9.23522
9.17828
9.11439
9.04687
8.97307
8.88889
8.78982
8.67561
8.54839
8.40798
8.25412
8.08721
7.90984
7.71523
7.5081
7.27647
7.02881
6.75516
6.46928
6.16213
5.8326
5.50358
1
1
1
1
1
1
1
1
1
1
1
1
1
1
1
1
1
1
1
1
1
1
1
1
1
1
1
1
1
1
1
1
1
1
1
1
1
1
1
1
1
1
1
1
1
1
1
1
1
1
1
1
1
1
1
1.00823
3.87665
9.01092
9.41124
9.44207
9.4635
9.46533
9.46199
9.45253
9.43836
9.42591
9.40873
9.38715
9.36418
9.33745
9.29921
9.25669
9.20629
9.15468
9.10025
9.04088
8.97509
8.90506
8.82721
8.73921
8.63795
8.5234
8.39911
8.26361
8.11545
7.95281
7.78191
7.58902
7.39123
7.17864
6.95502
6.7167
6.45725
6.18373
5.89497
5.59794
1
1
1
1
1
1
1
1
1
1
1
1
1
1
1
1
1
1
1
1
1
1
1
1
1
1
1
1
1
1
1
1
1
1
1
1
1
1
1
1
1
1
1
1
1
1
1
1
1
1
1
1
1
1
1
1
1.21724
6.27665
9.37376
9.39861
9.38348
9.37158
9.36733
9.35775
9.34307
9.32737
9.3061
9.27955
9.25351
9.22571
9.18968
9.14843
9.09557
9.03986
8.9814
8.9159
8.84734
8.77395
8.69191
8.60115
8.49878
8.38409
8.26241
8.13191
7.99253
7.83685
7.67524
7.48858
7.30005
7.10157
6.89591
6.67888
6.44115
6.20113
5.94773
5.67569
1
1
1
1
1
1
1
1
1
1
1
1
1
1
1
1
1
1
1
1
1
1
1
1
1
1
1
1
1
1
1
1
1
1
1
1
1
1
1
1
1
1
1
1
1
1
1
1
1
1
1
1
1
1
1
1
1.00143
2.17941
8.01955
9.30772
9.25933
9.26556
9.2624
9.25773
9.24579
9.22967
9.20843
9.17849
9.1483
9.11698
9.08064
9.03958
8.98685
8.93042
8.86974
8.79978
8.7267
8.65084
8.56537
8.47396
8.3715
8.25756
8.13687
8.01028
7.88255
7.7328
7.5808
7.40709
7.2291
7.04253
6.84923
6.64451
6.42882
6.21524
5.98605
5.74027
1
1
1
1
1
1
1
1
1
1
1
1
1
1
1
1
1
1
1
1
1
1
1
1
1
1
1
1
1
1
1
1
1
1
1
1
1
1
1
1
1
1
1
1
1
1
1
1
1
1
1
1
1
1
1
1
1
1.03944
4.17065
8.88367
9.16954
9.18083
9.18138
9.17468
9.16015
9.1425
9.12173
9.08974
9.05522
9.0193
8.97926
8.93479
8.8814
8.82328
8.76401
8.69261
8.61725
8.53896
8.4551
8.36303
8.26178
8.15089
8.03118
7.90793
7.78239
7.64073
7.49648
7.33597
7.16987
6.99408
6.81206
6.61952
6.42466
6.22533
6.01466
5.79562
1
1
1
1
1
1
1
1
1
1
1
1
1
1
1
1
1
1
1
1
1
1
1
1
1
1
1
1
1
1
1
1
1
1
1
1
1
1
1
1
1
1
1
1
1
1
1
1
1
1
1
1
1
1
1
1
1
1.00008
1.25671
5.72844
8.99496
9.15379
9.14362
9.12882
9.10417
9.07527
9.0478
9.01266
8.97261
8.93089
8.88562
8.83625
8.77997
8.71928
8.66188
8.59268
8.51802
8.43832
8.35441
8.26346
8.16429
8.05574
7.94109
7.81886
7.69235
7.55872
7.41936
7.27018
7.11471
6.94973
6.77928
6.60094
6.42464
6.23568
6.04296
5.84579
1
1
1
1
1
1
1
1
1
1
1
1
1
1
1
1
1
1
1
1
1
1
1
1
1
1
1
1
1
1
1
1
1
1
1
1
1
1
1
1
1
1
1
1
1
1
1
1
1
1
1
1
1
1
1
1
1
1
1.00207
1.62779
7.22999
9.15277
9.11318
9.07467
9.02472
8.98154
8.94468
8.91008
8.87258
8.83119
8.7874
8.73852
8.68156
8.62
8.56229
8.49724
8.42393
8.34547
8.26208
8.17448
8.0775
7.97389
7.86266
7.74494
7.62159
7.49239
7.35591
7.21423
7.06526
6.90956
6.74891
6.58416
6.4215
6.24522
6.0691
5.88917
1
1
1
1
1
1
1
1
1
1
1
1
1
1
1
1
1
1
1
1
1
1
1
1
1
1
1
1
1
1
1
1
1
1
1
1
1
1
1
1
1
1
1
1
1
1
1
1
1
1
1
1
1
1
1
1
1
1
1
1.01133
3.0286
8.30443
8.95621
8.89558
8.86691
8.84264
8.8213
8.79683
8.76814
8.73195
8.68952
8.64421
8.58922
8.52884
8.47243
8.409
8.33813
8.26149
8.17921
8.09082
7.99696
7.89763
7.79118
7.67899
7.56009
7.43525
7.30288
7.16672
7.02341
6.87536
6.72274
6.5687
6.41599
6.25362
6.09143
5.926
1
1
1
1
1
1
1
1
1
1
1
1
1
1
1
1
1
1
1
1
1
1
1
1
1
1
1
1
1
1
1
1
1
1
1
1
1
1
1
1
1
1
1
1
1
1
1
1
1
1
1
1
1
1
1
1
1
1
1
1.00002
1.10791
4.3571
8.59732
8.79491
8.77047
8.77234
8.75818
8.73394
8.70311
8.66526
8.62109
8.57541
8.52188
8.46203
8.40303
8.33664
8.26405
8.18671
8.10371
8.01595
7.92278
7.82684
7.72598
7.61881
7.50511
7.3855
7.25898
7.12828
6.99161
6.85073
6.70503
6.55727
6.41091
6.26042
6.10976
5.95586
1
1
1
1
1
1
1
1
1
1
1
1
1
1
1
1
1
1
1
1
1
1
1
1
1
1
1
1
1
1
1
1
1
1
1
1
1
1
1
1
1
1
1
1
1
1
1
1
1
1
1
1
1
1
1
1
1
1
1
1
1.0005
1.2936
5.17725
8.58959
8.72045
8.72169
8.71061
8.684
8.64938
8.60765
8.56035
8.511
8.45617
8.39698
8.33489
8.26657
8.19297
8.11487
8.03138
7.94365
7.85322
7.75917
7.66143
7.55874
7.45032
7.33634
7.21626
7.09159
6.96251
6.8291
6.69064
6.54922
6.40877
6.26772
6.12674
5.98092
1
1
1
1
1
1
1
1
1
1
1
1
1
1
1
1
1
1
1
1
1
1
1
1
1
1
1
1
1
1
1
1
1
1
1
1
1
1
1
1
1
1
1
1
1
1
1
1
1
1
1
1
1
1
1
1
1
1
1
1
1
1.00282
1.48812
5.8601
8.58958
8.69585
8.66681
8.63568
8.59847
8.55274
8.50346
8.453
8.39805
8.33831
8.27421
8.20471
8.13034
8.0514
7.96774
7.88085
7.79268
7.70173
7.60615
7.50534
7.4003
7.29123
7.17698
7.05814
6.93559
6.80836
6.67648
6.54272
6.40916
6.27592
6.14333
6.0042
1
1
1
1
1
1
1
1
1
1
1
1
1
1
1
1
1
1
1
1
1
1
1
1
1
1
1
1
1
1
1
1
1
1
1
1
1
1
1
1
1
1
1
1
1
1
1
1
1
1
1
1
1
1
1
1
1
1
1
1
1
1
1.00715
1.71473
6.44315
8.56398
8.61471
8.5865
8.54447
8.49887
8.44791
8.39524
8.33786
8.27639
8.21077
8.14069
8.06677
7.98892
7.90719
7.82282
7.73677
7.64832
7.55578
7.45724
7.3544
7.24903
7.1394
7.02586
6.9084
6.78642
6.66174
6.53718
6.41111
6.2846
6.15857
6.02619
1
1
1
1
1
1
1
1
1
1
1
1
1
1
1
1
1
1
1
1
1
1
1
1
1
1
1
1
1
1
1
1
1
1
1
1
1
1
1
1
1
1
1
1
1
1
1
1
1
1
1
1
1
1
1
1
1
1
1
1
1
1
1.00001
1.01446
1.97526
6.8812
8.53249
8.54348
8.50659
8.45507
8.40149
8.34481
8.28278
8.21864
8.15094
8.08039
8.00756
7.9318
7.85313
7.77224
7.68916
7.60324
7.51306
7.41695
7.31592
7.21231
7.10582
6.99692
6.88454
6.76872
6.65134
6.53572
6.41689
6.29511
6.17343
6.04763
1
1
1
1
1
1
1
1
1
1
1
1
1
1
1
1
1
1
1
1
1
1
1
1
1
1
1
1
1
1
1
1
1
1
1
1
1
1
1
1
1
1
1
1
1
1
1
1
1
1
1
1
1
1
1
1
1
1
1
1
1
1
1
1.00003
1.02602
2.23347
7.26328
8.49399
8.45938
8.41127
8.34896
8.28918
8.22591
8.16065
8.09194
8.0223
7.95142
7.87827
7.80243
7.72411
7.64308
7.55874
7.46999
7.37637
7.27868
7.17881
7.07658
6.97272
6.86545
6.75511
6.64343
6.53453
6.42214
6.30352
6.18525
6.0655
1
1
1
1
1
1
1
1
1
1
1
1
1
1
1
1
1
1
1
1
1
1
1
1
1
1
1
1
1
1
1
1
1
1
1
1
1
1
1
1
1
1
1
1
1
1
1
1
1
1
1
1
1
1
1
1
1
1
1
1
1
1
1
1
1.00008
1.04098
2.61241
7.50152
8.38702
8.33608
8.29289
8.23272
8.1695
8.10522
8.03998
7.97454
7.90705
7.83635
7.762
7.6843
7.60325
7.51875
7.43076
7.33937
7.24559
7.15018
7.05202
6.95242
6.84969
6.74457
6.63754
6.53337
6.42624
6.31083
6.19506
6.08018
1
1
1
1
1
1
1
1
1
1
1
1
1
1
1
1
1
1
1
1
1
1
1
1
1
1
1
1
1
1
1
1
1
1
1
1
1
1
1
1
1
1
1
1
1
1
1
1
1
1
1
1
1
1
1
1
1
1
1
1
1
1
1
1
1
1.00015
1.06888
2.903
7.55795
8.27202
8.21996
8.16477
8.1117
8.05607
7.99792
7.9359
7.86986
7.79999
7.7262
7.64885
7.56804
7.48426
7.39807
7.30971
7.21965
7.12766
7.03258
6.93566
6.83624
6.73556
6.63217
6.53046
6.42656
6.31431
6.20087
6.08847
1
1
1
1
1
1
1
1
1
1
1
1
1
1
1
1
1
1
1
1
1
1
1
1
1
1
1
1
1
1
1
1
1
1
1
1
1
1
1
1
1
1
1
1
1
1
1
1
1
1
1
1
1
1
1
1
1
1
1
1
1
1
1
1
1
1
1.00032
1.09665
3.00569
7.48806
8.16007
8.11174
8.06372
8.01337
7.96041
7.90207
7.83791
7.76852
7.69454
7.61723
7.53683
7.45403
7.36945
7.28317
7.19515
7.10504
7.01256
6.91812
6.82182
6.72464
6.62445
6.52369
6.42135
6.31138
6.20208
6.09362
1
1
1
1
1
1
1
1
1
1
1
1
1
1
1
1
1
1
1
1
1
1
1
1
1
1
1
1
1
1
1
1
1
1
1
1
1
1
1
1
1
1
1
1
1
1
1
1
1
1
1
1
1
1
1
1
1
1
1
1
1
1
1
1
1
1
1
1.00055
1.10954
2.95196
7.36127
8.07514
8.03235
7.98408
7.92769
7.86735
7.80312
7.73418
7.66206
7.58655
7.50771
7.42665
7.34394
7.25963
7.17376
7.08575
6.99553
6.90331
6.80877
6.71354
6.61395
6.51309
6.41218
6.30893
6.20746
6.11024
1
1
1
1
1
1
1
1
1
1
1
1
1
1
1
1
1
1
1
1
1
1
1
1
1
1
1
1
1
1
1
1
1
1
1
1
1
1
1
1
1
1
1
1
1
1
1
1
1
1
1
1
1
1
1
1
1
1
1
1
1
1
1
1
1
1
1
1
1.00068
1.10554
2.87645
7.1834
7.98365
7.94885
7.89015
7.8298
7.76325
7.69571
7.62672
7.55415
7.47878
7.4011
7.32133
7.23969
7.15576
7.06898
6.98034
6.88791
6.79288
6.69698
6.60133
6.50453
6.41207
6.3261
6.26707
6.22171
1
1
1
1
1
1
1
1
1
1
1
1
1
1
1
1
1
1
1
1
1
1
1
1
1
1
1
1
1
1
1
1
1
1
1
1
1
1
1
1
1
1
1
1
1
1
1
1
1
1
1
1
1
1
1
1
1
1
1
1
1
1
1
1
1
1
1
1
1
1.00065
1.09787
2.74787
6.94254
7.8844
7.85714
7.7925
7.72871
7.66035
7.59163
7.52074
7.44836
7.37479
7.29876
7.21998
7.13813
7.05077
6.96125
6.86957
6.77831
6.68812
6.59898
6.53393
6.49287
6.49048
6.55804
6.6876
1
1
1
1
1
1
1
1
1
1
1
1
1
1
1
1
1
1
1
1
1
1
1
1
1
1
1
1
1
1
1
1
1
1
1
1
1
1
1
1
1
1
1
1
1
1
1
1
1
1
1
1
1
1
1
1
1
1
1
1
1
1
1
1
1
1
1
1
1
1
1.00059
1.08508
2.5627
6.6212
7.76708
7.76129
7.69416
7.63087
7.56222
7.49196
7.42078
7.34891
7.27456
7.19722
7.11496
7.03008
6.94253
6.85402
6.77746
6.72683
6.71039
6.75639
6.88088
7.09717
7.33372
7.53623
1
1
1
1
1
1
1
1
1
1
1
1
1
1
1
1
1
1
1
1
1
1
1
1
1
1
1
1
1
1
1
1
1
1
1
1
1
1
1
1
1
1
1
1
1
1
1
1
1
1
1
1
1
1
1
1
1
1
1
1
1
1
1
1
1
1
1
1
1
1
1
1.00048
1.06817
2.33529
6.18072
7.6402
7.67489
7.60281
7.53744
7.46515
7.39706
7.32603
7.24897
7.17141
7.08941
7.00654
6.94085
6.90223
6.91273
7.01132
7.22296
7.49778
7.77392
8.0142
8.11181
8.16026
1
1
1
1
1
1
1
1
1
1
1
1
1
1
1
1
1
1
1
1
1
1
1
1
1
1
1
1
1
1
1
1
1
1
1
1
1
1
1
1
1
1
1
1
1
1
1
1
1
1
1
1
1
1
1
1
1
1
1
1
1
1
1
1
1
1
1
1
1
1
1
1
1.00035
1.0502
2.07325
5.60947
7.48667
7.60216
7.50621
7.4396
7.37119
7.29408
7.22038
7.14281
7.08008
7.05356
7.09421
7.25414
7.55179
7.9051
8.22123
8.4351
8.51406
8.49188
8.43123
8.38086
1
1
1
1
1
1
1
1
1
1
1
1
1
1
1
1
1
1
1
1
1
1
1
1
1
1
1
1
1
1
1
1
1
1
1
1
1
1
1
1
1
1
1
1
1
1
1
1
1
1
1
1
1
1
1
1
1
1
1
1
1
1
1
1
1
1
1
1
1
1
1
1
1
1.00023
1.03319
1.80015
4.8754
7.3069
7.49702
7.42139
7.35852
7.26733
7.20089
7.18671
7.26097
7.49054
7.85799
8.30365
8.67774
8.84534
8.90881
8.90562
8.82479
8.69526
8.57786
8.49847
1
1
1
1
1
1
1
1
1
1
1
1
1
1
1
1
1
1
1
1
1
1
1
1
1
1
1
1
1
1
1
1
1
1
1
1
1
1
1
1
1
1
1
1
1
1
1
1
1
1
1
1
1
1
1
1
1
1
1
1
1
1
1
1
1
1
1
1
1
1
1
1
1
1
1.00013
1.01947
1.53453
4.09887
7.00018
7.40466
7.28901
7.25528
7.40554
7.71611
8.19147
8.70033
9.03661
9.2416
9.3128
9.22333
9.11691
9.02834
8.93099
8.80835
8.696
8.6187
1
1
1
1
1
1
1
1
1
1
1
1
1
1
1
1
1
1
1
1
1
1
1
1
1
1
1
1
1
1
1
1
1
1
1
1
1
1
1
1
1
1
1
1
1
1
1
1
1
1
1
1
1
1
1
1
1
1
1
1
1
1
1
1
1
1
1
1
1
1
1
1
1
1
1
1.00006
1.0098
1.32172
3.32804
6.60416
7.24056
7.91687
8.48189
9.10069
9.51424
9.66939
9.65008
9.58604
9.50658
9.35616
9.1977
9.08662
9.00349
8.91227
8.81287
8.73953
1
1
1
1
1
1
1
1
1
1
1
1
1
1
1
1
1
1
1
1
1
1
1
1
1
1
1
1
1
1
1
1
1
1
1
1
1
1
1
1
1
1
1
1
1
1
1
1
1
1
1
1
1
1
1
1
1
1
1
1
1
1
1
1
1
1
1
1
1
1
1
1
1
1
1
1
1.00002
1.00412
1.17484
2.61184
6.79229
9.63379
9.89577
10.048
10.0548
9.93444
9.80429
9.68195
9.57905
9.44839
9.30341
9.19408
9.12828
9.06459
8.97413
8.8946
1
1
1
1
1
1
1
1
1
1
1
1
1
1
1
1
1
1
1
1
1
1
1
1
1
1
1
1
1
1
1
1
1
1
1
1
1
1
1
1
1
1
1
1
1
1
1
1
1
1
1
1
1
1
1
1
1
1
1
1
1
1
1
1
1
1
1
1
1
1
1
1
1
1
1
1
1
1.00001
1.00176
1.07632
5.30859
10.6124
10.5598
10.4056
10.2586
10.0871
9.93704
9.78892
9.65784
9.50981
9.37959
9.29343
9.23775
9.18512
9.10927
9.04155
1
1
1
1
1
1
1
1
1
1
1
1
1
1
1
1
1
1
1
1
1
1
1
1
1
1
1
1
1
1
1
1
1
1
1
1
1
1
1
1
1
1
1
1
1
1
1
1
1
1
1
1
1
1
1
1
1
1
1
1
1
1
1
1
1
1
1
1
1
1
1
1
1
1
1
1
1
1
1
1.00032
3.84118
9.99717
10.2722
10.1586
10.0511
9.93646
9.82669
9.72064
9.63523
9.56749
9.51602
9.46567
9.41425
9.35699
9.27904
9.20195
1
1
1
1
1
1
1
1
1
1
1
1
1
1
1
1
1
1
1
1
1
1
1
1
1
1
1
1
1
1
1
1
1
1
1
1
1
1
1
1
1
1
1
1
1
1
1
1
1
1
1
1
1
1
1
1
1
1
1
1
1
1
1
1
1
1
1
1
1
1
1
1
1
1
1
1
1
1
1
1
2.03438
8.56822
10.2643
10.1146
10.0669
10.0065
9.96034
9.90597
9.84968
9.79495
9.73467
9.66577
9.59071
9.51707
9.44203
9.35868
1
1
1
1
1
1
1
1
1
1
1
1
1
1
1
1
1
1
1
1
1
1
1
1
1
1
1
1
1
1
1
1
1
1
1
1
1
1
1
1
1
1
1
1
1
1
1
1
1
1
1
1
1
1
1
1
1
1
1
1
1
1
1
1
1
1
1
1
1
1
1
1
1
1
1
1
1
1
1
1
1.04518
6.53896
10.1329
10.1596
10.127
10.0766
10.0179
9.9514
9.88956
9.82878
9.75966
9.68858
9.61423
9.53738
9.45947
9.38094
1
1
1
1
1
1
1
1
1
1
1
1
1
1
1
1
1
1
1
1
1
1
1
1
1
1
1
1
1
1
1
1
1
1
1
1
1
1
1
1
1
1
1
1
1
1
1
1
1
1
1
1
1
1
1
1
1
1
1
1
1
1
1
1
1
1
1
1
1
1
1
1
1
1
1
1
1
1
1
1
1.00006
4.23762
9.63629
10.0756
10.0317
10.0167
9.99015
9.95231
9.90813
9.8623
9.81488
9.76531
9.71331
9.65632
9.59522
9.53435
1
1
1
1
1
1
1
1
1
1
1
1
1
1
1
1
1
1
1
1
1
1
1
1
1
1
1
1
1
1
1
1
1
1
1
1
1
1
1
1
1
1
1
1
1
1
1
1
1
1
1
1
1
1
1
1
1
1
1
1
1
1
1
1
1
1
1
1
1
1
1
1
1
1
1
1
1
1
1
1
1
2.23397
8.61351
10.1782
10.1186
10.073
10.0297
9.99093
9.95148
9.905
9.85435
9.803
9.74861
9.69429
9.64199
9.58936
1
1
1
1
1
1
1
1
1
1
1
1
1
1
1
1
1
1
1
1
1
1
1
1
1
1
1
1
1
1
1
1
1
1
1
1
1
1
1
1
1
1
1
1
1
1
1
1
1
1
1
1
1
1
1
1
1
1
1
1
1
1
1
1
1
1
1
1
1
1
1
1
1
1
1
1
1
1
1
1
1
1.065
6.87768
10.2369
10.1756
10.103
10.0455
10.0033
9.9652
9.92649
9.8858
9.84345
9.79733
9.74758
9.69591
9.64409
1
1
1
1
1
1
1
1
1
1
1
1
1
1
1
1
1
1
1
1
1
1
1
1
1
1
1
1
1
1
1
1
1
1
1
1
1
1
1
1
1
1
1
1
1
1
1
1
1
1
1
1
1
1
1
1
1
1
1
1
1
1
1
1
1
1
1
1
1
1
1
1
1
1
1
1
1
1
1
1
1
1.00009
4.82026
9.82597
10.0972
10.0782
10.0599
10.0264
9.98576
9.94333
9.89895
9.85302
9.80582
9.75879
9.71082
9.66115
1
1
1
1
1
1
1
1
1
1
1
1
1
1
1
1
1
1
1
1
1
1
1
1
1
1
1
1
1
1
1
1
1
1
1
1
1
1
1
1
1
1
1
1
1
1
1
1
1
1
1
1
1
1
1
1
1
1
1
1
1
1
1
1
1
1
1
1
1
1
1
1
1
1
1
1
1
1
1
1
1
1
2.8835
9.10954
10.2283
10.1629
10.1271
10.0815
10.0357
9.99073
9.94572
9.89966
9.85352
9.80762
9.76195
9.71519
1
1
1
1
1
1
1
1
1
1
1
1
1
1
1
1
1
1
1
1
1
1
1
1
1
1
1
1
1
1
1
1
1
1
1
1
1
1
1
1
1
1
1
1
1
1
1
1
1
1
1
1
1
1
1
1
1
1
1
1
1
1
1
1
1
1
1
1
1
1
1
1
1
1
1
1
1
1
1
1
1
1
1.51307
7.93005
10.2908
10.1919
10.1431
10.1005
10.0585
10.0157
9.97256
9.9279
9.88271
9.83747
9.79137
9.74477
1
1
1
1
1
1
1
1
1
1
1
1
1
1
1
1
1
1
1
1
1
1
1
1
1
1
1
1
1
1
1
1
1
1
1
1
1
1
1
1
1
1
1
1
1
1
1
1
1
1
1
1
1
1
1
1
1
1
1
1
1
1
1
1
1
1
1
1
1
1
1
1
1
1
1
1
1
1
1
1
1
1
1.01132
6.40093
10.2277
10.2307
10.1723
10.1301
10.0853
10.0418
9.99858
9.95477
9.91044
9.86575
9.81944
9.7728
1
1
1
1
1
1
1
1
1
1
1
1
1
1
1
1
1
1
1
1
1
1
1
1
1
1
1
1
1
1
1
1
1
1
1
1
1
1
1
1
1
1
1
1
1
1
1
1
1
1
1
1
1
1
1
1
1
1
1
1
1
1
1
1
1
1
1
1
1
1
1
1
1
1
1
1
1
1
1
1
1
1
1
4.71598
9.90793
10.2134
10.1669
10.1385
10.1014
10.0637
10.0236
9.98158
9.93844
9.8945
9.84864
9.80254
1
1
1
1
1
1
1
1
1
1
1
1
1
1
1
1
1
1
1
1
1
1
1
1
1
1
1
1
1
1
1
1
1
1
1
1
1
1
1
1
1
1
1
1
1
1
1
1
1
1
1
1
1
1
1
1
1
1
1
1
1
1
1
1
1
1
1
1
1
1
1
1
1
1
1
1
1
1
1
1
1
1
1
3.24175
9.38151
10.2612
10.1974
10.1664
10.1256
10.0853
10.0436
10.0006
9.95724
9.91325
9.86827
9.82413
1
1
1
1
1
1
1
1
1
1
1
1
1
1
1
1
1
1
1
1
1
1
1
1
1
1
1
1
1
1
1
1
1
1
1
1
1
1
1
1
1
1
1
1
1
1
1
1
1
1
1
1
1
1
1
1
1
1
1
1
1
1
1
1
1
1
1
1
1
1
1
1
1
1
1
1
1
1
1
1
1
1
1
2.06133
8.64628
10.3396
10.2566
10.2145
10.1683
10.1249
10.0815
10.0373
9.99333
9.94901
9.90433
9.86041
1
1
1
1
1
1
1
1
1
1
1
1
1
1
1
1
1
1
1
1
1
1
1
1
1
1
1
1
1
1
1
1
1
1
1
1
1
1
1
1
1
1
1
1
1
1
1
1
1
1
1
1
1
1
1
1
1
1
1
1
1
1
1
1
1
1
1
1
1
1
1
1
1
1
1
1
1
1
1
1
1
1
1
1.29244
7.54001
10.391
10.296
10.2354
10.1861
10.1421
10.0989
10.0553
10.0122
9.96859
9.92513
9.88194
1
1
1
1
1
1
1
1
1
1
1
1
1
1
1
1
1
1
1
1
1
1
1
1
1
1
1
1
1
1
1
1
1
1
1
1
1
1
1
1
1
1
1
1
1
1
1
1
1
1
1
1
1
1
1
1
1
1
1
1
1
1
1
1
1
1
1
1
1
1
1
1
1
1
1
1
1
1
1
1
1
1
1
1.00487
6.35391
10.2956
10.3104
10.2514
10.2115
10.168
10.1243
10.08
10.0363
9.99209
9.94847
9.90486
1
1
1
1
1
1
1
1
1
1
1
1
1
1
1
1
1
1
1
1
1
1
1
1
1
1
1
1
1
1
1
1
1
1
1
1
1
1
1
1
1
1
1
1
1
1
1
1
1
1
1
1
1
1
1
1
1
1
1
1
1
1
1
1
1
1
1
1
1
1
1
1
1
1
1
1
1
1
1
1
1
1
1
1
5.18592
10.1007
10.3026
10.2498
10.2175
10.1772
10.1371
10.0955
10.0537
10.0109
9.96817
9.92457
1
1
1
1
1
1
1
1
1
1
1
1
1
1
1
1
1
1
1
1
1
1
1
1
1
1
1
1
1
1
1
1
1
1
1
1
1
1
1
1
1
1
1
1
1
1
1
1
1
1
1
1
1
1
1
1
1
1
1
1
1
1
1
1
1
1
1
1
1
1
1
1
1
1
1
1
1
1
1
1
1
1
1
1
4.08217
9.82675
10.3371
10.2768
10.2462
10.207
10.1676
10.1262
10.0838
10.04
9.99602
9.9511
1
1
1
1
1
1
1
1
1
1
1
1
1
1
1
1
1
1
1
1
1
1
1
1
1
1
1
1
1
1
1
1
1
1
1
1
1
1
1
1
1
1
1
1
1
1
1
1
1
1
1
1
1
1
1
1
1
1
1
1
1
1
1
1
1
1
1
1
1
1
1
1
1
1
1
1
1
1
1
1
1
1
1
1
3.13599
9.47997
10.3696
10.2927
10.2581
10.2173
10.1773
10.1362
10.0942
10.0513
10.0082
9.96422
1
1
1
1
1
1
1
1
1
1
1
1
1
1
1
1
1
1
1
1
1
1
1
1
1
1
1
1
1
1
1
1
1
1
1
1
1
1
1
1
1
1
1
1
1
1
1
1
1
1
1
1
1
1
1
1
1
1
1
1
1
1
1
1
1
1
1
1
1
1
1
1
1
1
1
1
1
1
1
1
1
1
1
1
2.38631
9.04851
10.3872
10.306
10.2693
10.2281
10.1883
10.1475
10.1059
10.0637
10.0213
9.97778
1
1
1
1
1
1
1
1
1
1
1
1
1
1
1
1
1
1
1
1
1
1
1
1
1
1
1
1
1
1
1
1
1
1
1
1
1
1
1
1
1
1
1
1
1
1
1
1
1
1
1
1
1
1
1
1
1
1
1
1
1
1
1
1
1
1
1
1
1
1
1
1
1
1
1
1
1
1
1
1
1
1
1
1
1.86296
8.52665
10.4025
10.3229
10.2828
10.2411
10.2008
10.1601
10.1186
10.0771
10.0352
9.99217
1
1
1
1
1
1
1
1
1
1
1
1
1
1
1
1
1
1
1
1
1
1
1
1
1
1
1
1
1
1
1
1
1
1
1
1
1
1
1
1
1
1
1
1
1
1
1
1
1
1
1
1
1
1
1
1
1
1
1
1
1
1
1
1
1
1
1
1
1
1
1
1
1
1
1
1
1
1
1
1
1
1
1
1
1.5276
7.98354
10.3924
10.3319
10.292
10.2514
10.2111
10.1704
10.1286
10.0871
10.0449
10.0019
1
1
1
1
1
1
1
1
1
1
1
1
1
1
1
1
1
1
1
1
1
1
1
1
1
1
1
1
1
1
1
1
1
1
1
1
1
1
1
1
1
1
1
1
1
1
1
1
1
1
1
1
1
1
1
1
1
1
1
1
1
1
1
1
1
1
1
1
1
1
1
1
1
1
1
1
1
1
1
1
1
1
1
1
1.30316
7.46257
10.3642
10.3296
10.2871
10.2509
10.2132
10.176
10.1374
10.0984
10.0578
10.0164
1
1
1
1
1
1
1
1
1
1
1
1
1
1
1
1
1
1
1
1
1
1
1
1
1
1
1
1
1
1
1
1
1
1
1
1
1
1
1
1
1
1
1
1
1
1
1
1
1
1
1
1
1
1
1
1
1
1
1
1
1
1
1
1
1
1
1
1
1
1
1
1
1
1
1
1
1
1
1
1
1
1
1
1
1.08949
6.94692
10.3539
10.3549
10.3009
10.2669
10.2288
10.1915
10.1528
10.1133
10.0716
10.0291
1
1
1
1
1
1
1
1
1
1
1
1
1
1
1
1
1
1
1
1
1
1
1
1
1
1
1
1
1
1
1
1
1
1
1
1
1
1
1
1
1
1
1
1
1
1
1
1
1
1
1
1
1
1
1
1
1
1
1
1
1
1
1
1
1
1
1
1
1
1
1
1
1
1
1
1
1
1
1
1
1
1
1
1
1.00127
6.48878
10.3355
10.3747
10.312
10.2773
10.2371
10.1979
10.1579
10.118
10.0769
10.0357
1
1
1
1
1
1
1
1
1
1
1
1
1
1
1
1
1
1
1
1
1
1
1
1
1
1
1
1
1
1
1
1
1
1
1
1
1
1
1
1
1
1
1
1
1
1
1
1
1
1
1
1
1
1
1
1
1
1
1
1
1
1
1
1
1
1
1
1
1
1
1
1
1
1
1
1
1
1
1
1
1
1
1
1
1
6.05291
10.3064
10.3859
10.3211
10.2867
10.2466
10.2074
10.1673
10.1267
10.0852
10.0437
1
1
1
1
1
1
1
1
1
1
1
1
1
1
1
1
1
1
1
1
1
1
1
1
1
1
1
1
1
1
1
1
1
1
1
1
1
1
1
1
1
1
1
1
1
1
1
1
1
1
1
1
1
1
1
1
1
1
1
1
1
1
1
1
1
1
1
1
1
1
1
1
1
1
1
1
1
1
1
1
1
1
1
1
1
5.72218
10.282
10.3982
10.3308
10.2948
10.2535
10.2131
10.1724
10.1313
10.0895
10.0476
1
1
1
1
1
1
1
1
1
1
1
1
1
1
1
1
1
1
1
1
1
1
1
1
1
1
1
1
1
1
1
1
1
1
1
1
1
1
1
1
1
1
1
1
1
1
1
1
1
1
1
1
1
1
1
1
1
1
1
1
1
1
1
1
1
1
1
1
1
1
1
1
1
1
1
1
1
1
1
1
1
1
1
1
1
5.50212
10.258
10.4034
10.3343
10.2973
10.2556
10.2149
10.1742
10.1328
10.0912
10.0491
1
1
1
1
1
1
1
1
1
1
1
1
1
1
1
1
1
1
1
1
1
1
1
1
1
1
1
1
1
1
1
1
1
1
1
1
1
1
1
1
1
1
1
1
1
1
1
1
1
1
1
1
1
1
1
1
1
1
1
1
1
1
1
1
1
1
1
1
1
1
1
1
1
1
1
1
1
1
1
1
1
1
1
1
1
5.40298
10.2307
10.3966
10.3317
10.2977
10.257
10.217
10.1766
10.1352
10.0937
10.0514
1.05689
0.171466
0.0851852