/*--------------------------------*- C++ -*----------------------------------*\
  =========                 |
  \\      /  F ield         | OpenFOAM: The Open Source CFD Toolbox
   \\    /   O peration     | Website:  https://openfoam.org
    \\  /    A nd           | Version:  7
     \\/     M anipulation  |
\*---------------------------------------------------------------------------*/
FoamFile
{
    version     2.0;
    format      ascii;
    class       volScalarField;
    location    "6.8";
    object      rho;
}
// * * * * * * * * * * * * * * * * * * * * * * * * * * * * * * * * * * * * * //

dimensions      [1 -3 0 0 0 0 0];

internalField   nonuniform List<scalar> 
19968
(
1.40001
1.40001
1.40001
1.40001
1.40001
1.40001
1.40001
1.40001
1.40001
1.40001
1.40001
1.40001
1.40001
1.40001
1.40001
1.40001
1.40001
1.40001
1.40001
1.40001
1.40001
1.40001
1.40001
1.40001
1.40001
1.40001
1.40001
1.40001
1.40001
1.40001
1.40001
1.40001
1.40001
1.40001
1.40001
1.40001
1.40001
1.40001
1.40001
1.40001
1.40001
1.40001
1.40001
1.40001
1.40001
1.40001
1.40001
1.40001
1.71243
4.58863
5.42054
5.43566
5.46009
5.48375
5.50684
5.52804
5.54706
5.56442
5.58192
5.60127
5.62239
5.64443
5.66624
5.68602
5.70215
5.71508
5.72734
5.74134
5.75776
5.77591
5.79413
5.8107
5.82513
5.83824
5.85122
5.86463
5.87814
5.89099
5.90266
5.9132
5.92306
5.93254
5.94161
5.9501
5.95798
5.96539
5.97242
5.97906
5.9852
5.99084
5.9962
6.00151
6.0068
6.01166
6.0155
6.01823
1.40001
1.40001
1.40001
1.40001
1.40001
1.40001
1.40001
1.40001
1.40001
1.40001
1.40001
1.40001
1.40001
1.40001
1.40001
1.40001
1.40001
1.40001
1.40001
1.40001
1.40001
1.40001
1.40001
1.40001
1.40001
1.40001
1.40001
1.40001
1.40001
1.40001
1.40001
1.40001
1.40001
1.40001
1.40001
1.40001
1.40001
1.40001
1.40001
1.40001
1.40001
1.40001
1.40001
1.40001
1.40001
1.40001
1.40001
1.40001
1.69514
4.56119
5.41687
5.43515
5.46023
5.48353
5.50603
5.52682
5.54582
5.56331
5.58083
5.60014
5.62111
5.64314
5.66487
5.68459
5.70071
5.71372
5.7261
5.74014
5.75654
5.77462
5.79277
5.80926
5.82361
5.83668
5.84965
5.86307
5.87663
5.88958
5.90133
5.91188
5.92165
5.93096
5.93987
5.94827
5.95615
5.96359
5.97063
5.97722
5.98325
5.98878
5.99402
5.99921
6.00437
6.00909
6.01277
6.0154
1.40001
1.40001
1.40001
1.40001
1.40001
1.40001
1.40001
1.40001
1.40001
1.40001
1.40001
1.40001
1.40001
1.40001
1.40001
1.40001
1.40001
1.40001
1.40001
1.40001
1.40001
1.40001
1.40001
1.40001
1.40001
1.40001
1.40001
1.40001
1.40001
1.40001
1.40001
1.40001
1.40001
1.40001
1.40001
1.40001
1.40001
1.40001
1.40001
1.40001
1.40001
1.40001
1.40001
1.40001
1.40001
1.40001
1.40001
1.40001
1.65708
4.50716
5.41567
5.43351
5.45824
5.48036
5.50217
5.52268
5.54199
5.56015
5.57821
5.59779
5.61857
5.6404
5.66186
5.68136
5.69751
5.71077
5.7234
5.73755
5.75388
5.77184
5.78987
5.80631
5.82063
5.83367
5.84659
5.86
5.87363
5.88674
5.89864
5.90923
5.91885
5.92791
5.93661
5.94496
5.95292
5.96048
5.96758
5.97413
5.98006
5.98549
5.99066
5.99578
6.00081
6.00536
6.00884
6.01131
1.40001
1.40001
1.40001
1.40001
1.40001
1.40001
1.40001
1.40001
1.40001
1.40001
1.40001
1.40001
1.40001
1.40001
1.40001
1.40001
1.40001
1.40001
1.40001
1.40001
1.40001
1.40001
1.40001
1.40001
1.40001
1.40001
1.40001
1.40001
1.40001
1.40001
1.40001
1.40001
1.40001
1.40001
1.40001
1.40001
1.40001
1.40001
1.40001
1.40001
1.40001
1.40001
1.40001
1.40001
1.40001
1.40001
1.40001
1.40001
1.6029
4.41839
5.41496
5.43302
5.45529
5.47579
5.49671
5.51704
5.53692
5.556
5.57481
5.59466
5.61516
5.63661
5.65769
5.67689
5.69309
5.7067
5.71969
5.73394
5.75011
5.76779
5.7856
5.80193
5.81623
5.82923
5.84209
5.85547
5.86918
5.88246
5.89453
5.90514
5.91456
5.92327
5.93163
5.93978
5.94771
5.95529
5.96236
5.96876
5.97448
5.97974
5.98482
5.98988
5.99486
5.99933
6.00271
6.00512
1.40001
1.40001
1.40001
1.40001
1.40001
1.40001
1.40001
1.40001
1.40001
1.40001
1.40001
1.40001
1.40001
1.40001
1.40001
1.40001
1.40001
1.40001
1.40001
1.40001
1.40001
1.40001
1.40001
1.40001
1.40001
1.40001
1.40001
1.40001
1.40001
1.40001
1.40001
1.40001
1.40001
1.40001
1.40001
1.40001
1.40001
1.40001
1.40001
1.40001
1.40001
1.40001
1.40001
1.40001
1.40001
1.40001
1.40001
1.40001
1.53469
4.29904
5.41419
5.43029
5.45083
5.47032
5.49072
5.51137
5.53198
5.55182
5.57104
5.59067
5.61044
5.63112
5.65166
5.6706
5.68708
5.70129
5.71485
5.72926
5.74521
5.76253
5.78006
5.7963
5.81063
5.82366
5.8365
5.84985
5.86363
5.8771
5.8894
5.9001
5.90939
5.91782
5.92588
5.93388
5.94181
5.94943
5.95638
5.96246
5.9677
5.97239
5.97692
5.98148
5.98601
5.99009
5.99317
5.9954
1.40001
1.40001
1.40001
1.40001
1.40001
1.40001
1.40001
1.40001
1.40001
1.40001
1.40001
1.40001
1.40001
1.40001
1.40001
1.40001
1.40001
1.40001
1.40001
1.40001
1.40001
1.40001
1.40001
1.40001
1.40001
1.40001
1.40001
1.40001
1.40001
1.40001
1.40001
1.40001
1.40001
1.40001
1.40001
1.40001
1.40001
1.40001
1.40001
1.40001
1.40001
1.40001
1.40001
1.40001
1.40001
1.40001
1.40001
1.40001
1.41814
4.10719
5.41656
5.43054
5.44713
5.46673
5.48652
5.50742
5.52864
5.54925
5.56874
5.58768
5.6061
5.62534
5.64494
5.6635
5.68036
5.69518
5.70921
5.72355
5.73892
5.75545
5.77231
5.78816
5.80226
5.81505
5.82759
5.84064
5.85423
5.86769
5.88007
5.89079
5.89992
5.90806
5.91584
5.92371
5.93174
5.93959
5.94674
5.95286
5.95799
5.96246
5.96673
5.97105
5.97537
5.97932
5.98229
5.98449
1.40001
1.40001
1.40001
1.40001
1.40001
1.40001
1.40001
1.40001
1.40001
1.40001
1.40001
1.40001
1.40001
1.40001
1.40001
1.40001
1.40001
1.40001
1.40001
1.40001
1.40001
1.40001
1.40001
1.40001
1.40001
1.40001
1.40001
1.40001
1.40001
1.40001
1.40001
1.40001
1.40001
1.40001
1.40001
1.40001
1.40001
1.40001
1.40001
1.40001
1.40001
1.40001
1.40001
1.40001
1.40001
1.40001
1.40001
1.40001
1.40019
3.81032
5.38384
5.41251
5.42927
5.45144
5.4719
5.49356
5.51539
5.53665
5.55653
5.57521
5.59293
5.61131
5.63054
5.64915
5.66655
5.68207
5.69663
5.71101
5.72592
5.7418
5.7581
5.77369
5.78775
5.80056
5.81305
5.826
5.83957
5.85317
5.8658
5.87672
5.8859
5.89393
5.90156
5.90942
5.91765
5.92583
5.93327
5.93948
5.94446
5.94859
5.95244
5.95634
5.96032
5.96407
5.96695
5.96912
1.40001
1.40001
1.40001
1.40001
1.40001
1.40001
1.40001
1.40001
1.40001
1.40001
1.40001
1.40001
1.40001
1.40001
1.40001
1.40001
1.40001
1.40001
1.40001
1.40001
1.40001
1.40001
1.40001
1.40001
1.40001
1.40001
1.40001
1.40001
1.40001
1.40001
1.40001
1.40001
1.40001
1.40001
1.40001
1.40001
1.40001
1.40001
1.40001
1.40001
1.40001
1.40001
1.40001
1.40001
1.40001
1.40001
1.40001
1.40001
1.40001
3.40911
5.33032
5.40343
5.42144
5.44582
5.46691
5.48864
5.50977
5.53008
5.54913
5.56705
5.58414
5.6018
5.62065
5.63907
5.65643
5.67198
5.6865
5.70051
5.71463
5.72956
5.74495
5.75989
5.77349
5.78594
5.79803
5.81058
5.82383
5.83727
5.84989
5.86081
5.86989
5.87767
5.88502
5.89269
5.90094
5.9093
5.91692
5.92314
5.92788
5.93157
5.93488
5.93823
5.94174
5.94519
5.94791
5.94997
1.40001
1.40001
1.40001
1.40001
1.40001
1.40001
1.40001
1.40001
1.40001
1.40001
1.40001
1.40001
1.40001
1.40001
1.40001
1.40001
1.40001
1.40001
1.40001
1.40001
1.40001
1.40001
1.40001
1.40001
1.40001
1.40001
1.40001
1.40001
1.40001
1.40001
1.40001
1.40001
1.40001
1.40001
1.40001
1.40001
1.40001
1.40001
1.40001
1.40001
1.40001
1.40001
1.40001
1.40001
1.40001
1.40001
1.40001
1.40001
1.40001
2.93127
5.23173
5.40079
5.41734
5.44133
5.46228
5.48356
5.50384
5.52324
5.54146
5.55871
5.57549
5.59267
5.61104
5.62903
5.64571
5.66051
5.67416
5.68717
5.70008
5.71376
5.72796
5.74188
5.7546
5.76632
5.7778
5.7898
5.80261
5.81575
5.82819
5.83898
5.84786
5.85534
5.86234
5.86974
5.8779
5.88638
5.8942
5.90054
5.90524
5.90871
5.91169
5.91467
5.91781
5.92101
5.92352
5.92536
1.40001
1.40001
1.40001
1.40001
1.40001
1.40001
1.40001
1.40001
1.40001
1.40001
1.40001
1.40001
1.40001
1.40001
1.40001
1.40001
1.40001
1.40001
1.40001
1.40001
1.40001
1.40001
1.40001
1.40001
1.40001
1.40001
1.40001
1.40001
1.40001
1.40001
1.40001
1.40001
1.40001
1.40001
1.40001
1.40001
1.40001
1.40001
1.40001
1.40001
1.40001
1.40001
1.40001
1.40001
1.40001
1.40001
1.40001
1.40001
1.40001
2.39638
5.04562
5.40516
5.42416
5.44604
5.46506
5.48388
5.50188
5.51942
5.53608
5.55207
5.56818
5.58481
5.60253
5.61987
5.6356
5.64939
5.66187
5.6738
5.68551
5.69794
5.71076
5.72323
5.73447
5.74475
5.75496
5.76588
5.7777
5.78996
5.80164
5.81182
5.82022
5.82731
5.834
5.8412
5.84929
5.85782
5.8657
5.87195
5.87634
5.87931
5.88174
5.88414
5.88668
5.88937
5.89139
5.89276
1.40001
1.40001
1.40001
1.40001
1.40001
1.40001
1.40001
1.40001
1.40001
1.40001
1.40001
1.40001
1.40001
1.40001
1.40001
1.40001
1.40001
1.40001
1.40001
1.40001
1.40001
1.40001
1.40001
1.40001
1.40001
1.40001
1.40001
1.40001
1.40001
1.40001
1.40001
1.40001
1.40001
1.40001
1.40001
1.40001
1.40001
1.40001
1.40001
1.40001
1.40001
1.40001
1.40001
1.40001
1.40001
1.40001
1.40001
1.40001
1.40001
1.86605
4.72519
5.42681
5.41684
5.43781
5.45412
5.47203
5.48994
5.50767
5.52449
5.54039
5.55631
5.57278
5.59018
5.6074
5.62287
5.63602
5.64746
5.6585
5.66946
5.68114
5.69299
5.7041
5.71392
5.72273
5.73156
5.7412
5.75176
5.7626
5.77274
5.78138
5.78832
5.79405
5.79946
5.80541
5.81232
5.81981
5.82688
5.83257
5.83658
5.83936
5.84173
5.84404
5.84649
5.84897
5.85071
5.85183
1.40001
1.40001
1.40001
1.40001
1.40001
1.40001
1.40001
1.40001
1.40001
1.40001
1.40001
1.40001
1.40001
1.40001
1.40001
1.40001
1.40001
1.40001
1.40001
1.40001
1.40001
1.40001
1.40001
1.40001
1.40001
1.40001
1.40001
1.40001
1.40001
1.40001
1.40001
1.40001
1.40001
1.40001
1.40001
1.40001
1.40001
1.40001
1.40001
1.40001
1.40001
1.40001
1.40001
1.40001
1.40001
1.40001
1.40001
1.40001
1.40001
1.42325
4.08895
5.41185
5.417
5.43325
5.44913
5.46563
5.48213
5.49842
5.51417
5.52921
5.54405
5.55955
5.57541
5.59103
5.60512
5.61699
5.62705
5.6369
5.64676
5.65727
5.66802
5.67771
5.68608
5.69324
5.70049
5.70871
5.71799
5.72749
5.73617
5.74332
5.74891
5.75348
5.7579
5.76294
5.769
5.77569
5.78193
5.78664
5.78946
5.79074
5.79125
5.79144
5.79175
5.79239
5.79304
5.79361
1.40001
1.40001
1.40001
1.40001
1.40001
1.40001
1.40001
1.40001
1.40001
1.40001
1.40001
1.40001
1.40001
1.40001
1.40001
1.40001
1.40001
1.40001
1.40001
1.40001
1.40001
1.40001
1.40001
1.40001
1.40001
1.40001
1.40001
1.40001
1.40001
1.40001
1.40001
1.40001
1.40001
1.40001
1.40001
1.40001
1.40001
1.40001
1.40001
1.40001
1.40001
1.40001
1.40001
1.40001
1.40001
1.40001
1.40001
1.40001
1.40001
1.40004
3.20127
5.25119
5.36269
5.38734
5.40989
5.42953
5.44768
5.46457
5.48046
5.49552
5.50998
5.52486
5.54023
5.55536
5.56933
5.58148
5.59151
5.60101
5.61071
5.62088
5.63146
5.64081
5.64839
5.65439
5.66028
5.66719
5.6753
5.68358
5.69072
5.69593
5.69934
5.70168
5.70383
5.70644
5.70988
5.71375
5.71696
5.71861
5.71874
5.71799
5.71714
5.71688
5.71715
5.71836
5.71947
5.72053
1.40001
1.40001
1.40001
1.40001
1.40001
1.40001
1.40001
1.40001
1.40001
1.40001
1.40001
1.40001
1.40001
1.40001
1.40001
1.40001
1.40001
1.40001
1.40001
1.40001
1.40001
1.40001
1.40001
1.40001
1.40001
1.40001
1.40001
1.40001
1.40001
1.40001
1.40001
1.40001
1.40001
1.40001
1.40001
1.40001
1.40001
1.40001
1.40001
1.40001
1.40001
1.40001
1.40001
1.40001
1.40001
1.40001
1.40001
1.40001
1.40001
1.4
2.1721
4.8997
5.36475
5.3763
5.40087
5.41995
5.43651
5.45102
5.46445
5.47759
5.49053
5.50376
5.51754
5.53112
5.54366
5.55482
5.56393
5.57189
5.58009
5.5887
5.59783
5.606
5.61192
5.6159
5.61926
5.6236
5.62932
5.63542
5.64028
5.64271
5.64294
5.64179
5.64025
5.63958
5.64009
5.64118
5.64192
5.64163
5.63964
5.63614
5.6312
5.62545
5.61825
5.61091
5.60386
5.59753
1.40001
1.40001
1.40001
1.40001
1.40001
1.40001
1.40001
1.40001
1.40001
1.40001
1.40001
1.40001
1.40001
1.40001
1.40001
1.40001
1.40001
1.40001
1.40001
1.40001
1.40001
1.40001
1.40001
1.40001
1.40001
1.40001
1.40001
1.40001
1.40001
1.40001
1.40001
1.40001
1.40001
1.40001
1.40001
1.40001
1.40001
1.40001
1.40001
1.40001
1.40001
1.40001
1.40001
1.40001
1.40001
1.40001
1.40001
1.40001
1.40001
1.40001
1.4427
3.98012
5.38627
5.39432
5.40456
5.41611
5.42609
5.43521
5.44401
5.45348
5.46381
5.47482
5.48666
5.49843
5.50894
5.51823
5.52602
5.53237
5.53873
5.54538
5.55231
5.5588
5.56314
5.56518
5.56588
5.567
5.56961
5.57321
5.57573
5.57581
5.57277
5.56706
5.56011
5.55364
5.5482
5.54296
5.53638
5.52721
5.51444
5.49814
5.47932
5.45968
5.44309
5.42951
5.42373
5.42115
1.40001
1.40001
1.40001
1.40001
1.40001
1.40001
1.40001
1.40001
1.40001
1.40001
1.40001
1.40001
1.40001
1.40001
1.40001
1.40001
1.40001
1.40001
1.40001
1.40001
1.40001
1.40001
1.40001
1.40001
1.40001
1.40001
1.40001
1.40001
1.40001
1.40001
1.40001
1.40001
1.40001
1.40001
1.40001
1.40001
1.40001
1.40001
1.40001
1.40001
1.40001
1.40001
1.40001
1.40001
1.40001
1.40001
1.40001
1.40001
1.40001
1.40001
1.40006
2.62791
5.07325
5.3389
5.35748
5.37575
5.38967
5.40085
5.40998
5.41849
5.42753
5.43791
5.44938
5.46085
5.47099
5.47937
5.486
5.49089
5.49484
5.49875
5.50282
5.50689
5.50946
5.50954
5.5069
5.5032
5.50068
5.49997
5.49961
5.4971
5.49043
5.47948
5.46557
5.45058
5.43583
5.42116
5.40519
5.38655
5.3643
5.33885
5.31114
5.28212
5.24567
5.20457
5.14766
5.16663
1.40001
1.40001
1.40001
1.40001
1.40001
1.40001
1.40001
1.40001
1.40001
1.40001
1.40001
1.40001
1.40001
1.40001
1.40001
1.40001
1.40001
1.40001
1.40001
1.40001
1.40001
1.40001
1.40001
1.40001
1.40001
1.40001
1.40001
1.40001
1.40001
1.40001
1.40001
1.40001
1.40001
1.40001
1.40001
1.40001
1.40001
1.40001
1.40001
1.40001
1.40001
1.40001
1.40001
1.40001
1.40001
1.40001
1.40001
1.40001
1.40001
1.40001
1.40001
1.564
4.3881
5.36159
5.35514
5.36416
5.37546
5.38529
5.39311
5.3994
5.40538
5.41248
5.42103
5.43029
5.43888
5.44542
5.44988
5.45258
5.45395
5.45487
5.4558
5.45673
5.45719
5.4555
5.45036
5.44242
5.43453
5.42844
5.42362
5.41756
5.40773
5.39265
5.37236
5.34856
5.32311
5.29658
5.26745
5.23349
5.19077
5.13674
5.06397
4.96619
4.81736
4.58787
4.17817
3.27323
1.40001
1.40001
1.40001
1.40001
1.40001
1.40001
1.40001
1.40001
1.40001
1.40001
1.40001
1.40001
1.40001
1.40001
1.40001
1.40001
1.40001
1.40001
1.40001
1.40001
1.40001
1.40001
1.40001
1.40001
1.40001
1.40001
1.40001
1.40001
1.40001
1.40001
1.40001
1.40001
1.40001
1.40001
1.40001
1.40001
1.40001
1.40001
1.40001
1.40001
1.40001
1.40001
1.40001
1.40001
1.40001
1.40001
1.40001
1.40001
1.40001
1.40001
1.4
1.40144
3.23181
5.16225
5.31589
5.33424
5.35245
5.36448
5.3713
5.37427
5.37746
5.38213
5.38874
5.39654
5.40394
5.40963
5.41336
5.41523
5.4155
5.41421
5.41233
5.41051
5.40851
5.40556
5.39948
5.38944
5.37768
5.36617
5.35577
5.34512
5.33178
5.31322
5.28815
5.25719
5.22182
5.18367
5.14072
5.0915
5.02876
4.94963
4.84012
4.69723
4.48876
4.21906
3.67456
2.91288
1.40001
1.40001
1.40001
1.40001
1.40001
1.40001
1.40001
1.40001
1.40001
1.40001
1.40001
1.40001
1.40001
1.40001
1.40001
1.40001
1.40001
1.40001
1.40001
1.40001
1.40001
1.40001
1.40001
1.40001
1.40001
1.40001
1.40001
1.40001
1.40001
1.40001
1.40001
1.40001
1.40001
1.40001
1.40001
1.40001
1.40001
1.40001
1.40001
1.40001
1.40001
1.40001
1.40001
1.40001
1.40001
1.40001
1.40001
1.40001
1.40001
1.40001
1.40001
1.4
1.95819
4.71531
5.3307
5.32559
5.34462
5.35583
5.3608
5.36082
5.36213
5.36494
5.36916
5.3745
5.37953
5.38291
5.3844
5.38414
5.38212
5.37837
5.37353
5.36799
5.36196
5.35573
5.34745
5.33582
5.32145
5.30541
5.28897
5.27234
5.25375
5.23063
5.20052
5.16329
5.11892
5.06985
5.0136
4.9496
4.87069
4.77182
4.6428
4.47264
4.25375
3.93243
3.48788
2.97019
1.40001
1.40001
1.40001
1.40001
1.40001
1.40001
1.40001
1.40001
1.40001
1.40001
1.40001
1.40001
1.40001
1.40001
1.40001
1.40001
1.40001
1.40001
1.40001
1.40001
1.40001
1.40001
1.40001
1.40001
1.40001
1.40001
1.40001
1.40001
1.40001
1.40001
1.40001
1.40001
1.40001
1.40001
1.40001
1.40001
1.40001
1.40001
1.40001
1.40001
1.40001
1.40001
1.40001
1.40001
1.40001
1.40001
1.40001
1.40001
1.40001
1.40001
1.40001
1.4
1.42477
3.55622
5.24807
5.30838
5.32375
5.33261
5.33568
5.33638
5.33955
5.34423
5.34802
5.35136
5.35399
5.35518
5.35437
5.35152
5.34696
5.3411
5.33394
5.32518
5.31526
5.30462
5.29259
5.27871
5.2624
5.2436
5.22266
5.20046
5.17595
5.14746
5.11204
5.06945
5.01829
4.96035
4.89347
4.81685
4.72624
4.61574
4.479
4.30301
4.08721
3.79537
3.45782
3.08583
1.40001
1.40001
1.40001
1.40001
1.40001
1.40001
1.40001
1.40001
1.40001
1.40001
1.40001
1.40001
1.40001
1.40001
1.40001
1.40001
1.40001
1.40001
1.40001
1.40001
1.40001
1.40001
1.40001
1.40001
1.40001
1.40001
1.40001
1.40001
1.40001
1.40001
1.40001
1.40001
1.40001
1.40001
1.40001
1.40001
1.40001
1.40001
1.40001
1.40001
1.40001
1.40001
1.40001
1.40001
1.40001
1.40001
1.40001
1.40001
1.40001
1.40001
1.40001
1.40001
1.4
2.0798
4.81627
5.33453
5.31098
5.31552
5.31682
5.31743
5.32002
5.32489
5.32817
5.33011
5.33036
5.32918
5.32519
5.31894
5.31145
5.30343
5.29475
5.28448
5.27218
5.25754
5.24094
5.22316
5.20366
5.18228
5.15814
5.13171
5.10175
5.06746
5.02653
4.97902
4.92345
4.85999
4.7868
4.70226
4.60426
4.48835
4.35147
4.18189
3.98461
3.74431
3.47464
3.18813
1.40001
1.40001
1.40001
1.40001
1.40001
1.40001
1.40001
1.40001
1.40001
1.40001
1.40001
1.40001
1.40001
1.40001
1.40001
1.40001
1.40001
1.40001
1.40001
1.40001
1.40001
1.40001
1.40001
1.40001
1.40001
1.40001
1.40001
1.40001
1.40001
1.40001
1.40001
1.40001
1.40001
1.40001
1.40001
1.40001
1.40001
1.40001
1.40001
1.40001
1.40001
1.40001
1.40001
1.40001
1.40001
1.40001
1.40001
1.40001
1.40001
1.40001
1.40001
1.40001
1.4
1.43274
3.58437
5.25262
5.28076
5.29085
5.29269
5.29492
5.2987
5.30407
5.307
5.30752
5.30576
5.30268
5.2962
5.2872
5.27723
5.26669
5.25552
5.24345
5.22943
5.21243
5.19246
5.17068
5.14727
5.12291
5.09609
5.06635
5.03177
4.99193
4.9457
4.89366
4.83498
4.76879
4.69327
4.60601
4.50593
4.38887
4.25662
4.0984
3.9243
3.72537
3.50414
3.27333
1.40001
1.40001
1.40001
1.40001
1.40001
1.40001
1.40001
1.40001
1.40001
1.40001
1.40001
1.40001
1.40001
1.40001
1.40001
1.40001
1.40001
1.40001
1.40001
1.40001
1.40001
1.40001
1.40001
1.40001
1.40001
1.40001
1.40001
1.40001
1.40001
1.40001
1.40001
1.40001
1.40001
1.40001
1.40001
1.40001
1.40001
1.40001
1.40001
1.40001
1.40001
1.40001
1.40001
1.40001
1.40001
1.40001
1.40001
1.40001
1.40001
1.40001
1.40001
1.40001
1.40001
1.40002
2.00686
4.75712
5.29413
5.27367
5.27147
5.26967
5.27173
5.2759
5.27859
5.27808
5.27518
5.27113
5.26294
5.25161
5.24046
5.22857
5.21495
5.20104
5.1856
5.1674
5.14552
5.1207
5.09375
5.06639
5.03728
5.00501
4.96696
4.92266
4.87198
4.81586
4.75428
4.68668
4.61154
4.52602
4.42959
4.31531
4.19123
4.04508
3.89147
3.72141
3.53443
3.34164
1.40001
1.40001
1.40001
1.40001
1.40001
1.40001
1.40001
1.40001
1.40001
1.40001
1.40001
1.40001
1.40001
1.40001
1.40001
1.40001
1.40001
1.40001
1.40001
1.40001
1.40001
1.40001
1.40001
1.40001
1.40001
1.40001
1.40001
1.40001
1.40001
1.40001
1.40001
1.40001
1.40001
1.40001
1.40001
1.40001
1.40001
1.40001
1.40001
1.40001
1.40001
1.40001
1.40001
1.40001
1.40001
1.40001
1.40001
1.40001
1.40001
1.40001
1.40001
1.40001
1.40001
1.40001
1.42391
3.35145
5.16162
5.24165
5.24134
5.24198
5.24796
5.25302
5.25568
5.25362
5.24884
5.24334
5.23381
5.22121
5.20909
5.19538
5.17912
5.16257
5.14453
5.12443
5.10093
5.07406
5.04481
5.01516
4.98395
4.94923
4.90841
4.86109
4.80761
4.74863
4.68441
4.61513
4.54023
4.45751
4.36646
4.25992
4.14569
4.0136
3.87665
3.72754
3.56411
3.39772
1.40001
1.40001
1.40001
1.40001
1.40001
1.40001
1.40001
1.40001
1.40001
1.40001
1.40001
1.40001
1.40001
1.40001
1.40001
1.40001
1.40001
1.40001
1.40001
1.40001
1.40001
1.40001
1.40001
1.40001
1.40001
1.40001
1.40001
1.40001
1.40001
1.40001
1.40001
1.40001
1.40001
1.40001
1.40001
1.40001
1.40001
1.40001
1.40001
1.40001
1.40001
1.40001
1.40001
1.40001
1.40001
1.40001
1.40001
1.40001
1.40001
1.40001
1.40001
1.40001
1.40001
1.40001
1.40002
1.73489
4.53477
5.27977
5.2522
5.23908
5.23262
5.22978
5.22751
5.22218
5.21485
5.20717
5.19651
5.18365
5.17103
5.15736
5.14061
5.12311
5.1033
5.08176
5.05722
5.0293
4.99868
4.96721
4.93399
4.89717
4.85451
4.80557
4.75112
4.69123
4.62598
4.55567
4.48132
4.40003
4.31346
4.21639
4.11194
3.99563
3.87286
3.73924
3.59417
3.447
1.40001
1.40001
1.40001
1.40001
1.40001
1.40001
1.40001
1.40001
1.40001
1.40001
1.40001
1.40001
1.40001
1.40001
1.40001
1.40001
1.40001
1.40001
1.40001
1.40001
1.40001
1.40001
1.40001
1.40001
1.40001
1.40001
1.40001
1.40001
1.40001
1.40001
1.40001
1.40001
1.40001
1.40001
1.40001
1.40001
1.40001
1.40001
1.40001
1.40001
1.40001
1.40001
1.40001
1.40001
1.40001
1.40001
1.40001
1.40001
1.40001
1.40001
1.40001
1.40001
1.40001
1.40001
1.40001
1.40607
2.9289
5.03372
5.18627
5.19335
5.19879
5.19735
5.19423
5.18805
5.17883
5.16899
5.15682
5.1438
5.13122
5.11826
5.10227
5.08508
5.06389
5.04062
5.01488
4.98634
4.95504
4.92243
4.88736
4.84879
4.80501
4.75556
4.70166
4.64285
4.57875
4.5089
4.43593
4.35417
4.2704
4.18032
4.08518
3.98314
3.8712
3.75199
3.62475
3.49214
1.40001
1.40001
1.40001
1.40001
1.40001
1.40001
1.40001
1.40001
1.40001
1.40001
1.40001
1.40001
1.40001
1.40001
1.40001
1.40001
1.40001
1.40001
1.40001
1.40001
1.40001
1.40001
1.40001
1.40001
1.40001
1.40001
1.40001
1.40001
1.40001
1.40001
1.40001
1.40001
1.40001
1.40001
1.40001
1.40001
1.40001
1.40001
1.40001
1.40001
1.40001
1.40001
1.40001
1.40001
1.40001
1.40001
1.40001
1.40001
1.40001
1.40001
1.40001
1.40001
1.40001
1.40001
1.40001
1.40001
1.55029
3.97961
5.17499
5.1859
5.17972
5.17374
5.17012
5.1631
5.1525
5.14002
5.12516
5.10988
5.09584
5.08228
5.06693
5.05023
5.02834
5.00389
4.97706
4.94656
4.91447
4.88066
4.84394
4.80431
4.7602
4.71078
4.6578
4.60052
4.53917
4.47108
4.40075
4.32037
4.23938
4.15423
4.06578
3.972
3.86878
3.76374
3.65173
3.53018
1.40001
1.40001
1.40001
1.40001
1.40001
1.40001
1.40001
1.40001
1.40001
1.40001
1.40001
1.40001
1.40001
1.40001
1.40001
1.40001
1.40001
1.40001
1.40001
1.40001
1.40001
1.40001
1.40001
1.40001
1.40001
1.40001
1.40001
1.40001
1.40001
1.40001
1.40001
1.40001
1.40001
1.40001
1.40001
1.40001
1.40001
1.40001
1.40001
1.40001
1.40001
1.40001
1.40001
1.40001
1.40001
1.40001
1.40001
1.40001
1.40001
1.40001
1.40001
1.40001
1.40001
1.40001
1.40001
1.40001
1.40109
2.10772
4.75043
5.18197
5.15561
5.15355
5.14716
5.13975
5.12843
5.11412
5.09785
5.0806
5.06444
5.04896
5.03279
5.01555
4.99335
4.96853
4.9409
4.90879
4.87509
4.84043
4.80245
4.76273
4.71888
4.67017
4.61795
4.56235
4.50549
4.43919
4.37194
4.29591
4.21835
4.13727
4.05322
3.96393
3.86947
3.77516
3.67334
3.5631
1.40001
1.40001
1.40001
1.40001
1.40001
1.40001
1.40001
1.40001
1.40001
1.40001
1.40001
1.40001
1.40001
1.40001
1.40001
1.40001
1.40001
1.40001
1.40001
1.40001
1.40001
1.40001
1.40001
1.40001
1.40001
1.40001
1.40001
1.40001
1.40001
1.40001
1.40001
1.40001
1.40001
1.40001
1.40001
1.40001
1.40001
1.40001
1.40001
1.40001
1.40001
1.40001
1.40001
1.40001
1.40001
1.40001
1.40001
1.40001
1.40001
1.40001
1.40001
1.40001
1.40001
1.40001
1.40001
1.40001
1.40001
1.42981
3.08873
5.03939
5.13833
5.13503
5.12961
5.1212
5.10864
5.09344
5.07697
5.05855
5.04008
5.0221
5.0036
4.98404
4.96074
4.93461
4.90708
4.87404
4.8392
4.80345
4.76606
4.72612
4.68301
4.63601
4.58478
4.53107
4.47539
4.41234
4.3479
4.27672
4.2034
4.12614
4.04619
3.96155
3.87532
3.78651
3.6923
3.59349
1.40001
1.40001
1.40001
1.40001
1.40001
1.40001
1.40001
1.40001
1.40001
1.40001
1.40001
1.40001
1.40001
1.40001
1.40001
1.40001
1.40001
1.40001
1.40001
1.40001
1.40001
1.40001
1.40001
1.40001
1.40001
1.40001
1.40001
1.40001
1.40001
1.40001
1.40001
1.40001
1.40001
1.40001
1.40001
1.40001
1.40001
1.40001
1.40001
1.40001
1.40001
1.40001
1.40001
1.40001
1.40001
1.40001
1.40001
1.40001
1.40001
1.40001
1.40001
1.40001
1.40001
1.40001
1.40001
1.40001
1.40001
1.40007
1.57581
3.78145
5.0862
5.13433
5.12651
5.11525
5.09938
5.08087
5.06281
5.04306
5.02177
5.00089
4.97955
4.95703
4.9315
4.90338
4.87572
4.84279
4.80758
4.77075
4.73299
4.69326
4.65096
4.60512
4.55644
4.50377
4.44825
4.38885
4.32648
4.2598
4.19054
4.11737
4.04189
3.96284
3.88422
3.79955
3.71262
3.62315
1.40001
1.40001
1.40001
1.40001
1.40001
1.40001
1.40001
1.40001
1.40001
1.40001
1.40001
1.40001
1.40001
1.40001
1.40001
1.40001
1.40001
1.40001
1.40001
1.40001
1.40001
1.40001
1.40001
1.40001
1.40001
1.40001
1.40001
1.40001
1.40001
1.40001
1.40001
1.40001
1.40001
1.40001
1.40001
1.40001
1.40001
1.40001
1.40001
1.40001
1.40001
1.40001
1.40001
1.40001
1.40001
1.40001
1.40001
1.40001
1.40001
1.40001
1.40001
1.40001
1.40001
1.40001
1.40001
1.40001
1.40001
1.40001
1.40162
1.7994
4.47268
5.17019
5.14174
5.11572
5.08729
5.06214
5.04011
5.01971
4.99882
4.97712
4.95541
4.93202
4.90508
4.87555
4.84678
4.81458
4.77902
4.74191
4.70373
4.66487
4.62307
4.57909
4.53191
4.48146
4.42773
4.3706
4.30969
4.2462
4.17955
4.1101
4.03857
3.96515
3.89233
3.81309
3.73322
3.65104
1.40001
1.40001
1.40001
1.40001
1.40001
1.40001
1.40001
1.40001
1.40001
1.40001
1.40001
1.40001
1.40001
1.40001
1.40001
1.40001
1.40001
1.40001
1.40001
1.40001
1.40001
1.40001
1.40001
1.40001
1.40001
1.40001
1.40001
1.40001
1.40001
1.40001
1.40001
1.40001
1.40001
1.40001
1.40001
1.40001
1.40001
1.40001
1.40001
1.40001
1.40001
1.40001
1.40001
1.40001
1.40001
1.40001
1.40001
1.40001
1.40001
1.40001
1.40001
1.40001
1.40001
1.40001
1.40001
1.40001
1.40001
1.40001
1.40001
1.40869
2.56639
4.89843
5.10099
5.07025
5.04964
5.0308
5.0138
4.99619
4.97758
4.95716
4.93448
4.911
4.88338
4.85306
4.82372
4.79113
4.75561
4.71834
4.67979
4.63984
4.59867
4.55589
4.51034
4.46207
4.4103
4.35519
4.29618
4.23508
4.17076
4.10445
4.03625
3.96745
3.89903
3.82602
3.75245
3.67664
1.40001
1.40001
1.40001
1.40001
1.40001
1.40001
1.40001
1.40001
1.40001
1.40001
1.40001
1.40001
1.40001
1.40001
1.40001
1.40001
1.40001
1.40001
1.40001
1.40001
1.40001
1.40001
1.40001
1.40001
1.40001
1.40001
1.40001
1.40001
1.40001
1.40001
1.40001
1.40001
1.40001
1.40001
1.40001
1.40001
1.40001
1.40001
1.40001
1.40001
1.40001
1.40001
1.40001
1.40001
1.40001
1.40001
1.40001
1.40001
1.40001
1.40001
1.40001
1.40001
1.40001
1.40001
1.40001
1.40001
1.40001
1.40001
1.40001
1.40002
1.47933
3.20205
4.98042
5.03555
5.0226
5.01973
5.0091
4.99338
4.97447
4.95294
4.92859
4.90358
4.87501
4.84348
4.81181
4.77685
4.7396
4.70114
4.66137
4.62076
4.57889
4.53661
4.49261
4.44586
4.39588
4.34272
4.28602
4.22708
4.16542
4.10197
4.03664
3.9705
3.90494
3.83735
3.76921
3.69893
1.40001
1.40001
1.40001
1.40001
1.40001
1.40001
1.40001
1.40001
1.40001
1.40001
1.40001
1.40001
1.40001
1.40001
1.40001
1.40001
1.40001
1.40001
1.40001
1.40001
1.40001
1.40001
1.40001
1.40001
1.40001
1.40001
1.40001
1.40001
1.40001
1.40001
1.40001
1.40001
1.40001
1.40001
1.40001
1.40001
1.40001
1.40001
1.40001
1.40001
1.40001
1.40001
1.40001
1.40001
1.40001
1.40001
1.40001
1.40001
1.40001
1.40001
1.40001
1.40001
1.40001
1.40001
1.40001
1.40001
1.40001
1.40001
1.40001
1.40001
1.40042
1.60056
3.58492
4.98455
5.01245
5.00835
5.00119
4.98716
4.96908
4.94738
4.92264
4.89633
4.86707
4.83534
4.80188
4.76563
4.72746
4.68807
4.64731
4.60572
4.56389
4.52122
4.4774
4.43153
4.38292
4.33143
4.27686
4.21997
4.16107
4.10041
4.03782
3.97422
3.91121
3.8479
3.78434
3.71813
1.40001
1.40001
1.40001
1.40001
1.40001
1.40001
1.40001
1.40001
1.40001
1.40001
1.40001
1.40001
1.40001
1.40001
1.40001
1.40001
1.40001
1.40001
1.40001
1.40001
1.40001
1.40001
1.40001
1.40001
1.40001
1.40001
1.40001
1.40001
1.40001
1.40001
1.40001
1.40001
1.40001
1.40001
1.40001
1.40001
1.40001
1.40001
1.40001
1.40001
1.40001
1.40001
1.40001
1.40001
1.40001
1.40001
1.40001
1.40001
1.40001
1.40001
1.40001
1.40001
1.40001
1.40001
1.40001
1.40001
1.40001
1.40001
1.40001
1.40001
1.40001
1.40225
1.72164
3.90556
5.01287
5.01169
4.99658
4.97994
4.96085
4.93806
4.91332
4.88739
4.8589
4.8277
4.79413
4.75805
4.72
4.68037
4.63926
4.59739
4.55559
4.51313
4.46901
4.42267
4.37429
4.32381
4.27077
4.21553
4.15866
4.09998
4.03961
3.97883
3.91849
3.85848
3.7987
3.73573
1.40001
1.40001
1.40001
1.40001
1.40001
1.40001
1.40001
1.40001
1.40001
1.40001
1.40001
1.40001
1.40001
1.40001
1.40001
1.40001
1.40001
1.40001
1.40001
1.40001
1.40001
1.40001
1.40001
1.40001
1.40001
1.40001
1.40001
1.40001
1.40001
1.40001
1.40001
1.40001
1.40001
1.40001
1.40001
1.40001
1.40001
1.40001
1.40001
1.40001
1.40001
1.40001
1.40001
1.40001
1.40001
1.40001
1.40001
1.40001
1.40001
1.40001
1.40001
1.40001
1.40001
1.40001
1.40001
1.40001
1.40001
1.40001
1.40001
1.40001
1.40001
1.40001
1.40564
1.85742
4.18769
5.0184
5.00334
4.98122
4.95708
4.93184
4.90475
4.8772
4.84771
4.81632
4.78303
4.74778
4.71092
4.67248
4.63256
4.59175
4.55048
4.50841
4.46469
4.41828
4.36971
4.31971
4.26759
4.21365
4.15806
4.10073
4.04262
3.98509
3.9274
3.86991
3.81279
3.75278
1.40001
1.40001
1.40001
1.40001
1.40001
1.40001
1.40001
1.40001
1.40001
1.40001
1.40001
1.40001
1.40001
1.40001
1.40001
1.40001
1.40001
1.40001
1.40001
1.40001
1.40001
1.40001
1.40001
1.40001
1.40001
1.40001
1.40001
1.40001
1.40001
1.40001
1.40001
1.40001
1.40001
1.40001
1.40001
1.40001
1.40001
1.40001
1.40001
1.40001
1.40001
1.40001
1.40001
1.40001
1.40001
1.40001
1.40001
1.40001
1.40001
1.40001
1.40001
1.40001
1.40001
1.40001
1.40001
1.40001
1.40001
1.40001
1.40001
1.40001
1.40001
1.40001
1.40002
1.4113
2.01048
4.39284
5.02802
5.00246
4.97262
4.94044
4.90872
4.87666
4.84294
4.80896
4.77413
4.73862
4.7025
4.66536
4.62712
4.58804
4.54811
4.50698
4.46394
4.4181
4.36975
4.3198
4.2682
4.21532
4.16094
4.10532
4.04952
3.99508
3.93981
3.88376
3.82805
3.7706
1.40001
1.40001
1.40001
1.40001
1.40001
1.40001
1.40001
1.40001
1.40001
1.40001
1.40001
1.40001
1.40001
1.40001
1.40001
1.40001
1.40001
1.40001
1.40001
1.40001
1.40001
1.40001
1.40001
1.40001
1.40001
1.40001
1.40001
1.40001
1.40001
1.40001
1.40001
1.40001
1.40001
1.40001
1.40001
1.40001
1.40001
1.40001
1.40001
1.40001
1.40001
1.40001
1.40001
1.40001
1.40001
1.40001
1.40001
1.40001
1.40001
1.40001
1.40001
1.40001
1.40001
1.40001
1.40001
1.40001
1.40001
1.40001
1.40001
1.40001
1.40001
1.40001
1.40001
1.40004
1.42015
2.15807
4.57213
5.02552
4.99533
4.96089
4.92143
4.88371
4.84655
4.80936
4.77164
4.73452
4.69773
4.66064
4.62292
4.58453
4.54525
4.50464
4.46205
4.41706
4.36989
4.32127
4.2712
4.22016
4.16756
4.11379
4.05983
4.00762
3.9544
3.89895
3.84406
3.78865
1.40001
1.40001
1.40001
1.40001
1.40001
1.40001
1.40001
1.40001
1.40001
1.40001
1.40001
1.40001
1.40001
1.40001
1.40001
1.40001
1.40001
1.40001
1.40001
1.40001
1.40001
1.40001
1.40001
1.40001
1.40001
1.40001
1.40001
1.40001
1.40001
1.40001
1.40001
1.40001
1.40001
1.40001
1.40001
1.40001
1.40001
1.40001
1.40001
1.40001
1.40001