/*--------------------------------*- C++ -*----------------------------------*\
  =========                 |
  \\      /  F ield         | OpenFOAM: The Open Source CFD Toolbox
   \\    /   O peration     | Website:  https://openfoam.org
    \\  /    A nd           | Version:  7
     \\/     M anipulation  |
\*---------------------------------------------------------------------------*/
FoamFile
{
    version     2.0;
    format      ascii;
    class       volScalarField;
    location    "6.8";
    object      T;
}
// * * * * * * * * * * * * * * * * * * * * * * * * * * * * * * * * * * * * * //

dimensions      [0 0 0 1 0 0 0];

internalField   nonuniform List<scalar> 
19968
(
1
1
1
1
1
1
1
1
1
1
1
1
1
1
1
1
1
1
1
1
1
1
1
1
1
1
1
1
1
1
1
1
1
1
1
1
1
1
1
1
1
1
1
1
1
1
1
1
1.2729
2.4567
2.69419
2.69469
2.69723
2.70004
2.70351
2.70788
2.71314
2.71868
2.72366
2.72757
2.73049
2.73303
2.73588
2.73939
2.74341
2.74733
2.75065
2.75336
2.7558
2.7584
2.7614
2.76472
2.76804
2.77103
2.7736
2.77588
2.77805
2.78022
2.78239
2.78451
2.78652
2.78839
2.7901
2.79167
2.79315
2.79455
2.79588
2.79712
2.79825
2.79928
2.80026
2.80126
2.80228
2.80321
2.80393
2.80445
1
1
1
1
1
1
1
1
1
1
1
1
1
1
1
1
1
1
1
1
1
1
1
1
1
1
1
1
1
1
1
1
1
1
1
1
1
1
1
1
1
1
1
1
1
1
1
1
1.26034
2.45064
2.69353
2.69422
2.6969
2.69985
2.70348
2.70793
2.71315
2.71856
2.72336
2.72716
2.73003
2.73264
2.73556
2.73913
2.74318
2.7471
2.75041
2.7531
2.75552
2.75812
2.76112
2.76444
2.76774
2.77072
2.77328
2.77557
2.77776
2.77995
2.78214
2.78426
2.78625
2.78809
2.78977
2.79133
2.7928
2.79421
2.79554
2.79677
2.79788
2.79888
2.79985
2.80083
2.80182
2.80272
2.80342
2.80391
1
1
1
1
1
1
1
1
1
1
1
1
1
1
1
1
1
1
1
1
1
1
1
1
1
1
1
1
1
1
1
1
1
1
1
1
1
1
1
1
1
1
1
1
1
1
1
1
1.23005
2.43477
2.69196
2.69286
2.69597
2.69936
2.70336
2.70795
2.71306
2.71813
2.72255
2.72612
2.72897
2.73173
2.73487
2.73861
2.74272
2.74661
2.74987
2.75252
2.75493
2.75753
2.76054
2.76386
2.76716
2.77012
2.77267
2.77497
2.77719
2.77943
2.78165
2.78377
2.78573
2.78752
2.78916
2.79071
2.7922
2.79363
2.79497
2.79619
2.79727
2.79826
2.79922
2.80018
2.80114
2.80201
2.80267
2.80314
1
1
1
1
1
1
1
1
1
1
1
1
1
1
1
1
1
1
1
1
1
1
1
1
1
1
1
1
1
1
1
1
1
1
1
1
1
1
1
1
1
1
1
1
1
1
1
1
1.18574
2.40814
2.68928
2.69142
2.69525
2.69923
2.70357
2.70816
2.71293
2.71747
2.72139
2.72472
2.72759
2.73061
2.73406
2.73802
2.74218
2.746
2.74916
2.75176
2.75416
2.75677
2.75978
2.76308
2.76633
2.76925
2.77181
2.77413
2.7764
2.7787
2.78095
2.78306
2.78497
2.78668
2.78826
2.78977
2.79125
2.79268
2.794
2.79518
2.79623
2.79718
2.79811
2.79906
2.80002
2.80087
2.80151
2.80197
1
1
1
1
1
1
1
1
1
1
1
1
1
1
1
1
1
1
1
1
1
1
1
1
1
1
1
1
1
1
1
1
1
1
1
1
1
1
1
1
1
1
1
1
1
1
1
1
1.12655
2.36991
2.68614
2.69007
2.69482
2.69942
2.70405
2.7085
2.71274
2.71668
2.72013
2.72329
2.72629
2.72961
2.73337
2.73746
2.74157
2.74524
2.74831
2.75089
2.75331
2.75596
2.75897
2.7622
2.76536
2.76822
2.77077
2.77315
2.7755
2.77786
2.78014
2.78223
2.78408
2.78572
2.78725
2.78873
2.79021
2.79163
2.79292
2.79403
2.79497
2.79581
2.79663
2.79748
2.79834
2.79913
2.79971
2.80013
1
1
1
1
1
1
1
1
1
1
1
1
1
1
1
1
1
1
1
1
1
1
1
1
1
1
1
1
1
1
1
1
1
1
1
1
1
1
1
1
1
1
1
1
1
1
1
1
1.01588
2.30426
2.68403
2.69014
2.69514
2.70028
2.70494
2.70916
2.71287
2.71614
2.71916
2.72224
2.72548
2.72917
2.7332
2.73727
2.74114
2.74451
2.74738
2.7499
2.75234
2.755
2.75793
2.76099
2.76394
2.76665
2.76915
2.77155
2.77395
2.77633
2.7786
2.78064
2.78241
2.78398
2.78545
2.78691
2.7884
2.78986
2.79117
2.79227
2.79318
2.79396
2.79473
2.79553
2.79634
2.7971
2.79766
2.79807
1
1
1
1
1
1
1
1
1
1
1
1
1
1
1
1
1
1
1
1
1
1
1
1
1
1
1
1
1
1
1
1
1
1
1
1
1
1
1
1
1
1
1
1
1
1
1
1
1.00011
2.21526
2.67836
2.6871
2.692
2.69755
2.70221
2.7064
2.70996
2.71301
2.71596
2.71918
2.72274
2.72677
2.73107
2.73517
2.73888
2.74203
2.74481
2.74738
2.74995
2.7527
2.75561
2.75853
2.76131
2.76392
2.76642
2.76891
2.77141
2.77387
2.77615
2.77816
2.77988
2.78141
2.78285
2.78432
2.78585
2.78735
2.7887
2.78981
2.79067
2.79139
2.79206
2.79277
2.79351
2.79422
2.79477
2.79517
1
1
1
1
1
1
1
1
1
1
1
1
1
1
1
1
1
1
1
1
1
1
1
1
1
1
1
1
1
1
1
1
1
1
1
1
1
1
1
1
1
1
1
1
1
1
1
1
1
2.08602
2.6679
2.68392
2.6885
2.69417
2.69879
2.70306
2.7067
2.70994
2.71311
2.71646
2.72007
2.72406
2.72832
2.73237
2.73603
2.73919
2.74205
2.74478
2.74749
2.75031
2.75316
2.75593
2.75853
2.76103
2.76352
2.76607
2.76865
2.77114
2.77339
2.77533
2.77698
2.77843
2.77983
2.78128
2.78282
2.78434
2.78571
2.7868
2.78761
2.78823
2.78879
2.78938
2.79002
2.79066
2.79117
2.79156
1
1
1
1
1
1
1
1
1
1
1
1
1
1
1
1
1
1
1
1
1
1
1
1
1
1
1
1
1
1
1
1
1
1
1
1
1
1
1
1
1
1
1
1
1
1
1
1
1
1.90947
2.63867
2.67651
2.68237
2.68863
2.69353
2.69801
2.70191
2.70553
2.70905
2.71263
2.71633
2.72021
2.72432
2.72829
2.73192
2.73515
2.73817
2.74105
2.74385
2.74666
2.74941
2.75204
2.75449
2.75691
2.75941
2.76203
2.76468
2.76719
2.76943
2.7713
2.77287
2.77427
2.77562
2.77705
2.77858
2.78013
2.78153
2.78263
2.78342
2.78398
2.78446
2.78496
2.78551
2.7861
2.78656
2.78691
1
1
1
1
1
1
1
1
1
1
1
1
1
1
1
1
1
1
1
1
1
1
1
1
1
1
1
1
1
1
1
1
1
1
1
1
1
1
1
1
1
1
1
1
1
1
1
1
1
1.67821
2.58109
2.66907
2.67731
2.68375
2.68863
2.69291
2.69677
2.70054
2.70429
2.70804
2.71184
2.71567
2.71962
2.72348
2.7271
2.73047
2.73366
2.7367
2.73954
2.74229
2.74491
2.74737
2.74968
2.75199
2.75444
2.75704
2.75967
2.76213
2.76427
2.76605
2.76756
2.76891
2.77026
2.7717
2.77325
2.77482
2.77623
2.77731
2.77804
2.77849
2.77885
2.77922
2.77964
2.78013
2.78051
2.78076
1
1
1
1
1
1
1
1
1
1
1
1
1
1
1
1
1
1
1
1
1
1
1
1
1
1
1
1
1
1
1
1
1
1
1
1
1
1
1
1
1
1
1
1
1
1
1
1
1
1.36607
2.4738
2.67079
2.67241
2.67887
2.68336
2.68747
2.69128
2.69507
2.6989
2.70272
2.70655
2.71037
2.71423
2.71805
2.72169
2.72512
2.72836
2.73149
2.73437
2.73712
2.73967
2.74202
2.74425
2.74649
2.7489
2.75145
2.75401
2.75634
2.75831
2.7599
2.76121
2.7624
2.76359
2.76486
2.76624
2.76765
2.76893
2.76992
2.77057
2.77098
2.77131
2.77165
2.77205
2.77251
2.77286
2.77308
1
1
1
1
1
1
1
1
1
1
1
1
1
1
1
1
1
1
1
1
1
1
1
1
1
1
1
1
1
1
1
1
1
1
1
1
1
1
1
1
1
1
1
1
1
1
1
1
1
1.01462
2.29436
2.67793
2.67762
2.67994
2.68283
2.68599
2.68908
2.69212
2.69522
2.69846
2.70186
2.70539
2.7089
2.71233
2.7156
2.71872
2.72171
2.72466
2.72742
2.73003
2.7325
2.73474
2.73689
2.73904
2.74135
2.74382
2.74631
2.74856
2.75042
2.75189
2.75311
2.75423
2.75537
2.75659
2.7579
2.75923
2.7604
2.76124
2.76169
2.76179
2.76174
2.76167
2.76166
2.76175
2.76189
2.76201
1
1
1
1
1
1
1
1
1
1
1
1
1
1
1
1
1
1
1
1
1
1
1
1
1
1
1
1
1
1
1
1
1
1
1
1
1
1
1
1
1
1
1
1
1
1
1
1
1
1.00003
2.01327
2.64652
2.66212
2.66636
2.67134
2.67585
2.67976
2.68317
2.68633
2.68951
2.69276
2.69618
2.69966
2.70304
2.70625
2.7093
2.71212
2.71487
2.71754
2.72012
2.72266
2.72499
2.72717
2.72926
2.73146
2.73382
2.73623
2.73843
2.74022
2.74156
2.74261
2.74352
2.74442
2.74533
2.74627
2.74716
2.74785
2.74816
2.74813
2.7479
2.74761
2.74744
2.74737
2.74739
2.74733
2.74737
1
1
1
1
1
1
1
1
1
1
1
1
1
1
1
1
1
1
1
1
1
1
1
1
1
1
1
1
1
1
1
1
1
1
1
1
1
1
1
1
1
1
1
1
1
1
1
1
1
1
1.54106
2.51549
2.64695
2.65447
2.66215
2.66754
2.672
2.67584
2.67935
2.68271
2.68597
2.68924
2.69258
2.69585
2.69893
2.70178
2.70426
2.7065
2.70872
2.71093
2.71324
2.71546
2.71744
2.71924
2.72101
2.72292
2.72495
2.72688
2.72845
2.72954
2.73027
2.73077
2.73118
2.73161
2.73215
2.73272
2.73309
2.73315
2.73283
2.73218
2.73121
2.73
2.72818
2.7257
2.72288
2.72062
1
1
1
1
1
1
1
1
1
1
1
1
1
1
1
1
1
1
1
1
1
1
1
1
1
1
1
1
1
1
1
1
1
1
1
1
1
1
1
1
1
1
1
1
1
1
1
1
1
1
1.02731
2.25183
2.65708
2.65622
2.65761
2.66028
2.66353
2.66709
2.6706
2.67389
2.6769
2.6798
2.68286
2.68601
2.68901
2.69176
2.69408
2.69595
2.69769
2.69946
2.70137
2.70336
2.70515
2.70665
2.7079
2.70917
2.71061
2.71213
2.71346
2.71436
2.71457
2.71441
2.71399
2.71353
2.71316
2.71274
2.71192
2.71045
2.70813
2.70503
2.70137
2.69741
2.69368
2.68976
2.68691
2.68535
1
1
1
1
1
1
1
1
1
1
1
1
1
1
1
1
1
1
1
1
1
1
1
1
1
1
1
1
1
1
1
1
1
1
1
1
1
1
1
1
1
1
1
1
1
1
1
1
1
1
1.00005
1.76234
2.56235
2.63451
2.64003
2.64449
2.64877
2.65326
2.65748
2.66107
2.66411
2.667
2.67009
2.67345
2.67683
2.67994
2.68249
2.68433
2.68569
2.68699
2.68842
2.69007
2.69171
2.69298
2.6935
2.69385
2.69424
2.69485
2.69563
2.69608
2.69587
2.69492
2.69326
2.69132
2.68938
2.68735
2.68493
2.68182
2.67782
2.67297
2.66735
2.6613
2.65535
2.65255
2.64927
2.66368
1
1
1
1
1
1
1
1
1
1
1
1
1
1
1
1
1
1
1
1
1
1
1
1
1
1
1
1
1
1
1
1
1
1
1
1
1
1
1
1
1
1
1
1
1
1
1
1
1
1
1
1.12022
2.34871
2.6315
2.63081
2.6333
2.63728
2.64188
2.64627
2.64993
2.6529
2.6556
2.65846
2.66169
2.66518
2.66848
2.67119
2.67305
2.6742
2.67509
2.67608
2.67733
2.67875
2.67971
2.67984
2.6794
2.67863
2.67811
2.67804
2.67791
2.67719
2.67543
2.67261
2.66908
2.66517
2.66094
2.65605
2.65004
2.64208
2.63153
2.61664
2.59608
2.56575
2.52285
2.45881
2.33293
1
1
1
1
1
1
1
1
1
1
1
1
1
1
1
1
1
1
1
1
1
1
1
1
1
1
1
1
1
1
1
1
1
1
1
1
1
1
1
1
1
1
1
1
1
1
1
1
1
1
1
1.00116
2.01504
2.59731
2.61318
2.61758
2.62329
2.62879
2.63349
2.63706
2.64006
2.64275
2.64557
2.64878
2.65238
2.656
2.65915
2.66144
2.66286
2.66357
2.66425
2.66517
2.66638
2.66737
2.66739
2.66664
2.66514
2.66358
2.66243
2.66139
2.65992
2.65746
2.65374
2.64883
2.64296
2.6364
2.62876
2.61971
2.60773
2.59203
2.56943
2.53894
2.49419
2.43759
2.32376
2.16062
1
1
1
1
1
1
1
1
1
1
1
1
1
1
1
1
1
1
1
1
1
1
1
1
1
1
1
1
1
1
1
1
1
1
1
1
1
1
1
1
1
1
1
1
1
1
1
1
1
1
1
0.999999
1.38949
2.42576
2.59772
2.60287
2.61032
2.6162
2.62159
2.62565
2.62886
2.63134
2.63372
2.63657
2.63998
2.64367
2.64709
2.64969
2.65116
2.65186
2.65231
2.65284
2.6536
2.65429
2.65421
2.65335
2.65154
2.64924
2.64692
2.64465
2.64207
2.63867
2.63393
2.62774
2.61999
2.61113
2.6007
2.58854
2.57316
2.55323
2.52633
2.48952
2.44093
2.36711
2.26059
2.13193
1
1
1
1
1
1
1
1
1
1
1
1
1
1
1
1
1
1
1
1
1
1
1
1
1
1
1
1
1
1
1
1
1
1
1
1
1
1
1
1
1
1
1
1
1
1
1
1
1
1
1
1
1.01518
2.11592
2.59621
2.59559
2.59734
2.602
2.60788
2.61277
2.61648
2.61899
2.62091
2.62318
2.62622
2.62989
2.63348
2.63622
2.63789
2.63866
2.639
2.63928
2.63964
2.63986
2.63961
2.63867
2.63684
2.63425
2.63114
2.62776
2.62398
2.6195
2.6137
2.60637
2.59713
2.5863
2.57348
2.5585
2.54043
2.5178
2.48895
2.45045
2.40158
2.33214
2.24683
2.14959
1
1
1
1
1
1
1
1
1
1
1
1
1
1
1
1
1
1
1
1
1
1
1
1
1
1
1
1
1
1
1
1
1
1
1
1
1
1
1
1
1
1
1
1
1
1
1
1
1
1
1
1
1.00001
1.45304
2.43745
2.58734
2.58762
2.59313
2.59901
2.60305
2.60562
2.60729
2.60841
2.60999
2.61242
2.61568
2.61905
2.6218
2.62351
2.62427
2.62456
2.62477
2.62495
2.62489
2.62437
2.6232
2.62125
2.61856
2.61507
2.61098
2.6062
2.60064
2.59376
2.58541
2.57518
2.56305
2.54869
2.53176
2.51179
2.48763
2.45839
2.42089
2.37572
2.31817
2.25041
2.17431
1
1
1
1
1
1
1
1
1
1
1
1
1
1
1
1
1
1
1
1
1
1
1
1
1
1
1
1
1
1
1
1
1
1
1
1
1
1
1
1
1
1
1
1
1
1
1
1
1
1
1
1
1
1.01985
2.114
2.58293
2.58496
2.5879
2.59107
2.59379
2.59547
2.59634
2.59672
2.59752
2.59899
2.60166
2.60469
2.60733
2.60893
2.6093
2.60914
2.60902
2.60903
2.60891
2.60828
2.60696
2.60487
2.60211
2.59848
2.59402
2.58855
2.58205
2.57423
2.56503
2.55417
2.5414
2.52639
2.50862
2.48785
2.46302
2.43438
2.39908
2.35902
2.31148
2.25643
2.19641
1
1
1
1
1
1
1
1
1
1
1
1
1
1
1
1
1
1
1
1
1
1
1
1
1
1
1
1
1
1
1
1
1
1
1
1
1
1
1
1
1
1
1
1
1
1
1
1
1
1
1
1
1
1.00002
1.40326
2.40615
2.57519
2.5778
2.58192
2.58437
2.58538
2.58533
2.58517
2.58529
2.58599
2.58801
2.59052
2.59273
2.59406
2.59393
2.59318
2.59247
2.59207
2.59179
2.59115
2.58984
2.58768
2.58489
2.58127
2.5767
2.57086
2.56376
2.55529
2.54548
2.53419
2.52123
2.50628
2.48875
2.46853
2.44398
2.4168
2.38393
2.34849
2.30772
2.26162
2.21259
1
1
1
1
1
1
1
1
1
1
1
1
1
1
1
1
1
1
1
1
1
1
1
1
1
1
1
1
1
1
1
1
1
1
1
1
1
1
1
1
1
1
1
1
1
1
1
1
1
1
1
1
1
1
1.01458
2.03217
2.55822
2.56883
2.57205
2.57405
2.57565
2.57563
2.57555
2.57535
2.57558
2.577
2.5789
2.58039
2.58102
2.58044
2.57875
2.57694
2.57556
2.57468
2.57375
2.57235
2.57022
2.56746
2.56384
2.55914
2.55307
2.54569
2.53702
2.52701
2.51554
2.50252
2.48783
2.47096
2.45187
2.42888
2.40371
2.37386
2.34222
2.30678
2.26669
2.22491
1
1
1
1
1
1
1
1
1
1
1
1
1
1
1
1
1
1
1
1
1
1
1
1
1
1
1
1
1
1
1
1
1
1
1
1
1
1
1
1
1
1
1
1
1
1
1
1
1
1
1
1
1
1
1.00001
1.23335
2.34454
2.56487
2.56246
2.56349
2.56418
2.56417
2.56414
2.56393
2.56413
2.56536
2.56684
2.56772
2.56786
2.56708
2.56475
2.56209
2.5597
2.55803
2.55661
2.55496
2.55271
2.54986
2.54608
2.54116
2.53492
2.52746
2.51894
2.5092
2.49802
2.48528
2.47111
2.45484
2.43688
2.41607
2.39312
2.3669
2.33859
2.30716
2.27193
2.23529
1
1
1
1
1
1
1
1
1
1
1
1
1
1
1
1
1
1
1
1
1
1
1
1
1
1
1
1
1
1
1
1
1
1
1
1
1
1
1
1
1
1
1
1
1
1
1
1
1
1
1
1
1
1
1
1.00389
1.85303
2.50617
2.54051
2.54536
2.54847
2.54967
2.5503
2.55078
2.55149
2.55298
2.55434
2.55493
2.55493
2.55408
2.5516
2.54852
2.54525
2.54266
2.54052
2.53839
2.53584
2.53272
2.52859
2.5233
2.51679
2.50923
2.50099
2.49181
2.48139
2.46933
2.45602
2.44012
2.42313
2.40415
2.38351
2.3608
2.33524
2.30737
2.27685
2.24422
1
1
1
1
1
1
1
1
1
1
1
1
1
1
1
1
1
1
1
1
1
1
1
1
1
1
1
1
1
1
1
1
1
1
1
1
1
1
1
1
1
1
1
1
1
1
1
1
1
1
1
1
1
1
1
1
1.09924
2.20809
2.53591
2.53728
2.53622
2.53593
2.53656
2.53741
2.53864
2.54053
2.54208
2.54241
2.54226
2.54138
2.53913
2.53609
2.53241
2.5292
2.52639
2.52343
2.52038
2.51679
2.51215
2.50643
2.49955
2.49169
2.48345
2.47466
2.46512
2.45391
2.44172
2.42666
2.41075
2.39328
2.37453
2.3541
2.33088
2.30664
2.28025
2.25088
1
1
1
1
1
1
1
1
1
1
1
1
1
1
1
1
1
1
1
1
1
1
1
1
1
1
1
1
1
1
1
1
1
1
1
1
1
1
1
1
1
1
1
1
1
1
1
1
1
1
1
1
1
1
1
1
1.00065
1.44763
2.36345
2.51465
2.51437
2.51707
2.51933
2.52169
2.524
2.52665
2.52888
2.52922
2.52894
2.52801
2.52602
2.52324
2.51968
2.51637
2.51324
2.50973
2.50609
2.5021
2.49697
2.49092
2.48367
2.47542
2.46682
2.45804
2.44937
2.43873
2.42756
2.41391
2.39923
2.38311
2.36577
2.34675
2.326
2.3049
2.28144
2.25546
1
1
1
1
1
1
1
1
1
1
1
1
1
1
1
1
1
1
1
1
1
1
1
1
1
1
1
1
1
1
1
1
1
1
1
1
1
1
1
1
1
1
1
1
1
1
1
1
1
1
1
1
1
1
1
1
1
1.01777
1.8904
2.46799
2.49836
2.50305
2.50584
2.50812
2.5103
2.51294
2.51537
2.51568
2.51531
2.5143
2.51239
2.50976
2.50648
2.50326
2.5004
2.49684
2.49301
2.48875
2.48364
2.47736
2.46989
2.46145
2.4524
2.44338
2.43451
2.42435
2.41383
2.40146
2.38803
2.3731
2.35701
2.33933
2.32099
2.30172
2.28057
2.25794
1
1
1
1
1
1
1
1
1
1
1
1
1
1
1
1
1
1
1
1
1
1
1
1
1
1
1
1
1
1
1
1
1
1
1
1
1
1
1
1
1
1
1
1
1
1
1
1
1
1
1
1
1
1
1
1
1
1.00003
1.11651
2.12084
2.47591
2.49601
2.49704
2.49849
2.4995
2.50064
2.50196
2.50201
2.50145
2.50021
2.4982
2.49561
2.49255
2.48951
2.48716
2.48406
2.48051
2.47628
2.47121
2.465
2.45757
2.44903
2.43997
2.43051
2.42103
2.41117
2.40083
2.38938
2.37693
2.36307
2.34817
2.332
2.31566
2.29764
2.27876
2.25884
1
1
1
1
1
1
1
1
1
1
1
1
1
1
1
1
1
1
1
1
1
1
1
1
1
1
1
1
1
1
1
1
1
1
1
1
1
1
1
1
1
1
1
1
1
1
1
1
1
1
1
1
1
1
1
1
1
1
1.00091
1.26649
2.26308
2.47842
2.48136
2.48344
2.48357
2.48397
2.48459
2.48504
2.48492
2.48411
2.48262
2.48052
2.47788
2.47522
2.47324
2.47087
2.46777
2.46392
2.4591
2.4533
2.44611
2.43793
2.42894
2.41951
2.40987
2.39999
2.38957
2.37858
2.36662
2.35357
2.33957
2.32472
2.30971
2.29298
2.27599
2.25822
1
1
1
1
1
1
1
1
1
1
1
1
1
1
1
1
1
1
1
1
1
1
1
1
1
1
1
1
1
1
1
1
1
1
1
1
1
1
1
1
1
1
1
1
1
1
1
1
1
1
1
1
1
1
1
1
1
1
1
1.0051
1.65215
2.37346
2.4581
2.45626
2.45834
2.46079
2.46318
2.465
2.46615
2.46609
2.46538
2.46425
2.46242
2.46039
2.45898
2.45717
2.45467
2.45131
2.44689
2.44129
2.43457
2.4269
2.41837
2.40933
2.39987
2.39011
2.37981
2.36913
2.35756
2.34515
2.33183
2.31791
2.30375
2.28831
2.27266
2.25652
1
1
1
1
1
1
1
1
1
1
1
1
1
1
1
1
1
1
1
1
1
1
1
1
1
1
1
1
1
1
1
1
1
1
1
1
1
1
1
1
1
1
1
1
1
1
1
1
1
1
1
1
1
1
1
1
1
1
1
1.00001
1.04849
1.90502
2.41672
2.4452
2.44469
2.44661
2.44784
2.44875
2.44939
2.44933
2.44889
2.44834
2.44731
2.44595
2.44488
2.44331
2.44107
2.43801
2.43388
2.42869
2.42241
2.41538
2.4076
2.39917
2.39024
2.38093
2.37111
2.36088
2.3499
2.33816
2.32547
2.3121
2.29845
2.28403
2.26936
2.25423
1
1
1
1
1
1
1
1
1
1
1
1
1
1
1
1
1
1
1
1
1
1
1
1
1
1
1
1
1
1
1
1
1
1
1
1
1
1
1
1
1
1
1
1
1
1
1
1
1
1
1
1
1
1
1
1
1
1
1
1
1.0002
1.13151
2.02185
2.41255
2.43567
2.43801
2.4384
2.43779
2.43691
2.43579
2.43457
2.43354
2.43241
2.43123
2.43007
2.42848
2.42629
2.42335
2.41946
2.41464
2.40903
2.40264
2.39559
2.38795
2.3798
2.37125
2.3622
2.35269
2.34256
2.33167
2.3198
2.3071
2.294
2.28042
2.26657
2.25202
1
1
1
1
1
1
1
1
1
1
1
1
1
1
1
1
1
1
1
1
1
1
1
1
1
1
1
1
1
1
1
1
1
1
1
1
1
1
1
1
1
1
1
1
1
1
1
1
1
1
1
1
1
1
1
1
1
1
1
1
1
1.00122
1.21011
2.10064
2.39892
2.42917
2.42838
2.42774
2.42658
2.42481
2.42298
2.42138
2.41975
2.41806
2.41627
2.41415
2.41155
2.40836
2.40445
2.39989
2.39481
2.38913
2.38277
2.37583
2.36849
2.36082
2.35269
2.34406
2.33485
2.32482
2.31386
2.30214
2.28987
2.27715
2.26412
2.25014
1
1
1
1
1
1
1
1
1
1
1
1
1
1
1
1
1
1
1
1
1
1
1
1
1
1
1
1
1
1
1
1
1
1
1
1
1
1
1
1
1
1
1
1
1
1
1
1
1
1
1
1
1
1
1
1
1
1
1
1
1
1
1.00311
1.29245
2.15404
2.38913
2.41052
2.41329
2.41317
2.41258
2.41136
2.40986
2.40795
2.40578
2.40331
2.40049
2.39731
2.3937
2.38963
2.38514
2.3803
2.37505
2.36928
2.36295
2.35626
2.34939
2.34212
2.33438
2.32604
2.31691
2.30703
2.29658
2.28537
2.27356
2.26134
2.24812
1
1
1
1
1
1
1
1
1
1
1
1
1
1
1
1
1
1
1
1
1
1
1
1
1
1
1
1
1
1
1
1
1
1
1
1
1
1
1
1
1
1
1
1
1
1
1
1
1
1
1
1
1
1
1
1
1
1
1
1
1
1
1
1.00634
1.37548
2.19305
2.37579
2.39101
2.39497
2.39597
2.39617
2.39565
2.3944
2.39264
2.39025
2.38732
2.38397
2.38022
2.37608
2.37164
2.36689
2.3618
2.35629
2.35028
2.34391
2.33744
2.33077
2.32384
2.3164
2.30828
2.29951
2.29033
2.28023
2.26924
2.25776
2.24545
1
1
1
1
1
1
1
1
1
1
1
1
1
1
1
1
1
1
1
1
1
1
1
1
1
1
1
1
1
1
1
1
1
1
1
1
1
1
1
1
1
1
1
1
1
1
1
1
1
1
1
1
1
1
1
1
1
1
1
1
1
1
1
1.00001
1.01147
1.44892
2.22405
2.36625
2.37085
2.37373
2.37504
2.37625
2.37619
2.37557
2.37419
2.3722
2.36966
2.36655
2.36289
2.35876
2.35418
2.34919
2.34377
2.33797
2.33191
2.32579
2.31955
2.31315
2.30631
2.2989
2.29094
2.28275
2.27368
2.26342
2.25267
2.24136
1
1
1
1
1
1
1
1
1
1
1
1
1
1
1
1
1
1
1
1
1
1
1
1
1
1
1
1
1
1
1
1
1
1
1
1
1
1
1
1
1
1
1
1
1
1
1
1
1
1
1
1
1
1
1
1
1
1
1
1
1
1
1
1
1.00003
1.01814
1.54409
2.24983
2.35387
2.35283
2.35399
2.35442
2.35487
2.35526
2.35515
2.35466
2.35355
2.35168
2.349
2.34556
2.34144
2.33673
2.33158
2.32611
2.32049
2.31476
2.30882
2.3027
2.29617
2.2892
2.28172
2.27413
2.26582
2.2562
2.24607
2.23566
1
1
1
1
1
1
1
1
1
1
1
1
1
1
1
1
1
1
1
1
1
1
1
1
1
1
1
1
1
1
1
1
1
1
1
1
1
1
1
1
1
1
1
1
1
1
1
1
1
1
1
1
1
1
1
1
1
1
1
1
1
1
1
1
1
1.00005
1.03062
1.61014
2.26087
2.3407
2.33807
2.33649
2.33591
2.33586
2.33596
2.33587
2.33546
2.33455
2.33295
2.33058
2.32743
2.32358
2.31919
2.31442
2.3094
2.30414
2.29852
2.2926
2.28625
2.27954
2.2723
2.2649
2.25696
2.24781
2.23815
2.22831
1
1
1
1
1
1
1
1
1
1
1
1
1
1
1
1
1
1
1
1
1
1
1
1
1
1
1
1
1
1
1
1
1
1
1
1
1
1
1
1
1
1
1
1
1
1
1
1
1
1
1
1
1
1
1
1
1
1
1
1
1
1
1
1
1
1
1.00012
1.04297
1.63184
2.2544
2.32809
2.32531
2.32332
2.32179
2.32063
2.31955
2.31842
2.31715
2.31561
2.31372
2.31132
2.30837
2.30494
2.30108
2.29685
2.29226
2.28724
2.28177
2.27583
2.26948
2.26252
2.2552
2.2474
2.23853
2.22941
2.22001
1
1
1
1
1
1
1
1
1
1
1
1
1
1
1
1
1
1
1
1
1
1
1
1
1
1
1
1
1
1
1
1
1
1
1
1
1
1
1
1
1
1
1
1
1
1
1
1
1
1
1
1
1
1
1
1
1
1
1
1
1
1
1
1
1
1
1
1.00021
1.04855
1.61906
2.23736
2.31707
2.31487
2.31267
2.31011
2.30753
2.30497
2.30235
2.29984
2.29733
2.29472
2.29195
2.28901
2.28584
2.28241
2.27862
2.27438
2.26963
2.26427
2.25844
2.25181
2.24468
2.23708
2.2289
2.22071
2.21269
1
1
1
1
1
1
1
1
1
1
1
1
1
1
1
1
1
1
1
1
1
1
1
1
1
1
1
1
1
1
1
1
1
1
1
1
1
1
1
1
1
1
1
1
1
1
1
1
1
1
1
1
1
1
1
1
1
1
1
1
1
1
1
1
1
1
1
1
1.00026
1.04661
1.60132
2.21606
2.30519
2.3038
2.30086
2.29782
2.29432
2.29091
2.28749
2.28395
2.28045
2.27705
2.27374
2.27049
2.26718
2.26366
2.25987
2.25553
2.25063
2.24525
2.23928
2.23286
2.2265
2.22057
2.21662
2.21679
1
1
1
1
1
1
1
1
1
1
1
1
1
1
1
1
1
1
1
1
1
1
1
1
1
1
1
1
1
1
1
1
1
1
1
1
1
1
1
1
1
1
1
1
1
1
1
1
1
1
1
1
1
1
1
1
1
1
1
1
1
1
1
1
1
1
1
1
1
1.00024
1.04312
1.57129
2.18797
2.29229
2.29171
2.28858
2.28523
2.28139
2.27749
2.27342
2.26929
2.26523
2.2612
2.25723
2.25329
2.24909
2.24488
2.24041
2.23572
2.23106
2.22614
2.22275
2.22376
2.22702
2.23625
2.25203
1
1
1
1
1
1
1
1
1
1
1
1
1
1
1
1
1
1
1
1
1
1
1
1
1
1
1
1
1
1
1
1
1
1
1
1
1
1
1
1
1
1
1
1
1
1
1
1
1
1
1
1
1
1
1
1
1
1
1
1
1
1
1
1
1
1
1
1
1
1
1.00022
1.03733
1.52676
2.15154
2.27509
2.27916
2.27589
2.27257
2.26866
2.26451
2.2602
2.25582
2.25128
2.24662
2.24176
2.23672
2.23164
2.22673
2.22233
2.22187
2.22532
2.23321
2.24862
2.27221
2.29694
2.31849
1
1
1
1
1
1
1
1
1
1
1
1
1
1
1
1
1
1
1
1
1
1
1
1
1
1
1
1
1
1
1
1
1
1
1
1
1
1
1
1
1
1
1
1
1
1
1
1
1
1
1
1
1
1
1
1
1
1
1
1
1
1
1
1
1
1
1
1
1
1
1
1.00018
1.02971
1.4694
2.09925
2.2534
2.26748
2.26343
2.26
2.25584
2.2519
2.24755
2.24265
2.23754
2.23201
2.22652
2.22167
2.22257
2.22615
2.23868
2.26096
2.28845
2.31539
2.33945
2.35059
2.36023
1
1
1
1
1
1
1
1
1
1
1
1
1
1
1
1
1
1
1
1
1
1
1
1
1
1
1
1
1
1
1
1
1
1
1
1
1
1
1
1
1
1
1
1
1
1
1
1
1
1
1
1
1
1
1
1
1
1
1
1
1
1
1
1
1
1
1
1
1
1
1
1
1.00013
1.02171
1.39763
2.02443
2.22719
2.25619
2.24956
2.24631
2.24268
2.23822
2.23355
2.22848
2.22376
2.22502
2.23046
2.24726
2.27545
2.30789
2.33674
2.3568
2.36619
2.36782
2.36547
2.36325
1
1
1
1
1
1
1
1
1
1
1
1
1
1
1
1
1
1
1
1
1
1
1
1
1
1
1
1
1
1
1
1
1
1
1
1
1
1
1
1
1
1
1
1
1
1
1
1
1
1
1
1
1
1
1
1
1
1
1
1
1
1
1
1
1
1
1
1
1
1
1
1
1
1.00008
1.01422
1.31332
1.91817
2.19687
2.23879
2.23471
2.23233
2.22741
2.22344
2.22552
2.23457
2.25739
2.29128
2.33044
2.36286
2.37779
2.38572
2.3869
2.38236
2.37447
2.36703
2.36236
1
1
1
1
1
1
1
1
1
1
1
1
1
1
1
1
1
1
1
1
1
1
1
1
1
1
1
1
1
1
1
1
1
1
1
1
1
1
1
1
1
1
1
1
1
1
1
1
1
1
1
1
1
1
1
1
1
1
1
1
1
1
1
1
1
1
1
1
1
1
1
1
1
1
1.00004
1.00824
1.21958
1.79404
2.15343
2.21889
2.21212
2.21378
2.23093
2.26121
2.30386
2.34743
2.37665
2.39386
2.40436
2.3988
2.39197
2.38638
2.38069
2.37336
2.36673
2.36257
1
1
1
1
1
1
1
1
1
1
1
1
1
1
1
1
1
1
1
1
1
1
1
1
1
1
1
1
1
1
1
1
1
1
1
1
1
1
1
1
1
1
1
1
1
1
1
1
1
1
1
1
1
1
1
1
1
1
1
1
1
1
1
1
1
1
1
1
1
1
1
1
1
1
1
1.00002
1.00404
1.13599
1.65696
2.10932
2.1834
2.24967
2.29859
2.34866
2.38268
2.3984
2.40312
2.40082
2.39801
2.39085
2.38309
2.37813
2.37452
2.37007
2.3648
2.36144
1
1
1
1
1
1
1
1
1
1
1
1
1
1
1
1
1
1
1
1
1
1
1
1
1
1
1
1
1
1
1
1
1
1
1
1
1
1
1
1
1
1
1
1
1
1
1
1
1
1
1
1
1
1
1
1
1
1
1
1
1
1
1
1
1
1
1
1
1
1
1
1
1
1
1
1
1.00001
1.00165
1.07428
1.51067
2.10907
2.36405
2.39123
2.40571
2.40826
2.40248
2.39807
2.39355
2.3891
2.38264
2.37535
2.37087
2.3694
2.3678
2.36404
2.3608
1
1
1
1
1
1
1
1
1
1
1
1
1
1
1
1
1
1
1
1
1
1
1
1
1
1
1
1
1
1
1
1
1
1
1
1
1
1
1
1
1
1
1
1
1
1
1
1
1
1
1
1
1
1
1
1
1
1
1
1
1
1
1
1
1
1
1
1
1
1
1
1
1
1
1
1
1
1
1.00065
1.03234
2.02419
2.5422
2.52279
2.49518
2.46916
2.4445
2.42571
2.41033
2.39841
2.38682
2.37773
2.37248
2.3696
2.36691
2.3629
2.35992
1
1
1
1
1
1
1
1
1
1
1
1
1
1
1
1
1
1
1
1
1
1
1
1
1
1
1
1
1
1
1
1
1
1
1
1
1
1
1
1
1
1
1
1
1
1
1
1
1
1
1
1
1
1
1
1
1
1
1
1
1
1
1
1
1
1
1
1
1
1
1
1
1
1
1
1
1
1
1
1.00012
1.88271
2.61477
2.59234
2.56086
2.53055
2.50135
2.47464
2.45109
2.4322
2.4176
2.40669
2.39747
2.38941
2.38208
2.37466
2.36844
1
1
1
1
1
1
1
1
1
1
1
1
1
1
1
1
1
1
1
1
1
1
1
1
1
1
1
1
1
1
1
1
1
1
1
1
1
1
1
1
1
1
1
1
1
1
1
1
1
1
1
1
1
1
1
1
1
1
1
1
1
1
1
1
1
1
1
1
1
1
1
1
1
1
1
1
1
1
1
1
1.44023
2.51109
2.64725
2.6291
2.61079
2.58915
2.56659
2.54253
2.51898
2.4972
2.47684
2.45849
2.44141
2.42642
2.41309
2.40022
1
1
1
1
1
1
1
1
1
1
1
1
1
1
1
1
1
1
1
1
1
1
1
1
1
1
1
1
1
1
1
1
1
1
1
1
1
1
1
1
1
1
1
1
1
1
1
1
1
1
1
1
1
1
1
1
1
1
1
1
1
1
1
1
1
1
1
1
1
1
1
1
1
1
1
1
1
1
1
1
1.02081
2.28594
2.66705
2.66344
2.65589
2.64452
2.62999
2.61256
2.59383
2.57354
2.55163
2.52975
2.50835
2.48756
2.4679
2.44935
1
1
1
1
1
1
1
1
1
1
1
1
1
1
1
1
1
1
1
1
1
1
1
1
1
1
1
1
1
1
1
1
1
1
1
1
1
1
1
1
1
1
1
1
1
1
1
1
1
1
1
1
1
1
1
1
1
1
1
1
1
1
1
1
1
1
1
1
1
1
1
1
1
1
1
1
1
1
1
1
1.00003
1.95375
2.62533
2.65716
2.65283
2.64911
2.64448
2.6385
2.6309
2.62126
2.60939
2.5956
2.5803
2.56346
2.54546
2.52689
1
1
1
1
1
1
1
1
1
1
1
1
1
1
1
1
1
1
1
1
1
1
1
1
1
1
1
1
1
1
1
1
1
1
1
1
1
1
1
1
1
1
1
1
1
1
1
1
1
1
1
1
1
1
1
1
1
1
1
1
1
1
1
1
1
1
1
1
1
1
1
1
1
1
1
1
1
1
1
1
1
1.49311
2.49374
2.65462
2.65206
2.65001
2.64733
2.64443
2.64099
2.63653
2.63111
2.62462
2.6167
2.60725
2.59637
2.58386
1
1
1
1
1
1
1
1
1
1
1
1
1
1
1
1
1
1
1
1
1
1
1
1
1
1
1
1
1
1
1
1
1
1
1
1
1
1
1
1
1
1
1
1
1
1
1
1
1
1
1
1
1
1
1
1
1
1
1
1
1
1
1
1
1
1
1
1
1
1
1
1
1
1
1
1
1
1
1
1
1
1.02937
2.30262
2.65789
2.65411
2.64971
2.64628
2.64371
2.64124
2.63874
2.63587
2.63243
2.62818
2.6229
2.61685
2.6101
1
1
1
1
1
1
1
1
1
1
1
1
1
1
1
1
1
1
1
1
1
1
1
1
1
1
1
1
1
1
1
1
1
1
1
1
1
1
1
1
1
1
1
1
1
1
1
1
1
1
1
1
1
1
1
1
1
1
1
1
1
1
1
1
1
1
1
1
1
1
1
1
1
1
1
1
1
1
1
1
1
1.00005
2.04339
2.63039
2.64985
2.64832
2.647
2.64475
2.64203
2.63907
2.63576
2.63214
2.62827
2.62438
2.62037
2.6163
1
1
1
1
1
1
1
1
1
1
1
1
1
1
1
1
1
1
1
1
1
1
1
1
1
1
1
1
1
1
1
1
1
1
1
1
1
1
1
1
1
1
1
1
1
1
1
1
1
1
1
1
1
1
1
1
1
1
1
1
1
1
1
1
1
1
1
1
1
1
1
1
1
1
1
1
1
1
1
1
1
1
1.67269
2.55111
2.65591
2.65162
2.65007
2.64766
2.64484
2.64168
2.63827
2.63467
2.63103
2.62761
2.62444
2.62133
1
1
1
1
1
1
1
1
1
1
1
1
1
1
1
1
1
1
1
1
1
1
1
1
1
1
1
1
1
1
1
1
1
1
1
1
1
1
1
1
1
1
1
1
1
1
1
1
1
1
1
1
1
1
1
1
1
1
1
1
1
1
1
1
1
1
1
1
1
1
1
1
1
1
1
1
1
1
1
1
1
1
1.24032
2.41203
2.65484
2.64986
2.649
2.64754
2.64548
2.64292
2.64002
2.63677
2.63332
2.62984
2.62637
2.62297
1
1
1
1
1
1
1
1
1
1
1
1
1
1
1
1
1
1
1
1
1
1
1
1
1
1
1
1
1
1
1
1
1
1
1
1
1
1
1
1
1
1
1
1
1
1
1
1
1
1
1
1
1
1
1
1
1
1
1
1
1
1
1
1
1
1
1
1
1
1
1
1
1
1
1
1
1
1
1
1
1
1
1.00545
2.25882
2.66356
2.66138
2.65575
2.65239
2.64919
2.64621
2.64323
2.64006
2.63668
2.63312
2.62936
2.62557
1
1
1
1
1
1
1
1
1
1
1
1
1
1
1
1
1
1
1
1
1
1
1
1
1
1
1
1
1
1
1
1
1
1
1
1
1
1
1
1
1
1
1
1
1
1
1
1
1
1
1
1
1
1
1
1
1
1
1
1
1
1
1
1
1
1
1
1
1
1
1
1
1
1
1
1
1
1
1
1
1
1
1
2.03299
2.64908
2.66667
2.66229
2.65883
2.65493
2.65133
2.64782
2.64433
2.64078
2.63712
2.63324
2.6293
1
1
1
1
1
1
1
1
1
1
1
1
1
1
1
1
1
1
1
1
1
1
1
1
1
1
1
1
1
1
1
1
1
1
1
1
1
1
1
1
1
1
1
1
1
1
1
1
1
1
1
1
1
1
1
1
1
1
1
1
1
1
1
1
1
1
1
1
1
1
1
1
1
1
1
1
1
1
1
1
1
1
1
1.76143
2.59538
2.67087
2.66561
2.66237
2.65845
2.65469
2.65093
2.64722
2.64357
2.6399
2.63616
2.63247
1
1
1
1
1
1
1
1
1
1
1
1
1
1
1
1
1
1
1
1
1
1
1
1
1
1
1
1
1
1
1
1
1
1
1
1
1
1
1
1
1
1
1
1
1
1
1
1
1
1
1
1
1
1
1
1
1
1
1
1
1
1
1
1
1
1
1
1
1
1
1
1
1
1
1
1
1
1
1
1
1
1
1
1.44784
2.50528
2.67059
2.66532
2.6631
2.66017
2.65702
2.65364
2.65012
2.64662
2.64314
2.63968
2.63632
1
1
1
1
1
1
1
1
1
1
1
1
1
1
1
1
1
1
1
1
1
1
1
1
1
1
1
1
1
1
1
1
1
1
1
1
1
1
1
1
1
1
1
1
1
1
1
1
1
1
1
1
1
1
1
1
1
1
1
1
1
1
1
1
1
1
1
1
1
1
1
1
1
1
1
1
1
1
1
1
1
1
1
1.14968
2.38547
2.67477
2.66849
2.66478
2.66157
2.65839
2.65505
2.65162
2.64831
2.6451
2.64203
2.63904
1
1
1
1
1
1
1
1
1
1
1
1
1
1
1
1
1
1
1
1
1
1
1
1
1
1
1
1
1
1
1
1
1
1
1
1
1
1
1
1
1
1
1
1
1
1
1
1
1
1
1
1
1
1
1
1
1
1
1
1
1
1
1
1
1
1
1
1
1
1
1
1
1
1
1
1
1
1
1
1
1
1
1
1.00247
2.25642
2.67755
2.67618
2.67061
2.6669
2.66305
2.65928
2.65558
2.65211
2.64884
2.64578
2.64279
1
1
1
1
1
1
1
1
1
1
1
1
1
1
1
1
1
1
1
1
1
1
1
1
1
1
1
1
1
1
1
1
1
1
1
1
1
1
1
1
1
1
1
1
1
1
1
1
1
1
1
1
1
1
1
1
1
1
1
1
1
1
1
1
1
1
1
1
1
1
1
1
1
1
1
1
1
1
1
1
1
1
1
1
2.10258
2.66754
2.67931
2.6749
2.6716
2.66775
2.66406
2.66044
2.65698
2.65359
2.65032
2.64703
1
1
1
1
1
1
1
1
1
1
1
1
1
1
1
1
1
1
1
1
1
1
1
1
1
1
1
1
1
1
1
1
1
1
1
1
1
1
1
1
1
1
1
1
1
1
1
1
1
1
1
1
1
1
1
1
1
1
1
1
1
1
1
1
1
1
1
1
1
1
1
1
1
1
1
1
1
1
1
1
1
1
1
1
1.92591
2.64081
2.68259
2.67781
2.67496
2.67147
2.66803
2.66455
2.66107
2.65754
2.65403
2.65045
1
1
1
1
1
1
1
1
1
1
1
1
1
1
1
1
1
1
1
1
1
1
1
1
1
1
1
1
1
1
1
1
1
1
1
1
1
1
1
1
1
1
1
1
1
1
1
1
1
1
1
1
1
1
1
1
1
1
1
1
1
1
1
1
1
1
1
1
1
1
1
1
1
1
1
1
1
1
1
1
1
1
1
1
1.7404
2.60484
2.6832
2.67734
2.6745
2.67121
2.66799
2.66468
2.66134
2.65793
2.65452
2.65102
1
1
1
1
1
1
1
1
1
1
1
1
1
1
1
1
1
1
1
1
1
1
1
1
1
1
1
1
1
1
1
1
1
1
1
1
1
1
1
1
1
1
1
1
1
1
1
1
1
1
1
1
1
1
1
1
1
1
1
1
1
1
1
1
1
1
1
1
1
1
1
1
1
1
1
1
1
1
1
1
1
1
1
1
1.55301
2.55909
2.68292
2.67695
2.67422
2.67111
2.66802
2.66483
2.66154
2.65819
2.65481
2.65135
1
1
1
1
1
1
1
1
1
1
1
1
1
1
1
1
1
1
1
1
1
1
1
1
1
1
1
1
1
1
1
1
1
1
1
1
1
1
1
1
1
1
1
1
1
1
1
1
1
1
1
1
1
1
1
1
1
1
1
1
1
1
1
1
1
1
1
1
1
1
1
1
1
1
1
1
1
1
1
1
1
1
1
1
1.38854
2.50568
2.6843
2.67847
2.67543
2.67212
2.6689
2.66566
2.66237
2.65907
2.65573
2.65232
1
1
1
1
1
1
1
1
1
1
1
1
1
1
1
1
1
1
1
1
1
1
1
1
1
1
1
1
1
1
1
1
1
1
1
1
1
1
1
1
1
1
1
1
1
1
1
1
1
1
1
1
1
1
1
1
1
1
1
1
1
1
1
1
1
1
1
1
1
1
1
1
1
1
1
1
1
1
1
1
1
1
1
1
1.26069
2.4493
2.68501
2.68025
2.67697
2.67363
2.67037
2.66715
2.66386
2.6606
2.65729
2.65394
1
1
1
1
1
1
1
1
1
1
1
1
1
1
1
1
1
1
1
1
1
1
1
1
1
1
1
1
1
1
1
1
1
1
1
1
1
1
1
1
1
1
1
1
1
1
1
1
1
1
1
1
1
1
1
1
1
1
1
1
1
1
1
1
1
1
1
1
1
1
1
1
1
1
1
1
1
1
1
1
1
1
1
1
1.15967
2.38975
2.68292
2.68017
2.67687
2.67413
2.67128
2.66843
2.66549
2.66252
2.65944
2.65631
1
1
1
1
1
1
1
1
1
1
1
1
1
1
1
1
1
1
1
1
1
1
1
1
1
1
1
1
1
1
1
1
1
1
1
1
1
1
1
1
1
1
1
1
1
1
1
1
1
1
1
1
1
1
1
1
1
1
1
1
1
1
1
1
1
1
1
1
1
1
1
1
1
1
1
1
1
1
1
1
1
1
1
1
1.05057
2.32692
2.68033
2.68183
2.67821
2.67584
2.6731
2.67037
2.66754
2.66464
2.66159
2.65848
1
1
1
1
1
1
1
1
1
1
1
1
1
1
1
1
1
1
1
1
1
1
1
1
1
1
1
1
1
1
1
1
1
1
1
1
1
1
1
1
1
1
1
1
1
1
1
1
1
1
1
1
1
1
1
1
1
1
1
1
1
1
1
1
1
1
1
1
1
1
1
1
1
1
1
1
1
1
1
1
1
1
1
1
1.00066
2.26835
2.67646
2.68402
2.67951
2.67713
2.67432
2.67157
2.66874
2.66589
2.66294
2.65999
1
1
1
1
1
1
1
1
1
1
1
1
1
1
1
1
1
1
1
1
1
1
1
1
1
1
1
1
1
1
1
1
1
1
1
1
1
1
1
1
1
1
1
1
1
1
1
1
1
1
1
1
1
1
1
1
1
1
1
1
1
1
1
1
1
1
1
1
1
1
1
1
1
1
1
1
1
1
1
1
1
1
1
1
1
2.21376
2.67384
2.68533
2.68065
2.67833
2.67558
2.67289
2.67012
2.66731
2.66442
2.66152
1
1
1
1
1
1
1
1
1
1
1
1
1
1
1
1
1
1
1
1
1
1
1
1
1
1
1
1
1
1
1
1
1
1
1
1
1
1
1
1
1
1
1
1
1
1
1
1
1
1
1
1
1
1
1
1
1
1
1
1
1
1
1
1
1
1
1
1
1
1
1
1
1
1
1
1
1
1
1
1
1
1
1
1
1
2.17101
2.67277
2.68659
2.68173
2.67931
2.6765
2.67376
2.671
2.66823
2.66543
2.66263
1
1
1
1
1
1
1
1
1
1
1
1
1
1
1
1
1
1
1
1
1
1
1
1
1
1
1
1
1
1
1
1
1
1
1
1
1
1
1
1
1
1
1
1
1
1
1
1
1
1
1
1
1
1
1
1
1
1
1
1
1
1
1
1
1
1
1
1
1
1
1
1
1
1
1
1
1
1
1
1
1
1
1
1
1
2.14165
2.67178
2.68718
2.68218
2.67969
2.67686
2.67415
2.67146
2.66874
2.66602
2.66328
1
1
1
1
1
1
1
1
1
1
1
1
1
1
1
1
1
1
1
1
1
1
1
1
1
1
1
1
1
1
1
1
1
1
1
1
1
1
1
1
1
1
1
1
1
1
1
1
1
1
1
1
1
1
1
1
1
1
1
1
1
1
1
1
1
1
1
1
1
1
1
1
1
1
1
1
1
1
1
1
1
1
1
1
1
2.12866
2.67037
2.68675
2.68203
2.67977
2.67703
2.67439
2.67175
2.66906
2.66639
2.66367
1.48428
0.815706
0.781692
0.782911
0.821662