/*--------------------------------*- C++ -*----------------------------------*\
  =========                 |
  \\      /  F ield         | OpenFOAM: The Open Source CFD Toolbox
   \\    /   O peration     | Website:  https://openfoam.org
    \\  /    A nd           | Version:  7
     \\/     M anipulation  |
\*---------------------------------------------------------------------------*/
FoamFile
{
    version     2.0;
    format      ascii;
    class       volVectorField;
    location    "6.8";
    object      U;
}
// * * * * * * * * * * * * * * * * * * * * * * * * * * * * * * * * * * * * * //

dimensions      [0 1 -1 0 0 0 0];

internalField   nonuniform List<vector> 
19968
(
(3 7.89498e-17 0)
(3 2.18676e-16 0)
(3 1.54285e-16 0)
(3 -1.28576e-17 0)
(3 -2.45851e-16 0)
(3 -1.94385e-16 0)
(3 2.80316e-16 0)
(3 7.21545e-16 0)
(3 8.44391e-16 0)
(3 5.97552e-16 0)
(3 2.73625e-16 0)
(3 2.33639e-16 0)
(3 5.85916e-16 0)
(3 4.25877e-16 0)
(3 5.27346e-16 0)
(3 5.97166e-16 0)
(3 5.16323e-16 0)
(3 8.06056e-16 0)
(3 1.01583e-15 0)
(3 9.54598e-16 0)
(3 3.94462e-16 0)
(3 3.0725e-16 0)
(3 8.5736e-16 0)
(3 1.0159e-15 0)
(3 5.3185e-16 0)
(3 1.33536e-16 0)
(3 4.57233e-17 0)
(3 -2.94608e-16 0)
(3 -4.49785e-16 0)
(3 2.20098e-16 0)
(3 3.40385e-16 0)
(3 7.48228e-16 0)
(3 1.17245e-15 0)
(3 1.27109e-15 0)
(3 1.85751e-15 0)
(3 8.09336e-16 0)
(3 1.00715e-16 0)
(3 -6.31243e-16 0)
(3 -1.5531e-15 0)
(3 -1.18414e-15 0)
(3 6.57294e-16 0)
(3 1.46708e-15 0)
(3 9.69577e-16 0)
(3 7.5062e-16 0)
(3 5.94893e-16 0)
(3 -1.72147e-16 0)
(3 4.03842e-16 0)
(3 7.63795e-16 0)
(2.80406 0.00173823 0)
(0.970497 0.00412322 0)
(0.76063 0.00928789 0)
(0.742451 0.00893965 0)
(0.726097 0.00805833 0)
(0.711949 0.00756426 0)
(0.698228 0.00770553 0)
(0.684086 0.00839195 0)
(0.668931 0.00933991 0)
(0.652843 0.0100125 0)
(0.63657 0.00981366 0)
(0.621099 0.00885374 0)
(0.606521 0.0081876 0)
(0.591872 0.00847233 0)
(0.576268 0.00925757 0)
(0.560023 0.00965994 0)
(0.54425 0.00953278 0)
(0.529308 0.00948965 0)
(0.514669 0.0096699 0)
(0.499805 0.00977284 0)
(0.484519 0.00978346 0)
(0.468696 0.00988327 0)
(0.45242 0.0100726 0)
(0.436052 0.0102314 0)
(0.419918 0.0103258 0)
(0.404026 0.0104151 0)
(0.38813 0.0105354 0)
(0.371989 0.0106745 0)
(0.355541 0.0108114 0)
(0.338911 0.010934 0)
(0.322286 0.0110464 0)
(0.305769 0.0111586 0)
(0.289338 0.0112712 0)
(0.27289 0.0113827 0)
(0.256305 0.0115011 0)
(0.239483 0.0116365 0)
(0.222352 0.0117911 0)
(0.204862 0.0119602 0)
(0.186973 0.0121394 0)
(0.168659 0.0123296 0)
(0.149934 0.0125398 0)
(0.130864 0.0127818 0)
(0.11154 0.013068 0)
(0.0920288 0.0133967 0)
(0.0723161 0.0137708 0)
(0.0522607 0.0141953 0)
(0.0317245 0.0144855 0)
(0.0109962 0.0149205 0)
(3 -3.33589e-17 0)
(3 1.11817e-16 0)
(3 -1.46729e-16 0)
(3 -2.09088e-16 0)
(3 -2.69268e-16 0)
(3 -2.31152e-16 0)
(3 3.24758e-17 0)
(3 3.32238e-16 0)
(3 3.59949e-16 0)
(3 -1.91936e-16 0)
(3 -6.53052e-16 0)
(3 -7.52904e-16 0)
(3 -1.11395e-17 0)
(3 5.60898e-16 0)
(3 8.61774e-16 0)
(3 1.02269e-15 0)
(3 5.74316e-16 0)
(3 3.91397e-16 0)
(3 7.13869e-16 0)
(3 1.21635e-15 0)
(3 1.53553e-15 0)
(3 2.09877e-15 0)
(3 2.53909e-15 0)
(3 2.27956e-15 0)
(3 1.4442e-15 0)
(3 7.4213e-16 0)
(3 1.15439e-16 0)
(3 -5.05791e-16 0)
(3 -4.86971e-16 0)
(3 -5.67316e-16 0)
(3 -5.11505e-19 0)
(3 1.29142e-16 0)
(3 1.1553e-15 0)
(3 1.84028e-15 0)
(3 2.74372e-15 0)
(3 1.78806e-15 0)
(3 9.09751e-16 0)
(3 -2.47779e-16 0)
(3 -3.19667e-16 0)
(3 -5.74944e-16 0)
(3 -3.63566e-16 0)
(3 1.03684e-15 0)
(3 1.53082e-15 0)
(3 1.08911e-15 0)
(3 1.51657e-16 0)
(3 4.44874e-16 0)
(3 1.07753e-15 0)
(3 1.42635e-15 0)
(2.81678 0.0108414 0)
(0.973624 0.0235832 0)
(0.756468 0.0308624 0)
(0.738656 0.0274764 0)
(0.722393 0.0246966 0)
(0.70802 0.0229019 0)
(0.69398 0.0230386 0)
(0.679754 0.0249273 0)
(0.664837 0.0275886 0)
(0.649253 0.0295315 0)
(0.63352 0.0293153 0)
(0.618351 0.0271381 0)
(0.603547 0.0254264 0)
(0.588545 0.0260817 0)
(0.572856 0.0282037 0)
(0.556632 0.0292726 0)
(0.54095 0.0289299 0)
(0.526026 0.0288792 0)
(0.511351 0.0294716 0)
(0.496404 0.029814 0)
(0.481005 0.0298571 0)
(0.46507 0.0301245 0)
(0.44872 0.030644 0)
(0.432313 0.0310994 0)
(0.416144 0.0314045 0)
(0.400203 0.0317015 0)
(0.384256 0.0320655 0)
(0.368081 0.032467 0)
(0.351618 0.0328648 0)
(0.334974 0.0332283 0)
(0.318321 0.0335644 0)
(0.301765 0.0339056 0)
(0.285292 0.0342613 0)
(0.268808 0.034626 0)
(0.252195 0.0350119 0)
(0.235355 0.0354346 0)
(0.21822 0.0358933 0)
(0.200752 0.0363794 0)
(0.182931 0.0368945 0)
(0.164744 0.0374569 0)
(0.146213 0.0381003 0)
(0.127397 0.0388549 0)
(0.108384 0.039746 0)
(0.0892423 0.0407608 0)
(0.0699733 0.0418939 0)
(0.0504628 0.0431673 0)
(0.0305548 0.0440219 0)
(0.0105754 0.0452519 0)
(3 -8.93631e-17 0)
(3 -9.02117e-17 0)
(3 -5.43031e-16 0)
(3 -5.68105e-16 0)
(3 -8.42746e-16 0)
(3 -1.31099e-15 0)
(3 -1.98684e-15 0)
(3 -2.51317e-15 0)
(3 -1.86554e-15 0)
(3 -5.87529e-16 0)
(3 -9.4085e-16 0)
(3 -7.94344e-16 0)
(3 -8.00953e-16 0)
(3 -2.04381e-16 0)
(3 3.03948e-16 0)
(3 3.14914e-16 0)
(3 2.72273e-16 0)
(3 6.49362e-17 0)
(3 3.4944e-16 0)
(3 6.2733e-16 0)
(3 1.12519e-15 0)
(3 2.0718e-15 0)
(3 1.79549e-15 0)
(3 1.90707e-15 0)
(3 2.04793e-15 0)
(3 1.64459e-15 0)
(3 1.03031e-15 0)
(3 -8.35543e-16 0)
(3 -1.12895e-15 0)
(3 -1.26012e-15 0)
(3 -5.0343e-16 0)
(3 -3.52749e-16 0)
(3 -2.47324e-17 0)
(3 2.37054e-16 0)
(3 1.82591e-16 0)
(3 -6.57911e-16 0)
(3 -1.2019e-15 0)
(3 -9.33202e-16 0)
(3 -7.6624e-16 0)
(3 -5.61231e-16 0)
(3 -8.35903e-17 0)
(3 3.03074e-16 0)
(3 1.29383e-15 0)
(3 1.68875e-15 0)
(3 1.28986e-15 0)
(3 1.59893e-15 0)
(3 1.40667e-15 0)
(3 6.38719e-16 0)
(2.84952 0.0182437 0)
(0.989126 0.0446067 0)
(0.759569 0.051073 0)
(0.743171 0.0458369 0)
(0.726778 0.0426975 0)
(0.711657 0.0404404 0)
(0.696516 0.0407444 0)
(0.681482 0.0434706 0)
(0.666281 0.0472465 0)
(0.650798 0.0498519 0)
(0.635324 0.0494944 0)
(0.620285 0.0465591 0)
(0.605114 0.0442656 0)
(0.589577 0.0453483 0)
(0.573625 0.0485813 0)
(0.557201 0.0501391 0)
(0.541419 0.0495132 0)
(0.526369 0.0494662 0)
(0.511595 0.0505171 0)
(0.496526 0.0511969 0)
(0.480967 0.051379 0)
(0.464842 0.0518603 0)
(0.448308 0.052679 0)
(0.431725 0.0533785 0)
(0.415375 0.0538711 0)
(0.399241 0.0543794 0)
(0.383104 0.0549887 0)
(0.366761 0.0556425 0)
(0.350149 0.056289 0)
(0.333362 0.0568832 0)
(0.316568 0.0574313 0)
(0.299879 0.057988 0)
(0.28329 0.0585762 0)
(0.266708 0.0591878 0)
(0.250009 0.059833 0)
(0.233091 0.0605267 0)
(0.215891 0.0612633 0)
(0.198387 0.0620327 0)
(0.180579 0.0628463 0)
(0.162465 0.063738 0)
(0.144058 0.0647584 0)
(0.125402 0.065948 0)
(0.106572 0.0673399 0)
(0.0876367 0.0689144 0)
(0.0686102 0.0706556 0)
(0.0494134 0.0726291 0)
(0.0298559 0.0739086 0)
(0.0103279 0.0757955 0)
(3 2.4417e-16 0)
(3 9.44207e-17 0)
(3 3.14224e-17 0)
(3 -1.44983e-16 0)
(3 -3.24356e-16 0)
(3 -4.0905e-16 0)
(3 -9.33437e-16 0)
(3 -1.52913e-15 0)
(3 -1.50525e-15 0)
(3 -8.94763e-16 0)
(3 -4.78945e-16 0)
(3 -1.36112e-16 0)
(3 -2.96618e-16 0)
(3 -6.82994e-16 0)
(3 -1.36546e-15 0)
(3 -1.22721e-15 0)
(3 -9.17633e-16 0)
(3 -7.12636e-16 0)
(3 -5.69774e-16 0)
(3 -5.93226e-16 0)
(3 -5.44465e-16 0)
(3 -4.30854e-16 0)
(3 2.44196e-16 0)
(3 9.35409e-16 0)
(3 7.44782e-16 0)
(3 -2.76229e-16 0)
(3 -1.61088e-15 0)
(3 -2.06878e-15 0)
(3 -2.19755e-15 0)
(3 -2.14332e-16 0)
(3 6.22519e-16 0)
(3 9.67541e-16 0)
(3 2.51413e-16 0)
(3 -2.20715e-16 0)
(3 -1.45103e-16 0)
(3 -8.70033e-16 0)
(3 -4.29344e-16 0)
(3 -6.0324e-16 0)
(3 -1.43976e-15 0)
(3 -3.66933e-16 0)
(3 3.68754e-16 0)
(3 6.17775e-16 0)
(3 1.23137e-15 0)
(3 2.51426e-15 0)
(3 3.83741e-15 0)
(3 3.53808e-15 0)
(3 2.89128e-15 0)
(3 1.86056e-15 0)
(2.89217 0.0218109 0)
(1.01174 0.06564 0)
(0.760669 0.0694037 0)
(0.74475 0.0642653 0)
(0.729062 0.0618053 0)
(0.713894 0.0598752 0)
(0.698337 0.0602181 0)
(0.683011 0.0632673 0)
(0.667921 0.0674766 0)
(0.652889 0.0702392 0)
(0.637964 0.0698666 0)
(0.623247 0.06683 0)
(0.607974 0.0644814 0)
(0.592172 0.0660474 0)
(0.57614 0.0701775 0)
(0.559605 0.0721163 0)
(0.543727 0.0712046 0)
(0.528537 0.0711341 0)
(0.513725 0.0726273 0)
(0.498652 0.0737255 0)
(0.483064 0.0741754 0)
(0.466866 0.0749526 0)
(0.450226 0.0760835 0)
(0.433505 0.0770292 0)
(0.41697 0.0777458 0)
(0.400598 0.0785192 0)
(0.384182 0.0794092 0)
(0.367527 0.0803293 0)
(0.350569 0.0812349 0)
(0.333393 0.0820721 0)
(0.316176 0.0828328 0)
(0.299057 0.0835842 0)
(0.282052 0.0843674 0)
(0.265075 0.0851776 0)
(0.248006 0.0860246 0)
(0.230744 0.0869223 0)
(0.213252 0.0878623 0)
(0.195549 0.0888396 0)
(0.17768 0.0898871 0)
(0.15967 0.0910645 0)
(0.141521 0.0924422 0)
(0.123232 0.0940664 0)
(0.10482 0.095967 0)
(0.0862986 0.098115 0)
(0.0676397 0.10046 0)
(0.0487801 0.10313 0)
(0.0294663 0.104812 0)
(0.0102266 0.107316 0)
(3 -7.7312e-17 0)
(3 -1.71102e-16 0)
(3 -1.22858e-16 0)
(3 -1.7989e-17 0)
(3 4.91373e-16 0)
(3 1.68954e-15 0)
(3 1.59893e-15 0)
(3 9.76294e-16 0)
(3 2.4248e-16 0)
(3 1.23219e-16 0)
(3 8.07825e-16 0)
(3 6.72264e-16 0)
(3 4.1653e-16 0)
(3 -1.0128e-15 0)
(3 -2.33026e-15 0)
(3 -2.81251e-15 0)
(3 -3.02715e-15 0)
(3 -3.01125e-15 0)
(3 -2.73565e-15 0)
(3 -2.03876e-15 0)
(3 -1.63915e-15 0)
(3 -1.1692e-15 0)
(3 -5.11983e-16 0)
(3 -4.91045e-16 0)
(3 -9.40071e-16 0)
(3 -1.19241e-15 0)
(3 -1.93554e-15 0)
(3 -1.92714e-15 0)
(3 -1.9041e-15 0)
(3 -9.44021e-16 0)
(3 -7.02051e-16 0)
(3 -9.14659e-16 0)
(3 -4.19456e-16 0)
(3 -4.74892e-16 0)
(3 -2.73847e-16 0)
(3 1.15545e-15 0)
(3 1.37003e-15 0)
(3 8.41388e-16 0)
(3 4.96453e-17 0)
(3 -5.74973e-16 0)
(3 -4.55072e-16 0)
(3 -1.21047e-16 0)
(3 6.60426e-16 0)
(3 1.39876e-15 0)
(3 1.57328e-15 0)
(3 1.37579e-15 0)
(3 1.76344e-15 0)
(3 2.19143e-15 0)
(2.93859 0.0300833 0)
(1.03898 0.0947891 0)
(0.76165 0.0880104 0)
(0.748551 0.0813852 0)
(0.734396 0.0811748 0)
(0.719585 0.0805619 0)
(0.703704 0.0815306 0)
(0.68776 0.084698 0)
(0.672231 0.0886157 0)
(0.657214 0.0909093 0)
(0.642666 0.0904615 0)
(0.628331 0.0877691 0)
(0.613298 0.0858336 0)
(0.597689 0.0879686 0)
(0.581993 0.0928198 0)
(0.565692 0.0951605 0)
(0.549939 0.0940861 0)
(0.534766 0.0939592 0)
(0.520084 0.0957986 0)
(0.505215 0.0973492 0)
(0.4898 0.0982139 0)
(0.473693 0.099435 0)
(0.457046 0.10097 0)
(0.440228 0.102241 0)
(0.423519 0.1033 0)
(0.406898 0.104488 0)
(0.390158 0.1058 0)
(0.373108 0.107107 0)
(0.355678 0.108388 0)
(0.337948 0.10959 0)
(0.320112 0.110677 0)
(0.302335 0.111711 0)
(0.28465 0.112748 0)
(0.266963 0.113782 0)
(0.249137 0.114809 0)
(0.231071 0.11583 0)
(0.212755 0.11683 0)
(0.194277 0.117811 0)
(0.17576 0.118842 0)
(0.15729 0.12003 0)
(0.138895 0.121492 0)
(0.120566 0.123308 0)
(0.102292 0.125523 0)
(0.0840503 0.128127 0)
(0.0657695 0.131005 0)
(0.0474026 0.134367 0)
(0.0285785 0.136468 0)
(0.00993984 0.139584 0)
(3 1.06711e-16 0)
(3 4.83576e-16 0)
(3 7.26946e-16 0)
(3 7.11935e-16 0)
(3 7.25578e-16 0)
(3 1.10631e-15 0)
(3 1.48582e-15 0)
(3 2.09632e-15 0)
(3 1.71007e-15 0)
(3 1.13726e-15 0)
(3 8.43722e-16 0)
(3 3.11016e-16 0)
(3 1.2639e-16 0)
(3 4.94219e-18 0)
(3 -2.5452e-16 0)
(3 -1.22184e-15 0)
(3 -1.47018e-15 0)
(3 -1.69421e-15 0)
(3 -1.87058e-15 0)
(3 -1.88416e-15 0)
(3 -1.92601e-15 0)
(3 -2.20767e-15 0)
(3 -2.26658e-15 0)
(3 -2.3363e-15 0)
(3 -1.97692e-15 0)
(3 -1.2105e-15 0)
(3 -9.8093e-16 0)
(3 -7.97416e-16 0)
(3 -1.02153e-15 0)
(3 -1.73131e-15 0)
(3 -2.08858e-15 0)
(3 -2.19398e-15 0)
(3 -1.76323e-15 0)
(3 -1.7082e-15 0)
(3 -1.06015e-15 0)
(3 2.65338e-16 0)
(3 7.76257e-16 0)
(3 8.69659e-16 0)
(3 1.14309e-15 0)
(3 4.60645e-16 0)
(3 3.27881e-16 0)
(3 5.79315e-16 0)
(3 6.79362e-16 0)
(3 4.51326e-16 0)
(3 -1.39821e-16 0)
(3 -2.94315e-16 0)
(3 -1.84239e-16 0)
(3 -6.78536e-16 0)
(2.99482 0.00219723 0)
(1.10159 0.119101 0)
(0.774604 0.100117 0)
(0.759257 0.0959806 0)
(0.746079 0.0993604 0)
(0.730962 0.101491 0)
(0.714934 0.104047 0)
(0.698446 0.107411 0)
(0.682281 0.110493 0)
(0.666925 0.111644 0)
(0.652456 0.11066 0)
(0.63839 0.108281 0)
(0.623718 0.106923 0)
(0.608518 0.109574 0)
(0.59329 0.114971 0)
(0.5773 0.117847 0)
(0.561642 0.11689 0)
(0.546481 0.116702 0)
(0.531929 0.118687 0)
(0.51735 0.120592 0)
(0.502261 0.121958 0)
(0.486437 0.123787 0)
(0.469971 0.125862 0)
(0.453238 0.127543 0)
(0.436553 0.129042 0)
(0.419905 0.130787 0)
(0.403078 0.132675 0)
(0.385864 0.13451 0)
(0.368189 0.136321 0)
(0.35013 0.138081 0)
(0.33189 0.139713 0)
(0.313656 0.141255 0)
(0.295462 0.142766 0)
(0.277194 0.144239 0)
(0.258676 0.145654 0)
(0.239784 0.146995 0)
(0.220511 0.148228 0)
(0.200994 0.149351 0)
(0.181431 0.150441 0)
(0.161978 0.151633 0)
(0.142697 0.153078 0)
(0.12359 0.154901 0)
(0.104642 0.157172 0)
(0.0858207 0.15996 0)
(0.0670273 0.163092 0)
(0.0482581 0.166944 0)
(0.029035 0.169339 0)
(0.0101079 0.172949 0)
(3 1.74851e-16 0)
(3 2.17905e-16 0)
(3 7.05532e-16 0)
(3 1.01242e-15 0)
(3 8.16783e-16 0)
(3 5.63157e-16 0)
(3 7.69662e-16 0)
(3 1.13275e-15 0)
(3 9.4565e-16 0)
(3 7.60412e-16 0)
(3 4.40275e-16 0)
(3 -5.30076e-16 0)
(3 -8.68141e-16 0)
(3 -4.19699e-16 0)
(3 -4.97575e-17 0)
(3 -9.61041e-17 0)
(3 -2.32103e-16 0)
(3 -6.21574e-16 0)
(3 -7.27528e-16 0)
(3 -8.30085e-16 0)
(3 -8.22963e-16 0)
(3 -7.77601e-16 0)
(3 -1.09124e-15 0)
(3 -1.34719e-15 0)
(3 -8.20994e-16 0)
(3 -8.78875e-16 0)
(3 -8.26221e-16 0)
(3 -7.88446e-16 0)
(3 -5.88184e-16 0)
(3 -1.68647e-15 0)
(3 -2.28793e-15 0)
(3 -2.65948e-15 0)
(3 -3.16684e-15 0)
(3 -2.26448e-15 0)
(3 -1.74506e-15 0)
(3 -1.38582e-15 0)
(3 -1.32195e-15 0)
(3 -6.42541e-16 0)
(3 -3.56411e-16 0)
(3 -1.55162e-16 0)
(3 -1.35822e-16 0)
(3 -7.19046e-17 0)
(3 2.01274e-16 0)
(3 4.19661e-16 0)
(3 7.48897e-16 0)
(3 7.92663e-16 0)
(3 8.49945e-16 0)
(3 -1.50059e-15 0)
(3.00003 8.72928e-05 0)
(1.21841 0.139186 0)
(0.777556 0.120047 0)
(0.754943 0.11566 0)
(0.741727 0.12134 0)
(0.725814 0.12515 0)
(0.709894 0.129107 0)
(0.693589 0.132735 0)
(0.677686 0.134916 0)
(0.662696 0.134685 0)
(0.648608 0.132966 0)
(0.634873 0.13075 0)
(0.620593 0.129953 0)
(0.605877 0.133157 0)
(0.59126 0.139202 0)
(0.575825 0.142915 0)
(0.560499 0.142458 0)
(0.545574 0.1423 0)
(0.531284 0.144259 0)
(0.517133 0.146393 0)
(0.502566 0.148313 0)
(0.487299 0.150915 0)
(0.471338 0.153684 0)
(0.455039 0.15584 0)
(0.438778 0.157804 0)
(0.422565 0.160148 0)
(0.406151 0.162666 0)
(0.3893 0.165056 0)
(0.371943 0.167402 0)
(0.354165 0.169735 0)
(0.336175 0.171943 0)
(0.318171 0.174018 0)
(0.300185 0.176016 0)
(0.282066 0.17793 0)
(0.263595 0.179728 0)
(0.2446 0.181376 0)
(0.225057 0.182831 0)
(0.205127 0.184084 0)
(0.185074 0.185221 0)
(0.165115 0.186391 0)
(0.145352 0.187765 0)
(0.125797 0.189504 0)
(0.106433 0.191678 0)
(0.0872311 0.194492 0)
(0.0680644 0.19768 0)
(0.0489961 0.201888 0)
(0.0294464 0.204504 0)
(0.0102637 0.208523 0)
(3 -5.99687e-17 0)
(3 -3.41951e-16 0)
(3 -8.2375e-16 0)
(3 -7.25067e-16 0)
(3 -7.36843e-16 0)
(3 -7.76242e-16 0)
(3 -9.7362e-16 0)
(3 -9.83616e-16 0)
(3 -3.93673e-16 0)
(3 -1.14249e-16 0)
(3 4.45472e-17 0)
(3 -3.20822e-17 0)
(3 -1.11271e-15 0)
(3 -1.12343e-15 0)
(3 -6.88581e-16 0)
(3 -1.88723e-16 0)
(3 1.29043e-16 0)
(3 1.78062e-17 0)
(3 -4.97355e-16 0)
(3 -7.35391e-16 0)
(3 -1.15797e-15 0)
(3 -1.34472e-15 0)
(3 -9.00732e-16 0)
(3 -8.70568e-16 0)
(3 -1.15695e-15 0)
(3 -9.31621e-16 0)
(3 -1.35707e-16 0)
(3 4.51717e-16 0)
(3 -1.29102e-16 0)
(3 -4.75866e-16 0)
(3 -8.6517e-16 0)
(3 -1.17064e-15 0)
(3 -1.74088e-15 0)
(3 -1.98725e-15 0)
(3 -1.84475e-15 0)
(3 -9.753e-16 0)
(3 -8.82458e-16 0)
(3 -7.84401e-16 0)
(3 -8.07173e-17 0)
(3 4.26562e-16 0)
(3 6.637e-16 0)
(3 8.73532e-16 0)
(3 1.04998e-15 0)
(3 8.96061e-16 0)
(3 3.23495e-16 0)
(3 1.9184e-16 0)
(3 2.38474e-16 0)
(3 -1.31376e-16 0)
(3 1.63304e-07 0)
(1.4243 0.168417 0)
(0.791113 0.147037 0)
(0.754941 0.136611 0)
(0.741619 0.143636 0)
(0.72504 0.149177 0)
(0.709143 0.154281 0)
(0.69308 0.157777 0)
(0.677532 0.15889 0)
(0.662763 0.157503 0)
(0.648635 0.155148 0)
(0.634761 0.15301 0)
(0.620541 0.152521 0)
(0.606187 0.155941 0)
(0.592338 0.162342 0)
(0.577873 0.166883 0)
(0.563289 0.167251 0)
(0.548959 0.167273 0)
(0.535134 0.168991 0)
(0.521542 0.171044 0)
(0.50766 0.173388 0)
(0.493174 0.176822 0)
(0.477951 0.180442 0)
(0.46228 0.183129 0)
(0.446612 0.185524 0)
(0.430979 0.188487 0)
(0.415076 0.191759 0)
(0.398618 0.194874 0)
(0.381561 0.197929 0)
(0.364026 0.201045 0)
(0.346226 0.204094 0)
(0.328348 0.207003 0)
(0.310405 0.209809 0)
(0.292224 0.212508 0)
(0.273554 0.215052 0)
(0.254191 0.217382 0)
(0.234095 0.219431 0)
(0.213442 0.221172 0)
(0.192548 0.22267 0)
(0.171694 0.224067 0)
(0.151033 0.225524 0)
(0.130604 0.227238 0)
(0.110396 0.229254 0)
(0.0903977 0.231981 0)
(0.0704518 0.23502 0)
(0.050691 0.239425 0)
(0.0304504 0.242178 0)
(0.010598 0.246511 0)
(3 -3.5448e-17 0)
(3 -7.5965e-17 0)
(3 -4.35459e-16 0)
(3 -1.08977e-15 0)
(3 -1.28364e-15 0)
(3 -1.46609e-15 0)
(3 -1.81733e-15 0)
(3 -1.85282e-15 0)
(3 -2.08084e-15 0)
(3 -2.45688e-15 0)
(3 -2.39623e-15 0)
(3 -2.32007e-15 0)
(3 -1.59401e-15 0)
(3 -6.08914e-16 0)
(3 -6.67659e-16 0)
(3 -4.49048e-16 0)
(3 -1.42787e-16 0)
(3 5.56282e-16 0)
(3 -4.03277e-16 0)
(3 -1.03956e-15 0)
(3 -2.04593e-15 0)
(3 -2.32288e-15 0)
(3 -2.11229e-15 0)
(3 -1.49413e-15 0)
(3 -1.72451e-15 0)
(3 -1.14695e-15 0)
(3 -6.57633e-16 0)
(3 -4.4376e-16 0)
(3 -5.92041e-16 0)
(3 -7.86956e-16 0)
(3 -7.86153e-16 0)
(3 -7.83293e-17 0)
(3 -6.97506e-17 0)
(3 -1.32516e-16 0)
(3 -1.85457e-16 0)
(3 -4.31122e-16 0)
(3 2.12711e-16 0)
(3 5.50091e-16 0)
(3 1.40695e-15 0)
(3 1.59404e-15 0)
(3 2.02746e-15 0)
(3 1.89138e-15 0)
(3 1.71879e-15 0)
(3 1.39725e-15 0)
(3 3.84722e-17 0)
(3 -4.20896e-16 0)
(3 -2.90533e-16 0)
(3 3.99803e-16 0)
(3 3.77188e-10 0)
(1.73976 0.189539 0)
(0.819866 0.1787 0)
(0.761577 0.16157 0)
(0.746005 0.168388 0)
(0.728565 0.174447 0)
(0.712602 0.179632 0)
(0.696825 0.182526 0)
(0.681476 0.18329 0)
(0.666378 0.181838 0)
(0.651427 0.179595 0)
(0.636502 0.177714 0)
(0.621417 0.177097 0)
(0.606464 0.179939 0)
(0.592509 0.186014 0)
(0.578488 0.191166 0)
(0.564192 0.192716 0)
(0.549973 0.193332 0)
(0.536065 0.194826 0)
(0.522443 0.196511 0)
(0.508772 0.199049 0)
(0.494834 0.203331 0)
(0.480334 0.208011 0)
(0.465373 0.211366 0)
(0.450485 0.214157 0)
(0.435742 0.217727 0)
(0.420762 0.221873 0)
(0.405136 0.22589 0)
(0.388831 0.229804 0)
(0.372025 0.233847 0)
(0.354932 0.237918 0)
(0.337695 0.241874 0)
(0.320293 0.245707 0)
(0.302526 0.249411 0)
(0.284121 0.252931 0)
(0.264848 0.25618 0)
(0.244633 0.259073 0)
(0.22363 0.261559 0)
(0.20216 0.263678 0)
(0.180543 0.265546 0)
(0.158983 0.267283 0)
(0.137568 0.269115 0)
(0.116314 0.271005 0)
(0.0952564 0.273612 0)
(0.0742183 0.276346 0)
(0.053406 0.280797 0)
(0.0321018 0.283603 0)
(0.0111381 0.288181 0)
(3 -1.21253e-16 0)
(3 -1.94e-16 0)
(3 -6.79404e-17 0)
(3 -1.27918e-16 0)
(3 -7.00052e-16 0)
(3 -1.10671e-15 0)
(3 -1.33596e-15 0)
(3 -1.421e-15 0)
(3 -1.66021e-15 0)
(3 -1.88412e-15 0)
(3 -2.11446e-15 0)
(3 -2.04894e-15 0)
(3 -1.03165e-15 0)
(3 -8.65898e-16 0)
(3 -6.5188e-16 0)
(3 -1.98156e-16 0)
(3 -5.81445e-17 0)
(3 -1.04632e-16 0)
(3 8.68419e-17 0)
(3 1.60189e-17 0)
(3 -3.58351e-16 0)
(3 -4.56902e-16 0)
(3 -1.03577e-15 0)
(3 -1.2817e-15 0)
(3 -9.21112e-16 0)
(3 -5.62814e-16 0)
(3 -4.48511e-16 0)
(3 -6.65402e-16 0)
(3 -7.51481e-16 0)
(3 -7.19532e-16 0)
(3 -7.28502e-16 0)
(3 -7.47333e-16 0)
(3 -9.08974e-16 0)
(3 -1.37324e-15 0)
(3 -1.18046e-15 0)
(3 -8.12594e-16 0)
(3 1.00464e-16 0)
(3 1.18747e-15 0)
(3 1.24717e-15 0)
(3 1.73044e-15 0)
(3 2.49537e-15 0)
(3 2.55252e-15 0)
(3 1.46512e-15 0)
(3 7.90805e-16 0)
(3 4.41648e-16 0)
(3 5.44846e-17 0)
(3 5.21107e-16 0)
(3 1.27759e-15 0)
(3 7.95976e-13 0)
(2.1632 0.196051 0)
(0.862078 0.217369 0)
(0.759592 0.192738 0)
(0.742771 0.197221 0)
(0.727625 0.201916 0)
(0.71414 0.206427 0)
(0.700508 0.209054 0)
(0.68659 0.210292 0)
(0.672083 0.209718 0)
(0.657124 0.208262 0)
(0.641807 0.206914 0)
(0.626286 0.205909 0)
(0.610926 0.207295 0)
(0.596728 0.212045 0)
(0.583039 0.217273 0)
(0.568889 0.220185 0)
(0.554416 0.221834 0)
(0.539906 0.223215 0)
(0.525606 0.224109 0)
(0.511427 0.226165 0)
(0.497387 0.230792 0)
(0.483125 0.236364 0)
(0.468393 0.240295 0)
(0.45377 0.243129 0)
(0.439444 0.246927 0)
(0.42506 0.2518 0)
(0.410064 0.256764 0)
(0.394406 0.261603 0)
(0.378353 0.266642 0)
(0.362136 0.27188 0)
(0.345827 0.277111 0)
(0.329321 0.28226 0)
(0.312353 0.28731 0)
(0.2946 0.292213 0)
(0.275779 0.296867 0)
(0.255762 0.301147 0)
(0.23466 0.30496 0)
(0.212784 0.308266 0)
(0.190495 0.311117 0)
(0.16806 0.313559 0)
(0.145629 0.315845 0)
(0.123243 0.317818 0)
(0.100986 0.320394 0)
(0.0786966 0.322746 0)
(0.0566352 0.327079 0)
(0.0340636 0.329801 0)
(0.0117582 0.334579 0)
(3 2.79276e-17 0)
(3 6.2861e-17 0)
(3 4.8162e-17 0)
(3 7.56456e-17 0)
(3 1.05609e-17 0)
(3 -3.38994e-16 0)
(3 -9.79057e-16 0)
(3 -1.17315e-15 0)
(3 -8.54178e-16 0)
(3 -7.38753e-16 0)
(3 -9.0807e-16 0)
(3 -9.0236e-16 0)
(3 -8.38668e-16 0)
(3 -8.80488e-16 0)
(3 -9.65489e-16 0)
(3 -3.20909e-16 0)
(3 5.31328e-16 0)
(3 5.43377e-16 0)
(3 4.78945e-16 0)
(3 1.70329e-16 0)
(3 2.67381e-16 0)
(3 2.00685e-16 0)
(3 1.26247e-16 0)
(3 -3.78382e-16 0)
(3 7.38972e-18 0)
(3 1.91211e-17 0)
(3 -1.13363e-16 0)
(3 -3.1913e-17 0)
(3 -4.48429e-16 0)
(3 -7.43463e-16 0)
(3 -1.25612e-15 0)
(3 -2.39541e-15 0)
(3 -2.7811e-15 0)
(3 -3.29842e-15 0)
(3 -3.36419e-15 0)
(3 -1.91657e-15 0)
(3 -1.26899e-16 0)
(3 2.44919e-16 0)
(3 3.45395e-16 0)
(3 9.98935e-16 0)
(3 1.43849e-15 0)
(3 2.35952e-15 0)
(3 1.50042e-15 0)
(3 5.73954e-16 0)
(3 4.58553e-16 0)
(3 1.12894e-15 0)
(3 1.53124e-15 0)
(3 1.41406e-15 0)
(3 2.10616e-15 0)
(2.69395 0.17136 0)
(0.964851 0.257381 0)
(0.783242 0.229652 0)
(0.771276 0.220016 0)
(0.753618 0.222833 0)
(0.738907 0.226783 0)
(0.724373 0.230611 0)
(0.709873 0.233809 0)
(0.694893 0.23559 0)
(0.679497 0.236247 0)
(0.663695 0.236515 0)
(0.64758 0.235851 0)
(0.631436 0.235729 0)
(0.616049 0.238776 0)
(0.601625 0.244075 0)
(0.587019 0.249029 0)
(0.571887 0.252721 0)
(0.556384 0.254802 0)
(0.540895 0.255158 0)
(0.525485 0.256451 0)
(0.510481 0.261058 0)
(0.495738 0.267478 0)
(0.480478 0.272237 0)
(0.465155 0.275046 0)
(0.450134 0.278659 0)
(0.435262 0.283889 0)
(0.419918 0.289615 0)
(0.403944 0.295202 0)
(0.387704 0.30098 0)
(0.371531 0.307154 0)
(0.355482 0.313546 0)
(0.339398 0.320009 0)
(0.322978 0.326498 0)
(0.305875 0.332961 0)
(0.28776 0.339276 0)
(0.268424 0.345269 0)
(0.247861 0.35079 0)
(0.226249 0.355725 0)
(0.203868 0.360076 0)
(0.180938 0.363837 0)
(0.15762 0.367281 0)
(0.133952 0.370059 0)
(0.1101 0.37323 0)
(0.0859422 0.375594 0)
(0.0618776 0.379929 0)
(0.0372155 0.38253 0)
(0.0128046 0.387571 0)
(3 -1.34139e-17 0)
(3 2.03453e-16 0)
(3 2.13142e-16 0)
(3 1.90393e-16 0)
(3 2.15923e-16 0)
(3 1.63934e-16 0)
(3 1.82999e-16 0)
(3 5.36677e-18 0)
(3 -1.46726e-16 0)
(3 -1.76628e-16 0)
(3 -5.43786e-17 0)
(3 -1.14871e-16 0)
(3 -4.64254e-16 0)
(3 -8.36745e-16 0)
(3 -6.23859e-16 0)
(3 -4.59601e-16 0)
(3 -3.92185e-16 0)
(3 -3.44777e-16 0)
(3 -5.00515e-16 0)
(3 -7.60684e-16 0)
(3 -7.99037e-16 0)
(3 -9.0768e-16 0)
(3 -1.07354e-15 0)
(3 -1.10895e-15 0)
(3 -7.10981e-16 0)
(3 -4.95949e-16 0)
(3 -2.00342e-16 0)
(3 2.51815e-16 0)
(3 -8.78016e-18 0)
(3 -2.99969e-16 0)
(3 -8.12999e-16 0)
(3 -1.94472e-15 0)
(3 -2.25608e-15 0)
(3 -2.0934e-15 0)
(3 -1.72253e-15 0)
(3 -1.3836e-15 0)
(3 -1.17889e-15 0)
(3 -5.2249e-16 0)
(3 -3.98129e-16 0)
(3 -5.31047e-16 0)
(3 -1.09889e-15 0)
(3 -1.50108e-15 0)
(3 -1.17105e-15 0)
(3 4.33666e-17 0)
(3 4.49451e-16 0)
(3 5.53356e-16 0)
(3 3.57491e-16 0)
(3 -4.29343e-16 0)
(3 -1.1496e-15 0)
(3.02019 0.009761 0)
(1.1506 0.276422 0)
(0.808981 0.231584 0)
(0.796071 0.245608 0)
(0.779026 0.25231 0)
(0.762988 0.255946 0)
(0.747845 0.258667 0)
(0.733668 0.261284 0)
(0.719829 0.263369 0)
(0.705813 0.264885 0)
(0.691301 0.266218 0)
(0.676001 0.266363 0)
(0.660121 0.265369 0)
(0.644242 0.266418 0)
(0.629289 0.270815 0)
(0.614896 0.276923 0)
(0.600161 0.282706 0)
(0.584631 0.286245 0)
(0.568697 0.286725 0)
(0.552551 0.287136 0)
(0.536638 0.291221 0)
(0.5214 0.298373 0)
(0.505697 0.304689 0)
(0.489542 0.308219 0)
(0.473496 0.311722 0)
(0.457674 0.317189 0)
(0.441558 0.323786 0)
(0.424778 0.330345 0)
(0.407687 0.336932 0)
(0.390747 0.343973 0)
(0.374085 0.351457 0)
(0.357522 0.359209 0)
(0.340741 0.367163 0)
(0.323375 0.375294 0)
(0.305047 0.383547 0)
(0.285419 0.391753 0)
(0.264362 0.399738 0)
(0.241971 0.407289 0)
(0.218514 0.414261 0)
(0.19426 0.420459 0)
(0.169508 0.426049 0)
(0.144326 0.430403 0)
(0.118945 0.434804 0)
(0.0929688 0.437586 0)
(0.0668127 0.441848 0)
(0.0400874 0.444106 0)
(0.0136501 0.449152 0)
(3 -4.74024e-17 0)
(3 -1.2309e-17 0)
(3 3.41302e-16 0)
(3 6.51303e-16 0)
(3 8.37303e-16 0)
(3 8.44363e-16 0)
(3 8.05731e-16 0)
(3 7.27288e-16 0)
(3 4.95838e-16 0)
(3 4.78332e-16 0)
(3 7.30409e-16 0)
(3 8.67506e-16 0)
(3 4.5976e-16 0)
(3 3.14098e-16 0)
(3 4.65862e-16 0)
(3 7.67839e-17 0)
(3 -9.31111e-16 0)
(3 -1.57253e-15 0)
(3 -1.41e-15 0)
(3 -1.08618e-15 0)
(3 -1.02853e-15 0)
(3 -2.01551e-15 0)
(3 -2.72411e-15 0)
(3 -2.44327e-15 0)
(3 -2.26592e-15 0)
(3 -1.48252e-15 0)
(3 -2.09823e-17 0)
(3 8.52141e-16 0)
(3 1.39884e-15 0)
(3 1.31349e-15 0)
(3 1.30181e-15 0)
(3 1.27669e-15 0)
(3 1.4094e-15 0)
(3 1.41625e-15 0)
(3 1.31325e-15 0)
(3 7.80015e-16 0)
(3 2.72659e-16 0)
(3 -7.97241e-17 0)
(3 4.12203e-19 0)
(3 -9.06019e-17 0)
(3 -1.41642e-15 0)
(3 -1.86919e-15 0)
(3 -1.26983e-15 0)
(3 -7.85408e-16 0)
(3 -1.24748e-15 0)
(3 -8.34483e-16 0)
(3 -1.91226e-16 0)
(3 2.33709e-16 0)
(3 1.19882e-16 0)
(3.00028 9.72762e-06 0)
(1.56301 0.307624 0)
(0.825565 0.271565 0)
(0.781442 0.281608 0)
(0.765944 0.288368 0)
(0.751555 0.289105 0)
(0.738747 0.288924 0)
(0.726791 0.29008 0)
(0.715147 0.292566 0)
(0.703225 0.295745 0)
(0.690848 0.29925 0)
(0.677572 0.301555 0)
(0.663424 0.301553 0)
(0.648795 0.301575 0)
(0.634499 0.304532 0)
(0.621187 0.310721 0)
(0.608313 0.318186 0)
(0.594643 0.323634 0)
(0.580201 0.325204 0)
(0.565281 0.325311 0)
(0.550186 0.328482 0)
(0.535983 0.335592 0)
(0.521727 0.343212 0)
(0.506606 0.347896 0)
(0.491178 0.351283 0)
(0.475811 0.356451 0)
(0.460328 0.363428 0)
(0.444155 0.370785 0)
(0.427408 0.378068 0)
(0.410568 0.38573 0)
(0.393917 0.394051 0)
(0.377367 0.402899 0)
(0.360696 0.412186 0)
(0.343602 0.421881 0)
(0.325778 0.432041 0)
(0.306808 0.442476 0)
(0.28648 0.452959 0)
(0.264853 0.463199 0)
(0.242126 0.472883 0)
(0.218233 0.481601 0)
(0.19346 0.489659 0)
(0.167346 0.496502 0)
(0.140017 0.503876 0)
(0.110559 0.509838 0)
(0.0796179 0.516039 0)
(0.0475352 0.518954 0)
(0.0159656 0.523803 0)
(3 9.05814e-17 0)
(3 2.2856e-16 0)
(3 4.30406e-16 0)
(3 4.0783e-16 0)
(3 7.8563e-16 0)
(3 9.02022e-16 0)
(3 1.10352e-15 0)
(3 1.14807e-15 0)
(3 1.12124e-15 0)
(3 1.09605e-15 0)
(3 1.15243e-15 0)
(3 1.36483e-15 0)
(3 2.22289e-15 0)
(3 2.48255e-15 0)
(3 2.1616e-15 0)
(3 1.61555e-15 0)
(3 7.005e-16 0)
(3 2.56472e-16 0)
(3 2.33014e-16 0)
(3 2.46979e-16 0)
(3 2.60977e-16 0)
(3 2.04633e-16 0)
(3 3.301e-16 0)
(3 2.66397e-16 0)
(3 3.30115e-16 0)
(3 -5.00269e-16 0)
(3 -8.4983e-16 0)
(3 -5.62321e-16 0)
(3 1.39251e-16 0)
(3 8.19858e-16 0)
(3 9.04821e-16 0)
(3 1.40739e-15 0)
(3 2.50844e-15 0)
(3 2.81323e-15 0)
(3 2.41255e-15 0)
(3 1.23118e-15 0)
(3 1.61157e-16 0)
(3 -2.11779e-16 0)
(3 -5.06951e-16 0)
(3 -6.72e-16 0)
(3 -1.80398e-15 0)
(3 -2.29382e-15 0)
(3 -1.9093e-15 0)
(3 -1.59456e-15 0)
(3 -1.37692e-15 0)
(3 -1.26013e-15 0)
(3 -1.37286e-15 0)
(3 -3.27902e-16 0)
(3 2.2307e-16 0)
(3 1.73091e-08 0)
(2.39015 0.27695 0)
(0.921684 0.331063 0)
(0.792494 0.323111 0)
(0.779454 0.316724 0)
(0.764696 0.316921 0)
(0.751948 0.315425 0)
(0.739822 0.316091 0)
(0.728151 0.31897 0)
(0.716486 0.323244 0)
(0.704755 0.328162 0)
(0.692518 0.332209 0)
(0.679376 0.333752 0)
(0.665527 0.333719 0)
(0.651424 0.335441 0)
(0.638116 0.340818 0)
(0.626023 0.348842 0)
(0.613745 0.356014 0)
(0.600538 0.359454 0)
(0.586679 0.360214 0)
(0.572292 0.362801 0)
(0.558546 0.369552 0)
(0.545396 0.378441 0)
(0.531344 0.385421 0)
(0.516529 0.389933 0)
(0.50155 0.39526 0)
(0.486684 0.402775 0)
(0.471405 0.411345 0)
(0.455416 0.420004 0)
(0.438947 0.428814 0)
(0.42241 0.438309 0)
(0.405733 0.448547 0)
(0.389033 0.45949 0)
(0.372053 0.471073 0)
(0.354393 0.483386 0)
(0.335597 0.496384 0)
(0.315277 0.509939 0)
(0.293345 0.523916 0)
(0.269598 0.53808 0)
(0.244039 0.551965 0)
(0.216648 0.565834 0)
(0.187071 0.578943 0)
(0.156084 0.592249 0)
(0.123824 0.604129 0)
(0.0903336 0.613542 0)
(0.0552342 0.618245 0)
(0.0177207 0.621305 0)
(3 1.2042e-16 0)
(3 6.61351e-17 0)
(3 2.28075e-16 0)
(3 2.2214e-16 0)
(3 3.98003e-16 0)
(3 7.61091e-16 0)
(3 8.01094e-16 0)
(3 7.09768e-16 0)
(3 8.50195e-16 0)
(3 8.36461e-16 0)
(3 1.07533e-15 0)
(3 9.68939e-16 0)
(3 1.54937e-15 0)
(3 1.69894e-15 0)
(3 1.44011e-15 0)
(3 1.15335e-15 0)
(3 1.06764e-15 0)
(3 1.24142e-15 0)
(3 1.1497e-15 0)
(3 1.39834e-15 0)
(3 2.15902e-15 0)
(3 2.89677e-15 0)
(3 3.52009e-15 0)
(3 3.11337e-15 0)
(3 3.13041e-15 0)
(3 1.5715e-15 0)
(3 -3.4305e-16 0)
(3 -4.03159e-16 0)
(3 3.46458e-16 0)
(3 5.3942e-16 0)
(3 9.65926e-16 0)
(3 1.07089e-15 0)
(3 9.88538e-16 0)
(3 8.49808e-16 0)
(3 1.01009e-16 0)
(3 1.25714e-16 0)
(3 -2.53147e-16 0)
(3 -4.11838e-16 0)
(3 -6.52227e-16 0)
(3 -1.58937e-15 0)
(3 -2.43589e-15 0)
(3 -3.41516e-15 0)
(3 -2.73542e-15 0)
(3 -2.31177e-15 0)
(3 -1.96159e-15 0)
(3 -2.02604e-15 0)
(3 -2.09423e-15 0)
(3 -1.95778e-15 0)
(3 -1.68445e-15 0)
(3 -6.58601e-09 0)
(3.02703 0.0168569 0)
(1.25874 0.372488 0)
(0.841886 0.331398 0)
(0.818932 0.3411 0)
(0.803564 0.339329 0)
(0.789298 0.336989 0)
(0.775563 0.337756 0)
(0.762198 0.341517 0)
(0.749102 0.347128 0)
(0.736229 0.35332 0)
(0.72348 0.358886 0)
(0.710237 0.362671 0)
(0.696196 0.36434 0)
(0.681708 0.365823 0)
(0.667634 0.37 0)
(0.654983 0.377478 0)
(0.643074 0.385734 0)
(0.630507 0.391606 0)
(0.617096 0.394429 0)
(0.60304 0.397288 0)
(0.589178 0.403541 0)
(0.576295 0.4131 0)
(0.563121 0.422622 0)
(0.548912 0.429504 0)
(0.534299 0.435555 0)
(0.520028 0.443392 0)
(0.505909 0.452888 0)
(0.491367 0.463086 0)
(0.476087 0.473516 0)
(0.459986 0.484538 0)
(0.443835 0.496528 0)
(0.427456 0.509575 0)
(0.410951 0.523644 0)
(0.393906 0.538682 0)
(0.375992 0.554921 0)
(0.356886 0.572421 0)
(0.336511 0.591229 0)
(0.314844 0.611191 0)
(0.291734 0.631725 0)
(0.267017 0.652205 0)
(0.240301 0.671299 0)
(0.211073 0.687846 0)
(0.179497 0.703772 0)
(0.14224 0.72245 0)
(0.0960094 0.74449 0)
(0.0366672 0.763775 0)
(3 -1.92776e-16 0)
(3 -2.95763e-16 0)
(3 -3.69233e-16 0)
(3 -3.41005e-16 0)
(3 -3.67118e-16 0)
(3 -5.11739e-16 0)
(3 -4.98713e-16 0)