/*--------------------------------*- C++ -*----------------------------------*\
  =========                 |
  \\      /  F ield         | OpenFOAM: The Open Source CFD Toolbox
   \\    /   O peration     | Website:  https://openfoam.org
    \\  /    A nd           | Version:  7
     \\/     M anipulation  |
\*---------------------------------------------------------------------------*/
FoamFile
{
    version     2.0;
    format      ascii;
    class       volScalarField;
    location    "27";
    object      p;
}
// * * * * * * * * * * * * * * * * * * * * * * * * * * * * * * * * * * * * * //

dimensions      [0 2 -2 0 0 0 0];

internalField   nonuniform List<scalar> 
16000
(
8.8205674e-06
-0.00013142855
-0.00044291307
-0.00084527116
-0.0012634803
-0.0016521494
-0.0019804061
-0.0022294096
-0.0023885216
-0.0024520366
-0.002417015
-0.0022820002
-0.0020464218
-0.0017105232
-0.0012756622
-0.00074484772
-0.00012339058
0.00058044231
0.0013548723
0.0021842436
0.0030489285
0.0039255707
0.0047876921
0.0056067034
0.0063532748
0.0069990185
0.0075183764
0.0078905643
0.0081014011
0.0081448503
0.0080241328
0.0077523257
0.0073524214
0.0068568904
0.0063066245
0.0057491332
0.005239407
0.00483369
0.0045937204
0.0045549093
0.00015346656
8.5638318e-06
-0.00024151852
-0.00055039746
-0.00087259155
-0.0011737907
-0.0014297502
-0.0016242905
-0.0017470513
-0.0017915894
-0.0017539638
-0.0016318112
-0.0014238775
-0.0011299308
-0.00075096281
-0.00028957958
0.00024950971
0.00085899593
0.0015285459
0.002244524
0.0029899252
0.0037447189
0.0044862011
0.0051900248
0.0058313448
0.0063862602
0.0068334325
0.0071557486
0.0073418796
0.0073875677
0.007296498
0.0070806738
0.0067602764
0.0063630497
0.0059232315
0.0054798782
0.0050741645
0.0047494554
0.0045508621
0.0045153373
0.00047213318
0.00025425105
-1.582797e-06
-0.00028062775
-0.00056087088
-0.00081780776
-0.0010336489
-0.0011963364
-0.0012976649
-0.0013321143
-0.0012959652
-0.0011866849
-0.0010026332
-0.00074305463
-0.00040829555
-1.7350681e-07
0.00047757292
0.0010188274
0.0016146999
0.002253262
0.0029195099
0.0035954851
0.0042608207
0.0048935191
0.0054710491
0.0059716904
0.0063760357
0.0066685358
0.0068389501
0.0068835453
0.0068058814
0.0066170686
0.0063354562
0.0059858133
0.0055980952
0.0052057731
0.0048435115
0.0045455776
0.0043482306
0.0042809023
0.00089375098
0.00056249245
0.00026180218
-2.3980058e-05
-0.00029458092
-0.00053372947
-0.00072986001
-0.00087575752
-0.00096635078
-0.00099794518
-0.00096772748
-0.00087341088
-0.00071312369
-0.00048552725
-0.00019011224
0.00017237999
0.00059946912
0.0010864435
0.0016259267
0.002207573
0.0028179572
0.0034406329
0.0040566336
0.0046451623
0.0051846528
0.0056540962
0.0060345376
0.0063106199
0.0064720265
0.0065146726
0.0064414882
0.0062626485
0.0059951734
0.0056619249
0.0052901374
0.0049096585
0.0045511865
0.0042447281
0.0040168433
0.0038812796
0.001344551
0.00088488293
0.0005217297
0.0002114175
-6.6288609e-05
-0.0003023457
-0.00049107799
-0.00063022233
-0.00071812143
-0.00075321028
-0.00073382664
-0.00065806899
-0.00052385448
-0.00032917342
-7.2492283e-05
0.00024673819
0.00062751644
0.0010667192
0.0015585866
0.0020943299
0.0026619264
0.0032461519
0.0038289338
0.0043900248
0.0049080293
0.0053617386
0.0057316837
0.0060017588
0.0061607419
0.0062035371
0.0061319871
0.0059551219
0.005688745
0.0053543352
0.0049773477
0.0045852685
0.0042063191
0.0038677136
0.0035850459
0.0033614505
0.0017713983
0.0011782712
0.00074360981
0.00039756333
0.00010100407
-0.00014328391
-0.00033499356
-0.0004765771
-0.00056972412
-0.00061500996
-0.00061194533
-0.00055900464
-0.00045383191
-0.00029362899
-7.567708e-05
0.00020204816
0.00054020693
0.00093741828
0.0013896332
0.001889625
0.0024266696
0.0029864933
0.0035515258
0.0041015379
0.0046146421
0.0050686505
0.0054427052
0.0057190381
0.0058846549
0.0059327251
0.0058634858
0.0056845356
0.0054104448
0.0050616457
0.0046625966
0.0042396526
0.0038201663
0.0034306154
0.0030780385
0.0027507473
0.0021290894
0.0014041145
0.00089452927
0.00050629973
0.00018303118
-7.7945536e-05
-0.00028114748
-0.00043335615
-0.00053935393
-0.00060168474
-0.00062089915
-0.0005957231
-0.00052339215
-0.0004001637
-0.00022195768
1.4911358e-05
0.00031294706
0.00067267178
0.0010918692
0.001564936
0.0020824221
0.0026308602
0.0031929067
0.0037479336
0.0042730089
0.0047442857
0.0051387196
0.0054359823
0.0056203686
0.0056824377
0.0056201328
0.0054392022
0.0051528635
0.0047807091
0.0043468103
0.0038774826
0.0034007733
0.0029442864
0.0025080351
0.0020664776
0.0023790619
0.0015276596
0.00094358862
0.00051041528
0.00015583088
-0.00012772282
-0.00034911463
-0.00051903142
-0.0006450057
-0.00073127291
-0.00077919034
-0.00078752969
-0.00075292523
-0.00067049731
-0.00053460456
-0.00033969211
-8.1202396e-05
0.00024349324
0.00063419534
0.0010870746
0.0015940509
0.0021424799
0.0027151343
0.0032907258
0.0038448459
0.0043513904
0.0047843768
0.0051200263
0.0053389197
0.0054279649
0.0053818705
0.0052038554
0.0049054745
0.0045055647
0.0040282917
0.00350086
0.0029534346
0.0024165475
0.0018851447
0.0013226115
0.0024875093
0.0015172156
0.00086148708
0.00038302846
-5.2739506e-06
-0.00031549585
-0.00056047507
-0.00075439878
-0.00090718538
-0.0010244437
-0.0011080579
-0.0011565968
-0.0011658654
-0.0011296278
-0.0010404574
-0.00089069092
-0.0006734594
-0.00038375569
-1.9485325e-05
0.0004175632
0.00092091614
0.0014789402
0.0020746012
0.0026858784
0.0032866035
0.0038478956
0.0043400866
0.0047350011
0.0050083991
0.0051423252
0.0051270439
0.0049622207
0.0046571093
0.0042296563
0.0037044861
0.0031105144
0.0024813221
0.0018520827
0.0012141749
0.00052068884
0.0024239591
0.0013437037
0.00062066163
9.8094149e-05
-0.00032493906
-0.00066478444
-0.00093794339
-0.0011617398
-0.0013481319
-0.0015037866
-0.001630831
-0.0017273726
-0.0017881472
-0.0018053292
-0.0017694635
-0.0016705086
-0.0014989744
-0.0012471203
-0.00091016467
-0.0004874439
1.6576117e-05
0.00059168132
0.0012212827
0.0018827733
0.0025481394
0.0031853358
0.003760286
0.0042393815
0.0045922784
0.0047947126
0.0048310023
0.0046958615
0.0043951787
0.003945503
0.0033720568
0.0027061913
0.0019861503
0.0012534036
0.00049691266
-0.00034021999
0.0021606342
0.0009804889
0.00019551498
-0.00036903758
-0.00082698117
-0.0011987552
-0.0015042748
-0.0017636825
-0.0019906678
-0.0021926723
-0.0023718066
-0.0025254788
-0.0026471275
-0.0027271039
-0.0027536695
-0.0027141079
-0.0025959483
-0.0023882803
-0.0020831191
-0.0016767697
-0.0011710884
-0.00057419466
9.8214241e-05
0.00082334322
0.0015714862
0.0023072449
0.0029915161
0.0035841801
0.0040473028
0.0043485432
0.0044643807
0.0043827409
0.0041045928
0.0036440855
0.0030267921
0.0022870304
0.0014689341
0.00062195668
-0.00026654634
-0.0012637121
0.0016723385
0.00040345276
-0.00043730556
-0.0010411405
-0.0015337216
-0.0019394298
-0.0022813787
-0.0025822512
-0.0028572076
-0.0031142279
-0.0033551942
-0.0035766197
-0.0037704523
-0.0039250086
-0.0040260145
-0.0040577631
-0.0040044
-0.0038513346
-0.0035867472
-0.00320313
-0.0026987789
-0.0020793147
-0.0013582647
-0.00055803461
0.00029038589
0.0011483146
0.0019711986
0.0027113908
0.003321745
0.0037597239
0.0039915664
0.0039959864
0.0037668674
0.0033143468
0.0026635661
0.0018519969
0.00093082112
-4.0726469e-05
-0.0010763342
-0.0022541774
0.00093667374
-0.00040874084
-0.0012985329
-0.0019386016
-0.0024653377
-0.002906908
-0.0032894279
-0.0036378781
-0.0039686794
-0.0042901745
-0.0046038658
-0.0049052367
-0.0051846065
-0.0054280905
-0.0056186534
-0.0057372833
-0.0057643118
-0.0056808952
-0.0054706453
-0.0051213593
-0.0046267926
-0.0039885895
-0.0032172541
-0.0023336691
-0.0013692753
-0.00036561996
0.00062716091
0.0015530582
0.0023540824
0.0029751038
0.0033691626
0.0035025855
0.00335918
0.0029426621
0.0022762572
0.001400276
0.00037393203
-0.00073182834
-0.0019313031
-0.0033149296
-6.5536603e-05
-0.001474248
-0.0024058301
-0.0030788732
-0.0036391959
-0.0041185716
-0.0045459292
-0.0049483375
-0.0053433226
-0.0057394825
-0.0061378636
-0.0065328584
-0.0069130919
-0.0072623771
-0.0075607461
-0.0077855999
-0.0079130277
-0.0079193252
-0.0077827241
-0.0074853091
-0.0070150844
-0.0063681671
-0.0055506183
-0.0045802614
-0.0034876738
-0.0023163615
-0.0011217442
3.1297452e-05
0.0010724449
0.0019314467
0.002544693
0.0028621044
0.0028533605
0.0025122535
0.0018576438
0.00093165755
-0.00019778862
-0.0014460045
-0.002827499
-0.0044464736
-0.0013497106
-0.0028075838
-0.003773314
-0.0044759227
-0.005069194
-0.0055882936
-0.006064781
-0.0065276378
-0.0069954001
-0.0074768909
-0.0079727102
-0.0084761869
-0.0089742719
-0.009448459
-0.0098757538
-0.010229756
-0.01048193
-0.010603115
-0.010565322
-0.010343807
-0.0099194179
-0.0092811525
-0.0084286887
-0.0073748292
-0.0061474042
-0.0047903247
-0.0033633579
-0.0019402233
-0.00060469631
0.00055538886
0.0014559808
0.0020257592
0.0022149919
0.0020026125
0.0013993116
0.00044696895
-0.0007776497
-0.0021740517
-0.0037565351
-0.005644707
-0.0029269427
-0.0044191638
-0.0054111081
-0.0061397284
-0.006765153
-0.0073256903
-0.0078553567
-0.0083849125
-0.008933876
-0.0095113499
-0.010117593
-0.010745
-0.011378968
-0.011998754
-0.012578342
-0.013087412
-0.01349251
-0.013758499
-0.013850363
-0.013735405
-0.013385834
-0.012781725
-0.0119142
-0.010788641
-0.0094276434
-0.0078732089
-0.0061876628
-0.0044526986
-0.0027660006
-0.0012350749
3.1711364e-05
0.0009362912
0.0014029566
0.0013891177
0.00089165762
-5.1385103e-05
-0.00135514
-0.0029013931
-0.0047037647
-0.0068989155
-0.0048034894
-0.0063149184
-0.0073249853
-0.0080758761
-0.0087323128
-0.0093354692
-0.009921667
-0.010523368
-0.011161124
-0.011844468
-0.012573526
-0.013339996
-0.014127955
-0.014914619
-0.015671067
-0.016363066
-0.016952075
-0.017396587
-0.017653874
-0.017682239
-0.017443803
-0.016907832
-0.016054554
-0.014879185
-0.013396046
-0.011642128
-0.0096795187
-0.0075958907
-0.0055022056
-0.003526906
-0.0018062132
-0.00047080605
0.00036988984
0.00064317985
0.00032418448
-0.00055866915
-0.001914615
-0.0036062752
-0.0056461323
-0.0081894268
-0.0069803843
-0.0084960515
-0.0095161674
-0.01028532
-0.010970993
-0.011616937
-0.012261671
-0.012939364
-0.013671756
-0.014469066
-0.01533161
-0.016250737
-0.017209555
-0.01818355
-0.019141147
-0.020044333
-0.020849468
-0.021508453
-0.021970348
-0.022183602
-0.022098957
-0.021673075
-0.020872895
-0.019680562
-0.018098652
-0.016155333
-0.013908609
-0.011448793
-0.0088979902
-0.0064054492
-0.0041378187
-0.0022640615
-0.00093590008
-0.00026663756
-0.00031360405
-0.0010666602
-0.0024336213
-0.0042575594
-0.0065495693
-0.009484773
-0.0094532569
-0.010959019
-0.011981353
-0.012764374
-0.013476483
-0.014163729
-0.014866806
-0.015621713
-0.016451669
-0.017367967
-0.018371553
-0.01945389
-0.020597571
-0.021776784
-0.022957666
-0.0240987
-0.025151302
-0.026060753
-0.026767643
-0.027209987
-0.027326145
-0.027058635
-0.02635892
-0.02519319
-0.023548608
-0.021440186
-0.018917059
-0.016067425
-0.013020597
-0.0099445109
-0.0070370542
-0.0045101017
-0.0025664023
-0.0013719918
-0.0010303026
-0.0015618134
-0.0028806765
-0.004811972
-0.0073657977
-0.010738206
-0.012212422
-0.013695797
-0.014713048
-0.015505006
-0.016239225
-0.016963831
-0.0177218
-0.018551271
-0.019477408
-0.020513133
-0.021660598
-0.02291195
-0.024249819
-0.025647608
-0.027069632
-0.028471276
-0.029799314
-0.03099259
-0.031983222
-0.032698541
-0.033063916
-0.033006592
-0.032460729
-0.031374243
-0.029715123
-0.027480721
-0.024705872
-0.02147065
-0.017905724
-0.014193166
-0.010560319
-0.0072644522
-0.0045671112
-0.0027000339
-0.0018292339
-0.0020224177
-0.0032122779
-0.0052106405
-0.008028392
-0.01188342
-0.015243305
-0.016694514
-0.017700261
-0.018495489
-0.019245343
-0.019999919
-0.020804811
-0.021700867
-0.022715915
-0.023865263
-0.025153001
-0.026572641
-0.028107469
-0.029730667
-0.031405252
-0.033083984
-0.034709424
-0.036214329
-0.037522599
-0.038550965
-0.039211628
-0.039415977
-0.03907961
-0.038130756
-0.036514638
-0.03420678
-0.031222108
-0.027625707
-0.023542043
-0.019160178
-0.014731859
-0.010558909
-0.0069669969
-0.0042660078
-0.0027031067
-0.0024143722
-0.0033688842
-0.0053747275
-0.0084479408
-0.012829341
-0.018527258
-0.019940515
-0.020929643
-0.021721477
-0.022477551
-0.023250061
-0.024087902
-0.025035596
-0.02612469
-0.027373899
-0.028790158
-0.030369124
-0.0320954
-0.033942518
-0.035872704
-0.037836571
-0.039772934
-0.041608931
-0.04326069
-0.044634725
-0.045630331
-0.046143262
-0.046070894
-0.04531746
-0.043806383
-0.041487132
-0.038349316
-0.034435956
-0.029856616
-0.024797866
-0.019527274
-0.014386057
-0.009765231
-0.0060628109
-0.0036262348
-0.0026851948
-0.0032695995
-0.0051999658
-0.0085061446
-0.013453848
-0.022042845
-0.023417939
-0.024387132
-0.025167524
-0.025916453
-0.026688746
-0.027537832
-0.028513436
-0.02965235
-0.030978041
-0.032501396
-0.034221077
-0.036123662
-0.038183539
-0.040362561
-0.042609587
-0.044860094
-0.047036067
-0.049046394
-0.050787982
-0.052147838
-0.053006429
-0.053242491
-0.052739159
-0.051394049
-0.049128866
-0.045903937
-0.041733794
-0.03670419
-0.030988186
-0.02485739
-0.018682466
-0.012915414
-0.0080476113
-0.0045440505
-0.0027559144
-0.0028052884
-0.0045498908
-0.0080486803
-0.013596307
-0.025767651
-0.027111939
-0.028060208
-0.02881912
-0.029542221
-0.030288191
-0.03111707
-0.032086115
-0.03323951
-0.034607223
-0.036205401
-0.038036614
-0.040090001
-0.042341168
-0.044751835
-0.047269298
-0.049825933
-0.052338913
-0.054710381
-0.056828294
-0.058568208
-0.059796253
-0.060373534
-0.060162225
-0.059035047
-0.056884763
-0.053639866
-0.049281473
-0.043863546
-0.037534356
-0.030555634
-0.023313115
-0.016309008
-0.010126333
-0.0053600431
-0.0025106604
-0.0018298745
-0.0032475546
-0.0068766371
-0.013048791
-0.029680782
-0.031011727
-0.031940891
-0.032665257
-0.033336596
-0.034019819
-0.034784904
-0.035700086
-0.03681987
-0.038182934
-0.039812172
-0.04171494
-0.043883346
-0.046294327
-0.048909402
-0.0516742
-0.054517942
-0.057353075
-0.06007529
-0.062564147
-0.064684576
-0.06628948
-0.067223712
-0.06732976
-0.066456491
-0.064468585
-0.061261952
-0.056781474
-0.05104339
-0.044161185
-0.036372387
-0.028060376
-0.019760638
-0.012137719
-0.0059208806
-0.001784053
-0.00014965601
-0.001065483
-0.0047362567
-0.011545785
-0.033766278
-0.035114746
-0.036029714
-0.036701622
-0.037285161
-0.037855752
-0.038498468
-0.039297435
-0.040321351
-0.041620266
-0.043225396
-0.045149595
-0.047388041
-0.049918706
-0.052702427
-0.055682635
-0.05878494
-0.061916783
-0.064967373
-0.067808144
-0.070294037
-0.072265745
-0.073553346
-0.0739816
-0.073376292
-0.071576854
-0.068447459
-0.063896281
-0.05789871
-0.050526181
-0.041979366
-0.032621086
-0.022998677
-0.013839598
-0.0060012515
-0.00034695739
0.0024893948
0.0022864179
-0.0013065427
-0.0087520078
-0.038017992
-0.039432567
-0.040341049
-0.040934531
-0.041379806
-0.04177014
-0.042213458
-0.042816539
-0.043667135
-0.044829657
-0.046345098
-0.048232133
-0.050488581
-0.053092595
-0.056003281
-0.059160808
-0.062486235
-0.065881265
-0.069228177
-0.072390154
-0.075212428
-0.077524199
-0.079141832
-0.079873596
-0.079526017
-0.077913971
-0.074872656
-0.070275314
-0.064056358
-0.05624157
-0.046985656
-0.036614637
-0.025664648
-0.014900701
-0.0052908082
0.0021082809
0.0064161552
0.0071753951
0.0038160167
-0.0042475661
-0.042446919
-0.043999493
-0.044910417
-0.045385783
-0.045621269
-0.045740114
-0.045884357
-0.046192318
-0.046776514
-0.047718679
-0.049070516
-0.050856099
-0.053074661
-0.055702902
-0.058696457
-0.061990552
-0.06550021
-0.069120171
-0.072724902
-0.076168754
-0.079287094
-0.081897869
-0.083804457
-0.084799921
-0.084673014
-0.083216833
-0.080240416
-0.075585076
-0.069146565
-0.060905115
-0.050964988
-0.039603523
-0.027324481
-0.014901731
-0.0033864515
0.0059811935
0.012050289
0.014063452
0.011137002
0.0024912776
-0.047092983
-0.048885697
-0.049804826
-0.050098753
-0.050021672
-0.049746139
-0.049463987
-0.049356037
-0.049565581
-0.050193908
-0.051303197
-0.052921247
-0.055046315
-0.057651023
-0.060684992
-0.064076154
-0.067731461
-0.071536972
-0.075358359
-0.079039621
-0.082405964
-0.085263779
-0.087403554
-0.08860376
-0.088636551
-0.087274931
-0.084304468
-0.07953787
-0.07283583
-0.064135892
-0.053491833
-0.041126018
-0.02749354
-0.013349334
0.00020596294
0.011772168
0.019918667
0.023528997
0.021290431
0.012119383
-0.052045183
-0.054218019
-0.055137753
-0.055146117
-0.054606872
-0.053771538
-0.052902283
-0.052234696
-0.051947895
-0.052163023
-0.052950387
-0.054337933
-0.05631897
-0.058858201
-0.06189601
-0.065349726
-0.069115881
-0.073069631
-0.077067747
-0.08094002
-0.08450207
-0.087547842
-0.089854414
-0.091185507
-0.091297678
-0.08994352
-0.08688712
-0.081915253
-0.074856898
-0.065610729
-0.054182806
-0.040739194
-0.025676174
-0.0097063838
0.0060553965
0.020082367
0.030670192
0.036293843
0.03507641
0.025465772
-0.057477857
-0.060213865
-0.061091102
-0.060639503
-0.05941824
-0.057800801
-0.05614418
-0.054750081
-0.053835249
-0.053537207
-0.053928666
-0.055031468
-0.056828068
-0.059269947
-0.062284966
-0.065774791
-0.069623956
-0.073694753
-0.077829407
-0.081848547
-0.085553269
-0.088724557
-0.091125584
-0.092504796
-0.092600769
-0.091148353
-0.087889169
-0.082584453
-0.075033325
-0.065098242
-0.052740339
-0.038070294
-0.021420025
-0.0034419449
0.014768635
0.031597473
0.045084706
0.05325659
0.053516957
0.043607723
-0.063718692
-0.067237445
-0.067947065
-0.066740727
-0.064512717
-0.061815785
-0.059126043
-0.056817134
-0.055138232
-0.054233439
-0.054167269
-0.054945858
-0.056532829
-0.058860301
-0.061836178
-0.06534668
-0.069259022
-0.073420705
-0.077659537
-0.081783028
-0.085578283
-0.088812295
-0.091233367
-0.092573704
-0.092553661
-0.090888002
-0.087295019
-0.081509386
-0.073299204
-0.062489917
-0.048997469
-0.032875667
-0.014386248
0.0058950188
0.026924601
0.047045014
0.064067738
0.075531429
0.077939633
0.068005518
-0.071380871
-0.075893574
-0.076132452
-0.073672315
-0.069958214
-0.065787384
-0.061768806
-0.058340068
-0.055765045
-0.05417512
-0.05360958
-0.054045473
-0.055416674
-0.057628759
-0.060565258
-0.064091531
-0.068055917
-0.072289299
-0.076604204
-0.080793674
-0.08463057
-0.087867364
-0.09023692
-0.091454507
-0.091221439
-0.089230685
-0.08517501
-0.078759634
-0.069717404
-0.057831353
-0.042965282
-0.025107845
-0.0044388744
0.01857039
0.042965099
0.067105284
0.088611051
0.10448355
0.11010511
0.10076099
-0.081631493
-0.087181718
-0.086270247
-0.081716299
-0.075814619
-0.069654779
-0.063961195
-0.059200487
-0.055613561
-0.053286727
-0.052209379
-0.052310869
-0.053484144
-0.055599415
-0.058511005
-0.062059984
-0.066074231
-0.070367064
-0.074735376
-0.078957751
-0.082793016
-0.085979378
-0.088234498
-0.089256767
-0.088728175
-0.086318863
-0.081693683
-0.074524682
-0.064502823
-0.05135867
-0.034889371
-0.014997524
0.0082489721
0.034515652
0.063013795
0.092226311
0.1196603
0.1417229
0.15240485
0.14512506
-0.09675985
-0.10273817
-0.099197946
-0.091155266
-0.082062527
-0.073261486
-0.065507843
-0.059217029
-0.054540214
-0.051469421
-0.049910213
-0.049723006
-0.050745837
-0.052805998
-0.055724492
-0.059316273
-0.063388336
-0.067736793
-0.072143774
-0.076374562
-0.080175284
-0.083271294
-0.085366472
-0.086143647
-0.085266566
-0.082382768
-0.077128252
-0.069138542
-0.058055618
-0.043544735
-0.025315186
-0.003150717
0.023041596
0.053142022
0.086634086
0.12228374
0.15778159
0.1889524
0.20809862
0.20632845
-0.12133941
-0.12518705
-0.11587283
-0.10208094
-0.088417063
-0.076198041
-0.066005506
-0.05805198
-0.052291072
-0.04855
-0.046608154
-0.046232784
-0.047194558
-0.049272474
-0.052252787
-0.055925081
-0.060077301
-0.06449071
-0.068935257
-0.073165614
-0.076917984
-0.079907737
-0.081827908
-0.082348715
-0.081118659
-0.07776437
-0.07189579
-0.063110247
-0.050996073
-0.035141669
-0.015145264
0.0093697054
0.038726144
0.073130414
0.11252051
0.15626333
0.20263161
0.24752388
0.28130169
0.29235729
-0.16445686
-0.15843259
-0.13714809
-0.11415718
-0.094107038
-0.077630942
-0.064737622
-0.055161541
-0.048489668
-0.044291332
-0.042172647
-0.041787226
-0.042832272
-0.045039518
-0.048164612
-0.051976934
-0.056250659
-0.060757206
-0.065259022
-0.069504568
-0.073224403
-0.076128199
-0.077902641
-0.078210401
-0.076690397
-0.072947667
-0.066577583
-0.057140499
-0.044172211
-0.027180206
-0.0056358776
0.021035471
0.053464805
0.092332308
0.13829696
0.1918276
0.25266872
0.31751213
0.37626928
0.41537146
-0.24629372
-0.20631777
-0.16213007
-0.12552872
-0.097143493
-0.075878016
-0.060487404
-0.049752201
-0.042660111
-0.038436075
-0.036490211
-0.036365255
-0.037697223
-0.040185028
-0.043567126
-0.047604103
-0.052065792
-0.056721579
-0.061333023
-0.065648171
-0.0693972
-0.072289137
-0.074009511
-0.074219736
-0.072558412
-0.068605443
-0.061961554
-0.052155742
-0.038682758
-0.020980956
0.0015964116
0.029825988
0.064687173
0.10746571
0.15987196
0.22417874
0.3029064
0.39553313
0.49624436
0.60321325
-0.42543849
-0.26572987
-0.17722109
-0.12463571
-0.089116348
-0.065102486
-0.0493237
-0.039185181
-0.032983575
-0.029673966
-0.028570606
-0.02918665
-0.031156719
-0.034189791
-0.038037501
-0.042473214
-0.047278048
-0.05223107
-0.05710212
-0.061646419
-0.065600459
-0.068678836
-0.070571518
-0.070940406
-0.069407701
-0.065629584
-0.059132144
-0.049452605
-0.03607453
-0.018402962
0.0042721269
0.032848089
0.068543562
0.11314302
0.16943762
0.24201818
0.33806707
0.46591683
0.64305565
0.92086322
-0.79331245
-0.32444167
-0.14899692
-0.087724892
-0.055345303
-0.035999006
-0.025091046
-0.0192005
-0.016355032
-0.015618609
-0.016493843
-0.018653655
-0.02185277
-0.025888131
-0.03057514
-0.035733529
-0.04117874
-0.046715981
-0.052135683
-0.057209864
-0.061689183
-0.065300577
-0.067745582
-0.068700618
-0.067824221
-0.064707668
-0.058941493
-0.050072156
-0.037593094
-0.020926855
0.00061100469
0.02788171
0.062059418
0.10491403
0.15945199
0.23152866
0.33385213
0.49409289
0.79001705
1.383779
1.2422888e-05
-0.00013043936
-0.00044263154
-0.00084519009
-0.0012635938
-0.0016523947
-0.0019807374
-0.0022298014
-0.0023889564
-0.0024525004
-0.0024174954
-0.0022824859
-0.0020469021
-0.0017109876
-0.0012760998
-0.00074524708
-0.00012374023
0.00058015387
0.0013546563
0.0021841112
0.0030488892
0.0039256309
0.0047878537
0.0056069635
0.0063536275
0.0069994554
0.0075188856
0.0078911264
0.0081019875
0.0081454281
0.0080246736
0.0077528106
0.007352834
0.0068572044
0.0063068092
0.0057491881
0.0052393342
0.0048334955
0.0045934068
0.0045548419
0.00015435958
9.0914212e-06
-0.00024106207
-0.0005499195
-0.00087207747
-0.0011732267
-0.0014291391
-0.0016236453
-0.001746387
-0.0017909211
-0.0017533061
-0.0016311776
-0.0014232808
-0.0011293838
-0.0007504779
-0.00028916895
0.00024983425
0.00085922315
0.0015286649
0.0022445263
0.0029898065
0.0037444775
0.0044858404
0.0051895503
0.0058307642
0.0063855862
0.0068326865
0.0071549601
0.0073410789
0.0073867781
0.0072957363
0.0070799609
0.0067596456
0.0063625365
0.0059228495
0.0054796127
0.0050740054
0.0047493304
0.0045507077
0.0045154606
0.00047262595
0.00025453052
-1.260853e-06
-0.0002803579
-0.00056067175
-0.00081764796
-0.0010335151
-0.0011962241
-0.0012975702
-0.001332035
-0.0012959005
-0.0011866347
-0.0010025974
-0.00074303348
-0.00040828935
-1.8217453e-07
0.00047755018
0.0010187921
0.0016146533
0.0022532045
0.0029194416
0.0035954076
0.0042607384
0.0048934368
0.0054709688
0.0059716097
0.0063759507
0.0066684472
0.0068388655
0.0068834721
0.0068058158
0.0066169949
0.0063353624
0.0059857069
0.005597997
0.0052056923
0.0048434361
0.00454546
0.0043480334
0.0042808749
0.00089424703
0.00056256176
0.00026205787
-2.3748712e-05
-0.00029444158
-0.0005336374
-0.00072979961
-0.00087572565
-0.00096634236
-0.00099795545
-0.00096775322
-0.00087344975
-0.00071317355
-0.00048558605
-0.00019017821
0.00017230842
0.00059939401
0.0010863681
0.0016258552
0.0022075087
0.0028179011
0.0034405856
0.0040565964
0.0046451391
0.0051846485
0.0056541116
0.0060345663
0.006310651
0.0064720538
0.0065147004
0.0064415225
0.0062626825
0.0059951838
0.0056618917
0.0052900662
0.0049095744
0.0045510981
0.0042446152
0.004016693
0.00388114
0.0013450984
0.00088474209
0.00052195292
0.00021167756
-6.611184e-05
-0.00030219475
-0.00049093933
-0.00063010031
-0.0007180159
-0.00075311983
-0.00073375079
-0.00065800781
-0.00052380809
-0.00032914164
-7.247492e-05
0.00024674088
0.00062750379
0.0010666911
0.0015585447
0.0020942772
0.0026618656
0.0032460838
0.0038288574
0.0043899401
0.0049079405
0.0053616534
0.005731607
0.0060016864
0.006160663
0.0062034467
0.0061318942
0.0059550408
0.0056886755
0.005354257
0.0049772436
0.0045851437
0.0042061837
0.003867605
0.0035850399
0.0033612349
0.0017720357
0.0011779409
0.00074379789
0.00039782594
0.00010117215
-0.00014313597
-0.00033485013
-0.00047644627
-0.00056960734
-0.0006149067
-0.00061185579
-0.00055892943
-0.00045377181
-0.00029358447
-7.5647972e-05
0.00020206221
0.00054020559
0.00093740048
0.0013895983
0.0018895746
0.0024266073
0.0029864231
0.0035514491
0.0041014527
0.0046145467
0.0050685485
0.0054426061
0.0057189491
0.0058845724
0.0059326354
0.0058633809
0.0056844247
0.0054103455
0.0050615606
0.004662509
0.0042395398
0.003820009
0.0034304943
0.0030781164
0.0027504444
0.0021298284
0.0014036169
0.0008946897
0.0005065629
0.00018318331
-7.7811986e-05
-0.00028101401
-0.0004332335
-0.00053924416
-0.00060158742
-0.00062081455
-0.00059565172
-0.00052333485
-0.0004001215
-0.00022193106
1.4922979e-05
0.00031294469
0.00067265562
0.0010918382
0.0015648892
0.0020823607
0.0026307888
0.003192831
0.0037478559
0.0042729265
0.0047441943
0.0051386211
0.005435887
0.0056202861
0.0056823646
0.0056200529
0.0054391039
0.0051527551
0.0047806098
0.0043467267
0.003877387
0.0034006104
0.0029441593
0.0025082022
0.002066101
0.0023799033
0.0015270135
0.00094373083
0.00051068588
0.0001559749
-0.00012759519
-0.00034898196
-0.00051890724
-0.00064489287
-0.0007311713
-0.00077910062
-0.00078745242
-0.00075286098
-0.00067044727
-0.00053457026
-0.00033967431
-8.1200359e-05
0.00024348112
0.00063416986
0.0010870348
0.0015939951
0.0021424085
0.0027150524
0.003290641
0.0038447623
0.0043513045
0.0047842819
0.0051199224
0.0053388175
0.0054278763
0.0053817931
0.0052037717
0.0049053716
0.0045054526
0.004028194
0.0035007638
0.0029532655
0.0024164256
0.0018854094
0.001322141
0.0024884503
0.0015164366
0.00086161762
0.00038331027
-5.1342043e-06
-0.00031537113
-0.00056034069
-0.00075427057
-0.0009070669
-0.001024335
-0.0011079605
-0.0011565115
-0.0011657927
-0.0011295682
-0.0010404124
-0.00089066264
-0.00067344901
-0.00038376244
-1.9506967e-05
0.00041752848
0.00092086789
0.0014788753
0.0020745194
0.0026857851
0.0032865079
0.0038478038
0.0043399953
0.0047349016
0.0050082892
0.0051422157
0.0051269476
0.0049621355
0.0046570174
0.0042295486
0.0037043806
0.0031104082
0.0024811367
0.0018519663
0.0012145453
0.00052012214
0.0024249948
0.0013428057
0.000620785
9.8389465e-05
-0.0003248009
-0.000664661
-0.00093780673
-0.0011616075
-0.0013480079
-0.0015036709
-0.0016307253
-0.0017272786
-0.0017880661
-0.0018052611
-0.0017694088
-0.0016704689
-0.0014989522
-0.0012471176
-0.00091018077
-0.00048747551
1.6532778e-05
0.00059162419
0.0012212092
0.001882682
0.0025480353
0.0031852297
0.0037601858
0.0042392845
0.0045921747
0.0047945988
0.0048308885
0.0046957599
0.0043950855
0.0039454047
0.0033719572
0.0027060798
0.0019859412
0.0012532868
0.00049739617
-0.00034088565
0.0021617585
0.00097948577
0.0001956345
-0.00036872726
-0.0008268417
-0.0011986305
-0.0015041342
-0.001763545
-0.0019905376
-0.0021925491
-0.0023716917
-0.0025253743
-0.0026470356
-0.0027270258
-0.0027536052
-0.0027140575
-0.0025959133
-0.0023882636
-0.0020831234
-0.0016767942
-0.0011711275
-0.00057424874
9.8147642e-05
0.00082326115
0.0015713859
0.0023071308
0.0029913999
0.0035840713
0.0040471995
0.0043484352
0.0044642643
0.0043826252
0.0041044866
0.0036439869
0.0030267022
0.0022869227
0.0014687019
0.0006218356
-0.00026594138
-0.001264488
0.0016735442
0.00040235897
-0.00043718705
-0.0010408146
-0.0015335786
-0.0019393015
-0.002281232
-0.0025821067
-0.0028570697
-0.0031140964
-0.0033550697
-0.0035765038
-0.0037703474
-0.0039249172
-0.0040259381
-0.0040577017
-0.0040043532
-0.0038513035
-0.0035867351
-0.0032031407
-0.0026988139
-0.0020793671
-0.0013583301
-0.00055811127
0.00029029466
0.0011482053
0.0019710753
0.0027112656
0.0033216282
0.0037596142
0.0039914547
0.0039958692
0.0037667506
0.0033142397
0.0026634796
0.0018518954
0.00093056816
-4.0851191e-05
-0.0010755939
-0.002255081
0.00093795156
-0.00040991011
-0.0012984127
-0.0019382601
-0.0024651895
-0.0029067745
-0.0032892737
-0.0036377249
-0.0039685322
-0.0042900331
-0.0046037311
-0.0049051095
-0.0051844883
-0.0054279838
-0.0056185613
-0.0057372076
-0.0057642525
-0.0056808515
-0.0054706177
-0.0051213517
-0.0046268108
-0.0039886311
-0.0032173163
-0.0023337458
-0.0013693631
-0.00036572143
0.00062704229
0.0015529265
0.0023539497
0.0029749807
0.0033690485
0.0035024721
0.0033590626
0.0029425489
0.0022761696
0.001400177
0.00037365595
-0.00073195477
-0.0019304065
-0.003315982
-6.4197752e-05
-0.0014754773
-0.0024057058
-0.0030785161
-0.003639041
-0.0041184315
-0.0045457667
-0.0049481748
-0.0053431646
-0.0057393294
-0.006137717
-0.0065327194
-0.006912961
-0.0072622556
-0.0075606366
-0.007785506
-0.0079129518
-0.0079192675
-0.0077826833
-0.0074852854
-0.0070150818
-0.0063681892
-0.0055506675
-0.004580334
-0.0034877625
-0.0023164616
-0.0011218571
3.1169328e-05
0.0010723061
0.0019313096
0.0025445673
0.0028619891
0.0028532466
0.0025121419
0.0018575582
0.00093155876
-0.00019809453
-0.0014461332
-0.0028264197
-0.0044476991
-0.0013483231
-0.0028088572
-0.0037731841
-0.0044755508
-0.005069031
-0.0055881455
-0.0060646093
-0.0065274652
-0.0069952312
-0.0074767253
-0.0079725501
-0.0084760344
-0.008974128
-0.009448324
-0.0098756287
-0.010229644
-0.010481834
-0.010603039
-0.010565266
-0.010343769
-0.0099193992
-0.0092811552
-0.0084287179
-0.0073748878
-0.0061474883
-0.0047904264
-0.0033634714
-0.0019403481
-0.00060483304
0.00055524607
0.0014558438
0.0020256354
0.0022148775
0.0020025058
0.0013992345
0.00044687329
-0.0007779918
-0.0021741851
-0.0037552436
-0.0056461343
-0.0029255197
-0.0044204649
-0.0054109717
-0.0061393435
-0.0067649809
-0.0073255327
-0.0078551746
-0.0083847294