/*--------------------------------*- C++ -*----------------------------------*\
  =========                 |
  \\      /  F ield         | OpenFOAM: The Open Source CFD Toolbox
   \\    /   O peration     | Website:  https://openfoam.org
    \\  /    A nd           | Version:  7
     \\/     M anipulation  |
\*---------------------------------------------------------------------------*/
FoamFile
{
    version     2.0;
    format      ascii;
    class       surfaceScalarField;
    location    "27";
    object      phi;
}
// * * * * * * * * * * * * * * * * * * * * * * * * * * * * * * * * * * * * * //

dimensions      [0 3 -1 0 0 0 0];

internalField   nonuniform List<scalar> 
45600
(
2.7493992e-07
-2.8246762e-07
-8.4631433e-11
4.0321989e-07
-1.2825335e-07
-2.6705974e-11
1.3249793e-07
2.7072896e-07
-7.6007918e-12
-5.6234298e-07
6.9484287e-07
-2.1889103e-12
-1.6393293e-06
1.0769842e-06
3.0653992e-12
-3.0276299e-06
1.3882955e-06
6.621268e-12
-4.6524655e-06
1.6248269e-06
8.9448128e-12
-6.445093e-06
1.7926156e-06
1.0578009e-11
-8.3454155e-06
1.9003097e-06
1.1739754e-11
-1.030143e-05
1.9560028e-06
1.2520669e-11
-1.2267385e-05
1.9659428e-06
1.2968776e-11
-1.420156e-05
1.9341626e-06
1.3111829e-11
-1.6064213e-05
1.8626405e-06
1.2966841e-11
-1.7815998e-05
1.751772e-06
1.253749e-11
-1.9417021e-05
1.6010116e-06
1.1813403e-11
-2.0826623e-05
1.4095906e-06
1.0781917e-11
-2.200387e-05
1.1772384e-06
9.4396201e-12
-2.2908729e-05
9.0485477e-07
7.7872587e-12
-2.3503825e-05
5.9509465e-07
5.8314621e-12
-2.3756654e-05
2.5282971e-07
3.5763377e-12
-2.3642093e-05
-1.145638e-07
1.0610969e-12
-2.3144966e-05
-4.9713035e-07
-1.6259902e-12
-2.226254e-05
-8.8242449e-07
-4.3627093e-12
-2.1006588e-05
-1.2559376e-06
-7.0227686e-12
-1.9404833e-05
-1.6017308e-06
-9.521128e-12
-1.7501523e-05
-1.9032904e-06
-1.1795419e-11
-1.535694e-05
-2.1445795e-06
-1.3746785e-11
-1.304574e-05
-2.3112096e-06
-1.5174618e-11
-1.0654103e-05
-2.391635e-06
-1.5832561e-11
-8.2758231e-06
-2.3782419e-06
-1.5598694e-11
-6.0075606e-06
-2.2682043e-06
-1.4599494e-11
-3.9435088e-06
-2.0640217e-06
-1.3091081e-11
-2.1697691e-06
-1.7737699e-06
-1.1140375e-11
-7.5855699e-07
-1.411267e-06
-8.4773979e-12
2.3817018e-07
-9.9672475e-07
-4.984572e-12
7.9652548e-07
-5.5827229e-07
-1.4822542e-12
9.2931387e-07
-1.3270173e-07
1.965701e-12
7.0564809e-07
2.2361451e-07
5.2512231e-12
2.9050211e-07
4.1497295e-07
8.4666521e-12
2.9038976e-07
1.7019705e-12
1.3277492e-07
-4.1521853e-07
-2.4109979e-11
-3.0179397e-07
3.0633211e-07
-1.5301399e-11
-1.6154816e-06
1.5844307e-06
-1.3238247e-11
-3.874762e-06
2.9541364e-06
-1.3862129e-11
-7.0073744e-06
4.2096102e-06
-1.4909595e-11
-1.0879764e-05
5.2607023e-06
-1.6357468e-11
-1.533516e-05
6.080242e-06
-1.7722544e-11
-2.0215981e-05
6.6734571e-06
-1.8712953e-11
-2.5374025e-05
7.058372e-06
-1.9267103e-11
-3.0673224e-05
7.2552197e-06
-1.9382035e-11
-3.5988478e-05
7.2812151e-06
-1.9075592e-11
-4.1202753e-05
7.1484564e-06
-1.83768e-11
-4.6203885e-05
6.8637904e-06
-1.7305244e-11
-5.0882002e-05
6.4299068e-06
-1.5866046e-11
-5.5128123e-05
5.84715e-06
-1.4063628e-11
-5.8834201e-05
5.1156824e-06
-1.1909506e-11
-6.1894679e-05
4.2377248e-06
-9.4124773e-12
-6.4209481e-05
3.2196622e-06
-6.5899128e-12
-6.5688229e-05
2.0738476e-06
-3.4508079e-12
-6.6255336e-05
8.1994642e-07
-6.7476644e-14
-6.5855848e-05
-5.1404203e-07
3.4444449e-12
-6.4460675e-05
-1.892305e-06
7.0023794e-12
-6.2072353e-05
-3.2707659e-06
1.0461479e-11
-5.8728982e-05
-4.5993404e-06
1.3760875e-11
-5.4506987e-05
-5.823749e-06
1.6838889e-11
-4.9521825e-05
-6.8884512e-06
1.9547481e-11
-4.3926317e-05
-7.7400743e-06
2.1634428e-11
-3.7906375e-05
-8.3311631e-06
2.2868685e-11
-3.1674092e-05
-8.6239787e-06
2.3222844e-11
-2.5458388e-05
-8.5940271e-06
2.2900534e-11
-1.9493624e-05
-8.2329996e-06
2.2091672e-11
-1.4006717e-05
-7.5508746e-06
2.0675867e-11
-9.2032517e-06
-6.5771637e-06
1.8293765e-11
-5.2528629e-06
-5.3616793e-06
1.4882356e-11
-2.2739968e-06
-3.9757256e-06
1.1080099e-11
-3.1735086e-07
-2.5150253e-06
7.6977087e-12
6.5698829e-07
-1.1069588e-06
4.613677e-12
8.0369487e-07
7.7160668e-08
3.6274998e-12
4.1794826e-07
8.0092838e-07
4.4784477e-12
7.0824444e-07
-3.3303168e-12
-2.7363289e-07
-1.4157291e-07
-1.3303763e-11
-1.6275519e-06
1.66026e-06
-8.1055114e-12
-4.2894656e-06
4.2463563e-06
-9.337174e-12
-8.2747201e-06
6.9394005e-06
-7.8263056e-12
-1.3474439e-05
9.4093336e-06
-5.7752132e-12
-1.9708719e-05
1.1494986e-05
-4.6347841e-12
-2.6765725e-05
1.3137252e-05
-3.8814449e-12
-3.4426566e-05
1.4334304e-05
-3.2585881e-12
-4.2478557e-05
1.5110367e-05
-2.7454124e-12
-5.0720355e-05
1.5497019e-05
-2.3001903e-12
-5.8962179e-05
1.5523039e-05
-1.8772018e-12
-6.7023554e-05
1.5209832e-05
-1.4576161e-12
-7.4730377e-05
1.4570614e-05
-1.0381425e-12
-8.1912548e-05
1.3612078e-05
-6.1348713e-13
-8.8402962e-05
1.2337566e-05
-1.7987611e-13
-9.4038276e-05
1.0751001e-05
2.5138523e-13
-9.8661584e-05
8.8610364e-06
6.5932563e-13
-0.00010212688
6.6849529e-06
1.0221463e-12
-0.00010430501
4.2519709e-06
1.3513956e-12
-0.00010509079
1.6057216e-06
1.6690267e-12
-0.00010441043
-1.1943965e-06
1.9835359e-12
-0.00010222925
-4.0734725e-06
2.2467106e-12
-9.8558315e-05
-6.9416868e-06
2.386718e-12
-9.3459815e-05
-9.6978504e-06
2.3864102e-12
-8.7050233e-05
-1.223336e-05
2.3268967e-12
-7.950087e-05
-1.4437839e-05
2.33948e-12
-7.1035175e-05
-1.6205758e-05
2.4659657e-12
-6.1922621e-05
-1.7443671e-05
2.5702033e-12
-5.2469044e-05
-1.8077523e-05
2.4538335e-12
-4.3003603e-05
-1.8059503e-05
2.1242874e-12
-3.3862801e-05
-1.7373886e-05
1.9041091e-12
-2.5372249e-05
-1.604147e-05
2.1364825e-12
-1.7826893e-05
-1.4122448e-05
2.7197125e-12
-1.1470364e-05
-1.1718084e-05
3.0834978e-12
-6.4738006e-06
-8.9722672e-06
2.848205e-12
-2.9140392e-06
-6.0749461e-06
2.342657e-12
-7.5130492e-07
-3.2698962e-06
2.1890619e-12
1.9428563e-07
-8.6845348e-07
3.4132601e-12
2.6554033e-07
7.2982855e-07
5.7180216e-12
9.7378004e-07
7.3984435e-13
-7.4587151e-07
6.04312e-07
-1.3392266e-11
-3.1796779e-06
4.0940675e-06
-2.0103637e-12
-7.3461469e-06
8.412834e-06
-7.4158059e-12
-1.3163086e-05
1.2756349e-05
-6.7095886e-12
-2.0455828e-05
1.6702081e-05
-4.0413622e-12
-2.899262e-05
2.003178e-05
-2.6702441e-12
-3.8513835e-05
2.2658467e-05
-1.7518097e-12
-4.8752605e-05
2.4573075e-05
-9.2411261e-13
-5.9446881e-05
2.5804644e-05
-2.4393932e-13
-7.0344703e-05
2.6394842e-05
2.9800747e-13
-8.1204969e-05
2.6383305e-05
7.4643203e-13
-9.1795795e-05
2.5800657e-05
1.1271568e-12
-0.0001018922
2.4667017e-05
1.4459717e-12
-0.0001112744
2.2994271e-05
1.705084e-12
-0.00011972753
2.0790695e-05
1.9133027e-12
-0.00012704334
1.8066811e-05
2.0755312e-12
-0.00013302388
1.4841576e-05
2.178387e-12
-0.00013748712
1.1148203e-05
2.1854333e-12
-0.00014027421
7.0390626e-06
2.0729988e-12
-0.00014125776
2.5892539e-06
1.8643061e-12
-0.00014035049
-2.1016768e-06
1.6278312e-12
-0.00013751411
-6.9098488e-06
1.3719853e-12
-0.00013276676
-1.1689022e-05
1.0778247e-12
-0.00012618905
-1.6275537e-05
6.7266108e-13
-0.00011792765
-2.0494765e-05
1.2665373e-13
-0.00010819571
-2.4169811e-05
-4.4733426e-13
-9.7269722e-05
-2.7131788e-05
-8.3122882e-13
-8.5482292e-05
-2.9231094e-05
-9.0026396e-13
-7.3210833e-05
-3.034892e-05
-7.9426166e-13
-6.0862147e-05
-3.0408129e-05
-8.040634e-13
-4.8853358e-05
-2.9382696e-05
-9.940658e-13
-3.7589874e-05
-2.7305057e-05
-9.8544275e-13
-2.7441342e-05
-2.4271051e-05
-3.0284368e-13
-1.8716711e-05
-2.0442643e-05
9.6406158e-13
-1.1639415e-05
-1.6049394e-05
2.0642707e-12
-6.323504e-06
-1.1390776e-05
2.4394178e-12
-2.7515341e-06
-6.8419746e-06
2.5643074e-12
-7.5722027e-07
-2.8629166e-06
3.273962e-12
-9.5459126e-09
-1.7833499e-08
4.3592638e-12
9.6427712e-07
3.7677569e-12
-1.2279782e-06
1.8323064e-06
-1.4780303e-11
-4.7881311e-06
7.6542156e-06
4.0846057e-12
-1.0521562e-05
1.4146271e-05
-6.473994e-12
-1.8214339e-05
2.0449135e-05
-7.5423795e-12
-2.7603919e-05
2.6091669e-05
-5.1267288e-12
-3.8396248e-05
3.0824116e-05
-4.3779956e-12
-5.0282972e-05
3.4545195e-05
-4.0215397e-12
-6.2954666e-05
3.724477e-05
-3.5387275e-12
-7.6108884e-05
3.8958865e-05
-3.0608848e-12
-8.9453584e-05
3.9739545e-05
-2.6230942e-12
-0.00010270725
3.9636972e-05
-2.1997559e-12
-0.00011559727
3.8690686e-05
-1.7741778e-12
-0.00012785806
3.6927802e-05
-1.3453593e-12
-0.00013922988
3.4366099e-05
-9.2148284e-13
-0.00014945941
3.102022e-05
-5.0356053e-13
-0.00015830212
2.6909517e-05
-7.8286952e-14
-0.00016552687
2.2066326e-05
3.6694198e-13
-0.00017092237
1.6543706e-05
8.1408531e-13
-0.00017430521
1.042191e-05
1.2146705e-12
-0.00017552897
3.8130171e-06
1.527461e-12
-0.00017449375
-3.1369047e-06
1.7629694e-12
-0.00017115553
-1.024809e-05
1.9729056e-12
-0.00016553447
-1.7310088e-05
2.2146965e-12
-0.00015772159
-2.40884e-05
2.4577866e-12
-0.0001478829
-3.0333427e-05
2.5755072e-12
-0.00013626032
-3.5792381e-05
2.468351e-12
-0.00012316873
-4.022342e-05
2.2223167e-12
-0.00010898855
-4.3411337e-05
2.1002665e-12
-9.4153677e-05
-4.5183804e-05
2.2870009e-12
-7.9134734e-05
-4.5427003e-05
2.6219122e-12
-6.441793e-05
-4.4099414e-05
2.6958741e-12
-5.0480255e-05
-4.1242742e-05
2.3500469e-12
-3.7762101e-05
-3.6989331e-05
2.0134536e-12
-2.6638854e-05
-3.1566007e-05
2.266857e-12
-1.7393196e-05
-2.5295017e-05
3.0188315e-12
-1.0189876e-05
-1.859395e-05
3.6182526e-12
-5.0546833e-06
-1.1977106e-05
3.9280015e-12
-1.859851e-06
-6.0578397e-06
3.1508882e-12
-3.2225891e-07
-1.5554657e-06
1.7597828e-13
6.4203568e-07
5.8205871e-12
-1.6931722e-06
3.5254972e-06
-1.7210047e-11
-6.3714143e-06
1.233245e-05
9.5783607e-12
-1.367145e-05
2.144631e-05
-5.4546074e-12
-2.3234039e-05
3.001173e-05
-7.6162416e-12
-3.4695195e-05
3.755283e-05
-4.8747767e-12
-4.7689738e-05
4.3818666e-05
-4.290716e-12
-6.1857401e-05
4.8712864e-05
-4.1597363e-12
-7.6847905e-05
5.2235278e-05
-3.7943822e-12
-9.2323667e-05
5.443463e-05
-3.387087e-12
-0.00010796003
5.5375909e-05
-2.9945878e-12
-0.00012344369
5.5120631e-05
-2.5969303e-12
-0.00013847038
5.3717378e-05
-2.1814385e-12
-0.00015274287
5.1200303e-05
-1.7429547e-12
-0.00016597016
4.7593385e-05
-1.2911134e-12
-0.00017786833
4.2918396e-05
-8.4422347e-13
-0.00018816362
3.7204806e-05
-4.0751322e-13
-0.00019659745
3.0500146e-05
3.8731797e-14
-0.00020293339
2.2879641e-05
5.1602688e-13
-0.00020696569
1.4454214e-05
1.0109414e-12
-0.00020852884
5.376181e-06
1.4639215e-12
-0.00020750767
-4.1580706e-06
1.8072104e-12
-0.00020384725
-1.3908525e-05
2.0353033e-12
-0.00019756207
-2.3595295e-05
2.2233249e-12
-0.0001887436
-3.2906884e-05
2.4697199e-12
-0.00017756555
-4.1511462e-05
2.7675673e-12
-0.00016428594
-4.9071953e-05
2.9582581e-12
-0.00014924521
-5.5264122e-05
2.8753059e-12
-0.00013285965
-5.9796937e-05
2.5788241e-12
-0.0001156095
-6.2434041e-05
2.3944334e-12
-9.8021638e-05
-6.3014894e-05
2.6002814e-12
-8.064711e-05
-6.147387e-05
3.0430582e-12
-6.4034042e-05
-5.7855697e-05
3.2150821e-12
-4.8697328e-05
-5.2326026e-05
2.8800829e-12
-3.5086861e-05
-4.5176591e-05
2.4655189e-12
-2.3556703e-05
-3.6825293e-05
2.5378184e-12
-1.4337882e-05
-2.7812746e-05
3.2716408e-12
-7.5174464e-06
-1.8797437e-05
4.5625857e-12
-3.0267015e-06
-1.0548577e-05
3.5126558e-12
-6.4250061e-07
-3.939709e-06
-2.2601886e-12
-4.775714e-10
8.175916e-12
-2.1329373e-06
5.6584541e-06
-1.9951034e-11
-7.8910692e-06
1.809057e-05
1.4429577e-11
-1.6717383e-05
3.027263e-05
-4.6527943e-12
-2.8105697e-05
4.1400049e-05
-7.6325222e-12
-4.1585014e-05
5.1032151e-05
-4.4121042e-12
-5.6714023e-05
5.894768e-05
-3.8732832e-12
-7.3078124e-05
6.5076971e-05
-3.8710074e-12
-9.028689e-05
6.9444048e-05
-3.5571367e-12
-0.00010797108
7.2118823e-05
-3.1837463e-12
-0.00012577898
7.3183812e-05
-2.8226596e-12
-0.00014337241
7.2714061e-05
-2.4536821e-12
-0.00016042304
7.0768012e-05
-2.0700842e-12
-0.00017660978
6.7387037e-05
-1.6620015e-12
-0.00019161769
6.2601304e-05
-1.2238534e-12
-0.00020513904
5.6439745e-05
-7.7199135e-13
-0.00021687634
4.8942112e-05
-3.3701615e-13
-0.00022654763
4.0171433e-05
6.8698791e-14
-0.00023389355
3.0225545e-05
4.6851015e-13
-0.00023868598
1.924664e-05
8.9872095e-13
-0.0002407379
7.4281059e-06
1.3582066e-12
-0.00023991385
-4.9821052e-06
1.7785227e-12
-0.00023614052
-1.7681847e-05
2.0709122e-12
-0.00022941699
-3.0318833e-05
2.1966068e-12
-0.00021982372
-4.2500192e-05
2.251311e-12
-0.00020752953
-5.3805684e-05
2.3908959e-12
-0.00019279575
-6.3805729e-05
2.6528935e-12
-0.00017597636
-7.2083447e-05
2.8572966e-12
-0.00015751332
-7.8259936e-05
2.7634688e-12
-0.00013792586
-8.2021532e-05
2.3908863e-12
-0.00011779354
-8.3147309e-05
2.1193086e-12
-9.7732838e-05
-8.1534636e-05
2.3175095e-12
-7.8368019e-05
-7.7220459e-05
2.8485711e-12
-6.0297735e-05
-7.0396194e-05
3.1426611e-12
-4.4059412e-05
-6.1414886e-05
2.8808275e-12
-3.0094396e-05
-5.079041e-05
2.4247284e-12
-1.8717285e-05
-3.9189945e-05
2.7721466e-12
-1.0093049e-05
-2.742164e-05
4.7248616e-12
-4.2252878e-06
-1.6416286e-05
3.6847127e-12
-9.5847547e-07
-7.2065184e-06
-4.8466483e-12
-9.5898231e-07
1.0165112e-11
-2.5450514e-06
8.2035267e-06
-2.2716033e-11
-9.328831e-06
2.4874332e-05
1.8739388e-11
-1.9615326e-05
4.0559132e-05
-4.1246808e-12
-3.2756783e-05
5.4541515e-05
-7.8482103e-12
-4.8175784e-05
6.6451156e-05
-4.1766911e-12
-6.5353948e-05
7.6125846e-05
-3.7015897e-12
-8.3821951e-05
8.3544978e-05
-3.8474964e-12
-0.00010315039
8.8772488e-05
-3.601528e-12
-0.00012294133
9.1909776e-05
-3.2723451e-12
-0.00014282062
9.3063101e-05
-2.9468964e-12
-0.00016243096
9.2324405e-05
-2.6019502e-12
-0.00018142645
8.9763504e-05
-2.2410221e-12
-0.00019946878
8.5429366e-05
-1.8634408e-12
-0.00021622554
7.9358063e-05
-1.4512683e-12
-0.00023137077
7.1584977e-05
-9.9481982e-13
-0.00024458777
6.2159111e-05
-5.161468e-13
-0.00025557402
5.1157692e-05
-5.9076889e-14
-0.00026404809
3.8699612e-05
3.5141829e-13
-0.00026975809
2.4956628e-05
7.3876003e-13
-0.00027249153
1.016152e-05
1.1554203e-12
-0.00027208612
-5.3875101e-06
1.6183586e-12
-0.00026844118
-2.1326776e-05
2.0722374e-12
-0.00026152921
-3.7230772e-05
2.3748973e-12
-0.00025140688
-5.2622526e-05
2.4583458e-12
-0.00023822452
-6.6988089e-05
2.4262751e-12
-0.00022223324
-7.9797061e-05
2.492603e-12
-0.00020378828
-9.0528404e-05
2.7519906e-12
-0.00018334729
-9.8700866e-05
3.0135775e-12
-0.00016146209
-0.00010390667
2.9626093e-12
-0.000138763
-0.00010584641
2.5686943e-12
-0.00011593517
-0.00010436257
2.2460913e-12
-9.368744e-05
-9.946826e-05
2.4279451e-12
-7.2715338e-05
-9.1368253e-05
2.9830925e-12
-5.366063e-05
-8.0469494e-05
3.2496369e-12
-3.7070995e-05
-6.7380029e-05
2.8343976e-12
-2.3363928e-05
-5.2897094e-05
2.789527e-12
-1.2799327e-05
-3.7986291e-05
4.9044688e-12
-5.464877e-06
-2.3750713e-05
3.5369114e-12
-1.2772471e-06
-1.1394114e-05
-7.6762801e-12
-2.2362461e-06
1.2704038e-11
-2.9284754e-06
1.1132027e-05
-2.5403494e-11
-1.067365e-05
3.2619481e-05
2.2593995e-11
-2.2336125e-05
5.2221613e-05
-3.7861842e-12
-3.7135891e-05
6.9341291e-05
-8.1733066e-12
-5.4393984e-05
8.3709254e-05
-4.0529874e-12
-7.3517456e-05
9.524932e-05
-3.6173149e-12
-9.3984078e-05
0.0001040116
-3.8975163e-12
-0.00011532769
0.0001101161
-3.7186144e-12
-0.00013712485
0.00011370694
-3.4362526e-12
-0.00015898315
0.00011492141
-3.1501159e-12
-0.00018053135
0.00011387261
-2.8271223e-12
-0.00020141167
0.00011064383
-2.4736458e-12
-0.00022127451
0.00010529221
-2.108631e-12
-0.00023977563
9.7859176e-05
-1.7274155e-12
-0.0002565758
8.8385138e-05
-1.3036376e-12
-0.00027134286
7.6926172e-05
-8.2025763e-13
-0.00028375597
6.3570806e-05
-3.0139785e-13
-0.0002935118
4.8455452e-05
1.9582574e-13
-0.00030033258
3.1777411e-05
6.2767301e-13
-0.00030397573
1.3804649e-05
1.0070474e-12
-0.00030424497
-5.1183005e-06
1.3992538e-12
-0.00030100239
-2.4569362e-05
1.8824916e-12
-0.00029418195
-4.405119e-05
2.3721562e-12
-0.0002838027
-6.3001742e-05
2.7059158e-12
-0.00026998168
-8.0809094e-05
2.7703829e-12
-0.00025294502
-9.6833767e-05
2.6621121e-12
-0.0002330356
-0.00011043789
2.6488198e-12
-0.00021071566
-0.00012102082
2.887404e-12
-0.00018656235
-0.00012805991
3.1878877e-12
-0.00016125452
-0.00013115416
3.1781911e-12
-0.00013554972
-0.00013006738
2.791886e-12
-0.00011025131
-0.00012476676
2.4705649e-12
-8.616729e-05
-0.00011545234
2.6660853e-12
-6.4063649e-05
-0.0001025731
3.1229836e-12
-4.4616575e-05
-8.6827026e-05
3.0611793e-12
-2.8368471e-05
-6.9145199e-05
3.0802248e-12
-1.5693143e-05
-5.0661675e-05
5.3783313e-12
-6.7752284e-06
-3.2668653e-05
3.3743769e-12
-1.607035e-06
-1.6562282e-05
-1.0742839e-11
-3.8432875e-06
1.5299766e-11
-3.2816907e-06
1.4413747e-05
-2.7959875e-11
-1.1915841e-05
4.1253604e-05
2.604339e-11
-2.4855453e-05
6.5161226e-05
-3.5778187e-12
-4.1199821e-05
8.5685667e-05
-8.5648851e-12
-6.0176166e-05
0.00010268561
-4.0070537e-12
-8.1122055e-05
0.00011619521
-3.5799363e-12
-0.00010346606
0.00012635561
-3.9634943e-12
-0.00012670858
0.00013335863
-3.8371753e-12
-0.00015040429
0.00013740266
-3.597028e-12
-0.00017414673
0.00013866385
-3.3558823e-12
-0.00019755548
0.00013728137
-3.0680987e-12
-0.00022026618
0.00013335453
-2.7260707e-12
-0.00024192334
0.00012694938
-2.3542961e-12
-0.00026217609
0.00011811193
-1.9759594e-12
-0.00028067655
0.0001068856
-1.5861331e-12
-0.00029708066
9.3330276e-05
-1.1509699e-12
-0.0003110513
7.754144e-05
-6.4248658e-13
-0.00032226348
5.9667634e-05
-7.9803498e-14
-0.00033041153
3.9925475e-05
4.6692849e-13
-0.0003352183
1.8611425e-05
9.169182e-13
-0.00033644647
-3.890145e-06
1.256945e-12
-0.0003339111
-2.7104762e-05
1.6570134e-12
-0.00032749537
-5.0466944e-05
2.1328364e-12
-0.0003171663
-7.3330786e-05
2.6483754e-12
-0.00030299174
-9.4983611e-05
3.0180525e-12
-0.00028515629
-0.00011466919
3.0764453e-12
-0.0002639747
-0.00013161952
2.9044959e-12
-0.00023990022
-0.00014509537
2.811247e-12
-0.0002135255
-0.00015443467
3.0054951e-12
-0.00018557348
-0.00015910613
3.3018219e-12
-0.00015687629
-0.00015876449
3.3009283e-12
-0.0001283414
-0.00015330165
2.946663e-12
-0.00010090592
-0.0001428879
2.7032239e-12
-7.5482391e-05
-0.00012799668
2.850483e-12
-5.2901074e-05
-0.00010940831
2.8885352e-12
-3.3855048e-05
-8.8191178e-05
3.2331359e-12
-1.8854749e-05
-6.5661981e-05
6.0646107e-12
-8.1982598e-06
-4.3325174e-05
3.3855552e-12
-1.9611674e-06
-2.2799368e-05
-1.4022862e-11
-5.8044655e-06
1.7971504e-11
-3.602293e-06
1.8016072e-05
-3.0354589e-11
-1.3044839e-05
5.0696121e-05
2.909324e-11
-2.7149222e-05
7.9265611e-05
-3.4662804e-12
-4.4907061e-05
0.00010344351
-9.0001636e-12
-6.5461347e-05
0.0001232399
-4.0452032e-12
-8.8087022e-05
0.00013882089
-3.6155638e-12
-0.00011216854
0.00015043713
-4.0785089e-12
-0.0001371771
0.00015836719
-3.9879386e-12
-0.0001626495
0.00016287507
-3.7767111e-12
-0.0001881695
0.00016418385
-3.5747548e-12
-0.00021335216
0.00016246403
-3.334545e-12
-0.0002378315
0.00015783387
-3.0303174e-12
-0.00026125133
0.00015036922
-2.6651406e-12
-0.00028325921
0.00014011983
-2.2665014e-12
-0.00030350317
0.00012712956
-1.8652484e-12
-0.00032163099
0.00011145809
-1.4616723e-12
-0.00033729176
9.3202198e-05
-1.0157833e-12
-0.00035013969
7.2515555e-05
-4.8405513e-13
-0.00035984009
4.9625884e-05
1.2413265e-13
-0.00036607772
2.4849075e-05
7.0985514e-13
-0.00036856827
-1.3995892e-06
1.1364907e-12
-0.00036707066
-2.8602377e-05
1.5685393e-12
-0.00036140572
-5.6131918e-05
1.9315466e-12
-0.00035147398
-8.3262564e-05
2.3803057e-12
-0.00033727725
-0.00010918032
2.9091302e-12
-0.00031894035
-0.00013300604
3.3080306e-12
-0.00029673122
-0.00015382861
3.3687564e-12
-0.0002710768
-0.00017074982
3.154032e-12
-0.00024257125
-0.00018294029
2.9964722e-12
-0.00021197296
-0.00018970446
3.1311838e-12
-0.00018018731
-0.00019055009
3.3744238e-12
-0.00014823305
-0.00018525584
3.3550738e-12
-0.00011719256
-0.0001739284
3.0813093e-12
-8.8148829e-05
-0.00015704047
2.8580929e-12
-6.2115312e-05
-0.00013544186
2.6085227e-12
-3.9966434e-05
-0.00011034003
3.1247935e-12
-2.2377568e-05
-8.3250824e-05
6.734733e-12
-9.7826721e-06
-5.5920074e-05
3.511642e-12
-2.354695e-06
-3.022734e-05
-1.7545109e-11
-8.1591829e-06
2.094666e-11
-3.8870405e-06
2.1903144e-05
-3.2551314e-11
-1.4048624e-05
6.0857675e-05
3.1722718e-11
-2.9191981e-05
9.4408971e-05
-3.4370897e-12
-4.8215148e-05
0.00012246669
-9.4514639e-12
-7.0187675e-05
0.00014521243
-4.148062e-12
-9.4329839e-05
0.00016296306
-3.719988e-12
-0.00011998793
0.00017609523
-4.2530558e-12
-0.00014660874
0.00018498801
-4.1914369e-12
-0.00017371549
0.00018998182
-3.9977179e-12
-0.0002008864
0.00019135477
-3.8163638e-12
-0.00022773658
0.00018931421
-3.6121427e-12
-0.00025390326
0.00018400055
-3.3611087e-12
-0.00027903461
0.00017550057
-3.0416882e-12
-0.00030278169
0.00016386692
-2.6499034e-12
-0.0003247933
0.00014914119
-2.2158508e-12
-0.00034471335
0.00013137814
-1.7815043e-12
-0.00036218055
0.0001106694
-1.3571318e-12
-0.00037683042
8.7165414e-05
-9.0064355e-13
-0.00038829971
6.1095154e-05
-3.5133668e-13
-0.00039623357
3.2782936e-05
3.0978568e-13
-0.00040029567
2.6625425e-06
1.0154938e-12
-0.00040018317
-2.8714853e-05
1.521431e-12
-0.00039564337
-6.0671724e-05
1.8967927e-12
-0.00038649672
-9.2409254e-05
2.2233096e-12
-0.00037266203
-0.00012301504
2.6459804e-12
-0.00035418441
-0.00015148365
3.1696196e-12
-0.00033126326
-0.00017674971
3.5768287e-12
-0.00030427733
-0.00019773571
3.6327005e-12
-0.00027380255
-0.00021341509
3.3881249e-12
-0.00024061795
-0.00022288913
3.1800999e-12
-0.0002056949
-0.00022547317
3.2383498e-12
-0.00017016613
-0.00022078458
3.4001774e-12
-0.00013527295
-0.00020882153
3.3865753e-12
-0.00010229316
-0.00019002027
3.1072706e-12
-7.2455835e-05
-0.00016527923
2.5072485e-12
-4.6853238e-05
-0.00013594265
2.9448555e-12
-2.6361326e-05
-0.00010374273
7.3364603e-12
-1.1580419e-05
-7.0700967e-05
3.6172358e-12
-2.8033078e-06
-3.900443e-05
-2.1468814e-11
-1.096252e-05
2.439522e-11
-4.1321068e-06
2.6035284e-05
-3.449873e-11
-1.4914061e-05
7.1639595e-05
3.3911499e-11
-3.0957056e-05
0.00011045197
-3.4877908e-12
-5.1080534e-05
0.00014259017
-9.9056154e-12
-7.4292102e-05
0.000168424
-4.2973919e-12
-9.9765899e-05
0.00018843686
-3.8722692e-12
-0.00012681641
0.00020314574
-4.4707362e-12
-0.00015487097
0.00021304257
-4.4425353e-12
-0.00018344354
0.0002185544
-4.2710435e-12
-0.00021211105
0.00022002229
-4.1015434e-12
-0.00024049294
0.00021769611
-3.907672e-12
-0.00026823438
0.000211742
-3.688629e-12
-0.00029499293
0.00020225912
-3.4287086e-12
-0.00032042843
0.00018930241
-3.0944499e-12
-0.00034419575
0.00017290852
-2.6735215e-12
-0.00036594006
0.00015312246
-2.1972085e-12
-0.00038529435
0.0001300237
-1.7202025e-12
-0.0004018793
0.00010375037
-1.2683007e-12
-0.00041530573
7.4521568e-05
-8.0002463e-13
-0.00042518007
4.2657258e-05
-2.1867746e-13
-0.00043111327
8.5957439e-06
5.2894149e-13
-0.00043273553
-2.7092571e-05
1.2073696e-12
-0.00042971347
-6.3693746e-05
1.8054048e-12
-0.00042177551
-0.00010034721
2.2237404e-12
-0.0004087411
-0.00013604949
2.545467e-12
-0.00039055481
-0.00016966998
2.9429041e-12
-0.00036732297
-0.00019998156
3.4402292e-12
-0.00033934929
-0.00022570934
3.8212239e-12
-0.00030716489
-0.00024559945
3.8468613e-12
-0.00027154642
-0.00025850761
3.5685201e-12
-0.00023351568
-0.00026350397
3.3092049e-12
-0.00019431472
-0.00025998557
3.2895228e-12
-0.00015535269
-0.00024778353
3.4040282e-12
-0.00011812508
-0.00022724784
3.2836455e-12
-8.4111701e-05
-0.00019929261
2.5405291e-12
-5.4665408e-05
-0.00016538897
2.8715216e-12
-3.0907304e-05
-0.00012750085
8.0070451e-12
-1.3644678e-05
-8.7963587e-05
3.6665583e-12
-3.3229844e-06
-4.9326088e-05
-2.6003984e-11
-1.4285533e-05
2.8413709e-11
-4.3334436e-06
3.0368763e-05
-3.6146247e-11
-1.5627758e-05
8.2933872e-05
3.5651302e-11
-3.2417837e-05
0.00012724205
-3.6068426e-12
-5.3460188e-05
0.00016363254
-1.0356357e-11
-7.771229e-05
0.0001926761
-4.4912773e-12
-0.00010431078
0.00021503535
-4.0631349e-12
-0.00013254463
0.0002313796
-4.7132506e-12
-0.0001618266
0.00024232454
-4.7184184e-12
-0.00019166549
0.00024839329
-4.5819374e-12
-0.0002216408
0.00024999761
-4.4390631e-12
-0.00025138048
0.00024743579
-4.2505977e-12
-0.00028054211
0.00024090364
-4.0307127e-12
-0.00030879764
0.00023051465
-3.7957438e-12
-0.00033582117
0.00021632594
-3.5246904e-12
-0.00036127954
0.00019836688
-3.174981e-12
-0.0003848253
0.00017666822
-2.7242134e-12
-0.00040609188
0.00015129029
-2.201769e-12
-0.00042469109
0.0001223496
-1.6750904e-12
-0.00044021315
9.0043633e-05
-1.1853656e-12
-0.00045222996
5.4674051e-05
-6.8682098e-13
-0.00046030236
1.6668121e-05
-7.7450995e-14
-0.00046399291
-2.3402026e-05
6.3875376e-13
-0.00046288383
-6.4802807e-05
1.4267414e-12
-0.00045660275
-0.00010662824
2.1070286e-12
-0.00044485545
-0.00014779678
2.5713836e-12
-0.00042746554
-0.00018705992
2.9019153e-12
-0.00040441969
-0.00022302745
3.2733487e-12
-0.00037591512
-0.00025421392
3.7159246e-12
-0.00034240411
-0.00027911042
4.0237001e-12
-0.00030462819
-0.0002962835
3.9785546e-12
-0.00026363301
-0.00030449916
3.6455639e-12
-0.00022075484
-0.00030286379
3.3449853e-12
-0.00017757141
-0.00029096699
3.3040036e-12
-0.00013581483
-0.0002690044
3.2386152e-12
-9.7251791e-05
-0.00023785562
2.4837539e-12
-6.3544748e-05
-0.00019909602
2.8653269e-12
-3.6114644e-05
-0.00015493097
8.8723594e-12
-1.6028539e-05
-0.0001080497
3.7318509e-12
-3.9298302e-06
-6.142476e-05
-3.1302164e-11
-1.8215392e-05
3.3086603e-11
-4.4872131e-06
3.4856015e-05
-3.7460084e-11
-1.6177289e-05
9.462391e-05
3.6932863e-11
-3.354983e-05
0.0001446146
-3.7695756e-12
-5.5314442e-05
0.00018539716
-1.0785267e-11
-8.0390206e-05
0.00021775187
-4.7284842e-12
-0.00010788459
0.00024252974
-4.2969619e-12
-0.00013706698
0.000260562
-4.9800835e-12
-0.00016733995
0.00027259751
-5.004312e-12
-0.00019821082
0.00027926417
-4.9002308e-12
-0.00022926519
0.00028105198
-4.8012774e-12
-0.00026014321
0.00027831381
-4.6427797e-12
-0.00029051916
0.0002712796
-4.4226493e-12
-0.00032008428
0.00026007979
-4.1739842e-12
-0.0003485326
0.00024477427
-3.9154751e-12
-0.00037554933
0.00022538362
-3.6273071e-12
-0.00040080157
0.00020192045
-3.2604539e-12
-0.00042393097
0.00017441969
-2.7801998e-12
-0.00044454866
0.0001429673
-2.2104844e-12
-0.00046223256
0.00010772756
-1.6258349e-12
-0.00047652796
6.8969469e-05
-1.0799068e-12
-0.00048695222
2.7092375e-05
-5.4124898e-13
-0.00049300501
-1.7349268e-05
7.6836227e-14
-0.00049418502
-6.3622806e-05
8.4878818e-13
-0.00049001521
-0.00011079803
1.6990291e-12
-0.00048007714
-0.00015773482
2.4413196e-12
-0.00046405508
-0.00020308197
2.9506083e-12
-0.00044178921
-0.00024529335
3.2899831e-12
-0.00041333526
-0.00028266791
3.6199367e-12
-0.00037902551
-0.00031342018
3.9657097e-12
-0.00033952292
-0.00033578606
4.1411771e-12
-0.00029585714
-0.00034816491
3.9751476e-12
-0.00024942948
-0.00034929146
3.588505e-12
-0.00020197473
-0.00033842178
3.3183495e-12
-0.00015547265
-0.00031550649
3.0963798e-12
-0.00011201145
-0.00028131681
2.2338564e-12
-7.3617396e-05
-0.00023749005
2.7745742e-12
-4.2076945e-05
-0.00018647143
9.9219537e-12
-1.8783978e-05
-0.00013134267
3.8713769e-12
-4.6400049e-06
-7.5568697e-05
-3.7456967e-11
-2.2855433e-05
3.8532488e-11
-4.5902739e-06
3.9446328e-05
-3.8419816e-11
-1.6552656e-05
0.00010658626
3.773514e-11
-3.4333284e-05
0.00016239523
-3.9568606e-12
-5.6610782e-05
0.00020767467
-1.1164689e-11
-8.2277035e-05
0.00024341813
-4.9928808e-12
-0.00011041799
0.0002706707
-4.5719122e-12
-0.00014028867
0.00029043269
-5.2811223e-12
-0.00017128522
0.00030359406
-5.3099987e-12
-0.00020291654
0.0003108955
-5.216231e-12
-0.0002347773
0.00031291274
-5.1508504e-12
-0.00026652316
0.00031005967
-5.0404959e-12
-0.00029784899
0.00030260544
-4.852893e-12
-0.00032847011
0.00029070091
-4.5988581e-12
-0.00035810619
0.00027441037
-4.3117266e-12
-0.00038646769
0.00025374513
-4.0178161e-12
-0.00041324428
0.00022869704
-3.7035723e-12
-0.0004380951
0.0001992705
-3.3150392e-12
-0.00046064094
0.00016551314
-2.8042509e-12
-0.00048045873
0.00012754535
-2.185237e-12
-0.00049707886
8.5589624e-05
-1.5340182e-12
-0.00050998659
4.0000124e-05
-9.2017621e-13
-0.00051862879
-8.7070739e-06
-3.2865448e-13
-0.00052242776
-5.9823854e-05
3.3597064e-13
-0.00052080407
-0.00011242174
1.1529934e-12
-0.00051321035
-0.00016532853
2.0493761e-12
-0.00049917768
-0.00021711461
2.8333488e-12
-0.00047837497
-0.00026609604
3.3666603e-12
-0.00045068011
-0.00031036279
3.6919029e-12
-0.00041625848
-0.00034784185
3.9423996e-12
-0.00037564047
-0.00037640408
4.1298338e-12
-0.00032978496
-0.00039402039
4.1049576e-12
-0.00028011158
-0.00039896481
3.8067824e-12
-0.00022848347
-0.0003900499
3.4479343e-12
-0.00017712597
-0.00036686401
3.0093992e-12
-0.00012847751
-0.00032996528
1.8688593e-12
-8.4985485e-05
-0.00028098207
2.5330575e-12
-4.8878578e-05
-0.00022257834
1.1083313e-11
-2.1960795e-05
-0.00015826046
4.0645516e-12
-5.4696703e-06
-9.2059778e-05
-4.4571488e-11
-2.8325148e-05
4.489499e-11
-4.6407117e-06
4.4087079e-05
-3.9007025e-11
-1.6747959e-05
0.00011869347
3.8039128e-11
-3.4756254e-05
0.00018040353
-4.1676226e-12
-5.7328369e-05
0.0002302468
-1.1479335e-11
-8.3339131e-05
0.0002694289
-5.2635253e-12
-0.00011185954
0.00029919111
-4.8701722e-12
-0.00014213453
0.00032070769
-5.6129136e-12
-0.00017355676
0.0003350163
-5.6513268e-12
-0.00020563913
0.00034297788
-5.5515651e-12
-0.00023798776
0.00034526137
-5.486378e-12
-0.00027027663
0.00034234855
-5.4023112e-12
-0.00030222478
0.00033455359
-5.2609749e-12
-0.00033357609
0.00032205222
-5.0396054e-12
-0.0003640816
0.00030491589
-4.7417387e-12
-0.00039348411
0.00028314765
-4.4028207e-12
-0.0004215045
0.00025671745
-4.0595706e-12
-0.00044782981
0.00022559581
-3.7064713e-12
-0.00047210271
0.00018978603
-3.2864961e-12
-0.00049391302
0.00014935566
-2.739247e-12
-0.00051279156
0.00010446817
-2.0659008e-12
-0.00052820756
5.541614e-05
-1.3412537e-12
-0.00053957087
2.6562609e-06
-6.4363412e-13
-0.00054624132
-5.315341e-05
1.0750078e-14
-0.00054754691
-0.00011111617
7.3381511e-13
-0.00054281452
-0.00017006094
1.5930052e-12
-0.00053141533
-0.00022851379
2.5118696e-12
-0.00051282758
-0.00028468377
3.2984949e-12
-0.00048671692
-0.00033647344
3.8113495e-12
-0.00045303205
-0.00038152674
4.0717057e-12
-0.00041210787
-0.0004173283
4.1739182e-12
-0.00036476241
-0.00044136586
4.1217009e-12
-0.00031236651
-0.0004513607
3.8761374e-12
-0.00025686055
-0.00044555585
3.5387275e-12
-0.0002006936
-0.00042303096
2.9627391e-12
-0.00014667098
-0.0003839879
1.4707172e-12
-9.7717306e-05
-0.00032993576
2.1837945e-12
-5.6590271e-05
-0.00026370538
1.2342247e-11
-2.5605296e-05
-0.00018924543