/*--------------------------------*- C++ -*----------------------------------*\
  =========                 |
  \\      /  F ield         | OpenFOAM: The Open Source CFD Toolbox
   \\    /   O peration     | Website:  https://openfoam.org
    \\  /    A nd           | Version:  7
     \\/     M anipulation  |
\*---------------------------------------------------------------------------*/
FoamFile
{
    version     2.0;
    format      ascii;
    class       surfaceScalarField;
    location    "27";
    object      phi_0;
}
// * * * * * * * * * * * * * * * * * * * * * * * * * * * * * * * * * * * * * //

dimensions      [0 3 -1 0 0 0 0];

internalField   nonuniform List<scalar> 
45600
(
2.7493991e-07
-2.8246761e-07
-8.4617443e-11
4.0321981e-07
-1.2825326e-07
-2.6705974e-11
1.3249784e-07
2.7072909e-07
-7.6007918e-12
-5.6234302e-07
6.9484293e-07
-2.1889103e-12
-1.6393293e-06
1.0769841e-06
3.0653992e-12
-3.0276301e-06
1.3882954e-06
6.621268e-12
-4.6524658e-06
1.6248269e-06
8.9448128e-12
-6.4450932e-06
1.7926158e-06
1.0578009e-11
-8.3454154e-06
1.9003098e-06
1.1739754e-11
-1.030143e-05
1.9560027e-06
1.2520669e-11
-1.2267384e-05
1.9659426e-06
1.2968776e-11
-1.4201559e-05
1.9341624e-06
1.3111829e-11
-1.6064213e-05
1.8626404e-06
1.2966841e-11
-1.7815997e-05
1.7517718e-06
1.253749e-11
-1.941702e-05
1.6010114e-06
1.1813403e-11
-2.0826622e-05
1.4095905e-06
1.0781917e-11
-2.2003869e-05
1.177238e-06
9.4396201e-12
-2.2908729e-05
9.0485397e-07
7.7872587e-12
-2.3503824e-05
5.9509359e-07
5.8314621e-12
-2.3756655e-05
2.5282894e-07
3.5763377e-12
-2.3642094e-05
-1.1456381e-07
1.0610969e-12
-2.3144967e-05
-4.9712995e-07
-1.6259902e-12
-2.2262539e-05
-8.8242472e-07
-4.3627093e-12
-2.1006587e-05
-1.2559393e-06
-7.0227686e-12
-1.9404833e-05
-1.6017333e-06
-9.521128e-12
-1.7501524e-05
-1.9032916e-06
-1.1795419e-11
-1.5356942e-05
-2.1445779e-06
-1.3746785e-11
-1.304574e-05
-2.3112065e-06
-1.5174618e-11
-1.0654099e-05
-2.3916341e-06
-1.5832561e-11
-8.2758186e-06
-2.3782459e-06
-1.5598694e-11
-6.00756e-06
-2.2682103e-06
-1.4599494e-11
-3.9435134e-06
-2.0640231e-06
-1.3091081e-11
-2.169774e-06
-1.7737638e-06
-1.1140375e-11
-7.585549e-07
-1.4112599e-06
-8.4773979e-12
2.3817832e-07
-9.9672681e-07
-4.984572e-12
7.9653075e-07
-5.5828434e-07
-1.4822542e-12
9.2930548e-07
-1.3271151e-07
1.965701e-12
7.0563038e-07
2.2362695e-07
5.2512231e-12
2.9049028e-07
4.1499787e-07
8.4666521e-12
2.9040315e-07
1.7019704e-12
1.3277499e-07
-4.1521858e-07
-2.4109979e-11
-3.0179403e-07
3.0633208e-07
-1.5301399e-11
-1.6154818e-06
1.5844309e-06
-1.3238247e-11
-3.8747623e-06
2.9541366e-06
-1.3862129e-11
-7.0073745e-06
4.2096102e-06
-1.4909595e-11
-1.0879764e-05
5.2607021e-06
-1.6357468e-11
-1.533516e-05
6.0802419e-06
-1.7722544e-11
-2.0215981e-05
6.6734572e-06
-1.8712953e-11
-2.5374025e-05
7.0583722e-06
-1.9267103e-11
-3.0673224e-05
7.2552199e-06
-1.9382035e-11
-3.5988478e-05
7.281215e-06
-1.9075592e-11
-4.1202752e-05
7.148456e-06
-1.83768e-11
-4.6203883e-05
6.8637899e-06
-1.7305244e-11
-5.0882e-05
6.4299061e-06
-1.5866046e-11
-5.5128122e-05
5.8471492e-06
-1.4063628e-11
-5.88342e-05
5.1156817e-06
-1.1909506e-11
-6.1894677e-05
4.2377242e-06
-9.4124773e-12
-6.420948e-05
3.2196611e-06
-6.5899128e-12
-6.5688227e-05
2.0738457e-06
-3.4508079e-12
-6.6255335e-05
8.1994387e-07
-6.7476644e-14
-6.5855849e-05
-5.1404395e-07
3.4444449e-12
-6.4460677e-05
-1.8923053e-06
7.0023794e-12
-6.2072355e-05
-3.270765e-06
1.0461479e-11
-5.8728981e-05
-4.5993404e-06
1.3760875e-11
-5.4506984e-05
-5.8237518e-06
1.6838889e-11
-4.9521823e-05
-6.8884559e-06
1.9547481e-11
-4.3926318e-05
-7.7400769e-06
2.1634428e-11
-3.7906379e-05
-8.3311603e-06
2.2868685e-11
-3.1674093e-05
-8.6239727e-06
2.3222844e-11
-2.5458383e-05
-8.5940255e-06
2.2900534e-11
-1.9493615e-05
-8.2330071e-06
2.2091672e-11
-1.4006715e-05
-7.550886e-06
2.0675867e-11
-9.20326e-06
-6.5771667e-06
1.8293765e-11
-5.2528735e-06
-5.3616689e-06
1.4882356e-11
-2.2739954e-06
-3.9757142e-06
1.1080099e-11
-3.1733539e-07
-2.5150316e-06
7.6977087e-12
6.5700155e-07
-1.1069842e-06
4.613677e-12
8.0368682e-07
7.7142278e-08
3.6274998e-12
4.1792679e-07
8.009289e-07
4.4784477e-12
7.0825696e-07
-3.3303168e-12
-2.7363278e-07
-1.4157295e-07
-1.3303763e-11
-1.6275518e-06
1.6602598e-06
-8.1055114e-12
-4.2894657e-06
4.2463561e-06
-9.337174e-12
-8.2747205e-06
6.9394006e-06
-7.8263056e-12
-1.3474439e-05
9.4093338e-06
-5.7752132e-12
-1.9708719e-05
1.1494986e-05
-4.6347841e-12
-2.6765725e-05
1.3137252e-05
-3.8814449e-12
-3.4426566e-05
1.4334304e-05
-3.2585881e-12
-4.2478557e-05
1.5110367e-05
-2.7454124e-12
-5.0720355e-05
1.5497019e-05
-2.3001903e-12
-5.8962178e-05
1.552304e-05
-1.8772018e-12
-6.7023553e-05
1.5209832e-05
-1.4576161e-12
-7.4730376e-05
1.4570613e-05
-1.0381425e-12
-8.1912546e-05
1.3612077e-05
-6.1348713e-13
-8.840296e-05
1.2337564e-05
-1.7987611e-13
-9.4038275e-05
1.0750999e-05
2.5138523e-13
-9.8661583e-05
8.8610351e-06
6.5932563e-13
-0.00010212688
6.6849519e-06
1.0221463e-12
-0.00010430501
4.2519696e-06
1.3513956e-12
-0.00010509079
1.6057191e-06
1.6690267e-12
-0.00010441043
-1.1944e-06
1.9835359e-12
-0.00010222925
-4.0734755e-06
2.2467106e-12
-9.8558317e-05
-6.9416876e-06
2.386718e-12
-9.3459816e-05
-9.6978489e-06
2.3864102e-12
-8.7050232e-05
-1.2233359e-05
2.3268967e-12
-7.9500866e-05
-1.4437841e-05
2.33948e-12
-7.1035171e-05
-1.6205764e-05
2.4659657e-12
-6.1922622e-05
-1.7443675e-05
2.5702033e-12
-5.246905e-05
-1.8077521e-05
2.4538335e-12
-4.3003606e-05
-1.8059495e-05
2.1242874e-12
-3.3862796e-05
-1.7373882e-05
1.9041091e-12
-2.5372237e-05
-1.6041478e-05
2.1364825e-12
-1.7826889e-05
-1.4122463e-05
2.7197125e-12
-1.1470374e-05
-1.171809e-05
3.0834978e-12
-6.4738169e-06
-8.9722561e-06
2.848205e-12
-2.9140416e-06
-6.0749286e-06
2.3426569e-12
-7.5128817e-07
-3.2698937e-06
2.1890619e-12
1.9429867e-07
-8.6846952e-07
3.4132601e-12
2.6553287e-07
7.2981439e-07
5.7180216e-12
9.7378165e-07
7.3984435e-13
-7.4587148e-07
6.0431198e-07
-1.3392266e-11
-3.1796777e-06
4.0940673e-06
-2.0103637e-12
-7.3461468e-06
8.4128335e-06
-7.4158059e-12
-1.3163086e-05
1.2756349e-05
-6.7095886e-12
-2.0455828e-05
1.6702081e-05
-4.0413622e-12
-2.899262e-05
2.0031781e-05
-2.6702441e-12
-3.8513835e-05
2.2658467e-05
-1.7518097e-12
-4.8752605e-05
2.4573075e-05
-9.2411261e-13
-5.944688e-05
2.5804644e-05
-2.4393932e-13
-7.0344702e-05
2.6394842e-05
2.9800747e-13
-8.1204968e-05
2.6383305e-05
7.4643203e-13
-9.1795794e-05
2.5800657e-05
1.1271568e-12
-0.0001018922
2.4667017e-05
1.4459717e-12
-0.0001112744
2.299427e-05
1.705084e-12
-0.00011972753
2.0790694e-05
1.9133027e-12
-0.00012704334
1.8066809e-05
2.0755312e-12
-0.00013302388
1.4841574e-05
2.178387e-12
-0.00013748712
1.1148201e-05
2.1854333e-12
-0.00014027421
7.0390614e-06
2.0729988e-12
-0.00014125776
2.5892528e-06
1.8643061e-12
-0.00014035049
-2.101679e-06
1.6278312e-12
-0.00013751411
-6.9098525e-06
1.3719853e-12
-0.00013276676
-1.1689025e-05
1.0778247e-12
-0.00012618905
-1.6275538e-05
6.7266108e-13
-0.00011792765
-2.0494762e-05
1.2665373e-13
-0.00010819571
-2.4169807e-05
-4.4733426e-13
-9.7269716e-05
-2.7131789e-05
-8.3122882e-13
-8.5482286e-05
-2.9231101e-05
-9.0026396e-13
-7.3210833e-05
-3.0348927e-05
-7.9426166e-13
-6.0862154e-05
-3.0408128e-05
-8.040634e-13
-4.8853365e-05
-2.9382687e-05
-9.940658e-13
-3.758987e-05
-2.730505e-05
-9.8544275e-13
-2.7441329e-05
-2.4271058e-05
-3.0284368e-13
-1.8716704e-05
-2.0442662e-05
9.6406158e-13
-1.1639425e-05
-1.6049407e-05
2.0642707e-12
-6.3235215e-06
-1.139077e-05
2.4394178e-12
-2.7515359e-06
-6.8419603e-06
2.5643074e-12
-7.5720533e-07
-2.862914e-06
3.273962e-12
-9.5409363e-09
-1.7840961e-08
4.3592638e-12
9.6427248e-07
3.7677569e-12
-1.2279783e-06
1.8323062e-06
-1.4780303e-11
-4.788131e-06
7.6542154e-06
4.0846057e-12
-1.0521562e-05
1.414627e-05
-6.473994e-12
-1.8214339e-05
2.0449134e-05
-7.5423795e-12
-2.7603919e-05
2.6091668e-05
-5.1267288e-12
-3.8396248e-05
3.0824116e-05
-4.3779956e-12
-5.0282972e-05
3.4545195e-05
-4.0215397e-12
-6.2954665e-05
3.7244771e-05
-3.5387275e-12
-7.6108883e-05
3.8958865e-05
-3.0608848e-12
-8.9453583e-05
3.9739545e-05
-2.6230942e-12
-0.00010270725
3.9636972e-05
-2.1997559e-12
-0.00011559727
3.8690685e-05
-1.7741778e-12
-0.00012785806
3.6927802e-05
-1.3453593e-12
-0.00013922988
3.4366099e-05
-9.2148284e-13
-0.00014945941
3.1020219e-05
-5.0356053e-13
-0.00015830212
2.6909516e-05
-7.8286952e-14
-0.00016552687
2.2066324e-05
3.6694198e-13
-0.00017092237
1.6543703e-05
8.1408531e-13
-0.00017430521
1.0421908e-05
1.2146705e-12
-0.00017552897
3.8130163e-06
1.527461e-12
-0.00017449375
-3.1369046e-06
1.7629694e-12
-0.00017115553
-1.0248091e-05
1.9729056e-12
-0.00016553447
-1.7310091e-05
2.2146965e-12
-0.00015772159
-2.4088404e-05
2.4577866e-12
-0.0001478829
-3.0333429e-05
2.5755072e-12
-0.00013626033
-3.5792377e-05
2.468351e-12
-0.00012316873
-4.0223414e-05
2.2223167e-12
-0.00010898854
-4.3411336e-05
2.1002665e-12
-9.4153668e-05
-4.5183811e-05
2.2870009e-12
-7.9134733e-05
-4.5427013e-05
2.6219122e-12
-6.441794e-05
-4.4099416e-05
2.6958741e-12
-5.0480265e-05
-4.1242731e-05
2.3500469e-12
-3.7762098e-05
-3.698932e-05
2.0134536e-12
-2.6638839e-05
-3.1566011e-05
2.266857e-12
-1.7393187e-05
-2.5295034e-05
3.0188316e-12
-1.0189885e-05
-1.8593962e-05
3.6182526e-12
-5.0546965e-06
-1.1977102e-05
3.9280015e-12
-1.8598478e-06
-6.0578313e-06
3.1508882e-12
-3.2225379e-07
-1.5554663e-06
1.7597828e-13
6.4203191e-07
5.8205871e-12
-1.6931723e-06
3.5254968e-06
-1.7210047e-11
-6.3714144e-06
1.2332449e-05
9.5783607e-12
-1.3671449e-05
2.144631e-05
-5.4546074e-12
-2.3234038e-05
3.0011729e-05
-7.6162416e-12
-3.4695194e-05
3.755283e-05
-4.8747767e-12
-4.7689738e-05
4.3818666e-05
-4.290716e-12
-6.1857401e-05
4.8712863e-05
-4.1597363e-12
-7.6847904e-05
5.2235278e-05
-3.7943822e-12
-9.2323667e-05
5.443463e-05
-3.387087e-12
-0.00010796003
5.5375909e-05
-2.9945878e-12
-0.00012344368
5.512063e-05
-2.5969303e-12
-0.00013847037
5.3717377e-05
-2.1814385e-12
-0.00015274287
5.1200303e-05
-1.7429547e-12
-0.00016597015
4.7593384e-05
-1.2911134e-12
-0.00017786833
4.2918395e-05
-8.4422347e-13
-0.00018816362
3.7204806e-05
-4.0751322e-13
-0.00019659745
3.0500145e-05
3.8731797e-14
-0.00020293339
2.2879639e-05
5.1602688e-13
-0.00020696569
1.4454211e-05
1.0109414e-12
-0.00020852884
5.3761787e-06
1.4639215e-12
-0.00020750767
-4.1580705e-06
1.8072104e-12
-0.00020384725
-1.3908523e-05
2.0353033e-12
-0.00019756207
-2.3595294e-05
2.2233249e-12
-0.0001887436
-3.2906886e-05
2.4697199e-12
-0.00017756555
-4.1511467e-05
2.7675673e-12
-0.00016428594
-4.9071955e-05
2.9582581e-12
-0.00014924522
-5.5264118e-05
2.8753059e-12
-0.00013285965
-5.9796928e-05
2.5788241e-12
-0.00011560949
-6.2434036e-05
2.3944334e-12
-9.8021627e-05
-6.3014901e-05
2.6002814e-12
-8.0647107e-05
-6.1473883e-05
3.0430582e-12
-6.4034052e-05
-5.7855702e-05
3.2150821e-12
-4.869734e-05
-5.2326017e-05
2.8800829e-12
-3.508686e-05
-4.5176579e-05
2.4655189e-12
-2.3556689e-05
-3.6825294e-05
2.5378184e-12
-1.4337875e-05
-2.7812759e-05
3.2716408e-12
-7.5174543e-06
-1.8797445e-05
4.5625858e-12
-3.0267068e-06
-1.0548574e-05
3.5126558e-12
-6.4250021e-07
-3.9397053e-06
-2.2601886e-12
-4.7816821e-10
8.175916e-12
-2.1329371e-06
5.6584536e-06
-1.9951034e-11
-7.8910691e-06
1.8090569e-05
1.4429577e-11
-1.6717383e-05
3.027263e-05
-4.6527943e-12
-2.8105696e-05
4.1400049e-05
-7.6325222e-12
-4.1585014e-05
5.103215e-05
-4.4121042e-12
-5.6714023e-05
5.8947679e-05
-3.8732832e-12
-7.3078124e-05
6.507697e-05
-3.8710074e-12
-9.0286889e-05
6.9444048e-05
-3.5571367e-12
-0.00010797108
7.2118823e-05
-3.1837463e-12
-0.00012577898
7.3183812e-05
-2.8226596e-12
-0.00014337241
7.2714061e-05
-2.4536821e-12
-0.00016042304
7.0768012e-05
-2.0700842e-12
-0.00017660978
6.7387036e-05
-1.6620015e-12
-0.00019161769
6.2601303e-05
-1.2238534e-12
-0.00020513904
5.6439744e-05
-7.7199135e-13
-0.00021687634
4.8942111e-05
-3.3701615e-13
-0.00022654763
4.0171434e-05
6.8698791e-14
-0.00023389354
3.0225545e-05
4.6851015e-13
-0.00023868598
1.9246639e-05
8.9872095e-13
-0.0002407379
7.4281032e-06
1.3582066e-12
-0.00023991385
-4.9821073e-06
1.7785227e-12
-0.00023614052
-1.7681846e-05
2.0709122e-12
-0.00022941699
-3.0318828e-05
2.1966068e-12
-0.00021982372
-4.2500188e-05
2.251311e-12
-0.00020752953
-5.3805685e-05
2.3908959e-12
-0.00019279574
-6.3805734e-05
2.6528935e-12
-0.00017597637
-7.2083451e-05
2.8572966e-12
-0.00015751333
-7.8259932e-05
2.7634688e-12
-0.00013792587
-8.2021522e-05
2.3908863e-12
-0.00011779354
-8.3147302e-05
2.1193086e-12
-9.7732827e-05
-8.1534641e-05
2.3175095e-12
-7.8368015e-05
-7.7220471e-05
2.8485711e-12
-6.0297745e-05
-7.03962e-05
3.1426611e-12
-4.4059424e-05
-6.1414879e-05
2.8808275e-12
-3.0094393e-05
-5.0790399e-05
2.4247284e-12
-1.8717273e-05
-3.9189945e-05
2.7721466e-12
-1.0093046e-05
-2.7421648e-05
4.7248616e-12
-4.2252919e-06
-1.6416289e-05
3.6847127e-12
-9.5847769e-07
-7.2065162e-06
-4.8466483e-12
-9.5898036e-07
1.0165112e-11
-2.5450511e-06
8.2035264e-06
-2.2716033e-11
-9.3288306e-06
2.4874331e-05
1.8739388e-11
-1.9615326e-05
4.0559131e-05
-4.1246808e-12
-3.2756782e-05
5.4541515e-05
-7.8482103e-12
-4.8175784e-05
6.6451155e-05
-4.1766911e-12
-6.5353947e-05
7.6125845e-05
-3.7015897e-12
-8.382195e-05
8.3544978e-05
-3.8474964e-12
-0.00010315038
8.8772487e-05
-3.601528e-12
-0.00012294133
9.1909776e-05
-3.2723451e-12
-0.00014282062
9.3063101e-05
-2.9468964e-12
-0.00016243096
9.2324406e-05
-2.6019502e-12
-0.00018142645
8.9763504e-05
-2.2410221e-12
-0.00019946878
8.5429366e-05
-1.8634408e-12
-0.00021622554
7.9358063e-05
-1.4512683e-12
-0.00023137077
7.1584976e-05
-9.9481982e-13
-0.00024458777
6.215911e-05
-5.161468e-13
-0.00025557402
5.1157692e-05
-5.9076889e-14
-0.00026404809
3.8699614e-05
3.5141829e-13
-0.00026975809
2.4956629e-05
7.3876003e-13
-0.00027249152
1.016152e-05
1.1554203e-12
-0.00027208612
-5.3875119e-06
1.6183586e-12
-0.00026844117
-2.1326778e-05
2.0722374e-12
-0.00026152921
-3.723077e-05
2.3748973e-12
-0.00025140688
-5.262252e-05
2.4583458e-12
-0.00023822452
-6.6988082e-05
2.4262751e-12
-0.00022223323
-7.9797059e-05
2.492603e-12
-0.00020378828
-9.0528409e-05
2.7519906e-12
-0.00018334729
-9.8700872e-05
3.0135775e-12
-0.0001614621
-0.00010390666
2.9626093e-12
-0.00013876301
-0.0001058464
2.5686943e-12
-0.00011593516
-0.00010436256
2.2460913e-12
-9.3687429e-05
-9.9468262e-05
2.4279451e-12
-7.2715334e-05
-9.1368263e-05
2.9830925e-12
-5.3660638e-05
-8.0469499e-05
3.2496369e-12
-3.7071004e-05
-6.7380022e-05
2.8343976e-12
-2.3363925e-05
-5.2897086e-05
2.789527e-12
-1.279932e-05
-3.798629e-05
4.9044688e-12
-5.4648752e-06
-2.3750717e-05
3.5369114e-12
-1.2772479e-06
-1.1394115e-05
-7.6762801e-12
-2.2362448e-06
1.2704038e-11
-2.9284753e-06
1.1132027e-05
-2.5403494e-11
-1.0673649e-05
3.261948e-05
2.2593995e-11
-2.2336125e-05
5.2221612e-05
-3.7861842e-12
-3.713589e-05
6.934129e-05
-8.1733066e-12
-5.4393983e-05
8.3709254e-05
-4.0529874e-12
-7.3517454e-05
9.5249319e-05
-3.6173149e-12
-9.3984077e-05
0.0001040116
-3.8975163e-12
-0.00011532768
0.0001101161
-3.7186144e-12
-0.00013712485
0.00011370694
-3.4362526e-12
-0.00015898315
0.00011492141
-3.1501159e-12
-0.00018053135
0.00011387261
-2.8271223e-12
-0.00020141167
0.00011064383
-2.4736458e-12
-0.00022127451
0.00010529221
-2.108631e-12
-0.00023977563
9.7859177e-05
-1.7274155e-12
-0.0002565758
8.8385139e-05
-1.3036376e-12
-0.00027134286
7.6926172e-05
-8.2025763e-13
-0.00028375597
6.3570805e-05
-3.0139785e-13
-0.0002935118
4.8455453e-05
1.9582574e-13
-0.00030033258
3.1777414e-05
6.2767301e-13
-0.00030397573
1.3804653e-05
1.0070474e-12
-0.00030424496
-5.1182982e-06
1.3992538e-12
-0.00030100238
-2.4569363e-05
1.8824916e-12
-0.00029418195
-4.4051192e-05
2.3721562e-12
-0.0002838027
-6.3001741e-05
2.7059158e-12
-0.00026998169
-8.0809087e-05
2.7703829e-12
-0.00025294502
-9.6833758e-05
2.6621121e-12
-0.00023303559
-0.00011043789
2.6488198e-12
-0.00021071565
-0.00012102083
2.887404e-12
-0.00018656235
-0.00012805992
3.1878877e-12
-0.00016125453
-0.00013115416
3.1781911e-12
-0.00013554972
-0.00013006737
2.791886e-12
-0.00011025131
-0.00012476675
2.4705649e-12
-8.6167279e-05
-0.00011545234
2.6660853e-12
-6.4063645e-05
-0.00010257311
3.1229836e-12
-4.4616582e-05
-8.6827028e-05
3.0611794e-12
-2.8368475e-05
-6.9145193e-05
3.0802248e-12
-1.569314e-05
-5.0661668e-05
5.3783313e-12
-6.7752241e-06
-3.2668652e-05
3.3743769e-12
-1.6070335e-06
-1.6562282e-05
-1.0742839e-11
-3.8432872e-06
1.5299766e-11
-3.2816908e-06
1.4413747e-05
-2.7959875e-11
-1.1915841e-05
4.1253604e-05
2.604339e-11
-2.4855452e-05
6.5161225e-05
-3.5778187e-12
-4.1199819e-05
8.5685666e-05
-8.5648851e-12
-6.0176165e-05
0.0001026856
-4.0070537e-12
-8.1122054e-05
0.00011619521
-3.5799363e-12
-0.00010346606
0.00012635561
-3.9634943e-12
-0.00012670858
0.00013335862
-3.8371753e-12
-0.00015040429
0.00013740266
-3.597028e-12
-0.00017414673
0.00013866385
-3.3558823e-12
-0.00019755548
0.00013728137
-3.0680987e-12
-0.00022026618
0.00013335453
-2.7260707e-12
-0.00024192333
0.00012694938
-2.3542961e-12
-0.00026217609
0.00011811193
-1.9759594e-12
-0.00028067655
0.0001068856
-1.5861331e-12
-0.00029708066
9.3330277e-05
-1.1509699e-12
-0.0003110513
7.754144e-05
-6.4248658e-13
-0.00032226347
5.9667633e-05
-7.9803498e-14
-0.00033041153
3.9925476e-05
4.6692849e-13
-0.0003352183
1.8611428e-05
9.169182e-13
-0.00033644647
-3.8901395e-06
1.256945e-12
-0.0003339111
-2.7104758e-05
1.6570134e-12
-0.00032749536
-5.0466944e-05
2.1328364e-12
-0.0003171663
-7.3330789e-05
2.6483754e-12
-0.00030299174
-9.4983611e-05
3.0180525e-12
-0.0002851563
-0.00011466918
3.0764453e-12
-0.0002639747
-0.00013161951
2.9044959e-12
-0.00023990022
-0.00014509537
2.811247e-12
-0.00021352549
-0.00015443467
3.0054951e-12
-0.00018557348
-0.00015910614
3.3018219e-12
-0.0001568763
-0.00015876449
3.3009283e-12
-0.0001283414
-0.00015330164
2.946663e-12
-0.00010090591
-0.00014288789
2.7032239e-12
-7.5482382e-05
-0.00012799668
2.850483e-12
-5.2901071e-05
-0.00010940831
2.8885352e-12
-3.3855051e-05
-8.8191178e-05
3.2331359e-12
-1.8854751e-05
-6.5661976e-05
6.0646107e-12
-8.1982576e-06
-4.3325169e-05
3.3855552e-12
-1.9611656e-06
-2.2799366e-05
-1.4022862e-11
-5.804465e-06
1.7971504e-11
-3.602293e-06
1.8016071e-05
-3.0354589e-11
-1.3044838e-05
5.0696121e-05
2.909324e-11
-2.7149222e-05
7.926561e-05
-3.4662803e-12
-4.490706e-05
0.00010344351
-9.0001636e-12
-6.5461346e-05
0.00012323989
-4.0452032e-12
-8.808702e-05
0.00013882089
-3.6155638e-12
-0.00011216854
0.00015043713
-4.0785089e-12
-0.0001371771
0.00015836719
-3.9879386e-12
-0.0001626495
0.00016287507
-3.7767111e-12
-0.0001881695
0.00016418385
-3.5747548e-12
-0.00021335216
0.00016246403
-3.334545e-12
-0.0002378315
0.00015783387
-3.0303174e-12
-0.00026125133
0.00015036922
-2.6651406e-12
-0.00028325921
0.00014011983
-2.2665014e-12
-0.00030350317
0.00012712956
-1.8652484e-12
-0.00032163099
0.00011145809
-1.4616723e-12
-0.00033729176
9.32022e-05
-1.0157833e-12
-0.00035013968
7.2515556e-05
-4.8405513e-13
-0.00035984009
4.9625884e-05
1.2413265e-13
-0.00036607772
2.4849076e-05
7.0985514e-13
-0.00036856827
-1.3995855e-06
1.1364907e-12
-0.00036707066
-2.860237e-05
1.5685393e-12
-0.00036140572
-5.6131913e-05
1.9315466e-12
-0.00035147397
-8.3262563e-05
2.3803057e-12
-0.00033727725
-0.00010918033
2.9091302e-12
-0.00031894035
-0.00013300604
3.3080307e-12
-0.00029673122
-0.00015382861
3.3687564e-12
-0.0002710768
-0.00017074981
3.154032e-12
-0.00024257124
-0.00018294029
2.9964722e-12
-0.00021197295
-0.00018970446
3.1311838e-12
-0.00018018731
-0.0001905501
3.3744238e-12
-0.00014823306
-0.00018525584
3.3550738e-12
-0.00011719256
-0.0001739284
3.0813093e-12
-8.8148825e-05
-0.00015704046
2.8580929e-12
-6.2115306e-05
-0.00013544186
2.6085227e-12
-3.9966432e-05
-0.00011034004
3.1247935e-12
-2.237757e-05
-8.3250823e-05
6.734733e-12
-9.7826728e-06
-5.592007e-05
3.511642e-12
-2.3546946e-06
-3.0227336e-05
-1.7545109e-11
-8.1591815e-06
2.094666e-11
-3.8870403e-06
2.1903144e-05
-3.2551314e-11
-1.4048624e-05
6.0857674e-05
3.1722718e-11
-2.919198e-05
9.4408971e-05
-3.4370897e-12
-4.8215147e-05
0.00012246669
-9.4514639e-12
-7.0187673e-05
0.00014521242
-4.148062e-12
-9.4329837e-05
0.00016296306
-3.719988e-12
-0.00011998793
0.00017609523
-4.2530558e-12
-0.00014660874
0.000184988
-4.1914369e-12
-0.00017371548
0.00018998181
-3.9977179e-12
-0.0002008864
0.00019135477
-3.8163639e-12
-0.00022773658
0.00018931421
-3.6121427e-12
-0.00025390325
0.00018400055
-3.3611087e-12
-0.0002790346
0.00017550057
-3.0416882e-12
-0.00030278169
0.00016386691
-2.6499034e-12
-0.0003247933
0.00014914119
-2.2158508e-12
-0.00034471335
0.00013137814
-1.7815043e-12
-0.00036218055
0.0001106694
-1.3571318e-12
-0.00037683042
8.7165417e-05
-9.0064355e-13
-0.0003882997
6.1095155e-05
-3.5133668e-13
-0.00039623356
3.2782935e-05
3.0978568e-13
-0.00040029567
2.6625422e-06
1.0154938e-12
-0.00040018317
-2.871485e-05
1.521431e-12
-0.00039564337
-6.0671718e-05
1.8967927e-12
-0.00038649671
-9.2409248e-05
2.2233096e-12
-0.00037266203
-0.00012301504
2.6459804e-12
-0.00035418441
-0.00015148366
3.1696196e-12
-0.00033126326
-0.00017674971
3.5768287e-12
-0.00030427733
-0.00019773571
3.6327005e-12
-0.00027380255
-0.00021341508
3.3881249e-12
-0.00024061794
-0.00022288912
3.1800999e-12
-0.0002056949
-0.00022547317
3.2383498e-12
-0.00017016613
-0.00022078459
3.4001774e-12
-0.00013527295
-0.00020882153
3.3865753e-12
-0.00010229316
-0.00019002026
3.1072706e-12
-7.2455831e-05
-0.00016527922
2.5072485e-12
-4.6853233e-05
-0.00013594265
2.9448555e-12
-2.6361325e-05
-0.00010374273
7.3364603e-12
-1.158042e-05
-7.0700966e-05
3.6172358e-12
-2.8033083e-06
-3.9004427e-05
-2.1468814e-11
-1.0962518e-05
2.439522e-11
-4.1321066e-06
2.6035284e-05
-3.449873e-11
-1.491406e-05
7.1639594e-05
3.3911499e-11
-3.0957056e-05
0.00011045197
-3.4877908e-12
-5.1080533e-05
0.00014259017
-9.9056154e-12
-7.42921e-05
0.00016842399
-4.2973919e-12
-9.9765897e-05
0.00018843686
-3.8722692e-12
-0.0001268164
0.00020314574
-4.4707362e-12
-0.00015487096
0.00021304257
-4.4425353e-12
-0.00018344354
0.0002185544
-4.2710435e-12
-0.00021211105
0.00022002229
-4.1015434e-12
-0.00024049294
0.0002176961
-3.907672e-12
-0.00026823438
0.00021174199
-3.688629e-12
-0.00029499293
0.00020225911
-3.4287086e-12
-0.00032042842
0.00018930241
-3.0944499e-12
-0.00034419575
0.00017290851
-2.6735215e-12
-0.00036594006
0.00015312246
-2.1972085e-12
-0.00038529434
0.0001300237
-1.7202025e-12
-0.0004018793
0.00010375037
-1.2683007e-12
-0.00041530572
7.4521571e-05
-8.0002463e-13
-0.00042518006
4.2657259e-05
-2.1867746e-13
-0.00043111326
8.5957427e-06
5.2894149e-13
-0.00043273552
-2.7092573e-05
1.2073696e-12
-0.00042971347
-6.3693745e-05
1.8054048e-12
-0.00042177551
-0.0001003472
2.2237404e-12
-0.00040874109
-0.00013604949
2.545467e-12
-0.00039055481
-0.00016966998
2.9429041e-12
-0.00036732297
-0.00019998156
3.4402292e-12
-0.0003393493
-0.00022570935
3.8212239e-12
-0.0003071649
-0.00024559945
3.8468613e-12
-0.00027154642
-0.00025850761
3.5685201e-12
-0.00023351568
-0.00026350396
3.3092049e-12
-0.00019431472
-0.00025998557
3.2895228e-12
-0.00015535269
-0.00024778354
3.4040282e-12
-0.00011812508
-0.00022724784
3.2836455e-12
-8.4111702e-05
-0.00019929261
2.5405291e-12
-5.4665406e-05
-0.00016538897
2.8715216e-12
-3.0907301e-05
-0.00012750085
8.0070451e-12
-1.3644677e-05
-8.7963586e-05
3.6665583e-12
-3.3229847e-06
-4.9326087e-05
-2.6003984e-11
-1.4285532e-05
2.8413709e-11
-4.3334435e-06
3.0368764e-05
-3.6146247e-11
-1.5627758e-05
8.2933872e-05
3.5651302e-11
-3.2417837e-05
0.00012724205
-3.6068426e-12
-5.3460188e-05
0.00016363254
-1.0356357e-11
-7.7712289e-05
0.0001926761
-4.4912773e-12
-0.00010431078
0.00021503535
-4.0631349e-12
-0.00013254463
0.0002313796
-4.7132506e-12
-0.0001618266
0.00024232453
-4.7184184e-12
-0.00019166549
0.00024839329
-4.5819374e-12
-0.0002216408
0.00024999761
-4.4390631e-12
-0.00025138048
0.00024743579
-4.2505977e-12
-0.00028054211
0.00024090364
-4.0307127e-12
-0.00030879764
0.00023051465
-3.7957438e-12
-0.00033582117
0.00021632594
-3.5246904e-12
-0.00036127954
0.00019836688
-3.174981e-12
-0.0003848253
0.00017666822
-2.7242134e-12
-0.00040609188
0.00015129029
-2.201769e-12
-0.00042469109
0.0001223496
-1.6750904e-12
-0.00044021315
9.0043635e-05
-1.1853656e-12
-0.00045222995
5.4674055e-05
-6.8682098e-13
-0.00046030235
1.6668123e-05
-7.7450995e-14
-0.0004639929
-2.3402028e-05
6.3875376e-13
-0.00046288382
-6.480281e-05
1.4267414e-12
-0.00045660276
-0.00010662824
2.1070286e-12
-0.00044485546
-0.00014779678
2.5713836e-12
-0.00042746554
-0.00018705992
2.9019153e-12
-0.00040441968
-0.00022302745
3.2733487e-12
-0.00037591511
-0.00025421392
3.7159246e-12
-0.00034240411
-0.00027911042
4.0237001e-12
-0.00030462819
-0.0002962835
3.9785546e-12
-0.00026363301
-0.00030449915
3.6455639e-12
-0.00022075484
-0.00030286378
3.3449853e-12
-0.0001775714
-0.00029096699
3.3040036e-12
-0.00013581483
-0.0002690044
3.2386152e-12
-9.7251792e-05
-0.00023785562
2.4837539e-12
-6.3544748e-05
-0.00019909601
2.8653269e-12
-3.6114642e-05
-0.00015493097
8.8723594e-12
-1.6028538e-05
-0.0001080497
3.7318509e-12
-3.9298299e-06
-6.142476e-05
-3.1302164e-11
-1.8215392e-05
3.3086603e-11
-4.4872131e-06
3.4856015e-05
-3.7460084e-11
-1.6177289e-05
9.462391e-05
3.6932863e-11
-3.3549829e-05
0.0001446146
-3.7695756e-12
-5.5314441e-05
0.00018539716
-1.0785267e-11
-8.0390205e-05
0.00021775187
-4.7284842e-12
-0.00010788459
0.00024252974
-4.2969619e-12
-0.00013706698
0.000260562
-4.9800835e-12
-0.00016733995
0.00027259751
-5.004312e-12
-0.00019821082
0.00027926417
-4.9002308e-12
-0.00022926519
0.00028105198
-4.8012774e-12
-0.00026014321
0.00027831381
-4.6427797e-12
-0.00029051916
0.00027127959
-4.4226493e-12
-0.00032008428
0.00026007978
-4.1739842e-12
-0.00034853259
0.00024477427
-3.9154751e-12
-0.00037554933
0.00022538362
-3.6273071e-12
-0.00040080156
0.00020192045
-3.2604539e-12
-0.00042393097
0.00017441969
-2.7801998e-12
-0.00044454865
0.00014296729
-2.2104844e-12
-0.00046223256
0.00010772755
-1.6258349e-12
-0.00047652796
6.896947e-05
-1.0799068e-12
-0.00048695222
2.7092378e-05
-5.4124898e-13
-0.000493005
-1.7349267e-05
7.6836227e-14
-0.00049418501
-6.3622809e-05
8.4878818e-13
-0.00049001521
-0.00011079803
1.6990291e-12
-0.00048007714
-0.00015773482
2.4413196e-12
-0.00046405508
-0.00020308196
2.9506083e-12
-0.00044178921
-0.00024529334
3.2899831e-12
-0.00041333526
-0.00028266791
3.6199367e-12
-0.00037902551
-0.00031342018
3.9657097e-12
-0.00033952292
-0.00033578607
4.1411771e-12
-0.00029585714
-0.00034816491
3.9751476e-12
-0.00024942948
-0.00034929145
3.588505e-12
-0.00020197472
-0.00033842177
3.3183495e-12
-0.00015547265
-0.00031550649
3.0963798e-12
-0.00011201145
-0.00028131682
2.2338564e-12
-7.3617397e-05
-0.00023749005
2.7745742e-12
-4.2076946e-05
-0.00018647143
9.9219537e-12
-1.8783978e-05
-0.00013134267
3.8713769e-12
-4.6400046e-06
-7.5568698e-05
-3.7456967e-11
-2.2855434e-05
3.8532488e-11
-4.5902739e-06
3.9446329e-05
-3.8419816e-11
-1.6552656e-05
0.00010658626
3.773514e-11
-3.4333283e-05
0.00016239523
-3.9568606e-12
-5.6610781e-05
0.00020767467
-1.1164689e-11
-8.2277035e-05
0.00024341813
-4.9928808e-12
-0.00011041799
0.0002706707
-4.5719122e-12
-0.00014028867
0.00029043269
-5.2811223e-12
-0.00017128522
0.00030359406
-5.3099987e-12
-0.00020291654
0.0003108955
-5.216231e-12
-0.0002347773
0.00031291274
-5.1508504e-12
-0.00026652315
0.00031005967
-5.0404959e-12
-0.00029784899
0.00030260543
-4.852893e-12
-0.00032847011
0.00029070091
-4.5988581e-12
-0.00035810619
0.00027441036
-4.3117266e-12
-0.00038646769
0.00025374513
-4.0178161e-12
-0.00041324428
0.00022869704
-3.7035723e-12
-0.00043809509
0.0001992705
-3.3150392e-12
-0.00046064094
0.00016551313
-2.8042509e-12
-0.00048045872
0.00012754535
-2.185237e-12
-0.00049707886
8.5589621e-05
-1.5340182e-12
-0.00050998659
4.0000124e-05
-9.2017621e-13
-0.00051862879
-8.7070721e-06
-3.2865448e-13
-0.00052242776
-5.9823853e-05
3.3597064e-13
-0.00052080407
-0.00011242174
1.1529934e-12
-0.00051321035
-0.00016532853
2.0493761e-12
-0.00049917768
-0.00021711461
2.8333488e-12
-0.00047837497
-0.00026609604
3.3666603e-12
-0.00045068011
-0.00031036279
3.6919029e-12
-0.00041625847
-0.00034784185
3.9423996e-12
-0.00037564047
-0.00037640408
4.1298338e-12
-0.00032978496
-0.0003940204
4.1049576e-12
-0.00028011159
-0.00039896481
3.8067824e-12
-0.00022848347
-0.0003900499
3.4479343e-12
-0.00017712596
-0.000366864
3.0093992e-12
-0.00012847751
-0.00032996528
1.8688593e-12
-8.4985484e-05
-0.00028098208
2.5330575e-12
-4.8878578e-05
-0.00022257834
1.1083313e-11
-2.1960795e-05
-0.00015826046
4.0645516e-12
-5.4696704e-06
-9.2059779e-05
-4.4571488e-11
-2.8325149e-05
4.489499e-11
-4.6407117e-06
4.4087079e-05
-3.9007025e-11
-1.6747959e-05
0.00011869347
3.8039128e-11
-3.4756254e-05
0.00018040353
-4.1676226e-12
-5.7328369e-05
0.00023024679
-1.1479335e-11
-8.3339131e-05
0.00026942889
-5.2635253e-12
-0.00011185954
0.00029919111
-4.8701722e-12
-0.00014213453
0.00032070768
-5.6129136e-12
-0.00017355676
0.0003350163
-5.6513268e-12
-0.00020563913
0.00034297788
-5.5515651e-12
-0.00023798776
0.00034526137
-5.486378e-12
-0.00027027663
0.00034234854
-5.4023112e-12
-0.00030222478
0.00033455359
-5.2609749e-12
-0.00033357609
0.00032205222
-5.0396054e-12
-0.0003640816
0.00030491588
-4.7417387e-12
-0.0003934841
0.00028314765
-4.4028207e-12
-0.0004215045
0.00025671745
-4.0595706e-12
-0.00044782981
0.00022559581
-3.7064713e-12
-0.00047210271
0.00018978603
-3.2864961e-12
-0.00049391302
0.00014935565
-2.739247e-12
-0.00051279156
0.00010446817
-2.0659008e-12
-0.00052820756
5.5416137e-05
-1.3412537e-12
-0.00053957087
2.6562601e-06
-6.4363412e-13
-0.00054624132
-5.3153409e-05
1.0750078e-14
-0.00054754691
-0.00011111617
7.3381511e-13
-0.00054281452
-0.00017006094
1.5930052e-12
-0.00053141533
-0.00022851379
2.5118696e-12
-0.00051282758
-0.00028468377
3.2984949e-12
-0.00048671692
-0.00033647344
3.8113495e-12
-0.00045303205
-0.00038152674
4.0717057e-12
-0.00041210786
-0.00041732829
4.1739182e-12
-0.00036476241
-0.00044136586
4.1217009e-12
-0.00031236651
-0.0004513607
3.8761374e-12
-0.00025686055
-0.00044555585
3.5387275e-12
-0.0002006936
-0.00042303096
2.9627391e-12
-0.00014667098
-0.0003839879
1.4707172e-12
-9.7717304e-05
-0.00032993576
2.1837945e-12
-5.659027e-05
-0.00026370538
1.2342247e-11
-2.5605297e-05
-0.00018924543