/*--------------------------------*- C++ -*----------------------------------*\
  =========                 |
  \\      /  F ield         | OpenFOAM: The Open Source CFD Toolbox
   \\    /   O peration     | Website:  https://openfoam.org
    \\  /    A nd           | Version:  7
     \\/     M anipulation  |
\*---------------------------------------------------------------------------*/
FoamFile
{
    version     2.0;
    format      ascii;
    class       volVectorField;
    location    "27";
    object      U;
}
// * * * * * * * * * * * * * * * * * * * * * * * * * * * * * * * * * * * * * //

dimensions      [0 1 -1 0 0 0 0];

internalField   nonuniform List<vector> 
16000
(
(6.6003881e-05 -6.7372878e-05 -4.3002956e-07)
(0.00016269438 -5.6377593e-05 5.6681367e-06)
(0.00014189613 4.5385905e-07 1.9167632e-05)
(-5.0630053e-05 6.1886757e-05 3.659007e-05)
(-0.00040997777 0.00011562933 5.4698574e-05)
(-0.00090902815 0.00015774296 7.1526928e-05)
(-0.0015177114 0.00018850405 8.5739038e-05)
(-0.0022068843 0.00020960836 9.6519719e-05)
(-0.0029505981 0.00022287622 0.00010340861)
(-0.00372646 0.00022981078 0.00010615881)
(-0.0045150439 0.00023147687 0.00010464308)
(-0.0052990047 0.00022850365 9.8798399e-05)
(-0.0060621829 0.00022114701 8.8600084e-05)
(-0.0067888524 0.0002093826 7.4058676e-05)
(-0.0074632029 0.00019301323 5.5232944e-05)
(-0.0080691028 0.00017178022 3.2253134e-05)
(-0.0085901546 0.00014547164 5.3491517e-06)
(-0.0090100339 0.00011402233 -2.5121129e-05)
(-0.0093130854 7.7601954e-05 -5.8647806e-05)
(-0.0094851303 3.6687537e-05 -9.4553134e-05)
(-0.0095144293 -7.8868621e-06 -0.0001319874)
(-0.0093927113 -5.4924436e-05 -0.00016993943)
(-0.0091162074 -0.00010284266 -0.0002072629)
(-0.0086865879 -0.00014974706 -0.00024272006)
(-0.0081116785 -0.00019350952 -0.00027504117)
(-0.007405882 -0.00023188554 -0.00030299727)
(-0.0065902075 -0.00026266269 -0.00032548186)
(-0.0056918447 -0.00028382915 -0.00034159504)
(-0.0047432575 -0.00029374675 -0.0003507227)
(-0.00378082 -0.00029130612 -0.00035260343)
(-0.002843065 -0.00027604137 -0.00034737676)
(-0.0019686484 -0.00024818991 -0.00033560901)
(-0.001194138 -0.00020870518 -0.00031829557)
(-0.00055166674 -0.00015926682 -0.00029684188)
(-6.6517425e-05 -0.00010240147 -0.00027301804)
(0.00024490871 -4.1742403e-05 -0.00024888141)
(0.00037894268 1.7852339e-05 -0.00022681258)
(0.00034980371 6.7054226e-05 -0.00020924644)
(0.00020621007 8.9825631e-05 -0.00019885557)
(5.7475322e-05 5.739586e-05 -0.00018440792)
(5.7980488e-05 -0.00016708765 -6.6629035e-06)
(4.0843452e-05 -3.9995881e-05 -4.1058728e-07)
(-0.00029500281 0.00024854613 1.1222804e-05)
(-0.0010110435 0.00056211316 2.5588766e-05)
(-0.0020992414 0.00084749059 4.0573698e-05)
(-0.0035140954 0.0010831169 5.4581802e-05)
(-0.0051946878 0.0012642982 6.6485799e-05)
(-0.0070766257 0.0013940646 7.5533392e-05)
(-0.009098141 0.0014779576 8.1242752e-05)
(-0.011202291 0.0015215243 8.3314198e-05)
(-0.013337015 0.0015292085 8.1564417e-05)
(-0.015454153 0.0015039732 7.5883461e-05)
(-0.017508121 0.0014473551 6.6212983e-05)
(-0.019454682 0.001359776 5.2542201e-05)
(-0.021250117 0.0012410002 3.4917226e-05)
(-0.022850932 0.0010906571 1.3459268e-05)
(-0.02421418 0.00090877416 -1.161265e-05)
(-0.025298384 0.00069627601 -3.9958583e-05)
(-0.026065006 0.00045541597 -7.1097926e-05)
(-0.026480346 0.00019010893 -0.00010439652)
(-0.026517761 -9.3863675e-05 -0.00013906353)
(-0.026159934 -0.00038877463 -0.00017416736)
(-0.025401117 -0.00068508881 -0.00020865213)
(-0.024249123 -0.00097175432 -0.00024138547)
(-0.022726711 -0.0012366862 -0.00027121184)
(-0.020872315 -0.0014674209 -0.00029701969)
(-0.018739881 -0.0016519027 -0.00031781672)
(-0.016397687 -0.0017793521 -0.00033280718)
(-0.013926102 -0.0018411459 -0.00034146415)
(-0.011414305 -0.0018316276 -0.00034358944)
(-0.008956098 -0.0017487625 -0.00033935429)
(-0.0066450067 -0.0015945777 -0.00032931708)
(-0.0045688897 -0.0013753947 -0.00031441679)
(-0.0028042102 -0.0011019801 -0.00029594387)
(-0.0014100165 -0.00078992542 -0.00027549026)
(-0.00042165237 -0.00046057002 -0.00025487188)
(0.0001557423 -0.00014253277 -0.00023600395)
(0.00035672158 0.00012231809 -0.00022090199)
(0.00027529391 0.00027110164 -0.00021166441)
(9.0145661e-05 0.00020507106 -0.00019547182)
(1.9087805e-06 -0.00014898467 -2.0449332e-05)
(-0.00025606908 0.0002969947 -1.1832129e-05)
(-0.0010504722 0.0010236035 6.6131394e-08)
(-0.0023878429 0.0017975223 1.3046178e-05)
(-0.0042394533 0.0025098896 2.6082387e-05)
(-0.0065455649 0.0031100454 3.8033854e-05)
(-0.0092251188 0.003580915 4.807358e-05)
(-0.012189985 0.003923423 5.5640942e-05)
(-0.015352966 0.0041461752 6.0354306e-05)
(-0.018631024 0.0042595812 6.1956959e-05)
(-0.021946039 0.0042728058 6.0275946e-05)
(-0.025224209 0.0041924668 5.519348e-05)
(-0.028394867 0.0040224618 4.6633269e-05)
(-0.031389328 0.0037645171 3.4560189e-05)
(-0.034140151 0.0034191647 1.8990346e-05)
(-0.036581068 0.0029869349 8.2716592e-09)
(-0.038647671 0.0024696019 -2.2212165e-05)
(-0.040278861 0.0018713566 -4.73865e-05)
(-0.04141897 0.0011998085 -7.5101239e-05)
(-0.042020419 0.00046673346 -0.00010480155)
(-0.042046686 -0.00031149422 -0.00013578957)
(-0.041475391 -0.0011138058 -0.00016723006)
(-0.040301239 -0.0019148714 -0.00019817579)
(-0.038538482 -0.0026858567 -0.00022760363)
(-0.036222688 -0.0033956685 -0.00025446553)
(-0.033411528 -0.0040125924 -0.00027775116)
(-0.030184385 -0.0045062319 -0.00029655782)
(-0.026640605 -0.0048496254 -0.00031016239)
(-0.022896343 -0.0050213849 -0.00031808874)
(-0.019079987 -0.0050076856 -0.0003201632)
(-0.015326312 -0.0048039419 -0.0003165511)
(-0.011769573 -0.0044160456 -0.00030776892)
(-0.0085358432 -0.0038611416 -0.0002946702)
(-0.0057348765 -0.0031681033 -0.00027840745)
(-0.003451685 -0.0023781328 -0.00026037424)
(-0.0017379675 -0.0015461993 -0.0002421271)
(-0.00060369863 -0.00074417184 -0.00022527785)
(-8.0644608e-06 -6.6330702e-05 -0.00021141948)
(0.00015540547 0.00036040787 -0.0002022387)
(7.356315e-05 0.00035436417 -0.00018531985)
(-6.46887e-05 5.0413752e-05 -3.8701256e-05)
(-0.00060839234 0.0010457405 -2.6164051e-05)
(-0.0019305524 0.0023817145 -1.2182792e-05)
(-0.0039464493 0.0037564965 1.1099714e-06)
(-0.0065890206 0.0050152917 1.3698198e-05)
(-0.0097791984 0.0060800413 2.4822485e-05)
(-0.013417117 0.0069205002 3.3945573e-05)
(-0.017395511 0.007534092 4.0732167e-05)
(-0.02160771 0.0079313751 4.4946352e-05)
(-0.02595066 0.0081270193 4.6416294e-05)
(-0.030325806 0.008134748 4.5011179e-05)
(-0.034638745 0.0079649824 4.0624666e-05)
(-0.038798303 0.007624357 3.3169703e-05)
(-0.042715615 0.0071164921 2.258403e-05)
(-0.046303675 0.0064435404 8.8439637e-06)
(-0.049477586 0.0056081341 -8.0160096e-06)
(-0.052155637 0.0046154416 -2.7880538e-05)
(-0.054261195 0.0034751065 -5.0530503e-05)
(-0.05572532 0.0022028871 -7.5622834e-05)
(-0.056489922 0.00082185418 -0.00010267632)
(-0.056511224 -0.00063696123 -0.00013106647)
(-0.055763332 -0.0021345835 -0.00016002834)
(-0.05424156 -0.0036248004 -0.00018867977)
(-0.051965213 -0.0050556073 -0.00021605352)
(-0.048979565 -0.0063713801 -0.00024114654)
(-0.045356723 -0.0075157011 -0.00026298158)
(-0.041195122 -0.0084347023 -0.00028067684)
(-0.036617482 -0.0090807202 -0.00029351793)
(-0.031767097 -0.0094160029 -0.00030102512)
(-0.026802472 -0.0094161899 -0.00030300867)
(-0.021890375 -0.0090732998 -0.0002996049)
(-0.017197545 -0.008398027 -0.00029128677)
(-0.012881385 -0.0074212673 -0.00027884552)
(-0.0090800641 -0.0061949948 -0.00026334457)
(-0.0059024782 -0.0047929281 -0.00024605125)
(-0.0034184757 -0.0033118387 -0.00022835425)
(-0.0016495172 -0.0018745509 -0.00021168104)
(-0.00055981324 -0.00063470158 -0.00019742659)
(-5.0131926e-05 0.00021501792 -0.00018682643)
(3.8091155e-05 0.0004138324 -0.00016801774)
(-0.00013086725 0.00044555518 -5.8217519e-05)
(-0.0009709553 0.0022426689 -4.115407e-05)
(-0.0028462185 0.0043591572 -2.4271689e-05)
(-0.005564816 0.0064571823 -9.8394199e-06)
(-0.0090094365 0.008353442 3.0790802e-06)
(-0.013075444 0.0099514169 1.405908e-05)
(-0.01764225 0.011211713 2.2837612e-05)
(-0.022584638 0.012129548 2.9309829e-05)
(-0.027779576 0.01271749 3.3398543e-05)
(-0.033108042 0.012994113 3.5030933e-05)
(-0.03845541 0.012977333 3.4129708e-05)
(-0.04371103 0.012681184 3.0606437e-05)
(-0.048767408 0.012115101 2.4364246e-05)
(-0.053519509 0.011284962 1.5309653e-05)
(-0.057864567 0.010195238 3.3713303e-06)
(-0.061702653 0.0088517249 -1.1476257e-05)
(-0.064938082 0.007264429 -2.9186517e-05)
(-0.067481642 0.0054502858 -4.9614193e-05)
(-0.069253548 0.0034354334 -7.2491425e-05)
(-0.070186918 0.0012568455 -9.7409469e-05)
(-0.070231572 -0.0010368433 -0.00012380912)
(-0.06935787 -0.0033854594 -0.00015098223)
(-0.067560326 -0.0057183721 -0.00017808817)
(-0.064860671 -0.0079566589 -0.00020418523)
(-0.061310079 -0.010016277 -0.00022827837)
(-0.05699025 -0.011812166 -0.00024938121)
(-0.052013052 -0.013263113 -0.00026658816)
(-0.046518481 -0.014297108 -0.00027914989)
(-0.040670792 -0.014856845 -0.0002865443)
(-0.034652718 -0.014904959 -0.0002885345)
(-0.028657848 -0.014428588 -0.00028520654)
(-0.022881357 -0.013442959 -0.00027698053)
(-0.017509451 -0.01199381 -0.00026459118)
(-0.012708057 -0.010158684 -0.00024903703)
(-0.0086114791 -0.0080474662 -0.00023150212)
(-0.0053117516 -0.0058029513 -0.0002132654)
(-0.0028485004 -0.0036024918 -0.0001956396)
(-0.0012000272 -0.001660558 -0.00017989113)
(-0.00028881923 -0.00023377665 -0.00016674618)
(-2.4769302e-06 0.00035046925 -0.00014551267)
(-0.00019286552 0.0010312981 -7.6697705e-05)
(-0.0013239876 0.0038925103 -5.4795631e-05)
(-0.0037518565 0.0069679656 -3.4590877e-05)
(-0.0071732943 0.0099107788 -1.8497425e-05)
(-0.011414793 0.012527353 -4.7017727e-06)
(-0.016341457 0.014714457 6.6609274e-06)
(-0.021809579 0.016430453 1.557776e-05)
(-0.027675822 0.017671968 2.2163334e-05)
(-0.033802325 0.018455198 2.649608e-05)
(-0.040056759 0.018803164 2.8602713e-05)
(-0.046311733 0.018738031 2.8460491e-05)
(-0.05244394 0.018277363 2.5998467e-05)
(-0.058333221 0.017433395 2.1107063e-05)
(-0.063861914 0.016214458 1.3656127e-05)
(-0.068914833 0.014627792 3.5191873e-06)
(-0.073380033 0.012683083 -9.3979154e-06)
(-0.077150438 0.010396192 -2.5125872e-05)
(-0.080126275 0.0077926281 -4.3600436e-05)
(-0.082218213 0.0049104439 -6.4633291e-05)
(-0.083351038 0.0018022864 -8.7888363e-05)
(-0.083467642 -0.0014635985 -0.0001128669)
(-0.082533086 -0.0048035619 -0.00013890503)
(-0.080538487 -0.0081200197 -0.00016518546)
(-0.077504434 -0.011304297 -0.00019076722)
(-0.073483623 -0.014240787 -0.0002146323)
(-0.068562402 -0.016812348 -0.00023574881)
(-0.06286088 -0.018906743 -0.00025314677)
(-0.056531289 -0.02042382 -0.0002659997)
(-0.049754329 -0.021283 -0.00027370296)
(-0.042733341 -0.021430551 -0.00027593862)
(-0.035686309 -0.020846068 -0.00027271783)
(-0.028835863 -0.019547642 -0.00026439442)
(-0.022397654 -0.01759538 -0.00025164629)
(-0.016567728 -0.015093153 -0.0002354234)
(-0.011509865 -0.012188828 -0.00021686292)
(-0.0073439092 -0.0090736419 -0.00019719052)
(-0.0041345316 -0.0059816669 -0.0001776785)
(-0.0018815859 -0.0031890499 -0.00015956069)
(-0.00053619019 -0.0010143291 -0.00014316639)
(-4.1247642e-05 0.00015895 -0.00011907341)
(-0.00025011671 0.0017985624 -9.2184369e-05)
(-0.0016597714 0.0059841161 -6.529608e-05)
(-0.0046244501 0.010198578 -4.1609744e-05)
(-0.0087321558 0.014106971 -2.3554945e-05)
(-0.01375158 0.01752228 -8.5166161e-06)
(-0.019515042 0.020347056 3.622268e-06)
(-0.025854091 0.022545859 1.3073523e-05)
(-0.032606937 0.024121936 2.0153248e-05)
(-0.039621792 0.025098041 2.5083676e-05)
(-0.046754902 0.025503112 2.7983073e-05)
(-0.053868673 0.025364165 2.8877063e-05)
(-0.060830104 0.024702477 2.7706391e-05)
(-0.067509482 0.023533119 2.4342488e-05)
(-0.073779595 0.02186693 1.8611284e-05)
(-0.079515693 0.019714081 1.0322994e-05)
(-0.084596306 0.017088456 -6.9382179e-07)
(-0.088904925 0.014012208 -1.4555622e-05)
(-0.092332497 0.010519994 -3.1286684e-05)
(-0.094780615 0.0066624788 -5.0783893e-05)
(-0.096165263 0.0025088151 -7.2786633e-05)
(-0.096420918 -0.0018521281 -9.6855413e-05)
(-0.095504829 -0.0063119706 -0.00012236393)
(-0.093401239 -0.010744559 -0.00014850553)
(-0.090125299 -0.01500938 -0.00017432069)
(-0.085726341 -0.018956612 -0.00019874268)
(-0.080290196 -0.022433759 -0.00022066233)
(-0.073940147 -0.025293685 -0.00023900792)
(-0.066836112 -0.027403716 -0.00025283417)
(-0.059171638 -0.028655325 -0.00026141057)
(-0.051168416 -0.028973762 -0.00026429773)
(-0.043068187 -0.028326855 -0.00026139967)
(-0.035122152 -0.026732217 -0.00025298386)
(-0.027578292 -0.024262205 -0.00023966555)
(-0.020667298 -0.021046289 -0.00022235625)
(-0.014588321 -0.017270885 -0.00020217528)
(-0.0094958187 -0.013177199 -0.0001803458)
(-0.0054864949 -0.0090579092 -0.00015817171)
(-0.0025879484 -0.0052522166 -0.0001369406)
(-0.00078446274 -0.0021405426 -0.00011665668)
(-7.6871728e-05 -0.0001605416 -8.9449753e-05)
(-0.00030295588 0.0027365198 -0.0001030079)
(-0.0019754959 0.0084980758 -7.1038908e-05)
(-0.0054521316 0.014028534 -4.389115e-05)
(-0.010217953 0.019021335 -2.3746539e-05)
(-0.015985148 0.023311031 -7.2512972e-06)
(-0.022552751 0.026818126 5.937628e-06)
(-0.029727119 0.029522356 1.6234804e-05)
(-0.037328124 0.0314397 2.4138108e-05)
(-0.045190882 0.032603325 2.9997641e-05)
(-0.053161769 0.033050296 3.401033e-05)
(-0.061095106 0.032813617 3.6239325e-05)
(-0.068850699 0.031918753 3.6627491e-05)
(-0.076291963 0.030383719 3.5018284e-05)
(-0.083284798 0.028221802 3.1184758e-05)
(-0.089697346 0.02544597 2.4864531e-05)
(-0.095400675 0.02207413 1.5799219e-05)
(-0.10027035 0.018134538 3.7768082e-06)
(-0.10418881 0.013670782 -1.1324985e-05)
(-0.10704849 0.008745922 -2.9496865e-05)
(-0.1087555 0.0034454556 -5.0560682e-05)
(-0.10923383 -0.0021211402 -7.4140607e-05)
(-0.10842977 -0.0078204849 -9.9648567e-05)
(-0.10631662 -0.013497108 -0.00012628341)
(-0.10289924 -0.018977237 -0.00015305504)
(-0.098218234 -0.024074545 -0.0001788281)
(-0.092353389 -0.028597886 -0.00020238825)
(-0.085425888 -0.032360895 -0.00022252695)
(-0.077598765 -0.035193109 -0.00023813834)
(-0.069075037 -0.036952089 -0.00024831947)
(-0.060093003 -0.037535788 -0.00025246142)
(-0.050918385 -0.036894191 -0.00025031776)
(-0.041833304 -0.035039139 -0.00024203784)
(-0.033122446 -0.032051312 -0.00022815921)
(-0.025057259 -0.028083604 -0.00020955854)
(-0.017879609 -0.02336066 -0.00018736013)
(-0.01178646 -0.018174982 -0.00016282846)
(-0.0069140683 -0.012880378 -0.00013736512)
(-0.0033238406 -0.0078822517 -0.00011239472)
(-0.0010368606 -0.0036261507 -8.7687305e-05)
(-0.00011093312 -0.00060702444 -5.7245726e-05)
(-0.00035169239 0.0038338098 -0.00010770475)
(-0.002269681 0.011410328 -7.0550052e-05)
(-0.0062274656 0.018427247 -4.0072202e-05)
(-0.011614723 0.024619888 -1.7821831e-05)
(-0.018090275 0.029857478 2.4205011e-07)
(-0.025420962 0.034089786 1.4671325e-05)
(-0.033388637 0.037320614 2.6065483e-05)
(-0.041795573 0.039585145 3.5085334e-05)
(-0.050464849 0.040931337 4.2191913e-05)
(-0.05923445 0.041407134 4.7646016e-05)
(-0.067952514 0.041053083 5.1535312e-05)
(-0.076473859 0.03989957 5.3793218e-05)
(-0.084657398 0.037967752 5.4224607e-05)
(-0.092364499 0.035273192 5.2539442e-05)
(-0.099458364 0.031831223 4.8392321e-05)
(-0.10580439 0.027663131 4.1426827e-05)
(-0.11127144 0.022802425 3.1323452e-05)
(-0.11573398 0.017300604 1.7849259e-05)
(-0.11907491 0.011231974 9.0679747e-07)
(-0.12118916 0.0046972 -1.9420737e-05)
(-0.12198784 -0.0021746852 -4.2832187e-05)
(-0.12140289 -0.0092260235 -6.8786407e-05)
(-0.11939225 -0.016272136 -9.6491177e-05)
(-0.11594526 -0.023105223 -0.00012492241)
(-0.11108801 -0.02950051 -0.00015286306)
(-0.10488821 -0.035224858 -0.00017896975)
(-0.097459138 -0.040047813 -0.00020186237)
(-0.088961882 -0.04375481 -0.0002202303)
(-0.079605123 -0.046162008 -0.00023294624)
(-0.069641762 -0.047131869 -0.00023917537)
(-0.059361751 -0.046588283 -0.00023846492)
(-0.049080868 -0.044529796 -0.00023079898)
(-0.039125702 -0.041039414 -0.0002166076)
(-0.029815707 -0.036289687 -0.0001967257)
(-0.021444106 -0.030542337 -0.00017229922)
(-0.014259478 -0.024142617 -0.00014467262)
(-0.0084461088 -0.017509183 -0.00011540602)
(-0.0041057556 -0.011119091 -8.6140673e-05)
(-0.0013000816 -0.0054896894 -5.6481866e-05)
(-0.00014466094 -0.0011817431 -2.2528376e-05)
(-0.00039639129 0.0050786607 -0.00010495571)
(-0.0025407987 0.014693447 -6.2476963e-05)
(-0.0069441974 0.023357915 -2.8870852e-05)
(-0.012909217 0.030860727 -4.5693864e-06)
(-0.020045611 0.037117252 1.5110232e-05)
(-0.028090245 0.042116797 3.0917336e-05)
(-0.036802069 0.045895669 4.3622096e-05)
(-0.045967097 0.048514695 5.4031334e-05)
(-0.055397715 0.050041238 6.2700925e-05)
(-0.064925063 0.050537183 6.9940874e-05)
(-0.074392902 0.050052478 7.5850147e-05)
(-0.083653104 0.048623375 8.0340724e-05)
(-0.092562245 0.046274432 8.3167752e-05)
(-0.10097933 0.043023224 8.3967218e-05)
(-0.10876463 0.038886745 8.2299355e-05)
(-0.11577953 0.033888561 7.769715e-05)
(-0.12188738 0.028065968 6.9719222e-05)
(-0.12695513 0.021476573 5.8005531e-05)
(-0.13085585 0.014203868 4.2333615e-05)
(-0.13347199 0.0063614942 2.2672544e-05)
(-0.1346995 -0.0019040611 -7.6997429e-07)
(-0.13445257 -0.010412607 -2.7518733e-05)
(-0.13266936 -0.018951308 -5.6802138e-05)
(-0.12931832 -0.027278318 -8.7568726e-05)
(-0.12440486 -0.035128942 -0.00011851569)
(-0.11797804 -0.042224792 -0.00014815269)
(-0.11013665 -0.048286059 -0.00017489469)
(-0.10103378 -0.053046778 -0.00019717828)
(-0.090878938 -0.056272616 -0.00021359193)
(-0.079936641 -0.057780207 -0.00022300724)
(-0.068520515 -0.057456586 -0.00022469513)
(-0.056982327 -0.055276834 -0.0002184098)
(-0.045695881 -0.051317818 -0.00020442475)
(-0.035036614 -0.045766014 -0.00018350948)
(-0.025358944 -0.038917987 -0.00015683753)
(-0.016973674 -0.031173278 -0.00012586677)
(-0.010123108 -0.023020471 -9.2374219e-05)
(-0.004957296 -0.015016277 -5.8295125e-05)
(-0.0015839121 -0.007760165 -2.3123461e-05)
(-0.00018000581 -0.001891999 1.4742546e-05)
(-0.00043687201 0.006458552 -9.3558284e-05)
(-0.0027868449 0.018316854 -4.5580806e-05)
(-0.0075958812 0.028778248 -9.0964995e-06)
(-0.014088607 0.037694812 1.7157322e-05)
(-0.021830755 0.045038099 3.8460997e-05)
(-0.030532196 0.050846149 5.5753156e-05)
(-0.039931224 0.055195559 6.9963002e-05)
(-0.049799393 0.058178981 8.2028545e-05)
(-0.059939996 0.059887783 9.2586173e-05)
(-0.070178956 0.060401012 0.00010198189)
(-0.080357438 0.059780063 0.00011031391)
(-0.090326306 0.058068156 0.0001174617)
(-0.09994186 0.055293574 0.00012312007)
(-0.10906282 0.051475569 0.00012684023)
(-0.11754847 0.046631864 0.00012807616)
(-0.12525791 0.040786817 0.00012623641)
(-0.13205024 0.033979492 0.00012074097)
(-0.13778563 0.026271095 0.00011108241)
(-0.14232726 0.017751388 9.6889361e-05)
(-0.14554424 0.0085438247 7.7989856e-05)
(-0.14731544 -0.0011908292 5.4470137e-05)
(-0.14753434 -0.011252586 2.6707986e-05)
(-0.14611517 -0.021402681 -4.5665554e-06)
(-0.14300027 -0.031366134 -3.8293125e-05)
(-0.13816803 -0.040837572 -7.309005e-05)
(-0.13164175 -0.049490475 -0.00010731106)
(-0.12349819 -0.056990309 -0.00013913758)
(-0.11387511 -0.063011681 -0.00016670352)
(-0.10297638 -0.067259206 -0.00018824424)
(-0.091073385 -0.069491134 -0.00020225531)
(-0.078501272 -0.069544046 -0.00020764291)
(-0.065648877 -0.067356221 -0.00020384572)
(-0.052941918 -0.06298682 -0.00019090882)
(-0.040819993 -0.056627929 -0.00016949006)
(-0.029709627 -0.048607084 -0.00014077894)
(-0.019996195 -0.039379345 -0.000106371)
(-0.011992152 -0.029509468 -6.8317115e-05)
(-0.0059060132 -0.019644334 -2.8925402e-05)
(-0.0018995912 -0.010479289 1.2383435e-05)
(-0.00021911083 -0.0027504898 5.4722946e-05)
(-0.00047275957 0.0079598319 -7.2421703e-05)
(-0.0030052993 0.022246606 -1.8739808e-05)
(-0.0081754617 0.034640618 2.0337037e-05)
(-0.015139602 0.04506627 4.8417561e-05)
(-0.023425018 0.053560025 7.1332562e-05)
(-0.032718012 0.060216749 9.0203052e-05)
(-0.042738881 0.065160351 0.00010610722)
(-0.053246802 0.068521059 0.00012010135)
(-0.064037737 0.070418708 0.00013289017)
(-0.074934073 0.07095275 0.00014484475)
(-0.085776123 0.070198196 0.00015605265)
(-0.096415618 0.06820646 0.00016635171)
(-0.10671058 0.065009948 0.00017536744)
(-0.11652149 0.060629228 0.00018255641)
(-0.12570869 0.055081677 0.00018725471)
(-0.13413083 0.048390666 0.00018873174)
(-0.14164434 0.040594563 0.00018625008)
(-0.14810374 0.031755069 0.00017913112)
(-0.15336291 0.021964566 0.00016682517)
(-0.15727738 0.011352275 0.00014898304)
(-0.15970774 8.9050693e-05 0.00012552541)
(-0.16052463 -0.011609384 9.671353e-05)
(-0.15961501 -0.023481616 6.3176622e-05)
(-0.15689015 -0.035221685 2.5956881e-05)
(-0.15229532 -0.046483894 -1.3504199e-05)
(-0.1458206 -0.056891544 -5.3407439e-05)
(-0.13751227 -0.066050382 -9.1680787e-05)
(-0.12748383 -0.073567276 -0.00012610829)
(-0.11592494 -0.079074106 -0.00015449705)
(-0.10310671 -0.082256081 -0.00017486833)
(-0.089381102 -0.082882675 -0.00018565165)
(-0.075172941 -0.080838296 -0.00018585711)
(-0.060963081 -0.076148883 -0.00017520042)
(-0.047263012 -0.069000259 -0.00015415317)
(-0.034583039 -0.059744523 -0.00012388478)
(-0.023397368 -0.048892431 -8.6137031e-05)
(-0.014103429 -0.037091844 -4.3288123e-05)
(-0.0069814224 -0.025092593 1.8971549e-06)
(-0.0022590011 -0.013702936 5.004484e-05)
(-0.00026414501 -0.0037760386 9.7602997e-05)
(-0.00050354981 0.0095674161 -4.0576305e-05)
(-0.0031932683 0.026445119 1.9038394e-05)
(-0.0086753845 0.040891993 6.0394083e-05)
(-0.016048457 0.052912449 9.0159573e-05)
(-0.024807308 0.062615258 0.00011466342)
(-0.034618341 0.070159046 0.00013520192)
(-0.045186694 0.075721219 0.00015299306)
(-0.056261379 0.079474814 0.00016920007)
(-0.067632826 0.081572356 0.00018458632)
(-0.079121546 0.082136905 0.00019953971)
(-0.090568683 0.081259336 0.00021413016)
(-0.10182865 0.079000602 0.00022814759)
(-0.11276313 0.075397736 0.00024114174)
(-0.12323645 0.070472312 0.00025246685)
(-0.13311214 0.064240243 0.00026133057)
(-0.14225052 0.056721978 0.00026684863)
(-0.15050733 0.04795244 0.00026810615)
(-0.15773319 0.037990291 0.00026422667)
(-0.163774 0.026926288 0.00025444798)
(-0.1684725 0.01489062 0.00023820258)
(-0.17167105 0.0020590769 0.00021520008)
(-0.17321634 -0.011342186 0.00018551676)
(-0.17296566 -0.025033675 0.00014964117)
(-0.17079544 -0.038682137 0.00010854453)
(-0.16661218 -0.051903485 6.3689264e-05)
(-0.16036527 -0.064270219 1.7007939e-05)
(-0.15206135 -0.075324427 -2.9167516e-05)
(-0.14177919 -0.084597336 -7.2232202e-05)
(-0.12968329 -0.091635863 -0.00010948912)
(-0.11603418 -0.09603577 -0.00013837406)
(-0.1011926 -0.097479718 -0.00015670258)
(-0.085614968 -0.095776929 -0.00016290832)
(-0.069837955 -0.090899674 -0.0001562382)
(-0.054451342 -0.083010796 -0.00013686537)
(-0.040061122 -0.072476638 -0.00010587039)
(-0.027246447 -0.059861627 -6.5126812e-05)
(-0.016507685 -0.045903551 -1.7385767e-05)
(-0.0082137613 -0.031469825 3.4041468e-05)
(-0.0026743158 -0.017501824 8.98072e-05)
(-0.00031729469 -0.0049938525 0.00014352623)
(-0.0005286793 0.011264617 2.8081029e-06)
(-0.0033477309 0.030871022 6.8598263e-05)
(-0.009088032 0.047473928 0.00011189618)
(-0.016801548 0.061163988 0.0001431951)
(-0.025956831 0.072128215 0.00016926132)
(-0.036204103 0.080594709 0.00019155821)
(-0.047236194 0.08679965 0.00021143479)
(-0.058794121 0.09096355 0.00023015145)
(-0.070664512 0.093275551 0.00024852296)
(-0.082667557 0.09388546 0.00026694911)
(-0.094646812 0.092902325 0.00028547862)
(-0.10646107 0.090398133 0.00030385065)
(-0.1179776 0.086415206 0.00032153611)
(-0.12906666 0.080975953 0.00033778216)
(-0.13959723 0.074093787 0.00035166006)
(-0.14943376 0.065784313 0.00036211874)
(-0.15843377 0.05607617 0.00036804604)
(-0.16644643 0.045021227 0.00036833937)
(-0.17331196 0.032703986 0.00036198622)
(-0.17886225 0.019250195 0.00034815336)
(-0.18292291 0.0048345792 0.00032628293)
(-0.18531711 -0.010312493 0.00029619433)
(-0.18587173 -0.025899702 0.00025816944)
(-0.18442592 -0.041571949 0.0002130371)
(-0.18084289 -0.05691071 0.00016221945)
(-0.17502442 -0.071439186 0.00010774007)
(-0.16692805 -0.084633799 5.2176776e-05)
(-0.15658606 -0.095943583 -1.4527158e-06)
(-0.14412442 -0.10481862 -4.9877931e-05)
(-0.1297793 -0.11074775 -8.9831541e-05)
(-0.11390784 -0.11330433 -0.00011835489)
(-0.096989239 -0.11219652 -0.00013311845)
(-0.079612727 -0.10731656 -0.00013271179)
(-0.062450204 -0.098781167 -0.0001168464)
(-0.046214617 -0.086954862 -8.6400046e-05)
(-0.0316077 -0.072449806 -4.3330612e-05)
(-0.019254126 -0.056099186 9.2065849e-06)
(-0.0096331266 -0.038903875 6.7259015e-05)
(-0.0031578258 -0.021961626 0.00013148648)
(-0.00038078454 -0.0064355864 0.00019251456)
(-0.00054759777 0.013033133 5.8398999e-05)
(-0.0034658499 0.03547928 0.00013061491)
(-0.0094063769 0.05432283 0.00017549996)
(-0.017386359 0.069745112 0.0002081738)
(-0.02685438 0.082015689 0.00023577267)
(-0.037448078 0.091436531 0.00025991719)
(-0.048850678 0.098306914 0.00028207884)
(-0.060797206 0.10289889 0.00030360705)
(-0.07307204 0.10544184 0.00032536352)
(-0.085496435 0.10611538 0.00034775852)
(-0.097917773 0.10504913 0.00037082001)
(-0.11020081 0.10232779 0.00039423771)
(-0.12222021 0.097999845 0.00041740465)
(-0.13385429 0.092088623 0.00043946007)
(-0.14497991 0.084604231 0.00045933448)
(-0.15546833 0.075555698 0.0004758)
(-0.16518189 0.064962676 0.00048752939)
(-0.1739715 0.052866521 0.00049316637)
(-0.18167504 0.03934074 0.00049140901)
(-0.1881169 0.024500901 0.00048110642)
(-0.19310886 0.0085140494 0.00046136784)
(-0.19645302 -0.0083924905 0.00043168158)
(-0.19794704 -0.025923256 0.00039203271)
(-0.19739241 -0.043708728 0.00034301667)
(-0.19460625 -0.061302363 0.00028592773)
(-0.18943707 -0.078182393 0.00022280816)
(-0.18178431 -0.093760487 0.00015643789)
(-0.17162128 -0.1073995 9.0245847e-05)
(-0.15901991 -0.11844244 2.812859e-05)
(-0.14417465 -0.12625382 -2.5828719e-05)
(-0.12742175 -0.13027306 -6.7716852e-05)
(-0.10924866 -0.13007689 -9.4218479e-05)
(-0.090288439 -0.12544438 -0.00010302022)
(-0.071294631 -0.11641478 -9.3142286e-05)
(-0.053096375 -0.10332668 -6.5082467e-05)
(-0.03653639 -0.086827747 -2.0787029e-05)
(-0.022388411 -0.067848826 3.6177709e-05)
(-0.011268747 -0.047540368 0.00010112179)
(-0.0037218389 -0.027182687 0.00017469253)
(-0.00045691121 -0.0081393719 0.0002443905)
(-0.00055984342 0.014853224 0.00012667667)
(-0.0035453305 0.040221673 0.00020557276)
(-0.0096247896 0.061370624 0.00025167627)
(-0.017792769 0.078574335 0.00028555981)
(-0.027484076 0.09218742 0.00031465428)
(-0.038327089 0.10258871 0.00034072612)
(-0.04999784 0.11014392 0.00036536119)
(-0.062227093 0.11518011 0.00038999167)
(-0.07479828 0.11797022 0.00041552493)
(-0.087534875 0.1187267 0.00044238424)
(-0.10028931 0.11760223 0.0004705817)
(-0.11293371 0.11469611 0.00049976357)
(-0.12535186 0.11006422 0.00052925066)
(-0.13743223 0.10373121 0.00055807813)
(-0.14906205 0.095703449 0.00058503592)
(-0.1601224 0.085982047 0.00060871385)
(-0.17048384 0.074575329 0.00062755594)
(-0.18000301 0.061510736 0.00063992793)
(-0.18851981 0.046846235 0.00064420119)
(-0.19585573 0.030681483 0.0006388548)
(-0.20181349 0.013168909 0.00062259619)
(-0.20617851 -0.0054752713 0.00059449858)
(-0.20872286 -0.024960413 0.00055414909)
(-0.2092124 -0.044912014 0.00050179818)
(-0.20741794 -0.064864681 0.00043849668)
(-0.20313117 -0.08425946 0.00036619803)
(-0.19618584 -0.10244809 0.00028780097)
(-0.18648408 -0.11870722 0.00020710522)
(-0.17402693 -0.13226579 0.00012865435)
(-0.15894651 -0.14234828 5.7448656e-05)
(-0.1415357 -0.14823484 -1.4716556e-06)
(-0.12226899 -0.14933643 -4.3545375e-05)
(-0.10180718 -0.14527847 -6.5251032e-05)
(-0.080978635 -0.13598162 -6.4607711e-05)
(-0.06073384 -0.12172354 -4.1470949e-05)
(-0.042074269 -0.10316575 2.3920359e-06)
(-0.025950448 -0.081333131 6.3038652e-05)
(-0.013148225 -0.057540464 0.00013495178)
(-0.0043785914 -0.033279363 0.00021874401)
(-0.00054808257 -0.010149829 0.00029869034)
(-0.00056512173 0.016704094 0.00020791199)
(-0.0035848156 0.045047703 0.00029374764)
(-0.0097399655 0.068545935 0.00034069365)
(-0.018014566 0.087565693 0.00037561294)
(-0.027835469 0.10254718 0.00040614987)
(-0.038824664 0.11394764 0.00043420397)
(-0.050652985 0.1222016 0.00046146838)
(-0.06304832 0.12769403 0.00048945443)
(-0.075794159 0.13074452 0.0005191176)
(-0.088717109 0.13160129 0.00055090107)
(-0.10167565 0.13044277 0.00058481084)
(-0.11455055 0.12738503 0.00062046071)
(-0.12723629 0.12249292 0.00065711017)
(-0.13963348 0.11579324 0.00069369939)
(-0.15164233 0.10728872 0.00072888333)
(-0.16315681 0.096971773 0.00076106957)
(-0.17405957 0.084837638 0.00078846564)
(-0.18421743 0.070897027 0.00080914094)
(-0.19347757 0.055188354 0.00082110821)
(-0.2016645 0.037789999 0.00082242805)
(-0.20857821 0.018832923 0.00081133859)
(-0.21399392 -0.0014862091 0.00078641027)
(-0.21766425 -0.022891552 0.00074672344)
(-0.2193244 -0.045014889 0.0006920557)
(-0.21870175 -0.067383976 0.00062307317)
(-0.21553077 -0.089414305 0.00054149633)
(-0.20957453 -0.11040731 0.00045021282)
(-0.2006534 -0.12955872 0.0003533003)
(-0.18868063 -0.14598164 0.00025591981)
(-0.17370311 -0.15874873 0.00016404549)
(-0.15594299 -0.16695685 8.401322e-05)
(-0.13583328 -0.16981434 2.1901064e-05)
(-0.11403757 -0.16674554 -1.7201341e-05)
(-0.091443214 -0.15749992 -2.9912966e-05)
(-0.06912041 -0.14224545 -1.5077169e-05)
(-0.04824429 -0.12162244 2.5986363e-05)
(-0.029971772 -0.096736446 8.9061758e-05)
(-0.015296604 -0.069077482 0.00016773715)
(-0.0051401208 -0.040378939 0.00026256848)
(-0.00065685395 -0.012518054 0.00035456258)
(-0.00056338733 0.01856449 0.0003021497)
(-0.003584313 0.049905981 0.00039519554)
(-0.0097519449 0.075775873 0.0004426089)
(-0.018051137 0.096630609 0.00047837755)
(-0.027905898 0.11299449 0.0005102743)
(-0.038934044 0.1254033 0.00054031848)
(-0.050802684 0.13436191 0.0005703055)
(-0.063237811 0.14031557 0.00060182604)
(-0.076023694 0.14363345 0.00063589088)
(-0.088990761 0.14460252 0.00067297513)
(-0.10200438 0.14342982 0.00071309355)
(-0.11495505 0.14025066 0.00075584374)
(-0.12774941 0.1351408 0.00080044006)
(-0.14030217 0.12813062 0.00084574237)
(-0.15252898 0.11921989 0.00089028208)
(-0.16433991 0.10839218 0.00093229102)