/*--------------------------------*- C++ -*----------------------------------*\
  =========                 |
  \\      /  F ield         | OpenFOAM: The Open Source CFD Toolbox
   \\    /   O peration     | Website:  https://openfoam.org
    \\  /    A nd           | Version:  7
     \\/     M anipulation  |
\*---------------------------------------------------------------------------*/
FoamFile
{
    version     2.0;
    format      ascii;
    class       volVectorField;
    location    "27";
    object      U_0;
}
// * * * * * * * * * * * * * * * * * * * * * * * * * * * * * * * * * * * * * //

dimensions      [0 1 -1 0 0 0 0];

internalField   nonuniform List<vector> 
16000
(
(6.6003882e-05 -6.7372874e-05 -4.3002956e-07)
(0.00016269436 -5.6377569e-05 5.6681367e-06)
(0.00014189609 4.5389471e-07 1.9167632e-05)
(-5.0630081e-05 6.1886765e-05 3.659007e-05)
(-0.00040997779 0.0001156293 5.4698574e-05)
(-0.00090902821 0.00015774293 7.1526928e-05)
(-0.0015177115 0.00018850406 8.5739038e-05)
(-0.0022068844 0.00020960841 9.6519719e-05)
(-0.0029505981 0.00022287624 0.00010340861)
(-0.0037264599 0.00022981075 0.00010615881)
(-0.0045150437 0.00023147682 0.00010464308)
(-0.0052990045 0.00022850361 9.8798399e-05)
(-0.0060621827 0.00022114698 8.8600084e-05)
(-0.0067888521 0.00020938259 7.4058676e-05)
(-0.0074632026 0.00019301323 5.5232944e-05)
(-0.0080691025 0.00017178021 3.2253134e-05)
(-0.0085901542 0.00014547156 5.3491517e-06)
(-0.0090100336 0.00011402215 -2.5121129e-05)
(-0.0093130852 7.7601745e-05 -5.8647806e-05)
(-0.0094851303 3.6687434e-05 -9.4553134e-05)
(-0.0095144296 -7.8867828e-06 -0.0001319874)
(-0.0093927116 -5.4924305e-05 -0.00016993943)
(-0.0091162075 -0.00010284276 -0.0002072629)
(-0.0086865876 -0.00014974753 -0.00024272006)
(-0.0081116783 -0.00019351011 -0.00027504117)
(-0.0074058823 -0.0002318857 -0.00030299727)
(-0.0065902082 -0.00026266213 -0.00032548186)
(-0.0056918451 -0.00028382837 -0.00034159504)
(-0.0047432568 -0.00029374675 -0.0003507227)
(-0.0037808184 -0.00029130732 -0.00035260343)
(-0.0028430638 -0.00027604276 -0.00034737676)
(-0.0019686492 -0.00024818984 -0.00033560901)
(-0.00119414 -0.00020870333 -0.00031829557)
(-0.00055166747 -0.00015926523 -0.00029684188)
(-6.6515253e-05 -0.00010240253 -0.00027301804)
(0.00024491177 -4.1745642e-05 -0.00024888141)
(0.00037894231 1.7850763e-05 -0.00022681258)
(0.00034979844 6.7057669e-05 -0.00020924644)
(0.00020620337 8.9832139e-05 -0.00019885557)
(5.7472479e-05 5.7399507e-05 -0.00018440792)
(5.7980509e-05 -0.00016708766 -6.6629035e-06)
(4.0843464e-05 -3.9995859e-05 -4.1058728e-07)
(-0.00029500287 0.0002485462 1.1222804e-05)
(-0.0010110436 0.00056211322 2.5588766e-05)
(-0.0020992414 0.00084749058 4.0573698e-05)
(-0.0035140954 0.0010831169 5.4581802e-05)
(-0.0051946879 0.0012642981 6.6485799e-05)
(-0.0070766258 0.0013940647 7.5533392e-05)
(-0.0090981411 0.0014779576 8.1242752e-05)
(-0.011202291 0.0015215243 8.3314198e-05)
(-0.013337015 0.0015292084 8.1564417e-05)
(-0.015454153 0.0015039731 7.5883461e-05)
(-0.01750812 0.0014473549 6.6212983e-05)
(-0.019454681 0.0013597759 5.2542201e-05)
(-0.021250117 0.0012410001 3.4917226e-05)
(-0.022850932 0.001090657 1.3459268e-05)
(-0.024214179 0.00090877396 -1.161265e-05)
(-0.025298384 0.00069627561 -3.9958583e-05)
(-0.026065005 0.00045541534 -7.1097926e-05)
(-0.026480346 0.0001901083 -0.00010439652)
(-0.026517761 -9.3863979e-05 -0.00013906353)
(-0.026159934 -0.00038877454 -0.00017416736)
(-0.025401118 -0.00068508873 -0.00020865213)
(-0.024249123 -0.00097175484 -0.00024138547)
(-0.02272671 -0.0012366875 -0.00027121184)
(-0.020872315 -0.001467422 -0.00029701969)
(-0.018739881 -0.0016519026 -0.00031781672)
(-0.016397688 -0.0017793506 -0.00033280718)
(-0.013926103 -0.0018411447 -0.00034146415)
(-0.011414304 -0.0018316285 -0.00034358944)
(-0.0089560951 -0.0017487656 -0.00033935429)
(-0.0066450043 -0.00159458 -0.00032931709)
(-0.0045688909 -0.0013753933 -0.00031441679)
(-0.0028042142 -0.0011019762 -0.00029594387)
(-0.0014100185 -0.00078992421 -0.00027549026)
(-0.00042164873 -0.00046057483 -0.00025487188)
(0.00015574864 -0.00014253974 -0.00023600395)
(0.00035672273 0.00012231713 -0.00022090199)
(0.00027528642 0.00027110861 -0.00021166441)
(9.0140223e-05 0.0002050774 -0.00019547182)
(1.9088098e-06 -0.00014898469 -2.0449332e-05)
(-0.00025606901 0.00029699465 -1.1832129e-05)
(-0.0010504722 0.0010236035 6.6131394e-08)
(-0.002387843 0.0017975223 1.3046178e-05)
(-0.0042394534 0.0025098897 2.6082387e-05)
(-0.0065455649 0.0031100454 3.8033854e-05)
(-0.0092251187 0.003580915 4.807358e-05)
(-0.012189985 0.003923423 5.5640942e-05)
(-0.015352966 0.0041461753 6.0354306e-05)
(-0.018631024 0.0042595813 6.1956959e-05)
(-0.021946039 0.0042728058 6.0275946e-05)
(-0.025224208 0.0041924667 5.519348e-05)
(-0.028394866 0.0040224616 4.6633269e-05)
(-0.031389327 0.0037645167 3.4560189e-05)
(-0.03414015 0.0034191642 1.8990346e-05)
(-0.036581067 0.0029869345 8.2716592e-09)
(-0.038647671 0.0024696015 -2.2212165e-05)
(-0.040278861 0.0018713561 -4.73865e-05)
(-0.04141897 0.0011998078 -7.5101239e-05)
(-0.042020419 0.00046673242 -0.00010480155)
(-0.042046685 -0.00031149534 -0.00013578957)
(-0.041475391 -0.0011138065 -0.00016723006)
(-0.040301239 -0.0019148714 -0.00019817579)
(-0.038538483 -0.0026858563 -0.00022760363)
(-0.036222688 -0.0033956688 -0.00025446553)
(-0.033411527 -0.0040125939 -0.00027775116)
(-0.030184383 -0.0045062337 -0.00029655782)
(-0.026640605 -0.0048496258 -0.00031016239)
(-0.022896344 -0.0050213832 -0.00031808874)
(-0.019079989 -0.0050076836 -0.0003201632)
(-0.015326311 -0.0048039427 -0.0003165511)
(-0.011769569 -0.0044160497 -0.00030776892)
(-0.0085358399 -0.0038611454 -0.0002946702)
(-0.0057348776 -0.0031681024 -0.00027840745)
(-0.0034516906 -0.002378128 -0.00026037424)
(-0.0017379715 -0.0015461969 -0.0002421271)
(-0.00060369548 -0.00074417666 -0.00022527785)
(-8.0579127e-06 -6.6338782e-05 -0.00021141948)
(0.00015540591 0.00036040484 -0.0002022387)
(7.3560851e-05 0.00035436683 -0.00018531985)
(-6.4688699e-05 5.041374e-05 -3.8701256e-05)
(-0.0006083923 0.0010457405 -2.6164051e-05)
(-0.0019305523 0.0023817144 -1.2182792e-05)
(-0.0039464493 0.0037564964 1.1099714e-06)
(-0.0065890207 0.0050152917 1.3698198e-05)
(-0.0097791985 0.0060800414 2.4822485e-05)
(-0.013417117 0.0069205002 3.3945573e-05)
(-0.017395511 0.007534092 4.0732167e-05)
(-0.02160771 0.0079313751 4.4946352e-05)
(-0.02595066 0.0081270193 4.6416294e-05)
(-0.030325805 0.008134748 4.5011179e-05)
(-0.034638745 0.0079649824 4.0624666e-05)
(-0.038798302 0.0076243569 3.3169703e-05)
(-0.042715614 0.0071164918 2.258403e-05)
(-0.046303674 0.0064435399 8.8439637e-06)
(-0.049477585 0.0056081333 -8.0160096e-06)
(-0.052155636 0.0046154408 -2.7880538e-05)
(-0.054261194 0.0034751059 -5.0530503e-05)
(-0.055725319 0.0022028866 -7.5622834e-05)
(-0.056489922 0.00082185346 -0.00010267632)
(-0.056511224 -0.00063696243 -0.00013106647)
(-0.055763331 -0.0021345849 -0.00016002834)
(-0.05424156 -0.0036248013 -0.00018867977)
(-0.051965213 -0.0050556072 -0.00021605352)
(-0.048979566 -0.0063713792 -0.00024114654)
(-0.045356723 -0.0075157008 -0.00026298158)
(-0.041195121 -0.0084347038 -0.00028067684)
(-0.036617479 -0.0090807226 -0.00029351793)
(-0.031767095 -0.009416004 -0.00030102512)
(-0.026802473 -0.0094161881 -0.00030300867)
(-0.021890378 -0.0090732969 -0.0002996049)
(-0.017197545 -0.0083980272 -0.00029128677)
(-0.012881381 -0.0074212721 -0.00027884552)
(-0.0090800596 -0.0061950003 -0.00026334457)
(-0.0059024787 -0.0047929283 -0.00024605125)
(-0.0034184816 -0.0033118336 -0.00022835425)
(-0.0016495213 -0.0018745472 -0.00021168104)
(-0.00055981032 -0.00063470439 -0.00019742659)
(-5.0127708e-05 0.0002150129 -0.00018682643)
(3.8092105e-05 0.00041383159 -0.00016801774)
(-0.00013086728 0.00044555515 -5.8217519e-05)
(-0.00097095533 0.0022426688 -4.115407e-05)
(-0.0028462185 0.004359157 -2.4271689e-05)
(-0.0055648158 0.0064571821 -9.8394199e-06)
(-0.0090094364 0.0083534418 3.0790802e-06)
(-0.013075444 0.009951417 1.405908e-05)
(-0.01764225 0.011211713 2.2837612e-05)
(-0.022584638 0.012129548 2.9309829e-05)
(-0.027779576 0.01271749 3.3398543e-05)
(-0.033108042 0.012994113 3.5030933e-05)
(-0.03845541 0.012977333 3.4129708e-05)
(-0.043711029 0.012681184 3.0606437e-05)
(-0.048767408 0.012115101 2.4364246e-05)
(-0.053519508 0.011284962 1.5309653e-05)
(-0.057864566 0.010195238 3.3713303e-06)
(-0.061702652 0.0088517241 -1.1476257e-05)
(-0.064938081 0.007264428 -2.9186517e-05)
(-0.067481642 0.0054502848 -4.9614193e-05)
(-0.069253547 0.0034354327 -7.2491425e-05)
(-0.070186918 0.0012568452 -9.7409469e-05)
(-0.070231572 -0.0010368437 -0.00012380912)
(-0.069357869 -0.0033854604 -0.00015098223)
(-0.067560325 -0.0057183736 -0.00017808817)
(-0.06486067 -0.00795666 -0.00020418523)
(-0.061310079 -0.010016277 -0.00022827837)
(-0.056990252 -0.011812165 -0.00024938121)
(-0.052013053 -0.013263112 -0.00026658816)
(-0.046518479 -0.014297109 -0.00027914989)
(-0.040670789 -0.014856848 -0.0002865443)
(-0.034652716 -0.014904961 -0.0002885345)
(-0.028657849 -0.014428586 -0.00028520654)
(-0.022881361 -0.013442956 -0.00027698053)
(-0.017509453 -0.011993809 -0.00026459118)
(-0.012708053 -0.010158689 -0.00024903703)
(-0.008611474 -0.0080474726 -0.00023150212)
(-0.0053117516 -0.0058029526 -0.0002132654)
(-0.0028485052 -0.0036024879 -0.0001956396)
(-0.0012000293 -0.0016605555 -0.00017989113)
(-0.00028881704 -0.00023377856 -0.00016674618)
(-2.4755342e-06 0.00035046746 -0.00014551267)
(-0.00019286553 0.001031298 -7.6697705e-05)
(-0.0013239876 0.0038925102 -5.4795631e-05)
(-0.0037518565 0.0069679655 -3.4590877e-05)
(-0.0071732942 0.0099107785 -1.8497425e-05)
(-0.011414793 0.012527353 -4.7017727e-06)
(-0.016341457 0.014714456 6.6609274e-06)
(-0.021809579 0.016430453 1.557776e-05)
(-0.027675822 0.017671968 2.2163334e-05)
(-0.033802325 0.018455198 2.649608e-05)
(-0.040056759 0.018803164 2.8602713e-05)
(-0.046311732 0.018738031 2.8460491e-05)
(-0.05244394 0.018277363 2.5998467e-05)
(-0.058333221 0.017433395 2.1107063e-05)
(-0.063861914 0.016214458 1.3656127e-05)
(-0.068914832 0.014627791 3.5191873e-06)
(-0.073380033 0.012683083 -9.3979154e-06)
(-0.077150438 0.010396191 -2.5125872e-05)
(-0.080126274 0.0077926269 -4.3600436e-05)
(-0.082218212 0.0049104428 -6.4633291e-05)
(-0.083351037 0.0018022857 -8.7888363e-05)
(-0.083467642 -0.0014635984 -0.0001128669)
(-0.082533086 -0.0048035616 -0.00013890503)
(-0.080538486 -0.0081200201 -0.00016518546)
(-0.077504432 -0.011304298 -0.00019076722)
(-0.073483621 -0.014240788 -0.0002146323)
(-0.068562402 -0.016812347 -0.00023574881)
(-0.062860881 -0.018906741 -0.00025314677)
(-0.056531291 -0.020423818 -0.0002659997)
(-0.049754328 -0.021283001 -0.00027370296)
(-0.042733338 -0.021430555 -0.00027593862)
(-0.035686306 -0.020846071 -0.00027271783)
(-0.028835864 -0.019547641 -0.00026439443)
(-0.022397659 -0.017595375 -0.00025164629)
(-0.01656773 -0.015093152 -0.0002354234)
(-0.011509861 -0.012188832 -0.00021686292)
(-0.0073439048 -0.0090736474 -0.00019719052)
(-0.0041345319 -0.005981668 -0.0001776785)
(-0.0018815888 -0.0031890476 -0.00015956069)
(-0.00053619091 -0.0010143283 -0.00014316639)
(-4.1247274e-05 0.00015894915 -0.00011907341)
(-0.00025011667 0.0017985622 -9.2184369e-05)
(-0.0016597713 0.0059841159 -6.529608e-05)
(-0.0046244501 0.010198578 -4.1609744e-05)
(-0.0087321557 0.014106971 -2.3554945e-05)
(-0.01375158 0.017522279 -8.5166161e-06)
(-0.019515041 0.020347056 3.622268e-06)
(-0.02585409 0.022545859 1.3073523e-05)
(-0.032606937 0.024121936 2.0153248e-05)
(-0.039621791 0.025098041 2.5083676e-05)
(-0.046754902 0.025503112 2.7983073e-05)
(-0.053868673 0.025364165 2.8877063e-05)
(-0.060830103 0.024702477 2.7706391e-05)
(-0.067509481 0.023533119 2.4342488e-05)
(-0.073779594 0.02186693 1.8611284e-05)
(-0.079515693 0.019714081 1.0322994e-05)
(-0.084596306 0.017088456 -6.9382179e-07)
(-0.088904925 0.014012207 -1.4555622e-05)
(-0.092332496 0.010519993 -3.1286684e-05)
(-0.094780614 0.0066624778 -5.0783893e-05)
(-0.096165261 0.002508814 -7.2786633e-05)
(-0.096420917 -0.0018521286 -9.6855413e-05)
(-0.095504829 -0.0063119699 -0.00012236393)
(-0.093401239 -0.010744558 -0.00014850553)
(-0.090125298 -0.01500938 -0.00017432069)
(-0.085726339 -0.018956613 -0.00019874268)
(-0.080290193 -0.02243376 -0.00022066233)
(-0.073940146 -0.025293685 -0.00023900792)
(-0.066836114 -0.027403713 -0.00025283417)
(-0.05917164 -0.028655322 -0.00026141057)
(-0.051168416 -0.028973762 -0.00026429773)
(-0.043068184 -0.028326859 -0.00026139967)
(-0.035122149 -0.026732221 -0.00025298386)
(-0.027578293 -0.024262205 -0.00023966555)
(-0.020667302 -0.021046285 -0.00022235625)
(-0.014588323 -0.017270883 -0.00020217528)
(-0.0094958157 -0.013177202 -0.0001803458)
(-0.0054864919 -0.0090579127 -0.00015817171)
(-0.0025879486 -0.0052522168 -0.0001369406)
(-0.0007844641 -0.0021405414 -0.00011665668)
(-7.687219e-05 -0.00016054123 -8.9449753e-05)
(-0.00030295583 0.0027365196 -0.0001030079)
(-0.0019754957 0.0084980755 -7.1038908e-05)
(-0.0054521314 0.014028534 -4.389115e-05)
(-0.010217953 0.019021335 -2.3746539e-05)
(-0.015985148 0.023311031 -7.2512972e-06)
(-0.022552751 0.026818125 5.937628e-06)
(-0.029727119 0.029522355 1.6234804e-05)
(-0.037328123 0.0314397 2.4138108e-05)
(-0.045190881 0.032603325 2.9997641e-05)
(-0.053161768 0.033050296 3.401033e-05)
(-0.061095105 0.032813618 3.6239325e-05)
(-0.068850698 0.031918753 3.6627491e-05)
(-0.076291962 0.030383719 3.5018284e-05)
(-0.083284797 0.028221802 3.1184758e-05)
(-0.089697346 0.025445969 2.4864531e-05)
(-0.095400675 0.02207413 1.5799219e-05)
(-0.10027035 0.018134538 3.7768082e-06)
(-0.10418881 0.013670782 -1.1324985e-05)
(-0.10704849 0.008745922 -2.9496865e-05)
(-0.1087555 0.003445455 -5.0560682e-05)
(-0.10923383 -0.002121141 -7.4140607e-05)
(-0.10842977 -0.0078204851 -9.9648567e-05)
(-0.10631662 -0.013497107 -0.00012628341)
(-0.10289924 -0.018977235 -0.00015305504)
(-0.098218234 -0.024074544 -0.0001788281)
(-0.092353387 -0.028597887 -0.00020238825)
(-0.085425885 -0.032360897 -0.00022252695)
(-0.077598764 -0.035193109 -0.00023813834)
(-0.069075039 -0.036952086 -0.00024831947)
(-0.060093006 -0.037535784 -0.00025246142)
(-0.050918386 -0.03689419 -0.00025031776)
(-0.0418333 -0.035039142 -0.00024203784)
(-0.033122443 -0.032051315 -0.00022815921)
(-0.02505726 -0.028083604 -0.00020955854)
(-0.017879613 -0.023360656 -0.00018736013)
(-0.01178646 -0.01817498 -0.00016282846)
(-0.0069140659 -0.012880379 -0.00013736512)
(-0.0033238388 -0.0078822533 -0.00011239472)
(-0.0010368606 -0.0036261505 -8.7687306e-05)
(-0.00011093345 -0.00060702375 -5.7245726e-05)
(-0.00035169238 0.0038338097 -0.00010770475)
(-0.0022696809 0.011410327 -7.0550052e-05)
(-0.0062274654 0.018427247 -4.0072202e-05)
(-0.011614722 0.024619887 -1.7821831e-05)
(-0.018090275 0.029857478 2.4205011e-07)
(-0.025420962 0.034089785 1.4671325e-05)
(-0.033388637 0.037320614 2.6065483e-05)
(-0.041795573 0.039585145 3.5085334e-05)
(-0.050464849 0.040931337 4.2191913e-05)
(-0.05923445 0.041407134 4.7646016e-05)
(-0.067952513 0.041053083 5.1535312e-05)
(-0.076473859 0.039899571 5.3793218e-05)
(-0.084657398 0.037967752 5.4224607e-05)
(-0.092364498 0.035273192 5.2539442e-05)
(-0.099458363 0.031831223 4.8392321e-05)
(-0.10580439 0.027663131 4.1426827e-05)
(-0.11127144 0.022802425 3.1323452e-05)
(-0.11573398 0.017300604 1.7849259e-05)
(-0.11907491 0.011231975 9.0679747e-07)
(-0.12118916 0.0046972008 -1.9420737e-05)
(-0.12198784 -0.0021746851 -4.2832187e-05)
(-0.12140289 -0.0092260241 -6.8786407e-05)
(-0.11939225 -0.016272136 -9.6491177e-05)
(-0.11594526 -0.023105222 -0.00012492241)
(-0.11108801 -0.029500507 -0.00015286306)
(-0.10488821 -0.035224856 -0.00017896975)
(-0.097459137 -0.040047813 -0.00020186237)
(-0.088961879 -0.043754812 -0.00022023029)
(-0.079605121 -0.046162009 -0.00023294624)
(-0.069641764 -0.047131867 -0.00023917537)
(-0.059361754 -0.046588279 -0.00023846492)
(-0.049080869 -0.044529795 -0.00023079898)
(-0.039125699 -0.041039417 -0.0002166076)
(-0.029815705 -0.03628969 -0.0001967257)
(-0.021444106 -0.030542336 -0.00017229922)
(-0.01425948 -0.024142614 -0.00014467262)
(-0.0084461089 -0.017509181 -0.00011540602)
(-0.004105754 -0.011119091 -8.6140673e-05)
(-0.0013000804 -0.0054896897 -5.6481866e-05)
(-0.0001446607 -0.0011817428 -2.2528376e-05)
(-0.00039639132 0.0050786606 -0.00010495571)
(-0.0025407986 0.014693447 -6.2476963e-05)
(-0.0069441971 0.023357915 -2.8870852e-05)
(-0.012909217 0.030860727 -4.5693864e-06)
(-0.020045611 0.037117252 1.5110232e-05)
(-0.028090245 0.042116797 3.0917336e-05)
(-0.036802069 0.045895669 4.3622096e-05)
(-0.045967097 0.048514695 5.4031334e-05)
(-0.055397715 0.050041238 6.2700925e-05)
(-0.064925062 0.050537183 6.9940874e-05)
(-0.074392902 0.050052478 7.5850147e-05)
(-0.083653103 0.048623375 8.0340724e-05)
(-0.092562245 0.046274432 8.3167752e-05)
(-0.10097933 0.043023224 8.3967218e-05)
(-0.10876463 0.038886746 8.2299355e-05)
(-0.11577953 0.033888561 7.769715e-05)
(-0.12188738 0.028065968 6.9719222e-05)
(-0.12695513 0.021476573 5.8005531e-05)
(-0.13085585 0.014203868 4.2333615e-05)
(-0.13347199 0.0063614958 2.2672544e-05)
(-0.1346995 -0.0019040594 -7.6997429e-07)
(-0.13445257 -0.010412606 -2.7518733e-05)
(-0.13266935 -0.018951308 -5.6802138e-05)
(-0.12931832 -0.027278318 -8.7568726e-05)
(-0.12440486 -0.03512894 -0.00011851569)
(-0.11797804 -0.042224789 -0.00014815269)
(-0.11013665 -0.048286056 -0.00017489469)
(-0.10103378 -0.053046778 -0.00019717828)
(-0.090878935 -0.056272618 -0.00021359193)
(-0.079936639 -0.057780208 -0.00022300724)
(-0.068520517 -0.057456584 -0.00022469513)
(-0.05698233 -0.05527683 -0.0002184098)
(-0.045695881 -0.051317816 -0.00020442475)
(-0.035036611 -0.045766015 -0.00018350948)
(-0.025358942 -0.038917988 -0.00015683753)
(-0.016973675 -0.031173277 -0.00012586677)
(-0.010123109 -0.023020468 -9.2374219e-05)
(-0.0049572959 -0.015016276 -5.8295125e-05)
(-0.0015839112 -0.0077601647 -2.3123461e-05)
(-0.00018000538 -0.0018919989 1.4742546e-05)
(-0.00043687202 0.0064585519 -9.3558284e-05)
(-0.0027868449 0.018316853 -4.5580806e-05)
(-0.0075958811 0.028778248 -9.0964995e-06)
(-0.014088606 0.037694812 1.7157322e-05)
(-0.021830755 0.045038098 3.8460997e-05)
(-0.030532196 0.050846148 5.5753156e-05)
(-0.039931224 0.055195559 6.9963002e-05)
(-0.049799393 0.05817898 8.2028545e-05)
(-0.059939995 0.059887783 9.2586173e-05)
(-0.070178956 0.060401012 0.00010198189)
(-0.080357438 0.059780062 0.00011031391)
(-0.090326305 0.058068156 0.0001174617)
(-0.09994186 0.055293574 0.00012312007)
(-0.10906282 0.051475569 0.00012684023)
(-0.11754847 0.046631864 0.00012807616)
(-0.12525791 0.040786818 0.00012623641)
(-0.13205024 0.033979493 0.00012074097)
(-0.13778562 0.026271095 0.00011108241)
(-0.14232726 0.017751389 9.6889361e-05)
(-0.14554424 0.0085438256 7.7989856e-05)
(-0.14731544 -0.0011908272 5.4470137e-05)
(-0.14753434 -0.011252583 2.6707986e-05)
(-0.14611517 -0.021402679 -4.5665554e-06)
(-0.14300026 -0.031366135 -3.8293125e-05)
(-0.13816802 -0.040837573 -7.309005e-05)
(-0.13164175 -0.049490474 -0.00010731106)
(-0.12349819 -0.056990306 -0.00013913758)
(-0.11387511 -0.063011678 -0.00016670352)
(-0.10297638 -0.067259205 -0.00018824424)
(-0.091073382 -0.069491136 -0.00020225531)
(-0.07850127 -0.069544047 -0.00020764291)
(-0.065648878 -0.067356219 -0.00020384572)
(-0.05294192 -0.062986817 -0.00019090882)
(-0.040819993 -0.056627926 -0.00016949006)
(-0.029709625 -0.048607084 -0.00014077894)
(-0.019996193 -0.039379345 -0.000106371)
(-0.011992152 -0.029509466 -6.8317115e-05)
(-0.0059060137 -0.019644332 -2.8925402e-05)
(-0.0018995912 -0.010479288 1.2383435e-05)
(-0.00021911068 -0.0027504894 5.4722946e-05)
(-0.00047275954 0.0079598318 -7.2421703e-05)
(-0.0030052993 0.022246606 -1.8739808e-05)
(-0.0081754616 0.034640618 2.0337037e-05)
(-0.015139602 0.045066269 4.8417561e-05)
(-0.023425017 0.053560025 7.1332562e-05)
(-0.032718012 0.060216748 9.0203052e-05)
(-0.04273888 0.065160351 0.00010610722)
(-0.053246802 0.068521058 0.00012010135)
(-0.064037736 0.070418708 0.00013289017)
(-0.074934073 0.07095275 0.00014484475)
(-0.085776122 0.070198196 0.00015605265)
(-0.096415618 0.06820646 0.00016635171)
(-0.10671058 0.065009948 0.00017536744)
(-0.11652149 0.060629228 0.00018255641)
(-0.12570869 0.055081677 0.00018725471)
(-0.13413083 0.048390667 0.00018873174)
(-0.14164434 0.040594564 0.00018625008)
(-0.14810374 0.03175507 0.00017913112)
(-0.15336291 0.021964566 0.00016682517)
(-0.15727738 0.011352275 0.00014898304)
(-0.15970774 8.9051422e-05 0.00012552541)
(-0.16052463 -0.011609382 9.671353e-05)
(-0.15961501 -0.023481614 6.3176622e-05)
(-0.15689015 -0.035221683 2.5956881e-05)
(-0.15229532 -0.046483894 -1.3504199e-05)
(-0.1458206 -0.056891545 -5.3407439e-05)
(-0.13751227 -0.066050382 -9.1680787e-05)
(-0.12748383 -0.073567273 -0.00012610829)
(-0.11592494 -0.079074103 -0.00015449705)
(-0.10310671 -0.08225608 -0.00017486833)
(-0.089381099 -0.082882676 -0.00018565165)
(-0.075172939 -0.080838297 -0.00018585711)
(-0.060963081 -0.076148881 -0.00017520042)
(-0.047263013 -0.069000256 -0.00015415317)
(-0.034583039 -0.059744521 -0.00012388478)
(-0.023397366 -0.04889243 -8.6137031e-05)
(-0.014103427 -0.037091843 -4.3288123e-05)
(-0.0069814223 -0.025092591 1.8971549e-06)
(-0.0022590014 -0.013702935 5.004484e-05)
(-0.00026414513 -0.0037760379 9.7602997e-05)
(-0.00050354977 0.009567416 -4.0576305e-05)
(-0.0031932682 0.026445119 1.9038394e-05)
(-0.0086753843 0.040891992 6.0394083e-05)
(-0.016048457 0.052912449 9.0159573e-05)
(-0.024807307 0.062615258 0.00011466342)
(-0.03461834 0.070159046 0.00013520192)
(-0.045186693 0.075721218 0.00015299306)
(-0.056261379 0.079474814 0.00016920007)
(-0.067632825 0.081572355 0.00018458632)
(-0.079121545 0.082136905 0.00019953971)
(-0.090568682 0.081259335 0.00021413016)
(-0.10182865 0.079000602 0.00022814759)
(-0.11276313 0.075397735 0.00024114174)
(-0.12323645 0.070472312 0.00025246685)
(-0.13311214 0.064240243 0.00026133057)
(-0.14225051 0.056721978 0.00026684863)
(-0.15050733 0.047952441 0.00026810615)
(-0.15773319 0.037990292 0.00026422667)
(-0.163774 0.026926289 0.00025444798)
(-0.1684725 0.01489062 0.00023820258)
(-0.17167105 0.0020590765 0.00021520008)
(-0.17321633 -0.011342186 0.00018551676)
(-0.17296566 -0.025033674 0.00014964117)
(-0.17079544 -0.038682134 0.00010854453)
(-0.16661218 -0.051903483 6.3689264e-05)
(-0.16036527 -0.064270219 1.7007939e-05)
(-0.15206135 -0.075324429 -2.9167516e-05)
(-0.14177919 -0.084597337 -7.2232202e-05)
(-0.12968329 -0.091635861 -0.00010948912)
(-0.11603418 -0.096035767 -0.00013837406)
(-0.1011926 -0.097479717 -0.00015670258)
(-0.085614965 -0.095776929 -0.00016290832)
(-0.069837953 -0.090899675 -0.0001562382)
(-0.054451342 -0.083010794 -0.00013686537)
(-0.040061123 -0.072476636 -0.00010587039)
(-0.027246447 -0.059861625 -6.5126812e-05)
(-0.016507684 -0.04590355 -1.7385767e-05)
(-0.0082137607 -0.031469825 3.4041468e-05)
(-0.0026743159 -0.017501823 8.98072e-05)
(-0.00031729481 -0.0049938519 0.00014352623)
(-0.00052867929 0.011264617 2.8081029e-06)
(-0.0033477308 0.030871022 6.8598263e-05)
(-0.0090880318 0.047473928 0.00011189618)
(-0.016801548 0.061163988 0.0001431951)
(-0.025956831 0.072128214 0.00016926132)
(-0.036204102 0.080594709 0.00019155821)
(-0.047236193 0.086799649 0.00021143479)
(-0.058794121 0.09096355 0.00023015145)
(-0.070664511 0.09327555 0.00024852296)
(-0.082667556 0.093885459 0.00026694911)
(-0.094646811 0.092902324 0.00028547862)
(-0.10646107 0.090398132 0.00030385065)
(-0.1179776 0.086415206 0.00032153611)
(-0.12906666 0.080975953 0.00033778216)
(-0.13959723 0.074093787 0.00035166006)
(-0.14943376 0.065784312 0.00036211874)
(-0.15843377 0.05607617 0.00036804604)
(-0.16644643 0.045021227 0.00036833937)
(-0.17331196 0.032703987 0.00036198622)
(-0.17886225 0.019250196 0.00034815336)
(-0.1829229 0.0048345792 0.00032628293)
(-0.18531711 -0.010312494 0.00029619433)
(-0.18587173 -0.025899703 0.00025816944)
(-0.18442592 -0.041571948 0.0002130371)
(-0.18084289 -0.056910708 0.00016221945)
(-0.17502442 -0.071439185 0.00010774007)
(-0.16692805 -0.084633799 5.2176776e-05)
(-0.15658606 -0.095943585 -1.4527158e-06)
(-0.14412442 -0.10481862 -4.9877931e-05)
(-0.1297793 -0.11074775 -8.9831541e-05)
(-0.11390784 -0.11330433 -0.00011835489)
(-0.096989238 -0.11219652 -0.00013311845)
(-0.079612724 -0.10731656 -0.00013271179)
(-0.062450202 -0.098781167 -0.0001168464)
(-0.046214617 -0.086954861 -8.6400046e-05)
(-0.0316077 -0.072449805 -4.3330612e-05)
(-0.019254126 -0.056099185 9.2065849e-06)
(-0.0096331261 -0.038903875 6.7259015e-05)
(-0.0031578256 -0.021961626 0.00013148648)
(-0.00038078452 -0.0064355863 0.00019251456)
(-0.00054759778 0.013033133 5.8398999e-05)
(-0.0034658499 0.03547928 0.00013061491)
(-0.0094063768 0.05432283 0.00017549996)
(-0.017386359 0.069745111 0.0002081738)
(-0.026854379 0.082015688 0.00023577267)
(-0.037448077 0.091436531 0.00025991719)
(-0.048850677 0.098306913 0.00028207884)
(-0.060797206 0.10289889 0.00030360705)
(-0.07307204 0.10544184 0.00032536352)
(-0.085496434 0.10611538 0.00034775852)
(-0.097917772 0.10504913 0.00037082001)
(-0.11020081 0.10232778 0.00039423771)
(-0.12222021 0.097999844 0.00041740465)
(-0.13385429 0.092088623 0.00043946007)
(-0.14497991 0.084604231 0.00045933448)
(-0.15546833 0.075555697 0.0004758)
(-0.16518189 0.064962675 0.00048752939)
(-0.1739715 0.05286652 0.00049316637)
(-0.18167504 0.03934074 0.00049140901)
(-0.1881169 0.024500902 0.00048110642)
(-0.19310886 0.0085140503 0.00046136784)
(-0.19645302 -0.0083924908 0.00043168158)
(-0.19794704 -0.025923257 0.00039203271)
(-0.19739241 -0.04370873 0.00034301667)
(-0.19460625 -0.061302363 0.00028592773)
(-0.18943707 -0.078182392 0.00022280816)
(-0.18178431 -0.093760485 0.00015643789)
(-0.17162128 -0.1073995 9.0245847e-05)
(-0.1590199 -0.11844244 2.812859e-05)
(-0.14417465 -0.12625382 -2.5828719e-05)
(-0.12742175 -0.13027306 -6.7716852e-05)
(-0.10924867 -0.13007689 -9.4218479e-05)
(-0.090288438 -0.12544438 -0.00010302022)
(-0.07129463 -0.11641478 -9.3142286e-05)
(-0.053096374 -0.10332668 -6.5082467e-05)
(-0.036536389 -0.086827747 -2.0787029e-05)
(-0.022388411 -0.067848825 3.6177709e-05)
(-0.011268747 -0.047540368 0.00010112179)
(-0.0037218388 -0.027182687 0.00017469253)
(-0.00045691116 -0.0081393721 0.0002443905)
(-0.00055984342 0.014853224 0.00012667667)
(-0.0035453305 0.040221673 0.00020557276)
(-0.0096247896 0.061370624 0.00025167627)
(-0.017792769 0.078574334 0.00028555981)
(-0.027484076 0.09218742 0.00031465428)
(-0.038327089 0.10258871 0.00034072612)
(-0.049997839 0.11014392 0.00036536119)
(-0.062227093 0.1151801 0.00038999167)
(-0.07479828 0.11797022 0.00041552493)
(-0.087534874 0.1187267 0.00044238424)
(-0.1002893 0.11760223 0.0004705817)
(-0.11293371 0.1146961 0.00049976357)
(-0.12535186 0.11006422 0.00052925066)
(-0.13743223 0.10373121 0.00055807813)
(-0.14906205 0.095703449 0.00058503592)
(-0.16012239 0.085982046 0.00060871385)
(-0.17048384 0.074575328 0.00062755593)
(-0.18000301 0.061510735 0.00063992793)
(-0.1885198 0.046846234 0.00064420119)
(-0.19585573 0.030681483 0.0006388548)
(-0.20181349 0.01316891 0.00062259619)
(-0.20617851 -0.0054752707 0.00059449858)
(-0.20872286 -0.024960413 0.00055414909)
(-0.2092124 -0.044912016 0.00050179818)
(-0.20741794 -0.064864683 0.00043849668)
(-0.20313117 -0.08425946 0.00036619803)
(-0.19618584 -0.10244809 0.00028780097)
(-0.18648409 -0.11870722 0.00020710522)
(-0.17402693 -0.13226579 0.00012865435)
(-0.15894651 -0.14234828 5.7448656e-05)
(-0.14153569 -0.14823484 -1.4716556e-06)
(-0.12226898 -0.14933642 -4.3545375e-05)
(-0.10180718 -0.14527847 -6.5251032e-05)
(-0.080978634 -0.13598161 -6.4607711e-05)
(-0.060733839 -0.12172354 -4.1470949e-05)
(-0.042074268 -0.10316575 2.3920359e-06)
(-0.025950448 -0.081333131 6.3038652e-05)
(-0.013148225 -0.057540464 0.00013495178)
(-0.0043785915 -0.033279363 0.00021874401)
(-0.0005480826 -0.01014983 0.00029869034)
(-0.0005651217 0.016704094 0.00020791199)
(-0.0035848156 0.045047703 0.00029374764)
(-0.0097399656 0.068545934 0.00034069365)
(-0.018014566 0.087565693 0.00037561294)
(-0.027835469 0.10254718 0.00040614987)
(-0.038824664 0.11394764 0.00043420397)
(-0.050652985 0.1222016 0.00046146838)
(-0.063048319 0.12769402 0.00048945443)
(-0.075794159 0.13074452 0.0005191176)
(-0.088717109 0.13160128 0.00055090107)
(-0.10167565 0.13044277 0.00058481084)
(-0.11455055 0.12738503 0.00062046071)
(-0.12723629 0.12249291 0.00065711017)
(-0.13963348 0.11579323 0.00069369939)
(-0.15164233 0.10728872 0.00072888333)
(-0.16315681 0.096971773 0.00076106957)
(-0.17405956 0.084837637 0.00078846564)
(-0.18421743 0.070897026 0.00080914094)
(-0.19347757 0.055188353 0.00082110821)
(-0.2016645 0.037789998 0.00082242805)
(-0.20857821 0.018832922 0.00081133859)
(-0.21399392 -0.0014862089 0.00078641027)
(-0.21766425 -0.022891551 0.00074672344)
(-0.2193244 -0.04501489 0.0006920557)
(-0.21870175 -0.067383978 0.00062307317)
(-0.21553077 -0.089414307 0.00054149633)
(-0.20957453 -0.11040731 0.00045021282)
(-0.2006534 -0.12955872 0.0003533003)
(-0.18868063 -0.14598164 0.00025591981)
(-0.17370311 -0.15874873 0.00016404549)
(-0.15594299 -0.16695685 8.401322e-05)
(-0.13583328 -0.16981434 2.1901064e-05)
(-0.11403757 -0.16674554 -1.7201341e-05)
(-0.091443214 -0.15749992 -2.9912966e-05)
(-0.06912041 -0.14224545 -1.5077169e-05)
(-0.048244289 -0.12162244 2.5986363e-05)
(-0.029971772 -0.096736446 8.9061758e-05)
(-0.015296604 -0.069077483 0.00016773715)
(-0.005140121 -0.04037894 0.00026256848)
(-0.00065685404 -0.012518055 0.00035456258)
(-0.00056338732 0.01856449 0.0003021497)
(-0.0035843129 0.049905981 0.00039519554)
(-0.0097519449 0.075775873 0.0004426089)
(-0.018051137 0.096630608 0.00047837755)
(-0.027905898 0.11299449 0.0005102743)
(-0.038934044 0.1254033 0.00054031848)
(-0.050802684 0.13436191 0.0005703055)
(-0.06323781 0.14031557 0.00060182604)
(-0.076023694 0.14363345 0.00063589088)
(-0.088990761 0.14460252 0.00067297513)
(-0.10200438 0.14342982 0.00071309355)
(-0.11495505 0.14025066 0.00075584373)
(-0.1277494 0.1351408 0.00080044006)
(-0.14030217 0.12813062 0.00084574237)
(-0.15252898 0.11921988 0.00089028208)
(-0.16433991 0.10839218 0.00093229102)