/*--------------------------------*- C++ -*----------------------------------*\
  =========                 |
  \\      /  F ield         | OpenFOAM: The Open Source CFD Toolbox
   \\    /   O peration     | Website:  https://openfoam.org
    \\  /    A nd           | Version:  7
     \\/     M anipulation  |
\*---------------------------------------------------------------------------*/
FoamFile
{
    version     2.0;
    format      ascii;
    class       volScalarField;
    location    "5.7";
    object      T;
}
// * * * * * * * * * * * * * * * * * * * * * * * * * * * * * * * * * * * * * //

dimensions      [0 0 0 1 0 0 0];

internalField   nonuniform List<scalar> 
19968
(
1
1
1
1
1
1
1
1
1
1
1
1
1
1
1
1
1
1
1
1
1
1
1
1
1
1
1
1
1
1
1
1
1
1
1
1
1
1
1
1
1
1
1
1
1
1
1
1
1.28247
2.46698
2.6896
2.68803
2.69277
2.69866
2.70587
2.71253
2.71773
2.7214
2.72398
2.72602
2.72816
2.73086
2.73433
2.73855
2.74317
2.74754
2.7511
2.7538
2.75608
2.75842
2.76111
2.7642
2.76746
2.77059
2.77338
2.77582
2.77806
2.78025
2.78247
2.78471
2.78684
2.78878
2.79047
2.79194
2.7933
2.79465
2.79608
2.79756
2.79897
2.80021
2.80121
2.80199
2.80257
2.80292
2.80311
2.80316
1
1
1
1
1
1
1
1
1
1
1
1
1
1
1
1
1
1
1
1
1
1
1
1
1
1
1
1
1
1
1
1
1
1
1
1
1
1
1
1
1
1
1
1
1
1
1
1
1.26606
2.45705
2.68879
2.68867
2.69276
2.69876
2.70584
2.71236
2.71751
2.72119
2.7238
2.72585
2.72795
2.73062
2.7341
2.73838
2.74305
2.74745
2.75101
2.75373
2.75601
2.75835
2.76102
2.76404
2.76721
2.77024
2.77296
2.77538
2.77763
2.77987
2.78214
2.78441
2.78655
2.78848
2.79017
2.79164
2.793
2.79435
2.79576
2.79719
2.79856
2.79976
2.80074
2.8015
2.80208
2.80244
2.80265
2.8027
1
1
1
1
1
1
1
1
1
1
1
1
1
1
1
1
1
1
1
1
1
1
1
1
1
1
1
1
1
1
1
1
1
1
1
1
1
1
1
1
1
1
1
1
1
1
1
1
1.23082
2.43534
2.68816
2.68882
2.6931
2.69884
2.70541
2.71158
2.71668
2.72048
2.72323
2.72536
2.72748
2.73015
2.73361
2.73791
2.7426
2.74702
2.75061
2.75338
2.75571
2.75808
2.76074
2.7637
2.76676
2.76967
2.77228
2.77464
2.7769
2.77918
2.78151
2.78382
2.786
2.78794
2.78964
2.79112
2.79249
2.79384
2.79522
2.7966
2.79792
2.79907
2.80003
2.80078
2.80135
2.80171
2.80192
2.80198
1
1
1
1
1
1
1
1
1
1
1
1
1
1
1
1
1
1
1
1
1
1
1
1
1
1
1
1
1
1
1
1
1
1
1
1
1
1
1
1
1
1
1
1
1
1
1
1
1.18092
2.4029
2.68695
2.68911
2.69357
2.6989
2.70473
2.71047
2.71551
2.71949
2.72247
2.72476
2.72699
2.72971
2.73313
2.73738
2.742
2.74639
2.75
2.75284
2.75526
2.75768
2.76034
2.76321
2.76612
2.76886
2.77134
2.77364
2.77588
2.7782
2.78059
2.78295
2.78515
2.78711
2.7888
2.79029
2.79165
2.79297
2.79429
2.79558
2.7968
2.79789
2.79882
2.79958
2.80017
2.80057
2.80083
2.80094
1
1
1
1
1
1
1
1
1
1
1
1
1
1
1
1
1
1
1
1
1
1
1
1
1
1
1
1
1
1
1
1
1
1
1
1
1
1
1
1
1
1
1
1
1
1
1
1
1.11471
2.35942
2.68586
2.68958
2.69408
2.69899
2.70412
2.70939
2.71429
2.71842
2.72167
2.72425
2.72668
2.72945
2.73278
2.73686
2.74127
2.74554
2.74914
2.7521
2.75469
2.75723
2.75989
2.76266
2.7654
2.76797
2.77033
2.77254
2.77476
2.77708
2.77949
2.78188
2.78412
2.78613
2.78786
2.78937
2.79074
2.79202
2.79324
2.79439
2.79545
2.79639
2.7972
2.79789
2.79845
2.79885
2.79911
2.79926
1
1
1
1
1
1
1
1
1
1
1
1
1
1
1
1
1
1
1
1
1
1
1
1
1
1
1
1
1
1
1
1
1
1
1
1
1
1
1
1
1
1
1
1
1
1
1
1
1.00446
2.29189
2.68355
2.69035
2.69473
2.69948
2.70398
2.7086
2.71315
2.71739
2.72107
2.72416
2.72687
2.72968
2.73286
2.7366
2.74057
2.7445
2.74797
2.75102
2.75378
2.75644
2.7591
2.76172
2.76423
2.76658
2.76879
2.77091
2.77306
2.77532
2.77767
2.78003
2.78228
2.78432
2.78611
2.78767
2.78906
2.79033
2.7915
2.79256
2.79352
2.79436
2.79513
2.79582
2.79642
2.79688
2.79719
2.7974
1
1
1
1
1
1
1
1
1
1
1
1
1
1
1
1
1
1
1
1
1
1
1
1
1
1
1
1
1
1
1
1
1
1
1
1
1
1
1
1
1
1
1
1
1
1
1
1
1.00002
2.20402
2.67842
2.68807
2.69191
2.69662
2.70087
2.70525
2.70964
2.71397
2.718
2.72157
2.72469
2.7277
2.73088
2.73438
2.73798
2.74161
2.745
2.74821
2.75125
2.75414
2.75689
2.75945
2.76185
2.76412
2.76629
2.7684
2.77054
2.77275
2.77503
2.77733
2.77956
2.78165
2.78352
2.78517
2.78661
2.78789
2.789
2.78996
2.79079
2.79154
2.79225
2.79294
2.79358
2.79412
2.79448
2.79476
1
1
1
1
1
1
1
1
1
1
1
1
1
1
1
1
1
1
1
1
1
1
1
1
1
1
1
1
1
1
1
1
1
1
1
1
1
1
1
1
1
1
1
1
1
1
1
1
1
2.08018
2.66815
2.68408
2.68788
2.69285
2.69754
2.70227
2.70667
2.71087
2.71484
2.71843
2.72174
2.72492
2.72817
2.73159
2.73506
2.73857
2.74195
2.74526
2.74848
2.75151
2.75432
2.75684
2.75916
2.76136
2.76351
2.76564
2.76778
2.76994
2.77212
2.77432
2.77649
2.77856
2.78048
2.78218
2.78366
2.78491
2.78593
2.78675
2.78745
2.78808
2.78874
2.78943
2.79011
2.79073
2.79115
2.79149
1
1
1
1
1
1
1
1
1
1
1
1
1
1
1
1
1
1
1
1
1
1
1
1
1
1
1
1
1
1
1
1
1
1
1
1
1
1
1
1
1
1
1
1
1
1
1
1
1
1.91033
2.63983
2.67634
2.68128
2.68698
2.69235
2.69757
2.70218
2.70637
2.7103
2.71385
2.71722
2.72052
2.72392
2.72744
2.73094
2.73447
2.73787
2.74119
2.74447
2.74753
2.75034
2.75282
2.7551
2.75731
2.75952
2.76171
2.76388
2.76601
2.76811
2.7702
2.77228
2.7743
2.77622
2.77795
2.77944
2.78065
2.78161
2.78234
2.78295
2.78353
2.78418
2.7849
2.78565
2.78636
2.78684
2.78725
1
1
1
1
1
1
1
1
1
1
1
1
1
1
1
1
1
1
1
1
1
1
1
1
1
1
1
1
1
1
1
1
1
1
1
1
1
1
1
1
1
1
1
1
1
1
1
1
1
1.68494
2.58484
2.66983
2.67549
2.68129
2.68661
2.6921
2.69703
2.70139
2.70532
2.70879
2.71205
2.71534
2.71886
2.72255
2.7262
2.72985
2.73333
2.73659
2.73976
2.74272
2.74543
2.74787
2.75013
2.75234
2.75457
2.75678
2.75893
2.76101
2.76301
2.765
2.76698
2.76894
2.77083
2.77255
2.77404
2.77522
2.77612
2.77677
2.77729
2.77779
2.77836
2.77905
2.7798
2.78055
2.78108
2.78151
1
1
1
1
1
1
1
1
1
1
1
1
1
1
1
1
1
1
1
1
1
1
1
1
1
1
1
1
1
1
1
1
1
1
1
1
1
1
1
1
1
1
1
1
1
1
1
1
1
1.36922
2.47585
2.67131
2.67125
2.67653
2.68106
2.68634
2.69145
2.69598
2.69996
2.70344
2.70661
2.70983
2.71336
2.71712
2.72088
2.7246
2.72811
2.7313
2.73431
2.73713
2.73971
2.74215
2.74445
2.74674
2.74901
2.75124
2.75335
2.75531
2.75717
2.75896
2.76073
2.76246
2.7641
2.76559
2.76685
2.76784
2.76859
2.76915
2.76962
2.77012
2.77072
2.77145
2.77226
2.77309
2.77369
2.77417
1
1
1
1
1
1
1
1
1
1
1
1
1
1
1
1
1
1
1
1
1
1
1
1
1
1
1
1
1
1
1
1
1
1
1
1
1
1
1
1
1
1
1
1
1
1
1
1
1
1.01492
2.2926
2.67828
2.67729
2.67895
2.68158
2.68498
2.68874
2.69245
2.69601
2.69932
2.70229
2.70515
2.70821
2.71152
2.71491
2.71834
2.72163
2.72457
2.72724
2.72978
2.73216
2.73452
2.73682
2.73912
2.74142
2.74366
2.74575
2.74767
2.74946
2.75116
2.75282
2.7544
2.75589
2.75722
2.75833
2.7592
2.75983
2.76027
2.76058
2.76084
2.76114
2.76151
2.76195
2.76247
2.76287
2.76321
1
1
1
1
1
1
1
1
1
1
1
1
1
1
1
1
1
1
1
1
1
1
1
1
1
1
1
1
1
1
1
1
1
1
1
1
1
1
1
1
1
1
1
1
1
1
1
1
1
1.00003
2.00845
2.64721
2.66214
2.66617
2.67131
2.67578
2.6799
2.68366
2.68723
2.69064
2.69374
2.69662
2.69954
2.70263
2.7058
2.70897
2.71204
2.71484
2.71736
2.7198
2.7222
2.72457
2.72691
2.72921
2.73148
2.73368
2.73574
2.73763
2.73937
2.74098
2.74247
2.74384
2.74504
2.746
2.74667
2.74703
2.74711
2.74701
2.74688
2.74687
2.74704
2.74743
2.74785
2.74823
2.74834
2.74849
1
1
1
1
1
1
1
1
1
1
1
1
1
1
1
1
1
1
1
1
1
1
1
1
1
1
1
1
1
1
1
1
1
1
1
1
1
1
1
1
1
1
1
1
1
1
1
1
1
1
1.53578
2.51563
2.64613
2.65388
2.66203
2.66748
2.67217
2.67626
2.67999
2.68354
2.6869
2.69003
2.69299
2.69587
2.69866
2.70133
2.70389
2.70632
2.70857
2.71078
2.71303
2.71519
2.71724
2.71914
2.72098
2.72279
2.72454
2.72617
2.72766
2.72899
2.73017
2.73118
2.732
2.73257
2.7328
2.73271
2.73236
2.73186
2.73136
2.73096
2.73055
2.72998
2.72872
2.7266
2.72387
2.7216
1
1
1
1
1
1
1
1
1
1
1
1
1
1
1
1
1
1
1
1
1
1
1
1
1
1
1
1
1
1
1
1
1
1
1
1
1
1
1
1
1
1
1
1
1
1
1
1
1
1
1.02662
2.25032
2.65579
2.65451
2.65574
2.65961
2.66374
2.66746
2.6707
2.67384
2.67709
2.68036
2.68348
2.68636
2.68893
2.69122
2.69332
2.69533
2.69732
2.69931
2.7014
2.70346
2.70526
2.70673
2.70796
2.70914
2.71035
2.71156
2.7127
2.71363
2.71427
2.71475
2.71499
2.71491
2.71437
2.71319
2.71143
2.70921
2.70659
2.70365
2.70047
2.69714
2.69401
2.69054
2.68796
2.68637
1
1
1
1
1
1
1
1
1
1
1
1
1
1
1
1
1
1
1
1
1
1
1
1
1
1
1
1
1
1
1
1
1
1
1
1
1
1
1
1
1
1
1
1
1
1
1
1
1
1
1.00004
1.75844
2.55687
2.63139
2.6379
2.64493
2.65008
2.65435
2.65787
2.66109
2.66436
2.66775
2.67115
2.67437
2.67721
2.67956
2.68146
2.68306
2.6846
2.68627
2.68817
2.69026
2.69211
2.69334
2.69391
2.69427
2.6946
2.69493
2.69519
2.69524
2.69512
2.69484
2.69423
2.69306
2.69114
2.68844
2.68504
2.68107
2.67656
2.67154
2.666
2.66032
2.65494
2.65284
2.65019
2.66464
1
1
1
1
1
1
1
1
1
1
1
1
1
1
1
1
1
1
1
1
1
1
1
1
1
1
1
1
1
1
1
1
1
1
1
1
1
1
1
1
1
1
1
1
1
1
1
1
1
1
1
1.09827
2.33006
2.63305
2.63228
2.63534
2.63981
2.64424
2.64796
2.65094
2.65362
2.65646
2.65961
2.66288
2.66589
2.66829
2.67001
2.67127
2.6724
2.67371
2.67535
2.67732
2.67914
2.68017
2.68032
2.68016
2.67962
2.67889
2.67812
2.67722
2.6762
2.67493
2.6732
2.67069
2.66716
2.66253
2.65679
2.64992
2.64133
2.63031
2.61509
2.5945
2.56456
2.52287
2.4601
2.33455
1
1
1
1
1
1
1
1
1
1
1
1
1
1
1
1
1
1
1
1
1
1
1
1
1
1
1
1
1
1
1
1
1
1
1
1
1
1
1
1
1
1
1
1
1
1
1
1
1
1
1
1.00078
1.99383
2.59846
2.61291
2.61819
2.62397
2.62927
2.63393
2.63758
2.64059
2.64356
2.64686
2.65036
2.65366
2.65637
2.65834
2.65979
2.661
2.66216
2.66356
2.66519
2.66672
2.66758
2.66765
2.66727
2.66615
2.66458
2.66289
2.66112
2.65914
2.6568
2.65386
2.65003
2.64492
2.63838
2.63014
2.62026
2.60755
2.59118
2.56796
2.53707
2.4926
2.43708
2.3254
2.1614
1
1
1
1
1
1
1
1
1
1
1
1
1
1
1
1
1
1
1
1
1
1
1
1
1
1
1
1
1
1
1
1
1
1
1
1
1
1
1
1
1
1
1
1
1
1
1
1
1
1
1
0.999999
1.3673
2.41912
2.59734
2.60544
2.61304
2.61844
2.62268
2.62589
2.6285
2.63121
2.63441
2.63801
2.6415
2.64437
2.64646
2.64801
2.64923
2.65045
2.65174
2.65299
2.65405
2.65455
2.65445
2.65371
2.65206
2.64978
2.64728
2.64463
2.64159
2.63802
2.63366
2.62838
2.6216
2.61316
2.60247
2.58964
2.57347
2.55283
2.52515
2.48786
2.43912
2.36548
2.25938
2.1334
1
1
1
1
1
1
1
1
1
1
1
1
1
1
1
1
1
1
1
1
1
1
1
1
1
1
1
1
1
1
1
1
1
1
1
1
1
1
1
1
1
1
1
1
1
1
1
1
1
1
1
1
1.01289
2.10448
2.59871
2.59936
2.60231
2.6063
2.61002
2.61296
2.61524
2.61775
2.62093
2.6248
2.62842
2.63139
2.63337
2.63463
2.63566
2.63685
2.63821
2.6395
2.64043
2.6406
2.64029
2.63915
2.63698
2.63414
2.63101
2.62767
2.62372
2.61902
2.61322
2.60638
2.59796
2.58778
2.57515
2.55992
2.54134
2.51808
2.48853
2.44944
2.39974
2.33065
2.24441
2.14833
1
1
1
1
1
1
1
1
1
1
1
1
1
1
1
1
1
1
1
1
1
1
1
1
1
1
1
1
1
1
1
1
1
1
1
1
1
1
1
1
1
1
1
1
1
1
1
1
1
1
1
1
1.00001
1.45446
2.44409
2.58619
2.59202
2.59669
2.59928
2.60121
2.60271
2.60464
2.60743
2.61116
2.61481
2.618
2.62009
2.62104
2.62154
2.62231
2.62357
2.62503
2.62606
2.62605
2.62545
2.62388
2.6213
2.61811
2.61452
2.61064
2.606
2.60042
2.59349
2.58524
2.57536
2.56366
2.54961
2.53284
2.51281
2.48833
2.45891
2.42029
2.37515
2.31664
2.24813
2.173
1
1
1
1
1
1
1
1
1
1
1
1
1
1
1
1
1
1
1
1
1
1
1
1
1
1
1
1
1
1
1
1
1
1
1
1
1
1
1
1
1
1
1
1
1
1
1
1
1
1
1
1
1
1.02016
2.12082
2.58834
2.58751
2.58788
2.589
2.59032
2.59142
2.59279
2.59483
2.59798
2.60136
2.60459
2.60679
2.60737
2.60723
2.60735
2.60813
2.60951
2.61059
2.6105
2.60968
2.6078
2.60492
2.60152
2.59759
2.59325
2.58815
2.58206
2.57454
2.56537
2.55435
2.5414
2.52628
2.50868
2.48812
2.46358
2.43473
2.39922
2.35931
2.31134
2.25535
2.19487
1
1
1
1
1
1
1
1
1
1
1
1
1
1
1
1
1
1
1
1
1
1
1
1
1
1
1
1
1
1
1
1
1
1
1
1
1
1
1
1
1
1
1
1
1
1
1
1
1
1
1
1
1
1.00002
1.41174
2.41894
2.57198
2.5766
2.57943
2.58092
2.58173
2.58261
2.58351
2.58541
2.58771
2.59029
2.59234
2.5928
2.59249
2.59239
2.59271
2.59369
2.59443
2.59411
2.59287
2.59065
2.58763
2.58421
2.58021
2.57558
2.57017
2.56381
2.55617
2.54678
2.53532
2.52171
2.50604
2.48809
2.46785
2.44366
2.41617
2.38414
2.34898
2.30806
2.26154
2.21137
1
1
1
1
1
1
1
1
1
1
1
1
1
1
1
1
1
1
1
1
1
1
1
1
1
1
1
1
1
1
1
1
1
1
1
1
1
1
1
1
1
1
1
1
1
1
1
1
1
1
1
1
1
1
1.01502
2.04088
2.55862
2.56674
2.56833
2.5701
2.57181
2.57337
2.57469
2.5761
2.57751
2.57882
2.57963
2.5795
2.5787
2.57808
2.57799
2.57833
2.57849
2.5779
2.5762
2.57354
2.5702
2.5666
2.56252
2.55773
2.55211
2.5456
2.53802
2.52885
2.51751
2.5039
2.48827
2.47035
2.45082
2.4274
2.40213
2.37313
2.34188
2.30581
2.26749
2.22446
1
1
1
1
1
1
1
1
1
1
1
1
1
1
1
1
1
1
1
1
1
1
1
1
1
1
1
1
1
1
1
1
1
1
1
1
1
1
1
1
1
1
1
1
1
1
1
1
1
1
1
1
1
1
1.00001
1.23284
2.35026
2.56157
2.55896
2.55945
2.56045
2.56217
2.56413
2.56567
2.56664
2.567
2.56692
2.56644
2.56529
2.56421
2.56344
2.56319
2.56277
2.56166
2.55959
2.55662
2.55287
2.54888
2.54457
2.53966
2.53394
2.52735
2.51989
2.51113
2.50035
2.48742
2.47258
2.45513
2.43622
2.41451
2.39135
2.36519
2.33692
2.30536
2.27277
2.23465
1
1
1
1
1
1
1
1
1
1
1
1
1
1
1
1
1
1
1
1
1
1
1
1
1
1
1
1
1
1
1
1
1
1
1
1
1
1
1
1
1
1
1
1
1
1
1
1
1
1
1
1
1
1
1
1.00383
1.85547
2.50211
2.53637
2.54125
2.54584
2.54873
2.55173
2.5541
2.55519
2.55507
2.55446
2.55344
2.55197
2.55053
2.54923
2.54848
2.54752
2.54599
2.5438
2.54074
2.53661
2.53203
2.52718
2.52198
2.51612
2.50946
2.502
2.49346
2.48339
2.47125
2.4575
2.44099
2.42313
2.40363
2.38206
2.35875
2.3332
2.30562
2.27615
2.243
1
1
1
1
1
1
1
1
1
1
1
1
1
1
1
1
1
1
1
1
1
1
1
1
1
1
1
1
1
1
1
1
1
1
1
1
1
1
1
1
1
1
1
1
1
1
1
1
1
1
1
1
1
1
1
1
1.10045
2.20002
2.52755
2.53269
2.53451
2.53572
2.53849
2.54159
2.54346
2.54339
2.54262
2.5413
2.53961
2.53786
2.53615
2.53507
2.5337
2.53177
2.52946
2.52631
2.52186
2.5167
2.51111
2.50527
2.49911
2.49228
2.48475
2.4763
2.46686
2.45528
2.44255
2.4274
2.4111
2.39353
2.37344
2.35283
2.32975
2.30526
2.278
2.2497
1
1
1
1
1
1
1
1
1
1
1
1
1
1
1
1
1
1
1
1
1
1
1
1
1
1
1
1
1
1
1
1
1
1
1
1
1
1
1
1
1
1
1
1
1
1
1
1
1
1
1
1
1
1
1
1
1.00067
1.43314
2.35424
2.51297
2.51239
2.51628
2.5208
2.52574
2.52919
2.53011
2.52961
2.52836
2.52661
2.52475
2.52284
2.52155
2.52011
2.51804
2.51563
2.5125
2.50795
2.50247
2.49619
2.48958
2.48305
2.47576
2.46855
2.46004
2.45074
2.43967
2.42776
2.41391
2.39929
2.38306
2.3649
2.34636
2.32544
2.3034
2.2791
2.25484
1
1
1
1
1
1
1
1
1
1
1
1
1
1
1
1
1
1
1
1
1
1
1
1
1
1
1
1
1
1
1
1
1
1
1
1
1
1
1
1
1
1
1
1
1
1
1
1
1
1
1
1
1
1
1
1
1
1.01644
1.88133
2.46487
2.4972
2.50272
2.50765
2.51163
2.5146
2.51563
2.51534
2.51444
2.513
2.51138
2.50961
2.50813
2.50693
2.5049
2.50248
2.49942
2.49502
2.4895
2.48283
2.47581
2.46883
2.46124
2.45339
2.44492
2.43579
2.42529
2.41406
2.40108
2.38774
2.37249
2.35625
2.33895
2.31999
2.30016
2.27908
2.25776
1
1
1
1
1
1
1
1
1
1
1
1
1
1
1
1
1
1
1
1
1
1
1
1
1
1
1
1
1
1
1
1
1
1
1
1
1
1
1
1
1
1
1
1
1
1
1
1
1
1
1
1
1
1
1
1
1
1.00003
1.11322
2.11271
2.4756
2.49908
2.49915
2.50075
2.5019
2.5018
2.50115
2.50012
2.49889
2.49755
2.49608
2.49468
2.49368
2.49197
2.4896
2.4866
2.48249
2.47706
2.47034
2.46332
2.45593
2.4481
2.43994
2.43135
2.42214
2.41213
2.40145
2.38929
2.37666
2.36238
2.34738
2.33097
2.31394
2.29601
2.27787
2.25865
1
1
1
1
1
1
1
1
1
1
1
1
1
1
1
1
1
1
1
1
1
1
1
1
1
1
1
1
1
1
1
1
1
1
1
1
1
1
1
1
1
1
1
1
1
1
1
1
1
1
1
1
1
1
1
1
1
1
1.00087
1.25947
2.26132
2.4822
2.48206
2.48392
2.48382
2.48381
2.48367
2.48329
2.48282
2.48234
2.48149
2.48057
2.47981
2.4784
2.47619
2.47324
2.4695
2.46446
2.45815
2.45133
2.44405
2.43622
2.42799
2.41947
2.4103
2.40062
2.39026
2.37883
2.36664
2.35321
2.33885
2.32338
2.30784
2.29153
2.27549
2.25808
1
1
1
1
1
1
1
1
1
1
1
1
1
1
1
1
1
1
1
1
1
1
1
1
1
1
1
1
1
1
1
1
1
1
1
1
1
1
1
1
1
1
1
1
1
1
1
1
1
1
1
1
1
1
1
1
1
1
1
1.00481
1.64144
2.37234
2.4593
2.45668
2.45813
2.45988
2.46171
2.46306
2.46395
2.46479
2.46508
2.46517
2.46503
2.46406
2.46223
2.45951
2.45592
2.4513
2.44554
2.43908
2.4321
2.42464
2.41678
2.40863
2.39986
2.39058
2.38053
2.36969
2.35794
2.34513
2.33119
2.31649
2.30193
2.28699
2.2723
2.2565
1
1
1
1
1
1
1
1
1
1
1
1
1
1
1
1
1
1
1
1
1
1
1
1
1
1
1
1
1
1
1
1
1
1
1
1
1
1
1
1
1
1
1
1
1
1
1
1
1
1
1
1
1
1
1
1
1
1
1
1.00001
1.04618
1.89874
2.41692
2.44438
2.44336
2.44501
2.44606
2.44693
2.44767
2.44864
2.44936
2.45003
2.44996
2.44914
2.44747
2.44506
2.44181
2.43747
2.43223
2.42627
2.41982
2.41281
2.40553
2.39797
2.38991
2.38132
2.37191
2.36175
2.35061
2.33826
2.32464
2.31077
2.29688
2.28294
2.26902
2.25435
1
1
1
1
1
1
1
1
1
1
1
1
1
1
1
1
1
1
1
1
1
1
1
1
1
1
1
1
1
1
1
1
1
1
1
1
1
1
1
1
1
1
1
1
1
1
1
1
1
1
1
1
1
1
1
1
1
1
1
1
1.00019
1.12801
2.01936
2.41256
2.43422
2.43626
2.43678
2.43627
2.4358
2.43558
2.43536
2.43515
2.43459
2.43348
2.43181
2.42956
2.42663
2.42266
2.41766
2.41226
2.40648
2.40016
2.39361
2.38684
2.37972
2.37209
2.36361
2.35428
2.34396
2.33215
2.31917
2.30613
2.29265
2.27932
2.26582
2.25196
1
1
1
1
1
1
1
1
1
1
1
1
1
1
1
1
1
1
1
1
1
1
1
1
1
1
1
1
1
1
1
1
1
1
1
1
1
1
1
1
1
1
1
1
1
1
1
1
1
1
1
1
1
1
1
1
1
1
1
1
1
1.00115
1.20733
2.09764
2.39881
2.42791
2.42709
2.42656
2.42573
2.42476
2.42376
2.42267
2.42119
2.41928
2.41707
2.41444
2.41131
2.40747
2.40281
2.39778
2.39257
2.38699
2.38119
2.37523
2.36901
2.36235
2.35483
2.34633
2.33681
2.32564
2.31351
2.30135
2.2885
2.27573
2.26275
2.24963
1
1
1
1
1
1
1
1
1
1
1
1
1
1
1
1
1
1
1
1
1
1
1
1
1
1
1
1
1
1
1
1
1
1
1
1
1
1
1
1
1
1
1
1
1
1
1
1
1
1
1
1
1
1
1
1
1
1
1
1
1
1
1.00303
1.2885
2.15085
2.3883
2.41001
2.41214
2.41258
2.41247
2.41183
2.41059
2.40866
2.40634
2.40366
2.40053
2.39692
2.39284
2.38829
2.3835
2.37858
2.37352
2.36836
2.36302
2.35744
2.35152
2.34475
2.33697
2.32816
2.31776
2.30683
2.2957
2.28369
2.27159
2.25934
2.24706
1
1
1
1
1
1
1
1
1
1
1
1
1
1
1
1
1
1
1
1
1
1
1
1
1
1
1
1
1
1
1
1
1
1
1
1
1
1
1
1
1
1
1
1
1
1
1
1
1
1
1
1
1
1
1
1
1
1
1
1
1
1
1
1.00614
1.37074
2.18857
2.37519
2.39002
2.39413
2.39567
2.39654
2.39606
2.39472
2.39293
2.39052
2.3874
2.3837
2.37956
2.37515
2.37059
2.36591
2.36107
2.35614
2.351
2.34563
2.33999
2.33361
2.32635
2.31825
2.30898
2.29935
2.28922
2.27807
2.26667
2.25535
2.24401
1
1
1
1
1
1
1
1
1
1
1
1
1
1
1
1
1
1
1
1
1
1
1
1
1
1
1
1
1
1
1
1
1
1
1
1
1
1
1
1
1
1
1
1
1
1
1
1
1
1
1
1
1
1
1
1
1
1
1
1
1
1
1
1.00001
1.01111
1.44236
2.21823
2.36454
2.37033
2.37329
2.37533
2.37651
2.37674
2.37623
2.37484
2.37269
2.36981
2.36632
2.36244
2.35829
2.35389
2.34922
2.34433
2.33921
2.33384
2.3282
2.322
2.31513
2.30759
2.29923
2.29054
2.28131
2.2711
2.26052
2.25018
2.2399
1
1
1
1
1
1
1
1
1
1
1
1
1
1
1
1
1
1
1
1
1
1
1
1
1
1
1
1
1
1
1
1
1
1
1
1
1
1
1
1
1
1
1
1
1
1
1
1
1
1
1
1
1
1
1
1
1
1
1
1
1
1
1
1
1.00003
1.01747
1.52231
2.24178
2.35344
2.35273
2.35364
2.35414
2.35499
2.35593
2.35596
2.35546
2.3541
2.35188
2.34898
2.34554
2.34161
2.33725
2.33258
2.32763
2.32237
2.31677
2.31067
2.30401
2.29685
2.28911
2.28104
2.27247
2.26314
2.25338
2.24386
2.23458
1
1
1
1
1
1
1
1
1
1
1
1
1
1
1
1
1
1
1
1
1
1
1
1
1
1
1
1
1
1
1
1
1
1
1
1
1
1
1
1
1
1
1
1
1
1
1
1
1
1
1
1
1
1
1
1
1
1
1
1
1
1
1
1
1
1.00005
1.02738
1.59103
2.25554
2.34022
2.33722
2.33603
2.33575
2.33589
2.33626
2.33624
2.33582
2.33475
2.33298
2.33058
2.32763
2.32418
2.32026
2.3159
2.31101
2.30559
2.29963
2.29315
2.28628
2.27898
2.27133
2.26319
2.25458
2.24559
2.23675
2.22826
1
1
1
1
1
1
1
1
1
1
1
1
1
1
1
1
1
1
1
1
1
1
1
1
1
1
1
1
1
1
1
1
1
1
1
1
1
1
1
1
1
1
1
1
1
1
1
1
1
1
1
1
1
1
1
1
1
1
1
1
1
1
1
1
1
1
1.0001
1.03913
1.61701
2.25137
2.32777
2.32515
2.32315
2.32169
2.32054
2.31947
2.31831
2.31692
2.31533
2.31351
2.31137
2.30885
2.30587
2.30237
2.29824
2.29348
2.2881
2.28217
2.27578
2.26897
2.26176
2.25403
2.24606
2.2377
2.22948
2.2214
1
1
1
1
1
1
1
1
1
1
1
1
1
1
1
1
1
1
1
1
1
1
1
1
1
1
1
1
1
1
1
1
1
1
1
1
1
1
1
1
1
1
1
1
1
1
1
1
1
1
1
1
1
1
1
1
1
1
1
1
1
1
1
1
1
1
1
1.00018
1.04505
1.6084
2.23684
2.3173
2.31495
2.31264
2.30993
2.30713
2.30434
2.30154
2.2989
2.29651
2.29425
2.29196
2.28949
2.28667
2.28334
2.27944
2.27493
2.26985
2.26426
2.25822
2.25168
2.24464
2.2373
2.22965
2.22201
2.21435
1
1
1
1
1
1
1
1
1
1
1
1
1
1
1
1
1
1
1
1
1
1
1
1
1
1
1
1
1
1
1
1
1
1
1
1
1
1
1
1
1
1
1
1
1
1
1
1
1
1
1
1
1
1
1
1
1
1
1
1
1
1
1
1
1
1
1
1
1.00023
1.04395
1.59432
2.21708
2.30599
2.30438
2.30102
2.29762
2.29373
2.28999
2.28634
2.28276
2.27946
2.27642
2.2735
2.27054
2.2674
2.26396
2.26014
2.25592
2.25124
2.24612
2.24049
2.23436
2.22784
2.22105
2.21404
2.20696
1
1
1
1
1
1
1
1
1
1
1
1
1
1
1
1
1
1
1
1
1
1
1
1
1
1
1
1
1
1
1
1
1
1
1
1
1
1
1
1
1
1
1
1
1
1
1
1
1
1
1
1
1
1
1
1
1
1
1
1
1
1
1
1
1
1
1
1
1
1.00022
1.04128
1.56671
2.18932
2.29336
2.2926
2.28886
2.28501
2.28085
2.27677
2.2726
2.2684
2.2643
2.26032
2.25645
2.25267
2.24889
2.24508
2.24115
2.237
2.23259
2.22781
2.22262
2.21707
2.21118
2.20504
2.19863
1
1
1
1
1
1
1
1
1
1
1
1
1
1
1
1
1
1
1
1
1
1
1
1
1
1
1
1
1
1
1
1
1
1
1
1
1
1
1
1
1
1
1
1
1
1
1
1
1
1
1
1
1
1
1
1
1
1
1
1
1
1
1
1
1
1
1
1
1
1
1.0002
1.03613
1.52365
2.15211
2.27684
2.27977
2.27611
2.27268
2.26862
2.26436
2.25985
2.25516
2.2504
2.24566
2.24101
2.23647
2.23206
2.22775
2.22347
2.21919
2.21475
2.21015
2.20525
2.20011
2.19474
2.18906
1
1
1
1
1
1
1
1
1
1
1
1
1
1
1
1
1
1
1
1
1
1
1
1
1
1
1
1
1
1
1
1
1
1
1
1
1
1
1
1
1
1
1
1
1
1
1
1
1
1
1
1
1
1
1
1
1
1
1
1
1
1
1
1
1
1
1
1
1
1
1
1.00017
1.02897
1.46671
2.09932
2.25434
2.26811
2.26408
2.26053
2.25635
2.25194
2.24721
2.24227
2.23723
2.23213
2.22708
2.2221
2.21728
2.21253
2.20791
2.20327
2.19863
2.19385
2.18893
2.18369
2.17812
1
1
1
1
1
1
1
1
1
1
1
1
1
1
1
1
1
1
1
1
1
1
1
1
1
1
1
1
1
1
1
1
1
1
1
1
1
1
1
1
1
1
1
1
1
1
1
1
1
1
1
1
1
1
1
1
1
1
1
1
1
1
1
1
1
1
1
1
1
1
1
1
1.00012
1.02126
1.39509
2.02281
2.22763
2.25689
2.25047
2.24695
2.24308
2.23889
2.23444
2.22971
2.22483
2.21983
2.21479
2.20973
2.20469
2.19961
2.1946
2.18933
2.1841
2.1785
2.17313
2.16727
1
1
1
1
1
1
1
1
1
1
1
1
1
1
1
1
1
1
1
1
1
1
1
1
1
1
1
1
1
1
1
1
1
1
1
1
1
1
1
1
1
1
1
1
1
1
1
1
1
1
1
1
1
1
1
1
1
1
1
1
1
1
1
1
1
1
1
1
1
1
1
1
1
1.00008
1.01395
1.31047
1.91509
2.19656
2.23955
2.23478
2.23263
2.22996
2.22667
2.22283
2.21861
2.21409
2.20935
2.2044
2.19933
2.194
2.18842
2.18254
2.17658
2.17037
2.16477
2.1595
1
1
1
1
1
1
1
1
1
1
1
1
1
1
1
1
1
1
1
1
1
1
1
1
1
1
1
1
1
1
1
1
1
1
1
1
1
1
1
1
1
1
1
1
1
1
1
1
1
1
1
1
1
1
1
1
1
1
1
1
1
1
1
1
1
1
1
1
1
1
1
1
1
1
1.00004
1.00806
1.2167
1.79013
2.15292
2.2187
2.21768
2.21713
2.21523
2.21299
2.21014
2.20665
2.20278
2.19839
2.19341
2.18811
2.18237
2.17619
2.17149
2.16753
2.16859
2.17522
1
1
1
1
1
1
1
1
1
1
1
1
1
1
1
1
1
1
1
1
1
1
1
1
1
1
1
1
1
1
1
1
1
1
1
1
1
1
1
1
1
1
1
1
1
1
1
1
1
1
1
1
1
1
1
1
1
1
1
1
1
1
1
1
1
1
1
1
1
1
1
1
1
1
1
1.00002
1.00393
1.13386
1.6555
2.10193
2.19049
2.20097
2.19816
2.19786
2.19696
2.19528
2.19266
2.18901
2.18509
2.18056
2.17602
2.17669
2.17924
2.19369
2.22116
2.26272
1
1
1
1
1
1
1
1
1
1
1
1
1
1
1
1
1
1
1
1
1
1
1
1
1
1
1
1
1
1
1
1
1
1
1
1
1
1
1
1
1
1
1
1
1
1
1
1
1
1
1
1
1
1
1
1
1
1
1
1
1
1
1
1
1
1
1
1
1
1
1
1
1
1
1
1
1.00001
1.00164
1.07279
1.52419
2.02658
2.15877
2.18925
2.18136
2.18165
2.17984
2.1779
2.1753
2.17496
2.17787
2.18831
2.21263
2.25213
2.29994
2.33827
2.36355
1
1
1
1
1
1
1
1
1
1
1
1
1
1
1
1
1
1
1
1
1
1
1
1
1
1
1
1
1
1
1
1
1
1
1
1
1
1
1
1
1
1
1
1
1
1
1
1
1
1
1
1
1
1
1
1
1
1
1
1
1
1
1
1
1
1
1
1
1
1
1
1
1
1
1
1
1
1
1.00059
1.0355
1.3902
1.91265
2.13136
2.16973
2.16521
2.16011
2.1619
2.16779
2.18841
2.22569
2.2761
2.32446
2.36637
2.38882
2.39709
2.39273
1
1
1
1
1
1
1
1
1
1
1
1
1
1
1
1
1
1
1
1
1
1
1
1
1
1
1
1
1
1
1
1
1
1
1
1
1
1
1
1
1
1
1
1
1
1
1
1
1
1
1
1
1
1
1
1
1
1
1
1
1
1
1
1
1
1
1
1
1
1
1
1
1
1
1
1
1
1
1
1.00018
1.01544
1.25425
1.76112
2.09573
2.14028
2.1618
2.18705
2.23378
2.29097
2.34319
2.37393
2.38862
2.39606
2.38892
2.38253
2.37665
1
1
1
1
1
1
1
1
1
1
1
1
1
1
1
1
1
1
1
1
1
1
1
1
1
1
1
1
1
1
1
1
1
1
1
1
1
1
1
1
1
1
1
1
1
1
1
1
1
1
1
1
1
1
1
1
1
1
1
1
1
1
1
1
1
1
1
1
1
1
1
1
1
1
1
1
1
1
1
1
1.00005
1.00575
1.13646
1.60716
1.99244
2.23753
2.3116
2.35747
2.38082
2.39407
2.39033
2.38563
2.38293
2.37639
2.36744
2.35905
1
1
1
1
1
1
1
1
1
1
1
1
1
1
1
1
1
1
1
1
1
1
1
1
1
1
1
1
1
1
1
1
1
1
1
1
1
1
1
1
1
1
1
1
1
1
1
1
1
1
1
1
1
1
1
1
1
1
1
1
1
1
1
1
1
1
1
1
1
1
1
1
1
1
1
1
1
1
1
1
1
1.00001
1.00186
1.05956
1.72932
2.50104
2.49348
2.46966
2.45035
2.43636
2.42094
2.40497
2.39219
2.37883
2.3669
2.35875
1
1
1
1
1
1
1
1
1
1
1
1
1
1
1
1
1
1
1
1
1
1
1
1
1
1
1
1
1
1
1
1
1
1
1
1
1
1
1
1
1
1
1
1
1
1
1
1
1
1
1
1
1
1
1
1
1
1
1
1
1
1
1
1
1
1
1
1
1
1
1
1
1
1
1
1
1
1
1
1
1
1
1
1.00045
1.72569
2.67139
2.63754
2.5852
2.53963
2.50216
2.47106
2.44475
2.42334
2.40495
2.392
2.38236
1
1
1
1
1
1
1
1
1
1
1
1
1
1
1
1
1
1
1
1
1
1
1
1
1
1
1
1
1
1
1
1
1
1
1
1
1
1
1
1
1
1
1
1
1
1
1
1
1
1
1
1
1
1
1
1
1
1
1
1
1
1
1
1
1
1
1
1
1
1
1
1
1
1
1
1
1
1
1
1
1
1
1
1
1.49301
2.59627
2.69665
2.67368
2.64774
2.61441
2.58183
2.55088
2.52284
2.49711
2.47445
2.45363
1
1
1
1
1
1
1
1
1
1
1
1
1
1
1
1
1
1
1
1
1
1
1
1
1
1
1
1
1
1
1
1
1
1
1
1
1
1
1
1
1
1
1
1
1
1
1
1
1
1
1
1
1
1
1
1
1
1
1
1
1
1
1
1
1
1
1
1
1
1
1
1
1
1
1
1
1
1
1
1
1
1
1
1
1.14465
2.40641
2.69878
2.69468
2.68832
2.67492
2.65853
2.6376
2.61504
2.59097
2.56574
2.53996
1
1
1
1
1
1
1
1
1
1
1
1
1
1
1
1
1
1
1
1
1
1
1
1
1
1
1
1
1
1
1
1
1
1
1
1
1
1
1
1
1
1
1
1
1
1
1
1
1
1
1
1
1
1
1
1
1
1
1
1
1
1
1
1
1
1
1
1
1
1
1
1
1
1
1
1
1
1
1
1
1
1
1
1
1.00212
2.15506
2.68169
2.69133
2.68811
2.68438
2.67931
2.67218
2.66281
2.65074
2.63593
2.61923
1
1
1
1
1
1
1
1
1
1
1
1
1
1
1
1
1
1
1
1
1
1
1
1
1
1
1
1
1
1
1
1
1
1
1
1
1
1
1
1
1
1
1
1
1
1
1
1
1
1
1
1
1
1
1
1
1
1
1
1
1
1
1
1
1
1
1
1
1
1
1
1
1
1
1
1
1
1
1
1
1
1
1
1
1
1.86399
2.62152
2.6829
2.67967
2.67805
2.67497
2.67116
2.66709
2.66276
2.65755
2.65109
1
1
1
1
1
1
1
1
1
1
1
1
1
1
1
1
1
1
1
1
1
1
1
1
1
1
1
1
1
1
1
1
1
1
1
1
1
1
1
1
1
1
1
1
1
1
1
1
1
1
1
1
1
1
1
1
1
1
1
1
1
1
1
1
1
1
1
1
1
1
1
1
1
1
1
1
1
1
1
1
1
1
1
1
1
1.50304
2.52255
2.67519
2.67121
2.67062
2.66971
2.66852
2.66664
2.66426
2.66149
2.65817
1
1
1
1
1
1
1
1
1
1
1
1
1
1
1
1
1
1
1
1
1
1
1
1
1
1
1
1
1
1
1
1
1
1
1
1
1
1
1
1
1
1
1
1
1
1
1
1
1
1
1
1
1
1
1
1
1
1
1
1
1
1
1
1
1
1
1
1
1
1
1
1
1
1
1
1
1
1
1
1
1
1
1
1
1
1.12012
2.3705
2.6769
2.67267
2.66946
2.66723
2.6655
2.66393
2.66213
2.65991
2.65733
1
1
1
1
1
1
1
1
1
1
1
1
1
1
1
1
1
1
1
1
1
1
1
1
1
1
1
1
1
1
1
1
1
1
1
1
1
1
1
1
1
1
1
1
1
1
1
1
1
1
1
1
1
1
1
1
1
1
1
1
1
1
1
1
1
1
1
1
1
1
1
1
1
1
1
1
1
1
1
1
1
1
1
1
1
1.00131
2.1984
2.6757
2.67634
2.67302
2.67069
2.6679
2.66527
2.66269
2.66015
2.65762
1
1
1
1
1
1
1
1
1
1
1
1
1
1
1
1
1
1
1
1
1
1
1
1
1
1
1
1
1
1
1
1
1
1
1
1
1
1
1
1
1
1
1
1
1
1
1
1
1
1
1
1
1
1
1
1
1
1
1
1
1
1
1
1
1
1
1
1
1
1
1
1
1
1
1
1
1
1
1
1
1
1
1
1
1
1
1.97716
2.6517
2.6806
2.67655
2.67381
2.67032
2.66699
2.66366
2.66058
2.65768
1
1
1
1
1
1
1
1
1
1
1
1
1
1
1
1
1
1
1
1
1
1
1
1
1
1
1
1
1
1
1
1
1
1
1
1
1
1
1
1
1
1
1
1
1
1
1
1
1
1
1
1
1
1
1
1
1
1
1
1
1
1
1
1
1
1
1
1
1
1
1
1
1
1
1
1
1
1
1
1
1
1
1
1
1
1
1.71223
2.59525
2.6825
2.67759
2.67492
2.67153
2.6682
2.66477
2.66157
2.65845
1
1
1
1
1
1
1
1
1
1
1
1
1
1
1
1
1
1
1
1
1
1
1
1
1
1
1
1
1
1
1
1
1
1
1
1
1
1
1
1
1
1
1
1
1
1
1
1
1
1
1
1
1
1
1
1
1
1
1
1
1
1
1
1
1
1
1
1
1
1
1
1
1
1
1
1
1
1
1
1
1
1
1
1
1
1
1.41947
2.50627
2.6811
2.67634
2.67408
2.67126
2.66829
2.66524
2.66236
2.65944
1
1
1
1
1
1
1
1
1
1
1
1
1
1
1
1
1
1
1
1
1
1
1
1
1
1
1
1
1
1
1
1
1
1
1
1
1
1
1
1
1
1
1
1
1
1
1
1
1
1
1
1
1
1
1
1
1
1
1
1
1
1
1
1
1
1
1
1
1
1
1
1
1
1
1
1
1
1
1
1
1
1
1
1
1
1
1.16794
2.3999
2.68426
2.67878
2.67518
2.67223
2.66934
2.66654
2.66395
2.6613
1
1
1
1
1
1
1
1
1
1
1
1
1
1
1
1
1
1
1
1
1
1
1
1
1
1
1
1
1
1
1
1
1
1
1
1
1
1
1
1
1
1
1
1
1
1
1
1
1
1
1
1
1
1
1
1
1
1
1
1
1
1
1
1
1
1
1
1
1
1
1
1
1
1
1
1
1
1
1
1
1
1
1
1
1
1
1.00345
2.27467
2.68427
2.68373
2.67889
2.67611
2.67308
2.67021
2.66754
2.66487
1
1
1
1
1
1
1
1
1
1
1
1
1
1
1
1
1
1
1
1
1
1
1
1
1
1
1
1
1
1
1
1
1
1
1
1
1
1
1
1
1
1
1
1
1
1
1
1
1
1
1
1
1
1
1
1
1
1
1
1
1
1
1
1
1
1
1
1
1
1
1
1
1
1
1
1
1
1
1
1
1
1
1
1
1
1
1
2.13273
2.67429
2.68641
2.68212
2.67966
2.67671
2.67387
2.67115
2.66839
1
1
1
1
1
1
1
1
1
1
1
1
1
1
1
1
1
1
1
1
1
1
1
1
1
1
1
1
1
1
1
1
1
1
1
1
1
1
1
1
1
1
1
1
1
1
1
1
1
1
1
1
1
1
1
1
1
1
1
1
1
1
1
1
1
1
1
1
1
1
1
1
1
1
1
1
1
1
1
1
1
1
1
1
1
1
1
1.97637
2.65422
2.6906
2.68586
2.68344
2.68049
2.67759
2.67463
2.67158
1
1
1
1
1
1
1
1
1
1
1
1
1
1
1
1
1
1
1
1
1
1
1
1
1
1
1
1
1
1
1
1
1
1
1
1
1
1
1
1
1
1
1
1
1
1
1
1
1
1
1
1
1
1
1
1
1
1
1
1
1
1
1
1
1
1
1
1
1
1
1
1
1
1
1
1
1
1
1
1
1
1
1
1
1
1
1
1.821
2.62808
2.69384
2.68789
2.68504
2.68183
2.6787
2.67548
2.67219
1
1
1
1
1
1
1
1
1
1
1
1
1
1
1
1
1
1
1
1
1
1
1
1
1
1
1
1
1
1
1
1
1
1
1
1
1
1
1
1
1
1
1
1
1
1
1
1
1
1
1
1
1
1
1
1
1
1
1
1
1
1
1
1
1
1
1
1
1
1
1
1
1
1
1
1
1
1
1
1
1
1
1
1
1
1
1
1.66544
2.59994
2.69507
2.68881
2.6858
2.68249
2.67926
2.6759
2.67248
1
1
1
1
1
1
1
1
1
1
1
1
1
1
1
1
1
1
1
1
1
1
1
1
1
1
1
1
1
1
1
1
1
1
1
1
1
1
1
1
1
1
1
1
1
1
1
1
1
1
1
1
1
1
1
1
1
1
1
1
1
1
1
1
1
1
1
1
1
1
1
1
1
1
1
1
1
1
1
1
1
1
1
1
1
1
1
1.5266
2.56396
2.69593
2.68984
2.6866
2.68313
2.67973
2.67623
2.67275
1
1
1
1
1
1
1
1
1
1
1
1
1
1
1
1
1
1
1
1
1
1
1
1
1
1
1
1
1
1
1
1
1
1
1
1
1
1
1
1
1
1
1
1
1
1
1
1
1
1
1
1
1
1
1
1
1
1
1
1
1
1
1
1
1
1
1
1
1
1
1
1
1
1
1
1
1
1
1
1
1
1
1
1
1
1
1
1.41447
2.52638
2.69591
2.69051
2.68708
2.68341
2.6798
2.67612
2.67257
1
1
1
1
1
1
1
1
1
1
1
1
1
1
1
1
1
1
1
1
1
1
1
1
1
1
1
1
1
1
1
1
1
1
1
1
1
1
1
1
1
1
1
1
1
1
1
1
1
1
1
1
1
1
1
1
1
1
1
1
1
1
1
1
1
1
1
1
1
1
1
1
1
1
1
1
1
1
1
1
1
1
1
1
1
1
1
1.32521
2.48904
2.69461
2.69016
2.68664
2.68277
2.6791
2.6756
2.67235
1
1
1
1
1
1
1
1
1
1
1
1
1
1
1
1
1
1
1
1
1
1
1
1
1
1
1
1
1
1
1
1
1
1
1
1
1
1
1
1
1
1
1
1
1
1
1
1
1
1
1
1
1
1
1
1
1
1
1
1
1
1
1
1
1
1
1
1
1
1
1
1
1
1
1
1
1
1
1
1
1
1
1
1
1
1
1
1.25478
2.45372
2.69242
2.68871
2.6851
2.68151
2.67836
2.67551
2.67277
1
1
1
1
1
1
1
1
1
1
1
1
1
1
1
1
1
1
1
1
1
1
1
1
1
1
1
1
1
1
1
1
1
1
1
1
1
1
1
1
1
1
1
1
1
1
1
1
1
1
1
1
1
1
1
1
1
1
1
1
1
1
1
1
1
1
1
1
1
1
1
1
1
1
1
1
1
1
1
1
1
1
1
1
1
1
1
1.19823
2.4201
2.69058
2.68722
2.68329
2.6804
2.678
2.67591
2.6738
1
1
1
1
1
1
1
1
1
1
1
1
1
1
1
1
1
1
1
1
1
1
1
1
1
1
1
1
1
1
1
1
1
1
1
1
1
1
1
1
1
1
1
1
1
1
1
1
1
1
1
1
1
1
1
1
1
1
1
1
1
1
1
1
1
1
1
1
1
1
1
1
1
1
1
1
1
1
1
1
1
1
1
1
1
1
1
1.14652
2.38476
2.68902
2.68556
2.68178
2.68076
2.67974
2.67836
2.67637
1
1
1
1
1
1
1
1
1
1
1
1
1
1
1
1
1
1
1
1
1
1
1
1
1
1
1
1
1
1
1
1
1
1
1
1
1
1
1
1
1
1
1
1
1
1
1
1
1
1
1
1
1
1
1
1
1
1
1
1
1
1
1
1
1
1
1
1
1
1
1
1
1
1
1
1
1
1
1
1
1
1
1
1
1
1
1
1.09356
2.35178
2.68969
2.68709
2.68406
2.68375
2.68275
2.68088
2.67833
1
1
1
1
1
1
1
1
1
1
1
1
1
1
1
1
1
1
1
1
1
1
1
1
1
1
1
1
1
1
1
1
1
1
1
1
1
1
1
1
1
1
1
1
1
1
1
1
1
1
1
1
1
1
1
1
1
1
1
1
1
1
1
1
1
1
1
1
1
1
1
1
1
1
1
1
1
1
1
1
1
1
1
1
1
1
1
1.05984
2.34213
2.68972
2.68827
2.68656
2.68618
2.68462
2.6822
2.67936
1.49103
0.757727
0.596407
0.799126
0.907527
1.01243
1.0876
1.17648
1.17917
1.17389
1.18823
1.2693
1.40432
1.5378
1.56547
1.55561
1.53746
1.53863
1.55165
1.59187
1.62725
1.62392
1.59615
1.57814
1.579
1.58764
1.60586
1.62198
1.62464
1.62268
1.61783
1.61442
1.61538
1.62313
1.63508
1.64192
1.6439
1.64334
1.64128
1.64003
1.63952
1.64052
1.64003
1.64257
1.66232
1.73899
1.89556
2.12118
2.44758
2.5447
2.55208
2.55794
2.55801
2.56148
2.56423
2.56462
2.56394
2.56368
2.56268
2.56056
2.55951
2.55813
2.5558