/*--------------------------------*- C++ -*----------------------------------*\
  =========                 |
  \\      /  F ield         | OpenFOAM: The Open Source CFD Toolbox
   \\    /   O peration     | Website:  https://openfoam.org
    \\  /    A nd           | Version:  7
     \\/     M anipulation  |
\*---------------------------------------------------------------------------*/
FoamFile
{
    version     2.0;
    format      ascii;
    class       volScalarField;
    location    "3.89";
    object      T;
}
// * * * * * * * * * * * * * * * * * * * * * * * * * * * * * * * * * * * * * //

dimensions      [0 0 0 1 0 0 0];

internalField   nonuniform List<scalar> 
1000
(
0
0
0
0
0
0
0
0
0
0
0
0
0
0
0
0
0
0
0
0
0
0
0
0
0
0
0
0
0
0
0
0
0
0
0
0
0
0
0
0
0
0
0
0
0
0
0
0
0
0
0
0
0
0
0
0
0
0
0
0
0
0
0
0
0
0
0
0
0
0
0
0
0
-3.45846e-323
6.64024e-321
-9.81802e-319
1.30346e-316
-1.57502e-314
1.74872e-312
-1.79741e-310
1.72066e-308
-1.54189e-306
1.29887e-304
-1.03233e-302
7.76588e-301
-5.54485e-299
3.76697e-297
-2.44037e-295
1.51059e-293
-8.95036e-292
5.08455e-290
-2.77352e-288
1.45469e-286
-7.34557e-285
3.57519e-283
-1.67905e-281
7.61659e-280
-3.34037e-278
1.41759e-276
-5.82618e-275
2.32077e-273
-8.96628e-272
3.36218e-270
-1.22444e-268
4.33344e-267
-1.49126e-265
4.99274e-264
-1.6271e-262
5.16413e-261
-1.59694e-259
4.81378e-258
-1.41505e-256
4.05812e-255
-1.13583e-253
3.10381e-252
-8.28378e-251
2.16003e-249
-5.50461e-248
1.37141e-246
-3.34126e-245
7.96305e-244
-1.85692e-242
4.23804e-241
-9.46903e-240
2.07166e-238
-4.43922e-237
9.31889e-236
-1.91684e-234
3.86421e-233
-7.63616e-232
1.47949e-230
-2.81091e-229
5.23794e-228
-9.57467e-227
1.71715e-225
-3.0219e-224
5.2192e-223
-8.84798e-222
1.47251e-220
-2.40606e-219
3.86047e-218
-6.08294e-217
9.41407e-216
-1.43113e-214
2.1373e-213
-3.13604e-212
4.52133e-211
-6.40562e-210
8.91876e-209
-1.22048e-207
1.64164e-206
-2.17057e-205
2.82132e-204
-3.60528e-203
4.52963e-202
-5.59561e-201
6.79699e-200
-8.1188e-199
9.53658e-198
-1.10163e-196
1.25153e-195
-1.39835e-194
1.53667e-193
-1.66089e-192
1.76565e-191
-1.84622e-190
1.8988e-189
-1.92085e-188
1.91132e-187
-1.87065e-186
1.80081e-185
-1.70514e-184
1.58802e-183
-1.45463e-182
1.31048e-181
-1.16114e-180
1.01179e-179
-8.67027e-179
7.30618e-178
-6.05394e-177
4.93229e-176
-3.95086e-175
3.11124e-174
-2.40844e-173
1.83257e-172
-1.37043e-171
1.00713e-170
-7.27248e-170
5.15936e-169
-3.59551e-168
2.46097e-167
-1.65409e-166
1.09153e-165
-7.0705e-165
4.4947e-164
-2.80338e-163
1.71506e-162
-1.02887e-161
6.05052e-161
-3.48671e-160
1.96817e-159
-1.08778e-158
5.88363e-158
-3.1127e-157
1.60974e-156
-8.13204e-156
4.00986e-155
-1.92821e-154
9.03281e-154
-4.11719e-153
1.82329e-152
-7.83119e-152
3.25516e-151
-1.30589e-150
5.03845e-150
-1.86069e-149
6.53322e-149
-2.15916e-148
6.60673e-148
-1.81499e-147
4.16915e-147
-6.18033e-147
-7.00083e-147
1.08798e-145
-5.80062e-145
2.30314e-144
-7.47788e-144
1.9582e-143
-3.55736e-143
2.0159e-144
3.50217e-142
-1.97089e-141
7.34972e-141
-2.04518e-140
3.76811e-140
-4.68441e-142
-3.64091e-139
1.90336e-138
-6.32723e-138
1.41625e-137
-1.16624e-137
-7.47233e-137
4.77685e-136
-1.6415e-135
3.53972e-135
-1.93193e-135
-2.29551e-134
1.24716e-133
-3.71519e-133
5.91975e-133
5.98189e-133
-7.86256e-132
2.95991e-131
-6.16436e-131
1.28628e-131
4.70544e-130
-2.10243e-129
4.85035e-129
-2.52793e-129
-2.99151e-128
1.42134e-127
-3.24731e-127
1.30431e-127
2.11546e-126
-9.25394e-126
1.86051e-125
2.84483e-126
-1.57358e-124
5.61558e-124
-8.3552e-124
-1.3121e-123
1.113e-122
-2.94677e-122
1.8905e-122
1.56691e-121
-6.7921e-121
1.13642e-120
1.21758e-120
-1.23992e-119
3.17439e-119
-1.27649e-119
-1.88415e-118
6.8852e-118
-8.1157e-118
-2.37155e-117
1.29799e-116
-2.26441e-116
-2.27157e-116
2.23949e-115
-4.9784e-115
-9.51069e-116
3.65799e-114
-9.67267e-114
2.36526e-114
5.8132e-113
-1.73919e-112
8.36944e-113
9.1979e-112
-2.96117e-111
1.70974e-111
1.47306e-110
-4.82616e-110
2.67027e-110
2.40205e-109
-7.54518e-109
3.11771e-109
3.96343e-108
-1.12497e-107
1.67399e-108
6.51416e-107
-1.57643e-106
-4.26807e-107
1.04466e-105
-2.01947e-105
-1.88681e-105
1.59793e-104
-2.23475e-104
-4.75075e-104
2.27272e-103
-1.82037e-103
-9.49419e-103
2.90548e-102
-2.01307e-103
-1.61054e-101
3.14439e-101
3.2056e-101
-2.34262e-100
2.44842e-100
8.58331e-100
-2.85172e-99
2.42628e-100
1.50897e-98
-2.66784e-98
-3.69705e-98
2.0311e-97
-1.29955e-97
-8.69442e-97
2.04189e-96
1.41537e-96
-1.27863e-95
1.17304e-95
4.87286e-95
-1.30636e-94
-6.28723e-95
7.51504e-94
-7.17957e-94
-2.80411e-93
7.3306e-93
4.3346e-93
-4.18793e-92
3.17769e-92
1.65579e-91
-3.57869e-91
-3.72099e-91
2.16748e-90
-7.32969e-91
-9.51897e-90
1.4156e-89
2.9447e-89
-9.84348e-89
-3.35758e-89
4.93619e-88
-3.47685e-88
-1.92995e-87
3.48794e-87
5.46742e-87
-2.10022e-86
-5.3801e-87
9.94071e-86
-6.3688e-86
-3.88156e-85
6.10628e-85
1.20919e-84
-3.65967e-84
-2.39964e-84
1.7775e-83
-2.9788e-84
-7.44251e-83
6.60541e-83
2.71631e-82
-4.65317e-82
-8.40556e-82
2.49987e-81
1.9542e-81
-1.16121e-80
-1.23753e-81
4.86661e-80
-2.20276e-80
-1.87208e-79
1.87606e-79
6.63854e-79
-1.08162e-78
-2.15481e-78
5.30546e-78
6.24306e-78
-2.36505e-77
-1.5001e-77
9.8657e-77
2.17157e-77
-3.91376e-76
4.96628e-77
1.4918e-75
-6.5269e-76
-5.50409e-75
4.01288e-75
1.97725e-74
-2.00034e-74
-6.95113e-74
8.97153e-74
2.40307e-73
-3.76603e-73
-8.20918e-73
1.50885e-72
2.78506e-72
-5.83474e-72
-9.43228e-72
2.19296e-71
3.20518e-71
-8.04655e-71
-1.09778e-70
2.89044e-70
3.80255e-70
-1.01799e-69
-1.33433e-69
3.51648e-69
4.74157e-69
-1.19062e-68
-1.70235e-68
3.94409e-68
6.15148e-68
-1.27421e-67
-2.22675e-67
3.9944e-67
8.03401e-67
-1.20531e-66
-2.87471e-66
3.45501e-66
1.01525e-65
-9.18486e-66
-3.52248e-65
2.14959e-65
1.19504e-64
-3.77843e-65
-3.94434e-64
6.47528e-66
1.25896e-63
3.77114e-64
-3.85578e-63
-2.50369e-63
1.12042e-62
1.19284e-62
-3.03286e-62
-4.88424e-62
7.38483e-62
1.80912e-61
-1.48473e-61
-6.17278e-61
1.70963e-61
1.94752e-60
4.15839e-61
-5.64364e-60
-4.07874e-60
1.4717e-59
1.98521e-59
-3.28275e-59
-7.65344e-59
5.33108e-59
2.54317e-58
-6.3282e-60
-7.41632e-58
-4.33335e-58
1.86678e-57
2.42338e-57
-3.77622e-57
-9.37594e-57
4.46481e-57
2.95354e-56
7.78538e-57
-7.74449e-56
-7.6918e-56
1.60182e-55
3.31239e-55
-1.96218e-55
-1.06178e-54
-2.76226e-55
2.69185e-54
2.88009e-54
-5.0121e-54
-1.18728e-53
3.76516e-54
3.50888e-53
1.95336e-53
-7.70798e-53
-1.18787e-52
1.00498e-52
4.03509e-52
9.73284e-53
-9.72267e-52
-1.14879e-51
1.47102e-51
4.37375e-51
3.41609e-52
-1.09845e-50
-1.15542e-50
1.68855e-50
4.63609e-50
3.35892e-51
-1.14645e-49
-1.25839e-49
1.60078e-49
4.84567e-49
1.07994e-49
-1.10035e-48
-1.45189e-48
1.1692e-48
4.88842e-48
2.49985e-48
-9.29605e-48
-1.66105e-47
4.00643e-48
4.52857e-47
4.24611e-47
-6.09416e-47
-1.74696e-46
-5.90178e-47
3.51812e-46
5.65384e-46
-1.60276e-46
-1.55146e-45
-1.52767e-45
1.80415e-45
5.89123e-45
3.14449e-45
-9.95108e-45
-2.0157e-44
-2.54474e-45
4.40543e-44
6.35815e-44
-1.92521e-44
-1.73851e-43
-1.87461e-43
1.51435e-43
6.39359e-43
5.22029e-43
-7.57456e-43
-2.24809e-42
-1.38946e-42
3.20333e-42
7.69203e-42
3.60849e-42
-1.2354e-41
-2.595e-41
-9.52618e-42
4.48363e-41
8.71525e-41
2.73719e-41
-1.55401e-40
-2.93129e-40
-9.15689e-41
5.17202e-40
9.8924e-40
3.5792e-40
-1.65005e-39
-3.34202e-39
-1.53331e-39
4.99756e-39
1.12322e-38
6.71735e-39
-1.40544e-38
-3.71893e-38
-2.88477e-38
3.49069e-38
1.19688e-37
1.18914e-37
-6.60346e-38
-3.6761e-37
-4.65121e-37
2.38274e-38
1.04789e-36
1.7098e-36
6.23449e-37
-2.63203e-36
-5.83368e-36
-4.33359e-36
5.07814e-36
1.80935e-35
2.057e-35
-2.82166e-36
-4.89614e-35
-8.03004e-35
-3.77284e-35
1.04079e-34
2.6639e-34
2.5687e-34
-1.0289e-34
-7.31736e-34
-1.11311e-33
-4.83608e-34
1.46864e-33
3.72959e-33
3.80043e-33
-8.08382e-34
-9.52394e-33
-1.61481e-32
-1.03416e-32
1.44249e-32
4.91088e-32
6.32687e-32
1.7967e-32
-9.81687e-32
-2.2693e-31
-2.3371e-31
2.06872e-32
5.29056e-31
9.92818e-31
8.46831e-31
-4.00999e-31
-2.56048e-30
-4.25454e-30
-3.15565e-30
2.53807e-30
1.16685e-29
1.8262e-29
1.27199e-29
-1.20961e-29
-5.10818e-29
-7.94279e-29
-5.71328e-29
4.69824e-29
2.1559e-28
3.50005e-28
2.8221e-28
-1.35089e-28
-8.67272e-28
-1.5446e-27
-1.46573e-27
9.03162e-29
3.22139e-27
6.67843e-27
7.62394e-27
2.56051e-27
-1.02306e-26
-2.73681e-26
-3.81497e-26
-2.64037e-26
2.11573e-26
1.0069e-25
1.77123e-25
1.81932e-25
3.6228e-26
-2.94755e-25
-7.28679e-25
-1.01447e-24
-7.63459e-25
3.80218e-25
2.42583e-24
4.67923e-24
5.57185e-24
2.98487e-24
-4.69114e-24
-1.68278e-23
-2.87762e-23
-3.12686e-23
-1.25856e-23
3.53684e-23
1.07572e-22
1.76292e-22
1.87923e-22
7.46781e-23
-2.12423e-22
-6.50828e-22
-1.09001e-21
-1.22498e-21
-6.46075e-22
9.9341e-22
3.68522e-21
6.71506e-21
8.41624e-21
6.28277e-21
-2.28036e-21
-1.84122e-20
-3.96236e-20
-5.76924e-20
-5.7941e-20
-2.16547e-20
6.67321e-20
2.07215e-19
3.6859e-19
4.7533e-19
4.06717e-19
2.05285e-20
-7.87979e-19
-1.98967e-18
-3.30326e-18
-4.0967e-18
-3.37897e-18
2.64281e-20
7.04008e-18
1.75833e-17
2.96149e-17
3.82154e-17
3.52125e-17
1.00535e-17
-4.72955e-17
-1.40848e-16
-2.60571e-16
-3.73133e-16
-4.14486e-16
-2.89424e-16
1.14986e-16
8.94684e-16
2.06736e-15
3.48563e-15
4.73715e-15
5.06137e-15
3.33359e-15
-1.81238e-15
-1.16397e-14
-2.66674e-14
-4.5702e-14
-6.46076e-14
-7.50372e-14
-6.35752e-14
-1.20046e-14
1.00317e-13
2.90822e-13
5.63757e-13
8.95249e-13
1.21393e-12
1.37958e-12
1.16519e-12
2.51737e-13
-1.75031e-12
-5.23444e-12
-1.04646e-11
-1.73535e-11
-2.5137e-11
-3.1947e-11
-3.43133e-11
-2.66771e-11
-1.06845e-12
5.28023e-11
1.46671e-10
2.91564e-10
4.9373e-10
7.47934e-10
1.02739e-09
1.26976e-09
1.35898e-09
1.10367e-09
2.13986e-10
-1.71887e-09
-5.23324e-09
-1.09858e-08
-1.97006e-08
-3.20526e-08
-4.8448e-08
-6.86524e-08
-9.12006e-08
-1.125e-07
-1.2552e-07
-1.17933e-07
-6.95303e-08
5.12677e-08
2.92067e-07
7.22577e-07
1.44243e-06
2.59109e-06
4.36023e-06
7.00903e-06
1.08827e-05
1.64351e-05
2.4255e-05
3.50976e-05
4.99208e-05
6.99271e-05
9.66112e-05
0.000131813
0.000177777
0.000237219
0.000313395
0.000410179
0.000532141
0.000684635
0.000873886
0.00110707
0.00139242
0.00173929
0.00215825
0.00266116
0.00326122
0.00397306
0.00481276
0.00579786
0.00694739
0.00828186
0.0098232
0.0115947
0.013621
0.0159278
0.0185419
0.021491
0.0248033
0.0285076
0.0326329
0.0372078
0.0422609
0.0478201
0.0539119
0.0605619
0.0677939
0.0756296
0.0840885
0.0931875
0.10294
0.113358
0.124448
0.136213
0.148654
0.161766
0.175542
0.189968
0.205028
0.220703
0.236966
0.25379
0.271142
0.288987
0.307286
0.325997
0.345075
0.364474
0.384145
0.404037
0.4241
0.444281
0.464527
0.484787
0.505009
0.525141
0.545135
0.564941
0.584513
0.603808
0.622784
0.641402
0.659626
0.677423
0.694763
0.711619
0.727968
0.74379
0.759068
0.773789
0.787941
0.801519
0.814517
0.826934
0.838772
0.850034
0.860726
0.870857
0.880436
0.889476
0.897989
0.905992
0.9135
0.920529
0.927098
0.933225
0.938927
0.944225
0.949137
0.953681
0.957877
0.961741
0.965291
0.968544
0.971516
0.974222
0.976674
0.978885
0.980867
0.982629
0.984178
0.985521
0.986663
0.987607
0.988352
0.988898
0.989241
0.989377
0.989297
0.988992
0.98845
0.987658
0.9866
0.985259
0.983615
0.981647
0.979333
0.976649
0.973572
0.970074
0.966131
0.961716
0.956804
0.951368
0.945384
0.938828
0.931679
0.923915
0.915518
0.906474
0.896768
0.886391
0.875337
0.863602
0.851188
0.838098
0.824343
0.809934
0.794888
0.779226
0.762973
0.746159
0.728814
0.710976
0.692682
0.673976
0.654902
0.635507
0.615839
0.595949
0.575889
0.55571
0.535465
0.515206
0.494985
0.474854
0.454862
0.435056
0.415484
0.396189
0.377214
0.358596
0.340372
0.322576
0.305236
0.28838
0.272031
0.256209
0.240931
0.226211
0.212058
0.198481
0.185483
0.173066
0.161228
0.149966
0.139274
0.129143
0.119564
0.110524
0.10201
0.094007
0.0864987
0.0794681
0.0728975
0.0667684
0.0610617
0.0557583
0.0508387
0.0462836
0.0420735
0.0381893
0.0346122
0.0313237
0.0283059
0.0255412
0.0230129
0.0207047
0.018601
0.0166869
0.0149482
0.0133716
0.0119442
0.010654
0.0094898
0.00844093
0.00749749
0.00665024
0.00589055
0.00521045
0.00460259
0.00405987
0.00357746
0.00314187
0.00278852
0.00229831
)
;

boundaryField
{
    sides
    {
        type            zeroGradient;
    }
    empty
    {
        type            empty;
    }
}


// ************************************************************************* //
