/*--------------------------------*- C++ -*----------------------------------*\
  =========                 |
  \\      /  F ield         | OpenFOAM: The Open Source CFD Toolbox
   \\    /   O peration     | Website:  https://openfoam.org
    \\  /    A nd           | Version:  7
     \\/     M anipulation  |
\*---------------------------------------------------------------------------*/
FoamFile
{
    version     2.0;
    format      ascii;
    class       volScalarField;
    location    "3.2";
    object      rho;
}
// * * * * * * * * * * * * * * * * * * * * * * * * * * * * * * * * * * * * * //

dimensions      [1 -3 0 0 0 0 0];

internalField   nonuniform List<scalar> 
19968
(
1.40001
1.40001
1.40001
1.40001
1.40001
1.40001
1.40001
1.40001
1.40001
1.40001
1.40001
1.40001
1.40001
1.40001
1.40001
1.40001
1.40001
1.40001
1.40001
1.40001
1.40001
1.40001
1.40001
1.40001
1.40001
1.40001
1.40001
1.40001
1.40001
1.40001
1.40001
1.40001
1.40001
1.40001
1.40001
1.40001
1.40001
1.40001
1.40001
1.40001
1.40001
1.40001
1.40001
1.40001
1.40001
1.40001
1.40001
1.40001
1.41222
4.09168
5.4126
5.42718
5.44715
5.46979
5.49399
5.51949
5.5455
5.57057
5.59345
5.61355
5.63104
5.6466
5.6611
5.67564
5.69103
5.70749
5.72473
5.74185
5.75781
5.77251
5.78619
5.79848
5.8102
5.82329
5.8391
5.85699
5.87485
5.89065
5.90293
5.91109
5.91659
5.9223
5.93027
5.9407
5.95244
5.96351
5.97221
5.97827
5.98242
5.98554
5.98831
5.99105
5.99367
5.99586
5.99764
5.99955
1.40001
1.40001
1.40001
1.40001
1.40001
1.40001
1.40001
1.40001
1.40001
1.40001
1.40001
1.40001
1.40001
1.40001
1.40001
1.40001
1.40001
1.40001
1.40001
1.40001
1.40001
1.40001
1.40001
1.40001
1.40001
1.40001
1.40001
1.40001
1.40001
1.40001
1.40001
1.40001
1.40001
1.40001
1.40001
1.40001
1.40001
1.40001
1.40001
1.40001
1.40001
1.40001
1.40001
1.40001
1.40001
1.40001
1.40001
1.40001
1.40122
4.05569
5.40958
5.42809
5.44643
5.46927
5.49336
5.5188
5.5447
5.56958
5.59218
5.61205
5.62944
5.64495
5.65934
5.6737
5.68897
5.70537
5.72265
5.74009
5.75662
5.77196
5.78613
5.79859
5.81027
5.82291
5.83811
5.85536
5.87277
5.88836
5.90063
5.90892
5.9146
5.92047
5.92849
5.93884
5.95042
5.96135
5.97
5.97609
5.98031
5.98346
5.98617
5.98877
5.99122
5.99328
5.99505
5.99695
1.40001
1.40001
1.40001
1.40001
1.40001
1.40001
1.40001
1.40001
1.40001
1.40001
1.40001
1.40001
1.40001
1.40001
1.40001
1.40001
1.40001
1.40001
1.40001
1.40001
1.40001
1.40001
1.40001
1.40001
1.40001
1.40001
1.40001
1.40001
1.40001
1.40001
1.40001
1.40001
1.40001
1.40001
1.40001
1.40001
1.40001
1.40001
1.40001
1.40001
1.40001
1.40001
1.40001
1.40001
1.40001
1.40001
1.40001
1.40001
1.40004
3.974
5.40726
5.42545
5.44237
5.46571
5.48994
5.51556
5.54173
5.56689
5.58959
5.60941
5.62669
5.642
5.65604
5.67005
5.68511
5.70142
5.71882
5.73677
5.75409
5.77026
5.78519
5.79796
5.80973
5.82184
5.83633
5.85274
5.86953
5.88477
5.897
5.90548
5.91149
5.91765
5.92576
5.93596
5.94725
5.9579
5.96643
5.97255
5.97683
5.97991
5.98239
5.98461
5.98668
5.98851
5.99027
5.99216
1.40001
1.40001
1.40001
1.40001
1.40001
1.40001
1.40001
1.40001
1.40001
1.40001
1.40001
1.40001
1.40001
1.40001
1.40001
1.40001
1.40001
1.40001
1.40001
1.40001
1.40001
1.40001
1.40001
1.40001
1.40001
1.40001
1.40001
1.40001
1.40001
1.40001
1.40001
1.40001
1.40001
1.40001
1.40001
1.40001
1.40001
1.40001
1.40001
1.40001
1.40001
1.40001
1.40001
1.40001
1.40001
1.40001
1.40001
1.40001
1.40001
3.84315
5.39813
5.4214
5.43691
5.46089
5.485
5.51059
5.53689
5.56253
5.58573
5.60588
5.62325
5.6383
5.65173
5.66496
5.67953
5.69564
5.71314
5.73168
5.74991
5.76694
5.78274
5.79588
5.80764
5.81901
5.83249
5.84779
5.8638
5.87863
5.89084
5.89959
5.90603
5.91256
5.92081
5.93088
5.94186
5.95224
5.96072
5.96699
5.97146
5.97459
5.97687
5.97864
5.98019
5.98164
5.98326
5.98502
1.40001
1.40001
1.40001
1.40001
1.40001
1.40001
1.40001
1.40001
1.40001
1.40001
1.40001
1.40001
1.40001
1.40001
1.40001
1.40001
1.40001
1.40001
1.40001
1.40001
1.40001
1.40001
1.40001
1.40001
1.40001
1.40001
1.40001
1.40001
1.40001
1.40001
1.40001
1.40001
1.40001
1.40001
1.40001
1.40001
1.40001
1.40001
1.40001
1.40001
1.40001
1.40001
1.40001
1.40001
1.40001
1.40001
1.40001
1.40001
1.40001
3.65773
5.3821
5.41551
5.42975
5.45475
5.47857
5.50408
5.53031
5.55645
5.58054
5.6015
5.61941
5.63442
5.64712
5.65914
5.67273
5.68835
5.70579
5.72486
5.74395
5.76169
5.77833
5.79185
5.80357
5.81421
5.82668
5.84089
5.85614
5.87058
5.88281
5.89187
5.89875
5.90562
5.91398
5.92387
5.93445
5.94446
5.95278
5.95913
5.96377
5.96693
5.96898
5.97018
5.97099
5.97178
5.97299
5.97438
1.40001
1.40001
1.40001
1.40001
1.40001
1.40001
1.40001
1.40001
1.40001
1.40001
1.40001
1.40001
1.40001
1.40001
1.40001
1.40001
1.40001
1.40001
1.40001
1.40001
1.40001
1.40001
1.40001
1.40001
1.40001
1.40001
1.40001
1.40001
1.40001
1.40001
1.40001
1.40001
1.40001
1.40001
1.40001
1.40001
1.40001
1.40001
1.40001
1.40001
1.40001
1.40001
1.40001
1.40001
1.40001
1.40001
1.40001
1.40001
1.40001
3.41008
5.3558
5.41033
5.42311
5.44796
5.47076
5.49585
5.52195
5.5487
5.57421
5.59674
5.61593
5.63162
5.64397
5.65462
5.66661
5.6812
5.69825
5.71762
5.73739
5.75553
5.77274
5.78654
5.79818
5.80821
5.81963
5.83277
5.84723
5.8612
5.87329
5.88252
5.88967
5.89669
5.90498
5.91458
5.92468
5.93423
5.94234
5.94874
5.95355
5.95677
5.95865
5.95924
5.9591
5.95893
5.95934
5.95999
1.40001
1.40001
1.40001
1.40001
1.40001
1.40001
1.40001
1.40001
1.40001
1.40001
1.40001
1.40001
1.40001
1.40001
1.40001
1.40001
1.40001
1.40001
1.40001
1.40001
1.40001
1.40001
1.40001
1.40001
1.40001
1.40001
1.40001
1.40001
1.40001
1.40001
1.40001
1.40001
1.40001
1.40001
1.40001
1.40001
1.40001
1.40001
1.40001
1.40001
1.40001
1.40001
1.40001
1.40001
1.40001
1.40001
1.40001
1.40001
1.40001
3.09376
5.30079
5.41118
5.42171
5.44361
5.46373
5.48723
5.51243
5.53909
5.5656
5.58967
5.61045
5.62744
5.64014
5.64977
5.65978
5.67258
5.6885
5.70752
5.72756
5.74598
5.76358
5.77775
5.78935
5.79891
5.80917
5.82115
5.8347
5.84813
5.86005
5.86944
5.87682
5.88387
5.89199
5.90125
5.91092
5.9201
5.92811
5.93469
5.93987
5.94346
5.94548
5.94586
5.94504
5.94382
5.94321
5.94298
1.40001
1.40001
1.40001
1.40001
1.40001
1.40001
1.40001
1.40001
1.40001
1.40001
1.40001
1.40001
1.40001
1.40001
1.40001
1.40001
1.40001
1.40001
1.40001
1.40001
1.40001
1.40001
1.40001
1.40001
1.40001
1.40001
1.40001
1.40001
1.40001
1.40001
1.40001
1.40001
1.40001
1.40001
1.40001
1.40001
1.40001
1.40001
1.40001
1.40001
1.40001
1.40001
1.40001
1.40001
1.40001
1.40001
1.40001
1.40001
1.40001
2.72017
5.19045
5.41879
5.42616
5.44362
5.4607
5.48175
5.50512
5.53061
5.55708
5.5821
5.60396
5.62204
5.63548
5.64465
5.65262
5.66294
5.67667
5.694
5.71346
5.73198
5.7496
5.76429
5.77587
5.78515
5.79434
5.80522
5.81784
5.83084
5.84269
5.85236
5.86008
5.86724
5.87521
5.88417
5.89347
5.90232
5.91013
5.91669
5.922
5.92577
5.92783
5.92795
5.92643
5.92417
5.92236
5.92123
1.40001
1.40001
1.40001
1.40001
1.40001
1.40001
1.40001
1.40001
1.40001
1.40001
1.40001
1.40001
1.40001
1.40001
1.40001
1.40001
1.40001
1.40001
1.40001
1.40001
1.40001
1.40001
1.40001
1.40001
1.40001
1.40001
1.40001
1.40001
1.40001
1.40001
1.40001
1.40001
1.40001
1.40001
1.40001
1.40001
1.40001
1.40001
1.40001
1.40001
1.40001
1.40001
1.40001
1.40001
1.40001
1.40001
1.40001
1.40001
1.40001
2.29428
4.99818
5.42343
5.43346
5.44997
5.46615
5.48439
5.50385
5.52549
5.54955
5.57415
5.59658
5.61562
5.63021
5.63996
5.64703
5.6554
5.66686
5.68181
5.69995
5.71824
5.73532
5.75047
5.76211
5.77118
5.77909
5.78837
5.79935
5.81125
5.82245
5.83189
5.83948
5.84627
5.85356
5.86179
5.87046
5.87883
5.88633
5.89275
5.89808
5.90207
5.90439
5.90467
5.90303
5.90038
5.8978
5.89626
1.40001
1.40001
1.40001
1.40001
1.40001
1.40001
1.40001
1.40001
1.40001
1.40001
1.40001
1.40001
1.40001
1.40001
1.40001
1.40001
1.40001
1.40001
1.40001
1.40001
1.40001
1.40001
1.40001
1.40001
1.40001
1.40001
1.40001
1.40001
1.40001
1.40001
1.40001
1.40001
1.40001
1.40001
1.40001
1.40001
1.40001
1.40001
1.40001
1.40001
1.40001
1.40001
1.40001
1.40001
1.40001
1.40001
1.40001
1.40001
1.40001
1.85768
4.70747
5.43449
5.42602
5.44365
5.45881
5.4761
5.49435
5.51427
5.5364
5.55989
5.5822
5.60175
5.61791
5.62985
5.63816
5.64602
5.65587
5.66858
5.6849
5.70254
5.71905
5.73447
5.74651
5.75589
5.76306
5.77077
5.77993
5.79044
5.80079
5.80979
5.81704
5.82321
5.82952
5.83663
5.84428
5.85169
5.85825
5.86369
5.86802
5.87115
5.87282
5.8727
5.87073
5.86786
5.86484
5.86334
1.40001
1.40001
1.40001
1.40001
1.40001
1.40001
1.40001
1.40001
1.40001
1.40001
1.40001
1.40001
1.40001
1.40001
1.40001
1.40001
1.40001
1.40001
1.40001
1.40001
1.40001
1.40001
1.40001
1.40001
1.40001
1.40001
1.40001
1.40001
1.40001
1.40001
1.40001
1.40001
1.40001
1.40001
1.40001
1.40001
1.40001
1.40001
1.40001
1.40001
1.40001
1.40001
1.40001
1.40001
1.40001
1.40001
1.40001
1.40001
1.40001
1.45842
4.20086
5.43077
5.42919
5.44417
5.4598
5.47547
5.4919
5.50886
5.52704
5.54674
5.56653
5.58468
5.60092
5.61436
5.62433
5.63265
5.64153
5.65199
5.66512
5.68072
5.69619
5.71105
5.72343
5.73313
5.74015
5.74655
5.7539
5.76282
5.77217
5.78061
5.78738
5.79275
5.79777
5.80334
5.80948
5.81553
5.82084
5.82511
5.82836
5.83073
5.83209
5.83212
5.83065
5.82832
5.82583
5.82509
1.40001
1.40001
1.40001
1.40001
1.40001
1.40001
1.40001
1.40001
1.40001
1.40001
1.40001
1.40001
1.40001
1.40001
1.40001
1.40001
1.40001
1.40001
1.40001
1.40001
1.40001
1.40001
1.40001
1.40001
1.40001
1.40001
1.40001
1.40001
1.40001
1.40001
1.40001
1.40001
1.40001
1.40001
1.40001
1.40001
1.40001
1.40001
1.40001
1.40001
1.40001
1.40001
1.40001
1.40001
1.40001
1.40001
1.40001
1.40001
1.40001
1.40035
3.44723
5.30016
5.37202
5.3947
5.41838
5.43878
5.45846
5.47682
5.49457
5.51252
5.5307
5.54828
5.56481
5.58001
5.59268
5.60308
5.61273
5.62276
5.63407
5.64774
5.66246
5.67652
5.68911
5.69923
5.70693
5.71303
5.71931
5.72685
5.73515
5.7429
5.74915
5.75392
5.75797
5.76231
5.76726
5.77224
5.77641
5.77933
5.78071
5.7809
5.78015
5.77823
5.77528
5.77226
5.76972
5.76928
1.40001
1.40001
1.40001
1.40001
1.40001
1.40001
1.40001
1.40001
1.40001
1.40001
1.40001
1.40001
1.40001
1.40001
1.40001
1.40001
1.40001
1.40001
1.40001
1.40001
1.40001
1.40001
1.40001
1.40001
1.40001
1.40001
1.40001
1.40001
1.40001
1.40001
1.40001
1.40001
1.40001
1.40001
1.40001
1.40001
1.40001
1.40001
1.40001
1.40001
1.40001
1.40001
1.40001
1.40001
1.40001
1.40001
1.40001
1.40001
1.40001
1.40001
2.5284
5.06309
5.36848
5.3901
5.41278
5.4312
5.44847
5.46463
5.48052
5.49646
5.51239
5.52776
5.5422
5.55598
5.56861
5.57959
5.58961
5.59938
5.60941
5.62057
5.63315
5.64524
5.65626
5.66513
5.67229
5.67778
5.6828
5.68836
5.69457
5.70039
5.70482
5.70762
5.70924
5.71053
5.71214
5.71361
5.71408
5.7133
5.71141
5.70902
5.70652
5.70419
5.70186
5.70024
5.69913
5.69968
1.40001
1.40001
1.40001
1.40001
1.40001
1.40001
1.40001
1.40001
1.40001
1.40001
1.40001
1.40001
1.40001
1.40001
1.40001
1.40001
1.40001
1.40001
1.40001
1.40001
1.40001
1.40001
1.40001
1.40001
1.40001
1.40001
1.40001
1.40001
1.40001
1.40001
1.40001
1.40001
1.40001
1.40001
1.40001
1.40001
1.40001
1.40001
1.40001
1.40001
1.40001
1.40001
1.40001
1.40001
1.40001
1.40001
1.40001
1.40001
1.40001
1.40001
1.66564
4.51458
5.41823
5.40569
5.41965
5.43141
5.44376
5.456
5.46858
5.48164
5.49482
5.50742
5.51888
5.5295
5.53971
5.54922
5.55817
5.56687
5.57546
5.58397
5.5933
5.60293
5.61156
5.61875
5.62451
5.62915
5.633
5.63667
5.6405
5.64391
5.64611
5.64675
5.64586
5.64426
5.6427
5.64102
5.63885
5.63616
5.6324
5.62765
5.6216
5.61447
5.60548
5.59594
5.58736
5.58098
1.40001
1.40001
1.40001
1.40001
1.40001
1.40001
1.40001
1.40001
1.40001
1.40001
1.40001
1.40001
1.40001
1.40001
1.40001
1.40001
1.40001
1.40001
1.40001
1.40001
1.40001
1.40001
1.40001
1.40001
1.40001
1.40001
1.40001
1.40001
1.40001
1.40001
1.40001
1.40001
1.40001
1.40001
1.40001
1.40001
1.40001
1.40001
1.40001
1.40001
1.40001
1.40001
1.40001
1.40001
1.40001
1.40001
1.40001
1.40001
1.40001
1.40001
1.40383
3.34351
5.28595
5.36833
5.38733
5.40031
5.41346
5.42647
5.43967
5.45296
5.46569
5.47704
5.48663
5.49485
5.50246
5.50987
5.51722
5.52458
5.53178
5.53862
5.54513
5.55166
5.55758
5.56242
5.56598
5.56882
5.5709
5.57236
5.57328
5.57364
5.57283
5.57027
5.56592
5.56
5.55262
5.544
5.53403
5.5224
5.50832
5.49138
5.47187
5.45093
5.43267
5.41756
5.41114
5.40878
1.40001
1.40001
1.40001
1.40001
1.40001
1.40001
1.40001
1.40001
1.40001
1.40001
1.40001
1.40001
1.40001
1.40001
1.40001
1.40001
1.40001
1.40001
1.40001
1.40001
1.40001
1.40001
1.40001
1.40001
1.40001
1.40001
1.40001
1.40001
1.40001
1.40001
1.40001
1.40001
1.40001
1.40001
1.40001
1.40001
1.40001
1.40001
1.40001
1.40001
1.40001
1.40001
1.40001
1.40001
1.40001
1.40001
1.40001
1.40001
1.40001
1.40001
1.40001
1.98844
4.79187
5.37658
5.37215
5.38462
5.39712
5.40966
5.42196
5.43417
5.44578
5.45589
5.46382
5.46964
5.47401
5.47788
5.48195
5.48651
5.49122
5.49556
5.49887
5.50116
5.50293
5.50397
5.5041
5.50338
5.50182
5.49958
5.49643
5.49231
5.48648
5.4788
5.46898
5.45672
5.44176
5.42423
5.40439
5.38251
5.35853
5.33249
5.30459
5.27533
5.23735
5.19366
5.13727
5.15691
1.40001
1.40001
1.40001
1.40001
1.40001
1.40001
1.40001
1.40001
1.40001
1.40001
1.40001
1.40001
1.40001
1.40001
1.40001
1.40001
1.40001
1.40001
1.40001
1.40001
1.40001
1.40001
1.40001
1.40001
1.40001
1.40001
1.40001
1.40001
1.40001
1.40001
1.40001
1.40001
1.40001
1.40001
1.40001
1.40001
1.40001
1.40001
1.40001
1.40001
1.40001
1.40001
1.40001
1.40001
1.40001
1.40001
1.40001
1.40001
1.40001
1.40001
1.40001
1.42067
3.64232
5.29129
5.34084
5.35925
5.37333
5.38558
5.39729
5.40894
5.42017
5.43012
5.43782
5.44281
5.44544
5.44668
5.44765
5.44914
5.45114
5.45297
5.45368
5.45244
5.45005
5.44692
5.44336
5.43919
5.43378
5.42743
5.41982
5.41075
5.39978
5.3867
5.3709
5.3518
5.32866
5.30105
5.26852
5.23073
5.18554
5.13071
5.0581
4.96095
4.81166
4.5817
4.17379
3.27259
1.40001
1.40001
1.40001
1.40001
1.40001
1.40001
1.40001
1.40001
1.40001
1.40001
1.40001
1.40001
1.40001
1.40001
1.40001
1.40001
1.40001
1.40001
1.40001
1.40001
1.40001
1.40001
1.40001
1.40001
1.40001
1.40001
1.40001
1.40001
1.40001
1.40001
1.40001
1.40001
1.40001
1.40001
1.40001
1.40001
1.40001
1.40001
1.40001
1.40001
1.40001
1.40001
1.40001
1.40001
1.40001
1.40001
1.40001
1.40001
1.40001
1.40001
1.40001
1.39992
2.41554
4.97269
5.31395
5.32559
5.34863
5.36277
5.37502
5.38618
5.39684
5.40658
5.41448
5.41963
5.42188
5.42209
5.42119
5.42037
5.42013
5.42001
5.41873
5.41512
5.40956
5.4025
5.39517
5.38737
5.37794
5.36736
5.35524
5.34135
5.3253
5.30682
5.28503
5.25914
5.22773
5.19031
5.14495
5.09165
5.02513
4.94407
4.8344
4.69212
4.48461
4.21517
3.67249
2.91638
1.40001
1.40001
1.40001
1.40001
1.40001
1.40001
1.40001
1.40001
1.40001
1.40001
1.40001
1.40001
1.40001
1.40001
1.40001
1.40001
1.40001
1.40001
1.40001
1.40001
1.40001
1.40001
1.40001
1.40001
1.40001
1.40001
1.40001
1.40001
1.40001
1.40001
1.40001
1.40001
1.40001
1.40001
1.40001
1.40001
1.40001
1.40001
1.40001
1.40001
1.40001
1.40001
1.40001
1.40001
1.40001
1.40001
1.40001
1.40001
1.40001
1.40001
1.40001
1.39999
1.4858
4.20473
5.34745
5.33665
5.33708
5.34405
5.35167
5.35952
5.36772
5.37602
5.38349
5.38887
5.3915
5.39174
5.3898
5.38709
5.38472
5.38265
5.37977
5.37462
5.36674
5.3561
5.34466
5.33286
5.3193
5.30446
5.28766
5.26873
5.24713
5.22287
5.19464
5.16191
5.12217
5.07543
5.01842
4.95144
4.86844
4.7666
4.63618
4.46662
4.24841
3.93045
3.48504
2.96208
1.40001
1.40001
1.40001
1.40001
1.40001
1.40001
1.40001
1.40001
1.40001
1.40001
1.40001
1.40001
1.40001
1.40001
1.40001
1.40001
1.40001
1.40001
1.40001
1.40001
1.40001
1.40001
1.40001
1.40001
1.40001
1.40001
1.40001
1.40001
1.40001
1.40001
1.40001
1.40001
1.40001
1.40001
1.40001
1.40001
1.40001
1.40001
1.40001
1.40001
1.40001
1.40001
1.40001
1.40001
1.40001
1.40001
1.40001
1.40001
1.40001
1.40001
1.40001
1.4
1.40025
2.86205
5.06646
5.28424
5.29398
5.30917
5.31787
5.32508
5.33266
5.34049
5.34751
5.35279
5.35592
5.35667
5.35476
5.35137
5.34779
5.34428
5.34019
5.33392
5.32463
5.31169
5.29691
5.2811
5.26344
5.24433
5.22277
5.19874
5.17138
5.14107
5.10625
5.06672
5.01948
4.96433
4.89818
4.82038
4.72691
4.61323
4.47398
4.29715
4.07968
3.79147
3.45868
3.07511
1.40001
1.40001
1.40001
1.40001
1.40001
1.40001
1.40001
1.40001
1.40001
1.40001
1.40001
1.40001
1.40001
1.40001
1.40001
1.40001
1.40001
1.40001
1.40001
1.40001
1.40001
1.40001
1.40001
1.40001
1.40001
1.40001
1.40001
1.40001
1.40001
1.40001
1.40001
1.40001
1.40001
1.40001
1.40001
1.40001
1.40001
1.40001
1.40001
1.40001
1.40001
1.40001
1.40001
1.40001
1.40001
1.40001
1.40001
1.40001
1.40001
1.40001
1.40001
1.40001
1.4
1.60469
4.43917
5.33334
5.30834
5.3064
5.30595
5.30607
5.30794
5.31099
5.31414
5.3171
5.31947
5.32017
5.31805
5.314
5.30903
5.30352
5.29782
5.29056
5.28053
5.26655
5.24925
5.22962
5.20799
5.18489
5.15909
5.13051
5.098
5.06195
5.02115
4.97545
4.92237
4.86087
4.78866
4.70424
4.60535
4.4875
4.34902
4.1773
3.97708
3.73921
3.47556
3.17966
1.40001
1.40001
1.40001
1.40001
1.40001
1.40001
1.40001
1.40001
1.40001
1.40001
1.40001
1.40001
1.40001
1.40001
1.40001
1.40001
1.40001
1.40001
1.40001
1.40001
1.40001
1.40001
1.40001
1.40001
1.40001
1.40001
1.40001
1.40001
1.40001
1.40001
1.40001
1.40001
1.40001
1.40001
1.40001
1.40001
1.40001
1.40001
1.40001
1.40001
1.40001
1.40001
1.40001
1.40001
1.40001
1.40001
1.40001
1.40001
1.40001
1.40001
1.40001
1.40001
1.4
1.40212
3.00088
5.06223
5.25931
5.27125
5.27937
5.2827
5.28319
5.28278
5.28268
5.2836
5.28471
5.28439
5.2811
5.27552
5.26825
5.26058
5.25301
5.24443
5.2334
5.21845
5.1996
5.17779
5.15329
5.12706
5.0979
5.06569
5.02914
4.9883
4.94245
4.89133
4.83353
4.76766
4.69193
4.60467
4.5046
4.38756
4.25419
4.09615
3.92042
3.72154
3.50708
3.26322
1.40001
1.40001
1.40001
1.40001
1.40001
1.40001
1.40001
1.40001
1.40001
1.40001
1.40001
1.40001
1.40001
1.40001
1.40001
1.40001
1.40001
1.40001
1.40001
1.40001
1.40001
1.40001
1.40001
1.40001
1.40001
1.40001
1.40001
1.40001
1.40001
1.40001
1.40001
1.40001
1.40001
1.40001
1.40001
1.40001
1.40001
1.40001
1.40001
1.40001
1.40001
1.40001
1.40001
1.40001
1.40001
1.40001
1.40001
1.40001
1.40001
1.40001
1.40001
1.40001
1.40001
1.4
1.5828
4.39356
5.31466
5.28499
5.2756
5.27243
5.26886
5.26451
5.26024
5.25701
5.25428
5.25071
5.24514
5.23766
5.22873
5.21885
5.20854
5.19775
5.18534
5.16967
5.1503
5.12737
5.10083
5.07197
5.04008
5.00508
4.9657
4.92156
4.87201
4.8169
4.75558
4.68699
4.60982
4.52253
4.42478
4.31151
4.18486
4.04352
3.8898
3.71781
3.53815
3.3342
1.40001
1.40001
1.40001
1.40001
1.40001
1.40001
1.40001
1.40001
1.40001
1.40001
1.40001
1.40001
1.40001
1.40001
1.40001
1.40001
1.40001
1.40001
1.40001
1.40001
1.40001
1.40001
1.40001
1.40001
1.40001
1.40001
1.40001
1.40001
1.40001
1.40001
1.40001
1.40001
1.40001
1.40001
1.40001
1.40001
1.40001
1.40001
1.40001
1.40001
1.40001
1.40001
1.40001
1.40001
1.40001
1.40001
1.40001
1.40001
1.40001
1.40001
1.40001
1.40001
1.40001
1.4
1.40168
2.84653
5.02223
5.22092
5.23283
5.23929
5.24038
5.23827
5.23393
5.22909
5.2239
5.21808
5.21079
5.20157
5.19097
5.17817
5.16445
5.15067
5.13591
5.11875
5.09825
5.07417
5.04628
5.01578
4.98206
4.94534
4.90446
4.85888
4.80778
4.75087
4.68781
4.61779
4.54044
4.45435
4.36113
4.25344
4.13526
4.00908
3.87183
3.72005
3.56789
3.39316
1.40001
1.40001
1.40001
1.40001
1.40001
1.40001
1.40001
1.40001
1.40001
1.40001
1.40001
1.40001
1.40001
1.40001
1.40001
1.40001
1.40001
1.40001
1.40001
1.40001
1.40001
1.40001
1.40001
1.40001
1.40001
1.40001
1.40001
1.40001
1.40001
1.40001
1.40001
1.40001
1.40001
1.40001
1.40001
1.40001
1.40001
1.40001
1.40001
1.40001
1.40001
1.40001
1.40001
1.40001
1.40001
1.40001
1.40001
1.40001
1.40001
1.40001
1.40001
1.40001
1.40001
1.40001
1.4
1.5403
4.0474
5.2308
5.22378
5.22303
5.22352
5.22177
5.2168
5.21
5.20189
5.19299
5.18302
5.17164
5.15882
5.14416
5.12759
5.1104
5.09207
5.07263
5.0505
5.02517
4.99641
4.9647
4.92954
4.8914
4.84934
4.80302
4.75144
4.69421
4.63106
4.56093
4.48465
4.39988
4.31097
4.20969
4.1005
3.98661
3.86278
3.72913
3.5951
3.44228
1.40001
1.40001
1.40001
1.40001
1.40001
1.40001
1.40001
1.40001
1.40001
1.40001
1.40001
1.40001
1.40001
1.40001
1.40001
1.40001
1.40001
1.40001
1.40001
1.40001
1.40001
1.40001
1.40001
1.40001
1.40001
1.40001
1.40001
1.40001
1.40001
1.40001
1.40001
1.40001
1.40001
1.40001
1.40001
1.40001
1.40001
1.40001
1.40001
1.40001
1.40001
1.40001
1.40001
1.40001
1.40001
1.40001
1.40001
1.40001
1.40001
1.40001
1.40001
1.40001
1.40001
1.40001
1.4
1.40092
2.26902
4.8519
5.21359
5.20042
5.19991
5.19885
5.19436
5.18734
5.1779
5.167
5.1551
5.14195
5.1275
5.1116
5.09285
5.07279
5.05118
5.02866
5.00425
4.97712
4.94694
4.9138
4.87736
4.83812
4.79526
4.74882
4.69795
4.64195
4.58106
4.51256
4.43915
4.35609
4.27094
4.17641
4.07506
3.97155
3.85934
3.7404
3.61892
3.48527
1.40001
1.40001
1.40001
1.40001
1.40001
1.40001
1.40001
1.40001
1.40001
1.40001
1.40001
1.40001
1.40001
1.40001
1.40001
1.40001
1.40001
1.40001
1.40001
1.40001
1.40001
1.40001
1.40001
1.40001
1.40001
1.40001
1.40001
1.40001
1.40001
1.40001
1.40001
1.40001
1.40001
1.40001
1.40001
1.40001
1.40001
1.40001
1.40001
1.40001
1.40001
1.40001
1.40001
1.40001
1.40001
1.40001
1.40001
1.40001
1.40001
1.40001
1.40001
1.40001
1.40001
1.40001
1.40001
1.40001
1.44735
3.35248
5.09924
5.19282
5.19369
5.19231
5.18595
5.17668
5.16436
5.1502
5.13507
5.11906
5.10265
5.08515
5.06487
5.04287
5.01869
4.99284
4.96546
4.9364
4.90454
4.87003
4.83254
4.79244
4.74896
4.70221
4.65171
4.59655
4.53814
4.4714
4.40136
4.32173
4.2407
4.1529
4.05767
3.96289
3.85931
3.75214
3.64082
3.52398
1.40001
1.40001
1.40001
1.40001
1.40001
1.40001
1.40001
1.40001
1.40001
1.40001
1.40001
1.40001
1.40001
1.40001
1.40001
1.40001
1.40001
1.40001
1.40001
1.40001
1.40001
1.40001
1.40001
1.40001
1.40001
1.40001
1.40001
1.40001
1.40001
1.40001
1.40001
1.40001
1.40001
1.40001
1.40001
1.40001
1.40001
1.40001
1.40001
1.40001
1.40001
1.40001
1.40001
1.40001
1.40001
1.40001
1.40001
1.40001
1.40001
1.40001
1.40001
1.40001
1.40001
1.40001
1.40001
1.40001
1.40012
1.64818
4.25777
5.20696
5.19454
5.18309
5.16941
5.1584
5.14403
5.12776
5.1105
5.09227
5.07418
5.05591
5.03476
5.01207
4.98673
4.9592
4.92984
4.89872
4.86511
4.82963
4.79119
4.75024
4.70633
4.65938
4.60926
4.55479
4.49805
4.43386
4.36738
4.29328
4.21711
4.13555
4.04689
3.9588
3.86143
3.76488
3.66223
3.55869
1.40001
1.40001
1.40001
1.40001
1.40001
1.40001
1.40001
1.40001
1.40001
1.40001
1.40001
1.40001
1.40001
1.40001
1.40001
1.40001
1.40001
1.40001
1.40001
1.40001
1.40001
1.40001
1.40001
1.40001
1.40001
1.40001
1.40001
1.40001
1.40001
1.40001
1.40001
1.40001
1.40001
1.40001
1.40001
1.40001
1.40001
1.40001
1.40001
1.40001
1.40001
1.40001
1.40001
1.40001
1.40001
1.40001
1.40001
1.40001
1.40001
1.40001
1.40001
1.40001
1.40001
1.40001
1.40001
1.40001
1.40001
1.40322
2.41669
4.89754
5.16789
5.14285
5.13704
5.12838
5.11534
5.10074
5.08422
5.06604
5.04714
5.02881
5.00724
4.98463
4.95864
4.93019
4.89966
4.86725
4.83262
4.79587
4.75715
4.71611
4.67225
4.62505
4.57489
4.52043
4.46396
4.40218
4.3386
4.26931
4.19805
4.12228
4.04123
3.95775
3.86728
3.77833
3.68317
3.58949
1.40001
1.40001
1.40001
1.40001
1.40001
1.40001
1.40001
1.40001
1.40001
1.40001
1.40001
1.40001
1.40001
1.40001
1.40001
1.40001
1.40001
1.40001
1.40001
1.40001
1.40001
1.40001
1.40001
1.40001
1.40001
1.40001
1.40001
1.40001
1.40001
1.40001
1.40001
1.40001
1.40001
1.40001
1.40001
1.40001
1.40001
1.40001
1.40001
1.40001
1.40001
1.40001
1.40001
1.40001
1.40001
1.40001
1.40001
1.40001
1.40001
1.40001
1.40001
1.40001
1.40001
1.40001
1.40001
1.40001
1.40001
1.40001
1.46209
3.28714
5.05115
5.10932
5.11275
5.11139
5.1022
5.08915
5.07146
5.0507
5.0288
5.00732
4.98406
4.95975
4.93225
4.90307
4.87184
4.83853
4.80317
4.76603
4.72756
4.68631
4.64231
4.59538
4.54553
4.49175
4.43578
4.37584
4.31447
4.24853
4.18137
4.1107
4.03662
3.95772
3.87559
3.79187
3.70466
3.61805
1.40001
1.40001
1.40001
1.40001
1.40001
1.40001
1.40001
1.40001
1.40001
1.40001
1.40001
1.40001
1.40001
1.40001
1.40001
1.40001
1.40001
1.40001
1.40001
1.40001
1.40001
1.40001
1.40001
1.40001
1.40001
1.40001
1.40001
1.40001
1.40001
1.40001
1.40001
1.40001
1.40001
1.40001
1.40001
1.40001
1.40001
1.40001
1.40001
1.40001
1.40001
1.40001
1.40001
1.40001
1.40001
1.40001
1.40001
1.40001
1.40001
1.40001
1.40001
1.40001
1.40001
1.40001
1.40001
1.40001
1.40001
1.40001
1.40024
1.62343
3.85356
5.07434
5.11276
5.0983
5.09084
5.07841
5.05935
5.03751
5.01424
4.99007
4.96474
4.93835
4.90923
4.87923
4.84738
4.81301
4.77717
4.7397
4.70157
4.66117
4.61787
4.57182
4.52277
4.46978
4.41423
4.35565
4.29574
4.23249
4.16841
4.1018
4.03261
3.95849
3.88392
3.80482
3.72496
3.64372
1.40001
1.40001
1.40001
1.40001
1.40001
1.40001
1.40001
1.40001
1.40001
1.40001
1.40001
1.40001
1.40001
1.40001
1.40001
1.40001
1.40001
1.40001
1.40001
1.40001
1.40001
1.40001
1.40001
1.40001
1.40001
1.40001
1.40001
1.40001
1.40001
1.40001
1.40001
1.40001
1.40001
1.40001
1.40001
1.40001
1.40001
1.40001
1.40001
1.40001
1.40001
1.40001
1.40001
1.40001
1.40001
1.40001
1.40001
1.40001
1.40001
1.40001
1.40001
1.40001
1.40001
1.40001
1.40001
1.40001
1.40001
1.40001
1.40001
1.40266
1.8319
4.47413
5.14877
5.11344
5.09055
5.06274
5.03748
5.01359
4.99046
4.96663
4.94181
4.91551
4.88677
4.8568
4.82443
4.78993
4.75424
4.71684
4.67835
4.63921
4.59722
4.55179
4.50336
4.45172
4.39752
4.3408
4.28222
4.2213
4.15949
4.09591
4.02976
3.96013
3.89105
3.81673
3.74287
3.66671
1.40001
1.40001
1.40001
1.40001
1.40001
1.40001
1.40001
1.40001
1.40001
1.40001
1.40001
1.40001
1.40001
1.40001
1.40001
1.40001
1.40001
1.40001
1.40001
1.40001
1.40001
1.40001
1.40001
1.40001
1.40001
1.40001
1.40001
1.40001
1.40001
1.40001
1.40001
1.40001
1.40001
1.40001
1.40001
1.40001
1.40001
1.40001
1.40001
1.40001
1.40001
1.40001
1.40001
1.40001
1.40001
1.40001
1.40001
1.40001
1.40001
1.40001
1.40001
1.40001
1.40001
1.40001
1.40001
1.40001
1.40001
1.40001
1.40001
1.40001
1.41021
2.50803
4.86061
5.08738
5.05297
5.02698
5.00548
4.98573
4.96562
4.94435
4.92093
4.895
4.86688
4.83672
4.80436
4.7702
4.73497
4.69802
4.65868
4.61972
4.57937
4.53469
4.48695
4.43694
4.38453
4.32992
4.27301
4.21451
4.1547
4.09353
4.02948
3.96434
3.89875
3.82869
3.7589
3.68721
1.40001
1.40001
1.40001
1.40001
1.40001
1.40001
1.40001
1.40001
1.40001
1.40001
1.40001
1.40001
1.40001
1.40001
1.40001
1.40001
1.40001
1.40001
1.40001
1.40001
1.40001
1.40001
1.40001
1.40001
1.40001
1.40001
1.40001
1.40001
1.40001
1.40001
1.40001
1.40001
1.40001
1.40001
1.40001
1.40001
1.40001
1.40001
1.40001
1.40001
1.40001
1.40001
1.40001
1.40001
1.40001
1.40001
1.40001
1.40001
1.40001
1.40001
1.40001
1.40001
1.40001
1.40001
1.40001
1.40001
1.40001
1.40001
1.40001
1.40001
1.40002
1.47031
3.09971
4.95188
5.02039
4.99565
4.98706
4.97317
4.95657
4.93633
4.91332
4.88732
4.85861
4.82725
4.79369
4.75847
4.7221
4.68453
4.64502
4.60535
4.56514
4.52145
4.47456
4.42531
4.37416
4.32123
4.26626
4.2101
4.15244
4.09301
4.0313
3.97057
3.90731
3.84107
3.77451
3.70685
1.40001
1.40001
1.40001
1.40001
1.40001
1.40001
1.40001
1.40001
1.40001
1.40001
1.40001
1.40001
1.40001
1.40001
1.40001
1.40001
1.40001
1.40001
1.40001
1.40001
1.40001
1.40001
1.40001
1.40001
1.40001
1.40001
1.40001
1.40001
1.40001
1.40001
1.40001
1.40001
1.40001
1.40001
1.40001
1.40001
1.40001
1.40001
1.40001
1.40001
1.40001
1.40001
1.40001
1.40001
1.40001
1.40001
1.40001
1.40001
1.40001
1.40001
1.40001
1.40001
1.40001
1.40001
1.40001
1.40001
1.40001
1.40001
1.40001
1.40001
1.40001
1.40036
1.57454
3.45601
4.9452
4.97695
4.96768
4.95973
4.94529
4.92698
4.90468
4.87937
4.85085
4.8196
4.78613
4.75084
4.71398
4.67564
4.63589
4.59548
4.55421
4.51075
4.46472
4.41641
4.36639
4.3148
4.26167
4.20758
4.15176
4.09367
4.03543
3.97811
3.91704
3.85408
3.79051
3.72639
1.40001
1.40001
1.40001
1.40001
1.40001
1.40001
1.40001
1.40001
1.40001
1.40001
1.40001
1.40001
1.40001
1.40001
1.40001
1.40001
1.40001
1.40001
1.40001
1.40001
1.40001
1.40001
1.40001
1.40001
1.40001
1.40001
1.40001
1.40001
1.40001
1.40001
1.40001
1.40001
1.40001
1.40001
1.40001
1.40001
1.40001
1.40001
1.40001
1.40001
1.40001
1.40001
1.40001
1.40001
1.40001
1.40001
1.40001
1.40001
1.40001
1.40001
1.40001
1.40001
1.40001
1.40001
1.40001
1.40001
1.40001
1.40001
1.40001
1.40001
1.40001
1.40001
1.40176
1.67669
3.70196
4.95626
4.96514
4.95346
4.9368
4.91663
4.89454
4.86999
4.84266
4.81273
4.78041
4.74609
4.70977
4.6716
4.63201
4.59133
4.54925
4.50535
4.45944
4.41155
4.362
4.31095
4.25876
4.20595
4.15141
4.09487
4.0399
3.98526
3.92681
3.86681
3.8066
3.74592
1.40001
1.40001
1.40001
1.40001
1.40001
1.40001
1.40001
1.40001
1.40001
1.40001
1.40001
1.40001
1.40001
1.40001
1.40001
1.40001
1.40001
1.40001
1.40001
1.40001
1.40001
1.40001
1.40001
1.40001
1.40001
1.40001
1.40001
1.40001
1.40001
1.40001
1.40001
1.40001
1.40001
1.40001
1.40001
1.40001
1.40001
1.40001
1.40001
1.40001
1.40001
1.40001
1.40001
1.40001
1.40001
1.40001
1.40001
1.40001
1.40001
1.40001
1.40001
1.40001
1.40001
1.40001
1.40001
1.40001
1.40001
1.40001
1.40001
1.40001
1.40001
1.40001
1.40001
1.40424
1.77086
3.90783
4.96864
4.95808
4.93451
4.91027
4.88482
4.85907
4.83144
4.80253
4.77204
4.73953
4.70458
4.66766
4.62915
4.58911
4.54725
4.50351
4.45783
4.4102
4.36088
4.31008
4.25823
4.20596
4.15245
4.09782
4.04507
3.9926
3.93712
3.87986
3.82285
3.76534
1.40001
1.40001
1.40001
1.40001
1.40001
1.40001
1.40001
1.40001
1.40001
1.40001
1.40001
1.40001
1.40001
1.40001
1.40001
1.40001
1.40001
1.40001
1.40001
1.40001
1.40001
1.40001
1.40001
1.40001
1.40001
1.40001
1.40001
1.40001
1.40001
1.40001
1.40001
1.40001
1.40001
1.40001
1.40001
1.40001
1.40001
1.40001
1.40001
1.40001
1.40001
1.40001
1.40001
1.40001
1.40001
1.40001
1.40001
1.40001
1.40001
1.40001
1.40001
1.40001
1.40001
1.40001
1.40001
1.40001
1.40001
1.40001
1.40001
1.40001
1.40001
1.40001
1.40001
1.40001
1.4075
1.86134
4.06763
4.96621
4.94755
4.9167
4.8877
4.85676
4.82622
4.79575
4.76495
4.73253
4.69825
4.66257
4.62548
4.58668
4.54585
4.50301
4.45812
4.41113
4.36245
4.31232
4.26114
4.20968
4.15769
4.10508
4.05347
4.00233
3.94941
3.89453
3.83978
3.78482
1.40001
1.40001
1.40001
1.40001
1.40001
1.40001
1.40001
1.40001
1.40001
1.40001
1.40001
1.40001
1.40001
1.40001
1.40001
1.40001
1.40001
1.40001
1.40001
1.40001
1.40001
1.40001
1.40001
1.40001
1.40001
1.40001
1.40001
1.40001
1.40001
1.40001
1.40001
1.40001
1.40001
1.40001
1.40001
1.40001
1.40001
1.40001
1.40001
1.40001
1.40001
1.40001