/*--------------------------------*- C++ -*----------------------------------*\
  =========                 |
  \\      /  F ield         | OpenFOAM: The Open Source CFD Toolbox
   \\    /   O peration     | Website:  https://openfoam.org
    \\  /    A nd           | Version:  7
     \\/     M anipulation  |
\*---------------------------------------------------------------------------*/
FoamFile
{
    version     2.0;
    format      ascii;
    class       volScalarField;
    location    "3.2";
    object      T;
}
// * * * * * * * * * * * * * * * * * * * * * * * * * * * * * * * * * * * * * //

dimensions      [0 0 0 1 0 0 0];

internalField   nonuniform List<scalar> 
19968
(
1
1
1
1
1
1
1
1
1
1
1
1
1
1
1
1
1
1
1
1
1
1
1
1
1
1
1
1
1
1
1
1
1
1
1
1
1
1
1
1
1
1
1
1
1
1
1
1
1.0126
2.30148
2.68858
2.69459
2.69956
2.70396
2.70789
2.71151
2.71496
2.71822
2.72136
2.72456
2.72812
2.73231
2.7372
2.74257
2.74787
2.75241
2.75559
2.7573
2.75802
2.75869
2.76019
2.76319
2.7677
2.7729
2.77748
2.78056
2.78238
2.78382
2.78566
2.7882
2.79106
2.79358
2.79541
2.79677
2.79805
2.79949
2.80103
2.80249
2.80374
2.80496
2.80642
2.80823
2.81027
2.81221
2.81362
2.81437
1
1
1
1
1
1
1
1
1
1
1
1
1
1
1
1
1
1
1
1
1
1
1
1
1
1
1
1
1
1
1
1
1
1
1
1
1
1
1
1
1
1
1
1
1
1
1
1
1.00083
2.28813
2.68695
2.69501
2.69974
2.70416
2.70798
2.71148
2.7148
2.71797
2.72104
2.72421
2.7278
2.73203
2.73694
2.74232
2.74763
2.75214
2.7553
2.75702
2.75781
2.75858
2.76018
2.76322
2.76774
2.77286
2.77732
2.78026
2.78199
2.78339
2.78524
2.78781
2.79071
2.79323
2.79506
2.7964
2.79766
2.79907
2.80062
2.80208
2.80335
2.80457
2.80602
2.80781
2.80982
2.81173
2.81314
2.81387
1
1
1
1
1
1
1
1
1
1
1
1
1
1
1
1
1
1
1
1
1
1
1
1
1
1
1
1
1
1
1
1
1
1
1
1
1
1
1
1
1
1
1
1
1
1
1
1
1.00001
2.26258
2.68522
2.69525
2.69993
2.70441
2.70807
2.71137
2.71446
2.71743
2.72036
2.72349
2.72712
2.73146
2.73648
2.74193
2.7473
2.7518
2.75491
2.75662
2.75744
2.75827
2.75998
2.76308
2.76763
2.77269
2.77704
2.77982
2.78142
2.78275
2.78459
2.7872
2.79015
2.79269
2.7945
2.7958
2.79702
2.79841
2.79995
2.80142
2.80271
2.80391
2.80533
2.80705
2.80899
2.81085
2.81224
2.81297
1
1
1
1
1
1
1
1
1
1
1
1
1
1
1
1
1
1
1
1
1
1
1
1
1
1
1
1
1
1
1
1
1
1
1
1
1
1
1
1
1
1
1
1
1
1
1
1
1
2.22226
2.68196
2.69552
2.70021
2.70502
2.70852
2.71152
2.71422
2.71682
2.71945
2.7224
2.72601
2.73046
2.73567
2.7413
2.74682
2.75138
2.75446
2.75615
2.75696
2.75775
2.75946
2.76256
2.7671
2.77209
2.77635
2.77899
2.78047
2.7817
2.78349
2.78611
2.78909
2.79167
2.7935
2.79478
2.79596
2.79733
2.79887
2.80038
2.80171
2.80293
2.80431
2.80596
2.8078
2.8096
2.81095
2.81164
1
1
1
1
1
1
1
1
1
1
1
1
1
1
1
1
1
1
1
1
1
1
1
1
1
1
1
1
1
1
1
1
1
1
1
1
1
1
1
1
1
1
1
1
1
1
1
1
1
2.16341
2.676
2.69524
2.70019
2.7055
2.70893
2.71173
2.71409
2.71629
2.71848
2.721
2.72434
2.72877
2.73417
2.74012
2.74597
2.75078
2.75393
2.75561
2.75635
2.75698
2.75853
2.76146
2.76593
2.77089
2.77518
2.77782
2.77925
2.78038
2.78207
2.78461
2.78759
2.79023
2.79211
2.79339
2.79453
2.79584
2.79736
2.79889
2.80026
2.80151
2.80287
2.80442
2.80612
2.80778
2.80905
2.80966
1
1
1
1
1
1
1
1
1
1
1
1
1
1
1
1
1
1
1
1
1
1
1
1
1
1
1
1
1
1
1
1
1
1
1
1
1
1
1
1
1
1
1
1
1
1
1
1
1
2.08143
2.66621
2.69256
2.69859
2.70494
2.70875
2.71172
2.71394
2.71579
2.7175
2.71945
2.72225
2.72638
2.73188
2.73823
2.74466
2.75001
2.75346
2.75519
2.75582
2.75615
2.75733
2.75989
2.76413
2.76911
2.77357
2.77638
2.77786
2.7789
2.7804
2.78274
2.78563
2.7883
2.79026
2.79157
2.79266
2.79389
2.79535
2.79688
2.7983
2.79959
2.80096
2.80241
2.80392
2.8054
2.80651
2.80698
1
1
1
1
1
1
1
1
1
1
1
1
1
1
1
1
1
1
1
1
1
1
1
1
1
1
1
1
1
1
1
1
1
1
1
1
1
1
1
1
1
1
1
1
1
1
1
1
1
1.97007
2.64953
2.68546
2.6937
2.70164
2.70672
2.71059
2.71306
2.71472
2.71603
2.71739
2.71946
2.72299
2.72828
2.73491
2.74199
2.74816
2.7522
2.75414
2.75468
2.75466
2.75534
2.75739
2.76127
2.76623
2.77092
2.77408
2.77574
2.77673
2.77801
2.78008
2.7828
2.7855
2.78757
2.78895
2.79002
2.79117
2.79256
2.79411
2.79562
2.79703
2.79848
2.79992
2.80129
2.80258
2.8035
2.80381
1
1
1
1
1
1
1
1
1
1
1
1
1
1
1
1
1
1
1
1
1
1
1
1
1
1
1
1
1
1
1
1
1
1
1
1
1
1
1
1
1
1
1
1
1
1
1
1
1
1.82447
2.62068
2.67536
2.68611
2.69534
2.70189
2.70707
2.71047
2.71256
2.71398
2.71509
2.71653
2.71921
2.72383
2.73026
2.73762
2.74448
2.74928
2.75163
2.75224
2.75208
2.75238
2.75385
2.7572
2.76201
2.76689
2.7705
2.77251
2.77361
2.77476
2.77657
2.7791
2.78181
2.78403
2.78554
2.78663
2.7877
2.78899
2.7905
2.79207
2.79357
2.7951
2.79653
2.79778
2.79889
2.79958
2.79972
1
1
1
1
1
1
1
1
1
1
1
1
1
1
1
1
1
1
1
1
1
1
1
1
1
1
1
1
1
1
1
1
1
1
1
1
1
1
1
1
1
1
1
1
1
1
1
1
1
1.62936
2.56977
2.66852
2.68033
2.68948
2.69654
2.70236
2.70665
2.70957
2.71149
2.71276
2.71391
2.71589
2.71962
2.72535
2.7324
2.73953
2.74508
2.74817
2.74926
2.74922
2.74929
2.75031
2.75299
2.75733
2.76214
2.76609
2.76846
2.76975
2.77081
2.77234
2.77459
2.77716
2.77941
2.78099
2.78207
2.78305
2.78423
2.78568
2.78729
2.7889
2.79054
2.79205
2.79334
2.79439
2.79494
2.79502
1
1
1
1
1
1
1
1
1
1
1
1
1
1
1
1
1
1
1
1
1
1
1
1
1
1
1
1
1
1
1
1
1
1
1
1
1
1
1
1
1
1
1
1
1
1
1
1
1
1.36639
2.47939
2.673
2.67668
2.68464
2.69105
2.69686
2.70173
2.70551
2.70822
2.71009
2.71149
2.71318
2.71609
2.72072
2.72678
2.73344
2.73932
2.74324
2.7452
2.74575
2.74585
2.74658
2.74854
2.75216
2.75663
2.76077
2.76362
2.76526
2.76639
2.76773
2.76966
2.77199
2.77416
2.77575
2.77679
2.77763
2.77858
2.77979
2.78122
2.78275
2.78435
2.78586
2.78713
2.78818
2.78868
2.78878
1
1
1
1
1
1
1
1
1
1
1
1
1
1
1
1
1
1
1
1
1
1
1
1
1
1
1
1
1
1
1
1
1
1
1
1
1
1
1
1
1
1
1
1
1
1
1
1
1
1.04838
2.32831
2.68041
2.68218
2.68724
2.69196
2.69626
2.70021
2.70365
2.70657
2.709
2.71088
2.71239
2.71428
2.71721
2.7214
2.72663
2.73207
2.73648
2.7393
2.74065
2.74105
2.74159
2.74288
2.74555
2.74938
2.75348
2.75679
2.75896
2.76033
2.7616
2.76323
2.76525
2.76725
2.76877
2.76974
2.77039
2.77107
2.772
2.77324
2.77468
2.77629
2.77791
2.77938
2.78061
2.78128
2.78155
1
1
1
1
1
1
1
1
1
1
1
1
1
1
1
1
1
1
1
1
1
1
1
1
1
1
1
1
1
1
1
1
1
1
1
1
1
1
1
1
1
1
1
1
1
1
1
1
1
1.00026
2.10157
2.6634
2.67211
2.67644
2.68168
2.68644
2.69088
2.69496
2.69875
2.70216
2.70498
2.70704
2.70875
2.71086
2.71379
2.7177
2.72229
2.72676
2.73025
2.73255
2.73373
2.73443
2.73543
2.7373
2.74035
2.74409
2.74766
2.75038
2.75217
2.75352
2.75496
2.75671
2.75856
2.76011
2.7611
2.76168
2.76215
2.76278
2.76364
2.76471
2.76592
2.76724
2.76857
2.76975
2.77046
2.77081
1
1
1
1
1
1
1
1
1
1
1
1
1
1
1
1
1
1
1
1
1
1
1
1
1
1
1
1
1
1
1
1
1
1
1
1
1
1
1
1
1
1
1
1
1
1
1
1
1
1
1.73879
2.59075
2.66336
2.66855
2.67383
2.67846
2.6828
2.68693
2.69099
2.69489
2.69839
2.70124
2.7035
2.70568
2.70816
2.71116
2.71473
2.71858
2.7221
2.72489
2.7268
2.72785
2.72869
2.72983
2.73184
2.7347
2.73791
2.74075
2.74279
2.74414
2.74526
2.74654
2.74795
2.74914
2.74975
2.74986
2.74975
2.74963
2.74972
2.75019
2.75115
2.75253
2.75404
2.75541
2.75624
2.75668
1
1
1
1
1
1
1
1
1
1
1
1
1
1
1
1
1
1
1
1
1
1
1
1
1
1
1
1
1
1
1
1
1
1
1
1
1
1
1
1
1
1
1
1
1
1
1
1
1
1
1.20802
2.39515
2.65842
2.66082
2.66598
2.66956
2.67317
2.6769
2.6808
2.68479
2.68867
2.6922
2.69521
2.69785
2.70037
2.70297
2.7058
2.70891
2.71207
2.7149
2.7172
2.71877
2.71969
2.72044
2.72153
2.72333
2.72577
2.7283
2.73034
2.73164
2.7325
2.73331
2.73415
2.73491
2.73526
2.73514
2.73473
2.7342
2.73385
2.73384
2.73407
2.73447
2.73451
2.73387
2.7323
2.73055
1
1
1
1
1
1
1
1
1
1
1
1
1
1
1
1
1
1
1
1
1
1
1
1
1
1
1
1
1
1
1
1
1
1
1
1
1
1
1
1
1
1
1
1
1
1
1
1
1
1
1.00283
2.06088
2.64306
2.64433
2.64695
2.6512
2.65606
2.66074
2.66522
2.66959
2.67386
2.6779
2.68161
2.685
2.68811
2.69102
2.69383
2.69665
2.69951
2.70227
2.70475
2.70675
2.70805
2.70879
2.70937
2.71028
2.71171
2.71346
2.71504
2.7161
2.71657
2.71667
2.71667
2.71658
2.71618
2.71523
2.71362
2.71144
2.70888
2.70615
2.70348
2.7011
2.69946
2.69776
2.6966
2.69574
1
1
1
1
1
1
1
1
1
1
1
1
1
1
1
1
1
1
1
1
1
1
1
1
1
1
1
1
1
1
1
1
1
1
1
1
1
1
1
1
1
1
1
1
1
1
1
1
1
1
1
1.41949
2.45881
2.62396
2.63287
2.64056
2.64543
2.6493
2.6528
2.65632
2.65994
2.66361
2.66726
2.67085
2.67433
2.67762
2.68067
2.6835
2.68614
2.68865
2.69097
2.69299
2.69459
2.69559
2.69608
2.69632
2.69664
2.69717
2.69769
2.69791
2.69767
2.69694
2.69577
2.69427
2.69241
2.69001
2.68688
2.68299
2.67846
2.67355
2.6684
2.66352
2.65986
2.6602
2.65918
2.67427
1
1
1
1
1
1
1
1
1
1
1
1
1
1
1
1
1
1
1
1
1
1
1
1
1
1
1
1
1
1
1
1
1
1
1
1
1
1
1
1
1
1
1
1
1
1
1
1
1
1
1
1.01447
2.15937
2.63273
2.63247
2.63414
2.63705
2.63981
2.64232
2.64488
2.64765
2.65062
2.65377
2.65709
2.66053
2.66393
2.66708
2.6699
2.67238
2.67462
2.67672
2.67854
2.68022
2.68153
2.68215
2.6821
2.68178
2.6813
2.6807
2.67991
2.67875
2.67706
2.67471
2.67173
2.66812
2.66376
2.65834
2.65156
2.6429
2.63193
2.61705
2.59722
2.56866
2.52876
2.46766
2.34326
1
1
1
1
1
1
1
1
1
1
1
1
1
1
1
1
1
1
1
1
1
1
1
1
1
1
1
1
1
1
1
1
1
1
1
1
1
1
1
1
1
1
1
1
1
1
1
1
1
1
1
1
1.65538
2.52826
2.62563
2.62759
2.63188
2.63428
2.63624
2.63803
2.63991
2.64197
2.64424
2.64678
2.64964
2.65272
2.65558
2.65817
2.66044
2.66244
2.66417
2.66569
2.6672
2.66859
2.66944
2.6694
2.66884
2.66775
2.66626
2.66448
2.66233
2.65965
2.65618
2.65179
2.64635
2.63984
2.63179
2.62198
2.60908
2.59264
2.56968
2.53935
2.49568
2.44107
2.32996
2.17025
1
1
1
1
1
1
1
1
1
1
1
1
1
1
1
1
1
1
1
1
1
1
1
1
1
1
1
1
1
1
1
1
1
1
1
1
1
1
1
1
1
1
1
1
1
1
1
1
1
1
1
0.999998
1.05349
2.29741
2.62879
2.62665
2.62777
2.63026
2.63176
2.63267
2.6335
2.63449
2.63572
2.63727
2.63925
2.64164
2.64381
2.64582
2.64758
2.6491
2.65037
2.65145
2.65254
2.65364
2.65452
2.65462
2.65408
2.65276
2.65065
2.648
2.64483
2.64111
2.63648
2.63077
2.62353
2.61487
2.60418
2.5914
2.57505
2.5542
2.52656
2.48952
2.4411
2.36877
2.26349
2.13315
1
1
1
1
1
1
1
1
1
1
1
1
1
1
1
1
1
1
1
1
1
1
1
1
1
1
1
1
1
1
1
1
1
1
1
1
1
1
1
1
1
1
1
1
1
1
1
1
1
1
1
1
1.00018
1.85631
2.55377
2.60682
2.61401
2.61982
2.62257
2.62417
2.62537
2.62645
2.62745
2.62848
2.62978
2.63145
2.63293
2.63421
2.63529
2.63614
2.63679
2.63721
2.63762
2.6381
2.63864
2.63869
2.6382
2.63684
2.63442
2.63115
2.62709
2.62237
2.61665
2.60975
2.60103
2.59048
2.57758
2.56218
2.54335
2.51978
2.48999
2.4508
2.40109
2.3323
2.24823
2.14914
1
1
1
1
1
1
1
1
1
1
1
1
1
1
1
1
1
1
1
1
1
1
1
1
1
1
1
1
1
1
1
1
1
1
1
1
1
1
1
1
1
1
1
1
1
1
1
1
1
1
1
1
1
1.14366
2.33777
2.60477
2.6028
2.60587
2.60983
2.61306
2.6155
2.61729
2.6186
2.61968
2.62081
2.62211
2.62306
2.62365
2.62391
2.62389
2.62374
2.62338
2.62298
2.62258
2.62225
2.62183
2.62101
2.61952
2.61697
2.61339
2.60872
2.60319
2.59658
2.58876
2.57912
2.56736
2.55303
2.53588
2.51544
2.49056
2.46061
2.42219
2.37578
2.3183
2.25183
2.1732
1
1
1
1
1
1
1
1
1
1
1
1
1
1
1
1
1
1
1
1
1
1
1
1
1
1
1
1
1
1
1
1
1
1
1
1
1
1
1
1
1
1
1
1
1
1
1
1
1
1
1
1
1
1.00144
1.90731
2.54555
2.58174
2.58823
2.59373
2.59829
2.60201
2.60477
2.60696
2.60892
2.61067
2.6122
2.61295
2.61308
2.61282
2.61222
2.61136
2.61027
2.60901
2.60759
2.60616
2.60483
2.6033
2.60141
2.59864
2.59486
2.58984
2.58373
2.57647
2.56797
2.55781
2.54553
2.53066
2.51282
2.49182
2.46666
2.4374
2.40174
2.36082
2.31281
2.25901
2.19512
1
1
1
1
1
1
1
1
1
1
1
1
1
1
1
1
1
1
1
1
1
1
1
1
1
1
1
1
1
1
1
1
1
1
1
1
1
1
1
1
1
1
1
1
1
1
1
1
1
1
1
1
1
1
1.1251
2.31891
2.58443
2.58083
2.58262
2.58556
2.58855
2.59127
2.59378
2.59619
2.59839
2.60021
2.60137
2.60171
2.60143
2.60066
2.59943
2.59789
2.59606
2.5939
2.59156
2.58916
2.58656
2.58379
2.58042
2.57622
2.57088
2.56436
2.55663
2.54766
2.53725
2.52494
2.51028
2.49278
2.47236
2.44787
2.41979
2.38766
2.35181
2.31015
2.2654
2.21299
1
1
1
1
1
1
1
1
1
1
1
1
1
1
1
1
1
1
1
1
1
1
1
1
1
1
1
1
1
1
1
1
1
1
1
1
1
1
1
1
1
1
1
1
1
1
1
1
1
1
1
1
1
1
1.00106
1.82501
2.50787
2.5594
2.56638
2.57018
2.5731
2.57574
2.5782
2.58074
2.58324
2.58552
2.58738
2.58842
2.58836
2.58775
2.58655
2.58494
2.58292
2.58041
2.57745
2.57415
2.57052
2.56673
2.56248
2.55763
2.55184
2.54498
2.53694
2.52772
2.5172
2.50504
2.49093
2.47431
2.45539
2.43245
2.40635
2.37768
2.34567
2.30925
2.27167
2.22728
1
1
1
1
1
1
1
1
1
1
1
1
1
1
1
1
1
1
1
1
1
1
1
1
1
1
1
1
1
1
1
1
1
1
1
1
1
1
1
1
1
1
1
1
1
1
1
1
1
1
1
1
1
1
1
1.09195
2.22604
2.55525
2.5548
2.55626
2.55894
2.5617
2.56387
2.56593
2.56803
2.57017
2.57216
2.57367
2.57422
2.5739
2.57297
2.57156
2.56962
2.56725
2.56423
2.56061
2.55642
2.55181
2.54665
2.54097
2.53449
2.5271
2.51864
2.50909
2.4984
2.48628
2.47273
2.45694
2.43965
2.41881
2.39529
2.36984
2.34124
2.30953
2.2768
2.23848
1
1
1
1
1
1
1
1
1
1
1
1
1
1
1
1
1
1
1
1
1
1
1
1
1
1
1
1
1
1
1
1
1
1
1
1
1
1
1
1
1
1
1
1
1
1
1
1
1
1
1
1
1
1
1
1.00056
1.53395
2.40506
2.52739
2.53588
2.54168
2.54594
2.54848
2.55047
2.55224
2.55406
2.5559
2.55749
2.55839
2.55829
2.5576
2.55643
2.55474
2.55265
2.54996
2.5465
2.54223
2.53722
2.53149
2.52516
2.51807
2.51022
2.50144
2.49163
2.48093
2.46876
2.45566
2.44037
2.42435
2.40568
2.38469
2.36235
2.33709
2.30932
2.28023
2.24731
1
1
1
1
1
1
1
1
1
1
1
1
1
1
1
1
1
1
1
1
1
1
1
1
1
1
1
1
1
1
1
1
1
1
1
1
1
1
1
1
1
1
1
1
1
1
1
1
1
1
1
1
1
1
1
1
1.02832
2.00576
2.50663
2.52556
2.53094
2.53444
2.5363
2.53777
2.53892
2.54008
2.54131
2.54233
2.54286
2.54272
2.54204
2.54093
2.53936
2.53742
2.53503
2.53203
2.52809
2.52323
2.51746
2.51095
2.50363
2.49551
2.48651
2.47646
2.46572
2.45328
2.44031
2.42536
2.41014
2.39321
2.37414
2.35455
2.33203
2.30789
2.28191
2.25383
1
1
1
1
1
1
1
1
1
1
1
1
1
1
1
1
1
1
1
1
1
1
1
1
1
1
1
1
1
1
1
1
1
1
1
1
1
1
1
1
1
1
1
1
1
1
1
1
1
1
1
1
1
1
1
1
1.00006
1.16992
2.25384
2.51595
2.51837
2.5203
2.52126
2.52282
2.52397
2.52504
2.526
2.52637
2.52639
2.52621
2.52544
2.52434
2.52284
2.52105
2.5189
2.51622
2.51266
2.50824
2.50277
2.49645
2.48929
2.48132
2.4725
2.46254
2.45191
2.43954
2.4267
2.41229
2.39758
2.38173
2.36415
2.34643
2.32599
2.30508
2.28171
2.25766
1
1
1
1
1
1
1
1
1
1
1
1
1
1
1
1
1
1
1
1
1
1
1
1
1
1
1
1
1
1
1
1
1
1
1
1
1
1
1
1
1
1
1
1
1
1
1
1
1
1
1
1
1
1
1
1
1
1.00192
1.59809
2.39758
2.49771
2.49698
2.50008
2.50353
2.50607
2.50823
2.50965
2.50994
2.50983
2.5097
2.50898
2.50806
2.50665
2.50493
2.50289
2.50034
2.49702
2.49282
2.48776
2.48189
2.47519
2.46764
2.45928
2.44975
2.43944
2.42763
2.41515
2.40128
2.38702
2.37185
2.35556
2.33866
2.31996
2.3012
2.28035
2.25921
1
1
1
1
1
1
1
1
1
1
1
1
1
1
1
1
1
1
1
1
1
1
1
1
1
1
1
1
1
1
1
1
1
1
1
1
1
1
1
1
1
1
1
1
1
1
1
1
1
1
1
1
1
1
1
1
1
1
1.03748
1.96034
2.4732
2.48493
2.48895
2.49223
2.49384
2.49522
2.49559
2.49527
2.49463
2.49399
2.49308
2.4921
2.4907
2.48911
2.48716
2.48462
2.48131
2.47717
2.47235
2.46669
2.46032
2.45328
2.44556
2.43683
2.42729
2.41641
2.4047
2.39156
2.3779
2.36337
2.34812
2.33178
2.31472
2.29711
2.27836
2.25915
1
1
1
1
1
1
1
1
1
1
1
1
1
1
1
1
1
1
1
1
1
1
1
1
1
1
1
1
1
1
1
1
1
1
1
1
1
1
1
1
1
1
1
1
1
1
1
1
1
1
1
1
1
1
1
1
1
1
1.00012
1.1501
2.13587
2.46993
2.48448
2.48283
2.48399
2.48394
2.48316
2.48202
2.4807
2.47937
2.47806
2.47687
2.47543
2.474
2.47218
2.4696
2.46624
2.462
2.45718
2.45166
2.44548
2.43884
2.4317
2.42374
2.41502
2.40522
2.39451
2.38243
2.36963
2.35593
2.3415
2.32589
2.31019
2.29339
2.27625
2.25854
1
1
1
1
1
1
1
1
1
1
1
1
1
1
1
1
1
1
1
1
1
1
1
1
1
1
1
1
1
1
1
1
1
1
1
1
1
1
1
1
1
1
1
1
1
1
1
1
1
1
1
1
1
1
1
1
1
1
1
1.00151
1.28526
2.26228
2.46991
2.46812
2.46908
2.46817
2.46711
2.46598
2.46487
2.4637
2.46257
2.46153
2.46035
2.45915
2.45746
2.45504
2.45183
2.44765
2.44267
2.43724
2.43121
2.42465
2.41776
2.4104
2.40249
2.39374
2.38406
2.37316
2.36138
2.34865
2.33497
2.32027
2.30568
2.28983
2.27401
2.25754
1
1
1
1
1
1
1
1
1
1
1
1
1
1
1
1
1
1
1
1
1
1
1
1
1
1
1
1
1
1
1
1
1
1
1
1
1
1
1
1
1
1
1
1
1
1
1
1
1
1
1
1
1
1
1
1
1
1
1
1
1.00596
1.62478
2.35881
2.44709
2.44349
2.44422
2.44539
2.44643
2.44696
2.44696
2.44663
2.44597
2.44514
2.44409
2.4426
2.44047
2.43761
2.43377
2.4288
2.42344
2.41767
2.4112
2.40443
2.39749
2.39017
2.38225
2.37341
2.36358
2.35277
2.34099
2.32802
2.31457
2.30088
2.2861
2.27133
2.25605
1
1
1
1
1
1
1
1
1
1
1
1
1
1
1
1
1
1
1
1
1
1
1
1
1
1
1
1
1
1
1
1
1
1
1
1
1
1
1
1
1
1
1
1
1
1
1
1
1
1
1
1
1
1
1
1
1
1
1
1
1.00001
1.04261
1.86419
2.40157
2.43148
2.42811
2.42958
2.43061
2.43153
2.43186
2.43173
2.43132
2.43058
2.42946
2.42791
2.42587
2.42319
2.41971
2.4152
2.41011
2.40466
2.39857
2.3921
2.38542
2.37847
2.37106
2.36285
2.35381
2.34378
2.33267
2.32054
2.30832
2.29536
2.28168
2.26791
2.25389
1
1
1
1
1
1
1
1
1
1
1
1
1
1
1
1
1
1
1
1
1
1
1
1
1
1
1
1
1
1
1
1
1
1
1
1
1
1
1
1
1
1
1
1
1
1
1
1
1
1
1
1
1
1
1
1
1
1
1
1
1
1.00017
1.11322
1.97837
2.39573
2.42008
2.41948
2.42001
2.41969
2.4192
2.41838
2.41741
2.41617
2.41467
2.41289
2.41076
2.40814
2.40489
2.40088
2.39628
2.39125
2.38575
2.37989
2.37374
2.36729
2.36035
2.35269
2.34426
2.33475
2.32409
2.31287
2.30153
2.2892
2.27646
2.26365
2.25081
1
1
1
1
1
1
1
1
1
1
1
1
1
1
1
1
1
1
1
1
1
1
1
1
1
1
1
1
1
1
1
1
1
1
1
1
1
1
1
1
1
1
1
1
1
1
1
1
1
1
1
1
1
1
1
1
1
1
1
1
1
1
1.00093
1.18058
2.03796
2.38043
2.41164
2.41123
2.41038
2.40904
2.40751
2.40574
2.40372
2.4015
2.39908
2.39647
2.39355
2.39021
2.3864
2.38215
2.37752
2.37256
2.36733
2.36181
2.35592
2.34949
2.34236
2.33447
2.32546
2.3153
2.30491
2.29424
2.28256
2.27057
2.25869
2.24689
1
1
1
1
1
1
1
1
1
1
1
1
1
1
1
1
1
1
1
1
1
1
1
1
1
1
1
1
1
1
1
1
1
1
1
1
1
1
1
1
1
1
1
1
1
1
1
1
1
1
1
1
1
1
1
1
1
1
1
1
1
1
1
1.00229
1.23866
2.07721
2.36744
2.39806
2.39772
2.39718
2.39602
2.39435
2.39208
2.38949
2.3867
2.38363
2.38024
2.37656
2.37262
2.3684
2.3639
2.35919
2.35431
2.34919
2.34373
2.33775
2.33113
2.3238
2.31552
2.30622
2.29667
2.28672
2.27585
2.26456
2.25349
2.24254
1
1
1
1
1
1
1
1
1
1
1
1
1
1
1
1
1
1
1
1
1
1
1
1
1
1
1
1
1
1
1
1
1
1
1
1
1
1
1
1
1
1
1
1
1
1
1
1
1
1
1
1
1
1
1
1
1
1
1
1
1
1
1
1
1.00411
1.29078
2.10553
2.35346
2.37875
2.38089
2.38136
2.38061
2.37921
2.37724
2.37479
2.37175
2.36821
2.36438
2.36029
2.35594
2.35133
2.34654
2.34161
2.33652
2.33123
2.3256
2.31948
2.31282
2.30542
2.29714
2.28838
2.27918
2.26925
2.25874
2.24835
2.23809
1
1
1
1
1
1
1
1
1
1
1
1
1
1
1
1
1
1
1
1
1
1
1
1
1
1
1
1
1
1
1
1
1
1
1
1
1
1
1
1
1
1
1
1
1
1
1
1
1
1
1
1
1
1
1
1
1
1
1
1
1
1
1
1
1.00001
1.00634
1.33546
2.12337
2.33729
2.3595
2.362
2.36339
2.36334
2.36275
2.36112
2.3587
2.35575
2.35234
2.34847
2.34415
2.33949
2.33458
2.32949
2.32427
2.31892
2.31338
2.30752
2.30129
2.29459
2.28726
2.27933
2.27098
2.26208
2.2526
2.24295
2.23345
1
1
1
1
1
1
1
1
1
1
1
1
1
1
1
1
1
1
1
1
1
1
1
1
1
1
1
1
1
1
1
1
1
1
1
1
1
1
1
1
1
1
1
1
1
1
1
1
1
1
1
1
1
1
1
1
1
1
1
1
1
1
1
1
1
1.00001
1.00881
1.36859
2.12807
2.32416
2.34141
2.34288
2.34462
2.34468
2.34436
2.3433
2.34148
2.3389
2.33556
2.33168
2.32744
2.32284
2.31789
2.31266
2.30728
2.30174
2.296
2.28999
2.28374
2.27709
2.26993
2.26235
2.25439
2.24597
2.23712
2.22838
1
1
1
1
1
1
1
1
1
1
1
1
1
1
1
1
1
1
1
1
1
1
1
1
1
1
1
1
1
1
1
1
1
1
1
1
1
1
1
1
1
1
1
1
1
1
1
1
1
1
1
1
1
1
1
1
1
1
1
1
1
1
1
1
1
1
1.00002
1.01106
1.38602
2.12588
2.30952
2.32623
2.32558
2.32591
2.32551
2.325
2.32408
2.32252
2.32028
2.31745
2.31408
2.31019
2.30581
2.3011
2.29609
2.29083
2.28532
2.27953
2.27355
2.26734
2.26073
2.2537
2.24643
2.23884
2.23078
2.22273
1
1
1
1
1
1
1
1
1
1
1
1
1
1
1
1
1
1
1
1
1
1
1
1
1
1
1
1
1
1
1
1
1
1
1
1
1
1
1
1
1
1
1
1
1
1
1
1
1
1
1
1
1
1
1
1
1
1
1
1
1
1
1
1
1
1
1
1.00003
1.01245
1.38996
2.11149
2.29552
2.31179
2.30949
2.30839
2.30688
2.30567
2.30417
2.30246
2.3005
2.29817
2.29539
2.29217
2.28851
2.28439
2.27982
2.27486
2.26953
2.26391
2.25808
2.25191
2.2453
2.23848
2.23144
2.22404
2.21653
1
1
1
1
1
1
1
1
1
1
1
1
1
1
1
1
1
1
1
1
1
1
1
1
1
1
1
1
1
1
1
1
1
1
1
1
1
1
1
1
1
1
1
1
1
1
1
1
1
1
1
1
1
1
1
1
1
1
1
1
1
1
1
1
1
1
1
1
1.00003
1.0128
1.37879
2.08463
2.28011
2.29782
2.29401
2.29204
2.28966
2.28735
2.2852
2.28322
2.28128
2.27924
2.27702
2.27446
2.27145
2.26792
2.26388
2.25934
2.25433
2.249
2.24328
2.23711
2.23064
2.22396
2.21704
2.20994
1
1
1
1
1
1
1
1
1
1
1
1
1
1
1
1
1
1
1
1
1
1
1
1
1
1
1
1
1
1
1
1
1
1
1
1
1
1
1
1
1
1
1
1
1
1
1
1
1
1
1
1
1
1
1
1
1
1
1
1
1
1
1
1
1
1
1
1
1
1.00003
1.01199
1.35148
2.0409
2.25939
2.2846
2.27955
2.27672
2.27356
2.27066
2.26808
2.26579
2.26373
2.26177
2.25974
2.25742
2.25469
2.25151
2.2478
2.24358
2.2389
2.23379
2.22822
2.22222
2.21596
2.2095
2.20282
1
1
1
1
1
1
1
1
1
1
1
1
1
1
1
1
1
1
1
1
1
1
1
1
1
1
1
1
1
1
1
1
1
1
1
1
1
1
1
1
1
1
1
1
1
1
1
1
1
1
1
1
1
1
1
1
1
1
1
1
1
1
1
1
1
1
1
1
1
1
1.00003
1.01011
1.30817
1.96943
2.23514
2.27002
2.26454
2.26136
2.25851
2.25585
2.25339
2.25105
2.24879
2.24653
2.24412
2.24148
2.23852
2.23521
2.23149
2.22736
2.22284
2.21791
2.21255
2.20686
2.20094
2.19481
1
1
1
1
1
1
1
1
1
1
1
1
1
1
1
1
1
1
1
1
1
1
1
1
1
1
1
1
1
1
1
1
1
1
1
1
1
1
1
1
1
1
1
1
1
1
1
1
1
1
1
1
1
1
1
1
1
1
1
1
1
1
1
1
1
1
1
1
1
1
1
1.00002
1.00758
1.24704
1.86804
2.20455
2.25312
2.24867
2.2474
2.24557
2.24335
2.24086
2.23825
2.23548
2.23256
2.22948
2.22621
2.22274
2.21906
2.2151
2.21086
2.20636
2.20154
2.19643
2.19112
2.1856
1
1
1
1
1
1
1
1
1
1
1
1
1
1
1
1
1
1
1
1
1
1
1
1
1
1
1
1
1
1
1
1
1
1
1
1
1
1
1
1
1
1
1
1
1
1
1
1
1
1
1
1
1
1
1
1
1
1
1
1
1
1
1
1
1
1
1
1
1
1
1
1
1.00002
1.00487
1.17395
1.75512
2.1648
2.234
2.23342
2.23281
2.23121
2.2293
2.22696
2.22424
2.22126
2.21801
2.21454
2.2109
2.20705
2.203
2.1988
2.19439
2.18982
2.18512
2.18021
2.17517
1
1
1
1
1
1
1
1
1
1
1
1
1
1
1
1
1
1
1
1
1
1
1
1
1
1
1
1
1
1
1
1
1
1
1
1
1
1
1
1
1
1
1
1
1
1
1
1
1
1
1
1
1
1
1
1
1
1
1
1
1
1
1
1
1
1
1
1
1
1
1
1
1
1.00001
1.00254
1.11021
1.64007
2.1207
2.21054
2.21929
2.21613
2.21522
2.21347
2.21142
2.20897
2.20612
2.20295
2.19946
2.19568
2.19173
2.18752
2.18308
2.17862
2.17397
2.16924
2.16454
1
1
1
1
1
1
1
1
1
1
1
1
1
1
1
1
1
1
1
1
1
1
1
1
1
1
1
1
1
1
1
1
1
1
1
1
1
1
1
1
1
1
1
1
1
1
1
1
1
1
1
1
1
1
1
1
1
1
1
1
1
1
1
1
1
1
1
1
1
1
1
1
1
1
1
1.00114
1.06398
1.52618
2.05529
2.18553
2.20995
2.20178
2.20034
2.19831
2.19595
2.1934
2.19061
2.18751
2.18416
2.18047
2.17644
2.1723
2.16792
2.16334
2.15886
2.15424
1
1
1
1
1
1
1
1
1
1
1
1
1
1
1
1
1
1
1
1
1
1
1
1
1
1
1
1
1
1
1
1
1
1
1
1
1
1
1
1
1
1
1
1
1
1
1
1
1
1
1
1
1
1
1
1
1
1
1
1
1
1
1
1
1
1
1
1
1
1
1
1
1
1
1
1
1.00046
1.03403
1.40659
1.95548
2.1643
2.19362
2.18945
2.18656
2.18371
2.18107
2.17817
2.17525
2.17216
2.16876
2.1653
2.16153
2.15735
2.15324
2.14883
2.14424
1
1
1
1
1
1
1
1
1
1
1
1
1
1
1
1
1
1
1
1
1
1
1
1
1
1
1
1
1
1
1
1
1
1
1
1
1
1
1
1
1
1
1
1
1
1
1
1
1
1
1
1
1
1
1
1
1
1
1
1
1
1
1
1
1
1
1
1
1
1
1
1
1
1
1
1
1
1.00017
1.01634
1.28148
1.82473
2.1293
2.17862
2.17649
2.17263
2.16974
2.16707
2.16416
2.16101
2.15789
2.15461
2.15103
2.14734
2.14339
2.13899
2.13465
1
1
1
1
1
1
1
1
1
1
1
1
1
1
1
1
1
1
1
1
1
1
1
1
1
1
1
1
1
1
1
1
1
1
1
1
1
1
1
1
1
1
1
1
1
1
1
1
1
1
1
1
1
1
1
1
1
1
1
1
1
1
1
1
1
1
1
1
1
1
1
1
1
1
1
1
1
1
1.00005
1.00695
1.16696
1.66972
2.08097
2.15076
2.16658
2.15997
2.15688
2.15422
2.15129
2.14808
2.1445
2.14096
2.1374
2.13333
2.12954
2.12549
1
1
1
1
1
1
1
1
1
1
1
1
1
1
1
1
1
1
1
1
1
1
1
1
1
1
1
1
1
1
1
1
1
1
1
1
1
1
1
1
1
1
1
1
1
1
1
1
1
1
1
1
1
1
1
1
1
1
1
1
1
1
1
1
1
1
1
1
1
1
1
1
1
1
1
1
1
1
1
1.00002
1.00251
1.08234
1.51907
1.98711
2.12725
2.1527
2.14878
2.14518
2.14242
2.13935
2.13536
2.1312
2.12712
2.12334
2.12021
2.11645
1
1
1
1
1
1
1
1
1
1
1
1
1
1
1
1
1
1
1
1
1
1
1
1
1
1
1
1
1
1
1
1
1
1
1
1
1
1
1
1
1
1
1
1
1
1
1
1
1
1
1
1
1
1
1
1
1
1
1
1
1
1
1
1
1
1
1
1
1
1
1
1
1
1
1
1
1
1
1
1
1
1.00074
1.0354
1.36243
1.85212
2.09463
2.1396
2.13795
2.13359
2.1294
2.12582
2.12194
2.11784
2.11458
2.11092
2.10725
1
1
1
1
1
1
1
1
1
1
1
1
1
1
1
1
1
1
1
1
1
1
1
1
1
1
1
1
1
1
1
1
1
1
1
1
1
1
1
1
1
1
1
1
1
1
1
1
1
1
1
1
1
1
1
1
1
1
1
1
1
1
1
1
1
1
1
1
1
1
1
1
1
1
1
1
1
1
1
1
1
1
1.00019
1.01322
1.21073
1.68556
2.04807
2.10975
2.12567
2.11955
2.11611
2.11336
2.11058
2.10736
2.10275
2.09899
1
1
1
1
1
1
1
1
1
1
1
1
1
1
1
1
1
1
1
1
1
1
1
1
1
1
1
1
1
1
1
1
1
1
1
1
1
1
1
1
1
1
1
1
1
1
1
1
1
1
1
1
1
1
1
1
1
1
1
1
1
1
1
1
1
1
1
1
1
1
1
1
1
1
1
1
1
1
1
1
1
1
1
1.00004
1.00411
1.09844
1.51508
1.94142
2.08313
2.11161
2.1087
2.1038
2.1011
2.09865
2.09515
2.09156
1
1
1
1
1
1
1
1
1
1
1
1
1
1
1
1
1
1
1
1
1
1
1
1
1
1
1
1
1
1
1
1
1
1
1
1
1
1
1
1
1
1
1
1
1
1
1
1
1
1
1
1
1
1
1
1
1
1
1
1
1
1
1
1
1
1
1
1
1
1
1
1
1
1
1
1
1
1
1
1
1
1
1
1
1.00001
1.00107
1.03731
1.33821
1.77765
2.04973
2.09825
2.09659
2.09302
2.08916
2.08443
2.08114
1
1
1
1
1
1
1
1
1
1
1
1
1
1
1
1
1
1
1
1
1
1
1
1
1
1
1
1
1
1
1
1
1
1
1
1
1
1
1
1
1
1
1
1
1
1
1
1
1
1
1
1
1
1
1
1
1
1
1
1
1
1
1
1
1
1
1
1
1
1
1
1
1
1
1
1
1
1
1
1
1
1
1
1
1
1
1.00021
1.01198
1.16958
1.61179
1.97146
2.05776
2.08411
2.08146
2.07878
2.07579
1
1
1
1
1
1
1
1
1
1
1
1
1
1
1
1
1
1
1
1
1
1
1
1
1
1
1
1
1
1
1
1
1
1
1
1
1
1
1
1
1
1
1
1
1
1
1
1
1
1
1
1
1
1
1
1
1
1
1
1
1
1
1
1
1
1
1
1
1
1
1
1
1
1
1
1
1
1
1
1
1
1
1
1
1
1
1
1.00004
1.00292
1.07116
1.41622
1.83682
2.0198
2.06671
2.07311
2.06948
1
1
1
1
1
1
1
1
1
1
1
1
1
1
1
1
1
1
1
1
1
1
1
1
1
1
1
1
1
1
1
1
1
1
1
1
1
1
1
1
1
1
1
1
1
1
1
1
1
1
1
1
1
1
1
1
1
1
1
1
1
1
1
1
1
1
1
1
1
1
1
1
1
1
1
1
1
1
1
1
1
1
1
1
1
1
1
1
1
1.00064
1.02164
1.23251
1.64263
1.94828
2.04854
2.06307
1
1
1
1
1
1
1
1
1
1
1
1
1
1
1
1
1
1
1
1
1
1
1
1
1
1
1
1
1
1
1
1
1
1
1
1
1
1
1
1
1
1
1
1
1
1
1
1
1
1
1
1
1
1
1
1
1
1
1
1
1
1
1
1
1
1
1
1
1
1
1
1
1
1
1
1
1
1
1
1
1
1
1
1
1
1
1
1
1
1
1.00009
1.00533
1.09304
1.44132
1.82627
2.01107
1
1
1
1
1
1
1
1
1
1
1
1
1
1
1
1
1
1
1
1
1
1
1
1
1
1
1
1
1
1
1
1
1
1
1
1
1
1
1
1
1
1
1
1
1
1
1
1
1
1
1
1
1
1
1
1
1
1
1
1
1
1
1
1
1
1
1
1
1
1
1
1
1
1
1
1
1
1
1
1
1
1
1
1
1
1
1
1
1
1
1
1.00001
1.00101
1.02841
1.24592
1.67936
1
1
1
1
1
1
1
1
1
1
1
1
1
1
1
1
1
1
1
1
1
1
1
1
1
1
1
1
1
1
1
1
1
1
1
1
1
1
1
1
1
1
1
1
1
1
1
1
1
1
1
1
1
1
1
1
1
1
1
1
1
1
1
1
1
1
1
1
1
1
1
1
1
1
1
1
1
1
1
1
1
1
1
1
1
1
1
1
1
1
1
1
1
1.00015
1.00681
1.10968
1
1
1
1
1
1
1
1
1
1
1
1
1
1
1
1
1
1
1
1
1
1
1
1
1
1
1
1
1
1
1
1
1
1
1
1
1
1
1
1
1
1
1
1
1
1
1
1
1
1
1
1
1
1
1
1
1
1
1
1
1
1
1
1
1
1
1
1
1
1
1
1
1
1
1
1
1
1
1
1
1
1
1
1
1
1
1
1
1
1
1
1
1
1
1.00002
1.0012
1
1
1
1
1
1
1
1
1
1
1
1
1
1
1
1
1
1
1
1
1
1
1
1
1
1
1
1
1
1
1
1
1
1
1
1
1
1
1
1
1
1
1
1
1
1
1
1
1
1
1
1
1
1
1
1
1
1
1
1
1
1
1
1
1
1
1
1
1
1
1
1
1
1
1
1
1
1
1
1
1
1
1
1
1
1
1
1
1
1
1
1
1
1
1
1
1
1
1
1
1
1
1
1
1
1
1
1
1
1
1
1
1
1
1
1
1
1
1
1
1
1
1
1
1
1
1
1
1
1
1
1
1
1
1
1
1
1
1
1
1
1
1
1
1
1
1
1
1
1
1
1
1
1
1
1
1
1
1
1
1
1
1
1
1
1
1
1
1
1
1
1
1
1
1
1
1
1
1
1
1
1
1
1
1
1
1
1
1
1
1
1
1
1
1
1
1
1
1
1
1
1
1
1
1
1
1
1
1
1
1
1
1
1
1
1
1
1
1
1
1
1
1
1
1
1
1
1
1
1
1
1
1
1
1
1
1
1
1
1
1
1
1
1
1
1
1
1
1
1
1
1
1
1
1
1
1
1
1
1
1
1
1
1
1
1
1
1
1
1
1
1
1
1
1
1
1
1
1
1
1
1
1
1
1
1
1
1
1
1
1
1
1
1
1
1
1
1
1
1
1
1
1
1
1
1
1
1
1
1
1
1
1
1
1
1
1
1
1
1
1
1
1
1
1
1
1
1
1
1
1
1
1
1
1
1
1
1
1
1
1
1
1
1
1
1
1
1
1
1
1
1
1
1
1
1
1
1
1
1
1
1
1
1
1
1
1
1
1
1
1
1
1
1
1
1
1
1
1
1
1
1
1
1
1
1
1
1
1
1
1
1
1
1
1
1
1
1
1
1
1
1
1
1
1
1
1
1
1
1
1
1
1
1
1
1
1
1
1
1
1
1
1
1
1
1
1
1
1
1
1
1
1
1
1
1
1
1
1
1
1
1
1
1
1
1
1
1
1
1
1
1
1
1
1
1
1
1
1
1
1
1
1
1
1
1
1
1
1
1
1
1
1
1
1
1
1
1
1
1
1
1
1
1
1
1
1
1
1
1
1
1
1
1
1
1
1
1
1
1
1
1
1
1
1
1
1
1
1
1
1
1
1
1
1
1
1
1
1
1
1
1
1
1
1
1
1
1
1
1
1
1
1
1
1
1
1
1
1
1
1
1
1
1
1
1
1
1
1
1
1
1
1
1
1
1
1
1
1
1
1
1
1
1
1
1
1
1
1
1
1
1
1
1
1
1
1
1
1
1
1
1
1
1
1
1
1
1
1
1
1
1
1
1
1
1
1
1
1
1
1
1
1
1
1
1
1
1
1
1
1
1
1
1
1
1
1
1
1
1
1
1
1
1
1
1
1
1
1
1
1
1
1
1
1
1
1
1
1
1
1
1
1
1
1
1
1
1
1
1
1
1
1
1
1
1
1
1
1
1
1
1
1
1
1
1
1
1
1
1
1
1
1
1
1
1
1
1
1
1
1
1
1
1
1
1
1
1
1
1
1
1
1
1
1
1
1
1
1
1
1
1
1
1
1
1
1
1
1
1
1
1
1
1
1
1
1
1
1
1
1
1
1
1
1
1
1
1
1
1
1
1
1
1
1
1
1
1
1
1
1
1
1
1
1
1
1
1
1
1
1
1
1
1
1
1
1
1
1
1
1
1
1
1
1
1
1
1
1
1
1
1
1
1
1
1
1
1
1
1
1
1
1
1
1
1
1
1
1
1
1
1
1
1
1
1
1
1
1
1
1
1
1
1
1
1
1
1
1
1
1
1
1
1
1
1
1
1
1
1
1
1
1
1
1
1
1
1
1
1
1
1
1
1
1
1
1
1
1
1
1
1
1
1
1
1
1
1
1
1
1
1
1
1
1
1
1
1
1
1
1
1
1
1
1
1
1
1
1
1
1
1
1
1
1
1
1
1
1
1
1
1
1
1
1
1
1
1
1
1
1
1
1
1
1
1
1
1
1
1
1
1
1
1
1
1
1
1
1
1
1
1
1
1
1
1
1
1
1
1
1
1
1
1
1
1
1
1
1
1
1
1
1
1
1
1
1
1
1
1
1
1
1
1
1
1
1
1
1
1
1
1
1
1
1
1
1
1
1
1
1
1
1
1
1
1
1
1
1
1
1
1
1
1
1
1
1
1
1
1
1
1
1
1
1
1
1
1
1
1
1
1
1
1
1
1
1
1
1
1
1
1
1
1
1
1
1
1
1
1
1
1
1
1
1
1
1
1
1
1
1
1
1
1
1
1
1
1
1
1
1
1
1
1
1
1
1
1
1
1
1
1
1
1
1
1
1
1
1
1
1
1
1
1
1
1
1
1
1
1
1
1
1
1
1
1
1
1
1
1
1
1
1
1
1
1
1
1
1
1
1
1
1
1
1
1
1
1
1
1
1
1
1
1
1
1
1
1
1
1
1
1
1
1
1
1
1
1
1
1
1
1
1
1
1
1
1
1
1
1
1
1
1
1
1
1
1
1
1
1
1
1
1
1
1
1
1
1
1
1
1
1
1
1
1
1
1
1
1
1
1
1
1
1
1
1
1
1
1
1
1
1
1
1
1
1
1
1
1
1
1
1
1
1
1
1
1
1
1
1
1
1
1
1
1
1
1
1
1
1
1
1
1
1
1
1
1
1
1
1
1
1
1
1
1
1
1
1
1
1
1
1
1
1
1
1
1
1
1
1
1
1
1
1
1
1
1
1
1
1
1
1
1
1
1
1
1
1
1
1
1
1
1
1
1
1
1
1
1
1
1
1
1
1
1
1
1
1
1
1
1
1
1
1
1
1
1
1
1
1
1
1
1
1
1
1
1
1
1
1
1
1
1
1
1
1
1
1
1
1
1
1
1
1
1
1
1
1
1
1
1
1
1
1
1
1
1
1
1
1
1
1
1
1
1
1
1
1
1
1
1
1
1
1
1
1
1
1
1
1
1
1
1
1
1
1
1
1
1
1
1
1
1
1
1
1
1
1
1
1
1
1
1
1
1
1
1
1
1
1
1
1
1
1
1
1
1
1
1
1
1
1
1
1
1
1
1
1
1
1
1
1
1
1
1
1
1
1
1
1
1
1
1
1
1
1
1
1
1
1
1
1
1
1
1
1
1
1
1
1
1
1
1
1
1
1
1
1
1
1
1
1
1
1
1
1
1
1
1
1
1
1
1
1
1
1
1
1
1
1
1
1
1
1
1
1
1
1
1
1
1
1
1
1
1
1
1
1
1
1
1
1
1
1
1
1
1
1
1
1
1
1
1
1
1
1
1
1
1
1
1
1
1
1
1
1
1
1
1
1
1
1
1
1
1
1
1
1
1
1
1
1
1
1
1
1
1
1
1
1
1
1
1
1
1
1
1
1
1
1
1
1
1
1
1
1
1
1
1
1
1
1
1
1
1
1
1.492
0.793511
0.832405
0.900969
0.884798
0.913339
0.976256
1.07837
1.12488
1.157
1.21898
1.30769
1.41294
1.51704
1.5275
1.52056
1.51983
1.5359
1.56797
1.62495
1.64093
1.63345
1.60258
1.57717
1.57899
1.59779
1.62103
1.63075
1.63022
1.62252
1.61304
1.6115
1.61829
1.63513
1.64472
1.64532
1.64462
1.64068
1.63655
1.63559
1.63566
1.6363
1.63813
1.6425
1.64859
1.65146
1.65225
1.65267
1.65302
1.65279
1.65246
1.65337
1.65673
1.66063
1.66287
1.66323
1.66242
1.66006
1.65705
1.6545
1.653
1.65183
1.65099
1.64776
1.99127
2.71715
2.82521
2.82991
2.831
2.82916
2.82439
2.81551
2.80351
2.78988
2.77619
2.7634
2.75168
2.74039
2.72925
2.71767
2.70544
2.69305
2.68077
2.66848
2.6562
2.64421
2.63283
2.62212
2.61176
2.60094
2.58913
2.5766
2.56429
2.55317
2.54363
2.53568
2.52892
2.52258
2.51539
2.50649
2.49633
2.48587
2.47552
2.46526
2.45491
2.44413
2.43269
2.42075
2.40892
2.39811
2.389
2.38199
2.37701
2.37305
2.36878
2.36379
2.35847
2.35307
2.3476
2.34141
2.3344
2.32665
2.31776
2.30704
2.29524
2.28398
2.27411
2.26503
2.25683
2.2506
2.24638
2.24274
2.23808
2.23181
2.2252
2.21808
2.21047
2.20318
2.19643
2.19
2.18381
2.1781
2.17303
2.16846
2.16405
2.15946
2.15421
2.14784
2.1402
2.13138
2.12216
2.11369
2.10628
2.09999
2.09449
2.08939
2.08448
2.0796
2.07458
2.06939
2.06424
2.05942
2.05505
2.05115
2.04748
2.04391
2.04035
2.0363
2.03161
2.02562
2.01809
2.01012
2.0034
1.99832
1.99468
1.99212
1.98977
1.98706
1.98394
1.98031
1.97607
1.97145
1.96605
1.95886
1.95001
1.94177
1.9356
1.93071
1.92622
1.92154
1.91702
1.90785
1.74157
1.34649
1.25167
1.14583
0.995004
0.98119
1.00952
1.0227
1.01215
0.995256
0.999818
1.04574
1.11641
1.17561
1.23203
1.26972
1.30655
1.35302
1.39357
1.43694