/*--------------------------------*- C++ -*----------------------------------*\
  =========                 |
  \\      /  F ield         | OpenFOAM: The Open Source CFD Toolbox
   \\    /   O peration     | Website:  https://openfoam.org
    \\  /    A nd           | Version:  7
     \\/     M anipulation  |
\*---------------------------------------------------------------------------*/
FoamFile
{
    version     2.0;
    format      ascii;
    class       volVectorField;
    location    "3.2";
    object      U;
}
// * * * * * * * * * * * * * * * * * * * * * * * * * * * * * * * * * * * * * //

dimensions      [0 1 -1 0 0 0 0];

internalField   nonuniform List<vector> 
19968
(
(3 1.10932e-16 0)
(3 -2.13088e-16 0)
(3 -9.62449e-17 0)
(3 -1.6211e-16 0)
(3 -6.99474e-17 0)
(3 -6.64543e-17 0)
(3 -1.46118e-16 0)
(3 -7.8019e-17 0)
(3 3.94969e-17 0)
(3 1.60457e-16 0)
(3 2.89616e-16 0)
(3 5.16152e-16 0)
(3 1.06032e-15 0)
(3 1.34271e-15 0)
(3 1.33224e-15 0)
(3 1.82316e-15 0)
(3 2.11012e-15 0)
(3 2.17598e-15 0)
(3 1.28768e-15 0)
(3 8.26668e-16 0)
(3 -2.66415e-17 0)
(3 -2.89758e-16 0)
(3 -2.30047e-16 0)
(3 5.64258e-17 0)
(3 2.86651e-16 0)
(3 4.10718e-16 0)
(3 3.70879e-16 0)
(3 2.06452e-16 0)
(3 5.41675e-16 0)
(3 2.25428e-16 0)
(3 -1.66005e-16 0)
(3 -8.61561e-16 0)
(3 -1.26355e-15 0)
(3 -6.10554e-16 0)
(3 4.60941e-16 0)
(3 2.4431e-16 0)
(3 5.00497e-16 0)
(3 1.41564e-15 0)
(3 1.49058e-15 0)
(3 1.54504e-15 0)
(3 1.33959e-15 0)
(3 1.10461e-15 0)
(3 7.24377e-16 0)
(3 -2.24848e-16 0)
(3 6.48197e-16 0)
(3 9.36582e-16 0)
(3 7.02346e-16 0)
(3 -1.83745e-15 0)
(2.98544 0.000687906 0)
(1.09514 0.00655445 0)
(0.765595 0.00447543 0)
(0.74962 0.00773176 0)
(0.734099 0.00866689 0)
(0.717939 0.00921188 0)
(0.701425 0.00930667 0)
(0.685158 0.00894834 0)
(0.669696 0.00842887 0)
(0.655251 0.00809757 0)
(0.641592 0.00810526 0)
(0.628144 0.00849407 0)
(0.61417 0.0091663 0)
(0.599166 0.00979537 0)
(0.583244 0.00996455 0)
(0.567111 0.00952058 0)
(0.551472 0.00888826 0)
(0.536437 0.00864048 0)
(0.521605 0.0089482 0)
(0.50645 0.00962839 0)
(0.490667 0.0102602 0)
(0.474649 0.0102866 0)
(0.459047 0.00976421 0)
(0.443882 0.00958995 0)
(0.428398 0.0101257 0)
(0.412152 0.0107352 0)
(0.395696 0.0108292 0)
(0.379663 0.0106677 0)
(0.363912 0.0107236 0)
(0.348065 0.0109166 0)
(0.331995 0.0110387 0)
(0.315745 0.0111147 0)
(0.299343 0.0112319 0)
(0.282696 0.0113831 0)
(0.265562 0.0115448 0)
(0.247818 0.0117195 0)
(0.229524 0.0119148 0)
(0.21096 0.0121381 0)
(0.192473 0.0124041 0)
(0.174222 0.0127022 0)
(0.15608 0.0130333 0)
(0.137686 0.0133879 0)
(0.118663 0.0137353 0)
(0.0987344 0.014064 0)
(0.0778206 0.0143738 0)
(0.0560569 0.0146747 0)
(0.0337859 0.0148179 0)
(0.0115477 0.0149852 0)
(3 1.14243e-16 0)
(3 1.47445e-16 0)
(3 2.50268e-16 0)
(3 2.99884e-16 0)
(3 8.14841e-16 0)
(3 1.06673e-15 0)
(3 5.71985e-16 0)
(3 3.32238e-16 0)
(3 2.83604e-16 0)
(3 4.90086e-16 0)
(3 7.46619e-16 0)
(3 1.20664e-15 0)
(3 1.84661e-15 0)
(3 1.62974e-15 0)
(3 1.14171e-15 0)
(3 1.39933e-15 0)
(3 2.11141e-15 0)
(3 2.63596e-15 0)
(3 2.29677e-15 0)
(3 3.10383e-16 0)
(3 -6.32691e-16 0)
(3 -1.65235e-15 0)
(3 -1.82279e-15 0)
(3 -1.56318e-15 0)
(3 -7.64732e-16 0)
(3 -8.40771e-16 0)
(3 -9.43222e-16 0)
(3 -1.07584e-15 0)
(3 -8.22892e-16 0)
(3 -1.31041e-15 0)
(3 -1.71066e-15 0)
(3 -1.83549e-15 0)
(3 -2.10211e-15 0)
(3 -1.9821e-15 0)
(3 -1.93043e-16 0)
(3 4.73792e-17 0)
(3 1.36115e-16 0)
(3 7.90523e-16 0)
(3 6.57558e-16 0)
(3 7.33112e-16 0)
(3 1.11754e-15 0)
(3 1.72395e-15 0)
(3 4.87425e-16 0)
(3 -1.61353e-15 0)
(3 -1.69591e-15 0)
(3 -1.21437e-15 0)
(3 -8.71827e-16 0)
(3 -1.67837e-15 0)
(2.99876 0.00128955 0)
(1.10956 0.0287262 0)
(0.764516 0.0209784 0)
(0.746021 0.0232829 0)
(0.730753 0.026057 0)
(0.714474 0.027584 0)
(0.697962 0.0280459 0)
(0.681535 0.027177 0)
(0.665777 0.0255922 0)
(0.651002 0.0243792 0)
(0.63708 0.0242157 0)
(0.623523 0.0252767 0)
(0.60967 0.02727 0)
(0.594939 0.0292407 0)
(0.579244 0.0300071 0)
(0.56314 0.0290141 0)
(0.547304 0.0271966 0)
(0.531947 0.0262493 0)
(0.51691 0.0269467 0)
(0.501818 0.0288465 0)
(0.486273 0.0306727 0)
(0.470454 0.0308099 0)
(0.454928 0.029385 0)
(0.439568 0.0288063 0)
(0.423922 0.0302832 0)
(0.407588 0.0321484 0)
(0.390999 0.0325541 0)
(0.374813 0.0322198 0)
(0.358919 0.032452 0)
(0.343034 0.0330302 0)
(0.327033 0.0333769 0)
(0.310922 0.0336149 0)
(0.294672 0.034 0)
(0.278164 0.0344848 0)
(0.261178 0.034998 0)
(0.243628 0.035559 0)
(0.2256 0.0361933 0)
(0.207375 0.0369186 0)
(0.189274 0.0377748 0)
(0.17143 0.0387228 0)
(0.153708 0.0397584 0)
(0.135748 0.0408636 0)
(0.117178 0.041961 0)
(0.0977088 0.0430286 0)
(0.0772171 0.0440803 0)
(0.0557916 0.0451286 0)
(0.0337318 0.045705 0)
(0.0115673 0.0463783 0)
(3 4.18533e-17 0)
(3 5.36712e-16 0)
(3 9.1979e-16 0)
(3 1.12799e-15 0)
(3 1.55317e-15 0)
(3 1.89652e-15 0)
(3 1.56573e-15 0)
(3 1.05884e-15 0)
(3 4.57483e-16 0)
(3 2.48369e-16 0)
(3 3.56735e-16 0)
(3 8.87171e-16 0)
(3 1.17701e-15 0)
(3 9.08529e-16 0)
(3 5.761e-16 0)
(3 6.30806e-16 0)
(3 8.11719e-16 0)
(3 1.13897e-15 0)
(3 1.19992e-15 0)
(3 1.77912e-15 0)
(3 -2.59875e-16 0)
(3 -1.60226e-15 0)
(3 -1.68904e-15 0)
(3 -1.97597e-15 0)
(3 -2.20446e-15 0)
(3 -2.89939e-15 0)
(3 -2.96937e-15 0)
(3 -2.69687e-15 0)
(3 -2.54804e-15 0)
(3 -3.11659e-15 0)
(3 -3.02084e-15 0)
(3 -2.33558e-15 0)
(3 -2.26027e-15 0)
(3 -1.90129e-15 0)
(3 -1.94603e-15 0)
(3 -6.33611e-16 0)
(3 -6.46944e-17 0)
(3 2.41928e-17 0)
(3 -7.61388e-17 0)
(3 -5.70951e-16 0)
(3 -5.69577e-16 0)
(3 -2.73969e-17 0)
(3 5.96538e-18 0)
(3 -2.74636e-16 0)
(3 -1.40737e-15 0)
(3 -1.41905e-15 0)
(3 -4.06065e-16 0)
(3 1.67311e-16 0)
(3 1.31555e-05 0)
(1.14413 0.0483628 0)
(0.766922 0.0372361 0)
(0.747416 0.0407691 0)
(0.732463 0.0449401 0)
(0.716133 0.0472952 0)
(0.699706 0.0481988 0)
(0.683096 0.047087 0)
(0.666857 0.0446722 0)
(0.651399 0.0425359 0)
(0.636775 0.042007 0)
(0.622703 0.0434508 0)
(0.608704 0.0464631 0)
(0.594123 0.0496231 0)
(0.578614 0.0511037 0)
(0.562537 0.0499547 0)
(0.54648 0.0473114 0)
(0.530645 0.0457452 0)
(0.515144 0.046684 0)
(0.4999 0.0496305 0)
(0.484432 0.0525777 0)
(0.468672 0.0529628 0)
(0.45318 0.0508379 0)
(0.437576 0.0498801 0)
(0.421701 0.0520888 0)
(0.405181 0.0549813 0)
(0.388262 0.0556153 0)
(0.371684 0.055104 0)
(0.355383 0.0555056 0)
(0.339192 0.0564379 0)
(0.322975 0.0569708 0)
(0.306711 0.0573353 0)
(0.290314 0.0579454 0)
(0.273634 0.0586934 0)
(0.256476 0.0594605 0)
(0.2388 0.0602973 0)
(0.220728 0.0612502 0)
(0.202542 0.0623443 0)
(0.184553 0.0636593 0)
(0.166885 0.0651477 0)
(0.149424 0.0668132 0)
(0.131841 0.0686426 0)
(0.113787 0.0705128 0)
(0.0949474 0.0723773 0)
(0.0751481 0.0742508 0)
(0.0544193 0.0761574 0)
(0.0329777 0.0772842 0)
(0.0113454 0.078593 0)
(3 1.37441e-16 0)
(3 4.61013e-16 0)
(3 6.20754e-16 0)
(3 6.8565e-16 0)
(3 4.78435e-16 0)
(3 3.8446e-16 0)
(3 6.72144e-16 0)
(3 1.34793e-15 0)
(3 1.57134e-15 0)
(3 6.2729e-16 0)
(3 -2.88259e-17 0)
(3 -2.93824e-17 0)
(3 3.71601e-16 0)
(3 7.13768e-16 0)
(3 -6.18358e-16 0)
(3 -6.74999e-16 0)
(3 1.68222e-16 0)
(3 1.0136e-15 0)
(3 1.75043e-15 0)
(3 1.90795e-15 0)
(3 1.19105e-15 0)
(3 -3.93731e-16 0)
(3 -4.65786e-16 0)
(3 -6.23768e-16 0)
(3 -1.47333e-15 0)
(3 -1.789e-15 0)
(3 -1.36958e-15 0)
(3 -1.24279e-15 0)
(3 -1.38084e-15 0)
(3 -2.19579e-15 0)
(3 -2.20813e-15 0)
(3 -1.84919e-15 0)
(3 -1.80893e-15 0)
(3 -1.98407e-15 0)
(3 -1.92238e-15 0)
(3 -2.11096e-16 0)
(3 3.82727e-16 0)
(3 -3.71109e-17 0)
(3 -3.44628e-16 0)
(3 -5.06145e-16 0)
(3 -2.4378e-16 0)
(3 -2.59261e-16 0)
(3 -4.80944e-16 0)
(3 -1.26127e-16 0)
(3 4.03514e-16 0)
(3 6.56392e-16 0)
(3 -2.78116e-16 0)
(3 -4.17884e-16 0)
(3 5.31663e-08 0)
(1.20126 0.0688177 0)
(0.769264 0.054596 0)
(0.748136 0.0584323 0)
(0.734269 0.0642086 0)
(0.718038 0.06726 0)
(0.701874 0.0688202 0)
(0.685231 0.0680051 0)
(0.668751 0.0651349 0)
(0.652952 0.0620434 0)
(0.638012 0.0608895 0)
(0.62382 0.0624144 0)
(0.610032 0.0661269 0)
(0.595932 0.0703112 0)
(0.580891 0.0726575 0)
(0.565081 0.0718196 0)
(0.54908 0.0687605 0)
(0.533071 0.0666762 0)
(0.517339 0.0677215 0)
(0.502129 0.0715156 0)
(0.486879 0.0754806 0)
(0.471226 0.0763107 0)
(0.455779 0.0737793 0)
(0.439989 0.0724852 0)
(0.423961 0.0752029 0)
(0.407364 0.0790031 0)
(0.390171 0.0799785 0)
(0.373205 0.0794669 0)
(0.356481 0.0801634 0)
(0.339951 0.0815383 0)
(0.323443 0.082343 0)
(0.3069 0.0829182 0)
(0.290188 0.0838262 0)
(0.273131 0.084884 0)
(0.255563 0.0859173 0)
(0.237494 0.0870095 0)
(0.219081 0.0882204 0)
(0.2006 0.0895693 0)
(0.182346 0.0911838 0)
(0.164447 0.0930272 0)
(0.146836 0.0951187 0)
(0.12925 0.097484 0)
(0.111385 0.0999568 0)
(0.0929144 0.102498 0)
(0.0736049 0.105126 0)
(0.0534216 0.107901 0)
(0.0324434 0.109645 0)
(0.0111897 0.111682 0)
(3 -1.88083e-16 0)
(3 -2.37565e-16 0)
(3 -4.99481e-16 0)
(3 -5.18675e-16 0)
(3 -7.00526e-16 0)
(3 -4.68281e-16 0)
(3 -5.01293e-16 0)
(3 -1.66866e-16 0)
(3 3.84267e-16 0)
(3 4.28948e-16 0)
(3 2.36245e-16 0)
(3 -4.17726e-16 0)
(3 -4.91795e-16 0)
(3 -8.75442e-16 0)
(3 -1.18267e-15 0)
(3 -1.14651e-15 0)
(3 -6.07901e-16 0)
(3 -2.95133e-16 0)
(3 6.40659e-16 0)
(3 7.70401e-16 0)
(3 5.58552e-16 0)
(3 4.43633e-16 0)
(3 -2.4345e-18 0)
(3 -6.59418e-16 0)
(3 -4.43815e-16 0)
(3 -5.36802e-17 0)
(3 2.66596e-16 0)
(3 -3.45326e-16 0)
(3 -4.5078e-16 0)
(3 -6.22816e-17 0)
(3 -4.18477e-16 0)
(3 -1.28242e-15 0)
(3 -1.39424e-15 0)
(3 -1.43196e-15 0)
(3 -7.92257e-16 0)
(3 -4.52951e-16 0)
(3 -7.34622e-16 0)
(3 -1.71521e-15 0)
(3 -1.43469e-15 0)
(3 -6.54729e-16 0)
(3 -1.09466e-16 0)
(3 -1.60924e-16 0)
(3 -2.96638e-16 0)
(3 -5.81713e-18 0)
(3 9.3524e-16 0)
(3 1.2473e-15 0)
(3 7.84218e-16 0)
(3 1.48804e-16 0)
(3 1.06257e-10 0)
(1.28998 0.0908323 0)
(0.77387 0.0738918 0)
(0.748224 0.0760397 0)
(0.735522 0.0837858 0)
(0.719138 0.0878629 0)
(0.703126 0.0904081 0)
(0.686342 0.0902233 0)
(0.669448 0.0873396 0)
(0.653107 0.0833329 0)
(0.637614 0.0811215 0)
(0.623095 0.0822537 0)
(0.609372 0.0862874 0)
(0.595684 0.0913501 0)
(0.581097 0.0947498 0)
(0.565557 0.0946796 0)
(0.549685 0.0916095 0)
(0.533686 0.0890376 0)
(0.517893 0.0899558 0)
(0.502871 0.0943535 0)
(0.488003 0.0992845 0)
(0.472547 0.100845 0)
(0.457172 0.0982392 0)
(0.441316 0.0965525 0)
(0.425253 0.0994335 0)
(0.408804 0.103951 0)
(0.391565 0.105384 0)
(0.374402 0.105032 0)
(0.357421 0.106108 0)
(0.340681 0.10801 0)
(0.32395 0.109202 0)
(0.30715 0.110104 0)
(0.290123 0.111414 0)
(0.272678 0.112868 0)
(0.254682 0.114228 0)
(0.236191 0.11561 0)
(0.217389 0.117076 0)
(0.198536 0.118621 0)
(0.179903 0.120419 0)
(0.161626 0.122463 0)
(0.143699 0.124794 0)
(0.125958 0.127519 0)
(0.108172 0.130421 0)
(0.0900346 0.133504 0)
(0.0712805 0.136791 0)
(0.05181 0.140408 0)
(0.0315101 0.142791 0)
(0.0108806 0.145591 0)
(3 9.40349e-18 0)
(3 -2.83459e-17 0)
(3 2.19255e-16 0)
(3 2.42321e-16 0)
(3 -2.85574e-16 0)
(3 -6.19837e-16 0)
(3 -1.18802e-15 0)
(3 -1.07252e-15 0)
(3 -1.23031e-15 0)
(3 -6.81973e-16 0)
(3 -4.00122e-16 0)
(3 -9.58213e-16 0)
(3 -1.08784e-15 0)
(3 -6.93134e-16 0)
(3 7.54793e-17 0)
(3 4.73871e-17 0)
(3 -2.47485e-16 0)
(3 -3.06521e-16 0)
(3 -3.30584e-16 0)
(3 -4.11852e-16 0)
(3 -2.76014e-16 0)
(3 2.41942e-16 0)
(3 1.1534e-16 0)
(3 1.2177e-16 0)
(3 1.97694e-16 0)
(3 7.14205e-17 0)
(3 -2.82854e-16 0)
(3 -6.40877e-16 0)
(3 -7.25379e-16 0)
(3 -5.67849e-16 0)
(3 -3.6666e-16 0)
(3 -8.23216e-16 0)
(3 -1.13708e-15 0)
(3 -7.98583e-16 0)
(3 -1.03054e-15 0)
(3 -1.35927e-15 0)
(3 -1.85528e-15 0)
(3 -1.89303e-15 0)
(3 -1.55614e-15 0)
(3 -1.27397e-15 0)
(3 -1.57173e-15 0)
(3 -1.38799e-15 0)
(3 -5.60252e-16 0)
(3 -2.80596e-16 0)
(3 3.97486e-16 0)
(3 6.70299e-16 0)
(3 5.8999e-16 0)
(3 2.52232e-16 0)
(3 2.13623e-13 0)
(1.42414 0.114932 0)
(0.783435 0.0970168 0)
(0.748428 0.0944976 0)
(0.73653 0.10382 0)
(0.720099 0.108872 0)
(0.704563 0.11264 0)
(0.688006 0.113609 0)
(0.671024 0.111373 0)
(0.654319 0.106906 0)
(0.63827 0.103379 0)
(0.623202 0.10354 0)
(0.609266 0.1074 0)
(0.595803 0.113116 0)
(0.581604 0.117688 0)
(0.566296 0.118734 0)
(0.550483 0.116054 0)
(0.534452 0.113045 0)
(0.518494 0.11355 0)
(0.503467 0.11818 0)
(0.488874 0.123963 0)
(0.473531 0.126533 0)
(0.458048 0.124249 0)
(0.442083 0.122203 0)
(0.425943 0.124969 0)
(0.409746 0.13009 0)
(0.39264 0.132219 0)
(0.375433 0.132244 0)
(0.358343 0.133767 0)
(0.341516 0.136262 0)
(0.324669 0.137958 0)
(0.307717 0.139302 0)
(0.290516 0.141122 0)
(0.272876 0.143088 0)
(0.254675 0.144878 0)
(0.235986 0.146623 0)
(0.216984 0.14838 0)
(0.197883 0.150097 0)
(0.17891 0.151987 0)
(0.160199 0.154088 0)
(0.141798 0.156451 0)
(0.123651 0.15929 0)
(0.10564 0.162336 0)
(0.0874903 0.165665 0)
(0.0690689 0.169297 0)
(0.0501585 0.17355 0)
(0.0305054 0.176438 0)
(0.0105064 0.179914 0)
(3 -6.75313e-17 0)
(3 -1.98185e-16 0)
(3 3.09012e-17 0)
(3 4.2889e-17 0)
(3 -1.93144e-16 0)
(3 -7.1743e-16 0)
(3 -1.30271e-15 0)
(3 -1.55366e-15 0)
(3 -1.74884e-15 0)
(3 -1.24328e-15 0)
(3 -8.36272e-16 0)
(3 -5.46235e-16 0)
(3 -4.15694e-16 0)
(3 -1.00142e-15 0)
(3 -9.8697e-16 0)
(3 -9.60602e-16 0)
(3 -4.62766e-17 0)
(3 6.30735e-16 0)
(3 3.79352e-16 0)
(3 2.92954e-16 0)
(3 3.7683e-16 0)
(3 1.59611e-16 0)
(3 -1.49992e-16 0)
(3 6.26703e-17 0)
(3 -8.17272e-17 0)
(3 -4.42587e-16 0)
(3 -5.75759e-16 0)
(3 -2.22886e-16 0)
(3 -2.04412e-16 0)
(3 -1.71581e-16 0)
(3 -4.45821e-16 0)
(3 -1.09208e-15 0)
(3 -1.58328e-15 0)
(3 -1.71508e-15 0)
(3 -1.59155e-15 0)
(3 -1.54741e-15 0)
(3 -9.74533e-16 0)
(3 -1.05459e-15 0)
(3 -1.68144e-15 0)
(3 -2.09018e-15 0)
(3 -1.06091e-15 0)
(3 3.19947e-16 0)
(3 1.8414e-15 0)
(3 2.0921e-15 0)
(3 1.5124e-15 0)
(3 8.16748e-17 0)
(3 -6.0839e-16 0)
(3 -9.55229e-16 0)
(3 -1.63303e-15 0)
(1.62351 0.137388 0)
(0.800813 0.124206 0)
(0.751069 0.115667 0)
(0.739005 0.124813 0)
(0.72299 0.130285 0)
(0.70821 0.135271 0)
(0.69223 0.137575 0)
(0.675565 0.136461 0)
(0.658779 0.132255 0)
(0.642452 0.127596 0)
(0.626938 0.126258 0)
(0.612848 0.129321 0)
(0.599842 0.135192 0)
(0.586466 0.140816 0)
(0.571839 0.143276 0)
(0.55643 0.141554 0)
(0.540705 0.138333 0)
(0.524856 0.138138 0)
(0.509964 0.142502 0)
(0.495879 0.148832 0)
(0.480953 0.152574 0)
(0.465518 0.151096 0)
(0.449661 0.148776 0)
(0.433555 0.151157 0)
(0.417723 0.156666 0)
(0.400942 0.159723 0)
(0.383825 0.160356 0)
(0.366723 0.162367 0)
(0.349852 0.165492 0)
(0.332899 0.167817 0)
(0.31578 0.169719 0)
(0.298392 0.172164 0)
(0.280558 0.174803 0)
(0.262146 0.177215 0)
(0.243221 0.179512 0)
(0.223925 0.181746 0)
(0.204406 0.183809 0)
(0.184833 0.185942 0)
(0.165313 0.188232 0)
(0.14592 0.190698 0)
(0.126708 0.193656 0)
(0.107677 0.196721 0)
(0.0886341 0.200106 0)
(0.0696142 0.203728 0)
(0.0504192 0.208318 0)
(0.0305735 0.211448 0)
(0.0104668 0.215425 0)
(3 -1.21685e-16 0)
(3 -2.87949e-16 0)
(3 -6.92603e-16 0)
(3 -6.74923e-16 0)
(3 -3.54972e-16 0)
(3 -3.82799e-16 0)
(3 -6.11036e-16 0)
(3 -8.71754e-16 0)
(3 -7.67829e-16 0)
(3 -8.85705e-16 0)
(3 -7.19195e-16 0)
(3 -6.14532e-16 0)
(3 -7.65552e-16 0)
(3 -1.07328e-15 0)
(3 -1.67604e-15 0)
(3 -9.0232e-16 0)
(3 -2.41256e-16 0)
(3 1.75955e-16 0)
(3 -3.77779e-16 0)
(3 -1.12883e-15 0)
(3 -1.01139e-15 0)
(3 -6.34978e-16 0)
(3 -5.57434e-16 0)
(3 -8.97569e-16 0)
(3 -8.17508e-16 0)
(3 -8.04331e-16 0)
(3 -1.01517e-15 0)
(3 -1.10662e-15 0)
(3 -1.07028e-15 0)
(3 -9.27168e-16 0)
(3 -3.94581e-16 0)
(3 -1.88753e-18 0)
(3 -4.44835e-16 0)
(3 -7.76066e-16 0)
(3 -6.95278e-16 0)
(3 -5.43285e-16 0)
(3 -5.85448e-16 0)
(3 -6.06966e-16 0)
(3 -7.13311e-16 0)
(3 -7.96196e-16 0)
(3 -8.90785e-16 0)
(3 1.17505e-16 0)
(3 1.43185e-15 0)
(3 2.69355e-15 0)
(3 2.15185e-15 0)
(3 1.40688e-15 0)
(3 9.21212e-16 0)
(3 5.86078e-16 0)
(3 -5.80627e-15 0)
(1.89689 0.156988 0)
(0.827089 0.158077 0)
(0.754426 0.138571 0)
(0.740309 0.145716 0)
(0.724389 0.152248 0)
(0.709727 0.158377 0)
(0.694026 0.162029 0)
(0.67755 0.162564 0)
(0.660449 0.159571 0)
(0.643478 0.154489 0)
(0.627041 0.151293 0)
(0.611931 0.152674 0)
(0.598463 0.158006 0)
(0.585351 0.164507 0)
(0.571072 0.168616 0)
(0.555769 0.168346 0)
(0.5401 0.165307 0)
(0.524232 0.16419 0)
(0.509195 0.167738 0)
(0.495417 0.174327 0)
(0.481034 0.179336 0)
(0.465876 0.179186 0)
(0.450383 0.176861 0)
(0.434602 0.178689 0)
(0.419497 0.184419 0)
(0.403625 0.188584 0)
(0.387223 0.190013 0)
(0.370778 0.192486 0)
(0.354531 0.196196 0)
(0.338129 0.199221 0)
(0.321463 0.201756 0)
(0.304483 0.204897 0)
(0.287016 0.208351 0)
(0.268907 0.211592 0)
(0.250198 0.214682 0)
(0.231 0.217666 0)
(0.211404 0.220369 0)
(0.191524 0.223011 0)
(0.171434 0.225722 0)
(0.151203 0.228449 0)
(0.130975 0.231599 0)
(0.110853 0.234628 0)
(0.0907241 0.237931 0)
(0.0708509 0.241275 0)
(0.0510891 0.24592 0)
(0.0308333 0.249031 0)
(0.0104792 0.253341 0)
(3 3.29178e-16 0)
(3 5.31745e-16 0)
(3 8.35208e-16 0)
(3 6.19188e-16 0)
(3 2.52211e-16 0)
(3 5.8908e-16 0)
(3 1.247e-15 0)
(3 1.2152e-15 0)
(3 9.50341e-16 0)
(3 5.55885e-16 0)
(3 6.77579e-17 0)
(3 -2.28074e-16 0)
(3 -5.07908e-17 0)
(3 6.65436e-16 0)
(3 7.57698e-16 0)
(3 1.00577e-15 0)
(3 4.42825e-16 0)
(3 -3.8659e-16 0)
(3 -9.22593e-16 0)
(3 -1.16111e-15 0)
(3 -1.26511e-15 0)
(3 -1.50523e-15 0)
(3 -1.31306e-15 0)
(3 -1.46099e-15 0)
(3 -8.88449e-16 0)
(3 -6.64465e-16 0)
(3 -6.39218e-16 0)
(3 -1.12513e-15 0)
(3 -1.46862e-15 0)
(3 -1.98764e-15 0)
(3 -1.46753e-15 0)
(3 -8.70194e-16 0)
(3 -5.817e-16 0)
(3 -4.52945e-16 0)
(3 -1.22845e-16 0)
(3 2.1342e-16 0)
(3 2.75324e-16 0)
(3 6.38485e-16 0)
(3 7.73462e-16 0)
(3 7.80075e-16 0)
(3 3.25876e-16 0)
(3 -3.5899e-16 0)
(3 -6.82584e-16 0)
(3 -3.96421e-16 0)
(3 1.52648e-16 0)
(3 7.13497e-16 0)
(3 5.7131e-16 0)
(3 1.09591e-15 0)
(3 1.03567e-16 0)
(2.2575 0.166886 0)
(0.870522 0.197492 0)
(0.757156 0.167271 0)
(0.741018 0.170447 0)
(0.726243 0.17613 0)
(0.712998 0.182963 0)
(0.69904 0.188129 0)
(0.684224 0.190573 0)
(0.668203 0.189399 0)
(0.651551 0.184929 0)
(0.634876 0.180343 0)
(0.618928 0.179542 0)
(0.604608 0.183431 0)
(0.59137 0.190043 0)
(0.577266 0.195669 0)
(0.561747 0.197242 0)
(0.545642 0.194858 0)
(0.529327 0.192736 0)
(0.513546 0.194819 0)
(0.49938 0.200961 0)
(0.48512 0.20695 0)
(0.469833 0.208456 0)
(0.454175 0.206325 0)
(0.438182 0.207245 0)
(0.423063 0.212706 0)
(0.407569 0.217867 0)
(0.391372 0.220219 0)
(0.375106 0.223102 0)
(0.359077 0.227316 0)
(0.342961 0.231099 0)
(0.3266 0.234348 0)
(0.31 0.238246 0)
(0.293012 0.242649 0)
(0.275446 0.246937 0)
(0.257306 0.251082 0)
(0.238659 0.255129 0)
(0.219506 0.258836 0)
(0.199867 0.262367 0)
(0.179729 0.265895 0)
(0.159075 0.269267 0)
(0.138076 0.272959 0)
(0.11684 0.276211 0)
(0.0954696 0.279608 0)
(0.0742539 0.282695 0)
(0.0533266 0.287315 0)
(0.032004 0.290303 0)
(0.0108528 0.294898 0)
(3 -5.79512e-17 0)
(3 -7.61115e-18 0)
(3 3.57589e-16 0)
(3 5.75436e-16 0)
(3 5.73019e-16 0)
(3 5.53202e-16 0)
(3 4.36497e-16 0)
(3 6.81126e-18 0)
(3 -4.95336e-17 0)
(3 4.08814e-16 0)
(3 4.21134e-16 0)
(3 4.09286e-16 0)
(3 1.24721e-15 0)
(3 1.41297e-15 0)
(3 7.72412e-16 0)
(3 5.15346e-17 0)
(3 -6.80613e-16 0)
(3 -6.77865e-16 0)
(3 -8.1963e-17 0)
(3 -1.91471e-16 0)
(3 -3.30217e-16 0)
(3 -6.71425e-16 0)
(3 -5.15287e-16 0)
(3 -6.83851e-16 0)
(3 -1.07937e-15 0)
(3 -1.12901e-15 0)
(3 -6.52483e-16 0)
(3 -2.22289e-16 0)
(3 -1.81764e-16 0)
(3 -6.21062e-16 0)
(3 -1.22788e-15 0)
(3 -1.11659e-15 0)
(3 -9.96893e-16 0)
(3 -1.23256e-15 0)
(3 -1.41608e-15 0)
(3 -3.80032e-16 0)
(3 1.36298e-15 0)
(3 2.00688e-15 0)
(3 2.48155e-15 0)
(3 2.20872e-15 0)
(3 1.61266e-15 0)
(3 3.19372e-16 0)
(3 -8.17263e-16 0)
(3 -1.50213e-15 0)
(3 -8.80657e-16 0)
(3 -6.13702e-16 0)
(3 -2.20932e-16 0)
(3 1.59058e-15 0)
(3 2.24753e-15 0)
(2.69448 0.155356 0)
(0.958857 0.235048 0)
(0.777772 0.200245 0)
(0.765478 0.19194 0)
(0.748946 0.195407 0)
(0.734967 0.201374 0)
(0.720993 0.207485 0)
(0.706714 0.212654 0)
(0.691179 0.214854 0)
(0.674668 0.213028 0)
(0.657926 0.208828 0)
(0.641258 0.206549 0)
(0.625566 0.20906 0)
(0.611308 0.215755 0)
(0.59691 0.223146 0)
(0.581046 0.227107 0)
(0.564379 0.226214 0)
(0.547465 0.22367 0)
(0.530625 0.224242 0)
(0.515159 0.229562 0)
(0.500465 0.236515 0)
(0.484621 0.240294 0)
(0.468062 0.239199 0)
(0.4511 0.239233 0)
(0.434888 0.244001 0)
(0.418835 0.249913 0)
(0.401988 0.253342 0)
(0.384939 0.256625 0)
(0.368108 0.261183 0)
(0.351287 0.265618 0)
(0.334267 0.269482 0)
(0.317084 0.27396 0)
(0.299642 0.27916 0)
(0.281748 0.284457 0)
(0.263382 0.289706 0)
(0.244612 0.29497 0)
(0.225393 0.299957 0)
(0.205681 0.304704 0)
(0.185419 0.309415 0)
(0.164473 0.313811 0)
(0.142995 0.318394 0)
(0.121017 0.322232 0)
(0.0986881 0.325961 0)
(0.0764955 0.328892 0)
(0.0546864 0.333431 0)
(0.0326166 0.336257 0)
(0.0110786 0.341115 0)
(3 -2.47425e-16 0)
(3 -4.27401e-16 0)
(3 -7.14095e-16 0)
(3 -3.23951e-16 0)
(3 -1.27115e-16 0)
(3 -4.7667e-16 0)
(3 -1.19061e-15 0)
(3 -1.39813e-15 0)
(3 -3.47126e-16 0)
(3 7.72308e-17 0)
(3 9.25376e-16 0)
(3 1.06876e-15 0)
(3 9.30977e-16 0)
(3 5.63434e-16 0)
(3 -4.45005e-16 0)
(3 -9.72353e-16 0)
(3 -2.09795e-15 0)
(3 -2.17993e-15 0)
(3 -1.07243e-15 0)
(3 6.62327e-17 0)
(3 1.12915e-16 0)
(3 2.30907e-16 0)
(3 3.61304e-16 0)
(3 3.40221e-16 0)
(3 -1.13497e-16 0)
(3 -7.86789e-16 0)
(3 -9.42779e-16 0)
(3 -1.14004e-15 0)
(3 -1.06294e-15 0)
(3 -1.2673e-15 0)
(3 -1.17889e-15 0)
(3 -1.37123e-15 0)
(3 -1.52187e-15 0)
(3 -1.93173e-15 0)
(3 -1.10764e-15 0)
(3 -6.29789e-17 0)
(3 4.87608e-16 0)
(3 7.25107e-16 0)
(3 1.66171e-15 0)
(3 1.12654e-15 0)
(3 8.57567e-16 0)
(3 5.66369e-16 0)
(3 4.30645e-17 0)
(3 -1.12517e-15 0)
(3 -1.526e-15 0)
(3 -1.36938e-15 0)
(3 -7.85752e-16 0)
(3 -2.88426e-16 0)
(3 8.13127e-17 0)
(3.00408 0.0137006 0)
(1.10247 0.248739 0)
(0.799021 0.206538 0)
(0.787244 0.216075 0)
(0.770555 0.221945 0)
(0.755145 0.22739 0)
(0.740747 0.232962 0)
(0.727019 0.238331 0)
(0.713087 0.2415 0)
(0.69848 0.241169 0)
(0.68321 0.238189 0)
(0.667309 0.235671 0)
(0.651473 0.236933 0)
(0.636887 0.242746 0)
(0.623015 0.250459 0)
(0.608053 0.255817 0)
(0.591923 0.256636 0)
(0.575174 0.254645 0)
(0.558025 0.254121 0)
(0.541555 0.258159 0)
(0.526458 0.265579 0)
(0.51065 0.271896 0)
(0.493526 0.273342 0)
(0.475842 0.2731 0)
(0.458461 0.276844 0)
(0.441602 0.283205 0)
(0.423983 0.288164 0)
(0.405891 0.292356 0)
(0.387886 0.297515 0)
(0.369941 0.302824 0)
(0.35182 0.307533 0)
(0.333574 0.312644 0)
(0.315184 0.318567 0)
(0.296512 0.32477 0)
(0.277518 0.330992 0)
(0.25828 0.337322 0)
(0.238723 0.343494 0)
(0.218712 0.349435 0)
(0.198122 0.355433 0)
(0.176654 0.361176 0)
(0.154368 0.367181 0)
(0.131133 0.372344 0)
(0.107214 0.377155 0)
(0.0830148 0.380523 0)
(0.0591703 0.385244 0)
(0.0351363 0.388042 0)
(0.0120018 0.393214 0)
(3 -4.22708e-17 0)
(3 -1.52448e-16 0)
(3 -5.27517e-16 0)
(3 -9.1258e-16 0)
(3 -1.28143e-15 0)
(3 -1.18272e-15 0)
(3 -7.56452e-16 0)
(3 -1.35711e-16 0)
(3 4.81713e-16 0)
(3 6.37777e-16 0)
(3 8.72247e-16 0)
(3 4.71885e-16 0)
(3 -1.9813e-16 0)
(3 -6.21922e-16 0)
(3 -8.93189e-16 0)
(3 -9.59787e-16 0)
(3 -8.44276e-16 0)
(3 -9.15502e-16 0)
(3 -5.3899e-16 0)
(3 -5.84999e-17 0)
(3 -6.63583e-19 0)
(3 -1.95298e-17 0)
(3 -2.30282e-16 0)
(3 -1.56677e-16 0)
(3 -3.64699e-16 0)
(3 -6.14582e-16 0)
(3 -7.51829e-16 0)
(3 -1.54052e-15 0)
(3 -1.71134e-15 0)
(3 -7.7771e-16 0)
(3 -4.57098e-16 0)
(3 -3.54389e-16 0)
(3 -4.12447e-16 0)
(3 -6.37729e-16 0)
(3 -6.00318e-16 0)
(3 -6.78209e-16 0)
(3 -2.90737e-16 0)
(3 8.94703e-16 0)
(3 8.07447e-16 0)
(3 6.29641e-16 0)
(3 5.33122e-16 0)
(3 6.95247e-16 0)
(3 8.48932e-16 0)
(3 3.41554e-16 0)
(3 -1.53526e-15 0)
(3 -1.93795e-15 0)
(3 -1.6176e-15 0)
(3 -1.39444e-15 0)
(3 -1.18808e-15 0)
(3.00069 0.000172711 0)
(1.41497 0.269625 0)
(0.809519 0.233906 0)
(0.775441 0.246834 0)
(0.759082 0.254154 0)
(0.74345 0.257413 0)
(0.730211 0.261478 0)
(0.718018 0.26552 0)
(0.70623 0.268623 0)
(0.693956 0.269905 0)
(0.680824 0.269397 0)
(0.666851 0.268599 0)
(0.652507 0.269883 0)
(0.63881 0.274804 0)
(0.626234 0.282423 0)
(0.613229 0.289205 0)
(0.598972 0.292148 0)
(0.583884 0.291723 0)
(0.568138 0.291222 0)
(0.552341 0.293979 0)
(0.537768 0.300901 0)
(0.523621 0.308929 0)
(0.507978 0.313276 0)
(0.491422 0.313762 0)
(0.474638 0.316382 0)
(0.4584 0.322373 0)
(0.441654 0.328427 0)
(0.424144 0.333564 0)
(0.406411 0.33922 0)
(0.388605 0.345221 0)
(0.370464 0.350735 0)
(0.35198 0.356421 0)
(0.333171 0.362933 0)
(0.313939 0.369961 0)
(0.294216 0.377192 0)
(0.274058 0.384716 0)
(0.253424 0.392355 0)
(0.232174 0.399923 0)
(0.2103 0.407715 0)
(0.187581 0.415393 0)
(0.164072 0.423317 0)
(0.139727 0.430254 0)
(0.114753 0.436609 0)
(0.0890337 0.440886 0)
(0.0633869 0.445823 0)
(0.0375278 0.448481 0)
(0.0127658 0.453696 0)
(3 4.64351e-18 0)
(3 -9.80317e-17 0)
(3 -1.51604e-16 0)
(3 -3.13078e-16 0)
(3 -2.3117e-16 0)
(3 -1.35326e-16 0)
(3 2.57718e-16 0)
(3 5.00735e-16 0)
(3 4.62161e-16 0)
(3 -2.59496e-16 0)
(3 -1.0912e-15 0)
(3 -1.07962e-15 0)
(3 -9.27111e-16 0)
(3 -8.98266e-16 0)
(3 -6.51595e-16 0)
(3 -5.07968e-16 0)
(3 2.935e-16 0)
(3 2.7969e-16 0)
(3 -1.02729e-16 0)
(3 -5.19802e-16 0)
(3 -4.19284e-16 0)
(3 -4.26574e-16 0)
(3 -6.882e-16 0)
(3 -9.37001e-16 0)
(3 -1.06581e-15 0)
(3 -1.21923e-15 0)
(3 -1.33132e-15 0)
(3 -1.04294e-15 0)
(3 -3.58473e-16 0)
(3 1.33186e-15 0)
(3 1.69062e-15 0)
(3 1.55835e-15 0)
(3 8.09346e-16 0)
(3 5.03915e-16 0)
(3 4.31526e-16 0)
(3 2.19756e-16 0)
(3 2.45106e-16 0)
(3 7.13211e-16 0)
(3 9.12747e-16 0)
(3 6.04365e-16 0)
(3 5.24588e-16 0)
(3 5.40232e-16 0)
(3 8.76302e-16 0)
(3 9.13739e-16 0)
(3 4.7922e-16 0)
(3 7.51388e-16 0)
(3 1.05482e-15 0)
(3 1.03889e-15 0)
(3 7.41372e-16 0)
(3 2.82423e-07 0)
(2.04676 0.292165 0)
(0.858842 0.292993 0)
(0.772104 0.287288 0)
(0.759983 0.28481 0)
(0.74776 0.285516 0)
(0.736489 0.28721 0)
(0.725598 0.289911 0)
(0.71479 0.292784 0)
(0.703439 0.295307 0)
(0.691177 0.296962 0)
(0.67811 0.297952 0)
(0.664664 0.299678 0)
(0.651511 0.303828 0)
(0.639419 0.310644 0)
(0.627719 0.317893 0)
(0.615083 0.322651 0)
(0.601423 0.324245 0)
(0.586939 0.324761 0)
(0.571939 0.327014 0)
(0.557464 0.333083 0)
(0.544221 0.342011 0)
(0.530186 0.349547 0)
(0.514708 0.352569 0)
(0.498621 0.355071 0)
(0.482763 0.360653 0)
(0.466798 0.3678 0)
(0.449989 0.374611 0)
(0.432636 0.381573 0)
(0.415008 0.388946 0)
(0.396904 0.396064 0)
(0.378261 0.403152 0)
(0.359152 0.410899 0)
(0.33956 0.419295 0)
(0.319461 0.428014 0)
(0.298916 0.437084 0)
(0.277915 0.446378 0)
(0.256348 0.45568 0)
(0.234257 0.465103 0)
(0.211415 0.474315 0)
(0.187653 0.483929 0)
(0.162403 0.493056 0)
(0.135657 0.502495 0)
(0.106676 0.510424 0)
(0.076405 0.517731 0)
(0.0452944 0.521416 0)
(0.0151849 0.526432 0)
(3 2.88319e-18 0)
(3 -2.86879e-17 0)
(3 1.55619e-16 0)
(3 1.97355e-16 0)
(3 2.09745e-16 0)
(3 1.03968e-16 0)
(3 4.82212e-17 0)
(3 -9.72469e-17 0)
(3 -3.22858e-16 0)
(3 -4.70825e-16 0)
(3 -4.69983e-16 0)
(3 -1.52348e-16 0)
(3 -3.78818e-16 0)
(3 -6.19041e-16 0)
(3 1.15311e-16 0)
(3 6.56721e-16 0)
(3 7.67735e-16 0)
(3 4.93257e-16 0)
(3 -2.43479e-16 0)
(3 -4.92609e-16 0)
(3 -1.01942e-15 0)
(3 -7.19121e-16 0)
(3 -4.15334e-16 0)
(3 -5.69659e-16 0)
(3 -4.21166e-16 0)
(3 -5.06116e-16 0)
(3 -8.46906e-16 0)
(3 -1.13821e-15 0)
(3 -1.5884e-15 0)
(3 -1.32875e-15 0)
(3 -1.53404e-16 0)
(3 2.81925e-16 0)
(3 6.81397e-16 0)
(3 1.25805e-15 0)
(3 1.93021e-15 0)
(3 2.09647e-15 0)
(3 1.62279e-15 0)
(3 1.31709e-15 0)
(3 1.37856e-15 0)
(3 1.16382e-15 0)
(3 1.03452e-15 0)
(3 1.43043e-15 0)
(3 1.5577e-15 0)
(3 1.15624e-15 0)
(3 6.3429e-16 0)
(3 1.98178e-15 0)
(3 2.86004e-15 0)
(3 3.38758e-15 0)
(3 1.05036e-15 0)
(3 6.32713e-10 0)
(2.91371 0.0929719 0)
(1.06727 0.343475 0)
(0.814816 0.312152 0)
(0.80036 0.303036 0)
(0.783134 0.304977 0)
(0.76846 0.306545 0)
(0.754875 0.309448 0)
(0.742045 0.313092 0)
(0.729484 0.317196 0)
(0.716657 0.321095 0)
(0.703353 0.324254 0)
(0.689836 0.327131 0)
(0.676556 0.331019 0)
(0.664117 0.336857 0)
(0.652564 0.343826 0)
(0.640854 0.34987 0)
(0.628235 0.35381 0)
(0.614667 0.356422 0)
(0.600384 0.359414 0)
(0.586001 0.364835 0)
(0.572691 0.373631 0)
(0.559885 0.383357 0)
(0.545676 0.390146 0)
(0.530334 0.394218 0)
(0.514788 0.399743 0)
(0.499386 0.407584 0)
(0.483434 0.416208 0)
(0.466764 0.425051 0)
(0.449633 0.434263 0)
(0.431968 0.443424 0)
(0.413672 0.452495 0)
(0.394711 0.461999 0)
(0.375269 0.472184 0)
(0.355142 0.482872 0)
(0.334245 0.494075 0)
(0.312486 0.505803 0)
(0.289722 0.517936 0)
(0.265772 0.530742 0)
(0.240114 0.543881 0)
(0.212988 0.558212 0)
(0.183774 0.572851 0)
(0.153273 0.588117 0)
(0.1215 0.602203 0)
(0.0885608 0.6131 0)
(0.0540818 0.618802 0)
(0.0173814 0.621948 0)
(3 -2.47254e-17 0)
(3 2.98486e-17 0)
(3 3.82687e-17 0)
(3 -2.07715e-16 0)
(3 -3.19351e-16 0)
(3 -3.917e-16 0)
(3 -4.80095e-16 0)
(3 -5.6863e-16 0)
(3 -4.95194e-16 0)
(3 3.61946e-16 0)
(3 1.0837e-15 0)
(3 1.0443e-15 0)
(3 4.32869e-16 0)
(3 -3.80554e-16 0)
(3 -5.47271e-16 0)
(3 -3.37187e-16 0)
(3 6.27854e-17 0)
(3 -2.79821e-16 0)
(3 -4.32943e-16 0)
(3 -5.55539e-16 0)
(3 -7.55053e-16 0)
(3 -6.23016e-16 0)
(3 -6.5006e-16 0)
(3 -7.02284e-16 0)
(3 -1.99565e-16 0)
(3 -5.63816e-16 0)
(3 -1.19439e-15 0)
(3 -1.43034e-15 0)
(3 -2.26058e-15 0)
(3 -2.83522e-15 0)
(3 -1.70531e-15 0)
(3 -1.18724e-15 0)
(3 -4.51754e-16 0)
(3 4.00415e-16 0)
(3 1.07795e-15 0)
(3 1.50739e-15 0)
(3 1.61142e-15 0)
(3 1.66765e-15 0)
(3 1.55008e-15 0)
(3 1.54801e-15 0)
(3 1.8487e-15 0)
(3 1.91615e-15 0)
(3 1.78364e-15 0)
(3 1.68532e-15 0)
(3 1.80104e-15 0)
(3 1.63051e-15 0)
(3 1.22179e-15 0)
(3 1.51735e-15 0)
(3 -2.20083e-15 0)
(3 1.15485e-12 0)
(3.00788 0.00147606 0)
(1.52958 0.368587 0)
(0.849005 0.335526 0)
(0.811979 0.347753 0)
(0.793636 0.349564 0)
(0.777666 0.348661 0)
(0.762319 0.348237 0)
(0.747874 0.349036 0)
(0.734226 0.351464 0)
(0.721096 0.355008 0)
(0.708155 0.358658 0)
(0.695383 0.361996 0)
(0.682986 0.365558 0)
(0.671251 0.370145 0)
(0.660365 0.375907 0)
(0.649957 0.382071 0)
(0.639224 0.387592 0)
(0.627737 0.392228 0)
(0.615506 0.396664 0)
(0.602804 0.402142 0)
(0.590419 0.410145 0)
(0.579056 0.420418 0)
(0.567461 0.43014 0)
(0.554496 0.436985 0)
(0.540842 0.443221 0)
(0.52718 0.451296 0)
(0.513393 0.461107 0)
(0.498931 0.471669 0)
(0.483822 0.482722 0)
(0.468017 0.493979 0)
(0.451499 0.505347 0)
(0.434317 0.517083 0)
(0.416493 0.529661 0)
(0.397884 0.543147 0)
(0.378375 0.5575 0)
(0.357979 0.572938 0)
(0.336473 0.589347 0)
(0.313882 0.607004 0)
(0.289858 0.62555 0)
(0.26452 0.645015 0)
(0.237786 0.664371 0)
(0.208985 0.682009 0)
(0.178254 0.699679 0)
(0.141797 0.719888 0)
(0.0961965 0.743168 0)
(0.0370052 0.763093 0)
(3 2.04408e-17 0)
(3 1.17345e-16 0)
(3 1.98457e-16 0)
(3 2.87986e-16 0)
(3 2.00573e-16 0)