/*--------------------------------*- C++ -*----------------------------------*\
  =========                 |
  \\      /  F ield         | OpenFOAM: The Open Source CFD Toolbox
   \\    /   O peration     | Website:  https://openfoam.org
    \\  /    A nd           | Version:  7
     \\/     M anipulation  |
\*---------------------------------------------------------------------------*/
FoamFile
{
    version     2.0;
    format      ascii;
    class       volScalarField;
    location    "0.9";
    object      rho;
}
// * * * * * * * * * * * * * * * * * * * * * * * * * * * * * * * * * * * * * //

dimensions      [1 -3 0 0 0 0 0];

internalField   nonuniform List<scalar> 
19968
(
1.40001
1.40001
1.40001
1.40001
1.40001
1.40001
1.40001
1.40001
1.40001
1.40001
1.40001
1.40001
1.40001
1.40001
1.40001
1.40001
1.40001
1.40001
1.40001
1.40001
1.40001
1.40001
1.40001
1.40001
1.40001
1.40001
1.40001
1.40001
1.40001
1.40001
1.40001
1.40001
1.40001
1.40001
1.40001
1.40001
1.40001
1.40001
1.40001
1.40001
1.40001
1.40001
1.40001
1.40001
1.40001
1.40001
1.40001
1.40001
1.40001
1.40001
1.40001
1.40001
1.40001
1.40001
1.40001
3.78604
5.4752
5.49051
5.4806
5.49679
5.53011
5.5825
5.64161
5.68631
5.70254
5.69754
5.69006
5.69528
5.70519
5.71804
5.72896
5.73839
5.74498
5.75019
5.76059
5.77924
5.8012
5.81239
5.80683
5.79223
5.78454
5.79978
5.84146
5.88849
5.91357
5.91006
5.88478
5.85464
5.83201
5.80666
5.75359
5.65021
5.49627
5.33352
5.22363
5.19447
1.40001
1.40001
1.40001
1.40001
1.40001
1.40001
1.40001
1.40001
1.40001
1.40001
1.40001
1.40001
1.40001
1.40001
1.40001
1.40001
1.40001
1.40001
1.40001
1.40001
1.40001
1.40001
1.40001
1.40001
1.40001
1.40001
1.40001
1.40001
1.40001
1.40001
1.40001
1.40001
1.40001
1.40001
1.40001
1.40001
1.40001
1.40001
1.40001
1.40001
1.40001
1.40001
1.40001
1.40001
1.40001
1.40001
1.40001
1.40001
1.40001
1.40001
1.40001
1.40001
1.40001
1.40001
1.40001
3.73946
5.47338
5.48936
5.48184
5.49856
5.53014
5.58113
5.63839
5.68204
5.69913
5.69441
5.69045
5.69755
5.70676
5.71793
5.72712
5.73627
5.74321
5.74918
5.76024
5.77867
5.79918
5.80901
5.80316
5.78937
5.78322
5.79946
5.84033
5.88563
5.90998
5.90698
5.88308
5.85437
5.83128
5.80361
5.74851
5.64465
5.49157
5.33
5.2204
5.19134
1.40001
1.40001
1.40001
1.40001
1.40001
1.40001
1.40001
1.40001
1.40001
1.40001
1.40001
1.40001
1.40001
1.40001
1.40001
1.40001
1.40001
1.40001
1.40001
1.40001
1.40001
1.40001
1.40001
1.40001
1.40001
1.40001
1.40001
1.40001
1.40001
1.40001
1.40001
1.40001
1.40001
1.40001
1.40001
1.40001
1.40001
1.40001
1.40001
1.40001
1.40001
1.40001
1.40001
1.40001
1.40001
1.40001
1.40001
1.40001
1.40001
1.40001
1.40001
1.40001
1.40001
1.40001
1.40001
3.64732
5.4724
5.48636
5.48104
5.49744
5.52783
5.57688
5.63229
5.67478
5.69155
5.6878
5.68911
5.69927
5.70886
5.71861
5.72526
5.7331
5.73985
5.74688
5.759
5.7765
5.79441
5.80265
5.79763
5.78684
5.78391
5.8007
5.83868
5.87988
5.90251
5.90102
5.88056
5.85436
5.82957
5.79735
5.73839
5.63304
5.48058
5.32084
5.2121
5.18308
1.40001
1.40001
1.40001
1.40001
1.40001
1.40001
1.40001
1.40001
1.40001
1.40001
1.40001
1.40001
1.40001
1.40001
1.40001
1.40001
1.40001
1.40001
1.40001
1.40001
1.40001
1.40001
1.40001
1.40001
1.40001
1.40001
1.40001
1.40001
1.40001
1.40001
1.40001
1.40001
1.40001
1.40001
1.40001
1.40001
1.40001
1.40001
1.40001
1.40001
1.40001
1.40001
1.40001
1.40001
1.40001
1.40001
1.40001
1.40001
1.40001
1.40001
1.40001
1.40001
1.40001
1.40001
1.40001
3.50802
5.45719
5.4851
5.47804
5.49562
5.52491
5.57155
5.62522
5.66567
5.68101
5.67809
5.6844
5.69871
5.70985
5.71919
5.72365
5.72935
5.73503
5.74254
5.7553
5.77127
5.78609
5.79275
5.78919
5.78251
5.78434
5.80312
5.83763
5.87254
5.8917
5.89119
5.87491
5.85222
5.82628
5.78942
5.72569
5.61723
5.46406
5.30607
5.19887
5.17049
1.40001
1.40001
1.40001
1.40001
1.40001
1.40001
1.40001
1.40001
1.40001
1.40001
1.40001
1.40001
1.40001
1.40001
1.40001
1.40001
1.40001
1.40001
1.40001
1.40001
1.40001
1.40001
1.40001
1.40001
1.40001
1.40001
1.40001
1.40001
1.40001
1.40001
1.40001
1.40001
1.40001
1.40001
1.40001
1.40001
1.40001
1.40001
1.40001
1.40001
1.40001
1.40001
1.40001
1.40001
1.40001
1.40001
1.40001
1.40001
1.40001
1.40001
1.40001
1.40001
1.40001
1.40001
1.40001
3.311
5.4234
5.48595
5.4746
5.49378
5.52157
5.56496
5.61773
5.65454
5.66767
5.66709
5.67741
5.69472
5.70857
5.71872
5.72264
5.72611
5.73003
5.7369
5.7491
5.76283
5.77416
5.77899
5.77759
5.77617
5.7845
5.80678
5.83743
5.86446
5.87816
5.87701
5.86476
5.84647
5.8212
5.78151
5.71347
5.60077
5.44549
5.28858
5.18328
5.15618
1.40001
1.40001
1.40001
1.40001
1.40001
1.40001
1.40001
1.40001
1.40001
1.40001
1.40001
1.40001
1.40001
1.40001
1.40001
1.40001
1.40001
1.40001
1.40001
1.40001
1.40001
1.40001
1.40001
1.40001
1.40001
1.40001
1.40001
1.40001
1.40001
1.40001
1.40001
1.40001
1.40001
1.40001
1.40001
1.40001
1.40001
1.40001
1.40001
1.40001
1.40001
1.40001
1.40001
1.40001
1.40001
1.40001
1.40001
1.40001
1.40001
1.40001
1.40001
1.40001
1.40001
1.40001
1.40001
3.05765
5.35478
5.48259
5.478
5.49981
5.52461
5.56293
5.60941
5.63899
5.65113
5.65748
5.6719
5.68881
5.70485
5.71493
5.71942
5.72199
5.72424
5.72953
5.74019
5.75128
5.75899
5.76205
5.76286
5.76833
5.78482
5.81058
5.83767
5.8568
5.86396
5.86019
5.85005
5.83574
5.81307
5.77334
5.70265
5.58572
5.42712
5.26997
5.16664
5.1403
1.40001
1.40001
1.40001
1.40001
1.40001
1.40001
1.40001
1.40001
1.40001
1.40001
1.40001
1.40001
1.40001
1.40001
1.40001
1.40001
1.40001
1.40001
1.40001
1.40001
1.40001
1.40001
1.40001
1.40001
1.40001
1.40001
1.40001
1.40001
1.40001
1.40001
1.40001
1.40001
1.40001
1.40001
1.40001
1.40001
1.40001
1.40001
1.40001
1.40001
1.40001
1.40001
1.40001
1.40001
1.40001
1.40001
1.40001
1.40001
1.40001
1.40001
1.40001
1.40001
1.40001
1.40001
1.40001
2.74496
5.22976
5.49077
5.50354
5.51333
5.5289
5.55842
5.59251
5.61717
5.63414
5.64995
5.66934
5.68348
5.6989
5.70777
5.7116
5.71361
5.71476
5.71972
5.72924
5.73768
5.74219
5.74407
5.74762
5.76011
5.78341
5.8112
5.83495
5.84745
5.84881
5.84218
5.83182
5.81928
5.80002
5.76273
5.69149
5.57099
5.40837
5.24993
5.14872
5.12288
1.40001
1.40001
1.40001
1.40001
1.40001
1.40001
1.40001
1.40001
1.40001
1.40001
1.40001
1.40001
1.40001
1.40001
1.40001
1.40001
1.40001
1.40001
1.40001
1.40001
1.40001
1.40001
1.40001
1.40001
1.40001
1.40001
1.40001
1.40001
1.40001
1.40001
1.40001
1.40001
1.40001
1.40001
1.40001
1.40001
1.40001
1.40001
1.40001
1.40001
1.40001
1.40001
1.40001
1.40001
1.40001
1.40001
1.40001
1.40001
1.40001
1.40001
1.40001
1.40001
1.40001
1.40001
1.40001
2.39258
5.06498
5.49137
5.50907
5.5177
5.52251
5.53914
5.56154
5.58896
5.61558
5.64293
5.66799
5.67911
5.69259
5.69934
5.6981
5.69849
5.69919
5.70519
5.71382
5.72018
5.72393
5.72821
5.73671
5.75436
5.77947
5.80528
5.82538
5.8347
5.83373
5.82494
5.81269
5.79941
5.78179
5.74787
5.67779
5.55459
5.38796
5.22768
5.1287
5.10377
1.40001
1.40001
1.40001
1.40001
1.40001
1.40001
1.40001
1.40001
1.40001
1.40001
1.40001
1.40001
1.40001
1.40001
1.40001
1.40001
1.40001
1.40001
1.40001
1.40001
1.40001
1.40001
1.40001
1.40001
1.40001
1.40001
1.40001
1.40001
1.40001
1.40001
1.40001
1.40001
1.40001
1.40001
1.40001
1.40001
1.40001
1.40001
1.40001
1.40001
1.40001
1.40001
1.40001
1.40001
1.40001
1.40001
1.40001
1.40001
1.40001
1.40001
1.40001
1.40001
1.40001
1.40001
1.40001
2.00745
4.84825
5.50915
5.52143
5.5143
5.51118
5.51315
5.53399
5.56466
5.59861
5.63383
5.66083
5.67483
5.68511
5.68846
5.68047
5.67681
5.67598
5.68252
5.69066
5.69733
5.70475
5.71648
5.73237
5.75159
5.77168
5.78983
5.80434
5.81325
5.81512
5.80791
5.79399
5.77695
5.7573
5.7258
5.65887
5.53646
5.36807
5.20594
5.10822
5.08389
1.40001
1.40001
1.40001
1.40001
1.40001
1.40001
1.40001
1.40001
1.40001
1.40001
1.40001
1.40001
1.40001
1.40001
1.40001
1.40001
1.40001
1.40001
1.40001
1.40001
1.40001
1.40001
1.40001
1.40001
1.40001
1.40001
1.40001
1.40001
1.40001
1.40001
1.40001
1.40001
1.40001
1.40001
1.40001
1.40001
1.40001
1.40001
1.40001
1.40001
1.40001
1.40001
1.40001
1.40001
1.40001
1.40001
1.40001
1.40001
1.40001
1.40001
1.40001
1.40001
1.40001
1.40001
1.40001
1.5756
4.39238
5.52176
5.53585
5.52172
5.50492
5.50014
5.52156
5.55333
5.58801
5.62013
5.64556
5.66548
5.67433
5.67215
5.66206
5.65335
5.64925
5.65331
5.66023
5.66945
5.68412
5.70674
5.73139
5.74952
5.76024
5.76655
5.77316
5.78364
5.79235
5.79032
5.77616
5.75329
5.72769
5.69566
5.63252
5.51386
5.34643
5.18256
5.08406
5.05913
1.40001
1.40001
1.40001
1.40001
1.40001
1.40001
1.40001
1.40001
1.40001
1.40001
1.40001
1.40001
1.40001
1.40001
1.40001
1.40001
1.40001
1.40001
1.40001
1.40001
1.40001
1.40001
1.40001
1.40001
1.40001
1.40001
1.40001
1.40001
1.40001
1.40001
1.40001
1.40001
1.40001
1.40001
1.40001
1.40001
1.40001
1.40001
1.40001
1.40001
1.40001
1.40001
1.40001
1.40001
1.40001
1.40001
1.40001
1.40001
1.40001
1.40001
1.40001
1.40001
1.40001
1.40001
1.40001
1.4032
3.59619
5.4514
5.48343
5.46922
5.46525
5.4738
5.5034
5.54172
5.57377
5.60193
5.62948
5.65024
5.65792
5.65373
5.6423
5.62997
5.62258
5.62314
5.62785
5.63876
5.65857
5.68949
5.72135
5.73798
5.73987
5.73525
5.73402
5.74421
5.75944
5.76342
5.74996
5.72296
5.69133
5.65696
5.59803
5.48619
5.32336
5.15857
5.05722
5.03041
1.40001
1.40001
1.40001
1.40001
1.40001
1.40001
1.40001
1.40001
1.40001
1.40001
1.40001
1.40001
1.40001
1.40001
1.40001
1.40001
1.40001
1.40001
1.40001
1.40001
1.40001
1.40001
1.40001
1.40001
1.40001
1.40001
1.40001
1.40001
1.40001
1.40001
1.40001
1.40001
1.40001
1.40001
1.40001
1.40001
1.40001
1.40001
1.40001
1.40001
1.40001
1.40001
1.40001
1.40001
1.40001
1.40001
1.40001
1.40001
1.40001
1.40001
1.40001
1.40001
1.40001
1.40001
1.40001
1.40001
2.62058
5.19235
5.46319
5.44457
5.43856
5.45116
5.48058
5.51989
5.55514
5.58399
5.61023
5.62928
5.63708
5.63176
5.62008
5.60786
5.59983
5.59874
5.60234
5.61151
5.62909
5.65896
5.69228
5.70902
5.70744
5.69772
5.6919
5.70003
5.71782
5.72709
5.71701
5.68948
5.65303
5.61396
5.55605
5.44981
5.29114
5.12403
5.01719
4.98733
1.40001
1.40001
1.40001
1.40001
1.40001
1.40001
1.40001
1.40001
1.40001
1.40001
1.40001
1.40001
1.40001
1.40001
1.40001
1.40001
1.40001
1.40001
1.40001
1.40001
1.40001
1.40001
1.40001
1.40001
1.40001
1.40001
1.40001
1.40001
1.40001
1.40001
1.40001
1.40001
1.40001
1.40001
1.40001
1.40001
1.40001
1.40001
1.40001
1.40001
1.40001
1.40001
1.40001
1.40001
1.40001
1.40001
1.40001
1.40001
1.40001
1.40001
1.40001
1.40001
1.40001
1.40001
1.40001
1.40001
1.76027
4.63528
5.47204
5.4521
5.44498
5.45841
5.48112
5.51034
5.53724
5.56142
5.58389
5.59988
5.60686
5.60334
5.59586
5.58856
5.58528
5.58352
5.58558
5.58946
5.59743
5.61521
5.64075
5.65707
5.65758
5.65039
5.64386
5.64733
5.66045
5.66953
5.66269
5.63685
5.59809
5.55554
5.49893
5.4004
5.24823
5.07992
4.96675
4.93362
1.40001
1.40001
1.40001
1.40001
1.40001
1.40001
1.40001
1.40001
1.40001
1.40001
1.40001
1.40001
1.40001
1.40001
1.40001
1.40001
1.40001
1.40001
1.40001
1.40001
1.40001
1.40001
1.40001
1.40001
1.40001
1.40001
1.40001
1.40001
1.40001
1.40001
1.40001
1.40001
1.40001
1.40001
1.40001
1.40001
1.40001
1.40001
1.40001
1.40001
1.40001
1.40001
1.40001
1.40001
1.40001
1.40001
1.40001
1.40001
1.40001
1.40001
1.40001
1.40001
1.40001
1.40001
1.40001
1.40001
1.40871
3.52524
5.40116
5.44666
5.44345
5.44399
5.44485
5.45877
5.4816
5.51013
5.53821
5.55831
5.57001
5.57413
5.57533
5.57486
5.57332
5.57053
5.56727
5.56183
5.5574
5.55868
5.56978
5.58505
5.59088
5.59176
5.58779
5.5852
5.59088
5.59649
5.59464
5.57508
5.5389
5.49482
5.4376
5.34194
5.18916
5.01057
4.88168
4.83874
1.40001
1.40001
1.40001
1.40001
1.40001
1.40001
1.40001
1.40001
1.40001
1.40001
1.40001
1.40001
1.40001
1.40001
1.40001
1.40001
1.40001
1.40001
1.40001
1.40001
1.40001
1.40001
1.40001
1.40001
1.40001
1.40001
1.40001
1.40001
1.40001
1.40001
1.40001
1.40001
1.40001
1.40001
1.40001
1.40001
1.40001
1.40001
1.40001
1.40001
1.40001
1.40001
1.40001
1.40001
1.40001
1.40001
1.40001
1.40001
1.40001
1.40001
1.40001
1.40001
1.40001
1.40001
1.40001
1.40001
1.40002
2.16108
4.92652
5.43613
5.43363
5.42696
5.41263
5.4125
5.43094
5.46032
5.49151
5.51616
5.53383
5.54479
5.55069
5.551
5.54833
5.54233
5.53231
5.51959
5.50557
5.49497
5.49193
5.50178
5.51022
5.51797
5.51688
5.50677
5.50188
5.49977
5.49411
5.47377
5.43399
5.38127
5.3162
5.22062
5.07364
4.8892
4.74906
4.6985
1.40001
1.40001
1.40001
1.40001
1.40001
1.40001
1.40001
1.40001
1.40001
1.40001
1.40001
1.40001
1.40001
1.40001
1.40001
1.40001
1.40001
1.40001
1.40001
1.40001
1.40001
1.40001
1.40001
1.40001
1.40001
1.40001
1.40001
1.40001
1.40001
1.40001
1.40001
1.40001
1.40001
1.40001
1.40001
1.40001
1.40001
1.40001
1.40001
1.40001
1.40001
1.40001
1.40001
1.40001
1.40001
1.40001
1.40001
1.40001
1.40001
1.40001
1.40001
1.40001
1.40001
1.40001
1.40001
1.40001
1.40001
1.43206
3.60514
5.38168
5.46145
5.43673
5.40899
5.3887
5.39274
5.41472
5.44275
5.46697
5.48438
5.49561
5.50322
5.50641
5.50597
5.50073
5.48935
5.47208
5.45135
5.42995
5.41407
5.41074
5.41308
5.42087
5.42175
5.41082
5.39764
5.38439
5.36856
5.34071
5.2977
5.24193
5.17787
5.09673
4.95568
4.7521
4.5316
4.49003
1.40001
1.40001
1.40001
1.40001
1.40001
1.40001
1.40001
1.40001
1.40001
1.40001
1.40001
1.40001
1.40001
1.40001
1.40001
1.40001
1.40001
1.40001
1.40001
1.40001
1.40001
1.40001
1.40001
1.40001
1.40001
1.40001
1.40001
1.40001
1.40001
1.40001
1.40001
1.40001
1.40001
1.40001
1.40001
1.40001
1.40001
1.40001
1.40001
1.40001
1.40001
1.40001
1.40001
1.40001
1.40001
1.40001
1.40001
1.40001
1.40001
1.40001
1.40001
1.40001
1.40001
1.40001
1.40001
1.40001
1.40001
1.39958
2.10259
4.86894
5.45153
5.41703
5.39169
5.36908
5.36633
5.38556
5.4136
5.44034
5.45963
5.47004
5.47466
5.47523
5.47125
5.46027
5.44146
5.41657
5.39021
5.36625
5.34353
5.32779
5.32252
5.32351
5.32384
5.31458
5.29534
5.27012
5.23769
5.19271
5.13178
5.05578
4.96181
4.83045
4.61499
4.26958
3.75979
2.87231
1.40001
1.40001
1.40001
1.40001
1.40001
1.40001
1.40001
1.40001
1.40001
1.40001
1.40001
1.40001
1.40001
1.40001
1.40001
1.40001
1.40001
1.40001
1.40001
1.40001
1.40001
1.40001
1.40001
1.40001
1.40001
1.40001
1.40001
1.40001
1.40001
1.40001
1.40001
1.40001
1.40001
1.40001
1.40001
1.40001
1.40001
1.40001
1.40001
1.40001
1.40001
1.40001
1.40001
1.40001
1.40001
1.40001
1.40001
1.40001
1.40001
1.40001
1.40001
1.40001
1.40001
1.40001
1.40001
1.40001
1.40001
1.39993
1.43909
3.77814
5.41652
5.40474
5.37299
5.3523
5.34465
5.35853
5.3864
5.41177
5.4303
5.43852
5.43995
5.43783
5.43187
5.41988
5.40002
5.37288
5.34353
5.31624
5.29095
5.26629
5.24873
5.23884
5.23148
5.21985
5.1978
5.1647
5.11816
5.05608
4.97419
4.87606
4.75302
4.5915
4.34936
3.99757
3.42735
2.6554
1.40001
1.40001
1.40001
1.40001
1.40001
1.40001
1.40001
1.40001
1.40001
1.40001
1.40001
1.40001
1.40001
1.40001
1.40001
1.40001
1.40001
1.40001
1.40001
1.40001
1.40001
1.40001
1.40001
1.40001
1.40001
1.40001
1.40001
1.40001
1.40001
1.40001
1.40001
1.40001
1.40001
1.40001
1.40001
1.40001
1.40001
1.40001
1.40001
1.40001
1.40001
1.40001
1.40001
1.40001
1.40001
1.40001
1.40001
1.40001
1.40001
1.40001
1.40001
1.40001
1.40001
1.40001
1.40001
1.40001
1.40001
1.4
1.40007
2.22786
4.95373
5.3969
5.36634
5.35015
5.3367
5.3365
5.35816
5.37938
5.39864
5.40884
5.41029
5.40516
5.39503
5.37963
5.35757
5.32764
5.29435
5.26099
5.23195
5.20367
5.1776
5.15657
5.13907
5.12031
5.09342
5.05518
4.99853
4.92142
4.82186
4.7033
4.56152
4.37964
4.14633
3.80316
3.34659
2.81075
1.40001
1.40001
1.40001
1.40001
1.40001
1.40001
1.40001
1.40001
1.40001
1.40001
1.40001
1.40001
1.40001
1.40001
1.40001
1.40001
1.40001
1.40001
1.40001
1.40001
1.40001
1.40001
1.40001
1.40001
1.40001
1.40001
1.40001
1.40001
1.40001
1.40001
1.40001
1.40001
1.40001
1.40001
1.40001
1.40001
1.40001
1.40001
1.40001
1.40001
1.40001
1.40001
1.40001
1.40001
1.40001
1.40001
1.40001
1.40001
1.40001
1.40001
1.40001
1.40001
1.40001
1.40001
1.40001
1.40001
1.40001
1.40001
1.40001
1.44615
3.68723
5.36605
5.38084
5.35319
5.32751
5.31349
5.32017
5.33855
5.35589
5.366
5.36611
5.358
5.34664
5.33225
5.31269
5.28533
5.25215
5.21509
5.1799
5.14559
5.11107
5.07937
5.05044
5.02032
4.98551
4.94235
4.88132
4.79621
4.68722
4.55771
4.40554
4.2214
3.99087
3.70659
3.36206
2.96807
1.40001
1.40001
1.40001
1.40001
1.40001
1.40001
1.40001
1.40001
1.40001
1.40001
1.40001
1.40001
1.40001
1.40001
1.40001
1.40001
1.40001
1.40001
1.40001
1.40001
1.40001
1.40001
1.40001
1.40001
1.40001
1.40001
1.40001
1.40001
1.40001
1.40001
1.40001
1.40001
1.40001
1.40001
1.40001
1.40001
1.40001
1.40001
1.40001
1.40001
1.40001
1.40001
1.40001
1.40001
1.40001
1.40001
1.40001
1.40001
1.40001
1.40001
1.40001
1.40001
1.40001
1.40001
1.40001
1.40001
1.40001
1.40001
1.40001
1.4001
2.05029
4.8444
5.38225
5.35365
5.33109
5.30508
5.29568
5.30618
5.32142
5.3319
5.33133
5.31969
5.30381
5.28712
5.26777
5.24195
5.20825
5.16978
5.12928
5.08819
5.04663
5.00698
4.96905
4.92867
4.8838
4.83232
4.76684
4.67963
4.57141
4.4422
4.29193
4.11287
3.90262
3.66691
3.39528
3.0979
1.40001
1.40001
1.40001
1.40001
1.40001
1.40001
1.40001
1.40001
1.40001
1.40001
1.40001
1.40001
1.40001
1.40001
1.40001
1.40001
1.40001
1.40001
1.40001
1.40001
1.40001
1.40001
1.40001
1.40001
1.40001
1.40001
1.40001
1.40001
1.40001
1.40001
1.40001
1.40001
1.40001
1.40001
1.40001
1.40001
1.40001
1.40001
1.40001
1.40001
1.40001
1.40001
1.40001
1.40001
1.40001
1.40001
1.40001
1.40001
1.40001
1.40001
1.40001
1.40001
1.40001
1.40001
1.40001
1.40001
1.40001
1.40001
1.40001
1.40001
1.4254
3.29532
5.25325
5.32945
5.30992
5.28206
5.26219
5.26197
5.26795
5.27688
5.27941
5.26827
5.25257
5.23664
5.2206
5.19912
5.16938
5.13263
5.08829
5.03845
4.98584
4.93548
4.88976
4.84358
4.79226
4.73319
4.6614
4.57316
4.46963
4.34721
4.20795
4.04281
3.86333
3.66576
3.43633
3.19995
1.40001
1.40001
1.40001
1.40001
1.40001
1.40001
1.40001
1.40001
1.40001
1.40001
1.40001
1.40001
1.40001
1.40001
1.40001
1.40001
1.40001
1.40001
1.40001
1.40001
1.40001
1.40001
1.40001
1.40001
1.40001
1.40001
1.40001
1.40001
1.40001
1.40001
1.40001
1.40001
1.40001
1.40001
1.40001
1.40001
1.40001
1.40001
1.40001
1.40001
1.40001
1.40001
1.40001
1.40001
1.40001
1.40001
1.40001
1.40001
1.40001
1.40001
1.40001
1.40001
1.40001
1.40001
1.40001
1.40001
1.40001
1.40001
1.40001
1.40001
1.40005
1.61963
4.38074
5.36456
5.33486
5.2984
5.26606
5.24513
5.23645
5.23459
5.23671
5.2288
5.21192
5.19169
5.17265
5.15242
5.12752
5.09494
5.05009
4.99462
4.93301
4.87207
4.8188
4.76782
4.71216
4.64784
4.57094
4.48121
4.38119
4.26805
4.14145
3.99659
3.84289
3.67385
3.48272
3.28072
1.40001
1.40001
1.40001
1.40001
1.40001
1.40001
1.40001
1.40001
1.40001
1.40001
1.40001
1.40001
1.40001
1.40001
1.40001
1.40001
1.40001
1.40001
1.40001
1.40001
1.40001
1.40001
1.40001
1.40001
1.40001
1.40001
1.40001
1.40001
1.40001
1.40001
1.40001
1.40001
1.40001
1.40001
1.40001
1.40001
1.40001
1.40001
1.40001
1.40001
1.40001
1.40001
1.40001
1.40001
1.40001
1.40001
1.40001
1.40001
1.40001
1.40001
1.40001
1.40001
1.40001
1.40001
1.40001
1.40001
1.40001
1.40001
1.40001
1.40001
1.40001
1.40255
2.47577
5.02219
5.32124
5.28335
5.25289
5.22445
5.20059
5.18666
5.1841
5.18212
5.17055
5.15165
5.13104
5.11072
5.08888
5.06023
5.01676
4.95742
4.88922
4.81855
4.7569
4.69981
4.64126
4.57615
4.49929
4.41018
4.31117
4.20456
4.08773
3.95943
3.82595
3.68118
3.52365
3.34762
1.40001
1.40001
1.40001
1.40001
1.40001
1.40001
1.40001
1.40001
1.40001
1.40001
1.40001
1.40001
1.40001
1.40001
1.40001
1.40001
1.40001
1.40001
1.40001
1.40001
1.40001
1.40001
1.40001
1.40001
1.40001
1.40001
1.40001
1.40001
1.40001
1.40001
1.40001
1.40001
1.40001
1.40001
1.40001
1.40001
1.40001
1.40001
1.40001
1.40001
1.40001
1.40001
1.40001
1.40001
1.40001
1.40001
1.40001
1.40001
1.40001
1.40001
1.40001
1.40001
1.40001
1.40001
1.40001
1.40001
1.40001
1.40001
1.40001
1.40001
1.40001
1.40001
1.46566
3.4776
5.24531
5.28287
5.25604
5.21923
5.17991
5.14817
5.13575
5.1303
5.12289
5.10856
5.08865
5.06678
5.04376
5.01563
4.97501
4.91878
4.85086
4.77885
4.71335
4.64908
4.58552
4.51964
4.44491
4.361
4.26442
4.1616
4.05107
3.93483
3.8162
3.68792
3.55406
3.39866
1.40001
1.40001
1.40001
1.40001
1.40001
1.40001
1.40001
1.40001
1.40001
1.40001
1.40001
1.40001
1.40001
1.40001
1.40001
1.40001
1.40001
1.40001
1.40001
1.40001
1.40001
1.40001
1.40001
1.40001
1.40001
1.40001
1.40001
1.40001
1.40001
1.40001
1.40001
1.40001
1.40001
1.40001
1.40001
1.40001
1.40001
1.40001
1.40001
1.40001
1.40001
1.40001
1.40001
1.40001
1.40001
1.40001
1.40001
1.40001
1.40001
1.40001
1.40001
1.40001
1.40001
1.40001
1.40001
1.40001
1.40001
1.40001
1.40001
1.40001
1.40001
1.40001
1.40024
1.66008
4.19839
5.24635
5.24784
5.22341
5.18405
5.14675
5.11609
5.09877
5.08806
5.07482
5.05596
5.03144
5.00359
4.97105
4.93065
4.87869
4.81374
4.74713
4.68098
4.61401
4.54704
4.47913
4.4055
4.32593
4.23428
4.13681
4.03304
3.92763
3.81711
3.69822
3.57807
3.43844
1.40001
1.40001
1.40001
1.40001
1.40001
1.40001
1.40001
1.40001
1.40001
1.40001
1.40001
1.40001
1.40001
1.40001
1.40001
1.40001
1.40001
1.40001
1.40001
1.40001
1.40001
1.40001
1.40001
1.40001
1.40001
1.40001
1.40001
1.40001
1.40001
1.40001
1.40001
1.40001
1.40001
1.40001
1.40001
1.40001
1.40001
1.40001
1.40001
1.40001
1.40001
1.40001
1.40001
1.40001
1.40001
1.40001
1.40001
1.40001
1.40001
1.40001
1.40001
1.40001
1.40001
1.40001
1.40001
1.40001
1.40001
1.40001
1.40001
1.40001
1.40001
1.40001
1.40001
1.40349
2.0693
4.73427
5.26449
5.22236
5.1841
5.14158
5.10254
5.07078
5.04955
5.03341
5.01394
4.99026
4.96089
4.92607
4.88593
4.83704
4.77642
4.71759
4.65678
4.59159
4.52355
4.45267
4.37799
4.29892
4.21256
4.12293
4.02783
3.93121
3.8246
3.71377
3.59979
3.47509
1.40001
1.40001
1.40001
1.40001
1.40001
1.40001
1.40001
1.40001
1.40001
1.40001
1.40001
1.40001
1.40001
1.40001
1.40001
1.40001
1.40001
1.40001
1.40001
1.40001
1.40001
1.40001
1.40001
1.40001
1.40001
1.40001
1.40001
1.40001
1.40001
1.40001
1.40001
1.40001
1.40001
1.40001
1.40001
1.40001
1.40001
1.40001
1.40001
1.40001
1.40001
1.40001
1.40001
1.40001
1.40001
1.40001
1.40001
1.40001
1.40001
1.40001
1.40001
1.40001
1.40001
1.40001
1.40001
1.40001
1.40001
1.40001
1.40001
1.40001
1.40001
1.40001
1.40001
1.40001
1.42316
2.73758
5.03623
5.22665
5.17936
5.13868
5.09678
5.0587
5.02507
4.9975
4.97206
4.94618
4.91759
4.88338
4.84312
4.794
4.73696
4.684
4.63079
4.57185
4.50676
4.43583
4.36003
4.27947
4.196
4.11234
4.02584
3.93617
3.83602
3.73376
3.62394
3.51211
1.40001
1.40001
1.40001
1.40001
1.40001
1.40001
1.40001
1.40001
1.40001
1.40001
1.40001
1.40001
1.40001
1.40001
1.40001
1.40001
1.40001
1.40001
1.40001
1.40001
1.40001
1.40001
1.40001
1.40001
1.40001
1.40001
1.40001
1.40001
1.40001
1.40001
1.40001
1.40001
1.40001
1.40001
1.40001
1.40001
1.40001
1.40001
1.40001
1.40001
1.40001
1.40001
1.40001
1.40001
1.40001
1.40001
1.40001
1.40001
1.40001
1.40001
1.40001
1.40001
1.40001
1.40001
1.40001
1.40001
1.40001
1.40001
1.40001
1.40001
1.40001
1.40001
1.40001
1.40001
1.40006
1.49746
3.32495
5.14632
5.17569
5.1388
5.10393
5.06182
5.02013
4.98121
4.94836
4.91728
4.8855
4.85038
4.80986
4.7603
4.70515
4.65316
4.60509
4.55234
4.4928
4.42526
4.34961
4.26718
4.1851
4.10422
4.02314
3.93879
3.84694
3.75251
3.64763
3.54497
1.40001
1.40001
1.40001
1.40001
1.40001
1.40001
1.40001
1.40001
1.40001
1.40001
1.40001
1.40001
1.40001
1.40001
1.40001
1.40001
1.40001
1.40001
1.40001
1.40001
1.40001
1.40001
1.40001
1.40001
1.40001
1.40001
1.40001
1.40001
1.40001
1.40001
1.40001
1.40001
1.40001
1.40001
1.40001
1.40001
1.40001
1.40001
1.40001
1.40001
1.40001
1.40001
1.40001
1.40001
1.40001
1.40001
1.40001
1.40001
1.40001
1.40001
1.40001
1.40001
1.40001
1.40001
1.40001
1.40001
1.40001
1.40001
1.40001
1.40001
1.40001
1.40001
1.40001
1.40001
1.40001
1.40058
1.61437
3.72668
5.15411
5.13844
5.1009
5.06825
5.02816
4.98766
4.94721
4.90726
4.86879
4.8286
4.78398
4.73318
4.6798
4.62774
4.58124
4.53314
4.48013
4.41853
4.34525
4.26285
4.18183
4.10192
4.02365
3.94311
3.85839
3.7704
3.67105
3.57465
1.40001
1.40001
1.40001
1.40001
1.40001
1.40001
1.40001
1.40001
1.40001
1.40001
1.40001
1.40001
1.40001
1.40001
1.40001
1.40001
1.40001
1.40001
1.40001
1.40001
1.40001
1.40001
1.40001
1.40001
1.40001
1.40001
1.40001
1.40001
1.40001
1.40001
1.40001
1.40001
1.40001
1.40001
1.40001
1.40001
1.40001
1.40001
1.40001
1.40001
1.40001
1.40001
1.40001
1.40001
1.40001
1.40001
1.40001
1.40001
1.40001
1.40001
1.40001
1.40001
1.40001
1.40001
1.40001
1.40001
1.40001
1.40001
1.40001
1.40001
1.40001
1.40001
1.40001
1.40001
1.40001
1.40001
1.40238
1.73749
3.99598
5.12128
5.09527
5.06253
5.02922
4.99028
4.95002
4.90874
4.86724
4.8233
4.77402
4.71886
4.66267
4.60884
4.55991
4.51304
4.46392
4.40818
4.34073
4.26352
4.1857
4.10714
4.03077
3.9524
3.87271
3.78993
3.6959
3.60394
1.40001
1.40001
1.40001
1.40001
1.40001
1.40001
1.40001
1.40001
1.40001
1.40001
1.40001
1.40001
1.40001
1.40001
1.40001
1.40001
1.40001
1.40001
1.40001
1.40001
1.40001
1.40001
1.40001
1.40001
1.40001
1.40001
1.40001
1.40001
1.40001
1.40001
1.40001
1.40001
1.40001
1.40001
1.40001
1.40001
1.40001
1.40001
1.40001
1.40001
1.40001
1.40001
1.40001
1.40001
1.40001
1.40001
1.40001
1.40001
1.40001
1.40001
1.40001
1.40001
1.40001
1.40001
1.40001
1.40001
1.40001
1.40001
1.40001
1.40001
1.40001
1.40001
1.40001
1.40001
1.40001
1.40001
1.40001
1.40576
1.85133
4.16743
5.08585
5.05621
5.02399
4.9887
4.94686
4.9071
4.86715
4.82388
4.77501
4.71948
4.65964
4.60076
4.54671
4.49583
4.44578
4.39236
4.33137
4.26381
4.19254
4.1173
4.04237
3.96518
3.88863
3.81036
3.72153
3.63487
1.40001
1.40001
1.40001
1.40001
1.40001
1.40001
1.40001
1.40001
1.40001
1.40001
1.40001
1.40001
1.40001
1.40001
1.40001
1.40001
1.40001
1.40001
1.40001
1.40001
1.40001
1.40001
1.40001
1.40001
1.40001
1.40001
1.40001
1.40001
1.40001
1.40001
1.40001
1.40001
1.40001
1.40001
1.40001
1.40001
1.40001
1.40001
1.40001
1.40001
1.40001
1.40001
1.40001
1.40001
1.40001
1.40001
1.40001
1.40001
1.40001
1.40001
1.40001
1.40001
1.40001
1.40001
1.40001
1.40001
1.40001
1.40001
1.40001
1.40001
1.40001
1.40001
1.40001
1.40001
1.40001
1.40001
1.40001
1.40002
1.41027
1.94492
4.25103
5.05306
5.0226
4.98479
4.9476
4.90547
4.86764
4.82804
4.78148
4.72722
4.66768
4.60629
4.54547
4.48758
4.4319
4.37653
4.32014
4.26261
4.2
4.12986
4.05697
3.98051
3.90556
3.83093
3.74668
3.66699
1.40001
1.40001
1.40001
1.40001
1.40001
1.40001
1.40001
1.40001
1.40001
1.40001
1.40001
1.40001
1.40001
1.40001
1.40001
1.40001
1.40001
1.40001
1.40001
1.40001
1.40001
1.40001
1.40001
1.40001
1.40001
1.40001
1.40001
1.40001
1.40001
1.40001
1.40001
1.40001
1.40001
1.40001
1.40001
1.40001
1.40001
1.40001
1.40001
1.40001
1.40001
1.40001
1.40001
1.40001
1.40001
1.40001
1.40001
1.40001
1.40001
1.40001
1.40001
1.40001
1.40001
1.40001
1.40001
1.40001
1.40001
1.40001
1.40001
1.40001
1.40001
1.40001
1.40001
1.40001
1.40001
1.40001
1.40001
1.40001
1.40003
1.41493
2.00384
4.25337
5.0162
4.98655
4.94519
4.90828
4.86735
4.82976
4.78923
4.73947
4.6817
4.61851
4.5537
4.49022
4.42774
4.36779
4.31267
4.2616
4.20657
4.14302
4.07415
3.99868
3.92385
3.85144
3.7708
3.69763
1.40001
1.40001
1.40001
1.40001
1.40001
1.40001
1.40001
1.40001
1.40001
1.40001
1.40001
1.40001
1.40001
1.40001
1.40001
1.40001
1.40001
1.40001
1.40001
1.40001
1.40001
1.40001
1.40001
1.40001
1.40001
1.40001
1.40001
1.40001
1.40001
1.40001
1.40001
1.40001
1.40001
1.40001
1.40001
1.40001
1.40001
1.40001
1.40001
1.40001
1.40001
1.40001
1.40001
1.40001
1.40001
1.40001
1.40001
1.40001
1.40001
1.40001
1.40001
1.40001
1.40001
1.40001
1.40001
1.40001
1.40001
1.40001
1.40001
1.40001
1.40001
1.40001
1.40001
1.40001
1.40001
1.40001
1.40001
1.40001
1.40001
1.40005
1.41834
2.01776
4.17686
4.97593
4.94871
4.90283
4.86716
4.82841
4.7902
4.74851
4.69744
4.63762
4.57149
4.50315
4.43636
4.3731
4.31493
4.26303
4.21053
4.15214
4.08904
4.01778
3.94484
3.87432
3.79621
3.72687
1.40001
1.40001
1.40001
1.40001
1.40001
1.40001
1.40001
1.40001
1.40001
1.40001
1.40001
1.40001
1.40001
1.40001
1.40001
1.40001
1.40001
1.40001
1.40001
1.40001
1.40001
1.40001
1.40001
1.40001
1.40001
1.40001
1.40001
1.40001
1.40001
1.40001
1.40001
1.40001
1.40001
1.40001
1.40001
1.40001
1.40001
1.40001
1.40001
1.40001
1.40001
1.40001
1.40001
1.40001
1.40001
1.40001
1.40001
1.40001
1.40001
1.40001
1.40001
1.40001
1.40001
1.40001
1.40001
1.40001
1.40001
1.40001
1.40001
1.40001
1.40001
1.40001
1.40001
1.40001
1.40001
1.40001
1.40001
1.40001
1.40001
1.40001
1.40006
1.41922
1.98524
4.02899
4.92319
4.906
4.86055
4.82667
4.78916
4.75192
4.71123
4.65998
4.5979
4.52876
4.45908
4.39281
4.33027
4.27317
4.21821
4.16146
4.10303
4.03765
3.96859
3.90018
3.82531
3.75707
1.40001
1.40001
1.40001
1.40001
1.40001
1.40001
1.40001
1.40001
1.40001
1.40001
1.40001
1.40001
1.40001
1.40001
1.40001
1.40001
1.40001
1.40001
1.40001
1.40001
1.40001
1.40001
1.40001
1.40001
1.40001
1.40001
1.40001
1.40001
1.40001
1.40001
1.40001
1.40001
1.40001
1.40001
1.40001
1.40001
1.40001
1.40001
1.40001
1.40001
1.40001
1.40001
1.40001
1.40001
1.40001
1.40001
1.40001
1.40001
1.40001
1.40001
1.40001
1.40001
1.40001
1.40001
1.40001
1.40001
1.40001
1.40001
1.40001
1.40001
1.40001
1.40001
1.40001
1.40001
1.40001
1.40001
1.40001
1.40001
1.40001
1.40001
1.40001
1.40007
1.41736
1.91424
3.79168
4.85518
4.87402
4.82701
4.79031
4.75609
4.71879
4.67522
4.62152
4.55842
4.49066
4.42339
4.35766
4.29427
4.23446
4.17648
4.12036
4.06055
3.99539
3.92935
3.85738
3.79015
1.40001
1.40001
1.40001
1.40001
1.40001
1.40001
1.40001
1.40001
1.40001
1.40001
1.40001
1.40001
1.40001
1.40001
1.40001
1.40001
1.40001
1.40001
1.40001
1.40001
1.40001
1.40001
1.40001
1.40001
1.40001
1.40001
1.40001
1.40001
1.40001
1.40001
1.40001
1.40001
1.40001
1.40001
1.40001
1.40001
1.40001
1.40001
1.40001
1.40001
1.40001
1.40001
1.40001
1.40001
1.40001
1.40001
1.40001
1.40001
1.40001
1.40001
1.40001
1.40001
1.40001
1.40001
1.40001
1.40001
1.40001
1.40001
1.40001
1.40001
1.40001
1.40001
1.40001
1.40001
1.40001
1.40001
1.40001
1.40001
1.40001
1.40001
1.40001
1.40001
1.40006
1.41355
1.80904
3.46916
4.78468
4.84522
4.79746
4.76033
4.72305
4.6814
4.63663
4.58444
4.52428
4.45961
4.39299
4.32607
4.26187
4.20057
4.14357
4.08553
4.02345
3.96067
3.89097
3.8274
1.40001
1.40001
1.40001
1.40001
1.40001
1.40001
1.40001
1.40001
1.40001
1.40001
1.40001
1.40001
1.40001
1.40001
1.40001
1.40001
1.40001
1.40001
1.40001
1.40001
1.40001
1.40001
1.40001
1.40001
1.40001
1.40001
1.40001
1.40001
1.40001
1.40001
1.40001
1.40001
1.40001
1.40001
1.40001