/*--------------------------------*- C++ -*----------------------------------*\
  =========                 |
  \\      /  F ield         | OpenFOAM: The Open Source CFD Toolbox
   \\    /   O peration     | Website:  https://openfoam.org
    \\  /    A nd           | Version:  7
     \\/     M anipulation  |
\*---------------------------------------------------------------------------*/
FoamFile
{
    version     2.0;
    format      ascii;
    class       volScalarField;
    location    "0.9";
    object      T;
}
// * * * * * * * * * * * * * * * * * * * * * * * * * * * * * * * * * * * * * //

dimensions      [0 0 0 1 0 0 0];

internalField   nonuniform List<scalar> 
19968
(
1
1
1
1
1
1
1
1
1
1
1
1
1
1
1
1
1
1
1
1
1
1
1
1
1
1
1
1
1
1
1
1
1
1
1
1
1
1
1
1
1
1
1
1
1
1
1
1
1
1
1
1
1
1
1
2.23723
2.77329
2.79375
2.79102
2.78875
2.78432
2.78222
2.78476
2.79214
2.80521
2.82085
2.8322
2.83656
2.83474
2.83203
2.83143
2.83347
2.83817
2.84422
2.85043
2.85624
2.86146
2.86495
2.86609
2.86571
2.86704
2.87276
2.88304
2.89422
2.9029
2.90655
2.90605
2.90735
2.91339
2.92845
2.95966
3.01899
3.11177
3.21733
3.29397
3.32318
1
1
1
1
1
1
1
1
1
1
1
1
1
1
1
1
1
1
1
1
1
1
1
1
1
1
1
1
1
1
1
1
1
1
1
1
1
1
1
1
1
1
1
1
1
1
1
1
1
1
1
1
1
1
1
2.22448
2.77387
2.79365
2.79131
2.78908
2.78417
2.78193
2.78433
2.7916
2.80494
2.82078
2.83259
2.83679
2.83472
2.8317
2.83087
2.83297
2.83786
2.84411
2.85041
2.85612
2.86104
2.86428
2.8654
2.86517
2.86675
2.8727
2.8828
2.89368
2.90228
2.90605
2.90582
2.90747
2.91363
2.92852
2.95981
3.01964
3.11288
3.21836
3.29445
3.32338
1
1
1
1
1
1
1
1
1
1
1
1
1
1
1
1
1
1
1
1
1
1
1
1
1
1
1
1
1
1
1
1
1
1
1
1
1
1
1
1
1
1
1
1
1
1
1
1
1
1
1
1
1
1
1
2.19862
2.77576
2.79264
2.79056
2.78803
2.78271
2.78064
2.78333
2.79108
2.80484
2.82098
2.83294
2.83641
2.83414
2.8309
2.82988
2.83207
2.83726
2.84386
2.85025
2.8556
2.85997
2.86295
2.86431
2.86471
2.86686
2.87292
2.8824
2.89257
2.90092
2.90508
2.90563
2.90788
2.91418
2.92899
2.96095
3.02228
3.11665
3.22176
3.29641
3.32452
1
1
1
1
1
1
1
1
1
1
1
1
1
1
1
1
1
1
1
1
1
1
1
1
1
1
1
1
1
1
1
1
1
1
1
1
1
1
1
1
1
1
1
1
1
1
1
1
1
1
1
1
1
1
1
2.16018
2.77785
2.79044
2.78762
2.7845
2.77893
2.77801
2.78164
2.79088
2.8055
2.82143
2.83274
2.83502
2.83261
2.82939
2.8285
2.83081
2.83632
2.84321
2.84953
2.85432
2.85802
2.86075
2.86249
2.86388
2.86702
2.87326
2.88202
2.89113
2.89886
2.90333
2.90485
2.90789
2.91449
2.92956
2.96271
3.02616
3.12209
3.22682
3.29968
3.32681
1
1
1
1
1
1
1
1
1
1
1
1
1
1
1
1
1
1
1
1
1
1
1
1
1
1
1
1
1
1
1
1
1
1
1
1
1
1
1
1
1
1
1
1
1
1
1
1
1
1
1
1
1
1
1
2.10363
2.78058
2.78669
2.78198
2.77751
2.77173
2.7729
2.77933
2.79131
2.80721
2.82229
2.83181
2.83231
2.8298
2.82703
2.82694
2.82952
2.83535
2.84223
2.84811
2.85212
2.8551
2.85757
2.85984
2.86256
2.8671
2.87378
2.88177
2.88947
2.89607
2.90049
2.90309
2.90704
2.91421
2.92978
2.96405
3.02935
3.12672
3.23135
3.30295
3.32942
1
1
1
1
1
1
1
1
1
1
1
1
1
1
1
1
1
1
1
1
1
1
1
1
1
1
1
1
1
1
1
1
1
1
1
1
1
1
1
1
1
1
1
1
1
1
1
1
1
1
1
1
1
1
1
2.02415
2.77882
2.77946
2.77394
2.76838
2.7636
2.76686
2.77737
2.7926
2.80953
2.82321
2.83007
2.82877
2.82568
2.82365
2.82456
2.82821
2.83439
2.84079
2.84581
2.84894
2.85121
2.85346
2.85641
2.8608
2.86696
2.87425
2.88157
2.88783
2.89295
2.89681
2.90018
2.90485
2.91286
2.92927
2.96443
3.03062
3.12859
3.23331
3.30485
3.33119
1
1
1
1
1
1
1
1
1
1
1
1
1
1
1
1
1
1
1
1
1
1
1
1
1
1
1
1
1
1
1
1
1
1
1
1
1
1
1
1
1
1
1
1
1
1
1
1
1
1
1
1
1
1
1
1.90717
2.76015
2.77129
2.76518
2.75732
2.75645
2.76266
2.77667
2.7944
2.81141
2.82304
2.82685
2.82397
2.82065
2.81962
2.82146
2.82637
2.83287
2.83865
2.84265
2.84492
2.84658
2.84877
2.85261
2.85869
2.86631
2.87403
2.88071
2.88576
2.88953
2.89266
2.89619
2.90108
2.90978
2.92719
2.96315
3.02964
3.1277
3.2328
3.30532
3.33203
1
1
1
1
1
1
1
1
1
1
1
1
1
1
1
1
1
1
1
1
1
1
1
1
1
1
1
1
1
1
1
1
1
1
1
1
1
1
1
1
1
1
1
1
1
1
1
1
1
1
1
1
1
1
1
1.74346
2.71781
2.75672
2.74969
2.74766
2.75062
2.76143
2.77753
2.79554
2.81082
2.81986
2.82118
2.81771
2.81516
2.81536
2.81794
2.82379
2.8301
2.83515
2.83807
2.83966
2.84121
2.84412
2.8493
2.85666
2.86483
2.87233
2.87842
2.88282
2.88593
2.88851
2.89163
2.89627
2.90499
2.92279
2.95909
3.02569
3.12394
3.2298
3.30384
3.33115
1
1
1
1
1
1
1
1
1
1
1
1
1
1
1
1
1
1
1
1
1
1
1
1
1
1
1
1
1
1
1
1
1
1
1
1
1
1
1
1
1
1
1
1
1
1
1
1
1
1
1
1
1
1
1
1.5197
2.62617
2.74113
2.74053
2.74415
2.75282
2.7641
2.77999
2.795
2.80637
2.81221
2.81216
2.81002
2.80939
2.81131
2.81455
2.82025
2.82536
2.8294
2.83143
2.83286
2.83524
2.84002
2.847
2.85484
2.86219
2.86842
2.87356
2.87782
2.88139
2.88423
2.88689
2.89061
2.8983
2.9155
2.95138
3.01766
3.11617
3.22337
3.29954
3.32778
1
1
1
1
1
1
1
1
1
1
1
1
1
1
1
1
1
1
1
1
1
1
1
1
1
1
1
1
1
1
1
1
1
1
1
1
1
1
1
1
1
1
1
1
1
1
1
1
1
1
1
1
1
1
1
1.16779
2.43122
2.72591
2.74409
2.75075
2.75925
2.76864
2.78164
2.79213
2.79804
2.80004
2.80027
2.80119
2.80363
2.80757
2.81183
2.81632
2.8193
2.8216
2.82279
2.82456
2.82871
2.83618
2.84514
2.85279
2.85844
2.86253
2.86623
2.87088
2.87589
2.87976
2.88204
2.88423
2.88993
2.90547
2.93995
3.00505
3.10356
3.21248
3.29122
3.32055
1
1
1
1
1
1
1
1
1
1
1
1
1
1
1
1
1
1
1
1
1
1
1
1
1
1
1
1
1
1
1
1
1
1
1
1
1
1
1
1
1
1
1
1
1
1
1
1
1
1
1
1
1
1
1
1.00214
2.17856
2.72219
2.74049
2.74755
2.75705
2.76686
2.77723
2.78403
2.78602
2.78678
2.78883
2.79299
2.7987
2.80437
2.80886
2.81145
2.81208
2.8125
2.81296
2.8153
2.82119
2.83084
2.84127
2.84854
2.85246
2.8544
2.85676
2.86161
2.86807
2.87304
2.87515
2.87593
2.87955
2.89265
2.92466
2.98752
3.08563
3.1968
3.27873
3.30944
1
1
1
1
1
1
1
1
1
1
1
1
1
1
1
1
1
1
1
1
1
1
1
1
1
1
1
1
1
1
1
1
1
1
1
1
1
1
1
1
1
1
1
1
1
1
1
1
1
1
1
1
1
1
1
1
1.82648
2.67829
2.73411
2.74313
2.75119
2.75907
2.76592
2.77127
2.77399
2.77584
2.77952
2.78604
2.79431
2.8009
2.80459
2.80513
2.80419
2.80337
2.80377
2.80672
2.81316
2.82297
2.83348
2.84044
2.84349
2.84436
2.84606
2.85076
2.85801
2.86407
2.86662
2.86658
2.86829
2.87809
2.90603
2.96486
3.06109
3.17395
3.2591
3.29132
1
1
1
1
1
1
1
1
1
1
1
1
1
1
1
1
1
1
1
1
1
1
1
1
1
1
1
1
1
1
1
1
1
1
1
1
1
1
1
1
1
1
1
1
1
1
1
1
1
1
1
1
1
1
1
1
1.3073
2.49264
2.71996
2.73597
2.74378
2.75082
2.75583
2.76067
2.7638
2.76651
2.77118
2.77866
2.78776
2.79475
2.79804
2.79783
2.79675
2.79558
2.79634
2.79947
2.80482
2.8124
2.821
2.82719
2.83034
2.83191
2.83354
2.8377
2.8442
2.85032
2.85336
2.853
2.85301
2.85933
2.8822
2.93549
3.02838
3.14268
3.23156
3.26571
1
1
1
1
1
1
1
1
1
1
1
1
1
1
1
1
1
1
1
1
1
1
1
1
1
1
1
1
1
1
1
1
1
1
1
1
1
1
1
1
1
1
1
1
1
1
1
1
1
1
1
1
1
1
1
1
1.00588
2.16172
2.71725
2.72724
2.73021
2.7345
2.73783
2.74231
2.74697
2.75238
2.75944
2.76813
2.7777
2.78559
2.78969
2.79003
2.78909
2.7882
2.78863
2.79076
2.79458
2.79889
2.80392
2.80935
2.81326
2.81663
2.81913
2.82222
2.82717
2.83263
2.83676
2.83728
2.83639
2.8398
2.85661
2.90165
2.98698
3.09833
3.18777
3.2218
1
1
1
1
1
1
1
1
1
1
1
1
1
1
1
1
1
1
1
1
1
1
1
1
1
1
1
1
1
1
1
1
1
1
1
1
1
1
1
1
1
1
1
1
1
1
1
1
1
1
1
1
1
1
1
1
1.00001
1.56787
2.5812
2.70952
2.7095
2.71377
2.71901
2.72403
2.73096
2.73798
2.74593
2.75489
2.76455
2.77286
2.77761
2.77842
2.77788
2.77717
2.77667
2.77799
2.78088
2.78325
2.78473
2.78861
2.7928
2.79798
2.80148
2.80226
2.80544
2.8094
2.81255
2.81248
2.80985
2.8088
2.81655
2.84797
2.92051
3.028
3.12511
3.16508
1
1
1
1
1
1
1
1
1
1
1
1
1
1
1
1
1
1
1
1
1
1
1
1
1
1
1
1
1
1
1
1
1
1
1
1
1
1
1
1
1
1
1
1
1
1
1
1
1
1
1
1
1
1
1
1
1
1.02178
2.18011
2.69438
2.70125
2.69969
2.70375
2.70889
2.71437
2.72128
2.72825
2.73573
2.74393
2.75176
2.75769
2.76083
2.76235
2.76269
2.76205
2.76261
2.76444
2.76558
2.76518
2.76554
2.76821
2.77377
2.77796
2.7779
2.77923
2.78094
2.78186
2.78025
2.77603
2.77215
2.77422
2.7932
2.84881
2.95085
3.05478
3.12841
1
1
1
1
1
1
1
1
1
1
1
1
1
1
1
1
1
1
1
1
1
1
1
1
1
1
1
1
1
1
1
1
1
1
1
1
1
1
1
1
1
1
1
1
1
1
1
1
1
1
1
1
1
1
1
1
1
0.99978
1.51439
2.52798
2.67923
2.6807
2.69036
2.69773
2.70107
2.70651
2.71204
2.71826
2.72565
2.73368
2.74094
2.7459
2.74824
2.74822
2.74666
2.7454
2.74583
2.74679
2.74617
2.74463
2.74517
2.74926
2.75351
2.75372
2.75357
2.7528
2.75027
2.74495
2.73626
2.72487
2.71387
2.70898
2.7181
2.74519
2.76798
2.70591
1
1
1
1
1
1
1
1
1
1
1
1
1
1
1
1
1
1
1
1
1
1
1
1
1
1
1
1
1
1
1
1
1
1
1
1
1
1
1
1
1
1
1
1
1
1
1
1
1
1
1
1
1
1
1
1
1
0.999974
1.02539
2.22203
2.67303
2.68135
2.68362
2.68808
2.68954
2.69235
2.69662
2.70123
2.70745
2.71527
2.72338
2.72975
2.73347
2.73419
2.73279
2.73058
2.72946
2.72972
2.7295
2.72762
2.72612
2.72717
2.72965
2.73012
2.72941
2.72701
2.72134
2.71196
2.69825
2.6808
2.65916
2.6358
2.6118
2.59106
2.54306
2.43199
1
1
1
1
1
1
1
1
1
1
1
1
1
1
1
1
1
1
1
1
1
1
1
1
1
1
1
1
1
1
1
1
1
1
1
1
1
1
1
1
1
1
1
1
1
1
1
1
1
1
1
1
1
1
1
1
1
0.999999
1.00004
1.57327
2.52937
2.66731
2.67061
2.67689
2.6785
2.67867
2.68194
2.68492
2.6899
2.69737
2.70616
2.71353
2.71828
2.71928
2.71769
2.71437
2.71149
2.71011
2.70966
2.70819
2.70613
2.70516
2.70521
2.70486
2.70346
2.69982
2.69168
2.67858
2.66047
2.6379
2.61
2.57466
2.53364
2.47663
2.40215
2.31334
1
1
1
1
1
1
1
1
1
1
1
1
1
1
1
1
1
1
1
1
1
1
1
1
1
1
1
1
1
1
1
1
1
1
1
1
1
1
1
1
1
1
1
1
1
1
1
1
1
1
1
1
1
1
1
1
1
1
1
1.02958
2.18402
2.66291
2.66572
2.66376
2.66482
2.66504
2.66598
2.66858
2.67244
2.67846
2.68625
2.69365
2.69984
2.70224
2.70112
2.69792
2.69417
2.69125
2.68956
2.68762
2.68508
2.68282
2.6809
2.67879
2.67587
2.67095
2.66162
2.64648
2.62579
2.60021
2.56895
2.5298
2.48
2.41842
2.34215
2.25549
1
1
1
1
1
1
1
1
1
1
1
1
1
1
1
1
1
1
1
1
1
1
1
1
1
1
1
1
1
1
1
1
1
1
1
1
1
1
1
1
1
1
1
1
1
1
1
1
1
1
1
1
1
1
1
1
1
1
1
1.00006
1.46688
2.49751
2.6472
2.64518
2.64915
2.65213
2.65362
2.65612
2.65931
2.66367
2.66946
2.67529
2.68132
2.68453
2.68375
2.68068
2.67608
2.67187
2.66863
2.6658
2.66285
2.66001
2.65698
2.65314
2.64813
2.64132
2.63099
2.61536
2.59457
2.56857
2.53709
2.49785
2.44981
2.3941
2.32748
2.25638
1
1
1
1
1
1
1
1
1
1
1
1
1
1
1
1
1
1
1
1
1
1
1
1
1
1
1
1
1
1
1
1
1
1
1
1
1
1
1
1
1
1
1
1
1
1
1
1
1
1
1
1
1
1
1
1
1
1
1
1
1.01646
2.0489
2.61155
2.62552
2.63149
2.63684
2.63899
2.64079
2.64263
2.64551
2.64994
2.65434
2.6602
2.66459
2.66495
2.66301
2.65887
2.65415
2.64938
2.64475
2.64013
2.63588
2.63197
2.6273
2.621
2.61259
2.601
2.58529
2.56557
2.5409
2.51158
2.47509
2.43371
2.38564
2.3289
2.26739
1
1
1
1
1
1
1
1
1
1
1
1
1
1
1
1
1
1
1
1
1
1
1
1
1
1
1
1
1
1
1
1
1
1
1
1
1
1
1
1
1
1
1
1
1
1
1
1
1
1
1
1
1
1
1
1
1
1
1
1
1.00002
1.15842
2.3312
2.60862
2.6245
2.62972
2.62952
2.62881
2.62858
2.62951
2.63281
2.63667
2.64096
2.64432
2.64483
2.64359
2.64066
2.63661
2.63123
2.62503
2.6185
2.61234
2.60733
2.602
2.59495
2.58547
2.57282
2.55693
2.53819
2.51578
2.4894
2.45761
2.42248
2.38229
2.33456
2.28198
1
1
1
1
1
1
1
1
1
1
1
1
1
1
1
1
1
1
1
1
1
1
1
1
1
1
1
1
1
1
1
1
1
1
1
1
1
1
1
1
1
1
1
1
1
1
1
1
1
1
1
1
1
1
1
1
1
1
1
1
1
1.00151
1.67193
2.4944
2.60075
2.60701
2.61121
2.61131
2.61115
2.61204
2.61455
2.61882
2.62205
2.62403
2.62428
2.6237
2.62231
2.61983
2.61496
2.60756
2.59909
2.59052
2.58371
2.57723
2.56968
2.56004
2.54738
2.53168
2.51337
2.49276
2.46897
2.44144
2.41155
2.3777
2.33935
2.29458
1
1
1
1
1
1
1
1
1
1
1
1
1
1
1
1
1
1
1
1
1
1
1
1
1
1
1
1
1
1
1
1
1
1
1
1
1
1
1
1
1
1
1
1
1
1
1
1
1
1
1
1
1
1
1
1
1
1
1
1
1
1
1.04265
2.08152
2.58168
2.59256
2.59162
2.59272
2.59382
2.59482
2.59704
2.59988
2.60188
2.6024
2.60208
2.60171
2.60147
2.6006
2.59739
2.59075
2.58166
2.57193
2.56367
2.55537
2.54666
2.53684
2.52461
2.51004
2.49234
2.47284
2.45093
2.42682
2.40113
2.37199
2.33996
2.30158
1
1
1
1
1
1
1
1
1
1
1
1
1
1
1
1
1
1
1
1
1
1
1
1
1
1
1
1
1
1
1
1
1
1
1
1
1
1
1
1
1
1
1
1
1
1
1
1
1
1
1
1
1
1
1
1
1
1
1
1
1
1
1.00012
1.1873
2.27293
2.55637
2.57576
2.57888
2.58215
2.58341
2.58362
2.58375
2.58298
2.58156
2.58063
2.58017
2.58037
2.58029
2.57874
2.57384
2.56511
2.55558
2.5462
2.53663
2.52682
2.51642
2.50439
2.49073
2.47409
2.45584
2.43577
2.41469
2.39156
2.36561
2.33821
2.30473
1
1
1
1
1
1
1
1
1
1
1
1
1
1
1
1
1
1
1
1
1
1
1
1
1
1
1
1
1
1
1
1
1
1
1
1
1
1
1
1
1
1
1
1
1
1
1
1
1
1
1
1
1
1
1
1
1
1
1
1
1
1
1
1.00207
1.45319
2.37824
2.53653
2.55338
2.56617
2.56981
2.56936
2.56708
2.56307
2.55895
2.55696
2.5569
2.55768
2.55858
2.55833
2.55551
2.54815
2.53975
2.53067
2.52063
2.51001
2.49872
2.48638
2.47275
2.45717
2.44063
2.42262
2.40397
2.38247
2.35907
2.33405
2.30529
1
1
1
1
1
1
1
1
1
1
1
1
1
1
1
1
1
1
1
1
1
1
1
1
1
1
1
1
1
1
1
1
1
1
1
1
1
1
1
1
1
1
1
1
1
1
1
1
1
1
1
1
1
1
1
1
1
1
1
1
1
1
1
1
1.01458
1.76856
2.44887
2.52711
2.53845
2.5483
2.54954
2.54821
2.54405
2.53818
2.5338
2.53316
2.53405
2.53579
2.53629
2.53469
2.52911
2.52223
2.5145
2.50519
2.4946
2.48294
2.47024
2.45626
2.44131
2.42614
2.4101
2.39316
2.3734
2.35259
2.32921
2.30437
1
1
1
1
1
1
1
1
1
1
1
1
1
1
1
1
1
1
1
1
1
1
1
1
1
1
1
1
1
1
1
1
1
1
1
1
1
1
1
1
1
1
1
1
1
1
1
1
1
1
1
1
1
1
1
1
1
1
1
1
1
1
1
1
1.00002
1.06447
1.98171
2.48884
2.52341
2.52344
2.52726
2.52696
2.52461
2.51989
2.51507
2.51205
2.51215
2.51325
2.51406
2.513
2.50901
2.5035
2.49743
2.48942
2.47962
2.46826
2.45537
2.44103
2.42665
2.41239
2.39784
2.38232
2.36471
2.34599
2.32402
2.30192
1
1
1
1
1
1
1
1
1
1
1
1
1
1
1
1
1
1
1
1
1
1
1
1
1
1
1
1
1
1
1
1
1
1
1
1
1
1
1
1
1
1
1
1
1
1
1
1
1
1
1
1
1
1
1
1
1
1
1
1
1
1
1
1
1
1.00029
1.1484
2.09542
2.48547
2.51106
2.50966
2.50964
2.50783
2.50448
2.49955
2.49487
2.49241
2.49152
2.49102
2.48978
2.48721
2.48336
2.47893
2.47268
2.46444
2.45409
2.44136
2.42694
2.41309
2.39958
2.38641
2.37245
2.35692
2.33989
2.31925
2.29868
1
1
1
1
1
1
1
1
1
1
1
1
1
1
1
1
1
1
1
1
1
1
1
1
1
1
1
1
1
1
1
1
1
1
1
1
1
1
1
1
1
1
1
1
1
1
1
1
1
1
1
1
1
1
1
1
1
1
1
1
1
1
1
1
1
1
1.00132
1.23215
2.14857
2.46614
2.49316
2.49366
2.49263
2.48932
2.48484
2.47989
2.47549
2.47205
2.46937
2.46694
2.46463
2.46193
2.45865
2.454
2.44732
2.43832
2.42662
2.41314
2.40022
2.38767
2.37584
2.36326
2.34964
2.33433
2.3152
2.29563
1
1
1
1
1
1
1
1
1
1
1
1
1
1
1
1
1
1
1
1
1
1
1
1
1
1
1
1
1
1
1
1
1
1
1
1
1
1
1
1
1
1
1
1
1
1
1
1
1
1
1
1
1
1
1
1
1
1
1
1
1
1
1
1
1
1
1
1.00331
1.30173
2.17758
2.44316
2.47392
2.47563
2.47399
2.4694
2.46426
2.4591
2.45418
2.45002
2.4466
2.4435
2.44079
2.43802
2.43408
2.42826
2.42013
2.40973
2.39821
2.38676
2.37534
2.36454
2.35321
2.34135
2.32797
2.31073
2.29273
1
1
1
1
1
1
1
1
1
1
1
1
1
1
1
1
1
1
1
1
1
1
1
1
1
1
1
1
1
1
1
1
1
1
1
1
1
1
1
1
1
1
1
1
1
1
1
1
1
1
1
1
1
1
1
1
1
1
1
1
1
1
1
1
1
1
1
1
1.00596
1.35517
2.18639
2.42056
2.45344
2.45558
2.45396
2.44891
2.44321
2.43739
2.43185
2.42752
2.42445
2.42166
2.41838
2.41442
2.40877
2.40102
2.39172
2.38206
2.37212
2.36173
2.35175
2.34134
2.33087
2.31949
2.30445
2.28891
1
1
1
1
1
1
1
1
1
1
1
1
1
1
1
1
1
1
1
1
1
1
1
1
1
1
1
1
1
1
1
1
1
1
1
1
1
1
1
1
1
1
1
1
1
1
1
1
1
1
1
1
1
1
1
1
1
1
1
1
1
1
1
1
1
1
1
1
1.00001
1.0087
1.3863
2.17653
2.39653
2.43234
2.43421
2.43279
2.42757
2.42144
2.41536
2.40981
2.40569
2.40248
2.39936
2.39535
2.38978
2.38257
2.37445
2.36628
2.35744
2.34774
2.33819
2.32806
2.31823
2.3084
2.29551
2.28273
1
1
1
1
1
1
1
1
1
1
1
1
1
1
1
1
1
1
1
1
1
1
1
1
1
1
1
1
1
1
1
1
1
1
1
1
1
1
1
1
1
1
1
1
1
1
1
1
1
1
1
1
1
1
1
1
1
1
1
1
1
1
1
1
1
1
1
1
1
1.00002
1.01069
1.39142
2.14827
2.37119
2.41134
2.41165
2.41023
2.40527
2.3995
2.39366
2.38804
2.3836
2.37997
2.37626
2.3717
2.36581
2.35876
2.35132
2.34293
2.33347
2.32409
2.31408
2.30447
2.2955
2.28417
2.27367
1
1
1
1
1
1
1
1
1
1
1
1
1
1
1
1
1
1
1
1
1
1
1
1
1
1
1
1
1
1
1
1
1
1
1
1
1
1
1
1
1
1
1
1
1
1
1
1
1
1
1
1
1
1
1
1
1
1
1
1
1
1
1
1
1
1
1
1
1
1
1.00002
1.01112
1.37128
2.1002
2.34186
2.39066
2.38866
2.38698
2.38318
2.37807
2.37215
2.36614
2.36116
2.35699
2.35312
2.34895
2.34367
2.3372
2.32926
2.31997
2.31045
2.30024
2.29036
2.28149
2.2713
2.26219
1
1
1
1
1
1
1
1
1
1
1
1
1
1
1
1
1
1
1
1
1
1
1
1
1
1
1
1
1
1
1
1
1
1
1
1
1
1
1
1
1
1
1
1
1
1
1
1
1
1
1
1
1
1
1
1
1
1
1
1
1
1
1
1
1
1
1
1
1
1
1
1.00002
1.00992
1.32853
2.02366
2.31129
2.36954
2.36579
2.36475
2.36197
2.35661
2.34966
2.34283
2.33756
2.33382
2.3308
2.32733
2.32246
2.31584
2.30738
2.29803
2.28775
2.27713
2.26764
2.25767
2.24925
1
1
1
1
1
1
1
1
1
1
1
1
1
1
1
1
1
1
1
1
1
1
1
1
1
1
1
1
1
1
1
1
1
1
1
1
1
1
1
1
1
1
1
1
1
1
1
1
1
1
1
1
1
1
1
1
1
1
1
1
1
1
1
1
1
1
1
1
1
1
1
1
1.00002
1.0076
1.26251
1.91982
2.27762
2.34697
2.34396
2.34304
2.33957
2.3328
2.3248
2.3183
2.3145
2.3122
2.30996
2.30672
2.30189
2.29501
2.28662
2.27656
2.26544
2.25512
2.24431
2.23622
1
1
1
1
1
1
1
1
1
1
1
1
1
1
1
1
1
1
1
1
1
1
1
1
1
1
1
1
1
1
1
1
1
1
1
1
1
1
1
1
1
1
1
1
1
1
1
1
1
1
1
1
1
1
1
1
1
1
1
1
1
1
1
1
1
1
1
1
1
1
1
1
1
1.00001
1.00479
1.18486
1.79164
2.24108
2.32201
2.32154
2.31907
2.31467
2.30732
2.30036
2.29599
2.29366
2.29189
2.28976
2.28658
2.28166
2.27495
2.26603
2.25539
2.24422
2.2331
2.22431
1
1
1
1
1
1
1
1
1
1
1
1
1
1
1
1
1
1
1
1
1
1
1
1
1
1
1
1
1
1
1
1
1
1
1
1
1
1
1
1
1
1
1
1
1
1
1
1
1
1
1
1
1
1
1
1
1
1
1
1
1
1
1
1
1
1
1
1
1
1
1
1
1
1
1.00001
1.00246
1.11164
1.67085
2.19441
2.28678
2.30113
2.29542
2.29057
2.28507
2.28008
2.27653
2.27419
2.27221
2.26981
2.26634
2.26134
2.25408
2.24465
2.23422
2.22353
2.21337
1
1
1
1
1
1
1
1
1
1
1
1
1
1
1
1
1
1
1
1
1
1
1
1
1
1
1
1
1
1
1
1
1
1
1
1
1
1
1
1
1
1
1
1
1
1
1
1
1
1
1
1
1
1
1
1
1
1
1
1
1
1
1
1
1
1
1
1
1
1
1
1
1
1
1
1
1.00101
1.06289
1.55227
2.09887
2.25408
2.28222
2.27609
2.27098
2.26537
2.26044
2.25651
2.25339
2.25062
2.2477
2.24393
2.23882
2.23191
2.2233
2.21359
2.20378
1
1
1
1
1
1
1
1
1
1
1
1
1
1
1
1
1
1
1
1
1
1
1
1
1
1
1
1
1
1
1
1
1
1
1
1
1
1
1
1
1
1
1
1
1
1
1
1
1
1
1
1
1
1
1
1
1
1
1
1
1
1
1
1
1
1
1
1
1
1
1
1
1
1
1
1
1
1.00039
1.03268
1.40496
1.95287
2.21938
2.26212
2.25712
2.24853
2.24243
2.23757
2.23304
2.22955
2.22681
2.22387
2.22058
2.21614
2.21023
2.203
2.19429
1
1
1
1
1
1
1
1
1
1
1
1
1
1
1
1
1
1
1
1
1
1
1
1
1
1
1
1
1
1
1
1
1
1
1
1
1
1
1
1
1
1
1
1
1
1
1
1
1
1
1
1
1
1
1
1
1
1
1
1
1
1
1
1
1
1
1
1
1
1
1
1
1
1
1
1
1
1
1.00013
1.01392
1.2443
1.78029
2.16498
2.23014
2.23703
2.22793
2.2202
2.21448
2.21027
2.20671
2.20425
2.20175
2.19888
2.19551
2.18992
2.18285
1
1
1
1
1
1
1
1
1
1
1
1
1
1
1
1
1
1
1
1
1
1
1
1
1
1
1
1
1
1
1
1
1
1
1
1
1
1
1
1
1
1
1
1
1
1
1
1
1
1
1
1
1
1
1
1
1
1
1
1
1
1
1
1
1
1
1
1
1
1
1
1
1
1
1
1
1
1
1
1.00004
1.00461
1.11975
1.60395
2.05707
2.19584
2.21804
2.21047
2.19989
2.19303
2.18933
2.18685
2.18412
2.18174
2.17939
2.17478
2.16937
1
1
1
1
1
1
1
1
1
1
1
1
1
1
1
1
1
1
1
1
1
1
1
1
1
1
1
1
1
1
1
1
1
1
1
1
1
1
1
1
1
1
1
1
1
1
1
1
1
1
1
1
1
1
1
1
1
1
1
1
1
1
1
1
1
1
1
1
1
1
1
1
1
1
1
1
1
1
1
1
1.00001
1.00122
1.04846
1.40886
1.89408
2.14886
2.19453
2.19246
2.18367
2.17621
2.1708
2.16769
2.16545
2.16357
2.16067
2.15527
1
1
1
1
1
1
1
1
1
1
1
1
1
1
1
1
1
1
1
1
1
1
1
1
1
1
1
1
1
1
1
1
1
1
1
1
1
1
1
1
1
1
1
1
1
1
1
1
1
1
1
1
1
1
1
1
1
1
1
1
1
1
1
1
1
1
1
1
1
1
1
1
1
1
1
1
1
1
1
1
1
1
1.00026
1.01565
1.21835
1.68648
2.06527
2.1607
2.17409
2.1682
2.15837
2.1508
2.14809
2.14648
2.14537
2.14291
1
1
1
1
1
1
1
1
1
1
1
1
1
1
1
1
1
1
1
1
1
1
1
1
1
1
1
1
1
1
1
1
1
1
1
1
1
1
1
1
1
1
1
1
1
1
1
1
1
1
1
1
1
1
1
1
1
1
1
1
1
1
1
1
1
1
1
1
1
1
1
1
1
1
1
1
1
1
1
1
1
1
1
1.00004
1.00387
1.08314
1.47935
1.89995
2.10978
2.15553
2.15464
2.14676
2.13565
2.12638
2.12587
2.12623
1
1
1
1
1
1
1
1
1
1
1
1
1
1
1
1
1
1
1
1
1
1
1
1
1
1
1
1
1
1
1
1
1
1
1
1
1
1
1
1
1
1
1
1
1
1
1
1
1
1
1
1
1
1
1
1
1
1
1
1
1
1
1
1
1
1
1
1
1
1
1
1
1
1
1
1
1
1
1
1
1
1
1
1
1.00001
1.00067
1.02599
1.25358
1.6951
2.02271
2.11005
2.13399
2.13028
2.12146
2.11621
2.11161
1
1
1
1
1
1
1
1
1
1
1
1
1
1
1
1
1
1
1
1
1
1
1
1
1
1
1
1
1
1
1
1
1
1
1
1
1
1
1
1
1
1
1
1
1
1
1
1
1
1
1
1
1
1
1
1
1
1
1
1
1
1
1
1
1
1
1
1
1
1
1
1
1
1
1
1
1
1
1
1
1
1
1
1
1
1
1.0001
1.00557
1.09533
1.45709
1.85472
2.07502
2.09909
2.1043
2.10256
2.10034
1
1
1
1
1
1
1
1
1
1
1
1
1
1
1
1
1
1
1
1
1
1
1
1
1
1
1
1
1
1
1
1
1
1
1
1
1
1
1
1
1
1
1
1
1
1
1
1
1
1
1
1
1
1
1
1
1
1
1
1
1
1
1
1
1
1
1
1
1
1
1
1
1
1
1
1
1
1
1
1
1
1
1
1
1
1
1
1.00001
1.00088
1.02467
1.22816
1.6289
1.95345
2.07527
2.08259
2.08451
1
1
1
1
1
1
1
1
1
1
1
1
1
1
1
1
1
1
1
1
1
1
1
1
1
1
1
1
1
1
1
1
1
1
1
1
1
1
1
1
1
1
1
1
1
1
1
1
1
1
1
1
1
1
1
1
1
1
1
1
1
1
1
1
1
1
1
1
1
1
1
1
1
1
1
1
1
1
1
1
1
1
1
1
1
1
1
1
1
1.00009
1.00482
1.07219
1.38648
1.76529
2.002
2.05556
1
1
1
1
1
1
1
1
1
1
1
1
1
1
1
1
1
1
1
1
1
1
1
1
1
1
1
1
1
1
1
1
1
1
1
1
1
1
1
1
1
1
1
1
1
1
1
1
1
1
1
1
1
1
1
1
1
1
1
1
1
1
1
1
1
1
1
1
1
1
1
1
1
1
1
1
1
1
1
1
1
1
1
1
1
1
1
1
1
1
1.00001
1.00055
1.01692
1.1634
1.52469
1.86484
1
1
1
1
1
1
1
1
1
1
1
1
1
1
1
1
1
1
1
1
1
1
1
1
1
1
1
1
1
1
1
1
1
1
1
1
1
1
1
1
1
1
1
1
1
1
1
1
1
1
1
1
1
1
1
1
1
1
1
1
1
1
1
1
1
1
1
1
1
1
1
1
1
1
1
1
1
1
1
1
1
1
1
1
1
1
1
1
1
1
1
1
1.00005
1.00261
1.04237
1.28114
1
1
1
1
1
1
1
1
1
1
1
1
1
1
1
1
1
1
1
1
1
1
1
1
1
1
1
1
1
1
1
1
1
1
1
1
1
1
1
1
1
1
1
1
1
1
1
1
1
1
1
1
1
1
1
1
1
1
1
1
1
1
1
1
1
1
1
1
1
1
1
1
1
1
1
1
1
1
1
1
1
1
1
1
1
1
1
1
1
1
1
1
1
1
1.00025
1.00745
1
1
1
1
1
1
1
1
1
1
1
1
1
1
1
1
1
1
1
1
1
1
1
1
1
1
1
1
1
1
1
1
1
1
1
1
1
1
1
1
1
1
1
1
1
1
1
1
1
1
1
1
1
1
1
1
1
1
1
1
1
1
1
1
1
1
1
1
1
1
1
1
1
1
1
1
1
1
1
1
1
1
1
1
1
1
1
1
1
1
1
1
1
1
1
1.00002
1
1
1
1
1
1
1
1
1
1
1
1
1
1
1
1
1
1
1
1
1
1
1
1
1
1
1
1
1
1
1
1
1
1
1
1
1
1
1
1
1
1
1
1
1
1
1
1
1
1
1
1
1
1
1
1
1
1
1
1
1
1
1
1
1
1
1
1
1
1
1
1
1
1
1
1
1
1
1
1
1
1
1
1
1
1
1
1
1
1
1
1
1
1
1
1
1
1
1
1
1
1
1
1
1
1
1
1
1
1
1
1
1
1
1
1
1
1
1
1
1
1
1
1
1
1
1
1
1
1
1
1
1
1
1
1
1
1
1
1
1
1
1
1
1
1
1
1
1
1
1
1
1
1
1
1
1
1
1
1
1
1
1
1
1
1
1
1
1
1
1
1
1
1
1
1
1
1
1
1
1
1
1
1
1
1
1
1
1
1
1
1
1
1
1
1
1
1
1
1
1
1
1
1
1
1
1
1
1
1
1
1
1
1
1
1
1
1
1
1
1
1
1
1
1
1
1
1
1
1
1
1
1
1
1
1
1
1
1
1
1
1
1
1
1
1
1
1
1
1
1
1
1
1
1
1
1
1
1
1
1
1
1
1
1
1
1
1
1
1
1
1
1
1
1
1
1
1
1
1
1
1
1
1
1
1
1
1
1
1
1
1
1
1
1
1
1
1
1
1
1
1
1
1
1
1
1
1
1
1
1
1
1
1
1
1
1
1
1
1
1
1
1
1
1
1
1
1
1
1
1
1
1
1
1
1
1
1
1
1
1
1
1
1
1
1
1
1
1
1
1
1
1
1
1
1
1
1
1
1
1
1
1
1
1
1
1
1
1
1
1
1
1
1
1
1
1
1
1
1
1
1
1
1
1
1
1
1
1
1
1
1
1
1
1
1
1
1
1
1
1
1
1
1
1
1
1
1
1
1
1
1
1
1
1
1
1
1
1
1
1
1
1
1
1
1
1
1
1
1
1
1
1
1
1
1
1
1
1
1
1
1
1
1
1
1
1
1
1
1
1
1
1
1
1
1
1
1
1
1
1
1
1
1
1
1
1
1
1
1
1
1
1
1
1
1
1
1
1
1
1
1
1
1
1
1
1
1
1
1
1
1
1
1
1
1
1
1
1
1
1
1
1
1
1
1
1
1
1
1
1
1
1
1
1
1
1
1
1
1
1
1
1
1
1
1
1
1
1
1
1
1
1
1
1
1
1
1
1
1
1
1
1
1
1
1
1
1
1
1
1
1
1
1
1
1
1
1
1
1
1
1
1
1
1
1
1
1
1
1
1
1
1
1
1
1
1
1
1
1
1
1
1
1
1
1
1
1
1
1
1
1
1
1
1
1
1
1
1
1
1
1
1
1
1
1
1
1
1
1
1
1
1
1
1
1
1
1
1
1
1
1
1
1
1
1
1
1
1
1
1
1
1
1
1
1
1
1
1
1
1
1
1
1
1
1
1
1
1
1
1
1
1
1
1
1
1
1
1
1
1
1
1
1
1
1
1
1
1
1
1
1
1
1
1
1
1
1
1
1
1
1
1
1
1
1
1
1
1
1
1
1
1
1
1
1
1
1
1
1
1
1
1
1
1
1
1
1
1
1
1
1
1
1
1
1
1
1
1
1
1
1
1
1
1
1
1
1
1
1
1
1
1
1
1
1
1
1
1
1
1
1
1
1
1
1
1
1
1
1
1
1
1
1
1
1
1
1
1
1
1
1
1
1
1
1
1
1
1
1
1
1
1
1
1
1
1
1
1
1
1
1
1
1
1
1
1
1
1
1
1
1
1
1
1
1
1
1
1
1
1
1
1
1
1
1
1
1
1
1
1
1
1
1
1
1
1
1
1
1
1
1
1
1
1
1
1
1
1
1
1
1
1
1
1
1
1
1
1
1
1
1
1
1
1
1
1
1
1
1
1
1
1
1
1
1
1
1
1
1
1
1
1
1
1
1
1
1
1
1
1
1
1
1
1
1
1
1
1
1
1
1
1
1
1
1
1
1
1
1
1
1
1
1
1
1
1
1
1
1
1
1
1
1
1
1
1
1
1
1
1
1
1
1
1
1
1
1
1
1
1
1
1
1
1
1
1
1
1
1
1
1
1
1
1
1
1
1
1
1
1
1
1
1
1
1
1
1
1
1
1
1
1
1
1
1
1
1
1
1
1
1
1
1
1
1
1
1
1
1
1
1
1
1
1
1
1
1
1
1
1
1
1
1
1
1
1
1
1
1
1
1
1
1
1
1
1
1
1
1
1
1
1
1
1
1
1
1
1
1
1
1
1
1
1
1
1
1
1
1
1
1
1
1
1
1
1
1
1
1
1
1
1
1
1
1
1
1
1
1
1
1
1
1
1
1
1
1
1
1
1
1
1
1
1
1
1
1
1
1
1
1
1
1
1
1
1
1
1
1
1
1
1
1
1
1
1
1
1
1
1
1
1
1
1
1
1
1
1
1
1
1
1
1
1
1
1
1
1
1
1
1
1
1
1
1
1
1
1
1
1
1
1
1
1
1
1
1
1
1
1
1
1
1
1
1
1
1
1
1
1
1
1
1
1
1
1
1
1
1
1
1
1
1
1
1
1
1
1
1
1
1
1
1
1
1
1
1
1
1
1
1
1
1
1
1
1
1
1
1
1
1
1
1
1
1
1
1
1
1
1
1
1
1
1
1
1
1
1
1
1
1
1
1
1
1
1
1
1
1
1
1
1
1
1
1
1
1
1
1
1
1
1
1
1
1
1
1
1
1
1
1
1
1
1
1
1
1
1
1
1
1
1
1
1
1
1
1
1
1
1
1
1
1
1
1
1
1
1
1
1
1
1
1
1
1
1
1
1
1
1
1
1
1
1
1
1
1
1
1
1
1
1
1
1
1
1
1
1
1
1
1
1
1
1
1
1
1
1
1
1
1
1
1
1
1
1
1
1
1
1
1
1
1
1
1
1
1
1
1
1
1
1
1
1
1
1
1
1
1
1
1
1
1
1
1
1
1
1
1
1
1
1
1
1
1
1
1
1
1
1
1
1
1
1
1
1
1
1
1
1
1
1
1
1
1
1
1
1
1
1
1
1
1
1
1
1
1
1
1
1
1
1
1
1
1
1
1
1
1
1
1
1
1
1
1
1
1
1
1
1
1
1
1
1
1
1
1
1
1
1
1
1
1
1
1
1
1
1
1
1
1
1
1
1
1
1
1
1
1
1
1
1
1
1
1
1
1
1
1
1
1
1
1
1
1
1
1
1
1
1
1
1
1
1
1
1
1
1
1
1
1
1
1
1
1
1
1
1
1
1
1
1
1
1
1
1
1
1
1
1
1
1
1
1
1
1
1
1
1
1
1
1
1
1
1
1
1
1
1
1
1
1
1
1
1
1
1
1
1
1
1
1
1
1
1
1
1
1
1
1
1
1
1
1
1
1
1
1
1
1
1
1
1
1
1
1
1
1
1
1
1
1
1
1
1
1
1
1
1
1
1
1
1
1
1
1
1
1
1
1
1
1
1
1
1
1
1
1
1
1
1
1
1
1
1
1
1
1
1
1
1
1
1
1
1
1
1
1
1
1
1
1
1
1
1
1
1
1
1
1
1
1
1
1
1
1
1
1
1
1
1
1
1
1
1
1
1
1
1
1
1
1
1
1
1
1
1
1
1
1
1
1
1
1
1
1
1
1
1
1
1
1
1
1
1
1
1
1
1
1
1
1
1
1
1
1
1
1
1
1
1
1
1
1
1
1
1
1
1
1
1
1
1
1
1
1
1
1
1
1
1
1
1
1
1
1
1
1
1
1
1
1
1
1
1
1
1
1
1
1
1
1
1
1
1
1
1
1
1
1
1
1
1
1
1
1
1
1
1
1
1
1
1
1
1
1
1
1
1
1
1
1
1
1
1
1
1
1
1
1
1
1
1
1
1
1
1
1
1
1
1
1
1
1
1
1
1
1
1
1
1
1
1
1
1
1
1
1
1
1
1
1
1
1
1
1
1
1
1
1
1
1
1
1
1
1
1
1
1
1
1
1
1
1
1
1
1
1
1
1
1
1
1
1
1
1
1
1
1
1
1
1
1
1
1
1
1
1
1
1
1
1
1
1
1
1
1
1
1
1
1
1
1
1
1
1
1
1
1
1
1
1
1
1
1
1
1
1
1
1
1
1
1
1
1
1
1
1
1
1
1
1
1
1
1
1
1
1
1
1
1
1
1
1
1
1
1
1
1
1
1
1
1
1
1
1
1
1
1
1
1
1
1
1
1
1
1
1
1
1
1
1
1
1
1
1
1
1
1
1
1
1
1
1
1
1
1
1
1
1
1
1
1
1
1
1
1
1
1
1
1
1
1
1
1
1
1
1
1
1
1
1
1
1
1
1
1
1
1
1
1
1
1
1
1
1
1
1
1
1
1
1
1
1
1
1
1
1
1
1
1
1
1
1
1
1
1
1
1
1
1
1
1
1
1
1
1
1
1
1
1
1
1
1
1
1
1
1
1
1
1
1
1
1
1
1
1
1
1
1
1
1
1
1
1
1
1
1
1
1
1
1
1
1
1
1
1
1
1
1
1
1
1
1
1
1
1
1
1
1
1
1
1
1
1
1
1
1
1
1
1
1
1
1
1
1
1
1
1
1
1
1
1
1
1
1
1
1
1
1
1
1
1
1
1
1
1
1
1
1
1
1
1
1
1
1
1
1
1
1
1
1
1
1
1
1
1
1
1
1
1
1
1
1
1
1
1
1
1
1
1
1
1
1
1
1
1
1
1
1
1
1
1
1
1
1
1
1
1
1
1
1
1
1
1
1
1
1
1
1
1
1
1
1
1
1
1
1
1
1
1
1
1
1
1
1
1
1
1
1
1
1
1
1
1
1
1
1
1
1
1
1
1
1
1
1
1
1
1
1
1
1
1
1
1
1
1
1
1
1
1
1
1
1
1
1
1
1
1
1
1
1
1
1
1
1
1
1
1
1
1
1
1
1
1
1
1
1
1
1
1
1
1
1
1
1
1
1
1
1
1
1
1
1
1
1
1
1
1
1
1
1
1
1
1
1
1
1
1
1
1
1
1
1
1
1
1
1
1
1
1
1
1
1
1
1
1
1
1
1
1
1
1
1
1
1
1
1
1
1
1
1
1
1
1
1
1
1
1
1
1
1
1
1
1
1
1
1
1
1
1
1
1
1
1
1
1
1
1
1
1
1
1
1
1
1
1
1
1
1
1
1
1
1
1
1
1
1
1
1
1
1
1
1
1
1
1
1
1
1
1
1
1
1
1
1
1
1
1
1
1
1
1
1
1
1
1
1
1
1
1
1
1
1
1
1
1
1
1
1
1
1
1
1
1
1
1
1
1
1
1
1
1
1
1
1
1
1
1
1
1
1
1
1
1
1
1
1
1
1
1
1
1
1
1
1
1
1
1
1.78954
1.14403
0.666244
0.516697
0.763833
1.16532
1.28581
1.33244
1.49108
1.65698
1.65079
1.63719
1.62444
1.63076
1.67524
1.74598
1.81728
1.90158
1.92688
1.91906
1.89804
1.8663
1.85606
1.85963
1.86508
1.87455
1.89306
1.89988
1.89566
1.88903
1.89161
1.90426
1.92012
1.92165
1.91812
1.91118
1.91073
1.91153
1.91451
1.91708
1.91663
1.91431
1.90752
1.89871
1.89356
1.89298
1.89266
1.89094
1.88835
1.88539
1.88367
1.88385
1.88644
1.89164
1.89732
1.89875
1.89836
1.89868
1.89853
1.89705
1.89369
1.88985
1.88506
1.87876
1.87169
1.86469
1.85912
1.85709
1.85704
1.85708
1.85661
1.85402
1.85019
1.84684
1.84245
1.83686
1.83297
1.8323
1.83255
1.83371
1.83589
1.83817
1.8388
1.83815
1.83804
1.8381
1.83775
1.83653
1.83447
1.83275
1.83063
1.82785
1.82674
1.82672
1.82658
1.82581
1.82416
1.82174
1.81858
1.81509
1.81261
1.81179
1.81172
1.81199
1.81276
1.81324
1.81316
1.81265
1.81177
1.81093
1.80979
1.80791
1.80505
1.80086
1.7953
1.78889
1.7824
1.77664
1.77153
1.76712
1.76385
1.76311
1.76345
1.76469
1.76616
1.76744
1.76889
1.77075
1.77269
1.77415
1.77564
1.77941
1.78403
1.78855
1.79335
1.79832
1.80182
1.80305
1.80342
1.80322
1.80183
1.80019
1.79919
1.7985
1.79853
1.79985
1.8025
1.80474
1.8058
1.80698
1.80859
1.81056
1.81283
1.81566
1.81911
1.82296
1.82704
1.83048
1.83232
1.83257
1.83226
1.83132
1.82965
1.82788
1.82681
1.82635
1.82647
1.8278
1.83055
1.83333
1.83513
1.83586
1.83596
1.83497
1.83264
1.83
1.82686
1.82418
1.82131
1.81815
1.81544
1.81324
1.81133
1.80889
1.80585
1.80173
1.79719
1.79264
1.78655
1.77889
1.76779
1.7332
2.0404
1.69364
1.4902
1.28323
1.12181
1.19753
1.22572
1.21031
1.23766
1.26656
1.29
1.29849
1.3184
1.34918
1.40581
1.4778
1.54887
1.60732
1.63718
1.66758
1.70507
1.72287
1.72983
1.74215
1.75844
1.77458
1.79637
1.8086
1.81258
1.81559
1.82095
1.8325
1.84569
1.84738
1.84574
1.84503
1.84859
1.85337
1.85799
1.8624
1.86356
1.86307
1.86112
1.85804
1.85574
1.85433
1.85328
1.85171
1.84952
1.84888
1.84963
1.85231
1.85681
1.86205
1.86375
1.86368
1.86416
1.86472
1.86435
1.86289
1.86081
1.85841
1.85508
1.85042
1.84533
1.84017
1.83583
1.83336
1.8323
1.83206
1.83203
1.83134
1.83
1.82823
1.82538
1.82149
1.81783
1.81584
1.81542
1.81561
1.81664
1.81873
1.82048
1.82107
1.82211
1.82258
1.82239
1.82156
1.81978
1.81698
1.81376
1.81125
1.81055
1.81074
1.81146
1.81219
1.81221
1.81201
1.81103
1.80904
1.80711
1.80604
1.80562
1.8054
1.80515
1.80466
1.80373
1.80219
1.80015
1.79834
1.79721
1.79629
1.79492
1.79252
1.78922
1.78498
1.77949
1.77323
1.76688
1.76067
1.7558
1.75411
1.75397
1.75445
1.75631
1.75892
1.76169
1.76475
1.76789
1.77055
1.77272
1.77462
1.77801
1.78202
1.78566
1.78897
1.79191
1.79458
1.79624
1.79689
1.7969
1.79659
1.79548
1.79443
1.79424
1.79465
1.79618
1.79757
1.79841
1.79943
1.80084
1.80267
1.80491
1.80769
1.81096
1.81456
1.8183
1.82152
1.82371
1.82504
1.82578
1.826
1.82586
1.82508
1.82386
1.82289
1.82267
1.82307
1.82438
1.82573
1.82667
1.82749
1.82782
1.8277
1.82728
1.82626
1.8243
1.82172
1.81903
1.81621
1.81343
1.81099
1.80866
1.80602
1.80261
1.79867
1.79413
1.78935
1.78321
1.77509
1.76496
1.73333
2.05834
1.81326
1.73821
1.62784
1.46642
1.37123
1.32954
1.2638
1.20304
1.20657
1.22277
1.21823
1.22041
1.23663
1.25785
1.2821
1.31242
1.3374
1.36157
1.40097
1.46087
1.51593
1.53993
1.55755
1.5866
1.61537
1.64158
1.66325
1.68133
1.69054
1.69852
1.71
1.71797
1.7196
1.71917
1.72127
1.72822
1.73488
1.74056
1.74448
1.74622
1.74858
1.75336
1.76057
1.76527
1.76608
1.76522
1.76277
1.76033
1.75901
1.75959
1.76479
1.77182
1.77775
1.77867
1.77869
1.78059
1.78311
1.7833
1.78145
1.77909
1.77779
1.7761
1.77407
1.77269
1.77194
1.77203
1.7721
1.77158
1.76994
1.76764
1.7666
1.76665
1.76707
1.76705
1.76657
1.7657
1.76514
1.76536
1.76578
1.76628
1.767
1.76749
1.76804
1.77032
1.77222
1.77299
1.77359
1.77389
1.77355
1.77276
1.77194
1.77136
1.77075
1.77006
1.77004
1.77157
1.77395
1.77572
1.77635
1.77632
1.77667
1.77759
1.77848
1.77871
1.77848
1.7774
1.77521
1.77203
1.76836
1.76518
1.76342
1.76263
1.76185
1.76164
1.76141
1.76024
1.75679
1.75222
1.74646
1.7392
1.73264
1.72976
1.72963
1.73057
1.73287
1.73625
1.74009
1.74412
1.74805
1.752
1.75575
1.75941
1.76261
1.76503
1.76613
1.7665
1.76766
1.76883
1.76968
1.77088
1.77258
1.77464
1.77666
1.77797
1.77888
1.77957
1.78013
1.78057
1.7809
1.78182
1.78376
1.7862
1.78892
1.79182
1.79492
1.79765
1.79955
1.80072
1.80145
1.80175
1.80239
1.80378
1.80533
1.80673
1.80802
1.80885
1.80904
1.80886
1.80744
1.80555
1.80415
1.80372
1.80373
1.8035
1.80338
1.80301
1.80208
1.80102
1.79988
1.79845
1.79659
1.79394
1.79092
1.78754
1.78388
1.77997
1.77611
1.77153
1.7635
1.75431
1.72849
2.0828
1.91516
1.81009
1.72358
1.6291
1.55387
1.48214
1.38753
1.32348
1.30487
1.29467
1.29334
1.28912
1.26453
1.22459