/*--------------------------------*- C++ -*----------------------------------*\
  =========                 |
  \\      /  F ield         | OpenFOAM: The Open Source CFD Toolbox
   \\    /   O peration     | Website:  https://openfoam.org
    \\  /    A nd           | Version:  7
     \\/     M anipulation  |
\*---------------------------------------------------------------------------*/
FoamFile
{
    version     2.0;
    format      ascii;
    class       volScalarField;
    location    "9.5";
    object      rho;
}
// * * * * * * * * * * * * * * * * * * * * * * * * * * * * * * * * * * * * * //

dimensions      [1 -3 0 0 0 0 0];

internalField   nonuniform List<scalar> 
19968
(
1.40001
1.40001
1.40001
1.40001
1.40001
1.40001
1.40001
1.40001
1.40001
1.40001
1.40001
1.40001
1.40001
1.40001
1.40001
1.40001
1.40001
1.40001
1.40001
1.40001
1.40001
1.40001
1.40001
1.40001
1.40001
1.40001
1.40001
1.40001
1.40001
1.40001
1.40001
1.40001
1.40001
1.40001
1.40001
1.40001
1.40001
1.40001
1.40001
1.40001
1.40001
1.40001
1.40001
1.40001
1.40001
1.40001
1.40001
1.40001
1.72031
4.5932
5.43274
5.43431
5.45685
5.47535
5.49696
5.52055
5.54551
5.56982
5.5918
5.61063
5.62706
5.64316
5.66013
5.67842
5.69775
5.71669
5.73371
5.74874
5.76314
5.7784
5.79498
5.81196
5.82778
5.84126
5.85235
5.86202
5.87183
5.88307
5.89594
5.90943
5.92222
5.93354
5.94346
5.95263
5.96173
5.97105
5.98009
5.98792
5.99373
5.99745
5.99966
6.00126
6.00296
6.00479
6.00654
6.0082
1.40001
1.40001
1.40001
1.40001
1.40001
1.40001
1.40001
1.40001
1.40001
1.40001
1.40001
1.40001
1.40001
1.40001
1.40001
1.40001
1.40001
1.40001
1.40001
1.40001
1.40001
1.40001
1.40001
1.40001
1.40001
1.40001
1.40001
1.40001
1.40001
1.40001
1.40001
1.40001
1.40001
1.40001
1.40001
1.40001
1.40001
1.40001
1.40001
1.40001
1.40001
1.40001
1.40001
1.40001
1.40001
1.40001
1.40001
1.40001
1.70121
4.5637
5.42764
5.43628
5.45646
5.47543
5.49695
5.52028
5.54493
5.56891
5.59064
5.60944
5.62579
5.64188
5.65876
5.6772
5.69654
5.71546
5.73243
5.74747
5.76186
5.77706
5.79351
5.81035
5.82607
5.83955
5.85071
5.86049
5.87043
5.88173
5.89455
5.90793
5.9206
5.93186
5.94178
5.95095
5.96002
5.96921
5.97804
5.98564
5.99129
5.99497
5.99726
5.99897
6.00072
6.00253
6.00421
6.00571
1.40001
1.40001
1.40001
1.40001
1.40001
1.40001
1.40001
1.40001
1.40001
1.40001
1.40001
1.40001
1.40001
1.40001
1.40001
1.40001
1.40001
1.40001
1.40001
1.40001
1.40001
1.40001
1.40001
1.40001
1.40001
1.40001
1.40001
1.40001
1.40001
1.40001
1.40001
1.40001
1.40001
1.40001
1.40001
1.40001
1.40001
1.40001
1.40001
1.40001
1.40001
1.40001
1.40001
1.40001
1.40001
1.40001
1.40001
1.40001
1.6612
4.50691
5.42566
5.43265
5.45286
5.47317
5.49539
5.51883
5.54305
5.56629
5.58742
5.60611
5.62244
5.63884
5.65586
5.6746
5.69401
5.7129
5.72978
5.7448
5.7592
5.77436
5.79065
5.80728
5.82286
5.83633
5.84762
5.8576
5.86769
5.87901
5.89168
5.90485
5.91738
5.92862
5.93862
5.94788
5.95695
5.966
5.97459
5.98194
5.98743
5.9911
5.9935
5.99541
5.99734
5.99927
6.001
6.0024
1.40001
1.40001
1.40001
1.40001
1.40001
1.40001
1.40001
1.40001
1.40001
1.40001
1.40001
1.40001
1.40001
1.40001
1.40001
1.40001
1.40001
1.40001
1.40001
1.40001
1.40001
1.40001
1.40001
1.40001
1.40001
1.40001
1.40001
1.40001
1.40001
1.40001
1.40001
1.40001
1.40001
1.40001
1.40001
1.40001
1.40001
1.40001
1.40001
1.40001
1.40001
1.40001
1.40001
1.40001
1.40001
1.40001
1.40001
1.40001
1.6035
4.41386
5.41969
5.42892
5.44956
5.47141
5.49434
5.51773
5.54104
5.56301
5.58313
5.60159
5.61795
5.63476
5.65199
5.67101
5.69037
5.70908
5.72571
5.74066
5.75511
5.7703
5.78647
5.80286
5.81822
5.83162
5.84304
5.8533
5.86364
5.87501
5.88749
5.90033
5.91259
5.9237
5.93368
5.9429
5.95179
5.96049
5.96864
5.97559
5.98088
5.98457
5.98722
5.98947
5.99174
5.99393
5.99582
5.9972
1.40001
1.40001
1.40001
1.40001
1.40001
1.40001
1.40001
1.40001
1.40001
1.40001
1.40001
1.40001
1.40001
1.40001
1.40001
1.40001
1.40001
1.40001
1.40001
1.40001
1.40001
1.40001
1.40001
1.40001
1.40001
1.40001
1.40001
1.40001
1.40001
1.40001
1.40001
1.40001
1.40001
1.40001
1.40001
1.40001
1.40001
1.40001
1.40001
1.40001
1.40001
1.40001
1.40001
1.40001
1.40001
1.40001
1.40001
1.40001
1.53156
4.2901
5.4165
5.42676
5.4469
5.46903
5.49166
5.51429
5.53643
5.55731
5.57686
5.59541
5.61212
5.62952
5.64715
5.66638
5.68555
5.70388
5.72012
5.73499
5.7496
5.76499
5.78117
5.79737
5.81248
5.82577
5.83731
5.84788
5.85855
5.87001
5.88229
5.89479
5.90678
5.91781
5.92782
5.93703
5.94576
5.95408
5.96174
5.96821
5.97313
5.97659
5.97912
5.9813
5.98346
5.98554
5.98731
5.98844
1.40001
1.40001
1.40001
1.40001
1.40001
1.40001
1.40001
1.40001
1.40001
1.40001
1.40001
1.40001
1.40001
1.40001
1.40001
1.40001
1.40001
1.40001
1.40001
1.40001
1.40001
1.40001
1.40001
1.40001
1.40001
1.40001
1.40001
1.40001
1.40001
1.40001
1.40001
1.40001
1.40001
1.40001
1.40001
1.40001
1.40001
1.40001
1.40001
1.40001
1.40001
1.40001
1.40001
1.40001
1.40001
1.40001
1.40001
1.40001
1.41531
4.09938
5.40725
5.42241
5.4444
5.4676
5.49032
5.51207
5.53291
5.5528
5.57189
5.59033
5.60722
5.62502
5.64288
5.66183
5.68023
5.69759
5.71305
5.72762
5.7423
5.75776
5.77372
5.78943
5.80397
5.81681
5.82818
5.83882
5.84962
5.86106
5.87303
5.88508
5.89666
5.90747
5.91741
5.9266
5.93524
5.94341
5.95095
5.95744
5.96253
5.96627
5.96908
5.97141
5.97365
5.97572
5.97742
5.9784
1.40001
1.40001
1.40001
1.40001
1.40001
1.40001
1.40001
1.40001
1.40001
1.40001
1.40001
1.40001
1.40001
1.40001
1.40001
1.40001
1.40001
1.40001
1.40001
1.40001
1.40001
1.40001
1.40001
1.40001
1.40001
1.40001
1.40001
1.40001
1.40001
1.40001
1.40001
1.40001
1.40001
1.40001
1.40001
1.40001
1.40001
1.40001
1.40001
1.40001
1.40001
1.40001
1.40001
1.40001
1.40001
1.40001
1.40001
1.40001
1.40014
3.81144
5.37005
5.40472
5.42956
5.45403
5.47702
5.49854
5.5189
5.53844
5.55743
5.57606
5.59346
5.6116
5.62969
5.64827
5.66612
5.68292
5.69812
5.71294
5.7281
5.74395
5.75991
5.77535
5.78952
5.80217
5.81359
5.82452
5.83563
5.84721
5.85907
5.87083
5.88214
5.89278
5.90266
5.91183
5.92044
5.92861
5.93624
5.94295
5.94835
5.95236
5.95527
5.95747
5.95947
5.96126
5.96277
5.96366
1.40001
1.40001
1.40001
1.40001
1.40001
1.40001
1.40001
1.40001
1.40001
1.40001
1.40001
1.40001
1.40001
1.40001
1.40001
1.40001
1.40001
1.40001
1.40001
1.40001
1.40001
1.40001
1.40001
1.40001
1.40001
1.40001
1.40001
1.40001
1.40001
1.40001
1.40001
1.40001
1.40001
1.40001
1.40001
1.40001
1.40001
1.40001
1.40001
1.40001
1.40001
1.40001
1.40001
1.40001
1.40001
1.40001
1.40001
1.40001
1.40001
3.42109
5.32073
5.3956
5.42042
5.4458
5.46926
5.4913
5.51169
5.53099
5.54977
5.56827
5.58568
5.60325
5.62078
5.63842
5.65542
5.67143
5.68612
5.70073
5.71576
5.73139
5.7468
5.76151
5.77498
5.78714
5.79832
5.80919
5.82032
5.83184
5.84351
5.85493
5.86584
5.87609
5.88561
5.89446
5.90284
5.91093
5.91867
5.92563
5.93133
5.93554
5.93842
5.94035
5.94186
5.94316
5.94435
5.94511
1.40001
1.40001
1.40001
1.40001
1.40001
1.40001
1.40001
1.40001
1.40001
1.40001
1.40001
1.40001
1.40001
1.40001
1.40001
1.40001
1.40001
1.40001
1.40001
1.40001
1.40001
1.40001
1.40001
1.40001
1.40001
1.40001
1.40001
1.40001
1.40001
1.40001
1.40001
1.40001
1.40001
1.40001
1.40001
1.40001
1.40001
1.40001
1.40001
1.40001
1.40001
1.40001
1.40001
1.40001
1.40001
1.40001
1.40001
1.40001
1.40001
2.94686
5.23558
5.39311
5.41489
5.43997
5.46302
5.48498
5.50519
5.52428
5.54276
5.56077
5.57773
5.59415
5.61054
5.6269
5.64294
5.65814
5.67224
5.68629
5.70051
5.71517
5.72944
5.74314
5.75583
5.7674
5.7781
5.78855
5.79937
5.81074
5.82229
5.83352
5.84402
5.85365
5.86248
5.87074
5.87879
5.88688
5.89492
5.90236
5.90851
5.91299
5.9159
5.91766
5.91875
5.91959
5.92051
5.92113
1.40001
1.40001
1.40001
1.40001
1.40001
1.40001
1.40001
1.40001
1.40001
1.40001
1.40001
1.40001
1.40001
1.40001
1.40001
1.40001
1.40001
1.40001
1.40001
1.40001
1.40001
1.40001
1.40001
1.40001
1.40001
1.40001
1.40001
1.40001
1.40001
1.40001
1.40001
1.40001
1.40001
1.40001
1.40001
1.40001
1.40001
1.40001
1.40001
1.40001
1.40001
1.40001
1.40001
1.40001
1.40001
1.40001
1.40001
1.40001
1.40001
2.41109
5.05922
5.40035
5.41939
5.44295
5.46371
5.48335
5.50207
5.52043
5.53834
5.55543
5.57142
5.58634
5.60109
5.61601
5.63112
5.64564
5.65921
5.67254
5.68555
5.69875
5.71149
5.72379
5.73529
5.74576
5.75529
5.7645
5.77429
5.78501
5.79625
5.80718
5.81717
5.82602
5.83397
5.84152
5.84922
5.85736
5.86567
5.87335
5.87954
5.88382
5.88635
5.88765
5.8881
5.88835
5.88886
5.8892
1.40001
1.40001
1.40001
1.40001
1.40001
1.40001
1.40001
1.40001
1.40001
1.40001
1.40001
1.40001
1.40001
1.40001
1.40001
1.40001
1.40001
1.40001
1.40001
1.40001
1.40001
1.40001
1.40001
1.40001
1.40001
1.40001
1.40001
1.40001
1.40001
1.40001
1.40001
1.40001
1.40001
1.40001
1.40001
1.40001
1.40001
1.40001
1.40001
1.40001
1.40001
1.40001
1.40001
1.40001
1.40001
1.40001
1.40001
1.40001
1.40001
1.88343
4.74304
5.41532
5.41065
5.43507
5.45316
5.47214
5.49049
5.5087
5.5266
5.54355
5.55971
5.57471
5.58879
5.60273
5.61708
5.63122
5.64454
5.65743
5.66948
5.68129
5.69276
5.70395
5.71447
5.72385
5.73216
5.73997
5.74837
5.75791
5.76818
5.77804
5.78656
5.79354
5.79944
5.80512
5.81137
5.81856
5.82634
5.8337
5.83967
5.84385
5.84635
5.84767
5.84807
5.84823
5.84858
5.84886
1.40001
1.40001
1.40001
1.40001
1.40001
1.40001
1.40001
1.40001
1.40001
1.40001
1.40001
1.40001
1.40001
1.40001
1.40001
1.40001
1.40001
1.40001
1.40001
1.40001
1.40001
1.40001
1.40001
1.40001
1.40001
1.40001
1.40001
1.40001
1.40001
1.40001
1.40001
1.40001
1.40001
1.40001
1.40001
1.40001
1.40001
1.40001
1.40001
1.40001
1.40001
1.40001
1.40001
1.40001
1.40001
1.40001
1.40001
1.40001
1.40001
1.42464
4.10186
5.4114
5.42019
5.43383
5.45017
5.46739
5.48403
5.50026
5.51645
5.53201
5.54712
5.56143
5.5744
5.58702
5.59995
5.61265
5.62453
5.63608
5.64684
5.65703
5.66716
5.67692
5.68624
5.69445
5.70154
5.70803
5.71504
5.72331
5.73247
5.74125
5.74847
5.7539
5.75818
5.76237
5.76747
5.77386
5.781
5.78754
5.79232
5.79498
5.79579
5.79487
5.7931
5.79191
5.79126
5.79091
1.40001
1.40001
1.40001
1.40001
1.40001
1.40001
1.40001
1.40001
1.40001
1.40001
1.40001
1.40001
1.40001
1.40001
1.40001
1.40001
1.40001
1.40001
1.40001
1.40001
1.40001
1.40001
1.40001
1.40001
1.40001
1.40001
1.40001
1.40001
1.40001
1.40001
1.40001
1.40001
1.40001
1.40001
1.40001
1.40001
1.40001
1.40001
1.40001
1.40001
1.40001
1.40001
1.40001
1.40001
1.40001
1.40001
1.40001
1.40001
1.40001
1.40005
3.21536
5.24601
5.36196
5.38745
5.41206
5.43202
5.44973
5.46587
5.48164
5.4973
5.51247
5.52733
5.54106
5.55354
5.56581
5.57786
5.58915
5.6002
5.61098
5.62093
5.63074
5.63994
5.64854
5.65602
5.66226
5.66774
5.67339
5.68003
5.68745
5.69452
5.69988
5.70317
5.705
5.70634
5.70822
5.71134
5.71536
5.71889
5.72097
5.72163
5.72123
5.72001
5.71857
5.71809
5.71789
5.71783
1.40001
1.40001
1.40001
1.40001
1.40001
1.40001
1.40001
1.40001
1.40001
1.40001
1.40001
1.40001
1.40001
1.40001
1.40001
1.40001
1.40001
1.40001
1.40001
1.40001
1.40001
1.40001
1.40001
1.40001
1.40001
1.40001
1.40001
1.40001
1.40001
1.40001
1.40001
1.40001
1.40001
1.40001
1.40001
1.40001
1.40001
1.40001
1.40001
1.40001
1.40001
1.40001
1.40001
1.40001
1.40001
1.40001
1.40001
1.40001
1.40001
1.4
2.18289
4.88987
5.36679
5.37519
5.40002
5.41986
5.4372
5.45219
5.46584
5.47921
5.49233
5.50564
5.51874
5.53052
5.5415
5.55199
5.56176
5.57113
5.58064
5.58947
5.59785
5.60557
5.61243
5.61819
5.62259
5.6259
5.62885
5.63234
5.63656
5.6407
5.64343
5.64426
5.64322
5.64087
5.63891
5.63844
5.6393
5.64047
5.64068
5.63893
5.6346
5.62842
5.62001
5.61107
5.60257
5.59489
1.40001
1.40001
1.40001
1.40001
1.40001
1.40001
1.40001
1.40001
1.40001
1.40001
1.40001
1.40001
1.40001
1.40001
1.40001
1.40001
1.40001
1.40001
1.40001
1.40001
1.40001
1.40001
1.40001
1.40001
1.40001
1.40001
1.40001
1.40001
1.40001
1.40001
1.40001
1.40001
1.40001
1.40001
1.40001
1.40001
1.40001
1.40001
1.40001
1.40001
1.40001
1.40001
1.40001
1.40001
1.40001
1.40001
1.40001
1.40001
1.40001
1.40001
1.44432
3.97986
5.38787
5.39639
5.40432
5.41496
5.42513
5.43508
5.44467
5.4546
5.46508
5.47584
5.48703
5.49761
5.50713
5.51589
5.52376
5.53096
5.53842
5.546
5.55307
5.55955
5.56485
5.56871
5.57103
5.57181
5.57144
5.57078
5.57077
5.57117
5.57105
5.56939
5.56492
5.55757
5.54908
5.54077
5.53283
5.5243
5.5135
5.49922
5.48167
5.46225
5.4449
5.42999
5.42316
5.4192
1.40001
1.40001
1.40001
1.40001
1.40001
1.40001
1.40001
1.40001
1.40001
1.40001
1.40001
1.40001
1.40001
1.40001
1.40001
1.40001
1.40001
1.40001
1.40001
1.40001
1.40001
1.40001
1.40001
1.40001
1.40001
1.40001
1.40001
1.40001
1.40001
1.40001
1.40001
1.40001
1.40001
1.40001
1.40001
1.40001
1.40001
1.40001
1.40001
1.40001
1.40001
1.40001
1.40001
1.40001
1.40001
1.40001
1.40001
1.40001
1.40001
1.40001
1.40006
2.63115
5.09094
5.34694
5.35679
5.371
5.38478
5.39829
5.4106
5.42142
5.4317
5.44174
5.45128
5.46006
5.46776
5.47449
5.48052
5.48618
5.49203
5.49817
5.50384
5.5086
5.51202
5.51375
5.51381
5.51155
5.5069
5.50073
5.4946
5.4893
5.48438
5.47833
5.4693
5.45658
5.44028
5.42164
5.40202
5.38187
5.36044
5.33701
5.31115
5.28307
5.24651
5.20509
5.14867
5.16606
1.40001
1.40001
1.40001
1.40001
1.40001
1.40001
1.40001
1.40001
1.40001
1.40001
1.40001
1.40001
1.40001
1.40001
1.40001
1.40001
1.40001
1.40001
1.40001
1.40001
1.40001
1.40001
1.40001
1.40001
1.40001
1.40001
1.40001
1.40001
1.40001
1.40001
1.40001
1.40001
1.40001
1.40001
1.40001
1.40001
1.40001
1.40001
1.40001
1.40001
1.40001
1.40001
1.40001
1.40001
1.40001
1.40001
1.40001
1.40001
1.40001
1.40001
1.40001
1.57066
4.39967
5.35911
5.35391
5.3588
5.36845
5.3793
5.39058
5.40076
5.40984
5.41832
5.42504
5.43028
5.43462
5.43841
5.44202
5.4456
5.44925
5.4531
5.4567
5.45938
5.46067
5.45998
5.45731
5.45218
5.44387
5.43329
5.42154
5.40979
5.39851
5.38687
5.37296
5.35471
5.33061
5.30078
5.26633
5.22829
5.18447
5.13203
5.06179
4.96614
4.81785
4.58946
4.17902
3.27031
1.40001
1.40001
1.40001
1.40001
1.40001
1.40001
1.40001
1.40001
1.40001
1.40001
1.40001
1.40001
1.40001
1.40001
1.40001
1.40001
1.40001
1.40001
1.40001
1.40001
1.40001
1.40001
1.40001
1.40001
1.40001
1.40001
1.40001
1.40001
1.40001
1.40001
1.40001
1.40001
1.40001
1.40001
1.40001
1.40001
1.40001
1.40001
1.40001
1.40001
1.40001
1.40001
1.40001
1.40001
1.40001
1.40001
1.40001
1.40001
1.40001
1.40001
1.4
1.40154
3.26051
5.18482
5.30417
5.32289
5.33778
5.3492
5.36124
5.37331
5.38306
5.39143
5.39725
5.40058
5.40259
5.40428
5.40574
5.40706
5.40859
5.41065
5.41269
5.41377
5.41315
5.41015
5.40476
5.39691
5.38641
5.37339
5.35805
5.34094
5.32306
5.30492
5.28517
5.26133
5.23032
5.19098
5.14263
5.08725
5.02087
4.94191
4.83529
4.69532
4.48859
4.22002
3.67597
2.91447
1.40001
1.40001
1.40001
1.40001
1.40001
1.40001
1.40001
1.40001
1.40001
1.40001
1.40001
1.40001
1.40001
1.40001
1.40001
1.40001
1.40001
1.40001
1.40001
1.40001
1.40001
1.40001
1.40001
1.40001
1.40001
1.40001
1.40001
1.40001
1.40001
1.40001
1.40001
1.40001
1.40001
1.40001
1.40001
1.40001
1.40001
1.40001
1.40001
1.40001
1.40001
1.40001
1.40001
1.40001
1.40001
1.40001
1.40001
1.40001
1.40001
1.40001
1.40001
1.4
1.9861
4.74233
5.31449
5.31571
5.32847
5.33717
5.34785
5.35913
5.36689
5.37351
5.37813
5.37976
5.37971
5.37917
5.37817
5.37657
5.37489
5.37385
5.37311
5.37161
5.36833
5.36226
5.35318
5.3414
5.32754
5.3117
5.29321
5.27164
5.2475
5.2222
5.19511
5.16465
5.12655
5.07892
5.0188
4.94824
4.8636
4.76256
4.63467
4.46751
4.25256
3.93331
3.48961
2.97573
1.40001
1.40001
1.40001
1.40001
1.40001
1.40001
1.40001
1.40001
1.40001
1.40001
1.40001
1.40001
1.40001
1.40001
1.40001
1.40001
1.40001
1.40001
1.40001
1.40001
1.40001
1.40001
1.40001
1.40001
1.40001
1.40001
1.40001
1.40001
1.40001
1.40001
1.40001
1.40001
1.40001
1.40001
1.40001
1.40001
1.40001
1.40001
1.40001
1.40001
1.40001
1.40001
1.40001
1.40001
1.40001
1.40001
1.40001
1.40001
1.40001
1.40001
1.40001
1.4
1.42695
3.56995
5.21333
5.30483
5.3225
5.33521
5.34192
5.34476
5.34355
5.34544
5.34969
5.35216
5.35284
5.35213
5.34978
5.34588
5.34103
5.33617
5.33167
5.32686
5.32068
5.3119
5.29997
5.2849
5.26732
5.24785
5.22584
5.20046
5.1713
5.13994
5.10593
5.06887
5.02418
4.96954
4.90108
4.81941
4.72273
4.60784
4.47009
4.29481
4.07862
3.79738
3.46268
3.07636
1.40001
1.40001
1.40001
1.40001
1.40001
1.40001
1.40001
1.40001
1.40001
1.40001
1.40001
1.40001
1.40001
1.40001
1.40001
1.40001
1.40001
1.40001
1.40001
1.40001
1.40001
1.40001
1.40001
1.40001
1.40001
1.40001
1.40001
1.40001
1.40001
1.40001
1.40001
1.40001
1.40001
1.40001
1.40001
1.40001
1.40001
1.40001
1.40001
1.40001
1.40001
1.40001
1.40001
1.40001
1.40001
1.40001
1.40001
1.40001
1.40001
1.40001
1.40001
1.40001
1.4
2.10189
4.80556
5.31664
5.30546
5.31925
5.32511
5.32629
5.324
5.32334
5.32563
5.32743
5.32805
5.32673
5.32323
5.31734
5.30946
5.30066
5.29204
5.28314
5.2732
5.26171
5.24775
5.23065
5.21008
5.18671
5.16019
5.13044
5.09661
5.06028
5.02087
4.97791
4.9276
4.86726
4.79369
4.70642
4.60426
4.48433
4.34398
4.17374
3.97539
3.73947
3.47792
3.17397
1.40001
1.40001
1.40001
1.40001
1.40001
1.40001
1.40001
1.40001
1.40001
1.40001
1.40001
1.40001
1.40001
1.40001
1.40001
1.40001
1.40001
1.40001
1.40001
1.40001
1.40001
1.40001
1.40001
1.40001
1.40001
1.40001
1.40001
1.40001
1.40001
1.40001
1.40001
1.40001
1.40001
1.40001
1.40001
1.40001
1.40001
1.40001
1.40001
1.40001
1.40001
1.40001
1.40001
1.40001
1.40001
1.40001
1.40001
1.40001
1.40001
1.40001
1.40001
1.40001
1.4
1.43582
3.60568
5.2446
5.28045
5.29227
5.29644
5.29692
5.2966
5.29781
5.30116
5.30318
5.30375
5.3015
5.29693
5.2895
5.27937
5.26782
5.25549
5.24189
5.22713
5.21177
5.1954
5.177
5.15488
5.12881
5.0982
5.06385
5.02539
4.98457
4.94091
4.89337
4.8388
4.77443
4.69808
4.609
4.5067
4.38789
4.25119
4.09623
3.91625
3.71911
3.50482
3.26159
1.40001
1.40001
1.40001
1.40001
1.40001
1.40001
1.40001
1.40001
1.40001
1.40001
1.40001
1.40001
1.40001
1.40001
1.40001
1.40001
1.40001
1.40001
1.40001
1.40001
1.40001
1.40001
1.40001
1.40001
1.40001
1.40001
1.40001
1.40001
1.40001
1.40001
1.40001
1.40001
1.40001
1.40001
1.40001
1.40001
1.40001
1.40001
1.40001
1.40001
1.40001
1.40001
1.40001
1.40001
1.40001
1.40001
1.40001
1.40001
1.40001
1.40001
1.40001
1.40001
1.40001
1.40003
2.01393
4.75816
5.30222
5.27919
5.27803
5.27295
5.26989
5.27002
5.27271
5.2745
5.27459
5.27167
5.26646
5.25743
5.24554
5.23275
5.21807
5.20179
5.1833
5.16404
5.14457
5.12416
5.10058
5.07262
5.03903
5.00123
4.9596
4.91548
4.86838
4.81712
4.75918
4.69225
4.61488
4.52634
4.4279
4.31322
4.18664
4.04548
3.88549
3.71829
3.53848
3.33325
1.40001
1.40001
1.40001
1.40001
1.40001
1.40001
1.40001
1.40001
1.40001
1.40001
1.40001
1.40001
1.40001
1.40001
1.40001
1.40001
1.40001
1.40001
1.40001
1.40001
1.40001
1.40001
1.40001
1.40001
1.40001
1.40001
1.40001
1.40001
1.40001
1.40001
1.40001
1.40001
1.40001
1.40001
1.40001
1.40001
1.40001
1.40001
1.40001
1.40001
1.40001
1.40001
1.40001
1.40001
1.40001
1.40001
1.40001
1.40001
1.40001
1.40001
1.40001
1.40001
1.40001
1.40001
1.42467
3.34549
5.1565
5.25224
5.24673
5.24466
5.24675
5.24878
5.25135
5.25285
5.2509
5.24606
5.23928
5.22797
5.21463
5.20096
5.18464
5.16679
5.14546
5.12243
5.09897
5.07516
5.0491
5.01904
4.98331
4.94372
4.9009
4.855
4.80525
4.75073
4.68983
4.62128
4.54422
4.45733
4.36411
4.25501
4.13931
4.01146
3.87157
3.72713
3.56802
3.39486
1.40001
1.40001
1.40001
1.40001
1.40001
1.40001
1.40001
1.40001
1.40001
1.40001
1.40001
1.40001
1.40001
1.40001
1.40001
1.40001
1.40001
1.40001
1.40001
1.40001
1.40001
1.40001
1.40001
1.40001
1.40001
1.40001
1.40001
1.40001
1.40001
1.40001
1.40001
1.40001
1.40001
1.40001
1.40001
1.40001
1.40001
1.40001
1.40001
1.40001
1.40001
1.40001
1.40001
1.40001
1.40001
1.40001
1.40001
1.40001
1.40001
1.40001
1.40001
1.40001
1.40001
1.40001
1.40002
1.73395
4.52796
5.28163
5.25478
5.2414
5.23031
5.22578
5.22369
5.22215
5.21774
5.21082
5.20221
5.1894
5.17544
5.16164
5.14549
5.12802
5.10626
5.08208
5.05624
5.02922
4.99991
4.96705
4.92959
4.88977
4.84762
4.80197
4.75136
4.69464
4.63122
4.56116
4.48508
4.39991
4.31196
4.20951
4.10288
3.98952
3.86758
3.73613
3.59494
3.4509
1.40001
1.40001
1.40001
1.40001
1.40001
1.40001
1.40001
1.40001
1.40001
1.40001
1.40001
1.40001
1.40001
1.40001
1.40001
1.40001
1.40001
1.40001
1.40001
1.40001
1.40001
1.40001
1.40001
1.40001
1.40001
1.40001
1.40001
1.40001
1.40001
1.40001
1.40001
1.40001
1.40001
1.40001
1.40001
1.40001
1.40001
1.40001
1.40001
1.40001
1.40001
1.40001
1.40001
1.40001
1.40001
1.40001
1.40001
1.40001
1.40001
1.40001
1.40001
1.40001
1.40001
1.40001
1.40001
1.40605
2.92097
5.02927
5.19434
5.19967
5.19982
5.19544
5.19059
5.18618
5.18076
5.17338
5.16394
5.15001
5.13517
5.12064
5.10471
5.08801
5.06712
5.04372
5.01691
4.98688
4.95414
4.91861
4.87966
4.83994
4.79867
4.75404
4.70414
4.64714
4.58319
4.51255
4.43776
4.35405
4.27008
4.1742
4.0768
3.97628
3.86351
3.74338
3.62402
3.49898
1.40001
1.40001
1.40001
1.40001
1.40001
1.40001
1.40001
1.40001
1.40001
1.40001
1.40001
1.40001
1.40001
1.40001
1.40001
1.40001
1.40001
1.40001
1.40001
1.40001
1.40001
1.40001
1.40001
1.40001
1.40001
1.40001
1.40001
1.40001
1.40001
1.40001
1.40001
1.40001
1.40001
1.40001
1.40001
1.40001
1.40001
1.40001
1.40001
1.40001
1.40001
1.40001
1.40001
1.40001
1.40001
1.40001
1.40001
1.40001
1.40001
1.40001
1.40001
1.40001
1.40001
1.40001
1.40001
1.40001
1.54963
3.98179
5.18319
5.1899
5.18027
5.17236
5.16668
5.16068
5.15389
5.14488
5.13395
5.11783
5.10033
5.0832
5.06584
5.04846
5.0282
5.00606
4.97985
4.94848
4.91349
4.87571
4.83578
4.79566
4.75449
4.71032
4.66152
4.60555
4.54291
4.47314
4.40027
4.31894
4.238
4.14883
4.06003
3.96482
3.85956
3.75587
3.65216
3.53605
1.40001
1.40001
1.40001
1.40001
1.40001
1.40001
1.40001
1.40001
1.40001
1.40001
1.40001
1.40001
1.40001
1.40001
1.40001
1.40001
1.40001
1.40001
1.40001
1.40001
1.40001
1.40001
1.40001
1.40001
1.40001
1.40001
1.40001
1.40001
1.40001
1.40001
1.40001
1.40001
1.40001
1.40001
1.40001
1.40001
1.40001
1.40001
1.40001
1.40001
1.40001
1.40001
1.40001
1.40001
1.40001
1.40001
1.40001
1.40001
1.40001
1.40001
1.40001
1.40001
1.40001
1.40001
1.40001
1.40001
1.40108
2.11947
4.75893
5.17579
5.15091
5.14976
5.14511
5.13768
5.12863
5.11773
5.10497
5.08795
5.06878
5.04928
5.02986
5.01061
4.99007
4.96798
4.94225
4.91114
4.87538
4.83693
4.79643
4.75614
4.71439
4.66951
4.62124
4.56689
4.50763
4.44016
4.37053
4.29334
4.21584
4.1334
4.04882
3.95734
3.86389
3.77194
3.67284
3.56435
1.40001
1.40001
1.40001
1.40001
1.40001
1.40001
1.40001
1.40001
1.40001
1.40001
1.40001
1.40001
1.40001
1.40001
1.40001
1.40001
1.40001
1.40001
1.40001
1.40001
1.40001
1.40001
1.40001
1.40001
1.40001
1.40001
1.40001
1.40001
1.40001
1.40001
1.40001
1.40001
1.40001
1.40001
1.40001
1.40001
1.40001
1.40001
1.40001
1.40001
1.40001
1.40001
1.40001
1.40001
1.40001
1.40001
1.40001
1.40001
1.40001
1.40001
1.40001
1.40001
1.40001
1.40001
1.40001
1.40001
1.40001
1.43091
3.09846
5.03621
5.1356
5.13336
5.12815
5.12014
5.11004
5.09713
5.08126
5.06256
5.04175
5.02074
5.0003
4.9795
4.95793
4.93443
4.90687
4.8762
4.84047
4.80237
4.7625
4.72224
4.68004
4.63498
4.58596
4.53299
4.47652
4.41213
4.34652
4.27479
4.20159
4.12442
4.04233
3.9578
3.8744
3.78513
3.69066
3.59356
1.40001
1.40001
1.40001
1.40001
1.40001
1.40001
1.40001
1.40001
1.40001
1.40001
1.40001
1.40001
1.40001
1.40001
1.40001
1.40001
1.40001
1.40001
1.40001
1.40001
1.40001
1.40001
1.40001
1.40001
1.40001
1.40001
1.40001
1.40001
1.40001
1.40001
1.40001
1.40001
1.40001
1.40001
1.40001
1.40001
1.40001
1.40001
1.40001
1.40001
1.40001
1.40001
1.40001
1.40001
1.40001
1.40001
1.40001
1.40001
1.40001
1.40001
1.40001
1.40001
1.40001
1.40001
1.40001
1.40001
1.40001
1.40007
1.57843
3.79009
5.08593
5.13317
5.12258
5.11308
5.10089
5.08409
5.0651
5.04387
5.02092
4.99755
4.97562
4.95364
4.93085
4.90553
4.87571
4.84438
4.8091
4.77132
4.73184
4.69073
4.6489
4.60395
4.55429
4.50251
4.44692
4.3875
4.32576
4.2595
4.19114
4.11832
4.04099
3.96428
3.88574
3.79955
3.71298
3.62522
1.40001
1.40001
1.40001
1.40001
1.40001
1.40001
1.40001
1.40001
1.40001
1.40001
1.40001
1.40001
1.40001
1.40001
1.40001
1.40001
1.40001
1.40001
1.40001
1.40001
1.40001
1.40001
1.40001
1.40001
1.40001
1.40001
1.40001
1.40001
1.40001
1.40001
1.40001
1.40001
1.40001
1.40001
1.40001
1.40001
1.40001
1.40001
1.40001
1.40001
1.40001
1.40001
1.40001
1.40001
1.40001
1.40001
1.40001
1.40001
1.40001
1.40001
1.40001
1.40001
1.40001
1.40001
1.40001
1.40001
1.40001
1.40001
1.40167
1.80383
4.48313
5.17486
5.1458
5.11641
5.08987
5.06596
5.04317
5.0205
4.99709
4.97331
4.95027
4.92834
4.90535
4.87929
4.8484
4.81536
4.78068
4.74214
4.70277
4.6616
4.61977
4.57554
4.52734
4.47714
4.42442
4.36893
4.31016
4.24837
4.18416
4.1149
4.04268
3.97302
3.89786
3.81873
3.74118
3.66151
1.40001
1.40001
1.40001
1.40001
1.40001
1.40001
1.40001
1.40001
1.40001
1.40001
1.40001
1.40001
1.40001
1.40001
1.40001
1.40001
1.40001
1.40001
1.40001
1.40001
1.40001
1.40001
1.40001
1.40001
1.40001
1.40001
1.40001
1.40001
1.40001
1.40001
1.40001
1.40001
1.40001
1.40001
1.40001
1.40001
1.40001
1.40001
1.40001
1.40001
1.40001
1.40001
1.40001
1.40001
1.40001
1.40001
1.40001
1.40001
1.40001
1.40001
1.40001
1.40001
1.40001
1.40001
1.40001
1.40001
1.40001
1.40001
1.40001
1.4089
2.57971
4.90662
5.10053
5.07078
5.05052
5.03096
5.0129
4.99378
4.97381
4.95314
4.93135
4.90788
4.8838
4.85696
4.82507
4.79139
4.75678
4.71806
4.67831
4.63687
4.59439
4.55016
4.50375
4.45613
4.40647
4.35385
4.29798
4.24037
4.17981
4.11381
4.04798
3.98462
3.91434
3.84494
3.77675
3.70519
1.40001
1.40001
1.40001
1.40001
1.40001
1.40001
1.40001
1.40001
1.40001
1.40001
1.40001
1.40001
1.40001
1.40001
1.40001
1.40001
1.40001
1.40001
1.40001
1.40001
1.40001
1.40001
1.40001
1.40001
1.40001
1.40001
1.40001
1.40001
1.40001
1.40001
1.40001
1.40001
1.40001
1.40001
1.40001
1.40001
1.40001
1.40001
1.40001
1.40001
1.40001
1.40001
1.40001
1.40001
1.40001
1.40001
1.40001
1.40001
1.40001
1.40001
1.40001
1.40001
1.40001
1.40001
1.40001
1.40001
1.40001
1.40001
1.40001
1.40002
1.4809
3.21363
4.98294
5.03467
5.02197
5.01809
5.00648
4.9904
4.97076
4.94941
4.92639
4.90094
4.87405
4.84596
4.81195
4.77694
4.74083
4.7012
4.66035
4.61827
4.57501
4.53102
4.48617
4.44096
4.39413
4.34442
4.29193
4.23785
4.18038
4.11907
4.06132
4.00469
3.94125
3.88235
3.82397
3.7627
1.40001
1.40001
1.40001
1.40001
1.40001
1.40001
1.40001
1.40001
1.40001
1.40001
1.40001
1.40001
1.40001
1.40001
1.40001
1.40001
1.40001
1.40001
1.40001
1.40001
1.40001
1.40001
1.40001
1.40001
1.40001
1.40001
1.40001
1.40001
1.40001
1.40001
1.40001
1.40001
1.40001
1.40001
1.40001
1.40001
1.40001
1.40001
1.40001
1.40001
1.40001
1.40001
1.40001
1.40001
1.40001
1.40001
1.40001
1.40001
1.40001
1.40001
1.40001
1.40001
1.40001
1.40001
1.40001
1.40001
1.40001
1.40001
1.40001
1.40001
1.40044
1.60267
3.59553
4.98309
5.01065
5.00604
4.99787
4.98311
4.96499
4.94419
4.92081
4.89439
4.86577
4.83582
4.8011
4.76559
4.72795
4.68792
4.64666
4.60442
4.56103
4.51723
4.47425
4.43143
4.38667
4.33914
4.29038
4.24058
4.18866
4.13727
4.08944
4.04039
3.98692
3.93992
3.88934
3.83662
1.40001
1.40001
1.40001
1.40001
1.40001
1.40001
1.40001
1.40001
1.40001
1.40001
1.40001
1.40001
1.40001
1.40001
1.40001
1.40001
1.40001
1.40001
1.40001
1.40001
1.40001
1.40001
1.40001
1.40001
1.40001
1.40001
1.40001
1.40001
1.40001
1.40001
1.40001
1.40001
1.40001
1.40001
1.40001
1.40001
1.40001
1.40001
1.40001
1.40001
1.40001
1.40001
1.40001
1.40001
1.40001
1.40001
1.40001
1.40001
1.40001
1.40001
1.40001
1.40001
1.40001
1.40001
1.40001
1.40001
1.40001
1.40001
1.40001
1.40001
1.40001
1.40229
1.725
3.91452
5.01095
5.00955
4.99442
4.97645
4.95708
4.93513
4.91114
4.88487
4.85692
4.82663
4.79325
4.75788
4.72008
4.68024
4.63922
4.5975
4.55519
4.51248
4.47034
4.42967
4.38685
4.34265
4.30018
4.25862
4.21713
4.17758
4.14104
4.09958
4.05396
4.01445
3.96635
3.91711
1.40001
1.40001
1.40001
1.40001
1.40001
1.40001
1.40001
1.40001
1.40001
1.40001
1.40001
1.40001
1.40001
1.40001
1.40001
1.40001
1.40001
1.40001
1.40001
1.40001
1.40001
1.40001
1.40001
1.40001
1.40001
1.40001
1.40001
1.40001
1.40001
1.40001
1.40001
1.40001
1.40001
1.40001
1.40001
1.40001
1.40001
1.40001
1.40001
1.40001
1.40001
1.40001
1.40001
1.40001
1.40001
1.40001
1.40001
1.40001
1.40001
1.40001
1.40001
1.40001
1.40001
1.40001
1.40001
1.40001
1.40001
1.40001
1.40001
1.40001
1.40001
1.40001
1.40575
1.86237
4.19691
5.01941
5.0029
4.97942
4.9545
4.92909
4.90202
4.87405
4.84509
4.81473
4.7822
4.74715
4.70995
4.67143
4.63217
4.59258
4.55295
4.51281
4.47352
4.4372
4.40105
4.36657
4.33601
4.30478
4.27426
4.24499
4.21287
4.17257
4.13104
4.09185
4.0412
3.99331
1.40001
1.40001
1.40001
1.40001
1.40001
1.40001
1.40001
1.40001
1.40001
1.40001
1.40001
1.40001
1.40001
1.40001
1.40001
1.40001
1.40001
1.40001
1.40001
1.40001
1.40001
1.40001
1.40001
1.40001
1.40001
1.40001
1.40001
1.40001
1.40001
1.40001
1.40001
1.40001
1.40001
1.40001
1.40001
1.40001
1.40001
1.40001
1.40001
1.40001
1.40001
1.40001
1.40001
1.40001
1.40001
1.40001
1.40001
1.40001
1.40001
1.40001
1.40001
1.40001
1.40001
1.40001
1.40001
1.40001
1.40001
1.40001
1.40001
1.40001
1.40001
1.40001
1.40002
1.41155
2.01713
4.40333
5.03065
5.00348
4.97169
4.93833
4.90623
4.87356
4.83997
4.8066
4.77229
4.73658
4.69995
4.6632
4.62638
4.59007
4.55453
4.52105
4.49122
4.46623
4.44341
4.42176
4.40149
4.3783
4.35422
4.32635
4.29017
4.24798
4.20704
4.16382
4.11162
4.0664
1.40001
1.40001
1.40001
1.40001
1.40001
1.40001
1.40001
1.40001
1.40001
1.40001
1.40001
1.40001
1.40001
1.40001
1.40001
1.40001
1.40001
1.40001
1.40001
1.40001
1.40001
1.40001
1.40001
1.40001
1.40001
1.40001
1.40001
1.40001
1.40001
1.40001
1.40001
1.40001
1.40001
1.40001
1.40001
1.40001
1.40001
1.40001
1.40001
1.40001
1.40001
1.40001
1.40001
1.40001
1.40001
1.40001
1.40001
1.40001
1.40001
1.40001
1.40001
1.40001
1.40001
1.40001
1.40001
1.40001
1.40001
1.40001
1.40001
1.40001
1.40001
1.40001
1.40001
1.40004
1.42061
2.16633
4.58765
5.02753
4.99524
4.95933
4.91899
4.88052
4.84281
4.80583
4.76797
4.73033
4.69296
4.65707
4.62268
4.59174
4.5657
4.54697
4.53442
4.52456
4.51517
4.50531
4.48872
4.46547
4.44038
4.40654
4.36407
4.32101
4.27874
4.23262
4.18295
4.14131
1.40001
1.40001
1.40001
1.40001
1.40001
1.40001
1.40001
1.40001
1.40001
1.40001
1.40001
1.40001
1.40001
1.40001
1.40001
1.40001
1.40001
1.40001
1.40001
1.40001
1.40001
1.40001
1.40001
1.40001
1.40001
1.40001
1.40001
1.40001
1.40001
1.40001
1.40001
1.40001
1.40001
1.40001
1.40001
1.40001
1.40001
1.40001
1.40001
1.40001
1.40001