/*--------------------------------*- C++ -*----------------------------------*\
  =========                 |
  \\      /  F ield         | OpenFOAM: The Open Source CFD Toolbox
   \\    /   O peration     | Website:  https://openfoam.org
    \\  /    A nd           | Version:  7
     \\/     M anipulation  |
\*---------------------------------------------------------------------------*/
FoamFile
{
    version     2.0;
    format      ascii;
    class       volScalarField;
    location    "9.5";
    object      T;
}
// * * * * * * * * * * * * * * * * * * * * * * * * * * * * * * * * * * * * * //

dimensions      [0 0 0 1 0 0 0];

internalField   nonuniform List<scalar> 
19968
(
1
1
1
1
1
1
1
1
1
1
1
1
1
1
1
1
1
1
1
1
1
1
1
1
1
1
1
1
1
1
1
1
1
1
1
1
1
1
1
1
1
1
1
1
1
1
1
1
1.28056
2.46232
2.68686
2.69008
2.69746
2.70309
2.70818
2.71206
2.71502
2.71758
2.72041
2.72401
2.72854
2.73362
2.73834
2.74205
2.74482
2.74709
2.74939
2.75218
2.75561
2.75948
2.76325
2.76648
2.76901
2.77099
2.77275
2.77456
2.77661
2.77897
2.78153
2.78407
2.78641
2.7885
2.79039
2.79217
2.79393
2.79568
2.79733
2.79872
2.79975
2.80042
2.80085
2.80117
2.80152
2.80187
2.8022
2.8025
1
1
1
1
1
1
1
1
1
1
1
1
1
1
1
1
1
1
1
1
1
1
1
1
1
1
1
1
1
1
1
1
1
1
1
1
1
1
1
1
1
1
1
1
1
1
1
1
1.26624
2.45384
2.68633
2.6911
2.69759
2.70311
2.70794
2.71166
2.7146
2.71724
2.72016
2.72385
2.72839
2.73343
2.73806
2.74175
2.74451
2.74679
2.74911
2.75192
2.75536
2.75921
2.76295
2.76614
2.76865
2.77065
2.77243
2.77427
2.77635
2.77872
2.78127
2.78379
2.78611
2.78818
2.79007
2.79186
2.79361
2.79534
2.79694
2.79829
2.79929
2.79995
2.80039
2.80074
2.80109
2.80144
2.80176
2.80203
1
1
1
1
1
1
1
1
1
1
1
1
1
1
1
1
1
1
1
1
1
1
1
1
1
1
1
1
1
1
1
1
1
1
1
1
1
1
1
1
1
1
1
1
1
1
1
1
1.23408
2.43501
2.687
2.69124
2.69721
2.70231
2.70674
2.71032
2.71342
2.71638
2.71963
2.72354
2.72807
2.73298
2.73743
2.74107
2.74382
2.74616
2.74855
2.75141
2.75485
2.75865
2.76232
2.76547
2.76799
2.77002
2.77185
2.77374
2.77585
2.77821
2.78073
2.78321
2.78551
2.78759
2.78949
2.79129
2.79303
2.79473
2.79629
2.79759
2.79856
2.79922
2.79968
2.80007
2.80045
2.80082
2.80114
2.8014
1
1
1
1
1
1
1
1
1
1
1
1
1
1
1
1
1
1
1
1
1
1
1
1
1
1
1
1
1
1
1
1
1
1
1
1
1
1
1
1
1
1
1
1
1
1
1
1
1.18661
2.40587
2.6878
2.69135
2.69643
2.70101
2.70508
2.70864
2.71205
2.71553
2.71925
2.72338
2.72775
2.73239
2.73657
2.74012
2.74291
2.74536
2.74783
2.75073
2.75414
2.75785
2.76143
2.76455
2.76708
2.76917
2.77107
2.77302
2.77515
2.7775
2.77997
2.78239
2.78465
2.78671
2.7886
2.79038
2.79209
2.79371
2.79518
2.79641
2.79733
2.798
2.7985
2.79895
2.79939
2.79981
2.80016
2.80042
1
1
1
1
1
1
1
1
1
1
1
1
1
1
1
1
1
1
1
1
1
1
1
1
1
1
1
1
1
1
1
1
1
1
1
1
1
1
1
1
1
1
1
1
1
1
1
1
1.12362
2.3659
2.68868
2.69139
2.69551
2.69957
2.70341
2.70713
2.71091
2.71485
2.71893
2.72318
2.72733
2.73164
2.73553
2.73902
2.74193
2.74457
2.74715
2.75004
2.75333
2.75688
2.76035
2.76346
2.76606
2.76824
2.77021
2.7722
2.77433
2.77665
2.77906
2.78143
2.78365
2.7857
2.78759
2.78936
2.79101
2.79255
2.79392
2.79505
2.7959
2.79651
2.79698
2.79741
2.79783
2.79822
2.79855
2.79876
1
1
1
1
1
1
1
1
1
1
1
1
1
1
1
1
1
1
1
1
1
1
1
1
1
1
1
1
1
1
1
1
1
1
1
1
1
1
1
1
1
1
1
1
1
1
1
1
1.01297
2.30201
2.6882
2.69096
2.69467
2.69853
2.70255
2.70672
2.71095
2.71514
2.71934
2.72352
2.72736
2.73113
2.7346
2.73797
2.74106
2.74393
2.74661
2.74937
2.75238
2.75562
2.75889
2.76193
2.76459
2.76684
2.76884
2.7708
2.77286
2.77509
2.77741
2.77969
2.78186
2.78388
2.78575
2.78749
2.78911
2.79061
2.79195
2.79307
2.79395
2.7946
2.79511
2.79555
2.79598
2.79637
2.79668
2.79687
1
1
1
1
1
1
1
1
1
1
1
1
1
1
1
1
1
1
1
1
1
1
1
1
1
1
1
1
1
1
1
1
1
1
1
1
1
1
1
1
1
1
1
1
1
1
1
1
1.00008
2.21746
2.68392
2.68774
2.6912
2.69516
2.6994
2.70387
2.70838
2.71275
2.71704
2.72118
2.72482
2.72824
2.73149
2.73488
2.73824
2.74146
2.74435
2.74711
2.74995
2.75298
2.75612
2.75918
2.76197
2.76437
2.76646
2.76843
2.77045
2.7726
2.77484
2.77708
2.77923
2.78124
2.7831
2.78481
2.78641
2.78789
2.78924
2.79041
2.79133
2.79202
2.79253
2.79294
2.79331
2.79364
2.79392
2.79408
1
1
1
1
1
1
1
1
1
1
1
1
1
1
1
1
1
1
1
1
1
1
1
1
1
1
1
1
1
1
1
1
1
1
1
1
1
1
1
1
1
1
1
1
1
1
1
1
1
2.09159
2.6727
2.68409
2.68792
2.69237
2.69686
2.70133
2.70567
2.70992
2.71408
2.71809
2.72166
2.72506
2.72843
2.73195
2.7355
2.73886
2.74182
2.74457
2.74732
2.75024
2.75328
2.75634
2.75921
2.76172
2.76386
2.7658
2.76773
2.76978
2.77195
2.77415
2.77626
2.77823
2.78002
2.78165
2.78319
2.78465
2.78602
2.78723
2.7882
2.78891
2.78939
2.78972
2.78999
2.79023
2.79044
2.79058
1
1
1
1
1
1
1
1
1
1
1
1
1
1
1
1
1
1
1
1
1
1
1
1
1
1
1
1
1
1
1
1
1
1
1
1
1
1
1
1
1
1
1
1
1
1
1
1
1
1.91448
2.64213
2.67755
2.68252
2.6878
2.69262
2.69719
2.70143
2.7055
2.70948
2.71338
2.71707
2.72067
2.72434
2.72807
2.73172
2.73508
2.73801
2.74074
2.74343
2.74629
2.74927
2.75233
2.75526
2.75785
2.76001
2.76189
2.76374
2.76573
2.76788
2.77008
2.77219
2.77409
2.77576
2.77728
2.77873
2.78019
2.78163
2.78293
2.78398
2.78472
2.78519
2.78546
2.78564
2.78578
2.78593
2.78604
1
1
1
1
1
1
1
1
1
1
1
1
1
1
1
1
1
1
1
1
1
1
1
1
1
1
1
1
1
1
1
1
1
1
1
1
1
1
1
1
1
1
1
1
1
1
1
1
1
1.68322
2.58462
2.67158
2.67734
2.68293
2.68763
2.69213
2.69632
2.70029
2.70415
2.70799
2.71188
2.71578
2.71974
2.72365
2.72736
2.73065
2.73351
2.73621
2.73888
2.74172
2.74466
2.74768
2.75056
2.75308
2.75513
2.75688
2.7586
2.76053
2.76269
2.76493
2.76703
2.76885
2.77039
2.77179
2.77319
2.77467
2.77618
2.77754
2.7786
2.77928
2.77965
2.77982
2.77986
2.77988
2.77996
2.78002
1
1
1
1
1
1
1
1
1
1
1
1
1
1
1
1
1
1
1
1
1
1
1
1
1
1
1
1
1
1
1
1
1
1
1
1
1
1
1
1
1
1
1
1
1
1
1
1
1
1.37867
2.48141
2.6712
2.67219
2.67812
2.68225
2.68664
2.69083
2.69479
2.69861
2.7024
2.70637
2.71046
2.71452
2.71845
2.72211
2.72535
2.72818
2.7309
2.73359
2.73645
2.73942
2.74242
2.74524
2.74765
2.74959
2.75121
2.75285
2.75473
2.75686
2.75902
2.76095
2.7625
2.76373
2.76482
2.76598
2.76732
2.76876
2.7701
2.77113
2.77178
2.77212
2.77228
2.7723
2.77231
2.77239
2.77245
1
1
1
1
1
1
1
1
1
1
1
1
1
1
1
1
1
1
1
1
1
1
1
1
1
1
1
1
1
1
1
1
1
1
1
1
1
1
1
1
1
1
1
1
1
1
1
1
1
1.01562
2.29914
2.67878
2.6783
2.6795
2.68194
2.68518
2.68873
2.69228
2.69569
2.6989
2.70217
2.70562
2.70911
2.71261
2.71594
2.7189
2.72149
2.72404
2.72666
2.72943
2.73236
2.73523
2.7379
2.74016
2.74199
2.74355
2.74516
2.74704
2.74918
2.75132
2.75315
2.75453
2.75555
2.75646
2.75749
2.75876
2.76016
2.76139
2.7622
2.76253
2.76255
2.76229
2.76186
2.7616
2.76149
2.76143
1
1
1
1
1
1
1
1
1
1
1
1
1
1
1
1
1
1
1
1
1
1
1
1
1
1
1
1
1
1
1
1
1
1
1
1
1
1
1
1
1
1
1
1
1
1
1
1
1
1.00003
2.01967
2.64692
2.66158
2.6654
2.67053
2.67523
2.67962
2.68365
2.68732
2.69063
2.6937
2.69682
2.7
2.70311
2.70617
2.70902
2.71162
2.71421
2.71697
2.71982
2.72278
2.7256
2.72816
2.73032
2.73209
2.73366
2.73527
2.73713
2.7392
2.74123
2.74288
2.74403
2.74475
2.74526
2.74582
2.74659
2.74748
2.74821
2.74854
2.74853
2.74835
2.74801
2.7476
2.74727
2.74695
2.74678
1
1
1
1
1
1
1
1
1
1
1
1
1
1
1
1
1
1
1
1
1
1
1
1
1
1
1
1
1
1
1
1
1
1
1
1
1
1
1
1
1
1
1
1
1
1
1
1
1
1
1.5486
2.51654
2.64718
2.65337
2.66115
2.66693
2.67194
2.67643
2.68046
2.68407
2.6872
2.6901
2.69291
2.69558
2.69823
2.70085
2.70335
2.70582
2.70844
2.71108
2.71372
2.71619
2.71837
2.7202
2.72169
2.723
2.72433
2.72585
2.72755
2.72922
2.73057
2.73148
2.73181
2.73179
2.73185
2.73207
2.7325
2.73293
2.73303
2.73268
2.73182
2.73051
2.72846
2.72568
2.72256
2.72003
1
1
1
1
1
1
1
1
1
1
1
1
1
1
1
1
1
1
1
1
1
1
1
1
1
1
1
1
1
1
1
1
1
1
1
1
1
1
1
1
1
1
1
1
1
1
1
1
1
1
1.02837
2.25107
2.65631
2.65615
2.65733
2.65983
2.66299
2.66677
2.67083
2.67478
2.67819
2.68094
2.68334
2.68557
2.68783
2.69026
2.69271
2.69509
2.69749
2.6999
2.70218
2.70431
2.70612
2.70757
2.70872
2.70968
2.71056
2.71145
2.71247
2.71362
2.7146
2.71504
2.71488
2.71425
2.71328
2.71223
2.71117
2.70987
2.70798
2.70526
2.7018
2.69785
2.69395
2.68979
2.68675
2.68491
1
1
1
1
1
1
1
1
1
1
1
1
1
1
1
1
1
1
1
1
1
1
1
1
1
1
1
1
1
1
1
1
1
1
1
1
1
1
1
1
1
1
1
1
1
1
1
1
1
1
1.00005
1.76206
2.56383
2.63684
2.64046
2.64371
2.64716
2.65156
2.65668
2.66171
2.66594
2.66909
2.67137
2.6733
2.6753
2.67762
2.6802
2.68278
2.68523
2.68748
2.68945
2.69116
2.69257
2.69373
2.69463
2.69497
2.69504
2.69498
2.69489
2.6949
2.69496
2.69479
2.69405
2.69251
2.69018
2.68736
2.68427
2.68093
2.67713
2.67267
2.66738
2.66149
2.65543
2.65253
2.64939
2.66355
1
1
1
1
1
1
1
1
1
1
1
1
1
1
1
1
1
1
1
1
1
1
1
1
1
1
1
1
1
1
1
1
1
1
1
1
1
1
1
1
1
1
1
1
1
1
1
1
1
1
1
1.12502
2.34977
2.6314
2.63175
2.63307
2.63555
2.63934
2.64449
2.64997
2.65468
2.65816
2.66037
2.66197
2.66361
2.66571
2.66831
2.67106
2.67353
2.67558
2.67722
2.67853
2.67961
2.68041
2.68079
2.68068
2.6802
2.67929
2.67804
2.67675
2.67561
2.67444
2.67281
2.67027
2.66653
2.66167
2.65583
2.6491
2.64095
2.63068
2.61625
2.59608
2.56581
2.52308
2.45888
2.33216
1
1
1
1
1
1
1
1
1
1
1
1
1
1
1
1
1
1
1
1
1
1
1
1
1
1
1
1
1
1
1
1
1
1
1
1
1
1
1
1
1
1
1
1
1
1
1
1
1
1
1
1.00126
2.02599
2.60679
2.61279
2.61577
2.61987
2.62446
2.6301
2.63633
2.64174
2.64577
2.64831
2.64997
2.65152
2.6536
2.6563
2.6592
2.66179
2.66386
2.66541
2.66655
2.66736
2.66781
2.66787
2.6675
2.66667
2.66528
2.66331
2.66096
2.65852
2.65604
2.65322
2.64955
2.64448
2.63777
2.62919
2.61901
2.60632
2.5906
2.56851
2.53854
2.49411
2.43774
2.32396
2.16005
1
1
1
1
1
1
1
1
1
1
1
1
1
1
1
1
1
1
1
1
1
1
1
1
1
1
1
1
1
1
1
1
1
1
1
1
1
1
1
1
1
1
1
1
1
1
1
1
1
1
1
0.999999
1.40838
2.44139
2.59629
2.60233
2.60809
2.61225
2.61744
2.62376
2.62947
2.63378
2.63647
2.63807
2.63954
2.6416
2.64441
2.64744
2.65006
2.65203
2.65338
2.65428
2.65484
2.65496
2.65467
2.65383
2.65251
2.65068
2.64817
2.64498
2.64128
2.63731
2.63293
2.62786
2.62129
2.61282
2.60179
2.58845
2.57194
2.55151
2.52474
2.48846
2.44064
2.3672
2.26077
2.13435
1
1
1
1
1
1
1
1
1
1
1
1
1
1
1
1
1
1
1
1
1
1
1
1
1
1
1
1
1
1
1
1
1
1
1
1
1
1
1
1
1
1
1
1
1
1
1
1
1
1
1
1
1.01657
2.125
2.59431
2.59624
2.59827
2.60186
2.6063
2.61149
2.616
2.61983
2.62246
2.62408
2.62573
2.62805
2.63103
2.63418
2.63681
2.63861
2.63968
2.6403
2.64067
2.64068
2.64025
2.63915
2.63743
2.63515
2.63215
2.62832
2.62365
2.61843
2.61258
2.60606
2.59801
2.58795
2.57501
2.55919
2.53997
2.51642
2.48727
2.44877
2.39964
2.33259
2.24807
2.14731
1
1
1
1
1
1
1
1
1
1
1
1
1
1
1
1
1
1
1
1
1
1
1
1
1
1
1
1
1
1
1
1
1
1
1
1
1
1
1
1
1
1
1
1
1
1
1
1
1
1
1
1
1.00001
1.4663
2.44152
2.58784
2.58722
2.59111
2.59591
2.60131
2.60535
2.60807
2.6098
2.61076
2.6121
2.61421
2.61709
2.6202
2.62275
2.62432
2.62499
2.62516
2.6252
2.62514
2.62475
2.62376
2.62197
2.61934
2.61579
2.61133
2.60586
2.59971
2.59279
2.58502
2.57569
2.56424
2.54997
2.53268
2.51202
2.4871
2.45708
2.41935
2.37376
2.31713
2.25135
2.17046
1
1
1
1
1
1
1
1
1
1
1
1
1
1
1
1
1
1
1
1
1
1
1
1
1
1
1
1
1
1
1
1
1
1
1
1
1
1
1
1
1
1
1
1
1
1
1
1
1
1
1
1
1
1.02159
2.12451
2.58433
2.58338
2.58426
2.58722
2.5914
2.59484
2.59701
2.59806
2.59851
2.5994
2.60085
2.60323
2.60605
2.60843
2.6097
2.6098
2.60944
2.60877
2.60823
2.60779
2.60711
2.60564
2.60305
2.59916
2.59414
2.588
2.58113
2.57349
2.56488
2.55466
2.54223
2.52713
2.50914
2.48811
2.46308
2.43354
2.39902
2.3575
2.3103
2.25683
2.19338
1
1
1
1
1
1
1
1
1
1
1
1
1
1
1
1
1
1
1
1
1
1
1
1
1
1
1
1
1
1
1
1
1
1
1
1
1
1
1
1
1
1
1
1
1
1
1
1
1
1
1
1
1
1.00003
1.40896
2.40562
2.57505
2.57508
2.57921
2.58304
2.58531
2.58642
2.58686
2.58686
2.58723
2.58795
2.58962
2.59174
2.59363
2.59455
2.59431
2.59344
2.59197
2.59072
2.58994
2.5893
2.58809
2.58575
2.58182
2.57656
2.57014
2.56291
2.55486
2.54573
2.53498
2.52206
2.50665
2.48857
2.46809
2.44364
2.41605
2.38447
2.34755
2.30717
2.26287
2.21057
1
1
1
1
1
1
1
1
1
1
1
1
1
1
1
1
1
1
1
1
1
1
1
1
1
1
1
1
1
1
1
1
1
1
1
1
1
1
1
1
1
1
1
1
1
1
1
1
1
1
1
1
1
1
1.01502
2.02813
2.55513
2.56797
2.57047
2.57339
2.57599
2.57714
2.57752
2.57766
2.57749
2.57757
2.57834
2.57941
2.58051
2.58088
2.58032
2.57887
2.57644
2.57413
2.57249
2.57132
2.56994
2.56767
2.56383
2.55866
2.55238
2.54514
2.5369
2.52747
2.51645
2.50347
2.4883
2.47059
2.45115
2.42775
2.40241
2.3737
2.34139
2.30729
2.26823
2.22457
1
1
1
1
1
1
1
1
1
1
1
1
1
1
1
1
1
1
1
1
1
1
1
1
1
1
1
1
1
1
1
1
1
1
1
1
1
1
1
1
1
1
1
1
1
1
1
1
1
1
1
1
1
1
1.00001
1.2322
2.34119
2.56311
2.56118
2.56295
2.5644
2.56544
2.56592
2.56623
2.56602
2.56595
2.56625
2.56658
2.56698
2.56699
2.56631
2.56456
2.56153
2.55841
2.55582
2.55376
2.55173
2.54907
2.54518
2.54028
2.53444
2.52754
2.51945
2.50994
2.49884
2.486
2.47144
2.4544
2.43629
2.41442
2.3911
2.36569
2.33766
2.30677
2.27255
2.23673
1
1
1
1
1
1
1
1
1
1
1
1
1
1
1
1
1
1
1
1
1
1
1
1
1
1
1
1
1
1
1
1
1
1
1
1
1
1
1
1
1
1
1
1
1
1
1
1
1
1
1
1
1
1
1
1.00387
1.84845
2.5022
2.54082
2.54664
2.54986
2.55095
2.55167
2.55226
2.55272
2.55324
2.5539
2.55397
2.55397
2.55374
2.55287
2.55102
2.54777
2.5442
2.54074
2.53752
2.53442
2.53104
2.52682
2.52203
2.51648
2.50992
2.50212
2.49279
2.48195
2.46947
2.45574
2.43954
2.42273
2.40265
2.38163
2.3594
2.33372
2.30553
2.27696
2.24634
1
1
1
1
1
1
1
1
1
1
1
1
1
1
1
1
1
1
1
1
1
1
1
1
1
1
1
1
1
1
1
1
1
1
1
1
1
1
1
1
1
1
1
1
1
1
1
1
1
1
1
1
1
1
1
1
1.09855
2.20632
2.53677
2.53906
2.53759
2.53732
2.53766
2.53827
2.53922
2.54033
2.54161
2.54185
2.54167
2.5411
2.53995
2.53798
2.53478
2.53112
2.52721
2.5231
2.51899
2.51471
2.51
2.50498
2.49934
2.49276
2.48508
2.47593
2.4655
2.45353
2.4407
2.42559
2.41001
2.39192
2.37331
2.35271
2.32896
2.30502
2.28069
2.25269
1
1
1
1
1
1
1
1
1
1
1
1
1
1
1
1
1
1
1
1
1
1
1
1
1
1
1
1
1
1
1
1
1
1
1
1
1
1
1
1
1
1
1
1
1
1
1
1
1
1
1
1
1
1
1
1
1.00064
1.45376
2.36692
2.51541
2.51523
2.518
2.52051
2.5223
2.52387
2.52552
2.52745
2.52866
2.52862
2.52806
2.5268
2.52474
2.52171
2.5181
2.51409
2.50966
2.50494
2.50009
2.49491
2.48956
2.48355
2.47653
2.46861
2.45948
2.44956
2.43808
2.42617
2.41238
2.39806
2.38203
2.36494
2.34553
2.32507
2.30451
2.28156
2.25592
1
1
1
1
1
1
1
1
1
1
1
1
1
1
1
1
1
1
1
1
1
1
1
1
1
1
1
1
1
1
1
1
1
1
1
1
1
1
1
1
1
1
1
1
1
1
1
1
1
1
1
1
1
1
1
1
1
1.01845
1.89502
2.47011
2.49976
2.50398
2.50629
2.50805
2.50955
2.51109
2.51297
2.51471
2.51489
2.51447
2.51341
2.51148
2.50869
2.50517
2.50101
2.49672
2.4919
2.48695
2.48169
2.47614
2.4698
2.46243
2.45394
2.4446
2.43479
2.42361
2.41243
2.39992
2.38683
2.3724
2.35629
2.33887
2.32133
2.30197
2.28067
2.25826
1
1
1
1
1
1
1
1
1
1
1
1
1
1
1
1
1
1
1
1
1
1
1
1
1
1
1
1
1
1
1
1
1
1
1
1
1
1
1
1
1
1
1
1
1
1
1
1
1
1
1
1
1
1
1
1
1
1.00003
1.11838
2.12421
2.47854
2.49665
2.49575
2.49668
2.49766
2.49841
2.49967
2.50096
2.50095
2.5004
2.49936
2.4976
2.49506
2.49174
2.48764
2.48364
2.47921
2.47449
2.46939
2.46367
2.45732
2.44982
2.44089
2.43135
2.42117
2.41051
2.39973
2.38816
2.37612
2.36281
2.34789
2.33273
2.31664
2.29827
2.27936
2.25974
1
1
1
1
1
1
1
1
1
1
1
1
1
1
1
1
1
1
1
1
1
1
1
1
1
1
1
1
1
1
1
1
1
1
1
1
1
1
1
1
1
1
1
1
1
1
1
1
1
1
1
1
1
1
1
1
1
1
1.00094
1.26919
2.26741
2.48012
2.48069
2.48127
2.48173
2.48243
2.48355
2.48473
2.48491
2.48452
2.4836
2.48224
2.4802
2.47737
2.47372
2.46998
2.46621
2.46177
2.45703
2.45154
2.44534
2.43803
2.42934
2.4199
2.40994
2.39963
2.38898
2.37798
2.36659
2.35392
2.34023
2.3267
2.31139
2.29484
2.27838
2.26113
1
1
1
1
1
1
1
1
1
1
1
1
1
1
1
1
1
1
1
1
1
1
1
1
1
1
1
1
1
1
1
1
1
1
1
1
1
1
1
1
1
1
1
1
1
1
1
1
1
1
1
1
1
1
1
1
1
1
1
1.00522
1.65904
2.37734
2.45709
2.45491
2.45687
2.45949
2.46241
2.46479
2.46633
2.46684
2.4665
2.46552
2.46406
2.46195
2.45895
2.45585
2.45277
2.44889
2.4446
2.4395
2.43352
2.42647
2.41833
2.4095
2.40008
2.39014
2.37978
2.36935
2.35844
2.34613
2.33365
2.32148
2.3073
2.29317
2.27913
2.26397
1
1
1
1
1
1
1
1
1
1
1
1
1
1
1
1
1
1
1
1
1
1
1
1
1
1
1
1
1
1
1
1
1
1
1
1
1
1
1
1
1
1
1
1
1
1
1
1
1
1
1
1
1
1
1
1
1
1
1
1.00001
1.04955
1.90937
2.41732
2.44469
2.4442
2.44615
2.44757
2.44882
2.44968
2.44997
2.44973
2.44899
2.44783
2.44644
2.44406
2.44161
2.43905
2.43575
2.43189
2.42725
2.42162
2.41507
2.40767
2.39969
2.39112
2.38188
2.37215
2.36226
2.35162
2.34035
2.32967
2.31914
2.30716
2.29537
2.28325
2.27034
1
1
1
1
1
1
1
1
1
1
1
1
1
1
1
1
1
1
1
1
1
1
1
1
1
1
1
1
1
1
1
1
1
1
1
1
1
1
1
1
1
1
1
1
1
1
1
1
1
1
1
1
1
1
1
1
1
1
1
1
1.00021
1.13298
2.02523
2.41258
2.43592
2.43792
2.43816
2.43758
2.43686
2.43599
2.43493
2.43358
2.4321
2.43067
2.42861
2.42662
2.42434
2.42152
2.41812
2.41399
2.40892
2.40302
2.39659
2.38964
2.38193
2.37343
2.36456
2.35562
2.34646
2.33769
2.33005
2.32154
2.31136
2.30232
2.29212
2.28116
1
1
1
1
1
1
1
1
1
1
1
1
1
1
1
1
1
1
1
1
1
1
1
1
1
1
1
1
1
1
1
1
1
1
1
1
1
1
1
1
1
1
1
1
1
1
1
1
1
1
1
1
1
1
1
1
1
1
1
1
1
1.00124
1.2124
2.10349
2.39933
2.42915
2.42837
2.4275
2.42628
2.42462
2.42275
2.42077
2.41883
2.41686
2.4147
2.41253
2.41009
2.40727
2.404
2.40019
2.39574
2.39058
2.38487
2.37886
2.37187
2.36439
2.3576
2.35121
2.3456
2.34011
2.3349
2.32845
2.3205
2.31344
2.30404
2.29392
1
1
1
1
1
1
1
1
1
1
1
1
1
1
1
1
1
1
1
1
1
1
1
1
1
1
1
1
1
1
1
1
1
1
1
1
1
1
1
1
1
1
1
1
1
1
1
1
1
1
1
1
1
1
1
1
1
1
1
1
1
1
1.00318
1.29547
2.15667
2.39001
2.41057
2.4131
2.41291
2.41221
2.41077
2.40887
2.4067
2.40443
2.40196
2.39927
2.39634
2.3932
2.38983
2.38621
2.38224
2.37763
2.3727
2.36791
2.36309
2.35851
2.3554
2.35246
2.34938
2.34668
2.34325
2.33768
2.33123
2.32473
2.31511
2.30545
1
1
1
1
1
1
1
1
1
1
1
1
1
1
1
1
1
1
1
1
1
1
1
1
1
1
1
1
1
1
1
1
1
1
1
1
1
1
1
1
1
1
1
1
1
1
1
1
1
1
1
1
1
1
1
1
1
1
1
1
1
1
1
1.00648
1.37906
2.19626
2.37688
2.39083
2.39487
2.39579
2.39561
2.39465
2.3931
2.39127
2.38903
2.38636
2.38334
2.38013
2.37672
2.37319
2.36945
2.36588
2.36302
2.36085
2.35943
2.35912
2.3586
2.35748
2.35628
2.35455
2.35103
2.34565
2.33994
2.33318
2.32371
2.31504
1
1
1
1
1
1
1
1
1
1
1
1
1
1
1
1
1
1
1
1
1
1
1
1
1
1
1
1
1
1
1
1
1
1
1
1
1
1
1
1
1
1
1
1
1
1
1
1
1
1
1
1
1
1
1
1
1
1
1
1
1
1
1
1.00001
1.01174
1.45334
2.22785
2.3673
2.37084
2.37368
2.37462
2.37523
2.37495
2.37421
2.37291
2.37116
2.36892
2.36638
2.36359
2.36085
2.35863
2.35837
2.35939
2.36136
2.3628
2.36434
2.36478
2.36405
2.36304
2.36059
2.35608
2.3509
2.34546
2.33865
2.33027
2.32294
1
1
1
1
1
1
1
1
1
1
1
1
1
1
1
1
1
1
1
1
1
1
1
1
1
1
1
1
1
1
1
1
1
1
1
1
1
1
1
1
1
1
1
1
1
1
1
1
1
1
1
1
1
1
1
1
1
1
1
1
1
1
1
1
1.00003
1.01858
1.55455
2.25404
2.35437
2.35296
2.35386
2.35377
2.35384
2.35377
2.35341
2.3528
2.35182
2.35066
2.35035
2.3516
2.3547
2.3592
2.3638
2.36773
2.3713
2.37264
2.37171
2.36995
2.36808
2.36426
2.35911
2.35442
2.34912
2.3427
2.33568
2.32945
1
1
1
1
1
1
1
1
1
1
1
1
1
1
1
1
1
1
1
1
1
1
1
1
1
1
1
1
1
1
1
1
1
1
1
1
1
1
1
1
1
1
1
1
1
1
1
1
1
1
1
1
1
1
1
1
1
1
1
1
1
1
1
1
1
1.00005
1.03219
1.61797
2.26355
2.34108
2.33828
2.33629
2.33531
2.33443
2.33366
2.33344
2.33411
2.33663
2.34117
2.34894
2.35821
2.36629
2.37262
2.37812
2.37993
2.37897
2.37638
2.3737
2.37087
2.36606
2.36115
2.35719
2.35211
2.34639
2.34051
2.33503
1
1
1
1
1
1
1
1
1
1
1
1
1
1
1
1
1
1
1
1
1
1
1
1
1
1
1
1
1
1
1
1
1
1
1
1
1
1
1
1
1
1
1
1
1
1
1
1
1
1
1
1
1
1
1
1
1
1
1
1
1
1
1
1
1
1
1.00013
1.04452
1.63641
2.25549
2.32817
2.32506
2.32242
2.3201
2.31799
2.31877
2.32168
2.32887
2.34178
2.35468
2.36643
2.37478
2.38104
2.38392
2.38322
2.38083
2.37764
2.37506
2.37195
2.36709
2.3631
2.35983
2.35505
2.34999
2.3448
2.3398
1
1
1
1
1
1
1
1
1
1
1
1
1
1
1
1
1
1
1
1
1
1
1
1
1
1
1
1
1
1
1
1
1
1
1
1
1
1
1
1
1
1
1
1
1
1
1
1
1
1
1
1
1
1
1
1
1
1
1
1
1
1
1
1
1
1
1
1.00022
1.04956
1.62117
2.23713
2.31635
2.31332
2.31008
2.31002
2.31226
2.32306
2.33764
2.35364
2.3669
2.37651
2.38237
2.38419
2.38353
2.3819
2.37901
2.37638
2.37449
2.37174
2.36757
2.36472
2.36202
2.35765
2.35319
2.34862
2.34401
1
1
1
1
1
1
1
1
1
1
1
1
1
1
1
1
1
1
1
1
1
1
1
1
1
1
1
1
1
1
1
1
1
1
1
1
1
1
1
1
1
1
1
1
1
1
1
1
1
1
1
1
1
1
1
1
1
1
1
1
1
1
1
1
1
1
1
1
1.00027
1.04706
1.60196
2.21381
2.30219
2.30105
2.307
2.32058
2.34077
2.35916
2.37255
2.38048
2.38498
2.38426
2.38287
2.38148
2.37932
2.37632
2.37444
2.37309
2.37059
2.367
2.36486
2.36244
2.35831
2.35452
2.35087
2.34684
1
1
1
1
1
1
1
1
1
1
1
1
1
1
1
1
1
1
1
1
1
1
1
1
1
1
1
1
1
1
1
1
1
1
1
1
1
1
1
1
1
1
1
1
1
1
1
1
1
1
1
1
1
1
1
1
1
1
1
1
1
1
1
1
1
1
1
1
1
1.00025
1.04323
1.56771
2.18115
2.29701
2.32456
2.34718
2.37004
2.38124
2.38887
2.38816
2.3856
2.38264
2.38046
2.37856
2.3757
2.37326
2.37259
2.37162
2.36895
2.36583
2.36442
2.36232
2.35816
2.35438
2.35131
2.34767
1
1
1
1
1
1
1
1
1
1
1
1
1
1
1
1
1
1
1
1
1
1
1
1
1
1
1
1
1
1
1
1
1
1
1
1
1
1
1
1
1
1
1
1
1
1
1
1
1
1
1
1
1
1
1
1
1
1
1
1
1
1
1
1
1
1
1
1
1
1
1.00022
1.03658
1.50743
2.20237
2.35851
2.3791
2.38821
2.3928
2.39186
2.38899
2.38494
2.38205
2.3802
2.37771
2.37405
2.37187
2.37137
2.36988
2.36617
2.36327
2.36256
2.36102
2.357
2.35334
2.35067
2.34742
1
1
1
1
1
1
1
1
1
1
1
1
1
1
1
1
1
1
1
1
1
1
1
1
1
1
1
1
1
1
1
1
1
1
1
1
1
1
1
1
1
1
1
1
1
1
1
1
1
1
1
1
1
1
1
1
1
1
1
1
1
1
1
1
1
1
1
1
1
1
1
1.00018
1.02666
1.71807
2.39863
2.43485
2.42667
2.41586
2.40528
2.39629
2.38939
2.38504
2.38214
2.37907
2.37576
2.37369
2.37263
2.37019
2.36562
2.36238
2.36132
2.35933
2.3547
2.35104
2.34905
2.34634
1
1
1
1
1
1
1
1
1
1
1
1
1
1
1
1
1
1
1
1
1
1
1
1
1
1
1
1
1
1
1
1
1
1
1
1
1
1
1
1
1
1
1
1
1
1
1
1
1
1
1
1
1
1
1
1
1
1
1
1
1
1
1
1
1
1
1
1
1
1
1
1
1.00009
1.06917
2.22512
2.52527
2.49031
2.46248
2.44168
2.42644
2.41452
2.4042
2.39606
2.38923
2.38342
2.37916
2.37585
2.37145
2.36689
2.36391
2.36245
2.35965
2.3545
2.35097
2.34894
2.34556
1
1
1
1
1
1
1
1
1
1
1
1
1
1
1
1
1
1
1
1
1
1
1
1
1
1
1
1
1
1
1
1
1
1
1
1
1
1
1
1
1
1
1
1
1
1
1
1
1
1
1
1
1
1
1
1
1
1
1
1
1
1
1
1
1
1
1
1
1
1
1
1
1
1.00033
1.64904
2.45533
2.52062
2.51184
2.49807
2.48043
2.46278
2.44642
2.43277
2.42046
2.40887
2.39896
2.39067
2.38287
2.37613
2.37096
2.36717
2.362
2.35644
2.35301
2.3504
2.3464
1
1
1
1
1
1
1
1
1
1
1
1
1
1
1
1
1
1
1
1
1
1
1
1
1
1
1
1
1
1
1
1
1
1
1
1
1
1
1
1
1
1
1
1
1
1
1
1
1
1
1
1
1
1
1
1
1
1
1
1
1
1
1
1
1
1
1
1
1
1
1
1
1
1
1.04491
2.20615
2.57155
2.56227
2.54871
2.53411
2.51843
2.5019
2.4848
2.46816
2.45204
2.43734
2.42452
2.41291
2.40179
2.39203
2.38385
2.37545
2.36788
2.36212
2.35684
2.35066
1
1
1
1
1
1
1
1
1
1
1
1
1
1
1
1
1
1
1
1
1
1
1
1
1
1
1
1
1
1
1
1
1
1
1
1
1
1
1
1
1
1
1
1
1
1
1
1
1
1
1
1
1
1
1
1
1
1
1
1
1
1
1
1
1
1
1
1
1
1
1
1
1
1
1.00013
1.60407
2.46092
2.57395
2.56879
2.56241
2.55405
2.5435
2.53072
2.51663
2.50163
2.48649
2.47119
2.45605
2.44195
2.429
2.41751
2.40647
2.39564
2.38586
2.37646
2.36752
1
1
1
1
1
1
1
1
1
1
1
1
1
1
1
1
1
1
1
1
1
1
1
1
1
1
1
1
1
1
1
1
1
1
1
1
1
1
1
1
1
1
1
1
1
1
1
1
1
1
1
1
1
1
1
1
1
1
1
1
1
1
1
1
1
1
1
1
1
1
1
1
1
1
1
1.04077
2.22748
2.59242
2.59093
2.58416
2.57761
2.56988
2.56147
2.55224
2.54188
2.53046
2.51793
2.5048
2.4913
2.47766
2.46385
2.44993
2.43658
2.42378
2.41175
2.40084
1
1
1
1
1
1
1
1
1
1
1
1
1
1
1
1
1
1
1
1
1
1
1
1
1
1
1
1
1
1
1
1
1
1
1
1
1
1
1
1
1
1
1
1
1
1
1
1
1
1
1
1
1
1
1
1
1
1
1
1
1
1
1
1
1
1
1
1
1
1
1
1
1
1
1
1.0001
1.70786
2.5072
2.59146
2.58779
2.58501
2.5812
2.57679
2.5717
2.56572
2.55882
2.55087
2.54189
2.53198
2.52093
2.50874
2.49583
2.4828
2.4697
2.45671
2.44385
1
1
1
1
1
1
1
1
1
1
1
1
1
1
1
1
1
1
1
1
1
1
1
1
1
1
1
1
1
1
1
1
1
1
1
1
1
1
1
1
1
1
1
1
1
1
1
1
1
1
1
1
1
1
1
1
1
1
1
1
1
1
1
1
1
1
1
1
1
1
1
1
1
1
1
1
1.06191
2.31618
2.60808
2.6012
2.595
2.59121
2.58788
2.58443
2.58059
2.57612
2.57088
2.56445
2.55719
2.54928
2.54062
2.53126
2.52126
2.51076
2.49972
2.48839
1
1
1
1
1
1
1
1
1
1
1
1
1
1
1
1
1
1
1
1
1
1
1
1
1
1
1
1
1
1
1
1
1
1
1
1
1
1
1
1
1
1
1
1
1
1
1
1
1
1
1
1
1
1
1
1
1
1
1
1
1
1
1
1
1
1
1
1
1
1
1
1
1
1
1
1
1.00024
1.95768
2.57736
2.59864
2.59649
2.59465
2.5922
2.58943
2.58621
2.58259
2.57851
2.57406
2.56909
2.56378
2.55817
2.5522
2.54569
2.53871
2.53104
2.52282
1
1
1
1
1
1
1
1
1
1
1
1
1
1
1
1
1
1
1
1
1
1
1
1
1
1
1
1
1
1
1
1
1
1
1
1
1
1
1
1
1
1
1
1
1
1
1
1
1
1
1
1
1
1
1
1
1
1
1
1
1
1
1
1
1
1
1
1
1
1
1
1
1
1
1
1
1
1.40038
2.44884
2.61339
2.60801
2.60502
2.60112
2.59703
2.59297
2.58914
2.5854
2.58179
2.57815
2.57443
2.57047
2.56625
2.56171
2.55678
2.55133
2.54523
1
1
1
1
1
1
1
1
1
1
1
1
1
1
1
1
1
1
1
1
1
1
1
1
1
1
1
1
1
1
1
1
1
1
1
1
1
1
1
1
1
1
1
1
1
1
1
1
1
1
1
1
1
1
1
1
1
1
1
1
1
1
1
1
1
1
1
1
1
1
1
1
1
1
1
1
1
1.01538
2.23945
2.63198
2.62797
2.61936
2.61268
2.60649
2.6011
2.5964
2.59211
2.58812
2.58428
2.58054
2.57678
2.57295
2.56906
2.56497
2.5607
2.55611
1
1
1
1
1
1
1
1
1
1
1
1
1
1
1
1
1
1
1
1
1
1
1
1
1
1
1
1
1
1
1
1
1
1
1
1
1
1
1
1
1
1
1
1
1
1
1
1
1
1
1
1
1
1
1
1
1
1
1
1
1
1
1
1
1
1
1
1
1
1
1
1
1
1
1
1
1
1.00001
1.87421
2.58952
2.62449
2.61945
2.61635
2.61263
2.60868
2.60444
2.60007
2.59572
2.59146
2.58733
2.5833
2.57933
2.57546
2.57154
2.56762
2.56363
1
1
1
1
1
1
1
1
1
1
1
1
1
1
1
1
1
1
1
1
1
1
1
1
1
1
1
1
1
1
1
1
1
1
1
1
1
1
1
1
1
1
1
1
1
1
1
1
1
1
1
1
1
1
1
1
1
1
1
1
1
1
1
1
1
1
1
1
1
1
1
1
1
1
1
1
1
1
1.38735
2.45687
2.63581
2.6299
2.62752
2.62416
2.62014
2.61556
2.61075
2.60592
2.60117
2.5965
2.59195
2.58751
2.58318
2.5789
2.57469
2.57051
1
1
1
1
1
1
1
1
1
1
1
1
1
1
1
1
1
1
1
1
1
1
1
1
1
1
1
1
1
1
1
1
1
1
1
1
1
1
1
1
1
1
1
1
1
1
1
1
1
1
1
1
1
1
1
1
1
1
1
1
1
1
1
1
1
1
1
1
1
1
1
1
1
1
1
1
1
1
1.01594
2.27446
2.64908
2.64655
2.63888
2.6337
2.62866
2.62383
2.61909
2.61444
2.60982
2.6052
2.60058
2.59598
2.59138
2.58681
2.58226
2.57777
1
1
1
1
1
1
1
1
1
1
1
1
1
1
1
1
1
1
1
1
1
1
1
1
1
1
1
1
1
1
1
1
1
1
1
1
1
1
1
1
1
1
1
1
1
1
1
1
1
1
1
1
1
1
1
1
1
1
1
1
1
1
1
1
1
1
1
1
1
1
1
1
1
1
1
1
1
1
1.00001
2.00122
2.62523
2.64287
2.63908
2.63632
2.63277
2.62918
2.62541
2.62147
2.6174
2.6132
2.60888
2.60447
2.59994
2.59537
2.59074
2.58612
1
1
1
1
1
1
1
1
1
1
1
1
1
1
1
1
1
1
1
1
1
1
1
1
1
1
1
1
1
1
1
1
1
1
1
1
1
1
1
1
1
1
1
1
1
1
1
1
1
1
1
1
1
1
1
1
1
1
1
1
1
1
1
1
1
1
1
1
1
1
1
1
1
1
1
1
1
1
1
1.63086
2.53755
2.64992
2.64434
2.64187
2.6388
2.63563
2.63219
2.62852
2.62468
2.62072
2.61662
2.61241
2.60805
2.60361
2.59908
2.59451
1
1
1
1
1
1
1
1
1
1
1
1
1
1
1
1
1
1
1
1
1
1
1
1
1
1
1
1
1
1
1
1
1
1
1
1
1
1
1
1
1
1
1
1
1
1
1
1
1
1
1
1
1
1
1
1
1
1
1
1
1
1
1
1
1
1
1
1
1
1
1
1
1
1
1
1
1
1
1
1.21164
2.39827
2.65005
2.64368
2.64145
2.63925
2.63672
2.63391
2.63092
2.62775
2.62438
2.62081
2.61709
2.61319
2.60918
2.60504
2.60082
1
1
1
1
1
1
1
1
1
1
1
1
1
1
1
1
1
1
1
1
1
1
1
1
1
1
1
1
1
1
1
1
1
1
1
1
1
1
1
1
1
1
1
1
1
1
1
1
1
1
1
1
1
1
1
1
1
1
1
1
1
1
1
1
1
1
1
1
1
1
1
1
1
1
1
1
1
1
1
1.00422
2.25451
2.65816
2.6554
2.64883
2.64482
2.64109
2.63765
2.63434
2.63103
2.62765
2.62421
2.62066
2.61701
2.61329
2.60947
2.60557
1
1
1
1
1
1
1
1
1
1
1
1
1
1
1
1
1
1
1
1
1
1
1
1
1
1
1
1
1
1
1
1
1
1
1
1
1
1
1
1
1
1
1
1
1
1
1
1
1
1
1
1
1
1
1
1
1
1
1
1
1
1
1
1
1
1
1
1
1
1
1
1
1
1
1
1
1
1
1
1
2.04543
2.64691
2.65951
2.65504
2.65146
2.64738
2.64347
2.63962
2.63586
2.63216
2.62851
2.62486
2.62117
2.61747
2.61372
2.60992
1
1
1
1
1
1
1
1
1
1
1
1
1
1
1
1
1
1
1
1
1
1
1
1
1
1
1
1
1
1
1
1
1
1
1
1
1
1
1
1
1
1
1
1
1
1
1
1
1
1
1
1
1
1
1
1
1
1
1
1
1
1
1
1
1
1
1
1
1
1
1
1
1
1
1
1
1
1
1
1
1.79094
2.59591
2.66299
2.65786
2.65478
2.65109
2.64749
2.64379
2.64006
2.63632
2.63261
2.62891
2.62518
2.62145
2.61772
2.61395
1
1
1
1
1
1
1
1
1
1
1
1
1
1
1
1
1
1
1
1
1
1
1
1
1
1
1
1
1
1
1
1
1
1
1
1
1
1
1
1
1
1
1
1
1
1
1
1
1
1
1
1
1
1
1
1
1
1
1
1
1
1
1
1
1
1
1
1
1
1
1
1
1
1
1
1
1
1
1
1
1.50557
2.51673
2.66235
2.65715
2.6553
2.65279
2.65003
2.64694
2.64362
2.64013
2.63659
2.63298
2.62933
2.62565
2.62195
2.61821
1
1
1
1
1
1
1
1
1
1
1
1
1
1
1
1
1
1
1
1
1
1
1
1
1
1
1
1
1
1
1
1
1
1
1
1
1
1
1
1
1
1
1
1
1
1
1
1
1
1
1
1
1
1
1
1
1
1
1
1
1
1
1
1
1
1
1
1
1
1
1
1
1
1
1
1
1
1
1
1
1.2122
2.40834
2.66564
2.65943
2.65662
2.65384
2.65097
2.64801
2.64493
2.64174
2.63854
2.63527
2.63191
2.62847
2.62496
2.6214
1
1
1
1
1
1
1
1
1
1
1
1
1
1
1
1
1
1
1
1
1
1
1
1
1
1
1
1
1
1
1
1
1
1
1
1
1
1
1
1
1
1
1
1
1
1
1
1
1
1
1
1
1
1
1
1
1
1
1
1
1
1
1
1
1
1
1
1
1
1
1
1
1
1
1
1
1
1
1
1
1.00525
2.30554
2.67334
2.66848
2.66291
2.65859
2.65475
2.65125
2.64791
2.64461
2.64138
2.63813
2.63483
2.63145
2.62802
2.62455
1
1
1
1
1
1
1
1
1
1
1
1
1
1
1
1
1
1
1
1
1
1
1
1
1
1
1
1
1
1
1
1
1
1
1
1
1
1
1
1
1
1
1
1
1
1
1
1
1
1
1
1
1
1
1
1
1
1
1
1
1
1
1
1
1
1
1
1
1
1
1
1
1
1
1
1
1
1
1
1
1
2.1819
2.66946
2.66942
2.66522
2.6622
2.6588
2.65546
2.65213
2.64879
2.64546
2.64209
2.63871
2.63525
2.63177
2.62827
1
1
1
1
1
1
1
1
1
1
1
1
1
1
1
1
1
1
1
1
1
1
1
1
1
1
1
1
1
1
1
1
1
1
1
1
1
1
1
1
1
1
1
1
1
1
1
1
1
1
1
1
1
1
1
1
1
1
1
1
1
1
1
1
1
1
1
1
1
1
1
1
1
1
1
1
1
1
1
1
1
2.03802
2.65257
2.67215
2.66792
2.66541
2.66228
2.65916
2.65594
2.65267
2.64932
2.64593
2.64253
2.63903
2.63551
2.63197
1
1
1
1
1
1
1
1
1
1
1
1
1
1
1
1
1
1
1
1
1
1
1
1
1
1
1
1
1
1
1
1
1
1
1
1
1
1
1
1
1
1
1
1
1
1
1
1
1
1
1
1
1
1
1
1
1
1
1
1
1
1
1
1
1
1
1
1
1
1
1
1
1
1
1
1
1
1
1
1
1
1.88843
2.6246
2.67428
2.6694
2.66707
2.66415
2.66125
2.65819
2.65507
2.65183
2.64852
2.64517
2.64173
2.63825
2.63472
1
1
1
1
1
1
1
1
1
1
1
1
1
1
1
1
1
1
1
1
1
1
1
1
1
1
1
1
1
1
1
1
1
1
1
1
1
1
1
1
1
1
1
1
1
1
1
1
1
1
1
1
1
1
1
1
1
1
1
1
1
1
1
1
1
1
1
1
1
1
1
1
1
1
1
1
1
1
1
1
1
1.73939
2.59612
2.67499
2.66926
2.66679
2.66386
2.66099
2.65798
2.65493
2.65174
2.64851
2.6452
2.64185
2.63843
2.63495
1
1
1
1
1
1
1
1
1
1
1
1
1
1
1
1
1
1
1
1
1
1
1
1
1
1
1
1
1
1
1
1
1
1
1
1
1
1
1
1
1
1
1
1
1
1
1
1
1
1
1
1
1
1
1
1
1
1
1
1
1
1
1
1
1
1
1
1
1
1
1
1
1
1
1
1
1
1
1
1
1
1.59547
2.56516
2.67574
2.66966
2.66709
2.66413
2.66127
2.65831
2.65534
2.65224
2.64911
2.64589
2.64266
2.63931
2.63589
1
1
1
1
1
1
1
1
1
1
1
1
1
1
1
1
1
1
1
1
1
1
1
1
1
1
1
1
1
1
1
1
1
1
1
1
1
1
1
1
1
1
1
1
1
1
1
1
1
1
1
1
1
1
1
1
1
1
1
1
1
1
1
1
1
1
1
1
1
1
1
1
1
1
1
1
1
1
1
1
1
1.46915
2.53012
2.6778
2.6715
2.66873
2.66565
2.66268
2.65965
2.65663
2.6535
2.65035
2.64708
2.64384
2.64046
2.63701
1
1
1
1
1
1
1
1
1
1
1
1
1
1
1
1
1
1
1
1
1
1
1
1
1
1
1
1
1
1
1
1
1
1
1
1
1
1
1
1
1
1
1
1
1
1
1
1
1
1
1
1
1
1
1
1
1
1
1
1
1
1
1
1
1
1
1
1
1
1
1
1
1
1
1
1
1
1
1
1
1
1.36968
2.49578
2.67956
2.67366
2.67083
2.66773
2.66471
2.66161
2.6585
2.65531
2.65206
2.64869
2.64536
2.64191
2.63845
1
1
1
1
1
1
1
1
1
1
1
1
1
1
1
1
1
1
1
1
1
1
1
1
1
1
1
1
1
1
1
1
1
1
1
1
1
1
1
1
1
1
1
1
1
1
1
1
1
1
1
1
1
1
1
1
1
1
1
1
1
1
1
1
1
1
1
1
1
1
1
1
1
1
1
1
1
1
1
1
1
1.29294
2.46274
2.67986
2.67477
2.67197
2.66895
2.66596
2.66287
2.65973
2.65653
2.65326
2.64989
2.64652
2.64311
2.63972
1
1
1
1
1
1
1
1
1
1
1
1
1
1
1
1
1
1
1
1
1
1
1
1
1
1
1
1
1
1
1
1
1
1
1
1
1
1
1
1
1
1
1
1
1
1
1
1
1
1
1
1
1
1
1
1
1
1
1
1
1
1
1
1
1
1
1
1
1
1
1
1
1
1
1
1
1
1
1
1
1
1.23446
2.43279
2.67926
2.675
2.67222
2.66927
2.66629
2.66322
2.66008
2.65693
2.65373
2.65049
2.64725
2.64403
2.64081
1
1
1
1
1
1
1
1
1
1
1
1
1
1
1
1
1
1
1
1
1
1
1
1
1
1
1
1
1
1
1
1
1
1
1
1
1
1
1
1
1
1
1
1
1
1
1
1
1
1
1
1
1
1
1
1
1
1
1
1
1
1
1
1
1
1
1
1
1
1
1
1
1
1
1
1
1
1
1
1
1
1.19227
2.40847
2.67833
2.67475
2.67192
2.669
2.66601
2.66292
2.65979
2.65671
2.65368
2.65066
2.64766
2.64469
2.64166
1
1
1
1
1
1
1
1
1
1
1
1
1
1
1
1
1
1