/*--------------------------------*- C++ -*----------------------------------*\
  =========                 |
  \\      /  F ield         | OpenFOAM: The Open Source CFD Toolbox
   \\    /   O peration     | Website:  https://openfoam.org
    \\  /    A nd           | Version:  7
     \\/     M anipulation  |
\*---------------------------------------------------------------------------*/
FoamFile
{
    version     2.0;
    format      ascii;
    class       volVectorField;
    location    "9.5";
    object      U;
}
// * * * * * * * * * * * * * * * * * * * * * * * * * * * * * * * * * * * * * //

dimensions      [0 1 -1 0 0 0 0];

internalField   nonuniform List<vector> 
19968
(
(3 8.42802e-17 0)
(3 -1.70445e-16 0)
(3 -3.62766e-16 0)
(3 -3.64666e-16 0)
(3 -2.45851e-16 0)
(3 -1.25089e-16 0)
(3 6.05472e-16 0)
(3 9.61414e-16 0)
(3 7.48444e-16 0)
(3 4.10987e-16 0)
(3 4.33537e-16 0)
(3 4.78839e-16 0)
(3 4.31333e-16 0)
(3 6.60415e-16 0)
(3 5.59329e-16 0)
(3 5.11879e-16 0)
(3 6.22932e-16 0)
(3 -4.14821e-17 0)
(3 -3.59418e-16 0)
(3 -7.29816e-16 0)
(3 -1.08207e-15 0)
(3 -5.50949e-16 0)
(3 2.3903e-16 0)
(3 1.04789e-15 0)
(3 1.58194e-15 0)
(3 9.54422e-16 0)
(3 4.93479e-16 0)
(3 3.45043e-16 0)
(3 2.85814e-16 0)
(3 -1.58363e-16 0)
(3 -2.2464e-16 0)
(3 -1.20632e-16 0)
(3 -1.09024e-17 0)
(3 -2.88526e-18 0)
(3 -4.71884e-16 0)
(3 -7.79132e-16 0)
(3 -1.06665e-15 0)
(3 -1.01503e-15 0)
(3 -3.91065e-16 0)
(3 4.94941e-16 0)
(3 8.5985e-16 0)
(3 4.59632e-16 0)
(3 -1.13594e-15 0)
(3 -1.36556e-15 0)
(3 -1.19613e-15 0)
(3 -5.07964e-16 0)
(3 -3.05104e-16 0)
(3 -3.50264e-16 0)
(2.79535 0.00226363 0)
(0.966238 0.00702391 0)
(0.759248 0.00439748 0)
(0.747214 0.00833477 0)
(0.729553 0.00907883 0)
(0.713337 0.00980778 0)
(0.696317 0.00990789 0)
(0.679906 0.00915126 0)
(0.664852 0.00813607 0)
(0.651011 0.00774278 0)
(0.637447 0.00823168 0)
(0.62309 0.00929681 0)
(0.607518 0.0100545 0)
(0.591605 0.00972003 0)
(0.576264 0.00909869 0)
(0.561122 0.00919272 0)
(0.54565 0.00958661 0)
(0.530153 0.00967545 0)
(0.515012 0.00962002 0)
(0.499918 0.00976517 0)
(0.484355 0.0100167 0)
(0.468197 0.0101491 0)
(0.451732 0.0101567 0)
(0.435346 0.0101923 0)
(0.419269 0.0103245 0)
(0.403523 0.0104881 0)
(0.387958 0.0106188 0)
(0.372305 0.0107198 0)
(0.356273 0.0108111 0)
(0.339698 0.0109024 0)
(0.322705 0.011001 0)
(0.30566 0.0111092 0)
(0.288878 0.011228 0)
(0.272393 0.0113601 0)
(0.255967 0.0115054 0)
(0.239278 0.0116589 0)
(0.2221 0.0118147 0)
(0.204401 0.0119697 0)
(0.186342 0.012126 0)
(0.168121 0.0122943 0)
(0.149795 0.0124898 0)
(0.131244 0.0127234 0)
(0.112296 0.013009 0)
(0.092858 0.0133465 0)
(0.0729044 0.0137446 0)
(0.0524602 0.0142018 0)
(0.0316661 0.0145245 0)
(0.0108736 0.0149917 0)
(3 2.36396e-16 0)
(3 5.13904e-16 0)
(3 3.26614e-16 0)
(3 4.57665e-16 0)
(3 8.81007e-16 0)
(3 7.20625e-16 0)
(3 9.28265e-16 0)
(3 1.36036e-15 0)
(3 1.31682e-15 0)
(3 9.5834e-16 0)
(3 7.92426e-16 0)
(3 3.92281e-16 0)
(3 -1.62292e-17 0)
(3 -2.22918e-16 0)
(3 2.81547e-16 0)
(3 6.05337e-16 0)
(3 3.75817e-16 0)
(3 -8.65763e-16 0)
(3 -1.53578e-15 0)
(3 -2.11232e-15 0)
(3 -2.11889e-15 0)
(3 -1.28589e-15 0)
(3 -3.67133e-16 0)
(3 5.18517e-16 0)
(3 9.6577e-16 0)
(3 3.90939e-16 0)
(3 6.39679e-16 0)
(3 8.78611e-16 0)
(3 6.73484e-16 0)
(3 1.96141e-16 0)
(3 -1.03372e-15 0)
(3 -1.62172e-15 0)
(3 -1.49644e-15 0)
(3 -1.27972e-15 0)
(3 -6.61297e-16 0)
(3 -9.70563e-16 0)
(3 -9.12366e-16 0)
(3 -7.77109e-16 0)
(3 -1.07294e-15 0)
(3 -6.66559e-16 0)
(3 -9.89013e-17 0)
(3 -2.45772e-16 0)
(3 -5.35608e-16 0)
(3 -7.07558e-16 0)
(3 -1.16149e-15 0)
(3 -1.65718e-15 0)
(3 -1.20266e-15 0)
(3 -1.27629e-15 0)
(2.81002 0.0125836 0)
(0.971442 0.0306891 0)
(0.755691 0.0212147 0)
(0.740761 0.0234361 0)
(0.724557 0.0259361 0)
(0.709029 0.0280967 0)
(0.692898 0.0288418 0)
(0.677098 0.0274906 0)
(0.662096 0.0251716 0)
(0.647778 0.0240203 0)
(0.633741 0.0251789 0)
(0.61932 0.0280108 0)
(0.603922 0.0300203 0)
(0.588334 0.0292445 0)
(0.573096 0.02777 0)
(0.557832 0.0280989 0)
(0.54228 0.0292374 0)
(0.526702 0.0294771 0)
(0.511474 0.0292946 0)
(0.496299 0.029682 0)
(0.480703 0.0303895 0)
(0.464544 0.0307956 0)
(0.448073 0.0308953 0)
(0.431647 0.0310714 0)
(0.415514 0.0314822 0)
(0.399721 0.031953 0)
(0.384115 0.032325 0)
(0.368415 0.0326145 0)
(0.352332 0.032872 0)
(0.335717 0.0331305 0)
(0.318708 0.0334289 0)
(0.301657 0.0337804 0)
(0.28486 0.034174 0)
(0.268341 0.0345955 0)
(0.251873 0.0350339 0)
(0.235153 0.0354808 0)
(0.217971 0.0359368 0)
(0.200305 0.0364093 0)
(0.182314 0.0369081 0)
(0.164196 0.0374507 0)
(0.146021 0.0380633 0)
(0.127695 0.0387664 0)
(0.109069 0.0396019 0)
(0.0900497 0.0405846 0)
(0.0706091 0.0417484 0)
(0.0507609 0.0431063 0)
(0.0305972 0.0440632 0)
(0.0104831 0.0454012 0)
(3 -1.71981e-16 0)
(3 1.09043e-16 0)
(3 8.38921e-17 0)
(3 3.4555e-16 0)
(3 2.65305e-16 0)
(3 -2.36959e-16 0)
(3 -6.9411e-16 0)
(3 -1.99871e-16 0)
(3 3.70005e-16 0)
(3 -3.15376e-16 0)
(3 -9.3113e-16 0)
(3 -1.03248e-15 0)
(3 -6.64876e-16 0)
(3 -4.32795e-16 0)
(3 1.67871e-16 0)
(3 5.19029e-16 0)
(3 3.9377e-16 0)
(3 -3.10193e-18 0)
(3 -5.44776e-16 0)
(3 -3.20344e-16 0)
(3 9.00359e-17 0)
(3 5.98172e-17 0)
(3 1.38271e-16 0)
(3 9.91938e-17 0)
(3 -8.06961e-17 0)
(3 -4.69457e-16 0)
(3 -1.26355e-15 0)
(3 -1.32639e-15 0)
(3 -8.27641e-16 0)
(3 -1.00741e-15 0)
(3 -2.28214e-15 0)
(3 -2.76324e-15 0)
(3 -2.44981e-15 0)
(3 -2.14428e-15 0)
(3 -2.12099e-15 0)
(3 -2.32971e-15 0)
(3 -1.74135e-15 0)
(3 -1.56984e-15 0)
(3 -2.42346e-15 0)
(3 -2.68499e-15 0)
(3 -1.92548e-15 0)
(3 -1.11601e-15 0)
(3 -4.80022e-16 0)
(3 -4.8847e-16 0)
(3 -7.31844e-16 0)
(3 -5.63716e-16 0)
(3 1.47961e-16 0)
(3 -3.28395e-16 0)
(2.84489 0.0204262 0)
(0.987568 0.0512248 0)
(0.760241 0.0388852 0)
(0.744351 0.041633 0)
(0.727541 0.0448325 0)
(0.711776 0.0476312 0)
(0.695857 0.0484659 0)
(0.680222 0.046711 0)
(0.664959 0.0437316 0)
(0.649841 0.0422124 0)
(0.634953 0.0439306 0)
(0.620184 0.0480781 0)
(0.604694 0.0508798 0)
(0.58924 0.0496401 0)
(0.57398 0.047593 0)
(0.558528 0.0483026 0)
(0.54284 0.0501978 0)
(0.52706 0.0506303 0)
(0.51159 0.0503558 0)
(0.496167 0.050955 0)
(0.480395 0.0520458 0)
(0.464116 0.05269 0)
(0.447535 0.0529163 0)
(0.430964 0.0532827 0)
(0.414657 0.0539758 0)
(0.398678 0.0547233 0)
(0.382881 0.0553169 0)
(0.366992 0.055807 0)
(0.350734 0.0562658 0)
(0.333985 0.0567299 0)
(0.316888 0.0572532 0)
(0.299765 0.0578506 0)
(0.282881 0.0584981 0)
(0.266256 0.0591729 0)
(0.249686 0.0598627 0)
(0.232895 0.0605603 0)
(0.215691 0.0612738 0)
(0.198045 0.0620212 0)
(0.180094 0.0628218 0)
(0.162021 0.0637003 0)
(0.143904 0.064695 0)
(0.125687 0.0658304 0)
(0.107254 0.0671618 0)
(0.0885108 0.0687001 0)
(0.069409 0.0704803 0)
(0.0499374 0.0725556 0)
(0.030108 0.0739637 0)
(0.0103108 0.0759706 0)
(3 -1.36343e-16 0)
(3 -5.45955e-16 0)
(3 -4.28241e-17 0)
(3 -5.77068e-18 0)
(3 -3.66506e-17 0)
(3 7.81928e-17 0)
(3 3.24113e-16 0)
(3 6.84783e-18 0)
(3 -1.92014e-16 0)
(3 -6.20979e-16 0)
(3 -9.75469e-16 0)
(3 -6.8368e-16 0)
(3 -1.48125e-16 0)
(3 7.64813e-16 0)
(3 7.78404e-16 0)
(3 2.5702e-17 0)
(3 -1.51966e-16 0)
(3 1.04076e-16 0)
(3 3.81197e-17 0)
(3 3.30214e-16 0)
(3 4.43942e-16 0)
(3 3.99779e-16 0)
(3 -6.20709e-17 0)
(3 -3.59265e-16 0)
(3 -9.72168e-16 0)
(3 -1.77508e-15 0)
(3 -1.94963e-15 0)
(3 -1.63722e-15 0)
(3 -1.72887e-15 0)
(3 -1.51829e-15 0)
(3 -1.48423e-15 0)
(3 -1.5986e-15 0)
(3 -1.34025e-15 0)
(3 -1.20912e-15 0)
(3 -1.65788e-15 0)
(3 -2.99998e-15 0)
(3 -3.37136e-15 0)
(3 -3.0905e-15 0)
(3 -3.04998e-15 0)
(3 -3.16974e-15 0)
(3 -3.13475e-15 0)
(3 -3.05279e-15 0)
(3 -2.62945e-15 0)
(3 -1.94053e-15 0)
(3 -7.10184e-16 0)
(3 1.13899e-15 0)
(3 1.9168e-15 0)
(3 1.65174e-15 0)
(2.89072 0.0241217 0)
(1.01014 0.0693914 0)
(0.761718 0.056886 0)
(0.745729 0.0608838 0)
(0.72947 0.0644836 0)
(0.714032 0.0673394 0)
(0.69865 0.0681366 0)
(0.683392 0.0664759 0)
(0.668107 0.0636387 0)
(0.652521 0.062164 0)
(0.637029 0.0642605 0)
(0.622059 0.0691604 0)
(0.606607 0.0723102 0)
(0.591354 0.0707008 0)
(0.576152 0.0683487 0)
(0.560728 0.0694866 0)
(0.545189 0.0721324 0)
(0.529458 0.0728713 0)
(0.51394 0.0726326 0)
(0.498406 0.0734695 0)
(0.482553 0.0749018 0)
(0.466217 0.0757778 0)
(0.449557 0.0762039 0)
(0.432827 0.0768521 0)
(0.416276 0.0778745 0)
(0.399982 0.0789173 0)
(0.383819 0.0797619 0)
(0.36753 0.080499 0)
(0.350863 0.0812023 0)
(0.333728 0.081893 0)
(0.316274 0.0826361 0)
(0.298793 0.0834533 0)
(0.28152 0.0843099 0)
(0.264484 0.0851742 0)
(0.247519 0.0860338 0)
(0.230396 0.0868877 0)
(0.212956 0.0877606 0)
(0.195187 0.0886954 0)
(0.17722 0.0897349 0)
(0.159234 0.0909208 0)
(0.141323 0.0923069 0)
(0.123442 0.0939138 0)
(0.105465 0.0957876 0)
(0.0872387 0.097919 0)
(0.068636 0.10031 0)
(0.049586 0.103074 0)
(0.0299879 0.104896 0)
(0.0103031 0.107496 0)
(3 2.19555e-16 0)
(3 2.01089e-16 0)
(3 4.04413e-16 0)
(3 1.28229e-16 0)
(3 -8.46374e-17 0)
(3 1.65331e-16 0)
(3 5.5325e-16 0)
(3 4.53453e-16 0)
(3 8.74001e-17 0)
(3 3.27039e-16 0)
(3 -7.39152e-17 0)
(3 -1.69598e-16 0)
(3 -2.87976e-16 0)
(3 -3.92479e-16 0)
(3 -5.26901e-16 0)
(3 -5.83788e-16 0)
(3 -3.50911e-16 0)
(3 2.32138e-16 0)
(3 -1.81506e-18 0)
(3 3.4879e-17 0)
(3 -7.97289e-16 0)
(3 -6.81804e-16 0)
(3 -4.41089e-16 0)
(3 -3.84705e-16 0)
(3 -4.03938e-16 0)
(3 -5.10058e-16 0)
(3 8.93614e-17 0)
(3 1.42067e-16 0)
(3 3.8222e-16 0)
(3 -3.6358e-16 0)
(3 -1.05209e-15 0)
(3 -1.2647e-15 0)
(3 -1.62022e-15 0)
(3 -1.81744e-15 0)
(3 -1.87338e-15 0)
(3 -2.06578e-15 0)
(3 -2.82155e-15 0)
(3 -3.14195e-15 0)
(3 -3.15386e-15 0)
(3 -2.67963e-15 0)
(3 -2.10778e-15 0)
(3 -1.8668e-15 0)
(3 -1.67463e-15 0)
(3 -1.09581e-15 0)
(3 -4.78202e-16 0)
(3 4.21076e-17 0)
(3 -5.00729e-16 0)
(3 -3.56313e-16 0)
(2.94037 0.0329994 0)
(1.03748 0.0937832 0)
(0.763666 0.0767328 0)
(0.74772 0.0815418 0)
(0.732047 0.0848887 0)
(0.717164 0.0871958 0)
(0.702697 0.0876865 0)
(0.688391 0.0862442 0)
(0.673779 0.0840872 0)
(0.658468 0.0832551 0)
(0.642949 0.0858325 0)
(0.627975 0.0910836 0)
(0.612611 0.0943084 0)
(0.597468 0.0925044 0)
(0.582269 0.0899966 0)
(0.566932 0.0914605 0)
(0.551709 0.0947613 0)
(0.536232 0.0959347 0)
(0.520841 0.0959496 0)
(0.505332 0.0971551 0)
(0.489484 0.0989723 0)
(0.473151 0.100138 0)
(0.456471 0.100901 0)
(0.439629 0.102005 0)
(0.42284 0.103499 0)
(0.406194 0.104951 0)
(0.389603 0.106172 0)
(0.372839 0.107305 0)
(0.355676 0.108402 0)
(0.33804 0.109446 0)
(0.320075 0.110506 0)
(0.302031 0.111613 0)
(0.284109 0.11272 0)
(0.266338 0.113777 0)
(0.248589 0.114764 0)
(0.230677 0.115678 0)
(0.212478 0.116557 0)
(0.194011 0.117475 0)
(0.175429 0.118512 0)
(0.15695 0.119746 0)
(0.138724 0.121273 0)
(0.120749 0.123137 0)
(0.102917 0.125387 0)
(0.0850462 0.128011 0)
(0.066937 0.130949 0)
(0.0484607 0.134377 0)
(0.0293495 0.136597 0)
(0.0100905 0.13974 0)
(3 1.0248e-16 0)
(3 3.77807e-16 0)
(3 8.8101e-17 0)
(3 -6.6525e-17 0)
(3 -2.26344e-16 0)
(3 -1.03684e-16 0)
(3 1.95442e-16 0)
(3 4.50552e-16 0)
(3 4.19682e-16 0)
(3 6.33795e-16 0)
(3 6.1103e-16 0)
(3 2.89862e-16 0)
(3 -4.78609e-16 0)
(3 -1.30659e-15 0)
(3 -1.51529e-15 0)
(3 -1.188e-15 0)
(3 -9.03253e-16 0)
(3 -3.06521e-16 0)
(3 3.64652e-18 0)
(3 6.19939e-17 0)
(3 -4.62168e-16 0)
(3 -4.13827e-16 0)
(3 2.76109e-16 0)
(3 8.87538e-16 0)
(3 1.28077e-15 0)
(3 2.41526e-15 0)
(3 2.56445e-15 0)
(3 2.06681e-15 0)
(3 1.70308e-15 0)
(3 1.4715e-16 0)
(3 -6.50122e-16 0)
(3 -1.19129e-15 0)
(3 -1.67439e-15 0)
(3 -1.83935e-15 0)
(3 -1.62707e-15 0)
(3 -1.6512e-15 0)
(3 -2.47297e-15 0)
(3 -2.72649e-15 0)
(3 -1.59422e-15 0)
(3 -1.34589e-15 0)
(3 -1.54635e-15 0)
(3 -1.50645e-15 0)
(3 -1.60525e-15 0)
(3 -1.30867e-15 0)
(3 -7.87128e-16 0)
(3 -8.86621e-16 0)
(3 -2.5027e-15 0)
(3 -2.53584e-15 0)
(2.99635 0.00222205 0)
(1.10356 0.113094 0)
(0.775322 0.0918898 0)
(0.759151 0.10193 0)
(0.742682 0.104846 0)
(0.727171 0.10617 0)
(0.712545 0.106009 0)
(0.698451 0.104814 0)
(0.684228 0.103767 0)
(0.669311 0.104154 0)
(0.654024 0.107468 0)
(0.639116 0.112922 0)
(0.62382 0.116184 0)
(0.608671 0.114419 0)
(0.593451 0.111754 0)
(0.578212 0.113184 0)
(0.563388 0.116806 0)
(0.548316 0.118428 0)
(0.533193 0.118922 0)
(0.517847 0.120683 0)
(0.502104 0.122965 0)
(0.485887 0.124429 0)
(0.469356 0.125577 0)
(0.452634 0.127256 0)
(0.435866 0.129342 0)
(0.419125 0.131304 0)
(0.402361 0.133021 0)
(0.385385 0.134713 0)
(0.367982 0.136401 0)
(0.350085 0.137995 0)
(0.331822 0.139555 0)
(0.313406 0.141133 0)
(0.294997 0.142687 0)
(0.276612 0.144155 0)
(0.258133 0.145496 0)
(0.239394 0.146687 0)
(0.220294 0.14776 0)
(0.200864 0.1488 0)
(0.181283 0.149909 0)
(0.161804 0.151192 0)
(0.142631 0.152777 0)
(0.123814 0.154732 0)
(0.105281 0.157112 0)
(0.0868561 0.159955 0)
(0.0683118 0.163166 0)
(0.0494842 0.167041 0)
(0.0299647 0.169498 0)
(0.0102994 0.173056 0)
(3 -2.30945e-17 0)
(3 7.84046e-18 0)
(3 3.2984e-16 0)
(3 4.99376e-16 0)
(3 7.40029e-16 0)
(3 7.28785e-16 0)
(3 6.36351e-16 0)
(3 6.22282e-17 0)
(3 -2.50104e-16 0)
(3 -5.60573e-16 0)
(3 6.05428e-17 0)
(3 6.78007e-17 0)
(3 -1.57153e-16 0)
(3 -1.02162e-15 0)
(3 -7.56706e-16 0)
(3 -8.31331e-16 0)
(3 -7.93623e-16 0)
(3 -7.75083e-16 0)
(3 -2.50843e-16 0)
(3 -3.81677e-16 0)
(3 -5.36144e-16 0)
(3 -9.02832e-16 0)
(3 -9.94291e-16 0)
(3 -3.37261e-16 0)
(3 7.58532e-16 0)
(3 1.53687e-15 0)
(3 2.44998e-15 0)
(3 1.61922e-15 0)
(3 4.41942e-16 0)
(3 6.2722e-17 0)
(3 -2.97315e-17 0)
(3 9.55987e-17 0)
(3 -1.53223e-16 0)
(3 -6.20315e-16 0)
(3 -1.11082e-15 0)
(3 -1.10708e-15 0)
(3 -1.26195e-16 0)
(3 3.613e-17 0)
(3 -5.34158e-16 0)
(3 -1.47211e-15 0)
(3 -1.94965e-15 0)
(3 -2.21699e-15 0)
(3 -1.60044e-15 0)
(3 -9.74039e-16 0)
(3 -7.70033e-16 0)
(3 -1.08176e-15 0)
(3 -2.17984e-15 0)
(3 -3.0276e-15 0)
(3.00003 6.08504e-05 0)
(1.21578 0.13365 0)
(0.777238 0.110593 0)
(0.756967 0.126539 0)
(0.73976 0.129051 0)
(0.723626 0.128869 0)
(0.708535 0.127451 0)
(0.694077 0.125868 0)
(0.679699 0.125539 0)
(0.66492 0.127188 0)
(0.649947 0.131338 0)
(0.635426 0.136991 0)
(0.620657 0.140399 0)
(0.605915 0.138932 0)
(0.591048 0.136167 0)
(0.576141 0.137294 0)
(0.561894 0.141014 0)
(0.547486 0.143191 0)
(0.532922 0.144456 0)
(0.51807 0.147018 0)
(0.502736 0.149878 0)
(0.486901 0.151631 0)
(0.470803 0.15315 0)
(0.45455 0.155444 0)
(0.438218 0.158188 0)
(0.421845 0.160686 0)
(0.405408 0.162905 0)
(0.388749 0.165178 0)
(0.371664 0.167499 0)
(0.354088 0.169684 0)
(0.336147 0.171767 0)
(0.318028 0.173831 0)
(0.29984 0.175848 0)
(0.281558 0.177743 0)
(0.263046 0.179456 0)
(0.244143 0.180945 0)
(0.224764 0.182231 0)
(0.204959 0.183403 0)
(0.184931 0.184579 0)
(0.164959 0.185877 0)
(0.145272 0.187444 0)
(0.12595 0.189374 0)
(0.106946 0.191713 0)
(0.0881226 0.194607 0)
(0.0692382 0.197886 0)
(0.0501438 0.202072 0)
(0.0303344 0.204666 0)
(0.0104353 0.208571 0)
(3 -2.1095e-18 0)
(3 -2.41662e-16 0)
(3 -3.4159e-16 0)
(3 -3.12338e-16 0)
(3 2.68992e-17 0)
(3 8.00746e-17 0)
(3 -1.3659e-16 0)
(3 -3.97309e-16 0)
(3 -6.55968e-16 0)
(3 -1.00142e-15 0)
(3 -9.12059e-16 0)
(3 -7.7268e-16 0)
(3 -2.13961e-16 0)
(3 2.34334e-16 0)
(3 5.14891e-16 0)
(3 8.95173e-16 0)
(3 1.23608e-15 0)
(3 9.78269e-16 0)
(3 1.00699e-15 0)
(3 5.95371e-16 0)
(3 4.42802e-16 0)
(3 6.31902e-17 0)
(3 3.29741e-16 0)
(3 5.41197e-16 0)
(3 1.03399e-15 0)
(3 5.34146e-16 0)
(3 -1.93566e-16 0)
(3 -5.1646e-16 0)
(3 -4.49256e-16 0)
(3 -3.37004e-16 0)
(3 3.2673e-16 0)
(3 7.77283e-16 0)
(3 4.61626e-16 0)
(3 3.01057e-17 0)
(3 -2.28547e-16 0)
(3 -2.53989e-16 0)
(3 -5.31427e-17 0)
(3 -6.22395e-16 0)
(3 -9.25462e-16 0)
(3 -8.00054e-16 0)
(3 -2.77477e-16 0)
(3 -8.27529e-16 0)
(3 -8.28514e-16 0)
(3 -8.08857e-16 0)
(3 -1.55886e-15 0)
(3 -1.87566e-15 0)
(3 5.35484e-16 0)
(3 1.11067e-15 0)
(3 1.09073e-07 0)
(1.41537 0.164339 0)
(0.790481 0.135727 0)
(0.758148 0.153032 0)
(0.740665 0.153738 0)
(0.723968 0.152148 0)
(0.708284 0.149645 0)
(0.693146 0.147521 0)
(0.678366 0.147452 0)
(0.663727 0.149909 0)
(0.649282 0.154441 0)
(0.635472 0.159907 0)
(0.621574 0.163423 0)
(0.607339 0.162749 0)
(0.592758 0.160205 0)
(0.577988 0.160804 0)
(0.564044 0.164175 0)
(0.550243 0.166715 0)
(0.536357 0.168867 0)
(0.522279 0.172406 0)
(0.50767 0.175941 0)
(0.492523 0.177878 0)
(0.477154 0.179587 0)
(0.461661 0.182436 0)
(0.446034 0.185925 0)
(0.430237 0.189086 0)
(0.414282 0.1919 0)
(0.398049 0.19486 0)
(0.381333 0.197989 0)
(0.364048 0.201007 0)
(0.34633 0.203892 0)
(0.328366 0.206748 0)
(0.310238 0.209562 0)
(0.291875 0.212248 0)
(0.273111 0.214722 0)
(0.253782 0.216914 0)
(0.23382 0.218816 0)
(0.213311 0.220492 0)
(0.19249 0.222041 0)
(0.171669 0.223571 0)
(0.151102 0.225226 0)
(0.130881 0.227141 0)
(0.110964 0.229334 0)
(0.091279 0.232153 0)
(0.0715633 0.235273 0)
(0.0517445 0.239627 0)
(0.0312479 0.242303 0)
(0.0107384 0.246497 0)
(3 2.71646e-17 0)
(3 1.61123e-17 0)
(3 -1.92375e-16 0)
(3 5.19913e-17 0)
(3 3.66387e-16 0)
(3 3.8651e-16 0)
(3 2.67296e-16 0)
(3 1.91299e-16 0)
(3 -1.09462e-17 0)
(3 -1.95466e-16 0)
(3 -2.04791e-16 0)
(3 -7.70673e-17 0)
(3 -3.63854e-16 0)
(3 -2.44288e-16 0)
(3 -1.40977e-16 0)
(3 3.5755e-16 0)
(3 3.5443e-16 0)
(3 5.7838e-16 0)
(3 3.29659e-16 0)
(3 2.90032e-16 0)
(3 6.97979e-16 0)
(3 2.20364e-15 0)
(3 2.67205e-15 0)
(3 2.45783e-15 0)
(3 1.48715e-15 0)
(3 6.847e-17 0)
(3 -1.58946e-15 0)
(3 -1.46766e-15 0)
(3 -1.10399e-15 0)
(3 -1.46098e-16 0)
(3 1.89866e-16 0)
(3 4.68959e-17 0)
(3 7.38901e-17 0)
(3 3.20504e-16 0)
(3 8.45809e-16 0)
(3 5.52264e-16 0)
(3 5.43381e-17 0)
(3 -1.20232e-16 0)
(3 -5.89283e-16 0)
(3 -4.72177e-16 0)
(3 -1.86074e-16 0)
(3 4.98329e-17 0)
(3 -2.77444e-16 0)
(3 -7.61047e-16 0)
(3 -1.14748e-15 0)
(3 -1.56634e-15 0)
(3 -4.01026e-16 0)
(3 -8.89279e-16 0)
(3 2.56348e-10 0)
(1.72871 0.185831 0)
(0.818113 0.164202 0)
(0.764871 0.181927 0)
(0.747277 0.179943 0)
(0.729522 0.177638 0)
(0.712524 0.174677 0)
(0.695843 0.172242 0)
(0.679724 0.171879 0)
(0.664323 0.174117 0)
(0.649698 0.178077 0)
(0.636036 0.182875 0)
(0.622605 0.186789 0)
(0.608449 0.187692 0)
(0.593616 0.186113 0)
(0.578463 0.186173 0)
(0.564106 0.188605 0)
(0.550319 0.191006 0)
(0.536684 0.193878 0)
(0.523088 0.198439 0)
(0.508975 0.202764 0)
(0.494311 0.204848 0)
(0.479553 0.206568 0)
(0.46486 0.20992 0)
(0.450153 0.214327 0)
(0.435206 0.21839 0)
(0.420038 0.221946 0)
(0.404604 0.225683 0)
(0.388708 0.229748 0)
(0.372214 0.233788 0)
(0.355229 0.237688 0)
(0.33794 0.241551 0)
(0.320398 0.245388 0)
(0.302484 0.2491 0)
(0.28399 0.252579 0)
(0.264726 0.25573 0)
(0.244618 0.258517 0)
(0.223747 0.260966 0)
(0.202365 0.263145 0)
(0.180807 0.265133 0)
(0.159357 0.267046 0)
(0.138132 0.269048 0)
(0.117092 0.271101 0)
(0.0962414 0.273806 0)
(0.0753065 0.276618 0)
(0.0543639 0.281025 0)
(0.0327812 0.283734 0)
(0.0112469 0.288179 0)
(3 1.17887e-16 0)
(3 2.06912e-16 0)
(3 3.57589e-16 0)
(3 4.13664e-16 0)
(3 3.19812e-16 0)
(3 -2.55655e-16 0)
(3 -8.1899e-16 0)
(3 -1.15372e-15 0)
(3 -9.28726e-16 0)
(3 -5.44231e-16 0)
(3 -5.24877e-16 0)
(3 -4.48806e-16 0)
(3 -7.46795e-16 0)
(3 -1.70992e-15 0)
(3 -1.75966e-15 0)
(3 -1.36221e-15 0)
(3 -1.01471e-15 0)
(3 -4.77409e-16 0)
(3 5.5191e-17 0)
(3 7.36957e-16 0)
(3 1.32266e-15 0)
(3 1.30852e-15 0)
(3 1.2853e-15 0)
(3 6.59555e-16 0)
(3 -4.67449e-16 0)
(3 -1.83237e-15 0)
(3 -2.44955e-15 0)
(3 -2.61018e-15 0)
(3 -1.76431e-15 0)
(3 -9.97357e-16 0)
(3 2.03442e-16 0)
(3 2.37362e-16 0)
(3 2.58594e-16 0)
(3 3.18331e-16 0)
(3 -7.61926e-17 0)
(3 2.52987e-16 0)
(3 7.47549e-16 0)
(3 9.87015e-16 0)
(3 9.55273e-16 0)
(3 6.22653e-16 0)
(3 5.49311e-18 0)
(3 8.15237e-16 0)
(3 4.62841e-16 0)
(3 -9.49996e-16 0)
(3 -1.42576e-15 0)
(3 -2.03799e-15 0)
(3 -1.28651e-15 0)
(3 -1.46198e-15 0)
(3 5.45638e-13 0)
(2.15149 0.190998 0)
(0.856895 0.203858 0)
(0.760697 0.210917 0)
(0.745934 0.208469 0)
(0.730491 0.206833 0)
(0.715287 0.204525 0)
(0.699629 0.202154 0)
(0.683887 0.201083 0)
(0.668631 0.20205 0)
(0.654224 0.204353 0)
(0.640735 0.207873 0)
(0.627669 0.21223 0)
(0.61366 0.215231 0)
(0.598485 0.215413 0)
(0.582859 0.215186 0)
(0.567849 0.216142 0)
(0.553666 0.217657 0)
(0.539848 0.220694 0)
(0.52628 0.225988 0)
(0.512157 0.231022 0)
(0.497361 0.233127 0)
(0.482508 0.234387 0)
(0.467892 0.237749 0)
(0.453545 0.242864 0)
(0.439014 0.247812 0)
(0.424287 0.252016 0)
(0.409445 0.256378 0)
(0.39435 0.261329 0)
(0.378788 0.266497 0)
(0.362772 0.27161 0)
(0.346453 0.276722 0)
(0.329846 0.281867 0)
(0.312761 0.286958 0)
(0.294919 0.291874 0)
(0.276072 0.296498 0)
(0.256096 0.300745 0)
(0.235053 0.30457 0)
(0.213209 0.307954 0)
(0.190956 0.310907 0)
(0.168634 0.31348 0)
(0.146394 0.315866 0)
(0.124189 0.317944 0)
(0.10208 0.3206 0)
(0.0797331 0.323011 0)
(0.0574802 0.327333 0)
(0.0346219 0.329992 0)
(0.0118453 0.334665 0)
(3 -4.59475e-17 0)
(3 -9.16051e-17 0)
(3 4.50858e-18 0)
(3 -2.53434e-16 0)
(3 -4.02468e-16 0)
(3 -1.12811e-15 0)
(3 -1.32157e-15 0)
(3 -1.22352e-15 0)
(3 -2.63177e-16 0)
(3 9.40206e-17 0)
(3 1.76551e-16 0)
(3 -1.53536e-16 0)
(3 -4.86082e-16 0)
(3 -5.44692e-16 0)
(3 -4.34931e-16 0)
(3 -4.82091e-16 0)
(3 -3.45099e-16 0)
(3 9.46206e-18 0)
(3 3.98354e-16 0)
(3 5.36347e-16 0)
(3 6.46831e-16 0)
(3 2.94708e-16 0)
(3 1.73258e-16 0)
(3 -8.5857e-16 0)
(3 -1.50705e-15 0)
(3 -1.3207e-15 0)
(3 -5.09602e-16 0)
(3 -1.51277e-15 0)
(3 -1.90578e-15 0)
(3 -1.51579e-15 0)
(3 -1.00763e-15 0)
(3 -6.69416e-16 0)
(3 -6.01786e-16 0)
(3 -8.43755e-16 0)
(3 -8.55797e-16 0)
(3 -1.15767e-15 0)
(3 -1.42643e-15 0)
(3 -1.50458e-15 0)
(3 -6.9893e-16 0)
(3 -4.78566e-16 0)
(3 -2.03548e-16 0)
(3 -7.29803e-16 0)
(3 -1.03484e-15 0)
(3 -1.53149e-15 0)
(3 -2.2211e-15 0)
(3 -1.97717e-15 0)
(3 -1.35996e-15 0)
(3 -8.12268e-16 0)
(3 -3.98875e-16 0)
(2.67508 0.171575 0)
(0.958623 0.252883 0)
(0.782021 0.237187 0)
(0.773986 0.227919 0)
(0.757385 0.228587 0)
(0.742039 0.228499 0)
(0.725586 0.22861 0)
(0.708869 0.228494 0)
(0.692438 0.22892 0)
(0.676728 0.229762 0)
(0.661785 0.232308 0)
(0.647682 0.237566 0)
(0.633286 0.243367 0)
(0.617641 0.246377 0)
(0.601506 0.246633 0)
(0.585717 0.246232 0)
(0.570566 0.246689 0)
(0.555835 0.249735 0)
(0.541636 0.255824 0)
(0.526965 0.261966 0)
(0.511344 0.26464 0)
(0.495501 0.265485 0)
(0.479861 0.268478 0)
(0.464798 0.273988 0)
(0.449733 0.279755 0)
(0.434459 0.284495 0)
(0.419168 0.289151 0)
(0.403856 0.294622 0)
(0.388291 0.300679 0)
(0.372384 0.306891 0)
(0.356283 0.313205 0)
(0.340041 0.319676 0)
(0.323479 0.326243 0)
(0.30628 0.33278 0)
(0.288135 0.339129 0)
(0.268821 0.345143 0)
(0.248276 0.350701 0)
(0.22666 0.355705 0)
(0.204303 0.360124 0)
(0.18151 0.363959 0)
(0.158429 0.367418 0)
(0.134966 0.370215 0)
(0.111257 0.373412 0)
(0.0869733 0.375829 0)
(0.0626517 0.380171 0)
(0.0377053 0.382796 0)
(0.0128855 0.387771 0)
(3 -4.54771e-17 0)
(3 1.45499e-18 0)
(3 7.93806e-18 0)
(3 -5.18203e-16 0)
(3 -4.31753e-16 0)
(3 -2.72126e-16 0)
(3 -1.9214e-16 0)
(3 2.97142e-16 0)
(3 3.82317e-16 0)
(3 -6.7613e-17 0)
(3 -6.41135e-16 0)
(3 -4.99629e-16 0)
(3 -3.71271e-16 0)
(3 1.18738e-16 0)
(3 7.78618e-18 0)
(3 -4.37157e-16 0)
(3 -4.6593e-16 0)
(3 -4.98681e-16 0)
(3 -8.62829e-16 0)
(3 -1.08773e-15 0)
(3 -1.0363e-15 0)
(3 -9.4295e-16 0)
(3 -1.37173e-15 0)
(3 -1.67006e-15 0)
(3 -1.73059e-15 0)
(3 -1.10194e-15 0)
(3 -2.06755e-16 0)
(3 -1.10499e-16 0)
(3 -3.10174e-16 0)
(3 -9.76502e-16 0)
(3 -1.932e-15 0)
(3 -1.84853e-15 0)
(3 -1.57634e-15 0)
(3 -1.35915e-15 0)
(3 -7.79872e-16 0)
(3 -4.79417e-16 0)
(3 -1.2847e-15 0)
(3 -1.46194e-15 0)
(3 -9.7206e-16 0)
(3 -9.19011e-16 0)
(3 -1.17905e-15 0)
(3 -1.10991e-15 0)
(3 -1.11654e-15 0)
(3 -1.49567e-15 0)
(3 -1.58977e-15 0)
(3 -1.83214e-15 0)
(3 -1.9222e-15 0)
(3 -1.8786e-15 0)
(3 -1.28106e-15 0)
(3.02076 0.0106772 0)
(1.14499 0.27953 0)
(0.807493 0.233497 0)
(0.795351 0.247691 0)
(0.781489 0.254587 0)
(0.76657 0.257893 0)
(0.751096 0.259601 0)
(0.735408 0.259855 0)
(0.719636 0.25961 0)
(0.703981 0.259019 0)
(0.688537 0.259878 0)
(0.673965 0.264336 0)
(0.660199 0.270968 0)
(0.645601 0.275948 0)
(0.630086 0.277279 0)
(0.614436 0.276267 0)
(0.598927 0.275724 0)
(0.583622 0.278336 0)
(0.569032 0.284823 0)
(0.55429 0.292273 0)
(0.538284 0.296489 0)
(0.521658 0.297575 0)
(0.504947 0.300085 0)
(0.488863 0.30578 0)
(0.473043 0.312635 0)
(0.456941 0.318443 0)
(0.440738 0.323626 0)
(0.424584 0.329568 0)
(0.408313 0.336442 0)
(0.391749 0.343737 0)
(0.375012 0.351239 0)
(0.358229 0.359006 0)
(0.341262 0.367054 0)
(0.323786 0.375313 0)
(0.305425 0.383648 0)
(0.285828 0.3919 0)
(0.264785 0.399921 0)
(0.242356 0.407504 0)
(0.218903 0.414506 0)
(0.194802 0.420735 0)
(0.170299 0.426252 0)
(0.145306 0.430638 0)
(0.120016 0.434924 0)
(0.0940611 0.437725 0)
(0.0676566 0.442069 0)
(0.0406387 0.444428 0)
(0.0137448 0.449453 0)
(3 3.52588e-17 0)
(3 -1.13339e-16 0)
(3 -2.64881e-16 0)
(3 -4.99831e-16 0)
(3 -7.30198e-16 0)
(3 -2.60848e-16 0)
(3 1.50565e-16 0)
(3 1.70136e-17 0)
(3 1.46824e-16 0)
(3 -6.97294e-16 0)
(3 -1.19835e-15 0)
(3 -4.36704e-16 0)
(3 2.48515e-16 0)
(3 1.64083e-16 0)
(3 3.09725e-16 0)
(3 6.24797e-16 0)
(3 2.26146e-16 0)
(3 -9.51044e-16 0)
(3 -1.20182e-15 0)
(3 -1.07394e-15 0)
(3 -8.81574e-16 0)
(3 -1.23482e-15 0)
(3 -1.53012e-15 0)
(3 -2.07895e-15 0)
(3 -1.99651e-15 0)
(3 -1.43047e-15 0)
(3 -4.92457e-16 0)
(3 4.09788e-18 0)
(3 6.36523e-16 0)
(3 8.87934e-16 0)
(3 8.73193e-16 0)
(3 5.84785e-16 0)
(3 7.02192e-16 0)
(3 1.02744e-15 0)
(3 1.04995e-15 0)
(3 1.15046e-15 0)
(3 1.16969e-15 0)
(3 1.03467e-15 0)
(3 1.06888e-15 0)
(3 9.68686e-16 0)
(3 5.85818e-16 0)
(3 6.10647e-16 0)
(3 5.97703e-16 0)
(3 6.59633e-16 0)
(3 3.81251e-16 0)
(3 -1.48701e-16 0)
(3 -8.28023e-16 0)
(3 -1.29705e-15 0)
(3 -1.4966e-15 0)
(3.00031 1.03774e-05 0)
(1.55353 0.310547 0)
(0.82519 0.277209 0)
(0.781263 0.277754 0)
(0.768942 0.285726 0)
(0.755002 0.289222 0)
(0.74182 0.291328 0)
(0.728701 0.292497 0)
(0.715465 0.293168 0)
(0.701866 0.293091 0)
(0.687896 0.293345 0)
(0.674153 0.296573 0)
(0.661614 0.30315 0)
(0.649149 0.309864 0)
(0.635731 0.313123 0)
(0.621908 0.312902 0)
(0.607827 0.312178 0)
(0.593591 0.314259 0)
(0.580037 0.320529 0)
(0.566919 0.328856 0)
(0.552529 0.33478 0)
(0.537042 0.336751 0)
(0.52104 0.338793 0)
(0.505387 0.344026 0)
(0.49034 0.35145 0)
(0.475078 0.358354 0)
(0.459458 0.364117 0)
(0.443685 0.370235 0)
(0.427722 0.377481 0)
(0.411383 0.385526 0)
(0.394723 0.393983 0)
(0.377978 0.402873 0)
(0.361108 0.412254 0)
(0.34385 0.422121 0)
(0.325912 0.432421 0)
(0.306957 0.44293 0)
(0.286701 0.453466 0)
(0.265067 0.463691 0)
(0.242346 0.473344 0)
(0.218696 0.48204 0)
(0.194096 0.489919 0)
(0.168206 0.496738 0)
(0.141089 0.503886 0)
(0.111684 0.509808 0)
(0.0806143 0.516172 0)
(0.0482569 0.519273 0)
(0.0161056 0.524126 0)
(3 1.05198e-16 0)
(3 -1.57312e-16 0)
(3 -1.80558e-16 0)
(3 -9.49724e-17 0)
(3 -6.79659e-17 0)
(3 -1.09431e-16 0)
(3 -1.71024e-16 0)
(3 -2.11254e-16 0)
(3 -2.20544e-16 0)
(3 2.02852e-17 0)
(3 1.38058e-16 0)
(3 3.85534e-16 0)
(3 5.09857e-16 0)
(3 3.16406e-16 0)
(3 1.18234e-16 0)
(3 -2.8165e-16 0)
(3 -3.19722e-16 0)
(3 -5.44504e-16 0)
(3 -8.01824e-16 0)
(3 -1.19712e-15 0)
(3 -1.27959e-15 0)
(3 -1.49671e-15 0)
(3 -1.28355e-15 0)
(3 -6.92436e-16 0)
(3 5.63134e-18 0)
(3 9.60786e-17 0)
(3 7.69663e-16 0)
(3 1.31734e-15 0)
(3 1.78213e-15 0)
(3 2.60598e-15 0)
(3 3.58254e-15 0)
(3 3.67e-15 0)
(3 3.16618e-15 0)
(3 2.68753e-15 0)
(3 1.64081e-15 0)
(3 1.14933e-15 0)
(3 1.30708e-15 0)
(3 1.30248e-15 0)
(3 1.11839e-15 0)
(3 7.80867e-16 0)
(3 1.36777e-15 0)
(3 8.28234e-16 0)
(3 9.08735e-16 0)
(3 1.47487e-15 0)
(3 1.68667e-15 0)
(3 1.92623e-15 0)
(3 1.7375e-15 0)
(3 1.43483e-15 0)
(3 5.50477e-16 0)
(3 1.79028e-08 0)
(2.37794 0.283765 0)
(0.91897 0.338236 0)
(0.793805 0.314935 0)
(0.780808 0.311562 0)
(0.766087 0.315135 0)
(0.753159 0.318277 0)
(0.740855 0.320781 0)
(0.72875 0.322779 0)
(0.716208 0.323965 0)
(0.702972 0.324374 0)
(0.689343 0.326388 0)
(0.676579 0.331794 0)
(0.664868 0.338762 0)
(0.652718 0.343592 0)
(0.639966 0.344879 0)
(0.626755 0.344787 0)
(0.613122 0.346684 0)
(0.599881 0.352549 0)
(0.587526 0.361364 0)
(0.574508 0.369238 0)
(0.56014 0.373261 0)
(0.544989 0.375769 0)
(0.529808 0.380676 0)
(0.515402 0.388529 0)
(0.501145 0.397031 0)
(0.486336 0.404387 0)
(0.47107 0.411424 0)
(0.455442 0.419406 0)
(0.439409 0.428538 0)
(0.422945 0.438331 0)
(0.4063 0.448682 0)
(0.389445 0.459705 0)
(0.372234 0.471395 0)
(0.354465 0.483915 0)
(0.335577 0.497053 0)
(0.315332 0.510691 0)
(0.29346 0.524597 0)
(0.269922 0.538647 0)
(0.244386 0.552476 0)
(0.217057 0.566077 0)
(0.187757 0.57903 0)
(0.157034 0.592127 0)
(0.125027 0.603928 0)
(0.0916233 0.613512 0)
(0.0562997 0.618481 0)
(0.0179696 0.621531 0)
(3 -4.14729e-17 0)
(3 -4.55154e-17 0)
(3 1.72249e-16 0)
(3 3.03086e-16 0)
(3 4.14751e-16 0)
(3 1.80509e-16 0)
(3 -1.61891e-16 0)
(3 9.1613e-18 0)
(3 7.70151e-17 0)
(3 3.73111e-16 0)
(3 5.44986e-16 0)
(3 2.18089e-16 0)
(3 1.09082e-16 0)
(3 1.5816e-16 0)
(3 -1.18647e-15 0)
(3 -1.53185e-15 0)
(3 -1.35238e-15 0)
(3 -1.0223e-15 0)
(3 -1.23404e-15 0)
(3 -1.49061e-15 0)
(3 -1.7627e-15 0)
(3 -1.6195e-15 0)
(3 -1.02688e-15 0)
(3 7.9269e-17 0)
(3 6.76891e-16 0)
(3 8.84849e-16 0)
(3 6.95299e-16 0)
(3 9.61768e-16 0)
(3 1.24804e-15 0)
(3 1.52474e-15 0)
(3 1.36787e-15 0)
(3 1.36397e-15 0)
(3 1.58029e-15 0)
(3 1.56716e-15 0)
(3 1.24263e-15 0)
(3 1.20314e-15 0)
(3 1.32113e-15 0)
(3 1.43877e-15 0)
(3 1.40772e-15 0)
(3 1.05395e-15 0)
(3 7.93599e-16 0)
(3 3.27922e-16 0)
(3 2.51232e-16 0)
(3 5.46484e-16 0)
(3 2.14436e-15 0)
(3 3.47553e-15 0)
(3 4.20286e-15 0)
(3 4.3421e-15 0)
(3 2.61968e-15 0)
(3 -7.15621e-09 0)
(3.02821 0.017925 0)
(1.25404 0.376766 0)
(0.843813 0.323712 0)
(0.820989 0.335441 0)
(0.804555 0.338737 0)
(0.789501 0.340194 0)
(0.77584 0.34264 0)
(0.762852 0.346098 0)
(0.749808 0.349793 0)
(0.735983 0.352407 0)
(0.721528 0.354458 0)
(0.707415 0.358528 0)
(0.694652 0.364915 0)
(0.682431 0.371113 0)
(0.669725 0.374988 0)
(0.656457 0.376884 0)
(0.642789 0.379314 0)
(0.629293 0.384689 0)
(0.616769 0.39323 0)
(0.604495 0.402308 0)
(0.591135 0.408805 0)
(0.576767 0.412884 0)
(0.562046 0.417891 0)
(0.54793 0.425833 0)
(0.534447 0.435678 0)
(0.520584 0.445279 0)
(0.506023 0.454168 0)
(0.490964 0.463347 0)
(0.4756 0.473679 0)
(0.459863 0.484982 0)
(0.443798 0.497015 0)
(0.427699 0.50994 0)
(0.41118 0.523846 0)
(0.39419 0.539078 0)
(0.376138 0.555565 0)
(0.356913 0.573303 0)
(0.33648 0.592153 0)
(0.314819 0.611982 0)
(0.291754 0.632344 0)
(0.267086 0.652565 0)
(0.240528 0.671385 0)
(0.211694 0.687708 0)
(0.18066 0.703425 0)
(0.143848 0.722138 0)
(0.0975688 0.744538 0)
(0.0369794 0.763645 0)
(3 -3.55287e-17 0)
(3 8.07169e-18 0)
(3 3.66366e-16 0)