/*--------------------------------*- C++ -*----------------------------------*\
  =========                 |
  \\      /  F ield         | OpenFOAM: The Open Source CFD Toolbox
   \\    /   O peration     | Website:  https://openfoam.org
    \\  /    A nd           | Version:  7
     \\/     M anipulation  |
\*---------------------------------------------------------------------------*/
FoamFile
{
    version     2.0;
    format      ascii;
    class       volScalarField;
    location    "0.6";
    object      T;
}
// * * * * * * * * * * * * * * * * * * * * * * * * * * * * * * * * * * * * * //

dimensions      [0 0 0 1 0 0 0];

internalField   nonuniform List<scalar> 
1000
(
6.08828e-05
6.09557e-05
6.11015e-05
6.13205e-05
6.16127e-05
6.19786e-05
6.24184e-05
6.29326e-05
6.35216e-05
6.41861e-05
6.49266e-05
6.57438e-05
6.66386e-05
6.76118e-05
6.86643e-05
6.97972e-05
7.10114e-05
7.23081e-05
7.36887e-05
7.51543e-05
7.67063e-05
7.83463e-05
8.00757e-05
8.18962e-05
8.38094e-05
8.58173e-05
8.79215e-05
9.01242e-05
9.24273e-05
9.48329e-05
9.73433e-05
9.99608e-05
0.000102688
0.000105527
0.00010848
0.000111551
0.000114742
0.000118056
0.000121495
0.000125064
0.000128765
0.000132601
0.000136576
0.000140694
0.000144958
0.000149372
0.000153939
0.000158664
0.000163551
0.000168604
0.000173827
0.000179225
0.000184803
0.000190565
0.000196516
0.000202661
0.000209006
0.000215556
0.000222316
0.000229291
0.000236489
0.000243914
0.000251572
0.000259471
0.000267616
0.000276014
0.000284672
0.000293597
0.000302795
0.000312275
0.000322044
0.000332109
0.000342478
0.00035316
0.000364163
0.000375495
0.000387165
0.000399181
0.000411554
0.000424293
0.000437407
0.000450905
0.000464799
0.000479098
0.000493814
0.000508956
0.000524535
0.000540565
0.000557055
0.000574017
0.000591465
0.00060941
0.000627865
0.000646843
0.000666357
0.000686422
0.00070705
0.000728256
0.000750055
0.000772462
0.000795491
0.000819158
0.000843479
0.000868471
0.00089415
0.000920532
0.000947635
0.000975477
0.00100408
0.00103345
0.00106362
0.0010946
0.00112641
0.00115908
0.00119262
0.00122705
0.0012624
0.00129868
0.00133592
0.00137415
0.00141338
0.00145363
0.00149494
0.00153732
0.00158081
0.00162542
0.00167118
0.00171812
0.00176626
0.00181564
0.00186628
0.0019182
0.00197145
0.00202603
0.002082
0.00213937
0.00219818
0.00225846
0.00232024
0.00238356
0.00244844
0.00251493
0.00258305
0.00265284
0.00272433
0.00279758
0.0028726
0.00294943
0.00302812
0.00310871
0.00319123
0.00327572
0.00336223
0.00345079
0.00354145
0.00363425
0.00372923
0.00382644
0.00392592
0.00402772
0.00413188
0.00423845
0.00434748
0.00445901
0.0045731
0.00468979
0.00480913
0.00493118
0.00505598
0.0051836
0.00531407
0.00544746
0.00558382
0.00572321
0.00586568
0.00601128
0.00616008
0.00631214
0.00646751
0.00662625
0.00678842
0.00695409
0.00712331
0.00729615
0.00747268
0.00765295
0.00783703
0.00802499
0.00821689
0.0084128
0.00861278
0.00881692
0.00902527
0.00923791
0.0094549
0.00967632
0.00990224
0.0101327
0.0103679
0.0106077
0.0108524
0.0111019
0.0113564
0.0116159
0.0118805
0.0121502
0.0124253
0.0127056
0.0129914
0.0132827
0.0135796
0.0138821
0.0141904
0.0145045
0.0148245
0.0151505
0.0154825
0.0158208
0.0161653
0.0165161
0.0168734
0.0172371
0.0176075
0.0179845
0.0183683
0.018759
0.0191566
0.0195612
0.019973
0.020392
0.0208183
0.021252
0.0216932
0.022142
0.0225984
0.0230626
0.0235346
0.0240146
0.0245026
0.0249988
0.0255031
0.0260158
0.0265369
0.0270664
0.0276046
0.0281514
0.0287069
0.0292713
0.0298447
0.0304271
0.0310186
0.0316193
0.0322293
0.0328487
0.0334776
0.0341161
0.0347641
0.035422
0.0360896
0.0367672
0.0374547
0.0381524
0.0388602
0.0395782
0.0403065
0.0410453
0.0417945
0.0425543
0.0433247
0.0441059
0.0448978
0.0457006
0.0465144
0.0473391
0.048175
0.0490219
0.0498801
0.0507496
0.0516304
0.0525227
0.0534264
0.0543416
0.0552685
0.0562069
0.0571571
0.0581191
0.0590928
0.0600784
0.0610759
0.0620854
0.0631069
0.0641403
0.0651859
0.0662436
0.0673134
0.0683954
0.0694896
0.070596
0.0717147
0.0728457
0.073989
0.0751446
0.0763126
0.0774928
0.0786855
0.0798905
0.0811079
0.0823376
0.0835797
0.0848342
0.086101
0.0873801
0.0886716
0.0899754
0.0912915
0.0926198
0.0939604
0.0953132
0.0966781
0.0980552
0.0994444
0.100846
0.102259
0.103684
0.105121
0.10657
0.108031
0.109503
0.110987
0.112483
0.11399
0.115508
0.117038
0.118579
0.120131
0.121694
0.123268
0.124853
0.126449
0.128055
0.129672
0.131299
0.132937
0.134584
0.136242
0.137909
0.139586
0.141273
0.142969
0.144674
0.146389
0.148112
0.149844
0.151585
0.153334
0.155092
0.156857
0.15863
0.160412
0.1622
0.163996
0.165799
0.167609
0.169425
0.171248
0.173077
0.174913
0.176754
0.1786
0.180452
0.182309
0.184171
0.186037
0.187908
0.189783
0.191662
0.193544
0.19543
0.197318
0.19921
0.201104
0.203
0.204898
0.206797
0.208699
0.210601
0.212504
0.214407
0.216311
0.218214
0.220118
0.22202
0.223921
0.225821
0.22772
0.229616
0.23151
0.233402
0.23529
0.237176
0.239057
0.240935
0.242809
0.244678
0.246542
0.2484
0.250253
0.252101
0.253942
0.255776
0.257603
0.259423
0.261236
0.26304
0.264836
0.266623
0.268402
0.270171
0.27193
0.273679
0.275418
0.277146
0.278863
0.280568
0.282262
0.283943
0.285613
0.287269
0.288912
0.290541
0.292157
0.293759
0.295346
0.296918
0.298475
0.300016
0.301542
0.303052
0.304545
0.306021
0.30748
0.308921
0.310345
0.311751
0.313138
0.314507
0.315857
0.317187
0.318498
0.319789
0.32106
0.32231
0.32354
0.324748
0.325936
0.327101
0.328245
0.329367
0.330466
0.331543
0.332597
0.333628
0.334636
0.33562
0.33658
0.337517
0.338429
0.339316
0.340179
0.341017
0.34183
0.342618
0.343381
0.344118
0.344829
0.345514
0.346173
0.346805
0.347412
0.347991
0.348545
0.349071
0.34957
0.350042
0.350487
0.350905
0.351295
0.351658
0.351993
0.352301
0.352581
0.352833
0.353057
0.353254
0.353422
0.353562
0.353675
0.353759
0.353815
0.353843
0.353843
0.353815
0.353759
0.353675
0.353562
0.353422
0.353254
0.353057
0.352833
0.352581
0.352301
0.351993
0.351658
0.351295
0.350905
0.350487
0.350042
0.34957
0.349071
0.348545
0.347991
0.347412
0.346805
0.346173
0.345514
0.344829
0.344118
0.343381
0.342618
0.34183
0.341017
0.340179
0.339316
0.338429
0.337517
0.33658
0.33562
0.334636
0.333628
0.332597
0.331543
0.330466
0.329367
0.328245
0.327101
0.325936
0.324748
0.32354
0.32231
0.32106
0.319789
0.318498
0.317187
0.315857
0.314507
0.313138
0.311751
0.310345
0.308921
0.30748
0.306021
0.304545
0.303052
0.301542
0.300016
0.298475
0.296918
0.295346
0.293759
0.292157
0.290541
0.288912
0.287269
0.285613
0.283943
0.282262
0.280568
0.278863
0.277146
0.275418
0.273679
0.27193
0.270171
0.268402
0.266623
0.264836
0.26304
0.261236
0.259423
0.257603
0.255776
0.253942
0.252101
0.250253
0.2484
0.246542
0.244678
0.242809
0.240935
0.239057
0.237176
0.23529
0.233402
0.23151
0.229616
0.22772
0.225821
0.223921
0.22202
0.220118
0.218214
0.216311
0.214407
0.212504
0.210601
0.208699
0.206797
0.204898
0.203
0.201104
0.19921
0.197318
0.19543
0.193544
0.191662
0.189783
0.187908
0.186037
0.184171
0.182309
0.180452
0.1786
0.176754
0.174913
0.173077
0.171248
0.169425
0.167609
0.165799
0.163996
0.1622
0.160412
0.15863
0.156857
0.155092
0.153334
0.151585
0.149844
0.148112
0.146389
0.144674
0.142969
0.141273
0.139586
0.137909
0.136242
0.134584
0.132937
0.131299
0.129672
0.128055
0.126449
0.124853
0.123268
0.121694
0.120131
0.118579
0.117038
0.115508
0.11399
0.112483
0.110987
0.109503
0.108031
0.10657
0.105121
0.103684
0.102259
0.100846
0.0994444
0.0980552
0.0966781
0.0953132
0.0939604
0.0926198
0.0912915
0.0899754
0.0886716
0.0873801
0.086101
0.0848342
0.0835797
0.0823376
0.0811079
0.0798905
0.0786855
0.0774928
0.0763126
0.0751446
0.073989
0.0728457
0.0717147
0.070596
0.0694896
0.0683954
0.0673134
0.0662436
0.0651859
0.0641403
0.0631069
0.0620854
0.0610759
0.0600784
0.0590928
0.0581191
0.0571571
0.0562069
0.0552685
0.0543416
0.0534264
0.0525227
0.0516304
0.0507496
0.0498801
0.0490219
0.048175
0.0473391
0.0465144
0.0457006
0.0448978
0.0441059
0.0433247
0.0425543
0.0417945
0.0410453
0.0403065
0.0395782
0.0388602
0.0381524
0.0374547
0.0367672
0.0360896
0.035422
0.0347641
0.0341161
0.0334776
0.0328487
0.0322293
0.0316193
0.0310186
0.0304271
0.0298447
0.0292713
0.0287069
0.0281514
0.0276046
0.0270664
0.0265369
0.0260158
0.0255031
0.0249988
0.0245026
0.0240146
0.0235346
0.0230626
0.0225984
0.022142
0.0216932
0.021252
0.0208183
0.020392
0.019973
0.0195612
0.0191566
0.018759
0.0183683
0.0179845
0.0176075
0.0172371
0.0168734
0.0165161
0.0161653
0.0158208
0.0154825
0.0151505
0.0148245
0.0145045
0.0141904
0.0138821
0.0135796
0.0132827
0.0129914
0.0127056
0.0124253
0.0121502
0.0118805
0.0116159
0.0113564
0.0111019
0.0108524
0.0106077
0.0103679
0.0101327
0.00990224
0.00967632
0.0094549
0.00923791
0.00902527
0.00881692
0.00861278
0.0084128
0.00821689
0.00802499
0.00783703
0.00765295
0.00747268
0.00729615
0.00712331
0.00695409
0.00678842
0.00662625
0.00646751
0.00631214
0.00616008
0.00601128
0.00586568
0.00572321
0.00558382
0.00544746
0.00531407
0.0051836
0.00505598
0.00493118
0.00480913
0.00468979
0.0045731
0.00445901
0.00434748
0.00423845
0.00413188
0.00402772
0.00392592
0.00382644
0.00372923
0.00363425
0.00354145
0.00345079
0.00336223
0.00327572
0.00319123
0.00310871
0.00302812
0.00294943
0.0028726
0.00279758
0.00272433
0.00265284
0.00258305
0.00251493
0.00244844
0.00238356
0.00232024
0.00225846
0.00219818
0.00213937
0.002082
0.00202603
0.00197145
0.0019182
0.00186628
0.00181564
0.00176626
0.00171812
0.00167118
0.00162542
0.00158081
0.00153732
0.00149494
0.00145363
0.00141338
0.00137415
0.00133592
0.00129868
0.0012624
0.00122705
0.00119262
0.00115908
0.00112641
0.0010946
0.00106362
0.00103345
0.00100408
0.000975477
0.000947635
0.000920532
0.00089415
0.000868471
0.000843479
0.000819158
0.000795491
0.000772462
0.000750055
0.000728256
0.00070705
0.000686422
0.000666357
0.000646843
0.000627865
0.00060941
0.000591465
0.000574017
0.000557055
0.000540565
0.000524535
0.000508956
0.000493814
0.000479098
0.000464799
0.000450905
0.000437407
0.000424293
0.000411554
0.000399181
0.000387165
0.000375495
0.000364163
0.00035316
0.000342478
0.000332109
0.000322044
0.000312275
0.000302795
0.000293597
0.000284672
0.000276014
0.000267616
0.000259471
0.000251572
0.000243914
0.000236489
0.000229291
0.000222316
0.000215556
0.000209006
0.000202661
0.000196516
0.000190565
0.000184803
0.000179225
0.000173827
0.000168604
0.000163551
0.000158664
0.000153939
0.000149372
0.000144958
0.000140694
0.000136576
0.000132601
0.000128765
0.000125064
0.000121495
0.000118056
0.000114742
0.000111551
0.00010848
0.000105527
0.000102688
9.99608e-05
9.73433e-05
9.48329e-05
9.24273e-05
9.01242e-05
8.79215e-05
8.58173e-05
8.38094e-05
8.18962e-05
8.00757e-05
7.83463e-05
7.67063e-05
7.51543e-05
7.36887e-05
7.23081e-05
7.10114e-05
6.97972e-05
6.86643e-05
6.76118e-05
6.66386e-05
6.57438e-05
6.49266e-05
6.41861e-05
6.35216e-05
6.29326e-05
6.24184e-05
6.19786e-05
6.16127e-05
6.13205e-05
6.11015e-05
6.09557e-05
6.08828e-05
)
;

boundaryField
{
    sides
    {
        type            zeroGradient;
    }
    empty
    {
        type            empty;
    }
}


// ************************************************************************* //
