/*--------------------------------*- C++ -*----------------------------------*\
  =========                 |
  \\      /  F ield         | OpenFOAM: The Open Source CFD Toolbox
   \\    /   O peration     | Website:  https://openfoam.org
    \\  /    A nd           | Version:  7
     \\/     M anipulation  |
\*---------------------------------------------------------------------------*/
FoamFile
{
    version     2.0;
    format      ascii;
    class       volScalarField;
    location    "6.3";
    object      rho;
}
// * * * * * * * * * * * * * * * * * * * * * * * * * * * * * * * * * * * * * //

dimensions      [1 -3 0 0 0 0 0];

internalField   nonuniform List<scalar> 
19968
(
1.40001
1.40001
1.40001
1.40001
1.40001
1.40001
1.40001
1.40001
1.40001
1.40001
1.40001
1.40001
1.40001
1.40001
1.40001
1.40001
1.40001
1.40001
1.40001
1.40001
1.40001
1.40001
1.40001
1.40001
1.40001
1.40001
1.40001
1.40001
1.40001
1.40001
1.40001
1.40001
1.40001
1.40001
1.40001
1.40001
1.40001
1.40001
1.40001
1.40001
1.40001
1.40001
1.40001
1.40001
1.40001
1.40001
1.40001
1.40001
1.69976
4.57949
5.43037
5.43431
5.4545
5.47781
5.5022
5.52549
5.54746
5.56864
5.58938
5.60937
5.62824
5.64588
5.6629
5.68018
5.69754
5.7148
5.73192
5.74845
5.76411
5.77926
5.79439
5.80961
5.82453
5.83867
5.85187
5.86437
5.87669
5.88921
5.90186
5.91413
5.92536
5.9351
5.9433
5.95031
5.95674
5.96326
5.97032
5.97802
5.98603
5.99372
6.00041
6.0056
6.00915
6.01111
6.0121
6.01231
1.40001
1.40001
1.40001
1.40001
1.40001
1.40001
1.40001
1.40001
1.40001
1.40001
1.40001
1.40001
1.40001
1.40001
1.40001
1.40001
1.40001
1.40001
1.40001
1.40001
1.40001
1.40001
1.40001
1.40001
1.40001
1.40001
1.40001
1.40001
1.40001
1.40001
1.40001
1.40001
1.40001
1.40001
1.40001
1.40001
1.40001
1.40001
1.40001
1.40001
1.40001
1.40001
1.40001
1.40001
1.40001
1.40001
1.40001
1.40001
1.68426
4.55355
5.42652
5.43345
5.45404
5.47698
5.50098
5.52416
5.54607
5.56698
5.58742
5.60723
5.62612
5.64401
5.66126
5.67882
5.69639
5.71389
5.73107
5.74751
5.76299
5.77793
5.7929
5.80804
5.82295
5.83711
5.85034
5.86286
5.87514
5.88754
5.90003
5.91215
5.92334
5.93317
5.94155
5.94876
5.95532
5.96185
5.96882
5.97634
5.9841
5.99153
5.99797
6.00298
6.00648
6.00849
6.0096
6.0099
1.40001
1.40001
1.40001
1.40001
1.40001
1.40001
1.40001
1.40001
1.40001
1.40001
1.40001
1.40001
1.40001
1.40001
1.40001
1.40001
1.40001
1.40001
1.40001
1.40001
1.40001
1.40001
1.40001
1.40001
1.40001
1.40001
1.40001
1.40001
1.40001
1.40001
1.40001
1.40001
1.40001
1.40001
1.40001
1.40001
1.40001
1.40001
1.40001
1.40001
1.40001
1.40001
1.40001
1.40001
1.40001
1.40001
1.40001
1.40001
1.64956
4.50131
5.42319
5.43084
5.45133
5.47376
5.49765
5.52088
5.54266
5.56325
5.5834
5.60303
5.62194
5.64012
5.65768
5.67573
5.69371
5.71164
5.72896
5.74529
5.76049
5.77513
5.78992
5.805
5.81994
5.83418
5.84744
5.85994
5.87213
5.88434
5.89659
5.90853
5.91967
5.92964
5.9383
5.94581
5.9526
5.95923
5.96615
5.97351
5.98105
5.98819
5.99433
5.99912
6.00253
6.00462
6.0059
6.00639
1.40001
1.40001
1.40001
1.40001
1.40001
1.40001
1.40001
1.40001
1.40001
1.40001
1.40001
1.40001
1.40001
1.40001
1.40001
1.40001
1.40001
1.40001
1.40001
1.40001
1.40001
1.40001
1.40001
1.40001
1.40001
1.40001
1.40001
1.40001
1.40001
1.40001
1.40001
1.40001
1.40001
1.40001
1.40001
1.40001
1.40001
1.40001
1.40001
1.40001
1.40001
1.40001
1.40001
1.40001
1.40001
1.40001
1.40001
1.40001
1.59904
4.41486
5.41859
5.42885
5.4487
5.47064
5.49426
5.51715
5.53841
5.55842
5.57817
5.59763
5.61648
5.63483
5.6526
5.67111
5.68954
5.70796
5.72547
5.7417
5.75661
5.77097
5.78559
5.80065
5.81569
5.83001
5.84328
5.85565
5.86757
5.87944
5.89133
5.90304
5.91416
5.92434
5.93333
5.94115
5.9481
5.95469
5.96142
5.96846
5.9756
5.98232
5.98811
5.9927
5.99615
5.99852
6.00016
6.00099
1.40001
1.40001
1.40001
1.40001
1.40001
1.40001
1.40001
1.40001
1.40001
1.40001
1.40001
1.40001
1.40001
1.40001
1.40001
1.40001
1.40001
1.40001
1.40001
1.40001
1.40001
1.40001
1.40001
1.40001
1.40001
1.40001
1.40001
1.40001
1.40001
1.40001
1.40001
1.40001
1.40001
1.40001
1.40001
1.40001
1.40001
1.40001
1.40001
1.40001
1.40001
1.40001
1.40001
1.40001
1.40001
1.40001
1.40001
1.40001
1.53331
4.29734
5.41582
5.42614
5.44618
5.46755
5.49047
5.51248
5.5329
5.55224
5.57159
5.59099
5.61
5.62861
5.64658
5.66529
5.6839
5.70263
5.72027
5.73647
5.75125
5.7655
5.78009
5.79523
5.81041
5.82485
5.8381
5.85026
5.86183
5.87328
5.88484
5.89644
5.90772
5.91826
5.9277
5.93588
5.94302
5.94956
5.95597
5.96247
5.96888
5.97477
5.97977
5.98376
5.98689
5.98925
5.99102
5.99203
1.40001
1.40001
1.40001
1.40001
1.40001
1.40001
1.40001
1.40001
1.40001
1.40001
1.40001
1.40001
1.40001
1.40001
1.40001
1.40001
1.40001
1.40001
1.40001
1.40001
1.40001
1.40001
1.40001
1.40001
1.40001
1.40001
1.40001
1.40001
1.40001
1.40001
1.40001
1.40001
1.40001
1.40001
1.40001
1.40001
1.40001
1.40001
1.40001
1.40001
1.40001
1.40001
1.40001
1.40001
1.40001
1.40001
1.40001
1.40001
1.41904
4.10683
5.41509
5.42572
5.44572
5.46718
5.48921
5.51017
5.52957
5.54794
5.56638
5.58529
5.60437
5.62322
5.64125
5.6596
5.67758
5.69576
5.71295
5.7289
5.74358
5.75776
5.77225
5.78728
5.80238
5.81669
5.82966
5.84137
5.85235
5.86321
5.87433
5.88575
5.89715
5.90802
5.91784
5.92637
5.93373
5.94036
5.94671
5.95301
5.95909
5.96459
5.96923
5.97299
5.97607
5.97859
5.98052
5.98174
1.40001
1.40001
1.40001
1.40001
1.40001
1.40001
1.40001
1.40001
1.40001
1.40001
1.40001
1.40001
1.40001
1.40001
1.40001
1.40001
1.40001
1.40001
1.40001
1.40001
1.40001
1.40001
1.40001
1.40001
1.40001
1.40001
1.40001
1.40001
1.40001
1.40001
1.40001
1.40001
1.40001
1.40001
1.40001
1.40001
1.40001
1.40001
1.40001
1.40001
1.40001
1.40001
1.40001
1.40001
1.40001
1.40001
1.40001
1.40001
1.4002
3.80934
5.37956
5.41012
5.43125
5.45429
5.47628
5.49685
5.5159
5.53427
5.55288
5.57199
5.59138
5.61045
5.62865
5.64661
5.66379
5.68109
5.69769
5.71342
5.72841
5.74312
5.7581
5.77345
5.78869
5.803
5.81581
5.82724
5.83787
5.84839
5.85932
5.87078
5.88244
5.89368
5.90387
5.9127
5.92024
5.92694
5.93323
5.93934
5.94514
5.95029
5.95461
5.95815
5.9611
5.96362
5.96556
5.96688
1.40001
1.40001
1.40001
1.40001
1.40001
1.40001
1.40001
1.40001
1.40001
1.40001
1.40001
1.40001
1.40001
1.40001
1.40001
1.40001
1.40001
1.40001
1.40001
1.40001
1.40001
1.40001
1.40001
1.40001
1.40001
1.40001
1.40001
1.40001
1.40001
1.40001
1.40001
1.40001
1.40001
1.40001
1.40001
1.40001
1.40001
1.40001
1.40001
1.40001
1.40001
1.40001
1.40001
1.40001
1.40001
1.40001
1.40001
1.40001
1.40001
3.40743
5.32519
5.40046
5.4219
5.44745
5.4707
5.49166
5.51033
5.52796
5.54589
5.56447
5.58339
5.6019
5.61966
5.63695
5.65321
5.66946
5.68521
5.70028
5.71499
5.72961
5.74452
5.75973
5.77477
5.7888
5.80122
5.81216
5.82228
5.83236
5.84298
5.85432
5.86602
5.87735
5.88763
5.89647
5.90397
5.91054
5.91663
5.92246
5.92794
5.93276
5.9368
5.94009
5.94282
5.94521
5.94698
5.94829
1.40001
1.40001
1.40001
1.40001
1.40001
1.40001
1.40001
1.40001
1.40001
1.40001
1.40001
1.40001
1.40001
1.40001
1.40001
1.40001
1.40001
1.40001
1.40001
1.40001
1.40001
1.40001
1.40001
1.40001
1.40001
1.40001
1.40001
1.40001
1.40001
1.40001
1.40001
1.40001
1.40001
1.40001
1.40001
1.40001
1.40001
1.40001
1.40001
1.40001
1.40001
1.40001
1.40001
1.40001
1.40001
1.40001
1.40001
1.40001
1.40001
2.92388
5.23141
5.39715
5.41662
5.44212
5.46546
5.4868
5.50542
5.52252
5.53977
5.55758
5.57558
5.59313
5.61005
5.62643
5.64166
5.65666
5.67137
5.68538
5.69914
5.7129
5.72699
5.74152
5.75603
5.76965
5.78164
5.79211
5.80173
5.81133
5.82156
5.83259
5.84404
5.85516
5.86522
5.87384
5.88115
5.88756
5.89352
5.89923
5.90461
5.90935
5.91332
5.91652
5.9191
5.92137
5.92293
5.92421
1.40001
1.40001
1.40001
1.40001
1.40001
1.40001
1.40001
1.40001
1.40001
1.40001
1.40001
1.40001
1.40001
1.40001
1.40001
1.40001
1.40001
1.40001
1.40001
1.40001
1.40001
1.40001
1.40001
1.40001
1.40001
1.40001
1.40001
1.40001
1.40001
1.40001
1.40001
1.40001
1.40001
1.40001
1.40001
1.40001
1.40001
1.40001
1.40001
1.40001
1.40001
1.40001
1.40001
1.40001
1.40001
1.40001
1.40001
1.40001
1.40001
2.38095
5.05199
5.40413
5.4237
5.44613
5.46705
5.48675
5.5044
5.52053
5.53656
5.55283
5.56896
5.5849
5.60066
5.61629
5.63101
5.64527
5.65915
5.67203
5.68433
5.69663
5.7092
5.72235
5.73569
5.74836
5.75944
5.76892
5.77752
5.78614
5.79551
5.8058
5.81663
5.82725
5.83694
5.84532
5.85249
5.8588
5.86459
5.87002
5.87502
5.87937
5.88295
5.88579
5.88799
5.8899
5.89109
5.89219
1.40001
1.40001
1.40001
1.40001
1.40001
1.40001
1.40001
1.40001
1.40001
1.40001
1.40001
1.40001
1.40001
1.40001
1.40001
1.40001
1.40001
1.40001
1.40001
1.40001
1.40001
1.40001
1.40001
1.40001
1.40001
1.40001
1.40001
1.40001
1.40001
1.40001
1.40001
1.40001
1.40001
1.40001
1.40001
1.40001
1.40001
1.40001
1.40001
1.40001
1.40001
1.40001
1.40001
1.40001
1.40001
1.40001
1.40001
1.40001
1.40001
1.86324
4.73203
5.42167
5.41516
5.43642
5.45495
5.47444
5.49238
5.50884
5.52513
5.54162
5.5575
5.57285
5.58796
5.60317
5.61798
5.63232
5.6461
5.65845
5.66942
5.68015
5.69118
5.70292
5.71504
5.72663
5.73671
5.74508
5.75239
5.75959
5.7674
5.77601
5.7851
5.794
5.80211
5.80915
5.81522
5.82062
5.82562
5.83037
5.83486
5.83893
5.8425
5.84544
5.84771
5.84959
5.85059
5.85164
1.40001
1.40001
1.40001
1.40001
1.40001
1.40001
1.40001
1.40001
1.40001
1.40001
1.40001
1.40001
1.40001
1.40001
1.40001
1.40001
1.40001
1.40001
1.40001
1.40001
1.40001
1.40001
1.40001
1.40001
1.40001
1.40001
1.40001
1.40001
1.40001
1.40001
1.40001
1.40001
1.40001
1.40001
1.40001
1.40001
1.40001
1.40001
1.40001
1.40001
1.40001
1.40001
1.40001
1.40001
1.40001
1.40001
1.40001
1.40001
1.40001
1.42287
4.08328
5.41025
5.42085
5.43419
5.4503
5.46766
5.48424
5.49976
5.51518
5.53079
5.54543
5.55923
5.57269
5.58646
5.60054
5.61437
5.62746
5.63887
5.64836
5.65724
5.6665
5.6764
5.68693
5.69711
5.70601
5.71325
5.71942
5.72539
5.73181
5.73882
5.74618
5.75341
5.76012
5.76613
5.77152
5.77637
5.78072
5.78446
5.78752
5.78983
5.79151
5.79252
5.79294
5.7932
5.79301
5.79328
1.40001
1.40001
1.40001
1.40001
1.40001
1.40001
1.40001
1.40001
1.40001
1.40001
1.40001
1.40001
1.40001
1.40001
1.40001
1.40001
1.40001
1.40001
1.40001
1.40001
1.40001
1.40001
1.40001
1.40001
1.40001
1.40001
1.40001
1.40001
1.40001
1.40001
1.40001
1.40001
1.40001
1.40001
1.40001
1.40001
1.40001
1.40001
1.40001
1.40001
1.40001
1.40001
1.40001
1.40001
1.40001
1.40001
1.40001
1.40001
1.40001
1.40004
3.20107
5.24489
5.3611
5.38736
5.41191
5.43141
5.44845
5.4642
5.47989
5.496
5.51139
5.52554
5.53883
5.55205
5.56572
5.57955
5.59272
5.60434
5.61411
5.62264
5.6312
5.63996
5.6491
5.65786
5.66553
5.67178
5.67704
5.68196
5.68697
5.6921
5.69716
5.70185
5.70595
5.70937
5.71212
5.71423
5.7157
5.71637
5.71641
5.71639
5.71681
5.7178
5.71866
5.71952
5.71953
5.71991
1.40001
1.40001
1.40001
1.40001
1.40001
1.40001
1.40001
1.40001
1.40001
1.40001
1.40001
1.40001
1.40001
1.40001
1.40001
1.40001
1.40001
1.40001
1.40001
1.40001
1.40001
1.40001
1.40001
1.40001
1.40001
1.40001
1.40001
1.40001
1.40001
1.40001
1.40001
1.40001
1.40001
1.40001
1.40001
1.40001
1.40001
1.40001
1.40001
1.40001
1.40001
1.40001
1.40001
1.40001
1.40001
1.40001
1.40001
1.40001
1.40001
1.4
2.1712
4.88893
5.36721
5.37611
5.40162
5.4205
5.43632
5.45003
5.46335
5.47734
5.49144
5.50479
5.5172
5.52913
5.54114
5.55337
5.56517
5.57559
5.58451
5.59203
5.59896
5.60569
5.61229
5.61852
5.62378
5.6279
5.63115
5.63395
5.63656
5.63894
5.64096
5.64237
5.64303
5.64302
5.64248
5.64163
5.64032
5.63842
5.6361
5.63355
5.63034
5.6263
5.62007
5.61258
5.60453
5.59718
1.40001
1.40001
1.40001
1.40001
1.40001
1.40001
1.40001
1.40001
1.40001
1.40001
1.40001
1.40001
1.40001
1.40001
1.40001
1.40001
1.40001
1.40001
1.40001
1.40001
1.40001
1.40001
1.40001
1.40001
1.40001
1.40001
1.40001
1.40001
1.40001
1.40001
1.40001
1.40001
1.40001
1.40001
1.40001
1.40001
1.40001
1.40001
1.40001
1.40001
1.40001
1.40001
1.40001
1.40001
1.40001
1.40001
1.40001
1.40001
1.40001
1.40001
1.44299
3.96595
5.387
5.39777
5.40565
5.41588
5.42489
5.43373
5.44307
5.45347
5.46464
5.47584
5.48649
5.49661
5.50647
5.51635
5.52601
5.53463
5.54212
5.54881
5.55454
5.55966
5.56384
5.56726
5.56989
5.57156
5.57224
5.57218
5.57167
5.57069
5.56923
5.56708
5.56374
5.55882
5.55224
5.54403
5.53404
5.52244
5.50917
5.49422
5.47768
5.46021
5.44491
5.43171
5.42581
5.42233
1.40001
1.40001
1.40001
1.40001
1.40001
1.40001
1.40001
1.40001
1.40001
1.40001
1.40001
1.40001
1.40001
1.40001
1.40001
1.40001
1.40001
1.40001
1.40001
1.40001
1.40001
1.40001
1.40001
1.40001
1.40001
1.40001
1.40001
1.40001
1.40001
1.40001
1.40001
1.40001
1.40001
1.40001
1.40001
1.40001
1.40001
1.40001
1.40001
1.40001
1.40001
1.40001
1.40001
1.40001
1.40001
1.40001
1.40001
1.40001
1.40001
1.40001
1.40006
2.61568
5.08358
5.3478
5.35864
5.37365
5.38668
5.39882
5.41013
5.42106
5.43214
5.44281
5.45219
5.4601
5.46719
5.47416
5.48131
5.48846
5.495
5.50084
5.50559
5.50883
5.51051
5.511
5.5107
5.50939
5.50676
5.50254
5.49697
5.49062
5.48385
5.47643
5.46776
5.45685
5.44256
5.42455
5.40344
5.38054
5.35668
5.33233
5.30715
5.28073
5.2462
5.20668
5.15184
5.1705
1.40001
1.40001
1.40001
1.40001
1.40001
1.40001
1.40001
1.40001
1.40001
1.40001
1.40001
1.40001
1.40001
1.40001
1.40001
1.40001
1.40001
1.40001
1.40001
1.40001
1.40001
1.40001
1.40001
1.40001
1.40001
1.40001
1.40001
1.40001
1.40001
1.40001
1.40001
1.40001
1.40001
1.40001
1.40001
1.40001
1.40001
1.40001
1.40001
1.40001
1.40001
1.40001
1.40001
1.40001
1.40001
1.40001
1.40001
1.40001
1.40001
1.40001
1.40001
1.5593
4.38582
5.36069
5.35521
5.36088
5.37036
5.38057
5.39095
5.40084
5.41042
5.41919
5.42603
5.4307
5.4342
5.43776
5.44185
5.44659
5.45128
5.45534
5.45848
5.45995
5.45941
5.45699
5.45329
5.44885
5.44307
5.43508
5.42482
5.41276
5.39966
5.386
5.37133
5.35397
5.33165
5.303
5.26797
5.22779
5.1816
5.1279
5.05795
4.96355
4.81683
4.59044
4.18398
3.2831
1.40001
1.40001
1.40001
1.40001
1.40001
1.40001
1.40001
1.40001
1.40001
1.40001
1.40001
1.40001
1.40001
1.40001
1.40001
1.40001
1.40001
1.40001
1.40001
1.40001
1.40001
1.40001
1.40001
1.40001
1.40001
1.40001
1.40001
1.40001
1.40001
1.40001
1.40001
1.40001
1.40001
1.40001
1.40001
1.40001
1.40001
1.40001
1.40001
1.40001
1.40001
1.40001
1.40001
1.40001
1.40001
1.40001
1.40001
1.40001
1.40001
1.40001
1.4
1.40129
3.24296
5.17924
5.30358
5.32457
5.34016
5.35114
5.36226
5.37329
5.38298
5.39168
5.39784
5.401
5.40236
5.40352
5.40511
5.40699
5.40941
5.4121
5.41428
5.41505
5.41308
5.40827
5.40141
5.39363
5.38498
5.37453
5.36132
5.3449
5.32593
5.30568
5.2843
5.26021
5.23027
5.19228
5.14425
5.08764
5.01919
4.93874
4.83208
4.69279
4.48681
4.22032
3.67826
2.9223
1.40001
1.40001
1.40001
1.40001
1.40001
1.40001
1.40001
1.40001
1.40001
1.40001
1.40001
1.40001
1.40001
1.40001
1.40001
1.40001
1.40001
1.40001
1.40001
1.40001
1.40001
1.40001
1.40001
1.40001
1.40001
1.40001
1.40001
1.40001
1.40001
1.40001
1.40001
1.40001
1.40001
1.40001
1.40001
1.40001
1.40001
1.40001
1.40001
1.40001
1.40001
1.40001
1.40001
1.40001
1.40001
1.40001
1.40001
1.40001
1.40001
1.40001
1.40001
1.4
1.97154
4.7346
5.31538
5.31623
5.33011
5.33873
5.34882
5.35899
5.36613
5.37268
5.37759
5.37953
5.37935
5.37845
5.37721
5.37542
5.37428
5.37395
5.37366
5.37256
5.36904
5.36163
5.35115
5.33886
5.3259
5.31197
5.29559
5.27535
5.25109
5.22428
5.19533
5.16373
5.12571
5.07908
5.01991
4.94932
4.86341
4.761
4.63227
4.46509
4.25066
3.93019
3.49553
2.9695
1.40001
1.40001
1.40001
1.40001
1.40001
1.40001
1.40001
1.40001
1.40001
1.40001
1.40001
1.40001
1.40001
1.40001
1.40001
1.40001
1.40001
1.40001
1.40001
1.40001
1.40001
1.40001
1.40001
1.40001
1.40001
1.40001
1.40001
1.40001
1.40001
1.40001
1.40001
1.40001
1.40001
1.40001
1.40001
1.40001
1.40001
1.40001
1.40001
1.40001
1.40001
1.40001
1.40001
1.40001
1.40001
1.40001
1.40001
1.40001
1.40001
1.40001
1.40001
1.4
1.42548
3.55452
5.2102
5.30301
5.32312
5.33663
5.34302
5.34499
5.34309
5.34439
5.3485
5.35153
5.3526
5.35204
5.3493
5.3448
5.33982
5.33525
5.33101
5.32688
5.32137
5.31227
5.29928
5.28339
5.26597
5.24764
5.22727
5.20333
5.17471
5.14263
5.10708
5.06857
5.02325
4.96895
4.90143
4.82047
4.72366
4.60801
4.46881
4.293
4.07766
3.79291
3.45755
3.09119
1.40001
1.40001
1.40001
1.40001
1.40001
1.40001
1.40001
1.40001
1.40001
1.40001
1.40001
1.40001
1.40001
1.40001
1.40001
1.40001
1.40001
1.40001
1.40001
1.40001
1.40001
1.40001
1.40001
1.40001
1.40001
1.40001
1.40001
1.40001
1.40001
1.40001
1.40001
1.40001
1.40001
1.40001
1.40001
1.40001
1.40001
1.40001
1.40001
1.40001
1.40001
1.40001
1.40001
1.40001
1.40001
1.40001
1.40001
1.40001
1.40001
1.40001
1.40001
1.40001
1.4
2.08849
4.79937
5.31412
5.30456
5.32033
5.32677
5.32801
5.32459
5.32252
5.32425
5.32627
5.32765
5.32724
5.32341
5.31695
5.30856
5.29945
5.29063
5.28227
5.27325
5.26209
5.24752
5.22956
5.20875
5.18598
5.16076
5.13243
5.09946
5.06287
5.02224
4.97799
4.92699
4.86672
4.79368
4.70704
4.60543
4.48532
4.3455
4.1722
3.97511
3.73777
3.47175
3.18858
1.40001
1.40001
1.40001
1.40001
1.40001
1.40001
1.40001
1.40001
1.40001
1.40001
1.40001
1.40001
1.40001
1.40001
1.40001
1.40001
1.40001
1.40001
1.40001
1.40001
1.40001
1.40001
1.40001
1.40001
1.40001
1.40001
1.40001
1.40001
1.40001
1.40001
1.40001
1.40001
1.40001
1.40001
1.40001
1.40001
1.40001
1.40001
1.40001
1.40001
1.40001
1.40001
1.40001
1.40001
1.40001
1.40001
1.40001
1.40001
1.40001
1.40001
1.40001
1.40001
1.4
1.43435
3.58835
5.23934
5.28032
5.29339
5.29909
5.29998
5.29872
5.29793
5.29998
5.30202
5.30336
5.30224
5.29759
5.28969
5.27903
5.26682
5.2541
5.24095
5.2269
5.21189
5.19509
5.1758
5.1531
5.12723
5.09778
5.06496
5.02757
4.98668
4.94201
4.89343
4.83854
4.77451
4.69849
4.6097
4.5076
4.38895
4.25312
4.09392
3.91755
3.72186
3.50018
3.27052
1.40001
1.40001
1.40001
1.40001
1.40001
1.40001
1.40001
1.40001
1.40001
1.40001
1.40001
1.40001
1.40001
1.40001
1.40001
1.40001
1.40001
1.40001
1.40001
1.40001
1.40001
1.40001
1.40001
1.40001
1.40001
1.40001
1.40001
1.40001
1.40001
1.40001
1.40001
1.40001
1.40001
1.40001
1.40001
1.40001
1.40001
1.40001
1.40001
1.40001
1.40001
1.40001
1.40001
1.40001
1.40001
1.40001
1.40001
1.40001
1.40001
1.40001
1.40001
1.40001
1.40001
1.40003
2.00175
4.7504
5.30053
5.27872
5.27807
5.27594
5.27309
5.2714
5.27239
5.27365
5.27421
5.2725
5.2675
5.25817
5.24555
5.23185
5.2168
5.20108
5.18357
5.16466
5.14452
5.12308
5.0986
5.07039
5.0377
5.00129
4.9607
4.91684
4.86926
4.81741
4.75954
4.69317
4.61616
4.52769
4.42911
4.3141
4.18721
4.0438
3.88781
3.72234
3.53211
3.34113
1.40001
1.40001
1.40001
1.40001
1.40001
1.40001
1.40001
1.40001
1.40001
1.40001
1.40001
1.40001
1.40001
1.40001
1.40001
1.40001
1.40001
1.40001
1.40001
1.40001
1.40001
1.40001
1.40001
1.40001
1.40001
1.40001
1.40001
1.40001
1.40001
1.40001
1.40001
1.40001
1.40001
1.40001
1.40001
1.40001
1.40001
1.40001
1.40001
1.40001
1.40001
1.40001
1.40001
1.40001
1.40001
1.40001
1.40001
1.40001
1.40001
1.40001
1.40001
1.40001
1.40001
1.40001
1.42369
3.33247
5.14559
5.24979
5.24574
5.24617
5.24895
5.2498
5.25056
5.25094
5.24936
5.24617
5.24033
5.22901
5.21438
5.1995
5.18268
5.16551
5.14575
5.12364
5.09948
5.07445
5.04737
5.01693
4.98161
4.94256
4.90014
4.85463
4.80522
4.75108
4.69094
4.62315
4.54648
4.45955
4.36675
4.25585
4.14037
4.00956
3.87305
3.72695
3.56495
3.40192
1.40001
1.40001
1.40001
1.40001
1.40001
1.40001
1.40001
1.40001
1.40001
1.40001
1.40001
1.40001
1.40001
1.40001
1.40001
1.40001
1.40001
1.40001
1.40001
1.40001
1.40001
1.40001
1.40001
1.40001
1.40001
1.40001
1.40001
1.40001
1.40001
1.40001
1.40001
1.40001
1.40001
1.40001
1.40001
1.40001
1.40001
1.40001
1.40001
1.40001
1.40001
1.40001
1.40001
1.40001
1.40001
1.40001
1.40001
1.40001
1.40001
1.40001
1.40001
1.40001
1.40001
1.40001
1.40002
1.72692
4.51861
5.27532
5.25202
5.24225
5.23179
5.22699
5.22367
5.22063
5.21631
5.2107
5.20331
5.19088
5.17553
5.16023
5.14352
5.12654
5.10647
5.08369
5.05755
5.0294
4.99929
4.96633
4.92882
4.88839
4.84551
4.79964
4.74977
4.69458
4.63296
4.56407
4.48832
4.4031
4.31488
4.2104
4.10601
3.98663
3.86625
3.7348
3.59736
3.45244
1.40001
1.40001
1.40001
1.40001
1.40001
1.40001
1.40001
1.40001
1.40001
1.40001
1.40001
1.40001
1.40001
1.40001
1.40001
1.40001
1.40001
1.40001
1.40001
1.40001
1.40001
1.40001
1.40001
1.40001
1.40001
1.40001
1.40001
1.40001
1.40001
1.40001
1.40001
1.40001
1.40001
1.40001
1.40001
1.40001
1.40001
1.40001
1.40001
1.40001
1.40001
1.40001
1.40001
1.40001
1.40001
1.40001
1.40001
1.40001
1.40001
1.40001
1.40001
1.40001
1.40001
1.40001
1.40001
1.40581
2.90988
5.02169
5.19354
5.19902
5.20079
5.19776
5.1934
5.18742
5.18018
5.172
5.16314
5.15039
5.13511
5.11949
5.10325
5.08684
5.06698
5.04475
5.01803
4.98762
4.95458
4.91934
4.88009
4.83919
4.79646
4.7507
4.70109
4.64593
4.58441
4.51552
4.44126
4.3579
4.27236
4.17666
4.08043
3.97183
3.86363
3.74472
3.62587
3.49572
1.40001
1.40001
1.40001
1.40001
1.40001
1.40001
1.40001
1.40001
1.40001
1.40001
1.40001
1.40001
1.40001
1.40001
1.40001
1.40001
1.40001
1.40001
1.40001
1.40001
1.40001
1.40001
1.40001
1.40001
1.40001
1.40001
1.40001
1.40001
1.40001
1.40001
1.40001
1.40001
1.40001
1.40001
1.40001
1.40001
1.40001
1.40001
1.40001
1.40001
1.40001
1.40001
1.40001
1.40001
1.40001
1.40001
1.40001
1.40001
1.40001
1.40001
1.40001
1.40001
1.40001
1.40001
1.40001
1.40001
1.54821
3.96689
5.17975
5.18757
5.17961
5.17392
5.16982
5.16345
5.15534
5.14461
5.13277
5.118
5.10054
5.08258
5.06508
5.04787
5.02782
5.00623
4.98015
4.94946
4.91476
4.87735
4.83709
4.79594
4.75349
4.70788
4.65874
4.60388
4.54308
4.47512
4.40296
4.32267
4.23959
4.15218
4.06085
3.96258
3.86362
3.756
3.64971
3.53255
1.40001
1.40001
1.40001
1.40001
1.40001
1.40001
1.40001
1.40001
1.40001
1.40001
1.40001
1.40001
1.40001
1.40001
1.40001
1.40001
1.40001
1.40001
1.40001
1.40001
1.40001
1.40001
1.40001
1.40001
1.40001
1.40001
1.40001
1.40001
1.40001
1.40001
1.40001
1.40001
1.40001
1.40001
1.40001
1.40001
1.40001
1.40001
1.40001
1.40001
1.40001
1.40001
1.40001
1.40001
1.40001
1.40001
1.40001
1.40001
1.40001
1.40001
1.40001
1.40001
1.40001
1.40001
1.40001
1.40001
1.40106
2.10818
4.75019
5.17456
5.14922
5.14793
5.14512
5.14012
5.13196
5.11952
5.10478
5.08829
5.06882
5.04847
5.02901
5.01002
4.9895
4.96778
4.94231
4.91229
4.87694
4.83822
4.79801
4.75641
4.71441
4.66869
4.62005
4.5662
4.50742
4.44095
4.37198
4.29595
4.21641
4.13548
4.04795
3.95912
3.86623
3.76887
3.67047
3.56522
1.40001
1.40001
1.40001
1.40001
1.40001
1.40001
1.40001
1.40001
1.40001
1.40001
1.40001
1.40001
1.40001
1.40001
1.40001
1.40001
1.40001
1.40001
1.40001
1.40001
1.40001
1.40001
1.40001
1.40001
1.40001
1.40001
1.40001
1.40001
1.40001
1.40001
1.40001
1.40001
1.40001
1.40001
1.40001
1.40001
1.40001
1.40001
1.40001
1.40001
1.40001
1.40001
1.40001
1.40001
1.40001
1.40001
1.40001
1.40001
1.40001
1.40001
1.40001
1.40001
1.40001
1.40001
1.40001
1.40001
1.40001
1.42996
3.08861
5.03249
5.13201
5.13025
5.12695
5.12114
5.11242
5.0989
5.08181
5.06317
5.04194
5.01965
4.99876
4.97835
4.95702
4.93449
4.9079
4.87798
4.84231
4.80344
4.76301
4.72196
4.67971
4.63527
4.58679
4.53403
4.47715
4.41253
4.34677
4.27561
4.20084
4.12476
4.04207
3.96048
3.87144
3.78246
3.69019
3.59459
1.40001
1.40001
1.40001
1.40001
1.40001
1.40001
1.40001
1.40001
1.40001
1.40001
1.40001
1.40001
1.40001
1.40001
1.40001
1.40001
1.40001
1.40001
1.40001
1.40001
1.40001
1.40001
1.40001
1.40001
1.40001
1.40001
1.40001
1.40001
1.40001
1.40001
1.40001
1.40001
1.40001
1.40001
1.40001
1.40001
1.40001
1.40001
1.40001
1.40001
1.40001
1.40001
1.40001
1.40001
1.40001
1.40001
1.40001
1.40001
1.40001
1.40001
1.40001
1.40001
1.40001
1.40001
1.40001
1.40001
1.40001
1.40007
1.57667
3.78104
5.0837
5.13492
5.12268
5.11315
5.10117
5.08463
5.06547
5.04443
5.02132
4.99699
4.9742
4.95225
4.92991
4.90594
4.8778
4.8468
4.81148
4.77245
4.73206
4.69028
4.64788
4.60421
4.55595
4.50464
4.44887
4.38844
4.32609
4.25959
4.18981
4.11745
4.04025
3.96387
3.87947
3.7974
3.71047
3.62217
1.40001
1.40001
1.40001
1.40001
1.40001
1.40001
1.40001
1.40001
1.40001
1.40001
1.40001
1.40001
1.40001
1.40001
1.40001
1.40001
1.40001
1.40001
1.40001
1.40001
1.40001
1.40001
1.40001
1.40001
1.40001
1.40001
1.40001
1.40001
1.40001
1.40001
1.40001
1.40001
1.40001
1.40001
1.40001
1.40001
1.40001
1.40001
1.40001
1.40001
1.40001
1.40001
1.40001
1.40001
1.40001
1.40001
1.40001
1.40001
1.40001
1.40001
1.40001
1.40001
1.40001
1.40001
1.40001
1.40001
1.40001
1.40001
1.40164
1.80017
4.47124
5.17536
5.14392
5.11522
5.08833
5.06523
5.04339
5.02128
4.99753
4.97332
4.94965
4.92724
4.90462
4.87985
4.85084
4.81803
4.78305
4.74341
4.70287
4.66119
4.619
4.57546
4.52824
4.47849
4.42611
4.36982
4.31098
4.24789
4.18213
4.11271
4.04027
3.96818
3.88927
3.81269
3.73096
3.64823
1.40001
1.40001
1.40001
1.40001
1.40001
1.40001
1.40001
1.40001
1.40001
1.40001
1.40001
1.40001
1.40001
1.40001
1.40001
1.40001
1.40001
1.40001
1.40001
1.40001
1.40001
1.40001
1.40001
1.40001
1.40001
1.40001
1.40001
1.40001
1.40001
1.40001
1.40001
1.40001
1.40001
1.40001
1.40001
1.40001
1.40001
1.40001
1.40001
1.40001
1.40001
1.40001
1.40001
1.40001
1.40001
1.40001
1.40001
1.40001
1.40001
1.40001
1.40001
1.40001
1.40001
1.40001
1.40001
1.40001
1.40001
1.40001
1.40001
1.40873
2.56062
4.90409
5.10428
5.07236
5.04996
5.02943
5.01175
4.99383
4.97434
4.95356
4.9317
4.90799
4.88364
4.85786
4.8276
4.79375
4.75885
4.7196
4.67879
4.63693
4.59451
4.55061
4.50395
4.45609
4.40635
4.35334
4.29781
4.23787
4.17561
4.10929
4.0406
3.97208
3.89865
3.82684
3.74999
3.67259
1.40001
1.40001
1.40001
1.40001
1.40001
1.40001
1.40001
1.40001
1.40001
1.40001
1.40001
1.40001
1.40001
1.40001
1.40001
1.40001
1.40001
1.40001
1.40001
1.40001
1.40001
1.40001
1.40001
1.40001
1.40001
1.40001
1.40001
1.40001
1.40001
1.40001
1.40001
1.40001
1.40001
1.40001
1.40001
1.40001
1.40001
1.40001
1.40001
1.40001
1.40001
1.40001
1.40001
1.40001
1.40001
1.40001
1.40001
1.40001
1.40001
1.40001
1.40001
1.40001
1.40001
1.40001
1.40001
1.40001
1.40001
1.40001
1.40001
1.40002
1.47821
3.19943
4.98552
5.03629
5.02204
5.0173
5.00492
4.98895
4.96977
4.94864
4.92592
4.90082
4.87363
4.84629
4.81421
4.77867
4.74262
4.70286
4.66121
4.61865
4.57549
4.53168
4.48557
4.4392
4.39142
4.34073
4.28757
4.23043
4.17124
4.10809
4.0425
3.97664
3.90792
3.83978
3.76719
3.69437
1.40001
1.40001
1.40001
1.40001
1.40001
1.40001
1.40001
1.40001
1.40001
1.40001
1.40001
1.40001
1.40001
1.40001
1.40001
1.40001
1.40001
1.40001
1.40001
1.40001
1.40001
1.40001
1.40001
1.40001
1.40001
1.40001
1.40001
1.40001
1.40001
1.40001
1.40001
1.40001
1.40001
1.40001
1.40001
1.40001
1.40001
1.40001
1.40001
1.40001
1.40001
1.40001
1.40001
1.40001
1.40001
1.40001
1.40001
1.40001
1.40001
1.40001
1.40001
1.40001
1.40001
1.40001
1.40001
1.40001
1.40001
1.40001
1.40001
1.40001
1.40041
1.5986
3.58072
4.98356
5.01025
5.00495
4.99653
4.98156
4.96351
4.94292
4.91983
4.89399
4.86543
4.83613
4.80303
4.76729
4.73005
4.68989
4.64807
4.60527
4.56166
4.51756
4.47207
4.42618
4.37929
4.33019
4.27861
4.22381
4.16712
4.10705
4.04468
3.98113
3.91623
3.85101
3.78253
3.71341
1.40001
1.40001
1.40001
1.40001
1.40001
1.40001
1.40001
1.40001
1.40001
1.40001
1.40001
1.40001
1.40001
1.40001
1.40001
1.40001
1.40001
1.40001
1.40001
1.40001
1.40001
1.40001
1.40001
1.40001
1.40001
1.40001
1.40001
1.40001
1.40001
1.40001
1.40001
1.40001
1.40001
1.40001
1.40001
1.40001
1.40001
1.40001
1.40001
1.40001
1.40001
1.40001
1.40001
1.40001
1.40001
1.40001
1.40001
1.40001
1.40001
1.40001
1.40001
1.40001
1.40001
1.40001
1.40001
1.40001
1.40001
1.40001
1.40001
1.40001
1.40001
1.4022
1.7191
3.89914
5.01021
5.00899
4.99386
4.97526
4.95574
4.93399
4.91049
4.88464
4.85665
4.82708
4.79462
4.75975
4.72237
4.68247
4.64091
4.59831
4.55483
4.51055
4.46531
4.41962
4.37265
4.32394
4.27324
4.22006
4.16471
4.10651
4.04638
3.98524
3.92341
3.86116
3.79676
3.73088
1.40001
1.40001
1.40001
1.40001
1.40001
1.40001
1.40001
1.40001
1.40001
1.40001
1.40001
1.40001
1.40001
1.40001
1.40001
1.40001
1.40001
1.40001
1.40001
1.40001
1.40001
1.40001
1.40001
1.40001
1.40001
1.40001
1.40001
1.40001
1.40001
1.40001
1.40001
1.40001
1.40001
1.40001
1.40001
1.40001
1.40001
1.40001
1.40001
1.40001
1.40001
1.40001
1.40001
1.40001
1.40001
1.40001
1.40001
1.40001
1.40001
1.40001
1.40001
1.40001
1.40001
1.40001
1.40001
1.40001
1.40001
1.40001
1.40001
1.40001
1.40001
1.40001
1.40555
1.85461
4.18193
5.01739
5.00133
4.97819
4.95386
4.92903
4.90255
4.87468
4.84571
4.81564
4.78382
4.74963
4.71301
4.67445
4.63443
4.59322
4.55088
4.50728
4.4624
4.41674
4.3698
4.32105
4.27057
4.21819
4.16366
4.10688
4.04872
3.99011
3.93065
3.87137
3.81051
3.74762
1.40001
1.40001
1.40001
1.40001
1.40001
1.40001
1.40001
1.40001
1.40001
1.40001
1.40001
1.40001
1.40001
1.40001
1.40001
1.40001
1.40001
1.40001
1.40001
1.40001
1.40001
1.40001
1.40001
1.40001
1.40001
1.40001
1.40001
1.40001
1.40001
1.40001
1.40001
1.40001
1.40001
1.40001
1.40001
1.40001
1.40001
1.40001
1.40001
1.40001
1.40001
1.40001
1.40001
1.40001
1.40001
1.40001
1.40001
1.40001
1.40001
1.40001
1.40001
1.40001
1.40001
1.40001
1.40001
1.40001
1.40001
1.40001
1.40001
1.40001
1.40001
1.40001
1.40002
1.41116
2.00747
4.38848
5.02665
5.0004
4.97028
4.93835
4.90746
4.8755
4.84186
4.8086
4.77489
4.73985
4.70362
4.66642
4.62823
4.58889
4.54828
4.50625
4.46267
4.41746
4.37064
4.32218
4.27197
4.22
4.16617
4.11077
4.05467
3.99797
3.94015
3.88335
3.82541
3.76524
1.40001
1.40001
1.40001
1.40001
1.40001
1.40001
1.40001
1.40001
1.40001
1.40001
1.40001
1.40001
1.40001
1.40001
1.40001
1.40001
1.40001
1.40001
1.40001
1.40001
1.40001
1.40001
1.40001
1.40001
1.40001
1.40001
1.40001
1.40001
1.40001
1.40001
1.40001
1.40001
1.40001
1.40001
1.40001
1.40001
1.40001
1.40001
1.40001
1.40001
1.40001
1.40001
1.40001
1.40001
1.40001
1.40001
1.40001
1.40001
1.40001
1.40001
1.40001
1.40001
1.40001
1.40001
1.40001
1.40001
1.40001
1.40001
1.40001
1.40001
1.40001
1.40001
1.40001
1.40004
1.41995
2.15479
4.56523
5.02477
4.99432
4.96015
4.92183
4.88383
4.84627
4.80964
4.77238
4.73507
4.69789
4.66064
4.62301
4.58459
4.54501
4.50407
4.46156
4.41724
4.37135
4.3242
4.27533
4.22468
4.17229
4.11845
4.06406
4.00869
3.95219
3.89718
3.84179
3.78374
1.40001
1.40001
1.40001
1.40001
1.40001
1.40001
1.40001
1.40001
1.40001
1.40001
1.40001
1.40001
1.40001
1.40001
1.40001
1.40001
1.40001
1.40001
1.40001
1.40001
1.40001
1.40001
1.40001
1.40001
1.40001
1.40001
1.40001
1.40001
1.40001
1.40001
1.40001
1.40001
1.40001
1.40001
1.40001
1.40001
1.40001
1.40001
1.40001
1.40001
1.40001
1.40001