/*--------------------------------*- C++ -*----------------------------------*\
  =========                 |
  \\      /  F ield         | OpenFOAM: The Open Source CFD Toolbox
   \\    /   O peration     | Website:  https://openfoam.org
    \\  /    A nd           | Version:  7
     \\/     M anipulation  |
\*---------------------------------------------------------------------------*/
FoamFile
{
    version     2.0;
    format      ascii;
    class       volVectorField;
    location    "6.3";
    object      U;
}
// * * * * * * * * * * * * * * * * * * * * * * * * * * * * * * * * * * * * * //

dimensions      [0 1 -1 0 0 0 0];

internalField   nonuniform List<vector> 
19968
(
(3 4.16368e-17 0)
(3 1.4405e-16 0)
(3 1.43624e-16 0)
(3 3.13369e-18 0)
(3 -6.99474e-17 0)
(3 -2.05045e-16 0)
(3 -1.03475e-16 0)
(3 1.29868e-16 0)
(3 9.28012e-17 0)
(3 2.08431e-16 0)
(3 2.52303e-16 0)
(3 3.98883e-16 0)
(3 3.19394e-16 0)
(3 2.2332e-16 0)
(3 4.22776e-17 0)
(3 2.02715e-16 0)
(3 9.6941e-16 0)
(3 9.07334e-16 0)
(3 7.3865e-16 0)
(3 6.34773e-16 0)
(3 -3.09154e-16 0)
(3 -1.0147e-15 0)
(3 -8.75029e-16 0)
(3 -4.12652e-16 0)
(3 5.21189e-16 0)
(3 1.16764e-15 0)
(3 1.06917e-15 0)
(3 6.64868e-16 0)
(3 5.04362e-16 0)
(3 1.24354e-15 0)
(3 2.17405e-15 0)
(3 2.31537e-15 0)
(3 2.08929e-15 0)
(3 1.30307e-15 0)
(3 3.49002e-16 0)
(3 2.01667e-16 0)
(3 9.216e-16 0)
(3 1.09581e-15 0)
(3 7.49647e-16 0)
(3 4.46968e-16 0)
(3 2.14869e-16 0)
(3 1.8245e-16 0)
(3 2.71291e-16 0)
(3 -1.87535e-16 0)
(3 -6.8974e-16 0)
(3 -1.29154e-15 0)
(3 -1.28057e-15 0)
(3 -9.2595e-16 0)
(2.81587 0.00158828 0)
(0.975563 0.0040235 0)
(0.761107 0.00962385 0)
(0.742614 0.00917242 0)
(0.72567 0.00797415 0)
(0.711101 0.00753773 0)
(0.697018 0.00793894 0)
(0.682675 0.00882678 0)
(0.667593 0.00953551 0)
(0.652153 0.00939823 0)
(0.637102 0.00862868 0)
(0.622523 0.0081544 0)
(0.607767 0.00847748 0)
(0.592115 0.0093451 0)
(0.575567 0.00986505 0)
(0.559214 0.00948091 0)
(0.543882 0.00900763 0)
(0.529191 0.0091336 0)
(0.514504 0.00954454 0)
(0.499606 0.00985408 0)
(0.484463 0.0100034 0)
(0.469003 0.0100661 0)
(0.453205 0.0101028 0)
(0.437152 0.0101717 0)
(0.420951 0.0102953 0)
(0.404663 0.0104413 0)
(0.388308 0.0105734 0)
(0.371895 0.0106903 0)
(0.355453 0.010805 0)
(0.339031 0.0109145 0)
(0.322656 0.0110147 0)
(0.306271 0.0111151 0)
(0.289746 0.0112237 0)
(0.272968 0.0113391 0)
(0.255906 0.01146 0)
(0.238601 0.0115894 0)
(0.221111 0.0117324 0)
(0.203468 0.011895 0)
(0.185678 0.0120833 0)
(0.16775 0.0123001 0)
(0.149706 0.0125459 0)
(0.131529 0.0128185 0)
(0.113113 0.0131198 0)
(0.0942582 0.013445 0)
(0.074743 0.0138071 0)
(0.0543333 0.0142186 0)
(0.0331242 0.0144983 0)
(0.0112283 0.0149054 0)
(3 2.77177e-17 0)
(3 -1.03363e-17 0)
(3 -1.3655e-16 0)
(3 -1.98908e-16 0)
(3 -3.60883e-16 0)
(3 -6.68867e-16 0)
(3 -4.30688e-16 0)
(3 -1.56374e-16 0)
(3 -2.60996e-16 0)
(3 -1.97025e-16 0)
(3 -5.41078e-16 0)
(3 -2.54112e-16 0)
(3 -4.08137e-16 0)
(3 2.13883e-17 0)
(3 2.00112e-16 0)
(3 5.3917e-16 0)
(3 5.53957e-16 0)
(3 4.83011e-16 0)
(3 3.67769e-16 0)
(3 3.7655e-16 0)
(3 -1.47758e-15 0)
(3 -2.1715e-15 0)
(3 -2.07219e-15 0)
(3 -1.54282e-15 0)
(3 9.03394e-17 0)
(3 9.81346e-16 0)
(3 2.22323e-16 0)
(3 -4.49804e-16 0)
(3 -1.03666e-15 0)
(3 -6.28393e-16 0)
(3 9.66534e-16 0)
(3 2.55694e-15 0)
(3 1.9493e-15 0)
(3 1.41274e-15 0)
(3 1.03867e-15 0)
(3 2.1025e-16 0)
(3 8.87223e-18 0)
(3 -7.77109e-16 0)
(3 -4.67269e-16 0)
(3 -5.80034e-16 0)
(3 -6.23142e-16 0)
(3 -1.16452e-17 0)
(3 -2.76032e-16 0)
(3 -5.34508e-16 0)
(3 -1.74681e-15 0)
(3 -3.55564e-15 0)
(3 -2.69903e-15 0)
(3 -1.71909e-15 0)
(2.82686 0.00989494 0)
(0.978048 0.0228574 0)
(0.756662 0.0316558 0)
(0.738369 0.0280226 0)
(0.721673 0.024294 0)
(0.706933 0.022578 0)
(0.692811 0.0236341 0)
(0.678758 0.0262228 0)
(0.664134 0.0283425 0)
(0.649119 0.0283458 0)
(0.634205 0.0266642 0)
(0.619315 0.0254195 0)
(0.604198 0.0261467 0)
(0.588544 0.0283906 0)
(0.572211 0.0297486 0)
(0.556136 0.0287944 0)
(0.540831 0.027596 0)
(0.525976 0.0279514 0)
(0.511147 0.0290708 0)
(0.496165 0.0298814 0)
(0.481017 0.0302995 0)
(0.465576 0.0305692 0)
(0.449752 0.0308032 0)
(0.433612 0.0310823 0)
(0.417295 0.0314482 0)
(0.400904 0.0318497 0)
(0.384463 0.0322205 0)
(0.367972 0.0325635 0)
(0.351452 0.0329086 0)
(0.33495 0.0332437 0)
(0.318497 0.0335518 0)
(0.302051 0.0338528 0)
(0.285499 0.0341643 0)
(0.268737 0.0344832 0)
(0.251728 0.0348142 0)
(0.234495 0.0351777 0)
(0.217085 0.0355988 0)
(0.199526 0.036099 0)
(0.181831 0.036694 0)
(0.164019 0.0373877 0)
(0.146122 0.038176 0)
(0.128134 0.0390443 0)
(0.10997 0.0399855 0)
(0.0914491 0.0409782 0)
(0.0723733 0.0420456 0)
(0.052531 0.0432399 0)
(0.0319741 0.0440258 0)
(0.0108365 0.0451588 0)
(3 -2.1086e-16 0)
(3 -2.06849e-16 0)
(3 -5.7219e-16 0)
(3 -7.91659e-16 0)
(3 -1.01284e-15 0)
(3 -9.17341e-16 0)
(3 -1.39393e-15 0)
(3 -1.61409e-15 0)
(3 -2.00647e-15 0)
(3 -2.38082e-15 0)
(3 -2.34049e-15 0)
(3 -1.99473e-15 0)
(3 -1.81181e-15 0)
(3 -1.20551e-15 0)
(3 -6.05426e-17 0)
(3 2.80895e-16 0)
(3 5.35793e-17 0)
(3 2.01013e-16 0)
(3 1.0687e-15 0)
(3 5.20413e-16 0)
(3 3.76768e-16 0)
(3 1.49876e-18 0)
(3 3.27805e-16 0)
(3 6.0462e-16 0)
(3 -3.86868e-16 0)
(3 -7.70769e-16 0)
(3 -5.44291e-16 0)
(3 -6.80027e-16 0)
(3 -9.44278e-16 0)
(3 -3.99923e-16 0)
(3 -6.11821e-17 0)
(3 -3.0901e-16 0)
(3 1.16594e-15 0)
(3 2.79335e-15 0)
(3 2.7972e-15 0)
(3 9.50706e-16 0)
(3 -9.97789e-16 0)
(3 -1.95863e-15 0)
(3 -1.99093e-15 0)
(3 -1.89284e-15 0)
(3 -1.62903e-15 0)
(3 -1.32498e-15 0)
(3 8.85832e-17 0)
(3 8.49944e-17 0)
(3 -3.38194e-16 0)
(3 -1.70066e-16 0)
(3 -5.9074e-16 0)
(3 -8.04663e-16 0)
(2.85599 0.0170352 0)
(0.992257 0.0438605 0)
(0.759478 0.0521112 0)
(0.742778 0.0469937 0)
(0.726091 0.0425817 0)
(0.71038 0.0401722 0)
(0.695133 0.0415136 0)
(0.680539 0.0451052 0)
(0.665825 0.0479955 0)
(0.650911 0.048052 0)
(0.635948 0.0459275 0)
(0.620612 0.0443308 0)
(0.604969 0.0454655 0)
(0.589171 0.0487638 0)
(0.572896 0.0506918 0)
(0.556994 0.049276 0)
(0.541641 0.0476041 0)
(0.526565 0.0482735 0)
(0.511523 0.0500359 0)
(0.496331 0.0512149 0)
(0.481035 0.0517902 0)
(0.465485 0.0522558 0)
(0.449534 0.0527625 0)
(0.433212 0.0533321 0)
(0.416674 0.0539731 0)
(0.400057 0.0546348 0)
(0.383403 0.0552587 0)
(0.36671 0.0558511 0)
(0.349989 0.056437 0)
(0.333278 0.0569843 0)
(0.316605 0.0574686 0)
(0.299948 0.0579332 0)
(0.283228 0.0584185 0)
(0.266366 0.0589254 0)
(0.249326 0.0594603 0)
(0.232118 0.0600531 0)
(0.214761 0.060742 0)
(0.197268 0.0615582 0)
(0.179641 0.0625209 0)
(0.161895 0.063629 0)
(0.144056 0.0648725 0)
(0.126124 0.0662289 0)
(0.108037 0.0676895 0)
(0.0896486 0.0692305 0)
(0.0707979 0.0708806 0)
(0.0513136 0.0727523 0)
(0.0311835 0.0739463 0)
(0.0105891 0.0757016 0)
(3 -2.03328e-17 0)
(3 1.26904e-16 0)
(3 1.24231e-16 0)
(3 -2.89727e-17 0)
(3 1.35044e-16 0)
(3 1.80282e-16 0)
(3 -5.0652e-16 0)
(3 -1.27854e-15 0)
(3 -1.75583e-15 0)
(3 -2.17087e-15 0)
(3 -1.7365e-15 0)
(3 -2.3171e-15 0)
(3 -1.76763e-15 0)
(3 -1.38834e-15 0)
(3 -9.57108e-16 0)
(3 -5.03304e-16 0)
(3 1.07896e-16 0)
(3 5.82038e-16 0)
(3 1.13326e-15 0)
(3 1.56456e-15 0)
(3 1.84534e-15 0)
(3 1.72229e-15 0)
(3 1.95187e-15 0)
(3 1.31128e-15 0)
(3 -3.92117e-16 0)
(3 -6.19619e-16 0)
(3 -5.01827e-16 0)
(3 6.69062e-16 0)
(3 1.36164e-15 0)
(3 1.01538e-15 0)
(3 2.9769e-16 0)
(3 -6.19478e-16 0)
(3 5.06635e-16 0)
(3 3.03685e-15 0)
(3 3.34912e-15 0)
(3 2.21584e-15 0)
(3 1.09735e-15 0)
(3 6.49669e-16 0)
(3 1.26833e-17 0)
(3 1.38871e-16 0)
(3 3.54833e-16 0)
(3 4.87844e-16 0)
(3 1.80214e-15 0)
(3 2.33793e-15 0)
(3 2.35712e-15 0)
(3 2.37334e-15 0)
(3 2.28803e-15 0)
(3 1.57285e-15 0)
(2.89501 0.0209916 0)
(1.01343 0.0649982 0)
(0.760742 0.069999 0)
(0.74511 0.0654573 0)
(0.729535 0.0617689 0)
(0.713927 0.059543 0)
(0.698303 0.0610186 0)
(0.683531 0.0649511 0)
(0.668959 0.0680691 0)
(0.654275 0.0682706 0)
(0.639287 0.0662695 0)
(0.623598 0.0646828 0)
(0.607529 0.066094 0)
(0.591671 0.0700254 0)
(0.575566 0.0722897 0)
(0.559913 0.0706609 0)
(0.544583 0.0688461 0)
(0.529395 0.0699271 0)
(0.514221 0.072298 0)
(0.498835 0.0737571 0)
(0.483364 0.0744092 0)
(0.467662 0.0750798 0)
(0.451541 0.0759652 0)
(0.434987 0.076945 0)
(0.418161 0.077925 0)
(0.401229 0.0788713 0)
(0.384254 0.0797758 0)
(0.36723 0.0806533 0)
(0.35016 0.0815064 0)
(0.33307 0.0822752 0)
(0.315986 0.0829273 0)
(0.298906 0.0835301 0)
(0.281784 0.0841516 0)
(0.264574 0.0848002 0)
(0.247254 0.0854841 0)
(0.229832 0.0862431 0)
(0.212331 0.0871337 0)
(0.194768 0.0882034 0)
(0.177152 0.0894797 0)
(0.159492 0.0909583 0)
(0.141802 0.0926247 0)
(0.124063 0.0944495 0)
(0.106207 0.0964184 0)
(0.0880917 0.0985126 0)
(0.0695524 0.100739 0)
(0.0504444 0.103291 0)
(0.0306446 0.10488 0)
(0.0104748 0.107233 0)
(3 1.66385e-16 0)
(3 1.70073e-16 0)
(3 3.46812e-16 0)
(3 5.04852e-16 0)
(3 9.52182e-16 0)
(3 1.03378e-15 0)
(3 1.19129e-15 0)
(3 1.01617e-15 0)
(3 8.05198e-16 0)
(3 6.68214e-16 0)
(3 3.91324e-16 0)
(3 -4.55346e-17 0)
(3 -7.08642e-17 0)
(3 -5.07682e-16 0)
(3 -9.12385e-16 0)
(3 -7.21144e-16 0)
(3 -4.79406e-16 0)
(3 -5.69846e-16 0)
(3 -1.10067e-15 0)
(3 -9.04462e-16 0)
(3 -2.07986e-16 0)
(3 -3.22905e-16 0)
(3 -6.40477e-16 0)
(3 -1.02275e-15 0)
(3 -6.03326e-16 0)
(3 -8.24649e-16 0)
(3 -1.35067e-15 0)
(3 -1.06312e-15 0)
(3 -8.31834e-16 0)
(3 -1.05922e-15 0)
(3 -1.28692e-15 0)
(3 -1.29571e-15 0)
(3 -1.38538e-15 0)
(3 -5.45785e-16 0)
(3 8.73744e-16 0)
(3 1.81565e-15 0)
(3 2.4999e-15 0)
(3 2.41877e-15 0)
(3 2.12772e-15 0)
(3 1.91517e-15 0)
(3 1.34385e-15 0)
(3 1.27024e-15 0)
(3 1.66623e-15 0)
(3 2.48875e-15 0)
(3 2.6101e-15 0)
(3 1.20742e-15 0)
(3 -3.10586e-17 0)
(3 -1.65787e-16 0)
(2.9391 0.0287694 0)
(1.03925 0.0935525 0)
(0.762671 0.0873043 0)
(0.749473 0.0829293 0)
(0.734689 0.081148 0)
(0.719232 0.0801059 0)
(0.703324 0.0818536 0)
(0.688379 0.0855753 0)
(0.674141 0.0884309 0)
(0.659983 0.0889047 0)
(0.645201 0.0876297 0)
(0.629331 0.0865276 0)
(0.61287 0.0881979 0)
(0.596796 0.092321 0)
(0.580805 0.0946619 0)
(0.565435 0.0930557 0)
(0.550288 0.091436 0)
(0.535268 0.0930528 0)
(0.520258 0.096049 0)
(0.50493 0.097758 0)
(0.489498 0.0984144 0)
(0.473846 0.0992685 0)
(0.457768 0.100629 0)
(0.441179 0.102179 0)
(0.424213 0.103622 0)
(0.40707 0.104929 0)
(0.38984 0.106189 0)
(0.372515 0.107444 0)
(0.355082 0.108671 0)
(0.337551 0.10978 0)
(0.319937 0.110726 0)
(0.302246 0.111585 0)
(0.28446 0.112437 0)
(0.266555 0.113285 0)
(0.248525 0.114127 0)
(0.230391 0.114999 0)
(0.212188 0.11597 0)
(0.193958 0.117103 0)
(0.175736 0.118441 0)
(0.157555 0.119992 0)
(0.139447 0.121768 0)
(0.121425 0.123778 0)
(0.103458 0.126034 0)
(0.0854477 0.128559 0)
(0.0672285 0.131302 0)
(0.048681 0.134552 0)
(0.0295095 0.136572 0)
(0.0101365 0.13954 0)
(3 2.6748e-16 0)
(3 5.80884e-16 0)
(3 7.39638e-16 0)
(3 1.07155e-15 0)
(3 7.9327e-16 0)
(3 9.62468e-16 0)
(3 1.4139e-15 0)
(3 1.9567e-15 0)
(3 1.82006e-15 0)
(3 1.43764e-15 0)
(3 6.27953e-16 0)
(3 -8.66761e-17 0)
(3 -5.25147e-16 0)
(3 -8.83518e-16 0)
(3 -1.02029e-15 0)
(3 -8.19919e-16 0)
(3 -1.2671e-15 0)
(3 -1.90575e-15 0)
(3 -1.89174e-15 0)
(3 -1.66416e-15 0)
(3 -1.46909e-15 0)
(3 -1.31921e-15 0)
(3 -1.4162e-15 0)
(3 -1.17707e-15 0)
(3 -8.2615e-16 0)
(3 -1.51512e-15 0)
(3 -1.73401e-15 0)
(3 -1.99895e-15 0)
(3 -1.86768e-15 0)
(3 -1.38016e-15 0)
(3 -1.24666e-15 0)
(3 -1.6736e-15 0)
(3 -1.75477e-15 0)
(3 -1.94089e-15 0)
(3 -1.919e-15 0)
(3 -4.66584e-16 0)
(3 6.66258e-16 0)
(3 1.27581e-15 0)
(3 1.65924e-15 0)
(3 1.31526e-15 0)
(3 3.10958e-16 0)
(3 1.08701e-15 0)
(3 1.55513e-15 0)
(3 2.68094e-15 0)
(3 2.98671e-15 0)
(3 2.42607e-15 0)
(3 2.0076e-16 0)
(3 -1.47815e-15 0)
(2.99372 0.00230685 0)
(1.10006 0.118009 0)
(0.77542 0.0965449 0)
(0.761068 0.0992876 0)
(0.745456 0.100928 0)
(0.729115 0.102108 0)
(0.712728 0.103907 0)
(0.697644 0.106283 0)
(0.683816 0.107973 0)
(0.670287 0.108666 0)
(0.655899 0.108804 0)
(0.640078 0.109025 0)
(0.62343 0.111139 0)
(0.607134 0.11498 0)
(0.591248 0.116872 0)
(0.576187 0.11521 0)
(0.56132 0.113925 0)
(0.546647 0.116118 0)
(0.532002 0.11978 0)
(0.516898 0.121782 0)
(0.501642 0.122351 0)
(0.486181 0.123251 0)
(0.470333 0.125061 0)
(0.453931 0.127297 0)
(0.437031 0.129347 0)
(0.419867 0.131116 0)
(0.402575 0.132832 0)
(0.385152 0.134605 0)
(0.367562 0.136382 0)
(0.349789 0.138046 0)
(0.33183 0.139534 0)
(0.313687 0.140918 0)
(0.295356 0.142277 0)
(0.276827 0.143607 0)
(0.258102 0.144881 0)
(0.239202 0.146114 0)
(0.220164 0.147368 0)
(0.20103 0.1487 0)
(0.18184 0.150151 0)
(0.162632 0.151735 0)
(0.143463 0.15349 0)
(0.124397 0.155479 0)
(0.105476 0.157751 0)
(0.0866881 0.160427 0)
(0.0678925 0.163391 0)
(0.0490254 0.167121 0)
(0.0296235 0.169426 0)
(0.0102113 0.172889 0)
(3 1.26375e-16 0)
(3 1.5327e-16 0)
(3 2.57125e-16 0)
(3 4.18582e-16 0)
(3 4.73408e-16 0)
(3 4.29847e-16 0)
(3 -6.2518e-17 0)
(3 -2.56909e-16 0)
(3 -3.19594e-17 0)
(3 -6.77284e-17 0)
(3 -1.33363e-16 0)
(3 -4.93719e-16 0)
(3 -1.77351e-16 0)
(3 -5.16652e-16 0)
(3 -8.73858e-16 0)
(3 -1.93013e-15 0)
(3 -2.04593e-15 0)
(3 -2.4354e-15 0)
(3 -2.77162e-15 0)
(3 -2.73279e-15 0)
(3 -3.19831e-15 0)
(3 -3.44381e-15 0)
(3 -3.52315e-15 0)
(3 -3.15698e-15 0)
(3 -2.99436e-15 0)
(3 -2.93509e-15 0)
(3 -2.67641e-15 0)
(3 -2.43665e-15 0)
(3 -2.09903e-15 0)
(3 -1.80362e-15 0)
(3 -2.17078e-15 0)
(3 -2.56253e-15 0)
(3 -2.57705e-15 0)
(3 -2.20792e-15 0)
(3 -1.23201e-15 0)
(3 -5.3748e-16 0)
(3 5.16119e-16 0)
(3 3.81233e-18 0)
(3 -1.98862e-16 0)
(3 2.52849e-16 0)
(3 6.03445e-16 0)
(3 9.7034e-16 0)
(3 1.19908e-15 0)
(3 1.73661e-15 0)
(3 1.66187e-15 0)
(3 5.98757e-16 0)
(3 5.63126e-16 0)
(3 -3.93709e-16 0)
(3.00001 0.00010134 0)
(1.21785 0.136837 0)
(0.778143 0.112516 0)
(0.757788 0.122396 0)
(0.740781 0.126659 0)
(0.723113 0.128378 0)
(0.706614 0.128511 0)
(0.69207 0.128224 0)
(0.678967 0.128474 0)
(0.666024 0.12963 0)
(0.652091 0.131621 0)
(0.636599 0.133785 0)
(0.620192 0.13649 0)
(0.60408 0.139644 0)
(0.588633 0.140787 0)
(0.574056 0.139138 0)
(0.559565 0.138422 0)
(0.545353 0.141434 0)
(0.531283 0.146032 0)
(0.516686 0.148619 0)
(0.501928 0.149196 0)
(0.486988 0.150047 0)
(0.471719 0.152235 0)
(0.455892 0.155217 0)
(0.439446 0.157985 0)
(0.422638 0.160274 0)
(0.405693 0.162462 0)
(0.38864 0.164776 0)
(0.371423 0.167151 0)
(0.353987 0.169437 0)
(0.336293 0.17155 0)
(0.318324 0.173533 0)
(0.300079 0.175455 0)
(0.281563 0.177303 0)
(0.262788 0.179034 0)
(0.243775 0.180641 0)
(0.224558 0.182173 0)
(0.205168 0.183681 0)
(0.185627 0.185193 0)
(0.165963 0.186725 0)
(0.146238 0.188335 0)
(0.12655 0.190156 0)
(0.107003 0.192265 0)
(0.0876661 0.194923 0)
(0.0684257 0.197916 0)
(0.049309 0.202002 0)
(0.0297072 0.204516 0)
(0.0102736 0.208413 0)
(3 -1.10113e-16 0)
(3 -2.68663e-16 0)
(3 -6.23172e-16 0)
(3 -5.01345e-16 0)
(3 -3.20256e-16 0)
(3 -6.21951e-16 0)
(3 -1.61007e-15 0)
(3 -1.74736e-15 0)
(3 -1.547e-15 0)
(3 -1.11714e-15 0)
(3 -4.49185e-16 0)
(3 -1.40086e-16 0)
(3 3.29915e-16 0)
(3 5.58346e-16 0)
(3 5.26463e-16 0)
(3 1.23717e-16 0)
(3 -1.83396e-16 0)
(3 -4.37353e-16 0)
(3 -1.24952e-15 0)
(3 -2.20116e-15 0)
(3 -3.28719e-15 0)
(3 -3.40451e-15 0)
(3 -3.36168e-15 0)
(3 -3.23122e-15 0)
(3 -2.56871e-15 0)
(3 -2.00395e-15 0)
(3 -1.73262e-15 0)
(3 -2.0208e-15 0)
(3 -2.9642e-15 0)
(3 -3.8857e-15 0)
(3 -3.68484e-15 0)
(3 -3.61616e-15 0)
(3 -3.10636e-15 0)
(3 -2.35755e-15 0)
(3 -1.13887e-15 0)
(3 -1.01002e-15 0)
(3 -6.6645e-16 0)
(3 -1.63378e-16 0)
(3 -6.14309e-17 0)
(3 3.95704e-16 0)
(3 7.0613e-16 0)
(3 1.22454e-15 0)
(3 1.16184e-15 0)
(3 4.25473e-16 0)
(3 -1.97238e-16 0)
(3 -3.79038e-16 0)
(3 4.23623e-16 0)
(3 1.14538e-15 0)
(3 1.99211e-07 0)
(1.42523 0.164865 0)
(0.790265 0.133978 0)
(0.758982 0.147721 0)
(0.741666 0.154269 0)
(0.723137 0.155625 0)
(0.706499 0.153272 0)
(0.691866 0.150084 0)
(0.678442 0.148851 0)
(0.665334 0.150407 0)
(0.651643 0.154209 0)
(0.636572 0.158413 0)
(0.62059 0.161705 0)
(0.604862 0.16385 0)
(0.589947 0.163874 0)
(0.575875 0.162023 0)
(0.561823 0.16179 0)
(0.548175 0.165547 0)
(0.534843 0.171114 0)
(0.520926 0.174541 0)
(0.506816 0.175298 0)
(0.492564 0.175979 0)
(0.478061 0.178315 0)
(0.463059 0.181948 0)
(0.4473 0.185528 0)
(0.431007 0.188463 0)
(0.414509 0.191231 0)
(0.397898 0.194229 0)
(0.381103 0.197398 0)
(0.364024 0.200545 0)
(0.34658 0.203559 0)
(0.328726 0.206447 0)
(0.310456 0.209254 0)
(0.291789 0.21196 0)
(0.27275 0.214503 0)
(0.253371 0.216842 0)
(0.233685 0.218997 0)
(0.213718 0.220994 0)
(0.193483 0.222836 0)
(0.173001 0.224528 0)
(0.152342 0.226133 0)
(0.131642 0.227855 0)
(0.111054 0.229772 0)
(0.0907255 0.232336 0)
(0.070571 0.235194 0)
(0.0507262 0.239508 0)
(0.0304668 0.242161 0)
(0.0105414 0.246426 0)
(3 -6.85959e-17 0)
(3 -9.43805e-17 0)
(3 -3.50748e-16 0)
(3 -5.18888e-16 0)
(3 -6.94344e-16 0)
(3 -7.40516e-16 0)
(3 -6.20329e-16 0)
(3 -5.93199e-16 0)
(3 -1.0017e-15 0)
(3 -1.17885e-15 0)
(3 -1.11083e-15 0)
(3 -2.91871e-17 0)
(3 3.10152e-16 0)
(3 3.26591e-16 0)
(3 3.04678e-16 0)
(3 6.19049e-16 0)
(3 1.06158e-15 0)
(3 1.94112e-15 0)
(3 1.6703e-15 0)
(3 9.27207e-16 0)
(3 1.66069e-17 0)
(3 -5.69726e-16 0)
(3 -9.11603e-16 0)
(3 -5.43895e-16 0)
(3 -1.18683e-16 0)
(3 -2.36073e-17 0)
(3 -4.5138e-16 0)
(3 -1.73284e-15 0)
(3 -2.46673e-15 0)
(3 -2.94893e-15 0)
(3 -1.89476e-15 0)
(3 -1.3048e-15 0)
(3 -1.08628e-15 0)
(3 -5.04509e-16 0)
(3 1.82852e-16 0)
(3 -2.69066e-16 0)
(3 -4.68661e-16 0)
(3 2.7092e-17 0)
(3 2.54146e-16 0)
(3 2.34977e-16 0)
(3 3.51658e-16 0)
(3 4.32875e-16 0)
(3 5.43885e-16 0)
(3 6.7649e-17 0)
(3 -8.27055e-16 0)
(3 -9.65993e-16 0)
(3 -7.69335e-16 0)
(3 -3.44181e-16 0)
(3 4.46052e-10 0)
(1.74709 0.184536 0)
(0.816767 0.159508 0)
(0.764671 0.176801 0)
(0.746186 0.183807 0)
(0.727207 0.183647 0)
(0.710465 0.178959 0)
(0.69527 0.173414 0)
(0.680796 0.17092 0)
(0.666732 0.172712 0)
(0.652695 0.178011 0)
(0.637745 0.184078 0)
(0.62191 0.187923 0)
(0.606257 0.189087 0)
(0.591289 0.188046 0)
(0.576932 0.185856 0)
(0.562572 0.185809 0)
(0.5488 0.190072 0)
(0.53573 0.196561 0)
(0.52222 0.201041 0)
(0.508511 0.20228 0)
(0.494736 0.202782 0)
(0.480832 0.205056 0)
(0.466674 0.209268 0)
(0.451809 0.213828 0)
(0.436294 0.217619 0)
(0.420551 0.22109 0)
(0.40475 0.224875 0)
(0.388795 0.228979 0)
(0.372519 0.233162 0)
(0.355788 0.237271 0)
(0.338514 0.241276 0)
(0.320676 0.245194 0)
(0.302294 0.248992 0)
(0.283406 0.252588 0)
(0.264044 0.255902 0)
(0.24423 0.258918 0)
(0.223968 0.261635 0)
(0.203248 0.264034 0)
(0.182077 0.266105 0)
(0.160532 0.267891 0)
(0.13878 0.269657 0)
(0.117016 0.271441 0)
(0.0954635 0.273906 0)
(0.0740774 0.276502 0)
(0.0531284 0.280926 0)
(0.0318298 0.283652 0)
(0.011005 0.288238 0)
(3 -1.68285e-18 0)
(3 -2.9247e-16 0)
(3 -3.8445e-16 0)
(3 -3.70575e-16 0)
(3 -5.20696e-16 0)
(3 -6.07332e-16 0)
(3 -3.26642e-16 0)
(3 2.63535e-16 0)
(3 -1.86688e-16 0)
(3 -6.56768e-16 0)
(3 -7.394e-16 0)
(3 -8.18067e-16 0)
(3 -7.88996e-16 0)
(3 4.66958e-16 0)
(3 1.01507e-15 0)
(3 1.43011e-15 0)
(3 1.15162e-15 0)
(3 8.37863e-16 0)
(3 8.78115e-16 0)
(3 1.04995e-15 0)
(3 9.42854e-16 0)
(3 7.52867e-16 0)
(3 8.38669e-16 0)
(3 -2.33705e-16 0)
(3 -6.89005e-16 0)
(3 -1.05868e-15 0)
(3 -1.59146e-15 0)
(3 -1.32304e-15 0)
(3 -9.51937e-16 0)
(3 -5.3666e-16 0)
(3 2.28059e-16 0)
(3 1.34163e-15 0)
(3 1.00767e-15 0)
(3 -7.61317e-16 0)
(3 -1.17342e-15 0)
(3 -1.5054e-15 0)
(3 -1.44692e-15 0)
(3 -1.26372e-15 0)
(3 -1.01412e-15 0)
(3 -6.53934e-16 0)
(3 -7.47096e-16 0)
(3 -9.92383e-16 0)
(3 -1.26038e-15 0)
(3 -1.16804e-15 0)
(3 -5.06994e-17 0)
(3 1.31854e-16 0)
(3 -9.4187e-16 0)
(3 -1.96488e-15 0)
(3 9.14463e-13 0)
(2.18072 0.186278 0)
(0.859038 0.197271 0)
(0.758559 0.207439 0)
(0.743716 0.213651 0)
(0.728645 0.212702 0)
(0.713986 0.207726 0)
(0.69959 0.201179 0)
(0.685007 0.197483 0)
(0.670585 0.198822 0)
(0.656728 0.20471 0)
(0.642567 0.211972 0)
(0.627435 0.216327 0)
(0.612161 0.21698 0)
(0.597074 0.215364 0)
(0.582138 0.21286 0)
(0.567073 0.21251 0)
(0.552657 0.216617 0)
(0.539352 0.223497 0)
(0.525862 0.228879 0)
(0.51203 0.230798 0)
(0.498059 0.231081 0)
(0.483932 0.23279 0)
(0.469809 0.237071 0)
(0.455266 0.24245 0)
(0.440077 0.247127 0)
(0.424701 0.251229 0)
(0.409432 0.255691 0)
(0.394197 0.260709 0)
(0.378769 0.266 0)
(0.362946 0.271339 0)
(0.346582 0.276657 0)
(0.329588 0.281943 0)
(0.311927 0.287152 0)
(0.293598 0.292193 0)
(0.274602 0.296944 0)
(0.254937 0.301335 0)
(0.234589 0.305314 0)
(0.213542 0.308804 0)
(0.191814 0.311752 0)
(0.169502 0.314141 0)
(0.146795 0.316283 0)
(0.123891 0.318139 0)
(0.101065 0.320598 0)
(0.078312 0.322842 0)
(0.0560519 0.327233 0)
(0.0335179 0.329943 0)
(0.0115596 0.334801 0)
(3 8.16549e-17 0)
(3 7.62929e-17 0)
(3 1.01889e-16 0)
(3 2.09964e-16 0)
(3 1.38163e-16 0)
(3 -6.78147e-16 0)
(3 -1.17382e-15 0)
(3 -1.12278e-15 0)
(3 -1.3075e-15 0)
(3 -1.35326e-15 0)
(3 -1.24387e-15 0)
(3 -1.22137e-15 0)
(3 -9.8306e-16 0)
(3 -4.67459e-16 0)
(3 7.6386e-16 0)
(3 6.8312e-16 0)
(3 -1.134e-16 0)
(3 -2.75964e-16 0)
(3 4.57683e-17 0)
(3 1.5354e-16 0)
(3 7.94581e-16 0)
(3 1.21143e-15 0)
(3 1.46607e-15 0)
(3 2.32766e-16 0)
(3 -1.22498e-15 0)
(3 -1.13602e-15 0)
(3 -8.75619e-16 0)
(3 -6.76641e-16 0)
(3 -2.50309e-16 0)
(3 3.74737e-16 0)
(3 8.9297e-16 0)
(3 1.48639e-15 0)
(3 1.09398e-15 0)
(3 -6.01982e-16 0)
(3 -2.32322e-15 0)
(3 -2.28595e-15 0)
(3 -1.16787e-15 0)
(3 -9.50515e-16 0)
(3 -4.43725e-16 0)
(3 -2.53583e-16 0)
(3 -2.94213e-16 0)
(3 -2.83194e-16 0)
(3 -1.09864e-15 0)
(3 -1.36695e-15 0)
(3 -1.17341e-15 0)
(3 -8.15321e-16 0)
(3 -7.75678e-16 0)
(3 -1.46371e-15 0)
(3 -1.13427e-15 0)
(2.69619 0.164658 0)
(0.963502 0.247901 0)
(0.780868 0.236375 0)
(0.771575 0.23026 0)
(0.756011 0.23265 0)
(0.741013 0.230866 0)
(0.72542 0.226583 0)
(0.709527 0.223145 0)
(0.693512 0.224123 0)
(0.678321 0.230173 0)
(0.663645 0.238387 0)
(0.648313 0.243937 0)
(0.632762 0.245392 0)
(0.617174 0.244437 0)
(0.601415 0.242379 0)
(0.58535 0.241785 0)
(0.569751 0.245369 0)
(0.555503 0.252283 0)
(0.541519 0.258722 0)
(0.527009 0.262091 0)
(0.512042 0.262919 0)
(0.496716 0.264105 0)
(0.481451 0.268033 0)
(0.466222 0.273913 0)
(0.450493 0.279412 0)
(0.434539 0.28397 0)
(0.418782 0.288735 0)
(0.40327 0.294289 0)
(0.387782 0.300402 0)
(0.372085 0.30677 0)
(0.356016 0.313277 0)
(0.339458 0.319904 0)
(0.322331 0.326591 0)
(0.304601 0.333229 0)
(0.286235 0.339651 0)
(0.267177 0.345712 0)
(0.247338 0.351305 0)
(0.226608 0.35631 0)
(0.204913 0.360657 0)
(0.182258 0.364283 0)
(0.158789 0.367523 0)
(0.134654 0.370183 0)
(0.1102 0.373275 0)
(0.0854711 0.375564 0)
(0.06112 0.380042 0)
(0.0365005 0.382749 0)
(0.0125646 0.38793 0)
(3 4.75061e-17 0)
(3 -1.45766e-17 0)
(3 -1.77125e-17 0)
(3 -2.80935e-16 0)
(3 -5.27943e-16 0)
(3 -6.15202e-16 0)
(3 -7.1477e-16 0)
(3 -8.53927e-16 0)
(3 -7.62339e-16 0)
(3 -5.64592e-16 0)
(3 -5.12882e-16 0)
(3 -6.02231e-16 0)
(3 -5.21968e-16 0)
(3 -6.79635e-16 0)
(3 -1.23627e-15 0)
(3 -1.30928e-15 0)
(3 -9.11608e-16 0)
(3 -5.62807e-16 0)
(3 -1.57438e-16 0)
(3 1.5953e-16 0)
(3 4.32189e-16 0)
(3 9.0389e-16 0)
(3 7.21995e-16 0)
(3 4.87793e-16 0)
(3 2.15645e-16 0)
(3 3.05631e-16 0)
(3 5.24286e-16 0)
(3 5.30765e-16 0)
(3 2.89407e-16 0)
(3 1.23265e-16 0)
(3 2.61118e-16 0)
(3 2.13129e-16 0)
(3 -2.12764e-17 0)
(3 -1.85638e-16 0)
(3 -5.8108e-16 0)
(3 -6.42939e-16 0)
(3 -3.26007e-16 0)
(3 -1.37731e-16 0)
(3 5.09259e-16 0)
(3 1.12021e-15 0)
(3 1.48219e-15 0)
(3 1.25956e-15 0)
(3 9.00233e-16 0)
(3 8.32121e-16 0)
(3 8.8551e-16 0)
(3 9.89415e-16 0)
(3 9.63485e-16 0)
(3 4.36363e-16 0)
(3 -6.8148e-16 0)
(3.01964 0.0096764 0)
(1.15133 0.278187 0)
(0.806218 0.23344 0)
(0.794277 0.249679 0)
(0.780644 0.257624 0)
(0.766091 0.259364 0)
(0.751195 0.257237 0)
(0.735871 0.254346 0)
(0.71992 0.254336 0)
(0.704362 0.258906 0)
(0.689779 0.266154 0)
(0.675142 0.271681 0)
(0.660383 0.273636 0)
(0.64551 0.273456 0)
(0.630166 0.272282 0)
(0.614171 0.271633 0)
(0.598127 0.274174 0)
(0.583181 0.280258 0)
(0.568982 0.28734 0)
(0.55437 0.292783 0)
(0.538856 0.295509 0)
(0.522638 0.29684 0)
(0.506223 0.300165 0)
(0.490077 0.306237 0)
(0.47366 0.312808 0)
(0.456829 0.318264 0)
(0.440058 0.323474 0)
(0.423591 0.329528 0)
(0.407308 0.33643 0)
(0.39097 0.343796 0)
(0.374397 0.351432 0)
(0.357454 0.359333 0)
(0.34001 0.367487 0)
(0.321973 0.375817 0)
(0.303262 0.384185 0)
(0.283766 0.392415 0)
(0.263346 0.40037 0)
(0.24184 0.407866 0)
(0.219168 0.414741 0)
(0.19535 0.420741 0)
(0.170615 0.426089 0)
(0.145099 0.430332 0)
(0.119149 0.434626 0)
(0.0925901 0.437383 0)
(0.0661304 0.441867 0)
(0.0394223 0.444355 0)
(0.0133872 0.449605 0)
(3 -6.27101e-17 0)
(3 1.83063e-17 0)
(3 8.71949e-17 0)
(3 -3.86404e-18 0)
(3 -4.7478e-17 0)
(3 5.13718e-16 0)
(3 8.85331e-16 0)
(3 8.00764e-16 0)
(3 1.01017e-15 0)
(3 1.32025e-15 0)
(3 1.34578e-15 0)
(3 1.29918e-15 0)
(3 1.31699e-15 0)
(3 1.49891e-15 0)
(3 7.26092e-16 0)
(3 9.43034e-18 0)
(3 -3.03498e-16 0)
(3 -6.26522e-16 0)
(3 -4.60928e-16 0)
(3 -3.11618e-16 0)
(3 -4.16222e-16 0)
(3 2.46962e-16 0)
(3 9.52778e-16 0)
(3 7.101e-16 0)
(3 5.65987e-16 0)
(3 5.31967e-16 0)
(3 6.8623e-16 0)
(3 9.99094e-16 0)
(3 1.05901e-15 0)
(3 2.1746e-16 0)
(3 -7.3717e-16 0)
(3 -8.6944e-16 0)
(3 -8.40817e-16 0)
(3 -1.04212e-17 0)
(3 5.08064e-16 0)
(3 9.5146e-16 0)
(3 9.58441e-16 0)
(3 1.10815e-15 0)
(3 8.76009e-16 0)
(3 7.57441e-16 0)
(3 7.97064e-16 0)
(3 6.47385e-16 0)
(3 1.30185e-15 0)
(3 2.17815e-15 0)
(3 2.60086e-15 0)
(3 2.22704e-15 0)
(3 4.73126e-16 0)
(3 2.39832e-16 0)
(3 -7.37345e-16 0)
(3.00028 9.55321e-06 0)
(1.56261 0.309933 0)
(0.825364 0.275987 0)
(0.781298 0.280479 0)
(0.768817 0.288499 0)
(0.755163 0.289902 0)
(0.742162 0.289048 0)
(0.728879 0.287858 0)
(0.715046 0.288411 0)
(0.701211 0.292026 0)
(0.688165 0.298073 0)
(0.675381 0.30352 0)
(0.662548 0.306335 0)
(0.64969 0.307509 0)
(0.636373 0.308068 0)
(0.622217 0.30859 0)
(0.607524 0.310809 0)
(0.59329 0.315756 0)
(0.579953 0.322606 0)
(0.566844 0.32953 0)
(0.552823 0.334434 0)
(0.53772 0.336697 0)
(0.521984 0.339342 0)
(0.506388 0.344851 0)
(0.490883 0.351977 0)
(0.474875 0.358369 0)
(0.458602 0.363989 0)
(0.442454 0.370227 0)
(0.426474 0.377553 0)
(0.410443 0.385629 0)
(0.394159 0.394158 0)
(0.377489 0.40312 0)
(0.360313 0.412585 0)
(0.342531 0.42253 0)
(0.32411 0.432844 0)
(0.305013 0.443304 0)
(0.285169 0.453694 0)
(0.26441 0.463752 0)
(0.242516 0.473243 0)
(0.219239 0.481721 0)
(0.194621 0.489478 0)
(0.168311 0.496153 0)
(0.140466 0.503374 0)
(0.110481 0.509367 0)
(0.0792807 0.515878 0)
(0.0471346 0.519135 0)
(0.0157637 0.524247 0)
(3 3.79625e-17 0)
(3 1.52555e-16 0)
(3 4.01174e-16 0)
(3 5.39378e-16 0)
(3 1.12181e-15 0)
(3 1.85209e-15 0)
(3 1.77588e-15 0)
(3 1.42578e-15 0)
(3 1.51588e-15 0)
(3 1.75671e-15 0)
(3 1.93002e-15 0)
(3 2.42013e-15 0)
(3 2.31059e-15 0)
(3 2.08499e-15 0)
(3 1.81958e-15 0)
(3 1.22384e-15 0)
(3 1.0396e-15 0)
(3 8.99592e-16 0)
(3 3.58715e-16 0)
(3 1.65127e-16 0)
(3 -1.45358e-16 0)
(3 -2.45551e-16 0)
(3 -2.10705e-16 0)
(3 -2.00838e-17 0)
(3 -2.36014e-17 0)
(3 -2.28405e-16 0)
(3 -2.76868e-16 0)
(3 -2.69994e-16 0)
(3 -3.90684e-17 0)
(3 -2.82216e-16 0)
(3 1.79849e-16 0)
(3 4.22242e-16 0)
(3 5.3231e-16 0)
(3 9.94954e-16 0)
(3 1.59111e-15 0)
(3 1.72521e-15 0)
(3 1.53802e-15 0)
(3 4.43034e-16 0)
(3 -4.28023e-16 0)
(3 -7.21695e-16 0)
(3 -1.04393e-15 0)
(3 -1.41392e-15 0)
(3 -1.1434e-15 0)
(3 -2.17702e-16 0)
(3 9.64076e-17 0)
(3 -3.04223e-16 0)
(3 -7.50206e-16 0)
(3 -8.36552e-16 0)
(3 -9.05313e-16 0)
(3 1.81561e-08 0)
(2.39084 0.280508 0)
(0.921648 0.336473 0)
(0.793846 0.317343 0)
(0.781095 0.312993 0)
(0.766322 0.315889 0)
(0.753392 0.317422 0)
(0.740919 0.318297 0)
(0.728386 0.319603 0)
(0.715529 0.322323 0)
(0.702806 0.32681 0)
(0.690336 0.331502 0)
(0.677956 0.334671 0)
(0.665753 0.336849 0)
(0.653442 0.339062 0)
(0.640438 0.341305 0)
(0.626637 0.344045 0)
(0.612674 0.348268 0)
(0.599335 0.354448 0)
(0.586904 0.362117 0)
(0.574322 0.369296 0)
(0.560525 0.373745 0)
(0.545739 0.376652 0)
(0.530685 0.38162 0)
(0.515937 0.389159 0)
(0.500921 0.397113 0)
(0.48536 0.404185 0)
(0.469621 0.411337 0)
(0.453965 0.419559 0)
(0.43828 0.428764 0)
(0.422348 0.438598 0)
(0.406015 0.448967 0)
(0.389144 0.460004 0)
(0.371534 0.471788 0)
(0.353118 0.484289 0)
(0.333899 0.497345 0)
(0.3138 0.510837 0)
(0.292536 0.524516 0)
(0.269838 0.538373 0)
(0.244972 0.551952 0)
(0.217777 0.565484 0)
(0.188001 0.578347 0)
(0.156648 0.591505 0)
(0.124138 0.603458 0)
(0.0905843 0.613197 0)
(0.0554273 0.618312 0)
(0.0176951 0.621608 0)
(3 2.27261e-17 0)
(3 -7.62193e-17 0)
(3 2.15211e-17 0)
(3 1.18863e-16 0)
(3 5.09654e-16 0)
(3 5.1546e-16 0)
(3 5.80585e-16 0)
(3 5.67414e-16 0)
(3 5.04078e-16 0)
(3 5.96412e-16 0)
(3 7.59913e-16 0)
(3 7.00977e-16 0)
(3 7.0083e-16 0)
(3 9.03427e-16 0)
(3 1.29496e-15 0)
(3 1.75068e-15 0)
(3 2.04179e-15 0)
(3 1.8862e-15 0)
(3 1.05759e-15 0)
(3 3.23708e-16 0)
(3 2.97253e-16 0)
(3 1.25042e-16 0)
(3 -9.45988e-17 0)
(3 3.90494e-18 0)
(3 3.39148e-16 0)
(3 6.44801e-16 0)
(3 4.41294e-16 0)
(3 -1.49154e-16 0)
(3 -2.62038e-16 0)
(3 2.9658e-16 0)
(3 4.41168e-16 0)
(3 7.33148e-16 0)
(3 1.00808e-15 0)
(3 1.63694e-15 0)
(3 2.40938e-15 0)
(3 1.51855e-15 0)
(3 6.70761e-16 0)
(3 4.98113e-16 0)
(3 -1.58174e-16 0)
(3 -4.75659e-16 0)
(3 -1.00956e-15 0)
(3 -1.53664e-15 0)
(3 -1.68311e-15 0)
(3 -1.55255e-15 0)
(3 -1.67967e-15 0)
(3 -3.14999e-16 0)
(3 5.51888e-16 0)
(3 5.57151e-16 0)
(3 1.14589e-15 0)
(3 -6.94629e-09 0)
(3.02794 0.0171815 0)
(1.25986 0.376425 0)
(0.84348 0.324439 0)
(0.820513 0.33654 0)
(0.804267 0.339531 0)
(0.789446 0.340391 0)
(0.775973 0.341965 0)
(0.76284 0.344694 0)
(0.749374 0.348221 0)
(0.735586 0.352526 0)
(0.721894 0.357172 0)
(0.708459 0.361075 0)
(0.695448 0.364367 0)
(0.682835 0.368119 0)
(0.670056 0.372424 0)
(0.656554 0.376746 0)
(0.642546 0.381058 0)
(0.628776 0.386287 0)
(0.616004 0.393457 0)
(0.604072 0.401876 0)
(0.591403 0.409096 0)
(0.577431 0.413805 0)
(0.562808 0.418774 0)
(0.548431 0.426388 0)
(0.534285 0.435768 0)
(0.519722 0.445034 0)
(0.504704 0.453866 0)
(0.489576 0.463371 0)
(0.474479 0.473936 0)
(0.459301 0.485339 0)
(0.443853 0.497372 0)
(0.427936 0.510217 0)
(0.41121 0.524124 0)
(0.393534 0.539289 0)
(0.374973 0.555709 0)
(0.355669 0.573325 0)
(0.335644 0.59197 0)
(0.314728 0.611609 0)
(0.292251 0.631745 0)
(0.267728 0.651813 0)
(0.240884 0.670566 0)
(0.211576 0.686923 0)
(0.180162 0.70283 0)
(0.143217 0.721682 0)
(0.0970798 0.744159 0)
(0.0369573 0.763681 0)
(3 -9.94938e-17 0)
(3 8.07169e-18 0)
(3 6.51968e-17 0)
(3 -1.62435e-16 0)
(3 -4.28417e-16 0)
(3 -5.46387e-16 0)
(3 -4.21422e-16 0)