/*--------------------------------*- C++ -*----------------------------------*\
  =========                 |
  \\      /  F ield         | OpenFOAM: The Open Source CFD Toolbox
   \\    /   O peration     | Website:  https://openfoam.org
    \\  /    A nd           | Version:  7
     \\/     M anipulation  |
\*---------------------------------------------------------------------------*/
FoamFile
{
    version     2.0;
    format      ascii;
    class       volScalarField;
    location    "13";
    object      p;
}
// * * * * * * * * * * * * * * * * * * * * * * * * * * * * * * * * * * * * * //

dimensions      [0 2 -2 0 0 0 0];

internalField   nonuniform List<scalar> 
16000
(
-7.729627e-06
-0.000153691
-0.00046613194
-0.00086802454
-0.0012856364
-0.0016736894
-0.0020011516
-0.0022492658
-0.002407518
-0.0024702694
-0.0024345783
-0.002299015
-0.002062947
-0.0017266282
-0.0012914622
-0.00076049734
-0.00013905453
0.0005645877
0.0013386755
0.0021675827
0.0030317267
0.0039078145
0.0047694152
0.0055880077
0.0063343068
0.0069799821
0.0074994968
0.0078720909
0.008083568
0.0081278874
0.0080082524
0.0077377141
0.0073391976
0.0068450779
0.0062961398
0.0057397907
0.0052310007
0.0048259509
0.0045862905
0.0045474
0.00013080637
-1.5169785e-05
-0.00026517052
-0.00057376391
-0.00089554576
-0.0011962642
-0.0014514562
-0.0016451769
-0.0017671757
-0.0018110328
-0.0017727706
-0.0016500405
-0.001441541
-0.0011470665
-0.00076766349
-0.00030597777
0.00023328081
0.00084277862
0.0015121969
0.0022279369
0.0029730321
0.0037275113
0.0044687041
0.0051723215
0.0058135438
0.0063685149
0.0068159126
0.0071386604
0.0073254202
0.0073719173
0.0072818
0.0070670476
0.0067478128
0.0063517915
0.0059131257
0.0054707524
0.005065795
0.0047415863
0.0045432388
0.0045076785
0.00044722168
0.0002295507
-2.5985279e-05
-0.00030482766
-0.00058470014
-0.00084106965
-0.0010561869
-0.001218136
-0.0013187427
-0.0013525353
-0.0013157374
-0.0012058025
-0.0010210871
-0.00076088146
-0.00042557158
-1.7015387e-05
0.00046104247
0.0010024644
0.0015983672
0.0022368589
0.0029029641
0.0035787782
0.004243968
0.0048765896
0.0054541344
0.0059549107
0.0063595177
0.0066524425
0.0068234588
0.0068688307
0.0067920771
0.0066042567
0.0063236768
0.0059750869
0.0055884073
0.0051970219
0.00483549
0.0045380062
0.0043408264
0.004273451
0.00086739215
0.00053655262
0.00023622856
-4.9256112e-05
-0.00031927695
-0.00055777646
-0.00075320468
-0.00089839939
-0.0009882982
-0.001019221
-0.0009882883
-0.00089321263
-0.00073215155
-0.00050381555
-0.00020772282
0.00015534048
0.00058287232
0.0010701488
0.0016098007
0.0021915162
0.0028018907
0.0034245186
0.0040404703
0.0046289964
0.0051685606
0.0056381823
0.0060189107
0.0062954076
0.0064573756
0.0065007478
0.0064284412
0.0062505783
0.0059841034
0.0056518287
0.0052809794
0.0049013816
0.00454366
0.0042376946
0.0040099268
0.00387444
0.001316517
0.00085757423
0.00049496635
0.00018522839
-9.1786227e-05
-0.00032717284
-0.00051521895
-0.00065367484
-0.00074086763
-0.0007752115
-0.000755003
-0.00067836431
-0.00054324763
-0.00034769116
-9.0195033e-05
0.00022974698
0.00061110531
0.0010507482
0.0015429197
0.0020788557
0.0026465591
0.0032308339
0.0038136421
0.0043747739
0.0048928695
0.0053467585
0.0057169921
0.0059874752
0.0061469895
0.0061904497
0.0061197119
0.0059437902
0.0056784221
0.0053449934
0.0049689091
0.0045776539
0.0041994427
0.0038614253
0.0035791379
0.0033554874
0.0017415943
0.0011495572
0.00071578255
0.0003705067
7.4714042e-05
-0.00016886621
-0.00035988304
-0.00050075928
-0.00059312947
-0.00063754848
-0.00063352091
-0.000579555
-0.00047332694
-0.00031208559
-9.316189e-05
0.00018542836
0.00052431856
0.00092211491
0.0013747703
0.0018750688
0.0024123195
0.0029722725
0.003537389
0.0040874635
0.004600644
0.0050547878
0.0054290813
0.0057057822
0.0058718986
0.0059205872
0.0058520868
0.0056740042
0.0054008931
0.0050531047
0.0046550012
0.0042328911
0.0038141374
0.0034252083
0.0030730542
0.0027457773
0.0020977805
0.001374333
0.00086583674
0.00047847325
0.00015602061
-0.00010420057
-0.00030666203
-0.00045807876
-0.00056317013
-0.00062448085
-0.00064257224
-0.0006161992
-0.00054263823
-0.00041819234
-0.00023883972
-9.3695172e-07
0.00029799889
0.0006584652
0.0010782459
0.001551734
0.002069512
0.0026181343
0.0031802934
0.0037353835
0.0042605017
0.0047318422
0.0051264159
0.0054239444
0.0056087524
0.0056713885
0.0056097695
0.0054296294
0.0051441954
0.004773033
0.0043401285
0.0038717061
0.0033957812
0.0029399666
0.0025042816
0.0020633001
0.0023465834
0.0014970518
0.00091421661
0.00048199285
0.00012826358
-0.0001544821
-0.00037503977
-0.00054402559
-0.00066892889
-0.000753998
-0.000800606
-0.00080754434
-0.00077150484
-0.00068765742
-0.00055041646
-0.00035427935
-9.470444e-05
0.00023090312
0.00062234105
0.0010757658
0.0015831203
0.002131773
0.002704534
0.0032801508
0.0038342517
0.0043407693
0.0047737701
0.0051095298
0.0053286889
0.0054181829
0.0053727029
0.0051954204
0.0048978712
0.0044988937
0.0040226174
0.0034961623
0.0029496144
0.002413481
0.0018827355
0.00132082
0.0024541995
0.0014860191
0.00083166076
0.00035422725
-3.3158187e-05
-0.00034247526
-0.00058647888
-0.0007793069
-0.00093084347
-0.0010466978
-0.0011287832
-0.0011756932
-0.0011832976
-0.0011454131
-0.0010546594
-0.00090344129
-0.00068491513
-0.00039411198
-2.8942039e-05
0.00040878602
0.00091260734
0.0014708911
0.002066632
0.0026778553
0.0032784488
0.0038395833
0.0043316384
0.0047264827
0.0049999373
0.0051341067
0.0051192852
0.0049551027
0.0046507574
0.0042241729
0.0036999623
0.0031069974
0.0024787776
0.0018504058
0.0012132797
0.00052055835
0.0023902064
0.0013122552
0.00059068752
6.9218794e-05
-0.00035279628
-0.00069160239
-0.00096362564
-0.0011861475
-0.001371093
-0.0015251158
-0.0016503848
-0.0017450446
-0.0018038942
-0.0018191679
-0.0017814547
-0.001680787
-0.0015077144
-0.0012545434
-0.00091650634
-0.00049296385
1.1617409e-05
0.00058702182
0.001216675
0.0018780133
0.0025430876
0.0031799298
0.0037545332
0.004233339
0.0045860532
0.0047884693
0.004824972
0.0046902912
0.0043902681
0.0039413947
0.0033688615
0.0027039951
0.0019849878
0.0012532243
0.00049766335
-0.00033851199
0.0021269099
0.00094920628
0.00016580356
-0.00039755633
-0.00085436605
-0.0012249657
-0.0015291891
-0.0017871235
-0.0020124367
-0.0022125624
-0.002389653
-0.0025411625
-0.0026605914
-0.0027383563
-0.0027627756
-0.0027212075
-0.002601231
-0.0023919934
-0.0020855438
-0.0016782217
-0.0011718919
-0.00057466276
9.7769235e-05
0.00082264716
0.0015703208
0.0023054783
0.0029891154
0.0035811935
0.0040438407
0.004344761
0.0044604998
0.0043790404
0.0041013535
0.0036415356
0.0030250997
0.0022863168
0.0014692834
0.00062337942
-0.00026404801
-0.0012600539
0.0016392095
0.00037286347
-0.0004662338
-0.0010687854
-0.0015601279
-0.0019645352
-0.0023050305
-0.0026042277
-0.0028772723
-0.0031321512
-0.0033707826
-0.0035897286
-0.0037810115
-0.0039330146
-0.0040315343
-0.0040609447
-0.0040054498
-0.0038505253
-0.0035844077
-0.0031996382
-0.0026945262
-0.0020747098
-0.0013536809
-0.00055381058
0.00029395702
0.0011510172
0.0019729254
0.0027121486
0.0033216442
0.0037589362
0.0039903178
0.0039945658
0.0037656091
0.0033135723
0.0026635421
0.0018529138
0.00093281278
-3.7596722e-05
-0.0010720011
-0.0022484828
0.00090479163
-0.00043803045
-0.0013261127
-0.0019648424
-0.0024902556
-0.0029303972
-0.0033112928
-0.0036578586
-0.0039864985
-0.0043055719
-0.0046166177
-0.0049151611
-0.0051916159
-0.0054321695
-0.0056198664
-0.0057357871
-0.0057603374
-0.0056747468
-0.005462698
-0.0051120525
-0.004616603
-0.0039779976
-0.0032067273
-0.0023236273
-0.0013600849
-0.00035757571
0.00063386555
0.0015583526
0.0023580384
0.0029779035
0.0033710619
0.0035038979
0.0033602786
0.0029439429
0.0022780948
0.001402966
0.00037768479
-0.0007268918
-0.0019250562
-0.0033071304
-9.5475366e-05
-0.0015016132
-0.0024314902
-0.0031031703
-0.0036621058
-0.0041399395
-0.0045655056
-0.0049658169
-0.0053583781
-0.0057518068
-0.0061472051
-0.0065390017
-0.006915924
-0.0072618678
-0.0075569558
-0.0077786919
-0.0079032624
-0.0079070477
-0.0077683598
-0.0074693533
-0.0069980863
-0.0063506941
-0.0055332372
-0.0045634935
-0.003471974
-0.002302105
-0.0011092051
4.1962046e-05
0.0010812311
0.0019385058
0.0025503026
0.0028666225
0.0028572128
0.0025159047
0.0018615666
0.00093626684
-0.00019217627
-0.0014391869
-0.0028192811
-0.0044365259
-0.0013770458
-0.0028324536
-0.0037965314
-0.0044977729
-0.0050896002
-0.0056070529
-0.0060815891
-0.0065421338
-0.0070072042
-0.0074856371
-0.0079781093
-0.0084779939
-0.0089723485
-0.0094427562
-0.0098663293
-0.010216782
-0.010465694
-0.010584007
-0.010543821
-0.010320466
-0.0098948548
-0.0092560124
-0.0084036327
-0.0073504897
-0.0061243453
-0.0047690213
-0.0033441707
-0.0019233902
-0.00059030584
0.00056742065
0.0014659155
0.0020339889
0.0022220071
0.0020089594
0.0014055607
0.00045365466
-0.00077008888
-0.0021653068
-0.0037463238
-0.005632605
-0.0029510643
-0.004441
-0.0054313846
-0.0061586648
-0.00678261
-0.0073414033
-0.0078689604
-0.0083959806
-0.0089419762
-0.0095160622
-0.010118583
-0.010741988
-0.011371791
-0.011987348
-0.012562763
-0.013067842
-0.013469263
-0.013732003
-0.013821154
-0.013704096
-0.013353112
-0.012748309
-0.011880831
-0.010756054
-0.009396516
-0.0078441318
-0.0061611053
-0.0044289886
-0.0027453096
-0.0012173992
4.6582008e-05
0.00094875169
0.001413549
0.0013984762
0.00090046079
-4.2477986e-05
-0.0013455601
-0.0028907057
-0.0046915781
-0.0068847002
-0.0048238648
-0.0063332606
-0.0073418987
-0.0080915011
-0.0087464431
-0.0093477652
-0.0099316967
-0.010530639
-0.011165149
-0.011844775
-0.012569735
-0.013331791
-0.014115147
-0.014897137
-0.015648973
-0.016336553
-0.01692148
-0.017362368
-0.017616615
-0.017642612
-0.017402565
-0.016865776
-0.016012494
-0.014837942
-0.013356399
-0.01160478
-0.0096450593
-0.0075647572
-0.0054746614
-0.0035030314
-0.0017858707
-0.00045363245
0.00038445785
0.00065585027
0.00033574602
-0.00054742376
-0.001902979
-0.0035936747
-0.0056320446
-0.0081732036
-0.0069965443
-0.008510503
-0.0095293681
-0.010297307
-0.010981486
-0.011625518
-0.012267836
-0.012942559
-0.013671438
-0.014464713
-0.015322798
-0.016237116
-0.017190914
-0.018159811
-0.019112379
-0.020010748
-0.020811428
-0.021466444
-0.021924991
-0.02213562
-0.022049164
-0.02162234
-0.0208221
-0.019630598
-0.018050384
-0.016109556
-0.013866027
-0.011409959
-0.0088632763
-0.0063750254
-0.004111632
-0.0022418089
-0.00091703368
-0.00025040782
-0.00029912737
-0.0010530081
-0.0024199406
-0.0042431293
-0.0065337211
-0.0094667257
-0.0094648452
-0.010969282
-0.011990577
-0.012772478
-0.01348311
-0.014168388
-0.01486892
-0.015620666
-0.016446863
-0.017358835
-0.018357632
-0.019434807
-0.020573095
-0.021746832
-0.022922312
-0.024058175
-0.025105995
-0.026011185
-0.026714472
-0.027153976
-0.027268151
-0.026999586
-0.026299762
-0.025134871
-0.023492056
-0.021386265
-0.018866556
-0.016020999
-0.012978733
-0.0099074806
-0.0070048994
-0.0044826006
-0.002543057
-0.0013520527
-0.0010128276
-0.0015457549
-0.0028650314
-0.0047958667
-0.0073484092
-0.010718612
-0.012219193
-0.013701676
-0.014718123
-0.015509077
-0.016241856
-0.016964464
-0.017719795
-0.01854595
-0.019468124
-0.020499276
-0.021641671
-0.022887566
-0.024219734
-0.025611735
-0.027028051
-0.028424233
-0.029747227
-0.030936017
-0.03192286
-0.032635196
-0.032998476
-0.032940028
-0.032394042
-0.03130841
-0.029651119
-0.027419451
-0.02464817
-0.021417239
-0.017857182
-0.014149871
-0.010522416
-0.00723182
-0.0045393349
-0.002676405
-0.0018087994
-0.0020040502
-0.0031948393
-0.0051931033
-0.0080097772
-0.011862664
-0.015245124
-0.016695916
-0.01770112
-0.018495486
-0.019243966
-0.019996548
-0.020798749
-0.021691386
-0.022702325
-0.023846921
-0.025129377
-0.026543335
-0.028072226
-0.029689405
-0.031358062
-0.03303113
-0.03465135
-0.036151633
-0.037456017
-0.03848135
-0.039139902
-0.039343138
-0.039006712
-0.038058737
-0.036444511
-0.034139473
-0.031158466
-0.027566471
-0.023487835
-0.019111452
-0.014688859
-0.010521629
-0.0069351357
-0.0042389414
-0.0026799228
-0.0023939201
-0.0033499305
-0.0053561058
-0.008428521
-0.012807925
-0.018524117
-0.019937456
-0.020926331
-0.021717471
-0.022472276
-0.023242842
-0.024077997
-0.025022234
-0.026107148
-0.027351507
-0.028762358
-0.030335502
-0.032055691
-0.033896644
-0.035820771
-0.037778867
-0.039709934
-0.041541275
-0.043189152
-0.044560209
-0.045553802
-0.046065725
-0.045993356
-0.045240993
-0.043731933
-0.041415591
-0.038281504
-0.034372591
-0.029798305
-0.024745089
-0.019480341
-0.014345064
-0.0097300093
-0.0060328648
-0.0036007469
-0.0026630556
-0.0032495416
-0.0051807235
-0.0084864593
-0.013432404
-0.022034875
-0.023410564
-0.024379813
-0.025159711
-0.025907518
-0.026677976
-0.027524452
-0.028496644
-0.029631391
-0.030952224
-0.032470135
-0.034183943
-0.036080379
-0.038134034
-0.040306961
-0.042548209
-0.044793447
-0.046964836
-0.048971401
-0.050710173
-0.052068227
-0.052926054
-0.053162388
-0.052660331
-0.051317428
-0.049055292
-0.045834159
-0.041668456
-0.036643834
-0.030933254
-0.024808202
-0.018639179
-0.012877981
-0.0080156931
-0.0045169815
-0.0027326969
-0.0027846951
-0.0045306158
-0.0080293816
-0.013575589
-0.025755128
-0.027100524
-0.028049168
-0.028807817
-0.029529995
-0.030274306
-0.031100733
-0.032066504
-0.033215842
-0.034578783
-0.036171572
-0.037996949
-0.040044212
-0.042289182
-0.044693795
-0.047205556
-0.049757041
-0.05226561
-0.054633543
-0.056748917
-0.058487353
-0.059714993
-0.060292922
-0.060083236
-0.058958571
-0.056811563
-0.053570584
-0.049216635
-0.043803572
-0.037479582
-0.030506321
-0.02326942
-0.016270955
-0.010093736
-0.0053324258
-0.002487211
-0.0018094945
-0.0032289767
-0.0068584984
-0.013029671
-0.029664116
-0.030996677
-0.031926546
-0.032650909
-0.03332158
-0.034003398
-0.034766276
-0.035678416
-0.036794344
-0.038152812
-0.039776804
-0.041673852
-0.04383624
-0.046241118
-0.048850249
-0.051609487
-0.054448264
-0.05727923
-0.059998221
-0.062484906
-0.064604281
-0.066209246
-0.067144617
-0.067252781
-0.066382438
-0.064398154
-0.061195662
-0.056719702
-0.050986389
-0.044109121
-0.036325386
-0.028018517
-0.019723948
-0.012106112
-0.0058940714
-0.0017614673
-0.00013041537
-0.001048458
-0.0047201493
-0.011529223
-0.033746014
-0.035096589
-0.036012598
-0.036684793
-0.037267975
-0.037837492
-0.03847834
-0.039274596
-0.040294952
-0.041589526
-0.043189626
-0.04510828
-0.047340863
-0.049865569
-0.052643496
-0.055618324
-0.058715891
-0.061843854
-0.064891582
-0.067730611
-0.070215942
-0.072188253
-0.073477563
-0.073908491
-0.073306677
-0.071511337
-0.06838644
-0.063839975
-0.05784718
-0.050479379
-0.041937209
-0.032583492
-0.022965584
-0.013810942
-0.0059768952
-0.00032657626
0.0025063885
0.0023009095
-0.0012934279
-0.0087390345
-0.037994811
-0.039411948
-0.040321805
-0.040915891
-0.041361173
-0.04175084
-0.042192718
-0.04279351
-0.043640933
-0.044799445
-0.046310129
-0.04819183
-0.050442595
-0.05304081
-0.055945859
-0.05909819
-0.062419106
-0.065810544
-0.069154965
-0.072315645
-0.07513788
-0.07745084
-0.079070811
-0.079805908
-0.079462452
-0.07785509
-0.074818762
-0.070226476
-0.064012449
-0.056202315
-0.046950718
-0.036583696
-0.025637457
-0.014877112
-0.0052707467
0.0021249293
0.0064296576
0.0071863
0.0038251492
-0.0042392194
-0.042421629
-0.043977169
-0.044889781
-0.045366089
-0.045602004
-0.045720669
-0.045863987
-0.04617016
-0.046751637
-0.047690172
-0.049037556
-0.05081803
-0.053031079
-0.055653665
-0.058641718
-0.061930774
-0.065436119
-0.069052737
-0.072655317
-0.076098279
-0.079217079
-0.081829625
-0.083739187
-0.084738662
-0.084616568
-0.083165735
-0.080194913
-0.07554512
-0.069111863
-0.060875177
-0.050939215
-0.039581313
-0.027305323
-0.014885285
-0.0033725853
0.0059924723
0.012058954
0.014069663
0.011141166
0.0024940081
-0.047066509
-0.048862517
-0.049783616
-0.050078838
-0.050002661
-0.049727517
-0.049445036
-0.049335871
-0.049543197
-0.050168291
-0.051273429
-0.052886576
-0.055006258
-0.057605402
-0.06063394
-0.064020164
-0.06767128
-0.071473568
-0.075293207
-0.078973865
-0.082341093
-0.085201207
-0.087344552
-0.088549417
-0.088587738
-0.087232156
-0.084267967
-0.079507531
-0.072811235
-0.064116373
-0.053476551
-0.041114085
-0.027484139
-0.01334184
0.0002118675
0.011776485
0.01992116
0.023529435
0.021288714
0.012115626
-0.052018563
-0.05419492
-0.055116864
-0.05512689
-0.054589078
-0.05375477
-0.052885854
-0.052217667
-0.051929165
-0.052141447
-0.052924921
-0.054307712
-0.056283429
-0.058817127
-0.061849445
-0.065298252
-0.069060207
-0.073010491
-0.077007798
-0.080879398
-0.084442611
-0.087491115
-0.089801758
-0.091138061
-0.09125651
-0.089909014
-0.086859585
-0.081894556
-0.074842557
-0.065601953
-0.054178573
-0.040738361
-0.025677623
-0.0097091602
0.0060519008
0.020078317
0.030665287
0.036287528
0.035068033
0.025454845
-0.05745224
-0.060191859
-0.061071499
-0.060621952
-0.059402711
-0.057786998
-0.056131425
-0.05473735
-0.053821308
-0.053520751
-0.053908496
-0.055006601
-0.056797863
-0.059234234
-0.062243381
-0.065728309
-0.069573298
-0.073640959
-0.077774067
-0.081792994
-0.085499181
-0.088673521
-0.091079035
-0.092463974
-0.09256668
-0.091121605
-0.087870051
-0.082572846
-0.075028732
-0.065099812
-0.052746942
-0.038080599
-0.021432656
-0.0034556319
0.014754845
0.031584034
0.04507143
0.053242737
0.053501362
0.043589221
-0.063695336
-0.067217617
-0.067929781
-0.066725912
-0.064500567
-0.061806099
-0.05911812
-0.056809827
-0.055130129
-0.054223052
-0.054153226
-0.054927063
-0.056508506
-0.058830156
-0.061800231
-0.065305511
-0.069213493
-0.073371996
-0.077609108
-0.081732482
-0.085529315
-0.088766563
-0.091192397
-0.092538824
-0.092525929
-0.09086813
-0.087283342
-0.081505831
-0.073303294
-0.062500803
-0.049013972
-0.032896356
-0.014409583
0.0058705772
0.026900327
0.047021721
0.06404551
0.075509532
0.077916513
0.067979348
-0.071361094
-0.075877045
-0.076118565
-0.073661354
-0.069950604
-0.065782977
-0.061766819
-0.058339188
-0.055763654
-0.054171528
-0.05360223
-0.054033239
-0.055398618
-0.057604546
-0.06053498
-0.064055717
-0.06801549
-0.072245509
-0.076558572
-0.080747866
-0.084586334
-0.087826428
-0.090200889
-0.091424781
-0.091199146
-0.089216612
-0.085169555
-0.078762789
-0.069728745
-0.057850063
-0.042990193
-0.025137515
-0.0044716869
0.018536174
0.042930946
0.067072365
0.088579837
0.10445351
0.1100745
0.10072743
-0.081616567
-0.08716955
-0.08626079
-0.08171026
-0.075812625
-0.069656678
-0.06396605
-0.059206775
-0.055619448
-0.053290339
-0.052209041
-0.052305274
-0.0534724
-0.055581144
-0.058486308
-0.062029416
-0.066038761
-0.07032799
-0.074694264
-0.07891632
-0.082753062
-0.085942681
-0.088202719
-0.089231362
-0.088710327
-0.086309427
-0.081693112
-0.074533032
-0.064519736
-0.051383391
-0.034920784
-0.015034225
0.0082085993
0.034473326
0.062971183
0.092184759
0.11962069
0.14168507
0.15236715
0.14508476
-0.09675079
-0.10273121
-0.099193745
-0.09115497
-0.082066907
-0.073270322
-0.065519991
-0.05923073
-0.054553438
-0.051480149
-0.049916671
-0.049723828
-0.050740132
-0.052793385
-0.055705097
-0.059290681
-0.063357547
-0.067702139
-0.072106847
-0.076337117
-0.080139144
-0.083238266
-0.085338254
-0.08612173
-0.085252169
-0.082376796
-0.077131207
-0.069150538
-0.058076359
-0.043573537
-0.025351007
-0.003192233
0.022995932
0.053093851
0.086585057
0.12223536
0.15773486
0.18890767
0.2080546
0.20628241
-0.1213366
-0.12518559
-0.11587415
-0.10208659
-0.088427875
-0.07621368
-0.066024618
-0.058072595
-0.052310999
-0.048567135
-0.046620682
-0.046239334
-0.047194258
-0.049264962
-0.052238213
-0.055904047
-0.060050822
-0.064460127
-0.068902164
-0.073131767
-0.076885208
-0.079877838
-0.081802589
-0.082329488
-0.081106763
-0.077760735
-0.071900946
-0.063124355
-0.051018905
-0.035172615
-0.015183362
0.0093256757
0.038677621
0.073078913
0.11246755
0.15621033
0.20257978
0.24747368
0.28125248
0.29230677
-0.16445961
-0.15843592
-0.13715416
-0.1141679
-0.094123243
-0.077652157
-0.064762336
-0.055187648
-0.048514895
-0.044313546
-0.042190039
-0.041798437
-0.042836451
-0.045036319
-0.04815419
-0.051959887
-0.056227986
-0.060730228
-0.065229305
-0.069473841
-0.073194465
-0.076100829
-0.077879519
-0.078193028
-0.076679982
-0.07294529
-0.066583723
-0.057155336
-0.044195586
-0.027211584
-0.0056743757
0.020990971
0.053415627
0.092279828
0.13824253
0.19177246
0.25261393
0.31745843
0.37621642
0.41531781
-0.24630007
-0.20632389
-0.1621389
-0.12554247
-0.097162978
-0.075902632
-0.060515539
-0.04978171
-0.042688715
-0.03846166
-0.036510994
-0.036379884
-0.037704839
-0.040185266
-0.043560107
-0.047590384
-0.052046319
-0.056697622
-0.061306094
-0.065619949
-0.069369442
-0.072263584
-0.073987808
-0.07420331
-0.072548184
-0.068603172
-0.061967517
-0.0521701
-0.038705401
-0.021011423
0.0015589225
0.029782501
0.064638905
0.10741393
0.15981789
0.22412346
0.30285077
0.39547781
0.4961895
0.60315779
-0.42544577
-0.26573605
-0.17723013
-0.12465005
-0.089136744
-0.065128301
-0.049353309
-0.039216446
-0.033014219
-0.029701857
-0.028593931
-0.029204003
-0.031167174
-0.034192901
-0.038033305
-0.042462191
-0.047261069
-0.052209335
-0.057077087
-0.061619718
-0.065573816
-0.068653984
-0.070550121
-0.070924036
-0.069397901
-0.065626462
-0.05913681
-0.049465469
-0.036095522
-0.018431691
0.0042363782
0.032806268
0.068496805
0.11309253
0.16938458
0.24196361
0.33801174
0.46586123
0.64299996
0.92080737
-0.79331783
-0.32444658
-0.14900464
-0.087738123
-0.055365084
-0.036024857
-0.025121429
-0.019233285
-0.016387867
-0.01564922
-0.016520243
-0.01867426
-0.021866478
-0.025894338
-0.030573745
-0.0357249
-0.041163666
-0.046695606
-0.052111433
-0.057183364
-0.061662177
-0.06527484
-0.067722836
-0.068682449
-0.067811922
-0.064702113
-0.058943668
-0.050082535
-0.037611697
-0.020953381
0.00057718993
0.027841503
0.06201392
0.10486445
0.15939955
0.23147445
0.33379701
0.49403741
0.78996143
1.3837232
-1.4778059e-05
-0.00015742811
-0.00046889306
-0.00087045833
-0.0012877781
-0.0016753482
-0.0020025264
-0.0022504546
-0.0024086056
-0.0024712796
-0.0024355234
-0.0022998535
-0.0020636946
-0.0017273312
-0.0012921473
-0.00076115646
-0.00013968277
0.00056400886
0.0013381638
0.0021671561
0.0030314047
0.0039076016
0.0047693187
0.0055880238
0.0063344302
0.0069801923
0.0074997781
0.0078724186
0.0080839232
0.0081282457
0.0080085877
0.007737998
0.007339406
0.006845185
0.006296129
0.0057396727
0.005230766
0.0048255794
0.0045857741
0.0045471211
0.00012697869
-1.8020738e-05
-0.000267574
-0.00057562901
-0.00089692068
-0.0011970028
-0.0014518906
-0.0016453885
-0.001767211
-0.0018109267
-0.0017725571
-0.0016497243
-0.0014411874
-0.0011467501
-0.00076742668
-0.00030582656
0.00023332115
0.00084270177
0.0015120105
0.0022276416
0.0029726316
0.0037269971
0.0044680832
0.0051715961
0.0058127239
0.0063676039
0.0068149327
0.007137633
0.0073243772
0.0073708889
0.0072808152
0.0070661312
0.006746991
0.0063510828
0.0059125372
0.0054702864
0.0050654603
0.0047413068
0.0045429193
0.0045076071
0.0004446751
0.00022697302
-2.8270699e-05
-0.00030660569
-0.00058610017
-0.0008421311
-0.0010570563
-0.0012188495
-0.001319345
-0.001353004
-0.0013160815
-0.0012060561
-0.0010213086
-0.00076110719
-0.00042582617
-1.7296721e-05
0.00046072697
0.001002121
0.0015980152
0.0022365057
0.0029026178
0.0035784372
0.0042436383
0.0048762678
0.0054538189
0.0059545914
0.0063591991
0.0066521255
0.0068231474
0.0068685269
0.0067917814
0.0066039656
0.0063233893
0.0059748024
0.0055881229
0.0051967369
0.0048352093
0.004537708
0.0043404642
0.004273244
0.00086538086
0.00053428276
0.00023444165
-5.0571386e-05
-0.00032047886
-0.00055878818
-0.0007540636
-0.00089913567
-0.00098893206
-0.0010197165
-0.00098867097
-0.00089353618
-0.0007324619
-0.00050412638
-0.00020805595
0.00015498218
0.00058249318
0.0010697622
0.0016094244
0.0021911548
0.0028015517
0.0034242056
0.0040401851
0.0046287332
0.0051683164
0.0056379492
0.0060186908
0.0062952001
0.0064571778
0.0065005568
0.0064282533
0.0062503864
0.0059839006
0.0056516094
0.0052807389
0.0049011186
0.0045433717
0.0042373835
0.004009597
0.0038741244
0.0013150552
0.00085555528
0.00049360357
0.00018415524
-9.2796716e-05
-0.00032801649
-0.000515922
-0.00065425127
-0.00074132146
-0.00077554106
-0.00075525426
-0.0006785815
-0.00054346631
-0.00034792313
-9.0457981e-05
0.00022945061
0.00061078295
0.0010504103
0.0015425769
0.0020785122
0.0026462206
0.0032305056
0.0038133215
0.0043744536
0.0048925472
0.0053464321
0.0057166673
0.0059871568
0.0061466772
0.0061901438
0.0061194132
0.0059434981
0.0056781341
0.005344707
0.0049686216
0.0045773604
0.0041991275
0.0038611226
0.0035789397
0.0033550906
0.0017408418
0.0011479388
0.00071476417
0.00036967079
7.3881009e-05
-0.00016958339
-0.0003604809
-0.00050122455
-0.00059347589
-0.00063780609
-0.000633735
-0.0005797498
-0.00047353059
-0.00031231479
-9.3426064e-05
0.00018513439
0.00052400288
0.00092178578
0.0013744344
0.0018747326
0.002411986
0.0029719458
0.0035370632
0.0040871326
0.0046003087
0.005054449
0.0054287426
0.0057054494
0.0058715728
0.0059202692
0.0058517767
0.0056737015
0.0054005952
0.0050528106
0.0046547112
0.0042325965
0.0038138069
0.0034249043
0.0030729424
0.0027452901
0.0020975048
0.0013728126
0.00086502329
0.00047783973
0.00015534391
-0.00010479535
-0.00030714117
-0.00045843999
-0.00056344757
-0.00062470422
-0.00064277299
-0.00061639571
-0.00054285169
-0.00041843657
-0.00023911684
-1.2355411e-06
0.00029768306
0.00065813862
0.0010779147
0.0015514074
0.002069188
0.0026178149
0.0031799723
0.0037350546
0.0042601688
0.0047315095
0.0051260852
0.00542362
0.0056084351
0.0056710792
0.0056094686
0.0054293359
0.0051439049
0.0047727433
0.0043398434
0.0038714151
0.0033954384
0.0029396636
0.0025042656
0.0020627361
0.0023466576
0.0014955654
0.00091355821
0.00048151112
0.00012772097
-0.00015493892
-0.00037538694
-0.00054429154
-0.00066915151
-0.00075419049
-0.0008007859
-0.0008077351
-0.00077172199
-0.00068790479
-0.00055069381
-0.00035457317
-9.5012214e-05
0.00023058725
0.00062202216
0.0010754536
0.001582807
0.0021314564
0.002704211
0.0032798183
0.0038339134
0.0043404315
0.0047734349
0.0051092019
0.0053283694
0.0054178724
0.0053724014
0.0051951272
0.0048975818
0.0044986041
0.0040223324
0.0034958701
0.002949256
0.0024131806
0.0018828224
0.0013201687
0.0024545285
0.0014845623
0.00083113454
0.0003538923
-3.3555018e-05
-0.00034279437
-0.00058671883
-0.00077950156
-0.00093101834
-0.0010468647
-0.0011289537
-0.0011758858
-0.0011835188
-0.0011456572
-0.0010549297
-0.00090372821
-0.00068521417
-0.00039441519
-2.9247549e-05
0.00040848605
0.00091230341
0.0014705769
0.0020663074
0.0026775214
0.0032781081
0.0038392415
0.0043312974
0.0047261477
0.0049996118
0.0051337922
0.0051189804
0.0049548065
0.004650467
0.0042238844
0.0036996809
0.0031067068
0.0024784028
0.0018501059
0.001213471
0.00051981605
0.00239074
0.0013108049
0.00059029726
6.9049722e-05
-0.00035305529
-0.0006918207
-0.00096379913
-0.0011862978
-0.0013712327
-0.0015252641
-0.0016505521
-0.0017452379
-0.0018041141
-0.001819405
-0.001781712
-0.0016810578
-0.0015079938
-0.001254825
-0.0009167935
-0.00049325204
1.1321118e-05
0.00058671
0.0012163491
0.0018776766
0.0025427445
0.0031795858
0.0037541896
0.0042330003
0.0045857238
0.0047881529
0.0048246659
0.0046899923
0.0043899746
0.0039411051
0.0033685841
0.0027037092
0.0019845992
0.0012529266
0.00049796618
-0.00033935302
0.0021276281
0.00094777722
0.0001655566
-0.00039757636
-0.0008545239
-0.0012251158
-0.0015293132
-0.001787245
-0.0020125637
-0.0022127086
-0.0023898239
-0.0025413561
-0.0026608061
-0.0027385868
-0.0027630225
-0.0027214628
-0.0026014887
-0.0023922509
-0.0020858104
-0.001678497
-0.0011721784
-0.00057496756
9.744818e-05
0.00082231166
0.0015699758
0.0023051311
0.0029887692
0.003580852
0.0040435075
0.0043444419
0.0044601937
0.0043787421
0.0041010592
0.0036412449
0.0030248244
0.0022860337
0.0014688786
0.00062308454
-0.00026362106
-0.0012610062
0.0016401177
0.00037146484
-0.00046637894
-0.0010687179
-0.0015602369
-0.0019646522
-0.002305126
-0.0026043332
-0.0028773962
-0.0031322958
-0.0033709488
-0.0035899151
-0.0037812139
-0.0039332291
-0.0040317618
-0.004061178
-0.0040056836
-0.0038507597
-0.0035846547
-0.0031999012
-0.0026948087
-0.0020750083
-0.0013539943
-0.00055413969
0.00029361506
0.0011506695
0.001972578
0.0027118066
0.0033213086
0.0037586128
0.0039900088
0.0039942674
0.0037653161
0.0033132839
0.0026632716
0.0018526343
0.00093238813
-3.7889884e-05
-0.0010714328
-0.0022495612
0.00090586252
-0.00043942911
-0.0013262077
-0.0019647273
-0.0024903371
-0.0029304997
-0.0033113843
-0.0036579677
-0.0039866296
-0.0043057178
-0.004616775
-0.0049153366
-0.0051918044
-0.0054323635
-0.0056200664
-0.0057359917
-0.0057605453
-0.0056749592
-0.0054629248
-0.0051122981
-0.0046168708
-0.0039782849
-0.0032070314
-0.0023239475
-0.0013604192
-0.0003579192
0.00063351909
0.0015580115
0.0023577031
0.0029775776
0.0033707495
0.0035035978
0.0033599858
0.0029436571
0.0022778308
0.0014026912
0.00037723626
-0.00072718628
-0.0019243275
-0.0033083546
-9.4314138e-05
-0.001503061
-0.0024315803
-0.0031030404
-0.0036621826
-0.0041400422
-0.0045656021
-0.0049659295
-0.0053585101
-0.0057519527
-0.0061473554
-0.0065391642
-0.0069160954
-0.0072620389
-0.0075571259
-0.0077788664
-0.0079034449
-0.0079072402
-0.0077685683
-0.0074695813
-0.0069983348
-0.0063509654
-0.0055335287
-0.0045638027
-0.0034722977
-0.0023024388
-0.0011095459
4.1623384e-05
0.001080897
0.0019381788
0.0025499876
0.0028663213
0.0028569212
0.0025156234
0.0018613121
0.00093599876
-0.00019265165
-0.0014394841
-0.0028183684
-0.0044379211
-0.0013758457
-0.0028339531
-0.0037966225
-0.0044976379
-0.0050896868
-0.0056071671
-0.0060816924
-0.0065422451
-0.0070073266
-0.0074857731
-0.0079782476
-0.0084781373
-0.0089724947
-0.0094429004
-0.0098664707
-0.010216928
-0.010465851
-0.010584177
-0.010544007
-0.010320674
-0.0098950827
-0.009256264
-0.0084039065
-0.0073507838
-0.0061246566
-0.0047693436
-0.0033445021
-0.0019237238
-0.00059063731
0.00056709396
0.0014655982
0.0020336858
0.0022217157
0.0020086826
0.0014053173
0.00045339409
-0.0007705962
-0.0021656084
-0.0037451981
-0.0056341996
-0.0029498545
-0.0044425485
-0.0054314928
-0.0061585388
-0.0067827104
-0.0073415271
-0.0078690654
-0.0083960884
-0.0089420885