/*--------------------------------*- C++ -*----------------------------------*\
  =========                 |
  \\      /  F ield         | OpenFOAM: The Open Source CFD Toolbox
   \\    /   O peration     | Website:  https://openfoam.org
    \\  /    A nd           | Version:  7
     \\/     M anipulation  |
\*---------------------------------------------------------------------------*/
FoamFile
{
    version     2.0;
    format      ascii;
    class       surfaceScalarField;
    location    "13";
    object      phi;
}
// * * * * * * * * * * * * * * * * * * * * * * * * * * * * * * * * * * * * * //

dimensions      [0 3 -1 0 0 0 0];

internalField   nonuniform List<scalar> 
45600
(
2.8131122e-07
-2.7475453e-07
2.3095689e-10
4.0533098e-07
-1.2423046e-07
1.0089431e-10
1.330063e-07
2.7223116e-07
7.454452e-11
-5.6185761e-07
6.9486423e-07
6.5707301e-11
-1.6377402e-06
1.0758794e-06
5.7822594e-11
-3.0241625e-06
1.3863586e-06
4.4784616e-11
-4.6465142e-06
1.6222881e-06
3.7114959e-11
-6.4362334e-06
1.7896735e-06
3.2094958e-11
-8.3333784e-06
1.8971149e-06
2.9363223e-11
-1.028607e-05
1.9526679e-06
2.7274991e-11
-1.2248639e-05
1.9625565e-06
2.5514953e-11
-1.4179471e-05
1.9308057e-06
2.2637151e-11
-1.6038895e-05
1.8593955e-06
2.0185173e-11
-1.7787645e-05
1.7487249e-06
1.897833e-11
-1.938592e-05
1.598252e-06
1.8496945e-11
-2.0793155e-05
1.4072099e-06
1.779483e-11
-2.1968504e-05
1.1753256e-06
1.6961326e-11
-2.2872027e-05
9.0349998e-07
1.5627465e-11
-2.3466421e-05
5.9438163e-07
1.3813247e-11
-2.3719249e-05
2.5282205e-07
1.1517225e-11
-2.3605425e-05
-1.1382758e-07
8.6938634e-12
-2.3109779e-05
-4.9564588e-07
5.7479211e-12
-2.2229558e-05
-8.8022119e-07
2.6059327e-12
-2.0976475e-05
-1.2530791e-06
-4.3491836e-13
-1.9378164e-05
-1.5983083e-06
-3.3310499e-12
-1.7478735e-05
-1.8994228e-06
-5.6753371e-12
-1.5338309e-05
-2.1404188e-06
-7.5957927e-12
-1.3031353e-05
-2.3069444e-06
-8.8454788e-12
-1.0643868e-05
-2.3874744e-06
-9.5875475e-12
-8.2694746e-06
-2.3743823e-06
-9.671744e-12
-6.0046642e-06
-2.2648021e-06
-9.0532927e-12
-3.9434601e-06
-2.0611976e-06
-7.6640021e-12
-2.1718221e-06
-1.7716357e-06
-5.624266e-12
-7.6189219e-07
-1.4099303e-06
-2.8914903e-12
2.3434426e-07
-9.9623871e-07
2.9215432e-13
7.9292314e-07
-5.5858185e-07
3.1849025e-12
9.2650181e-07
-1.3358464e-07
6.3349127e-12
7.0399984e-07
2.2248627e-07
1.0027958e-11
2.8999139e-07
4.139798e-07
1.3939792e-11
2.8996847e-07
7.0431908e-12
1.3534179e-07
-4.1031202e-07
1.0333938e-10
-2.9936663e-07
3.103467e-07
8.2684685e-11
-1.6123256e-06
1.5851983e-06
6.9706968e-11
-3.8690199e-06
2.9514983e-06
5.4092572e-11
-6.9971241e-06
4.2039301e-06
3.9876074e-11
-1.0863391e-05
5.2525346e-06
2.1420711e-11
-1.5311306e-05
6.0702017e-06
1.259926e-11
-2.0183689e-05
6.6620827e-06
6.1358781e-12
-2.533268e-05
7.0461196e-06
1.025169e-12
-3.0622508e-05
7.2424939e-06
-3.0787359e-12
-3.5928314e-05
7.2683749e-06
-6.1936615e-12
-4.1133333e-05
7.1358274e-06
-9.1688896e-12
-4.6125635e-05
6.851697e-06
-1.0254453e-11
-5.0795587e-05
6.4186777e-06
-9.1738829e-12
-5.5034454e-05
5.8371146e-06
-6.8679756e-12
-5.8734428e-05
5.1071717e-06
-4.3854092e-12
-6.1790167e-05
4.2310608e-06
-1.1700152e-12
-6.4101803e-05
3.2151384e-06
2.2288767e-12
-6.5579133e-05
2.0717133e-06
5.406719e-12
-6.6146695e-05
8.2038519e-07
8.5632967e-12
-6.5749601e-05
-5.1092785e-07
1.1613535e-11
-6.4358739e-05
-1.8865141e-06
1.4912879e-11
-6.197656e-05
-3.2624166e-06
1.8010263e-11
-5.8640981e-05
-4.5886752e-06
2.1040455e-11
-5.4428187e-05
-5.811127e-06
2.3779367e-11
-4.9453307e-05
-6.8743263e-06
2.6420826e-11
-4.3868777e-05
-7.7249776e-06
2.8419169e-11
-3.7860056e-05
-8.3156923e-06
2.979698e-11
-3.1638772e-05
-8.6087884e-06
3.0250152e-11
-2.5433395e-05
-8.5797882e-06
2.9827918e-11
-1.94779e-05
-8.2203283e-06
2.8560116e-11
-1.3998867e-05
-7.5402604e-06
2.6579483e-11
-9.2015869e-06
-6.5689446e-06
2.3834246e-11
-5.2554787e-06
-5.3560645e-06
2.0552978e-11
-2.2789349e-06
-3.9728037e-06
1.7069227e-11
-3.2284459e-07
-2.5146852e-06
1.3515555e-11
6.5229613e-07
-1.1087229e-06
9.7072141e-12
8.0067027e-07
7.4130187e-08
8.1056143e-12
4.1675073e-07
7.9792423e-07
9.26552e-12
7.0670955e-07
1.9266177e-12
-2.7224974e-07
-1.3815007e-07
6.8752538e-11
-1.6238762e-06
1.6619813e-06
7.4759128e-11
-4.2817992e-06
4.2431541e-06
6.6282823e-11
-8.2608013e-06
6.9304274e-06
5.1567268e-11
-1.3451852e-05
9.3949021e-06
4.0604549e-11
-1.9675327e-05
1.1475958e-05
3.0784722e-11
-2.6719773e-05
1.3114648e-05
2.5215346e-11
-3.4366805e-05
1.4309112e-05
2.0695028e-11
-4.2404184e-05
1.5083502e-05
1.7467929e-11
-5.0631016e-05
1.5469312e-05
1.3595409e-11
-5.8857912e-05
1.5495255e-05
9.9814936e-12
-6.6904791e-05
1.518269e-05
7.3565084e-12
-7.4597923e-05
1.4544819e-05
6.4218926e-12
-8.1767588e-05
1.3588328e-05
6.5468309e-12
-8.8247042e-05
1.2316551e-05
7.3837518e-12
-9.3873293e-05
1.0733401e-05
8.1594088e-12
-9.8489745e-05
8.8474992e-06
9.1505483e-12
-0.00010195067
6.6760538e-06
9.9589724e-12
-0.00010412713
4.2481763e-06
1.0208616e-11
-0.0001049141
1.6073529e-06
1.0244586e-11
-0.00010423785
-1.18719e-06
1.0045835e-11
-0.00010206362
-4.0607394e-06
9.8899783e-12
-9.8402351e-05
-6.9236993e-06
9.5637045e-12
-9.3315919e-05
-9.6751159e-06
9.3326532e-12
-8.6920435e-05
-1.2206622e-05
9.1487386e-12
-7.9386723e-05
-1.4408046e-05
9.2613152e-12
-7.0937693e-05
-1.6174017e-05
9.2402471e-12
-6.1842207e-05
-1.7411186e-05
9.1920431e-12
-5.2405448e-05
-1.8045556e-05
9.0326845e-12
-4.2955915e-05
-1.802933e-05
8.8104909e-12
-3.3829528e-05
-1.7346727e-05
8.5767148e-12
-2.5351425e-05
-1.6018376e-05
8.4437595e-12
-1.7816203e-05
-1.4104178e-05
8.3375227e-12
-1.1467235e-05
-1.1705043e-05
8.2492344e-12
-6.4755379e-06
-8.9645107e-06
8.2493166e-12
-2.9180648e-06
-6.0721752e-06
8.2659675e-12
-7.5546691e-07
-3.2713435e-06
8.1397636e-12
1.9134181e-07
-8.7269798e-07
8.6478912e-12
2.6426044e-07
7.2500993e-07
1.050485e-11
9.709631e-07
5.5895846e-12
-7.4414505e-07
6.0600425e-07
5.4300623e-11
-3.1735055e-06
4.0912645e-06
6.5831522e-11
-7.3325683e-06
8.4021417e-06
5.1824732e-11
-1.3139131e-05
1.273685e-05
3.8146194e-11
-2.0418591e-05
1.6674312e-05
3.4858114e-11
-2.8939649e-05
1.9996988e-05
2.9342417e-11
-3.8443179e-05
2.2618166e-05
2.4910814e-11
-4.866289e-05
2.4528811e-05
2.1354127e-11
-5.9337286e-05
2.5757893e-05
1.8383767e-11
-7.0214968e-05
2.6346974e-05
1.4370031e-11
-8.1055342e-05
2.6335607e-05
1.1098432e-11
-9.1627029e-05
2.5754358e-05
9.3835701e-12
-0.00010170554
2.462331e-05
9.0006744e-12
-0.00011107156
2.2954325e-05
9.0149696e-12
-0.0001195107
2.0755659e-05
9.6616282e-12
-0.0001268151
1.8037789e-05
1.039159e-11
-0.00013278721
1.4819595e-05
1.0995793e-11
-0.00013724531
1.1134156e-05
1.121236e-11
-0.0001400308
7.0336552e-06
1.0915697e-11
-0.0001410164
2.5929471e-06
1.0483384e-11
-0.00014011488
-2.0887143e-06
9.8307287e-12
-0.00013728785
-6.8877726e-06
9.075647e-12
-0.00013255322
-1.1658333e-05
8.268775e-12
-0.00012599125
-1.6237089e-05
7.6353321e-12
-0.00011774811
-2.0449765e-05
7.0827278e-12
-0.00010803637
-2.4119791e-05
6.7623811e-12
-9.7131843e-05
-2.7078548e-05
6.3771331e-12
-8.5366432e-05
-2.9176599e-05
6.0171791e-12
-7.3116798e-05
-3.0295196e-05
5.7379232e-12
-6.0788964e-05
-3.035717e-05
5.5392907e-12
-4.8799312e-05
-2.9336389e-05
5.4503853e-12
-3.7552621e-05
-2.7265078e-05
5.5653523e-12
-2.7418098e-05
-2.4238712e-05
5.8828797e-12
-1.8704434e-05
-2.0418714e-05
6.3594347e-12
-1.1634941e-05
-1.6034004e-05
6.974601e-12
-6.3237121e-06
-1.1383403e-05
7.6281583e-12
-2.7536334e-06
-6.841429e-06
8.3604962e-12
-7.5909487e-07
-2.867255e-06
9.0215013e-12
-1.0455103e-08
-2.3634228e-08
9.5625713e-12
9.6050184e-07
8.5215083e-12
-1.2254908e-06
1.831516e-06
3.9466343e-11
-4.7787536e-06
7.644458e-06
5.8554547e-11
-1.0501178e-05
1.412449e-05
3.9523926e-11
-1.8179206e-05
2.041483e-05
3.1123907e-11
-2.7550733e-05
2.6045854e-05
2.9306694e-11
-3.832235e-05
3.0768601e-05
2.446795e-11
-5.0186332e-05
3.4482141e-05
2.0390325e-11
-6.283392e-05
3.717639e-05
1.6717845e-11
-7.5963322e-05
3.8887287e-05
1.316216e-11
-8.9283138e-05
3.9666777e-05
9.5578123e-12
-0.00010251245
3.9564915e-05
7.2871164e-12
-0.00011537927
3.862116e-05
6.2990755e-12
-0.00012761854
3.6862571e-05
6.3424234e-12
-0.00013897112
3.430688e-05
6.7277818e-12
-0.00014918416
3.096868e-05
7.6261477e-12
-0.00015801362
2.6867234e-05
8.5954574e-12
-0.00016522876
2.2034732e-05
9.3491689e-12
-0.00017061863
1.6524022e-05
9.8021769e-12
-0.00017400006
1.0415075e-05
9.9415023e-12
-0.00017522673
3.8196157e-06
9.9616495e-12
-0.00017419874
-3.1167098e-06
9.815842e-12
-0.00017087192
-1.0214604e-05
9.5212346e-12
-0.00016526616
-1.7264103e-05
9.2981725e-12
-0.00015747207
-2.4031191e-05
9.2891218e-12
-0.00014765512
-3.0266729e-05
9.3485568e-12
-0.00013605656
-3.5718358e-05
9.4655331e-12
-0.00012299051
-4.0144606e-05
9.4188071e-12
-0.00010883658
-4.333053e-05
9.2349228e-12
-9.4027873e-05
-4.5103913e-05
9.0569103e-12
-7.9034179e-05
-4.5350874e-05
8.8704371e-12
-6.4340888e-05
-4.402969e-05
8.6617328e-12
-5.0424229e-05
-4.118175e-05
8.4689382e-12
-3.7724001e-05
-3.6938953e-05
8.3525491e-12
-2.6615251e-05
-3.1527478e-05
8.3079173e-12
-1.7380552e-05
-2.5268713e-05
8.3383128e-12
-1.0184699e-05
-1.8579258e-05
8.5119608e-12
-5.0537173e-06
-1.1972413e-05
9.1414291e-12
-1.8604975e-06
-6.0604875e-06
8.7791358e-12
-3.226294e-07
-1.5615079e-06
5.7501555e-12
6.3786438e-07
1.0712077e-11
-1.6897194e-06
3.5211958e-06
2.0314989e-11
-6.3585042e-06
1.2313126e-05
4.6938786e-11
-1.3643834e-05
2.1409772e-05
2.9535717e-11
-2.3187299e-05
2.9958274e-05
2.4243535e-11
-3.4625688e-05
3.7484253e-05
2.416002e-11
-4.7594654e-05
4.3737573e-05
2.0799984e-11
-6.1734719e-05
4.8622201e-05
1.7339276e-11
-7.6696376e-05
5.2138029e-05
1.3493817e-11
-9.2142778e-05
5.4333669e-05
1.0047014e-11
-0.00010774998
5.5273959e-05
7.4714088e-12
-0.00012320535
5.5020276e-05
6.2091889e-12
-0.0001382053
5.3621091e-05
5.6495936e-12
-0.00015245323
5.1110475e-05
5.9065189e-12
-0.0001656587
4.751233e-05
6.6473393e-12
-0.00017753836
4.2848333e-05
7.6616851e-12
-0.00018781894
3.7147806e-05
8.5257777e-12
-0.00019624227
3.0458051e-05
9.1553404e-12
-0.00020257224
2.285399e-05
9.5455657e-12
-0.00020660332
1.4446157e-05
9.7420955e-12
-0.00020817011
5.3863935e-06
9.7514155e-12
-0.00020715736
-4.129457e-06
9.6723054e-12
-0.00020350999
-1.3861987e-05
9.4743992e-12
-0.00019724216
-2.3531942e-05
9.4464876e-12
-0.0001884449
-3.2828453e-05
9.5969547e-12
-0.00017729137
-4.1420272e-05
9.7226326e-12
-0.00016403889
-4.8970843e-05
9.8253695e-12
-0.00014902713
-5.5156377e-05
9.8224361e-12
-0.00013267148
-5.9686183e-05
9.6515804e-12
-0.00011545131
-6.23241e-05
9.4505728e-12
-9.7892628e-05
-6.2909564e-05
9.2226669e-12
-8.0545641e-05
-6.137669e-05
8.9924581e-12
-6.3957661e-05
-5.7769743e-05
8.780364e-12
-4.8642851e-05
-5.2253773e-05
8.6382873e-12
-3.505059e-05
-4.511975e-05
8.5295389e-12
-2.3534735e-05
-3.6784581e-05
8.4087734e-12
-1.4326357e-05
-2.7787645e-05
8.546688e-12
-7.5127032e-06
-1.878607e-05
9.5877273e-12
-3.025501e-06
-1.0547697e-05
8.8147393e-12
-6.4228818e-07
-3.9447221e-06
3.2445339e-12
-4.4334721e-09
1.315398e-11
-2.128463e-06
5.6496257e-06
7.4438581e-12
-7.8745476e-06
1.8059177e-05
4.4096469e-11
-1.668256e-05
3.0217783e-05
2.359208e-11
-2.8047549e-05
4.1323247e-05
1.8373665e-11
-4.149961e-05
5.0936307e-05
1.9625812e-11
-5.6598462e-05
5.8836425e-05
1.7249934e-11
-7.2930459e-05
6.4954192e-05
1.3896089e-11
-9.010605e-05
6.9313603e-05
1.0476603e-11
-0.0001077568
7.198441e-05
8.0465812e-12
-0.00012553178
7.3048927e-05
6.4782734e-12
-0.00014309354
7.258202e-05
5.8221644e-12
-0.00016011444
7.064198e-05
5.6992234e-12
-0.00017627406
6.7270063e-05
6.1908553e-12
-0.00019125806
6.249632e-05
7.0831791e-12
-0.00020475927
5.6349528e-05
8.03708e-12
-0.00021648069
4.8869222e-05
8.6598314e-12
-0.00022614076
4.0118117e-05
9.1600363e-12
-0.00023348042
3.019364e-05
9.4715925e-12
-0.00023827174
1.9237476e-05
9.6041168e-12
-0.00024032777
7.4424165e-06
9.4725792e-12
-0.00023951298
-4.9442533e-06
9.3959206e-12
-0.00023575386
-1.7621115e-05
9.2610993e-12
-0.00022904917
-3.0236643e-05
9.313496e-12
-0.00021947889
-4.2398733e-05
9.5376361e-12
-0.00020721131
-5.3687865e-05
9.6554229e-12
-0.00019250707
-6.3675091e-05
9.6505154e-12
-0.0001757194
-7.1944049e-05
9.5915642e-12
-0.00015728936
-7.8116232e-05
9.4056497e-12
-0.00013773525
-8.1878227e-05
9.2047286e-12
-0.00011763567
-8.3009153e-05
8.9707273e-12
-9.7606221e-05
-8.1406152e-05
8.726379e-12
-7.8270341e-05
-7.7105636e-05
8.5132429e-12
-6.0225888e-05
-7.0298236e-05
8.4240489e-12
-4.4009612e-05
-6.1336033e-05
8.4009348e-12
-3.0062452e-05
-5.0731751e-05
8.2706329e-12
-1.8698944e-05
-3.9151166e-05
8.4389501e-12
-1.0084232e-05
-2.740079e-05
9.9405042e-12
-4.2222518e-06
-1.6409683e-05
8.7904988e-12
-9.5822317e-07
-7.2087486e-06
4.6467393e-13
-9.6266833e-07
1.5229292e-11
-2.5395736e-06
8.1891898e-06
-2.0029992e-12
-9.3088732e-06
2.4828468e-05
4.3111558e-11
-1.9573724e-05
4.0482641e-05
1.9095142e-11
-3.2687975e-05
5.4437499e-05
1.3971103e-11
-4.807561e-05
6.6323933e-05
1.5737e-11
-6.5219481e-05
7.5980283e-05
1.324909e-11
-8.3651361e-05
8.3386055e-05
1.0068809e-11
-0.00010294282
8.8605043e-05
7.713236e-12
-0.00012269681
9.1738396e-05
6.4563613e-12
-0.00014253999
9.2892095e-05
5.5826463e-12
-0.00016211584
9.2157851e-05
5.2173866e-12
-0.00018107917
8.9605285e-05
5.5325513e-12
-0.00019909232
8.5283202e-05
6.2977569e-12
-0.00021582351
7.9227496e-05
7.1741285e-12
-0.00023094731
7.1473324e-05
8.0438537e-12
-0.0002441475
6.2069396e-05
8.5215747e-12
-0.00025512192
5.1092539e-05
8.9262057e-12
-0.00026358942
3.8661131e-05
9.1609191e-12
-0.00026929825
2.4946304e-05
9.2484202e-12
-0.00027203596
1.0180121e-05
9.0561781e-12
-0.00027164022
-5.3400059e-06
9.0866465e-12
-0.00026801011
-2.1251231e-05
9.1829045e-12
-0.00026111785
-3.7128909e-05
9.36866e-12
-0.00025101965
-5.2496943e-05
9.6419861e-12
-0.00023786529
-6.6842229e-05
9.8125925e-12
-0.00022190526
-7.9635134e-05
9.7971227e-12
-0.00020349407
-9.0355249e-05
9.7195969e-12
-0.00018308853
-9.8521782e-05
9.5098401e-12
-0.00016123953
-0.00010372724
9.2661318e-12
-0.00013857639
-0.00010567231
9.0040831e-12
-0.00011578326
-0.00010419929
8.7442662e-12
-9.3568103e-05
-9.9320811e-05
8.5041089e-12
-7.2625602e-05
-9.1240748e-05
8.3930736e-12
-5.3596766e-05
-8.0364876e-05
8.4012504e-12
-3.7028666e-05
-6.7299858e-05
8.2667961e-12
-2.3338504e-05
-5.2841339e-05
8.4724794e-12
-1.2786229e-05
-3.7953074e-05
1.0394104e-11
-5.4597869e-06
-2.3736132e-05
8.7138525e-12
-1.2763158e-06
-1.1392214e-05
-2.5181066e-12
-2.2389986e-06
1.7581997e-11
-2.9220793e-06
1.1111278e-05
-8.8841875e-12
-1.0650615e-05
3.2556973e-05
4.2250153e-11
-2.2288489e-05
5.2120511e-05
1.5261699e-11
-3.7057643e-05
6.9206657e-05
9.7143556e-12
-5.4280796e-05
8.3547076e-05
1.1509089e-11
-7.3366422e-05
9.5065893e-05
9.2550092e-12
-9.3793513e-05
0.00010381313
6.9590934e-12
-0.00011509697
0.00010990849
5.6454484e-12
-0.00013685431
0.00011349572
5.0716561e-12
-0.00015867396
0.00011471173
4.8414969e-12
-0.00018018546
0.00011366933
4.9447867e-12
-0.00020103174
0.00011045155
5.5870317e-12
-0.00022086386
0.00010511531
6.4148695e-12
-0.00023933816
9.770179e-05
7.0785511e-12
-0.00025611593
8.8251092e-05
7.8379805e-12
-0.00027086545
7.681891e-05
8.3212831e-12
-0.00028326619
6.3493282e-05
8.6728233e-12
-0.00029301508
4.8410011e-05
8.793859e-12
-0.00029983444
3.1765669e-05
8.8605537e-12
-0.00030348173
1.3827396e-05
8.6998158e-12
-0.00030376057
-5.0611744e-06
8.8149528e-12
-0.00030053289
-2.4478918e-05
9.111916e-12
-0.00029373237
-4.392944e-05
9.4135852e-12
-0.00028337767
-6.2851651e-05
9.6850265e-12
-0.00026958534
-8.0634561e-05
9.8807942e-12
-0.00025258091
-9.6639573e-05
9.9139712e-12
-0.00023270659
-0.00011022958
9.8902423e-12
-0.00021042385
-0.00012080453
9.7151531e-12
-0.00018630898
-0.00012784212
9.4389427e-12
-0.00016103982
-0.00013094148
9.1193279e-12
-0.00013537286
-0.00012986627
8.8401426e-12
-0.00011011042
-0.00012458326
8.592e-12
-8.6059584e-05
-0.0001152916
8.4214382e-12
-6.3985505e-05
-0.00010243897
8.3658538e-12
-4.4563625e-05
-8.6721746e-05
8.1610167e-12
-2.8335814e-05
-6.9069162e-05
8.4290488e-12
-1.5675694e-05
-5.0613203e-05
1.0870136e-11
-6.7680257e-06
-3.2643805e-05
8.6998921e-12
-1.6054586e-06
-1.6554772e-05
-5.5480262e-12
-3.8444748e-06
2.0040518e-11
-3.2745203e-06
1.4385817e-05
-1.4405255e-11
-1.1890226e-05
4.1172645e-05
4.2059724e-11
-2.4802787e-05
6.5033062e-05
1.1318441e-11
-4.1113754e-05
8.551762e-05
4.9034915e-12
-6.0052258e-05
0.00010248557
7.5117904e-12
-8.0957455e-05
0.00011597108
6.3316639e-12
-0.00010325925
0.00012611492
5.0317174e-12
-0.00012645918
0.00013310841
4.3576571e-12
-0.00015011291
0.00013714943
4.0535749e-12
-0.00017381484
0.00013841364
4.3000729e-12
-0.00019718533
0.0001370398
4.8513767e-12
-0.00021986071
0.00013312692
5.6067678e-12
-0.00024148613
0.00012674072
6.3761074e-12
-0.00026171126
0.00011792692
6.8774749e-12
-0.00028018869
0.00010672852
7.4606589e-12
-0.00029657473
9.3204949e-05
7.8519198e-12
-0.00031053255
7.7451098e-05
8.1009499e-12
-0.00032173735
5.9614802e-05
8.1659757e-12
-0.00032988355
3.9911866e-05
8.3284588e-12
-0.000334694
1.8637841e-05
8.3583913e-12
-0.00033593131
-3.8238798e-06
8.5931765e-12
-0.00033341035
-2.6999885e-05
9.043531e-12
-0.00032701408
-5.0325711e-05
9.4539887e-12
-0.00031670925
-7.315649e-05
9.7647536e-12
-0.00030256328
-9.4780539e-05
9.9514825e-12
-0.00028476027
-0.00011444258
9.974471e-12
-0.00026361436
-0.0001313755
9.962785e-12
-0.00023957809
-0.00014484081
9.8249807e-12
-0.00021324331
-0.00015417692
9.5531051e-12
-0.00018533203
-0.00015885278
9.176693e-12
-0.00015667531
-0.000158523
8.8763303e-12
-0.00012817947
-0.00015307911
8.667041e-12
-0.00010078053
-0.00014269055
8.5121233e-12
-7.5390061e-05
-0.00012782944
8.3985034e-12
-5.2837461e-05
-0.00010927436
8.0455452e-12
-3.3815087e-05
-8.8091548e-05
8.2935561e-12
-1.8832929e-05
-6.5595373e-05
1.1270415e-11
-8.1889752e-06
-4.3287765e-05
8.6346054e-12
-1.9590107e-06
-2.2784725e-05
-8.782731e-12
-5.8035067e-06
2.2706352e-11
-3.5945271e-06
1.7980367e-05
-1.9388983e-11
-1.301726e-05
5.0595341e-05
4.1446316e-11
-2.709276e-05
7.9108545e-05
7.1623922e-12
-4.4815134e-05
0.00010323999
5.8088633e-13
-6.5329467e-05
0.00012299989
4.5780647e-12
-8.7912422e-05
0.00013855402
4.3540283e-12
-0.00011194988
0.00015015236
3.598997e-12
-0.00013691423
0.00015807275
3.5234681e-12
-0.00016234329
0.00016257847
3.6836643e-12
-0.00018782166
0.000163892
4.2403876e-12
-0.0002129652
0.00016218333
4.9578037e-12
-0.00023740857
0.00015757029
5.6159724e-12
-0.0002607962
0.00015012835
6.2269111e-12
-0.00028277612
0.00013990684
6.6839719e-12
-0.00030299677
0.00012694917
7.1604827e-12
-0.00032110625
0.00011131442
7.4042953e-12
-0.00033675387
9.3098719e-05
7.4730968e-12
-0.00034959399
7.2454915e-05
7.4665663e-12
-0.00035929197
4.9609845e-05
7.734379e-12
-0.00036553256
2.4878425e-05
7.9827137e-12
-0.00036803139
-1.3250668e-06
8.3077859e-12
-0.00036654721
-2.848407e-05
8.8399766e-12
-0.00036090068
-5.5972239e-05
9.3113829e-12
-0.00035099212
-8.3065058e-05
9.7303356e-12
-0.00033682307
-0.00010894959
1.000722e-11
-0.00031851796
-0.00013274771
1.006867e-11
-0.00029634422
-0.00015354925
1.0039029e-11
-0.00027072819
-0.00017045686
9.9035592e-12
-0.00024226326
-0.00018264186
9.6630179e-12
-0.000211707
-0.00018940906
9.2544359e-12
-0.00017996374
-0.00019026627
8.8787577e-12
-0.00014805107
-0.00018499179
8.6522302e-12
-0.00011705011
-0.00017369152
8.5341141e-12
-8.8042684e-05
-0.00015683688
8.4310678e-12
-6.2041204e-05
-0.00013527585
7.9843883e-12
-3.9919202e-05
-0.00011021356
8.2108742e-12
-2.2351371e-05
-8.3163215e-05
1.1741462e-11
-9.7713176e-06
-5.5867825e-05
8.5523096e-12
-2.351981e-06
-3.0204047e-05
-1.238238e-11
-8.1555121e-06
2.5710284e-11
-3.8788907e-06
2.1859282e-05
-2.4519813e-11
-1.4019799e-05
6.0736207e-05
4.0563741e-11
-2.9133137e-05
9.4221869e-05
4.2093543e-12
-4.8119596e-05
0.00012222644
-1.9574084e-12
-7.0050942e-05
0.00014493123
3.1620444e-12
-9.414927e-05
0.00016265234
3.3932782e-12
-0.00011976236
0.00017576544
2.7693369e-12
-0.00014633822
0.00018464859
3.0584219e-12
-0.00017340109
0.00018964133
3.5935654e-12
-0.00020053009
0.00019102098
4.1925141e-12
-0.00022734102
0.00018899426
4.8185754e-12
-0.00025347176
0.00018370104
5.4099324e-12
-0.00027857103
0.00017522761
5.8674182e-12
-0.00030229032
0.00016362613
6.2217451e-12
-0.00032427877
0.00014893761
6.5983825e-12
-0.00034418052
0.00013121617
6.765292e-12
-0.00036163445
0.00011055265
6.7829121e-12
-0.00037627617
8.7096626e-05
6.7988526e-12
-0.00038774243
6.1076096e-05
7.1632604e-12
-0.00039567837
3.2814357e-05
7.6273638e-12
-0.00039974756
2.7441202e-06
8.1919331e-12
-0.0003996471
-2.8584534e-05
8.6556469e-12
-0.00039512412
-6.0495217e-05
9.0893571e-12
-0.00038599895
-9.219024e-05
9.5451377e-12
-0.00037219022
-0.00012275833
9.9174451e-12
-0.00035374281
-0.00015119513
1.0085971e-11
-0.00033085579
-0.00017643628
1.0075227e-11
-0.00030390743
-0.00019740524
9.91858e-12
-0.00027347302
-0.00021307628
9.7323719e-12
-0.00024033079
-0.00022255129
9.3805232e-12
-0.00020545118
-0.00022514589
8.9599415e-12
-0.00016996575
-0.00022047723
8.6555832e-12
-0.0001351145
-0.00020854278
8.4971013e-12
-0.00010217385
-0.00018977755
8.3659782e-12
-7.2371601e-05
-0.00016507811
7.8451482e-12
-4.6798895e-05
-0.00013578628
8.1059584e-12
-2.633079e-05
-0.00010363133
1.2316011e-11
-1.1566993e-05
-7.063163e-05
8.5024157e-12
-2.8000371e-06
-3.8970988e-05
-1.6480174e-11
-1.0955578e-05
2.911455e-11
-4.1238077e-06
2.5983109e-05
-2.8911698e-11
-1.4884776e-05
7.1497128e-05
4.0564366e-11
-3.0897382e-05
0.00011023446
2.7557145e-12
-5.0983803e-05
0.00014231286
-3.3391817e-12
-7.4153923e-05
0.00016810134
2.3636416e-12
-9.9583743e-05
0.00018808214
2.9731212e-12
-0.00012658926
0.00020277094
2.6542426e-12
-0.00015459907
0.00021265838
3.1667158e-12
-0.00018312814
0.00021817039
3.8029864e-12
-0.00021175425
0.00021964709
4.233331e-12
-0.00024009757
0.00021733757
4.5629755e-12
-0.00026780384
0.0002114073
5.0902839e-12
-0.00029453108
0.00020195486
5.4667483e-12
-0.00031993952
0.00018903457
5.6272137e-12
-0.0003436843
0.00017268239
5.7998891e-12
-0.00036541076
0.00015294262
5.9335781e-12
-0.00038475196
0.00012989385
6.0288969e-12
-0.00040132861
0.00010367327
6.1583246e-12
-0.0004147515
7.4498974e-05
6.5769649e-12
-0.00042462699
4.2689838e-05
7.123225e-12
-0.00043056596
8.6830878e-06
7.76536e-12
-0.00043219853
-2.6951964e-05
8.332694e-12
-0.00042919127
-6.3502486e-05
8.8199149e-12
-0.00042127249
-0.00010010902
9.2884065e-12
-0.00040826157
-0.00013576925
9.6940662e-12
-0.00039010302
-0.00016935369
9.9622459e-12
-0.000366903
-0.00019963632
1.004825e-11
-0.00033896494
-0.00022534331
9.8933785e-12
-0.00030681951
-0.00024522173
9.724549e-12
-0.00027124266
-0.00025812815
9.4540077e-12
-0.00023325534
-0.00026313323
9.0589158e-12
-0.00019409849
-0.0002596341
8.7054456e-12
-0.00015517993
-0.00024746135
8.4921667e-12
-0.00011799366
-0.00022696383
8.2885338e-12
-8.4017942e-05
-0.00019905383
7.6554183e-12
-5.4604259e-05
-0.00016519997
7.9700844e-12
-3.0872541e-05
-0.00012736306
1.3008481e-11
-1.3629195e-05
-8.7874983e-05
8.5406358e-12
-3.319149e-06
-4.9281016e-05
-2.1132285e-11
-1.427476e-05
3.3050214e-11
-4.3252429e-06
3.0308375e-05
-3.1350806e-11
-1.5598852e-05
8.2770692e-05
4.1988513e-11
-3.2358983e-05
0.00012699459
2.6119862e-12
-5.3364868e-05
0.00016331874
-3.7670952e-12
-7.7576255e-05
0.0001923127
2.2264909e-12
-0.00010413164
0.00021463751
2.9804821e-12
-0.00013232153
0.00023096081
2.7969839e-12
-0.0001615599
0.00024189674
3.2669336e-12
-0.00019135658
0.00024796708
3.8276383e-12
-0.00022129191
0.00024958242
4.2307811e-12
-0.00025099449
0.00024704015
4.3578474e-12
-0.00028012246
0.00024053527
4.7134762e-12
-0.00030834816
0.00023018057
4.9714409e-12
-0.00033534601
0.00021603241
4.9617633e-12
-0.00036078302
0.0001981194
4.9322432e-12
-0.00038431184
0.00017647144
5.06129e-12
-0.00040556593
0.00015114793
5.293547e-12
-0.00042415703
0.00012226437
5.581784e-12
-0.00043967526
9.0017205e-05
6.0474542e-12
-0.00045169242
5.4706994e-05
6.6115274e-12
-0.00045976926
1.6759917e-05
7.2068715e-12
-0.00046346825
-2.3252972e-05
7.869146e-12
-0.00046237159
-6.4599152e-05
8.4524445e-12
-0.00045610691
-0.00010637371
8.96928e-12
-0.00044437999
-0.00014749618
9.3879948e-12
-0.00042701449
-0.00018671921
9.6825729e-12
-0.00040399709
-0.00022265373
9.8833786e-12
-0.00037552498
-0.00025381543
9.8220284e-12
-0.00034205021
-0.00027869651
9.6883644e-12
-0.00030431384
-0.00029586454
9.4840529e-12
-0.00026336079
-0.0003040863
9.1348521e-12
-0.0002205263
-0.0003024686
8.7358941e-12
-0.00017738681
-0.00029060086
8.4568173e-12
-0.00013567286
-0.00026867779
8.1578921e-12
-9.7149427e-05
-0.00023757727
7.3813431e-12
-6.3477276e-05
-0.00019887213
7.7749621e-12
-3.6075861e-05
-0.00015476449
1.3787266e-11
-1.6011053e-05
-0.0001079398
8.6199777e-12
-3.9254271e-06
-6.1366622e-05
-2.6471665e-11
-1.8200225e-05
3.7666676e-11
-4.4793643e-06
3.4787767e-05
-3.2401452e-11
-1.6149625e-05
9.4440897e-05
4.3488504e-11
-3.3493494e-05
0.00014433844
2.6424376e-12
-5.5223191e-05
0.00018504843
-3.9156183e-12
-8.0259989e-05
0.00021734949
2.5118167e-12
-0.00010771317
0.00024209069
3.3103147e-12
-0.00013685363
0.00026010127
2.995904e-12
-0.00016708515
0.00027212826
3.229899e-12
-0.00019791605
0.00027879797
3.5504204e-12
-0.00022893272
0.00028059909
3.9440665e-12
-0.00025977596
0.00027788339
4.0128956e-12
-0.00029012053
0.00027087985
4.1590642e-12
-0.00031965804
0.00025971807
4.2397334e-12
-0.00034808271
0.00024445709
4.1817858e-12
-0.0003750799
0.00022511659
4.1013024e-12
-0.0004003167
0.00020170823
4.2472837e-12
-0.0004234347
0.00017426593
4.5545263e-12
-0.00044404491
0.00014287457
4.9374741e-12
-0.00046172508
0.00010769738
5.4182702e-12
-0.00047602033
6.9002247e-05
6.0296153e-12
-0.00048644788
2.7187455e-05
6.6087139e-12
-0.00049250726
-1.719359e-05
7.2964763e-12
-0.00049369718
-6.3409239e-05
7.9421943e-12
-0.00048954063
-0.00011053027
8.5280511e-12
-0.00047961926
-0.00015741756
9.0288291e-12
-0.00046361752
-0.00020272096
9.3489775e-12
-0.00044137577
-0.00024489549
9.6109837e-12
-0.00041294991
-0.00028224131
9.6743614e-12
-0.00037867227
-0.00031297417
9.613515e-12
-0.00033920564
-0.00033533118
9.4746728e-12
-0.00029557917
-0.00034771277
9.2022575e-12
-0.00024919334
-0.00034885445
8.7924611e-12
-0.00020178168
-0.00033801253
8.450617e-12
-0.0001553224
-0.00031513707
8.0294796e-12
-0.00011190184
-0.00028099784
7.0588315e-12
-7.3544328e-05
-0.00023722965
7.5573686e-12
-4.2034471e-05
-0.00018627437
1.4713442e-11
-1.8764595e-05
-0.00013120968
8.7485038e-12
-4.6350444e-06
-7.5496148e-05
-3.2649929e-11
-2.2835315e-05
4.3051359e-11
-4.5830346e-06
3.9370831e-05
-3.2662036e-11
-1.6527095e-05
0.0001063849
4.4912006e-11
-3.4281152e-05
0.00016209248
3.1375681e-12
-5.652624e-05
0.00020729351
-3.654793e-12
-8.2156291e-05
0.00024297954
2.9111761e-12
-0.00011025898
0.00027019337
3.5895342e-12
-0.00014009076
0.00028993305
3.0457673e-12
-0.00017104897
0.00030308647
3.1262845e-12
-0.00020264348
0.00031039248
3.2594925e-12
-0.00023446971
0.00031242533
3.5193987e-12
-0.00026618393
0.00030959761
3.4683797e-12
-0.00029748146
0.00030217738
3.4293164e-12
-0.00032807789
0.00029031451
3.3714163e-12
-0.00035769308
0.00027407228
3.3658507e-12
-0.00038603752
0.00025346102
3.3934777e-12
-0.00041280079
0.0002284715
3.6218492e-12
-0.0004376419
0.00019910703
3.981875e-12
-0.00046018143
0.0001654141
4.4166253e-12
-0.00047999607
0.00012751201
4.8399751e-12
-0.00049661597
8.5622145e-05
5.4466112e-12
-0.00050952616
4.0097644e-05
6.0154649e-12
-0.00051817335
-8.5464047e-06
6.6886355e-12
-0.00052197978
-5.9602817e-05
7.3336719e-12
-0.00052036605
-0.000112144
7.9128406e-12
-0.00051278498
-0.00016499863
8.5123779e-12
-0.00049876792
-0.00021673803
8.966529e-12
-0.00047798412
-0.0002656793
9.3276221e-12
-0.00045031184
-0.0003099136
9.5278745e-12
-0.00041591681
-0.00034736922
9.5432768e-12
-0.00037532958
-0.00037591842
9.4142571e-12
-0.0003295089
-0.00039353346
9.1747593e-12
-0.00027987382
-0.00039848955
8.7790134e-12
-0.0002282864
-0.00038959995
8.4104182e-12
-0.00017697049
-0.00036645299
7.869516e-12
-0.00012836258
-0.00032960575
6.6386186e-12
-8.4907884e-05
-0.00028068435
7.2425696e-12
-4.8832908e-05
-0.00022234936
1.5760764e-11
-2.1939685e-05
-0.00015810292
8.9249858e-12
-5.4641779e-06
-9.1971622e-05
-3.9722119e-11
-2.8299545e-05
4.9408297e-11
-4.6343273e-06
4.400518e-05
-3.2763478e-11
-1.6725326e-05
0.00011847585
4.5688942e-11
-3.470995e-05
0.0001800771
3.5961886e-12
-5.7253083e-05
0.00022983665
-3.403069e-12
-8.3231387e-05
0.00026895784
3.032667e-12
-0.00011171745
0.00029867944
3.5501754e-12
-0.00014195756
0.00032017316
2.8489931e-12
-0.00017334549
0.0003344744
2.8379949e-12
-0.00020539509
0.00034244209
2.8431851e-12
-0.00023771319
0.00034474344
2.9494541e-12
-0.00026997437
0.00034185879
2.7729398e-12
-0.00030189804
0.00033410105
2.6318701e-12
-0.00033322831
0.00032164479
2.5377344e-12
-0.00036371635
0.00030456032
2.6196984e-12
-0.00039310492
0.00028284959
2.7736815e-12
-0.00042111477
0.00025648135
3.0513012e-12
-0.00044743268
0.00022542494
3.4144442e-12
-0.00047170105
0.00018968247
3.9303455e-12
-0.00049350936
0.00014932032
4.3625165e-12
-0.0005123881
0.00010450089
4.9524892e-12
-0.00052780619
5.5515734e-05
5.4885988e-12
-0.00053917326
2.8206581e-06
6.1121999e-12
-0.00054584897
-5.292712e-05
6.7584114e-12
-0.00054716133
-0.00011083165
7.2825301e-12
-0.0005424374
-0.00016972258
7.8574321e-12
-0.0005310487
-0.00022812674
8.4324581e-12
-0.00051247395
-0.00028425406
8.9485529e-12
-0.00048637941
-0.00033600816
9.3500537e-12
-0.00045271436
-0.00038103427
9.5317722e-12
-0.00041181426
-0.00041681854
9.431665e-12
-0.00036449739
-0.00044085034
9.1535664e-12
-0.00031213442
-0.00045085253
8.7333099e-12
-0.00025666498
-0.0004450694
8.3546657e-12
-0.0002005368
-0.00042258118
7.7306562e-12
-0.00014655327
-0.00038358929
6.2010355e-12
-9.7636645e-05
-0.00032960099
6.8729626e-12
-5.6542123e-05
-0.00026344391
1.690653e-11
-2.5582722e-05
-0.00018906233
8.9977119e-12
-6.4289067e-06
-0.00011112539
-4.7982298e-11
-3.4728511e-05
5.6799265e-11
-4.6331014e-06
4.863831e-05
-3.2306314e-11
-1.6744263e-05
0.00013058697
4.605881e-11
-3.4779029e-05
0.00019811187
3.8164108e-12
-5.7399453e-05
0.00025245708
-3.4335485e-12