/*--------------------------------*- C++ -*----------------------------------*\
  =========                 |
  \\      /  F ield         | OpenFOAM: The Open Source CFD Toolbox
   \\    /   O peration     | Website:  https://openfoam.org
    \\  /    A nd           | Version:  7
     \\/     M anipulation  |
\*---------------------------------------------------------------------------*/
FoamFile
{
    version     2.0;
    format      ascii;
    class       surfaceScalarField;
    location    "13";
    object      phi_0;
}
// * * * * * * * * * * * * * * * * * * * * * * * * * * * * * * * * * * * * * //

dimensions      [0 3 -1 0 0 0 0];

internalField   nonuniform List<scalar> 
45600
(
2.8000249e-07
-2.7606561e-07
2.3926984e-10
4.0453503e-07
-1.2486498e-07
1.407202e-10
1.3253322e-07
2.7202525e-07
9.138289e-11
-5.6225814e-07
6.9470503e-07
5.801633e-11
-1.6381101e-06
1.0757454e-06
3.6217211e-11
-3.0244025e-06
1.3862582e-06
2.6581614e-11
-4.646659e-06
1.6222517e-06
2.10092e-11
-6.436318e-06
1.7896681e-06
1.7533978e-11
-8.3334334e-06
1.8971036e-06
1.6688708e-11
-1.0286097e-05
1.9526373e-06
1.6849166e-11
-1.2248644e-05
1.9625163e-06
1.6421103e-11
-1.4179426e-05
1.9307685e-06
1.717481e-11
-1.6038801e-05
1.8593658e-06
1.815341e-11
-1.7787518e-05
1.7487036e-06
1.8064036e-11
-1.9385771e-05
1.5982371e-06
1.7165521e-11
-2.079299e-05
1.4071981e-06
1.6365133e-11
-2.1968334e-05
1.1753179e-06
1.5410065e-11
-2.2871852e-05
9.034948e-07
1.3962824e-11
-2.3466244e-05
5.9437582e-07
1.2023896e-11
-2.3719072e-05
2.5281759e-07
9.9694229e-12
-2.3605246e-05
-1.1382975e-07
7.8760466e-12
-2.3109604e-05
-4.9564345e-07
5.3710564e-12
-2.2229385e-05
-8.8021378e-07
2.5061899e-12
-2.0976312e-05
-1.2530652e-06
-5.9691476e-13
-1.9378012e-05
-1.5982887e-06
-3.4615908e-12
-1.7478604e-05
-1.8993993e-06
-6.0401697e-12
-1.5338201e-05
-2.1403943e-06
-8.1255193e-12
-1.3031271e-05
-2.3069195e-06
-9.9333026e-12
-1.064381e-05
-2.3874499e-06
-1.1030794e-11
-8.2694402e-06
-2.3743595e-06
-1.1253579e-11
-6.0046474e-06
-2.2647824e-06
-1.0611168e-11
-3.9434586e-06
-2.0611819e-06
-9.2274039e-12
-2.1718297e-06
-1.7716237e-06
-7.1448589e-12
-7.6190456e-07
-1.4099222e-06
-4.4303669e-12
2.3433015e-07
-9.9623442e-07
-1.2027934e-12
7.9290991e-07
-5.5858161e-07
1.8386949e-12
9.2649054e-07
-1.3358741e-07
5.0999945e-12
7.0399206e-07
2.2248352e-07
8.8004855e-12
2.899873e-07
4.1397939e-07
1.2538703e-11
2.8996953e-07
5.6027122e-12
1.3469152e-07
-4.1109388e-07
1.4345226e-10
-2.9985687e-07
3.098684e-07
8.0575728e-11
-1.6127949e-06
1.5848853e-06
7.9498866e-11
-3.8694095e-06
2.9512327e-06
4.4224778e-11
-6.9974283e-06
4.203719e-06
1.8185073e-11
-1.0863505e-05
5.2524137e-06
5.7729673e-12
-1.5311325e-05
6.0701039e-06
-5.3605408e-12
-2.0183652e-05
6.6619837e-06
-1.1770745e-11
-2.5332591e-05
7.0460217e-06
-1.451207e-11
-3.0622347e-05
7.2423933e-06
-1.5819323e-11
-3.5928086e-05
7.2682755e-06
-1.5449682e-11
-4.1133023e-05
7.1357428e-06
-1.2894903e-11
-4.6125249e-05
6.8516264e-06
-1.076686e-11
-5.0795142e-05
6.4186159e-06
-9.6800044e-12
-5.5033965e-05
5.8370616e-06
-8.2345041e-12
-5.8733902e-05
5.107127e-06
-5.6000618e-12
-6.1789621e-05
4.2310234e-06
-2.8329221e-12
-6.4101246e-05
3.2151117e-06
-5.6532603e-14
-6.5578568e-05
2.0716978e-06
3.2019905e-12
-6.6146134e-05
8.2038235e-07
7.0239526e-12
-6.5749048e-05
-5.109173e-07
1.102233e-11
-6.4358207e-05
-1.886489e-06
1.4538854e-11
-6.1976051e-05
-3.2623753e-06
1.7702003e-11
-5.864051e-05
-4.5886197e-06
2.0554802e-11
-5.442776e-05
-5.8110593e-06
2.3306846e-11
-4.9452939e-05
-6.8742495e-06
2.5479159e-11
-4.3868467e-05
-7.7248956e-06
2.7107131e-11
-3.785981e-05
-8.3156094e-06
2.7882458e-11
-3.1638585e-05
-8.6087068e-06
2.8058184e-11
-2.5433266e-05
-8.5797122e-06
2.7641949e-11
-1.947782e-05
-8.2202608e-06
2.6513522e-11
-1.3998827e-05
-7.540204e-06
2.4549107e-11
-9.2015767e-06
-6.5689001e-06
2.1920976e-11
-5.255488e-06
-5.3560333e-06
1.8817385e-11
-2.2789554e-06
-3.9727869e-06
1.5493147e-11
-3.2286801e-07
-2.5146836e-06
1.2097681e-11
6.5227491e-07
-1.1087345e-06
8.3608026e-12
8.006558e-07
7.411165e-08
6.7778657e-12
4.1674096e-07
7.9790709e-07
7.7582527e-12
7.0670273e-07
3.0627739e-13
-2.7245584e-07
-1.3860891e-07
8.5668303e-11
-1.6241771e-06
1.6615024e-06
8.4593487e-11
-4.2821811e-06
4.2427132e-06
5.7156566e-11
-8.261083e-06
6.9300648e-06
3.8272503e-11
-1.3451994e-05
9.3946472e-06
2.4349681e-11
-1.9675324e-05
1.1475758e-05
1.3555959e-11
-2.6719677e-05
1.3114454e-05
6.9849434e-12
-3.4366622e-05
1.4308914e-05
4.1936872e-12
-4.2403924e-05
1.50833e-05
1.4441177e-12
-5.063065e-05
1.5469114e-05
7.0441887e-13
-5.8857437e-05
1.549507e-05
2.0725143e-12
-6.6904206e-05
1.5182523e-05
3.9175053e-12
-7.4597245e-05
1.4544669e-05
4.7092692e-12
-8.1766828e-05
1.3588194e-05
5.1110483e-12
-8.824622e-05
1.2316435e-05
5.7412655e-12
-9.387242e-05
1.0733305e-05
6.7120657e-12
-9.8488838e-05
8.8474234e-06
7.179719e-12
-0.00010194974
6.6760012e-06
7.4900278e-12
-0.0001041262
4.2481497e-06
8.2928782e-12
-0.00010491318
1.6073546e-06
9.260379e-12
-0.00010423694
-1.1871573e-06
9.9121528e-12
-0.00010206275
-4.0606759e-06
9.8944888e-12
-9.8401517e-05
-6.9236035e-06
9.7052924e-12
-9.3315146e-05
-9.6749919e-06
9.4656387e-12
-8.6919734e-05
-1.2206476e-05
9.2735643e-12
-7.9386111e-05
-1.4407884e-05
8.84716e-12
-7.093717e-05
-1.6173844e-05
8.325453e-12
-6.1841778e-05
-1.741101e-05
7.6890996e-12
-5.2405111e-05
-1.8045384e-05
7.249269e-12
-4.2955666e-05
-1.8029169e-05
7.0251277e-12
-3.3829355e-05
-1.7346583e-05
6.891827e-12
-2.5351316e-05
-1.6018252e-05
6.6911884e-12
-1.7816144e-05
-1.410408e-05
6.5324396e-12
-1.1467214e-05
-1.1704973e-05
6.5759254e-12
-6.475543e-06
-8.9644684e-06
6.8026448e-12
-2.9180825e-06
-6.0721595e-06
7.0209663e-12
-7.5548643e-07
-3.2713511e-06
6.8810822e-12
1.9132909e-07
-8.7272149e-07
7.3071516e-12
2.642524e-07
7.2498291e-07
8.9534984e-12
9.7094859e-07
3.9333562e-12
-7.4429643e-07
6.0561544e-07
4.6679041e-11
-3.1737256e-06
4.0908333e-06
5.575535e-11
-7.3328091e-06
8.4017302e-06
3.8619003e-11
-1.3139228e-05
1.273652e-05
3.2431963e-11
-2.0418585e-05
1.6674018e-05
1.9052877e-11
-2.8939526e-05
1.9996694e-05
1.1446481e-11
-3.844295e-05
2.2617857e-05
7.6032675e-12
-4.8662549e-05
2.4528491e-05
5.1762989e-12
-5.9336834e-05
2.575757e-05
3.480978e-12
-7.0214377e-05
2.6346665e-05
4.3300467e-12
-8.1054612e-05
2.6335318e-05
5.8177713e-12
-9.162617e-05
2.5754091e-05
6.5207543e-12
-0.00010170457
2.4623066e-05
6.7484734e-12
-0.00011107049
2.2954107e-05
7.5425739e-12
-0.00011950955
2.0755467e-05
8.2501557e-12
-0.00012681389
1.8037628e-05
8.5852628e-12
-0.00013278596
1.481947e-05
8.5705549e-12
-0.00013724404
1.1134073e-05
8.7664584e-12
-0.00014002951
7.0336179e-06
9.3755268e-12
-0.00014101512
2.5929574e-06
9.7290099e-12
-0.00014011363
-2.0886523e-06
9.5791697e-12
-0.00013728664
-6.8876594e-06
8.9399223e-12
-0.00013255207
-1.165817e-05
8.2387717e-12
-0.00012599019
-1.6236883e-05
7.5775629e-12
-0.00011774714
-2.0449522e-05
6.8535971e-12
-0.00010803551
-2.4119522e-05
5.9415339e-12
-9.7131103e-05
-2.707826e-05
5.0849096e-12
-8.5365813e-05
-2.9176305e-05
4.3581653e-12
-7.3116298e-05
-3.0294906e-05
3.9280386e-12
-6.0788578e-05
-3.0356896e-05
3.7507406e-12
-4.8799027e-05
-2.9336141e-05
3.7311289e-12
-3.7552422e-05
-2.7264864e-05
3.8203499e-12
-2.7417972e-05
-2.4238538e-05
4.1164816e-12
-1.8704363e-05
-2.0418586e-05
4.7530519e-12
-1.1634912e-05
-1.6033922e-05
5.6022132e-12
-6.32371e-06
-1.1383364e-05
6.449829e-12
-2.7536428e-06
-6.8414275e-06
7.1174506e-12
-7.5910232e-07
-2.86728e-06
7.6181505e-12
-1.0459482e-08
-2.3667846e-08
7.9303868e-12
9.6048098e-07
6.8597599e-12
-1.2256067e-06
1.8311338e-06
1.8433662e-11
-4.7788871e-06
7.6440473e-06
3.6771121e-11
-1.0501247e-05
1.412411e-05
2.3546961e-11
-1.8179162e-05
2.0414454e-05
1.5566594e-11
-2.7550607e-05
2.6045453e-05
1.0227281e-11
-3.8322105e-05
3.0768178e-05
6.3944325e-12
-5.0185961e-05
3.4481691e-05
2.8715827e-12
-6.2833406e-05
3.7175922e-05
7.3891137e-13
-7.5962659e-05
3.888682e-05
7.1862746e-13
-8.9282311e-05
3.9666329e-05
2.1316034e-12
-0.00010251147
3.9564491e-05
2.980347e-12
-0.00011537813
3.8620763e-05
3.3738243e-12
-0.00012761728
3.6862206e-05
3.9621627e-12
-0.00013896975
3.4306554e-05
5.0924331e-12
-0.0001491827
3.0968397e-05
5.9036582e-12
-0.00015801209
2.6867e-05
6.3590531e-12
-0.00016522718
2.2034554e-05
6.9043678e-12
-0.00017061703
1.6523906e-05
7.8119507e-12
-0.00017399844
1.0415029e-05
8.9163163e-12
-0.00017522513
3.8196418e-06
9.571112e-12
-0.00017419717
-3.116607e-06
9.7183187e-12
-0.0001708704
-1.0214426e-05
9.7346281e-12
-0.00016526472
-1.7263854e-05
9.7120644e-12
-0.00015747073
-2.4030881e-05
9.577514e-12
-0.00014765389
-3.0266369e-05
9.215943e-12
-0.00013605546
-3.5717958e-05
8.6455168e-12
-0.00012298955
-4.014418e-05
8.1261494e-12
-0.00010883577
-4.3330095e-05
7.7370477e-12
-9.4027203e-05
-4.5103484e-05
7.442054e-12
-7.9033644e-05
-4.5350466e-05
7.1817908e-12
-6.4340478e-05
-4.4029317e-05
6.928689e-12
-5.0423928e-05
-4.1181424e-05
6.7173508e-12
-3.7723794e-05
-3.6938683e-05
6.6410428e-12
-2.661512e-05
-3.1527272e-05
6.7997367e-12
-1.7380479e-05
-2.5268574e-05
7.0502498e-12
-1.0184668e-05
-1.8579183e-05
7.3579283e-12
-5.0537101e-06
-1.1972391e-05
7.8981318e-12
-1.8604987e-06
-6.0605037e-06
7.3279986e-12
-3.2263069e-07
-1.5615425e-06
4.0664259e-12
6.3784034e-07
9.0814754e-12
-1.6897905e-06
3.5209159e-06
2.8060261e-12
-6.3585141e-06
1.2312821e-05
3.1194205e-11
-1.3643784e-05
2.1409396e-05
1.2463043e-11
-2.318715e-05
2.9957818e-05
6.2045493e-12
-3.4625444e-05
3.7483726e-05
5.5698635e-12
-4.7594283e-05
4.3736997e-05
3.3663992e-12
-6.1734199e-05
4.8621593e-05
6.206467e-13
-7.6695681e-05
5.2137409e-05
9.6229728e-14
-9.2141902e-05
5.4333055e-05
1.0340198e-12
-0.00010774892
5.5273363e-05
1.9746847e-12
-0.00012320412
5.5019705e-05
2.3596868e-12
-0.00013820391
5.3620554e-05
3.0706158e-12
-0.00015245169
5.1109978e-05
4.0422427e-12
-0.00016565704
4.7511883e-05
4.9650451e-12
-0.00017753661
4.2847946e-05
5.4857428e-12
-0.00018781711
3.7147488e-05
6.0051363e-12
-0.00019624038
3.0457813e-05
6.9249548e-12
-0.00020257032
2.2853839e-05
8.0558837e-12
-0.0002066014
1.44461e-05
8.9902586e-12
-0.00020816819
5.3864371e-06
9.4915518e-12
-0.00020715549
-4.1293095e-06
9.6036435e-12
-0.00020350817
-1.3861739e-05
9.7743367e-12
-0.00019724043
-2.3531601e-05
9.8848692e-12
-0.00018844329
-3.2828029e-05
9.750484e-12
-0.00017728989
-4.1419779e-05
9.3727381e-12
-0.00016403756
-4.8970297e-05
8.873885e-12
-0.00014902596
-5.5155796e-05
8.4407837e-12
-0.00013267048
-5.9685587e-05
8.1791384e-12
-0.00011545046
-6.2323509e-05
7.9242631e-12
-9.7891939e-05
-6.2908999e-05
7.5995558e-12
-8.0545098e-05
-6.1376168e-05
7.2697332e-12
-6.3957249e-05
-5.7769282e-05
7.0485758e-12
-4.8642555e-05
-5.2253386e-05
7.0055227e-12
-3.5050391e-05
-4.5119446e-05
7.1378882e-12
-2.3534611e-05
-3.6784365e-05
7.225712e-12
-1.432629e-05
-2.7787515e-05
7.4119138e-12
-7.5126749e-06
-1.8786014e-05
8.3260375e-12
-3.0254922e-06
-1.0547697e-05
7.3064576e-12
-6.4228622e-07
-3.9447534e-06
1.5187784e-12
-4.4588653e-09
1.1545631e-11
-2.1284618e-06
5.6494053e-06
-7.8804187e-12
-7.8745058e-06
1.8058864e-05
2.622146e-11
-1.6682448e-05
3.0217339e-05
6.0412807e-12
-2.8047323e-05
4.1322685e-05
1.4892779e-12
-4.1499259e-05
5.0935639e-05
2.2999631e-12
-5.6597961e-05
5.8835684e-05
9.4856724e-13
-7.2929781e-05
6.495341e-05
1.0870751e-13
-9.0105171e-05
6.9312809e-05
9.0885527e-13
-0.00010775572
7.1983621e-05
1.566173e-12
-0.0001255305
7.3048157e-05
1.9269681e-12
-0.00014309207
7.2581279e-05
2.4933604e-12
-0.00016011281
7.0641282e-05
3.5945676e-12
-0.00017627227
6.7269419e-05
4.5570304e-12
-0.00019125614
6.2495741e-05
5.1015228e-12
-0.00020475724
5.6349031e-05
5.5200583e-12
-0.00021647858
4.8868816e-05
6.3520186e-12
-0.0002261386
4.0117815e-05
7.4735963e-12
-0.00023347822
3.0193452e-05
8.5068854e-12
-0.00023826953
1.9237413e-05
9.0813872e-12
-0.00024032557
7.4424826e-06
9.4005524e-12
-0.00023951083
-4.9440558e-06
9.560105e-12
-0.00023575178
-1.762079e-05
9.7943586e-12
-0.00022904718
-3.02362e-05
9.8324188e-12
-0.00021947703
-4.2398185e-05
9.5116105e-12
-0.00020720959
-5.3687228e-05
9.0484871e-12
-0.00019250551
-6.3674386e-05
8.6467618e-12
-0.00017571802
-7.1943298e-05
8.3122651e-12
-0.00015728816
-7.8115459e-05
8.0706905e-12
-0.00013773423
-8.1877458e-05
7.7402692e-12
-0.00011763482
-8.3008412e-05
7.322312e-12
-9.7605541e-05
-8.1405463e-05
6.9618779e-12
-7.8269813e-05
-7.710502e-05
6.8175183e-12
-6.0225497e-05
-7.0297711e-05
6.8888348e-12
-4.4009341e-05
-6.1335611e-05
7.0661031e-12
-3.0062276e-05
-5.0731439e-05
7.0876782e-12
-1.8698839e-05
-3.9150962e-05
7.2720294e-12
-1.0084181e-05
-2.7400682e-05
8.6914962e-12
-4.2222326e-06
-1.6409653e-05
7.3405147e-12
-9.5822027e-07
-7.208767e-06
-1.1837565e-12
-9.626949e-07
1.369759e-11
-2.5395332e-06
8.1889827e-06
-1.5828462e-11
-9.3088046e-06
2.4828084e-05
2.4895806e-11
-1.9573564e-05
4.0482084e-05
2.9909782e-12
-3.2687687e-05
5.4436792e-05
-2.3191439e-12
-4.8075166e-05
6.6323105e-05
-3.5332877e-13
-6.5218854e-05
7.5979373e-05
8.6864454e-16
-8.365053e-05
8.3385098e-05
4.9487414e-13
-0.00010294177
8.8604066e-05
1.1464992e-12
-0.00012269555
9.1737416e-05
1.2536496e-12
-0.00014253852
9.2891136e-05
1.7653125e-12
-0.00016211417
9.2156928e-05
2.8566709e-12
-0.00018107732
8.9604414e-05
3.8937031e-12
-0.00019909031
8.5282399e-05
4.4872904e-12
-0.00021582136
7.9226776e-05
4.9014871e-12
-0.00023094506
7.1472707e-05
5.5363085e-12
-0.00024414515
6.2068896e-05
6.7071555e-12
-0.00025511951
5.1092171e-05
7.7933946e-12
-0.00026358697
3.8660907e-05
8.5639727e-12
-0.00026929579
2.4946236e-05
8.9852259e-12
-0.00027203351
1.0180213e-05
9.3710689e-12
-0.00027163782
-5.339754e-06
9.6152052e-12
-0.00026800779
-2.1250825e-05
9.8109987e-12
-0.00026111563
-3.712836e-05
9.767826e-12
-0.00025101756
-5.2496265e-05
9.3835614e-12
-0.00023786336
-6.6841441e-05
8.9422267e-12
-0.00022190349
-7.963426e-05
8.6618522e-12
-0.00020349249
-9.0354316e-05
8.4375307e-12
-0.00018308714
-9.8520818e-05
8.2152716e-12
-0.00016123834
-0.00010372627
7.8341593e-12
-0.00013857539
-0.00010567137
7.3716234e-12
-0.00011578245
-0.00010419841
6.9953344e-12
-9.3567458e-05
-9.9320018e-05
6.8850302e-12
-7.2625115e-05
-9.1240065e-05
7.0123157e-12
-5.3596419e-05
-8.0364318e-05
7.1464022e-12
-3.7028434e-05
-6.7299432e-05
7.0170137e-12
-2.3338361e-05
-5.2841046e-05
7.1525238e-12
-1.2786155e-05
-3.7952902e-05
9.0320485e-12
-5.4597574e-06
-2.373606e-05
7.3241064e-12
-1.2763096e-06
-1.1392212e-05
-3.9798615e-12
-2.2390218e-06
1.6260031e-11
-2.922039e-06
1.1111049e-05
-2.0500109e-11
-1.0650527e-05
3.2556508e-05
2.6529484e-11
-2.2288288e-05
5.2119829e-05
2.7995656e-13
-3.7057294e-05
6.9205792e-05
-4.9628506e-12
-5.4280263e-05
8.3546077e-05
-7.2577133e-13
-7.3365678e-05
9.5064801e-05
5.3722343e-13
-9.3792548e-05
0.00010381198
6.5520224e-13
-0.00011509578
0.00010990731
8.5031223e-13
-0.00013685288
0.00011349453
1.184995e-12
-0.00015867232
0.00011471057
2.0483737e-12
-0.00018018361
0.00011366821
3.1295994e-12
-0.00020102971
0.0001104505
3.7568849e-12
-0.00022086167
0.00010511434
4.1661746e-12
-0.00023933582
9.7700921e-05
4.879812e-12
-0.00025611348
8.8250347e-05
5.7831257e-12
-0.0002708629
7.6818308e-05
6.934354e-12
-0.00028326358
6.3492841e-05
7.8234759e-12
-0.00029301242
4.8409747e-05
8.3753707e-12
-0.00029983177
3.1765593e-05
8.7464156e-12
-0.00030347907
1.3827511e-05
9.2986602e-12
-0.00030375796
-5.0608691e-06
9.6517633e-12
-0.00030053036
-2.447843e-05
9.7381624e-12
-0.00029372994
-4.3928782e-05
9.5847413e-12
-0.00028337537
-6.2850839e-05
9.2559915e-12
-0.0002695832
-8.0633618e-05
8.966102e-12
-0.00025257895
-9.6638526e-05
8.7927516e-12
-0.00023270482
-0.00011022846
8.5691425e-12
-0.00021042229
-0.00012080336
8.2712043e-12
-0.00018630762
-0.00012784095
7.8532375e-12
-0.00016103867
-0.00013094033
7.4344252e-12
-0.0001353719
-0.00012986519
7.1203698e-12
-0.00011010966
-0.00012458227
7.0279951e-12
-8.6059e-05
-0.00011529073
7.1610005e-12
-6.398508e-05
-0.00010243825
7.2386335e-12
-4.4563336e-05
-8.6721185e-05
6.9700705e-12
-2.8335631e-05
-6.906876e-05
7.081636e-12
-1.5675595e-05
-5.0612952e-05
9.4323869e-12
-6.7679855e-06
-3.2643681e-05
7.3246992e-12
-1.6054499e-06
-1.6554742e-05
-6.8961314e-12
-3.8444916e-06
1.8922696e-11
-3.2744874e-06
1.4385553e-05
-2.3747324e-11
-1.1890127e-05
4.117209e-05
2.8354881e-11
-2.4802551e-05
6.5032251e-05
-9.1165145e-13
-4.1113344e-05
8.5516601e-05
-5.2588156e-12
-6.0051643e-05
0.00010248439
1.6146767e-13
-8.0956614e-05
0.00011596979
9.1000278e-13
-0.00010325817
0.00012611356
3.223937e-13
-0.00012645787
0.00013310702
6.7147756e-13
-0.00015011136
0.00013714803
1.623133e-12
-0.00017381307
0.00013841226
2.5309049e-12
-0.00019718335
0.00013703848
3.1876394e-12
-0.00021985854
0.00013312567
3.5513039e-12
-0.00024148379
0.00012673958
4.0533022e-12
-0.00026170878
0.0001179259
5.1222162e-12
-0.00028018608
0.00010672764
6.2111807e-12
-0.00029657203
9.320425e-05
7.1003111e-12
-0.00031052978
7.7450589e-05
7.7045642e-12
-0.00032173453
5.96145e-05
8.2161253e-12
-0.00032988071
3.9911781e-05
8.6353349e-12
-0.00033469118
1.8637976e-05
9.1694284e-12
-0.00033592853
-3.8235267e-06
9.4439525e-12
-0.00033340764
-2.699932e-05
9.4466638e-12
-0.00032701148
-5.0324948e-05
9.2575389e-12
-0.00031670678
-7.3155548e-05
9.0345107e-12
-0.00030256097
-9.4779443e-05
8.924925e-12
-0.00028475814
-0.00011444136
8.8712435e-12
-0.00026361242
-0.00013137419
8.6555303e-12
-0.00023957636
-0.00014483944
8.2850863e-12
-0.00021324179
-0.00015417553
7.8442044e-12
-0.00018533072
-0.00015885141
7.5053067e-12
-0.00015667422
-0.0001585217
7.2858642e-12
-0.00012817859
-0.00015307791
7.1873173e-12
-0.00010077985
-0.00014268949
7.2235925e-12
-7.5389559e-05
-0.00012782855
7.1976042e-12
-5.2837115e-05
-0.00010927364
6.8338153e-12
-3.3814865e-05
-8.8091017e-05
7.0261388e-12
-1.8832807e-05
-6.5595022e-05
9.9617645e-12
-8.1889237e-06
-4.3287574e-05
7.4125551e-12
-1.9589991e-06
-2.2784658e-05
-1.0004127e-11
-5.8035135e-06
2.169921e-11
-3.5945002e-06
1.7980075e-05
-2.6705443e-11
-1.3017145e-05
5.0594702e-05
3.1533381e-11
-2.709249e-05
7.9107609e-05
2.2652905e-13
-4.4814673e-05
0.00010323881
-4.6178523e-12
-6.532879e-05
0.00012299852
6.160821e-13
-8.7911509e-05
0.00013855252
9.0995022e-13
-0.00011194872
0.00015015078
4.3786733e-13
-0.00013691283
0.00015807112
1.0460544e-12
-0.00016234165
0.00016257684
1.9903147e-12
-0.0001878198
0.0001638904
2.5324596e-12
-0.00021296312
0.00016218179
2.8706115e-12
-0.00023740631
0.00015756884
3.4125548e-12
-0.00026079376
0.00015012702
4.2497763e-12
-0.00028277354
0.00013990566
5.3375523e-12
-0.00030299407
0.00012694817
6.226877e-12
-0.00032110344
0.00011131362
6.8709153e-12
-0.00033675099
9.3098139e-05
7.3892158e-12
-0.00034959105
7.2454573e-05
7.9794028e-12
-0.00035928902
4.9609748e-05
8.4745392e-12
-0.00036552962
2.4878577e-05
8.9111604e-12
-0.00036802849
-1.3246678e-06
9.0255915e-12
-0.00036654438
-2.8483432e-05
9.0369111e-12
-0.00036089796
-5.5971377e-05
8.9370647e-12
-0.00035098952
-8.3063993e-05
8.8579621e-12
-0.00033682062
-0.00010894835
8.8587851e-12
-0.00031851568
-0.00013274631
8.8282028e-12
-0.00029634214
-0.00015354774
8.6049358e-12
-0.00027072631
-0.00017045528
8.2405488e-12
-0.0002422616
-0.00018264025
7.8543563e-12
-0.00021170556
-0.00018940746
7.6264837e-12
-0.00017996254
-0.00019026474
7.5070122e-12
-0.00014805009
-0.00018499037
7.4008216e-12
-0.00011704934
-0.00017369025
7.305282e-12
-8.8042107e-05
-0.00015683579
7.1247681e-12
-6.2040801e-05
-0.00013527496
6.6218293e-12
-3.9918943e-05
-0.00011021288
6.9167376e-12
-2.2351226e-05
-8.3162752e-05
1.0558935e-11
-9.7712554e-06
-5.5867555e-05
7.5367302e-12
-2.351966e-06
-3.0203936e-05
-1.3420602e-11
-8.1555061e-06
2.4733616e-11
-3.878861e-06
2.1858971e-05
-2.8281383e-11
-1.4019664e-05
6.0735486e-05
3.5890605e-11
-2.9132839e-05
9.4220799e-05
1.5717956e-12
-4.81191e-05
0.00012222509
-4.7830429e-12
-7.0050225e-05
0.00014492966
3.4330906e-13
-9.4148314e-05
0.00016265062
9.2366032e-13
-0.00011976116
0.00017576362
9.5536444e-13
-0.00014633677
0.00018464673
1.5077567e-12
-0.00017339941
0.00018963946
2.0066547e-12
-0.00020052818
0.00019101915
2.3274793e-12
-0.0002273389
0.0001889925
2.7765876e-12
-0.00025346945
0.00018369939
3.5627343e-12
-0.00027856855
0.0001752261
4.5810287e-12
-0.00030228769
0.00016362479
5.4931637e-12
-0.00032427602
0.00014893648
6.0155414e-12
-0.00034417767
0.00013121527
6.4513925e-12
-0.00036163152
0.000110552
7.0316141e-12
-0.00037627319
8.7096239e-05
7.7232038e-12
-0.00038773942
6.1075982e-05
8.1673969e-12
-0.00039567537
3.281452e-05
8.4404349e-12
-0.0003997446
2.7445564e-06
8.5709423e-12
-0.0003996442
-2.8583833e-05
8.5418107e-12
-0.00039512132
-6.0494266e-05
8.61689e-12
-0.00038599626
-9.2189061e-05
8.7021243e-12
-0.00037218768
-0.00012275695
8.7428796e-12
-0.00035374043
-0.00015119357
8.6802396e-12
-0.0003308536
-0.00017643459
8.4733908e-12
-0.00030390544
-0.00019740346
8.2142018e-12
-0.00027347124
-0.00021307445
7.9366588e-12
-0.00024032924
-0.00022254947
7.7853927e-12
-0.00020544987
-0.00022514413
7.7098691e-12
-0.00016996467
-0.00022047558
7.574982e-12
-0.00013511365
-0.00020854128
7.3932098e-12
-0.0001021732
-0.00018977624
7.1061526e-12
-7.2371143e-05
-0.00016507703
6.4773989e-12
-4.6798598e-05
-0.00013578544
6.8503609e-12
-2.6330623e-05
-0.00010363074
1.1248686e-11
-1.1566921e-05
-7.0631267e-05
7.6737888e-12
-2.8000181e-06
-3.8970822e-05
-1.7295857e-11
-1.0955555e-05
2.8172852e-11
-4.1237696e-06
2.5982785e-05
-2.8969088e-11
-1.4884628e-05
7.1496322e-05
3.9203954e-11
-3.089707e-05
0.00011023325
1.9150874e-12
-5.0983292e-05
0.00014231132
-5.1754387e-12
-7.4153187e-05
0.00016809955
4.8928286e-13
-9.958277e-05
0.00018808019
1.3290657e-12
-0.00012658805
0.00020276888
1.2254152e-12
-0.00015459761
0.00021265627
1.4263088e-12
-0.00018312645
0.00021816829
1.6377389e-12
-0.00021175234
0.00021964503
2.1263398e-12
-0.00024009545
0.0002173356
3.0089625e-12
-0.00026780153
0.00021140546
3.8663468e-12
-0.00029452862
0.00020195318
4.6520738e-12
-0.00031993691
0.00018903309
5.2952333e-12
-0.00034368156
0.00017268114
5.7003298e-12
-0.00036540792
0.00015294163
6.1022555e-12
-0.00038474904
0.00012989313
6.6680707e-12
-0.00040132565
0.00010367285
7.3075133e-12
-0.00041474851
7.4498842e-05
7.6436612e-12
-0.000424624
4.2690008e-05
7.7884103e-12
-0.000430563
8.6835551e-06
7.9114992e-12
-0.00043219563
-2.6951209e-05
7.9631724e-12
-0.00042918845
-6.3501457e-05
8.2044449e-12
-0.00042126977
-0.00010010774
8.4443542e-12
-0.00040825899
-0.00013576775
8.527051e-12
-0.00039010059
-0.00016935198
8.4388889e-12
-0.00036690074
-0.00019963446
8.2662346e-12
-0.00033896287
-0.00022534133
8.1977398e-12
-0.00030681764
-0.00024521969
8.1207017e-12
-0.00027124102
-0.0002581261
8.03418e-12
-0.00023325393
-0.00026313123
7.9233138e-12
-0.00019409732
-0.0002596322
7.6925127e-12
-0.000155179
-0.00024745961
7.4335617e-12
-0.00011799294
-0.0002269623
7.0901971e-12
-8.4017434e-05
-0.00019905255
6.3679786e-12
-5.4603928e-05
-0.00016519895
6.8386176e-12
-3.0872353e-05
-0.00012736233
1.2056653e-11
-1.3629114e-05
-8.7874517e-05
7.7878654e-12
-3.3191265e-06
-4.9280788e-05
-2.1812921e-11
-1.4274717e-05
3.2133472e-11
-4.3251981e-06
3.0308023e-05
-3.0227038e-11
-1.5598701e-05
8.2769784e-05
4.0645049e-11
-3.235867e-05
0.00012699322
1.6098191e-12
-5.336436e-05
0.00016331701
-5.3199263e-12
-7.7575527e-05
0.00019231071
8.8456782e-13
-0.00010413068
0.00021463533
1.6435643e-12
-0.00013232033
0.00023095852
1.0947304e-12
-0.00016155846
0.0002418944
1.1619824e-12
-0.00019135492
0.00024796473
1.5120581e-12
-0.00022129004
0.00024958014
2.1847623e-12
-0.00025099242
0.00024703797
3.227843e-12
-0.00028012021
0.00024053324
3.9350091e-12
-0.00030834576
0.00023017873
4.3912729e-12
-0.00033534346
0.0002160308
4.8237309e-12
-0.00036078036
0.00019811804
5.2873202e-12
-0.00038430908
0.00017647036
5.7666395e-12
-0.00040556309
0.00015114714
6.2431675e-12
-0.00042415415
0.0001222639
6.6636853e-12
-0.00043967236
9.0017052e-05
6.8401917e-12
-0.00045168952
5.4707165e-05
6.9373201e-12
-0.00045976638
1.6760407e-05
7.1608263e-12
-0.00046346542
-2.3252174e-05
7.3954664e-12
-0.00046236883
-6.4598059e-05
7.719621e-12
-0.00045610424
-0.00010637234
7.9853463e-12
-0.00044437743
-0.00014749456
8.1061448e-12
-0.00042701206
-0.00018671737
8.1256235e-12
-0.00040399481
-0.00022265171
8.0898665e-12
-0.00037552288
-0.00025381328
8.2085367e-12
-0.00034204831
-0.00027869428
8.3185972e-12
-0.00030431215
-0.00029586227
8.2815563e-12
-0.00026335932
-0.00030408407
8.0995542e-12
-0.00022052506
-0.00030246646
7.7804843e-12
-0.00017738581
-0.00029059888
7.4704428e-12
-0.00013567209
-0.00026867603
7.1242186e-12
-9.7148874e-05
-0.00023757577
6.3019199e-12
-6.3476911e-05
-0.00019887093
6.8660531e-12
-3.6075652e-05
-0.0001547636
1.3032336e-11
-1.6010964e-05
-0.00010793922
7.9240681e-12
-3.9254015e-06
-6.1366322e-05
-2.7079132e-11
-1.8200159e-05
3.6767819e-11
-4.4793194e-06
3.478738e-05
-3.174051e-11
-1.6149478e-05
9.443989e-05
4.1828806e-11
-3.349319e-05
0.00014433692
1.8474255e-12
-5.5222701e-05
0.00018504651
-5.0869626e-12
-8.0259292e-05
0.00021734728
1.0194013e-12
-0.00010771226
0.00024208828
1.4743773e-12
-0.00013685249
0.00026009874
8.0090586e-13
-0.00016708379
0.00027212568
1.1151359e-12
-0.00019791447
0.00027879541
1.8303993e-12
-0.00022893095
0.0002805966
2.5004943e-12
-0.000259774
0.00027788102
3.2714951e-12
-0.0002901184
0.00027087765
3.6972461e-12
-0.00031965575
0.00025971608
3.9778467e-12
-0.0003480803
0.00024445535
4.3692374e-12
-0.00037507738
0.00022511512
4.9033606e-12
-0.00040031409
0.00020170707
5.3531248e-12
-0.00042343202
0.00017426508
5.6642696e-12
-0.00044404219
0.00014287406
5.8686988e-12
-0.00046172234
0.0001076972
5.9734885e-12
-0.00047601759
6.9002416e-05
6.1078981e-12
-0.00048644515
2.718796e-05
6.4601443e-12
-0.00049250457
-1.7192759e-05
6.8122938e-12
-0.00049369455
-6.3408095e-05
7.1480289e-12
-0.00048953807
-0.00011052883
7.3850733e-12
-0.0004796168
-0.00015741585
7.5279769e-12
-0.00046361517
-0.00020271901
7.7290414e-12
-0.00044137354
-0.00024489334
7.9475332e-12
-0.00041294783
-0.00028223901
8.2574267e-12
-0.00037867036
-0.00031297176
8.4901795e-12
-0.00033920392
-0.00033532872
8.4689168e-12
-0.00029557767
-0.00034771033
8.1902122e-12
-0.00024919206
-0.00034885209
7.807271e-12
-0.00020178063
-0.00033801032
7.4785589e-12
-0.00015532159
-0.00031513508
7.1663604e-12
-0.00011190125
-0.00028099612
6.2244252e-12
-7.3543936e-05
-0.00023722825
6.8572467e-12
-4.2034243e-05
-0.00018627331
1.4126426e-11
-1.8764496e-05
-0.00013120898
8.0523813e-12
-4.6350164e-06
-7.5495767e-05
-3.3250535e-11
-2.283522e-05
4.2190549e-11
-4.5829906e-06
3.93704e-05
-3.2686171e-11
-1.6526959e-05
0.00010638379
4.3011116e-11
-3.4280872e-05
0.00016209082
2.0062475e-12
-5.6525786e-05
0.00020729142
-5.2382634e-12
-8.2155645e-05
0.00024297713
7.5768656e-13
-0.00011025813
0.00027019075
1.1960075e-12
-0.00014008971
0.00028993031
8.0556338e-13
-0.00017104771
0.00030308368
1.3617692e-12
-0.00020264202
0.00031038972
2.1384484e-12
-0.00023446807
0.00031242265
2.5860914e-12
-0.00026618211
0.00030959507
3.0116686e-12
-0.00029747949
0.00030217503
3.2984258e-12
-0.00032807579
0.00029031239
3.605272e-12
-0.00035769086
0.00027407043
3.9972377e-12
-0.0003860352
0.00025345947
4.4602113e-12
-0.0004127984
0.00022847027
4.7317836e-12
-0.00043763945
0.00019910613
4.836749e-12
-0.00046017895
0.00016541356
4.9147897e-12
-0.00047999357
0.00012751182
5.0958218e-12
-0.00049661347
8.5622311e-05
5.3439028e-12
-0.00050952367
4.009816e-05
5.7833347e-12
-0.00051817089
-8.545549e-06
6.1621277e-12
-0.00052197736
-5.9601634e-05
6.4678626e-12
-0.00052036369
-0.00011214251
6.73515e-12
-0.00051278269
-0.00016499686
6.9576492e-12
-0.00049876571
-0.000216736
7.3233418e-12
-0.00047798201
-0.00026567705
7.7865308e-12
-0.00045030986
-0.00030991117
8.2623233e-12
-0.00041591496
-0.00034736666
8.5813656e-12
-0.00037532791
-0.00037591579
8.600472e-12
-0.00032950741
-0.00039353083
8.2764888e-12
-0.00027987253
-0.00039848698
7.8500128e-12
-0.00022828533
-0.00038959752
7.5081152e-12
-0.00017696965
-0.00036645077
7.2051798e-12
-0.00012836196
-0.00032960381
6.1035445e-12
-8.4907469e-05
-0.00028068275
6.7819188e-12
-4.8832663e-05
-0.00022234813
1.5338816e-11
-2.1939577e-05
-0.00015810207
8.1614798e-12
-5.4641484e-06
-9.1971156e-05
-4.0476248e-11
-2.8299418e-05
4.848558e-11
-4.6342876e-06
4.4004715e-05
-3.2830556e-11
-1.6725205e-05
0.00011847465
4.3866444e-11
-3.4709703e-05
0.0001800753
1.8492646e-12
-5.7252681e-05
0.00022983439
-5.6216955e-12
-8.3230813e-05
0.00026895525
5.9870738e-13
-0.0001117167
0.00029867663
1.3013663e-12
-0.00014195662
0.00032017023
1.1172416e-12
-0.00017334437
0.00033447143
1.6374791e-12
-0.00020539379
0.00034243914
2.154958e-12
-0.00023771173
0.00034474059
2.3314028e-12
-0.00026997275
0.0003418561
2.5940759e-12
-0.00030189629
0.00033409857
2.9065788e-12
-0.00033322645
0.00032164255
3.3125525e-12
-0.00036371439
0.00030455838
3.6554105e-12
-0.00039310288
0.00028284796
3.9192871e-12
-0.00042111267
0.00025648006
4.0067938e-12
-0.00044743053
0.000225424
4.0135225e-12
-0.00047169888
0.0001896819
4.0447896e-12
-0.00049350718
0.00014932012
4.3099883e-12
-0.00051238592
0.00010450105
4.6339324e-12
-0.00052780403
5.5516259e-05
5.0690122e-12
-0.00053917112
2.8215332e-06
5.417249e-12
-0.00054584685
-5.2925908e-05
5.6734713e-12
-0.00054715926
-0.00011083012
6.0578668e-12
-0.00054243536
-0.00016972076
6.51932e-12
-0.00053104672
-0.00022812466
7.0825724e-12
-0.00051247205
-0.00028425174
7.7016706e-12
-0.00048637759
-0.00033600564
8.2347816e-12
-0.00045271265
-0.00038103161
8.5470184e-12
-0.00041181267
-0.00041681578
8.5998772e-12
-0.00036449596
-0.00044084756
8.3299055e-12
-0.00031213317
-0.00045084978
7.9144309e-12
-0.00025666393
-0.00044506677
7.5654775e-12
-0.00020053596
-0.00042257875
7.1863587e-12
-0.00014655264
-0.00038358714
5.8572042e-12
-9.7636216e-05
-0.00032959918
6.593774e-12
-5.6541864e-05
-0.0002634425
1.6743128e-11
-2.5582605e-05
-0.00018906135
8.4113755e-12
-6.4288749e-06
-0.00011112484
-4.8715213e-11
-3.472835e-05
5.5871603e-11
-4.6330703e-06
4.8637811e-05
-3.298289e-11
-1.6744165e-05
0.00013058569
4.377147e-11
-3.4778824e-05
0.00019810996
1.5916382e-12
-5.7399116e-05
0.00025245469
-5.6386573e-12