/*--------------------------------*- C++ -*----------------------------------*\
  =========                 |
  \\      /  F ield         | OpenFOAM: The Open Source CFD Toolbox
   \\    /   O peration     | Website:  https://openfoam.org
    \\  /    A nd           | Version:  7
     \\/     M anipulation  |
\*---------------------------------------------------------------------------*/
FoamFile
{
    version     2.0;
    format      ascii;
    class       volVectorField;
    location    "13";
    object      U;
}
// * * * * * * * * * * * * * * * * * * * * * * * * * * * * * * * * * * * * * //

dimensions      [0 1 -1 0 0 0 0];

internalField   nonuniform List<vector> 
16000
(
(6.7367428e-05 -6.5709271e-05 4.5562111e-07)
(0.0001645258 -5.5385465e-05 6.73418e-06)
(0.00014238306 8.9930415e-07 2.0238636e-05)
(-5.054671e-05 6.2033953e-05 3.7629499e-05)
(-0.00040964371 0.00011557949 5.5701612e-05)
(-0.00090807495 0.0001575634 7.248999e-05)
(-0.0015158697 0.00018823838 8.6659697e-05)
(-0.0022039506 0.00020928914 9.7396546e-05)
(-0.0029464364 0.00022252398 0.0001042451)
(-0.0037209888 0.00022943858 0.00010695994)
(-0.0045082222 0.00023109427 0.00010541346)
(-0.0052908288 0.00022811914 9.954261e-05)
(-0.006052684 0.00022076935 8.9321247e-05)
(-0.0067780922 0.00020902137 7.4761026e-05)
(-0.0074512777 0.00019267889 5.5922283e-05)
(-0.0080561463 0.00017148376 3.293623e-05)
(-0.0085763372 0.00014522424 6.033275e-06)
(-0.0089955626 0.00011383639 -2.4428497e-05)
(-0.0092982009 7.7490002e-05 -5.7940245e-05)
(-0.0094701013 3.665966e-05 -9.3825513e-05)
(-0.0094995459 -7.823905e-06 -0.00013123661)
(-0.0093782729 -5.476867e-05 -0.00016916485)
(-0.0091025106 -0.00010259666 -0.0002064661)
(-0.0086739134 -0.00014941777 -0.00024190544)
(-0.0081002769 -0.0001931071 -0.00027421509)
(-0.0073959584 -0.00023142392 -0.00030216828)
(-0.0065819067 -0.00026216117 -0.00032465963)
(-0.0056852403 -0.00028331373 -0.00034079025)
(-0.0047383491 -0.00029324712 -0.0003499457)
(-0.0037775355 -0.00029084896 -0.00035186435)
(-0.0028412625 -0.00027564562 -0.00034668485)
(-0.0019681178 -0.00024786923 -0.00033497212)
(-0.0011946061 -0.00020847508 -0.00031771869)
(-0.00055281579 -0.0001591461 -0.00029632603)
(-6.8014107e-05 -0.00010240125 -0.00027255993)
(0.00024336837 -4.1854978e-05 -0.00024847324)
(0.00037761834 1.7664564e-05 -0.00022644517)
(0.00034889991 6.684688e-05 -0.00020890758)
(0.00020580114 8.965882e-05 -0.00019852954)
(5.7393018e-05 5.7333902e-05 -0.00018409962)
(5.8600234e-05 -0.00016434305 -5.5797632e-06)
(4.1913757e-05 -3.8079498e-05 7.7187261e-07)
(-0.00029402617 0.0002492983 1.2389408e-05)
(-0.0010094553 0.0005619198 2.6730068e-05)
(-0.0020962149 0.00084652277 4.1685266e-05)
(-0.0035089105 0.0010815506 5.5657373e-05)
(-0.0051867481 0.0012622952 6.7519693e-05)
(-0.0070654694 0.001391759 7.6524776e-05)
(-0.0090834571 0.0014754537 8.2195039e-05)
(-0.011183896 0.0015189083 8.4231617e-05)
(-0.013314831 0.001526554 8.2449481e-05)
(-0.015428203 0.001501346 7.6738717e-05)
(-0.017478529 0.0014448212 6.7040194e-05)
(-0.019421668 0.0013574036 5.3344572e-05)
(-0.021213996 0.0012388589 3.5699771e-05)
(-0.022812117 0.001088818 1.4228008e-05)
(-0.024173176 0.00090730734 -1.0851208e-05)
(-0.025255781 0.00069524847 -3.9197218e-05)
(-0.026021473 0.00045488728 -7.0330404e-05)
(-0.026436612 0.00019012461 -0.00010361811)
(-0.026474595 -9.3275878e-05 -0.00013827125)
(-0.026118114 -0.00038761051 -0.00017336066)
(-0.025361402 -0.00068337079 -0.00020783226)
(-0.024212216 -0.00096953227 -0.00024055622)
(-0.022693231 -0.001234035 -0.00027037832)
(-0.020842767 -0.0014644363 -0.00029618881)
(-0.018714624 -0.0016487005 -0.0003169964)
(-0.016376913 -0.0017760677 -0.00033200682)
(-0.013909815 -0.0018379299 -0.00034069296)
(-0.011402325 -0.0018286308 -0.00034285596)
(-0.0089480739 -0.0017461174 -0.00033866547)
(-0.0066404416 -0.001592387 -0.00032867858)
(-0.004567158 -0.0013737346 -0.00031383265)
(-0.0028045817 -0.0011009078 -0.00029541568)
(-0.0014117042 -0.00078946929 -0.00027501542)
(-0.0004239003 -0.00046070189 -0.00025444276)
(0.00015358564 -0.00014312333 -0.00023561059)
(0.00035513193 0.00012149311 -0.0002205324)
(0.0002744718 0.00027033996 -0.000211306)
(8.9932335e-05 0.00020470747 -0.00019513605)
(2.156563e-06 -0.00014723243 -1.9305125e-05)
(-0.0002551824 0.00029835481 -1.0616831e-05)
(-0.0010484254 0.0010234308 1.2617669e-06)
(-0.0023837702 0.0017955872 1.421938e-05)
(-0.0042323789 0.0025063106 2.7227914e-05)
(-0.0065345582 0.0031050962 3.9144203e-05)
(-0.009209394 0.0035749121 4.9145191e-05)
(-0.012168941 0.0039166596 5.6674081e-05)
(-0.015326194 0.0041389122 6.1350878e-05)
(-0.018598295 0.0042520522 6.2919519e-05)
(-0.021907292 0.004265222 6.1205092e-05)
(-0.025179537 0.0041850242 5.6089735e-05)
(-0.028344521 0.0040153531 4.7497574e-05)
(-0.031333706 0.003757935 3.5395085e-05)
(-0.0340798 0.0034133019 1.9799948e-05)
(-0.03651668 0.0029819836 7.97956e-07)
(-0.038580071 0.0024657477 -2.1436499e-05)
(-0.040208991 0.0018687671 -4.6618266e-05)
(-0.041347876 0.0011986233 -7.4334473e-05)
(-0.041949221 0.00046705263 -0.00010403173)
(-0.041976547 -0.00030961851 -0.00013501353)
(-0.041407477 -0.0011103784 -0.00016644687)
(-0.04023667 -0.001909963 -0.00019738619)
(-0.038478291 -0.0026796074 -0.00022681064)
(-0.036167773 -0.0033882869 -0.00025367333)
(-0.033362614 -0.0040043452 -0.00027696517)
(-0.030141991 -0.0044974308 -0.00029578411)
(-0.026605019 -0.0048406142 -0.00030940856)
(-0.022867596 -0.00501253 -0.00031736294)
(-0.019057845 -0.00499936 -0.00031947343)
(-0.015310288 -0.0047964982 -0.00031590369)
(-0.011758965 -0.0044097779 -0.00030716796)
(-0.0085297833 -0.0038562578 -0.00029411782)
(-0.0057323711 -0.0031647175 -0.0002779044)
(-0.0034516622 -0.0023762702 -0.00025991931)
(-0.0017393513 -0.0015457793 -0.00024171532)
(-0.00060551541 -0.00074494992 -0.00022489998)
(-9.5747949e-06 -6.785611e-05 -0.00021106312)
(0.00015455735 0.00035880736 -0.00020189048)
(7.3320898e-05 0.0003534901 -0.0001849934)
(-6.4478019e-05 5.1473891e-05 -3.7505909e-05)
(-0.0006071062 0.0010457388 -2.4903149e-05)
(-0.001926919 0.0023792739 -1.0945819e-05)
(-0.0039392422 0.0037512162 2.3215697e-06)
(-0.0065770487 0.0050073127 1.4878042e-05)
(-0.0097613758 0.0060697671 2.5966619e-05)
(-0.013392556 0.0069084243 3.5052751e-05)
(-0.017363544 0.0075207105 4.1803141e-05)
(-0.0215679 0.0079171558 4.5982099e-05)
(-0.025902793 0.0081123923 4.7417149e-05)
(-0.03026988 0.0081201136 4.5975797e-05)
(-0.034574963 0.0079507202 4.1552298e-05)
(-0.038727065 0.0076108367 3.4060778e-05)
(-0.042637517 0.0071040785 2.344051e-05)
(-0.046219499 0.0064325935 9.6692736e-06)
(-0.04938829 0.0055990045 -7.216806e-06)
(-0.05206234 0.0046084601 -2.7101523e-05)
(-0.054165157 0.0034705646 -4.976537e-05)
(-0.055627915 0.0022010187 -7.48657e-05)
(-0.056392599 0.00082281723 -0.00010192258)
(-0.056415467 -0.00063310024 -0.00013031261)
(-0.05567061 -0.0021278603 -0.00015927266)
(-0.054153283 -0.0036153633 -0.00018792222)
(-0.05188267 -0.0050437212 -0.00021529604)
(-0.048903876 -0.0063574269 -0.00024039249)
(-0.045288788 -0.0075001685 -0.00026223562)
(-0.041135589 -0.008418162 -0.00027994422)
(-0.036566718 -0.009063796 -0.00029280483)
(-0.031725176 -0.0093993416 -0.00030033845)
(-0.026769159 -0.0094004344 -0.00030235592)
(-0.021865126 -0.0090590617 -0.0002989929)
(-0.017179536 -0.0083858431 -0.00029072011)
(-0.012869576 -0.0074115429 -0.00027832567)
(-0.0090732714 -0.0061879562 -0.00026287065)
(-0.0058994406 -0.0047886049 -0.00024562136)
(-0.0034179127 -0.003310063 -0.00022796512)
(-0.0016502129 -0.0018749309 -0.00021132632)
(-0.00056076087 -0.00063656615 -0.00019709484)
(-5.0780677e-05 0.00021268768 -0.00018650055)
(3.7872082e-05 0.00041248571 -0.00016771784)
(-0.00013059066 0.00044581808 -5.6960436e-05)
(-0.00096902773 0.0022403967 -3.9840221e-05)
(-0.0028406832 0.0043530172 -2.2989998e-05)
(-0.0055540668 0.0064468482 -8.5903169e-06)
(-0.0089920712 0.0083391922 4.2926266e-06)
(-0.013050265 0.0099338412 1.5236961e-05)
(-0.017608313 0.011191531 2.3980022e-05)
(-0.022541264 0.012107502 3.0416886e-05)
(-0.027726352 0.012694291 3.4469514e-05)
(-0.033044815 0.012970427 3.6064013e-05)
(-0.038382275 0.012953791 3.5122262e-05)
(-0.043628323 0.012658388 3.1556879e-05)
(-0.048675701 0.012093635 2.5272417e-05)
(-0.053419596 0.011265397 1.6177076e-05)
(-0.057757458 0.010178134 4.2012329e-06)
(-0.061589554 0.0088376134 -1.0679014e-05)
(-0.064820376 0.0072538008 -2.8416006e-05)
(-0.067360863 0.005443564 -4.8864151e-05)
(-0.069131344 0.0034329481 -7.1755733e-05)
(-0.07006501 0.0012588086 -9.6682973e-05)
(-0.070111699 -0.0010303627 -0.0001230879)
(-0.069241744 -0.0033745492 -0.00015026371)
(-0.067449575 -0.0057032864 -0.00017737125)
(-0.064756786 -0.0079378183 -0.00020347041)
(-0.06121436 -0.0099942649 -0.00022756783)
(-0.056903752 -0.011787717 -0.00024867885)
(-0.051936541 -0.013237087 -0.00026589905)
(-0.046452411 -0.014270453 -0.00027847981)
(-0.04061529 -0.014830542 -0.00028589923)
(-0.034607579 -0.014879967 -0.00028792078)
(-0.028622536 -0.014405805 -0.00028463082)
(-0.022855015 -0.013423179 -0.00027644857)
(-0.017490946 -0.011977662 -0.00026410596)
(-0.012696066 -0.010146562 -0.00024859768)
(-0.0086045853 -0.0080394615 -0.00023110536)
(-0.005308526 -0.0057988283 -0.00021290731)
(-0.002847568 -0.0036016838 -0.00019531559)
(-0.0012001726 -0.0016621392 -0.00017959414)
(-0.00028911824 -0.00023637654 -0.00016646692)
(-2.5716537e-06 0.00034883098 -0.00014525061)
(-0.00019247376 0.0010303734 -7.5377405e-05)
(-0.0013213013 0.0038869411 -5.343014e-05)
(-0.0037442642 0.0069566562 -3.3268528e-05)
(-0.0071588286 0.009893647 -1.721343e-05)
(-0.011391868 0.012504929 -3.4556989e-06)
(-0.016308784 0.014687601 7.8709208e-06)
(-0.021766192 0.016400171 1.675265e-05)
(-0.027621068 0.017639289 2.330195e-05)
(-0.033735856 0.018421113 2.7595473e-05)
(-0.039978515 0.018768614 2.9659409e-05)
(-0.046221931 0.018703906 2.9471068e-05)
(-0.052343068 0.018244516 2.6960577e-05)
(-0.058222025 0.017402653 2.2019943e-05)
(-0.063741383 0.016186623 1.4520939e-05)
(-0.068786186 0.01460364 4.3392547e-06)
(-0.073244698 0.012663343 -8.6177385e-06)
(-0.077010025 0.010381519 -2.4379568e-05)
(-0.079982541 0.0077835762 -4.2881411e-05)
(-0.082073029 0.0049074326 -6.3934995e-05)
(-0.083206336 0.0018055713 -8.7204683e-05)
(-0.083325364 -0.0014539561 -0.00011219315)
(-0.082395129 -0.0047877155 -0.00013823763)
(-0.080406647 -0.0080983477 -0.00016452214)
(-0.077380358 -0.011277399 -0.00019010689)
(-0.073368756 -0.014209472 -0.00021397564)
(-0.068457938 -0.016777615 -0.00023509853)
(-0.062767717 -0.018869754 -0.00025250753)
(-0.056449987 -0.020385857 -0.00026537748)
(-0.049685094 -0.021245406 -0.00027310399)
(-0.042676024 -0.021394649 -0.00027536876)
(-0.035640418 -0.020813087 -0.00027218287)
(-0.028800571 -0.019518655 -0.00026390013)
(-0.022371819 -0.017571248 -0.0002511974)
(-0.016549954 -0.015074458 -0.00023502128)
(-0.011498608 -0.012175777 -0.00021650494)
(-0.0073375921 -0.009065998 -0.0001968718)
(-0.0041316248 -0.0059787197 -0.00017739405)
(-0.0018806737 -0.0031896081 -0.00015930494)
(-0.00053607824 -0.0010166834 -0.00014293015)
(-4.1260804e-05 0.00015708615 -0.00011885427)
(-0.0002495933 0.0017960288 -9.0807041e-05)
(-0.0016562904 0.005974212 -6.3887107e-05)
(-0.0046147835 0.010180639 -4.0252559e-05)
(-0.0087140131 0.014081315 -2.2239837e-05)
(-0.013723213 0.017489819 -7.2410353e-06)
(-0.019475095 0.020309015 4.8603702e-06)
(-0.025801599 0.02250359 1.4274493e-05)
(-0.032541304 0.024076796 2.131439e-05)
(-0.039542754 0.025051338 2.6200412e-05)
(-0.046662516 0.025456083 2.9050816e-05)
(-0.053763295 0.025317987 2.9891749e-05)
(-0.060712376 0.024658274 2.8664998e-05)
(-0.06738032 0.023491977 2.5243952e-05)
(-0.073640167 0.021829898 1.9456486e-05)
(-0.079367404 0.019682158 1.1115269e-05)
(-0.084440771 0.017062569 5.0523089e-08)
(-0.088743936 0.013993177 -1.3853069e-05)
(-0.092167988 0.010508498 -3.0618694e-05)
(-0.094614621 0.0066590152 -5.014327e-05)
(-0.095999868 0.0025136694 -7.2166078e-05)
(-0.096258212 -0.0018389147 -9.6248837e-05)
(-0.095346846 -0.0062906241 -0.00012176626)
(-0.093249906 -0.010715586 -0.00014791315)
(-0.089982384 -0.014973566 -0.00017373112)
(-0.085593409 -0.018915005 -0.00019815513)
(-0.080168567 -0.022387635 -0.00022007795)
(-0.073830851 -0.025244515 -0.00023843026)
(-0.066739848 -0.027353115 -0.00025226894)
(-0.059088734 -0.028604998 -0.00026086483)
(-0.051098821 -0.028925415 -0.00026377832)
(-0.04301148 -0.028282096 -0.00026091251)
(-0.035077565 -0.02669245 -0.00025253408)
(-0.027544728 -0.024228554 -0.00023925815)
(-0.020643361 -0.021019533 -0.0002219948)
(-0.014572393 -0.017251372 -0.00020185981)
(-0.0094861829 -0.013164752 -0.00018007259)
(-0.0054814588 -0.0090517472 -0.00015793534)
(-0.0025859318 -0.0052509408 -0.00013673559)
(-0.00078408731 -0.0021421375 -0.00011647784)
(-7.6937536e-05 -0.00016231512 -8.9308143e-05)
(-0.00030229877 0.0027319725 -0.0001015853)
(-0.0019712479 0.0084828438 -6.9595749e-05)
(-0.005440503 0.014002573 -4.2506391e-05)
(-0.010196362 0.018985527 -2.2407069e-05)
(-0.015951709 0.023266794 -5.9531289e-06)
(-0.022506065 0.026767139 7.1958377e-06)
(-0.029666246 0.029466379 1.7451784e-05)
(-0.037252534 0.031380462 2.53097e-05)
(-0.045100418 0.032542477 3.1118149e-05)
(-0.053056611 0.032989396 3.5074151e-05)
(-0.060975754 0.032754141 3.7241672e-05)
(-0.068717945 0.031862108 3.7564638e-05)
(-0.076146877 0.03033126 3.5888996e-05)
(-0.083128704 0.028174825 3.1989819e-05)
(-0.089531801 0.025405696 2.5607215e-05)
(-0.095227441 0.022041679 1.6484942e-05)
(-0.10009135 0.018110888 4.4120152e-06)
(-0.10400611 0.013656725 -1.0732334e-05)
(-0.10686424 0.008742025 -2.8938679e-05)
(-0.10857188 0.0034520205 -5.0028358e-05)
(-0.10905301 -0.0021041038 -7.3626214e-05)
(-0.10825388 -0.0077932816 -9.9144869e-05)
(-0.10614768 -0.013460369 -0.00012578477)
(-0.10273911 -0.018931923 -0.00015255742)
(-0.098068591 -0.024021931 -0.00017832942)
(-0.092215665 -0.028539527 -0.00020188839)
(-0.085301244 -0.032298575 -0.00022202802)
(-0.077488052 -0.035128781 -0.00023764492)
(-0.068978749 -0.03688781 -0.00024783857)
(-0.06001124 -0.037473642 -0.00025200129)
(-0.050850848 -0.036836179 -0.00024988615)
(-0.04177931 -0.034987051 -0.00024164064)
(-0.033080967 -0.0320066 -0.00022780123)
(-0.025026939 -0.02804729 -0.00020924413)
(-0.017858814 -0.023333259 -0.00018709186)
(-0.011773369 -0.01815641 -0.0001626054)
(-0.0069068126 -0.012869852 -0.00013718303)
(-0.0033206239 -0.0078782381 -0.00011224794)
(-0.0010360219 -0.0036263568 -8.7571113e-05)
(-0.00011090978 -0.00060836795 -5.7164258e-05)
(-0.00035091174 0.0038268669 -0.00010624952)
(-0.0022647411 0.011388842 -6.908329e-05)
(-0.0062140849 0.018391991 -3.8669658e-05)
(-0.011590068 0.024572459 -1.6467897e-05)
(-0.018052353 0.029799914 1.5514699e-06)
(-0.025368352 0.0340243 1.5936503e-05)
(-0.033320435 0.037249433 2.7283668e-05)
(-0.041711332 0.039510407 3.625136e-05)
(-0.05036452 0.040855061 4.3299112e-05)
(-0.059118341 0.04133121 4.8687499e-05)
(-0.067821257 0.040979297 5.2505511e-05)
(-0.076328385 0.03982962 5.4687883e-05)
(-0.084498909 0.037903259 5.504224e-05)
(-0.092194448 0.035215694 5.3280706e-05)
(-0.099278424 0.031782153 4.9060212e-05)
(-0.10561642 0.027623787 4.2027198e-05)
(-0.11107747 0.022773928 3.1863472e-05)
(-0.11553613 0.017283848 1.8337841e-05)
(-0.11887538 0.011227584 1.3532462e-06)
(-0.12099018 0.0047054875 -1.9006327e-05)
(-0.12179162 -0.0021537467 -4.2439785e-05)
(-0.1212116 -0.0091928202 -6.8406232e-05)
(-0.11920795 -0.016227418 -9.611487e-05)
(-0.11576991 -0.02305011 -0.00012454364)
(-0.11092336 -0.029436476 -0.00015247807)
(-0.1047358 -0.03515371 -0.00017857732)
(-0.097320272 -0.039971635 -0.00020146362)
(-0.088837558 -0.043675893 -0.00021982861)
(-0.079496018 -0.04608277 -0.00023254765)
(-0.069548177 -0.047054765 -0.00023878835)
(-0.059283568 -0.046515706 -0.0002380992)
(-0.049017546 -0.044463941 -0.00023046301)
(-0.039076303 -0.040982125 -0.00021630754)
(-0.029778938 -0.036242308 -0.00019646645)
(-0.021418347 -0.03050561 -0.00017208473)
(-0.014242852 -0.024116594 -0.00014450475)
(-0.0084365901 -0.017493136 -0.00011528327)
(-0.0041013198 -0.011111432 -8.6058411e-05)
(-0.001298774 -0.0054879535 -5.6436063e-05)
(-0.00014454932 -0.0011825774 -2.2518926e-05)
(-0.00039550631 0.0050689842 -0.00010348369)
(-0.0025352768 0.014664903 -6.1001398e-05)
(-0.0069293513 0.023312269 -2.7464762e-05)
(-0.012882017 0.030800427 -3.2155469e-06)
(-0.020003984 0.037045053 1.6415153e-05)
(-0.028032767 0.042035522 3.217263e-05)
(-0.036727884 0.045808057 4.4823832e-05)
(-0.045875843 0.048423328 5.5173147e-05)
(-0.055289452 0.049948519 6.3775016e-05)
(-0.064800217 0.050445348 7.0939068e-05)
(-0.074252226 0.049963625 7.6765975e-05)
(-0.083497644 0.048539488 8.1169361e-05)
(-0.092393314 0.04619739 8.3907169e-05)
(-0.10079848 0.042954795 8.4617974e-05)
(-0.1085736 0.038828559 8.2864342e-05)
(-0.11558025 0.033842076 7.8182437e-05)
(-0.1216819 0.028032426 7.0132749e-05)
(-0.1267456 0.021456953 5.8357404e-05)
(-0.13064448 0.01419884 4.263488e-05)
(-0.13326099 0.006371378 2.2935253e-05)
(-0.13449107 -0.0018793259 -5.334541e-07)
(-0.13424887 -0.01037348 -2.7296089e-05)
(-0.13247246 -0.01889865 -5.6581956e-05)
(-0.12913021 -0.027213388 -8.7341627e-05)
(-0.12422736 -0.035053385 -0.00011827517)
(-0.1178128 -0.042140625 -0.00014789571)
(-0.10998509 -0.048195624 -0.00017462146)
(-0.10089707 -0.052952684 -0.00019689161)
(-0.090757951 -0.056177638 -0.00021329714)
(-0.079831888 -0.057687186 -0.00022271215)
(-0.06843211 -0.057368311 -0.00022441018)
(-0.056909934 -0.055195916 -0.00021814613)
(-0.045638711 -0.051246525 -0.00020419169)
(-0.03499346 -0.045706089 -0.00018331395)
(-0.025328226 -0.03887049 -0.00015668478)
(-0.016953485 -0.031138476 -0.00012576056)
(-0.010111306 -0.022997745 -9.2315976e-05)
(-0.0049516435 -0.015004054 -5.828258e-05)
(-0.0015821597 -0.0077558841 -2.3154175e-05)
(-0.00017982258 -0.0018920983 1.4672403e-05)
(-0.00043590585 0.006445867 -9.2089567e-05)
(-0.0027808777 0.018280611 -4.4115895e-05)
(-0.0075799243 0.028721345 -7.7060502e-06)
(-0.01405949 0.037620658 1.8491458e-05)
(-0.021786361 0.044950252 3.9741627e-05)
(-0.030471111 0.0507481 5.6978639e-05)
(-0.039852649 0.055090603 7.1127959e-05)
(-0.04970305 0.058070164 8.3124851e-05)
(-0.059826044 0.059777909 9.3604662e-05)
(-0.070047927 0.060292667 0.00010291328)
(-0.080210186 0.059675656 0.00011115063)
(-0.090163972 0.057969946 0.00011819811)
(-0.099765836 0.055203683 0.00012375343)
(-0.10887471 0.051395974 0.00012737077)
(-0.11735007 0.046564374 0.00012850693)
(-0.12505116 0.040733029 0.00012657373)
(-0.13183718 0.033940749 0.00012099348)
(-0.13756836 0.026248437 0.00011126149)
(-0.14210796 0.017745515 9.7008237e-05)
(-0.14532505 0.0085550549 7.8063225e-05)
(-0.14709851 -0.0011625835 5.4513262e-05)
(-0.14732177 -0.011207834 2.6735589e-05)
(-0.14590899 -0.021342373 -4.5399399e-06)
(-0.14280243 -0.031291646 -3.8254856e-05)
(-0.1379804 -0.040750693 -7.3030153e-05)
(-0.13146606 -0.04939339 -0.00010722347)
(-0.12333599 -0.05688557 -0.00013902057)
(-0.11372773 -0.062902158 -0.0001665592)
(-0.10284488 -0.067148007 -0.00018807786)
(-0.090958511 -0.069381485 -0.00020207449)
(-0.078403388 -0.069439153 -0.00020745799)
(-0.065567905 -0.06725913 -0.00020366936)
(-0.052877289 -0.062900251 -0.00019075378)
(-0.040770645 -0.056554075 -0.00016936699)
(-0.029674047 -0.048547416 -0.00014069591)
(-0.019972474 -0.039334441 -0.00010633373)
(-0.011978064 -0.029478907 -6.8329348e-05)
(-0.0058991424 -0.019626629 -2.8987534e-05)
(-0.0018974026 -0.010471851 1.2271374e-05)
(-0.00021886256 -0.0027496176 5.4568402e-05)
(-0.00047173997 0.007943941 -7.0981106e-05)
(-0.0029990467 0.022202211 -1.7309961e-05)
(-0.0081588027 0.034571857 2.1688669e-05)
(-0.01510929 0.044977593 4.9709381e-05)
(-0.023378922 0.053455857 7.2566622e-05)
(-0.032654748 0.060101292 9.1376451e-05)
(-0.042657709 0.065037484 0.00010721294)
(-0.053147524 0.068394314 0.00012112932)
(-0.063920597 0.070291297 0.0001338295)
(-0.074799691 0.07082761 0.00014568481)
(-0.085625435 0.070078039 0.00015678445)
(-0.096249836 0.068093804 0.00016696846)
(-0.10653115 0.064907138 0.00017586571)
(-0.11633005 0.060538429 0.0001829359)
(-0.12550702 0.055004848 0.00018751851)
(-0.13392085 0.04832952 0.00018888657)
(-0.14142803 0.04055052 0.00018630543)
(-0.14788315 0.031729212 0.00017909965)
(-0.15314009 0.021957607 0.00016672238)
(-0.15705437 0.011364523 0.0001488265)
(-0.15948658 0.00012039257 0.00012533337)
(-0.16030731 -0.0115595 9.6505073e-05)
(-0.15940348 -0.023414195 6.296919e-05)
(-0.1566863 -0.035138181 2.5766285e-05)
(-0.15210098 -0.046386202 -1.3664467e-05)
(-0.14563752 -0.056781979 -5.3527597e-05)
(-0.1373421 -0.065931655 -9.1755893e-05)
(-0.12732805 -0.073442462 -0.00012613849)
(-0.11578482 -0.078946584 -0.00015448727)
(-0.10298322 -0.082129429 -0.00017482672)
(-0.089274883 -0.082760525 -0.00018558899)
(-0.075084197 -0.080724159 -0.00018578682)
(-0.060891522 -0.076045966 -0.00017513779)
(-0.047207798 -0.068911254 -0.00015411293)
(-0.034542789 -0.059671384 -0.00012387939)
(-0.023370212 -0.048836153 -8.6175538e-05)
(-0.014087088 -0.037052312 -4.3376765e-05)
(-0.0069733353 -0.025068495 1.7555025e-06)
(-0.0022563742 -0.013691736 4.98473e-05)
(-0.00026383176 -0.003773969 9.736026e-05)
(-0.00050250809 0.00954821 -3.9191648e-05)
(-0.0031869071 0.026392333 2.0406036e-05)
(-0.0086584728 0.040811067 6.1681869e-05)
(-0.01601774 0.052808925 9.1385343e-05)
(-0.024760677 0.062494464 0.00011582774)
(-0.034554456 0.070025923 0.00013629993)
(-0.045104874 0.075580249 0.00015401575)
(-0.056161493 0.079330028 0.0001701355)
(-0.06751519 0.081427376 0.00018542158)
(-0.07898685 0.081995013 0.00020026255)
(-0.090417927 0.081123534 0.00021473006)
(-0.10166309 0.078873653 0.00022861623)
(-0.11258423 0.075282187 0.00024147489)
(-0.12304585 0.070370487 0.00025266356)
(-0.13291159 0.064154223 0.00026139379)
(-0.14204188 0.056653559 0.00026678555)
(-0.1502925 0.047903095 0.00026792751)
(-0.15751409 0.037961126 0.00026394665)
(-0.16355254 0.026918011 0.00025408425)
(-0.16825057 0.01490352 0.00023777559)
(-0.17145051 0.0020930099 0.00021473195)
(-0.17299903 -0.011287809 0.00018502983)
(-0.17275339 -0.024959889 0.00014915718)
(-0.17058997 -0.038590432 0.00010808314)
(-0.16641526 -0.051795808 6.3267537e-05)
(-0.1601786 -0.064148963 1.6639417e-05)
(-0.15188662 -0.075192413 -2.9474061e-05)
(-0.14161798 -0.084457785 -7.2473584e-05)
(-0.12953705 -0.091492357 -0.00010966841)
(-0.11590413 -0.095892178 -0.00013849956)
(-0.10107966 -0.097340061 -0.00015678631)
(-0.085519649 -0.095645196 -0.00016296502)
(-0.069760292 -0.090779603 -0.00015628522)
(-0.054390788 -0.082905633 -0.00013692093)
(-0.040016514 -0.07238889 -0.00010595176)
(-0.027216022 -0.059792804 -6.5247842e-05)
(-0.016489163 -0.045853961 -1.7556303e-05)
(-0.0082044752 -0.031438445 3.3815769e-05)
(-0.002671247 -0.017486264 8.9520551e-05)
(-0.00031691327 -0.0049903619 0.00014319231)
(-0.00052764858 0.011242084 4.1079979e-06)
(-0.003341449 0.030809837 6.9876144e-05)
(-0.0090713464 0.04738085 0.00011309466)
(-0.016771264 0.061045661 0.00014433048)
(-0.025910899 0.071990882 0.00017033229)
(-0.036141236 0.080444063 0.00019255771)
(-0.047155769 0.086640784 0.00021235134)
(-0.058696066 0.090800994 0.00023097085)
(-0.070549201 0.093113337 0.00024922996)
(-0.082535728 0.093727204 0.00026752929)
(-0.094499504 0.092751307 0.00028592001)
(-0.10629956 0.090257342 0.00030414339)
(-0.11780335 0.086287366 0.00032167487)
(-0.12888129 0.080863521 0.00033776527)
(-0.13940244 0.073998933 0.00035149027)
(-0.1492313 0.065708886 0.00036180368)
(-0.15822544 0.056021663 0.00036759784)
(-0.16623398 0.044988744 0.00036777414)
(-0.17309713 0.032694214 0.00036132391)
(-0.17864675 0.019263388 0.00034741708)
(-0.18270837 0.0048705565 0.00032549817)
(-0.18510517 -0.010254352 0.00029538743)
(-0.18566396 -0.025820452 0.00025736665)
(-0.18422392 -0.041473086 0.0002122627)
(-0.18064825 -0.056794182 0.00016149469)
(-0.17483873 -0.071307398 0.00010708241)
(-0.16675294 -0.08448961 5.1598861e-05)
(-0.15642315 -0.095790296 -1.9438472e-06)
(-0.14397527 -0.10465995 -5.0282048e-05)
(-0.12964537 -0.11058779 -9.0155456e-05)
(-0.11379033 -0.11314741 -0.0001186114)
(-0.096888995 -0.11204708 -0.00013332427)
(-0.079530148 -0.10717889 -0.00013288684)
(-0.062385101 -0.098659126 -0.00011701228)
(-0.046166128 -0.08685159 -8.6578575e-05)
(-0.031574267 -0.072367427 -4.354106e-05)
(-0.019233546 -0.056038544 8.9494866e-06)
(-0.0096226818 -0.038864363 6.6945837e-05)
(-0.0031543176 -0.021941119 0.00013110813)
(-0.00038033153 -0.0064304493 0.0001920876)
(-0.00054661191 0.013007363 5.9586395e-05)
(-0.003459841 0.035409928 0.0001317769)
(-0.0093904102 0.054217942 0.00017658497)
(-0.017357372 0.069612408 0.0002091956)
(-0.026810408 0.081862313 0.00023672761)
(-0.037387905 0.091268917 0.00026079581)
(-0.048773737 0.098130763 0.00028286701)
(-0.060703472 0.10271923 0.00030428788)
(-0.072961927 0.1052631 0.00032591932)
(-0.085370712 0.1059415 0.00034817233)
(-0.097777496 0.10488366 0.00037107807)
(-0.11004726 0.10217391 0.00039432863)
(-0.12205483 0.097860446 0.00041732193)
(-0.13367864 0.091966262 0.00043920132)
(-0.14479562 0.084501138 0.00045890232)
(-0.15527705 0.075473741 0.00047520256)
(-0.16498525 0.064903338 0.00048678013)
(-0.1737711 0.05283087 0.00049228334)
(-0.18147242 0.039329417 0.0004904146)
(-0.18791352 0.02451411 0.00048002652)
(-0.19290612 0.0085515601 0.0004602311)
(-0.19625227 -0.0083313341 0.00043051806)
(-0.1977496 -0.025839527 0.000390873)
(-0.1971996 -0.043603912 0.00034189008)
(-0.19441942 -0.061178369 0.00028486051)
(-0.18925763 -0.078041576 0.00022182244)
(-0.18161374 -0.093605664 0.00015555053)
(-0.17146115 -0.10723397 8.9467768e-05)
(-0.15887181 -0.11826996 2.7463794e-05)
(-0.1440402 -0.1260786 -2.6384061e-05)
(-0.12730241 -0.13009969 -6.8174735e-05)
(-0.10914566 -0.12991019 -9.4597085e-05)
(-0.090202549 -0.12528914 -0.00010334239)
(-0.071226089 -0.11627553 -9.3433534e-05)
(-0.053044708 -0.10320727 -6.5369255e-05)
(-0.036500343 -0.086731013 -2.1094157e-05)
(-0.022365962 -0.067776279 3.5829885e-05)
(-0.011257214 -0.04749195 0.00010071896)
(-0.0037179028 -0.027156671 0.00017422144)
(-0.00045638429 -0.0081323627 0.00024387023)
(-0.00055893725 0.01482441 0.00012772552)
(-0.0035397884 0.04014463 0.00020659415)
(-0.0096100316 0.061254601 0.00025262505)
(-0.017765933 0.078428068 0.0002864466)
(-0.027443321 0.092018909 0.00031547257)
(-0.038271279 0.1024051 0.0003414635)
(-0.049926459 0.1099515 0.0003660006)
(-0.062140152 0.11498439 0.00039051323)
(-0.074696216 0.11777604 0.00041590848)
(-0.08741847 0.11853829 0.00044261036)
(-0.10015961 0.1174234 0.00047063456)
(-0.11279199 0.11453022 0.00049963008)
(-0.12519952 0.10991429 0.00052892319)
(-0.13727076 0.10359987 0.00055755376)
(-0.148893 0.09559297 0.00058431726)
(-0.15994727 0.085894282 0.00060780951)
(-0.17030414 0.074511716 0.00062648056)
(-0.17982012 0.061472274 0.00063870138)
(-0.18833506 0.046833485 0.00064284826)
(-0.19567033 0.03069457 0.0006374042)
(-0.20162856 0.013207536 0.0006210798)
(-0.20599509 -0.0054118082 0.00059294995)
(-0.20854193 -0.024873208 0.00055260265)
(-0.20903495 -0.044802538 0.00050028792)
(-0.207245 -0.064734787 0.00043705408)
(-0.20296385 -0.084111403 0.00036485053)
(-0.19602539 -0.10228457 0.00028657052)
(-0.1863319 -0.11853142 0.00020600711)
(-0.17388456 -0.13208141 0.00012769647)
(-0.15881561 -0.14215955 5.6630769e-05)
(-0.14141795 -0.14804648 -2.1592482e-06)
(-0.12216593 -0.14915352 -4.4120946e-05)
(-0.10172005 -0.1451063 -6.573972e-05)
(-0.080908127 -0.13582533 -6.5039095e-05)
(-0.06067996 -0.12158776 -4.1876574e-05)
(-0.042036176 -0.10305415 1.9815278e-06)
(-0.025926416 -0.081248018 6.2596829e-05)
(-0.013135714 -0.057482476 0.00013445858)
(-0.0043742509 -0.033247323 0.00021818108)
(-0.00054748055 -0.010140728 0.00029807858)
(-0.00056432834 0.016672529 0.00020879905)
(-0.0035799261 0.044963685 0.00029460689)
(-0.0097268872 0.068419783 0.00034148655)
(-0.017990706 0.087407056 0.00037634616)
(-0.027799142 0.10236484 0.00040681374)
(-0.038774825 0.11374941 0.00043478262)
(-0.050589168 0.12199434 0.00046194167)
(-0.062970558 0.12748369 0.00048979946)
(-0.075702896 0.13053633 0.00051931155)
(-0.088613118 0.1313998 0.00055092212)
(-0.10155996 0.130252 0.00058464108)
(-0.11442439 0.12720852 0.00062008539)
(-0.12710101 0.12233378 0.00065652052)
(-0.1394905 0.11565416 0.00069289218)
(-0.15149308 0.10717198 0.00072786141)
(-0.16300267 0.096879176 0.00075984212)
(-0.17390187 0.084770549 0.00078704832)
(-0.18405738 0.070856345 0.00080755516)
(-0.19331625 0.055174522 0.00081938092)
(-0.20150286 0.037803026 0.00082059059)
(-0.20841706 0.018872411 0.00080942602)
(-0.21383397 -0.0014210361 0.00078445962)
(-0.21750611 -0.022801823 0.00074477258)
(-0.21916867 -0.044902066 0.00069014266)
(-0.21854904 -0.067249845 0.00062123415)
(-0.21538181 -0.089260998 0.00053976396)
(-0.20943022 -0.11023734 0.00044861459)
(-0.20051486 -0.12937508 0.00035185667)
(-0.18854922 -0.14578784 0.00025464306)
(-0.17358044 -0.15854887 0.00016293925)
(-0.15583084 -0.16675563 8.3071091e-05)
(-0.13573347 -0.169617 2.1106186e-05)
(-0.11395175 -0.16655774 -1.7875061e-05)
(-0.091372609 -0.15732738 -3.0498465e-05)
(-0.069065582 -0.14209359 -1.5611121e-05)
(-0.048204924 -0.12149584 2.5467081e-05)
(-0.029946564 -0.096638364 8.8524207e-05)
(-0.015283285 -0.069009418 0.00016715487)
(-0.0051354158 -0.040340434 0.00026191709)
(-0.0006561771 -0.012506654 0.00035386387)
(-0.00056273637 0.018530562 0.00030285481)
(-0.003580246 0.049815932 0.00039587428)
(-0.0097409823 0.07564091 0.00044322948)
(-0.018031022 0.096461155 0.00047894175)
(-0.02787513 0.11280001 0.00051076904)
(-0.038891682 0.12519222 0.00054072431)
(-0.050748308 0.13414159 0.00057059897)
(-0.063171462 0.14009243 0.00060198137)
(-0.075945804 0.14341304 0.00063588262)
(-0.088902076 0.14438971 0.00067277907)
(-0.10190589 0.14322884 0.00071268982)
(-0.11484793 0.1400652 0.0007552162)
(-0.12763493 0.13497405 0.00079957887)
(-0.14018166 0.12798531 0.00084464401)
(-0.15240376 0.11909825 0.00088894974)
(-0.16421123 0.10829598 0.0009307346)
(-0.17550267 0.095559215 0.00096797576)