/*--------------------------------*- C++ -*----------------------------------*\
  =========                 |
  \\      /  F ield         | OpenFOAM: The Open Source CFD Toolbox
   \\    /   O peration     | Website:  https://openfoam.org
    \\  /    A nd           | Version:  7
     \\/     M anipulation  |
\*---------------------------------------------------------------------------*/
FoamFile
{
    version     2.0;
    format      ascii;
    class       volVectorField;
    location    "13";
    object      U_0;
}
// * * * * * * * * * * * * * * * * * * * * * * * * * * * * * * * * * * * * * //

dimensions      [0 1 -1 0 0 0 0];

internalField   nonuniform List<vector> 
16000
(
(6.709189e-05 -6.5981926e-05 3.8270303e-07)
(0.00016409116 -5.5525418e-05 6.6773464e-06)
(0.00014211375 8.5295838e-07 2.0194891e-05)
(-5.0722291e-05 6.2000966e-05 3.7601151e-05)
(-0.00040979605 0.00011555458 5.5677392e-05)
(-0.00090819502 0.00015754543 7.2467284e-05)
(-0.0015159463 0.00018823241 8.6639623e-05)
(-0.0022039964 0.0002092886 9.7383862e-05)
(-0.0029464643 0.00022252205 0.00010423719)
(-0.0037210046 0.00022943336 0.00010695313)
(-0.0045082279 0.00023108789 0.00010540554)
(-0.0052908204 0.0002281136 9.9532272e-05)
(-0.0060526564 0.00022076508 8.9311051e-05)
(-0.0067780482 0.00020901839 7.4752854e-05)
(-0.0074512224 0.00019267686 5.5916201e-05)
(-0.0080560833 0.00017148214 3.2931655e-05)
(-0.00857627 0.00014522323 6.0293855e-06)
(-0.0089954933 0.00011383579 -2.4433121e-05)
(-0.0092981298 7.7489228e-05 -5.7946499e-05)
(-0.0094700299 3.6658956e-05 -9.3833844e-05)
(-0.0094994743 -7.8244896e-06 -0.00013124631)
(-0.0093782018 -5.4768727e-05 -0.00016917426)
(-0.0091024408 -0.00010259609 -0.00020647372)
(-0.0086738458 -0.00014941626 -0.00024190931)
(-0.0081002137 -0.0001931048 -0.00027421409)
(-0.0073959019 -0.00023142107 -0.00030216137)
(-0.0065818589 -0.00026215824 -0.00032464704)
(-0.0056852024 -0.00028331073 -0.00034077236)
(-0.0047383215 -0.00029324414 -0.00034992397)
(-0.0037775173 -0.00029084622 -0.00035183956)
(-0.0028412525 -0.00027564334 -0.00034665746)
(-0.0019681145 -0.00024786752 -0.00033494235)
(-0.0011946077 -0.00020847386 -0.00031768708)
(-0.00055282013 -0.00015914536 -0.00029629314)
(-6.8019674e-05 -0.00010240096 -0.00027252616)
(0.00024336268 -4.1855184e-05 -0.00024843869)
(0.00037761325 1.7664125e-05 -0.00022640985)
(0.00034889604 6.6846642e-05 -0.00020887161)
(0.0002057987 8.965923e-05 -0.00019849302)
(5.7392053e-05 5.7334448e-05 -0.00018406512)
(5.8456667e-05 -0.00016477171 -5.6366557e-06)
(4.1672635e-05 -3.8313811e-05 7.1389426e-07)
(-0.00029422343 0.00024918922 1.2349568e-05)
(-0.001009629 0.0005618347 2.6697051e-05)
(-0.002096352 0.0008464548 4.165377e-05)
(-0.0035089931 0.0010815094 5.5628673e-05)
(-0.005186774 0.0012622715 6.7499764e-05)
(-0.0070654664 0.0013917406 7.6514284e-05)
(-0.0090834319 0.0014754344 8.2189105e-05)
(-0.011183845 0.001518885 8.4224884e-05)
(-0.013314752 0.0015265292 8.2440374e-05)
(-0.015428095 0.0015013248 7.6727258e-05)
(-0.01747839 0.0014448041 6.7029602e-05)
(-0.019421502 0.0013573896 5.3336713e-05)
(-0.021213809 0.0012388475 3.569432e-05)
(-0.022811913 0.0010888083 1.4224126e-05)
(-0.02417296 0.00090729959 -1.0854472e-05)
(-0.02525556 0.00069524298 -3.9202066e-05)
(-0.026021247 0.00045488343 -7.0338034e-05)
(-0.026436386 0.00019012299 -0.00010362833)
(-0.026474372 -9.3274999e-05 -0.00013828292)
(-0.026117897 -0.00038760641 -0.00017337174)
(-0.025361193 -0.00068336305 -0.00020784126)
(-0.024212019 -0.00096952094 -0.00024056086)
(-0.022693051 -0.0012340205 -0.00027037737)
(-0.020842608 -0.0014644196 -0.00029618127)
(-0.018714489 -0.0016486828 -0.00031698295)
(-0.016376802 -0.0017760498 -0.00033198796)
(-0.013909729 -0.0018379122 -0.00034067002)
(-0.011402262 -0.0018286144 -0.0003428296)
(-0.0089480328 -0.0017461031 -0.00033863622)
(-0.0066404185 -0.0015923753 -0.00032864673)
(-0.004567149 -0.0013737256 -0.00031379876)
(-0.0028045824 -0.0011009017 -0.0002953803)
(-0.001411711 -0.00078946632 -0.00027497898)
(-0.0004239099 -0.00046070226 -0.0002544055)
(0.00015357612 -0.00014312636 -0.00023557245)
(0.00035512455 0.00012148895 -0.00022049345)
(0.0002744668 0.00027033695 -0.00021126641)
(8.9930181e-05 0.00020470667 -0.00019509887)
(2.1087038e-06 -0.00014749538 -1.9348598e-05)
(-0.00025529187 0.00029815998 -1.0656136e-05)
(-0.0010485673 0.0010232776 1.2292634e-06)
(-0.0023839047 0.0017954617 1.4187377e-05)
(-0.0042324642 0.0025062191 2.7195572e-05)
(-0.0065345858 0.0031050346 3.9118453e-05)
(-0.0092093752 0.0035748562 4.912824e-05)
(-0.012168886 0.0039166031 5.6663908e-05)
(-0.015326105 0.0041388555 6.1343944e-05)
(-0.018598169 0.004251996 6.291095e-05)
(-0.021907123 0.0042651684 6.1194419e-05)
(-0.025179325 0.0041849768 5.6078359e-05)
(-0.028344268 0.0040153115 4.7487784e-05)
(-0.031333418 0.003757898 3.5387793e-05)
(-0.034079484 0.00341327 1.9794973e-05)
(-0.03651634 0.002981957 7.9435877e-07)
(-0.038579713 0.0024657261 -2.1439856e-05)
(-0.040208623 0.0018687519 -4.6623609e-05)
(-0.041347502 0.0011986151 -7.434305e-05)
(-0.041948848 0.00046705199 -0.00010404284)
(-0.041976178 -0.0003096108 -0.00013502584)
(-0.041407118 -0.001110362 -0.00016645831)
(-0.040236326 -0.0019099374 -0.0001973952)
(-0.038477969 -0.0026795738 -0.00022681492)
(-0.036167477 -0.0033882468 -0.00025367162)
(-0.033362351 -0.0040043004 -0.00027695682)
(-0.030141764 -0.0044973828 -0.00029576999)
(-0.026604829 -0.0048405654 -0.00030938942)
(-0.022867443 -0.0050124823 -0.00031733989)
(-0.019057728 -0.0049993156 -0.00031944696)
(-0.015310204 -0.0047964585 -0.00031587423)
(-0.01175891 -0.0044097446 -0.0003071359)
(-0.0085297509 -0.0038562315 -0.00029408377)
(-0.0057323565 -0.003164699 -0.00027786896)
(-0.0034516603 -0.0023762599 -0.00025988274)
(-0.0017393571 -0.001545777 -0.00024167776)
(-0.0006055238 -0.00074495458 -0.00022486139)
(-9.5816465e-06 -6.7865153e-05 -0.00021102369)
(0.00015455308 0.00035879823 -0.00020185052)
(7.3319156e-05 0.00035348574 -0.00018495595)
(-6.4511006e-05 5.1304305e-05 -3.7533842e-05)
(-0.00060718408 0.001045557 -2.4936098e-05)
(-0.001927015 0.0023791047 -1.0977854e-05)
(-0.0039393121 0.0037510793 2.2880693e-06)
(-0.0065770679 0.0050072051 1.4849736e-05)
(-0.0097613519 0.0060696698 2.5946453e-05)
(-0.013392486 0.006908326 3.5039959e-05)
(-0.017363431 0.0075206096 4.1794404e-05)
(-0.021567741 0.0079170536 4.5973457e-05)
(-0.025902584 0.0081122941 4.7406049e-05)
(-0.030269615 0.0081200217 4.5963836e-05)
(-0.034574645 0.0079506357 4.1541263e-05)
(-0.038726698 0.00761076 3.405176e-05)
(-0.042637107 0.0071040097 2.3433836e-05)
(-0.046219053 0.0064325333 9.6649688e-06)
(-0.049387816 0.0055989543 -7.2199789e-06)
(-0.052061845 0.0046084207 -2.7105412e-05)
(-0.054164649 0.0034705378 -4.9771829e-05)
(-0.0556274 0.0022010058 -7.4875458e-05)
(-0.056392085 0.00082281913 -0.00010193456)
(-0.05641496 -0.00063308218 -0.00013032548)
(-0.055670117 -0.0021278262 -0.00015928441)
(-0.05415281 -0.0036153132 -0.00018793092)
(-0.051882227 -0.0050436572 -0.00021529961)
(-0.048903469 -0.0063573512 -0.0002403898)
(-0.045288423 -0.0075000845 -0.00026222649)
(-0.041135269 -0.0084180723 -0.00027992958)
(-0.036566446 -0.0090637045 -0.00029278551)
(-0.031724953 -0.0093992518 -0.00030031532)
(-0.026768982 -0.00940035 -0.00030232937)
(-0.021864992 -0.0090589856 -0.00029896334)
(-0.017179441 -0.008385778 -0.00029068807)
(-0.012869512 -0.0074114907 -0.00027829176)
(-0.0090732335 -0.0061879184 -0.00026283536)
(-0.0058994224 -0.0047885818 -0.00024558468)
(-0.0034179082 -0.0033100536 -0.00022792718)
(-0.0016502157 -0.0018749333 -0.00021128724)
(-0.00056076502 -0.00063657672 -0.00019705491)
(-5.0783616e-05 0.00021267447 -0.00018646014)
(3.7870842e-05 0.00041247842 -0.0001676801)
(-0.00013061413 0.00044566651 -5.6982376e-05)
(-0.0009690811 0.002240232 -3.9870243e-05)
(-0.0028407266 0.0043528617 -2.3021312e-05)
(-0.0055540741 0.0064467096 -8.6181284e-06)
(-0.0089920402 0.0083390544 4.2721893e-06)
(-0.013050192 0.0099336997 1.5222733e-05)
(-0.01760819 0.011191382 2.3970168e-05)
(-0.022541087 0.012107347 3.0408142e-05)
(-0.027726117 0.012694135 3.4459207e-05)
(-0.033044516 0.012970278 3.605199e-05)
(-0.038381912 0.012953651 3.5110605e-05)
(-0.043627899 0.012658257 3.1546945e-05)
(-0.048675221 0.012093515 2.5264933e-05)
(-0.053419069 0.01126529 1.6172103e-05)
(-0.05775689 0.01017804 4.1980741e-06)
(-0.061588953 0.0088375352 -1.0682054e-05)
(-0.06481975 0.0072537407 -2.8420781e-05)
(-0.067360222 0.0054435243 -4.8871691e-05)
(-0.069130696 0.0034329312 -7.1766281e-05)
(-0.070064363 0.0012588153 -9.6695556e-05)
(-0.070111062 -0.0010303305 -0.00012310098)
(-0.069241124 -0.003374492 -0.00015027539)
(-0.067448981 -0.0057032055 -0.00017737921)
(-0.064756227 -0.0079377168 -0.00020347282)
(-0.061213844 -0.0099941459 -0.00022756394)
(-0.056903286 -0.011787585 -0.00024866893)
(-0.05193613 -0.013236947 -0.00026588391)
(-0.046452057 -0.01427031 -0.00027846016)
(-0.040614993 -0.014830401 -0.00028587574)
(-0.034607339 -0.014879834 -0.00028789397)
(-0.028622348 -0.014405684 -0.0002846012)
(-0.022854874 -0.013423073 -0.00027641665)
(-0.017490846 -0.011977575 -0.00026407216)
(-0.012696 -0.010146497 -0.00024856244)
(-0.0086045463 -0.0080394193 -0.00023106859)
(-0.005308507 -0.0057988071 -0.00021286903)
(-0.002847562 -0.0036016803 -0.00019527613)
(-0.0012001725 -0.0016621485 -0.00017955399)
(-0.00028911918 -0.00023639136 -0.00016642644)
(-2.572029e-06 0.00034882172 -0.00014521277)
(-0.00019248864 0.0010302437 -7.539724e-05)
(-0.00132132 0.0038868009 -5.3456681e-05)
(-0.0037442589 0.0069565084 -3.3292471e-05)
(-0.0071587922 0.009893482 -1.7232331e-05)
(-0.011391792 0.012504746 -3.468548e-06)
(-0.016308662 0.014687403 7.8613498e-06)
(-0.021766014 0.016399962 1.6743438e-05)
(-0.027620825 0.017639074 2.3291338e-05)
(-0.033735541 0.0184209 2.7583499e-05)
(-0.039978127 0.018768407 2.9647071e-05)
(-0.046221472 0.018703708 2.9459893e-05)
(-0.052342542 0.018244331 2.6951743e-05)
(-0.058221437 0.017402482 2.2014109e-05)
(-0.063740743 0.01618647 1.4517801e-05)
(-0.068785502 0.014603507 4.3371649e-06)
(-0.073243978 0.012663233 -8.620765e-06)
(-0.077009278 0.010381436 -2.4385105e-05)
(-0.079981777 0.0077835227 -4.2889915e-05)
(-0.082072257 0.0049074119 -6.3946089e-05)
(-0.083205565 0.0018055848 -8.72176e-05)
(-0.083324604 -0.0014539067 -0.00011220595)
(-0.082394389 -0.0047876312 -0.00013824838)
(-0.080405938 -0.0080982307 -0.00016452866)
(-0.077379689 -0.011277253 -0.00019010782)
(-0.073368136 -0.014209303 -0.00021397051)
(-0.068457375 -0.016777427 -0.0002350878)
(-0.062767216 -0.018869554 -0.00025249192)
(-0.056449551 -0.020385653 -0.00026535763)
(-0.049684723 -0.021245204 -0.00027308042)
(-0.042675718 -0.021394457 -0.00027534204)
(-0.035640173 -0.02081291 -0.00027215357)
(-0.028800381 -0.0195185 -0.00026386879)
(-0.022371679 -0.017571119 -0.00025116419)
(-0.016549857 -0.015074358 -0.00023498644)
(-0.011498545 -0.012175708 -0.00021646839)
(-0.0073375562 -0.0090659586 -0.00019683347)
(-0.0041316077 -0.0059787054 -0.0001773544)
(-0.0018806677 -0.0031896124 -0.00015926471)
(-0.00053607693 -0.0010166974 -0.00014288972)
(-4.1260699e-05 0.00015707509 -0.00011881649)
(-0.00024959513 0.0017959299 -9.0823296e-05)
(-0.0016562853 0.0059740905 -6.3904013e-05)
(-0.0046147565 0.010180477 -4.0266915e-05)
(-0.0087139486 0.014081114 -2.2251235e-05)
(-0.0137231 0.017489582 -7.2494586e-06)
(-0.019474926 0.020308754 4.8523402e-06)
(-0.025801364 0.022503314 1.4264529e-05)
(-0.032540992 0.024076515 2.130263e-05)
(-0.039542362 0.025051059 2.6188517e-05)
(-0.046662045 0.025455811 2.9039902e-05)
(-0.053762746 0.025317726 2.9882609e-05)
(-0.060711756 0.024658029 2.8658568e-05)
(-0.067379634 0.02349175 2.5240343e-05)
(-0.073639424 0.021829694 1.9455006e-05)
(-0.079366614 0.019681982 1.1113821e-05)
(-0.084439941 0.017062424 4.72199e-08)
(-0.088743078 0.013993069 -1.3859145e-05)
(-0.092167112 0.01050843 -3.0627909e-05)
(-0.094613736 0.006658991 -5.0154684e-05)
(-0.095998984 0.0025136911 -7.2178881e-05)
(-0.096257339 -0.0018388461 -9.6260925e-05)
(-0.095345997 -0.0062905101 -0.00012177553)
(-0.09324909 -0.01071543 -0.00014791763)
(-0.089981613 -0.014973373 -0.00017373014)
(-0.085592692 -0.01891478 -0.00019814867)
(-0.080167911 -0.022387386 -0.00022006643)
(-0.073830263 -0.02524425 -0.00023841409)
(-0.066739331 -0.027352843 -0.00025224874)
(-0.05908829 -0.028604728 -0.00026084117)
(-0.051098448 -0.028925156 -0.00026375188)
(-0.043011176 -0.028281856 -0.00026088381)
(-0.035077325 -0.026692237 -0.0002525036)
(-0.027544546 -0.024228374 -0.00023922581)
(-0.02064323 -0.02101939 -0.00022196058)
(-0.014572306 -0.017251269 -0.00020182382)
(-0.0094861291 -0.013164687 -0.00018003482)
(-0.0054814298 -0.0090517161 -0.00015789615)
(-0.0025859196 -0.0052509359 -0.00013669585)
(-0.00078408432 -0.0021421483 -0.00011643802)
(-7.6937566e-05 -0.00016232671 -8.9270998e-05)
(-0.0003022941 0.0027318878 -0.00010159319)
(-0.0019712312 0.0084827052 -6.9602488e-05)
(-0.0054404612 0.014002375 -4.2513037e-05)
(-0.010196275 0.018985276 -2.2413356e-05)
(-0.015951565 0.023266497 -5.9601316e-06)
(-0.022505852 0.026766811 7.1867025e-06)
(-0.029665954 0.029466033 1.7440475e-05)
(-0.037252158 0.03138011 2.5297734e-05)
(-0.045099955 0.032542125 3.1107213e-05)
(-0.053056064 0.032989051 3.5065142e-05)
(-0.060975124 0.032753809 3.7235132e-05)
(-0.06871724 0.031861796 3.7561354e-05)
(-0.076146103 0.030330972 3.5888019e-05)
(-0.08312787 0.028174566 3.1989793e-05)
(-0.089530917 0.025405474 2.5606203e-05)
(-0.095226517 0.022041499 1.6481271e-05)
(-0.1000904 0.018110754 4.4055945e-06)
(-0.10400514 0.013656643 -1.0741845e-05)
(-0.10686325 0.0087419986 -2.8950165e-05)
(-0.10857089 0.0034520521 -5.0040539e-05)
(-0.10905204 -0.0021040141 -7.3636864e-05)
(-0.10825293 -0.0077931358 -9.9152123e-05)
(-0.10614676 -0.013460171 -0.00012578708)
(-0.10273825 -0.018931679 -0.00015255449)
(-0.098067784 -0.024021646 -0.00017832158)
(-0.092214923 -0.028539212 -0.00020187609)
(-0.085300574 -0.03229824 -0.00022201141)
(-0.077487458 -0.035128435 -0.00023762451)
(-0.068978233 -0.036887465 -0.00024781509)
(-0.060010802 -0.037473308 -0.0002519756)
(-0.050850484 -0.036835868 -0.00024985858)
(-0.041779019 -0.034986772 -0.00024161145)
(-0.033080742 -0.032006361 -0.00022777017)
(-0.025026774 -0.028047097 -0.00020921088)
(-0.017858701 -0.023333114 -0.00018705666)
(-0.011773296 -0.018156312 -0.00016256855)
(-0.0069067715 -0.012869798 -0.00013714477)
(-0.0033206054 -0.0078782189 -0.0001122091)
(-0.0010360166 -0.0036263608 -8.7532252e-05)
(-0.00011090943 -0.0006083782 -5.7128005e-05)
(-0.00035090772 0.0038267801 -0.00010625153)
(-0.0022647213 0.011388673 -6.9084589e-05)
(-0.0062140309 0.018391745 -3.8672665e-05)
(-0.011589961 0.024572147 -1.6473238e-05)
(-0.018052179 0.029799551 1.5436503e-06)
(-0.025368098 0.034023902 1.5926625e-05)
(-0.033320094 0.037249013 2.7273e-05)
(-0.0417109 0.039509977 3.624101e-05)
(-0.050363997 0.040854629 4.3290313e-05)
(-0.059117728 0.041330786 4.8681524e-05)
(-0.067820559 0.040978889 5.2502546e-05)
(-0.076327609 0.039829235 5.4687938e-05)
(-0.084498062 0.037902904 5.5043442e-05)
(-0.092193538 0.035215377 5.3281374e-05)
(-0.099277462 0.031781881 4.9059324e-05)
(-0.10561542 0.027623567 4.2023307e-05)
(-0.11107643 0.022773766 3.1856727e-05)
(-0.11553507 0.017283751 1.8328292e-05)
(-0.11887431 0.011227555 1.3422538e-06)
(-0.12098911 0.0047055292 -1.9017167e-05)
(-0.12179057 -0.0021536353 -4.2448335e-05)
(-0.12121057 -0.0091926415 -6.8411095e-05)
(-0.11920696 -0.016227177 -9.6115091e-05)
(-0.11576896 -0.023049812 -0.00012453908)
(-0.11092247 -0.02943613 -0.00015246905)
(-0.10473498 -0.035153326 -0.00017856418)
(-0.097319525 -0.039971225 -0.00020144654)
(-0.08883689 -0.043675469 -0.00021980811)
(-0.079495432 -0.046082343 -0.0002325245)
(-0.069547674 -0.04705435 -0.0002387635)
(-0.059283147 -0.046515315 -0.00023807291)
(-0.049017204 -0.044463587 -0.00023043528)
(-0.039076036 -0.040981817 -0.00021627811)
(-0.029778738 -0.036242055 -0.00019643478)
(-0.021418207 -0.030505414 -0.00017205098)
(-0.01424276 -0.024116457 -0.00014446948)
(-0.0084365365 -0.017493053 -0.00011524662)
(-0.0041012946 -0.011111394 -8.6020979e-05)
(-0.0012987665 -0.0054879477 -5.6398571e-05)
(-0.00014454868 -0.0011825856 -2.248395e-05)
(-0.00039550369 0.0050688863 -0.00010348375)
(-0.0025352564 0.014664701 -6.1002192e-05)
(-0.0069292883 0.023311972 -2.7468305e-05)
(-0.01288189 0.030800052 -3.2224963e-06)
(-0.020003781 0.037044619 1.6406289e-05)
(-0.028032477 0.042035046 3.2163032e-05)
(-0.036727502 0.045807555 4.4814723e-05)
(-0.045875367 0.048422813 5.5165248e-05)
(-0.05528888 0.049948002 6.3769162e-05)
(-0.064799552 0.05044484 7.0936508e-05)
(-0.074251474 0.049963135 7.6766236e-05)
(-0.083496812 0.048539027 8.1171647e-05)
(-0.09239241 0.046196966 8.3909508e-05)
(-0.10079751 0.042954417 8.4618564e-05)
(-0.10857258 0.038828236 8.2862737e-05)
(-0.11557919 0.033841816 7.8177757e-05)
(-0.1216808 0.028032237 7.0125286e-05)
(-0.12674448 0.021456841 5.8347646e-05)
(-0.13064334 0.014198808 4.2624601e-05)
(-0.13325985 0.0063714283 2.2926258e-05)
(-0.13448995 -0.001879194 -5.3947223e-07)
(-0.13424777 -0.01037327 -2.7298382e-05)
(-0.1324714 -0.018898366 -5.6580125e-05)
(-0.12912919 -0.027213036 -8.7335547e-05)
(-0.1242264 -0.035052977 -0.0001182651)
(-0.11781191 -0.042140171 -0.00014788185)
(-0.10998428 -0.048195138 -0.00017460416)
(-0.10089634 -0.052952177 -0.00019687147)
(-0.0907573 -0.056177127 -0.00021327483)
(-0.079831324 -0.057686685 -0.00022268852)
(-0.068431633 -0.057367836 -0.00022438539)
(-0.056909544 -0.05519548 -0.00021811989)
(-0.045638403 -0.051246142 -0.00020416382)
(-0.034993226 -0.045705768 -0.00018328409)
(-0.025328059 -0.038870236 -0.00015665292)
(-0.016953374 -0.031138291 -0.0001257274)
(-0.01011124 -0.022997626 -9.2281609e-05)
(-0.0049516117 -0.015003993 -5.8247261e-05)
(-0.00158215 -0.0077558655 -2.3118594e-05)
(-0.00017982165 -0.0018921033 1.4705658e-05)
(-0.00043590396 0.0064457565 -9.2090725e-05)
(-0.0027808554 0.018280373 -4.4119398e-05)
(-0.0075798514 0.028720997 -7.7113636e-06)
(-0.014059347 0.037620219 1.8484017e-05)
(-0.021786135 0.044949745 3.9733434e-05)
(-0.030470794 0.050747543 5.6970539e-05)
(-0.039852236 0.055090014 7.1121039e-05)
(-0.04970254 0.058069559 8.3120203e-05)
(-0.059825437 0.059777302 9.3602706e-05)
(-0.070047226 0.060292071 0.00010291432)
(-0.080209398 0.059675082 0.00011115349)
(-0.090163102 0.057969406 0.00011820159)
(-0.099764894 0.055203188 0.00012375604)
(-0.10887371 0.051395534 0.00012737118)
(-0.11734901 0.046563999 0.0001285046)
(-0.12505005 0.040732729 0.00012656812)
(-0.13183603 0.033940531 0.00012098542)
(-0.1375672 0.026248308 0.00011125202)
(-0.14210678 0.017745479 9.6999139e-05)
(-0.14532387 0.0085551128 7.8056138e-05)
(-0.14709734 -0.0011624327 5.450946e-05)
(-0.14732062 -0.011207593 2.673546e-05)
(-0.14590788 -0.021342047 -4.5364275e-06)
(-0.14280136 -0.031291244 -3.8247549e-05)
(-0.13797939 -0.040750225 -7.3019184e-05)
(-0.13146511 -0.049392867 -0.00010720896)
(-0.12333512 -0.056885006 -0.00013900303)
(-0.11372694 -0.062901568 -0.00016653949)
(-0.10284417 -0.067147407 -0.00018805657)
(-0.090957892 -0.069380893 -0.0002020522)
(-0.07840286 -0.069438588 -0.00020743475)
(-0.065567468 -0.067258608 -0.00020364478)
(-0.05287694 -0.062899785 -0.00019072765)
(-0.040770377 -0.056553679 -0.00016933922)
(-0.029673853 -0.048547096 -0.00014066633)
(-0.019972345 -0.039334202 -0.00010630294)
(-0.011977987 -0.029478746 -6.8297476e-05)
(-0.0058991045 -0.019626538 -2.8954702e-05)
(-0.0018973905 -0.010471816 1.2304598e-05)
(-0.00021886125 -0.0027496181 5.4599526e-05)
(-0.00047173731 0.0079438207 -7.0983508e-05)
(-0.0029990201 0.02220194 -1.7315189e-05)
(-0.0081587207 0.034571456 2.1683288e-05)
(-0.015109134 0.044977086 4.9703495e-05)
(-0.023378681 0.05345527 7.2560793e-05)
(-0.032654415 0.060100648 9.1371069e-05)
(-0.042657278 0.065036803 0.00010720894)
(-0.053146994 0.068393614 0.00012112781)
(-0.06391997 0.070290597 0.00013383047)
(-0.07479897 0.070826923 0.00014568763)
(-0.085624627 0.070077378 0.00015678786)
(-0.096248948 0.068093184 0.00016697147)
(-0.10653019 0.064906571 0.00017586695)
(-0.11632902 0.060537927 0.00018293469)
(-0.12550594 0.055004422 0.00018751452)
(-0.13391972 0.04832918 0.00018887952)
(-0.14142687 0.040550274 0.00018629656)
(-0.14788196 0.031729067 0.00017909063)
(-0.15313889 0.021957566 0.00016671481)
(-0.15705317 0.011364587 0.00014882142)
(-0.15948539 0.00012056024 0.00012533141)
(-0.16030614 -0.011559232 9.6506528e-05)
(-0.15940234 -0.023413832 6.2973967e-05)
(-0.1566852 -0.035137731 2.5774572e-05)
(-0.15209993 -0.046385676 -1.3652835e-05)
(-0.14563653 -0.056781389 -5.3512869e-05)
(-0.13734119 -0.065931015 -9.1738563e-05)
(-0.12732722 -0.073441789 -0.00012611947)
(-0.11578407 -0.078945896 -0.000154467)
(-0.10298256 -0.082128746 -0.00017480551)
(-0.08927431 -0.082759866 -0.00018556689)
(-0.075083718 -0.080723544 -0.00018576362)
(-0.060891135 -0.076045412 -0.00017511332)
(-0.047207499 -0.068910776 -0.00015408739)
(-0.03454257 -0.059670991 -0.0001238525)
(-0.023370064 -0.048835852 -8.6147587e-05)
(-0.014086999 -0.037052103 -4.3347769e-05)
(-0.0069732915 -0.02506837 1.7854745e-06)
(-0.00225636 -0.013691681 4.9877655e-05)
(-0.00026382994 -0.0037739637 9.7388778e-05)
(-0.00050250393 0.0095480829 -3.9193562e-05)
(-0.0031868763 0.026392027 2.0402007e-05)
(-0.0086583857 0.04081061 6.1678198e-05)
(-0.016017578 0.052808347 9.1381682e-05)
(-0.02476043 0.062493794 0.00011582465)
(-0.034554115 0.070025187 0.00013629782)
(-0.045104436 0.075579473 0.00015401525)
(-0.056160957 0.079329232 0.0001701369)
(-0.06751456 0.081426581 0.00018542449)
(-0.078986128 0.081994235 0.00020026587)
(-0.090417119 0.081122788 0.00021473261)
(-0.1016622 0.078872955 0.00022861782)
(-0.11258327 0.075281549 0.00024147407)
(-0.12304483 0.070369924 0.00025265993)
(-0.13291052 0.064153746 0.00026138762)
(-0.14204076 0.05665318 0.00026677713)
(-0.15029135 0.047902821 0.00026791817)
(-0.15751291 0.037960963 0.00026393816)
(-0.16355135 0.026917963 0.00025407789)
(-0.16824937 0.014903587 0.00023777194)
(-0.17144932 0.0020931914 0.00021473115)
(-0.17299785 -0.011287517 0.00018503219)
(-0.17275224 -0.024959492 0.00014916271)
(-0.17058886 -0.038589938 0.00010809202)
(-0.1664142 -0.051795229 6.3279538e-05)
(-0.1601776 -0.06414831 1.6654035e-05)
(-0.15188568 -0.075191701 -2.9457295e-05)
(-0.14161711 -0.084457032 -7.2455447e-05)
(-0.12953626 -0.091491582 -0.00010964922)
(-0.11590343 -0.095891403 -0.00013847933)
(-0.10107905 -0.097339308 -0.00015676502)
(-0.085519135 -0.095644486 -0.00016294282)
(-0.069759872 -0.090778955 -0.00015626204)
(-0.05439046 -0.082905066 -0.00013689721)
(-0.040016272 -0.072388418 -0.00010592729)
(-0.027215856 -0.059792436 -6.5222608e-05)
(-0.016489063 -0.045853697 -1.7530164e-05)
(-0.0082044257 -0.031438281 3.3842862e-05)
(-0.0026712308 -0.017486185 8.9547838e-05)
(-0.00031691105 -0.0049903491 0.00014321795)
(-0.00052764328 0.011241948 4.1082803e-06)
(-0.0033414161 0.030809493 6.9875084e-05)
(-0.0090712583 0.047380333 0.00011309374)
(-0.016771103 0.061045008 0.00014432957)
(-0.025910653 0.071990126 0.00017033198)
(-0.036140899 0.080443234 0.00019255815)
(-0.047155338 0.086639911 0.00021235282)
(-0.05869554 0.090800102 0.000230973)
(-0.070548582 0.093112446 0.00024923241)
(-0.082535022 0.093726336 0.00026753146)
(-0.094498716 0.092750477 0.00028592052)
(-0.1062987 0.090256567 0.00030414244)
(-0.11780242 0.086286661 0.00032167122)
(-0.1288803 0.0808629 0.00033775884)
(-0.1394014 0.073998409 0.00035148183)
(-0.14923022 0.065708469 0.00036179413)
(-0.15822431 0.056021362 0.00036758841)
(-0.16623284 0.044988563 0.00036776624)
(-0.17309598 0.032694158 0.00036131835)
(-0.17864559 0.019263457 0.00034741415)
(-0.18270722 0.0048707487 0.00032549784)
(-0.18510402 -0.01025404 0.00029539008)
(-0.18566284 -0.025820026 0.00025737239)
(-0.18422283 -0.041472555 0.00021227162)
(-0.1806472 -0.056793555 0.00016150651)
(-0.17483773 -0.071306688 0.00010709645)
(-0.16675199 -0.084488833 5.1614718e-05)
(-0.15642227 -0.095789469 -1.9266124e-06)
(-0.14397447 -0.10465909 -5.026366e-05)
(-0.12964465 -0.11058692 -9.0135978e-05)
(-0.11378969 -0.11314656 -0.00011859077)
(-0.096888454 -0.11204628 -0.00013330298)
(-0.079529702 -0.10717815 -0.00013286494)
(-0.062384748 -0.098658468 -0.00011699018)
(-0.046165866 -0.086851035 -8.6556202e-05)
(-0.031574086 -0.072366985 -4.3518298e-05)
(-0.019233435 -0.056038221 8.9728673e-06)
(-0.0096226265 -0.038864155 6.6970068e-05)
(-0.0031542993 -0.021941013 0.00013113229)
(-0.0003803289 -0.0064304277 0.00019211025)
(-0.0005466065 0.013007214 5.9588729e-05)
(-0.0034598088 0.035409544 0.00013177812)
(-0.0093903246 0.054217364 0.00017658606)
(-0.017357216 0.069611679 0.00020919677)
(-0.026810172 0.081861472 0.00023672923)
(-0.037387583 0.091267997 0.00026079732)
(-0.048773325 0.098129797 0.00028286828)
(-0.06070297 0.10271824 0.00030428858)
(-0.072961337 0.10526212 0.00032591915)
(-0.085370039 0.10594055 0.00034817153)
(-0.097776746 0.10488275 0.0003710753)
(-0.11004644 0.10217306 0.00039432424)
(-0.12205394 0.097859678 0.00041731501)
(-0.1336777 0.091965588 0.00043919225)
(-0.14479463 0.08450057 0.00045889214)
(-0.15527602 0.07547329 0.00047519232)
(-0.16498419 0.06490301 0.00048677065)
(-0.17377002 0.052830672 0.00049227562)
(-0.18147133 0.039329352 0.00049040914)
(-0.18791242 0.024514178 0.00048002356)
(-0.19290503 0.0085517598 0.00046023062)
(-0.19625119 -0.008331007 0.00043052054)
(-0.19774854 -0.025839078 0.00039087855)
(-0.19719856 -0.043603349 0.00034189851)
(-0.19441842 -0.061177702 0.00028487156)
(-0.18925667 -0.078040817 0.00022183544)
(-0.18161283 -0.093604829 0.00015556515)
(-0.17146028 -0.10723308 8.9483966e-05)
(-0.15887101 -0.11826903 2.7481577e-05)
(-0.14403947 -0.12607766 -2.6365002e-05)
(-0.12730177 -0.13009875 -6.8154489e-05)
(-0.1091451 -0.12990929 -9.4576386e-05)
(-0.090202085 -0.12528831 -0.00010332155)
(-0.071225718 -0.11627478 -9.3412787e-05)
(-0.053044428 -0.10320663 -6.5348498e-05)
(-0.036500149 -0.086730493 -2.1073316e-05)
(-0.022365841 -0.067775891 3.5850918e-05)
(-0.011257153 -0.047491693 0.00010074053)
(-0.0037178826 -0.027156535 0.00017424257)
(-0.00045638134 -0.0081323307 0.00024388984)
(-0.00055893181 0.014824246 0.00012772879)
(-0.0035397582 0.040144206 0.0002065968)
(-0.0096099527 0.061253964 0.00025262743)
(-0.017765789 0.078427265 0.00028644841)
(-0.027443103 0.092017984 0.00031547397)
(-0.03827098 0.10240409 0.0003414638)
(-0.049926077 0.10995045 0.00036599959)
(-0.062139687 0.11498332 0.00039051109)
(-0.074695671 0.11777497 0.00041590493)
(-0.087417848 0.11853726 0.00044260583)
(-0.10015892 0.11742241 0.00047062793)
(-0.11279123 0.11452931 0.00049962208)
(-0.12519871 0.10991347 0.00052891336)
(-0.13726989 0.10359915 0.00055754279)
(-0.14889209 0.095592364 0.0005843062)
(-0.15994633 0.085893801 0.00060779917)
(-0.17030317 0.074511366 0.00062647122)
(-0.17981914 0.061472062 0.00063869359)
(-0.18833406 0.046833412 0.00064284244)
(-0.19566933 0.030694637 0.00063740081)
(-0.20162756 0.013207741 0.00062107888)
(-0.2059941 -0.0054114697 0.00059295192)
(-0.20854096 -0.024872741 0.00055260759)
(-0.20903399 -0.04480195 0.00050029538)
(-0.20724406 -0.064734088 0.00043706387)
(-0.20296295 -0.084110604 0.0003648623)
(-0.19602453 -0.10228369 0.00028658394)
(-0.18633108 -0.11853047 0.00020602228)
(-0.17388379 -0.13208042 0.0001277136)
(-0.15881491 -0.14215853 5.6649332e-05)
(-0.14141731 -0.14804546 -2.1395359e-06)
(-0.12216537 -0.14915253 -4.4100792e-05)
(-0.10171957 -0.14510537 -6.5719671e-05)
(-0.080907746 -0.13582448 -6.5019398e-05)
(-0.060679669 -0.12158703 -4.1857109e-05)
(-0.042035972 -0.10305355 2.0008399e-06)
(-0.025926287 -0.081247562 6.2615922e-05)
(-0.013135648 -0.057482167 0.00013447791)
(-0.0043742287 -0.033247154 0.00021819965)
(-0.00054747738 -0.010140684 0.00029809546)
(-0.00056432336 0.016672349 0.00020880157)
(-0.0035798991 0.044963222 0.00029460888)
(-0.0097268175 0.068419089 0.00034148796)
(-0.017990578 0.087406185 0.00037634614)
(-0.027798948 0.10236384 0.00040681227)
(-0.038774559 0.11374832 0.00043477953)
(-0.050588828 0.1219932 0.00046193683)
(-0.062970143 0.12748254 0.00048979333)
(-0.075702409 0.13053518 0.00051930401)
(-0.088612563 0.13139869 0.00055091371)
(-0.10155935 0.13025095 0.00058463083)
(-0.11442372 0.12720755 0.00062007448)
(-0.12710028 0.1223329 0.00065650893)
(-0.13948973 0.1156534 0.00069288048)
(-0.15149227 0.10717134 0.00072785025)
(-0.16300184 0.096878669 0.00075983196)
(-0.17390102 0.084770181 0.00078703907)
(-0.18405652 0.070856121 0.00080754717)
(-0.19331538 0.055174443 0.00081937459)
(-0.20150199 0.037803092 0.00082058663)
(-0.20841619 0.01887262 0.00080942451)
(-0.21383311 -0.0014206891 0.00078446076)
(-0.21750526 -0.022801342 0.00074477646)
(-0.21916783 -0.04490146 0.0006901487)
(-0.21854822 -0.067249123 0.00062124218)
(-0.21538101 -0.089260171 0.00053977416)
(-0.20942945 -0.11023643 0.00044862681)
(-0.20051411 -0.12937409 0.00035187093)
(-0.18854851 -0.14578679 0.00025465954)
(-0.17357977 -0.15854778 0.00016295735)
(-0.15583024 -0.16675454 8.3090158e-05)
(-0.13573293 -0.16961594 2.1125726e-05)
(-0.11395128 -0.16655672 -1.7855534e-05)
(-0.091372228 -0.15732645 -3.0479274e-05)
(-0.069065287 -0.14209278 -1.5592337e-05)
(-0.048204713 -0.12149516 2.5485433e-05)
(-0.029946429 -0.096637837 8.8541828e-05)
(-0.015283214 -0.069009054 0.00016717233)
(-0.0051353913 -0.040340229 0.00026193363)
(-0.00065617357 -0.012506596 0.0003538786)
(-0.00056273251 0.018530369 0.00030285545)
(-0.0035802243 0.049815435 0.00039587383)
(-0.0097409248 0.075640167 0.0004432277)
(-0.018030916 0.096460224 0.00047893799)
(-0.027874967 0.11279894 0.0005107633)
(-0.038891457 0.12519106 0.00054071688)
(-0.050748019 0.13414038 0.00057058995)
(-0.06317111 0.1400912 0.00060197114)
(-0.075945389 0.14341183 0.00063587106)
(-0.088901603 0.14438855 0.00067276716)
(-0.10190537 0.14322774 0.00071267692)
(-0.11484735 0.14006418 0.00075520358)
(-0.12763431 0.13497314 0.00079956674)
(-0.14018102 0.12798452 0.00084463252)
(-0.15240308 0.11909759 0.00088893895)
(-0.16421054 0.10829545 0.00093072464)