/*--------------------------------*- C++ -*----------------------------------*\
  =========                 |
  \\      /  F ield         | OpenFOAM: The Open Source CFD Toolbox
   \\    /   O peration     | Website:  https://openfoam.org
    \\  /    A nd           | Version:  7
     \\/     M anipulation  |
\*---------------------------------------------------------------------------*/
FoamFile
{
    version     2.0;
    format      ascii;
    class       volScalarField;
    location    "44";
    object      p;
}
// * * * * * * * * * * * * * * * * * * * * * * * * * * * * * * * * * * * * * //

dimensions      [0 2 -2 0 0 0 0];

internalField   nonuniform List<scalar> 
16000
(
8.2338501e-06
-0.00013219273
-0.00044371347
-0.00084607879
-0.0012642942
-0.0016529662
-0.0019812238
-0.0022302282
-0.0023893421
-0.0024528596
-0.0024178402
-0.0022828272
-0.002047251
-0.0017113553
-0.0012764975
-0.00074568563
-0.00012423026
0.00057960155
0.0013540308
0.0021834017
0.003048087
0.0039247306
0.0047868541
0.0056058668
0.0063524387
0.0069981826
0.0075175417
0.0078897319
0.008100569
0.008144014
0.0080232893
0.0077514775
0.0073515751
0.0068560486
0.0063057803
0.0057482776
0.0052385405
0.0048328297
0.0045928759
0.0045540748
0.00015270323
7.7729736e-06
-0.00024231919
-0.00055120307
-0.00087340187
-0.0011746047
-0.0014305663
-0.0016251074
-0.001747869
-0.0017924092
-0.0017547866
-0.0016326369
-0.0014247055
-0.0011307611
-0.00075179562
-0.00029041516
0.00024867165
0.00085815606
0.0015277051
0.0022436831
0.0029890849
0.0037438797
0.0044853634
0.0051891884
0.0058305087
0.0063854236
0.0068325956
0.0071549131
0.007341046
0.007386733
0.0072956572
0.0070798246
0.0067594237
0.006362202
0.0059223905
0.0054790338
0.0050733058
0.0047485839
0.0045499965
0.0045144922
0.00047133482
0.00025345124
-2.3860973e-06
-0.00028143431
-0.00056167995
-0.00081861945
-0.0010344633
-0.0011971527
-0.0012984822
-0.0013329327
-0.0012967858
-0.0011875085
-0.0010034597
-0.0007438836
-0.00040912672
-1.0067828e-06
0.00047673776
0.0010179908
0.0016138626
0.0022524243
0.002918672
0.0035946472
0.0042599838
0.0048926842
0.005470216
0.0059708572
0.0063751997
0.0066676966
0.0068381111
0.0068827102
0.0068050485
0.0066162299
0.0063346053
0.0059849553
0.0055972447
0.0052049374
0.0048426785
0.0045447272
0.0043473667
0.0042800457
0.00089294793
0.00056168954
0.00026099663
-2.478834e-05
-0.0002953906
-0.00053454022
-0.0007306727
-0.00087657271
-0.00096716794
-0.00099876359
-0.00096854729
-0.00087423283
-0.00071394827
-0.00048635436
-0.00019094146
0.00017154905
0.00059863689
0.0010856104
0.0016250933
0.0022067397
0.0028171236
0.0034397985
0.0040557984
0.0046443274
0.00518382
0.0056532655
0.0060337061
0.0063097835
0.0064711845
0.0065138305
0.0064406522
0.0062618175
0.0059943365
0.005661073
0.0052892768
0.0049088072
0.0045503518
0.0042438939
0.0040159935
0.0038804225
0.0013437446
0.00088407821
0.0005209237
0.00021060887
-6.7099123e-05
-0.00030315699
-0.00049189011
-0.00063103638
-0.00071893802
-0.00075402895
-0.00073464676
-0.00065889052
-0.00052467773
-0.0003299985
-7.331899e-05
0.00024591017
0.0006266874
0.0010658894
0.0015577566
0.0020935002
0.0026610971
0.0032453222
0.0038281023
0.0043891909
0.0049071943
0.0053609053
0.0057308532
0.0060009281
0.0061599052
0.006202693
0.0061311422
0.0059542853
0.0056879165
0.0053535022
0.004976499
0.0045844107
0.0042054699
0.0038668755
0.0035842015
0.0033606002
0.0017705917
0.0011774656
0.0007428041
0.00039675571
0.00010019383
-0.00014409601
-0.00033580654
-0.00047739116
-0.00057054024
-0.00061582852
-0.00061276588
-0.00055982658
-0.00045465495
-0.00029445302
-7.6501876e-05
0.00020122285
0.00053938116
0.00093659186
0.0013888059
0.0018887972
0.0024258419
0.002985666
0.003550698
0.0041007072
0.0046138071
0.0050678126
0.0054418688
0.0057182062
0.0058838248
0.0059318893
0.0058626412
0.0056836891
0.0054096078
0.0050608188
0.0046617658
0.0042388067
0.0038193129
0.0034297682
0.0030771946
0.0027499016
0.0021282848
0.0014033087
0.00089372333
0.00050549289
0.00018222202
-7.8757609e-05
-0.00028196167
-0.0004341716
-0.00054017082
-0.00060250367
-0.00062172018
-0.00059654569
-0.00052421574
-0.00040098792
-0.0002227822
1.4086949e-05
0.000312123
0.00067184778
0.0010910443
0.0015641093
0.0020815935
0.0026300309
0.0031920778
0.0037471044
0.0042721767
0.0047434477
0.0051378771
0.0054351413
0.0056195345
0.0056816084
0.0056192994
0.0054383591
0.0051520175
0.0047798722
0.0043459824
0.0038766498
0.0033999276
0.0029434361
0.0025071875
0.0020656309
0.0023782599
0.0015268548
0.00094278227
0.00050960804
0.00015502216
-0.00012853436
-0.00034992937
-0.0005198486
-0.0006458246
-0.00073209351
-0.00078001276
-0.00078835359
-0.00075375003
-0.00067132261
-0.00053543019
-0.00034051784
-8.202779e-05
0.00024266848
0.00063337064
0.0010862483
0.0015932213
0.0021416465
0.0027142989
0.0032898911
0.0038440124
0.0043505549
0.0047835353
0.0051191793
0.0053380742
0.0054271286
0.0053810419
0.0052030239
0.004904633
0.0045047197
0.0040274539
0.0035000276
0.002952596
0.0024156998
0.0018842938
0.0013217602
0.0024867091
0.0015164125
0.00086068101
0.00038222026
-6.0836801e-06
-0.00031630775
-0.00056129021
-0.00075521733
-0.00090800665
-0.001025267
-0.0011088832
-0.0011574235
-0.0011666929
-0.0011304555
-0.0010412853
-0.0008915194
-0.00067428859
-0.00038458517
-2.0314605e-05
0.00041673361
0.0009200842
0.0014781034
0.0020737589
0.0026850333
0.0032857601
0.0038470559
0.0043392474
0.0047341568
0.0050075489
0.0051414768
0.0051262057
0.0049613911
0.0046562768
0.004228814
0.0037036402
0.0031096728
0.0024804817
0.0018512364
0.0012133221
0.00051983311
0.0024231586
0.0013429011
0.00061985615
9.7285372e-05
-0.00032575049
-0.00066559813
-0.00093875991
-0.0011625599
-0.0013489555
-0.0015046132
-0.0016316599
-0.0017282033
-0.0017889792
-0.0018061616
-0.0017702957
-0.0016713412
-0.0014998084
-0.0012479564
-0.00091100251
-0.00048828245
1.5736942e-05
0.00059083968
0.0012204358
0.0018819201
0.0025472835
0.0031844833
0.0037594402
0.0042385391
0.0045914322
0.0047938609
0.0048301521
0.0046950209
0.0043943452
0.0039446655
0.0033712101
0.0027053411
0.001985301
0.0012525529
0.00049605705
-0.00034107929
0.0021598321
0.00097968475
0.00019470886
-0.0003698469
-0.00082779413
-0.0011995713
-0.001505094
-0.0017645051
-0.0019914942
-0.0021935023
-0.0023726395
-0.0025263142
-0.002647965
-0.0027279428
-0.0027545089
-0.0027149474
-0.0025967888
-0.0023891234
-0.0020839661
-0.00167762
-0.0011719403
-0.00057504692
9.7360595e-05
0.00082248539
0.001570623
0.0023063798
0.0029906561
0.0035833294
0.0040464577
0.0043476955
0.0044635278
0.0043818889
0.0041037482
0.0036432447
0.0030259461
0.0022861765
0.0014680763
0.00062109792
-0.00026740729
-0.0012645757
0.0016715347
0.00040264554
-0.0004381144
-0.0010419516
-0.0015345362
-0.0019402483
-0.0022822009
-0.0025830771
-0.0028580375
-0.0031150618
-0.0033560315
-0.0035774598
-0.0037712952
-0.0039258542
-0.0040268624
-0.0040586123
-0.0040052501
-0.0038521864
-0.0035876028
-0.0032039907
-0.0026996442
-0.0020801818
-0.0013591309
-0.00055889987
0.00028951898
0.0011474442
0.0019703277
0.0027105262
0.0033208907
0.0037588758
0.0039907161
0.003995131
0.0037660118
0.0033134954
0.0026627152
0.0018511406
0.0009299582
-4.1592865e-05
-0.001077202
-0.0022550469
0.00093586761
-0.00040955152
-0.0012993459
-0.0019394163
-0.002466155
-0.0029077291
-0.0032902531
-0.0036387076
-0.0039695132
-0.0042910127
-0.0046047081
-0.0049060822
-0.0051854549
-0.0054289422
-0.005619509
-0.0057381426
-0.0057651737
-0.0056817587
-0.005471511
-0.0051222289
-0.0046276678
-0.0039894694
-0.0032181352
-0.0023345472
-0.0013701494
-0.00036649275
0.00062628674
0.0015521846
0.0023532152
0.0029742463
0.0033683103
0.0035017306
0.0033583199
0.0029418006
0.0022753969
0.0013994142
0.00037306537
-0.00073269981
-0.0019321771
-0.0033158051
-6.6346606e-05
-0.0014750624
-0.0024066475
-0.0030796926
-0.0036400174
-0.0041193961
-0.0045467577
-0.0049491704
-0.0053441601
-0.0057403248
-0.0061387108
-0.0065337098
-0.0069139465
-0.0072632349
-0.007561608
-0.0077864672
-0.0079139003
-0.0079202017
-0.0077836027
-0.0074861894
-0.0070159677
-0.0063690549
-0.0055515097
-0.0045811525
-0.0034885597
-0.0023172408
-0.0011226199
3.0421799e-05
0.0010715701
0.0019305775
0.0025438315
0.0028612462
0.0028524991
0.0025113872
0.0018567753
0.00093078839
-0.00019865988
-0.0014468794
-0.0028283771
-0.0044473537
-0.0013505265
-0.0028084028
-0.0037741358
-0.0044767469
-0.0050700204
-0.0055891225
-0.0060656132
-0.0065284742
-0.0069962411
-0.0074777368
-0.0079735614
-0.0084770435
-0.008975133
-0.0094493237
-0.0098766223
-0.01023063
-0.01048281
-0.010604002
-0.010566213
-0.0103447
-0.0099203112
-0.0092820467
-0.0084295852
-0.0073757277
-0.0061483006
-0.0047912144
-0.0033642396
-0.0019411004
-0.00060557291
0.00055451288
0.001455109
0.0020248927
0.0022141271
0.0020017446
0.0013984394
0.0004460943
-0.00077852565
-0.0021749294
-0.0037574153
-0.0056455895
-0.0029277654
-0.0044199888
-0.0054119349
-0.0061405573
-0.0067659841
-0.0073265237
-0.0078561931
-0.0083857528
-0.0089347209
-0.0095121994
-0.010118448
-0.010745861
-0.011379835
-0.011999626
-0.012579218
-0.013088292
-0.013493396
-0.013759392
-0.013851264
-0.013736309
-0.013386739
-0.012782628
-0.011915101
-0.010789542
-0.009428545
-0.0078741073
-0.006188554
-0.0044535817
-0.0027668793
-0.0012359531
3.0833623e-05
0.00093541644
0.0014020855
0.0013882474
0.00089078482
-5.2261237e-05
-0.0013560183
-0.0029022727
-0.0047046458
-0.0068997987
-0.0048043185
-0.0063157501
-0.0073258179
-0.0080767099
-0.0087331485
-0.009336307
-0.0099225075
-0.010524212
-0.011161973
-0.011845321
-0.012574384
-0.013340859
-0.014128825
-0.014915495
-0.01567195
-0.016363954
-0.016952968
-0.017397486
-0.017654779
-0.01768315
-0.017444718
-0.016908745
-0.016055463
-0.014880091
-0.01339695
-0.011643031
-0.009680418
-0.0075967831
-0.0055030908
-0.0035277872
-0.0018070934
-0.00047168543
0.00036901298
0.00064230576
0.00032331106
-0.00055954429
-0.0019154926
-0.0036071544
-0.005647013
-0.0081903097
-0.0069812194
-0.0084968894
-0.0095170061
-0.010286159
-0.010971833
-0.011617779
-0.012262515
-0.012940212
-0.013672609
-0.014469924
-0.015332473
-0.016251605
-0.017210428
-0.01818443
-0.019142035
-0.020045228
-0.020850369
-0.021509359
-0.021971259
-0.022184518
-0.022099877
-0.021673997
-0.020873815
-0.019681475
-0.018099561
-0.016156238
-0.013909514
-0.011449693
-0.0088988848
-0.0064063373
-0.0041387024
-0.0022649432
-0.00093677997
-0.00026751483
-0.00031447889
-0.0010675344
-0.0024344966
-0.0042584365
-0.0065504484
-0.0094856546
-0.0094540981
-0.010959862
-0.011982198
-0.012765218
-0.013477328
-0.014164576
-0.014867655
-0.015622565
-0.016452525
-0.017368829
-0.018372421
-0.019454763
-0.02059845
-0.021777668
-0.022958558
-0.0240996
-0.025152211
-0.026061667
-0.026768561
-0.027210909
-0.02732707
-0.027059563
-0.026359847
-0.025194114
-0.023549526
-0.021441098
-0.018917968
-0.016068332
-0.013021501
-0.0099454083
-0.0070379449
-0.0045109872
-0.0025672841
-0.0013728707
-0.0010311785
-0.0015626873
-0.0028815498
-0.0048128463
-0.0073666742
-0.010739086
-0.01221327
-0.013696645
-0.014713897
-0.015505855
-0.016240076
-0.016964683
-0.017722654
-0.018552128
-0.019478269
-0.020513999
-0.02166147
-0.022912828
-0.024250704
-0.025648498
-0.027070529
-0.028472181
-0.029800229
-0.030993512
-0.03198415
-0.032699471
-0.033064848
-0.033007525
-0.032461663
-0.031375176
-0.029716051
-0.027481643
-0.024706789
-0.021471564
-0.017906635
-0.014194073
-0.010561219
-0.0072653443
-0.0045679966
-0.0027009143
-0.0018301104
-0.0020232914
-0.00321315
-0.0052115126
-0.0080292659
-0.011884297
-0.015244158
-0.016695368
-0.017701115
-0.018496344
-0.019246199
-0.020000777
-0.020805671
-0.021701731
-0.022716782
-0.023866134
-0.025153878
-0.026573525
-0.02810836
-0.029731565
-0.031406157
-0.033084896
-0.034710344
-0.036215258
-0.037523536
-0.038551905
-0.039212569
-0.039416918
-0.03908055
-0.038131696
-0.036515576
-0.034207714
-0.031223036
-0.02762663
-0.023542962
-0.019161092
-0.014732767
-0.010559809
-0.0069678883
-0.0042668916
-0.0027039846
-0.0024152461
-0.0033697557
-0.0053755983
-0.0084488128
-0.012830216
-0.018528118
-0.019941374
-0.020930502
-0.021722336
-0.022478411
-0.023250924
-0.024088768
-0.025036466
-0.026125565
-0.027374778
-0.028791041
-0.030370013
-0.032096298
-0.033943425
-0.035873618
-0.037837492
-0.039773862
-0.041609867
-0.043261633
-0.044635674
-0.045631283
-0.046144212
-0.046071842
-0.045318406
-0.043807328
-0.041488075
-0.038350255
-0.03443689
-0.029857544
-0.024798787
-0.019528188
-0.014386964
-0.009766129
-0.0060636999
-0.0036271159
-0.0026860702
-0.0032704712
-0.005200836
-0.0085070154
-0.013454721
-0.022043709
-0.023418802
-0.024387996
-0.025168389
-0.025917319
-0.026689614
-0.027538704
-0.028514312
-0.029653233
-0.030978928
-0.032502288
-0.034221974
-0.036124566
-0.038184451
-0.040363483
-0.042610518
-0.044861032
-0.047037011
-0.049047345
-0.050788938
-0.052148797
-0.053007388
-0.053243449
-0.052740114
-0.051395
-0.049129815
-0.045904884
-0.041734736
-0.036705126
-0.030989115
-0.024858311
-0.018683378
-0.012916318
-0.0080485055
-0.0045449359
-0.0027567926
-0.0028061615
-0.0045507611
-0.0080495503
-0.013597179
-0.025768521
-0.027112807
-0.028061076
-0.028819989
-0.029543092
-0.030289065
-0.031117948
-0.032086997
-0.033240398
-0.034608117
-0.036206301
-0.038037519
-0.040090911
-0.042342087
-0.044752763
-0.047270236
-0.049826879
-0.052339866
-0.054711339
-0.056829256
-0.058569172
-0.059797218
-0.060374498
-0.060163185
-0.059036004
-0.056885715
-0.053640816
-0.049282419
-0.043864487
-0.03753529
-0.03055656
-0.023314032
-0.016309915
-0.010127231
-0.0053609322
-0.0025115415
-0.0018307494
-0.0032484256
-0.0068775066
-0.013049662
-0.029681656
-0.031012599
-0.031941763
-0.03266613
-0.033337471
-0.034020698
-0.034785788
-0.035700974
-0.036820763
-0.038183833
-0.039813078
-0.041715852
-0.043884264
-0.046295252
-0.048910335
-0.051675143
-0.054518895
-0.057354035
-0.060076254
-0.062565113
-0.064685543
-0.066290447
-0.067224678
-0.067330723
-0.066457449
-0.064469539
-0.061262901
-0.056782419
-0.051044331
-0.044162119
-0.036373315
-0.028061295
-0.019761548
-0.01213862
-0.0059217717
-0.0017849358
-0.00015053196
-0.0010663542
-0.0047371255
-0.011546654
-0.033767157
-0.035115622
-0.03603059
-0.036702499
-0.037286041
-0.037856634
-0.038499355
-0.039298328
-0.040322248
-0.041621168
-0.043226304
-0.04515051
-0.047388963
-0.049919635
-0.052703363
-0.055683579
-0.058785893
-0.061917745
-0.06496834
-0.067809113
-0.070295005
-0.07226671
-0.073554309
-0.073982559
-0.073377246
-0.071577804
-0.068448404
-0.063897221
-0.057899645
-0.050527111
-0.04198029
-0.032622003
-0.022999585
-0.013840498
-0.0060021419
-0.00034783957
0.0024885197
0.002285548
-0.0013074096
-0.0087528743
-0.038018875
-0.039433446
-0.040341928
-0.040935412
-0.041380688
-0.041771024
-0.042214346
-0.042817432
-0.043668033
-0.04483056
-0.046346006
-0.048233047
-0.050489504
-0.053093526
-0.056004219
-0.059161752
-0.062487187
-0.065882224
-0.069229141
-0.07239112
-0.075213393
-0.07752516
-0.079142788
-0.079874547
-0.079526962
-0.077914911
-0.07487359
-0.070276244
-0.064057283
-0.05624249
-0.046986571
-0.036615546
-0.02566555
-0.014901595
-0.0052916949
0.0021074022
0.0064152834
0.0071745286
0.0038151535
-0.0042484281
-0.042447804
-0.044000374
-0.044911299
-0.045386665
-0.045622153
-0.045740999
-0.045885245
-0.046193209
-0.04677741
-0.047719581
-0.049071422
-0.05085701
-0.053075579
-0.055703829
-0.058697393
-0.061991494
-0.065501159
-0.069121125
-0.07272586
-0.076169713
-0.079288052
-0.081898822
-0.083805403
-0.08480086
-0.084673946
-0.083217759
-0.080241336
-0.075585991
-0.069147475
-0.060906021
-0.05096589
-0.03960442
-0.027325373
-0.014902617
-0.0033873308
0.005980321
0.012049423
0.014062591
0.011136144
0.0024904224
-0.04709387
-0.04888658
-0.049805708
-0.050099636
-0.050022556
-0.049747024
-0.049464872
-0.049356924
-0.049566472
-0.050194804
-0.051304098
-0.052922154
-0.055047227
-0.057651942
-0.06068592
-0.06407709
-0.067732403
-0.071537919
-0.075359308
-0.07904057
-0.082406911
-0.08526472
-0.087404488
-0.088604686
-0.088637468
-0.08727584
-0.08430537
-0.079538766
-0.072836722
-0.064136781
-0.053492718
-0.041126899
-0.027494418
-0.013350208
0.00020509424
0.011771305
0.019917808
0.023528143
0.021289581
0.012118536
-0.052046071
-0.054218903
-0.055138635
-0.055146998
-0.054607753
-0.053772419
-0.052903164
-0.052235578
-0.051948778
-0.052163909
-0.052951279
-0.054338831
-0.056319874
-0.058859112
-0.061896929
-0.065350653
-0.069116815
-0.07307057
-0.077068687
-0.080940958
-0.084503004
-0.08754877
-0.089855334
-0.091186418
-0.091298579
-0.089944412
-0.086888005
-0.08191613
-0.074857771
-0.065611598
-0.054183672
-0.040740057
-0.025677036
-0.0097072423
0.0060545409
0.020081515
0.030669343
0.036292998
0.035075569
0.025464936
-0.057478744
-0.060214748
-0.061091982
-0.060640381
-0.059419117
-0.057801677
-0.056145055
-0.054750955
-0.053836123
-0.053538083
-0.053929547
-0.055032355
-0.056828962
-0.059270848
-0.062285875
-0.065775707
-0.069624879
-0.073695681
-0.077830337
-0.081849475
-0.085554192
-0.088725473
-0.091126491
-0.092505692
-0.092601655
-0.09114923
-0.087890037
-0.082585313
-0.075034179
-0.065099092
-0.052741186
-0.038071138
-0.021420868
-0.0034427868
0.014767794
0.031596634
0.045083868
0.053255754
0.053516125
0.043606896
-0.063719577
-0.067238325
-0.067947943
-0.066741601
-0.064513589
-0.061816654
-0.05912691
-0.056818
-0.055139098
-0.054234306
-0.054168139
-0.054946733
-0.056533712
-0.058861192
-0.061837077
-0.065347587
-0.069259935
-0.073421623
-0.077660456
-0.081783947
-0.085579197
-0.088813201
-0.091234263
-0.092574589
-0.092554535
-0.090888866
-0.087295873
-0.081510232
-0.073300042
-0.06249075
-0.048998298
-0.032876493
-0.014387073
0.005894194
0.026923776
0.047044188
0.064066912
0.075530604
0.077938811
0.068004702
-0.071381752
-0.075894451
-0.076133325
-0.073673184
-0.069959079
-0.065788245
-0.061769663
-0.058340924
-0.055765902
-0.054175978
-0.053610441
-0.054046339
-0.055417546
-0.05762964
-0.060566148
-0.064092429
-0.068056821
-0.072290208
-0.076605115
-0.080794584
-0.084631476
-0.087868263
-0.09023781
-0.091455385
-0.091222305
-0.089231541
-0.085175855
-0.078760469
-0.069718231
-0.057832173
-0.042966096
-0.025108656
-0.0044396838
0.018569581
0.042964288
0.067104472
0.088610237
0.10448273
0.1101043
0.10076018
-0.081632369
-0.08718259
-0.086271115
-0.081717162
-0.075815476
-0.069655631
-0.063962042
-0.059201332
-0.055614406
-0.053287574
-0.052210231
-0.052311726
-0.053485008
-0.055600287
-0.058511887
-0.062060874
-0.066075129
-0.070367967
-0.074736282
-0.078958656
-0.082793917
-0.085980273
-0.088235384
-0.089257642
-0.088729038
-0.086319715
-0.081694523
-0.074525511
-0.064503643
-0.051359482
-0.034890176
-0.014998324
0.0082481746
0.034514855
0.063012997
0.092225512
0.1196595
0.14172209
0.15240404
0.14512426
-0.096760719
-0.10273903
-0.099198807
-0.091156121
-0.082063376
-0.073262329
-0.065508682
-0.059217864
-0.054541049
-0.051470258
-0.049911056
-0.049723855
-0.050746694
-0.052806864
-0.055725367
-0.059317157
-0.063389228
-0.067737691
-0.072144676
-0.076375465
-0.080176184
-0.083272188
-0.085367359
-0.086144523
-0.08526743
-0.08238362
-0.077129092
-0.069139371
-0.058056436
-0.043545543
-0.025315987
-0.0031515114
0.023040806
0.053141235
0.086633298
0.12228295
0.1577808
0.18895161
0.20809782
0.20632766
-0.12134027
-0.12518791
-0.11587368
-0.10208179
-0.088417904
-0.076198876
-0.066006336
-0.058052808
-0.052291899
-0.048550831
-0.04660899
-0.046233627
-0.04719541
-0.049273334
-0.052253658
-0.055925961
-0.060078189
-0.064491604
-0.068936156
-0.073166516
-0.076918885
-0.079908633
-0.081828797
-0.082349594
-0.081119527
-0.077765226
-0.071896633
-0.063111079
-0.050996893
-0.035142479
-0.015146064
0.0093689126
0.038725357
0.073129631
0.11251973
0.15626254
0.20263083
0.24752309
0.2813009
0.2923565
-0.16445771
-0.15843344
-0.13714894
-0.11415802
-0.094107874
-0.077631771
-0.064738446
-0.055162362
-0.04849049
-0.044292157
-0.042173478
-0.041788064
-0.042833119
-0.045040374
-0.048165478
-0.05197781
-0.056251544
-0.060758099
-0.06525992
-0.069505469
-0.073225304
-0.076129098
-0.077903534
-0.078211285
-0.076691271
-0.072948529
-0.066578432
-0.057141335
-0.044173036
-0.027181019
-0.0056366808
0.021034677
0.053464018
0.092331524
0.13829618
0.19182682
0.25266794
0.31751135
0.3762685
0.41537067
-0.24629457
-0.20631862
-0.16213092
-0.12552956
-0.097144326
-0.075878843
-0.060488225
-0.04975302
-0.04266093
-0.038436898
-0.036491039
-0.036366091
-0.037698067
-0.040185882
-0.043567989
-0.047604976
-0.052066674
-0.05672247
-0.06133392
-0.065649072
-0.069398103
-0.072290039
-0.074010408
-0.074220627
-0.072559293
-0.068606313
-0.061962411
-0.052156585
-0.038683588
-0.020981774
0.0015956044
0.02982519
0.064686383
0.10746492
0.15987117
0.22417795
0.30290561
0.39553235
0.49624358
0.60321247
-0.42543934
-0.26573072
-0.17722194
-0.12463655
-0.089117181
-0.065103312
-0.049324521
-0.039185999
-0.032984393
-0.029674787
-0.028571432
-0.029187483
-0.031157561
-0.034190642
-0.038038362
-0.042474085
-0.047278928
-0.052231959
-0.057103017
-0.061647321
-0.065601363
-0.068679741
-0.07057242
-0.070941301
-0.069408587
-0.065630459
-0.059133007
-0.049453454
-0.036075366
-0.018403784
0.0042713153
0.032847286
0.068542767
0.11314223
0.16943683
0.2420174
0.33806629
0.46591605
0.64305486
0.92086244
-0.7933133
-0.32444252
-0.14899777
-0.087725734
-0.055346136
-0.035999833
-0.025091866
-0.019201318
-0.016355849
-0.015619427
-0.016494666
-0.018654484
-0.021853608
-0.025888978
-0.030575998
-0.035734397
-0.041179618
-0.046716868
-0.052136579
-0.057210766
-0.06169009
-0.065301485
-0.067746488
-0.068701518
-0.067825112
-0.064708549
-0.058942361
-0.050073009
-0.037593933
-0.020927682
0.00061018922
0.027880905
0.062058621
0.10491324
0.15945121
0.23152788
0.33385135
0.49409211
0.79001627
1.3837782
1.1587279e-05
-0.00013127478
-0.00044346617
-0.00084602437
-0.001264428
-0.0016532285
-0.0019815707
-0.0022306346
-0.0023897903
-0.0024533356
-0.0024183321
-0.0022833243
-0.0020477426
-0.0017118308
-0.0012769458
-0.00074609555
-0.00012459047
0.00057930231
0.0013538041
0.002183259
0.0030480378
0.0039247812
0.0047870061
0.0056061179
0.006352783
0.0069986118
0.007518043
0.0078902849
0.0081011456
0.0081445832
0.008023824
0.0077519574
0.0073519803
0.0068563516
0.006305954
0.0057483263
0.0052384662
0.0048326304
0.0045925504
0.0045539919
0.0001535245
8.2567257e-06
-0.00024189592
-0.00055075257
-0.00087291015
-0.0011740593
-0.0014299715
-0.0016244772
-0.0017472189
-0.0017917541
-0.001754141
-0.0016320146
-0.00142412
-0.0011302254
-0.00075132207
-0.00029001565
0.00024898557
0.00085837271
0.0015278137
0.0022436752
0.0029889561
0.0037436284
0.0044849929
0.0051887045
0.0058299193
0.0063847418
0.0068318424
0.0071541166
0.0073402356
0.0073859332
0.0072948872
0.0070791067
0.0067587886
0.0063616808
0.0059219958
0.0054787567
0.005073142
0.0047484604
0.0045498409
0.0045146053
0.00047179339
0.00025369778
-2.0934635e-06
-0.00028118988
-0.00056150299
-0.00081847892
-0.0010343461
-0.0011970553
-0.0012984016
-0.001332867
-0.001296734
-0.0011874704
-0.0010034355
-0.00074387394
-0.00040913205
-1.0269428e-06
0.0004767038
0.0010179445
0.0016138051
0.0022523562
0.0029185937
0.0035945605
0.0042598925
0.0048925925
0.0054701259
0.005970767
0.0063751069
0.0066676019
0.0068380197
0.0068826271
0.0068049706
0.0066161458
0.0063345064
0.0059848465
0.0055971392
0.0052048413
0.0048425865
0.0045446014
0.0043471676
0.0042800135
0.00089341738
0.00056173169
0.00026122729
-2.4579387e-05
-0.00029527172
-0.00053446705
-0.00073062935
-0.0008765561
-0.00096717358
-0.00099878741
-0.0009685863
-0.0008742846
-0.00071401056
-0.0004864252
-0.00019101924
0.00017146587
0.00059855041
0.0010855239
0.0016250108
0.0022066645
0.0028170571
0.0034397417
0.0040557527
0.0046442959
0.0051838064
0.0056532704
0.0060337246
0.0063098067
0.0064712065
0.0065138521
0.0064406762
0.0062618376
0.0059943354
0.005661035
0.0052892042
0.0049087164
0.0045502487
0.0042437664
0.0040158355
0.0038802783
0.0013442719
0.00088391502
0.00052112516
0.00021084895
-6.6940853e-05
-0.00030302374
-0.00049176827
-0.00063093001
-0.0007188469
-0.00075395213
-0.00073458424
-0.00065884255
-0.00052464432
-0.00032997938
-7.3313924e-05
0.00024590094
0.00062666328
0.0010658504
0.0015577041
0.0020934369
0.0026610257
0.0032452438
0.0038280167
0.0043890982
0.0049070979
0.0053608113
0.0057307658
0.0060008445
0.0061598178
0.0062025974
0.0061310439
0.005954194
0.0056878323
0.0053534112
0.004976389
0.0045842835
0.0042053275
0.0038667548
0.0035841858
0.0033603773
0.0017712125
0.0011771166
0.00074297297
0.000397
0.00010034494
-0.00014396413
-0.00033567887
-0.00047727578
-0.00057043825
-0.0006157393
-0.00061268987
-0.00055976465
-0.00045460796
-0.00029442136
-7.6485323e-05
0.00020122467
0.00053936806
0.00093656298
0.0013887608
0.001888737
0.0024257698
0.0029855855
0.0035506108
0.0041006126
0.004613704
0.0050677039
0.0054417615
0.0057181062
0.0058837298
0.00593179
0.005862531
0.0056835737
0.005409499
0.0050607191
0.0046616652
0.0042386871
0.0038191513
0.0034296395
0.0030772631
0.0027495897
0.0021290088
0.0014027952
0.00089386696
0.00050573927
0.00018235817
-7.8639181e-05
-0.00028184285
-0.00043406361
-0.00054007567
-0.00060242064
-0.00062164941
-0.00059648777
-0.00052417157
-0.00040095846
-0.0002227679
1.4086592e-05
0.00031210891
0.00067182029
0.0010910028
0.0015640531
0.0020815236
0.0026299507
0.0031919921
0.0037470159
0.0042720841
0.0047433484
0.0051377725
0.0054350387
0.005619441
0.005681522
0.0056192086
0.0054382551
0.0051519047
0.0047797639
0.0043458852
0.0038765422
0.0033997574
0.0029433028
0.0025073466
0.0020652452
0.0023790872
0.0015261944
0.00094290995
0.00050986371
0.00015515126
-0.00012842128
-0.00034981071
-0.00051973823
-0.00064572572
-0.00073200591
-0.00077993687
-0.00078828985
-0.00075369895
-0.00067128525
-0.0005354079
-0.00034051137
-8.2036681e-05
0.00024264549
0.00063333441
0.0010861984
0.0015931567
0.0021415674
0.0027142091
0.0032897967
0.0038439173
0.0043504578
0.004783432
0.0051190697
0.0053379656
0.0054270294
0.0053809508
0.0052029288
0.0049045238
0.0045046027
0.0040273473
0.0034999194
0.0029524163
0.00241557
0.0018845511
0.0013212815
0.0024876367
0.00151562
0.00086079837
0.00038248884
-5.9575511e-06
-0.00031619683
-0.00056116941
-0.0007551024
-0.00090790143
-0.0010251718
-0.001108799
-0.0011573514
-0.0011666331
-0.0011304085
-0.0010412523
-0.00089150211
-0.00067428825
-0.00038460153
-2.0346097e-05
0.00041668866
0.00092002608
0.00147803
0.0020736701
0.0026849329
0.0032856552
0.0038469521
0.0043391438
0.0047340481
0.0050074334
0.0051413614
0.0051260995
0.0049612928
0.0046561739
0.0042286998
0.0037035289
0.0031095578
0.0024802856
0.0018511104
0.0012136844
0.0005192586
0.0024241822
0.0013419903
0.00061996695
9.7568521e-05
-0.00032562451
-0.00066548728
-0.0009386361
-0.0011624404
-0.0013488442
-0.0015045102
-0.0016315668
-0.0017281218
-0.0017889102
-0.0018061054
-0.0017702527
-0.0016713126
-0.0014997962
-0.0012479625
-0.00091102696
-0.00048832297
1.5683707e-05
0.00059077244
0.0012203534
0.0018818218
0.0025471727
0.0031843682
0.0037593278
0.0042384293
0.004591319
0.0047937414
0.0048300329
0.0046949103
0.0043942403
0.0039445574
0.0033711039
0.0027052232
0.0019850836
0.0012524269
0.00049653185
-0.00034175312
0.0021609455
0.00097866989
0.00019481635
-0.00036954829
-0.000827666
-0.0011994581
-0.0015049652
-0.0017643796
-0.0019913762
-0.0021933912
-0.0023725367
-0.0025262216
-0.0026478845
-0.0027278755
-0.0027544553
-0.0027149077
-0.002596764
-0.002389116
-0.0020839784
-0.001677652
-0.0011719877
-0.00057511082
9.7283344e-05
0.00082239368
0.0015705152
0.002306259
0.0029905313
0.0035832087
0.0040463417
0.004347578
0.0044634058
0.004381768
0.0041036337
0.003643136
0.0030258475
0.002286062
0.0014678373
0.00062096891
-0.00026681078
-0.00126536
0.0016727299
0.00040154105
-0.00043800706
-0.001041637
-0.0015344042
-0.0019401308
-0.0022820651
-0.0025829438
-0.002857911
-0.0031149417
-0.0033559186
-0.0035773555
-0.0037712014
-0.0039257731
-0.0040267956
-0.0040585603
-0.004005213
-0.0038521651
-0.0035875997
-0.0032040092
-0.0026996863
-0.0020802422
-0.0013592062
-0.00055898779
0.00028941726
0.0011473268
0.0019701976
0.0027103928
0.0033207629
0.0037587544
0.0039905956
0.0039950081
0.0037658897
0.0033133806
0.0026626199
0.001851031
0.00092969827
-4.1724619e-05
-0.0010764695
-0.0022559585
0.00093713482
-0.00041073104
-0.001299236
-0.0019390854
-0.0024660175
-0.002907606
-0.0032901093
-0.0036385649
-0.0039693766
-0.004290882
-0.0046045842
-0.0049059661
-0.0051853477
-0.0054288459
-0.0056194262
-0.0057380753
-0.0057651228
-0.0056817242
-0.0054714932
-0.0051222308
-0.0046276943
-0.0039895184
-0.0032182054
-0.0023346339
-0.0013702488
-0.00036660519
0.0006261597
0.0015520462
0.0023530751
0.0029741134
0.0033681859
0.0035016091
0.0033581969
0.0029416818
0.0022753021
0.0013993072
0.00037278163
-0.00073283337
-0.0019312877
-0.003316865
-6.5018483e-05
-0.0014763021
-0.0024065332
-0.0030793455
-0.0036398727
-0.0041192662
-0.0045466052
-0.0049490177
-0.0053440123
-0.0057401819
-0.0061385743
-0.006533581
-0.0069138261
-0.007263124
-0.0075615085
-0.0077863821
-0.0079138323
-0.0079201519
-0.0077835709
-0.0074861759
-0.0070159753
-0.006369086
-0.0055515668
-0.0045812332
-0.0034886583
-0.0023173523
-0.0011227436
3.0285462e-05
0.0010714251
0.0019304336
0.0025436972
0.0028611219
0.0028523778
0.0025112697
0.0018566837
0.00093068252
-0.0001989735
-0.0014470156
-0.0028273051
-0.0044485866
-0.0013491494
-0.0028096869
-0.0037740161
-0.0044763849
-0.005069867
-0.005588984
-0.0060654512
-0.0065283114
-0.0069960821
-0.0074775813
-0.0079734112
-0.0084769007
-0.0089749988
-0.0094491989
-0.0098765076
-0.010230527
-0.010482723
-0.010603933
-0.010566165
-0.010344672
-0.0099203032
-0.0092820605
-0.0084296245
-0.0073757947
-0.006148393
-0.0047913256
-0.0033643638
-0.0019412353
-0.00060571732
0.00055436421
0.0014549657
0.0020247613
0.0022140046
0.0020016307
0.001398356
0.00044599215
-0.00077887501
-0.0021750706
-0.0037561315
-0.0056470244
-0.0029263524
-0.0044213005
-0.0054118089
-0.0061401824
-0.0067658215
-0.0073263755
-0.0078560203
-0.0083855791