/*--------------------------------*- C++ -*----------------------------------*\
  =========                 |
  \\      /  F ield         | OpenFOAM: The Open Source CFD Toolbox
   \\    /   O peration     | Website:  https://openfoam.org
    \\  /    A nd           | Version:  7
     \\/     M anipulation  |
\*---------------------------------------------------------------------------*/
FoamFile
{
    version     2.0;
    format      ascii;
    class       surfaceScalarField;
    location    "44";
    object      phi_0;
}
// * * * * * * * * * * * * * * * * * * * * * * * * * * * * * * * * * * * * * //

dimensions      [0 3 -1 0 0 0 0];

internalField   nonuniform List<scalar> 
45600
(
2.7519174e-07
-2.8221729e-07
-7.8841544e-11
4.0334571e-07
-1.2812894e-07
-2.4782594e-11
1.325683e-07
2.707839e-07
-6.6767053e-12
-5.6230354e-07
6.9487237e-07
-1.4693372e-12
-1.6393079e-06
1.0769998e-06
3.6132583e-12
-3.0276201e-06
1.3883055e-06
7.0809483e-12
-4.652463e-06
1.6248352e-06
9.3658061e-12
-6.4450953e-06
1.7926224e-06
1.0972376e-11
-8.3454226e-06
1.9003143e-06
1.2102004e-11
-1.0301443e-05
1.9560062e-06
1.2850743e-11
-1.2267403e-05
1.9659468e-06
1.3280347e-11
-1.4201582e-05
1.9341678e-06
1.3419724e-11
-1.6064239e-05
1.8626458e-06
1.3274236e-11
-1.7816028e-05
1.751776e-06
1.2838612e-11
-1.9417055e-05
1.6010139e-06
1.210467e-11
-2.0826661e-05
1.409592e-06
1.1066966e-11
-2.2003912e-05
1.1772397e-06
9.7250095e-12
-2.2908773e-05
9.0485618e-07
8.0787891e-12
-2.350387e-05
5.9509533e-07
6.1198628e-12
-2.37567e-05
2.5282851e-07
3.8536697e-12
-2.3642139e-05
-1.1456724e-07
1.3277876e-12
-2.3145012e-05
-4.9713525e-07
-1.3638497e-12
-2.2262583e-05
-8.824297e-07
-4.1032438e-12
-2.1006627e-05
-1.2559426e-06
-6.7766433e-12
-1.9404867e-05
-1.6017359e-06
-9.2953786e-12
-1.7501552e-05
-1.9032961e-06
-1.1588652e-11
-1.5356966e-05
-2.1445858e-06
-1.3533483e-11
-1.304576e-05
-2.3112161e-06
-1.4929786e-11
-1.0654114e-05
-2.3916416e-06
-1.556859e-11
-8.2758264e-06
-2.3782487e-06
-1.5367284e-11
-6.0075603e-06
-2.2682105e-06
-1.4436426e-11
-3.9435094e-06
-2.0640255e-06
-1.2956024e-11
-2.1697702e-06
-1.7737706e-06
-1.0940223e-11
-7.585527e-07
-1.4112672e-06
-8.1795183e-12
2.38182e-07
-9.9672834e-07
-4.6892073e-12
7.9653896e-07
-5.582782e-07
-1.3154545e-12
9.2931632e-07
-1.3270483e-07
2.006991e-12
7.0564507e-07
2.2362002e-07
5.3797786e-12
2.9050149e-07
4.1498134e-07
8.7875179e-12
2.9039164e-07
2.0937005e-12
1.3290121e-07
-4.1509628e-07
-2.2172367e-11
-3.0166988e-07
3.064555e-07
-1.4030008e-11
-1.6153898e-06
1.5845161e-06
-1.2275719e-11
-3.8746987e-06
2.9541947e-06
-1.3065504e-11
-7.0073357e-06
4.20965e-06
-1.4260912e-11
-1.0879748e-05
5.2607314e-06
-1.5818336e-11
-1.5335163e-05
6.0802671e-06
-1.725187e-11
-2.0216001e-05
6.673481e-06
-1.8276966e-11
-2.5374059e-05
7.0583943e-06
-1.8854457e-11
-3.0673272e-05
7.2552395e-06
-1.8999054e-11
-3.598854e-05
7.2812329e-06
-1.872496e-11
-4.120283e-05
7.1484736e-06
-1.8046869e-11
-4.6203974e-05
6.8638075e-06
-1.6979742e-11
-5.0882102e-05
6.4299228e-06
-1.5537174e-11
-5.5128234e-05
5.8471633e-06
-1.3734185e-11
-5.883432e-05
5.115692e-06
-1.1586732e-11
-6.1894805e-05
4.2377304e-06
-9.1043621e-12
-6.4209614e-05
3.2196643e-06
-6.2833393e-12
-6.5688365e-05
2.0738467e-06
-3.1482522e-12
-6.6255473e-05
8.199425e-07
2.2938234e-13
-6.5855982e-05
-5.1404945e-07
3.7343261e-12
-6.4460803e-05
-1.8923162e-06
7.2876697e-12
-6.2072475e-05
-3.2707808e-06
1.0744155e-11
-5.8729094e-05
-4.5993586e-06
1.4035289e-11
-5.4507088e-05
-5.8237697e-06
1.7092861e-11
-4.9521913e-05
-6.888473e-06
1.9771275e-11
-4.3926391e-05
-7.7400953e-06
2.1842753e-11
-3.7906434e-05
-8.3311825e-06
2.3100203e-11
-3.1674136e-05
-8.6239976e-06
2.3503087e-11
-2.5458417e-05
-8.5940483e-06
2.3198543e-11
-1.9493639e-05
-8.2330234e-06
2.2331591e-11
-1.4006725e-05
-7.5508965e-06
2.0820848e-11
-9.2032552e-06
-6.5771763e-06
1.8418235e-11
-5.2528618e-06
-5.3616812e-06
1.5116462e-11
-2.2739879e-06
-3.9757254e-06
1.1447575e-11
-3.1733608e-07
-2.5150341e-06
8.0357171e-12
6.5700267e-07
-1.1069744e-06
4.7505227e-12
8.0369864e-07
7.714709e-08
3.5816406e-12
4.1794105e-07
8.0092672e-07
4.5121315e-12
7.0824922e-07
-3.0537774e-12
-2.7357785e-07
-1.4150616e-07
-1.2380345e-11
-1.6274717e-06
1.6603548e-06
-7.1503863e-12
-4.2893931e-06
4.2464451e-06
-8.4871042e-12
-8.2746671e-06
6.939477e-06
-7.0888555e-12
-1.3474408e-05
9.4093979e-06
-5.1324137e-12
-1.9708714e-05
1.1495041e-05
-4.0757428e-12
-2.6765745e-05
1.3137301e-05
-3.397657e-12
-3.4426613e-05
1.4334351e-05
-2.8237419e-12
-4.2478627e-05
1.5110413e-05
-2.3353528e-12
-5.0720447e-05
1.5497064e-05
-1.9060037e-12
-5.8962292e-05
1.5523081e-05
-1.5034082e-12
-6.7023688e-05
1.520987e-05
-1.1060129e-12
-7.4730532e-05
1.4570649e-05
-7.0093498e-13
-8.1912721e-05
1.3612111e-05
-2.8003782e-13
-8.8403151e-05
1.2337594e-05
1.5443986e-13
-9.4038478e-05
1.0751024e-05
5.8468988e-13
-9.8661796e-05
8.8610518e-06
9.8502566e-13
-0.0001021271
6.6849601e-06
1.3429587e-12
-0.00010430523
4.2519703e-06
1.6668625e-12
-0.00010509101
1.6057137e-06
1.9745608e-12
-0.00010441065
-1.1944111e-06
2.2714971e-12
-0.00010222946
-4.0734936e-06
2.5154964e-12
-9.8558513e-05
-6.9417142e-06
2.6486765e-12
-9.3459998e-05
-9.6978837e-06
2.6600169e-12
-8.7050399e-05
-1.2233399e-05
2.6152391e-12
-7.9501015e-05
-1.4437881e-05
2.6147539e-12
-7.1035298e-05
-1.6205803e-05
2.6911351e-12
-6.1922723e-05
-1.7443714e-05
2.7483017e-12
-5.2469127e-05
-1.8077563e-05
2.6497953e-12
-4.3003665e-05
-1.805954e-05
2.4098371e-12
-3.386284e-05
-1.7373922e-05
2.2612537e-12
-2.5372267e-05
-1.6041506e-05
2.4399328e-12
-1.7826901e-05
-1.4122481e-05
2.8678552e-12
-1.147037e-05
-1.1718105e-05
3.1548281e-12
-6.4738074e-06
-8.9722727e-06
3.0596901e-12
-2.9140369e-06
-6.0749424e-06
2.7870795e-12
-7.5128811e-07
-3.2698949e-06
2.6691519e-12
1.9429996e-07
-8.6845897e-07
3.6461015e-12
2.6553997e-07
7.2982493e-07
5.7743756e-12
9.7378123e-07
8.7076786e-13
-7.4584364e-07
6.0435043e-07
-1.2674088e-11
-3.179631e-06
4.0941423e-06
-1.222567e-12
-7.3461016e-06
8.4129201e-06
-6.6897881e-12
-1.3163057e-05
1.2756438e-05
-6.0601772e-12
-2.0455821e-05
1.6702168e-05
-3.4478111e-12
-2.8992639e-05
2.0031864e-05
-2.1220782e-12
-3.8513883e-05
2.2658546e-05
-1.2570842e-12
-4.8752685e-05
2.4573152e-05
-4.8146941e-13
-5.9446992e-05
2.580472e-05
1.6369008e-13
-7.0344844e-05
2.6394917e-05
6.9076901e-13
-8.1205138e-05
2.6383377e-05
1.1315684e-12
-9.1795991e-05
2.5800724e-05
1.501303e-12
-0.00010189242
2.4667079e-05
1.8064684e-12
-0.00011127464
2.2994325e-05
2.0545101e-12
-0.0001197278
2.0790741e-05
2.2555759e-12
-0.00012704362
1.8066849e-05
2.4124822e-12
-0.00013302417
1.4841604e-05
2.5081e-12
-0.00013748743
1.1148219e-05
2.5094311e-12
-0.00014027452
7.0390649e-06
2.3936541e-12
-0.00014125806
2.589243e-06
2.1803593e-12
-0.00014035079
-2.1017001e-06
1.9297286e-12
-0.0001375144
-6.9098834e-06
1.6467238e-12
-0.00013276703
-1.1689066e-05
1.3245524e-12
-0.00012618931
-1.6275589e-05
9.1392017e-13
-0.00011792788
-2.0494824e-05
3.9535298e-13
-0.00010819592
-2.4169877e-05
-1.4445349e-13
-9.7269895e-05
-2.713186e-05
-5.3657239e-13
-8.5482438e-05
-2.9231169e-05
-6.7364294e-13
-7.3210954e-05
-3.0348992e-05
-6.380031e-13
-6.0862244e-05
-3.0408193e-05
-6.2782317e-13
-4.8853429e-05
-2.9382752e-05
-6.939893e-13
-3.7589917e-05
-2.7305108e-05
-5.8292667e-13
-2.7441361e-05
-2.42711e-05
3.3227829e-14
-1.8716721e-05
-2.0442688e-05
1.100482e-12
-1.1639427e-05
-1.6049422e-05
2.1027481e-12
-6.3235138e-06
-1.1390782e-05
2.6337607e-12
-2.7515302e-06
-6.8419662e-06
2.9907167e-12
-7.5720559e-07
-2.8629072e-06
3.6985165e-12
-9.5387223e-09
-1.782884e-08
4.5818824e-12
9.6427537e-07
3.8910494e-12
-1.2279672e-06
1.8323321e-06
-1.4234045e-11
-4.7881096e-06
7.6542812e-06
4.7328355e-12
-1.0521543e-05
1.4146359e-05
-5.8429514e-12
-1.8214336e-05
2.0449235e-05
-6.9630252e-12
-2.760394e-05
2.6091777e-05
-4.5902231e-12
-3.8396299e-05
3.0824229e-05
-3.8644251e-12
-5.0283055e-05
3.4545309e-05
-3.5338648e-12
-6.2954783e-05
3.7244884e-05
-3.0849936e-12
-7.6109038e-05
3.8958977e-05
-2.6428866e-12
-8.9453776e-05
3.9739655e-05
-2.2279803e-12
-0.00010270748
3.9637079e-05
-1.81302e-12
-0.00011559753
3.8690787e-05
-1.3911971e-12
-0.00012785835
3.6927895e-05
-9.6906962e-13
-0.0001392302
3.4366181e-05
-5.5459177e-13
-0.00014945975
3.1020288e-05
-1.4694293e-13
-0.00015830248
2.6909572e-05
2.6758897e-13
-0.00016552725
2.2066366e-05
6.9945277e-13
-0.00017092275
1.654373e-05
1.1323473e-12
-0.00017430559
1.0421917e-05
1.5231147e-12
-0.00017552935
3.813005e-06
1.8346685e-12
-0.00017449413
-3.1369354e-06
2.0723636e-12
-0.00017115589
-1.0248139e-05
2.2730899e-12
-0.00016553481
-1.7310152e-05
2.4842243e-12
-0.00015772191
-2.4088477e-05
2.6887173e-12
-0.00014788319
-3.0333514e-05
2.7946667e-12
-0.00013626058
-3.5792474e-05
2.7247078e-12
-0.00012316896
-4.022352e-05
2.5364773e-12
-0.00010898874
-4.3411442e-05
2.4236593e-12
-9.4153835e-05
-4.5183912e-05
2.5342916e-12
-7.9134863e-05
-4.5427105e-05
2.7719868e-12
-6.4418034e-05
-4.4099504e-05
2.8514406e-12
-5.048033e-05
-4.1242816e-05
2.6468256e-12
-3.7762144e-05
-3.6989394e-05
2.4426546e-12
-2.6638873e-05
-3.1566065e-05
2.6405903e-12
-1.7393207e-05
-2.5295065e-05
3.1880213e-12
-1.0189888e-05
-1.8593977e-05
3.6883932e-12
-5.0546891e-06
-1.1977109e-05
4.1311943e-12
-1.8598422e-06
-6.0578301e-06
3.5011298e-12
-3.2225314e-07
-1.555459e-06
4.5572355e-13
6.4203648e-07
6.0165345e-12
-1.6931701e-06
3.5255181e-06
-1.6760433e-11
-6.3714119e-06
1.2332515e-05
1.0120676e-11
-1.3671454e-05
2.1446408e-05
-4.8975995e-12
-2.323406e-05
3.0011848e-05
-7.085059e-12
-3.4695244e-05
3.7552964e-05
-4.3824016e-12
-4.7689823e-05
4.3818812e-05
-3.8249909e-12
-6.1857523e-05
4.8713016e-05
-3.7026365e-12
-7.6848065e-05
5.2235433e-05
-3.3461703e-12
-9.2323867e-05
5.4434784e-05
-2.9579368e-12
-0.00010796027
5.5376059e-05
-2.5876237e-12
-0.00012344397
5.5120776e-05
-2.204637e-12
-0.0001384707
5.3717515e-05
-1.7959493e-12
-0.00015274323
5.120043e-05
-1.3627594e-12
-0.00016597054
4.7593498e-05
-9.1827466e-13
-0.00017786874
4.2918491e-05
-4.8008032e-13
-0.00018816405
3.7204882e-05
-5.2883051e-14
-0.0001965979
3.0500201e-05
3.8010334e-13
-0.00020293385
2.2879673e-05
8.3736556e-13
-0.00020696615
1.4454224e-05
1.3085457e-12
-0.0002085293
5.376167e-06
1.7455561e-12
-0.00020750811
-4.1581081e-06
2.0913624e-12
-0.00020384767
-1.3908586e-05
2.3353021e-12
-0.00019756247
-2.3595379e-05
2.5281773e-12
-0.00018874398
-3.2906988e-05
2.74556e-12
-0.0001775659
-4.1511582e-05
2.9907079e-12
-0.00016428625
-4.9072083e-05
3.153809e-12
-0.00014924549
-5.5264257e-05
3.111633e-12
-0.00013285989
-5.9797075e-05
2.9003641e-12
-0.0001156097
-6.2434182e-05
2.7527288e-12
-9.80218e-05
-6.3015035e-05
2.8803245e-12
-8.0647241e-05
-6.1474003e-05
3.1952554e-12
-6.4034146e-05
-5.785581e-05
3.3471798e-12
-4.8697402e-05
-5.2326115e-05
3.1558643e-12
-3.5086902e-05
-4.5176661e-05
2.8892844e-12
-2.355672e-05
-3.6825351e-05
2.9172044e-12
-1.4337891e-05
-2.7812789e-05
3.4676689e-12
-7.5174541e-06
-1.8797458e-05
4.6860918e-12
-3.0267025e-06
-1.0548577e-05
3.7306845e-12
-6.424981e-07
-3.9397019e-06
-1.9874443e-12
-4.7285075e-10
8.4209795e-12
-2.1329389e-06
5.6584755e-06
-1.954775e-11
-7.8910795e-06
1.8090641e-05
1.4893142e-11
-1.6717408e-05
3.0272743e-05
-4.1655979e-12
-2.8105743e-05
4.1400193e-05
-7.1456279e-12
-4.1585091e-05
5.1032317e-05
-3.9485814e-12
-5.6714139e-05
5.8947861e-05
-3.4346892e-12
-7.3078283e-05
6.5077164e-05
-3.4460467e-12
-9.0287092e-05
6.9444248e-05
-3.1321031e-12
-0.00010797133
7.2119023e-05
-2.7595707e-12
-0.00012577927
7.3184008e-05
-2.4080859e-12
-0.00014337274
7.2714249e-05
-2.0523479e-12
-0.00016042342
7.076819e-05
-1.6797177e-12
-0.00017661019
6.7387201e-05
-1.2812406e-12
-0.00019161814
6.260145e-05
-8.5438181e-13
-0.00020513952
5.643987e-05
-4.1475611e-13
-0.00021687684
4.8942212e-05
1.0359847e-14
-0.00022654815
4.0171506e-05
4.0878986e-13
-0.00023389407
3.0225588e-05
7.9732233e-13
-0.00023868651
1.9246653e-05
1.2043373e-12
-0.00024073843
7.4280883e-06
1.6313707e-12
-0.00023991437
-4.982152e-06
2.0282837e-12
-0.00023614101
-1.7681922e-05
2.3267028e-12
-0.00022941746
-3.0318935e-05
2.4861143e-12
-0.00021982416
-4.250032e-05
2.5676259e-12
-0.00020752994
-5.3805836e-05
2.6859018e-12
-0.00019279611
-6.3805899e-05
2.879956e-12
-0.00017597669
-7.2083626e-05
3.0331372e-12
-0.00015751361
-7.8260116e-05
2.9754822e-12
-0.00013792611
-8.2021711e-05
2.7123372e-12
-0.00011779374
-8.3147485e-05
2.5076673e-12
-9.7732997e-05
-8.1534806e-05
2.6329989e-12
-7.8368145e-05
-7.7220614e-05
3.0163928e-12
-6.0297833e-05
-7.0396323e-05
3.2711913e-12
-4.4059479e-05
-6.1414984e-05
3.1423318e-12
-3.009443e-05
-5.0790482e-05
2.8182631e-12
-1.8717298e-05
-3.9189997e-05
3.1189978e-12
-1.0093056e-05
-2.7421673e-05
4.9353823e-12
-4.2252916e-06
-1.6416297e-05
3.8643878e-12
-9.5847554e-07
-7.2065146e-06
-4.6139779e-12
-9.5897517e-07
1.041263e-11
-2.5450547e-06
8.2035534e-06
-2.2335382e-11
-9.3288487e-06
2.4874414e-05
1.9153625e-11
-1.9615366e-05
4.0559265e-05
-3.7028666e-12
-3.2756851e-05
5.4541689e-05
-7.414963e-12
-4.8175887e-05
6.645136e-05
-3.7443308e-12
-6.5354092e-05
7.612607e-05
-3.2795465e-12
-8.3822142e-05
8.3545216e-05
-3.4415275e-12
-0.00010315063
8.8772734e-05
-3.2008627e-12
-0.00012294162
9.1910026e-05
-2.8678099e-12
-0.00014282096
9.3063347e-05
-2.5407327e-12
-0.00016243134
9.2324642e-05
-2.2009438e-12
-0.00018142688
8.9763726e-05
-1.8486417e-12
-0.00019946925
8.542957e-05
-1.4813029e-12
-0.00021622605
7.9358244e-05
-1.0835173e-12
-0.00023137131
7.1585132e-05
-6.4659011e-13
-0.00024458833
6.2159237e-05
-1.8765738e-13
-0.0002555746
5.1157785e-05
2.5786021e-13
-0.00026404868
3.8699669e-05
6.6662944e-13
-0.00026975868
2.4956647e-05
1.0508334e-12
-0.00027249211
1.01615e-05
1.4472586e-12
-0.00027208669
-5.3875676e-06
1.8719359e-12
-0.00026844173
-2.1326868e-05
2.2934908e-12
-0.00026152974
-3.7230896e-05
2.6029275e-12
-0.00025140738
-5.2622679e-05
2.738033e-12
-0.00023822498
-6.6988271e-05
2.7591679e-12
-0.00022223366
-7.9797268e-05
2.8174286e-12
-0.00020378866
-9.0528629e-05
2.9953722e-12
-0.00018334762
-9.8701098e-05
3.1780911e-12
-0.00016146238
-0.00010390689
3.1499874e-12
-0.00013876325
-0.00010584663
2.8784764e-12
-0.00011593536
-0.00010436278
2.6435484e-12
-9.368759e-05
-9.9468453e-05
2.7599785e-12
-7.2715453e-05
-9.1368423e-05
3.1667028e-12
-5.3660716e-05
-8.046963e-05
3.3934081e-12
-3.707105e-05
-6.7380127e-05
3.09177e-12
-2.3363954e-05
-5.2897161e-05
3.140322e-12
-1.2799336e-05
-3.7986333e-05
5.2113233e-12
-5.4648796e-06
-2.3750733e-05
3.7655307e-12
-1.2772471e-06
-1.1394115e-05
-7.461434e-12
-2.2362405e-06
1.2922974e-11
-2.9284812e-06
1.1132062e-05
-2.5045225e-11
-1.0673672e-05
3.2619581e-05
2.2984726e-11
-2.2336176e-05
5.2221771e-05
-3.4037121e-12
-3.7135977e-05
6.9341499e-05
-7.7894173e-12
-5.439411e-05
8.3709501e-05
-3.6580549e-12
-7.3517626e-05
9.5249593e-05
-3.2171219e-12
-9.3984298e-05
0.00010401189
-3.503667e-12
-0.00011532796
0.0001101164
-3.3331731e-12
-0.00013712517
0.00011370724
-3.0518367e-12
-0.00015898353
0.00011492171
-2.7628655e-12
-0.00018053178
0.00011387289
-2.440627e-12
-0.00020141215
0.0001106441
-2.092475e-12
-0.00022127503
0.00010529246
-1.7345622e-12
-0.00023977618
9.7859395e-05
-1.3632918e-12
-0.00025657638
8.8385325e-05
-9.5749132e-13
-0.00027134347
7.6926323e-05
-5.0140637e-13
-0.00028375659
6.3570917e-05
-9.9171688e-15
-0.00029351243
4.8455522e-05
4.7465368e-13
-0.00030033322
3.1777437e-05
9.1333014e-13
-0.00030397636
1.3804629e-05
1.3036633e-12
-0.00030424558
-5.1183665e-06
1.6857279e-12
-0.00030100299
-2.4569472e-05
2.12937e-12
-0.00029418252
-4.4051341e-05
2.5767763e-12
-0.00028380324
-6.3001926e-05
2.9126121e-12
-0.00026998219
-8.0809308e-05
3.0411555e-12
-0.00025294549
-9.6834009e-05
3.0104355e-12
-0.00023303602
-0.00011043816
3.0044947e-12
-0.00021071603
-0.0001210211
3.1528626e-12
-0.00018656268
-0.0001280602
3.3504272e-12
-0.00016125481
-0.00013115444
3.3466607e-12
-0.00013554995
-0.00013006763
3.080394e-12
-0.00011025149
-0.00012476699
2.8483893e-12
-8.6167424e-05
-0.00011545255
2.9840221e-12
-6.4063747e-05
-0.00010257327
3.3130593e-12
-4.4616645e-05
-8.6827161e-05
3.2273195e-12
-2.8368511e-05
-6.9145291e-05
3.3334899e-12
-1.5693159e-05
-5.0661732e-05
5.6859981e-12
-6.7752312e-06
-3.2668682e-05
3.6534408e-12
-1.6070344e-06
-1.656229e-05
-1.0507051e-11
-3.8432844e-06
1.5510518e-11
-3.2816996e-06
1.4413791e-05
-2.7634218e-11
-1.191587e-05
4.1253728e-05
2.641386e-11
-2.4855511e-05
6.5161416e-05
-3.2132812e-12
-4.1199919e-05
8.5685914e-05
-8.2120243e-12
-6.017631e-05
0.0001026859
-3.6537697e-12
-8.1122248e-05
0.00011619554
-3.2148377e-12
-0.0001034663
0.00012635595
-3.5906656e-12
-0.00012670888
0.00013335898
-3.4653102e-12
-0.00015040464
0.00013740301
-3.2275351e-12
-0.00017414714
0.0001386642
-2.9862265e-12
-0.00019755594
0.0001372817
-2.7000914e-12
-0.00022026669
0.00013335484
-2.3650025e-12
-0.00024192389
0.00012694967
-2.0022258e-12
-0.00026217668
0.00011811219
-1.6306485e-12
-0.00028067717
0.00010688582
-1.2483712e-12
-0.00029708131
9.3330452e-05
-8.3074261e-13
-0.00031105197
7.754157e-05
-3.5358473e-13
-0.00032226415
5.9667715e-05
1.7598754e-13
-0.0003304122
3.9925507e-05
7.0921797e-13
-0.00033521897
1.8611405e-05
1.1753295e-12
-0.00033644713
-3.8902174e-06
1.5439261e-12
-0.00033391174
-2.7104887e-05
1.9501424e-12
-0.00032749598
-5.0467119e-05
2.3896497e-12
-0.00031716689
-7.3331005e-05
2.8527198e-12
-0.00030299229
-9.4983865e-05
3.2134845e-12
-0.00028515681
-0.00011466947
3.3381689e-12
-0.00026397517
-0.00013161982
3.2584982e-12
-0.00023990064
-0.0001450957
3.1843196e-12
-0.00021352587
-0.000154435
3.2851917e-12
-0.00018557379
-0.00015910647
3.4657739e-12
-0.00015687656
-0.0001587648
3.4581684e-12
-0.00012834161
-0.00015330193
3.2097486e-12
-0.00010090608
-0.00014288815
3.0410479e-12
-7.5482504e-05
-0.0001279969
3.1355276e-12
-5.2901152e-05
-0.00010940848
3.0807446e-12
-3.3855098e-05
-8.8191304e-05
3.4182945e-12
-1.8854774e-05
-6.5662061e-05
6.3068186e-12
-8.1982662e-06
-4.3325217e-05
3.6563864e-12
-1.9611673e-06
-2.2799384e-05
-1.3770424e-11
-5.8044646e-06
1.8192053e-11
-3.6023038e-06
1.8016125e-05
-3.0059453e-11
-1.3044872e-05
5.069627e-05
2.9433528e-11
-2.7149288e-05
7.9265838e-05
-3.1175719e-12
-4.4907169e-05
0.0001034438
-8.6603402e-12
-6.5461505e-05
0.00012324023
-3.7160501e-12
-8.8087232e-05
0.00013882127
-3.284132e-12
-0.0001121688
0.00015043753
-3.7364266e-12
-0.00013717742
0.0001583676
-3.6380887e-12
-0.00016264988
0.00016287548
-3.4242725e-12
-0.00018816993
0.00016418425
-3.2208893e-12
-0.00021335264
0.00016246441
-2.9811765e-12
-0.00023783203
0.00015783423
-2.684679e-12
-0.00026125191
0.00015036955
-2.3347167e-12
-0.00028325983
0.00014012012
-1.9505444e-12
-0.00030350382
0.00012712981
-1.5552167e-12
-0.00032163166
0.00011145829
-1.1529812e-12
-0.00033729245
9.3202347e-05
-7.1828028e-13
-0.00035014039
7.2515648e-05
-2.1614588e-13
-0.0003598408
4.9625919e-05
3.5600216e-13
-0.00036607842
2.4849052e-05
9.2636801e-13
-0.00036856895
-1.39967e-06
1.3757552e-12
-0.00036707133
-2.8602515e-05
1.8532229e-12
-0.00036140637
-5.6132114e-05
2.2404727e-12
-0.00035147459
-8.3262813e-05
2.6597604e-12
-0.00033727784
-0.00010918062
3.1271484e-12
-0.0003189409
-0.00013300637
3.501609e-12
-0.00029673172
-0.00015382896
3.6198999e-12
-0.00027107725
-0.00017075019
3.4986765e-12
-0.00024257164
-0.00018294068
3.364256e-12
-0.00021197331
-0.00018970484
3.4081754e-12
-0.00018018761
-0.00019055046
3.5381876e-12
-0.0001482333
-0.00018525618
3.5086068e-12
-0.00011719274
-0.0001739287
3.3209831e-12
-8.8148962e-05
-0.00015704073
3.1518244e-12
-6.2115402e-05
-0.00013544207
2.8617851e-12
-3.9966491e-05
-0.0001103402
3.3210827e-12
-2.2377599e-05
-8.3250933e-05
6.9321868e-12
-9.7826838e-06
-5.5920137e-05
3.7415328e-12
-2.3546966e-06
-3.0227367e-05
-1.7300203e-11
-8.1591847e-06
2.1172784e-11
-3.8870511e-06
2.1903207e-05
-3.226849e-11
-1.4048661e-05
6.0857848e-05
3.2033015e-11
-2.9192053e-05
9.4409236e-05
-3.1130689e-12
-4.8215263e-05
0.00012246702
-9.1235357e-12
-7.018784e-05
0.00014521282
-3.8285885e-12
-9.4330059e-05
0.00016296349
-3.407924e-12
-0.00011998821
0.00017609568
-3.9381761e-12
-0.00014660908
0.00018498847
-3.8683567e-12
-0.00017371588
0.00018998228
-3.66853e-12
-0.00020088685
0.00019135523
-3.4831118e-12
-0.00022773708
0.00018931464
-3.2750144e-12
-0.0002539038
0.00018400096
-3.0250492e-12
-0.0002790352
0.00017550094
-2.7189379e-12
-0.00030278232
0.00016386725
-2.3508329e-12
-0.00032479396
0.00014914147
-1.9370184e-12
-0.00034471403
0.00013137837
-1.5066015e-12
-0.00036218125
0.00011066957
-1.0736711e-12
-0.00037683113
8.7165519e-05
-6.1598592e-13
-0.00038830042
6.1095192e-05
-8.8466351e-14
-0.00039623428
3.2782908e-05
5.3641853e-13
-0.00040029638
2.6624499e-06
1.2227295e-12
-0.00040018386
-2.8715008e-05
1.7518691e-12
-0.00039564404
-6.0671941e-05
2.1836211e-12
-0.00038649735
-9.2409529e-05
2.5497179e-12
-0.00037266264
-0.00012301537
2.9501488e-12
-0.00035418498
-0.00015148403
3.4050381e-12
-0.00033126379
-0.00017675012
3.7714319e-12
-0.00030427781
-0.00019773613
3.8693274e-12
-0.00027380298
-0.00021341553
3.7083024e-12
-0.00024061832
-0.00022288956
3.5208141e-12
-0.00020569522
-0.0002254736
3.4970703e-12
-0.00017016639
-0.00022078498
3.5623716e-12
-0.00013527316
-0.00020882189
3.5425132e-12
-0.00010229331
-0.00019002058
3.3286304e-12
-7.2455938e-05
-0.00016527948
2.7648284e-12
-4.6853302e-05
-0.00013594285
3.1772672e-12
-2.6361363e-05
-0.00010374287
7.5387164e-12
-1.1580435e-05
-7.0701054e-05
3.8211909e-12
-2.8033115e-06
-3.900447e-05
-2.124523e-11
-1.0962526e-05
2.4612427e-11
-4.1321163e-06
2.6035358e-05
-3.4212181e-11
-1.4914098e-05
7.1639793e-05
3.4209009e-11
-3.0957132e-05
0.00011045227
-3.1875723e-12
-5.1080654e-05
0.00014259056
-9.5969233e-12
-7.4292271e-05
0.00016842444
-3.9875553e-12
-9.9766123e-05
0.00018843734
-3.5690389e-12
-0.00012681669
0.00020314625
-4.1712606e-12
-0.0001548713
0.00021304309
-4.1398359e-12
-0.00018344394
0.00021855492
-3.9635738e-12
-0.0002121115
0.0002200228
-3.7913543e-12
-0.00024049344
0.00021769659
-3.593557e-12
-0.00026823493
0.00021174245
-3.3682677e-12
-0.00029499352
0.00020225953
-3.1083706e-12
-0.00032042905
0.00018930278
-2.7909608e-12
-0.00034419641
0.00017290883
-2.4007373e-12
-0.00036594074
0.00015312271
-1.9496412e-12
-0.00038529504
0.00013002388
-1.473743e-12
-0.00040188
0.00010375049
-1.0013086e-12
-0.00041530644
7.4521613e-05
-5.1554107e-13
-0.00042518077
4.2657228e-05
5.5962487e-14
-0.00043111397
8.5956402e-06
7.6849495e-13
-0.00043273622
-2.7092745e-05
1.4202968e-12
-0.00042971415
-6.3693985e-05
2.0361151e-12
-0.00042177616
-0.00010034751
2.5132816e-12
-0.00040874171
-0.00013604985
2.8821465e-12
-0.0003905554
-0.00016967039
3.261113e-12
-0.00036732352
-0.00019998201
3.6843881e-12
-0.0003393498
-0.00022570982
4.0120406e-12
-0.00030716535
-0.00024559994
4.0638208e-12
-0.00027154682
-0.0002585081
3.8538164e-12
-0.00023351602
-0.00026350445
3.6099586e-12
-0.000194315
-0.00025998603
3.523422e-12
-0.00015535291
-0.00024778395
3.5665417e-12
-0.00011812525
-0.00022724821
3.4459817e-12
-8.411182e-05
-0.00019929292
2.7497135e-12
-5.4665482e-05
-0.00016538921
3.1054219e-12
-3.0907345e-05
-0.00012750102
8.2290277e-12
-1.3644697e-05
-8.79637e-05
3.8734987e-12
-3.3229896e-06
-4.9326145e-05
-2.5793917e-11
-1.4285545e-05
2.8617529e-11
-4.3334529e-06
3.0368849e-05
-3.5856637e-11
-1.5627794e-05
8.2934096e-05
3.5953792e-11
-3.2417912e-05
0.00012724239
-3.3150428e-12
-5.3460309e-05
0.00016363296
-1.0065459e-11
-7.771246e-05
0.0001926766
-4.1968567e-12
-0.000104311
0.00021503589
-3.7695129e-12
-0.00013254491
0.00023138017
-4.4228285e-12
-0.00016182693
0.00024232511
-4.4273594e-12
-0.00019166588
0.00024839387
-4.2871447e-12
-0.00022164124
0.00024999817
-4.143556e-12
-0.00025138097
0.00024743632
-3.9570357e-12
-0.00028054264
0.00024090414
-3.734328e-12
-0.00030879821
0.0002305151
-3.4902728e-12
-0.00033582178
0.00021632634
-3.216192e-12
-0.00036128018
0.00019836722
-2.8839339e-12
-0.00038482596
0.00017666849
-2.467992e-12
-0.00040609256
0.00015129049
-1.9741116e-12
-0.00042469178
0.00012234972
-1.4457195e-12
-0.00044021384
9.0043683e-05
-9.2411227e-13
-0.00045223065
5.4674022e-05
-3.9170401e-13
-0.00046030304
1.6668011e-05
2.2045457e-13
-0.00046399358
-2.3402215e-05
9.0321237e-13
-0.00046288449
-6.4803069e-05
1.6556263e-12
-0.0004566034
-0.00010662857
2.3423997e-12
-0.00044485607
-0.00014779717
2.8587892e-12
-0.00042746612
-0.00018706036
3.2345098e-12
-0.00040442024
-0.00022302794
3.5869661e-12
-0.00037591563
-0.00025421444
3.9541043e-12
-0.00034240458
-0.00027911096
4.2040996e-12
-0.0003046286
-0.00029628404
4.1740949e-12
-0.00026363337
-0.00030449969
3.8946456e-12
-0.00022075514
-0.0003028643
3.6063386e-12
-0.00017757164
-0.00029096747
3.5182288e-12
-0.00013581501
-0.00026900483
3.4072195e-12
-9.7251922e-05
-0.00023785598
2.6563556e-12
-6.3544833e-05
-0.0001990963
3.0704082e-12
-3.6114691e-05
-0.00015493119
9.0958593e-12
-1.602856e-05
-0.00010804984
3.9517379e-12
-3.9298361e-06
-6.1424836e-05
-3.1089323e-11
-1.8215413e-05
3.3286586e-11
-4.4872232e-06
3.485611e-05
-3.7177298e-11
-1.6177324e-05
9.4624159e-05
3.7242364e-11
-3.3549901e-05
0.00014461497
-3.4719312e-12
-5.5314558e-05
0.00018539763
-1.0499896e-11
-8.0390371e-05
0.00021775241
-4.4474643e-12
-0.0001078848
0.00024253033
-4.0160046e-12
-0.00013706725
0.00026056262
-4.6997772e-12
-0.00016734027
0.00027259814
-4.7231279e-12
-0.0001982112
0.00027926479
-4.6133552e-12
-0.00022926561
0.00028105259
-4.5097821e-12
-0.00026014368
0.00027831439
-4.3547845e-12
-0.00029051967
0.00027128013
-4.1420693e-12
-0.00032008483
0.00026008027
-3.8924416e-12
-0.00034853317
0.0002447747
-3.6219137e-12
-0.00037554993
0.00022538398
-3.3260083e-12
-0.00040080219
0.00020192074
-2.97375e-12
-0.00042393161
0.00017441991
-2.5284994e-12
-0.00044454931
0.00014296743
-1.9886263e-12
-0.00046223321
0.00010772761
-1.4005192e-12
-0.00047652862
6.8969438e-05
-8.1487041e-13
-0.00048695287
2.7092261e-05
-2.3014514e-13
-0.00049300565
-1.7349467e-05
4.0008695e-13
-0.00049418565
-6.3623085e-05
1.1383355e-12
-0.00049001583
-0.00011079838
1.9431992e-12
-0.00048007774
-0.00015773523
2.6780283e-12
-0.00046405565
-0.00020308244
3.2266259e-12
-0.00044178975
-0.00024529387
3.6028294e-12
-0.00041333576
-0.00028266847
3.9123558e-12
-0.00037902597
-0.00031342076
4.1883215e-12
-0.00033952334
-0.00033578666
4.3115621e-12
-0.0002958575
-0.0003481655
4.1561672e-12
-0.00024942979
-0.00034929202
3.8116302e-12
-0.00020197497
-0.00033842231
3.5539284e-12
-0.00015547284
-0.00031550697
3.3045682e-12
-0.00011201159
-0.00028131723
2.4165886e-12
-7.361749e-05
-0.00023749039
2.9625925e-12
-4.2076999e-05
-0.00018647169
1.0132231e-11
-1.8784003e-05
-0.00013134285
4.0953934e-12
-4.6400115e-06
-7.5568793e-05
-3.7233674e-11
-2.2855461e-05
3.8740041e-11
-4.5902843e-06
3.9446432e-05
-3.8145746e-11
-1.655269e-05
0.00010658653
3.8042219e-11
-3.433335e-05
0.00016239563
-3.6532983e-12
-5.661089e-05
0.00020767518
-1.0875015e-11
-8.2277189e-05
0.00024341871
-4.7157935e-12
-0.00011041819
0.00027067134
-4.299787e-12
-0.00014028892
0.00029043336
-5.0102348e-12
-0.00017128552
0.00030359474
-5.0394949e-12
-0.00020291689
0.00031089617
-4.9403374e-12
-0.00023477769
0.00031291339
-4.8639034e-12
-0.00026652359
0.00031006029
-4.7476736e-12
-0.00029784946
0.00030260601
-4.5677294e-12
-0.00032847061
0.00029070143
-4.3269584e-12
-0.00035810672
0.00027441082
-4.0414289e-12
-0.00038646825
0.00025374552
-3.7330033e-12
-0.00041324485
0.00022869734
-3.4051472e-12
-0.00043809568
0.00019927072
-3.0249997e-12
-0.00046064153
0.00016551327
-2.5454616e-12
-0.00048045933
0.0001275454
-1.9558186e-12
-0.00049707946
8.5589589e-05
-1.3016661e-12
-0.00050998719
4.0000005e-05
-6.4615542e-13
-0.00051862938
-8.7072784e-06
-4.1094721e-15
-0.00052242834
-5.9824141e-05
6.7554053e-13
-0.00052080464
-0.00011242211
1.4563162e-12
-0.00051321091
-0.00016532896
2.2990573e-12
-0.00049917822
-0.0002171151
3.0635108e-12
-0.00047837548
-0.00026609658
3.6230619e-12
-0.00045068059
-0.00031036338
3.9763346e-12
-0.00041625892
-0.00034784247
4.2088378e-12
-0.00037564087
-0.00037640472
4.3404003e-12
-0.00032978532
-0.00039402103
4.2764617e-12
-0.00028011189
-0.00039896543
3.9884797e-12
-0.00022848372
-0.00039005049
3.6631564e-12
-0.00017712616
-0.00036686454
3.238446e-12
-0.00012847766
-0.00032996575
2.0854528e-12
-8.4985583e-05
-0.00028098246
2.7369827e-12
-4.8878637e-05
-0.00022257864
1.1292048e-11
-2.1960822e-05
-0.00015826066
4.2879996e-12
-5.4696777e-06
-9.2059896e-05
-4.4339623e-11
-2.8325185e-05
4.5113496e-11
-4.6407208e-06
4.4087188e-05
-3.8732166e-11
-1.674799e-05
0.00011869376
3.8338824e-11
-3.4756315e-05
0.00018040396
-3.8668842e-12
-5.7328466e-05
0.00023024734
-1.1186755e-11
-8.3339269e-05
0.00026942952
-4.9845431e-12
-0.00011185973
0.00029919179
-4.6000319e-12
-0.00014213476
0.0003207084
-5.3456669e-12
-0.00017355703
0.00033501702
-5.3863618e-12
-0.00020563945
0.00034297859
-5.2866026e-12
-0.00023798811
0.00034526206
-5.2119122e-12
-0.00027027702
0.0003423492
-5.1119391e-12
-0.0003022252
0.0003345542
-4.9636007e-12
-0.00033357654
0.00032205276
-4.7537261e-12
-0.00036408207
0.00030491636
-4.4745528e-12
-0.0003934846
0.00028314805
-4.1400274e-12
-0.00042150501
0.00025671777
-3.780359e-12
-0.00044783032
0.00022559604
-3.4073115e-12
-0.00047210323
0.00018978617
-2.9874056e-12
-0.00049391354
0.00014935571
-2.4653831e-12
-0.00051279209
0.00010446813
-1.8206886e-12
-0.00052820808
5.5416014e-05
-1.0969064e-12
-0.00053957139
2.6560504e-06
-3.6257061e-13
-0.00054624183
-5.3153703e-05
3.38269e-13
-0.00054754742
-0.00011111654
1.0731767e-12
-0.00054281501
-0.00017006139
1.893441e-12
-0.00053141581
-0.0002285143
2.7555653e-12
-0.00051282804
-0.00028468434
3.5169883e-12
-0.00048671736
-0.00033647405
4.0477217e-12
-0.00045303246
-0.00038152739
4.3315397e-12
-0.00041210825
-0.00041732896
4.4237371e-12
-0.00036476275
-0.00044136654
4.3345013e-12
-0.00031236681
-0.00045136136
4.0646234e-12
-0.0002568608
-0.00044555649
3.7370048e-12
-0.0002006938
-0.00042303154
3.186777e-12
-0.00014667113
-0.00038398842
1.708232e-12
-9.7717408e-05
-0.0003299362
2.4175357e-12
-5.6590332e-05
-0.00026370572
1.2570204e-11
-2.5605326e-05
-0.00018924567