/*--------------------------------*- C++ -*----------------------------------*\
  =========                 |
  \\      /  F ield         | OpenFOAM: The Open Source CFD Toolbox
   \\    /   O peration     | Website:  https://openfoam.org
    \\  /    A nd           | Version:  7
     \\/     M anipulation  |
\*---------------------------------------------------------------------------*/
FoamFile
{
    version     2.0;
    format      ascii;
    class       volVectorField;
    location    "44";
    object      U;
}
// * * * * * * * * * * * * * * * * * * * * * * * * * * * * * * * * * * * * * //

dimensions      [0 1 -1 0 0 0 0];

internalField   nonuniform List<vector> 
16000
(
(6.6059486e-05 -6.7317706e-05 -4.0123753e-07)
(0.00016277761 -5.6346029e-05 5.7027599e-06)
(0.00014193604 4.676594e-07 1.9203023e-05)
(-5.0610464e-05 6.1893218e-05 3.662561e-05)
(-0.00040996638 0.00011563224 5.4734247e-05)
(-0.00090902222 0.00015774456 7.1562656e-05)
(-0.0015177091 0.00018850528 8.5774774e-05)
(-0.0022068844 0.00020960922 9.6555472e-05)
(-0.0029506 0.00022287657 0.00010344442)
(-0.0037264639 0.0002298109 0.0001061947)
(-0.0045150501 0.0002314772 0.00010467906)
(-0.0052990129 0.00022850432 9.8834447e-05)
(-0.0060621927 0.00022114773 8.8636225e-05)
(-0.0067888636 0.00020938301 7.4094937e-05)
(-0.0074632157 0.00019301327 5.5269335e-05)
(-0.0080691174 0.00017178012 3.2289636e-05)
(-0.0085901707 0.0001454717 5.3857301e-06)
(-0.0090100513 0.00011402262 -2.5084499e-05)
(-0.0093131035 7.7602187e-05 -5.8611146e-05)
(-0.0094851486 3.6687301e-05 -9.4516465e-05)
(-0.0095144477 -7.8876812e-06 -0.00013195075)
(-0.0093927297 -5.4925504e-05 -0.00016990285)
(-0.0091162252 -0.00010284347 -0.00020722641)
(-0.0086866044 -0.00014974741 -0.00024268365)
(-0.0081116933 -0.00019350978 -0.0002750048)
(-0.0074058949 -0.00023188627 -0.00030296092)
(-0.0065902185 -0.00026266404 -0.00032544556)
(-0.0056918535 -0.00028383061 -0.0003415588)
(-0.0047432637 -0.00029374761 -0.00035068646)
(-0.0037808233 -0.00029130623 -0.00035256704)
(-0.002843066 -0.00027604138 -0.00034734011)
(-0.0019686484 -0.00024819054 -0.00033557218)
(-0.0011941377 -0.00020870633 -0.00031825877)
(-0.00055166543 -0.00015926761 -0.0002968052)
(-6.6514348e-05 -0.0001024013 -0.00027298126)
(0.00024491284 -4.1741623e-05 -0.00024884424)
(0.00037894539 1.7852261e-05 -0.00022677504)
(0.00034980477 6.7053141e-05 -0.00020920909)
(0.00020621212 8.9823093e-05 -0.00019881875)
(5.7477007e-05 5.7393682e-05 -0.00018437382)
(5.8012601e-05 -0.00016700549 -6.6283058e-06)
(4.0902016e-05 -3.9938197e-05 -3.7278371e-07)
(-0.00029495843 0.00024857789 1.1260817e-05)
(-0.0010110132 0.00056213164 2.5626875e-05)
(-0.0020992214 0.00084750138 4.0611907e-05)
(-0.0035140847 0.0010831241 5.4620095e-05)
(-0.0051946855 0.001264304 6.6524134e-05)
(-0.0070766305 0.0013940699 7.5571736e-05)
(-0.0090981518 0.0014779619 8.1281116e-05)
(-0.011202308 0.0015215278 8.3352635e-05)
(-0.013337037 0.0015292119 8.1602967e-05)
(-0.015454181 0.0015039769 7.5922128e-05)
(-0.017508154 0.0014473589 6.6251756e-05)
(-0.01945472 0.0013597793 5.2581081e-05)
(-0.02125016 0.0012410026 3.4956226e-05)
(-0.022850978 0.0010906586 1.3498391e-05)
(-0.024214229 0.00090877506 -1.1573424e-05)
(-0.025298436 0.00069627653 -3.9919274e-05)
(-0.02606506 0.00045541598 -7.1058577e-05)
(-0.026480401 0.00019010797 -0.00010435717)
(-0.026517816 -9.3865911e-05 -0.00013902421)
(-0.026159986 -0.00038877794 -0.00017412809)
(-0.025401167 -0.00068509261 -0.00020861294)
(-0.02424917 -0.00097175818 -0.00024134635)
(-0.022726754 -0.0012366902 -0.00027117275)
(-0.020872354 -0.0014674253 -0.00029698059)
(-0.018739914 -0.0016519077 -0.00031777763)
(-0.016397713 -0.0017793573 -0.00033276813)
(-0.013926122 -0.0018411506 -0.00034142515)
(-0.01141432 -0.0018316318 -0.00034355038)
(-0.0089561076 -0.0017487665 -0.00033931499)
(-0.0066450119 -0.0015945818 -0.00032927747)
(-0.0045688913 -0.0013753979 -0.00031437703)
(-0.0028042091 -0.0011019817 -0.00029590425)
(-0.0014100134 -0.00078992591 -0.00027545085)
(-0.00042164853 -0.00046057072 -0.00025483234)
(0.00015574616 -0.00014253464 -0.0002359639)
(0.00035672524 0.00012231609 -0.00022086149)
(0.00027529691 0.00027109868 -0.00021162412)
(9.0147413e-05 0.00020506928 -0.00019543501)
(1.9229317e-06 -0.00014894614 -2.041403e-05)
(-0.00025603767 0.00029703911 -1.1794163e-05)
(-0.0010504401 0.0010236392 1.0417583e-07)
(-0.0023878173 0.0017975498 1.3084284e-05)
(-0.0042394364 0.0025099104 2.6120533e-05)
(-0.0065455576 0.0031100617 3.8072055e-05)
(-0.0092251218 0.0035809291 4.8111846e-05)
(-0.012189999 0.0039234364 5.5679257e-05)
(-0.015352989 0.0041461883 6.0392646e-05)
(-0.018631056 0.0042595933 6.199534e-05)
(-0.02194608 0.0042728169 6.0314414e-05)
(-0.025224258 0.0041924771 5.5232069e-05)
(-0.028394925 0.0040224717 4.6671981e-05)
(-0.031389394 0.0037645263 3.4599013e-05)
(-0.034140224 0.0034191726 1.9029274e-05)
(-0.036581147 0.002986941 4.7295945e-08)
(-0.038647754 0.0024696057 -2.2173059e-05)
(-0.040278948 0.0018713581 -4.7347332e-05)
(-0.041419059 0.001199808 -7.5062039e-05)
(-0.042020509 0.00046673122 -0.00010476234)
(-0.042046774 -0.00031149834 -0.00013575036)
(-0.041475477 -0.001113812 -0.00016719088)
(-0.04030132 -0.0019148798 -0.00019813666)
(-0.038538558 -0.0026858669 -0.00022756457)
(-0.036222758 -0.0033956798 -0.00025442656)
(-0.033411591 -0.0040126042 -0.00027771219)
(-0.030184439 -0.0045062438 -0.00029651876)
(-0.026640651 -0.0048496372 -0.00031012322)
(-0.022896379 -0.0050213967 -0.00031804955)
(-0.019080015 -0.0050076972 -0.00032012412)
(-0.015326332 -0.004803953 -0.00031651207)
(-0.011769585 -0.0044160555 -0.00030772967)
(-0.008535849 -0.0038611492 -0.0002946305)
(-0.0057348784 -0.0031681079 -0.00027836748)
(-0.0034516856 -0.0023781351 -0.00026033451)
(-0.0017379671 -0.0015462008 -0.00024208788)
(-0.00060369587 -0.0007441732 -0.00022523872)
(-8.060105e-06 -6.6331683e-05 -0.00021137974)
(0.00015540917 0.00036040736 -0.00020219847)
(7.3564795e-05 0.0003543648 -0.00018528267)
(-6.468214e-05 5.0432247e-05 -3.8665916e-05)
(-0.00060837557 0.0010457732 -2.6126075e-05)
(-0.0019305325 0.0023817493 -1.2144742e-05)
(-0.0039464335 0.0037565294 1.1480867e-06)
(-0.0065890129 0.0050153218 1.3736333e-05)
(-0.0097792006 0.0060800685 2.4860634e-05)
(-0.013417131 0.0069205253 3.3983769e-05)
(-0.017395536 0.0075341162 4.0770437e-05)
(-0.021607748 0.007931399 4.4984686e-05)
(-0.025950711 0.0081270427 4.6454674e-05)
(-0.030325868 0.0081347703 4.5049618e-05)
(-0.034638818 0.007965003 4.0663196e-05)
(-0.038798386 0.0076243758 3.3208345e-05)
(-0.042715708 0.007116509 2.2622781e-05)
(-0.046303778 0.0064435551 8.882807e-06)
(-0.049477697 0.0056081459 -7.977091e-06)
(-0.052155753 0.0046154499 -2.7841565e-05)
(-0.054261315 0.0034751107 -5.0491497e-05)
(-0.055725442 0.0022028871 -7.5583817e-05)
(-0.056490044 0.0008218503 -0.00010263731)
(-0.056511345 -0.00063696862 -0.00013102746)
(-0.05576345 -0.0021345942 -0.00015998931)
(-0.054241672 -0.0036248144 -0.00018864072)
(-0.051965318 -0.0050556244 -0.00021601449)
(-0.048979661 -0.0063713998 -0.00024110759)
(-0.045356809 -0.0075157225 -0.0002629427)
(-0.041195198 -0.0084347245 -0.00028063792)
(-0.036617546 -0.0090807423 -0.00029347884)
(-0.03176715 -0.0094160244 -0.00030098584)
(-0.026802515 -0.0094162102 -0.00030296936)
(-0.021890407 -0.0090733185 -0.00029956578)
(-0.017197567 -0.008398044 -0.0002912478)
(-0.012881398 -0.0074212819 -0.00027880632)
(-0.0090800707 -0.0061950059 -0.00026330484)
(-0.0059024819 -0.0047929345 -0.00024601118)
(-0.0034184779 -0.0033118406 -0.0002283145)
(-0.001649517 -0.0018745498 -0.00021164187)
(-0.00055981017 -0.00063469954 -0.00019738745)
(-5.0128061e-05 0.00021502036 -0.00018678672)
(3.8092733e-05 0.00041383286 -0.00016798054)
(-0.00013086475 0.000445567 -5.8182175e-05)
(-0.00097094795 0.0022426959 -4.1116122e-05)
(-0.0028462092 0.0043591914 -2.4233694e-05)
(-0.0055648104 0.0064572196 -9.8013447e-06)
(-0.0090094395 0.0083534807 3.1172087e-06)
(-0.013075459 0.009951456 1.4097226e-05)
(-0.017642277 0.011211751 2.2875776e-05)
(-0.022584678 0.012129586 2.9348056e-05)
(-0.027779631 0.012717527 3.3436859e-05)
(-0.033108112 0.012994149 3.5069327e-05)
(-0.038455494 0.012977369 3.4168163e-05)
(-0.043711127 0.012681218 3.0644955e-05)
(-0.048767518 0.012115131 2.4402838e-05)
(-0.05351963 0.011284989 1.5348323e-05)
(-0.057864699 0.010195261 3.4100678e-06)
(-0.061702794 0.0088517432 -1.1437468e-05)
(-0.06493823 0.0072644424 -2.914769e-05)
(-0.067481795 0.0054502936 -4.9575344e-05)
(-0.069253702 0.0034354349 -7.2452572e-05)
(-0.070187073 0.0012568406 -9.7370631e-05)
(-0.070231724 -0.0010368543 -0.0001237703)
(-0.069358017 -0.0033854758 -0.0001509434)
(-0.067560467 -0.0057183933 -0.00017804928)
(-0.064860803 -0.0079566843 -0.00020414626)
(-0.0613102 -0.010016306 -0.00022823935)
(-0.05699036 -0.011812199 -0.00024934225)
(-0.052013149 -0.013263147 -0.00026654928)
(-0.046518565 -0.014297142 -0.00027911099)
(-0.040670863 -0.014856879 -0.00028650519)
(-0.034652776 -0.014904991 -0.00028849513)
(-0.028657894 -0.014428617 -0.00028516712)
(-0.022881391 -0.013442985 -0.00027694138)
(-0.017509474 -0.011993832 -0.0002645523)
(-0.01270807 -0.010158703 -0.00024899799)
(-0.008611486 -0.0080474791 -0.00023146251)
(-0.0053117554 -0.0058029571 -0.00021322545)
(-0.0028485019 -0.0036024917 -0.00019559994)
(-0.0012000256 -0.0016605548 -0.00017985187)
(-0.00028881687 -0.00023377333 -0.00016670668)
(-2.4764163e-06 0.00035046954 -0.0001454757)
(-0.00019286495 0.001031307 -7.6662427e-05)
(-0.0013239861 0.0038925356 -5.4757726e-05)
(-0.0037518559 0.006968002 -3.4552955e-05)
(-0.0071732985 0.0099108219 -1.8459435e-05)
(-0.011414807 0.012527401 -4.6636923e-06)
(-0.016341483 0.014714508 6.699073e-06)
(-0.02180962 0.016430506 1.561594e-05)
(-0.027675878 0.017672022 2.2201557e-05)
(-0.033802397 0.018455251 2.6534383e-05)
(-0.040056848 0.018803216 2.8641112e-05)
(-0.046311838 0.018738081 2.8498971e-05)
(-0.052444061 0.018277411 2.6037005e-05)
(-0.058333357 0.017433439 2.1145649e-05)
(-0.063862063 0.016214497 1.3694753e-05)
(-0.068914993 0.014627824 3.5578418e-06)
(-0.073380203 0.012683109 -9.3592447e-06)
(-0.077150616 0.010396211 -2.5087191e-05)
(-0.080126457 0.0077926393 -4.3561741e-05)
(-0.082218398 0.0049104471 -6.4594575e-05)
(-0.083351222 0.0018022811 -8.7849632e-05)
(-0.083467823 -0.0014636124 -0.00011282818)
(-0.082533261 -0.004803584 -0.00013886632)
(-0.080538654 -0.0081200491 -0.00016514672)
(-0.077504591 -0.011304332 -0.00019072837)
(-0.073483769 -0.014240827 -0.00021459328)
(-0.068562535 -0.016812392 -0.00023570969)
(-0.062860999 -0.018906791 -0.00025310768)
(-0.056531393 -0.020423869 -0.00026596075)
(-0.049754418 -0.021283049 -0.00027366406)
(-0.042733415 -0.021430598 -0.00027589952)
(-0.035686368 -0.02084611 -0.00027267842)
(-0.028835909 -0.01954768 -0.00026435495)
(-0.022397687 -0.017595411 -0.00025160713)
(-0.01656775 -0.015093179 -0.0002353846)
(-0.011509877 -0.012188848 -0.00021682398)
(-0.0073439151 -0.0090736539 -0.00019715102)
(-0.0041345341 -0.005981671 -0.0001776387)
(-0.0018815862 -0.0031890486 -0.00015952111)
(-0.00053618941 -0.0010143266 -0.00014312692)
(-4.1247324e-05 0.00015895115 -0.00011903661)
(-0.00025011675 0.0017985706 -9.2149211e-05)
(-0.0016597731 0.0059841426 -6.5258231e-05)
(-0.0046244562 0.010198619 -4.1571867e-05)
(-0.008732169 0.014107023 -2.3517027e-05)
(-0.013751604 0.017522339 -8.4786091e-06)
(-0.01951508 0.020347121 3.6603905e-06)
(-0.025854145 0.022545928 1.3111733e-05)
(-0.032607009 0.024122006 2.0191516e-05)
(-0.039621881 0.025098112 2.5122011e-05)
(-0.04675501 0.025503181 2.8021496e-05)
(-0.053868798 0.025364231 2.8915572e-05)
(-0.060830247 0.02470254 2.7744964e-05)
(-0.067509641 0.023533177 2.43811e-05)
(-0.073779769 0.021866982 1.8649916e-05)
(-0.07951588 0.019714125 1.036163e-05)
(-0.084596503 0.017088491 -6.5519861e-07)
(-0.088905129 0.014012233 -1.4517021e-05)
(-0.092332706 0.010520009 -3.1248095e-05)
(-0.094780827 0.0066624834 -5.0745283e-05)
(-0.096165474 0.0025088091 -7.2747963e-05)
(-0.096421125 -0.0018521449 -9.6816675e-05)
(-0.09550503 -0.006311998 -0.00012232515)
(-0.093401431 -0.010744596 -0.00014846674)
(-0.09012548 -0.015009426 -0.00017428187)
(-0.08572651 -0.018956665 -0.00019870374)
(-0.080290351 -0.022433818 -0.00022062317)
(-0.073940287 -0.025293747 -0.0002389686)
(-0.066836236 -0.02740378 -0.00025279488)
(-0.059171745 -0.02865539 -0.00026137152)
(-0.051168507 -0.028973825 -0.00026425885)
(-0.043068261 -0.028326914 -0.00026136065)
(-0.03512221 -0.026732269 -0.00025294452)
(-0.027578336 -0.024262248 -0.0002396261)
(-0.020667329 -0.021046324 -0.00022231712)
(-0.014588341 -0.017270911 -0.00020213646)
(-0.0094958284 -0.013177217 -0.00018030679)
(-0.005486499 -0.0090579185 -0.00015813221)
(-0.0025879497 -0.0052522186 -0.0001369009)
(-0.00078446259 -0.0021405408 -0.00011661707)
(-7.6871347e-05 -0.00016053937 -8.9412904e-05)
(-0.00030295608 0.0027365291 -0.00010297288)
(-0.0019754991 0.0084981059 -7.1001145e-05)
(-0.0054521423 0.014028583 -4.3853307e-05)
(-0.010217974 0.019021398 -2.3708645e-05)
(-0.015985182 0.023311104 -7.2133352e-06)
(-0.0225528 0.026818206 5.9757126e-06)
(-0.029727186 0.029522441 1.6273025e-05)
(-0.03732821 0.031439789 2.4176438e-05)
(-0.045190987 0.032603415 3.0036054e-05)
(-0.053161894 0.033050384 3.4048824e-05)
(-0.06109525 0.032813702 3.6277898e-05)
(-0.068850861 0.031918833 3.6666127e-05)
(-0.076292143 0.030383792 3.5056953e-05)
(-0.083284994 0.028221867 3.1223438e-05)
(-0.089697556 0.025446026 2.4903211e-05)
(-0.095400896 0.022074175 1.5837889e-05)
(-0.10027058 0.018134571 3.8154528e-06)
(-0.10418904 0.013670801 -1.1286371e-05)
(-0.10704872 0.0087459282 -2.9458257e-05)
(-0.10875574 0.0034454483 -5.0522017e-05)
(-0.10923406 -0.0021211605 -7.4101814e-05)
(-0.10843 -0.007820518 -9.9609624e-05)
(-0.10631684 -0.013497153 -0.00012624437)
(-0.10289944 -0.018977294 -0.000153016)
(-0.098218424 -0.024074612 -0.00017878906)
(-0.092353564 -0.028597961 -0.00020234913)
(-0.085426047 -0.032360975 -0.00022248761)
(-0.077598907 -0.035193191 -0.00023809881)
(-0.069075162 -0.03695217 -0.00024828)
(-0.06009311 -0.037535868 -0.00025242228)
(-0.050918473 -0.036894266 -0.0002502789)
(-0.041833374 -0.035039207 -0.0002419989)
(-0.0331225 -0.03205137 -0.00022811993)
(-0.025057298 -0.02808365 -0.00020951912)
(-0.017879636 -0.023360695 -0.00018732096)
(-0.011786475 -0.018175006 -0.00016278947)
(-0.006914075 -0.012880392 -0.00013732587)
(-0.0033238427 -0.0078822573 -0.00011235511)
(-0.0010368604 -0.0036261501 -8.7647554e-05)
(-0.00011093265 -0.00060702192 -5.7208696e-05)
(-0.00035169297 0.0038338219 -0.00010766982)
(-0.0022696856 0.011410364 -7.0512382e-05)
(-0.0062274794 0.018427305 -4.0034404e-05)
(-0.011614749 0.024619964 -1.7783932e-05)
(-0.018090317 0.029857567 2.8002863e-07)
(-0.025421021 0.034089885 1.4709409e-05)
(-0.033388715 0.037320719 2.6103712e-05)
(-0.041795672 0.039585253 3.5123715e-05)
(-0.050464969 0.040931447 4.223042e-05)
(-0.059234591 0.041407243 4.7684623e-05)
(-0.067952675 0.041053188 5.1574004e-05)
(-0.076474039 0.039899668 5.3831974e-05)
(-0.084657596 0.037967841 5.4263394e-05)
(-0.092364713 0.035273272 5.2578232e-05)
(-0.099458592 0.031831291 4.8431107e-05)
(-0.10580463 0.027663186 4.1465616e-05)
(-0.11127169 0.022802466 3.1362252e-05)
(-0.11573423 0.017300629 1.7888063e-05)
(-0.11907517 0.011231983 9.4559772e-07)
(-0.12118942 0.004697192 -1.9381913e-05)
(-0.12198809 -0.0021747096 -4.2793262e-05)
(-0.12140313 -0.0092260634 -6.8747289e-05)
(-0.11939248 -0.01627219 -9.6451837e-05)
(-0.11594549 -0.023105291 -0.00012488294)
(-0.11108822 -0.029500589 -0.00015282361)
(-0.1048884 -0.035224948 -0.00017893042)
(-0.097459317 -0.040047911 -0.00020182305)
(-0.088962042 -0.043754911 -0.00022019081)
(-0.079605264 -0.046162109 -0.00023290657)
(-0.069641884 -0.047131967 -0.00023913577)
(-0.059361853 -0.046588376 -0.0002384257)
(-0.049080951 -0.044529881 -0.00023076009)
(-0.039125766 -0.041039489 -0.00021656862)
(-0.029815754 -0.036289748 -0.00019668637)
(-0.021444138 -0.030542383 -0.00017225975)
(-0.014259498 -0.024142649 -0.00014463327)
(-0.0084461189 -0.017509203 -0.00011536668)
(-0.0041057589 -0.0111191 -8.6101088e-05)
(-0.0013000816 -0.0054896908 -5.6442011e-05)
(-0.00014466057 -0.0011817412 -2.2491162e-05)
(-0.00039639247 0.0050786765 -0.0001049208)
(-0.0025408049 0.014693491 -6.2439335e-05)
(-0.0069442137 0.023357985 -2.8833095e-05)
(-0.012909248 0.030860818 -4.5314859e-06)
(-0.020045659 0.037117359 1.5148256e-05)
(-0.028090313 0.042116916 3.0955475e-05)
(-0.036802157 0.045895795 4.3660372e-05)
(-0.045967206 0.048514825 5.4069775e-05)
(-0.055397846 0.050041369 6.2739529e-05)
(-0.064925216 0.050537312 6.9979613e-05)
(-0.074393076 0.050052602 7.5888994e-05)
(-0.083653298 0.048623492 8.0379654e-05)
(-0.092562458 0.046274539 8.3206731e-05)
(-0.10097956 0.043023319 8.4006209e-05)
(-0.10876487 0.038886826 8.2338336e-05)
(-0.11577979 0.033888626 7.7736135e-05)
(-0.12188764 0.028066016 6.9758248e-05)
(-0.1269554 0.021476603 5.8044627e-05)
(-0.13085612 0.014203879 4.2372778e-05)
(-0.13347226 0.0063614861 2.2711754e-05)
(-0.13469977 -0.001904089 -7.3071277e-07)
(-0.13445283 -0.010412654 -2.7479352e-05)
(-0.13266961 -0.018951372 -5.676254e-05)
(-0.12931856 -0.027278398 -8.7528881e-05)
(-0.12440509 -0.035129035 -0.00011847572)
(-0.11797826 -0.042224898 -0.00014811282)
(-0.11013684 -0.048286174 -0.00017485507)
(-0.10103395 -0.0530469 -0.0001971388)
(-0.090879094 -0.056272739 -0.00021355235)
(-0.079936777 -0.057780327 -0.00022296749)
(-0.068520631 -0.057456699 -0.00022465547)
(-0.056982422 -0.055276938 -0.00021837049)
(-0.045695955 -0.05131791 -0.00020438571)
(-0.035036669 -0.045766091 -0.0001834703)
(-0.025358983 -0.038918047 -0.000156798)
(-0.016973699 -0.031173321 -0.00012582708)
(-0.010123122 -0.023020498 -9.2334526e-05)
(-0.0049573012 -0.015016291 -5.8255344e-05)
(-0.0015839128 -0.0077601696 -2.3083463e-05)
(-0.00018000562 -0.0018919981 1.4779922e-05)
(-0.00043687355 0.0064585715 -9.3523326e-05)
(-0.0027868525 0.018316908 -4.5543131e-05)
(-0.0075959 0.028778332 -9.0587259e-06)
(-0.014088641 0.037694919 1.7195237e-05)
(-0.021830808 0.045038225 3.8499073e-05)
(-0.03053227 0.050846289 5.5791383e-05)
(-0.039931319 0.055195708 7.0001376e-05)
(-0.04979951 0.058179133 8.2067086e-05)
(-0.059940135 0.059887936 9.2624893e-05)
(-0.070179118 0.060401162 0.00010202078)
(-0.080357622 0.059780207 0.00011035293)
(-0.09032651 0.058068292 0.00011750083)
(-0.099942083 0.055293698 0.00012315929)
(-0.10906306 0.051475679 0.0001268795)
(-0.11754872 0.046631958 0.00012811544)
(-0.12525817 0.040786893 0.0001262757)
(-0.13205051 0.033979548 0.0001207803)
(-0.1377859 0.02627113 0.00011112185)
(-0.14232754 0.017751402 9.6928941e-05)
(-0.14554452 0.0085438162 7.8029581e-05)
(-0.14731572 -0.0011908602 5.4509953e-05)
(-0.14753461 -0.011252639 2.6747855e-05)
(-0.14611544 -0.021402755 -4.5266032e-06)
(-0.14300052 -0.031366227 -3.8253002e-05)
(-0.13816827 -0.040837681 -7.3049725e-05)
(-0.13164197 -0.049490597 -0.00010727067)
(-0.1234984 -0.056990442 -0.00013909738)
(-0.1138753 -0.063011821 -0.00016666368)
(-0.10297655 -0.06725935 -0.00018820464)
(-0.091073534 -0.069491277 -0.00020221566)
(-0.0785014 -0.069544181 -0.0002076031)
(-0.065648983 -0.067356345 -0.00020380597)
(-0.052942002 -0.062986931 -0.00019086935)
(-0.040820056 -0.056628023 -0.00016945071)
(-0.029709671 -0.04860716 -0.00014073939)
(-0.019996224 -0.039379401 -0.00010633113)
(-0.011992168 -0.029509505 -6.8277061e-05)
(-0.0059060205 -0.019644355 -2.8885275e-05)
(-0.0018995929 -0.010479298 1.2423676e-05)
(-0.00021911083 -0.00275049 5.4760513e-05)
(-0.00047276096 0.0079598552 -7.2386678e-05)
(-0.0030053075 0.02224667 -1.8702014e-05)
(-0.0081754825 0.034640717 2.0374918e-05)
(-0.015139639 0.045066395 4.8455549e-05)
(-0.023425073 0.053560171 7.1370706e-05)
(-0.032718089 0.06021691 9.0241374e-05)
(-0.04273898 0.065160522 0.00010614572)
(-0.053246924 0.068521234 0.00012014002)
(-0.064037881 0.070418884 0.00013292904)
(-0.07493424 0.070952922 0.0001448838)
(-0.085776311 0.070198361 0.00015609186)
(-0.096415827 0.068206615 0.00016639105)
(-0.10671081 0.065010089 0.0001754069)
(-0.11652174 0.060629353 0.00018259598)
(-0.12570895 0.055081784 0.00018729437)
(-0.1341311 0.048390752 0.00018877145)
(-0.14164462 0.040594627 0.00018628984)
(-0.14810402 0.031755109 0.00017917096)
(-0.1533632 0.021964581 0.00016686517)
(-0.15727767 0.011352265 0.00014902326)
(-0.15970803 8.9016148e-05 0.00012556582)
(-0.16052491 -0.011609444 9.6754047e-05)
(-0.15961528 -0.0234817 6.3217144e-05)
(-0.15689041 -0.03522179 2.5997388e-05)
(-0.15229557 -0.046484019 -1.3463633e-05)
(-0.14582084 -0.056891684 -5.3366766e-05)
(-0.13751249 -0.066050533 -9.1640123e-05)
(-0.12748403 -0.073567435 -0.00012606788)
(-0.11592513 -0.07907427 -0.00015445706)
(-0.10310687 -0.082256246 -0.00017482861)
(-0.08938124 -0.082882834 -0.0001856119)
(-0.075173056 -0.080838443 -0.00018581719)
(-0.060963174 -0.076149014 -0.0001751605)
(-0.047263083 -0.069000372 -0.00015411339)
(-0.03458309 -0.059744617 -0.000123845)
(-0.023397401 -0.048892502 -8.6097014e-05)
(-0.014103448 -0.037091893 -4.3247825e-05)
(-0.0069814317 -0.025092622 1.9376159e-06)
(-0.0022590039 -0.01370295 5.0085384e-05)
(-0.00026414524 -0.0037760402 9.7640808e-05)
(-0.00050355086 0.0095674434 -4.0541178e-05)
(-0.0031932762 0.026445193 1.9076338e-05)
(-0.008675406 0.040892106 6.0432136e-05)
(-0.016048495 0.052912593 9.0197714e-05)
(-0.024807365 0.062615425 0.00011470169)
(-0.034618419 0.070159229 0.00013524035)
(-0.045186795 0.075721412 0.00015303169)
(-0.056261503 0.079475013 0.00016923889)
(-0.067632973 0.081572554 0.00018462534)
(-0.079121714 0.082137099 0.00019957895)
(-0.090568873 0.081259521 0.00021416959)
(-0.10182886 0.079000775 0.00022818717)
(-0.11276336 0.075397893 0.00024118146)
(-0.1232367 0.070472451 0.0002525067)
(-0.13311239 0.064240362 0.00026137059)
(-0.14225078 0.056722074 0.00026688879)
(-0.15050761 0.047952511 0.00026814643)
(-0.15773347 0.037990335 0.00026426704)
(-0.16377429 0.026926305 0.00025448847)
(-0.16847278 0.014890609 0.00023824325)
(-0.17167133 0.002059038 0.00021524098)
(-0.17321661 -0.011342252 0.00018555785)
(-0.17296593 -0.025033767 0.00014968234)
(-0.17079571 -0.038682253 0.00010858561)
(-0.16661244 -0.051903623 6.373019e-05)
(-0.16036551 -0.064270376 1.7048789e-05)
(-0.15206158 -0.075324598 -2.9126661e-05)
(-0.1417794 -0.084597516 -7.2191415e-05)
(-0.12968348 -0.091636047 -0.00010944861)
(-0.11603435 -0.096035956 -0.00013833395)
(-0.10119275 -0.097479899 -0.0001566627)
(-0.085615091 -0.0957771 -0.00016286836)
(-0.069838055 -0.090899829 -0.00015619806)
(-0.05445142 -0.08301093 -0.00013682517)
(-0.040061179 -0.07247675 -0.00010583021)
(-0.027246485 -0.059861715 -6.5086545e-05)
(-0.016507707 -0.045903614 -1.7345279e-05)
(-0.0082137723 -0.031469865 3.4082167e-05)
(-0.0026743195 -0.017501843 8.9848019e-05)
(-0.00031729518 -0.0049938562 0.00014356429)
(-0.0005286803 0.011264649 2.8434002e-06)
(-0.0033477384 0.030871107 6.8636382e-05)
(-0.0090880532 0.047474056 0.00011193443)
(-0.016801587 0.061164151 0.00014323344)
(-0.025956889 0.072128402 0.00016929977)
(-0.036204181 0.080594915 0.0001915968)
(-0.047236294 0.086799866 0.00021147355)
(-0.058794244 0.090963771 0.00023019042)
(-0.070664656 0.093275771 0.00024856215)
(-0.082667723 0.093885674 0.00026698853)
(-0.094646998 0.092902529 0.00028551826)
(-0.10646128 0.090398324 0.00030389048)
(-0.11797782 0.086415379 0.00032157611)
(-0.1290669 0.080976106 0.0003378223)
(-0.13959748 0.074093917 0.00035170038)
(-0.14943402 0.065784417 0.00036215929)
(-0.15843404 0.056076248 0.00036808681)
(-0.1664467 0.045021276 0.00036838032)
(-0.17331223 0.032704005 0.00036202729)
(-0.17886253 0.019250182 0.00034819454)
(-0.18292318 0.0048345363 0.00032632425)
(-0.18531739 -0.010312566 0.00029623583)
(-0.185872 -0.025899802 0.00025821108)
(-0.18442618 -0.041572075 0.00021307874)
(-0.18084315 -0.05691086 0.00016226088)
(-0.17502466 -0.071439358 0.00010778124)
(-0.16692828 -0.084633987 5.2217757e-05)
(-0.15658628 -0.095943783 -1.4117968e-06)
(-0.14412461 -0.10481882 -4.9837099e-05)
(-0.12977948 -0.11074796 -8.9790956e-05)
(-0.113908 -0.11330453 -0.00011831462)
(-0.096989368 -0.11219672 -0.00013307833)
(-0.079612833 -0.10731674 -0.00013267156)
(-0.062450287 -0.098781324 -0.00011680598)
(-0.046214679 -0.086954995 -8.635951e-05)
(-0.031607742 -0.072449912 -4.3290021e-05)
(-0.019254151 -0.056099264 9.247288e-06)
(-0.0096331393 -0.038903926 6.7299883e-05)
(-0.0031578302 -0.021961653 0.00013152749)
(-0.00038078522 -0.0064355929 0.00019255282)
(-0.00054759902 0.013033169 5.8434543e-05)
(-0.0034658574 0.035479375 0.00013065325)
(-0.0094063971 0.054322973 0.00017553842)
(-0.017386396 0.069745292 0.00020821237)
(-0.026854436 0.082015897 0.00023581133)
(-0.037448154 0.091436758 0.00025995596)
(-0.048850774 0.098307151 0.00028211778)
(-0.060797324 0.10289913 0.00030364618)
(-0.073072179 0.10544208 0.00032540287)
(-0.085496594 0.10611561 0.00034779809)
(-0.097917951 0.10504936 0.00037085983)
(-0.11020101 0.10232799 0.00039427777)
(-0.12222042 0.098000033 0.00041744493)
(-0.13385451 0.092088788 0.00043950053)
(-0.14498015 0.084604371 0.00045937511)
(-0.15546858 0.075555809 0.00047584087)
(-0.16518214 0.064962758 0.00048757054)
(-0.17397176 0.052866573 0.0004932078)
(-0.1816753 0.03934076 0.00049145065)
(-0.18811716 0.024500888 0.00048114817)
(-0.19310912 0.0085140037 0.00046140964)
(-0.19645328 -0.0083925683 0.00043172342)
(-0.1979473 -0.025923364 0.00039207465)
(-0.19739266 -0.043708864 0.00034305866)
(-0.1946065 -0.061302524 0.00028596962)
(-0.1894373 -0.078182577 0.00022284977)
(-0.18178453 -0.093760689 0.00015647915)
(-0.17162149 -0.10739972 9.0286877e-05)
(-0.1590201 -0.11844267 2.816954e-05)
(-0.14417482 -0.12625405 -2.5787839e-05)
(-0.1274219 -0.13027328 -6.7676156e-05)
(-0.1092488 -0.13007711 -9.4178e-05)
(-0.090288549 -0.12544458 -0.00010297981)
(-0.071294719 -0.11641496 -9.310175e-05)
(-0.053096441 -0.10332684 -6.5041753e-05)
(-0.036536435 -0.086827872 -2.0746196e-05)
(-0.022388439 -0.06784892 3.621862e-05)
(-0.011268762 -0.047540431 0.00010116279)
(-0.0037218439 -0.027182722 0.00017473364)
(-0.000456912 -0.0081393816 0.00024442887)
(-0.00055984484 0.014853264 0.00012671251)
(-0.003545338 0.040221777 0.00020561138)
(-0.0096248087 0.06137078 0.00025171497)
(-0.017792804 0.078574531 0.0002855986)
(-0.027484128 0.092187646 0.00031469315)
(-0.038327161 0.10258896 0.0003407651)
(-0.04999793 0.11014418 0.00036540031)
(-0.062227203 0.11518037 0.00039003097)
(-0.074798409 0.11797048 0.00041556445)
(-0.087535022 0.11872695 0.00044242398)
(-0.10028947 0.11760247 0.00047062168)
(-0.11293389 0.11469633 0.00049980381)
(-0.12535206 0.11006442 0.00052929117)
(-0.13743243 0.10373139 0.00055811889)
(-0.14906227 0.095703598 0.00058507689)
(-0.16012262 0.085982165 0.00060875503)
(-0.17048407 0.074575415 0.00062759739)
(-0.18000324 0.06151079 0.00063996969)
(-0.18852004 0.046846256 0.00064424325)
(-0.19585597 0.03068147 0.00063889706)
(-0.20181373 0.013168862 0.00062263851)
(-0.20617875 -0.0054753526 0.00059454084)
(-0.2087231 -0.024960527 0.00055419129)
(-0.20921263 -0.044912158 0.00050184035)
(-0.20741816 -0.064864851 0.00043853882)
(-0.20313139 -0.084259653 0.00036624001)
(-0.19618605 -0.1024483 0.00028784263)
(-0.18648428 -0.11870745 0.00020714652)
(-0.17402712 -0.13226603 0.00012869544)
(-0.15894668 -0.14234853 5.748967e-05)
(-0.14153585 -0.14823509 -1.4306929e-06)
(-0.12226912 -0.14933666 -4.3504543e-05)
(-0.10180729 -0.1452787 -6.5210343e-05)
(-0.080978725 -0.13598182 -6.4567049e-05)
(-0.060733909 -0.12172372 -4.143018e-05)
(-0.042074317 -0.1031659 2.4329499e-06)
(-0.025950478 -0.081333242 6.3079672e-05)
(-0.013148241 -0.05754054 0.00013499286)
(-0.0043785971 -0.033279405 0.00021878518)
(-0.00054808343 -0.010149842 0.00029872875)
(-0.00056512295 0.016704137 0.0002079481)
(-0.0035848226 0.045047816 0.00029378656)
(-0.009739983 0.068546103 0.00034073262)
(-0.018014596 0.087565905 0.00037565196)
(-0.027835516 0.10254742 0.00040618896)
(-0.038824728 0.1139479 0.00043424315)
(-0.050653066 0.12220188 0.00046150769)
(-0.063048418 0.12769431 0.00048949391)
(-0.075794275 0.1307448 0.00051915729)
(-0.088717241 0.13160155 0.00055094099)
(-0.1016758 0.13044302 0.00058485099)
(-0.11455071 0.12738527 0.00062050111)
(-0.12723646 0.12249313 0.00065715085)
(-0.13963367 0.11579342 0.00069374038)
(-0.15164253 0.10728888 0.0007289246)
(-0.16315701 0.096971898 0.0007611111)
(-0.17405977 0.084837729 0.00078850742)
(-0.18421763 0.070897083 0.00080918299)
(-0.19347778 0.055188375 0.00082115056)
(-0.20166471 0.037789984 0.00082247065)
(-0.20857842 0.018832874 0.00081138134)
(-0.21399413 -0.0014862927 0.00078645298)
(-0.21766445 -0.022891669 0.00074676601)
(-0.2193246 -0.045015038 0.0006920981)
(-0.21870195 -0.067384153 0.00062311546)
(-0.21553096 -0.089414507 0.00054153852)
(-0.20957472 -0.11040753 0.00045025482)
(-0.20065358 -0.12955896 0.00035334199)
(-0.1886808 -0.1459819 0.00025596119)
(-0.17370327 -0.15874899 0.00016408667)
(-0.15594314 -0.16695712 8.405433e-05)
(-0.13583341 -0.1698146 2.1942116e-05)
(-0.11403768 -0.16674579 -1.7160398e-05)
(-0.091443305 -0.15750014 -2.9872131e-05)
(-0.06912048 -0.14224565 -1.5036354e-05)
(-0.04824434 -0.1216226 2.6027254e-05)
(-0.029971804 -0.096736574 8.9102758e-05)
(-0.015296621 -0.069077572 0.00016777823)
(-0.005140127 -0.040378991 0.00026260963)
(-0.00065685487 -0.01251807 0.00035460098)
(-0.00056338812 0.018564535 0.00030218608)
(-0.0035843186 0.049906101 0.00039523475)
(-0.00975196 0.075776052 0.00044264815)
(-0.018051164 0.096630834 0.00047841682)
(-0.027905938 0.11299474 0.00051031361)
(-0.038934098 0.12540358 0.00054035787)
(-0.050802753 0.1343622 0.000570345)
(-0.063237895 0.14031587 0.0006018657)
(-0.076023794 0.14363374 0.00063593074)
(-0.088990875 0.14460281 0.00067301524)
(-0.10200451 0.14343009 0.0007131339)
(-0.11495519 0.14025091 0.00075588432)
(-0.12774955 0.13514102 0.00080048091)
(-0.14030233 0.12813082 0.00084578353)
(-0.15252914 0.11922005 0.00089032359)
(-0.16434008 0.10839231 0.00093233286)
(-0.17563382 0.095628829 0.00096978165)