/*--------------------------------*- C++ -*----------------------------------*\
  =========                 |
  \\      /  F ield         | OpenFOAM: The Open Source CFD Toolbox
   \\    /   O peration     | Website:  https://openfoam.org
    \\  /    A nd           | Version:  7
     \\/     M anipulation  |
\*---------------------------------------------------------------------------*/
FoamFile
{
    version     2.0;
    format      ascii;
    class       volScalarField;
    location    "0.005";
    object      mag(U);
}
// * * * * * * * * * * * * * * * * * * * * * * * * * * * * * * * * * * * * * //

dimensions      [0 1 -1 0 0 0 0];

internalField   nonuniform List<scalar> 
100
(
1.6542e-12
8.0376e-13
2.47984e-14
2.31646e-12
2.73949e-12
6.05373e-13
1.71547e-11
9.61566e-11
4.64783e-10
2.13829e-09
9.53018e-09
4.12397e-08
1.73188e-07
7.05323e-07
2.78193e-06
1.06145e-05
3.91176e-05
0.000139043
0.000475811
0.00156472
0.00493365
0.0148796
0.0427973
0.117002
0.302771
0.73795
1.68416
3.57669
6.96286
12.1995
19.3544
28.3444
38.9192
50.7108
63.3548
76.555
90.1071
103.853
117.721
131.564
145.447
159.101
172.668
185.997
198.932
211.572
223.712
235.186
246.048
256.057
265.015
272.97
279.709
285.192
289.316
291.549
292.454
293.083
293.64
294.103
294.433
294.797
294.724
293.8
292.535
291.399
290.852
291.156
291.927
292.443
292.181
291.514
290.804
289.484
286.745
281.137
268.917
235.6
145.01
38.2341
6.38452
0.983045
0.147263
0.0219882
0.00328402
0.000489915
7.2835e-05
1.07692e-05
1.58072e-06
2.30033e-07
3.31536e-08
4.72974e-09
6.66881e-10
9.30554e-11
1.27391e-11
1.51271e-12
6.30172e-13
1.2443e-12
1.32745e-12
1.53167e-13
)
;

boundaryField
{
    sides
    {
        type            calculated;
        value           nonuniform List<scalar> 2(1.53167e-13 1.6542e-12);
    }
    empty
    {
        type            empty;
    }
}


// ************************************************************************* //
