/*--------------------------------*- C++ -*----------------------------------*\
  =========                 |
  \\      /  F ield         | OpenFOAM: The Open Source CFD Toolbox
   \\    /   O peration     | Website:  https://openfoam.org
    \\  /    A nd           | Version:  7
     \\/     M anipulation  |
\*---------------------------------------------------------------------------*/
FoamFile
{
    version     2.0;
    format      ascii;
    class       surfaceScalarField;
    location    "0.005";
    object      phi;
}
// * * * * * * * * * * * * * * * * * * * * * * * * * * * * * * * * * * * * * //

dimensions      [1 0 -1 0 0 0 0];

internalField   nonuniform List<scalar> 
99
(
-5.20828e-12
-1.64135e-12
-4.46931e-12
-1.02744e-11
-8.52651e-12
2.73701e-11
1.92991e-10
9.62267e-10
4.48843e-09
2.02081e-08
8.83131e-08
3.74675e-07
1.54213e-06
6.15069e-06
2.37438e-05
8.8592e-05
0.000319034
0.00110701
0.00369458
0.0118354
0.0363085
0.106386
0.296807
0.785557
1.96364
4.61065
10.1033
20.5391
38.149
62.5579
92.8966
127.712
164.932
202.6
239.237
273.904
306.084
335.51
362.159
385.764
407.161
425.004
440.631
455.398
465.107
473.294
482.678
488.911
490.485
490.825
494.439
498.174
497.869
495.324
491.621
488.576
490.103
493.479
495.172
495.537
494.192
480.352
429.872
383.028
349.661
328.75
317.029
310.8
306.577
304.856
303.995
304.918
305.617
305.142
302.11
292.424
268.7
215.635
50.2763
9.93333
1.54629
0.231618
0.0345502
0.00515767
0.000770215
0.000114821
1.70479e-05
2.5159e-06
3.6843e-07
5.34725e-08
7.68456e-09
1.09281e-09
1.53581e-10
2.13705e-11
2.8666e-12
4.18332e-13
-1.38112e-13
-6.93667e-13
-3.37508e-13
)
;

boundaryField
{
    sides
    {
        type            calculated;
        value           nonuniform List<scalar> 2(-7.85803e-14 6.57747e-12);
    }
    empty
    {
        type            empty;
        value           nonuniform 0();
    }
}


// ************************************************************************* //
