/*--------------------------------*- C++ -*----------------------------------*\
  =========                 |
  \\      /  F ield         | OpenFOAM: The Open Source CFD Toolbox
   \\    /   O peration     | Website:  https://openfoam.org
    \\  /    A nd           | Version:  7
     \\/     M anipulation  |
\*---------------------------------------------------------------------------*/
FoamFile
{
    version     2.0;
    format      ascii;
    class       surfaceScalarField;
    location    "3";
    object      phi;
}
// * * * * * * * * * * * * * * * * * * * * * * * * * * * * * * * * * * * * * //

dimensions      [0 3 -1 0 0 0 0];

internalField   nonuniform List<scalar> 
17370
(
-0.0914867
0.0969434
0.283554
-0.078196
0.058814
0.366158
-0.0412622
0.0293948
0.428036
-0.0200615
0.0141301
0.505183
-0.00964459
0.00685288
0.602194
-0.00472636
0.00339647
0.720387
-0.00239478
0.00180751
0.863494
-0.00133338
0.000992644
1.03579
-0.000662429
0.000400382
1.24276
-0.000162142
-6.98471e-07
1.49135
0.000179865
-0.000435569
1.49145
0.000698417
-0.00102545
1.24302
0.00136396
-0.00183201
1.03611
0.00240968
-0.00340575
0.863903
0.0047373
-0.00686666
0.721187
0.00966038
-0.014147
0.603701
0.0200777
-0.0294095
0.508771
0.0412764
-0.0588284
0.43372
0.0782094
-0.0969528
0.365519
0.0914913
0.19752
-0.130469
0.097789
0.0326795
-0.364564
0.356193
-0.057485
0.065856
-0.446214
0.44989
-0.0651989
0.0615233
-0.520535
0.525773
-0.0570621
0.0518239
-0.612152
0.61831
-0.0464193
0.0402611
-0.726353
0.732225
-0.0345689
0.028696
-0.867068
0.871747
-0.0237795
0.0191006
-1.0383
1.04169
-0.0154016
0.0120136
-1.24471
1.24734
-0.00928546
0.0066488
-1.49298
1.49535
-0.00438431
0.00200535
-1.49286
1.49505
0.000199463
-0.00238926
-1.24419
1.2464
0.00473973
-0.00694544
-1.03751
1.04019
0.00952349
-0.0122004
-0.865873
0.869553
0.015559
-0.0192389
-0.724048
0.728951
0.0239056
-0.0288089
-0.60833
0.614017
0.0346689
-0.0403561
-0.514536
0.519938
0.0465149
-0.051917
-0.439673
0.444122
0.0571571
-0.0616067
-0.374098
0.374738
0.0652647
-0.0659043
-0.259343
0.23452
0.0575163
-0.0326928
-0.0850757
0.0813531
0.00372266
-0.0212786
0.0270783
-0.371727
0.365927
-0.0311999
0.0332841
-0.445017
0.442933
-0.0336849
0.033147
-0.521785
0.522323
-0.0317655
0.0300783
-0.616971
0.618658
-0.0277213
0.0252367
-0.732465
0.73495
-0.0222011
0.0193018
-0.873098
0.875997
-0.0159958
0.0129743
-1.04346
1.04648
-0.0095864
0.00643357
-1.24928
1.25243
-0.00284353
-0.000558193
-1.49797
1.50137
0.00398862
-0.00753468
-1.49829
1.50183
0.0106819
-0.0140463
-1.25046
1.25383
0.0170214
-0.0202119
-1.04532
1.04851
0.0229977
-0.0258987
-0.875584
0.878485
0.0283012
-0.0305782
-0.735744
0.738021
0.0321878
-0.0334992
-0.620899
0.62221
0.0339832
-0.0335404
-0.527216
0.526773
0.0314311
-0.0272727
-0.44923
0.445072
0.0214262
-0.0126276
-0.34628
0.337481
0.0037527
-0.0850294
0.0812767
-0.0812868
0.0815444
-0.000257575
-0.0040787
0.00805316
-0.360056
0.356081
-0.0125129
0.0160463
-0.438873
0.43534
-0.0190633
0.020926
-0.521207
0.519344
-0.0221239
0.0224603
-0.619636
0.6193
-0.0220435
0.0209801
-0.736991
0.738054
-0.0191999
0.0171303
-0.878588
0.880658
-0.0145156
0.0119115
-1.04939
1.05199
-0.00890042
0.0060046
-1.25552
1.25842
-0.00255383
-0.000839403
-1.5048
1.5082
0.00419598
-0.00758244
-1.50535
1.50873
0.0104608
-0.0134097
-1.25707
1.26002
0.0158805
-0.0183822
-1.05146
1.05397
0.0203668
-0.0220672
-0.880956
0.882657
0.0230536
-0.0233863
-0.739731
0.740063
0.02296
-0.0216182
-0.622215
0.620873
0.0196302
-0.016486
-0.523954
0.52081
0.0128414
-0.00827432
-0.439292
0.434725
0.00421671
-0.000908674
-0.331484
0.328176
-0.000236808
-0.0811886
0.0814254
-0.0813784
0.0811681
0.000210279
-0.00205352
0.00365515
-0.353654
0.352052
-0.00563431
0.00743297
-0.43283
0.431031
-0.00922961
0.0106597
-0.517603
0.516173
-0.011897
0.0126935
-0.618568
0.617771
-0.0131274
0.0131225
-0.738372
0.738377
-0.0126508
0.0118114
-0.881934
0.882773
-0.0104575
0.00886556
-1.05402
1.05562
-0.00674006
0.00449837
-1.26105
1.26329
-0.0017403
-0.0010504
-1.51143
1.51422
0.00382193
-0.00651643
-1.5119
1.5146
0.00867465
-0.010723
-1.26257
1.26462
0.0122124
-0.0133918
-1.05565
1.05683
0.0140737
-0.0143787
-0.883414
0.883719
0.014236
-0.0136494
-0.739716
0.739129
0.0127245
-0.0113605
-0.619379
0.618015
0.00982339
-0.00792072
-0.518319
0.516416
0.00603679
-0.00396941
-0.43172
0.429652
0.00228143
-0.000929209
-0.326201
0.324849
0.000250337
-0.0812246
0.0809743
-0.0810526
0.0809697
8.29716e-05
-0.000969673
0.00169841
-0.350969
0.35024
-0.00262143
0.00350589
-0.429747
0.428863
-0.00447262
0.00531136
-0.515045
0.514206
-0.00613321
0.00672989
-0.617048
0.616452
-0.00717673
0.00736545
-0.738244
0.738055
-0.00729676
0.00695894
-0.883312
0.88365
-0.00626284
0.00532766
-1.05685
1.05779
-0.00397206
0.00245418
-1.26515
1.26667
-0.000569185
-0.00132334
-1.51653
1.51842
0.00318926
-0.00497424
-1.51681
1.5186
0.0063243
-0.00746304
-1.26618
1.26731
0.00824075
-0.00875093
-1.05763
1.05814
0.00890865
-0.00877735
-0.883754
0.883623
0.00840637
-0.00776573
-0.738471
0.73783
0.00700477
-0.006033
-0.616831
0.61586
0.00506903
-0.00397344
-0.514953
0.513858
0.00297832
-0.00194235
-0.428185
0.42715
0.00112077
-0.000447504
-0.323905
0.323232
0.000104038
-0.0808291
0.080725
-0.0808957
0.0808452
5.05115e-05
-0.000506242
0.000860132
-0.349737
0.349384
-0.00129993
0.0017254
-0.428255
0.42783
-0.00220081
0.00262802
-0.513605
0.513178
-0.00306556
0.00340794
-0.61599
0.615648
-0.00369303
0.00384507
-0.737869
0.737717
-0.00385929
0.00370542
-0.883867
0.88402
-0.00332534
0.00277045
-1.0585
1.05905
-0.00192587
0.000948441
-1.26789
1.26887
0.000294662
-0.00157675
-1.51998
1.52126
0.00282534
-0.00396041
-1.52003
1.52116
0.0047523
-0.00534591
-1.26814
1.26873
0.00568528
-0.00583506
-1.05844
1.05859
0.00577618
-0.00552989
-0.883409
0.883163
0.00517162
-0.00466913
-0.737255
0.736752
0.00414037
-0.00351734
-0.615085
0.614462
0.00293344
-0.00229821
-0.513036
0.512401
0.00173797
-0.0011644
-0.426397
0.425823
0.000704483
-0.000309614
-0.322726
0.322331
8.56734e-05
-0.0806251
0.0805394
-0.0808167
0.0808038
1.29362e-05
-0.000200957
0.000361516
-0.349139
0.348979
-0.00056522
0.000763739
-0.427533
0.427335
-0.000986406
0.00118631
-0.512879
0.512679
-0.0013911
0.0015515
-0.615404
0.615244
-0.00168163
0.0017413
-0.737611
0.737551
-0.00172
0.00160175
-0.884146
0.884264
-0.00134281
0.000974262
-1.0595
1.05987
-0.000415542
-0.000230682
-1.26966
1.2703
0.00106555
-0.00191028
-1.52231
1.52315
0.00270729
-0.00339712
-1.52205
1.52274
0.00384421
-0.00413488
-1.26915
1.26944
0.00424685
-0.00422083
-1.05864
1.05861
0.004077
-0.0038168
-0.882905
0.882645
0.00350882
-0.00312018
-0.736313
0.735924
0.00273793
-0.00230778
-0.61395
0.61352
0.00191739
-0.00150204
-0.511894
0.511479
0.00114146
-0.000774968
-0.425372
0.425005
0.000479102
-0.000218061
-0.322015
0.321754
6.27113e-05
-0.0804677
0.080405
-0.0808028
0.0808116
-8.8093e-06
-1.44294e-05
5.98221e-05
-0.348882
0.348837
-0.000124465
0.000187513
-0.427211
0.427148
-0.000255479
0.000312478
-0.512558
0.512501
-0.000363738
0.000393421
-0.615154
0.615124
-0.000398184
0.000367129
-0.737537
0.737568
-0.000281724
0.000144828
-0.884387
0.884524
8.32611e-05
-0.000371685
-1.06019
1.06047
0.000781069
-0.00123534
-1.27084
1.27129
0.00180373
-0.00235585
-1.52383
1.52439
0.00284837
-0.00324029
-1.52327
1.52366
0.00345726
-0.00354605
-1.26963
1.26972
0.00352758
-0.00340371
-1.05853
1.05841
0.00321852
-0.00295739
-0.882385
0.882124
0.00268334
-0.00236068
-0.735574
0.735252
0.00205757
-0.00172706
-0.613149
0.612818
0.0014334
-0.00112594
-0.511128
0.51082
0.000861904
-0.000594589
-0.424698
0.424431
0.000376573
-0.000178344
-0.32153
0.321332
5.39817e-05
-0.0803479
0.0802939
-0.0808302
0.0808575
-2.73173e-05
0.000101864
-0.000129592
-0.348833
0.34886
0.000162511
-0.000195842
-0.427137
0.42717
0.000238028
-0.000284204
-0.512499
0.512545
0.000346339
-0.000417304
-0.615148
0.615219
0.000515583
-0.000629723
-0.737642
0.737756
0.000787916
-0.000968702
-0.884681
0.884862
0.00121264
-0.00148049
-1.06075
1.06101
0.00182323
-0.00217383
-1.27169
1.27204
0.00258153
-0.00294501
-1.52483
1.5252
0.00323427
-0.00342016
-1.52394
1.52413
0.00348129
-0.00345168
-1.26973
1.26971
0.00332616
-0.00312838
-1.05824
1.05805
0.00290435
-0.00262772
-0.881857
0.881581
0.00235917
-0.00205834
-0.734945
0.734644
0.00178561
-0.0014952
-0.612514
0.612223
0.00124179
-0.000979688
-0.510542
0.51028
0.000756265
-0.000530153
-0.424189
0.423963
0.000343325
-0.000168189
-0.321149
0.320974
5.30218e-05
-0.0802414
0.0801884
-0.0808923
0.0809357
-4.3325e-05
0.000221603
-0.000312911
-0.34892
0.349011
0.000416565
-0.000519705
-0.42724
0.427343
0.000644316
-0.000770139
-0.512633
0.512758
0.000923057
-0.00107856
-0.615333
0.615488
0.00126844
-0.00146164
-0.73791
0.738103
0.00169751
-0.00193641
-0.88507
0.885309
0.00222467
-0.00250951
-1.06129
1.06157
0.0028398
-0.00314598
-1.27236
1.27267
0.00346574
-0.00371209
-1.52549
1.52574
0.0038649
-0.00390642
-1.52423
1.52427
0.0038423
-0.00369078
-1.26962
1.26947
0.00349726
-0.00323447
-1.05782
1.05755
0.00296603
-0.00265539
-0.88129
0.880979
0.0023666
-0.00205343
-0.734341
0.734028
0.00177562
-0.00148479
-0.611937
0.611646
0.001234
-0.000976765
-0.510024
0.509767
0.000758605
-0.000537979
-0.423743
0.423522
0.000354219
-0.000177962
-0.320801
0.320625
5.77758e-05
-0.0801337
0.0800759
-0.0809878
0.081049
-6.11668e-05
0.000327747
-0.000474756
-0.349131
0.349278
0.000646992
-0.000817808
-0.42748
0.427651
0.00102173
-0.00122431
-0.512923
0.513125
0.00146545
-0.00170391
-0.615685
0.615923
0.0019858
-0.00226241
-0.738337
0.738613
0.00258561
-0.00289731
-0.885582
0.885894
0.00325255
-0.00358289
-1.06188
1.06221
0.0039393
-0.00424303
-1.27297
1.27327
0.00452552
-0.00470385
-1.52595
1.52613
0.00476466
-0.00469814
-1.52426
1.52419
0.00454124
-0.00428637
-1.26926
1.26901
0.00400409
-0.00366
-1.05725
1.05691
0.00332881
-0.00295963
-0.880642
0.880273
0.00262586
-0.00227056
-0.733697
0.733342
0.00196007
-0.00163844
-0.611343
0.611022
0.00136331
-0.00108262
-0.509501
0.50922
0.000845138
-0.000604845
-0.423295
0.423055
0.000403092
-0.000206052
-0.32044
0.320243
6.81314e-05
-0.0800135
0.0799454
-0.0811198
0.0812012
-8.13082e-05
0.000446552
-0.000653433
-0.349454
0.349661
0.000897426
-0.00113903
-0.427856
0.428098
0.00142624
-0.00171009
-0.513367
0.513651
0.00204558
-0.00237472
-0.616206
0.616535
0.00275942
-0.00313129
-0.738936
0.739308
0.00355823
-0.0039608
-0.886249
0.886651
0.00440758
-0.00480894
-1.06257
1.06297
0.0052239
-0.00555696
-1.27359
1.27392
0.00583849
-0.00597929
-1.52628
1.52642
0.00597115
-0.00580887
-1.52408
1.52392
0.00555586
-0.00519699
-1.2687
1.26834
0.00482088
-0.00437915
-1.05652
1.05608
0.00396447
-0.00351119
-0.879865
0.879412
0.00310701
-0.00268129
-0.732955
0.732529
0.00231218
-0.00193197
-0.610674
0.610294
0.0016079
-0.00127818
-0.508918
0.508588
0.000999922
-0.000718536
-0.422796
0.422515
0.000481511
-0.000248027
-0.32003
0.319796
8.26418e-05
-0.0798707
0.079788
-0.0812944
0.0814011
-0.00010664
0.000590139
-0.000866109
-0.349901
0.350177
0.00119218
-0.00151517
-0.428378
0.428701
0.00189877
-0.00227708
-0.51398
0.514358
0.00272296
-0.00315863
-0.616915
0.61735
0.00366529
-0.00415193
-0.739734
0.740221
0.00470582
-0.00522264
-0.887108
0.887624
0.00578823
-0.00628758
-1.06342
1.06392
0.00679115
-0.00718112
-1.27428
1.27467
0.00748891
-0.00761246
-1.52655
1.52668
0.00754613
-0.0072897
-1.52371
1.52345
0.00693379
-0.00645355
-1.26793
1.26744
0.00596437
-0.00539951
-1.05558
1.05501
0.0048764
-0.00430992
-0.878906
0.87834
0.00380836
-0.00328321
-0.732058
0.731532
0.0028298
-0.00236419
-0.609875
0.609409
0.00196828
-0.00156618
-0.508226
0.507824
0.00122724
-0.000884381
-0.422205
0.421862
0.000594721
-0.000307856
-0.319538
0.319251
0.000103157
-0.0796959
0.0795927
-0.0815226
0.081661
-0.00013846
0.000768408
-0.0011293
-0.350493
0.350854
0.00155595
-0.00197827
-0.429071
0.429494
0.00247929
-0.00297296
-0.514791
0.515285
0.00355401
-0.00412059
-0.617848
0.618414
0.00477784
-0.00540701
-0.740774
0.741403
0.00612012
-0.00678159
-0.888209
0.888871
0.0075003
-0.00812825
-1.06448
1.0651
0.00875269
-0.00922564
-1.2751
1.27557
0.00958288
-0.00970163
-1.5268
1.52692
0.0095792
-0.00921813
-1.52314
1.52278
0.00874188
-0.00811406
-1.26689
1.26627
0.00748318
-0.00676212
-1.05437
1.05365
0.0060986
-0.00538406
-0.877704
0.876989
0.00475374
-0.00409579
-0.730945
0.730287
0.00352862
-0.00294735
-0.608889
0.608308
0.0024536
-0.00195299
-0.507376
0.506875
0.0015312
-0.00110455
-0.421481
0.421054
0.000743682
-0.000385467
-0.318932
0.318573
0.000129241
-0.0794773
0.079348
-0.0818186
0.081998
-0.000179406
0.000995229
-0.00146294
-0.351265
0.351732
0.00201598
-0.00256333
-0.429975
0.430522
0.00321238
-0.00385127
-0.515847
0.516486
0.00460252
-0.0053341
-0.619058
0.61979
0.00618123
-0.00699035
-0.742117
0.742926
0.00790465
-0.00874995
-0.889618
0.890464
0.00966381
-0.0104575
-1.06581
1.0666
0.0112394
-0.011823
-1.27609
1.27668
0.0122501
-0.0123709
-1.52704
1.52716
0.0121847
-0.011698
-1.52236
1.52188
0.0110735
-0.010261
-1.26555
1.26474
0.00945175
-0.00853132
-1.05284
1.05192
0.00768834
-0.00678274
-0.876185
0.87528
0.00598622
-0.00515582
-0.729549
0.728718
0.00444137
-0.00370961
-0.607657
0.606925
0.00308878
-0.00245905
-0.506314
0.505684
0.00192827
-0.00139121
-0.420576
0.420039
0.000936939
-0.000485809
-0.318171
0.31772
0.000162938
-0.079203
0.07904
-0.0822025
0.0824355
-0.00023303
0.00128878
-0.00189332
-0.352264
0.352869
0.00260788
-0.00331501
-0.431144
0.431851
0.00415302
-0.00497746
-0.517211
0.518036
0.00594593
-0.00688799
-0.62062
0.621562
0.00797727
-0.00901579
-0.743843
0.744882
0.0101868
-0.011266
-0.891419
0.892498
0.0124282
-0.0134321
-1.0675
1.0685
0.0144139
-0.015138
-1.27733
1.27805
0.0156542
-0.0157782
-1.52728
1.5274
0.0155122
-0.0148674
-1.52131
1.52067
0.0140555
-0.0130093
-1.26382
1.26277
0.0119725
-0.0107984
-1.05088
1.0497
0.00972552
-0.00857566
-0.87426
0.87311
0.00756543
-0.00651367
-0.727784
0.726732
0.00560949
-0.00468435
-0.606102
0.605177
0.00389976
-0.00310432
-0.504977
0.504181
0.0024342
-0.00175631
-0.419436
0.418758
0.0011829
-0.00061322
-0.317214
0.316644
0.000205479
-0.0788569
0.0786514
-0.0827014
0.0830052
-0.000303798
0.00167237
-0.00245425
-0.353556
0.354338
0.00337787
-0.00429164
-0.432655
0.433569
0.00537378
-0.00643762
-0.518972
0.520036
0.00768614
-0.00889906
-0.622631
0.623844
0.0102993
-0.0116315
-0.746058
0.74739
0.0131298
-0.0145061
-0.893717
0.895093
0.0159824
-0.0172507
-1.06963
1.0709
0.0184817
-0.0193786
-1.27886
1.27975
0.020001
-0.0201227
-1.52753
1.52765
0.0197498
-0.0188998
-1.51993
1.51908
0.0178473
-0.0165021
-1.26158
1.26024
0.0151761
-0.0136792
-1.04838
1.04688
0.0123146
-0.0108546
-0.871814
0.870354
0.00957327
-0.00824055
-0.725548
0.724216
0.0070954
-0.00592413
-0.604136
0.602965
0.00493093
-0.00392439
-0.503287
0.50228
0.00307681
-0.00221971
-0.417996
0.417139
0.0014947
-0.000774513
-0.316003
0.315283
0.000259323
-0.0784208
0.0781615
-0.0833528
0.0837512
-0.000398461
0.00217923
-0.00319322
-0.355228
0.356242
0.00439009
-0.00557363
-0.434608
0.435792
0.00697401
-0.00834911
-0.521245
0.52262
0.00996069
-0.0115238
-0.625221
0.626784
0.0133246
-0.0150338
-0.748899
0.750608
0.0169497
-0.018703
-0.896647
0.8984
0.020574
-0.0221712
-1.07232
1.07392
0.023707
-0.0248098
-1.28075
1.28185
0.0255502
-0.0256531
-1.52776
1.52787
0.0251321
-0.0240126
-1.5181
1.51698
0.0226502
-0.0209233
-1.25872
1.25699
0.0192291
-0.0173226
-1.04519
1.04328
0.0155884
-0.0137353
-0.868709
0.866856
0.012111
-0.0104226
-0.722715
0.721027
0.00897246
-0.00748967
-0.601647
0.600165
0.00623279
-0.00495931
-0.501148
0.499875
0.00388705
-0.00280274
-0.416174
0.41509
0.00188578
-0.000975733
-0.314474
0.313564
0.000325961
-0.0778705
0.0775445
-0.0842094
0.084737
-0.000527667
0.00285963
-0.00418099
-0.357398
0.35872
0.00573847
-0.00727726
-0.43714
0.438679
0.00909558
-0.0108788
-0.524185
0.525969
0.012965
-0.0149838
-0.62856
0.630579
0.0173032
-0.0194967
-0.752544
0.754738
0.0219451
-0.0241734
-0.900378
0.902606
0.0265356
-0.0285345
-1.07571
1.07771
0.0304338
-0.0317718
-1.28307
1.28441
0.0326302
-0.0326816
-1.52795
1.528
0.0319507
-0.0304744
-1.5157
1.51422
0.0287122
-0.026499
-1.25503
1.25282
0.0243392
-0.0219161
-1.04113
1.03871
0.0197161
-0.017368
-0.864769
0.862421
0.0153115
-0.0131747
-0.719127
0.716991
0.0113406
-0.00946539
-0.598497
0.596622
0.00787628
-0.00626609
-0.498442
0.496832
0.0049102
-0.00353905
-0.413871
0.4125
0.00237983
-0.00123012
-0.312541
0.311391
0.000410325
-0.0771788
0.0767685
-0.0853474
0.0860552
-0.000707856
0.00378932
-0.00552397
-0.360231
0.361966
0.00756521
-0.00957874
-0.440437
0.442451
0.0119535
-0.0142771
-0.528003
0.530326
0.0169879
-0.0196025
-0.632876
0.63549
0.0225937
-0.0254086
-0.757223
0.760038
0.0285312
-0.031352
-0.905115
0.907936
0.0343138
-0.0367906
-1.07993
1.08241
0.0391052
-0.0406933
-1.28587
1.28746
0.0416461
-0.0415859
-1.52801
1.52795
0.0405548
-0.0386066
-1.51253
1.51058
0.0363306
-0.0335019
-1.25032
1.24749
0.0307569
-0.0276871
-1.03598
1.03291
0.0249052
-0.0219389
-0.859781
0.856815
0.0193416
-0.0166433
-0.714589
0.71189
0.0143265
-0.0119578
-0.594514
0.592145
0.00994976
-0.00791493
-0.495022
0.492987
0.00620118
-0.00446798
-0.410958
0.409225
0.00300266
-0.00155017
-0.310099
0.308646
0.000516043
-0.0763083
0.0757923
-0.0868831
0.0878514
-0.000968265
0.00510046
-0.00740565
-0.363957
0.366262
0.0101094
-0.0127669
-0.44476
0.447417
0.0158904
-0.0189357
-0.532986
0.536031
0.0224738
-0.0258699
-0.638471
0.641867
0.0297321
-0.0333398
-0.763226
0.766834
0.0373056
-0.0408485
-0.911101
0.914644
0.0445186
-0.0475361
-1.08515
1.08817
0.0502906
-0.0521091
-1.28917
1.29099
0.0530881
-0.0528125
-1.52779
1.52752
0.051352
-0.0487822
-1.50834
1.50577
0.0458539
-0.0422574
-1.2443
1.2407
0.0387883
-0.0349207
-1.02946
1.0256
0.0314197
-0.0276875
-0.853485
0.849753
0.0244187
-0.0210207
-0.70886
0.705462
0.0181014
-0.0151139
-0.589484
0.586496
0.0125794
-0.0100087
-0.4907
0.488129
0.00784191
-0.00564887
-0.407277
0.405084
0.00379409
-0.00195644
-0.307014
0.305176
0.00065015
-0.0752132
0.0745631
-0.0890031
0.0903742
-0.00137115
0.0070582
-0.0101877
-0.368909
0.372039
0.0138256
-0.0173725
-0.450481
0.454028
0.0215131
-0.0255274
-0.539541
0.543556
0.0301626
-0.0345805
-0.645753
0.650171
0.0395596
-0.0441592
-0.770916
0.775515
0.0491463
-0.0535304
-0.918595
0.922979
0.0579824
-0.0615549
-1.09147
1.09504
0.0647063
-0.0666673
-1.29289
1.29485
0.0675281
-0.0668695
-1.52708
1.52642
0.0647997
-0.0614207
-1.50282
1.49944
0.0576782
-0.0531435
-1.23666
1.23212
0.0487998
-0.0439708
-1.02127
1.01644
0.0396022
-0.0349409
-0.845575
0.840914
0.0308513
-0.0265916
-0.701652
0.697392
0.0229241
-0.0191635
-0.58314
0.579379
0.0159669
-0.0127181
-0.485239
0.481991
0.00997347
-0.00718899
-0.40262
0.399836
0.00482899
-0.00248926
-0.303112
0.300772
0.000827122
-0.0738311
0.073004
-0.092024
0.0941193
-0.00209527
0.0103365
-0.014722
-0.375598
0.379983
0.0196965
-0.0244595
-0.45818
0.462943
0.0299579
-0.0352519
-0.548265
0.553559
0.0413157
-0.047039
-0.655261
0.660984
0.0534051
-0.0591873
-0.780695
0.786477
0.0653277
-0.0705981
-0.927802
0.933072
0.0757989
-0.0798279
-1.09886
1.10288
0.0832032
-0.0851036
-1.29682
1.29872
0.0855871
-0.0842903
-1.52548
1.52418
0.0813694
-0.076957
-1.49558
1.49116
0.0722242
-0.0665811
-1.22705
1.22141
0.0612185
-0.0552755
-1.01107
1.00512
0.0499003
-0.0441537
-0.835719
0.829972
0.0390971
-0.0338097
-0.692619
0.687331
0.0292396
-0.0245341
-0.575142
0.570437
0.0205165
-0.0164126
-0.478327
0.474223
0.0129231
-0.0093557
-0.396715
0.393148
0.00630489
-0.00325863
-0.298157
0.29511
0.00108791
-0.0720704
0.0709825
-0.0965372
0.100242
-0.00370483
0.0167146
-0.0229741
-0.384931
0.391191
0.0297352
-0.0360537
-0.468835
0.475154
0.0432716
-0.050194
-0.560016
0.566938
0.0580513
-0.0653522
-0.667615
0.674916
0.0733049
-0.080341
-0.792872
0.799908
0.0875835
-0.0935902
-0.938698
0.944705
0.0992826
-0.103467
-1.10701
1.11119
0.106688
-0.108159
-1.30044
1.30191
0.107862
-0.105572
-1.52242
1.52013
0.101497
-0.0958026
-1.48613
1.48044
0.0899065
-0.0830116
-1.21515
1.20825
0.0765276
-0.0693741
-0.998573
0.99142
0.0629113
-0.0559913
-0.823608
0.816688
0.0498814
-0.0434612
-0.681402
0.674981
0.0378798
-0.0320998
-0.565075
0.559295
0.0271287
-0.021999
-0.469519
0.464389
0.017572
-0.012955
-0.389149
0.384532
0.0088731
-0.00465827
-0.291813
0.287598
0.00158348
-0.0697912
0.0682078
-0.103896
0.111665
-0.00776903
0.031185
-0.0397624
-0.398826
0.407403
0.0483332
-0.0563843
-0.483971
0.492022
0.0656537
-0.0744911
-0.575697
0.584534
0.0843451
-0.0932184
-0.683132
0.692005
0.102526
-0.110438
-0.807261
0.815173
0.118239
-0.124404
-0.950703
0.956868
0.129924
-0.133639
-1.1151
1.11881
0.136052
-0.136512
-1.30286
1.30332
0.134866
-0.13112
-1.51711
1.51336
0.125537
-0.118308
-1.47396
1.46673
0.111099
-0.102875
-1.20066
1.19244
0.0952444
-0.0868993
-0.983622
0.975277
0.0793902
-0.0713637
-0.809091
0.801064
0.0642734
-0.0568047
-0.667765
0.660297
0.0502879
-0.043509
-0.552547
0.545768
0.037633
-0.0314943
-0.458247
0.452109
0.0260785
-0.0201461
-0.379218
0.373286
0.0142861
-0.00758261
-0.283387
0.276683
0.00254231
-0.0667312
0.0641889
-0.119977
0.12222
-0.00224375
0.0179441
-0.0261732
-0.420338
0.428568
0.0351312
-0.0441851
-0.504406
0.513459
0.0548361
-0.0654659
-0.594984
0.605614
0.0768985
-0.0870319
-0.700885
0.711018
0.0982193
-0.108059
-0.822554
0.832394
0.118214
-0.126878
-0.962298
0.970963
0.135436
-0.142247
-1.12163
1.12844
0.148249
-0.152145
-1.30275
1.30665
0.154144
-0.153447
-1.50851
1.50781
0.149931
-0.143993
-1.45852
1.45258
0.137052
-0.128215
-1.18346
1.17462
0.119561
-0.109138
-0.966289
0.955867
0.0994837
-0.0887355
-0.792376
0.781628
0.0789934
-0.0685038
-0.651947
0.641458
0.0589527
-0.049102
-0.53771
0.52786
0.040768
-0.0318106
-0.44437
0.435413
0.0240337
-0.0157232
-0.366206
0.357896
0.00845364
-0.00247238
-0.270712
0.264731
-0.000206403
-0.0617406
0.061947
-0.129666
0.124146
0.0055206
-0.00364606
-0.00250858
-0.441209
0.447363
0.0106254
-0.0185854
-0.525227
0.533187
0.0283173
-0.0373374
-0.61612
0.62514
0.0474458
-0.056623
-0.721141
0.730318
0.0663843
-0.0752044
-0.841827
0.850647
0.0843439
-0.0918859
-0.979432
0.986974
0.0995431
-0.105333
-1.13523
1.14102
0.110406
-0.11343
-1.31049
1.31351
0.114413
-0.113028
-1.50663
1.50524
0.109059
-0.102955
-1.44625
1.44015
0.095922
-0.0873373
-1.16575
1.15716
0.0791572
-0.0698746
-0.945673
0.93639
0.0612441
-0.0516986
-0.770899
0.761353
0.0432046
-0.0344987
-0.630298
0.621592
0.0271346
-0.0196405
-0.516648
0.509154
0.0134521
-0.00756582
-0.423981
0.418094
0.00296415
0.00121328
-0.347012
0.342834
-0.00372582
0.00430768
-0.255691
0.255109
-0.00259387
-0.0590769
0.0616708
-0.126752
0.122769
0.0039834
-0.0060607
0.00248242
-0.457081
0.460659
0.00293368
-0.00904161
-0.542538
0.548646
0.0165206
-0.0238226
-0.634063
0.641365
0.0320806
-0.0396904
-0.738933
0.746542
0.0480562
-0.0555011
-0.858753
0.866198
0.0630431
-0.0696172
-0.994312
1.00089
0.0761336
-0.0811593
-1.14646
1.15148
0.0851885
-0.0873754
-1.31604
1.31823
0.0879508
-0.0862497
-1.50349
1.50179
0.0822707
-0.0765264
-1.4339
1.42816
0.0701951
-0.0628568
-1.14905
1.14171
0.0557216
-0.0480345
-0.927526
0.919839
0.0410724
-0.0335595
-0.752895
0.745382
0.0272119
-0.020738
-0.613417
0.606943
0.0154726
-0.0101056
-0.501217
0.49585
0.00604454
-0.00245027
-0.410396
0.406802
-0.000127898
0.00231279
-0.335566
0.333381
-0.00351468
0.00327706
-0.248578
0.248816
-0.00179825
-0.0594781
0.0612764
-0.125515
0.122554
0.00296066
-0.00535569
0.00304999
-0.468198
0.470504
0.000925052
-0.00585786
-0.555544
0.560477
0.0120378
-0.017851
-0.648191
0.654005
0.0246107
-0.0308816
-0.753738
0.760009
0.0377713
-0.0439645
-0.873098
0.879291
0.0506335
-0.0560996
-1.007
1.01247
0.0617317
-0.0656646
-1.15614
1.16007
0.0690769
-0.0708386
-1.32031
1.32207
0.0709888
-0.0689696
-1.49991
1.49789
0.0653182
-0.0602181
-1.42232
1.41722
0.0546866
-0.0481137
-1.13469
1.12811
0.042132
-0.0358201
-0.912492
0.906181
0.0300595
-0.02423
-0.738547
0.732718
0.0190106
-0.0139139
-0.600591
0.595494
0.00972703
-0.00573507
-0.490163
0.486171
0.00274535
-3.43138e-05
-0.401104
0.398393
-0.00188914
0.00308924
-0.327837
0.326637
-0.00383502
0.00324436
-0.243446
0.244037
-0.00165231
-0.0591298
0.0607821
-0.125842
0.123492
0.00234964
-0.00439456
0.00273794
-0.476884
0.478541
0.000962069
-0.0050543
-0.566221
0.570313
0.0100629
-0.015231
-0.659761
0.664929
0.0208654
-0.0263615
-0.765885
0.771382
0.0323061
-0.0376704
-0.885085
0.890449
0.0433753
-0.0482382
-1.01779
1.02266
0.0529996
-0.0566173
-1.16388
1.1675
0.0594952
-0.0608768
-1.32354
1.32492
0.0607487
-0.0586479
-1.49582
1.49372
0.0551359
-0.0502312
-1.41175
1.40684
0.0452215
-0.0395188
-1.12185
1.11615
0.0343204
-0.0287767
-0.900012
0.894468
0.0239516
-0.0189862
-0.727043
0.722077
0.0147516
-0.0105095
-0.590512
0.58627
0.00710119
-0.0038645
-0.481623
0.478386
0.0012882
0.000919004
-0.394
0.391792
-0.00221185
0.00324225
-0.322147
0.321117
-0.00381469
0.00295376
-0.239468
0.240329
-0.0015139
-0.0589234
0.0604373
-0.126667
0.124632
0.00203444
-0.00356367
0.00178467
-0.484311
0.48609
0.00126006
-0.00507993
-0.574879
0.578699
0.00994745
-0.0144685
-0.669678
0.674199
0.0194688
-0.0243685
-0.776385
0.781285
0.029765
-0.0346467
-0.895547
0.900429
0.0399563
-0.0442843
-1.02727
1.0316
0.0486205
-0.0518878
-1.17083
1.1741
0.0543642
-0.0554239
-1.32602
1.32708
0.0549773
-0.0530252
-1.49151
1.48955
0.0494198
-0.0447633
-1.40161
1.39696
0.0399803
-0.0346252
-1.11044
1.10509
0.0300485
-0.0249223
-0.889036
0.88391
0.0205609
-0.0162617
-0.717246
0.712947
0.0125671
-0.00887965
-0.5822
0.578512
0.00589043
-0.00289806
-0.474681
0.471689
0.000829115
0.00105976
-0.388188
0.386299
-0.00241795
0.00322978
-0.317274
0.316462
-0.0035345
0.00280725
-0.236291
0.237018
-0.00139365
-0.0587771
0.0601708
-0.127759
0.126188
0.00157136
-0.00247206
0.000771636
-0.491165
0.492865
0.0024396
-0.0058463
-0.583068
0.586475
0.0104834
-0.0147624
-0.678654
0.682933
0.0197438
-0.0241926
-0.78607
0.790518
0.0291708
-0.0336946
-0.905384
0.909908
0.038898
-0.0429629
-1.036
1.04006
0.0469008
-0.0500193
-1.17715
1.18027
0.0526015
-0.0534089
-1.32806
1.32887
0.0527939
-0.0505056
-1.48706
1.48477
0.0469652
-0.0419472
-1.39197
1.38695
0.037302
-0.0321952
-1.09959
1.09448
0.027668
-0.0229854
-0.878897
0.874214
0.0188924
-0.0147606
-0.708513
0.704381
0.0115893
-0.00816252
-0.574797
0.57137
0.00533779
-0.00275844
-0.468462
0.465883
0.000738509
0.00115146
-0.383288
0.381398
-0.00232058
0.00304211
-0.313276
0.312554
-0.003253
0.00262205
-0.233583
0.234214
-0.00134722
-0.0587114
0.0600586
-0.129273
0.128018
0.00125487
-0.00149391
-0.000225539
-0.497565
0.499285
0.00366947
-0.00718489
-0.590776
0.594291
0.0116619
-0.0157455
-0.687202
0.691286
0.0203366
-0.0248762
-0.795163
0.799703
0.0297427
-0.0346015
-0.91438
0.919238
0.0393473
-0.0434011
-1.04425
1.04831
0.0475723
-0.0504992
-1.18324
1.18617
0.0525937
-0.0536256
-1.32943
1.33047
0.0528313
-0.0503203
-1.48222
1.47971
0.0463379
-0.0412114
-1.38179
1.37666
0.0363429
-0.0310675
-1.08892
1.08364
0.0265672
-0.0219118
-0.86938
0.864725
0.0179531
-0.0141477
-0.700328
0.696523
0.0108785
-0.00774115
-0.567897
0.56476
0.00521536
-0.00266476
-0.463006
0.460455
0.000683833
0.000883163
-0.378675
0.377108
-0.00204732
0.00283056
-0.309664
0.308881
-0.00308663
0.00249333
-0.231257
0.23185
-0.00133337
-0.0588604
0.0601938
-0.131213
0.130114
0.00109945
-0.000403322
-0.00170702
-0.503828
0.505938
0.00511145
-0.00873802
-0.598383
0.60201
0.0130652
-0.0172487
-0.695673
0.699857
0.0219444
-0.0263597
-0.804289
0.808704
0.0316109
-0.0359725
-0.923698
0.928059
0.0409162
-0.0449876
-1.05257
1.05664
0.0492089
-0.0523917
-1.18905
1.19223
0.0547052
-0.0553512
-1.33108
1.33172
0.0544513
-0.0516589
-1.4767
1.4739
0.0474483
-0.0416792
-1.37093
1.36516
0.036409
-0.030744
-1.07812
1.07246
0.0260396
-0.0212134
-0.859749
0.854922
0.0173221
-0.0134609
-0.692515
0.688654
0.0103062
-0.00726297
-0.561527
0.558484
0.0047738
-0.00257305
-0.45777
0.455569
0.000657786
0.000853656
-0.374475
0.372964
-0.00205752
0.00276037
-0.306313
0.30561
-0.00294188
0.00250373
-0.229139
0.229577
-0.00128683
-0.0591937
0.0604805
-0.133259
0.132534
0.000724414
0.000601412
-0.0032395
-0.510321
0.512959
0.00656041
-0.0103089
-0.605667
0.609415
0.0144927
-0.0187765
-0.704113
0.708397
0.0235778
-0.0283691
-0.813228
0.818019
0.0333285
-0.0380909
-0.932763
0.937526
0.0432636
-0.0473552
-1.06119
1.06528
0.0518641
-0.0551143
-1.19522
1.19847
0.0574927
-0.0584626
-1.33253
1.3335
0.0575649
-0.0543022
-1.47062
1.46736
0.0493094
-0.043005
-1.35887
1.35256
0.0371782
-0.0308384
-1.06621
1.05987
0.0256148
-0.0206568
-0.849817
0.844859
0.0163162
-0.0125761
-0.684555
0.680815
0.00949653
-0.00649625
-0.55556
0.55256
0.00428654
-0.00213914
-0.45292
0.450772
0.00044943
0.00112125
-0.370819
0.369248
-0.00212352
0.00278423
-0.303333
0.302672
-0.00307855
0.00260313
-0.227331
0.227806
-0.00136948
-0.0596637
0.0610332
-0.135624
0.135107
0.000517323
0.00143219
-0.00402505
-0.517017
0.51961
0.00800337
-0.0115868
-0.613374
0.616958
0.0160886
-0.020464
-0.712546
0.716921
0.0253871
-0.03006
-0.822722
0.827395
0.0354283
-0.0401614
-0.942454
0.947188
0.0455766
-0.0503264
-1.06991
1.07466
0.0547464
-0.058484
-1.20177
1.20551
0.0613175
-0.0622787
-1.33419
1.33515
0.0613123
-0.0580178
-1.4637
1.4604
0.0522955
-0.0450971
-1.34527
1.33807
0.0381719
-0.0309544
-1.0529
1.04568
0.0251579
-0.0195754
-0.839241
0.833658
0.015115
-0.0112042
-0.676612
0.672701
0.00815913
-0.00524732
-0.549581
0.546669
0.00309771
-0.00124002
-0.448507
0.446649
-0.000381722
0.00171206
-0.36737
0.366039
-0.00262225
0.00321116
-0.300673
0.300084
-0.00333228
0.00275384
-0.22598
0.226558
-0.00145849
-0.0604709
0.0619294
-0.138198
0.137959
0.000239077
0.002437
-0.00523333
-0.523813
0.526609
0.00905851
-0.0129213
-0.620993
0.624856
0.0175036
-0.0219335
-0.721181
0.725611
0.0271867
-0.0319602
-0.832248
0.837022
0.0374678
-0.0425875
-0.952537
0.957657
0.0482192
-0.0532281
-1.07941
1.08442
0.0581564
-0.0621547
-1.20923
1.21323
0.0653533
-0.0670108
-1.33622
1.33788
0.0661711
-0.0623991
-1.45642
1.45265
0.0560926
-0.0475253
-1.32972