/*--------------------------------*- C++ -*----------------------------------*\
  =========                 |
  \\      /  F ield         | OpenFOAM: The Open Source CFD Toolbox
   \\    /   O peration     | Website:  https://openfoam.org
    \\  /    A nd           | Version:  7
     \\/     M anipulation  |
\*---------------------------------------------------------------------------*/
FoamFile
{
    version     2.0;
    format      ascii;
    class       volScalarField;
    location    "4.86";
    object      T;
}
// * * * * * * * * * * * * * * * * * * * * * * * * * * * * * * * * * * * * * //

dimensions      [0 0 0 1 0 0 0];

internalField   nonuniform List<scalar> 
1000
(
6.14895e-43
7.07558e-43
9.06614e-43
1.24152e-42
1.76177e-42
2.54401e-42
3.70323e-42
5.4093e-42
7.91147e-42
1.15741e-41
1.69288e-41
2.47504e-41
3.61665e-41
5.2818e-41
7.70898e-41
1.12447e-40
1.63919e-40
2.38806e-40
3.47688e-40
5.05901e-40
7.35648e-40
1.06906e-39
1.55262e-39
2.25349e-39
3.26869e-39
4.73825e-39
6.86419e-39
9.93773e-39
1.43784e-38
2.07902e-38
3.00422e-38
4.3384e-38
6.2611e-38
9.03015e-38
1.30156e-37
1.87479e-37
2.69876e-37
3.88238e-37
5.58153e-37
8.01914e-37
1.15139e-36
1.65211e-36
2.36904e-36
3.39489e-36
4.86179e-36
6.95801e-36
9.95156e-36
1.42237e-35
2.03167e-35
2.90007e-35
4.13694e-35
5.89745e-35
8.40164e-35
1.19613e-34
1.70179e-34
2.41961e-34
3.43794e-34
4.88162e-34
6.92692e-34
9.82264e-34
1.39196e-33
1.97122e-33
2.78967e-33
3.9453e-33
5.57592e-33
7.87519e-33
1.11151e-32
1.56773e-32
2.20973e-32
3.11251e-32
4.38116e-32
6.16272e-32
8.66286e-32
1.2169e-31
1.70825e-31
2.39635e-31
3.35934e-31
4.70608e-31
6.58819e-31
9.21669e-31
1.2885e-30
1.80009e-30
2.51307e-30
3.50602e-30
4.88791e-30
6.80973e-30
9.48059e-30
1.31898e-29
1.83374e-29
2.54761e-29
3.53693e-29
4.90697e-29
6.80294e-29
9.42484e-29
1.30481e-28
1.80514e-28
2.49557e-28
3.44762e-28
4.75951e-28
6.56594e-28
9.05154e-28
1.24692e-27
1.71651e-27
2.36125e-27
3.24583e-27
4.45861e-27
6.12014e-27
8.39482e-27
1.15066e-26
1.57605e-26
2.15715e-26
2.95036e-26
4.03232e-26
5.50706e-26
7.51569e-26
1.02495e-25
1.39675e-25
1.90202e-25
2.58819e-25
3.51932e-25
4.78191e-25
6.4927e-25
8.80906e-25
1.1943e-24
1.61799e-24
2.19037e-24
2.96304e-24
4.0053e-24
5.41015e-24
7.30231e-24
9.8489e-24
1.32737e-23
1.78759e-23
2.40559e-23
3.2348e-23
4.34659e-23
5.83609e-23
7.83011e-23
1.04975e-22
1.40629e-22
1.88251e-22
2.51808e-22
3.36566e-22
4.49513e-22
5.99905e-22
8.00004e-22
1.06603e-21
1.41943e-21
1.88854e-21
2.51076e-21
3.33541e-21
4.42752e-21
5.87267e-21
7.78351e-21
1.03081e-20
1.36411e-20
1.80376e-20
2.38327e-20
3.1465e-20
4.15093e-20
5.47173e-20
7.20715e-20
9.48555e-20
1.24745e-19
1.63923e-19
2.15237e-19
2.82391e-19
3.70206e-19
4.84946e-19
6.34746e-19
8.30161e-19
1.08488e-18
1.41662e-18
1.84834e-18
2.4097e-18
3.13906e-18
4.08591e-18
5.31411e-18
6.90597e-18
8.96748e-18
1.1635e-17
1.50839e-17
1.95395e-17
2.52907e-17
3.27083e-17
4.22672e-17
5.45755e-17
7.04109e-17
9.07672e-17
1.16914e-16
1.50469e-16
1.93498e-16
2.48628e-16
3.19204e-16
4.09479e-16
5.24854e-16
6.72186e-16
8.60167e-16
1.09981e-15
1.40507e-15
1.79356e-15
2.28759e-15
2.91527e-15
3.71211e-15
4.72282e-15
6.00374e-15
7.62572e-15
9.67784e-15
1.2272e-14
1.55484e-14
1.96832e-14
2.48967e-14
3.14646e-14
3.9732e-14
5.01294e-14
6.31944e-14
7.95975e-14
1.00174e-13
1.25963e-13
1.58257e-13
1.98662e-13
2.49171e-13
3.12258e-13
3.90985e-13
4.89145e-13
6.11426e-13
7.63626e-13
9.52898e-13
1.18807e-12
1.48e-12
1.8421e-12
2.29082e-12
2.8464e-12
3.53367e-12
4.38312e-12
5.43207e-12
6.72625e-12
8.32158e-12
1.02864e-11
1.27041e-11
1.56764e-11
1.93274e-11
2.38081e-11
2.93019e-11
3.60321e-11
4.42695e-11
5.43426e-11
6.66495e-11
8.16721e-11
9.99931e-11
1.22317e-10
1.49493e-10
1.82546e-10
2.22712e-10
2.71477e-10
3.30628e-10
4.02312e-10
4.89105e-10
5.94098e-10
7.20991e-10
8.74212e-10
1.05906e-09
1.28184e-09
1.55012e-09
1.87288e-09
2.26083e-09
2.72672e-09
3.28567e-09
3.95568e-09
4.75805e-09
5.71807e-09
6.86564e-09
8.23614e-09
9.87136e-09
1.18206e-08
1.41421e-08
1.69043e-08
2.01878e-08
2.40875e-08
2.87145e-08
3.41995e-08
4.06954e-08
4.83815e-08
5.74673e-08
6.81976e-08
8.08582e-08
9.57823e-08
1.13358e-07
1.34037e-07
1.58345e-07
1.86891e-07
2.20383e-07
2.5964e-07
3.05611e-07
3.59394e-07
4.22257e-07
4.95663e-07
5.81299e-07
6.81106e-07
7.97321e-07
9.32512e-07
1.08963e-06
1.27205e-06
1.48365e-06
1.72886e-06
2.01275e-06
2.3411e-06
2.72052e-06
3.15853e-06
3.66369e-06
4.24572e-06
4.9157e-06
5.68615e-06
6.57131e-06
7.58725e-06
8.75218e-06
1.00867e-05
1.16139e-05
1.336e-05
1.53545e-05
1.76303e-05
2.02248e-05
2.31797e-05
2.65417e-05
3.03632e-05
3.47028e-05
3.96259e-05
4.52055e-05
5.1523e-05
5.8669e-05
6.67442e-05
7.58604e-05
8.61419e-05
9.77262e-05
0.000110766
0.000125428
0.0001419
0.000160386
0.000181113
0.000204328
0.000230305
0.000259344
0.000291774
0.000327954
0.000368278
0.000413177
0.000463121
0.00051862
0.000580232
0.000648561
0.000724265
0.000808056
0.000900707
0.00100305
0.00111599
0.0012405
0.00137762
0.00152848
0.0016943
0.00187637
0.00207609
0.00229495
0.00253453
0.00279655
0.00308281
0.00339525
0.00373591
0.00410697
0.00451074
0.00494965
0.00542629
0.00594338
0.00650378
0.0071105
0.00776672
0.00847576
0.00924109
0.0100663
0.0109553
0.0119119
0.0129404
0.0140448
0.0152297
0.0164997
0.0178593
0.0193137
0.0208676
0.0225263
0.0242949
0.026179
0.028184
0.0303154
0.032579
0.0349804
0.0375255
0.0402201
0.0430701
0.0460814
0.0492598
0.0526112
0.0561413
0.059856
0.0637609
0.0678615
0.0721632
0.0766712
0.0813907
0.0863263
0.0914829
0.0968646
0.102476
0.10832
0.1144
0.12072
0.127283
0.13409
0.141143
0.148444
0.155993
0.163792
0.17184
0.180136
0.188679
0.197468
0.2065
0.215772
0.225281
0.235023
0.244994
0.255187
0.265597
0.276219
0.287044
0.298065
0.309274
0.320662
0.332221
0.34394
0.35581
0.367819
0.379956
0.39221
0.404569
0.41702
0.429552
0.44215
0.454803
0.467495
0.480215
0.492948
0.50568
0.518397
0.531085
0.543731
0.556321
0.568839
0.581274
0.593611
0.605836
0.617937
0.629901
0.641714
0.653365
0.66484
0.676129
0.68722
0.698102
0.708763
0.719195
0.729386
0.739328
0.749011
0.758428
0.767569
0.776427
0.784994
0.793265
0.801231
0.808889
0.816231
0.823252
0.829948
0.836315
0.842347
0.848042
0.853396
0.858405
0.863068
0.86738
0.871341
0.874948
0.878198
0.881092
0.883626
0.885801
0.887615
0.889066
0.890156
0.890882
0.891246
0.891246
0.890882
0.890156
0.889066
0.887615
0.885801
0.883626
0.881092
0.878198
0.874948
0.871341
0.86738
0.863068
0.858405
0.853396
0.848042
0.842347
0.836315
0.829948
0.823252
0.816231
0.808889
0.801231
0.793265
0.784994
0.776427
0.767569
0.758428
0.749011
0.739328
0.729386
0.719195
0.708763
0.698102
0.68722
0.676129
0.66484
0.653365
0.641714
0.629901
0.617937
0.605836
0.593611
0.581274
0.568839
0.556321
0.543731
0.531085
0.518397
0.50568
0.492948
0.480215
0.467495
0.454803
0.44215
0.429552
0.41702
0.404569
0.39221
0.379956
0.367819
0.35581
0.34394
0.332221
0.320662
0.309274
0.298065
0.287044
0.276219
0.265597
0.255187
0.244994
0.235023
0.225281
0.215772
0.2065
0.197468
0.188679
0.180136
0.17184
0.163792
0.155993
0.148444
0.141143
0.13409
0.127283
0.12072
0.1144
0.10832
0.102476
0.0968646
0.0914829
0.0863263
0.0813907
0.0766712
0.0721632
0.0678615
0.0637609
0.059856
0.0561413
0.0526112
0.0492598
0.0460814
0.0430701
0.0402201
0.0375255
0.0349804
0.032579
0.0303154
0.028184
0.026179
0.0242949
0.0225263
0.0208676
0.0193137
0.0178593
0.0164997
0.0152297
0.0140448
0.0129404
0.0119119
0.0109553
0.0100663
0.00924109
0.00847576
0.00776672
0.0071105
0.00650378
0.00594338
0.00542629
0.00494965
0.00451074
0.00410697
0.00373591
0.00339525
0.00308281
0.00279655
0.00253453
0.00229495
0.00207609
0.00187637
0.0016943
0.00152848
0.00137762
0.0012405
0.00111599
0.00100305
0.000900707
0.000808056
0.000724265
0.000648561
0.000580232
0.00051862
0.000463121
0.000413177
0.000368278
0.000327954
0.000291774
0.000259344
0.000230305
0.000204328
0.000181113
0.000160386
0.0001419
0.000125428
0.000110766
9.77262e-05
8.61419e-05
7.58604e-05
6.67442e-05
5.8669e-05
5.1523e-05
4.52055e-05
3.96259e-05
3.47028e-05
3.03632e-05
2.65417e-05
2.31797e-05
2.02248e-05
1.76303e-05
1.53545e-05
1.336e-05
1.16139e-05
1.00867e-05
8.75218e-06
7.58725e-06
6.57131e-06
5.68615e-06
4.9157e-06
4.24572e-06
3.66369e-06
3.15853e-06
2.72052e-06
2.3411e-06
2.01275e-06
1.72886e-06
1.48365e-06
1.27205e-06
1.08963e-06
9.32512e-07
7.97321e-07
6.81106e-07
5.81299e-07
4.95663e-07
4.22257e-07
3.59394e-07
3.05611e-07
2.5964e-07
2.20383e-07
1.86891e-07
1.58345e-07
1.34037e-07
1.13358e-07
9.57823e-08
8.08582e-08
6.81976e-08
5.74673e-08
4.83815e-08
4.06954e-08
3.41995e-08
2.87145e-08
2.40875e-08
2.01878e-08
1.69043e-08
1.41421e-08
1.18206e-08
9.87136e-09
8.23614e-09
6.86564e-09
5.71807e-09
4.75805e-09
3.95568e-09
3.28567e-09
2.72672e-09
2.26083e-09
1.87288e-09
1.55012e-09
1.28184e-09
1.05906e-09
8.74212e-10
7.20991e-10
5.94098e-10
4.89105e-10
4.02312e-10
3.30628e-10
2.71477e-10
2.22712e-10
1.82546e-10
1.49493e-10
1.22317e-10
9.99931e-11
8.16721e-11
6.66495e-11
5.43426e-11
4.42695e-11
3.60321e-11
2.93019e-11
2.38081e-11
1.93274e-11
1.56764e-11
1.27041e-11
1.02864e-11
8.32158e-12
6.72625e-12
5.43207e-12
4.38312e-12
3.53367e-12
2.8464e-12
2.29082e-12
1.8421e-12
1.48e-12
1.18807e-12
9.52898e-13
7.63626e-13
6.11426e-13
4.89145e-13
3.90985e-13
3.12258e-13
2.49171e-13
1.98662e-13
1.58257e-13
1.25963e-13
1.00174e-13
7.95975e-14
6.31944e-14
5.01294e-14
3.9732e-14
3.14646e-14
2.48967e-14
1.96832e-14
1.55484e-14
1.2272e-14
9.67784e-15
7.62572e-15
6.00374e-15
4.72282e-15
3.71211e-15
2.91527e-15
2.28759e-15
1.79356e-15
1.40507e-15
1.09981e-15
8.60167e-16
6.72186e-16
5.24854e-16
4.09479e-16
3.19204e-16
2.48628e-16
1.93498e-16
1.50469e-16
1.16914e-16
9.07672e-17
7.04109e-17
5.45755e-17
4.22672e-17
3.27083e-17
2.52907e-17
1.95395e-17
1.50839e-17
1.1635e-17
8.96748e-18
6.90597e-18
5.31411e-18
4.08591e-18
3.13906e-18
2.4097e-18
1.84834e-18
1.41662e-18
1.08488e-18
8.30161e-19
6.34746e-19
4.84946e-19
3.70206e-19
2.82391e-19
2.15237e-19
1.63923e-19
1.24745e-19
9.48555e-20
7.20715e-20
5.47173e-20
4.15093e-20
3.1465e-20
2.38327e-20
1.80376e-20
1.36411e-20
1.03081e-20
7.78351e-21
5.87267e-21
4.42752e-21
3.33541e-21
2.51076e-21
1.88854e-21
1.41943e-21
1.06603e-21
8.00004e-22
5.99905e-22
4.49513e-22
3.36566e-22
2.51808e-22
1.88251e-22
1.40629e-22
1.04975e-22
7.83011e-23
5.83609e-23
4.34659e-23
3.2348e-23
2.40559e-23
1.78759e-23
1.32737e-23
9.8489e-24
7.30231e-24
5.41015e-24
4.0053e-24
2.96304e-24
2.19037e-24
1.61799e-24
1.1943e-24
8.80906e-25
6.4927e-25
4.78191e-25
3.51932e-25
2.58819e-25
1.90202e-25
1.39675e-25
1.02495e-25
7.51569e-26
5.50706e-26
4.03232e-26
2.95036e-26
2.15715e-26
1.57605e-26
1.15066e-26
8.39482e-27
6.12014e-27
4.45861e-27
3.24583e-27
2.36125e-27
1.71651e-27
1.24692e-27
9.05154e-28
6.56594e-28
4.75951e-28
3.44762e-28
2.49557e-28
1.80514e-28
1.30481e-28
9.42484e-29
6.80294e-29
4.90697e-29
3.53693e-29
2.54761e-29
1.83374e-29
1.31898e-29
9.48059e-30
6.80973e-30
4.88791e-30
3.50602e-30
2.51307e-30
1.80009e-30
1.2885e-30
9.21669e-31
6.58819e-31
4.70608e-31
3.35934e-31
2.39635e-31
1.70825e-31
1.2169e-31
8.66286e-32
6.16272e-32
4.38116e-32
3.11251e-32
2.20973e-32
1.56773e-32
1.11151e-32
7.87519e-33
5.57592e-33
3.9453e-33
2.78967e-33
1.97122e-33
1.39196e-33
9.82264e-34
6.92692e-34
4.88162e-34
3.43794e-34
2.41961e-34
1.70179e-34
1.19613e-34
8.40164e-35
5.89745e-35
4.13694e-35
2.90007e-35
2.03167e-35
1.42237e-35
9.95156e-36
6.95801e-36
4.86179e-36
3.39489e-36
2.36904e-36
1.65211e-36
1.15139e-36
8.01914e-37
5.58153e-37
3.88238e-37
2.69876e-37
1.87479e-37
1.30156e-37
9.03015e-38
6.2611e-38
4.3384e-38
3.00422e-38
2.07902e-38
1.43784e-38
9.93773e-39
6.86419e-39
4.73825e-39
3.26869e-39
2.25349e-39
1.55262e-39
1.06906e-39
7.35648e-40
5.05901e-40
3.47688e-40
2.38806e-40
1.63919e-40
1.12447e-40
7.70898e-41
5.2818e-41
3.61665e-41
2.47504e-41
1.69288e-41
1.15741e-41
7.91147e-42
5.4093e-42
3.70323e-42
2.54401e-42
1.76177e-42
1.24152e-42
9.06614e-43
7.07558e-43
6.14895e-43
)
;

boundaryField
{
    sides
    {
        type            zeroGradient;
    }
    empty
    {
        type            empty;
    }
}


// ************************************************************************* //
