/*--------------------------------*- C++ -*----------------------------------*\
  =========                 |
  \\      /  F ield         | OpenFOAM: The Open Source CFD Toolbox
   \\    /   O peration     | Website:  https://openfoam.org
    \\  /    A nd           | Version:  7
     \\/     M anipulation  |
\*---------------------------------------------------------------------------*/
FoamFile
{
    version     2.0;
    format      ascii;
    class       volScalarField;
    location    "3.9";
    object      p;
}
// * * * * * * * * * * * * * * * * * * * * * * * * * * * * * * * * * * * * * //

dimensions      [1 -1 -2 0 0 0 0];

internalField   nonuniform List<scalar> 
19968
(
1
1
1
1
1
1
1
1
1
1
1
1
1
1
1
1
1
1
1
1
1
1
1
1
1
1
1
1
1
1
1
1
1
1
1
1
1
1
1
1
1
1
1
1
1
1
1
1
1.34694
7.59968
10.4214
10.4522
10.5251
10.588
10.6448
10.6946
10.7427
10.7934
10.8484
10.9053
10.9592
11.0075
11.0523
11.0973
11.1462
11.2018
11.2616
11.3179
11.365
11.4017
11.4306
11.4571
11.4884
11.5296
11.5802
11.6332
11.6804
11.7181
11.7472
11.7709
11.7922
11.8139
11.838
11.8647
11.8925
11.9197
11.9451
11.9678
11.9872
12.0027
12.0147
12.0247
12.0337
12.042
12.0509
12.0555
1
1
1
1
1
1
1
1
1
1
1
1
1
1
1
1
1
1
1
1
1
1
1
1
1
1
1
1
1
1
1
1
1
1
1
1
1
1
1
1
1
1
1
1
1
1
1
1
1.31843
7.50674
10.4056
10.453
10.5235
10.5872
10.6439
10.6935
10.7412
10.7914
10.8459
10.9026
10.9566
11.0054
11.0507
11.0964
11.1457
11.2013
11.2605
11.3162
11.3627
11.3991
11.4278
11.4542
11.4852
11.5259
11.5757
11.6281
11.6752
11.713
11.7425
11.7665
11.7878
11.8095
11.8335
11.86
11.8876
11.9144
11.9394
11.9619
11.9811
11.9967
12.0088
12.0189
12.0279
12.0358
12.0442
12.0486
1
1
1
1
1
1
1
1
1
1
1
1
1
1
1
1
1
1
1
1
1
1
1
1
1
1
1
1
1
1
1
1
1
1
1
1
1
1
1
1
1
1
1
1
1
1
1
1
1.26087
7.32954
10.3964
10.4495
10.5175
10.5818
10.6385
10.6882
10.7359
10.7858
10.8398
10.8962
10.9503
10.9998
11.0459
11.0922
11.142
11.1974
11.256
11.3112
11.3576
11.3941
11.423
11.4492
11.4795
11.5191
11.5676
11.6191
11.6662
11.7047
11.7348
11.7592
11.7807
11.8023
11.8261
11.8521
11.8792
11.9056
11.9301
11.9521
11.971
11.9865
11.9988
12.0088
12.0171
12.024
12.0311
12.0346
1
1
1
1
1
1
1
1
1
1
1
1
1
1
1
1
1
1
1
1
1
1
1
1
1
1
1
1
1
1
1
1
1
1
1
1
1
1
1
1
1
1
1
1
1
1
1
1
1.17453
7.09375
10.3947
10.4475
10.5118
10.576
10.6319
10.681
10.728
10.7774
10.8311
10.8873
10.9419
10.9921
11.0387
11.0855
11.1356
11.1908
11.2485
11.3033
11.3496
11.3863
11.4154
11.4414
11.471
11.509
11.5558
11.6061
11.6531
11.6922
11.7231
11.7479
11.7697
11.7912
11.8147
11.8403
11.8667
11.8926
11.9165
11.938
11.9565
11.9717
11.9839
11.9934
12.0007
12.0062
12.0116
12.0139
1
1
1
1
1
1
1
1
1
1
1
1
1
1
1
1
1
1
1
1
1
1
1
1
1
1
1
1
1
1
1
1
1
1
1
1
1
1
1
1
1
1
1
1
1
1
1
1
1.00851
6.69457
10.3855
10.4469
10.5073
10.5737
10.6294
10.6785
10.7251
10.7737
10.8265
10.8816
10.9354
10.9855
11.0319
11.0785
11.1284
11.1827
11.2387
11.2922
11.3379
11.3748
11.404
11.4298
11.4583
11.4944
11.5385
11.5867
11.6326
11.6718
11.7032
11.7286
11.7506
11.7721
11.7953
11.8204
11.8466
11.8722
11.8961
11.9174
11.9359
11.9514
11.9638
11.9732
11.9798
11.9841
11.9877
11.989
1
1
1
1
1
1
1
1
1
1
1
1
1
1
1
1
1
1
1
1
1
1
1
1
1
1
1
1
1
1
1
1
1
1
1
1
1
1
1
1
1
1
1
1
1
1
1
1
1.00006
6.11112
10.3179
10.4116
10.4721
10.544
10.6015
10.652
10.6992
10.7479
10.8004
10.8552
10.9091
10.9599
11.0067
11.0531
11.1018
11.1545
11.2082
11.2603
11.3061
11.344
11.3747
11.4016
11.4303
11.4652
11.507
11.5529
11.5978
11.6373
11.6698
11.6964
11.7194
11.7416
11.765
11.7902
11.8164
11.842
11.8659
11.8872
11.9055
11.9207
11.933
11.9421
11.948
11.9515
11.9537
11.9546
1
1
1
1
1
1
1
1
1
1
1
1
1
1
1
1
1
1
1
1
1
1
1
1
1
1
1
1
1
1
1
1
1
1
1
1
1
1
1
1
1
1
1
1
1
1
1
1
1
5.34861
10.2153
10.3864
10.4476
10.523
10.5818
10.6336
10.6811
10.7298
10.7816
10.835
10.8877
10.9386
10.9858
11.0319
11.0799
11.1309
11.1821
11.232
11.2771
11.3153
11.3473
11.3753
11.4043
11.4379
11.4771
11.5199
11.5626
11.6014
11.6341
11.6611
11.6843
11.7063
11.729
11.7534
11.7787
11.8037
11.8271
11.8479
11.8658
11.8806
11.8925
11.9016
11.9075
11.911
11.9128
11.9141
1
1
1
1
1
1
1
1
1
1
1
1
1
1
1
1
1
1
1
1
1
1
1
1
1
1
1
1
1
1
1
1
1
1
1
1
1
1
1
1
1
1
1
1
1
1
1
1
1
4.43761
10.0104
10.3575
10.4193
10.4958
10.5559
10.6087
10.6567
10.7053
10.7564
10.8087
10.86
10.9104
10.9578
11.0031
11.0494
11.098
11.146
11.193
11.2367
11.2748
11.3083
11.3378
11.3677
11.4006
11.4372
11.4768
11.5169
11.5547
11.5875
11.6151
11.6387
11.6607
11.683
11.7066
11.731
11.7551
11.7776
11.7975
11.8144
11.8283
11.8392
11.8475
11.853
11.8563
11.8581
11.8599
1
1
1
1
1
1
1
1
1
1
1
1
1
1
1
1
1
1
1
1
1
1
1
1
1
1
1
1
1
1
1
1
1
1
1
1
1
1
1
1
1
1
1
1
1
1
1
1
1
3.45041
9.63217
10.3428
10.3996
10.4744
10.5343
10.5868
10.6342
10.6818
10.7318
10.7829
10.8327
10.8818
10.9286
10.9725
11.0164
11.0622
11.1068
11.1502
11.1914
11.2277
11.2614
11.2912
11.3214
11.353
11.3869
11.4227
11.4593
11.4948
11.5268
11.5543
11.5777
11.5991
11.6204
11.6425
11.6654
11.6881
11.7096
11.729
11.7457
11.7596
11.7708
11.7795
11.7858
11.7901
11.7928
11.7955
1
1
1
1
1
1
1
1
1
1
1
1
1
1
1
1
1
1
1
1
1
1
1
1
1
1
1
1
1
1
1
1
1
1
1
1
1
1
1
1
1
1
1
1
1
1
1
1
1
2.38988
8.94033
10.3341
10.3905
10.4531
10.5068
10.5576
10.6048
10.6518
10.7006
10.7508
10.7998
10.8477
10.8939
10.9364
10.9776
11.0206
11.0624
11.1028
11.1415
11.1758
11.209
11.2388
11.2691
11.2997
11.3311
11.3631
11.3956
11.4278
11.458
11.4844
11.5071
11.5274
11.5471
11.5671
11.5875
11.6077
11.6269
11.6443
11.6595
11.672
11.682
11.6899
11.6957
11.6998
11.7024
11.7048
1
1
1
1
1
1
1
1
1
1
1
1
1
1
1
1
1
1
1
1
1
1
1
1
1
1
1
1
1
1
1
1
1
1
1
1
1
1
1
1
1
1
1
1
1
1
1
1
1
1.47
7.83878
10.4023
10.3774
10.4313
10.4782
10.5249
10.569
10.6129
10.6586
10.7064
10.7538
10.8002
10.8455
10.8876
10.9272
10.9679
11.0077
11.0452
11.0816
11.1136
11.1446
11.1733
11.2029
11.2325
11.2619
11.2906
11.319
11.3471
11.3738
11.3978
11.4182
11.4358
11.4519
11.4676
11.4835
11.4995
11.5152
11.5304
11.5447
11.5574
11.5684
11.5776
11.5847
11.5897
11.593
11.5956
1
1
1
1
1
1
1
1
1
1
1
1
1
1
1
1
1
1
1
1
1
1
1
1
1
1
1
1
1
1
1
1
1
1
1
1
1
1
1
1
1
1
1
1
1
1
1
1
1
1.01113
6.1258
10.2468
10.2899
10.3382
10.3932
10.4448
10.4947
10.5432
10.5914
10.6401
10.6881
10.7343
10.7793
10.8215
10.8602
10.8986
10.9363
10.9711
11.0051
11.0352
11.0631
11.0898
11.1177
11.1465
11.1748
11.2016
11.2268
11.251
11.274
11.2948
11.3126
11.3276
11.3407
11.3529
11.3649
11.377
11.389
11.4004
11.4106
11.4188
11.4251
11.4289
11.4304
11.4316
11.4324
11.4332
1
1
1
1
1
1
1
1
1
1
1
1
1
1
1
1
1
1
1
1
1
1
1
1
1
1
1
1
1
1
1
1
1
1
1
1
1
1
1
1
1
1
1
1
1
1
1
1
1
1.00001
4.06101
9.75967
10.2067
10.2736
10.3395
10.3899
10.437
10.4807
10.5234
10.5662
10.6092
10.6512
10.6919
10.7313
10.7679
10.8032
10.8381
10.8706
10.9024
10.932
10.9577
10.9825
11.0071
11.0336
11.0602
11.085
11.1072
11.1271
11.1451
11.161
11.1741
11.1844
11.1923
11.1985
11.2035
11.2075
11.2105
11.2131
11.2153
11.2176
11.2206
11.2237
11.2262
11.2292
11.2311
11.2324
1
1
1
1
1
1
1
1
1
1
1
1
1
1
1
1
1
1
1
1
1
1
1
1
1
1
1
1
1
1
1
1
1
1
1
1
1
1
1
1
1
1
1
1
1
1
1
1
1
1
2.02698
8.46896
10.1747
10.2038
10.2785
10.3303
10.3783
10.4225
10.4651
10.5063
10.5463
10.5845
10.6211
10.6568
10.6902
10.7214
10.7516
10.7801
10.8066
10.8319
10.8532
10.8722
10.8896
10.9094
10.931
10.9521
10.9701
10.9849
10.9969
11.0059
11.0111
11.014
11.0148
11.0142
11.0124
11.0095
11.0057
11.0014
10.9962
10.9901
10.9815
10.9702
10.953
10.932
10.9087
10.8878
1
1
1
1
1
1
1
1
1
1
1
1
1
1
1
1
1
1
1
1
1
1
1
1
1
1
1
1
1
1
1
1
1
1
1
1
1
1
1
1
1
1
1
1
1
1
1
1
1
1
1.034
5.72839
10.0986
10.2027
10.2351
10.2769
10.3125
10.3483
10.3843
10.4204
10.4559
10.49
10.5224
10.5537
10.5833
10.6107
10.6369
10.6619
10.6842
10.7046
10.7225
10.7362
10.7472
10.7576
10.7711
10.7857
10.7986
10.8082
10.8137
10.8132
10.8078
10.7996
10.789
10.7771
10.7627
10.7444
10.721
10.6916
10.6553
10.6126
10.5654
10.5173
10.4772
10.4431
10.4267
10.4185
1
1
1
1
1
1
1
1
1
1
1
1
1
1
1
1
1
1
1
1
1
1
1
1
1
1
1
1
1
1
1
1
1
1
1
1
1
1
1
1
1
1
1
1
1
1
1
1
1
1
1.00003
2.69693
8.93659
10.0704
10.1048
10.1613
10.2035
10.2415
10.2768
10.3124
10.3476
10.3808
10.411
10.4392
10.4655
10.4893
10.5114
10.5319
10.5498
10.5647
10.5776
10.5869
10.591
10.5918
10.5942
10.5983
10.6034
10.6057
10.6021
10.59
10.5709
10.5464
10.5187
10.489
10.4555
10.416
10.3683
10.3113
10.2459
10.175
10.1019
10.0303
9.94889
9.87046
9.76284
9.84939
1
1
1
1
1
1
1
1
1
1
1
1
1
1
1
1
1
1
1
1
1
1
1
1
1
1
1
1
1
1
1
1
1
1
1
1
1
1
1
1
1
1
1
1
1
1
1
1
1
1
1
1.08527
6.63908
10.0811
10.0885
10.107
10.1377
10.1643
10.1911
10.221
10.2526
10.2829
10.3096
10.3334
10.3549
10.3742
10.3917
10.4075
10.4208
10.4306
10.4382
10.4432
10.4411
10.4344
10.4261
10.4191
10.4138
10.4072
10.3947
10.3726
10.3406
10.3
10.2538
10.2035
10.1478
10.0831
10.004
9.90633
9.78444
9.63642
9.44597
9.19884
8.83096
8.27989
7.35647
5.454
1
1
1
1
1
1
1
1
1
1
1
1
1
1
1
1
1
1
1
1
1
1
1
1
1
1
1
1
1
1
1
1
1
1
1
1
1
1
1
1
1
1
1
1
1
1
1
1
1
1
1
1.00012
3.86808
9.40019
9.95061
10.0096
10.0522
10.0828
10.1104
10.1384
10.1675
10.1965
10.2222
10.2432
10.2611
10.2765
10.2894
10.3002
10.3095
10.3159
10.3199
10.3202
10.3138
10.301
10.2844
10.2675
10.2517
10.2351
10.2137
10.1829
10.1401
10.0854
10.0209
9.94941
9.87005
9.77991
9.66908
9.53259
9.35649
9.14281
8.86357
8.51239
8.00739
7.33644
6.13152
4.52184
1
1
1
1
1
1
1
1
1
1
1
1
1
1
1
1
1
1
1
1
1
1
1
1
1
1
1
1
1
1
1
1
1
1
1
1
1
1
1
1
1
1
1
1
1
1
1
1
1
1
1
0.999999
1.51889
7.76833
9.96145
9.97948
9.99805
10.0164
10.0382
10.0626
10.0884
10.1151
10.1384
10.1555
10.168
10.1771
10.1839
10.1894
10.1936
10.1964
10.1956
10.1904
10.1793
10.1612
10.1378
10.1114
10.084
10.0552
10.0227
9.98262
9.93018
9.86371
9.7826
9.69077
9.58708
9.47177
9.33209
9.16303
8.94733
8.68427
8.35509
7.93798
7.40698
6.66594
5.65545
4.5422
1
1
1
1
1
1
1
1
1
1
1
1
1
1
1
1
1
1
1
1
1
1
1
1
1
1
1
1
1
1
1
1
1
1
1
1
1
1
1
1
1
1
1
1
1
1
1
1
1
1
1
1
1.00911
4.8449
9.60962
9.8405
9.87608
9.9095
9.94083
9.97018
9.99505
10.0164
10.0352
10.05
10.0596
10.0656
10.0694
10.0704
10.0692
10.0679
10.0635
10.0551
10.0407
10.0184
9.98883
9.95392
9.91581
9.87499
9.83001
9.77922
9.71699
9.64119
9.54728
9.43862
9.31371
9.1749
9.01236
8.81905
8.58118
8.29121
7.94137
7.50825
6.97659
6.33044
5.55477
4.71765
1
1
1
1
1
1
1
1
1
1
1
1
1
1
1
1
1
1
1
1
1
1
1
1
1
1
1
1
1
1
1
1
1
1
1
1
1
1
1
1
1
1
1
1
1
1
1
1
1
1
1
1
0.999993
1.85486
8.08666
9.77632
9.80216
9.84078
9.86851
9.89442
9.91479
9.92918
9.94205
9.95293
9.95944
9.96204
9.96215
9.95879
9.95207
9.94469
9.93531
9.92182
9.9018
9.87468
9.84013
9.79902
9.75264
9.70148
9.64389
9.58058
9.5074
9.42296
9.32042
9.20003
9.06068
8.90408
8.72595
8.51853
8.2722
7.97788
7.6332
7.21381
6.72195
6.1827
5.57866
4.92466
1
1
1
1
1
1
1
1
1
1
1
1
1
1
1
1
1
1
1
1
1
1
1
1
1
1
1
1
1
1
1
1
1
1
1
1
1
1
1
1
1
1
1
1
1
1
1
1
1
1
1
1
0.999999
1.02418
4.92294
9.4794
9.71413
9.76458
9.79937
9.82121
9.83328
9.83985
9.84515
9.85159
9.8563
9.85848
9.85663
9.85044
9.83845
9.82227
9.80486
9.78453
9.75855
9.72679
9.68756
9.64086
9.58734
9.52739
9.45895
9.38394
9.30059
9.20826
9.09977
8.97258
8.82571
8.65984
8.47381
8.26129
8.01652
7.73137
7.40935
7.02322
6.58837
6.13203
5.6343
5.11261
1
1
1
1
1
1
1
1
1
1
1
1
1
1
1
1
1
1
1
1
1
1
1
1
1
1
1
1
1
1
1
1
1
1
1
1
1
1
1
1
1
1
1
1
1
1
1
1
1
1
1
1
1
1.00001
1.70727
7.89169
9.73794
9.71634
9.74519
9.7579
9.75676
9.75303
9.74943
9.74964
9.75215
9.75301
9.74846
9.73909
9.72368
9.70227
9.67868
9.6524
9.62051
9.58404
9.54043
9.49078
9.43249
9.36524
9.28788
9.20328
9.11197
9.0129
8.89924
8.76751
8.6169
8.44788
8.26016
8.04823
7.81225
7.53825
7.24454
6.89981
6.52019
6.13093
5.70205
5.27337
1
1
1
1
1
1
1
1
1
1
1
1
1
1
1
1
1
1
1
1
1
1
1
1
1
1
1
1
1
1
1
1
1
1
1
1
1
1
1
1
1
1
1
1
1
1
1
1
1
1
1
1
1
1
1.01533
4.44484
9.24165
9.60533
9.61468
9.63107
9.64272
9.65144
9.65123
9.64795
9.64636
9.64513
9.63997
9.63022
9.61311
9.58812
9.55698
9.52121
9.48131
9.43906
9.39142
9.33982
9.27832
9.20478
9.11947
9.02761
8.93111
8.82736
8.70975
8.57572
8.42527
8.2583
8.07555
7.86993
7.64744
7.38606
7.11901
6.81211
6.48011
6.14357
5.76971
5.40781
1
1
1
1
1
1
1
1
1
1
1
1
1
1
1
1
1
1
1
1
1
1
1
1
1
1
1
1
1
1
1
1
1
1
1
1
1
1
1
1
1
1
1
1
1
1
1
1
1
1
1
1
1
1
1
1.31401
7.21399
9.66134
9.60098
9.5832
9.57826
9.57132
9.56319
9.55315
9.54561
9.54104
9.53376
9.52215
9.50281
9.47634
9.44141
9.39851
9.3523
9.30417
9.25153
9.19677
9.13261
9.0563
8.96735
8.87252
8.77292
8.66451
8.54241
8.40677
8.25828
8.09533
7.92093
7.723
7.51306
7.26815
7.02319
6.74716
6.45279
6.15713
5.83096
5.51607
1
1
1
1
1
1
1
1
1
1
1
1
1
1
1
1
1
1
1
1
1
1
1
1
1
1
1
1
1
1
1
1
1
1
1
1
1
1
1
1
1
1
1
1
1
1
1
1
1
1
1
1
1
1
1
1.00301
3.44822
8.80961
9.37834
9.4133
9.45046
9.46561
9.45863
9.44408
9.4297
9.41736
9.4054
9.39161
9.37282
9.34962
9.31593
9.2697
9.21919
9.16591
9.10931
9.05155
8.98545
8.90887
8.82162
8.72889
8.62798
8.51408
8.38737
8.25144
8.10644
7.94995
7.78675
7.59885
7.40265
7.1773
6.95054
6.69721
6.43428
6.16717
5.87984
5.60097
1
1
1
1
1
1
1
1
1
1
1
1
1
1
1
1
1
1
1
1
1
1
1
1
1
1
1
1
1
1
1
1
1
1
1
1
1
1
1
1
1
1
1
1
1
1
1
1
1
1
1
1
1
1
1
1
1.16333
5.74845
9.27468
9.39526
9.38981
9.38254
9.37708
9.36526
9.35022
9.33245
9.31344
9.29397
9.27222
9.2473
9.21382
9.16686
9.11199
9.05181
8.98842
8.92389
8.85246
8.77441
8.69033
8.60195
8.50181
8.38266
8.25403
8.11755
7.97503
7.82461
7.66996
7.49586
7.3134
7.10576
6.89507
6.66106
6.42353
6.17791
5.92419
5.67251
1
1
1
1
1
1
1
1
1
1
1
1
1
1
1
1
1
1
1
1
1
1
1
1
1
1
1
1
1
1
1
1
1
1
1
1
1
1
1
1
1
1
1
1
1
1
1
1
1
1
1
1
1
1
1
1
1.00084
1.78998
7.6838
9.37368
9.28937
9.28919
9.28209
9.27073
9.25586
9.23427
9.20954
9.18389
9.15686
9.12813
9.09355
9.04989
8.99616
8.93393
8.86753
8.79809
8.72286
8.64405
8.56268
8.47765
8.37895
8.25925
8.13442
7.9997
7.86124
7.7158
7.56927
7.40984
7.23812
7.04455
6.84933
6.63399
6.41937
6.1931
5.96536
5.732
1
1
1
1
1
1
1
1
1
1
1
1
1
1
1
1
1
1
1
1
1
1
1
1
1
1
1
1
1
1
1
1
1
1
1
1
1
1
1
1
1
1
1
1
1
1
1
1
1
1
1
1
1
1
1
1
1
1.01802
3.75641
8.78144
9.15015
9.15959
9.17109
9.16883
9.15874
9.13715
9.10942
9.07917
9.0464
9.01303
8.97689
8.93618
8.88789
8.82919
8.76232
8.68948
8.61107
8.52958
8.44745
8.36067
8.26125
8.14697
8.02832
7.89855
7.76596
7.6268
7.48656
7.3358
7.17131
6.99086
6.81046
6.61317
6.41861
6.2107
6.00352
5.78644
1
1
1
1
1
1
1
1
1
1
1
1
1
1
1
1
1
1
1
1
1
1
1
1
1
1
1
1
1
1
1
1
1
1
1
1
1
1
1
1
1
1
1
1
1
1
1
1
1
1
1
1
1
1
1
1
1
1.00002
1.19486
5.37799
8.98781
9.1347
9.11802
9.1133
9.0982
9.06887
9.03549
8.99921
8.95906
8.91836
8.87623
8.83194
8.7841
8.7285
8.66444
8.59237
8.51392
8.43109
8.34442
8.25357
8.15221
8.04403
7.93071
7.80892
7.68474
7.55623
7.41838
7.27153
7.11274
6.94513
6.77615
6.59474
6.41547
6.22507
6.03307
5.83265
1
1
1
1
1
1
1
1
1
1
1
1
1
1
1
1
1
1
1
1
1
1
1
1
1
1
1
1
1
1
1
1
1
1
1
1
1
1
1
1
1
1
1
1
1
1
1
1
1
1
1
1
1
1
1
1
1
1
1.00126
1.51777
6.82944
9.10328
9.0841
9.06272
9.01945
8.98346
8.94556
8.9072
8.86553
8.82149
8.77523
8.72733
8.6775
8.62409
8.56506
8.49832
8.42388
8.34184
8.25347
8.15921
8.05635
7.95236
7.84403
7.73041
7.61359
7.49226
7.35801
7.21658
7.06455
6.90908
6.74849
6.57966
6.41215
6.23783
6.05827
5.87614
1
1
1
1
1
1
1
1
1
1
1
1
1
1
1
1
1
1
1
1
1
1
1
1
1
1
1
1
1
1
1
1
1
1
1
1
1
1
1
1
1
1
1
1
1
1
1
1
1
1
1
1
1
1
1
1
1
1
1
1.00781
2.46692
7.99189
9.00518
8.93395
8.90349
8.87095
8.84181
8.81068
8.77557
8.73592
8.69027
8.64097
8.588
8.53306
8.47392
8.41088
8.3401
8.26096
8.17463
8.08098
7.98081
7.87676
7.77173
7.66343
7.55073
7.43211
7.30332
7.16863
7.02468
6.8797
6.7263
6.56842
6.41041
6.24844
6.08011
5.91497
1
1
1
1
1
1
1
1
1
1
1
1
1
1
1
1
1
1
1
1
1
1
1
1
1
1
1
1
1
1
1
1
1
1
1
1
1
1
1
1
1
1
1
1
1
1
1
1
1
1
1
1
1
1
1
1
1
1
1
1.00001
1.05751
3.9186
8.53797
8.82419
8.7695
8.75669
8.73921
8.71825
8.68879
8.65406
8.61109
8.56223
8.5079
8.44959
8.38859
8.32516
8.25624
8.18036
8.09785
8.00916
7.9145
7.81383
7.71057
7.60386
7.49327
7.37637
7.25317
7.12467
6.98903
6.85185
6.70696
6.56015
6.41106
6.25874
6.10247
5.9511
1
1
1
1
1
1
1
1
1
1
1
1
1
1
1
1
1
1
1
1
1
1
1
1
1
1
1
1
1
1
1
1
1
1
1
1
1
1
1
1
1
1
1
1
1
1
1
1
1
1
1
1
1
1
1
1
1
1
1
1
1.00018
1.21771
4.86737
8.56453
8.68895
8.68162
8.67677
8.65656
8.62845
8.59287
8.54984
8.49998
8.44406
8.38341
8.31908
8.25243
8.18221
8.10734
8.02735
7.94274
7.85334
7.75832
7.65821
7.5533
7.44373
7.32804
7.20977
7.08654
6.95777
6.82623
6.69027
6.5525
6.41231
6.26784
6.12353
5.98103
1
1
1
1
1
1
1
1
1
1
1
1
1
1
1
1
1
1
1
1
1
1
1
1
1
1
1
1
1
1
1
1
1
1
1
1
1
1
1
1
1
1
1
1
1
1
1
1
1
1
1
1
1
1
1
1
1
1
1
1
1
1.00166
1.40343
5.49361
8.53913
8.65423
8.63488
8.60867
8.57414
8.53496
8.49159
8.44243
8.38678
8.3257
8.25983
8.19066
8.11835
8.04267
7.96333
7.88053
7.79397
7.70304
7.60684
7.50589
7.39952
7.28705
7.17331
7.05519
6.93214
6.80656
6.67773
6.54648
6.41334
6.27568
6.14135
6.00497
1
1
1
1
1
1
1
1
1
1
1
1
1
1
1
1
1
1
1
1
1
1
1
1
1
1
1
1
1
1
1
1
1
1
1
1
1
1
1
1
1
1
1
1
1
1
1
1
1
1
1
1
1
1
1
1
1
1
1
1
1
1
1.00503
1.5887
6.04511
8.5068
8.59854
8.56145
8.51886
8.4757
8.42981
8.37948
8.32523
8.26669
8.20408
8.13661
8.06453
7.9886
7.90912
7.8264
7.74031
7.65061
7.55671
7.45927
7.35716
7.24971
7.14014
7.02644
6.90898
6.78894
6.66578
6.54074
6.41432
6.28426
6.15728
6.02567
1
1
1
1
1
1
1
1
1
1
1
1
1
1
1
1
1
1
1
1
1
1
1
1
1
1
1
1
1
1
1
1
1
1
1
1
1
1
1
1
1
1
1
1
1
1
1
1
1
1
1
1
1
1
1
1
1
1
1
1
1
1
1.00001
1.0101
1.79855
6.48121
8.47158
8.50884
8.47173
8.42735
8.37613
8.32279
8.26795
8.21091
8.14972
8.08362
8.01311
7.93898
7.86136
7.77992
7.69433
7.60495
7.51213
7.41638
7.3171
7.21364
7.10704
6.99733
6.88593
6.77253
6.65591
6.53738
6.41704
6.29432
6.17217
6.04492
1
1
1
1
1
1
1
1
1
1
1
1
1
1
1
1
1
1
1
1
1
1
1
1
1
1
1
1
1
1
1
1
1
1
1
1
1
1
1
1
1
1
1
1
1
1
1
1
1
1
1
1
1
1
1
1
1
1
1
1
1
1
1
1.00002
1.01776
2.01347
6.79239
8.41445
8.42286
8.38316
8.33116
8.27784
8.22324
8.16434
8.10039
8.0331
7.96329
7.8904
7.81412
7.73413
7.65016
7.5627
7.4715
7.37701
7.27998
7.18001
7.07734
6.97271
6.8674
6.76023
6.64877
6.53466
6.41932
6.30381
6.18567
6.06371
1
1
1
1
1
1
1
1
1
1
1
1
1
1
1
1
1
1
1
1
1
1
1
1
1
1
1
1
1
1
1
1
1
1
1
1
1
1
1
1
1
1
1
1
1
1
1
1
1
1
1
1
1
1
1
1
1
1
1
1
1
1
1
1
1.00005
1.02795
2.20346
6.99875
8.34988
8.34053
8.29134
8.24017
8.18116
8.11989
8.05534
7.98838
7.91845
7.84542
7.76897
7.68945
7.60728
7.52198
7.4334
7.34176
7.24749
7.1511
7.05267
6.95183
6.85018
6.74726
6.64025
6.52976
6.41993
6.31064
6.19607
6.07935
1
1
1
1
1
1
1
1
1
1
1
1
1
1
1
1
1
1
1
1
1
1
1
1
1
1
1
1
1
1
1
1
1
1
1
1
1
1
1
1
1
1
1
1
1
1
1
1
1
1
1
1
1
1
1
1
1
1
1
1
1
1
1
1
1
1.00009
1.03902
2.35837
7.10454
8.26955
8.25628
8.19974
8.14467
8.07836
8.0126
7.94559
7.87606
7.80303
7.72697
7.6485
7.56805
7.48539
7.39992
7.31168
7.22057
7.12683
7.03206
6.93504
6.83541
6.73501
6.63304
6.52688
6.41962
6.31416
6.2054
6.09208
1
1
1
1
1
1
1
1
1
1
1
1
1
1
1
1
1
1
1
1
1
1
1
1
1
1
1
1
1
1
1
1
1
1
1
1
1
1
1
1
1
1
1
1
1
1
1
1
1
1
1
1
1
1
1
1
1
1
1
1
1
1
1
1
1
1
1.00014
1.04953
2.46358
7.11238
8.18687
8.16177
8.09943
8.03996
7.97351
7.90634
7.83487
7.76163
7.68731
7.61116
7.53255
7.45164
7.36837
7.28272
7.19523
7.10505
7.01189
6.91721
6.82123
6.72279
6.62453
6.52311
6.41786
6.31478
6.21004
6.10351
1
1
1
1
1
1
1
1
1
1
1
1
1
1
1
1
1
1
1
1
1
1
1
1
1
1
1
1
1
1
1
1
1
1
1
1
1
1
1
1
1
1
1
1
1
1
1
1
1
1
1
1
1
1
1
1
1
1
1
1
1
1
1
1
1
1
1
1.0002
1.05761
2.50718
7.03262
8.08665
8.05791
7.99102
7.93378
7.86753
7.79852
7.72811
7.65505
7.57953
7.50125
7.42111
7.34022
7.25685
7.17032
7.08173
6.99142
6.89995
6.80855
6.71455
6.61715
6.51695
6.41699
6.3166
6.2158
6.11661
1
1
1
1
1
1
1
1
1
1
1
1
1
1
1
1
1
1
1
1
1
1
1
1
1
1
1
1
1
1
1
1
1
1
1
1
1
1
1
1
1
1
1
1
1
1
1
1
1
1
1
1
1
1
1
1
1
1
1
1
1
1
1
1
1
1
1
1
1.00026
1.06137
2.48479
6.844
7.97539
7.95845
7.89295
7.83215
7.76686
7.69827
7.62563
7.55177
7.47671
7.3973
7.31467
7.23095
7.1454
7.05823
6.97234
6.88447
6.79356
6.70181
6.6086
6.51478
6.42031
6.32348
6.22754
6.12647
1
1
1
1
1
1
1
1
1
1
1
1
1
1
1
1
1
1
1
1
1
1
1
1
1
1
1
1
1
1
1
1
1
1
1
1
1
1
1
1
1
1
1
1
1
1
1
1
1
1
1
1
1
1
1
1
1
1
1
1
1
1
1
1
1
1
1
1
1
1.00029
1.05997
2.38322
6.58726
7.86435
7.84486
7.78174
7.7209
7.65633
7.59205
7.52449
7.45222
7.37469
7.29321
7.21117
7.12803
7.04192
6.95333
6.86396
6.77481
6.68778
6.60227
6.51527
6.42561
6.33269
6.24003
6.14437
1
1
1
1
1
1
1
1
1
1
1
1
1
1
1
1
1
1
1
1
1
1
1
1
1
1
1
1
1
1
1
1
1
1
1
1
1
1
1
1
1
1
1
1
1
1
1
1
1
1
1
1
1
1
1
1
1
1
1
1
1
1
1
1
1
1
1
1
1
1
1.00028
1.05226
2.25041
6.15242
7.76292
7.77482
7.6987
7.63212
7.55824
7.48396
7.412
7.34341
7.27047
7.1914
7.10895
7.02617
6.94272
6.85781
6.77172
6.68423
6.59693
6.51187
6.42835
6.34427
6.25953
6.17039
1
1
1
1
1
1
1
1
1
1
1
1
1
1
1
1
1
1
1
1
1
1
1
1
1
1
1
1
1
1
1
1
1
1
1
1
1
1
1
1
1
1
1
1
1
1
1
1
1
1
1
1
1
1
1
1
1
1
1
1
1
1
1
1
1
1
1
1
1
1
1
1.00023
1.04369
2.02839
5.69214
7.57701
7.67947
7.60335
7.53854
7.46388
7.38766
7.31076
7.23316
7.15805
7.08511
7.01206
6.93665
6.85825
6.77686
6.69058
6.60649
6.52262
6.43764
6.35551
6.26921
6.1875
1
1
1
1
1
1
1
1
1
1
1
1
1
1
1
1
1
1
1
1
1
1
1
1
1
1
1
1
1
1
1
1
1
1
1
1
1
1
1
1
1
1
1
1
1
1
1
1
1
1
1
1
1
1
1
1
1
1
1
1
1
1
1
1
1
1
1
1
1
1
1
1
1.00019
1.03038
1.80872
5.03887
7.39525
7.5845
7.49725
7.43104
7.36496
7.29681
7.22472
7.14873
7.07103
6.99629
6.92566
6.85714
6.78585
6.70809
6.62599
6.54064
6.45406
6.36861
6.28399
6.20481
1
1
1
1
1
1
1
1
1
1
1
1
1
1
1
1
1
1
1
1
1
1
1
1
1
1
1
1
1
1
1
1
1
1
1
1
1
1
1
1
1
1
1
1
1
1
1
1
1
1
1
1
1
1
1
1
1
1
1
1
1
1
1
1
1
1
1
1
1
1
1
1
1
1.00011
1.01959
1.57571
4.28358
7.1549
7.47957
7.41321
7.3523
7.28727
7.22096
7.15103
7.0799
7.00778
6.93519
6.86193
6.78773
6.71258
6.63553
6.55552
6.47318
6.3888
6.30297
6.21955
1
1
1
1
1
1
1
1
1
1
1
1
1
1
1
1
1
1
1
1
1
1
1
1
1
1
1
1
1
1
1
1
1
1
1
1
1
1
1
1
1
1
1
1
1
1
1
1
1
1
1
1
1
1
1
1
1
1
1
1
1
1
1
1
1
1
1
1
1
1
1
1
1
1
1.00006
1.01094
1.36367
3.55709
6.76846
7.38285
7.34698
7.28273
7.21715
7.14841
7.07788
7.00712
6.93797
6.8674
6.79312
6.71726
6.63925
6.55985
6.48139
6.399
6.31851
6.23855
1
1
1
1
1
1
1
1
1
1
1
1
1
1
1
1
1
1
1
1
1
1
1
1
1
1
1
1
1
1
1
1
1
1
1
1
1
1
1
1
1
1
1
1
1
1
1
1
1
1
1
1
1
1
1
1
1
1
1
1
1
1
1
1
1
1
1
1
1
1
1
1
1
1
1
1.00003
1.00512
1.20914
2.88647
6.21582
7.25104
7.32505
7.2066
7.1414
7.07584
7.0077
6.93762
6.86676
6.79449
6.72013
6.64404
6.56967
6.49345
6.41437
6.33514
6.25304
1
1
1
1
1
1
1
1
1
1
1
1
1
1
1
1
1
1
1
1
1
1
1
1
1
1
1
1
1
1
1
1
1
1
1
1
1
1
1
1
1
1
1
1
1
1
1
1
1
1
1
1
1
1
1
1
1
1
1
1
1
1
1
1
1
1
1
1
1
1
1
1
1
1
1
1
1.00001
1.00211
1.10941
2.30399
5.43107
7.09254
7.22087
7.13921
7.07331
7.00668
6.93926
6.86924
6.79731
6.7231
6.64908
6.57615
6.5029
6.42882
6.35104
6.27294
1
1
1
1
1
1
1
1
1
1
1
1
1
1
1
1
1
1
1
1
1
1
1
1
1
1
1
1
1
1
1
1
1
1
1
1
1
1
1
1
1
1
1
1
1
1
1
1
1
1
1
1
1
1
1
1
1
1
1
1
1
1
1
1
1
1
1
1
1
1
1
1
1
1
1
1
1
1
1.00078
1.05142
1.82068
4.47905
6.8158
7.13064
7.07937
7.00263
6.93485
6.86905
6.79962
6.73001
6.65899
6.58713
6.51621
6.44323
6.36759
6.29371
1
1
1
1
1
1
1
1
1
1
1
1
1
1
1
1
1
1
1
1
1
1
1
1
1
1
1
1
1
1
1
1
1
1
1
1
1
1
1
1
1
1
1
1
1
1
1
1
1
1
1
1
1
1
1
1
1
1
1
1
1
1
1
1
1
1
1
1
1
1
1
1
1
1
1
1
1
1
1
1.00025
1.02152
1.45264
3.49206
6.3608
7.00747
7.04359
6.94002
6.86569
6.80708
6.74551
6.67594
6.60635
6.53525
6.46128
6.38672
6.3138
1
1
1
1
1
1
1
1
1
1
1
1
1
1
1
1
1
1
1
1
1
1
1
1
1
1
1
1
1
1
1
1
1
1
1
1
1
1
1
1
1
1
1
1
1
1
1
1
1
1
1
1
1
1
1
1
1
1
1
1
1
1
1
1
1
1
1
1
1
1
1
1
1
1
1
1
1
1
1
1
1.00007
1.00771
1.21271
2.65904
5.57349
6.85376
6.96114
6.89265
6.81569
6.74851
6.69155
6.62621
6.55388
6.47954
6.40318
6.33145
1
1
1
1
1
1
1
1
1
1
1
1
1
1
1
1
1
1
1
1
1
1
1
1
1
1
1
1
1
1
1
1
1
1
1
1
1
1
1
1
1
1
1
1
1
1
1
1
1
1
1
1
1
1
1
1
1
1
1
1
1
1
1
1
1
1
1
1
1
1
1
1
1
1
1
1
1
1
1
1
1
1.00002
1.00229
1.08808
1.99098
4.53956
6.59623
6.8727
6.85108
6.76399
6.69618
6.6315
6.56413
6.49392
6.41791
6.34867
1
1
1
1
1
1
1
1
1
1
1
1
1
1
1
1
1
1
1
1
1
1
1
1
1
1
1
1
1
1
1
1
1
1
1
1
1
1
1
1
1
1
1
1
1
1
1
1
1
1
1
1
1
1
1
1
1
1
1
1
1
1
1
1
1
1
1
1
1
1
1
1
1
1
1
1
1
1
1
1
1
1
1
1.00058
1.03184
1.50805
3.47029
6.04218
6.70173
6.78939
6.72736
6.66064
6.59655
6.52669
6.44366
6.35849
1
1
1
1
1
1
1
1
1
1
1
1
1
1
1
1
1
1
1
1
1
1
1
1
1
1
1
1
1
1
1
1
1
1
1
1
1
1
1
1
1
1
1
1
1
1
1
1
1
1
1
1
1
1
1
1
1
1
1
1
1
1
1
1
1
1
1
1
1
1
1
1
1
1
1
1
1
1
1
1
1
1
1
1
1.00012
1.00989
1.21908
2.52664
5.09901
6.50969
6.74064
6.71842
6.64331
6.57525
6.49461
6.38374
1
1
1
1
1
1
1
1
1
1
1
1
1
1
1
1
1
1
1
1
1
1
1
1
1
1
1
1
1
1
1
1
1
1
1
1
1
1
1
1
1
1
1
1
1
1
1
1
1
1
1
1
1
1
1
1
1
1
1
1
1
1
1
1
1
1
1
1
1
1
1
1
1
1
1
1
1
1
1
1
1
1
1
1
1
1.00002
1.00251
1.07821
1.79645
4.03784
6.10939
6.58492
6.62312
6.56618
6.51287
6.4403
1
1
1
1
1
1
1
1
1
1
1
1
1
1
1
1
1
1
1
1
1
1
1
1
1
1
1
1
1
1
1
1
1
1
1
1
1
1
1
1
1
1
1
1
1
1
1
1
1
1
1
1
1
1
1
1
1
1
1
1
1
1
1
1
1
1
1
1
1
1
1
1
1
1
1
1
1
1
1
1
1
1
1
1
1
1
1
1.0005
1.02211
1.37201
2.87403
5.41154
6.42958
6.55548
6.51839
6.44748
1
1
1
1
1
1
1
1
1
1
1
1
1
1
1
1
1
1
1
1
1
1
1
1
1
1
1
1
1
1
1
1
1
1
1
1
1
1
1
1
1
1
1
1
1
1
1
1
1
1
1
1
1
1
1
1
1
1
1
1
1
1
1
1
1
1
1
1
1
1
1
1
1
1
1
1
1
1
1
1
1
1
1
1
1
1
1
1
1.00007
1.00609
1.12887
2.06095
4.21739
6.05598
6.5329
6.52869
1
1
1
1
1
1
1
1
1
1
1
1
1
1
1
1
1
1
1
1
1
1
1
1
1
1
1
1
1
1
1
1
1
1
1
1
1
1
1
1
1
1
1
1
1
1
1
1
1
1
1
1
1
1
1
1
1
1
1
1
1
1
1
1
1
1
1
1
1
1
1
1
1
1
1
1
1
1
1
1
1
1
1
1
1
1
1
1
1
1.00001
1.00112
1.03881
1.46007
3.0937
5.3223
6.34393
1
1
1
1
1
1
1
1
1
1
1
1
1
1
1
1
1
1
1
1
1
1
1
1
1
1
1
1
1
1
1
1
1
1
1
1
1
1
1
1
1
1
1
1
1
1
1
1
1
1
1
1
1
1
1
1
1
1
1
1
1
1
1
1
1
1
1
1
1
1
1
1
1
1
1
1
1
1
1
1
1
1
1
1
1
1
1
1
1
1
1
1.00018
1.00876
1.16738
2.11132
4.40037
1
1
1
1
1
1
1
1
1
1
1
1
1
1
1
1
1
1
1
1
1
1
1
1
1
1
1
1
1
1
1
1
1
1
1
1
1
1
1
1
1
1
1
1
1
1
1
1
1
1
1
1
1
1
1
1
1
1
1
1
1
1
1
1
1
1
1
1
1
1
1
1
1
1
1
1
1
1
1
1
1
1
1
1
1
1
1
1
1
1
1
1
1.00002
1.00173
1.04555
1.52398
1
1
1
1
1
1
1
1
1
1
1
1
1
1
1
1
1
1
1
1
1
1
1
1
1
1
1
1
1
1
1
1
1
1
1
1
1
1
1
1
1
1
1
1
1
1
1
1
1
1
1
1
1
1
1
1
1
1
1
1
1
1
1
1
1
1
1
1
1
1
1
1
1
1
1
1
1
1
1
1
1
1
1
1
1
1
1
1
1
1
1
1
1
1
1.00028
1.25402
1
1
1
1
1
1
1
1
1
1
1
1
1
1
1
1
1
1
1
1
1
1
1
1
1
1
1
1
1
1
1
1
1
1
1
1
1
1
1
1
1
1
1
1
1
1
1
1
1
1
1
1
1
1
1
1
1
1
1
1
1
1
1
1
1
1
1
1
1
1
1
1
1
1
1
1
1
1
1
1
1
1
1
1
1
1
1
1
1
1
1
1
1
1
1
1.49435
1
1
1
1
1
1
1
1
1
1
1
1
1
1
1
1
1
1
1
1
1
1
1
1
1
1
1
1
1
1
1
1
1
1
1
1
1
1
1
1
1
1
1
1
1
1
1
1
1
1
1
1
1
1
1
1
1
1
1
1
1
1
1
1
1
1
1
1
1
1
1
1
1
1
1
1
1
1
1
1
1
1
1
1
1
1
1
1
1
1
1
1
1
1
1
1.49061
1
1
1
1
1
1
1
1
1
1
1
1
1
1
1
1
1
1
1
1
1
1
1
1
1
1
1
1
1
1
1
1
1
1
1
1
1
1
1
1
1
1
1
1
1
1
1
1
1
1
1
1
1
1
1
1
1
1
1
1
1
1
1
1
1
1
1
1
1
1
1
1
1
1
1
1
1
1
1
1
1
1
1
1
1
1
1
1
1
1
1
1
1
1
1
1.35565
1
1
1
1
1
1
1
1
1
1
1
1
1
1
1
1
1
1
1
1
1
1
1
1
1
1
1
1
1
1
1
1
1
1
1
1
1
1
1
1
1
1
1
1
1
1
1
1
1
1
1
1
1
1
1
1
1
1
1
1
1
1
1
1
1
1
1
1
1
1
1
1
1
1
1
1
1
1
1
1
1
1
1
1
1
1
1
1
1
1
1
1
1
1
1
1.20577
1
1
1
1
1
1
1
1
1
1
1
1
1
1
1
1
1
1
1
1
1
1
1
1
1
1
1
1
1
1
1
1
1
1
1
1
1
1
1
1
1
1
1
1
1
1
1
1
1
1
1
1
1
1
1
1
1
1
1
1
1
1
1
1
1
1
1
1
1
1
1
1
1
1
1
1
1
1
1
1
1
1
1
1
1
1
1
1
1
1
1
1
1
1
1
1.01159
1
1
1
1
1
1
1
1
1
1
1
1
1
1
1
1
1
1
1
1
1
1
1
1
1
1
1
1
1
1
1
1
1
1
1
1
1
1
1
1
1
1
1
1
1
1
1
1
1
1
1
1
1
1
1
1
1
1
1
1
1
1
1
1
1
1
1
1
1
1
1
1
1
1
1
1
1
1
1
1
1
1
1
1
1
1
1
1
1
1
1
1
1
1
1
1.00002
1
1
1
1
1
1
1
1
1
1
1
1
1
1
1
1
1
1
1
1
1
1
1
1
1
1
1
1
1
1
1
1
1
1
1
1
1
1
1
1
1
1
1
1
1
1
1
1
1
1
1
1
1
1
1
1
1
1
1
1
1
1
1
1
1
1
1
1
1
1
1
1
1
1
1
1
1
1
1
1
1
1
1
1
1
1
1
1
1
1
1
1
1
1
1
1
1
1
1
1
1
1
1
1
1
1
1
1
1
1
1
1
1
1
1
1
1
1
1
1
1
1
1
1
1
1
1
1
1
1
1
1
1
1
1
1
1
1
1
1
1
1
1
1
1
1
1
1
1
1
1
1
1
1
1
1
1
1
1
1
1
1
1
1
1
1
1
1
1
1
1
1
1
1
1
1
1
1
1
1
1
1
1
1
1
1
1
1
1
1
1
1
1
1
1
1
1
1
1
1
1
1
1
1
1
1
1
1
1
1
1
1
1
1
1
1
1
1
1
1
1
1
1
1
1
1
1
1
1
1
1
1
1
1
1
1
1
1
1
1
1
1
1
1
1
1
1
1
1
1
1
1
1
1
1
1
1
1
1
1
1
1
1
1
1
1
1
1
1
1
1
1
1
1
1
1
1
1
1
1
1
1
1
1
1
1
1
1
1
1
1
1
1
1
1
1
1
1
1
1
1
1
1
1
1
1
1
1
1
1
1
1
1
1
1
1
1
1
1
1
1
1
1
1
1
1
1
1
1
1
1
1
1
1
1
1
1
1
1
1
1
1
1
1
1
1
1
1
1
1
1
1
1
1
1
1
1
1
1
1
1
1
1
1
1
1
1
1
1
1
1
1
1
1
1
1
1
1
1
1
1
1
1
1
1
1
1
1
1
1
1
1
1
1
1
1
1
1
1
1
1
1
1
1
1
1
1
1
1
1
1
1
1
1
1
1
1
1
1
1
1
1
1
1
1
1
1
1
1
1
1
1
1
1
1
1
1
1
1
1
1
1
1
1
1
1
1
1
1
1
1
1
1
1
1
1
1
1
1
1
1
1
1
1
1
1
1
1
1
1
1
1
1
1
1
1
1
1
1
1
1
1
1
1
1
1
1
1
1
1
1
1
1
1
1
1
1
1
1
1
1
1
1
1
1
1
1
1
1
1
1
1
1
1
1
1
1
1
1
1
1
1
1
1
1
1
1
1
1
1
1
1
1
1
1
1
1
1
1
1
1
1
1
1
1
1
1
1
1
1
1
1
1
1
1
1
1
1
1
1
1
1
1
1
1
1
1
1
1
1
1
1
1
1
1
1
1
1
1
1
1
1
1
1
1
1
1
1
1
1
1
1
1
1
1
1
1
1
1
1
1
1
1
1
1
1
1
1
1
1
1
1
1
1
1
1
1
1
1
1
1
1
1
1
1
1
1
1
1
1
1
1
1
1
1
1
1
1
1
1
1
1
1
1
1
1
1
1
1
1
1
1
1
1
1
1
1
1
1
1
1
1
1
1
1
1
1
1
1
1
1
1
1
1
1
1
1
1
1
1
1
1
1
1
1
1
1
1
1
1
1
1
1
1
1
1
1
1
1
1
1
1
1
1
1
1
1
1
1
1
1
1
1
1
1
1
1
1
1
1
1
1
1
1
1
1
1
1
1
1
1
1
1
1
1
1
1
1
1
1
1
1
1
1
1
1
1
1
1
1
1
1
1
1
1
1
1
1
1
1
1
1
1
1
1
1
1
1
1
1
1
1
1
1
1
1
1
1
1
1
1
1
1
1
1
1
1
1
1
1
1
1
1
1
1
1
1
1
1
1
1
1
1
1
1
1
1
1
1
1
1
1
1
1
1
1
1
1
1
1
1
1
1
1
1
1
1
1
1
1
1
1
1
1
1
1
1
1
1
1
1
1
1
1
1
1
1
1
1
1
1
1
1
1
1
1
1
1
1
1
1
1
1
1
1
1
1
1
1
1
1
1
1
1
1
1
1
1
1
1
1
1
1
1
1
1
1
1
1
1
1
1
1
1
1
1
1
1
1
1
1
1
1
1
1
1
1
1
1
1
1
1
1
1
1
1
1
1
1
1
1
1
1
1
1
1
1
1
1
1
1
1
1
1
1
1
1
1
1
1
1
1
1
1
1
1
1
1
1
1
1
1
1
1
1
1
1
1
1
1
1.08928
0.245879
0.0562706
0.00937404
0.0138891
0.0326928
0.0825302
0.144293
0.191544
0.269596
0.352686
0.432776
0.528009
0.560544
0.586318
0.637
0.700616
0.786408
0.865213
0.931003
0.98495
1.00925
1.01432
1.02257
1.03453
1.04272
1.04381
1.0495
1.0791
1.12886
1.17339
1.20351
1.21845
1.22652
1.22407
1.221
1.22659
1.23553
1.24659
1.25903
1.26897
1.27786
1.28366
1.28823
1.29414
1.30083
1.30786
1.31506
1.32148
1.32967
1.3399
1.3469
1.34803
1.34565
1.34215
1.34
1.33762
2.79901
5.75197
6.19398
6.25214
6.30432
6.32476
6.32823
6.32007
6.30172
6.2834
6.26757
6.25376
6.2349
6.20182
6.15299
6.09748
6.0448
6.00042
5.96488
5.93418
5.90216
5.86384
5.81906
5.77283
5.73052
5.69474
5.66527
5.63862
5.61006
5.57633
5.53714
5.49462
5.45196
5.41208
5.37681
5.34666
5.31942
5.28281
5.22761
5.1677
5.10685
5.04938
4.99796
4.95609
4.9277
4.90944
4.88887
4.85666
4.81654
4.77343
4.7268
4.67511
4.62205
4.57185
4.52619
4.48414
4.44498
4.40829
4.37011
4.32975
4.28851
4.24761
4.21044
4.17855
4.15501
4.13558
4.11145
4.08087
4.04666
4.00848
3.96626
3.92346
3.88458
3.8509
3.82116
3.79372
3.77004
3.74961
3.72868
3.70284
3.67274
3.63873
3.60242
3.56731
3.53541
3.50594
3.47722
3.44804
3.4177
3.38686
3.35725
3.33019
3.30549
3.28237
3.26035
3.23897
3.21739
3.19452
3.16963
3.14328
3.11702
3.092
3.06846
3.04599
3.02378
3.00089
2.97653
2.95054
2.92406
2.89898
2.87674
2.85732
2.8394
2.82133
2.80133
2.77574
2.74163
2.70271
2.66779
2.64016
2.61781
2.5989
2.58209
2.56574
2.54787
2.5261
2.49916
2.46908