/*--------------------------------*- C++ -*----------------------------------*\
  =========                 |
  \\      /  F ield         | OpenFOAM: The Open Source CFD Toolbox
   \\    /   O peration     | Website:  https://openfoam.org
    \\  /    A nd           | Version:  7
     \\/     M anipulation  |
\*---------------------------------------------------------------------------*/
FoamFile
{
    version     2.0;
    format      ascii;
    class       volScalarField;
    location    "3.9";
    object      T;
}
// * * * * * * * * * * * * * * * * * * * * * * * * * * * * * * * * * * * * * //

dimensions      [0 0 0 1 0 0 0];

internalField   nonuniform List<scalar> 
19968
(
1
1
1
1
1
1
1
1
1
1
1
1
1
1
1
1
1
1
1
1
1
1
1
1
1
1
1
1
1
1
1
1
1
1
1
1
1
1
1
1
1
1
1
1
1
1
1
1
1.18082
2.40665
2.69235
2.69454
2.6994
2.7033
2.70688
2.71014
2.71338
2.71682
2.72057
2.72456
2.72859
2.73258
2.73657
2.74053
2.74435
2.74802
2.7514
2.75427
2.75673
2.75912
2.76168
2.7644
2.76725
2.77027
2.77341
2.77649
2.77933
2.78188
2.78416
2.78607
2.78764
2.78902
2.79047
2.79213
2.79402
2.79601
2.79793
2.79958
2.8009
2.80199
2.80305
2.80426
2.80557
2.80692
2.80819
2.80876
1
1
1
1
1
1
1
1
1
1
1
1
1
1
1
1
1
1
1
1
1
1
1
1
1
1
1
1
1
1
1
1
1
1
1
1
1
1
1
1
1
1
1
1
1
1
1
1
1.16751
2.39665
2.69146
2.69473
2.69935
2.70328
2.7068
2.71
2.71319
2.71659
2.72033
2.72434
2.72843
2.73248
2.7365
2.74047
2.7443
2.74796
2.75129
2.75413
2.75656
2.75895
2.76151
2.76422
2.76704
2.77001
2.77311
2.77615
2.77898
2.78155
2.78385
2.78578
2.78735
2.78873
2.79017
2.79182
2.79369
2.79567
2.79755
2.79918
2.80049
2.80158
2.80265
2.80387
2.80519
2.80652
2.80774
2.80829
1
1
1
1
1
1
1
1
1
1
1
1
1
1
1
1
1
1
1
1
1
1
1
1
1
1
1
1
1
1
1
1
1
1
1
1
1
1
1
1
1
1
1
1
1
1
1
1
1.13939
2.37582
2.69058
2.69449
2.69902
2.70296
2.70638
2.70948
2.7126
2.71597
2.71977
2.72393
2.72818
2.73231
2.7363
2.74022
2.74401
2.74761
2.7509
2.75375
2.75622
2.75866
2.76124
2.76393
2.76669
2.76957
2.77256
2.77555
2.7784
2.78103
2.78337
2.78533
2.78689
2.78826
2.78969
2.79131
2.79315
2.79509
2.79694
2.79854
2.79982
2.80089
2.80198
2.8032
2.80449
2.80576
2.80687
2.80734
1
1
1
1
1
1
1
1
1
1
1
1
1
1
1
1
1
1
1
1
1
1
1
1
1
1
1
1
1
1
1
1
1
1
1
1
1
1
1
1
1
1
1
1
1
1
1
1
1.09577
2.34658
2.68957
2.69406
2.69853
2.7025
2.70578
2.70874
2.7118
2.71523
2.7192
2.72358
2.72802
2.73222
2.73613
2.73989
2.74352
2.74701
2.75025
2.75315
2.75574
2.75829
2.76091
2.76356
2.76621
2.76894
2.7718
2.77472
2.77757
2.78026
2.78265
2.78463
2.7862
2.78756
2.78896
2.79056
2.79237
2.79427
2.79607
2.79761
2.79885
2.7999
2.80098
2.80218
2.80343
2.8046
2.80557
2.80595
1
1
1
1
1
1
1
1
1
1
1
1
1
1
1
1
1
1
1
1
1
1
1
1
1
1
1
1
1
1
1
1
1
1
1
1
1
1
1
1
1
1
1
1
1
1
1
1
1.0042
2.29509
2.68804
2.69359
2.6979
2.70211
2.70536
2.70829
2.71138
2.715
2.71921
2.72375
2.72827
2.73248
2.73625
2.7397
2.74298
2.7462
2.74931
2.75229
2.75508
2.75782
2.76052
2.76308
2.76555
2.76805
2.77069
2.77346
2.77627
2.77898
2.78141
2.78342
2.785
2.78635
2.78772
2.78929
2.79107
2.79295
2.79473
2.79626
2.79749
2.79855
2.79963
2.80083
2.80205
2.80315
2.804
2.8043
1
1
1
1
1
1
1
1
1
1
1
1
1
1
1
1
1
1
1
1
1
1
1
1
1
1
1
1
1
1
1
1
1
1
1
1
1
1
1
1
1
1
1
1
1
1
1
1
1.00002
2.22522
2.68404
2.69133
2.69531
2.69975
2.703
2.70595
2.70911
2.71293
2.71746
2.72233
2.72711
2.73147
2.73514
2.73823
2.74102
2.74383
2.74673
2.74979
2.75289
2.75599
2.75892
2.76153
2.76389
2.76618
2.76858
2.77119
2.77395
2.77671
2.77924
2.78134
2.78299
2.78437
2.78576
2.78733
2.7891
2.79098
2.79275
2.79426
2.79547
2.7965
2.79756
2.79874
2.79995
2.801
2.80175
2.80202
1
1
1
1
1
1
1
1
1
1
1
1
1
1
1
1
1
1
1
1
1
1
1
1
1
1
1
1
1
1
1
1
1
1
1
1
1
1
1
1
1
1
1
1
1
1
1
1
1
2.12458
2.67701
2.69073
2.69393
2.69799
2.70091
2.70372
2.70686
2.71079
2.71556
2.72078
2.72592
2.73052
2.73414
2.73692
2.7393
2.74169
2.74427
2.74726
2.75058
2.75404
2.7573
2.76005
2.76235
2.76442
2.76653
2.76889
2.77154
2.77431
2.77691
2.77907
2.78073
2.78209
2.78342
2.78492
2.78664
2.78846
2.79019
2.79166
2.79283
2.79382
2.79484
2.79602
2.79724
2.7983
2.79902
2.79933
1
1
1
1
1
1
1
1
1
1
1
1
1
1
1
1
1
1
1
1
1
1
1
1
1
1
1
1
1
1
1
1
1
1
1
1
1
1
1
1
1
1
1
1
1
1
1
1
1
1.98568
2.65773
2.68856
2.69062
2.69418
2.69695
2.69979
2.70301
2.7071
2.71215
2.71777
2.72334
2.72831
2.7321
2.73473
2.73677
2.73874
2.74091
2.74368
2.7471
2.75087
2.75455
2.75759
2.75997
2.76188
2.76372
2.7658
2.76829
2.77107
2.77377
2.77604
2.77776
2.77911
2.7804
2.78184
2.78349
2.78525
2.78692
2.78832
2.78941
2.79032
2.79124
2.79236
2.79356
2.79462
2.79535
2.79571
1
1
1
1
1
1
1
1
1
1
1
1
1
1
1
1
1
1
1
1
1
1
1
1
1
1
1
1
1
1
1
1
1
1
1
1
1
1
1
1
1
1
1
1
1
1
1
1
1
1.80637
2.61942
2.68322
2.68511
2.68891
2.69195
2.69496
2.69832
2.70249
2.70766
2.71351
2.71942
2.72481
2.72901
2.73179
2.7337
2.73538
2.73715
2.73953
2.74279
2.74668
2.75072
2.75409
2.75663
2.75846
2.76003
2.7618
2.76404
2.76674
2.76951
2.77189
2.77366
2.77499
2.7762
2.77754
2.77909
2.78077
2.78238
2.78373
2.78481
2.7857
2.78662
2.78774
2.78899
2.79014
2.79095
2.79138
1
1
1
1
1
1
1
1
1
1
1
1
1
1
1
1
1
1
1
1
1
1
1
1
1
1
1
1
1
1
1
1
1
1
1
1
1
1
1
1
1
1
1
1
1
1
1
1
1
1.55029
2.542
2.67485
2.67978
2.68414
2.68737
2.69048
2.69378
2.6977
2.70251
2.70811
2.71401
2.71968
2.72442
2.72769
2.72979
2.73141
2.73291
2.73488
2.73781
2.74159
2.74586
2.74961
2.75247
2.75438
2.75579
2.75724
2.75917
2.76169
2.76445
2.76692
2.76877
2.77009
2.7712
2.7724
2.77379
2.77532
2.7768
2.77803
2.77899
2.77977
2.78059
2.78164
2.78285
2.78399
2.78481
2.78522
1
1
1
1
1
1
1
1
1
1
1
1
1
1
1
1
1
1
1
1
1
1
1
1
1
1
1
1
1
1
1
1
1
1
1
1
1
1
1
1
1
1
1
1
1
1
1
1
1
1.22788
2.41805
2.67685
2.6765
2.68106
2.68462
2.68768
2.69046
2.69353
2.69734
2.70204
2.70736
2.71287
2.71797
2.72193
2.72458
2.72644
2.7279
2.72951
2.73196
2.73536
2.73953
2.74355
2.74682
2.74899
2.7504
2.75162
2.75321
2.75542
2.75805
2.76053
2.76241
2.76366
2.76458
2.76551
2.7666
2.76786
2.76914
2.77027
2.77117
2.77196
2.77282
2.77393
2.77522
2.77646
2.77736
2.77779
1
1
1
1
1
1
1
1
1
1
1
1
1
1
1
1
1
1
1
1
1
1
1
1
1
1
1
1
1
1
1
1
1
1
1
1
1
1
1
1
1
1
1
1
1
1
1
1
1
1.0053
2.23078
2.67616
2.67494
2.6763
2.67908
2.68205
2.685
2.68801
2.6914
2.69539
2.7
2.70498
2.71001
2.71439
2.71764
2.71993
2.72159
2.72301
2.72499
2.72783
2.73155
2.73557
2.73918
2.7418
2.74346
2.74465
2.74597
2.74783
2.7502
2.75263
2.75458
2.75586
2.75669
2.75742
2.75828
2.75931
2.76038
2.76129
2.76195
2.76245
2.76301
2.76368
2.76448
2.76548
2.76626
2.76658
1
1
1
1
1
1
1
1
1
1
1
1
1
1
1
1
1
1
1
1
1
1
1
1
1
1
1
1
1
1
1
1
1
1
1
1
1
1
1
1
1
1
1
1
1
1
1
1
1
1.00001
1.92378
2.63594
2.66548
2.66887
2.67325
2.67669
2.67979
2.68262
2.68554
2.68879
2.69249
2.69656
2.70082
2.70493
2.70835
2.71096
2.71293
2.71448
2.71625
2.71867
2.72182
2.72552
2.72912
2.7321
2.73412
2.73542
2.73655
2.738
2.73997
2.74218
2.74407
2.74531
2.74595
2.74635
2.74677
2.74728
2.74778
2.74814
2.74832
2.74847
2.7488
2.74936
2.75014
2.75114
2.75182
2.75208
1
1
1
1
1
1
1
1
1
1
1
1
1
1
1
1
1
1
1
1
1
1
1
1
1
1
1
1
1
1
1
1
1
1
1
1
1
1
1
1
1
1
1
1
1
1
1
1
1
1
1.4287
2.47812
2.64789
2.65553
2.6638
2.66808
2.67173
2.67516
2.67862
2.68213
2.68568
2.68925
2.69282
2.69635
2.69955
2.70223
2.70443
2.70623
2.7079
2.70988
2.71229
2.71516
2.71814
2.72095
2.72315
2.7246
2.72559
2.72661
2.72805
2.72982
2.73136
2.73237
2.73278
2.73287
2.73288
2.73293
2.733
2.73297
2.73278
2.73245
2.73199
2.73147
2.73061
2.72931
2.72746
2.7256
1
1
1
1
1
1
1
1
1
1
1
1
1
1
1
1
1
1
1
1
1
1
1
1
1
1
1
1
1
1
1
1
1
1
1
1
1
1
1
1
1
1
1
1
1
1
1
1
1
1
1.01586
2.17151
2.65141
2.65159
2.65277
2.65587
2.65938
2.66333
2.66743
2.67148
2.6753
2.6788
2.68199
2.68503
2.6879
2.69055
2.693
2.69519
2.69706
2.69886
2.70077
2.70287
2.70511
2.70727
2.7093
2.7108
2.71175
2.71251
2.71342
2.71432
2.71513
2.71559
2.71555
2.71516
2.71439
2.71336
2.71203
2.7103
2.70799
2.70509
2.70179
2.69848
2.69584
2.69342
2.69192
2.69099
1
1
1
1
1
1
1
1
1
1
1
1
1
1
1
1
1
1
1
1
1
1
1
1
1
1
1
1
1
1
1
1
1
1
1
1
1
1
1
1
1
1
1
1
1
1
1
1
1
1
1.00002
1.61698
2.52192
2.63356
2.63719
2.64199
2.64598
2.65004
2.65419
2.65845
2.66257
2.66625
2.66938
2.67215
2.67474
2.67725
2.67975
2.68218
2.68433
2.68614
2.68778
2.68934
2.69077
2.69208
2.69348
2.69467
2.69559
2.69613
2.69629
2.69611
2.6958
2.69525
2.69433
2.69295
2.69102
2.68851
2.6854
2.68166
2.67727
2.67229
2.66682
2.66139
2.65682
2.65586
2.65423
2.66863
1
1
1
1
1
1
1
1
1
1
1
1
1
1
1
1
1
1
1
1
1
1
1
1
1
1
1
1
1
1
1
1
1
1
1
1
1
1
1
1
1
1
1
1
1
1
1
1
1
1
1
1.03921
2.27765
2.63958
2.63934
2.64014
2.6418
2.64343
2.64566
2.64868
2.65218
2.65554
2.65837
2.6607
2.66279
2.66486
2.66708
2.66943
2.67167
2.67351
2.67503
2.67629
2.67697
2.67756
2.67822
2.67892
2.67949
2.67967
2.67934
2.67841
2.67698
2.67516
2.67298
2.67034
2.66701
2.66275
2.65728
2.65039
2.64161
2.63059
2.61578
2.59599
2.56708
2.52586
2.46312
2.33484
1
1
1
1
1
1
1
1
1
1
1
1
1
1
1
1
1
1
1
1
1
1
1
1
1
1
1
1
1
1
1
1
1
1
1
1
1
1
1
1
1
1
1
1
1
1
1
1
1
1
1
1.00009
1.87494
2.57565
2.6265
2.63153
2.63426
2.63594
2.63787
2.64047
2.64365
2.64693
2.64973
2.65183
2.65347
2.65497
2.6566
2.6585
2.66052
2.6623
2.66377
2.66479
2.6651
2.66505
2.665
2.66507
2.66512
2.66494
2.66421
2.66271
2.66038
2.65734
2.65372
2.64957
2.64462
2.63856
2.63067
2.62061
2.60732
2.59075
2.56831
2.53898
2.49585
2.43791
2.32913
2.1663
1
1
1
1
1
1
1
1
1
1
1
1
1
1
1
1
1
1
1
1
1
1
1
1
1
1
1
1
1
1
1
1
1
1
1
1
1
1
1
1
1
1
1
1
1
1
1
1
1
1
1
1
1.23356
2.3779
2.61172
2.62001
2.62306
2.62512
2.62754
2.63066
2.63437
2.63822
2.64149
2.6437
2.64499
2.64576
2.64656
2.64773
2.64914
2.65063
2.65188
2.65257
2.65251
2.65206
2.65133
2.65059
2.64988
2.64905
2.64778
2.64577
2.64273
2.63866
2.6336
2.62781
2.62105
2.61314
2.60299
2.59018
2.5733
2.55211
2.52473
2.48855
2.44056
2.36962
2.26449
2.13659
1
1
1
1
1
1
1
1
1
1
1
1
1
1
1
1
1
1
1
1
1
1
1
1
1
1
1
1
1
1
1
1
1
1
1
1
1
1
1
1
1
1
1
1
1
1
1
1
1
1
1
1
1.00439
2.03786
2.58946
2.60173
2.6047
2.60811
2.61192
2.61637
2.62128
2.62609
2.63032
2.6334
2.63502
2.63562
2.63597
2.6365
2.63721
2.63829
2.63932
2.63987
2.63967
2.63886
2.63752
2.6359
2.63427
2.63258
2.63057
2.62796
2.62429
2.61946
2.61325
2.60596
2.59743
2.58766
2.57567
2.56073
2.54162
2.51751
2.48743
2.44859
2.39852
2.33344
2.24807
2.14869
1
1
1
1
1
1
1
1
1
1
1
1
1
1
1
1
1
1
1
1
1
1
1
1
1
1
1
1
1
1
1
1
1
1
1
1
1
1
1
1
1
1
1
1
1
1
1
1
1
1
1
1
1
1.35714
2.41087
2.58399
2.58967
2.59409
2.59734
2.60159
2.60685
2.61226
2.61754
2.6216
2.62388
2.62477
2.62501
2.6251
2.62534
2.62602
2.62685
2.62722
2.62686
2.62577
2.62392
2.62156
2.619
2.61636
2.61338
2.60994
2.60555
2.60009
2.59309
2.58467
2.57477
2.56341
2.55006
2.53382
2.51369
2.48866
2.45825
2.41962
2.37202
2.31663
2.2501
2.17166
1
1
1
1
1
1
1
1
1
1
1
1
1
1
1
1
1
1
1
1
1
1
1
1
1
1
1
1
1
1
1
1
1
1
1
1
1
1
1
1
1
1
1
1
1
1
1
1
1
1
1
1
1
1.01123
2.04842
2.57304
2.57914
2.58167
2.58468
2.58847
2.59294
2.59803
2.60332
2.60775
2.61049
2.61184
2.61233
2.61242
2.61243
2.61276
2.61341
2.61374
2.61339
2.61221
2.61003
2.60707
2.60367
2.60004
2.59603
2.59162
2.58647
2.58042
2.57289
2.56374
2.55297
2.54059
2.52638
2.50955
2.48935
2.46478
2.43592
2.39974
2.35701
2.30979
2.25522
2.19398
1
1
1
1
1
1
1
1
1
1
1
1
1
1
1
1
1
1
1
1
1
1
1
1
1
1
1
1
1
1
1
1
1
1
1
1
1
1
1
1
1
1
1
1
1
1
1
1
1
1
1
1
1
1.00001
1.30297
2.387
2.57544
2.57372
2.5764
2.57931
2.58197
2.5856
2.58966
2.59332
2.59584
2.59718
2.59765
2.59777
2.59786
2.59822
2.59898
2.59955
2.59937
2.59836
2.59618
2.59309
2.58921
2.58476
2.57976
2.57439
2.56851
2.56187
2.55387
2.5442
2.53287
2.51991
2.50525
2.48823
2.46863
2.44487
2.41838
2.38585
2.34835
2.30796
2.26127
2.21209
1
1
1
1
1
1
1
1
1
1
1
1
1
1
1
1
1
1
1
1
1
1
1
1
1
1
1
1
1
1
1
1
1
1
1
1
1
1
1
1
1
1
1
1
1
1
1
1
1
1
1
1
1
1
1.00717
1.97044
2.54744
2.56335
2.56464
2.56693
2.56996
2.57353
2.57678
2.57935
2.58105
2.582
2.58236
2.58252
2.58262
2.58293
2.58352
2.58393
2.58383
2.58305
2.58114
2.57832
2.5744
2.56943
2.56362
2.55745
2.55098
2.54386
2.53544
2.52544
2.51388
2.50077
2.48618
2.46937
2.45073
2.42795
2.40386
2.37492
2.3422
2.30759
2.26719
2.22635
1
1
1
1
1
1
1
1
1
1
1
1
1
1
1
1
1
1
1
1
1
1
1
1
1
1
1
1
1
1
1
1
1
1
1
1
1
1
1
1
1
1
1
1
1
1
1
1
1
1
1
1
1
1
1
1.14391
2.31358
2.5644
2.5586
2.55883
2.56051
2.56275
2.56496
2.56647
2.56734
2.56785
2.56791
2.56783
2.56761
2.56763
2.56784
2.56784
2.56765
2.56695
2.56532
2.5629
2.55927
2.55437
2.54836
2.5419
2.53508
2.52748
2.51861
2.50837
2.49679
2.48375
2.46954
2.45304
2.4352
2.41369
2.39159
2.36566
2.33686
2.30674
2.27197
2.23701
1
1
1
1
1
1
1
1
1
1
1
1
1
1
1
1
1
1
1
1
1
1
1
1
1
1
1
1
1
1
1
1
1
1
1
1
1
1
1
1
1
1
1
1
1
1
1
1
1
1
1
1
1
1
1
1.0014
1.76635
2.47957
2.53065
2.53912
2.54562
2.54998
2.55165
2.55253
2.55281
2.55282
2.55264
2.55231
2.55195
2.55186
2.55166
2.5511
2.55044
2.54947
2.54794
2.54585
2.54263
2.53819
2.53266
2.52657
2.51973
2.5117
2.50243
2.49213
2.48078
2.46815
2.45468
2.43875
2.42181
2.40182
2.38126
2.3575
2.33192
2.30498
2.27476
2.24435
1
1
1
1
1
1
1
1
1
1
1
1
1
1
1
1
1
1
1
1
1
1
1
1
1
1
1
1
1
1
1
1
1
1
1
1
1
1
1
1
1
1
1
1
1
1
1
1
1
1
1
1
1
1
1
1
1.07414
2.14233
2.52611
2.53569
2.53649
2.53783
2.53947
2.5405
2.54098
2.54089
2.54053
2.53999
2.53942
2.53898
2.53833
2.5371
2.53555
2.53369
2.53153
2.52907
2.52578
2.52167
2.51684
2.51147
2.50496
2.49667
2.48735
2.4771
2.46605
2.45398
2.44123
2.42639
2.41049
2.3919
2.37264
2.35061
2.32757
2.30299
2.27666
2.24965
1
1
1
1
1
1
1
1
1
1
1
1
1
1
1
1
1
1
1
1
1
1
1
1
1
1
1
1
1
1
1
1
1
1
1
1
1
1
1
1
1
1
1
1
1
1
1
1
1
1
1
1
1
1
1
1
1.00037
1.32531
2.32935
2.52084
2.51808
2.52105
2.52368
2.52565
2.52694
2.52709
2.52685
2.52636
2.52574
2.52513
2.52423
2.52281
2.52077
2.51817
2.5153
2.5122
2.50858
2.50457
2.50023
2.49543
2.48933
2.48122
2.47242
2.46252
2.45202
2.44059
2.42873
2.41532
2.40041
2.38306
2.36514
2.34479
2.32402
2.30144
2.27801
2.25324
1
1
1
1
1
1
1
1
1
1
1
1
1
1
1
1
1
1
1
1
1
1
1
1
1
1
1
1
1
1
1
1
1
1
1
1
1
1
1
1
1
1
1
1
1
1
1
1
1
1
1
1
1
1
1
1
1
1.00822
1.81457
2.45549
2.49793
2.50298
2.50707
2.50968
2.51157
2.51221
2.51215
2.51191
2.51149
2.51102
2.51028
2.50908
2.50718
2.5044
2.50096
2.49711
2.4929
2.48851
2.48409
2.47923
2.47318
2.46567
2.45758
2.4483
2.43855
2.42795
2.41696
2.40464
2.39064
2.37468
2.35825
2.33969
2.3209
2.30021
2.27903
2.25618
1
1
1
1
1
1
1
1
1
1
1
1
1
1
1
1
1
1
1
1
1
1
1
1
1
1
1
1
1
1
1
1
1
1
1
1
1
1
1
1
1
1
1
1
1
1
1
1
1
1
1
1
1
1
1
1
1
1.00001
1.0886
2.07438
2.47917
2.49721
2.49676
2.49808
2.49902
2.49885
2.49864
2.49836
2.4979
2.49743
2.49672
2.49558
2.49382
2.49116
2.48764
2.48346
2.47887
2.47406
2.46904
2.46371
2.45741
2.4504
2.44278
2.43426
2.42537
2.41593
2.40544
2.39383
2.38074
2.36634
2.35132
2.33451
2.31737
2.29857
2.27902
2.25812
1
1
1
1
1
1
1
1
1
1
1
1
1
1
1
1
1
1
1
1
1
1
1
1
1
1
1
1
1
1
1
1
1
1
1
1
1
1
1
1
1
1
1
1
1
1
1
1
1
1
1
1
1
1
1
1
1
1
1.00055
1.22469
2.23189
2.47877
2.48246
2.48398
2.48319
2.48317
2.48303
2.48303
2.48289
2.48259
2.482
2.48099
2.4794
2.47709
2.474
2.47013
2.46566
2.46069
2.45534
2.44954
2.44296
2.43616
2.42883
2.4209
2.41258
2.4038
2.39374
2.38286
2.37073
2.3579
2.3441
2.32889
2.31326
2.29638
2.27837
2.2596
1
1
1
1
1
1
1
1
1
1
1
1
1
1
1
1
1
1
1
1
1
1
1
1
1
1
1
1
1
1
1
1
1
1
1
1
1
1
1
1
1
1
1
1
1
1
1
1
1
1
1
1
1
1
1
1
1
1
1
1.0035
1.51836
2.33435
2.46019
2.45815
2.46015
2.46191
2.46371
2.46525
2.46642
2.46708
2.46691
2.46624
2.46487
2.46286
2.46008
2.45672
2.45265
2.44797
2.44278
2.43702
2.43061
2.4237
2.41649
2.4088
2.4006
2.39183
2.38214
2.37189
2.36067
2.34912
2.33635
2.32271
2.30847
2.29322
2.27673
2.25994
1
1
1
1
1
1
1
1
1
1
1
1
1
1
1
1
1
1
1
1
1
1
1
1
1
1
1
1
1
1
1
1
1
1
1
1
1
1
1
1
1
1
1
1
1
1
1
1
1
1
1
1
1
1
1
1
1
1
1
1
1.02572
1.82963
2.40501
2.44336
2.44041
2.44223
2.44442
2.44677
2.44867
2.45022
2.45066
2.45034
2.44931
2.44755
2.44513
2.44219
2.43867
2.43458
2.43
2.42489
2.41912
2.41258
2.40548
2.39777
2.38949
2.38055
2.37106
2.36116
2.35063
2.33986
2.32817
2.31592
2.30296
2.2891
2.27423
2.25929
1
1
1
1
1
1
1
1
1
1
1
1
1
1
1
1
1
1
1
1
1
1
1
1
1
1
1
1
1
1
1
1
1
1
1
1
1
1
1
1
1
1
1
1
1
1
1
1
1
1
1
1
1
1
1
1
1
1
1
1
1.00007
1.09837
1.97971
2.40965
2.43045
2.43138
2.43301
2.43386
2.43471
2.43541
2.4354
2.43493
2.43385
2.43214
2.42985
2.42715
2.42405
2.42057
2.4167
2.41239
2.40748
2.40174
2.39511
2.3876
2.37931
2.37025
2.36089
2.35117
2.34102
2.33067
2.31987
2.30868
2.29688
2.28414
2.27083
2.25722
1
1
1
1
1
1
1
1
1
1
1
1
1
1
1
1
1
1
1
1
1
1
1
1
1
1
1
1
1
1
1
1
1
1
1
1
1
1
1
1
1
1
1
1
1
1
1
1
1
1
1
1
1
1
1
1
1
1
1
1
1
1.00071
1.17694
2.0567
2.39596
2.42387
2.42393
2.42401
2.42367
2.42313
2.42233
2.42117
2.41957
2.41753
2.41506
2.41231
2.40933
2.40616
2.40277
2.39906
2.39485
2.38991
2.38401
2.37714
2.36927
2.36048
2.3514
2.34191
2.33208
2.32218
2.31201
2.30151
2.29056
2.27872
2.26669
2.25395
1
1
1
1
1
1
1
1
1
1
1
1
1
1
1
1
1
1
1
1
1
1
1
1
1
1
1
1
1
1
1
1
1
1
1
1
1
1
1
1
1
1
1
1
1
1
1
1
1
1
1
1
1
1
1
1
1
1
1
1
1
1
1.00218
1.24759
2.11253
2.38221
2.41187
2.41172
2.41142
2.41085
2.40978
2.40818
2.40622
2.40397
2.40149
2.39871
2.39569
2.39251
2.38916
2.38558
2.38162
2.37709
2.37176
2.36557
2.35839
2.35025
2.34163
2.33252
2.32317
2.31374
2.30412
2.29431
2.28417
2.27331
2.26225
2.25019
1
1
1
1
1
1
1
1
1
1
1
1
1
1
1
1
1
1
1
1
1
1
1
1
1
1
1
1
1
1
1
1
1
1
1
1
1
1
1
1
1
1
1
1
1
1
1
1
1
1
1
1
1
1
1
1
1
1
1
1
1
1
1
1.0044
1.3198
2.1508
2.37154
2.39167
2.39497
2.39589
2.3954
2.39434
2.39282
2.39095
2.38866
2.38598
2.38302
2.37986
2.37648
2.37281
2.36873
2.36415
2.35898
2.35312
2.34646
2.33895
2.33081
2.32228
2.31362
2.30492
2.29605
2.28705
2.27775
2.26789
2.25761
2.24624
1
1
1
1
1
1
1
1
1
1
1
1
1
1
1
1
1
1
1
1
1
1
1
1
1
1
1
1
1
1
1
1
1
1
1
1
1
1
1
1
1
1
1
1
1
1
1
1
1
1
1
1
1
1
1
1
1
1
1
1
1
1
1
1.00001
1.00778
1.38603
2.17871
2.35719
2.37184
2.37604
2.37745
2.37787
2.37757
2.37656
2.37485
2.37268
2.37017
2.3673
2.36402
2.36033
2.35617
2.35154
2.34633
2.34054
2.33418
2.3272
2.31968
2.3118
2.30387
2.29591
2.28772
2.27936
2.27083
2.26202
2.25249
2.24201
1
1
1
1
1
1
1
1
1
1
1
1
1
1
1
1
1
1
1
1
1
1
1
1
1
1
1
1
1
1
1
1
1
1
1
1
1
1
1
1
1
1
1
1
1
1
1
1
1
1
1
1
1
1
1
1
1
1
1
1
1
1
1
1
1.00002
1.01229
1.43987
2.19648
2.34498
2.35413
2.35636
2.35812
2.35878
2.35884
2.3584
2.35738
2.35572
2.35346
2.35062
2.34723
2.34334
2.33889
2.33391
2.32837
2.32228
2.31569
2.30867
2.30128
2.29382
2.28639
2.27876
2.27094
2.26318
2.25529
2.24646
2.23689
1
1
1
1
1
1
1
1
1
1
1
1
1
1
1
1
1
1
1
1
1
1
1
1
1
1
1
1
1
1
1
1
1
1
1
1
1
1
1
1
1
1
1
1
1
1
1
1
1
1
1
1
1
1
1
1
1
1
1
1
1
1
1
1
1
1.00003
1.0172
1.48105
2.20652
2.33368
2.33924
2.33884
2.33927
2.33902
2.33904
2.33889
2.33832
2.33714
2.33528
2.33273
2.32957
2.32581
2.32141
2.31638
2.31074
2.30454
2.29799
2.29109
2.28393
2.27681
2.26972
2.26238
2.25498
2.24764
2.23965
2.23075
1
1
1
1
1
1
1
1
1
1
1
1
1
1
1
1
1
1
1
1
1
1
1
1
1
1
1
1
1
1
1
1
1
1
1
1
1
1
1
1
1
1
1
1
1
1
1
1
1
1
1
1
1
1
1
1
1
1
1
1
1
1
1
1
1
1
1.00005
1.02189
1.50801
2.20687
2.32497
2.32491
2.32295
2.32177
2.32057
2.31981
2.31902
2.3182
2.31719
2.31574
2.31366
2.3109
2.30743
2.30326
2.29848
2.29305
2.28701
2.2806
2.27398
2.26716
2.26048
2.25361
2.24641
2.23934
2.23185
2.22382
1
1
1
1
1
1
1
1
1
1
1
1
1
1
1
1
1
1
1
1
1
1
1
1
1
1
1
1
1
1
1
1
1
1
1
1
1
1
1
1
1
1
1
1
1
1
1
1
1
1
1
1
1
1
1
1
1
1
1
1
1
1
1
1
1
1
1
1.00007
1.02548
1.51825
2.20131
2.31298
2.31204
2.30869
2.30661
2.30419
2.30213
2.30052
2.29912
2.29771
2.29601
2.29392
2.29142
2.28829
2.28443
2.27989
2.27477
2.26921
2.26345
2.25737
2.25097
2.24433
2.23769
2.23089
2.22382
2.2166
1
1
1
1
1
1
1
1
1
1
1
1
1
1
1
1
1
1
1
1
1
1
1
1
1
1
1
1
1
1
1
1
1
1
1
1
1
1
1
1
1
1
1
1
1
1
1
1
1
1
1
1
1
1
1
1
1
1
1
1
1
1
1
1
1
1
1
1
1.00009
1.02709
1.51267
2.18174
2.30079
2.30051
2.29671
2.29354
2.29026
2.28715
2.28432
2.2819
2.27966
2.27721
2.27455
2.2717
2.26844
2.2647
2.26069
2.25617
2.25111
2.24579
2.24023
2.23452
2.22863
2.22233
2.21585
2.20859
1
1
1
1
1
1
1
1
1
1
1
1
1
1
1
1
1
1
1
1
1
1
1
1
1
1
1
1
1
1
1
1
1
1
1
1
1
1
1
1
1
1
1
1
1
1
1
1
1
1
1
1
1
1
1
1
1
1
1
1
1
1
1
1
1
1
1
1
1
1.0001
1.02639
1.4868
2.15494
2.28594
2.28744
2.28446
2.28084
2.27687
2.27341
2.27011
2.26675
2.26334
2.25987
2.25647
2.25304
2.24931
2.24524
2.24096
2.23656
2.23224
2.22792
2.22332
2.21829
2.21272
2.20688
2.20048
1
1
1
1
1
1
1
1
1
1
1
1
1
1
1
1
1
1
1
1
1
1
1
1
1
1
1
1
1
1
1
1
1
1
1
1
1
1
1
1
1
1
1
1
1
1
1
1
1
1
1
1
1
1
1
1
1
1
1
1
1
1
1
1
1
1
1
1
1
1
1.0001
1.02288
1.45058
2.09863
2.27369
2.27871
2.27351
2.26946
2.26489
2.26035
2.25625
2.25269
2.24876
2.24434
2.23986
2.23556
2.23137
2.22717
2.22291
2.21856
2.21425
2.21012
2.20602
2.20168
2.19704
2.19172
1
1
1
1
1
1
1
1
1
1
1
1
1
1
1
1
1
1
1
1
1
1
1
1
1
1
1
1
1
1
1
1
1
1
1
1
1
1
1
1
1
1
1
1
1
1
1
1
1
1
1
1
1
1
1
1
1
1
1
1
1
1
1
1
1
1
1
1
1
1
1
1.00008
1.019
1.3859
2.04271
2.24311
2.26726
2.26207
2.25826
2.25363
2.24887
2.24395
2.23895
2.2342
2.2296
2.22514
2.22075
2.21627
2.21163
2.20673
2.20228
2.19799
2.19362
2.1895
2.18489
2.18056
1
1
1
1
1
1
1
1
1
1
1
1
1
1
1
1
1
1
1
1
1
1
1
1
1
1
1
1
1
1
1
1
1
1
1
1
1
1
1
1
1
1
1
1
1
1
1
1
1
1
1
1
1
1
1
1
1
1
1
1
1
1
1
1
1
1
1
1
1
1
1
1
1.00006
1.01307
1.31806
1.94642
2.21441
2.2529
2.2473
2.24414
2.24075
2.23687
2.23244
2.22747
2.22214
2.21717
2.21268
2.20839
2.20387
2.19887
2.19363
2.18828
2.18304
2.17809
2.17329
2.16904
1
1
1
1
1
1
1
1
1
1
1
1
1
1
1
1
1
1
1
1
1
1
1
1
1
1
1
1
1
1
1
1
1
1
1
1
1
1
1
1
1
1
1
1
1
1
1
1
1
1
1
1
1
1
1
1
1
1
1
1
1
1
1
1
1
1
1
1
1
1
1
1
1
1.00004
1.00833
1.2357
1.82825
2.17639
2.23356
2.23095
2.2295
2.22719
2.22439
2.22094
2.21707
2.2127
2.20788
2.20282
2.19762
2.19228
2.18677
2.18112
2.17548
2.16984
2.16417
2.15883
1
1
1
1
1
1
1
1
1
1
1
1
1
1
1
1
1
1
1
1
1
1
1
1
1
1
1
1
1
1
1
1
1
1
1
1
1
1
1
1
1
1
1
1
1
1
1
1
1
1
1
1
1
1
1
1
1
1
1
1
1
1
1
1
1
1
1
1
1
1
1
1
1
1
1.00002
1.00455
1.15342
1.70195
2.12785
2.21021
2.21341
2.21276
2.21177
2.21013
2.20775
2.20458
2.20086
2.19659
2.19171
2.18645
2.18085
2.17506
2.16934
2.16326
2.15743
2.15174
1
1
1
1
1
1
1
1
1
1
1
1
1
1
1
1
1
1
1
1
1
1
1
1
1
1
1
1
1
1
1
1
1
1
1
1
1
1
1
1
1
1
1
1
1
1
1
1
1
1
1
1
1
1
1
1
1
1
1
1
1
1
1
1
1
1
1
1
1
1
1
1
1
1
1
1.00001
1.00206
1.08919
1.57287
2.06888
2.17686
2.20186
2.19458
2.19466
2.194
2.19245
2.19006
2.18703
2.18338
2.17912
2.17436
2.16945
2.16409
2.15826
2.15234
2.14615
1
1
1
1
1
1
1
1
1
1
1
1
1
1
1
1
1
1
1
1
1
1
1
1
1
1
1
1
1
1
1
1
1
1
1
1
1
1
1
1
1
1
1
1
1
1
1
1
1
1
1
1
1
1
1
1
1
1
1
1
1
1
1
1
1
1
1
1
1
1
1
1
1
1
1
1
1
1.00081
1.04639
1.446
1.97051
2.15106
2.18416
2.17966
2.17862
2.17749
2.17614
2.1743
2.1719
2.16885
2.16534
2.16143
2.15704
2.15223
2.14687
2.14136
1
1
1
1
1
1
1
1
1
1
1
1
1
1
1
1
1
1
1
1
1
1
1
1
1
1
1
1
1
1
1
1
1
1
1
1
1
1
1
1
1
1
1
1
1
1
1
1
1
1
1
1
1
1
1
1
1
1
1
1
1
1
1
1
1
1
1
1
1
1
1
1
1
1
1
1
1
1
1.00028
1.02167
1.31248
1.83839
2.11574
2.16655
2.16513
2.1623
2.16077
2.1595
2.15785
2.15594
2.15356
2.15067
2.14747
2.14374
2.13948
2.13516
1
1
1
1
1
1
1
1
1
1
1
1
1
1
1
1
1
1
1
1
1
1
1
1
1
1
1
1
1
1
1
1
1
1
1
1
1
1
1
1
1
1
1
1
1
1
1
1
1
1
1
1
1
1
1
1
1
1
1
1
1
1
1
1
1
1
1
1
1
1
1
1
1
1
1
1
1
1
1
1.00008
1.00897
1.18566
1.67673
2.06788
2.13728
2.15284
2.14719
2.14473
2.14377
2.14249
2.14047
2.1383
2.13581
2.13286
2.12962
2.12632
1
1
1
1
1
1
1
1
1
1
1
1
1
1
1
1
1
1
1
1
1
1
1
1
1
1
1
1
1
1
1
1
1
1
1
1
1
1
1
1
1
1
1
1
1
1
1
1
1
1
1
1
1
1
1
1
1
1
1
1
1
1
1
1
1
1
1
1
1
1
1
1
1
1
1
1
1
1
1
1
1.00002
1.00312
1.08942
1.5197
1.97321
2.11113
2.13828
2.13453
2.13088
2.1286
2.12744
2.1256
2.12313
2.12042
2.11744
2.11483
1
1
1
1
1
1
1
1
1
1
1
1
1
1
1
1
1
1
1
1
1
1
1
1
1
1
1
1
1
1
1
1
1
1
1
1
1
1
1
1
1
1
1
1
1
1
1
1
1
1
1
1
1
1
1
1
1
1
1
1
1
1
1
1
1
1
1
1
1
1
1
1
1
1
1
1
1
1
1
1
1
1.00001
1.00087
1.03694
1.35771
1.83714
2.079
2.12163
2.12207
2.11747
2.11487
2.11265
2.11026
2.1077
2.10469
2.10233
1
1
1
1
1
1
1
1
1
1
1
1
1
1
1
1
1
1
1
1
1
1
1
1
1
1
1
1
1
1
1
1
1
1
1
1
1
1
1
1
1
1
1
1
1
1
1
1
1
1
1
1
1
1
1
1
1
1
1
1
1
1
1
1
1
1
1
1
1
1
1
1
1
1
1
1
1
1
1
1
1
1
1
1.0002
1.01319
1.20446
1.66766
2.01748
2.09002
2.11029
2.10674
2.10319
2.10047
2.09783
2.09403
2.08961
1
1
1
1
1
1
1
1
1
1
1
1
1
1
1
1
1
1
1
1
1
1
1
1
1
1
1
1
1
1
1
1
1
1
1
1
1
1
1
1
1
1
1
1
1
1
1
1
1
1
1
1
1
1
1
1
1
1
1
1
1
1
1
1
1
1
1
1
1
1
1
1
1
1
1
1
1
1
1
1
1
1
1
1
1.00004
1.00398
1.0918
1.48427
1.90016
2.06155
2.09818
2.09792
2.09406
2.09106
2.08647
2.0785
1
1
1
1
1
1
1
1
1
1
1
1
1
1
1
1
1
1
1
1
1
1
1
1
1
1
1
1
1
1
1
1
1
1
1
1
1
1
1
1
1
1
1
1
1
1
1
1
1
1
1
1
1
1
1
1
1
1
1
1
1
1
1
1
1
1
1
1
1
1
1
1
1
1
1
1
1
1
1
1
1
1
1
1
1
1.00001
1.00095
1.03239
1.29773
1.7529
2.01642
2.07298
2.08464
2.08005
2.07634
2.07242
1
1
1
1
1
1
1
1
1
1
1
1
1
1
1
1
1
1
1
1
1
1
1
1
1
1
1
1
1
1
1
1
1
1
1
1
1
1
1
1
1
1
1
1
1
1
1
1
1
1
1
1
1
1
1
1
1
1
1
1
1
1
1
1
1
1
1
1
1
1
1
1
1
1
1
1
1
1
1
1
1
1
1
1
1
1
1
1.00017
1.00902
1.15115
1.55181
1.93458
2.04689
2.06955
2.06751
2.06348
1
1
1
1
1
1
1
1
1
1
1
1
1
1
1
1
1
1
1
1
1
1
1
1
1
1
1
1
1
1
1
1
1
1
1
1
1
1
1
1
1
1
1
1
1
1
1
1
1
1
1
1
1
1
1
1
1
1
1
1
1
1
1
1
1
1
1
1
1
1
1
1
1
1
1
1
1
1
1
1
1
1
1
1
1
1
1
1
1.00002
1.00238
1.05348
1.36771
1.77206
2.00082
2.05953
2.06112
1
1
1
1
1
1
1
1
1
1
1
1
1
1
1
1
1
1
1
1
1
1
1
1
1
1
1
1
1
1
1
1
1
1
1
1
1
1
1
1
1
1
1
1
1
1
1
1
1
1
1
1
1
1
1
1
1
1
1
1
1
1
1
1
1
1
1
1
1
1
1
1
1
1
1
1
1
1
1
1
1
1
1
1
1
1
1
1
1
1
1.0004
1.01581
1.18314
1.58795
1.91386
2.03446
1
1
1
1
1
1
1
1
1
1
1
1
1
1
1
1
1
1
1
1
1
1
1
1
1
1
1
1
1
1
1
1
1
1
1
1
1
1
1
1
1
1
1
1
1
1
1
1
1
1
1
1
1
1
1
1
1
1
1
1
1
1
1
1
1
1
1
1
1
1
1
1
1
1
1
1
1
1
1
1
1
1
1
1
1
1
1
1
1
1
1
1.00006
1.00345
1.06905
1.37526
1.80393
1
1
1
1
1
1
1
1
1
1
1
1
1
1
1
1
1
1
1
1
1
1
1
1
1
1
1
1
1
1
1
1
1
1
1
1
1
1
1
1
1
1
1
1
1
1
1
1
1
1
1
1
1
1
1
1
1
1
1
1
1
1
1
1
1
1
1
1
1
1
1
1
1
1
1
1
1
1
1
1
1
1
1
1
1
1
1
1
1
1
1
1
1.00001
1.00063
1.01834
1.20528
1
1
1
1
1
1
1
1
1
1
1
1
1
1
1
1
1
1
1
1
1
1
1
1
1
1
1
1
1
1
1
1
1
1
1
1
1
1
1
1
1
1
1
1
1
1
1
1
1
1
1
1
1
1
1
1
1
1
1
1
1
1
1
1
1
1
1
1
1
1
1
1
1
1
1
1
1
1
1
1
1
1
1
1
1
1
1
1
1
1
1
1
1
1
1.00009
1.1406
1
1
1
1
1
1
1
1
1
1
1
1
1
1
1
1
1
1
1
1
1
1
1
1
1
1
1
1
1
1
1
1
1
1
1
1
1
1
1
1
1
1
1
1
1
1
1
1
1
1
1
1
1
1
1
1
1
1
1
1
1
1
1
1
1
1
1
1
1
1
1
1
1
1
1
1
1
1
1
1
1
1
1
1
1
1
1
1
1
1
1
1
1
1
1
1.25988
1
1
1
1
1
1
1
1
1
1
1
1
1
1
1
1
1
1
1
1
1
1
1
1
1
1
1
1
1
1
1
1
1
1
1
1
1
1
1
1
1
1
1
1
1
1
1
1
1
1
1
1
1
1
1
1
1
1
1
1
1
1
1
1
1
1
1
1
1
1
1
1
1
1
1
1
1
1
1
1
1
1
1
1
1
1
1
1
1
1
1
1
1
1
1
1.2528
1
1
1
1
1
1
1
1
1
1
1
1
1
1
1
1
1
1
1
1
1
1
1
1
1
1
1
1
1
1
1
1
1
1
1
1
1
1
1
1
1
1
1
1
1
1
1
1
1
1
1
1
1
1
1
1
1
1
1
1
1
1
1
1
1
1
1
1
1
1
1
1
1
1
1
1
1
1
1
1
1
1
1
1
1
1
1
1
1
1
1
1
1
1
1
1.18928
1
1
1
1
1
1
1
1
1
1
1
1
1
1
1
1
1
1
1
1
1
1
1
1
1
1
1
1
1
1
1
1
1
1
1
1
1
1
1
1
1
1
1
1
1
1
1
1
1
1
1
1
1
1
1
1
1
1
1
1
1
1
1
1
1
1
1
1
1
1
1
1
1
1
1
1
1
1
1
1
1
1
1
1
1
1
1
1
1
1
1
1
1
1
1
1.11403
1
1
1
1
1
1
1
1
1
1
1
1
1
1
1
1
1
1
1
1
1
1
1
1
1
1
1
1
1
1
1
1
1
1
1
1
1
1
1
1
1
1
1
1
1
1
1
1
1
1
1
1
1
1
1
1
1
1
1
1
1
1
1
1
1
1
1
1
1
1
1
1
1
1
1
1
1
1
1
1
1
1
1
1
1
1
1
1
1
1
1
1
1
1
1
1.00651
1
1
1
1
1
1
1
1
1
1
1
1
1
1
1
1
1
1
1
1
1
1
1
1
1
1
1
1
1
1
1
1
1
1
1
1
1
1
1
1
1
1
1
1
1
1
1
1
1
1
1
1
1
1
1
1
1
1
1
1
1
1
1
1
1
1
1
1
1
1
1
1
1
1
1
1
1
1
1
1
1
1
1
1
1
1
1
1
1
1
1
1
1
1
1
1.00001
1
1
1
1
1
1
1
1
1
1
1
1
1
1
1
1
1
1
1
1
1
1
1
1
1
1
1
1
1
1
1
1
1
1
1
1
1
1
1
1
1
1
1
1
1
1
1
1
1
1
1
1
1
1
1
1
1
1
1
1
1
1
1
1
1
1
1
1
1
1
1
1
1
1
1
1
1
1
1
1
1
1
1
1
1
1
1
1
1
1
1
1
1
1
1
1
1
1
1
1
1
1
1
1
1
1
1
1
1
1
1
1
1
1
1
1
1
1
1
1
1
1
1
1
1
1
1
1
1
1
1
1
1
1
1
1
1
1
1
1
1
1
1
1
1
1
1
1
1
1
1
1
1
1
1
1
1
1
1
1
1
1
1
1
1
1
1
1
1
1
1
1
1
1
1
1
1
1
1
1
1
1
1
1
1
1
1
1
1
1
1
1
1
1
1
1
1
1
1
1
1
1
1
1
1
1
1
1
1
1
1
1
1
1
1
1
1
1
1
1
1
1
1
1
1
1
1
1
1
1
1
1
1
1
1
1
1
1
1
1
1
1
1
1
1
1
1
1
1
1
1
1
1
1
1
1
1
1
1
1
1
1
1
1
1
1
1
1
1
1
1
1
1
1
1
1
1
1
1
1
1
1
1
1
1
1
1
1
1
1
1
1
1
1
1
1
1
1
1
1
1
1
1
1
1
1
1
1
1
1
1
1
1
1
1
1
1
1
1
1
1
1
1
1
1
1
1
1
1
1
1
1
1
1
1
1
1
1
1
1
1
1
1
1
1
1
1
1
1
1
1
1
1
1
1
1
1
1
1
1
1
1
1
1
1
1
1
1
1
1
1
1
1
1
1
1
1
1
1
1
1
1
1
1
1
1
1
1
1
1
1
1
1
1
1
1
1
1
1
1
1
1
1
1
1
1
1
1
1
1
1
1
1
1
1
1
1
1
1
1
1
1
1
1
1
1
1
1
1
1
1
1
1
1
1
1
1
1
1
1
1
1
1
1
1
1
1
1
1
1
1
1
1
1
1
1
1
1
1
1
1
1
1
1
1
1
1
1
1
1
1
1
1
1
1
1
1
1
1
1
1
1
1
1
1
1
1
1
1
1
1
1
1
1
1
1
1
1
1
1
1
1
1
1
1
1
1
1
1
1
1
1
1
1
1
1
1
1
1
1
1
1
1
1
1
1
1
1
1
1
1
1
1
1
1
1
1
1
1
1
1
1
1
1
1
1
1
1
1
1
1
1
1
1
1
1
1
1
1
1
1
1
1
1
1
1
1
1
1
1
1
1
1
1
1
1
1
1
1
1
1
1
1
1
1
1
1
1
1
1
1
1
1
1
1
1
1
1
1
1
1
1
1
1
1
1
1
1
1
1
1
1
1
1
1
1
1
1
1
1
1
1
1
1
1
1
1
1
1
1
1
1
1
1
1
1
1
1
1
1
1
1
1
1
1
1
1
1
1
1
1
1
1
1
1
1
1
1
1
1
1
1
1
1
1
1
1
1
1
1
1
1
1
1
1
1
1
1
1
1
1
1
1
1
1
1
1
1
1
1
1
1
1
1
1
1
1
1
1
1
1
1
1
1
1
1
1
1
1
1
1
1
1
1
1
1
1
1
1
1
1
1
1
1
1
1
1
1
1
1
1
1
1
1
1
1
1
1
1
1
1
1
1
1
1
1
1
1
1
1
1
1
1
1
1
1
1
1
1
1
1
1
1
1
1
1
1
1
1
1
1
1
1
1
1
1
1
1
1
1
1
1
1
1
1
1
1
1
1
1
1
1
1
1
1
1
1
1
1
1
1
1
1
1
1
1
1
1
1
1
1
1
1
1
1
1
1
1
1
1
1
1
1
1
1
1
1
1
1
1
1
1
1
1
1
1
1
1
1
1
1
1
1
1
1
1
1
1
1
1
1
1
1
1
1
1
1
1
1
1
1
1
1
1
1
1
1
1
1
1
1
1
1
1
1
1
1
1
1
1
1
1
1
1
1
1
1
1
1
1
1
1
1
1
1
1
1
1
1
1
1
1
1
1
1
1
1
1
1
1
1
1
1
1
1
1
1
1
1
1
1
1
1
1
1
1
1
1
1
1
1
1
1
1
1
1
1
1
1
1
1
1
1
1
1
1
1
1
1
1
1
1
1
1
1
1
1
1
1
1
1.49687
0.948343
0.649544
0.413272
0.568175
0.766204
0.970867
1.08266
1.16901
1.3168
1.41291
1.42793
1.42636
1.40452
1.40777
1.45419
1.53188
1.60314
1.61129
1.59778
1.57804
1.57768
1.58298
1.59857
1.61209
1.61089
1.59816
1.58623
1.58862
1.60268
1.62573
1.64586
1.65089
1.64961
1.64236
1.63312
1.63062
1.63162
1.63698
1.64482
1.64875
1.65038
1.65119
1.65253
1.6552
1.65718
1.65724
1.65585
1.65256
1.65001
1.64989
1.65193
1.65356
1.65335
1.65228
1.65049
1.64724
2.19306
2.7837
2.81174
2.80195
2.79178
2.78143
2.77345
2.76657
2.75873
2.7499
2.7405
2.73184
2.72408
2.7165
2.7095
2.70308
2.69714
2.69149
2.68555
2.67841
2.66925
2.65791
2.64518
2.63258
2.62147
2.6125
2.60562
2.60017
2.59531
2.59032
2.58477
2.57859
2.57196
2.56511
2.55827
2.55161
2.54506
2.53711
2.52684
2.51642
2.50655
2.49791
2.49075
2.48538
2.48211
2.48025
2.47794
2.47366
2.46761
2.46056
2.45253
2.44343
2.43366
2.42391
2.41455
2.40554
2.39694
2.38883
2.38062
2.37221
2.36387
2.35593
2.34892
2.34311
2.33904
2.33607
2.33261
2.32822
2.32339
2.31798
2.31181
2.30545
2.29959
2.29429
2.28924
2.28413
2.2792
2.27439
2.26906
2.26245
2.25489
2.24661
2.23792
2.22956
2.22198
2.21511
2.20867
2.20243
2.19627
2.19033
2.18493
2.18023
2.17613
2.1724
2.16888
2.16541
2.16176
2.15767
2.15295
2.1477
2.14223
2.13679
2.13144
2.12614
2.12074
2.11503
2.10886
2.1022
2.09529
2.08857
2.08239
2.07682
2.07169
2.0667
2.06144
2.05522
2.04757
2.03926
2.03209
2.02664
2.02237
2.01885
2.01573
2.01255
2.00873
2.00367
1.99707
1.98937
1.98234
1.97683
1.97203
1.9674
1.96273
1.95931
1.95298
1.74498
1.40751