/*--------------------------------*- C++ -*----------------------------------*\
  =========                 |
  \\      /  F ield         | OpenFOAM: The Open Source CFD Toolbox
   \\    /   O peration     | Website:  https://openfoam.org
    \\  /    A nd           | Version:  7
     \\/     M anipulation  |
\*---------------------------------------------------------------------------*/
FoamFile
{
    version     2.0;
    format      ascii;
    class       volVectorField;
    location    "3.9";
    object      U;
}
// * * * * * * * * * * * * * * * * * * * * * * * * * * * * * * * * * * * * * //

dimensions      [0 1 -1 0 0 0 0];

internalField   nonuniform List<vector> 
19968
(
(3 5.76281e-17 0)
(3 6.40938e-17 0)
(3 1.64946e-16 0)
(3 -2.88489e-17 0)
(3 -5.23034e-16 0)
(3 -5.78175e-16 0)
(3 -4.23301e-16 0)
(3 -4.13836e-16 0)
(3 3.06018e-16 0)
(3 3.52352e-16 0)
(3 5.98781e-16 0)
(3 9.53247e-16 0)
(3 1.4068e-15 0)
(3 1.34271e-15 0)
(3 1.50281e-15 0)
(3 9.16992e-16 0)
(3 1.22527e-15 0)
(3 1.56298e-15 0)
(3 1.45293e-15 0)
(3 1.89808e-15 0)
(3 2.14284e-15 0)
(3 1.5066e-15 0)
(3 2.97665e-16 0)
(3 -5.51243e-16 0)
(3 -1.08327e-15 0)
(3 -5.75411e-16 0)
(3 -2.63441e-16 0)
(3 4.67643e-16 0)
(3 1.23463e-15 0)
(3 1.84055e-15 0)
(3 1.77427e-15 0)
(3 1.10004e-15 0)
(3 7.56679e-16 0)
(3 3.96897e-16 0)
(3 2.69046e-16 0)
(3 -7.01849e-17 0)
(3 -6.45545e-16 0)
(3 -6.09922e-16 0)
(3 -1.05737e-15 0)
(3 -2.3675e-15 0)
(3 -2.39704e-15 0)
(3 -2.08298e-15 0)
(3 -1.79691e-15 0)
(3 -1.52547e-15 0)
(3 -1.88376e-15 0)
(3 -2.37894e-15 0)
(3 -1.91489e-15 0)
(3 -1.15516e-15 0)
(2.89633 0.00148989 0)
(1.00672 0.00639699 0)
(0.761915 0.0055561 0)
(0.746612 0.00820592 0)
(0.728894 0.00831047 0)
(0.71303 0.00846659 0)
(0.697752 0.00879597 0)
(0.682933 0.00909189 0)
(0.668194 0.00914207 0)
(0.653311 0.00901986 0)
(0.63819 0.00887279 0)
(0.62307 0.00878912 0)
(0.608251 0.00889004 0)
(0.593687 0.00916145 0)
(0.579161 0.00932431 0)
(0.564486 0.00932854 0)
(0.549203 0.00944021 0)
(0.532909 0.00957371 0)
(0.515985 0.00958744 0)
(0.499195 0.00971603 0)
(0.483038 0.00997204 0)
(0.467804 0.0101041 0)
(0.453445 0.0101534 0)
(0.439425 0.0102962 0)
(0.424911 0.010501 0)
(0.409289 0.0106411 0)
(0.39268 0.0106494 0)
(0.375826 0.0106143 0)
(0.359389 0.0106946 0)
(0.343471 0.0108944 0)
(0.327833 0.0110568 0)
(0.312217 0.0111095 0)
(0.296321 0.0111447 0)
(0.279791 0.0112517 0)
(0.262396 0.0114295 0)
(0.244169 0.0116561 0)
(0.225361 0.0119294 0)
(0.206287 0.0122325 0)
(0.18724 0.0125168 0)
(0.168483 0.0127306 0)
(0.150193 0.0128918 0)
(0.132359 0.0130619 0)
(0.114671 0.0133492 0)
(0.0965535 0.0137261 0)
(0.0773828 0.0141298 0)
(0.0567951 0.0145295 0)
(0.034915 0.0146903 0)
(0.0118979 0.0148449 0)
(3 -3.84486e-17 0)
(3 -1.03363e-17 0)
(3 3.72421e-16 0)
(3 7.47779e-16 0)
(3 5.60355e-16 0)
(3 2.87999e-16 0)
(3 2.25885e-16 0)
(3 -6.47594e-17 0)
(3 -6.50995e-18 0)
(3 1.33806e-16 0)
(3 1.23523e-15 0)
(3 1.55274e-15 0)
(3 1.73972e-15 0)
(3 1.61447e-15 0)
(3 1.77792e-15 0)
(3 2.41218e-15 0)
(3 2.63056e-15 0)
(3 2.36621e-15 0)
(3 2.75484e-15 0)
(3 3.54235e-15 0)
(3 2.69089e-15 0)
(3 -6.94526e-17 0)
(3 -9.4227e-16 0)
(3 -2.03652e-15 0)
(3 -2.28147e-15 0)
(3 -9.27296e-16 0)
(3 -1.03993e-15 0)
(3 -4.95612e-16 0)
(3 5.92048e-16 0)
(3 1.58054e-15 0)
(3 1.14467e-15 0)
(3 4.29435e-16 0)
(3 -7.07533e-16 0)
(3 -1.02014e-15 0)
(3 -8.75065e-16 0)
(3 2.35699e-16 0)
(3 3.39704e-16 0)
(3 -2.07061e-16 0)
(3 -1.81604e-15 0)
(3 -2.82969e-15 0)
(3 -2.10934e-15 0)
(3 -1.65053e-15 0)
(3 -1.42122e-15 0)
(3 -1.14018e-15 0)
(3 -1.12077e-15 0)
(3 -1.42305e-15 0)
(3 -1.3299e-15 0)
(3 -6.19713e-16 0)
(2.90686 0.0088347 0)
(1.01392 0.0294261 0)
(0.75976 0.0240703 0)
(0.742349 0.0247345 0)
(0.724952 0.0251691 0)
(0.708787 0.0254557 0)
(0.693322 0.026217 0)
(0.678458 0.0269167 0)
(0.663821 0.0270101 0)
(0.649097 0.0267533 0)
(0.634081 0.0264832 0)
(0.618969 0.0263672 0)
(0.60408 0.0267326 0)
(0.589416 0.0275514 0)
(0.574753 0.0279798 0)
(0.559959 0.0278022 0)
(0.54467 0.0279291 0)
(0.528506 0.0282828 0)
(0.511719 0.0285086 0)
(0.494949 0.0291301 0)
(0.478677 0.0300578 0)
(0.463222 0.030455 0)
(0.448645 0.0304909 0)
(0.43447 0.0308244 0)
(0.419884 0.0314134 0)
(0.404258 0.0318717 0)
(0.387681 0.0319929 0)
(0.370834 0.0319965 0)
(0.354351 0.0323011 0)
(0.338353 0.032906 0)
(0.322625 0.0333651 0)
(0.30692 0.0334939 0)
(0.290947 0.0335764 0)
(0.274376 0.0338766 0)
(0.257007 0.0343943 0)
(0.238903 0.0350696 0)
(0.220333 0.0359064 0)
(0.201612 0.0368613 0)
(0.183013 0.0377892 0)
(0.164762 0.0385322 0)
(0.146993 0.0391307 0)
(0.129659 0.0397438 0)
(0.112458 0.0406613 0)
(0.0948237 0.0418441 0)
(0.0761235 0.0431181 0)
(0.0559941 0.0444193 0)
(0.0344966 0.0450636 0)
(0.0118029 0.0457138 0)
(3 6.12928e-17 0)
(3 5.55844e-17 0)
(3 4.92121e-16 0)
(3 9.96773e-16 0)
(3 1.82532e-15 0)
(3 1.96456e-15 0)
(3 1.46367e-15 0)
(3 5.4369e-16 0)
(3 -3.8224e-17 0)
(3 5.05942e-16 0)
(3 1.43077e-15 0)
(3 1.45092e-15 0)
(3 1.29851e-15 0)
(3 1.25358e-15 0)
(3 1.2662e-15 0)
(3 1.67568e-15 0)
(3 1.97323e-15 0)
(3 1.99916e-15 0)
(3 1.29711e-15 0)
(3 4.41459e-17 0)
(3 -8.0904e-16 0)
(3 -1.4273e-15 0)
(3 -1.50437e-15 0)
(3 -8.14462e-16 0)
(3 -7.46498e-16 0)
(3 -1.34909e-15 0)
(3 -1.54542e-15 0)
(3 -1.26807e-15 0)
(3 -6.76985e-16 0)
(3 -5.40859e-16 0)
(3 -1.11577e-15 0)
(3 -1.38304e-15 0)
(3 -2.03186e-15 0)
(3 -2.33382e-15 0)
(3 -1.74678e-15 0)
(3 -7.59968e-16 0)
(3 -2.4451e-16 0)
(3 -2.6254e-16 0)
(3 -7.27361e-16 0)
(3 -9.30581e-16 0)
(3 -6.42475e-16 0)
(3 -6.34881e-16 0)
(3 -9.0283e-16 0)
(3 -5.22489e-16 0)
(3 -2.60436e-16 0)
(3 3.6452e-16 0)
(3 1.13451e-15 0)
(3 1.26564e-15 0)
(2.92996 0.0143075 0)
(1.03057 0.0503311 0)
(0.761559 0.0426347 0)
(0.743597 0.0424729 0)
(0.72653 0.0433914 0)
(0.710128 0.0442242 0)
(0.694383 0.0454967 0)
(0.679256 0.0464422 0)
(0.664487 0.04638 0)
(0.649747 0.0459014 0)
(0.634717 0.0456026 0)
(0.619489 0.0456176 0)
(0.6044 0.04639 0)
(0.589535 0.0478631 0)
(0.574638 0.0486628 0)
(0.559622 0.0483145 0)
(0.544218 0.0482776 0)
(0.528124 0.048682 0)
(0.511444 0.049079 0)
(0.494676 0.050253 0)
(0.478244 0.0519172 0)
(0.462437 0.0525912 0)
(0.44744 0.0525411 0)
(0.432869 0.0529686 0)
(0.417984 0.0538875 0)
(0.402161 0.0546697 0)
(0.385435 0.0549591 0)
(0.36839 0.0550563 0)
(0.351613 0.0555901 0)
(0.33526 0.0565572 0)
(0.319137 0.0572641 0)
(0.303019 0.0574353 0)
(0.286628 0.0575327 0)
(0.269667 0.057972 0)
(0.251973 0.0587358 0)
(0.233634 0.0597119 0)
(0.21494 0.0609138 0)
(0.196214 0.0622971 0)
(0.177727 0.0636554 0)
(0.159679 0.0647538 0)
(0.142176 0.0656654 0)
(0.125149 0.0666361 0)
(0.108337 0.0681176 0)
(0.0912076 0.0700918 0)
(0.0731323 0.0722824 0)
(0.0537895 0.074611 0)
(0.0331315 0.0759314 0)
(0.0113465 0.0773203 0)
(3 1.18879e-16 0)
(3 7.39437e-16 0)
(3 7.73887e-16 0)
(3 5.37157e-16 0)
(3 9.19273e-16 0)
(3 9.96993e-16 0)
(3 2.96271e-16 0)
(3 4.01282e-16 0)
(3 9.26323e-16 0)
(3 1.19806e-15 0)
(3 1.54427e-15 0)
(3 1.67829e-15 0)
(3 1.74052e-15 0)
(3 2.18014e-15 0)
(3 2.25869e-15 0)
(3 1.22293e-15 0)
(3 1.06382e-15 0)
(3 1.02752e-15 0)
(3 1.49176e-17 0)
(3 -9.96942e-16 0)
(3 -1.52823e-15 0)
(3 -1.76265e-15 0)
(3 -1.65837e-15 0)
(3 -8.04744e-16 0)
(3 -3.78196e-16 0)
(3 -1.41313e-15 0)
(3 -1.69905e-15 0)
(3 -1.28455e-15 0)
(3 -1.03745e-15 0)
(3 -1.32339e-15 0)
(3 -1.28005e-15 0)
(3 -1.19489e-15 0)
(3 -1.16391e-15 0)
(3 -1.65924e-15 0)
(3 -1.91774e-15 0)
(3 -1.70067e-15 0)
(3 -1.1022e-15 0)
(3 -1.71683e-16 0)
(3 -3.6783e-16 0)
(3 -2.92687e-16 0)
(3 -6.47495e-16 0)
(3 -1.02957e-15 0)
(3 -9.96029e-16 0)
(3 -3.99911e-16 0)
(3 1.836e-17 0)
(3 1.43134e-15 0)
(3 1.51308e-15 0)
(3 5.75163e-16 0)
(2.95803 0.0159738 0)
(1.0489 0.076341 0)
(0.763952 0.0628769 0)
(0.747093 0.0601068 0)
(0.731048 0.0618782 0)
(0.714864 0.0633897 0)
(0.699241 0.0652767 0)
(0.684106 0.0663918 0)
(0.669392 0.06604 0)
(0.654811 0.0652495 0)
(0.639997 0.0649957 0)
(0.624943 0.0653696 0)
(0.609944 0.0667564 0)
(0.595149 0.0690276 0)
(0.580223 0.0703212 0)
(0.565121 0.069862 0)
(0.549693 0.0694817 0)
(0.533764 0.0697349 0)
(0.517314 0.0703377 0)
(0.500693 0.0722355 0)
(0.484246 0.0748578 0)
(0.468162 0.0760031 0)
(0.452772 0.0759523 0)
(0.437794 0.0765099 0)
(0.422584 0.077809 0)
(0.406539 0.0790025 0)
(0.38963 0.0796009 0)
(0.37233 0.0799546 0)
(0.355177 0.0808535 0)
(0.338369 0.0822873 0)
(0.321727 0.0833489 0)
(0.305042 0.0836776 0)
(0.288057 0.0838861 0)
(0.270514 0.084521 0)
(0.252285 0.0855401 0)
(0.23347 0.0867667 0)
(0.214358 0.0882162 0)
(0.195273 0.0898561 0)
(0.176473 0.0914482 0)
(0.158133 0.0927058 0)
(0.14033 0.0937336 0)
(0.122985 0.094847 0)
(0.105908 0.0966212 0)
(0.0886654 0.0991123 0)
(0.0706914 0.101965 0)
(0.0517912 0.105177 0)
(0.0317693 0.10715 0)
(0.0108669 0.109322 0)
(3 -1.1719e-16 0)
(3 -2.04533e-17 0)
(3 -2.29199e-16 0)
(3 -2.17377e-16 0)
(3 -1.15653e-16 0)
(3 -3.88526e-16 0)
(3 -5.32309e-16 0)
(3 -2.33329e-16 0)
(3 -7.21106e-17 0)
(3 1.32081e-16 0)
(3 3.42585e-16 0)
(3 8.67221e-16 0)
(3 5.2287e-16 0)
(3 1.36214e-15 0)
(3 1.26759e-15 0)
(3 8.82825e-16 0)
(3 7.08063e-16 0)
(3 4.35958e-16 0)
(3 2.68467e-16 0)
(3 -1.11339e-16 0)
(3 -9.25784e-16 0)
(3 -1.37302e-15 0)
(3 -8.44297e-16 0)
(3 -8.94253e-16 0)
(3 -1.27238e-15 0)
(3 -1.62663e-15 0)
(3 -1.62095e-15 0)
(3 -9.39061e-16 0)
(3 -1.17744e-15 0)
(3 -1.16113e-15 0)
(3 -8.34977e-16 0)
(3 -6.5767e-16 0)
(3 -2.28929e-16 0)
(3 -7.09727e-16 0)
(3 -2.20127e-15 0)
(3 -2.13668e-15 0)
(3 -1.59421e-15 0)
(3 -1.48924e-15 0)
(3 -1.70497e-15 0)
(3 -1.79346e-15 0)
(3 -1.67356e-15 0)
(3 -1.14014e-15 0)
(3 -1.5042e-16 0)
(3 1.53694e-16 0)
(3 4.38984e-16 0)
(3 9.52778e-17 0)
(3 -3.27926e-16 0)
(3 -4.71516e-16 0)
(2.99983 0.00275213 0)
(1.10817 0.0932599 0)
(0.773752 0.0772387 0)
(0.755851 0.0761514 0)
(0.74052 0.079773 0)
(0.723975 0.0825282 0)
(0.708069 0.0854864 0)
(0.692435 0.0870362 0)
(0.677298 0.086443 0)
(0.662521 0.085214 0)
(0.647813 0.0848224 0)
(0.633093 0.0854289 0)
(0.618475 0.0873768 0)
(0.604062 0.0904581 0)
(0.589338 0.0924778 0)
(0.574266 0.0920825 0)
(0.55891 0.0911604 0)
(0.543249 0.0909071 0)
(0.527228 0.0915592 0)
(0.511081 0.094166 0)
(0.495019 0.0978322 0)
(0.479011 0.0995694 0)
(0.463543 0.0995307 0)
(0.44842 0.10021 0)
(0.433116 0.10193 0)
(0.417062 0.103628 0)
(0.400182 0.104681 0)
(0.382836 0.105447 0)
(0.365506 0.106835 0)
(0.348415 0.108848 0)
(0.331398 0.110417 0)
(0.314261 0.11109 0)
(0.296783 0.111588 0)
(0.278737 0.112572 0)
(0.260016 0.113979 0)
(0.240701 0.11556 0)
(0.221059 0.117327 0)
(0.201392 0.119273 0)
(0.181941 0.121157 0)
(0.162848 0.122657 0)
(0.144163 0.123883 0)
(0.12581 0.125175 0)
(0.107671 0.12714 0)
(0.0894633 0.129956 0)
(0.0707118 0.133182 0)
(0.051453 0.137032 0)
(0.0313287 0.139504 0)
(0.010692 0.142378 0)
(3 3.05573e-17 0)
(3 -9.18073e-17 0)
(3 2.04088e-17 0)
(3 1.57705e-16 0)
(3 -2.77113e-16 0)
(3 -4.20991e-16 0)
(3 -3.96865e-16 0)
(3 -4.80216e-16 0)
(3 -1.26839e-15 0)
(3 -1.14736e-15 0)
(3 -1.03051e-15 0)
(3 -1.05129e-15 0)
(3 -9.82069e-16 0)
(3 -1.04852e-15 0)
(3 -9.10288e-16 0)
(3 -1.85305e-16 0)
(3 4.54822e-16 0)
(3 6.15785e-16 0)
(3 7.9903e-16 0)
(3 1.97378e-16 0)
(3 -8.17552e-16 0)
(3 -8.41134e-16 0)
(3 -1.22581e-15 0)
(3 -1.05861e-15 0)
(3 -1.74e-15 0)
(3 -1.12165e-15 0)
(3 -7.10161e-16 0)
(3 -8.86262e-16 0)
(3 -1.42345e-15 0)
(3 -6.82079e-16 0)
(3 -6.83968e-16 0)
(3 -3.91678e-16 0)
(3 1.27917e-16 0)
(3 3.48773e-17 0)
(3 -3.70538e-16 0)
(3 -5.30045e-16 0)
(3 -1.36874e-15 0)
(3 -1.60534e-15 0)
(3 -1.21768e-15 0)
(3 -1.05397e-15 0)
(3 -1.45327e-15 0)
(3 -1.49376e-15 0)
(3 -1.96486e-15 0)
(3 -2.28175e-15 0)
(3 -2.94482e-15 0)
(3 -2.85816e-15 0)
(3 -1.47462e-15 0)
(3 -5.13536e-16 0)
(3.00003 8.94367e-06 0)
(1.20087 0.11505 0)
(0.774744 0.097394 0)
(0.751857 0.0954947 0)
(0.737047 0.101018 0)
(0.720044 0.104873 0)
(0.704029 0.108743 0)
(0.688153 0.110487 0)
(0.672856 0.109357 0)
(0.658095 0.107188 0)
(0.643643 0.106131 0)
(0.629385 0.106764 0)
(0.615281 0.109354 0)
(0.6014 0.113499 0)
(0.587045 0.116649 0)
(0.572104 0.116715 0)
(0.556878 0.115346 0)
(0.541465 0.114443 0)
(0.525833 0.115019 0)
(0.510222 0.118302 0)
(0.494789 0.123044 0)
(0.479205 0.125461 0)
(0.464057 0.125466 0)
(0.44918 0.126249 0)
(0.434161 0.128384 0)
(0.418489 0.1306 0)
(0.402068 0.132161 0)
(0.385149 0.133404 0)
(0.368137 0.135298 0)
(0.351279 0.137884 0)
(0.334428 0.140001 0)
(0.317401 0.1411 0)
(0.299999 0.141959 0)
(0.282028 0.14333 0)
(0.263387 0.145149 0)
(0.244133 0.147103 0)
(0.224493 0.14919 0)
(0.204745 0.151435 0)
(0.185111 0.153618 0)
(0.165703 0.155395 0)
(0.146545 0.156855 0)
(0.127554 0.158332 0)
(0.108652 0.160365 0)
(0.0897063 0.163316 0)
(0.0703425 0.166643 0)
(0.0508373 0.170877 0)
(0.0307041 0.17366 0)
(0.0104784 0.177103 0)
(3 -1.32167e-16 0)
(3 -4.16329e-16 0)
(3 -3.6903e-16 0)
(3 -4.94392e-16 0)
(3 -7.14266e-16 0)
(3 -1.05273e-15 0)
(3 -1.11284e-15 0)
(3 -9.80017e-16 0)
(3 -9.16656e-16 0)
(3 -1.14229e-15 0)
(3 -1.45435e-15 0)
(3 -1.14007e-15 0)
(3 -9.65094e-16 0)
(3 -1.87803e-15 0)
(3 -2.14233e-15 0)
(3 -1.61907e-15 0)
(3 -1.34302e-15 0)
(3 -1.00535e-15 0)
(3 -1.04667e-15 0)
(3 -4.98829e-16 0)
(3 -1.60451e-16 0)
(3 -3.29193e-16 0)
(3 -8.6906e-16 0)
(3 -5.75604e-16 0)
(3 4.11117e-16 0)
(3 2.19925e-16 0)
(3 -1.5159e-16 0)
(3 -5.29904e-16 0)
(3 -9.03281e-16 0)
(3 -8.42173e-16 0)
(3 -6.92244e-16 0)
(3 -1.09208e-15 0)
(3 -1.54692e-15 0)
(3 -9.87928e-16 0)
(3 -5.93738e-16 0)
(3 -7.91981e-16 0)
(3 -1.62897e-15 0)
(3 -1.4828e-15 0)
(3 -5.82634e-16 0)
(3 -4.78339e-16 0)
(3 -7.94294e-16 0)
(3 -1.7605e-15 0)
(3 -2.32354e-15 0)
(3 -3.36555e-15 0)
(3 -3.73518e-15 0)
(3 -2.41083e-15 0)
(3 -1.37997e-15 0)
(3 -9.75427e-16 0)
(3 1.72929e-08 0)
(1.35712 0.142568 0)
(0.783685 0.122674 0)
(0.751295 0.115279 0)
(0.737238 0.122024 0)
(0.720189 0.127163 0)
(0.704348 0.132184 0)
(0.688366 0.134402 0)
(0.672826 0.13301 0)
(0.657804 0.129841 0)
(0.643162 0.127619 0)
(0.628917 0.12783 0)
(0.615068 0.130853 0)
(0.601676 0.136048 0)
(0.587792 0.140475 0)
(0.573059 0.141346 0)
(0.557995 0.139684 0)
(0.54277 0.137964 0)
(0.52737 0.138265 0)
(0.512143 0.142034 0)
(0.497232 0.147708 0)
(0.481975 0.150834 0)
(0.467044 0.150925 0)
(0.452331 0.151887 0)
(0.43753 0.15456 0)
(0.42215 0.157424 0)
(0.40608 0.159614 0)
(0.389477 0.161446 0)
(0.372663 0.163928 0)
(0.355904 0.167181 0)
(0.339094 0.170029 0)
(0.322071 0.171816 0)
(0.30468 0.173292 0)
(0.286758 0.175263 0)
(0.268206 0.177675 0)
(0.249035 0.18016 0)
(0.229427 0.182701 0)
(0.20963 0.185361 0)
(0.189844 0.187973 0)
(0.170153 0.190199 0)
(0.150551 0.192081 0)
(0.130945 0.193923 0)
(0.11125 0.196099 0)
(0.0914616 0.199172 0)
(0.0713001 0.202487 0)
(0.0512362 0.206938 0)
(0.0307275 0.209897 0)
(0.0105137 0.213782 0)
(3 -1.83402e-16 0)
(3 -4.15239e-16 0)
(3 -5.49883e-16 0)
(3 -4.47343e-16 0)
(3 -3.97402e-16 0)
(3 -6.7981e-16 0)
(3 -7.11325e-16 0)
(3 -8.29324e-16 0)
(3 -1.54521e-16 0)
(3 -6.34982e-16 0)
(3 -1.36722e-15 0)
(3 -1.43613e-15 0)
(3 -1.27471e-15 0)
(3 -1.07714e-15 0)
(3 -1.19774e-15 0)
(3 -1.48091e-15 0)
(3 -1.46401e-15 0)
(3 -1.62154e-15 0)
(3 -2.12513e-15 0)
(3 -2.07001e-15 0)
(3 -1.52827e-15 0)
(3 -1.00528e-15 0)
(3 -1.19389e-15 0)
(3 -1.048e-15 0)
(3 -3.08347e-16 0)
(3 1.71561e-16 0)
(3 -1.11931e-15 0)
(3 -1.95908e-15 0)
(3 -2.01917e-15 0)
(3 -1.99949e-15 0)
(3 -1.77549e-15 0)
(3 -1.47151e-15 0)
(3 -1.72545e-15 0)
(3 -1.6401e-15 0)
(3 -8.26426e-16 0)
(3 -4.27566e-16 0)
(3 -6.27878e-16 0)
(3 -4.37245e-16 0)
(3 2.72866e-17 0)
(3 7.55493e-17 0)
(3 -4.12482e-16 0)
(3 -5.42091e-16 0)
(3 -5.0836e-16 0)
(3 -6.23708e-16 0)
(3 -2.12667e-16 0)
(3 -8.97419e-17 0)
(3 -2.86117e-16 0)
(3 -6.25108e-16 0)
(3 5.20294e-11 0)
(1.59777 0.165513 0)
(0.803322 0.151863 0)
(0.755413 0.137331 0)
(0.740355 0.144191 0)
(0.72283 0.150368 0)
(0.706973 0.1564 0)
(0.690968 0.159302 0)
(0.675205 0.158114 0)
(0.65977 0.154374 0)
(0.644577 0.150904 0)
(0.629749 0.150167 0)
(0.615559 0.153136 0)
(0.602241 0.159136 0)
(0.588676 0.164903 0)
(0.574056 0.166931 0)
(0.559031 0.165381 0)
(0.543908 0.162902 0)
(0.528651 0.162719 0)
(0.513801 0.16673 0)
(0.499526 0.173177 0)
(0.484736 0.177083 0)
(0.470114 0.177304 0)
(0.455666 0.178436 0)
(0.441214 0.181712 0)
(0.426245 0.185337 0)
(0.410629 0.18824 0)
(0.394474 0.190727 0)
(0.378004 0.193832 0)
(0.361468 0.197791 0)
(0.344789 0.201496 0)
(0.327814 0.204184 0)
(0.310433 0.206496 0)
(0.292521 0.209248 0)
(0.273968 0.212413 0)
(0.254741 0.215585 0)
(0.234982 0.218713 0)
(0.214925 0.221897 0)
(0.194778 0.225037 0)
(0.174625 0.227832 0)
(0.15446 0.230262 0)
(0.134198 0.232585 0)
(0.113744 0.234956 0)
(0.0931887 0.238119 0)
(0.0723227 0.241314 0)
(0.0517467 0.245813 0)
(0.0309131 0.248853 0)
(0.0105762 0.253044 0)
(3 2.88664e-16 0)
(3 6.38555e-16 0)
(3 6.21589e-16 0)
(3 7.11265e-16 0)
(3 7.89943e-16 0)
(3 1.02e-15 0)
(3 9.33936e-16 0)
(3 7.47446e-16 0)
(3 4.86271e-16 0)
(3 1.06548e-16 0)
(3 3.77138e-16 0)
(3 -2.17025e-16 0)
(3 7.7252e-19 0)
(3 2.93443e-16 0)
(3 3.70973e-16 0)
(3 -6.14787e-16 0)
(3 -2.39316e-15 0)
(3 -2.62959e-15 0)
(3 -2.3148e-15 0)
(3 -2.41336e-15 0)
(3 -2.27796e-15 0)
(3 -1.88459e-15 0)
(3 -1.88762e-15 0)
(3 -2.08343e-15 0)
(3 -2.06336e-15 0)
(3 -2.22241e-15 0)
(3 -2.70912e-15 0)
(3 -2.78252e-15 0)
(3 -2.51462e-15 0)
(3 -2.62114e-15 0)
(3 -2.10102e-15 0)
(3 -1.58103e-15 0)
(3 -9.09496e-16 0)
(3 -6.96029e-16 0)
(3 -2.34011e-17 0)
(3 1.83955e-16 0)
(3 3.26887e-16 0)
(3 4.46965e-16 0)
(3 -3.68187e-17 0)
(3 -4.97958e-16 0)
(3 -2.74468e-16 0)
(3 -4.62117e-16 0)
(3 -8.26225e-16 0)
(3 -5.76892e-16 0)
(3 5.65154e-16 0)
(3 4.1885e-16 0)
(3 6.04458e-16 0)
(3 -9.81356e-16 0)
(3 1.32827e-13 0)
(1.92939 0.186807 0)
(0.830988 0.188952 0)
(0.757261 0.166448 0)
(0.739942 0.171294 0)
(0.721838 0.176801 0)
(0.706446 0.182658 0)
(0.691415 0.185961 0)
(0.676449 0.185391 0)
(0.661416 0.181839 0)
(0.646223 0.177623 0)
(0.631043 0.175619 0)
(0.616401 0.177752 0)
(0.602916 0.18383 0)
(0.589605 0.190626 0)
(0.575104 0.193922 0)
(0.559968 0.192856 0)
(0.54474 0.189737 0)
(0.529315 0.1887 0)
(0.514431 0.192501 0)
(0.500459 0.199497 0)
(0.485845 0.20427 0)
(0.471187 0.204672 0)
(0.456708 0.205801 0)
(0.442422 0.209595 0)
(0.427811 0.214019 0)
(0.412684 0.217639 0)
(0.397156 0.220762 0)
(0.381352 0.224467 0)
(0.365462 0.229131 0)
(0.349413 0.233787 0)
(0.333043 0.237572 0)
(0.31627 0.240941 0)
(0.29899 0.244668 0)
(0.281063 0.248771 0)
(0.262372 0.252828 0)
(0.242985 0.256749 0)
(0.223098 0.260654 0)
(0.202908 0.264523 0)
(0.182497 0.268115 0)
(0.161853 0.271338 0)
(0.140916 0.274403 0)
(0.11959 0.277216 0)
(0.0980045 0.280613 0)
(0.0760844 0.283728 0)
(0.0543818 0.288243 0)
(0.0324998 0.291318 0)
(0.0111243 0.295731 0)
(3 3.34849e-17 0)
(3 2.87798e-16 0)
(3 1.36032e-16 0)
(3 -1.10334e-16 0)
(3 -2.0067e-16 0)
(3 6.08541e-17 0)
(3 1.19988e-16 0)
(3 1.40449e-16 0)
(3 -3.19498e-17 0)
(3 1.20438e-16 0)
(3 2.80463e-16 0)
(3 4.79621e-16 0)
(3 -6.10248e-17 0)
(3 -5.77523e-16 0)
(3 -7.08149e-16 0)
(3 -5.85001e-16 0)
(3 -2.01347e-15 0)
(3 -2.61561e-15 0)
(3 -1.92123e-15 0)
(3 -7.99872e-16 0)
(3 -8.54216e-16 0)
(3 -1.32203e-15 0)
(3 -1.12721e-15 0)
(3 -1.1551e-15 0)
(3 -2.1977e-15 0)
(3 -2.47242e-15 0)
(3 -1.54574e-15 0)
(3 -5.21214e-16 0)
(3 -7.0928e-16 0)
(3 -7.37116e-16 0)
(3 -4.57711e-16 0)
(3 -4.0269e-16 0)
(3 1.94537e-17 0)
(3 3.11298e-16 0)
(3 1.14764e-15 0)
(3 1.56123e-15 0)
(3 1.71818e-15 0)
(3 1.30704e-15 0)
(3 5.33261e-16 0)
(3 2.28775e-16 0)
(3 -4.02452e-16 0)
(3 -2.43426e-15 0)
(3 -2.42794e-15 0)
(3 -1.93469e-15 0)
(3 -1.67193e-15 0)
(3 -1.84105e-15 0)
(3 -2.29231e-15 0)
(3 -3.00232e-15 0)
(3 -1.70532e-15 0)
(2.39625 0.184907 0)
(0.899745 0.225718 0)
(0.771039 0.196528 0)
(0.754061 0.200702 0)
(0.737872 0.203939 0)
(0.72363 0.208459 0)
(0.7094 0.211773 0)
(0.694825 0.212295 0)
(0.679702 0.209997 0)
(0.663965 0.206274 0)
(0.647782 0.203626 0)
(0.631742 0.204797 0)
(0.616903 0.210516 0)
(0.602933 0.218052 0)
(0.588056 0.222826 0)
(0.572257 0.222905 0)
(0.556222 0.219741 0)
(0.539875 0.217784 0)
(0.523995 0.220926 0)
(0.509442 0.228184 0)
(0.494287 0.233938 0)
(0.478776 0.234724 0)
(0.463409 0.235557 0)
(0.448418 0.239499 0)
(0.433419 0.244545 0)
(0.418041 0.248705 0)
(0.402445 0.252217 0)
(0.386688 0.256269 0)
(0.370883 0.261432 0)
(0.354958 0.266951 0)
(0.338735 0.271903 0)
(0.322144 0.276492 0)
(0.305108 0.281406 0)
(0.287466 0.286727 0)
(0.269025 0.292039 0)
(0.249774 0.297181 0)
(0.229874 0.302254 0)
(0.209525 0.307267 0)
(0.188831 0.312036 0)
(0.167782 0.316385 0)
(0.14636 0.320492 0)
(0.124433 0.324016 0)
(0.102146 0.327865 0)
(0.0793647 0.330929 0)
(0.0567988 0.335427 0)
(0.03397 0.338471 0)
(0.0116287 0.343073 0)
(3 -1.60118e-16 0)
(3 -2.29281e-16 0)
(3 -1.36526e-16 0)
(3 -4.7506e-16 0)
(3 -4.02468e-16 0)
(3 -4.12869e-16 0)
(3 -4.38426e-16 0)
(3 -4.20969e-16 0)
(3 -2.36314e-16 0)
(3 -3.39156e-16 0)
(3 -9.14786e-16 0)
(3 -8.41917e-16 0)
(3 -9.8306e-16 0)
(3 -1.53529e-15 0)
(3 -1.74118e-15 0)
(3 -1.59358e-15 0)
(3 -1.15101e-15 0)
(3 -1.09531e-15 0)
(3 -7.70216e-16 0)
(3 -2.86353e-16 0)
(3 8.14729e-16 0)
(3 1.11741e-15 0)
(3 1.06312e-15 0)
(3 8.57347e-16 0)
(3 1.65214e-16 0)
(3 8.29223e-17 0)
(3 4.50774e-16 0)
(3 9.51969e-16 0)
(3 5.55601e-16 0)
(3 1.93407e-16 0)
(3 6.01967e-17 0)
(3 5.92609e-17 0)
(3 5.90289e-16 0)
(3 8.48656e-16 0)
(3 8.66836e-16 0)
(3 1.00485e-15 0)
(3 6.55506e-16 0)
(3 3.62447e-16 0)
(3 2.04361e-16 0)
(3 -1.39412e-16 0)
(3 -4.41963e-16 0)
(3 -1.01864e-16 0)
(3 2.96327e-17 0)
(3 -2.44821e-15 0)
(3 -3.48033e-15 0)
(3 -4.38483e-15 0)
(3 -4.56346e-15 0)
(3 -4.09635e-15 0)
(3 -4.61647e-15 0)
(2.88101 0.0964872 0)
(1.02688 0.250156 0)
(0.793733 0.223221 0)
(0.783549 0.218664 0)
(0.767467 0.223305 0)
(0.752907 0.229082 0)
(0.738409 0.233828 0)
(0.723821 0.236205 0)
(0.708736 0.236069 0)
(0.692851 0.234263 0)
(0.676222 0.232203 0)
(0.659257 0.232543 0)
(0.643047 0.237262 0)
(0.628115 0.244966 0)
(0.612894 0.251403 0)
(0.596579 0.253552 0)
(0.579716 0.251567 0)
(0.562421 0.249243 0)
(0.545248 0.251521 0)
(0.529641 0.258832 0)
(0.513788 0.265909 0)
(0.497158 0.26783 0)
(0.480546 0.268395 0)
(0.464322 0.272182 0)
(0.448445 0.277765 0)
(0.432269 0.282523 0)
(0.415951 0.286362 0)
(0.399576 0.290587 0)
(0.383208 0.296022 0)
(0.366801 0.302191 0)
(0.350193 0.308169 0)
(0.333338 0.313891 0)
(0.316214 0.31991 0)
(0.2987 0.326396 0)
(0.28056 0.332989 0)
(0.261679 0.33946 0)
(0.242112 0.345867 0)
(0.221963 0.352243 0)
(0.20127 0.358501 0)
(0.179946 0.364404 0)
(0.157966 0.370143 0)
(0.135076 0.375105 0)
(0.111491 0.380113 0)
(0.0870468 0.383685 0)
(0.0624846 0.388408 0)
(0.0374811 0.391538 0)
(0.0128418 0.39644 0)
(3 -1.57698e-16 0)
(3 -2.93526e-16 0)
(3 -6.91039e-16 0)
(3 -6.84931e-16 0)
(3 -3.06707e-16 0)
(3 -2.78538e-16 0)
(3 -3.90932e-16 0)
(3 -6.58341e-16 0)
(3 -3.5193e-16 0)
(3 -3.65801e-16 0)
(3 -7.79007e-16 0)
(3 -9.38895e-16 0)
(3 -9.58027e-16 0)
(3 -3.07702e-16 0)
(3 -2.03831e-16 0)
(3 -1.06906e-16 0)
(3 -8.75845e-17 0)
(3 1.32964e-16 0)
(3 5.51158e-16 0)
(3 5.50701e-16 0)
(3 9.38788e-16 0)
(3 1.36881e-15 0)
(3 1.52037e-15 0)
(3 1.1996e-15 0)
(3 8.95384e-16 0)
(3 2.92806e-16 0)
(3 -2.86913e-16 0)
(3 -5.33733e-16 0)
(3 -1.49858e-16 0)
(3 3.06026e-16 0)
(3 7.2924e-16 0)
(3 9.82645e-16 0)
(3 1.26446e-15 0)
(3 1.48485e-15 0)
(3 -6.16569e-17 0)
(3 -1.60163e-15 0)
(3 -1.56685e-15 0)
(3 -1.51004e-15 0)
(3 -1.14199e-15 0)
(3 -5.40666e-16 0)
(3 -2.04331e-16 0)
(3 9.3572e-16 0)
(3 2.36525e-16 0)
(3 -1.24557e-15 0)
(3 -1.64107e-15 0)
(3 -1.49869e-15 0)
(3 -2.36467e-15 0)
(3 -2.65773e-15 0)
(3 -3.14073e-15 0)
(3.00917 0.00313588 0)
(1.23028 0.265228 0)
(0.804657 0.226595 0)
(0.791762 0.247477 0)
(0.775748 0.256842 0)
(0.759891 0.261581 0)
(0.745732 0.265232 0)
(0.732401 0.267277 0)
(0.719445 0.267705 0)
(0.706245 0.266967 0)
(0.69233 0.265738 0)
(0.677588 0.26566 0)
(0.662691 0.268887 0)
(0.648686 0.275544 0)
(0.634836 0.282533 0)
(0.619905 0.286345 0)
(0.604021 0.286033 0)
(0.587418 0.284064 0)
(0.570332 0.285361 0)
(0.554502 0.292033 0)
(0.539023 0.300125 0)
(0.522341 0.303862 0)
(0.505253 0.304501 0)
(0.48821 0.307821 0)
(0.471628 0.313808 0)
(0.454734 0.31952 0)
(0.437517 0.324069 0)
(0.420198 0.328651 0)
(0.402882 0.334358 0)
(0.385552 0.341067 0)
(0.368054 0.347944 0)
(0.350327 0.354712 0)
(0.332375 0.361779 0)
(0.314124 0.369429 0)
(0.295343 0.377453 0)
(0.275812 0.385598 0)
(0.255492 0.393887 0)
(0.23442 0.402306 0)
(0.212701 0.410813 0)
(0.1903 0.418985 0)
(0.167356 0.426983 0)
(0.14361 0.434054 0)
(0.118976 0.440675 0)
(0.0933733 0.4452 0)
(0.0671909 0.450181 0)
(0.0403385 0.453233 0)
(0.0136928 0.458224 0)
(3 -4.74024e-17 0)
(3 -1.40893e-16 0)
(3 -2.18958e-16 0)
(3 -3.83493e-16 0)
(3 -4.20984e-16 0)
(3 -4.65971e-16 0)
(3 -4.31125e-16 0)
(3 -2.27908e-16 0)
(3 -7.05447e-17 0)
(3 -4.21275e-17 0)
(3 3.1098e-16 0)
(3 1.7254e-16 0)
(3 1.04623e-16 0)
(3 3.50836e-16 0)
(3 6.12816e-16 0)
(3 9.79934e-16 0)
(3 8.84374e-16 0)
(3 7.23611e-16 0)
(3 7.54498e-16 0)
(3 5.63978e-16 0)
(3 2.87929e-16 0)
(3 -2.88806e-16 0)
(3 -7.64738e-16 0)
(3 -9.79863e-16 0)
(3 -7.13731e-16 0)
(3 -1.87492e-16 0)
(3 -1.1589e-16 0)
(3 -3.11239e-16 0)
(3 -9.21204e-17 0)
(3 1.59291e-16 0)
(3 4.0478e-16 0)
(3 7.86846e-16 0)
(3 8.76699e-16 0)
(3 7.02914e-16 0)
(3 -2.54256e-16 0)
(3 -1.49164e-15 0)
(3 -2.26228e-15 0)
(3 -2.09727e-15 0)
(3 -9.94584e-16 0)
(3 -2.03878e-16 0)
(3 1.36957e-15 0)
(3 1.73423e-15 0)
(3 1.69067e-15 0)
(3 1.61483e-15 0)
(3 1.78343e-15 0)
(3 1.64841e-15 0)
(3 8.86432e-16 0)
(3 -6.93933e-16 0)
(3 -1.13228e-15 0)
(3.00005 4.54725e-06 0)
(1.71762 0.306998 0)
(0.830975 0.277447 0)
(0.771914 0.275411 0)
(0.760999 0.283768 0)
(0.748153 0.286843 0)
(0.736763 0.289453 0)
(0.725394 0.290964 0)
(0.714154 0.29167 0)
(0.702719 0.292267 0)
(0.690759 0.293146 0)
(0.678121 0.294794 0)
(0.665135 0.298432 0)
(0.652681 0.304867 0)
(0.640873 0.312515 0)
(0.628517 0.318089 0)
(0.615313 0.319894 0)
(0.601439 0.319365 0)
(0.586791 0.320503 0)
(0.572716 0.326359 0)
(0.55951 0.335069 0)
(0.544875 0.341236 0)
(0.529053 0.343152 0)
(0.512714 0.346287 0)
(0.496571 0.352577 0)
(0.480148 0.359592 0)
(0.463113 0.365427 0)
(0.445801 0.370695 0)
(0.42843 0.376684 0)
(0.411012 0.383779 0)
(0.39335 0.391387 0)
(0.375344 0.3992 0)
(0.356975 0.40742 0)
(0.338266 0.416357 0)
(0.31914 0.425957 0)
(0.299419 0.435933 0)
(0.279053 0.446234 0)
(0.258025 0.456717 0)
(0.236426 0.467373 0)
(0.21401 0.477665 0)
(0.190839 0.487957 0)
(0.166298 0.497709 0)
(0.140053 0.507597 0)
(0.111239 0.515805 0)
(0.0804428 0.523186 0)
(0.0481956 0.527208 0)
(0.0161548 0.532105 0)
(3 2.62694e-17 0)
(3 4.14706e-17 0)
(3 1.52695e-16 0)
(3 1.76892e-16 0)
(3 1.68819e-16 0)
(3 6.88889e-17 0)
(3 1.06687e-16 0)
(3 2.50623e-16 0)
(3 2.2964e-16 0)
(3 1.45986e-16 0)
(3 4.01152e-16 0)
(3 6.0478e-16 0)
(3 6.76483e-16 0)
(3 6.84739e-16 0)
(3 7.78893e-16 0)
(3 8.93506e-16 0)
(3 9.89904e-16 0)
(3 6.71577e-16 0)
(3 1.59932e-16 0)
(3 -5.10149e-16 0)
(3 -5.57539e-16 0)
(3 -6.25577e-16 0)
(3 -1.28355e-15 0)
(3 -1.50803e-15 0)
(3 -1.06429e-15 0)
(3 -9.3876e-16 0)
(3 -7.73825e-16 0)
(3 -6.89961e-18 0)
(3 5.01737e-16 0)
(3 1.88813e-17 0)
(3 -6.03588e-16 0)
(3 -6.0675e-16 0)
(3 -3.53442e-16 0)
(3 -5.48534e-16 0)
(3 -5.13644e-16 0)
(3 -3.8247e-16 0)
(3 -4.58577e-16 0)
(3 9.28297e-16 0)
(3 1.10962e-15 0)
(3 9.4457e-16 0)
(3 1.63671e-15 0)
(3 2.32787e-15 0)
(3 3.03688e-15 0)
(3 2.45709e-15 0)
(3 8.09686e-16 0)
(3 2.77508e-16 0)
(3 -7.0928e-16 0)
(3 -6.34846e-16 0)
(3 -6.9776e-16 0)
(3 8.82028e-09 0)
(2.59177 0.231493 0)
(0.965345 0.340394 0)
(0.794548 0.317498 0)
(0.780141 0.309707 0)
(0.76451 0.31362 0)
(0.751162 0.31709 0)
(0.737771 0.319537 0)
(0.724498 0.320538 0)
(0.711462 0.321124 0)
(0.698751 0.322267 0)
(0.68625 0.324328 0)
(0.67386 0.327803 0)
(0.661943 0.333481 0)
(0.650821 0.340717 0)
(0.639654 0.346935 0)
(0.627874 0.350274 0)
(0.615488 0.351436 0)
(0.602386 0.353315 0)
(0.589318 0.35891 0)
(0.577436 0.368245 0)
(0.564951 0.377239 0)
(0.5508 0.382006 0)
(0.535818 0.385859 0)
(0.520777 0.392482 0)
(0.505737 0.400872 0)
(0.490042 0.408652 0)
(0.473822 0.415453 0)
(0.45734 0.422353 0)
(0.4407 0.430271 0)
(0.423593 0.439013 0)
(0.406011 0.448329 0)
(0.387767 0.458154 0)
(0.368912 0.468737 0)
(0.349471 0.480181 0)
(0.329352 0.492269 0)
(0.308469 0.505048 0)
(0.286533 0.518421 0)
(0.263453 0.53261 0)
(0.238849 0.547207 0)
(0.21272 0.562537 0)
(0.184726 0.578076 0)
(0.15525 0.593934 0)
(0.124186 0.608379 0)
(0.0911648 0.619298 0)
(0.0560491 0.625276 0)
(0.018006 0.628313 0)
(3 -2.47254e-17 0)
(3 -1.20203e-17 0)
(3 -9.85032e-17 0)
(3 -9.5352e-18 0)
(3 1.13294e-16 0)
(3 2.41917e-16 0)
(3 1.89808e-16 0)
(3 1.26394e-16 0)
(3 4.4423e-18 0)
(3 4.93248e-17 0)
(3 9.00098e-17 0)
(3 4.50307e-17 0)
(3 3.65096e-17 0)
(3 6.60483e-17 0)
(3 1.08676e-16 0)
(3 6.19639e-17 0)
(3 2.2747e-16 0)
(3 5.51303e-17 0)
(3 -3.46414e-16 0)
(3 -5.36001e-16 0)
(3 -9.14155e-16 0)
(3 -9.77507e-16 0)
(3 -1.01851e-15 0)
(3 -1.00932e-15 0)
(3 -1.14301e-15 0)
(3 -1.28675e-15 0)
(3 -1.28091e-15 0)
(3 -7.15781e-16 0)
(3 -5.57911e-16 0)
(3 -1.0257e-16 0)
(3 7.25877e-16 0)
(3 3.92614e-16 0)
(3 2.09775e-16 0)
(3 2.63854e-17 0)
(3 5.78315e-16 0)
(3 1.89537e-15 0)
(3 2.70001e-15 0)
(3 3.10794e-15 0)
(3 3.12714e-15 0)
(3 3.26463e-15 0)
(3 3.20246e-15 0)
(3 2.85681e-15 0)
(3 2.21628e-15 0)
(3 1.59879e-15 0)
(3 6.51036e-16 0)
(3 3.18617e-16 0)
(3 6.52373e-16 0)
(3 8.80938e-16 0)
(3 2.10818e-16 0)
(3 -4.44376e-10 0)
(3.02257 0.00885365 0)
(1.37142 0.386603 0)
(0.847408 0.337449 0)
(0.816796 0.332852 0)
(0.80224 0.33837 0)
(0.787138 0.34269 0)
(0.772621 0.346864 0)
(0.757471 0.349257 0)
(0.742227 0.349945 0)
(0.727401 0.350509 0)
(0.713263 0.352166 0)
(0.699774 0.355316 0)
(0.686975 0.360415 0)
(0.675096 0.367236 0)
(0.663584 0.373876 0)
(0.651784 0.378506 0)
(0.639591 0.381263 0)
(0.626984 0.38404 0)
(0.614273 0.389338 0)
(0.602585 0.398457 0)
(0.59153 0.409121 0)
(0.579128 0.417102 0)
(0.565572 0.42234 0)
(0.551856 0.429031 0)
(0.538225 0.438203 0)
(0.524242 0.448192 0)
(0.509577 0.457626 0)
(0.494433 0.466738 0)
(0.478896 0.476428 0)
(0.463222 0.486969 0)
(0.447101 0.498354 0)
(0.430107 0.510475 0)
(0.412124 0.52344 0)
(0.393397 0.537527 0)
(0.373884 0.552714 0)
(0.35364 0.569165 0)
(0.332496 0.586923 0)
(0.310432 0.606168 0)
(0.287314 0.6266 0)
(0.262991 0.647654 0)
(0.237351 0.668353 0)
(0.209452 0.687097 0)
(0.179329 0.705683 0)
(0.142804 0.725977 0)
(0.0969243 0.749309 0)
(0.0370013 0.768626 0)
(3 7.64103e-17 0)
(3 2.3728e-16 0)