/*--------------------------------*- C++ -*----------------------------------*\
  =========                 |
  \\      /  F ield         | OpenFOAM: The Open Source CFD Toolbox
   \\    /   O peration     | Website:  https://openfoam.org
    \\  /    A nd           | Version:  7
     \\/     M anipulation  |
\*---------------------------------------------------------------------------*/
FoamFile
{
    version     2.0;
    format      ascii;
    class       volScalarField;
    location    "1.67";
    object      T;
}
// * * * * * * * * * * * * * * * * * * * * * * * * * * * * * * * * * * * * * //

dimensions      [0 0 0 1 0 0 0];

internalField   nonuniform List<scalar> 
1000
(
0
0
0
0
0
0
0
0
0
0
0
0
0
0
0
0
0
0
0
0
0
0
0
0
0
0
0
0
0
0
0
0
0
0
0
0
0
0
0
0
0
0
0
0
0
0
0
0
0
0
0
0
0
0
0
0
0
0
0
0
0
0
0
0
0
0
0
0
0
0
0
0
0
0
0
0
0
0
0
0
0
0
0
0
0
0
0
0
0
0
0
0
0
0
0
0
0
0
0
0
0
0
0
0
0
0
0
0
0
0
0
0
0
0
0
0
0
0
0
0
0
0
0
0
0
0
0
0
0
0
0
0
0
0
0
0
0
0
0
0
0
0
0
0
0
0
0
0
0
0
0
0
0
0
0
0
0
0
0
0
0
0
0
0
0
0
0
0
0
0
0
0
0
0
0
0
0
0
0
0
0
0
0
0
0
0
0
0
0
0
0
0
0
0
0
0
0
0
0
0
0
0
0
0
0
0
0
0
0
0
0
0
0
0
0
0
0
0
0
0
0
0
0
0
0
0
0
0
0
0
0
0
0
0
0
0
0
0
0
0
0
0
0
0
0
0
0
0
0
0
0
0
0
0
0
0
0
0
0
0
0
0
0
0
0
0
0
0
0
0
0
0
0
0
0
0
0
0
0
0
0
0
0
-1.52747e-151
1.14636e-148
-4.26762e-146
1.05067e-143
-1.92431e-141
2.79647e-139
-3.35859e-137
3.42858e-135
-3.03664e-133
2.37026e-131
-1.65071e-129
1.03596e-127
-5.907e-126
3.08125e-124
-1.47894e-122
6.56469e-121
-2.70644e-119
1.04028e-117
-3.74048e-116
1.26186e-114
-4.00454e-113
1.19834e-111
-3.38856e-110
9.07189e-109
-2.30347e-107
5.55591e-106
-1.2748e-104
2.78623e-103
-5.80761e-102
1.15574e-100
-2.19805e-99
3.99882e-98
-6.96472e-97
1.16221e-95
-1.85944e-94
2.85406e-93
-4.20515e-92
5.95056e-91
-8.09086e-90
1.05747e-88
-1.32903e-87
1.60667e-86
-1.86879e-85
2.09181e-84
-2.25365e-83
2.33723e-82
-2.33343e-81
2.24269e-80
-2.07495e-79
1.84783e-78
-1.58366e-77
1.30589e-76
-1.03576e-75
7.89869e-75
-5.78868e-74
4.07452e-73
-2.75254e-72
1.78311e-71
-1.10651e-70
6.56925e-70
-3.72564e-69
2.01461e-68
-1.03628e-67
5.05565e-67
-2.33041e-66
1.00979e-65
-4.08407e-65
1.52576e-64
-5.17816e-64
1.5493e-63
-3.82552e-63
6.26214e-63
3.50306e-63
-8.29885e-62
4.17321e-61
-1.40453e-60
3.25663e-60
-3.1441e-60
-1.48584e-59
1.00129e-58
-3.34509e-58
6.37146e-58
8.93742e-59
-5.86887e-57
2.40489e-56
-5.01281e-56
3.73614e-57
3.91052e-55
-1.52162e-54
2.58514e-54
2.41288e-54
-2.82359e-53
7.89493e-53
-5.51821e-53
-3.96773e-52
1.65793e-51
-2.31008e-51
-4.65593e-51
2.96019e-50
-5.27051e-50
-5.26862e-50
4.91622e-49
-9.45847e-49
-7.589e-49
7.90596e-48
-1.42878e-47
-1.55796e-47
1.22899e-46
-1.77178e-46
-3.53545e-46
1.77835e-45
-1.52868e-45
-7.22391e-45
2.23428e-44
-5.14878e-46
-1.2264e-43
2.13381e-43
3.07391e-43
-1.63034e-42
9.07711e-43
7.12284e-42
-1.49372e-41
-1.54101e-41
9.55753e-41
-4.66396e-41
-4.10659e-40
7.13891e-40
1.15222e-39
-4.63648e-39
-5.44566e-40
2.19843e-38
-1.84602e-38
-8.26102e-38
1.53835e-37
2.38973e-37
-8.57818e-37
-4.03166e-37
3.94519e-36
-8.62011e-37
-1.5969e-35
1.26548e-35
5.86266e-35
-7.99444e-35
-1.98637e-34
3.98691e-34
6.2889e-34
-1.75847e-33
-1.884e-33
7.17539e-33
5.44041e-33
-2.77348e-32
-1.56511e-32
1.02972e-31
4.73167e-32
-3.70197e-31
-1.59405e-31
1.29337e-30
6.10265e-31
-4.38915e-30
-2.55314e-30
1.44019e-29
1.09904e-29
-4.52694e-29
-4.65247e-29
1.34175e-28
1.88743e-28
-3.6476e-28
-7.23131e-28
8.59452e-28
2.58817e-27
-1.48763e-27
-8.54841e-27
2.13237e-28
2.55771e-26
1.35319e-26
-6.6997e-26
-8.00153e-26
1.41898e-25
3.2214e-25
-1.7955e-25
-1.03177e-24
-2.64814e-25
2.64336e-24
2.81851e-24
-4.87126e-24
-1.16958e-23
2.86713e-24
3.35705e-23
2.32479e-23
-6.57783e-23
-1.23803e-22
4.66905e-23
3.63624e-22
2.58916e-22
-6.41123e-22
-1.34316e-21
1.04707e-22
3.43349e-21
3.70576e-21
-4.00372e-21
-1.37739e-20
-7.19878e-21
2.39816e-20
4.74874e-20
4.51197e-21
-1.05687e-19
-1.51351e-19
4.0743e-20
4.05986e-19
4.73359e-19
-2.57958e-19
-1.44933e-18
-1.5314e-18
1.00226e-18
4.94478e-18
5.28522e-18
-2.8592e-18
-1.61909e-17
-1.93144e-17
4.67005e-18
4.99301e-17
7.18198e-17
1.06728e-17
-1.37922e-16
-2.57739e-16
-1.4597e-16
3.0037e-16
8.4132e-16
8.52996e-16
-2.62804e-16
-2.2925e-15
-3.6449e-15
-1.8917e-15
4.1698e-15
1.18646e-14
1.38298e-14
1.6571e-15
-2.58147e-14
-5.40435e-14
-5.27834e-14
7.7206e-15
1.25705e-13
2.38817e-13
2.26526e-13
-2.98758e-14
-5.32946e-13
-1.05431e-12
-1.11974e-12
-1.95655e-13
1.90127e-12
4.51099e-12
5.87673e-12
3.54132e-12
-4.34232e-12
-1.69732e-11
-2.90015e-11
-3.02504e-11
-8.66567e-12
4.27348e-11
1.1611e-10
1.80211e-10
1.79441e-10
4.77333e-11
-2.58493e-10
-7.11508e-10
-1.16225e-09
-1.31624e-09
-7.70812e-10
8.54236e-10
3.68125e-09
7.26505e-09
1.02986e-08
1.04877e-08
4.79478e-09
-9.74783e-09
-3.4535e-08
-6.72556e-08
-9.94803e-08
-1.14695e-07
-8.79002e-08
1.17745e-08
2.13912e-07
5.33829e-07
9.53327e-07
1.3962e-06
1.70171e-06
1.60211e-06
7.13702e-07
-1.44539e-06
-5.3943e-06
-1.15658e-05
-2.00994e-05
-3.05301e-05
-4.13548e-05
-4.94637e-05
-4.94296e-05
-3.26606e-05
1.35675e-05
0.000107171
0.000272368
0.000540781
0.000952464
0.0015568
0.00241315
0.00359125
0.0051712
0.00724306
0.00990601
0.013267
0.0174388
0.0225381
0.0286824
0.0359876
0.0445644
0.054515
0.0659303
0.0788864
0.0934421
0.109636
0.127485
0.146982
0.168096
0.190773
0.214934
0.240477
0.267279
0.2952
0.324082
0.353755
0.38404
0.414751
0.4457
0.476698
0.507561
0.538114
0.568189
0.59763
0.626297
0.654063
0.680818
0.706471
0.730945
0.754184
0.776145
0.796803
0.816149
0.834184
0.850926
0.8664
0.880643
0.893699
0.905619
0.916458
0.926277
0.935138
0.943103
0.950238
0.956605
0.962267
0.967284
0.971715
0.975615
0.979035
0.982025
0.984631
0.986895
0.988855
0.990547
0.992003
0.993252
0.994321
0.995233
0.996008
0.996665
0.997221
0.99769
0.998085
0.998416
0.998693
0.998924
0.999116
0.999275
0.999407
0.999516
0.999605
0.999679
0.999739
0.99979
0.999832
0.999869
0.999902
0.999932
0.99996
0.999985
1
1.00001
1
0.999964
0.999875
0.999714
0.999448
0.999039
0.998436
0.997582
0.996405
0.994826
0.992754
0.990092
0.986732
0.98256
0.977461
0.971317
0.964012
0.955435
0.945485
0.934069
0.921113
0.906558
0.890364
0.872515
0.853018
0.831904
0.809227
0.785066
0.759523
0.732721
0.7048
0.675918
0.646245
0.61596
0.585249
0.5543
0.523302
0.492439
0.461886
0.431811
0.40237
0.373703
0.345937
0.319182
0.293529
0.269055
0.245816
0.223855
0.203197
0.183851
0.165816
0.149074
0.1336
0.119357
0.106301
0.0943813
0.0835417
0.0737228
0.0648624
0.0568969
0.0497623
0.0433951
0.037733
0.0327156
0.0282848
0.0243853
0.0209649
0.0179746
0.0153687
0.0131052
0.0111452
0.00945325
0.00799717
0.00674784
0.00567909
0.00476748
0.00399216
0.00333462
0.00277854
0.00230955
0.00191511
0.00158424
0.00130745
0.0010765
0.000884297
0.000724751
0.000592647
0.000483537
0.00039364
0.000319753
0.000259172
0.000209616
0.000169176
0.000136249
0.000109503
8.78248e-05
7.02945e-05
5.61495e-05
4.47609e-05
3.56115e-05
2.82765e-05
2.24087e-05
1.77244e-05
1.39925e-05
1.10255e-05
8.67131e-06
6.80718e-06
5.33399e-06
4.17201e-06
3.25729e-06
2.53858e-06
1.97495e-06
1.53377e-06
1.18907e-06
9.2026e-07
7.11003e-07
5.48401e-07
4.22277e-07
3.2462e-07
2.49138e-07
1.90895e-07
1.46032e-07
1.11534e-07
8.50502e-08
6.47531e-08
4.92231e-08
3.73598e-08
2.83123e-08
2.14232e-08
1.6186e-08
1.22109e-08
9.19835e-09
6.91887e-09
5.1967e-09
3.89756e-09
2.91901e-09
2.18304e-09
1.63033e-09
1.21585e-09
9.05496e-10
6.73432e-10
5.0016e-10
3.70968e-10
2.74778e-10
2.03258e-10
1.50155e-10
1.10781e-10
8.16251e-11
6.00652e-11
4.41434e-11
3.24009e-11
2.3752e-11
1.73901e-11
1.27164e-11
9.28732e-12
6.77464e-12
4.93578e-12
3.59171e-12
2.61053e-12
1.89514e-12
1.37418e-12
9.95257e-13
7.19987e-13
5.20253e-13
3.75497e-13
2.70712e-13
1.94947e-13
1.4023e-13
1.00759e-13
7.23183e-14
5.18485e-14
3.71323e-14
2.65643e-14
1.89837e-14
1.35519e-14
9.66404e-15
6.88435e-15
4.89907e-15
3.4827e-15
2.47326e-15
1.75461e-15
1.24352e-15
8.80411e-16
6.22707e-16
4.39998e-16
3.1059e-16
2.19028e-16
1.54308e-16
1.08607e-16
7.63672e-17
5.36466e-17
3.765e-17
2.63985e-17
1.84921e-17
1.29416e-17
9.04875e-18
6.32106e-18
4.41159e-18
3.07614e-18
2.14301e-18
1.49161e-18
1.03729e-18
7.20705e-19
5.00305e-19
3.47002e-19
2.40465e-19
1.66494e-19
1.15178e-19
7.9611e-20
5.49803e-20
3.79381e-20
2.61566e-20
1.80187e-20
1.24025e-20
8.52974e-21
5.86148e-21
4.02464e-21
2.76118e-21
1.89284e-21
1.29654e-21
8.87391e-22
6.06877e-22
4.14711e-22
2.83172e-22
1.93206e-22
1.31721e-22
8.97337e-23
6.10838e-23
4.15496e-23
2.82411e-23
1.91809e-23
1.30177e-23
8.82829e-24
5.98273e-24
4.05139e-24
2.74153e-24
1.85381e-24
1.25264e-24
8.45816e-25
5.7071e-25
3.84811e-25
2.59282e-25
1.7458e-25
1.17466e-25
7.89821e-26
5.30696e-26
3.5634e-26
2.39104e-26
1.6033e-26
1.07436e-26
7.19437e-27
4.81443e-27
3.21965e-27
2.15172e-27
1.43706e-27
9.59141e-28
6.39744e-28
4.26431e-28
2.84061e-28
1.89102e-28
1.25807e-28
8.3644e-29
5.55766e-29
3.69043e-29
2.44901e-29
1.62418e-29
1.07649e-29
7.13043e-30
4.72016e-30
3.12272e-30
2.06465e-30
1.36426e-30
9.00924e-31
5.94592e-31
3.92186e-31
2.58528e-31
1.70321e-31
1.12143e-31
7.37948e-32
4.85318e-32
3.18989e-32
2.09544e-32
1.37571e-32
9.02675e-33
5.91957e-33
3.87975e-33
2.5414e-33
1.6638e-33
1.08865e-33
7.11921e-34
4.65306e-34
3.03953e-34
1.98444e-34
1.29489e-34
8.44491e-35
5.50455e-35
3.58605e-35
2.33496e-35
1.51954e-35
9.88362e-36
6.42527e-36
4.17483e-36
2.71119e-36
1.75977e-36
1.14164e-36
7.40247e-37
4.79737e-37
3.10748e-37
2.01184e-37
1.30184e-37
8.41988e-38
5.44297e-38
3.51682e-38
2.27116e-38
1.46599e-38
9.45804e-39
6.09899e-39
3.93107e-39
2.5318e-39
1.63801e-39
9.65098e-40
)
;

boundaryField
{
    sides
    {
        type            zeroGradient;
    }
    empty
    {
        type            empty;
    }
}


// ************************************************************************* //
