/*--------------------------------*- C++ -*----------------------------------*\
  =========                 |
  \\      /  F ield         | OpenFOAM: The Open Source CFD Toolbox
   \\    /   O peration     | Website:  https://openfoam.org
    \\  /    A nd           | Version:  7
     \\/     M anipulation  |
\*---------------------------------------------------------------------------*/
FoamFile
{
    version     2.0;
    format      ascii;
    class       volScalarField;
    location    "6.1";
    object      p;
}
// * * * * * * * * * * * * * * * * * * * * * * * * * * * * * * * * * * * * * //

dimensions      [1 -1 -2 0 0 0 0];

internalField   nonuniform List<scalar> 
19968
(
1
1
1
1
1
1
1
1
1
1
1
1
1
1
1
1
1
1
1
1
1
1
1
1
1
1
1
1
1
1
1
1
1
1
1
1
1
1
1
1
1
1
1
1
1
1
1
1
1.52841
8.00183
10.4392
10.4661
10.5248
10.58
10.6356
10.6924
10.7509
10.8093
10.8662
10.9212
10.9738
11.0237
11.0723
11.121
11.1688
11.2142
11.2576
11.3003
11.3425
11.3843
11.4263
11.469
11.5124
11.5558
11.5982
11.6387
11.6762
11.7098
11.7388
11.7633
11.7849
11.8056
11.8279
11.8534
11.8811
11.9085
11.9325
11.9521
11.968
11.9821
11.9956
12.0094
12.0231
12.0354
12.0449
12.0524
1
1
1
1
1
1
1
1
1
1
1
1
1
1
1
1
1
1
1
1
1
1
1
1
1
1
1
1
1
1
1
1
1
1
1
1
1
1
1
1
1
1
1
1
1
1
1
1
1.49823
7.93179
10.4281
10.4662
10.5236
10.5786
10.6338
10.6899
10.7479
10.8061
10.8627
10.9174
10.9696
11.0196
11.0681
11.1166
11.1644
11.21
11.2539
11.2968
11.3391
11.3807
11.4223
11.4647
11.5077
11.5508
11.593
11.6335
11.6711
11.7046
11.7335
11.7581
11.7799
11.8011
11.8239
11.8498
11.8776
11.9047
11.9283
11.9473
11.9624
11.9757
11.9886
12.0021
12.0157
12.0281
12.0377
12.0452
1
1
1
1
1
1
1
1
1
1
1
1
1
1
1
1
1
1
1
1
1
1
1
1
1
1
1
1
1
1
1
1
1
1
1
1
1
1
1
1
1
1
1
1
1
1
1
1
1.4309
7.78453
10.4201
10.4593
10.5154
10.5695
10.6245
10.6806
10.7388
10.7973
10.8537
10.9086
10.9608
11.0109
11.0598
11.1082
11.156
11.2018
11.2461
11.2893
11.3317
11.3732
11.4145
11.4564
11.4989
11.5415
11.5834
11.6238
11.6615
11.6951
11.724
11.7488
11.771
11.7927
11.8162
11.8424
11.8704
11.8976
11.921
11.9395
11.9539
11.9661
11.9781
11.9909
12.0044
12.0171
12.0272
12.0349
1
1
1
1
1
1
1
1
1
1
1
1
1
1
1
1
1
1
1
1
1
1
1
1
1
1
1
1
1
1
1
1
1
1
1
1
1
1
1
1
1
1
1
1
1
1
1
1
1.33627
7.54732
10.4086
10.4543
10.5077
10.5603
10.6145
10.6701
10.7278
10.7861
10.842
10.8965
10.9485
10.9987
11.0481
11.0968
11.1447
11.1906
11.2351
11.2784
11.3208
11.362
11.4029
11.4442
11.486
11.5279
11.5695
11.6097
11.6472
11.6808
11.7098
11.7351
11.7579
11.7805
11.8046
11.831
11.8588
11.8853
11.9079
11.9252
11.9382
11.949
11.96
11.9725
11.9864
11.9999
12.0108
12.0191
1
1
1
1
1
1
1
1
1
1
1
1
1
1
1
1
1
1
1
1
1
1
1
1
1
1
1
1
1
1
1
1
1
1
1
1
1
1
1
1
1
1
1
1
1
1
1
1
1.21999
7.24087
10.3982
10.4474
10.4966
10.5471
10.6006
10.6563
10.7145
10.7729
10.8285
10.8825
10.9344
10.9849
11.0349
11.0837
11.1314
11.177
11.2215
11.2648
11.3071
11.3481
11.3887
11.4294
11.4705
11.5118
11.5528
11.5926
11.6298
11.6633
11.6927
11.7187
11.7428
11.7666
11.7917
11.8184
11.8458
11.8714
11.8926
11.908
11.9187
11.9272
11.9362
11.9473
11.9604
11.9739
11.9851
11.9935
1
1
1
1
1
1
1
1
1
1
1
1
1
1
1
1
1
1
1
1
1
1
1
1
1
1
1
1
1
1
1
1
1
1
1
1
1
1
1
1
1
1
1
1
1
1
1
1
1.01699
6.72644
10.3873
10.4448
10.4915
10.5431
10.5962
10.6514
10.7085
10.7655
10.8196
10.872
10.9232
10.9733
11.0232
11.0712
11.1176
11.1618
11.2053
11.2478
11.2892
11.329
11.3683
11.4077
11.4475
11.4875
11.5273
11.566
11.6022
11.635
11.6643
11.691
11.7163
11.7414
11.7675
11.7946
11.8216
11.8462
11.8661
11.8804
11.8901
11.8977
11.9061
11.9169
11.9302
11.9442
11.9558
11.9646
1
1
1
1
1
1
1
1
1
1
1
1
1
1
1
1
1
1
1
1
1
1
1
1
1
1
1
1
1
1
1
1
1
1
1
1
1
1
1
1
1
1
1
1
1
1
1
1
1.0001
6.00913
10.3088
10.3959
10.4421
10.4984
10.5536
10.6107
10.6692
10.7271
10.7818
10.8338
10.8848
10.9347
10.9846
11.033
11.0793
11.1234
11.1669
11.2094
11.2509
11.2908
11.3303
11.3696
11.409
11.4482
11.4873
11.5254
11.5612
11.5939
11.6236
11.6512
11.678
11.7049
11.7324
11.76
11.7863
11.8095
11.8278
11.8407
11.8495
11.8566
11.8646
11.8752
11.8883
11.9022
11.9138
11.923
1
1
1
1
1
1
1
1
1
1
1
1
1
1
1
1
1
1
1
1
1
1
1
1
1
1
1
1
1
1
1
1
1
1
1
1
1
1
1
1
1
1
1
1
1
1
1
1
1
5.07185
10.1739
10.3604
10.4127
10.4742
10.531
10.588
10.6458
10.7027
10.7566
10.8076
10.8576
10.9064
10.9549
11.0018
11.0465
11.0894
11.1318
11.1735
11.2145
11.2538
11.2928
11.3314
11.3698
11.4078
11.4457
11.4829
11.5179
11.55
11.5793
11.607
11.6344
11.6624
11.6907
11.7183
11.7435
11.7646
11.7807
11.7919
11.7997
11.8063
11.8141
11.8245
11.8372
11.8509
11.862
11.8713
1
1
1
1
1
1
1
1
1
1
1
1
1
1
1
1
1
1
1
1
1
1
1
1
1
1
1
1
1
1
1
1
1
1
1
1
1
1
1
1
1
1
1
1
1
1
1
1
1
3.98039
9.88958
10.3246
10.3818
10.4469
10.5048
10.5616
10.6179
10.6727
10.7251
10.7749
10.8232
10.871
10.9184
10.9639
11.0065
11.0476
11.0883
11.1284
11.1684
11.2065
11.2443
11.2814
11.3181
11.3543
11.3906
11.4265
11.4606
11.4917
11.52
11.5469
11.574
11.6021
11.6306
11.6579
11.682
11.7015
11.7159
11.726
11.7333
11.74
11.7482
11.7587
11.7713
11.7847
11.7953
11.8048
1
1
1
1
1
1
1
1
1
1
1
1
1
1
1
1
1
1
1
1
1
1
1
1
1
1
1
1
1
1
1
1
1
1
1
1
1
1
1
1
1
1
1
1
1
1
1
1
1
2.84642
9.3223
10.3123
10.372
10.4357
10.491
10.5447
10.5971
10.648
10.6974
10.7447
10.79
10.8358
10.8817
10.9259
10.9666
11.0059
11.0447
11.0825
11.1206
11.1566
11.1921
11.2265
11.2603
11.2936
11.3269
11.3603
11.3922
11.4211
11.4472
11.4722
11.4979
11.5252
11.5534
11.5804
11.6037
11.622
11.6352
11.6441
11.6505
11.6562
11.6635
11.6732
11.6847
11.6972
11.707
11.7161
1
1
1
1
1
1
1
1
1
1
1
1
1
1
1
1
1
1
1
1
1
1
1
1
1
1
1
1
1
1
1
1
1
1
1
1
1
1
1
1
1
1
1
1
1
1
1
1
1
1.8133
8.36068
10.346
10.3395
10.4063
10.4534
10.5045
10.5548
10.6042
10.653
10.7015
10.7471
10.792
10.8371
10.8807
10.9211
10.9598
10.9976
11.033
11.0687
11.1026
11.1357
11.1679
11.1991
11.2299
11.2604
11.2907
11.3192
11.3445
11.3668
11.3878
11.4093
11.4326
11.4569
11.4803
11.5003
11.5158
11.5268
11.5343
11.5397
11.5449
11.5519
11.5614
11.5727
11.5851
11.5947
11.6038
1
1
1
1
1
1
1
1
1
1
1
1
1
1
1
1
1
1
1
1
1
1
1
1
1
1
1
1
1
1
1
1
1
1
1
1
1
1
1
1
1
1
1
1
1
1
1
1
1
1.03086
6.67984
10.3452
10.3642
10.3997
10.4385
10.4832
10.5292
10.5746
10.6192
10.6638
10.7054
10.7456
10.7868
10.8273
10.8646
10.9003
10.9352
10.9671
10.9984
11.0286
11.0575
11.0864
11.1147
11.1429
11.1705
11.1975
11.2225
11.2446
11.2636
11.2812
11.2992
11.3187
11.3396
11.3602
11.3785
11.3927
11.4025
11.4083
11.4109
11.4116
11.4125
11.4154
11.4206
11.4279
11.4341
11.441
1
1
1
1
1
1
1
1
1
1
1
1
1
1
1
1
1
1
1
1
1
1
1
1
1
1
1
1
1
1
1
1
1
1
1
1
1
1
1
1
1
1
1
1
1
1
1
1
1
1.00005
4.58962
9.91703
10.1978
10.2616
10.3238
10.3759
10.4248
10.4718
10.5169
10.5616
10.6043
10.6439
10.6835
10.7232
10.7609
10.7969
10.8323
10.8645
10.8938
10.9214
10.9472
10.9734
11.0001
11.0267
11.0525
11.0767
11.0985
11.1173
11.1331
11.1467
11.1595
11.1727
11.1867
11.2006
11.2123
11.22
11.2235
11.2228
11.2183
11.2136
11.2102
11.2106
11.2149
11.2218
11.2271
11.2333
1
1
1
1
1
1
1
1
1
1
1
1
1
1
1
1
1
1
1
1
1
1
1
1
1
1
1
1
1
1
1
1
1
1
1
1
1
1
1
1
1
1
1
1
1
1
1
1
1
1
2.38101
8.78185
10.1448
10.1904
10.2706
10.3263
10.3732
10.4156
10.4565
10.4974
10.5383
10.5765
10.6131
10.6494
10.6846
10.718
10.7505
10.7799
10.8042
10.8258
10.8453
10.8652
10.8867
10.9086
10.9296
10.9482
10.9642
10.9774
10.9876
10.9947
10.9996
11.0033
11.0072
11.0117
11.016
11.0188
11.0184
11.0136
11.0039
10.9912
10.9763
10.9614
10.9432
10.9224
10.8997
10.8809
1
1
1
1
1
1
1
1
1
1
1
1
1
1
1
1
1
1
1
1
1
1
1
1
1
1
1
1
1
1
1
1
1
1
1
1
1
1
1
1
1
1
1
1
1
1
1
1
1
1
1.05802
6.37114
10.2174
10.2378
10.2591
10.2886
10.3174
10.3482
10.3811
10.4157
10.4505
10.4842
10.5161
10.5476
10.5787
10.6083
10.6368
10.6628
10.6835
10.6998
10.7134
10.7259
10.7399
10.7553
10.7701
10.7824
10.7917
10.7991
10.8038
10.8036
10.7997
10.7919
10.7819
10.7711
10.7601
10.7473
10.7292
10.7021
10.6638
10.6159
10.5631
10.5108
10.4677
10.4301
10.4101
10.4007
1
1
1
1
1
1
1
1
1
1
1
1
1
1
1
1
1
1
1
1
1
1
1
1
1
1
1
1
1
1
1
1
1
1
1
1
1
1
1
1
1
1
1
1
1
1
1
1
1
1
1.00008
3.28748
9.27497
10.0439
10.1054
10.1559
10.1978
10.2351
10.2683
10.2995
10.3304
10.3617
10.3935
10.425
10.4556
10.4843
10.5109
10.5343
10.5523
10.5641
10.5717
10.5771
10.5825
10.5888
10.5943
10.597
10.5962
10.5934
10.5882
10.5796
10.5659
10.5451
10.517
10.4842
10.4494
10.4128
10.3712
10.3199
10.2567
10.1844
10.1081
10.0323
9.94625
9.86188
9.74232
9.83026
1
1
1
1
1
1
1
1
1
1
1
1
1
1
1
1
1
1
1
1
1
1
1
1
1
1
1
1
1
1
1
1
1
1
1
1
1
1
1
1
1
1
1
1
1
1
1
1
1
1
1
1.24219
7.34245
10.0781
10.0623
10.0888
10.1235
10.1584
10.1907
10.2187
10.2449
10.2691
10.294
10.3202
10.3469
10.3727
10.3958
10.4146
10.4277
10.4349
10.4374
10.4361
10.4331
10.4304
10.4274
10.4208
10.4091
10.3941
10.3773
10.3581
10.3342
10.3014
10.257
10.202
10.1401
10.0732
9.99788
9.90757
9.79155
9.6454
9.45266
9.20118
8.82907
8.27609
7.34342
5.45929
1
1
1
1
1
1
1
1
1
1
1
1
1
1
1
1
1
1
1
1
1
1
1
1
1
1
1
1
1
1
1
1
1
1
1
1
1
1
1
1
1
1
1
1
1
1
1
1
1
1
1
1.00202
4.64158
9.5769
9.91051
9.96598
10.0211
10.0654
10.1018
10.125
10.145
10.1646
10.1855
10.2088
10.2333
10.2569
10.2778
10.295
10.3072
10.3133
10.312
10.3049
10.2953
10.2865
10.2784
10.267
10.2483
10.2226
10.1925
10.1602
10.1245
10.0805
10.0229
9.95
9.86345
9.76713
9.65649
9.52735
9.36023
9.15185
8.87141
8.51581
8.00612
7.34478
6.12857
4.50944
1
1
1
1
1
1
1
1
1
1
1
1
1
1
1
1
1
1
1
1
1
1
1
1
1
1
1
1
1
1
1
1
1
1
1
1
1
1
1
1
1
1
1
1
1
1
1
1
1
1
1
0.999996
1.93865
8.16673
9.87849
9.89034
9.95365
10.0002
10.0366
10.0558
10.0712
10.0879
10.1046
10.1231
10.1424
10.1608
10.1763
10.1883
10.1967
10.199
10.1934
10.18
10.1624
10.1445
10.1276
10.1097
10.0853
10.0512
10.0089
9.96233
9.91187
9.85411
9.78198
9.69231
9.58312
9.45961
9.31625
9.15116
8.94539
8.69065
8.3654
7.94667
7.4102
6.65811
5.645
4.5404
1
1
1
1
1
1
1
1
1
1
1
1
1
1
1
1
1
1
1
1
1
1
1
1
1
1
1
1
1
1
1
1
1
1
1
1
1
1
1
1
1
1
1
1
1
1
1
1
1
1
1
0.999999
1.03283
5.36278
9.70927
9.84444
9.87801
9.90972
9.93611
9.95391
9.9734
9.99601
10.0149
10.0315
10.0468
10.0608
10.0696
10.0748
10.0764
10.0734
10.0645
10.0479
10.0253
9.9991
9.97177
9.94413
9.9123
9.87214
9.822
9.76507
9.70151
9.6304
9.54374
9.43846
9.31018
9.16373
8.99521
8.80178
8.572
8.29256
7.95155
7.52086
6.98717
6.33182
5.54786
4.72371
1
1
1
1
1
1
1
1
1
1
1
1
1
1
1
1
1
1
1
1
1
1
1
1
1
1
1
1
1
1
1
1
1
1
1
1
1
1
1
1
1
1
1
1
1
1
1
1
1
1
1
1
1.00001
2.14623
8.3666
9.86172
9.81537
9.84438
9.8673
9.88178
9.89447
9.91211
9.92766
9.94203
9.95461
9.96286
9.96505
9.96099
9.95306
9.9427
9.93029
9.91319
9.88992
9.86002
9.82399
9.78421
9.74035
9.69132
9.63409
9.57048
9.49826
9.41674
9.31794
9.19897
9.05628
8.89365
8.70926
8.49935
8.25763
7.97172
7.63735
7.22528
6.74319
6.19072
5.58907
4.92218
1
1
1
1
1
1
1
1
1
1
1
1
1
1
1
1
1
1
1
1
1
1
1
1
1
1
1
1
1
1
1
1
1
1
1
1
1
1
1
1
1
1
1
1
1
1
1
1
1
1
1
1
0.999999
1.04278
5.39271
9.68516
9.7483
9.7784
9.79408
9.80683
9.81798
9.83103
9.84195
9.8519
9.85912
9.86341
9.86143
9.85063
9.83431
9.81483
9.79421
9.77306
9.74883
9.71826
9.67822
9.6299
9.57483
9.51547
9.44971
9.37921
9.3005
9.21159
9.10466
8.97635
8.82479
8.65292
8.46025
8.24341
7.99934
7.71799
7.40212
7.02555
6.60403
6.14911
5.65446
5.12127
1
1
1
1
1
1
1
1
1
1
1
1
1
1
1
1
1
1
1
1
1
1
1
1
1
1
1
1
1
1
1
1
1
1
1
1
1
1
1
1
1
1
1
1
1
1
1
1
1
1
1
1
1
1.00004
1.99283
8.14999
9.73943
9.71492
9.72644
9.73143
9.73588
9.7412
9.74615
9.75083
9.75199
9.7534
9.74767
9.73206
9.71167
9.68618
9.65798
9.63077
9.6032
9.57099
9.52923
9.47683
9.41471
9.34728
9.27434
9.19714
9.11248
9.01726
8.9048
8.7715
8.61625
8.44158
8.24826
8.03295
7.79591
7.52475
7.2309
6.89483
6.5268
6.14304
5.72082
5.27634
1
1
1
1
1
1
1
1
1
1
1
1
1
1
1
1
1
1
1
1
1
1
1
1
1
1
1
1
1
1
1
1
1
1
1
1
1
1
1
1
1
1
1
1
1
1
1
1
1
1
1
1
1
1
1.03081
4.83431
9.41893
9.6203
9.62975
9.63814
9.65383
9.66235
9.66714
9.66533
9.66101
9.65895
9.64958
9.63011
9.60583
9.57495
9.53788
9.50139
9.46531
9.42753
9.38231
9.32749
9.26238
9.19124
9.11442
9.03159
8.94009
8.83748
8.72013
8.585
8.43015
8.25715
8.06806
7.85871
7.63458
7.37662
7.10526
6.80887
6.4823
6.14874
5.77901
5.40638
1
1
1
1
1
1
1
1
1
1
1
1
1
1
1
1
1
1
1
1
1
1
1
1
1
1
1
1
1
1
1
1
1
1
1
1
1
1
1
1
1
1
1
1
1
1
1
1
1
1
1
1
1
1
1.00002
1.52113
7.58045
9.67121
9.61109
9.59132
9.58194
9.57683
9.57201
9.56226
9.55238
9.54689
9.53605
9.5156
9.49007
9.45772
9.41544
9.37289
9.32974
9.28687
9.2386
9.18183
9.1148
9.04228
8.96449
8.87922
8.78273
8.67309
8.55077
8.41484
8.26305
8.09521
7.91527
7.71398
7.50464
7.26306
7.01669
6.75306
6.45903
6.16253
5.8356
5.51335
1
1
1
1
1
1
1
1
1
1
1
1
1
1
1
1
1
1
1
1
1
1
1
1
1
1
1
1
1
1
1
1
1
1
1
1
1
1
1
1
1
1
1
1
1
1
1
1
1
1
1
1
1
1
1
1.00805
3.86178
9.00529
9.40837
9.44
9.46348
9.46663
9.46156
9.44908
9.43331
9.42413
9.41318
9.39613
9.37377
9.34359
9.30006
9.25366
9.20257
9.15256
9.09987
9.04148
8.97465
8.90203
8.8236
8.73696
8.63756
8.52374
8.39901
8.26377
8.11628
7.9549
7.78554
7.59104
7.39536
7.17172
6.95029
6.7115
6.44997
6.18218
5.89108
5.60526
1
1
1
1
1
1
1
1
1
1
1
1
1
1
1
1
1
1
1
1
1
1
1
1
1
1
1
1
1
1
1
1
1
1
1
1
1
1
1
1
1
1
1
1
1
1
1
1
1
1
1
1
1
1
1
1
1.21538
6.26058
9.37408
9.39774
9.38267
9.37217
9.36792
9.35521
9.33624
9.32124
9.30667
9.28709
9.26464
9.23585
9.19442
9.14671
9.09
9.03466
8.97773
8.9145
8.84624
8.77278
8.69251
8.60413
8.50337
8.38809
8.26384
8.13045
7.98847
7.83271
7.6719
7.48647
7.30398
7.09833
6.89867
6.67785
6.4441
6.20209
5.94072
5.68303
1
1
1
1
1
1
1
1
1
1
1
1
1
1
1
1
1
1
1
1
1
1
1
1
1
1
1
1
1
1
1
1
1
1
1
1
1
1
1
1
1
1
1
1
1
1
1
1
1
1
1
1
1
1
1
1
1.00141
2.16715
8.0103
9.30895
9.2573
9.26326
9.26236
9.25728
9.24149
9.22324
9.20476
9.18108
9.15584
9.12657
9.08792
9.04124
8.98307
8.92552
8.8657
8.79771
8.72613
8.65127
8.56734
8.47817
8.37664
8.26245
8.141
8.01194
7.87963
7.72734
7.57189
7.40024
7.22747
7.03788
6.85352
6.64698
6.43573
6.21666
5.97919
5.74972
1
1
1
1
1
1
1
1
1
1
1
1
1
1
1
1
1
1
1
1
1
1
1
1
1
1
1
1
1
1
1
1
1
1
1
1
1
1
1
1
1
1
1
1
1
1
1
1
1
1
1
1
1
1
1
1
1
1.03871
4.15849
8.87927
9.16776
9.17924
9.18095
9.17406
9.15695
9.13707
9.11658
9.08736
9.0562
9.02381
8.98492
8.93833
8.88148
8.82137
8.76282
8.69254
8.61807
8.54017
8.45677
8.36516
8.26304
8.15324
8.03554
7.91274
7.7826
7.63814
7.48854
7.32975
7.16508
6.98758
6.8136
6.62048
6.42551
6.2255
6.00798
5.80441
1
1
1
1
1
1
1
1
1
1
1
1
1
1
1
1
1
1
1
1
1
1
1
1
1
1
1
1
1
1
1
1
1
1
1
1
1
1
1
1
1
1
1
1
1
1
1
1
1
1
1
1
1
1
1
1
1
1.00007
1.25483
5.71659
8.99332
9.15322
9.14177
9.12754
9.10236
9.07228
9.04385
9.00876
8.96941
8.92997
8.8873
8.83881
8.78257
8.72122
8.66407
8.59511
8.52007
8.43977
8.35464
8.26207
8.16029
8.05449
7.94285
7.82328
7.69519
7.55997
7.41651
7.26808
7.11397
6.9452
6.77994
6.5982
6.416
6.2321
6.03469
5.85066
1
1
1
1
1
1
1
1
1
1
1
1
1
1
1
1
1
1
1
1
1
1
1
1
1
1
1
1
1
1
1
1
1
1
1
1
1
1
1
1
1
1
1
1
1
1
1
1
1
1
1
1
1
1
1
1
1
1
1.00204
1.62425
7.21586
9.14799
9.10995
9.0745
9.02471
8.98037
8.94219
8.90618
8.86803
8.82718
8.78538
8.73928
8.68568
8.62547
8.56628
8.50054
8.42528
8.34557
8.26057
8.16969
8.0713
7.97004
7.86133
7.74606
7.62345
7.49451
7.35694
7.21531
7.07049
6.91061
6.75292
6.58089
6.41203
6.24032
6.06165
5.8899
1
1
1
1
1
1
1
1
1
1
1
1
1
1
1
1
1
1
1
1
1
1
1
1
1
1
1
1
1
1
1
1
1
1
1
1
1
1
1
1
1
1
1
1
1
1
1
1
1
1
1
1
1
1
1
1
1
1
1
1.01122
3.00569
8.29266
8.95741
8.89555
8.86639
8.84155
8.81943
8.79357
8.76371
8.7273
8.6855
8.64222
8.59256
8.53461
8.47626
8.41301
8.33959
8.26162
8.17837
8.08859
7.99188
7.89267
7.78784
7.67799
7.56036
7.43674
7.30516
7.16911
7.03068
6.88078
6.72967
6.56709
6.41019
6.25017
6.08778
5.92544
1
1
1
1
1
1
1
1
1
1
1
1
1
1
1
1
1
1
1
1
1
1
1
1
1
1
1
1
1
1
1
1
1
1
1
1
1
1
1
1
1
1
1
1
1
1
1
1
1
1
1
1
1
1
1
1
1
1
1
1.00002
1.1055
4.33839
8.5956
8.79537
8.7687
8.77067
8.75577
8.7307
8.69865
8.66049
8.61612
8.57008
8.52131
8.46257
8.40392
8.33912
8.26596
8.18823
8.10591
8.01833
7.92295
7.82382
7.7224
7.6166
7.50428
7.38614
7.2603
7.12983
6.99627
6.85594
6.71087
6.55727
6.40929
6.26017
6.10996
5.95619
1
1
1
1
1
1
1
1
1
1
1
1
1
1
1
1
1
1
1
1
1
1
1
1
1
1
1
1
1
1
1
1
1
1
1
1
1
1
1
1
1
1
1
1
1
1
1
1
1
1
1
1
1
1
1
1
1
1
1
1
1.00049
1.29012
5.16149
8.58636
8.71856
8.71906
8.70813
8.68151
8.64676
8.60521
8.55733
8.50637
8.45286
8.39339
8.33236
8.26574
8.1936
8.1172
8.03614
7.95012
7.85824
7.75968
7.65955
7.55779
7.45118
7.33847
7.21827
7.09325
6.96457
6.83192
6.69271
6.54871
6.40823
6.26883
6.12766
5.98187
1
1
1
1
1
1
1
1
1
1
1
1
1
1
1
1
1
1
1
1
1
1
1
1
1
1
1
1
1
1
1
1
1
1
1
1
1
1
1
1
1
1
1
1
1
1
1
1
1
1
1
1
1
1
1
1
1
1
1
1
1
1.00276
1.4837
5.8402
8.58935
8.6943
8.6647
8.63296
8.59593
8.55125
8.50237
8.45083
8.3951
8.33429
8.27012
8.20165
8.12919
8.05305
7.97258
7.88784
7.79911
7.70438
7.60619
7.50716
7.40454
7.29583
7.18043
7.06007
6.93655
6.8096
6.67642
6.54174
6.40911
6.27754
6.14359
6.00471
1
1
1
1
1
1
1
1
1
1
1
1
1
1
1
1
1
1
1
1
1
1
1
1
1
1
1
1
1
1
1
1
1
1
1
1
1
1
1
1
1
1
1
1
1
1
1
1
1
1
1
1
1
1
1
1
1
1
1
1
1
1
1.00703
1.70744
6.42546
8.5604
8.61215
8.58381
8.54244
8.49735
8.44734
8.39478
8.33682
8.27466
8.20873
8.13898
8.06631
7.9906
7.91098
7.82765
7.74107
7.65031
7.55662
7.46056
7.36045
7.25524
7.14414
7.02824
6.90958
6.78825
6.66281
6.53608
6.41135
6.28593
6.15897
6.02578
1
1
1
1
1
1
1
1
1
1
1
1
1
1
1
1
1
1
1
1
1
1
1
1
1
1
1
1
1
1
1
1
1
1
1
1
1
1
1
1
1
1
1
1
1
1
1
1
1
1
1
1
1
1
1
1
1
1
1
1
1
1
1.00001
1.01418
1.96632
6.86035
8.52629
8.5386
8.5036
8.45366
8.40197
8.34577
8.28345
8.2193
8.15177
8.08126
8.00893
7.93387
7.85536
7.77377
7.68959
7.60273
7.51334
7.42015
7.32183
7.2188
7.11056
6.99834
6.88524
6.77163
6.65441
6.53474
6.41633
6.29567
6.17525
6.04703
1
1
1
1
1
1
1
1
1
1
1
1
1
1
1
1
1
1
1
1
1
1
1
1
1
1
1
1
1
1
1
1
1
1
1
1
1
1
1
1
1
1
1
1
1
1
1
1
1
1
1
1
1
1
1
1
1
1
1
1
1
1
1
1.00003
1.02556
2.2211
7.22749
8.4887
8.45954
8.41028
8.35135
8.29099
8.22856
8.1638
8.09514
8.02532
7.95426
7.88059
7.80364
7.72369
7.64134
7.5569
7.46985
7.37893
7.28308
7.18324
7.0798
6.97315
6.86614
6.75945
6.64899
6.53517
6.42068
6.30356
6.18825
6.06582
1
1
1
1
1
1
1
1
1
1
1
1
1
1
1
1
1
1
1
1
1
1
1
1
1
1
1
1
1
1
1
1
1
1
1
1
1
1
1
1
1
1
1
1
1
1
1
1
1
1
1
1
1
1
1
1
1
1
1
1
1
1
1
1
1.00008
1.04019
2.56503
7.46926
8.39151
8.34334
8.29736
8.23562
8.17173
8.10834
8.0436
7.97814
7.91027
7.83872
7.76318
7.68407
7.60233
7.51808
7.43132
7.34127
7.24762
7.15169
7.05368
6.95286
6.85084
6.74878
6.64334
6.53417
6.4231
6.30938
6.19858
6.08315
1
1
1
1
1
1
1
1
1
1
1
1
1
1
1
1
1
1
1
1
1
1
1
1
1
1
1
1
1
1
1
1
1
1
1
1
1
1
1
1
1
1
1
1
1
1
1
1
1
1
1
1
1
1
1
1
1
1
1
1
1
1
1
1
1
1.00014
1.06503
2.85763
7.54039
8.27922
8.22436
8.16894
8.11543
8.05798
7.99918
7.93699
7.87101
7.80106
7.72676
7.64865
7.56759
7.48406
7.39842
7.31052
7.22013
7.12733
7.03262
6.93559
6.83661
6.73717
6.63543
6.53054
6.42326
6.31312
6.20643
6.09751
1
1
1
1
1
1
1
1
1
1
1
1
1
1
1
1
1
1
1
1
1
1
1
1
1
1
1
1
1
1
1
1
1
1
1
1
1
1
1
1
1
1
1
1
1
1
1
1
1
1
1
1
1
1
1
1
1
1
1
1
1
1
1
1
1
1
1.00029
1.092
2.96825
7.47712
8.16553
8.11835
8.06919
8.0182
7.96372
7.90438
7.83973
7.7697
7.69523
7.61791
7.53769
7.45511
7.37055
7.28405
7.19536
7.10448
7.01211
6.91832
6.82232
6.72529
6.62635
6.5258
6.42234
6.31669
6.21329
6.11013
1
1
1
1
1
1
1
1
1
1
1
1
1
1
1
1
1
1
1
1
1
1
1
1
1
1
1
1
1
1
1
1
1
1
1
1
1
1
1
1
1
1
1
1
1
1
1
1
1
1
1
1
1
1
1
1
1
1
1
1
1
1
1
1
1
1
1
1.00051
1.1052
2.92182
7.35516
8.08082
8.03815
7.98957
7.93274
7.87117
7.80613
7.73639
7.6632
7.5874
7.50862
7.42765
7.34467
7.25996
7.17327
7.08464
6.99441
6.90283
6.80937
6.71449
6.61793
6.52113
6.42171
6.32091
6.22068
6.12176
1
1
1
1
1
1
1
1
1
1
1
1
1
1
1
1
1
1
1
1
1
1
1
1
1
1
1
1
1
1
1
1
1
1
1
1
1
1
1
1
1
1
1
1
1
1
1
1
1
1
1
1
1
1
1
1
1
1
1
1
1
1
1
1
1
1
1
1
1.00064
1.10197
2.85535
7.1782
7.98874
7.95471
7.89511
7.83408
7.76636
7.69814
7.62883
7.55572
7.47989
7.40173
7.3213
7.2387
7.15403
7.06726
6.97897
6.88906
6.79817
6.70573
6.61235
6.51853
6.42298
6.32585
6.22865
6.13195
1
1
1
1
1
1
1
1
1
1
1
1
1
1
1
1
1
1
1
1
1
1
1
1
1
1
1
1
1
1
1
1
1
1
1
1
1
1
1
1
1
1
1
1
1
1
1
1
1
1
1
1
1
1
1
1
1
1
1
1
1
1
1
1
1
1
1
1
1
1.00062
1.09536
2.73124
6.93544
7.88834
7.86217
7.79643
7.73208
7.66354
7.59483
7.52365
7.45065
7.37541
7.29756
7.2173
7.13468
7.05018
6.96406
6.87685
6.78872
6.69979
6.60915
6.51871
6.42569
6.33125
6.23423
6.1389
1
1
1
1
1
1
1
1
1
1
1
1
1
1
1
1
1
1
1
1
1
1
1
1
1
1
1
1
1
1
1
1
1
1
1
1
1
1
1
1
1
1
1
1
1
1
1
1
1
1
1
1
1
1
1
1
1
1
1
1
1
1
1
1
1
1
1
1
1
1
1.00057
1.08325
2.54971
6.61248
7.76902
7.76322
7.69603
7.63371
7.56513
7.49489
7.4229
7.34931
7.27349
7.19562
7.11567
7.03398
6.95124
6.86718
6.78276
6.69638
6.60924
6.51841
6.42689
6.33336
6.24263
6.14663
1
1
1
1
1
1
1
1
1
1
1
1
1
1
1
1
1
1
1
1
1
1
1
1
1
1
1
1
1
1
1
1
1
1
1
1
1
1
1
1
1
1
1
1
1
1
1
1
1
1
1
1
1
1
1
1
1
1
1
1
1
1
1
1
1
1
1
1
1
1
1
1.00047
1.06693
2.3255
6.16902
7.6405
7.67556
7.60417
7.53899
7.46781
7.39642
7.32355
7.24916
7.1736
7.09679
7.01869
6.94011
6.85981
6.77843
6.69298
6.60783
6.51991
6.43114
6.3393
6.26673
6.20208
1
1
1
1
1
1
1
1
1
1
1
1
1
1
1
1
1
1
1
1
1
1
1
1
1
1
1
1
1
1
1
1
1
1
1
1
1
1
1
1
1
1
1
1
1
1
1
1
1
1
1
1
1
1
1
1
1
1
1
1
1
1
1
1
1
1
1
1
1
1
1
1
1.00034
1.04943
2.06554
5.59748
7.48538
7.60125
7.5067
7.43843
7.36816
7.29714
7.22546
7.15366
7.08006
7.00665
6.93121
6.85275
6.77389
6.69134
6.60762
6.5264
6.4598
6.42367
6.42749
6.53272
1
1
1
1
1
1
1
1
1
1
1
1
1
1
1
1
1
1
1
1
1
1
1
1
1
1
1
1
1
1
1
1
1
1
1
1
1
1
1
1
1
1
1
1
1
1
1
1
1
1
1
1
1
1
1
1
1
1
1
1
1
1
1
1
1
1
1
1
1
1
1
1
1
1.00022
1.03274
1.79468
4.86313
7.30512
7.49726
7.4139
7.3501
7.28453
7.21715
7.14782
7.07676
7.00344
6.92719
6.85008
6.77023
6.70198
6.65004
6.62943
6.69465
6.88073
7.17548
7.5548
1
1
1
1
1
1
1
1
1
1
1
1
1
1
1
1
1
1
1
1
1
1
1
1
1
1
1
1
1
1
1
1
1
1
1
1
1
1
1
1
1
1
1
1
1
1
1
1
1
1
1
1
1
1
1
1
1
1
1
1
1
1
1
1
1
1
1
1
1
1
1
1
1
1
1.00012
1.01924
1.53073
4.08647
7.00236
7.39775
7.34178
7.28285
7.2125
7.14202
7.06715
6.99659
6.91718
6.85738
6.81994
6.83373
6.9652
7.23876
7.65919
8.07178
8.38224
8.50142
1
1
1
1
1
1
1
1
1
1
1
1
1
1
1
1
1
1
1
1
1
1
1
1
1
1
1
1
1
1
1
1
1
1
1
1
1
1
1
1
1
1
1
1
1
1
1
1
1
1
1
1
1
1
1
1
1
1
1
1
1
1
1
1
1
1
1
1
1
1
1
1
1
1
1
1.00006
1.00965
1.31925
3.33105
6.56126
7.29366
7.30041
7.20052
7.13422
7.05146
6.99215
6.96374
7.02994
7.24043
7.634
8.12088
8.57783
8.89967
8.98914
9.01606
8.90581
1
1
1
1
1
1
1
1
1
1
1
1
1
1
1
1
1
1
1
1
1
1
1
1
1
1
1
1
1
1
1
1
1
1
1
1
1
1
1
1
1
1
1
1
1
1
1
1
1
1
1
1
1
1
1
1
1
1
1
1
1
1
1
1
1
1
1
1
1
1
1
1
1
1
1
1
1.00002
1.00418
1.17291
2.66517
5.90674
7.14318
7.21839
7.12558
7.11013
7.23232
7.54934
8.06817
8.62798
9.07655
9.33403
9.4316
9.36394
9.23664
9.15451
9.02001
1
1
1
1
1
1
1
1
1
1
1
1
1
1
1
1
1
1
1
1
1
1
1
1
1
1
1
1
1
1
1
1
1
1
1
1
1
1
1
1
1
1
1
1
1
1
1
1
1
1
1
1
1
1
1
1
1
1
1
1
1
1
1
1
1
1
1
1
1
1
1
1
1
1
1
1
1
1.00001
1.00159
1.08452
2.10057
5.07916
6.80495
7.35639
7.70213
8.41742
9.13735
9.62361
9.7933
9.81573
9.75744
9.66015
9.491
9.31072
9.19787
9.08425
1
1
1
1
1
1
1
1
1
1
1
1
1
1
1
1
1
1
1
1
1
1
1
1
1
1
1
1
1
1
1
1
1
1
1
1
1
1
1
1
1
1
1
1
1
1
1
1
1
1
1
1
1
1
1
1
1
1
1
1
1
1
1
1
1
1
1
1
1
1
1
1
1
1
1
1
1
1
1
1.00051
1.03745
1.66929
3.97238
8.14773
9.66997
10.1174
10.2856
10.2593
10.105
9.96268
9.82501
9.70484
9.55252
9.39578
9.28831
9.20139
1
1
1
1
1
1
1
1
1
1
1
1
1
1
1
1
1
1
1
1
1
1
1
1
1
1
1
1
1
1
1
1
1
1
1
1
1
1
1
1
1
1
1
1
1
1
1
1
1
1
1
1
1
1
1
1
1
1
1
1
1
1
1
1
1
1
1
1
1
1
1
1
1
1
1
1
1
1
1
1
1.00014
1.01588
1.53557
8.65072
11.2966
10.8009
10.5916
10.4029
10.2036
10.0396
9.89806
9.77637
9.61054
9.46169
9.37253
9.31186
1
1
1
1
1
1
1
1
1
1
1
1
1
1
1
1
1
1
1
1
1
1
1
1
1
1
1
1
1
1
1
1
1
1
1
1
1
1
1
1
1
1
1
1
1
1
1
1
1
1
1
1
1
1
1
1
1
1
1
1
1
1
1
1
1
1
1
1
1
1
1
1
1
1
1
1
1
1
1
1
1
1.00006
1.26143
7.59051
10.7142
10.3559
10.2135
10.0834
9.97838
9.88942
9.79821
9.71086
9.62655
9.56422
9.53121
9.48897
1
1
1
1
1
1
1
1
1
1
1
1
1
1
1
1
1
1
1
1
1
1
1
1
1
1
1
1
1
1
1
1
1
1
1
1
1
1
1
1
1
1
1
1
1
1
1
1
1
1
1
1
1
1
1
1
1
1
1
1
1
1
1
1
1
1
1
1
1
1
1
1
1
1
1
1
1
1
1
1
1
1
1.00734
5.92979
10.1727
10.2336
10.2208
10.178
10.1188
10.0559
9.98817
9.91997
9.86144
9.80864
9.74969
9.67492
1
1
1
1
1
1
1
1
1
1
1
1
1
1
1
1
1
1
1
1
1
1
1
1
1
1
1
1
1
1
1
1
1
1
1
1
1
1
1
1
1
1
1
1
1
1
1
1
1
1
1
1
1
1
1
1
1
1
1
1
1
1
1
1
1
1
1
1
1
1
1
1
1
1
1
1
1
1
1
1
1
1
1.00002
3.9436
9.6011
10.1455
10.1305
10.1442
10.1183
10.0796
10.0337
9.98093
9.92458
9.85943
9.78823
9.71533
1
1
1
1
1
1
1
1
1
1
1
1
1
1
1
1
1
1
1
1
1
1
1
1
1
1
1
1
1
1
1
1
1
1
1
1
1
1
1
1
1
1
1
1
1
1
1
1
1
1
1
1
1
1
1
1
1
1
1
1
1
1
1
1
1
1
1
1
1
1
1
1
1
1
1
1
1
1
1
1
1
1
1
2.18256
8.56249
10.251
10.2108
10.1726
10.1314
10.0968
10.0536
10.0089
9.96432
9.91592
9.86283
9.80863
1
1
1
1
1
1
1
1
1
1
1
1
1
1
1
1
1
1
1
1
1
1
1
1
1
1
1
1
1
1
1
1
1
1
1
1
1
1
1
1
1
1
1
1
1
1
1
1
1
1
1
1
1
1
1
1
1
1
1
1
1
1
1
1
1
1
1
1
1
1
1
1
1
1
1
1
1
1
1
1
1
1
1
1.06577
6.96855
10.336
10.2696
10.2015
10.1512
10.1138
10.0822
10.0422
9.99558
9.94652
9.89428
9.8396
1
1
1
1
1
1
1
1
1
1
1
1
1
1
1
1
1
1
1
1
1
1
1
1
1
1
1
1
1
1
1
1
1
1
1
1
1
1
1
1
1
1
1
1
1
1
1
1
1
1
1
1
1
1
1
1
1
1
1
1
1
1
1
1
1
1
1
1
1
1
1
1
1
1
1
1
1
1
1
1
1
1
1
1.0001
5.12955
9.99372
10.2071
10.1814
10.1615
10.1328
10.0965
10.0555
10.0118
9.96544
9.91656
9.86598
1
1
1
1
1
1
1
1
1
1
1
1
1
1
1
1
1
1
1
1
1
1
1
1
1
1
1
1
1
1
1
1
1
1
1
1
1
1
1
1
1
1
1
1
1
1
1
1
1
1
1
1
1
1
1
1
1
1
1
1
1
1
1
1
1
1
1
1
1
1
1
1
1
1
1
1
1
1
1
1
1
1
1
1
3.34574
9.3901
10.2456
10.1983
10.1754
10.1415
10.1046
10.0647
10.0234
9.97971
9.93424
9.88687
1
1
1
1
1
1
1
1
1
1
1
1
1
1
1
1
1
1
1
1
1
1
1
1
1
1
1
1
1
1
1
1
1
1
1
1
1
1
1
1
1
1
1
1
1
1
1
1
1
1
1
1
1
1
1
1
1
1
1
1
1
1
1
1
1
1
1
1
1
1
1
1
1
1
1
1
1
1
1
1
1
1
1
1
1.96884
8.53251
10.3407
10.2636
10.2221
10.176
10.1314
10.0868
10.0429
9.99834
9.95289
9.90636
1
1
1
1
1
1
1
1
1
1
1
1
1
1
1
1
1
1
1
1
1
1
1
1
1
1
1
1
1
1
1
1
1
1
1
1
1
1
1
1
1
1
1
1
1
1
1
1
1
1
1
1
1
1
1
1
1
1
1
1
1
1
1
1
1
1
1
1
1
1
1
1
1
1
1
1
1
1
1
1
1
1
1
1
1.12601
7.18056
10.3681
10.2949
10.2339
10.1847
10.1408
10.0988
10.0572
10.0153
9.97136
9.92651
1
1
1
1
1
1
1
1
1
1
1
1
1
1
1
1
1
1
1
1
1
1
1
1
1
1
1
1
1
1
1
1
1
1
1
1
1
1
1
1
1
1
1
1
1
1
1
1
1
1
1
1
1
1
1
1
1
1
1
1
1
1
1
1
1
1
1
1
1
1
1
1
1
1
1
1
1
1
1
1
1
1
1
1
1.0008
5.70367
10.1724
10.264
10.222
10.1913
10.1542
10.1173
10.0787
10.0384
9.99538
9.95126
1
1
1
1
1
1
1
1
1
1
1
1
1
1
1
1
1
1
1
1
1
1
1
1
1
1
1
1
1
1
1
1
1
1
1
1
1
1
1
1
1
1
1
1
1
1
1
1
1
1
1
1
1
1
1
1
1
1
1
1
1
1
1
1
1
1
1
1
1
1
1
1
1
1
1
1
1
1
1
1
1
1
1
1
1
4.30275
9.83963
10.2797
10.2334
10.2084
10.173
10.1383
10.1003
10.06
10.0175
9.97385
1
1
1
1
1
1
1
1
1
1
1
1
1
1
1
1
1
1
1
1
1
1
1
1
1
1
1
1
1
1
1
1
1
1
1
1
1
1
1
1
1
1
1
1
1
1
1
1
1
1
1
1
1
1
1
1
1
1
1
1
1
1
1
1
1
1
1
1
1
1
1
1
1
1
1
1
1
1
1
1
1
1
1
1
1
3.05105
9.37214
10.3262
10.2644
10.236
10.1979
10.1613
10.1219
10.0803
10.038
9.99459
1
1
1
1
1
1
1
1
1
1
1
1
1
1
1
1
1
1
1
1
1
1
1
1
1
1
1
1
1
1
1
1
1
1
1
1
1
1
1
1
1
1
1
1
1
1
1
1
1
1
1
1
1
1
1
1
1
1
1
1
1
1
1
1
1
1
1
1
1
1
1
1
1
1
1
1
1
1
1
1
1
1
1
1
1
2.06972
8.7095
10.3768
10.3017
10.2651
10.224
10.1853
10.145
10.1031
10.061
10.0174
1
1
1
1
1
1
1
1
1
1
1
1
1
1
1
1
1
1
1
1
1
1
1
1
1
1
1
1
1
1
1
1
1
1
1
1
1
1
1
1
1
1
1
1
1
1
1
1
1
1
1
1
1
1
1
1
1
1
1
1
1
1
1
1
1
1
1
1
1
1
1
1
1
1
1
1
1
1
1
1
1
1
1
1
1
1.43705
7.82901
10.4305
10.3445
10.2932
10.2475
10.2047
10.1621
10.1192
10.0772
10.0342
1
1
1
1
1
1
1
1
1
1
1
1
1
1
1
1
1
1
1
1
1
1
1
1
1
1
1
1
1
1
1
1
1
1
1
1
1
1
1
1
1
1
1
1
1
1
1
1
1
1
1
1
1
1
1
1
1
1
1
1
1
1
1
1
1
1
1
1
1
1
1
1
1
1
1
1
1
1
1
1
1
1
1
1
1
1.0321
6.8395
10.3822
10.3739
10.3111
10.2714
10.2273
10.1841
10.1405
10.0974
10.0538
1
1
1
1
1
1
1
1
1
1
1
1
1
1
1
1
1
1
1
1
1
1
1
1
1
1
1
1
1
1
1
1
1
1
1
1
1
1
1
1
1
1
1
1
1
1
1
1
1
1
1
1
1
1
1
1
1
1
1
1
1
1
1
1
1
1
1
1
1
1
1
1
1
1
1
1
1
1
1
1
1
1
1
1
1
1.00009
5.87833
10.2652
10.3657
10.3055
10.2723
10.2309
10.1901
10.1483
10.106
10.0637
1
1
1
1
1
1
1
1
1
1
1
1
1
1
1
1
1
1
1
1
1
1
1
1
1
1
1
1
1
1
1
1
1
1
1
1
1
1
1
1
1
1
1
1
1
1
1
1
1
1
1
1
1
1
1
1
1
1
1
1
1
1
1
1
1
1
1
1
1
1
1
1
1
1
1
1
1
1
1
1
1
1
1
1
1
1
4.93759
10.1192
10.3915
10.3313
10.2996
10.2592
10.2187
10.1767
10.1335
10.0902
1
1
1
1
1
1
1
1
1
1
1
1
1
1
1
1
1
1
1
1
1
1
1
1
1
1
1
1
1
1
1
1
1
1
1
1
1
1
1
1
1
1
1
1
1
1
1
1
1
1
1
1
1
1
1
1
1
1
1
1
1
1
1
1
1
1
1
1
1
1
1
1
1
1
1
1
1
1
1
1
1
1
1
1
1
1
4.13483
9.92115
10.4252
10.3519
10.3159
10.2734
10.232
10.1896
10.1462
10.1027
1
1
1
1
1
1
1
1
1
1
1
1
1
1
1
1
1
1
1
1
1
1
1
1
1
1
1
1
1
1
1
1
1
1
1
1
1
1
1
1
1
1
1
1
1
1
1
1
1
1
1
1
1
1
1
1
1
1
1
1
1
1
1
1
1
1
1
1
1
1
1
1
1
1
1
1
1
1
1
1
1
1
1
1
1
1
3.4891
9.68583
10.4535
10.3731
10.3351
10.2898
10.2461
10.2024
10.1584
10.1144
1
1
1
1
1
1
1
1
1
1
1
1
1
1
1
1
1
1
1
1
1
1
1
1
1
1
1
1
1
1
1
1
1
1
1
1
1
1
1
1
1
1
1
1
1
1
1
1
1
1
1
1
1
1
1
1
1
1
1
1
1
1
1
1
1
1
1
1
1
1
1
1
1
1
1
1
1
1
1
1
1
1
1
1
1
1
2.96794
9.48452
10.4734
10.3831
10.3418
10.2962
10.2529
10.2092
10.1656
10.1221
1
1
1
1
1
1
1
1
1
1
1
1
1
1
1
1
1
1
1
1
1
1
1
1
1
1
1
1
1
1
1
1
1
1
1
1
1
1
1
1
1
1
1
1
1
1
1
1
1
1
1
1
1
1
1
1
1
1
1
1
1
1
1
1
1
1
1
1
1
1
1
1
1
1
1
1
1
1
1
1
1
1
1
1
1
1
2.60128
9.26845
10.4762
10.3859
10.3447
10.2998
10.2572
10.2141
10.1712
10.1284
1
1
1
1
1
1
1
1
1
1
1
1
1
1
1
1
1
1
1
1
1
1
1
1
1
1
1
1
1
1
1
1
1
1
1
1
1
1
1
1
1
1
1
1
1
1
1
1
1
1
1
1
1
1
1
1
1
1
1
1
1
1
1
1
1
1
1
1
1
1
1
1
1
1
1
1
1
1
1
1
1
1
1
1
1
1
2.34718
9.06953
10.4639
10.3792
10.3409
10.2986
10.2578
10.2161
10.1748
10.1331
1
1
1
1
1
1
1
1
1
1
1
1
1
1
1
1
1
1
1
1
1
1
1
1
1
1
1
1
1
1
1
1
1
1
1
1
1
1
1
1
1
1
1
1
1
1
1
1
1
1
1
1
1
1
1
1
1
1
1
1
1
1
1
1
1
1
1
1
1
1
1
1
1
1
1
1
1
1
1
1
1
1
1
1
1
1
2.16531
8.89752
10.4469
10.3712
10.3361
10.2962
10.2576
10.2182
10.1784
10.1376
1
1
1
1
1
1
1
1
1
1
1
1
1
1
1
1
1
1
1
1
1
1
1
1
1
1
1
1
1
1
1
1
1
1
1
1
1
1
1
1
1
1
1
1
1
1
1
1
1
1
1
1
1
1
1
1
1
1
1
1
1
1
1
1
1
1
1
1
1
1
1
1
1
1
1
1
1
1
1
1
1
1
1
1
1
1
2.03348
8.75753
10.4332
10.3658
10.3332
10.2955
10.2588
10.2208
10.1815
10.1419
1
1
1
1
1
1
1
1
1
1
1
1
1
1
1
1
1
1
1
1
1
1
1
1
1
1
1
1
1
1
1
1
1
1
1
1
1
1
1
1
1
1
1
1
1
1
1
1
1
1
1
1
1
1
1
1
1
1
1
1
1
1
1
1
1
1
1
1
1
1
1
1
1
1
1
1
1
1
1
1
1
1
1
1
1
1
1.9436
8.65422
10.4247
10.3644
10.3324
10.2958
10.2598
10.2225
10.184
10.1454
1
1
1
1
1
1
1
1
1
1
1
1
1
1
1
1
1
1
1
1
1
1
1
1
1
1
1
1
1
1
1
1
1
1
1
1
1
1
1
1
1
1
1
1
1
1
1
1
1
1
1
1
1
1
1
1
1
1
1
1
1
1
1
1
1
1
1
1
1
1
1
1
1
1
1
1
1
1
1
1
1
1
1
1
1
1
1.90181
8.59628
10.4116
10.3588
10.329
10.2942
10.26
10.224
10.187
10.1492
1.15331
0.214781
0.0272738
0.0326841
0.0446605
0.0633342
0.0893818
0.122
0.172141
0.236809
0.310668
0.389485
0.447718
0.510798
0.59847
0.709473
0.803909
0.891743
0.956293
0.960353
0.950334
0.955296
0.989999
1.00791
1.01589
1.04069
1.06976
1.0883
1.11469
1.14461
1.16714