/*--------------------------------*- C++ -*----------------------------------*\
  =========                 |
  \\      /  F ield         | OpenFOAM: The Open Source CFD Toolbox
   \\    /   O peration     | Website:  https://openfoam.org
    \\  /    A nd           | Version:  7
     \\/     M anipulation  |
\*---------------------------------------------------------------------------*/
FoamFile
{
    version     2.0;
    format      ascii;
    class       volScalarField;
    location    "5.5";
    object      rho;
}
// * * * * * * * * * * * * * * * * * * * * * * * * * * * * * * * * * * * * * //

dimensions      [1 -3 0 0 0 0 0];

internalField   nonuniform List<scalar> 
19968
(
1.40001
1.40001
1.40001
1.40001
1.40001
1.40001
1.40001
1.40001
1.40001
1.40001
1.40001
1.40001
1.40001
1.40001
1.40001
1.40001
1.40001
1.40001
1.40001
1.40001
1.40001
1.40001
1.40001
1.40001
1.40001
1.40001
1.40001
1.40001
1.40001
1.40001
1.40001
1.40001
1.40001
1.40001
1.40001
1.40001
1.40001
1.40001
1.40001
1.40001
1.40001
1.40001
1.40001
1.40001
1.40001
1.40001
1.40001
1.40001
1.70724
4.5744
5.42828
5.43795
5.46223
5.47993
5.49873
5.51807
5.53898
5.56099
5.58332
5.60516
5.62552
5.64384
5.66032
5.67595
5.69233
5.71052
5.72996
5.7492
5.76698
5.78265
5.79641
5.80918
5.82181
5.83491
5.84881
5.86331
5.87752
5.89049
5.9018
5.9117
5.92085
5.93002
5.93969
5.94983
5.95996
5.96944
5.97783
5.98506
5.99131
5.99674
6.00126
6.00466
6.0068
6.00775
6.00812
6.00812
1.40001
1.40001
1.40001
1.40001
1.40001
1.40001
1.40001
1.40001
1.40001
1.40001
1.40001
1.40001
1.40001
1.40001
1.40001
1.40001
1.40001
1.40001
1.40001
1.40001
1.40001
1.40001
1.40001
1.40001
1.40001
1.40001
1.40001
1.40001
1.40001
1.40001
1.40001
1.40001
1.40001
1.40001
1.40001
1.40001
1.40001
1.40001
1.40001
1.40001
1.40001
1.40001
1.40001
1.40001
1.40001
1.40001
1.40001
1.40001
1.68839
4.54506
5.42481
5.43948
5.46117
5.47938
5.49828
5.51784
5.5389
5.56099
5.58327
5.605
5.62519
5.64326
5.65959
5.67513
5.69152
5.70963
5.72891
5.74797
5.76559
5.78115
5.79489
5.8077
5.82045
5.83366
5.8476
5.862
5.87605
5.88889
5.90016
5.91008
5.91928
5.92846
5.93809
5.94815
5.95818
5.96758
5.97589
5.98301
5.98909
5.99431
5.99864
6.00195
6.00414
6.00527
6.00585
6.00609
1.40001
1.40001
1.40001
1.40001
1.40001
1.40001
1.40001
1.40001
1.40001
1.40001
1.40001
1.40001
1.40001
1.40001
1.40001
1.40001
1.40001
1.40001
1.40001
1.40001
1.40001
1.40001
1.40001
1.40001
1.40001
1.40001
1.40001
1.40001
1.40001
1.40001
1.40001
1.40001
1.40001
1.40001
1.40001
1.40001
1.40001
1.40001
1.40001
1.40001
1.40001
1.40001
1.40001
1.40001
1.40001
1.40001
1.40001
1.40001
1.64921
4.48813
5.4247
5.43503
5.45669
5.47604
5.49604
5.51659
5.53818
5.56025
5.58205
5.60321
5.62299
5.64085
5.65728
5.67298
5.68955
5.70759
5.72664
5.74542
5.76281
5.77826
5.79202
5.80493
5.81782
5.83113
5.84501
5.85922
5.87306
5.88579
5.89708
5.90709
5.91639
5.92561
5.93521
5.94522
5.9552
5.96454
5.97274
5.97968
5.98552
5.99046
5.9946
5.99787
6.00018
6.00156
6.00237
6.00292
1.40001
1.40001
1.40001
1.40001
1.40001
1.40001
1.40001
1.40001
1.40001
1.40001
1.40001
1.40001
1.40001
1.40001
1.40001
1.40001
1.40001
1.40001
1.40001
1.40001
1.40001
1.40001
1.40001
1.40001
1.40001
1.40001
1.40001
1.40001
1.40001
1.40001
1.40001
1.40001
1.40001
1.40001
1.40001
1.40001
1.40001
1.40001
1.40001
1.40001
1.40001
1.40001
1.40001
1.40001
1.40001
1.40001
1.40001
1.40001
1.5931
4.39497
5.41992
5.42975
5.45125
5.47223
5.49379
5.51554
5.53765
5.55942
5.58029
5.60046
5.61963
5.63731
5.65396
5.66988
5.6866
5.70442
5.72305
5.74137
5.75847
5.77384
5.78768
5.80074
5.81377
5.82713
5.84091
5.85488
5.86847
5.88107
5.89238
5.90251
5.9119
5.92112
5.93062
5.94045
5.95023
5.95935
5.96729
5.97389
5.97932
5.9839
5.98784
5.99117
5.99382
5.99575
5.99707
5.99819
1.40001
1.40001
1.40001
1.40001
1.40001
1.40001
1.40001
1.40001
1.40001
1.40001
1.40001
1.40001
1.40001
1.40001
1.40001
1.40001
1.40001
1.40001
1.40001
1.40001
1.40001
1.40001
1.40001
1.40001
1.40001
1.40001
1.40001
1.40001
1.40001
1.40001
1.40001
1.40001
1.40001
1.40001
1.40001
1.40001
1.40001
1.40001
1.40001
1.40001
1.40001
1.40001
1.40001
1.40001
1.40001
1.40001
1.40001
1.40001
1.52113
4.27108
5.41676
5.42647
5.44749
5.46931
5.49162
5.51378
5.53563
5.5566
5.57643
5.59577
5.61457
5.63227
5.64939
5.66579
5.68275
5.7003
5.71834
5.73609
5.7529
5.76833
5.78239
5.79567
5.80881
5.82216
5.83576
5.84943
5.86277
5.87527
5.88665
5.89694
5.90647
5.91574
5.92517
5.93486
5.94445
5.95331
5.96086
5.96689
5.97163
5.97548
5.97883
5.98186
5.98459
5.98695
5.98871
5.99036
1.40001
1.40001
1.40001
1.40001
1.40001
1.40001
1.40001
1.40001
1.40001
1.40001
1.40001
1.40001
1.40001
1.40001
1.40001
1.40001
1.40001
1.40001
1.40001
1.40001
1.40001
1.40001
1.40001
1.40001
1.40001
1.40001
1.40001
1.40001
1.40001
1.40001
1.40001
1.40001
1.40001
1.40001
1.40001
1.40001
1.40001
1.40001
1.40001
1.40001
1.40001
1.40001
1.40001
1.40001
1.40001
1.40001
1.40001
1.40001
1.40661
4.07373
5.40461
5.42099
5.44282
5.46642
5.49007
5.51281
5.5341
5.55394
5.57272
5.5913
5.60969
5.62724
5.64482
5.66171
5.67865
5.69546
5.71235
5.72906
5.74531
5.76068
5.77484
5.78813
5.80108
5.81411
5.82727
5.84043
5.85332
5.86552
5.87677
5.88704
5.89661
5.90591
5.91533
5.92497
5.9345
5.94324
5.9506
5.95635
5.96076
5.96429
5.96746
5.97059
5.97375
5.97681
5.97925
5.98155
1.40001
1.40001
1.40001
1.40001
1.40001
1.40001
1.40001
1.40001
1.40001
1.40001
1.40001
1.40001
1.40001
1.40001
1.40001
1.40001
1.40001
1.40001
1.40001
1.40001
1.40001
1.40001
1.40001
1.40001
1.40001
1.40001
1.40001
1.40001
1.40001
1.40001
1.40001
1.40001
1.40001
1.40001
1.40001
1.40001
1.40001
1.40001
1.40001
1.40001
1.40001
1.40001
1.40001
1.40001
1.40001
1.40001
1.40001
1.40001
1.40005
3.77514
5.36558
5.40497
5.42811
5.45365
5.47783
5.50055
5.52131
5.54046
5.55866
5.57684
5.59518
5.61301
5.63113
5.64859
5.66565
5.68207
5.6982
5.71432
5.73043
5.74609
5.76069
5.77432
5.78744
5.80044
5.81342
5.82631
5.83891
5.85093
5.86212
5.87245
5.88213
5.89157
5.90115
5.91093
5.92051
5.92919
5.93635
5.94181
5.94586
5.94906
5.95207
5.95529
5.95885
5.96251
5.96554
5.96834
1.40001
1.40001
1.40001
1.40001
1.40001
1.40001
1.40001
1.40001
1.40001
1.40001
1.40001
1.40001
1.40001
1.40001
1.40001
1.40001
1.40001
1.40001
1.40001
1.40001
1.40001
1.40001
1.40001
1.40001
1.40001
1.40001
1.40001
1.40001
1.40001
1.40001
1.40001
1.40001
1.40001
1.40001
1.40001
1.40001
1.40001
1.40001
1.40001
1.40001
1.40001
1.40001
1.40001
1.40001
1.40001
1.40001
1.40001
1.40001
1.40001
3.38058
5.31296
5.39806
5.4205
5.44673
5.47028
5.4925
5.5131
5.53221
5.55022
5.56799
5.58608
5.60391
5.62172
5.63888
5.65539
5.67108
5.68626
5.70162
5.71725
5.73269
5.74715
5.76056
5.77344
5.78619
5.79887
5.81136
5.82347
5.83499
5.84575
5.85578
5.86533
5.87479
5.88446
5.89431
5.90383
5.91226
5.91904
5.92408
5.92774
5.93065
5.93356
5.93688
5.94071
5.94477
5.94819
5.95122
1.40001
1.40001
1.40001
1.40001
1.40001
1.40001
1.40001
1.40001
1.40001
1.40001
1.40001
1.40001
1.40001
1.40001
1.40001
1.40001
1.40001
1.40001
1.40001
1.40001
1.40001
1.40001
1.40001
1.40001
1.40001
1.40001
1.40001
1.40001
1.40001
1.40001
1.40001
1.40001
1.40001
1.40001
1.40001
1.40001
1.40001
1.40001
1.40001
1.40001
1.40001
1.40001
1.40001
1.40001
1.40001
1.40001
1.40001
1.40001
1.40001
2.90841
5.22042
5.39936
5.41664
5.44157
5.4636
5.48488
5.50504
5.52415
5.54224
5.55978
5.5774
5.59469
5.61146
5.62755
5.64295
5.65765
5.67179
5.68633
5.70131
5.71609
5.72993
5.74263
5.75493
5.76725
5.77959
5.79163
5.80313
5.81386
5.82379
5.83312
5.84227
5.85165
5.86147
5.87145
5.88091
5.88904
5.89544
5.90016
5.90368
5.90662
5.90972
5.91331
5.91741
5.92173
5.92529
5.92832
1.40001
1.40001
1.40001
1.40001
1.40001
1.40001
1.40001
1.40001
1.40001
1.40001
1.40001
1.40001
1.40001
1.40001
1.40001
1.40001
1.40001
1.40001
1.40001
1.40001
1.40001
1.40001
1.40001
1.40001
1.40001
1.40001
1.40001
1.40001
1.40001
1.40001
1.40001
1.40001
1.40001
1.40001
1.40001
1.40001
1.40001
1.40001
1.40001
1.40001
1.40001
1.40001
1.40001
1.40001
1.40001
1.40001
1.40001
1.40001
1.40001
2.37672
5.04327
5.40348
5.42156
5.44433
5.46396
5.48313
5.50152
5.51959
5.53725
5.55431
5.57101
5.58717
5.6024
5.61685
5.63084
5.64454
5.65784
5.67163
5.68585
5.69954
5.71229
5.72366
5.73475
5.74605
5.75761
5.76878
5.77918
5.78856
5.79706
5.80518
5.81358
5.82276
5.83276
5.843
5.85245
5.86027
5.86618
5.87044
5.87363
5.8764
5.87941
5.88292
5.88688
5.89099
5.89424
5.89692
1.40001
1.40001
1.40001
1.40001
1.40001
1.40001
1.40001
1.40001
1.40001
1.40001
1.40001
1.40001
1.40001
1.40001
1.40001
1.40001
1.40001
1.40001
1.40001
1.40001
1.40001
1.40001
1.40001
1.40001
1.40001
1.40001
1.40001
1.40001
1.40001
1.40001
1.40001
1.40001
1.40001
1.40001
1.40001
1.40001
1.40001
1.40001
1.40001
1.40001
1.40001
1.40001
1.40001
1.40001
1.40001
1.40001
1.40001
1.40001
1.40001
1.85787
4.71996
5.4169
5.41212
5.43456
5.45282
5.47207
5.49065
5.5088
5.52658
5.54367
5.55995
5.57572
5.59049
5.60402
5.61696
5.62995
5.64281
5.65616
5.66983
5.68244
5.69402
5.70406
5.71392
5.72413
5.73481
5.74508
5.75419
5.76183
5.76831
5.77438
5.78101
5.78882
5.79775
5.80697
5.81534
5.82202
5.82689
5.83043
5.83331
5.83614
5.8394
5.84319
5.84729
5.85132
5.85429
5.85672
1.40001
1.40001
1.40001
1.40001
1.40001
1.40001
1.40001
1.40001
1.40001
1.40001
1.40001
1.40001
1.40001
1.40001
1.40001
1.40001
1.40001
1.40001
1.40001
1.40001
1.40001
1.40001
1.40001
1.40001
1.40001
1.40001
1.40001
1.40001
1.40001
1.40001
1.40001
1.40001
1.40001
1.40001
1.40001
1.40001
1.40001
1.40001
1.40001
1.40001
1.40001
1.40001
1.40001
1.40001
1.40001
1.40001
1.40001
1.40001
1.40001
1.42246
4.06723
5.40515
5.41653
5.43098
5.44817
5.46552
5.48309
5.50028
5.51699
5.53297
5.54774
5.56189
5.57533
5.58754
5.59922
5.61121
5.6231
5.6352
5.64764
5.65881
5.66879
5.67726
5.68547
5.69431
5.7039
5.71331
5.72142
5.7278
5.73272
5.73712
5.74207
5.74834
5.75594
5.76407
5.77157
5.77752
5.78169
5.78442
5.78626
5.78767
5.78912
5.79084
5.7929
5.79516
5.79682
5.7984
1.40001
1.40001
1.40001
1.40001
1.40001
1.40001
1.40001
1.40001
1.40001
1.40001
1.40001
1.40001
1.40001
1.40001
1.40001
1.40001
1.40001
1.40001
1.40001
1.40001
1.40001
1.40001
1.40001
1.40001
1.40001
1.40001
1.40001
1.40001
1.40001
1.40001
1.40001
1.40001
1.40001
1.40001
1.40001
1.40001
1.40001
1.40001
1.40001
1.40001
1.40001
1.40001
1.40001
1.40001
1.40001
1.40001
1.40001
1.40001
1.40001
1.40004
3.17933
5.23707
5.36479
5.39023
5.41446
5.43379
5.452
5.46888
5.48484
5.50009
5.51443
5.52795
5.54113
5.55349
5.56492
5.57668
5.58863
5.60052
5.61258
5.62338
5.63226
5.63975
5.6467
5.65453
5.66327
5.67205
5.67955
5.68508
5.68882
5.69156
5.69428
5.69773
5.70213
5.7071
5.71161
5.71475
5.71622
5.71654
5.716
5.71533
5.71532
5.7165
5.71863
5.72132
5.72325
5.72511
1.40001
1.40001
1.40001
1.40001
1.40001
1.40001
1.40001
1.40001
1.40001
1.40001
1.40001
1.40001
1.40001
1.40001
1.40001
1.40001
1.40001
1.40001
1.40001
1.40001
1.40001
1.40001
1.40001
1.40001
1.40001
1.40001
1.40001
1.40001
1.40001
1.40001
1.40001
1.40001
1.40001
1.40001
1.40001
1.40001
1.40001
1.40001
1.40001
1.40001
1.40001
1.40001
1.40001
1.40001
1.40001
1.40001
1.40001
1.40001
1.40001
1.4
2.15656
4.87436
5.36824
5.37916
5.40391
5.42158
5.43806
5.45342
5.46807
5.48206
5.49518
5.50717
5.51863
5.5297
5.53992
5.55037
5.56131
5.57215
5.58269
5.59204
5.59894
5.60436
5.60899
5.61448
5.62113
5.62813
5.63419
5.63833
5.64044
5.64104
5.64069
5.64004
5.63985
5.64032
5.641
5.64126
5.64078
5.63926
5.63638
5.63319
5.62939
5.62522
5.61967
5.6137
5.6075
5.60192
1.40001
1.40001
1.40001
1.40001
1.40001
1.40001
1.40001
1.40001
1.40001
1.40001
1.40001
1.40001
1.40001
1.40001
1.40001
1.40001
1.40001
1.40001
1.40001
1.40001
1.40001
1.40001
1.40001
1.40001
1.40001
1.40001
1.40001
1.40001
1.40001
1.40001
1.40001
1.40001
1.40001
1.40001
1.40001
1.40001
1.40001
1.40001
1.40001
1.40001
1.40001
1.40001
1.40001
1.40001
1.40001
1.40001
1.40001
1.40001
1.40001
1.40001
1.4418
3.9541
5.38032
5.39216
5.39937
5.41094
5.42245
5.43442
5.44642
5.45813
5.46928
5.47931
5.48821
5.49669
5.50483
5.51323
5.52263
5.53223
5.54115
5.54884
5.55416
5.55736
5.55954
5.56199
5.56575
5.57041
5.57475
5.57754
5.57837
5.57693
5.57332
5.56793
5.56159
5.55559
5.54971
5.54301
5.53447
5.52339
5.50972
5.49403
5.47686
5.45915
5.4444
5.43244
5.42794
5.42657
1.40001
1.40001
1.40001
1.40001
1.40001
1.40001
1.40001
1.40001
1.40001
1.40001
1.40001
1.40001
1.40001
1.40001
1.40001
1.40001
1.40001
1.40001
1.40001
1.40001
1.40001
1.40001
1.40001
1.40001
1.40001
1.40001
1.40001
1.40001
1.40001
1.40001
1.40001
1.40001
1.40001
1.40001
1.40001
1.40001
1.40001
1.40001
1.40001
1.40001
1.40001
1.40001
1.40001
1.40001
1.40001
1.40001
1.40001
1.40001
1.40001
1.40001
1.40006
2.58795
5.05151
5.35053
5.35573
5.37262
5.38636
5.40017
5.41315
5.42528
5.4363
5.44578
5.45372
5.46046
5.46636
5.47212
5.47889
5.48672
5.49479
5.50199
5.50676
5.50817
5.50719
5.50518
5.504
5.50447
5.5058
5.50656
5.50544
5.50148
5.49385
5.48248
5.46891
5.45452
5.43956
5.42306
5.40381
5.38148
5.35688
5.33156
5.30617
5.28042
5.24704
5.20806
5.1519
5.17176
1.40001
1.40001
1.40001
1.40001
1.40001
1.40001
1.40001
1.40001
1.40001
1.40001
1.40001
1.40001
1.40001
1.40001
1.40001
1.40001
1.40001
1.40001
1.40001
1.40001
1.40001
1.40001
1.40001
1.40001
1.40001
1.40001
1.40001
1.40001
1.40001
1.40001
1.40001
1.40001
1.40001
1.40001
1.40001
1.40001
1.40001
1.40001
1.40001
1.40001
1.40001
1.40001
1.40001
1.40001
1.40001
1.40001
1.40001
1.40001
1.40001
1.40001
1.40001
1.51981
4.31895
5.38701
5.36958
5.37635
5.38289
5.3903
5.39792
5.40574
5.4137
5.42103
5.427
5.43103
5.43347
5.43553
5.43869
5.44373
5.45004
5.45618
5.46003
5.46042
5.4573
5.45154
5.44538
5.44095
5.43841
5.43607
5.43208
5.42478
5.41313
5.39674
5.37641
5.35359
5.32891
5.30134
5.26864
5.22942
5.18211
5.12661
5.05593
4.96263
4.81848
4.59179
4.18248
3.27896
1.40001
1.40001
1.40001
1.40001
1.40001
1.40001
1.40001
1.40001
1.40001
1.40001
1.40001
1.40001
1.40001
1.40001
1.40001
1.40001
1.40001
1.40001
1.40001
1.40001
1.40001
1.40001
1.40001
1.40001
1.40001
1.40001
1.40001
1.40001
1.40001
1.40001
1.40001
1.40001
1.40001
1.40001
1.40001
1.40001
1.40001
1.40001
1.40001
1.40001
1.40001
1.40001
1.40001
1.40001
1.40001
1.40001
1.40001
1.40001
1.40001
1.40001
1.40001
1.40067
3.17846
5.20516
5.31702
5.33583
5.34697
5.35778
5.36791
5.37684
5.38504
5.39215
5.39744
5.40093
5.40279
5.40345
5.40379
5.40499
5.40774
5.41168
5.41476
5.41543
5.41184
5.40371
5.39397
5.3852
5.37828
5.37206
5.36453
5.35416
5.33948
5.31927
5.29336
5.26307
5.22915
5.1912
5.14563
5.09043
5.02043
4.93703
4.82888
4.69299
4.49203
4.21854
3.68855
2.91745
1.40001
1.40001
1.40001
1.40001
1.40001
1.40001
1.40001
1.40001
1.40001
1.40001
1.40001
1.40001
1.40001
1.40001
1.40001
1.40001
1.40001
1.40001
1.40001
1.40001
1.40001
1.40001
1.40001
1.40001
1.40001
1.40001
1.40001
1.40001
1.40001
1.40001
1.40001
1.40001
1.40001
1.40001
1.40001
1.40001
1.40001
1.40001
1.40001
1.40001
1.40001
1.40001
1.40001
1.40001
1.40001
1.40001
1.40001
1.40001
1.40001
1.40001
1.40001
1.4
1.92944
4.73098
5.33435
5.32459
5.3319
5.3422
5.35279
5.36054
5.36664
5.37158
5.37519
5.37722
5.37811
5.37748
5.37567
5.37369
5.37278
5.37286
5.37272
5.37114
5.36583
5.35547
5.34293
5.33029
5.31854
5.30718
5.2949
5.28041
5.26199
5.23808
5.20712
5.16997
5.12672
5.0783
5.02073
4.95178
4.86486
4.75954
4.62927
4.46384
4.24783
3.93833
3.48974
2.98455
1.40001
1.40001
1.40001
1.40001
1.40001
1.40001
1.40001
1.40001
1.40001
1.40001
1.40001
1.40001
1.40001
1.40001
1.40001
1.40001
1.40001
1.40001
1.40001
1.40001
1.40001
1.40001
1.40001
1.40001
1.40001
1.40001
1.40001
1.40001
1.40001
1.40001
1.40001
1.40001
1.40001
1.40001
1.40001
1.40001
1.40001
1.40001
1.40001
1.40001
1.40001
1.40001
1.40001
1.40001
1.40001
1.40001
1.40001
1.40001
1.40001
1.40001
1.40001
1.4
1.421
3.53875
5.2421
5.29835
5.31147
5.3233
5.33566
5.34398
5.34944
5.3527
5.35415
5.35226
5.34976
5.34699
5.34409
5.34115
5.33834
5.33525
5.3311
5.32579
5.31792
5.30563
5.29078
5.27476
5.25836
5.24175
5.22413
5.20471
5.18164
5.15377
5.11859
5.07627
5.02581
4.96852
4.90153
4.82234
4.7257
4.60841
4.46739
4.29197
4.07371
3.79665
3.45396
3.08074
1.40001
1.40001
1.40001
1.40001
1.40001
1.40001
1.40001
1.40001
1.40001
1.40001
1.40001
1.40001
1.40001
1.40001
1.40001
1.40001
1.40001
1.40001
1.40001
1.40001
1.40001
1.40001
1.40001
1.40001
1.40001
1.40001
1.40001
1.40001
1.40001
1.40001
1.40001
1.40001
1.40001
1.40001
1.40001
1.40001
1.40001
1.40001
1.40001
1.40001
1.40001
1.40001
1.40001
1.40001
1.40001
1.40001
1.40001
1.40001
1.40001
1.40001
1.40001
1.40001
1.39999
2.09184
4.81672
5.29203
5.29329
5.30526
5.31691
5.32648
5.33234
5.33509
5.33498
5.32929
5.3228
5.31795
5.3142
5.31109
5.30742
5.30195
5.29383
5.28393
5.27209
5.25715
5.24004
5.22139
5.20121
5.17996
5.15694
5.13193
5.10329
5.07055
5.0313
4.9851
4.93027
4.86702
4.79371
4.7081
4.607
4.48647
4.34676
4.17368
3.9715
3.73752
3.47222
3.17445
1.40001
1.40001
1.40001
1.40001
1.40001
1.40001
1.40001
1.40001
1.40001
1.40001
1.40001
1.40001
1.40001
1.40001
1.40001
1.40001
1.40001
1.40001
1.40001
1.40001
1.40001
1.40001
1.40001
1.40001
1.40001
1.40001
1.40001
1.40001
1.40001
1.40001
1.40001
1.40001
1.40001
1.40001
1.40001
1.40001
1.40001
1.40001
1.40001
1.40001
1.40001
1.40001
1.40001
1.40001
1.40001
1.40001
1.40001
1.40001
1.40001
1.40001
1.40001
1.40001
1.4
1.4342
3.59002
5.20821
5.27101
5.28583
5.29467
5.30318
5.30878
5.31238
5.31359
5.30782
5.29921
5.29254
5.28732
5.28273
5.27694
5.26859
5.25684
5.24308
5.22799
5.211
5.19193
5.17099
5.14736
5.12193
5.09423
5.06403
5.02993
4.99155
4.94758
4.89767
4.84013
4.77408
4.69784
4.60982
4.50837
4.38988
4.25669
4.09622
3.91751
3.72232
3.50413
3.26544
1.40001
1.40001
1.40001
1.40001
1.40001
1.40001
1.40001
1.40001
1.40001
1.40001
1.40001
1.40001
1.40001
1.40001
1.40001
1.40001
1.40001
1.40001
1.40001
1.40001
1.40001
1.40001
1.40001
1.40001
1.40001
1.40001
1.40001
1.40001
1.40001
1.40001
1.40001
1.40001
1.40001
1.40001
1.40001
1.40001
1.40001
1.40001
1.40001
1.40001
1.40001
1.40001
1.40001
1.40001
1.40001
1.40001
1.40001
1.40001
1.40001
1.40001
1.40001
1.40001
1.4
1.40002
2.01468
4.75223
5.26367
5.26702
5.27437
5.27783
5.27982
5.28134
5.27981
5.27364
5.26685
5.2629
5.25965
5.25498
5.24742
5.23604
5.22032
5.20227
5.18355
5.16462
5.14435
5.12236
5.09683
5.06838
5.03705
5.0025
4.96367
4.91995
4.87127
4.81808
4.75898
4.69228
4.61586
4.52822
4.42954
4.31433
4.18981
4.0457
3.88919
3.72369
3.53724
3.3419
1.40001
1.40001
1.40001
1.40001
1.40001
1.40001
1.40001
1.40001
1.40001
1.40001
1.40001
1.40001
1.40001
1.40001
1.40001
1.40001
1.40001
1.40001
1.40001
1.40001
1.40001
1.40001
1.40001
1.40001
1.40001
1.40001
1.40001
1.40001
1.40001
1.40001
1.40001
1.40001
1.40001
1.40001
1.40001
1.40001
1.40001
1.40001
1.40001
1.40001
1.40001
1.40001
1.40001
1.40001
1.40001
1.40001
1.40001
1.40001
1.40001
1.40001
1.40001
1.40001
1.40001
1.40001
1.42461
3.35412
5.12113
5.24104
5.24144
5.24651
5.25069
5.25442
5.25208
5.24505
5.23797
5.234
5.23087
5.22595
5.21753
5.20429
5.18626
5.16506
5.143
5.12174
5.09985
5.07687
5.05014
5.01937
4.98505
4.94724
4.90488
4.85698
4.80414
4.74777
4.68702
4.62008
4.5453
4.45964
4.36592
4.255
4.14057
4.01021
3.87385
3.72847
3.57044
3.40435
1.40001
1.40001
1.40001
1.40001
1.40001
1.40001
1.40001
1.40001
1.40001
1.40001
1.40001
1.40001
1.40001
1.40001
1.40001
1.40001
1.40001
1.40001
1.40001
1.40001
1.40001
1.40001
1.40001
1.40001
1.40001
1.40001
1.40001
1.40001
1.40001
1.40001
1.40001
1.40001
1.40001
1.40001
1.40001
1.40001
1.40001
1.40001
1.40001
1.40001
1.40001
1.40001
1.40001
1.40001
1.40001
1.40001
1.40001
1.40001
1.40001
1.40001
1.40001
1.40001
1.40001
1.40001
1.40002
1.72078
4.49969
5.26468
5.24821
5.2423
5.23295
5.22831
5.22072
5.21218
5.2051
5.19994
5.19566
5.19001
5.18093
5.16769
5.14974
5.12675
5.10271
5.07914
5.05521
5.03143
5.00439
4.97257
4.93637
4.89661
4.8524
4.80242
4.74714
4.68885
4.62703
4.56003
4.48751
4.40425
4.31457
4.21041
4.10508
3.98591
3.86569
3.73384
3.59877
3.45258
1.40001
1.40001
1.40001
1.40001
1.40001
1.40001
1.40001
1.40001
1.40001
1.40001
1.40001
1.40001
1.40001
1.40001
1.40001
1.40001
1.40001
1.40001
1.40001
1.40001
1.40001
1.40001
1.40001
1.40001
1.40001
1.40001
1.40001
1.40001
1.40001
1.40001
1.40001
1.40001
1.40001
1.40001
1.40001
1.40001
1.40001
1.40001
1.40001
1.40001
1.40001
1.40001
1.40001
1.40001
1.40001
1.40001
1.40001
1.40001
1.40001
1.40001
1.40001
1.40001
1.40001
1.40001
1.40001
1.40569
2.91903
5.00586
5.19857
5.20252
5.20269
5.19694
5.18742
5.17715
5.16908
5.16228
5.15599
5.14883
5.13905
5.12678
5.11075
5.08817
5.06385
5.03918
5.01334
4.98834
4.96062
4.92829
4.89104
4.84988
4.80463
4.75418
4.69858
4.63968
4.57741
4.51016
4.43907
4.35862
4.27242
4.17714
4.07886
3.97123
3.8624
3.74251
3.6249
3.49423
1.40001
1.40001
1.40001
1.40001
1.40001
1.40001
1.40001
1.40001
1.40001
1.40001
1.40001
1.40001
1.40001
1.40001
1.40001
1.40001
1.40001
1.40001
1.40001
1.40001
1.40001
1.40001
1.40001
1.40001
1.40001
1.40001
1.40001
1.40001
1.40001
1.40001
1.40001
1.40001
1.40001
1.40001
1.40001
1.40001
1.40001
1.40001
1.40001
1.40001
1.40001
1.40001
1.40001
1.40001
1.40001
1.40001
1.40001
1.40001
1.40001
1.40001
1.40001
1.40001
1.40001
1.40001
1.40001
1.40001
1.5511
3.94419
5.18091
5.18875
5.18702
5.17466
5.16394
5.15308
5.14398
5.13576
5.12673
5.11684
5.1049
5.09168
5.07632
5.05374
5.02902
5.00322
4.97536
4.94836
4.91907
4.88627
4.84893
4.80665
4.76074
4.71123
4.6579
4.59917
4.53741
4.47023
4.4001
4.32256
4.24003
4.15304
4.06042
3.96281
3.86227
3.75582
3.64883
3.52996
1.40001
1.40001
1.40001
1.40001
1.40001
1.40001
1.40001
1.40001
1.40001
1.40001
1.40001
1.40001
1.40001
1.40001
1.40001
1.40001
1.40001
1.40001
1.40001
1.40001
1.40001
1.40001
1.40001
1.40001
1.40001
1.40001
1.40001
1.40001
1.40001
1.40001
1.40001
1.40001
1.40001
1.40001
1.40001
1.40001
1.40001
1.40001
1.40001
1.40001
1.40001
1.40001
1.40001
1.40001
1.40001
1.40001
1.40001
1.40001
1.40001
1.40001
1.40001
1.40001
1.40001
1.40001
1.40001
1.40001
1.40113
2.06993
4.73325
5.19622
5.15687
5.15234
5.14204
5.13165
5.12173
5.11235
5.10106
5.08786
5.07274
5.05655
5.04035
5.01768
4.9927
4.96625
4.93752
4.90874
4.87812
4.84507
4.80799
4.76592
4.7193
4.67235
4.62014
4.56295
4.50277
4.43695
4.36841
4.294
4.21619
4.13512
4.04748
3.959
3.86614
3.77109
3.67134
3.56347
1.40001
1.40001
1.40001
1.40001
1.40001
1.40001
1.40001
1.40001
1.40001
1.40001
1.40001
1.40001
1.40001
1.40001
1.40001
1.40001
1.40001
1.40001
1.40001
1.40001
1.40001
1.40001
1.40001
1.40001
1.40001
1.40001
1.40001
1.40001
1.40001
1.40001
1.40001
1.40001
1.40001
1.40001
1.40001
1.40001
1.40001
1.40001
1.40001
1.40001
1.40001
1.40001
1.40001
1.40001
1.40001
1.40001
1.40001
1.40001
1.40001
1.40001
1.40001
1.40001
1.40001
1.40001
1.40001
1.40001
1.40001
1.42631
3.0588
5.04047
5.12913
5.12309
5.12072
5.1134
5.10448
5.09417
5.08166
5.06611
5.04797
5.02778
5.00814
4.98491
4.95852
4.93132
4.9024
4.87246
4.84113
4.80773
4.77125
4.72994
4.68399
4.63605
4.58584
4.53138
4.4733
4.40948
4.34327
4.27198
4.19901
4.12238
4.04067
3.95953
3.87303
3.78541
3.69272
3.59475
1.40001
1.40001
1.40001
1.40001
1.40001
1.40001
1.40001
1.40001
1.40001
1.40001
1.40001
1.40001
1.40001
1.40001
1.40001
1.40001
1.40001
1.40001
1.40001
1.40001
1.40001
1.40001
1.40001
1.40001
1.40001
1.40001
1.40001
1.40001
1.40001
1.40001
1.40001
1.40001
1.40001
1.40001
1.40001
1.40001
1.40001
1.40001
1.40001
1.40001
1.40001
1.40001
1.40001
1.40001
1.40001
1.40001
1.40001
1.40001
1.40001
1.40001
1.40001
1.40001
1.40001
1.40001
1.40001
1.40001
1.40001
1.40006
1.56882
3.75852
5.08962
5.12705
5.11447
5.10767
5.09704
5.08345
5.06821
5.0506
5.02988
5.00568
4.98171
4.95701
4.92923
4.90077
4.87133
4.84063
4.8085
4.7743
4.73795
4.6962
4.6513
4.60363
4.55426
4.50211
4.44692
4.38572
4.3225
4.25492
4.18565
4.11416
4.0381
3.96222
3.88127
3.79898
3.71271
3.62267
1.40001
1.40001
1.40001
1.40001
1.40001
1.40001
1.40001
1.40001
1.40001
1.40001
1.40001
1.40001
1.40001
1.40001
1.40001
1.40001
1.40001
1.40001
1.40001
1.40001
1.40001
1.40001
1.40001
1.40001
1.40001
1.40001
1.40001
1.40001
1.40001
1.40001
1.40001
1.40001
1.40001
1.40001
1.40001
1.40001
1.40001
1.40001
1.40001
1.40001
1.40001
1.40001
1.40001
1.40001
1.40001
1.40001
1.40001
1.40001
1.40001
1.40001
1.40001
1.40001
1.40001
1.40001
1.40001
1.40001
1.40001
1.40001
1.40149
1.78603
4.45915
5.16352
5.13003
5.1103
5.08743
5.06784
5.04938
5.03104
5.01004
4.98355
4.95674
4.9304
4.90206
4.87255
4.84257
4.81195
4.77918
4.74485
4.70761
4.6666
4.62269
4.57608
4.52709
4.47637
4.42377
4.36514
4.30485
4.24174
4.17647
4.11035
4.03933
3.96742
3.89076
3.81249
3.73139
3.64813
1.40001
1.40001
1.40001
1.40001
1.40001
1.40001
1.40001
1.40001
1.40001
1.40001
1.40001
1.40001
1.40001
1.40001
1.40001
1.40001
1.40001
1.40001
1.40001
1.40001
1.40001
1.40001
1.40001
1.40001
1.40001
1.40001
1.40001
1.40001
1.40001
1.40001
1.40001
1.40001
1.40001
1.40001
1.40001
1.40001
1.40001
1.40001
1.40001
1.40001
1.40001
1.40001
1.40001
1.40001
1.40001
1.40001
1.40001
1.40001
1.40001
1.40001
1.40001
1.40001
1.40001
1.40001
1.40001
1.40001
1.40001
1.40001
1.40001
1.40808
2.53414
4.88584
5.10442
5.07307
5.05366
5.03692
5.0215
5.00479
4.98561
4.96099
4.93542
4.90908
4.88078
4.85112
4.81939
4.78751
4.75435
4.71949
4.68212
4.64187
4.59966
4.55406
4.50575
4.45543
4.40406
4.34755
4.28946
4.2303
4.16928
4.10798
4.04183
3.97355
3.90101
3.82603
3.74946
3.67247
1.40001
1.40001
1.40001
1.40001
1.40001
1.40001
1.40001
1.40001
1.40001
1.40001
1.40001
1.40001
1.40001
1.40001
1.40001
1.40001
1.40001
1.40001
1.40001
1.40001
1.40001
1.40001
1.40001
1.40001
1.40001
1.40001
1.40001
1.40001
1.40001
1.40001
1.40001
1.40001
1.40001
1.40001
1.40001
1.40001
1.40001
1.40001
1.40001
1.40001
1.40001
1.40001
1.40001
1.40001
1.40001
1.40001
1.40001
1.40001
1.40001
1.40001
1.40001
1.40001
1.40001
1.40001
1.40001
1.40001
1.40001
1.40001
1.40001
1.40002
1.4746
3.18045
4.98104
5.03877
5.02418
5.02089
5.01088
4.99608
4.97712
4.9538
4.92822
4.9013
4.87143
4.84
4.80678
4.77141
4.73723
4.70208
4.66344
4.62326
4.58096
4.53608
4.48874
4.43916
4.38848
4.3337
4.27773
4.22145
4.164
4.10625
4.0442
3.97938
3.91124
3.83931
3.76725
3.6955
1.40001
1.40001
1.40001
1.40001
1.40001
1.40001
1.40001
1.40001
1.40001
1.40001
1.40001
1.40001
1.40001
1.40001
1.40001
1.40001
1.40001
1.40001
1.40001
1.40001
1.40001
1.40001
1.40001
1.40001
1.40001
1.40001
1.40001
1.40001
1.40001
1.40001
1.40001
1.40001
1.40001
1.40001
1.40001
1.40001
1.40001
1.40001
1.40001
1.40001
1.40001
1.40001
1.40001
1.40001
1.40001
1.40001
1.40001
1.40001
1.40001
1.40001
1.40001
1.40001
1.40001
1.40001
1.40001
1.40001
1.40001
1.40001
1.40001
1.40001
1.40038
1.59435
3.57444
4.98129
5.01052
5.00624
4.99823
4.98413
4.96674
4.94526
4.92126
4.89422
4.86461
4.83259
4.79865
4.76232
4.7249
4.68925
4.6504
4.60999
4.56717
4.52257
4.4759
4.42709
4.37682
4.32337
4.26947
4.21477
4.15966
4.10435
4.04517
3.9835
3.91956
3.85093
3.78356
3.71614
1.40001
1.40001
1.40001
1.40001
1.40001
1.40001
1.40001
1.40001
1.40001
1.40001
1.40001
1.40001
1.40001
1.40001
1.40001
1.40001
1.40001
1.40001
1.40001
1.40001
1.40001
1.40001
1.40001
1.40001
1.40001
1.40001
1.40001
1.40001
1.40001
1.40001
1.40001
1.40001
1.40001
1.40001
1.40001
1.40001
1.40001
1.40001
1.40001
1.40001
1.40001
1.40001
1.40001
1.40001
1.40001
1.40001
1.40001
1.40001
1.40001
1.40001
1.40001
1.40001
1.40001
1.40001
1.40001
1.40001
1.40001
1.40001
1.40001
1.40001
1.40001
1.40211
1.71672
3.88727
5.00895
5.00814
4.99129
4.97345
4.95426
4.93304
4.91012
4.88499
4.85706
4.82577
4.79213
4.75649
4.71927
4.68218
4.64391
4.60317
4.55996
4.5149
4.46805
4.41946
4.36928
4.31696
4.26471
4.21094
4.15674
4.10286
4.0456
3.9871
3.92701
3.86209
3.79891
3.73506
1.40001
1.40001
1.40001
1.40001
1.40001
1.40001
1.40001
1.40001
1.40001
1.40001
1.40001
1.40001
1.40001
1.40001
1.40001
1.40001
1.40001
1.40001
1.40001
1.40001
1.40001
1.40001
1.40001
1.40001
1.40001
1.40001
1.40001
1.40001
1.40001
1.40001
1.40001
1.40001
1.40001
1.40001
1.40001
1.40001
1.40001
1.40001
1.40001
1.40001
1.40001
1.40001
1.40001
1.40001
1.40001
1.40001
1.40001
1.40001
1.40001
1.40001
1.40001
1.40001
1.40001
1.40001
1.40001
1.40001
1.40001
1.40001
1.40001
1.40001
1.40001
1.40001
1.40547
1.84947
4.16596
5.01306
4.99768
4.97385
4.94924
4.92486
4.89935
4.87338
4.8457
4.81585
4.78397
4.74982
4.71414
4.67742
4.63896
4.59805
4.55484
4.50981
4.46303
4.41478
4.36507
4.3139
4.26286
4.21005
4.15656
4.10349
4.0479
3.99252
3.93543
3.87413
3.81421
3.75338
1.40001
1.40001
1.40001
1.40001
1.40001
1.40001
1.40001
1.40001
1.40001
1.40001
1.40001
1.40001
1.40001
1.40001
1.40001
1.40001
1.40001
1.40001
1.40001
1.40001
1.40001
1.40001
1.40001
1.40001
1.40001
1.40001
1.40001
1.40001
1.40001
1.40001
1.40001
1.40001
1.40001
1.40001
1.40001
1.40001
1.40001
1.40001
1.40001
1.40001
1.40001
1.40001
1.40001
1.40001
1.40001
1.40001
1.40001
1.40001
1.40001
1.40001
1.40001
1.40001
1.40001
1.40001
1.40001
1.40001
1.40001
1.40001
1.40001
1.40001
1.40001
1.40001
1.40002
1.41093
1.99868
4.36555
5.02081
4.99463
4.9648
4.93301
4.90316
4.87221
4.84002
4.80848
4.7761
4.74228
4.70762
4.67198
4.63461
4.59486
4.55274
4.50834
4.46195
4.41413
4.36494
4.31481
4.26476
4.21299
4.16056
4.10885
4.05534
4.00234
3.94716
3.88866
3.8307
3.77214
1.40001
1.40001
1.40001
1.40001
1.40001
1.40001
1.40001
1.40001
1.40001
1.40001
1.40001
1.40001
1.40001
1.40001
1.40001
1.40001
1.40001
1.40001
1.40001
1.40001
1.40001
1.40001
1.40001
1.40001
1.40001
1.40001
1.40001
1.40001
1.40001
1.40001
1.40001
1.40001
1.40001
1.40001
1.40001
1.40001
1.40001
1.40001
1.40001
1.40001
1.40001
1.40001
1.40001
1.40001
1.40001
1.40001
1.40001
1.40001
1.40001
1.40001
1.40001
1.40001
1.40001
1.40001
1.40001
1.40001
1.40001
1.40001
1.40001
1.40001
1.40001
1.40001
1.40001
1.40004
1.41937
2.13972
4.52818
5.02186
4.99227
4.95584
4.91779
4.87972
4.84413
4.80891
4.77294
4.73744
4.70222
4.66665
4.62983
4.59093
4.54971
4.50623
4.46078
4.41418
4.36647
4.31797
4.26921
4.21897
4.16809
4.11769
4.06625
4.01481
3.96104
3.90451
3.84785
3.79089
1.40001
1.40001
1.40001
1.40001
1.40001
1.40001
1.40001
1.40001
1.40001
1.40001
1.40001
1.40001
1.40001
1.40001
1.40001
1.40001
1.40001
1.40001
1.40001
1.40001
1.40001
1.40001
1.40001
1.40001
1.40001
1.40001
1.40001
1.40001
1.40001
1.40001
1.40001
1.40001
1.40001
1.40001
1.40001
1.40001
1.40001
1.40001