/*--------------------------------*- C++ -*----------------------------------*\
  =========                 |
  \\      /  F ield         | OpenFOAM: The Open Source CFD Toolbox
   \\    /   O peration     | Website:  https://openfoam.org
    \\  /    A nd           | Version:  7
     \\/     M anipulation  |
\*---------------------------------------------------------------------------*/
FoamFile
{
    version     2.0;
    format      ascii;
    class       volVectorField;
    location    "5.5";
    object      U;
}
// * * * * * * * * * * * * * * * * * * * * * * * * * * * * * * * * * * * * * //

dimensions      [0 1 -1 0 0 0 0];

internalField   nonuniform List<vector> 
19968
(
(3 4.16368e-17 0)
(3 1.4405e-16 0)
(3 2.92876e-16 0)
(3 2.27012e-16 0)
(3 -5.92866e-17 0)
(3 -1.4108e-16 0)
(3 -5.55012e-17 0)
(3 2.52467e-16 0)
(3 7.75096e-16 0)
(3 8.58743e-16 0)
(3 6.84067e-16 0)
(3 7.72012e-16 0)
(3 9.21732e-16 0)
(3 1.01222e-15 0)
(3 7.77877e-16 0)
(3 9.48974e-16 0)
(3 9.21436e-16 0)
(3 5.87508e-16 0)
(3 2.10938e-16 0)
(3 -3.68609e-17 0)
(3 7.99575e-16 0)
(3 9.09588e-16 0)
(3 8.09386e-16 0)
(3 7.44051e-16 0)
(3 3.50616e-16 0)
(3 -5.83594e-17 0)
(3 9.36972e-17 0)
(3 2.54425e-16 0)
(3 5.25683e-16 0)
(3 7.63801e-16 0)
(3 6.97524e-16 0)
(3 7.85541e-16 0)
(3 1.92937e-15 0)
(3 2.17193e-15 0)
(3 1.62297e-15 0)
(3 5.10832e-16 0)
(3 3.24592e-16 0)
(3 7.33346e-16 0)
(3 8.61586e-16 0)
(3 1.2412e-15 0)
(3 1.7447e-15 0)
(3 2.05343e-15 0)
(3 1.54526e-15 0)
(3 1.02247e-15 0)
(3 1.23987e-15 0)
(3 1.4483e-15 0)
(3 1.37398e-15 0)
(3 5.6657e-16 0)
(2.80675 0.00227436 0)
(0.970172 0.00730959 0)
(0.758727 0.00471753 0)
(0.746063 0.00782373 0)
(0.729622 0.00849816 0)
(0.714215 0.0094337 0)
(0.69757 0.0100105 0)
(0.680966 0.00975979 0)
(0.665336 0.00888788 0)
(0.650958 0.00817007 0)
(0.637172 0.00809313 0)
(0.622991 0.00866083 0)
(0.607746 0.0095029 0)
(0.591707 0.00987486 0)
(0.575968 0.0095505 0)
(0.560987 0.00929927 0)
(0.546152 0.00948781 0)
(0.530928 0.00967613 0)
(0.515375 0.00967224 0)
(0.499583 0.00974219 0)
(0.483558 0.00995771 0)
(0.467565 0.0101323 0)
(0.451961 0.0102006 0)
(0.436776 0.0102506 0)
(0.421682 0.010343 0)
(0.406266 0.010467 0)
(0.390235 0.0105879 0)
(0.373567 0.0106861 0)
(0.356539 0.0107751 0)
(0.33949 0.0108781 0)
(0.322591 0.0109976 0)
(0.305826 0.0111228 0)
(0.289108 0.0112504 0)
(0.272368 0.0113832 0)
(0.255584 0.0115218 0)
(0.238766 0.0116652 0)
(0.22189 0.0118154 0)
(0.204855 0.0119757 0)
(0.187518 0.01215 0)
(0.16977 0.012346 0)
(0.151574 0.0125748 0)
(0.132952 0.0128429 0)
(0.113924 0.013154 0)
(0.0944658 0.013496 0)
(0.0744979 0.0138691 0)
(0.0538653 0.0142661 0)
(0.03265 0.0144942 0)
(0.0110134 0.0148045 0)
(3 -1.24974e-16 0)
(3 -1.32489e-16 0)
(3 -1.94865e-17 0)
(3 7.08467e-17 0)
(3 -1.01307e-16 0)
(3 -2.26062e-16 0)
(3 -1.40574e-16 0)
(3 3.62776e-16 0)
(3 9.35087e-16 0)
(3 9.30884e-17 0)
(3 -6.17424e-16 0)
(3 -3.91535e-16 0)
(3 -6.71263e-17 0)
(3 4.64193e-16 0)
(3 5.66571e-16 0)
(3 6.51144e-16 0)
(3 8.69519e-16 0)
(3 5.33909e-16 0)
(3 6.27344e-16 0)
(3 6.41215e-16 0)
(3 1.1538e-15 0)
(3 1.19789e-15 0)
(3 9.66372e-16 0)
(3 -8.20692e-17 0)
(3 -8.30899e-16 0)
(3 -1.54315e-15 0)
(3 -9.6358e-16 0)
(3 -8.7225e-16 0)
(3 4.03729e-16 0)
(3 1.31079e-15 0)
(3 1.55185e-15 0)
(3 1.19289e-15 0)
(3 1.59811e-15 0)
(3 1.87591e-15 0)
(3 1.69524e-15 0)
(3 4.18928e-16 0)
(3 -1.18371e-16 0)
(3 3.93525e-16 0)
(3 9.62941e-16 0)
(3 8.85804e-16 0)
(3 9.29221e-16 0)
(3 1.08773e-15 0)
(3 1.54609e-15 0)
(3 1.50138e-15 0)
(3 7.21705e-16 0)
(3 6.68821e-16 0)
(3 6.24549e-16 0)
(3 -1.40376e-17 0)
(2.82101 0.0124057 0)
(0.97541 0.0311839 0)
(0.755832 0.0222728 0)
(0.740336 0.0223111 0)
(0.72466 0.024677 0)
(0.709471 0.027234 0)
(0.693502 0.0289852 0)
(0.677621 0.0287175 0)
(0.662444 0.0268217 0)
(0.648026 0.0250028 0)
(0.633909 0.0246745 0)
(0.619497 0.0261662 0)
(0.604237 0.028511 0)
(0.588257 0.029586 0)
(0.572615 0.0287906 0)
(0.557592 0.0281759 0)
(0.542681 0.0287741 0)
(0.527378 0.0293741 0)
(0.511721 0.0294051 0)
(0.495811 0.0296139 0)
(0.479709 0.0302248 0)
(0.463683 0.0307173 0)
(0.448067 0.030938 0)
(0.432844 0.0311314 0)
(0.417682 0.0314135 0)
(0.402203 0.031744 0)
(0.38614 0.0320717 0)
(0.369466 0.0323757 0)
(0.352431 0.0326825 0)
(0.335361 0.0330303 0)
(0.318435 0.0334111 0)
(0.301648 0.0337935 0)
(0.284923 0.0341764 0)
(0.268191 0.0345796 0)
(0.251425 0.0350102 0)
(0.234627 0.0354607 0)
(0.217779 0.0359279 0)
(0.200796 0.0364181 0)
(0.183562 0.0369482 0)
(0.165987 0.0375528 0)
(0.14804 0.0382759 0)
(0.129725 0.0391363 0)
(0.111045 0.0401274 0)
(0.0919624 0.0411894 0)
(0.0724101 0.0422998 0)
(0.0522799 0.0434441 0)
(0.0316352 0.0440751 0)
(0.0106923 0.044933 0)
(3 -8.93631e-17 0)
(3 -2.45728e-16 0)
(3 -4.70133e-16 0)
(3 -5.58385e-16 0)
(3 -6.28912e-16 0)
(3 -1.15061e-15 0)
(3 -1.50085e-15 0)
(3 -1.23016e-15 0)
(3 -5.87389e-16 0)
(3 -8.59682e-16 0)
(3 -1.07207e-15 0)
(3 -9.45e-16 0)
(3 -5.1908e-16 0)
(3 -1.65502e-16 0)
(3 -7.99821e-17 0)
(3 4.8987e-16 0)
(3 9.47795e-16 0)
(3 1.10009e-15 0)
(3 1.02496e-15 0)
(3 1.575e-15 0)
(3 1.53828e-15 0)
(3 1.22619e-15 0)
(3 1.05679e-15 0)
(3 4.44245e-16 0)
(3 -8.53415e-16 0)
(3 -1.39283e-15 0)
(3 -1.14205e-15 0)
(3 -5.3909e-16 0)
(3 5.57422e-16 0)
(3 6.4009e-16 0)
(3 5.56021e-16 0)
(3 2.49875e-16 0)
(3 1.74522e-16 0)
(3 3.05092e-16 0)
(3 1.03307e-15 0)
(3 1.37352e-15 0)
(3 -7.20777e-16 0)
(3 -1.11302e-15 0)
(3 -3.67731e-16 0)
(3 1.09431e-16 0)
(3 8.39785e-16 0)
(3 1.14383e-15 0)
(3 1.64374e-15 0)
(3 2.51979e-15 0)
(3 1.99454e-15 0)
(3 2.67322e-16 0)
(3 -1.53351e-16 0)
(3 1.66553e-17 0)
(2.8548 0.0197875 0)
(0.991643 0.051604 0)
(0.760825 0.0401115 0)
(0.744446 0.0403642 0)
(0.727465 0.0430801 0)
(0.711732 0.046598 0)
(0.695767 0.0488156 0)
(0.680113 0.0483153 0)
(0.665054 0.0457998 0)
(0.650331 0.0434283 0)
(0.63559 0.0430662 0)
(0.620663 0.0453506 0)
(0.605196 0.0489081 0)
(0.589098 0.050474 0)
(0.573428 0.0492063 0)
(0.558251 0.048315 0)
(0.543192 0.0493527 0)
(0.527746 0.0504249 0)
(0.511894 0.050584 0)
(0.495746 0.0509741 0)
(0.479418 0.0519363 0)
(0.463189 0.0526694 0)
(0.447377 0.0530082 0)
(0.431945 0.0533801 0)
(0.416565 0.0539067 0)
(0.400893 0.0544719 0)
(0.384681 0.0550124 0)
(0.367883 0.0555218 0)
(0.350704 0.0560355 0)
(0.333451 0.0566024 0)
(0.316322 0.0572156 0)
(0.299345 0.0578346 0)
(0.28246 0.0584573 0)
(0.265598 0.059107 0)
(0.248717 0.0597868 0)
(0.231805 0.0604811 0)
(0.214846 0.0611917 0)
(0.197792 0.0619416 0)
(0.180564 0.0627683 0)
(0.163095 0.0637261 0)
(0.145343 0.0648771 0)
(0.127275 0.0662407 0)
(0.108851 0.0678041 0)
(0.090018 0.0694839 0)
(0.0707356 0.0712499 0)
(0.0509739 0.073104 0)
(0.0307654 0.0741369 0)
(0.0104348 0.0755474 0)
(3 2.4417e-16 0)
(3 2.56835e-16 0)
(3 2.3096e-16 0)
(3 1.47363e-16 0)
(3 -4.31085e-16 0)
(3 -6.13228e-16 0)
(3 -6.59653e-16 0)
(3 -5.87124e-16 0)
(3 -5.77168e-16 0)
(3 1.47564e-17 0)
(3 1.12199e-15 0)
(3 1.14e-15 0)
(3 1.0027e-15 0)
(3 1.21493e-15 0)
(3 1.04291e-15 0)
(3 9.81626e-16 0)
(3 1.09166e-15 0)
(3 1.28738e-15 0)
(3 5.20722e-16 0)
(3 6.73605e-16 0)
(3 5.78514e-16 0)
(3 6.13238e-16 0)
(3 5.59744e-16 0)
(3 7.35871e-16 0)
(3 1.06497e-15 0)
(3 1.45464e-15 0)
(3 1.4193e-15 0)
(3 1.24911e-15 0)
(3 8.46553e-16 0)
(3 4.8637e-16 0)
(3 7.03105e-17 0)
(3 2.7148e-16 0)
(3 5.20557e-16 0)
(3 1.27315e-16 0)
(3 -4.28168e-16 0)
(3 -7.72585e-16 0)
(3 -7.35611e-16 0)
(3 -1.1044e-15 0)
(3 -9.4324e-16 0)
(3 1.48152e-16 0)
(3 1.97897e-15 0)
(3 3.21176e-15 0)
(3 3.15249e-15 0)
(3 3.03399e-15 0)
(3 2.32928e-15 0)
(3 1.30605e-15 0)
(3 1.0676e-15 0)
(3 1.15521e-15 0)
(2.89901 0.0238866 0)
(1.0142 0.0705554 0)
(0.76215 0.0579616 0)
(0.745898 0.0594655 0)
(0.729167 0.0624251 0)
(0.713778 0.0662032 0)
(0.698469 0.0684735 0)
(0.683453 0.0679141 0)
(0.66874 0.0653758 0)
(0.653939 0.0630796 0)
(0.638776 0.0629311 0)
(0.623449 0.0658586 0)
(0.607865 0.0702211 0)
(0.591759 0.072067 0)
(0.576155 0.0704172 0)
(0.560936 0.06933 0)
(0.54592 0.070796 0)
(0.530571 0.0724174 0)
(0.514749 0.0728598 0)
(0.498557 0.0735363 0)
(0.482144 0.0748634 0)
(0.465783 0.0758162 0)
(0.449787 0.0762945 0)
(0.434107 0.0769346 0)
(0.418436 0.0778073 0)
(0.402463 0.0786678 0)
(0.385973 0.0794559 0)
(0.368901 0.0802105 0)
(0.351401 0.0809738 0)
(0.33376 0.0817915 0)
(0.316195 0.0826574 0)
(0.298769 0.0835223 0)
(0.281445 0.084374 0)
(0.264157 0.0852306 0)
(0.246853 0.0860893 0)
(0.229521 0.0869321 0)
(0.212177 0.0877774 0)
(0.194831 0.088682 0)
(0.177472 0.0897169 0)
(0.160063 0.090958 0)
(0.142542 0.0924804 0)
(0.124815 0.0942992 0)
(0.106768 0.0963974 0)
(0.0882956 0.0986823 0)
(0.0693467 0.101105 0)
(0.049957 0.103698 0)
(0.0301016 0.105182 0)
(0.0102937 0.107187 0)
(3 -8.61737e-17 0)
(3 -3.81768e-17 0)
(3 -1.65179e-17 0)
(3 2.43431e-16 0)
(3 3.31863e-16 0)
(3 6.48294e-16 0)
(3 6.68452e-16 0)
(3 1.92296e-17 0)
(3 -6.21536e-16 0)
(3 -3.77467e-16 0)
(3 9.62904e-16 0)
(3 2.09014e-15 0)
(3 2.05151e-15 0)
(3 1.61913e-15 0)
(3 1.53788e-15 0)
(3 1.19298e-15 0)
(3 3.00424e-16 0)
(3 1.65676e-16 0)
(3 1.66557e-16 0)
(3 2.4756e-16 0)
(3 1.28759e-16 0)
(3 -4.0266e-16 0)
(3 -5.38568e-16 0)
(3 -9.66993e-17 0)
(3 6.28451e-16 0)
(3 9.03384e-16 0)
(3 4.08383e-16 0)
(3 -1.01629e-16 0)
(3 -2.02653e-16 0)
(3 -8.88667e-17 0)
(3 2.45435e-18 0)
(3 -1.61414e-16 0)
(3 -1.18158e-16 0)
(3 -4.39445e-16 0)
(3 -1.47904e-15 0)
(3 -2.62407e-15 0)
(3 -1.21315e-15 0)
(3 -9.39815e-16 0)
(3 -1.09351e-15 0)
(3 -2.91399e-16 0)
(3 1.17548e-15 0)
(3 1.13732e-15 0)
(3 1.64408e-15 0)
(3 2.02794e-15 0)
(3 2.46831e-15 0)
(3 2.58542e-15 0)
(3 1.84762e-15 0)
(3 1.30083e-15 0)
(2.94728 0.0282099 0)
(1.04141 0.0956509 0)
(0.765469 0.0764343 0)
(0.74932 0.079905 0)
(0.732584 0.0831052 0)
(0.717101 0.0864659 0)
(0.702121 0.0883033 0)
(0.687605 0.087731 0)
(0.673334 0.0855807 0)
(0.658822 0.0838383 0)
(0.643803 0.0842023 0)
(0.628626 0.0876006 0)
(0.613376 0.0923672 0)
(0.597608 0.0943455 0)
(0.582199 0.0925119 0)
(0.566978 0.0912818 0)
(0.552054 0.0930649 0)
(0.536941 0.0952528 0)
(0.521323 0.0961538 0)
(0.505263 0.0972878 0)
(0.488902 0.0990733 0)
(0.472492 0.100291 0)
(0.45636 0.100977 0)
(0.44047 0.102027 0)
(0.424527 0.103422 0)
(0.408247 0.10472 0)
(0.391464 0.105869 0)
(0.374105 0.106991 0)
(0.356268 0.108135 0)
(0.338197 0.109321 0)
(0.320115 0.11054 0)
(0.30211 0.111734 0)
(0.284156 0.112871 0)
(0.26618 0.113952 0)
(0.248115 0.114962 0)
(0.229952 0.115873 0)
(0.211748 0.116719 0)
(0.193593 0.117591 0)
(0.175559 0.118599 0)
(0.157657 0.11985 0)
(0.139835 0.121453 0)
(0.121983 0.12345 0)
(0.103973 0.12585 0)
(0.085684 0.128595 0)
(0.0670574 0.13161 0)
(0.048182 0.134973 0)
(0.0289258 0.136997 0)
(0.00996988 0.139671 0)
(3 9.40349e-18 0)
(3 7.74232e-17 0)
(3 5.06946e-16 0)
(3 7.9232e-16 0)
(3 9.28654e-16 0)
(3 9.1593e-16 0)
(3 6.35441e-16 0)
(3 3.53244e-16 0)
(3 -7.62455e-18 0)
(3 1.18724e-17 0)
(3 2.04877e-16 0)
(3 7.08707e-16 0)
(3 9.34466e-16 0)
(3 1.15148e-15 0)
(3 9.59709e-16 0)
(3 6.82002e-16 0)
(3 -6.02869e-16 0)
(3 -1.16537e-15 0)
(3 -2.62892e-16 0)
(3 3.91993e-16 0)
(3 3.54369e-16 0)
(3 -2.03657e-17 0)
(3 -7.64658e-16 0)
(3 -1.139e-15 0)
(3 -1.32115e-15 0)
(3 -1.93396e-15 0)
(3 -1.95401e-15 0)
(3 -1.2628e-15 0)
(3 -1.0173e-15 0)
(3 -5.25541e-16 0)
(3 -7.05071e-17 0)
(3 4.8321e-17 0)
(3 -2.86698e-16 0)
(3 -5.74353e-16 0)
(3 -1.13631e-15 0)
(3 -1.38043e-15 0)
(3 -1.31374e-15 0)
(3 -1.03841e-15 0)
(3 -8.70756e-16 0)
(3 -3.55892e-16 0)
(3 1.29035e-16 0)
(3 6.73926e-17 0)
(3 3.9167e-16 0)
(3 5.40172e-16 0)
(3 1.39171e-15 0)
(3 1.26261e-15 0)
(3 1.17384e-15 0)
(3 2.43771e-16 0)
(3.00075 0.00315003 0)
(1.11392 0.111626 0)
(0.775572 0.0902132 0)
(0.759369 0.0999731 0)
(0.742748 0.104269 0)
(0.72668 0.106989 0)
(0.711307 0.108039 0)
(0.696677 0.107154 0)
(0.68255 0.105299 0)
(0.668364 0.104272 0)
(0.653754 0.105263 0)
(0.63897 0.108985 0)
(0.624149 0.113927 0)
(0.608715 0.116251 0)
(0.593346 0.114675 0)
(0.578043 0.113362 0)
(0.563154 0.115158 0)
(0.548363 0.117687 0)
(0.533128 0.119089 0)
(0.517407 0.120829 0)
(0.501287 0.12321 0)
(0.484981 0.124754 0)
(0.468877 0.125657 0)
(0.452976 0.127189 0)
(0.436988 0.129269 0)
(0.420618 0.131167 0)
(0.403758 0.132802 0)
(0.386354 0.134426 0)
(0.368451 0.136108 0)
(0.350226 0.13783 0)
(0.331878 0.139579 0)
(0.313492 0.141301 0)
(0.295046 0.142939 0)
(0.276457 0.144464 0)
(0.257646 0.145841 0)
(0.238604 0.14703 0)
(0.219419 0.148068 0)
(0.200236 0.149066 0)
(0.181175 0.150145 0)
(0.162276 0.151413 0)
(0.1435 0.152997 0)
(0.124758 0.154978 0)
(0.105949 0.157406 0)
(0.0869851 0.160314 0)
(0.0678182 0.163633 0)
(0.0485955 0.167559 0)
(0.029079 0.170029 0)
(0.0100982 0.173282 0)
(3 1.42534e-16 0)
(3 3.10819e-16 0)
(3 8.55002e-16 0)
(3 1.11745e-15 0)
(3 1.18036e-15 0)
(3 9.02492e-16 0)
(3 5.91915e-16 0)
(3 9.59043e-16 0)
(3 1.0224e-15 0)
(3 5.42268e-16 0)
(3 -5.17135e-16 0)
(3 -9.94643e-16 0)
(3 -8.8834e-16 0)
(3 -8.44035e-17 0)
(3 3.13816e-16 0)
(3 7.80513e-16 0)
(3 -2.40183e-16 0)
(3 -3.06477e-16 0)
(3 -1.90247e-16 0)
(3 -1.71612e-16 0)
(3 3.34548e-17 0)
(3 -8.27712e-17 0)
(3 -5.49923e-16 0)
(3 -1.62593e-15 0)
(3 -2.53787e-15 0)
(3 -2.17966e-15 0)
(3 -1.3635e-15 0)
(3 -6.99572e-16 0)
(3 -8.726e-17 0)
(3 1.35437e-16 0)
(3 -3.69067e-16 0)
(3 -1.64956e-15 0)
(3 -2.1448e-15 0)
(3 -2.36143e-15 0)
(3 -2.42373e-15 0)
(3 -1.38178e-15 0)
(3 -1.34619e-15 0)
(3 -1.59187e-15 0)
(3 -1.50773e-15 0)
(3 -1.39939e-15 0)
(3 -1.27502e-15 0)
(3 -9.76799e-16 0)
(3 -1.13991e-15 0)
(3 -1.25682e-15 0)
(3 -3.01427e-16 0)
(3 1.18048e-15 0)
(3 1.92047e-15 0)
(3 6.80853e-16 0)
(3.00003 8.5391e-06 0)
(1.23306 0.134402 0)
(0.77683 0.108809 0)
(0.755848 0.12248 0)
(0.739603 0.128691 0)
(0.723032 0.13095 0)
(0.707238 0.131202 0)
(0.692191 0.129597 0)
(0.677807 0.127426 0)
(0.663623 0.126728 0)
(0.649318 0.128266 0)
(0.634992 0.132333 0)
(0.620764 0.137615 0)
(0.605925 0.1407 0)
(0.590881 0.139767 0)
(0.575825 0.13837 0)
(0.561187 0.139777 0)
(0.546928 0.142324 0)
(0.532349 0.144247 0)
(0.517282 0.146809 0)
(0.501746 0.150018 0)
(0.485871 0.152019 0)
(0.470124 0.153127 0)
(0.454574 0.155108 0)
(0.438959 0.157911 0)
(0.422935 0.160468 0)
(0.406453 0.162623 0)
(0.38952 0.164794 0)
(0.372147 0.167092 0)
(0.354428 0.169422 0)
(0.336496 0.171746 0)
(0.31841 0.174019 0)
(0.300133 0.176169 0)
(0.281582 0.178143 0)
(0.262679 0.179891 0)
(0.243425 0.181366 0)
(0.22393 0.182609 0)
(0.204362 0.183741 0)
(0.184856 0.184885 0)
(0.165456 0.186141 0)
(0.146139 0.187643 0)
(0.126843 0.189506 0)
(0.107504 0.191807 0)
(0.0880734 0.194713 0)
(0.0685158 0.19813 0)
(0.0490501 0.202488 0)
(0.0293146 0.205343 0)
(0.0102475 0.209114 0)
(3 4.80352e-17 0)
(3 3.60627e-17 0)
(3 -4.99739e-16 0)
(3 -7.71355e-16 0)
(3 -2.89398e-16 0)
(3 1.5722e-16 0)
(3 3.72571e-16 0)
(3 1.46568e-16 0)
(3 5.08931e-16 0)
(3 5.64632e-16 0)
(3 3.72416e-16 0)
(3 5.66352e-17 0)
(3 -3.99111e-16 0)
(3 -9.92281e-16 0)
(3 -1.00102e-15 0)
(3 -1.16847e-15 0)
(3 -1.20943e-15 0)
(3 -1.12009e-15 0)
(3 -1.36139e-15 0)
(3 -1.58399e-15 0)
(3 -1.47041e-15 0)
(3 -3.41824e-16 0)
(3 1.83164e-16 0)
(3 -6.23702e-16 0)
(3 -7.67363e-16 0)
(3 -6.03752e-16 0)
(3 -5.75437e-16 0)
(3 -3.62169e-16 0)
(3 1.98767e-16 0)
(3 -7.84449e-16 0)
(3 -1.20075e-15 0)
(3 -1.24007e-15 0)
(3 -1.67145e-15 0)
(3 -2.04897e-15 0)
(3 -2.43491e-15 0)
(3 -2.3022e-15 0)
(3 -1.63463e-15 0)
(3 -4.91247e-16 0)
(3 -8.02029e-16 0)
(3 -9.96775e-16 0)
(3 -1.04122e-15 0)
(3 -9.50962e-16 0)
(3 -6.43365e-16 0)
(3 -1.29976e-16 0)
(3 4.66214e-16 0)
(3 8.0129e-16 0)
(3 1.35323e-15 0)
(3 1.30739e-15 0)
(3 1.83339e-08 0)
(1.43979 0.162916 0)
(0.790773 0.133017 0)
(0.757565 0.146947 0)
(0.741345 0.153852 0)
(0.724196 0.155652 0)
(0.70804 0.155277 0)
(0.692458 0.152979 0)
(0.67746 0.150165 0)
(0.662814 0.149191 0)
(0.648498 0.150797 0)
(0.634531 0.154826 0)
(0.620992 0.16023 0)
(0.606997 0.164089 0)
(0.592443 0.164271 0)
(0.577686 0.163079 0)
(0.563195 0.163805 0)
(0.549296 0.165895 0)
(0.535351 0.168155 0)
(0.521059 0.171601 0)
(0.506327 0.175804 0)
(0.491108 0.178394 0)
(0.475966 0.17963 0)
(0.461042 0.181934 0)
(0.446095 0.185472 0)
(0.430652 0.188827 0)
(0.414684 0.191632 0)
(0.398293 0.194469 0)
(0.38149 0.197544 0)
(0.364289 0.200686 0)
(0.346741 0.203809 0)
(0.328863 0.206886 0)
(0.310603 0.209852 0)
(0.291882 0.212632 0)
(0.27265 0.215149 0)
(0.25294 0.217327 0)
(0.232891 0.219181 0)
(0.212679 0.220813 0)
(0.19243 0.222328 0)
(0.172188 0.223807 0)
(0.151955 0.225374 0)
(0.131714 0.22719 0)
(0.111443 0.229324 0)
(0.0911438 0.232139 0)
(0.0707863 0.23544 0)
(0.0506686 0.240055 0)
(0.0302917 0.243185 0)
(0.0106128 0.247369 0)
(3 -9.43775e-17 0)
(3 -2.19606e-16 0)
(3 -3.94945e-16 0)
(3 -7.32507e-16 0)
(3 -7.16442e-16 0)
(3 -4.12721e-16 0)
(3 -2.22555e-16 0)
(3 -5.08488e-16 0)
(3 -1.00538e-15 0)
(3 -7.73711e-16 0)
(3 -3.96312e-16 0)
(3 -3.31201e-16 0)
(3 -6.29036e-16 0)
(3 -8.07801e-16 0)
(3 -9.03377e-16 0)
(3 -6.73716e-16 0)
(3 6.45395e-16 0)
(3 8.03049e-16 0)
(3 8.6739e-16 0)
(3 5.47849e-16 0)
(3 1.45515e-16 0)
(3 2.95801e-16 0)
(3 8.56281e-16 0)
(3 1.23872e-15 0)
(3 1.32877e-15 0)
(3 1.61169e-15 0)
(3 1.18391e-15 0)
(3 4.95429e-16 0)
(3 -5.0733e-16 0)
(3 -5.07041e-16 0)
(3 -2.04225e-16 0)
(3 -8.93786e-17 0)
(3 -4.63841e-16 0)
(3 -7.14445e-16 0)
(3 -1.39719e-15 0)
(3 -1.42187e-15 0)
(3 -1.25684e-15 0)
(3 -8.23702e-16 0)
(3 -4.71424e-16 0)
(3 -8.36803e-16 0)
(3 -4.10743e-16 0)
(3 -3.47941e-16 0)
(3 -3.9162e-16 0)
(3 -3.92738e-16 0)
(3 -2.26711e-16 0)
(3 -3.14086e-16 0)
(3 -8.42802e-17 0)
(3 4.0717e-16 0)
(3 3.52726e-11 0)
(1.75643 0.1837 0)
(0.817713 0.162025 0)
(0.764063 0.174224 0)
(0.747712 0.180353 0)
(0.730021 0.181488 0)
(0.713418 0.180807 0)
(0.696882 0.178664 0)
(0.680644 0.175627 0)
(0.664758 0.174009 0)
(0.64956 0.174879 0)
(0.635159 0.178125 0)
(0.621631 0.183228 0)
(0.608061 0.187949 0)
(0.593662 0.189807 0)
(0.578777 0.189434 0)
(0.563976 0.189432 0)
(0.549808 0.190509 0)
(0.535926 0.192682 0)
(0.52202 0.196894 0)
(0.507882 0.202189 0)
(0.493181 0.205539 0)
(0.478553 0.206828 0)
(0.464246 0.209284 0)
(0.450106 0.21357 0)
(0.435467 0.217939 0)
(0.420226 0.221588 0)
(0.404626 0.225213 0)
(0.388724 0.229203 0)
(0.372447 0.233341 0)
(0.355734 0.237453 0)
(0.338538 0.24152 0)
(0.320779 0.245499 0)
(0.302373 0.249305 0)
(0.283288 0.252843 0)
(0.263578 0.256004 0)
(0.24339 0.25876 0)
(0.222882 0.261179 0)
(0.202144 0.263335 0)
(0.181208 0.265283 0)
(0.160101 0.267122 0)
(0.138854 0.269053 0)
(0.117485 0.271075 0)
(0.096065 0.273797 0)
(0.0745743 0.276813 0)
(0.0534065 0.281512 0)
(0.031967 0.284805 0)
(0.0111879 0.28932 0)
(3 -1.57499e-17 0)
(3 9.08584e-17 0)
(3 2.27468e-16 0)
(3 5.84706e-17 0)
(3 -6.3675e-16 0)
(3 -1.59906e-15 0)
(3 -1.76148e-15 0)
(3 -1.29439e-15 0)
(3 -1.5723e-15 0)
(3 -2.33075e-15 0)
(3 -2.11446e-15 0)
(3 -1.85551e-15 0)
(3 -8.87466e-16 0)
(3 -4.12234e-16 0)
(3 -3.98673e-16 0)
(3 -5.39685e-17 0)
(3 4.93988e-16 0)
(3 7.85111e-16 0)
(3 3.33016e-16 0)
(3 4.90783e-16 0)
(3 2.74667e-16 0)
(3 9.52313e-17 0)
(3 1.03664e-16 0)
(3 2.37542e-16 0)
(3 2.7459e-16 0)
(3 3.12862e-16 0)
(3 1.59891e-16 0)
(3 8.71871e-17 0)
(3 -1.07912e-16 0)
(3 -1.60365e-16 0)
(3 9.44221e-17 0)
(3 2.12745e-16 0)
(3 3.21896e-16 0)
(3 3.53499e-16 0)
(3 6.7995e-17 0)
(3 -3.18715e-17 0)
(3 5.18959e-16 0)
(3 6.49405e-16 0)
(3 7.33717e-16 0)
(3 3.23728e-16 0)
(3 -8.24465e-16 0)
(3 -1.10492e-15 0)
(3 -1.66129e-15 0)
(3 -1.83974e-15 0)
(3 -1.58049e-15 0)
(3 -1.30651e-15 0)
(3 -6.07777e-16 0)
(3 1.16857e-15 0)
(3 6.70124e-14 0)
(2.18227 0.188299 0)
(0.861078 0.203149 0)
(0.758463 0.201517 0)
(0.745274 0.208292 0)
(0.731074 0.209266 0)
(0.717153 0.209468 0)
(0.702158 0.208256 0)
(0.6865 0.205585 0)
(0.670541 0.203304 0)
(0.655001 0.202756 0)
(0.64029 0.204354 0)
(0.626589 0.208439 0)
(0.613299 0.213755 0)
(0.599084 0.217556 0)
(0.583929 0.21862 0)
(0.568604 0.218176 0)
(0.553776 0.217855 0)
(0.539357 0.219278 0)
(0.525247 0.223756 0)
(0.511209 0.229948 0)
(0.496508 0.23409 0)
(0.481801 0.23523 0)
(0.467452 0.237301 0)
(0.453524 0.241924 0)
(0.439273 0.247238 0)
(0.42438 0.251725 0)
(0.409244 0.256022 0)
(0.394058 0.260837 0)
(0.378698 0.26601 0)
(0.362974 0.271247 0)
(0.346741 0.276498 0)
(0.329851 0.281758 0)
(0.312166 0.286946 0)
(0.293619 0.291948 0)
(0.274251 0.296619 0)
(0.254195 0.300863 0)
(0.233593 0.304668 0)
(0.212524 0.308037 0)
(0.191026 0.310969 0)
(0.169147 0.313505 0)
(0.146955 0.315879 0)
(0.124481 0.317978 0)
(0.101856 0.320679 0)
(0.079073 0.323275 0)
(0.0566253 0.327848 0)
(0.0339192 0.331145 0)
(0.0118222 0.335924 0)
(3 5.47913e-17 0)
(3 1.53526e-16 0)
(3 1.32111e-16 0)
(3 -1.50192e-17 0)
(3 -1.87559e-16 0)
(3 -4.63238e-16 0)
(3 -1.12345e-15 0)
(3 -1.16644e-15 0)
(3 -1.00864e-15 0)
(3 -1.30625e-15 0)
(3 -1.34796e-15 0)
(3 -1.10048e-15 0)
(3 -9.76344e-16 0)
(3 -8.16687e-16 0)
(3 -5.5246e-16 0)
(3 -4.75375e-16 0)
(3 -2.58728e-18 0)
(3 3.29678e-17 0)
(3 -5.51948e-16 0)
(3 -4.94546e-16 0)
(3 -6.56057e-16 0)
(3 -1.06862e-15 0)
(3 -1.28074e-15 0)
(3 -1.20444e-15 0)
(3 -1.08395e-15 0)
(3 -1.32406e-15 0)
(3 -1.36252e-15 0)
(3 -1.12997e-15 0)
(3 -8.61458e-16 0)
(3 -9.44941e-16 0)
(3 -6.01321e-16 0)
(3 -4.14211e-16 0)
(3 6.64477e-17 0)
(3 6.16957e-16 0)
(3 9.03773e-16 0)
(3 1.25334e-15 0)
(3 1.41105e-15 0)
(3 1.13478e-15 0)
(3 2.44656e-16 0)
(3 8.89287e-17 0)
(3 6.50884e-17 0)
(3 -3.73859e-16 0)
(3 -1.22624e-15 0)
(3 -1.28971e-15 0)
(3 -8.71198e-16 0)
(3 7.52846e-16 0)
(3 9.60386e-16 0)
(3 1.94462e-15 0)
(3 9.20802e-16 0)
(2.70086 0.165497 0)
(0.966397 0.251499 0)
(0.782114 0.233024 0)
(0.772112 0.225853 0)
(0.756696 0.228358 0)
(0.742683 0.230769 0)
(0.72739 0.232625 0)
(0.711147 0.23263 0)
(0.694403 0.231514 0)
(0.67784 0.230462 0)
(0.661916 0.230631 0)
(0.646868 0.233714 0)
(0.63276 0.239734 0)
(0.61831 0.245979 0)
(0.602731 0.24943 0)
(0.586707 0.249505 0)
(0.570925 0.248189 0)
(0.55536 0.248694 0)
(0.540281 0.253155 0)
(0.525743 0.260251 0)
(0.510501 0.265618 0)
(0.494948 0.267009 0)
(0.479629 0.268452 0)
(0.464838 0.272949 0)
(0.45006 0.278995 0)
(0.434593 0.284272 0)
(0.418862 0.288986 0)
(0.403293 0.294247 0)
(0.387855 0.30015 0)
(0.372283 0.306337 0)
(0.356362 0.312685 0)
(0.339912 0.319218 0)
(0.322756 0.325877 0)
(0.304797 0.332523 0)
(0.286048 0.338972 0)
(0.266588 0.345037 0)
(0.246491 0.350615 0)
(0.22575 0.355638 0)
(0.204304 0.360073 0)
(0.182098 0.363914 0)
(0.159153 0.367418 0)
(0.135444 0.370305 0)
(0.111197 0.373577 0)
(0.0864684 0.376109 0)
(0.0619293 0.380622 0)
(0.037097 0.383864 0)
(0.0128836 0.388959 0)
(3 -6.4715e-17 0)
(3 -2.39019e-16 0)
(3 -4.79422e-16 0)
(3 -1.81539e-16 0)
(3 2.22336e-16 0)
(3 5.99993e-16 0)
(3 3.65759e-16 0)
(3 8.57309e-18 0)
(3 2.41239e-16 0)
(3 5.70444e-16 0)
(3 9.23549e-16 0)
(3 5.87313e-16 0)
(3 6.47884e-17 0)
(3 1.05913e-16 0)
(3 1.48864e-16 0)
(3 -7.80491e-17 0)
(3 -1.10029e-16 0)
(3 -2.41455e-17 0)
(3 -3.27373e-16 0)
(3 -5.49067e-16 0)
(3 -5.8742e-16 0)
(3 -7.37745e-16 0)
(3 -7.1123e-16 0)
(3 -8.55655e-16 0)
(3 -9.9955e-16 0)
(3 -1.39051e-15 0)
(3 -1.56303e-15 0)
(3 -1.46998e-15 0)
(3 -1.29451e-15 0)
(3 -1.25225e-15 0)
(3 -8.61094e-16 0)
(3 -2.77438e-16 0)
(3 1.39931e-17 0)
(3 2.21564e-16 0)
(3 1.72404e-16 0)
(3 8.35174e-16 0)
(3 1.12966e-15 0)
(3 8.56227e-16 0)
(3 4.16276e-16 0)
(3 2.09613e-16 0)
(3 8.44135e-16 0)
(3 9.61371e-16 0)
(3 8.74583e-16 0)
(3 1.60164e-15 0)
(3 1.49792e-15 0)
(3 1.02148e-15 0)
(3 6.13996e-16 0)
(3 5.22934e-16 0)
(3 -3.12754e-16 0)
(3.0192 0.00940502 0)
(1.1581 0.278812 0)
(0.807366 0.235041 0)
(0.793147 0.247439 0)
(0.779336 0.253995 0)
(0.765188 0.257931 0)
(0.751073 0.261216 0)
(0.73616 0.262642 0)
(0.720592 0.26232 0)
(0.704736 0.260999 0)
(0.689007 0.259815 0)
(0.67365 0.26114 0)
(0.659329 0.26632 0)
(0.645621 0.273424 0)
(0.63098 0.278819 0)
(0.615326 0.280297 0)
(0.599442 0.278869 0)
(0.583368 0.278387 0)
(0.567548 0.282198 0)
(0.552644 0.289819 0)
(0.537254 0.296929 0)
(0.521037 0.299754 0)
(0.504782 0.300925 0)
(0.488887 0.305013 0)
(0.473327 0.311707 0)
(0.457085 0.318199 0)
(0.440313 0.323668 0)
(0.423659 0.329397 0)
(0.40732 0.33597 0)
(0.391072 0.343094 0)
(0.374645 0.350531 0)
(0.35782 0.358301 0)
(0.340383 0.366419 0)
(0.32217 0.374806 0)
(0.303115 0.383299 0)
(0.28323 0.391686 0)
(0.262546 0.399791 0)
(0.241039 0.407459 0)
(0.21864 0.414517 0)
(0.195284 0.420756 0)
(0.171048 0.426333 0)
(0.145917 0.430782 0)
(0.120125 0.43516 0)
(0.0935545 0.437992 0)
(0.0669024 0.442368 0)
(0.0399653 0.445265 0)
(0.0137084 0.450432 0)
(3 -1.37256e-17 0)
(3 4.89215e-17 0)
(3 1.39241e-16 0)
(3 1.09412e-16 0)
(3 1.3009e-16 0)
(3 5.47394e-16 0)
(3 7.0164e-16 0)
(3 6.66057e-16 0)
(3 7.92806e-16 0)
(3 1.03247e-15 0)
(3 9.84515e-16 0)
(3 1.02058e-15 0)
(3 7.78159e-16 0)
(3 5.83512e-16 0)
(3 7.13846e-16 0)
(3 4.61687e-17 0)
(3 -1.04133e-15 0)
(3 -1.16535e-15 0)
(3 -4.51743e-16 0)
(3 8.05839e-16 0)
(3 1.05025e-15 0)
(3 5.31683e-16 0)
(3 1.96581e-16 0)
(3 -4.37972e-16 0)
(3 -9.80084e-16 0)
(3 -1.81622e-15 0)
(3 -2.72431e-15 0)
(3 -3.17989e-15 0)
(3 -2.05456e-15 0)
(3 -7.77536e-16 0)
(3 -4.89186e-16 0)
(3 -4.37764e-16 0)
(3 -1.22963e-15 0)
(3 -1.74018e-15 0)
(3 -1.0625e-15 0)
(3 6.33062e-16 0)
(3 1.27378e-15 0)
(3 1.72964e-15 0)
(3 2.68843e-15 0)
(3 3.18217e-15 0)
(3 3.11158e-15 0)
(3 2.94965e-15 0)
(3 2.86629e-15 0)
(3 2.51186e-15 0)
(3 1.85691e-15 0)
(3 4.39112e-16 0)
(3 -5.03954e-17 0)
(3 -6.2658e-16 0)
(3 -1.11391e-15 0)
(3.00026 9.60379e-06 0)
(1.57457 0.31266 0)
(0.824678 0.281237 0)
(0.778625 0.277484 0)
(0.766935 0.283272 0)
(0.754238 0.286201 0)
(0.742594 0.290158 0)
(0.730088 0.29347 0)
(0.716777 0.295171 0)
(0.702952 0.29527 0)
(0.688955 0.294466 0)
(0.67497 0.294854 0)
(0.661555 0.298712 0)
(0.649261 0.305875 0)
(0.636758 0.313106 0)
(0.623032 0.316742 0)
(0.608732 0.316442 0)
(0.594006 0.315705 0)
(0.57914 0.318533 0)
(0.565279 0.325847 0)
(0.551544 0.334256 0)
(0.53661 0.339012 0)
(0.521212 0.340477 0)
(0.505825 0.343766 0)
(0.490948 0.350333 0)
(0.47566 0.357748 0)
(0.459463 0.364047 0)
(0.442985 0.370069 0)
(0.42672 0.376958 0)
(0.410618 0.384731 0)
(0.394398 0.393073 0)
(0.37782 0.401905 0)
(0.360692 0.411328 0)
(0.342843 0.421358 0)
(0.324168 0.431853 0)
(0.304723 0.442605 0)
(0.284602 0.45331 0)
(0.263784 0.463676 0)
(0.242051 0.473402 0)
(0.219191 0.482115 0)
(0.195013 0.490048 0)
(0.16907 0.496884 0)
(0.141336 0.504097 0)
(0.111245 0.509966 0)
(0.07984 0.516239 0)
(0.0475095 0.519743 0)
(0.0160377 0.524786 0)
(3 -4.00817e-20 0)
(3 -4.62276e-17 0)
(3 2.49163e-16 0)
(3 3.17209e-16 0)
(3 6.65776e-16 0)
(3 7.12009e-16 0)
(3 1.0509e-15 0)
(3 1.27669e-15 0)
(3 1.17093e-15 0)
(3 8.06646e-16 0)
(3 6.9348e-16 0)
(3 5.98933e-16 0)
(3 7.29102e-16 0)
(3 1.08854e-16 0)
(3 -2.20832e-17 0)
(3 -2.6411e-16 0)
(3 -9.86228e-16 0)
(3 -6.73128e-16 0)
(3 2.18398e-16 0)
(3 5.12997e-16 0)
(3 4.91915e-16 0)
(3 5.17423e-16 0)
(3 5.11343e-16 0)
(3 2.40087e-16 0)
(3 4.65572e-17 0)
(3 -3.89185e-16 0)
(3 -8.93679e-16 0)
(3 -1.47731e-15 0)
(3 -1.35746e-15 0)
(3 -1.09196e-15 0)
(3 -6.97133e-16 0)
(3 -8.25995e-16 0)
(3 -1.20704e-15 0)
(3 -1.55122e-15 0)
(3 -1.43155e-15 0)
(3 -1.50793e-15 0)
(3 -9.3507e-16 0)
(3 1.16216e-15 0)
(3 1.89013e-15 0)
(3 2.1168e-15 0)
(3 1.45254e-15 0)
(3 6.14835e-16 0)
(3 4.05932e-16 0)
(3 1.32367e-17 0)
(3 7.00981e-17 0)
(3 -2.65121e-17 0)
(3 -5.07574e-16 0)
(3 -1.64199e-16 0)
(3 -8.38732e-17 0)
(3 1.68877e-08 0)
(2.40549 0.280877 0)
(0.924133 0.342164 0)
(0.792444 0.314737 0)
(0.779904 0.308023 0)
(0.766163 0.311098 0)
(0.754566 0.316422 0)
(0.742535 0.321543 0)
(0.72995 0.324886 0)
(0.716963 0.32624 0)
(0.703729 0.326182 0)
(0.690333 0.32617 0)
(0.677055 0.328656 0)
(0.664783 0.334825 0)
(0.653221 0.342617 0)
(0.640793 0.348148 0)
(0.627487 0.34967 0)
(0.61365 0.349522 0)
(0.599427 0.351701 0)
(0.585916 0.358325 0)
(0.573264 0.367625 0)
(0.559642 0.374984 0)
(0.545063 0.378217 0)
(0.530222 0.381385 0)
(0.51583 0.387727 0)
(0.501604 0.396135 0)
(0.486467 0.404132 0)
(0.470536 0.411336 0)
(0.454485 0.419088 0)
(0.438547 0.427892 0)
(0.422525 0.437542 0)
(0.406172 0.447855 0)
(0.389376 0.45885 0)
(0.371851 0.470725 0)
(0.35339 0.4834 0)
(0.333952 0.496811 0)
(0.313504 0.510662 0)
(0.292004 0.524805 0)
(0.269168 0.538887 0)
(0.244691 0.552678 0)
(0.217968 0.566284 0)
(0.188565 0.579217 0)
(0.157256 0.59229 0)
(0.124446 0.603981 0)
(0.0905337 0.613367 0)
(0.0552528 0.618564 0)
(0.0177967 0.621826 0)
(3 1.4275e-16 0)
(3 -2.87679e-17 0)
(3 2.02953e-16 0)
(3 2.94712e-16 0)
(3 5.06862e-16 0)
(3 5.23834e-16 0)
(3 9.37866e-16 0)
(3 1.13404e-15 0)
(3 1.1684e-15 0)
(3 1.17141e-15 0)
(3 5.14282e-16 0)
(3 3.99521e-16 0)
(3 4.32869e-16 0)
(3 5.3498e-16 0)
(3 -4.7635e-17 0)
(3 -3.87429e-16 0)
(3 -3.33574e-16 0)
(3 -3.80307e-16 0)
(3 -8.18138e-16 0)
(3 -1.61064e-15 0)
(3 -1.70966e-15 0)
(3 -1.24268e-15 0)
(3 -1.13016e-15 0)
(3 -3.51727e-17 0)
(3 2.35872e-16 0)
(3 8.26233e-16 0)
(3 1.11957e-15 0)
(3 1.12366e-15 0)
(3 6.22793e-16 0)
(3 -9.2041e-16 0)
(3 -1.1973e-15 0)
(3 -7.74134e-16 0)
(3 -3.56851e-16 0)
(3 -4.87207e-16 0)
(3 -6.55423e-16 0)
(3 -1.25317e-15 0)
(3 -1.68786e-15 0)
(3 -4.76037e-16 0)
(3 1.19838e-15 0)
(3 6.02635e-17 0)
(3 -1.26914e-15 0)
(3 -1.28822e-15 0)
(3 -1.08299e-15 0)
(3 -1.04454e-15 0)
(3 -2.31608e-15 0)
(3 -1.66597e-15 0)
(3 8.5747e-17 0)
(3 6.63219e-16 0)
(3 5.48561e-16 0)
(3 -5.82357e-09 0)
(3.02836 0.0167754 0)
(1.26275 0.379369 0)
(0.842206 0.327918 0)
(0.820126 0.329623 0)
(0.80544 0.332714 0)
(0.791078 0.338676 0)
(0.777414 0.345139 0)
(0.76373 0.349786 0)
(0.750057 0.352519 0)
(0.736266 0.354167 0)
(0.722251 0.355383 0)
(0.708177 0.357509 0)
(0.694739 0.362459 0)
(0.682443 0.369884 0)
(0.670189 0.376873 0)
(0.65709 0.380992 0)
(0.643325 0.382689 0)
(0.629195 0.384954 0)
(0.615449 0.39066 0)
(0.602895 0.399929 0)
(0.590265 0.409438 0)
(0.576459 0.415629 0)
(0.562098 0.419727 0)
(0.54802 0.42581 0)
(0.53457 0.434634 0)
(0.520839 0.444419 0)
(0.506105 0.453628 0)
(0.490779 0.462853 0)
(0.475257 0.473042 0)
(0.459698 0.484212 0)
(0.444126 0.496352 0)
(0.428126 0.509264 0)
(0.411618 0.523335 0)
(0.394115 0.538624 0)
(0.375548 0.555275 0)
(0.355901 0.573201 0)
(0.335407 0.592338 0)
(0.314098 0.612333 0)
(0.291692 0.632722 0)
(0.267563 0.652874 0)
(0.241119 0.671633 0)
(0.211782 0.687854 0)
(0.179864 0.703486 0)
(0.142192 0.72184 0)
(0.0959124 0.744034 0)
(0.0368643 0.763657 0)
(3 -4.08591e-17 0)
(3 1.60673e-17 0)
(3 3.0549e-17 0)
(3 -1.5444e-16 0)
(3 -2.31192e-16 0)
(3 -2.1057e-16 0)
(3 -2.64174e-16 0)
(3 -3.84353e-16 0)
(3 -3.63309e-16 0)