/*--------------------------------*- C++ -*----------------------------------*\
  =========                 |
  \\      /  F ield         | OpenFOAM: The Open Source CFD Toolbox
   \\    /   O peration     | Website:  https://openfoam.org
    \\  /    A nd           | Version:  7
     \\/     M anipulation  |
\*---------------------------------------------------------------------------*/
FoamFile
{
    version     2.0;
    format      ascii;
    class       volScalarField;
    location    "9";
    object      p;
}
// * * * * * * * * * * * * * * * * * * * * * * * * * * * * * * * * * * * * * //

dimensions      [1 -1 -2 0 0 0 0];

internalField   nonuniform List<scalar> 
19968
(
1
1
1
1
1
1
1
1
1
1
1
1
1
1
1
1
1
1
1
1
1
1
1
1
1
1
1
1
1
1
1
1
1
1
1
1
1
1
1
1
1
1
1
1
1
1
1
1
1.59225
8.10872
10.4355
10.4376
10.5126
10.573
10.6353
10.6931
10.7476
10.8017
10.8572
10.9131
10.9678
11.0186
11.0644
11.1079
11.1529
11.2
11.2478
11.2953
11.3422
11.3878
11.432
11.4749
11.5159
11.5542
11.5896
11.6231
11.656
11.6893
11.7234
11.7572
11.7894
11.8186
11.8448
11.8689
11.8919
11.9145
11.9367
11.9577
11.9767
11.9931
12.0064
12.0163
12.0227
12.026
12.0275
12.0285
1
1
1
1
1
1
1
1
1
1
1
1
1
1
1
1
1
1
1
1
1
1
1
1
1
1
1
1
1
1
1
1
1
1
1
1
1
1
1
1
1
1
1
1
1
1
1
1
1.55411
8.02589
10.4146
10.4457
10.5141
10.5737
10.6347
10.692
10.7465
10.8007
10.856
10.9112
10.9651
11.0152
11.0609
11.1047
11.1497
11.197
11.2449
11.2927
11.3398
11.3856
11.4298
11.4724
11.5131
11.5509
11.5859
11.619
11.6514
11.6843
11.7181
11.752
11.7844
11.8139
11.8403
11.8644
11.8873
11.9096
11.9314
11.9521
11.9709
11.9869
11.9998
12.0094
12.0157
12.0189
12.0204
12.0213
1
1
1
1
1
1
1
1
1
1
1
1
1
1
1
1
1
1
1
1
1
1
1
1
1
1
1
1
1
1
1
1
1
1
1
1
1
1
1
1
1
1
1
1
1
1
1
1
1.4723
7.856
10.4082
10.4446
10.5084
10.5671
10.6275
10.685
10.7402
10.795
10.8506
10.9054
10.9589
11.0085
11.0538
11.0976
11.1424
11.1896
11.2376
11.2859
11.3334
11.3795
11.4239
11.4665
11.5069
11.5445
11.5791
11.6115
11.6431
11.6752
11.7084
11.7422
11.7748
11.8049
11.8318
11.8561
11.8787
11.9008
11.9223
11.9428
11.9614
11.9773
11.9899
11.9992
12.0054
12.0086
12.0102
12.0113
1
1
1
1
1
1
1
1
1
1
1
1
1
1
1
1
1
1
1
1
1
1
1
1
1
1
1
1
1
1
1
1
1
1
1
1
1
1
1
1
1
1
1
1
1
1
1
1
1.36057
7.58983
10.3994
10.443
10.5
10.5584
10.6183
10.6764
10.732
10.787
10.8426
10.897
10.9502
10.9996
11.0447
11.0888
11.1332
11.1802
11.228
11.2765
11.3243
11.3706
11.4151
11.4576
11.4977
11.5348
11.5688
11.6003
11.6309
11.6619
11.6944
11.7279
11.7608
11.7913
11.8186
11.8428
11.865
11.8863
11.907
11.9268
11.9447
11.9602
11.9727
11.982
11.9884
11.9922
11.9942
11.9959
1
1
1
1
1
1
1
1
1
1
1
1
1
1
1
1
1
1
1
1
1
1
1
1
1
1
1
1
1
1
1
1
1
1
1
1
1
1
1
1
1
1
1
1
1
1
1
1
1.22699
7.24448
10.3889
10.4388
10.4893
10.549
10.6089
10.6673
10.7231
10.778
10.8331
10.8871
10.9398
10.9888
11.0335
11.0776
11.1215
11.168
11.2155
11.2639
11.3119
11.3583
11.4029
11.4454
11.4855
11.5224
11.5559
11.5867
11.6162
11.6461
11.6778
11.711
11.7442
11.7754
11.8034
11.8279
11.8498
11.8702
11.8896
11.9078
11.9243
11.9382
11.9494
11.9578
11.9635
11.9671
11.9691
11.9708
1
1
1
1
1
1
1
1
1
1
1
1
1
1
1
1
1
1
1
1
1
1
1
1
1
1
1
1
1
1
1
1
1
1
1
1
1
1
1
1
1
1
1
1
1
1
1
1
1.0224
6.73569
10.3705
10.4368
10.4862
10.5463
10.6046
10.6623
10.7175
10.7719
10.8262
10.8794
10.9309
10.9786
11.0221
11.0655
11.1085
11.1541
11.2004
11.2477
11.2944
11.3397
11.3834
11.4254
11.4649
11.5013
11.534
11.5636
11.5917
11.6201
11.6504
11.6828
11.7158
11.7474
11.7759
11.8011
11.8232
11.8434
11.8621
11.8794
11.8951
11.9086
11.9197
11.9282
11.9342
11.9382
11.9405
11.9425
1
1
1
1
1
1
1
1
1
1
1
1
1
1
1
1
1
1
1
1
1
1
1
1
1
1
1
1
1
1
1
1
1
1
1
1
1
1
1
1
1
1
1
1
1
1
1
1
1.00017
6.03353
10.2738
10.386
10.4404
10.5045
10.5654
10.6251
10.6812
10.7358
10.7903
10.844
10.8957
10.9431
10.9863
11.0295
11.0719
11.1173
11.1631
11.2101
11.2564
11.3015
11.3451
11.3874
11.4274
11.4641
11.4969
11.5264
11.5539
11.5815
11.611
11.6426
11.6753
11.7072
11.7366
11.7626
11.7854
11.8056
11.8237
11.84
11.8547
11.8676
11.8783
11.8868
11.893
11.8973
11.8997
11.902
1
1
1
1
1
1
1
1
1
1
1
1
1
1
1
1
1
1
1
1
1
1
1
1
1
1
1
1
1
1
1
1
1
1
1
1
1
1
1
1
1
1
1
1
1
1
1
1
1
5.11948
10.122
10.3561
10.4139
10.479
10.5407
10.601
10.6564
10.7097
10.7634
10.8167
10.8676
10.9138
10.9557
10.9977
11.0391
11.0836
11.1286
11.1746
11.2199
11.2639
11.3068
11.3486
11.3883
11.4246
11.457
11.4857
11.5123
11.5388
11.5669
11.5974
11.6293
11.661
11.6907
11.7173
11.7404
11.7602
11.7774
11.7925
11.8059
11.8178
11.8281
11.8364
11.8424
11.8467
11.8488
11.8509
1
1
1
1
1
1
1
1
1
1
1
1
1
1
1
1
1
1
1
1
1
1
1
1
1
1
1
1
1
1
1
1
1
1
1
1
1
1
1
1
1
1
1
1
1
1
1
1
1
4.05624
9.83426
10.3218
10.3802
10.4477
10.5103
10.5708
10.6251
10.6769
10.7295
10.7821
10.832
10.8769
10.9171
10.9578
10.9981
11.0414
11.0851
11.1294
11.1726
11.2145
11.2555
11.2959
11.3346
11.3701
11.4019
11.43
11.4557
11.481
11.5077
11.5367
11.5675
11.5985
11.6279
11.6545
11.6775
11.6971
11.7136
11.7279
11.7407
11.7522
11.7623
11.7706
11.7765
11.7806
11.7821
11.784
1
1
1
1
1
1
1
1
1
1
1
1
1
1
1
1
1
1
1
1
1
1
1
1
1
1
1
1
1
1
1
1
1
1
1
1
1
1
1
1
1
1
1
1
1
1
1
1
1
2.92929
9.31159
10.3009
10.3624
10.4304
10.489
10.5465
10.5977
10.6468
10.6974
10.7485
10.797
10.8405
10.8791
10.918
10.9571
10.9985
11.041
11.0834
11.1239
11.1625
11.2003
11.238
11.2744
11.3077
11.3374
11.3634
11.387
11.4099
11.4343
11.4612
11.4905
11.5207
11.5497
11.576
11.5988
11.6178
11.6337
11.6472
11.6591
11.6695
11.6786
11.6858
11.6906
11.6934
11.6936
11.6948
1
1
1
1
1
1
1
1
1
1
1
1
1
1
1
1
1
1
1
1
1
1
1
1
1
1
1
1
1
1
1
1
1
1
1
1
1
1
1
1
1
1
1
1
1
1
1
1
1
1.85664
8.39056
10.3393
10.3269
10.3939
10.4438
10.4988
10.5507
10.6005
10.6511
10.7021
10.7509
10.7949
10.834
10.8726
10.9115
10.9517
10.9927
11.0332
11.0712
11.1067
11.1412
11.1758
11.2101
11.2418
11.2698
11.2936
11.3144
11.3338
11.3543
11.3772
11.4026
11.4292
11.4547
11.4773
11.4962
11.5117
11.5249
11.5367
11.5479
11.5585
11.568
11.5752
11.5795
11.5816
11.581
11.5818
1
1
1
1
1
1
1
1
1
1
1
1
1
1
1
1
1
1
1
1
1
1
1
1
1
1
1
1
1
1
1
1
1
1
1
1
1
1
1
1
1
1
1
1
1
1
1
1
1
1.03374
6.7395
10.3509
10.3535
10.3933
10.4353
10.4816
10.5267
10.5699
10.6142
10.6607
10.7069
10.7497
10.7877
10.8232
10.8582
10.8936
10.9302
10.9669
11.0011
11.032
11.0618
11.0919
11.1228
11.1521
11.178
11.1999
11.2184
11.235
11.2521
11.2715
11.2938
11.3176
11.3405
11.3603
11.3762
11.3887
11.3989
11.4081
11.4166
11.4238
11.4289
11.4304
11.4287
11.4257
11.422
11.421
1
1
1
1
1
1
1
1
1
1
1
1
1
1
1
1
1
1
1
1
1
1
1
1
1
1
1
1
1
1
1
1
1
1
1
1
1
1
1
1
1
1
1
1
1
1
1
1
1
1.00006
4.617
9.92132
10.2062
10.2661
10.3267
10.3802
10.4292
10.4737
10.5172
10.5619
10.6069
10.6494
10.6879
10.7229
10.7569
10.7912
10.8263
10.8613
10.8944
10.9235
10.9508
10.9783
11.0064
11.034
11.0586
11.0791
11.0958
11.1098
11.1233
11.1382
11.1556
11.1743
11.1917
11.205
11.2134
11.2171
11.218
11.2181
11.2193
11.2215
11.2239
11.2252
11.2241
11.2224
11.2191
11.2184
1
1
1
1
1
1
1
1
1
1
1
1
1
1
1
1
1
1
1
1
1
1
1
1
1
1
1
1
1
1
1
1
1
1
1
1
1
1
1
1
1
1
1
1
1
1
1
1
1
1
2.39838
8.78428
10.1664
10.2057
10.2761
10.3285
10.375
10.4171
10.4583
10.5003
10.5426
10.583
10.6195
10.6518
10.6817
10.7112
10.7416
10.7721
10.8012
10.8267
10.8492
10.8715
10.8938
10.9159
10.9355
10.9513
10.9631
10.9719
10.9789
10.986
10.9949
11.0052
11.0143
11.0204
11.022
11.0178
11.0112
11.0045
10.9987
10.993
10.9846
10.9722
10.9521
10.9268
10.8994
10.8759
1
1
1
1
1
1
1
1
1
1
1
1
1
1
1
1
1
1
1
1
1
1
1
1
1
1
1
1
1
1
1
1
1
1
1
1
1
1
1
1
1
1
1
1
1
1
1
1
1
1
1.05936
6.38105
10.2273
10.235
10.2695
10.298
10.3262
10.3539
10.3832
10.4158
10.4515
10.4878
10.5211
10.5502
10.5758
10.5994
10.6238
10.6493
10.6741
10.6967
10.7152
10.7323
10.7491
10.765
10.7784
10.7881
10.7946
10.7978
10.797
10.7948
10.7927
10.7909
10.7878
10.7815
10.7688
10.7492
10.7236
10.6925
10.655
10.6115
10.5635
10.5144
10.4728
10.4365
10.4183
10.4086
1
1
1
1
1
1
1
1
1
1
1
1
1
1
1
1
1
1
1
1
1
1
1
1
1
1
1
1
1
1
1
1
1
1
1
1
1
1
1
1
1
1
1
1
1
1
1
1
1
1
1.00009
3.26888
9.28353
10.1031
10.1324
10.1631
10.1941
10.226
10.2586
10.2934
10.3303
10.3676
10.4023
10.4322
10.4572
10.4788
10.4986
10.5179
10.5359
10.5518
10.565
10.5765
10.5884
10.5983
10.6042
10.6065
10.6051
10.5997
10.5897
10.5755
10.5592
10.54
10.5171
10.4894
10.4558
10.4159
10.3691
10.3136
10.2481
10.175
10.0985
10.024
9.94196
9.86618
9.75909
9.85335
1
1
1
1
1
1
1
1
1
1
1
1
1
1
1
1
1
1
1
1
1
1
1
1
1
1
1
1
1
1
1
1
1
1
1
1
1
1
1
1
1
1
1
1
1
1
1
1
1
1
1
1.23025
7.3144
10.126
10.0931
10.1069
10.1294
10.1529
10.1772
10.2045
10.235
10.2678
10.3
10.3283
10.3519
10.371
10.3856
10.3969
10.4068
10.4153
10.4232
10.4299
10.4358
10.439
10.4382
10.4325
10.4219
10.4069
10.3867
10.3617
10.3322
10.2965
10.253
10.2018
10.143
10.077
10.0001
9.90685
9.7875
9.63662
9.43841
9.18299
8.81174
8.26648
7.35744
5.48776
1
1
1
1
1
1
1
1
1
1
1
1
1
1
1
1
1
1
1
1
1
1
1
1
1
1
1
1
1
1
1
1
1
1
1
1
1
1
1
1
1
1
1
1
1
1
1
1
1
1
1
1.00172
4.66259
9.72265
9.93134
9.97679
10.0167
10.0507
10.0797
10.1082
10.136
10.1623
10.1869
10.2103
10.2335
10.2553
10.2726
10.2829
10.288
10.2908
10.2932
10.2955
10.2963
10.2934
10.2871
10.2751
10.2577
10.2342
10.2048
10.17
10.1292
10.0803
10.0203
9.94883
9.86537
9.77169
9.6621
9.53182
9.36234
9.14729
8.85547
8.4877
7.97395
7.33931
6.10584
4.5132
1
1
1
1
1
1
1
1
1
1
1
1
1
1
1
1
1
1
1
1
1
1
1
1
1
1
1
1
1
1
1
1
1
1
1
1
1
1
1
1
1
1
1
1
1
1
1
1
1
1
1
0.999996
1.99334
8.3094
9.87151
9.89951
9.94564
9.97955
10.0101
10.0373
10.0627
10.0851
10.1036
10.1201
10.1384
10.1571
10.1721
10.1779
10.1771
10.1734
10.1699
10.167
10.1612
10.1512
10.1369
10.1173
10.092
10.0596
10.0201
9.97416
9.92063
9.85776
9.78183
9.6921
9.5853
9.46472
9.32342
9.15904
8.95237
8.69221
8.35578
7.92588
7.38761
6.63636
5.61418
4.50626
1
1
1
1
1
1
1
1
1
1
1
1
1
1
1
1
1
1
1
1
1
1
1
1
1
1
1
1
1
1
1
1
1
1
1
1
1
1
1
1
1
1
1
1
1
1
1
1
1
1
1
0.999999
1.03544
5.47785
9.70798
9.83446
9.87048
9.89969
9.92566
9.94971
9.97676
10.0015
10.0184
10.0307
10.0419
10.0526
10.0602
10.0599
10.0544
10.0468
10.0397
10.0322
10.0206
10.0029
9.97974
9.95178
9.91836
9.87813
9.83014
9.77427
9.70855
9.63256
9.54216
9.43741
9.31291
9.17096
9.00552
8.81371
8.58323
8.30034
7.9522
7.51337
6.98294
6.30588
5.5454
4.69765
1
1
1
1
1
1
1
1
1
1
1
1
1
1
1
1
1
1
1
1
1
1
1
1
1
1
1
1
1
1
1
1
1
1
1
1
1
1
1
1
1
1
1
1
1
1
1
1
1
1
1
1
1.00001
2.25391
8.46295
9.77342
9.79451
9.83174
9.8495
9.86778
9.89136
9.91129
9.92763
9.94364
9.95413
9.96053
9.95859
9.94984
9.93694
9.92368
9.91157
9.89931
9.8829
9.85907
9.82731
9.78977
9.74639
9.69725
9.64049
9.57586
9.50026
9.41331
9.31112
9.19415
9.05764
8.90142
8.7211
8.51261
8.26918
7.98012
7.64174
7.22198
6.74706
6.18117
5.58274
4.92791
1
1
1
1
1
1
1
1
1
1
1
1
1
1
1
1
1
1
1
1
1
1
1
1
1
1
1
1
1
1
1
1
1
1
1
1
1
1
1
1
1
1
1
1
1
1
1
1
1
1
1
1
0.999999
1.05091
5.49795
9.59801
9.74941
9.78923
9.80104
9.80798
9.82318
9.83324
9.8404
9.85013
9.85694
9.85839
9.85229
9.8399
9.8236
9.80592
9.78786
9.76997
9.74799
9.719
9.68085
9.63481
9.58073
9.52097
9.45447
9.38143
9.29823
9.2029
9.09182
8.96569
8.82203
8.65925
8.47339
8.25954
8.01425
7.72857
7.40427
7.02503
6.61149
6.13867
5.65191
5.12518
1
1
1
1
1
1
1
1
1
1
1
1
1
1
1
1
1
1
1
1
1
1
1
1
1
1
1
1
1
1
1
1
1
1
1
1
1
1
1
1
1
1
1
1
1
1
1
1
1
1
1
1
1
1.00006
2.0527
8.20185
9.736
9.70298
9.71932
9.73632
9.749
9.75214
9.75118
9.75165
9.75202
9.74811
9.73922
9.72568
9.7077
9.68563
9.66191
9.6372
9.60846
9.57622
9.53573
9.48587
9.42504
9.35551
9.27862
9.19649
9.10616
9.00441
8.88727
8.75583
8.60936
8.44577
8.26132
8.05081
7.81446
7.537
7.23375
6.89085
6.52881
6.12983
5.7194
5.27724
1
1
1
1
1
1
1
1
1
1
1
1
1
1
1
1
1
1
1
1
1
1
1
1
1
1
1
1
1
1
1
1
1
1
1
1
1
1
1
1
1
1
1
1
1
1
1
1
1
1
1
1
1
1
1.03445
4.89291
9.36827
9.62459
9.62509
9.64792
9.66542
9.67118
9.67165
9.66739
9.66221
9.6538
9.64035
9.62555
9.60698
9.57961
9.54944
9.51585
9.47803
9.43898
9.39444
9.34239
9.27907
9.20389
9.11896
9.02834
8.93037
8.82194
8.69974
8.56487
8.41758
8.25613
8.0779
7.87658
7.65519
7.39433
7.11313
6.80103
6.48584
6.1356
5.77725
5.39481
1
1
1
1
1
1
1
1
1
1
1
1
1
1
1
1
1
1
1
1
1
1
1
1
1
1
1
1
1
1
1
1
1
1
1
1
1
1
1
1
1
1
1
1
1
1
1
1
1
1
1
1
1
1
1.00003
1.51219
7.53158
9.65306
9.58379
9.58565
9.57954
9.57642
9.5724
9.56421
9.5546
9.54296
9.52624
9.50909
9.49093
9.4617
9.42707
9.38885
9.34385
9.29838
9.24885
9.19587
9.13394
9.05882
8.97133
8.87598
8.77115
8.6568
8.53188
8.39567
8.2489
8.09037
7.91978
7.72831
7.52243
7.28308
7.02227
6.74612
6.46325
6.1433
5.82875
5.50079
1
1
1
1
1
1
1
1
1
1
1
1
1
1
1
1
1
1
1
1
1
1
1
1
1
1
1
1
1
1
1
1
1
1
1
1
1
1
1
1
1
1
1
1
1
1
1
1
1
1
1
1
1
1
1
1.00788
3.85557
8.9599
9.39014
9.44439
9.47146
9.4702
9.4661
9.45854
9.4463
9.43185
9.41356
9.3932
9.3743
9.34482
9.30817
9.26684
9.21883
9.16852
9.11264
9.05563
8.99252
8.91781
8.83198
8.73628
8.62669
8.50867
8.38308
8.24676
8.10173
7.94609
7.78331
7.60023
7.40816
7.19036
6.95373
6.7103
6.44454
6.15987
5.88641
5.59792
1
1
1
1
1
1
1
1
1
1
1
1
1
1
1
1
1
1
1
1
1
1
1
1
1
1
1
1
1
1
1
1
1
1
1
1
1
1
1
1
1
1
1
1
1
1
1
1
1
1
1
1
1
1
1
1
1.21925
6.18749
9.413
9.39117
9.38655
9.37847
9.37405
9.36936
9.35883
9.34333
9.32293
9.29671
9.272
9.23815
9.19772
9.15284
9.10336
9.04969
8.98838
8.92521
8.85754
8.78262
8.69842
8.60568
8.49561
8.37835
8.25469
8.12031
7.97898
7.8262
7.66988
7.49197
7.31034
7.11127
6.89764
6.67253
6.42608
6.18618
5.93856
5.67573
1
1
1
1
1
1
1
1
1
1
1
1
1
1
1
1
1
1
1
1
1
1
1
1
1
1
1
1
1
1
1
1
1
1
1
1
1
1
1
1
1
1
1
1
1
1
1
1
1
1
1
1
1
1
1
1
1.00147
2.17344
8.02738
9.31164
9.25645
9.26644
9.26672
9.26437
9.25784
9.24256
9.22103
9.19192
9.16197
9.12783
9.08572
9.03934
8.98908
8.93428
8.87131
8.80358
8.73181
8.65593
8.56891
8.47649
8.37102
8.25883
8.13891
8.00898
7.87202
7.72349
7.57368
7.40079
7.22887
7.04466
6.84732
6.63629
6.4203
6.20956
5.97298
5.7371
1
1
1
1
1
1
1
1
1
1
1
1
1
1
1
1
1
1
1
1
1
1
1
1
1
1
1
1
1
1
1
1
1
1
1
1
1
1
1
1
1
1
1
1
1
1
1
1
1
1
1
1
1
1
1
1
1
1.03943
4.1816
8.90488
9.16279
9.1792
9.18463
9.17796
9.1696
9.15188
9.12723
9.09398
9.0587
9.02378
8.97906
8.93074
8.88003
8.82465
8.76164
8.69234
8.61774
8.54175
8.45312
8.35855
8.25834
8.14904
8.03373
7.91057
7.77943
7.63732
7.49306
7.32854
7.16521
6.99005
6.80454
6.61051
6.41892
6.21748
5.99916
5.7921
1
1
1
1
1
1
1
1
1
1
1
1
1
1
1
1
1
1
1
1
1
1
1
1
1
1
1
1
1
1
1
1
1
1
1
1
1
1
1
1
1
1
1
1
1
1
1
1
1
1
1
1
1
1
1
1
1
1.00008
1.25928
5.75005
9.02724
9.15884
9.12731
9.11726
9.10002
9.07592
9.04671
9.00928
8.97067
8.93258
8.88508
8.83293
8.77936
8.72206
8.65744
8.58758
8.51247
8.43822
8.3506
8.25702
8.15758
8.05096
7.93804
7.81719
7.69152
7.55692
7.41858
7.26625
7.11135
6.94461
6.77171
6.59409
6.4155
6.22187
6.02657
5.83914
1
1
1
1
1
1
1
1
1
1
1
1
1
1
1
1
1
1
1
1
1
1
1
1
1
1
1
1
1
1
1
1
1
1
1
1
1
1
1
1
1
1
1
1
1
1
1
1
1
1
1
1
1
1
1
1
1
1
1.00211
1.63108
7.2875
9.17705
9.11443
9.067
9.02313
8.98516
8.95042
8.91159
8.8737
8.83524
8.78874
8.73699
8.68169
8.62456
8.56053
8.4906
8.417
8.34289
8.25975
8.16683
8.06906
7.96495
7.85518
7.73627
7.61302
7.48532
7.35189
7.21103
7.06522
6.90756
6.74782
6.5843
6.4133
6.23233
6.05588
5.8823
1
1
1
1
1
1
1
1
1
1
1
1
1
1
1
1
1
1
1
1
1
1
1
1
1
1
1
1
1
1
1
1
1
1
1
1
1
1
1
1
1
1
1
1
1
1
1
1
1
1
1
1
1
1
1
1
1
1
1
1.01147
3.05676
8.33486
8.96007
8.89984
8.86994
8.84244
8.8214
8.7944
8.7673
8.7342
8.69226
8.64552
8.59237
8.53354
8.47173
8.4029
8.33001
8.25621
8.17581
8.08502
7.98917
7.88675
7.77923
7.66419
7.54331
7.41943
7.29061
7.15912
7.02197
6.8744
6.7275
6.57531
6.41156
6.24633
6.08575
5.92397
1
1
1
1
1
1
1
1
1
1
1
1
1
1
1
1
1
1
1
1
1
1
1
1
1
1
1
1
1
1
1
1
1
1
1
1
1
1
1
1
1
1
1
1
1
1
1
1
1
1
1
1
1
1
1
1
1
1
1
1.00002
1.10948
4.38301
8.60927
8.79648
8.77513
8.77118
8.75584
8.73333
8.7053
8.66971
8.62605
8.57671
8.52251
8.46078
8.39742
8.3315
8.25568
8.18178
8.10092
8.01121
7.91617
7.81497
7.70987
7.59981
7.48286
7.36349
7.24095
7.1172
6.98778
6.84975
6.71216
6.56892
6.41567
6.2679
6.12274
5.97549
1
1
1
1
1
1
1
1
1
1
1
1
1
1
1
1
1
1
1
1
1
1
1
1
1
1
1
1
1
1
1
1
1
1
1
1
1
1
1
1
1
1
1
1
1
1
1
1
1
1
1
1
1
1
1
1
1
1
1
1
1.00051
1.2962
5.20486
8.58907
8.72048
8.71997
8.70617
8.67866
8.64548
8.6072
8.56304
8.51252
8.45701
8.3947
8.32797
8.26147
8.18635
8.11059
8.02821
7.93971
7.84565
7.74601
7.64348
7.53846
7.42694
7.31283
7.19933
7.0844
6.96203
6.83255
6.70463
6.57258
6.43632
6.31305
6.18723
6.06292
1
1
1
1
1
1
1
1
1
1
1
1
1
1
1
1
1
1
1
1
1
1
1
1
1
1
1
1
1
1
1
1
1
1
1
1
1
1
1
1
1
1
1
1
1
1
1
1
1
1
1
1
1
1
1
1
1
1
1
1
1
1.00286
1.49357
5.87833
8.58076
8.69403
8.66466
8.62991
8.59081
8.54753
8.50091
8.45073
8.39562
8.33355
8.26728
8.19951
8.12629
8.04874
7.96563
7.87733
7.78427
7.68662
7.5872
7.48699
7.38137
7.27275
7.16609
7.05766
6.94433
6.8296
6.72083
6.61143
6.50301
6.41341
6.31858
6.22928
1
1
1
1
1
1
1
1
1
1
1
1
1
1
1
1
1
1
1
1
1
1
1
1
1
1
1
1
1
1
1
1
1
1
1
1
1
1
1
1
1
1
1
1
1
1
1
1
1
1
1
1
1
1
1
1
1
1
1
1
1
1
1.00727
1.72201
6.45132
8.56856
8.61508
8.58394
8.53896
8.49188
8.44123
8.38867
8.33128
8.26947
8.20568
8.13812
8.06528
7.98702
7.9041
7.81703
7.72623
7.63204
7.53673
7.44067
7.34078
7.2401
7.14276
7.04611
6.95404
6.87168
6.79698
6.723
6.65729
6.60551
6.53413
6.46729
1
1
1
1
1
1
1
1
1
1
1
1
1
1
1
1
1
1
1
1
1
1
1
1
1
1
1
1
1
1
1
1
1
1
1
1
1
1
1
1
1
1
1
1
1
1
1
1
1
1
1
1
1
1
1
1
1
1
1
1
1
1
1.00001
1.01471
1.98189
6.89872
8.54075
8.54638
8.50544
8.45067
8.39596
8.33798
8.27511
8.211
8.14575
8.0778
8.00598
7.92966
7.84953
7.76513
7.67758
7.58835
7.49625
7.40446
7.31455
7.2319
7.15866
7.09483
7.04492
7.00478
6.97362
6.9336
6.89419
6.84968
6.77373
6.70144
1
1
1
1
1
1
1
1
1
1
1
1
1
1
1
1
1
1
1
1
1
1
1
1
1
1
1
1
1
1
1
1
1
1
1
1
1
1
1
1
1
1
1
1
1
1
1
1
1
1
1
1
1
1
1
1
1
1
1
1
1
1
1
1.00003
1.02637
2.24423
7.29938
8.50312
8.46033
8.41021
8.34511
8.28211
8.217
8.15192
8.08517
8.01762
7.94678
7.87219
7.79372
7.71191
7.62879
7.54483
7.4625
7.38816
7.32606
7.28722
7.26247
7.24519
7.24279
7.23826
7.2212
7.17742
7.13071
7.06519
6.97008
6.88323
1
1
1
1
1
1
1
1
1
1
1
1
1
1
1
1
1
1
1
1
1
1
1
1
1
1
1
1
1
1
1
1
1
1
1
1
1
1
1
1
1
1
1
1
1
1
1
1
1
1
1
1
1
1
1
1
1
1
1
1
1
1
1
1
1.00008
1.04168
2.65941
7.53577
8.38864
8.33448
8.28959
8.22817
8.16283
8.09711
8.03198
7.96619
7.89598
7.82107
7.74196
7.66133
7.58499
7.51419
7.46299
7.43891
7.43728
7.45555
7.48153
7.50118
7.52129
7.49835
7.45129
7.38481
7.31764
7.22655
7.11849
7.02748
1
1
1
1
1
1
1
1
1
1
1
1
1
1
1
1
1
1
1
1
1
1
1
1
1
1
1
1
1
1
1
1
1
1
1
1
1
1
1
1
1
1
1
1
1
1
1
1
1
1
1
1
1
1
1
1
1
1
1
1
1
1
1
1
1
1.00015
1.07272
2.94764
7.58102
8.27157
8.22003
8.16425
8.10995
8.05163
7.9888
7.92045
7.84636
7.76846
7.69271
7.62272
7.5781
7.559
7.57469
7.62424
7.69124
7.75006
7.77835
7.79185
7.76741
7.69842
7.62124
7.54272
7.45956
7.35401
7.25088
7.16721
1
1
1
1
1
1
1
1
1
1
1
1
1
1
1
1
1
1
1
1
1
1
1
1
1
1
1
1
1
1
1
1
1
1
1
1
1
1
1
1
1
1
1
1
1
1
1
1
1
1
1
1
1
1
1
1
1
1
1
1
1
1
1
1
1
1
1.00034
1.10118
3.03917
7.5021
8.16209
8.11286
8.06382
8.01009
7.95111
7.88149
7.80715
7.7334
7.68099
7.65303
7.67219
7.74697
7.84608
7.95526
8.0301
8.05762
8.04416
8.01147
7.93931
7.83889
7.75298
7.67434
7.58387
7.47719
7.38976
7.31367
1
1
1
1
1
1
1
1
1
1
1
1
1
1
1
1
1
1
1
1
1
1
1
1
1
1
1
1
1
1
1
1
1
1
1
1
1
1
1
1
1
1
1
1
1
1
1
1
1
1
1
1
1
1
1
1
1
1
1
1
1
1
1
1
1
1
1
1.00059
1.11328
2.97572
7.37009
8.07667
8.03128
7.97758
7.91233
7.83833
7.77509
7.73253
7.73828
7.82092
7.94988
8.11381
8.23906
8.31518
8.33187
8.28591
8.2271
8.16284
8.06738
7.96167
7.88339
7.80865
7.71721
7.61785
7.54411
7.4688
1
1
1
1
1
1
1
1
1
1
1
1
1
1
1
1
1
1
1
1
1
1
1
1
1
1
1
1
1
1
1
1
1
1
1
1
1
1
1
1
1
1
1
1
1
1
1
1
1
1
1
1
1
1
1
1
1
1
1
1
1
1
1
1
1
1
1
1
1.00072
1.10818
2.89081
7.18847
7.97976
7.93563
7.86684
7.80694
7.78664
7.84106
7.98291
8.2022
8.40736
8.53915
8.59437
8.59149
8.52824
8.4391
8.36244
8.28482
8.18368
8.08525
8.01814
7.94662
7.85708
7.77046
7.70397
7.62535
1
1
1
1
1
1
1
1
1
1
1
1
1
1
1
1
1
1
1
1
1
1
1
1
1
1
1
1
1
1
1
1
1
1
1
1
1
1
1
1
1
1
1
1
1
1
1
1
1
1
1
1
1
1
1
1
1
1
1
1
1
1
1
1
1
1
1
1
1
1.00068
1.09943
2.75585
6.93445
7.85138
7.8105
7.8404
7.97339
8.23279
8.52329
8.74236
8.83686
8.858
8.81923
8.74938
8.65431
8.56199
8.49125
8.41507
8.31767
8.23353
8.17431
8.09996
8.0076
7.92826
7.86198
7.77949
1
1
1
1
1
1
1
1
1
1
1
1
1
1
1
1
1
1
1
1
1
1
1
1
1
1
1
1
1
1
1
1
1
1
1
1
1
1
1
1
1
1
1
1
1
1
1
1
1
1
1
1
1
1
1
1
1
1
1
1
1
1
1
1
1
1
1
1
1
1
1.0006
1.08581
2.55945
6.54311
7.85313
8.22127
8.51142
8.87847
9.0837
9.15157
9.10351
9.02854
8.94581
8.84972
8.75218
8.68065
8.6214
8.54305
8.45213
8.38799
8.33562
8.25592
8.16084
8.08685
8.02129
7.93799
1
1
1
1
1
1
1
1
1
1
1
1
1
1
1
1
1
1
1
1
1
1
1
1
1
1
1
1
1
1
1
1
1
1
1
1
1
1
1
1
1
1
1
1
1
1
1
1
1
1
1
1
1
1
1
1
1
1
1
1
1
1
1
1
1
1
1
1
1
1
1
1.00048
1.06796
2.2743
6.74934
8.84989
9.21314
9.36968
9.3949
9.32986
9.23871
9.15268
9.06321
8.97211
8.89139
8.834
8.77244
8.68364
8.59514
8.54078
8.48712
8.39882
8.30311
8.23829
8.17878
8.09739
1
1
1
1
1
1
1
1
1
1
1
1
1
1
1
1
1
1
1
1
1
1
1
1
1
1
1
1
1
1
1
1
1
1
1
1
1
1
1
1
1
1
1
1
1
1
1
1
1
1
1
1
1
1
1
1
1
1
1
1
1
1
1
1
1
1
1
1
1
1
1
1
1.00037
1.04491
3.08058
8.96419
9.83099
9.70228
9.57978
9.44486
9.33107
9.23892
9.16282
9.08594
9.02074
8.97656
8.92098
8.83883
8.76116
8.70717
8.64443
8.54529
8.45159
8.39445
8.33555
8.24954
1
1
1
1
1
1
1
1
1
1
1
1
1
1
1
1
1
1
1
1
1
1
1
1
1
1
1
1
1
1
1
1
1
1
1
1
1
1
1
1
1
1
1
1
1
1
1
1
1
1
1
1
1
1
1
1
1
1
1
1
1
1
1
1
1
1
1
1
1
1
1
1
1
1.00017
1.11563
6.84015
10.0137
9.68053
9.55549
9.46352
9.39397
9.34432
9.30054
9.23778
9.18165
9.13519
9.07006
8.98482
8.90834
8.85025
8.78129
8.68899
8.61193
8.56172
8.50035
8.41132
1
1
1
1
1
1
1
1
1
1
1
1
1
1
1
1
1
1
1
1
1
1
1
1
1
1
1
1
1
1
1
1
1
1
1
1
1
1
1
1
1
1
1
1
1
1
1
1
1
1
1
1
1
1
1
1
1
1
1
1
1
1
1
1
1
1
1
1
1
1
1
1
1
1
1.00038
3.24228
8.94431
9.64859
9.61949
9.60378
9.56952
9.52255
9.46319
9.404
9.35154
9.28991
9.21156
9.12386
9.04373
8.98415
8.91626
8.83012
8.75742
8.7046
8.6403
8.55736
1
1
1
1
1
1
1
1
1
1
1
1
1
1
1
1
1
1
1
1
1
1
1
1
1
1
1
1
1
1
1
1
1
1
1
1
1
1
1
1
1
1
1
1
1
1
1
1
1
1
1
1
1
1
1
1
1
1
1
1
1
1
1
1
1
1
1
1
1
1
1
1
1
1
1
1.13897
6.86543
9.84927
9.83771
9.77895
9.70349
9.63255
9.5693
9.50852
9.44375
9.36955
9.29375
9.22159
9.16106
9.11164
9.05173
8.97533
8.90674
8.85156
8.78614
8.70855
1
1
1
1
1
1
1
1
1
1
1
1
1
1
1
1
1
1
1
1
1
1
1
1
1
1
1
1
1
1
1
1
1
1
1
1
1
1
1
1
1
1
1
1
1
1
1
1
1
1
1
1
1
1
1
1
1
1
1
1
1
1
1
1
1
1
1
1
1
1
1
1
1
1
1
1.00054
3.60707
9.17735
9.78288
9.73778
9.70596
9.66407
9.62197
9.57631
9.52912
9.47313
9.41683
9.36081
9.3075
9.24683
9.17638
9.10649
9.0459
8.98853
8.92322
8.8481
1
1
1
1
1
1
1
1
1
1
1
1
1
1
1
1
1
1
1
1
1
1
1
1
1
1
1
1
1
1
1
1
1
1
1
1
1
1
1
1
1
1
1
1
1
1
1
1
1
1
1
1
1
1
1
1
1
1
1
1
1
1
1
1
1
1
1
1
1
1
1
1
1
1
1
1
1.30146
7.52291
9.9559
9.85355
9.78851
9.75403
9.71613
9.66813
9.61593
9.56128
9.50635
9.4505
9.39378
9.33279
9.27145
9.21226
9.15192
9.08735
9.0169
8.94543
1
1
1
1
1
1
1
1
1
1
1
1
1
1
1
1
1
1
1
1
1
1
1
1
1
1
1
1
1
1
1
1
1
1
1
1
1
1
1
1
1
1
1
1
1
1
1
1
1
1
1
1
1
1
1
1
1
1
1
1
1
1
1
1
1
1
1
1
1
1
1
1
1
1
1
1
1.00266
4.72093
9.58823
9.84134
9.81292
9.78348
9.74283
9.6965
9.64996
9.60294
9.55575
9.50688
9.45647
9.4045
9.35273
9.30157
9.24674
9.18842
9.12487
9.06357
1
1
1
1
1
1
1
1
1
1
1
1
1
1
1
1
1
1
1
1
1
1
1
1
1
1
1
1
1
1
1
1
1
1
1
1
1
1
1
1
1
1
1
1
1
1
1
1
1
1
1
1
1
1
1
1
1
1
1
1
1
1
1
1
1
1
1
1
1
1
1
1
1
1
1
1
0.999998
2.1269
8.52291
10.0073
9.92686
9.87535
9.8214
9.77139
9.72466
9.67917
9.63479
9.59006
9.54337
9.49386
9.43972
9.38315
9.32641
9.2699
9.21244
9.15615
1
1
1
1
1
1
1
1
1
1
1
1
1
1
1
1
1
1
1
1
1
1
1
1
1
1
1
1
1
1
1
1
1
1
1
1
1
1
1
1
1
1
1
1
1
1
1
1
1
1
1
1
1
1
1
1
1
1
1
1
1
1
1
1
1
1
1
1
1
1
1
1
1
1
1
1
1
1.04449
6.32797
9.99742
10.0143
9.9385
9.88087
9.82699
9.77717
9.72884
9.68124
9.63382
9.58571
9.53675
9.48659
9.43544
9.3821
9.3277
9.27338
9.21846
1
1
1
1
1
1
1
1
1
1
1
1
1
1
1
1
1
1
1
1
1
1
1
1
1
1
1
1
1
1
1
1
1
1
1
1
1
1
1
1
1
1
1
1
1
1
1
1
1
1
1
1
1
1
1
1
1
1
1
1
1
1
1
1
1
1
1
1
1
1
1
1
1
1
1
1
1
1.00003
3.72408
9.39525
9.97501
9.92141
9.8941
9.85739
9.81703
9.77366
9.72851
9.68225
9.63496
9.58711
9.53859
9.48923
9.4398
9.38985
9.33955
9.28783
1
1
1
1
1
1
1
1
1
1
1
1
1
1
1
1
1
1
1
1
1
1
1
1
1
1
1
1
1
1
1
1
1
1
1
1
1
1
1
1
1
1
1
1
1
1
1
1
1
1
1
1
1
1
1
1
1
1
1
1
1
1
1
1
1
1
1
1
1
1
1
1
1
1
1
1
1
1
1.75485
8.21734
10.1247
10.0183
9.96695
9.91907
9.87314
9.82771
9.78139
9.73432
9.68664
9.6383
9.58969
9.54055
9.49187
9.44264
9.39305
9.34216
1
1
1
1
1
1
1
1
1
1
1
1
1
1
1
1
1
1
1
1
1
1
1
1
1
1
1
1
1
1
1
1
1
1
1
1
1
1
1
1
1
1
1
1
1
1
1
1
1
1
1
1
1
1
1
1
1
1
1
1
1
1
1
1
1
1
1
1
1
1
1
1
1
1
1
1
1
1
1.02184
6.27983
10.0645
10.0782
10.0197
9.97223
9.92216
9.87311
9.82423
9.7761
9.72849
9.6809
9.63333
9.58529
9.53744
9.48893
9.43962
9.38939
1
1
1
1
1
1
1
1
1
1
1
1
1
1
1
1
1
1
1
1
1
1
1
1
1
1
1
1
1
1
1
1
1
1
1
1
1
1
1
1
1
1
1
1
1
1
1
1
1
1
1
1
1
1
1
1
1
1
1
1
1
1
1
1
1
1
1
1
1
1
1
1
1
1
1
1
1
1
0.999999
4.10762
9.56447
10.0067
9.9671
9.95293
9.9203
9.88195
9.84251
9.80153
9.75907
9.71541
9.67094
9.62545
9.57956
9.5329
9.48516
9.43659
1
1
1
1
1
1
1
1
1
1
1
1
1
1
1
1
1
1
1
1
1
1
1
1
1
1
1
1
1
1
1
1
1
1
1
1
1
1
1
1
1
1
1
1
1
1
1
1
1
1
1
1
1
1
1
1
1
1
1
1
1
1
1
1
1
1
1
1
1
1
1
1
1
1
1
1
1
1
0.999999
2.26933
8.59834
10.1947
10.1139
10.0645
10.0136
9.96366
9.91822
9.87361
9.82844
9.78251
9.73592
9.68869
9.64114
9.59329
9.54478
9.49575
1
1
1
1
1
1
1
1
1
1
1
1
1
1
1
1
1
1
1
1
1
1
1
1
1
1
1
1
1
1
1
1
1
1
1
1
1
1
1
1
1
1
1
1
1
1
1
1
1
1
1
1
1
1
1
1
1
1
1
1
1
1
1
1
1
1
1
1
1
1
1
1
1
1
1
1
1
1
1
1.10174
7.12954
10.2628
10.1607
10.0824
10.0251
9.98189
9.94216
9.90152
9.85935
9.81535
9.77016
9.72411
9.67752
9.63061
9.5831
9.53494
1
1
1
1
1
1
1
1
1
1
1
1
1
1
1
1
1
1
1
1
1
1
1
1
1
1
1
1
1
1
1
1
1
1
1
1
1
1
1
1
1
1
1
1
1
1
1
1
1
1
1
1
1
1
1
1
1
1
1
1
1
1
1
1
1
1
1
1
1
1
1
1
1
1
1
1
1
1
1
1.00032
5.46236
10.0306
10.1365
10.097
10.0657
10.0256
9.98268
9.93908
9.89518
9.85027
9.80492
9.75906
9.71273
9.66605
9.61871
9.57078
1
1
1
1
1
1
1
1
1
1
1
1
1
1
1
1
1
1
1
1
1
1
1
1
1
1
1
1
1
1
1
1
1
1
1
1
1
1
1
1
1
1
1
1
1
1
1
1
1
1
1
1
1
1
1
1
1
1
1
1
1
1
1
1
1
1
1
1
1
1
1
1
1
1
1
1
1
1
1
0.999999
3.80393
9.56427
10.1486
10.1045
10.0799
10.0428
10.0033
9.96157
9.91878
9.87505
9.83092
9.78637
9.74134
9.6957
9.64925
9.60234
1
1
1
1
1
1
1
1
1
1
1
1
1
1
1
1
1
1
1
1
1
1
1
1
1
1
1
1
1
1
1
1
1
1
1
1
1
1
1
1
1
1
1
1
1
1
1
1
1
1
1
1
1
1
1
1
1
1
1
1
1
1
1
1
1
1
1
1
1
1
1
1
1
1
1
1
1
1
1
1
2.41051
8.83795
10.2703
10.1925
10.1541
10.1085
10.0625
10.016
9.96955
9.9234
9.87744
9.83129
9.78505
9.73848
9.69139
9.64414
1
1
1
1
1
1
1
1
1
1
1
1
1
1
1
1
1
1
1
1
1
1
1
1
1
1
1
1
1
1
1
1
1
1
1
1
1
1
1
1
1
1
1
1
1
1
1
1
1
1
1
1
1
1
1
1
1
1
1
1
1
1
1
1
1
1
1
1
1
1
1
1
1
1
1
1
1
1
1
1
1.4177
7.76639
10.3293
10.2256
10.1703
10.1248
10.0812
10.0374
9.99282
9.94807
9.90282
9.85718
9.81176
9.76602
9.71975
9.67335
1
1
1
1
1
1
1
1
1
1
1
1
1
1
1
1
1
1
1
1
1
1
1
1
1
1
1
1
1
1
1
1
1
1
1
1
1
1
1
1
1
1
1
1
1
1
1
1
1
1
1
1
1
1
1
1
1
1
1
1
1
1
1
1
1
1
1
1
1
1
1
1
1
1
1
1
1
1
1
1
1.00885
6.59919
10.2876
10.2567
10.1943
10.1472
10.1009
10.0565
10.0125
9.9687
9.92437
9.87949
9.8348
9.78982
9.74411
9.69827
1
1
1
1
1
1
1
1
1
1
1
1
1
1
1
1
1
1
1
1
1
1
1
1
1
1
1
1
1
1
1
1
1
1
1
1
1
1
1
1
1
1
1
1
1
1
1
1
1
1
1
1
1
1
1
1
1
1
1
1
1
1
1
1
1
1
1
1
1
1
1
1
1
1
1
1
1
1
1
1
1
5.35844
10.0826
10.2297
10.1784
10.1466
10.1076
10.0687
10.0281
9.98667
9.94447
9.90098
9.85727
9.81323
9.76812
9.72275
1
1
1
1
1
1
1
1
1
1
1
1
1
1
1
1
1
1
1
1
1
1
1
1
1
1
1
1
1
1
1
1
1
1
1
1
1
1
1
1
1
1
1
1
1
1
1
1
1
1
1
1
1
1
1
1
1
1
1
1
1
1
1
1
1
1
1
1
1
1
1
1
1
1
1
1
1
1
1
1
1
4.17412
9.78036
10.254
10.1976
10.1696
10.1324
10.0949
10.0551
10.014
9.97243
9.9292
9.88537
9.84097
9.79554
9.74984
1
1
1
1
1
1
1
1
1
1
1
1
1
1
1
1
1
1
1
1
1
1
1
1
1
1
1
1
1
1
1
1
1
1
1
1
1
1
1
1
1
1
1
1
1
1
1
1
1
1
1
1
1
1
1
1
1
1
1
1
1
1
1
1
1
1
1
1
1
1
1
1
1
1
1
1
1
1
1
1
1
3.15657
9.41213
10.2846
10.2157
10.1848
10.1454
10.1065
10.0655
10.0238
9.98175
9.93854
9.89475
9.85055
9.80603
9.76109
1
1
1
1
1
1
1
1
1
1
1
1
1
1
1
1
1
1
1
1
1
1
1
1
1
1
1
1
1
1
1
1
1
1
1
1
1
1
1
1
1
1
1
1
1
1
1
1
1
1
1
1
1
1
1
1
1
1
1
1
1
1
1
1
1
1
1
1
1
1
1
1
1
1
1
1
1
1
1
1
1
2.32572
8.92825
10.3218
10.2442
10.2095
10.1692
10.1303
10.0901
10.0498
10.0086
9.96682
9.92423
9.88093
9.83716
9.79285
1
1
1
1
1
1
1
1
1
1
1
1
1
1
1
1
1
1
1
1
1
1
1
1
1
1
1
1
1
1
1
1
1
1
1
1
1
1
1
1
1
1
1
1
1
1
1
1
1
1
1
1
1
1
1
1
1
1
1
1
1
1
1
1
1
1
1
1
1
1
1
1
1
1
1
1
1
1
1
1
1
1.73353
8.30739
10.3589
10.273
10.23
10.1866
10.1453
10.1037
10.0627
10.0212
9.97986
9.9373
9.89436
9.85119
9.80744
1
1
1
1
1
1
1
1
1
1
1
1
1
1
1
1
1
1
1
1
1
1
1
1
1
1
1
1
1
1
1
1
1
1
1
1
1
1
1
1
1
1
1
1
1
1
1
1
1
1
1
1
1
1
1
1
1
1
1
1
1
1
1
1
1
1
1
1
1
1
1
1
1
1
1
1
1
1
1
1
1
1.3789
7.66525
10.3666
10.2959
10.2501
10.2062
10.1641
10.1218
10.0803
10.0378
9.99586
9.95244
9.909
9.86532
9.82123
1
1
1
1
1
1
1
1
1
1
1
1
1
1
1
1
1
1
1
1
1
1
1
1
1
1
1
1
1
1
1
1
1
1
1
1
1
1
1
1
1
1
1
1
1
1
1
1
1
1
1
1
1
1
1
1
1
1
1
1
1
1
1
1
1
1
1
1
1
1
1
1
1
1
1
1
1
1
1
1
1
1.12636
7.03259
10.3354
10.3048
10.2542
10.213
10.1712
10.1298
10.0887
10.0469
10.0055
9.96296
9.92016
9.87682
9.83314
1
1
1
1
1
1
1
1
1
1
1
1
1
1
1
1
1
1
1
1
1
1
1
1
1
1
1
1
1
1
1
1
1
1
1
1
1
1
1
1
1
1
1
1
1
1
1
1
1
1
1
1
1
1
1
1
1
1
1
1
1
1
1
1
1
1
1
1
1
1
1
1
1
1
1
1
1
1
1
1
1
1.00214
6.48109
10.2819
10.31
10.2529
10.2185
10.1782
10.1383
10.0976
10.056
10.0144
9.9718
9.9287
9.88501
9.84113
1
1
1
1
1
1
1
1
1
1
1
1
1
1
1
1
1
1
1
1
1
1
1
1
1
1
1
1
1
1
1
1
1
1
1
1
1
1
1
1
1
1
1
1
1
1
1
1
1
1
1
1
1
1
1
1
1
1
1
1
1
1
1
1
1
1
1
1
1
1
1
1
1
1
1
1
1
1
1
1
1
1
5.89044
10.2241
10.3124
10.2548
10.2229
10.1839
10.1456
10.1058
10.0653
10.0243
9.98293
9.94069
9.89784
9.8548
1
1
1
1
1
1
1
1
1
1
1
1
1
1
1
1
1
1
1
1
1
1
1
1
1
1
1
1
1
1
1
1
1
1
1
1
1
1
1
1
1
1
1
1
1
1
1
1
1
1
1
1
1
1
1
1
1
1
1
1
1
1
1
1
1
1
1
1
1
1
1
1
1
1
1
1
1
1
1
1
1
1
5.38813
10.1681
10.3243
10.2634
10.2306
10.1914
10.1533
10.1135
10.0734
10.0322
9.99115
9.94899
9.90623
9.86319
1
1
1
1
1
1
1
1
1
1
1
1
1
1
1
1
1
1
1
1
1
1
1
1
1
1
1
1
1
1
1
1
1
1
1
1
1
1
1
1
1
1
1
1
1
1
1
1
1
1
1
1
1
1
1
1
1
1
1
1
1
1
1
1
1
1
1
1
1
1
1
1
1
1
1
1
1
1
1
1
1
1
4.9935
10.1069
10.337
10.2721
10.2378
10.1978
10.1591
10.1192
10.0791
10.0377
9.99688
9.95501
9.91254
9.86964
1
1
1
1
1
1
1
1
1
1
1
1
1
1
1
1
1
1
1
1
1
1
1
1
1
1
1
1
1
1
1
1
1
1
1
1
1
1
1
1
1
1
1
1
1
1
1
1
1
1
1
1
1
1
1
1
1
1
1
1
1
1
1
1
1
1
1
1
1
1
1
1
1
1
1
1
1
1
1
1
1
1
4.70334
10.0501
10.3477
10.2796
10.2442
10.2035
10.1642
10.1242
10.0841
10.0427
10.0017
9.96013
9.91788
9.87502
1
1
1
1
1
1
1
1
1
1
1
1
1
1
1
1
1
1
1
1
1
1
1
1
1
1
1
1
1
1
1
1
1
1
1
1
1
1
1
1
1
1
1
1
1
1
1
1
1
1
1