/*--------------------------------*- C++ -*----------------------------------*\
  =========                 |
  \\      /  F ield         | OpenFOAM: The Open Source CFD Toolbox
   \\    /   O peration     | Website:  https://openfoam.org
    \\  /    A nd           | Version:  7
     \\/     M anipulation  |
\*---------------------------------------------------------------------------*/
FoamFile
{
    version     2.0;
    format      ascii;
    class       volScalarField;
    location    "9";
    object      rho;
}
// * * * * * * * * * * * * * * * * * * * * * * * * * * * * * * * * * * * * * //

dimensions      [1 -3 0 0 0 0 0];

internalField   nonuniform List<scalar> 
19968
(
1.40001
1.40001
1.40001
1.40001
1.40001
1.40001
1.40001
1.40001
1.40001
1.40001
1.40001
1.40001
1.40001
1.40001
1.40001
1.40001
1.40001
1.40001
1.40001
1.40001
1.40001
1.40001
1.40001
1.40001
1.40001
1.40001
1.40001
1.40001
1.40001
1.40001
1.40001
1.40001
1.40001
1.40001
1.40001
1.40001
1.40001
1.40001
1.40001
1.40001
1.40001
1.40001
1.40001
1.40001
1.40001
1.40001
1.40001
1.40001
1.73006
4.60202
5.42585
5.42865
5.4584
5.48227
5.50589
5.52693
5.54594
5.56417
5.58266
5.60191
5.62196
5.6419
5.6606
5.67806
5.69496
5.71145
5.7276
5.744
5.76098
5.77813
5.7948
5.81051
5.82498
5.8383
5.85085
5.86303
5.87512
5.88728
5.8995
5.91156
5.92305
5.93361
5.94315
5.95186
5.96008
5.96808
5.97589
5.98333
5.99012
5.996
6.00077
6.00432
6.00664
6.00781
6.00836
6.00869
1.40001
1.40001
1.40001
1.40001
1.40001
1.40001
1.40001
1.40001
1.40001
1.40001
1.40001
1.40001
1.40001
1.40001
1.40001
1.40001
1.40001
1.40001
1.40001
1.40001
1.40001
1.40001
1.40001
1.40001
1.40001
1.40001
1.40001
1.40001
1.40001
1.40001
1.40001
1.40001
1.40001
1.40001
1.40001
1.40001
1.40001
1.40001
1.40001
1.40001
1.40001
1.40001
1.40001
1.40001
1.40001
1.40001
1.40001
1.40001
1.70916
4.57056
5.41602
5.43181
5.45997
5.48312
5.50595
5.52662
5.5455
5.56369
5.58219
5.60132
5.62118
5.64089
5.65947
5.67692
5.69377
5.71028
5.72652
5.74308
5.76019
5.77739
5.79403
5.80963
5.82395
5.83711
5.84951
5.86155
5.87348
5.88549
5.89763
5.90969
5.92126
5.93193
5.94155
5.95027
5.95843
5.96633
5.97403
5.98136
5.98804
5.9938
5.99845
6.00188
6.00413
6.00528
6.00581
6.00616
1.40001
1.40001
1.40001
1.40001
1.40001
1.40001
1.40001
1.40001
1.40001
1.40001
1.40001
1.40001
1.40001
1.40001
1.40001
1.40001
1.40001
1.40001
1.40001
1.40001
1.40001
1.40001
1.40001
1.40001
1.40001
1.40001
1.40001
1.40001
1.40001
1.40001
1.40001
1.40001
1.40001
1.40001
1.40001
1.40001
1.40001
1.40001
1.40001
1.40001
1.40001
1.40001
1.40001
1.40001
1.40001
1.40001
1.40001
1.40001
1.66539
4.51057
5.41267
5.43132
5.4582
5.48109
5.50355
5.52408
5.54304
5.56142
5.58022
5.59953
5.61947
5.639
5.65724
5.67444
5.69097
5.70742
5.72381
5.74067
5.75802
5.77533
5.79196
5.80746
5.82166
5.83472
5.847
5.85884
5.87049
5.88221
5.89414
5.90615
5.91783
5.92871
5.93849
5.94727
5.95538
5.96317
5.97078
5.97805
5.98467
5.99036
5.99492
5.99827
6.00046
6.00163
6.00219
6.00258
1.40001
1.40001
1.40001
1.40001
1.40001
1.40001
1.40001
1.40001
1.40001
1.40001
1.40001
1.40001
1.40001
1.40001
1.40001
1.40001
1.40001
1.40001
1.40001
1.40001
1.40001
1.40001
1.40001
1.40001
1.40001
1.40001
1.40001
1.40001
1.40001
1.40001
1.40001
1.40001
1.40001
1.40001
1.40001
1.40001
1.40001
1.40001
1.40001
1.40001
1.40001
1.40001
1.40001
1.40001
1.40001
1.40001
1.40001
1.40001
1.60448
4.41406
5.4103
5.43118
5.4548
5.47738
5.49963
5.52039
5.53966
5.5583
5.57741
5.59697
5.61705
5.63639
5.65422
5.67106
5.6872
5.70356
5.72011
5.7373
5.75488
5.77224
5.78876
5.8041
5.81814
5.83107
5.84318
5.85475
5.86604
5.87739
5.88904
5.90097
5.91275
5.9238
5.93371
5.94248
5.95042
5.95795
5.96527
5.97229
5.97872
5.98428
5.98878
5.99214
5.99444
5.99579
5.99652
5.9971
1.40001
1.40001
1.40001
1.40001
1.40001
1.40001
1.40001
1.40001
1.40001
1.40001
1.40001
1.40001
1.40001
1.40001
1.40001
1.40001
1.40001
1.40001
1.40001
1.40001
1.40001
1.40001
1.40001
1.40001
1.40001
1.40001
1.40001
1.40001
1.40001
1.40001
1.40001
1.40001
1.40001
1.40001
1.40001
1.40001
1.40001
1.40001
1.40001
1.40001
1.40001
1.40001
1.40001
1.40001
1.40001
1.40001
1.40001
1.40001
1.5306
4.28786
5.40969
5.43018
5.44992
5.47253
5.49473
5.51587
5.53563
5.55477
5.57427
5.594
5.61389
5.63267
5.64977
5.66611
5.6819
5.69829
5.7151
5.73266
5.75043
5.76777
5.78417
5.7994
5.8134
5.82632
5.83834
5.84967
5.86059
5.87154
5.88292
5.89477
5.90668
5.91798
5.92814
5.93701
5.94487
5.95211
5.95899
5.96548
5.97138
5.97642
5.98047
5.98349
5.98557
5.98686
5.98757
5.98819
1.40001
1.40001
1.40001
1.40001
1.40001
1.40001
1.40001
1.40001
1.40001
1.40001
1.40001
1.40001
1.40001
1.40001
1.40001
1.40001
1.40001
1.40001
1.40001
1.40001
1.40001
1.40001
1.40001
1.40001
1.40001
1.40001
1.40001
1.40001
1.40001
1.40001
1.40001
1.40001
1.40001
1.40001
1.40001
1.40001
1.40001
1.40001
1.40001
1.40001
1.40001
1.40001
1.40001
1.40001
1.40001
1.40001
1.40001
1.40001
1.41446
4.09891
5.40724
5.42895
5.44695
5.46935
5.49103
5.51224
5.53238
5.55228
5.57239
5.59214
5.61121
5.62863
5.64431
5.65982
5.67522
5.69178
5.70885
5.72651
5.74403
5.76087
5.77676
5.79164
5.80548
5.81829
5.83013
5.8411
5.85152
5.86194
5.87286
5.88445
5.89631
5.90775
5.91814
5.92724
5.9352
5.94238
5.94904
5.95526
5.96092
5.96582
5.96984
5.97292
5.97511
5.97655
5.97737
5.97811
1.40001
1.40001
1.40001
1.40001
1.40001
1.40001
1.40001
1.40001
1.40001
1.40001
1.40001
1.40001
1.40001
1.40001
1.40001
1.40001
1.40001
1.40001
1.40001
1.40001
1.40001
1.40001
1.40001
1.40001
1.40001
1.40001
1.40001
1.40001
1.40001
1.40001
1.40001
1.40001
1.40001
1.40001
1.40001
1.40001
1.40001
1.40001
1.40001
1.40001
1.40001
1.40001
1.40001
1.40001
1.40001
1.40001
1.40001
1.40001
1.40013
3.81197
5.37084
5.40972
5.42936
5.45292
5.47541
5.49753
5.51856
5.53946
5.56039
5.58058
5.59936
5.61589
5.63057
5.64546
5.66063
5.67747
5.69492
5.71285
5.73035
5.74695
5.76261
5.77748
5.79152
5.80459
5.81657
5.82749
5.83768
5.84778
5.8584
5.86977
5.88158
5.89315
5.90383
5.91328
5.92149
5.9287
5.93518
5.94107
5.9464
5.95108
5.95502
5.95813
5.96039
5.96196
5.96283
5.96364
1.40001
1.40001
1.40001
1.40001
1.40001
1.40001
1.40001
1.40001
1.40001
1.40001
1.40001
1.40001
1.40001
1.40001
1.40001
1.40001
1.40001
1.40001
1.40001
1.40001
1.40001
1.40001
1.40001
1.40001
1.40001
1.40001
1.40001
1.40001
1.40001
1.40001
1.40001
1.40001
1.40001
1.40001
1.40001
1.40001
1.40001
1.40001
1.40001
1.40001
1.40001
1.40001
1.40001
1.40001
1.40001
1.40001
1.40001
1.40001
1.40001
3.4248
5.31343
5.40225
5.42283
5.44596
5.46792
5.48995
5.51095
5.53172
5.55257
5.57272
5.59111
5.60695
5.62083
5.63499
5.64959
5.66605
5.68316
5.70067
5.7176
5.73359
5.74877
5.76342
5.77741
5.79041
5.8022
5.81277
5.8225
5.8321
5.84225
5.85324
5.86482
5.87634
5.88714
5.89678
5.90513
5.91228
5.91847
5.92393
5.92884
5.9332
5.93698
5.94005
5.94229
5.94385
5.94462
5.9454
1.40001
1.40001
1.40001
1.40001
1.40001
1.40001
1.40001
1.40001
1.40001
1.40001
1.40001
1.40001
1.40001
1.40001
1.40001
1.40001
1.40001
1.40001
1.40001
1.40001
1.40001
1.40001
1.40001
1.40001
1.40001
1.40001
1.40001
1.40001
1.40001
1.40001
1.40001
1.40001
1.40001
1.40001
1.40001
1.40001
1.40001
1.40001
1.40001
1.40001
1.40001
1.40001
1.40001
1.40001
1.40001
1.40001
1.40001
1.40001
1.40001
2.95587
5.21626
5.40027
5.41838
5.44082
5.46188
5.4831
5.50317
5.52309
5.54346
5.56341
5.58154
5.59697
5.61023
5.62369
5.63755
5.65311
5.66932
5.68576
5.70154
5.71647
5.73084
5.74499
5.75866
5.77137
5.78279
5.7929
5.8021
5.81113
5.82072
5.83121
5.8424
5.85368
5.86438
5.874
5.88234
5.8894
5.89541
5.90064
5.90534
5.90958
5.91333
5.91643
5.91865
5.92016
5.92074
5.92144
1.40001
1.40001
1.40001
1.40001
1.40001
1.40001
1.40001
1.40001
1.40001
1.40001
1.40001
1.40001
1.40001
1.40001
1.40001
1.40001
1.40001
1.40001
1.40001
1.40001
1.40001
1.40001
1.40001
1.40001
1.40001
1.40001
1.40001
1.40001
1.40001
1.40001
1.40001
1.40001
1.40001
1.40001
1.40001
1.40001
1.40001
1.40001
1.40001
1.40001
1.40001
1.40001
1.40001
1.40001
1.40001
1.40001
1.40001
1.40001
1.40001
2.42269
5.04134
5.40337
5.42162
5.44393
5.46294
5.48165
5.49913
5.51704
5.53615
5.55547
5.57332
5.5885
5.60128
5.61397
5.62691
5.64119
5.65624
5.6714
5.68575
5.69927
5.71241
5.72556
5.7384
5.75018
5.76059
5.76962
5.77772
5.78569
5.79432
5.80404
5.81466
5.82559
5.83608
5.84559
5.8538
5.86071
5.86651
5.87148
5.87587
5.87978
5.88321
5.88594
5.88776
5.88883
5.88894
5.88937
1.40001
1.40001
1.40001
1.40001
1.40001
1.40001
1.40001
1.40001
1.40001
1.40001
1.40001
1.40001
1.40001
1.40001
1.40001
1.40001
1.40001
1.40001
1.40001
1.40001
1.40001
1.40001
1.40001
1.40001
1.40001
1.40001
1.40001
1.40001
1.40001
1.40001
1.40001
1.40001
1.40001
1.40001
1.40001
1.40001
1.40001
1.40001
1.40001
1.40001
1.40001
1.40001
1.40001
1.40001
1.40001
1.40001
1.40001
1.40001
1.40001
1.88444
4.73524
5.42034
5.41335
5.43649
5.45223
5.46961
5.48661
5.50417
5.52297
5.54223
5.56043
5.57623
5.58951
5.60219
5.6149
5.62828
5.64221
5.65613
5.66921
5.68143
5.69337
5.70545
5.71747
5.72845
5.73789
5.74571
5.75244
5.75888
5.76592
5.77405
5.78318
5.7927
5.80182
5.80992
5.81672
5.82237
5.82718
5.83154
5.83572
5.8397
5.84328
5.84606
5.84774
5.84853
5.84829
5.84858
1.40001
1.40001
1.40001
1.40001
1.40001
1.40001
1.40001
1.40001
1.40001
1.40001
1.40001
1.40001
1.40001
1.40001
1.40001
1.40001
1.40001
1.40001
1.40001
1.40001
1.40001
1.40001
1.40001
1.40001
1.40001
1.40001
1.40001
1.40001
1.40001
1.40001
1.40001
1.40001
1.40001
1.40001
1.40001
1.40001
1.40001
1.40001
1.40001
1.40001
1.40001
1.40001
1.40001
1.40001
1.40001
1.40001
1.40001
1.40001
1.40001
1.42489
4.10433
5.41283
5.41587
5.4319
5.44757
5.46404
5.47989
5.49545
5.51193
5.52957
5.54705
5.56283
5.57622
5.58816
5.59962
5.61118
5.62325
5.63552
5.64703
5.65747
5.66768
5.67809
5.68875
5.69865
5.70705
5.71378
5.7193
5.7244
5.72999
5.73666
5.74444
5.75276
5.76076
5.7677
5.77334
5.77782
5.78156
5.78494
5.78815
5.79095
5.79299
5.79372
5.79318
5.79219
5.79083
5.79046
1.40001
1.40001
1.40001
1.40001
1.40001
1.40001
1.40001
1.40001
1.40001
1.40001
1.40001
1.40001
1.40001
1.40001
1.40001
1.40001
1.40001
1.40001
1.40001
1.40001
1.40001
1.40001
1.40001
1.40001
1.40001
1.40001
1.40001
1.40001
1.40001
1.40001
1.40001
1.40001
1.40001
1.40001
1.40001
1.40001
1.40001
1.40001
1.40001
1.40001
1.40001
1.40001
1.40001
1.40001
1.40001
1.40001
1.40001
1.40001
1.40001
1.40005
3.20705
5.2508
5.36758
5.39013
5.41152
5.43045
5.44795
5.46405
5.48001
5.4966
5.51329
5.52889
5.54261
5.55468
5.56608
5.57749
5.5892
5.60088
5.61195
5.6217
5.63095
5.64032
5.64989
5.65899
5.66667
5.67265
5.67722
5.6811
5.68507
5.68979
5.69549
5.70169
5.70743
5.7118
5.71452
5.71573
5.71598
5.71604
5.71653
5.71747
5.71851
5.71914
5.71893
5.71868
5.7179
5.71782
1.40001
1.40001
1.40001
1.40001
1.40001
1.40001
1.40001
1.40001
1.40001
1.40001
1.40001
1.40001
1.40001
1.40001
1.40001
1.40001
1.40001
1.40001
1.40001
1.40001
1.40001
1.40001
1.40001
1.40001
1.40001
1.40001
1.40001
1.40001
1.40001
1.40001
1.40001
1.40001
1.40001
1.40001
1.40001
1.40001
1.40001
1.40001
1.40001
1.40001
1.40001
1.40001
1.40001
1.40001
1.40001
1.40001
1.40001
1.40001
1.40001
1.4
2.17498
4.89207
5.37665
5.38128
5.402
5.41909
5.43524
5.4502
5.46482
5.47956
5.49421
5.50805
5.52044
5.53137
5.54152
5.55156
5.5619
5.57216
5.58189
5.59033
5.59774
5.60508
5.61241
5.61943
5.62519
5.62936
5.63202
5.63375
5.63506
5.63658
5.63882
5.64163
5.64405
5.6454
5.6454
5.64361
5.6409
5.63829
5.63605
5.63396
5.6309
5.62649
5.61973
5.61202
5.6041
5.597
1.40001
1.40001
1.40001
1.40001
1.40001
1.40001
1.40001
1.40001
1.40001
1.40001
1.40001
1.40001
1.40001
1.40001
1.40001
1.40001
1.40001
1.40001
1.40001
1.40001
1.40001
1.40001
1.40001
1.40001
1.40001
1.40001
1.40001
1.40001
1.40001
1.40001
1.40001
1.40001
1.40001
1.40001
1.40001
1.40001
1.40001
1.40001
1.40001
1.40001
1.40001
1.40001
1.40001
1.40001
1.40001
1.40001
1.40001
1.40001
1.40001
1.40001
1.44325
3.97204
5.39343
5.3952
5.40591
5.41507
5.42494
5.43491
5.44511
5.45578
5.46689
5.47797
5.48827
5.49766
5.50626
5.51439
5.52273
5.53132
5.53948
5.54672
5.55252
5.55784
5.56303
5.56771
5.57123
5.57325
5.57391
5.57345
5.57182
5.56963
5.56749
5.56548
5.56311
5.55969
5.55402
5.546
5.53602
5.52416
5.51011
5.49386
5.47603
5.45794
5.44316
5.43144
5.4272
5.42512
1.40001
1.40001
1.40001
1.40001
1.40001
1.40001
1.40001
1.40001
1.40001
1.40001
1.40001
1.40001
1.40001
1.40001
1.40001
1.40001
1.40001
1.40001
1.40001
1.40001
1.40001
1.40001
1.40001
1.40001
1.40001
1.40001
1.40001
1.40001
1.40001
1.40001
1.40001
1.40001
1.40001
1.40001
1.40001
1.40001
1.40001
1.40001
1.40001
1.40001
1.40001
1.40001
1.40001
1.40001
1.40001
1.40001
1.40001
1.40001
1.40001
1.40001
1.40006
2.61168
5.08535
5.36094
5.36411
5.3738
5.38539
5.39741
5.40893
5.42
5.43067
5.44107
5.45099
5.46011
5.4683
5.47553
5.48202
5.48807
5.49342
5.49791
5.50147
5.50453
5.50767
5.50992
5.51072
5.51012
5.50798
5.5045
5.49944
5.49262
5.48494
5.47624
5.46619
5.45441
5.4405
5.42451
5.40616
5.38476
5.35978
5.33211
5.30351
5.27585
5.24298
5.20658
5.15455
5.17543
1.40001
1.40001
1.40001
1.40001
1.40001
1.40001
1.40001
1.40001
1.40001
1.40001
1.40001
1.40001
1.40001
1.40001
1.40001
1.40001
1.40001
1.40001
1.40001
1.40001
1.40001
1.40001
1.40001
1.40001
1.40001
1.40001
1.40001
1.40001
1.40001
1.40001
1.40001
1.40001
1.40001
1.40001
1.40001
1.40001
1.40001
1.40001
1.40001
1.40001
1.40001
1.40001
1.40001
1.40001
1.40001
1.40001
1.40001
1.40001
1.40001
1.40001
1.40001
1.55278
4.3822
5.38215
5.36434
5.36724
5.37382
5.38159
5.38935
5.39709
5.40478
5.41276
5.42104
5.42904
5.43624
5.44214
5.44619
5.44875
5.45058
5.45188
5.45309
5.45396
5.4545
5.45416
5.45259
5.44911
5.44367
5.43657
5.42759
5.41673
5.40407
5.38899
5.37094
5.34994
5.32624
5.29995
5.26978
5.23354
5.18752
5.12967
5.054
4.95624
4.81083
4.58755
4.18633
3.28881
1.40001
1.40001
1.40001
1.40001
1.40001
1.40001
1.40001
1.40001
1.40001
1.40001
1.40001
1.40001
1.40001
1.40001
1.40001
1.40001
1.40001
1.40001
1.40001
1.40001
1.40001
1.40001
1.40001
1.40001
1.40001
1.40001
1.40001
1.40001
1.40001
1.40001
1.40001
1.40001
1.40001
1.40001
1.40001
1.40001
1.40001
1.40001
1.40001
1.40001
1.40001
1.40001
1.40001
1.40001
1.40001
1.40001
1.40001
1.40001
1.40001
1.40001
1.4
1.40108
3.24311
5.21592
5.31516
5.33234
5.34542
5.35603
5.36452
5.37194
5.37811
5.38323
5.38808
5.39361
5.40011
5.40647
5.41088
5.41247
5.41198
5.41052
5.40912
5.40783
5.4061
5.40342
5.39964
5.39354
5.38541
5.37511
5.36266
5.34813
5.33125
5.31106
5.28658
5.25766
5.22428
5.18712
5.14396
5.09293
5.02684
4.94315
4.82942
4.68519
4.4796
4.21635
3.67754
2.92121
1.40001
1.40001
1.40001
1.40001
1.40001
1.40001
1.40001
1.40001
1.40001
1.40001
1.40001
1.40001
1.40001
1.40001
1.40001
1.40001
1.40001
1.40001
1.40001
1.40001
1.40001
1.40001
1.40001
1.40001
1.40001
1.40001
1.40001
1.40001
1.40001
1.40001
1.40001
1.40001
1.40001
1.40001
1.40001
1.40001
1.40001
1.40001
1.40001
1.40001
1.40001
1.40001
1.40001
1.40001
1.40001
1.40001
1.40001
1.40001
1.40001
1.40001
1.40001
1.4
1.98465
4.75668
5.31772
5.31832
5.332
5.34328
5.35247
5.35905
5.36378
5.36672
5.36855
5.37069
5.37467
5.37929
5.38225
5.38163
5.37808
5.37323
5.36883
5.36506
5.36049
5.35471
5.34741
5.338
5.32657
5.3127
5.29637
5.2776
5.25582
5.23027
5.19953
5.16343
5.12082
5.07292
5.017
4.95206
4.87047
4.76765
4.63402
4.46172
4.24204
3.92714
3.47999
2.96356
1.40001
1.40001
1.40001
1.40001
1.40001
1.40001
1.40001
1.40001
1.40001
1.40001
1.40001
1.40001
1.40001
1.40001
1.40001
1.40001
1.40001
1.40001
1.40001
1.40001
1.40001
1.40001
1.40001
1.40001
1.40001
1.40001
1.40001
1.40001
1.40001
1.40001
1.40001
1.40001
1.40001
1.40001
1.40001
1.40001
1.40001
1.40001
1.40001
1.40001
1.40001
1.40001
1.40001
1.40001
1.40001
1.40001
1.40001
1.40001
1.40001
1.40001
1.40001
1.4
1.42636
3.59179
5.22447
5.29742
5.31614
5.32771
5.33527
5.34035
5.3451
5.34803
5.34855
5.34867
5.34972
5.35116
5.35112
5.34779
5.34154
5.33424
5.32759
5.32133
5.31406
5.30486
5.29344
5.28027
5.26521
5.24788
5.22794
5.20519
5.17863
5.14793
5.11148
5.06937
5.01958
4.96296
4.89706
4.82064
4.7286
4.6152
4.47464
4.29563
4.07555
3.78843
3.45619
3.06672
1.40001
1.40001
1.40001
1.40001
1.40001
1.40001
1.40001
1.40001
1.40001
1.40001
1.40001
1.40001
1.40001
1.40001
1.40001
1.40001
1.40001
1.40001
1.40001
1.40001
1.40001
1.40001
1.40001
1.40001
1.40001
1.40001
1.40001
1.40001
1.40001
1.40001
1.40001
1.40001
1.40001
1.40001
1.40001
1.40001
1.40001
1.40001
1.40001
1.40001
1.40001
1.40001
1.40001
1.40001
1.40001
1.40001
1.40001
1.40001
1.40001
1.40001
1.40001
1.40001
1.4
2.12761
4.82667
5.29375
5.29824
5.31118
5.31671
5.32094
5.3246
5.32505
5.32507
5.32681
5.32815
5.32839
5.32524
5.31833
5.30861
5.29826
5.28871
5.27986
5.27019
5.25802
5.24266
5.2251
5.20546
5.18395
5.15998
5.13338
5.10267
5.06748
5.0262
4.97903
4.92413
4.86143
4.78909
4.70535
4.60719
4.48996
4.35152
4.17797
3.97851
3.73625
3.4736
3.17745
1.40001
1.40001
1.40001
1.40001
1.40001
1.40001
1.40001
1.40001
1.40001
1.40001
1.40001
1.40001
1.40001
1.40001
1.40001
1.40001
1.40001
1.40001
1.40001
1.40001
1.40001
1.40001
1.40001
1.40001
1.40001
1.40001
1.40001
1.40001
1.40001
1.40001
1.40001
1.40001
1.40001
1.40001
1.40001
1.40001
1.40001
1.40001
1.40001
1.40001
1.40001
1.40001
1.40001
1.40001
1.40001
1.40001
1.40001
1.40001
1.40001
1.40001
1.40001
1.40001
1.4
1.4381
3.61394
5.20471
5.28125
5.30028
5.30527
5.30615
5.30677
5.30361
5.30043
5.30086
5.30186
5.30121
5.29714
5.28914
5.27796
5.26524
5.25257
5.241
5.22878
5.21394
5.19556
5.17413
5.14959
5.12306
5.09437
5.06366
5.02934
4.9904
4.94522
4.894
4.83575
4.76986
4.69467
4.60807
4.50833
4.39142
4.25744
4.09903
3.92379
3.72006
3.50598
3.26875
1.40001
1.40001
1.40001
1.40001
1.40001
1.40001
1.40001
1.40001
1.40001
1.40001
1.40001
1.40001
1.40001
1.40001
1.40001
1.40001
1.40001
1.40001
1.40001
1.40001
1.40001
1.40001
1.40001
1.40001
1.40001
1.40001
1.40001
1.40001
1.40001
1.40001
1.40001
1.40001
1.40001
1.40001
1.40001
1.40001
1.40001
1.40001
1.40001
1.40001
1.40001
1.40001
1.40001
1.40001
1.40001
1.40001
1.40001
1.40001
1.40001
1.40001
1.40001
1.40001
1.40001
1.40004
2.02715
4.75668
5.29286
5.2774
5.28181
5.28461
5.28333
5.2779
5.27269
5.27104
5.27082
5.26905
5.26464
5.25701
5.24563
5.23099
5.21575
5.20131
5.18604
5.16967
5.15022
5.12696
5.09915
5.06788
5.03405
4.99869
4.96062
4.91839
4.87017
4.81623
4.75617
4.68921
4.61381
4.52777
4.43085
4.31649
4.19031
4.04604
3.89166
3.71935
3.53866
3.33984
1.40001
1.40001
1.40001
1.40001
1.40001
1.40001
1.40001
1.40001
1.40001
1.40001
1.40001
1.40001
1.40001
1.40001
1.40001
1.40001
1.40001
1.40001
1.40001
1.40001
1.40001
1.40001
1.40001
1.40001
1.40001
1.40001
1.40001
1.40001
1.40001
1.40001
1.40001
1.40001
1.40001
1.40001
1.40001
1.40001
1.40001
1.40001
1.40001
1.40001
1.40001
1.40001
1.40001
1.40001
1.40001
1.40001
1.40001
1.40001
1.40001
1.40001
1.40001
1.40001
1.40001
1.40001
1.42587
3.3588
5.1362
5.25123
5.24897
5.25475
5.25587
5.25217
5.24841
5.24583
5.24378
5.24098
5.23551
5.2278
5.21695
5.2008
5.18328
5.16526
5.14623
5.12749
5.1068
5.08278
5.05369
5.01951
4.98148
4.94163
4.89943
4.85361
4.80257
4.7465
4.6853
4.61829
4.54444
4.46118
4.3695
4.26115
4.14343
4.01147
3.87654
3.72471
3.567
3.39544
1.40001
1.40001
1.40001
1.40001
1.40001
1.40001
1.40001
1.40001
1.40001
1.40001
1.40001
1.40001
1.40001
1.40001
1.40001
1.40001
1.40001
1.40001
1.40001
1.40001
1.40001
1.40001
1.40001
1.40001
1.40001
1.40001
1.40001
1.40001
1.40001
1.40001
1.40001
1.40001
1.40001
1.40001
1.40001
1.40001
1.40001
1.40001
1.40001
1.40001
1.40001
1.40001
1.40001
1.40001
1.40001
1.40001
1.40001
1.40001
1.40001
1.40001
1.40001
1.40001
1.40001
1.40001
1.40002
1.72533
4.51236
5.27971
5.24836
5.24311
5.23304
5.22452
5.21837
5.21387
5.2097
5.20551
5.19888
5.19035
5.18005
5.16401
5.14525
5.12534
5.10368
5.08296
5.06099
5.03716
5.00883
4.9744
4.93466
4.89195
4.84599
4.79685
4.74388
4.68646
4.62462
4.55783
4.486
4.40563
4.31926
4.21884
4.10889
3.99155
3.87005
3.731
3.59237
3.44565
1.40001
1.40001
1.40001
1.40001
1.40001
1.40001
1.40001
1.40001
1.40001
1.40001
1.40001
1.40001
1.40001
1.40001
1.40001
1.40001
1.40001
1.40001
1.40001
1.40001
1.40001
1.40001
1.40001
1.40001
1.40001
1.40001
1.40001
1.40001
1.40001
1.40001
1.40001
1.40001
1.40001
1.40001
1.40001
1.40001
1.40001
1.40001
1.40001
1.40001
1.40001
1.40001
1.40001
1.40001
1.40001
1.40001
1.40001
1.40001
1.40001
1.40001
1.40001
1.40001
1.40001
1.40001
1.40001
1.40585
2.91964
5.02686
5.18764
5.1978
5.20023
5.19388
5.18775
5.18282
5.17694
5.17069
5.1627
5.15245
5.14166
5.12587
5.1066
5.0857
5.06312
5.04096
5.01725
4.9927
4.96458
4.93058
4.89129
4.84788
4.79926
4.74787
4.69389
4.63573
4.57386
4.50738
4.4377
4.35957
4.27767
4.18504
4.08426
3.98004
3.86546
3.74147
3.62094
3.4921
1.40001
1.40001
1.40001
1.40001
1.40001
1.40001
1.40001
1.40001
1.40001
1.40001
1.40001
1.40001
1.40001
1.40001
1.40001
1.40001
1.40001
1.40001
1.40001
1.40001
1.40001
1.40001
1.40001
1.40001
1.40001
1.40001
1.40001
1.40001
1.40001
1.40001
1.40001
1.40001
1.40001
1.40001
1.40001
1.40001
1.40001
1.40001
1.40001
1.40001
1.40001
1.40001
1.40001
1.40001
1.40001
1.40001
1.40001
1.40001
1.40001
1.40001
1.40001
1.40001
1.40001
1.40001
1.40001
1.40001
1.55156
3.95432
5.20144
5.18473
5.17725
5.17019
5.16516
5.16069
5.15492
5.14704
5.1369
5.12339
5.10943
5.09136
5.07043
5.04817
5.02514
5.00187
4.97652
4.95031
4.92119
4.88771
4.84936
4.80706
4.75789
4.70632
4.65263
4.59482
4.53401
4.46813
4.40029
4.32323
4.24444
4.15836
4.06608
3.96864
3.86179
3.75699
3.64762
3.53021
1.40001
1.40001
1.40001
1.40001
1.40001
1.40001
1.40001
1.40001
1.40001
1.40001
1.40001
1.40001
1.40001
1.40001
1.40001
1.40001
1.40001
1.40001
1.40001
1.40001
1.40001
1.40001
1.40001
1.40001
1.40001
1.40001
1.40001
1.40001
1.40001
1.40001
1.40001
1.40001
1.40001
1.40001
1.40001
1.40001
1.40001
1.40001
1.40001
1.40001
1.40001
1.40001
1.40001
1.40001
1.40001
1.40001
1.40001
1.40001
1.40001
1.40001
1.40001
1.40001
1.40001
1.40001
1.40001
1.40001
1.40113
2.10759
4.76028
5.18031
5.14929
5.14762
5.14196
5.13622
5.13001
5.12095
5.10907
5.09308
5.07586
5.05675
5.03444
5.01119
4.98764
4.96377
4.93778
4.91007
4.87984
4.84657
4.80757
4.76561
4.71824
4.66852
4.61613
4.55996
4.50084
4.43654
4.37104
4.29538
4.2197
4.13869
4.05208
3.95963
3.86491
3.77206
3.6673
3.56171
1.40001
1.40001
1.40001
1.40001
1.40001
1.40001
1.40001
1.40001
1.40001
1.40001
1.40001
1.40001
1.40001
1.40001
1.40001
1.40001
1.40001
1.40001
1.40001
1.40001
1.40001
1.40001
1.40001
1.40001
1.40001
1.40001
1.40001
1.40001
1.40001
1.40001
1.40001
1.40001
1.40001
1.40001
1.40001
1.40001
1.40001
1.40001
1.40001
1.40001
1.40001
1.40001
1.40001
1.40001
1.40001
1.40001
1.40001
1.40001
1.40001
1.40001
1.40001
1.40001
1.40001
1.40001
1.40001
1.40001
1.40001
1.42981
3.09312
5.04103
5.12945
5.12858
5.12606
5.11904
5.11134
5.10024
5.08604
5.06738
5.04688
5.02646
5.00243
4.97775
4.95347
4.92881
4.9023
4.87368
4.84232
4.80922
4.76985
4.72722
4.68203
4.63339
4.5828
4.52943
4.47288
4.41145
4.34839
4.2761
4.20355
4.12558
4.04304
3.95701
3.87178
3.78199
3.68476
3.59171
1.40001
1.40001
1.40001
1.40001
1.40001
1.40001
1.40001
1.40001
1.40001
1.40001
1.40001
1.40001
1.40001
1.40001
1.40001
1.40001
1.40001
1.40001
1.40001
1.40001
1.40001
1.40001
1.40001
1.40001
1.40001
1.40001
1.40001
1.40001
1.40001
1.40001
1.40001
1.40001
1.40001
1.40001
1.40001
1.40001
1.40001
1.40001
1.40001
1.40001
1.40001
1.40001
1.40001
1.40001
1.40001
1.40001
1.40001
1.40001
1.40001
1.40001
1.40001
1.40001
1.40001
1.40001
1.40001
1.40001
1.40001
1.40007
1.57728
3.78842
5.09022
5.13282
5.11911
5.11139
5.10004
5.08563
5.06873
5.04769
5.02528
5.00311
4.97737
4.95051
4.92445
4.89829
4.8703
4.84071
4.80864
4.77595
4.73684
4.69451
4.64951
4.6018
4.55206
4.49964
4.44553
4.38759
4.32746
4.26059
4.19168
4.11705
4.03939
3.95951
3.87915
3.79219
3.70432
3.61963
1.40001
1.40001
1.40001
1.40001
1.40001
1.40001
1.40001
1.40001
1.40001
1.40001
1.40001
1.40001
1.40001
1.40001
1.40001
1.40001
1.40001
1.40001
1.40001
1.40001
1.40001
1.40001
1.40001
1.40001
1.40001
1.40001
1.40001
1.40001
1.40001
1.40001
1.40001
1.40001
1.40001
1.40001
1.40001
1.40001
1.40001
1.40001
1.40001
1.40001
1.40001
1.40001
1.40001
1.40001
1.40001
1.40001
1.40001
1.40001
1.40001
1.40001
1.40001
1.40001
1.40001
1.40001
1.40001
1.40001
1.40001
1.40001
1.40165
1.80142
4.49086
5.1769
5.14451
5.11716
5.09174
5.06895
5.04755
5.02435
5.00131
4.9786
4.95302
4.92584
4.89842
4.87157
4.84291
4.81231
4.77999
4.74666
4.70881
4.66629
4.62157
4.57451
4.52574
4.47391
4.42082
4.366
4.3084
4.24689
4.1823
4.11177
4.03968
3.9655
3.88797
3.80606
3.72598
3.64699
1.40001
1.40001
1.40001
1.40001
1.40001
1.40001
1.40001
1.40001
1.40001
1.40001
1.40001
1.40001
1.40001
1.40001
1.40001
1.40001
1.40001
1.40001
1.40001
1.40001
1.40001
1.40001
1.40001
1.40001
1.40001
1.40001
1.40001
1.40001
1.40001
1.40001
1.40001
1.40001
1.40001
1.40001
1.40001
1.40001
1.40001
1.40001
1.40001
1.40001
1.40001
1.40001
1.40001
1.40001
1.40001
1.40001
1.40001
1.40001
1.40001
1.40001
1.40001
1.40001
1.40001
1.40001
1.40001
1.40001
1.40001
1.40001
1.40001
1.4088
2.57883
4.90547
5.1054
5.07633
5.0559
5.03543
5.01738
4.99708
4.97703
4.95533
4.93154
4.90596
4.87858
4.85002
4.82116
4.78982
4.75663
4.72242
4.68477
4.64233
4.5977
4.5507
4.5023
4.4516
4.39919
4.34591
4.29045
4.2333
4.17289
4.10708
4.04073
3.97154
3.89705
3.82186
3.74853
3.67443
1.40001
1.40001
1.40001
1.40001
1.40001
1.40001
1.40001
1.40001
1.40001
1.40001
1.40001
1.40001
1.40001
1.40001
1.40001
1.40001
1.40001
1.40001
1.40001
1.40001
1.40001
1.40001
1.40001
1.40001
1.40001
1.40001
1.40001
1.40001
1.40001
1.40001
1.40001
1.40001
1.40001
1.40001
1.40001
1.40001
1.40001
1.40001
1.40001
1.40001
1.40001
1.40001
1.40001
1.40001
1.40001
1.40001
1.40001
1.40001
1.40001
1.40001
1.40001
1.40001
1.40001
1.40001
1.40001
1.40001
1.40001
1.40001
1.40001
1.40002
1.48039
3.21281
4.98622
5.03908
5.02751
5.02156
5.00921
4.99277
4.97339
4.9508
4.92597
4.8989
4.87038
4.83947
4.80864
4.77703
4.74116
4.70556
4.66651
4.62344
4.57817
4.5308
4.4826
4.43326
4.38188
4.33007
4.27706
4.22323
4.16634
4.10497
4.04296
3.97796
3.90814
3.84052
3.77383
3.70582
1.40001
1.40001
1.40001
1.40001
1.40001
1.40001
1.40001
1.40001
1.40001
1.40001
1.40001
1.40001
1.40001
1.40001
1.40001
1.40001
1.40001
1.40001
1.40001
1.40001
1.40001
1.40001
1.40001
1.40001
1.40001
1.40001
1.40001
1.40001
1.40001
1.40001
1.40001
1.40001
1.40001
1.40001
1.40001
1.40001
1.40001
1.40001
1.40001
1.40001
1.40001
1.40001
1.40001
1.40001
1.40001
1.40001
1.40001
1.40001
1.40001
1.40001
1.40001
1.40001
1.40001
1.40001
1.40001
1.40001
1.40001
1.40001
1.40001
1.40001
1.40043
1.60212
3.59693
4.98595
5.01402
5.00824
4.99863
4.9833
4.96473
4.94344
4.91954
4.89295
4.86429
4.83291
4.79986
4.76689
4.73003
4.69238
4.6515
4.60781
4.56192
4.51421
4.46615
4.41799
4.368
4.3176
4.26781
4.21737
4.16339
4.10584
4.04822
3.98819
3.92569
3.86808
3.80976
3.75246
1.40001
1.40001
1.40001
1.40001
1.40001
1.40001
1.40001
1.40001
1.40001
1.40001
1.40001
1.40001
1.40001
1.40001
1.40001
1.40001
1.40001
1.40001
1.40001
1.40001
1.40001
1.40001
1.40001
1.40001
1.40001
1.40001
1.40001
1.40001
1.40001
1.40001
1.40001
1.40001
1.40001
1.40001
1.40001
1.40001
1.40001
1.40001
1.40001
1.40001
1.40001
1.40001
1.40001
1.40001
1.40001
1.40001
1.40001
1.40001
1.40001
1.40001
1.40001
1.40001
1.40001
1.40001
1.40001
1.40001
1.40001
1.40001
1.40001
1.40001
1.40001
1.40228
1.72462
3.91308
5.01109
5.01047
4.99477
4.97577
4.95509
4.93288
4.9093
4.8841
4.85666
4.82606
4.7934
4.75971
4.72319
4.68422
4.64241
4.59815
4.552
4.50437
4.45673
4.40964
4.36115
4.3121
4.26434
4.21607
4.16564
4.11394
4.06426
4.01309
3.96224
3.91999
3.87539
3.83357
1.40001
1.40001
1.40001
1.40001
1.40001
1.40001
1.40001
1.40001
1.40001
1.40001
1.40001
1.40001
1.40001
1.40001
1.40001
1.40001
1.40001
1.40001
1.40001
1.40001
1.40001
1.40001
1.40001
1.40001
1.40001
1.40001
1.40001
1.40001
1.40001
1.40001
1.40001
1.40001
1.40001
1.40001
1.40001
1.40001
1.40001
1.40001
1.40001
1.40001
1.40001
1.40001
1.40001
1.40001
1.40001
1.40001
1.40001
1.40001
1.40001
1.40001
1.40001
1.40001
1.40001
1.40001
1.40001
1.40001
1.40001
1.40001
1.40001
1.40001
1.40001
1.40001
1.40573
1.86138
4.19207
5.02057
5.0036
4.97894
4.95304
4.92699
4.90034
4.87355
4.84512
4.81486
4.78355
4.75022
4.71409
4.67504
4.63348
4.58987
4.54467
4.49829
4.45194
4.40597
4.35915
4.31279
4.26839
4.22421
4.18193
4.14287
4.10651
4.07073
4.03837
4.01221
3.97766
3.9456
1.40001
1.40001
1.40001
1.40001
1.40001
1.40001
1.40001
1.40001
1.40001
1.40001
1.40001
1.40001
1.40001
1.40001
1.40001
1.40001
1.40001
1.40001
1.40001
1.40001
1.40001
1.40001
1.40001
1.40001
1.40001
1.40001
1.40001
1.40001
1.40001
1.40001
1.40001
1.40001
1.40001
1.40001
1.40001
1.40001
1.40001
1.40001
1.40001
1.40001
1.40001
1.40001
1.40001
1.40001
1.40001
1.40001
1.40001
1.40001
1.40001
1.40001
1.40001
1.40001
1.40001
1.40001
1.40001
1.40001
1.40001
1.40001
1.40001
1.40001
1.40001
1.40001
1.40002
1.41149
2.01434
4.40077
5.03214
5.00418
4.97147
4.93742
4.90565
4.87364
4.84044
4.80741
4.7743
4.74015
4.70421
4.6661
4.62613
4.5842
4.5409
4.49707
4.45233
4.40818
4.36543
4.32597
4.29112
4.25973
4.23343
4.21228
4.19458
4.17282
4.1514
4.12771
4.09053
4.0558
1.40001
1.40001
1.40001
1.40001
1.40001
1.40001
1.40001
1.40001
1.40001
1.40001
1.40001
1.40001
1.40001
1.40001
1.40001
1.40001
1.40001
1.40001
1.40001
1.40001
1.40001
1.40001
1.40001
1.40001
1.40001
1.40001
1.40001
1.40001
1.40001
1.40001
1.40001
1.40001
1.40001
1.40001
1.40001
1.40001
1.40001
1.40001
1.40001
1.40001
1.40001
1.40001
1.40001
1.40001
1.40001
1.40001
1.40001
1.40001
1.40001
1.40001
1.40001
1.40001
1.40001
1.40001
1.40001
1.40001
1.40001
1.40001
1.40001
1.40001
1.40001
1.40001
1.40001
1.40004
1.42041
2.16415
4.58898
5.02931
4.99638
4.96031
4.91955
4.88102
4.84332
4.80677
4.77028
4.73406
4.69689
4.65845
4.6187
4.57781
4.53666
4.49556
4.45574
4.41928
4.38877
4.36705
4.35077
4.33883
4.33381
4.32724
4.31454
4.29068
4.26578
4.2325
4.1867
4.14513
1.40001
1.40001
1.40001
1.40001
1.40001
1.40001
1.40001
1.40001
1.40001
1.40001
1.40001
1.40001
1.40001
1.40001
1.40001
1.40001
1.40001
1.40001
1.40001
1.40001
1.40001
1.40001
1.40001
1.40001
1.40001
1.40001
1.40001
1.40001
1.40001
1.40001
1.40001
1.40001
1.40001
1.40001
1.40001
1.40001
1.40001
1.40001
1.40001
1.40001
1.40001
1.40001
1.40001