/*--------------------------------*- C++ -*----------------------------------*\
  =========                 |
  \\      /  F ield         | OpenFOAM: The Open Source CFD Toolbox
   \\    /   O peration     | Website:  https://openfoam.org
    \\  /    A nd           | Version:  7
     \\/     M anipulation  |
\*---------------------------------------------------------------------------*/
FoamFile
{
    version     2.0;
    format      ascii;
    class       volScalarField;
    location    "9";
    object      T;
}
// * * * * * * * * * * * * * * * * * * * * * * * * * * * * * * * * * * * * * //

dimensions      [0 0 0 1 0 0 0];

internalField   nonuniform List<scalar> 
19968
(
1
1
1
1
1
1
1
1
1
1
1
1
1
1
1
1
1
1
1
1
1
1
1
1
1
1
1
1
1
1
1
1
1
1
1
1
1
1
1
1
1
1
1
1
1
1
1
1
1.28849
2.4668
2.69261
2.69176
2.69632
2.70003
2.70427
2.70862
2.7131
2.71784
2.72273
2.72736
2.73125
2.7342
2.7365
2.73882
2.74175
2.74538
2.74932
2.75305
2.75633
2.75919
2.76194
2.76481
2.76779
2.77066
2.7732
2.77543
2.77754
2.77973
2.78206
2.78441
2.7866
2.78853
2.79024
2.79181
2.79337
2.79493
2.79647
2.7979
2.79918
2.80027
2.80114
2.80179
2.80221
2.80243
2.80253
2.80259
1
1
1
1
1
1
1
1
1
1
1
1
1
1
1
1
1
1
1
1
1
1
1
1
1
1
1
1
1
1
1
1
1
1
1
1
1
1
1
1
1
1
1
1
1
1
1
1
1.273
2.4584
2.6921
2.69228
2.69594
2.69977
2.70409
2.7085
2.71304
2.7178
2.72266
2.72717
2.73096
2.73386
2.73618
2.73856
2.74153
2.74519
2.74912
2.75286
2.75613
2.75901
2.76177
2.76463
2.7676
2.77044
2.77295
2.77514
2.77723
2.77939
2.7817
2.78405
2.78626
2.78821
2.78993
2.79151
2.79306
2.7946
2.79611
2.79753
2.79879
2.79985
2.8007
2.80133
2.80174
2.80195
2.80205
2.80211
1
1
1
1
1
1
1
1
1
1
1
1
1
1
1
1
1
1
1
1
1
1
1
1
1
1
1
1
1
1
1
1
1
1
1
1
1
1
1
1
1
1
1
1
1
1
1
1
1.23768
2.43837
2.69211
2.69226
2.69537
2.69909
2.70344
2.70797
2.71265
2.71748
2.72227
2.7266
2.73024
2.7331
2.73549
2.73802
2.74109
2.74477
2.74865
2.75234
2.75561
2.75852
2.76133
2.76423
2.7672
2.77002
2.77249
2.77463
2.77666
2.77877
2.78104
2.78339
2.78562
2.78761
2.78936
2.79095
2.79249
2.79401
2.7955
2.79691
2.79815
2.7992
2.80003
2.80064
2.80104
2.80126
2.80136
2.80143
1
1
1
1
1
1
1
1
1
1
1
1
1
1
1
1
1
1
1
1
1
1
1
1
1
1
1
1
1
1
1
1
1
1
1
1
1
1
1
1
1
1
1
1
1
1
1
1
1.18718
2.40727
2.69102
2.69192
2.69488
2.69869
2.70304
2.7076
2.71225
2.717
2.72163
2.72574
2.72925
2.73214
2.7347
2.73746
2.74064
2.74431
2.74808
2.75166
2.7549
2.75784
2.76072
2.76367
2.76665
2.76943
2.77184
2.77391
2.77586
2.7779
2.78012
2.78244
2.78469
2.78671
2.78849
2.79008
2.79159
2.79305
2.79449
2.79583
2.79704
2.79806
2.79887
2.79948
2.7999
2.80015
2.80029
2.8004
1
1
1
1
1
1
1
1
1
1
1
1
1
1
1
1
1
1
1
1
1
1
1
1
1
1
1
1
1
1
1
1
1
1
1
1
1
1
1
1
1
1
1
1
1
1
1
1
1.1223
2.36536
2.68862
2.69132
2.69454
2.69868
2.70305
2.70751
2.71196
2.71644
2.72078
2.72469
2.72819
2.73126
2.73409
2.73709
2.74031
2.74385
2.74741
2.75083
2.754
2.75699
2.75996
2.76299
2.76598
2.76872
2.77106
2.77306
2.77493
2.77689
2.77906
2.78136
2.78362
2.78569
2.78752
2.78913
2.79061
2.79202
2.79335
2.79458
2.79567
2.79659
2.79731
2.79785
2.79823
2.79846
2.7986
2.79871
1
1
1
1
1
1
1
1
1
1
1
1
1
1
1
1
1
1
1
1
1
1
1
1
1
1
1
1
1
1
1
1
1
1
1
1
1
1
1
1
1
1
1
1
1
1
1
1
1.01195
2.30061
2.68505
2.69141
2.69523
2.69956
2.70376
2.70802
2.71215
2.71612
2.71998
2.72369
2.72729
2.7307
2.73391
2.73715
2.74032
2.74357
2.74672
2.74981
2.7528
2.75576
2.75878
2.76184
2.7648
2.76745
2.76968
2.77159
2.77336
2.77523
2.7773
2.77953
2.78177
2.78387
2.78574
2.78739
2.78889
2.79026
2.79154
2.7927
2.79374
2.79461
2.79532
2.79587
2.79626
2.79652
2.79667
2.79681
1
1
1
1
1
1
1
1
1
1
1
1
1
1
1
1
1
1
1
1
1
1
1
1
1
1
1
1
1
1
1
1
1
1
1
1
1
1
1
1
1
1
1
1
1
1
1
1
1.00008
2.21591
2.67806
2.68784
2.69215
2.69696
2.70146
2.7058
2.70971
2.71328
2.7168
2.72044
2.72426
2.72805
2.73168
2.73517
2.73835
2.74141
2.74428
2.74716
2.7501
2.75313
2.75626
2.75941
2.76238
2.76501
2.76722
2.76912
2.77088
2.77271
2.77472
2.77689
2.77911
2.78122
2.78315
2.78488
2.78641
2.78777
2.789
2.79009
2.79105
2.79187
2.79255
2.79309
2.79349
2.79377
2.79392
2.79407
1
1
1
1
1
1
1
1
1
1
1
1
1
1
1
1
1
1
1
1
1
1
1
1
1
1
1
1
1
1
1
1
1
1
1
1
1
1
1
1
1
1
1
1
1
1
1
1
1
2.09276
2.667
2.68381
2.68854
2.69387
2.69885
2.7034
2.70716
2.7105
2.71385
2.71742
2.72123
2.72508
2.72878
2.73236
2.73556
2.73861
2.74145
2.74432
2.74729
2.75038
2.75356
2.75672
2.75966
2.76224
2.76443
2.76634
2.7681
2.7699
2.77183
2.77391
2.77606
2.77817
2.78013
2.7819
2.78345
2.78478
2.78593
2.78693
2.78779
2.78855
2.78919
2.78971
2.79009
2.79035
2.79048
2.79062
1
1
1
1
1
1
1
1
1
1
1
1
1
1
1
1
1
1
1
1
1
1
1
1
1
1
1
1
1
1
1
1
1
1
1
1
1
1
1
1
1
1
1
1
1
1
1
1
1
1.92118
2.63944
2.67591
2.68203
2.68836
2.69403
2.69906
2.70303
2.70641
2.70975
2.71327
2.71697
2.7207
2.72431
2.72792
2.73123
2.73442
2.73741
2.74039
2.74341
2.7465
2.74964
2.75272
2.75559
2.75814
2.76037
2.76235
2.76418
2.76597
2.76784
2.76983
2.7719
2.77397
2.77594
2.77772
2.77927
2.78058
2.78167
2.78261
2.78343
2.78414
2.78477
2.78528
2.78564
2.78588
2.78597
2.78609
1
1
1
1
1
1
1
1
1
1
1
1
1
1
1
1
1
1
1
1
1
1
1
1
1
1
1
1
1
1
1
1
1
1
1
1
1
1
1
1
1
1
1
1
1
1
1
1
1
1.69275
2.58587
2.66894
2.67585
2.68236
2.68806
2.69355
2.69803
2.70174
2.7052
2.70866
2.71219
2.7157
2.71916
2.72273
2.72617
2.72956
2.73281
2.73598
2.73904
2.74204
2.74499
2.74789
2.75063
2.75311
2.75534
2.75735
2.75919
2.76094
2.76271
2.76459
2.7666
2.76865
2.77063
2.77243
2.77398
2.77525
2.7763
2.77717
2.77793
2.77857
2.77912
2.77954
2.77981
2.77997
2.77997
2.78005
1
1
1
1
1
1
1
1
1
1
1
1
1
1
1
1
1
1
1
1
1
1
1
1
1
1
1
1
1
1
1
1
1
1
1
1
1
1
1
1
1
1
1
1
1
1
1
1
1
1.37935
2.48073
2.67052
2.67074
2.67663
2.68172
2.68729
2.69219
2.69628
2.69993
2.70342
2.70686
2.71025
2.7136
2.71711
2.72066
2.72419
2.72763
2.73093
2.73401
2.73688
2.73963
2.74233
2.74497
2.74745
2.74974
2.75181
2.75365
2.7553
2.75689
2.75857
2.76038
2.76225
2.76407
2.76567
2.76698
2.76803
2.7689
2.76966
2.77038
2.77103
2.77159
2.77201
2.77225
2.77237
2.77233
2.7724
1
1
1
1
1
1
1
1
1
1
1
1
1
1
1
1
1
1
1
1
1
1
1
1
1
1
1
1
1
1
1
1
1
1
1
1
1
1
1
1
1
1
1
1
1
1
1
1
1
1.01568
2.29887
2.67721
2.67639
2.67873
2.68184
2.68561
2.68936
2.69277
2.69596
2.69913
2.70229
2.70539
2.70843
2.71153
2.71474
2.71798
2.72125
2.72444
2.72738
2.72999
2.73244
2.73485
2.73732
2.73976
2.7421
2.74423
2.7461
2.74772
2.74921
2.75077
2.75247
2.75427
2.75601
2.7575
2.75867
2.75956
2.76025
2.76086
2.76139
2.7618
2.76204
2.76207
2.7619
2.76166
2.76141
2.76135
1
1
1
1
1
1
1
1
1
1
1
1
1
1
1
1
1
1
1
1
1
1
1
1
1
1
1
1
1
1
1
1
1
1
1
1
1
1
1
1
1
1
1
1
1
1
1
1
1
1.00003
2.0155
2.64529
2.66206
2.66647
2.67161
2.67609
2.68007
2.68359
2.68689
2.69016
2.69343
2.6966
2.69965
2.70262
2.70562
2.70869
2.71183
2.71492
2.71781
2.72034
2.72266
2.72495
2.72732
2.72975
2.73213
2.73432
2.73622
2.73782
2.73923
2.74063
2.74215
2.74376
2.74527
2.74644
2.74718
2.74751
2.7476
2.74761
2.74766
2.74775
2.74783
2.74785
2.74769
2.74738
2.74696
2.74681
1
1
1
1
1
1
1
1
1
1
1
1
1
1
1
1
1
1
1
1
1
1
1
1
1
1
1
1
1
1
1
1
1
1
1
1
1
1
1
1
1
1
1
1
1
1
1
1
1
1
1.54381
2.51387
2.64719
2.65514
2.66319
2.66833
2.67238
2.67587
2.67926
2.68278
2.6864
2.68993
2.69316
2.69601
2.69862
2.70117
2.70381
2.70648
2.70906
2.71137
2.71341
2.71541
2.71745
2.71956
2.72163
2.72355
2.7252
2.72655
2.72766
2.72868
2.72981
2.73101
2.7321
2.73296
2.73335
2.73317
2.73285
2.73247
2.73209
2.7317
2.7311
2.73016
2.72842
2.72587
2.72286
2.72043
1
1
1
1
1
1
1
1
1
1
1
1
1
1
1
1
1
1
1
1
1
1
1
1
1
1
1
1
1
1
1
1
1
1
1
1
1
1
1
1
1
1
1
1
1
1
1
1
1
1
1.02762
2.2491
2.65477
2.65589
2.65956
2.66244
2.66487
2.66711
2.66965
2.6728
2.67651
2.68036
2.68382
2.68666
2.68896
2.69101
2.69312
2.69539
2.6977
2.69986
2.70171
2.70343
2.70515
2.70688
2.70852
2.70999
2.71129
2.71232
2.71292
2.71343
2.71395
2.71446
2.71485
2.71493
2.7145
2.71347
2.7119
2.70982
2.70722
2.70413
2.70066
2.69701
2.69365
2.6901
2.68752
2.68604
1
1
1
1
1
1
1
1
1
1
1
1
1
1
1
1
1
1
1
1
1
1
1
1
1
1
1
1
1
1
1
1
1
1
1
1
1
1
1
1
1
1
1
1
1
1
1
1
1
1
1.00005
1.7523
2.55577
2.63842
2.64449
2.64773
2.6501
2.65246
2.65526
2.65883
2.66311
2.66762
2.67168
2.67486
2.67727
2.67925
2.68114
2.6831
2.68509
2.68695
2.68856
2.69
2.69149
2.69289
2.69402
2.69489
2.69557
2.69591
2.69583
2.69558
2.69519
2.69456
2.69365
2.69237
2.69059
2.68824
2.68523
2.68147
2.67688
2.67157
2.66576
2.65997
2.65475
2.65293
2.65063
2.66543
1
1
1
1
1
1
1
1
1
1
1
1
1
1
1
1
1
1
1
1
1
1
1
1
1
1
1
1
1
1
1
1
1
1
1
1
1
1
1
1
1
1
1
1
1
1
1
1
1
1
1
1.10921
2.33677
2.63396
2.63412
2.63632
2.63895
2.64125
2.64375
2.64704
2.65119
2.65575
2.66001
2.6634
2.66594
2.66796
2.66973
2.67138
2.67302
2.67459
2.67602
2.6773
2.67856
2.67953
2.6801
2.68037
2.68032
2.67995
2.67917
2.67809
2.67672
2.67492
2.67258
2.66966
2.6661
2.66187
2.65669
2.65014
2.64145
2.63005
2.61453
2.59395
2.56431
2.52272
2.4605
2.33607
1
1
1
1
1
1
1
1
1
1
1
1
1
1
1
1
1
1
1
1
1
1
1
1
1
1
1
1
1
1
1
1
1
1
1
1
1
1
1
1
1
1
1
1
1
1
1
1
1
1
1
1.00095
2.01278
2.60966
2.6159
2.6194
2.62346
2.62714
2.63055
2.63433
2.63856
2.6429
2.6469
2.65026
2.65308
2.65562
2.65791
2.6598
2.66138
2.66281
2.66413
2.66536
2.66642
2.66698
2.66721
2.66712
2.66663
2.6656
2.66411
2.66224
2.65997
2.65717
2.65361
2.64917
2.64373
2.63738
2.62968
2.62022
2.60747
2.5907
2.56712
2.53625
2.49209
2.43696
2.32443
2.16297
1
1
1
1
1
1
1
1
1
1
1
1
1
1
1
1
1
1
1
1
1
1
1
1
1
1
1
1
1
1
1
1
1
1
1
1
1
1
1
1
1
1
1
1
1
1
1
1
1
1
1
0.999999
1.40614
2.44566
2.59889
2.60597
2.61139
2.61476
2.61826
2.62216
2.62649
2.63087
2.6348
2.63805
2.64086
2.64348
2.64592
2.64772
2.64927
2.6507
2.65195
2.65307
2.65382
2.65406
2.65394
2.65349
2.65253
2.6509
2.64865
2.64588
2.64258
2.63867
2.63382
2.6279
2.62057
2.61204
2.60172
2.58937
2.57334
2.55244
2.5244
2.48699
2.43814
2.36583
2.2586
2.12879
1
1
1
1
1
1
1
1
1
1
1
1
1
1
1
1
1
1
1
1
1
1
1
1
1
1
1
1
1
1
1
1
1
1
1
1
1
1
1
1
1
1
1
1
1
1
1
1
1
1
1
1
1.01631
2.13515
2.60146
2.59906
2.59939
2.60142
2.60455
2.60838
2.61314
2.61818
2.62236
2.62551
2.62792
2.63002
2.63204
2.63359
2.63523
2.63685
2.63828
2.63941
2.63996
2.63986
2.63943
2.63861
2.63727
2.63524
2.63244
2.62892
2.62463
2.61962
2.61354
2.60632
2.59745
2.58704
2.57456
2.55967
2.54125
2.51788
2.48805
2.44871
2.39873
2.33032
2.24628
2.14455
1
1
1
1
1
1
1
1
1
1
1
1
1
1
1
1
1
1
1
1
1
1
1
1
1
1
1
1
1
1
1
1
1
1
1
1
1
1
1
1
1
1
1
1
1
1
1
1
1
1
1
1
1.00001
1.48312
2.45473
2.58471
2.5881
2.59161
2.59359
2.59634
2.60075
2.60577
2.61006
2.61341
2.61551
2.61708
2.61811
2.61921
2.6206
2.62222
2.62375
2.62489
2.62536
2.62509
2.6243
2.62306
2.62129
2.61889
2.61566
2.61159
2.60656
2.60064
2.59353
2.58521
2.57522
2.56345
2.54946
2.5328
2.51279
2.48826
2.45856
2.42003
2.37424
2.31614
2.25008
2.17127
1
1
1
1
1
1
1
1
1
1
1
1
1
1
1
1
1
1
1
1
1
1
1
1
1
1
1
1
1
1
1
1
1
1
1
1
1
1
1
1
1
1
1
1
1
1
1
1
1
1
1
1
1
1.02307
2.12985
2.58175
2.58447
2.58571
2.58639
2.5878
2.5915
2.5957
2.59915
2.60151
2.60282
2.60352
2.60391
2.60456
2.60576
2.60735
2.60883
2.60981
2.61002
2.60967
2.60862
2.60697
2.60469
2.60185
2.59822
2.59379
2.58832
2.58178
2.57392
2.56478
2.55408
2.54158
2.52686
2.50938
2.48873
2.4639
2.4348
2.39937
2.35897
2.31022
2.25691
2.19511
1
1
1
1
1
1
1
1
1
1
1
1
1
1
1
1
1
1
1
1
1
1
1
1
1
1
1
1
1
1
1
1
1
1
1
1
1
1
1
1
1
1
1
1
1
1
1
1
1
1
1
1
1
1.00003
1.41765
2.414
2.57525
2.57404
2.57622
2.57936
2.58334
2.58683
2.58914
2.59007
2.59028
2.59011
2.58991
2.59006
2.59089
2.59223
2.59344
2.59399
2.59387
2.59335
2.59214
2.59028
2.58771
2.58446
2.58045
2.5757
2.56998
2.56308
2.55478
2.54519
2.53421
2.52156
2.5068
2.48935
2.46911
2.44454
2.41683
2.38436
2.34871
2.30734
2.26278
2.21213
1
1
1
1
1
1
1
1
1
1
1
1
1
1
1
1
1
1
1
1
1
1
1
1
1
1
1
1
1
1
1
1
1
1
1
1
1
1
1
1
1
1
1
1
1
1
1
1
1
1
1
1
1
1
1.01569
2.03945
2.55357
2.56597
2.5672
2.57046
2.57458
2.57793
2.5799
2.58003
2.57966
2.57879
2.57788
2.57772
2.5781
2.57874
2.57931
2.5792
2.57845
2.57721
2.57544
2.57327
2.57054
2.56708
2.56281
2.55781
2.55184
2.54466
2.53607
2.52626
2.51524
2.50279
2.48856
2.47182
2.45275
2.42942
2.40342
2.37356
2.34235
2.30618
2.2675
2.22438
1
1
1
1
1
1
1
1
1
1
1
1
1
1
1
1
1
1
1
1
1
1
1
1
1
1
1
1
1
1
1
1
1
1
1
1
1
1
1
1
1
1
1
1
1
1
1
1
1
1
1
1
1
1
1.00002
1.22705
2.33675
2.55967
2.55649
2.55954
2.56283
2.56618
2.56812
2.56814
2.56761
2.56655
2.56532
2.56491
2.5651
2.56514
2.56508
2.5646
2.56314
2.56106
2.55848
2.55586
2.553
2.54953
2.54524
2.54018
2.53398
2.52657
2.51791
2.50807
2.49718
2.48508
2.47163
2.45587
2.43825
2.41686
2.39267
2.36615
2.3381
2.30518
2.27156
2.23503
1
1
1
1
1
1
1
1
1
1
1
1
1
1
1
1
1
1
1
1
1
1
1
1
1
1
1
1
1
1
1
1
1
1
1
1
1
1
1
1
1
1
1
1
1
1
1
1
1
1
1
1
1
1
1
1.00369
1.8488
2.49538
2.53415
2.54381
2.54991
2.55268
2.55459
2.55498
2.55458
2.55375
2.55274
2.55229
2.5525
2.55231
2.55189
2.551
2.5491
2.54634
2.54278
2.53929
2.53588
2.53215
2.52793
2.52293
2.51651
2.50895
2.50035
2.49055
2.47984
2.46808
2.45548
2.44069
2.42456
2.40537
2.3836
2.36039
2.33411
2.30494
2.27593
2.24424
1
1
1
1
1
1
1
1
1
1
1
1
1
1
1
1
1
1
1
1
1
1
1
1
1
1
1
1
1
1
1
1
1
1
1
1
1
1
1
1
1
1
1
1
1
1
1
1
1
1
1
1
1
1
1
1
1.10016
2.19065
2.53358
2.53585
2.53826
2.53954
2.54082
2.54174
2.54173
2.5414
2.54086
2.5404
2.54057
2.54028
2.5396
2.53835
2.5362
2.53297
2.52863
2.52415
2.51984
2.51564
2.51122
2.50631
2.49983
2.49234
2.48388
2.4742
2.46374
2.4522
2.44026
2.42615
2.41128
2.39417
2.37495
2.35385
2.32963
2.30522
2.2793
2.25087
1
1
1
1
1
1
1
1
1
1
1
1
1
1
1
1
1
1
1
1
1
1
1
1
1
1
1
1
1
1
1
1
1
1
1
1
1
1
1
1
1
1
1
1
1
1
1
1
1
1
1
1
1
1
1
1
1.00067
1.44375
2.36086
2.51652
2.51667
2.52021
2.52306
2.52524
2.52651
2.5268
2.52678
2.52671
2.52702
2.52712
2.52661
2.52537
2.52319
2.51987
2.51527
2.51016
2.50512
2.50039
2.49534
2.49016
2.48386
2.47667
2.46841
2.45893
2.44863
2.43724
2.42578
2.41216
2.39838
2.38302
2.36577
2.34639
2.32565
2.30469
2.28021
2.25509
1
1
1
1
1
1
1
1
1
1
1
1
1
1
1
1
1
1
1
1
1
1
1
1
1
1
1
1
1
1
1
1
1
1
1
1
1
1
1
1
1
1
1
1
1
1
1
1
1
1
1
1
1
1
1
1
1
1.01776
1.89267
2.47308
2.50084
2.50575
2.50846
2.51008
2.51157
2.51217
2.5124
2.51247
2.51288
2.51337
2.51293
2.51179
2.50977
2.5066
2.50216
2.49695
2.49155
2.48658
2.48109
2.47545
2.46938
2.46228
2.45423
2.44508
2.43495
2.42376
2.41246
2.39938
2.38639
2.37206
2.35625
2.33883
2.32103
2.30156
2.27935
2.25769
1
1
1
1
1
1
1
1
1
1
1
1
1
1
1
1
1
1
1
1
1
1
1
1
1
1
1
1
1
1
1
1
1
1
1
1
1
1
1
1
1
1
1
1
1
1
1
1
1
1
1
1
1
1
1
1
1
1.00003
1.11774
2.12492
2.48284
2.49812
2.49619
2.49721
2.49803
2.49848
2.49874
2.49877
2.49916
2.49958
2.49914
2.49795
2.49594
2.4929
2.48865
2.48366
2.47835
2.47355
2.46808
2.46242
2.45631
2.44934
2.44138
2.43222
2.42224
2.41128
2.40003
2.38765
2.37516
2.36152
2.347
2.33154
2.31538
2.297
2.27767
2.25847
1
1
1
1
1
1
1
1
1
1
1
1
1
1
1
1
1
1
1
1
1
1
1
1
1
1
1
1
1
1
1
1
1
1
1
1
1
1
1
1
1
1
1
1
1
1
1
1
1
1
1
1
1
1
1
1
1
1
1.00094
1.26763
2.27184
2.48178
2.48036
2.48064
2.48097
2.48163
2.48252
2.48316
2.48399
2.48451
2.4842
2.4832
2.48129
2.47855
2.47471
2.4701
2.46525
2.46069
2.45576
2.45026
2.44435
2.43763
2.42994
2.42088
2.41093
2.40025
2.38898
2.37715
2.36505
2.35194
2.33854
2.32456
2.30934
2.29248
2.27544
2.25809
1
1
1
1
1
1
1
1
1
1
1
1
1
1
1
1
1
1
1
1
1
1
1
1
1
1
1
1
1
1
1
1
1
1
1
1
1
1
1
1
1
1
1
1
1
1
1
1
1
1
1
1
1
1
1
1
1
1
1
1.00516
1.65947
2.37874
2.45704
2.4545
2.45613
2.45847
2.46145
2.46388
2.46618
2.46763
2.46763
2.46716
2.46575
2.46329
2.46008
2.45606
2.45175
2.44763
2.44327
2.43823
2.43271
2.42633
2.41898
2.41035
2.40059
2.39012
2.37898
2.36761
2.35587
2.34332
2.3309
2.31786
2.30334
2.28812
2.27291
2.25711
1
1
1
1
1
1
1
1
1
1
1
1
1
1
1
1
1
1
1
1
1
1
1
1
1
1
1
1
1
1
1
1
1
1
1
1
1
1
1
1
1
1
1
1
1
1
1
1
1
1
1
1
1
1
1
1
1
1
1
1.00001
1.04923
1.90993
2.41727
2.44392
2.4436
2.44539
2.44714
2.44888
2.45054
2.45165
2.4516
2.45105
2.44982
2.44761
2.44486
2.44171
2.4378
2.43426
2.43037
2.42584
2.42077
2.41481
2.40794
2.39999
2.39076
2.38078
2.37017
2.35936
2.34809
2.33611
2.3243
2.31187
2.29827
2.28487
2.2714
2.25745
1
1
1
1
1
1
1
1
1
1
1
1
1
1
1
1
1
1
1
1
1
1
1
1
1
1
1
1
1
1
1
1
1
1
1
1
1
1
1
1
1
1
1
1
1
1
1
1
1
1
1
1
1
1
1
1
1
1
1
1
1.00021
1.13268
2.02585
2.41173
2.43492
2.43759
2.4384
2.43818
2.43794
2.4376
2.43687
2.43566
2.43403
2.43179
2.42907
2.42634
2.42301
2.41985
2.41633
2.41235
2.40775
2.40229
2.39601
2.38884
2.38044
2.37123
2.36166
2.35175
2.34109
2.32976
2.31867
2.30722
2.29536
2.28493
2.27367
2.26201
1
1
1
1
1
1
1
1
1
1
1
1
1
1
1
1
1
1
1
1
1
1
1
1
1
1
1
1
1
1
1
1
1
1
1
1
1
1
1
1
1
1
1
1
1
1
1
1
1
1
1
1
1
1
1
1
1
1
1
1
1
1.00123
1.21244
2.10312
2.3973
2.42925
2.42865
2.42815
2.42723
2.42588
2.42424
2.42236
2.42016
2.4175
2.41462
2.41178
2.40872
2.40558
2.40218
2.39842
2.39412
2.38908
2.38339
2.37702
2.36955
2.36124
2.35266
2.3436
2.33388
2.32417
2.31511
2.30646
2.29775
2.29052
2.28262
2.27491
1
1
1
1
1
1
1
1
1
1
1
1
1
1
1
1
1
1
1
1
1
1
1
1
1
1
1
1
1
1
1
1
1
1
1
1
1
1
1
1
1
1
1
1
1
1
1
1
1
1
1
1
1
1
1
1
1
1
1
1
1
1
1.00317
1.29518
2.15452
2.38938
2.41049
2.41368
2.41359
2.41297
2.41162
2.40978
2.40733
2.40449
2.40156
2.3985
2.39525
2.39182
2.38822
2.38435
2.3801
2.37533
2.37008
2.36428
2.3576
2.35026
2.34278
2.33525
2.32804
2.32215
2.31725
2.31217
2.30792
2.3049
2.2998
2.29477
1
1
1
1
1
1
1
1
1
1
1
1
1
1
1
1
1
1
1
1
1
1
1
1
1
1
1
1
1
1
1
1
1
1
1
1
1
1
1
1
1
1
1
1
1
1
1
1
1
1
1
1
1
1
1
1
1
1
1
1
1
1
1
1.00645
1.37746
2.19467
2.37614
2.391
2.3952
2.39619
2.39609
2.39517
2.39342
2.39119
2.38864
2.38578
2.38263
2.3792
2.3755
2.37145
2.36708
2.36237
2.35714
2.3516
2.3458
2.34044
2.33556
2.33179
2.32977
2.32813
2.32755
2.32626
2.32497
2.32322
2.31834
2.31324
1
1
1
1
1
1
1
1
1
1
1
1
1
1
1
1
1
1
1
1
1
1
1
1
1
1
1
1
1
1
1
1
1
1
1
1
1
1
1
1
1
1
1
1
1
1
1
1
1
1
1
1
1
1
1
1
1
1
1
1
1
1
1
1.00001
1.01162
1.45181
2.22689
2.36701
2.37062
2.37371
2.37485
2.37553
2.3752
2.3743
2.37288
2.37105
2.36871
2.36583
2.36241
2.35849
2.35423
2.34961
2.34473
2.34053
2.33699
2.33616
2.33694
2.33779
2.33973
2.34182
2.34318
2.34192
2.34026
2.33699
2.33075
2.32479
1
1
1
1
1
1
1
1
1
1
1
1
1
1
1
1
1
1
1
1
1
1
1
1
1
1
1
1
1
1
1
1
1
1
1
1
1
1
1
1
1
1
1
1
1
1
1
1
1
1
1
1
1
1
1
1
1
1
1
1
1
1
1
1
1.00003
1.01846
1.55517
2.25393
2.35417
2.35285
2.35395
2.35413
2.35432
2.35438
2.35419
2.35359
2.35229
2.35022
2.3474
2.34402
2.34052
2.33713
2.33492
2.33601
2.33896
2.34292
2.34751
2.3518
2.3568
2.35665
2.35561
2.35285
2.34961
2.3441
2.33682
2.33088
1
1
1
1
1
1
1
1
1
1
1
1
1
1
1
1
1
1
1
1
1
1
1
1
1
1
1
1
1
1
1
1
1
1
1
1
1
1
1
1
1
1
1
1
1
1
1
1
1
1
1
1
1
1
1
1
1
1
1
1
1
1
1
1
1
1.00005
1.03234
1.61993
2.26391
2.34111
2.33852
2.33685
2.33616
2.33571
2.33528
2.33456
2.33342
2.33175
2.32994
2.32776
2.32828
2.33075
2.33551
2.34332
2.35203
2.35978
2.36466
2.36969
2.36933
2.36601
2.36232
2.35844
2.35391
2.34718
2.34045
2.3353
1
1
1
1
1
1
1
1
1
1
1
1
1
1
1
1
1
1
1
1
1
1
1
1
1
1
1
1
1
1
1
1
1
1
1
1
1
1
1
1
1
1
1
1
1
1
1
1
1
1
1
1
1
1
1
1
1
1
1
1
1
1
1
1
1
1
1.00013
1.045
1.63894
2.25624
2.32872
2.32586
2.32384
2.322
2.32023
2.31804
2.31591
2.31371
2.31432
2.31691
2.32252
2.33442
2.34709
2.36021
2.3701
2.37655
2.37857
2.37836
2.3751
2.36934
2.36479
2.36081
2.35574
2.34907
2.34382
2.33934
1
1
1
1
1
1
1
1
1
1
1
1
1
1
1
1
1
1
1
1
1
1
1
1
1
1
1
1
1
1
1
1
1
1
1
1
1
1
1
1
1
1
1
1
1
1
1
1
1
1
1
1
1
1
1
1
1
1
1
1
1
1
1
1
1
1
1
1.00022
1.05022
1.62406
2.23833
2.31746
2.31508
2.3125
2.30924
2.3054
2.30217
2.30249
2.30606
2.3183
2.33356
2.35133
2.36601
2.37647
2.3835
2.38281
2.38138
2.37897
2.37418
2.36854
2.36511
2.3619
2.35715
2.35136
2.34748
2.34322
1
1
1
1
1
1
1
1
1
1
1
1
1
1
1
1
1
1
1
1
1
1
1
1
1
1
1
1
1
1
1
1
1
1
1
1
1
1
1
1
1
1
1
1
1
1
1
1
1
1
1
1
1
1
1
1
1
1
1
1
1
1
1
1
1
1
1
1
1.00027
1.04778
1.60424
2.21621
2.30478
2.30265
2.29887
2.29535
2.29625
2.30371
2.31841
2.33899
2.35881
2.37297
2.38226
2.38595
2.38412
2.38089
2.37855
2.37602
2.37136
2.36671
2.36455
2.36186
2.35745
2.35303
2.35008
2.3459
1
1
1
1
1
1
1
1
1
1
1
1
1
1
1
1
1
1
1
1
1
1
1
1
1
1
1
1
1
1
1
1
1
1
1
1
1
1
1
1
1
1
1
1
1
1
1
1
1
1
1
1
1
1
1
1
1
1
1
1
1
1
1
1
1
1
1
1
1
1.00025
1.0438
1.57286
2.18641
2.28904
2.28747
2.29145
2.30511
2.32841
2.35393
2.37368
2.38309
2.38979
2.38872
2.38581
2.38155
2.37759
2.37536
2.37282
2.36862
2.36548
2.36417
2.36152
2.35708
2.35351
2.35085
2.34671
1
1
1
1
1
1
1
1
1
1
1
1
1
1
1
1
1
1
1
1
1
1
1
1
1
1
1
1
1
1
1
1
1
1
1
1
1
1
1
1
1
1
1
1
1
1
1
1
1
1
1
1
1
1
1
1
1
1
1
1
1
1
1
1
1
1
1
1
1
1
1.00022
1.03763
1.52587
2.1426
2.27989
2.31328
2.33889
2.36948
2.38651
2.39678
2.39468
2.39123
2.38745
2.3829
2.37802
2.37524
2.37342
2.37028
2.36632
2.36462
2.36366
2.36057
2.35603
2.35309
2.35072
2.34677
1
1
1
1
1
1
1
1
1
1
1
1
1
1
1
1
1
1
1
1
1
1
1
1
1
1
1
1
1
1
1
1
1
1
1
1
1
1
1
1
1
1
1
1
1
1
1
1
1
1
1
1
1
1
1
1
1
1
1
1
1
1
1
1
1
1
1
1
1
1
1
1.00018
1.02956
1.45069
2.15518
2.35669
2.38477
2.39624
2.40147
2.39828
2.39375
2.38981
2.38576
2.38168
2.37834
2.37656
2.37448
2.37029
2.36601
2.36452
2.36308
2.359
2.35429
2.35211
2.35026
2.34659
1
1
1
1
1
1
1
1
1
1
1
1
1
1
1
1
1
1
1
1
1
1
1
1
1
1
1
1
1
1
1
1
1
1
1
1
1
1
1
1
1
1
1
1
1
1
1
1
1
1
1
1
1
1
1
1
1
1
1
1
1
1
1
1
1
1
1
1
1
1
1
1
1.00013
1.01939
1.64863
2.40566
2.45335
2.44033
2.42729
2.41332
2.40227
2.39439
2.3888
2.38371
2.38013
2.37848
2.37613
2.37182
2.36799
2.36617
2.36388
2.35871
2.35394
2.35212
2.35013
2.34599
1
1
1
1
1
1
1
1
1
1
1
1
1
1
1
1
1
1
1
1
1
1
1
1
1
1
1
1
1
1
1
1
1
1
1
1
1
1
1
1
1
1
1
1
1
1
1
1
1
1
1
1
1
1
1
1
1
1
1
1
1
1
1
1
1
1
1
1
1
1
1
1
1
1.00006
1.05168
2.2654
2.54193
2.50357
2.47369
2.45109
2.43393
2.42157
2.41148
2.4017
2.39446
2.38924
2.38357
2.37732
2.37232
2.36906
2.36528
2.35987
2.35592
2.35418
2.35168
2.34697
1
1
1
1
1
1
1
1
1
1
1
1
1
1
1
1
1
1
1
1
1
1
1
1
1
1
1
1
1
1
1
1
1
1
1
1
1
1
1
1
1
1
1
1
1
1
1
1
1
1
1
1
1
1
1
1
1
1
1
1
1
1
1
1
1
1
1
1
1
1
1
1
1
1
1.00018
1.74161
2.49761
2.5431
2.53336
2.51859
2.49983
2.48035
2.46217
2.44639
2.43298
2.42021
2.4079
2.39672
2.38748
2.38079
2.37428
2.36736
2.36214
2.35873
2.3547
2.34952
1
1
1
1
1
1
1
1
1
1
1
1
1
1
1
1
1
1
1
1
1
1
1
1
1
1
1
1
1
1
1
1
1
1
1
1
1
1
1
1
1
1
1
1
1
1
1
1
1
1
1
1
1
1
1
1
1
1
1
1
1
1
1
1
1
1
1
1
1
1
1
1
1
1
1
1.06434
2.29823
2.59403
2.58722
2.57455
2.55816
2.53968
2.52115
2.50257
2.48437
2.46627
2.44939
2.43436
2.42169
2.41113
2.40079
2.39045
2.38178
2.37488
2.3679
2.36075
1
1
1
1
1
1
1
1
1
1
1
1
1
1
1
1
1
1
1
1
1
1
1
1
1
1
1
1
1
1
1
1
1
1
1
1
1
1
1
1
1
1
1
1
1
1
1
1
1
1
1
1
1
1
1
1
1
1
1
1
1
1
1
1
1
1
1
1
1
1
1
1
1
1
1
1.00026
1.82028
2.54157
2.58866
2.58416
2.57927
2.57189
2.5623
2.55032
2.53669
2.52132
2.50548
2.48968
2.47455
2.45954
2.44482
2.43135
2.41955
2.40871
2.39803
2.3873
1
1
1
1
1
1
1
1
1
1
1
1
1
1
1
1
1
1
1
1
1
1
1
1
1
1
1
1
1
1
1
1
1
1
1
1
1
1
1
1
1
1
1
1
1
1
1
1
1
1
1
1
1
1
1
1
1
1
1
1
1
1
1
1
1
1
1
1
1
1
1
1
1
1
1
1
1.14147
2.35802
2.60535
2.5977
2.59256
2.58893
2.58404
2.57716
2.56887
2.55921
2.54831
2.53623
2.52324
2.50936
2.49525
2.48124
2.46728
2.45344
2.43976
2.42652
1
1
1
1
1
1
1
1
1
1
1
1
1
1
1
1
1
1
1
1
1
1
1
1
1
1
1
1
1
1
1
1
1
1
1
1
1
1
1
1
1
1
1
1
1
1
1
1
1
1
1
1
1
1
1
1
1
1
1
1
1
1
1
1
1
1
1
1
1
1
1
1
1
1
1
1
1.00132
2.01841
2.58795
2.59686
2.59453
2.59218
2.58886
2.58474
2.58019
2.57507
2.56928
2.56254
2.55476
2.54589
2.53607
2.52547
2.51393
2.50163
2.48866
2.47574
1
1
1
1
1
1
1
1
1
1
1
1
1
1
1
1
1
1
1
1
1
1
1
1
1
1
1
1
1
1
1
1
1
1
1
1
1
1
1
1
1
1
1
1
1
1
1
1
1
1
1
1
1
1
1
1
1
1
1
1
1
1
1
1
1
1
1
1
1
1
1
1
1
1
1
1
1
1.45125
2.46473
2.61098
2.60586
2.60244
2.59818
2.59412
2.59027
2.58644
2.58249
2.5782
2.57328
2.5675
2.56071
2.55323
2.54511
2.53635
2.5269
2.51703
1
1
1
1
1
1
1
1
1
1
1
1
1
1
1
1
1
1
1
1
1
1
1
1
1
1
1
1
1
1
1
1
1
1
1
1
1
1
1
1
1
1
1
1
1
1
1
1
1
1
1
1
1
1
1
1
1
1
1
1
1
1
1
1
1
1
1
1
1
1
1
1
1
1
1
1
1
1.02031
2.24254
2.62899
2.62498
2.61591
2.60887
2.60298
2.59807
2.59366
2.5895
2.58539
2.58117
2.57674
2.57203
2.56693
2.56134
2.55535
2.54902
2.54227
1
1
1
1
1
1
1
1
1
1
1
1
1
1
1
1
1
1
1
1
1
1
1
1
1
1
1
1
1
1
1
1
1
1
1
1
1
1
1
1
1
1
1
1
1
1
1
1
1
1
1
1
1
1
1
1
1
1
1
1
1
1
1
1
1
1
1
1
1
1
1
1
1
1
1
1
1
1.00002
1.8494
2.5783
2.62108
2.61605
2.61314
2.6096
2.60571
2.60156
2.59728
2.59298
2.58869
2.58448
2.5803
2.57608
2.57179
2.56732
2.56264
2.55766
1
1
1
1
1
1
1
1
1
1
1
1
1
1
1
1
1
1
1
1
1
1
1
1
1
1
1
1
1
1
1
1
1
1
1
1
1
1
1
1
1
1
1
1
1
1
1
1
1
1
1
1
1
1
1
1
1
1
1
1
1
1
1
1
1
1
1
1
1
1
1
1
1
1
1
1
1
1
1.32863
2.43408
2.62997
2.62401
2.62214
2.61924
2.61551
2.61127
2.6067
2.602
2.59728
2.59263
2.58811
2.58372
2.57948
2.57524
2.57098
2.56659
1
1
1
1
1
1
1
1
1
1
1
1
1
1
1
1
1
1
1
1
1
1
1
1
1
1
1
1
1
1
1
1
1
1
1
1
1
1
1
1
1
1
1
1
1
1
1
1
1
1
1
1
1
1
1
1
1
1
1
1
1
1
1
1
1
1
1
1
1
1
1
1
1
1
1
1
1
1
1.01021
2.24039
2.64275
2.6401
2.63379
2.62909
2.62435
2.61965
2.61486
2.61008
2.6053
2.60054
2.59586
2.59125
2.58677
2.58235
2.57793
2.5735
1
1
1
1
1
1
1
1
1
1
1
1
1
1
1
1
1
1
1
1
1
1
1
1
1
1
1
1
1
1
1
1
1
1
1
1
1
1
1
1
1
1
1
1
1
1
1
1
1
1
1
1
1
1
1
1
1
1
1
1
1
1
1
1
1
1
1
1
1
1
1
1
1
1
1
1
1
1
1
1.92858
2.60932
2.63641
2.63245
2.6302
2.62684
2.62329
2.61971
2.6159
2.61186
2.60763
2.60327
2.59881
2.59435
2.58986
2.58533
2.58078
1
1
1
1
1
1
1
1
1
1
1
1
1
1
1
1
1
1
1
1
1
1
1
1
1
1
1
1
1
1
1
1
1
1
1
1
1
1
1
1
1
1
1
1
1
1
1
1
1
1
1
1
1
1
1
1
1
1
1
1
1
1
1
1
1
1
1
1
1
1
1
1
1
1
1
1
1
1
1
1.50421
2.49203
2.64779
2.64232
2.63902
2.63538
2.63166
2.62821
2.62468
2.62093
2.61696
2.61276
2.60837
2.60386
2.59929
2.59465
2.58997
1
1
1
1
1
1
1
1
1
1
1
1
1
1
1
1
1
1
1
1
1
1
1
1
1
1
1
1
1
1
1
1
1
1
1
1
1
1
1
1
1
1
1
1
1
1
1
1
1
1
1
1
1
1
1
1
1
1
1
1
1
1
1
1
1
1
1
1
1
1
1
1
1
1
1
1
1
1
1
1.0488
2.32671
2.65401
2.64705
2.64174
2.6378
2.63486
2.63218
2.6294
2.62636
2.623
2.61931
2.61534
2.61117
2.60686
2.60246
2.59796
1
1
1
1
1
1
1
1
1
1
1
1
1
1
1
1
1
1
1
1
1
1
1
1
1
1
1
1
1
1
1
1
1
1
1
1
1
1
1
1
1
1
1
1
1
1
1
1
1
1
1
1
1
1
1
1
1
1
1
1
1
1
1
1
1
1
1
1
1
1
1
1
1
1
1
1
1
1
1
1.00017
2.13744
2.65017
2.64934
2.64558
2.64288
2.63987
2.6369
2.63393
2.63088
2.62763
2.62417
2.62051
2.61667
2.61271
2.60863
2.60446
1
1
1
1
1
1
1
1
1
1
1
1
1
1
1
1
1
1
1
1
1
1
1
1
1
1
1
1
1
1
1
1
1
1
1
1
1
1
1
1
1
1
1
1
1
1
1
1
1
1
1
1
1
1
1
1
1
1
1
1
1
1
1
1
1
1
1
1
1
1
1
1
1
1
1
1
1
1
1
1
1.87344
2.6132
2.65305
2.6488
2.646
2.64258
2.63932
2.63609
2.63289
2.62966
2.6264
2.6231
2.61973
2.61626
2.61266
2.60896
1
1
1
1
1
1
1
1
1
1
1
1
1
1
1
1
1
1
1
1
1
1
1
1
1
1
1
1
1
1
1
1
1
1
1
1
1
1
1
1
1
1
1
1
1
1
1
1
1
1
1
1
1
1
1
1
1
1
1
1
1
1
1
1
1
1
1
1
1
1
1
1
1
1
1
1
1
1
1
1
1.55147
2.52586
2.65984
2.65421
2.65147
2.64798
2.64433
2.64063
2.63698
2.63345
2.63003
2.62669
2.62338
2.62005
2.61665
2.61318
1
1
1
1
1
1
1
1
1
1
1
1
1
1
1
1
1
1
1
1
1
1
1
1
1
1
1
1
1
1
1
1
1
1
1
1
1
1
1
1
1
1
1
1
1
1
1
1
1
1
1
1
1
1
1
1
1
1
1
1
1
1
1
1
1
1
1
1
1
1
1
1
1
1
1
1
1
1
1
1
1.20337
2.40143
2.66171
2.65554
2.65276
2.65005
2.64705
2.64376
2.64028
2.63676
2.63324
2.62979
2.62643
2.6231
2.61974
2.61636
1
1
1
1
1
1
1
1
1
1
1
1
1
1
1
1
1
1
1
1
1
1
1
1
1
1
1
1
1
1
1
1
1
1
1
1
1
1
1
1
1
1
1
1
1
1
1
1
1
1
1
1
1
1
1
1
1
1
1
1
1
1
1
1
1
1
1
1
1
1
1
1
1
1
1
1
1
1
1
1
1.00431
2.28187
2.66895
2.66533
2.65956
2.65554
2.65182
2.64829
2.64476
2.64122
2.63765
2.63409
2.6306
2.62714
2.62365
2.62016
1
1
1
1
1
1
1
1
1
1
1
1
1
1
1
1
1
1
1
1
1
1
1
1
1
1
1
1
1
1
1
1
1
1
1
1
1
1
1
1
1
1
1
1
1
1
1
1
1
1
1
1
1
1
1
1
1
1
1
1
1
1
1
1
1
1
1
1
1
1
1
1
1
1
1
1
1
1
1
1
1
2.1258
2.66167
2.66756
2.66332
2.66029
2.65679
2.65338
2.64994
2.64647
2.64297
2.63936
2.63574
2.63209
2.62838
2.62467
1
1
1
1
1
1
1
1
1
1
1
1
1
1
1
1
1
1
1
1
1
1
1
1
1
1
1
1
1
1
1
1
1
1
1
1
1
1
1
1
1
1
1
1
1
1
1
1
1
1
1
1
1
1
1
1
1
1
1
1
1
1
1
1
1
1
1
1
1
1
1
1
1
1
1
1
1
1
1
1
1
1.93885
2.63278
2.67083
2.66637
2.66386
2.66064
2.65742
2.65407
2.65064
2.64719
2.64359
2.6399
2.63616
2.63234
2.62852
1
1
1
1
1
1
1
1
1
1
1
1
1
1
1
1
1
1
1
1
1
1
1
1
1
1
1
1
1
1
1
1
1
1
1
1
1
1
1
1
1
1
1
1
1
1
1
1
1
1
1
1
1
1
1
1
1
1
1
1
1
1
1
1
1
1
1
1
1
1
1
1
1
1
1
1
1
1
1
1
1
1.74127
2.59253
2.67093
2.6658
2.66343
2.6604
2.65734
2.6541
2.65079
2.64745
2.644
2.64049
2.63693
2.63336
2.62975
1
1
1
1
1
1
1
1
1
1
1
1
1
1
1
1
1
1
1
1
1
1
1
1
1
1
1
1
1
1
1
1
1
1
1
1
1
1
1
1
1
1
1
1
1
1
1
1
1
1
1
1
1
1
1
1
1
1
1
1
1
1
1
1
1
1
1
1
1
1
1
1
1
1
1
1
1
1
1
1
1
1.53228
2.53992
2.67053
2.66504
2.66293
2.66034
2.65773
2.65489
2.65194
2.64886
2.64569
2.64242
2.63909
2.63571
2.63228
1
1
1
1
1
1
1
1
1
1
1
1
1
1
1
1
1
1
1
1
1
1
1
1
1
1
1
1
1
1
1
1
1
1
1
1
1
1
1
1
1
1
1
1
1
1
1
1
1
1
1
1
1
1
1
1
1
1
1
1
1
1
1
1
1
1
1
1
1
1
1
1
1
1
1
1
1
1
1
1
1
1.33902
2.47568
2.6733
2.66701
2.66416
2.66126
2.65851
2.65567
2.65278
2.64977
2.64672
2.64356
2.64034
2.63707
2.63374
1
1
1
1
1
1
1
1
1
1
1
1
1
1
1
1
1
1
1
1
1
1
1
1
1
1
1
1
1
1
1
1
1
1
1
1
1
1
1
1
1
1
1
1
1
1
1
1
1
1
1
1
1
1
1
1
1
1
1
1
1
1
1
1
1
1
1
1
1
1
1
1
1
1
1
1
1
1
1
1
1
1.19341
2.4072
2.67681
2.67159
2.66814
2.66481
2.66165
2.6585
2.6554
2.65221
2.64904
2.64576
2.64246
2.63912
2.63573
1
1
1
1
1
1
1
1
1
1
1
1
1
1
1
1
1
1
1
1
1
1
1
1
1
1
1
1
1
1
1
1
1
1
1
1
1
1
1
1
1
1
1
1
1
1
1
1
1
1
1
1
1
1
1
1
1
1
1
1
1
1
1
1
1
1
1
1
1
1
1
1
1
1
1
1
1
1
1
1
1
1.07001
2.33616
2.67785
2.67538
2.67134
2.66804
2.66471
2.66144
2.65821
2.65493
2.65169
2.64834
2.64498
2.64159
2.63818
1
1
1
1
1
1
1
1
1
1
1
1
1
1
1
1
1
1
1
1
1
1
1
1
1
1
1
1
1
1
1
1
1
1
1
1
1
1
1
1
1
1
1
1
1
1
1
1
1
1
1
1
1
1
1
1
1
1
1
1
1
1
1
1
1
1
1
1
1
1
1
1
1
1
1
1
1
1
1
1
1
1.00112
2.26858
2.67567
2.67675
2.67246
2.66981
2.66669
2.66359
2.66043
2.65719
2.65395
2.65063
2.64726
2.64386
2.64044
1
1
1
1
1
1
1
1
1
1
1
1
1
1
1
1
1
1
1
1
1
1
1
1
1
1
1
1
1
1
1
1
1
1
1
1
1
1
1
1
1
1
1
1
1
1
1
1
1
1
1
1
1
1
1
1
1
1
1
1
1
1
1
1
1
1
1
1
1
1
1
1
1
1
1
1
1
1
1
1
1
1
2.19352
2.67028
2.67717
2.67287
2.67047
2.66755
2.66467
2.66166
2.6586
2.65548
2.65232
2.6491
2.64581
2.64251
1
1
1
1
1
1
1
1
1
1
1
1
1
1
1
1
1
1
1
1
1
1
1
1
1
1
1
1
1
1
1
1
1
1
1
1
1
1
1
1
1
1
1
1
1
1
1
1
1
1
1
1
1
1
1
1
1
1
1
1
1
1
1
1
1
1
1
1
1
1
1
1
1
1
1
1
1
1
1
1
1
1
2.12518
2.6641
2.67797
2.67345
2.67101
2.66809
2.66524
2.66227
2.65928
2.65619
2.65311
2.64994
2.64671
2.64345
1
1
1
1
1
1
1
1
1
1
1
1
1
1
1
1
1
1
1
1
1
1
1
1
1
1
1
1
1
1
1
1
1
1
1
1
1
1
1
1
1
1
1
1
1
1
1
1
1
1
1
1
1
1
1
1
1
1
1
1
1
1
1
1
1
1
1
1
1
1
1
1
1
1
1
1
1
1
1
1
1
1
2.06866
2.65846
2.67882
2.67402
2.67149
2.66853
2.66566
2.66269
2.65971
2.65664
2.65359
2.65046
2.64729
2.64407
1
1
1
1
1
1
1
1
1
1
1
1
1
1
1
1
1
1
1
1
1
1
1
1
1
1
1
1
1
1
1
1
1
1
1
1
1
1
1
1
1
1
1
1
1
1
1
1
1
1
1
1
1
1
1
1
1
1
1
1
1
1
1
1
1
1
1
1
1
1
1
1
1
1
1
1
1
1
1
1
1
1
2.02493
2.65367
2.67976
2.67473
2.67211
2.66909
2.66617
2.6632
2.66021
2.65713
2.65408
2.65098
2.64783
2.64463
1
1
1
1
1
1
1
1
1
1
1
1
1
1
1
1
1
1
1
1
1
1
1
1
1
1
1
1
1
1
1
1
1
1
1
1
1
1
1
1
1
1
1
1
1
1
1
1
1
1
1
1
1
1
1
1
1
1
1
1
1
1
1
1