/*--------------------------------*- C++ -*----------------------------------*\
  =========                 |
  \\      /  F ield         | OpenFOAM: The Open Source CFD Toolbox
   \\    /   O peration     | Website:  https://openfoam.org
    \\  /    A nd           | Version:  7
     \\/     M anipulation  |
\*---------------------------------------------------------------------------*/
FoamFile
{
    version     2.0;
    format      ascii;
    class       volVectorField;
    location    "9";
    object      U;
}
// * * * * * * * * * * * * * * * * * * * * * * * * * * * * * * * * * * * * * //

dimensions      [0 1 -1 0 0 0 0];

internalField   nonuniform List<vector> 
19968
(
(3 6.82889e-17 0)
(3 -1.49123e-16 0)
(3 -2.40166e-16 0)
(3 -3.00701e-16 0)
(3 -2.40521e-16 0)
(3 6.68064e-17 0)
(3 1.09742e-16 0)
(3 -3.00452e-17 0)
(3 4.48273e-17 0)
(3 3.89665e-16 0)
(3 4.22877e-16 0)
(3 6.121e-16 0)
(3 8.79089e-16 0)
(3 9.00285e-16 0)
(3 4.95364e-16 0)
(3 1.22758e-16 0)
(3 5.74958e-16 0)
(3 6.46143e-16 0)
(3 7.54641e-16 0)
(3 8.16007e-16 0)
(3 1.0661e-15 0)
(3 1.10681e-15 0)
(3 -1.66082e-16 0)
(3 -5.72565e-16 0)
(3 -5.44967e-17 0)
(3 9.75743e-16 0)
(3 1.58089e-15 0)
(3 2.01347e-15 0)
(3 2.13547e-15 0)
(3 1.16358e-15 0)
(3 7.7215e-16 0)
(3 4.07081e-16 0)
(3 2.64106e-17 0)
(3 -1.46807e-16 0)
(3 -2.69327e-16 0)
(3 -5.41936e-17 0)
(3 -5.89402e-18 0)
(3 1.25677e-16 0)
(3 2.59247e-16 0)
(3 6.44193e-16 0)
(3 1.12637e-15 0)
(3 8.80736e-16 0)
(3 1.0442e-15 0)
(3 2.07257e-15 0)
(3 1.75693e-15 0)
(3 5.368e-16 0)
(3 4.13735e-17 0)
(3 -1.10185e-15 0)
(2.78572 0.00232124 0)
(0.961909 0.00645732 0)
(0.759521 0.00340929 0)
(0.748632 0.00962789 0)
(0.729411 0.0103083 0)
(0.712659 0.00974977 0)
(0.696756 0.00867778 0)
(0.682229 0.00803239 0)
(0.668193 0.0081964 0)
(0.653586 0.00889789 0)
(0.637806 0.00971333 0)
(0.621117 0.0100699 0)
(0.604729 0.0095302 0)
(0.589765 0.00868688 0)
(0.575902 0.00859056 0)
(0.56189 0.00922844 0)
(0.546946 0.00978394 0)
(0.531356 0.00983071 0)
(0.515549 0.00972103 0)
(0.499565 0.0097417 0)
(0.483431 0.00981568 0)
(0.467256 0.00992251 0)
(0.451048 0.0101104 0)
(0.434808 0.0103193 0)
(0.418684 0.0104696 0)
(0.402857 0.010577 0)
(0.387338 0.0106871 0)
(0.371954 0.0108007 0)
(0.356449 0.0108975 0)
(0.340582 0.0109757 0)
(0.324225 0.011056 0)
(0.307416 0.0111535 0)
(0.290325 0.0112627 0)
(0.273132 0.0113748 0)
(0.255918 0.0114913 0)
(0.238651 0.0116175 0)
(0.22125 0.0117579 0)
(0.203659 0.0119164 0)
(0.185874 0.0120979 0)
(0.167912 0.0123047 0)
(0.149755 0.0125377 0)
(0.131321 0.0127969 0)
(0.112488 0.0130882 0)
(0.0931568 0.0134092 0)
(0.0732932 0.0137742 0)
(0.0528658 0.0141947 0)
(0.0319842 0.014483 0)
(0.0108626 0.0149319 0)
(3 1.39691e-16 0)
(3 4.57917e-16 0)
(3 2.80807e-16 0)
(3 -4.09275e-19 0)
(3 -4.53205e-17 0)
(3 -7.33705e-17 0)
(3 -2.271e-16 0)
(3 -1.86913e-16 0)
(3 1.56361e-16 0)
(3 4.90086e-16 0)
(3 2.47827e-16 0)
(3 5.75511e-16 0)
(3 1.08315e-15 0)
(3 5.86346e-16 0)
(3 -4.00475e-16 0)
(3 -1.05187e-17 0)
(3 3.55458e-16 0)
(3 4.67742e-16 0)
(3 4.71169e-17 0)
(3 -5.09862e-17 0)
(3 -4.22847e-17 0)
(3 -5.98783e-16 0)
(3 -1.73118e-15 0)
(3 -1.99071e-15 0)
(3 -8.41078e-16 0)
(3 7.26861e-16 0)
(3 2.36509e-15 0)
(3 2.35463e-15 0)
(3 1.93064e-15 0)
(3 1.29552e-15 0)
(3 9.41085e-16 0)
(3 1.49501e-16 0)
(3 -5.24303e-16 0)
(3 -1.26954e-15 0)
(3 -1.73523e-15 0)
(3 -9.45115e-16 0)
(3 -6.06983e-16 0)
(3 7.29446e-16 0)
(3 1.28868e-15 0)
(3 1.47112e-15 0)
(3 1.24987e-15 0)
(3 6.60197e-16 0)
(3 7.16462e-16 0)
(3 1.30288e-15 0)
(3 2.14173e-15 0)
(3 7.19718e-16 0)
(3 1.61385e-16 0)
(3 2.50628e-16 0)
(2.80204 0.0132697 0)
(0.967781 0.0297012 0)
(0.755201 0.0184484 0)
(0.742156 0.0268584 0)
(0.724824 0.0290982 0)
(0.709004 0.0283167 0)
(0.693522 0.0260929 0)
(0.678778 0.0244919 0)
(0.664377 0.0247526 0)
(0.649667 0.0265527 0)
(0.634109 0.0287828 0)
(0.617799 0.0299036 0)
(0.601725 0.0287679 0)
(0.586732 0.0267257 0)
(0.57249 0.026403 0)
(0.558292 0.0280812 0)
(0.543341 0.0295455 0)
(0.527884 0.0296354 0)
(0.512224 0.0294029 0)
(0.496296 0.0295851 0)
(0.480117 0.0298761 0)
(0.463833 0.0301841 0)
(0.447521 0.0306897 0)
(0.431211 0.0312872 0)
(0.415025 0.0317679 0)
(0.399108 0.0321473 0)
(0.383468 0.0325169 0)
(0.367958 0.0328697 0)
(0.352348 0.0331608 0)
(0.336414 0.0333953 0)
(0.320033 0.0336336 0)
(0.303237 0.0339218 0)
(0.286179 0.0342458 0)
(0.269019 0.0345807 0)
(0.251828 0.0349329 0)
(0.234576 0.035321 0)
(0.217195 0.0357572 0)
(0.199645 0.0362503 0)
(0.181931 0.0368124 0)
(0.164079 0.0374498 0)
(0.146073 0.0381671 0)
(0.127841 0.0389642 0)
(0.109274 0.039854 0)
(0.0902874 0.0408247 0)
(0.0708651 0.0419029 0)
(0.0509992 0.0431314 0)
(0.0307703 0.0439474 0)
(0.0104356 0.045188 0)
(3 -2.0114e-16 0)
(3 -7.07722e-17 0)
(3 -1.88261e-16 0)
(3 -4.46608e-16 0)
(3 -5.94892e-16 0)
(3 -7.95844e-16 0)
(3 -6.69811e-16 0)
(3 -7.87915e-16 0)
(3 -9.4702e-16 0)
(3 -7.91643e-16 0)
(3 -4.93742e-16 0)
(3 2.26229e-16 0)
(3 6.0841e-16 0)
(3 -3.74477e-16 0)
(3 -6.05426e-17 0)
(3 4.02392e-16 0)
(3 6.75643e-16 0)
(3 5.70363e-16 0)
(3 2.08503e-16 0)
(3 1.70502e-16 0)
(3 -8.00596e-17 0)
(3 -4.0187e-16 0)
(3 -1.87341e-16 0)
(3 1.42933e-16 0)
(3 5.55947e-16 0)
(3 3.85881e-16 0)
(3 -1.50642e-16 0)
(3 -7.09186e-16 0)
(3 -1.18241e-15 0)
(3 -6.96375e-16 0)
(3 -6.24927e-16 0)
(3 -4.11067e-16 0)
(3 -1.60809e-16 0)
(3 -6.91179e-17 0)
(3 2.5063e-16 0)
(3 2.70325e-16 0)
(3 9.94757e-16 0)
(3 1.67655e-15 0)
(3 1.69285e-15 0)
(3 9.50189e-16 0)
(3 6.5997e-16 0)
(3 3.09216e-17 0)
(3 -6.54977e-16 0)
(3 -9.59878e-16 0)
(3 -1.87538e-16 0)
(3 5.58914e-16 0)
(3 1.32405e-15 0)
(3 1.37256e-15 0)
(2.84102 0.0208529 0)
(0.985762 0.049849 0)
(0.758833 0.0364072 0)
(0.744385 0.0457762 0)
(0.727501 0.0483748 0)
(0.712075 0.0473655 0)
(0.696712 0.0447577 0)
(0.681489 0.042844 0)
(0.666345 0.0432984 0)
(0.65112 0.045827 0)
(0.635438 0.0489247 0)
(0.619213 0.0504341 0)
(0.603228 0.0488792 0)
(0.588031 0.046103 0)
(0.573226 0.0457795 0)
(0.558676 0.0483805 0)
(0.543541 0.0505917 0)
(0.528053 0.0506416 0)
(0.512423 0.0503282 0)
(0.496495 0.0507823 0)
(0.480239 0.0514014 0)
(0.463796 0.0519522 0)
(0.447292 0.0527284 0)
(0.430793 0.0536371 0)
(0.414404 0.0544024 0)
(0.398244 0.0550447 0)
(0.382327 0.0556734 0)
(0.366534 0.0562614 0)
(0.350666 0.0567463 0)
(0.33452 0.057143 0)
(0.317984 0.057543 0)
(0.301088 0.0580155 0)
(0.283971 0.0585387 0)
(0.266778 0.0590759 0)
(0.24957 0.0596439 0)
(0.232318 0.060279 0)
(0.214958 0.0610007 0)
(0.197452 0.0618145 0)
(0.179804 0.0627296 0)
(0.162029 0.0637507 0)
(0.144109 0.0648863 0)
(0.12597 0.0661382 0)
(0.107519 0.0675261 0)
(0.0886885 0.0690317 0)
(0.0694799 0.0706839 0)
(0.0499223 0.0725829 0)
(0.0300515 0.0737908 0)
(0.0101975 0.07568 0)
(3 4.46329e-17 0)
(3 -2.07206e-16 0)
(3 -5.02224e-16 0)
(3 -4.5125e-16 0)
(3 -3.7076e-16 0)
(3 -1.12064e-16 0)
(3 3.75158e-16 0)
(3 -1.37005e-16 0)
(3 -7.02459e-16 0)
(3 -2.9151e-16 0)
(3 1.15027e-16 0)
(3 -1.08208e-17 0)
(3 -5.19357e-16 0)
(3 -4.0921e-16 0)
(3 1.05545e-16 0)
(3 -1.83116e-16 0)
(3 -4.48952e-16 0)
(3 -6.19828e-16 0)
(3 -2.03181e-16 0)
(3 3.99821e-16 0)
(3 5.64592e-16 0)
(3 6.68922e-16 0)
(3 8.10325e-16 0)
(3 4.71368e-16 0)
(3 3.68909e-16 0)
(3 4.98719e-16 0)
(3 -1.45844e-17 0)
(3 -9.64361e-16 0)
(3 -1.36228e-15 0)
(3 -1.43476e-15 0)
(3 -9.87702e-16 0)
(3 -3.17851e-16 0)
(3 -1.08966e-15 0)
(3 -1.11167e-15 0)
(3 -7.11233e-16 0)
(3 -5.40564e-16 0)
(3 1.18224e-16 0)
(3 1.85629e-16 0)
(3 6.37278e-17 0)
(3 2.17758e-16 0)
(3 9.72007e-16 0)
(3 1.3092e-15 0)
(3 1.06431e-15 0)
(3 1.24455e-16 0)
(3 -5.15287e-16 0)
(3 -4.89788e-16 0)
(3 -7.8392e-16 0)
(3 -1.05826e-15 0)
(2.89054 0.0239597 0)
(1.01057 0.0683027 0)
(0.760329 0.0569054 0)
(0.74435 0.065071 0)
(0.729101 0.0670931 0)
(0.71453 0.0660891 0)
(0.699576 0.0639715 0)
(0.684236 0.0624653 0)
(0.668743 0.0631785 0)
(0.65332 0.0659997 0)
(0.637834 0.0694329 0)
(0.622013 0.0711435 0)
(0.606327 0.0695756 0)
(0.591075 0.0666484 0)
(0.575883 0.0665415 0)
(0.561086 0.0699154 0)
(0.545801 0.0726993 0)
(0.530262 0.0726472 0)
(0.514619 0.0722855 0)
(0.498692 0.0731049 0)
(0.482398 0.0741918 0)
(0.465831 0.0750848 0)
(0.449146 0.0761371 0)
(0.432441 0.0773259 0)
(0.415809 0.0783805 0)
(0.399344 0.0793271 0)
(0.383061 0.0802568 0)
(0.36687 0.0811087 0)
(0.350601 0.0818115 0)
(0.334069 0.0823899 0)
(0.317169 0.0829551 0)
(0.299927 0.0835937 0)
(0.282474 0.0842786 0)
(0.264948 0.084963 0)
(0.247422 0.0856752 0)
(0.229892 0.0864766 0)
(0.212327 0.0874062 0)
(0.194717 0.0884755 0)
(0.177079 0.0896964 0)
(0.159425 0.091074 0)
(0.141725 0.0926205 0)
(0.123881 0.0943367 0)
(0.105775 0.09624 0)
(0.0873059 0.0983052 0)
(0.0684431 0.100534 0)
(0.0492321 0.103104 0)
(0.0296279 0.104681 0)
(0.0101039 0.107172 0)
(3 2.55002e-16 0)
(3 1.56781e-16 0)
(3 1.56285e-16 0)
(3 6.46639e-16 0)
(3 1.19588e-15 0)
(3 1.26418e-15 0)
(3 9.1658e-16 0)
(3 1.24215e-15 0)
(3 1.35462e-15 0)
(3 1.65186e-15 0)
(3 1.31737e-15 0)
(3 5.21615e-16 0)
(3 1.50678e-16 0)
(3 -1.04474e-16 0)
(3 -3.27513e-16 0)
(3 -8.40777e-16 0)
(3 -1.2681e-15 0)
(3 -8.84437e-16 0)
(3 -3.96161e-16 0)
(3 -1.82233e-16 0)
(3 7.49078e-16 0)
(3 6.16436e-16 0)
(3 1.08337e-16 0)
(3 -3.31534e-16 0)
(3 -3.33044e-16 0)
(3 -2.44207e-16 0)
(3 -8.72134e-16 0)
(3 -1.10743e-15 0)
(3 -9.33743e-16 0)
(3 -7.40202e-16 0)
(3 -2.85551e-16 0)
(3 7.3421e-17 0)
(3 -4.01733e-16 0)
(3 -3.90705e-16 0)
(3 -6.11658e-17 0)
(3 6.32607e-16 0)
(3 -1.4975e-16 0)
(3 2.16799e-17 0)
(3 -1.89621e-16 0)
(3 -2.38229e-16 0)
(3 -5.74705e-16 0)
(3 -9.00306e-17 0)
(3 4.56607e-16 0)
(3 4.01821e-16 0)
(3 1.37686e-16 0)
(3 -1.31816e-15 0)
(3 -3.54029e-15 0)
(3 -3.45348e-15 0)
(2.94238 0.0305534 0)
(1.04031 0.0946663 0)
(0.762521 0.0807179 0)
(0.746652 0.0832167 0)
(0.733677 0.0847111 0)
(0.71977 0.0845753 0)
(0.705036 0.0839403 0)
(0.689456 0.0835694 0)
(0.6735 0.084649 0)
(0.657681 0.0872696 0)
(0.642242 0.0903292 0)
(0.626914 0.0919898 0)
(0.611736 0.090776 0)
(0.59674 0.0882721 0)
(0.58158 0.0886541 0)
(0.566885 0.0927326 0)
(0.5517 0.0959685 0)
(0.536283 0.0958278 0)
(0.520768 0.0954256 0)
(0.505032 0.0966362 0)
(0.488936 0.0983166 0)
(0.472465 0.099701 0)
(0.45577 0.101094 0)
(0.438982 0.10257 0)
(0.422201 0.103952 0)
(0.405497 0.105296 0)
(0.388882 0.106646 0)
(0.372285 0.10789 0)
(0.355562 0.108956 0)
(0.338536 0.109873 0)
(0.321098 0.110747 0)
(0.303267 0.111667 0)
(0.285156 0.112598 0)
(0.266902 0.113472 0)
(0.248592 0.114319 0)
(0.230256 0.115215 0)
(0.211906 0.116211 0)
(0.193574 0.117328 0)
(0.175313 0.118588 0)
(0.157168 0.120023 0)
(0.139135 0.121685 0)
(0.12114 0.123613 0)
(0.103075 0.125842 0)
(0.0848346 0.128364 0)
(0.0663513 0.131116 0)
(0.047683 0.134367 0)
(0.0286372 0.136336 0)
(0.00980171 0.139424 0)
(3 -2.86734e-17 0)
(3 6.47309e-17 0)
(3 1.6178e-17 0)
(3 8.64243e-16 0)
(3 8.52501e-16 0)
(3 7.76315e-16 0)
(3 6.98903e-16 0)
(3 7.46705e-16 0)
(3 9.78143e-16 0)
(3 7.69179e-16 0)
(3 6.70261e-16 0)
(3 6.91784e-16 0)
(3 4.31005e-16 0)
(3 -1.30442e-16 0)
(3 -5.63366e-16 0)
(3 -1.64151e-16 0)
(3 -4.01777e-17 0)
(3 6.15552e-17 0)
(3 9.24925e-17 0)
(3 -1.36852e-16 0)
(3 -1.11015e-16 0)
(3 -7.73441e-16 0)
(3 -1.00158e-15 0)
(3 -5.4669e-16 0)
(3 2.14617e-16 0)
(3 1.01065e-15 0)
(3 2.19637e-15 0)
(3 2.40104e-15 0)
(3 1.885e-15 0)
(3 1.67446e-15 0)
(3 1.43141e-15 0)
(3 1.33447e-15 0)
(3 1.20676e-15 0)
(3 1.1518e-15 0)
(3 1.42331e-15 0)
(3 6.12261e-16 0)
(3 -2.98356e-16 0)
(3 -1.05957e-15 0)
(3 -1.18806e-15 0)
(3 -8.12814e-16 0)
(3 -6.1981e-16 0)
(3 -6.37611e-17 0)
(3 8.40131e-16 0)
(3 8.40557e-16 0)
(3 -5.09751e-17 0)
(3 -9.41621e-16 0)
(3 -2.08385e-15 0)
(3 -2.61622e-15 0)
(2.99766 0.00178701 0)
(1.10568 0.115918 0)
(0.774784 0.0995324 0)
(0.757318 0.0981084 0)
(0.744716 0.10045 0)
(0.730782 0.1019 0)
(0.716181 0.103577 0)
(0.700433 0.105237 0)
(0.684065 0.107178 0)
(0.667713 0.10924 0)
(0.651985 0.111059 0)
(0.636884 0.112042 0)
(0.622157 0.111151 0)
(0.607527 0.109435 0)
(0.592669 0.110586 0)
(0.578272 0.115355 0)
(0.563272 0.119047 0)
(0.547975 0.118844 0)
(0.532606 0.118308 0)
(0.51714 0.119768 0)
(0.501418 0.122057 0)
(0.485257 0.124089 0)
(0.468751 0.125943 0)
(0.45206 0.127735 0)
(0.435313 0.129475 0)
(0.418575 0.131311 0)
(0.401845 0.133226 0)
(0.385061 0.135039 0)
(0.368094 0.136676 0)
(0.350774 0.138171 0)
(0.332982 0.139609 0)
(0.314715 0.14107 0)
(0.296069 0.142514 0)
(0.277166 0.143853 0)
(0.258097 0.145097 0)
(0.238911 0.146316 0)
(0.219642 0.147564 0)
(0.200342 0.14885 0)
(0.181085 0.150197 0)
(0.161938 0.151651 0)
(0.14293 0.1533 0)
(0.124025 0.155237 0)
(0.10516 0.157524 0)
(0.0862677 0.160228 0)
(0.0672727 0.163217 0)
(0.0482716 0.166934 0)
(0.028925 0.169159 0)
(0.00992511 0.172719 0)
(3 -5.54122e-17 0)
(3 2.34064e-16 0)
(3 6.61096e-16 0)
(3 3.90304e-16 0)
(3 -9.2151e-17 0)
(3 -2.04388e-16 0)
(3 -3.93774e-16 0)
(3 -6.5684e-16 0)
(3 -8.68179e-16 0)
(3 -1.05342e-15 0)
(3 -1.26044e-15 0)
(3 -1.06736e-15 0)
(3 -6.58077e-16 0)
(3 -6.9036e-16 0)
(3 -2.84061e-16 0)
(3 4.0078e-16 0)
(3 2.7286e-16 0)
(3 -1.81246e-16 0)
(3 -4.60908e-16 0)
(3 -9.79554e-16 0)
(3 -1.92984e-15 0)
(3 -2.7005e-15 0)
(3 -2.55766e-15 0)
(3 -1.70268e-15 0)
(3 -4.5742e-16 0)
(3 3.53236e-16 0)
(3 1.18959e-15 0)
(3 1.20717e-15 0)
(3 6.52007e-16 0)
(3 5.15169e-16 0)
(3 5.51986e-16 0)
(3 1.04897e-15 0)
(3 1.43034e-15 0)
(3 1.51669e-15 0)
(3 1.49075e-15 0)
(3 7.91584e-16 0)
(3 -3.32813e-17 0)
(3 -1.0122e-16 0)
(3 5.88881e-16 0)
(3 1.13754e-15 0)
(3 1.63761e-15 0)
(3 1.31372e-15 0)
(3 1.06577e-15 0)
(3 1.5304e-16 0)
(3 -1.08917e-15 0)
(3 -1.69984e-15 0)
(3 -1.68295e-15 0)
(3 -1.46423e-15 0)
(3.00005 5.09291e-05 0)
(1.21716 0.138305 0)
(0.776422 0.123817 0)
(0.75373 0.117635 0)
(0.740658 0.119631 0)
(0.72639 0.122104 0)
(0.711769 0.125973 0)
(0.69603 0.129883 0)
(0.679772 0.132943 0)
(0.663601 0.134241 0)
(0.648169 0.134308 0)
(0.63351 0.134237 0)
(0.619275 0.133563 0)
(0.60502 0.132784 0)
(0.59055 0.134956 0)
(0.576575 0.140532 0)
(0.561939 0.144818 0)
(0.546957 0.144653 0)
(0.531953 0.143894 0)
(0.516965 0.145447 0)
(0.50191 0.148334 0)
(0.486434 0.151191 0)
(0.470508 0.153716 0)
(0.454282 0.155924 0)
(0.437947 0.158041 0)
(0.421596 0.160386 0)
(0.405217 0.162903 0)
(0.388738 0.165321 0)
(0.372046 0.167565 0)
(0.354979 0.169688 0)
(0.337404 0.171742 0)
(0.319302 0.173783 0)
(0.30075 0.175768 0)
(0.281856 0.177594 0)
(0.262714 0.179243 0)
(0.24338 0.180776 0)
(0.223898 0.182247 0)
(0.204319 0.183664 0)
(0.184715 0.185048 0)
(0.165148 0.186453 0)
(0.145653 0.187997 0)
(0.126221 0.189826 0)
(0.106824 0.192014 0)
(0.0874589 0.19474 0)
(0.0680579 0.197778 0)
(0.0487926 0.201832 0)
(0.0291849 0.204233 0)
(0.0100397 0.208188 0)
(3 -4.45396e-17 0)
(3 -1.10514e-16 0)
(3 -2.49016e-16 0)
(3 -5.97777e-16 0)
(3 -4.39832e-16 0)
(3 -4.86946e-16 0)
(3 -4.68317e-16 0)
(3 1.07995e-16 0)
(3 1.46347e-16 0)
(3 -6.00267e-16 0)
(3 -9.00487e-16 0)
(3 -6.56962e-16 0)
(3 -2.02389e-16 0)
(3 3.76126e-17 0)
(3 7.81043e-16 0)
(3 8.18027e-16 0)
(3 1.0085e-15 0)
(3 8.93409e-16 0)
(3 4.78537e-16 0)
(3 3.4079e-16 0)
(3 -2.00716e-17 0)
(3 -4.30542e-16 0)
(3 -7.54155e-16 0)
(3 -9.2457e-16 0)
(3 -5.43641e-16 0)
(3 -5.65179e-16 0)
(3 -1.17717e-15 0)
(3 -1.08348e-15 0)
(3 -5.22545e-16 0)
(3 -5.87728e-16 0)
(3 -2.01717e-16 0)
(3 4.95702e-16 0)
(3 1.47995e-15 0)
(3 1.71959e-15 0)
(3 1.85438e-15 0)
(3 1.91766e-15 0)
(3 1.83693e-15 0)
(3 1.90027e-15 0)
(3 2.51909e-15 0)
(3 3.21923e-15 0)
(3 2.81221e-15 0)
(3 9.93107e-16 0)
(3 -6.47724e-17 0)
(3 -2.84267e-16 0)
(3 -3.16814e-16 0)
(3 -3.57399e-17 0)
(3 3.07905e-16 0)
(3 5.20504e-16 0)
(3 8.17615e-08 0)
(1.41367 0.17035 0)
(0.787785 0.153775 0)
(0.754905 0.139495 0)
(0.740661 0.140027 0)
(0.725699 0.143092 0)
(0.710884 0.148822 0)
(0.695233 0.154704 0)
(0.679209 0.158487 0)
(0.663358 0.158915 0)
(0.64821 0.157188 0)
(0.633701 0.155835 0)
(0.619684 0.155212 0)
(0.605697 0.155358 0)
(0.591665 0.158514 0)
(0.578286 0.164827 0)
(0.564275 0.169656 0)
(0.549874 0.16965 0)
(0.535507 0.168583 0)
(0.521221 0.169925 0)
(0.507092 0.173147 0)
(0.49262 0.176817 0)
(0.477566 0.180187 0)
(0.462014 0.182941 0)
(0.44624 0.185462 0)
(0.430412 0.188364 0)
(0.414516 0.191618 0)
(0.398451 0.194832 0)
(0.382106 0.197899 0)
(0.365324 0.20089 0)
(0.347952 0.20383 0)
(0.329943 0.206738 0)
(0.311355 0.209577 0)
(0.292287 0.212235 0)
(0.272833 0.214662 0)
(0.253065 0.216884 0)
(0.233047 0.21894 0)
(0.212846 0.220822 0)
(0.192534 0.222529 0)
(0.172165 0.224108 0)
(0.151771 0.225686 0)
(0.131362 0.227467 0)
(0.110953 0.229518 0)
(0.0906169 0.232178 0)
(0.0703201 0.235098 0)
(0.0503293 0.23936 0)
(0.0300424 0.241865 0)
(0.0103337 0.246142 0)
(3 2.34815e-17 0)
(3 1.67119e-16 0)
(3 1.9435e-16 0)
(3 5.45526e-16 0)
(3 5.94739e-16 0)
(3 6.0013e-16 0)
(3 7.16633e-16 0)
(3 9.05819e-16 0)
(3 1.09398e-15 0)
(3 8.24751e-16 0)
(3 2.35607e-17 0)
(3 -3.79081e-16 0)
(3 -5.55374e-16 0)
(3 -5.684e-16 0)
(3 -6.67659e-16 0)
(3 -5.37442e-16 0)
(3 -2.49281e-17 0)
(3 7.77267e-16 0)
(3 9.18954e-16 0)
(3 8.57228e-16 0)
(3 9.15282e-16 0)
(3 9.40342e-16 0)
(3 9.48358e-16 0)
(3 1.13191e-15 0)
(3 4.9271e-16 0)
(3 -1.11749e-15 0)
(3 -2.65019e-15 0)
(3 -2.48419e-15 0)
(3 -1.4502e-15 0)
(3 -7.72224e-16 0)
(3 1.53035e-16 0)
(3 3.59959e-16 0)
(3 7.62628e-16 0)
(3 1.42912e-15 0)
(3 1.48298e-15 0)
(3 1.30361e-15 0)
(3 1.66385e-15 0)
(3 1.96072e-15 0)
(3 1.23385e-15 0)
(3 1.01211e-15 0)
(3 2.5958e-16 0)
(3 -2.01459e-17 0)
(3 8.90096e-16 0)
(3 2.50586e-15 0)
(3 3.39009e-15 0)
(3 3.10014e-15 0)
(3 2.37971e-15 0)
(3 1.2727e-15 0)
(3 2.22435e-10 0)
(1.7199 0.194281 0)
(0.815428 0.185626 0)
(0.762165 0.166246 0)
(0.746058 0.164008 0)
(0.729625 0.166966 0)
(0.714085 0.173673 0)
(0.698238 0.180716 0)
(0.682188 0.184873 0)
(0.666221 0.18478 0)
(0.650691 0.181849 0)
(0.635463 0.179296 0)
(0.620714 0.178434 0)
(0.606228 0.179134 0)
(0.592012 0.182914 0)
(0.578747 0.189725 0)
(0.565037 0.19506 0)
(0.550838 0.195479 0)
(0.536653 0.19424 0)
(0.522548 0.195163 0)
(0.508845 0.198455 0)
(0.495106 0.202918 0)
(0.48085 0.207375 0)
(0.465971 0.210912 0)
(0.45082 0.213885 0)
(0.435695 0.217341 0)
(0.420596 0.221417 0)
(0.405333 0.225586 0)
(0.389757 0.229639 0)
(0.373708 0.233673 0)
(0.356999 0.237702 0)
(0.339541 0.2417 0)
(0.321373 0.245623 0)
(0.302582 0.249356 0)
(0.283256 0.252807 0)
(0.263474 0.255963 0)
(0.243305 0.258843 0)
(0.222815 0.261424 0)
(0.202055 0.263683 0)
(0.181054 0.265644 0)
(0.159826 0.267415 0)
(0.138397 0.269256 0)
(0.116822 0.271189 0)
(0.0952688 0.273746 0)
(0.073766 0.276406 0)
(0.0527078 0.280754 0)
(0.031408 0.283297 0)
(0.0107908 0.287847 0)
(3 1.07337e-16 0)
(3 1.22509e-16 0)
(3 1.92301e-16 0)
(3 2.51893e-16 0)
(3 -8.46169e-17 0)
(3 -9.48133e-18 0)
(3 3.34511e-16 0)
(3 2.52985e-16 0)
(3 -7.06342e-17 0)
(3 -5.09063e-16 0)
(3 -6.05763e-16 0)
(3 -6.8443e-16 0)
(3 -4.37319e-16 0)
(3 -7.1116e-16 0)
(3 -1.10203e-15 0)
(3 -9.0151e-16 0)
(3 -8.59968e-16 0)
(3 -4.42242e-16 0)
(3 -3.73855e-16 0)
(3 -7.71738e-16 0)
(3 -7.38162e-16 0)
(3 -5.0262e-16 0)
(3 -3.6055e-16 0)
(3 -3.46241e-16 0)
(3 -8.01542e-16 0)
(3 -1.42794e-15 0)
(3 -2.25613e-15 0)
(3 -2.76843e-15 0)
(3 -2.42195e-15 0)
(3 -3.71371e-16 0)
(3 4.51873e-17 0)
(3 8.35213e-16 0)
(3 1.7497e-15 0)
(3 2.12947e-15 0)
(3 1.54856e-15 0)
(3 1.14625e-15 0)
(3 1.472e-15 0)
(3 1.94709e-15 0)
(3 8.6032e-16 0)
(3 -5.20297e-16 0)
(3 -2.40681e-16 0)
(3 3.72124e-16 0)
(3 1.42995e-15 0)
(3 2.57732e-15 0)
(3 2.80492e-15 0)
(3 3.33563e-15 0)
(3 3.34156e-15 0)
(3 2.50494e-15 0)
(3 5.20313e-13 0)
(2.13758 0.202754 0)
(0.857158 0.22283 0)
(0.760024 0.198936 0)
(0.743802 0.193326 0)
(0.728137 0.195022 0)
(0.714746 0.201662 0)
(0.701206 0.20885 0)
(0.687131 0.213182 0)
(0.672318 0.213281 0)
(0.657033 0.210141 0)
(0.64137 0.206814 0)
(0.625868 0.205466 0)
(0.610791 0.206156 0)
(0.596264 0.209861 0)
(0.582979 0.216604 0)
(0.569492 0.222331 0)
(0.555191 0.223529 0)
(0.540607 0.222453 0)
(0.525953 0.222737 0)
(0.511765 0.225431 0)
(0.497941 0.230066 0)
(0.483888 0.235361 0)
(0.469153 0.239646 0)
(0.454077 0.242852 0)
(0.43915 0.246528 0)
(0.424493 0.251237 0)
(0.409858 0.256353 0)
(0.39502 0.261438 0)
(0.379824 0.266581 0)
(0.364051 0.271833 0)
(0.347532 0.277128 0)
(0.330233 0.282401 0)
(0.312186 0.28754 0)
(0.293437 0.29243 0)
(0.274031 0.297006 0)
(0.254027 0.30125 0)
(0.233482 0.305096 0)
(0.212444 0.308455 0)
(0.190936 0.311287 0)
(0.168969 0.313641 0)
(0.146576 0.315831 0)
(0.123827 0.317813 0)
(0.100958 0.320343 0)
(0.0780629 0.32266 0)
(0.0556922 0.326975 0)
(0.0331452 0.329491 0)
(0.0113504 0.334294 0)
(3 -8.6243e-17 0)
(3 -2.25923e-16 0)
(3 -5.42839e-16 0)
(3 -8.91446e-16 0)
(3 -8.79298e-16 0)
(3 -9.73648e-16 0)
(3 -9.0854e-16 0)
(3 -8.44071e-16 0)
(3 -1.1396e-15 0)
(3 -9.906e-16 0)
(3 -3.60722e-16 0)
(3 -3.51655e-16 0)
(3 -3.88701e-16 0)
(3 -6.48789e-16 0)
(3 -9.35267e-16 0)
(3 -1.24099e-15 0)
(3 -1.41293e-15 0)
(3 -1.45125e-15 0)
(3 -1.44852e-15 0)
(3 -1.56909e-15 0)
(3 -1.55263e-15 0)
(3 -1.4615e-15 0)
(3 -1.44192e-15 0)
(3 -1.58053e-15 0)
(3 -1.69845e-15 0)
(3 -1.7841e-15 0)
(3 -1.52706e-15 0)
(3 -8.00885e-16 0)
(3 1.83274e-17 0)
(3 7.20607e-16 0)
(3 1.20526e-15 0)
(3 1.71473e-15 0)
(3 2.33979e-15 0)
(3 2.47055e-15 0)
(3 2.2436e-15 0)
(3 1.98873e-15 0)
(3 1.87444e-15 0)
(3 1.07433e-15 0)
(3 3.52111e-16 0)
(3 2.87048e-16 0)
(3 6.62805e-16 0)
(3 5.99949e-16 0)
(3 8.25469e-16 0)
(3 1.0172e-15 0)
(3 1.02941e-15 0)
(3 1.10879e-15 0)
(3 1.06448e-15 0)
(3 8.73427e-16 0)
(3 1.6797e-15 0)
(2.67537 0.177946 0)
(0.960053 0.261518 0)
(0.783099 0.232855 0)
(0.773645 0.218906 0)
(0.754536 0.21857 0)
(0.739479 0.224088 0)
(0.724924 0.231377 0)
(0.710453 0.236842 0)
(0.695334 0.239014 0)
(0.679546 0.237658 0)
(0.663261 0.234956 0)
(0.646874 0.233706 0)
(0.630888 0.234436 0)
(0.615518 0.23776 0)
(0.60146 0.244172 0)
(0.587657 0.250661 0)
(0.572806 0.253682 0)
(0.557229 0.253918 0)
(0.541359 0.254149 0)
(0.525838 0.256062 0)
(0.510966 0.260353 0)
(0.496364 0.266217 0)
(0.481117 0.271394 0)
(0.465265 0.27489 0)
(0.449482 0.278477 0)
(0.434164 0.283418 0)
(0.41914 0.289192 0)
(0.404082 0.295063 0)
(0.388831 0.301032 0)
(0.373202 0.307267 0)
(0.35699 0.313733 0)
(0.340111 0.320339 0)
(0.322585 0.326974 0)
(0.304443 0.333492 0)
(0.285698 0.339768 0)
(0.266343 0.345717 0)
(0.246347 0.351219 0)
(0.225659 0.356118 0)
(0.204205 0.360328 0)
(0.181903 0.363846 0)
(0.158738 0.367046 0)
(0.13474 0.369758 0)
(0.110224 0.372882 0)
(0.0853364 0.375261 0)
(0.0608635 0.379693 0)
(0.0362129 0.382228 0)
(0.012371 0.387365 0)
(3 -4.86834e-17 0)
(3 1.1047e-16 0)
(3 1.00921e-16 0)
(3 -5.96994e-17 0)
(3 -1.81379e-17 0)
(3 -1.85555e-16 0)
(3 -4.00551e-16 0)
(3 -8.41101e-16 0)
(3 -1.02526e-15 0)
(3 -4.52371e-16 0)
(3 -3.39741e-16 0)
(3 -5.44517e-16 0)
(3 -8.29774e-16 0)
(3 -8.07888e-16 0)
(3 -7.97e-16 0)
(3 -1.2195e-15 0)
(3 -1.28354e-15 0)
(3 -1.73632e-15 0)
(3 -1.72212e-15 0)
(3 -1.3763e-15 0)
(3 -7.92624e-16 0)
(3 -4.13907e-16 0)
(3 -5.15644e-16 0)
(3 -7.56259e-16 0)
(3 -1.08291e-15 0)
(3 -1.24623e-15 0)
(3 -1.49249e-15 0)
(3 5.59622e-16 0)
(3 1.39879e-15 0)
(3 1.64947e-15 0)
(3 2.18811e-15 0)
(3 1.91248e-15 0)
(3 1.43439e-15 0)
(3 1.44317e-15 0)
(3 1.39401e-15 0)
(3 1.50529e-15 0)
(3 1.36052e-15 0)
(3 7.79276e-16 0)
(3 8.10653e-16 0)
(3 5.52689e-16 0)
(3 -6.88485e-16 0)
(3 -9.88071e-16 0)
(3 -2.66867e-16 0)
(3 1.42762e-16 0)
(3 3.69293e-16 0)
(3 6.92021e-17 0)
(3 -5.93305e-17 0)
(3 -7.98539e-17 0)
(3 -4.98355e-17 0)
(3.02128 0.0106491 0)
(1.14636 0.279088 0)
(0.810475 0.233029 0)
(0.797774 0.244743 0)
(0.78043 0.249388 0)
(0.764105 0.254536 0)
(0.748642 0.260334 0)
(0.734104 0.264651 0)
(0.719993 0.266648 0)
(0.705574 0.265996 0)
(0.690446 0.263936 0)
(0.674759 0.262919 0)
(0.659081 0.26367 0)
(0.643701 0.266216 0)
(0.629302 0.27145 0)
(0.615653 0.277948 0)
(0.601229 0.282771 0)
(0.585625 0.285211 0)
(0.569278 0.286342 0)
(0.55292 0.287583 0)
(0.53707 0.290951 0)
(0.521855 0.296984 0)
(0.506254 0.303481 0)
(0.489655 0.308116 0)
(0.472763 0.31195 0)
(0.456288 0.317102 0)
(0.440321 0.323574 0)
(0.424463 0.330362 0)
(0.408477 0.337168 0)
(0.392225 0.344266 0)
(0.375511 0.351782 0)
(0.358208 0.359642 0)
(0.340333 0.36776 0)
(0.32192 0.376016 0)
(0.302934 0.384292 0)
(0.283256 0.392473 0)
(0.262748 0.400405 0)
(0.241285 0.407849 0)
(0.218788 0.414598 0)
(0.195231 0.420425 0)
(0.170753 0.425627 0)
(0.145406 0.429818 0)
(0.119372 0.434086 0)
(0.0926958 0.436946 0)
(0.066075 0.441433 0)
(0.0392483 0.443783 0)
(0.0132845 0.44901 0)
(3 8.42432e-17 0)
(3 -1.2309e-17 0)
(3 1.36179e-16 0)
(3 2.50243e-16 0)
(3 1.88259e-16 0)
(3 2.44303e-16 0)
(3 -6.68035e-17 0)
(3 -9.01398e-17 0)
(3 1.5178e-17 0)
(3 -1.43158e-16 0)
(3 -3.80344e-17 0)
(3 -1.64228e-16 0)
(3 -4.46452e-16 0)
(3 -4.94145e-16 0)
(3 8.92947e-17 0)
(3 3.43137e-16 0)
(3 2.23085e-16 0)
(3 -3.87088e-17 0)
(3 -1.60898e-16 0)
(3 -2.3508e-16 0)
(3 1.83837e-16 0)
(3 6.87821e-16 0)
(3 4.99673e-16 0)
(3 4.16193e-16 0)
(3 5.38433e-16 0)
(3 6.3912e-16 0)
(3 7.53584e-16 0)
(3 3.31681e-16 0)
(3 2.87509e-16 0)
(3 2.23583e-16 0)
(3 8.02778e-16 0)
(3 5.63355e-16 0)
(3 -4.30572e-16 0)
(3 -2.67589e-16 0)
(3 3.35271e-17 0)
(3 2.59555e-16 0)
(3 -1.4677e-16 0)
(3 -2.90969e-16 0)
(3 -1.6491e-16 0)
(3 1.08397e-16 0)
(3 -4.55101e-16 0)
(3 -3.96595e-16 0)
(3 2.51973e-17 0)
(3 4.02465e-16 0)
(3 2.74097e-16 0)
(3 5.12589e-16 0)
(3 4.51695e-16 0)
(3 6.07216e-16 0)
(3 6.3728e-16 0)
(3.00031 1.06351e-05 0)
(1.5597 0.310035 0)
(0.824408 0.273481 0)
(0.782077 0.278509 0)
(0.767406 0.284666 0)
(0.752876 0.288288 0)
(0.739666 0.291766 0)
(0.727235 0.294013 0)
(0.715368 0.2955 0)
(0.703176 0.296254 0)
(0.690054 0.296363 0)
(0.67614 0.297271 0)
(0.661994 0.299476 0)
(0.647921 0.302279 0)
(0.634407 0.30626 0)
(0.621763 0.311886 0)
(0.609029 0.317739 0)
(0.595262 0.322379 0)
(0.580474 0.325192 0)
(0.565324 0.326529 0)
(0.550365 0.328797 0)
(0.536105 0.33418 0)
(0.522036 0.34148 0)
(0.506778 0.347546 0)
(0.490597 0.351863 0)
(0.474433 0.356898 0)
(0.458793 0.363599 0)
(0.443365 0.371047 0)
(0.427736 0.37852 0)
(0.41174 0.386205 0)
(0.395254 0.394474 0)
(0.378137 0.403348 0)
(0.360462 0.412774 0)
(0.342378 0.42265 0)
(0.323918 0.432896 0)
(0.304894 0.443308 0)
(0.285093 0.453769 0)
(0.264258 0.463895 0)
(0.242337 0.473364 0)
(0.2191 0.481677 0)
(0.194598 0.489208 0)
(0.168486 0.495677 0)
(0.140779 0.502764 0)
(0.110811 0.508831 0)
(0.0794653 0.515372 0)
(0.0471788 0.518553 0)
(0.0157413 0.523653 0)
(3 -8.4815e-17 0)
(3 -1.19309e-16 0)
(3 -2.12714e-16 0)
(3 -7.45095e-17 0)
(3 6.65046e-17 0)
(3 -1.26963e-18 0)
(3 -3.14265e-16 0)
(3 -1.2648e-16 0)
(3 4.0796e-16 0)
(3 3.97387e-16 0)
(3 4.33308e-16 0)
(3 3.67994e-16 0)
(3 3.62865e-17 0)
(3 -3.3256e-16 0)
(3 -2.53022e-16 0)
(3 -2.44015e-17 0)
(3 -8.87838e-17 0)
(3 1.04462e-16 0)
(3 -3.77106e-18 0)
(3 -1.50586e-16 0)
(3 -1.96573e-17 0)
(3 6.92819e-16 0)
(3 8.62136e-16 0)
(3 1.12876e-15 0)
(3 1.31818e-15 0)
(3 1.34139e-15 0)
(3 6.87812e-16 0)
(3 2.32809e-16 0)
(3 1.86024e-16 0)
(3 2.93669e-16 0)
(3 1.47693e-16 0)
(3 5.09866e-17 0)
(3 -1.19534e-15 0)
(3 -2.3405e-15 0)
(3 -1.80573e-15 0)
(3 -9.64201e-16 0)
(3 -8.76605e-16 0)
(3 -1.88393e-16 0)
(3 3.67107e-16 0)
(3 3.27759e-16 0)
(3 9.6145e-17 0)
(3 1.44188e-16 0)
(3 4.00085e-16 0)
(3 1.5063e-16 0)
(3 -2.30999e-16 0)
(3 -7.03612e-17 0)
(3 -3.4004e-17 0)
(3 3.94146e-16 0)
(3 4.33546e-16 0)
(3 1.75185e-08 0)
(2.38681 0.280008 0)
(0.917253 0.333239 0)
(0.793476 0.313838 0)
(0.781293 0.313219 0)
(0.766522 0.31654 0)
(0.753444 0.319166 0)
(0.740894 0.320439 0)
(0.728861 0.321548 0)
(0.716853 0.323279 0)
(0.704235 0.325208 0)
(0.69101 0.327884 0)
(0.677657 0.331579 0)
(0.664324 0.33505 0)
(0.65125 0.338102 0)
(0.63876 0.342296 0)
(0.626653 0.348003 0)
(0.614127 0.354189 0)
(0.600605 0.359183 0)
(0.58639 0.361853 0)
(0.572135 0.363864 0)
(0.558378 0.368529 0)
(0.545382 0.376311 0)
(0.531644 0.3844 0)
(0.516454 0.390461 0)
(0.500716 0.396126 0)
(0.485323 0.403368 0)
(0.470335 0.411903 0)
(0.455214 0.42067 0)
(0.439626 0.429503 0)
(0.423464 0.438894 0)
(0.406583 0.449077 0)
(0.389086 0.460062 0)
(0.371212 0.471724 0)
(0.353117 0.484162 0)
(0.33415 0.497141 0)
(0.314449 0.510712 0)
(0.293169 0.524634 0)
(0.269999 0.538651 0)
(0.244638 0.55216 0)
(0.217261 0.565434 0)
(0.187713 0.578016 0)
(0.156744 0.590973 0)
(0.124499 0.602948 0)
(0.0909265 0.612698 0)
(0.0556154 0.617727 0)
(0.0177672 0.620932 0)
(3 -1.91428e-17 0)
(3 -7.34281e-17 0)
(3 -2.85518e-16 0)
(3 -2.8587e-16 0)
(3 -2.13283e-16 0)
(3 -1.4886e-16 0)
(3 -2.23281e-17 0)
(3 -1.87513e-17 0)
(3 5.74763e-17 0)
(3 3.42407e-16 0)
(3 4.47291e-16 0)
(3 8.48914e-16 0)
(3 8.71097e-16 0)
(3 7.58281e-16 0)
(3 4.07341e-16 0)
(3 2.40605e-16 0)
(3 -4.39642e-16 0)
(3 -7.26423e-16 0)
(3 -6.19958e-16 0)
(3 1.53441e-16 0)
(3 6.68491e-16 0)
(3 9.79168e-16 0)
(3 9.99576e-16 0)
(3 1.80985e-15 0)
(3 2.00553e-15 0)
(3 1.90087e-15 0)
(3 2.14396e-15 0)
(3 2.59187e-15 0)
(3 2.10495e-15 0)
(3 4.7243e-16 0)
(3 -1.72909e-16 0)
(3 -3.91731e-16 0)
(3 -6.22021e-16 0)
(3 -3.33687e-16 0)
(3 -3.45593e-16 0)
(3 -7.61908e-16 0)
(3 -6.60671e-16 0)
(3 -7.24459e-16 0)
(3 -8.64363e-16 0)
(3 -1.44702e-15 0)
(3 -1.17424e-15 0)
(3 -7.8021e-16 0)
(3 -6.36389e-16 0)
(3 -5.92351e-16 0)
(3 -7.46924e-17 0)
(3 1.71608e-17 0)
(3 3.14631e-16 0)
(3 3.50598e-16 0)
(3 1.25754e-15 0)
(3 -7.072e-09 0)
(3.02893 0.017667 0)
(1.24981 0.377378 0)
(0.840419 0.317441 0)
(0.824403 0.334879 0)
(0.806979 0.340881 0)
(0.791731 0.342951 0)
(0.777264 0.343774 0)
(0.763335 0.344655 0)
(0.74979 0.346974 0)
(0.736167 0.350531 0)
(0.722233 0.355128 0)
(0.708413 0.360683 0)
(0.694762 0.365758 0)
(0.681287 0.369171 0)
(0.668218 0.372227 0)
(0.655611 0.376927 0)
(0.643188 0.383599 0)
(0.630254 0.390752 0)
(0.616418 0.396106 0)
(0.602294 0.399355 0)
(0.588529 0.403583 0)
(0.575761 0.411117 0)
(0.56328 0.420653 0)
(0.549466 0.429149 0)
(0.534552 0.436258 0)
(0.51954 0.444129 0)
(0.50506 0.45368 0)
(0.490626 0.463998 0)
(0.476024 0.474501 0)
(0.460709 0.48544 0)
(0.444532 0.497288 0)
(0.427623 0.510189 0)
(0.410351 0.524185 0)
(0.392886 0.53927 0)
(0.375201 0.555529 0)
(0.356793 0.573117 0)
(0.336912 0.591965 0)
(0.315251 0.611858 0)
(0.291731 0.632116 0)
(0.266637 0.652125 0)
(0.239979 0.670696 0)
(0.211236 0.686781 0)
(0.180307 0.702494 0)
(0.143446 0.721123 0)
(0.097307 0.74344 0)
(0.037226 0.762952 0)
(3 1.24452e-17 0)
(3 -1.59152e-17 0)
(3 1.13171e-16 0)
(3 4.29242e-16 0)
(3 4.03129e-16 0)
(3 2.31855e-16 0)
(3 1.56929e-16 0)
(3 3.08603e-16 0)
(3 4.46916e-16 0)