/*--------------------------------*- C++ -*----------------------------------*\
  =========                 |
  \\      /  F ield         | OpenFOAM: The Open Source CFD Toolbox
   \\    /   O peration     | Website:  https://openfoam.org
    \\  /    A nd           | Version:  7
     \\/     M anipulation  |
\*---------------------------------------------------------------------------*/
FoamFile
{
    version     2.0;
    format      ascii;
    class       volScalarField;
    location    "70";
    object      p;
}
// * * * * * * * * * * * * * * * * * * * * * * * * * * * * * * * * * * * * * //

dimensions      [0 2 -2 0 0 0 0];

internalField   nonuniform List<scalar> 
8800
(
0.867813
0.820027
0.781341
0.752351
0.731493
0.716673
0.706092
0.698634
0.693846
0.691832
0.693147
0.697377
0.704051
0.713388
0.726183
0.743928
0.768712
0.802657
0.845211
0.903914
0.699055
0.706734
0.714215
0.717526
0.716028
0.710959
0.704485
0.698427
0.693732
0.690927
0.690696
0.693247
0.697772
0.703744
0.710531
0.716824
0.720473
0.719741
0.714328
0.705642
0.677448
0.683609
0.687739
0.690689
0.692746
0.693362
0.692272
0.690192
0.688212
0.687352
0.688366
0.690792
0.693624
0.695829
0.696453
0.695266
0.692934
0.689547
0.684992
0.681231
0.67162
0.674272
0.677028
0.679437
0.681081
0.682255
0.683015
0.68316
0.682904
0.682907
0.683717
0.684936
0.685812
0.685904
0.685315
0.684238
0.682432
0.679869
0.677471
0.675967
0.666216
0.667642
0.669425
0.671464
0.673259
0.674614
0.675624
0.676453
0.677112
0.677737
0.678454
0.679005
0.679147
0.678891
0.678217
0.676985
0.675303
0.673464
0.672162
0.67133
0.661109
0.66203
0.663277
0.664851
0.666495
0.668036
0.669346
0.670448
0.671464
0.672427
0.673194
0.673586
0.673594
0.673192
0.672339
0.671159
0.669848
0.6686
0.667783
0.667231
0.656165
0.656835
0.657802
0.659114
0.660536
0.662013
0.66348
0.664843
0.666101
0.66729
0.668201
0.668645
0.66862
0.668156
0.667384
0.666462
0.66547
0.66456
0.663981
0.663574
0.651335
0.651851
0.65264
0.653781
0.655073
0.656469
0.657946
0.659465
0.660961
0.662392
0.663504
0.664066
0.664112
0.663782
0.66322
0.662527
0.661779
0.661111
0.660683
0.660365
0.646546
0.646957
0.647618
0.648636
0.649859
0.651211
0.652692
0.654302
0.656001
0.657708
0.659079
0.659845
0.660095
0.659992
0.65966
0.659183
0.658643
0.658171
0.657855
0.657596
0.641711
0.642045
0.642618
0.643558
0.644735
0.646076
0.647598
0.649312
0.651209
0.653218
0.654922
0.655998
0.656537
0.656697
0.656603
0.656357
0.656017
0.655707
0.655476
0.655257
0.63674
0.637017
0.637529
0.638425
0.639586
0.640955
0.642556
0.644418
0.646555
0.648915
0.651039
0.652512
0.653397
0.653859
0.654027
0.654015
0.653875
0.653709
0.653546
0.653356
0.631542
0.631774
0.632248
0.633129
0.634315
0.635756
0.637479
0.639545
0.641987
0.644783
0.647421
0.64937
0.650662
0.651471
0.651933
0.652161
0.652226
0.652194
0.652087
0.651918
0.626022
0.62622
0.626674
0.627571
0.628823
0.630381
0.632282
0.634618
0.637449
0.640788
0.644048
0.646565
0.648334
0.64954
0.650334
0.650826
0.65111
0.651204
0.651144
0.650989
0.620078
0.620247
0.620699
0.62164
0.623
0.624726
0.626872
0.629558
0.632882
0.636891
0.640905
0.6441
0.646432
0.648097
0.64927
0.650077
0.650582
0.650799
0.65078
0.650632
0.613586
0.61373
0.614196
0.615212
0.616726
0.618679
0.621147
0.624281
0.628222
0.633053
0.637977
0.641983
0.644982
0.647189
0.648797
0.649952
0.650708
0.651051
0.65107
0.650925
0.606405
0.606525
0.607019
0.608139
0.609859
0.612109
0.614989
0.61869
0.623396
0.629231
0.635254
0.640226
0.644014
0.646861
0.648982
0.650533
0.651575
0.652051
0.652104
0.651958
0.598344
0.598452
0.598986
0.600245
0.602227
0.604854
0.608259
0.612671
0.618323
0.625382
0.632727
0.63885
0.643569
0.647167
0.649904
0.651925
0.653282
0.653897
0.653981
0.653831
0.589178
0.589276
0.589869
0.591292
0.593607
0.596724
0.600794
0.606095
0.612916
0.621465
0.630395
0.637881
0.643699
0.64818
0.651645
0.654213
0.655929
0.656691
0.656803
0.656644
0.578584
0.578663
0.579345
0.580993
0.583747
0.587489
0.592395
0.59881
0.607079
0.617441
0.628263
0.637354
0.644463
0.649984
0.654279
0.6575
0.659617
0.66053
0.660665
0.660493
0.566179
0.566245
0.567028
0.568986
0.572299
0.576841
0.582817
0.590643
0.600712
0.613278
0.626346
0.637313
0.645914
0.652647
0.657913
0.661879
0.664431
0.665493
0.665644
0.665457
0.551397
0.551451
0.552377
0.554753
0.558807
0.564402
0.571771
0.581402
0.59372
0.608956
0.624671
0.637808
0.648114
0.65623
0.662618
0.667417
0.670425
0.671624
0.67178
0.671573
0.533456
0.533499
0.53464
0.537603
0.54267
0.54969
0.558913
0.570891
0.586033
0.604496
0.623293
0.638897
0.651128
0.660797
0.668415
0.674144
0.677602
0.678907
0.679052
0.678825
0.511176
0.511218
0.512708
0.516559
0.523088
0.532112
0.543877
0.558949
0.577644
0.599971
0.622302
0.640652
0.655
0.666383
0.675337
0.682027
0.685885
0.687242
0.687357
0.687109
0.482782
0.482845
0.484932
0.490213
0.499022
0.510991
0.526341
0.545525
0.568657
0.595538
0.621839
0.643167
0.659772
0.67297
0.683353
0.690955
0.695099
0.696426
0.696487
0.696223
0.445193
0.445361
0.448674
0.456598
0.469251
0.48573
0.506193
0.530776
0.559332
0.591454
0.622084
0.64654
0.665485
0.680532
0.69235
0.70071
0.704946
0.706138
0.706127
0.705852
0.392502
0.393509
0.400105
0.413473
0.432813
0.456276
0.483795
0.5152
0.550144
0.588071
0.623246
0.650872
0.672145
0.68899
0.702112
0.710952
0.715016
0.715973
0.715883
0.715608
0.315657
0.323086
0.338357
0.361935
0.391236
0.424051
0.46019
0.499444
0.541457
0.58565
0.625659
0.656637
0.680388
0.69915
0.71346
0.722533
0.726259
0.726969
0.72683
0.726591
0.233107
0.25066
0.275398
0.309805
0.349468
0.391763
0.436562
0.483819
0.533244
0.584306
0.629947
0.664951
0.691606
0.712535
0.728098
0.7369
0.739875
0.740295
0.740184
0.740022
0.164267
0.184947
0.217496
0.2611
0.309894
0.36111
0.414304
0.469403
0.526084
0.58379
0.634748
0.673449
0.702662
0.725292
0.74124
0.749391
0.751844
0.752205
0.752151
0.752026
0.107881
0.130234
0.168356
0.218458
0.274466
0.33319
0.393812
0.456107
0.519601
0.583625
0.639608
0.681751
0.713244
0.737169
0.75347
0.761335
0.763557
0.763891
0.763875
0.763781
0.0609727
0.0845094
0.126452
0.181708
0.243513
0.30844
0.375437
0.44413
0.513872
0.583821
0.644588
0.689995
0.72367
0.748973
0.765777
0.773464
0.775635
0.77599
0.776005
0.775935
0.0212666
0.0454528
0.090287
0.149615
0.216296
0.286504
0.35905
0.433448
0.508901
0.5844
0.649744
0.698341
0.734194
0.760865
0.778241
0.786212
0.78841
0.788722
0.788752
0.788699
-0.0132867
0.0113105
0.0584141
0.121109
0.191916
0.266726
0.344201
0.423757
0.504491
0.585235
0.654986
0.706706
0.744716
0.772788
0.791
0.799321
0.801603
0.801924
0.801953
0.801917
-0.0442055
-0.0192569
0.0296938
0.0952598
0.169634
0.248485
0.330393
0.41468
0.500347
0.586085
0.660107
0.714897
0.755079
0.784587
0.803614
0.812367
0.814822
0.815148
0.815174
0.815154
-0.0724825
-0.0472263
0.00329916
0.0713517
0.148859
0.231305
0.317216
0.405854
0.496157
0.586692
0.664897
0.722719
0.765012
0.795948
0.815767
0.824947
0.827601
0.827972
0.827981
0.827967
-0.0989413
-0.0733371
-0.0214003
0.0488313
0.129144
0.214805
0.304342
0.397
0.491682
0.586857
0.669183
0.729999
0.774363
0.80666
0.82724
0.836817
0.839634
0.840032
0.840013
0.839994
-0.123975
-0.0980211
-0.0447576
0.0273213
0.110151
0.198704
0.29154
0.38792
0.486739
0.586415
0.672835
0.736643
0.783037
0.816607
0.837843
0.847703
0.85064
0.851039
0.850997
0.85096
-0.148045
-0.121669
-0.0674047
0.00658262
0.0916479
0.182804
0.278647
0.378461
0.481179
0.585231
0.675763
0.742614
0.791022
0.825771
0.847495
0.857535
0.860511
0.860892
0.860813
0.860759
-0.171293
-0.144444
-0.0892275
-0.0135727
0.0734856
0.16698
0.265548
0.368525
0.474912
0.583217
0.677904
0.747898
0.798356
0.834175
0.856239
0.866314
0.86924
0.8696
0.869487
0.869418
-0.193873
-0.166615
-0.110364
-0.0332649
0.0555844
0.151169
0.252188
0.358057
0.467875
0.580293
0.679187
0.752504
0.805131
0.841994
0.864226
0.874129
0.876952
0.877252
0.877119
0.877035
-0.215921
-0.188174
-0.130945
-0.0525465
0.0378951
0.135344
0.23856
0.347049
0.460037
0.576395
0.679551
0.756431
0.811467
0.849398
0.871616
0.88116
0.883743
0.883959
0.883803
0.883707
-0.237505
-0.209163
-0.151048
-0.0714311
0.0204288
0.119514
0.224684
0.335514
0.451396
0.571478
0.678924
0.75966
0.817461
0.856614
0.878658
0.88756
0.88973
0.889818
0.88964
0.889539
-0.258482
-0.229577
-0.17061
-0.0899112
0.00319808
0.103723
0.210597
0.323505
0.44199
0.565538
0.677224
0.762133
0.823164
0.863886
0.885702
0.893592
0.895042
0.894912
0.894727
0.894633
-0.278841
-0.249395
-0.189628
-0.107952
-0.0137559
0.0880173
0.196377
0.311084
0.431875
0.558578
0.674382
0.763732
0.82855
0.871421
0.893243
0.899817
0.900003
0.899366
0.899191
0.899156
-0.298652
-0.268593
-0.208095
-0.125534
-0.0303804
0.0724674
0.182096
0.29834
0.421126
0.550644
0.670329
0.764299
0.833479
0.879265
0.901806
0.907213
0.905474
0.903593
0.903255
0.90357
-0.317763
-0.287159
-0.22596
-0.14261
-0.0466251
0.0571482
0.167842
0.285373
0.409845
0.54181
0.665028
0.763633
0.83769
0.887174
0.9116
0.916998
0.913552
0.909315
0.907508
0.907593
-0.336266
-0.30509
-0.243248
-0.159217
-0.0625261
0.0420159
0.153559
0.272129
0.397971
0.532006
0.658342
0.761457
0.840901
0.894726
0.922228
0.929707
0.926621
0.919329
0.911946
0.898608
-0.354095
-0.322374
-0.260073
-0.175554
-0.078361
0.0267508
0.138848
0.258149
0.384997
0.520639
0.64968
0.757066
0.842667
0.901407
0.932327
0.943727
0.941409
0.927604
0.906635
0.896602
-0.371087
-0.339172
-0.276253
-0.19143
-0.093776
0.0116899
0.123925
0.243744
0.371208
0.507932
0.639039
0.749889
0.842003
0.905968
0.937865
0.949359
0.948506
0.922959
0.855896
0.826067
-0.386586
-0.356758
-0.291487
-0.206373
-0.107968
-0.0026654
0.109109
0.22914
0.356816
0.493994
0.62631
0.739527
0.837276
0.907558
0.93338
0.939815
0.924122
0.867337
0.797922
0.755465
-0.441126
-0.372252
-0.305244
-0.221514
-0.122612
-0.0178159
0.0943265
0.214043
0.341431
0.478332
0.610822
0.725188
0.824356
0.901699
0.901939
0.899983
0.844365
0.770653
0.692821
0.649528
-0.402835
-0.386912
-0.325762
-0.240922
-0.144287
-0.0395172
0.071604
0.190722
0.317219
0.452909
0.583834
0.697138
0.789564
0.872875
0.854125
0.733963
0.624596
0.548556
0.473607
0.502144
-0.432989
-0.404003
-0.341987
-0.257998
-0.161411
-0.0567587
0.0546532
0.173156
0.298626
0.432599
0.560868
0.67004
0.752643
0.796783
0.744009
0.588786
0.456983
0.362916
0.262823
0.310981
-0.456201
-0.424303
-0.361187
-0.27708
-0.180376
-0.0758345
0.0354998
0.153178
0.277268
0.408875
0.533464
0.636352
0.709815
0.718916
0.607251
0.430068
0.274068
0.152757
0.0201847
0.051976
-0.478854
-0.445488
-0.381264
-0.296263
-0.199493
-0.0951149
0.0156845
0.132397
0.254896
0.383724
0.503605
0.598366
0.656048
0.633301
0.469725
0.269863
0.0770977
-0.0925982
-0.282061
-0.301954
-0.500907
-0.467135
-0.40207
-0.316325
-0.219442
-0.115307
-0.00517726
0.110433
0.231063
0.356675
0.471062
0.557481
0.595181
0.535068
0.338627
0.125081
-0.0940888
-0.28458
-0.527059
-0.822887
-0.523251
-0.489499
-0.42394
-0.337749
-0.240713
-0.136775
-0.0272522
0.0872072
0.205839
0.327927
0.436424
0.514249
0.52987
0.417967
0.224364
0.0116488
-0.194544
-0.368075
-0.438574
-0.516863
-0.546828
-0.513042
-0.447221
-0.360848
-0.263796
-0.160156
-0.0513406
0.0617831
0.178078
0.296076
0.398228
0.46467
0.454707
0.308958
0.122602
-0.0710394
-0.235983
-0.330231
-0.354612
-0.370406
-0.571943
-0.538058
-0.472081
-0.385694
-0.28882
-0.185658
-0.0778002
0.0336729
0.147193
0.260422
0.355728
0.407427
0.379433
0.207588
0.0302566
-0.138194
-0.266663
-0.306395
-0.319217
-0.320521
-0.598796
-0.564719
-0.498588
-0.412286
-0.315737
-0.213289
-0.106652
0.00282484
0.113118
0.220979
0.308466
0.345416
0.296837
0.113972
-0.054273
-0.205178
-0.282582
-0.299649
-0.301043
-0.300865
-0.627445
-0.59309
-0.526769
-0.440624
-0.344566
-0.243039
-0.137901
-0.0307775
0.0758623
0.177828
0.256582
0.281523
0.196238
0.0285588
-0.131325
-0.255789
-0.292872
-0.291202
-0.290275
-0.289685
-0.65761
-0.622999
-0.556526
-0.470626
-0.375224
-0.274858
-0.171521
-0.0671086
0.0354668
0.131082
0.200972
0.208655
0.105007
-0.0505468
-0.192186
-0.270076
-0.280199
-0.282641
-0.283245
-0.282956
-0.688745
-0.653992
-0.587607
-0.502073
-0.407531
-0.308595
-0.207363
-0.106038
-0.00788144
0.0811011
0.142146
0.134683
0.0234384
-0.117446
-0.236607
-0.268587
-0.277181
-0.278533
-0.278233
-0.277913
-0.720392
-0.685537
-0.619559
-0.534575
-0.441149
-0.343936
-0.245153
-0.14728
-0.0538948
0.0285865
0.0792284
0.0645835
-0.0510524
-0.171426
-0.2662
-0.284176
-0.275317
-0.274323
-0.274239
-0.273987
-0.751656
-0.71693
-0.651544
-0.567538
-0.475545
-0.380417
-0.284449
-0.190362
-0.102099
-0.0258075
0.015019
0.00062607
-0.115672
-0.211839
-0.268367
-0.277501
-0.274032
-0.272609
-0.271969
-0.271702
-0.781018
-0.747005
-0.682592
-0.600056
-0.509969
-0.417351
-0.324608
-0.234609
-0.151694
-0.0815048
-0.044183
-0.0698002
-0.167044
-0.246947
-0.253433
-0.270144
-0.273414
-0.271509
-0.27084
-0.270398
-0.806868
-0.773919
-0.71159
-0.630976
-0.543401
-0.453821
-0.364784
-0.279178
-0.201573
-0.13762
-0.100169
-0.137587
-0.211256
-0.260405
-0.282685
-0.277647
-0.276502
-0.276289
-0.27603
-0.275582
-0.827102
-0.795885
-0.736431
-0.658905
-0.574576
-0.488717
-0.40391
-0.323062
-0.250624
-0.192813
-0.157691
-0.192677
-0.248145
-0.291438
-0.31357
-0.298343
-0.290587
-0.28949
-0.288417
-0.287791
-0.83952
-0.811002
-0.755345
-0.68195
-0.602024
-0.520744
-0.440817
-0.365084
-0.297788
-0.245493
-0.213038
-0.238931
-0.276442
-0.319858
-0.305854
-0.300499
-0.29859
-0.296848
-0.295693
-0.295669
-0.841533
-0.817045
-0.766346
-0.698356
-0.624079
-0.548511
-0.474212
-0.404018
-0.341923
-0.294279
-0.25882
-0.275736
-0.292752
-0.336963
-0.31589
-0.300774
-0.293124
-0.28985
-0.289197
-0.288875
-0.830902
-0.811207
-0.767282
-0.70656
-0.639305
-0.570577
-0.502797
-0.438608
-0.38182
-0.338018
-0.29627
-0.293276
-0.273914
-0.292164
-0.287701
-0.278736
-0.279755
-0.280833
-0.28098
-0.280547
-0.805766
-0.791003
-0.756383
-0.705332
-0.646724
-0.585979
-0.525439
-0.467601
-0.416232
-0.376135
-0.3279
-0.294725
-0.220557
-0.148492
-0.174951
-0.235471
-0.267191
-0.279604
-0.283862
-0.285027
-0.7687
-0.759203
-0.734512
-0.694831
-0.646334
-0.594464
-0.541529
-0.490012
-0.443903
-0.407806
-0.373907
-0.328632
-0.266321
-0.203191
-0.251428
-0.295393
-0.319426
-0.328243
-0.332448
-0.33464
-0.726402
-0.721008
-0.706492
-0.677871
-0.640045
-0.596806
-0.551163
-0.50547
-0.463413
-0.431503
-0.406536
-0.406162
-0.475173
-0.616998
-0.658232
-0.569339
-0.476233
-0.432926
-0.422769
-0.420943
-0.688574
-0.685309
-0.678435
-0.659803
-0.630725
-0.594794
-0.555305
-0.513893
-0.47389
-0.44214
-0.421281
-0.445362
-0.497115
-0.534177
-0.46995
-0.393757
-0.391655
-0.410987
-0.414409
-0.4134
-0.661569
-0.659567
-0.656065
-0.644759
-0.622118
-0.591327
-0.555677
-0.516149
-0.475207
-0.435682
-0.412372
-0.378182
-0.36189
-0.364915
-0.439418
-0.54108
-0.622821
-0.611528
-0.525288
-0.502605
-0.641126
-0.640374
-0.639216
-0.63366
-0.616739
-0.589158
-0.554311
-0.51439
-0.469875
-0.423671
-0.391027
-0.351827
-0.308692
-0.29338
-0.330591
-0.378756
-0.417179
-0.423974
-0.353541
-0.330311
-0.629425
-0.62914
-0.628538
-0.626068
-0.614324
-0.588307
-0.552443
-0.510143
-0.461747
-0.407543
-0.360395
-0.32686
-0.220369
-0.0902155
0.0484668
0.142864
0.134809
0.115006
0.109891
0.11284
-0.621615
-0.62152
-0.621188
-0.620581
-0.6134
-0.589117
-0.55151
-0.505413
-0.45136
-0.385577
-0.319076
-0.242504
-0.109818
0.0639068
0.19058
0.254086
0.32279
0.407175
0.481971
0.51624
-0.615854
-0.61593
-0.616028
-0.616602
-0.611931
-0.59093
-0.551976
-0.501769
-0.439853
-0.366454
-0.277496
-0.181927
0.00910864
0.232903
0.461857
0.656782
0.817318
0.964976
1.0667
1.10714
-0.610754
-0.610664
-0.61023
-0.6092
-0.607749
-0.593205
-0.554609
-0.499552
-0.432161
-0.349321
-0.247578
-0.149737
0.0601707
0.357999
0.690358
1.00506
1.26671
1.44129
1.53108
1.55821
-0.608608
-0.60877
-0.608934
-0.608328
-0.607738
-0.599076
-0.55939
-0.501223
-0.430576
-0.341373
-0.237958
-0.13138
0.0412067
0.351903
0.700377
1.01823
1.27999
1.44173
1.51291
1.53067
-0.608619
-0.6099
-0.613596
-0.62113
-0.628823
-0.612337
-0.566358
-0.508793
-0.436659
-0.344777
-0.243709
-0.14124
-0.0115078
0.264452
0.562814
0.824497
1.03154
1.1519
1.20264
1.21402
-0.617484
-0.618694
-0.618423
-0.612645
-0.606471
-0.593745
-0.568011
-0.522174
-0.4497
-0.356392
-0.259268
-0.16261
-0.0636674
0.139143
0.377465
0.574462
0.725241
0.808111
0.841376
0.846332
-0.657048
-0.655837
-0.640888
-0.59227
-0.535883
-0.537546
-0.570214
-0.544604
-0.469628
-0.372954
-0.278241
-0.194658
-0.121941
0.0262654
0.199331
0.340834
0.445925
0.500684
0.521366
0.523657
-0.719243
-0.716556
-0.716159
-0.70329
-0.688715
-0.674434
-0.669396
-0.594418
-0.495529
-0.389462
-0.298396
-0.225196
-0.169191
-0.0624293
0.0573255
0.15142
0.218146
0.252534
0.264242
0.265209
-0.85332
-0.871263
-0.921987
-0.98127
-0.995834
-0.954901
-0.840007
-0.671948
-0.524793
-0.403088
-0.311879
-0.246709
-0.199103
-0.124479
-0.0520955
0.00365427
0.0387638
0.0538721
0.0597794
0.0597312
-0.98454
-1.01278
-1.06625
-1.11169
-1.12326
-1.07593
-0.923555
-0.710673
-0.534187
-0.403795
-0.316727
-0.259364
-0.218628
-0.168461
-0.128048
-0.103691
-0.0927089
-0.0888594
-0.0877568
-0.0873012
-0.952872
-0.973245
-1.0114
-1.04593
-1.05455
-1.00517
-0.848636
-0.658227
-0.499131
-0.38171
-0.307137
-0.261596
-0.22917
-0.195428
-0.172174
-0.162067
-0.163301
-0.165537
-0.164065
-0.163094
-0.717891
-0.738257
-0.774764
-0.813884
-0.829228
-0.785807
-0.662288
-0.530257
-0.418161
-0.335262
-0.284058
-0.25746
-0.238751
-0.212173
-0.190927
-0.18092
-0.177257
-0.175244
-0.17314
-0.172781
-0.363517
-0.37739
-0.404758
-0.43959
-0.466229
-0.461751
-0.42231
-0.368177
-0.316627
-0.27376
-0.248527
-0.242384
-0.239009
-0.212187
-0.18474
-0.166671
-0.156959
-0.151327
-0.14913
-0.149387
-0.0489488
-0.056407
-0.0750231
-0.106501
-0.145199
-0.179789
-0.203678
-0.214646
-0.213809
-0.205687
-0.202722
-0.210634
-0.214647
-0.187716
-0.160991
-0.141048
-0.127014
-0.119942
-0.11832
-0.119346
0.133342
0.129136
0.115786
0.0880037
0.0438251
-0.0102106
-0.0603451
-0.099834
-0.125825
-0.140208
-0.148863
-0.157835
-0.158431
-0.140459
-0.122901
-0.110148
-0.10062
-0.0959573
-0.0953245
-0.0963631
0.197629
0.194911
0.184925
0.162088
0.123499
0.0734136
0.0207551
-0.0260659
-0.0611944
-0.0832692
-0.093802
-0.0961603
-0.0915445
-0.0861853
-0.0828966
-0.0799657
-0.0767832
-0.0752072
-0.0753746
-0.0764618
0.198456
0.196638
0.189572
0.172893
0.143978
0.105104
0.0614447
0.0196716
-0.0148496
-0.0373802
-0.0439219
-0.0382237
-0.0305819
-0.0374579
-0.047504
-0.0541029
-0.0575231
-0.0595725
-0.0608575
-0.0618664
0.174197
0.173109
0.168489
0.15724
0.137259
0.109469
0.0763481
0.0432784
0.0149564
-0.00323912
-0.00588422
0.00337816
0.0102426
-0.00440185
-0.0215715
-0.0347515
-0.0435675
-0.0491281
-0.0515583
-0.0522816
0.142933
0.142362
0.139545
0.132352
0.119165
0.100213
0.0767136
0.0524447
0.0311985
0.0185142
0.0193494
0.0280077
0.0307433
0.0151357
-0.00367995
-0.0192329
-0.0309526
-0.038635
-0.041469
-0.0418326
0.111281
0.111046
0.109466
0.105119
0.0968182
0.0844613
0.0686482
0.0521004
0.0376056
0.0303231
0.0342923
0.0430724
0.0434835
0.028212
0.0103614
-0.00432723
-0.0155162
-0.0226159
-0.0250197
-0.0252294
0.0817379
0.0816581
0.080835
0.0783426
0.0733397
0.0656534
0.0555951
0.0450387
0.0362392
0.0336115
0.04107
0.0527736
0.0534261
0.0375764
0.021527
0.0100666
0.00180134
-0.00271993
-0.00432169
-0.00463936
0.0542536
0.0542943
0.0539673
0.0527263
0.0500169
0.0456375
0.0398003
0.0336809
0.0290488
0.0294185
0.0383726
0.0519439
0.055152
0.0401605
0.0271841
0.0192606
0.0148447
0.0128636
0.0119295
0.0114412
0.0289368
0.0290345
0.0289671
0.0285276
0.0272975
0.0252754
0.0224641
0.0194656
0.0175762
0.0188909
0.0257143
0.0365378
0.0393261
0.0277846
0.0204454
0.0175202
0.01713
0.0173217
0.016589
0.0158504
0.0052303
0.00530055
0.00528226
0.00541874
0.00561773
0.00547181
0.00497116
0.00439252
0.00393288
0.00339538
0.00372021
0.00385228
0.00742818
0.00913176
0.00651653
0.0064911
0.00466596
0.00364664
0.00367363
0.00348198
-0.0572663
0.108189
0.300957
0.469101
0.602841
0.707399
0.793421
0.866733
0.900382
0.877177
0.241073
0.36056
0.488949
0.599623
0.692571
0.769198
0.831188
0.875261
0.897325
0.909549
0.456942
0.538763
0.626469
0.703718
0.77003
0.825473
0.86959
0.901877
0.925314
0.943396
0.615797
0.674451
0.735074
0.791498
0.840455
0.882059
0.916276
0.943628
0.96625
0.98461
0.739866
0.782451
0.827938
0.871246
0.909538
0.943007
0.971692
0.995608
1.01589
1.03376
0.843332
0.8759
0.913694
0.948931
0.981305
1.01035
1.03576
1.05715
1.07493
1.0923
0.935352
0.963868
0.997628
1.02958
1.05938
1.08643
1.11008
1.12973
1.1452
1.16228
1.02362
1.05272
1.0866
1.11853
1.14805
1.17456
1.19736
1.21581
1.22915
1.24618
1.11875
1.15188
1.18846
1.22197
1.25196
1.2781
1.30001
1.31727
1.32911
1.34651
1.23363
1.27142
1.31001
1.34422
1.37353
1.39825
1.4186
1.43447
1.44592
1.46399
1.3785
1.41702
1.45313
1.4838
1.50946
1.53153
1.55057
1.56609
1.57851
1.5965
1.55353
1.58515
1.61131
1.63374
1.6537
1.67242
1.69012
1.70659
1.72194
1.74
1.74212
1.75932
1.77435
1.79057
1.80647
1.82099
1.83419
1.84812
1.86565
1.8858
1.92383
1.93336
1.9449
1.95571
1.96499
1.97457
1.98534
1.99671
2.00807
2.02342
2.13105
2.13471
2.11977
2.10496
2.09868
2.10435
2.12283
2.15314
2.18531
2.21197
2.43738
2.30251
2.22587
2.18348
2.16605
2.17002
2.19741
2.25383
2.35645
2.58081
0.758409
0.756282
0.751799
0.743178
0.730959
0.718838
0.70862
0.700741
0.695147
0.691924
0.691609
0.694384
0.699516
0.70676
0.716161
0.72771
0.740368
0.751407
0.757521
0.760577
0.682852
0.6887
0.695035
0.699532
0.702008
0.701691
0.698966
0.695173
0.691687
0.689461
0.689355
0.691591
0.695283
0.699594
0.703416
0.70531
0.704381
0.700905
0.695745
0.689124
0.67441
0.676707
0.680113
0.683114
0.685195
0.686701
0.687469
0.687171
0.686173
0.685326
0.685546
0.687014
0.688862
0.690191
0.690388
0.68951
0.68797
0.68564
0.682382
0.679463
0.668875
0.669961
0.671797
0.67418
0.676211
0.67765
0.678685
0.679458
0.67989
0.680154
0.680695
0.681549
0.682182
0.682276
0.681883
0.681049
0.67959
0.677514
0.675434
0.674052
0.663639
0.664302
0.665412
0.667123
0.668914
0.670558
0.67187
0.672911
0.673828
0.674666
0.675453
0.676058
0.676294
0.676159
0.675615
0.674578
0.673163
0.67163
0.670318
0.66954
0.658622
0.659082
0.65987
0.661175
0.662673
0.664204
0.665688
0.667015
0.668191
0.669301
0.670284
0.670915
0.67111
0.670874
0.670205
0.669237
0.668128
0.667008
0.666101
0.665585
0.653741
0.654085
0.654699
0.655775
0.65708
0.65847
0.659932
0.66141
0.662829
0.664173
0.665363
0.666129
0.666366
0.666137
0.665573
0.664823
0.663994
0.663143
0.662479
0.662103
0.648943
0.64921
0.649706
0.650623
0.651805
0.653121
0.654541
0.656067
0.657661
0.659255
0.660696
0.661655
0.662029
0.661965
0.661616
0.661091
0.660469
0.65985
0.659369
0.659082
0.644142
0.644354
0.644767
0.645575
0.646679
0.647949
0.649364
0.650942
0.652675
0.654517
0.656259
0.657496
0.658122
0.65831
0.658199
0.657902
0.657492
0.657069
0.656729
0.656505
0.639251
0.639421
0.639775
0.640511
0.641571
0.642823
0.64427
0.645939
0.647837
0.649947
0.652048
0.653659
0.654623
0.65511
0.655262
0.655203
0.655013
0.654767
0.654546
0.654367
0.634178
0.634315
0.634628
0.63532
0.636366
0.637645
0.639164
0.640966
0.643086
0.64552
0.648061
0.650136
0.651506
0.652341
0.652794
0.652991
0.653018
0.652947
0.652826
0.652683
0.628831
0.628942
0.629227
0.6299
0.630967
0.632319
0.633954
0.635944
0.638353
0.641198
0.64428
0.646913
0.648763
0.650003
0.650795
0.651273
0.651532
0.651635
0.651601
0.651485
0.623113
0.6232
0.62347
0.624149
0.625272
0.62674
0.628546
0.630793
0.633569
0.636934
0.640677
0.643981
0.646399
0.648109
0.649286
0.650093
0.65061
0.65088
0.650925
0.65083
0.616912
0.616977
0.61724
0.617948
0.619166
0.620797
0.622838
0.625421
0.628666
0.632674
0.637224
0.641336
0.64443
0.646692
0.648315
0.649491
0.650294
0.650746
0.650866
0.650787
0.610094
0.61014
0.610404
0.611163
0.612515
0.614365
0.616715
0.619727
0.623563
0.628366
0.633895
0.638975
0.642874
0.64579
0.647938
0.64953
0.650662
0.651312
0.651506
0.65144
0.602506
0.602529
0.602795
0.603629
0.605159
0.607293
0.610038
0.613595
0.618169
0.623948
0.630666
0.636906
0.641756
0.645442
0.648214
0.650303
0.65181
0.652673
0.65294
0.652884
0.593919
0.593932
0.594212
0.595146
0.596912
0.599391
0.602644
0.606888
0.61238
0.619357
0.627512
0.635135
0.641114
0.645706
0.649212
0.651901
0.653835
0.654929
0.65527
0.65522
0.584054
0.584038
0.58437
0.585447
0.587503
0.590443
0.594338
0.599445
0.60608
0.614526
0.624415
0.633682
0.640991
0.646651
0.651018
0.654404
0.656833
0.658183
0.658597
0.658549
0.572597
0.572556
0.572936
0.574207
0.576632
0.580166
0.584876
0.591074
0.599137
0.60939
0.621364
0.632573
0.641434
0.648345
0.653722
0.657907
0.660907
0.662526
0.663007
0.662957
0.559052
0.558984
0.559444
0.560969
0.563882
0.568184
0.573951
0.581549
0.591411
0.603887
0.618358
0.631844
0.642498
0.650841
0.6574
0.662505
0.666131
0.668026
0.668565
0.668506
0.542753
0.542656
0.543244
0.545124
0.548689
0.554022
0.561189
0.570611
0.582763
0.597978
0.615421
0.631542
0.644241
0.654211
0.662098
0.668245
0.672547
0.674706
0.675282
0.675208
0.522744
0.52262
0.523414
0.525812
0.530298
0.537062
0.546141
0.557993
0.573087
0.591671
0.612615
0.631737
0.646727
0.658507
0.667844
0.675146
0.680137
0.682518
0.683101
0.683004
0.497577
0.497438
0.49857
0.501774
0.507655
0.516516
0.528307
0.543464
0.562354
0.585055
0.610061
0.632532
0.650012
0.663753
0.674667
0.683177
0.6888
0.691321
0.691868
0.691741
0.464899
0.464784
0.466536
0.47114
0.479342
0.491479
0.507249
0.526944
0.55069
0.57833
0.607948
0.634053
0.654168
0.669964
0.68251
0.692217
0.698326
0.700854
0.701315
0.701152
0.420487
0.420542
0.423663
0.431186
0.443697
0.461176
0.482848
0.50866
0.538451
0.571845
0.606535
0.636448
0.659258
0.677124
0.691289
0.702056
0.708372
0.710724
0.711052
0.710857
0.356427
0.35767
0.365304
0.379349
0.399753
0.425738
0.455723
0.489329
0.52627
0.566067
0.606097
0.639854
0.6653
0.685154
0.700756
0.712238
0.71844
0.720378
0.720532
0.72032
0.280538
0.282366
0.296986
0.32112
0.352572
0.38859
0.427626
0.469507
0.514066
0.560851
0.606967
0.645346
0.674061
0.696321
0.713506
0.725587
0.731404
0.732985
0.733088
0.732956
0.202298
0.208619
0.230208
0.264706
0.306647
0.352412
0.400452
0.450646
0.502883
0.55673
0.609045
0.652112
0.684053
0.708652
0.72758
0.739642
0.744575
0.745638
0.745686
0.745627
0.138261
0.146948
0.173137
0.21473
0.26489
0.318949
0.375099
0.433068
0.492625
0.553256
0.611473
0.658908
0.693796
0.720349
0.740052
0.751931
0.756465
0.757427
0.75752
0.757519
0.0861857
0.0954738
0.125248
0.172125
0.228483
0.289226
0.352233
0.417064
0.4833
0.550281
0.614093
0.665652
0.703264
0.731579
0.752174
0.764123
0.768406
0.769274
0.769412
0.769464
0.0426516
0.0522213
0.0844626
0.135364
0.19681
0.263101
0.331925
0.402761
0.475017
0.547874
0.616974
0.672498
0.712757
0.742869
0.764445
0.776505
0.780682
0.781724
0.781902
0.781996
0.00528285
0.0149544
0.0490353
0.103156
0.168817
0.239844
0.313747
0.389915
0.467636
0.545951
0.620082
0.679449
0.722328
0.754209
0.776776
0.78932
0.793763
0.794854
0.794999
0.795118
-0.0276141
-0.0179226
0.0175626
0.0743974
0.143595
0.218713
0.297117
0.378096
0.460854
0.544297
0.623245
0.68635
0.73181
0.765485
0.789211
0.802366
0.807071
0.808235
0.808406
0.808494
-0.0573448
-0.047634
-0.0110031
0.0481739
0.120404
0.199111
0.281532
0.366895
0.454323
0.542621
0.626219
0.692996
0.741013
0.776498
0.801314
0.815133
0.820156
0.82137
0.821519
0.821589
-0.0848196
-0.0750826
-0.0374718
0.0237722
0.0986818
0.180575
0.266599
0.355961
0.44774
0.540667
0.628803
0.699195
0.749722
0.786924
0.812848
0.827247
0.832638
0.833906
0.834021
0.834061
-0.110625
-0.100837
-0.0623317
0.000662892
0.0779944
0.162739
0.252015
0.345041
0.440887
0.538244
0.630825
0.704811
0.757817
0.796687
0.823608
0.838532
0.844198
0.845497
0.845581
0.845587
-0.135257
-0.125358
-0.0859626
-0.0214893
0.0580479
0.145343
0.237566
0.333952
0.433598
0.535188
0.63215
0.70976
0.765242
0.80572
0.833557
0.848838
0.85464
0.855955
0.856003
0.855974
-0.159017
-0.148922
-0.108795
-0.0428458
0.0386411
0.128215
0.223104
0.322565
0.425744
0.531389
0.632692
0.713991
0.772001
0.814033
0.842612
0.858122
0.863969
0.865232
0.865268
0.865211
-0.182021
-0.171738
-0.130941
-0.0635643
0.0196393
0.111261
0.208542
0.3108
0.417256
0.526757
0.632362
0.71747
0.778121
0.821719
0.850907
0.866476
0.872213
0.873427
0.873415
0.873342
-0.204469
-0.193924
-0.152397
-0.0837655
0.00097374
0.0944203
0.193841
0.298627
0.408097
0.52124
0.631084
0.720163
0.783669
0.828933
0.858613
0.87403
0.879536
0.880627
0.880573
0.880478
-0.226324
-0.215526
-0.173317
-0.103506
-0.0173791
0.077685
0.17901
0.286057
0.39826
0.514801
0.628798
0.722018
0.7887
0.83583
0.865946
0.880985
0.886062
0.886956
0.886847
0.886735
-0.247651
-0.23658
-0.193653
-0.122787
-0.0354164
0.0610687
0.164071
0.273126
0.387778
0.507439
0.625442
0.722967
0.793221
0.842577
0.873191
0.887575
0.891911
0.892482
0.89231
0.892194
-0.268324
-0.257041
-0.2134
-0.141575
-0.0531084
0.0446269
0.149074
0.259887
0.376705
0.499188
0.620973
0.722918
0.797184
0.849293
0.8807
0.894241
0.897393
0.897337
0.897055
0.896968
-0.288474
-0.276874
-0.23256
-0.159862
-0.0704352
0.0283874
0.134099
0.246409
0.365112
0.49011
0.615379
0.721756
0.800459
0.855981
0.888813
0.901683
0.903197
0.901853
0.901216
0.901206
-0.307952
-0.29606
-0.251116
-0.177619
-0.0873261
0.0124273
0.119218
0.232803
0.353097
0.480254
0.608679
0.719351
0.802844
0.862475
0.897646
0.910712
0.910691
0.907254
0.905197
0.904665
-0.326824
-0.314654
-0.26902
-0.194801
-0.103753
-0.00319068
0.104509
0.21914
0.340763
0.469745
0.600922
0.715575
0.804078
0.868405
0.906819
0.921626
0.921641
0.9163
0.910112
0.90244
-0.345014
-0.332612
-0.286368
-0.211565
-0.119922
-0.0187298
0.0896518
0.205044
0.32769
0.458118
0.591623
0.709936
0.803752
0.873573
0.915897
0.934101
0.936724
0.930637
0.91937
0.915032
-0.362476
-0.349859
-0.303148
-0.227886
-0.135846
-0.0341876
0.074653
0.190488
0.313823
0.44524
0.580559
0.702005
0.801024
0.877178
0.92298
0.944267
0.948869
0.945121
0.906813
0.855308
-0.378939
-0.365616
-0.319211
-0.243696
-0.15163
-0.0497312
0.0594506
0.175581
0.299205
0.431148
0.567621
0.691464
0.794674
0.878503
0.925701
0.94375
0.94725