/*--------------------------------*- C++ -*----------------------------------*\
  =========                 |
  \\      /  F ield         | OpenFOAM: The Open Source CFD Toolbox
   \\    /   O peration     | Website:  https://openfoam.org
    \\  /    A nd           | Version:  7
     \\/     M anipulation  |
\*---------------------------------------------------------------------------*/
FoamFile
{
    version     2.0;
    format      ascii;
    class       volScalarField;
    location    "4.75";
    object      T;
}
// * * * * * * * * * * * * * * * * * * * * * * * * * * * * * * * * * * * * * //

dimensions      [0 0 0 1 0 0 0];

internalField   nonuniform List<scalar> 
1000
(
0
0
0
0
0
0
0
0
0
0
0
0
0
0
0
0
0
0
0
0
0
0
0
0
0
0
0
0
0
0
0
0
0
0
0
0
0
0
0
0
0
0
0
0
0
0
0
0
0
0
0
0
0
0
0
0
0
0
0
0
0
0
0
0
0
0
0
0
0
0
6.42285e-323
-2.19365e-321
7.20694e-320
-2.33407e-318
7.45971e-317
-2.3529e-315
7.32481e-314
-2.25081e-312
6.82756e-311
-2.04463e-309
6.04534e-308
-1.76489e-306
5.08788e-305
-1.44848e-303
4.07267e-302
-1.131e-300
3.1024e-299
-8.40646e-298
2.25028e-296
-5.95109e-295
1.55497e-293
-4.01457e-292
1.02418e-290
-2.58199e-289
6.43287e-288
-1.58398e-286
3.85489e-285
-9.27293e-284
2.20489e-282
-5.18257e-281
1.20424e-279
-2.76639e-278
6.28296e-277
-1.41088e-275
3.13261e-274
-6.87759e-273
1.49313e-271
-3.2056e-270
6.80597e-269
-1.42908e-267
2.96774e-266
-6.0956e-265
1.23835e-263
-2.48842e-262
4.9462e-261
-9.72533e-260
1.89163e-258
-3.63982e-257
6.92868e-256
-1.30486e-254
2.43125e-253
-4.48191e-252
8.17478e-251
-1.4753e-249
2.63445e-248
-4.65495e-247
8.13889e-246
-1.40816e-244
2.41095e-243
-4.08491e-242
6.84926e-241
-1.13653e-239
1.86641e-238
-3.03337e-237
4.87919e-236
-7.76752e-235
1.22387e-233
-1.9086e-232
2.94598e-231
-4.50075e-230
6.80592e-229
-1.01869e-227
1.50924e-226
-2.21328e-225
3.21283e-224
-4.61649e-223
6.56624e-222
-9.24498e-221
1.28849e-219
-1.77767e-218
2.42781e-217
-3.28228e-216
4.39276e-215
-5.81973e-214
7.63262e-213
-9.90949e-212
1.27361e-210
-1.62044e-209
2.04098e-208
-2.54481e-207
3.14112e-206
-3.83816e-205
4.64271e-204
-5.55942e-203
6.59016e-202
-7.73338e-201
8.98353e-200
-1.03306e-198
1.176e-197
-1.32521e-196
1.47828e-195
-1.63236e-194
1.78428e-193
-1.93059e-192
2.06773e-191
-2.19215e-190
2.30044e-189
-2.38952e-188
2.45677e-187
-2.50014e-186
2.51827e-185
-2.51057e-184
2.47722e-183
-2.41919e-182
2.3382e-181
-2.2366e-180
2.11729e-179
-1.98357e-178
1.83899e-177
-1.68718e-176
1.53173e-175
-1.37604e-174
1.22319e-173
-1.07586e-172
9.3627e-172
-8.06152e-171
6.86732e-170
-5.78754e-169
4.82527e-168
-3.97971e-167
3.24686e-166
-2.62024e-165
2.09151e-164
-1.65121e-163
1.28928e-162
-9.95561e-162
7.60225e-161
-5.74045e-160
4.28601e-159
-3.164e-158
2.30923e-157
-1.66616e-156
1.18838e-155
-8.37822e-155
5.8381e-154
-4.0205e-153
2.73617e-152
-1.84001e-151
1.22258e-150
-8.02539e-150
5.20414e-149
-3.33334e-148
2.10869e-147
-1.31733e-146
8.12606e-146
-4.94891e-145
2.97529e-144
-1.76554e-143
1.03393e-142
-5.97459e-142
3.40606e-141
-1.91538e-140
1.06227e-139
-5.80908e-139
3.13176e-138
-1.66411e-137
8.71343e-137
-4.49472e-136
2.28355e-135
-1.14232e-134
5.62474e-134
-2.7253e-133
1.29888e-132
-6.08694e-132
2.80364e-131
-1.26864e-130
5.63675e-130
-2.45782e-129
1.05106e-128
-4.40519e-128
1.80806e-127
-7.26074e-127
2.84984e-126
-1.09196e-125
4.07872e-125
-1.48261e-124
5.23371e-124
-1.78953e-123
5.9068e-123
-1.87373e-122
5.67658e-122
-1.62732e-121
4.34908e-121
-1.05469e-120
2.1867e-120
-3.19723e-120
-7.23341e-121
3.00445e-119
-1.53421e-118
5.62541e-118
-1.69095e-117
4.20618e-117
-7.98646e-117
6.99153e-117
2.81506e-116
-1.951e-115
7.40482e-115
-2.09153e-114
4.36114e-114
-4.71834e-114
-1.11798e-113
8.87334e-113
-3.28089e-112
8.40326e-112
-1.36175e-111
-1.55661e-112
1.08955e-110
-4.72425e-110
1.27026e-109
-2.04637e-109
-5.07172e-110
1.71452e-108
-6.88829e-108
1.64413e-107
-1.85195e-107
-4.20407e-107
3.03625e-106
-9.24254e-106
1.53528e-105
4.58525e-106
-1.25825e-104
4.55171e-104
-8.68594e-104
1.40211e-104
5.46919e-103
-2.13002e-102
4.09745e-102
-4.16834e-103
-2.6285e-101
9.65994e-101
-1.64397e-100
-7.20844e-101
1.34468e-99
-4.12212e-99
5.07124e-99
1.01257e-98
-6.67552e-98
1.52789e-97
-6.20683e-98
-7.88433e-97
2.90055e-96
-4.04865e-96
-5.94236e-96
4.3954e-95
-9.5791e-95
1.05947e-95
5.69294e-94
-1.736e-93
1.49428e-93
6.46468e-93
-2.75305e-92
3.74197e-92
6.47095e-92
-4.04795e-91
7.02065e-91
5.67894e-91
-5.7185e-90
1.1512e-89
4.42835e-90
-7.95922e-89
1.73861e-88
3.68944e-89
-1.10943e-87
2.47002e-87
5.45309e-88
-1.55836e-86
3.3154e-86
1.32307e-86
-2.19552e-85
4.16335e-85
3.24772e-85
-3.05883e-84
4.75318e-84
7.04425e-84
-4.12509e-83
4.60123e-83
1.34539e-82
-5.23453e-82
2.97331e-82
2.28054e-81
-6.00083e-81
-9.96225e-82
3.42522e-80
-5.76083e-80
-7.90961e-80
4.48276e-79
-3.67038e-79
-1.73693e-78
4.88985e-78
9.25067e-79
-2.70833e-77
3.91015e-77
7.80631e-77
-3.24402e-76
9.88323e-77
1.51222e-75
-2.75824e-75
-3.64697e-75
1.92123e-74
-8.76108e-75
-8.43446e-74
1.58751e-73
2.08046e-73
-1.06102e-72
3.37021e-73
4.8002e-72
-7.59385e-72
-1.42463e-71
5.38942e-71
6.34158e-72
-2.67524e-70
2.67929e-70
9.8962e-70
-2.33551e-69
-2.26831e-69
1.33768e-68
-2.62516e-69
-6.0323e-68
6.95681e-68
2.16935e-67
-5.19144e-67
-5.47306e-67
2.86278e-66
1.2611e-67
-1.32019e-65
9.83718e-66
5.24136e-65
-8.34792e-65
-1.75994e-64
4.9781e-64
4.50179e-64
-2.51285e-63
-4.07979e-64
1.13614e-62
-4.89708e-63
-4.70847e-62
4.71191e-62
1.80391e-61
-2.95239e-61
-6.37684e-61
1.56543e-60
2.04858e-60
-7.55008e-60
-5.72472e-60
3.41968e-59
1.20332e-59
-1.48084e-58
-3.90423e-60
6.20339e-58
-1.53563e-58
-2.53588e-57
1.22644e-57
1.01871e-56
-7.00077e-57
-4.04557e-56
3.4724e-56
1.59637e-55
-1.58608e-55
-6.28589e-55
6.83742e-55
2.47796e-54
-2.81406e-54
-9.79941e-54
1.11086e-53
3.89003e-53
-4.20465e-53
-1.54879e-52
1.51767e-52
6.17099e-52
-5.15727e-52
-2.45229e-51
1.60507e-51
9.67738e-51
-4.27699e-51
-3.77291e-50
7.60647e-51
1.44457e-49
9.60821e-51
-5.3936e-49
-1.98283e-49
1.94654e-48
1.39214e-48
-6.70878e-48
-7.63305e-48
2.16724e-47
3.67926e-47
-6.34268e-47
-1.619e-46
1.5529e-46
6.58914e-46
-2.32549e-46
-2.4825e-45
-4.83844e-46
8.57846e-45
6.55537e-45
-2.65416e-44
-3.89824e-44
6.93003e-44
1.80287e-43
-1.24984e-43
-7.10241e-43
-5.08681e-44
2.41844e-42
1.9038e-42
-6.90808e-42
-1.16768e-41
1.46305e-41
5.10919e-41
-8.8552e-42
-1.79654e-40
-1.19095e-40
5.01818e-40
8.30003e-40
-9.44032e-40
-3.59863e-39
-1.44719e-40
1.17377e-38
1.15084e-38
-2.74735e-38
-6.42799e-38
2.60383e-38
2.34752e-37
1.54658e-37
-5.97371e-37
-1.12355e-36
7.19316e-37
4.36556e-36
2.48596e-36
-1.11012e-35
-2.03496e-35
1.18342e-35
7.76598e-35
5.37125e-35
-1.79109e-34
-3.82128e-34
9.24661e-35
1.29692e-33
1.32709e-33
-2.32204e-33
-7.02704e-33
-1.94185e-33
1.89034e-32
3.07843e-32
-1.63448e-32
-1.15026e-31
-1.07099e-31
1.98487e-31
5.96286e-31
2.43158e-31
-1.43138e-30
-2.76924e-30
2.38128e-31
8.52214e-30
1.18463e-29
-7.40607e-30
-4.57793e-29
-4.76965e-29
6.0344e-29
2.31424e-28
1.85324e-28
-3.76976e-28
-1.12983e-27
-7.21799e-28
2.0709e-27
5.42127e-27
2.98044e-27
-1.04662e-26
-2.58467e-26
-1.38042e-26
4.94206e-26
1.22945e-25
7.27092e-26
-2.17515e-25
-5.81672e-25
-4.17438e-25
8.72831e-25
2.70931e-24
2.45909e-24
-3.00052e-24
-1.22081e-23
-1.41881e-23
7.09543e-24
5.18074e-23
7.77714e-23
6.37463e-24
-1.9796e-22
-3.95506e-22
-2.28794e-22
6.17435e-22
1.8154e-21
1.9135e-21
-1.05537e-21
-7.17868e-21
-1.15546e-20
-4.26572e-21
2.18406e-20
5.5699e-20
5.67679e-20
-2.89048e-20
-2.08294e-19
-3.59012e-19
-2.11108e-19
4.86704e-19
1.5797e-18
2.11307e-18
4.60123e-19
-4.44621e-18
-1.08314e-17
-1.22398e-17
8.50398e-19
3.31221e-17
7.13006e-17
7.4782e-17
-1.32774e-17
-2.19304e-16
-4.63251e-16
-5.01666e-16
1.81207e-17
1.30239e-15
2.96599e-15
3.63193e-15
1.07025e-15
-6.54792e-15
-1.81093e-14
-2.66472e-14
-1.85325e-14
2.16517e-14
9.78897e-14
1.83063e-13
2.03146e-13
4.50595e-14
-3.88577e-13
-1.067e-12
-1.68712e-12
-1.58266e-12
1.68592e-13
4.27965e-12
1.0365e-11
1.58143e-11
1.50221e-11
1.09733e-14
-3.63156e-11
-9.3483e-11
-1.53991e-10
-1.7445e-10
-8.41776e-11
1.98885e-10
7.24807e-10
1.43638e-09
2.07173e-09
2.07882e-09
6.06866e-10
-3.33111e-09
-1.04199e-08
-2.02541e-08
-3.02248e-08
-3.42939e-08
-2.21471e-08
2.04363e-08
1.08825e-07
2.53021e-07
4.46165e-07
6.47557e-07
7.61246e-07
6.13885e-07
-6.05923e-08
-1.6168e-06
-4.45555e-06
-8.91797e-06
-1.50846e-05
-2.24431e-05
-2.93858e-05
-3.25004e-05
-2.56232e-05
1.36282e-06
6.39836e-05
0.000184859
0.000395561
0.000738564
0.00126917
0.00205724
0.00318865
0.00476618
0.00690976
0.00975587
0.013456
0.0181743
0.0240836
0.0313612
0.0401836
0.0507199
0.0631259
0.0775375
0.094064
0.112782
0.133733
0.156914
0.182282
0.209747
0.239177
0.270397
0.303196
0.337329
0.372524
0.408491
0.444926
0.481523
0.517978
0.553996
0.589303
0.623642
0.656789
0.688546
0.718751
0.747275
0.774022
0.798932
0.821973
0.843147
0.862476
0.880011
0.895816
0.909976
0.922584
0.933743
0.943562
0.952152
0.959624
0.966087
0.971646
0.976403
0.98045
0.983876
0.986761
0.989177
0.991191
0.992862
0.99424
0.995372
0.996297
0.99705
0.997659
0.998151
0.998545
0.998859
0.999109
0.999308
0.999464
0.999586
0.999682
0.999756
0.999814
0.999859
0.999893
0.999919
0.999939
0.999955
0.999966
0.999975
0.999981
0.999986
0.999989
0.999992
0.999994
0.999995
0.999997
1
1
1.00001
1.00001
1.00002
1.00003
1.00003
1.00003
0.999998
0.999936
0.999815
0.999604
0.999261
0.998731
0.997943
0.996811
0.995234
0.99309
0.990244
0.986544
0.981826
0.975916
0.968639
0.959816
0.94928
0.936874
0.922462
0.905936
0.887218
0.866267
0.843086
0.817718
0.790253
0.760823
0.729603
0.696804
0.662671
0.627476
0.591509
0.555074
0.518477
0.482022
0.446004
0.410697
0.376358
0.343211
0.311454
0.281249
0.252725
0.225978
0.201068
0.178027
0.156853
0.137524
0.119989
0.104184
0.0900244
0.0774165
0.0662572
0.0564381
0.047848
0.0403761
0.033913
0.0283535
0.0235973
0.01955
0.0161242
0.0132395
0.0108229
0.00880876
0.00713836
0.00575986
0.00462778
0.00370253
0.00294989
0.00234051
0.0018494
0.0014554
0.00114073
0.000890529
0.000692461
0.000536341
0.000413809
0.000318046
0.000243515
0.000185748
0.000141156
0.000106873
8.06208e-05
6.05966e-05
4.53825e-05
3.38675e-05
2.51852e-05
1.86634e-05
1.37826e-05
1.01434e-05
7.43985e-06
5.43854e-06
3.96236e-06
2.87734e-06
2.08261e-06
1.50252e-06
1.08053e-06
7.74588e-07
5.53525e-07
3.9432e-07
2.80038e-07
1.98268e-07
1.39949e-07
9.84874e-08
6.91028e-08
4.83423e-08
3.37199e-08
2.34523e-08
1.62642e-08
1.12472e-08
7.7558e-09
5.33326e-09
3.65723e-09
2.50102e-09
1.70567e-09
1.16011e-09
7.86935e-10
5.32382e-10
3.59222e-10
2.41751e-10
1.62273e-10
1.08645e-10
7.2555e-11
4.83311e-11
3.21143e-11
2.12859e-11
1.40739e-11
9.28273e-12
6.10781e-12
4.00914e-12
2.62532e-12
1.71508e-12
1.11782e-12
7.26852e-13
4.71541e-13
3.0521e-13
1.97102e-13
1.27001e-13
8.16492e-14
5.23762e-14
3.35244e-14
2.14111e-14
1.36452e-14
8.6773e-15
5.50637e-15
3.4868e-15
2.20332e-15
1.38939e-15
8.74321e-16
5.49071e-16
3.44114e-16
2.15228e-16
1.34346e-16
8.36921e-17
5.20341e-17
3.22879e-17
1.99962e-17
1.23599e-17
7.62518e-18
4.69526e-18
2.88568e-18
1.7702e-18
1.08389e-18
6.62444e-19
4.04124e-19
2.46087e-19
1.49581e-19
9.07581e-20
5.49692e-20
3.32341e-20
2.00579e-20
1.20845e-20
7.26805e-21
4.36375e-21
2.61553e-21
1.56503e-21
9.3487e-22
5.57511e-22
3.3192e-22
1.97286e-22
1.1707e-22
6.93567e-23
4.10231e-23
2.42253e-23
1.42829e-23
8.40767e-24
4.9414e-24
2.89964e-24
1.69888e-24
9.9383e-25
5.80489e-25
3.38543e-25
1.9714e-25
1.14626e-25
6.65492e-26
3.85795e-26
2.23321e-26
1.29082e-26
7.45022e-27
4.29382e-27
2.47112e-27
1.42011e-27
8.14956e-28
4.67017e-28
2.67253e-28
1.52724e-28
8.71544e-29
4.96677e-29
2.8266e-29
1.60644e-29
9.11751e-30
5.1678e-30
2.9252e-30
1.65359e-30
9.3353e-31
5.26331e-31
2.96363e-31
1.66658e-31
9.35985e-32
5.24996e-32
2.94097e-32
1.64542e-32
9.19422e-33
5.13111e-33
2.86001e-33
1.59216e-33
8.85267e-34
4.91621e-34
2.72684e-34
1.51065e-34
8.35887e-35
4.61969e-35
2.55013e-35
1.40605e-35
7.74335e-36
4.25942e-36
2.34029e-36
1.28436e-36
7.04053e-37
3.85504e-37
2.10844e-37
1.15187e-37
6.28575e-38
3.42631e-38
1.86563e-38
1.01423e-38
5.55507e-39
2.58245e-39
)
;

boundaryField
{
    sides
    {
        type            zeroGradient;
    }
    empty
    {
        type            empty;
    }
}


// ************************************************************************* //
