/*--------------------------------*- C++ -*----------------------------------*\
  =========                 |
  \\      /  F ield         | OpenFOAM: The Open Source CFD Toolbox
   \\    /   O peration     | Website:  https://openfoam.org
    \\  /    A nd           | Version:  7
     \\/     M anipulation  |
\*---------------------------------------------------------------------------*/
FoamFile
{
    version     2.0;
    format      ascii;
    class       volScalarField;
    location    "2.53";
    object      T;
}
// * * * * * * * * * * * * * * * * * * * * * * * * * * * * * * * * * * * * * //

dimensions      [0 0 0 1 0 0 0];

internalField   nonuniform List<scalar> 
1000
(
0
0
0
0
0
0
0
0
0
0
0
0
0
0
0
0
0
0
0
0
0
0
0
0
0
0
0
0
0
0
0
0
0
0
0
0
0
0
0
0
0
0
0
0
0
0
0
0
0
0
0
0
0
0
0
0
0
0
0
0
0
0
0
0
0
0
0
0
0
0
0
0
0
0
0
0
0
0
0
0
0
0
0
0
0
0
0
0
0
0
0
0
0
0
0
0
0
0
0
0
0
0
0
0
0
0
0
0
0
0
0
0
0
0
0
0
0
0
0
0
0
0
0
0
0
0
0
0
0
0
0
0
0
0
0
0
0
0
0
0
0
0
0
0
0
0
0
0
0
0
0
0
0
0
0
0
0
0
0
0
0
0
0
0
0
0
0
0
0
0
0
0
0
0
0
0
0
0
0
0
0
0
0
0
0
0
0
0
0
0
0
0
0
0
0
0
0
-1.34194e-197
7.90851e-195
-2.31246e-192
4.4727e-190
-6.43707e-188
7.35214e-186
-6.9411e-184
5.5708e-182
-3.87959e-180
2.38134e-178
-1.30426e-176
6.43763e-175
-2.88702e-173
1.18442e-171
-4.47099e-170
1.56065e-168
-5.0591e-167
1.52876e-165
-4.32052e-164
1.14532e-162
-2.85521e-161
6.7092e-160
-1.4891e-158
3.12753e-157
-6.2263e-156
1.17668e-154
-2.11387e-153
3.61422e-152
-5.88767e-151
9.14722e-150
-1.35654e-148
1.92181e-147
-2.60266e-146
3.37142e-145
-4.1794e-144
4.96026e-143
-5.63803e-142
6.13889e-141
-6.40413e-140
6.40128e-139
-6.13046e-138
5.62441e-137
-4.94201e-136
4.1572e-135
-3.346e-134
2.5749e-133
-1.89271e-132
1.32728e-131
-8.86568e-131
5.62916e-130
-3.38849e-129
1.92695e-128
-1.03026e-127
5.14374e-127
-2.37368e-126
9.95778e-126
-3.68333e-125
1.1213e-124
-2.21125e-124
-2.33904e-124
5.27959e-123
-3.33456e-122
1.46184e-121
-4.6813e-121
8.63538e-121
1.40764e-120
-2.14574e-119
1.11807e-118
-3.70539e-118
6.33281e-118
1.40035e-117
-1.64156e-116
7.23907e-116
-1.79267e-115
2.65361e-116
2.11922e-114
-1.11412e-113
2.98348e-113
-1.22498e-113
-2.9458e-112
1.53066e-111
-3.68196e-111
-6.7321e-112
4.41279e-110
-1.84831e-109
3.106e-109
6.77323e-109
-6.06549e-108
1.74149e-107
-6.6058e-108
-1.50894e-106
6.41161e-106
-9.08422e-106
-2.91211e-105
1.9225e-104
-4.03241e-104
-4.02394e-104
5.10155e-103
-1.33784e-102
-2.1278e-103
1.26073e-101
-3.79931e-101
8.31901e-102
3.01002e-100
-9.71058e-100
3.27683e-100
7.10199e-99
-2.27847e-98
5.82749e-99
1.66383e-97
-4.91635e-97
-8.30155e-99
3.82126e-96
-9.61714e-96
-4.95781e-96
8.39625e-95
-1.64555e-94
-2.26574e-94
1.71251e-93
-2.2603e-93
-7.08529e-93
3.12776e-92
-1.79453e-92
-1.76487e-91
4.85571e-91
2.00799e-91
-3.62046e-90
5.73317e-90
1.2573e-89
-6.04388e-89
3.10652e-89
3.24837e-88
-7.68104e-88
-6.74172e-88
5.84149e-87
-5.65447e-87
-2.57666e-86
7.48053e-86
3.39934e-86
-4.87454e-85
5.3855e-85
1.98619e-84
-5.91433e-84
-2.74127e-84
3.65817e-83
-3.46043e-83
-1.52955e-82
3.85308e-82
3.25917e-82
-2.44263e-81
1.26747e-81
1.11647e-80
-1.9515e-80
-3.46585e-80
1.3704e-79
2.44068e-80
-7.05009e-79
6.10889e-79
2.81274e-78
-5.72381e-78
-7.92908e-78
3.45647e-77
5.55844e-78
-1.65807e-76
1.18618e-76
6.5754e-76
-1.07995e-75
-2.087e-75
6.43877e-75
4.32602e-75
-3.13706e-74
3.70292e-75
1.32371e-73
-1.05091e-73
-4.91004e-73
7.51767e-73
1.57989e-72
-4.03677e-72
-4.14053e-72
1.86571e-71
6.65684e-72
-7.77958e-71
1.23633e-71
2.99026e-70
-1.85565e-70
-1.07092e-69
1.16283e-69
3.59e-69
-5.76462e-69
-1.12617e-68
2.52979e-68
3.28632e-68
-1.02543e-67
-8.78518e-68
3.92279e-67
2.07437e-67
-1.43484e-66
-3.89625e-67
5.06283e-66
3.20309e-67
-1.73471e-65
1.85926e-66
5.80176e-65
-1.42291e-65
-1.90205e-64
6.71696e-65
6.1332e-64
-2.64456e-64
-1.95032e-63
9.33946e-64
6.12754e-63
-3.03667e-63
-1.90406e-62
9.16158e-63
5.8529e-62
-2.55314e-62
-1.77852e-61
6.44039e-62
5.33441e-61
-1.39079e-61
-1.57562e-60
2.10905e-61
4.56905e-60
7.90935e-62
-1.29579e-59
-2.50192e-60
3.57684e-59
1.4174e-59
-9.55196e-59
-6.05463e-59
2.44796e-58
2.25261e-58
-5.95088e-58
-7.64258e-58
1.34673e-57
2.40985e-57
-2.73873e-57
-7.11775e-57
4.5923e-57
1.97246e-56
-4.40141e-57
-5.11182e-56
-8.91871e-57
1.22796e-55
7.25592e-56
-2.68514e-55
-2.92731e-55
5.14277e-55
9.34971e-55
-7.78547e-55
-2.57648e-54
5.47074e-55
6.25815e-54
1.97317e-54
-1.32894e-53
-1.16576e-53
2.36028e-53
3.94235e-53
-3.00151e-53
-1.04825e-52
3.60707e-54
2.31221e-52
1.34938e-52
-4.13792e-52
-5.5366e-52
5.20674e-52
1.51514e-51
-7.5714e-53
-3.21506e-51
-2.07343e-51
5.16723e-51
7.9441e-51
-4.75227e-51
-1.95757e-50
-5.07625e-51
3.52792e-50
3.72106e-50
-4.06645e-50
-1.05181e-49
-4.869e-51
2.00119e-49
1.73892e-49
-2.39028e-49
-5.33158e-49
-1.90795e-51
1.00376e-48
8.81726e-49
-1.09154e-48
-2.61372e-48
-3.55014e-49
4.47236e-48
4.79658e-48
-3.62617e-48
-1.21105e-47
-5.09254e-48
1.67399e-47
2.54789e-47
-4.4389e-48
-4.94077e-47
-4.21861e-47
4.32844e-47
1.18152e-46
4.82139e-47
-1.5317e-46
-2.45896e-46
-1.99006e-48
4.17239e-46
4.60555e-46
-1.96782e-46
-9.96479e-46
-7.92526e-46
7.67207e-46
2.2037e-45
1.27684e-45
-2.16211e-45
-4.66146e-45
-1.98254e-45
5.28327e-45
9.64728e-45
3.14241e-45
-1.18647e-44
-1.98482e-44
-5.59561e-45
2.50833e-44
4.09726e-44
1.21144e-44
-5.02951e-44
-8.50341e-44
-3.1031e-44
9.5114e-44
1.76515e-43
8.5371e-44
-1.659e-43
-3.62302e-43
-2.3392e-43
2.52029e-43
7.22711e-43
6.14757e-43
-2.7644e-43
-1.36708e-42
-1.52151e-42
-3.26551e-44
2.3579e-42
3.49827e-42
1.4224e-42
-3.4177e-42
-7.33781e-42
-5.60781e-42
3.11934e-42
1.35829e-41
1.58182e-41
2.86526e-42
-2.0533e-41
-3.64293e-41
-2.45263e-41
1.8961e-41
6.86953e-41
7.92225e-41
1.80494e-41
-9.62184e-41
-1.8393e-40
-1.46403e-40
5.21651e-41
3.17364e-40
4.40543e-40
2.26856e-40
-3.2095e-40
-8.96934e-40
-9.98219e-40
-2.61021e-40
1.14405e-39
2.36573e-39
2.23043e-39
6.8358e-41
-3.43788e-39
-6.07653e-39
-5.1044e-39
7.72661e-40
9.52169e-39
1.55769e-38
1.23688e-38
-2.949e-39
-2.51171e-38
-4.03485e-38
-3.23448e-38
6.38414e-39
6.36682e-38
1.05796e-37
9.0944e-38
-3.70242e-39
-1.53759e-37
-2.78577e-37
-2.68584e-37
-4.93906e-38
3.431e-37
7.24299e-37
8.07215e-37
3.48368e-37
-6.52842e-37
-1.81006e-36
-2.39231e-36
-1.62992e-36
7.74447e-37
4.15843e-36
6.77827e-36
6.34469e-36
1.24032e-36
-7.98936e-36
-1.76896e-35
-2.16272e-35
-1.35188e-35
8.89634e-36
3.99279e-35
6.47232e-35
6.31396e-35
1.92916e-35
-6.5782e-35
-1.64279e-34
-2.2234e-34
-1.77172e-34
9.88405e-36
3.14619e-34
6.25199e-34
7.54519e-34
5.04897e-34
-2.20871e-34
-1.29832e-33
-2.31366e-33
-2.62127e-33
-1.57037e-33
1.12296e-33
4.97791e-33
8.53099e-33
9.53058e-33
5.69339e-33
-4.04119e-33
-1.81293e-32
-3.15801e-32
-3.64428e-32
-2.42008e-32
9.9932e-33
6.23045e-32
1.16555e-31
1.44671e-31
1.13627e-31
-5.30257e-34
-1.94198e-31
-4.19758e-31
-5.80733e-31
-5.48431e-31
-2.05711e-31
4.86212e-31
1.41568e-30
2.27493e-30
2.58003e-30
1.78977e-30
-4.6878e-31
-4.10498e-30
-8.29309e-30
-1.13672e-29
-1.1041e-29
-5.0656e-30
7.68723e-30
2.5928e-29
4.48849e-29
5.61047e-29
4.87863e-29
1.30773e-29
-5.48069e-29
-1.46666e-28
-2.3764e-28
-2.85637e-28
-2.37879e-28
-4.6569e-29
3.06777e-28
7.82746e-28
1.26025e-27
1.53075e-27
1.32511e-27
3.84367e-28
-1.42443e-27
-3.96336e-27
-6.68819e-27
-8.58299e-27
-8.23908e-27
-4.14674e-27
4.76766e-27
1.83984e-26
3.46555e-26
4.88653e-26
5.37478e-26
4.03816e-26
4.82961e-28
-6.99362e-26
-1.65925e-25
-2.68985e-25
-3.44225e-25
-3.41528e-25
-2.03177e-25
1.20287e-25
6.45774e-25
1.3276e-24
2.02818e-24
2.50016e-24
2.39456e-24
1.31026e-24
-1.10221e-24
-4.97941e-24
-1.00396e-23
-1.53704e-23
-1.92754e-23
-1.92731e-23
-1.23575e-23
4.37553e-24
3.26761e-23
7.16925e-23
1.16306e-22
1.55615e-22
1.72166e-22
1.42696e-22
4.12697e-23
-1.54412e-22
-4.53169e-22
-8.3736e-22
-1.2484e-21
-1.57401e-21
-1.64228e-21
-1.2293e-21
-8.8009e-23
1.99437e-21
5.10606e-21
9.08918e-21
1.33985e-20
1.69662e-20
1.81139e-20
1.45737e-20
3.69045e-21
-1.71133e-20
-4.95431e-20
-9.32767e-20
-1.4449e-19
-1.9422e-19
-2.26868e-19
-2.19355e-19
-1.41629e-19
4.06066e-20
3.59951e-19
8.37273e-19
1.46704e-18
2.19819e-18
2.91193e-18
3.39966e-18
3.34649e-18
2.32848e-18
-1.65143e-19
-4.67149e-18
-1.16403e-17
-2.12537e-17
-3.31704e-17
-4.61971e-17
-5.79058e-17
-6.42432e-17
-5.92158e-17
-3.47749e-17
1.89158e-17
1.126e-16
2.56163e-16
4.5567e-16
7.08953e-16
9.99547e-16
1.289e-15
1.5079e-15
1.54652e-15
1.24668e-15
3.97386e-16
-1.26191e-15
-4.02525e-15
-8.18459e-15
-1.39667e-14
-2.14335e-14
-3.03367e-14
-3.99191e-14
-4.86594e-14
-5.39634e-14
-5.18181e-14
-3.64432e-14
-1.212e-18
6.75364e-14
1.78221e-13
3.45456e-13
5.82541e-13
9.0008e-13
1.30182e-12
1.77837e-12
2.29828e-12
2.79574e-12
3.15458e-12
3.18785e-12
2.61328e-12
1.025e-12
-2.13696e-12
-7.61613e-12
-1.6363e-11
-2.95437e-11
-4.85218e-11
-7.47936e-11
-1.09852e-10
-1.5494e-10
-2.10648e-10
-2.76278e-10
-3.48901e-10
-4.21975e-10
-4.83381e-10
-5.12688e-10
-4.77394e-10
-3.27844e-10
9.5539e-12
6.41286e-10
1.71844e-09
3.45185e-09
6.13153e-09
1.01514e-08
1.60404e-08
2.4502e-08
3.64621e-08
5.31303e-08
7.60729e-08
1.07304e-07
1.49396e-07
2.0561e-07
2.80057e-07
3.77889e-07
5.05526e-07
6.70921e-07
8.83879e-07
1.15643e-06
1.50326e-06
1.9422e-06
2.49485e-06
3.18719e-06
4.0504e-06
5.12172e-06
6.44546e-06
8.0741e-06
1.00696e-05
1.2505e-05
1.54656e-05
1.90512e-05
2.3378e-05
2.85808e-05
3.48152e-05
4.22608e-05
5.11236e-05
6.16399e-05
7.40791e-05
8.87479e-05
0.000105994
0.000126212
0.000149846
0.000177395
0.000209419
0.000246547
0.000289476
0.000338986
0.000395939
0.000461291
0.000536096
0.000621515
0.000718821
0.000829411
0.000954808
0.00109667
0.00125681
0.00143718
0.00163989
0.00186724
0.00212166
0.00240581
0.00272251
0.00307477
0.00346581
0.00389904
0.00437809
0.00490679
0.00548919
0.00612955
0.00683233
0.00760221
0.0084441
0.00936309
0.0103645
0.0114538
0.0126366
0.0139189
0.0153067
0.0168062
0.0184236
0.0201654
0.0220382
0.0240487
0.0262036
0.0285095
0.0309734
0.0336021
0.0364022
0.0393807
0.042544
0.0458987
0.0494514
0.0532081
0.0571751
0.0613581
0.0657628
0.0703944
0.075258
0.0803582
0.0856993
0.0912852
0.0971194
0.103205
0.109544
0.11614
0.122992
0.130104
0.137474
0.145103
0.15299
0.161134
0.169532
0.178183
0.187084
0.19623
0.205617
0.21524
0.225094
0.235173
0.245469
0.255977
0.266687
0.277591
0.288681
0.299948
0.311381
0.32297
0.334705
0.346574
0.358567
0.370672
0.382877
0.395169
0.407537
0.419967
0.432448
0.444967
0.45751
0.470065
0.482619
0.495159
0.507672
0.520147
0.532569
0.544927
0.557209
0.569403
0.581497
0.593478
0.605337
0.617062
0.628642
0.640066
0.651325
0.662409
0.673308
0.684013
0.694515
0.704806
0.714877
0.72472
0.734328
0.743693
0.752808
0.761668
0.770264
0.778591
0.786643
0.794414
0.801899
0.809093
0.815989
0.822585
0.828874
0.834852
0.840515
0.845859
0.85088
0.855573
0.859935
0.863965
0.86765
0.871013
0.873987
0.876636
0.879534
)
;

boundaryField
{
    sides
    {
        type            zeroGradient;
    }
    empty
    {
        type            empty;
    }
}


// ************************************************************************* //
