/*--------------------------------*- C++ -*----------------------------------*\
  =========                 |
  \\      /  F ield         | OpenFOAM: The Open Source CFD Toolbox
   \\    /   O peration     | Website:  https://openfoam.org
    \\  /    A nd           | Version:  7
     \\/     M anipulation  |
\*---------------------------------------------------------------------------*/
FoamFile
{
    version     2.0;
    format      ascii;
    class       volScalarField;
    location    "2.9";
    object      rho;
}
// * * * * * * * * * * * * * * * * * * * * * * * * * * * * * * * * * * * * * //

dimensions      [1 -3 0 0 0 0 0];

internalField   nonuniform List<scalar> 
19968
(
1.40001
1.40001
1.40001
1.40001
1.40001
1.40001
1.40001
1.40001
1.40001
1.40001
1.40001
1.40001
1.40001
1.40001
1.40001
1.40001
1.40001
1.40001
1.40001
1.40001
1.40001
1.40001
1.40001
1.40001
1.40001
1.40001
1.40001
1.40001
1.40001
1.40001
1.40001
1.40001
1.40001
1.40001
1.40001
1.40001
1.40001
1.40001
1.40001
1.40001
1.40001
1.40001
1.40001
1.40001
1.40001
1.40001
1.40001
1.40001
1.40001
3.706
5.39465
5.43504
5.46295
5.49174
5.51447
5.53217
5.54689
5.56025
5.57298
5.58626
5.6015
5.61994
5.64164
5.6648
5.68824
5.71256
5.73655
5.75659
5.77011
5.77786
5.78355
5.79213
5.80578
5.82256
5.84089
5.85868
5.87349
5.88413
5.89225
5.90098
5.91168
5.92309
5.93316
5.94043
5.94527
5.95014
5.95752
5.96731
5.97726
5.98476
5.98828
5.98755
5.98387
5.98055
5.97937
5.98047
1.40001
1.40001
1.40001
1.40001
1.40001
1.40001
1.40001
1.40001
1.40001
1.40001
1.40001
1.40001
1.40001
1.40001
1.40001
1.40001
1.40001
1.40001
1.40001
1.40001
1.40001
1.40001
1.40001
1.40001
1.40001
1.40001
1.40001
1.40001
1.40001
1.40001
1.40001
1.40001
1.40001
1.40001
1.40001
1.40001
1.40001
1.40001
1.40001
1.40001
1.40001
1.40001
1.40001
1.40001
1.40001
1.40001
1.40001
1.40001
1.40001
3.667
5.37782
5.43252
5.46142
5.4902
5.51346
5.5318
5.54699
5.56073
5.57358
5.58665
5.6015
5.61957
5.64119
5.66458
5.68807
5.7122
5.736
5.75585
5.7689
5.77622
5.78149
5.79017
5.80405
5.82112
5.83966
5.85751
5.87222
5.88265
5.89058
5.89923
5.90993
5.92133
5.93132
5.93845
5.94317
5.948
5.95537
5.9651
5.9749
5.9823
5.98583
5.98526
5.98172
5.97838
5.97709
5.97805
1.40001
1.40001
1.40001
1.40001
1.40001
1.40001
1.40001
1.40001
1.40001
1.40001
1.40001
1.40001
1.40001
1.40001
1.40001
1.40001
1.40001
1.40001
1.40001
1.40001
1.40001
1.40001
1.40001
1.40001
1.40001
1.40001
1.40001
1.40001
1.40001
1.40001
1.40001
1.40001
1.40001
1.40001
1.40001
1.40001
1.40001
1.40001
1.40001
1.40001
1.40001
1.40001
1.40001
1.40001
1.40001
1.40001
1.40001
1.40001
1.40001
3.58394
5.35874
5.42754
5.45708
5.48581
5.50977
5.52963
5.54612
5.56071
5.57382
5.58647
5.6005
5.61784
5.63919
5.66282
5.68644
5.7105
5.73433
5.75423
5.76694
5.77389
5.7786
5.78712
5.80117
5.81865
5.83749
5.8554
5.86995
5.88009
5.88783
5.89645
5.90719
5.91859
5.92843
5.93531
5.93982
5.94455
5.95183
5.96139
5.97094
5.97819
5.98172
5.98132
5.97791
5.97445
5.97296
5.97365
1.40001
1.40001
1.40001
1.40001
1.40001
1.40001
1.40001
1.40001
1.40001
1.40001
1.40001
1.40001
1.40001
1.40001
1.40001
1.40001
1.40001
1.40001
1.40001
1.40001
1.40001
1.40001
1.40001
1.40001
1.40001
1.40001
1.40001
1.40001
1.40001
1.40001
1.40001
1.40001
1.40001
1.40001
1.40001
1.40001
1.40001
1.40001
1.40001
1.40001
1.40001
1.40001
1.40001
1.40001
1.40001
1.40001
1.40001
1.40001
1.40001
3.45267
5.3343
5.42075
5.4509
5.4801
5.50503
5.52681
5.54531
5.56111
5.57461
5.58668
5.59941
5.61526
5.63582
5.6593
5.68282
5.70679
5.73071
5.751
5.76383
5.77068
5.77486
5.78285
5.79677
5.81457
5.83373
5.85164
5.866
5.87589
5.88345
5.89204
5.90276
5.91405
5.92365
5.93025
5.93457
5.93922
5.94638
5.95563
5.96478
5.97177
5.97529
5.97507
5.97182
5.96813
5.96624
5.96649
1.40001
1.40001
1.40001
1.40001
1.40001
1.40001
1.40001
1.40001
1.40001
1.40001
1.40001
1.40001
1.40001
1.40001
1.40001
1.40001
1.40001
1.40001
1.40001
1.40001
1.40001
1.40001
1.40001
1.40001
1.40001
1.40001
1.40001
1.40001
1.40001
1.40001
1.40001
1.40001
1.40001
1.40001
1.40001
1.40001
1.40001
1.40001
1.40001
1.40001
1.40001
1.40001
1.40001
1.40001
1.40001
1.40001
1.40001
1.40001
1.40001
3.2702
5.30323
5.41287
5.44278
5.47269
5.49852
5.52233
5.54343
5.56125
5.5757
5.58753
5.59888
5.61249
5.63116
5.65383
5.67732
5.70134
5.7253
5.74644
5.76017
5.76744
5.77129
5.77829
5.79154
5.80926
5.82851
5.84632
5.86048
5.87019
5.87761
5.88607
5.89659
5.90758
5.91682
5.92314
5.92734
5.93192
5.93884
5.94762
5.95623
5.96297
5.96662
5.96671
5.96374
5.95982
5.95732
5.95694
1.40001
1.40001
1.40001
1.40001
1.40001
1.40001
1.40001
1.40001
1.40001
1.40001
1.40001
1.40001
1.40001
1.40001
1.40001
1.40001
1.40001
1.40001
1.40001
1.40001
1.40001
1.40001
1.40001
1.40001
1.40001
1.40001
1.40001
1.40001
1.40001
1.40001
1.40001
1.40001
1.40001
1.40001
1.40001
1.40001
1.40001
1.40001
1.40001
1.40001
1.40001
1.40001
1.40001
1.40001
1.40001
1.40001
1.40001
1.40001
1.40001
3.03058
5.25908
5.40584
5.43358
5.4638
5.49034
5.51583
5.53953
5.55993
5.57613
5.58846
5.59877
5.60996
5.62536
5.64595
5.66917
5.69304
5.71717
5.73941
5.75473
5.76307
5.76705
5.77287
5.78502
5.80208
5.8211
5.83863
5.8526
5.86223
5.86959
5.87787
5.88801
5.89856
5.90744
5.91365
5.91798
5.92262
5.92925
5.93739
5.94526
5.95157
5.95545
5.95589
5.95317
5.94912
5.94592
5.94502
1.40001
1.40001
1.40001
1.40001
1.40001
1.40001
1.40001
1.40001
1.40001
1.40001
1.40001
1.40001
1.40001
1.40001
1.40001
1.40001
1.40001
1.40001
1.40001
1.40001
1.40001
1.40001
1.40001
1.40001
1.40001
1.40001
1.40001
1.40001
1.40001
1.40001
1.40001
1.40001
1.40001
1.40001
1.40001
1.40001
1.40001
1.40001
1.40001
1.40001
1.40001
1.40001
1.40001
1.40001
1.40001
1.40001
1.40001
1.40001
1.40001
2.73171
5.18402
5.40402
5.42781
5.45664
5.48203
5.50757
5.53294
5.55615
5.575
5.58887
5.59912
5.60849
5.62029
5.63745
5.65928
5.68217
5.70572
5.72844
5.74527
5.75487
5.75955
5.76433
5.77521
5.79108
5.80944
5.82651
5.84037
5.85012
5.85761
5.86569
5.87535
5.88536
5.8939
5.90017
5.90485
5.90973
5.91612
5.9236
5.93066
5.93643
5.94047
5.94139
5.93917
5.93543
5.93189
5.93096
1.40001
1.40001
1.40001
1.40001
1.40001
1.40001
1.40001
1.40001
1.40001
1.40001
1.40001
1.40001
1.40001
1.40001
1.40001
1.40001
1.40001
1.40001
1.40001
1.40001
1.40001
1.40001
1.40001
1.40001
1.40001
1.40001
1.40001
1.40001
1.40001
1.40001
1.40001
1.40001
1.40001
1.40001
1.40001
1.40001
1.40001
1.40001
1.40001
1.40001
1.40001
1.40001
1.40001
1.40001
1.40001
1.40001
1.40001
1.40001
1.40001
2.37423
5.05401
5.4141
5.43049
5.45521
5.47751
5.50101
5.5256
5.54995
5.57113
5.58728
5.59872
5.60758
5.61694
5.63027
5.64908
5.67096
5.69375
5.71632
5.7344
5.74552
5.75161
5.75601
5.76555
5.77962
5.79667
5.81284
5.82638
5.83612
5.84354
5.85106
5.85978
5.86884
5.87679
5.88299
5.88797
5.89306
5.89924
5.90609
5.9123
5.91735
5.92124
5.92255
5.92095
5.91779
5.91446
5.91398
1.40001
1.40001
1.40001
1.40001
1.40001
1.40001
1.40001
1.40001
1.40001
1.40001
1.40001
1.40001
1.40001
1.40001
1.40001
1.40001
1.40001
1.40001
1.40001
1.40001
1.40001
1.40001
1.40001
1.40001
1.40001
1.40001
1.40001
1.40001
1.40001
1.40001
1.40001
1.40001
1.40001
1.40001
1.40001
1.40001
1.40001
1.40001
1.40001
1.40001
1.40001
1.40001
1.40001
1.40001
1.40001
1.40001
1.40001
1.40001
1.40001
1.98238
4.82906
5.42925
5.4303
5.45111
5.46957
5.49101
5.51396
5.53782
5.56029
5.579
5.59313
5.60359
5.61254
5.62305
5.63808
5.65762
5.67903
5.70083
5.71979
5.73265
5.74073
5.74581
5.75431
5.76649
5.78186
5.7971
5.81047
5.82044
5.82795
5.83483
5.84233
5.85008
5.85708
5.86281
5.86761
5.87248
5.87815
5.88414
5.88929
5.89327
5.89637
5.89762
5.89651
5.8939
5.89106
5.89115
1.40001
1.40001
1.40001
1.40001
1.40001
1.40001
1.40001
1.40001
1.40001
1.40001
1.40001
1.40001
1.40001
1.40001
1.40001
1.40001
1.40001
1.40001
1.40001
1.40001
1.40001
1.40001
1.40001
1.40001
1.40001
1.40001
1.40001
1.40001
1.40001
1.40001
1.40001
1.40001
1.40001
1.40001
1.40001
1.40001
1.40001
1.40001
1.40001
1.40001
1.40001
1.40001
1.40001
1.40001
1.40001
1.40001
1.40001
1.40001
1.40001
1.62509
4.45473
5.43157
5.42848
5.44561
5.46266
5.48206
5.50206
5.52321
5.54482
5.56484
5.58139
5.59406
5.60378
5.61287
5.62446
5.64051
5.65939
5.67913
5.69795
5.71245
5.72261
5.72933
5.73694
5.74724
5.76041
5.77439
5.78749
5.79787
5.80574
5.81225
5.81878
5.82546
5.83176
5.83723
5.84201
5.84674
5.85199
5.85722
5.86134
5.86413
5.86608
5.8668
5.86581
5.86344
5.86101
5.86143
1.40001
1.40001
1.40001
1.40001
1.40001
1.40001
1.40001
1.40001
1.40001
1.40001
1.40001
1.40001
1.40001
1.40001
1.40001
1.40001
1.40001
1.40001
1.40001
1.40001
1.40001
1.40001
1.40001
1.40001
1.40001
1.40001
1.40001
1.40001
1.40001
1.40001
1.40001
1.40001
1.40001
1.40001
1.40001
1.40001
1.40001
1.40001
1.40001
1.40001
1.40001
1.40001
1.40001
1.40001
1.40001
1.40001
1.40001
1.40001
1.40001
1.40696
3.85979
5.36564
5.39706
5.41718
5.43777
5.45679
5.47546
5.49527
5.51691
5.5389
5.55868
5.57467
5.58698
5.59687
5.60695
5.61982
5.63553
5.65237
5.66963
5.68497
5.69672
5.70555
5.71295
5.72208
5.73331
5.74607
5.75883
5.76984
5.77835
5.78486
5.79054
5.79586
5.80073
5.80489
5.80847
5.81196
5.81597
5.82004
5.82321
5.82521
5.82671
5.82726
5.82619
5.82373
5.82135
5.82174
1.40001
1.40001
1.40001
1.40001
1.40001
1.40001
1.40001
1.40001
1.40001
1.40001
1.40001
1.40001
1.40001
1.40001
1.40001
1.40001
1.40001
1.40001
1.40001
1.40001
1.40001
1.40001
1.40001
1.40001
1.40001
1.40001
1.40001
1.40001
1.40001
1.40001
1.40001
1.40001
1.40001
1.40001
1.40001
1.40001
1.40001
1.40001
1.40001
1.40001
1.40001
1.40001
1.40001
1.40001
1.40001
1.40001
1.40001
1.40001
1.40001
1.40002
3.08439
5.22814
5.37345
5.40214
5.42779
5.4467
5.46378
5.4811
5.50005
5.52001
5.5388
5.55447
5.56675
5.57645
5.58536
5.5957
5.60836
5.62223
5.63675
5.65129
5.66373
5.67397
5.68155
5.68965
5.69905
5.70992
5.72125
5.7319
5.74058
5.74715
5.75235
5.75679
5.76059
5.76373
5.76635
5.76886
5.77186
5.7751
5.77748
5.77857
5.77887
5.77789
5.77493
5.77036
5.76658
5.76591
1.40001
1.40001
1.40001
1.40001
1.40001
1.40001
1.40001
1.40001
1.40001
1.40001
1.40001
1.40001
1.40001
1.40001
1.40001
1.40001
1.40001
1.40001
1.40001
1.40001
1.40001
1.40001
1.40001
1.40001
1.40001
1.40001
1.40001
1.40001
1.40001
1.40001
1.40001
1.40001
1.40001
1.40001
1.40001
1.40001
1.40001
1.40001
1.40001
1.40001
1.40001
1.40001
1.40001
1.40001
1.40001
1.40001
1.40001
1.40001
1.40001
1.40001
2.19644
4.91715
5.37648
5.3856
5.41219
5.43178
5.44928
5.46622
5.48391
5.50235
5.52012
5.5354
5.5477
5.55756
5.56622
5.57536
5.58595
5.59731
5.60863
5.62015
5.63102
5.64042
5.64751
5.65379
5.66075
5.66862
5.67706
5.68575
5.69361
5.69986
5.70458
5.708
5.71014
5.71089
5.7104
5.70922
5.70836
5.70809
5.70762
5.70715
5.70701
5.70661
5.70352
5.69864
5.69432
5.69291
1.40001
1.40001
1.40001
1.40001
1.40001
1.40001
1.40001
1.40001
1.40001
1.40001
1.40001
1.40001
1.40001
1.40001
1.40001
1.40001
1.40001
1.40001
1.40001
1.40001
1.40001
1.40001
1.40001
1.40001
1.40001
1.40001
1.40001
1.40001
1.40001
1.40001
1.40001
1.40001
1.40001
1.40001
1.40001
1.40001
1.40001
1.40001
1.40001
1.40001
1.40001
1.40001
1.40001
1.40001
1.40001
1.40001
1.40001
1.40001
1.40001
1.40001
1.44953
4.17825
5.42194
5.4157
5.41788
5.42756
5.43724
5.44884
5.46206
5.47685
5.49214
5.50619
5.518
5.52777
5.53637
5.54509
5.55469
5.56476
5.57412
5.58296
5.59171
5.59961
5.60618
5.61109
5.61563
5.62011
5.62468
5.62963
5.63488
5.63964
5.64335
5.64563
5.6462
5.64465
5.6414
5.63685
5.63255
5.62941
5.62718
5.62583
5.62371
5.61904
5.60948
5.59626
5.5829
5.57315
1.40001
1.40001
1.40001
1.40001
1.40001
1.40001
1.40001
1.40001
1.40001
1.40001
1.40001
1.40001
1.40001
1.40001
1.40001
1.40001
1.40001
1.40001
1.40001
1.40001
1.40001
1.40001
1.40001
1.40001
1.40001
1.40001
1.40001
1.40001
1.40001
1.40001
1.40001
1.40001
1.40001
1.40001
1.40001
1.40001
1.40001
1.40001
1.40001
1.40001
1.40001
1.40001
1.40001
1.40001
1.40001
1.40001
1.40001
1.40001
1.40001
1.40001
1.40009
2.98155
5.1911
5.36245
5.37303
5.38849
5.40039
5.41317
5.42606
5.43971
5.45406
5.46828
5.48121
5.49237
5.50203
5.51109
5.52027
5.52955
5.53787
5.54484
5.5513
5.55712
5.56217
5.56577
5.56814
5.56936
5.56953
5.56913
5.56914
5.56997
5.57082
5.57072
5.56854
5.56341
5.55513
5.54369
5.5302
5.51598
5.50178
5.48766
5.47264
5.45513
5.43717
5.41829
5.40667
5.40103
1.40001
1.40001
1.40001
1.40001
1.40001
1.40001
1.40001
1.40001
1.40001
1.40001
1.40001
1.40001
1.40001
1.40001
1.40001
1.40001
1.40001
1.40001
1.40001
1.40001
1.40001
1.40001
1.40001
1.40001
1.40001
1.40001
1.40001
1.40001
1.40001
1.40001
1.40001
1.40001
1.40001
1.40001
1.40001
1.40001
1.40001
1.40001
1.40001
1.40001
1.40001
1.40001
1.40001
1.40001
1.40001
1.40001
1.40001
1.40001
1.40001
1.40001
1.4
1.73728
4.56504
5.37404
5.36974
5.38054
5.3933
5.40504
5.41542
5.42539
5.43557
5.44576
5.45517
5.46311
5.46958
5.4753
5.48114
5.48728
5.49303
5.49733
5.50061
5.5034
5.50564
5.50706
5.50724
5.50586
5.50223
5.49674
5.49068
5.48542
5.48085
5.47586
5.46916
5.45933
5.44504
5.42558
5.40193
5.37622
5.3505
5.32602
5.3024
5.27757
5.2412
5.19598
5.13527
5.15281
1.40001
1.40001
1.40001
1.40001
1.40001
1.40001
1.40001
1.40001
1.40001
1.40001
1.40001
1.40001
1.40001
1.40001
1.40001
1.40001
1.40001
1.40001
1.40001
1.40001
1.40001
1.40001
1.40001
1.40001
1.40001
1.40001
1.40001
1.40001
1.40001
1.40001
1.40001
1.40001
1.40001
1.40001
1.40001
1.40001
1.40001
1.40001
1.40001
1.40001
1.40001
1.40001
1.40001
1.40001
1.40001
1.40001
1.40001
1.40001
1.40001
1.40001
1.4
1.40369
3.34772
5.22371
5.33601
5.35887
5.3759
5.38622
5.3936
5.39969
5.4061
5.41297
5.41981
5.42578
5.43031
5.43374
5.43684
5.43998
5.44309
5.44533
5.44644
5.44692
5.44683
5.44611
5.44484
5.44211
5.43673
5.42844
5.41783
5.40622
5.39462
5.38299
5.37032
5.35463
5.33346
5.305
5.2689
5.22662
5.17814
5.12319
5.05361
4.96157
4.81536
4.58615
4.17228
3.26982
1.40001
1.40001
1.40001
1.40001
1.40001
1.40001
1.40001
1.40001
1.40001
1.40001
1.40001
1.40001
1.40001
1.40001
1.40001
1.40001
1.40001
1.40001
1.40001
1.40001
1.40001
1.40001
1.40001
1.40001
1.40001
1.40001
1.40001
1.40001
1.40001
1.40001
1.40001
1.40001
1.40001
1.40001
1.40001
1.40001
1.40001
1.40001
1.40001
1.40001
1.40001
1.40001
1.40001
1.40001
1.40001
1.40001
1.40001
1.40001
1.40001
1.40001
1.40001
1.39998
2.11189
4.81781
5.33081
5.34425
5.36666
5.37811
5.38529
5.38966
5.39404
5.3996
5.40551
5.41054
5.41361
5.4147
5.41441
5.41326
5.41236
5.41131
5.40957
5.40687
5.40329
5.39912
5.3946
5.38883
5.38129
5.37091
5.35716
5.34049
5.32223
5.30327
5.28333
5.26067
5.23189
5.19466
5.14623
5.08835
5.01768
4.93576
4.82886
4.69252
4.4899
4.21253
3.68688
2.92198
1.40001
1.40001
1.40001
1.40001
1.40001
1.40001
1.40001
1.40001
1.40001
1.40001
1.40001
1.40001
1.40001
1.40001
1.40001
1.40001
1.40001
1.40001
1.40001
1.40001
1.40001
1.40001
1.40001
1.40001
1.40001
1.40001
1.40001
1.40001
1.40001
1.40001
1.40001
1.40001
1.40001
1.40001
1.40001
1.40001
1.40001
1.40001
1.40001
1.40001
1.40001
1.40001
1.40001
1.40001
1.40001
1.40001
1.40001
1.40001
1.40001
1.40001
1.40001
1.4
1.44269
3.81806
5.29195
5.33883
5.3511
5.36065
5.36528
5.36832
5.37168
5.37765
5.38438
5.38981
5.39272
5.39294
5.39017
5.38553
5.38042
5.37539
5.37038
5.36442
5.35738
5.34948
5.34044
5.33048
5.31948
5.30655
5.29044
5.27048
5.24697
5.22115
5.19325
5.16285
5.12605
5.08051
5.02134
4.94976
4.86192
4.75789
4.62929
4.46355
4.24943
3.93409
3.49619
2.99173
1.40001
1.40001
1.40001
1.40001
1.40001
1.40001
1.40001
1.40001
1.40001
1.40001
1.40001
1.40001
1.40001
1.40001
1.40001
1.40001
1.40001
1.40001
1.40001
1.40001
1.40001
1.40001
1.40001
1.40001
1.40001
1.40001
1.40001
1.40001
1.40001
1.40001
1.40001
1.40001
1.40001
1.40001
1.40001
1.40001
1.40001
1.40001
1.40001
1.40001
1.40001
1.40001
1.40001
1.40001
1.40001
1.40001
1.40001
1.40001
1.40001
1.40001
1.40001
1.4
1.40002
2.43181
4.94697
5.30957
5.30758
5.32061
5.33029
5.33704
5.34314
5.35074
5.35927
5.36637
5.37094
5.3721
5.36888
5.362
5.3531
5.34384
5.33517
5.32641
5.31674
5.30573
5.29249
5.27722
5.26079
5.2433
5.22369
5.2009
5.17341
5.14196
5.10651
5.06791
5.02318
4.97
4.90331
4.82202
4.72381
4.60637
4.46624
4.29136
4.07737
3.79349
3.45943
3.08838
1.40001
1.40001
1.40001
1.40001
1.40001
1.40001
1.40001
1.40001
1.40001
1.40001
1.40001
1.40001
1.40001
1.40001
1.40001
1.40001
1.40001
1.40001
1.40001
1.40001
1.40001
1.40001
1.40001
1.40001
1.40001
1.40001
1.40001
1.40001
1.40001
1.40001
1.40001
1.40001
1.40001
1.40001
1.40001
1.40001
1.40001
1.40001
1.40001
1.40001
1.40001
1.40001
1.40001
1.40001
1.40001
1.40001
1.40001
1.40001
1.40001
1.40001
1.40001
1.40001
1.4
1.48182
4.01399
5.31803
5.31289
5.30793
5.30941
5.31169
5.31645
5.32316
5.33121
5.33836
5.34288
5.34432
5.3416
5.3343
5.32368
5.31166
5.29987
5.28837
5.27593
5.26182
5.24508
5.2253
5.20344
5.18055
5.15631
5.13031
5.09978
5.06438
5.02305
4.97701
4.92508
4.86544
4.79426
4.70857
4.60653
4.48502
4.34283
4.17139
3.97135
3.73872
3.47118
3.18716
1.40001
1.40001
1.40001
1.40001
1.40001
1.40001
1.40001
1.40001
1.40001
1.40001
1.40001
1.40001
1.40001
1.40001
1.40001
1.40001
1.40001
1.40001
1.40001
1.40001
1.40001
1.40001
1.40001
1.40001
1.40001
1.40001
1.40001
1.40001
1.40001
1.40001
1.40001
1.40001
1.40001
1.40001
1.40001
1.40001
1.40001
1.40001
1.40001
1.40001
1.40001
1.40001
1.40001
1.40001
1.40001
1.40001
1.40001
1.40001
1.40001
1.40001
1.40001
1.40001
1.40001
1.40023
2.51791
4.99074
5.2698
5.2681
5.27512
5.27901
5.28545
5.29326
5.30021
5.30538
5.30803
5.30841
5.30621
5.2998
5.28979
5.27759
5.26448
5.25086
5.23579
5.21904
5.19961
5.17681
5.15071
5.12255
5.0928
5.06221
5.02848
4.99039
4.9456
4.89446
4.83663
4.77161
4.6973
4.61076
4.51025
4.39115
4.25681
4.09406
3.9173
3.72033
3.50053
3.26969
1.40001
1.40001
1.40001
1.40001
1.40001
1.40001
1.40001
1.40001
1.40001
1.40001
1.40001
1.40001
1.40001
1.40001
1.40001
1.40001
1.40001
1.40001
1.40001
1.40001
1.40001
1.40001
1.40001
1.40001
1.40001
1.40001
1.40001
1.40001
1.40001
1.40001
1.40001
1.40001
1.40001
1.40001
1.40001
1.40001
1.40001
1.40001
1.40001
1.40001
1.40001
1.40001
1.40001
1.40001
1.40001
1.40001
1.40001
1.40001
1.40001
1.40001
1.40001
1.40001
1.40001
1.4
1.48865
3.91218
5.28058
5.26651
5.26153
5.25947
5.26268
5.26887
5.27367
5.27611
5.27567
5.27303
5.26917
5.26276
5.25437
5.24439
5.23177
5.21728
5.20002
5.18008
5.15699
5.13105
5.10178
5.06979
5.0353
4.99965
4.96194
4.92093
4.8741
4.82042
4.75899
4.69025
4.61351
4.52723
4.43064
4.3171
4.19382
4.04548
3.89251
3.7204
3.53579
3.3404
1.40001
1.40001
1.40001
1.40001
1.40001
1.40001
1.40001
1.40001
1.40001
1.40001
1.40001
1.40001
1.40001
1.40001
1.40001
1.40001
1.40001
1.40001
1.40001
1.40001
1.40001
1.40001
1.40001
1.40001
1.40001
1.40001
1.40001
1.40001
1.40001
1.40001
1.40001
1.40001
1.40001
1.40001
1.40001
1.40001
1.40001
1.40001
1.40001
1.40001
1.40001
1.40001
1.40001
1.40001
1.40001
1.40001
1.40001
1.40001
1.40001
1.40001
1.40001
1.40001
1.40001
1.40001
1.40031
2.25765
4.87215
5.25008
5.23842
5.23747
5.24081
5.24659
5.24901
5.24827
5.24432
5.23665
5.22777
5.2179
5.20846
5.19993
5.18907
5.17687
5.16019
5.13924
5.11374
5.08516
5.05371
5.01959
4.9822
4.94277
4.90123
4.85691
4.80827
4.75356
4.69133
4.62143
4.54414
4.45866
4.36574
4.25867
4.14576
4.01451
3.88015
3.72717
3.57024
3.4004
1.40001
1.40001
1.40001
1.40001
1.40001
1.40001
1.40001
1.40001
1.40001
1.40001
1.40001
1.40001
1.40001
1.40001
1.40001
1.40001
1.40001
1.40001
1.40001
1.40001
1.40001
1.40001
1.40001
1.40001
1.40001
1.40001
1.40001
1.40001
1.40001
1.40001
1.40001
1.40001
1.40001
1.40001
1.40001
1.40001
1.40001
1.40001
1.40001
1.40001
1.40001
1.40001
1.40001
1.40001
1.40001
1.40001
1.40001
1.40001
1.40001
1.40001
1.40001
1.40001
1.40001
1.40001
1.40001
1.44872
3.51703
5.15795
5.2273
5.2245
5.22608
5.22983
5.23054
5.22963
5.22443
5.21261
5.19863
5.18394
5.17129
5.16115
5.15023
5.13911
5.12328
5.10242
5.0758
5.04494
5.0112
4.9752
4.93609
4.89447
4.84978
4.80187
4.75047
4.69426
4.63223
4.56298
4.48805
4.4035
4.31336
4.21339
4.1085
3.99162
3.87194
3.73559
3.60034
3.4514
1.40001
1.40001
1.40001
1.40001
1.40001
1.40001
1.40001
1.40001
1.40001
1.40001
1.40001
1.40001
1.40001
1.40001
1.40001
1.40001
1.40001
1.40001
1.40001
1.40001
1.40001
1.40001
1.40001
1.40001
1.40001
1.40001
1.40001
1.40001
1.40001
1.40001
1.40001
1.40001
1.40001
1.40001
1.40001
1.40001
1.40001
1.40001
1.40001
1.40001
1.40001
1.40001
1.40001
1.40001
1.40001
1.40001
1.40001
1.40001
1.40001
1.40001
1.40001
1.40001
1.40001
1.40001
1.40001
1.40009
1.77381
4.5459
5.25664
5.2387
5.22321
5.21567
5.21116
5.20722
5.19932
5.18487
5.16754
5.14897
5.13229
5.11922
5.10688
5.09568
5.08088
5.06134
5.03511
5.0032
4.968
4.93085
4.89111
4.8495
4.80424
4.75471
4.70128
4.64335
4.58111
4.51306
4.44175
4.35929
4.27272
4.18025
4.08151
3.97506
3.86584
3.74437
3.6255
3.49226
1.40001
1.40001
1.40001
1.40001
1.40001
1.40001
1.40001
1.40001
1.40001
1.40001
1.40001
1.40001
1.40001
1.40001
1.40001
1.40001
1.40001
1.40001
1.40001
1.40001
1.40001
1.40001
1.40001
1.40001
1.40001
1.40001
1.40001
1.40001
1.40001
1.40001
1.40001
1.40001
1.40001
1.40001
1.40001
1.40001
1.40001
1.40001
1.40001
1.40001
1.40001
1.40001
1.40001
1.40001
1.40001
1.40001
1.40001
1.40001
1.40001
1.40001
1.40001
1.40001
1.40001
1.40001
1.40001
1.40001
1.40773
2.8784
5.01249
5.18611
5.18997
5.19031
5.1871
5.18128
5.17094
5.15577
5.13665
5.11588
5.09699
5.08157
5.06708
5.05431
5.03917
5.01982
4.99416
4.96217
4.92633
4.88859
4.84875
4.80799
4.76358
4.71434
4.66046
4.60154
4.53894
4.47127
4.40261
4.32334
4.24123
4.15584
4.06249
3.96486
3.86415
3.75523
3.64623
3.52731
1.40001
1.40001
1.40001
1.40001
1.40001
1.40001
1.40001
1.40001
1.40001
1.40001
1.40001
1.40001
1.40001
1.40001
1.40001
1.40001
1.40001
1.40001
1.40001
1.40001
1.40001
1.40001
1.40001
1.40001
1.40001
1.40001
1.40001
1.40001
1.40001
1.40001
1.40001
1.40001
1.40001
1.40001
1.40001
1.40001
1.40001
1.40001
1.40001
1.40001
1.40001
1.40001
1.40001
1.40001
1.40001
1.40001
1.40001
1.40001
1.40001
1.40001
1.40001
1.40001
1.40001
1.40001
1.40001
1.40001
1.40001
1.53754
3.78043
5.11713
5.18153
5.17913
5.17102
5.16191
5.15178
5.13982
5.12208
5.09974
5.07735
5.05771
5.03943
5.02271
5.0045
4.98246
4.95546
4.92281
4.88596
4.84704
4.80776
4.76669
4.72394
4.67649
4.62445
4.56685
4.50584
4.43763
4.37014
4.29469
4.21713
4.13779
4.04961
3.96044
3.86631
3.76701
3.66493
3.55906
1.40001
1.40001
1.40001
1.40001
1.40001
1.40001
1.40001
1.40001
1.40001
1.40001
1.40001
1.40001
1.40001
1.40001
1.40001
1.40001
1.40001
1.40001
1.40001
1.40001
1.40001
1.40001
1.40001
1.40001
1.40001
1.40001
1.40001
1.40001
1.40001
1.40001
1.40001
1.40001
1.40001
1.40001
1.40001
1.40001
1.40001
1.40001
1.40001
1.40001
1.40001
1.40001
1.40001
1.40001
1.40001
1.40001
1.40001
1.40001
1.40001
1.40001
1.40001
1.40001
1.40001
1.40001
1.40001
1.40001
1.40001
1.40095
1.85495
4.57008
5.20768
5.17925
5.15764
5.13837
5.12516
5.11369
5.09774
5.07712
5.05481
5.03344
5.01275
4.99227
4.97034
4.94495
4.91553
4.88269
4.84552
4.80643
4.76673
4.72699
4.68497
4.63973
4.59036
4.53601
4.4769
4.41051
4.3439
4.2725
4.19884
4.12418
4.04177
3.95981
3.8704
3.77916
3.68417
3.58981
1.40001
1.40001
1.40001
1.40001
1.40001
1.40001
1.40001
1.40001
1.40001
1.40001
1.40001
1.40001
1.40001
1.40001
1.40001
1.40001
1.40001
1.40001
1.40001
1.40001
1.40001
1.40001
1.40001
1.40001
1.40001
1.40001
1.40001
1.40001
1.40001
1.40001
1.40001
1.40001
1.40001
1.40001
1.40001
1.40001
1.40001
1.40001
1.40001
1.40001
1.40001
1.40001
1.40001
1.40001
1.40001
1.40001
1.40001
1.40001
1.40001
1.40001
1.40001
1.40001
1.40001
1.40001
1.40001
1.40001
1.40001
1.40001
1.41153
2.8175
4.97152
5.11692
5.10239
5.09714
5.09219
5.08411
5.07069
5.05316
5.03381
5.01313
4.99137
4.96771
4.94196
4.91296
4.88078
4.84726
4.80956
4.77063
4.73079
4.69048
4.64964
4.60568
4.55844
4.507
4.45034
4.38841
4.32406
4.25583
4.18555
4.11404
4.03778
3.96056
3.8762
3.79203
3.70373
3.61735
1.40001
1.40001
1.40001
1.40001
1.40001
1.40001
1.40001
1.40001
1.40001
1.40001
1.40001
1.40001
1.40001
1.40001
1.40001
1.40001
1.40001
1.40001
1.40001
1.40001
1.40001
1.40001
1.40001
1.40001
1.40001
1.40001
1.40001
1.40001
1.40001
1.40001
1.40001
1.40001
1.40001
1.40001
1.40001
1.40001
1.40001
1.40001
1.40001
1.40001
1.40001
1.40001
1.40001
1.40001
1.40001
1.40001
1.40001
1.40001
1.40001
1.40001
1.40001
1.40001
1.40001
1.40001
1.40001
1.40001
1.40001
1.40001
1.40002
1.52264
3.49185
5.03243
5.08218
5.08208
5.08035
5.07346
5.06039
5.04314
5.02276
5.00023
4.97601
4.9494
4.92022
4.88799
4.85326
4.81832
4.7798
4.74009
4.69991
4.65903
4.61781
4.57483
4.52928
4.48
4.42661
4.36858
4.30738
4.24225
4.17531
4.10639
4.03554
3.96179
3.88391
3.80543
3.72386
3.64271
1.40001
1.40001
1.40001
1.40001
1.40001
1.40001
1.40001
1.40001
1.40001
1.40001
1.40001
1.40001
1.40001
1.40001
1.40001
1.40001
1.40001
1.40001
1.40001
1.40001
1.40001
1.40001
1.40001
1.40001
1.40001
1.40001
1.40001
1.40001
1.40001
1.40001
1.40001
1.40001
1.40001
1.40001
1.40001
1.40001
1.40001
1.40001
1.40001
1.40001
1.40001
1.40001
1.40001
1.40001
1.40001
1.40001
1.40001
1.40001
1.40001
1.40001
1.40001
1.40001
1.40001
1.40001
1.40001
1.40001
1.40001
1.40001
1.40001
1.40085
1.68794
3.98491
5.07016
5.09373
5.08428
5.06842
5.05105
5.0306
5.00782
4.98274
4.95608
4.92764
4.89737
4.86389
4.82831
4.79317
4.75479
4.71526
4.67496
4.63383
4.5922
4.54916
4.5042
4.45674
4.40594
4.35129
4.29334
4.23162
4.16785
4.10151
4.03444
3.96365
3.89167
3.81805
3.74231
3.66578
1.40001
1.40001
1.40001
1.40001
1.40001
1.40001
1.40001
1.40001
1.40001
1.40001
1.40001
1.40001
1.40001
1.40001
1.40001
1.40001
1.40001
1.40001
1.40001
1.40001
1.40001
1.40001
1.40001
1.40001
1.40001
1.40001
1.40001
1.40001
1.40001
1.40001
1.40001
1.40001
1.40001
1.40001
1.40001
1.40001
1.40001
1.40001
1.40001
1.40001
1.40001
1.40001
1.40001
1.40001
1.40001
1.40001
1.40001
1.40001
1.40001
1.40001
1.40001
1.40001
1.40001
1.40001
1.40001
1.40001
1.40001
1.40001
1.40001
1.40001
1.40446
1.90219
4.51911
5.13859
5.1055
5.0772
5.04443
5.01515
4.9869
4.95947
4.93179
4.90349
4.87469
4.84262
4.80868
4.77409
4.73653
4.6974
4.65712
4.61557
4.57358
4.53022
4.4846
4.43785
4.38868
4.33689
4.28196
4.22355
4.16248
4.09863
4.03404
3.96612
3.89875
3.82959
3.75879
3.68734
1.40001
1.40001
1.40001
1.40001
1.40001
1.40001
1.40001
1.40001
1.40001
1.40001
1.40001
1.40001
1.40001
1.40001
1.40001
1.40001
1.40001
1.40001
1.40001
1.40001
1.40001
1.40001
1.40001
1.40001
1.40001
1.40001
1.40001
1.40001
1.40001
1.40001
1.40001
1.40001
1.40001
1.40001
1.40001
1.40001
1.40001
1.40001
1.40001
1.40001
1.40001
1.40001
1.40001
1.40001
1.40001
1.40001
1.40001
1.40001
1.40001
1.40001
1.40001
1.40001
1.40001
1.40001
1.40001
1.40001
1.40001
1.40001
1.40001
1.40001
1.40001
1.41389
2.5246
4.86794
5.09659
5.05741
5.02712
4.99339
4.9624
4.93387
4.90668
4.87948
4.85251
4.82328
4.79196
4.75837
4.72203
4.68384
4.6441
4.60249
4.55994
4.51688
4.47152
4.42433
4.37592
4.32605
4.27355
4.21788
4.15883
4.09693
4.03393
3.96887
3.90503
3.83984
3.77333
3.7072
1.40001
1.40001
1.40001
1.40001
1.40001
1.40001
1.40001
1.40001
1.40001
1.40001
1.40001
1.40001
1.40001
1.40001
1.40001
1.40001
1.40001
1.40001
1.40001
1.40001
1.40001
1.40001
1.40001
1.40001
1.40001
1.40001
1.40001
1.40001
1.40001
1.40001
1.40001
1.40001
1.40001
1.40001
1.40001
1.40001
1.40001
1.40001
1.40001
1.40001
1.40001
1.40001
1.40001
1.40001
1.40001
1.40001
1.40001
1.40001
1.40001
1.40001
1.40001
1.40001
1.40001
1.40001
1.40001
1.40001
1.40001
1.40001
1.40001
1.40001
1.40001
1.40004
1.47149
3.08739
4.95449
5.03084
4.9958
4.97109
4.94691
4.92185
4.89538
4.8684
4.84102
4.81238
4.78155
4.74808
4.71218
4.67451
4.63526
4.59399
4.55114
4.50794
4.46344
4.41594
4.36708
4.31808
4.26719
4.21351
4.15617
4.09602
4.03461
3.97263
3.91157
3.84975
3.78711
3.72618
1.40001
1.40001
1.40001
1.40001
1.40001
1.40001
1.40001
1.40001
1.40001
1.40001
1.40001
1.40001
1.40001
1.40001
1.40001
1.40001
1.40001
1.40001
1.40001
1.40001
1.40001
1.40001
1.40001
1.40001
1.40001
1.40001
1.40001
1.40001
1.40001
1.40001
1.40001
1.40001
1.40001
1.40001
1.40001
1.40001
1.40001
1.40001
1.40001
1.40001
1.40001
1.40001
1.40001
1.40001
1.40001
1.40001
1.40001
1.40001
1.40001
1.40001
1.40001
1.40001
1.40001
1.40001
1.40001
1.40001
1.40001
1.40001
1.40001
1.40001
1.40001
1.40001
1.40038
1.57056
3.41132
4.93345
4.96659
4.94626
4.93267
4.91431
4.89257
4.86751
4.8399
4.80995
4.77775
4.74325
4.70671
4.66854
4.62905
4.5881
4.54564
4.50252
4.4588
4.41252
4.36369
4.3142
4.26382
4.21131
4.15526
4.0967
4.03747
3.97849
3.91985
3.86096
3.80224
3.74578
1.40001
1.40001
1.40001
1.40001
1.40001
1.40001
1.40001
1.40001
1.40001
1.40001
1.40001
1.40001
1.40001
1.40001
1.40001
1.40001
1.40001
1.40001
1.40001
1.40001
1.40001
1.40001
1.40001
1.40001
1.40001
1.40001
1.40001
1.40001
1.40001
1.40001
1.40001
1.40001
1.40001
1.40001
1.40001
1.40001
1.40001
1.40001
1.40001
1.40001
1.40001
1.40001
1.40001
1.40001
1.40001
1.40001
1.40001
1.40001
1.40001
1.40001
1.40001
1.40001
1.40001
1.40001
1.40001
1.40001
1.40001
1.40001
1.40001
1.40001
1.40001
1.40001
1.40001
1.40169
1.66076
3.6113
4.91828
4.93736
4.92179
4.90704
4.88678
4.86348
4.83632
4.80658
4.77463
4.74046
4.70415
4.66599
4.62636
4.58555
4.54355
4.50061
4.45697
4.4116
4.3636
4.31376
4.2631
4.21105
4.15664
4.10065
4.0444
3.9881
3.93163
3.8751
3.82004
3.76668
1.40001
1.40001
1.40001
1.40001
1.40001
1.40001
1.40001
1.40001
1.40001
1.40001
1.40001
1.40001
1.40001
1.40001
1.40001
1.40001
1.40001
1.40001
1.40001
1.40001
1.40001
1.40001
1.40001
1.40001
1.40001
1.40001
1.40001
1.40001
1.40001
1.40001
1.40001
1.40001
1.40001
1.40001
1.40001
1.40001
1.40001
1.40001
1.40001
1.40001
1.40001
1.40001
1.40001
1.40001
1.40001
1.40001
1.40001
1.40001
1.40001
1.40001
1.40001
1.40001
1.40001
1.40001
1.40001
1.40001
1.40001
1.40001
1.40001
1.40001
1.40001
1.40001
1.40001
1.40001
1.4038
1.73627
3.75021
4.92339
4.92156
4.90131
4.87942
4.8545
4.82729
4.79789
4.76675
4.73335
4.69807
4.66115
4.62284
4.58336
4.54279
4.50096
4.45769
4.41282
4.36592
4.31687
4.26643
4.21533
4.16328
4.1099
4.05627
4.00225
3.94757
3.89283
3.84074
3.78898
1.40001
1.40001
1.40001
1.40001
1.40001
1.40001
1.40001
1.40001
1.40001
1.40001
1.40001
1.40001
1.40001
1.40001
1.40001
1.40001
1.40001
1.40001
1.40001
1.40001
1.40001
1.40001
1.40001
1.40001
1.40001
1.40001
1.40001
1.40001
1.40001
1.40001
1.40001
1.40001
1.40001
1.40001
1.40001
1.40001
1.40001
1.40001
1.40001
1.40001