/*--------------------------------*- C++ -*----------------------------------*\
  =========                 |
  \\      /  F ield         | OpenFOAM: The Open Source CFD Toolbox
   \\    /   O peration     | Website:  https://openfoam.org
    \\  /    A nd           | Version:  7
     \\/     M anipulation  |
\*---------------------------------------------------------------------------*/
FoamFile
{
    version     2.0;
    format      ascii;
    class       volVectorField;
    location    "2.9";
    object      U;
}
// * * * * * * * * * * * * * * * * * * * * * * * * * * * * * * * * * * * * * //

dimensions      [0 1 -1 0 0 0 0];

internalField   nonuniform List<vector> 
19968
(
(3 -1.00661e-18 0)
(3 -2.45071e-16 0)
(3 -2.29506e-16 0)
(3 -4.233e-16 0)
(3 -8.59387e-17 0)
(3 9.67649e-16 0)
(3 1.35173e-15 0)
(3 1.02005e-15 0)
(3 5.51218e-16 0)
(3 3.47022e-16 0)
(3 2.1499e-16 0)
(3 -6.22982e-18 0)
(3 -2.70835e-17 0)
(3 9.00596e-17 0)
(3 1.75538e-16 0)
(3 -5.31458e-17 0)
(3 -1.5531e-16 0)
(3 3.26317e-16 0)
(3 9.30545e-16 0)
(3 1.17848e-15 0)
(3 8.90192e-16 0)
(3 1.42007e-16 0)
(3 -3.31325e-16 0)
(3 -3.16704e-16 0)
(3 -3.10357e-16 0)
(3 3.62744e-16 0)
(3 3.86871e-16 0)
(3 1.1606e-15 0)
(3 1.45318e-15 0)
(3 1.39279e-15 0)
(3 1.15061e-15 0)
(3 1.12669e-15 0)
(3 1.24708e-15 0)
(3 1.44166e-15 0)
(3 1.57107e-16 0)
(3 -2.51419e-16 0)
(3 -5.17615e-16 0)
(3 -1.56835e-16 0)
(3 -3.21769e-16 0)
(3 -8.27004e-16 0)
(3 -1.09642e-15 0)
(3 -1.35271e-15 0)
(3 -1.23722e-15 0)
(3 -7.5256e-16 0)
(3 -5.54195e-17 0)
(3 -2.30781e-16 0)
(3 -3.10435e-16 0)
(3 -3.34272e-16 0)
(3 -2.62809e-16 0)
(1.26077 0.00485977 0)
(0.77324 0.00328325 0)
(0.747083 0.0102007 0)
(0.729873 0.00921503 0)
(0.714312 0.0081634 0)
(0.70095 0.0075331 0)
(0.688019 0.00757962 0)
(0.67419 0.00808792 0)
(0.658897 0.00887692 0)
(0.642371 0.00978101 0)
(0.625115 0.0104912 0)
(0.607781 0.0105937 0)
(0.591258 0.00989153 0)
(0.576266 0.00892229 0)
(0.562426 0.00847313 0)
(0.549044 0.00867632 0)
(0.534969 0.00929441 0)
(0.519507 0.0101444 0)
(0.502739 0.0109858 0)
(0.485471 0.0111416 0)
(0.469181 0.0102804 0)
(0.454685 0.00938619 0)
(0.440818 0.00959555 0)
(0.425872 0.0104048 0)
(0.409583 0.0109049 0)
(0.392847 0.010783 0)
(0.376266 0.0106189 0)
(0.359769 0.0106999 0)
(0.343308 0.0108493 0)
(0.326967 0.0109994 0)
(0.310558 0.0111789 0)
(0.293838 0.0113357 0)
(0.276919 0.0114639 0)
(0.259983 0.0116278 0)
(0.242986 0.0118338 0)
(0.225796 0.0120257 0)
(0.208273 0.0121965 0)
(0.190147 0.0123433 0)
(0.171529 0.0124889 0)
(0.152743 0.0127048 0)
(0.133989 0.0130057 0)
(0.115091 0.0134009 0)
(0.0954148 0.0137404 0)
(0.0754547 0.0140856 0)
(0.0544603 0.0143719 0)
(0.0330096 0.0145331 0)
(0.0113148 0.0147054 0)
(3 -3.84486e-17 0)
(3 -2.64822e-16 0)
(3 -1.94865e-17 0)
(3 4.03084e-17 0)
(3 6.11252e-16 0)
(3 1.33648e-15 0)
(3 1.58993e-15 0)
(3 1.40108e-15 0)
(3 6.60242e-16 0)
(3 5.05355e-16 0)
(3 7.98666e-17 0)
(3 -7.08827e-17 0)
(3 -6.04979e-18 0)
(3 -9.05854e-17 0)
(3 5.75997e-17 0)
(3 -5.12364e-17 0)
(3 -3.67281e-16 0)
(3 -2.19369e-16 0)
(3 6.32434e-16 0)
(3 3.20563e-16 0)
(3 -3.57847e-16 0)
(3 -1.12302e-15 0)
(3 -1.09496e-15 0)
(3 -1.17636e-15 0)
(3 -7.95271e-16 0)
(3 2.99325e-16 0)
(3 3.13938e-16 0)
(3 2.22038e-16 0)
(3 1.69106e-17 0)
(3 2.77576e-16 0)
(3 7.57856e-16 0)
(3 1.01475e-15 0)
(3 7.37946e-16 0)
(3 4.20248e-16 0)
(3 -1.77774e-16 0)
(3 -7.51706e-16 0)
(3 -4.33933e-16 0)
(3 8.71958e-16 0)
(3 3.16547e-16 0)
(3 -7.32725e-16 0)
(3 -1.69198e-15 0)
(3 -3.32505e-15 0)
(3 -3.40112e-15 0)
(3 -1.45066e-15 0)
(3 -9.01914e-16 0)
(3 -8.95462e-17 0)
(3 1.25757e-16 0)
(3 7.13791e-16 0)
(3 9.31222e-16 0)
(1.27632 0.0259879 0)
(0.771276 0.0188482 0)
(0.743693 0.0308709 0)
(0.726388 0.0288389 0)
(0.710049 0.0257864 0)
(0.695765 0.0228372 0)
(0.682237 0.0218955 0)
(0.668417 0.02297 0)
(0.653559 0.025246 0)
(0.637714 0.0280641 0)
(0.621201 0.0304694 0)
(0.604402 0.0313487 0)
(0.587927 0.0301096 0)
(0.572444 0.0275782 0)
(0.55783 0.0256997 0)
(0.543887 0.0256269 0)
(0.52968 0.0272039 0)
(0.514392 0.0297607 0)
(0.497999 0.0323924 0)
(0.481024 0.0332075 0)
(0.464846 0.0312256 0)
(0.450059 0.0288475 0)
(0.435711 0.0291528 0)
(0.420698 0.0312946 0)
(0.404517 0.0326338 0)
(0.387981 0.0323267 0)
(0.371523 0.0319659 0)
(0.355074 0.0322803 0)
(0.338658 0.0327535 0)
(0.322397 0.0332454 0)
(0.306102 0.0338674 0)
(0.289507 0.0344323 0)
(0.27271 0.0348899 0)
(0.255897 0.0354247 0)
(0.239046 0.0360683 0)
(0.222049 0.0366753 0)
(0.204778 0.0372298 0)
(0.186967 0.0377141 0)
(0.168721 0.0381991 0)
(0.150324 0.0389028 0)
(0.131959 0.0398326 0)
(0.11346 0.0410401 0)
(0.0941555 0.0420369 0)
(0.0746095 0.0431064 0)
(0.05399 0.044064 0)
(0.0327961 0.0446726 0)
(0.0112762 0.0453584 0)
(3 4.67132e-17 0)
(3 4.63814e-16 0)
(3 9.1493e-16 0)
(3 9.82193e-16 0)
(3 9.35967e-16 0)
(3 4.09404e-16 0)
(3 6.88897e-17 0)
(3 1.98639e-16 0)
(3 2.77668e-16 0)
(3 7.48935e-16 0)
(3 8.57302e-16 0)
(3 6.87916e-16 0)
(3 4.38314e-16 0)
(3 6.29114e-17 0)
(3 -2.06339e-16 0)
(3 -6.08461e-16 0)
(3 -6.55962e-16 0)
(3 -4.5993e-16 0)
(3 -1.43413e-15 0)
(3 -1.90466e-15 0)
(3 -2.2184e-15 0)
(3 -2.71517e-15 0)
(3 -3.05466e-15 0)
(3 -3.20066e-15 0)
(3 -2.95774e-15 0)
(3 -2.64668e-15 0)
(3 -1.84674e-15 0)
(3 -1.55966e-15 0)
(3 -1.56634e-15 0)
(3 -1.21638e-15 0)
(3 -7.51284e-16 0)
(3 6.24085e-16 0)
(3 9.61821e-16 0)
(3 6.20984e-16 0)
(3 1.53432e-16 0)
(3 -4.39216e-16 0)
(3 3.53254e-16 0)
(3 1.94384e-15 0)
(3 2.60651e-15 0)
(3 1.03281e-15 0)
(3 -2.05087e-16 0)
(3 -1.51452e-15 0)
(3 -1.53947e-15 0)
(3 -6.68285e-16 0)
(3 -7.85302e-16 0)
(3 -3.25582e-16 0)
(3 -3.62326e-16 0)
(3 1.81891e-16 0)
(3 1.81956e-15 0)
(1.31904 0.0478793 0)
(0.774821 0.0362253 0)
(0.746183 0.050841 0)
(0.729142 0.0492476 0)
(0.712219 0.0457339 0)
(0.696658 0.0413818 0)
(0.68167 0.0392865 0)
(0.666962 0.0402432 0)
(0.651921 0.0432696 0)
(0.63644 0.0473257 0)
(0.620592 0.0510107 0)
(0.604431 0.0528483 0)
(0.588202 0.0517837 0)
(0.572395 0.0486116 0)
(0.556928 0.0456401 0)
(0.542015 0.0449237 0)
(0.527203 0.0468457 0)
(0.511756 0.0505596 0)
(0.495532 0.0545679 0)
(0.478682 0.0559934 0)
(0.462517 0.053364 0)
(0.447377 0.0499728 0)
(0.432377 0.0504042 0)
(0.417094 0.0536221 0)
(0.400746 0.0556058 0)
(0.384127 0.0551038 0)
(0.367549 0.0546095 0)
(0.350929 0.0551516 0)
(0.334305 0.0558563 0)
(0.317838 0.0565783 0)
(0.301362 0.0575772 0)
(0.284617 0.0585282 0)
(0.267687 0.059283 0)
(0.250742 0.0601094 0)
(0.233769 0.0610726 0)
(0.2167 0.0619851 0)
(0.199456 0.0628527 0)
(0.181814 0.0636221 0)
(0.163877 0.0643798 0)
(0.145867 0.06549 0)
(0.127923 0.0669643 0)
(0.109912 0.068957 0)
(0.0911343 0.0706307 0)
(0.0722776 0.0725187 0)
(0.0524129 0.0743007 0)
(0.0318836 0.0754747 0)
(0.0109901 0.0768432 0)
(3 4.92733e-17 0)
(3 3.77485e-16 0)
(3 4.11936e-16 0)
(3 4.02585e-16 0)
(3 3.48503e-16 0)
(3 3.56617e-16 0)
(3 4.56887e-17 0)
(3 -4.41966e-17 0)
(3 1.32814e-16 0)
(3 5.1128e-16 0)
(3 1.06167e-15 0)
(3 1.05183e-15 0)
(3 7.24272e-16 0)
(3 5.42073e-16 0)
(3 3.70048e-16 0)
(3 -1.32072e-16 0)
(3 -5.09278e-16 0)
(3 -4.48133e-16 0)
(3 -1.72988e-15 0)
(3 -2.47259e-15 0)
(3 -2.1454e-15 0)
(3 -2.80674e-15 0)
(3 -3.19434e-15 0)
(3 -2.07621e-15 0)
(3 -1.12994e-15 0)
(3 -4.57205e-16 0)
(3 7.35833e-17 0)
(3 -3.8431e-16 0)
(3 -3.97075e-16 0)
(3 -3.30342e-16 0)
(3 -3.79809e-16 0)
(3 7.44802e-16 0)
(3 1.19342e-15 0)
(3 6.60962e-16 0)
(3 4.76711e-16 0)
(3 8.60838e-16 0)
(3 9.02453e-16 0)
(3 3.29481e-16 0)
(3 -5.81289e-16 0)
(3 -6.12875e-16 0)
(3 -4.20115e-16 0)
(3 1.0269e-16 0)
(3 6.04912e-16 0)
(3 1.29095e-16 0)
(3 -4.17838e-16 0)
(3 -8.471e-16 0)
(3 -9.50974e-16 0)
(3 -2.5547e-16 0)
(3 -2.11306e-16 0)
(1.39082 0.0699527 0)
(0.779374 0.0548548 0)
(0.748841 0.0705295 0)
(0.73213 0.0700092 0)
(0.714797 0.0673194 0)
(0.698365 0.0625027 0)
(0.682334 0.0588735 0)
(0.666917 0.0589025 0)
(0.651909 0.061926 0)
(0.637018 0.0665388 0)
(0.6221 0.0711802 0)
(0.606868 0.074065 0)
(0.591167 0.073975 0)
(0.575317 0.0711409 0)
(0.559363 0.0676103 0)
(0.543737 0.0660665 0)
(0.528382 0.0678054 0)
(0.512842 0.0721924 0)
(0.496859 0.0772265 0)
(0.480156 0.0793644 0)
(0.463898 0.0766817 0)
(0.448344 0.0727951 0)
(0.432711 0.0734006 0)
(0.417143 0.0775092 0)
(0.400564 0.0800629 0)
(0.383733 0.0794867 0)
(0.366888 0.0790119 0)
(0.349958 0.0798431 0)
(0.332966 0.0807738 0)
(0.316102 0.0817011 0)
(0.299245 0.0830826 0)
(0.282147 0.0844585 0)
(0.264864 0.085531 0)
(0.247539 0.0866104 0)
(0.230161 0.0877985 0)
(0.212712 0.0889068 0)
(0.195171 0.089983 0)
(0.177371 0.0909121 0)
(0.159423 0.0917665 0)
(0.141487 0.0930732 0)
(0.123669 0.0948587 0)
(0.105903 0.0974609 0)
(0.0874744 0.0996691 0)
(0.0692268 0.102285 0)
(0.0501977 0.104923 0)
(0.0305076 0.106688 0)
(0.0105233 0.108823 0)
(3 -2.98855e-16 0)
(3 -5.30001e-16 0)
(3 -6.67853e-16 0)
(3 -5.80707e-16 0)
(3 -3.15042e-16 0)
(3 1.29884e-16 0)
(3 2.34229e-16 0)
(3 -5.60949e-17 0)
(3 -3.06946e-16 0)
(3 -1.60355e-16 0)
(3 -1.97979e-16 0)
(3 -2.272e-16 0)
(3 -7.39923e-16 0)
(3 -6.36176e-16 0)
(3 -3.80683e-16 0)
(3 -2.8692e-16 0)
(3 -3.9965e-16 0)
(3 -3.35011e-16 0)
(3 -1.96773e-16 0)
(3 -3.41744e-16 0)
(3 -1.81401e-16 0)
(3 -3.71644e-16 0)
(3 -2.86009e-16 0)
(3 3.02077e-16 0)
(3 2.6069e-16 0)
(3 2.03309e-16 0)
(3 -1.45474e-16 0)
(3 7.62387e-16 0)
(3 1.12217e-15 0)
(3 1.23153e-15 0)
(3 1.11017e-15 0)
(3 1.03049e-15 0)
(3 5.73055e-16 0)
(3 2.42907e-16 0)
(3 -3.45807e-17 0)
(3 3.18017e-16 0)
(3 2.26873e-16 0)
(3 -6.29655e-16 0)
(3 -1.31506e-15 0)
(3 -1.04464e-15 0)
(3 -4.72796e-16 0)
(3 3.66347e-16 0)
(3 3.10389e-16 0)
(3 -3.64716e-16 0)
(3 3.45936e-16 0)
(3 3.07959e-16 0)
(3 -2.52601e-16 0)
(3 -5.37978e-16 0)
(3 -4.36372e-16 0)
(1.4999 0.091927 0)
(0.785533 0.0743971 0)
(0.751191 0.0909548 0)
(0.734573 0.0919766 0)
(0.716922 0.0906472 0)
(0.699951 0.0861727 0)
(0.683207 0.0811804 0)
(0.666945 0.0792986 0)
(0.65163 0.0813579 0)
(0.636995 0.0858808 0)
(0.622721 0.091116 0)
(0.608308 0.0952694 0)
(0.593251 0.0967749 0)
(0.57761 0.095033 0)
(0.561523 0.0915451 0)
(0.545542 0.0890865 0)
(0.529704 0.0900724 0)
(0.514241 0.0945865 0)
(0.49871 0.100345 0)
(0.482412 0.103396 0)
(0.466212 0.101257 0)
(0.450477 0.0972791 0)
(0.434545 0.097961 0)
(0.418979 0.10273 0)
(0.40244 0.105835 0)
(0.385629 0.105355 0)
(0.36875 0.105059 0)
(0.351752 0.106273 0)
(0.334605 0.107486 0)
(0.317508 0.108637 0)
(0.300408 0.110429 0)
(0.283075 0.112294 0)
(0.265524 0.11374 0)
(0.247867 0.115086 0)
(0.230082 0.116483 0)
(0.212182 0.117778 0)
(0.194195 0.119069 0)
(0.176025 0.120139 0)
(0.157781 0.121 0)
(0.139582 0.12234 0)
(0.121491 0.124189 0)
(0.103524 0.127137 0)
(0.0850139 0.129619 0)
(0.0668986 0.132642 0)
(0.0483688 0.135992 0)
(0.0292981 0.138223 0)
(0.0100774 0.141078 0)
(3 1.36326e-16 0)
(3 5.62694e-17 0)
(3 1.60024e-16 0)
(3 3.69244e-16 0)
(3 5.71173e-17 0)
(3 -2.75302e-17 0)
(3 -5.61865e-16 0)
(3 -7.08677e-16 0)
(3 -1.18378e-15 0)
(3 -9.31588e-16 0)
(3 -7.2166e-16 0)
(3 -1.09783e-15 0)
(3 -1.18938e-15 0)
(3 -1.28121e-15 0)
(3 -1.27413e-15 0)
(3 -1.35723e-15 0)
(3 -8.60946e-16 0)
(3 7.00167e-17 0)
(3 4.60569e-16 0)
(3 5.90839e-16 0)
(3 8.36004e-17 0)
(3 -3.54596e-16 0)
(3 3.52263e-16 0)
(3 1.77177e-15 0)
(3 1.70385e-15 0)
(3 1.09103e-15 0)
(3 5.88683e-16 0)
(3 7.25659e-16 0)
(3 7.89234e-16 0)
(3 6.12534e-16 0)
(3 4.49877e-16 0)
(3 3.7409e-16 0)
(3 7.03301e-16 0)
(3 1.07988e-15 0)
(3 7.97152e-16 0)
(3 8.2803e-16 0)
(3 1.47856e-15 0)
(3 1.22081e-15 0)
(3 1.34193e-15 0)
(3 1.25603e-15 0)
(3 1.14442e-15 0)
(3 5.66623e-16 0)
(3 -5.81405e-16 0)
(3 -4.45595e-16 0)
(3 3.50947e-16 0)
(3 3.44531e-16 0)
(3 1.11914e-16 0)
(3 -3.54596e-17 0)
(3 -4.79206e-17 0)
(1.66091 0.11268 0)
(0.797155 0.0947711 0)
(0.754583 0.112 0)
(0.738539 0.114588 0)
(0.721374 0.114622 0)
(0.704637 0.111216 0)
(0.687644 0.105931 0)
(0.67058 0.102051 0)
(0.654256 0.102131 0)
(0.639196 0.105751 0)
(0.62504 0.111038 0)
(0.611215 0.116202 0)
(0.596955 0.119424 0)
(0.581903 0.119423 0)
(0.566263 0.116628 0)
(0.55039 0.113515 0)
(0.53452 0.11337 0)
(0.519313 0.117387 0)
(0.504468 0.123472 0)
(0.488859 0.127535 0)
(0.472871 0.126462 0)
(0.457122 0.12274 0)
(0.441114 0.12337 0)
(0.425655 0.12855 0)
(0.409261 0.132273 0)
(0.392477 0.132118 0)
(0.375597 0.13217 0)
(0.358579 0.133905 0)
(0.341304 0.135551 0)
(0.323965 0.137014 0)
(0.3066 0.139281 0)
(0.289006 0.141749 0)
(0.271144 0.143695 0)
(0.253093 0.1454 0)
(0.234806 0.147089 0)
(0.216294 0.148678 0)
(0.19763 0.150321 0)
(0.178801 0.15166 0)
(0.159935 0.15259 0)
(0.141142 0.15394 0)
(0.122426 0.155729 0)
(0.103819 0.15881 0)
(0.0847721 0.161352 0)
(0.0661858 0.164392 0)
(0.0476063 0.168207 0)
(0.0286343 0.170681 0)
(0.00982045 0.174101 0)
(3 -6.93566e-18 0)
(3 -1.73946e-16 0)
(3 -6.20121e-17 0)
(3 -1.0254e-16 0)
(3 -4.31487e-16 0)
(3 -1.03657e-15 0)
(3 -1.43198e-15 0)
(3 -1.45266e-15 0)
(3 -1.73268e-15 0)
(3 -2.46731e-15 0)
(3 -2.48447e-15 0)
(3 -2.06517e-15 0)
(3 -1.7286e-15 0)
(3 -1.38923e-15 0)
(3 -5.18364e-16 0)
(3 -5.36432e-16 0)
(3 -6.11836e-16 0)
(3 -5.4886e-16 0)
(3 -6.87131e-16 0)
(3 -9.79554e-16 0)
(3 -1.58647e-15 0)
(3 -1.41587e-15 0)
(3 -6.26678e-16 0)
(3 -1.31236e-16 0)
(3 8.27207e-16 0)
(3 1.31065e-15 0)
(3 1.33098e-15 0)
(3 1.30008e-15 0)
(3 1.10686e-16 0)
(3 -5.02837e-16 0)
(3 -2.03439e-16 0)
(3 2.24869e-16 0)
(3 9.85975e-16 0)
(3 1.23795e-15 0)
(3 9.33271e-16 0)
(3 4.56288e-16 0)
(3 7.90819e-16 0)
(3 1.61162e-15 0)
(3 1.90583e-15 0)
(3 1.74754e-15 0)
(3 1.43966e-15 0)
(3 7.92593e-16 0)
(3 1.00282e-16 0)
(3 -1.33779e-16 0)
(3 -1.07521e-16 0)
(3 1.5439e-16 0)
(3 -1.35744e-16 0)
(3 -1.23049e-16 0)
(3 -1.77846e-15 0)
(1.88634 0.129412 0)
(0.816946 0.116857 0)
(0.75661 0.134766 0)
(0.740516 0.137657 0)
(0.723732 0.138472 0)
(0.707513 0.136865 0)
(0.690609 0.132711 0)
(0.673073 0.128003 0)
(0.655605 0.125907 0)
(0.639281 0.127551 0)
(0.624318 0.132037 0)
(0.610204 0.137691 0)
(0.596058 0.142451 0)
(0.581183 0.144369 0)
(0.56563 0.142885 0)
(0.549566 0.139681 0)
(0.533448 0.138206 0)
(0.518004 0.14116 0)
(0.503465 0.147365 0)
(0.488429 0.152689 0)
(0.472581 0.153152 0)
(0.456871 0.149945 0)
(0.44095 0.150262 0)
(0.425763 0.155593 0)
(0.409843 0.160056 0)
(0.393372 0.16046 0)
(0.376857 0.160963 0)
(0.360292 0.163307 0)
(0.343429 0.165517 0)
(0.326415 0.167319 0)
(0.30941 0.17002 0)
(0.29226 0.173104 0)
(0.274851 0.175602 0)
(0.25721 0.177707 0)
(0.239233 0.179729 0)
(0.220867 0.181687 0)
(0.202186 0.183801 0)
(0.18324 0.185569 0)
(0.164177 0.186719 0)
(0.145135 0.188169 0)
(0.126054 0.189956 0)
(0.106873 0.193063 0)
(0.0871909 0.195611 0)
(0.0677459 0.198452 0)
(0.0485288 0.202522 0)
(0.0289673 0.205118 0)
(0.00995507 0.208979 0)
(3 -1.56401e-16 0)
(3 -3.80524e-16 0)
(3 -5.49883e-16 0)
(3 -5.66919e-16 0)
(3 -2.54682e-16 0)
(3 -3.63513e-16 0)
(3 -6.45752e-16 0)
(3 -9.95187e-16 0)
(3 -1.11113e-15 0)
(3 -1.10943e-15 0)
(3 -8.69629e-16 0)
(3 -8.65255e-16 0)
(3 -1.14742e-15 0)
(3 -1.26229e-15 0)
(3 -1.90992e-16 0)
(3 -2.04152e-16 0)
(3 -1.32901e-15 0)
(3 -1.92626e-15 0)
(3 -2.05955e-15 0)
(3 -2.05072e-15 0)
(3 -1.71728e-15 0)
(3 -1.83073e-15 0)
(3 -2.18906e-15 0)
(3 -1.95446e-15 0)
(3 -1.8204e-15 0)
(3 -1.75322e-15 0)
(3 -1.03831e-15 0)
(3 -5.24175e-16 0)
(3 1.87195e-16 0)
(3 5.46313e-16 0)
(3 5.27309e-16 0)
(3 2.51134e-17 0)
(3 -5.7984e-16 0)
(3 -5.25343e-16 0)
(3 -1.8226e-16 0)
(3 -7.86293e-16 0)
(3 -1.46105e-15 0)
(3 3.72004e-17 0)
(3 2.3558e-16 0)
(3 5.96282e-16 0)
(3 1.12272e-15 0)
(3 1.48684e-15 0)
(3 1.99502e-15 0)
(3 1.54794e-15 0)
(3 9.48375e-16 0)
(3 1.14459e-15 0)
(3 8.20923e-16 0)
(3 9.67949e-16 0)
(3 -2.57773e-15 0)
(2.18531 0.142329 0)
(0.849116 0.149799 0)
(0.752767 0.158554 0)
(0.738438 0.162086 0)
(0.723481 0.162924 0)
(0.709119 0.163175 0)
(0.693482 0.161149 0)
(0.676797 0.157123 0)
(0.659628 0.153555 0)
(0.643019 0.152863 0)
(0.62769 0.155588 0)
(0.613572 0.160855 0)
(0.59991 0.16682 0)
(0.585584 0.170727 0)
(0.57028 0.170994 0)
(0.554374 0.168321 0)
(0.538075 0.16572 0)
(0.522085 0.167058 0)
(0.507359 0.172694 0)
(0.492708 0.178983 0)
(0.476837 0.181198 0)
(0.460823 0.17877 0)
(0.444568 0.178471 0)
(0.429093 0.183495 0)
(0.413303 0.188636 0)
(0.39675 0.189763 0)
(0.38018 0.19067 0)
(0.363701 0.193554 0)
(0.346972 0.196377 0)
(0.330045 0.198484 0)
(0.313209 0.20148 0)
(0.29642 0.20512 0)
(0.279489 0.20823 0)
(0.262372 0.210835 0)
(0.244891 0.213309 0)
(0.226892 0.215781 0)
(0.208418 0.218572 0)
(0.189546 0.221071 0)
(0.170426 0.222795 0)
(0.151248 0.224689 0)
(0.131917 0.226852 0)
(0.112192 0.230195 0)
(0.0917586 0.232974 0)
(0.0712042 0.235759 0)
(0.0508978 0.240074 0)
(0.0302411 0.242911 0)
(0.0104506 0.247226 0)
(3 2.81298e-16 0)
(3 6.60654e-16 0)
(3 8.27842e-16 0)
(3 7.48096e-16 0)
(3 1.16194e-15 0)
(3 1.53195e-15 0)
(3 1.53428e-15 0)
(3 1.4988e-15 0)
(3 1.58752e-15 0)
(3 1.86707e-15 0)
(3 2.08978e-15 0)
(3 2.29484e-15 0)
(3 1.55135e-15 0)
(3 3.56268e-17 0)
(3 -2.95666e-16 0)
(3 -7.87892e-16 0)
(3 -1.14459e-15 0)
(3 -1.96664e-15 0)
(3 -2.18958e-15 0)
(3 -2.00822e-15 0)
(3 -1.78811e-15 0)
(3 -1.78146e-15 0)
(3 -2.02021e-15 0)
(3 -3.17362e-15 0)
(3 -3.44452e-15 0)
(3 -3.14687e-15 0)
(3 -2.385e-15 0)
(3 -2.12325e-15 0)
(3 -9.38251e-16 0)
(3 -5.51238e-16 0)
(3 -6.31463e-16 0)
(3 -1.02857e-15 0)
(3 -1.57982e-15 0)
(3 -1.41423e-15 0)
(3 6.49932e-17 0)
(3 2.94448e-16 0)
(3 2.86373e-16 0)
(3 5.28737e-17 0)
(3 9.94558e-17 0)
(3 6.43801e-16 0)
(3 9.44636e-16 0)
(3 6.61226e-16 0)
(3 6.39646e-16 0)
(3 1.15784e-15 0)
(3 7.89823e-16 0)
(3 8.01891e-16 0)
(3 1.06116e-15 0)
(3 1.69625e-15 0)
(3 7.11277e-16 0)
(2.56803 0.138414 0)
(0.921366 0.188662 0)
(0.765532 0.180867 0)
(0.754426 0.182426 0)
(0.739739 0.184505 0)
(0.726596 0.187008 0)
(0.711693 0.187654 0)
(0.695597 0.185348 0)
(0.67869 0.181542 0)
(0.661602 0.179116 0)
(0.645246 0.180007 0)
(0.630185 0.184374 0)
(0.616197 0.190828 0)
(0.602102 0.196641 0)
(0.587007 0.19928 0)
(0.571046 0.198145 0)
(0.55459 0.195255 0)
(0.537893 0.195031 0)
(0.522255 0.199646 0)
(0.507444 0.206691 0)
(0.491331 0.211106 0)
(0.47449 0.210232 0)
(0.45729 0.209465 0)
(0.440746 0.213893 0)
(0.424469 0.219718 0)
(0.407264 0.221931 0)
(0.389956 0.22327 0)
(0.372856 0.226554 0)
(0.355609 0.229964 0)
(0.338085 0.232308 0)
(0.320677 0.235336 0)
(0.303511 0.239282 0)
(0.286379 0.242904 0)
(0.269142 0.245982 0)
(0.251563 0.248904 0)
(0.233401 0.251884 0)
(0.214686 0.255399 0)
(0.195507 0.258809 0)
(0.175994 0.261385 0)
(0.156452 0.264025 0)
(0.136722 0.266938 0)
(0.116527 0.270843 0)
(0.09544 0.274111 0)
(0.0740035 0.276976 0)
(0.0528183 0.281571 0)
(0.0313415 0.284731 0)
(0.0108806 0.289513 0)
(3 5.81022e-17 0)
(3 1.99878e-16 0)
(3 2.73186e-16 0)
(3 4.08867e-17 0)
(3 -4.24157e-17 0)
(3 2.08558e-16 0)
(3 7.00255e-16 0)
(3 1.02667e-15 0)
(3 1.20947e-15 0)
(3 1.0559e-15 0)
(3 2.66396e-16 0)
(3 5.76087e-17 0)
(3 -1.1026e-16 0)
(3 -2.82114e-16 0)
(3 -5.95612e-16 0)
(3 -7.39739e-16 0)
(3 -8.63485e-16 0)
(3 -5.05543e-16 0)
(3 -7.64216e-16 0)
(3 -1.18672e-15 0)
(3 -2.0042e-15 0)
(3 -1.74404e-15 0)
(3 -1.23271e-15 0)
(3 -1.17268e-15 0)
(3 -1.57171e-15 0)
(3 -1.63895e-15 0)
(3 -1.65828e-15 0)
(3 -2.06859e-15 0)
(3 -2.16171e-15 0)
(3 -2.20009e-15 0)
(3 -2.12114e-15 0)
(3 -1.75313e-15 0)
(3 -7.99954e-16 0)
(3 -4.76459e-16 0)
(3 -3.96219e-16 0)
(3 -6.00056e-17 0)
(3 9.76139e-16 0)
(3 8.88546e-16 0)
(3 1.06429e-15 0)
(3 1.37173e-15 0)
(3 7.61599e-16 0)
(3 -3.03096e-16 0)
(3 -1.37291e-15 0)
(3 -1.49861e-15 0)
(3 -4.93812e-16 0)
(3 2.83075e-16 0)
(3 4.47254e-16 0)
(3 2.29588e-16 0)
(3 -2.28281e-16 0)
(2.90574 0.0751425 0)
(1.02926 0.224641 0)
(0.783034 0.18993 0)
(0.775831 0.197389 0)
(0.762191 0.202681 0)
(0.749583 0.208574 0)
(0.735368 0.211996 0)
(0.720212 0.211715 0)
(0.704093 0.209008 0)
(0.687172 0.206218 0)
(0.670255 0.205568 0)
(0.654263 0.208325 0)
(0.639628 0.214212 0)
(0.625637 0.221092 0)
(0.611019 0.225893 0)
(0.595436 0.226969 0)
(0.579231 0.225044 0)
(0.56249 0.223865 0)
(0.54614 0.227116 0)
(0.531049 0.234381 0)
(0.515184 0.241134 0)
(0.497866 0.242961 0)
(0.479992 0.242336 0)
(0.462474 0.245856 0)
(0.445775 0.252125 0)
(0.428209 0.25584 0)
(0.410267 0.257808 0)
(0.392478 0.261404 0)
(0.374576 0.265481 0)
(0.356204 0.268308 0)
(0.337769 0.271413 0)
(0.319583 0.275659 0)
(0.301487 0.279953 0)
(0.283251 0.283785 0)
(0.264619 0.287433 0)
(0.245335 0.291112 0)
(0.225473 0.29547 0)
(0.205172 0.299934 0)
(0.184533 0.303523 0)
(0.163947 0.307031 0)
(0.143232 0.310864 0)
(0.122156 0.315542 0)
(0.100114 0.319472 0)
(0.0775998 0.322435 0)
(0.0553544 0.327306 0)
(0.0328668 0.330719 0)
(0.0114308 0.335905 0)
(3 -1.66834e-16 0)
(3 -3.87105e-16 0)
(3 -1.01967e-15 0)
(3 -9.98901e-16 0)
(3 -8.89372e-16 0)
(3 -8.25898e-16 0)
(3 -7.50716e-16 0)
(3 -7.46691e-16 0)
(3 -9.14621e-16 0)
(3 -1.1585e-15 0)
(3 -1.6401e-15 0)
(3 -1.81908e-15 0)
(3 -1.49011e-15 0)
(3 -7.86465e-16 0)
(3 -1.22641e-16 0)
(3 -3.54827e-17 0)
(3 -3.61669e-17 0)
(3 -9.46347e-17 0)
(3 -6.16864e-17 0)
(3 -6.47277e-17 0)
(3 -5.18381e-16 0)
(3 -5.34708e-16 0)
(3 3.88167e-16 0)
(3 4.71181e-16 0)
(3 3.90197e-16 0)
(3 1.70229e-16 0)
(3 -7.61449e-16 0)
(3 -1.2307e-15 0)
(3 -1.69423e-15 0)
(3 -1.82808e-15 0)
(3 -1.84041e-15 0)
(3 -1.86149e-15 0)
(3 -1.90467e-15 0)
(3 -1.21985e-15 0)
(3 -2.4129e-16 0)
(3 4.78337e-17 0)
(3 -5.30235e-17 0)
(3 -2.75565e-16 0)
(3 -9.33987e-16 0)
(3 -1.55311e-15 0)
(3 -1.71463e-15 0)
(3 -1.47863e-15 0)
(3 -1.88776e-15 0)
(3 -1.86392e-15 0)
(3 -8.77914e-16 0)
(3 2.65942e-16 0)
(3 2.98869e-16 0)
(3 2.58921e-16 0)
(3 -1.36955e-16 0)
(3.00597 0.00280175 0)
(1.21596 0.238578 0)
(0.794855 0.200296 0)
(0.779236 0.219797 0)
(0.764449 0.231059 0)
(0.749509 0.238099 0)
(0.735365 0.241856 0)
(0.721685 0.242073 0)
(0.707846 0.240325 0)
(0.69325 0.238121 0)
(0.6781 0.236973 0)
(0.663127 0.238431 0)
(0.649102 0.243149 0)
(0.636082 0.249912 0)
(0.622938 0.255777 0)
(0.608983 0.258456 0)
(0.594315 0.257927 0)
(0.57897 0.256751 0)
(0.563285 0.258783 0)
(0.54861 0.265485 0)
(0.53407 0.273771 0)
(0.517755 0.278571 0)
(0.50041 0.279075 0)
(0.48296 0.281744 0)
(0.466498 0.287989 0)
(0.449543 0.293343 0)
(0.431735 0.296442 0)
(0.413717 0.300523 0)
(0.395465 0.305465 0)
(0.376495 0.309283 0)
(0.357139 0.312816 0)
(0.33789 0.317445 0)
(0.318741 0.322503 0)
(0.299429 0.327253 0)
(0.279725 0.331746 0)
(0.259421 0.336047 0)
(0.238673 0.34098 0)
(0.21761 0.346222 0)
(0.196163 0.350647 0)
(0.174644 0.354937 0)
(0.152825 0.359782 0)
(0.130541 0.365487 0)
(0.107168 0.370465 0)
(0.0831247 0.373686 0)
(0.0593347 0.378846 0)
(0.0352606 0.382352 0)
(0.0122493 0.387848 0)
(3 6.6744e-17 0)
(3 -5.37207e-16 0)
(3 -5.37136e-16 0)
(3 -5.50266e-16 0)
(3 -5.24736e-16 0)
(3 -6.79328e-16 0)
(3 -5.86518e-16 0)
(3 -3.79391e-16 0)
(3 -4.38501e-16 0)
(3 -7.34527e-16 0)
(3 -8.43133e-16 0)
(3 -9.7737e-16 0)
(3 -8.81076e-16 0)
(3 -7.30937e-16 0)
(3 -4.73162e-16 0)
(3 -4.083e-16 0)
(3 -3.69741e-16 0)
(3 -5.24331e-16 0)
(3 -3.24167e-16 0)
(3 3.51909e-16 0)
(3 5.7968e-16 0)
(3 1.02252e-15 0)
(3 1.25104e-15 0)
(3 1.34388e-15 0)
(3 1.55268e-15 0)
(3 1.36692e-15 0)
(3 9.66758e-16 0)
(3 5.14733e-16 0)
(3 3.43915e-16 0)
(3 1.29678e-16 0)
(3 -3.57702e-16 0)
(3 -3.03088e-16 0)
(3 -2.04037e-16 0)
(3 -2.69002e-16 0)
(3 -3.18162e-16 0)
(3 -5.33924e-16 0)
(3 -9.99334e-16 0)
(3 -1.24712e-15 0)
(3 -1.7544e-15 0)
(3 -2.41316e-15 0)
(3 -1.9646e-15 0)
(3 -1.59406e-15 0)
(3 -8.69655e-16 0)
(3 -4.02312e-16 0)
(3 -4.67556e-16 0)
(3 -9.18344e-16 0)
(3 -1.16872e-15 0)
(3 -2.78646e-16 0)
(3 -2.09786e-17 0)
(3.00004 4.70507e-06 0)
(1.62954 0.276731 0)
(0.817967 0.248907 0)
(0.7611 0.247201 0)
(0.747925 0.256764 0)
(0.734499 0.261931 0)
(0.722859 0.264557 0)
(0.711542 0.264798 0)
(0.699753 0.264328 0)
(0.686912 0.263875 0)
(0.673168 0.263855 0)
(0.659208 0.265311 0)
(0.645872 0.269354 0)
(0.633679 0.275796 0)
(0.621931 0.282404 0)
(0.609682 0.286603 0)
(0.596832 0.287792 0)
(0.583468 0.287609 0)
(0.569681 0.289276 0)
(0.556463 0.295224 0)
(0.544191 0.304332 0)
(0.530541 0.311996 0)
(0.515268 0.314882 0)
(0.499551 0.317489 0)
(0.484644 0.323483 0)
(0.469893 0.330358 0)
(0.45394 0.335325 0)
(0.437224 0.340324 0)
(0.420004 0.346316 0)
(0.401849 0.351663 0)
(0.382887 0.356252 0)
(0.363634 0.36156 0)
(0.344182 0.367617 0)
(0.324228 0.373716 0)
(0.303536 0.379687 0)
(0.28192 0.385305 0)
(0.259658 0.391445 0)
(0.236982 0.398156 0)
(0.213759 0.404195 0)
(0.190206 0.409902 0)
(0.166344 0.416332 0)
(0.141989 0.423296 0)
(0.117018 0.429553 0)
(0.091027 0.433339 0)
(0.0650549 0.438629 0)
(0.0387057 0.441927 0)
(0.0132348 0.44736 0)
(3 7.70504e-18 0)
(3 -9.24747e-18 0)
(3 5.04566e-17 0)
(3 -4.06024e-17 0)
(3 -3.56692e-16 0)
(3 -2.85341e-16 0)
(3 -9.43572e-17 0)
(3 3.84397e-16 0)
(3 3.21331e-16 0)
(3 -3.69711e-16 0)
(3 -2.43157e-16 0)
(3 4.08939e-17 0)
(3 -2.90314e-16 0)
(3 -9.41128e-16 0)
(3 -1.08021e-15 0)
(3 -8.60043e-16 0)
(3 -3.00436e-16 0)
(3 1.02121e-16 0)
(3 3.565e-16 0)
(3 4.69071e-16 0)
(3 6.73681e-16 0)
(3 6.97006e-16 0)
(3 6.43564e-16 0)
(3 5.41716e-16 0)
(3 3.3025e-16 0)
(3 1.40092e-16 0)
(3 1.96386e-16 0)
(3 2.03097e-16 0)
(3 8.90998e-18 0)
(3 -5.41799e-16 0)
(3 -7.49416e-16 0)
(3 -7.01056e-16 0)
(3 -5.71403e-16 0)
(3 -5.18635e-16 0)
(3 -4.83871e-16 0)
(3 -9.65055e-16 0)
(3 -1.64079e-15 0)
(3 -1.99624e-15 0)
(3 -2.04163e-15 0)
(3 -1.21724e-15 0)
(3 -5.28577e-16 0)
(3 -4.57826e-16 0)
(3 -5.74862e-16 0)
(3 -4.94563e-16 0)
(3 -1.66385e-15 0)
(3 -2.37137e-15 0)
(3 -2.29756e-15 0)
(3 -1.77771e-15 0)
(3 -1.79663e-15 0)
(3 8.38263e-09 0)
(2.3555 0.268531 0)
(0.903715 0.315219 0)
(0.778223 0.291072 0)
(0.763906 0.28499 0)
(0.748697 0.288251 0)
(0.735866 0.290894 0)
(0.723351 0.292125 0)
(0.710682 0.29274 0)
(0.69743 0.293511 0)
(0.683452 0.294443 0)
(0.669086 0.296017 0)
(0.655034 0.299377 0)
(0.641997 0.304964 0)
(0.629765 0.311279 0)
(0.617409 0.315963 0)
(0.604566 0.318146 0)
(0.591288 0.318705 0)
(0.577754 0.320071 0)
(0.564561 0.324945 0)
(0.552558 0.333772 0)
(0.540372 0.34331 0)
(0.526465 0.349086 0)
(0.511933 0.352644 0)
(0.498035 0.358555 0)
(0.485096 0.366641 0)
(0.47135 0.37409 0)
(0.456449 0.380904 0)
(0.44081 0.388487 0)
(0.424251 0.396067 0)
(0.40663 0.402862 0)
(0.388308 0.409818 0)
(0.369441 0.41756 0)
(0.349757 0.425643 0)
(0.329076 0.433885 0)
(0.307337 0.441642 0)
(0.284929 0.449443 0)
(0.262343 0.457786 0)
(0.239201 0.46534 0)
(0.215569 0.472225 0)
(0.191171 0.479695 0)
(0.165777 0.48801 0)
(0.138624 0.496747 0)
(0.109245 0.503669 0)
(0.078538 0.51097 0)
(0.0467787 0.514995 0)
(0.0156261 0.520078 0)
(3 2.04228e-17 0)
(3 1.81788e-16 0)
(3 3.36862e-16 0)
(3 5.97843e-16 0)
(3 6.04387e-16 0)
(3 7.20779e-16 0)
(3 6.73802e-16 0)
(3 4.96177e-16 0)
(3 1.59482e-16 0)
(3 -4.11035e-17 0)
(3 -6.36481e-17 0)
(3 1.2244e-16 0)
(3 2.32146e-16 0)
(3 2.87173e-16 0)
(3 3.1117e-16 0)
(3 2.94235e-16 0)
(3 4.54945e-16 0)
(3 5.83879e-16 0)
(3 7.94282e-16 0)
(3 1.02165e-15 0)
(3 1.14381e-15 0)
(3 6.34354e-16 0)
(3 -5.87807e-16 0)
(3 -1.23324e-15 0)
(3 -1.28353e-15 0)
(3 -1.02646e-15 0)
(3 -8.00134e-16 0)
(3 -6.26633e-16 0)
(3 -7.43577e-16 0)
(3 -8.99026e-16 0)
(3 -1.23209e-15 0)
(3 -1.56266e-15 0)
(3 -1.21288e-15 0)
(3 -4.78375e-16 0)
(3 3.60414e-16 0)
(3 4.44817e-16 0)
(3 -9.90142e-17 0)
(3 -1.27005e-16 0)
(3 3.09307e-17 0)
(3 2.42985e-16 0)
(3 4.32321e-16 0)
(3 1.85114e-16 0)
(3 -2.54728e-16 0)
(3 -8.22819e-16 0)
(3 -1.2483e-15 0)
(3 -1.03796e-15 0)
(3 -8.11594e-16 0)
(3 -6.64079e-16 0)
(3 -1.44319e-15 0)
(3 1.59511e-11 0)
(3.02964 0.0217738 0)
(1.17018 0.347013 0)
(0.826072 0.306792 0)
(0.805995 0.308053 0)
(0.791002 0.310387 0)
(0.775587 0.313009 0)
(0.760965 0.315416 0)
(0.7461 0.317253 0)
(0.731072 0.319242 0)
(0.715702 0.321702 0)
(0.699999 0.324652 0)
(0.684415 0.328637 0)
(0.669599 0.334177 0)
(0.655674 0.34051 0)
(0.641962 0.345893 0)
(0.627919 0.349376 0)
(0.613468 0.351144 0)
(0.598903 0.352595 0)
(0.58463 0.356288 0)
(0.571464 0.363948 0)
(0.559178 0.373928 0)
(0.545824 0.381926 0)
(0.531628 0.386698 0)
(0.517856 0.392305 0)
(0.505351 0.400608 0)
(0.49303 0.409944 0)
(0.479716 0.418919 0)
(0.46563 0.428296 0)
(0.450871 0.438167 0)
(0.435223 0.447806 0)
(0.41863 0.457218 0)
(0.401289 0.467271 0)
(0.38265 0.477857 0)
(0.363057 0.488992 0)
(0.341999 0.499974 0)
(0.319653 0.510729 0)
(0.296585 0.522172 0)
(0.27232 0.533378 0)
(0.246477 0.544382 0)
(0.218751 0.556386 0)
(0.188943 0.569747 0)
(0.157679 0.583895 0)
(0.125065 0.596444 0)
(0.0913779 0.606817 0)
(0.0559657 0.612457 0)
(0.0179279 0.615616 0)
(3 -2.75166e-17 0)
(3 -6.43777e-18 0)
(3 -1.12459e-16 0)
(3 -1.7909e-17 0)
(3 -4.30164e-17 0)
(3 -1.4886e-16 0)
(3 -3.12619e-16 0)
(3 -3.39746e-16 0)
(3 -3.19344e-16 0)
(3 -2.3248e-17 0)
(3 -4.39708e-17 0)
(3 -1.47566e-16 0)
(3 -3.88545e-17 0)
(3 5.04276e-16 0)
(3 5.77608e-16 0)
(3 6.20216e-16 0)
(3 5.1497e-16 0)
(3 3.28674e-16 0)
(3 2.98367e-16 0)
(3 3.7116e-16 0)
(3 5.23345e-16 0)
(3 2.7577e-16 0)
(3 -5.27844e-18 0)
(3 -1.13328e-16 0)
(3 1.18639e-16 0)
(3 4.32665e-16 0)
(3 3.57556e-16 0)
(3 4.36501e-18 0)
(3 -7.22318e-17 0)
(3 7.88616e-17 0)
(3 -3.85045e-16 0)
(3 -6.45736e-16 0)
(3 -7.44836e-16 0)
(3 -1.00917e-15 0)
(3 -1.08336e-16 0)
(3 8.45859e-16 0)
(3 1.05037e-15 0)
(3 1.12056e-15 0)
(3 1.65894e-15 0)
(3 1.53684e-15 0)
(3 6.93114e-16 0)
(3 9.78286e-16 0)
(3 1.11652e-15 0)
(3 8.73062e-16 0)
(3 6.00793e-16 0)
(3 6.06117e-16 0)
(3 3.36961e-16 0)
(3 6.26933e-16 0)
(3 -2.09476e-15 0)
(3 2.78973e-14 0)
(3.00078 2.98642e-05 0)
(1.73337 0.372031 0)
(0.848626 0.35165 0)
(0.802029 0.341754 0)
(0.794252 0.347752 0)
(0.783326 0.351968 0)
(0.772289 0.354862 0)
(0.759995 0.356549 0)
(0.746913 0.357881 0)
(0.73315 0.360016 0)
(0.718869 0.363308 0)
(0.704405 0.367711 0)
(0.690376 0.373141 0)
(0.677164 0.379117 0)
(0.664404 0.384565 0)
(0.651449 0.388604 0)
(0.637944 0.391044 0)
(0.623954 0.392481 0)
(0.609795 0.394906 0)
(0.596119 0.400646 0)
(0.583598 0.409744 0)
(0.570879 0.418847 0)
(0.55706 0.424892 0)
(0.543093 0.430261 0)
(0.530004 0.438074 0)
(0.517905 0.448273 0)
(0.505467 0.459107 0)
(0.492587 0.470268 0)
(0.479356 0.482078 0)
(0.465604 0.494364 0)
(0.45107 0.506664 0)
(0.435656 0.519446 0)
(0.419322 0.53303 0)
(0.401863 0.547689 0)
(0.38306 0.563015 0)
(0.362763 0.578521 0)
(0.341566 0.594936 0)
(0.319307 0.611796 0)
(0.295659 0.628907 0)
(0.270277 0.646434 0)
(0.243252 0.664355 0)
(0.213896 0.680695 0)
(0.182182 0.695963 0)
(0.144921 0.714673 0)
(0.0983392 0.737657 0)
(0.0377514 0.757877 0)
(3 8.17407e-17 0)
(3 1.65319e-16 0)
(3 1.23831e-16 0)
(3 -2.7704e-16 0)
(3 -6.22978e-16 0)