/*--------------------------------*- C++ -*----------------------------------*\
  =========                 |
  \\      /  F ield         | OpenFOAM: The Open Source CFD Toolbox
   \\    /   O peration     | Website:  https://openfoam.org
    \\  /    A nd           | Version:  7
     \\/     M anipulation  |
\*---------------------------------------------------------------------------*/
FoamFile
{
    version     2.0;
    format      ascii;
    class       volVectorField;
    location    "9.9";
    object      U;
}
// * * * * * * * * * * * * * * * * * * * * * * * * * * * * * * * * * * * * * //

dimensions      [0 1 -1 0 0 0 0];

internalField   nonuniform List<vector> 
19968
(
(3 -2.23283e-17 0)
(3 1.28668e-19 0)
(3 1.75607e-16 0)
(3 1.63046e-16 0)
(3 5.05739e-16 0)
(3 7.06458e-16 0)
(3 1.35173e-15 0)
(3 1.39851e-15 0)
(3 1.61197e-15 0)
(3 1.94082e-15 0)
(3 2.26187e-15 0)
(3 2.15259e-15 0)
(3 1.24689e-15 0)
(3 1.29474e-15 0)
(3 1.43885e-15 0)
(3 1.05025e-15 0)
(3 9.16105e-16 0)
(3 8.80682e-16 0)
(3 8.77241e-16 0)
(3 8.31999e-16 0)
(3 4.26445e-16 0)
(3 7.70997e-16 0)
(3 1.0226e-15 0)
(3 7.2806e-16 0)
(3 3.61205e-17 0)
(3 -7.19332e-16 0)
(3 -1.35085e-15 0)
(3 -7.05051e-16 0)
(3 -3.37846e-16 0)
(3 7.05167e-16 0)
(3 1.13995e-15 0)
(3 9.45454e-16 0)
(3 -4.2885e-17 0)
(3 -7.17162e-16 0)
(3 -7.65057e-16 0)
(3 -6.45871e-16 0)
(3 -5.89402e-18 0)
(3 -1.62166e-16 0)
(3 -5.45647e-16 0)
(3 -3.20614e-16 0)
(3 -1.79583e-16 0)
(3 1.13155e-16 0)
(3 7.93953e-17 0)
(3 -1.12909e-16 0)
(3 3.01719e-16 0)
(3 -2.04129e-16 0)
(3 -7.4753e-16 0)
(3 -8.72646e-16 0)
(2.80171 0.00175019 0)
(0.967419 0.00399295 0)
(0.76133 0.00549763 0)
(0.746106 0.010285 0)
(0.727335 0.00986951 0)
(0.711895 0.0084399 0)
(0.697776 0.00769756 0)
(0.683722 0.00796894 0)
(0.668656 0.00894869 0)
(0.652392 0.0100349 0)
(0.63568 0.0102673 0)
(0.619945 0.00929613 0)
(0.605685 0.00829685 0)
(0.591796 0.00836289 0)
(0.57689 0.00922504 0)
(0.560783 0.00991596 0)
(0.544625 0.009887 0)
(0.529256 0.00965268 0)
(0.514394 0.00968118 0)
(0.499449 0.00979295 0)
(0.484143 0.00986463 0)
(0.468391 0.00999761 0)
(0.452278 0.0101871 0)
(0.436099 0.0103209 0)
(0.420092 0.0103849 0)
(0.404207 0.0104601 0)
(0.388228 0.0105782 0)
(0.372038 0.0107041 0)
(0.355709 0.0108131 0)
(0.339371 0.0109154 0)
(0.323055 0.0110267 0)
(0.306656 0.0111442 0)
(0.290026 0.0112572 0)
(0.273087 0.0113681 0)
(0.255892 0.0114886 0)
(0.238599 0.0116241 0)
(0.221339 0.0117737 0)
(0.204087 0.011938 0)
(0.186662 0.0121179 0)
(0.168847 0.0123146 0)
(0.150495 0.0125336 0)
(0.131576 0.012783 0)
(0.112173 0.0130738 0)
(0.0924254 0.0134011 0)
(0.0724358 0.0137753 0)
(0.0521736 0.0142031 0)
(0.0315708 0.0144942 0)
(0.0108915 0.014944 0)
(3 5.82559e-17 0)
(3 5.29173e-16 0)
(3 5.30203e-16 0)
(3 4.06768e-16 0)
(3 1.3798e-15 0)
(3 2.02359e-15 0)
(3 2.68422e-15 0)
(3 2.95853e-15 0)
(3 3.19492e-15 0)
(3 3.12147e-15 0)
(3 3.70883e-15 0)
(3 3.69551e-15 0)
(3 3.32262e-15 0)
(3 2.60696e-15 0)
(3 2.7806e-15 0)
(3 1.11431e-15 0)
(3 5.89585e-16 0)
(3 -3.61394e-17 0)
(3 -3.43185e-17 0)
(3 -3.51279e-16 0)
(3 -1.00933e-15 0)
(3 -1.33679e-15 0)
(3 -1.8177e-15 0)
(3 -1.62425e-15 0)
(3 -1.27879e-15 0)
(3 -1.3192e-15 0)
(3 -1.55908e-15 0)
(3 -1.22853e-15 0)
(3 -1.30691e-16 0)
(3 5.47331e-16 0)
(3 7.17138e-16 0)
(3 8.62061e-16 0)
(3 7.62833e-17 0)
(3 -9.08167e-16 0)
(3 -9.71769e-16 0)
(3 -5.58297e-16 0)
(3 2.53178e-16 0)
(3 -5.32803e-16 0)
(3 -7.72652e-16 0)
(3 -3.15369e-16 0)
(3 -2.05785e-16 0)
(3 -8.51448e-16 0)
(3 -2.86161e-15 0)
(3 -2.79434e-15 0)
(3 -1.76208e-15 0)
(3 -1.42305e-15 0)
(3 -1.88468e-15 0)
(3 -1.8616e-15 0)
(2.81639 0.0110141 0)
(0.972045 0.0231413 0)
(0.756671 0.0222423 0)
(0.740806 0.0296791 0)
(0.723479 0.0289592 0)
(0.708489 0.0257843 0)
(0.694003 0.023527 0)
(0.67949 0.0238836 0)
(0.664405 0.02647 0)
(0.648552 0.0294546 0)
(0.632405 0.0303082 0)
(0.617138 0.0281951 0)
(0.602771 0.0257227 0)
(0.588408 0.025692 0)
(0.573368 0.027915 0)
(0.557329 0.0297619 0)
(0.541351 0.0297343 0)
(0.52609 0.0292497 0)
(0.511194 0.0294903 0)
(0.496121 0.0298878 0)
(0.48065 0.0300805 0)
(0.464768 0.0304161 0)
(0.448591 0.030956 0)
(0.432378 0.0313947 0)
(0.416319 0.031651 0)
(0.400356 0.0319036 0)
(0.384301 0.0322337 0)
(0.368061 0.0325699 0)
(0.351702 0.0328679 0)
(0.335338 0.0331607 0)
(0.318994 0.0334881 0)
(0.302573 0.0338403 0)
(0.285936 0.0341891 0)
(0.269008 0.0345458 0)
(0.251831 0.0349454 0)
(0.234548 0.0353931 0)
(0.217284 0.0358692 0)
(0.20003 0.0363639 0)
(0.182641 0.0368852 0)
(0.164925 0.0374529 0)
(0.146744 0.0381026 0)
(0.128068 0.0388656 0)
(0.108973 0.039767 0)
(0.0895942 0.0407779 0)
(0.0700479 0.0419034 0)
(0.0503346 0.0431687 0)
(0.0303696 0.0440049 0)
(0.0104647 0.0452543 0)
(3 -4.56243e-17 0)
(3 1.33342e-16 0)
(3 3.51185e-16 0)
(3 3.30971e-16 0)
(3 4.354e-16 0)
(3 7.98193e-16 0)
(3 9.58246e-16 0)
(3 1.56912e-15 0)
(3 6.27578e-16 0)
(3 -2.57058e-16 0)
(3 -4.35423e-16 0)
(3 -4.29854e-16 0)
(3 1.85601e-16 0)
(3 6.41236e-16 0)
(3 3.71986e-16 0)
(3 1.69118e-16 0)
(3 1.94516e-16 0)
(3 4.19707e-16 0)
(3 6.84771e-16 0)
(3 4.18356e-16 0)
(3 3.2817e-16 0)
(3 1.42435e-16 0)
(3 -1.58212e-15 0)
(3 -2.68065e-15 0)
(3 -3.20073e-15 0)
(3 -2.66612e-15 0)
(3 -1.92935e-15 0)
(3 -1.63256e-15 0)
(3 -1.43512e-15 0)
(3 -1.43022e-15 0)
(3 -5.47169e-16 0)
(3 6.03402e-17 0)
(3 7.43127e-16 0)
(3 5.67525e-16 0)
(3 -2.25638e-16 0)
(3 -9.10624e-16 0)
(3 -9.00592e-16 0)
(3 -7.78645e-17 0)
(3 3.2723e-16 0)
(3 -1.48142e-16 0)
(3 -4.6266e-16 0)
(3 -9.84791e-16 0)
(3 -1.75817e-15 0)
(3 -2.76775e-15 0)
(3 -3.39991e-15 0)
(3 -3.14917e-15 0)
(3 -1.60645e-15 0)
(3 -1.37813e-15 0)
(2.85072 0.0178726 0)
(0.988469 0.043081 0)
(0.759262 0.0408896 0)
(0.743254 0.0488904 0)
(0.726965 0.047949 0)
(0.712218 0.0442934 0)
(0.697063 0.0415069 0)
(0.681507 0.0419803 0)
(0.665794 0.0455812 0)
(0.649847 0.049669 0)
(0.633856 0.0507557 0)
(0.618796 0.0479679 0)
(0.604185 0.0447048 0)
(0.589226 0.0447952 0)
(0.573934 0.0481117 0)
(0.557808 0.0507824 0)
(0.541854 0.0505981 0)
(0.526575 0.0499143 0)
(0.511575 0.0504909 0)
(0.49633 0.0513099 0)
(0.48063 0.0517111 0)
(0.464521 0.0522448 0)
(0.448158 0.0530802 0)
(0.431767 0.0537944 0)
(0.4155 0.0542602 0)
(0.399302 0.0547191 0)
(0.383024 0.0552717 0)
(0.3666 0.055814 0)
(0.350084 0.0562914 0)
(0.333575 0.0567607 0)
(0.317096 0.0572866 0)
(0.300562 0.0578591 0)
(0.283854 0.0584341 0)
(0.266898 0.0590242 0)
(0.249714 0.0596816 0)
(0.232414 0.0604139 0)
(0.21511 0.0611908 0)
(0.19782 0.0619979 0)
(0.180432 0.0628469 0)
(0.16278 0.0637638 0)
(0.144722 0.0647995 0)
(0.126208 0.0659991 0)
(0.107293 0.0674011 0)
(0.0881034 0.0689638 0)
(0.0687685 0.070685 0)
(0.0493368 0.072638 0)
(0.0296945 0.0738812 0)
(0.0102352 0.075786 0)
(3 -6.41161e-18 0)
(3 -7.66823e-18 0)
(3 4.25857e-16 0)
(3 3.93304e-16 0)
(3 1.81449e-16 0)
(3 2.40607e-16 0)
(3 3.00911e-16 0)
(3 3.82721e-16 0)
(3 -1.4078e-15 0)
(3 -1.90637e-15 0)
(3 -1.95923e-15 0)
(3 -1.91803e-15 0)
(3 -1.08085e-15 0)
(3 -6.45871e-16 0)
(3 -1.45037e-16 0)
(3 1.78835e-16 0)
(3 1.07774e-15 0)
(3 9.99674e-16 0)
(3 9.5692e-16 0)
(3 1.20261e-15 0)
(3 1.24673e-15 0)
(3 9.28785e-16 0)
(3 6.06148e-16 0)
(3 -1.58747e-17 0)
(3 -4.43162e-16 0)
(3 -1.64979e-15 0)
(3 -2.11669e-15 0)
(3 -2.90405e-15 0)
(3 -3.54327e-15 0)
(3 -2.47421e-15 0)
(3 -1.50743e-15 0)
(3 -2.06482e-16 0)
(3 -2.4511e-16 0)
(3 -2.94962e-16 0)
(3 1.93647e-16 0)
(3 -3.64229e-16 0)
(3 -5.12871e-16 0)
(3 4.03728e-16 0)
(3 1.66003e-15 0)
(3 6.91079e-16 0)
(3 -1.30179e-15 0)
(3 -1.70243e-15 0)
(3 -1.3951e-15 0)
(3 -1.99621e-15 0)
(3 -2.70092e-15 0)
(3 -1.72414e-15 0)
(3 -8.72087e-16 0)
(3 -7.98397e-16 0)
(2.89379 0.02152 0)
(1.0116 0.0638976 0)
(0.760133 0.0609049 0)
(0.743902 0.0669307 0)
(0.729265 0.0661534 0)
(0.715011 0.0633225 0)
(0.699789 0.0609678 0)
(0.683811 0.0615949 0)
(0.667924 0.0655886 0)
(0.65228 0.0700408 0)
(0.636789 0.0712046 0)
(0.622049 0.0683891 0)
(0.607306 0.0650374 0)
(0.591924 0.0654024 0)
(0.576444 0.0695069 0)
(0.560257 0.072703 0)
(0.54431 0.0723011 0)
(0.528967 0.0714941 0)
(0.513876 0.0725043 0)
(0.498524 0.0738935 0)
(0.482663 0.0746342 0)
(0.466386 0.0753961 0)
(0.44988 0.0764993 0)
(0.433339 0.0775028 0)
(0.416863 0.0782512 0)
(0.400393 0.0789925 0)
(0.383818 0.0798106 0)
(0.367088 0.0805787 0)
(0.350251 0.0812465 0)
(0.333389 0.0818909 0)
(0.31653 0.0825968 0)
(0.299612 0.0833586 0)
(0.282539 0.0841187 0)
(0.265247 0.0848871 0)
(0.24775 0.0857324 0)
(0.230143 0.086673 0)
(0.212554 0.0876778 0)
(0.195049 0.0887363 0)
(0.177583 0.08987 0)
(0.160027 0.0911125 0)
(0.142235 0.0925268 0)
(0.124108 0.0941675 0)
(0.105632 0.0960808 0)
(0.0868632 0.0982166 0)
(0.0678857 0.100538 0)
(0.0487704 0.103182 0)
(0.0293452 0.104817 0)
(0.0101601 0.107336 0)
(3 1.30938e-16 0)
(3 4.22632e-16 0)
(3 2.33598e-17 0)
(3 -5.34359e-17 0)
(3 -3.19473e-16 0)
(3 -2.15722e-16 0)
(3 -3.10766e-16 0)
(3 -8.31494e-16 0)
(3 -1.21084e-15 0)
(3 -1.07754e-15 0)
(3 -5.48016e-16 0)
(3 -4.57604e-16 0)
(3 -7.04476e-16 0)
(3 -7.33655e-16 0)
(3 -3.98406e-16 0)
(3 4.53936e-17 0)
(3 1.80791e-16 0)
(3 3.275e-17 0)
(3 -1.43602e-16 0)
(3 -9.42956e-18 0)
(3 -1.14938e-16 0)
(3 -4.91277e-16 0)
(3 -3.83488e-16 0)
(3 -3.6255e-16 0)
(3 -5.63448e-16 0)
(3 -4.30303e-16 0)
(3 4.50529e-17 0)
(3 -1.05426e-15 0)
(3 -1.35467e-15 0)
(3 -1.55548e-15 0)
(3 -1.60595e-15 0)
(3 -7.46287e-16 0)
(3 -6.27706e-16 0)
(3 -6.07817e-16 0)
(3 3.55334e-16 0)
(3 6.14884e-16 0)
(3 -2.47228e-16 0)
(3 -9.79693e-16 0)
(3 -1.40881e-16 0)
(3 -1.02692e-15 0)
(3 -2.22298e-15 0)
(3 -2.27444e-15 0)
(3 -1.77654e-15 0)
(3 -1.14455e-15 0)
(3 -7.04176e-16 0)
(3 -1.10548e-15 0)
(3 -1.14763e-15 0)
(3 -1.55707e-15 0)
(2.94123 0.0297357 0)
(1.04011 0.0926747 0)
(0.762287 0.0829185 0)
(0.747497 0.0836466 0)
(0.734482 0.0839031 0)
(0.720582 0.0828128 0)
(0.705219 0.0818453 0)
(0.688713 0.0828664 0)
(0.672331 0.0866243 0)
(0.656753 0.0905965 0)
(0.641829 0.0916628 0)
(0.627562 0.0893498 0)
(0.613012 0.0865413 0)
(0.597663 0.0874145 0)
(0.582343 0.0921156 0)
(0.566356 0.0956049 0)
(0.550593 0.0950072 0)
(0.535309 0.0940999 0)
(0.520291 0.0955319 0)
(0.505057 0.0975967 0)
(0.489251 0.0988551 0)
(0.47298 0.0999442 0)
(0.456462 0.10133 0)
(0.439877 0.102668 0)
(0.423271 0.103826 0)
(0.406571 0.10501 0)
(0.389688 0.106242 0)
(0.372594 0.107376 0)
(0.355333 0.10838 0)
(0.337975 0.109338 0)
(0.320549 0.110342 0)
(0.303009 0.111389 0)
(0.285269 0.112406 0)
(0.267263 0.113384 0)
(0.248993 0.114394 0)
(0.230548 0.115458 0)
(0.212081 0.116541 0)
(0.193734 0.117639 0)
(0.175555 0.118796 0)
(0.15749 0.120077 0)
(0.139428 0.121588 0)
(0.121267 0.123424 0)
(0.10296 0.125657 0)
(0.0845133 0.128261 0)
(0.0659523 0.131124 0)
(0.0473603 0.134467 0)
(0.0284443 0.136522 0)
(0.00988139 0.139651 0)
(3 5.17111e-17 0)
(3 7.74232e-17 0)
(3 4.09639e-16 0)
(3 2.71936e-16 0)
(3 1.48097e-17 0)
(3 -3.10991e-16 0)
(3 -3.79942e-16 0)
(3 -1.58678e-16 0)
(3 4.78913e-16 0)
(3 6.21102e-16 0)
(3 5.81415e-16 0)
(3 8.31399e-16 0)
(3 5.53697e-16 0)
(3 -5.00577e-17 0)
(3 -8.46827e-16 0)
(3 -7.31073e-16 0)
(3 -5.94408e-16 0)
(3 -2.89598e-16 0)
(3 -5.92891e-16 0)
(3 -1.22416e-15 0)
(3 -2.00217e-15 0)
(3 -2.46152e-15 0)
(3 -2.41889e-15 0)
(3 -1.91323e-15 0)
(3 -1.0123e-15 0)
(3 4.05651e-16 0)
(3 9.10221e-16 0)
(3 5.18351e-16 0)
(3 7.42356e-17 0)
(3 -5.7631e-16 0)
(3 -5.69737e-16 0)
(3 -5.27063e-16 0)
(3 -1.38621e-16 0)
(3 8.14157e-17 0)
(3 4.12153e-16 0)
(3 2.82261e-16 0)
(3 -4.12587e-16 0)
(3 -1.8338e-15 0)
(3 -2.52498e-15 0)
(3 -2.64473e-15 0)
(3 -1.91865e-15 0)
(3 -1.50645e-15 0)
(3 -1.20333e-15 0)
(3 -5.17518e-16 0)
(3 2.91717e-16 0)
(3 4.20684e-16 0)
(3 -5.39623e-16 0)
(3 -1.25392e-15 0)
(2.99468 0.00133557 0)
(1.10147 0.11677 0)
(0.774957 0.0991634 0)
(0.758767 0.0979774 0)
(0.746172 0.10061 0)
(0.73187 0.102269 0)
(0.716168 0.103875 0)
(0.699068 0.105809 0)
(0.682041 0.10867 0)
(0.66623 0.110988 0)
(0.651717 0.111237 0)
(0.637932 0.109484 0)
(0.623726 0.107672 0)
(0.608677 0.109314 0)
(0.593648 0.114505 0)
(0.577903 0.118242 0)
(0.562304 0.117527 0)
(0.547107 0.116439 0)
(0.532243 0.118081 0)
(0.517306 0.120778 0)
(0.501761 0.122725 0)
(0.485686 0.124302 0)
(0.469321 0.12601 0)
(0.452864 0.127705 0)
(0.436325 0.12938 0)
(0.419601 0.13118 0)
(0.402605 0.133012 0)
(0.385329 0.134706 0)
(0.367831 0.136258 0)
(0.350177 0.137757 0)
(0.332394 0.139285 0)
(0.314435 0.140845 0)
(0.296197 0.142356 0)
(0.277595 0.143781 0)
(0.258601 0.14518 0)
(0.239281 0.146572 0)
(0.219799 0.147915 0)
(0.200348 0.149192 0)
(0.181055 0.150444 0)
(0.161937 0.151745 0)
(0.142936 0.15323 0)
(0.123975 0.15505 0)
(0.10501 0.157318 0)
(0.0860361 0.160095 0)
(0.0670336 0.163206 0)
(0.0481086 0.167032 0)
(0.0288497 0.169381 0)
(0.0100383 0.172992 0)
(3 -1.36206e-16 0)
(3 -2.02224e-16 0)
(3 -1.30687e-16 0)
(3 -1.1466e-16 0)
(3 9.77153e-17 0)
(3 1.67266e-16 0)
(3 2.52579e-16 0)
(3 4.41961e-16 0)
(3 5.86116e-16 0)
(3 2.43329e-16 0)
(3 4.92792e-16 0)
(3 7.7071e-16 0)
(3 1.3133e-15 0)
(3 1.31738e-15 0)
(3 2.613e-16 0)
(3 -4.07162e-16 0)
(3 -1.04004e-15 0)
(3 -1.23157e-15 0)
(3 -1.40216e-15 0)
(3 -1.85617e-15 0)
(3 -2.4752e-15 0)
(3 -2.24805e-15 0)
(3 -2.0123e-15 0)
(3 -1.03613e-15 0)
(3 2.69727e-16 0)
(3 8.21842e-16 0)
(3 9.95687e-16 0)
(3 3.26514e-16 0)
(3 -7.91806e-17 0)
(3 -3.33169e-16 0)
(3 -4.7006e-16 0)
(3 -9.26447e-16 0)
(3 -1.18335e-15 0)
(3 -1.32726e-15 0)
(3 -1.19969e-15 0)
(3 -4.36487e-16 0)
(3 4.83801e-16 0)
(3 4.40101e-16 0)
(3 -7.19985e-16 0)
(3 -1.92051e-15 0)
(3 -2.43442e-15 0)
(3 -2.07156e-15 0)
(3 -1.35401e-15 0)
(3 -2.83249e-16 0)
(3 4.01482e-16 0)
(3 1.32187e-15 0)
(3 1.31855e-15 0)
(3 -1.23049e-16 0)
(3.00004 0.000104365 0)
(1.21337 0.138323 0)
(0.777513 0.120408 0)
(0.755623 0.11689 0)
(0.742719 0.121523 0)
(0.7274 0.125302 0)
(0.711381 0.129358 0)
(0.694201 0.132084 0)
(0.677382 0.133417 0)
(0.66198 0.133515 0)
(0.647966 0.132762 0)
(0.634542 0.131566 0)
(0.620638 0.130983 0)
(0.606015 0.133643 0)
(0.591466 0.139405 0)
(0.57622 0.143536 0)
(0.561042 0.142857 0)
(0.546203 0.141511 0)
(0.5317 0.143151 0)
(0.51731 0.146399 0)
(0.502348 0.149184 0)
(0.486804 0.151466 0)
(0.47091 0.153595 0)
(0.454903 0.155648 0)
(0.438806 0.157863 0)
(0.422482 0.160356 0)
(0.405816 0.162876 0)
(0.388817 0.165202 0)
(0.371575 0.16737 0)
(0.354171 0.169473 0)
(0.336636 0.171565 0)
(0.318912 0.173656 0)
(0.300871 0.175666 0)
(0.282386 0.177536 0)
(0.263392 0.179307 0)
(0.243929 0.180999 0)
(0.224154 0.182566 0)
(0.204286 0.183983 0)
(0.184502 0.185289 0)
(0.16487 0.18656 0)
(0.145371 0.187946 0)
(0.125954 0.189649 0)
(0.106591 0.191795 0)
(0.0872864 0.19458 0)
(0.0679811 0.19774 0)
(0.0488167 0.201909 0)
(0.0292672 0.204471 0)
(0.0101982 0.208477 0)
(3 -1.48686e-16 0)
(3 -2.60948e-16 0)
(3 -5.61455e-16 0)
(3 -6.13206e-16 0)
(3 -4.97691e-16 0)
(3 -1.24361e-16 0)
(3 -1.44305e-16 0)
(3 8.0994e-17 0)
(3 4.8193e-16 0)
(3 5.06773e-16 0)
(3 7.04142e-16 0)
(3 5.54225e-16 0)
(3 6.77071e-16 0)
(3 1.43395e-15 0)
(3 1.98837e-15 0)
(3 1.1189e-15 0)
(3 -1.60253e-16 0)
(3 -9.79122e-17 0)
(3 8.14121e-16 0)
(3 1.34754e-15 0)
(3 6.70382e-16 0)
(3 5.14492e-16 0)
(3 5.76607e-16 0)
(3 7.22489e-16 0)
(3 7.21547e-16 0)
(3 3.37424e-16 0)
(3 8.44043e-16 0)
(3 1.1576e-15 0)
(3 1.01651e-15 0)
(3 4.42167e-16 0)
(3 -1.70859e-16 0)
(3 -6.57625e-16 0)
(3 -8.84565e-16 0)
(3 -7.91495e-16 0)
(3 -5.40987e-16 0)
(3 -3.11848e-16 0)
(3 1.2815e-16 0)
(3 4.61501e-16 0)
(3 4.74731e-16 0)
(3 1.95125e-16 0)
(3 1.8154e-16 0)
(3 1.19754e-15 0)
(3 1.39714e-15 0)
(3 1.40908e-15 0)
(3 1.00623e-15 0)
(3 8.55292e-16 0)
(3 8.63353e-16 0)
(3 4.78074e-16 0)
(3 1.8348e-07 0)
(1.41497 0.169302 0)
(0.790596 0.147986 0)
(0.755867 0.136956 0)
(0.742562 0.143269 0)
(0.726211 0.149454 0)
(0.709915 0.155376 0)
(0.692913 0.157987 0)
(0.676722 0.157432 0)
(0.661809 0.15537 0)
(0.647956 0.153603 0)
(0.634588 0.152951 0)
(0.620875 0.15365 0)
(0.606717 0.157306 0)
(0.592809 0.163545 0)
(0.578315 0.167966 0)
(0.563788 0.167492 0)
(0.549512 0.16585 0)
(0.53548 0.167155 0)
(0.521765 0.170639 0)
(0.507616 0.174243 0)
(0.492858 0.177439 0)
(0.47766 0.180141 0)
(0.462311 0.182521 0)
(0.446885 0.185216 0)
(0.431204 0.188452 0)
(0.415062 0.191802 0)
(0.398448 0.194939 0)
(0.381498 0.197934 0)
(0.36433 0.20089 0)
(0.346979 0.203822 0)
(0.32938 0.206731 0)
(0.311379 0.209553 0)
(0.292808 0.21221 0)
(0.27357 0.21471 0)
(0.253691 0.217062 0)
(0.233332 0.219207 0)
(0.212735 0.221099 0)
(0.192108 0.222755 0)
(0.17156 0.224234 0)
(0.151116 0.225676 0)
(0.130768 0.227332 0)
(0.11052 0.229314 0)
(0.0904115 0.232011 0)
(0.0703576 0.235036 0)
(0.0505336 0.239398 0)
(0.0303064 0.242086 0)
(0.0105421 0.24639 0)
(3 9.71433e-17 0)
(3 1.11873e-16 0)
(3 2.56962e-16 0)
(3 3.87153e-16 0)
(3 2.96408e-16 0)
(3 3.75461e-16 0)
(3 4.10937e-16 0)
(3 4.78581e-16 0)
(3 1.15659e-15 0)
(3 1.74184e-15 0)
(3 1.97192e-15 0)
(3 1.66135e-15 0)
(3 9.76792e-16 0)
(3 6.39654e-16 0)
(3 7.65064e-16 0)
(3 7.73739e-16 0)
(3 1.31203e-15 0)
(3 1.28185e-15 0)
(3 1.2799e-15 0)
(3 1.20712e-15 0)
(3 1.1731e-15 0)
(3 1.1466e-15 0)
(3 1.06253e-15 0)
(3 9.91955e-16 0)
(3 7.87358e-16 0)
(3 6.847e-17 0)
(3 -6.0972e-17 0)
(3 3.73887e-16 0)
(3 2.1824e-16 0)
(3 -3.92883e-17 0)
(3 -6.16731e-16 0)
(3 -1.27165e-15 0)
(3 -1.22992e-15 0)
(3 -1.02014e-15 0)
(3 -7.4897e-16 0)
(3 -8.62044e-16 0)
(3 -9.95343e-16 0)
(3 -9.44501e-17 0)
(3 3.64638e-16 0)
(3 1.34727e-15 0)
(3 2.52468e-15 0)
(3 2.0829e-15 0)
(3 1.1074e-15 0)
(3 6.01697e-16 0)
(3 5.50422e-16 0)
(3 -6.0505e-16 0)
(3 -1.15606e-15 0)
(3 -9.85039e-16 0)
(3 4.91853e-10 0)
(1.72963 0.190762 0)
(0.819087 0.178306 0)
(0.762541 0.161344 0)
(0.747342 0.168656 0)
(0.729742 0.176281 0)
(0.712851 0.182475 0)
(0.695885 0.184019 0)
(0.679852 0.182076 0)
(0.664598 0.178798 0)
(0.649924 0.176397 0)
(0.635681 0.176099 0)
(0.621411 0.1777 0)
(0.607082 0.181915 0)
(0.593327 0.188293 0)
(0.579286 0.193002 0)
(0.565018 0.193152 0)
(0.550827 0.191505 0)
(0.536697 0.192255 0)
(0.523003 0.19558 0)
(0.509208 0.199848 0)
(0.494984 0.204111 0)
(0.480347 0.207597 0)
(0.465619 0.210303 0)
(0.45098 0.213393 0)
(0.436238 0.217407 0)
(0.421022 0.221759 0)
(0.405213 0.2259 0)
(0.388984 0.229898 0)
(0.372498 0.233901 0)
(0.355795 0.237887 0)
(0.338792 0.241826 0)
(0.321308 0.245672 0)
(0.303134 0.249336 0)
(0.284132 0.252789 0)
(0.264303 0.256024 0)
(0.2438 0.258976 0)
(0.22285 0.26158 0)
(0.201658 0.263823 0)
(0.180341 0.265736 0)
(0.158964 0.267417 0)
(0.137581 0.269161 0)
(0.116247 0.271017 0)
(0.0950688 0.27359 0)
(0.0739575 0.276332 0)
(0.0531381 0.280749 0)
(0.0319014 0.283474 0)
(0.0110602 0.288006 0)
(3 5.10687e-17 0)
(3 -5.68459e-17 0)
(3 -2.36745e-16 0)
(3 -2.05287e-16 0)
(3 -2.0067e-16 0)
(3 -7.7262e-16 0)
(3 -7.62721e-16 0)
(3 -6.93026e-16 0)
(3 -5.38365e-16 0)
(3 -1.18702e-16 0)
(3 -1.6265e-16 0)
(3 -3.08135e-16 0)
(3 -6.41292e-16 0)
(3 -9.71401e-16 0)
(3 -1.2638e-15 0)
(3 -8.87443e-16 0)
(3 -7.47431e-16 0)
(3 -8.00952e-16 0)
(3 -1.29877e-15 0)
(3 -1.71072e-15 0)
(3 -8.43666e-16 0)
(3 -4.56902e-16 0)
(3 -3.85167e-16 0)
(3 -5.46697e-16 0)
(3 -7.06589e-16 0)
(3 -1.07978e-15 0)
(3 -1.14483e-15 0)
(3 -1.40392e-15 0)
(3 -1.40912e-15 0)
(3 -1.13099e-15 0)
(3 -7.35536e-16 0)
(3 -8.63387e-16 0)
(3 -1.16921e-15 0)
(3 -9.79357e-16 0)
(3 -7.02178e-16 0)
(3 -1.65509e-16 0)
(3 2.23551e-16 0)
(3 3.39929e-16 0)
(3 1.47927e-15 0)
(3 2.84174e-15 0)
(3 2.82946e-15 0)
(3 1.30055e-15 0)
(3 6.19293e-17 0)
(3 -5.2095e-16 0)
(3 -1.07056e-15 0)
(3 -9.93513e-16 0)
(3 -1.01572e-15 0)
(3 -6.0037e-16 0)
(3 1.13515e-12 0)
(2.15332 0.196731 0)
(0.859978 0.216537 0)
(0.759128 0.190326 0)
(0.743517 0.197609 0)
(0.728793 0.205297 0)
(0.7151 0.211138 0)
(0.700721 0.212104 0)
(0.686024 0.209962 0)
(0.670958 0.206578 0)
(0.655758 0.203916 0)
(0.640731 0.203558 0)
(0.625913 0.205277 0)
(0.611358 0.209123 0)
(0.597653 0.214918 0)
(0.584008 0.219863 0)
(0.569754 0.221166 0)
(0.555159 0.220076 0)
(0.54037 0.220173 0)
(0.525923 0.222642 0)
(0.511744 0.226858 0)
(0.497502 0.231856 0)
(0.482937 0.236088 0)
(0.468309 0.238915 0)
(0.453939 0.241946 0)
(0.439738 0.246385 0)
(0.425224 0.251632 0)
(0.410092 0.256778 0)
(0.394536 0.261782 0)
(0.378802 0.266894 0)
(0.362934 0.272093 0)
(0.346809 0.277295 0)
(0.330196 0.282453 0)
(0.312815 0.287483 0)
(0.294454 0.292324 0)
(0.275061 0.29694 0)
(0.254749 0.301245 0)
(0.233717 0.305126 0)
(0.212154 0.308501 0)
(0.190196 0.311332 0)
(0.167954 0.313646 0)
(0.145551 0.315782 0)
(0.123082 0.317707 0)
(0.100712 0.320245 0)
(0.0783562 0.322629 0)
(0.0563061 0.326976 0)
(0.0338337 0.329638 0)
(0.0116655 0.334359 0)
(3 -8.2885e-17 0)
(3 -3.03156e-16 0)
(3 -4.0852e-16 0)
(3 -5.8923e-16 0)
(3 -5.26712e-16 0)
(3 -9.77006e-16 0)
(3 -1.05965e-15 0)
(3 -1.11942e-15 0)
(3 -1.34444e-15 0)
(3 -1.17193e-15 0)
(3 -8.97996e-16 0)
(3 -1.0031e-15 0)
(3 -1.20133e-15 0)
(3 -1.29352e-15 0)
(3 -1.19383e-15 0)
(3 -1.14697e-15 0)
(3 -1.32562e-15 0)
(3 -1.34044e-15 0)
(3 -1.92871e-15 0)
(3 -2.15338e-15 0)
(3 -2.21079e-15 0)
(3 -1.18951e-15 0)
(3 -8.87857e-16 0)
(3 -9.42519e-16 0)
(3 -1.24177e-15 0)
(3 -1.77067e-15 0)
(3 -2.46058e-15 0)
(3 -2.5806e-15 0)
(3 -2.26173e-15 0)
(3 -1.75757e-15 0)
(3 -1.23933e-15 0)
(3 5.2545e-17 0)
(3 4.55971e-16 0)
(3 3.21457e-16 0)
(3 -4.0583e-16 0)
(3 -5.90178e-16 0)
(3 -8.21996e-16 0)
(3 -1.02103e-15 0)
(3 -4.84021e-16 0)
(3 3.84429e-16 0)
(3 5.28487e-16 0)
(3 6.36887e-16 0)
(3 1.06053e-15 0)
(3 1.10787e-15 0)
(3 2.94013e-16 0)
(3 6.62972e-19 0)
(3 -1.57814e-16 0)
(3 -3.85807e-16 0)
(3 1.52523e-15 0)
(2.68726 0.173077 0)
(0.962222 0.257635 0)
(0.783109 0.226123 0)
(0.770424 0.22071 0)
(0.753939 0.22574 0)
(0.740109 0.231435 0)
(0.725526 0.23439 0)
(0.710396 0.234561 0)
(0.694737 0.233232 0)
(0.678757 0.231742 0)
(0.662736 0.231858 0)
(0.646906 0.233638 0)
(0.631363 0.236739 0)
(0.616664 0.241725 0)
(0.602556 0.247378 0)
(0.587847 0.250937 0)
(0.572433 0.25166 0)
(0.556627 0.251758 0)
(0.54089 0.253188 0)
(0.525543 0.256837 0)
(0.510574 0.262322 0)
(0.495449 0.267547 0)
(0.480099 0.270781 0)
(0.464963 0.273549 0)
(0.450169 0.277968 0)
(0.435325 0.28378 0)
(0.419898 0.28971 0)
(0.404019 0.295439 0)
(0.388069 0.30135 0)
(0.372184 0.307554 0)
(0.356233 0.313929 0)
(0.339978 0.320409 0)
(0.323125 0.326911 0)
(0.305428 0.333342 0)
(0.286776 0.339615 0)
(0.267191 0.345604 0)
(0.246751 0.351137 0)
(0.225516 0.356064 0)
(0.203524 0.360302 0)
(0.180832 0.363824 0)
(0.157587 0.367025 0)
(0.133882 0.369732 0)
(0.109949 0.372869 0)
(0.0857132 0.375303 0)
(0.0616288 0.379743 0)
(0.0370352 0.38237 0)
(0.0127131 0.387363 0)
(3 -6.79213e-17 0)
(3 5.91687e-17 0)
(3 1.16953e-16 0)
(3 1.00617e-16 0)
(3 2.03379e-17 0)
(3 7.09503e-17 0)
(3 2.343e-16 0)
(3 7.59058e-17 0)
(3 -1.81995e-16 0)
(3 -4.90847e-16 0)
(3 -5.64183e-16 0)
(3 -9.1645e-16 0)
(3 -1.32675e-15 0)
(3 -1.30166e-15 0)
(3 -1.13366e-15 0)
(3 -1.35763e-16 0)
(3 7.9144e-17 0)
(3 2.45185e-16 0)
(3 4.13533e-17 0)
(3 -9.0563e-17 0)
(3 -1.46274e-15 0)
(3 -1.48802e-15 0)
(3 -1.47433e-15 0)
(3 -1.59311e-15 0)
(3 -1.70494e-15 0)
(3 -1.68549e-15 0)
(3 -1.61433e-15 0)
(3 -1.67518e-15 0)
(3 -1.56384e-15 0)
(3 -1.18171e-15 0)
(3 -1.04065e-15 0)
(3 -4.60198e-16 0)
(3 3.05768e-16 0)
(3 1.636e-17 0)
(3 -6.64445e-16 0)
(3 -8.99445e-16 0)
(3 -1.32638e-15 0)
(3 -1.68638e-15 0)
(3 -2.06541e-15 0)
(3 -1.99954e-15 0)
(3 -1.63756e-15 0)
(3 -6.09725e-16 0)
(3 1.08299e-15 0)
(3 2.1403e-15 0)
(3 1.39211e-15 0)
(3 -2.69875e-17 0)
(3 -1.20719e-15 0)
(3 -1.67981e-15 0)
(3 -8.22558e-16 0)
(3.02045 0.0100813 0)
(1.14793 0.27628 0)
(0.807899 0.231202 0)
(0.794423 0.245523 0)
(0.778616 0.253153 0)
(0.763815 0.258929 0)
(0.749338 0.262096 0)
(0.735052 0.262712 0)
(0.720649 0.262109 0)
(0.705851 0.261255 0)
(0.690628 0.261568 0)
(0.675144 0.263154 0)
(0.659513 0.265177 0)
(0.644322 0.268679 0)
(0.630091 0.274117 0)
(0.6159 0.279425 0)
(0.600801 0.282592 0)
(0.584886 0.283688 0)
(0.568614 0.284257 0)
(0.552395 0.286784 0)
(0.536708 0.292316 0)
(0.521183 0.298916 0)
(0.505171 0.303603 0)
(0.489092 0.306628 0)
(0.473314 0.310942 0)
(0.457713 0.317236 0)
(0.441617 0.324104 0)
(0.424918 0.330684 0)
(0.408066 0.337357 0)
(0.39135 0.344482 0)
(0.374698 0.351981 0)
(0.357891 0.359755 0)
(0.340657 0.367745 0)
(0.322734 0.375881 0)
(0.303936 0.384092 0)
(0.284155 0.392271 0)
(0.263298 0.40022 0)
(0.241308 0.407689 0)
(0.218232 0.414487 0)
(0.194216 0.420361 0)
(0.169602 0.42561 0)
(0.144515 0.42985 0)
(0.119169 0.434197 0)
(0.0930931 0.437106 0)
(0.0668987 0.44156 0)
(0.0401307 0.443947 0)
(0.0136049 0.448992 0)
(3 1.07666e-17 0)
(3 9.12169e-18 0)
(3 -1.08743e-16 0)
(3 -2.83563e-17 0)
(3 -9.64624e-17 0)
(3 1.31027e-16 0)
(3 -7.29266e-17 0)
(3 -3.53431e-16 0)
(3 -7.16527e-16 0)
(3 -8.93232e-16 0)
(3 -1.30857e-15 0)
(3 -1.2327e-15 0)
(3 -1.31286e-15 0)
(3 -1.27177e-15 0)
(3 -9.79178e-16 0)
(3 -3.9163e-16 0)
(3 1.55731e-16 0)
(3 5.95027e-16 0)
(3 8.95328e-16 0)
(3 8.94623e-16 0)
(3 8.26757e-16 0)
(3 2.71454e-16 0)
(3 -4.18785e-16 0)
(3 -1.05946e-15 0)
(3 -1.35053e-15 0)
(3 -1.17943e-15 0)
(3 -7.77179e-16 0)
(3 -4.27577e-16 0)
(3 -1.99274e-16 0)
(3 3.98912e-17 0)
(3 8.08901e-16 0)
(3 6.36831e-16 0)
(3 1.41933e-16 0)
(3 -1.04212e-17 0)
(3 4.27117e-17 0)
(3 2.99355e-16 0)
(3 7.3495e-16 0)
(3 8.44857e-16 0)
(3 3.95349e-16 0)
(3 -9.36634e-17 0)
(3 -6.23485e-16 0)
(3 -1.0089e-15 0)
(3 -1.13818e-15 0)
(3 -7.97654e-16 0)
(3 -1.97378e-16 0)
(3 -1.48353e-15 0)
(3 -2.23939e-15 0)
(3 -2.35022e-15 0)
(3 -1.79357e-15 0)
(3.00029 9.95436e-06 0)
(1.55975 0.308509 0)
(0.82464 0.273554 0)
(0.7799 0.279379 0)
(0.766033 0.286554 0)
(0.752706 0.289946 0)
(0.74047 0.291806 0)
(0.728431 0.292433 0)
(0.716213 0.292935 0)
(0.703496 0.293792 0)
(0.690233 0.29573 0)
(0.676478 0.298504 0)
(0.662222 0.300678 0)
(0.647963 0.302949 0)
(0.634481 0.307302 0)
(0.621853 0.313406 0)
(0.608828 0.318883 0)
(0.594795 0.321877 0)
(0.580051 0.322672 0)
(0.564896 0.324191 0)
(0.550046 0.329056 0)
(0.535855 0.336418 0)
(0.521189 0.342752 0)
(0.505987 0.346464 0)
(0.490774 0.350411 0)
(0.475787 0.356591 0)
(0.46049 0.36404 0)
(0.444386 0.37135 0)
(0.427777 0.378572 0)
(0.411087 0.386298 0)
(0.394404 0.39465 0)
(0.377589 0.403515 0)
(0.360472 0.412841 0)
(0.342885 0.422576 0)
(0.324678 0.43269 0)
(0.305674 0.443091 0)
(0.28564 0.453553 0)
(0.264367 0.46366 0)
(0.241892 0.473147 0)
(0.218219 0.481536 0)
(0.19358 0.48914 0)
(0.167731 0.495756 0)
(0.140656 0.503001 0)
(0.111267 0.509099 0)
(0.0802961 0.51557 0)
(0.0480034 0.518741 0)
(0.0160351 0.523639 0)
(3 3.50392e-17 0)
(3 -5.20741e-17 0)
(3 -1.92251e-16 0)
(3 -3.84376e-16 0)
(3 -4.45068e-16 0)
(3 -5.01149e-16 0)
(3 -5.94899e-16 0)
(3 -6.67285e-16 0)
(3 -8.34431e-16 0)
(3 -9.09316e-16 0)
(3 -9.84479e-16 0)
(3 -3.48207e-16 0)
(3 -1.34091e-17 0)
(3 1.53091e-17 0)
(3 4.39794e-16 0)
(3 1.11567e-15 0)
(3 1.15361e-15 0)
(3 8.41127e-16 0)
(3 9.60909e-16 0)
(3 9.51488e-16 0)
(3 1.08534e-15 0)
(3 1.11377e-15 0)
(3 7.59821e-16 0)
(3 5.17798e-16 0)
(3 5.93209e-16 0)
(3 9.84753e-16 0)
(3 1.00937e-15 0)
(3 6.30374e-16 0)
(3 4.46195e-16 0)
(3 4.51526e-16 0)
(3 2.76317e-16 0)
(3 -2.73497e-16 0)
(3 -7.83163e-16 0)
(3 -7.35623e-16 0)
(3 -5.48724e-16 0)
(3 -2.62615e-16 0)
(3 -4.93186e-17 0)
(3 3.66987e-17 0)
(3 -2.35087e-16 0)
(3 -1.06664e-15 0)
(3 -1.87999e-15 0)
(3 -2.26459e-15 0)
(3 -3.26278e-15 0)
(3 -3.92441e-15 0)
(3 -4.34697e-15 0)
(3 -3.08426e-15 0)
(3 -2.35216e-15 0)
(3 -2.54959e-15 0)
(3 -2.38741e-15 0)
(3 1.72339e-08 0)
(2.38345 0.280478 0)
(0.91841 0.334433 0)
(0.792484 0.317323 0)
(0.780036 0.312848 0)
(0.765981 0.315265 0)
(0.753549 0.317496 0)
(0.741279 0.319072 0)
(0.729119 0.320661 0)
(0.716859 0.322769 0)
(0.704401 0.325898 0)
(0.691634 0.329747 0)
(0.67821 0.332617 0)
(0.664388 0.334312 0)
(0.650867 0.337375 0)
(0.638437 0.343083 0)
(0.62659 0.34991 0)
(0.613976 0.355081 0)
(0.600412 0.357259 0)
(0.58617 0.358559 0)
(0.571816 0.362678 0)
(0.558359 0.370346 0)
(0.545003 0.378672 0)
(0.530772 0.38444 0)
(0.516126 0.388944 0)
(0.501597 0.395246 0)
(0.487111 0.403495 0)
(0.471914 0.412145 0)
(0.455877 0.420601 0)
(0.439369 0.429377 0)
(0.422707 0.438927 0)
(0.405879 0.449209 0)
(0.388763 0.460175 0)
(0.371329 0.471765 0)
(0.353465 0.484051 0)
(0.334783 0.496981 0)
(0.314864 0.510547 0)
(0.293203 0.524399 0)
(0.269634 0.538366 0)
(0.244011 0.552013 0)
(0.216568 0.565404 0)
(0.187297 0.578206 0)
(0.156752 0.591301 0)
(0.124953 0.603259 0)
(0.0916367 0.612907 0)
(0.0562848 0.61789 0)
(0.0180149 0.62091 0)
(3 7.29688e-17 0)
(3 1.16378e-16 0)
(3 2.14118e-16 0)
(3 1.55149e-16 0)
(3 1.10503e-16 0)
(3 3.53632e-17 0)
(3 1.78643e-16 0)
(3 2.52001e-16 0)
(3 5.26408e-16 0)
(3 4.45684e-16 0)
(3 1.23505e-16 0)
(3 1.71181e-17 0)
(3 4.97068e-16 0)
(3 1.40306e-15 0)
(3 1.74156e-15 0)
(3 1.01378e-15 0)
(3 8.38756e-16 0)
(3 3.62169e-16 0)
(3 3.15115e-16 0)
(3 4.52106e-16 0)
(3 -1.35393e-16 0)
(3 -6.98381e-16 0)
(3 -6.9472e-16 0)
(3 -3.08716e-16 0)
(3 4.32746e-17 0)
(3 7.17373e-16 0)
(3 -1.78366e-16 0)
(3 -5.00853e-16 0)
(3 -5.96989e-16 0)
(3 -8.00386e-16 0)
(3 -1.08286e-15 0)
(3 -1.46358e-15 0)
(3 -1.26122e-15 0)
(3 -1.52556e-15 0)
(3 -1.58771e-15 0)
(3 -1.75281e-15 0)
(3 -1.7688e-15 0)
(3 -1.55346e-15 0)
(3 -1.53706e-15 0)
(3 -1.89641e-15 0)
(3 -2.3689e-15 0)
(3 -2.39914e-15 0)
(3 -1.45981e-15 0)
(3 -8.60312e-16 0)
(3 -3.06367e-16 0)
(3 6.117e-16 0)
(3 1.38089e-15 0)
(3 1.55921e-15 0)
(3 1.98327e-15 0)
(3 -6.53001e-09 0)
(3.02845 0.0176679 0)
(1.25162 0.37707 0)
(0.842071 0.322631 0)
(0.823646 0.334591 0)
(0.806258 0.338481 0)
(0.791238 0.340773 0)
(0.776837 0.342729 0)
(0.76296 0.344808 0)
(0.749479 0.347668 0)
(0.736225 0.351815 0)
(0.723047 0.35708 0)
(0.709401 0.361852 0)
(0.695137 0.364637 0)
(0.680908 0.366983 0)
(0.667553 0.37152 0)
(0.655435 0.37845 0)
(0.643357 0.385578 0)
(0.630265 0.39049 0)
(0.616313 0.393131 0)
(0.602041 0.396896 0)
(0.588513 0.404228 0)
(0.575899 0.413838 0)
(0.562709 0.422238 0)
(0.548751 0.428337 0)
(0.534658 0.434864 0)
(0.520892 0.443635 0)
(0.506917 0.453673 0)
(0.492056 0.463849 0)
(0.476368 0.474173 0)
(0.46011 0.485262 0)
(0.443655 0.497323 0)
(0.426967 0.51034 0)
(0.410098 0.524344 0)
(0.393051 0.539367 0)
(0.37546 0.555523 0)
(0.356843 0.573027 0)
(0.336734 0.591769 0)
(0.314943 0.611579 0)
(0.291489 0.631966 0)
(0.266498 0.652133 0)
(0.239992 0.670917 0)
(0.211398 0.687174 0)
(0.180629 0.702892 0)
(0.143895 0.721419 0)
(0.0977105 0.743649 0)
(0.0373432 0.762978 0)
(3 3.64321e-17 0)
(3 2.29284e-16 0)
(3 4.67644e-16 0)
(3 8.50346e-16 0)