/*--------------------------------*- C++ -*----------------------------------*\
  =========                 |
  \\      /  F ield         | OpenFOAM: The Open Source CFD Toolbox
   \\    /   O peration     | Website:  https://openfoam.org
    \\  /    A nd           | Version:  7
     \\/     M anipulation  |
\*---------------------------------------------------------------------------*/
FoamFile
{
    version     2.0;
    format      ascii;
    class       volScalarField;
    location    "41";
    object      p;
}
// * * * * * * * * * * * * * * * * * * * * * * * * * * * * * * * * * * * * * //

dimensions      [0 2 -2 0 0 0 0];

internalField   nonuniform List<scalar> 
16000
(
8.3406344e-06
-0.00013205353
-0.00044356788
-0.00084593251
-0.0012641476
-0.0016528199
-0.001981078
-0.0022300829
-0.0023891971
-0.0024527146
-0.002417695
-0.0022826817
-0.0020471051
-0.001711209
-0.0012763509
-0.00074553876
-0.00012408317
0.00057974884
0.0013541783
0.0021835494
0.0030482348
0.0039248787
0.0047870027
0.0056060163
0.0063525888
0.0069983328
0.0075176915
0.0078898807
0.0081007173
0.0081441623
0.0080234375
0.0077516248
0.0073517208
0.0068561933
0.0063059257
0.0057484254
0.0052386903
0.0048329804
0.0045930272
0.004554227
0.00015284231
7.9171043e-06
-0.00024217344
-0.00055105692
-0.00087325568
-0.0011744588
-0.0014304207
-0.0016249622
-0.0017477241
-0.0017922643
-0.0017546415
-0.0016324915
-0.0014245597
-0.001130615
-0.00075164913
-0.00029026841
0.0002488185
0.00085830295
0.0015278521
0.0022438304
0.0029892326
0.0037440277
0.0044855118
0.0051893371
0.005830658
0.0063855734
0.0068327456
0.0071550625
0.007341194
0.0073868799
0.0072958036
0.0070799712
0.0067595703
0.0063623479
0.0059225359
0.0054791802
0.0050734545
0.0047487345
0.0045501476
0.0045146435
0.00047148014
0.00025359663
-2.2404148e-06
-0.00028128843
-0.00056153417
-0.00081847393
-0.001034318
-0.0011970076
-0.001298337
-0.0013327874
-0.0012966403
-0.0011873627
-0.0010033136
-0.00074373729
-0.00040898027
-8.6023879e-07
0.00047688429
0.0010181372
0.0016140089
0.0022525708
0.0029188189
0.0035947947
0.0042601319
0.0048928326
0.0054703646
0.0059710059
0.0063753485
0.0066678453
0.0068382588
0.0068828563
0.0068051932
0.0066163743
0.0063347505
0.0059851014
0.0055973908
0.0052050838
0.0048428264
0.0045448774
0.0043475179
0.0042801969
0.00089309375
0.00056183505
0.00026114213
-2.4642735e-05
-0.00029524505
-0.00053439485
-0.00073052749
-0.00087642751
-0.00096702258
-0.00099861797
-0.00096840137
-0.00087408665
-0.00071380194
-0.00048620803
-0.00019079524
0.00017169517
0.00059878293
0.0010857564
0.001625239
0.0022068852
0.0028172694
0.0034399449
0.0040559455
0.0046444752
0.005183968
0.005653413
0.0060338532
0.0063099305
0.0064713314
0.0065139765
0.0064407966
0.0062619605
0.0059944799
0.0056612182
0.0052894234
0.0049089538
0.0045504984
0.0042440424
0.0040161436
0.0038805732
0.0013438903
0.00088422337
0.00052106866
0.00021075393
-6.695392e-05
-0.00030301167
-0.00049174471
-0.00063089083
-0.00071879221
-0.0007538828
-0.00073450032
-0.0006587439
-0.00052453112
-0.00032985211
-7.317299e-05
0.00024605577
0.00062683277
0.0010660347
0.0015579018
0.0020936452
0.002661242
0.0032454673
0.0038282481
0.0043893377
0.0049073417
0.0053610525
0.0057309995
0.0060010734
0.0061600504
0.0062028383
0.006131287
0.0059544285
0.0056880588
0.0053536456
0.0049766449
0.0045845582
0.0042056173
0.0038670233
0.0035843504
0.0033607501
0.0017707364
0.00117761
0.00074294836
0.00039690013
0.00010033859
-0.00014395081
-0.00033566089
-0.00047724512
-0.00057039384
-0.00061568182
-0.00061261898
-0.00055967964
-0.00045450816
-0.00029430658
-7.6355984e-05
0.0002013681
0.00053952593
0.00093673646
0.0013889506
0.001888942
0.0024259866
0.0029858107
0.0035508428
0.0041008528
0.0046139537
0.0050679599
0.0054420156
0.0057183516
0.0058839688
0.0059320333
0.0058627857
0.0056838335
0.005409751
0.0050609613
0.0046619098
0.0042389532
0.0038194607
0.0034299162
0.003077343
0.0027500505
0.0021284284
0.0014034523
0.00089386692
0.00050563681
0.00018236644
-7.8612508e-05
-0.00028181581
-0.00043402507
-0.0005400238
-0.00060235636
-0.00062157281
-0.00059639851
-0.00052406893
-0.00040084156
-0.00022263638
1.4232131e-05
0.00031226755
0.00067199195
0.0010911886
0.0015642539
0.0020817385
0.002630176
0.0031922228
0.0037472495
0.0042723224
0.0047435945
0.0051380246
0.0054352882
0.0056196795
0.0056817519
0.0056194429
0.0054385037
0.0051521624
0.0047800162
0.0043461259
0.0038767947
0.0034000746
0.0029435843
0.002507336
0.0020657794
0.0023784027
0.0015269976
0.00094292532
0.00050975166
0.00015516645
-0.00012838924
-0.00034978333
-0.0005197017
-0.00064567708
-0.00073194567
-0.00077986493
-0.00078820612
-0.00075360316
-0.00067117639
-0.0005352845
-0.00034037257
-8.1882979e-05
0.00024281284
0.00063351483
0.0010863928
0.0015933664
0.0021417922
0.0027144449
0.003290037
0.0038441582
0.0043507011
0.0047836825
0.0051193274
0.0053382217
0.005427274
0.0053811856
0.0052031678
0.0049047782
0.0045048654
0.0040275989
0.0035001723
0.0029527419
0.0024158474
0.0018844424
0.0013219086
0.0024868515
0.0015165549
0.00086082382
0.00038236379
-5.9392976e-06
-0.00031616244
-0.00056114393
-0.00075507015
-0.00090785883
-0.0010251189
-0.001108735
-0.0011572757
-0.0011665457
-0.0011303092
-0.0010411397
-0.00089137407
-0.00067414334
-0.00038444005
-2.0169708e-05
0.00041687847
0.00092022946
0.0014782495
0.0020739059
0.0026851808
0.0032859074
0.0038472027
0.0043393944
0.0047343048
0.005007698
0.0051416252
0.005126352
0.0049615356
0.0046564214
0.0042289599
0.0037037865
0.0031098186
0.0024806275
0.0018513831
0.00121347
0.00051998129
0.0024233013
0.0013430438
0.00061999919
9.7429105e-05
-0.00032560587
-0.00066545251
-0.00093861331
-0.0011624124
-0.0013488075
-0.0015044649
-0.0016315116
-0.0017280553
-0.0017888317
-0.0018060148
-0.0017701498
-0.0016711957
-0.0014996628
-0.0012478106
-0.00091085649
-0.00048813649
1.5882894e-05
0.00059098601
0.001220583
0.0018820685
0.0025474325
0.003184632
0.0037595882
0.0042386869
0.0045915811
0.0047940107
0.0048303013
0.0046951679
0.0043944904
0.0039448107
0.0033713564
0.0027054878
0.0019854476
0.0012526996
0.00049620427
-0.00034093172
0.0021599754
0.00097982822
0.00019485266
-0.00036970257
-0.00082764908
-0.0011994254
-0.0015049471
-0.0017643573
-0.0019913459
-0.0021933538
-0.0023724911
-0.002526166
-0.0026478171
-0.0027277954
-0.0027543621
-0.0027148013
-0.0025966428
-0.0023889771
-0.0020838193
-0.0016774729
-0.0011717931
-0.00057489974
9.7508065e-05
0.00082263375
0.0015707726
0.0023065302
0.0029908062
0.0035834785
0.0040466063
0.0043478448
0.0044636776
0.004382038
0.0041038952
0.0036433901
0.0030260916
0.0022863229
0.0014682233
0.00062124494
-0.00026726031
-0.0012644287
0.0016716789
0.00040279009
-0.00043796949
-0.0010418063
-0.0015343905
-0.001940102
-0.0022820538
-0.0025829292
-0.002857889
-0.0031149131
-0.0033558829
-0.0035773115
-0.0037711471
-0.0039257063
-0.0040267147
-0.0040584651
-0.0040051033
-0.0038520396
-0.0035874557
-0.0032038431
-0.0026994961
-0.0020800335
-0.0013589826
-0.00055875134
0.0002896683
0.0011475947
0.001970479
0.0027106771
0.0033210402
0.0037590244
0.0039908648
0.0039952798
0.0037661598
0.0033136417
0.0026628606
0.0018512863
0.00093010488
-4.1445676e-05
-0.0010770549
-0.0022548999
0.00093601318
-0.0004094057
-0.0012991997
-0.00193927
-0.0024660085
-0.0029075823
-0.0032901059
-0.0036385597
-0.0039693647
-0.0042908638
-0.0046045591
-0.0049059336
-0.0051853067
-0.0054287942
-0.005619361
-0.0057379947
-0.0057650261
-0.0056816115
-0.0054713639
-0.0051220815
-0.0046275198
-0.0039893208
-0.003217986
-0.002334398
-0.0013700001
-0.00036634286
0.00062643759
0.0015523359
0.0023533658
0.0029743952
0.0033684579
0.0035018778
0.0033584671
0.0029419474
0.0022755428
0.0013995599
0.00037321166
-0.00073255278
-0.0019320298
-0.0033156578
-6.6199521e-05
-0.0014749152
-0.0024065002
-0.0030795454
-0.0036398703
-0.004119249
-0.0045466103
-0.0049490226
-0.0053440118
-0.0057401759
-0.0061385615
-0.0065335606
-0.006913798
-0.007263087
-0.0075614603
-0.0077863194
-0.0079137526
-0.0079200542
-0.0077834556
-0.0074860424
-0.0070158205
-0.006368907
-0.0055513608
-0.0045810028
-0.0034884099
-0.0023170911
-0.0011224702
3.0572055e-05
0.0010717204
0.0019307268
0.0025439789
0.0028613923
0.0028526449
0.0025115332
0.0018569214
0.00093093451
-0.00019851347
-0.0014467324
-0.0028282296
-0.004447206
-0.0013503779
-0.0028082542
-0.0037739875
-0.0044765991
-0.005069873
-0.0055889752
-0.0060654659
-0.0065283266
-0.0069960931
-0.0074775882
-0.0079734123
-0.0084768942
-0.0089749841
-0.0094491758
-0.0098764752
-0.010230483
-0.010482663
-0.010603855
-0.010566066
-0.010344553
-0.0099201648
-0.0092819001
-0.0084294377
-0.0073755788
-0.0061481509
-0.0047910646
-0.0033640903
-0.0019409515
-0.00060542403
0.00055466149
0.0014552566
0.0020250388
0.0022142723
0.0020018897
0.0013985851
0.00044624069
-0.00077837885
-0.0021747822
-0.0037572676
-0.0056454416
-0.0029276158
-0.0044198392
-0.0054117859
-0.0061404092
-0.0067658368
-0.0073263768
-0.0078560462
-0.0083856055
-0.0089345731
-0.0095120512
-0.010118299
-0.010745712
-0.011379686
-0.011999478
-0.012579071
-0.013088146
-0.01349325
-0.013759247
-0.013851118
-0.013736163
-0.013386593
-0.012782482
-0.011914955
-0.010789395
-0.0094283964
-0.007873958
-0.0061884049
-0.0044534335
-0.0027667317
-0.0012358058
3.098061e-05
0.00093556274
0.001402231
0.0013883925
0.00089093032
-5.2114932e-05
-0.0013558713
-0.0029021252
-0.004704498
-0.0068996509
-0.0048041683
-0.0063156
-0.0073256686
-0.0080765618
-0.0087330014
-0.0093361607
-0.0099223614
-0.010524065
-0.011161826
-0.011845173
-0.012574236
-0.013340711
-0.014128677
-0.014915348
-0.015671804
-0.016363809
-0.016952824
-0.017397342
-0.017654635
-0.017683006
-0.017444572
-0.0169086
-0.016055318
-0.014879944
-0.013396803
-0.011642883
-0.0096802695
-0.0075966351
-0.0055029438
-0.0035276408
-0.0018069472
-0.00047153932
0.00036915893
0.00064245151
0.00032345691
-0.00055939795
-0.0019153456
-0.0036070071
-0.0056468654
-0.0081901623
-0.0069810691
-0.0084967394
-0.0095168571
-0.010286011
-0.010971687
-0.011617633
-0.01226237
-0.012940066
-0.013672462
-0.014469776
-0.015332325
-0.016251457
-0.01721028
-0.018184283
-0.019141889
-0.020045083
-0.020850226
-0.021509215
-0.021971115
-0.022184375
-0.022099733
-0.021673852
-0.020873669
-0.01968133
-0.018099415
-0.016156092
-0.013909366
-0.011449546
-0.0088987379
-0.006406191
-0.0041385566
-0.0022647974
-0.00093663378
-0.00026736836
-0.00031433226
-0.0010673876
-0.0024343496
-0.0042582893
-0.0065503012
-0.0094855079
-0.0094539481
-0.010959712
-0.011982049
-0.012765072
-0.013477183
-0.014164431
-0.01486751
-0.01562242
-0.016452379
-0.017368682
-0.018372273
-0.019454615
-0.020598302
-0.021777522
-0.022958412
-0.024099456
-0.025152067
-0.026061524
-0.026768418
-0.027210765
-0.027326926
-0.027059418
-0.026359702
-0.025193968
-0.02354938
-0.021440952
-0.018917822
-0.016068186
-0.013021354
-0.0099452618
-0.0070377987
-0.0045108411
-0.0025671376
-0.0013727237
-0.0010310312
-0.0015625398
-0.0028814026
-0.0048126994
-0.0073665275
-0.010738939
-0.01221312
-0.013696497
-0.01471375
-0.015505709
-0.016239931
-0.016964539
-0.01772251
-0.018551984
-0.019478124
-0.020513852
-0.021661322
-0.02291268
-0.024250557
-0.025648352
-0.027070384
-0.028472037
-0.029800085
-0.030993369
-0.031984006
-0.032699327
-0.033064702
-0.033007379
-0.032461517
-0.031375029
-0.029715905
-0.027481498
-0.024706644
-0.021471419
-0.017906489
-0.014193926
-0.010561072
-0.0072651975
-0.0045678496
-0.0027007669
-0.0018299627
-0.0020231436
-0.0032130026
-0.0052113657
-0.0080291195
-0.011884151
-0.01524401
-0.01669522
-0.017700968
-0.018496199
-0.019246055
-0.020000634
-0.020805527
-0.021701586
-0.022716637
-0.023865988
-0.02515373
-0.026573376
-0.028108212
-0.029731418
-0.031406011
-0.033084752
-0.034710199
-0.036215113
-0.03752339
-0.038551759
-0.039212423
-0.039416771
-0.039080403
-0.038131549
-0.036515429
-0.034207568
-0.03122289
-0.027626485
-0.023542816
-0.019160946
-0.01473262
-0.010559661
-0.0069677406
-0.0042667437
-0.0027038367
-0.0024150983
-0.0033696083
-0.0053754515
-0.0084486662
-0.01283007
-0.01852797
-0.019941227
-0.020930356
-0.021722192
-0.022478268
-0.023250781
-0.024088625
-0.025036321
-0.026125419
-0.027374631
-0.028790894
-0.030369865
-0.032096149
-0.033943277
-0.035873471
-0.037837347
-0.039773717
-0.041609721
-0.043261486
-0.044635526
-0.045631134
-0.046144064
-0.046071694
-0.045318259
-0.043807181
-0.041487928
-0.03835011
-0.034436744
-0.029857398
-0.024798641
-0.019528041
-0.014386816
-0.0097659808
-0.0060635516
-0.0036269679
-0.0026859226
-0.0032703241
-0.0052006892
-0.0085068685
-0.013454574
-0.022043562
-0.023418656
-0.024387851
-0.025168245
-0.025917176
-0.026689471
-0.027538561
-0.028514167
-0.029653085
-0.03097878
-0.032502139
-0.034221826
-0.036124417
-0.038184303
-0.040363335
-0.042610371
-0.044860886
-0.047036864
-0.049047197
-0.050788789
-0.052148647
-0.053007238
-0.053243299
-0.052739965
-0.051394853
-0.049129669
-0.045904738
-0.04173459
-0.03670498
-0.030988968
-0.024858163
-0.01868323
-0.01291617
-0.0080483571
-0.004544788
-0.0027566452
-0.0028060145
-0.0045506142
-0.008049403
-0.013597031
-0.025768374
-0.027112661
-0.028060931
-0.028819846
-0.029542949
-0.030288921
-0.031117804
-0.032086852
-0.033240251
-0.034607968
-0.03620615
-0.03803737
-0.040090762
-0.042341938
-0.044752614
-0.047270088
-0.049826732
-0.052339718
-0.05471119
-0.056829106
-0.058569022
-0.059797067
-0.060374348
-0.060163036
-0.059035856
-0.056885569
-0.05364067
-0.049282273
-0.04386434
-0.037535143
-0.030556412
-0.023313884
-0.016309767
-0.010127083
-0.0053607844
-0.0025113943
-0.0018306024
-0.0032482785
-0.006877359
-0.013049514
-0.029681509
-0.031012452
-0.031941618
-0.032665986
-0.033337327
-0.034020554
-0.034785643
-0.035700828
-0.036820615
-0.038183684
-0.039812927
-0.041715701
-0.043884114
-0.046295103
-0.048910186
-0.051674994
-0.054518746
-0.057353886
-0.060076104
-0.062564963
-0.064685392
-0.066290296
-0.067224527
-0.067330573
-0.0664573
-0.064469391
-0.061262754
-0.056782272
-0.051044183
-0.044161971
-0.036373166
-0.028061146
-0.019761399
-0.012138471
-0.0059216239
-0.0017847884
-0.00015038466
-0.0010662066
-0.0047369775
-0.011546506
-0.033767009
-0.035115475
-0.036030443
-0.036702354
-0.037285896
-0.03785649
-0.038499209
-0.03929818
-0.0403221
-0.041621019
-0.043226153
-0.045150359
-0.047388813
-0.049919486
-0.052703215
-0.055683431
-0.058785745
-0.061917595
-0.06496819
-0.067808963
-0.070294854
-0.07226656
-0.073554158
-0.07398241
-0.073377098
-0.071577656
-0.068448256
-0.063897073
-0.057899497
-0.050526962
-0.04198014
-0.032621853
-0.022999436
-0.013840349
-0.006001994
-0.00034769181
0.0024886676
0.0022856962
-0.0013072615
-0.0087527267
-0.038018726
-0.039433298
-0.040341781
-0.040935265
-0.041380543
-0.041770879
-0.042214201
-0.042817285
-0.043667885
-0.044830411
-0.046345857
-0.048232897
-0.050489353
-0.053093376
-0.056004071
-0.059161605
-0.062487039
-0.065882075
-0.069228991
-0.07239097
-0.075213243
-0.07752501
-0.079142639
-0.079874398
-0.079526814
-0.077914763
-0.074873442
-0.070276095
-0.064057134
-0.05624234
-0.046986421
-0.036615396
-0.025665401
-0.014901447
-0.005291547
0.0021075503
0.006415432
0.0071746774
0.0038153019
-0.0042482804
-0.042447654
-0.044000225
-0.04491115
-0.045386517
-0.045622006
-0.045740853
-0.0458851
-0.046193063
-0.046777262
-0.047719432
-0.049071273
-0.050856861
-0.05307543
-0.05570368
-0.058697244
-0.061991347
-0.065501012
-0.069120977
-0.072725712
-0.076169565
-0.079287903
-0.081898673
-0.083805255
-0.084800713
-0.084673798
-0.083217612
-0.080241188
-0.075585842
-0.069147325
-0.060905871
-0.05096574
-0.039604271
-0.027325225
-0.01490247
-0.0033871833
0.0059804691
0.012049572
0.01406274
0.011136293
0.0024905705
-0.04709372
-0.04888643
-0.049805559
-0.050099487
-0.050022408
-0.049746877
-0.049464726
-0.049356779
-0.049566325
-0.050194656
-0.051303949
-0.052922006
-0.055047079
-0.057651795
-0.060685773
-0.064076943
-0.067732257
-0.071537773
-0.075359162
-0.079040423
-0.082406764
-0.085264573
-0.087404341
-0.088604539
-0.088637321
-0.087275693
-0.084305222
-0.079538618
-0.072836573
-0.064136631
-0.053492568
-0.041126751
-0.027494271
-0.013350061
0.0002052407
0.011771452
0.019917957
0.023528292
0.02128973
0.012118685
-0.05204592
-0.054218752
-0.055138485
-0.05514685
-0.054607605
-0.053772272
-0.052903018
-0.052235432
-0.051948632
-0.052163763
-0.052951132
-0.054338683
-0.056319728
-0.058858966
-0.061896783
-0.065350507
-0.069116669
-0.073070424
-0.077068541
-0.080940812
-0.084502858
-0.087548624
-0.089855189
-0.091186272
-0.091298433
-0.089944265
-0.086887857
-0.081915982
-0.074857622
-0.065611449
-0.054183524
-0.04073991
-0.025676889
-0.0097070971
0.0060546861
0.020081661
0.03066949
0.036293146
0.035075717
0.025465085
-0.057478593
-0.060214597
-0.061091832
-0.060640232
-0.059418969
-0.05780153
-0.056144908
-0.054750809
-0.053835978
-0.053537938
-0.053929401
-0.055032209
-0.056828816
-0.059270702
-0.06228573
-0.065775562
-0.069624733
-0.073695535
-0.077830191
-0.081849329
-0.085554047
-0.088725327
-0.091126346
-0.092505547
-0.09260151
-0.091149084
-0.08788989
-0.082585166
-0.075034031
-0.065098944
-0.052741038
-0.038070992
-0.021420723
-0.0034426425
0.014767938
0.031596778
0.045084014
0.0532559
0.053516273
0.043607045
-0.063719426
-0.067238175
-0.067947793
-0.066741453
-0.064513442
-0.061816508
-0.059126763
-0.056817853
-0.055138951
-0.054234161
-0.054167994
-0.054946588
-0.056533566
-0.058861046
-0.061836931
-0.065347441
-0.069259789
-0.073421477
-0.07766031
-0.0817838
-0.085579051
-0.088813055
-0.091234118
-0.092574444
-0.09255439
-0.090888721
-0.087295727
-0.081510085
-0.073299895
-0.062490603
-0.048998151
-0.032876348
-0.014386928
0.0058943379
0.026923919
0.047044331
0.064067055
0.075530749
0.077938957
0.06800485
-0.071381602
-0.075894302
-0.076133176
-0.073673036
-0.069958931
-0.065788099
-0.061769517
-0.058340778
-0.055765755
-0.054175831
-0.053610295
-0.054046193
-0.055417401
-0.057629494
-0.060566001
-0.064092283
-0.068056674
-0.072290061
-0.076604968
-0.080794437
-0.084631329
-0.087868116
-0.090237664
-0.09145524
-0.09122216
-0.089231396
-0.085175709
-0.078760323
-0.069718085
-0.057832027
-0.04296595
-0.025108511
-0.004439539
0.018569725
0.042964432
0.067104615
0.08861038
0.10448288
0.11010444
0.10076033
-0.081632219
-0.087182441
-0.086270967
-0.081717014
-0.075815329
-0.069655484
-0.063961896
-0.059201186
-0.055614259
-0.053287427
-0.052210084
-0.052311579
-0.053484861
-0.055600141
-0.05851174
-0.062060726
-0.066074981
-0.070367819
-0.074736133
-0.078958507
-0.082793769
-0.085980126
-0.088235237
-0.089257496
-0.088728893
-0.08631957
-0.081694378
-0.074525365
-0.064503497
-0.051359336
-0.03489003
-0.014998179
0.00824832
0.034515001
0.063013142
0.092225656
0.11965964
0.14172224
0.15240419
0.14512441
-0.09676057
-0.10273888
-0.099198659
-0.091155974
-0.08206323
-0.073262183
-0.065508535
-0.059217718
-0.054540903
-0.051470112
-0.049910909
-0.049723708
-0.050746547
-0.052806717
-0.05572522
-0.059317009
-0.06338908
-0.067737542
-0.072144526
-0.076375315
-0.080176034
-0.083272039
-0.085367211
-0.086144377
-0.085267285
-0.082383475
-0.077128947
-0.069139225
-0.05805629
-0.043545397
-0.02531584
-0.003151365
0.023040953
0.053141381
0.086633444
0.12228309
0.15778094
0.18895175
0.20809797
0.2063278
-0.12134012
-0.12518776
-0.11587353
-0.10208164
-0.088417758
-0.07619873
-0.06600619
-0.058052662
-0.052291753
-0.048550685
-0.046608843
-0.04623348
-0.047195263
-0.049273187
-0.05225351
-0.055925813
-0.060078041
-0.064491455
-0.068936007
-0.073166366
-0.076918735
-0.079908484
-0.081828649
-0.082349447
-0.081119381
-0.077765081
-0.071896488
-0.063110933
-0.050996746
-0.035142331
-0.015145917
0.00936906
0.038725504
0.073129777
0.11251988
0.15626269
0.20263098
0.24752324
0.28130104
0.29235664
-0.16445756
-0.1584333
-0.1371488
-0.11415788
-0.094107728
-0.077631625
-0.0647383
-0.055162217
-0.048490344
-0.044292011
-0.042173332
-0.041787918
-0.042832972
-0.045040227
-0.048165331
-0.051977662
-0.056251396
-0.06075795
-0.06525977
-0.069505319
-0.073225154
-0.076128948
-0.077903385
-0.078211138
-0.076691125
-0.072948384
-0.066578287
-0.05714119
-0.044172889
-0.027180871
-0.0056365321
0.021034825
0.053464166
0.092331672
0.13829632
0.19182697
0.25266809
0.3175115
0.37626865
0.41537082
-0.24629443
-0.20631848
-0.16213077
-0.12552941
-0.09714418
-0.075878697
-0.06048808
-0.049752875
-0.042660785
-0.038436752
-0.036490894
-0.036365945
-0.037697921
-0.040185736
-0.043567843
-0.047604829
-0.052066526
-0.056722321
-0.06133377
-0.065648922
-0.069397954
-0.072289889
-0.07401026
-0.07422048
-0.072559148
-0.068606168
-0.061962266
-0.05215644
-0.038683442
-0.020981626
0.0015957534
0.029825339
0.064686532
0.10746507
0.15987132
0.2241781
0.30290576
0.3955325
0.49624373
0.60321261
-0.42543919
-0.26573057
-0.17722179
-0.12463641
-0.089117035
-0.065103166
-0.049324375
-0.039185854
-0.032984248
-0.029674643
-0.028571288
-0.029187338
-0.031157416
-0.034190497
-0.038038216
-0.042473938
-0.047278781
-0.052231811
-0.057102868
-0.061647172
-0.065601214
-0.068679591
-0.070572271
-0.070941154
-0.069408442
-0.065630315
-0.059132863
-0.049453309
-0.03607522
-0.018403637
0.0042714642
0.032847436
0.068542918
0.11314238
0.16943698
0.24201755
0.33806644
0.4659162
0.64305501
0.92086259
-0.79331315
-0.32444238
-0.14899763
-0.087725588
-0.05534599
-0.035999687
-0.025091721
-0.019201173
-0.016355704
-0.015619283
-0.016494522
-0.01865434
-0.021853463
-0.025888834
-0.030575853
-0.035734251
-0.041179471
-0.046716721
-0.05213643
-0.057210617
-0.061689941
-0.065301337
-0.06774634
-0.068701372
-0.067824967
-0.064708405
-0.058942217
-0.050072865
-0.037593788
-0.020927535
0.00061033834
0.027881055
0.062058771
0.10491339
0.15945136
0.23152803
0.3338515
0.49409226
0.79001642
1.3837784
1.1739807e-05
-0.00013112249
-0.00044331426
-0.00084587309
-0.0012642775
-0.0016530787
-0.0019814218
-0.0022304863
-0.0023896425
-0.002453188
-0.0024181846
-0.0022831766
-0.0020475948
-0.0017116826
-0.0012767973
-0.00074594675
-0.00012444143
0.00057945165
0.0013539537
0.0021834087
0.0030481877
0.0039249313
0.0047871565
0.0056062687
0.0063529343
0.0069987632
0.0075181941
0.0078904354
0.0081012957
0.0081447329
0.0080239734
0.007752106
0.0073521279
0.0068564987
0.0063061018
0.0057484758
0.0052386171
0.0048327822
0.0045927028
0.0045541449
0.00015367693
8.40891e-06
-0.00024174414
-0.00055060139
-0.00087275971
-0.0011739097
-0.0014298225
-0.0016243289
-0.0017470711
-0.0017916066
-0.0017539935
-0.001631867
-0.0014239722
-0.0011300772
-0.0007511736
-0.00028986694
0.00024913431
0.00085852172
0.0015279629
0.0022438246
0.0029891058
0.0037437783
0.0044851431
0.0051888549
0.0058300701
0.0063848929
0.0068319934
0.0071542671
0.0073403852
0.007386082
0.0072950355
0.0070792548
0.0067589365
0.0063618284
0.0059221434
0.0054789054
0.0050732924
0.0047486122
0.0045499932
0.0045147578
0.00047194496
0.00025384919
-1.9424052e-06
-0.00028103933
-0.00056135307
-0.00081832969
-0.0010341976
-0.0011969072
-0.0012982537
-0.0013327191
-0.0012965861
-0.0011873224
-0.0010032873
-0.0007437255
-0.00040898346
-8.7826662e-07
0.00047685244
0.0010180931
0.0016139537
0.0022525049
0.0029187426
0.0035947098
0.0042600422
0.0048927425
0.005470276
0.0059709172
0.006375257
0.0066677516
0.0068381687
0.006882775
0.0068051175
0.0066162924
0.0063346533
0.005984994
0.005597287
0.0052049896
0.0048427361
0.0045447528
0.0043473198
0.0042801656
0.00089356794
0.0005618821
0.0002613774
-2.4429607e-05
-0.00029512238
-0.00053431818
-0.00073048094
-0.00087640795
-0.00096702549
-0.00099863924
-0.00096843799
-0.0008741361
-0.00071386195
-0.00048627657
-0.00019087067
0.00017161431
0.00059869869
0.001085672
0.0016251587
0.0022068123
0.002817205
0.00343989
0.0040559015
0.0046444451
0.0051839558
0.0056534196
0.0060338734
0.0063099552
0.0064713546
0.0065139995
0.0064408224
0.0062619831
0.005994481
0.0056611818
0.0052893521
0.0049088646
0.0045503973
0.0042439164
0.0040159868
0.00388043
0.0013444211
0.00088406419
0.0005212741
0.00021099774
-6.679221e-05
-0.00030287519
-0.00049161989
-0.00063078167
-0.00071869844
-0.00075380346
-0.00073443537
-0.00065869355
-0.00052449533
-0.00032983058
-7.3165458e-05
0.00024604902
0.00062681102
0.0010659979
0.0015578513
0.002093584
0.0026611727
0.003245391
0.0038281644
0.0043892465
0.0049072466
0.00536096
0.0057309138
0.0060009918
0.0061599648
0.0062027441
0.00613119
0.0059543392
0.0056879769
0.0053535566
0.0049765362
0.004584432
0.0042054762
0.0038669042
0.003584336
0.0033605283
0.0017713604
0.0011772645
0.00074312073
0.00039714776
0.00010049277
-0.00014381614
-0.00033553056
-0.00047712718
-0.00057028934
-0.00061559011
-0.00061254048
-0.00055961523
-0.00045445871
-0.00029427248
-7.6336978e-05
0.00020137241
0.00053951525
0.00093670982
0.0013889075
0.0018888836
0.0024259163
0.0029857322
0.0035507577
0.00410076
0.0046138521
0.0050678523
0.0054419097
0.0057182534
0.0058838761
0.0059319358
0.0058626768
0.0056837193
0.0054096439
0.0050608639
0.0046618112
0.0042388349
0.0038193002
0.0034297889
0.0030774129
0.0027497399
0.0021291554
0.0014029419
0.00089401372
0.0005058862
0.00018250536
-7.8491471e-05
-0.00028169453
-0.0004339147
-0.00053992629
-0.00060227093
-0.00062149958
-0.00059633806
-0.00052402221
-0.00040080963
-0.00022261971
1.4234083e-05
0.00031225575
0.00067196668
0.001091149
0.0015641994
0.00208167
0.0026300974
0.003192139
0.0037471631
0.0042722317
0.0047434967
0.0051379211
0.0054351868
0.0056195879
0.0056816677
0.005619354
0.0054384009
0.0051520507
0.0047799095
0.0043460309
0.003876689
0.0033999057
0.0029434521
0.0025074963
0.0020653951
0.0023792329
0.0015263402
0.00094305588
0.00051001005
0.00015529806
-0.00012827375
-0.00034966235
-0.00051958908
-0.00064557595
-0.00073185577
-0.00077978667
-0.00078813991
-0.00075354954
-0.00067113654
-0.00053525989
-0.000340364
-8.188987e-05
0.00024279185
0.00063348055
0.0010863446
0.0015933033
0.0021417145
0.0027143566
0.0032899444
0.0038440652
0.004350606
0.0047835808
0.0051192188
0.0053381142
0.0054271766
0.0053810967
0.0052030746
0.0049046703
0.0045047495
0.0040274939
0.003500066
0.002952564
0.0024157189
0.0018847007
0.0013214313
0.0024877819
0.0015157652
0.00086094391
0.00038263494
-5.8107168e-06
-0.00031604924
-0.00056102093
-0.00075495305
-0.0009077514
-0.0010250214
-0.0011086486
-0.0011572012
-0.0011664835
-0.0011302598
-0.0010411044
-0.00089135474
-0.00067414123
-0.00038445477
-2.019951e-05
0.00041683525
0.00092017297
0.0014781775
0.0020738183
0.0026850817
0.0032858043
0.0038471012
0.004339293
0.0047341977
0.0050075834
0.0051415108
0.0051262475
0.0049614396
0.0046563205
0.004228847
0.0037036764
0.0031097052
0.0024804332
0.0018512589
0.0012138337
0.00051940821
0.0024243274
0.0013421357
0.00062011256
9.7714667e-05
-0.00032547764
-0.00066533954
-0.00093848744
-0.0011622909
-0.001348694
-0.0015043597
-0.0016314163
-0.0017279715
-0.0017887605
-0.0018059564
-0.0017701046
-0.001671165
-0.0014996489
-0.0012478152
-0.00091087957
-0.00048817555
1.5831276e-05
0.00059092041
0.0012205021
0.0018819714
0.002547323
0.0031845187
0.0037594781
0.0042385794
0.0045914694
0.0047938921
0.004830183
0.0046950588
0.0043943876
0.0039447045
0.0033712515
0.0027053712
0.0019852317
0.0012525753
0.00049668081
-0.00034160389
0.0021610913
0.00097881582
0.00019496254
-0.00036940168
-0.0008275188
-0.0011993101
-0.0015048163
-0.0017642299
-0.0019912258
-0.0021932405
-0.0023723861
-0.0025260712
-0.0026477346
-0.0027277262
-0.0027543066
-0.0027147596
-0.0025966162
-0.002388968
-0.0020838302
-0.0016775036
-0.0011718391
-0.00057496203
9.7432579e-05
0.00082254371
0.0015706662
0.0023064108
0.0029906831
0.00358336
0.0040464925
0.0043477288
0.0044635566
0.0043819179
0.0041037821
0.0036432833
0.0030259947
0.0022862098
0.0014679857
0.00062111755
-0.00026666199
-0.0012652111
0.0016728765
0.00040168791
-0.00043785995
-0.0010414896
-0.0015342564
-0.0019399824
-0.002281916
-0.0025827939
-0.0028577606
-0.0031147909
-0.0033557678
-0.003577205
-0.0037710513
-0.0039256235
-0.0040266463
-0.0040584114
-0.0040050645
-0.0038520166
-0.003587451
-0.0032038602
-0.002699537
-0.0020800926
-0.0013590562
-0.00055883734
0.00028956844
0.0011474789
0.0019703503
0.0027105452
0.0033209144
0.0037589051
0.0039907458
0.003995158
0.0037660387
0.0033135284
0.002662767
0.0018511785
0.00092984653
-4.1575815e-05
-0.0010763206
-0.0022558097
0.00093728264
-0.00041058302
-0.0012990878
-0.0019389371
-0.0024658691
-0.0029074573
-0.00328996
-0.0036384149
-0.0039692261
-0.0042907311
-0.0046044332
-0.0049058153
-0.0051851974
-0.005428696
-0.0056192766
-0.0057379259
-0.0057649736
-0.0056815751
-0.0054713442
-0.0051220817
-0.0046275448
-0.0039893684
-0.0032180548
-0.0023344829
-0.0013700974
-0.00036645328
0.00062631223
0.001552199
0.0023532272
0.0029742642
0.0033683354
0.0035017579
0.0033583453
0.0029418297
0.0022754495
0.0013994546
0.00037292973
-0.00073268456
-0.0019311386
-0.0033167159
-6.4869309e-05
-0.0014761528
-0.0024063839
-0.0030791964
-0.0036397236
-0.0041191171
-0.0045464558
-0.0049488679
-0.0053438619
-0.0057400312
-0.0061384233
-0.00653343
-0.0069136756
-0.007262974
-0.0075613589
-0.0077862326
-0.0079136829
-0.0079200026
-0.0077834218
-0.0074860268
-0.0070158261
-0.0063689364
-0.0055514164
-0.0045810821
-0.0034885067
-0.0023172005
-0.0011225917
3.043748e-05
0.0010715769
0.0019305843
0.0025438464
0.0028612698
0.0028525252
0.0025114171
0.0018568311
0.00093083024
-0.00019882525
-0.0014468667
-0.0028271557
-0.004448437
-0.001348999
-0.0028095364
-0.0037738659
-0.0044762351
-0.0050697176
-0.0055888348
-0.0060653019
-0.0065281618
-0.006995932
-0.0074774308
-0.0079732604
-0.0084767497
-0.0089748481
-0.0094490488
-0.0098763582
-0.010230378
-0.010482574
-0.010603785
-0.010566016
-0.010344523
-0.0099201547
-0.0092819117
-0.008429475
-0.0073756442
-0.0061482416
-0.004791174
-0.0033642124
-0.0019410843
-0.00060556669
0.00055451421
0.0014551146
0.0020249089
0.0022141513
0.0020017774
0.0013985033
0.00044614008
-0.00077872642
-0.0021749214
-0.0037559818
-0.0056468745
-0.002926201
-0.0044211491
-0.0054116581
-0.0061400323
-0.0067656721
-0.0073262265
-0.0078558714
-0.0083854299
-0.0089344009
-0.0095118815
-0.010118134