/*--------------------------------*- C++ -*----------------------------------*\
  =========                 |
  \\      /  F ield         | OpenFOAM: The Open Source CFD Toolbox
   \\    /   O peration     | Website:  https://openfoam.org
    \\  /    A nd           | Version:  7
     \\/     M anipulation  |
\*---------------------------------------------------------------------------*/
FoamFile
{
    version     2.0;
    format      ascii;
    class       surfaceScalarField;
    location    "41";
    object      phi;
}
// * * * * * * * * * * * * * * * * * * * * * * * * * * * * * * * * * * * * * //

dimensions      [0 3 -1 0 0 0 0];

internalField   nonuniform List<scalar> 
45600
(
2.7514574e-07
-2.8226308e-07
-7.9901441e-11
4.0332304e-07
-1.281517e-07
-2.5136215e-11
1.3255623e-07
2.7077408e-07
-6.8471435e-12
-5.623098e-07
6.9486738e-07
-1.6043343e-12
-1.6393111e-06
1.0769975e-06
3.5059918e-12
-3.0276216e-06
1.3883045e-06
6.9877247e-12
-4.6524638e-06
1.6248346e-06
9.2796479e-12
-6.4450961e-06
1.7926221e-06
1.0891007e-11
-8.3454235e-06
1.9003143e-06
1.202594e-11
-1.0301444e-05
1.9560065e-06
1.2781265e-11
-1.2267404e-05
1.9659469e-06
1.3217457e-11
-1.4201583e-05
1.9341676e-06
1.3362077e-11
-1.606424e-05
1.8626455e-06
1.3220119e-11
-1.7816028e-05
1.7517758e-06
1.278647e-11
-1.9417056e-05
1.6010141e-06
1.2053074e-11
-2.0826662e-05
1.4095925e-06
1.1014917e-11
-2.2003912e-05
1.1772402e-06
9.6722433e-12
-2.2908774e-05
9.0485647e-07
8.0235746e-12
-2.350387e-05
5.9509545e-07
6.0646155e-12
-2.3756701e-05
2.5282885e-07
3.7986632e-12
-2.364214e-05
-1.1456622e-07
1.2722788e-12
-2.3145013e-05
-4.971337e-07
-1.4187971e-12
-2.2262583e-05
-8.8242837e-07
-4.1532116e-12
-2.1006626e-05
-1.2559424e-06
-6.8157873e-12
-1.9404866e-05
-1.6017366e-06
-9.3278757e-12
-1.7501552e-05
-1.9032965e-06
-1.1618782e-11
-1.5356966e-05
-2.1445845e-06
-1.3568937e-11
-1.3045759e-05
-2.3112132e-06
-1.4973789e-11
-1.0654111e-05
-2.3916393e-06
-1.5615354e-11
-8.2758231e-06
-2.3782493e-06
-1.5406971e-11
-6.0075588e-06
-2.2682131e-06
-1.4467039e-11
-3.9435113e-06
-2.0640262e-06
-1.298931e-11
-2.1697735e-06
-1.7737665e-06
-1.099098e-11
-7.5855355e-07
-1.4112612e-06
-8.2470482e-12
2.3818406e-07
-9.9672759e-07
-4.7547157e-12
7.9654002e-07
-5.5828538e-07
-1.3613357e-12
9.2930879e-07
-1.3271235e-07
1.9761812e-12
7.0562865e-07
2.2362925e-07
5.3493603e-12
2.9048784e-07
4.1500311e-07
8.7573981e-12
2.9040578e-07
2.0730354e-12
1.3287811e-07
-4.1511832e-07
-2.2533044e-11
-3.0169233e-07
3.0643381e-07
-1.4263584e-11
-1.6154062e-06
1.5845022e-06
-1.2450906e-11
-3.8747101e-06
2.9541864e-06
-1.3211519e-11
-7.0073435e-06
4.2096455e-06
-1.4384359e-11
-1.0879753e-05
5.2607291e-06
-1.5926609e-11
-1.5335167e-05
6.0802657e-06
-1.7349002e-11
-2.0216004e-05
6.67348e-06
-1.836617e-11
-2.5374061e-05
7.0583935e-06
-1.8936901e-11
-3.0673274e-05
7.2552389e-06
-1.9074902e-11
-3.5988542e-05
7.2812323e-06
-1.879443e-11
-4.1202831e-05
7.1484726e-06
-1.8111107e-11
-4.6203975e-05
6.8638063e-06
-1.704042e-11
-5.0882103e-05
6.4299216e-06
-1.5595652e-11
-5.5128235e-05
5.8471627e-06
-1.3791418e-11
-5.8834321e-05
5.1156922e-06
-1.1643449e-11
-6.1894806e-05
4.2377314e-06
-9.1593174e-12
-6.4209614e-05
3.2196654e-06
-6.3449705e-12
-6.5688365e-05
2.0738474e-06
-3.211615e-12
-6.6255473e-05
8.1994297e-07
1.6858971e-13
-6.5855984e-05
-5.1404828e-07
3.6777207e-12
-6.4460806e-05
-1.8923137e-06
7.2336362e-12
-6.2072476e-05
-3.2707776e-06
1.0690975e-11
-5.8729094e-05
-4.5993564e-06
1.3984606e-11
-5.4507086e-05
-5.8237699e-06
1.7047856e-11
-4.9521911e-05
-6.8884747e-06
1.973577e-11
-4.3926391e-05
-7.7400954e-06
2.1814016e-11
-3.7906436e-05
-8.3311784e-06
2.3067848e-11
-3.1674136e-05
-8.6239911e-06
2.345707e-11
-2.5458412e-05
-8.5940445e-06
2.3140343e-11
-1.9493633e-05
-8.2330259e-06
2.2275177e-11
-1.4006724e-05
-7.5509016e-06
2.0777673e-11
-9.2032623e-06
-6.5771757e-06
1.8381591e-11
-5.2528711e-06
-5.3616715e-06
1.5067822e-11
-2.2739892e-06
-3.9757153e-06
1.1381723e-11
-3.1732741e-07
-2.515037e-06
7.9704222e-12
6.5700958e-07
-1.1069917e-06
4.7029908e-12
8.0368854e-07
7.7137889e-08
3.5468294e-12
4.1792246e-07
8.0093218e-07
4.4766285e-12
7.0826185e-07
-3.0837929e-12
-2.7358781e-07
-1.415175e-07
-1.2549362e-11
-1.6274863e-06
1.6603393e-06
-7.324809e-12
-4.2894069e-06
4.2464319e-06
-8.6430162e-12
-8.2746786e-06
6.9394673e-06
-7.2246086e-12
-1.3474417e-05
9.4093914e-06
-5.2522469e-12
-1.9708721e-05
1.1495037e-05
-4.1834662e-12
-2.6765751e-05
1.3137298e-05
-3.4934937e-12
-3.4426617e-05
1.4334349e-05
-2.9120651e-12
-4.2478631e-05
1.5110412e-05
-2.4163733e-12
-5.072045e-05
1.5497062e-05
-1.9805628e-12
-5.8962295e-05
1.552308e-05
-1.5723867e-12
-6.7023691e-05
1.5209869e-05
-1.1707971e-12
-7.4730534e-05
1.4570648e-05
-7.634574e-13
-8.1912723e-05
1.3612109e-05
-3.4195368e-13
-8.8403152e-05
1.2337593e-05
9.2558767e-14
-9.4038479e-05
1.0751023e-05
5.2285162e-13
-9.8661797e-05
8.8610523e-06
9.2396987e-13
-0.0001021271
6.6849619e-06
1.279292e-12
-0.00010430523
4.2519724e-06
1.6010624e-12
-0.00010509101
1.6057155e-06
1.9099643e-12
-0.00010441065
-1.19441e-06
2.2122273e-12
-0.00010222946
-4.0734922e-06
2.4632497e-12
-9.8558516e-05
-6.9417112e-06
2.6014381e-12
-9.346e-05
-9.6978791e-06
2.6144947e-12
-8.7050397e-05
-1.2233395e-05
2.5697947e-12
-7.9501011e-05
-1.443788e-05
2.5720851e-12
-7.1035294e-05
-1.6205805e-05
2.6550291e-12
-6.1922723e-05
-1.7443716e-05
2.717028e-12
-5.246913e-05
-1.8077559e-05
2.6132963e-12
-4.3003666e-05
-1.8059532e-05
2.3574379e-12
-3.3862836e-05
-1.7373916e-05
2.1947277e-12
-2.537226e-05
-1.6041509e-05
2.3752581e-12
-1.7826899e-05
-1.4122489e-05
2.8185843e-12
-1.147038e-05
-1.1718108e-05
3.1149172e-12
-6.4738216e-06
-8.9722622e-06
3.0119932e-12
-2.9140404e-06
-6.0749263e-06
2.7299792e-12
-7.5127809e-07
-3.2698897e-06
2.6193999e-12
1.9430699e-07
-8.684683e-07
3.6137224e-12
2.6553431e-07
7.2981711e-07
5.7459925e-12
9.7378414e-07
8.4331089e-13
-7.4584877e-07
6.0434514e-07
-1.2802255e-11
-3.1796401e-06
4.094132e-06
-1.3645964e-12
-7.3461119e-06
8.4129095e-06
-6.8235416e-12
-1.3163066e-05
1.2756428e-05
-6.1812247e-12
-2.045583e-05
1.670216e-05
-3.5577248e-12
-2.8992647e-05
2.0031858e-05
-2.2235337e-12
-3.851389e-05
2.2658542e-05
-1.3500452e-12
-4.875269e-05
2.4573149e-05
-5.6728728e-13
-5.9446996e-05
2.5804717e-05
8.4402797e-14
-7.0344848e-05
2.6394914e-05
6.1697972e-13
-8.1205141e-05
2.6383374e-05
1.0619558e-12
-9.1795994e-05
2.5800722e-05
1.4343615e-12
-0.00010189242
2.4667077e-05
1.7403879e-12
-0.00011127464
2.2994324e-05
1.9877223e-12
-0.0001197278
2.079074e-05
2.1878918e-12
-0.00012704362
1.8066848e-05
2.3451948e-12
-0.00013302417
1.4841603e-05
2.4432579e-12
-0.00013748743
1.1148219e-05
2.4459995e-12
-0.00014027452
7.0390673e-06
2.3295611e-12
-0.00014125806
2.5892462e-06
2.1152491e-12
-0.00014035079
-2.1016975e-06
1.8667639e-12
-0.0001375144
-6.909882e-06
1.5907522e-12
-0.00013276703
-1.1689065e-05
1.2777792e-12
-0.00012618931
-1.6275586e-05
8.7323757e-13
-0.00011792788
-2.0494819e-05
3.5380597e-13
-0.00010819591
-2.4169872e-05
-1.9136593e-13
-9.726989e-05
-2.7131858e-05
-5.8572768e-13
-8.5482432e-05
-2.9231172e-05
-7.1712123e-13
-7.3210952e-05
-3.0348995e-05
-6.7387505e-13
-6.0862248e-05
-3.0408191e-05
-6.669264e-13
-4.8853433e-05
-2.9382743e-05
-7.5023966e-13
-3.7589914e-05
-2.73051e-05
-6.542129e-13
-2.7441353e-05
-2.4271102e-05
-3.2302055e-14
-1.8716717e-05
-2.0442698e-05
1.055912e-12
-1.1639436e-05
-1.6049429e-05
2.0676149e-12
-6.3235289e-06
-1.1390776e-05
2.5861588e-12
-2.751535e-06
-6.8419537e-06
2.9324615e-12
-7.5719729e-07
-2.8629037e-06
3.6518064e-12
-9.5357336e-09
-1.7832889e-08
4.5488023e-12
9.6427395e-07
3.8648027e-12
-1.2279696e-06
1.8323298e-06
-1.4332541e-11
-4.788115e-06
7.6542744e-06
4.616646e-12
-1.052155e-05
1.414635e-05
-5.9583109e-12
-1.8214343e-05
2.0449227e-05
-7.0711745e-12
-2.7603948e-05
2.609177e-05
-4.6900047e-12
-3.8396306e-05
3.0824223e-05
-3.9582741e-12
-5.0283062e-05
3.4545304e-05
-3.6200793e-12
-6.295479e-05
3.7244879e-05
-3.1659156e-12
-7.6109044e-05
3.8958973e-05
-2.7195062e-12
-8.945378e-05
3.9739651e-05
-2.3011572e-12
-0.00010270748
3.9637075e-05
-1.8837811e-12
-0.00011559754
3.8690783e-05
-1.4604681e-12
-0.00012785835
3.6927892e-05
-1.0378999e-12
-0.0001392302
3.4366179e-05
-6.2439143e-13
-0.00014945975
3.1020288e-05
-2.1843589e-13
-0.00015830248
2.6909572e-05
1.9571668e-13
-0.00016552724
2.2066366e-05
6.3076968e-13
-0.00017092275
1.654373e-05
1.0690822e-12
-0.00017430559
1.0421917e-05
1.4637244e-12
-0.00017552935
3.8130075e-06
1.775085e-12
-0.00017449413
-3.1369318e-06
2.0104754e-12
-0.00017115589
-1.0248136e-05
2.2118058e-12
-0.00016553481
-1.7310151e-05
2.4297666e-12
-0.00015772191
-2.4088477e-05
2.644963e-12
-0.00014788319
-3.0333513e-05
2.7577974e-12
-0.00013626059
-3.579247e-05
2.6844198e-12
-0.00012316896
-4.0223514e-05
2.4851775e-12
-0.00010898873
-4.341144e-05
2.365709e-12
-9.4153827e-05
-4.5183916e-05
2.4830947e-12
-7.9134861e-05
-4.5427112e-05
2.733808e-12
-6.441804e-05
-4.4099504e-05
2.8139903e-12
-5.0480338e-05
-4.1242807e-05
2.5922905e-12
-3.7762144e-05
-3.6989384e-05
2.3733488e-12
-2.6638865e-05
-3.1566063e-05
2.5802131e-12
-1.7393202e-05
-2.5295074e-05
3.1510586e-12
-1.0189896e-05
-1.8593983e-05
3.6594937e-12
-5.054702e-06
-1.1977105e-05
4.0900672e-12
-1.8598433e-06
-6.0578225e-06
3.4551453e-12
-3.222513e-07
-1.5554576e-06
4.1550606e-13
6.4203591e-07
5.9863027e-12
-1.6931712e-06
3.5255171e-06
-1.6845501e-11
-6.3714149e-06
1.233251e-05
1.0020959e-11
-1.3671459e-05
2.1446401e-05
-4.9989685e-12
-2.3234067e-05
3.0011841e-05
-7.1818698e-12
-3.4695251e-05
3.7552957e-05
-4.4717143e-12
-4.7689829e-05
4.3818805e-05
-3.9057621e-12
-6.1857529e-05
4.871301e-05
-3.7798508e-12
-7.6848071e-05
5.2235427e-05
-3.4204813e-12
-9.2323873e-05
5.4434779e-05
-3.0306381e-12
-0.00010796028
5.5376055e-05
-2.6596707e-12
-0.00012344397
5.5120772e-05
-2.2766862e-12
-0.0001384707
5.3717512e-05
-1.8680011e-12
-0.00015274323
5.1200427e-05
-1.4342364e-12
-0.00016597054
4.7593496e-05
-9.8908846e-13
-0.00017786874
4.291849e-05
-5.5120093e-13
-0.00018816405
3.7204882e-05
-1.2483704e-13
-0.0001965979
3.0500202e-05
3.0961197e-13
-0.00020293384
2.2879673e-05
7.7262213e-13
-0.00020696615
1.4454223e-05
1.2517392e-12
-0.0002085293
5.3761672e-06
1.6936811e-12
-0.00020750811
-4.1581062e-06
2.038171e-12
-0.00020384768
-1.3908582e-05
2.276868e-12
-0.00019756247
-2.3595376e-05
2.4672286e-12
-0.00018874398
-3.2906987e-05
2.6903185e-12
-0.0001775659
-4.1511584e-05
2.9476402e-12
-0.00016428625
-4.9072084e-05
3.1194777e-12
-0.00014924549
-5.5264255e-05
3.0728156e-12
-0.00013285989
-5.9797069e-05
2.8464277e-12
-0.00011560969
-6.2434179e-05
2.6892492e-12
-9.802179e-05
-6.3015039e-05
2.8255682e-12
-8.0647238e-05
-6.1474011e-05
3.1584025e-12
-6.4034153e-05
-5.7855813e-05
3.313627e-12
-4.8697413e-05
-5.2326108e-05
3.1043738e-12
-3.5086904e-05
-4.5176651e-05
2.8224486e-12
-2.3556713e-05
-3.6825349e-05
2.859651e-12
-1.4337888e-05
-2.7812795e-05
3.431388e-12
-7.5174625e-06
-1.8797462e-05
4.6560694e-12
-3.0267093e-06
-1.0548574e-05
3.6943822e-12
-6.4250005e-07
-3.9396982e-06
-2.0273143e-12
-4.7193379e-10
8.38506e-12
-2.1329394e-06
5.6584749e-06
-1.9627559e-11
-7.891081e-06
1.8090637e-05
1.4802606e-11
-1.6717411e-05
3.0272737e-05
-4.2573867e-12
-2.8105747e-05
4.1400186e-05
-7.2328287e-12
-4.1585097e-05
5.103231e-05
-4.0290667e-12
-5.6714145e-05
5.8947855e-05
-3.510364e-12
-7.3078288e-05
6.5077157e-05
-3.5175641e-12
-9.0287097e-05
6.9444241e-05
-3.2010306e-12
-0.00010797133
7.2119017e-05
-2.8279745e-12
-0.00012577927
7.3184003e-05
-2.4775562e-12
-0.00014337275
7.2714245e-05
-2.1238693e-12
-0.00016042342
7.0768186e-05
-1.7532316e-12
-0.00017661019
6.7387197e-05
-1.3550817e-12
-0.00019161814
6.2601447e-05
-9.2608963e-13
-0.00020513951
5.6439868e-05
-4.8336431e-13
-0.00021687684
4.8942211e-05
-5.6610698e-14
-0.00022654814
4.0171506e-05
3.4210576e-13
-0.00023389407
3.0225589e-05
7.3290598e-13
-0.00023868651
1.9246653e-05
1.1466303e-12
-0.00024073843
7.4280872e-06
1.5824282e-12
-0.00023991437
-4.9821532e-06
1.9843495e-12
-0.00023614101
-1.7681921e-05
2.2799838e-12
-0.00022941746
-3.0318932e-05
2.4308521e-12
-0.00021982416
-4.2500318e-05
2.505996e-12
-0.00020752993
-5.3805837e-05
2.6282339e-12
-0.00019279611
-6.3805903e-05
2.8362709e-12
-0.00017597669
-7.208363e-05
3.0013616e-12
-0.00015751361
-7.8260116e-05
2.9397394e-12
-0.00013792611
-8.2021705e-05
2.6585195e-12
-0.00011779374
-8.3147481e-05
2.4416384e-12
-9.7732987e-05
-8.1534809e-05
2.5765197e-12
-7.8368142e-05
-7.7220623e-05
2.98051e-12
-6.029784e-05
-7.0396327e-05
3.2397808e-12
-4.405949e-05
-6.1414978e-05
3.0932936e-12
-3.0094432e-05
-5.0790473e-05
2.7550641e-12
-1.8717293e-05
-3.9189996e-05
3.0638457e-12
-1.0093057e-05
-2.7421678e-05
4.8968602e-12
-4.2252972e-06
-1.6416299e-05
3.8327951e-12
-9.5847858e-07
-7.2065129e-06
-4.6477614e-12
-9.5897373e-07
1.0375059e-11
-2.5450551e-06
8.2035524e-06
-2.2411955e-11
-9.3288498e-06
2.487441e-05
1.9068469e-11
-1.9615368e-05
4.0559259e-05
-3.7865884e-12
-3.2756855e-05
5.4541682e-05
-7.4940698e-12
-4.8175892e-05
6.6451353e-05
-3.8168278e-12
-6.5354097e-05
7.6126063e-05
-3.3493735e-12
-8.3822147e-05
8.3545209e-05
-3.5087277e-12
-0.00010315063
8.8772728e-05
-3.2663102e-12
-0.00012294163
9.1910019e-05
-2.9331256e-12
-0.00014282096
9.3063341e-05
-2.6073111e-12
-0.00016243135
9.2324637e-05
-2.2697943e-12
-0.00018142688
8.9763722e-05
-1.9203397e-12
-0.00019946925
8.5429566e-05
-1.5549977e-12
-0.00021622605
7.9358241e-05
-1.1559738e-12
-0.00023137131
7.1585129e-05
-7.1390096e-13
-0.00024458832
6.2159234e-05
-2.4882345e-13
-0.00025557459
5.1157784e-05
1.9985619e-13
-0.00026404867
3.8699669e-05
6.087528e-13
-0.00026975868
2.4956647e-05
9.942436e-13
-0.0002724921
1.0161499e-05
1.3963529e-12
-0.00027208669
-5.3875697e-06
1.8292627e-12
-0.00026844173
-2.1326871e-05
2.2557218e-12
-0.00026152974
-3.7230897e-05
2.5615516e-12
-0.00025140738
-5.2622678e-05
2.6852532e-12
-0.00023822498
-6.6988268e-05
2.6960734e-12
-0.00022223365
-7.9797268e-05
2.7564161e-12
-0.00020378865
-9.0528634e-05
2.9504258e-12
-0.00018334762
-9.8701104e-05
3.1488506e-12
-0.00016146238
-0.00010390689
3.1180635e-12
-0.00013876325
-0.00010584663
2.8263167e-12
-0.00011593536
-0.00010436277
2.576787e-12
-9.3687581e-05
-9.9468455e-05
2.7023057e-12
-7.271545e-05
-9.1368431e-05
3.1296425e-12
-5.3660723e-05
-8.0469634e-05
3.3609196e-12
-3.7071059e-05
-6.7380123e-05
3.0444313e-12
-2.3363955e-05
-5.2897155e-05
3.0821504e-12
-1.2799335e-05
-3.7986333e-05
5.1594451e-12
-5.4648816e-06
-2.3750736e-05
3.7266773e-12
-1.2772487e-06
-1.1394116e-05
-7.492733e-12
-2.2362399e-06
1.2887392e-11
-2.9284815e-06
1.113206e-05
-2.5118316e-11
-1.0673673e-05
3.2619577e-05
2.2903442e-11
-2.2336178e-05
5.2221765e-05
-3.4828675e-12
-3.713598e-05
6.9341491e-05
-7.8640387e-12
-5.4394114e-05
8.3709493e-05
-3.7291637e-12
-7.3517631e-05
9.5249585e-05
-3.2829255e-12
-9.3984303e-05
0.00010401189
-3.5672709e-12
-0.00011532796
0.00011011639
-3.3962233e-12
-0.00013712518
0.00011370724
-3.1156817e-12
-0.00015898353
0.0001149217
-2.8280315e-12
-0.00018053178
0.00011387289
-2.5068795e-12
-0.00020141215
0.00011064409
-2.1598803e-12
-0.00022127503
0.00010529245
-1.8037696e-12
-0.00023977618
9.7859392e-05
-1.4334475e-12
-0.00025657638
8.8385322e-05
-1.0245345e-12
-0.00027134347
7.692632e-05
-5.6066135e-13
-0.00028375659
6.3570914e-05
-6.1059879e-14
-0.00029351243
4.845552e-05
4.2691744e-13
-0.00030033322
3.1777437e-05
8.6435641e-13
-0.00030397636
1.380463e-05
1.2535243e-12
-0.00030424558
-5.118367e-06
1.638577e-12
-0.00030100298
-2.4569475e-05
2.0888881e-12
-0.00029418252
-4.4051345e-05
2.5413865e-12
-0.00028380325
-6.3001929e-05
2.8739596e-12
-0.0002699822
-8.0809307e-05
2.9895376e-12
-0.00025294549
-9.6834006e-05
2.9455051e-12
-0.00023303601
-0.00011043816
2.9402266e-12
-0.00021071603
-0.00012102111
3.1066241e-12
-0.00018656268
-0.0001280602
3.3233231e-12
-0.00016125481
-0.00013115444
3.3185213e-12
-0.00013554995
-0.00013006763
3.0315465e-12
-0.00011025149
-0.00012476699
2.7840925e-12
-8.6167416e-05
-0.00011545255
2.9273876e-12
-6.4063746e-05
-0.00010257328
3.2743162e-12
-4.4616651e-05
-8.6827164e-05
3.1927768e-12
-2.8368518e-05
-6.9145289e-05
3.2884002e-12
-1.5693161e-05
-5.0661729e-05
5.6332739e-12
-6.7752317e-06
-3.2668683e-05
3.6044021e-12
-1.6070347e-06
-1.6562291e-05
-1.0548579e-11
-3.8432846e-06
1.547207e-11
-3.2816998e-06
1.4413789e-05
-2.7703564e-11
-1.191587e-05
4.1253722e-05
2.6337435e-11
-2.4855513e-05
6.516141e-05
-3.2877685e-12
-4.1199921e-05
8.5685906e-05
-8.2820041e-12
-6.0176313e-05
0.00010268589
-3.7189686e-12
-8.1122252e-05
0.00011619553
-3.2764417e-12
-0.00010346631
0.00012635595
-3.6505783e-12
-0.00012670888
0.00013335897
-3.525528e-12
-0.00015040465
0.00013740301
-3.2898197e-12
-0.00017414714
0.00013866419
-3.0509771e-12
-0.00019755594
0.0001372817
-2.7656755e-12
-0.00022026669
0.00013335484
-2.4291158e-12
-0.00024192389
0.00012694966
-2.064699e-12
-0.00026217668
0.00011811219
-1.6935157e-12
-0.00028067717
0.00010688581
-1.311805e-12
-0.00029708131
9.3330449e-05
-8.9046871e-13
-0.00031105196
7.7541566e-05
-4.0463631e-13
-0.00032226415
5.9667711e-05
1.3339343e-13
-0.0003304122
3.9925503e-05
6.6948609e-13
-0.00033521897
1.8611403e-05
1.13271e-12
-0.00033644713
-3.8902172e-06
1.4970439e-12
-0.00033391174
-2.7104888e-05
1.9025422e-12
-0.00032749598
-5.0467122e-05
2.3466504e-12
-0.00031716689
-7.333101e-05
2.815606e-12
-0.00030299229
-9.4983869e-05
3.1750912e-12
-0.00028515681
-0.00011466947
3.2873667e-12
-0.00026397517
-0.00013161982
3.1932297e-12
-0.00023990063
-0.0001450957
3.1189412e-12
-0.00021352586
-0.00015443501
3.2387181e-12
-0.00018557379
-0.00015910647
3.4399748e-12
-0.00015687656
-0.0001587648
3.4325462e-12
-0.00012834161
-0.00015330193
3.1648327e-12
-0.00010090607
-0.00014288815
2.9816522e-12
-7.5482499e-05
-0.0001279969
3.0817129e-12
-5.2901153e-05
-0.00010940849
3.0407804e-12
-3.3855103e-05
-8.8191305e-05
3.3818853e-12
-1.8854779e-05
-6.5662059e-05
6.2627444e-12
-8.198268e-06
-4.3325215e-05
3.6059436e-12
-1.9611677e-06
-2.2799384e-05
-1.3820718e-11
-5.8044649e-06
1.8147172e-11
-3.6023039e-06
1.8016122e-05
-3.0125853e-11
-1.3044873e-05
5.0696264e-05
2.9362328e-11
-2.7149289e-05
7.9265831e-05
-3.1867324e-12
-4.490717e-05
0.00010344379
-8.7263703e-12
-6.5461507e-05
0.00012324023
-3.7785832e-12
-8.8087234e-05
0.00013882126
-3.343882e-12
-0.0001121688
0.00015043752
-3.7943314e-12
-0.00013717742
0.00015836759
-3.6956881e-12
-0.00016264988
0.00016287547
-3.4837461e-12
-0.00018816993
0.00016418425
-3.2837793e-12
-0.00021335264
0.00016246441
-3.0465319e-12
-0.00023783203
0.00015783423
-2.74852e-12
-0.00026125191
0.00015036954
-2.3933889e-12
-0.00028325983
0.00014012012
-2.0050745e-12
-0.00030350382
0.00012712981
-1.6100918e-12
-0.00032163166
0.00011145829
-1.2096698e-12
-0.00033729244
9.3202345e-05
-7.7243201e-13
-0.00035014038
7.2515644e-05
-2.6258666e-13
-0.00035984079
4.9625914e-05
3.1732338e-13
-0.00036607842
2.4849048e-05
8.9028113e-13
-0.00036856895
-1.399672e-06
1.3359821e-12
-0.00036707133
-2.8602515e-05
1.8065212e-12
-0.00036140637
-5.6132113e-05
2.1892957e-12
-0.00035147459
-8.3262815e-05
2.6112853e-12
-0.00033727783
-0.00010918062
3.0860749e-12
-0.0003189409
-0.00013300637
3.4626615e-12
-0.00029673173
-0.00015382896
3.5710737e-12
-0.00027107725
-0.00017075019
3.4359428e-12
-0.00024257164
-0.00018294067
3.3006998e-12
-0.0002119733
-0.00018970484
3.3621888e-12
-0.0001801876
-0.00019055047
3.5115388e-12
-0.0001482333
-0.00018525618
3.4825589e-12
-0.00011719274
-0.0001739287
3.2786774e-12
-8.814896e-05
-0.00015704072
3.0973129e-12
-6.21154e-05
-0.00013544207
2.810638e-12
-3.9966493e-05
-0.0001103402
3.2792948e-12
-2.2377604e-05
-8.3250934e-05
6.8916339e-12
-9.7826868e-06
-5.5920136e-05
3.6945445e-12
-2.3546977e-06
-3.0227366e-05
-1.7352869e-11
-8.1591847e-06
2.1122809e-11
-3.8870511e-06
2.1903204e-05
-3.2332403e-11
-1.4048661e-05
6.0857842e-05
3.1966099e-11
-2.9192053e-05
9.4409229e-05
-3.1768315e-12
-4.8215264e-05
0.00012246702
-9.1850484e-12
-7.0187842e-05
0.00014521281
-3.8887832e-12
-9.4330061e-05
0.00016296348
-3.4671545e-12
-0.00011998821
0.00017609568
-3.9963343e-12
-0.00014660908
0.00018498847
-3.9253507e-12
-0.00017371588
0.00018998228
-3.7254438e-12
-0.00020088685
0.00019135522
-3.5419648e-12
-0.00022773708
0.00018931464
-3.3373287e-12
-0.0002539038
0.00018400095
-3.0889162e-12
-0.00027903519
0.00017550094
-2.7787673e-12
-0.00030278231
0.00016386724
-2.4028245e-12
-0.00032479396
0.00014914146
-1.9842665e-12
-0.00034471403
0.00013137837
-1.5557459e-12
-0.00036218125
0.00011066956
-1.126848e-12
-0.00037683113
8.7165517e-05
-6.6881919e-13
-0.00038830042
6.109519e-05
-1.3554977e-13
-0.00039623427
3.2782904e-05
4.9635889e-13
-0.00040029638
2.6624459e-06
1.1861654e-12
-0.00040018386
-2.871501e-05
1.7122449e-12
-0.00039564404
-6.0671939e-05
2.1354998e-12
-0.00038649735
-9.2409527e-05
2.4942456e-12
-0.00037266264
-0.00012301537
2.8959539e-12
-0.00035418498
-0.00015148403
3.3598572e-12
-0.00033126379
-0.00017675012
3.73192e-12
-0.00030427781
-0.00019773613
3.8231441e-12
-0.00027380298
-0.00021341552
3.6496074e-12
-0.00024061831
-0.00022288956
3.4602958e-12
-0.00020569521
-0.0002254736
3.4508904e-12
-0.00017016638
-0.00022078498
3.5322276e-12
-0.00013527316
-0.00020882189
3.5131947e-12
-0.00010229331
-0.00019002057
3.2869152e-12
-7.2455939e-05
-0.00016527948
2.7133972e-12
-4.6853303e-05
-0.00013594285
3.1269284e-12
-2.6361365e-05
-0.00010374287
7.4928806e-12
-1.1580438e-05
-7.0701055e-05
3.7743599e-12
-2.8033126e-06
-3.900447e-05
-2.1296756e-11
-1.0962526e-05
2.4561306e-11
-4.1321164e-06
2.6035354e-05
-3.4272866e-11
-1.4914098e-05
7.1639787e-05
3.4145207e-11
-3.0957132e-05
0.00011045227
-3.247526e-12
-5.1080654e-05
0.00014259055
-9.6547131e-12
-7.4292272e-05
0.00016842443
-4.0452146e-12
-9.9766124e-05
0.00018843734
-3.6272912e-12
-0.00012681669
0.00020314624
-4.2301038e-12
-0.0001548713
0.00021304308
-4.1981344e-12
-0.00018344394
0.00021855491
-4.0203951e-12
-0.0002121115
0.00022002279
-3.8468186e-12
-0.00024049344
0.00021769659
-3.6500217e-12
-0.00026823493
0.00021174245
-3.4283182e-12
-0.00029499352
0.00020225952
-3.1699772e-12
-0.00032042905
0.00018930277
-2.8476092e-12
-0.0003441964
0.00017290882
-2.4490277e-12
-0.00036594074
0.00015312271
-1.9941926e-12
-0.00038529504
0.00013002388
-1.5218968e-12
-0.00040188
0.00010375048
-1.0551592e-12
-0.00041530643
7.4521612e-05
-5.7106943e-13
-0.00042518077
4.2657226e-05
4.2131001e-15
-0.00043111397
8.5956373e-06
7.2356549e-13
-0.00043273622
-2.7092748e-05
1.3807716e-12
-0.00042971415
-6.3693986e-05
1.9953546e-12
-0.00042177616
-0.00010034751
2.4636779e-12
-0.00040874171
-0.00013604985
2.8233468e-12
-0.00039055539
-0.00016967039
3.202494e-12
-0.00036732351
-0.00019998201
3.6357226e-12
-0.00033934979
-0.00022570982
3.9716001e-12
-0.00030716535
-0.00024559994
4.0197187e-12
-0.00027154682
-0.0002585081
3.7992426e-12
-0.00023351601
-0.00026350444
3.5528811e-12
-0.00019431499
-0.00025998603
3.476856e-12
-0.00015535291
-0.00024778395
3.5320547e-12
-0.00011812525
-0.00022724821
3.4122432e-12
-8.4111823e-05
-0.00019929291
2.7067139e-12
-5.4665484e-05
-0.00016538921
3.0543884e-12
-3.0907346e-05
-0.00012750102
8.1765912e-12
-1.3644698e-05
-8.79637e-05
3.8218899e-12
-3.3229904e-06
-4.9326145e-05
-2.584624e-11
-1.4285545e-05
2.8566858e-11
-4.3334531e-06
3.0368845e-05
-3.5913018e-11
-1.5627794e-05
8.2934091e-05
3.5893266e-11
-3.2417911e-05
0.00012724239
-3.372749e-12
-5.3460308e-05
0.00016363296
-1.0121673e-11
-7.771246e-05
0.00019267659
-4.2532139e-12
-0.000104311
0.00021503589
-3.8264859e-12
-0.00013254491
0.00023138016
-4.4809956e-12
-0.00016182693
0.00024232511
-4.486238e-12
-0.00019166588
0.00024839386
-4.3455392e-12
-0.00022164124
0.00024999816
-4.1991211e-12
-0.00025138097
0.00024743632
-4.0092866e-12
-0.00028054264
0.00024090413
-3.7874631e-12
-0.00030879821
0.0002305151
-3.5489356e-12
-0.00033582178
0.00021632634
-3.2781649e-12
-0.00036128018
0.00019836722
-2.9416503e-12
-0.00038482595
0.00017666849
-2.5180899e-12
-0.00040609256
0.00015129049
-2.0213577e-12
-0.00042469178
0.00012234972
-1.4967515e-12
-0.00044021384
9.0043682e-05
-9.8092192e-13
-0.00045223064
5.4674023e-05
-4.5144019e-13
-0.00046030304
1.6668011e-05
1.6283622e-13
-0.00046399358
-2.3402216e-05
8.5248386e-13
-0.00046288449
-6.480307e-05
1.6122257e-12
-0.0004566034
-0.00010662857
2.2995831e-12
-0.00044485607
-0.00014779716
2.8074218e-12
-0.00042746612
-0.00018706036
3.1732398e-12
-0.00040442023
-0.00022302794
3.5254308e-12
-0.00037591562
-0.00025421444
3.9029904e-12
-0.00034240457
-0.00027911096
4.1628799e-12
-0.0003046286
-0.00029628404
4.1321216e-12
-0.00026363336
-0.00030449968
3.8449243e-12
-0.00022075513
-0.00030286429
3.5538626e-12
-0.00017757164
-0.00029096746
3.4722855e-12
-0.00013581501
-0.00026900482
3.3689682e-12
-9.7251925e-05
-0.00023785598
2.6177047e-12
-6.3544836e-05
-0.0001990963
3.0241006e-12
-3.6114693e-05
-0.00015493118
9.042316e-12
-1.6028561e-05
-0.00010804984
3.8953985e-12
-3.9298366e-06
-6.1424836e-05
-3.1145355e-11
-1.8215413e-05
3.323445e-11
-4.4872233e-06
3.4856108e-05
-3.7229579e-11
-1.6177323e-05
9.4624155e-05
3.7185931e-11
-3.35499e-05
0.00014461496
-3.5275594e-12
-5.5314557e-05
0.00018539762
-1.0555997e-11
-8.039037e-05
0.00021775241
-4.5045663e-12
-0.0001078848
0.00024253033
-4.0732552e-12
-0.00013706725
0.00026056262
-4.7569814e-12
-0.00016734027
0.00027259813
-4.7802225e-12
-0.0001982112
0.00027926479
-4.671358e-12
-0.00022926561
0.00028105258
-4.5672004e-12
-0.00026014368
0.00027831438
-4.4078384e-12
-0.00029051967
0.00027128013
-4.1910364e-12
-0.00032008482
0.00026008027
-3.9445207e-12
-0.00034853317
0.00024477469
-3.6830992e-12
-0.00037554993
0.00022538398
-3.3926304e-12
-0.00040080218
0.00020192074
-3.0367774e-12
-0.0004239316
0.0001744199
-2.5841964e-12
-0.0004445493
0.00014296743
-2.0408733e-12
-0.00046223321
0.00010772761
-1.4547635e-12
-0.00047652862
6.8969439e-05
-8.7361611e-13
-0.00048695287
2.7092264e-05
-2.9256469e-13
-0.00049300564
-1.7349464e-05
3.3812344e-13
-0.00049418565
-6.3623083e-05
1.0825983e-12
-0.00049001583
-0.00011079838
1.8954009e-12
-0.00048007774
-0.00015773523
2.6318006e-12
-0.00046405565
-0.00020308243
3.1728116e-12
-0.00044178975
-0.00024529386
3.540185e-12
-0.00041333576
-0.00028266847
3.850368e-12
-0.00037902597
-0.00031342076
4.1372995e-12
-0.00033952333
-0.00033578666
4.2714919e-12
-0.0002958575
-0.00034816549
4.117834e-12
-0.00024942979
-0.00034929202
3.767964e-12
-0.00020197497
-0.0003384223
3.5067921e-12
-0.00015547284
-0.00031550696
3.2596272e-12
-0.00011201159
-0.00028131723
2.3744785e-12
-7.3617493e-05
-0.00023749039
2.9179455e-12
-4.2077002e-05
-0.00018647168
1.0080538e-11
-1.8784004e-05
-0.00013134285
4.0374224e-12
-4.6400121e-06
-7.5568792e-05
-3.7293606e-11
-2.2855461e-05
3.868401e-11
-4.590284e-06
3.944643e-05
-3.8195464e-11
-1.6552689e-05
0.00010658653
3.7989482e-11
-3.4333349e-05
0.00016239563
-3.7064457e-12
-5.6610888e-05
0.00020767517
-1.0930633e-11
-8.2277188e-05
0.00024341871
-4.7742568e-12
-0.00011041819
0.00027067133
-4.3592579e-12
-0.00014028892
0.00029043335
-5.0685266e-12
-0.00017128552
0.00030359474
-5.0946128e-12
-0.00020291689
0.00031089617
-4.9943614e-12
-0.00023477769
0.00031291339
-4.9198632e-12
-0.00026652359
0.00031006028
-4.8035027e-12
-0.00029784946
0.000302606
-4.6188492e-12
-0.00032847061
0.00029070142
-4.3755002e-12
-0.00035810672
0.00027441082
-4.0968158e-12
-0.00038646825
0.00025374551
-3.8003104e-12
-0.00041324485
0.00022869734
-3.478102e-12
-0.00043809568
0.00019927072
-3.0935201e-12
-0.00046064153
0.00016551327
-2.605761e-12
-0.00048045932
0.0001275454
-2.0108266e-12
-0.00049707946
8.5589588e-05
-1.3560506e-12
-0.00050998719
4.0000007e-05
-7.037199e-13
-0.00051862938
-8.707274e-06
-6.6414218e-14
-0.00052242834
-5.9824136e-05
6.1145374e-13
-0.00052080464
-0.0001124221
1.3966468e-12
-0.0005132109
-0.00016532896
2.2466109e-12
-0.00049917822
-0.0002171151
3.0133423e-12
-0.00047837548
-0.00026609658
3.5676749e-12
-0.00045068059
-0.00031036337
3.9152846e-12
-0.00041625891
-0.00034784246
4.1505265e-12
-0.00037564087
-0.00037640472
4.2933018e-12
-0.00032978532
-0.00039402103
4.2402591e-12
-0.00028011189
-0.00039896543
3.9550951e-12
-0.00022848372
-0.00039005048
3.625381e-12
-0.00017712616
-0.00036686454
3.1955728e-12
-0.00012847766
-0.00032996574
2.0403268e-12
-8.4985585e-05
-0.00028098246
2.6900113e-12
-4.8878639e-05
-0.00022257863
1.1240452e-11
-2.1960824e-05
-0.00015826066
4.2299128e-12
-5.4696783e-06
-9.2059893e-05
-4.4401788e-11
-2.8325183e-05
4.5053448e-11
-4.6407202e-06
4.4087188e-05
-3.8780578e-11
-1.6747989e-05
0.00011869376
3.8287896e-11
-3.4756313e-05
0.00018040396
-3.9181962e-12
-5.7328464e-05
0.00023024734
-1.1240999e-11
-8.3339268e-05
0.00026942952
-5.0427826e-12
-0.00011185972
0.00029919179
-4.6610603e-12
-0.00014213476
0.00032070839
-5.4064499e-12
-0.00017355703
0.00033501702
-5.442227e-12
-0.00020563945
0.00034297859
-5.3364411e-12
-0.00023798811
0.00034526205
-5.2613176e-12
-0.00027027702
0.0003423492
-5.1657275e-12
-0.0003022252
0.00033455419
-5.0187983e-12
-0.00033357654
0.00032205276
-4.8053836e-12
-0.00036408207
0.00030491636
-4.5262678e-12
-0.00039348459
0.00028314805
-4.2011349e-12
-0.00042150501
0.00025671777
-3.8529945e-12
-0.00044783032
0.00022559604
-3.4829536e-12
-0.00047210323
0.00018978617
-3.0564634e-12
-0.00049391354
0.00014935571
-2.5249773e-12
-0.00051279209
0.00010446813
-1.873433e-12
-0.00052820808
5.5416014e-05
-1.1474539e-12
-0.00053957139
2.656053e-06
-4.1630037e-13
-0.00054624183
-5.3153698e-05
2.7795856e-13
-0.00054754741
-0.00011111653
1.0085963e-12
-0.00054281501
-0.00017006138
1.8312661e-12
-0.00053141581
-0.0002285143
2.6998716e-12
-0.00051282804
-0.00028468433
3.4650197e-12
-0.00048671736
-0.00033647404
3.9942868e-12
-0.00045303246
-0.00038152738
4.2765838e-12
-0.00041210824
-0.00041732895
4.3733943e-12
-0.00036476275
-0.00044136653
4.2944816e-12
-0.00031236681
-0.00045136136
4.0338389e-12
-0.0002568608
-0.00044555649
3.7082141e-12
-0.0002006938
-0.00042303154
3.1529303e-12
-0.00014667114
-0.00038398842
1.6671049e-12
-9.771741e-05
-0.0003299362
2.370323e-12
-5.6590334e-05
-0.00026370572
1.251768e-11
-2.5605327e-05
-0.00018924567