/*--------------------------------*- C++ -*----------------------------------*\
  =========                 |
  \\      /  F ield         | OpenFOAM: The Open Source CFD Toolbox
   \\    /   O peration     | Website:  https://openfoam.org
    \\  /    A nd           | Version:  7
     \\/     M anipulation  |
\*---------------------------------------------------------------------------*/
FoamFile
{
    version     2.0;
    format      ascii;
    class       surfaceScalarField;
    location    "41";
    object      phi_0;
}
// * * * * * * * * * * * * * * * * * * * * * * * * * * * * * * * * * * * * * //

dimensions      [0 3 -1 0 0 0 0];

internalField   nonuniform List<scalar> 
45600
(
2.7514566e-07
-2.8226317e-07
-7.9898515e-11
4.0332292e-07
-1.2815182e-07
-2.5136215e-11
1.3255606e-07
2.7077404e-07
-6.8471435e-12
-5.6230997e-07
6.9486744e-07
-1.6043343e-12
-1.6393112e-06
1.0769976e-06
3.5059918e-12
-3.0276216e-06
1.3883044e-06
6.9877247e-12
-4.6524639e-06
1.6248345e-06
9.2796479e-12
-6.4450963e-06
1.7926221e-06
1.0891007e-11
-8.3454236e-06
1.9003146e-06
1.202594e-11
-1.0301444e-05
1.9560067e-06
1.2781265e-11
-1.2267404e-05
1.965947e-06
1.3217457e-11
-1.4201583e-05
1.9341675e-06
1.3362077e-11
-1.606424e-05
1.8626454e-06
1.3220119e-11
-1.7816029e-05
1.7517758e-06
1.278647e-11
-1.9417056e-05
1.6010143e-06
1.2053074e-11
-2.0826662e-05
1.4095928e-06
1.1014917e-11
-2.2003912e-05
1.1772402e-06
9.6722433e-12
-2.2908773e-05
9.0485602e-07
8.0235746e-12
-2.350387e-05
5.9509479e-07
6.0646155e-12
-2.3756702e-05
2.5282868e-07
3.7986632e-12
-2.3642141e-05
-1.1456548e-07
1.2722788e-12
-2.3145013e-05
-4.971326e-07
-1.4187971e-12
-2.2262582e-05
-8.8242813e-07
-4.1532116e-12
-2.1006625e-05
-1.2559437e-06
-6.8157873e-12
-1.9404866e-05
-1.6017387e-06
-9.3278757e-12
-1.7501553e-05
-1.9032972e-06
-1.1618782e-11
-1.5356967e-05
-2.1445826e-06
-1.3568937e-11
-1.3045759e-05
-2.3112103e-06
-1.4973789e-11
-1.0654109e-05
-2.391639e-06
-1.5615354e-11
-8.2758205e-06
-2.3782533e-06
-1.5406971e-11
-6.0075595e-06
-2.2682182e-06
-1.4467039e-11
-3.9435158e-06
-2.0640266e-06
-1.298931e-11
-2.1697773e-06
-1.7737606e-06
-1.099098e-11
-7.5855148e-07
-1.4112553e-06
-8.2470482e-12
2.3819055e-07
-9.967299e-07
-4.7547157e-12
7.9654354e-07
-5.5829517e-07
-1.3613357e-12
9.293019e-07
-1.3271852e-07
1.9761812e-12
7.056152e-07
2.2364144e-07
5.3493603e-12
2.9047909e-07
4.1502476e-07
8.7573981e-12
2.9041678e-07
2.0730354e-12
1.3287804e-07
-4.1511844e-07
-2.2533044e-11
-3.0169238e-07
3.0643354e-07
-1.4263584e-11
-1.6154063e-06
1.5845019e-06
-1.2450906e-11
-3.8747104e-06
2.9541863e-06
-1.3211519e-11
-7.0073438e-06
4.2096456e-06
-1.4384359e-11
-1.0879753e-05
5.2607292e-06
-1.5926609e-11
-1.5335166e-05
6.0802656e-06
-1.7349002e-11
-2.0216004e-05
6.6734798e-06
-1.836617e-11
-2.5374062e-05
7.0583935e-06
-1.8936901e-11
-3.0673275e-05
7.2552392e-06
-1.9074902e-11
-3.5988543e-05
7.2812327e-06
-1.879443e-11
-4.1202831e-05
7.1484729e-06
-1.8111107e-11
-4.6203975e-05
6.8638062e-06
-1.704042e-11
-5.0882103e-05
6.4299214e-06
-1.5595652e-11
-5.5128235e-05
5.8471626e-06
-1.3791418e-11
-5.8834322e-05
5.1156925e-06
-1.1643449e-11
-6.1894806e-05
4.237732e-06
-9.1593174e-12
-6.4209614e-05
3.2196657e-06
-6.3449705e-12
-6.5688364e-05
2.0738469e-06
-3.211615e-12
-6.6255473e-05
8.1994184e-07
1.6858971e-13
-6.5855984e-05
-5.140489e-07
3.6777207e-12
-6.4460807e-05
-1.8923129e-06
7.2336362e-12
-6.2072477e-05
-3.2707757e-06
1.0690975e-11
-5.8729093e-05
-4.5993554e-06
1.3984606e-11
-5.4507083e-05
-5.8237715e-06
1.7047856e-11
-4.952191e-05
-6.8884782e-06
1.973577e-11
-4.3926392e-05
-7.7400975e-06
2.1814016e-11
-3.7906439e-05
-8.3311764e-06
2.3067848e-11
-3.1674137e-05
-8.6239864e-06
2.345707e-11
-2.5458409e-05
-8.594043e-06
2.3140343e-11
-1.9493627e-05
-8.2330313e-06
2.2275177e-11
-1.4006723e-05
-7.5509099e-06
2.0777673e-11
-9.2032691e-06
-6.5771776e-06
1.8381591e-11
-5.2528792e-06
-5.3616632e-06
1.5067822e-11
-2.2739877e-06
-3.975706e-06
1.1381723e-11
-3.1731479e-07
-2.5150403e-06
7.9704222e-12
6.570203e-07
-1.1070092e-06
4.7029908e-12
8.0368264e-07
7.7125366e-08
3.5468294e-12
4.1790514e-07
8.0093371e-07
4.4766285e-12
7.0827186e-07
-3.0837929e-12
-2.7358789e-07
-1.415176e-07
-1.2549362e-11
-1.6274863e-06
1.6603391e-06
-7.324809e-12
-4.2894069e-06
4.2464315e-06
-8.6430162e-12
-8.2746787e-06
6.9394669e-06
-7.2246086e-12
-1.3474418e-05
9.4093914e-06
-5.2522469e-12
-1.9708721e-05
1.1495037e-05
-4.1834662e-12
-2.6765751e-05
1.3137298e-05
-3.4934937e-12
-3.4426617e-05
1.4334349e-05
-2.9120651e-12
-4.2478631e-05
1.5110411e-05
-2.4163733e-12
-5.072045e-05
1.5497062e-05
-1.9805628e-12
-5.8962295e-05
1.552308e-05
-1.5723867e-12
-6.7023691e-05
1.520987e-05
-1.1707971e-12
-7.4730534e-05
1.4570648e-05
-7.634574e-13
-8.1912722e-05
1.3612109e-05
-3.4195368e-13
-8.8403151e-05
1.2337592e-05
9.2558767e-14
-9.4038479e-05
1.0751023e-05
5.2285162e-13
-9.8661797e-05
8.8610525e-06
9.2396987e-13
-0.0001021271
6.6849627e-06
1.279292e-12
-0.00010430523
4.2519732e-06
1.6010624e-12
-0.00010509101
1.6057152e-06
1.9099643e-12
-0.00010441065
-1.1944114e-06
2.2122273e-12
-0.00010222946
-4.0734935e-06
2.4632497e-12
-9.8558517e-05
-6.9417109e-06
2.6014381e-12
-9.3460001e-05
-9.6978769e-06
2.6144947e-12
-8.7050397e-05
-1.2233393e-05
2.5697947e-12
-7.9501008e-05
-1.4437882e-05
2.5720851e-12
-7.1035291e-05
-1.6205809e-05
2.6550291e-12
-6.1922724e-05
-1.744372e-05
2.717028e-12
-5.2469135e-05
-1.8077558e-05
2.6132963e-12
-4.300367e-05
-1.8059526e-05
2.3574379e-12
-3.3862832e-05
-1.7373913e-05
2.1947277e-12
-2.5372252e-05
-1.6041514e-05
2.3752581e-12
-1.7826896e-05
-1.41225e-05
2.8185843e-12
-1.1470388e-05
-1.1718112e-05
3.1149172e-12
-6.4738328e-06
-8.9722528e-06
3.0119932e-12
-2.9140409e-06
-6.0749119e-06
2.7299792e-12
-7.5126506e-07
-3.2698864e-06
2.6193999e-12
1.9431675e-07
-8.6847895e-07
3.6137224e-12
2.6552726e-07
7.2980752e-07
5.7459925e-12
9.7378619e-07
8.4331089e-13
-7.458489e-07
6.0434498e-07
-1.2802255e-11
-3.1796403e-06
4.0941319e-06
-1.3645964e-12
-7.3461118e-06
8.4129093e-06
-6.8235416e-12
-1.3163066e-05
1.2756428e-05
-6.1812247e-12
-2.045583e-05
1.670216e-05
-3.5577248e-12
-2.8992647e-05
2.0031858e-05
-2.2235337e-12
-3.851389e-05
2.2658542e-05
-1.3500452e-12
-4.875269e-05
2.4573149e-05
-5.6728728e-13
-5.9446996e-05
2.5804717e-05
8.4402797e-14
-7.0344848e-05
2.6394914e-05
6.1697972e-13
-8.1205141e-05
2.6383374e-05
1.0619558e-12
-9.1795994e-05
2.5800722e-05
1.4343615e-12
-0.00010189242
2.4667077e-05
1.7403879e-12
-0.00011127464
2.2994324e-05
1.9877223e-12
-0.0001197278
2.079074e-05
2.1878918e-12
-0.00012704362
1.8066848e-05
2.3451948e-12
-0.00013302417
1.4841603e-05
2.4432579e-12
-0.00013748743
1.1148219e-05
2.4459995e-12
-0.00014027452
7.0390683e-06
2.3295611e-12
-0.00014125806
2.5892474e-06
2.1152491e-12
-0.00014035079
-2.1016974e-06
1.8667639e-12
-0.0001375144
-6.9098836e-06
1.5907522e-12
-0.00013276703
-1.1689067e-05
1.2777792e-12
-0.00012618931
-1.6275587e-05
8.7323757e-13
-0.00011792788
-2.0494817e-05
3.5380597e-13
-0.00010819591
-2.4169868e-05
-1.9136593e-13
-9.7269886e-05
-2.7131858e-05
-5.8572768e-13
-8.5482428e-05
-2.9231177e-05
-7.1712123e-13
-7.3210953e-05
-3.0349001e-05
-6.7387505e-13
-6.0862254e-05
-3.0408191e-05
-6.669264e-13
-4.8853439e-05
-2.9382736e-05
-7.5023965e-13
-3.7589911e-05
-2.7305094e-05
-6.542129e-13
-2.7441343e-05
-2.4271107e-05
-3.2302055e-14
-1.8716711e-05
-2.0442711e-05
1.055912e-12
-1.1639443e-05
-1.6049437e-05
2.0676149e-12
-6.323541e-06
-1.139077e-05
2.5861588e-12
-2.751536e-06
-6.8419424e-06
2.9324615e-12
-7.571864e-07
-2.8629013e-06
3.6518064e-12
-9.5326242e-09
-1.7837866e-08
4.5488023e-12
9.6427147e-07
3.8648027e-12
-1.2279696e-06
1.8323295e-06
-1.4332541e-11
-4.7881152e-06
7.6542741e-06
4.616646e-12
-1.052155e-05
1.414635e-05
-5.9583109e-12
-1.8214343e-05
2.0449227e-05
-7.0711745e-12
-2.7603948e-05
2.609177e-05
-4.6900047e-12
-3.8396306e-05
3.0824223e-05
-3.9582741e-12
-5.0283062e-05
3.4545304e-05
-3.6200793e-12
-6.295479e-05
3.724488e-05
-3.1659156e-12
-7.6109044e-05
3.8958973e-05
-2.7195062e-12
-8.945378e-05
3.9739651e-05
-2.3011572e-12
-0.00010270748
3.9637075e-05
-1.8837811e-12
-0.00011559754
3.8690783e-05
-1.4604681e-12
-0.00012785835
3.6927892e-05
-1.0378999e-12
-0.0001392302
3.4366179e-05
-6.2439143e-13
-0.00014945975
3.1020288e-05
-2.1843589e-13
-0.00015830248
2.6909572e-05
1.9571668e-13
-0.00016552724
2.2066365e-05
6.3076968e-13
-0.00017092275
1.6543729e-05
1.0690822e-12
-0.00017430559
1.0421917e-05
1.4637244e-12
-0.00017552935
3.8130086e-06
1.775085e-12
-0.00017449413
-3.1369299e-06
2.0104754e-12
-0.00017115589
-1.0248135e-05
2.2118058e-12
-0.00016553481
-1.7310153e-05
2.4297666e-12
-0.00015772191
-2.4088481e-05
2.644963e-12
-0.00014788319
-3.0333514e-05
2.7577974e-12
-0.00013626059
-3.5792468e-05
2.6844198e-12
-0.00012316896
-4.022351e-05
2.4851775e-12
-0.00010898873
-4.3411439e-05
2.365709e-12
-9.4153821e-05
-4.5183921e-05
2.4830947e-12
-7.913486e-05
-4.542712e-05
2.733808e-12
-6.4418048e-05
-4.4099505e-05
2.8139903e-12
-5.0480346e-05
-4.1242798e-05
2.5922905e-12
-3.7762143e-05
-3.6989374e-05
2.3733488e-12
-2.6638853e-05
-3.1566064e-05
2.5802131e-12
-1.7393194e-05
-2.5295085e-05
3.1510586e-12
-1.0189902e-05
-1.8593992e-05
3.6594937e-12
-5.0547117e-06
-1.1977102e-05
4.0900672e-12
-1.8598413e-06
-6.0578159e-06
3.4551453e-12
-3.2224739e-07
-1.5554574e-06
4.1550606e-13
6.4203375e-07
5.9863027e-12
-1.693171e-06
3.5255168e-06
-1.6845501e-11
-6.3714148e-06
1.2332509e-05
1.0020959e-11
-1.3671459e-05
2.1446401e-05
-4.9989685e-12
-2.3234066e-05
3.0011841e-05
-7.1818698e-12
-3.4695251e-05
3.7552957e-05
-4.4717143e-12
-4.7689829e-05
4.3818805e-05
-3.9057621e-12
-6.1857529e-05
4.871301e-05
-3.7798508e-12
-7.6848071e-05
5.2235427e-05
-3.4204813e-12
-9.2323873e-05
5.4434779e-05
-3.0306381e-12
-0.00010796028
5.5376055e-05
-2.6596707e-12
-0.00012344397
5.5120772e-05
-2.2766862e-12
-0.0001384707
5.3717512e-05
-1.8680011e-12
-0.00015274323
5.1200427e-05
-1.4342364e-12
-0.00016597054
4.7593495e-05
-9.8908846e-13
-0.00017786874
4.2918491e-05
-5.5120093e-13
-0.00018816405
3.7204883e-05
-1.2483704e-13
-0.0001965979
3.0500202e-05
3.0961197e-13
-0.00020293384
2.2879673e-05
7.7262213e-13
-0.00020696615
1.4454222e-05
1.2517392e-12
-0.0002085293
5.3761664e-06
1.6936811e-12
-0.00020750812
-4.1581052e-06
2.038171e-12
-0.00020384768
-1.390858e-05
2.276868e-12
-0.00019756247
-2.3595374e-05
2.4672286e-12
-0.00018874398
-3.2906989e-05
2.6903185e-12
-0.0001775659
-4.1511588e-05
2.9476402e-12
-0.00016428626
-4.9072087e-05
3.1194777e-12
-0.0001492455
-5.5264252e-05
3.0728156e-12
-0.0001328599
-5.9797063e-05
2.8464277e-12
-0.00011560969
-6.2434175e-05
2.6892492e-12
-9.8021783e-05
-6.3015044e-05
2.8255682e-12
-8.0647235e-05
-6.147402e-05
3.1584025e-12
-6.403416e-05
-5.7855816e-05
3.313627e-12
-4.8697422e-05
-5.23261e-05
3.1043738e-12
-3.5086903e-05
-4.517664e-05
2.8224486e-12
-2.3556703e-05
-3.6825348e-05
2.859651e-12
-1.4337883e-05
-2.7812803e-05
3.431388e-12
-7.5174684e-06
-1.8797467e-05
4.6560695e-12
-3.0267134e-06
-1.0548571e-05
3.6943822e-12
-6.424994e-07
-3.9396949e-06
-2.0273143e-12
-4.7214812e-10
8.38506e-12
-2.1329392e-06
5.6584748e-06
-1.9627559e-11
-7.8910807e-06
1.8090636e-05
1.4802606e-11
-1.6717411e-05
3.0272737e-05
-4.2573867e-12
-2.8105747e-05
4.1400186e-05
-7.2328287e-12
-4.1585097e-05
5.103231e-05
-4.0290667e-12
-5.6714144e-05
5.8947855e-05
-3.510364e-12
-7.3078288e-05
6.5077157e-05
-3.5175641e-12
-9.0287097e-05
6.9444241e-05
-3.2010306e-12
-0.00010797133
7.2119017e-05
-2.8279745e-12
-0.00012577927
7.3184003e-05
-2.4775562e-12
-0.00014337275
7.2714246e-05
-2.1238693e-12
-0.00016042342
7.0768187e-05
-1.7532316e-12
-0.00017661019
6.7387197e-05
-1.3550817e-12
-0.00019161814
6.2601446e-05
-9.2608963e-13
-0.00020513951
5.6439868e-05
-4.8336431e-13
-0.00021687684
4.8942211e-05
-5.6610698e-14
-0.00022654815
4.0171508e-05
3.4210576e-13
-0.00023389407
3.022559e-05
7.3290598e-13
-0.00023868651
1.9246653e-05
1.1466303e-12
-0.00024073842
7.4280856e-06
1.5824282e-12
-0.00023991437
-4.9821548e-06
1.9843495e-12
-0.00023614102
-1.7681921e-05
2.2799838e-12
-0.00022941746
-3.0318929e-05
2.4308521e-12
-0.00021982416
-4.2500315e-05
2.505996e-12
-0.00020752993
-5.3805837e-05
2.6282339e-12
-0.00019279611
-6.3805907e-05
2.8362709e-12
-0.0001759767
-7.2083634e-05
3.0013616e-12
-0.00015751362
-7.8260114e-05
2.9397394e-12
-0.00013792611
-8.2021698e-05
2.6585195e-12
-0.00011779373
-8.3147474e-05
2.4416384e-12
-9.7732978e-05
-8.1534812e-05
2.5765197e-12
-7.8368138e-05
-7.7220632e-05
2.98051e-12
-6.0297847e-05
-7.0396332e-05
3.2397808e-12
-4.4059498e-05
-6.1414972e-05
3.0932936e-12
-3.0094431e-05
-5.0790464e-05
2.7550641e-12
-1.8717285e-05
-3.9189995e-05
3.0638457e-12
-1.0093055e-05
-2.7421683e-05
4.8968602e-12
-4.2253005e-06
-1.6416301e-05
3.8327951e-12
-9.5848044e-07
-7.2065112e-06
-4.6477614e-12
-9.5897238e-07
1.0375059e-11
-2.5450551e-06
8.2035525e-06
-2.2411955e-11
-9.3288494e-06
2.487441e-05
1.9068469e-11
-1.9615368e-05
4.0559259e-05
-3.7865884e-12
-3.2756854e-05
5.4541682e-05
-7.4940698e-12
-4.8175892e-05
6.6451352e-05
-3.8168278e-12
-6.5354097e-05
7.6126063e-05
-3.3493735e-12
-8.3822147e-05
8.3545209e-05
-3.5087277e-12
-0.00010315063
8.8772727e-05
-3.2663102e-12
-0.00012294163
9.1910019e-05
-2.9331256e-12
-0.00014282096
9.3063341e-05
-2.6073111e-12
-0.00016243135
9.2324637e-05
-2.2697943e-12
-0.00018142688
8.9763722e-05
-1.9203397e-12
-0.00019946925
8.5429567e-05
-1.5549977e-12
-0.00021622605
7.9358241e-05
-1.1559738e-12
-0.00023137131
7.1585128e-05
-7.1390096e-13
-0.00024458832
6.2159233e-05
-2.4882345e-13
-0.00025557459
5.1157784e-05
1.9985619e-13
-0.00026404868
3.869967e-05
6.087528e-13
-0.00026975868
2.4956649e-05
9.942436e-13
-0.0002724921
1.01615e-05
1.3963529e-12
-0.00027208669
-5.3875716e-06
1.8292627e-12
-0.00026844173
-2.1326873e-05
2.2557218e-12
-0.00026152974
-3.7230897e-05
2.5615516e-12
-0.00025140738
-5.2622674e-05
2.6852532e-12
-0.00023822498
-6.6988263e-05
2.6960734e-12
-0.00022223365
-7.9797267e-05
2.7564161e-12
-0.00020378865
-9.0528638e-05
2.9504258e-12
-0.00018334762
-9.870111e-05
3.1488506e-12
-0.00016146239
-0.00010390689
3.1180635e-12
-0.00013876325
-0.00010584662
2.8263167e-12
-0.00011593535
-0.00010436276
2.576787e-12
-9.3687572e-05
-9.9468456e-05
2.7023057e-12
-7.2715446e-05
-9.1368439e-05
3.1296425e-12
-5.3660729e-05
-8.0469638e-05
3.3609196e-12
-3.7071066e-05
-6.7380118e-05
3.0444313e-12
-2.3363953e-05
-5.2897149e-05
3.0821504e-12
-1.279933e-05
-3.7986333e-05
5.1594451e-12
-5.4648807e-06
-2.3750739e-05
3.7266773e-12
-1.27725e-06
-1.1394118e-05
-7.492733e-12
-2.2362394e-06
1.2887392e-11
-2.9284817e-06
1.1132061e-05
-2.5118316e-11
-1.0673673e-05
3.2619577e-05
2.2903442e-11
-2.2336177e-05
5.2221765e-05
-3.4828675e-12
-3.7135979e-05
6.9341491e-05
-7.8640387e-12
-5.4394114e-05
8.3709492e-05
-3.7291637e-12
-7.3517631e-05
9.5249585e-05
-3.2829255e-12
-9.3984303e-05
0.00010401189
-3.5672709e-12
-0.00011532796
0.00011011639
-3.3962233e-12
-0.00013712518
0.00011370724
-3.1156817e-12
-0.00015898353
0.0001149217
-2.8280315e-12
-0.00018053178
0.00011387289
-2.5068795e-12
-0.00020141215
0.00011064409
-2.1598803e-12
-0.00022127503
0.00010529245
-1.8037696e-12
-0.00023977618
9.7859393e-05
-1.4334475e-12
-0.00025657638
8.8385322e-05
-1.0245345e-12
-0.00027134347
7.6926319e-05
-5.6066135e-13
-0.00028375659
6.3570913e-05
-6.1059879e-14
-0.00029351243
4.845552e-05
4.2691744e-13
-0.00030033322
3.1777438e-05
8.6435641e-13
-0.00030397636
1.3804632e-05
1.2535243e-12
-0.00030424558
-5.1183662e-06
1.638577e-12
-0.00030100298
-2.4569477e-05
2.0888881e-12
-0.00029418252
-4.4051348e-05
2.5413865e-12
-0.00028380325
-6.300193e-05
2.8739596e-12
-0.0002699822
-8.0809304e-05
2.9895376e-12
-0.00025294549
-9.6834e-05
2.9455051e-12
-0.00023303601
-0.00011043815
2.9402266e-12
-0.00021071602
-0.00012102111
3.1066241e-12
-0.00018656268
-0.00012806021
3.3233231e-12
-0.00016125482
-0.00013115444
3.3185213e-12
-0.00013554996
-0.00013006762
3.0315465e-12
-0.00011025148
-0.00012476698
2.7840925e-12
-8.6167408e-05
-0.00011545255
2.9273876e-12
-6.4063743e-05
-0.00010257329
3.2743162e-12
-4.4616657e-05
-8.6827166e-05
3.1927768e-12
-2.8368521e-05
-6.9145285e-05
3.2884002e-12
-1.5693159e-05
-5.0661725e-05
5.6332739e-12
-6.7752292e-06
-3.2668683e-05
3.6044021e-12
-1.6070342e-06
-1.6562293e-05
-1.0548579e-11
-3.8432853e-06
1.547207e-11
-3.2816999e-06
1.4413789e-05
-2.7703564e-11
-1.191587e-05
4.1253723e-05
2.6337435e-11
-2.4855513e-05
6.516141e-05
-3.2877685e-12
-4.1199921e-05
8.5685906e-05
-8.2820041e-12
-6.0176313e-05
0.00010268589
-3.7189686e-12
-8.1122252e-05
0.00011619553
-3.2764417e-12
-0.00010346631
0.00012635594
-3.6505783e-12
-0.00012670888
0.00013335897
-3.525528e-12
-0.00015040465
0.00013740301
-3.2898197e-12
-0.00017414714
0.00013866419
-3.0509771e-12
-0.00019755594
0.0001372817
-2.7656755e-12
-0.00022026669
0.00013335484
-2.4291158e-12
-0.00024192389
0.00012694966
-2.064699e-12
-0.00026217668
0.00011811219
-1.6935157e-12
-0.00028067717
0.00010688581
-1.311805e-12
-0.00029708131
9.333045e-05
-8.9046871e-13
-0.00031105196
7.7541566e-05
-4.0463631e-13
-0.00032226415
5.9667709e-05
1.3339343e-13
-0.0003304122
3.9925502e-05
6.6948609e-13
-0.00033521897
1.8611404e-05
1.13271e-12
-0.00033644713
-3.8902148e-06
1.4970439e-12
-0.00033391174
-2.7104886e-05
1.9025422e-12
-0.00032749598
-5.0467123e-05
2.3466504e-12
-0.00031716689
-7.3331014e-05
2.815606e-12
-0.0003029923
-9.4983872e-05
3.1750912e-12
-0.00028515681
-0.00011466947
3.2873667e-12
-0.00026397517
-0.00013161981
3.1932297e-12
-0.00023990063
-0.00014509569
3.1189412e-12
-0.00021352585
-0.00015443501
3.2387181e-12
-0.00018557379
-0.00015910648
3.4399748e-12
-0.00015687657
-0.0001587648
3.4325462e-12
-0.00012834162
-0.00015330192
3.1648327e-12
-0.00010090607
-0.00014288814
2.9816522e-12
-7.5482493e-05
-0.0001279969
3.0817129e-12
-5.2901152e-05
-0.00010940849
3.0407804e-12
-3.3855107e-05
-8.8191307e-05
3.3818853e-12
-1.8854781e-05
-6.5662057e-05
6.2627444e-12
-8.1982673e-06
-4.3325213e-05
3.6059436e-12
-1.9611667e-06
-2.2799385e-05
-1.3820718e-11
-5.8044656e-06
1.8147172e-11
-3.6023037e-06
1.8016122e-05
-3.0125853e-11
-1.3044873e-05
5.0696264e-05
2.9362328e-11
-2.7149289e-05
7.9265831e-05
-3.1867324e-12
-4.490717e-05
0.0001034438
-8.7263703e-12
-6.5461506e-05
0.00012324023
-3.7785832e-12
-8.8087234e-05
0.00013882126
-3.343882e-12
-0.0001121688
0.00015043752
-3.7943314e-12
-0.00013717742
0.00015836759
-3.6956881e-12
-0.00016264988
0.00016287547
-3.4837461e-12
-0.00018816993
0.00016418425
-3.2837793e-12
-0.00021335264
0.00016246441
-3.0465319e-12
-0.00023783203
0.00015783423
-2.74852e-12
-0.00026125191
0.00015036954
-2.3933889e-12
-0.00028325983
0.00014012012
-2.0050745e-12
-0.00030350382
0.00012712981
-1.6100918e-12
-0.00032163166
0.00011145829
-1.2096698e-12
-0.00033729244
9.3202346e-05
-7.7243201e-13
-0.00035014038
7.2515644e-05
-2.6258666e-13
-0.00035984079
4.9625912e-05
3.1732338e-13
-0.00036607842
2.4849046e-05
8.9028113e-13
-0.00036856896
-1.3996716e-06
1.3359821e-12
-0.00036707133
-2.8602512e-05
1.8065212e-12
-0.00036140637
-5.6132111e-05
2.1892957e-12
-0.00035147458
-8.3262816e-05
2.6112853e-12
-0.00033727783
-0.00010918063
3.0860749e-12
-0.0003189409
-0.00013300637
3.4626615e-12
-0.00029673173
-0.00015382896
3.5710737e-12
-0.00027107725
-0.00017075018
3.4359428e-12
-0.00024257163
-0.00018294067
3.3006998e-12
-0.00021197329
-0.00018970485
3.3621888e-12
-0.0001801876
-0.00019055047
3.5115388e-12
-0.0001482333
-0.00018525619
3.4825589e-12
-0.00011719275
-0.0001739287
3.2786774e-12
-8.8148958e-05
-0.00015704072
3.0973129e-12
-6.2115396e-05
-0.00013544207
2.810638e-12
-3.9966493e-05
-0.0001103402
3.2792948e-12
-2.2377606e-05
-8.3250935e-05
6.8916339e-12
-9.7826881e-06
-5.5920135e-05
3.6945445e-12
-2.3546977e-06
-3.0227365e-05
-1.7352869e-11
-8.1591847e-06
2.1122809e-11
-3.8870509e-06
2.1903204e-05
-3.2332403e-11
-1.4048661e-05
6.0857842e-05
3.1966099e-11
-2.9192053e-05
9.4409229e-05
-3.1768315e-12
-4.8215264e-05
0.00012246702
-9.1850484e-12
-7.0187842e-05
0.00014521281
-3.8887832e-12
-9.4330061e-05
0.00016296348
-3.4671545e-12
-0.00011998821
0.00017609568
-3.9963343e-12
-0.00014660908
0.00018498846
-3.9253507e-12
-0.00017371588
0.00018998228
-3.7254438e-12
-0.00020088685
0.00019135522
-3.5419648e-12
-0.00022773708
0.00018931464
-3.3373287e-12
-0.0002539038
0.00018400095
-3.0889162e-12
-0.00027903519
0.00017550094
-2.7787673e-12
-0.00030278231
0.00016386724
-2.4028245e-12
-0.00032479396
0.00014914146
-1.9842665e-12
-0.00034471403
0.00013137837
-1.5557459e-12
-0.00036218125
0.00011066956
-1.126848e-12
-0.00037683113
8.7165518e-05
-6.6881919e-13
-0.00038830042
6.1095189e-05
-1.3554977e-13
-0.00039623427
3.2782902e-05
4.9635889e-13
-0.00040029638
2.6624434e-06
1.1861654e-12
-0.00040018387
-2.871501e-05
1.7122449e-12
-0.00039564404
-6.0671937e-05
2.1354998e-12
-0.00038649735
-9.2409523e-05
2.4942456e-12
-0.00037266263
-0.00012301537
2.8959539e-12
-0.00035418498
-0.00015148403
3.3598572e-12
-0.00033126379
-0.00017675012
3.73192e-12
-0.00030427782
-0.00019773613
3.8231441e-12
-0.00027380298
-0.00021341552
3.6496074e-12
-0.00024061831
-0.00022288955
3.4602958e-12
-0.0002056952
-0.0002254736
3.4508904e-12
-0.00017016638
-0.00022078499
3.5322276e-12
-0.00013527316
-0.00020882189
3.5131947e-12
-0.00010229332
-0.00019002057
3.2869152e-12
-7.2455937e-05
-0.00016527948
2.7133972e-12
-4.6853301e-05
-0.00013594285
3.1269284e-12
-2.6361365e-05
-0.00010374287
7.4928806e-12
-1.1580439e-05
-7.0701055e-05
3.7743599e-12
-2.8033133e-06
-3.9004469e-05
-2.1296756e-11
-1.0962525e-05
2.4561306e-11
-4.1321165e-06
2.6035355e-05
-3.4272866e-11
-1.4914098e-05
7.1639787e-05
3.4145207e-11
-3.0957131e-05
0.00011045227
-3.247526e-12
-5.1080654e-05
0.00014259055
-9.6547131e-12
-7.4292272e-05
0.00016842443
-4.0452146e-12
-9.9766124e-05
0.00018843734
-3.6272912e-12
-0.00012681669
0.00020314624
-4.2301038e-12
-0.0001548713
0.00021304308
-4.1981344e-12
-0.00018344394
0.00021855491
-4.0203951e-12
-0.0002121115
0.00022002279
-3.8468186e-12
-0.00024049344
0.00021769659
-3.6500217e-12
-0.00026823493
0.00021174245
-3.4283182e-12
-0.00029499352
0.00020225953
-3.1699772e-12
-0.00032042905
0.00018930277
-2.8476092e-12
-0.0003441964
0.00017290882
-2.4490277e-12
-0.00036594074
0.00015312271
-1.9941926e-12
-0.00038529504
0.00013002388
-1.5218968e-12
-0.00040188
0.00010375048
-1.0551592e-12
-0.00041530643
7.4521614e-05
-5.7106943e-13
-0.00042518077
4.2657227e-05
4.2131001e-15
-0.00043111397
8.5956352e-06
7.2356549e-13
-0.00043273622
-2.7092751e-05
1.3807716e-12
-0.00042971415
-6.3693987e-05
1.9953546e-12
-0.00042177617
-0.0001003475
2.4636779e-12
-0.00040874171
-0.00013604984
2.8233468e-12
-0.00039055539
-0.00016967038
3.202494e-12
-0.00036732351
-0.00019998201
3.6357226e-12
-0.0003393498
-0.00022570983
3.9716001e-12
-0.00030716535
-0.00024559994
4.0197187e-12
-0.00027154682
-0.00025850809
3.7992426e-12
-0.00023351601
-0.00026350444
3.5528811e-12
-0.00019431499
-0.00025998603
3.476856e-12
-0.00015535291
-0.00024778396
3.5320547e-12
-0.00011812526
-0.00022724821
3.4122432e-12
-8.4111825e-05
-0.00019929291
2.7067139e-12
-5.4665483e-05
-0.00016538921
3.0543884e-12
-3.0907345e-05
-0.00012750102
8.1765912e-12
-1.3644698e-05
-8.7963701e-05
3.8218899e-12
-3.3229907e-06
-4.9326146e-05
-2.584624e-11
-1.4285545e-05
2.8566858e-11
-4.3334534e-06
3.0368846e-05
-3.5913018e-11
-1.5627794e-05
8.2934091e-05
3.5893266e-11
-3.2417911e-05
0.00012724239
-3.372749e-12
-5.3460308e-05
0.00016363296
-1.0121673e-11
-7.771246e-05
0.00019267659
-4.2532139e-12
-0.000104311
0.00021503588
-3.8264859e-12
-0.00013254491
0.00023138016
-4.4809956e-12
-0.00016182693
0.00024232511
-4.486238e-12
-0.00019166588
0.00024839386
-4.3455391e-12
-0.00022164124
0.00024999816
-4.1991211e-12
-0.00025138097
0.00024743632
-4.0092866e-12
-0.00028054264
0.00024090413
-3.7874631e-12
-0.00030879821
0.0002305151
-3.5489356e-12
-0.00033582178
0.00021632634
-3.2781649e-12
-0.00036128018
0.00019836722
-2.9416503e-12
-0.00038482595
0.00017666849
-2.5180899e-12
-0.00040609256
0.00015129049
-2.0213577e-12
-0.00042469178
0.00012234972
-1.4967515e-12
-0.00044021384
9.0043683e-05
-9.8092192e-13
-0.00045223064
5.4674025e-05
-4.5144019e-13
-0.00046030303
1.6668012e-05
1.6283622e-13
-0.00046399358
-2.3402218e-05
8.5248386e-13
-0.00046288449
-6.4803073e-05
1.6122257e-12
-0.0004566034
-0.00010662857
2.2995831e-12
-0.00044485608
-0.00014779716
2.8074218e-12
-0.00042746612
-0.00018706035
3.1732398e-12
-0.00040442022
-0.00022302794
3.5254308e-12
-0.00037591562
-0.00025421445
3.9029904e-12
-0.00034240457
-0.00027911096
4.1628799e-12
-0.00030462861
-0.00029628404
4.1321216e-12
-0.00026363337
-0.00030449968
3.8449243e-12
-0.00022075513
-0.00030286429
3.5538626e-12
-0.00017757164
-0.00029096746
3.4722855e-12
-0.00013581501
-0.00026900483
3.3689682e-12
-9.7251927e-05
-0.00023785598
2.6177047e-12
-6.3544837e-05
-0.0001990963
3.0241006e-12
-3.6114692e-05
-0.00015493118
9.042316e-12
-1.6028561e-05
-0.00010804984
3.8953985e-12
-3.9298363e-06
-6.1424836e-05
-3.1145355e-11
-1.8215413e-05
3.323445e-11
-4.4872235e-06
3.4856108e-05
-3.7229579e-11
-1.6177324e-05
9.4624155e-05
3.7185931e-11
-3.35499e-05
0.00014461497
-3.5275594e-12
-5.5314557e-05
0.00018539762
-1.0555997e-11
-8.039037e-05
0.00021775241
-4.5045663e-12
-0.0001078848
0.00024253032
-4.0732552e-12
-0.00013706725
0.00026056261
-4.7569814e-12
-0.00016734027
0.00027259813
-4.7802225e-12
-0.0001982112
0.00027926479
-4.671358e-12
-0.00022926561
0.00028105258
-4.5672004e-12
-0.00026014368
0.00027831438
-4.4078384e-12
-0.00029051967
0.00027128013
-4.1910364e-12
-0.00032008482
0.00026008027
-3.9445207e-12
-0.00034853317
0.0002447747
-3.6830992e-12
-0.00037554993
0.00022538398
-3.3926304e-12
-0.00040080218
0.00020192074
-3.0367774e-12
-0.0004239316
0.0001744199
-2.5841964e-12
-0.0004445493
0.00014296742
-2.0408733e-12
-0.00046223321
0.0001077276
-1.4547635e-12
-0.00047652862
6.8969439e-05
-8.7361611e-13
-0.00048695287
2.7092266e-05
-2.9256469e-13
-0.00049300564
-1.7349462e-05
3.3812344e-13
-0.00049418564
-6.3623084e-05
1.0825983e-12
-0.00049001583
-0.00011079838
1.8954009e-12
-0.00048007774
-0.00015773523
2.6318006e-12
-0.00046405565
-0.00020308243
3.1728116e-12
-0.00044178975
-0.00024529385
3.540185e-12
-0.00041333575
-0.00028266846
3.850368e-12
-0.00037902596
-0.00031342076
4.1372995e-12
-0.00033952333
-0.00033578666
4.2714919e-12
-0.0002958575
-0.00034816549
4.117834e-12
-0.00024942979
-0.00034929201
3.767964e-12
-0.00020197497
-0.0003384223
3.5067921e-12
-0.00015547284
-0.00031550696
3.2596272e-12
-0.00011201159
-0.00028131723
2.3744785e-12
-7.3617494e-05
-0.00023749039
2.9179455e-12
-4.2077002e-05
-0.00018647168
1.0080538e-11
-1.8784004e-05
-0.00013134284
4.0374224e-12
-4.6400117e-06
-7.5568792e-05
-3.7293606e-11
-2.2855461e-05
3.868401e-11
-4.5902841e-06
3.944643e-05
-3.8195464e-11
-1.655269e-05
0.00010658653
3.7989482e-11
-3.433335e-05
0.00016239563
-3.7064457e-12
-5.6610889e-05
0.00020767517
-1.0930633e-11
-8.2277188e-05
0.00024341871
-4.7742568e-12
-0.00011041819
0.00027067133
-4.3592579e-12
-0.00014028892
0.00029043335
-5.0685266e-12
-0.00017128552
0.00030359474
-5.0946128e-12
-0.00020291689
0.00031089617
-4.9943614e-12
-0.00023477769
0.00031291339
-4.9198632e-12
-0.00026652359
0.00031006028
-4.8035027e-12
-0.00029784946
0.000302606
-4.6188492e-12
-0.00032847061
0.00029070142
-4.3755002e-12
-0.00035810672
0.00027441082
-4.0968158e-12
-0.00038646825
0.00025374551
-3.8003104e-12
-0.00041324485
0.00022869734
-3.478102e-12
-0.00043809568
0.00019927072
-3.0935201e-12
-0.00046064153
0.00016551327
-2.605761e-12
-0.00048045932
0.0001275454
-2.0108266e-12
-0.00049707946
8.5589586e-05
-1.3560506e-12
-0.00050998719
4.0000007e-05
-7.037199e-13
-0.00051862938
-8.7072719e-06
-6.6414218e-14
-0.00052242834
-5.9824134e-05
6.1145374e-13
-0.00052080463
-0.0001124221
1.3966468e-12
-0.0005132109
-0.00016532896
2.2466109e-12
-0.00049917822
-0.0002171151
3.0133423e-12
-0.00047837549
-0.00026609658
3.5676749e-12
-0.00045068059
-0.00031036337
3.9152846e-12
-0.00041625891
-0.00034784246
4.1505265e-12
-0.00037564086
-0.00037640472
4.2933018e-12
-0.00032978532
-0.00039402103
4.2402591e-12
-0.00028011189
-0.00039896543
3.9550951e-12
-0.00022848372
-0.00039005048
3.625381e-12
-0.00017712616
-0.00036686454
3.1955728e-12
-0.00012847766
-0.00032996574
2.0403268e-12
-8.4985585e-05
-0.00028098246
2.6900113e-12
-4.8878639e-05
-0.00022257863
1.1240452e-11
-2.1960824e-05
-0.00015826066
4.2299128e-12
-5.4696782e-06
-9.2059893e-05
-4.4401788e-11
-2.8325183e-05
4.5053448e-11
-4.6407202e-06
4.4087188e-05
-3.8780578e-11
-1.6747989e-05
0.00011869376
3.8287896e-11
-3.4756314e-05
0.00018040396
-3.9181962e-12
-5.7328465e-05
0.00023024734
-1.1240999e-11
-8.3339268e-05
0.00026942952
-5.0427826e-12
-0.00011185972
0.00029919179
-4.6610603e-12
-0.00014213476
0.00032070839
-5.4064499e-12
-0.00017355703
0.00033501702
-5.442227e-12
-0.00020563945
0.00034297859
-5.3364411e-12
-0.00023798811
0.00034526205
-5.2613176e-12
-0.00027027702
0.0003423492
-5.1657275e-12
-0.0003022252
0.00033455419
-5.0187983e-12
-0.00033357654
0.00032205276
-4.8053836e-12
-0.00036408207
0.00030491636
-4.5262678e-12
-0.00039348459
0.00028314805
-4.2011349e-12
-0.00042150501
0.00025671777
-3.8529945e-12
-0.00044783032
0.00022559604
-3.4829536e-12
-0.00047210323
0.00018978618
-3.0564634e-12
-0.00049391354
0.00014935571
-2.5249773e-12
-0.00051279208
0.00010446813
-1.873433e-12
-0.00052820808
5.5416012e-05
-1.1474539e-12
-0.00053957139
2.6560532e-06
-4.1630037e-13
-0.00054624183
-5.3153696e-05
2.7795856e-13
-0.00054754741
-0.00011111653
1.0085963e-12
-0.00054281501
-0.00017006138
1.8312661e-12
-0.00053141581
-0.0002285143
2.6998716e-12
-0.00051282804
-0.00028468433
3.4650197e-12
-0.00048671736
-0.00033647404
3.9942868e-12
-0.00045303246
-0.00038152738
4.2765838e-12
-0.00041210824
-0.00041732895
4.3733943e-12
-0.00036476275
-0.00044136653
4.2944816e-12
-0.00031236681
-0.00045136136
4.0338389e-12
-0.0002568608
-0.00044555649
3.7082141e-12
-0.0002006938
-0.00042303154
3.1529303e-12
-0.00014667113
-0.00038398842
1.6671049e-12
-9.7717409e-05
-0.00032993619
2.370323e-12
-5.6590334e-05
-0.00026370572
1.251768e-11
-2.5605327e-05
-0.00018924567