/*--------------------------------*- C++ -*----------------------------------*\
  =========                 |
  \\      /  F ield         | OpenFOAM: The Open Source CFD Toolbox
   \\    /   O peration     | Website:  https://openfoam.org
    \\  /    A nd           | Version:  7
     \\/     M anipulation  |
\*---------------------------------------------------------------------------*/
FoamFile
{
    version     2.0;
    format      ascii;
    class       volVectorField;
    location    "41";
    object      U_0;
}
// * * * * * * * * * * * * * * * * * * * * * * * * * * * * * * * * * * * * * //

dimensions      [0 1 -1 0 0 0 0];

internalField   nonuniform List<vector> 
16000
(
(6.6049297e-05 -6.7327837e-05 -4.0648676e-07)
(0.00016276242 -5.6351861e-05 5.6964506e-06)
(0.00014192892 4.651444e-07 1.9196583e-05)
(-5.0613731e-05 6.1892105e-05 3.6619169e-05)
(-0.00040996812 0.00011563178 5.4727815e-05)
(-0.00090902306 0.00015774432 7.1556247e-05)
(-0.0015177095 0.00018850511 8.5768394e-05)
(-0.0022068847 0.00020960919 9.6549117e-05)
(-0.0029506004 0.0002228767 0.00010343809)
(-0.0037264643 0.00022981106 0.00010618837)
(-0.0045150504 0.00023147724 0.00010467272)
(-0.0052990131 0.00022850422 9.8828102e-05)
(-0.006062193 0.00022114761 8.8629867e-05)
(-0.006788864 0.00020938304 7.4088564e-05)
(-0.0074632161 0.00019301349 5.5262948e-05)
(-0.0080691177 0.0001717804 3.2283236e-05)
(-0.0085901708 0.00014547181 5.3793205e-06)
(-0.0090100512 0.00011402244 -2.509092e-05)
(-0.0093131035 7.7601942e-05 -5.8617575e-05)
(-0.009485149 3.6687414e-05 -9.4522901e-05)
(-0.0095144485 -7.8870166e-06 -0.0001319572)
(-0.0093927304 -5.4924671e-05 -0.00016990931)
(-0.0091162254 -0.00010284321 -0.00020723288)
(-0.0086866039 -0.00014974812 -0.00024269015)
(-0.0081116927 -0.00019351082 -0.00027501132)
(-0.0074058948 -0.00023188638 -0.00030296745)
(-0.0065902191 -0.00026266258 -0.00032545207)
(-0.0056918539 -0.00028382869 -0.00034156528)
(-0.0047432625 -0.00029374736 -0.00035069292)
(-0.0037808207 -0.00029130851 -0.00035257349)
(-0.002843064 -0.00027604404 -0.00034734656)
(-0.0019686494 -0.00024819014 -0.00033557859)
(-0.0011941411 -0.00020870226 -0.00031826512)
(-0.00055166745 -0.00015926406 -0.00029681151)
(-6.6512071e-05 -0.0001024032 -0.00027298761)
(0.00024491694 -4.1747947e-05 -0.00024885067)
(0.00037894439 1.7849548e-05 -0.00022678155)
(0.00034979475 6.706126e-05 -0.00020921564)
(0.00020619771 8.983838e-05 -0.00019882532)
(5.7469973e-05 5.7402576e-05 -0.00018438)
(5.8006693e-05 -0.00016702052 -6.6346158e-06)
(4.0891329e-05 -3.9948701e-05 -3.7967475e-07)
(-0.00029496639 0.00024857236 1.1253897e-05)
(-0.0010110186 0.00056212878 2.5619961e-05)
(-0.0020992252 0.00084750006 4.0605009e-05)
(-0.0035140872 0.0010831234 5.461322e-05)
(-0.0051946871 0.0012643036 6.6517285e-05)
(-0.0070766317 0.0013940696 7.556491e-05)
(-0.0090981529 0.0014779619 8.1274307e-05)
(-0.011202309 0.001521528 8.3345833e-05)
(-0.013337038 0.0015292119 8.1596162e-05)
(-0.015454182 0.0015039767 7.5915314e-05)
(-0.017508154 0.0014473584 6.6244928e-05)
(-0.019454721 0.001359779 5.2574237e-05)
(-0.02125016 0.0012410027 3.4949366e-05)
(-0.022850979 0.0010906591 1.349152e-05)
(-0.02421423 0.0009087756 -1.1580298e-05)
(-0.025298436 0.00069627671 -3.9926155e-05)
(-0.02606506 0.00045541575 -7.1065465e-05)
(-0.026480401 0.0001901079 -0.00010436407)
(-0.026517816 -9.3865099e-05 -0.00013903112)
(-0.026159987 -0.00038877625 -0.00017413502)
(-0.025401169 -0.00068509108 -0.00020861988)
(-0.02424917 -0.00097175813 -0.0002413533)
(-0.022726753 -0.0012366918 -0.00027117972)
(-0.020872352 -0.0014674268 -0.00029698759)
(-0.018739913 -0.0016519068 -0.00031778463)
(-0.016397715 -0.0017793537 -0.00033277511)
(-0.013926124 -0.0018411475 -0.00034143208)
(-0.011414318 -0.0018316329 -0.00034355725)
(-0.0089561025 -0.0017487714 -0.00033932184)
(-0.0066450081 -0.0015945849 -0.00032928432)
(-0.004568894 -0.0013753941 -0.00031438388)
(-0.0028042171 -0.0011019735 -0.00029591108)
(-0.001410018 -0.00078992302 -0.00027545766)
(-0.00042164275 -0.000460579 -0.0002548392)
(0.0001557571 -0.00014254631 -0.00023597086)
(0.00035672593 0.00012231695 -0.00022086853)
(0.00027528051 0.00027111576 -0.00021163118)
(9.0135298e-05 0.00020508343 -0.00019544159)
(1.920331e-06 -0.000148953 -2.0420457e-05)
(-0.00025604338 0.00029703142 -1.1801066e-05)
(-0.001050446 0.0010236334 9.7274885e-08)
(-0.0023878223 0.0017975459 1.307739e-05)
(-0.0042394406 0.0025099082 2.6113657e-05)
(-0.0065455609 0.0031100606 3.8065201e-05)
(-0.0092251243 0.0035809284 4.8105013e-05)
(-0.012190001 0.0039234358 5.5672435e-05)
(-0.015352991 0.0041461877 6.0385832e-05)
(-0.018631058 0.004259593 6.1988525e-05)
(-0.021946082 0.0042728166 6.0307592e-05)
(-0.025224259 0.0041924769 5.5225235e-05)
(-0.028394926 0.0040224712 4.6665136e-05)
(-0.031389394 0.0037645256 3.4592158e-05)
(-0.034140224 0.0034191721 1.9022412e-05)
(-0.036581147 0.002986941 4.0430358e-08)
(-0.038647755 0.0024696063 -2.2179924e-05)
(-0.040278948 0.0018713591 -4.7354194e-05)
(-0.041419059 0.0011998088 -7.5068898e-05)
(-0.042020508 0.00046673134 -0.0001047692)
(-0.042046774 -0.00031149836 -0.00013575724)
(-0.041475478 -0.0011138112 -0.00016719778)
(-0.040301322 -0.0019148777 -0.00019814358)
(-0.03853856 -0.0026858643 -0.00022757151)
(-0.036222758 -0.0033956789 -0.0002544335)
(-0.033411589 -0.0040126058 -0.00027771914)
(-0.030184436 -0.0045062462 -0.00029652571)
(-0.026640649 -0.0048496371 -0.00031013016)
(-0.022896382 -0.0050213926 -0.00031805646)
(-0.019080018 -0.0050076924 -0.00032013096)
(-0.015326331 -0.004803953 -0.00031651886)
(-0.011769579 -0.0044160613 -0.00030773643)
(-0.0085358438 -0.0038611545 -0.0002946373)
(-0.0057348816 -0.003168105 -0.00027837431)
(-0.0034516965 -0.0023781251 -0.00026034134)
(-0.0017379744 -0.001546195 -0.00024209473)
(-0.00060369019 -0.00074418031 -0.00022524564)
(-8.0490939e-06 -6.6344639e-05 -0.00021138675)
(0.00015540814 0.00036040411 -0.00020220553)
(7.355926e-05 0.00035437054 -0.00018528923)
(-6.4683367e-05 5.0429366e-05 -3.8672331e-05)
(-0.00060837874 0.0010457682 -2.6132957e-05)
(-0.0019305365 0.0023817444 -1.2151617e-05)
(-0.0039464374 0.0037565255 1.1412173e-06)
(-0.0065890164 0.005015319 1.3729475e-05)
(-0.0097792039 0.0060800668 2.4853791e-05)
(-0.013417134 0.0069205241 3.397694e-05)
(-0.017395539 0.0075341152 4.0763615e-05)
(-0.02160775 0.007931398 4.4977862e-05)
(-0.025950712 0.0081270417 4.6447842e-05)
(-0.030325869 0.0081347694 4.5042776e-05)
(-0.03463882 0.0079650024 4.0656343e-05)
(-0.038798387 0.0076243754 3.3201486e-05)
(-0.042715709 0.0071165086 2.2615921e-05)
(-0.046303778 0.0064435545 8.8759514e-06)
(-0.049477696 0.0056081454 -7.9839415e-06)
(-0.052155753 0.0046154499 -2.784841e-05)
(-0.054261315 0.0034751117 -5.0498335e-05)
(-0.055725442 0.0022028888 -7.5590646e-05)
(-0.056490045 0.00082185174 -0.00010264413)
(-0.056511345 -0.00063696817 -0.00013103429)
(-0.055763449 -0.0021345944 -0.00015999616)
(-0.054241672 -0.0036248139 -0.0001886476)
(-0.051965319 -0.0050556221 -0.0002160214)
(-0.048979664 -0.0063713963 -0.00024111451)
(-0.04535681 -0.0075157206 -0.0002629496)
(-0.041195196 -0.0084347262 -0.00028064481)
(-0.036617541 -0.0090807462 -0.00029348571)
(-0.031767148 -0.0094160258 -0.0003009927)
(-0.026802517 -0.009416206 -0.00030297619)
(-0.021890412 -0.009073312 -0.00029957253)
(-0.017197568 -0.0083980427 -0.0002912545)
(-0.012881392 -0.0074212889 -0.00027881304)
(-0.0090800633 -0.0061950141 -0.00026331163)
(-0.0059024832 -0.0047929332 -0.00024601803)
(-0.0034184889 -0.0033118295 -0.00022832136)
(-0.0016495251 -0.0018745416 -0.00021164874)
(-0.00055980606 -0.00063470368 -0.00019739439)
(-5.0121703e-05 0.00021501229 -0.00018679373)
(3.8093901e-05 0.00041383219 -0.00016798708)
(-0.00013086523 0.00044556562 -5.8188559e-05)
(-0.0009709496 0.0022426926 -4.1122967e-05)
(-0.0028462119 0.0043591877 -2.4240529e-05)
(-0.0055648134 0.0064572162 -9.8081784e-06)
(-0.0090094424 0.0083534777 3.1103751e-06)
(-0.013075461 0.0099514536 1.4090392e-05)
(-0.017642279 0.011211749 2.2868944e-05)
(-0.022584681 0.012129585 2.9341221e-05)
(-0.027779633 0.012717526 3.3430015e-05)
(-0.033108114 0.012994148 3.5062471e-05)
(-0.038455495 0.012977367 3.4161295e-05)
(-0.043711128 0.012681216 3.063808e-05)
(-0.048767519 0.012115131 2.4395964e-05)
(-0.053519631 0.011284988 1.5341458e-05)
(-0.057864699 0.010195261 3.4032197e-06)
(-0.061702794 0.0088517429 -1.1444297e-05)
(-0.064938229 0.0072644419 -2.9154507e-05)
(-0.067481794 0.0054502936 -4.9582153e-05)
(-0.069253702 0.003435436 -7.2459374e-05)
(-0.070187073 0.0012568428 -9.7377424e-05)
(-0.070231724 -0.0010368522 -0.00012377709)
(-0.069358017 -0.0033854751 -0.00015095019)
(-0.067560466 -0.005718394 -0.0001780561)
(-0.064860802 -0.0079566847 -0.00020415312)
(-0.061310202 -0.010016304 -0.00022824624)
(-0.056990363 -0.011812195 -0.00024934913)
(-0.052013151 -0.013263144 -0.00026655612)
(-0.046518562 -0.014297144 -0.0002791178)
(-0.040670857 -0.014856885 -0.00028651198)
(-0.034652772 -0.014904994 -0.00028850192)
(-0.028657896 -0.014428613 -0.00028517388)
(-0.022881398 -0.013442977 -0.00027694809)
(-0.017509478 -0.011993829 -0.00026455897)
(-0.012708064 -0.010158709 -0.0002490047)
(-0.0086114776 -0.0080474888 -0.00023146933)
(-0.0053117561 -0.0058029582 -0.00021323233)
(-0.0028485115 -0.0036024836 -0.00019560682)
(-0.0012000308 -0.0016605493 -0.00017985878)
(-0.0002888141 -0.00023377553 -0.00016671364)
(-2.4741468e-06 0.00035046771 -0.00014548222)
(-0.00019286505 0.0010313063 -7.6668761e-05)
(-0.0013239868 0.0038925333 -5.4764525e-05)
(-0.0037518575 0.0069679991 -3.4559746e-05)
(-0.0071733008 0.009910819 -1.846623e-05)
(-0.011414809 0.012527398 -4.6704968e-06)
(-0.016341486 0.014714505 6.6922547e-06)
(-0.021809622 0.016430503 1.5609104e-05)
(-0.027675881 0.01767202 2.2194705e-05)
(-0.033802399 0.018455249 2.6527516e-05)
(-0.04005685 0.018803214 2.8634231e-05)
(-0.04631184 0.01873808 2.8492081e-05)
(-0.052444062 0.018277409 2.6030113e-05)
(-0.058333357 0.017433437 2.1138764e-05)
(-0.063862063 0.016214496 1.3687885e-05)
(-0.068914993 0.014627824 3.5509991e-06)
(-0.073380203 0.012683109 -9.3660583e-06)
(-0.077150615 0.010396211 -2.5093981e-05)
(-0.080126456 0.0077926389 -4.3568518e-05)
(-0.082218396 0.0049104468 -6.4601351e-05)
(-0.083351222 0.0018022819 -8.7856409e-05)
(-0.083467824 -0.0014636102 -0.00011283495)
(-0.082533262 -0.0048035815 -0.00013887309)
(-0.080538654 -0.0081200482 -0.0001651535)
(-0.07750459 -0.011304334 -0.00019073518)
(-0.073483767 -0.014240829 -0.00021460014)
(-0.068562535 -0.016812391 -0.00023571656)
(-0.062861002 -0.018906787 -0.00025311454)
(-0.056531396 -0.020423865 -0.00026596756)
(-0.049754416 -0.02128305 -0.00027367081)
(-0.042733407 -0.021430604 -0.00027590626)
(-0.035686363 -0.020846116 -0.00027268518)
(-0.028835911 -0.019547677 -0.00026436169)
(-0.022397696 -0.017595402 -0.00025161384)
(-0.016567755 -0.015093174 -0.00023539128)
(-0.011509872 -0.012188853 -0.00021683072)
(-0.0073439083 -0.0090736621 -0.00019715786)
(-0.0041345359 -0.005981672 -0.0001776456)
(-0.0018815927 -0.0031890435 -0.00015952803)
(-0.00053619178 -0.0010143241 -0.00014313386)
(-4.1246965e-05 0.00015895087 -0.00011904308)
(-0.00025011676 0.0017985702 -9.2155494e-05)
(-0.0016597733 0.0059841408 -6.5264981e-05)
(-0.0046244571 0.010198617 -4.157862e-05)
(-0.0087321707 0.01410702 -2.3523791e-05)
(-0.013751606 0.017522336 -8.4853908e-06)
(-0.019515082 0.020347118 3.6535809e-06)
(-0.025854147 0.022545925 1.3104892e-05)
(-0.032607012 0.024122004 2.0184646e-05)
(-0.039621883 0.02509811 2.5115118e-05)
(-0.046755012 0.025503179 2.8014588e-05)
(-0.0538688 0.025364229 2.890866e-05)
(-0.060830248 0.024702539 2.773806e-05)
(-0.067509641 0.023533176 2.4374212e-05)
(-0.073779768 0.021866981 1.8643051e-05)
(-0.079515879 0.019714125 1.0354793e-05)
(-0.084596503 0.017088491 -6.6200496e-07)
(-0.088905129 0.014012234 -1.4523798e-05)
(-0.092332705 0.010520009 -3.1254852e-05)
(-0.094780825 0.0066624827 -5.0752037e-05)
(-0.096165472 0.0025088081 -7.2754728e-05)
(-0.096421125 -0.0018521449 -9.6823453e-05)
(-0.095505032 -0.0063119961 -0.00012233194)
(-0.093401433 -0.010744594 -0.00014847353)
(-0.090125481 -0.015009425 -0.00017428866)
(-0.085726508 -0.018956667 -0.00019871056)
(-0.080290347 -0.022433821 -0.00022063003)
(-0.073940286 -0.025293748 -0.00023897548)
(-0.066836239 -0.027403776 -0.00025280174)
(-0.059171749 -0.028655384 -0.00026137831)
(-0.051168505 -0.028973824 -0.00026426557)
(-0.043068253 -0.02832692 -0.00026136737)
(-0.035122203 -0.026732276 -0.00025295127)
(-0.027578338 -0.024262247 -0.00023963286)
(-0.020667338 -0.021046315 -0.00022232385)
(-0.014588345 -0.017270906 -0.00020214318)
(-0.0094958248 -0.01317722 -0.00018031357)
(-0.0054864953 -0.0090579237 -0.00015813908)
(-0.0025879517 -0.0052522184 -0.00013690782)
(-0.00078446613 -0.0021405381 -0.00011662401)
(-7.6872615e-05 -0.00016053829 -8.941936e-05)
(-0.00030295617 0.0027365289 -0.00010297913)
(-0.0019754993 0.0084981043 -7.1007856e-05)
(-0.0054521427 0.01402858 -4.3860028e-05)
(-0.010217975 0.019021395 -2.3715389e-05)
(-0.015985183 0.023311101 -7.2201048e-06)
(-0.022552802 0.026818204 5.9689068e-06)
(-0.029727188 0.029522439 1.6266179e-05)
(-0.037328212 0.031439786 2.4169553e-05)
(-0.045190989 0.032603412 3.002914e-05)
(-0.053161896 0.033050382 3.4041894e-05)
(-0.061095252 0.0328137 3.6270967e-05)
(-0.068850863 0.031918831 3.665921e-05)
(-0.076292143 0.030383791 3.5050063e-05)
(-0.083284993 0.028221866 3.121658e-05)
(-0.089697554 0.025446024 2.4896381e-05)
(-0.095400894 0.022074174 1.5831083e-05)
(-0.10027057 0.018134571 3.8086709e-06)
(-0.10418904 0.013670802 -1.1293132e-05)
(-0.10704872 0.0087459286 -2.9465009e-05)
(-0.10875573 0.0034454474 -5.0528778e-05)
(-0.10923406 -0.0021211625 -7.4108598e-05)
(-0.10842999 -0.0078205192 -9.9616435e-05)
(-0.10631684 -0.013497152 -0.0001262512)
(-0.10289945 -0.018977291 -0.00015302283)
(-0.098218426 -0.02407461 -0.00017879589)
(-0.092353562 -0.028597963 -0.00020235598)
(-0.085426042 -0.03236098 -0.0002224945)
(-0.077598905 -0.035193193 -0.00023810573)
(-0.069075165 -0.036952167 -0.00024828688)
(-0.060093114 -0.037535861 -0.00025242908)
(-0.050918473 -0.036894264 -0.00025028564)
(-0.041833367 -0.035039213 -0.00024200564)
(-0.033122493 -0.032051377 -0.00022812671)
(-0.0250573 -0.02808365 -0.00020952593)
(-0.017879643 -0.023360688 -0.00018732774)
(-0.011786478 -0.018175002 -0.00016279624)
(-0.0069140729 -0.012880394 -0.00013733269)
(-0.0033238413 -0.0078822599 -0.00011236201)
(-0.0010368617 -0.00362615 -8.7654491e-05)
(-0.00011093372 -0.00060702103 -5.7215149e-05)
(-0.00035169311 0.0038338214 -0.00010767605)
(-0.0022696859 0.011410362 -7.0519074e-05)
(-0.0062274798 0.018427303 -4.004111e-05)
(-0.01161475 0.024619961 -1.7790668e-05)
(-0.018090318 0.029857564 2.7325615e-07)
(-0.025421023 0.034089882 1.4702597e-05)
(-0.033388717 0.037320717 2.6096857e-05)
(-0.041795674 0.039585251 3.5116819e-05)
(-0.05046497 0.040931444 4.2223494e-05)
(-0.059234592 0.04140724 4.767768e-05)
(-0.067952676 0.041053185 5.156706e-05)
(-0.07647404 0.039899667 5.3825045e-05)
(-0.084657597 0.03796784 5.4256495e-05)
(-0.092364713 0.035273271 5.2571372e-05)
(-0.099458591 0.03183129 4.842428e-05)
(-0.10580463 0.027663185 4.1458809e-05)
(-0.11127169 0.022802465 3.1355455e-05)
(-0.11573423 0.017300629 1.7881275e-05)
(-0.11907517 0.011231984 9.3881903e-07)
(-0.12118942 0.0046971925 -1.9388691e-05)
(-0.12198809 -0.0021747107 -4.2800056e-05)
(-0.12140313 -0.0092260662 -6.8754116e-05)
(-0.11939248 -0.016272192 -9.6458702e-05)
(-0.11594549 -0.02310529 -0.00012488983)
(-0.11108822 -0.029500586 -0.0001528305)
(-0.10488841 -0.035224946 -0.0001789373)
(-0.097459314 -0.040047912 -0.00020182994)
(-0.088962036 -0.043754916 -0.00022019773)
(-0.07960526 -0.046162113 -0.00023291352)
(-0.069641887 -0.047131964 -0.0002391427)
(-0.059361858 -0.04658837 -0.00023843255)
(-0.049080951 -0.044529879 -0.00023076686)
(-0.03912576 -0.041039493 -0.00021657539)
(-0.029815749 -0.036289754 -0.00019669318)
(-0.02144414 -0.030542383 -0.00017226658)
(-0.014259504 -0.024142645 -0.00014464009)
(-0.0084461214 -0.017509201 -0.0001153735)
(-0.0041057583 -0.011119102 -8.6107954e-05)
(-0.001300081 -0.0054896923 -5.6448925e-05)
(-0.00014466062 -0.0011817413 -2.2497608e-05)
(-0.00039639254 0.0050786756 -0.00010492703)
(-0.0025408051 0.014693489 -6.2446034e-05)
(-0.0069442142 0.023357982 -2.8839808e-05)
(-0.012909249 0.030860815 -4.5382273e-06)
(-0.02004566 0.037117356 1.5141477e-05)
(-0.028090314 0.042116913 3.0948652e-05)
(-0.036802158 0.045895792 4.3653506e-05)
(-0.045967208 0.048514822 5.4062868e-05)
(-0.055397847 0.050041367 6.2732592e-05)
(-0.064925217 0.05053731 6.9972663e-05)
(-0.074393077 0.0500526 7.5882044e-05)
(-0.083653298 0.04862349 8.0372716e-05)
(-0.092562458 0.046274537 8.3199818e-05)
(-0.10097956 0.043023318 8.3999332e-05)
(-0.10876487 0.038886825 8.2331497e-05)
(-0.11577979 0.033888625 7.7729319e-05)
(-0.12188764 0.028066014 6.9751435e-05)
(-0.1269554 0.021476601 5.8037808e-05)
(-0.13085612 0.014203878 4.2365955e-05)
(-0.13347227 0.0063614868 2.2704931e-05)
(-0.13469977 -0.0019040882 -7.3753884e-07)
(-0.13445283 -0.010412655 -2.7486196e-05)
(-0.1326696 -0.018951376 -5.6769421e-05)
(-0.12931856 -0.027278401 -8.7535811e-05)
(-0.12440509 -0.035129036 -0.00011848268)
(-0.11797826 -0.042224894 -0.00014811978)
(-0.11013685 -0.04828617 -0.00017486201)
(-0.10103395 -0.0530469 -0.00019714573)
(-0.090879088 -0.056272744 -0.00021355931)
(-0.079936773 -0.057780331 -0.00022297448)
(-0.068520632 -0.057456697 -0.00022466243)
(-0.056982426 -0.055276932 -0.00021837737)
(-0.045695955 -0.051317907 -0.00020439251)
(-0.035036664 -0.045766095 -0.0001834771)
(-0.02535898 -0.038918051 -0.00015680483)
(-0.016973701 -0.031173321 -0.00012583393)
(-0.010123126 -0.023020496 -9.2341379e-05)
(-0.004957303 -0.01501629 -5.8262206e-05)
(-0.0015839126 -0.0077601704 -2.3090351e-05)
(-0.0001800053 -0.0018919986 1.4773498e-05)
(-0.00043687349 0.0064585703 -9.3529581e-05)
(-0.0027868526 0.018316906 -4.5549861e-05)
(-0.0075959004 0.028778329 -9.0654697e-06)
(-0.014088641 0.037694916 1.7188471e-05)
(-0.021830809 0.045038221 3.8492276e-05)
(-0.03053227 0.050846285 5.5784547e-05)
(-0.03993132 0.055195704 6.9994497e-05)
(-0.049799511 0.05817913 8.2060168e-05)
(-0.059940136 0.059887934 9.2617947e-05)
(-0.070179119 0.060401159 0.00010201382)
(-0.080357622 0.059780205 0.00011034598)
(-0.09032651 0.058068289 0.00011749389)
(-0.099942083 0.055293696 0.00012315236)
(-0.10906306 0.051475678 0.00012687259)
(-0.11754872 0.046631957 0.00012810857)
(-0.12525817 0.040786892 0.00012626886)
(-0.13205051 0.033979547 0.00012077346)
(-0.1377859 0.026271128 0.000111115)
(-0.14232754 0.017751399 9.6922081e-05)
(-0.14554452 0.0085438147 7.8022708e-05)
(-0.14731572 -0.0011908596 5.4503075e-05)
(-0.14753461 -0.011252638 2.6740972e-05)
(-0.14611544 -0.021402755 -4.5335034e-06)
(-0.14300052 -0.03136623 -3.8259941e-05)
(-0.13816826 -0.040837685 -7.3056716e-05)
(-0.13164197 -0.049490598 -0.0001072777)
(-0.12349841 -0.056990439 -0.0001391044)
(-0.1138753 -0.063011817 -0.00016667066)
(-0.10297655 -0.067259349 -0.0001882116)
(-0.091073528 -0.069491281 -0.00020222264)
(-0.078501395 -0.069544185 -0.0002076101)
(-0.065648984 -0.067356343 -0.00020381293)
(-0.052942006 -0.062986926 -0.00019087622)
(-0.040820057 -0.056628021 -0.00016945752)
(-0.029709669 -0.048607162 -0.00014074619)
(-0.019996223 -0.039379404 -0.00010633797)
(-0.01199217 -0.029509505 -6.8283931e-05)
(-0.0059060232 -0.019644354 -2.8892151e-05)
(-0.001899594 -0.010479297 1.2416798e-05)
(-0.00021911092 -0.0027504901 5.4754109e-05)
(-0.00047276091 0.0079598538 -7.2392974e-05)
(-0.0030053074 0.022246668 -1.8708791e-05)
(-0.0081754826 0.034640714 2.0368126e-05)
(-0.015139639 0.045066392 4.8448743e-05)
(-0.023425074 0.053560168 7.1363882e-05)
(-0.03271809 0.060216907 9.0234521e-05)
(-0.042738981 0.065160519 0.00010613883)
(-0.053246925 0.068521231 0.0001201331)
(-0.064037882 0.070418881 0.00013292208)
(-0.074934241 0.070952919 0.00014487684)
(-0.085776312 0.070198359 0.0001560849)
(-0.096415827 0.068206613 0.00016638411)
(-0.10671081 0.065010087 0.00017539996)
(-0.11652174 0.060629351 0.00018258906)
(-0.12570895 0.055081782 0.00018728747)
(-0.1341311 0.048390751 0.00018876457)
(-0.14164462 0.040594626 0.00018628297)
(-0.14810402 0.031755108 0.0001791641)
(-0.15336319 0.021964579 0.00016685829)
(-0.15727766 0.011352262 0.00014901636)
(-0.15970803 8.9014241e-05 0.00012555891)
(-0.16052491 -0.011609443 9.6747118e-05)
(-0.15961528 -0.023481697 6.3210206e-05)
(-0.15689041 -0.035221789 2.5990435e-05)
(-0.15229557 -0.046484021 -1.3470622e-05)
(-0.14582083 -0.056891688 -5.3373804e-05)
(-0.13751249 -0.066050535 -9.1647194e-05)
(-0.12748404 -0.073567432 -0.00012607494)
(-0.11592513 -0.079074265 -0.00015446406)
(-0.10310686 -0.082256243 -0.00017483557)
(-0.089381234 -0.082882837 -0.00018561885)
(-0.075173052 -0.080838446 -0.00018582414)
(-0.060963175 -0.076149013 -0.00017516741)
(-0.047263086 -0.069000368 -0.00015412023)
(-0.03458309 -0.059744615 -0.0001238518)
(-0.0233974 -0.048892503 -8.6103832e-05)
(-0.014103448 -0.037091895 -4.3254684e-05)
(-0.0069814331 -0.025092622 1.9307324e-06)
(-0.0022590053 -0.013702949 5.0078499e-05)
(-0.00026414569 -0.00377604 9.7634408e-05)
(-0.00050355097 0.0095674422 -4.0547528e-05)
(-0.0031932762 0.026445191 1.9069505e-05)
(-0.0086754058 0.040892103 6.0425291e-05)
(-0.016048495 0.05291259 9.0190863e-05)
(-0.024807365 0.062615422 0.00011469483)
(-0.03461842 0.070159226 0.00013523348)
(-0.045186795 0.075721409 0.00015302479)
(-0.056261504 0.079475009 0.00016923197)
(-0.067632973 0.081572551 0.00018461839)
(-0.079121714 0.082137096 0.00019957197)
(-0.090568873 0.081259519 0.00021416261)
(-0.10182886 0.079000773 0.00022818021)
(-0.11276336 0.075397892 0.00024117452)
(-0.1232367 0.070472449 0.00025249977)
(-0.13311239 0.06424036 0.00026136366)
(-0.14225078 0.056722072 0.00026688187)
(-0.15050761 0.04795251 0.00026813953)
(-0.15773347 0.037990335 0.00026426015)
(-0.16377429 0.026926305 0.00025448158)
(-0.16847278 0.014890607 0.00023823635)
(-0.17167133 0.002059035 0.00021523406)
(-0.17321661 -0.011342254 0.00018555091)
(-0.17296594 -0.025033766 0.00014967537)
(-0.17079571 -0.03868225 0.00010857862)
(-0.16661244 -0.051903621 6.3723197e-05)
(-0.16036551 -0.064270377 1.7041771e-05)
(-0.15206157 -0.075324602 -2.9133717e-05)
(-0.1417794 -0.084597518 -7.2198487e-05)
(-0.12968348 -0.091636045 -0.00010945565)
(-0.11603435 -0.096035951 -0.00013834092)
(-0.10119274 -0.097479897 -0.00015666961)
(-0.085615086 -0.095777101 -0.00016287525)
(-0.069838052 -0.090899831 -0.00015620494)
(-0.054451421 -0.083010929 -0.00013683202)
(-0.040061181 -0.072476747 -0.00010583703)
(-0.027246486 -0.059861713 -6.509336e-05)
(-0.016507707 -0.045903614 -1.7352125e-05)
(-0.0082137726 -0.031469866 3.4075287e-05)
(-0.0026743202 -0.017501843 8.9841125e-05)
(-0.00031729551 -0.0049938561 0.00014355787)
(-0.0005286805 0.011264647 2.8369877e-06)
(-0.0033477386 0.030871105 6.8629487e-05)
(-0.009088053 0.047474053 0.00011192754)
(-0.016801586 0.061164147 0.00014322655)
(-0.025956889 0.072128399 0.00016929288)
(-0.036204181 0.080594912 0.00019158991)
(-0.047236294 0.086799863 0.00021146665)
(-0.058794244 0.090963768 0.0002301835)
(-0.070664656 0.093275768 0.0002485552)
(-0.082667722 0.093885671 0.00026698156)
(-0.094646998 0.092902527 0.00028551128)
(-0.10646128 0.090398322 0.0003038835)
(-0.11797782 0.086415378 0.00032156915)
(-0.12906689 0.080976104 0.00033781537)
(-0.13959748 0.074093915 0.00035169347)
(-0.14943402 0.065784415 0.00036215237)
(-0.15843404 0.056076246 0.00036807989)
(-0.1664467 0.045021275 0.00036837341)
(-0.17331223 0.032704005 0.0003620204)
(-0.17886253 0.019250183 0.00034818766)
(-0.18292318 0.0048345353 0.00032631736)
(-0.18531738 -0.010312568 0.00029622892)
(-0.185872 -0.025899804 0.00025820412)
(-0.18442619 -0.041572074 0.00021307174)
(-0.18084315 -0.056910857 0.00016225387)
(-0.17502466 -0.071439354 0.00010777423)
(-0.16692828 -0.084633987 5.2210741e-05)
(-0.15658627 -0.095943785 -1.4188264e-06)
(-0.14412461 -0.10481883 -4.9844124e-05)
(-0.12977948 -0.11074796 -8.9797933e-05)
(-0.113908 -0.11330453 -0.00011832152)
(-0.096989366 -0.11219671 -0.00013308517)
(-0.079612829 -0.10731674 -0.00013267837)
(-0.062450286 -0.098781325 -0.0001168128)
(-0.04621468 -0.086954994 -8.6366337e-05)
(-0.031607744 -0.07244991 -4.3296855e-05)
(-0.019254153 -0.056099263 9.2404353e-06)
(-0.0096331396 -0.038903926 6.7293002e-05)
(-0.0031578303 -0.021961653 0.00013152059)
(-0.00038078524 -0.006435593 0.00019254638)
(-0.00054759913 0.013033168 5.8428071e-05)
(-0.0034658576 0.035479373 0.00013064629)
(-0.009406397 0.05432297 0.00017553147)
(-0.017386396 0.069745289 0.00020820545)
(-0.026854435 0.082015894 0.00023580443)
(-0.037448153 0.091436755 0.00025994907)
(-0.048850775 0.098307149 0.00028211088)
(-0.060797324 0.10289913 0.00030363926)
(-0.073072179 0.10544208 0.00032539593)
(-0.085496593 0.10611561 0.00034779114)
(-0.09791795 0.10504935 0.00037085285)
(-0.11020101 0.10232799 0.00039427079)
(-0.12222042 0.098000032 0.00041743796)
(-0.13385451 0.092088788 0.0004394936)
(-0.14498015 0.08460437 0.00045936822)
(-0.15546858 0.075555808 0.00047583398)
(-0.16518214 0.064962756 0.00048756365)
(-0.17397175 0.052866571 0.00049320092)
(-0.1816753 0.03934076 0.00049144377)
(-0.18811716 0.02450089 0.00048114131)
(-0.19310912 0.0085140055 0.00046140278)
(-0.19645328 -0.008392568 0.00043171655)
(-0.1979473 -0.025923365 0.00039206774)
(-0.19739266 -0.043708865 0.0003430517)
(-0.1946065 -0.061302523 0.00028596262)
(-0.18943731 -0.078182573 0.00022284276)
(-0.18178453 -0.093760685 0.00015647216)
(-0.17162149 -0.10739972 9.0279902e-05)
(-0.15902009 -0.11844267 2.8162575e-05)
(-0.14417482 -0.12625405 -2.5794784e-05)
(-0.1274219 -0.13027328 -6.768305e-05)
(-0.1092488 -0.13007711 -9.418483e-05)
(-0.090288548 -0.12544458 -0.0001029866)
(-0.071294717 -0.11641496 -9.3108537e-05)
(-0.053096441 -0.10332684 -6.5048567e-05)
(-0.036536437 -0.086827871 -2.0753041e-05)
(-0.022388441 -0.067848918 3.621175e-05)
(-0.011268763 -0.04754043 0.0001011559)
(-0.0037218441 -0.027182721 0.00017472673)
(-0.00045691193 -0.0081393816 0.00024442243)
(-0.00055984477 0.014853263 0.00012670599)
(-0.0035453379 0.040221776 0.00020560438)
(-0.0096248085 0.061370778 0.000251708)
(-0.017792803 0.078574529 0.00028559166)
(-0.027484128 0.092187644 0.00031468625)
(-0.03832716 0.10258895 0.00034075822)
(-0.04999793 0.11014418 0.00036539343)
(-0.062227203 0.11518037 0.00039002408)
(-0.074798409 0.11797048 0.00041555753)
(-0.087535023 0.11872695 0.00044241704)
(-0.10028947 0.11760246 0.00047061473)
(-0.11293389 0.11469633 0.00049979684)
(-0.12535206 0.11006442 0.00052928421)
(-0.13743243 0.10373139 0.00055811196)
(-0.14906227 0.095703598 0.00058507001)
(-0.16012262 0.085982166 0.0006087482)
(-0.17048407 0.074575415 0.00062759056)
(-0.18000324 0.061510788 0.00063996287)
(-0.18852004 0.046846254 0.00064423642)
(-0.19585597 0.03068147 0.00063889023)
(-0.20181373 0.013168864 0.00062263168)
(-0.20617875 -0.0054753498 0.00059453401)
(-0.2087231 -0.024960525 0.00055418444)
(-0.20921263 -0.044912158 0.00050183345)
(-0.20741816 -0.064864852 0.00043853187)
(-0.20313139 -0.084259652 0.00036623302)
(-0.19618605 -0.1024483 0.00028783565)
(-0.18648428 -0.11870744 0.00020713958)
(-0.17402712 -0.13226603 0.00012868853)
(-0.15894668 -0.14234853 5.7482782e-05)
(-0.14153585 -0.14823509 -1.4375585e-06)
(-0.12226912 -0.14933666 -4.3511374e-05)
(-0.10180729 -0.14527869 -6.5217138e-05)
(-0.080978725 -0.13598182 -6.4573832e-05)
(-0.060733908 -0.12172372 -4.1436983e-05)
(-0.042074317 -0.1031659 2.4261073e-06)
(-0.025950479 -0.081333241 6.3072793e-05)
(-0.013148242 -0.057540538 0.00013498596)
(-0.0043785976 -0.033279404 0.00021877826)
(-0.00054808348 -0.010149842 0.00029872231)
(-0.00056512281 0.016704136 0.00020794156)
(-0.0035848221 0.045047815 0.00029377954)
(-0.0097399825 0.068546102 0.00034072563)
(-0.018014596 0.087565903 0.00037564502)
(-0.027835515 0.10254742 0.00040618207)
(-0.038824728 0.1139479 0.0004342363)
(-0.050653066 0.12220188 0.00046150085)
(-0.063048418 0.1276943 0.00048948705)
(-0.075794275 0.13074479 0.0005191504)
(-0.088717242 0.13160155 0.00055093407)
(-0.1016758 0.13044302 0.00058484406)
(-0.11455071 0.12738527 0.00062049417)
(-0.12723646 0.12249313 0.00065714391)
(-0.13963367 0.11579342 0.00069373347)
(-0.15164252 0.10728888 0.00072891774)
(-0.16315701 0.096971898 0.0007611043)
(-0.17405977 0.084837729 0.00078850065)
(-0.18421763 0.070897083 0.00080917623)
(-0.19347778 0.055188374 0.00082114379)
(-0.20166471 0.037789983 0.00082246387)
(-0.20857842 0.018832874 0.00081137454)
(-0.21399413 -0.0014862903 0.00078644618)
(-0.21766445 -0.022891665 0.00074675918)
(-0.2193246 -0.045015035 0.00069209125)
(-0.21870195 -0.067384152 0.00062310857)
(-0.21553096 -0.089414507 0.00054153159)
(-0.20957472 -0.11040753 0.00045024787)
(-0.20065358 -0.12955896 0.00035333507)
(-0.1886808 -0.14598189 0.0002559543)
(-0.17370326 -0.15874899 0.00016407982)
(-0.15594313 -0.16695712 8.40475e-05)
(-0.13583341 -0.1698146 2.1935296e-05)
(-0.11403768 -0.16674579 -1.7167209e-05)
(-0.091443306 -0.15750014 -2.9878938e-05)
(-0.069120481 -0.14224565 -1.5043171e-05)
(-0.04824434 -0.1216226 2.602041e-05)
(-0.029971805 -0.096736574 8.9095881e-05)
(-0.015296622 -0.069077571 0.00016777133)
(-0.0051401274 -0.04037899 0.00026260272)
(-0.00065685498 -0.01251807 0.00035459455)
(-0.00056338806 0.018564535 0.00030217954)
(-0.0035843182 0.0499061 0.00039522773)
(-0.0097519591 0.075776051 0.00044264118)
(-0.018051163 0.096630833 0.0004784099)
(-0.027905938 0.11299474 0.00051030675)
(-0.038934098 0.12540358 0.00054035105)
(-0.050802753 0.1343622 0.00057033819)
(-0.063237895 0.14031587 0.00060185888)
(-0.076023793 0.14363374 0.00063592388)
(-0.088990875 0.14460281 0.00067300834)
(-0.10200451 0.14343009 0.00071312697)
(-0.11495519 0.14025091 0.0007558774)
(-0.12774955 0.13514102 0.000800474)
(-0.14030233 0.12813082 0.00084577665)
(-0.15252914 0.11922005 0.00089031675)
(-0.16434008 0.10839231 0.00093232608)
(-0.17563382 0.09562883 0.00096977492)