/*--------------------------------*- C++ -*----------------------------------*\
  =========                 |
  \\      /  F ield         | OpenFOAM: The Open Source CFD Toolbox
   \\    /   O peration     | Website:  https://openfoam.org
    \\  /    A nd           | Version:  7
     \\/     M anipulation  |
\*---------------------------------------------------------------------------*/
FoamFile
{
    version     2.0;
    format      ascii;
    class       volScalarField;
    location    "3";
    object      p;
}
// * * * * * * * * * * * * * * * * * * * * * * * * * * * * * * * * * * * * * //

dimensions      [1 -1 -2 0 0 0 0];

internalField   nonuniform List<scalar> 
19968
(
1
1
1
1
1
1
1
1
1
1
1
1
1
1
1
1
1
1
1
1
1
1
1
1
1
1
1
1
1
1
1
1
1
1
1
1
1
1
1
1
1
1
1
1
1
1
1
1
1
6.18018
10.4256
10.4785
10.5279
10.5809
10.6335
10.6885
10.7463
10.8051
10.8621
10.9152
10.9645
11.0108
11.0568
11.1038
11.1521
11.2016
11.2506
11.297
11.3415
11.388
11.4335
11.4756
11.5155
11.5544
11.5922
11.6283
11.6623
11.6946
11.725
11.7533
11.7812
11.81
11.8396
11.8683
11.8949
11.9185
11.9394
11.9581
11.9747
11.9888
12.0003
12.0098
12.0189
12.0265
12.0334
12.0396
1
1
1
1
1
1
1
1
1
1
1
1
1
1
1
1
1
1
1
1
1
1
1
1
1
1
1
1
1
1
1
1
1
1
1
1
1
1
1
1
1
1
1
1
1
1
1
1
1
6.08397
10.3897
10.4732
10.5257
10.5798
10.6334
10.6891
10.7473
10.8062
10.8631
10.9164
10.966
11.0121
11.0576
11.1043
11.1522
11.201
11.2492
11.2947
11.3377
11.3829
11.4278
11.4701
11.5109
11.5504
11.5887
11.6244
11.6579
11.6897
11.7198
11.7483
11.7765
11.8055
11.8347
11.8629
11.8887
11.9117
11.9323
11.9512
11.9683
11.983
11.9947
12.0042
12.0128
12.0197
12.0262
12.0321
1
1
1
1
1
1
1
1
1
1
1
1
1
1
1
1
1
1
1
1
1
1
1
1
1
1
1
1
1
1
1
1
1
1
1
1
1
1
1
1
1
1
1
1
1
1
1
1
1
5.88043
10.3539
10.4643
10.518
10.5729
10.6275
10.6845
10.7433
10.8023
10.8595
10.9136
10.964
11.0104
11.0557
11.1021
11.1497
11.1978
11.2451
11.2897
11.3307
11.3744
11.4181
11.4605
11.5025
11.5431
11.5821
11.6177
11.6505
11.6816
11.7115
11.7403
11.769
11.7982
11.8271
11.8542
11.8787
11.9007
11.9208
11.9399
11.9577
11.9731
11.9851
11.9943
12.0021
12.0079
12.0137
12.0189
1
1
1
1
1
1
1
1
1
1
1
1
1
1
1
1
1
1
1
1
1
1
1
1
1
1
1
1
1
1
1
1
1
1
1
1
1
1
1
1
1
1
1
1
1
1
1
1
1
5.56422
10.3022
10.4531
10.5067
10.5635
10.6196
10.6777
10.737
10.7959
10.8531
10.908
10.9591
11.006
11.051
11.0968
11.1438
11.1908
11.2366
11.2798
11.3191
11.3609
11.4036
11.4459
11.4891
11.5304
11.5701
11.6055
11.6377
11.6682
11.698
11.7272
11.7565
11.7859
11.8141
11.8399
11.8628
11.8835
11.9031
11.9225
11.941
11.9572
11.9694
11.9783
11.9849
11.9894
11.9941
11.9985
1
1
1
1
1
1
1
1
1
1
1
1
1
1
1
1
1
1
1
1
1
1
1
1
1
1
1
1
1
1
1
1
1
1
1
1
1
1
1
1
1
1
1
1
1
1
1
1
1
5.12453
10.225
10.4408
10.4925
10.5516
10.6084
10.6672
10.7266
10.7849
10.8415
10.8966
10.9485
10.9961
11.0412
11.0868
11.1334
11.1796
11.224
11.2662
11.3047
11.3448
11.387
11.4291
11.4728
11.5144
11.5545
11.5896
11.6214
11.6515
11.6812
11.7108
11.7405
11.7696
11.7968
11.821
11.842
11.8612
11.88
11.8994
11.9182
11.9347
11.9468
11.9553
11.9607
11.9639
11.9671
11.9704
1
1
1
1
1
1
1
1
1
1
1
1
1
1
1
1
1
1
1
1
1
1
1
1
1
1
1
1
1
1
1
1
1
1
1
1
1
1
1
1
1
1
1
1
1
1
1
1
1
4.55418
10.098
10.4265
10.4745
10.5362
10.5934
10.6521
10.7114
10.7691
10.8247
10.879
10.9309
10.9787
11.0237
11.0688
11.1148
11.1601
11.2033
11.2447
11.2831
11.3215
11.3631
11.4042
11.4476
11.4887
11.5285
11.5632
11.5949
11.6248
11.6547
11.6846
11.7145
11.7433
11.7697
11.7926
11.8125
11.831
11.8496
11.8689
11.8878
11.9045
11.9167
11.9254
11.9305
11.933
11.9348
11.937
1
1
1
1
1
1
1
1
1
1
1
1
1
1
1
1
1
1
1
1
1
1
1
1
1
1
1
1
1
1
1
1
1
1
1
1
1
1
1
1
1
1
1
1
1
1
1
1
1
3.86197
9.87508
10.4097
10.4549
10.5188
10.5744
10.6318
10.6905
10.7482
10.803
10.8559
10.9071
10.9549
10.9998
11.0443
11.0896
11.1344
11.1768
11.218
11.2569
11.294
11.3353
11.3749
11.417
11.4566
11.4956
11.5297
11.5612
11.591
11.6208
11.6506
11.6801
11.7081
11.7333
11.7552
11.7745
11.7926
11.8107
11.829
11.8467
11.8626
11.8748
11.8842
11.8898
11.8925
11.8935
11.8949
1
1
1
1
1
1
1
1
1
1
1
1
1
1
1
1
1
1
1
1
1
1
1
1
1
1
1
1
1
1
1
1
1
1
1
1
1
1
1
1
1
1
1
1
1
1
1
1
1
3.0853
9.52179
10.3985
10.4394
10.5022
10.5565
10.6117
10.6682
10.7244
10.7783
10.8302
10.8803
10.9277
10.9722
11.0157
11.0596
11.1036
11.1456
11.1861
11.225
11.2612
11.301
11.3389
11.3789
11.4167
11.4541
11.4874
11.5184
11.5478
11.5769
11.6059
11.6341
11.6606
11.6845
11.7057
11.7249
11.743
11.7603
11.777
11.7926
11.8073
11.8197
11.8305
11.8381
11.8426
11.8442
11.8458
1
1
1
1
1
1
1
1
1
1
1
1
1
1
1
1
1
1
1
1
1
1
1
1
1
1
1
1
1
1
1
1
1
1
1
1
1
1
1
1
1
1
1
1
1
1
1
1
1
2.24884
8.89623
10.3935
10.4316
10.4848
10.5344
10.5866
10.6406
10.6951
10.7485
10.7999
10.8492
10.8963
10.9405
10.9829
11.025
11.0675
11.1087
11.1483
11.1872
11.2234
11.2611
11.2976
11.3354
11.3717
11.4074
11.4402
11.4709
11.4997
11.5277
11.5547
11.5804
11.6042
11.6261
11.6461
11.6647
11.6818
11.6972
11.7108
11.7233
11.736
11.7481
11.76
11.7699
11.7767
11.7796
11.7824
1
1
1
1
1
1
1
1
1
1
1
1
1
1
1
1
1
1
1
1
1
1
1
1
1
1
1
1
1
1
1
1
1
1
1
1
1
1
1
1
1
1
1
1
1
1
1
1
1
1.5284
7.95531
10.4119
10.4019
10.4516
10.4967
10.5476
10.601
10.6552
10.7081
10.7585
10.8063
10.8522
10.8967
10.9395
10.9812
11.0226
11.063
11.1016
11.1402
11.1771
11.2123
11.2475
11.2822
11.3166
11.3494
11.3808
11.4105
11.4384
11.4647
11.4893
11.5124
11.5338
11.5542
11.5736
11.5917
11.6077
11.6205
11.6306
11.6394
11.6493
11.66
11.6718
11.6831
11.692
11.6964
11.7008
1
1
1
1
1
1
1
1
1
1
1
1
1
1
1
1
1
1
1
1
1
1
1
1
1
1
1
1
1
1
1
1
1
1
1
1
1
1
1
1
1
1
1
1
1
1
1
1
1
1.01724
6.47074
10.3407
10.3822
10.4253
10.4701
10.5168
10.5666
10.6173
10.6678
10.7165
10.7624
10.8059
10.8485
10.8901
10.9301
10.9689
11.0067
11.0425
11.078
11.1136
11.1468
11.1806
11.2121
11.2441
11.2744
11.3042
11.3327
11.3597
11.3844
11.4068
11.427
11.4458
11.4637
11.481
11.4967
11.5096
11.5186
11.5249
11.5308
11.5386
11.5482
11.5596
11.5714
11.5813
11.5872
11.5928
1
1
1
1
1
1
1
1
1
1
1
1
1
1
1
1
1
1
1
1
1
1
1
1
1
1
1
1
1
1
1
1
1
1
1
1
1
1
1
1
1
1
1
1
1
1
1
1
1
1.00003
4.65457
9.96728
10.257
10.3269
10.3968
10.4537
10.5062
10.5537
10.5996
10.6437
10.6855
10.7253
10.7645
10.804
10.8427
10.8794
10.9148
10.9488
10.9822
11.0175
11.0523
11.0857
11.1155
11.1446
11.1724
11.1998
11.2262
11.2515
11.2744
11.2946
11.3126
11.3295
11.3461
11.3621
11.3767
11.3881
11.3955
11.3997
11.4031
11.4074
11.4119
11.4173
11.423
11.428
11.4317
11.4361
1
1
1
1
1
1
1
1
1
1
1
1
1
1
1
1
1
1
1
1
1
1
1
1
1
1
1
1
1
1
1
1
1
1
1
1
1
1
1
1
1
1
1
1
1
1
1
1
1
1
2.70441
9.09595
10.1966
10.2618
10.3407
10.3991
10.4519
10.4992
10.5441
10.5869
10.6273
10.6655
10.7027
10.7405
10.7775
10.8117
10.843
10.8723
10.9008
10.9312
10.9634
10.9934
11.0198
11.0427
11.065
11.0868
11.1082
11.1289
11.1473
11.163
11.1766
11.1889
11.2003
11.2104
11.2182
11.2216
11.2206
11.2175
11.215
11.2143
11.215
11.2189
11.2222
11.2258
11.228
11.2315
1
1
1
1
1
1
1
1
1
1
1
1
1
1
1
1
1
1
1
1
1
1
1
1
1
1
1
1
1
1
1
1
1
1
1
1
1
1
1
1
1
1
1
1
1
1
1
1
1
1
1.17775
7.24468
10.3242
10.3381
10.3582
10.3828
10.4121
10.446
10.4819
10.5187
10.5546
10.5886
10.6212
10.6538
10.6866
10.7175
10.7455
10.7714
10.796
10.8213
10.8492
10.8762
10.8994
10.9169
10.9323
10.947
10.9616
10.9754
10.9874
10.9967
11.0039
11.0097
11.0144
11.0177
11.0187
11.0153
11.0097
11.0036
10.9987
10.9945
10.9874
10.9771
10.9584
10.9345
10.9083
10.8861
1
1
1
1
1
1
1
1
1
1
1
1
1
1
1
1
1
1
1
1
1
1
1
1
1
1
1
1
1
1
1
1
1
1
1
1
1
1
1
1
1
1
1
1
1
1
1
1
1
1
1.00083
4.49675
9.87925
10.1563
10.1942
10.2353
10.2763
10.3195
10.3617
10.4023
10.441
10.477
10.5106
10.5434
10.5757
10.6061
10.633
10.6565
10.6778
10.6987
10.7216
10.745
10.7647
10.7785
10.7875
10.7945
10.7998
10.8038
10.806
10.8052
10.8029
10.7986
10.7922
10.7826
10.7679
10.7475
10.7221
10.6923
10.6587
10.6206
10.577
10.529
10.4858
10.4455
10.4232
10.4115
1
1
1
1
1
1
1
1
1
1
1
1
1
1
1
1
1
1
1
1
1
1
1
1
1
1
1
1
1
1
1
1
1
1
1
1
1
1
1
1
1
1
1
1
1
1
1
1
1
1
1
1.7697
8.12166
10.0545
10.0777
10.1387
10.1833
10.2261
10.2656
10.3026
10.338
10.3712
10.4017
10.4301
10.4572
10.4827
10.5051
10.5241
10.5406
10.5558
10.5708
10.5868
10.6012
10.6114
10.6151
10.6148
10.6101
10.6018
10.5907
10.5772
10.5614
10.543
10.5209
10.4935
10.4588
10.4164
10.3669
10.3108
10.2493
10.1844
10.1165
10.0471
9.96321
9.87996
9.76084
9.85062
1
1
1
1
1
1
1
1
1
1
1
1
1
1
1
1
1
1
1
1
1
1
1
1
1
1
1
1
1
1
1
1
1
1
1
1
1
1
1
1
1
1
1
1
1
1
1
1
1
1
1
1.01495
5.19332
9.84677
9.99773
10.0569
10.1038
10.1444
10.1793
10.2102
10.2391
10.2668
10.2926
10.3161
10.3382
10.3592
10.3778
10.3924
10.4034
10.4121
10.42
10.4286
10.4384
10.4451
10.4457
10.4402
10.4276
10.4089
10.3854
10.3579
10.3273
10.2932
10.2538
10.2068
10.15
10.0817
10.0005
9.9038
9.78524
9.64154
9.45417
9.20874
8.8406
8.29165
7.36414
5.47571
1
1
1
1
1
1
1
1
1
1
1
1
1
1
1
1
1
1
1
1
1
1
1
1
1
1
1
1
1
1
1
1
1
1
1
1
1
1
1
1
1
1
1
1
1
1
1
1
1
1
1
0.999959
2.4493
8.69811
9.96483
9.99299
10.0525
10.0922
10.126
10.1539
10.1781
10.2003
10.221
10.24
10.2571
10.2729
10.2864
10.2961
10.3014
10.3032
10.3034
10.3041
10.3066
10.3079
10.3042
10.2937
10.2748
10.2483
10.2146
10.1745
10.1294
10.0795
10.0229
9.95692
9.87777
9.78443
9.67044
9.53436
9.36013
9.14805
8.8677
8.51566
8.01214
7.3511
6.14947
4.53291
1
1
1
1
1
1
1
1
1
1
1
1
1
1
1
1
1
1
1
1
1
1
1
1
1
1
1
1
1
1
1
1
1
1
1
1
1
1
1
1
1
1
1
1
1
1
1
1
1
1
1
0.999993
1.0755
6.36148
9.98904
9.97933
10.01
10.0356
10.06
10.0799
10.0975
10.1143
10.1309
10.147
10.1609
10.1728
10.1823
10.1871
10.1866
10.1818
10.1745
10.167
10.1608
10.1545
10.1457
10.1299
10.1058
10.073
10.0309
9.97989
9.9209
9.85528
9.78085
9.69601
9.5946
9.47712
9.33397
9.16428
8.9501
8.68768
8.35704
7.938
7.40807
6.6624
5.65368
4.56219
1
1
1
1
1
1
1
1
1
1
1
1
1
1
1
1
1
1
1
1
1
1
1
1
1
1
1
1
1
1
1
1
1
1
1
1
1
1
1
1
1
1
1
1
1
1
1
1
1
1
1
1
1.00011
3.21098
9.02584
9.86568
9.89318
9.93605
9.96698
9.98961
10.0076
10.0231
10.0375
10.0511
10.0641
10.0752
10.083
10.0848
10.0801
10.0695
10.0543
10.0379
10.0222
10.0066
9.99086
9.96867
9.93822
9.89904
9.84948
9.78937
9.71786
9.63766
9.54647
9.44382
9.32304
9.18385
9.01906
8.82462
8.58873
8.30035
7.95016
7.51578
6.98069
6.32698
5.54702
4.73876
1
1
1
1
1
1
1
1
1
1
1
1
1
1
1
1
1
1
1
1
1
1
1
1
1
1
1
1
1
1
1
1
1
1
1
1
1
1
1
1
1
1
1
1
1
1
1
1
1
1
1
1
1
1.15168
6.86406
9.93292
9.88431
9.88748
9.90417
9.91844
9.9281
9.9363
9.945
9.95328
9.9637
9.97314
9.97829
9.97694
9.96867
9.95331
9.93188
9.90748
9.88216
9.85746
9.833
9.80358
9.76611
9.71994
9.6628
9.59451
9.51283
9.42112
9.3172
9.20063
9.06545
8.90964
8.73011
8.52196
8.27825
7.98645
7.64491
7.22598
6.73501
6.19033
5.57765
4.93564
1
1
1
1
1
1
1
1
1
1
1
1
1
1
1
1
1
1
1
1
1
1
1
1
1
1
1
1
1
1
1
1
1
1
1
1
1
1
1
1
1
1
1
1
1
1
1
1
1
1
1
1
1
1.00064
3.47391
9.05392
9.68966
9.74783
9.78759
9.81456
9.83072
9.84122
9.85008
9.85501
9.85847
9.86261
9.86424
9.86129
9.85099
9.83238
9.80669
9.77558
9.74192
9.71
9.67767
9.64245
9.59934
9.547
9.48261
9.40615
9.31582
9.21453
9.10133
8.97568
8.83131
8.6653
8.47672
8.26277
8.01982
7.73655
7.41951
7.03584
6.60679
6.15448
5.64715
5.12414
1
1
1
1
1
1
1
1
1
1
1
1
1
1
1
1
1
1
1
1
1
1
1
1
1
1
1
1
1
1
1
1
1
1
1
1
1
1
1
1
1
1
1
1
1
1
1
1
1
1
1
1
1
0.999999
1.17578
6.66764
9.74452
9.73525
9.73276
9.747
9.75555
9.75923
9.76394
9.76561
9.76352
9.76264
9.76059
9.75385
9.73979
9.71766
9.68696
9.64957
9.61001
9.57076
9.53001
9.48742
9.43772
9.37948
9.30949
9.22662
9.12922
9.01967
8.89949
8.76887
8.62151
8.45315
8.26195
8.04742
7.81069
7.53806
7.24765
6.90515
6.53676
6.15329
5.71524
5.28367
1
1
1
1
1
1
1
1
1
1
1
1
1
1
1
1
1
1
1
1
1
1
1
1
1
1
1
1
1
1
1
1
1
1
1
1
1
1
1
1
1
1
1
1
1
1
1
1
1
1
1
1
1
1
1.00089
2.97436
8.76167
9.55435
9.58606
9.62501
9.64535
9.65111
9.65723
9.66379
9.65778
9.64974
9.63945
9.62647
9.60844
9.58482
9.5532
9.51339
9.47085
9.42625
9.37864
9.33033
9.27615
9.21481
9.1428
9.05745
8.95614
8.84006
8.71353
8.57866
8.43153
8.26668
8.08145
7.87116
7.64484
7.38291
7.11631
6.81224
6.49053
6.15815
5.78586
5.41717
1
1
1
1
1
1
1
1
1
1
1
1
1
1
1
1
1
1
1
1
1
1
1
1
1
1
1
1
1
1
1
1
1
1
1
1
1
1
1
1
1
1
1
1
1
1
1
1
1
1
1
1
1
1
1
1.11114
5.77871
9.46371
9.54963
9.57082
9.58068
9.57656
9.57384
9.5813
9.57484
9.56191
9.54323
9.52118
9.49576
9.46677
9.43306
9.39387
9.34849
9.29889
9.24506
9.19017
9.12879
9.06135
8.98548
8.89891
8.79776
8.68007
8.54922
8.41063
8.26365
8.10262
7.92788
7.7254
7.51162
7.26493
7.02113
6.74434
6.45858
6.16395
5.84498
5.51925
1
1
1
1
1
1
1
1
1
1
1
1
1
1
1
1
1
1
1
1
1
1
1
1
1
1
1
1
1
1
1
1
1
1
1
1
1
1
1
1
1
1
1
1
1
1
1
1
1
1
1
1
1
1
1
1.00036
1.94892
7.97402
9.52054
9.49091
9.49377
9.48038
9.47306
9.47479
9.46822
9.45427
9.43294
9.40585
9.37499
9.34229
9.30698
9.27221
9.22774
9.17499
9.11669
9.05512
8.98562
8.91073
8.82975
8.74209
8.64414
8.53133
8.40052
8.26089
8.11511
7.95675
7.79012
7.59895
7.3995
7.17517
6.95196
6.69779
6.44396
6.17424
5.89573
5.60544
1
1
1
1
1
1
1
1
1
1
1
1
1
1
1
1
1
1
1
1
1
1
1
1
1
1
1
1
1
1
1
1
1
1
1
1
1
1
1
1
1
1
1
1
1
1
1
1
1
1
1
1
1
1
1
1
1.02603
4.30278
9.09535
9.36738
9.37609
9.37471
9.37681
9.37531
9.36285
9.34337
9.31983
9.29136
9.2588
9.22569
9.1882
9.15435
9.11254
9.05849
8.99972
8.93459
8.85984
8.7782
8.68983
8.5962
8.49894
8.39347
8.26907
8.13351
7.99041
7.83245
7.66893
7.48858
7.3021
7.10075
6.89577
6.66532
6.43933
6.18829
5.93834
5.67741
1
1
1
1
1
1
1
1
1
1
1
1
1
1
1
1
1
1
1
1
1
1
1
1
1
1
1
1
1
1
1
1
1
1
1
1
1
1
1
1
1
1
1
1
1
1
1
1
1
1
1
1
1
1
1
1
1.00003
1.27992
6.306
9.26871
9.3185
9.32534
9.31904
9.31177
9.29269
9.26778
9.23919
9.20722
9.17155
9.13411
9.09107
9.05242
9.00824
8.95221
8.89227
8.82554
8.74764
8.66163
8.56637
8.46503
8.36447
8.26317
8.14746
8.01747
7.8769
7.72377
7.56425
7.39499
7.2193
7.0362
6.84695
6.64087
6.43529
6.20428
5.97817
5.74239
1
1
1
1
1
1
1
1
1
1
1
1
1
1
1
1
1
1
1
1
1
1
1
1
1
1
1
1
1
1
1
1
1
1
1
1
1
1
1
1
1
1
1
1
1
1
1
1
1
1
1
1
1
1
1
1
1
1.00237
2.17321
7.99364
9.28752
9.21195
9.21081
9.20665
9.19223
9.1694
9.14062
9.10781
9.07193
9.03138
8.98606
8.94376
8.89376
8.83493
8.77431
8.70976
8.63422
8.54976
8.45383
8.34941
8.24756
8.14446
8.03204
7.90944
7.77602
7.6309
7.47724
7.3184
7.15161
6.98287
6.80625
6.61906
6.42663
6.21866
6.00989
5.79466
1
1
1
1
1
1
1
1
1
1
1
1
1
1
1
1
1
1
1
1
1
1
1
1
1
1
1
1
1
1
1
1
1
1
1
1
1
1
1
1
1
1
1
1
1
1
1
1
1
1
1
1
1
1
1
1
1
1
1.03842
4.06763
8.82239
9.09084
9.09774
9.10823
9.09919
9.08005
9.05279
9.02042
8.98325
8.93993
8.8929
8.84544
8.78855
8.72574
8.66133
8.59698
8.52538
8.44452
8.35175
8.2494
8.14743
8.04187
7.92999
7.81214
7.68542
7.5477
7.40131
7.25246
7.09509
6.9387
6.7738
6.59962
6.41787
6.23098
6.03401
5.83777
1
1
1
1
1
1
1
1
1
1
1
1
1
1
1
1
1
1
1
1
1
1
1
1
1
1
1
1
1
1
1
1
1
1
1
1
1
1
1
1
1
1
1
1
1
1
1
1
1
1
1
1
1
1
1
1
1
1
1.00008
1.23884
5.44469
8.92173
9.06749
9.05503
9.04589
9.02171
8.9887
8.95061
8.90689
8.85846
8.80853
8.75658
8.69422
8.62717
8.55871
8.49185
8.42284
8.34525
8.25576
8.1575
8.05799
7.95249
7.84269
7.72808
7.60682
7.47543
7.33634
7.19539
7.04879
6.903
6.74975
6.58531
6.41265
6.23967
6.05267
5.87271
1
1
1
1
1
1
1
1
1
1
1
1
1
1
1
1
1
1
1
1
1
1
1
1
1
1
1
1
1
1
1
1
1
1
1
1
1
1
1
1
1
1
1
1
1
1
1
1
1
1
1
1
1
1
1
1
1
1
1
1.00184
1.53999
6.69795
9.01843
9.04423
9.00766
8.96528
8.92051
8.87119
8.82141
8.76761
8.71588
8.66089
8.59762
8.5307
8.46261
8.39459
8.32685
8.25181
8.16435
8.06917
7.97291
7.87321
7.76793
7.65656
7.53899
7.41285
7.27959
7.14419
7.00799
6.871
6.72836
6.57313
6.40957
6.24618
6.06991
5.90262
1
1
1
1
1
1
1
1
1
1
1
1
1
1
1
1
1
1
1
1
1
1
1
1
1
1
1
1
1
1
1
1
1
1
1
1
1
1
1
1
1
1
1
1
1
1
1
1
1
1
1
1
1
1
1
1
1
1
1
1
1.00847
2.24924
7.79799
9.00403
8.9225
8.8803
8.82208
8.76722
8.71736
8.66978
8.62178
8.57015
8.51055
8.44632
8.38078
8.31319
8.2455
8.17274
8.08567
7.98992
7.89627
7.80154
7.70207
7.59575
7.48256
7.36191
7.23369
7.10237
6.97408
6.84398
6.70964
6.56259
6.40724
6.25109
6.08627
5.92869
1
1
1
1
1
1
1
1
1
1
1
1
1
1
1
1
1
1
1
1
1
1
1
1
1
1
1
1
1
1
1
1
1
1
1
1
1
1
1
1
1
1
1
1
1
1
1
1
1
1
1
1
1
1
1
1
1
1
1
1
1.00001
1.04161
3.60294
8.42067
8.82314
8.73422
8.68597
8.64344
8.60521
8.56611
8.52655
8.47887
8.42492
8.36571
8.30452
8.23889
8.16951
8.09737
8.01061
7.91715
7.82428
7.73363
7.63953
7.53884
7.43076
7.31608
7.19335
7.06694
6.94432
6.81914
6.69055
6.55003
6.4018
6.25278
6.10031
5.9519
1
1
1
1
1
1
1
1
1
1
1
1
1
1
1
1
1
1
1
1
1
1
1
1
1
1
1
1
1
1
1
1
1
1
1
1
1
1
1
1
1
1
1
1
1
1
1
1
1
1
1
1
1
1
1
1
1
1
1
1
1
1.00011
1.1722
4.56034
8.48564
8.62824
8.57705
8.56146
8.53635
8.50546
8.46661
8.41922
8.36451
8.30504
8.24272
8.17631
8.10485
8.03022
7.94641
7.85728
7.76685
7.67736
7.58562
7.48782
7.38333
7.27394
7.15714
7.03667
6.91734
6.79538
6.67062
6.53648
6.39525
6.2546
6.11426
5.97575
1
1
1
1
1
1
1
1
1
1
1
1
1
1
1
1
1
1
1
1
1
1
1
1
1
1
1
1
1
1
1
1
1
1
1
1
1
1
1
1
1
1
1
1
1
1
1
1
1
1
1
1
1
1
1
1
1
1
1
1
1
1
1.00112
1.334
5.11842
8.40134
8.52644
8.50341
8.48434
8.45019
8.40985
8.36186
8.30786
8.24906
8.18521
8.11661
8.04382
7.96707
7.88551
7.80083
7.71389
7.62568
7.53494
7.43857
7.33657
7.23132
7.11985
7.00527
6.88984
6.77104
6.65114
6.52507
6.39135
6.26018
6.1306
6.00234
1
1
1
1
1
1
1
1
1
1
1
1
1
1
1
1
1
1
1
1
1
1
1
1
1
1
1
1
1
1
1
1
1
1
1
1
1
1
1
1
1
1
1
1
1
1
1
1
1
1
1
1
1
1
1
1
1
1
1
1
1
1
1
1.0036
1.48066
5.48014
8.35163
8.46941
8.43843
8.40106
8.3564
8.30713
8.25261
8.19338
8.12856
8.05932
7.98687
7.91148
7.83317
7.75216
7.66812
7.58108
7.4906
7.39482
7.29453
7.1914
7.08396
6.97511
6.86462
6.75056
6.63651
6.51852
6.39388
6.27213
6.15081
6.03129
1
1
1
1
1
1
1
1
1
1
1
1
1
1
1
1
1
1
1
1
1
1
1
1
1
1
1
1
1
1
1
1
1
1
1
1
1
1
1
1
1
1
1
1
1
1
1
1
1
1
1
1
1
1
1
1
1
1
1
1
1
1
1
1.00001
1.007
1.60468
5.75022
8.30469
8.39947
8.35366
8.30675
8.25304
8.19816
8.13818
8.07328
8.00517
7.93464
7.8615
7.78571
7.7068
7.6244
7.5382
7.44807
7.35324
7.25464
7.15421
7.05191
6.94918
6.84471
6.73586
6.6265
6.51555
6.4011
6.28738
6.17186
6.05903
1
1
1
1
1
1
1
1
1
1
1
1
1
1
1
1
1
1
1
1
1
1
1
1
1
1
1
1
1
1
1
1
1
1
1
1
1
1
1
1
1
1
1
1
1
1
1
1
1
1
1
1
1
1
1
1
1
1
1
1
1
1
1
1
1.00001
1.01069
1.71005
5.93044
8.24506
8.31262
8.25996
8.20869
8.14998
8.08785
8.02211
7.95482
7.88562
7.81377
7.73974
7.66275
7.58216
7.4973
7.40816
7.31588
7.22159
7.12587
7.02853
6.9306
6.83132
6.72814
6.62322
6.51738
6.41185
6.3041
6.1927
6.08365
1
1
1
1
1
1
1
1
1
1
1
1
1
1
1
1
1
1
1
1
1
1
1
1
1
1
1
1
1
1
1
1
1
1
1
1
1
1
1
1
1
1
1
1
1
1
1
1
1
1
1
1
1
1
1
1
1
1
1
1
1
1
1
1
1
1.00002
1.01437
1.7901
6.00137
8.17185
8.22403
8.16245
8.10596
8.04207
7.97849
7.91076
7.83997
7.76805
7.69472
7.61871
7.53926
7.45606
7.36968
7.28162
7.19241
7.102
7.01018
6.91723
6.82256
6.72502
6.62471
6.5229
6.42322
6.32031
6.21237
6.10532
1
1
1
1
1
1
1
1
1
1
1
1
1
1
1
1
1
1
1
1
1
1
1
1
1
1
1
1
1
1
1
1
1
1
1
1
1
1
1
1
1
1
1
1
1
1
1
1
1
1
1
1
1
1
1
1
1
1
1
1
1
1
1
1
1
1
1.00004
1.01754
1.83149
5.96704
8.06909
8.13298
8.06077
8.00158
7.93358
7.86552
7.79597
7.72591
7.65354
7.57837
7.50028
7.4199
7.3382
7.25535
7.17143
7.08617
6.9995
6.91092
6.81983
6.72662
6.63048
6.53202
6.43476
6.33498
6.22997
6.12438
1
1
1
1
1
1
1
1
1
1
1
1
1
1
1
1
1
1
1
1
1
1
1
1
1
1
1
1
1
1
1
1
1
1
1
1
1
1
1
1
1
1
1
1
1
1
1
1
1
1
1
1
1
1
1
1
1
1
1
1
1
1
1
1
1
1
1
1.00005
1.01936
1.83043
5.81404
7.95339
8.03178
7.94798
7.88846
7.8201
7.753
7.6848
7.61475
7.54303
7.46924
7.39361
7.31696
7.23939
7.16047
7.07937
6.99612
6.91012
6.8212
6.73038
6.63715
6.54114
6.44475
6.34679
6.24441
6.14122
1
1
1
1
1
1
1
1
1
1
1
1
1
1
1
1
1
1
1
1
1
1
1
1
1
1
1
1
1
1
1
1
1
1
1
1
1
1
1
1
1
1
1
1
1
1
1
1
1
1
1
1
1
1
1
1
1
1
1
1
1
1
1
1
1
1
1
1
1.00005
1.01942
1.78298
5.5258
7.81724
7.92474
7.8345
7.77612
7.71278
7.64832
7.58323
7.51646
7.44802
7.37764
7.30559
7.23171
7.1553
7.07589
6.99383
6.90892
6.82122
6.73159
6.64028
6.54626
6.45069
6.35381
6.2543
6.15436
1
1
1
1
1
1
1
1
1
1
1
1
1
1
1
1
1
1
1
1
1
1
1
1
1
1
1
1
1
1
1
1
1
1
1
1
1
1
1
1
1
1
1
1
1
1
1
1
1
1
1
1
1
1
1
1
1
1
1
1
1
1
1
1
1
1
1
1
1
1.00006
1.01756
1.68844
5.0747
7.64585
7.81783
7.73561
7.67742
7.62005
7.56123
7.50057
7.43665
7.36986
7.30042
7.22817
7.1525
7.07343
6.99148
6.90693
6.81993
6.7311
6.64123
6.54914
6.45505
6.35972
6.26353
6.16741
1
1
1
1
1
1
1
1
1
1
1
1
1
1
1
1
1
1
1
1
1
1
1
1
1
1
1
1
1
1
1
1
1
1
1
1
1
1
1
1
1
1
1
1
1
1
1
1
1
1
1
1
1
1
1
1
1
1
1
1
1
1
1
1
1
1
1
1
1
1
1.00005
1.01411
1.55019
4.46188
7.44845
7.7318
7.66005
7.60977
7.5543
7.49426
7.43151
7.36575
7.29691
7.22464
7.14862
7.06934
6.98738
6.90311
6.81699
6.72935
6.64055
6.55024
6.45849
6.36528
6.2723
6.17981
1
1
1
1
1
1
1
1
1
1
1
1
1
1
1
1
1
1
1
1
1
1
1
1
1
1
1
1
1
1
1
1
1
1
1
1
1
1
1
1
1
1
1
1
1
1
1
1
1
1
1
1
1
1
1
1
1
1
1
1
1
1
1
1
1
1
1
1
1
1
1
1.00004
1.00972
1.38854
3.81872
7.1874
7.65508
7.60983
7.55354
7.49131
7.4255
7.35832
7.2882
7.21515
7.13897
7.06005
6.97868
6.89566
6.81138
6.72544
6.63835
6.55078
6.46218
6.37186
6.28229
6.19345
1
1
1
1
1
1
1
1
1
1
1
1
1
1
1
1
1
1
1
1
1
1
1
1
1
1
1
1
1
1
1
1
1
1
1
1
1
1
1
1
1
1
1
1
1
1
1
1
1
1
1
1
1
1
1
1
1
1
1
1
1
1
1
1
1
1
1
1
1
1
1
1
1.00002
1.00552
1.24879
3.25197
6.82069
7.56991
7.55714
7.47821
7.41989
7.3488
7.27691
7.20287
7.12686
7.04849
6.96866
6.88768
6.80526
6.72194
6.63807
6.55331
6.46757
6.38116
6.29541
6.20932
1
1
1
1
1
1
1
1
1
1
1
1
1
1
1
1
1
1
1
1
1
1
1
1
1
1
1
1
1
1
1
1
1
1
1
1
1
1
1
1
1
1
1
1
1
1
1
1
1
1
1
1
1
1
1
1
1
1
1
1
1
1
1
1
1
1
1
1
1
1
1
1
1
1.00001
1.00269
1.15257
2.72836
6.31754
7.44627
7.50478
7.40096
7.33713
7.26443
7.19114
7.11533
7.03863
6.96084
6.88145
6.80138
6.72108
6.63986
6.55774
6.47536
6.39314
6.31008
6.22658
1
1
1
1
1
1
1
1
1
1
1
1
1
1
1
1
1
1
1
1
1
1
1
1
1
1
1
1
1
1
1
1
1
1
1
1
1
1
1
1
1
1
1
1
1
1
1
1
1
1
1
1
1
1
1
1
1
1
1
1
1
1
1
1
1
1
1
1
1
1
1
1
1
1
1
1.00124
1.08733
2.2647
5.60388
7.31467
7.40189
7.31963
7.25327
7.18033
7.10656
7.03077
6.95452
6.87758
6.80046
6.72286
6.64454
6.56565
6.48674
6.40735
6.32675
6.24632
1
1
1
1
1
1
1
1
1
1
1
1
1
1
1
1
1
1
1
1
1
1
1
1
1
1
1
1
1
1
1
1
1
1
1
1
1
1
1
1
1
1
1
1
1
1
1
1
1
1
1
1
1
1
1
1
1
1
1
1
1
1
1
1
1
1
1
1
1
1
1
1
1
1
1
1
1.00053
1.04657
1.85078
4.75083
7.09
7.30521
7.24564
7.17406
7.10135
7.02901
6.9545
6.87976
6.80532
6.73005
6.65356
6.57722
6.50049
6.42272
6.3445
6.26587
1
1
1
1
1
1
1
1
1
1
1
1
1
1
1
1
1
1
1
1
1
1
1
1
1
1
1
1
1
1
1
1
1
1
1
1
1
1
1
1
1
1
1
1
1
1
1
1
1
1
1
1
1
1
1
1
1
1
1
1
1
1
1
1
1
1
1
1
1
1
1
1
1
1
1
1
1
1.00021
1.02225
1.51425
3.84629
6.70058
7.21003
7.1821
7.10147
7.03073
6.96103
6.88951
6.81718
6.74305
6.66872
6.59372
6.51648
6.43914
6.36169
6.28418
1
1
1
1
1
1
1
1
1
1
1
1
1
1
1
1
1
1
1
1
1
1
1
1
1
1
1
1
1
1
1
1
1
1
1
1
1
1
1
1
1
1
1
1
1
1
1
1
1
1
1
1
1
1
1
1
1
1
1
1
1
1
1
1
1
1
1
1
1
1
1
1
1
1
1
1
1
1
1.00007
1.0093
1.27401
2.99216
6.14499
7.07357
7.12851
7.03208
6.96041
6.89454
6.8266
6.75504
6.68324
6.60777
6.53153
6.45528
6.37795
6.30185
1
1
1
1
1
1
1
1
1
1
1
1
1
1
1
1
1
1
1
1
1
1
1
1
1
1
1
1
1
1
1
1
1
1
1
1
1
1
1
1
1
1
1
1
1
1
1
1
1
1
1
1
1
1
1
1
1
1
1
1
1
1
1
1
1
1
1
1
1
1
1
1
1
1
1
1
1
1
1
1.00002
1.00333
1.12652
2.32872
5.24146
6.8864
7.0488
6.9811
6.90307
6.82802
6.75985
6.6886
6.61595
6.54527
6.47073
6.3964
6.32117
1
1
1
1
1
1
1
1
1
1
1
1
1
1
1
1
1
1
1
1
1
1
1
1
1
1
1
1
1
1
1
1
1
1
1
1
1
1
1
1
1
1
1
1
1
1
1
1
1
1
1
1
1
1
1
1
1
1
1
1
1
1
1
1
1
1
1
1
1
1
1
1
1
1
1
1
1
1
1
1
1
1.00099
1.05441
1.77444
4.17013
6.57165
6.95163
6.92992
6.84202
6.76473
6.69708
6.63298
6.55994
6.48656
6.41464
6.33931
1
1
1
1
1
1
1
1
1
1
1
1
1
1
1
1
1
1
1
1
1
1
1
1
1
1
1
1
1
1
1
1
1
1
1
1
1
1
1
1
1
1
1
1
1
1
1
1
1
1
1
1
1
1
1
1
1
1
1
1
1
1
1
1
1
1
1
1
1
1
1
1
1
1
1
1
1
1
1
1
1
1
1.00027
1.01981
1.38082
3.1676
5.97553
6.75428
6.85373
6.78123
6.71388
6.65442
6.5901
6.51984
6.44017
6.36092
1
1
1
1
1
1
1
1
1
1
1
1
1
1
1
1
1
1
1
1
1
1
1
1
1
1
1
1
1
1
1
1
1
1
1
1
1
1
1
1
1
1
1
1
1
1
1
1
1
1
1
1
1
1
1
1
1
1
1
1
1
1
1
1
1
1
1
1
1
1
1
1
1
1
1
1
1
1
1
1
1
1
1
1.00006
1.00603
1.16129
2.34304
4.95289
6.55559
6.79271
6.7491
6.67075
6.6085
6.54428
6.46782
6.393
1
1
1
1
1
1
1
1
1
1
1
1
1
1
1
1
1
1
1
1
1
1
1
1
1
1
1
1
1
1
1
1
1
1
1
1
1
1
1
1
1
1
1
1
1
1
1
1
1
1
1
1
1
1
1
1
1
1
1
1
1
1
1
1
1
1
1
1
1
1
1
1
1
1
1
1
1
1
1
1
1
1
1
1
1.00001
1.00154
1.05804
1.70647
3.76248
6.21214
6.65653
6.67938
6.61739
6.53983
6.47493
6.40082
1
1
1
1
1
1
1
1
1
1
1
1
1
1
1
1
1
1
1
1
1
1
1
1
1
1
1
1
1
1
1
1
1
1
1
1
1
1
1
1
1
1
1
1
1
1
1
1
1
1
1
1
1
1
1
1
1
1
1
1
1
1
1
1
1
1
1
1
1
1
1
1
1
1
1
1
1
1
1
1
1
1
1
1
1
1
1.0003
1.01762
1.29559
2.81645
5.2361
6.49154
6.64643
6.60815
6.53808
6.45889
1
1
1
1
1
1
1
1
1
1
1
1
1
1
1
1
1
1
1
1
1
1
1
1
1
1
1
1
1
1
1
1
1
1
1
1
1
1
1
1
1
1
1
1
1
1
1
1
1
1
1
1
1
1
1
1
1
1
1
1
1
1
1
1
1
1
1
1
1
1
1
1
1
1
1
1
1
1
1
1
1
1
1
1
1
1
1
1.00005
1.00412
1.114
1.93609
4.24624
6.01568
6.45753
6.57769
6.52569
1
1
1
1
1
1
1
1
1
1
1
1
1
1
1
1
1
1
1
1
1
1
1
1
1
1
1
1
1
1
1
1
1
1
1
1
1
1
1
1
1
1
1
1
1
1
1
1
1
1
1
1
1
1
1
1
1
1
1
1
1
1
1
1
1
1
1
1
1
1
1
1
1
1
1
1
1
1
1
1
1
1
1
1
1
1
1
1
1.00001
1.00092
1.031
1.43456
3.01502
5.35946
6.21422
6.47206
1
1
1
1
1
1
1
1
1
1
1
1
1
1
1
1
1
1
1
1
1
1
1
1
1
1
1
1
1
1
1
1
1
1
1
1
1
1
1
1
1
1
1
1
1
1
1
1
1
1
1
1
1
1
1
1
1
1
1
1
1
1
1
1
1
1
1
1
1
1
1
1
1
1
1
1
1
1
1
1
1
1
1
1
1
1
1
1
1
1
1.00012
1.00778
1.15415
2.08984
4.14786
5.98552
1
1
1
1
1
1
1
1
1
1
1
1
1
1
1
1
1
1
1
1
1
1
1
1
1
1
1
1
1
1
1
1
1
1
1
1
1
1
1
1
1
1
1
1
1
1
1
1
1
1
1
1
1
1
1
1
1
1
1
1
1
1
1
1
1
1
1
1
1
1
1
1
1
1
1
1
1
1
1
1
1
1
1
1
1
1
1
1
1
1
1
1.00002
1.0015
1.04193
1.45654
3.11877
1
1
1
1
1
1
1
1
1
1
1
1
1
1
1
1
1
1
1
1
1
1
1
1
1
1
1
1
1
1
1
1
1
1
1
1
1
1
1
1
1
1
1
1
1
1
1
1
1
1
1
1
1
1
1
1
1
1
1
1
1
1
1
1
1
1
1
1
1
1
1
1
1
1
1
1
1
1
1
1
1
1
1
1
1
1
1
1
1
1
1
1
1
1.00019
1.00929
1.16901
1
1
1
1
1
1
1
1
1
1
1
1
1
1
1
1
1
1
1
1
1
1
1
1
1
1
1
1
1
1
1
1
1
1
1
1
1
1
1
1
1
1
1
1
1
1
1
1
1
1
1
1
1
1
1
1
1
1
1
1
1
1
1
1
1
1
1
1
1
1
1
1
1
1
1
1
1
1
1
1
1
1
1
1
1
1
1
1
1
1
1
1
1
1
1.00003
1.00148
1
1
1
1
1
1
1
1
1
1
1
1
1
1
1
1
1
1
1
1
1
1
1
1
1
1
1
1
1
1
1
1
1
1
1
1
1
1
1
1
1
1
1
1
1
1
1
1
1
1
1
1
1
1
1
1
1
1
1
1
1
1
1
1
1
1
1
1
1
1
1
1
1
1
1
1
1
1
1
1
1
1
1
1
1
1
1
1
1
1
1
1
1
1
1
1
1
1
1
1
1
1
1
1
1
1
1
1
1
1
1
1
1
1
1
1
1
1
1
1
1
1
1
1
1
1
1
1
1
1
1
1
1
1
1
1
1
1
1
1
1
1
1
1
1
1
1
1
1
1
1
1
1
1
1
1
1
1
1
1
1
1
1
1
1
1
1
1
1
1
1
1
1
1
1
1
1
1
1
1
1
1
1
1
1
1
1
1
1
1
1
1
1
1
1
1
1
1
1
1
1
1
1
1
1
1
1
1
1
1
1
1
1
1
1
1
1
1
1
1
1
1
1
1
1
1
1
1
1
1
1
1
1
1
1
1
1
1
1
1
1
1
1
1
1
1
1
1
1
1
1
1
1
1
1
1
1
1
1
1
1
1
1
1
1
1
1
1
1
1
1
1
1
1
1
1
1
1
1
1
1
1
1
1
1
1
1
1
1
1
1
1
1
1
1
1
1
1
1
1
1
1
1
1
1
1
1
1
1
1
1
1
1
1
1
1
1
1
1
1
1
1
1
1
1
1
1
1
1
1
1
1
1
1
1
1
1
1
1
1
1
1
1
1
1
1
1
1
1
1
1
1
1
1
1
1
1
1
1
1
1
1
1
1
1
1
1
1
1
1
1
1
1
1
1
1
1
1
1
1
1
1
1
1
1
1
1
1
1
1
1
1
1
1
1
1
1
1
1
1
1
1
1
1
1
1
1
1
1
1
1
1
1
1
1
1
1
1
1
1
1
1
1
1
1
1
1
1
1
1
1
1
1
1
1
1
1
1
1
1
1
1
1
1
1
1
1
1
1
1
1
1
1
1
1
1
1
1
1
1
1
1
1
1
1
1
1
1
1
1
1
1
1
1
1
1
1
1
1
1
1
1
1
1
1
1
1
1
1
1
1
1
1
1
1
1
1
1
1
1
1
1
1
1
1
1
1
1
1
1
1
1
1
1
1
1
1
1
1
1
1
1
1
1
1
1
1
1
1
1
1
1
1
1
1
1
1
1
1
1
1
1
1
1
1
1
1
1
1
1
1
1
1
1
1
1
1
1
1
1
1
1
1
1
1
1
1
1
1
1
1
1
1
1
1
1
1
1
1
1
1
1
1
1
1
1
1
1
1
1
1
1
1
1
1
1
1
1
1
1
1
1
1
1
1
1
1
1
1
1
1
1
1
1
1
1
1
1
1
1
1
1
1
1
1
1
1
1
1
1
1
1
1
1
1
1
1
1
1
1
1
1
1
1
1
1
1
1
1
1
1
1
1
1
1
1
1
1
1
1
1
1
1
1
1
1
1
1
1
1
1
1
1
1
1
1
1
1
1
1
1
1
1
1
1
1
1
1
1
1
1
1
1
1
1
1
1
1
1
1
1
1
1
1
1
1
1
1
1
1
1
1
1
1
1
1
1
1
1
1
1
1
1
1
1
1
1
1
1
1
1
1
1
1
1
1
1
1
1
1
1
1
1
1
1
1
1
1
1
1
1
1
1
1
1
1
1
1
1
1
1
1
1
1
1
1
1
1
1
1
1
1
1
1
1
1
1
1
1
1
1
1
1
1
1
1
1
1
1
1
1
1
1
1
1
1
1
1
1
1
1
1
1
1
1
1
1
1
1
1
1
1
1
1
1
1
1
1
1
1
1
1
1
1
1
1
1
1
1
1
1
1
1
1
1
1
1
1
1
1
1
1
1
1
1
1
1
1
1
1
1
1
1
1
1
1
1
1
1
1
1
1
1
1
1
1
1
1
1
1
1
1
1
1
1
1
1
1
1
1
1
1
1
1
1
1
1
1
1
1
1
1
1
1
1
1
1
1
1
1
1
1
1
1
1
1
1
1
1
1
1
1
1
1
1
1
1
1
1
1
1
1
1
1
1
1
1
1
1
1
1
1
1
1
1
1
1
1
1
1
1
1
1
1
1
1
1
1
1
1
1
1
1
1
1
1
1
1
1
1
1
1
1
1
1
1
1
1
1
1
1
1
1
1
1
1
1
1
1
1
1
1
1
1
1
1
1
1
1
1
1
1
1
1
1
1
1
1
1
1
1
1
1
1
1
1
1
1
1
1
1
1
1
1
1
1
1
1
1
1
1
1
1
1
1
1
1
1
1
1
1
1
1
1
1
1
1
1
1
1
1
1
1
1
1
1
1
1
1
1
1
1
1
1
1
1
1
1
1
1
1
1
1
1
1
1
1
1
1
1
1
1
1
1
1
1
1
1
1
1
1
1
1
1
1
1
1
1
1
1
1
1
1
1
1
1
1
1
1
1
1
1
1
1
1
1
1
1
1
1
1
1
1
1
1
1
1
1
1
1
1
1
1
1
1
1
1
1
1
1
1
1
1
1
1
1
1
1
1
1
1
1
1
1
1
1
1
1
1
1
1
1
1
1
1
1
1
1
1
1
1
1
1
1
1
1
1
1
1
1
1
1
1
1
1
1
1
1
1
1
1
1
1
1
1
1
1
1
1
1
1
1
1
1
1
1
1
1
1
1
1
1
1
1
1
1
1
1
1
1
1
1
1
1
1
1
1
1
1
1
1
1
1
1
1
1
1
1
1
1
1
1
1
1
1
1
1
1
1
1
1
1
1
1
1
1
1
1
1
1
1
1
1
1
1
1
1
1
1
1
1
1
1
1
1
1
1
1
1
1
1
1
1
1
1
1
1
1
1
1
1
1
1
1
1
1
1
1
1
1
1
1
1
1
1
1
1
1
1
1
1
1
1
1
1
1
1
1
1
1
1
1
1
1
1
1
1
1
1
1
1
1
1
1
1
1
1
1
1
1
1
1
1
1
1
1
1
1
1
1
1
1
1
1
1
1
1
1
1
1
1
1
1
1
1
1
1
1
1
1
1
1
1
1
1
1
1
1
1
1
1
1
1
1
1
1
1
1
1
1
1
1
1
1
1
1
1
1
1
1
1
1
1
1
1
1
1
1
1
1
1
1
1
1
1
1
1
1
1
1
1
1
1
1
1
1
1
1
1
1
1
1
1
1
1
1
1
1
1
1
1
1
1
1
1
1
1
1
1
1
1
1
1
1
1
1
1
1
1
1
1
1
1
1
1
1
1
1
1
1
1
1
1
1
1
1
1
1
1
1
1
1
1
1
1
1
1
1
1
1
1
1
1
1
1
1
1
1
1
1
1
1
1
1
1
1
1
1
1
1
1
1
1
1
1
1
1
1
1
1
1
1
1
1
1
1
1
1
1
1
1
1
1
1
1
1
1
1
1
1
1
1
1
1
1
1
1.15934
0.231616
0.0246571
0.0226094
0.0405613
0.0600025
0.092702
0.130758
0.18516
0.268035
0.357779
0.450545
0.501621
0.527786
0.576398
0.661588
0.752709
0.827204
0.899722
0.95631
0.969817
0.983138
0.986766
0.996537
1.00805
1.00633
1.02569
1.06453
1.10561
1.14206
1.16982
1.18445
1.1917
1.19501
1.19994
1.20865
1.22327
1.24273
1.26096
1.26822
1.26781
1.26925
1.2727
1.27915
1.28557
1.29069
1.2994
1.3093
1.31665
1.32225
1.32726
1.3321
1.33653
1.34173
1.34593
1.3458
1.34324
1.33881
1.33334
1.33131
1.33174
1.33541
1.34476
1.35483
1.35651
1.35115
1.43111
4.48922
6.36795
6.47197
6.52142
6.53082
6.52636
6.49652
6.45066
6.40156
6.35585
6.31405
6.27003
6.2193
6.16171
6.09956
6.03777
5.98118
5.93145
5.88695
5.84465
5.80246
5.76008
5.71703
5.67377
5.6271
5.57374
5.5125
5.44652
5.3804
5.31765
5.25954
5.20434
5.14997
5.09602
5.04498
5.00029
4.96401
4.93676
4.9154
4.893
4.85653
4.80445
4.74977
4.69344
4.63609
4.58246
4.53339
4.48687
4.44225
4.40029
4.3614
4.32607
4.28964
4.24806
4.20128
4.15287
4.10725
4.06512
4.02532
3.98698
3.95007
3.91564
3.88442
3.85743
3.83392
3.80999
3.78118
3.74918
3.71438
3.67273
3.62446
3.57651
3.53595
3.5049
3.48133
3.46107
3.44444
3.43167
3.41543
3.39202
3.36094
3.31709
3.26813
3.22746
3.19604
3.17026
3.14798
3.12788
3.11066
3.09301
3.07168
3.04525
3.00778
2.95994
2.91466
2.87927
2.85018
2.82435
2.80217
2.78409
2.76775
2.75242
2.7385
2.72444
2.7091
2.69275
2.67408
2.65222
2.62611
2.59347
2.55678
2.52344
2.4989
2.4819
2.46877
2.45735
2.44623
2.43508
2.42369
2.41105
2.3972
2.37933
2.35291
2.32078
2.27362
2.05047
0.894957
0.378505
0.261724
0.2393
0.214227
0.193093
0.192984
0.206611
0.225014
0.240894
0.272625
0.324323
0.373538