/*--------------------------------*- C++ -*----------------------------------*\
  =========                 |
  \\      /  F ield         | OpenFOAM: The Open Source CFD Toolbox
   \\    /   O peration     | Website:  https://openfoam.org
    \\  /    A nd           | Version:  7
     \\/     M anipulation  |
\*---------------------------------------------------------------------------*/
FoamFile
{
    version     2.0;
    format      ascii;
    class       volScalarField;
    location    "3";
    object      rho;
}
// * * * * * * * * * * * * * * * * * * * * * * * * * * * * * * * * * * * * * //

dimensions      [1 -3 0 0 0 0 0];

internalField   nonuniform List<scalar> 
19968
(
1.40001
1.40001
1.40001
1.40001
1.40001
1.40001
1.40001
1.40001
1.40001
1.40001
1.40001
1.40001
1.40001
1.40001
1.40001
1.40001
1.40001
1.40001
1.40001
1.40001
1.40001
1.40001
1.40001
1.40001
1.40001
1.40001
1.40001
1.40001
1.40001
1.40001
1.40001
1.40001
1.40001
1.40001
1.40001
1.40001
1.40001
1.40001
1.40001
1.40001
1.40001
1.40001
1.40001
1.40001
1.40001
1.40001
1.40001
1.40001
1.40001
3.86959
5.42145
5.44853
5.46826
5.4858
5.50134
5.51684
5.53336
5.55127
5.57045
5.5909
5.61259
5.63494
5.65749
5.67939
5.6991
5.71504
5.72618
5.73383
5.74209
5.75613
5.77554
5.79633
5.81653
5.83557
5.85133
5.86189
5.86874
5.87573
5.8854
5.8974
5.91029
5.92298
5.93426
5.94346
5.95085
5.95714
5.96296
5.96877
5.97461
5.98003
5.98426
5.9867
5.98744
5.98667
5.98612
5.98708
1.40001
1.40001
1.40001
1.40001
1.40001
1.40001
1.40001
1.40001
1.40001
1.40001
1.40001
1.40001
1.40001
1.40001
1.40001
1.40001
1.40001
1.40001
1.40001
1.40001
1.40001
1.40001
1.40001
1.40001
1.40001
1.40001
1.40001
1.40001
1.40001
1.40001
1.40001
1.40001
1.40001
1.40001
1.40001
1.40001
1.40001
1.40001
1.40001
1.40001
1.40001
1.40001
1.40001
1.40001
1.40001
1.40001
1.40001
1.40001
1.40001
3.82898
5.40712
5.44661
5.46728
5.48541
5.50133
5.51706
5.53361
5.55138
5.57044
5.59096
5.61284
5.63523
5.65764
5.67948
5.69911
5.71481
5.7257
5.73306
5.74076
5.7543
5.77344
5.79432
5.81488
5.83418
5.85002
5.86047
5.86715
5.87398
5.8836
5.89566
5.90866
5.92139
5.93254
5.94149
5.9486
5.95468
5.96041
5.96631
5.97234
5.97796
5.98228
5.98468
5.98526
5.98426
5.98355
5.9844
1.40001
1.40001
1.40001
1.40001
1.40001
1.40001
1.40001
1.40001
1.40001
1.40001
1.40001
1.40001
1.40001
1.40001
1.40001
1.40001
1.40001
1.40001
1.40001
1.40001
1.40001
1.40001
1.40001
1.40001
1.40001
1.40001
1.40001
1.40001
1.40001
1.40001
1.40001
1.40001
1.40001
1.40001
1.40001
1.40001
1.40001
1.40001
1.40001
1.40001
1.40001
1.40001
1.40001
1.40001
1.40001
1.40001
1.40001
1.40001
1.40001
3.74443
5.39173
5.44325
5.46469
5.48344
5.49975
5.51562
5.53198
5.54942
5.56828
5.58892
5.61115
5.63381
5.65631
5.67827
5.69803
5.71375
5.72455
5.73168
5.73862
5.75132
5.76987
5.79074
5.81177
5.83145
5.84759
5.85801
5.86457
5.87125
5.88083
5.89301
5.90617
5.9189
5.92982
5.93835
5.94499
5.95069
5.95626
5.96225
5.96856
5.97447
5.97889
5.98117
5.9814
5.98002
5.97905
5.9797
1.40001
1.40001
1.40001
1.40001
1.40001
1.40001
1.40001
1.40001
1.40001
1.40001
1.40001
1.40001
1.40001
1.40001
1.40001
1.40001
1.40001
1.40001
1.40001
1.40001
1.40001
1.40001
1.40001
1.40001
1.40001
1.40001
1.40001
1.40001
1.40001
1.40001
1.40001
1.40001
1.40001
1.40001
1.40001
1.40001
1.40001
1.40001
1.40001
1.40001
1.40001
1.40001
1.40001
1.40001
1.40001
1.40001
1.40001
1.40001
1.40001
3.61119
5.3692
5.4393
5.46131
5.4814
5.49845
5.51437
5.53012
5.54667
5.56495
5.58555
5.60793
5.63076
5.65329
5.6754
5.69548
5.71152
5.72249
5.72949
5.73556
5.7469
5.76444
5.78512
5.80658
5.82661
5.84318
5.85379
5.86037
5.86692
5.8764
5.88865
5.90194
5.91463
5.92524
5.93323
5.93926
5.94448
5.94987
5.956
5.96264
5.96886
5.97336
5.9755
5.97527
5.97336
5.97201
5.97239
1.40001
1.40001
1.40001
1.40001
1.40001
1.40001
1.40001
1.40001
1.40001
1.40001
1.40001
1.40001
1.40001
1.40001
1.40001
1.40001
1.40001
1.40001
1.40001
1.40001
1.40001
1.40001
1.40001
1.40001
1.40001
1.40001
1.40001
1.40001
1.40001
1.40001
1.40001
1.40001
1.40001
1.40001
1.40001
1.40001
1.40001
1.40001
1.40001
1.40001
1.40001
1.40001
1.40001
1.40001
1.40001
1.40001
1.40001
1.40001
1.40001
3.42221
5.33637
5.43473
5.45709
5.47915
5.4972
5.51342
5.52859
5.54385
5.56075
5.58046
5.60245
5.62529
5.64789
5.67021
5.69097
5.70794
5.71974
5.7271
5.73262
5.74223
5.75836
5.77844
5.80005
5.8203
5.8374
5.84853
5.85544
5.8619
5.87114
5.88323
5.89648
5.90898
5.91916
5.92654
5.93188
5.93653
5.94162
5.94774
5.95452
5.96088
5.96535
5.96733
5.96662
5.96416
5.9623
5.96232
1.40001
1.40001
1.40001
1.40001
1.40001
1.40001
1.40001
1.40001
1.40001
1.40001
1.40001
1.40001
1.40001
1.40001
1.40001
1.40001
1.40001
1.40001
1.40001
1.40001
1.40001
1.40001
1.40001
1.40001
1.40001
1.40001
1.40001
1.40001
1.40001
1.40001
1.40001
1.40001
1.40001
1.40001
1.40001
1.40001
1.40001
1.40001
1.40001
1.40001
1.40001
1.40001
1.40001
1.40001
1.40001
1.40001
1.40001
1.40001
1.40001
3.17249
5.28836
5.42777
5.45109
5.47612
5.4956
5.51267
5.52796
5.54232
5.55732
5.57477
5.59511
5.61711
5.63945
5.66173
5.68316
5.70142
5.71461
5.72293
5.72838
5.73601
5.75017
5.76892
5.79016
5.81032
5.82795
5.83987
5.84742
5.85392
5.86278
5.87452
5.88755
5.89981
5.90967
5.91665
5.92157
5.92589
5.9308
5.93688
5.94368
5.95013
5.95466
5.95669
5.95581
5.95307
5.95069
5.9503
1.40001
1.40001
1.40001
1.40001
1.40001
1.40001
1.40001
1.40001
1.40001
1.40001
1.40001
1.40001
1.40001
1.40001
1.40001
1.40001
1.40001
1.40001
1.40001
1.40001
1.40001
1.40001
1.40001
1.40001
1.40001
1.40001
1.40001
1.40001
1.40001
1.40001
1.40001
1.40001
1.40001
1.40001
1.40001
1.40001
1.40001
1.40001
1.40001
1.40001
1.40001
1.40001
1.40001
1.40001
1.40001
1.40001
1.40001
1.40001
1.40001
2.86156
5.21378
5.41855
5.44382
5.47223
5.49319
5.51124
5.52728
5.54169
5.55543
5.57046
5.58808
5.60801
5.62931
5.6512
5.67295
5.69249
5.70745
5.71741
5.72353
5.7296
5.74153
5.75823
5.77844
5.79813
5.81605
5.82881
5.83721
5.84388
5.85226
5.86334
5.87581
5.88759
5.89706
5.90374
5.90842
5.9125
5.91709
5.92275
5.92908
5.93524
5.93975
5.942
5.94128
5.93858
5.93588
5.93518
1.40001
1.40001
1.40001
1.40001
1.40001
1.40001
1.40001
1.40001
1.40001
1.40001
1.40001
1.40001
1.40001
1.40001
1.40001
1.40001
1.40001
1.40001
1.40001
1.40001
1.40001
1.40001
1.40001
1.40001
1.40001
1.40001
1.40001
1.40001
1.40001
1.40001
1.40001
1.40001
1.40001
1.40001
1.40001
1.40001
1.40001
1.40001
1.40001
1.40001
1.40001
1.40001
1.40001
1.40001
1.40001
1.40001
1.40001
1.40001
1.40001
2.49563
5.10033
5.41489
5.43892
5.46805
5.49043
5.50968
5.5265
5.54133
5.55473
5.56816
5.58311
5.60028
5.61948
5.6401
5.66127
5.68144
5.69803
5.70984
5.71717
5.72244
5.73197
5.74597
5.76439
5.78326
5.80104
5.81452
5.82379
5.83073
5.83856
5.84868
5.86018
5.87116
5.88017
5.88669
5.89136
5.89532
5.89948
5.90438
5.90987
5.91555
5.92017
5.92287
5.92283
5.92079
5.91822
5.9176
1.40001
1.40001
1.40001
1.40001
1.40001
1.40001
1.40001
1.40001
1.40001
1.40001
1.40001
1.40001
1.40001
1.40001
1.40001
1.40001
1.40001
1.40001
1.40001
1.40001
1.40001
1.40001
1.40001
1.40001
1.40001
1.40001
1.40001
1.40001
1.40001
1.40001
1.40001
1.40001
1.40001
1.40001
1.40001
1.40001
1.40001
1.40001
1.40001
1.40001
1.40001
1.40001
1.40001
1.40001
1.40001
1.40001
1.40001
1.40001
1.40001
2.08345
4.89806
5.41939
5.43966
5.46358
5.48417
5.50383
5.52175
5.5379
5.55224
5.5655
5.5789
5.59361
5.61017
5.62864
5.64836
5.66817
5.68577
5.69935
5.70855
5.71434
5.72183
5.73303
5.74902
5.76675
5.78395
5.79807
5.80837
5.81583
5.82315
5.832
5.84203
5.85178
5.86001
5.86622
5.87069
5.87422
5.87745
5.88107
5.88528
5.89012
5.89462
5.89781
5.89855
5.89725
5.89514
5.89493
1.40001
1.40001
1.40001
1.40001
1.40001
1.40001
1.40001
1.40001
1.40001
1.40001
1.40001
1.40001
1.40001
1.40001
1.40001
1.40001
1.40001
1.40001
1.40001
1.40001
1.40001
1.40001
1.40001
1.40001
1.40001
1.40001
1.40001
1.40001
1.40001
1.40001
1.40001
1.40001
1.40001
1.40001
1.40001
1.40001
1.40001
1.40001
1.40001
1.40001
1.40001
1.40001
1.40001
1.40001
1.40001
1.40001
1.40001
1.40001
1.40001
1.70347
4.56607
5.43251
5.42901
5.44873
5.46756
5.48797
5.50787
5.52646
5.54304
5.5575
5.57061
5.58376
5.59826
5.61469
5.63277
5.65157
5.66941
5.68431
5.69572
5.70332
5.70967
5.71847
5.73115
5.74677
5.76253
5.77664
5.78773
5.79585
5.80281
5.81038
5.81889
5.82747
5.83514
5.84127
5.84569
5.84872
5.85082
5.85285
5.8555
5.85916
5.86311
5.86637
5.86765
5.86699
5.86543
5.86571
1.40001
1.40001
1.40001
1.40001
1.40001
1.40001
1.40001
1.40001
1.40001
1.40001
1.40001
1.40001
1.40001
1.40001
1.40001
1.40001
1.40001
1.40001
1.40001
1.40001
1.40001
1.40001
1.40001
1.40001
1.40001
1.40001
1.40001
1.40001
1.40001
1.40001
1.40001
1.40001
1.40001
1.40001
1.40001
1.40001
1.40001
1.40001
1.40001
1.40001
1.40001
1.40001
1.40001
1.40001
1.40001
1.40001
1.40001
1.40001
1.40001
1.41275
3.9872
5.39276
5.41393
5.43345
5.45261
5.47203
5.49215
5.51173
5.53007
5.54636
5.56041
5.57305
5.58588
5.59994
5.61547
5.63209
5.64872
5.66355
5.67593
5.68531
5.69186
5.69915
5.70841
5.72111
5.73494
5.74844
5.76002
5.76898
5.77598
5.78255
5.78958
5.79683
5.80362
5.80919
5.81294
5.81481
5.81534
5.81566
5.81689
5.81957
5.82303
5.8262
5.82775
5.82745
5.82633
5.82699
1.40001
1.40001
1.40001
1.40001
1.40001
1.40001
1.40001
1.40001
1.40001
1.40001
1.40001
1.40001
1.40001
1.40001
1.40001
1.40001
1.40001
1.40001
1.40001
1.40001
1.40001
1.40001
1.40001
1.40001
1.40001
1.40001
1.40001
1.40001
1.40001
1.40001
1.40001
1.40001
1.40001
1.40001
1.40001
1.40001
1.40001
1.40001
1.40001
1.40001
1.40001
1.40001
1.40001
1.40001
1.40001
1.40001
1.40001
1.40001
1.40001
1.40003
3.22312
5.25625
5.37046
5.39854
5.42555
5.44739
5.46818
5.48725
5.5052
5.52148
5.53567
5.54802
5.55972
5.57214
5.58571
5.60022
5.6152
5.62953
5.6424
5.65371
5.66251
5.66987
5.67715
5.68675
5.69817
5.71022
5.72142
5.73075
5.73787
5.74378
5.74967
5.75592
5.76217
5.76756
5.7712
5.77264
5.77236
5.77157
5.7715
5.77257
5.77399
5.77499
5.77456
5.77263
5.77064
5.7709
1.40001
1.40001
1.40001
1.40001
1.40001
1.40001
1.40001
1.40001
1.40001
1.40001
1.40001
1.40001
1.40001
1.40001
1.40001
1.40001
1.40001
1.40001
1.40001
1.40001
1.40001
1.40001
1.40001
1.40001
1.40001
1.40001
1.40001
1.40001
1.40001
1.40001
1.40001
1.40001
1.40001
1.40001
1.40001
1.40001
1.40001
1.40001
1.40001
1.40001
1.40001
1.40001
1.40001
1.40001
1.40001
1.40001
1.40001
1.40001
1.40001
1.40001
2.3191
4.97995
5.36769
5.38543
5.41174
5.43169
5.45089
5.46886
5.48599
5.5019
5.51612
5.52863
5.54021
5.552
5.56432
5.57682
5.58934
5.60156
5.61299
5.62383
5.63339
5.64063
5.64644
5.65244
5.66024
5.6693
5.6785
5.68667
5.69291
5.6975
5.70162
5.70598
5.71034
5.71377
5.71531
5.71423
5.71095
5.70708
5.70435
5.7032
5.703
5.70342
5.70235
5.70025
5.69812
5.69826
1.40001
1.40001
1.40001
1.40001
1.40001
1.40001
1.40001
1.40001
1.40001
1.40001
1.40001
1.40001
1.40001
1.40001
1.40001
1.40001
1.40001
1.40001
1.40001
1.40001
1.40001
1.40001
1.40001
1.40001
1.40001
1.40001
1.40001
1.40001
1.40001
1.40001
1.40001
1.40001
1.40001
1.40001
1.40001
1.40001
1.40001
1.40001
1.40001
1.40001
1.40001
1.40001
1.40001
1.40001
1.40001
1.40001
1.40001
1.40001
1.40001
1.40001
1.5148
4.32522
5.42647
5.41969
5.42393
5.43226
5.4427
5.45469
5.4673
5.48008
5.49224
5.50324
5.51329
5.52325
5.53361
5.54413
5.55459
5.565
5.57502
5.58463
5.59391
5.60127
5.60631
5.60973
5.61383
5.61925
5.62542
5.63115
5.63546
5.63804
5.63986
5.64172
5.6435
5.64457
5.64412
5.6412
5.63648
5.63126
5.62708
5.62408
5.6205
5.61555
5.60704
5.59626
5.58526
5.57706
1.40001
1.40001
1.40001
1.40001
1.40001
1.40001
1.40001
1.40001
1.40001
1.40001
1.40001
1.40001
1.40001
1.40001
1.40001
1.40001
1.40001
1.40001
1.40001
1.40001
1.40001
1.40001
1.40001
1.40001
1.40001
1.40001
1.40001
1.40001
1.40001
1.40001
1.40001
1.40001
1.40001
1.40001
1.40001
1.40001
1.40001
1.40001
1.40001
1.40001
1.40001
1.40001
1.40001
1.40001
1.40001
1.40001
1.40001
1.40001
1.40001
1.40001
1.40052
3.15715
5.25013
5.36457
5.37747
5.39165
5.40541
5.4196
5.43308
5.44587
5.45784
5.46869
5.47846
5.48782
5.49733
5.50686
5.51606
5.5249
5.53332
5.54134
5.54922
5.55606
5.56038
5.56234
5.56341
5.56516
5.56738
5.56918
5.56989
5.56909
5.56753
5.56547
5.56289
5.55933
5.55362
5.54504
5.53359
5.51982
5.50468
5.4885
5.47096
5.452
5.43439
5.41754
5.40799
5.40349
1.40001
1.40001
1.40001
1.40001
1.40001
1.40001
1.40001
1.40001
1.40001
1.40001
1.40001
1.40001
1.40001
1.40001
1.40001
1.40001
1.40001
1.40001
1.40001
1.40001
1.40001
1.40001
1.40001
1.40001
1.40001
1.40001
1.40001
1.40001
1.40001
1.40001
1.40001
1.40001
1.40001
1.40001
1.40001
1.40001
1.40001
1.40001
1.40001
1.40001
1.40001
1.40001
1.40001
1.40001
1.40001
1.40001
1.40001
1.40001
1.40001
1.40001
1.4
1.8538
4.67906
5.36328
5.35837
5.37518
5.38945
5.40317
5.41505
5.42538
5.43463
5.44275
5.44973
5.45598
5.46219
5.46863
5.47502
5.48113
5.48692
5.49223
5.49692
5.5011
5.50373
5.50439
5.50318
5.50164
5.49953
5.49629
5.49201
5.48654
5.48002
5.4725
5.46385
5.45349
5.44054
5.42427
5.40456
5.38144
5.35577
5.32907
5.30224
5.27539
5.23917
5.19513
5.13535
5.15376
1.40001
1.40001
1.40001
1.40001
1.40001
1.40001
1.40001
1.40001
1.40001
1.40001
1.40001
1.40001
1.40001
1.40001
1.40001
1.40001
1.40001
1.40001
1.40001
1.40001
1.40001
1.40001
1.40001
1.40001
1.40001
1.40001
1.40001
1.40001
1.40001
1.40001
1.40001
1.40001
1.40001
1.40001
1.40001
1.40001
1.40001
1.40001
1.40001
1.40001
1.40001
1.40001
1.40001
1.40001
1.40001
1.40001
1.40001
1.40001
1.40001
1.40001
1.4
1.4098
3.46075
5.2532
5.32905
5.35508
5.3734
5.38803
5.39927
5.40757
5.41387
5.41888
5.42281
5.42601
5.42922
5.4329
5.43674
5.44007
5.44269
5.44459
5.44577
5.44662
5.4473
5.44656
5.44397
5.44011
5.43436
5.42675
5.41757
5.40686
5.39474
5.38113
5.36569
5.34766
5.32621
5.30043
5.26921
5.23127
5.1842
5.12725
5.05408
4.95889
4.81271
4.58482
4.1745
3.2737
1.40001
1.40001
1.40001
1.40001
1.40001
1.40001
1.40001
1.40001
1.40001
1.40001
1.40001
1.40001
1.40001
1.40001
1.40001
1.40001
1.40001
1.40001
1.40001
1.40001
1.40001
1.40001
1.40001
1.40001
1.40001
1.40001
1.40001
1.40001
1.40001
1.40001
1.40001
1.40001
1.40001
1.40001
1.40001
1.40001
1.40001
1.40001
1.40001
1.40001
1.40001
1.40001
1.40001
1.40001
1.40001
1.40001
1.40001
1.40001
1.40001
1.40001
1.40001
1.39995
2.21864
4.88784
5.32339
5.33355
5.35702
5.37377
5.38741
5.39705
5.40312
5.40667
5.40873
5.41005
5.41117
5.41256
5.41395
5.41456
5.41389
5.41192
5.4091
5.40603
5.40322
5.3998
5.39518
5.38917
5.38041
5.36925
5.35586
5.3402
5.32252
5.30282
5.28055
5.25497
5.22468
5.18915
5.14552
5.0928
5.02452
4.94082
4.8301
4.69072
4.48801
4.2124
3.68586
2.92087
1.40001
1.40001
1.40001
1.40001
1.40001
1.40001
1.40001
1.40001
1.40001
1.40001
1.40001
1.40001
1.40001
1.40001
1.40001
1.40001
1.40001
1.40001
1.40001
1.40001
1.40001
1.40001
1.40001
1.40001
1.40001
1.40001
1.40001
1.40001
1.40001
1.40001
1.40001
1.40001
1.40001
1.40001
1.40001
1.40001
1.40001
1.40001
1.40001
1.40001
1.40001
1.40001
1.40001
1.40001
1.40001
1.40001
1.40001
1.40001
1.40001
1.40001
1.40001
1.4
1.45616
3.97436
5.32621
5.3254
5.33807
5.35089
5.36366
5.37336
5.37975
5.38318
5.3848
5.38592
5.3867
5.38738
5.38764
5.38637
5.38291
5.37737
5.37045
5.36308
5.35589
5.34869
5.34144
5.33286
5.32126
5.30693
5.28975
5.26954
5.24631
5.22041
5.19106
5.15784
5.1185
5.07321
5.018
4.95213
4.86813
4.76418
4.63199
4.46297
4.24568
3.93225
3.4902
2.98058
1.40001
1.40001
1.40001
1.40001
1.40001
1.40001
1.40001
1.40001
1.40001
1.40001
1.40001
1.40001
1.40001
1.40001
1.40001
1.40001
1.40001
1.40001
1.40001
1.40001
1.40001
1.40001
1.40001
1.40001
1.40001
1.40001
1.40001
1.40001
1.40001
1.40001
1.40001
1.40001
1.40001
1.40001
1.40001
1.40001
1.40001
1.40001
1.40001
1.40001
1.40001
1.40001
1.40001
1.40001
1.40001
1.40001
1.40001
1.40001
1.40001
1.40001
1.40001
1.4
1.40006
2.59383
5.00415
5.29554
5.29862
5.31422
5.32933
5.34064
5.34833
5.35271
5.35487
5.35642
5.35847
5.36062
5.36173
5.36033
5.35576
5.34782
5.33716
5.32533
5.31349
5.30186
5.29115
5.27921
5.26417
5.24639
5.2254
5.20095
5.17236
5.14046
5.10431
5.06378
5.01638
4.962
4.89768
4.82152
4.72837
4.61335
4.47197
4.29433
4.07167
3.79374
3.45273
3.08044
1.40001
1.40001
1.40001
1.40001
1.40001
1.40001
1.40001
1.40001
1.40001
1.40001
1.40001
1.40001
1.40001
1.40001
1.40001
1.40001
1.40001
1.40001
1.40001
1.40001
1.40001
1.40001
1.40001
1.40001
1.40001
1.40001
1.40001
1.40001
1.40001
1.40001
1.40001
1.40001
1.40001
1.40001
1.40001
1.40001
1.40001
1.40001
1.40001
1.40001
1.40001
1.40001
1.40001
1.40001
1.40001
1.40001
1.40001
1.40001
1.40001
1.40001
1.40001
1.40001
1.4
1.50826
4.20634
5.32981
5.31019
5.30896
5.31331
5.31806
5.32101
5.32228
5.32259
5.3228
5.32504
5.32838
5.33036
5.32938
5.32482
5.31594
5.30307
5.28785
5.27181
5.25628
5.24171
5.22606
5.20729
5.1857
5.16059
5.13182
5.09831
5.06118
5.01946
4.97295
4.91931
4.85768
4.7867
4.7042
4.60702
4.48962
4.35052
4.17761
3.97143
3.73794
3.46837
3.17751
1.40001
1.40001
1.40001
1.40001
1.40001
1.40001
1.40001
1.40001
1.40001
1.40001
1.40001
1.40001
1.40001
1.40001
1.40001
1.40001
1.40001
1.40001
1.40001
1.40001
1.40001
1.40001
1.40001
1.40001
1.40001
1.40001
1.40001
1.40001
1.40001
1.40001
1.40001
1.40001
1.40001
1.40001
1.40001
1.40001
1.40001
1.40001
1.40001
1.40001
1.40001
1.40001
1.40001
1.40001
1.40001
1.40001
1.40001
1.40001
1.40001
1.40001
1.40001
1.40001
1.40001
1.40047
2.72696
5.02355
5.2554
5.27053
5.2813
5.28872
5.29224
5.29262
5.29147
5.28934
5.28904
5.29088
5.29238
5.29209
5.28828
5.27932
5.26563
5.24855
5.22973
5.21177
5.19429
5.1758
5.15433
5.12954
5.10043
5.06706
5.02874
4.98662
4.94024
4.88931
4.83125
4.76477
4.6893
4.60348
4.50552
4.39046
4.26027
4.10078
3.91957
3.72502
3.5019
3.26609
1.40001
1.40001
1.40001
1.40001
1.40001
1.40001
1.40001
1.40001
1.40001
1.40001
1.40001
1.40001
1.40001
1.40001
1.40001
1.40001
1.40001
1.40001
1.40001
1.40001
1.40001
1.40001
1.40001
1.40001
1.40001
1.40001
1.40001
1.40001
1.40001
1.40001
1.40001
1.40001
1.40001
1.40001
1.40001
1.40001
1.40001
1.40001
1.40001
1.40001
1.40001
1.40001
1.40001
1.40001
1.40001
1.40001
1.40001
1.40001
1.40001
1.40001
1.40001
1.40001
1.40001
1.4
1.52382
4.12988
5.28133
5.28199
5.27994
5.28275
5.28134
5.27625
5.27005
5.26352
5.25897
5.25794
5.25747
5.25591
5.25123
5.24182
5.22728
5.2088
5.18878
5.16889
5.14867
5.12785
5.10422
5.07705
5.04501
5.00783
4.96515
4.91817
4.86758
4.81342
4.75307
4.68464
4.60712
4.52006
4.42355
4.31173
4.19148
4.04817
3.89187
3.72675
3.53443
3.34058
1.40001
1.40001
1.40001
1.40001
1.40001
1.40001
1.40001
1.40001
1.40001
1.40001
1.40001
1.40001
1.40001
1.40001
1.40001
1.40001
1.40001
1.40001
1.40001
1.40001
1.40001
1.40001
1.40001
1.40001
1.40001
1.40001
1.40001
1.40001
1.40001
1.40001
1.40001
1.40001
1.40001
1.40001
1.40001
1.40001
1.40001
1.40001
1.40001
1.40001
1.40001
1.40001
1.40001
1.40001
1.40001
1.40001
1.40001
1.40001
1.40001
1.40001
1.40001
1.40001
1.40001
1.4
1.40066
2.50181
4.95666
5.24192
5.24489
5.25498
5.25679
5.25139
5.24407
5.23732
5.22889
5.22311
5.21804
5.21303
5.20625
5.19614
5.18154
5.16278
5.14248
5.12137
5.0994
5.07753
5.05332
5.02569
4.99296
4.95419
4.90878
4.85767
4.80293
4.74552
4.68382
4.6155
4.5392
4.45273
4.35938
4.25087
4.13952
4.01143
3.87428
3.73068
3.56754
3.40285
1.40001
1.40001
1.40001
1.40001
1.40001
1.40001
1.40001
1.40001
1.40001
1.40001
1.40001
1.40001
1.40001
1.40001
1.40001
1.40001
1.40001
1.40001
1.40001
1.40001
1.40001
1.40001
1.40001
1.40001
1.40001
1.40001
1.40001
1.40001
1.40001
1.40001
1.40001
1.40001
1.40001
1.40001
1.40001
1.40001
1.40001
1.40001
1.40001
1.40001
1.40001
1.40001
1.40001
1.40001
1.40001
1.40001
1.40001
1.40001
1.40001
1.40001
1.40001
1.40001
1.40001
1.40001
1.4
1.48121
3.75187
5.18672
5.2346
5.24385
5.24368
5.23615
5.22687
5.22095
5.21146
5.20221
5.19233
5.18216
5.17103
5.15756
5.14127
5.12234
5.10087
5.07808
5.05438
5.03111
5.00554
4.97691
4.94364
4.90475
4.85908
4.80641
4.74863
4.68825
4.6251
4.55686
4.48343
4.39882
4.30939
4.20601
4.10317
3.98567
3.86316
3.73553
3.59569
3.45059
1.40001
1.40001
1.40001
1.40001
1.40001
1.40001
1.40001
1.40001
1.40001
1.40001
1.40001
1.40001
1.40001
1.40001
1.40001
1.40001
1.40001
1.40001
1.40001
1.40001
1.40001
1.40001
1.40001
1.40001
1.40001
1.40001
1.40001
1.40001
1.40001
1.40001
1.40001
1.40001
1.40001
1.40001
1.40001
1.40001
1.40001
1.40001
1.40001
1.40001
1.40001
1.40001
1.40001
1.40001
1.40001
1.40001
1.40001
1.40001
1.40001
1.40001
1.40001
1.40001
1.40001
1.40001
1.40001
1.40028
1.97517
4.70218
5.24314
5.22666
5.22281
5.21139
5.2015
5.19467
5.18552
5.17556
5.164
5.15075
5.13602
5.11933
5.10075
5.08228
5.06008
5.03542
5.00993
4.98459
4.95686
4.92661
4.89263
4.85434
4.81049
4.75976
4.70144
4.63972
4.5759
4.50744
4.43594
4.35456
4.26969
4.17428
4.07892
3.96996
3.86049
3.74308
3.62055
3.49125
1.40001
1.40001
1.40001
1.40001
1.40001
1.40001
1.40001
1.40001
1.40001
1.40001
1.40001
1.40001
1.40001
1.40001
1.40001
1.40001
1.40001
1.40001
1.40001
1.40001
1.40001
1.40001
1.40001
1.40001
1.40001
1.40001
1.40001
1.40001
1.40001
1.40001
1.40001
1.40001
1.40001
1.40001
1.40001
1.40001
1.40001
1.40001
1.40001
1.40001
1.40001
1.40001
1.40001
1.40001
1.40001
1.40001
1.40001
1.40001
1.40001
1.40001
1.40001
1.40001
1.40001
1.40001
1.40001
1.40001
1.41956
3.12404
5.07359
5.18472
5.18302
5.17829
5.17431
5.16852
5.15886
5.14774
5.13549
5.12167
5.10548
5.0873
5.06615
5.04599
5.02356
4.99707
4.97051
4.94332
4.91357
4.88122
4.84524
4.80565
4.76303
4.7159
4.66043
4.60025
4.53711
4.4681
4.39694
4.31886
4.23812
4.15097
4.062
3.9619
3.8633
3.75327
3.64279
3.52632
1.40001
1.40001
1.40001
1.40001
1.40001
1.40001
1.40001
1.40001
1.40001
1.40001
1.40001
1.40001
1.40001
1.40001
1.40001
1.40001
1.40001
1.40001
1.40001
1.40001
1.40001
1.40001
1.40001
1.40001
1.40001
1.40001
1.40001
1.40001
1.40001
1.40001
1.40001
1.40001
1.40001
1.40001
1.40001
1.40001
1.40001
1.40001
1.40001
1.40001
1.40001
1.40001
1.40001
1.40001
1.40001
1.40001
1.40001
1.40001
1.40001
1.40001
1.40001
1.40001
1.40001
1.40001
1.40001
1.40001
1.40003
1.5886
4.00673
5.15333
5.16302
5.16484
5.16088
5.15518
5.14474
5.1324
5.11918
5.10449
5.08698
5.06654
5.04216
5.01865
4.99396
4.96524
4.93698
4.90808
4.87624
4.84172
4.80304
4.76075
4.71742
4.67266
4.62132
4.56385
4.502
4.43503
4.36533
4.29139
4.21442
4.13393
4.05045
3.95952
3.86841
3.76599
3.66531
3.55947
1.40001
1.40001
1.40001
1.40001
1.40001
1.40001
1.40001
1.40001
1.40001
1.40001
1.40001
1.40001
1.40001
1.40001
1.40001
1.40001
1.40001
1.40001
1.40001
1.40001
1.40001
1.40001
1.40001
1.40001
1.40001
1.40001
1.40001
1.40001
1.40001
1.40001
1.40001
1.40001
1.40001
1.40001
1.40001
1.40001
1.40001
1.40001
1.40001
1.40001
1.40001
1.40001
1.40001
1.40001
1.40001
1.40001
1.40001
1.40001
1.40001
1.40001
1.40001
1.40001
1.40001
1.40001
1.40001
1.40001
1.40001
1.40182
2.10668
4.75115
5.17857
5.14062
5.13458
5.12788
5.11937
5.10789
5.09464
5.07963
5.06205
5.0404
5.01488
4.98968
4.96183
4.93118
4.90171
4.87258
4.84049
4.80551
4.76572
4.72165
4.67757
4.63214
4.58239
4.52832
4.46989
4.40675
4.33999
4.27072
4.19756
4.12286
4.04412
3.96038
3.87387
3.78029
3.68621
3.58872
1.40001
1.40001
1.40001
1.40001
1.40001
1.40001
1.40001
1.40001
1.40001
1.40001
1.40001
1.40001
1.40001
1.40001
1.40001
1.40001
1.40001
1.40001
1.40001
1.40001
1.40001
1.40001
1.40001
1.40001
1.40001
1.40001
1.40001
1.40001
1.40001
1.40001
1.40001
1.40001
1.40001
1.40001
1.40001
1.40001
1.40001
1.40001
1.40001
1.40001
1.40001
1.40001
1.40001
1.40001
1.40001
1.40001
1.40001
1.40001
1.40001
1.40001
1.40001
1.40001
1.40001
1.40001
1.40001
1.40001
1.40001
1.40001
1.42903
3.04413
5.01865
5.10637
5.10274
5.10289
5.09712
5.08698
5.07349
5.05766
5.03896
5.01628
4.99053
4.96386
4.93333
4.9014
4.8703
4.8407
4.80925
4.77453
4.73476
4.69029
4.64508
4.59779
4.54771
4.49536
4.43981
4.38016
4.31709
4.25276
4.18427
4.1153
4.04174
3.96331
3.88091
3.79573
3.70574
3.61609
1.40001
1.40001
1.40001
1.40001
1.40001
1.40001
1.40001
1.40001
1.40001
1.40001
1.40001
1.40001
1.40001
1.40001
1.40001
1.40001
1.40001
1.40001
1.40001
1.40001
1.40001
1.40001
1.40001
1.40001
1.40001
1.40001
1.40001
1.40001
1.40001
1.40001
1.40001
1.40001
1.40001
1.40001
1.40001
1.40001
1.40001
1.40001
1.40001
1.40001
1.40001
1.40001
1.40001
1.40001
1.40001
1.40001
1.40001
1.40001
1.40001
1.40001
1.40001
1.40001
1.40001
1.40001
1.40001
1.40001
1.40001
1.40001
1.40007
1.56443
3.66493
5.05147
5.10137
5.09529
5.0895
5.07716
5.06048
5.04098
5.01853
4.99345
4.96712
4.93968
4.90816
4.87553
4.84339
4.81294
4.78228
4.7482
4.70868
4.66451
4.61883
4.57014
4.51964
4.46764
4.41374
4.35654
4.29676
4.23636
4.17322
4.10962
4.04183
3.96806
3.88973
3.81045
3.72445
3.64112
1.40001
1.40001
1.40001
1.40001
1.40001
1.40001
1.40001
1.40001
1.40001
1.40001
1.40001
1.40001
1.40001
1.40001
1.40001
1.40001
1.40001
1.40001
1.40001
1.40001
1.40001
1.40001
1.40001
1.40001
1.40001
1.40001
1.40001
1.40001
1.40001
1.40001
1.40001
1.40001
1.40001
1.40001
1.40001
1.40001
1.40001
1.40001
1.40001
1.40001
1.40001
1.40001
1.40001
1.40001
1.40001
1.40001
1.40001
1.40001
1.40001
1.40001
1.40001
1.40001
1.40001
1.40001
1.40001
1.40001
1.40001
1.40001
1.40001
1.40145
1.74896
4.22664
5.12068
5.11043
5.09212
5.07068
5.04732
5.02135
4.99482
4.96661
4.93949
4.91141
4.88057
4.8491
4.81805
4.78779
4.75799
4.72492
4.68579
4.64198
4.59644
4.54875
4.49866
4.44659
4.39302
4.33711
4.2793
4.22122
4.16285
4.10367
4.0412
3.97218
3.89839
3.82368
3.74257
3.66471
1.40001
1.40001
1.40001
1.40001
1.40001
1.40001
1.40001
1.40001
1.40001
1.40001
1.40001
1.40001
1.40001
1.40001
1.40001
1.40001
1.40001
1.40001
1.40001
1.40001
1.40001
1.40001
1.40001
1.40001
1.40001
1.40001
1.40001
1.40001
1.40001
1.40001
1.40001
1.40001
1.40001
1.40001
1.40001
1.40001
1.40001
1.40001
1.40001
1.40001
1.40001
1.40001
1.40001
1.40001
1.40001
1.40001
1.40001
1.40001
1.40001
1.40001
1.40001
1.40001
1.40001
1.40001
1.40001
1.40001
1.40001
1.40001
1.40001
1.40001
1.40656
2.155
4.72778
5.13373
5.09195
5.06462
5.03145
4.99943
4.96952
4.94125
4.91407
4.8863
4.85665
4.8266
4.79716
4.76761
4.73825
4.70642
4.66758
4.62337
4.57845
4.5321
4.48342
4.43224
4.3792
4.32435
4.2676
4.21051
4.15518
4.09897
4.04038
3.97544
3.90583
3.83483
3.75918
3.68593
1.40001
1.40001
1.40001
1.40001
1.40001
1.40001
1.40001
1.40001
1.40001
1.40001
1.40001
1.40001
1.40001
1.40001
1.40001
1.40001
1.40001
1.40001
1.40001
1.40001
1.40001
1.40001
1.40001
1.40001
1.40001
1.40001
1.40001
1.40001
1.40001
1.40001
1.40001
1.40001
1.40001
1.40001
1.40001
1.40001
1.40001
1.40001
1.40001
1.40001
1.40001
1.40001
1.40001
1.40001
1.40001
1.40001
1.40001
1.40001
1.40001
1.40001
1.40001
1.40001
1.40001
1.40001
1.40001
1.40001
1.40001
1.40001
1.40001
1.40001
1.40002
1.43156
2.85083
4.93896
5.06978
5.03067
5.00197
4.97472
4.94809
4.92069
4.89394
4.86645
4.83743
4.80812
4.77962
4.75027
4.71985
4.68812
4.6494
4.60629
4.56188
4.51725
4.4706
4.42126
4.36953
4.31612
4.26052
4.20442
4.15061
4.09588
4.03948
3.97737
3.91104
3.84344
3.77349
3.70462
1.40001
1.40001
1.40001
1.40001
1.40001
1.40001
1.40001
1.40001
1.40001
1.40001
1.40001
1.40001
1.40001
1.40001
1.40001
1.40001
1.40001
1.40001
1.40001
1.40001
1.40001
1.40001
1.40001
1.40001
1.40001
1.40001
1.40001
1.40001
1.40001
1.40001
1.40001
1.40001
1.40001
1.40001
1.40001
1.40001
1.40001
1.40001
1.40001
1.40001
1.40001
1.40001
1.40001
1.40001
1.40001
1.40001
1.40001
1.40001
1.40001
1.40001
1.40001
1.40001
1.40001
1.40001
1.40001
1.40001
1.40001
1.40001
1.40001
1.40001
1.40001
1.4001
1.52242
3.303
4.95301
4.99324
4.97025
4.95841
4.9408
4.91923
4.89359
4.86582
4.83536
4.804
4.77279
4.74104
4.70802
4.67393
4.6356
4.59401
4.55072
4.50688
4.46154
4.41358
4.3632
4.31153
4.25763
4.20307
4.1496
4.0953
4.03981
3.97985
3.91613
3.85193
3.78724
3.7228
1.40001
1.40001
1.40001
1.40001
1.40001
1.40001
1.40001
1.40001
1.40001
1.40001
1.40001
1.40001
1.40001
1.40001
1.40001
1.40001
1.40001
1.40001
1.40001
1.40001
1.40001
1.40001
1.40001
1.40001
1.40001
1.40001
1.40001
1.40001
1.40001
1.40001
1.40001
1.40001
1.40001
1.40001
1.40001
1.40001
1.40001
1.40001
1.40001
1.40001
1.40001
1.40001
1.40001
1.40001
1.40001
1.40001
1.40001
1.40001
1.40001
1.40001
1.40001
1.40001
1.40001
1.40001
1.40001
1.40001
1.40001
1.40001
1.40001
1.40001
1.40001
1.40001
1.40092
1.62632
3.57112
4.93848
4.95561
4.94357
4.93153
4.91238
4.88955
4.8631
4.83399
4.80306
4.7704
4.73626
4.70085
4.66402
4.62503
4.58428
4.54202
4.49872
4.45407
4.40704
4.35792
4.30794
4.25593
4.20324
4.15061
4.09673
4.04229
3.98487
3.92363
3.863
3.80265
3.74245
1.40001
1.40001
1.40001
1.40001
1.40001
1.40001
1.40001
1.40001
1.40001
1.40001
1.40001
1.40001
1.40001
1.40001
1.40001
1.40001
1.40001
1.40001
1.40001
1.40001
1.40001
1.40001
1.40001
1.40001
1.40001
1.40001
1.40001
1.40001
1.40001
1.40001
1.40001
1.40001
1.40001
1.40001
1.40001
1.40001
1.40001
1.40001
1.40001
1.40001
1.40001
1.40001
1.40001
1.40001
1.40001
1.40001
1.40001
1.40001
1.40001
1.40001
1.40001
1.40001
1.40001
1.40001
1.40001
1.40001
1.40001
1.40001
1.40001
1.40001
1.40001
1.40001
1.40001
1.40288
1.71785
3.75633
4.94483
4.94326
4.92616
4.90568
4.88212
4.85664
4.82887
4.79899
4.76657
4.73215
4.69627
4.65899
4.62024
4.58006
4.53835
4.49521
4.45062
4.40395
4.35569
4.30665
4.25615
4.20535
4.15413
4.10144
4.04861
3.9938
3.93575
3.87857
3.82123
3.76433
1.40001
1.40001
1.40001
1.40001
1.40001
1.40001
1.40001
1.40001
1.40001
1.40001
1.40001
1.40001
1.40001
1.40001
1.40001
1.40001
1.40001
1.40001
1.40001
1.40001
1.40001
1.40001
1.40001
1.40001
1.40001
1.40001
1.40001
1.40001
1.40001
1.40001
1.40001
1.40001
1.40001
1.40001
1.40001
1.40001
1.40001
1.40001
1.40001
1.40001
1.40001
1.40001
1.40001
1.40001
1.40001
1.40001
1.40001
1.40001
1.40001
1.40001
1.40001
1.40001
1.40001
1.40001
1.40001
1.40001
1.40001
1.40001
1.40001
1.40001
1.40001
1.40001
1.40001
1.40001
1.40556
1.79435
3.90011
4.94749
4.93427
4.90744
4.88045
4.8512
4.82243
4.79216
4.76006
4.7265
4.69163
4.65531
4.61748
4.57799
4.53679
4.49388
4.44937
4.40311
4.35555
4.30742
4.25872
4.21011
4.16091
4.10981
4.05836
4.00599
3.95175
3.89745
3.84197
3.78735
1.40001
1.40001
1.40001
1.40001
1.40001
1.40001
1.40001
1.40001
1.40001
1.40001
1.40001
1.40001
1.40001
1.40001
1.40001
1.40001
1.40001
1.40001
1.40001
1.40001
1.40001
1.40001
1.40001
1.40001
1.40001
1.40001
1.40001
1.40001
1.40001
1.40001
1.40001
1.40001
1.40001
1.40001
1.40001
1.40001
1.40001
1.40001
1.40001
1.40001
1.40001