/*--------------------------------*- C++ -*----------------------------------*\
  =========                 |
  \\      /  F ield         | OpenFOAM: The Open Source CFD Toolbox
   \\    /   O peration     | Website:  https://openfoam.org
    \\  /    A nd           | Version:  7
     \\/     M anipulation  |
\*---------------------------------------------------------------------------*/
FoamFile
{
    version     2.0;
    format      ascii;
    class       volScalarField;
    location    "3";
    object      T;
}
// * * * * * * * * * * * * * * * * * * * * * * * * * * * * * * * * * * * * * //

dimensions      [0 0 0 1 0 0 0];

internalField   nonuniform List<scalar> 
19968
(
1
1
1
1
1
1
1
1
1
1
1
1
1
1
1
1
1
1
1
1
1
1
1
1
1
1
1
1
1
1
1
1
1
1
1
1
1
1
1
1
1
1
1
1
1
1
1
1
1
2.23597
2.69225
2.69247
2.69539
2.7003
2.70607
2.71241
2.71893
2.72501
2.72993
2.73326
2.73498
2.73564
2.73613
2.73717
2.73955
2.74404
2.75067
2.75834
2.76522
2.76978
2.77152
2.77175
2.77172
2.772
2.77359
2.7772
2.78207
2.78646
2.78911
2.79017
2.79068
2.79152
2.79318
2.79563
2.7984
2.801
2.80317
2.80484
2.80598
2.80674
2.80745
2.80853
2.81031
2.81244
2.81432
2.81532
1
1
1
1
1
1
1
1
1
1
1
1
1
1
1
1
1
1
1
1
1
1
1
1
1
1
1
1
1
1
1
1
1
1
1
1
1
1
1
1
1
1
1
1
1
1
1
1
1
2.2245
2.69009
2.69206
2.69531
2.70021
2.70603
2.71247
2.71907
2.72521
2.73019
2.73353
2.73523
2.73583
2.73625
2.73723
2.73957
2.744
2.75056
2.75816
2.76493
2.76943
2.77113
2.77138
2.77138
2.77171
2.77335
2.77696
2.78178
2.78611
2.78873
2.78979
2.79033
2.79119
2.79285
2.79527
2.798
2.80056
2.80271
2.80438
2.80555
2.80634
2.80706
2.80815
2.8099
2.81199
2.81384
2.81482
1
1
1
1
1
1
1
1
1
1
1
1
1
1
1
1
1
1
1
1
1
1
1
1
1
1
1
1
1
1
1
1
1
1
1
1
1
1
1
1
1
1
1
1
1
1
1
1
1
2.19863
2.68848
2.69142
2.69462
2.69943
2.70532
2.71199
2.71885
2.7252
2.73035
2.73383
2.73556
2.73609
2.73641
2.73727
2.73947
2.74373
2.75012
2.75759
2.76427
2.76879
2.77051
2.77077
2.77085
2.77124
2.77293
2.77651
2.78125
2.7855
2.78807
2.78915
2.78974
2.79065
2.79232
2.79471
2.79736
2.79985
2.80196
2.80363
2.80483
2.80566
2.8064
2.80749
2.8092
2.81122
2.81302
2.81395
1
1
1
1
1
1
1
1
1
1
1
1
1
1
1
1
1
1
1
1
1
1
1
1
1
1
1
1
1
1
1
1
1
1
1
1
1
1
1
1
1
1
1
1
1
1
1
1
1
2.15717
2.68628
2.6905
2.69339
2.69803
2.70393
2.71088
2.71817
2.72492
2.73037
2.73406
2.73591
2.73648
2.7367
2.73737
2.73925
2.74308
2.74903
2.75624
2.76291
2.76763
2.76958
2.76993
2.77009
2.77051
2.77216
2.7756
2.78018
2.78435
2.78695
2.7881
2.78878
2.78975
2.79142
2.79375
2.79631
2.79872
2.80079
2.80247
2.80371
2.80458
2.80532
2.80641
2.80807
2.81002
2.81175
2.8126
1
1
1
1
1
1
1
1
1
1
1
1
1
1
1
1
1
1
1
1
1
1
1
1
1
1
1
1
1
1
1
1
1
1
1
1
1
1
1
1
1
1
1
1
1
1
1
1
1
2.09642
2.68254
2.68958
2.69182
2.69608
2.70171
2.70868
2.71629
2.72353
2.72952
2.73371
2.73594
2.73669
2.73689
2.7374
2.73888
2.74204
2.74727
2.75405
2.7608
2.76596
2.76846
2.76904
2.76927
2.76966
2.77115
2.77428
2.77863
2.78274
2.78545
2.78677
2.78755
2.78856
2.79019
2.79242
2.79488
2.79721
2.79926
2.80093
2.80217
2.80305
2.80379
2.80486
2.80646
2.80837
2.80999
2.81076
1
1
1
1
1
1
1
1
1
1
1
1
1
1
1
1
1
1
1
1
1
1
1
1
1
1
1
1
1
1
1
1
1
1
1
1
1
1
1
1
1
1
1
1
1
1
1
1
1
2.00974
2.67329
2.68935
2.69016
2.69366
2.69866
2.70522
2.71275
2.72031
2.72698
2.73206
2.73511
2.73632
2.73664
2.73703
2.73805
2.74039
2.74466
2.7508
2.75757
2.76326
2.76661
2.76759
2.76792
2.76821
2.76941
2.77208
2.77609
2.78016
2.78308
2.78465
2.7856
2.78665
2.78824
2.79038
2.79277
2.7951
2.79717
2.79886
2.80011
2.801
2.80175
2.80284
2.80444
2.80633
2.80788
2.80857
1
1
1
1
1
1
1
1
1
1
1
1
1
1
1
1
1
1
1
1
1
1
1
1
1
1
1
1
1
1
1
1
1
1
1
1
1
1
1
1
1
1
1
1
1
1
1
1
1
1.88945
2.65166
2.68957
2.68872
2.6911
2.69503
2.70076
2.70781
2.71533
2.72242
2.72838
2.73261
2.73483
2.73565
2.73606
2.73676
2.73837
2.74161
2.74691
2.75349
2.75965
2.76398
2.7656
2.76611
2.7663
2.76716
2.76929
2.77286
2.77683
2.77997
2.78185
2.78297
2.78406
2.78557
2.78762
2.78998
2.79234
2.79445
2.79612
2.79731
2.79815
2.79889
2.80006
2.80172
2.80362
2.80514
2.80579
1
1
1
1
1
1
1
1
1
1
1
1
1
1
1
1
1
1
1
1
1
1
1
1
1
1
1
1
1
1
1
1
1
1
1
1
1
1
1
1
1
1
1
1
1
1
1
1
1
1.7308
2.61366
2.68852
2.68715
2.68891
2.69179
2.69641
2.70253
2.70949
2.71655
2.72304
2.7283
2.73179
2.73356
2.73435
2.73498
2.73612
2.73846
2.74272
2.74875
2.75507
2.76022
2.76272
2.7636
2.76373
2.7643
2.76591
2.76896
2.77271
2.77598
2.77812
2.77941
2.78051
2.78195
2.78392
2.78628
2.78871
2.79085
2.79249
2.79359
2.79438
2.79514
2.7964
2.79822
2.80026
2.80184
2.80252
1
1
1
1
1
1
1
1
1
1
1
1
1
1
1
1
1
1
1
1
1
1
1
1
1
1
1
1
1
1
1
1
1
1
1
1
1
1
1
1
1
1
1
1
1
1
1
1
1
1.51114
2.54279
2.68497
2.68477
2.68667
2.68922
2.69292
2.69784
2.70378
2.71025
2.71672
2.72257
2.72719
2.73018
2.73176
2.73266
2.73362
2.7353
2.73851
2.74362
2.74972
2.75533
2.75886
2.76039
2.76074
2.76116
2.76235
2.76485
2.76825
2.77149
2.77378
2.77517
2.77624
2.77756
2.77941
2.78172
2.78414
2.78625
2.7878
2.78878
2.78949
2.79025
2.79156
2.79354
2.79579
2.79747
2.79825
1
1
1
1
1
1
1
1
1
1
1
1
1
1
1
1
1
1
1
1
1
1
1
1
1
1
1
1
1
1
1
1
1
1
1
1
1
1
1
1
1
1
1
1
1
1
1
1
1
1.25612
2.43918
2.68323
2.68239
2.68544
2.68776
2.69074
2.69459
2.69926
2.70455
2.7102
2.71583
2.72096
2.72503
2.72774
2.72935
2.73051
2.73191
2.73425
2.73827
2.74366
2.74924
2.75363
2.75602
2.7569
2.75734
2.75822
2.76012
2.76299
2.766
2.76835
2.76983
2.77091
2.77215
2.7739
2.77615
2.77854
2.7806
2.78204
2.7829
2.78351
2.7842
2.78547
2.78756
2.78998
2.79179
2.79271
1
1
1
1
1
1
1
1
1
1
1
1
1
1
1
1
1
1
1
1
1
1
1
1
1
1
1
1
1
1
1
1
1
1
1
1
1
1
1
1
1
1
1
1
1
1
1
1
1
1.00806
2.27204
2.68454
2.68478
2.68624
2.68828
2.69069
2.69355
2.69685
2.7007
2.70506
2.70977
2.71456
2.719
2.72257
2.725
2.7266
2.72795
2.72965
2.73246
2.73671
2.74174
2.74654
2.7498
2.75153
2.75228
2.75307
2.75448
2.75674
2.75939
2.76167
2.76322
2.76429
2.7654
2.76691
2.7689
2.77111
2.77304
2.77439
2.77523
2.77583
2.77649
2.77771
2.77981
2.78232
2.78428
2.78532
1
1
1
1
1
1
1
1
1
1
1
1
1
1
1
1
1
1
1
1
1
1
1
1
1
1
1
1
1
1
1
1
1
1
1
1
1
1
1
1
1
1
1
1
1
1
1
1
1
1.00001
2.02178
2.65479
2.67386
2.67809
2.68277
2.68666
2.68988
2.69265
2.69554
2.69877
2.70243
2.70646
2.71063
2.71451
2.71761
2.71976
2.72133
2.72284
2.72493
2.72822
2.7326
2.73729
2.74112
2.74366
2.745
2.7459
2.74701
2.7487
2.75087
2.75297
2.75455
2.75566
2.7567
2.75802
2.7598
2.76189
2.76382
2.76522
2.76608
2.76661
2.76701
2.76784
2.76944
2.77157
2.77342
2.77438
1
1
1
1
1
1
1
1
1
1
1
1
1
1
1
1
1
1
1
1
1
1
1
1
1
1
1
1
1
1
1
1
1
1
1
1
1
1
1
1
1
1
1
1
1
1
1
1
1
1
1.63261
2.55713
2.65948
2.66768
2.67511
2.68034
2.68445
2.68776
2.69083
2.69393
2.69724
2.7008
2.70457
2.70835
2.71167
2.71417
2.71593
2.71733
2.7189
2.72124
2.72461
2.72856
2.7323
2.73508
2.73681
2.73782
2.73868
2.73982
2.74136
2.74301
2.74435
2.74527
2.74599
2.74681
2.74798
2.74933
2.75065
2.75177
2.75248
2.75284
2.75312
2.75387
2.75521
2.7571
2.75868
2.75947
1
1
1
1
1
1
1
1
1
1
1
1
1
1
1
1
1
1
1
1
1
1
1
1
1
1
1
1
1
1
1
1
1
1
1
1
1
1
1
1
1
1
1
1
1
1
1
1
1
1
1.0885
2.34499
2.66359
2.67051
2.67361
2.67585
2.67828
2.68107
2.68408
2.68723
2.69044
2.69371
2.69707
2.70048
2.70372
2.70639
2.70834
2.70979
2.7111
2.71278
2.71527
2.71845
2.72178
2.72451
2.72635
2.72739
2.72803
2.72868
2.72958
2.73063
2.73153
2.73209
2.73238
2.73269
2.73315
2.73372
2.73462
2.73564
2.73646
2.73688
2.73685
2.73668
2.73617
2.73545
2.73429
2.73274
1
1
1
1
1
1
1
1
1
1
1
1
1
1
1
1
1
1
1
1
1
1
1
1
1
1
1
1
1
1
1
1
1
1
1
1
1
1
1
1
1
1
1
1
1
1
1
1
1
1
1.00046
1.99404
2.63441
2.65051
2.65402
2.65772
2.66156
2.66577
2.67001
2.67419
2.67823
2.68214
2.68596
2.68973
2.69331
2.69639
2.69871
2.70035
2.70164
2.70301
2.70493
2.70751
2.71035
2.71288
2.71461
2.71552
2.71579
2.7159
2.7161
2.71632
2.71648
2.71641
2.71605
2.71538
2.71448
2.71353
2.71271
2.71191
2.71082
2.7091
2.70662
2.70371
2.70134
2.69933
2.69833
2.69754
1
1
1
1
1
1
1
1
1
1
1
1
1
1
1
1
1
1
1
1
1
1
1
1
1
1
1
1
1
1
1
1
1
1
1
1
1
1
1
1
1
1
1
1
1
1
1
1
1
1
1
1.33649
2.43005
2.62459
2.63304
2.64069
2.64529
2.64966
2.65406
2.65857
2.66316
2.66772
2.67215
2.67636
2.68026
2.68363
2.68624
2.68809
2.68946
2.69074
2.69226
2.69429
2.69667
2.69894
2.70047
2.70115
2.70099
2.70046
2.69975
2.69898
2.69817
2.69716
2.69578
2.69385
2.69135
2.68846
2.68545
2.68239
2.67917
2.67555
2.67117
2.66634
2.66236
2.6625
2.66101
2.67589
1
1
1
1
1
1
1
1
1
1
1
1
1
1
1
1
1
1
1
1
1
1
1
1
1
1
1
1
1
1
1
1
1
1
1
1
1
1
1
1
1
1
1
1
1
1
1
1
1
1
1
1.0079
2.10089
2.62421
2.62652
2.62922
2.63249
2.63589
2.63946
2.64339
2.64779
2.6525
2.65723
2.66172
2.66585
2.66947
2.67237
2.67449
2.67602
2.67735
2.67879
2.68059
2.68277
2.68486
2.68628
2.68677
2.68635
2.6853
2.68378
2.68199
2.68007
2.67796
2.67541
2.67212
2.66794
2.66289
2.65709
2.65048
2.64253
2.63264
2.61885
2.59983
2.57171
2.53191
2.46972
2.34169
1
1
1
1
1
1
1
1
1
1
1
1
1
1
1
1
1
1
1
1
1
1
1
1
1
1
1
1
1
1
1
1
1
1
1
1
1
1
1
1
1
1
1
1
1
1
1
1
1
1
1
0.999997
1.54556
2.49137
2.62066
2.62306
2.62713
2.62928
2.6314
2.63395
2.63725
2.64127
2.64563
2.6499
2.65378
2.65717
2.65998
2.66219
2.6639
2.66532
2.66677
2.66847
2.67051
2.67252
2.67384
2.6741
2.67355
2.67219
2.67006
2.66738
2.66438
2.66111
2.65731
2.65268
2.64685
2.63979
2.63115
2.62098
2.60805
2.59214
2.57031
2.54161
2.49933
2.44316
2.33576
2.17268
1
1
1
1
1
1
1
1
1
1
1
1
1
1
1
1
1
1
1
1
1
1
1
1
1
1
1
1
1
1
1
1
1
1
1
1
1
1
1
1
1
1
1
1
1
1
1
1
1
1
1
0.999999
1.03403
2.24089
2.62564
2.62349
2.6253
2.62572
2.62583
2.62626
2.62772
2.63043
2.63394
2.63759
2.64083
2.64357
2.64592
2.64779
2.64938
2.65085
2.65235
2.65405
2.65599
2.65791
2.6592
2.65935
2.6588
2.65732
2.65481
2.65145
2.64744
2.64298
2.63785
2.63181
2.6243
2.61531
2.60415
2.59081
2.57392
2.55297
2.52589
2.4901
2.4428
2.37203
2.26783
2.1429
1
1
1
1
1
1
1
1
1
1
1
1
1
1
1
1
1
1
1
1
1
1
1
1
1
1
1
1
1
1
1
1
1
1
1
1
1
1
1
1
1
1
1
1
1
1
1
1
1
1
1
1
1.00006
1.73311
2.52515
2.60823
2.61399
2.6176
2.61831
2.61869
2.61964
2.62156
2.62426
2.62706
2.62946
2.63129
2.63278
2.63394
2.63496
2.63609
2.63738
2.63892
2.64067
2.64234
2.64352
2.64361
2.64307
2.64157
2.6389
2.63513
2.63033
2.62482
2.6184
2.61097
2.60194
2.59118
2.57811
2.56237
2.543
2.51889
2.48889
2.45024
2.40024
2.33485
2.24919
2.15368
1
1
1
1
1
1
1
1
1
1
1
1
1
1
1
1
1
1
1
1
1
1
1
1
1
1
1
1
1
1
1
1
1
1
1
1
1
1
1
1
1
1
1
1
1
1
1
1
1
1
1
1
1
1.06902
2.28458
2.60913
2.60595
2.60739
2.60965
2.61108
2.61217
2.61371
2.61584
2.61792
2.61955
2.62039
2.62077
2.6209
2.62097
2.6213
2.62201
2.62309
2.62435
2.62553
2.62629
2.62627
2.62567
2.62413
2.6214
2.61746
2.61224
2.60604
2.59871
2.5902
2.57997
2.5678
2.55337
2.5362
2.51564
2.49043
2.46014
2.42158
2.37422
2.31852
2.25141
2.17463
1
1
1
1
1
1
1
1
1
1
1
1
1
1
1
1
1
1
1
1
1
1
1
1
1
1
1
1
1
1
1
1
1
1
1
1
1
1
1
1
1
1
1
1
1
1
1
1
1
1
1
1
1
1.00031
1.78348
2.52322
2.58126
2.5893
2.59456
2.59806
2.60061
2.6032
2.60611
2.60847
2.60953
2.60972
2.60941
2.60877
2.60793
2.60742
2.60737
2.60755
2.60792
2.60833
2.6084
2.60819
2.60735
2.60566
2.60286
2.59888
2.59353
2.587
2.57921
2.57009
2.55915
2.54607
2.53075
2.51286
2.492
2.46699
2.43819
2.40203
2.35983
2.31309
2.25764
2.19646
1
1
1
1
1
1
1
1
1
1
1
1
1
1
1
1
1
1
1
1
1
1
1
1
1
1
1
1
1
1
1
1
1
1
1
1
1
1
1
1
1
1
1
1
1
1
1
1
1
1
1
1
1
1
1.08025
2.26029
2.58313
2.58035
2.5807
2.5831
2.58605
2.58952
2.59382
2.59748
2.59918
2.59945
2.59913
2.59811
2.59668
2.59543
2.59443
2.59358
2.59291
2.59226
2.59136
2.59025
2.58861
2.58641
2.58341
2.57943
2.57413
2.56753
2.55965
2.55046
2.53945
2.52622
2.51063
2.49254
2.472
2.44758
2.4208
2.38805
2.35144
2.31157
2.26383
2.21434
1
1
1
1
1
1
1
1
1
1
1
1
1
1
1
1
1
1
1
1
1
1
1
1
1
1
1
1
1
1
1
1
1
1
1
1
1
1
1
1
1
1
1
1
1
1
1
1
1
1
1
1
1
1
1.00042
1.66444
2.47473
2.55176
2.55878
2.56424
2.56878
2.57296
2.57818
2.58326
2.58581
2.58652
2.58628
2.58527
2.58379
2.58246
2.58119
2.57977
2.57837
2.57681
2.57484
2.57261
2.56993
2.56697
2.5636
2.55954
2.55433
2.54775
2.53991
2.53085
2.52021
2.5075
2.49252
2.47481
2.45513
2.43153
2.40677
2.3775
2.34541
2.31096
2.27054
2.22874
1
1
1
1
1
1
1
1
1
1
1
1
1
1
1
1
1
1
1
1
1
1
1
1
1
1
1
1
1
1
1
1
1
1
1
1
1
1
1
1
1
1
1
1
1
1
1
1
1
1
1
1
1
1
1
1.05022
2.15632
2.55446
2.55407
2.55522
2.55793
2.56052
2.56433
2.56924
2.57219
2.57328
2.57314
2.57223
2.57088
2.56973
2.56869
2.56747
2.56583
2.56367
2.56078
2.55734
2.55324
2.54896
2.54463
2.54009
2.53483
2.52832
2.52051
2.51158
2.50138
2.48937
2.47558
2.45875
2.44032
2.41819
2.39562
2.36902
2.34058
2.31013
2.27578
2.23932
1
1
1
1
1
1
1
1
1
1
1
1
1
1
1
1
1
1
1
1
1
1
1
1
1
1
1
1
1
1
1
1
1
1
1
1
1
1
1
1
1
1
1
1
1
1
1
1
1
1
1
1
1
1
1
1.00017
1.3814
2.37415
2.54214
2.54222
2.54486
2.54684
2.54971
2.55353
2.55627
2.55741
2.55735
2.55657
2.55549
2.55487
2.55449
2.55419
2.5531
2.55094
2.54762
2.54328
2.53788
2.53218
2.5266
2.52124
2.51572
2.50935
2.50153
2.49267
2.48283
2.47136
2.4586
2.44309
2.42625
2.40647
2.38612
2.36197
2.3369
2.30932
2.27978
2.24781
1
1
1
1
1
1
1
1
1
1
1
1
1
1
1
1
1
1
1
1
1
1
1
1
1
1
1
1
1
1
1
1
1
1
1
1
1
1
1
1
1
1
1
1
1
1
1
1
1
1
1
1
1
1
1
1
1.0119
1.92824
2.50977
2.52943
2.53261
2.53455
2.53707
2.5395
2.54088
2.54107
2.54071
2.53978
2.53891
2.53887
2.53911
2.53987
2.53955
2.53787
2.53488
2.53038
2.5244
2.51772
2.51088
2.50429
2.49811
2.49177
2.48405
2.47529
2.46558
2.45417
2.44182
2.4275
2.41215
2.39488
2.37669
2.3553
2.33352
2.30829
2.28224
2.25402
1
1
1
1
1
1
1
1
1
1
1
1
1
1
1
1
1
1
1
1
1
1
1
1
1
1
1
1
1
1
1
1
1
1
1
1
1
1
1
1
1
1
1
1
1
1
1
1
1
1
1
1
1
1
1
1
1.00001
1.12797
2.2034
2.51803
2.5268
2.52777
2.528
2.52882
2.52876
2.52804
2.52675
2.52526
2.52413
2.52397
2.52423
2.52527
2.52537
2.52417
2.52163
2.51744
2.51151
2.50455
2.49695
2.48933
2.48235
2.47578
2.46823
2.45944
2.44951
2.43816
2.42593
2.41251
2.39821
2.3829
2.36659
2.34808
2.32898
2.30644
2.28342
2.25859
1
1
1
1
1
1
1
1
1
1
1
1
1
1
1
1
1
1
1
1
1
1
1
1
1
1
1
1
1
1
1
1
1
1
1
1
1
1
1
1
1
1
1
1
1
1
1
1
1
1
1
1
1
1
1
1
1
1.00107
1.44421
2.35546
2.51084
2.5088
2.51144
2.51358
2.51382
2.51321
2.51184
2.51022
2.50901
2.50853
2.50864
2.50944
2.50942
2.50832
2.50608
2.50251
2.49726
2.49083
2.48344
2.47566
2.46851
2.46156
2.45394
2.44534
2.43551
2.4243
2.41203
2.39908
2.38526
2.37118
2.3562
2.33986
2.32256
2.30304
2.28253
2.26057
1
1
1
1
1
1
1
1
1
1
1
1
1
1
1
1
1
1
1
1
1
1
1
1
1
1
1
1
1
1
1
1
1
1
1
1
1
1
1
1
1
1
1
1
1
1
1
1
1
1
1
1
1
1
1
1
1
1
1.01733
1.87071
2.4611
2.49242
2.49609
2.49889
2.49924
2.49895
2.49807
2.49693
2.49587
2.49506
2.49475
2.49476
2.49406
2.49237
2.48977
2.48638
2.4818
2.47613
2.4695
2.46236
2.4556
2.44871
2.44123
2.43296
2.42344
2.41242
2.4002
2.3875
2.37393
2.36051
2.34635
2.33126
2.31519
2.29821
2.27961
2.26015
1
1
1
1
1
1
1
1
1
1
1
1
1
1
1
1
1
1
1
1
1
1
1
1
1
1
1
1
1
1
1
1
1
1
1
1
1
1
1
1
1
1
1
1
1
1
1
1
1
1
1
1
1
1
1
1
1
1
1.00003
1.10864
2.07988
2.47264
2.48846
2.488
2.48832
2.4877
2.48676
2.48581
2.48473
2.48363
2.48272
2.48179
2.47994
2.47729
2.47394
2.47014
2.46577
2.46059
2.45464
2.44839
2.44244
2.43615
2.42936
2.42172
2.41282
2.40228
2.39038
2.37789
2.36468
2.35161
2.33797
2.32342
2.30806
2.29253
2.27517
2.25804
1
1
1
1
1
1
1
1
1
1
1
1
1
1
1
1
1
1
1
1
1
1
1
1
1
1
1
1
1
1
1
1
1
1
1
1
1
1
1
1
1
1
1
1
1
1
1
1
1
1
1
1
1
1
1
1
1
1
1
1.00081
1.23273
2.21858
2.46566
2.47767
2.47653
2.4753
2.47434
2.47338
2.47256
2.47144
2.47035
2.4688
2.46625
2.46293
2.45902
2.45467
2.45012
2.44503
2.43932
2.43363
2.42843
2.4232
2.41742
2.41066
2.40259
2.39284
2.38157
2.36943
2.35685
2.34411
2.33093
2.31672
2.30183
2.28698
2.27061
2.25494
1
1
1
1
1
1
1
1
1
1
1
1
1
1
1
1
1
1
1
1
1
1
1
1
1
1
1
1
1
1
1
1
1
1
1
1
1
1
1
1
1
1
1
1
1
1
1
1
1
1
1
1
1
1
1
1
1
1
1
1
1.00377
1.46123
2.30917
2.45546
2.4532
2.45477
2.45475
2.45511
2.45584
2.45641
2.45632
2.45549
2.4533
2.44994
2.44585
2.44116
2.43629
2.43112
2.42524
2.41943
2.41453
2.40996
2.40507
2.39926
2.39213
2.38341
2.37304
2.36155
2.34978
2.33756
2.32491
2.3111
2.29661
2.28212
2.26667
2.25186
1
1
1
1
1
1
1
1
1
1
1
1
1
1
1
1
1
1
1
1
1
1
1
1
1
1
1
1
1
1
1
1
1
1
1
1
1
1
1
1
1
1
1
1
1
1
1
1
1
1
1
1
1
1
1
1
1
1
1
1
1
1.01865
1.76936
2.38694
2.43649
2.43068
2.43112
2.43247
2.43475
2.43718
2.43918
2.43924
2.43826
2.43588
2.43249
2.42818
2.42325
2.41811
2.41211
2.40628
2.40121
2.39684
2.39238
2.38719
2.38083
2.37309
2.36373
2.35318
2.34233
2.33083
2.31881
2.30557
2.2916
2.27763
2.26328
2.24927
1
1
1
1
1
1
1
1
1
1
1
1
1
1
1
1
1
1
1
1
1
1
1
1
1
1
1
1
1
1
1
1
1
1
1
1
1
1
1
1
1
1
1
1
1
1
1
1
1
1
1
1
1
1
1
1
1
1
1
1
1
1.00004
1.07794
1.93294
2.39853
2.41919
2.41596
2.41733
2.41882
2.42064
2.42221
2.4224
2.42182
2.4203
2.41784
2.41442
2.41011
2.40533
2.39991
2.39447
2.38943
2.38487
2.38032
2.37517
2.36906
2.36194
2.35343
2.34385
2.33379
2.32304
2.31172
2.29936
2.28629
2.27327
2.26022
2.24726
1
1
1
1
1
1
1
1
1
1
1
1
1
1
1
1
1
1
1
1
1
1
1
1
1
1
1
1
1
1
1
1
1
1
1
1
1
1
1
1
1
1
1
1
1
1
1
1
1
1
1
1
1
1
1
1
1
1
1
1
1
1
1.00047
1.14836
2.0066
2.38169
2.4088
2.40814
2.40861
2.40826
2.40796
2.40724
2.4061
2.40445
2.40218
2.39921
2.3956
2.39149
2.38696
2.38231
2.37768
2.37312
2.36838
2.36305
2.35691
2.35005
2.3421
2.3333
2.32395
2.31392
2.30355
2.29246
2.28052
2.26877
2.25708
2.2454
1
1
1
1
1
1
1
1
1
1
1
1
1
1
1
1
1
1
1
1
1
1
1
1
1
1
1
1
1
1
1
1
1
1
1
1
1
1
1
1
1
1
1
1
1
1
1
1
1
1
1
1
1
1
1
1
1
1
1
1
1
1
1
1.00154
1.2067
2.04248
2.36456
2.39866
2.39819
2.39753
2.3963
2.39466
2.39263
2.39025
2.38747
2.38435
2.38097
2.37736
2.37358
2.36964
2.36549
2.36108
2.35628
2.3508
2.34461
2.33778
2.33017
2.32209
2.31348
2.30427
2.2949
2.28503
2.2744
2.26398
2.25351
2.24312
1
1
1
1
1
1
1
1
1
1
1
1
1
1
1
1
1
1
1
1
1
1
1
1
1
1
1
1
1
1
1
1
1
1
1
1
1
1
1
1
1
1
1
1
1
1
1
1
1
1
1
1
1
1
1
1
1
1
1
1
1
1
1
1
1.00302
1.25202
2.06413
2.35
2.38319
2.38315
2.38287
2.38174
2.38001
2.37753
2.37447
2.37116
2.36773
2.36421
2.3606
2.35683
2.35281
2.34842
2.34355
2.33802
2.33186
2.32528
2.31824
2.31084
2.30301
2.29457
2.28593
2.27704
2.26775
2.2585
2.24901
2.23974
1
1
1
1
1
1
1
1
1
1
1
1
1
1
1
1
1
1
1
1
1
1
1
1
1
1
1
1
1
1
1
1
1
1
1
1
1
1
1
1
1
1
1
1
1
1
1
1
1
1
1
1
1
1
1
1
1
1
1
1
1
1
1
1
1
1.00463
1.28785
2.07771
2.33531
2.36372
2.36523
2.36604
2.36536
2.3638
2.36143
2.35861
2.35545
2.35201
2.3484
2.34458
2.34047
2.33593
2.33091
2.32548
2.31969
2.31353
2.30694
2.30006
2.29285
2.28511
2.27706
2.26886
2.26068
2.25231
2.24357
2.23504
1
1
1
1
1
1
1
1
1
1
1
1
1
1
1
1
1
1
1
1
1
1
1
1
1
1
1
1
1
1
1
1
1
1
1
1
1
1
1
1
1
1
1
1
1
1
1
1
1
1
1
1
1
1
1
1
1
1
1
1
1
1
1
1
1
1.00001
1.00623
1.31389
2.08133
2.31952
2.34494
2.34616
2.34749
2.34721
2.34637
2.34461
2.34212
2.33924
2.33602
2.33241
2.32834
2.32379
2.31882
2.31359
2.3081
2.3023
2.29617
2.28974
2.283
2.27585
2.26834
2.26065
2.2532
2.24549
2.2373
2.22918
1
1
1
1
1
1
1
1
1
1
1
1
1
1
1
1
1
1
1
1
1
1
1
1
1
1
1
1
1
1
1
1
1
1
1
1
1
1
1
1
1
1
1
1
1
1
1
1
1
1
1
1
1
1
1
1
1
1
1
1
1
1
1
1
1
1
1.00001
1.00762
1.327
2.07409
2.30211
2.32866
2.32774
2.32841
2.32811
2.32749
2.32631
2.32458
2.32222
2.31926
2.31576
2.31179
2.30746
2.30274
2.29768
2.29227
2.28653
2.28045
2.27399
2.26721
2.2601
2.25276
2.24559
2.23822
2.23037
2.22246
1
1
1
1
1
1
1
1
1
1
1
1
1
1
1
1
1
1
1
1
1
1
1
1
1
1
1
1
1
1
1
1
1
1
1
1
1
1
1
1
1
1
1
1
1
1
1
1
1
1
1
1
1
1
1
1
1
1
1
1
1
1
1
1
1
1
1
1.00002
1.00841
1.32648
2.05314
2.28456
2.31242
2.30914
2.3093
2.30881
2.3083
2.30748
2.3062
2.30443
2.30215
2.29934
2.29605
2.29227
2.288
2.28319
2.27789
2.2721
2.26584
2.25926
2.25238
2.24522
2.23804
2.23076
2.22307
2.21532
1
1
1
1
1
1
1
1
1
1
1
1
1
1
1
1
1
1
1
1
1
1
1
1
1
1
1
1
1
1
1
1
1
1
1
1
1
1
1
1
1
1
1
1
1
1
1
1
1
1
1
1
1
1
1
1
1
1
1
1
1
1
1
1
1
1
1
1
1.00002
1.00842
1.31066
2.01496
2.26378
2.29666
2.29151
2.29121
2.29056
2.28989
2.2892
2.28833
2.28717
2.2856
2.28353
2.28089
2.27757
2.27353
2.26884
2.26352
2.25764
2.25133
2.24471
2.23773
2.23056
2.22325
2.21568
2.20807
1
1
1
1
1
1
1
1
1
1
1
1
1
1
1
1
1
1
1
1
1
1
1
1
1
1
1
1
1
1
1
1
1
1
1
1
1
1
1
1
1
1
1
1
1
1
1
1
1
1
1
1
1
1
1
1
1
1
1
1
1
1
1
1
1
1
1
1
1
1.00002
1.00758
1.27829
1.95072
2.23985
2.27984
2.27496
2.2741
2.27354
2.27306
2.27258
2.27192
2.27098
2.26967
2.26786
2.2654
2.26222
2.25832
2.25374
2.24852
2.24277
2.23663
2.23006
2.22313
2.21598
2.20867
2.2013
1
1
1
1
1
1
1
1
1
1
1
1
1
1
1
1
1
1
1
1
1
1
1
1
1
1
1
1
1
1
1
1
1
1
1
1
1
1
1
1
1
1
1
1
1
1
1
1
1
1
1
1
1
1
1
1
1
1
1
1
1
1
1
1
1
1
1
1
1
1
1.00002
1.00604
1.22774
1.85763
2.21154
2.26219
2.25849
2.25866
2.25833
2.25771
2.25697
2.25606
2.2549
2.25338
2.25136
2.2488
2.24566
2.24191
2.23757
2.23267
2.22728
2.2214
2.2151
2.20843
2.20159
2.19467
1
1
1
1
1
1
1
1
1
1
1
1
1
1
1
1
1
1
1
1
1
1
1
1
1
1
1
1
1
1
1
1
1
1
1
1
1
1
1
1
1
1
1
1
1
1
1
1
1
1
1
1
1
1
1
1
1
1
1
1
1
1
1
1
1
1
1
1
1
1
1
1.00001
1.00409
1.16439
1.75178
2.17703
2.24433
2.24367
2.24318
2.24233
2.24131
2.24025
2.23896
2.23743
2.23556
2.23335
2.23074
2.22772
2.22428
2.22032
2.21587
2.21099
2.20565
2.19983
2.19379
2.1876
1
1
1
1
1
1
1
1
1
1
1
1
1
1
1
1
1
1
1
1
1
1
1
1
1
1
1
1
1
1
1
1
1
1
1
1
1
1
1
1
1
1
1
1
1
1
1
1
1
1
1
1
1
1
1
1
1
1
1
1
1
1
1
1
1
1
1
1
1
1
1
1
1.00001
1.00225
1.10663
1.6506
2.13916
2.22546
2.23009
2.22687
2.22606
2.22434
2.22265
2.22084
2.2189
2.21675
2.21441
2.21186
2.20902
2.20587
2.20238
2.1985
2.19419
2.18949
2.18452
2.17924
1
1
1
1
1
1
1
1
1
1
1
1
1
1
1
1
1
1
1
1
1
1
1
1
1
1
1
1
1
1
1
1
1
1
1
1
1
1
1
1
1
1
1
1
1
1
1
1
1
1
1
1
1
1
1
1
1
1
1
1
1
1
1
1
1
1
1
1
1
1
1
1
1
1
1.00106
1.06562
1.54793
2.08939
2.20261
2.22076
2.21349
2.21119
2.20841
2.20587
2.2033
2.2008
2.19829
2.19568
2.19299
2.19023
2.18728
2.18409
2.18067
2.17704
2.17306
2.16879
1
1
1
1
1
1
1
1
1
1
1
1
1
1
1
1
1
1
1
1
1
1
1
1
1
1
1
1
1
1
1
1
1
1
1
1
1
1
1
1
1
1
1
1
1
1
1
1
1
1
1
1
1
1
1
1
1
1
1
1
1
1
1
1
1
1
1
1
1
1
1
1
1
1
1
1.00047
1.03744
1.44299
2.00444
2.18585
2.20791
2.20214
2.1986
2.19486
2.19135
2.18789
2.18459
2.18138
2.17828
2.17525
2.17223
2.16921
2.16619
2.16308
2.15976
2.15632
1
1
1
1
1
1
1
1
1
1
1
1
1
1
1
1
1
1
1
1
1
1
1
1
1
1
1
1
1
1
1
1
1
1
1
1
1
1
1
1
1
1
1
1
1
1
1
1
1
1
1
1
1
1
1
1
1
1
1
1
1
1
1
1
1
1
1
1
1
1
1
1
1
1
1
1
1.00019
1.01989
1.32614
1.88989
2.15915
2.19441
2.19081
2.1867
2.18266
2.17879
2.17479
2.17085
2.16704
2.1633
2.15961
2.1561
2.15273
2.14939
2.1461
2.14281
1
1
1
1
1
1
1
1
1
1
1
1
1
1
1
1
1
1
1
1
1
1
1
1
1
1
1
1
1
1
1
1
1
1
1
1
1
1
1
1
1
1
1
1
1
1
1
1
1
1
1
1
1
1
1
1
1
1
1
1
1
1
1
1
1
1
1
1
1
1
1
1
1
1
1
1
1
1.00007
1.00939
1.21097
1.74894
2.11227
2.17922
2.17874
2.17439
2.17076
2.16706
2.1631
2.15901
2.15475
2.15054
2.14638
2.14214
2.13805
2.13411
2.13029
1
1
1
1
1
1
1
1
1
1
1
1
1
1
1
1
1
1
1
1
1
1
1
1
1
1
1
1
1
1
1
1
1
1
1
1
1
1
1
1
1
1
1
1
1
1
1
1
1
1
1
1
1
1
1
1
1
1
1
1
1
1
1
1
1
1
1
1
1
1
1
1
1
1
1
1
1
1
1.00002
1.00382
1.11612
1.59159
2.05461
2.1507
2.16868
2.16182
2.15818
2.15509
2.15159
2.14755
2.14335
2.13875
2.13406
2.12941
2.12475
2.12031
1
1
1
1
1
1
1
1
1
1
1
1
1
1
1
1
1
1
1
1
1
1
1
1
1
1
1
1
1
1
1
1
1
1
1
1
1
1
1
1
1
1
1
1
1
1
1
1
1
1
1
1
1
1
1
1
1
1
1
1
1
1
1
1
1
1
1
1
1
1
1
1
1
1
1
1
1
1
1
1.00001
1.0013
1.05356
1.45003
1.94209
2.12407
2.15492
2.15104
2.14695
2.14313
2.13965
2.13564
2.1313
2.12702
2.12234
2.11767
2.11291
1
1
1
1
1
1
1
1
1
1
1
1
1
1
1
1
1
1
1
1
1
1
1
1
1
1
1
1
1
1
1
1
1
1
1
1
1
1
1
1
1
1
1
1
1
1
1
1
1
1
1
1
1
1
1
1
1
1
1
1
1
1
1
1
1
1
1
1
1
1
1
1
1
1
1
1
1
1
1
1
1
1.00036
1.02288
1.29604
1.78879
2.08501
2.13776
2.13922
2.13471
2.13052
2.12702
2.12381
2.11976
2.11556
2.1113
2.10652
1
1
1
1
1
1
1
1
1
1
1
1
1
1
1
1
1
1
1
1
1
1
1
1
1
1
1
1
1
1
1
1
1
1
1
1
1
1
1
1
1
1
1
1
1
1
1
1
1
1
1
1
1
1
1
1
1
1
1
1
1
1
1
1
1
1
1
1
1
1
1
1
1
1
1
1
1
1
1
1
1
1
1.00009
1.00818
1.15725
1.61719
2.01896
2.10255
2.12528
2.12096
2.1178
2.11552
2.11289
2.10956
2.10501
2.10008
1
1
1
1
1
1
1
1
1
1
1
1
1
1
1
1
1
1
1
1
1
1
1
1
1
1
1
1
1
1
1
1
1
1
1
1
1
1
1
1
1
1
1
1
1
1
1
1
1
1
1
1
1
1
1
1
1
1
1
1
1
1
1
1
1
1
1
1
1
1
1
1
1
1
1
1
1
1
1
1
1
1
1
1.00002
1.00238
1.06769
1.44705
1.8891
2.07145
2.11132
2.1098
2.10609
2.10385
2.10109
2.09696
2.09291
1
1
1
1
1
1
1
1
1
1
1
1
1
1
1
1
1
1
1
1
1
1
1
1
1
1
1
1
1
1
1
1
1
1
1
1
1
1
1
1
1
1
1
1
1
1
1
1
1
1
1
1
1
1
1
1
1
1
1
1
1
1
1
1
1
1
1
1
1
1
1
1
1
1
1
1
1
1
1
1
1
1
1
1
1
1.00057
1.02418
1.27032
1.71115
2.0337
2.08437
2.09666
2.09369
2.08853
2.08523
2.08192
1
1
1
1
1
1
1
1
1
1
1
1
1
1
1
1
1
1
1
1
1
1
1
1
1
1
1
1
1
1
1
1
1
1
1
1
1
1
1
1
1
1
1
1
1
1
1
1
1
1
1
1
1
1
1
1
1
1
1
1
1
1
1
1
1
1
1
1
1
1
1
1
1
1
1
1
1
1
1
1
1
1
1
1
1
1
1.0001
1.00715
1.1219
1.54337
1.9165
2.05435
2.08481
2.08334
2.08002
2.07591
1
1
1
1
1
1
1
1
1
1
1
1
1
1
1
1
1
1
1
1
1
1
1
1
1
1
1
1
1
1
1
1
1
1
1
1
1
1
1
1
1
1
1
1
1
1
1
1
1
1
1
1
1
1
1
1
1
1
1
1
1
1
1
1
1
1
1
1
1
1
1
1
1
1
1
1
1
1
1
1
1
1
1
1
1
1
1
1.00002
1.00159
1.04726
1.3378
1.77856
1.99809
2.05633
2.0742
2.07056
1
1
1
1
1
1
1
1
1
1
1
1
1
1
1
1
1
1
1
1
1
1
1
1
1
1
1
1
1
1
1
1
1
1
1
1
1
1
1
1
1
1
1
1
1
1
1
1
1
1
1
1
1
1
1
1
1
1
1
1
1
1
1
1
1
1
1
1
1
1
1
1
1
1
1
1
1
1
1
1
1
1
1
1
1
1
1
1
1
1.00033
1.01264
1.17541
1.57397
1.91797
2.02189
2.05624
1
1
1
1
1
1
1
1
1
1
1
1
1
1
1
1
1
1
1
1
1
1
1
1
1
1
1
1
1
1
1
1
1
1
1
1
1
1
1
1
1
1
1
1
1
1
1
1
1
1
1
1
1
1
1
1
1
1
1
1
1
1
1
1
1
1
1
1
1
1
1
1
1
1
1
1
1
1
1
1
1
1
1
1
1
1
1
1
1
1
1.00004
1.00308
1.06379
1.37229
1.75645
1.98928
1
1
1
1
1
1
1
1
1
1
1
1
1
1
1
1
1
1
1
1
1
1
1
1
1
1
1
1
1
1
1
1
1
1
1
1
1
1
1
1
1
1
1
1
1
1
1
1
1
1
1
1
1
1
1
1
1
1
1
1
1
1
1
1
1
1
1
1
1
1
1
1
1
1
1
1
1
1
1
1
1
1
1
1
1
1
1
1
1
1
1
1
1.00055
1.01698
1.17887
1.59718
1
1
1
1
1
1
1
1
1
1
1
1
1
1
1
1
1
1
1
1
1
1
1
1
1
1
1
1
1
1
1
1
1
1
1
1
1
1
1
1
1
1
1
1
1
1
1
1
1
1
1
1
1
1
1
1
1
1
1
1
1
1
1
1
1
1
1
1
1
1
1
1
1
1
1
1
1
1
1
1
1
1
1
1
1
1
1
1
1
1
1
1
1
1.00006
1.00357
1.07063
1
1
1
1
1
1
1
1
1
1
1
1
1
1
1
1
1
1
1
1
1
1
1
1
1
1
1
1
1
1
1
1
1
1
1
1
1
1
1
1
1
1
1
1
1
1
1
1
1
1
1
1
1
1
1
1
1
1
1
1
1
1
1
1
1
1
1
1
1
1
1
1
1
1
1
1
1
1
1
1
1
1
1
1
1
1
1
1
1
1
1
1
1
1
1.00001
1.00057
1
1
1
1
1
1
1
1
1
1
1
1
1
1
1
1
1
1
1
1
1
1
1
1
1
1
1
1
1
1
1
1
1
1
1
1
1
1
1
1
1
1
1
1
1
1
1
1
1
1
1
1
1
1
1
1
1
1
1
1
1
1
1
1
1
1
1
1
1
1
1
1
1
1
1
1
1
1
1
1
1
1
1
1
1
1
1
1
1
1
1
1
1
1
1
1
1
1
1
1
1
1
1
1
1
1
1
1
1
1
1
1
1
1
1
1
1
1
1
1
1
1
1
1
1
1
1
1
1
1
1
1
1
1
1
1
1
1
1
1
1
1
1
1
1
1
1
1
1
1
1
1
1
1
1
1
1
1
1
1
1
1
1
1
1
1
1
1
1
1
1
1
1
1
1
1
1
1
1
1
1
1
1
1
1
1
1
1
1
1
1
1
1
1
1
1
1
1
1
1
1
1
1
1
1
1
1
1
1
1
1
1
1
1
1
1
1
1
1
1
1
1
1
1
1
1
1
1
1
1
1
1
1
1
1
1
1
1
1
1
1
1
1
1
1
1
1
1
1
1
1
1
1
1
1
1
1
1
1
1
1
1
1
1
1
1
1
1
1
1
1
1
1
1
1
1
1
1
1
1
1
1
1
1
1
1
1
1
1
1
1
1
1
1
1
1
1
1
1
1
1
1
1
1
1
1
1
1
1
1
1
1
1
1
1
1
1
1
1
1
1
1
1
1
1
1
1
1
1
1
1
1
1
1
1
1
1
1
1
1
1
1
1
1
1
1
1
1
1
1
1
1
1
1
1
1
1
1
1
1
1
1
1
1
1
1
1
1
1
1
1
1
1
1
1
1
1
1
1
1
1
1
1
1
1
1
1
1
1
1
1
1
1
1
1
1
1
1
1
1
1
1
1
1
1
1
1
1
1
1
1
1
1
1
1
1
1
1
1
1
1
1
1
1
1
1
1
1
1
1
1
1
1
1
1
1
1
1
1
1
1
1
1
1
1
1
1
1
1
1
1
1
1
1
1
1
1
1
1
1
1
1
1
1
1
1
1
1
1
1
1
1
1
1
1
1
1
1
1
1
1
1
1
1
1
1
1
1
1
1
1
1
1
1
1
1
1
1
1
1
1
1
1
1
1
1
1
1
1
1
1
1
1
1
1
1
1
1
1
1
1
1
1
1
1
1
1
1
1
1
1
1
1
1
1
1
1
1
1
1
1
1
1
1
1
1
1
1
1
1
1
1
1
1
1
1
1
1
1
1
1
1
1
1
1
1
1
1
1
1
1
1
1
1
1
1
1
1
1
1
1
1
1
1
1
1
1
1
1
1
1
1
1
1
1
1
1
1
1
1
1
1
1
1
1
1
1
1
1
1
1
1
1
1
1
1
1
1
1
1
1
1
1
1
1
1
1
1
1
1
1
1
1
1
1
1
1
1
1
1
1
1
1
1
1
1
1
1
1
1
1
1
1
1
1
1
1
1
1
1
1
1
1
1
1
1
1
1
1
1
1
1
1
1
1
1
1
1
1
1
1
1
1
1
1
1
1
1
1
1
1
1
1
1
1
1
1
1
1
1
1
1
1
1
1
1
1
1
1
1
1
1
1
1
1
1
1
1
1
1
1
1
1
1
1
1
1
1
1
1
1
1
1
1
1
1
1
1
1
1
1
1
1
1
1
1
1
1
1
1
1
1
1
1
1
1
1
1
1
1
1
1
1
1
1
1
1
1
1
1
1
1
1
1
1
1
1
1
1
1
1
1
1
1
1
1
1
1
1
1
1
1
1
1
1
1
1
1
1
1
1
1
1
1
1
1
1
1
1
1
1
1
1
1
1
1
1
1
1
1
1
1
1
1
1
1
1
1
1
1
1
1
1
1
1
1
1
1
1
1
1
1
1
1
1
1
1
1
1
1
1
1
1
1
1
1
1
1
1
1
1
1
1
1
1
1
1
1
1
1
1
1
1
1
1
1
1
1
1
1
1
1
1
1
1
1
1
1
1
1
1
1
1
1
1
1
1
1
1
1
1
1
1
1
1
1
1
1
1
1
1
1
1
1
1
1
1
1
1
1
1
1
1
1
1
1
1
1
1
1
1
1
1
1
1
1
1
1
1
1
1
1
1
1
1
1
1
1
1
1
1
1
1
1
1
1
1
1
1
1
1
1
1
1
1
1
1
1
1
1
1
1
1
1
1
1
1
1
1
1
1
1
1
1
1
1
1
1
1
1
1
1
1
1
1
1
1
1
1
1
1
1
1
1
1
1
1
1
1
1
1
1
1
1
1
1
1
1
1
1
1
1
1
1
1
1
1
1
1
1
1
1
1
1
1
1
1
1
1
1
1
1
1
1
1
1
1
1
1
1
1
1
1
1
1
1
1
1
1
1
1
1
1
1
1
1
1
1
1
1
1
1
1
1
1
1
1
1
1
1
1
1
1
1
1
1
1
1
1
1
1
1
1
1
1
1
1
1
1
1
1
1
1
1
1
1
1
1
1
1
1
1
1
1
1
1
1
1
1
1
1
1
1
1
1
1
1
1
1
1
1
1
1
1
1
1
1
1
1
1
1
1
1
1
1
1
1
1
1
1
1
1
1
1
1
1
1
1
1
1
1
1
1
1
1
1
1
1
1
1
1
1
1
1
1
1
1
1
1
1
1
1
1
1
1
1
1
1
1
1
1
1
1
1
1
1
1
1
1
1
1
1
1
1
1
1
1
1
1
1
1
1
1
1
1
1
1
1
1
1
1
1
1
1
1
1
1
1
1
1
1
1
1
1
1
1
1
1
1
1
1
1
1
1
1
1
1
1
1
1
1
1
1
1
1
1
1
1
1
1
1
1
1
1
1
1
1
1
1
1
1
1
1
1
1
1
1
1
1
1
1
1
1
1
1
1
1
1
1
1
1
1
1
1
1
1
1
1
1
1
1
1
1
1
1
1
1
1
1
1
1
1
1
1
1
1
1
1
1
1
1
1
1
1
1
1
1
1
1
1
1
1
1
1
1
1
1
1
1
1
1
1
1
1
1
1
1
1
1
1
1
1
1
1
1
1
1
1
1
1
1
1
1
1
1
1
1
1
1
1
1
1
1
1
1
1
1
1
1
1
1
1
1
1
1
1
1
1
1
1
1
1
1
1
1
1
1
1
1
1
1
1
1
1
1
1
1
1
1
1
1
1
1
1
1
1
1
1
1
1
1
1
1
1
1
1
1
1
1
1
1
1
1
1
1
1
1
1
1
1
1
1
1
1
1
1
1
1
1
1
1
1
1
1
1
1
1
1
1
1
1
1
1
1
1
1
1
1
1
1
1
1
1
1
1
1
1
1
1
1
1
1
1
1
1
1
1
1
1
1
1
1
1
1
1
1
1
1
1
1
1
1
1
1
1
1
1
1
1
1
1
1
1
1
1
1
1
1
1
1
1
1
1
1
1
1
1
1
1
1
1
1
1
1
1
1
1.51932
0.925713
0.469295
0.559524
0.797891
0.891161
1.0086
1.10315
1.2211
1.31175
1.34458
1.35568
1.35415
1.37234
1.45206
1.57404
1.6206
1.60977
1.58618
1.57833
1.58299
1.60782
1.62807
1.62952
1.61482
1.58376
1.57737
1.58601
1.60684
1.62966
1.64028
1.63982
1.63601
1.62966
1.62666
1.62802
1.63505
1.64469
1.64974
1.64998
1.64856
1.64881
1.65166
1.65893
1.66538
1.66651
1.66646
1.66599
1.66518
1.66503
1.66489
1.66419
1.66249
1.66084
1.65944
1.6569
1.65352
1.65041
1.64824
1.64739
1.64723
1.64756
1.64944
1.65213
1.65259
1.65068
1.69434
2.54455
2.8632
2.85246
2.83643
2.82128
2.80997
2.79822
2.78516
2.77218
2.75945
2.74698
2.73422
2.72065
2.70595
2.69013
2.67391
2.65832
2.64404
2.63111
2.61916
2.60794
2.59752
2.5881
2.57971
2.57184
2.56364
2.55439
2.54392
2.53228
2.51966
2.50629
2.49241
2.47848
2.46518
2.45331
2.44339
2.43555
2.4297
2.42523
2.42076
2.41414
2.4053
2.39613
2.38674
2.37742
2.36891
2.36122
2.35381
2.34642
2.33913
2.33202
2.32515
2.31771
2.30922
2.29989
2.29036
2.28146
2.27339
2.26597
2.25905
2.25258
2.24663
2.24119
2.23628
2.23165
2.2265
2.22016
2.21319
2.20598
2.19805
2.18962
2.18184
2.17565
2.1711
2.16764
2.16435
2.16117
2.15814
2.15393
2.14809
2.14102
2.13199
2.12243
2.11467
2.10861
2.10344
2.09858
2.0937
2.08898
2.08389
2.07788
2.07093
2.06221
2.05199
2.04263
2.03528
2.02917
2.02364
2.0187
2.01442
2.0104
2.00659
2.0032
1.99996
1.99667
1.99336
1.9897
1.98547
1.9804
1.97389
1.96643
1.95965
1.95495
1.95214
1.95041
1.94923
1.94819
1.94706
1.94565
1.94359
1.94073
1.93638
1.92954
1.92119
1.90891
1.75792
1.39442
1.14973
1.07879
1.03101
0.969704
0.955203
0.963898
1.00097
1.03288
1.05009
1.07335
1.11423
1.16279
1.23246
1.30863
1.36081
1.38364
1.40276
1.42449
1.44848
1.48295