/*--------------------------------*- C++ -*----------------------------------*\
  =========                 |
  \\      /  F ield         | OpenFOAM: The Open Source CFD Toolbox
   \\    /   O peration     | Website:  https://openfoam.org
    \\  /    A nd           | Version:  7
     \\/     M anipulation  |
\*---------------------------------------------------------------------------*/
FoamFile
{
    version     2.0;
    format      ascii;
    class       volVectorField;
    location    "3";
    object      U;
}
// * * * * * * * * * * * * * * * * * * * * * * * * * * * * * * * * * * * * * //

dimensions      [0 1 -1 0 0 0 0];

internalField   nonuniform List<vector> 
19968
(
(3 -5.43109e-17 0)
(3 -3.78332e-16 0)
(3 -1.38888e-16 0)
(3 6.17684e-17 0)
(3 1.59261e-16 0)
(3 1.41432e-16 0)
(3 5.62828e-16 0)
(3 7.37536e-16 0)
(3 9.72322e-16 0)
(3 1.15192e-15 0)
(3 8.11998e-16 0)
(3 6.1743e-16 0)
(3 5.27281e-16 0)
(3 5.11163e-16 0)
(3 2.34173e-16 0)
(3 5.06549e-16 0)
(3 1.09201e-15 0)
(3 1.04592e-15 0)
(3 7.3865e-16 0)
(3 3.57591e-16 0)
(3 -8.52762e-17 0)
(3 -1.51167e-16 0)
(3 -1.02117e-16 0)
(3 6.90747e-16 0)
(3 2.49338e-16 0)
(3 3.73405e-16 0)
(3 8.39957e-16 0)
(3 4.94295e-16 0)
(3 5.62996e-16 0)
(3 1.47275e-15 0)
(3 1.56105e-15 0)
(3 1.79832e-15 0)
(3 1.38034e-15 0)
(3 1.67087e-15 0)
(3 1.21253e-15 0)
(3 1.00389e-16 0)
(3 9.53841e-17 0)
(3 -6.08876e-17 0)
(3 -8.2816e-16 0)
(3 -1.39736e-15 0)
(3 -1.44822e-15 0)
(3 -1.59258e-15 0)
(3 -2.10608e-15 0)
(3 -2.3357e-15 0)
(3 -1.19613e-15 0)
(3 2.54287e-16 0)
(3 7.92964e-16 0)
(3 1.69129e-15 0)
(3 1.63482e-15 0)
(1.18671 0.00504759 0)
(0.768401 0.00337939 0)
(0.747462 0.0095087 0)
(0.730821 0.0092866 0)
(0.715331 0.00870774 0)
(0.700938 0.00813109 0)
(0.686887 0.00784606 0)
(0.672687 0.00786129 0)
(0.658087 0.00820464 0)
(0.642904 0.0089 0)
(0.626923 0.00981014 0)
(0.610165 0.0104989 0)
(0.593241 0.0104494 0)
(0.57725 0.00960361 0)
(0.562635 0.00877385 0)
(0.548793 0.00865767 0)
(0.534831 0.00915479 0)
(0.520209 0.00999577 0)
(0.504797 0.0107905 0)
(0.48893 0.0109626 0)
(0.473291 0.0102114 0)
(0.458351 0.00944096 0)
(0.443462 0.00950507 0)
(0.42777 0.010277 0)
(0.411108 0.0108655 0)
(0.394207 0.0108241 0)
(0.377673 0.0106167 0)
(0.361506 0.0106572 0)
(0.345442 0.0108597 0)
(0.329176 0.0110601 0)
(0.312618 0.0111849 0)
(0.295923 0.0112731 0)
(0.279115 0.0114014 0)
(0.2622 0.0115666 0)
(0.24522 0.0117438 0)
(0.228108 0.0119325 0)
(0.210697 0.0121467 0)
(0.192833 0.0124005 0)
(0.174488 0.0126684 0)
(0.155721 0.0129395 0)
(0.136563 0.0132003 0)
(0.116931 0.0135057 0)
(0.0965835 0.0139 0)
(0.0754833 0.0142064 0)
(0.0539953 0.0145257 0)
(0.0324282 0.0146663 0)
(0.0110304 0.014841 0)
(3 -5.37178e-17 0)
(3 -1.68117e-16 0)
(3 7.72181e-17 0)
(3 3.81319e-16 0)
(3 7.89392e-16 0)
(3 9.08944e-16 0)
(3 9.33355e-16 0)
(3 7.90312e-16 0)
(3 1.70363e-15 0)
(3 2.62777e-15 0)
(3 2.26335e-15 0)
(3 1.58327e-15 0)
(3 1.51068e-15 0)
(3 1.72135e-15 0)
(3 1.12644e-15 0)
(3 9.36168e-16 0)
(3 1.11892e-15 0)
(3 7.88394e-16 0)
(3 1.38732e-16 0)
(3 -3.3601e-16 0)
(3 -1.59974e-15 0)
(3 -1.9781e-15 0)
(3 -1.59884e-15 0)
(3 5.5353e-17 0)
(3 6.50208e-16 0)
(3 1.14422e-15 0)
(3 2.1615e-15 0)
(3 2.20194e-15 0)
(3 1.71179e-15 0)
(3 1.55e-15 0)
(3 1.14976e-15 0)
(3 -9.39697e-16 0)
(3 -1.80691e-15 0)
(3 -1.17283e-15 0)
(3 -1.01249e-15 0)
(3 -1.34211e-15 0)
(3 -1.30427e-15 0)
(3 -1.01124e-15 0)
(3 -9.35522e-16 0)
(3 -1.45546e-15 0)
(3 -1.06595e-15 0)
(3 -1.44185e-15 0)
(3 -1.89965e-15 0)
(3 -1.81712e-15 0)
(3 -1.2531e-15 0)
(3 -4.91634e-16 0)
(3 2.8742e-15 0)
(3 3.85414e-15 0)
(3 3.00783e-15 0)
(1.20199 0.0265082 0)
(0.765675 0.0187136 0)
(0.743433 0.0287626 0)
(0.727165 0.0283844 0)
(0.711493 0.026721 0)
(0.696665 0.0246445 0)
(0.682222 0.0233374 0)
(0.667791 0.0230635 0)
(0.653081 0.023868 0)
(0.637975 0.0258222 0)
(0.622328 0.0285137 0)
(0.606045 0.030652 0)
(0.589464 0.0308863 0)
(0.573479 0.0289626 0)
(0.558459 0.0265758 0)
(0.544078 0.0258193 0)
(0.529854 0.0270062 0)
(0.515311 0.0294154 0)
(0.500207 0.0318936 0)
(0.484565 0.0328246 0)
(0.468916 0.0311096 0)
(0.453682 0.028933 0)
(0.438404 0.0288399 0)
(0.422691 0.030873 0)
(0.406167 0.0325158 0)
(0.389441 0.0324598 0)
(0.372985 0.0320066 0)
(0.356781 0.0322369 0)
(0.340675 0.0328709 0)
(0.324421 0.0334686 0)
(0.307943 0.0338456 0)
(0.29138 0.0341173 0)
(0.274746 0.0345262 0)
(0.258042 0.0350869 0)
(0.241293 0.0357227 0)
(0.224428 0.0363992 0)
(0.207293 0.037123 0)
(0.189758 0.0379282 0)
(0.171791 0.0387467 0)
(0.153432 0.0395646 0)
(0.134684 0.0403489 0)
(0.115448 0.0412886 0)
(0.0954939 0.0425085 0)
(0.074733 0.0435211 0)
(0.0535878 0.0446 0)
(0.0322573 0.045164 0)
(0.0110087 0.0458695 0)
(3 7.10126e-17 0)
(3 2.88858e-16 0)
(3 9.0521e-16 0)
(3 8.75276e-16 0)
(3 9.65126e-16 0)
(3 1.1481e-15 0)
(3 8.2217e-16 0)
(3 4.41632e-16 0)
(3 9.4347e-16 0)
(3 2.38185e-15 0)
(3 1.99937e-15 0)
(3 1.66961e-15 0)
(3 1.43459e-15 0)
(3 1.01059e-15 0)
(3 1.13013e-15 0)
(3 9.61277e-16 0)
(3 1.64276e-15 0)
(3 1.77561e-15 0)
(3 1.08328e-15 0)
(3 -9.71567e-16 0)
(3 -2.33018e-15 0)
(3 -2.01049e-15 0)
(3 -6.68468e-16 0)
(3 -1.4866e-16 0)
(3 5.46227e-16 0)
(3 7.7467e-16 0)
(3 1.89536e-15 0)
(3 2.77534e-15 0)
(3 2.36529e-15 0)
(3 2.04459e-15 0)
(3 5.56021e-16 0)
(3 -9.21354e-16 0)
(3 -1.05502e-15 0)
(3 -8.12678e-16 0)
(3 -1.30939e-15 0)
(3 -2.18391e-15 0)
(3 -2.45575e-15 0)
(3 -1.9149e-15 0)
(3 -3.23992e-16 0)
(3 -9.46833e-17 0)
(3 -3.99482e-16 0)
(3 -1.17433e-15 0)
(3 -1.01461e-15 0)
(3 -7.21744e-16 0)
(3 -4.15952e-16 0)
(3 4.08258e-16 0)
(3 1.74686e-15 0)
(3 2.0335e-15 0)
(3 2.23265e-15 0)
(1.24224 0.047464 0)
(0.768347 0.035022 0)
(0.745469 0.0478349 0)
(0.729499 0.0484718 0)
(0.713583 0.0467283 0)
(0.698055 0.0437716 0)
(0.682742 0.0413987 0)
(0.667592 0.0406395 0)
(0.652423 0.0417888 0)
(0.637112 0.044738 0)
(0.621586 0.0487676 0)
(0.605612 0.0519954 0)
(0.589271 0.0525774 0)
(0.573255 0.0501401 0)
(0.557779 0.0466478 0)
(0.54262 0.0451424 0)
(0.527784 0.046523 0)
(0.513041 0.0499475 0)
(0.49808 0.0537392 0)
(0.48256 0.0554681 0)
(0.466853 0.0533163 0)
(0.451297 0.0501752 0)
(0.435464 0.0499716 0)
(0.419562 0.0530126 0)
(0.402969 0.0555092 0)
(0.386169 0.0553865 0)
(0.369548 0.0547229 0)
(0.353055 0.0551492 0)
(0.336635 0.0561584 0)
(0.32008 0.0570709 0)
(0.303357 0.0576311 0)
(0.286604 0.0580169 0)
(0.269842 0.0586232 0)
(0.253062 0.0594928 0)
(0.236266 0.0605042 0)
(0.219377 0.0615831 0)
(0.202278 0.0627235 0)
(0.18488 0.0639943 0)
(0.167168 0.0652964 0)
(0.149177 0.066616 0)
(0.13088 0.0678896 0)
(0.112157 0.0694482 0)
(0.0928124 0.0715064 0)
(0.0726278 0.073288 0)
(0.0521791 0.0752355 0)
(0.0314344 0.0763306 0)
(0.0107636 0.0777308 0)
(3 1.69924e-16 0)
(3 5.16698e-16 0)
(3 6.71798e-16 0)
(3 6.9029e-16 0)
(3 7.93982e-16 0)
(3 9.18106e-16 0)
(3 7.4639e-16 0)
(3 4.66248e-16 0)
(3 4.57642e-16 0)
(3 4.55595e-16 0)
(3 -3.81067e-17 0)
(3 3.55833e-17 0)
(3 -2.27012e-16 0)
(3 -3.99929e-16 0)
(3 -4.51304e-16 0)
(3 -9.02379e-16 0)
(3 -1.28764e-16 0)
(3 4.01062e-16 0)
(3 4.23273e-16 0)
(3 -5.1898e-16 0)
(3 -3.21725e-16 0)
(3 3.71936e-16 0)
(3 5.04059e-16 0)
(3 7.32736e-18 0)
(3 -4.84925e-16 0)
(3 -2.57667e-16 0)
(3 2.03515e-16 0)
(3 3.58154e-16 0)
(3 5.54208e-16 0)
(3 3.65719e-16 0)
(3 -2.40597e-16 0)
(3 -8.09734e-16 0)
(3 -9.04048e-16 0)
(3 -8.84293e-16 0)
(3 -6.50907e-16 0)
(3 -1.18287e-16 0)
(3 3.54885e-16 0)
(3 5.15097e-16 0)
(3 5.83453e-16 0)
(3 5.47227e-16 0)
(3 4.84764e-16 0)
(3 3.95036e-16 0)
(3 5.21384e-16 0)
(3 5.37451e-16 0)
(3 1.00677e-15 0)
(3 1.85362e-15 0)
(3 3.61519e-15 0)
(3 3.67031e-15 0)
(3 1.96504e-15 0)
(1.3081 0.0688241 0)
(0.772175 0.0523918 0)
(0.747268 0.0667117 0)
(0.731756 0.0690066 0)
(0.715712 0.0679633 0)
(0.699757 0.0647512 0)
(0.683883 0.0613552 0)
(0.668326 0.0596685 0)
(0.653102 0.0606583 0)
(0.638125 0.0642333 0)
(0.623251 0.0693444 0)
(0.607954 0.0735662 0)
(0.592046 0.0747525 0)
(0.57604 0.0724793 0)
(0.560197 0.0684364 0)
(0.544393 0.066107 0)
(0.528995 0.0672349 0)
(0.514088 0.071155 0)
(0.499326 0.0759367 0)
(0.483999 0.07859 0)
(0.468241 0.0766555 0)
(0.452429 0.0730298 0)
(0.436121 0.0727761 0)
(0.420072 0.0766099 0)
(0.40342 0.0798862 0)
(0.38646 0.0798197 0)
(0.369532 0.0791109 0)
(0.352591 0.0798216 0)
(0.335684 0.0812353 0)
(0.318634 0.0824847 0)
(0.301435 0.0832657 0)
(0.284234 0.0837836 0)
(0.267072 0.0845639 0)
(0.249931 0.085694 0)
(0.232775 0.0870187 0)
(0.215529 0.08841 0)
(0.198128 0.0898351 0)
(0.180543 0.0914115 0)
(0.162785 0.0930248 0)
(0.144884 0.0946742 0)
(0.126794 0.0962566 0)
(0.108392 0.0982712 0)
(0.0895355 0.101029 0)
(0.0699601 0.10352 0)
(0.0502796 0.106353 0)
(0.0302561 0.108029 0)
(0.010396 0.110226 0)
(3 -9.50354e-17 0)
(3 -6.0331e-17 0)
(3 -3.9314e-16 0)
(3 -3.99042e-16 0)
(3 -1.42238e-16 0)
(3 4.12671e-17 0)
(3 1.8992e-16 0)
(3 1.52155e-16 0)
(3 -3.02515e-16 0)
(3 -7.49659e-16 0)
(3 -1.27468e-15 0)
(3 -1.34821e-15 0)
(3 -1.01464e-15 0)
(3 -7.95687e-16 0)
(3 -8.858e-16 0)
(3 -1.34589e-15 0)
(3 -1.45862e-15 0)
(3 -9.99639e-16 0)
(3 1.14775e-17 0)
(3 4.5581e-16 0)
(3 9.83914e-16 0)
(3 1.05509e-15 0)
(3 6.17885e-16 0)
(3 2.71061e-16 0)
(3 1.49919e-16 0)
(3 1.32416e-16 0)
(3 -2.87261e-16 0)
(3 -5.28901e-17 0)
(3 3.8222e-16 0)
(3 3.6308e-16 0)
(3 6.89171e-17 0)
(3 1.44315e-16 0)
(3 -1.09296e-16 0)
(3 -4.97046e-16 0)
(3 -7.43517e-16 0)
(3 -3.20026e-16 0)
(3 5.50325e-16 0)
(3 5.97691e-16 0)
(3 1.47124e-16 0)
(3 1.38394e-16 0)
(3 1.21093e-15 0)
(3 1.78422e-15 0)
(3 1.46684e-15 0)
(3 1.24368e-15 0)
(3 1.95877e-15 0)
(3 2.25753e-15 0)
(3 3.17688e-15 0)
(3 3.29471e-15 0)
(3 2.88677e-15 0)
(1.40951 0.0915635 0)
(0.778515 0.0714453 0)
(0.748466 0.086113 0)
(0.733258 0.0903941 0)
(0.716778 0.0905941 0)
(0.700296 0.0877611 0)
(0.683876 0.0835177 0)
(0.667849 0.0804271 0)
(0.652405 0.080614 0)
(0.637654 0.0842248 0)
(0.62343 0.0899923 0)
(0.608959 0.0953156 0)
(0.593639 0.0976454 0)
(0.577776 0.0961973 0)
(0.561734 0.0921578 0)
(0.545511 0.0889811 0)
(0.529636 0.0893012 0)
(0.514558 0.093101 0)
(0.500039 0.0985484 0)
(0.48505 0.102283 0)
(0.469376 0.101221 0)
(0.453481 0.0975674 0)
(0.436911 0.0972371 0)
(0.420887 0.10161 0)
(0.404398 0.105618 0)
(0.387476 0.105794 0)
(0.370482 0.105224 0)
(0.35336 0.106296 0)
(0.33623 0.108147 0)
(0.318925 0.109789 0)
(0.301445 0.110883 0)
(0.28394 0.111607 0)
(0.266479 0.112592 0)
(0.249021 0.113993 0)
(0.231479 0.115632 0)
(0.213779 0.117309 0)
(0.195912 0.11894 0)
(0.177917 0.120696 0)
(0.159831 0.122454 0)
(0.141689 0.124232 0)
(0.12345 0.125865 0)
(0.105027 0.128066 0)
(0.0863474 0.131241 0)
(0.0672422 0.134218 0)
(0.048242 0.137801 0)
(0.0289169 0.140001 0)
(0.00996515 0.142984 0)
(3 1.7865e-17 0)
(3 3.51155e-17 0)
(3 8.8101e-17 0)
(3 -1.15251e-17 0)
(3 -5.69036e-16 0)
(3 -1.12753e-15 0)
(3 -1.02302e-15 0)
(3 -7.46754e-16 0)
(3 -1.06532e-15 0)
(3 -1.7862e-15 0)
(3 -1.53397e-15 0)
(3 -1.32206e-15 0)
(3 -1.33322e-15 0)
(3 -1.71275e-15 0)
(3 -1.90029e-15 0)
(3 -1.46723e-15 0)
(3 -7.82545e-17 0)
(3 2.85786e-16 0)
(3 7.4403e-16 0)
(3 1.77122e-15 0)
(3 2.01706e-15 0)
(3 1.10502e-15 0)
(3 4.74955e-16 0)
(3 6.12539e-16 0)
(3 9.12693e-16 0)
(3 7.86419e-16 0)
(3 4.0253e-16 0)
(3 6.56599e-17 0)
(3 -6.11488e-17 0)
(3 -4.79003e-16 0)
(3 -5.23199e-16 0)
(3 -1.63217e-16 0)
(3 -5.36313e-16 0)
(3 -9.4666e-16 0)
(3 -1.41131e-15 0)
(3 -2.41273e-15 0)
(3 -2.32066e-15 0)
(3 -2.26534e-15 0)
(3 -1.67883e-15 0)
(3 -6.2243e-16 0)
(3 -2.98272e-16 0)
(3 8.96622e-16 0)
(3 1.23359e-15 0)
(3 1.33556e-15 0)
(3 9.81331e-16 0)
(3 6.49145e-16 0)
(3 1.79606e-16 0)
(3 -2.13152e-16 0)
(3 -4.37151e-16 0)
(1.56207 0.114616 0)
(0.790108 0.0929628 0)
(0.750992 0.106618 0)
(0.736236 0.112823 0)
(0.719446 0.114336 0)
(0.702815 0.112308 0)
(0.686154 0.10766 0)
(0.669779 0.103163 0)
(0.653915 0.101901 0)
(0.638997 0.104784 0)
(0.625099 0.110702 0)
(0.611404 0.116961 0)
(0.596891 0.120634 0)
(0.581501 0.120539 0)
(0.565652 0.117233 0)
(0.549462 0.113505 0)
(0.533399 0.112675 0)
(0.518214 0.115733 0)
(0.503985 0.121357 0)
(0.489555 0.126128 0)
(0.474271 0.126472 0)
(0.458649 0.123188 0)
(0.442241 0.122692 0)
(0.426537 0.127266 0)
(0.410573 0.131928 0)
(0.393999 0.132543 0)
(0.377253 0.13227 0)
(0.360258 0.133767 0)
(0.343158 0.136114 0)
(0.325806 0.138282 0)
(0.308195 0.139897 0)
(0.290464 0.141043 0)
(0.272714 0.142409 0)
(0.254874 0.144241 0)
(0.236809 0.146364 0)
(0.218438 0.148487 0)
(0.199803 0.150439 0)
(0.181003 0.152438 0)
(0.162099 0.154348 0)
(0.14313 0.156203 0)
(0.124082 0.157716 0)
(0.104954 0.159858 0)
(0.0857834 0.163114 0)
(0.0664406 0.166183 0)
(0.047514 0.170188 0)
(0.0283499 0.172699 0)
(0.0097643 0.176307 0)
(3 -5.94519e-17 0)
(3 -2.34542e-16 0)
(3 -1.83203e-16 0)
(3 -1.51017e-16 0)
(3 -7.34465e-16 0)
(3 -1.34762e-15 0)
(3 -1.58145e-15 0)
(3 -1.63849e-15 0)
(3 -1.58725e-15 0)
(3 -1.48163e-15 0)
(3 -1.22408e-15 0)
(3 -1.08756e-15 0)
(3 -8.72181e-16 0)
(3 -1.81356e-16 0)
(3 -1.5075e-16 0)
(3 -5.16673e-17 0)
(3 3.77893e-16 0)
(3 3.72194e-16 0)
(3 2.01604e-16 0)
(3 4.66661e-16 0)
(3 3.84909e-16 0)
(3 6.92853e-16 0)
(3 6.61989e-16 0)
(3 4.22204e-16 0)
(3 6.89857e-16 0)
(3 8.01643e-16 0)
(3 8.05821e-16 0)
(3 5.76976e-16 0)
(3 -9.93791e-17 0)
(3 -4.23104e-17 0)
(3 3.01525e-16 0)
(3 -1.35425e-18 0)
(3 -1.05408e-15 0)
(3 -1.53733e-15 0)
(3 -1.44612e-15 0)
(3 -7.19267e-16 0)
(3 -6.27118e-16 0)
(3 -8.36447e-16 0)
(3 -1.06336e-15 0)
(3 -1.36303e-15 0)
(3 -1.56184e-15 0)
(3 -6.17265e-16 0)
(3 8.67826e-16 0)
(3 1.18317e-15 0)
(3 -3.9838e-16 0)
(3 -6.97989e-16 0)
(3 -1.10123e-15 0)
(3 -9.3099e-16 0)
(3 -3.7458e-15 0)
(1.78206 0.13347 0)
(0.809374 0.116664 0)
(0.753917 0.128329 0)
(0.739764 0.136142 0)
(0.722946 0.138515 0)
(0.706523 0.137496 0)
(0.689914 0.133122 0)
(0.673348 0.127751 0)
(0.656962 0.124953 0)
(0.641376 0.126488 0)
(0.627074 0.131826 0)
(0.613593 0.138554 0)
(0.59968 0.143634 0)
(0.584732 0.145219 0)
(0.569026 0.143234 0)
(0.552834 0.139614 0)
(0.536529 0.137676 0)
(0.520922 0.139542 0)
(0.506522 0.144887 0)
(0.492331 0.15061 0)
(0.477201 0.152684 0)
(0.461562 0.150186 0)
(0.445165 0.149409 0)
(0.42948 0.153848 0)
(0.413913 0.159129 0)
(0.397605 0.160445 0)
(0.381103 0.160661 0)
(0.364328 0.162659 0)
(0.347411 0.165563 0)
(0.330239 0.168373 0)
(0.312783 0.170699 0)
(0.295144 0.172468 0)
(0.277438 0.174372 0)
(0.259579 0.176774 0)
(0.241392 0.179531 0)
(0.222774 0.18226 0)
(0.203776 0.184662 0)
(0.184535 0.186996 0)
(0.165106 0.18912 0)
(0.145523 0.191086 0)
(0.125799 0.192424 0)
(0.106038 0.194379 0)
(0.086374 0.197492 0)
(0.0666141 0.200307 0)
(0.0475346 0.204396 0)
(0.0282865 0.206976 0)
(0.00972299 0.210985 0)
(3 -2.06545e-16 0)
(3 -3.84381e-16 0)
(3 -5.38312e-16 0)
(3 -3.74055e-16 0)
(3 -3.12542e-16 0)
(3 -1.59077e-16 0)
(3 -5.99464e-16 0)
(3 -7.29035e-16 0)
(3 -7.87115e-16 0)
(3 -6.73555e-16 0)
(3 -4.80043e-16 0)
(3 -7.06551e-17 0)
(3 2.99057e-16 0)
(3 2.08197e-15 0)
(3 2.38953e-15 0)
(3 1.66277e-15 0)
(3 6.03489e-16 0)
(3 -6.91934e-16 0)
(3 -1.20324e-15 0)
(3 -1.56085e-15 0)
(3 -7.99242e-16 0)
(3 2.86913e-16 0)
(3 5.95893e-16 0)
(3 3.63762e-16 0)
(3 4.32251e-16 0)
(3 2.64136e-16 0)
(3 1.53589e-16 0)
(3 -1.1916e-16 0)
(3 -6.61407e-16 0)
(3 -8.88596e-16 0)
(3 -6.68448e-16 0)
(3 -5.92052e-16 0)
(3 -5.95269e-16 0)
(3 -2.05188e-16 0)
(3 -1.16686e-16 0)
(3 -1.96129e-16 0)
(3 -1.34146e-16 0)
(3 -2.36667e-16 0)
(3 -5.24305e-16 0)
(3 -6.84335e-16 0)
(3 -1.02965e-15 0)
(3 -1.35212e-15 0)
(3 -1.47268e-15 0)
(3 -1.51088e-15 0)
(3 -1.81344e-15 0)
(3 -1.79852e-15 0)
(3 -1.53588e-15 0)
(3 -1.08027e-15 0)
(3 -5.18525e-15 0)
(2.07541 0.148856 0)
(0.8382 0.148886 0)
(0.750997 0.152793 0)
(0.737073 0.160401 0)
(0.721342 0.163255 0)
(0.706208 0.163334 0)
(0.690424 0.160021 0)
(0.67418 0.154806 0)
(0.657751 0.15092 0)
(0.64186 0.150898 0)
(0.627204 0.154887 0)
(0.613719 0.161219 0)
(0.600353 0.167286 0)
(0.585993 0.170698 0)
(0.570512 0.170544 0)
(0.554318 0.167817 0)
(0.537839 0.165204 0)
(0.521768 0.165598 0)
(0.506929 0.170069 0)
(0.492879 0.176415 0)
(0.47794 0.180245 0)
(0.462252 0.178941 0)
(0.445938 0.177751 0)
(0.430168 0.181577 0)
(0.414952 0.187233 0)
(0.398949 0.189369 0)
(0.38272 0.190093 0)
(0.366255 0.192513 0)
(0.349659 0.195899 0)
(0.332884 0.199338 0)
(0.315892 0.202474 0)
(0.298707 0.205032 0)
(0.28144 0.207616 0)
(0.26401 0.210708 0)
(0.246222 0.214249 0)
(0.227922 0.217777 0)
(0.209116 0.220817 0)
(0.189941 0.223669 0)
(0.170411 0.226205 0)
(0.150533 0.228507 0)
(0.130312 0.229862 0)
(0.109942 0.231778 0)
(0.0896525 0.234803 0)
(0.0691231 0.237304 0)
(0.0493574 0.241335 0)
(0.029362 0.243868 0)
(0.0101061 0.248158 0)
(3 1.78171e-16 0)
(3 3.36541e-16 0)
(3 6.28955e-16 0)
(3 1.04643e-15 0)
(3 1.11405e-15 0)
(3 9.86854e-16 0)
(3 7.97661e-16 0)
(3 8.06376e-16 0)
(3 7.5882e-16 0)
(3 6.07448e-16 0)
(3 6.68102e-16 0)
(3 1.03523e-15 0)
(3 9.5101e-16 0)
(3 7.68562e-16 0)
(3 -2.18322e-16 0)
(3 -6.47935e-16 0)
(3 -7.76279e-16 0)
(3 -1.08269e-15 0)
(3 -1.56345e-15 0)
(3 -1.90141e-15 0)
(3 -1.87282e-15 0)
(3 -9.78549e-16 0)
(3 -5.0278e-16 0)
(3 -1.27706e-16 0)
(3 6.91548e-17 0)
(3 -3.3667e-16 0)
(3 -6.24485e-16 0)
(3 -9.26245e-16 0)
(3 -1.03033e-15 0)
(3 -1.17e-15 0)
(3 -1.34967e-15 0)
(3 -1.5e-15 0)
(3 -1.45091e-15 0)
(3 -6.8498e-16 0)
(3 -2.0019e-16 0)
(3 -9.32022e-16 0)
(3 -1.26421e-15 0)
(3 -7.6109e-16 0)
(3 -6.48212e-16 0)
(3 -4.97958e-16 0)
(3 -6.5751e-16 0)
(3 -6.61004e-16 0)
(3 -2.47993e-15 0)
(3 -3.72594e-15 0)
(3 -4.2376e-15 0)
(3 -3.33422e-15 0)
(3 -1.67538e-15 0)
(3 -7.19857e-16 0)
(3 -1.22971e-15 0)
(2.46719 0.145429 0)
(0.902725 0.183097 0)
(0.761935 0.17968 0)
(0.74752 0.185285 0)
(0.733522 0.18743 0)
(0.719966 0.188566 0)
(0.705107 0.186925 0)
(0.689135 0.182926 0)
(0.672362 0.178904 0)
(0.655554 0.177536 0)
(0.63964 0.179994 0)
(0.625061 0.185492 0)
(0.611318 0.192002 0)
(0.597176 0.197119 0)
(0.581844 0.199165 0)
(0.565497 0.19809 0)
(0.548709 0.19554 0)
(0.532044 0.194549 0)
(0.516318 0.197611 0)
(0.501877 0.203979 0)
(0.486884 0.209462 0)
(0.470794 0.210014 0)
(0.454138 0.208628 0)
(0.437677 0.211561 0)
(0.422081 0.217323 0)
(0.405799 0.220423 0)
(0.389138 0.221684 0)
(0.372258 0.224394 0)
(0.35526 0.228106 0)
(0.338172 0.232026 0)
(0.321005 0.235901 0)
(0.303707 0.239263 0)
(0.286374 0.242517 0)
(0.268969 0.246238 0)
(0.251318 0.250521 0)
(0.233221 0.25489 0)
(0.214586 0.258672 0)
(0.195537 0.262209 0)
(0.176029 0.265418 0)
(0.156029 0.268415 0)
(0.135468 0.270207 0)
(0.114602 0.272487 0)
(0.0936455 0.275741 0)
(0.0724548 0.27815 0)
(0.0517589 0.282218 0)
(0.0308152 0.28474 0)
(0.0106598 0.289329 0)
(3 -5.79512e-17 0)
(3 8.03081e-17 0)
(3 3.68139e-16 0)
(3 2.16725e-16 0)
(3 1.15839e-16 0)
(3 1.38223e-16 0)
(3 2.21974e-16 0)
(3 3.86622e-16 0)
(3 5.97552e-16 0)
(3 7.42907e-16 0)
(3 6.18073e-16 0)
(3 5.35889e-16 0)
(3 3.3637e-16 0)
(3 -4.89603e-16 0)
(3 -9.19155e-16 0)
(3 -7.43255e-16 0)
(3 -6.13794e-16 0)
(3 -6.04013e-16 0)
(3 -1.06666e-15 0)
(3 -1.34497e-15 0)
(3 -1.82836e-15 0)
(3 -1.99373e-15 0)
(3 -1.72154e-15 0)
(3 5.43565e-18 0)
(3 3.30858e-16 0)
(3 8.07548e-17 0)
(3 -4.05652e-17 0)
(3 -4.79013e-16 0)
(3 -5.40475e-16 0)
(3 -5.05009e-16 0)
(3 -8.02354e-16 0)
(3 -1.80236e-15 0)
(3 -1.82333e-15 0)
(3 -1.7425e-15 0)
(3 -1.32113e-15 0)
(3 -1.66717e-15 0)
(3 -1.93926e-15 0)
(3 -1.7631e-15 0)
(3 -1.44316e-15 0)
(3 -1.59291e-15 0)
(3 -1.78806e-15 0)
(3 -2.78594e-15 0)
(3 -2.81479e-15 0)
(3 -2.1668e-15 0)
(3 -1.11628e-15 0)
(3 -3.18293e-16 0)
(3 -1.06847e-15 0)
(3 -1.26504e-15 0)
(3 7.76781e-17 0)
(2.83666 0.114944 0)
(1.00296 0.219846 0)
(0.780004 0.201832 0)
(0.771055 0.202113 0)
(0.757377 0.20526 0)
(0.744503 0.208393 0)
(0.729993 0.20974 0)
(0.714101 0.208766 0)
(0.69714 0.206602 0)
(0.679768 0.205143 0)
(0.662877 0.206054 0)
(0.647153 0.209852 0)
(0.632638 0.215808 0)
(0.618499 0.222205 0)
(0.603492 0.226785 0)
(0.587298 0.228184 0)
(0.570461 0.226816 0)
(0.553527 0.225122 0)
(0.536993 0.226603 0)
(0.52174 0.232407 0)
(0.506691 0.239373 0)
(0.490316 0.242613 0)
(0.473199 0.241856 0)
(0.455918 0.243913 0)
(0.439621 0.249612 0)
(0.422848 0.25393 0)
(0.405453 0.256029 0)
(0.387785 0.259085 0)
(0.369955 0.26311 0)
(0.352034 0.267444 0)
(0.334125 0.272006 0)
(0.316117 0.276196 0)
(0.298051 0.280103 0)
(0.27994 0.284314 0)
(0.261684 0.289148 0)
(0.243101 0.294264 0)
(0.224014 0.298799 0)
(0.204545 0.303114 0)
(0.184626 0.307189 0)
(0.164178 0.311209 0)
(0.142979 0.313887 0)
(0.121316 0.316971 0)
(0.0993888 0.320909 0)
(0.0771236 0.323582 0)
(0.0551104 0.327882 0)
(0.0328865 0.330509 0)
(0.0114221 0.335495 0)
(3 -1.23181e-16 0)
(3 -2.52787e-16 0)
(3 -6.73799e-16 0)
(3 -1.10636e-15 0)
(3 -1.29233e-15 0)
(3 -1.17513e-15 0)
(3 -7.67506e-16 0)
(3 -6.05656e-16 0)
(3 -9.19214e-17 0)
(3 -9.06671e-17 0)
(3 -4.27882e-16 0)
(3 -5.56491e-16 0)
(3 -4.52502e-16 0)
(3 -2.86129e-16 0)
(3 -2.2338e-16 0)
(3 4.84663e-17 0)
(3 4.12863e-18 0)
(3 2.94889e-16 0)
(3 1.76729e-16 0)
(3 8.30225e-17 0)
(3 -3.37051e-16 0)
(3 -8.77219e-16 0)
(3 -1.24044e-15 0)
(3 -1.26153e-15 0)
(3 -8.75753e-16 0)
(3 -3.97266e-16 0)
(3 -5.29196e-17 0)
(3 -1.62873e-16 0)
(3 -4.18207e-16 0)
(3 -6.59514e-16 0)
(3 -8.59884e-16 0)
(3 -1.55928e-15 0)
(3 -2.11958e-15 0)
(3 -1.71011e-15 0)
(3 -1.66842e-15 0)
(3 -1.38601e-15 0)
(3 -1.03355e-15 0)
(3 -1.22587e-15 0)
(3 -8.90334e-16 0)
(3 -6.73328e-16 0)
(3 -6.30009e-16 0)
(3 -8.84269e-16 0)
(3 -1.00126e-15 0)
(3 2.11294e-16 0)
(3 1.31483e-15 0)
(3 1.98783e-16 0)
(3 -9.93945e-16 0)
(3 -1.05068e-15 0)
(3 -1.2115e-15 0)
(3.0105 0.00509974 0)
(1.16881 0.244016 0)
(0.795455 0.205216 0)
(0.784198 0.22286 0)
(0.769744 0.231112 0)
(0.755598 0.235969 0)
(0.74163 0.238838 0)
(0.727249 0.239396 0)
(0.712301 0.23849 0)
(0.696766 0.237144 0)
(0.681132 0.236626 0)
(0.665983 0.238248 0)
(0.651716 0.242532 0)
(0.638287 0.24875 0)
(0.62471 0.25472 0)
(0.61007 0.258191 0)
(0.5945 0.258488 0)
(0.578507 0.257004 0)
(0.562332 0.257112 0)
(0.546825 0.261569 0)
(0.532167 0.269086 0)
(0.5164 0.275074 0)
(0.499375 0.276312 0)
(0.481881 0.277916 0)
(0.465085 0.283343 0)
(0.448082 0.289054 0)
(0.430105 0.292685 0)
(0.411633 0.296587 0)
(0.39285 0.3013 0)
(0.373862 0.306324 0)
(0.354891 0.311756 0)
(0.335839 0.316986 0)
(0.316662 0.321728 0)
(0.297418 0.326414 0)
(0.278118 0.331584 0)
(0.258697 0.337229 0)
(0.238885 0.342389 0)
(0.218699 0.347411 0)
(0.198064 0.35241 0)
(0.176777 0.357742 0)
(0.154426 0.361873 0)
(0.131348 0.366392 0)
(0.107806 0.371715 0)
(0.0837271 0.375236 0)
(0.0597926 0.380108 0)
(0.0357012 0.38296 0)
(0.0124123 0.388442 0)
(3 2.50619e-17 0)
(3 3.99308e-17 0)
(3 -1.84441e-16 0)
(3 -2.96967e-16 0)
(3 -5.11911e-16 0)
(3 -5.95964e-16 0)
(3 5.79524e-17 0)
(3 5.05552e-16 0)
(3 6.64473e-16 0)
(3 5.10207e-17 0)
(3 -7.37324e-16 0)
(3 -8.81181e-16 0)
(3 -2.68669e-16 0)
(3 -1.47387e-16 0)
(3 5.5881e-17 0)
(3 3.80454e-16 0)
(3 2.93967e-16 0)
(3 1.58615e-16 0)
(3 2.04876e-16 0)
(3 2.90989e-16 0)
(3 3.03937e-16 0)
(3 2.36976e-16 0)
(3 -8.45895e-16 0)
(3 -1.93939e-15 0)
(3 -1.99671e-15 0)
(3 -1.02499e-15 0)
(3 -4.66467e-16 0)
(3 -3.83036e-16 0)
(3 -2.2681e-16 0)
(3 -2.19811e-16 0)
(3 -2.35862e-16 0)
(3 -3.12707e-16 0)
(3 -4.92605e-16 0)
(3 -6.69792e-16 0)
(3 -8.47205e-16 0)
(3 -5.05068e-16 0)
(3 -3.00356e-16 0)
(3 4.18225e-17 0)
(3 1.56564e-16 0)
(3 1.03804e-16 0)
(3 -5.36341e-17 0)
(3 6.40739e-16 0)
(3 9.32296e-16 0)
(3 8.80216e-16 0)
(3 9.7208e-16 0)
(3 5.63768e-17 0)
(3 -6.55706e-16 0)
(3 -6.98673e-16 0)
(3 -1.22655e-15 0)
(3.00011 6.9659e-06 0)
(1.54391 0.275058 0)
(0.814876 0.245183 0)
(0.767247 0.249317 0)
(0.753536 0.256413 0)
(0.740379 0.25917 0)
(0.729004 0.261918 0)
(0.717278 0.263819 0)
(0.704945 0.265374 0)
(0.691677 0.266215 0)
(0.677909 0.266567 0)
(0.664157 0.267709 0)
(0.650834 0.270889 0)
(0.638251 0.276497 0)
(0.626144 0.283311 0)
(0.613529 0.288824 0)
(0.600093 0.291299 0)
(0.586213 0.291203 0)
(0.571976 0.291163 0)
(0.557743 0.294503 0)
(0.544445 0.301918 0)
(0.530792 0.309961 0)
(0.515548 0.314014 0)
(0.499533 0.31597 0)
(0.483745 0.320949 0)
(0.468098 0.327654 0)
(0.451335 0.333085 0)
(0.433779 0.338186 0)
(0.41572 0.343795 0)
(0.397237 0.349593 0)
(0.378566 0.355823 0)
(0.359617 0.362086 0)
(0.340187 0.367842 0)
(0.320268 0.373231 0)
(0.299952 0.378893 0)
(0.279339 0.385297 0)
(0.25813 0.391593 0)
(0.236297 0.39798 0)
(0.213792 0.404509 0)
(0.190684 0.411686 0)
(0.166442 0.417747 0)
(0.141576 0.42389 0)
(0.116439 0.430874 0)
(0.0903636 0.435501 0)
(0.06459 0.440955 0)
(0.0383781 0.443825 0)
(0.0132424 0.449514 0)
(3 -9.02638e-17 0)
(3 -9.49702e-17 0)
(3 1.98413e-17 0)
(3 2.36897e-17 0)
(3 1.6814e-17 0)
(3 2.35119e-16 0)
(3 3.0058e-16 0)
(3 3.56843e-16 0)
(3 2.08054e-16 0)
(3 2.82876e-17 0)
(3 2.16072e-16 0)
(3 1.3274e-16 0)
(3 -1.64791e-16 0)
(3 -1.04237e-17 0)
(3 1.56648e-16 0)
(3 4.19675e-16 0)
(3 6.30268e-16 0)
(3 1.32737e-16 0)
(3 -9.35465e-16 0)
(3 -1.07394e-15 0)
(3 -8.54021e-16 0)
(3 -8.3988e-16 0)
(3 -4.98385e-16 0)
(3 -3.7368e-16 0)
(3 -7.19854e-16 0)
(3 -9.68181e-16 0)
(3 -8.23102e-16 0)
(3 -7.82714e-16 0)
(3 -8.69748e-16 0)
(3 -2.69323e-16 0)
(3 1.99658e-16 0)
(3 8.542e-16 0)
(3 1.0757e-15 0)
(3 8.10068e-16 0)
(3 3.35271e-17 0)
(3 -4.87457e-16 0)
(3 -7.62137e-16 0)
(3 -8.57352e-16 0)
(3 -1.33135e-15 0)
(3 -1.46217e-15 0)
(3 -1.22048e-15 0)
(3 -9.66039e-16 0)
(3 -5.77923e-16 0)
(3 -4.42517e-16 0)
(3 -3.53516e-16 0)
(3 -3.477e-16 0)
(3 -6.71885e-16 0)
(3 -8.56194e-16 0)
(3 -8.53683e-16 0)
(3 1.11901e-08 0)
(2.23462 0.280585 0)
(0.885025 0.308343 0)
(0.773675 0.291512 0)
(0.762592 0.282357 0)
(0.749851 0.282667 0)
(0.738618 0.285008 0)
(0.727236 0.28879 0)
(0.715301 0.292658 0)
(0.702431 0.295418 0)
(0.68897 0.296652 0)
(0.675381 0.297583 0)
(0.66193 0.299863 0)
(0.648904 0.304517 0)
(0.636474 0.311123 0)
(0.624077 0.317542 0)
(0.611173 0.321588 0)
(0.59791 0.322943 0)
(0.584401 0.32332 0)
(0.570672 0.325828 0)
(0.557587 0.33249 0)
(0.545112 0.341623 0)
(0.531391 0.348681 0)
(0.516588 0.352181 0)
(0.501739 0.357015 0)
(0.48736 0.364416 0)
(0.472276 0.371956 0)
(0.456255 0.379061 0)
(0.439613 0.386387 0)
(0.422359 0.393791 0)
(0.404659 0.401578 0)
(0.386446 0.409641 0)
(0.367445 0.417409 0)
(0.347559 0.424628 0)
(0.326959 0.431763 0)
(0.305922 0.439601 0)
(0.284322 0.447499 0)
(0.26233 0.455425 0)
(0.239491 0.463332 0)
(0.215872 0.471949 0)
(0.190903 0.47969 0)
(0.164696 0.487628 0)
(0.137365 0.497466 0)
(0.107923 0.505787 0)
(0.0773977 0.513793 0)
(0.0458422 0.51771 0)
(0.0154878 0.52329 0)
(3 -1.17332e-17 0)
(3 -1.69005e-16 0)
(3 -2.03944e-16 0)
(3 -8.91259e-17 0)
(3 3.06213e-16 0)
(3 4.66454e-16 0)
(3 2.09001e-16 0)
(3 1.36615e-16 0)
(3 2.91029e-16 0)
(3 4.1785e-16 0)
(3 5.82395e-16 0)
(3 7.24634e-16 0)
(3 2.52609e-16 0)
(3 -1.54241e-16 0)
(3 1.30297e-18 0)
(3 -1.58872e-16 0)
(3 -1.70635e-16 0)
(3 -4.74346e-16 0)
(3 -6.11812e-16 0)
(3 -8.63865e-16 0)
(3 -6.56931e-16 0)
(3 -3.04017e-16 0)
(3 3.301e-16 0)
(3 5.9088e-16 0)
(3 4.44122e-16 0)
(3 -5.00851e-17 0)
(3 -7.03666e-16 0)
(3 -7.87413e-16 0)
(3 -7.43577e-16 0)
(3 6.47385e-16 0)
(3 8.87281e-16 0)
(3 1.42785e-15 0)
(3 1.40052e-15 0)
(3 5.85696e-16 0)
(3 -4.72719e-16 0)
(3 -8.18037e-16 0)
(3 -6.71976e-16 0)
(3 -7.05813e-16 0)
(3 -5.27414e-16 0)
(3 -1.13655e-16 0)
(3 -1.17254e-16 0)
(3 -3.64461e-16 0)
(3 -8.0138e-16 0)
(3 -7.81894e-16 0)
(3 -6.6949e-16 0)
(3 -4.47463e-16 0)
(3 -1.06178e-17 0)
(3 -8.8194e-17 0)
(3 2.02608e-16 0)
(3 -8.45931e-10 0)
(3.00408 0.0362976 0)
(1.12657 0.344501 0)
(0.822245 0.307755 0)
(0.804024 0.300186 0)
(0.788585 0.301789 0)
(0.773978 0.304776 0)
(0.760229 0.310024 0)
(0.746674 0.315934 0)
(0.732811 0.320848 0)
(0.718516 0.323652 0)
(0.704152 0.325301 0)
(0.689892 0.327651 0)
(0.675868 0.331982 0)
(0.662296 0.338431 0)
(0.648979 0.345513 0)
(0.635431 0.351121 0)
(0.621573 0.354351 0)
(0.607533 0.355941 0)
(0.5933 0.358098 0)
(0.579335 0.363651 0)
(0.566366 0.372825 0)
(0.553093 0.382149 0)
(0.53861 0.388051 0)
(0.523885 0.393055 0)
(0.509809 0.400482 0)
(0.495899 0.409471 0)
(0.481376 0.418663 0)
(0.466347 0.428077 0)
(0.450697 0.437528 0)
(0.434498 0.447361 0)
(0.417703 0.457666 0)
(0.40006 0.468045 0)
(0.381321 0.478082 0)
(0.361453 0.48781 0)
(0.340594 0.497989 0)
(0.319027 0.508498 0)
(0.296237 0.519423 0)
(0.271703 0.530615 0)
(0.245484 0.543109 0)
(0.217023 0.555759 0)
(0.186359 0.568854 0)
(0.154832 0.583923 0)
(0.122548 0.598253 0)
(0.0892606 0.609738 0)
(0.0544784 0.615743 0)
(0.0174522 0.6195 0)
(3 -3.30991e-17 0)
(3 -1.20203e-17 0)
(3 1.24798e-16 0)
(3 4.84518e-16 0)
(3 9.45091e-16 0)
(3 7.8063e-16 0)
(3 5.08012e-16 0)
(3 4.05521e-16 0)
(3 4.4267e-16 0)
(3 7.44349e-16 0)
(3 1.30142e-15 0)
(3 1.37367e-15 0)
(3 9.66e-16 0)
(3 3.50757e-16 0)
(3 -7.31494e-16 0)
(3 -1.31971e-15 0)
(3 -1.55894e-15 0)
(3 -1.05021e-15 0)
(3 -5.25055e-16 0)
(3 3.79533e-16 0)
(3 6.37787e-16 0)
(3 9.34508e-16 0)
(3 1.04703e-15 0)
(3 7.71502e-16 0)
(3 5.14998e-16 0)
(3 1.25626e-16 0)
(3 -1.97905e-16 0)
(3 -3.11048e-16 0)
(3 3.91118e-16 0)
(3 6.48279e-16 0)
(3 7.81702e-16 0)
(3 8.89458e-16 0)
(3 9.10382e-16 0)
(3 6.29298e-16 0)
(3 1.10028e-15 0)
(3 1.86467e-15 0)
(3 1.94916e-15 0)
(3 1.64811e-15 0)
(3 1.63382e-15 0)
(3 1.27725e-15 0)
(3 7.96391e-16 0)
(3 3.58625e-16 0)
(3 3.48926e-16 0)
(3 5.40901e-16 0)
(3 6.56618e-16 0)
(3 3.88399e-16 0)
(3 4.03951e-16 0)
(3 5.48778e-16 0)
(3 1.17939e-15 0)
(3 -7.68963e-11 0)
(3.00221 0.000271354 0)
(1.62968 0.363837 0)
(0.848426 0.343133 0)
(0.80362 0.34289 0)
(0.789511 0.34626 0)
(0.776001 0.347613 0)
(0.762959 0.350241 0)
(0.750099 0.354484 0)
(0.737334 0.358907 0)
(0.724307 0.361762 0)
(0.711253 0.363318 0)
(0.698381 0.36533 0)
(0.685809 0.369092 0)
(0.673628 0.374883 0)
(0.661743 0.381816 0)
(0.649746 0.388169 0)
(0.637406 0.392675 0)
(0.624778 0.395373 0)
(0.611838 0.397578 0)
(0.598675 0.401837 0)
(0.586114 0.409814 0)
(0.574028 0.419816 0)
(0.560854 0.427828 0)
(0.546861 0.43336 0)
(0.533116 0.440185 0)
(0.520093 0.449477 0)
(0.50701 0.459967 0)
(0.493821 0.47122 0)
(0.480022 0.482634 0)
(0.465808 0.494504 0)
(0.451058 0.507106 0)
(0.435527 0.520292 0)
(0.419133 0.533899 0)
(0.401441 0.547442 0)
(0.382725 0.561524 0)
(0.362861 0.576348 0)
(0.341767 0.592243 0)
(0.318813 0.608734 0)
(0.294426 0.626764 0)
(0.268181 0.645065 0)
(0.240194 0.662733 0)
(0.21044 0.679484 0)
(0.178998 0.696859 0)
(0.14217 0.717192 0)
(0.0962705 0.740689 0)
(0.0369713 0.761177 0)
(3 -8.80916e-19 0)
(3 5.07151e-17 0)
(3 2.75749e-16 0)
(3 1.89373e-16 0)
(3 -6.59485e-17 0)
(3 -3.46661e-17 0)
(3 2.42216e-16 0)
(3 3.64572e-16 0)