/*--------------------------------*- C++ -*----------------------------------*\
  =========                 |
  \\      /  F ield         | OpenFOAM: The Open Source CFD Toolbox
   \\    /   O peration     | Website:  https://openfoam.org
    \\  /    A nd           | Version:  7
     \\/     M anipulation  |
\*---------------------------------------------------------------------------*/
FoamFile
{
    version     2.0;
    format      ascii;
    class       volScalarField;
    location    "2.4";
    object      T;
}
// * * * * * * * * * * * * * * * * * * * * * * * * * * * * * * * * * * * * * //

dimensions      [0 0 0 1 0 0 0];

internalField   nonuniform List<scalar> 
19968
(
1
1
1
1
1
1
1
1
1
1
1
1
1
1
1
1
1
1
1
1
1
1
1
1
1
1
1
1
1
1
1
1
1
1
1
1
1
1
1
1
1
1
1
1
1
1
1
1
1
1.82807
2.65651
2.7099
2.70816
2.71001
2.71306
2.71792
2.72343
2.72858
2.7327
2.73567
2.73772
2.73931
2.74109
2.74378
2.74764
2.75211
2.75625
2.75963
2.7623
2.76482
2.76775
2.77136
2.77532
2.77893
2.78163
2.78334
2.78456
2.78581
2.78727
2.78882
2.7904
2.79217
2.79451
2.7976
2.80124
2.80493
2.80816
2.81059
2.81234
2.81384
2.81594
2.81912
2.82345
2.82856
2.83235
2.83369
1
1
1
1
1
1
1
1
1
1
1
1
1
1
1
1
1
1
1
1
1
1
1
1
1
1
1
1
1
1
1
1
1
1
1
1
1
1
1
1
1
1
1
1
1
1
1
1
1
1.81436
2.65171
2.70914
2.70802
2.70975
2.71299
2.71778
2.7231
2.72803
2.73199
2.73495
2.73718
2.73902
2.74101
2.7438
2.74765
2.75202
2.75604
2.75934
2.76197
2.76451
2.76749
2.77113
2.7751
2.77868
2.78133
2.78303
2.78427
2.78552
2.78697
2.7885
2.79006
2.79184
2.7942
2.79731
2.80095
2.80464
2.80784
2.81023
2.81194
2.81341
2.81551
2.81869
2.82301
2.82814
2.83195
2.83331
1
1
1
1
1
1
1
1
1
1
1
1
1
1
1
1
1
1
1
1
1
1
1
1
1
1
1
1
1
1
1
1
1
1
1
1
1
1
1
1
1
1
1
1
1
1
1
1
1
1.7818
2.64018
2.70839
2.70734
2.70952
2.71291
2.71737
2.72212
2.72648
2.7301
2.73308
2.73564
2.73799
2.74049
2.74361
2.74751
2.75173
2.75548
2.75858
2.7611
2.76371
2.76681
2.77059
2.77464
2.77823
2.78085
2.78253
2.78376
2.785
2.78642
2.78792
2.78949
2.79132
2.79375
2.79692
2.80059
2.80425
2.80738
2.80967
2.81127
2.81267
2.81476
2.81794
2.82225
2.82742
2.83127
2.83266
1
1
1
1
1
1
1
1
1
1
1
1
1
1
1
1
1
1
1
1
1
1
1
1
1
1
1
1
1
1
1
1
1
1
1
1
1
1
1
1
1
1
1
1
1
1
1
1
1
1.72255
2.62126
2.70593
2.70648
2.70966
2.71311
2.71689
2.72064
2.72412
2.72729
2.73031
2.73328
2.7363
2.73952
2.74313
2.7471
2.75107
2.7544
2.75718
2.75956
2.76223
2.76549
2.76948
2.77368
2.77734
2.77997
2.78167
2.78291
2.78414
2.78553
2.787
2.78858
2.79046
2.79297
2.7962
2.7999
2.80355
2.80663
2.80881
2.81028
2.81158
2.81366
2.81682
2.82112
2.82632
2.8302
2.83161
1
1
1
1
1
1
1
1
1
1
1
1
1
1
1
1
1
1
1
1
1
1
1
1
1
1
1
1
1
1
1
1
1
1
1
1
1
1
1
1
1
1
1
1
1
1
1
1
1
1.63892
2.59471
2.70094
2.70515
2.70978
2.71298
2.71588
2.71857
2.72116
2.7238
2.72675
2.73011
2.73386
2.73794
2.74219
2.7463
2.74997
2.7528
2.75521
2.75741
2.76018
2.76367
2.76797
2.77239
2.77617
2.77883
2.78051
2.78173
2.78289
2.78421
2.78564
2.78721
2.78912
2.79166
2.79494
2.79869
2.80237
2.80542
2.80752
2.80889
2.81011
2.81212
2.81526
2.81967
2.82492
2.82885
2.8303
1
1
1
1
1
1
1
1
1
1
1
1
1
1
1
1
1
1
1
1
1
1
1
1
1
1
1
1
1
1
1
1
1
1
1
1
1
1
1
1
1
1
1
1
1
1
1
1
1
1.5273
2.55788
2.6935
2.7021
2.70861
2.71188
2.71432
2.71634
2.71827
2.7204
2.72315
2.72674
2.73116
2.7361
2.74101
2.7453
2.74869
2.75101
2.75297
2.75494
2.75772
2.76143
2.76603
2.77067
2.77456
2.7772
2.77884
2.78001
2.78114
2.78242
2.78385
2.78545
2.78738
2.78993
2.79325
2.79705
2.80078
2.80384
2.80585
2.80711
2.80823
2.81009
2.81313
2.81762
2.82292
2.82689
2.82836
1
1
1
1
1
1
1
1
1
1
1
1
1
1
1
1
1
1
1
1
1
1
1
1
1
1
1
1
1
1
1
1
1
1
1
1
1
1
1
1
1
1
1
1
1
1
1
1
1
1.37941
2.50039
2.68516
2.69772
2.70579
2.70986
2.71263
2.7145
2.7161
2.71785
2.7203
2.72385
2.72856
2.73407
2.73956
2.74409
2.74726
2.74911
2.75063
2.75231
2.75503
2.7589
2.76375
2.76859
2.77254
2.7751
2.77666
2.77782
2.779
2.78038
2.7819
2.7835
2.78535
2.78777
2.79098
2.79474
2.79847
2.8015
2.80344
2.8046
2.80565
2.80735
2.81025
2.81478
2.82012
2.82412
2.82561
1
1
1
1
1
1
1
1
1
1
1
1
1
1
1
1
1
1
1
1
1
1
1
1
1
1
1
1
1
1
1
1
1
1
1
1
1
1
1
1
1
1
1
1
1
1
1
1
1
1.21502
2.4212
2.68044
2.69361
2.70211
2.70691
2.71034
2.7126
2.71439
2.71614
2.71841
2.72172
2.72628
2.7318
2.73738
2.74192
2.74492
2.74648
2.7477
2.74913
2.75173
2.7557
2.76073
2.76572
2.76972
2.77223
2.77377
2.77497
2.7763
2.77788
2.77955
2.78116
2.78285
2.78503
2.78799
2.7916
2.79528
2.79831
2.80025
2.80139
2.8024
2.80396
2.80669
2.81118
2.81654
2.82055
2.82207
1
1
1
1
1
1
1
1
1
1
1
1
1
1
1
1
1
1
1
1
1
1
1
1
1
1
1
1
1
1
1
1
1
1
1
1
1
1
1
1
1
1
1
1
1
1
1
1
1
1.00765
2.29273
2.68325
2.69498
2.70109
2.70583
2.70947
2.71251
2.71485
2.71684
2.71911
2.72227
2.72654
2.73155
2.73646
2.74044
2.74307
2.7444
2.74542
2.74666
2.74906
2.75292
2.75781
2.76263
2.76629
2.76841
2.76963
2.77068
2.77206
2.77382
2.77565
2.77726
2.77876
2.78062
2.78324
2.78663
2.79027
2.79343
2.79556
2.79685
2.79796
2.79954
2.80224
2.80671
2.81214
2.81623
2.8178
1
1
1
1
1
1
1
1
1
1
1
1
1
1
1
1
1
1
1
1
1
1
1
1
1
1
1
1
1
1
1
1
1
1
1
1
1
1
1
1
1
1
1
1
1
1
1
1
1
1.00002
2.12203
2.66982
2.68643
2.69092
2.69569
2.69998
2.70423
2.70789
2.71109
2.7143
2.718
2.72236
2.72705
2.73141
2.7349
2.73732
2.73868
2.73985
2.74134
2.74396
2.7481
2.75313
2.75794
2.76136
2.76321
2.7642
2.76517
2.76666
2.7687
2.77079
2.77249
2.77385
2.77539
2.77762
2.78072
2.78429
2.78755
2.78982
2.79118
2.79227
2.79372
2.79619
2.8005
2.80586
2.80994
2.81149
1
1
1
1
1
1
1
1
1
1
1
1
1
1
1
1
1
1
1
1
1
1
1
1
1
1
1
1
1
1
1
1
1
1
1
1
1
1
1
1
1
1
1
1
1
1
1
1
1
1
1.8705
2.6307
2.6784
2.68274
2.68727
2.69156
2.69608
2.70064
2.7052
2.7097
2.7142
2.71872
2.72303
2.72678
2.7297
2.73181
2.73314
2.73441
2.73615
2.73898
2.74329
2.7484
2.75312
2.75619
2.75764
2.75822
2.75895
2.76037
2.76257
2.7649
2.76665
2.76776
2.76878
2.77037
2.7729
2.77617
2.7794
2.78176
2.78322
2.78433
2.78579
2.78824
2.79247
2.79789
2.80206
2.80365
1
1
1
1
1
1
1
1
1
1
1
1
1
1
1
1
1
1
1
1
1
1
1
1
1
1
1
1
1
1
1
1
1
1
1
1
1
1
1
1
1
1
1
1
1
1
1
1
1
1
1.50314
2.52129
2.6694
2.6742
2.6801
2.68389
2.6881
2.6928
2.698
2.70344
2.70879
2.71374
2.71799
2.72132
2.72373
2.72546
2.72665
2.72785
2.72969
2.7326
2.73695
2.74208
2.74673
2.7496
2.75072
2.75093
2.75132
2.75254
2.75483
2.75747
2.75943
2.76044
2.76106
2.76211
2.76412
2.7671
2.77026
2.77256
2.77388
2.77474
2.77577
2.77757
2.78134
2.7865
2.79057
2.79205
1
1
1
1
1
1
1
1
1
1
1
1
1
1
1
1
1
1
1
1
1
1
1
1
1
1
1
1
1
1
1
1
1
1
1
1
1
1
1
1
1
1
1
1
1
1
1
1
1
1
1.02601
2.31821
2.67826
2.67956
2.68161
2.6835
2.68566
2.68868
2.6928
2.69788
2.70339
2.70861
2.71285
2.71573
2.71739
2.71842
2.71913
2.71995
2.72156
2.72427
2.72837
2.73342
2.73812
2.74116
2.74217
2.7422
2.74232
2.74317
2.74525
2.74798
2.75002
2.75082
2.75093
2.75128
2.75241
2.75461
2.75709
2.75891
2.75991
2.76043
2.76111
2.76269
2.76631
2.77145
2.77546
2.77688
1
1
1
1
1
1
1
1
1
1
1
1
1
1
1
1
1
1
1
1
1
1
1
1
1
1
1
1
1
1
1
1
1
1
1
1
1
1
1
1
1
1
1
1
1
1
1
1
1
1
1.00005
1.98786
2.64552
2.66353
2.66634
2.66949
2.67229
2.6756
2.67992
2.68545
2.69179
2.69803
2.70316
2.70655
2.7083
2.70913
2.7097
2.71037
2.71168
2.71404
2.7176
2.7222
2.72677
2.72995
2.7311
2.73115
2.73119
2.7317
2.73333
2.73585
2.7378
2.73848
2.73828
2.73805
2.73845
2.73981
2.74174
2.74336
2.74411
2.74422
2.74413
2.7447
2.74652
2.74916
2.7506
2.74985
1
1
1
1
1
1
1
1
1
1
1
1
1
1
1
1
1
1
1
1
1
1
1
1
1
1
1
1
1
1
1
1
1
1
1
1
1
1
1
1
1
1
1
1
1
1
1
1
1
1
1
1.41228
2.47147
2.64496
2.64976
2.65528
2.6589
2.66228
2.66633
2.67173
2.67844
2.68563
2.69206
2.69674
2.69938
2.7005
2.70102
2.70152
2.70238
2.70406
2.70669
2.71025
2.71416
2.7171
2.71834
2.71832
2.7182
2.71843
2.71938
2.72091
2.72226
2.72254
2.72192
2.72088
2.72006
2.71986
2.72003
2.71993
2.71885
2.71645
2.71338
2.71134
2.71132
2.71242
2.71407
2.7141
1
1
1
1
1
1
1
1
1
1
1
1
1
1
1
1
1
1
1
1
1
1
1
1
1
1
1
1
1
1
1
1
1
1
1
1
1
1
1
1
1
1
1
1
1
1
1
1
1
1
1
1.01247
2.09681
2.63737
2.6397
2.64114
2.64352
2.64614
2.64952
2.6544
2.66102
2.66869
2.6762
2.68233
2.68641
2.6886
2.68964
2.69032
2.69107
2.69224
2.69399
2.69636
2.69919
2.70155
2.7026
2.70239
2.7019
2.70166
2.70187
2.70228
2.70259
2.70219
2.70096
2.69905
2.6968
2.69457
2.69254
2.69034
2.68738
2.68324
2.6783
2.67403
2.67147
2.67389
2.67522
2.69129
1
1
1
1
1
1
1
1
1
1
1
1
1
1
1
1
1
1
1
1
1
1
1
1
1
1
1
1
1
1
1
1
1
1
1
1
1
1
1
1
1
1
1
1
1
1
1
1
1
1
1
0.999842
1.50995
2.4937
2.63026
2.63046
2.63341
2.63525
2.63738
2.64072
2.64589
2.65266
2.65999
2.66677
2.67206
2.67563
2.67781
2.67923
2.68036
2.6815
2.68284
2.68444
2.68628
2.68775
2.68826
2.68774
2.68676
2.68587
2.68525
2.68465
2.68384
2.68247
2.68029
2.67724
2.67339
2.66889
2.6639
2.65818
2.65089
2.64101
2.62697
2.60795
2.58024
2.54161
2.48096
2.35388
1
1
1
1
1
1
1
1
1
1
1
1
1
1
1
1
1
1
1
1
1
1
1
1
1
1
1
1
1
1
1
1
1
1
1
1
1
1
1
1
1
1
1
1
1
1
1
1
1
1
1
0.999978
1.03041
2.24532
2.63886
2.63531
2.63382
2.63313
2.6327
2.63337
2.63573
2.64009
2.64577
2.65176
2.65718
2.66159
2.66484
2.66723
2.66909
2.67067
2.6721
2.67345
2.67459
2.67529
2.67514
2.67426
2.67278
2.67126
2.66987
2.66839
2.66659
2.66423
2.66101
2.65676
2.65134
2.64477
2.63684
2.62752
2.61556
2.60032
2.57875
2.55002
2.50751
2.45063
2.34333
2.18199
1
1
1
1
1
1
1
1
1
1
1
1
1
1
1
1
1
1
1
1
1
1
1
1
1
1
1
1
1
1
1
1
1
1
1
1
1
1
1
1
1
1
1
1
1
1
1
1
1
1
1
0.999999
1.00005
1.75838
2.54824
2.62161
2.62551
2.62759
2.62793
2.62823
2.62905
2.63087
2.63388
2.6378
2.64211
2.64638
2.65003
2.65318
2.65585
2.6581
2.65989
2.66126
2.66216
2.66246
2.66199
2.66069
2.65868
2.65639
2.65405
2.65157
2.64869
2.6452
2.64078
2.63527
2.62827
2.61977
2.60915
2.59643
2.58042
2.56049
2.53423
2.49878
2.451
2.38006
2.27546
2.1486
1
1
1
1
1
1
1
1
1
1
1
1
1
1
1
1
1
1
1
1
1
1
1
1
1
1
1
1
1
1
1
1
1
1
1
1
1
1
1
1
1
1
1
1
1
1
1
1
1
1
1
1
1
1.07497
2.31996
2.62226
2.61846
2.61918
2.62187
2.62318
2.62396
2.62447
2.62528
2.6267
2.6289
2.6318
2.63502
2.63809
2.64102
2.64367
2.64579
2.6473
2.64819
2.64833
2.64771
2.64621
2.64383
2.64087
2.6376
2.63407
2.63007
2.62545
2.61981
2.61308
2.60475
2.59469
2.58217
2.56686
2.548
2.52476
2.49579
2.45776
2.40869
2.34238
2.25724
2.15905
1
1
1
1
1
1
1
1
1
1
1
1
1
1
1
1
1
1
1
1
1
1
1
1
1
1
1
1
1
1
1
1
1
1
1
1
1
1
1
1
1
1
1
1
1
1
1
1
1
1
1
1
1
1.00037
1.86465
2.54884
2.59498
2.60327
2.60986
2.61396
2.61633
2.61698
2.61704
2.61712
2.61765
2.61905
2.62134
2.62356
2.62599
2.62837
2.63031
2.63166
2.63249
2.63273
2.63227
2.63094
2.62852
2.62518
2.6211
2.6165
2.61132
2.60549
2.59863
2.59071
2.58129
2.57012
2.55655
2.53991
2.51966
2.49495
2.46501
2.42747
2.38109
2.32479
2.25929
2.18
1
1
1
1
1
1
1
1
1
1
1
1
1
1
1
1
1
1
1
1
1
1
1
1
1
1
1
1
1
1
1
1
1
1
1
1
1
1
1
1
1
1
1
1
1
1
1
1
1
1
1
1
1
1
1.10465
2.31566
2.59806
2.59435
2.59708
2.60144
2.605
2.60696
2.60779
2.60766
2.60758
2.60803
2.60927
2.61072
2.61238
2.61395
2.61507
2.61566
2.61593
2.61607
2.61575
2.61466
2.6124
2.60908
2.60467
2.59939
2.59325
2.58629
2.57828
2.5692
2.55879
2.54677
2.53264
2.51566
2.49534
2.47079
2.44184
2.40662
2.36492
2.3177
2.26352
2.20124
1
1
1
1
1
1
1
1
1
1
1
1
1
1
1
1
1
1
1
1
1
1
1
1
1
1
1
1
1
1
1
1
1
1
1
1
1
1
1
1
1
1
1
1
1
1
1
1
1
1
1
1
1
1
1.00074
1.82894
2.51875
2.57163
2.5799
2.58546
2.58962
2.59235
2.5944
2.59527
2.59578
2.5964
2.59744
2.59882
2.59987
2.60027
2.60005
2.59937
2.59854
2.59805
2.59749
2.59658
2.59472
2.59177
2.58754
2.5821
2.5754
2.56759
2.55866
2.54866
2.53744
2.52476
2.51029
2.49339
2.4739
2.45043
2.42387
2.39202
2.35578
2.31458
2.26938
2.21749
1
1
1
1
1
1
1
1
1
1
1
1
1
1
1
1
1
1
1
1
1
1
1
1
1
1
1
1
1
1
1
1
1
1
1
1
1
1
1
1
1
1
1
1
1
1
1
1
1
1
1
1
1
1
1
1.09253
2.24117
2.57215
2.56712
2.56954
2.57401
2.57773
2.58059
2.5824
2.58331
2.58418
2.58535
2.58704
2.5881
2.58783
2.58688
2.58511
2.58294
2.5812
2.57979
2.57855
2.57676
2.57414
2.57033
2.56521
2.55849
2.55029
2.54076
2.53015
2.51837
2.5052
2.49049
2.47362
2.45499
2.43264
2.40869
2.3807
2.34947
2.31397
2.27623
2.23198
1
1
1
1
1
1
1
1
1
1
1
1
1
1
1
1
1
1
1
1
1
1
1
1
1
1
1
1
1
1
1
1
1
1
1
1
1
1
1
1
1
1
1
1
1
1
1
1
1
1
1
1
1
1
1
1.00056
1.60108
2.4375
2.53629
2.54937
2.55799
2.56318
2.56648
2.56863
2.56934
2.57029
2.57148
2.57307
2.57441
2.57411
2.57306
2.57084
2.56766
2.56461
2.56196
2.55992
2.55789
2.55549
2.55217
2.54757
2.54121
2.53309
2.52345
2.51269
2.50083
2.48765
2.4731
2.45644
2.43828
2.41732
2.39532
2.37049
2.34348
2.31257
2.28092
2.24286
1
1
1
1
1
1
1
1
1
1
1
1
1
1
1
1
1
1
1
1
1
1
1
1
1
1
1
1
1
1
1
1
1
1
1
1
1
1
1
1
1
1
1
1
1
1
1
1
1
1
1
1
1
1
1
1
1.03886
2.07258
2.53724
2.54477
2.54825
2.55186
2.55472
2.55643
2.55711
2.55776
2.55848
2.55945
2.56035
2.56006
2.55912
2.55711
2.55381
2.55007
2.54629
2.54311
2.5404
2.5378
2.53465
2.53041
2.52445
2.51661
2.50719
2.49654
2.48486
2.472
2.45801
2.4419
2.42431
2.40501
2.38394
2.36138
2.33728
2.31023
2.28299
2.25034
1
1
1
1
1
1
1
1
1
1
1
1
1
1
1
1
1
1
1
1
1
1
1
1
1
1
1
1
1
1
1
1
1
1
1
1
1
1
1
1
1
1
1
1
1
1
1
1
1
1
1
1
1
1
1
1
1.00011
1.22012
2.31963
2.54215
2.53918
2.53906
2.5401
2.54138
2.54226
2.54289
2.54341
2.54414
2.54437
2.54386
2.54291
2.54132
2.5385
2.53484
2.53059
2.5268
2.52366
2.52088
2.51768
2.51376
2.50801
2.50044
2.49134
2.48087
2.46957
2.45713
2.444
2.42888
2.4125
2.3948
2.37473
2.35395
2.33169
2.30751
2.2829
2.25493
1
1
1
1
1
1
1
1
1
1
1
1
1
1
1
1
1
1
1
1
1
1
1
1
1
1
1
1
1
1
1
1
1
1
1
1
1
1
1
1
1
1
1
1
1
1
1
1
1
1
1
1
1
1
1
1
1
1.00331
1.76663
2.46713
2.51207
2.51762
2.52191
2.52442
2.52602
2.52727
2.52786
2.52829
2.52805
2.52715
2.52619
2.52495
2.52274
2.51951
2.51541
2.51153
2.50839
2.50528
2.50184
2.49776
2.49204
2.48503
2.47623
2.46607
2.45512
2.44302
2.43068
2.41662
2.40174
2.38564
2.36712
2.34805
2.32728
2.30543
2.28279
2.25854
1
1
1
1
1
1
1
1
1
1
1
1
1
1
1
1
1
1
1
1
1
1
1
1
1
1
1
1
1
1
1
1
1
1
1
1
1
1
1
1
1
1
1
1
1
1
1
1
1
1
1
1
1
1
1
1
1
1
1.0721
2.08532
2.49866
2.51009
2.51171
2.51338
2.51455
2.51522
2.5152
2.51464
2.51362
2.51235
2.511
2.50954
2.50736
2.50429
2.50049
2.49669
2.4938
2.49067
2.48703
2.48276
2.4774
2.47025
2.4618
2.45211
2.44146
2.42965
2.4179
2.40479
2.39133
2.3767
2.36007
2.34279
2.32371
2.30377
2.28273
2.26106
1
1
1
1
1
1
1
1
1
1
1
1
1
1
1
1
1
1
1
1
1
1
1
1
1
1
1
1
1
1
1
1
1
1
1
1
1
1
1
1
1
1
1
1
1
1
1
1
1
1
1
1
1
1
1
1
1
1
1.00036
1.22487
2.25098
2.49315
2.49986
2.50031
2.49996
2.50033
2.50009
2.49951
2.49871
2.49757
2.49604
2.49411
2.4918
2.48893
2.48564
2.48231
2.47967
2.47672
2.47296
2.46851
2.463
2.45606
2.44782
2.43849
2.42838
2.41709
2.40584
2.3936
2.38119
2.36768
2.3529
2.33715
2.31997
2.30177
2.28263
2.26296
1
1
1
1
1
1
1
1
1
1
1
1
1
1
1
1
1
1
1
1
1
1
1
1
1
1
1
1
1
1
1
1
1
1
1
1
1
1
1
1
1
1
1
1
1
1
1
1
1
1
1
1
1
1
1
1
1
1
1
1.00348
1.54852
2.35712
2.47999
2.47624
2.4783
2.47971
2.48087
2.48187
2.48244
2.48208
2.48104
2.4792
2.47685
2.47435
2.47158
2.46868
2.4661
2.46323
2.45932
2.45481
2.44928
2.44266
2.43494
2.42594
2.41615
2.40542
2.3946
2.3832
2.3715
2.35891
2.3456
2.33114
2.31579
2.29921
2.2821
2.26376
1
1
1
1
1
1
1
1
1
1
1
1
1
1
1
1
1
1
1
1
1
1
1
1
1
1
1
1
1
1
1
1
1
1
1
1
1
1
1
1
1
1
1
1
1
1
1
1
1
1
1
1
1
1
1
1
1
1
1
1
1.02924
1.88527
2.43439
2.46199
2.45801
2.45981
2.46205
2.46435
2.46598
2.46606
2.46549
2.46408
2.46193
2.45965
2.45729
2.4546
2.4521
2.44921
2.44541
2.44098
2.43561
2.4293
2.42212
2.41378
2.40432
2.39424
2.38396
2.37331
2.36216
2.3504
2.33803
2.32459
2.31073
2.29569
2.28046
2.26344
1
1
1
1
1
1
1
1
1
1
1
1
1
1
1
1
1
1
1
1
1
1
1
1
1
1
1
1
1
1
1
1
1
1
1
1
1
1
1
1
1
1
1
1
1
1
1
1
1
1
1
1
1
1
1
1
1
1
1
1
1.00008
1.11757
2.03428
2.4286
2.44905
2.45091
2.4524
2.45283
2.45289
2.45246
2.45142
2.44983
2.44775
2.4455
2.44332
2.44064
2.43806
2.435
2.43133
2.42706
2.42199
2.41611
2.40947
2.40186
2.39301
2.38354
2.37385
2.3638
2.35316
2.34208
2.33039
2.31789
2.30518
2.29158
2.27774
2.26209
1
1
1
1
1
1
1
1
1
1
1
1
1
1
1
1
1
1
1
1
1
1
1
1
1
1
1
1
1
1
1
1
1
1
1
1
1
1
1
1
1
1
1
1
1
1
1
1
1
1
1
1
1
1
1
1
1
1
1
1
1
1.00096
1.20883
2.10754
2.40992
2.44224
2.44336
2.44277
2.44191
2.44064
2.439
2.43696
2.43454
2.43201
2.42942
2.42649
2.42354
2.42026
2.41665
2.41259
2.40785
2.40239
2.39621
2.38924
2.38119
2.37245
2.36353
2.3542
2.34422
2.3338
2.32276
2.31109
2.29928
2.28685
2.27405
2.25966
1
1
1
1
1
1
1
1
1
1
1
1
1
1
1
1
1
1
1
1
1
1
1
1
1
1
1
1
1
1
1
1
1
1
1
1
1
1
1
1
1
1
1
1
1
1
1
1
1
1
1
1
1
1
1
1
1
1
1
1
1
1
1.00301
1.29316
2.1598
2.40108
2.42471
2.42809
2.42806
2.42759
2.42637
2.42445
2.42204
2.41951
2.41667
2.41346
2.41004
2.40643
2.40262
2.39848
2.3938
2.38848
2.38253
2.37596
2.36856
2.3605
2.35224
2.34356
2.33428
2.32463
2.31454
2.30397
2.29314
2.28178
2.26996
2.25666
1
1
1
1
1
1
1
1
1
1
1
1
1
1
1
1
1
1
1
1
1
1
1
1
1
1
1
1
1
1
1
1
1
1
1
1
1
1
1
1
1
1
1
1
1
1
1
1
1
1
1
1
1
1
1
1
1
1
1
1
1
1
1
1.00632
1.37778
2.19894
2.38673
2.40239
2.40847
2.41084
2.41095
2.41043
2.40909
2.4071
2.40443
2.40133
2.39786
2.39403
2.38989
2.38542
2.38047
2.37495
2.36891
2.3624
2.35525
2.34762
2.33979
2.33159
2.32309
2.31442
2.30556
2.29624
2.28645
2.27611
2.26533
2.25306
1
1
1
1
1
1
1
1
1
1
1
1
1
1
1
1
1
1
1
1
1
1
1
1
1
1
1
1
1
1
1
1
1
1
1
1
1
1
1
1
1
1
1
1
1
1
1
1
1
1
1
1
1
1
1
1
1
1
1
1
1
1
1
1.00001
1.01157
1.45264
2.22741
2.37158
2.38144
2.38762
2.39062
2.39278
2.39288
2.39209
2.39047
2.38832
2.3855
2.38197
2.37792
2.37337
2.36824
2.3625
2.35623
2.34954
2.34241
2.33495
2.32729
2.31948
2.31167
2.30375
2.29584
2.28761
2.27879
2.26946
2.2598
2.24868
1
1
1
1
1
1
1
1
1
1
1
1
1
1
1
1
1
1
1
1
1
1
1
1
1
1
1
1
1
1
1
1
1
1
1
1
1
1
1
1
1
1
1
1
1
1
1
1
1
1
1
1
1
1
1
1
1
1
1
1
1
1
1
1
1.00003
1.01841
1.52854
2.24738
2.3604
2.36301
2.36648
2.3694
2.37134
2.37267
2.37279
2.37216
2.37055
2.36813
2.36499
2.36105
2.35623
2.35069
2.34449
2.33786
2.33079
2.32336
2.31567
2.30791
2.30029
2.2927
2.28532
2.27787
2.2699
2.26153
2.253
2.24313
1
1
1
1
1
1
1
1
1
1
1
1
1
1
1
1
1
1
1
1
1
1
1
1
1
1
1
1
1
1
1
1
1
1
1
1
1
1
1
1
1
1
1
1
1
1
1
1
1
1
1
1
1
1
1
1
1
1
1
1
1
1
1
1
1
1.00005
1.02771
1.59193
2.25811
2.34901
2.34838
2.34856
2.34922
2.3502
2.35122
2.35194
2.35188
2.35119
2.34948
2.34664
2.34288
2.33829
2.33288
2.32674
2.31998
2.31277
2.30518
2.29746
2.28986
2.28231
2.27502
2.26788
2.26044
2.25281
2.24517
2.23648
1
1
1
1
1
1
1
1
1
1
1
1
1
1
1
1
1
1
1
1
1
1
1
1
1
1
1
1
1
1
1
1
1
1
1
1
1
1
1
1
1
1
1
1
1
1
1
1
1
1
1
1
1
1
1
1
1
1
1
1
1
1
1
1
1
1
1.0001
1.03846
1.61654
2.25751
2.3376
2.33558
2.3337
2.33227
2.33131
2.33122
2.33117
2.33106
2.33058
2.32944
2.32739
2.32425
2.32004
2.31487
2.30885
2.30224
2.2952
2.28791
2.28053
2.27303
2.26567
2.25853
2.2513
2.24407
2.23688
2.22896
1
1
1
1
1
1
1
1
1
1
1
1
1
1
1
1
1
1
1
1
1
1
1
1
1
1
1
1
1
1
1
1
1
1
1
1
1
1
1
1
1
1
1
1
1
1
1
1
1
1
1
1
1
1
1
1
1
1
1
1
1
1
1
1
1
1
1
1.00017
1.04405
1.6129
2.24702
2.32602
2.32328
2.31981
2.31708
2.31451
2.31258
2.31133
2.31055
2.30989
2.30894
2.30729
2.30467
2.301
2.29634
2.29088
2.28485
2.27842
2.27169
2.26462
2.25744
2.25034
2.24319
2.23608
2.22891
2.22126
1
1
1
1
1
1
1
1
1
1
1
1
1
1
1
1
1
1
1
1
1
1
1
1
1
1
1
1
1
1
1
1
1
1
1
1
1
1
1
1
1
1
1
1
1
1
1
1
1
1
1
1
1
1
1
1
1
1
1
1
1
1
1
1
1
1
1
1
1.00021
1.04384
1.59613
2.22835
2.31307
2.31046
2.30619
2.30223
2.29879
2.29586
2.29336
2.29144
2.28998
2.2886
2.2869
2.28456
2.28143
2.27749
2.27286
2.26768
2.26201
2.2558
2.24927
2.24261
2.23577
2.22883
2.22157
2.21394
1
1
1
1
1
1
1
1
1
1
1
1
1
1
1
1
1
1
1
1
1
1
1
1
1
1
1
1
1
1
1
1
1
1
1
1
1
1
1
1
1
1
1
1
1
1
1
1
1
1
1
1
1
1
1
1
1
1
1
1
1
1
1
1
1
1
1
1
1
1.00022
1.04071
1.57084
2.1999
2.29866
2.29709
2.29284
2.289
2.28474
2.28091
2.27749
2.27429
2.2715
2.26917
2.26711
2.26489
2.26218
2.25879
2.25476
2.25021
2.24517
2.23979
2.23409
2.228
2.22151
2.21442
2.20696
1
1
1
1
1
1
1
1
1
1
1
1
1
1
1
1
1
1
1
1
1
1
1
1
1
1
1
1
1
1
1
1
1
1
1
1
1
1
1
1
1
1
1
1
1
1
1
1
1
1
1
1
1
1
1
1
1
1
1
1
1
1
1
1
1
1
1
1
1
1
1.00019
1.03592
1.52781
2.15756
2.28008
2.28541
2.28022
2.27621
2.27204
2.26766
2.26315
2.25878
2.25502
2.25205
2.24949
2.24693
2.24405
2.24074
2.23699
2.23282
2.22836
2.22362
2.21849
2.21282
2.20647
2.1996
1
1
1
1
1
1
1
1
1
1
1
1
1
1
1
1
1
1
1
1
1
1
1
1
1
1
1
1
1
1
1
1
1
1
1
1
1
1
1
1
1
1
1
1
1
1
1
1
1
1
1
1
1
1
1
1
1
1
1
1
1
1
1
1
1
1
1
1
1
1
1
1.00016
1.02914
1.46686
2.10196
2.25911
2.27147
2.2669
2.26319
2.25916
2.25474
2.24976
2.24497
2.241
2.23763
2.23437
2.23095
2.22729
2.22345
2.2195
2.21549
2.21134
2.20696
2.20209
2.19665
2.19073
1
1
1
1
1
1
1
1
1
1
1
1
1
1
1
1
1
1
1
1
1
1
1
1
1
1
1
1
1
1
1
1
1
1
1
1
1
1
1
1
1
1
1
1
1
1
1
1
1
1
1
1
1
1
1
1
1
1
1
1
1
1
1
1
1
1
1
1
1
1
1
1
1.00012
1.02086
1.39195
2.01688
2.23036
2.25925
2.25282
2.24944
2.24597
2.24224
2.23829
2.23416
2.22997
2.22563
2.22114
2.21655
2.21196
2.20753
2.20321
2.19901
2.19474
2.1902
2.18544
2.18034
1
1
1
1
1
1
1
1
1
1
1
1
1
1
1
1
1
1
1
1
1
1
1
1
1
1
1
1
1
1
1
1
1
1
1
1
1
1
1
1
1
1
1
1
1
1
1
1
1
1
1
1
1
1
1
1
1
1
1
1
1
1
1
1
1
1
1
1
1
1
1
1
1
1.00007
1.01341
1.30023
1.89715
2.19506
2.24118
2.23748
2.23604
2.23396
2.23117
2.22765
2.2236
2.21896
2.21387
2.20852
2.20321
2.19808
2.19311
2.1883
2.18355
2.1789
2.17419
2.16933
1
1
1
1
1
1
1
1
1
1
1
1
1
1
1
1
1
1
1
1
1
1
1
1
1
1
1
1
1
1
1
1
1
1
1
1
1
1
1
1
1
1
1
1
1
1
1
1
1
1
1
1
1
1
1
1
1
1
1
1
1
1
1
1
1
1
1
1
1
1
1
1
1
1
1.00004
1.00741
1.20036
1.76438
2.14834
2.22001
2.22106
2.22074
2.21946
2.21727
2.21417
2.21022
2.20558
2.20051
2.19532
2.19007
2.18476
2.17948
2.17435
2.16926
2.16418
2.15922
1
1
1
1
1
1
1
1
1
1
1
1
1
1
1
1
1
1
1
1
1
1
1
1
1
1
1
1
1
1
1
1
1
1
1
1
1
1
1
1
1
1
1
1
1
1
1
1
1
1
1
1
1
1
1
1
1
1
1
1
1
1
1
1
1
1
1
1
1
1
1
1
1
1
1
1.00002
1.00335
1.11827
1.62361
2.09574
2.18796
2.20874
2.20248
2.20196
2.20051
2.19797
2.19457
2.19069
2.18634
2.1816
2.17662
2.17152
2.1663
2.16099
2.15586
2.15065
1
1
1
1
1
1
1
1
1
1
1
1
1
1
1
1
1
1
1
1
1
1
1
1
1
1
1
1
1
1
1
1
1
1
1
1
1
1
1
1
1
1
1
1
1
1
1
1
1
1
1
1
1
1
1
1
1
1
1
1
1
1
1
1
1
1
1
1
1
1
1
1
1
1
1
1
1.00001
1.0013
1.06066
1.49218
2.00468
2.16323
2.19328
2.18797
2.18586
2.18376
2.1813
2.17821
2.17474
2.17104
2.16701
2.16248
2.15768
2.15288
2.14789
2.14271
1
1
1
1
1
1
1
1
1
1
1
1
1
1
1
1
1
1
1
1
1
1
1
1
1
1
1
1
1
1
1
1
1
1
1
1
1
1
1
1
1
1
1
1
1
1
1
1
1
1
1
1
1
1
1
1
1
1
1
1
1
1
1
1
1
1
1
1
1
1
1
1
1
1
1
1
1
1
1.00043
1.02837
1.3534
1.8801
2.1323
2.17617
2.17369
2.16992
2.16697
2.16437
2.16161
2.15875
2.15557
2.15193
2.1481
2.14385
2.13912
2.13452
1
1
1
1
1
1
1
1
1
1
1
1
1
1
1
1
1
1
1
1
1
1
1
1
1
1
1
1
1
1
1
1
1
1
1
1
1
1
1
1
1
1
1
1
1
1
1
1
1
1
1
1
1
1
1
1
1
1
1
1
1
1
1
1
1
1
1
1
1
1
1
1
1
1
1
1
1
1
1
1.00013
1.01179
1.2179
1.72245
2.0876
2.15003
2.16074
2.15459
2.15125
2.14892
2.14655
2.1437
2.14074
2.13753
2.13374
2.12961
2.12532
1
1
1
1
1
1
1
1
1
1
1
1
1
1
1
1
1
1
1
1
1
1
1
1
1
1
1
1
1
1
1
1
1
1
1
1
1
1
1
1
1
1
1
1
1
1
1
1
1
1
1
1
1
1
1
1
1
1
1
1
1
1
1
1
1
1
1
1
1
1
1
1
1
1
1
1
1
1
1
1
1.00003
1.00418
1.10937
1.56061
2.00204
2.12232
2.14662
2.14221
2.13832
2.13495
2.13187
2.12911
2.1261
2.12314
2.11973
2.11525
1
1
1
1
1
1
1
1
1
1
1
1
1
1
1
1
1
1
1
1
1
1
1
1
1
1
1
1
1
1
1
1
1
1
1
1
1
1
1
1
1
1
1
1
1
1
1
1
1
1
1
1
1
1
1
1
1
1
1
1
1
1
1
1
1
1
1
1
1
1
1
1
1
1
1
1
1
1
1
1
1
1.00001
1.0012
1.04604
1.39573
1.86642
2.09371
2.13341
2.13125
2.12433
2.11934
2.11674
2.11461
2.11269
2.10997
2.10567
1
1
1
1
1
1
1
1
1
1
1
1
1
1
1
1
1
1
1
1
1
1
1
1
1
1
1
1
1
1
1
1
1
1
1
1
1
1
1
1
1
1
1
1
1
1
1
1
1
1
1
1
1
1
1
1
1
1
1
1
1
1
1
1
1
1
1
1
1
1
1
1
1
1
1
1
1
1
1
1
1
1
1
1.00028
1.01681
1.23074
1.69971
2.04006
2.10551
2.11588
2.1108
2.10707
2.10464
2.10228
2.10022
2.09735
1
1
1
1
1
1
1
1
1
1
1
1
1
1
1
1
1
1
1
1
1
1
1
1
1
1
1
1
1
1
1
1
1
1
1
1
1
1
1
1
1
1
1
1
1
1
1
1
1
1
1
1
1
1
1
1
1
1
1
1
1
1
1
1
1
1
1
1
1
1
1
1
1
1
1
1
1
1
1
1
1
1
1
1
1.00006
1.00501
1.10661
1.51522
1.92987
2.0821
2.10504
2.0991
2.093
2.08942
2.08939
2.08903
1
1
1
1
1
1
1
1
1
1
1
1
1
1
1
1
1
1
1
1
1
1
1
1
1
1
1
1
1
1
1
1
1
1
1
1
1
1
1
1
1
1
1
1
1
1
1
1
1
1
1
1
1
1
1
1
1
1
1
1
1
1
1
1
1
1
1
1
1
1
1
1
1
1
1
1
1
1
1
1
1
1
1
1
1
1.00001
1.00119
1.03797
1.33299
1.76648
2.03566
2.09109
2.08949
2.08132
2.07495
2.07438
1
1
1
1
1
1
1
1
1
1
1
1
1
1
1
1
1
1
1
1
1
1
1
1
1
1
1
1
1
1
1
1
1
1
1
1
1
1
1
1
1
1
1
1
1
1
1
1
1
1
1
1
1
1
1
1
1
1
1
1
1
1
1
1
1
1
1
1
1
1
1
1
1
1
1
1
1
1
1
1
1
1
1
1
1
1
1
1.00021
1.01212
1.16323
1.58193
1.93939
2.0613
2.08104
2.07358
2.06367
1
1
1
1
1
1
1
1
1
1
1
1
1
1
1
1
1
1
1
1
1
1
1
1
1
1
1
1
1
1
1
1
1
1
1
1
1
1
1
1
1
1
1
1
1
1
1
1
1
1
1
1
1
1
1
1
1
1
1
1
1
1
1
1
1
1
1
1
1
1
1
1
1
1
1
1
1
1
1
1
1
1
1
1
1
1
1
1
1.00004
1.00268
1.06156
1.38335
1.78186
2.0203
2.06459
2.06221
1
1
1
1
1
1
1
1
1
1
1
1
1
1
1
1
1
1
1
1
1
1
1
1
1
1
1
1
1
1
1
1
1
1
1
1
1
1
1
1
1
1
1
1
1
1
1
1
1
1
1
1
1
1
1
1
1
1
1
1
1
1
1
1
1
1
1
1
1
1
1
1
1
1
1
1
1
1
1
1
1
1
1
1
1
1
1
1
1
1
1.00048
1.01828
1.19362
1.59557
1.93003
2.03462
1
1
1
1
1
1
1
1
1
1
1
1
1
1
1
1
1
1
1
1
1
1
1
1
1
1
1
1
1
1
1
1
1
1
1
1
1
1
1
1
1
1
1
1
1
1
1
1
1
1
1
1
1
1
1
1
1
1
1
1
1
1
1
1
1
1
1
1
1
1
1
1
1
1
1
1
1
1
1
1
1
1
1
1
1
1
1
1
1
1
1
1.00007
1.00393
1.07199
1.38768
1.80347
1
1
1
1
1
1
1
1
1
1
1
1
1
1
1
1
1
1
1
1
1
1
1
1
1
1
1
1
1
1
1
1
1
1
1
1
1
1
1
1
1
1
1
1
1
1
1
1
1
1
1
1
1
1
1
1
1
1
1
1
1
1
1
1
1
1
1
1
1
1
1
1
1
1
1
1
1
1
1
1
1
1
1
1
1
1
1
1
1
1
1
1
1.00001
1.00066
1.0196
1.21055
1
1
1
1
1
1
1
1
1
1
1
1
1
1
1
1
1
1
1
1
1
1
1
1
1
1
1
1
1
1
1
1
1
1
1
1
1
1
1
1
1
1
1
1
1
1
1
1
1
1
1
1
1
1
1
1
1
1
1
1
1
1
1
1
1
1
1
1
1
1
1
1
1
1
1
1
1
1
1
1
1
1
1
1
1
1
1
1
1
1
1
1
1
1
1.00009
1.00424
1
1
1
1
1
1
1
1
1
1
1
1
1
1
1
1
1
1
1
1
1
1
1
1
1
1
1
1
1
1
1
1
1
1
1
1
1
1
1
1
1
1
1
1
1
1
1
1
1
1
1
1
1
1
1
1
1
1
1
1
1
1
1
1
1
1
1
1
1
1
1
1
1
1
1
1
1
1
1
1
1
1
1
1
1
1
1
1
1
1
1
1
1
1
1
1.00001
1
1
1
1
1
1
1
1
1
1
1
1
1
1
1
1
1
1
1
1
1
1
1
1
1
1
1
1
1
1
1
1
1
1
1
1
1
1
1
1
1
1
1
1
1
1
1
1
1
1
1
1
1
1
1
1
1
1
1
1
1
1
1
1
1
1
1
1
1
1
1
1
1
1
1
1
1
1
1
1
1
1
1
1
1
1
1
1
1
1
1
1
1
1
1
1
1
1
1
1
1
1
1
1
1
1
1
1
1
1
1
1
1
1
1
1
1
1
1
1
1
1
1
1
1
1
1
1
1
1
1
1
1
1
1
1
1
1
1
1
1
1
1
1
1
1
1
1
1
1
1
1
1
1
1
1
1
1
1
1
1
1
1
1
1
1
1
1
1
1
1
1
1
1
1
1
1
1
1
1
1
1
1
1
1
1
1
1
1
1
1
1
1
1
1
1
1
1
1
1
1
1
1
1
1
1
1
1
1
1
1
1
1
1
1
1
1
1
1
1
1
1
1
1
1
1
1
1
1
1
1
1
1
1
1
1
1
1
1
1
1
1
1
1
1
1
1
1
1
1
1
1
1
1
1
1
1
1
1
1
1
1
1
1
1
1
1
1
1
1
1
1
1
1
1
1
1
1
1
1
1
1
1
1
1
1
1
1
1
1
1
1
1
1
1
1
1
1
1
1
1
1
1
1
1
1
1
1
1
1
1
1
1
1
1
1
1
1
1
1
1
1
1
1
1
1
1
1
1
1
1
1
1
1
1
1
1
1
1
1
1
1
1
1
1
1
1
1
1
1
1
1
1
1
1
1
1
1
1
1
1
1
1
1
1
1
1
1
1
1
1
1
1
1
1
1
1
1
1
1
1
1
1
1
1
1
1
1
1
1
1
1
1
1
1
1
1
1
1
1
1
1
1
1
1
1
1
1
1
1
1
1
1
1
1
1
1
1
1
1
1
1
1
1
1
1
1
1
1
1
1
1
1
1
1
1
1
1
1
1
1
1
1
1
1
1
1
1
1
1
1
1
1
1
1
1
1
1
1
1
1
1
1
1
1
1
1
1
1
1
1
1
1
1
1
1
1
1
1
1
1
1
1
1
1
1
1
1
1
1
1
1
1
1
1
1
1
1
1
1
1
1
1
1
1
1
1
1
1
1
1
1
1
1
1
1
1
1
1
1
1
1
1
1
1
1
1
1
1
1
1
1
1
1
1
1
1
1
1
1
1
1
1
1
1
1
1
1
1
1
1
1
1
1
1
1
1
1
1
1
1
1
1
1
1
1
1
1
1
1
1
1
1
1
1
1
1
1
1
1
1
1
1
1
1
1
1
1
1
1
1
1
1
1
1
1
1
1
1
1
1
1
1
1
1
1
1
1
1
1
1
1
1
1
1
1
1
1
1
1
1
1
1
1
1
1
1
1
1
1
1
1
1
1
1
1
1
1
1
1
1
1
1
1
1
1
1
1
1
1
1
1
1
1
1
1
1
1
1
1
1
1
1
1
1
1
1
1
1
1
1
1
1
1
1
1
1
1
1
1
1
1
1
1
1
1
1
1
1
1
1
1
1
1
1
1
1
1
1
1
1
1
1
1
1
1
1
1
1
1
1
1
1
1
1
1
1
1
1
1
1
1
1
1
1
1
1
1
1
1
1
1
1
1
1
1
1
1
1
1
1
1
1
1
1
1
1
1
1
1
1
1
1
1
1
1
1
1
1
1
1
1
1
1
1
1
1
1
1
1
1
1
1
1
1
1
1
1
1
1
1
1
1
1
1
1
1
1
1
1
1
1
1
1
1
1
1
1
1
1
1
1
1
1
1
1
1
1
1
1
1
1
1
1
1
1
1
1
1
1
1
1
1
1
1
1
1
1
1
1
1
1
1
1
1
1
1
1
1
1
1
1
1
1
1
1
1
1
1
1
1
1
1
1
1
1
1
1
1
1
1
1
1
1
1
1
1
1
1
1
1
1
1
1
1
1
1
1
1
1
1
1
1
1
1
1
1
1
1
1
1
1
1
1
1
1
1
1
1
1
1
1
1
1
1
1
1
1
1
1
1
1
1
1
1
1
1
1
1
1
1
1
1
1
1
1
1
1
1
1
1
1
1
1
1
1
1
1
1
1
1
1
1
1
1
1
1
1
1
1
1
1
1
1
1
1
1
1
1
1
1
1
1
1
1
1
1
1
1
1
1
1
1
1
1
1
1
1
1
1
1
1
1
1
1
1
1
1
1
1
1
1
1
1
1
1
1
1
1
1
1
1
1
1
1
1
1
1
1
1
1
1
1
1
1
1
1
1
1
1
1
1
1
1
1
1
1
1
1
1
1
1
1
1
1
1
1
1
1
1
1
1
1
1
1
1
1
1
1
1
1
1
1
1
1
1
1
1
1
1
1
1
1
1
1
1
1
1
1
1
1
1
1
1
1
1
1
1
1
1
1
1
1
1
1
1
1
1
1
1
1
1
1
1
1
1
1
1
1
1
1
1
1
1
1
1
1
1
1
1
1
1
1
1
1
1
1
1
1
1
1
1
1
1
1
1
1
1
1
1
1
1
1
1
1
1
1
1
1
1
1
1
1
1
1
1
1
1
1
1
1
1
1
1
1
1
1
1
1
1
1
1
1
1
1
1
1
1
1
1
1
1
1
1
1
1
1
1
1
1
1
1
1
1
1
1
1
1
1
1
1
1
1
1
1
1
1
1
1
1
1
1
1
1
1
1
1
1
1
1
1
1
1
1
1
1
1
1
1
1
1
1
1
1
1
1
1
1
1
1
1
1
1
1
1
1
1
1
1
1
1
1
1
1
1
1
1
1
1
1
1
1
1
1
1
1
1
1
1
1
1
1
1
1
1
1
1
1
1
1
1
1
1
1
1
1
1
1
1
1
1
1
1
1
1
1
1
1
1
1
1
1
1
1
1
1
1
1
1
1
1
1
1
1
1
1
1
1
1
1
1
1
1
1
1
1
1
1
1
1
1
1
1
1
1
1
1
1
1
1
1
1
1
1
1
1
1
1
1
1
1
1
1
1
1
1
1
1
1
1
1
1
1
1
1
1
1
1
1
1
1
1
1
1
1
1
1
1
1
1
1
1
1
1
1
1
1
1
1
1
1
1
1
1
1
1
1
1
1
1
1
1
1
1
1
1
1
1
1
1
1
1
1
1
1
1
1
1
1
1
1
1
1
1
1
1
1
1
1
1
1
1
1
1
1
1
1
1
1
1
1
1
1
1
1
1
1
1
1
1
1
1
1
1
1
1
1
1
1
1
1
1
1
1
1
1
1
1
1
1
1
1
1
1
1
1
1
1
1
1
1
1
1
1
1
1
1
1
1
1
1
1
1
1
1
1
1
1
1
1
1
1
1
1
1
1
1
1
1
1
1
1
1
1
1
1
1
1
1
1
1
1
1
1
1
1
1
1
1
1
1
1
1
1
1
1
1
1
1
1
1
1
1
1
1
1
1.51585
0.962993
0.58855
0.453784
0.666484
0.86346
1.01537
1.09448
1.2027
1.35554
1.41391
1.41653
1.41013
1.39938
1.39585
1.43134
1.52122
1.59689
1.62749
1.62195
1.60501
1.59159
1.58948
1.59454
1.60882
1.61235
1.60685
1.60566
1.60919
1.62073
1.63875
1.66084
1.67219
1.6723
1.66905
1.66191
1.66053
1.66213
1.6654
1.66576
1.66388
1.66116
1.66133
1.6653
1.67037
1.67272
1.67282
1.67179
1.66863
1.66451
1.661
1.65926
1.65963
1.66175
1.66189
1.66052
1.65881
1.65664
1.65566
1.65568
1.65605
1.65752
1.65916
1.65994
1.66008
1.65963
1.65821
1.65656
1.65555
1.65497
1.65486
1.65525
1.65479
1.65628
1.67863
1.85382
2.49582
2.82243
2.80179
2.75928
2.71153
2.67565
2.65767
2.64523
2.62915
2.60828
2.58923
2.57762
2.57378
2.57074
2.56376
2.55356
2.54072
2.52747
2.5154
2.5051
2.49589
2.48731
2.47841
2.46866
2.45833
2.44849
2.43924
2.42861
2.41775
2.40741
2.39742
2.38802
2.37995
2.37301
2.36573
2.35867
2.35133
2.34331
2.33518
2.32796
2.32205
2.31727
2.31321
2.30929
2.30492
2.29961
2.29313
2.28566
2.27818
2.27215
2.26629
2.26001
2.2532
2.24571
2.23795
2.22977
2.2209
2.21166
2.20368
2.19748
2.19187
2.18644
2.18107
2.17565
2.17034
2.16479
2.15857
2.15166
2.14424
2.13712
2.1311
2.12611
2.12176
2.11778
2.11405
2.11049
2.10696
2.10339
2.09965
2.09579
2.09187
2.08771
2.08326
2.07828
2.07219
2.0639
2.05318
2.04363
2.03803
2.03461
2.03167
2.02876
2.02591
2.02273
2.01919
2.01491
2.00902
2.00101
1.99211
1.98518
1.98038
1.97651
1.97313
1.97016
1.96743
1.96453
1.96068
1.9551
1.94834
1.94227
1.93821
1.93546
1.93302
1.93016
1.92743
1.92178
1.76374
1.4179
1.22294
1.14173
1.07094
0.985402
0.971566
0.986094
1.03258
1.06933
1.09502
1.11891
1.13272
1.15602
1.19542
1.24272
1.30736
1.3641
1.39818
1.43225
1.46414
1.48896
1.50459
1.51806
1.53669
1.55564
1.56123
1.5668
1.57376
1.58079
1.59159
1.60845
1.62234
1.62466
1.62414
1.62386
1.62519
1.62931
1.63573
1.63976
1.63957
1.63855
1.63926
1.64304
1.64721
1.64961
1.65002
1.64963
1.64785
1.645
1.64258
1.64202