/*--------------------------------*- C++ -*----------------------------------*\
  =========                 |
  \\      /  F ield         | OpenFOAM: The Open Source CFD Toolbox
   \\    /   O peration     | Website:  https://openfoam.org
    \\  /    A nd           | Version:  7
     \\/     M anipulation  |
\*---------------------------------------------------------------------------*/
FoamFile
{
    version     2.0;
    format      ascii;
    class       volVectorField;
    location    "2.4";
    object      U;
}
// * * * * * * * * * * * * * * * * * * * * * * * * * * * * * * * * * * * * * //

dimensions      [0 1 -1 0 0 0 0];

internalField   nonuniform List<vector> 
19968
(
(3 6.29585e-17 0)
(3 9.60764e-17 0)
(3 4.79441e-16 0)
(3 6.00141e-16 0)
(3 2.07235e-16 0)
(3 2.80023e-16 0)
(3 5.94811e-16 0)
(3 3.27093e-16 0)
(3 -2.44682e-17 0)
(3 -1.54038e-16 0)
(3 -2.11444e-16 0)
(3 -3.8469e-16 0)
(3 -2.24309e-16 0)
(3 2.12659e-16 0)
(3 4.84703e-16 0)
(3 5.86505e-16 0)
(3 2.87115e-16 0)
(3 4.54248e-16 0)
(3 6.26711e-16 0)
(3 1.22645e-15 0)
(3 1.42857e-15 0)
(3 1.09615e-15 0)
(3 3.98943e-16 0)
(3 5.64258e-17 0)
(3 -2.09079e-16 0)
(3 4.29187e-17 0)
(3 -2.35722e-17 0)
(3 -3.58574e-16 0)
(3 8.63201e-18 0)
(3 5.13271e-16 0)
(3 1.3585e-15 0)
(3 1.28127e-15 0)
(3 1.25241e-15 0)
(3 1.17514e-15 0)
(3 5.7288e-16 0)
(3 -3.95341e-16 0)
(3 -8.74754e-16 0)
(3 -1.16962e-15 0)
(3 -9.13447e-16 0)
(3 -5.97796e-16 0)
(3 -7.12626e-16 0)
(3 -6.06453e-16 0)
(3 -3.73691e-16 0)
(3 -5.96046e-17 0)
(3 1.68458e-16 0)
(3 1.31688e-16 0)
(3 -1.87835e-16 0)
(3 -7.07402e-16 0)
(3 -2.94792e-16 0)
(1.9061 0.00686197 0)
(0.806639 0.0109048 0)
(0.736866 0.00504334 0)
(0.727907 0.00662874 0)
(0.716089 0.00704445 0)
(0.70406 0.0080017 0)
(0.690268 0.00917755 0)
(0.67505 0.0105364 0)
(0.658233 0.0115629 0)
(0.640256 0.0116716 0)
(0.622029 0.0107214 0)
(0.604481 0.00936546 0)
(0.588108 0.00846143 0)
(0.573076 0.00824748 0)
(0.559233 0.00857755 0)
(0.545945 0.00933368 0)
(0.532206 0.0103247 0)
(0.517224 0.0109391 0)
(0.50118 0.0106222 0)
(0.484762 0.0100427 0)
(0.46802 0.0100304 0)
(0.451057 0.0102821 0)
(0.434481 0.0104189 0)
(0.418601 0.0105509 0)
(0.403209 0.010705 0)
(0.388043 0.0107316 0)
(0.372788 0.0108319 0)
(0.356905 0.0112011 0)
(0.339947 0.0115963 0)
(0.32218 0.011638 0)
(0.304426 0.011342 0)
(0.287304 0.0110254 0)
(0.271038 0.010833 0)
(0.25557 0.0107761 0)
(0.240573 0.0108958 0)
(0.225495 0.0111736 0)
(0.209716 0.0115093 0)
(0.192856 0.0118484 0)
(0.174815 0.0122723 0)
(0.155692 0.0127129 0)
(0.135841 0.0131311 0)
(0.115626 0.0135758 0)
(0.0945871 0.0139368 0)
(0.0740324 0.0143078 0)
(0.0531275 0.0146888 0)
(0.0319532 0.0148604 0)
(0.0107257 0.0150809 0)
(3 5.31662e-17 0)
(3 2.23791e-16 0)
(3 5.65831e-16 0)
(3 6.81612e-16 0)
(3 7.23226e-16 0)
(3 8.17329e-16 0)
(3 1.26419e-15 0)
(3 1.21785e-15 0)
(3 7.82396e-16 0)
(3 4.90086e-16 0)
(3 4.81954e-16 0)
(3 7.16292e-17 0)
(3 -1.53651e-16 0)
(3 -8.0406e-17 0)
(3 2.81547e-16 0)
(3 3.7121e-16 0)
(3 7.04343e-17 0)
(3 -1.27754e-16 0)
(3 2.35436e-16 0)
(3 6.41215e-16 0)
(3 1.05317e-16 0)
(3 -4.56271e-16 0)
(3 -4.99465e-16 0)
(3 -5.55413e-16 0)
(3 -9.42872e-16 0)
(3 -1.39555e-15 0)
(3 -1.31477e-15 0)
(3 -8.26443e-16 0)
(3 -8.27982e-16 0)
(3 -3.28964e-17 0)
(3 6.15344e-16 0)
(3 5.10871e-16 0)
(3 5.44537e-16 0)
(3 6.69644e-16 0)
(3 7.67115e-17 0)
(3 -8.28052e-16 0)
(3 -1.33481e-15 0)
(3 -2.06481e-15 0)
(3 -2.29957e-15 0)
(3 -2.88058e-15 0)
(3 -8.2673e-16 0)
(3 -5.25706e-16 0)
(3 -2.76032e-16 0)
(3 -3.97086e-16 0)
(3 3.60335e-16 0)
(3 1.06582e-15 0)
(3 5.38023e-16 0)
(3 1.79372e-16 0)
(3 5.24045e-16 0)
(1.92897 0.0305921 0)
(0.808733 0.0386666 0)
(0.734365 0.0247009 0)
(0.7225 0.0196858 0)
(0.710262 0.0202845 0)
(0.697851 0.0224928 0)
(0.684215 0.0260773 0)
(0.669507 0.0302914 0)
(0.653521 0.033521 0)
(0.636537 0.0342303 0)
(0.619241 0.0322048 0)
(0.602096 0.0289965 0)
(0.585401 0.0265812 0)
(0.569643 0.0256328 0)
(0.555011 0.0260957 0)
(0.541133 0.0279338 0)
(0.527209 0.0306054 0)
(0.512342 0.0323071 0)
(0.496609 0.0315763 0)
(0.480382 0.0301907 0)
(0.463604 0.0302724 0)
(0.446558 0.0310173 0)
(0.429882 0.0313485 0)
(0.413919 0.0317283 0)
(0.398409 0.0323053 0)
(0.383025 0.0324826 0)
(0.36754 0.0326767 0)
(0.351613 0.0335527 0)
(0.334892 0.0345606 0)
(0.317563 0.0346932 0)
(0.300286 0.0340463 0)
(0.283485 0.0334214 0)
(0.267328 0.0330855 0)
(0.251797 0.0330135 0)
(0.236655 0.03335 0)
(0.221453 0.0340952 0)
(0.205659 0.034998 0)
(0.188958 0.0359225 0)
(0.171295 0.0371566 0)
(0.152733 0.0385068 0)
(0.133547 0.0398421 0)
(0.11403 0.0412903 0)
(0.0936193 0.0425052 0)
(0.0735891 0.0438193 0)
(0.0530183 0.0451184 0)
(0.0320094 0.0457741 0)
(0.0107989 0.0466193 0)
(3 1.05032e-16 0)
(3 3.08298e-16 0)
(3 6.13618e-16 0)
(3 6.32283e-16 0)
(3 8.0475e-16 0)
(3 6.96136e-16 0)
(3 4.45904e-17 0)
(3 -2.77628e-16 0)
(3 5.41136e-17 0)
(3 3.94165e-16 0)
(3 4.15054e-16 0)
(3 -2.18509e-18 0)
(3 2.2448e-16 0)
(3 3.01045e-16 0)
(3 2.99088e-16 0)
(3 5.43328e-16 0)
(3 7.9228e-16 0)
(3 4.06369e-17 0)
(3 -1.26404e-15 0)
(3 -1.61793e-15 0)
(3 -2.11149e-15 0)
(3 -2.51591e-15 0)
(3 -2.29652e-15 0)
(3 -1.65036e-15 0)
(3 -1.64557e-15 0)
(3 -2.15583e-15 0)
(3 -2.35702e-15 0)
(3 -2.31294e-15 0)
(3 -1.86765e-15 0)
(3 -1.2747e-15 0)
(3 -1.18381e-15 0)
(3 -9.84532e-16 0)
(3 -9.62687e-16 0)
(3 -8.51557e-16 0)
(3 -6.38727e-16 0)
(3 1.43968e-16 0)
(3 4.89331e-16 0)
(3 -3.01419e-16 0)
(3 -1.13073e-15 0)
(3 -1.42143e-15 0)
(3 -1.16734e-15 0)
(3 -1.74293e-15 0)
(3 -1.00003e-15 0)
(3 2.06491e-16 0)
(3 1.10033e-15 0)
(3 1.8808e-15 0)
(3 2.09191e-15 0)
(3 1.78565e-15 0)
(3 2.19377e-15 0)
(1.99016 0.052843 0)
(0.818095 0.0620492 0)
(0.741636 0.045955 0)
(0.72755 0.0384937 0)
(0.712189 0.0379205 0)
(0.697727 0.0401944 0)
(0.683179 0.0448461 0)
(0.668496 0.0507289 0)
(0.653141 0.0553251 0)
(0.637091 0.0565021 0)
(0.620782 0.0540371 0)
(0.604207 0.0499908 0)
(0.587385 0.0469086 0)
(0.570903 0.0456459 0)
(0.555221 0.0461697 0)
(0.54036 0.0486544 0)
(0.525927 0.0524581 0)
(0.510925 0.0548382 0)
(0.495378 0.0537281 0)
(0.479316 0.0518356 0)
(0.462518 0.052217 0)
(0.445366 0.0534959 0)
(0.428459 0.0539463 0)
(0.412215 0.0544949 0)
(0.396362 0.0555488 0)
(0.380489 0.056026 0)
(0.364448 0.0562989 0)
(0.348116 0.0574211 0)
(0.331279 0.0586715 0)
(0.314085 0.0586286 0)
(0.297055 0.0575824 0)
(0.280419 0.0567724 0)
(0.264264 0.0564548 0)
(0.24855 0.056471 0)
(0.233064 0.0570274 0)
(0.217437 0.0581452 0)
(0.20124 0.0594562 0)
(0.184276 0.0607616 0)
(0.166603 0.0626106 0)
(0.148297 0.0647276 0)
(0.129586 0.0668888 0)
(0.110701 0.0693226 0)
(0.0909795 0.0714034 0)
(0.0716747 0.0737566 0)
(0.0517588 0.0760841 0)
(0.0313062 0.0773443 0)
(0.0106155 0.0789545 0)
(3 1.18879e-16 0)
(3 5.58461e-16 0)
(3 6.9036e-16 0)
(3 7.27413e-16 0)
(3 5.80523e-16 0)
(3 3.05573e-16 0)
(3 5.03291e-17 0)
(3 -4.43272e-16 0)
(3 -7.85986e-16 0)
(3 -3.61117e-16 0)
(3 -1.63398e-16 0)
(3 2.35121e-16 0)
(3 4.18005e-16 0)
(3 6.44162e-16 0)
(3 3.14364e-16 0)
(3 3.49828e-17 0)
(3 -2.21572e-16 0)
(3 -1.51147e-16 0)
(3 -6.4866e-16 0)
(3 -8.39168e-16 0)
(3 -7.1616e-16 0)
(3 -3.61248e-16 0)
(3 -6.04998e-16 0)
(3 -1.04604e-15 0)
(3 -1.16242e-15 0)
(3 -1.81684e-15 0)
(3 -2.62249e-15 0)
(3 -3.14071e-15 0)
(3 -2.82865e-15 0)
(3 -2.91505e-15 0)
(3 -2.90883e-15 0)
(3 -2.60093e-15 0)
(3 -2.18016e-15 0)
(3 -1.32548e-16 0)
(3 1.14493e-15 0)
(3 1.76572e-15 0)
(3 1.11127e-15 0)
(3 -2.31897e-17 0)
(3 -2.37899e-16 0)
(3 -6.17515e-16 0)
(3 -9.76964e-16 0)
(3 -6.07292e-16 0)
(3 3.03285e-16 0)
(3 6.76663e-16 0)
(3 1.50793e-15 0)
(3 2.31766e-15 0)
(3 2.28339e-15 0)
(3 2.09258e-15 0)
(3 1.18546e-15 0)
(2.09788 0.0698936 0)
(0.835232 0.0785223 0)
(0.745694 0.0702689 0)
(0.731926 0.060017 0)
(0.715627 0.0580763 0)
(0.700434 0.059654 0)
(0.685465 0.0644383 0)
(0.670908 0.0709982 0)
(0.656167 0.0762865 0)
(0.640998 0.0778002 0)
(0.62553 0.0755526 0)
(0.609403 0.071707 0)
(0.592503 0.0687448 0)
(0.575499 0.0675807 0)
(0.559028 0.0681093 0)
(0.543442 0.0708646 0)
(0.528759 0.0752592 0)
(0.513874 0.0779144 0)
(0.498728 0.0764535 0)
(0.48298 0.0743066 0)
(0.466322 0.0751534 0)
(0.449165 0.0771182 0)
(0.432012 0.0778009 0)
(0.415406 0.0786094 0)
(0.399138 0.0803416 0)
(0.382699 0.081421 0)
(0.366004 0.0818855 0)
(0.349136 0.0830734 0)
(0.332023 0.0842517 0)
(0.314806 0.0838211 0)
(0.297867 0.0823643 0)
(0.281267 0.0815093 0)
(0.265028 0.0814224 0)
(0.249046 0.0817454 0)
(0.233088 0.0826932 0)
(0.216824 0.0842843 0)
(0.199908 0.0860277 0)
(0.182257 0.0876184 0)
(0.164079 0.0898797 0)
(0.145517 0.0924976 0)
(0.126771 0.0951767 0)
(0.108055 0.0983282 0)
(0.0887064 0.101044 0)
(0.0698369 0.10425 0)
(0.0504533 0.107562 0)
(0.0305177 0.109446 0)
(0.0103858 0.111859 0)
(3 -6.84503e-17 0)
(3 -1.22363e-16 0)
(3 -2.11475e-16 0)
(3 8.59607e-18 0)
(3 4.07187e-16 0)
(3 7.8122e-16 0)
(3 4.4691e-16 0)
(3 4.13576e-16 0)
(3 -2.7802e-17 0)
(3 1.71959e-16 0)
(3 1.21042e-16 0)
(3 2.11455e-16 0)
(3 1.15232e-16 0)
(3 -2.19676e-16 0)
(3 -6.64257e-16 0)
(3 -1.02244e-15 0)
(3 -1.2105e-15 0)
(3 -1.13256e-15 0)
(3 -1.06522e-15 0)
(3 -8.82308e-16 0)
(3 -7.70704e-16 0)
(3 -2.34288e-16 0)
(3 -4.76536e-16 0)
(3 -1.54116e-15 0)
(3 -1.93258e-15 0)
(3 -2.34e-15 0)
(3 -1.77603e-15 0)
(3 -1.69231e-15 0)
(3 -2.55987e-15 0)
(3 -3.62912e-15 0)
(3 -3.05483e-15 0)
(3 -2.13757e-15 0)
(3 -1.90822e-15 0)
(3 -1.33891e-15 0)
(3 -8.85304e-16 0)
(3 -4.48521e-16 0)
(3 -1.23164e-16 0)
(3 -4.08113e-16 0)
(3 -5.21935e-16 0)
(3 -5.12941e-16 0)
(3 -6.72184e-16 0)
(3 -5.06531e-16 0)
(3 1.86325e-16 0)
(3 7.42997e-16 0)
(3 1.9499e-15 0)
(3 2.7981e-15 0)
(3 2.15778e-15 0)
(3 1.81037e-15 0)
(3 1.27837e-15 0)
(2.24931 0.0819522 0)
(0.858007 0.0957685 0)
(0.746725 0.0965204 0)
(0.732144 0.0832312 0)
(0.715133 0.0792163 0)
(0.699828 0.0800191 0)
(0.685081 0.0845701 0)
(0.67117 0.0912287 0)
(0.657446 0.0967667 0)
(0.643428 0.0987214 0)
(0.628954 0.0972863 0)
(0.613503 0.0944151 0)
(0.59695 0.0922519 0)
(0.57998 0.0913494 0)
(0.563301 0.0917142 0)
(0.547478 0.0942947 0)
(0.532834 0.0987393 0)
(0.518214 0.101404 0)
(0.503434 0.0997854 0)
(0.487868 0.0977268 0)
(0.471235 0.0992568 0)
(0.45389 0.102184 0)
(0.436196 0.103345 0)
(0.418934 0.104509 0)
(0.402091 0.106999 0)
(0.385115 0.108786 0)
(0.367987 0.109335 0)
(0.350971 0.110208 0)
(0.33411 0.110907 0)
(0.317494 0.109896 0)
(0.301257 0.108049 0)
(0.285238 0.107276 0)
(0.26936 0.107613 0)
(0.253417 0.108471 0)
(0.237168 0.110042 0)
(0.220335 0.112339 0)
(0.202663 0.114741 0)
(0.184186 0.116762 0)
(0.165269 0.11947 0)
(0.146126 0.122511 0)
(0.12695 0.125538 0)
(0.107942 0.129098 0)
(0.0885714 0.132201 0)
(0.0695773 0.135858 0)
(0.0502555 0.139949 0)
(0.0303551 0.142345 0)
(0.0103703 0.14547 0)
(3 -1.59811e-17 0)
(3 6.05001e-17 0)
(3 1.89639e-16 0)
(3 2.3809e-16 0)
(3 5.28866e-17 0)
(3 4.08238e-16 0)
(3 2.08134e-16 0)
(3 3.8709e-16 0)
(3 3.64683e-16 0)
(3 -1.1505e-16 0)
(3 3.14154e-17 0)
(3 -4.85993e-17 0)
(3 -1.21476e-15 0)
(3 -1.33621e-15 0)
(3 -7.74904e-16 0)
(3 -2.03051e-17 0)
(3 1.58668e-16 0)
(3 -7.38059e-16 0)
(3 -1.83674e-15 0)
(3 -1.73185e-15 0)
(3 -1.36755e-15 0)
(3 -1.50959e-15 0)
(3 -2.09312e-15 0)
(3 -2.25592e-15 0)
(3 -1.9473e-15 0)
(3 -1.80704e-15 0)
(3 -1.70016e-15 0)
(3 -1.61818e-15 0)
(3 -1.98192e-15 0)
(3 -2.42938e-15 0)
(3 -1.92358e-15 0)
(3 -6.32832e-16 0)
(3 -8.40928e-16 0)
(3 -1.61935e-15 0)
(3 -1.37746e-15 0)
(3 -6.52737e-16 0)
(3 -1.03741e-16 0)
(3 1.88506e-16 0)
(3 -7.18448e-16 0)
(3 -4.82815e-16 0)
(3 5.56342e-16 0)
(3 4.60853e-16 0)
(3 2.30901e-16 0)
(3 5.02096e-16 0)
(3 2.49409e-16 0)
(3 3.953e-16 0)
(3 6.9999e-16 0)
(3 1.02646e-15 0)
(3 1.43708e-15 0)
(2.44515 0.0907959 0)
(0.89041 0.118756 0)
(0.749752 0.122675 0)
(0.735761 0.108618 0)
(0.718166 0.101789 0)
(0.702345 0.100964 0)
(0.687402 0.104679 0)
(0.673704 0.110897 0)
(0.660543 0.116403 0)
(0.647197 0.118994 0)
(0.633217 0.118799 0)
(0.618134 0.117345 0)
(0.601883 0.1163 0)
(0.585023 0.116015 0)
(0.568249 0.116458 0)
(0.55219 0.118857 0)
(0.537341 0.123197 0)
(0.522621 0.125986 0)
(0.507707 0.124623 0)
(0.491924 0.123016 0)
(0.475132 0.125404 0)
(0.457646 0.129508 0)
(0.439638 0.131283 0)
(0.422185 0.132611 0)
(0.405529 0.135531 0)
(0.389061 0.137741 0)
(0.372668 0.138009 0)
(0.356587 0.138035 0)
(0.340764 0.137813 0)
(0.325101 0.136115 0)
(0.30944 0.134066 0)
(0.293562 0.133736 0)
(0.277432 0.134992 0)
(0.260827 0.136927 0)
(0.243591 0.139606 0)
(0.225562 0.143 0)
(0.206597 0.146353 0)
(0.186839 0.148931 0)
(0.166814 0.152066 0)
(0.146798 0.155389 0)
(0.126997 0.158603 0)
(0.107495 0.16218 0)
(0.0880373 0.165374 0)
(0.068896 0.169122 0)
(0.049677 0.173712 0)
(0.0299234 0.176457 0)
(0.0102518 0.180156 0)
(3 -1.28127e-16 0)
(3 -1.65867e-16 0)
(3 -2.11481e-16 0)
(3 -5.1863e-16 0)
(3 -1.00109e-15 0)
(3 -1.081e-15 0)
(3 -7.97745e-16 0)
(3 -8.50746e-16 0)
(3 -1.01361e-15 0)
(3 -1.46547e-15 0)
(3 -1.2766e-15 0)
(3 -8.33054e-16 0)
(3 -1.08629e-15 0)
(3 -9.08504e-16 0)
(3 -2.71941e-16 0)
(3 -6.37864e-17 0)
(3 -3.53294e-16 0)
(3 -7.22567e-16 0)
(3 -8.36601e-16 0)
(3 -1.38756e-15 0)
(3 -1.6309e-15 0)
(3 -1.62998e-15 0)
(3 -1.61641e-15 0)
(3 -1.27851e-15 0)
(3 -1.18457e-15 0)
(3 -1.29093e-15 0)
(3 -1.76343e-15 0)
(3 -1.99632e-15 0)
(3 -1.66275e-15 0)
(3 -8.46212e-16 0)
(3 -3.69067e-16 0)
(3 2.68546e-18 0)
(3 2.18431e-16 0)
(3 6.23958e-17 0)
(3 2.4337e-17 0)
(3 -6.4834e-17 0)
(3 -5.38245e-16 0)
(3 -1.07479e-15 0)
(3 -9.94685e-16 0)
(3 -4.82378e-16 0)
(3 -3.88687e-17 0)
(3 2.63391e-16 0)
(3 -2.49493e-17 0)
(3 -3.39805e-16 0)
(3 -1.15381e-15 0)
(3 -1.34838e-15 0)
(3 -5.35675e-16 0)
(3 6.64694e-16 0)
(3 -2.47408e-16 0)
(2.67345 0.0846661 0)
(0.942339 0.140627 0)
(0.75671 0.145677 0)
(0.743603 0.133558 0)
(0.726556 0.126305 0)
(0.71021 0.12382 0)
(0.694374 0.126336 0)
(0.679818 0.131718 0)
(0.665993 0.136899 0)
(0.652261 0.140154 0)
(0.638035 0.141259 0)
(0.623027 0.141092 0)
(0.607281 0.141043 0)
(0.591208 0.141416 0)
(0.575227 0.142148 0)
(0.55975 0.144529 0)
(0.545256 0.148828 0)
(0.530804 0.151933 0)
(0.516076 0.151082 0)
(0.500568 0.149957 0)
(0.484279 0.153005 0)
(0.467511 0.158131 0)
(0.450051 0.160427 0)
(0.43314 0.161438 0)
(0.417189 0.164076 0)
(0.401579 0.166159 0)
(0.385973 0.165845 0)
(0.370433 0.164941 0)
(0.35475 0.16424 0)
(0.338668 0.162893 0)
(0.321964 0.161822 0)
(0.304634 0.162922 0)
(0.286769 0.16585 0)
(0.268238 0.169346 0)
(0.249075 0.173329 0)
(0.229273 0.177825 0)
(0.208768 0.182022 0)
(0.187728 0.184932 0)
(0.166744 0.188183 0)
(0.146068 0.191419 0)
(0.125895 0.194501 0)
(0.106091 0.197636 0)
(0.0866926 0.200477 0)
(0.0675812 0.203891 0)
(0.0486012 0.208629 0)
(0.0291729 0.211478 0)
(0.0100239 0.215557 0)
(3 -1.56401e-16 0)
(3 -2.80234e-16 0)
(3 -5.07453e-16 0)
(3 -4.51201e-16 0)
(3 -2.08395e-16 0)
(3 -5.29376e-16 0)
(3 -1.00448e-15 0)
(3 -1.19577e-15 0)
(3 -1.21527e-15 0)
(3 -1.24058e-15 0)
(3 -1.27464e-15 0)
(3 -1.18541e-15 0)
(3 -5.72688e-16 0)
(3 -5.4098e-16 0)
(3 -1.10902e-15 0)
(3 -2.02865e-15 0)
(3 -2.15061e-15 0)
(3 -1.77969e-15 0)
(3 -1.50411e-15 0)
(3 -1.65342e-15 0)
(3 -1.89471e-15 0)
(3 -1.09014e-15 0)
(3 -1.05502e-15 0)
(3 -1.11743e-15 0)
(3 -1.26881e-15 0)
(3 -8.66047e-16 0)
(3 -1.6131e-17 0)
(3 4.59432e-16 0)
(3 6.76194e-17 0)
(3 1.29727e-16 0)
(3 2.18726e-16 0)
(3 2.33407e-16 0)
(3 3.18906e-16 0)
(3 2.46113e-16 0)
(3 2.22755e-16 0)
(3 -2.15416e-16 0)
(3 -1.2219e-15 0)
(3 -1.44014e-15 0)
(3 -1.29962e-15 0)
(3 -1.11249e-15 0)
(3 -9.60216e-16 0)
(3 -1.3174e-15 0)
(3 -1.62311e-15 0)
(3 -1.67289e-15 0)
(3 -1.40071e-15 0)
(3 -9.07486e-16 0)
(3 -2.16686e-16 0)
(3 4.99162e-17 0)
(3 -1.20453e-15 0)
(2.86941 0.0815677 0)
(1.00879 0.174945 0)
(0.762448 0.164492 0)
(0.754673 0.153803 0)
(0.740844 0.1494 0)
(0.725627 0.146663 0)
(0.709354 0.148707 0)
(0.693462 0.153557 0)
(0.678065 0.158617 0)
(0.663076 0.162312 0)
(0.648159 0.164041 0)
(0.633148 0.164192 0)
(0.618044 0.164099 0)
(0.60299 0.164639 0)
(0.588048 0.16586 0)
(0.573354 0.168673 0)
(0.559319 0.173334 0)
(0.545171 0.17703 0)
(0.530723 0.176814 0)
(0.515736 0.175955 0)
(0.500194 0.179272 0)
(0.484448 0.185134 0)
(0.46776 0.18808 0)
(0.451349 0.188697 0)
(0.435691 0.190844 0)
(0.420289 0.193033 0)
(0.404558 0.193019 0)
(0.388467 0.192493 0)
(0.371784 0.192937 0)
(0.354181 0.193547 0)
(0.335506 0.194571 0)
(0.316006 0.197622 0)
(0.295938 0.202315 0)
(0.275341 0.20713 0)
(0.25446 0.211935 0)
(0.233433 0.217006 0)
(0.212189 0.221624 0)
(0.190746 0.224528 0)
(0.169591 0.227605 0)
(0.148812 0.230507 0)
(0.128536 0.233287 0)
(0.108376 0.235809 0)
(0.0886586 0.238017 0)
(0.0690283 0.240776 0)
(0.0495662 0.24538 0)
(0.0296884 0.248098 0)
(0.0102009 0.252384 0)
(3 2.44467e-16 0)
(3 3.51274e-16 0)
(3 4.70582e-16 0)
(3 4.68181e-16 0)
(3 5.91056e-16 0)
(3 1.17101e-15 0)
(3 1.03706e-15 0)
(3 1.03473e-15 0)
(3 1.32233e-15 0)
(3 1.3146e-15 0)
(3 1.04009e-15 0)
(3 -4.30644e-16 0)
(3 -3.30706e-16 0)
(3 7.98239e-17 0)
(3 -6.75025e-16 0)
(3 -1.31457e-15 0)
(3 -1.82964e-15 0)
(3 -2.34231e-15 0)
(3 -1.98332e-15 0)
(3 -1.61044e-15 0)
(3 -1.19513e-15 0)
(3 -5.88141e-16 0)
(3 -1.82351e-16 0)
(3 -7.90662e-16 0)
(3 -6.63781e-16 0)
(3 -1.78297e-16 0)
(3 4.98858e-16 0)
(3 4.29133e-16 0)
(3 1.48261e-16 0)
(3 -2.01344e-16 0)
(3 -1.78443e-16 0)
(3 -6.60258e-16 0)
(3 -6.62728e-16 0)
(3 -2.28277e-16 0)
(3 -4.61689e-16 0)
(3 -4.90051e-16 0)
(3 -3.91316e-16 0)
(3 -4.59076e-16 0)
(3 -1.58003e-15 0)
(3 -2.37265e-15 0)
(3 -2.25966e-15 0)
(3 -1.9243e-15 0)
(3 -1.75805e-15 0)
(3 -2.02066e-15 0)
(3 -3.04428e-15 0)
(3 -1.6842e-15 0)
(3 -1.24814e-15 0)
(3 -7.41955e-16 0)
(3 -1.01978e-15 0)
(3.00676 0.00506363 0)
(1.12651 0.200307 0)
(0.780828 0.169672 0)
(0.7672 0.168231 0)
(0.754937 0.170819 0)
(0.740032 0.171981 0)
(0.723992 0.175258 0)
(0.707568 0.179961 0)
(0.691409 0.184473 0)
(0.675687 0.187606 0)
(0.660339 0.188884 0)
(0.645235 0.188519 0)
(0.630283 0.187862 0)
(0.615526 0.188292 0)
(0.600924 0.190201 0)
(0.58641 0.194093 0)
(0.572246 0.199784 0)
(0.557742 0.204354 0)
(0.542927 0.204766 0)
(0.527782 0.204071 0)
(0.51223 0.207544 0)
(0.496781 0.214194 0)
(0.480163 0.218398 0)
(0.463353 0.219345 0)
(0.446995 0.221489 0)
(0.43083 0.224351 0)
(0.414162 0.225357 0)
(0.397036 0.225699 0)
(0.37944 0.227399 0)
(0.361196 0.229818 0)
(0.342207 0.232546 0)
(0.32283 0.236912 0)
(0.303308 0.242628 0)
(0.283515 0.248015 0)
(0.263547 0.252904 0)
(0.243465 0.257938 0)
(0.223114 0.262678 0)
(0.202294 0.265568 0)
(0.181427 0.268648 0)
(0.160512 0.27159 0)
(0.139651 0.274568 0)
(0.118438 0.277122 0)
(0.0972114 0.27923 0)
(0.0758183 0.281647 0)
(0.0544622 0.286362 0)
(0.0326167 0.289082 0)
(0.0112009 0.29364 0)
(3 1.24921e-16 0)
(3 2.75566e-17 0)
(3 -7.84907e-17 0)
(3 -1.38469e-16 0)
(3 -1.76053e-16 0)
(3 2.92031e-17 0)
(3 6.26403e-16 0)
(3 8.33252e-16 0)
(3 8.01525e-16 0)
(3 8.4841e-16 0)
(3 8.29079e-16 0)
(3 3.284e-16 0)
(3 -3.5995e-16 0)
(3 -5.9159e-16 0)
(3 -1.947e-16 0)
(3 1.46487e-16 0)
(3 -1.07379e-16 0)
(3 -1.12449e-15 0)
(3 -1.20381e-15 0)
(3 -1.00033e-15 0)
(3 -6.36176e-16 0)
(3 -2.49412e-16 0)
(3 -7.21744e-17 0)
(3 -8.10455e-16 0)
(3 -1.07233e-15 0)
(3 -8.37122e-16 0)
(3 -6.4545e-16 0)
(3 -2.7504e-16 0)
(3 3.17617e-16 0)
(3 9.79068e-16 0)
(3 8.22394e-16 0)
(3 3.99134e-16 0)
(3 5.46969e-16 0)
(3 5.64505e-16 0)
(3 5.95511e-16 0)
(3 7.24234e-16 0)
(3 4.48624e-16 0)
(3 2.3091e-16 0)
(3 -5.95623e-16 0)
(3 -8.82525e-16 0)
(3 -1.81971e-15 0)
(3 -1.51286e-15 0)
(3 -1.45028e-15 0)
(3 -2.0824e-15 0)
(3 -3.54989e-15 0)
(3 -2.7097e-15 0)
(3 -2.13757e-15 0)
(3 -1.98949e-15 0)
(3 -2.57748e-15 0)
(3.0001 7.99272e-06 0)
(1.3712 0.222371 0)
(0.790744 0.198175 0)
(0.758745 0.192274 0)
(0.744021 0.196047 0)
(0.728167 0.199291 0)
(0.712614 0.203492 0)
(0.69682 0.207769 0)
(0.681393 0.21168 0)
(0.666326 0.214326 0)
(0.651631 0.2151 0)
(0.637215 0.214243 0)
(0.622891 0.213152 0)
(0.608594 0.213484 0)
(0.594359 0.216105 0)
(0.580251 0.221318 0)
(0.566543 0.228259 0)
(0.552494 0.233538 0)
(0.538308 0.234195 0)
(0.524133 0.233248 0)
(0.509727 0.236409 0)
(0.495917 0.243559 0)
(0.480952 0.249245 0)
(0.465278 0.250882 0)
(0.449767 0.253062 0)
(0.434444 0.256569 0)
(0.418538 0.258761 0)
(0.402058 0.259959 0)
(0.385193 0.262563 0)
(0.367915 0.266359 0)
(0.350051 0.270393 0)
(0.331922 0.275631 0)
(0.313726 0.282066 0)
(0.295123 0.288058 0)
(0.276011 0.293376 0)
(0.256433 0.298954 0)
(0.236336 0.30478 0)
(0.215339 0.308872 0)
(0.193972 0.313081 0)
(0.172215 0.317061 0)
(0.150229 0.321057 0)
(0.12751 0.324336 0)
(0.104672 0.326763 0)
(0.0815118 0.328986 0)
(0.0584407 0.333844 0)
(0.0349511 0.33656 0)
(0.0119478 0.34141 0)
(3 -2.23919e-16 0)
(3 -1.6548e-16 0)
(3 -5.79776e-16 0)
(3 -6.49673e-16 0)
(3 -9.29668e-16 0)
(3 -1.01059e-15 0)
(3 -4.78721e-16 0)
(3 -3.0344e-16 0)
(3 -4.68013e-16 0)
(3 -6.04435e-16 0)
(3 -5.48768e-16 0)
(3 -2.34127e-16 0)
(3 -7.54719e-16 0)
(3 -1.13905e-15 0)
(3 -1.17032e-15 0)
(3 -1.08988e-15 0)
(3 -9.15952e-16 0)
(3 -7.49437e-16 0)
(3 -2.83312e-16 0)
(3 -1.88972e-16 0)
(3 -3.90779e-16 0)
(3 -7.22753e-16 0)
(3 -4.68112e-16 0)
(3 -4.45541e-16 0)
(3 -6.00401e-16 0)
(3 -5.51732e-16 0)
(3 -1.59821e-17 0)
(3 9.88906e-16 0)
(3 1.34136e-15 0)
(3 1.05304e-15 0)
(3 1.08102e-15 0)
(3 1.44946e-15 0)
(3 1.32904e-15 0)
(3 9.02384e-16 0)
(3 8.06393e-16 0)
(3 6.99278e-16 0)
(3 6.28642e-16 0)
(3 2.11339e-16 0)
(3 3.58827e-16 0)
(3 3.20628e-16 0)
(3 -6.09861e-16 0)
(3 -1.05888e-15 0)
(3 -7.76277e-16 0)
(3 -1.62551e-15 0)
(3 -1.56965e-15 0)
(3 -1.31566e-15 0)
(3 -1.18871e-15 0)
(3 -1.60475e-15 0)
(3 -2.8569e-15 0)
(3 1.29076e-08 0)
(1.81128 0.253208 0)
(0.82426 0.242371 0)
(0.754739 0.229922 0)
(0.736548 0.22774 0)
(0.721159 0.22899 0)
(0.707358 0.232629 0)
(0.693482 0.236813 0)
(0.679464 0.240637 0)
(0.665311 0.242852 0)
(0.651226 0.243114 0)
(0.637198 0.241858 0)
(0.623093 0.24036 0)
(0.608897 0.240423 0)
(0.594786 0.243311 0)
(0.580994 0.249361 0)
(0.567699 0.257269 0)
(0.55388 0.263129 0)
(0.539761 0.264007 0)
(0.525772 0.262668 0)
(0.511599 0.265087 0)
(0.498435 0.272337 0)
(0.484551 0.279713 0)
(0.469387 0.282862 0)
(0.454095 0.285496 0)
(0.439053 0.289827 0)
(0.423541 0.293599 0)
(0.407333 0.295949 0)
(0.390778 0.299228 0)
(0.374088 0.304001 0)
(0.357054 0.309149 0)
(0.339841 0.31515 0)
(0.32262 0.322342 0)
(0.304934 0.329272 0)
(0.286518 0.335534 0)
(0.267389 0.342036 0)
(0.247786 0.349399 0)
(0.227076 0.355283 0)
(0.205799 0.361117 0)
(0.183847 0.366656 0)
(0.161299 0.372198 0)
(0.137727 0.376848 0)
(0.113444 0.380301 0)
(0.0885697 0.38278 0)
(0.0635894 0.388042 0)
(0.0380522 0.390877 0)
(0.0130078 0.396174 0)
(3 -9.99845e-17 0)
(3 -3.64065e-16 0)
(3 -2.58186e-16 0)
(3 -2.77729e-16 0)
(3 -3.48389e-16 0)
(3 -2.88157e-16 0)
(3 -3.4925e-16 0)
(3 -3.2809e-16 0)
(3 -6.66149e-16 0)
(3 -1.0231e-15 0)
(3 -1.46516e-15 0)
(3 -1.58016e-15 0)
(3 -1.28507e-15 0)
(3 -9.87442e-16 0)
(3 -8.32269e-16 0)
(3 -6.03885e-16 0)
(3 -3.95391e-16 0)
(3 2.74042e-16 0)
(3 8.81409e-16 0)
(3 1.00279e-15 0)
(3 1.59652e-16 0)
(3 -3.49781e-16 0)
(3 -4.67549e-16 0)
(3 -1.59884e-16 0)
(3 3.18247e-16 0)
(3 1.18416e-15 0)
(3 1.99599e-15 0)
(3 1.86139e-15 0)
(3 1.51422e-15 0)
(3 2.00217e-15 0)
(3 2.35164e-15 0)
(3 2.72688e-15 0)
(3 1.01116e-15 0)
(3 2.9531e-16 0)
(3 -1.00133e-16 0)
(3 -1.05976e-15 0)
(3 -1.5925e-15 0)
(3 -1.58057e-15 0)
(3 -2.63464e-16 0)
(3 -6.29241e-17 0)
(3 -5.08931e-16 0)
(3 -1.1035e-15 0)
(3 1.46748e-16 0)
(3 9.18692e-16 0)
(3 9.97731e-16 0)
(3 8.93226e-16 0)
(3 -4.92183e-16 0)
(3 -1.37841e-15 0)
(3 -2.22693e-15 0)
(3 9.27338e-12 0)
(2.47142 0.234531 0)
(0.917778 0.29611 0)
(0.775658 0.270357 0)
(0.763782 0.256994 0)
(0.746807 0.25547 0)
(0.731874 0.257223 0)
(0.71732 0.261762 0)
(0.702813 0.266491 0)
(0.688079 0.269466 0)
(0.673276 0.270505 0)
(0.658399 0.270037 0)
(0.64339 0.269004 0)
(0.628304 0.269156 0)
(0.613416 0.272131 0)
(0.599169 0.278618 0)
(0.585783 0.287314 0)
(0.571845 0.294096 0)
(0.557169 0.29588 0)
(0.542488 0.2945 0)
(0.527616 0.295857 0)
(0.513928 0.302594 0)
(0.500576 0.31128 0)
(0.485776 0.316452 0)
(0.470421 0.319663 0)
(0.455226 0.324489 0)
(0.439814 0.329755 0)
(0.423554 0.333574 0)
(0.406756 0.337449 0)
(0.389896 0.342858 0)
(0.372882 0.349031 0)
(0.355625 0.355858 0)
(0.338257 0.363945 0)
(0.320302 0.372178 0)
(0.301384 0.379964 0)
(0.281356 0.38791 0)
(0.260792 0.397254 0)
(0.238999 0.405672 0)
(0.2165 0.413962 0)
(0.193254 0.421787 0)
(0.169629 0.429734 0)
(0.144877 0.436333 0)
(0.119889 0.441537 0)
(0.0937906 0.444971 0)
(0.0673673 0.450816 0)
(0.0402755 0.453776 0)
(0.0136323 0.45943 0)
(3 1.07666e-17 0)
(3 -2.23554e-16 0)
(3 -1.33235e-16 0)
(3 8.18587e-17 0)
(3 8.41676e-17 0)
(3 -1.8431e-16 0)
(3 -6.8217e-16 0)
(3 -8.95321e-16 0)
(3 -7.8388e-16 0)
(3 -8.04448e-16 0)
(3 -7.48308e-16 0)
(3 -4.45889e-16 0)
(3 -3.30114e-16 0)
(3 -2.79838e-16 0)
(3 -1.28074e-16 0)
(3 2.11491e-16 0)
(3 1.50586e-15 0)
(3 2.01558e-15 0)
(3 1.64234e-15 0)
(3 1.04464e-15 0)
(3 -1.37624e-16 0)
(3 -5.82712e-16 0)
(3 -3.57555e-16 0)
(3 1.86579e-16 0)
(3 6.79264e-16 0)
(3 9.08535e-16 0)
(3 6.8623e-16 0)
(3 2.67389e-16 0)
(3 5.32431e-16 0)
(3 1.08693e-15 0)
(3 9.8647e-16 0)
(3 6.42954e-16 0)
(3 4.90947e-16 0)
(3 6.17192e-16 0)
(3 1.19078e-15 0)
(3 1.83017e-16 0)
(3 -1.37138e-15 0)
(3 -1.85541e-15 0)
(3 -2.45187e-15 0)
(3 -1.92752e-15 0)
(3 -4.45916e-16 0)
(3 1.05876e-17 0)
(3 1.06918e-15 0)
(3 2.1506e-15 0)
(3 2.13857e-15 0)
(3 1.36675e-15 0)
(3 -8.31085e-16 0)
(3 -1.62158e-15 0)
(3 -1.66805e-15 0)
(3 -1.16615e-12 0)
(3.02843 0.018169 0)
(1.14624 0.322471 0)
(0.815172 0.279514 0)
(0.798786 0.279204 0)
(0.783502 0.282086 0)
(0.767678 0.284493 0)
(0.752213 0.288437 0)
(0.737126 0.292723 0)
(0.722113 0.295786 0)
(0.707081 0.297321 0)
(0.691917 0.297608 0)
(0.676541 0.297216 0)
(0.66104 0.297413 0)
(0.645702 0.299853 0)
(0.631049 0.305745 0)
(0.617544 0.314432 0)
(0.603806 0.322382 0)
(0.588829 0.326236 0)
(0.573255 0.32603 0)
(0.557362 0.326481 0)
(0.542243 0.332136 0)
(0.528403 0.341717 0)
(0.513541 0.349833 0)
(0.497513 0.35481 0)
(0.481292 0.360391 0)
(0.465093 0.367287 0)
(0.448149 0.373448 0)
(0.43042 0.378681 0)
(0.41264 0.384967 0)
(0.394988 0.392399 0)
(0.377318 0.400473 0)
(0.359559 0.409712 0)
(0.341369 0.419682 0)
(0.322239 0.429454 0)
(0.301948 0.439118 0)
(0.281255 0.450274 0)
(0.259545 0.460974 0)
(0.237358 0.4715 0)
(0.214055 0.481321 0)
(0.190265 0.491469 0)
(0.164998 0.500525 0)
(0.138498 0.509051 0)
(0.10949 0.5162 0)
(0.0790035 0.524537 0)
(0.0471118 0.528688 0)
(0.015717 0.534496 0)
(3 2.91926e-17 0)
(3 9.70128e-17 0)
(3 7.3767e-17 0)
(3 1.02654e-17 0)
(3 -2.78442e-16 0)
(3 -3.16983e-16 0)
(3 -4.60428e-16 0)
(3 -8.54374e-16 0)
(3 -7.23347e-16 0)
(3 -7.45612e-16 0)
(3 1.58521e-16 0)
(3 4.73232e-16 0)
(3 4.48468e-16 0)
(3 3.16406e-16 0)
(3 3.22863e-16 0)
(3 5.04711e-16 0)
(3 1.65349e-15 0)
(3 2.40215e-15 0)
(3 2.33192e-15 0)
(3 9.54411e-16 0)
(3 -4.20146e-16 0)
(3 -1.01145e-15 0)
(3 1.83937e-16 0)
(3 8.71514e-16 0)
(3 6.39982e-16 0)
(3 -2.92717e-16 0)
(3 -1.18016e-15 0)
(3 -1.25221e-15 0)
(3 -7.14344e-16 0)
(3 -7.96712e-16 0)
(3 -8.08217e-16 0)
(3 -5.9798e-16 0)
(3 -6.22383e-16 0)
(3 -2.73746e-16 0)
(3 1.47015e-16 0)
(3 3.33732e-16 0)
(3 1.67004e-16 0)
(3 -2.96554e-16 0)
(3 -8.34358e-16 0)
(3 -1.10172e-15 0)
(3 -9.27e-16 0)
(3 -4.28773e-16 0)
(3 2.94847e-16 0)
(3 1.00935e-16 0)
(3 4.70586e-16 0)
(3 5.84452e-16 0)
(3 5.5942e-16 0)
(3 5.14e-16 0)
(3 -2.5927e-16 0)
(3 -8.49417e-14 0)
(3.00063 1.90285e-05 0)
(1.62159 0.350427 0)
(0.835527 0.312058 0)
(0.790978 0.314204 0)
(0.77751 0.320966 0)
(0.763506 0.324627 0)
(0.749818 0.327517 0)
(0.736354 0.329978 0)
(0.723194 0.332043 0)
(0.710093 0.333535 0)
(0.69679 0.334401 0)
(0.683177 0.334728 0)
(0.669338 0.335232 0)
(0.655544 0.337339 0)
(0.64222 0.342327 0)
(0.629966 0.350339 0)
(0.618114 0.35919 0)
(0.604875 0.365329 0)
(0.590184 0.367215 0)
(0.574709 0.367786 0)
(0.559278 0.372046 0)
(0.545509 0.381246 0)
(0.532063 0.391225 0)
(0.517493 0.398033 0)
(0.502354 0.403761 0)
(0.487332 0.410962 0)
(0.471992 0.418657 0)
(0.455551 0.425231 0)
(0.438674 0.432046 0)
(0.421649 0.440236 0)
(0.404811 0.449432 0)
(0.387606 0.459752 0)
(0.370078 0.471464 0)
(0.351553 0.483496 0)
(0.33148 0.495206 0)
(0.310459 0.508354 0)
(0.28811 0.522018 0)
(0.26437 0.536035 0)
(0.238904 0.550132 0)
(0.212037 0.565202 0)
(0.183501 0.58025 0)
(0.1535 0.594948 0)
(0.122204 0.608544 0)
(0.0896114 0.620417 0)
(0.0549518 0.627056 0)
(0.0174327 0.631224 0)
(3 1.99348e-17 0)
(3 1.72203e-16 0)
(3 2.43124e-17 0)
(3 -2.83079e-16 0)
(3 -4.95201e-16 0)
(3 -2.49346e-16 0)
(3 -6.97796e-17 0)
(3 2.77122e-16 0)
(3 3.28229e-16 0)
(3 4.84762e-16 0)
(3 5.08699e-16 0)
(3 3.85565e-16 0)
(3 5.19398e-16 0)
(3 8.53184e-16 0)
(3 1.08562e-15 0)
(3 1.07798e-15 0)
(3 1.26303e-15 0)
(3 1.95598e-15 0)
(3 2.7491e-15 0)
(3 1.76679e-15 0)
(3 6.04291e-16 0)
(3 6.0793e-16 0)
(3 4.7761e-16 0)
(3 -2.9476e-16 0)
(3 -1.15827e-16 0)
(3 3.32179e-16 0)
(3 3.96634e-16 0)
(3 7.52423e-16 0)
(3 7.53982e-16 0)
(3 6.37114e-16 0)
(3 6.97964e-16 0)
(3 7.27565e-16 0)
(3 7.54072e-16 0)
(3 7.82817e-16 0)
(3 6.45305e-16 0)
(3 4.29961e-16 0)
(3 1.14807e-15 0)
(3 1.81559e-15 0)
(3 2.87593e-15 0)
(3 3.01342e-15 0)
(3 2.07758e-15 0)
(3 7.52193e-16 0)
(3 2.31693e-16 0)
(3 3.23183e-16 0)
(3 8.82711e-16 0)
(3 1.35138e-15 0)
(3 5.90965e-16 0)
(3 -3.73875e-17 0)
(3 8.80023e-17 0)
(3 -9.50371e-16 0)
(3 5.03486e-08 0)
(2.62994 0.221406 0)
(0.979637 0.364676 0)
(0.805141 0.353968 0)
(0.791734 0.351485 0)
(0.778328 0.356047 0)
(0.76529 0.358568 0)
(0.752541 0.359671 0)
(0.740236 0.360618 0)
(0.728025 0.36199 0)
(0.715526 0.363496 0)
(0.702677 0.364608 0)
(0.689679 0.365437 0)
(0.676824 0.367245 0)
(0.664458 0.371343 0)
(0.652931 0.378379 0)
(0.642297 0.387566 0)
(0.631108 0.396259 0)
(0.618115 0.40176 0)
(0.603823 0.404354 0)
(0.589057 0.408018 0)
(0.575437 0.416118 0)
(0.563093 0.426882 0)
(0.550395 0.436131 0)
(0.536685 0.442808 0)
(0.522761 0.450216 0)
(0.508716 0.459336 0)
(0.493672 0.468593 0)
(0.477375 0.477445 0)
(0.460995 0.487297 0)
(0.44489 0.498603 0)
(0.428397 0.511019 0)
(0.411923 0.525106 0)
(0.394816 0.540374 0)
(0.375936 0.555532 0)
(0.355951 0.5719 0)
(0.334728 0.589773 0)
(0.312028 0.608816 0)
(0.288046 0.628776 0)
(0.262882 0.649623 0)
(0.236588 0.670375 0)
(0.207841 0.688215 0)
(0.177721 0.706271 0)
(0.141391 0.727493 0)
(0.0958961 0.752014 0)
(0.0361911 0.771994 0)
(3 8.17407e-17 0)
(3 1.0935e-16 0)
(3 1.87797e-16 0)
(3 5.61121e-17 0)
(3 -1.93879e-16 0)
(3 1.25247e-16 0)
(3 4.68759e-16 0)