/*--------------------------------*- C++ -*----------------------------------*\
  =========                 |
  \\      /  F ield         | OpenFOAM: The Open Source CFD Toolbox
   \\    /   O peration     | Website:  https://openfoam.org
    \\  /    A nd           | Version:  7
     \\/     M anipulation  |
\*---------------------------------------------------------------------------*/
FoamFile
{
    version     2.0;
    format      ascii;
    class       volScalarField;
    location    "10";
    object      p;
}
// * * * * * * * * * * * * * * * * * * * * * * * * * * * * * * * * * * * * * //

dimensions      [0 2 -2 0 0 0 0];

internalField   nonuniform List<scalar> 
16000
(
-8.4669575e-08
-0.0001548326
-0.00047213849
-0.00087555402
-0.0012920161
-0.0016773664
-0.0020016447
-0.0022463604
-0.0024011745
-0.0024605972
-0.0024217978
-0.0022834398
-0.0020450608
-0.0017069792
-0.0012706182
-0.00073907609
-0.00011771487
0.00058523287
0.0013580682
0.002185293
0.0030474591
0.0039214195
0.0047809586
0.0055977675
0.0063427828
0.0069878755
0.007507708
0.0078816409
0.008095531
0.0081432853
0.0080279984
0.0077625085
0.0073694699
0.0068809372
0.0063373589
0.005785692
0.005280676
0.0048781208
0.0046394424
0.0046000998
0.00012802706
-2.1825698e-05
-0.00027499115
-0.00058435716
-0.0009050834
-0.0012036293
-0.0014562249
-0.001646955
-0.0017657321
-0.0018063157
-0.0017649121
-0.001639278
-0.0014282341
-0.0011316213
-0.00075052288
-0.00028764677
0.0002522476
0.00086188146
0.0015309701
0.0022459906
0.0029900858
0.003743397
0.0044834313
0.0051860668
0.0058266741
0.006381571
0.0068296115
0.0071538119
0.0073428837
0.007392504
0.0073062213
0.0070958341
0.0067812692
0.0063899569
0.0059557515
0.0055172881
0.0051155058
0.0047934274
0.0045959384
0.0045599084
0.00043434718
0.00021547298
-4.0887325e-05
-0.00031920167
-0.00059765113
-0.00085198287
-0.0010646312
-0.0012236955
-0.0013211553
-0.0013516584
-0.0013116246
-0.0011986114
-0.0010110566
-0.00074831007
-0.00041083624
-5.5949269e-07
0.00047874144
0.0010209593
0.0016172235
0.0022556875
0.0029214632
0.0035967396
0.0042613354
0.004893459
0.0054707769
0.0059717605
0.0063771845
0.0066716264
0.0068448908
0.0068932077
0.0068200074
0.0066361877
0.0063598516
0.0060155103
0.0056328372
0.0052449791
0.004886291
0.0045907573
0.0043943955
0.0043266265
0.00084531222
0.00051558462
0.00021633164
-6.769968e-05
-0.00033597314
-0.00057224622
-0.00076508247
-0.00090731563
-0.00099398301
-0.001021513
-0.00098718462
-0.00088876723
-0.00072449069
-0.00049316878
-0.00019442156
0.00017090208
0.0006002665
0.0010889371
0.0016295336
0.002211777
0.0028223307
0.0034448661
0.0040605891
0.0046489033
0.0051884538
0.0056584269
0.0060400363
0.006318049
0.0064821991
0.0065283962
0.0064594761
0.0062854127
0.0060229594
0.0056947112
0.0053276655
0.0049514386
0.0045964719
0.0042924434
0.0040654235
0.0039300677
0.0012863357
0.00083041165
0.00047015114
0.00016248954
-0.00011230468
-0.00034514328
-0.00053034694
-0.00066564524
-0.00074943753
-0.0007802006
-0.00075631257
-0.00067595165
-0.00053716714
-0.00033811127
-7.7388308e-05
0.00024541959
0.00062923068
0.0010708718
0.0015645497
0.0021015222
0.0026698395
0.0032543705
0.0038372069
0.0043983024
0.0049164775
0.005370747
0.0057418313
0.0060137509
0.0061753301
0.0062214738
0.0061539677
0.005981695
0.0057202106
0.0053906949
0.0050183388
0.0046304321
0.004255025
0.0039191529
0.0036382642
0.0034146727
0.0017044602
0.0011169179
0.00068637915
0.00034381947
5.0742136e-05
-0.00018992838
-0.00037780605
-0.00051526028
-0.00060396968
-0.00064449908
-0.0006363806
-0.00057819092
-0.00046773899
-0.00030240282
-7.9604198e-05
0.00020252768
0.00054453506
0.00094494975
0.0013996636
0.0019014689
0.0024397027
0.0030001768
0.0035654731
0.0041155719
0.004628812
0.0050832439
0.0054582382
0.0057361865
0.0059041604
0.0059553282
0.0058898725
0.0057152839
0.0054459445
0.0051020122
0.0047076464
0.0042889651
0.0038731692
0.0034866041
0.0031360911
0.0028094149
0.0020545095
0.0013368561
0.00083248784
0.00044848587
0.00012924831
-0.00012767386
-0.00032667082
-0.00047436055
-0.00057543614
-0.000632399
-0.00064584955
-0.00061464569
-0.0005361925
-0.00040693053
-0.00022294851
1.9245781e-05
0.00032201028
0.00068574465
0.0011081455
0.0015835946
0.0021026712
0.0026520006
0.0032144038
0.003769469
0.0042945006
0.0047658999
0.0051608799
0.0054593242
0.0056456528
0.0057104513
0.005651603
0.0054747447
0.0051929457
0.0048255904
0.004396475
0.0039316337
0.0034589118
0.0030057879
0.0025722406
0.0021330375
0.002298326
0.0014558494
0.00087793079
0.00044962811
9.9593258e-05
-0.00017947131
-0.00039621436
-0.00056107782
-0.0006814711
-0.00076160524
-0.00080290644
-0.00080428194
-0.00076254475
-0.00067302678
-0.00053029211
-0.00032902164
-6.4830008e-05
0.00026475363
0.00065939633
0.0011152267
0.0016241699
0.0021736613
0.0027466509
0.0033220888
0.0038758233
0.0043820151
0.0048149591
0.0051511277
0.0053712977
0.0054624751
0.0054193484
0.0052450215
0.0049508938
0.0045556311
0.0040831841
0.0035604822
0.0030174225
0.0024843637
0.00195626
0.0013967009
0.0024024866
0.0014425275
0.0007937692
0.00032071412
-6.2580994e-05
-0.00036785854
-0.00060764248
-0.0007958424
-0.00094225023
-0.001052466
-0.0011284518
-0.001168919
-0.001169871
-0.001125323
-0.0010280909
-0.00087078655
-0.00064676508
-0.00035121322
1.7793658e-05
0.0004583863
0.00096407842
0.0015233058
0.0021192001
0.0027299911
0.0033298018
0.0038900606
0.004381408
0.004775947
0.0050496841
0.0051848451
0.0051717642
0.0050100411
0.0047087719
0.0042857202
0.0037653237
0.0031762604
0.0025518189
0.0019269284
0.0012929955
0.0006033691
0.0023368991
0.0012681398
0.00055273467
3.6001542e-05
-0.00038159569
-0.00071598558
-0.00098331187
-0.0012006043
-0.001379699
-0.0015272572
-0.0016454895
-0.0017326725
-0.0017837697
-0.0017912433
-0.0017459305
-0.0016381008
-0.0014585429
-0.0011997736
-0.00085721122
-0.0004303027
7.6444575e-05
0.00065288719
0.0012825705
0.0019431373
0.0026068871
0.003242136
0.0038151765
0.0042927325
0.0046447496
0.0048472051
0.0048845836
0.0047516369
0.0044541506
0.0040084813
0.0034396443
0.002778767
0.0020638038
0.0013359238
0.00058412117
-0.000248165
0.0020741402
0.00090634899
0.00012950597
-0.0004288501
-0.00088093417
-0.0012466957
-0.0015456789
-0.0017977169
-0.0020163687
-0.0022090741
-0.0023780418
-0.0025208845
-0.0026313148
-0.0027000042
-0.0027155552
-0.0026656204
-0.002538054
-0.0023222621
-0.0020105112
-0.0015992567
-0.0010904319
-0.00049204045
0.00018027447
0.00090396792
0.0016496549
0.0023823367
0.0030633442
0.0036529753
0.0041136631
0.0044133738
0.0045288293
0.0044481003
0.0041721592
0.003715009
0.0031019943
0.0023671796
0.0015543914
0.00071274268
-0.00017037162
-0.0011616957
0.0015893094
0.00033329941
-0.00049900069
-0.0010963356
-0.0015826468
-0.0019817785
-0.0023164404
-0.0026089961
-0.0028744616
-0.0031208303
-0.003350117
-0.0035590707
-0.0037399579
-0.0038814686
-0.0039697164
-0.0039894218
-0.0039251146
-0.0037625704
-0.0034902671
-0.0031008883
-0.0025928032
-0.0019717397
-0.0012509875
-0.00045275644
0.00039226904
0.0012458204
0.0020638258
0.0027991487
0.0034051248
0.0038396294
0.0040692292
0.0040728759
0.0038445718
0.0033944051
0.0027473132
0.0019404778
0.0010247185
5.8870967e-05
-0.00097070053
-0.0021417131
0.00086021468
-0.0004721363
-0.0013533077
-0.0019866562
-0.0025067571
-0.0029411954
-0.0033156363
-0.0036547366
-0.0039747773
-0.0042841356
-0.0045844873
-0.0048715915
-0.0051361216
-0.0053646246
-0.0055405222
-0.0056452805
-0.0056596687
-0.0055652643
-0.005346024
-0.0049899981
-0.004491097
-0.0038510009
-0.0030801195
-0.0021991236
-0.0012391373
-0.00024128567
0.00074480227
0.0016636977
0.0024580132
0.0030731768
0.003462688
0.0035932198
0.0034488054
0.0030332225
0.0023695652
0.0014978519
0.00047686733
-0.00062294238
-0.0018158089
-0.0031916492
-0.00013218517
-0.0015279917
-0.0024509907
-0.0031172052
-0.0036705896
-0.0041422783
-0.0045607232
-0.0049526724
-0.005335533
-0.0057179667
-0.0061012249
-0.0064800237
-0.006843393
-0.0071756245
-0.0074572738
-0.0076662803
-0.0077792261
-0.0077728796
-0.007625866
-0.0073205813
-0.006845245
-0.0061960615
-0.0053790471
-0.004411842
-0.0033247062
-0.0021607102
-0.00097474204
0.00016894652
0.0012007348
0.0020510765
0.0026569956
0.0029689174
0.0029568726
0.0026148291
0.001961611
0.0010390885
-8.5275294e-05
-0.0013274651
-0.0027018765
-0.0043121606
-0.0014033146
-0.002848818
-0.0038062286
-0.004502015
-0.0050880933
-0.0055989507
-0.0060656646
-0.0065169062
-0.0069711135
-0.0074372083
-0.0079160369
-0.0084012953
-0.008880397
-0.0093353679
-0.0097437907
-0.010079855
-0.01031558
-0.010422338
-0.010372585
-0.010141946
-0.0097115366
-0.009070502
-0.00821853
-0.0071682905
-0.0059473188
-0.0045990854
-0.0031827975
-0.0017715013
-0.00044820291
0.00070009161
0.001590144
0.0021513405
0.0023344763
0.0021188022
0.0015150754
0.00056498403
-0.00065519648
-0.0020456543
-0.0036206941
-0.0054993414
-0.0029644303
-0.0044452
-0.0054292971
-0.006151203
-0.006769227
-0.0073209857
-0.0078400127
-0.0083567819
-0.0088907369
-0.0094511113
-0.010038458
-0.010645592
-0.011258425
-0.011856795
-0.012415316
-0.012904305
-0.013290922
-0.013540618
-0.013618887
-0.013493457
-0.013136859
-0.012529363
-0.011662156
-0.010540544
-0.009186876
-0.007642732
-0.0059698645
-0.0042492542
-0.0025777539
-0.0010619431
0.00019077622
0.0010832527
0.0015405315
0.0015205311
0.0010203414
7.7895237e-05
-0.0012224015
-0.0027630812
-0.0045578308
-0.006742736
-0.0048220755
-0.006323328
-0.0073262117
-0.0080705987
-0.0087194924
-0.0093133808
-0.0098881045
-0.010475871
-0.011097187
-0.011761757
-0.012470046
-0.013214221
-0.013978927
-0.014742005
-0.015475221
-0.016145018
-0.016713529
-0.017139884
-0.017381923
-0.017398435
-0.017151914
-0.016611868
-0.015758628
-0.014587388
-0.013112273
-0.0113699
-0.0094218027
-0.0073549259
-0.0052793531
-0.0033225206
-0.0016195646
-0.00030006329
0.0005275495
0.00079132654
0.00046681086
-0.000417557
-0.0017714264
-0.003458206
-0.0054905
-0.0080229948
-0.0069776731
-0.0084847597
-0.0094985344
-0.010261508
-0.010939588
-0.011575849
-0.012208345
-0.012871031
-0.013585636
-0.014362594
-0.015202605
-0.016097528
-0.017031084
-0.017979436
-0.018911746
-0.019790725
-0.020573462
-0.021212535
-0.021657622
-0.021857706
-0.021763948
-0.021333291
-0.020532824
-0.019344688
-0.017771311
-0.015840536
-0.013609862
-0.011168901
-0.0086388711
-0.0061679697
-0.0039216712
-0.0020676873
-0.00075653206
-0.00010049575
-0.00015623453
-0.00091337824
-0.0022800704
-0.0041001799
-0.0063849681
-0.0093090438
-0.0094273225
-0.010926395
-0.011943407
-0.012720698
-0.013425277
-0.014102538
-0.014792735
-0.0155317
-0.016342678
-0.017237217
-0.018216688
-0.019273105
-0.020389717
-0.021541432
-0.02269518
-0.023810221
-0.024838748
-0.025726761
-0.026415502
-0.026843555
-0.026949724
-0.02667684
-0.025976539
-0.02481503
-0.023179341
-0.021084196
-0.018578284
-0.015749162
-0.012725299
-0.0096735941
-0.0067907197
-0.0042872048
-0.0023644161
-0.0011871126
-0.0008577662
-0.0013963562
-0.0027171873
-0.004646093
-0.007193367
-0.010554608
-0.012161925
-0.01364076
-0.014653876
-0.015440684
-0.016167574
-0.016882047
-0.01762668
-0.01843948
-0.019345676
-0.020358477
-0.021480499
-0.022704484
-0.024013757
-0.025382491
-0.026775844
-0.028150028
-0.029452647
-0.030623303
-0.031594794
-0.032295036
-0.032649848
-0.032586796
-0.032040234
-0.030958028
-0.029308086
-0.027087475
-0.024330623
-0.021117034
-0.017576625
-0.013890513
-0.010284863
-0.0070155715
-0.0043426944
-0.002496493
-0.0016417158
-0.001845259
-0.0030397053
-0.0050375079
-0.0078497429
-0.011693919
-0.015167574
-0.016616602
-0.01761955
-0.018410351
-0.019153242
-0.019897745
-0.020689081
-0.021568011
-0.022562448
-0.023688019
-0.024949312
-0.026340474
-0.027845532
-0.029438495
-0.031083264
-0.032733484
-0.034332589
-0.035814139
-0.037102738
-0.038115707
-0.038765684
-0.038964372
-0.038627608
-0.037683192
-0.036076572
-0.033782903
-0.030816695
-0.027242521
-0.023184204
-0.018829978
-0.014430551
-0.010286461
-0.006721861
-0.0040450487
-0.0025016663
-0.0022266479
-0.0031886315
-0.0051961019
-0.0082652186
-0.012636499
-0.018426331
-0.019839914
-0.020827711
-0.021615993
-0.022365671
-0.023128417
-0.023952778
-0.024883217
-0.025951391
-0.027176342
-0.02856554
-0.030115313
-0.031811054
-0.033627181
-0.035526853
-0.037461631
-0.039371242
-0.041183668
-0.042815764
-0.044174637
-0.045159991
-0.045667794
-0.0455954
-0.044847312
-0.043346356
-0.041041744
-0.037922691
-0.034031732
-0.029477883
-0.024447053
-0.019205954
-0.014094728
-0.0095029993
-0.0058271968
-0.0034130864
-0.0024889067
-0.003083747
-0.005018194
-0.0083220737
-0.013260859
-0.021917494
-0.02329551
-0.024264952
-0.025042827
-0.025786155
-0.026549279
-0.027385303
-0.028343904
-0.029461992
-0.030763369
-0.032259474
-0.033949677
-0.035821395
-0.037849966
-0.039998238
-0.04221608
-0.044439933
-0.046592663
-0.048583912
-0.050311167
-0.051661814
-0.052516485
-0.052753857
-0.052256925
-0.050922901
-0.048673054
-0.045467225
-0.041319444
-0.036314957
-0.030626318
-0.024524518
-0.018379409
-0.01264189
-0.0078019171
-0.0043228193
-0.0025541194
-0.0026167105
-0.0043679633
-0.0078665806
-0.013406994
-0.025619378
-0.026969216
-0.027919397
-0.028676981
-0.029395517
-0.030133235
-0.030949854
-0.031902575
-0.033035683
-0.034379473
-0.035950654
-0.037752536
-0.039775147
-0.041995112
-0.044375213
-0.046863836
-0.049394385
-0.051884955
-0.054238465
-0.056343444
-0.058075786
-0.059301718
-0.059882192
-0.059679034
-0.058564486
-0.056430685
-0.053205508
-0.04886949
-0.043476088
-0.03717313
-0.030221967
-0.023007833
-0.016032224
-0.0098770968
-0.0051359506
-0.0023076257
-0.0016423312
-0.0030691364
-0.0067004055
-0.012867555
-0.02951178
-0.030850874
-0.031783659
-0.032508031
-0.03317609
-0.03385233
-0.034606382
-0.035506376
-0.036606877
-0.03794686
-0.039549776
-0.041423752
-0.043561844
-0.045942075
-0.048527113
-0.051263763
-0.054082349
-0.056896297
-0.0596021
-0.062079888
-0.064194893
-0.065800035
-0.066739924
-0.066856594
-0.065998043
-0.064028348
-0.060842571
-0.056384839
-0.050670809
-0.04381352
-0.036050265
-0.027764221
-0.019490595
-0.011893369
-0.0057007902
-0.0015853361
3.2156538e-05
-0.00089490856
-0.0045703123
-0.011377506
-0.033579396
-0.034938509
-0.035858806
-0.036532187
-0.037113993
-0.037679243
-0.038312602
-0.039097992
-0.040104089
-0.041381187
-0.042961041
-0.044857304
-0.047066168
-0.049566773
-0.052321205
-0.055274162
-0.058352451
-0.061464561
-0.064500542
-0.067332404
-0.069815363
-0.071790061
-0.073086211
-0.073527905
-0.072940187
-0.071161365
-0.068054622
-0.063527184
-0.057553675
-0.050205005
-0.041681631
-0.032346381
-0.022746709
-0.013610072
-0.0057934895
-0.00015933912
0.0026598859
0.0024442229
-0.001155701
-0.0086018753
-0.03781669
-0.039244219
-0.040159697
-0.040756234
-0.041201594
-0.04158862
-0.042024713
-0.042616292
-0.043450961
-0.044593289
-0.04608478
-0.047944939
-0.050172677
-0.052747409
-0.055629607
-0.058760817
-0.062063394
-0.065440174
-0.068774329
-0.071929644
-0.074751608
-0.077069316
-0.078698685
-0.079447204
-0.079120413
-0.077531951
-0.074515763
-0.069943916
-0.063749792
-0.055958471
-0.046724339
-0.036373487
-0.025442442
-0.014696736
-0.0051047191
0.0022770412
0.0065689895
0.0073150573
0.0039467292
-0.0041208313
-0.042235237
-0.043802798
-0.044722291
-0.045202392
-0.04544006
-0.045558027
-0.045697626
-0.045996586
-0.046567099
-0.047490952
-0.048820321
-0.050580151
-0.052770853
-0.055370513
-0.058336255
-0.06160482
-0.065092634
-0.068695662
-0.072289329
-0.075728623
-0.078849169
-0.081468784
-0.083390324
-0.084405968
-0.084303335
-0.082874124
-0.079925906
-0.075298564
-0.068886547
-0.060669123
-0.050750013
-0.039406524
-0.027142896
-0.014733885
-0.003231687
0.0061228095
0.012178671
0.014179373
0.01124259
0.0025895935
-0.04687553
-0.048684883
-0.049613998
-0.04991443
-0.049841908
-0.049568325
-0.04928452
-0.049170424
-0.049368773
-0.049980788
-0.051069088
-0.052662401
-0.054760271
-0.057336851
-0.060343382
-0.063709482
-0.067343618
-0.071133169
-0.074944815
-0.078623313
-0.081994069
-0.084863358
-0.08702108
-0.088244711
-0.088305464
-0.086974283
-0.084035462
-0.079299966
-0.072626909
-0.063952585
-0.053329929
-0.040981029
-0.027361342
-0.013226815
0.0003204031
0.011878519
0.020015801
0.02361569
0.021366252
0.01218486
-0.051827151
-0.054017762
-0.05494869
-0.054965416
-0.054433395
-0.05360321
-0.05273564
-0.052064996
-0.051769575
-0.051970325
-0.052737992
-0.054101525
-0.056055676
-0.058566872
-0.061577093
-0.065005811
-0.068751025
-0.072689314
-0.076678424
-0.080549344
-0.084117529
-0.087176944
-0.089503983
-0.09086114
-0.09100549
-0.089684773
-0.086663512
-0.08172619
-0.074699916
-0.06548184
-0.054076875
-0.040650463
-0.025598965
-0.0096359128
0.0061222114
0.020146327
0.03072985
0.03634633
0.035118508
0.025494962
-0.057265036
-0.060019265
-0.060908659
-0.060467387
-0.059256305
-0.057647537
-0.055996158
-0.054602149
-0.053681152
-0.053370389
-0.053743049
-0.054822108
-0.05659166
-0.059005264
-0.061991578
-0.065456131
-0.069284052
-0.073339346
-0.07746546
-0.081483854
-0.085195879
-0.088382429
-0.090806058
-0.09221413
-0.092344153
-0.090928777
-0.087708128
-0.082441388
-0.074925713
-0.065021771
-0.052689314
-0.038038018
-0.021399527
-0.0034268054
0.014783258
0.031613848
0.045101932
0.053270868
0.053522435
0.043598519
-0.063517411
-0.067053966
-0.06777645
-0.066582558
-0.064367967
-0.06168344
-0.059002524
-0.056696661
-0.055013671
-0.054097301
-0.054012631
-0.054767196
-0.05632624
-0.058624176
-0.061570826
-0.065054796
-0.068945009
-0.073090633
-0.077320731
-0.081443621
-0.085246751
-0.088497001
-0.090942081
-0.092313149
-0.092329193
-0.090703228
-0.087151652
-0.081407092
-0.073235596
-0.06246069
-0.04899667
-0.03289607
-0.014420064
0.0058555901
0.026886037
0.047011429
0.064039594
0.075504965
0.077906973
0.067957456
-0.07119778
-0.075726861
-0.07597909
-0.073533713
-0.069836483
-0.065681815
-0.061675392
-0.058252159
-0.055674471
-0.054073372
-0.053488827
-0.053899952
-0.055241762
-0.057422691
-0.060328498
-0.06382675
-0.067767768
-0.071984122
-0.076289625
-0.080478155
-0.084322935
-0.087576328
-0.089970608
-0.091220019
-0.091024493
-0.089075264
-0.085063148
-0.078691313
-0.069690507
-0.057841762
-0.043007104
-0.025173778
-0.0045207453
0.018481412
0.042876446
0.067022885
0.08853732
0.10441579
0.11003447
0.10067546
-0.081473018
-0.087037159
-0.086139383
-0.081602692
-0.075721366
-0.069581161
-0.063902461
-0.059148906
-0.055559852
-0.053221452
-0.052124106
-0.052198972
-0.053341149
-0.055423394
-0.058302464
-0.061821743
-0.065811159
-0.070085732
-0.074443653
-0.07866435
-0.08250702
-0.085709768
-0.087989671
-0.089044112
-0.0885537
-0.086186894
-0.081606545
-0.074482692
-0.064504189
-0.051399577
-0.03496419
-0.01509914
0.0081287351
0.034385528
0.062882244
0.092100152
0.11954398
0.14161568
0.15229823
0.14500533
-0.096631099
-0.10262
-0.099093722
-0.09107081
-0.082001614
-0.073223014
-0.065486065
-0.059203043
-0.054523711
-0.051440207
-0.049859354
-0.049643589
-0.050633374
-0.052658584
-0.055542749
-0.05910318
-0.063148932
-0.067477817
-0.071873251
-0.076101351
-0.079908608
-0.08302028
-0.085139678
-0.085948647
-0.08510956
-0.082268336
-0.077058956
-0.069114996
-0.058076357
-0.043606299
-0.025412324
-0.0032767045
0.022894552
0.052982278
0.086469994
0.12212295
0.15762917
0.18881019
0.20795992
0.20617954
-0.12124234
-0.12509676
-0.11579655
-0.10202662
-0.088388786
-0.07619405
-0.066018991
-0.058073008
-0.052308556
-0.04855328
-0.046588085
-0.04618242
-0.047109476
-0.049150874
-0.052095412
-0.055735009
-0.059859649
-0.064252264
-0.068684066
-0.072910544
-0.076668264
-0.079672504
-0.081615756
-0.082167305
-0.080974291
-0.07766177
-0.071837668
-0.063097446
-0.051027452
-0.035214138
-0.015253992
0.0092309546
0.038564599
0.072953791
0.11233651
0.15607912
0.20245329
0.24735391
0.2811367
0.29218562
-0.16438796
-0.15836666
-0.1370959
-0.11412852
-0.094106106
-0.077655254
-0.064779501
-0.055210364
-0.048533963
-0.044320306
-0.042177182
-0.041760468
-0.042769897
-0.044939796
-0.048028306
-0.051807089
-0.056052315
-0.060537041
-0.065024952
-0.069265316
-0.072989057
-0.075905772
-0.077701626
-0.07803839
-0.076553559
-0.072851404
-0.066524406
-0.057131356
-0.044206297
-0.027254804
-0.0057465889
0.020894376
0.053299962
0.092150725
0.1381055
0.19163252
0.25247535
0.31732437
0.37608574
0.4151839
-0.24624302
-0.20626606
-0.1620919
-0.12551536
-0.097159132
-0.07591957
-0.060546677
-0.049818324
-0.042721578
-0.038482175
-0.036511924
-0.036355777
-0.03765221
-0.040102656
-0.043447997
-0.04745105
-0.051883602
-0.056516662
-0.061113027
-0.06542157
-0.069172865
-0.072075894
-0.073815691
-0.074052587
-0.072422849
-0.068509839
-0.061907563
-0.05214425
-0.038713209
-0.021050984
0.0014907836
0.029690013
0.064526966
0.1072877
0.15968236
0.22398296
0.3027088
0.39533709
0.49605069
0.60301646
-0.42539244
-0.26567858
-0.17718413
-0.12462541
-0.089136596
-0.065150057
-0.04939038
-0.039260146
-0.033055342
-0.029731753
-0.028605215
-0.029190996
-0.031126104
-0.03412199
-0.037932698
-0.042333831
-0.047108489
-0.052037408
-0.056891717
-0.061427517
-0.065381769
-0.068469122
-0.070379205
-0.070773376
-0.069273618
-0.065529604
-0.059071606
-0.049433542
-0.036096622
-0.018464187
0.0041753227
0.032720541
0.068391007
0.11297158
0.16925324
0.241826
0.33787095
0.46571935
0.64285778
0.92066451
-0.79325679
-0.32438374
-0.14895321
-0.087709039
-0.055362498
-0.0360468
-0.025161667
-0.019283156
-0.016437854
-0.015690127
-0.016544001
-0.018674451
-0.021838618
-0.025836002
-0.030484528
-0.035606295
-0.041018858
-0.04652923
-0.051929272
-0.05699201
-0.061468691
-0.065086417
-0.067546477
-0.068524596
-0.067677858
-0.064595497
-0.058868415
-0.050040555
-0.037603125
-0.020976946
0.00052400987
0.027762341
0.061913228
0.10474715
0.15927058
0.23133827
0.33365708
0.49389597
0.78981947
1.3835807
-2.6535652e-05
-0.00016963861
-0.0004802216
-0.00087971544
-0.0012940593
-0.0016783863
-0.0020021048
-0.0022465828
-0.0024013377
-0.0024607695
-0.0024220268
-0.002283734
-0.002045385
-0.0017073106
-0.0012709686
-0.00073944756
-0.0001180768
0.00058491257
0.00135782
0.0021851225
0.0030473687
0.0039214254
0.0047810674
0.0055979657
0.0063430584
0.0069882267
0.0075081344
0.0078821245
0.0080960444
0.0081438061
0.0080284951
0.0077629479
0.0073698216
0.0068811762
0.0063374723
0.0057856923
0.0052805507
0.0048778491
0.0046390179
0.0045999033
0.00011316994
-3.203493e-05
-0.00028075221
-0.00058715507
-0.00090612563
-0.0012036184
-0.0014556139
-0.0016460705
-0.0017647626
-0.0018053717
-0.0017640424
-0.0016384711
-0.0014274754
-0.0011309394
-0.0007499637
-0.00028722028
0.00025256013
0.00086207769
0.0015310493
0.0022459509
0.0029899234
0.0037431116
0.0044830215
0.0051855272
0.005826015
0.0063808183
0.0068287973
0.0071529639
0.007342023
0.0073916571
0.0073054117
0.0070950839
0.0067805993
0.0063893847
0.0059552873
0.0055169376
0.0051152815
0.0047932588
0.0045957303
0.004559929
0.00042649677
0.00020953731
-4.443782e-05
-0.00032112309
-0.00059847618
-0.00085211615
-0.0010643755
-0.0012232737
-0.0013207253
-0.0013513014
-0.0013113347
-0.0011983601
-0.0010108482
-0.00074816842
-0.00041077137
-5.5081161e-07
0.00047871496
0.0010208984
0.0016171382
0.0022555896
0.0029213555
0.0035966205
0.0042612019
0.0048933047
0.0054706054
0.0059715899
0.0063770272
0.0066714806
0.006844752
0.0068930746
0.006819878
0.0066360572
0.0063597126
0.0060153592
0.0056326732
0.0052448022
0.0048861102
0.0045905592
0.0043941431
0.0043265154
0.00084156453
0.000512383
0.00021439741
-6.8686231e-05
-0.00033630625
-0.00057217569
-0.00076478209
-0.00090694801
-0.00099365961
-0.0010212574
-0.00098696734
-0.00088858427
-0.00072437269
-0.0004931279
-0.00019444337
0.00017084414
0.00060018569
0.0010888329
0.0016294251
0.0022116776
0.002822236
0.003444771
0.0040604913
0.0046488051
0.0051883598
0.0056583488
0.0060399834
0.0063180143
0.0064821748
0.0065283762
0.0064594524
0.0062853764
0.0060229012
0.0056946244
0.0053275472
0.0049512872
0.0045962863
0.0042922319
0.0040652035
0.0039298478
0.0012849474
0.00082872123
0.00046935258
0.00016227933
-0.00011218396
-0.00034479246
-0.00052988931
-0.00066519883
-0.00074904426
-0.00077984534
-0.00075598885
-0.00067568302
-0.00053697865
-0.00033799778
-7.7335826e-05
0.00024542817
0.00062920522
0.0010708125
0.0015644766
0.0021014433
0.0026697402
0.0032542458
0.0038370602
0.0043981393
0.0049163061
0.0053705786
0.0057416758
0.006013605
0.0061751891
0.0062213357
0.0061538317
0.0059815565
0.0057200629
0.0053905344
0.0050181675
0.0046302482
0.004254814
0.0039189478
0.0036381588
0.0034143709
0.00170432
0.0011160483
0.00068628082
0.0003440672
5.1117073e-05
-0.00018946193
-0.00037732756
-0.00051482333
-0.00060357021
-0.00064412652
-0.00063605445
-0.00057793979
-0.00046756858
-0.0003022934
-7.9547759e-05
0.00020253902
0.00054451298
0.00094489938
0.0013995998
0.0019013951
0.0024396008
0.0030000405
0.0035653139
0.0041153997
0.0046286332
0.0050830675
0.0054580702
0.0057360258
0.0059040051
0.0059551761
0.0058897223
0.0057151315
0.0054457837
0.0051018402
0.0047074668
0.0042887745
0.0038729398
0.0034863969
0.0031360741
0.0028090232
0.0020551147
0.0013363747
0.00083277621
0.0004489914
0.00012972781
-0.00012720507
-0.00032622641
-0.00047394396
-0.00057504025
-0.00063204383
-0.00064556263
-0.00061443585
-0.0005360497
-0.00040683802
-0.00022290687
1.9246968e-05
0.00032198613
0.0006857019
0.0011080894
0.0015835189
0.0021025635
0.0026518603
0.0032142447
0.0037693017
0.0042943291
0.0047657313
0.0051607184
0.0054591695
0.0056455033
0.0057103048
0.0056514569
0.0054745949
0.0051927868
0.0048254203
0.0043962975
0.0039314423
0.0034586647
0.0030055768
0.0025723163
0.0021325611
0.0022993328
0.00145546
0.00087839452
0.00045023954
0.00010007194
-0.00017903455
-0.00039578387
-0.00056066248
-0.00068108957
-0.00076128461
-0.00080265712
-0.00080409744
-0.00076241706
-0.00067294566
-0.00053025969
-0.0003290192
-6.4843415e-05
0.00026472032
0.0006593433
0.0011151462
0.0016240538
0.002173515
0.0027464891
0.0033219206
0.003875651
0.004381844
0.0048147929
0.0051509677
0.0053711423
0.0054623222
0.005419195
0.0052448637
0.004950728
0.0045554564
0.0040830055
0.003560289
0.0030171577
0.00248415
0.0019564311
0.0013961324
0.0024037031
0.0014420798
0.00079425124
0.00032131875
-6.214157e-05
-0.00036744166
-0.00060721612
-0.00079544222
-0.00094190529
-0.0010521876
-0.0011282331
-0.0011687527
-0.0011697579
-0.0011252514
-0.001028058
-0.00087077572
-0.00064676538
-0.00035123771
1.7738153e-05
0.0004582974
0.00096395582
0.0015231566
0.0021190364
0.0027298197
0.0033296262
0.0038898854
0.0043812354
0.0047757788
0.0050495199
0.0051846831
0.005171601
0.0050098737
0.0047085976
0.0042855395
0.0037651434
0.0031760658
0.0025515364
0.0019267123
0.0012932667
0.00060270795
0.0023382257
0.0012675482
0.00055315394
3.6574188e-05
-0.00038118048
-0.00071558185
-0.00098290864
-0.0012002456
-0.0013794003
-0.0015270153
-0.0016452963
-0.001732524
-0.0017836695
-0.0017911777
-0.0017458888
-0.0016380745
-0.0014585347
-0.0011997964
-0.00085727009
-0.00043039659
7.6319939e-05
0.00065273835
0.001282408
0.0019429657
0.0026067098
0.0032419573
0.0038149989
0.0042925574
0.0046445766
0.0048470336
0.0048844112
0.0047514613
0.0044539688
0.0040082943
0.0034394612
0.0027785687
0.0020634994
0.0013357033
0.0005844978
-0.00024892526
0.0020755129
0.00090559001
0.00012986793
-0.00042828609
-0.00088053263
-0.0012463233
-0.0015453244
-0.0017974106
-0.0020161116
-0.0022088594
-0.0023778706
-0.0025207547
-0.0026312202
-0.0026999315
-0.0027155005
-0.0026655802
-0.0025380396
-0.0023222865
-0.0020105742
-0.0015993514
-0.0010905512
-0.00049218402
0.00018011527
0.0009037975
0.0016494783
0.0023821566
0.0030631622
0.0036527928
0.004113481
0.0044131921
0.004528647
0.0044479163
0.00417197
0.0037148152
0.0031018062
0.0023669725
0.0015540588
0.00071251347
-0.00016988226
-0.0011625681
0.0015907043
0.00033241187
-0.00049866221
-0.0010957766
-0.0015822796
-0.0019814608
-0.002316142
-0.0026087324
-0.0028742361
-0.0031206418
-0.0033499652
-0.0035589506
-0.0037398604
-0.0038813811
-0.0039696467
-0.0039893751
-0.0039251011
-0.003762596
-0.0034903287
-0.0031009806
-0.0025929232
-0.0019718764
-0.0012511394
-0.0004529221
0.00039209469
0.0012456397
0.0020636401
0.0027989589
0.0034049327
0.0038394361
0.0040690357
0.0040726828
0.0038443749
0.003394203
0.0027471164
0.0019402537
0.0010243407
5.8622087e-05
-0.00097008181
-0.0021427233
0.00086164863
-0.00047310913
-0.0013529922
-0.0019861313
-0.0025064479
-0.0029409323
-0.0033153804
-0.003654504
-0.003974576
-0.0042839684
-0.0045843476
-0.0048714666
-0.0051360098
-0.0053645243
-0.0055404442
-0.0056452309
-0.0056596565
-0.0055652891
-0.0053460797
-0.0049900804
-0.0044912045
-0.0038511263
-0.0030802621
-0.0021992821
-0.0012393076
-0.00024146619
0.00074461251
0.0016635002
0.0024578108
0.0030729716
0.0034624832
0.0035930174
0.0034486013
0.0030330135
0.0023693597
0.0014976027
0.00047642056
-0.00062322108
-0.0018150441
-0.0031928132
-0.00013071236
-0.0015290546
-0.0024507263
-0.003116733
-0.0036703363
-0.0041420568
-0.0045604984
-0.0049524684
-0.0053353545
-0.0057178095
-0.0061010834
-0.0064798873
-0.0068432649
-0.0071755146
-0.0074571943
-0.007666232
-0.0077792119
-0.0077728964
-0.0076259098
-0.0073206498
-0.0068453364
-0.0061961721
-0.0053791774
-0.0044119906
-0.0033248702
-0.0021608892
-0.00097493524
0.00016874116
0.0012005213
0.0020508594
0.0026567788
0.0029687041
0.0029566601
0.0026146151
0.0019614019
0.0010388216
-8.5829509e-05
-0.0013277687
-0.0027009359
-0.0043134934
-0.0014018352
-0.0028499848
-0.0038060219
-0.0045015821
-0.005087874
-0.0055987564
-0.0060654621
-0.0065167198
-0.0069709441
-0.0074370465
-0.0079158797
-0.0084011444
-0.0088802607
-0.0093352566
-0.0097437122
-0.010079806
-0.010315561
-0.010422343
-0.010372614
-0.010141998
-0.0097116104
-0.0090705955
-0.0082186448
-0.0071684262
-0.0059474735
-0.0045992596
-0.0031829912
-0.0017717121
-0.00044842506
0.00069986493
0.0015899172
0.0021511178
0.0023342567
0.0021185842
0.001514875
0.00056473462
-0.00065571014
-0.002045939
-0.0036195366
-0.0055008726
-0.0029629736
-0.0044464527
-0.0054291275
-0.0061507911
-0.0067690297
-0.0073208122
-0.0078398272
-0.0083566021
-0.0088905616
-0.0094509373
-0.01003829