/*--------------------------------*- C++ -*----------------------------------*\
  =========                 |
  \\      /  F ield         | OpenFOAM: The Open Source CFD Toolbox
   \\    /   O peration     | Website:  https://openfoam.org
    \\  /    A nd           | Version:  7
     \\/     M anipulation  |
\*---------------------------------------------------------------------------*/
FoamFile
{
    version     2.0;
    format      ascii;
    class       surfaceScalarField;
    location    "10";
    object      phi;
}
// * * * * * * * * * * * * * * * * * * * * * * * * * * * * * * * * * * * * * //

dimensions      [0 3 -1 0 0 0 0];

internalField   nonuniform List<scalar> 
45600
(
2.7502771e-07
-2.7551247e-07
5.523612e-10
3.9787117e-07
-1.2323707e-07
3.9973194e-10
1.258749e-07
2.717612e-07
2.1822752e-10
-5.6565236e-07
6.9144538e-07
1.1234975e-10
-1.6353016e-06
1.0695792e-06
5.5162404e-11
-3.0129041e-06
1.3776096e-06
2.753562e-11
-4.624529e-06
1.6116019e-06
1.242257e-11
-6.4021038e-06
1.7775739e-06
6.0037114e-12
-8.2861534e-06
1.8840658e-06
4.4075541e-12
-1.0225226e-05
1.9390578e-06
4.6521178e-12
-1.2173993e-05
1.9487496e-06
6.1824566e-12
-1.4091149e-05
1.9171477e-06
7.9420375e-12
-1.5937376e-05
1.8462174e-06
8.7525996e-12
-1.7673754e-05
1.7363627e-06
8.9464086e-12
-1.9260828e-05
1.5870646e-06
9.4611164e-12
-2.0658405e-05
1.3975745e-06
1.0028931e-11
-2.1826029e-05
1.1676179e-06
9.7713772e-12
-2.2724107e-05
8.9806849e-07
8.6474879e-12
-2.3315655e-05
5.9153427e-07
6.6997019e-12
-2.3568468e-05
2.5280693e-07
4.6024491e-12
-2.3457611e-05
-1.1085657e-07
2.4383148e-12
-2.2967954e-05
-4.8965519e-07
-1.6027707e-13
-2.2096645e-05
-8.7131193e-07
-2.9366992e-12
-2.0855153e-05
-1.2414908e-06
-5.3491239e-12
-1.9270718e-05
-1.5844249e-06
-7.4399407e-12
-1.7386938e-05
-1.8837686e-06
-9.4828354e-12
-1.5263297e-05
-2.1236346e-06
-1.1511676e-11
-1.2973534e-05
-2.2897511e-06
-1.3054886e-11
-1.0602875e-05
-2.3706415e-06
-1.3860686e-11
-8.2441856e-06
-2.3586791e-06
-1.4059309e-11
-5.9932319e-06
-2.2509427e-06
-1.3409609e-11
-3.9434245e-06
-2.0497955e-06
-1.1863131e-11
-2.1802564e-06
-1.7631585e-06
-9.4940019e-12
-7.7559989e-07
-1.404652e-06
-6.4528722e-12
2.1858968e-07
-9.9419119e-07
-3.0612906e-12
7.7817939e-07
-5.5959256e-07
-7.9655941e-15
9.1521093e-07
-1.3703416e-07
3.384283e-12
6.9755886e-07
2.1764565e-07
7.3362398e-12
2.8806111e-07
4.0948625e-07
1.1460957e-11
2.8805605e-07
4.961646e-12
1.3052447e-07
-4.0643716e-07
4.0111208e-10
-3.0452613e-07
3.1154106e-07
2.96093e-10
-1.6114092e-06
1.5784769e-06
1.6708503e-10
-3.8547886e-06
2.9346906e-06
8.114609e-11
-6.9625213e-06
4.1772998e-06
3.0227406e-11
-1.0802346e-05
5.2173972e-06
-3.1626739e-13
-1.5219042e-05
6.0282926e-06
-1.7722105e-11
-2.0056652e-05
6.6152177e-06
-2.5651204e-11
-2.5168539e-05
6.9959768e-06
-2.8118331e-11
-3.0420046e-05
7.1905814e-06
-2.7379074e-11
-3.5687349e-05
7.2160903e-06
-2.5223756e-11
-4.0854658e-05
7.0844908e-06
-2.3401098e-11
-4.5811021e-05
6.8025939e-06
-2.2004176e-11
-5.0447764e-05
6.3731144e-06
-1.9777178e-11
-5.465711e-05
5.7964273e-06
-1.6217807e-11
-5.8332216e-05
5.0726955e-06
-1.2369372e-11
-6.1368676e-05
4.20408e-06
-9.0642182e-12
-6.3667436e-05
3.1968319e-06
-5.6910654e-12
-6.5138979e-05
2.063082e-06
-2.2959696e-12
-6.5708335e-05
8.2216874e-07
1.1512953e-12
-6.5320858e-05
-4.9833798e-07
4.7081722e-12
-6.3947397e-05
-1.8631289e-06
8.278219e-12
-6.1590023e-05
-3.2287002e-06
1.1884871e-11
-5.8285957e-05
-4.5455726e-06
1.5649774e-11
-5.4110347e-05
-5.7600546e-06
1.9116661e-11
-4.9177001e-05
-6.8171334e-06
2.1830172e-11
-4.3636774e-05
-7.6638838e-06
2.361271e-11
-3.7673372e-05
-8.2531812e-06
2.4596631e-11
-3.1496572e-05
-8.5474668e-06
2.496278e-11
-2.5333028e-05
-8.5222464e-06
2.4563052e-11
-1.9415015e-05
-8.1689777e-06
2.347994e-11
-1.3967661e-05
-7.4971714e-06
2.1759572e-11
-9.1951552e-06
-6.5356882e-06
1.9429736e-11
-5.2662613e-06
-5.3335657e-06
1.6595185e-11
-2.2992483e-06
-3.9612175e-06
1.3463145e-11
-3.4558458e-07
-2.5132655e-06
1.0165494e-11
6.3289201e-07
-1.115519e-06
6.5065688e-12
7.88433e-07
6.2093852e-08
4.8918238e-12
4.1223092e-07
7.8567375e-07
6.0354587e-12
7.0028641e-07
-5.5750824e-13
-2.731503e-07
-1.3351554e-07
2.1194507e-10
-1.6188073e-06
1.6570265e-06
1.7214923e-10
-4.2607309e-06
4.22025e-06
1.3012369e-10
-8.2130912e-06
6.887028e-06
5.572581e-11
-1.3367666e-05
9.3318412e-06
2.3928513e-11
-1.9546189e-05
1.1395912e-05
3.8655479e-12
-2.6538975e-05
1.3021107e-05
-7.4164193e-12
-3.4129462e-05
1.4205715e-05
-1.2235071e-11
-4.2107221e-05
1.497373e-05
-1.2471614e-11
-5.0273034e-05
1.5356405e-05
-1.0354193e-11
-5.8439159e-05
1.5382227e-05
-8.4068699e-12
-6.6427073e-05
1.5072408e-05
-7.2886469e-12
-7.4064564e-05
1.4440087e-05
-6.0447709e-12
-8.1183396e-05
1.3491954e-05
-4.1082818e-12
-8.7618288e-05
1.2231332e-05
-1.8814641e-12
-9.3207664e-05
1.0662069e-05
-2.51773e-13
-9.7796229e-05
8.7926313e-06
7.6796853e-13
-0.00010123936
6.6399583e-06
1.7648495e-12
-0.00010340901
4.2327399e-06
2.4737834e-12
-0.00010420073
1.613888e-06
2.8369563e-12
-0.000103541
-1.1580807e-06
3.125265e-12
-0.00010139485
-4.0092797e-06
3.4532874e-12
-9.7772555e-05
-6.851009e-06
3.8726329e-12
-9.2734885e-05
-9.583246e-06
4.4735399e-12
-8.63964e-05
-1.2098538e-05
4.973136e-12
-7.8926001e-05
-1.4287541e-05
4.9497891e-12
-7.0544334e-05
-1.6045564e-05
4.5613362e-12
-6.1517774e-05
-1.7279745e-05
4.2303661e-12
-5.214892e-05
-1.7916322e-05
4.025179e-12
-4.2763721e-05
-1.790745e-05
3.8593089e-12
-3.3695717e-05
-1.723699e-05
3.752434e-12
-2.5267999e-05
-1.5924898e-05
3.7859199e-12
-1.7773587e-05
-1.4030104e-05
4.0322158e-12
-1.1454897e-05
-1.1652261e-05
4.3843946e-12
-6.4827287e-06
-8.9333945e-06
4.7573832e-12
-2.9346697e-06
-6.0613319e-06
5.1288593e-12
-7.728603e-07
-3.2773322e-06
5.2429095e-12
1.7898112e-07
-8.8975301e-07
5.7455858e-12
2.5920538e-07
7.0543585e-07
7.3203321e-12
9.5948689e-07
3.0001165e-12
-7.4065722e-07
6.07071e-07
1.0118016e-10
-3.1546929e-06
4.0709134e-06
9.2854899e-11
-7.2848047e-06
8.3503505e-06
5.6097588e-11
-1.3049068e-05
1.2651266e-05
-2.4502834e-13
-2.0274288e-05
1.655704e-05
9.661239e-12
-2.8731017e-05
1.9852663e-05
-2.0455967e-12
-3.8162408e-05
2.2452507e-05
-8.7117135e-12
-4.8304473e-05
2.4347777e-05
-1.0662057e-11
-5.8897993e-05
2.5567258e-05
-9.3792428e-12
-6.9693746e-05
2.6152175e-05
-7.4139897e-12
-8.0453272e-05
2.614175e-05
-6.3018892e-12
-9.0947217e-05
2.5566339e-05
-5.3062383e-12
-0.00010095304
2.4445918e-05
-3.4222047e-12
-0.00011025336
2.2792277e-05
-1.185685e-12
-0.0001186356
2.0613577e-05
6.3263255e-13
-0.00012589366
1.7920118e-05
1.6806032e-12
-0.00013183149
1.4730451e-05
2.3435293e-12
-0.00013626866
1.107713e-05
3.0228619e-12
-0.00013904751
7.0115884e-06
3.1447642e-12
-0.00014004133
2.6077053e-06
2.883551e-12
-0.00013916299
-2.0364263e-06
2.7457337e-12
-0.0001363737
-6.7985763e-06
2.757359e-12
-0.00013169044
-1.1534271e-05
2.8362524e-12
-0.00012519203
-1.608166e-05
2.8481524e-12
-0.00011702271
-2.0267862e-05
2.7259594e-12
-0.00010739267
-2.3917576e-05
2.2661388e-12
-9.6575021e-05
-2.6863223e-05
1.5348458e-12
-8.489867e-05
-2.8956097e-05
1.0076766e-12
-7.273719e-05
-3.0077802e-05
7.0399379e-13
-6.0493551e-05
-3.015109e-05
5.8135848e-13
-4.8581267e-05
-2.9149274e-05
6.8849388e-13
-3.740262e-05
-2.7103547e-05
1.0535871e-12
-2.7324856e-05
-2.4107873e-05
1.6879105e-12
-1.8655397e-05
-2.0321725e-05
2.5184099e-12
-1.1617132e-05
-1.5971665e-05
3.4303638e-12
-6.3246782e-06
-1.1353791e-05
4.3895259e-12
-2.7624657e-06
-6.8395511e-06
5.3836726e-12
-7.6738872e-07
-2.8848376e-06
6.13371e-12
-1.4314717e-08
-4.7650014e-08
6.3814151e-12
9.4516479e-07
5.9365344e-12
-1.2172812e-06
1.8243019e-06
3.7481042e-11
-4.744537e-06
7.5981363e-06
4.9026578e-11
-1.0423527e-05
1.4029306e-05
2.3160252e-11
-1.8042236e-05
2.0269942e-05
6.0967808e-12
-2.7340797e-05
2.5855618e-05
-3.5011468e-12
-3.8028369e-05
3.0540246e-05
-1.017441e-11
-4.9800004e-05
3.4224138e-05
-1.3272396e-11
-6.2349684e-05
3.6897469e-05
-1.2947146e-11
-7.5378314e-05
3.8595907e-05
-1.1405777e-11
-8.8597086e-05
3.9370952e-05
-1.0303408e-11
-0.00010172757
3.9272241e-05
-9.3888626e-12
-0.00011450016
3.8338931e-05
-7.7911047e-12
-0.00012665212
3.6597887e-05
-5.4668629e-12
-0.00013792652
3.4066674e-05
-3.2913876e-12
-0.0001480726
3.0759659e-05
-1.522105e-12
-0.00015684823
2.6695745e-05
-2.4890358e-13
-0.00016402433
2.1906548e-05
7.3823558e-13
-0.00016939127
1.6444067e-05
1.7193187e-12
-0.00017276681
1.0387127e-05
2.1189004e-12
-0.00017400513
3.8460176e-06
2.2886035e-12
-0.00017300627
-3.0352866e-06
2.8810695e-12
-0.00016972549
-1.0079362e-05
3.6174291e-12
-0.00016418155
-1.7078213e-05
4.2550354e-12
-0.00015646339
-2.3799827e-05
4.7305114e-12
-0.00014673427
-2.9996982e-05
4.972183e-12
-0.00013523282
-3.5419032e-05
4.8821474e-12
-0.00012227014
-3.9825917e-05
4.5096886e-12
-0.00010822254
-4.3003693e-05
4.2295178e-12
-9.3519711e-05
-4.4780636e-05
4.0892938e-12
-7.8628029e-05
-4.5042775e-05
4.0035017e-12
-6.402966e-05
-4.374765e-05
3.9437834e-12
-5.0197962e-05
-4.0935253e-05
4.0165931e-12
-3.7570412e-05
-3.6735428e-05
4.2848654e-12
-2.6520456e-05
-3.1371685e-05
4.6535516e-12
-1.7329945e-05
-2.5162179e-05
4.9688661e-12
-1.0163961e-05
-1.8519783e-05
5.3339433e-12
-5.0498965e-06
-1.1953624e-05
6.1174822e-12
-1.8632854e-06
-6.0714562e-06
5.949858e-12
-3.2468849e-07
-1.5862543e-06
3.0554054e-12
6.2046765e-07
8.1487471e-12
-1.6767005e-06
3.5010299e-06
3.7827252e-12
-6.3084686e-06
1.2229842e-05
2.5219477e-11
-1.3535363e-05
2.1256197e-05
2.8518724e-12
-2.3002048e-05
2.9736649e-05
-7.184836e-12
-3.4348656e-05
3.720224e-05
-1.0874097e-11
-4.7214181e-05
4.3405772e-05
-1.3528074e-11
-6.124245e-05
4.8252413e-05
-1.3877373e-11
-7.6087142e-05
5.1742176e-05
-1.267272e-11
-9.1414472e-05
5.3923251e-05
-1.1585799e-11
-0.0001069034
5.4859879e-05
-1.0805178e-11
-0.00012224406
5.4612906e-05
-9.4590202e-12
-0.00013713552
5.3230396e-05
-7.2835043e-12
-0.00015128371
5.0746092e-05
-4.9424681e-12
-0.00016440062
4.7183589e-05
-3.1733759e-12
-0.00017620514
4.2564166e-05
-1.6368819e-12
-0.00018642595
3.6916554e-05
-3.2866341e-13
-0.00019480657
3.0287173e-05
6.4035942e-13
-0.00020111221
2.2749711e-05
1.4608946e-12
-0.0002051382
1.4413113e-05
1.8513102e-12
-0.00020671949
5.4272999e-06
2.1428041e-12
-0.0002057407
-4.0140829e-06
2.954968e-12
-0.000202146
-1.3674059e-05
3.9524092e-12
-0.00019594831
-2.3275905e-05
4.6172616e-12
-0.00018723686
-3.2511287e-05
4.9947754e-12
-0.00017618247
-4.105138e-05
5.1858566e-12
-0.00016303971
-4.8561799e-05
5.1162217e-12
-0.00014814508
-5.4720551e-05
4.8720782e-12
-0.00013191053
-5.9238239e-05
4.6596096e-12
-0.0001148118
-6.187937e-05
4.5057215e-12
-9.7371264e-05
-6.2483319e-05
4.4102403e-12
-8.0135589e-05
-6.0983332e-05
4.3559623e-12
-6.3648889e-05
-5.742196e-05
4.4180792e-12
-4.8422636e-05
-5.1961684e-05
4.6628389e-12
-3.4904222e-05
-4.4890103e-05
4.9899597e-12
-2.3446387e-05
-3.662002e-05
5.2100106e-12
-1.4280104e-05
-2.7686074e-05
5.5279282e-12
-7.4936239e-06
-1.8740115e-05
6.6509543e-12
-3.0208003e-06
-1.0544287e-05
6.0092387e-12
-6.4218459e-07
-3.9648739e-06
4.9348726e-13
-2.1727291e-08
1.0575728e-11
-2.1108256e-06
5.6118609e-06
-1.6339204e-11
-7.8091189e-06
1.7928102e-05
1.3959992e-11
-1.6543996e-05
2.9991101e-05
-8.3635286e-12
-2.7815222e-05
4.1007898e-05
-1.4661612e-11
-4.1157403e-05
5.0544416e-05
-1.3906567e-11
-5.6134418e-05
5.8382793e-05
-1.3596121e-11
-7.23365e-05
6.4454517e-05
-1.2889061e-11
-8.9377707e-05
6.87834e-05
-1.2082273e-11
-0.00010689298
7.1438522e-05
-1.1481981e-11
-0.00012453453
7.2501419e-05
-1.0300686e-11
-0.00014196785
7.2046249e-05
-8.3213677e-12
-0.00015886818
7.0130731e-05
-6.0861582e-12
-0.00017491772
6.6795638e-05
-4.1416076e-12
-0.00018980468
6.2070538e-05
-2.6829795e-12
-0.00020322411
5.5983592e-05
-1.2078177e-12
-0.000214881
4.8573452e-05
-3.4416402e-14
-0.00022449542
3.9901596e-05
7.0033437e-13
-0.00023180952
3.006381e-05
1.2398948e-12
-0.00023659616
1.919974e-05
1.6259959e-12
-0.00023866862
7.499754e-06
2.1973877e-12
-0.00023789112
-4.7915851e-06
3.1231264e-12
-0.00023418936
-1.7375818e-05
4.0682796e-12
-0.0002275608
-2.9904472e-05
4.6162535e-12
-0.0002180836
-4.1988495e-05
4.8523549e-12
-0.00020592371
-5.3211271e-05
4.9746928e-12
-0.00019133904
-6.3146475e-05
4.8900744e-12
-0.00017467965
-7.1379941e-05
4.6825374e-12
-0.00015638311
-7.7534782e-05
4.4843908e-12
-0.00013696401
-8.1298483e-05
4.3350292e-12
-0.00011699712
-8.2450207e-05
4.2471003e-12
-9.7094287e-05
-8.0886174e-05
4.2361551e-12
-7.7875408e-05
-7.6640843e-05
4.3450003e-12
-5.9935258e-05
-6.9901838e-05
4.6085714e-12
-4.3808152e-05
-6.1017215e-05
4.9354507e-12
-2.9933425e-05
-5.0494753e-05
5.1458517e-12
-1.8625017e-05
-3.8994489e-05
5.5506245e-12
-1.004859e-05
-2.7316551e-05
7.1675051e-12
-4.209723e-06
-1.6383161e-05
6.1226675e-12
-9.5651471e-07
-7.2180822e-06
-2.1953178e-12
-9.7825422e-07
1.2860553e-11
-2.5176611e-06
8.1295495e-06
-2.718201e-11
-9.2291005e-06
2.4639549e-05
1.1290963e-11
-1.9407131e-05
4.0169131e-05
-1.344923e-11
-3.2411886e-05
5.4012654e-05
-1.7732954e-11
-4.7672997e-05
6.5805536e-05
-1.3882827e-11
-6.4678319e-05
7.5388136e-05
-1.2666922e-11
-8.2964079e-05
8.2740285e-05
-1.2485126e-11
-0.00010210583
8.792515e-05
-1.2045928e-11
-0.00012171015
9.104285e-05
-1.1065359e-11
-0.00014140702
9.2198299e-05
-9.299228e-12
-0.00016084302
9.1482265e-05
-7.2308927e-12
-0.00017967588
8.8963594e-05
-5.3507048e-12
-0.00019757066
8.4690414e-05
-3.7032199e-12
-0.00021419805
7.8697917e-05
-2.3525498e-12
-0.00022923482
7.1020372e-05
-9.4030348e-13
-0.00024236664
6.1705281e-05
-7.0685816e-14
-0.00025329291
5.082786e-05
3.888284e-13
-0.00026173353
3.8504426e-05
9.6602444e-13
-0.00026743741
2.4903616e-05
1.5379433e-12
-0.00027019226
1.0254601e-05
2.3358707e-12
-0.00026983543
-5.1484108e-06
3.3674548e-12
-0.00026626522
-2.0946026e-05
4.2429488e-12
-0.00025945259
-3.6717116e-05
4.6926397e-12
-0.00024945199
-5.1989096e-05
4.8795158e-12
-0.00023641104
-6.6252222e-05
4.9984107e-12
-0.0002205776
-7.8979926e-05
4.9600773e-12
-0.00020230314
-8.9654407e-05
4.8198695e-12
-0.00018204106
-9.7796864e-05
4.6404405e-12
-0.00016033854
-0.000103001
4.5058354e-12
-0.00013782098
-0.00010496777
4.4344763e-12
-0.00011516856
-0.0001035386
4.4516741e-12
-9.3085375e-05
-9.8724034e-05
4.5764082e-12
-7.2262598e-05
-9.0724619e-05
4.8097892e-12
-5.3338281e-05
-7.9941539e-05
5.0659758e-12
-3.6857317e-05
-6.6975726e-05
5.1787857e-12
-2.3235696e-05
-5.2616116e-05
5.6025095e-12
-1.273327e-05
-3.7818987e-05
7.6794702e-12
-5.4390179e-06
-2.3677421e-05
6.197202e-12
-1.2722096e-06
-1.1384885e-05
-4.9623614e-12
-2.2504799e-06
1.5349495e-11
-2.8963776e-06
1.102597e-05
-3.2844103e-11
-1.0558134e-05
3.2301286e-05
1.2982515e-11
-2.2097072e-05
5.1708064e-05
-1.3980362e-11
-3.6742882e-05
6.8658485e-05
-1.7535615e-11
-5.3825003e-05
8.2887678e-05
-1.2744401e-11
-7.2757689e-05
9.4320827e-05
-1.2090356e-11
-9.3024894e-05
0.00010300749
-1.2365457e-11
-0.00011416584
0.0001090661
-1.1605996e-11
-0.00013576186
0.00011263889
-1.0004042e-11
-0.00015742487
0.00011386132
-8.072944e-12
-0.00017878756
0.00011284496
-6.3437501e-12
-0.00019949577
0.00010967181
-4.8223387e-12
-0.00021920323
0.00010439787
-3.2803492e-12
-0.00023756867
9.7063354e-05
-2.0748788e-12
-0.00025425545
8.7707169e-05
-9.5288847e-13
-0.00026893362
7.6383448e-05
-3.1384994e-13
-0.000281284
6.3178231e-05
8.7224673e-15
-0.00029100443
4.8224859e-05
7.1003443e-13
-0.00029781779
3.1716978e-05
1.6097926e-12
-0.0003014816
1.3918406e-05
2.5781279e-12
-0.00030179917
-4.8308442e-06
3.5555944e-12
-0.00029863167
-2.4113521e-05
4.3292037e-12
-0.00029191166
-4.3437133e-05
4.7502161e-12
-0.00028165626
-6.2244507e-05
4.9712371e-12
-0.00026798006
-7.9928421e-05
5.0929097e-12
-0.00025110623
-9.5853759e-05
5.0821843e-12
-0.00023137419
-0.00010938645
5.0062756e-12
-0.0002092422
-0.00011992886
4.8770885e-12
-0.00018528292
-0.00012696029
4.7611376e-12
-0.00016017028
-0.00013008043
4.6988501e-12
-0.00013465659
-0.00012905229
4.7334331e-12
-0.00010954005
-0.00012384058
4.8561213e-12
-8.5623722e-05
-0.00011464095
5.0546167e-12
-6.3669241e-05
-0.00010189603
5.241183e-12
-4.4349202e-05
-8.6295773e-05
5.2291957e-12
-2.8203546e-05
-6.8761778e-05
5.6422476e-12
-1.5605072e-05
-5.0417473e-05
8.194825e-12
-6.738859e-06
-3.254364e-05
6.2663563e-12
-1.5990101e-06
-1.6524725e-05
-7.8672505e-12
-3.8495093e-06
1.7849749e-11
-3.2456576e-06
1.4271658e-05
-3.5815243e-11
-1.1787153e-05
4.0842759e-05
1.7156737e-11
-2.4590734e-05
6.4511651e-05
-1.2159744e-11
-4.0766974e-05
8.4834747e-05
-1.6608142e-11
-5.9552654e-05
0.00010167337
-1.20421e-11
-8.0293366e-05
0.00011506154
-1.1709129e-11
-0.00010242442
0.00012513854
-1.1694927e-11
-0.00012545195
0.00013209364
-1.0404118e-11
-0.00014893562
0.00013612257
-8.6643894e-12
-0.00017247336
0.00013739907
-7.014469e-12
-0.00019568869
0.00013606029
-5.6032223e-12
-0.0002182208
0.00013220391
-4.3066474e-12
-0.00023971737
0.00012589445
-2.9063852e-12
-0.00025983032
0.00011717631
-1.9021198e-12
-0.00027821414
0.00010609099
-1.208532e-12
-0.00029452667
9.2695985e-05
-7.6172403e-13
-0.00030843225
7.7083805e-05
-2.3932314e-13
-0.00031960683
5.9399433e-05
6.616041e-13
-0.00032774522
3.985537e-05
1.7075188e-12
-0.0003325703
1.8743484e-05
2.7231272e-12
-0.00033384438
-3.5567616e-06
3.6147609e-12
-0.00033138167
-2.6576244e-05
4.316683e-12
-0.00032506419
-4.9754617e-05
4.7109727e-12
-0.00031485742
-7.2451279e-05
4.9789879e-12
-0.00030082718
-9.3958666e-05
5.1419832e-12
-0.00028315558
-0.00011352537
5.1834926e-12
-0.0002621543
-0.00013038773
5.1490525e-12
-0.000238273
-0.00014381017
5.0801253e-12
-0.00021210013
-0.00015313316
5.0157934e-12
-0.00018435385
-0.00015782671
4.9752629e-12
-0.000155861
-0.00015754515
4.9998819e-12
-0.00012752343
-0.00015217816
5.0929978e-12
-0.00010027272
-0.00014189166
5.2747749e-12
-7.5016274e-05
-0.00012715248
5.4228747e-12
-5.2579897e-05
-0.00010873216
5.3093341e-12
-3.3653205e-05
-8.7688477e-05
5.7530592e-12
-1.8744535e-05
-6.5326153e-05
8.827914e-12
-8.1513975e-06
-4.3136785e-05
6.393744e-12
-1.9502928e-06
-2.2725817e-05
-1.0923077e-11
-5.7998253e-06
2.0525445e-11
-3.5632465e-06
1.7834926e-05
-3.706038e-11
-1.2906131e-05
5.0185633e-05
2.2012297e-11
-2.6865112e-05
7.8470644e-05
-1.0497641e-11
-4.4444324e-05
0.00010241397
-1.6357469e-11
-6.4797233e-05
0.00012202628
-1.1645651e-11
-8.7207451e-05
0.00013747176
-1.0798494e-11
-0.00011106662
0.00014899772
-1.0282762e-11
-0.00013585196
0.000156879
-8.8841855e-12
-0.00016110538
0.000161376
-7.4562325e-12
-0.00018641505
0.00016270873
-6.2259789e-12
-0.0002113999
0.00016104515
-4.9648746e-12
-0.00023569735
0.00015650137
-3.7636474e-12
-0.00025895419
0.00014915129
-2.7435612e-12
-0.00028082049
0.00013904262
-2.1072083e-12
-0.00030094635
0.00012621685
-1.5859124e-12
-0.00031898116
0.0001107308
-1.1656909e-12
-0.00033457517
9.2677814e-05
-4.1770962e-13
-0.00034738329
7.2207557e-05
7.0869588e-13
-0.00035707114
4.9543222e-05
1.8269543e-12
-0.0003633234
2.4995737e-05
2.7489303e-12
-0.00036585553
-1.02464e-06
3.4587474e-12
-0.00036442558
-2.8006198e-05
4.1638258e-12
-0.00035885362
-5.5326577e-05
4.617256e-12
-0.000349039
-8.2265904e-05
4.942455e-12
-0.00033498207
-0.00010801561
5.1206865e-12
-0.00031680571
-0.00013170173
5.2234901e-12
-0.00029477541
-0.00015241803
5.2759223e-12
-0.00026931505
-0.00016927054
5.2948537e-12
-0.000241015
-0.00018143322
5.2827295e-12
-0.00021062916
-0.00018821255
5.2710258e-12
-0.00017905769
-0.00018911662
5.287182e-12
-0.0001473135
-0.00018392235
5.335401e-12
-0.00011647283
-0.00017273234
5.4869797e-12
-8.7612686e-05
-0.00015601263
5.6205298e-12
-6.1741081e-05
-0.00013460377
5.4551283e-12
-3.9727898e-05
-0.00010970167
6.0040916e-12
-2.2245238e-05
-8.2808826e-05
9.6446104e-12
-9.7253301e-06
-5.5656701e-05
6.6474492e-12
-2.3410038e-06
-3.0110122e-05
-1.41926e-11
-8.1408628e-06
2.3550994e-11
-3.8460297e-06
2.1680993e-05
-3.765986e-11
-1.3903514e-05
6.0243104e-05
2.5740933e-11
-2.8895654e-05
9.3462786e-05
-9.8167329e-12
-4.7733839e-05
0.00012125215
-1.621184e-11
-6.9498728e-05
0.00014379117
-1.0649076e-11
-9.341973e-05
0.00016139278
-9.2136615e-12
-0.00011885064
0.00017442865
-8.6547938e-12
-0.00014524444
0.0001832728
-7.6484717e-12
-0.00017212953
0.00018826108
-6.5419505e-12
-0.00019908852
0.00018966773
-5.4662059e-12
-0.00022574025
0.00018769688
-4.4029902e-12
-0.00025172515
0.00018248629
-3.4810197e-12
-0.00027669411
0.00017412026
-2.8281111e-12
-0.00030030041
0.00016264892
-2.5396397e-12
-0.00032219458
0.00014811102
-2.0207188e-12
-0.00034202178
0.000130558
-1.3544098e-12
-0.00035942155
0.00011007759
-3.9123199e-13
-0.00037402984
8.6815851e-05
7.4386618e-13
-0.0003854835
6.0996881e-05
1.7865498e-12
-0.00039342758
3.2939808e-05
2.6760662e-12
-0.00039752518
3.0729603e-06
3.4800554e-12
-0.00039747331
-2.8058071e-05
3.9651585e-12
-0.00039301845
-5.9781442e-05
4.4066899e-12
-0.00038398034
-9.1304012e-05
4.8043982e-12
-0.0003702769
-0.00012171905
5.0565825e-12
-0.000351952
-0.00015002664
5.2410642e-12
-0.00032920334
-0.0001751667
5.3867003e-12
-0.00030240732
-0.00019606656
5.5044284e-12
-0.00027213673
-0.00021170382
5.5699376e-12
-0.00023916654
-0.00022118274
5.6075993e-12
-0.00020446317
-0.00022382
5.6126258e-12
-0.00016915345
-0.00021923207
5.6020328e-12
-0.00013447216
-0.00020741364
5.7110137e-12
-0.00010169025
-0.00018879454
5.8619701e-12
-7.2030281e-05
-0.00016426375
5.707596e-12
-4.6578761e-05
-0.0001351532
6.5008611e-12
-2.62071e-05
-0.0001031805
1.0954929e-11
-1.1512612e-05
-7.0351197e-05
7.2181288e-12
-2.7867925e-06
-3.8835918e-05
-1.7944374e-11
-1.092768e-05
2.7274005e-11
-4.0903045e-06
2.5771334e-05
-3.8713667e-11
-1.4766539e-05
7.0919304e-05
2.8214591e-11
-3.0656376e-05
0.00010935262
-9.1486863e-12
-5.0593018e-05
0.00014118881
-1.5221836e-11
-7.3595502e-05
0.00016679367
-8.9681632e-12
-9.8847352e-05
0.00018664464
-7.6318164e-12
-0.00012567071
0.00020125201
-7.4202396e-12
-0.00015349919
0.00021110128
-6.7451244e-12
-0.00018185193
0.00021661383
-5.8383527e-12
-0.00021031016
0.00021812596
-4.8510489e-12
-0.00023849692
0.00021588364
-4.0508223e-12
-0.00026606034
0.00021004972
-3.6226694e-12
-0.00029266039
0.00020072032
-3.242357e-12
-0.00031795879
0.00018794732
-2.9095803e-12
-0.00034161177
0.00017176401
-2.2642089e-12
-0.00036326539
0.00015221162
-1.4361452e-12
-0.0003825531
0.00012936531
-3.5557e-13
-0.00039909571
0.00010335846
7.1991225e-13
-0.00041250388
7.4405048e-05
1.615301e-12
-0.00042238373
4.2819655e-05
2.3852644e-12
-0.00042834583
9.0350656e-06
3.1183483e-12
-0.00043002002
-2.6383887e-05
3.6354992e-12
-0.00042707256
-6.2728904e-05
4.1368353e-12
-0.00041923151
-9.9145061e-05
4.596223e-12
-0.00040631597
-0.0001346346
4.9379828e-12
-0.00038827002
-0.00016807261
5.2357392e-12
-0.00036519912
-0.0001982376
5.5034049e-12
-0.00033740558
-0.00022386011
5.7279877e-12
-0.00030541823
-0.00024369117
5.8723029e-12
-0.00027001041
-0.00025659057
5.9500152e-12
-0.00023219941
-0.000261631
5.9398412e-12
-0.00019322161
-0.00025820988
5.8683518e-12
-0.00015447938
-0.00024615588
5.9190711e-12
-0.00011746072
-0.00022581321
6.061702e-12
-8.3637818e-05
-0.00019808666
5.9595438e-12
-5.4356438e-05
-0.00016443458
7.2270368e-12
-3.0731714e-05
-0.00012680524
1.2957282e-11
-1.3566494e-05
-8.751642e-05
8.0829042e-12
-3.3036172e-06
-4.9098778e-05
-2.2179293e-11
-1.4231327e-05
3.1425335e-11
-4.2921061e-06
3.0063472e-05
-3.9762654e-11
-1.5482059e-05
8.2109216e-05
3.0829275e-11
-3.2121129e-05
0.0001259917
-7.668532e-12
-5.2979534e-05
0.00016204723
-1.3696422e-11
-7.7026167e-05
0.00019084031
-7.3471067e-12
-0.00010340705
0.00021302552
-6.4226709e-12
-0.00013141884
0.0002292638
-6.5187642e-12
-0.00016048054
0.00024016298
-5.91718e-12
-0.00019010609
0.00024623939
-5.1761833e-12
-0.00021987919
0.00024789907
-4.5584206e-12
-0.00024943117
0.00024543564
-4.1048912e-12
-0.00027842236
0.00023904092
-3.955627e-12
-0.0003065268
0.00022882475
-3.7141372e-12
-0.0003334201
0.00021484062
-3.1869776e-12
-0.00035877007
0.00019711399
-2.304977e-12
-0.00038222976
0.00017567132
-1.4018361e-12
-0.00040343271
0.00015056825
-4.129248e-13
-0.00042199046
0.00012191622
4.88255e-13
-0.0004374928
8.9907385e-05
1.2714183e-12
-0.00044951109
5.483794e-05
1.9849718e-12
-0.00045760567
1.7129651e-05
2.6506318e-12
-0.00046133874
-2.2650823e-05
3.208437e-12
-0.00046029231
-6.3775335e-05
3.7773859e-12
-0.00045409403
-0.00010534334
4.3093839e-12
-0.00044244981
-0.00014627883
4.7590273e-12
-0.00042518346
-0.00018533896
5.1918657e-12
-0.00040228172
-0.00022113935
5.6035337e-12
-0.00037394146
-0.00025220038
5.9559218e-12
-0.00034061382
-0.00027701882
6.1909817e-12
-0.00030303804
-0.00029416636
6.2976819e-12
-0.0002622561
-0.00030241294
6.2877151e-12
-0.00021959908
-0.00030086691
6.1850128e-12
-0.00017663799
-0.00028911697
6.1610349e-12
-0.00013509702
-0.00026735418
6.2053042e-12
-9.6734267e-05
-0.00023644942
6.0642617e-12
-6.3203688e-05
-0.00019796517
7.7400921e-12
-3.5918683e-05
-0.00015409028
2.9985474e-11
-1.5940233e-05
-0.00010749487
8.8068386e-12
-3.9076015e-06
-6.1131386e-05
-2.7278971e-11
-1.8138965e-05
3.5983547e-11
-4.4476289e-06
3.4511138e-05
-3.9941147e-11
-1.6037758e-05
9.3699312e-05
3.383976e-11
-3.3265646e-05
0.0001432196
-5.994351e-12
-5.4854061e-05
0.00018363566
-1.255574e-11
-7.9733129e-05
0.00021571938
-6.3606242e-12
-0.00010701947
0.00024031186
-5.6355794e-12
-0.00013599002
0.00025823434
-5.8721467e-12
-0.00016605349
0.00027022646
-5.4061215e-12
-0.00019672225
0.00027690815
-4.9134296e-12
-0.00022758593
0.00027876276
-4.6939398e-12
-0.00025828791
0.00027613762
-4.5567865e-12
-0.00028850494
0.00026925795
-4.3769462e-12
-0.00031793005
0.00025824987
-3.9506633e-12
-0.00034625843
0.000243169
-3.22705e-12
-0.00037317588
0.00022403144
-2.2757464e-12
-0.00039834958
0.00020084502
-1.4114415e-12
-0.00042142087
0.00017363955
-5.6183605e-13
-0.00044200027
0.00014249561
1.5362956e-13
-0.00045966488
0.000107572
8.2325947e-13
-0.00047395917
6.9132229e-05
1.5052106e-12
-0.00048439975
2.7570229e-05
2.1402983e-12
-0.00049048578
-1.6564799e-05
2.7134475e-12
-0.00049171579
-6.2545325e-05
3.3311221e-12
-0.00048761295
-0.00010944619
3.9347665e-12
-0.00047775938
-0.00015613241
4.4862823e-12
-0.0004618402
-0.00020125815
5.052705e-12
-0.00043969655
-0.000243283
5.6170341e-12
-0.00041138494
-0.00028051199
6.1117119e-12
-0.00037723785
-0.00031116592
6.4428904e-12
-0.00033791734
-0.00033348688
6.5742057e-12
-0.00029445064
-0.00034587964
6.5770129e-12
-0.00024823477
-0.00034708279
6.4601083e-12
-0.00020099825
-0.00033635351
6.3704482e-12
-0.00015471278
-0.00031363965
6.3230428e-12
-0.0001114572
-0.00027970502
5.8123709e-12
-7.3247955e-05
-0.00023617441
7.2333999e-12
-4.1862243e-05
-0.00018547601
1.48974e-11
-1.8686052e-05
-0.00013067107
8.2568688e-12
-4.6149567e-06
-7.5202449e-05
-3.3569163e-11
-2.2753964e-05
4.1339361e-11
-4.5537244e-06
3.9064907e-05
-3.932795e-11
-1.6423632e-05
0.00010556918
3.633118e-11
-3.407015e-05
0.00016086612
-4.9166124e-12
-5.618403e-05
0.00020574955
-1.194425e-11
-8.166748e-05
0.00024120283
-5.7239629e-12
-0.00010961513
0.00026825952
-5.0297748e-12
-0.00013928927
0.00028790848
-5.3783602e-12
-0.00017009199
0.0003010292
-5.2133638e-12
-0.0002015371
0.00030835327
-5.0849632e-12
-0.00023322314
0.0003104488
-5.0484352e-12
-0.0002648088
0.00030772328
-4.8886487e-12
-0.00029599119
0.00030044035
-4.5396678e-12
-0.00032648712
0.0002887458
-3.9146484e-12
-0.00035601709
0.00027269898
-3.0792064e-12
-0.00038429179
0.00025230614
-2.2131578e-12
-0.00041100055
0.00022755379
-1.5011402e-12
-0.00043580179
0.00019844079
-8.3036931e-13
-0.00045831527
0.00016500909
-2.5920991e-13
-0.00047811671
0.00012737344
3.2905331e-13
-0.00049473527
8.5750794e-05
9.787296e-13
-0.00050765513
4.0490092e-05
1.5825789e-12
-0.00051632238
-7.8975557e-06
2.1706492e-12
-0.00052015898
-5.8708731e-05
2.8357693e-12
-0.0005185857
-0.00011101947
3.5253854e-12
-0.00051105603
-0.00016366209
4.1910729e-12
-0.00049710241
-0.00021521177
4.8946545e-12
-0.00047639555
-0.00026398986
5.6061752e-12
-0.00044881527
-0.00030809228
6.2235194e-12
-0.00041452857
-0.00034545262
6.6336092e-12
-0.00037406664
-0.00037394882
6.8031175e-12
-0.00032838758
-0.00039155871
6.8078246e-12
-0.00027890817
-0.00039656221
6.6633557e-12
-0.00022748624
-0.00038777545
6.5671194e-12
-0.00017633937
-0.00036478653
6.4606866e-12
-0.00012789617
-0.00032814821
5.435597e-12
-8.4593044e-05
-0.00027947755
6.3093647e-12
-4.8647653e-05
-0.00022142142
1.4991221e-11
-2.1854102e-05
-0.00015746463
7.7795989e-12
-5.4419241e-06
-9.1614588e-05
-4.0931097e-11
-2.8195936e-05
4.7575346e-11
-4.6084344e-06
4.3673385e-05
-3.8794881e-11
-1.6633624e-05
0.00011759433
3.7650463e-11
-3.4522393e-05
0.00017875488
-4.4418553e-12
-5.6948136e-05
0.0002281753
-1.1588607e-11
-8.2794943e-05
0.00026704964
-5.2259851e-12
-0.00011114181
0.0002966064
-4.6912412e-12
-0.00014124046
0.00031800715
-5.3106747e-12
-0.00017248927
0.00033227802
-5.4256284e-12
-0.00020440582
0.00034026983
-5.4490005e-12
-0.00023659994
0.00034264292
-5.3675492e-12
-0.00026874848
0.00033987182
-4.978003e-12
-0.00030057246
0.00033226434
-4.409986e-12
-0.00033181702
0.00031999036
-3.725973e-12
-0.00036223371
0.00030311568
-2.951724e-12
-0.00039156521
0.00028163764
-2.2620512e-12
-0.00041953173
0.00025552031
-1.6807169e-12
-0.00044581914
0.0002247282
-1.136913e-12
-0.00047006866
0.00018925861
-6.5872713e-13
-0.00049186844
0.00014917322
-1.3069021e-13
-0.00051074763
0.00010462998
4.7882761e-13
-0.00052617391
5.5916373e-05
1.0538027e-12
-0.00053755596
3.4844949e-06
1.6589362e-12
-0.0005442529
-5.2011798e-05
2.3601141e-12
-0.00054559276
-0.00010967961
3.1240196e-12
-0.00054090326
-0.0001683516
3.9091407e-12
-0.0005295573
-0.00022655774
4.7642638e-12
-0.00051103557
-0.0002825116
5.6255656e-12
-0.00048500675
-0.0003341211
6.3553559e-12
-0.00045142263
-0.00037903675
6.8598898e-12
-0.00041062071
-0.00041475074
7.1091258e-12
-0.00036342031
-0.00043875912
7.0663961e-12
-0.00031119136
-0.00044879116
6.8168389e-12
-0.00025587053
-0.00044309629
6.5224107e-12
-0.00019990003
-0.00042075705
6.0560736e-12
-0.00014607536
-0.00038197287
4.9892653e-12
-9.7309273e-05
-0.00032824365
5.7707397e-12
-5.6346753e-05
-0.00026238395
1.5743106e-11
-2.5491161e-05
-0.00018832023
7.5813206e-12
-6.4046697e-06
-0.00011070103
-4.9366557e-11
-3.4600663e-05
5.4854278e-11