/*--------------------------------*- C++ -*----------------------------------*\
  =========                 |
  \\      /  F ield         | OpenFOAM: The Open Source CFD Toolbox
   \\    /   O peration     | Website:  https://openfoam.org
    \\  /    A nd           | Version:  7
     \\/     M anipulation  |
\*---------------------------------------------------------------------------*/
FoamFile
{
    version     2.0;
    format      ascii;
    class       surfaceScalarField;
    location    "10";
    object      phi_0;
}
// * * * * * * * * * * * * * * * * * * * * * * * * * * * * * * * * * * * * * //

dimensions      [0 3 -1 0 0 0 0];

internalField   nonuniform List<scalar> 
45600
(
2.6950619e-07
-2.8102515e-07
-7.7753259e-10
3.9484732e-07
-1.2489071e-07
-4.2081155e-10
1.2414718e-07
2.709443e-07
-2.8897334e-10
-5.6680272e-07
6.9104532e-07
-2.0936293e-10
-1.6359749e-06
1.069374e-06
-1.4662779e-10
-3.0133148e-06
1.3774361e-06
-1.0193723e-10
-4.6247036e-06
1.611452e-06
-6.8631934e-11
-6.4020968e-06
1.7774395e-06
-4.305393e-11
-8.2860038e-06
1.8839429e-06
-2.5191262e-11
-1.022494e-05
1.9389529e-06
-1.3393653e-11
-1.2173588e-05
1.9486501e-06
-4.8060829e-12
-1.409064e-05
1.9170413e-06
1.6190028e-12
-1.593676e-05
1.8461128e-06
5.7785044e-12
-1.767303e-05
1.7362712e-06
8.1007933e-12
-1.926002e-05
1.5869857e-06
9.2475739e-12
-2.0657538e-05
1.3975044e-06
9.5745185e-12
-2.1825111e-05
1.1675572e-06
9.0012511e-12
-2.2723152e-05
8.9802495e-07
7.7102298e-12
-2.3314669e-05
5.9151224e-07
6.5646975e-12
-2.3567473e-05
2.5280417e-07
5.2244412e-12
-2.3456633e-05
-1.1083956e-07
3.2729177e-12
-2.2967012e-05
-4.8961542e-07
9.1651677e-13
-2.2095758e-05
-8.7124995e-07
-1.9213051e-12
-2.0854346e-05
-1.2414105e-06
-4.9847239e-12
-1.9270009e-05
-1.5843308e-06
-7.4781865e-12
-1.7386334e-05
-1.8836641e-06
-9.2795952e-12
-1.5262802e-05
-2.1235228e-06
-1.0849046e-11
-1.297315e-05
-2.2896379e-06
-1.2151717e-11
-1.0602602e-05
-2.3705302e-06
-1.2775655e-11
-8.2440108e-06
-2.3585733e-06
-1.2509996e-11
-5.9931471e-06
-2.2508492e-06
-1.1494888e-11
-3.9434156e-06
-2.0497191e-06
-9.8730275e-12
-2.1803049e-06
-1.7631019e-06
-7.6278102e-12
-7.756843e-07
-1.404616e-06
-4.7362774e-12
2.1849154e-07
-9.9417589e-07
-1.4355525e-12
7.7808605e-07
-5.5959848e-07
1.4776618e-12
9.1513772e-07
-1.3705873e-07
4.6664254e-12
6.9751662e-07
2.176093e-07
8.4609732e-12
2.8804877e-07
4.0945091e-07
1.2499424e-11
2.8803926e-07
5.9009043e-12
1.2883569e-07
-4.0938286e-07
-4.1721181e-10
-3.059957e-07
3.1011662e-07
-2.4382722e-10
-1.6123404e-06
1.5776695e-06
-2.7538558e-10
-3.8552626e-06
2.9342019e-06
-2.1415418e-10
-6.962653e-06
4.1769136e-06
-1.6493786e-10
-1.0802167e-05
5.2170412e-06
-1.2641128e-10
-1.5218545e-05
6.0279426e-06
-9.4434214e-11
-2.0055865e-05
6.6148564e-06
-7.1588502e-11
-2.5167473e-05
6.9956082e-06
-5.7152686e-11
-3.0418711e-05
7.1902094e-06
-4.650106e-11
-3.5685758e-05
7.2157143e-06
-3.729434e-11
-4.0852807e-05
7.0841249e-06
-2.9816424e-11
-4.5808911e-05
6.8022556e-06
-2.4292172e-11
-5.0445418e-05
6.3728098e-06
-1.9931959e-11
-5.4654569e-05
5.7961545e-06
-1.6117211e-11
-5.8329521e-05
5.0724575e-06
-1.2715205e-11
-6.136585e-05
4.2038905e-06
-9.6265768e-12
-6.3664523e-05
3.1967029e-06
-6.4098132e-12
-6.5136023e-05
2.06302e-06
-2.2778078e-12
-6.5705386e-05
8.2217772e-07
2.1812136e-12
-6.5317971e-05
-4.9825507e-07
5.9866701e-12
-6.3944625e-05
-1.8629712e-06
9.3890523e-12
-6.1587417e-05
-3.2284714e-06
1.2691075e-11
-5.8283566e-05
-4.5452809e-06
1.5882459e-11
-5.4108211e-05
-5.7597109e-06
1.9044237e-11
-4.9175146e-05
-6.816752e-06
2.2031745e-11
-4.3635214e-05
-7.6634767e-06
2.4320099e-11
-3.7672112e-05
-8.2527618e-06
2.5686716e-11
-3.1495609e-05
-8.5470553e-06
2.6286127e-11
-2.5332344e-05
-8.5218608e-06
2.6272136e-11
-1.9414582e-05
-8.1686342e-06
2.5533647e-11
-1.3967441e-05
-7.496883e-06
2.3906139e-11
-9.1951016e-06
-6.5354645e-06
2.1473557e-11
-5.2663244e-06
-5.3334143e-06
1.8481753e-11
-2.2993773e-06
-3.9611409e-06
1.5203027e-11
-3.4573371e-07
-2.5132574e-06
1.1722866e-11
6.3276185e-07
-1.115565e-06
7.8943975e-12
7.8835055e-07
6.2012903e-08
6.2075031e-12
4.1220295e-07
7.855892e-07
7.3198454e-12
7.0023865e-07
4.5925474e-13
-2.7397051e-07
-1.3516289e-07
-2.9424975e-10
-1.6195356e-06
1.6560572e-06
-2.7014432e-10
-4.2611184e-06
4.2195681e-06
-2.2313226e-10
-8.2131516e-06
6.8863919e-06
-1.7821714e-10
-1.3367355e-05
9.3312017e-06
-1.3822671e-10
-1.954548e-05
1.1395254e-05
-1.0199243e-10
-2.6537841e-05
1.302041e-05
-7.223459e-11
-3.4127904e-05
1.4204984e-05
-5.1723995e-11
-4.2105241e-05
1.4972972e-05
-3.7687718e-11
-5.0270644e-05
1.5355624e-05
-2.669589e-11
-5.8436358e-05
1.5381441e-05
-1.8062807e-11
-6.6423862e-05
1.5071648e-05
-1.1880826e-11
-7.4060966e-05
1.4439379e-05
-7.5069278e-12
-8.1179454e-05
1.3491305e-05
-4.2527054e-12
-8.7614058e-05
1.2230754e-05
-1.9593977e-12
-9.3203193e-05
1.0661582e-05
-4.1777421e-13
-9.7791565e-05
8.7922581e-06
3.9412084e-13
-0.00010123457
6.6397132e-06
1.5148748e-12
-0.00010340418
4.2326324e-06
3.0680395e-12
-0.00010419593
1.6139291e-06
4.2122318e-12
-0.0001035363
-1.1578843e-06
4.5195518e-12
-0.00010139034
-4.0089305e-06
4.508814e-12
-9.7768309e-05
-6.8505163e-06
4.4987802e-12
-9.2730973e-05
-9.5826271e-06
4.6122683e-12
-8.6392878e-05
-1.2097812e-05
4.9726442e-12
-7.8922904e-05
-1.4286731e-05
5.377493e-12
-7.0541684e-05
-1.6044701e-05
5.4978538e-12
-6.1515585e-05
-1.7278861e-05
5.4067179e-12
-5.2147187e-05
-1.7915453e-05
5.4221525e-12
-4.2762418e-05
-1.790663e-05
5.6566607e-12
-3.3694806e-05
-1.7236251e-05
5.9390111e-12
-2.5267425e-05
-1.5924269e-05
6.048985e-12
-1.777329e-05
-1.4029606e-05
6.0448458e-12
-1.1454806e-05
-1.1651907e-05
6.1178141e-12
-6.4827696e-06
-8.9331861e-06
6.3423228e-12
-2.9347763e-06
-6.0612612e-06
6.5730599e-12
-7.7297667e-07
-3.2773756e-06
6.5221266e-12
1.7889549e-07
-8.8987006e-07
6.9541988e-12
2.591728e-07
7.0530137e-07
8.5257528e-12
9.5940511e-07
3.9471451e-12
-7.4101042e-07
6.0595088e-07
-2.2046826e-10
-3.1549403e-06
4.0702062e-06
-2.0243468e-10
-7.2848286e-06
8.3496172e-06
-1.7781984e-10
-1.3048722e-05
1.2650425e-05
-1.4557627e-10
-2.0273485e-05
1.6556086e-05
-1.1176311e-10
-2.8729726e-05
1.985159e-05
-8.3102673e-11
-3.8160576e-05
2.2451337e-05
-6.0889344e-11
-4.8302088e-05
2.4346533e-05
-4.406061e-11
-5.8895059e-05
2.5565953e-05
-3.0968871e-11
-6.9690264e-05
2.6150839e-05
-2.0687279e-11
-8.0449231e-05
2.614043e-05
-1.3044925e-11
-9.0942633e-05
2.5565071e-05
-7.7551711e-12
-0.00010094797
2.4444725e-05
-3.9434521e-12
-0.00011024785
2.2791184e-05
-1.2553698e-12
-0.00011862972
2.0612615e-05
3.0533386e-13
-0.00012588747
1.7919321e-05
1.2944057e-12
-0.00013182506
1.4729847e-05
2.101798e-12
-0.00013626209
1.1076744e-05
3.1288994e-12
-0.00013904089
7.0114376e-06
4.296383e-12
-0.00014003476
2.6078039e-06
4.6264398e-12
-0.00013915658
-2.0360712e-06
4.0379616e-12
-0.00013636754
-6.7979719e-06
3.4924161e-12
-0.00013168463
-1.1533433e-05
3.2387684e-12
-0.00012518665
-1.6080612e-05
2.99287e-12
-0.00011701783
-2.0266638e-05
2.7950721e-12
-0.00010738834
-2.3916217e-05
2.6529166e-12
-9.6571269e-05
-2.6861774e-05
2.4466823e-12
-8.4895515e-05
-2.8954612e-05
2.1991873e-12
-7.2734627e-05
-3.0076338e-05
2.1589301e-12
-6.0491553e-05
-3.0149702e-05
2.4192795e-12
-4.8579788e-05
-2.9148015e-05
2.8416938e-12
-3.7401599e-05
-2.710246e-05
3.242745e-12
-2.7324218e-05
-2.4106992e-05
3.6685722e-12
-1.8655059e-05
-2.0321072e-05
4.2518804e-12
-1.1617006e-05
-1.5971246e-05
4.9807187e-12
-6.3246804e-06
-1.1353595e-05
5.7791294e-12
-2.7625237e-06
-6.8395428e-06
6.6310783e-12
-7.6744733e-07
-2.8849586e-06
7.3087178e-12
-1.4340413e-08
-4.7815162e-08
7.4900581e-12
9.4505655e-07
6.8135912e-12
-1.2173854e-06
1.8235582e-06
-1.6451794e-10
-4.7445141e-06
7.5974545e-06
-1.4641713e-10
-1.0423221e-05
1.4028406e-05
-1.3911998e-10
-1.8041474e-05
2.0268794e-05
-1.1539679e-10
-2.7339493e-05
2.5854225e-05
-8.8876963e-11
-3.8026461e-05
3.0538641e-05
-6.8849102e-11
-4.9797438e-05
3.4222363e-05
-5.3229864e-11
-6.2346452e-05
3.6895563e-05
-3.9829667e-11
-7.5374405e-05
3.8593919e-05
-2.8612334e-11
-8.8592486e-05
3.936894e-05
-2.0043446e-11
-0.00010172229
3.9270263e-05
-1.3708319e-11
-0.00011449423
3.8337034e-05
-8.9928248e-12
-0.00012664561
3.6596108e-05
-5.4978979e-12
-0.00013791949
3.4065055e-05
-3.2621231e-12
-0.00014806512
3.0758247e-05
-1.9962289e-12
-0.0001568404
2.6694587e-05
-6.6302942e-13
-0.00016401623
2.1905684e-05
9.2028354e-13
-0.00016938301
1.6443527e-05
2.4148846e-12
-0.0001727585
1.0386938e-05
3.6728717e-12
-0.00017399689
3.8461973e-06
4.1598332e-12
-0.00017299823
-3.0347337e-06
4.0224036e-12
-0.00016971776
-1.0078444e-05
4.1316843e-12
-0.00016417425
-1.7076958e-05
4.6010904e-12
-0.0001564566
-2.379827e-05
4.9888228e-12
-0.00014672807
-2.9995167e-05
5.2273455e-12
-0.00013522728
-3.5417017e-05
5.3680803e-12
-0.00012226528
-3.982377e-05
5.4602179e-12
-0.0001082184
-4.3001492e-05
5.5193657e-12
-9.3516282e-05
-4.477846e-05
5.6399364e-12
-7.8625286e-05
-4.5040701e-05
5.8478211e-12
-6.4027554e-05
-4.3745751e-05
6.054114e-12
-5.0196427e-05
-4.0933593e-05
6.1435369e-12
-3.7569368e-05
-3.6734058e-05
6.1830172e-12
-2.651981e-05
-3.1370637e-05
6.297453e-12
-1.73296e-05
-2.5161465e-05
6.4374639e-12
-1.0163818e-05
-1.8519385e-05
6.6660925e-12
-5.0498676e-06
-1.1953502e-05
7.3455441e-12
-1.8633043e-06
-6.0715334e-06
7.0911262e-12
-3.2470255e-07
-1.5864241e-06
4.0700895e-12
6.203439e-07
8.9740682e-12
-1.6767241e-06
3.5004098e-06
-1.2576868e-10
-6.3082505e-06
1.2229053e-05
-1.0108204e-10
-1.3534756e-05
2.1255007e-05
-1.0303956e-10
-2.3000898e-05
2.9735051e-05
-8.8129123e-11
-3.4346855e-05
3.7200273e-05
-6.9414487e-11
-4.7211664e-05
4.34035e-05
-5.5354389e-11
-6.1239163e-05
4.8249897e-05
-4.3297114e-11
-7.608307e-05
5.1739483e-05
-3.2636803e-11
-9.1409594e-05
5.3920463e-05
-2.3817517e-11
-0.0001068977
5.4857081e-05
-1.6951801e-11
-0.00012223758
5.4610167e-05
-1.1642256e-11
-0.00013712831
5.3227769e-05
-7.7006928e-12
-0.00015127583
5.0743637e-05
-4.9759813e-12
-0.00016439216
4.7181371e-05
-3.2813153e-12
-0.00017619616
4.2562249e-05
-2.0670619e-12
-0.00018641657
3.6914993e-05
-4.5267315e-13
-0.00019479691
3.0286017e-05
1.3167353e-12
-0.00020110238
2.2749003e-05
2.679922e-12
-0.00020512833
1.4412888e-05
3.5951751e-12
-0.00020670971
5.4275786e-06
3.8569705e-12
-0.00020573115
-4.0133031e-06
3.8424453e-12
-0.00020213681
-1.3672793e-05
4.2414409e-12
-0.0001959396
-2.3274182e-05
4.9155509e-12
-0.00018722873
-3.2509154e-05
5.347266e-12
-0.000176175
-4.1048898e-05
5.5508549e-12
-0.00016303298
-4.8559045e-05
5.6994844e-12
-0.00014813913
-5.4717617e-05
5.8747667e-12
-0.0001319054
-5.9235223e-05
6.0379056e-12
-0.00011480749
-6.1876375e-05
6.1953434e-12
-9.7367744e-05
-6.2480448e-05
6.3510207e-12
-8.0132816e-05
-6.0980682e-05
6.4601677e-12
-6.3646798e-05
-5.7419617e-05
6.4773459e-12
-4.8421144e-05
-5.1959718e-05
6.4666115e-12
-3.490323e-05
-4.4888559e-05
6.5228599e-12
-2.3445788e-05
-3.6618915e-05
6.5592289e-12
-1.427979e-05
-2.7685393e-05
6.7554602e-12
-7.4934918e-06
-1.8739808e-05
7.7800729e-12
-3.0207682e-06
-1.0544267e-05
7.0308294e-12
-6.4218434e-07
-3.965012e-06
1.4029779e-12
-2.1852665e-08
1.1333841e-11
-2.1107816e-06
5.611278e-06
-9.758208e-11
-7.8087451e-06
1.7927095e-05
-6.3039963e-11
-1.654313e-05
2.9989486e-05
-7.3478221e-11
-2.7813714e-05
4.1005715e-05
-6.7034134e-11
-4.1155131e-05
5.0541742e-05
-5.3736479e-11
-5.6131326e-05
5.837971e-05
-4.3305666e-11
-7.2332532e-05
6.4451121e-05
-3.3878557e-11
-8.9372831e-05
6.8779805e-05
-2.5585806e-11
-0.00010688718
7.1434837e-05
-1.8880704e-11
-0.00012452781
7.2497736e-05
-1.3509654e-11
-0.00014196027
7.2042646e-05
-9.1977832e-12
-0.00015885978
7.0127289e-05
-6.1701935e-12
-0.00017490859
6.6792441e-05
-4.2412884e-12
-0.0001897949
6.2067669e-05
-2.8764404e-12
-0.00020321377
5.5981127e-05
-1.4832904e-12
-0.00021487023
4.8571456e-05
4.2089904e-13
-0.00022448434
3.9900134e-05
2.0700901e-12
-0.00023179827
3.0062937e-05
2.9698538e-12
-0.00023658486
1.9199489e-05
3.4862044e-12
-0.00023865743
7.5001451e-06
3.6575277e-12
-0.00023788018
-4.7905521e-06
3.8132241e-12
-0.00023417882
-1.7374164e-05
4.3595815e-12
-0.00022755077
-2.9902237e-05
5.0352941e-12
-0.0002180742
-4.1985734e-05
5.3916567e-12
-0.00020591504
-5.3208062e-05
5.4785792e-12
-0.00019133117
-6.3142916e-05
5.5601297e-12
-0.00017467265
-7.1376143e-05
5.7675792e-12
-0.000156377
-7.7530867e-05
5.9901903e-12
-0.0001369588
-8.1294578e-05
6.1283476e-12
-0.00011699281
-8.2446442e-05
6.1973761e-12
-9.7090826e-05
-8.0882671e-05
6.2231273e-12
-7.7872737e-05
-7.6637713e-05
6.2379803e-12
-5.9933292e-05
-6.9899169e-05
6.2834028e-12
-4.3806788e-05
-6.101507e-05
6.3746079e-12
-2.9932551e-05
-5.049316e-05
6.382586e-12
-1.8624516e-05
-3.8993437e-05
6.6501429e-12
-1.0048347e-05
-2.7315986e-05
8.1429769e-12
-4.209637e-06
-1.6382986e-05
6.9489419e-12
-9.5650092e-07
-7.2181484e-06
-1.4540685e-12
-9.7836802e-07
1.3435912e-11
-2.5175602e-06
8.1289202e-06
-7.6521434e-11
-9.2286129e-06
2.4638207e-05
-3.5051848e-11
-1.9406042e-05
4.0166983e-05
-5.3057468e-11
-3.2410054e-05
5.4009768e-05
-5.1477235e-11
-4.7670311e-05
6.5802022e-05
-4.0805944e-11
-6.4674708e-05
7.5384119e-05
-3.2821158e-11
-8.2959476e-05
8.2735913e-05
-2.6037696e-11
-0.0001021002
8.7920562e-05
-2.0002894e-11
-0.00012170351
9.1038169e-05
-1.4874603e-11
-0.00014139938
9.2193634e-05
-1.0660627e-11
-0.00016083445
9.1477718e-05
-7.4432805e-12
-0.00017966644
8.8959271e-05
-5.3809796e-12
-0.00019756042
8.468642e-05
-3.9397563e-12
-0.0002141871
7.8694347e-05
-2.4594108e-12
-0.00022922329
7.1017317e-05
-7.9369228e-13
-0.00024235465
6.1702824e-05
1.1055092e-12
-0.00025328059
5.0826073e-05
2.3930019e-12
-0.00026172102
3.8503371e-05
2.8692895e-12
-0.00026742486
2.4903333e-05
3.2000429e-12
-0.00027017983
1.0255107e-05
3.5012802e-12
-0.00026982327
-5.1471202e-06
3.9384325e-12
-0.00026625347
-2.0943972e-05
4.6284755e-12
-0.00025944137
-3.6714345e-05
5.2341292e-12
-0.00024944143
-5.1985678e-05
5.5154829e-12
-0.00023640125
-6.6248251e-05
5.6204174e-12
-0.00022056865
-7.8975514e-05
5.7717907e-12
-0.00020229511
-8.9649687e-05
6.0363073e-12
-0.00018203399
-9.7791982e-05
6.2716947e-12
-0.00016033246
-0.00010299611
6.355031e-12
-0.00013781588
-0.00010496303
6.3396016e-12
-0.00011516441
-0.00010353415
6.2873243e-12
-9.3082112e-05
-9.8720013e-05
6.2711606e-12
-7.2260145e-05
-9.0721142e-05
6.3409295e-12
-5.3336534e-05
-7.9938688e-05
6.4355847e-12
-3.6856157e-05
-6.6973545e-05
6.3499355e-12
-2.3235001e-05
-5.2614602e-05
6.6002361e-12
-1.273291e-05
-3.7818087e-05
8.5153457e-12
-5.4388758e-06
-2.3677029e-05
6.8143889e-12
-1.272181e-06
-1.1384839e-05
-4.4449802e-12
-2.2505659e-06
1.5687894e-11
-2.8962317e-06
1.1025231e-05
-6.2431678e-11
-1.0557543e-05
3.2299528e-05
-1.6299439e-11
-2.2095802e-05
5.1705273e-05
-3.9176926e-11
-3.6740783e-05
6.8654774e-05
-3.9349973e-11
-5.3821962e-05
8.2883215e-05
-3.0125318e-11
-7.2753617e-05
9.4315791e-05
-2.439737e-11
-9.3019728e-05
0.00010300206
-1.9820977e-11
-0.00011415957
0.00010906043
-1.5411709e-11
-0.0001357545
0.00011263313
-1.1529735e-11
-0.00015741646
0.0001138556
-8.493273e-12
-0.00017877814
0.0001128394
-6.3984771e-12
-0.00019948543
0.00010966655
-4.9795377e-12
-0.00021919205
0.00010439304
-3.552649e-12
-0.00023755675
9.705905e-05
-1.7871633e-12
-0.00025424293
8.7703498e-05
-3.933752e-14
-0.00026892061
7.6380509e-05
1.5128521e-12
-0.00028127063
6.3176108e-05
2.298162e-12
-0.00029099088
4.8223613e-05
2.5199915e-12
-0.00029780419
3.1716651e-05
2.9078694e-12
-0.00030146811
1.3919019e-05
3.4532035e-12
-0.00030178595
-4.8292954e-06
4.0905364e-12
-0.00029861886
-2.4111065e-05
4.7928999e-12
-0.00029189939
-4.3433822e-05
5.3076505e-12
-0.00028164465
-6.2240421e-05
5.5887352e-12
-0.00026796924
-7.9923667e-05
5.7999115e-12
-0.00025109629
-9.5848467e-05
6.0692165e-12
-0.00023136521
-0.00010938077
6.3801093e-12
-0.00020923423
-0.00011992296
6.5957789e-12
-0.000185276
-0.00012695435
6.6161548e-12
-0.0001601644
-0.00013007462
6.5263428e-12
-0.00013465175
-0.0001290468
6.4156189e-12
-0.00010953619
-0.00012383558
6.3699796e-12
-8.5620778e-05
-0.00011463656
6.4436619e-12
-6.3667104e-05
-0.00010189237
6.525992e-12
-4.4347752e-05
-8.6292905e-05
6.3427479e-12
-2.8202652e-05
-6.875971e-05
6.5580878e-12
-1.5604592e-05
-5.0416157e-05
8.9125357e-12
-6.7386609e-06
-3.2542969e-05
6.6875415e-12
-1.5989664e-06
-1.6524526e-05
-7.5364737e-12
-3.8495515e-06
1.7990841e-11
-3.2454733e-06
1.4270766e-05
-5.398918e-11
-1.1786482e-05
4.0840512e-05
-2.0637542e-12
-2.4589328e-05
6.4508126e-05
-2.8520592e-11
-4.0764661e-05
8.4830131e-05
-3.0030281e-11
-5.954931e-05
0.00010166789
-2.1964409e-11
-8.0288906e-05
0.00011505541
-1.8057276e-11
-0.00010241879
0.00012513198
-1.496617e-11
-0.00012544516
0.00013208682
-1.1711637e-11
-0.00014892768
0.00013611566
-9.0082989e-12
-0.00017246432
0.00013739223
-7.1344424e-12
-0.00019567862
0.00013605369
-5.788188e-12
-0.00021820976
0.00013219769
-4.4751338e-12
-0.00023970546
0.00012588874
-2.7821696e-12
-0.00025981766
0.00011717125
-9.4008319e-13
-0.00027820084
0.00010608669
5.0180729e-13
-0.00029451287
9.2692551e-05
1.5322463e-12
-0.00030841809
7.708133e-05
1.9315207e-12
-0.00031959246
5.9397984e-05
2.1538254e-12
-0.0003277308
3.9854989e-05
2.7337289e-12
-0.00033255598
1.8744192e-05
3.4707397e-12
-0.00033383032
-3.5549683e-06
4.1715894e-12
-0.00033136799
-2.6573397e-05
4.82776e-12
-0.00032505105
-4.9750775e-05
5.2771033e-12
-0.00031484494
-7.2446533e-05
5.6281314e-12
-0.00030081548
-9.3953132e-05
5.9976532e-12
-0.00028314475
-0.00011351919
6.392617e-12
-0.00026214445
-0.00013038108
6.7157705e-12
-0.00023826419
-0.00014380322
6.8630128e-12
-0.00021209241
-0.00015312613
6.807192e-12
-0.00018434725
-0.00015781979
6.6666903e-12
-0.0001558555
-0.00015753856
6.5378913e-12
-0.000127519
-0.00015217208
6.4762768e-12
-0.00010026929
-0.00014188628
6.5153392e-12
-7.5013749e-05
-0.00012714792
6.5459628e-12
-5.2578156e-05
-0.00010872851
6.2497845e-12
-3.3652111e-05
-8.7685763e-05
6.453821e-12
-1.8743937e-05
-6.5324342e-05
9.3209081e-12
-8.151143e-06
-4.3135771e-05
6.5805967e-12
-1.9502346e-06
-2.2725423e-05
-1.080674e-11
-5.7998094e-06
2.0459662e-11
-3.5630397e-06
1.7833849e-05
-4.8410074e-11
-1.2905406e-05
5.0182849e-05
9.8136127e-12
-2.6863603e-05
7.8466337e-05
-2.0246278e-11
-4.4441842e-05
0.0001024084
-2.3421004e-11
-6.4793652e-05
0.00012201973
-1.6150804e-11
-8.7202703e-05
0.00013746449
-1.3329257e-11
-0.00011106067
0.00014898996
-1.1307514e-11
-0.0001358448
0.00015687096
-9.163724e-12
-0.00016109704
0.0001613679
-7.5566423e-12
-0.00018640557
0.00016270076
-6.4040559e-12
-0.00021138936
0.00016103748
-5.1844718e-12
-0.00023568583
0.00015649417
-3.6664198e-12
-0.00025894178
0.0001491447
-1.8542737e-12
-0.00028080731
0.00013903679
-2.9368144e-13
-0.00030093253
0.00012621191
6.0708536e-13
-0.00031896683
0.00011072686
1.1979975e-12
-0.00033456048
9.2674978e-05
1.4759165e-12
-0.00034736838
7.2205888e-05
1.8843722e-12
-0.00035705617
4.9542769e-05
2.6589318e-12
-0.0003633085
2.4996521e-05
3.4605979e-12
-0.00036584085
-1.0226238e-06
4.0868853e-12
-0.00036441127
-2.8002987e-05
4.7278909e-12
-0.00035883982
-5.5322234e-05
5.2051161e-12
-0.00034902583
-8.2260524e-05
5.7093257e-12
-0.00033496965
-0.00010800931
6.2515389e-12
-0.00031679416
-0.00013169469
6.7274749e-12
-0.00029476483
-0.00015241041
7.0207411e-12
-0.00026930551
-0.00016926254
7.0997489e-12
-0.00024100657
-0.00018142507
7.0034537e-12
-0.00021062188
-0.00018820448
6.8302283e-12
-0.00017905157
-0.00018910887
6.6773741e-12
-0.00014730852
-0.00018391514
6.5914848e-12
-0.00011646893
-0.00017272588
6.5676373e-12
-8.7609781e-05
-0.00015600707
6.488988e-12
-6.1739053e-05
-0.00013459924
6.0015401e-12
-3.9726605e-05
-0.00010969822
6.1730979e-12
-2.224452e-05
-8.2806439e-05
9.6378098e-12
-9.7250183e-06
-5.565528e-05
6.4540235e-12
-2.3409315e-06
-3.0109493e-05
-1.4300782e-11
-8.1407728e-06
2.3361724e-11
-3.8458179e-06
2.1679708e-05
-4.4325702e-11
-1.3902754e-05
6.0239764e-05
1.914956e-11
-2.8894071e-05
9.3457677e-05
-1.4453548e-11
-4.7731244e-05
0.00012124561
-1.8950953e-11
-6.9495003e-05
0.00014378352
-1.1974747e-11
-9.3414813e-05
0.00016138431
-9.8485155e-12
-0.0001188445
0.00017441965
-8.8631902e-12
-0.00014523707
0.00018326354
-7.706496e-12
-0.00017212096
0.00018825178
-6.7536852e-12
-0.00019907881
0.00018965861
-5.7367775e-12
-0.00022572946
0.00018768813
-4.2881301e-12
-0.00025171338
0.00018247809
-2.6613752e-12
-0.00027668146
0.00017411279
-1.1318141e-12
-0.000300287
0.00016264233
-1.2200271e-13
-0.00032218052
0.00014810545
2.967715e-13
-0.00034200721
0.00013055356
6.8959987e-13
-0.00035940662
0.00011007438
1.0868781e-12
-0.00037401469
8.6813952e-05
1.7311904e-12
-0.00038546826
6.0996337e-05
2.5770908e-12
-0.00039341239
3.2940642e-05
3.3583111e-12
-0.00039751019
3.0751649e-06
4.0989666e-12
-0.00039745865
-2.8054533e-05
4.5897845e-12
-0.00039300425
-5.977664e-05
5.14049e-12
-0.00038396673
-9.1298046e-05
5.818345e-12
-0.00037026399
-0.00012171205
6.4936012e-12
-0.00035193991
-0.00015001877
7.0093061e-12
-0.00032919218
-0.00017515814
7.2681203e-12
-0.00030239719
-0.00019605754
7.3021874e-12
-0.0002721277
-0.00021169457
7.206077e-12
-0.00023915867
-0.00022117351
7.0361717e-12
-0.00020445649
-0.00022381106
6.8632873e-12
-0.00016914797
-0.00021922368
6.7282722e-12
-0.00013446782
-0.00020740603
6.6237312e-12
-0.00010168698
-0.00018878792
6.3965613e-12
-7.2027974e-05
-0.00016425826
5.6235258e-12
-4.6577273e-05
-0.00013514893
5.6482607e-12
-2.6206266e-05
-0.00010317746
9.6799617e-12
-1.1512246e-05
-7.0349308e-05
6.1131628e-12
-2.7867042e-06
-3.8835011e-05
-1.8372349e-11
-1.0927501e-05
2.7088934e-11
-4.0900902e-06
2.5769845e-05
-4.1897591e-11
-1.4765753e-05
7.0915413e-05
2.5802097e-11
-3.0654757e-05
0.0001093467
-1.0567397e-11
-5.0590382e-05
0.00014118126
-1.5914495e-11
-7.3591737e-05
0.00016678488
-9.1361033e-12
-9.8842391e-05
0.00018663497
-7.6870885e-12
-0.00012566452
0.00020124178
-7.6025548e-12
-0.00015349178
0.00021109079
-6.9795236e-12
-0.00018184333
0.00021660334
-6.0300258e-12
-0.00021030043
0.00021811571
-4.7901653e-12
-0.00023848613
0.00021587384
-3.2669083e-12
-0.00026604859
0.00021004056
-1.9034934e-12
-0.00029264778
0.00020071199
-9.229727e-13
-0.00031794543
0.00018793999
-4.521198e-13
-0.00034159779
0.00017175781
-2.4045875e-13
-0.00036325091
0.00015220669
2.1426534e-13
-0.00038253826
0.00012936173
8.1533859e-13
-0.00039908064
0.00010335633
1.6059322e-12
-0.00041248871
7.44044e-05
2.3829888e-12
-0.00042236859
4.2820515e-05
3.0429303e-12
-0.00042833085
9.0374234e-06
3.7432914e-12
-0.00043000532
-2.6380071e-05
4.3599859e-12
-0.00042705826
-6.2723699e-05
5.0785285e-12
-0.00041921774
-9.913857e-05
5.89739e-12
-0.00040630283
-0.00013462695
6.6364691e-12
-0.00038825764
-0.00016806397
7.1578754e-12
-0.00036518761
-0.00019822817
7.416479e-12
-0.00033739504
-0.00022385011
7.4632692e-12
-0.00030540876
-0.00024368085
7.4085802e-12
-0.00027000208
-0.0002565802
7.2707744e-12
-0.00023219228
-0.00026162086
7.0896335e-12
-0.00019321568
-0.00025820028
6.8884071e-12
-0.00015447464
-0.00024614708
6.6972679e-12
-0.00011745712
-0.00022580545
6.3262036e-12
-8.3635247e-05
-0.00019808014
5.2324214e-12
-5.435476e-05
-0.00016442942
4.938179e-12
-3.0730768e-05
-0.00012680146
9.212342e-12
-1.3566074e-05
-8.7514004e-05
5.5783226e-12
-3.3035142e-06
-4.9097555e-05
-2.3526287e-11
-1.4231046e-05
3.0831649e-11
-4.2918875e-06
3.0061783e-05
-4.0837167e-11
-1.548127e-05
8.2104775e-05
3.0406803e-11
-3.2119526e-05
0.00012598497
-7.9229476e-12
-5.2976938e-05
0.00016203869
-1.39591e-11
-7.7022463e-05
0.00019083041
-7.5396725e-12
-0.00010340217
0.00021301467
-6.675282e-12
-0.00013141276
0.00022925237
-6.9290343e-12
-0.00016047327
0.0002401513
-6.2599683e-12
-0.00019009767
0.00024622774
-5.0299258e-12
-0.00021986967
0.00024788772
-3.6776682e-12
-0.00024942063
0.00024542482
-2.4665048e-12
-0.0002784109
0.00023903084
-1.6605946e-12
-0.00030651451
0.00022881561
-1.1713423e-12
-0.0003334071
0.00021483258
-9.540964e-13
-0.00035875649
0.0001971072
-6.84987e-13
-0.00038221571
0.00017566591
-8.6051796e-14
-0.00040341831
0.00015056433
6.3120704e-13
-0.00042197584
0.00012191385
1.4147031e-12
-0.00043747807
8.9906625e-05
2.0354615e-12
-0.00044949636
5.4838805e-05
2.5936502e-12
-0.00045759107
1.7132126e-05
3.305317e-12
-0.00046132436
-2.2646778e-05
4.1000733e-12
-0.00046027827
-6.3769793e-05
4.9739193e-12
-0.00045408044
-0.0001053364
5.8757732e-12
-0.00044243677
-0.00014627062
6.6307565e-12
-0.00042517109
-0.00018532966
7.149354e-12
-0.00040227013
-0.00022112913
7.4575058e-12
-0.00037393076
-0.00025218948
7.5876853e-12
-0.00034060411
-0.00027700751
7.6102966e-12
-0.00030302941
-0.00029415491
7.5159472e-12
-0.00026224863
-0.00030240165
7.3245283e-12
-0.00021959281
-0.00030085611
7.0411628e-12
-0.00017663293
-0.00028910697
6.7501535e-12
-0.00013509313
-0.00026734526
6.2687046e-12
-9.6731457e-05
-0.00023644182
4.9109718e-12
-6.3201821e-05
-0.00019795906
4.1494877e-12
-3.5917642e-05
-0.00015408576
1.069069e-10
-1.5939762e-05
-0.00010749188
5.0680111e-12
-3.9074833e-06
-6.1129808e-05
-2.8875937e-11
-1.8138565e-05
3.5373937e-11
-4.4474148e-06
3.4509245e-05
-4.0325025e-11
-1.6037004e-05
9.3694328e-05
3.3695003e-11
-3.3264115e-05
0.00014321208
-6.2998865e-12
-5.4851579e-05
0.00018362616
-1.3046524e-11
-7.9729581e-05
0.00021570841
-6.8065136e-12
-0.0001070148
0.00024029989
-6.0555651e-12
-0.0001359842
0.00025822177
-6.0966926e-12
-0.00016604654
0.00027021365
-5.1524488e-12
-0.0001967142
0.00027689542
-3.902101e-12
-0.00022757685
0.00027875038
-2.8640667e-12
-0.00025827787
0.00027612585
-2.1963833e-12
-0.00028849404
0.00026924701
-1.9064611e-12
-0.00031791839
0.00025823997
-1.6732471e-12
-0.00034624611
0.00024316031
-1.4271669e-12
-0.00037316303
0.00022402411
-9.6103005e-13
-0.0003983363
0.00020083918
-2.8793357e-13
-0.00042140728
0.00017363531
3.863277e-13
-0.00044198646
0.00014249303
1.0569421e-12
-0.00045965098
0.00010757113
1.5651522e-12
-0.00047394526
6.9133084e-05
2.1383293e-12
-0.00048438592
2.7572791e-05
2.9460939e-12
-0.00049047212
-1.6560575e-05
3.8730168e-12
-0.00049170241
-6.2539511e-05
4.8198502e-12
-0.00048759992
-0.00010943889
5.7429312e-12
-0.0004777468
-0.00015612374
6.5025215e-12
-0.00046182818
-0.00020124828
7.037381e-12
-0.00043968519
-0.00024327212
7.4221654e-12
-0.00041137436
-0.00028050032
7.6812763e-12
-0.00037722815
-0.00031115372
7.8148885e-12
-0.00033790863
-0.00033347443
7.7786436e-12
-0.00029444302
-0.00034586728
7.5724008e-12
-0.00024822829
-0.00034707084
7.1964742e-12
-0.00020099295
-0.00033634232
6.7876684e-12
-0.00015470866
-0.00031362956
6.2352749e-12
-0.00011145419
-0.0002796963
4.8500638e-12
-7.3245951e-05
-0.0002361673
4.7585459e-12
-4.1861087e-05
-0.00018547064
1.1129829e-11
-1.8685525e-05
-0.00013066745
5.9772173e-12
-4.6148233e-06
-7.5200476e-05
-3.4606941e-11
-2.2753428e-05
4.1043205e-11
-4.5535289e-06
3.9062815e-05
-4.0033737e-11
-1.642294e-05
0.00010556369
3.5681403e-11
-3.4068733e-05
0.00016085787
-5.5971392e-12
-5.6181728e-05
0.00020573915
-1.2777443e-11
-8.1664187e-05
0.00024119087
-6.3265562e-12
-0.00010961079
0.0002682465
-5.2691062e-12
-0.00013928387
0.00028789485
-5.0774666e-12
-0.00017008554
0.00030101534
-4.1233904e-12
-0.00020152964
0.00030833953
-3.2159719e-12
-0.00023321473
0.00031043548
-2.732653e-12
-0.00026479952
0.00030771065
-2.5385722e-12
-0.00029598113
0.00030042863
-2.440501e-12
-0.00032647638
0.00028873522
-2.1435776e-12
-0.00035600578
0.00027268971
-1.7315856e-12
-0.00038428
0.00025229833
-1.1233215e-12
-0.00041098839
0.00022754758
-5.0688419e-13
-0.00043578936
0.00019843627
5.2394158e-14
-0.00045830267
0.00016500633
6.156983e-13
-0.00047810401
0.00012737248
1.1131739e-12
-0.00049472257
8.5751638e-05
1.7898567e-12
-0.00050764249
4.0492717e-05
2.6950612e-12
-0.00051630987
-7.8931968e-06
3.6697645e-12
-0.00052014667
-5.8702713e-05
4.5960055e-12
-0.00051857366
-0.00011101189
5.4907866e-12
-0.00051104433
-0.00016365308
6.2708705e-12
-0.00049709114
-0.00021520148
6.8759911e-12
-0.0004763848
-0.00026397846
7.3609454e-12
-0.00044880514
-0.00030807999
7.757856e-12
-0.00041451918
-0.00034543969
8.0132863e-12
-0.0003740581
-0.00037393553
8.043808e-12
-0.00032838
-0.00039154538
7.8282554e-12
-0.00027890165
-0.0003965492
7.387083e-12
-0.00022748083
-0.00038776314
6.9004161e-12
-0.0001763351
-0.00036477529
6.3190353e-12
-0.00012789302
-0.00032813839
4.9171586e-12
-8.4590916e-05
-0.00027946941
5.0332227e-12
-4.8646407e-05
-0.00022141516
1.3400065e-11
-2.1853525e-05
-0.00015746034
6.706107e-12
-5.4417753e-06
-9.1612187e-05
-4.1406351e-11
-2.819525e-05
4.7624263e-11
-4.6082651e-06
4.3671115e-05
-3.9839235e-11
-1.6633013e-05
0.00011758839
3.6581673e-11
-3.4521132e-05
0.00017874599
-5.2091029e-12
-5.6946082e-05
0.00022816412
-1.2247681e-11
-8.2792003e-05
0.0002670368
-5.4554258e-12
-0.00011113793
0.00029659244
-4.1787431e-12
-0.00014123563
0.00031799256
-4.1161418e-12
-0.0001724835
0.00033226322
-3.5713349e-12
-0.00020439915
0.00034025519
-3.1644816e-12
-0.00023659243
0.00034262877
-3.084266e-12
-0.0002687402
0.00033985843
-3.0584363e-12
-0.00030056351
0.00033225195
-2.8764578e-12
-0.00033180748
0.00031997919
-2.3984669e-12
-0.0003622237
0.00030310592
-1.8725227e-12
-0.00039155481
0.00028162945
-1.2746528e-12
-0.00041952104
0.0002555138
-8.228481e-13
-0.00044580824
0.00022472347
-3.5869231e-13
-0.00047005763
0.00018925572
1.887992e-13
-0.00049185735
0.0001491722
7.7645421e-13
-0.00051073654
0.00010463083
1.5698985e-12
-0.00052616287
5.5919053e-05
2.5193615e-12
-0.00053754502
3.4889549e-06
3.4755818e-12
-0.0005442421
-5.2005636e-05
4.3415826e-12
-0.00054558214
-0.00010967185
5.1845944e-12
-0.00054089287
-0.00016834235
5.9824618e-12
-0.0005295472
-0.00022654716
6.6894365e-12
-0.00051102583
-0.00028249984
7.3035898e-12
-0.00048499745
-0.00033410837
7.8347376e-12
-0.00045141388
-0.00037902326
8.195586e-12
-0.00041061264
-0.00041473678
8.2665601e-12
-0.00036341302
-0.000438745
8.0074046e-12
-0.00031118499
-0.00044877725
7.4656222e-12
-0.00025586516
-0.00044308298
6.835174e-12
-0.00019989572
-0.00042074474
6.0094586e-12
-0.00014607214
-0.00038196197
4.6608478e-12
-9.7307062e-05
-0.0003282345
5.0781938e-12
-5.6345438e-05
-0.0002623768
1.5217599e-11
-2.5490542e-05
-0.00018831523
7.2749215e-12
-6.4045067e-06