/*--------------------------------*- C++ -*----------------------------------*\
  =========                 |
  \\      /  F ield         | OpenFOAM: The Open Source CFD Toolbox
   \\    /   O peration     | Website:  https://openfoam.org
    \\  /    A nd           | Version:  7
     \\/     M anipulation  |
\*---------------------------------------------------------------------------*/
FoamFile
{
    version     2.0;
    format      ascii;
    class       volVectorField;
    location    "10";
    object      U;
}
// * * * * * * * * * * * * * * * * * * * * * * * * * * * * * * * * * * * * * //

dimensions      [0 1 -1 0 0 0 0];

internalField   nonuniform List<vector> 
16000
(
(6.5930552e-05 -6.5945672e-05 5.3887312e-07)
(0.00016150865 -5.5175664e-05 7.0231864e-06)
(0.00013920965 1.0663081e-06 2.0613855e-05)
(-5.294733e-05 6.1833921e-05 3.7992845e-05)
(-0.00041015144 0.00011500451 5.5975658e-05)
(-0.00090553371 0.00015667057 7.2635341e-05)
(-0.0015093724 0.00018709699 8.6661246e-05)
(-0.0021928346 0.00020796873 9.7249852e-05)
(-0.0029302308 0.00022108239 0.00010395048)
(-0.0036994031 0.00022791908 0.00010652309)
(-0.0044811183 0.00022953535 0.00010484469)
(-0.0052581967 0.00022655673 9.8856577e-05)
(-0.0060146445 0.00021923811 8.853779e-05)
(-0.0067349051 0.00020755791 7.3902376e-05)
(-0.0074033417 0.00019132493 5.5012702e-05)
(-0.0080040047 0.00017028618 3.2002677e-05)
(-0.0085206867 0.00014423211 5.1037159e-06)
(-0.0089372494 0.00011309704 -2.5327823e-05)
(-0.0092382062 7.704763e-05 -5.8785458e-05)
(-0.009409519 3.6552694e-05 -9.4597739e-05)
(-0.0094395484 -7.5685373e-06 -0.00013192268)
(-0.009320072 -5.4139185e-05 -0.00016975855)
(-0.0090473077 -0.00010159946 -0.00020697026)
(-0.0086228414 -0.00014807797 -0.00024233189)
(-0.0080543406 -0.00019146999 -0.00027458531)
(-0.00735598 -0.00022955506 -0.00030251304)
(-0.0065484761 -0.00026014336 -0.00032501823)
(-0.0056586718 -0.00028124177 -0.00034120704)
(-0.0047186523 -0.0002912237 -0.000350467)
(-0.0037644098 -0.00028897772 -0.00035253445)
(-0.0028341072 -0.00027402303 -0.00034754315)
(-0.001966061 -0.00024657858 -0.00033604884)
(-0.0011965568 -0.00020758022 -0.00031903228)
(-0.00055753133 -0.00015868448 -0.00029788124)
(-7.4166404e-05 -0.00010237796 -0.000274347)
(0.00023704591 -4.2254227e-05 -0.00025046286)
(0.00037224058 1.6928238e-05 -0.00022859798)
(0.00034530569 6.5945153e-05 -0.00021116818)
(0.00020422703 8.8876891e-05 -0.00020083247)
(5.7092048e-05 5.7035397e-05 -0.00018623488)
(5.7324786e-05 -0.00016368433 -5.2207143e-06)
(3.9308772e-05 -3.7295049e-05 1.2525728e-06)
(-0.00029555167 0.00024863404 1.2924264e-05)
(-0.0010071084 0.0005590474 2.724447e-05)
(-0.0020870731 0.00084147272 4.212114e-05)
(-0.0034903024 0.001074618 5.5982506e-05)
(-0.0051564874 0.001253867 6.7717181e-05)
(-0.007021889 0.0013822361 7.6581988e-05)
(-0.0090253863 0.0014651968 8.2104529e-05)
(-0.011110633 0.0015082295 8.3992729e-05)
(-0.013226103 0.0015157391 8.2068708e-05)
(-0.015324137 0.0014906641 7.6226723e-05)
(-0.017359638 0.0014345338 6.6411848e-05)
(-0.019288852 0.0013477793 5.2617691e-05)
(-0.021068539 0.0012301794 3.4895037e-05)
(-0.022655692 0.0010813723 1.3369001e-05)
(-0.024007837 0.00090138022 -1.1739715e-05)
(-0.02508394 0.00069110588 -4.0092073e-05)
(-0.025845845 0.00045276186 -7.1209753e-05)
(-0.026260153 0.00019019733 -0.00010446376)
(-0.026300412 -9.0897782e-05 -0.00013906998)
(-0.025949358 -0.00038290924 -0.00017410485)
(-0.025201142 -0.00067642975 -0.00020852216)
(-0.024063305 -0.00096054268 -0.00024119986)
(-0.022558175 -0.0012232962 -0.00027099277)
(-0.020723595 -0.0014523492 -0.00029679975)
(-0.01861278 -0.0016357531 -0.00031763741)
(-0.016293165 -0.00176281 -0.00033271572)
(-0.013844203 -0.0018249435 -0.00034150946)
(-0.011354145 -0.001816496 -0.0003438177)
(-0.0089159079 -0.0017353744 -0.00033980542)
(-0.0066222309 -0.0015834998 -0.00033002135)
(-0.0045603236 -0.0013670553 -0.00031539229)
(-0.0028061828 -0.0010966424 -0.00029719399)
(-0.001418637 -0.00078764764 -0.0002770009)
(-0.0004331656 -0.0004611654 -0.0002566099)
(0.00014466772 -0.00014541639 -0.00023792529)
(0.0003486114 0.00011814651 -0.00022294619)
(0.00027122735 0.00026712084 -0.00021375974)
(8.9147913e-05 0.000203145 -0.00019739908)
(1.5362651e-06 -0.00014530458 -1.8632986e-05)
(-0.00025528503 0.00029835412 -9.8839603e-06)
(-0.0010442331 0.0010186374 1.9843057e-06)
(-0.0023710225 0.0017850067 1.4891273e-05)
(-0.0042069034 0.0024901076 2.7816914e-05)
(-0.0064926421 0.0030840117 3.963021e-05)
(-0.0091479766 0.0035499361 4.9511784e-05)
(-0.0120857 0.0038888267 5.6906261e-05)
(-0.015219544 0.0041091972 6.1439083e-05)
(-0.018467351 0.0042213474 6.2859531e-05)
(-0.021751831 0.0042343534 6.0999054e-05)
(-0.024999976 0.0041547741 5.5743521e-05)
(-0.028141887 0.0039864866 4.7021042e-05)
(-0.03110963 0.0037312247 3.4801825e-05)
(-0.033836505 0.0033895288 1.9107154e-05)
(-0.036256964 0.0029619207 2.582103e-08)
(-0.038307284 0.0024501341 -2.2266428e-05)
(-0.039926971 0.0018582754 -4.7485063e-05)
(-0.041060866 0.001193816 -7.5217712e-05)
(-0.041661765 0.00046833632 -0.00010491342)
(-0.041693348 -0.00030203762 -0.00013587951)
(-0.041133243 -0.001096529 -0.00016728744)
(-0.039975937 -0.0018901324 -0.00019819854)
(-0.038235239 -0.0026543547 -0.00022759916)
(-0.035946046 -0.0033584392 -0.00025445075)
(-0.033165156 -0.0039709743 -0.00027775234)
(-0.0299709 -0.0044618124 -0.00029660957)
(-0.026461433 -0.0048041703 -0.00031030481)
(-0.022751626 -0.0049767531 -0.00031836378)
(-0.018968564 -0.0049657307 -0.00032061122)
(-0.015245766 -0.0047663934 -0.00031720664)
(-0.011716376 -0.0043843797 -0.00030865686)
(-0.0085055595 -0.0038364642 -0.00029580382)
(-0.0057224262 -0.00315106 -0.00027978766)
(-0.0034516628 -0.0023688384 -0.00026198861)
(-0.0017450419 -0.0015441469 -0.0002439484)
(-0.00061304575 -0.00074805595 -0.00022726515)
(-1.5900096e-05 -7.3948439e-05 -0.00021351899)
(0.00015107122 0.000352304 -0.00020438462)
(7.2381441e-05 0.00034989369 -0.00018729744)
(-6.4416899e-05 5.3008932e-05 -3.6512484e-05)
(-0.00060399259 0.0010416369 -2.3906224e-05)
(-0.0019149898 0.002365683 -1.0016955e-05)
(-0.0039129423 0.0037270424 3.1717654e-06)
(-0.0065312761 0.0049730599 1.5634404e-05)
(-0.0096916808 0.0060268348 2.6614463e-05)
(-0.013295337 0.0068586029 3.5578245e-05)
(-0.017236135 0.0074658722 4.2192178e-05)
(-0.021408561 0.0078591061 4.6224247e-05)
(-0.025710677 0.0080528224 4.7506288e-05)
(-0.030045001 0.0080606046 4.5910511e-05)
(-0.034318165 0.0078927832 4.1333756e-05)
(-0.038439986 0.0075559508 3.3694497e-05)
(-0.042322573 0.0070537124 2.2937132e-05)
(-0.045879859 0.0063882005 9.0433704e-06)
(-0.049027842 0.0055619953 -7.9475866e-06)
(-0.051685629 0.0045801557 -2.7917493e-05)
(-0.053777295 0.003452135 -5.0645815e-05)
(-0.055234466 0.0021934074 -7.5789737e-05)
(-0.05599944 0.00082666647 -0.00010287104)
(-0.056028609 -0.0006175171 -0.00013126899)
(-0.055296006 -0.0021006925 -0.00016022412)
(-0.05379662 -0.0035772185 -0.00018886233)
(-0.051549163 -0.0049956796 -0.00021622578)
(-0.048598058 -0.006301027 -0.00024132124)
(-0.045014326 -0.0074373653 -0.00026318083)
(-0.040895123 -0.0083512516 -0.00028093069)
(-0.036361737 -0.0089953164 -0.00029386194)
(-0.03155594 -0.0093319468 -0.00030149707)
(-0.026634683 -0.0093367523 -0.00030364587)
(-0.021763227 -0.0090015383 -0.0003004402)
(-0.017106941 -0.0083365855 -0.00029234393)
(-0.012822104 -0.0073721653 -0.00028013629)
(-0.00904608 -0.0061594368 -0.00026486827)
(-0.0058873367 -0.0047711547 -0.00024779565)
(-0.0034157133 -0.0033030023 -0.00023029595)
(-0.0016531231 -0.0018765639 -0.00021378507)
(-0.00056480485 -0.00064408583 -0.00019964361)
(-5.3539665e-05 0.00020335561 -0.00018908435)
(3.6987981e-05 0.00040699961 -0.00017012804)
(-0.00012984739 0.00044501177 -5.5655477e-05)
(-0.00096237936 0.002228102 -3.8584486e-05)
(-0.0028200535 0.004325069 -2.1848924e-05)
(-0.0055126283 0.0064024571 -7.5527643e-06)
(-0.0089239302 0.0082795475 5.2206659e-06)
(-0.012950454 0.0098612414 1.6045017e-05)
(-0.017472943 0.011108759 2.4656657e-05)
(-0.022367567 0.012017449 3.0949862e-05)
(-0.027512652 0.012599765 3.4848414e-05)
(-0.032790495 0.012874083 3.6280138e-05)
(-0.038087733 0.012858136 3.51698e-05)
(-0.043294933 0.012565829 3.1433364e-05)
(-0.048305775 0.012006521 2.4980135e-05)
(-0.053016356 0.011186034 1.5723466e-05)
(-0.057324991 0.010108768 3.5982357e-06)
(-0.061132754 0.0087803899 -1.1415064e-05)
(-0.064344854 0.0072106908 -2.9265951e-05)
(-0.066872835 0.0054162699 -4.980661e-05)
(-0.068637485 0.0034227989 -7.2768053e-05)
(-0.069572286 0.0012666569 -9.7743382e-05)
(-0.069627168 -0.0010042294 -0.00012417627)
(-0.068772338 -0.0033304782 -0.00015136317)
(-0.067001887 -0.0056423024 -0.00017847133)
(-0.064336842 -0.0078616364 -0.00020456841)
(-0.060827409 -0.0099052617 -0.00022866939)
(-0.056554072 -0.011688865 -0.00024979827)
(-0.051627267 -0.013131848 -0.00026705831)
(-0.046185406 -0.014162631 -0.00027970595)
(-0.040391062 -0.01472411 -0.00028722138)
(-0.034425256 -0.014778859 -0.00028936766)
(-0.028479901 -0.014313696 -0.00028622789)
(-0.022748614 -0.013343254 -0.00027821515)
(-0.017416271 -0.011912393 -0.00026605287)
(-0.012647804 -0.010097498 -0.00025072626)
(-0.0085769481 -0.0080070349 -0.00023340712)
(-0.0052956257 -0.0057821837 -0.00021536466)
(-0.0028438416 -0.0035985226 -0.00019790323)
(-0.0012008175 -0.0016685963 -0.00018228141)
(-0.00029051833 -0.00024685964 -0.00016921914)
(-3.0956784e-06 0.00034209961 -0.0001478148)
(-0.00019106077 0.0010253124 -7.3783121e-05)
(-0.0013110533 0.0038620621 -5.1929447e-05)
(-0.003714666 0.0069083548 -3.1922325e-05)
(-0.0071017645 0.009822039 -1.5997364e-05)
(-0.011300752 0.012412302 -2.3688188e-06)
(-0.016178292 0.014577438 8.8230305e-06)
(-0.021592322 0.016276468 1.7561247e-05)
(-0.027401129 0.017506132 2.3955433e-05)
(-0.033468407 0.01828246 2.8082323e-05)
(-0.039663308 0.018628219 2.9968037e-05)
(-0.045859851 0.018565339 2.9591513e-05)
(-0.051936084 0.018111207 2.6886761e-05)
(-0.057773144 0.017277931 2.1751339e-05)
(-0.063254613 0.016073728 1.4062703e-05)
(-0.068266464 0.014505689 3.7012083e-06)
(-0.07269781 0.012583271 -9.4201558e-06)
(-0.076442495 0.010321974 -2.5326698e-05)
(-0.079401501 0.0077467941 -4.394998e-05)
(-0.081486046 0.0048951055 -6.5099147e-05)
(-0.082621233 0.0018187225 -8.8438698e-05)
(-0.082750004 -0.0014150788 -0.00011347218)
(-0.081837199 -0.0047237228 -0.00013953994)
(-0.079873439 -0.008010753 -0.00016583225)
(-0.076878547 -0.011168625 -0.00019141794)
(-0.072904187 -0.01408281 -0.00021528942)
(-0.068035436 -0.016637134 -0.00023642585)
(-0.062390911 -0.018720162 -0.00025386764)
(-0.056121176 -0.020232319 -0.00026679563)
(-0.049405149 -0.021093314 -0.0002746085)
(-0.04244435 -0.02124936 -0.00027698847)
(-0.035454967 -0.02067963 -0.00027394406)
(-0.028657931 -0.019401431 -0.00026582361)
(-0.022267382 -0.01747373 -0.00025329601)
(-0.016478157 -0.014998905 -0.00023729889)
(-0.01145325 -0.012122981 -0.00021895612)
(-0.0073122195 -0.0090350561 -0.00019948232)
(-0.0041199559 -0.0059668389 -0.00018014207)
(-0.0018770422 -0.003191945 -0.00016216281)
(-0.00053585013 -0.0010262181 -0.00014586431)
(-4.149539e-05 0.00014972353 -0.00012161122)
(-0.00024755027 0.0017848345 -8.8952905e-05)
(-0.0016425634 0.0059323322 -6.2168158e-05)
(-0.0045764346 0.010105969 -3.8727071e-05)
(-0.0086416871 0.013975526 -2.0871564e-05)
(-0.013609719 0.017356747 -6.0227006e-06)
(-0.019314858 0.020153657 5.927417e-06)
(-0.025590631 0.022331386 1.5183656e-05)
(-0.032277121 0.023893193 2.2053593e-05)
(-0.039224268 0.024861575 2.6755265e-05)
(-0.046289934 0.025265132 2.9405647e-05)
(-0.053338044 0.025130576 3.0032841e-05)
(-0.060237044 0.024478942 2.8583292e-05)
(-0.066858595 0.023325103 2.4935865e-05)
(-0.073076781 0.021679707 1.892485e-05)
(-0.07876804 0.019552678 1.036873e-05)
(-0.083811965 0.016957537 -8.9518022e-07)
(-0.088092955 0.01391591 -1.4976661e-05)
(-0.091502674 0.01046174 -3.1894106e-05)
(-0.093943214 0.0066447856 -5.1540345e-05)
(-0.095330818 0.0025331175 -7.3653802e-05)
(-0.095599966 -0.0017856275 -9.7796156e-05)
(-0.094707643 -0.0062044147 -0.0001233456)
(-0.092637563 -0.010598494 -0.00014950345)
(-0.089404092 -0.014828752 -0.00017532025)
(-0.085055525 -0.018746696 -0.00019974023)
(-0.07967643 -0.022201021 -0.00022166584)
(-0.073388613 -0.025045579 -0.00024003717)
(-0.066350319 -0.027148421 -0.00025391846)
(-0.058753277 -0.028401415 -0.00026258502)
(-0.050817277 -0.028729802 -0.00026559898)
(-0.042782157 -0.028100943 -0.00026286186)
(-0.034897294 -0.026531506 -0.0002546358)
(-0.027408995 -0.024092443 -0.00024152866)
(-0.020546529 -0.020911393 -0.00022444211)
(-0.014507997 -0.017172529 -0.00020448308)
(-0.0094473032 -0.013114431 -0.00018286223)
(-0.0054611533 -0.0090268428 -0.00016087387)
(-0.0025777141 -0.0052458391 -0.00013979918)
(-0.00078234002 -0.0021486114 -0.00011964086)
(-7.7044183e-05 -0.00016933528 -9.2328973e-05)
(-0.00029967753 0.0027128466 -9.9516424e-05)
(-0.0019542883 0.0084197465 -6.770487e-05)
(-0.0053939986 0.013895788 -4.0844774e-05)
(-0.010109826 0.018838936 -2.0927155e-05)
(-0.01581743 0.023086264 -4.6433766e-06)
(-0.022318305 0.026559509 8.3373456e-06)
(-0.029421122 0.029238759 1.8418563e-05)
(-0.036947857 0.031139819 2.6086984e-05)
(-0.044735509 0.032295449 3.1687458e-05)
(-0.052632177 0.03274226 3.5416043e-05)
(-0.06049378 0.032512851 3.7338687e-05)
(-0.068181623 0.031632355 3.7404172e-05)
(-0.075560522 0.030118505 3.5464228e-05)
(-0.082497676 0.027984298 3.1301685e-05)
(-0.088862401 0.025242331 2.4663995e-05)
(-0.094526795 0.021909993 1.5303275e-05)
(-0.099367279 0.01801483 3.015661e-06)
(-0.10326695 0.013599506 -1.2313348e-05)
(-0.10611868 0.0087259458 -3.0668363e-05)
(-0.10782877 0.0034783165 -5.1869136e-05)
(-0.10832118 -0.0020353903 -7.5540084e-05)
(-0.10754192 -0.0076833919 -0.00010109712)
(-0.10546378 -0.013311867 -0.00012774744)
(-0.10209086 -0.018748692 -0.00015451185)
(-0.097462785 -0.023809108 -0.00018026684)
(-0.091658139 -0.02830339 -0.00020381068)
(-0.0847967 -0.03204636 -0.00022394772)
(-0.077039896 -0.03486844 -0.00023958361)
(-0.068588955 -0.03662771 -0.00024982419)
(-0.059680246 -0.037222196 -0.00025406505)
(-0.050577496 -0.03660143 -0.00025205915)
(-0.041560861 -0.034776224 -0.00024395082)
(-0.032913181 -0.031825638 -0.00023027027)
(-0.024904263 -0.027900405 -0.00021188575)
(-0.017774644 -0.023222519 -0.00018991139)
(-0.011720403 -0.018081391 -0.00016559933)
(-0.0068774831 -0.012827357 -0.00014033907)
(-0.0033075817 -0.0078621035 -0.00011554683)
(-0.0010324948 -0.0036273443 -9.0992815e-05)
(-0.0001107212 -0.00061399852 -6.0450936e-05)
(-0.00034777823 0.0037981835 -0.00010403008)
(-0.0022449171 0.011300697 -6.7083891e-05)
(-0.0061603531 0.018247873 -3.6930708e-05)
(-0.011490957 0.024379087 -1.4930997e-05)
(-0.017899733 0.029565641 2.9005248e-06)
(-0.025156407 0.033758126 1.7100005e-05)
(-0.033045452 0.036960353 2.8252526e-05)
(-0.041371451 0.039207055 3.7006619e-05)
(-0.0499595 0.040545574 4.381757e-05)
(-0.05864939 0.04102323 4.8945433e-05)
(-0.067290903 0.040680037 5.2481044e-05)
(-0.075740371 0.039545939 5.4364459e-05)
(-0.083858091 0.037641701 5.4409974e-05)
(-0.091506697 0.034982472 5.233894e-05)
(-0.098550512 0.031583069 4.7817417e-05)
(-0.10485589 0.027464089 4.0501448e-05)
(-0.11029248 0.022658143 3.0082104e-05)
(-0.11473531 0.017215598 1.6336068e-05)
(-0.11806766 0.011209402 -8.2632118e-07)
(-0.12018458 0.0047386597 -2.1318226e-05)
(-0.12099714 -0.0020693099 -4.4838006e-05)
(-0.120437 -0.0090586768 -7.0847963e-05)
(-0.11846164 -0.016046621 -9.8563639e-05)
(-0.11505973 -0.022827203 -0.00012697234)
(-0.11025648 -0.029177435 -0.00015487042)
(-0.10411853 -0.034865821 -0.00018092898)
(-0.096757873 -0.039663312 -0.00020378241)
(-0.088334099 -0.043356426 -0.00022213316)
(-0.079054195 -0.045762 -0.00023486521)
(-0.06916917 -0.046742684 -0.00024115182)
(-0.058966929 -0.046221986 -0.00024054337)
(-0.048761145 -0.044197414 -0.00023302127)
(-0.038876357 -0.040750233 -0.00021900859)
(-0.029630136 -0.036050556 -0.00019933162)
(-0.021314077 -0.030357062 -0.00017512714)
(-0.014175521 -0.02401144 -0.00014772852)
(-0.0083980503 -0.017428356 -0.00011868268)
(-0.0040833652 -0.011080585 -8.9619551e-05)
(-0.0012934546 -0.005481078 -6.0145632e-05)
(-0.00014407407 -0.0011860868 -2.6105564e-05)
(-0.00039194419 0.0050293363 -0.00010119318)
(-0.0025130623 0.014548407 -5.8969487e-05)
(-0.0068696011 0.023126347 -2.571834e-05)
(-0.012772467 0.030555182 -1.6878077e-06)
(-0.019836209 0.036751729 1.7738981e-05)
(-0.027800943 0.041705565 3.3292266e-05)
(-0.036428503 0.045452548 4.5726058e-05)
(-0.045507392 0.048052695 5.5833717e-05)
(-0.054852121 0.049572471 6.41651e-05)
(-0.064295692 0.050072929 7.1029594e-05)
(-0.073683523 0.049603316 7.6529904e-05)
(-0.08286898 0.048199305 8.0585967e-05)
(-0.091709982 0.045884927 8.2963702e-05)
(-0.10006673 0.042677199 8.3312117e-05)
(-0.10780052 0.038592433 8.12051e-05)
(-0.11477362 0.03365333 7.6190124e-05)
(-0.12085003 0.027896092 6.7839014e-05)
(-0.12589719 0.021376998 5.5803952e-05)
(-0.12978844 0.014177977 3.9871658e-05)
(-0.13240635 0.0064109163 2.0016263e-05)
(-0.13364677 -0.0017796066 -3.5526631e-06)
(-0.13342367 -0.01021542 -3.0363385e-05)
(-0.13167478 -0.018685723 -5.9650663e-05)
(-0.12836805 -0.026950706 -9.0374489e-05)
(-0.12350814 -0.034747645 -0.00012124644)
(-0.11714323 -0.041799994 -0.00015079287)
(-0.10937099 -0.047829575 -0.00017744594)
(-0.1003432 -0.052571742 -0.00019965791)
(-0.090267809 -0.055793059 -0.00021603084)
(-0.079407524 -0.057310529 -0.00022544741)
(-0.068073945 -0.057010931 -0.00022718592)
(-0.056616635 -0.054868375 -0.00022100228)
(-0.045407141 -0.050957951 -0.00020716557)
(-0.034818729 -0.045463526 -0.00018643664)
(-0.025203864 -0.03867828 -0.0001599792)
(-0.016871724 -0.03099773 -0.00012924036)
(-0.010063492 -0.022905934 -9.5983794e-05)
(-0.0049287514 -0.014954756 -6.2130862e-05)
(-0.001575069 -0.0077386991 -2.7177185e-05)
(-0.00017908188 -0.0018925844 1.075953e-05)
(-0.00043201392 0.006394121 -8.9819332e-05)
(-0.0027568387 0.018133126 -4.2138116e-05)
(-0.0075156095 0.028490071 -6.031951e-06)
(-0.013942074 0.037319536 1.99334e-05)
(-0.021607246 0.044593754 4.0964344e-05)
(-0.030224532 0.050350363 5.7977186e-05)
(-0.039535323 0.054664952 7.1883797e-05)
(-0.049313805 0.057628924 8.3607615e-05)
(-0.059365474 0.059332412 9.377861e-05)
(-0.069518145 0.059853374 0.00010274264)
(-0.079614626 0.059252306 0.00011060261)
(-0.089507227 0.057571675 0.00011724742)
(-0.099053523 0.054839078 0.00012238453)
(-0.10811333 0.05107304 0.0001255799)
(-0.11654686 0.04629043 0.00012630362)
(-0.12421395 0.040514555 0.00012398141)
(-0.13097424 0.033783198 0.00011804869)
(-0.13668828 0.026156044 0.00010801276)
(-0.14121945 0.017721121 9.3513614e-05)
(-0.14443688 0.0085999585 7.4386235e-05)
(-0.14621938 -0.0010487313 5.0720538e-05)
(-0.14646022 -0.011027071 2.2888941e-05)
(-0.1450733 -0.021098517 -8.3811568e-06)
(-0.14200056 -0.03099026 -4.2041056e-05)
(-0.13721988 -0.040399043 -7.6724028e-05)
(-0.13075388 -0.049000361 -0.00011080217)
(-0.12267847 -0.05646152 -0.00014247689)
(-0.1131303 -0.0624587 -0.00016990158)
(-0.10231188 -0.066697694 -0.00019132893)
(-0.090492955 -0.068937392 -0.00020526897)
(-0.078006707 -0.069014337 -0.00021063898)
(-0.065239745 -0.066865983 -0.00020688411)
(-0.052615363 -0.062549772 -0.00019404952)
(-0.040570694 -0.056255105 -0.00017278661)
(-0.029529932 -0.04830589 -0.00014427443)
(-0.01987641 -0.039152737 -0.00011009656)
(-0.011921003 -0.029355337 -7.2289539e-05)
(-0.0058713096 -0.019555128 -3.3145492e-05)
(-0.0018885423 -0.010441888 7.912881e-06)
(-0.00021786056 -0.0027461675 5.030874e-05)
(-0.00046762884 0.007879289 -6.8831464e-05)
(-0.0029738289 0.022021877 -1.5481658e-05)
(-0.0080915874 0.034292759 2.3201463e-05)
(-0.014986942 0.04461785 5.0979355e-05)
(-0.023192798 0.053033424 7.360294e-05)
(-0.032399203 0.059633179 9.2168357e-05)
(-0.042329699 0.064539383 0.00010773447)
(-0.052746195 0.067880513 0.00012134252)
(-0.063446902 0.069774783 0.00013369065)
(-0.0742561 0.07032026 0.00014515051)
(-0.085015714 0.06959082 0.00015581587)
(-0.09557886 0.067636918 0.00016553538)
(-0.10580474 0.064490084 0.00017394926)
(-0.11555482 0.060169975 0.00018053139)
(-0.12469022 0.05469293 0.00018463635)
(-0.1330702 0.048081083 0.00018555342)
(-0.1405516 0.040371338 0.00018256316)
(-0.14698919 0.031623707 0.00017500387)
(-0.15223694 0.021928688 0.00016233944)
(-0.15615037 0.011413459 0.00014422951)
(-0.15858993 0.00024672544 0.00012059829)
(-0.15942612 -0.011357993 9.1712002e-05)
(-0.15854569 -0.023141567 5.8188997e-05)
(-0.15585963 -0.0348003 2.1062292e-05)
(-0.15131287 -0.045990728 -1.8241017e-05)
(-0.14489509 -0.056338308 -5.7940933e-05)
(-0.13665201 -0.065450819 -9.5987579e-05)
(-0.12669631 -0.072936954 -0.00013018855)
(-0.11521659 -0.078430084 -0.00015837343)
(-0.10248251 -0.081616409 -0.00017858292)
(-0.088844249 -0.082265706 -0.00018926197)
(-0.074724441 -0.080261826 -0.0001894316)
(-0.060601425 -0.075629154 -0.00017881271)
(-0.046983971 -0.06855086 -0.00015787461)
(-0.034379663 -0.059375271 -0.00012777743)
(-0.02326019 -0.048608347 -9.0249569e-05)
(-0.014020902 -0.036892363 -4.765254e-05)
(-0.0069405816 -0.024971077 -2.7323966e-06)
(-0.0022457367 -0.013646532 4.5134473e-05)
(-0.00026256463 -0.0037656745 9.2736717e-05)
(-0.00049830245 0.0094702052 -3.7269769e-05)
(-0.0031612266 0.026178155 2.1982452e-05)
(-0.0085901853 0.040482872 6.2937207e-05)
(-0.015893668 0.052389216 9.2390406e-05)
(-0.024572268 0.062004834 0.00011658616)
(-0.034296241 0.069486369 0.00013679367)
(-0.044774055 0.075008904 0.00015420969)
(-0.055757499 0.078743185 0.00016998234)
(-0.067039272 0.080839689 0.00018486868)
(-0.078441759 0.081419759 0.00019925823)
(-0.089807673 0.080572859 0.00021322872)
(-0.10099273 0.078358754 0.00022658275)
(-0.11185969 0.074813382 0.00023888678)
(-0.12227373 0.069957206 0.00024951509)
(-0.13209901 0.063804901 0.00025769689)
(-0.14119632 0.056375494 0.00026257003)
(-0.14942166 0.04770227 0.00026324012)
(-0.15662575 0.037842054 0.00025885008)
(-0.16265449 0.026883602 0.00024865358)
(-0.16735049 0.014954978 0.00023209485)
(-0.17055598 0.0022297751 0.00020889073)
(-0.17211749 -0.011068126 0.00017911924)
(-0.17189217 -0.024661479 0.00014326469)
(-0.1697563 -0.038219324 0.0001022885)
(-0.16561626 -0.051359868 5.7638253e-05)
(-0.15942126 -0.063657873 1.1226787e-05)
(-0.15117771 -0.074657623 -3.4637553e-05)
(-0.14096394 -0.083892406 -7.7376694e-05)
(-0.12894374 -0.090910952 -0.00011432149)
(-0.11537654 -0.095310423 -0.00014293368)
(-0.10062153 -0.09677423 -0.00016105049)
(-0.085133086 -0.095111461 -0.0001671218)
(-0.069445361 -0.090293152 -0.00016040481)
(-0.054145243 -0.082479659 -0.00014107525)
(-0.039835641 -0.07203353 -0.00011020755)
(-0.02709269 -0.059514146 -6.9661736e-05)
(-0.016414117 -0.04565323 -2.2169486e-05)
(-0.0081668661 -0.031311491 2.8980546e-05)
(-0.0026588238 -0.017423379 8.4438442e-05)
(-0.00031537079 -0.004976308 0.00013819183)
(-0.00052348342 0.011150666 5.6904227e-06)
(-0.0033160688 0.030561755 7.10941e-05)
(-0.0090039236 0.047003574 0.00011399342)
(-0.016648863 0.060566135 0.00014497531)
(-0.025725192 0.071434388 0.00017071921)
(-0.03588699 0.079833621 0.00019265896)
(-0.046830425 0.085996997 0.00021212143)
(-0.058299292 0.090142176 0.00023035211)
(-0.070082476 0.092455799 0.00024816018)
(-0.082002012 0.093085592 0.00026594828)
(-0.093902964 0.09213889 0.00028377461)
(-0.10564534 0.089686229 0.00030139328)
(-0.11709738 0.085768602 0.00031829437)
(-0.12813005 0.08040708 0.00033374742)
(-0.13861282 0.073613631 0.0003468481)
(-0.14841043 0.065402244 0.00035657005)
(-0.15738053 0.055799758 0.00036182414)
(-0.16537221 0.044856073 0.00036152967)
(-0.17222557 0.032653598 0.00035469246)
(-0.17777229 0.019315903 0.00034049375)
(-0.18183774 0.0050155046 0.00031838561)
(-0.18424494 -0.01001946 0.00028819148)
(-0.18482062 -0.025499892 0.00025019127)
(-0.18340392 -0.041072931 0.00020520541)
(-0.17985806 -0.056322323 0.00015464131)
(-0.17408491 -0.070773567 0.00010050231)
(-0.1660421 -0.083905395 4.5341332e-05)
(-0.15576187 -0.095169108 -7.8532017e-06)
(-0.14336991 -0.10401692 -5.5843164e-05)
(-0.12910177 -0.10993951 -9.5393859e-05)
(-0.11331341 -0.11251149 -0.00012357615)
(-0.096482253 -0.11144149 -0.00013808422)
(-0.079195151 -0.106621 -0.00013752402)
(-0.062121031 -0.098164624 -0.00012161498)
(-0.045969466 -0.08643322 -9.123286e-05)
(-0.031438687 -0.072033771 -4.8323492e-05)
(-0.019150117 -0.055792997 3.9791815e-06)
(-0.0095803651 -0.038704434 6.1749623e-05)
(-0.0031401162 -0.021858169 0.0001256468)
(-0.00037850108 -0.0064097169 0.00018670247)
(-0.00054262601 0.012902883 6.071753e-05)
(-0.003435544 0.035128862 0.0001325303)
(-0.0093258409 0.053792943 0.00017702908)
(-0.017240124 0.069074763 0.00020938598)
(-0.02663252 0.081240929 0.0002366504)
(-0.037144425 0.090589807 0.00026041179)
(-0.048462332 0.097416982 0.00028211923)
(-0.060324005 0.10199109 0.00030310758)
(-0.072516041 0.10453855 0.0003242339)
(-0.084861493 0.10523651 0.0003459129)
(-0.097209188 0.10421256 0.00036818411)
(-0.10942501 0.10154964 0.00039075441)
(-0.12138447 0.097294674 0.00041303855)
(-0.13296647 0.091469397 0.00043420057)
(-0.14404822 0.084082248 0.00045319774)
(-0.15450109 0.075140443 0.00046882934)
(-0.16418738 0.064661671 0.00047979397)
(-0.17295779 0.052685201 0.00048476001)
(-0.18064992 0.039282372 0.00048244648)
(-0.1870878 0.024566556 0.00047171961)
(-0.19208288 0.0087026108 0.00045170109)
(-0.19543702 -0.0080842959 0.00042188599)
(-0.19694771 -0.025500825 0.00038225988)
(-0.19641645 -0.043179577 0.00033341201)
(-0.19366054 -0.060676162 0.00027662308)
(-0.18852875 -0.077471051 0.000213915)
(-0.18092093 -0.092978244 0.0001480416)
(-0.17081077 -0.10656301 8.2400312e-05)
(-0.15827042 -0.11757078 2.0851813e-05)
(-0.14349426 -0.12536831 -3.2557129e-05)
(-0.1268179 -0.12939691 -7.3954912e-05)
(-0.10872748 -0.12923444 -0.00010005717)
(-0.08985395 -0.12465994 -0.00010857519)
(-0.070947959 -0.11571115 -9.854387e-05)
(-0.05283509 -0.10272336 -7.0463961e-05)
(-0.036354124 -0.086339084 -2.6272527e-05)
(-0.022274921 -0.067482424 3.04862e-05)
(-0.011210463 -0.047295895 9.5153331e-05)
(-0.0037019621 -0.027051377 0.00016837746)
(-0.00045425473 -0.0081040348 0.00023809987)
(-0.00055526752 0.014707637 0.00012829879)
(-0.0035173544 0.039832488 0.00020678262)
(-0.0095503005 0.060784588 0.0002525215)
(-0.017657312 0.077835561 0.00028609289)
(-0.027278345 0.091336269 0.00031484318)
(-0.038045324 0.10166122 0.00034050693)
(-0.04963741 0.10917183 0.00036464744)
(-0.061788017 0.11419118 0.00038868335)
(-0.074282735 0.11698883 0.00041351857)
(-0.086946778 0.11777434 0.00043958253)
(-0.099633947 0.11669802 0.00046690111)
(-0.11221743 0.11385712 0.0004951402)
(-0.12458173 0.10930567 0.00052364453)
(-0.13661578 0.10306645 0.00055147636)
(-0.14820703 0.095143942 0.0005774548)
(-0.1592365 0.085537234 0.00060019905)
(-0.16957457 0.074252519 0.00061818174)
(-0.17907747 0.061315031 0.00062979596)
(-0.18758467 0.046780508 0.00063343689)
(-0.19491715 0.030746404 0.00062760344)
(-0.20087714 0.013363014 0.00061101799)
(-0.20524968 -0.0051554968 0.00058276283)
(-0.20780659 -0.024520456 0.00054242812)
(-0.20831371 -0.044359293 0.0004902607)
(-0.20654206 -0.064208571 0.00042729992)
(-0.20228377 -0.083511396 0.00035547983)
(-0.19537325 -0.10162174 0.00027767261)
(-0.1857134 -0.1178187 0.00019764472)
(-0.17330603 -0.13133383 0.00011990085)
(-0.15828379 -0.14139428 4.9398158e-05)
(-0.14093963 -0.14728267 -8.8678538e-06)
(-0.12174738 -0.14841188 -5.0378504e-05)
(-0.10136622 -0.14440826 -7.164736e-05)
(-0.080621882 -0.13519175 -7.0717196e-05)
(-0.060461279 -0.12103739 -4.7453382e-05)
(-0.041881612 -0.10260186 -3.6179751e-06)
(-0.025828926 -0.080903144 5.6867904e-05)
(-0.01308498 -0.057247585 0.00012852164)
(-0.0043566617 -0.03311759 0.00021195931)
(-0.0005450452 -0.01010391 0.00029193147)
(-0.00056110735 0.016544638 0.00020871676)
(-0.0035601077 0.04462334 0.00029413847)
(-0.0096739084 0.067908792 0.00034075047)
(-0.017894064 0.086764481 0.00037536739)
(-0.027651998 0.10162621 0.0004055536)
(-0.03857293 0.11294631 0.00043317674)
(-0.050330612 0.12115447 0.00045990758)
(-0.062655444 0.12663122 0.00048724545)
(-0.07533299 0.1296923 0.00051614388)
(-0.088191526 0.13058269 0.00054705418)
(-0.10109084 0.12947809 0.00057999815)
(-0.11391267 0.12649219 0.00061461142)
(-0.12655212 0.12168765 0.00065017967)
(-0.13891018 0.11508918 0.0006856723)
(-0.15088711 0.10669736 0.00071977592)
(-0.16237671 0.096502332 0.00075092973)
(-0.17326125 0.084497057 0.00077737252)
(-0.18340703 0.070689907 0.00079720336)
(-0.19266058 0.055116993 0.00080846145)
(-0.20084571 0.037854491 0.00080922991)
(-0.20776177 0.019031294 0.0007977643)
(-0.21318341 -0.0011578509 0.00077264633)
(-0.21686284 -0.022438873 0.00073296134)
(-0.21853513 -0.044445245 0.00067848567)
(-0.21792781 -0.066706392 0.00060987631)
(-0.21477587 -0.088639579 0.00052883639)
(-0.20884322 -0.10954823 0.00043822789)
(-0.19995137 -0.12863039 0.00034209467)
(-0.18801483 -0.14500185 0.00024555681)
(-0.17308171 -0.15773822 0.00015454154)
(-0.15537501 -0.16593944 7.5334253e-05)
(-0.13532789 -0.16881663 1.3961898e-05)
(-0.11360307 -0.16579608 -2.4531956e-05)
(-0.091085825 -0.15662772 -3.680103e-05)
(-0.068842948 -0.14147788 -2.1708132e-05)
(-0.048045126 -0.12098264 1.9425883e-05)
(-0.029844269 -0.096240819 8.2404549e-05)
(-0.015229251 -0.06873361 0.00016085287)
(-0.00511634 -0.040184456 0.00025533251)
(-0.00065343672 -0.012460506 0.00034735977)
(-0.00056008719 0.018393112 0.00030203272)
(-0.0035637419 0.049451176 0.00039467035)
(-0.0096965349 0.07509424 0.00044178892)
(-0.017949483 0.095774766 0.0004772703)
(-0.027750414 0.1120122 0.00050881393)
(-0.038719961 0.12433701 0.00053840768)
(-0.050527864 0.13324879 0.00056782543)
(-0.062902443 0.13918795 0.00059864788)
(-0.075629927 0.14251943 0.00063188544)
(-0.088542336 0.1435266 0.00066802328)
(-0.10150628 0.14241339 0.000707094)
(-0.11441315 0.13931239 0.00074871887)
(-0.12717015 0.1342969 0.00079214061)
(-0.13969224 0.12739486 0.0008362505)
(-0.15189502 0.11860362 0.00087961418)
(-0.16368827 0.10790432 0.00092049733)
(-0.17497015 0.095275668 0.00095690408)