/*--------------------------------*- C++ -*----------------------------------*\
  =========                 |
  \\      /  F ield         | OpenFOAM: The Open Source CFD Toolbox
   \\    /   O peration     | Website:  https://openfoam.org
    \\  /    A nd           | Version:  7
     \\/     M anipulation  |
\*---------------------------------------------------------------------------*/
FoamFile
{
    version     2.0;
    format      ascii;
    class       volVectorField;
    location    "10";
    object      U_0;
}
// * * * * * * * * * * * * * * * * * * * * * * * * * * * * * * * * * * * * * //

dimensions      [0 1 -1 0 0 0 0];

internalField   nonuniform List<vector> 
16000
(
(6.4981336e-05 -6.6888649e-05 -1.0930917e-06)
(0.00015984487 -5.5369979e-05 4.7573434e-06)
(0.0001382834 9.6908837e-07 1.8039379e-05)
(-5.3559082e-05 6.1781996e-05 3.5214354e-05)
(-0.00041052871 0.00011497803 5.3045907e-05)
(-0.00090575645 0.00015664677 6.9590915e-05)
(-0.0015094933 0.00018707729 8.3523737e-05)
(-0.0021928711 0.00020795173 9.4038191e-05)
(-0.0029302016 0.00022106699 0.00010067871)
(-0.0036993172 0.00022790669 0.00010320051)
(-0.0044809807 0.0002295238 0.00010147905)
(-0.0052580142 0.00022654378 9.5455013e-05)
(-0.0060144195 0.00021922514 8.5107089e-05)
(-0.0067346369 0.00020754675 7.0448524e-05)
(-0.0074030346 0.00019131531 5.1540703e-05)
(-0.0080036687 0.00017027724 2.8515075e-05)
(-0.0085203284 0.00014422388 1.6018515e-06)
(-0.0089368729 0.00011309094 -2.8842329e-05)
(-0.009237816 7.704434e-05 -6.2310896e-05)
(-0.0094091209 3.6551653e-05 -9.8131072e-05)
(-0.009439152 -7.5673536e-06 -0.00013546161)
(-0.0093196865 -5.413514e-05 -0.0001733021)
(-0.0090469405 -0.00010159242 -0.0002105178)
(-0.0086225012 -0.00014806849 -0.00024588381)
(-0.0080540362 -0.00019145881 -0.00027814272)
(-0.0073557166 -0.00022954258 -0.00030607594)
(-0.0065482559 -0.0002601299 -0.00032858573)
(-0.0056584956 -0.0002812282 -0.00034477857)
(-0.004718521 -0.0002912104 -0.00035404224)
(-0.003764321 -0.00028896505 -0.00035611281)
(-0.0028340567 -0.00027401202 -0.00035112366)
(-0.001966044 -0.00024656994 -0.00033963129)
(-0.0011965666 -0.00020757429 -0.00032261697)
(-0.00055755987 -0.00015868127 -0.00030146831)
(-7.4204676e-05 -0.00010237746 -0.00027793628)
(0.0002370061 -4.2256647e-05 -0.00025405403)
(0.00037220611 1.6923125e-05 -0.00023219091)
(0.00034528228 6.5938426e-05 -0.00021476263)
(0.00020421681 8.88707e-05 -0.00020442782)
(5.7090197e-05 5.703268e-05 -0.00018959746)
(5.7121875e-05 -0.00016532432 -7.4881709e-06)
(3.8765128e-05 -3.7817786e-05 -1.4039757e-06)
(-0.000296018 0.0002483627 1.0052327e-05)
(-0.0010074008 0.00055889473 2.4203698e-05)
(-0.0020872051 0.0008413712 3.8943751e-05)
(-0.0034903005 0.0010745267 5.2692015e-05)
(-0.005156358 0.001253782 6.4331886e-05)
(-0.0070216369 0.0013821529 7.3121788e-05)
(-0.0090250193 0.0014651146 7.8583693e-05)
(-0.011110155 0.0015081502 8.0419668e-05)
(-0.013225519 0.00151566 7.8450102e-05)
(-0.015323448 0.0014905852 7.2569769e-05)
(-0.017358845 0.0014344598 6.2724564e-05)
(-0.019287959 0.0013477133 4.8906453e-05)
(-0.02106756 0.0012301204 3.1164309e-05)
(-0.022654641 0.0010813198 9.6210592e-06)
(-0.024006729 0.0009013369 -1.5503478e-05)
(-0.025082788 0.00069107542 -4.3869578e-05)
(-0.025844666 0.00045274627 -7.4998861e-05)
(-0.026258967 0.00019019674 -0.00010826114)
(-0.02629924 -9.0882852e-05 -0.00014287307)
(-0.025948222 -0.00038287782 -0.00017791294)
(-0.025200062 -0.00067638235 -0.00021233517)
(-0.024062302 -0.0009604815 -0.00024501822)
(-0.022557266 -0.0012232239 -0.00027481733)
(-0.020722795 -0.0014522688 -0.00030063042)
(-0.018612096 -0.001635667 -0.0003214732)
(-0.016292601 -0.0017627216 -0.00033655581)
(-0.01384376 -0.0018248568 -0.00034535324)
(-0.011353818 -0.0018164147 -0.00034766451)
(-0.0089156877 -0.0017353025 -0.00034365441)
(-0.0066221044 -0.0015834404 -0.00033387219)
(-0.0045602736 -0.0013670106 -0.0003192452)
(-0.0028061897 -0.0010966137 -0.00030104915)
(-0.0014186802 -0.00078763537 -0.00028085829)
(-0.00043322565 -0.00046116865 -0.00026046936)
(0.00014460855 -0.00014543214 -0.0002417866)
(0.00034856759 0.00011812323 -0.000226809)
(0.00027120604 0.00026709765 -0.00021762344)
(8.9143192e-05 0.00020313275 -0.00020099538)
(1.4344745e-06 -0.00014619363 -2.1206721e-05)
(-0.00025555158 0.00029789825 -1.2755139e-05)
(-0.001044446 0.0010183641 -1.0144177e-06)
(-0.0023711161 0.0017848035 1.1772458e-05)
(-0.0042068602 0.0024899214 2.4589562e-05)
(-0.0064924444 0.0030838263 3.6305893e-05)
(-0.0091476132 0.0035497436 4.6103615e-05)
(-0.012085166 0.0038886244 5.3430045e-05)
(-0.01521884 0.0041089879 5.7905595e-05)
(-0.018466478 0.0042211328 5.9275683e-05)
(-0.021750792 0.0042341363 5.7372131e-05)
(-0.024998772 0.0041545633 5.2081314e-05)
(-0.028140523 0.0039862903 4.3330662e-05)
(-0.031108119 0.0037310455 3.1088613e-05)
(-0.033834866 0.0033893682 1.5374435e-05)
(-0.036255219 0.0029617831 -3.7248338e-06)
(-0.038305451 0.0024500267 -2.6033186e-05)
(-0.039925075 0.0018582033 -5.1265434e-05)
(-0.041058936 0.0011937823 -7.900911e-05)
(-0.04165983 0.00046834385 -0.00010871248)
(-0.041691441 -0.00030198687 -0.00013968417)
(-0.041131395 -0.0010964352 -0.00017109734)
(-0.03997418 -0.0018899978 -0.00020201371)
(-0.038233602 -0.0026541843 -0.00023142015)
(-0.035944554 -0.0033582386 -0.00025827826)
(-0.033163828 -0.0039707506 -0.00028158602)
(-0.029969748 -0.0044615737 -0.00030044822)
(-0.026460465 -0.0048039255 -0.00031414756)
(-0.022750843 -0.0049765127 -0.00032221022)
(-0.01896796 -0.0049655047 -0.00032446051)
(-0.015245328 -0.0047661912 -0.00032105782)
(-0.011716085 -0.0043842091 -0.00031250962)
(-0.0085053921 -0.0038363312 -0.00029965855)
(-0.0057223556 -0.0031509683 -0.00028364482)
(-0.0034516596 -0.0023687889 -0.00026584816)
(-0.0017450777 -0.0015441367 -0.00024780994)
(-0.00061309532 -0.0007480775 -0.00023112831)
(-1.5943041e-05 -7.3989864e-05 -0.00021738351)
(0.00015104764 0.00035225929 -0.00020825018)
(7.2375514e-05 0.00034986768 -0.00019089562)
(-6.4467023e-05 5.2424485e-05 -3.9287418e-05)
(-0.0006041045 0.0010413011 -2.6944023e-05)
(-0.0019150413 0.0023654117 -1.3134126e-05)
(-0.0039128812 0.0037267631 -3.4561354e-08)
(-0.0065310519 0.0049727582 1.2342682e-05)
(-0.0096912677 0.0060265054 2.3245444e-05)
(-0.013294717 0.0068582458 3.2139926e-05)
(-0.017235296 0.0074654919 3.8693657e-05)
(-0.0214075 0.0078587078 4.2672842e-05)
(-0.025709394 0.0080524134 4.3907804e-05)
(-0.030043495 0.0080601968 4.227207e-05)
(-0.034316437 0.0078923896 3.7663657e-05)
(-0.038438051 0.007555581 2.9998774e-05)
(-0.04232045 0.007053373 1.9219291e-05)
(-0.045877573 0.0063878999 5.306027e-06)
(-0.049025418 0.005561744 -1.1702891e-05)
(-0.051683095 0.0045799637 -3.1688613e-05)
(-0.053774686 0.00345201 -5.4430241e-05)
(-0.055231819 0.002193355 -7.9584665e-05)
(-0.055996793 0.00082669166 -0.00010667284)
(-0.056026002 -0.00061741147 -0.00013507619)
(-0.055293482 -0.0021005082 -0.00016403711)
(-0.053794217 -0.0035769605 -0.00019268109)
(-0.051546917 -0.0049953557 -0.00022005047)
(-0.048596 -0.0063006478 -0.00024515237)
(-0.04501248 -0.007436943 -0.00026701809)
(-0.040893505 -0.0083508016 -0.00028477295)
(-0.036360355 -0.0089948555 -0.00029770806)
(-0.031554798 -0.0093314931 -0.00030534654)
(-0.026633775 -0.0093363235 -0.00030749792)
(-0.021762537 -0.0090011512 -0.00030429401)
(-0.017106448 -0.008336254 -0.00029619935)
(-0.01282178 -0.0073719004 -0.00028399377)
(-0.0090458932 -0.0061592451 -0.00026872817)
(-0.0058872523 -0.0047710377 -0.0002516579)
(-0.0034156964 -0.0033029559 -0.00023416026)
(-0.0016531416 -0.0018765764 -0.00021765113)
(-0.00056483232 -0.00064413738 -0.00020351101)
(-5.3558378e-05 0.00020329223 -0.00019295285)
(3.6982433e-05 0.00040696078 -0.00017372905)
(-0.0001298646 0.00044463094 -5.8579716e-05)
(-0.00096240168 0.0022278245 -4.1757151e-05)
(-0.0028199922 0.0043247513 -2.5073241e-05)
(-0.00551242 0.0064020727 -1.084317e-05)
(-0.0089235231 0.0082790932 1.864277e-06)
(-0.012949817 0.009860721 1.2627549e-05)
(-0.017472053 0.011108184 2.1182662e-05)
(-0.022366411 0.012016833 2.7423583e-05)
(-0.027511225 0.01259912 3.1274145e-05)
(-0.032788792 0.012873426 3.2663956e-05)
(-0.038085755 0.012857489 3.151856e-05)
(-0.043292688 0.012565206 2.7753581e-05)
(-0.048303282 0.012005935 2.1276516e-05)
(-0.053013641 0.011185499 1.1998773e-05)
(-0.057322081 0.010108299 -1.4566463e-07)
(-0.061129681 0.0087800032 -1.517705e-05)
(-0.064341654 0.0072103996 -3.3043232e-05)
(-0.06686955 0.0054160853 -5.3596017e-05)
(-0.068634161 0.0034227301 -7.6567008e-05)
(-0.069568967 0.00126671 -0.00010154892)
(-0.069623902 -0.0010040519 -0.0001279873)
(-0.068769175 -0.0033301793 -0.00015518029)
(-0.066998871 -0.0056418906 -0.00018229441)
(-0.064334014 -0.0078611232 -0.00020839739)
(-0.060824805 -0.0099046627 -0.0002325048)
(-0.056551719 -0.0116882 -0.00025363974)
(-0.051625185 -0.013131139 -0.00027090458)
(-0.046183606 -0.014161905 -0.00028355578)
(-0.040389549 -0.014723393 -0.0002910742)
(-0.034424025 -0.014778178 -0.00029322292)
(-0.028478937 -0.014313076 -0.00029008498)
(-0.022747893 -0.013342716 -0.00028207387)
(-0.017415764 -0.011911954 -0.00026991364)
(-0.012647476 -0.010097168 -0.00025458959)
(-0.0085767597 -0.0080068174 -0.000237273)
(-0.0052955373 -0.0057820729 -0.00021923275)
(-0.0028438152 -0.0035985029 -0.00020177309)
(-0.0012008212 -0.0016686409 -0.00018615257)
(-0.00029052783 -0.00024693087 -0.00017309154)
(-3.0992065e-06 0.00034205201 -0.00015141942)
(-0.00019106854 0.0010250378 -7.6819759e-05)
(-0.0013110283 0.0038617706 -5.5213756e-05)
(-0.0037145107 0.0069079452 -3.5242427e-05)
(-0.0071014204 0.0098215015 -1.9364373e-05)
(-0.011300169 0.012411643 -5.7849719e-06)
(-0.016177434 0.014576676 5.358105e-06)
(-0.021591165 0.016275623 1.404815e-05)
(-0.02739966 0.017505226 2.0397669e-05)
(-0.033466617 0.018281518 2.4483148e-05)
(-0.039661192 0.018627269 2.633239e-05)
(-0.045857414 0.018564406 2.5925643e-05)
(-0.051933341 0.018110311 2.3195911e-05)
(-0.057770121 0.017277091 1.8038321e-05)
(-0.063251336 0.016072966 1.0328925e-05)
(-0.068262966 0.014505028 -5.156185e-08)
(-0.072694129 0.012582731 -1.3190256e-05)
(-0.076438676 0.010321572 -2.9110902e-05)
(-0.079397589 0.0077465451 -4.7745265e-05)
(-0.081482094 0.0048950221 -6.8903246e-05)
(-0.08261729 0.0018188121 -9.2249142e-05)
(-0.082746125 -0.0014148154 -0.00011728821)
(-0.081833439 -0.0047232904 -0.00014336221)
(-0.079869848 -0.0080101627 -0.00016966075)
(-0.076875168 -0.011167893 -0.00019525238)
(-0.07290106 -0.014081958 -0.00021913006)
(-0.068032591 -0.016636188 -0.00024027233)
(-0.062388372 -0.018719155 -0.00025771866)
(-0.056118959 -0.020231285 -0.00027064999)
(-0.049403261 -0.02109229 -0.00027846563)
(-0.042442786 -0.021248382 -0.00028084785)
(-0.035453714 -0.020678731 -0.00027780518)
(-0.028656966 -0.019400642 -0.00026968639)
(-0.022266674 -0.017473073 -0.00025716091)
(-0.01647767 -0.014998397 -0.00024116649)
(-0.011452943 -0.012122627 -0.00022282642)
(-0.0073120473 -0.009034849 -0.0002033549)
(-0.0041198761 -0.0059667603 -0.00018401647)
(-0.001877017 -0.003191962 -0.0001660385)
(-0.00053584861 -0.0010262834 -0.00014974129)
(-4.1497035e-05 0.00014967186 -0.00012522023)
(-0.00024754799 0.0017845937 -9.2079811e-05)
(-0.0016424983 0.0059319762 -6.5545093e-05)
(-0.0045762004 0.010105416 -4.212851e-05)
(-0.0086412225 0.01397478 -2.4305689e-05)
(-0.013608971 0.01735583 -9.494365e-06)
(-0.019313791 0.020152598 2.4165116e-06)
(-0.025589223 0.022330216 1.1631752e-05)
(-0.032275354 0.023891947 1.8463345e-05)
(-0.039222131 0.024860291 2.3130348e-05)
(-0.046287427 0.025263845 2.5750475e-05)
(-0.053335179 0.025129316 2.6351772e-05)
(-0.060233842 0.024477736 2.4879515e-05)
(-0.066855083 0.023323978 2.1210991e-05)
(-0.073072989 0.021678694 1.517995e-05)
(-0.078764005 0.019551806 6.6055968e-06)
(-0.083807733 0.016956829 -4.6747336e-06)
(-0.088088573 0.013915388 -1.8769061e-05)
(-0.091498194 0.010461424 -3.5696548e-05)
(-0.093938691 0.00664469 -5.5350969e-05)
(-0.095326308 0.0025332502 -7.7470585e-05)
(-0.095595528 -0.0017852671 -0.00010161886)
(-0.094703335 -0.0062038337 -0.00012717478)
(-0.092633438 -0.010597706 -0.00015333883)
(-0.089400197 -0.014827778 -0.00017916144)
(-0.085051903 -0.018745564 -0.00020358728)
(-0.079673115 -0.022199765 -0.00022551838)
(-0.073385633 -0.025044239 -0.00024389395)
(-0.066347693 -0.027147042 -0.00025777828)
(-0.058751014 -0.028400044 -0.00026644723)
(-0.050815377 -0.028728484 -0.00026946315)
(-0.042780608 -0.028099723 -0.00026672771)
(-0.034896075 -0.026530422 -0.00025850344)
(-0.027408077 -0.024091526 -0.0002453986)
(-0.020545874 -0.020910666 -0.00022831481)
(-0.014507561 -0.017171999 -0.0002083585)
(-0.0094470397 -0.013114093 -0.00018673994)
(-0.0054610152 -0.0090266763 -0.00016475347)
(-0.0025776576 -0.005245806 -0.0001436802)
(-0.00078232732 -0.0021486561 -0.00012352328)
(-7.7044337e-05 -0.00016938506 -9.5943327e-05)
(-0.00029966679 0.0027126042 -0.00010271589)
(-0.0019541927 0.00841928 -7.1155435e-05)
(-0.0053937004 0.013895041 -4.431404e-05)
(-0.010109254 0.01883793 -2.442055e-05)
(-0.015816535 0.023085036 -8.1665217e-06)
(-0.022317051 0.0265581 4.7813086e-06)
(-0.029419483 0.029237216 1.4828581e-05)
(-0.036945812 0.031138192 2.2465689e-05)
(-0.044733054 0.032293785 2.803801e-05)
(-0.052629317 0.032740598 3.1741362e-05)
(-0.060490533 0.032511228 3.364129e-05)
(-0.068178011 0.031630808 3.3685873e-05)
(-0.075556575 0.030117072 3.1725892e-05)
(-0.082493427 0.027983015 2.7544251e-05)
(-0.088857894 0.025241229 2.0889519e-05)
(-0.094522079 0.021909104 1.1513757e-05)
(-0.099362403 0.018014182 -7.8520583e-07)
(-0.10326197 0.013599121 -1.6123151e-05)
(-0.10611365 0.008725839 -3.4486108e-05)
(-0.10782376 0.0034784953 -5.5693227e-05)
(-0.10831624 -0.0020349265 -7.937031e-05)
(-0.10753712 -0.0076826519 -0.00010493396)
(-0.10545917 -0.013310868 -0.00013159044)
(-0.10208649 -0.018747459 -0.0001583605)
(-0.097458704 -0.023807675 -0.00018412112)
(-0.091654383 -0.0283018 -0.00020767017)
(-0.084793299 -0.032044661 -0.00022781116)
(-0.077036874 -0.034866687 -0.00024344977)
(-0.068586325 -0.036625959 -0.00025369235)
(-0.059678011 -0.037220502 -0.00025793496)
(-0.05057565 -0.036599849 -0.00025593066)
(-0.041559385 -0.034774804 -0.00024782412)
(-0.032912047 -0.03182442 -0.00023414591)
(-0.024903434 -0.027899416 -0.00021576414)
(-0.017774074 -0.023221775 -0.00019379237)
(-0.011720044 -0.018080887 -0.00016948254)
(-0.0068772842 -0.012827072 -0.00014422436)
(-0.0033074927 -0.0078619961 -0.00011943385)
(-0.0010324703 -0.0036273523 -9.4881434e-05)
(-0.00011071962 -0.00061403991 -6.4071379e-05)
(-0.00034776141 0.0037979101 -0.00010728899)
(-0.0022447955 0.011300079 -7.0594233e-05)
(-0.0061600006 0.01824689 -4.0456824e-05)
(-0.011490296 0.024377774 -1.8477518e-05)
(-0.017898714 0.029564053 -6.7015283e-07)
(-0.02515499 0.033756325 1.3502423e-05)
(-0.033043607 0.0369584 2.4627722e-05)
(-0.041369163 0.039205011 3.3356898e-05)
(-0.049956771 0.040543492 4.0144941e-05)
(-0.058646231 0.041021159 4.5251253e-05)
(-0.067287331 0.040678023 4.8766411e-05)
(-0.075736411 0.039544028 5.0630221e-05)
(-0.083853776 0.037639938 5.0656716e-05)
(-0.091502066 0.0349809 4.8567784e-05)
(-0.09854561 0.031581726 4.4030806e-05)
(-0.10485077 0.027463011 3.6701589e-05)
(-0.11028719 0.022657362 2.6272114e-05)
(-0.11472991 0.017215139 1.2517717e-05)
(-0.11806221 0.011209281 -4.6525009e-06)
(-0.12017915 0.0047388839 -2.5151125e-05)
(-0.12099178 -0.0020687416 -4.8677271e-05)
(-0.12043178 -0.0090577747 -7.4693706e-05)
(-0.11845661 -0.016045405 -0.00010241542)
(-0.11505495 -0.022825703 -0.00013082973)
(-0.11025199 -0.029175691 -0.00015873317)
(-0.10411437 -0.034863882 -0.00018479646)
(-0.096754081 -0.039661235 -0.00020765334)
(-0.088330703 -0.043354274 -0.00022600645)
(-0.079051214 -0.045759839 -0.00023874018)
(-0.069166611 -0.046740581 -0.00024502826)
(-0.05896479 -0.046220006 -0.00024442126)
(-0.048759412 -0.044195619 -0.00023690089)
(-0.038875006 -0.040748671 -0.00022289042)
(-0.029629131 -0.036049265 -0.00020321605)
(-0.021313372 -0.030356062 -0.00017901402)
(-0.014175065 -0.024010733 -0.00015161765)
(-0.0083977893 -0.017427921 -0.00012257408)
(-0.0040832432 -0.011080378 -9.3513003e-05)
(-0.0012934184 -0.0054810331 -6.4040998e-05)
(-0.00014407077 -0.0011861139 -2.9732619e-05)
(-0.00039192186 0.0050290107 -0.00010450181)
(-0.0025129195 0.014547608 -6.2531744e-05)
(-0.006869207 0.023125088 -2.9294214e-05)
(-0.012771738 0.030553523 -5.2813238e-06)
(-0.019835087 0.036749746 1.412598e-05)
(-0.027799388 0.041703339 2.9658452e-05)
(-0.036426488 0.045450154 4.2070776e-05)
(-0.045504908 0.048050203 5.2158458e-05)
(-0.054849174 0.049569941 6.0470615e-05)
(-0.064292293 0.050070422 6.7315939e-05)
(-0.073679693 0.049600889 7.2797279e-05)
(-0.082864746 0.048197013 7.6834699e-05)
(-0.09170538 0.045882821 7.9194607e-05)
(-0.1000618 0.042675327 7.9526885e-05)
(-0.10779532 0.03859084 7.7406111e-05)
(-0.11476818 0.033652056 7.2379393e-05)
(-0.12084442 0.027895174 6.4019033e-05)
(-0.12589147 0.021376459 5.1975553e-05)
(-0.12978267 0.014177837 3.603525e-05)
(-0.13240058 0.006411182 1.6172976e-05)
(-0.13364108 -0.0017789365 -7.4024754e-06)
(-0.13341811 -0.010214358 -3.4219683e-05)
(-0.13166941 -0.018684291 -6.3512892e-05)
(-0.12836291 -0.026948938 -9.4242049e-05)
(-0.12350329 -0.034745586 -0.00012511887)
(-0.11713872 -0.0417977 -0.00015466934)
(-0.10936685 -0.047827108 -0.00018132521)
(-0.10033946 -0.052569175 -0.00020353899)
(-0.0902645 -0.055790466 -0.00021991322)
(-0.079404658 -0.05730799 -0.00022933101)
(-0.068071525 -0.057008522 -0.00023107083)
(-0.056614654 -0.054866167 -0.00022488878)
(-0.045405576 -0.050956006 -0.00021105404)
(-0.034817549 -0.045461892 -0.00019032748)
(-0.025203023 -0.038676985 -0.00016387238)
(-0.016871172 -0.030996782 -0.0001331359)
(-0.010063169 -0.022905316 -9.9881745e-05)
(-0.0049285962 -0.014954425 -6.603121e-05)
(-0.0015750211 -0.0077385845 -3.1079759e-05)
(-0.00017907699 -0.0018925911 7.1255144e-06)
(-0.00043198822 0.0063937277 -9.3170902e-05)
(-0.0027566825 0.018132122 -4.5746287e-05)
(-0.0075151854 0.028488508 -9.6514704e-06)
(-0.013941291 0.037317504 1.6299759e-05)
(-0.021606043 0.044591352 3.7315585e-05)
(-0.030222871 0.050347687 5.4312568e-05)
(-0.039533185 0.05466209 6.8202049e-05)
(-0.049311181 0.057625956 7.9909083e-05)
(-0.059362371 0.059329413 9.0063008e-05)
(-0.069514577 0.059850415 9.9009212e-05)
(-0.079610614 0.059249453 0.0001068513)
(-0.089502803 0.057568991 0.00011347876)
(-0.099048725 0.05483662 0.0001185996)
(-0.1081082 0.051070861 0.00012178079)
(-0.11654145 0.046288582 0.00012249245)
(-0.12420831 0.040513082 0.00012015934)
(-0.13096842 0.033782136 0.00011421766)
(-0.13668234 0.026155421 0.0001041732)
(-0.14121345 0.017720955 8.9665811e-05)
(-0.14443089 0.0086002589 7.0531273e-05)
(-0.14621346 -0.0010479671 4.6858927e-05)
(-0.14645441 -0.011025856 1.9020922e-05)
(-0.14506767 -0.021096876 -1.2254971e-05)
(-0.14199515 -0.030988231 -4.5919905e-05)
(-0.13721475 -0.040396675 -8.0607085e-05)
(-0.13074908 -0.048997713 -0.00011468836)
(-0.12267404 -0.056458662 -0.00014636515)
(-0.11312627 -0.06245571 -0.0001737912)
(-0.10230828 -0.066694658 -0.00019521958)
(-0.09048981 -0.068934398 -0.00020916051)
(-0.078004028 -0.069011473 -0.00021453154)
(-0.065237529 -0.066863333 -0.00021077803)
(-0.052613594 -0.06254741 -0.0001979452)
(-0.040569343 -0.05625309 -0.00017668441)
(-0.029528959 -0.048304263 -0.00014817449)
(-0.01987576 -0.039151513 -0.00011399904)
(-0.011920617 -0.029354505 -7.619457e-05)
(-0.005871121 -0.019554647 -3.7053239e-05)
(-0.0018884826 -0.010441688 4.0026823e-06)
(-0.00021785416 -0.0027461478 4.6667428e-05)
(-0.00046760271 0.0078788167 -7.2220219e-05)
(-0.0029736656 0.022020654 -1.9129186e-05)
(-0.008091142 0.034290878 1.9545211e-05)
(-0.014986121 0.044615429 4.7312313e-05)
(-0.023191543 0.053030584 6.9924405e-05)
(-0.03239748 0.059630032 8.8477019e-05)
(-0.042327489 0.064536032 0.00010402881)
(-0.052743491 0.067877054 0.00011762176)
(-0.06344371 0.069771305 0.00012995397)
(-0.074252438 0.070316843 0.00014139711)
(-0.085011606 0.069587536 0.00015204573)
(-0.095574339 0.067633838 0.00016174956)
(-0.10579984 0.06448727 0.00017014913)
(-0.11554959 0.060167489 0.00017671876)
(-0.12468471 0.054690826 0.00018081282)
(-0.13306446 0.048079408 0.00018171948)
(-0.14054569 0.04037013 0.00017872007)
(-0.14698315 0.031622994 0.00017115193)
(-0.15223085 0.02192849 0.00015847915)
(-0.15614427 0.011413785 0.00014036184)
(-0.15858388 0.00024757274 0.00011672366)
(-0.15942018 -0.011356638 8.7830972e-05)
(-0.15853991 -0.023139733 5.4302476e-05)
(-0.15585405 -0.034798025 1.7171295e-05)
(-0.15130756 -0.045988064 -2.213547e-05)
(-0.14489008 -0.056335318 -6.1837709e-05)
(-0.13664735 -0.065447578 -9.9885812e-05)
(-0.12669204 -0.072933546 -0.00013408771)
(-0.11521275 -0.078426601 -0.00016227327)
(-0.10247912 -0.081612949 -0.00018248328)
(-0.08884134 -0.08226237 -0.00019316294)
(-0.074722011 -0.08025871 -0.00019333359)
(-0.060599465 -0.075626344 -0.00018271618)
(-0.046982459 -0.068548431 -0.00016177993)
(-0.03437856 -0.059373275 -0.00013168489)
(-0.023259446 -0.048606812 -9.4159473e-05)
(-0.014020455 -0.036891285 -5.156513e-05)
(-0.0069403604 -0.024970422 -6.6480496e-06)
(-0.0022456651 -0.013646229 4.1216179e-05)
(-0.00026255622 -0.0037656223 8.9087636e-05)
(-0.00049827605 0.0094696499 -4.06899e-05)
(-0.0031610579 0.026176709 1.8302233e-05)
(-0.0085897279 0.040480666 5.9250688e-05)
(-0.015892832 0.052386396 8.8695517e-05)
(-0.024570997 0.062001544 0.000112882)
(-0.034294501 0.06948274 0.00013307823)
(-0.044771826 0.075005058 0.00015048133)
(-0.055754778 0.078739233 0.00016623974)
(-0.067036065 0.08083573 0.00018111098)
(-0.078438086 0.081415883 0.0001954851)
(-0.089803561 0.080569147 0.00020944051)
(-0.10098821 0.078355281 0.00022278062)
(-0.1118548 0.07481022 0.00023507214)
(-0.12226852 0.069954418 0.00024568926)
(-0.13209353 0.063802545 0.00025386046)
(-0.14119061 0.056373618 0.00025872316)
(-0.14941579 0.047700914 0.00025938388)
(-0.15661976 0.037841248 0.00025498461)
(-0.16264843 0.026883365 0.00024477946)
(-0.16734441 0.01495532 0.00022821297)
(-0.17054994 0.0022306916 0.0002050017)
(-0.17211154 -0.01106665 0.00017522391)
(-0.17188636 -0.024659472 0.00013936429)
(-0.16975068 -0.038216826 9.8384252e-05)
(-0.16561086 -0.051356931 5.3731343e-05)
(-0.15941614 -0.063654563 7.3183225e-06)
(-0.15117292 -0.074654017 -3.8546929e-05)
(-0.14095952 -0.083888593 -8.1286558e-05)
(-0.12893973 -0.090907031 -0.00011823159)
(-0.11537298 -0.0953065 -0.00014684384)
(-0.10061844 -0.096770415 -0.00016496074)
(-0.085130474 -0.095107862 -0.00017103252)
(-0.069443234 -0.090289872 -0.00016431655)
(-0.054143584 -0.082476788 -0.0001449885)
(-0.039834419 -0.072031135 -0.00011412278)
(-0.027091856 -0.059512267 -7.3579395e-05)
(-0.016413611 -0.045651874 -2.6089902e-05)
(-0.0081666132 -0.031310637 2.505678e-05)
(-0.0026587408 -0.017422957 8.0511914e-05)
(-0.00031536059 -0.0049762177 0.00013453481)
(-0.00052345607 0.011150029 2.2443484e-06)
(-0.0033158985 0.030560087 6.7386913e-05)
(-0.0090034689 0.04700104 0.00011028121)
(-0.016648038 0.060562913 0.00014125596)
(-0.025723941 0.071430645 0.00016699132)
(-0.035885278 0.079829512 0.00018892056)
(-0.046828233 0.085992662 0.00020837082)
(-0.058296618 0.090137739 0.00022658801)
(-0.07007933 0.092451369 0.00024438208)
(-0.081998415 0.093081267 0.00026215634)
(-0.093898944 0.09213476 0.00027996951)
(-0.10564093 0.089682377 0.00029757592)
(-0.11709262 0.085765103 0.00031446551)
(-0.12812498 0.080404001 0.00032990795)
(-0.13860749 0.073611032 0.00034299797)
(-0.14840489 0.065400173 0.00035270916)
(-0.15737482 0.055798257 0.00035795339)
(-0.1653664 0.044855172 0.00035764927)
(-0.17221969 0.032653317 0.00035080312)
(-0.17776639 0.019316251 0.00033659623)
(-0.18183187 0.0050164754 0.00031448075)
(-0.18423914 -0.010017882 0.00028428058)
(-0.18481493 -0.025497735 0.00024627588)
(-0.18339838 -0.041070236 0.00020128684)
(-0.17985272 -0.056319144 0.00015072081)
(-0.17407981 -0.070769968 9.6580914e-05)
(-0.16603729 -0.083901455 4.1419547e-05)
(-0.1557574 -0.095164918 -1.1774977e-05)
(-0.14336582 -0.10401258 -5.9764577e-05)
(-0.1290981 -0.10993513 -9.9314709e-05)
(-0.11331018 -0.1125072 -0.00012749651)
(-0.096479505 -0.1114374 -0.00014200443)
(-0.079192888 -0.10661724 -0.0001414447)
(-0.062119247 -0.09816129 -0.0001255367)
(-0.045968136 -0.0864304 -9.5156304e-05)
(-0.031437767 -0.072031523 -5.2249326e-05)
(-0.019149553 -0.055791343 5.0617113e-08)
(-0.0095800847 -0.038703358 5.7817612e-05)
(-0.0031400219 -0.021857613 0.00012171192)
(-0.00037848906 -0.0064095821 0.00018303754)
(-0.00054259901 0.012902165 5.7248834e-05)
(-0.0034353803 0.035126974 0.00012879909)
(-0.0093254065 0.053790086 0.00017329302)
(-0.017239335 0.069071146 0.00020564324)
(-0.026631323 0.081236748 0.00023289941)
(-0.037142784 0.090585235 0.00025665084)
(-0.048460234 0.097412176 0.00027834683)
(-0.060321447 0.10198618 0.00029932284)
(-0.072513036 0.10453367 0.00032043684)
(-0.084858061 0.10523176 0.00034210385)
(-0.097205356 0.10420803 0.00036436347)
(-0.10942081 0.10154543 0.00038692262)
(-0.12137995 0.097290859 0.00040919571)
(-0.13296166 0.091466045 0.00043034703)
(-0.14404317 0.08407942 0.00044933311)
(-0.15449585 0.07513819 0.00046495356)
(-0.16418199 0.064660034 0.00047590774)
(-0.1729523 0.05268421 0.00048086354)
(-0.18064437 0.039282047 0.00047854063)
(-0.18708222 0.024566902 0.00046780524)
(-0.19207732 0.0087036221 0.00044777935)
(-0.19543151 -0.0080826363 0.00041795858)
(-0.19694229 -0.025498546 0.00037832857)
(-0.19641116 -0.043176719 0.00032947813)
(-0.19365541 -0.060672777 0.00027268788)
(-0.18852382 -0.077467204 0.00020997952)
(-0.18091625 -0.092974012 0.00014410633)
(-0.17080637 -0.10655849 7.8465688e-05)
(-0.15826635 -0.11756606 1.6918258e-05)
(-0.14349057 -0.12536352 -3.6489405e-05)
(-0.12681462 -0.12939217 -7.7886092e-05)
(-0.10872466 -0.12922988 -0.00010398755)
(-0.089851594 -0.12465569 -0.00011250547)
(-0.070946079 -0.11570734 -0.00010247474)
(-0.052833673 -0.10272009 -7.4396365e-05)
(-0.036353135 -0.086336444 -3.0207225e-05)
(-0.022274307 -0.067480449 2.6548927e-05)
(-0.011210148 -0.047294576 9.1212773e-05)
(-0.0037018556 -0.02705067 0.00016443407)
(-0.00045424068 -0.008103849 0.00023442699)
(-0.00055524316 0.014706838 0.0001248088)
(-0.0035172049 0.039830388 0.00020302848)
(-0.0095499 0.060781426 0.00024876238)
(-0.017656582 0.077831574 0.00028232737)
(-0.027277234 0.091331674 0.00031106996)
(-0.038043801 0.10165621 0.0003367245)
(-0.049635462 0.10916658 0.00036085497)
(-0.061785644 0.11418584 0.00038488007)
(-0.074279948 0.11698353 0.00040970461)
(-0.086943596 0.11776919 0.00043575812)
(-0.0996304 0.11669313 0.00046306611)
(-0.11221355 0.11385258 0.00049129426)
(-0.12457756 0.10930156 0.00051978737)
(-0.13661135 0.10306285 0.00054760813)
(-0.1482024 0.095140909 0.00057357489)
(-0.1592317 0.085534818 0.00059630746)
(-0.16956964 0.074250762 0.00061427894)
(-0.17907246 0.061313961 0.00062588235)
(-0.1875796 0.046780141 0.00062951356)
(-0.19491206 0.030746744 0.00062367147)
(-0.20087206 0.013364054 0.00060707881)
(-0.20524464 -0.0051537749 0.00057881844)
(-0.20780162 -0.024518082 0.00053848035)
(-0.20830884 -0.044356307 0.00048631085)
(-0.2065373 -0.064205023 0.00042334921)
(-0.20227917 -0.083507349 0.00035152934)
(-0.19536883 -0.10161727 0.00027372295)
(-0.18570922 -0.11781389 0.0001936964)
(-0.17330211 -0.13132879 0.00011595436)
(-0.1582802 -0.14138911 4.545375e-05)
(-0.1409364 -0.14727752 -1.2810483e-05)
(-0.12174455 -0.14840688 -5.4319776e-05)
(-0.10136383 -0.14440355 -7.5587932e-05)
(-0.080619948 -0.13518748 -7.4657904e-05)
(-0.060459802 -0.12103368 -5.1395328e-05)
(-0.041880568 -0.10259881 -7.5619947e-06)
(-0.025828268 -0.080900822 5.2921627e-05)
(-0.013084638 -0.057246005 0.00012457233)
(-0.0043565433 -0.033116717 0.00020800737)
(-0.00054502893 -0.010103667 0.00028825063)
(-0.00056108661 0.016543763 0.0002052059)
(-0.0035599769 0.044621049 0.000290362)
(-0.0096735534 0.067905353 0.00033696904)
(-0.017893413 0.086760157 0.00037158003)
(-0.027651006 0.10162124 0.00040175948)
(-0.038571569 0.1129409 0.00042937458)
(-0.05032887 0.12114882 0.00045609707)
(-0.06265332 0.12662547 0.00048342566)
(-0.075330494 0.12968661 0.00051231465)
(-0.08818868 0.13057718 0.00054321529)
(-0.10108767 0.12947287 0.00057614893)
(-0.11390921 0.12648735 0.00061075105)
(-0.12654841 0.12168329 0.00064630758)
(-0.13890626 0.11508536 0.00068178865)
(-0.15088302 0.10669415 0.00071588)
(-0.16237248 0.09649978 0.00074702164)
(-0.17325692 0.084495202 0.00077345245)
(-0.18340264 0.070688773 0.000793272)
(-0.19265614 0.055116594 0.00080452022)
(-0.20084127 0.037854828 0.00080528013)
(-0.20775734 0.019032357 0.00079380763)
(-0.21317901 -0.0011560827 0.00076868481)
(-0.21685849 -0.02243643 0.00072899676)
(-0.21853084 -0.044442167 0.00067451938)
(-0.21792361 -0.066702727 0.00060590959)
(-0.21477176 -0.088635386 0.00052487031)
(-0.20883925 -0.10954358 0.00043426322)
(-0.19994755 -0.12862537 0.00033813204)
(-0.18801121 -0.14499654 0.00024159674)
(-0.17307833 -0.15773275 0.00015058436)
(-0.15537192 -0.16593393 7.1379655e-05)
(-0.13532514 -0.16881123 1.000927e-05)
(-0.11360072 -0.16579094 -2.848322e-05)
(-0.091083886 -0.156623 -4.0751901e-05)
(-0.068841443 -0.14147373 -2.5659809e-05)
(-0.048044047 -0.12097918 1.5472626e-05)
(-0.029843578 -0.09623814 7.8449518e-05)
(-0.015228886 -0.068731753 0.00015689513)
(-0.0051162111 -0.040183406 0.00025137241)
(-0.00065341827 -0.012460199 0.00034367125)
(-0.00056006991 0.018392174 0.00029850174)
(-0.0035636324 0.049448721 0.00039087271)
(-0.0096962365 0.075090562 0.00043798698)
(-0.017948934 0.095770147 0.00047346341)
(-0.027749574 0.1120069 0.00050500142)
(-0.038718804 0.12433125 0.00053458857)
(-0.050526378 0.13324278 0.00056399952)
(-0.062900628 0.13918186 0.00059481362)
(-0.075627793 0.14251341 0.00062804229)
(-0.088539906 0.14352078 0.00066417061)
(-0.10150358 0.14240789 0.00070323071)
(-0.11441021 0.13930732 0.00074484394)
(-0.12716701 0.13429232 0.00078825341)
(-0.13968893 0.12739087 0.00083235116)
(-0.15189158 0.11860028 0.0008757019)
(-0.16368473 0.10790167 0.00091657234)
(-0.17496655 0.095273744 0.00095296646)