/*--------------------------------*- C++ -*----------------------------------*\
  =========                 |
  \\      /  F ield         | OpenFOAM: The Open Source CFD Toolbox
   \\    /   O peration     | Website:  https://openfoam.org
    \\  /    A nd           | Version:  7
     \\/     M anipulation  |
\*---------------------------------------------------------------------------*/
FoamFile
{
    version     2.0;
    format      ascii;
    class       volScalarField;
    location    "7.8";
    object      p;
}
// * * * * * * * * * * * * * * * * * * * * * * * * * * * * * * * * * * * * * //

dimensions      [1 -1 -2 0 0 0 0];

internalField   nonuniform List<scalar> 
19968
(
1
1
1
1
1
1
1
1
1
1
1
1
1
1
1
1
1
1
1
1
1
1
1
1
1
1
1
1
1
1
1
1
1
1
1
1
1
1
1
1
1
1
1
1
1
1
1
1
1.58498
8.10134
10.441
10.4433
10.5164
10.5723
10.6338
10.6945
10.7522
10.8057
10.8562
10.907
10.96
11.0129
11.0636
11.1116
11.1572
11.201
11.2445
11.2903
11.3384
11.3862
11.4315
11.4742
11.5151
11.5551
11.594
11.6308
11.6648
11.6963
11.7267
11.7575
11.7887
11.8186
11.8451
11.8678
11.8878
11.9072
11.9278
11.9498
11.9719
11.9921
12.0082
12.0196
12.0264
12.0296
12.0309
12.0318
1
1
1
1
1
1
1
1
1
1
1
1
1
1
1
1
1
1
1
1
1
1
1
1
1
1
1
1
1
1
1
1
1
1
1
1
1
1
1
1
1
1
1
1
1
1
1
1
1.54665
8.01662
10.4168
10.4512
10.5176
10.5734
10.6342
10.6945
10.7519
10.8053
10.8556
10.9058
10.9583
11.0107
11.0617
11.1097
11.1555
11.1992
11.2426
11.2883
11.336
11.3832
11.428
11.4702
11.5107
11.5504
11.5892
11.626
11.6602
11.6918
11.7224
11.7532
11.7842
11.8139
11.8405
11.8632
11.8833
11.9027
11.9229
11.9444
11.966
11.9856
12.0015
12.0126
12.0194
12.0225
12.0238
12.0247
1
1
1
1
1
1
1
1
1
1
1
1
1
1
1
1
1
1
1
1
1
1
1
1
1
1
1
1
1
1
1
1
1
1
1
1
1
1
1
1
1
1
1
1
1
1
1
1
1.46645
7.8451
10.4074
10.4488
10.5123
10.5679
10.6281
10.6885
10.7461
10.8002
10.8509
10.9005
10.9526
11.0044
11.0556
11.1038
11.1499
11.1938
11.2374
11.2828
11.3299
11.3765
11.4207
11.4625
11.5026
11.542
11.5805
11.6172
11.6514
11.6832
11.7138
11.7445
11.7753
11.805
11.8317
11.8549
11.8753
11.8947
11.9146
11.9355
11.9564
11.9755
11.9911
12.0022
12.009
12.0122
12.0135
12.0146
1
1
1
1
1
1
1
1
1
1
1
1
1
1
1
1
1
1
1
1
1
1
1
1
1
1
1
1
1
1
1
1
1
1
1
1
1
1
1
1
1
1
1
1
1
1
1
1
1.35656
7.57635
10.398
10.4464
10.5053
10.5601
10.6192
10.6797
10.7378
10.7927
10.8437
10.8929
10.9445
10.9957
11.047
11.0956
11.142
11.1861
11.2299
11.275
11.3213
11.3669
11.4102
11.4512
11.4908
11.5297
11.5679
11.6045
11.6386
11.6705
11.701
11.7315
11.762
11.7915
11.8183
11.8417
11.8621
11.8812
11.9003
11.9201
11.9399
11.9582
11.9734
11.9847
11.9919
11.9958
11.9975
11.9992
1
1
1
1
1
1
1
1
1
1
1
1
1
1
1
1
1
1
1
1
1
1
1
1
1
1
1
1
1
1
1
1
1
1
1
1
1
1
1
1
1
1
1
1
1
1
1
1
1.22174
7.22781
10.3925
10.4443
10.4955
10.5505
10.6085
10.6688
10.7274
10.7828
10.834
10.8827
10.9334
10.9838
11.0351
11.0839
11.1306
11.175
11.2193
11.2644
11.31
11.3545
11.3969
11.4373
11.4763
11.5149
11.5529
11.5892
11.6232
11.6549
11.6853
11.7156
11.746
11.7757
11.803
11.8269
11.8476
11.8661
11.8841
11.902
11.9197
11.936
11.9497
11.9599
11.9665
11.9702
11.972
11.9739
1
1
1
1
1
1
1
1
1
1
1
1
1
1
1
1
1
1
1
1
1
1
1
1
1
1
1
1
1
1
1
1
1
1
1
1
1
1
1
1
1
1
1
1
1
1
1
1
1.01595
6.72001
10.3738
10.442
10.4888
10.5453
10.6018
10.6619
10.7207
10.7761
10.8267
10.8743
10.9231
10.9719
11.0223
11.0706
11.1171
11.1613
11.2052
11.2496
11.2938
11.3366
11.3773
11.4162
11.4542
11.492
11.5293
11.5649
11.598
11.6288
11.6584
11.6879
11.718
11.7477
11.7756
11.8003
11.8215
11.8402
11.8578
11.8749
11.8914
11.9067
11.9196
11.9295
11.9363
11.9407
11.9429
11.9453
1
1
1
1
1
1
1
1
1
1
1
1
1
1
1
1
1
1
1
1
1
1
1
1
1
1
1
1
1
1
1
1
1
1
1
1
1
1
1
1
1
1
1
1
1
1
1
1
1.0001
6.02244
10.2794
10.3919
10.4414
10.5025
10.5612
10.6231
10.6829
10.739
10.79
10.8381
10.8866
10.9348
10.9846
11.0326
11.0787
11.1233
11.1678
11.2127
11.2569
11.2993
11.3395
11.3782
11.4163
11.4544
11.4918
11.5272
11.5597
11.5896
11.6184
11.6474
11.6773
11.7075
11.7362
11.7618
11.7839
11.8031
11.8205
11.8368
11.8522
11.8661
11.8779
11.8872
11.894
11.8988
11.9015
11.9045
1
1
1
1
1
1
1
1
1
1
1
1
1
1
1
1
1
1
1
1
1
1
1
1
1
1
1
1
1
1
1
1
1
1
1
1
1
1
1
1
1
1
1
1
1
1
1
1
1
5.11292
10.134
10.3606
10.4144
10.4772
10.5364
10.5979
10.6564
10.7111
10.7617
10.8097
10.8577
10.9049
10.9533
11.0003
11.0451
11.0893
11.1335
11.1781
11.2215
11.2624
11.3013
11.3392
11.3767
11.4145
11.4516
11.4864
11.5179
11.5466
11.5741
11.6021
11.6315
11.6615
11.6905
11.7165
11.739
11.7582
11.7752
11.7906
11.8045
11.8167
11.8269
11.8354
11.8419
11.8472
11.8503
11.8539
1
1
1
1
1
1
1
1
1
1
1
1
1
1
1
1
1
1
1
1
1
1
1
1
1
1
1
1
1
1
1
1
1
1
1
1
1
1
1
1
1
1
1
1
1
1
1
1
1
4.05022
9.84468
10.3286
10.3837
10.4478
10.5075
10.5677
10.6237
10.6767
10.7267
10.7748
10.8223
10.8687
10.9156
10.9611
11.004
11.0468
11.09
11.1333
11.1751
11.2142
11.251
11.287
11.323
11.3597
11.3961
11.4303
11.461
11.4886
11.5149
11.5417
11.57
11.5992
11.6275
11.6533
11.6757
11.6951
11.7121
11.7271
11.7401
11.751
11.7601
11.7679
11.7746
11.7805
11.7843
11.7886
1
1
1
1
1
1
1
1
1
1
1
1
1
1
1
1
1
1
1
1
1
1
1
1
1
1
1
1
1
1
1
1
1
1
1
1
1
1
1
1
1
1
1
1
1
1
1
1
1
2.92737
9.3057
10.3072
10.37
10.4341
10.4904
10.5453
10.5963
10.646
10.6945
10.742
10.789
10.8346
10.8797
10.923
10.9631
11.0037
11.0454
11.0874
11.1271
11.1636
11.1972
11.2298
11.2625
11.2962
11.3303
11.3628
11.3919
11.418
11.4426
11.4677
11.4942
11.5217
11.5488
11.574
11.5963
11.6159
11.6329
11.6472
11.6586
11.6674
11.6745
11.6808
11.6869
11.6931
11.6974
11.7021
1
1
1
1
1
1
1
1
1
1
1
1
1
1
1
1
1
1
1
1
1
1
1
1
1
1
1
1
1
1
1
1
1
1
1
1
1
1
1
1
1
1
1
1
1
1
1
1
1
1.84835
8.36702
10.3494
10.3331
10.3972
10.4477
10.5011
10.5519
10.6012
10.6495
10.6973
10.745
10.7915
10.8364
10.8786
10.9173
10.9556
10.9953
11.036
11.0747
11.1095
11.1403
11.1694
11.1986
11.2291
11.2607
11.2913
11.3187
11.3426
11.3644
11.3858
11.4077
11.4302
11.4525
11.4734
11.4926
11.5097
11.5248
11.5374
11.5473
11.5549
11.5613
11.5675
11.5741
11.5816
11.5875
11.5934
1
1
1
1
1
1
1
1
1
1
1
1
1
1
1
1
1
1
1
1
1
1
1
1
1
1
1
1
1
1
1
1
1
1
1
1
1
1
1
1
1
1
1
1
1
1
1
1
1
1.03325
6.72986
10.3573
10.3633
10.401
10.4429
10.4863
10.529
10.5714
10.6145
10.6586
10.7038
10.7486
10.7905
10.8284
10.8624
10.8951
10.9301
10.9676
11.0034
11.0354
11.0631
11.088
11.1129
11.139
11.1672
11.1956
11.2218
11.2444
11.2643
11.2828
11.3007
11.3186
11.3363
11.3537
11.3704
11.386
11.3993
11.4095
11.4161
11.4191
11.42
11.4202
11.4218
11.4263
11.4311
11.4365
1
1
1
1
1
1
1
1
1
1
1
1
1
1
1
1
1
1
1
1
1
1
1
1
1
1
1
1
1
1
1
1
1
1
1
1
1
1
1
1
1
1
1
1
1
1
1
1
1
1.00006
4.6156
9.92908
10.2057
10.2678
10.3313
10.3845
10.4323
10.476
10.5181
10.5605
10.6045
10.6486
10.69
10.7266
10.7592
10.7901
10.8224
10.8578
10.8936
10.9258
10.9536
10.977
10.999
11.0213
11.0461
11.0726
11.0978
11.1196
11.1375
11.1524
11.165
11.1762
11.1862
11.1959
11.2049
11.2124
11.2173
11.2195
11.2189
11.2164
11.2144
11.2143
11.2169
11.2233
11.2296
11.2364
1
1
1
1
1
1
1
1
1
1
1
1
1
1
1
1
1
1
1
1
1
1
1
1
1
1
1
1
1
1
1
1
1
1
1
1
1
1
1
1
1
1
1
1
1
1
1
1
1
1
2.40602
8.80676
10.1507
10.2007
10.2774
10.3306
10.3784
10.4209
10.4604
10.4991
10.5395
10.5805
10.6198
10.654
10.6833
10.71
10.7368
10.7662
10.7979
10.8275
10.8529
10.8728
10.8888
10.904
10.9212
10.9415
10.9625
10.9807
10.9941
11.0031
11.0082
11.0104
11.0106
11.011
11.011
11.0102
11.0077
11.0032
10.9963
10.9882
10.9776
10.965
10.9476
10.9281
10.9076
10.8905
1
1
1
1
1
1
1
1
1
1
1
1
1
1
1
1
1
1
1
1
1
1
1
1
1
1
1
1
1
1
1
1
1
1
1
1
1
1
1
1
1
1
1
1
1
1
1
1
1
1
1.05993
6.41892
10.2129
10.2204
10.2456
10.2819
10.3196
10.3545
10.3863
10.4172
10.4499
10.485
10.52
10.5516
10.5774
10.5993
10.6208
10.6441
10.6708
10.6971
10.7195
10.7363
10.7472
10.7551
10.7631
10.7742
10.7883
10.8018
10.8108
10.8141
10.8103
10.8015
10.7894
10.7762
10.7609
10.7414
10.716
10.6844
10.6476
10.6065
10.5618
10.5151
10.4744
10.4383
10.4201
10.4127
1
1
1
1
1
1
1
1
1
1
1
1
1
1
1
1
1
1
1
1
1
1
1
1
1
1
1
1
1
1
1
1
1
1
1
1
1
1
1
1
1
1
1
1
1
1
1
1
1
1
1.00009
3.29601
9.24001
10.0659
10.1016
10.1566
10.2008
10.2412
10.2759
10.3066
10.3363
10.3682
10.4011
10.4319
10.4575
10.4766
10.4923
10.5088
10.5289
10.5517
10.573
10.5886
10.5961
10.5964
10.5917
10.5881
10.5893
10.5939
10.5965
10.5918
10.5775
10.5545
10.526
10.4941
10.4577
10.4137
10.3605
10.2995
10.2345
10.1692
10.1034
10.0354
9.95189
9.86833
9.75071
9.84094
1
1
1
1
1
1
1
1
1
1
1
1
1
1
1
1
1
1
1
1
1
1
1
1
1
1
1
1
1
1
1
1
1
1
1
1
1
1
1
1
1
1
1
1
1
1
1
1
1
1
1
1.21801
7.25158
10.1241
10.0979
10.1285
10.1591
10.1892
10.2151
10.2352
10.2535
10.2752
10.3015
10.3282
10.3509
10.3656
10.3737
10.3821
10.3947
10.4123
10.4311
10.4447
10.4503
10.4451
10.4312
10.414
10.4005
10.3924
10.3852
10.3716
10.347
10.311
10.2657
10.2136
10.1539
10.0828
9.99584
9.89187
9.76901
9.62664
9.44437
9.2007
8.82897
8.27011
7.33867
5.4428
1
1
1
1
1
1
1
1
1
1
1
1
1
1
1
1
1
1
1
1
1
1
1
1
1
1
1
1
1
1
1
1
1
1
1
1
1
1
1
1
1
1
1
1
1
1
1
1
1
1
1
1.00164
4.5898
9.67684
9.93302
9.98895
10.0303
10.0693
10.103
10.1274
10.1467
10.167
10.1918
10.2181
10.2419
10.2583
10.2661
10.2682
10.2709
10.2788
10.2917
10.3041
10.3112
10.3064
10.2881
10.2614
10.2346
10.2128
10.194
10.1713
10.1382
10.0918
10.0324
9.96198
9.87982
9.78358
9.66497
9.52221
9.3448
9.13494
8.86057
8.50823
7.99544
7.34454
6.10587
4.49784
1
1
1
1
1
1
1
1
1
1
1
1
1
1
1
1
1
1
1
1
1
1
1
1
1
1
1
1
1
1
1
1
1
1
1
1
1
1
1
1
1
1
1
1
1
1
1
1
1
1
1
0.999996
1.93598
8.23408
9.90326
9.92179
9.96176
9.99757
10.031
10.054
10.0702
10.085
10.1035
10.125
10.1462
10.1626
10.1719
10.1706
10.1652
10.1624
10.1642
10.1689
10.1711
10.1632
10.1416
10.1087
10.071
10.035
10.0014
9.96611
9.92226
9.86569
9.79299
9.70533
9.6004
9.47908
9.33155
9.15593
8.93859
8.67713
8.35286
7.93685
7.40914
6.65036
5.64682
4.53705
1
1
1
1
1
1
1
1
1
1
1
1
1
1
1
1
1
1
1
1
1
1
1
1
1
1
1
1
1
1
1
1
1
1
1
1
1
1
1
1
1
1
1
1
1
1
1
1
1
1
1
0.999999
1.03175
5.39533
9.76027
9.85001
9.87977
9.91098
9.94605
9.97073
9.98775
10.0011
10.0143
10.027
10.0392
10.0511
10.06
10.061
10.0545
10.0451
10.0373
10.0314
10.0244
10.0096
9.98442
9.94812
9.90376
9.8569
9.80923
9.75983
9.70292
9.6353
9.55069
9.44903
9.32614
9.18382
9.01471
8.81535
8.57491
8.28592
7.94106
7.51117
6.99682
6.322
5.55498
4.74417
1
1
1
1
1
1
1
1
1
1
1
1
1
1
1
1
1
1
1
1
1
1
1
1
1
1
1
1
1
1
1
1
1
1
1
1
1
1
1
1
1
1
1
1
1
1
1
1
1
1
1
1
1
2.23229
8.47143
9.78354
9.80141
9.83413
9.86382
9.89007
9.90929
9.92297
9.93454
9.93891
9.93939
9.9424
9.94621
9.94781
9.94408
9.93426
9.92059
9.90458
9.88499
9.85912
9.82675
9.78668
9.73866
9.68563
9.62731
9.56455
9.49341
9.41239
9.31559
9.20198
9.06715
8.91101
8.72918
8.51695
8.26702
7.97162
7.62724
7.21557
6.74052
6.19263
5.58732
4.94709
1
1
1
1
1
1
1
1
1
1
1
1
1
1
1
1
1
1
1
1
1
1
1
1
1
1
1
1
1
1
1
1
1
1
1
1
1
1
1
1
1
1
1
1
1
1
1
1
1
1
1
1
0.999999
1.04947
5.52317
9.65248
9.74392
9.7675
9.78677
9.81042
9.82739
9.83828
9.85161
9.8544
9.84963
9.84483
9.83999
9.83626
9.83121
9.82019
9.8026
9.7789
9.74869
9.71301
9.67229
9.62718
9.57526
9.51792
9.45271
9.38057
9.29854
9.20475
9.0954
8.96973
8.82561
8.66211
8.47547
8.2608
8.01381
7.72483
7.39901
7.01588
6.59772
6.14782
5.64115
5.13253
1
1
1
1
1
1
1
1
1
1
1
1
1
1
1
1
1
1
1
1
1
1
1
1
1
1
1
1
1
1
1
1
1
1
1
1
1
1
1
1
1
1
1
1
1
1
1
1
1
1
1
1
1
1.00005
2.08624
8.26276
9.66703
9.68912
9.7095
9.72322
9.73029
9.73643
9.74731
9.746
9.7386
9.73338
9.72768
9.72269
9.71617
9.7035
9.68186
9.65034
9.61084
9.56637
9.51836
9.46891
9.41372
9.35263
9.28341
9.20618
9.11823
9.01628
8.89713
8.76123
8.60984
8.44304
8.25692
8.04659
7.81116
7.53435
7.23348
6.88709
6.52105
6.13526
5.70495
5.27702
1
1
1
1
1
1
1
1
1
1
1
1
1
1
1
1
1
1
1
1
1
1
1
1
1
1
1
1
1
1
1
1
1
1
1
1
1
1
1
1
1
1
1
1
1
1
1
1
1
1
1
1
1
1
1.03627
4.94862
9.36806
9.61234
9.6146
9.63001
9.64172
9.65517
9.66538
9.66203
9.65001
9.6378
9.62706
9.61746
9.60614
9.59078
9.56613
9.52899
9.48312
9.43179
9.37691
9.32189
9.26211
9.19579
9.12183
9.04036
8.94931
8.84414
8.72002
8.57815
8.42209
8.25302
8.06932
7.86476
7.64256
7.38258
7.10892
6.80248
6.47557
6.14321
5.77779
5.40485
1
1
1
1
1
1
1
1
1
1
1
1
1
1
1
1
1
1
1
1
1
1
1
1
1
1
1
1
1
1
1
1
1
1
1
1
1
1
1
1
1
1
1
1
1
1
1
1
1
1
1
1
1
1
1.00003
1.53684
7.57587
9.63466
9.58866
9.57687
9.56641
9.56842
9.56648
9.55936
9.54678
9.53105
9.51602
9.50065
9.48306
9.46461
9.43911
9.40018
9.3524
9.29798
9.238
9.17854
9.11503
9.04475
8.96629
8.88044
8.78711
8.68185
8.55819
8.41757
8.26315
8.09542
7.9174
7.71672
7.50505
7.26403
7.01363
6.73982
6.44906
6.1594
5.84132
5.50872
1
1
1
1
1
1
1
1
1
1
1
1
1
1
1
1
1
1
1
1
1
1
1
1
1
1
1
1
1
1
1
1
1
1
1
1
1
1
1
1
1
1
1
1
1
1
1
1
1
1
1
1
1
1
1
1.00863
3.91137
8.95376
9.41668
9.45147
9.46773
9.46748
9.46086
9.44792
9.43424
9.4185
9.40095
9.38138
9.35893
9.33628
9.31097
9.27344
9.22697
9.17346
9.1116
9.04859
8.98065
8.90629
8.82333
8.73325
8.63647
8.52936
8.40689
8.27142
8.12424
7.96164
7.7915
7.59494
7.39385
7.1691
6.93604
6.69119
6.43255
6.17069
5.89312
5.60046
1
1
1
1
1
1
1
1
1
1
1
1
1
1
1
1
1
1
1
1
1
1
1
1
1
1
1
1
1
1
1
1
1
1
1
1
1
1
1
1
1
1
1
1
1
1
1
1
1
1
1
1
1
1
1
1
1.22548
6.24639
9.36812
9.38542
9.39357
9.37895
9.37018
9.35487
9.34006
9.32453
9.30499
9.28148
9.25357
9.22304
9.194
9.15648
9.11032
9.05723
8.99642
8.9305
8.8573
8.77807
8.69136
8.59844
8.499
8.38839
8.26875
8.13843
8.00064
7.84532
7.68326
7.49584
7.30586
7.09474
6.87854
6.65709
6.42122
6.1784
5.93869
5.67922
1
1
1
1
1
1
1
1
1
1
1
1
1
1
1
1
1
1
1
1
1
1
1
1
1
1
1
1
1
1
1
1
1
1
1
1
1
1
1
1
1
1
1
1
1
1
1
1
1
1
1
1
1
1
1
1
1.00156
2.16994
8.00242
9.32253
9.25291
9.26687
9.26662
9.25833
9.24498
9.23075
9.2114
9.18486
9.15232
9.11431
9.07797
9.03964
8.9923
8.93884
8.87951
8.81435
8.73851
8.65696
8.56853
8.47493
8.37313
8.26037
8.14526
8.0163
7.88356
7.73649
7.58236
7.40916
7.23096
7.03627
6.83657
6.63164
6.41354
6.19246
5.9806
5.74487
1
1
1
1
1
1
1
1
1
1
1
1
1
1
1
1
1
1
1
1
1
1
1
1
1
1
1
1
1
1
1
1
1
1
1
1
1
1
1
1
1
1
1
1
1
1
1
1
1
1
1
1
1
1
1
1
1
1.03883
4.16412
8.89623
9.16188
9.17147
9.18126
9.17429
9.16185
9.14628
9.12646
9.09847
9.06358
9.02106
8.97623
8.93421
8.88299
8.82624
8.7668
8.70301
8.62796
8.54706
8.45927
8.36701
8.26401
8.15123
8.03372
7.90853
7.77943
7.64009
7.49269
7.3319
7.16529
6.98735
6.80252
6.61181
6.4152
6.21332
6.01553
5.80023
1
1
1
1
1
1
1
1
1
1
1
1
1
1
1
1
1
1
1
1
1
1
1
1
1
1
1
1
1
1
1
1
1
1
1
1
1
1
1
1
1
1
1
1
1
1
1
1
1
1
1
1
1
1
1
1
1
1.00007
1.25552
5.72379
9.03222
9.16189
9.13179
9.1194
9.10076
9.07604
9.04928
9.01829
8.98172
8.93738
8.88794
8.84028
8.78563
8.72448
8.66164
8.59664
8.52353
8.44432
8.35826
8.26821
8.16421
8.05448
7.9373
7.81345
7.68691
7.55338
7.41299
7.26238
7.10601
6.94255
6.77085
6.59335
6.41777
6.23021
6.04393
5.84738
1
1
1
1
1
1
1
1
1
1
1
1
1
1
1
1
1
1
1
1
1
1
1
1
1
1
1
1
1
1
1
1
1
1
1
1
1
1
1
1
1
1
1
1
1
1
1
1
1
1
1
1
1
1
1
1
1
1
1.00205
1.62021
7.2794
9.16776
9.10282
9.06564
9.02283
8.98617
8.95273
8.9206
8.88774
8.84629
8.79745
8.7473
8.69062
8.62776
8.56174
8.49524
8.42474
8.34825
8.26536
8.17557
8.07362
7.96727
7.85351
7.73403
7.61035
7.48227
7.34746
7.20565
7.05748
6.90501
6.74471
6.57802
6.41783
6.24259
6.06924
5.88799
1
1
1
1
1
1
1
1
1
1
1
1
1
1
1
1
1
1
1
1
1
1
1
1
1
1
1
1
1
1
1
1
1
1
1
1
1
1
1
1
1
1
1
1
1
1
1
1
1
1
1
1
1
1
1
1
1
1
1
1.01107
3.0552
8.32016
8.95945
8.89933
8.87082
8.84574
8.82447
8.80081
8.77523
8.74178
8.70028
8.65539
8.60098
8.53999
8.47438
8.40393
8.33351
8.25656
8.17654
8.08722
7.99044
7.88751
7.77902
7.66523
7.54603
7.42299
7.29294
7.15921
7.01786
6.87319
6.72234
6.56535
6.41476
6.24966
6.08814
5.92077
1
1
1
1
1
1
1
1
1
1
1
1
1
1
1
1
1
1
1
1
1
1
1
1
1
1
1
1
1
1
1
1
1
1
1
1
1
1
1
1
1
1
1
1
1
1
1
1
1
1
1
1
1
1
1
1
1
1
1
1.00001
1.11005
4.37247
8.60813
8.79681
8.77337
8.77254
8.75833
8.7347
8.70672
8.67224
8.63117
8.58605
8.53109
8.46911
8.40274
8.33117
8.25478
8.179
8.09859
8.00956
7.91436
7.81525
7.71185
7.60379
7.49079
7.3737
7.24966
7.12347
6.98866
6.84946
6.70687
6.55937
6.41455
6.25816
6.10607
5.95033
1
1
1
1
1
1
1
1
1
1
1
1
1
1
1
1
1
1
1
1
1
1
1
1
1
1
1
1
1
1
1
1
1
1
1
1
1
1
1
1
1
1
1
1
1
1
1
1
1
1
1
1
1
1
1
1
1
1
1
1
1.00052
1.29543
5.2038
8.59361
8.72032
8.72057
8.70882
8.68185
8.64981
8.61002
8.56593
8.51634
8.46085
8.39992
8.33382
8.26313
8.18584
8.10472
8.02507
7.93817
7.84523
7.74832
7.64916
7.54649
7.43967
7.3285
7.21053
7.09072
6.96244
6.82856
6.69398
6.55428
6.41364
6.26551
6.12154
5.97609
1
1
1
1
1
1
1
1
1
1
1
1
1
1
1
1
1
1
1
1
1
1
1
1
1
1
1
1
1
1
1
1
1
1
1
1
1
1
1
1
1
1
1
1
1
1
1
1
1
1
1
1
1
1
1
1
1
1
1
1
1
1.00285
1.49372
5.88141
8.5899
8.69461
8.66329
8.63177
8.59588
8.55216
8.50557
8.45448
8.39877
8.33738
8.2709
8.19995
8.12385
8.04292
7.9617
7.87728
7.78731
7.69315
7.59639
7.49709
7.39462
7.28805
7.17464
7.05859
6.93539
6.8063
6.67948
6.54765
6.41245
6.27302
6.13636
5.99941
1
1
1
1
1
1
1
1
1
1
1
1
1
1
1
1
1
1
1
1
1
1
1
1
1
1
1
1
1
1
1
1
1
1
1
1
1
1
1
1
1
1
1
1
1
1
1
1
1
1
1
1
1
1
1
1
1
1
1
1
1
1
1.00729
1.72241
6.45535
8.56617
8.61403
8.58328
8.54092
8.49654
8.44626
8.39279
8.33544
8.27382
8.20777
8.13683
8.06182
7.98364
7.90373
7.82044
7.73289
7.64195
7.54828
7.45194
7.35249
7.24928
7.13949
7.0261
6.90703
6.7831
6.66385
6.53824
6.40823
6.27669
6.14647
6.0182
1
1
1
1
1
1
1
1
1
1
1
1
1
1
1
1
1
1
1
1
1
1
1
1
1
1
1
1
1
1
1
1
1
1
1
1
1
1
1
1
1
1
1
1
1
1
1
1
1
1
1
1
1
1
1
1
1
1
1
1
1
1
1.00001
1.01475
1.98255
6.89037
8.53736
8.5447
8.50519
8.4526
8.39935
8.34151
8.27875
8.21518
8.14803
8.07714
8.0038
7.92906
7.85248
7.77213
7.68762
7.59943
7.50808
7.41366
7.31521
7.21371
7.10683
6.99564
6.88125
6.76388
6.65071
6.52941
6.40404
6.28031
6.15799
6.04023
1
1
1
1
1
1
1
1
1
1
1
1
1
1
1
1
1
1
1
1
1
1
1
1
1
1
1
1
1
1
1
1
1
1
1
1
1
1
1
1
1
1
1
1
1
1
1
1
1
1
1
1
1
1
1
1
1
1
1
1
1
1
1
1.00004
1.0264
2.24052
7.28271
8.49926
8.45643
8.40773
8.34385
8.28301
8.22012
8.15574
8.08774
8.01848
7.94792
7.87628
7.80258
7.72507
7.64332
7.55739
7.46815
7.37575
7.27926
7.18005
7.07615
6.96803
6.85829
6.74513
6.63621
6.52076
6.40511
6.29279
6.18514
6.09028
1
1
1
1
1
1
1
1
1
1
1
1
1
1
1
1
1
1
1
1
1
1
1
1
1
1
1
1
1
1
1
1
1
1
1
1
1
1
1
1
1
1
1
1
1
1
1
1
1
1
1
1
1
1
1
1
1
1
1
1
1
1
1
1
1.00008
1.04143
2.64436
7.52487
8.38349
8.32814
8.28449
8.22388
8.16079
8.09808
8.03435
7.96933
7.90219
7.83273
7.76029
7.6838
7.60338
7.51874
7.43098
7.34086
7.24679
7.14955
7.0478
6.94227
6.83644
6.72944
6.62871
6.52557
6.42925
6.35192
6.284
6.25067
1
1
1
1
1
1
1
1
1
1
1
1
1
1
1
1
1
1
1
1
1
1
1
1
1
1
1
1
1
1
1
1
1
1
1
1
1
1
1
1
1
1
1
1
1
1
1
1
1
1
1
1
1
1
1
1
1
1
1
1
1
1
1
1
1
1.00015
1.07159
2.93755
7.57324
8.26635
8.21341
8.15822
8.10413
8.04825
7.99052
7.92915
7.86422
7.79594
7.72422
7.64892
7.57024
7.48733
7.40096
7.31161
7.21736
7.12027
7.01904
6.91903
6.82168
6.7275
6.6543
6.59232
6.56048
6.55794
6.58941
6.65249
1
1
1
1
1
1
1
1
1
1
1
1
1
1
1
1
1
1
1
1
1
1
1
1
1
1
1
1
1
1
1
1
1
1
1
1
1
1
1
1
1
1
1
1
1
1
1
1
1
1
1
1
1
1
1
1
1
1
1
1
1
1
1
1
1
1
1.00034
1.10027
3.03619
7.49905
8.15649
8.10651
8.05862
8.00789
7.95385
7.89527
7.83166
7.76364
7.6923
7.61794
7.53961
7.45654
7.36937
7.27772
7.18347
7.08968
6.99602
6.91124
6.84647
6.80864
6.80596
6.83977
6.92836
7.00971
7.09405
7.1417
1
1
1
1
1
1
1
1
1
1
1
1
1
1
1
1
1
1
1
1
1
1
1
1
1
1
1
1
1
1
1
1
1
1
1
1
1
1
1
1
1
1
1
1
1
1
1
1
1
1
1
1
1
1
1
1
1
1
1
1
1
1
1
1
1
1
1
1.00058
1.11311
2.97843
7.3704
8.07281
8.0285
7.98119
7.92424
7.86337
7.79899
7.73086
7.66031
7.58606
7.50684
7.41984
7.33323
7.24356
7.15927
7.07937
7.02364
7.00783
7.02537
7.11204
7.24155
7.36081
7.47811
7.51528
7.52761
7.47179
1
1
1
1
1
1
1
1
1
1
1
1
1
1
1
1
1
1
1
1
1
1
1
1
1
1
1
1
1
1
1
1
1
1
1
1
1
1
1
1
1
1
1
1
1
1
1
1
1
1
1
1
1
1
1
1
1
1
1
1
1
1
1
1
1
1
1
1
1.00072
1.10863
2.89359
7.194
7.98343
7.94788
7.89
7.82939
7.76345
7.69656
7.62601
7.55086
7.47003
7.38412
7.30318
7.2288
7.18282
7.1816
7.23024
7.35972
7.52322
7.71525
7.83356
7.87774
7.90284
7.83936
7.76119
7.6549
1
1
1
1
1
1
1
1
1
1
1
1
1
1
1
1
1
1
1
1
1
1
1
1
1
1
1
1
1
1
1
1
1
1
1
1
1
1
1
1
1
1
1
1
1
1
1
1
1
1
1
1
1
1
1
1
1
1
1
1
1
1
1
1
1
1
1
1
1
1.00068
1.09985
2.76172
6.95063
7.88523
7.85974
7.79556
7.73222
7.66349
7.58922
7.51235
7.43022
7.35772
7.31903
7.32301
7.40296
7.57217
7.78948
8.02727
8.1773
8.23631
8.23313
8.1893
8.11739
7.9993
7.8954
7.79322
1
1
1
1
1
1
1
1
1
1
1
1
1
1
1
1
1
1
1
1
1
1
1
1
1
1
1
1
1
1
1
1
1
1
1
1
1
1
1
1
1
1
1
1
1
1
1
1
1
1
1
1
1
1
1
1
1
1
1
1
1
1
1
1
1
1
1
1
1
1
1.00061
1.08646
2.57134
6.62638
7.76992
7.76384
7.69845
7.6311
7.55318
7.48191
7.43233
7.43729
7.53406
7.74103
8.03237
8.30706
8.50388
8.6004
8.57583
8.51122
8.4395
8.35698
8.24531
8.11555
8.02452
7.94175
1
1
1
1
1
1
1
1
1
1
1
1
1
1
1
1
1
1
1
1
1
1
1
1
1
1
1
1
1
1
1
1
1
1
1
1
1
1
1
1
1
1
1
1
1
1
1
1
1
1
1
1
1
1
1
1
1
1
1
1
1
1
1
1
1
1
1
1
1
1
1
1.0005
1.06889
2.339
6.18603
7.64299
7.68943
7.58892
7.52508
7.52096
7.63573
7.88615
8.24223
8.57465
8.79306
8.89332
8.90986
8.84397
8.75103
8.65834
8.57352
8.4747
8.35487
8.24846
8.18233
8.10542
1
1
1
1
1
1
1
1
1
1
1
1
1
1
1
1
1
1
1
1
1
1
1
1
1
1
1
1
1
1
1
1
1
1
1
1
1
1
1
1
1
1
1
1
1
1
1
1
1
1
1
1
1
1
1
1
1
1
1
1
1
1
1
1
1
1
1
1
1
1
1
1
1.00036
1.05046
2.07474
5.60765
7.49428
7.54241
7.69237
7.96913
8.41634
8.85159
9.12454
9.22399
9.22796
9.15944
9.06734
8.95084
8.85483
8.77019
8.68472
8.5831
8.48011
8.4079
8.34904
8.26306
1
1
1
1
1
1
1
1
1
1
1
1
1
1
1
1
1
1
1
1
1
1
1
1
1
1
1
1
1
1
1
1
1
1
1
1
1
1
1
1
1
1
1
1
1
1
1
1
1
1
1
1
1
1
1
1
1
1
1
1
1
1
1
1
1
1
1
1
1
1
1
1
1
1.00023
1.03311
1.80212
4.85125
7.56147
8.55201
9.03153
9.3868
9.53375
9.55736
9.48314
9.41064
9.30155
9.18503
9.06428
8.97539
8.89539
8.80326
8.69902
8.62112
8.5713
8.50079
8.40248
1
1
1
1
1
1
1
1
1
1
1
1
1
1
1
1
1
1
1
1
1
1
1
1
1
1
1
1
1
1
1
1
1
1
1
1
1
1
1
1
1
1
1
1
1
1
1
1
1
1
1
1
1
1
1
1
1
1
1
1
1
1
1
1
1
1
1
1
1
1
1
1
1
1
1.00012
1.01998
1.50911
5.99837
9.85977
9.94609
9.90623
9.82058
9.71262
9.5944
9.49765
9.3921
9.28291
9.18322
9.10749
9.03728
8.947
8.85685
8.79865
8.74517
8.65155
8.54395
1
1
1
1
1
1
1
1
1
1
1
1
1
1
1
1
1
1
1
1
1
1
1
1
1
1
1
1
1
1
1
1
1
1
1
1
1
1
1
1
1
1
1
1
1
1
1
1
1
1
1
1
1
1
1
1
1
1
1
1
1
1
1
1
1
1
1
1
1
1
1
1
1
1
1
1.00007
1.00813
3.39004
9.82523
10.2215
10.0819
9.94627
9.81885
9.71016
9.61246
9.50368
9.39062
9.29374
9.22754
9.16107
9.07035
8.98754
8.93909
8.88171
8.78865
8.70367
1
1
1
1
1
1
1
1
1
1
1
1
1
1
1
1
1
1
1
1
1
1
1
1
1
1
1
1
1
1
1
1
1
1
1
1
1
1
1
1
1
1
1
1
1
1
1
1
1
1
1
1
1
1
1
1
1
1
1
1
1
1
1
1
1
1
1
1
1
1
1
1
1
1
1
1
1.00001
1.54961
8.03537
10.1747
9.96464
9.8726
9.78056
9.68917
9.60365
9.52588
9.45622
9.40538
9.36827
9.30491
9.22261
9.15238
9.10241
9.03262
8.93459
8.85108
1
1
1
1
1
1
1
1
1
1
1
1
1
1
1
1
1
1
1
1
1
1
1
1
1
1
1
1
1
1
1
1
1
1
1
1
1
1
1
1
1
1
1
1
1
1
1
1
1
1
1
1
1
1
1
1
1
1
1
1
1
1
1
1
1
1
1
1
1
1
1
1
1
1
1
1
1
1.01026
5.33789
9.80995
9.94071
9.90959
9.86262
9.80739
9.75283
9.69886
9.64758
9.5918
9.52862
9.45321
9.38225
9.32001
9.25365
9.16831
9.07235
8.9866
1
1
1
1
1
1
1
1
1
1
1
1
1
1
1
1
1
1
1
1
1
1
1
1
1
1
1
1
1
1
1
1
1
1
1
1
1
1
1
1
1
1
1
1
1
1
1
1
1
1
1
1
1
1
1
1
1
1
1
1
1
1
1
1
1
1
1
1
1
1
1
1
1
1
1
1
1
1.00001
2.63123
8.76867
9.96947
9.92462
9.89935
9.85711
9.81461
9.77063
9.7235
9.66464
9.59821
9.5287
9.45867
9.38863
9.31482
9.23834
9.16461
9.10249
1
1
1
1
1
1
1
1
1
1
1
1
1
1
1
1
1
1
1
1
1
1
1
1
1
1
1
1
1
1
1
1
1
1
1
1
1
1
1
1
1
1
1
1
1
1
1
1
1
1
1
1
1
1
1
1
1
1
1
1
1
1
1
1
1
1
1
1
1
1
1
1
1
1
1
1
1
1
1.09693
6.82924
10.0739
10.0342
9.95937
9.93075
9.88973
9.84127
9.78896
9.73197
9.67373
9.61616
9.56053
9.5006
9.43847
9.37574
9.31523
9.26152
1
1
1
1
1
1
1
1
1
1
1
1
1
1
1
1
1
1
1
1
1
1
1
1
1
1
1
1
1
1
1
1
1
1
1
1
1
1
1
1
1
1
1
1
1
1
1
1
1
1
1
1
1
1
1
1
1
1
1
1
1
1
1
1
1
1
1
1
1
1
1
1
1
1
1
1
1
1
1.00022
4.29711
9.58812
9.98321
9.94921
9.92659
9.8899
9.84954
9.80577
9.75966
9.71156
9.66155
9.61236
9.56244
9.51095
9.45914
9.40528
9.34815
1
1
1
1
1
1
1
1
1
1
1
1
1
1
1
1
1
1
1
1
1
1
1
1
1
1
1
1
1
1
1
1
1
1
1
1
1
1
1
1
1
1
1
1
1
1
1
1
1
1
1
1
1
1
1
1
1
1
1
1
1
1
1
1
1
1
1
1
1
1
1
1
1
1
1
1
1
1
0.999999
2.10766
8.56897
10.1519
10.0517
10.001
9.94823
9.89873
9.85185
9.80887
9.76671
9.72187
9.67237
9.62016
9.56677
9.5142
9.46199
9.40995
1
1
1
1
1
1
1
1
1
1
1
1
1
1
1
1
1
1
1
1
1
1
1
1
1
1
1
1
1
1
1
1
1
1
1
1
1
1
1
1
1
1
1
1
1
1
1
1
1
1
1
1
1
1
1
1
1
1
1
1
1
1
1
1
1
1
1
1
1
1
1
1
1
1
1
1
1
1
1
1.04702
6.64179
10.1353
10.1325
10.0528
9.99995
9.94517
9.89507
9.84763
9.80098
9.75427
9.70781
9.66177
9.6139
9.56438
9.51192
9.45752
1
1
1
1
1
1
1
1
1
1
1
1
1
1
1
1
1
1
1
1
1
1
1
1
1
1
1
1
1
1
1
1
1
1
1
1
1
1
1
1
1
1
1
1
1
1
1
1
1
1
1
1
1
1
1
1
1
1
1
1
1
1
1
1
1
1
1
1
1
1
1
1
1
1
1
1
1
1
1
1.00004
4.42667
9.68015
10.0381
10.0034
9.98261
9.94699
9.90779
9.86467
9.81927
9.77345
9.72691
9.67989
9.63221
9.58392
9.53608
9.48598
1
1
1
1
1
1
1
1
1
1
1
1
1
1
1
1
1
1
1
1
1
1
1
1
1
1
1
1
1
1
1
1
1
1
1
1
1
1
1
1
1
1
1
1
1
1
1
1
1
1
1
1
1
1
1
1
1
1
1
1
1
1
1
1
1
1
1
1
1
1
1
1
1
1
1
1
1
1
1
1
2.46421
8.78207
10.2042
10.1213
10.077
10.0283
9.97969
9.93039
9.88094
9.83241
9.78376
9.73522
9.6872
9.63904
9.59134
9.54278
1
1
1
1
1
1
1
1
1
1
1
1
1
1
1
1
1
1
1
1
1
1
1
1
1
1
1
1
1
1
1
1
1
1
1
1
1
1
1
1
1
1
1
1
1
1
1
1
1
1
1
1
1
1
1
1
1
1
1
1
1
1
1
1
1
1
1
1
1
1
1
1
1
1
1
1
1
1
1
1
1.18986
7.33493
10.2638
10.1606
10.0871
10.0361
9.9924
9.95004
9.90677
9.86162
9.81504
9.76782
9.72092
9.67408
9.62732
9.58021
1
1
1
1
1
1
1
1
1
1
1
1
1
1
1
1
1
1
1
1
1
1
1
1
1
1
1
1
1
1
1
1
1
1
1
1
1
1
1
1
1
1
1
1
1
1
1
1
1
1
1
1
1
1
1
1
1
1
1
1
1
1
1
1
1
1
1
1
1
1
1
1
1
1
1
1
1
1
1
1
1.0013
5.59898
10.0518
10.1457
10.1046
10.0721
10.0301
9.9867
9.94257
9.89715
9.85085
9.80424
9.7578
9.71159
9.66521
9.61827
1
1
1
1
1
1
1
1
1
1
1
1
1
1
1
1
1
1
1
1
1
1
1
1
1
1
1
1
1
1
1
1
1
1
1
1
1
1
1
1
1
1
1
1
1
1
1
1
1
1
1
1
1
1
1
1
1
1
1
1
1
1
1
1
1
1
1
1
1
1
1
1
1
1
1
1
1
1
1
1
0.999999
3.82578
9.56596
10.1413
10.0996
10.0752
10.0375
9.99818
9.95678
9.91391
9.87067
9.82709
9.78303
9.73906
9.69397
9.64784
1
1
1
1
1
1
1
1
1
1
1
1
1
1
1
1
1
1
1
1
1
1
1
1
1
1
1
1
1
1
1
1
1
1
1
1
1
1
1
1
1
1
1
1
1
1
1
1
1
1
1
1
1
1
1
1
1
1
1
1
1
1
1
1
1
1
1
1
1
1
1
1
1
1
1
1
1
1
1
1
1
2.34949
8.78148
10.2795
10.1993
10.1577
10.1103
10.0647
10.0186
9.97283
9.92743
9.8824
9.83703
9.7916
9.74522
9.69785
1
1
1
1
1
1
1
1
1
1
1
1
1
1
1
1
1
1
1
1
1
1
1
1
1
1
1
1
1
1
1
1
1
1
1
1
1
1
1
1
1
1
1
1
1
1
1
1
1
1
1
1
1
1
1
1
1
1
1
1
1
1
1
1
1
1
1
1
1
1
1
1
1
1
1
1
1
1
1
1
1
1.32742
7.60326
10.3305
10.2287
10.1685
10.1242
10.0823
10.0396
9.99627
9.95238
9.90841
9.86367
9.81854
9.77265
9.72586
1
1
1
1
1
1
1
1
1
1
1
1
1
1
1
1
1
1
1
1
1
1
1
1
1
1
1
1
1
1
1
1
1
1
1
1
1
1
1
1
1
1
1
1
1
1
1
1
1
1
1
1
1
1
1
1
1
1
1
1
1
1
1
1
1
1
1
1
1
1
1
1
1
1
1
1
1
1
1
1
1
1.00507
6.31002
10.2443
10.2524
10.1925
10.1511
10.1063
10.0625
10.0189
9.97518
9.93151
9.88715
9.84219
9.79683
9.7507
1
1
1
1
1
1
1
1
1
1
1
1
1
1
1
1
1
1
1
1
1
1
1
1
1
1
1
1
1
1
1
1
1
1
1
1
1
1
1
1
1
1
1
1
1
1
1
1
1
1
1
1
1
1
1
1
1
1
1
1
1
1
1
1
1
1
1
1
1
1
1
1
1
1
1
1
1
1
1
1
1
1
4.9723
10.0012
10.2366
10.1867
10.1566
10.1181
10.0793
10.0391
9.99741
9.95471
9.91101
9.8665
9.82169
9.7761
1
1
1
1
1
1
1
1
1
1
1
1
1
1
1
1
1
1
1
1
1
1
1
1
1
1
1
1
1
1
1
1
1
1
1
1
1
1
1
1
1
1
1
1
1
1
1
1
1
1
1
1
1
1
1
1
1
1
1
1
1
1
1
1
1
1
1
1
1
1
1
1
1
1
1
1
1
1
1
1
1
1
3.7239
9.62117
10.2738
10.2157
10.1877
10.1493
10.1107
10.0705
10.0288
9.98566
9.94179
9.89704
9.85205
9.80639
1
1
1
1
1
1
1
1
1
1
1
1
1
1
1
1
1
1
1
1
1
1
1
1
1
1
1
1
1
1
1
1
1
1
1
1
1
1
1
1
1
1
1
1
1
1
1
1
1
1
1
1
1
1
1
1
1
1
1
1
1
1
1
1
1
1
1
1
1
1
1
1
1
1
1
1
1
1
1
1
1
1
2.66446
9.14399
10.3106
10.2378
10.2054
10.1652
10.1255
10.0845
10.0426
9.99997
9.95681
9.91273
9.86836
9.82369
1
1
1
1
1
1
1
1
1
1
1
1
1
1
1
1
1
1
1
1
1
1
1
1
1
1
1
1
1
1
1
1
1
1
1
1
1
1
1
1
1
1
1
1
1
1
1
1
1
1
1
1
1
1
1
1
1
1
1
1
1
1
1
1
1
1
1
1
1
1
1
1
1
1
1
1
1
1
1
1
1
1
1.86483
8.46989
10.3504
10.2683
10.228
10.1855
10.1446
10.1034
10.0621
10.0202
9.97796
9.93465
9.89107
9.84718
1
1
1
1
1
1
1
1
1
1
1
1
1
1
1
1
1
1
1
1
1
1
1
1
1
1
1
1
1
1
1
1
1
1
1
1
1
1
1
1
1
1
1
1
1
1
1
1
1
1
1
1
1
1
1
1
1
1
1
1
1
1
1
1
1
1
1
1
1
1
1
1
1
1
1
1
1
1
1
1
1
1
1.38977
7.71109
10.3846
10.3006
10.2497
10.2036
10.1602
10.1182
10.0765
10.0347
9.99271
9.94959
9.90639
9.86294
1
1
1
1
1
1
1
1
1
1
1
1
1
1
1
1
1
1
1
1
1
1
1
1
1
1
1
1
1
1
1
1
1
1
1
1
1
1
1
1
1
1
1
1
1
1
1
1
1
1
1
1
1
1
1
1
1
1
1
1
1
1
1
1
1
1
1
1
1
1
1
1
1
1
1
1
1
1
1
1
1
1
1.06463
6.89844
10.3396
10.3112
10.2558
10.214
10.1719
10.1309
10.0902
10.0491
10.0077
9.96477
9.92192
9.87858
1
1
1
1
1
1
1
1
1
1
1
1
1
1
1
1
1
1
1
1
1
1
1
1
1
1
1
1
1
1
1
1
1
1
1
1
1
1
1
1
1
1
1
1
1
1
1
1
1
1
1
1
1
1
1
1
1
1
1
1
1
1
1
1
1
1
1
1
1
1
1
1
1
1
1
1
1
1
1
1
1
1
1.00053
6.13175
10.2506
10.3086
10.2521
10.2178
10.1778
10.1381
10.0978
10.0575
10.0168
9.97447
9.93236
9.88956
1
1
1
1
1
1
1
1
1
1
1
1
1
1
1
1
1
1
1
1
1
1
1
1
1
1
1
1
1
1
1
1
1
1
1
1
1
1
1
1
1
1
1
1
1
1
1
1
1
1
1
1
1
1
1
1
1
1
1
1
1
1
1
1
1
1
1
1
1
1
1
1
1
1
1
1
1
1
1
1
1
1
1
5.35726
10.1504
10.3186
10.2626
10.2318
10.1939
10.1562
10.1172
10.0774
10.0368
9.9945
9.95238
9.90931
1
1
1
1
1
1
1
1
1
1
1
1
1
1
1
1
1
1
1
1
1
1
1
1
1
1
1
1
1
1
1
1
1
1
1
1
1
1
1
1
1
1
1
1
1
1
1
1
1
1
1
1
1
1
1
1
1
1
1
1
1
1
1
1
1
1
1
1
1
1
1
1
1
1
1
1
1
1
1
1
1
1
1
4.69327
10.0286
10.337
10.2751
10.2431
10.2048
10.1668
10.1273
10.0873
10.0465
10.0043
9.9622
9.91907
1
1
1
1
1
1
1
1
1
1
1
1
1
1
1
1
1
1
1
1
1
1
1
1
1
1
1
1
1
1
1
1
1
1
1
1
1
1
1
1
1
1
1
1
1
1
1
1
1
1
1
1
1
1
1
1
1
1
1
1
1
1
1
1
1
1
1
1
1
1
1
1
1
1
1
1
1
1
1
1
1
1
1
4.1583
9.88327
10.3565
10.2876
10.254
10.2147
10.176
10.1363
10.0962
10.0555
10.0135
9.9716
9.92868
1
1
1
1
1
1
1
1
1
1
1
1
1
1
1
1
1
1
1
1
1
1
1
1
1
1
1
1
1
1
1
1
1
1
1
1
1
1
1
1
1
1
1
1
1
1
1
1
1
1
1
1
1
1
1
1
1
1
1
1
1
1
1
1
1
1
1
1
1
1
1
1
1
1
1
1
1
1
1
1
1
1
1
3.73716
9.7295
10.3742
10.2978
10.2628
10.2224
10.1831
10.1432
10.1031
10.0623
10.0207
9.97902
9.93631
1
1
1
1
1
1
1
1
1
1
1
1
1
1
1
1
1
1
1
1
1
1
1
1
1
1
1
1
1
1
1
1
1
1
1
1
1
1
1
1
1
1
1
1
1
1
1
1
1
1
1
1
1
1
1
1
1
1
1
1
1
1
1
1
1
1
1
1
1
1
1
1
1
1
1
1
1
1
1
1
1
1
1
3.40594
9.58998
10.3895
10.3081
10.272
10.2309
10.1911
10.1508
10.1103
10.0692
10.0275
9.98573
9.9429
1
1
1
1
1
1
1
1
1
1
1
1
1
1
1
1
1
1
1
1
1
1
1
1
1
1
1
1
1
1
1
1
1
1
1
1
1
1
1
1
1
1
1
1
1
1
1
1
1
1
1
1
1
1
1
1
1
1
1
1
1
1
1
1
1
1
1
1
1
1
1
1
1
1
1
1
1
1
1
1
1
1
1
3.14652
9.51624
10.3931
10.3119
10.2759
10.2348
10.1951
10.1548
10.1142
10.0729
10.0314
9.98982
9.94719
1
1
1
1
1
1
1
1
1
1
1
1
1
1
1
1
1
1
1
1
1
1
1
1
1
1
1
1
1
1
1
1
1
1
1
1
1
1
1
1
1
1
1
1
1
1
1
1
1
1
1
1
1
1
1
1
1
1
1
1
1
1
1
1
1
1
1
1
1
1
1
1
1
1
1
1
1
1
1
1
1
1
1
2.98072
9.44862
10.3935
10.3127
10.2766
10.2354
10.1958
10.1558
10.1152
10.0739
10.0328
9.99138
9.94899
1
1
1
1
1
1
1