/*--------------------------------*- C++ -*----------------------------------*\
  =========                 |
  \\      /  F ield         | OpenFOAM: The Open Source CFD Toolbox
   \\    /   O peration     | Website:  https://openfoam.org
    \\  /    A nd           | Version:  7
     \\/     M anipulation  |
\*---------------------------------------------------------------------------*/
FoamFile
{
    version     2.0;
    format      ascii;
    class       volScalarField;
    location    "7.8";
    object      rho;
}
// * * * * * * * * * * * * * * * * * * * * * * * * * * * * * * * * * * * * * //

dimensions      [1 -3 0 0 0 0 0];

internalField   nonuniform List<scalar> 
19968
(
1.40001
1.40001
1.40001
1.40001
1.40001
1.40001
1.40001
1.40001
1.40001
1.40001
1.40001
1.40001
1.40001
1.40001
1.40001
1.40001
1.40001
1.40001
1.40001
1.40001
1.40001
1.40001
1.40001
1.40001
1.40001
1.40001
1.40001
1.40001
1.40001
1.40001
1.40001
1.40001
1.40001
1.40001
1.40001
1.40001
1.40001
1.40001
1.40001
1.40001
1.40001
1.40001
1.40001
1.40001
1.40001
1.40001
1.40001
1.40001
1.72571
4.59847
5.43318
5.43486
5.46138
5.48065
5.50247
5.52442
5.5453
5.56441
5.58234
5.60073
5.62063
5.64111
5.6609
5.67911
5.69555
5.71062
5.72558
5.74199
5.75992
5.778
5.79486
5.81019
5.82453
5.8386
5.85257
5.86597
5.87827
5.88947
5.90022
5.91123
5.92259
5.93361
5.9434
5.95162
5.9587
5.96551
5.97275
5.98056
5.98846
5.99565
6.00143
6.00548
6.00792
6.00904
6.00951
6.00985
1.40001
1.40001
1.40001
1.40001
1.40001
1.40001
1.40001
1.40001
1.40001
1.40001
1.40001
1.40001
1.40001
1.40001
1.40001
1.40001
1.40001
1.40001
1.40001
1.40001
1.40001
1.40001
1.40001
1.40001
1.40001
1.40001
1.40001
1.40001
1.40001
1.40001
1.40001
1.40001
1.40001
1.40001
1.40001
1.40001
1.40001
1.40001
1.40001
1.40001
1.40001
1.40001
1.40001
1.40001
1.40001
1.40001
1.40001
1.40001
1.70486
4.56706
5.42281
5.43716
5.46166
5.48129
5.50292
5.52469
5.54531
5.56433
5.58224
5.60048
5.62021
5.64049
5.66029
5.67844
5.69486
5.70992
5.72493
5.74132
5.75911
5.77697
5.79361
5.80874
5.82292
5.8369
5.85083
5.86425
5.8766
5.88788
5.89868
5.90969
5.921
5.93196
5.94174
5.94999
5.95711
5.9639
5.97103
5.97865
5.98635
5.99336
5.99901
6.003
6.0054
6.00653
6.00698
6.00733
1.40001
1.40001
1.40001
1.40001
1.40001
1.40001
1.40001
1.40001
1.40001
1.40001
1.40001
1.40001
1.40001
1.40001
1.40001
1.40001
1.40001
1.40001
1.40001
1.40001
1.40001
1.40001
1.40001
1.40001
1.40001
1.40001
1.40001
1.40001
1.40001
1.40001
1.40001
1.40001
1.40001
1.40001
1.40001
1.40001
1.40001
1.40001
1.40001
1.40001
1.40001
1.40001
1.40001
1.40001
1.40001
1.40001
1.40001
1.40001
1.66201
4.50666
5.41761
5.4352
5.45936
5.47967
5.50143
5.5231
5.54359
5.56272
5.58084
5.59908
5.61875
5.63867
5.65826
5.67621
5.69262
5.7078
5.72302
5.73947
5.7571
5.77465
5.79098
5.80587
5.81989
5.83377
5.84765
5.86106
5.87344
5.88475
5.89557
5.90654
5.91779
5.92875
5.9386
5.94699
5.95422
5.96102
5.96805
5.97547
5.98293
5.98977
5.99533
5.99929
6.00171
6.00287
6.00334
6.00372
1.40001
1.40001
1.40001
1.40001
1.40001
1.40001
1.40001
1.40001
1.40001
1.40001
1.40001
1.40001
1.40001
1.40001
1.40001
1.40001
1.40001
1.40001
1.40001
1.40001
1.40001
1.40001
1.40001
1.40001
1.40001
1.40001
1.40001
1.40001
1.40001
1.40001
1.40001
1.40001
1.40001
1.40001
1.40001
1.40001
1.40001
1.40001
1.40001
1.40001
1.40001
1.40001
1.40001
1.40001
1.40001
1.40001
1.40001
1.40001
1.60211
4.40919
5.41342
5.43343
5.45624
5.47691
5.49874
5.52054
5.54104
5.56039
5.57874
5.597
5.61649
5.63594
5.65517
5.67287
5.6893
5.70471
5.72027
5.7368
5.75416
5.77122
5.78707
5.80159
5.81541
5.82918
5.84303
5.85642
5.8688
5.88013
5.89092
5.9018
5.91294
5.92384
5.93373
5.9422
5.94946
5.95616
5.96291
5.96994
5.97702
5.98358
5.98904
5.99305
5.99562
5.99701
5.99765
5.99823
1.40001
1.40001
1.40001
1.40001
1.40001
1.40001
1.40001
1.40001
1.40001
1.40001
1.40001
1.40001
1.40001
1.40001
1.40001
1.40001
1.40001
1.40001
1.40001
1.40001
1.40001
1.40001
1.40001
1.40001
1.40001
1.40001
1.40001
1.40001
1.40001
1.40001
1.40001
1.40001
1.40001
1.40001
1.40001
1.40001
1.40001
1.40001
1.40001
1.40001
1.40001
1.40001
1.40001
1.40001
1.40001
1.40001
1.40001
1.40001
1.52753
4.28236
5.4128
5.43213
5.45162
5.47256
5.49435
5.51646
5.53739
5.55713
5.57562
5.59364
5.61256
5.63129
5.65009
5.66766
5.68429
5.70016
5.71626
5.73301
5.75012
5.76663
5.78193
5.7961
5.80977
5.82354
5.8374
5.85077
5.8631
5.87438
5.88511
5.89594
5.90706
5.91804
5.92812
5.93679
5.94414
5.9507
5.95704
5.96345
5.96979
5.97566
5.98056
5.9842
5.98658
5.98793
5.98857
5.98924
1.40001
1.40001
1.40001
1.40001
1.40001
1.40001
1.40001
1.40001
1.40001
1.40001
1.40001
1.40001
1.40001
1.40001
1.40001
1.40001
1.40001
1.40001
1.40001
1.40001
1.40001
1.40001
1.40001
1.40001
1.40001
1.40001
1.40001
1.40001
1.40001
1.40001
1.40001
1.40001
1.40001
1.40001
1.40001
1.40001
1.40001
1.40001
1.40001
1.40001
1.40001
1.40001
1.40001
1.40001
1.40001
1.40001
1.40001
1.40001
1.4107
4.09378
5.40845
5.43016
5.44718
5.46861
5.49016
5.51276
5.53458
5.55489
5.5733
5.59053
5.60813
5.62557
5.64359
5.66094
5.67785
5.69429
5.71086
5.72765
5.74422
5.75985
5.77429
5.78787
5.80125
5.8149
5.82864
5.8418
5.85383
5.86477
5.87522
5.88581
5.89679
5.90781
5.91809
5.92706
5.93467
5.94132
5.94755
5.95366
5.95963
5.96514
5.96981
5.97338
5.97582
5.97738
5.97817
5.97905
1.40001
1.40001
1.40001
1.40001
1.40001
1.40001
1.40001
1.40001
1.40001
1.40001
1.40001
1.40001
1.40001
1.40001
1.40001
1.40001
1.40001
1.40001
1.40001
1.40001
1.40001
1.40001
1.40001
1.40001
1.40001
1.40001
1.40001
1.40001
1.40001
1.40001
1.40001
1.40001
1.40001
1.40001
1.40001
1.40001
1.40001
1.40001
1.40001
1.40001
1.40001
1.40001
1.40001
1.40001
1.40001
1.40001
1.40001
1.40001
1.40008
3.80777
5.37178
5.41085
5.42906
5.45208
5.47438
5.49789
5.52065
5.5417
5.56049
5.5777
5.5947
5.61138
5.62878
5.64596
5.66308
5.68016
5.69734
5.71446
5.73088
5.74603
5.76008
5.77359
5.78718
5.80109
5.81497
5.82805
5.83981
5.85044
5.8606
5.87102
5.88197
5.89312
5.90372
5.91308
5.92103
5.92788
5.9341
5.93997
5.94553
5.95056
5.95485
5.95823
5.96069
5.96245
5.96341
5.96451
1.40001
1.40001
1.40001
1.40001
1.40001
1.40001
1.40001
1.40001
1.40001
1.40001
1.40001
1.40001
1.40001
1.40001
1.40001
1.40001
1.40001
1.40001
1.40001
1.40001
1.40001
1.40001
1.40001
1.40001
1.40001
1.40001
1.40001
1.40001
1.40001
1.40001
1.40001
1.40001
1.40001
1.40001
1.40001
1.40001
1.40001
1.40001
1.40001
1.40001
1.40001
1.40001
1.40001
1.40001
1.40001
1.40001
1.40001
1.40001
1.40001
3.42216
5.31708
5.4035
5.42306
5.44569
5.46711
5.48985
5.51193
5.5327
5.55165
5.56912
5.58597
5.60221
5.61893
5.63558
5.65212
5.66894
5.68585
5.70258
5.71832
5.73272
5.7462
5.75948
5.773
5.78687
5.80057
5.81329
5.82458
5.83471
5.84446
5.85456
5.8653
5.87639
5.88706
5.89658
5.90469
5.91161
5.91775
5.92332
5.92838
5.9328
5.93656
5.93965
5.94205
5.94398
5.9451
5.94641
1.40001
1.40001
1.40001
1.40001
1.40001
1.40001
1.40001
1.40001
1.40001
1.40001
1.40001
1.40001
1.40001
1.40001
1.40001
1.40001
1.40001
1.40001
1.40001
1.40001
1.40001
1.40001
1.40001
1.40001
1.40001
1.40001
1.40001
1.40001
1.40001
1.40001
1.40001
1.40001
1.40001
1.40001
1.40001
1.40001
1.40001
1.40001
1.40001
1.40001
1.40001
1.40001
1.40001
1.40001
1.40001
1.40001
1.40001
1.40001
1.40001
2.95314
5.22037
5.40364
5.42042
5.44141
5.46141
5.48252
5.50306
5.52303
5.54197
5.55981
5.57682
5.59292
5.60904
5.62487
5.64024
5.65599
5.67189
5.68761
5.70236
5.71587
5.72862
5.74136
5.75441
5.76782
5.78107
5.7933
5.80409
5.81375
5.82306
5.83273
5.84307
5.85379
5.8642
5.8736
5.88173
5.88875
5.89494
5.90041
5.90515
5.90915
5.91253
5.91543
5.9179
5.9201
5.92149
5.92303
1.40001
1.40001
1.40001
1.40001
1.40001
1.40001
1.40001
1.40001
1.40001
1.40001
1.40001
1.40001
1.40001
1.40001
1.40001
1.40001
1.40001
1.40001
1.40001
1.40001
1.40001
1.40001
1.40001
1.40001
1.40001
1.40001
1.40001
1.40001
1.40001
1.40001
1.40001
1.40001
1.40001
1.40001
1.40001
1.40001
1.40001
1.40001
1.40001
1.40001
1.40001
1.40001
1.40001
1.40001
1.40001
1.40001
1.40001
1.40001
1.40001
2.42106
5.03924
5.40731
5.42515
5.44551
5.46336
5.48114
5.49853
5.51655
5.53473
5.55258
5.56976
5.58586
5.60134
5.61601
5.62974
5.64385
5.65841
5.67294
5.68658
5.69906
5.71076
5.72241
5.73422
5.74634
5.75839
5.76962
5.77957
5.78851
5.79718
5.80621
5.81584
5.82587
5.83574
5.84485
5.85296
5.86009
5.8663
5.87153
5.87575
5.87902
5.8817
5.88412
5.8864
5.88869
5.89027
5.89198
1.40001
1.40001
1.40001
1.40001
1.40001
1.40001
1.40001
1.40001
1.40001
1.40001
1.40001
1.40001
1.40001
1.40001
1.40001
1.40001
1.40001
1.40001
1.40001
1.40001
1.40001
1.40001
1.40001
1.40001
1.40001
1.40001
1.40001
1.40001
1.40001
1.40001
1.40001
1.40001
1.40001
1.40001
1.40001
1.40001
1.40001
1.40001
1.40001
1.40001
1.40001
1.40001
1.40001
1.40001
1.40001
1.40001
1.40001
1.40001
1.40001
1.88025
4.72713
5.42496
5.41623
5.4378
5.4534
5.4701
5.48676
5.50417
5.52213
5.5402
5.558
5.57486
5.59049
5.60478
5.61759
5.63023
5.64341
5.657
5.66996
5.68184
5.69264
5.70308
5.71353
5.72422
5.73495
5.74507
5.75405
5.76203
5.76956
5.77716
5.78502
5.79308
5.80102
5.80851
5.8154
5.82166
5.8272
5.83184
5.83553
5.8384
5.84086
5.84324
5.84575
5.8485
5.8506
5.85271
1.40001
1.40001
1.40001
1.40001
1.40001
1.40001
1.40001
1.40001
1.40001
1.40001
1.40001
1.40001
1.40001
1.40001
1.40001
1.40001
1.40001
1.40001
1.40001
1.40001
1.40001
1.40001
1.40001
1.40001
1.40001
1.40001
1.40001
1.40001
1.40001
1.40001
1.40001
1.40001
1.40001
1.40001
1.40001
1.40001
1.40001
1.40001
1.40001
1.40001
1.40001
1.40001
1.40001
1.40001
1.40001
1.40001
1.40001
1.40001
1.40001
1.42457
4.10028
5.41442
5.41947
5.43521
5.45078
5.46595
5.48076
5.49592
5.5119
5.52859
5.54566
5.56227
5.57734
5.59045
5.60168
5.61215
5.62337
5.63551
5.64729
5.65811
5.66779
5.67668
5.68546
5.69429
5.70341
5.71234
5.72053
5.72781
5.73448
5.74085
5.74708
5.75323
5.7593
5.76532
5.77123
5.77683
5.78173
5.78549
5.78798
5.78926
5.78975
5.78997
5.79068
5.79236
5.79408
5.79603
1.40001
1.40001
1.40001
1.40001
1.40001
1.40001
1.40001
1.40001
1.40001
1.40001
1.40001
1.40001
1.40001
1.40001
1.40001
1.40001
1.40001
1.40001
1.40001
1.40001
1.40001
1.40001
1.40001
1.40001
1.40001
1.40001
1.40001
1.40001
1.40001
1.40001
1.40001
1.40001
1.40001
1.40001
1.40001
1.40001
1.40001
1.40001
1.40001
1.40001
1.40001
1.40001
1.40001
1.40001
1.40001
1.40001
1.40001
1.40001
1.40001
1.40005
3.20604
5.25206
5.3676
5.3914
5.41384
5.43244
5.44928
5.46485
5.48015
5.4958
5.5121
5.52835
5.54338
5.55626
5.56733
5.57746
5.58787
5.59939
5.61117
5.62202
5.63165
5.63986
5.6474
5.65468
5.66236
5.67031
5.67791
5.6846
5.69031
5.69513
5.69916
5.70256
5.70556
5.7085
5.71141
5.71397
5.71573
5.71656
5.71642
5.71562
5.71504
5.71513
5.71626
5.71894
5.72166
5.7244
1.40001
1.40001
1.40001
1.40001
1.40001
1.40001
1.40001
1.40001
1.40001
1.40001
1.40001
1.40001
1.40001
1.40001
1.40001
1.40001
1.40001
1.40001
1.40001
1.40001
1.40001
1.40001
1.40001
1.40001
1.40001
1.40001
1.40001
1.40001
1.40001
1.40001
1.40001
1.40001
1.40001
1.40001
1.40001
1.40001
1.40001
1.40001
1.40001
1.40001
1.40001
1.40001
1.40001
1.40001
1.40001
1.40001
1.40001
1.40001
1.40001
1.4
2.17852
4.89805
5.37011
5.38005
5.40357
5.42058
5.4365
5.45106
5.46491
5.47857
5.49272
5.507
5.52055
5.53234
5.54236
5.5514
5.56031
5.57002
5.58049
5.59028
5.59876
5.60543
5.61065
5.61525
5.62016
5.62585
5.63173
5.63688
5.64067
5.64302
5.64396
5.64375
5.64289
5.6421
5.64143
5.64072
5.6396
5.6378
5.63519
5.6322
5.62832
5.6238
5.61804
5.61242
5.60707
5.60232
1.40001
1.40001
1.40001
1.40001
1.40001
1.40001
1.40001
1.40001
1.40001
1.40001
1.40001
1.40001
1.40001
1.40001
1.40001
1.40001
1.40001
1.40001
1.40001
1.40001
1.40001
1.40001
1.40001
1.40001
1.40001
1.40001
1.40001
1.40001
1.40001
1.40001
1.40001
1.40001
1.40001
1.40001
1.40001
1.40001
1.40001
1.40001
1.40001
1.40001
1.40001
1.40001
1.40001
1.40001
1.40001
1.40001
1.40001
1.40001
1.40001
1.40001
1.4436
3.98526
5.3857
5.39169
5.40008
5.41046
5.42163
5.43329
5.44452
5.4553
5.4662
5.4774
5.48836
5.49841
5.50685
5.51429
5.5217
5.52958
5.53838
5.54684
5.55388
5.55909
5.56222
5.56416
5.56577
5.56819
5.57156
5.57489
5.57671
5.57659
5.57425
5.56982
5.56399
5.55783
5.55111
5.54312
5.5332
5.52119
5.50734
5.49203
5.47541
5.45817
5.44372
5.43209
5.42781
5.42657
1.40001
1.40001
1.40001
1.40001
1.40001
1.40001
1.40001
1.40001
1.40001
1.40001
1.40001
1.40001
1.40001
1.40001
1.40001
1.40001
1.40001
1.40001
1.40001
1.40001
1.40001
1.40001
1.40001
1.40001
1.40001
1.40001
1.40001
1.40001
1.40001
1.40001
1.40001
1.40001
1.40001
1.40001
1.40001
1.40001
1.40001
1.40001
1.40001
1.40001
1.40001
1.40001
1.40001
1.40001
1.40001
1.40001
1.40001
1.40001
1.40001
1.40001
1.40006
2.62099
5.0633
5.35357
5.35693
5.37208
5.38593
5.40009
5.4128
5.42365
5.43325
5.44264
5.45183
5.46047
5.46802
5.47411
5.47937
5.4849
5.49127
5.49815
5.50436
5.50864
5.51021
5.50923
5.50631
5.50342
5.50226
5.5023
5.50169
5.49861
5.49193
5.48185
5.46968
5.4563
5.44135
5.42377
5.40295
5.37942
5.35459
5.3299
5.30536
5.28013
5.2467
5.20739
5.15132
5.17064
1.40001
1.40001
1.40001
1.40001
1.40001
1.40001
1.40001
1.40001
1.40001
1.40001
1.40001
1.40001
1.40001
1.40001
1.40001
1.40001
1.40001
1.40001
1.40001
1.40001
1.40001
1.40001
1.40001
1.40001
1.40001
1.40001
1.40001
1.40001
1.40001
1.40001
1.40001
1.40001
1.40001
1.40001
1.40001
1.40001
1.40001
1.40001
1.40001
1.40001
1.40001
1.40001
1.40001
1.40001
1.40001
1.40001
1.40001
1.40001
1.40001
1.40001
1.40001
1.5453
4.35566
5.38492
5.36964
5.3777
5.3855
5.3937
5.40131
5.40735
5.41228
5.41753
5.42353
5.42961
5.43512
5.43888
5.44098
5.44327
5.44666
5.45127
5.45606
5.45909
5.45958
5.45659
5.45006
5.44227
5.43583
5.4313
5.42702
5.42033
5.40943
5.39429
5.37572
5.3546
5.33058
5.30232
5.26818
5.22779
5.18041
5.12583
5.05629
4.9631
4.81755
4.58892
4.17833
3.2682
1.40001
1.40001
1.40001
1.40001
1.40001
1.40001
1.40001
1.40001
1.40001
1.40001
1.40001
1.40001
1.40001
1.40001
1.40001
1.40001
1.40001
1.40001
1.40001
1.40001
1.40001
1.40001
1.40001
1.40001
1.40001
1.40001
1.40001
1.40001
1.40001
1.40001
1.40001
1.40001
1.40001
1.40001
1.40001
1.40001
1.40001
1.40001
1.40001
1.40001
1.40001
1.40001
1.40001
1.40001
1.40001
1.40001
1.40001
1.40001
1.40001
1.40001
1.40001
1.40109
3.21445
5.2104
5.31976
5.33836
5.35023
5.36104
5.37075
5.37777
5.3827
5.38709
5.39212
5.39737
5.40248
5.4061
5.4074
5.40682
5.40603
5.40656
5.40867
5.41076
5.41139
5.4083
5.39985
5.38846
5.37715
5.36749
5.35875
5.34841
5.33418
5.31507
5.29108
5.26287
5.23008
5.19185
5.14511
5.08919
5.01999
4.93829
4.83137
4.69329
4.48829
4.21865
3.67755
2.91359
1.40001
1.40001
1.40001
1.40001
1.40001
1.40001
1.40001
1.40001
1.40001
1.40001
1.40001
1.40001
1.40001
1.40001
1.40001
1.40001
1.40001
1.40001
1.40001
1.40001
1.40001
1.40001
1.40001
1.40001
1.40001
1.40001
1.40001
1.40001
1.40001
1.40001
1.40001
1.40001
1.40001
1.40001
1.40001
1.40001
1.40001
1.40001
1.40001
1.40001
1.40001
1.40001
1.40001
1.40001
1.40001
1.40001
1.40001
1.40001
1.40001
1.40001
1.40001
1.4
1.95688
4.7486
5.33666
5.32659
5.33483
5.34539
5.35631
5.36328
5.36694
5.3689
5.37105
5.37381
5.37715
5.37987
5.38085
5.37836
5.37378
5.36964
5.367
5.3656
5.36385
5.35894
5.34879
5.33482
5.31928
5.3041
5.28957
5.2743
5.25588
5.23278
5.20361
5.16864
5.12689
5.07869
5.02025
4.95084
4.865
4.7616
4.63275
4.46606
4.25089
3.93324
3.49464
2.9761
1.40001
1.40001
1.40001
1.40001
1.40001
1.40001
1.40001
1.40001
1.40001
1.40001
1.40001
1.40001
1.40001
1.40001
1.40001
1.40001
1.40001
1.40001
1.40001
1.40001
1.40001
1.40001
1.40001
1.40001
1.40001
1.40001
1.40001
1.40001
1.40001
1.40001
1.40001
1.40001
1.40001
1.40001
1.40001
1.40001
1.40001
1.40001
1.40001
1.40001
1.40001
1.40001
1.40001
1.40001
1.40001
1.40001
1.40001
1.40001
1.40001
1.40001
1.40001
1.4
1.42365
3.56651
5.25172
5.30124
5.31392
5.3249
5.33728
5.34534
5.34943
5.35065
5.35056
5.34959
5.34886
5.34906
5.34922
5.34696
5.34146
5.33426
5.32727
5.3211
5.31506
5.30673
5.29459
5.27886
5.26036
5.24069
5.22048
5.19959
5.17597
5.14842
5.11442
5.07382
5.02487
4.96819
4.90084
4.82136
4.72527
4.60934
4.47001
4.29461
4.08128
3.79537
3.46042
3.08853
1.40001
1.40001
1.40001
1.40001
1.40001
1.40001
1.40001
1.40001
1.40001
1.40001
1.40001
1.40001
1.40001
1.40001
1.40001
1.40001
1.40001
1.40001
1.40001
1.40001
1.40001
1.40001
1.40001
1.40001
1.40001
1.40001
1.40001
1.40001
1.40001
1.40001
1.40001
1.40001
1.40001
1.40001
1.40001
1.40001
1.40001
1.40001
1.40001
1.40001
1.40001
1.40001
1.40001
1.40001
1.40001
1.40001
1.40001
1.40001
1.40001
1.40001
1.40001
1.40001
1.4
2.11801
4.83358
5.29641
5.29507
5.30471
5.3159
5.3257
5.33151
5.33335
5.3328
5.32875
5.3231
5.31962
5.31772
5.31547
5.31094
5.30324
5.29327
5.28234
5.27066
5.25705
5.24146
5.22368
5.20308
5.18044
5.15565
5.1292
5.09969
5.06657
5.02745
4.98183
4.92786
4.86538
4.79252
4.70725
4.60638
4.48648
4.34549
4.17516
3.97563
3.74115
3.47563
3.18614
1.40001
1.40001
1.40001
1.40001
1.40001
1.40001
1.40001
1.40001
1.40001
1.40001
1.40001
1.40001
1.40001
1.40001
1.40001
1.40001
1.40001
1.40001
1.40001
1.40001
1.40001
1.40001
1.40001
1.40001
1.40001
1.40001
1.40001
1.40001
1.40001
1.40001
1.40001
1.40001
1.40001
1.40001
1.40001
1.40001
1.40001
1.40001
1.40001
1.40001
1.40001
1.40001
1.40001
1.40001
1.40001
1.40001
1.40001
1.40001
1.40001
1.40001
1.40001
1.40001
1.4
1.43699
3.62365
5.22149
5.27434
5.28685
5.29518
5.30408
5.30946
5.31088
5.31135
5.30708
5.29961
5.29337
5.28866
5.2849
5.28017
5.27201
5.26006
5.24542
5.22883
5.21045
5.19101
5.17058
5.1477
5.12268
5.09456
5.06382
5.02941
4.99066
4.94603
4.89514
4.83699
4.77109
4.69576
4.60885
4.50832
4.38993
4.2552
4.09507
3.91784
3.72396
3.50119
3.27206
1.40001
1.40001
1.40001
1.40001
1.40001
1.40001
1.40001
1.40001
1.40001
1.40001
1.40001
1.40001
1.40001
1.40001
1.40001
1.40001
1.40001
1.40001
1.40001
1.40001
1.40001
1.40001
1.40001
1.40001
1.40001
1.40001
1.40001
1.40001
1.40001
1.40001
1.40001
1.40001
1.40001
1.40001
1.40001
1.40001
1.40001
1.40001
1.40001
1.40001
1.40001
1.40001
1.40001
1.40001
1.40001
1.40001
1.40001
1.40001
1.40001
1.40001
1.40001
1.40001
1.4
1.40003
2.04462
4.77495
5.26566
5.26704
5.27262
5.27707
5.27883
5.27893
5.27887
5.27345
5.26548
5.25991
5.2558
5.25238
5.24776
5.23942
5.22606
5.20809
5.18714
5.16475
5.14193
5.11918
5.09438
5.06724
5.03684
5.0033
4.96568
4.92281
4.87346
4.81773
4.75598
4.68806
4.61224
4.52637
4.42977
4.31553
4.19019
4.04438
3.88826
3.72186
3.53237
3.33977
1.40001
1.40001
1.40001
1.40001
1.40001
1.40001
1.40001
1.40001
1.40001
1.40001
1.40001
1.40001
1.40001
1.40001
1.40001
1.40001
1.40001
1.40001
1.40001
1.40001
1.40001
1.40001
1.40001
1.40001
1.40001
1.40001
1.40001
1.40001
1.40001
1.40001
1.40001
1.40001
1.40001
1.40001
1.40001
1.40001
1.40001
1.40001
1.40001
1.40001
1.40001
1.40001
1.40001
1.40001
1.40001
1.40001
1.40001
1.40001
1.40001
1.40001
1.40001
1.40001
1.40001
1.40001
1.4272
3.38209
5.12859
5.24264
5.24301
5.24815
5.25118
5.25366
5.25304
5.24688
5.238
5.23082
5.22538
5.22096
5.21534
5.20668
5.1928
5.17298
5.14931
5.12399
5.09811
5.07281
5.04589
5.01635
4.98356
4.94758
4.90775
4.86251
4.81009
4.75098
4.68641
4.61671
4.54101
4.45665
4.36465
4.25653
4.14176
4.01207
3.87209
3.72768
3.56695
3.39983
1.40001
1.40001
1.40001
1.40001
1.40001
1.40001
1.40001
1.40001
1.40001
1.40001
1.40001
1.40001
1.40001
1.40001
1.40001
1.40001
1.40001
1.40001
1.40001
1.40001
1.40001
1.40001
1.40001
1.40001
1.40001
1.40001
1.40001
1.40001
1.40001
1.40001
1.40001
1.40001
1.40001
1.40001
1.40001
1.40001
1.40001
1.40001
1.40001
1.40001
1.40001
1.40001
1.40001
1.40001
1.40001
1.40001
1.40001
1.40001
1.40001
1.40001
1.40001
1.40001
1.40001
1.40001
1.40002
1.7388
4.51893
5.2683
5.24967
5.24133
5.23255
5.22842
5.22196
5.21352
5.20468
5.19648
5.18958
5.18329
5.1759
5.1667
5.15321
5.13321
5.10921
5.08275
5.05471
5.02759
4.9993
4.96829
4.93357
4.89535
4.85379
4.80746
4.75406
4.69429
4.6293
4.55913
4.48477
4.40104
4.31246
4.21129
4.10549
3.98894
3.86398
3.73792
3.59785
3.44913
1.40001
1.40001
1.40001
1.40001
1.40001
1.40001
1.40001
1.40001
1.40001
1.40001
1.40001
1.40001
1.40001
1.40001
1.40001
1.40001
1.40001
1.40001
1.40001
1.40001
1.40001
1.40001
1.40001
1.40001
1.40001
1.40001
1.40001
1.40001
1.40001
1.40001
1.40001
1.40001
1.40001
1.40001
1.40001
1.40001
1.40001
1.40001
1.40001
1.40001
1.40001
1.40001
1.40001
1.40001
1.40001
1.40001
1.40001
1.40001
1.40001
1.40001
1.40001
1.40001
1.40001
1.40001
1.40001
1.4064
2.942
5.01315
5.20026
5.20526
5.20503
5.19895
5.18988
5.17866
5.16892
5.16066
5.15249
5.14423
5.13488
5.12434
5.11134
5.09242
5.06938
5.04352
5.01484
4.98653
4.9569
4.92474
4.88855
4.84861
4.80524
4.75741
4.70348
4.64469
4.58156
4.51245
4.44031
4.35726
4.27204
4.17663
4.07721
3.97217
3.86042
3.74615
3.62381
3.49315
1.40001
1.40001
1.40001
1.40001
1.40001
1.40001
1.40001
1.40001
1.40001
1.40001
1.40001
1.40001
1.40001
1.40001
1.40001
1.40001
1.40001
1.40001
1.40001
1.40001
1.40001
1.40001
1.40001
1.40001
1.40001
1.40001
1.40001
1.40001
1.40001
1.40001
1.40001
1.40001
1.40001
1.40001
1.40001
1.40001
1.40001
1.40001
1.40001
1.40001
1.40001
1.40001
1.40001
1.40001
1.40001
1.40001
1.40001
1.40001
1.40001
1.40001
1.40001
1.40001
1.40001
1.40001
1.40001
1.40001
1.55546
3.9722
5.18292
5.18752
5.18808
5.17751
5.16695
5.15395
5.14295
5.13422
5.12468
5.1141
5.10182
5.08779
5.07317
5.05431
5.03147
5.00589
4.97778
4.94859
4.91731
4.88384
4.84678
4.80614
4.7618
4.71228
4.65889
4.60138
4.54119
4.47417
4.4045
4.3243
4.24275
4.15202
4.05873
3.9627
3.86006
3.7536
3.64754
3.53161
1.40001
1.40001
1.40001
1.40001
1.40001
1.40001
1.40001
1.40001
1.40001
1.40001
1.40001
1.40001
1.40001
1.40001
1.40001
1.40001
1.40001
1.40001
1.40001
1.40001
1.40001
1.40001
1.40001
1.40001
1.40001
1.40001
1.40001
1.40001
1.40001
1.40001
1.40001
1.40001
1.40001
1.40001
1.40001
1.40001
1.40001
1.40001
1.40001
1.40001
1.40001
1.40001
1.40001
1.40001
1.40001
1.40001
1.40001
1.40001
1.40001
1.40001
1.40001
1.40001
1.40001
1.40001
1.40001
1.40001
1.4012
2.10368
4.75004
5.19232
5.15579
5.15384
5.14376
5.1315
5.11983
5.11028
5.10024
5.08751
5.07229
5.05439
5.03616
5.0164
4.99266
4.96668
4.93909
4.91023
4.87809
4.84412
4.80701
4.76676
4.72198
4.67175
4.62004
4.56267
4.50401
4.43978
4.37277
4.2978
4.22043
4.13577
4.04851
3.95859
3.86263
3.76487
3.67052
3.56488
1.40001
1.40001
1.40001
1.40001
1.40001
1.40001
1.40001
1.40001
1.40001
1.40001
1.40001
1.40001
1.40001
1.40001
1.40001
1.40001
1.40001
1.40001
1.40001
1.40001
1.40001
1.40001
1.40001
1.40001
1.40001
1.40001
1.40001
1.40001
1.40001
1.40001
1.40001
1.40001
1.40001
1.40001
1.40001
1.40001
1.40001
1.40001
1.40001
1.40001
1.40001
1.40001
1.40001
1.40001
1.40001
1.40001
1.40001
1.40001
1.40001
1.40001
1.40001
1.40001
1.40001
1.40001
1.40001
1.40001
1.40001
1.42933
3.08626
5.04665
5.13294
5.12748
5.12309
5.11331
5.10273
5.09226
5.0814
5.06714
5.04996
5.02918
5.0066
4.98441
4.95825
4.9303
4.9022
4.87353
4.84146
4.80777
4.77124
4.73207
4.68737
4.63754
4.58503
4.52913
4.47176
4.41042
4.34593
4.27581
4.20295
4.12484
4.04325
3.9587
3.87101
3.7807
3.69203
3.5949
1.40001
1.40001
1.40001
1.40001
1.40001
1.40001
1.40001
1.40001
1.40001
1.40001
1.40001
1.40001
1.40001
1.40001
1.40001
1.40001
1.40001
1.40001
1.40001
1.40001
1.40001
1.40001
1.40001
1.40001
1.40001
1.40001
1.40001
1.40001
1.40001
1.40001
1.40001
1.40001
1.40001
1.40001
1.40001
1.40001
1.40001
1.40001
1.40001
1.40001
1.40001
1.40001
1.40001
1.40001
1.40001
1.40001
1.40001
1.40001
1.40001
1.40001
1.40001
1.40001
1.40001
1.40001
1.40001
1.40001
1.40001
1.40007
1.57493
3.78115
5.09655
5.13091
5.11662
5.10715
5.09509
5.0813
5.06682
5.05063
5.03192
5.00944
4.98407
4.9587
4.93027
4.89967
4.86943
4.83959
4.8077
4.77428
4.73829
4.70015
4.65534
4.60706
4.5549
4.4996
4.4432
4.38417
4.32255
4.2567
4.18817
4.11611
4.03987
3.96048
3.88134
3.79655
3.71203
3.62277
1.40001
1.40001
1.40001
1.40001
1.40001
1.40001
1.40001
1.40001
1.40001
1.40001
1.40001
1.40001
1.40001
1.40001
1.40001
1.40001
1.40001
1.40001
1.40001
1.40001
1.40001
1.40001
1.40001
1.40001
1.40001
1.40001
1.40001
1.40001
1.40001
1.40001
1.40001
1.40001
1.40001
1.40001
1.40001
1.40001
1.40001
1.40001
1.40001
1.40001
1.40001
1.40001
1.40001
1.40001
1.40001
1.40001
1.40001
1.40001
1.40001
1.40001
1.40001
1.40001
1.40001
1.40001
1.40001
1.40001
1.40001
1.40001
1.4016
1.79518
4.48988
5.1692
5.1349
5.1115
5.08743
5.06663
5.04763
5.02939
5.01071
4.98805
4.96181
4.93459
4.9046
4.87258
4.84027
4.80904
4.77745
4.7444
4.70913
4.67077
4.62665
4.57975
4.52898
4.47541
4.42008
4.36321
4.30389
4.24186
4.17705
4.10996
4.03884
3.96413
3.89146
3.81169
3.73231
3.64919
1.40001
1.40001
1.40001
1.40001
1.40001
1.40001
1.40001
1.40001
1.40001
1.40001
1.40001
1.40001
1.40001
1.40001
1.40001
1.40001
1.40001
1.40001
1.40001
1.40001
1.40001
1.40001
1.40001
1.40001
1.40001
1.40001
1.40001
1.40001
1.40001
1.40001
1.40001
1.40001
1.40001
1.40001
1.40001
1.40001
1.40001
1.40001
1.40001
1.40001
1.40001
1.40001
1.40001
1.40001
1.40001
1.40001
1.40001
1.40001
1.40001
1.40001
1.40001
1.40001
1.40001
1.40001
1.40001
1.40001
1.40001
1.40001
1.40001
1.40848
2.57832
4.898
5.1018
5.07279
5.05377
5.03596
5.01984
5.0029
4.98511
4.96388
4.93891
4.91302
4.88328
4.8514
4.81852
4.78478
4.75232
4.71813
4.68316
4.64425
4.60166
4.55572
4.50677
4.4552
4.40139
4.34632
4.28882
4.2302
4.16848
4.10509
4.0385
3.96838
3.90012
3.82479
3.75043
3.67296
1.40001
1.40001
1.40001
1.40001
1.40001
1.40001
1.40001
1.40001
1.40001
1.40001
1.40001
1.40001
1.40001
1.40001
1.40001
1.40001
1.40001
1.40001
1.40001
1.40001
1.40001
1.40001
1.40001
1.40001
1.40001
1.40001
1.40001
1.40001
1.40001
1.40001
1.40001
1.40001
1.40001
1.40001
1.40001
1.40001
1.40001
1.40001
1.40001
1.40001
1.40001
1.40001
1.40001
1.40001
1.40001
1.40001
1.40001
1.40001
1.40001
1.40001
1.40001
1.40001
1.40001
1.40001
1.40001
1.40001
1.40001
1.40001
1.40001
1.40002
1.48078
3.20787
4.98306
5.03875
5.02682
5.02311
5.0125
4.99675
4.97818
4.95611
4.93058
4.90389
4.87346
4.84054
4.80659
4.77143
4.73534
4.70048
4.66417
4.62424
4.58125
4.53599
4.48838
4.43851
4.38667
4.33354
4.27812
4.22244
4.16349
4.10266
4.03995
3.97441
3.90913
3.83793
3.76786
3.69554
1.40001
1.40001
1.40001
1.40001
1.40001
1.40001
1.40001
1.40001
1.40001
1.40001
1.40001
1.40001
1.40001
1.40001
1.40001
1.40001
1.40001
1.40001
1.40001
1.40001
1.40001
1.40001
1.40001
1.40001
1.40001
1.40001
1.40001
1.40001
1.40001
1.40001
1.40001
1.40001
1.40001
1.40001
1.40001
1.40001
1.40001
1.40001
1.40001
1.40001
1.40001
1.40001
1.40001
1.40001
1.40001
1.40001
1.40001
1.40001
1.40001
1.40001
1.40001
1.40001
1.40001
1.40001
1.40001
1.40001
1.40001
1.40001
1.40001
1.40001
1.40044
1.60172
3.59556
4.98607
5.01484
5.01043
5.00211
4.98724
4.96919
4.94692
4.9219
4.89421
4.86405
4.83184
4.79791
4.76265
4.72531
4.68705
4.64977
4.60941
4.56608
4.52052
4.47358
4.42499
4.37483
4.32336
4.26978
4.21625
4.1597
4.10105
4.04195
3.98009
3.91701
3.84975
3.7835
3.71591
1.40001
1.40001
1.40001
1.40001
1.40001
1.40001
1.40001
1.40001
1.40001
1.40001
1.40001
1.40001
1.40001
1.40001
1.40001
1.40001
1.40001
1.40001
1.40001
1.40001
1.40001
1.40001
1.40001
1.40001
1.40001
1.40001
1.40001
1.40001
1.40001
1.40001
1.40001
1.40001
1.40001
1.40001
1.40001
1.40001
1.40001
1.40001
1.40001
1.40001
1.40001
1.40001
1.40001
1.40001
1.40001
1.40001
1.40001
1.40001
1.40001
1.40001
1.40001
1.40001
1.40001
1.40001
1.40001
1.40001
1.40001
1.40001
1.40001
1.40001
1.40001
1.40227
1.72483
3.91352
5.01405
5.01257
4.99607
4.9782
4.95851
4.93548
4.91101
4.88429
4.8555
4.8243
4.79105
4.75608
4.71916
4.68042
4.64158
4.60115
4.55791
4.51236
4.46529
4.41702
4.36766
4.31716
4.26461
4.21186
4.15682
4.09975
4.04373
3.9852
3.92453
3.8612
3.79831
3.73456
1.40001
1.40001
1.40001
1.40001
1.40001
1.40001
1.40001
1.40001
1.40001
1.40001
1.40001
1.40001
1.40001
1.40001
1.40001
1.40001
1.40001
1.40001
1.40001
1.40001
1.40001
1.40001
1.40001
1.40001
1.40001
1.40001
1.40001
1.40001
1.40001
1.40001
1.40001
1.40001
1.40001
1.40001
1.40001
1.40001
1.40001
1.40001
1.40001
1.40001
1.40001
1.40001
1.40001
1.40001
1.40001
1.40001
1.40001
1.40001
1.40001
1.40001
1.40001
1.40001
1.40001
1.40001
1.40001
1.40001
1.40001
1.40001
1.40001
1.40001
1.40001
1.40001
1.40575
1.86165
4.19307
5.01942
5.00393
4.98028
4.95434
4.92895
4.90162
4.8736
4.84448
4.81385
4.78157
4.74732
4.71131
4.67382
4.63528
4.59484
4.55198
4.50709
4.46062
4.41288
4.36405
4.3142
4.26235
4.20988
4.15579
4.1001
4.04659
3.99017
3.9314
3.8713
3.81109
3.75112
1.40001
1.40001
1.40001
1.40001
1.40001
1.40001
1.40001
1.40001
1.40001
1.40001
1.40001
1.40001
1.40001
1.40001
1.40001
1.40001
1.40001
1.40001
1.40001
1.40001
1.40001
1.40001
1.40001
1.40001
1.40001
1.40001
1.40001
1.40001
1.40001
1.40001
1.40001
1.40001
1.40001
1.40001
1.40001
1.40001
1.40001
1.40001
1.40001
1.40001
1.40001
1.40001
1.40001
1.40001
1.40001
1.40001
1.40001
1.40001
1.40001
1.40001
1.40001
1.40001
1.40001
1.40001
1.40001
1.40001
1.40001
1.40001
1.40001
1.40001
1.40001
1.40001
1.40002
1.41153
2.01459
4.39634
5.03023
5.00422
4.9722
4.93852
4.90658
4.87406
4.84035
4.80725
4.77349
4.73875
4.70326
4.66718
4.63001
4.59073
4.54908
4.5053
4.45981
4.41289
4.36436
4.31488
4.26366
4.21127
4.15814
4.10421
4.05246
3.99717
3.9398
3.88271
3.82564
3.76997
1.40001
1.40001
1.40001
1.40001
1.40001
1.40001
1.40001
1.40001
1.40001
1.40001
1.40001
1.40001
1.40001
1.40001
1.40001
1.40001
1.40001
1.40001
1.40001
1.40001
1.40001
1.40001
1.40001
1.40001
1.40001
1.40001
1.40001
1.40001
1.40001
1.40001
1.40001
1.40001
1.40001
1.40001
1.40001
1.40001
1.40001
1.40001
1.40001
1.40001
1.40001
1.40001
1.40001
1.40001
1.40001
1.40001
1.40001
1.40001
1.40001
1.40001
1.40001
1.40001
1.40001
1.40001
1.40001
1.40001
1.40001
1.40001
1.40001
1.40001
1.40001
1.40001
1.40001
1.40004
1.42043
2.16189
4.58106
5.02737
4.99528
4.96019
4.91958
4.88112
4.84412
4.80751
4.77045
4.73399
4.69787
4.66184
4.62508
4.58652
4.54584
4.50305
4.45864
4.41286
4.36538
4.31695
4.26681
4.21528
4.16352
4.11069
4.05999
4.00658
3.95288
3.90012
3.84895
3.8022
1.40001
1.40001
1.40001
1.40001
1.40001
1.40001
1.40001
1.40001
1.40001
1.40001
1.40001
1.40001
1.40001
1.40001
1.40001
1.40001
1.40001
1.40001
1.40001
1.40001
1.40001
1.40001
1.40001
1.40001
1.40001
1.40001
1.40001
1.40001
1.40001
1.40001
1.40001
1.40001
1.40001
1.40001
1.40001
1.40001
1.40001
1.40001
1.40001
1.40001
1.40001
1.40001
1.40001
1.40001
1.40001