/*--------------------------------*- C++ -*----------------------------------*\
  =========                 |
  \\      /  F ield         | OpenFOAM: The Open Source CFD Toolbox
   \\    /   O peration     | Website:  https://openfoam.org
    \\  /    A nd           | Version:  7
     \\/     M anipulation  |
\*---------------------------------------------------------------------------*/
FoamFile
{
    version     2.0;
    format      ascii;
    class       volScalarField;
    location    "3.13";
    object      T;
}
// * * * * * * * * * * * * * * * * * * * * * * * * * * * * * * * * * * * * * //

dimensions      [0 0 0 1 0 0 0];

internalField   nonuniform List<scalar> 
1000
(
0
0
0
0
0
0
0
0
0
0
0
0
0
0
0
0
0
0
0
0
0
0
0
0
0
0
0
0
0
0
0
0
0
0
0
0
0
0
0
0
0
0
0
0
0
0
0
0
0
0
0
0
0
0
0
0
0
0
0
0
0
0
0
0
0
0
0
0
0
0
0
0
0
0
0
0
0
0
0
0
0
0
0
0
0
0
0
0
0
0
0
0
0
0
0
0
0
0
0
0
0
0
0
0
0
0
0
0
0
0
0
0
0
0
0
0
0
0
0
0
0
0
0
0
0
0
0
0
0
0
0
0
0
0
0
0
0
-2.74574e-244
2.00256e-241
-7.25731e-239
1.74238e-236
-3.11752e-234
4.4338e-232
-5.22085e-230
5.2349e-228
-4.56248e-226
3.51096e-224
-2.41515e-222
1.49999e-220
-8.48058e-219
4.39487e-217
-2.09986e-215
9.29696e-214
-3.83083e-212
1.4747e-210
-5.32155e-209
1.80548e-207
-5.7747e-206
1.74537e-204
-4.99577e-203
1.35683e-201
-3.50285e-200
8.60985e-199
-2.01783e-197
4.51518e-196
-9.65828e-195
1.9772e-193
-3.87774e-192
7.29284e-191
-1.31639e-189
2.28241e-188
-3.804e-187
6.09846e-186
-9.41021e-185
1.39837e-183
-2.00219e-182
2.76346e-181
-3.67824e-180
4.72306e-179
-5.85249e-178
7.00014e-177
-8.08388e-176
9.01478e-175
-9.70887e-174
1.00994e-172
-1.01472e-171
9.84711e-171
-9.22884e-170
8.35211e-169
-7.29727e-168
6.15334e-167
-5.00588e-166
3.92698e-165
-2.9688e-164
2.16134e-163
-1.51386e-162
1.01902e-161
-6.58268e-161
4.07374e-160
-2.4099e-159
1.35891e-158
-7.27685e-158
3.68168e-157
-1.74718e-156
7.6917e-156
-3.08415e-155
1.08773e-154
-3.10256e-154
5.07696e-154
1.42042e-153
-1.88482e-152
1.12744e-151
-4.95223e-151
1.65716e-150
-3.58579e-150
-1.43585e-150
6.37718e-149
-3.91002e-148
1.54568e-147
-3.97499e-147
2.26284e-147
4.2478e-146
-2.83309e-145
1.06717e-144
-2.27249e-144
-1.4782e-144
3.81983e-143
-1.88815e-142
5.20057e-142
-3.41674e-142
-4.75338e-141
2.84754e-140
-8.47129e-140
7.40438e-140
6.51808e-139
-3.98959e-138
1.11731e-137
-5.78489e-138
-1.00818e-136
5.17388e-136
-1.16379e-135
-6.2803e-136
1.53363e-134
-5.78799e-134
7.72021e-134
2.9274e-133
-1.97987e-132
4.83461e-132
1.26583e-132
-5.34781e-131
1.8975e-130
-1.80765e-130
-1.18429e-129
6.02287e-129
-1.01531e-128
-2.1223e-128
1.68136e-127
-3.76e-127
-2.77904e-127
4.32307e-126
-1.15714e-125
-1.29175e-126
1.05772e-124
-3.17722e-124
6.20852e-125
2.5236e-123
-8.02916e-123
2.40359e-123
5.96129e-122
-1.89243e-121
4.53689e-122
1.39923e-120
-4.16652e-120
9.87811e-122
3.2374e-119
-8.49326e-119
-3.14077e-119
7.26374e-118
-1.56834e-117
-1.5946e-117
1.54756e-116
-2.50531e-116
-5.40783e-116
3.05541e-115
-3.06912e-115
-1.48068e-114
5.42017e-114
-1.44103e-114
-3.43737e-113
8.22224e-113
6.30331e-113
-6.82375e-112
9.508e-112
2.63586e-111
-1.13795e-110
4.67735e-111
6.46297e-110
-1.50165e-109
-1.35395e-109
1.18972e-108
-1.26538e-108
-5.16029e-108
1.66455e-107
3.29255e-108
-1.06117e-106
1.54089e-106
3.82962e-106
-1.51675e-105
1.23993e-106
8.6204e-105
-1.37276e-104
-2.89103e-104
1.20093e-103
-9.68724e-105
-6.57106e-103
9.65718e-103
2.29623e-102
-8.34991e-102
-1.42984e-102
4.67285e-101
-5.18472e-101
-1.82517e-100
4.96566e-100
3.52529e-100
-2.98734e-99
1.6649e-99
1.33277e-98
-2.33682e-98
-4.12256e-98
1.61026e-97
3.34173e-98
-8.25824e-97
6.78856e-97
3.31959e-96
-6.51603e-96
-9.58008e-96
3.98856e-95
8.26641e-96
-1.93706e-94
1.33073e-94
7.76315e-94
-1.26645e-93
-2.47178e-93
7.71272e-93
4.93484e-93
-3.80937e-92
7.13476e-93
1.61576e-91
-1.48043e-91
-5.93262e-91
1.04451e-90
1.82388e-90
-5.61674e-90
-4.06648e-90
2.59737e-89
1.06591e-90
-1.07531e-88
5.75539e-89
4.04335e-88
-4.52147e-88
-1.38034e-87
2.50721e-87
4.20548e-87
-1.18708e-86
-1.08419e-86
5.08787e-86
1.9417e-86
-2.02629e-85
9.1273e-87
7.6042e-85
-3.23097e-85
-2.71133e-84
2.14746e-84
9.23182e-84
-1.08215e-83
-3.01075e-83
4.78774e-83
9.41838e-83
-1.95483e-82
-2.82638e-82
7.54232e-82
8.12566e-82
-2.78735e-81
-2.23115e-81
9.95299e-81
5.81949e-81
-3.45499e-80
-1.42893e-80
1.17123e-79
3.25377e-80
-3.89097e-79
-6.69376e-80
1.27019e-78
1.18427e-79
-4.08299e-78
-1.62219e-79
1.29432e-77
1.36872e-79
-4.05018e-77
-2.09926e-79
1.25162e-76
2.89107e-78
-3.81934e-76
-2.44061e-77
1.15015e-75
1.46344e-76
-3.41402e-75
-7.27125e-76
9.97195e-75
3.20597e-75
-2.8595e-74
-1.29845e-74
8.02575e-74
4.92474e-74
-2.19615e-73
-1.76927e-73
5.82845e-73
6.06296e-73
-1.48935e-72
-1.98996e-72
3.62467e-72
6.26928e-72
-8.25171e-72
-1.89705e-71
1.69736e-71
5.50942e-71
-2.89664e-71
-1.53235e-70
2.84221e-71
4.06553e-70
5.99328e-71
-1.0222e-69
-5.07973e-70
2.40923e-69
2.16435e-69
-5.22037e-69
-7.40885e-69
9.99411e-69
2.22994e-68
-1.52086e-68
-6.07503e-68
1.04281e-68
1.50856e-67
4.34181e-68
-3.38949e-67
-2.62745e-67
6.71211e-67
9.44222e-67
-1.09006e-66
-2.74026e-66
1.08842e-66
6.8463e-66
1.19664e-66
-1.48459e-65
-1.0932e-65
2.70786e-65
3.98626e-65
-3.67814e-65
-1.09562e-64
1.48686e-65
2.47863e-64
1.209e-64
-4.58767e-64
-5.50953e-64
6.23915e-64
1.57716e-63
-2.7326e-64
-3.49662e-63
-1.8056e-63
6.02711e-63
7.93736e-63
-6.80071e-63
-2.11135e-62
-1.41789e-63
4.17627e-62
3.37966e-62
-5.84941e-62
-1.11844e-61
3.05013e-62
2.4486e-61
1.31933e-61
-3.75077e-61
-5.57726e-61
2.76122e-61
1.30308e-60
5.46847e-61
-2.03636e-60
-2.76046e-60
1.50702e-60
6.50804e-60
2.829e-60
-9.68956e-60
-1.38625e-59
5.5553e-60
3.06177e-59
1.77249e-59
-3.97302e-59
-6.92475e-59
7.17746e-60
1.32015e-58
1.13166e-58
-1.27765e-58
-3.26421e-58
-9.27092e-59
4.87082e-58
6.49753e-58
-2.034e-58
-1.34574e-57
-1.02173e-57
1.28869e-57
3.11332e-57
1.03729e-57
-4.26801e-57
-6.33077e-57
5.04687e-58
1.13498e-56
1.1529e-56
-6.56768e-57
-2.67741e-56
-1.88326e-56
2.38153e-56
5.85765e-56
2.71045e-56
-6.64746e-56
-1.22147e-55
-3.23818e-56
1.64034e-55
2.47806e-55
2.55372e-56
-3.7652e-55
-4.97514e-55
9.80085e-57
8.24376e-55
1.00244e-54
-9.40046e-56
-1.74511e-54
-2.04737e-54
2.25403e-55
3.59455e-54
4.25721e-54
-2.79693e-55
-7.20861e-54
-8.99622e-54
-3.03581e-55
1.40031e-53
1.91781e-53
3.38636e-54
-2.60293e-53
-4.07798e-53
-1.43055e-53
4.52122e-53
8.52918e-53
4.68564e-53
-6.98181e-53
-1.72584e-52
-1.33569e-52
8.33397e-53
3.30752e-52
3.43973e-52
-2.56624e-53
-5.81239e-52
-8.09182e-52
-2.70707e-52
8.78428e-52
1.73188e-51
1.19753e-51
-9.38203e-52
-3.30475e-51
-3.52516e-51
-1.49717e-52
5.33526e-51
8.43625e-51
4.60541e-51
-6.17306e-51
-1.68931e-50
-1.67041e-50
4.05016e-52
2.70269e-50
4.22547e-50
2.46458e-50
-2.73374e-50
-8.29313e-50
-9.06845e-50
-1.5844e-50
1.17741e-49
2.17636e-49
1.70857e-49
-6.3201e-50
-3.75513e-49
-5.23865e-49
-2.78214e-49
3.65685e-49
1.05688e-48
1.20294e-48
3.57822e-49
-1.30522e-48
-2.79791e-48
-2.71544e-48
-2.11124e-49
3.96559e-48
7.20613e-48
6.19593e-48
-7.0283e-49
-1.11343e-47
-1.84347e-47
-1.46729e-47
3.57312e-48
2.98552e-47
4.74253e-47
3.68073e-47
-1.01915e-47
-7.74685e-47
-1.23342e-46
-9.85242e-47
1.97731e-47
1.94758e-46
3.23824e-46
2.78983e-46
-1.02488e-47
-4.69703e-46
-8.51717e-46
-8.19037e-46
-1.43707e-46
1.05933e-45
2.21429e-45
2.43387e-45
9.8155e-46
-2.1045e-45
-5.57708e-45
-7.15221e-45
-4.51759e-45
3.0442e-45
1.31908e-44
2.032e-44
1.75102e-44
5.24809e-46
-2.76367e-44
-5.44015e-44
-6.03775e-44
-2.83573e-44
4.37288e-44
1.32151e-43
1.87395e-43
1.5119e-43
-1.03821e-44
-2.69564e-43
-5.16899e-43
-5.81736e-43
-3.04559e-43
3.53474e-43
1.21041e-42
1.84127e-42
1.69487e-42
3.61685e-43
-2.08058e-42
-4.80842e-42
-6.29206e-42
-4.79185e-42
7.07893e-43
9.41956e-42
1.80828e-41
2.13566e-41
1.36974e-41
-7.45851e-42
-3.82608e-41
-6.66014e-41
-7.39204e-41
-4.19048e-41
3.66929e-41
1.46697e-40
2.44708e-40
2.65638e-40
1.45702e-40
-1.4056e-40
-5.40881e-40
-9.03731e-40
-9.97867e-40
-5.88436e-40
4.35591e-40
1.91874e-39
3.34809e-39
3.89599e-39
2.65961e-39
-9.02625e-40
-6.44049e-39
-1.23046e-38
-1.55545e-38
-1.26471e-38
-8.94085e-40
1.9561e-38
4.39138e-38
6.20468e-38
6.0152e-38
2.5306e-38
-4.73508e-38
-1.46688e-37
-2.40342e-37
-2.76513e-37
-1.96574e-37
4.04804e-38
4.25747e-37
8.70634e-37
1.19556e-36
1.15484e-36
5.10144e-37
-8.49725e-37
-2.76783e-36
-4.7087e-36
-5.75035e-36
-4.75137e-36
-7.34467e-37
6.54318e-36
1.59657e-35
2.46273e-35
2.79185e-35
2.04442e-35
-2.07025e-36
-4.00577e-35
-8.72152e-35
-1.28592e-34
-1.41164e-34
-9.83614e-35
2.0713e-35
2.18085e-34
4.62656e-34
6.80218e-34
7.54923e-34
5.49516e-34
-5.11529e-35
-1.0753e-33
-2.39015e-33
-3.64267e-33
-4.24992e-33
-3.47731e-33
-6.34697e-34
4.60659e-33
1.18182e-32
1.9444e-32
2.4618e-32
2.33769e-32
1.14611e-32
-1.41948e-32
-5.33726e-32
-1.00271e-31
-1.41725e-31
-1.57009e-31
-1.20399e-31
-7.51442e-33
1.94288e-31
4.72451e-31
7.75535e-31
1.00421e-30
1.01363e-30
6.34402e-31
-2.82092e-31
-1.79299e-30
-3.77521e-30
-5.83744e-30
-7.26486e-30
-7.03993e-30
-3.98667e-30
2.92275e-30
1.40888e-29
2.8674e-29
4.3977e-29
5.49946e-29
5.44585e-29
3.36812e-29
-1.54875e-29
-9.74381e-29
-2.08466e-28
-3.31953e-28
-4.34298e-28
-4.63496e-28
-3.52766e-28
-3.17544e-29
5.52726e-28
1.40607e-27
2.44789e-27
3.47327e-27
4.12504e-27
3.89378e-27
2.1663e-27
-1.65672e-27
-7.95898e-27
-1.66222e-26
-2.66796e-26
-3.59704e-26
-4.08996e-26
-3.64548e-26
-1.66651e-26
2.43013e-26
9.02498e-26
1.80244e-25
2.85234e-25
3.84519e-25
4.42928e-25
4.10089e-25
2.23539e-25
-1.82294e-25
-8.5935e-25
-1.82028e-24
-3.0043e-24
-4.23752e-24
-5.19463e-24
-5.37331e-24
-4.09804e-24
-5.74554e-25
5.98124e-24
1.61178e-23
2.98121e-23
4.60288e-23
6.22087e-23
7.37676e-23
7.37415e-23
5.27833e-23
-2.21589e-25
-9.66024e-23
-2.45089e-22
-4.47475e-22
-6.92677e-22
-9.49429e-22
-1.15836e-21
-1.22496e-21
-1.0157e-21
-3.60932e-22
9.31232e-22
3.04465e-21
6.10313e-21
1.00922e-20
1.47523e-20
1.94474e-20
2.30182e-20
2.36438e-20
1.87493e-20
5.0154e-21
-2.14331e-20
-6.45613e-20
-1.27571e-19
-2.11548e-19
-3.13508e-19
-4.23818e-19
-5.23045e-19
-5.78467e-19
-5.40735e-19
-3.41506e-19
1.06702e-19
9.06655e-19
2.16622e-18
3.97899e-18
6.39253e-18
9.36086e-18
1.26786e-17
1.58952e-17
1.82116e-17
1.8364e-17
1.451e-17
4.13896e-18
-1.59562e-17
-4.95915e-17
-1.00915e-16
-1.73843e-16
-2.71087e-16
-3.92636e-16
-5.33533e-16
-6.80803e-16
-8.09424e-16
-8.77302e-16
-8.19362e-16
-5.41125e-16
8.75374e-17
1.23721e-15
3.1203e-15
5.98614e-15
1.01054e-14
1.57381e-14
2.30784e-14
3.21643e-14
4.27431e-14
5.40765e-14
6.46693e-14
7.19067e-14
7.15829e-14
5.73106e-14
1.98083e-14
-5.39192e-14
-1.81468e-13
-3.85905e-13
-6.96481e-13
-1.14894e-12
-1.78507e-12
-2.65097e-12
-3.79318e-12
-5.25167e-12
-7.04801e-12
-9.16669e-12
-1.15267e-11
-1.39394e-11
-1.60479e-11
-1.72408e-11
-1.65324e-11
-1.23972e-11
-2.54611e-12
1.63753e-11
4.91878e-11
1.02707e-10
1.86438e-10
3.13466e-10
5.01623e-10
7.74963e-10
1.16564e-09
1.71632e-09
2.48311e-09
3.53937e-09
4.98034e-09
6.92889e-09
9.54259e-09
1.30225e-08
1.76236e-08
2.36679e-08
3.15599e-08
4.18052e-08
5.50336e-08
7.20253e-08
9.37436e-08
1.21373e-07
1.56362e-07
2.00482e-07
2.55882e-07
3.25167e-07
4.11479e-07
5.186e-07
6.51063e-07
8.14284e-07
1.01472e-06
1.26002e-06
1.55928e-06
1.92319e-06
2.36436e-06
2.8976e-06
3.54021e-06
4.31243e-06
5.23776e-06
6.34355e-06
7.66142e-06
9.22792e-06
1.10851e-05
1.32815e-05
1.58724e-05
1.89213e-05
2.25005e-05
2.66925e-05
3.15908e-05
3.73014e-05
4.39441e-05
5.1654e-05
6.05831e-05
7.09023e-05
8.2803e-05
9.6499e-05
0.000112229
0.000130259
0.000150884
0.000174432
0.000201264
0.000231782
0.000266425
0.00030568
0.000350077
0.000400201
0.000456689
0.000520237
0.000591602
0.000671609
0.000761151
0.000861197
0.000972792
0.00109707
0.00123523
0.0013886
0.00155857
0.00174665
0.00195443
0.00218363
0.00243607
0.00271369
0.00301854
0.0033528
0.00371878
0.00411889
0.00455569
0.00503189
0.00555019
0.00611403
0.00672466
0.00739209
0.00809469
0.00892713
0.00956232
0.011196
)
;

boundaryField
{
    sides
    {
        type            zeroGradient;
    }
    empty
    {
        type            empty;
    }
}


// ************************************************************************* //
