/*--------------------------------*- C++ -*----------------------------------*\
  =========                 |
  \\      /  F ield         | OpenFOAM: The Open Source CFD Toolbox
   \\    /   O peration     | Website:  https://openfoam.org
    \\  /    A nd           | Version:  7
     \\/     M anipulation  |
\*---------------------------------------------------------------------------*/
FoamFile
{
    version     2.0;
    format      ascii;
    class       volScalarField;
    location    "8";
    object      p;
}
// * * * * * * * * * * * * * * * * * * * * * * * * * * * * * * * * * * * * * //

dimensions      [1 -1 -2 0 0 0 0];

internalField   nonuniform List<scalar> 
19968
(
1
1
1
1
1
1
1
1
1
1
1
1
1
1
1
1
1
1
1
1
1
1
1
1
1
1
1
1
1
1
1
1
1
1
1
1
1
1
1
1
1
1
1
1
1
1
1
1
1.56018
8.05505
10.4393
10.4605
10.5207
10.5771
10.6343
10.6909
10.7466
10.8008
10.8541
10.9091
10.9657
11.0212
11.0743
11.1242
11.1694
11.2103
11.2509
11.2954
11.3432
11.3905
11.4338
11.4725
11.5086
11.5453
11.5849
11.627
11.6688
11.7068
11.7394
11.7666
11.7899
11.8111
11.832
11.8539
11.8775
11.9022
11.927
11.9505
11.9715
11.9896
12.0046
12.0166
12.0262
12.0335
12.0386
12.0434
1
1
1
1
1
1
1
1
1
1
1
1
1
1
1
1
1
1
1
1
1
1
1
1
1
1
1
1
1
1
1
1
1
1
1
1
1
1
1
1
1
1
1
1
1
1
1
1
1.52601
7.98092
10.4278
10.462
10.5207
10.577
10.634
10.6901
10.7454
10.7996
10.8525
10.9068
10.9626
11.0179
11.0713
11.1209
11.1658
11.2066
11.2473
11.2918
11.3394
11.3864
11.4295
11.4681
11.5043
11.5412
11.5808
11.6229
11.6644
11.7021
11.7344
11.7617
11.7853
11.807
11.8285
11.8508
11.8743
11.8984
11.9223
11.9448
11.9651
11.9828
11.9977
12.0097
12.0191
12.0263
12.0313
12.036
1
1
1
1
1
1
1
1
1
1
1
1
1
1
1
1
1
1
1
1
1
1
1
1
1
1
1
1
1
1
1
1
1
1
1
1
1
1
1
1
1
1
1
1
1
1
1
1
1.4515
7.82553
10.4219
10.4568
10.5143
10.5702
10.627
10.6831
10.7386
10.7935
10.8462
10.9001
10.9552
11.0102
11.0639
11.1134
11.1584
11.1991
11.2398
11.284
11.3312
11.3778
11.4208
11.4596
11.4961
11.5332
11.5729
11.6147
11.6558
11.693
11.725
11.7522
11.7763
11.7989
11.8215
11.8445
11.868
11.8913
11.9139
11.9352
11.9549
11.9724
11.9874
11.9995
12.0089
12.0159
12.0206
12.0253
1
1
1
1
1
1
1
1
1
1
1
1
1
1
1
1
1
1
1
1
1
1
1
1
1
1
1
1
1
1
1
1
1
1
1
1
1
1
1
1
1
1
1
1
1
1
1
1
1.34916
7.57779
10.4099
10.4535
10.5088
10.5636
10.6197
10.6752
10.7305
10.7855
10.8377
10.8909
10.945
10.9994
11.0533
11.1028
11.1479
11.1886
11.2294
11.2732
11.3196
11.3655
11.4084
11.4474
11.4843
11.5217
11.5615
11.6031
11.6438
11.6804
11.7118
11.7388
11.7633
11.7867
11.8102
11.8337
11.8568
11.8788
11.8994
11.919
11.9375
11.9545
11.9695
11.982
11.9918
11.9992
12.0041
12.0091
1
1
1
1
1
1
1
1
1
1
1
1
1
1
1
1
1
1
1
1
1
1
1
1
1
1
1
1
1
1
1
1
1
1
1
1
1
1
1
1
1
1
1
1
1
1
1
1
1.2258
7.25422
10.3947
10.4461
10.4998
10.554
10.6095
10.6653
10.721
10.7765
10.8285
10.8807
10.9333
10.9862
11.0396
11.0887
11.1339
11.1748
11.2157
11.259
11.3046
11.35
11.3929
11.4324
11.4699
11.5076
11.5475
11.589
11.6293
11.6654
11.6964
11.7233
11.748
11.7723
11.7968
11.821
11.8438
11.8644
11.883
11.9003
11.9166
11.9319
11.9457
11.9573
11.9665
11.9736
11.9783
11.9833
1
1
1
1
1
1
1
1
1
1
1
1
1
1
1
1
1
1
1
1
1
1
1
1
1
1
1
1
1
1
1
1
1
1
1
1
1
1
1
1
1
1
1
1
1
1
1
1
1.02371
6.74341
10.3778
10.4441
10.4971
10.5519
10.606
10.6609
10.7163
10.7713
10.8227
10.8733
10.9237
10.9742
11.0259
11.0739
11.1187
11.1593
11.1998
11.242
11.2859
11.3297
11.3717
11.4109
11.4482
11.4856
11.5248
11.5655
11.6049
11.6403
11.6705
11.6968
11.7211
11.7455
11.7705
11.7955
11.8186
11.8389
11.8566
11.8725
11.8876
11.902
11.9152
11.9267
11.9362
11.944
11.9492
11.9547
1
1
1
1
1
1
1
1
1
1
1
1
1
1
1
1
1
1
1
1
1
1
1
1
1
1
1
1
1
1
1
1
1
1
1
1
1
1
1
1
1
1
1
1
1
1
1
1
1.00018
6.032
10.2839
10.394
10.4481
10.5073
10.564
10.6214
10.6784
10.734
10.7855
10.8358
10.886
10.9359
10.9877
11.0362
11.0813
11.1221
11.1627
11.2046
11.2479
11.2913
11.3333
11.373
11.4106
11.4479
11.4868
11.5271
11.5663
11.6016
11.6318
11.6578
11.6819
11.7062
11.7317
11.7575
11.7814
11.8021
11.8195
11.8346
11.8482
11.8608
11.8728
11.8837
11.8934
11.902
11.9079
11.9141
1
1
1
1
1
1
1
1
1
1
1
1
1
1
1
1
1
1
1
1
1
1
1
1
1
1
1
1
1
1
1
1
1
1
1
1
1
1
1
1
1
1
1
1
1
1
1
1
1
5.10899
10.1335
10.3607
10.4165
10.4797
10.5382
10.5969
10.6542
10.7089
10.7599
10.8091
10.8583
10.9066
10.9567
11.0043
11.0486
11.0887
11.1287
11.1699
11.2121
11.2547
11.2963
11.3358
11.373
11.4094
11.447
11.4861
11.5244
11.5593
11.589
11.6144
11.6375
11.6609
11.686
11.712
11.7366
11.7577
11.7749
11.7887
11.8004
11.8109
11.8209
11.8308
11.8405
11.85
11.8568
11.8639
1
1
1
1
1
1
1
1
1
1
1
1
1
1
1
1
1
1
1
1
1
1
1
1
1
1
1
1
1
1
1
1
1
1
1
1
1
1
1
1
1
1
1
1
1
1
1
1
1
4.04061
9.85096
10.3216
10.3778
10.4448
10.5051
10.5647
10.6218
10.6761
10.7271
10.7758
10.8245
10.8719
10.92
10.9659
11.0086
11.0478
11.0867
11.1268
11.1673
11.2078
11.2476
11.2854
11.3209
11.3553
11.3909
11.4284
11.4658
11.5003
11.5298
11.5545
11.5765
11.5985
11.6224
11.6482
11.6734
11.6954
11.7127
11.7259
11.7363
11.7449
11.7533
11.7624
11.7723
11.783
11.7913
11.7996
1
1
1
1
1
1
1
1
1
1
1
1
1
1
1
1
1
1
1
1
1
1
1
1
1
1
1
1
1
1
1
1
1
1
1
1
1
1
1
1
1
1
1
1
1
1
1
1
1
2.9035
9.32166
10.3003
10.3611
10.4283
10.4862
10.5425
10.5961
10.6478
10.697
10.744
10.7907
10.8367
10.8824
10.9264
10.9673
11.0058
11.044
11.0829
11.1215
11.1593
11.1961
11.2307
11.263
11.2939
11.3259
11.3603
11.3955
11.4283
11.4565
11.4798
11.5001
11.5203
11.5429
11.5683
11.5942
11.617
11.6347
11.647
11.6555
11.6616
11.6674
11.6746
11.6838
11.6949
11.7043
11.7134
1
1
1
1
1
1
1
1
1
1
1
1
1
1
1
1
1
1
1
1
1
1
1
1
1
1
1
1
1
1
1
1
1
1
1
1
1
1
1
1
1
1
1
1
1
1
1
1
1
1.84547
8.38659
10.337
10.3299
10.398
10.4465
10.4999
10.5523
10.6039
10.6538
10.7013
10.7466
10.7913
10.8353
10.8785
10.9193
10.9585
10.9963
11.0339
11.0708
11.1063
11.1405
11.1719
11.201
11.2285
11.2572
11.2884
11.3207
11.3508
11.3759
11.3957
11.4119
11.4277
11.446
11.4676
11.4908
11.5118
11.5278
11.5386
11.5454
11.55
11.5547
11.5613
11.5707
11.5826
11.5933
11.6034
1
1
1
1
1
1
1
1
1
1
1
1
1
1
1
1
1
1
1
1
1
1
1
1
1
1
1
1
1
1
1
1
1
1
1
1
1
1
1
1
1
1
1
1
1
1
1
1
1
1.03304
6.71862
10.3504
10.3623
10.4028
10.4433
10.4875
10.5324
10.5772
10.6212
10.6638
10.7038
10.7444
10.7848
10.8239
10.8611
10.8976
10.9329
10.9672
11.001
11.0325
11.0628
11.0904
11.1155
11.1394
11.1645
11.1925
11.2223
11.2502
11.2729
11.2898
11.3028
11.3152
11.3299
11.3482
11.3691
11.3887
11.4032
11.4117
11.4154
11.4157
11.4148
11.4151
11.419
11.4267
11.4346
11.443
1
1
1
1
1
1
1
1
1
1
1
1
1
1
1
1
1
1
1
1
1
1
1
1
1
1
1
1
1
1
1
1
1
1
1
1
1
1
1
1
1
1
1
1
1
1
1
1
1
1.00006
4.61838
9.92555
10.2054
10.2671
10.328
10.3802
10.4298
10.4774
10.5226
10.5661
10.6066
10.6452
10.6838
10.7215
10.7576
10.7937
10.8287
10.8615
10.8935
10.9229
10.9509
10.9768
11
11.0217
11.0439
11.0692
11.0967
11.1226
11.1429
11.1567
11.1657
11.1727
11.1804
11.1909
11.2039
11.2155
11.2216
11.2227
11.2197
11.2148
11.2113
11.2112
11.2154
11.2231
11.23
11.2374
1
1
1
1
1
1
1
1
1
1
1
1
1
1
1
1
1
1
1
1
1
1
1
1
1
1
1
1
1
1
1
1
1
1
1
1
1
1
1
1
1
1
1
1
1
1
1
1
1
1
2.41035
8.80752
10.1481
10.1915
10.2715
10.3251
10.373
10.4178
10.4608
10.5029
10.543
10.5797
10.615
10.6492
10.6816
10.7135
10.7448
10.773
10.7999
10.8249
10.8479
10.8695
10.8883
10.9047
10.9203
10.9384
10.9593
10.98
10.9959
11.0052
11.0089
11.0077
11.0058
11.0067
11.0103
11.0136
11.0135
11.0088
10.9995
10.9883
10.9757
10.9629
10.9464
10.9269
10.9054
10.8869
1
1
1
1
1
1
1
1
1
1
1
1
1
1
1
1
1
1
1
1
1
1
1
1
1
1
1
1
1
1
1
1
1
1
1
1
1
1
1
1
1
1
1
1
1
1
1
1
1
1
1.06018
6.42427
10.2156
10.2291
10.2427
10.2759
10.3109
10.3478
10.3844
10.4206
10.4561
10.4891
10.5201
10.5501
10.5775
10.6034
10.6288
10.652
10.6734
10.6939
10.7125
10.7299
10.7452
10.7569
10.7653
10.7735
10.7848
10.7976
10.8081
10.8134
10.8109
10.7998
10.7856
10.7722
10.7596
10.7447
10.7236
10.6936
10.6542
10.6082
10.5594
10.5114
10.4715
10.436
10.4177
10.4082
1
1
1
1
1
1
1
1
1
1
1
1
1
1
1
1
1
1
1
1
1
1
1
1
1
1
1
1
1
1
1
1
1
1
1
1
1
1
1
1
1
1
1
1
1
1
1
1
1
1
1.00009
3.33068
9.2594
10.0314
10.0774
10.1396
10.1863
10.23
10.2706
10.3091
10.3455
10.3798
10.4105
10.4375
10.4615
10.483
10.5032
10.5208
10.5353
10.5483
10.5609
10.5733
10.5864
10.5959
10.5971
10.5947
10.592
10.591
10.5908
10.5872
10.5745
10.5518
10.5226
10.4901
10.4551
10.4158
10.3691
10.3126
10.246
10.1735
10.0993
10.0276
9.94604
9.86734
9.7524
9.84205
1
1
1
1
1
1
1
1
1
1
1
1
1
1
1
1
1
1
1
1
1
1
1
1
1
1
1
1
1
1
1
1
1
1
1
1
1
1
1
1
1
1
1
1
1
1
1
1
1
1
1
1.23296
7.25834
10.1217
10.0839
10.1016
10.1369
10.1733
10.2089
10.241
10.2687
10.2943
10.318
10.339
10.3581
10.3746
10.3886
10.3995
10.4065
10.4112
10.4161
10.4221
10.4307
10.4377
10.4356
10.4253
10.4109
10.3954
10.3804
10.3638
10.3395
10.3051
10.2612
10.2094
10.1502
10.0826
10.0028
9.90594
9.7842
9.63405
9.43982
9.18997
8.82224
8.27718
7.35396
5.4737
1
1
1
1
1
1
1
1
1
1
1
1
1
1
1
1
1
1
1
1
1
1
1
1
1
1
1
1
1
1
1
1
1
1
1
1
1
1
1
1
1
1
1
1
1
1
1
1
1
1
1
1.00197
4.61277
9.66736
9.92205
9.96122
10.0105
10.0501
10.0883
10.1242
10.1549
10.1826
10.2074
10.2283
10.2454
10.2602
10.2734
10.2843
10.2911
10.2914
10.2886
10.2853
10.2853
10.2877
10.2843
10.2707
10.2494
10.2229
10.1941
10.1635
10.1272
10.0816
10.0247
9.95649
9.87583
9.78223
9.66941
9.53396
9.35956
9.14349
8.85592
8.4976
7.99237
7.34351
6.13602
4.50836
1
1
1
1
1
1
1
1
1
1
1
1
1
1
1
1
1
1
1
1
1
1
1
1
1
1
1
1
1
1
1
1
1
1
1
1
1
1
1
1
1
1
1
1
1
1
1
1
1
1
1
0.999996
1.92012
8.19689
9.92277
9.91445
9.95822
9.98931
10.0198
10.051
10.0772
10.1002
10.1204
10.1376
10.151
10.1616
10.1706
10.1785
10.183
10.1807
10.1721
10.16
10.1489
10.1418
10.132
10.1131
10.0847
10.0481
10.006
9.96087
9.91062
9.85212
9.78081
9.69682
9.596
9.47837
9.33546
9.16526
8.95148
8.68715
8.35225
7.92844
7.39735
6.6505
5.62567
4.56016
1
1
1
1
1
1
1
1
1
1
1
1
1
1
1
1
1
1
1
1
1
1
1
1
1
1
1
1
1
1
1
1
1
1
1
1
1
1
1
1
1
1
1
1
1
1
1
1
1
1
1
0.999999
1.03057
5.34658
9.76848
9.85712
9.89181
9.91656
9.94169
9.96858
9.99069
10.0097
10.0266
10.0428
10.0544
10.0607
10.0622
10.0623
10.0607
10.0552
10.0442
10.028
10.0105
9.99518
9.97702
9.95076
9.91432
9.86779
9.81412
9.75706
9.69401
9.62274
9.53674
9.4372
9.31898
9.18179
9.01754
8.82249
8.58615
8.29758
7.94711
7.51026
6.98026
6.31034
5.54162
4.71229
1
1
1
1
1
1
1
1
1
1
1
1
1
1
1
1
1
1
1
1
1
1
1
1
1
1
1
1
1
1
1
1
1
1
1
1
1
1
1
1
1
1
1
1
1
1
1
1
1
1
1
1
1
2.1922
8.42844
9.80867
9.81683
9.84613
9.86895
9.8918
9.90894
9.92235
9.93334
9.94622
9.95646
9.96131
9.95993
9.95357
9.94336
9.93079
9.91563
9.8967
9.87641
9.855
9.82816
9.7932
9.74741
9.69134
9.62763
9.56092
9.48744
9.40458
9.30558
9.19123
9.05834
8.90604
8.72861
8.52074
8.27536
7.98294
7.64049
7.22066
6.73503
6.18223
5.57977
4.91188
1
1
1
1
1
1
1
1
1
1
1
1
1
1
1
1
1
1
1
1
1
1
1
1
1
1
1
1
1
1
1
1
1
1
1
1
1
1
1
1
1
1
1
1
1
1
1
1
1
1
1
1
0.999999
1.04662
5.48929
9.68054
9.7511
9.77305
9.79169
9.81193
9.82639
9.8362
9.84079
9.8488
9.85502
9.85912
9.85803
9.84846
9.83058
9.81039
9.78891
9.76558
9.74223
9.71519
9.6814
9.63902
9.5843
9.51945
9.44676
9.3714
9.29003
9.19907
9.09202
8.96691
8.82226
8.65788
8.47152
8.25882
8.01525
7.73079
7.40905
7.02836
6.60271
6.14313
5.65052
5.10601
1
1
1
1
1
1
1
1
1
1
1
1
1
1
1
1
1
1
1
1
1
1
1
1
1
1
1
1
1
1
1
1
1
1
1
1
1
1
1
1
1
1
1
1
1
1
1
1
1
1
1
1
1
1.00004
2.07744
8.26561
9.68297
9.69328
9.71057
9.72601
9.73554
9.73823
9.73588
9.73689
9.7346
9.73421
9.73454
9.72711
9.70959
9.68942
9.66594
9.63917
9.6101
9.57442
9.53218
9.4826
9.42166
9.35191
9.27396
9.19116
9.10266
9.00586
8.89563
8.76708
8.61715
8.44626
8.25519
8.04175
7.80599
7.53169
7.23727
6.89628
6.52908
6.13712
5.72493
5.2688
1
1
1
1
1
1
1
1
1
1
1
1
1
1
1
1
1
1
1
1
1
1
1
1
1
1
1
1
1
1
1
1
1
1
1
1
1
1
1
1
1
1
1
1
1
1
1
1
1
1
1
1
1
1
1.03583
4.95065
9.37615
9.60365
9.62052
9.64114
9.65504
9.65979
9.65689
9.65086
9.64107
9.6334
9.62778
9.61646
9.59703
9.57555
9.5508
9.52191
9.48654
9.44304
9.39126
9.33336
9.26713
9.19491
9.11446
9.02563
8.92939
8.82613
8.71378
8.58619
8.43697
8.2659
8.07616
7.86457
7.6368
7.37688
7.10395
6.8032
6.48311
6.14026
5.78916
5.39817
1
1
1
1
1
1
1
1
1
1
1
1
1
1
1
1
1
1
1
1
1
1
1
1
1
1
1
1
1
1
1
1
1
1
1
1
1
1
1
1
1
1
1
1
1
1
1
1
1
1
1
1
1
1
1.00003
1.55008
7.61291
9.62949
9.59045
9.58203
9.57705
9.57288
9.56544
9.55176
9.53466
9.52075
9.51
9.49713
9.47771
9.45603
9.43062
9.39954
9.35941
9.30959
9.25019
9.18523
9.11455
9.0418
8.96221
8.87164
8.77019
8.66098
8.54579
8.41986
8.27515
8.1103
7.92992
7.72368
7.50605
7.26266
7.00771
6.74116
6.45537
6.14415
5.83647
5.50538
1
1
1
1
1
1
1
1
1
1
1
1
1
1
1
1
1
1
1
1
1
1
1
1
1
1
1
1
1
1
1
1
1
1
1
1
1
1
1
1
1
1
1
1
1
1
1
1
1
1
1
1
1
1
1
1.00898
3.92008
8.96319
9.40792
9.44352
9.47123
9.47149
9.47039
9.45488
9.4324
9.41055
9.39243
9.37583
9.35618
9.33489
9.30927
9.27755
9.23378
9.17971
9.11743
9.04954
8.97504
8.90028
8.82098
8.7311
8.628
8.51543
8.39639
8.2687
8.12757
7.96907
7.79951
7.60377
7.40086
7.17706
6.94316
6.70132
6.43757
6.15412
5.88181
5.59253
1
1
1
1
1
1
1
1
1
1
1
1
1
1
1
1
1
1
1
1
1
1
1
1
1
1
1
1
1
1
1
1
1
1
1
1
1
1
1
1
1
1
1
1
1
1
1
1
1
1
1
1
1
1
1
1
1.22652
6.26296
9.33913
9.38384
9.39179
9.38231
9.3823
9.37047
9.34749
9.32033
9.29533
9.27231
9.24919
9.22457
9.19449
9.16092
9.1144
9.05719
8.99504
8.92705
8.85002
8.77173
8.68941
8.59834
8.49658
8.3859
8.26592
8.13596
7.99814
7.84205
7.68011
7.49849
7.31234
7.11065
6.89727
6.67048
6.4284
6.17957
5.92578
5.66551
1
1
1
1
1
1
1
1
1
1
1
1
1
1
1
1
1
1
1
1
1
1
1
1
1
1
1
1
1
1
1
1
1
1
1
1
1
1
1
1
1
1
1
1
1
1
1
1
1
1
1
1
1
1
1
1
1.00157
2.17865
8.00448
9.31605
9.25436
9.26544
9.26875
9.26648
9.25258
9.22881
9.20177
9.17351
9.14505
9.11539
9.07934
9.04186
8.99478
8.93682
8.87511
8.8091
8.73266
8.65241
8.56568
8.47108
8.37284
8.26435
8.15088
8.01984
7.8821
7.72929
7.5732
7.40407
7.23284
7.05073
6.8535
6.64356
6.42715
6.20342
5.96278
5.7313
1
1
1
1
1
1
1
1
1
1
1
1
1
1
1
1
1
1
1
1
1
1
1
1
1
1
1
1
1
1
1
1
1
1
1
1
1
1
1
1
1
1
1
1
1
1
1
1
1
1
1
1
1
1
1
1
1
1.03944
4.1728
8.89047
9.15776
9.17037
9.18394
9.17892
9.16579
9.14289
9.11554
9.08545
9.05334
9.01862
8.97719
8.93219
8.8862
8.82758
8.76606
8.70115
8.62791
8.54664
8.45614
8.36017
8.26421
8.15772
8.0418
7.91537
7.78125
7.63603
7.48609
7.32634
7.16608
6.99498
6.81042
6.61974
6.42157
6.21616
5.99704
5.7923
1
1
1
1
1
1
1
1
1
1
1
1
1
1
1
1
1
1
1
1
1
1
1
1
1
1
1
1
1
1
1
1
1
1
1
1
1
1
1
1
1
1
1
1
1
1
1
1
1
1
1
1
1
1
1
1
1
1.00008
1.25739
5.72248
9.01332
9.16449
9.13983
9.12741
9.10668
9.07618
9.04223
9.00754
8.97106
8.93176
8.88592
8.8356
8.78801
8.73053
8.66719
8.60126
8.52998
8.44903
8.35742
8.26323
8.16716
8.05866
7.94328
7.82026
7.6903
7.55329
7.41093
7.26124
7.10978
6.94633
6.77384
6.59785
6.41117
6.22342
6.02895
5.84175
1
1
1
1
1
1
1
1
1
1
1
1
1
1
1
1
1
1
1
1
1
1
1
1
1
1
1
1
1
1
1
1
1
1
1
1
1
1
1
1
1
1
1
1
1
1
1
1
1
1
1
1
1
1
1
1
1
1
1.00208
1.62145
7.27154
9.16579
9.10078
9.06773
9.02448
8.98544
8.94868
8.913
8.87764
8.83969
8.79275
8.7418
8.69269
8.63534
8.57092
8.50261
8.43228
8.35515
8.26781
8.17723
8.0811
7.97372
7.85815
7.73784
7.61221
7.48204
7.34708
7.2069
7.06314
6.90815
6.74668
6.58121
6.40603
6.23306
6.05787
5.88278
1
1
1
1
1
1
1
1
1
1
1
1
1
1
1
1
1
1
1
1
1
1
1
1
1
1
1
1
1
1
1
1
1
1
1
1
1
1
1
1
1
1
1
1
1
1
1
1
1
1
1
1
1
1
1
1
1
1
1
1.0111
3.05717
8.31868
8.95893
8.89806
8.87068
8.84721
8.82606
8.80116
8.77135
8.73862
8.6957
8.64898
8.60135
8.54452
8.48115
8.41228
8.33923
8.26287
8.18159
8.09441
7.99963
7.8966
7.78432
7.66686
7.54513
7.41955
7.29057
7.15829
7.02108
6.87509
6.72492
6.56966
6.40587
6.24449
6.08245
5.91703
1
1
1
1
1
1
1
1
1
1
1
1
1
1
1
1
1
1
1
1
1
1
1
1
1
1
1
1
1
1
1
1
1
1
1
1
1
1
1
1
1
1
1
1
1
1
1
1
1
1
1
1
1
1
1
1
1
1
1
1.00001
1.11045
4.374
8.60674
8.79679
8.7727
8.77334
8.76032
8.73763
8.70716
8.67288
8.62929
8.58287
8.53143
8.47152
8.40554
8.33535
8.26023
8.18056
8.10135
8.01748
7.92569
7.82544
7.71826
7.60543
7.48872
7.36827
7.24514
7.11914
6.98741
6.84915
6.70814
6.56176
6.40928
6.25753
6.10451
5.94691
1
1
1
1
1
1
1
1
1
1
1
1
1
1
1
1
1
1
1
1
1
1
1
1
1
1
1
1
1
1
1
1
1
1
1
1
1
1
1
1
1
1
1
1
1
1
1
1
1
1
1
1
1
1
1
1
1
1
1
1
1.00052
1.296
5.20406
8.59586
8.72086
8.72061
8.71006
8.68426
8.65179
8.61346
8.56738
8.51696
8.46084
8.39933
8.33279
8.26213
8.18755
8.10696
8.02376
7.94226
7.85415
7.75725
7.65489
7.54833
7.43809
7.32407
7.20711
7.08634
6.95976
6.82829
6.69356
6.55393
6.41119
6.26714
6.12049
5.96995
1
1
1
1
1
1
1
1
1
1
1
1
1
1
1
1
1
1
1
1
1
1
1
1
1
1
1
1
1
1
1
1
1
1
1
1
1
1
1
1
1
1
1
1
1
1
1
1
1
1
1
1
1
1
1
1
1
1
1
1
1
1.00285
1.49403
5.88396
8.59243
8.69469
8.66416
8.63328
8.59738
8.55481
8.50787
8.45653
8.39921
8.33636
8.26938
8.19805
8.12303
8.04355
7.96002
7.87658
7.79067
7.69787
7.59993
7.49853
7.39395
7.28616
7.1749
7.05851
6.93643
6.80985
6.67862
6.54436
6.40979
6.27292
6.13194
5.98902
1
1
1
1
1
1
1
1
1
1
1
1
1
1
1
1
1
1
1
1
1
1
1
1
1
1
1
1
1
1
1
1
1
1
1
1
1
1
1
1
1
1
1
1
1
1
1
1
1
1
1
1
1
1
1
1
1
1
1
1
1
1
1.0073
1.72288
6.46015
8.56725
8.61491
8.58374
8.54113
8.49716
8.44785
8.39451
8.33574
8.27314
8.20699
8.13615
8.06127
7.98282
7.90132
7.81815
7.73263
7.64279
7.549
7.45193
7.35165
7.24859
7.1415
7.02856
6.91064
6.78821
6.66098
6.53231
6.40467
6.27525
6.14173
6.0093
1
1
1
1
1
1
1
1
1
1
1
1
1
1
1
1
1
1
1
1
1
1
1
1
1
1
1
1
1
1
1
1
1
1
1
1
1
1
1
1
1
1
1
1
1
1
1
1
1
1
1
1
1
1
1
1
1
1
1
1
1
1
1.00001
1.01477
1.98404
6.89473
8.53862
8.54554
8.50505
8.45231
8.39994
8.34219
8.27893
8.21497
8.14827
8.07794
8.00441
7.92812
7.84982
7.76945
7.68601
7.59834
7.50695
7.41229
7.31405
7.21319
7.1081
6.9973
6.88336
6.76498
6.64325
6.52107
6.40251
6.28476
6.16436
6.05134
1
1
1
1
1
1
1
1
1
1
1
1
1
1
1
1
1
1
1
1
1
1
1
1
1
1
1
1
1
1
1
1
1
1
1
1
1
1
1
1
1
1
1
1
1
1
1
1
1
1
1
1
1
1
1
1
1
1
1
1
1
1
1
1.00004
1.02647
2.24265
7.28502
8.50101
8.45751
8.40786
8.34411
8.28319
8.21988
8.15557
8.08834
8.01986
7.94902
7.87579
7.80063
7.7229
7.64167
7.55588
7.46648
7.37379
7.27727
7.17812
7.07446
6.96572
6.85564
6.74248
6.63078
6.52068
6.41905
6.32826
6.24201
6.17613
1
1
1
1
1
1
1
1
1
1
1
1
1
1
1
1
1
1
1
1
1
1
1
1
1
1
1
1
1
1
1
1
1
1
1
1
1
1
1
1
1
1
1
1
1
1
1
1
1
1
1
1
1
1
1
1
1
1
1
1
1
1
1
1
1.00008
1.04156
2.64492
7.52603
8.38546
8.32997
8.28609
8.22502
8.16121
8.0979
8.03445
7.97001
7.90287
7.8327
7.75955
7.68301
7.60264
7.51747
7.42868
7.33659
7.24138
7.14361
7.04062
6.9363
6.83409
6.73394
6.64427
6.56878
6.51628
6.48186
6.47686
6.49413
1
1
1
1
1
1
1
1
1
1
1
1
1
1
1
1
1
1
1
1
1
1
1
1
1
1
1
1
1
1
1
1
1
1
1
1
1
1
1
1
1
1
1
1
1
1
1
1
1
1
1
1
1
1
1
1
1
1
1
1
1
1
1
1
1
1.00015
1.0716
2.93748
7.57414
8.26781
8.2151
8.15956
8.10516
8.04862
7.99053
7.92921
7.86439
7.79608
7.72428
7.64884
7.56897
7.4845
7.39644
7.30413
7.20829
7.11163
7.01382
6.9228
6.84422
6.78871
6.76325
6.76266
6.8088
6.85612
6.92038
6.94801
1
1
1
1
1
1
1
1
1
1
1
1
1
1
1
1
1
1
1
1
1
1
1
1
1
1
1
1
1
1
1
1
1
1
1
1
1
1
1
1
1
1
1
1
1
1
1
1
1
1
1
1
1
1
1
1
1
1
1
1
1
1
1
1
1
1
1.00034
1.10021
3.03522
7.49906
8.15757
8.10774
8.05951
8.00876
7.9547
7.89596
7.83243
7.76418
7.69163
7.6154
7.53392
7.44755
7.3583
7.26616
7.17784
7.09203
7.02261
6.98593
6.97827
7.02097
7.10299
7.20348
7.29467
7.32726
7.35594
7.30778
1
1
1
1
1
1
1
1
1
1
1
1
1
1
1
1
1
1
1
1
1
1
1
1
1
1
1
1
1
1
1
1
1
1
1
1
1
1
1
1
1
1
1
1
1
1
1
1
1
1
1
1
1
1
1
1
1
1
1
1
1
1
1
1
1
1
1
1.00058
1.11294
2.97618
7.36953
8.0734
8.02942
7.98184
7.92518
7.86451
7.80048
7.73183
7.65957
7.58107
7.49785
7.41107
7.32827
7.24556
7.18705
7.1625
7.17833
7.25724
7.37836
7.52881
7.63925
7.70632
7.71425
7.66906
7.61027
7.51361
1
1
1
1
1
1
1
1
1
1
1
1
1
1
1
1
1
1
1
1
1
1
1
1
1
1
1
1
1
1
1
1
1
1
1
1
1
1
1
1
1
1
1
1
1
1
1
1
1
1
1
1
1
1
1
1
1
1
1
1
1
1
1
1
1
1
1
1
1.00072
1.10833
2.89167
7.19197
7.98336
7.9483
7.89039
7.83037
7.76525
7.69524
7.62185
7.54278
7.46089
7.38351
7.32879
7.31279
7.35293
7.46424
7.63111
7.82649
7.97664
8.05719
8.06078
8.02395
7.95336
7.85775
7.75142
7.6445
1
1
1
1
1
1
1
1
1
1
1
1
1
1
1
1
1
1
1
1
1
1
1
1
1
1
1
1
1
1
1
1
1
1
1
1
1
1
1
1
1
1
1
1
1
1
1
1
1
1
1
1
1
1
1
1
1
1
1
1
1
1
1
1
1
1
1
1
1
1.00068
1.0996
2.75947
6.94837
7.88489
7.8586
7.79569
7.73211
7.65852
7.58442
7.50885
7.44821
7.43299
7.48319
7.6303
7.85183
8.09336
8.28746
8.38232
8.40694
8.36198
8.27547
8.18462
8.09349
7.98817
7.87378
7.776
1
1
1
1
1
1
1
1
1
1
1
1
1
1
1
1
1
1
1
1
1
1
1
1
1
1
1
1
1
1
1
1
1
1
1
1
1
1
1
1
1
1
1
1
1
1
1
1
1
1
1
1
1
1
1
1
1
1
1
1
1
1
1
1
1
1
1
1
1
1
1.00061
1.08624
2.56891
6.62869
7.76934
7.77649
7.69347
7.61633
7.55116
7.5248
7.57557
7.74939
8.02791
8.33954
8.58069
8.70589
8.73392
8.67479
8.60116
8.51426
8.40541
8.29753
8.20383
8.11083
8.01199
7.9264
1
1
1
1
1
1
1
1
1
1
1
1
1
1
1
1
1
1
1
1
1
1
1
1
1
1
1
1
1
1
1
1
1
1
1
1
1
1
1
1
1
1
1
1
1
1
1
1
1
1
1
1
1
1
1
1
1
1
1
1
1
1
1
1
1
1
1
1
1
1
1
1.00049
1.06871
2.33857
6.19654
7.61873
7.62034
7.60594
7.64416
7.82956
8.16531
8.55842
8.84313
8.97932
9.04185
9.00689
8.91568
8.80268
8.71327
8.62668
8.52387
8.41795
8.32988
8.2578
8.1762
8.08986
1
1
1
1
1
1
1
1
1
1
1
1
1
1
1
1
1
1
1
1
1
1
1
1
1
1
1
1
1
1
1
1
1
1
1
1
1
1
1
1
1
1
1
1
1
1
1
1
1
1
1
1
1
1
1
1
1
1
1
1
1
1
1
1
1
1
1
1
1
1
1
1
1.00036
1.05036
2.08019
5.57711
7.46825
7.89996
8.17033
8.70605
9.13058
9.34021
9.36898
9.29291
9.22222
9.12612
9.00186
8.88885
8.81063
8.73812
8.64499
8.54672
8.4733
8.41851
8.34051
8.24756
1
1
1
1
1
1
1
1
1
1
1
1
1
1
1
1
1
1
1
1
1
1
1
1
1
1
1
1
1
1
1
1
1
1
1
1
1
1
1
1
1
1
1
1
1
1
1
1
1
1
1
1
1
1
1
1
1
1
1
1
1
1
1
1
1
1
1
1
1
1
1
1
1
1.00022
1.0335
1.78156
5.16902
8.54282
9.34254
9.63486
9.70529
9.6449
9.5339
9.41538
9.32149
9.21616
9.10323
9.01342
8.95031
8.88184
8.78599
8.68903
8.6272
8.57669
8.48905
8.39056
1
1
1
1
1
1
1
1
1
1
1
1
1
1
1
1
1
1
1
1
1
1
1
1
1
1
1
1
1
1
1
1
1
1
1
1
1
1
1
1
1
1
1
1
1
1
1
1
1
1
1
1
1
1
1
1
1
1
1
1
1
1
1
1
1
1
1
1
1
1
1
1
1
1
1.00013
1.01877
1.66973
8.14531
10.5018
10.1065
9.92319
9.75834
9.61784
9.49207
9.38774
9.2869
9.19171
9.1202
9.07383
9.01808
8.9346
8.85359
8.7973
8.73668
8.63276
8.53786
1
1
1
1
1
1
1
1
1
1
1
1
1
1
1
1
1
1
1
1
1
1
1
1
1
1
1
1
1
1
1
1
1
1
1
1
1
1
1
1
1
1
1
1
1
1
1
1
1
1
1
1
1
1
1
1
1
1
1
1
1
1
1
1
1
1
1
1
1
1
1
1
1
1
1
1.00007
1.01279
6.01338
10.1715
9.88096
9.77032
9.66605
9.58326
9.5079
9.44945
9.40196
9.34874
9.29707
9.24878
9.18105
9.0895
9.00514
8.94391
8.86859
8.766
8.68999
1
1
1
1
1
1
1
1
1
1
1
1
1
1
1
1
1
1
1
1
1
1
1
1
1
1
1
1
1
1
1
1
1
1
1
1
1
1
1
1
1
1
1
1
1
1
1
1
1
1
1
1
1
1
1
1
1
1
1
1
1
1
1
1
1
1
1
1
1
1
1
1
1
1
1
1
1
2.97523
9.03104
9.90322
9.83968
9.81738
9.77184
9.72388
9.66999
9.61241
9.55341
9.48915
9.41521
9.32704
9.22958
9.14
9.07143
8.99366
8.90595
8.83599
1
1
1
1
1
1
1
1
1
1
1
1
1
1
1
1
1
1
1
1
1
1
1
1
1
1
1
1
1
1
1
1
1
1
1
1
1
1
1
1
1
1
1
1
1
1
1
1
1
1
1
1
1
1
1
1
1
1
1
1
1
1
1
1
1
1
1
1
1
1
1
1
1
1
1
1
1
1.12385
7.19233
10.0452
9.99893
9.94512
9.87394
9.81192
9.74737
9.67885
9.60465
9.5292
9.45039
9.37155
9.29729
9.23155
9.17668
9.11939
9.05604
8.9897
1
1
1
1
1
1
1
1
1
1
1
1
1
1
1
1
1
1
1
1
1
1
1
1
1
1
1
1
1
1
1
1
1
1
1
1
1
1
1
1
1
1
1
1
1
1
1
1
1
1
1
1
1
1
1
1
1
1
1
1
1
1
1
1
1
1
1
1
1
1
1
1
1
1
1
1
1
1.00042
4.43346
9.58342
9.91342
9.88251
9.86013
9.82302
9.77844
9.73074
9.68057
9.62757
9.56845
9.50907
9.45111
9.39581
9.33909
9.27304
9.20091
9.12949
1
1
1
1
1
1
1
1
1
1
1
1
1
1
1
1
1
1
1
1
1
1
1
1
1
1
1
1
1
1
1
1
1
1
1
1
1
1
1
1
1
1
1
1
1
1
1
1
1
1
1
1
1
1
1
1
1
1
1
1
1
1
1
1
1
1
1
1
1
1
1
1
1
1
1
1
1
0.999999
2.01988
8.44896
10.0402
9.97059
9.93095
9.89188
9.84942
9.80048
9.74988
9.69927
9.64783
9.59589
9.54436
9.48859
9.4263
9.35773
9.2875
9.22178
1
1
1
1
1
1
1
1
1
1
1
1
1
1
1
1
1
1
1
1
1
1
1
1
1
1
1
1
1
1
1
1
1
1
1
1
1
1
1
1
1
1
1
1
1
1
1
1
1
1
1
1
1
1
1
1
1
1
1
1
1
1
1
1
1
1
1
1
1
1
1
1
1
1
1
1
1
1
1.03785
6.2581
10.0147
10.0494
9.97981
9.93183
9.88511
9.84051
9.79381
9.74381
9.693
9.64085
9.58687
9.53238
9.47557
9.4187
9.36166
9.30683
1
1
1
1
1
1
1
1
1
1
1
1
1
1
1
1
1
1
1
1
1
1
1
1
1
1
1
1
1
1
1
1
1
1
1
1
1
1
1
1
1
1
1
1
1
1
1
1
1
1
1
1
1
1
1
1
1
1
1
1
1
1
1
1
1
1
1
1
1
1
1
1
1
1
1
1
1
1
1.00002
3.70307
9.41274
10.0165
9.96487
9.94
9.90373
9.86374
9.82055
9.7758
9.72874
9.68073
9.62909
9.57772
9.52554
9.47411
9.42146
9.36836
1
1
1
1
1
1
1
1
1
1
1
1
1
1
1
1
1
1
1
1
1
1
1
1
1
1
1
1
1
1
1
1
1
1
1
1
1
1
1
1
1
1
1
1
1
1
1
1
1
1
1
1
1
1
1
1
1
1
1
1
1
1
1
1
1
1
1
1
1
1
1
1
1
1
1
1
1
1
1
1.77139
8.25211
10.1566
10.0559
10.0027
9.95244
9.90565
9.85925
9.81279
9.7657
9.71982
9.67424
9.62942
9.58389
9.53749
9.48918
9.4377
1
1
1
1
1
1
1
1
1
1
1
1
1
1
1
1
1
1
1
1
1
1
1
1
1
1
1
1
1
1
1
1
1
1
1
1
1
1
1
1
1
1
1
1
1
1
1
1
1
1
1
1
1
1
1
1
1
1
1
1
1
1
1
1
1
1
1
1
1
1
1
1
1
1
1
1
1
1
1
1.02305
6.33743
10.1004
10.1123
10.0521
10.003
9.95194
9.90159
9.852
9.80389
9.75771
9.7123
9.66701
9.62121
9.57386
9.52542
9.47505
1
1
1
1
1
1
1
1
1
1
1
1
1
1
1
1
1
1
1
1
1
1
1
1
1
1
1
1
1
1
1
1
1
1
1
1
1
1
1
1
1
1
1
1
1
1
1
1
1
1
1
1
1
1
1
1
1
1
1
1
1
1
1
1
1
1
1
1
1
1
1
1
1
1
1
1
1
1
1
1
4.1808
9.61365
10.0375
9.99792
9.98044
9.94673
9.90697
9.8658
9.82417
9.78121
9.73783
9.69344
9.649
9.60268
9.55525
9.50618
1
1
1
1
1
1
1
1
1
1
1
1
1
1
1
1
1
1
1
1
1
1
1
1
1
1
1
1
1
1
1
1
1
1
1
1
1
1
1
1
1
1
1
1
1
1
1
1
1
1
1
1
1
1
1
1
1
1
1
1
1
1
1
1
1
1
1
1
1
1
1
1
1
1
1
1
1
1
1
0.999999
2.34101
8.67421
10.2113
10.1311
10.0835
10.0332
9.98298
9.93637
9.89101
9.84433
9.79783
9.75094
9.70492
9.65814
9.61064
9.5616
1
1
1
1
1
1
1
1
1
1
1
1
1
1
1
1
1
1
1
1
1
1
1
1
1
1
1
1
1
1
1
1
1
1
1
1
1
1
1
1
1
1
1
1
1
1
1
1
1
1
1
1
1
1
1
1
1
1
1
1
1
1
1
1
1
1
1
1
1
1
1
1
1
1
1
1
1
1
1
1
1.15075
7.24204
10.2757
10.173
10.0972
10.0433
10.0008
9.96079
9.91901
9.87485
9.83014
9.78447
9.73921
9.69374
9.64721
9.59934
1
1
1
1
1
1
1
1
1
1
1
1
1
1
1
1
1
1
1
1
1
1
1
1
1
1
1
1
1
1
1
1
1
1
1
1
1
1
1
1
1
1
1
1
1
1
1
1
1
1
1
1
1
1
1
1
1
1
1
1
1
1
1
1
1
1
1
1
1
1
1
1
1
1
1
1
1
1
1
1
1.00081
5.58486
10.0614
10.1536
10.1124
10.0811
10.0416
9.99972
9.95589
9.91093
9.86622
9.82062
9.77505
9.72934
9.68253
9.63493
1
1
1
1
1
1
1
1
1
1
1
1
1
1
1
1
1
1
1
1
1
1
1
1
1
1
1
1
1
1
1
1
1
1
1
1
1
1
1
1
1
1
1
1
1
1
1
1
1
1
1
1
1
1
1
1
1
1
1
1
1
1
1
1
1
1
1
1
1
1
1
1
1
1
1
1
1
1
1
1
0.999999
3.9175
9.61597
10.1616
10.1175
10.0938
10.0572
10.0187
9.9778
9.9355
9.89292
9.84928
9.80492
9.7601
9.71384
9.66689
1
1
1
1
1
1
1
1
1
1
1
1
1
1
1
1
1
1
1
1
1
1
1
1
1
1
1
1
1
1
1
1
1
1
1
1
1
1
1
1
1
1
1
1
1
1
1
1
1
1
1
1
1
1
1
1
1
1
1
1
1
1
1
1
1
1
1
1
1
1
1
1
1
1
1
1
1
1
1
1
1
2.50017
8.90561
10.2776
10.2002
10.1626
10.1173
10.0729
10.0276
9.98274
9.93764
9.89261
9.84731
9.80166
9.75535
9.70861
1
1
1
1
1
1
1
1
1
1
1
1
1
1
1
1
1
1
1
1
1
1
1
1
1
1
1
1
1
1
1
1
1
1
1
1
1
1
1
1
1
1
1
1
1
1
1
1
1
1
1
1
1
1
1
1
1
1
1
1
1
1
1
1
1
1
1
1
1
1
1
1
1
1
1
1
1
1
1
1
1
1.47696
7.87163
10.34
10.239
10.1857
10.1386
10.0942
10.05
10.0061
9.96176
9.91774
9.8734
9.82855
9.78329
9.73745
1
1
1
1
1
1
1
1
1
1
1
1
1
1
1
1
1
1
1
1
1
1
1
1
1
1
1
1
1
1
1
1
1
1
1
1
1
1
1
1
1
1
1
1
1
1
1
1
1
1
1
1
1
1
1
1
1
1
1
1
1
1
1
1
1
1
1
1
1
1
1
1
1
1
1
1
1
1
1
1
1
1.01168
6.70949
10.3155
10.2751
10.2124
10.1633
10.1158
10.0704
10.0263
9.98232
9.93896
9.8953
9.85104
9.80675
9.76175
1
1
1
1
1
1
1
1
1
1
1
1
1
1
1
1
1
1
1
1
1
1
1
1
1
1
1
1
1
1
1
1
1
1
1
1
1
1
1
1
1
1
1
1
1
1
1
1
1
1
1
1
1
1
1
1
1
1
1
1
1
1
1
1
1
1
1
1
1
1
1
1
1
1
1
1
1
1
1
1
1
1.00001
5.45915
10.116
10.2467
10.1942
10.1617
10.1229
10.0836
10.0435
10.0025
9.9608
9.91801
9.87446
9.83086
9.78641
1
1
1
1
1
1
1
1
1
1
1
1
1
1
1
1
1
1
1
1
1
1
1
1
1
1
1
1
1
1
1
1
1
1
1
1
1
1
1
1
1
1
1
1
1
1
1
1
1
1
1
1
1
1
1
1
1
1
1
1
1
1
1
1
1
1
1
1
1
1
1
1
1
1
1
1
1
1
1
1
1
1
4.26743
9.82332
10.2686
10.2119
10.1839
10.1468
10.1093
10.0701
10.0297
9.98789
9.94505
9.90133
9.8574
9.81294
1
1
1
1
1
1
1
1
1
1
1
1
1
1
1
1
1
1
1
1
1
1
1
1
1
1
1
1
1
1
1
1
1
1
1
1
1
1
1
1
1
1
1
1
1
1
1
1
1
1
1
1
1
1
1
1
1
1
1
1
1
1
1
1
1
1
1
1
1
1
1
1
1
1
1
1
1
1
1
1
1
1
3.24084
9.46396
10.302
10.2333
10.2031
10.1642
10.1255
10.085
10.0434
10.0006
9.9574
9.91321
9.86862
9.824
1
1
1
1
1
1
1
1
1
1
1
1
1
1
1
1
1
1
1
1
1
1
1
1
1
1
1
1
1
1
1
1
1
1
1
1
1
1
1
1
1
1
1
1
1
1
1
1
1
1
1
1
1
1
1
1
1
1
1
1
1
1
1
1
1
1
1
1
1
1
1
1
1
1
1
1
1
1
1
1
1
1
2.39658
8.99911
10.3353
10.2579
10.2242
10.1848
10.1466
10.1071
10.067
10.0256
9.9837
9.94075
9.89706
9.85315
1
1
1
1
1
1
1
1
1
1
1
1
1
1
1
1
1
1
1
1
1
1
1
1
1
1
1
1
1
1
1
1
1
1
1
1
1
1
1
1
1
1
1
1
1
1
1
1
1
1
1
1
1
1
1
1
1
1
1
1
1
1
1
1
1
1
1
1
1
1
1
1
1
1
1
1
1
1
1
1
1
1
1.78941
8.39533
10.3706
10.2864
10.2446
10.2019
10.1613
10.1206
10.0797
10.0384
9.99681
9.9543
9.91109
9.86769
1
1
1
1
1
1
1
1
1
1
1
1
1
1
1
1
1
1
1
1
1
1
1
1
1
1
1
1
1
1
1
1
1
1
1
1
1
1
1
1
1
1
1
1
1
1
1
1
1
1
1
1
1
1
1
1
1
1
1
1
1
1
1
1
1
1
1
1
1
1
1
1
1
1
1
1
1
1
1
1
1
1
1.42058
7.75863
10.3797
10.3099
10.265
10.2218
10.18
10.1384
10.0965
10.0546
10.0123
9.96915
9.9256
9.88191
1
1
1
1
1
1
1
1
1
1
1
1
1
1
1
1
1
1
1
1
1
1
1
1
1
1
1
1
1
1
1
1
1
1
1
1
1
1
1
1
1
1
1
1
1
1
1
1
1
1
1
1
1
1
1
1
1
1
1
1
1
1
1
1
1
1
1
1
1
1
1
1
1
1
1
1
1
1
1
1
1
1
1.16217
7.11714
10.3509
10.318
10.2699
10.2295
10.1879
10.147
10.1056
10.0645
10.0227
9.98025
9.93737
9.89411
1
1
1
1
1
1
1
1
1
1
1
1
1
1
1
1
1
1
1
1
1
1
1
1
1
1
1
1
1
1
1
1
1
1
1
1
1
1
1
1
1
1
1
1
1
1
1
1
1
1
1
1
1
1
1
1
1
1
1
1
1
1
1
1
1
1
1
1
1
1
1
1
1
1
1
1
1
1
1
1
1
1
1.00327
6.57145
10.3074
10.3308
10.2727
10.2373
10.1962
10.156
10.1144
10.0729
10.0303
9.98732
9.94381
9.89997
1
1
1
1
1
1
1
1
1
1
1
1
1
1
1
1
1
1
1
1
1
1
1
1
1
1
1
1
1
1
1
1
1
1
1
1
1
1
1
1
1
1
1
1
1
1
1
1
1
1
1
1
1
1
1
1
1
1
1
1
1
1
1
1
1
1
1
1
1
1
1
1
1
1
1
1
1
1
1
1
1
1
1.00001
5.97311
10.2518
10.333
10.2739
10.2414
10.2017
10.1629
10.1224
10.0819
10.0403
9.9985
9.95608
9.91332
1
1
1
1
1
1
1
1
1
1
1
1
1
1
1
1
1
1
1
1
1
1
1
1
1
1
1
1
1
1
1
1
1
1
1
1
1
1
1
1
1
1
1
1
1
1
1
1
1
1
1
1
1
1
1
1
1
1
1
1
1
1
1
1
1
1
1
1
1
1
1
1
1
1
1
1
1
1
1
1
1
1
1
5.46369
10.1973
10.3446
10.2826
10.2495
10.2097
10.1711
10.1306
10.09
10.0483
10.0067
9.96423
9.92138
1
1
1
1
1
1
1
1
1
1
1
1
1
1
1
1
1
1
1
1
1
1
1
1
1
1
1
1
1
1
1
1
1
1
1
1
1
1
1
1
1
1
1
1
1
1
1
1
1
1
1
1
1
1
1
1
1
1
1
1
1
1
1
1
1
1
1
1
1
1
1
1
1
1
1
1
1
1
1
1
1
1
1
5.06467
10.1368
10.3564
10.2909
10.2565
10.216
10.1769
10.1364
10.0959
10.0542
10.0127
9.97054
9.92786
1
1
1
1
1
1
1
1
1
1
1
1
1
1
1
1
1
1
1
1
1
1
1
1
1
1
1
1
1
1
1
1
1
1
1
1
1
1
1
1
1
1
1
1
1
1
1
1
1
1
1
1
1
1
1
1
1
1
1
1
1
1
1
1
1
1
1
1
1
1
1
1
1
1
1
1
1
1
1
1
1
1
1
4.77232
10.0805
10.3663
10.2979
10.2624
10.2214
10.1818
10.1415
10.1011
10.0594
10.018
9.97611
9.93357
1
1
1
1
1
1
1
1
1
1
1
1
1
1
1
1
1
1
1
1
1
1
1
1
1
1
1
1
1
1
1
1
1
1
1
1
1
1
1
1
1
1
1
1
1
1
1
1
1
1
1
1
1
1
1
1
1
1
1
1
1
1
1
1
1
1
1
1
1
1
1
1
1
1
1
1
1
1
1
1
1
1
1
4.58055
10.0358
10.3713
10.3012
10.2649
10.2237
10.1839
10.144
10.1038
10.0624
10.0209
9.97933
9.93701
1