/*--------------------------------*- C++ -*----------------------------------*\
  =========                 |
  \\      /  F ield         | OpenFOAM: The Open Source CFD Toolbox
   \\    /   O peration     | Website:  https://openfoam.org
    \\  /    A nd           | Version:  7
     \\/     M anipulation  |
\*---------------------------------------------------------------------------*/
FoamFile
{
    version     2.0;
    format      ascii;
    class       volScalarField;
    location    "8";
    object      rho;
}
// * * * * * * * * * * * * * * * * * * * * * * * * * * * * * * * * * * * * * //

dimensions      [1 -3 0 0 0 0 0];

internalField   nonuniform List<scalar> 
19968
(
1.40001
1.40001
1.40001
1.40001
1.40001
1.40001
1.40001
1.40001
1.40001
1.40001
1.40001
1.40001
1.40001
1.40001
1.40001
1.40001
1.40001
1.40001
1.40001
1.40001
1.40001
1.40001
1.40001
1.40001
1.40001
1.40001
1.40001
1.40001
1.40001
1.40001
1.40001
1.40001
1.40001
1.40001
1.40001
1.40001
1.40001
1.40001
1.40001
1.40001
1.40001
1.40001
1.40001
1.40001
1.40001
1.40001
1.40001
1.40001
1.71405
4.59084
5.42636
5.4346
5.45854
5.48211
5.5058
5.52799
5.54788
5.56545
5.58203
5.60013
5.6208
5.64292
5.66489
5.68502
5.70179
5.71529
5.72797
5.74263
5.75987
5.77811
5.79523
5.81013
5.82323
5.83586
5.84936
5.8641
5.87916
5.89318
5.90523
5.9152
5.92359
5.9311
5.93847
5.94623
5.95458
5.9634
5.97228
5.98074
5.98835
5.99488
6.00023
6.00451
6.00788
6.01043
6.01227
6.01395
1.40001
1.40001
1.40001
1.40001
1.40001
1.40001
1.40001
1.40001
1.40001
1.40001
1.40001
1.40001
1.40001
1.40001
1.40001
1.40001
1.40001
1.40001
1.40001
1.40001
1.40001
1.40001
1.40001
1.40001
1.40001
1.40001
1.40001
1.40001
1.40001
1.40001
1.40001
1.40001
1.40001
1.40001
1.40001
1.40001
1.40001
1.40001
1.40001
1.40001
1.40001
1.40001
1.40001
1.40001
1.40001
1.40001
1.40001
1.40001
1.69507
4.56153
5.42154
5.43544
5.45908
5.48254
5.50588
5.5276
5.54719
5.56479
5.58136
5.5994
5.6199
5.64198
5.66395
5.68389
5.70049
5.71389
5.72661
5.74131
5.7585
5.77665
5.79369
5.80858
5.8217
5.83437
5.84791
5.86262
5.87759
5.89148
5.90345
5.91343
5.92193
5.92964
5.93723
5.94511
5.95343
5.96204
5.97059
5.97871
5.98607
5.99247
5.99778
6.00204
6.00537
6.00789
6.00966
6.01134
1.40001
1.40001
1.40001
1.40001
1.40001
1.40001
1.40001
1.40001
1.40001
1.40001
1.40001
1.40001
1.40001
1.40001
1.40001
1.40001
1.40001
1.40001
1.40001
1.40001
1.40001
1.40001
1.40001
1.40001
1.40001
1.40001
1.40001
1.40001
1.40001
1.40001
1.40001
1.40001
1.40001
1.40001
1.40001
1.40001
1.40001
1.40001
1.40001
1.40001
1.40001
1.40001
1.40001
1.40001
1.40001
1.40001
1.40001
1.40001
1.65472
4.50422
5.41987
5.43479
5.45807
5.48074
5.50321
5.52433
5.54381
5.56182
5.57882
5.59725
5.61786
5.63986
5.66176
5.68134
5.69766
5.71093
5.72373
5.73848
5.75561
5.77364
5.79062
5.80554
5.81873
5.83149
5.84507
5.85972
5.87454
5.88823
5.90003
5.91
5.91867
5.92672
5.93469
5.94284
5.95116
5.95949
5.96759
5.9753
5.98243
5.98877
5.99412
5.99842
6.00173
6.00419
6.00588
6.00752
1.40001
1.40001
1.40001
1.40001
1.40001
1.40001
1.40001
1.40001
1.40001
1.40001
1.40001
1.40001
1.40001
1.40001
1.40001
1.40001
1.40001
1.40001
1.40001
1.40001
1.40001
1.40001
1.40001
1.40001
1.40001
1.40001
1.40001
1.40001
1.40001
1.40001
1.40001
1.40001
1.40001
1.40001
1.40001
1.40001
1.40001
1.40001
1.40001
1.40001
1.40001
1.40001
1.40001
1.40001
1.40001
1.40001
1.40001
1.40001
1.59845
4.41154
5.41706
5.43575
5.45767
5.47863
5.49954
5.51977
5.53909
5.55776
5.57548
5.59441
5.61505
5.63676
5.65837
5.67746
5.69351
5.70674
5.71973
5.73452
5.75148
5.76923
5.78606
5.801
5.81434
5.82727
5.84094
5.85554
5.87017
5.88361
5.89521
5.90511
5.91392
5.92227
5.93059
5.93894
5.94713
5.95498
5.96242
5.96949
5.9762
5.98238
5.98776
5.99219
5.99564
5.99825
6
6.00177
1.40001
1.40001
1.40001
1.40001
1.40001
1.40001
1.40001
1.40001
1.40001
1.40001
1.40001
1.40001
1.40001
1.40001
1.40001
1.40001
1.40001
1.40001
1.40001
1.40001
1.40001
1.40001
1.40001
1.40001
1.40001
1.40001
1.40001
1.40001
1.40001
1.40001
1.40001
1.40001
1.40001
1.40001
1.40001
1.40001
1.40001
1.40001
1.40001
1.40001
1.40001
1.40001
1.40001
1.40001
1.40001
1.40001
1.40001
1.40001
1.5297
4.2905
5.41425
5.43465
5.45485
5.47447
5.49419
5.51388
5.53357
5.55326
5.57189
5.59117
5.61143
5.6323
5.65319
5.67167
5.68759
5.70107
5.71448
5.72939
5.74611
5.7635
5.78012
5.79513
5.80873
5.82195
5.83581
5.85042
5.8649
5.8781
5.8895
5.89933
5.90826
5.91694
5.92565
5.93426
5.94238
5.94977
5.95648
5.96275
5.96872
5.97429
5.97924
5.98337
5.98662
5.98915
5.99081
5.9926
1.40001
1.40001
1.40001
1.40001
1.40001
1.40001
1.40001
1.40001
1.40001
1.40001
1.40001
1.40001
1.40001
1.40001
1.40001
1.40001
1.40001
1.40001
1.40001
1.40001
1.40001
1.40001
1.40001
1.40001
1.40001
1.40001
1.40001
1.40001
1.40001
1.40001
1.40001
1.40001
1.40001
1.40001
1.40001
1.40001
1.40001
1.40001
1.40001
1.40001
1.40001
1.40001
1.40001
1.40001
1.40001
1.40001
1.40001
1.40001
1.41503
4.09998
5.41146
5.43443
5.45308
5.47228
5.491
5.51012
5.52987
5.55008
5.56945
5.5889
5.60836
5.62771
5.64715
5.6647
5.68053
5.69446
5.70838
5.7233
5.7394
5.75592
5.77187
5.78661
5.80024
5.81356
5.82741
5.84185
5.85601
5.86885
5.87991
5.8895
5.89834
5.90712
5.91609
5.92498
5.93323
5.94051
5.94691
5.95277
5.95831
5.96354
5.96831
5.97244
5.97583
5.9786
5.98043
5.98239
1.40001
1.40001
1.40001
1.40001
1.40001
1.40001
1.40001
1.40001
1.40001
1.40001
1.40001
1.40001
1.40001
1.40001
1.40001
1.40001
1.40001
1.40001
1.40001
1.40001
1.40001
1.40001
1.40001
1.40001
1.40001
1.40001
1.40001
1.40001
1.40001
1.40001
1.40001
1.40001
1.40001
1.40001
1.40001
1.40001
1.40001
1.40001
1.40001
1.40001
1.40001
1.40001
1.40001
1.40001
1.40001
1.40001
1.40001
1.40001
1.40014
3.81009
5.37479
5.4156
5.43475
5.4556
5.47529
5.49537
5.51591
5.53664
5.55657
5.57617
5.59529
5.61377
5.63249
5.64982
5.66594
5.68053
5.6951
5.71025
5.72601
5.74195
5.75746
5.77211
5.78592
5.79949
5.81349
5.82793
5.84201
5.85474
5.86568
5.87518
5.88397
5.8928
5.90199
5.91122
5.91979
5.92722
5.93355
5.93907
5.94411
5.94877
5.95312
5.95707
5.96054
5.96361
5.96569
5.96791
1.40001
1.40001
1.40001
1.40001
1.40001
1.40001
1.40001
1.40001
1.40001
1.40001
1.40001
1.40001
1.40001
1.40001
1.40001
1.40001
1.40001
1.40001
1.40001
1.40001
1.40001
1.40001
1.40001
1.40001
1.40001
1.40001
1.40001
1.40001
1.40001
1.40001
1.40001
1.40001
1.40001
1.40001
1.40001
1.40001
1.40001
1.40001
1.40001
1.40001
1.40001
1.40001
1.40001
1.40001
1.40001
1.40001
1.40001
1.40001
1.40001
3.41971
5.31623
5.40451
5.42519
5.44802
5.4687
5.48946
5.51019
5.53056
5.54988
5.56849
5.58671
5.60413
5.62196
5.6389
5.65483
5.66944
5.684
5.6989
5.714
5.72913
5.74398
5.75825
5.77189
5.78527
5.799
5.8131
5.82686
5.83931
5.85001
5.85924
5.86773
5.87629
5.88537
5.89472
5.90354
5.91115
5.91739
5.92252
5.9269
5.9308
5.9345
5.93811
5.94161
5.94501
5.94746
5.95
1.40001
1.40001
1.40001
1.40001
1.40001
1.40001
1.40001
1.40001
1.40001
1.40001
1.40001
1.40001
1.40001
1.40001
1.40001
1.40001
1.40001
1.40001
1.40001
1.40001
1.40001
1.40001
1.40001
1.40001
1.40001
1.40001
1.40001
1.40001
1.40001
1.40001
1.40001
1.40001
1.40001
1.40001
1.40001
1.40001
1.40001
1.40001
1.40001
1.40001
1.40001
1.40001
1.40001
1.40001
1.40001
1.40001
1.40001
1.40001
1.40001
2.94918
5.22098
5.39752
5.41723
5.4412
5.46252
5.48368
5.50418
5.5239
5.54244
5.55997
5.57728
5.59396
5.61092
5.6273
5.64269
5.65693
5.67099
5.68524
5.69932
5.71327
5.72705
5.74039
5.75325
5.76589
5.77893
5.79246
5.80582
5.81803
5.82853
5.83747
5.84555
5.85363
5.86236
5.87166
5.88071
5.8886
5.89492
5.89984
5.90375
5.90703
5.91019
5.91353
5.91715
5.921
5.92399
5.92698
1.40001
1.40001
1.40001
1.40001
1.40001
1.40001
1.40001
1.40001
1.40001
1.40001
1.40001
1.40001
1.40001
1.40001
1.40001
1.40001
1.40001
1.40001
1.40001
1.40001
1.40001
1.40001
1.40001
1.40001
1.40001
1.40001
1.40001
1.40001
1.40001
1.40001
1.40001
1.40001
1.40001
1.40001
1.40001
1.40001
1.40001
1.40001
1.40001
1.40001
1.40001
1.40001
1.40001
1.40001
1.40001
1.40001
1.40001
1.40001
1.40001
2.41185
5.04751
5.39917
5.41958
5.44324
5.46372
5.48365
5.50246
5.52044
5.53741
5.5534
5.56921
5.58495
5.60091
5.61654
5.63124
5.64505
5.6585
5.67195
5.68498
5.69764
5.71007
5.72201
5.73347
5.74459
5.75617
5.76846
5.78088
5.79239
5.80229
5.81061
5.818
5.82541
5.83364
5.8428
5.85209
5.86029
5.8667
5.87131
5.87456
5.87696
5.87924
5.88195
5.88535
5.88935
5.89274
5.89604
1.40001
1.40001
1.40001
1.40001
1.40001
1.40001
1.40001
1.40001
1.40001
1.40001
1.40001
1.40001
1.40001
1.40001
1.40001
1.40001
1.40001
1.40001
1.40001
1.40001
1.40001
1.40001
1.40001
1.40001
1.40001
1.40001
1.40001
1.40001
1.40001
1.40001
1.40001
1.40001
1.40001
1.40001
1.40001
1.40001
1.40001
1.40001
1.40001
1.40001
1.40001
1.40001
1.40001
1.40001
1.40001
1.40001
1.40001
1.40001
1.40001
1.87917
4.73652
5.41782
5.41239
5.43605
5.45318
5.4723
5.49088
5.50893
5.52613
5.54224
5.55739
5.57253
5.58776
5.60306
5.61763
5.63149
5.64456
5.65725
5.66947
5.68114
5.69252
5.70313
5.71312
5.72269
5.7327
5.74357
5.75476
5.76514
5.7738
5.78069
5.78647
5.79218
5.79876
5.80652
5.81478
5.82227
5.82807
5.83208
5.83475
5.83665
5.83856
5.84108
5.84456
5.84888
5.8527
5.85632
1.40001
1.40001
1.40001
1.40001
1.40001
1.40001
1.40001
1.40001
1.40001
1.40001
1.40001
1.40001
1.40001
1.40001
1.40001
1.40001
1.40001
1.40001
1.40001
1.40001
1.40001
1.40001
1.40001
1.40001
1.40001
1.40001
1.40001
1.40001
1.40001
1.40001
1.40001
1.40001
1.40001
1.40001
1.40001
1.40001
1.40001
1.40001
1.40001
1.40001
1.40001
1.40001
1.40001
1.40001
1.40001
1.40001
1.40001
1.40001
1.40001
1.42438
4.09638
5.41165
5.41841
5.43513
5.45049
5.46675
5.48339
5.50008
5.51627
5.5315
5.54534
5.55924
5.57322
5.58701
5.60021
5.61301
5.62501
5.63637
5.64744
5.65772
5.6677
5.6768
5.68508
5.69292
5.70119
5.71058
5.72065
5.73009
5.73773
5.7434
5.74779
5.75204
5.75711
5.76353
5.77086
5.77777
5.78295
5.78611
5.78766
5.78801
5.78793
5.78818
5.78968
5.7925
5.79538
5.79838
1.40001
1.40001
1.40001
1.40001
1.40001
1.40001
1.40001
1.40001
1.40001
1.40001
1.40001
1.40001
1.40001
1.40001
1.40001
1.40001
1.40001
1.40001
1.40001
1.40001
1.40001
1.40001
1.40001
1.40001
1.40001
1.40001
1.40001
1.40001
1.40001
1.40001
1.40001
1.40001
1.40001
1.40001
1.40001
1.40001
1.40001
1.40001
1.40001
1.40001
1.40001
1.40001
1.40001
1.40001
1.40001
1.40001
1.40001
1.40001
1.40001
1.40005
3.20772
5.25196
5.36722
5.39069
5.41176
5.42983
5.44781
5.46562
5.4827
5.49885
5.51337
5.52684
5.54018
5.55331
5.56597
5.57852
5.59047
5.60137
5.61192
5.62162
5.63085
5.63934
5.6467
5.6534
5.66027
5.66831
5.67728
5.68586
5.69253
5.69686
5.69946
5.70138
5.7036
5.70693
5.71125
5.71513
5.71721
5.71758
5.71658
5.71501
5.71396
5.71407
5.71572
5.71887
5.72181
5.72478
1.40001
1.40001
1.40001
1.40001
1.40001
1.40001
1.40001
1.40001
1.40001
1.40001
1.40001
1.40001
1.40001
1.40001
1.40001
1.40001
1.40001
1.40001
1.40001
1.40001
1.40001
1.40001
1.40001
1.40001
1.40001
1.40001
1.40001
1.40001
1.40001
1.40001
1.40001
1.40001
1.40001
1.40001
1.40001
1.40001
1.40001
1.40001
1.40001
1.40001
1.40001
1.40001
1.40001
1.40001
1.40001
1.40001
1.40001
1.40001
1.40001
1.4
2.18064
4.89826
5.36883
5.37631
5.40066
5.41782
5.43382
5.44943
5.46491
5.48028
5.4947
5.50741
5.5193
5.53071
5.54161
5.55245
5.56306
5.57251
5.58145
5.58971
5.59727
5.60423
5.60992
5.61446
5.61865
5.62379
5.63019
5.63673
5.64167
5.64407
5.64433
5.64296
5.64134
5.64088
5.64147
5.64207
5.64169
5.63978
5.63626
5.63216
5.62761
5.62308
5.61763
5.61203
5.60627
5.60101
1.40001
1.40001
1.40001
1.40001
1.40001
1.40001
1.40001
1.40001
1.40001
1.40001
1.40001
1.40001
1.40001
1.40001
1.40001
1.40001
1.40001
1.40001
1.40001
1.40001
1.40001
1.40001
1.40001
1.40001
1.40001
1.40001
1.40001
1.40001
1.40001
1.40001
1.40001
1.40001
1.40001
1.40001
1.40001
1.40001
1.40001
1.40001
1.40001
1.40001
1.40001
1.40001
1.40001
1.40001
1.40001
1.40001
1.40001
1.40001
1.40001
1.40001
1.44375
3.98734
5.38526
5.39521
5.39968
5.40901
5.41846
5.42977
5.44246
5.45577
5.46868
5.48002
5.4899
5.49912
5.50753
5.51573
5.52409
5.53183
5.53896
5.54573
5.55172
5.55713
5.56151
5.56426
5.56569
5.5671
5.56977
5.57331
5.57609
5.57684
5.57472
5.56949
5.5629
5.55666
5.55092
5.54451
5.53604
5.52452
5.5097
5.49258
5.47449
5.45682
5.4427
5.43128
5.42693
5.42489
1.40001
1.40001
1.40001
1.40001
1.40001
1.40001
1.40001
1.40001
1.40001
1.40001
1.40001
1.40001
1.40001
1.40001
1.40001
1.40001
1.40001
1.40001
1.40001
1.40001
1.40001
1.40001
1.40001
1.40001
1.40001
1.40001
1.40001
1.40001
1.40001
1.40001
1.40001
1.40001
1.40001
1.40001
1.40001
1.40001
1.40001
1.40001
1.40001
1.40001
1.40001
1.40001
1.40001
1.40001
1.40001
1.40001
1.40001
1.40001
1.40001
1.40001
1.40006
2.6353
5.06443
5.3415
5.35037
5.36776
5.38081
5.39448
5.40865
5.42289
5.43624
5.44794
5.45723
5.46454
5.47071
5.47657
5.48264
5.48823
5.49279
5.49673
5.50031
5.50369
5.50706
5.50891
5.50784
5.50527
5.50265
5.50102
5.49974
5.49727
5.49144
5.48143
5.46885
5.45509
5.44056
5.42467
5.40627
5.38438
5.35891
5.33143
5.30378
5.27716
5.24449
5.20715
5.15237
5.17198
1.40001
1.40001
1.40001
1.40001
1.40001
1.40001
1.40001
1.40001
1.40001
1.40001
1.40001
1.40001
1.40001
1.40001
1.40001
1.40001
1.40001
1.40001
1.40001
1.40001
1.40001
1.40001
1.40001
1.40001
1.40001
1.40001
1.40001
1.40001
1.40001
1.40001
1.40001
1.40001
1.40001
1.40001
1.40001
1.40001
1.40001
1.40001
1.40001
1.40001
1.40001
1.40001
1.40001
1.40001
1.40001
1.40001
1.40001
1.40001
1.40001
1.40001
1.40001
1.55382
4.3538
5.38371
5.36576
5.36891
5.3773
5.38686
5.39756
5.4081
5.41732
5.4253
5.43153
5.43586
5.43931
5.44243
5.44566
5.44843
5.44999
5.45056
5.45097
5.45156
5.45288
5.45378
5.4518
5.44629
5.43907
5.43192
5.42517
5.41779
5.40738
5.39289
5.37462
5.35329
5.32928
5.30231
5.2709
5.23322
5.18623
5.12862
5.05447
4.95889
4.81486
4.59171
4.18531
3.28711
1.40001
1.40001
1.40001
1.40001
1.40001
1.40001
1.40001
1.40001
1.40001
1.40001
1.40001
1.40001
1.40001
1.40001
1.40001
1.40001
1.40001
1.40001
1.40001
1.40001
1.40001
1.40001
1.40001
1.40001
1.40001
1.40001
1.40001
1.40001
1.40001
1.40001
1.40001
1.40001
1.40001
1.40001
1.40001
1.40001
1.40001
1.40001
1.40001
1.40001
1.40001
1.40001
1.40001
1.40001
1.40001
1.40001
1.40001
1.40001
1.40001
1.40001
1.40001
1.40134
3.22185
5.207
5.31816
5.32908
5.34313
5.35352
5.36436
5.37542
5.38513
5.39344
5.39966
5.40332
5.40523
5.40695
5.40922
5.4115
5.4125
5.4111
5.40803
5.40459
5.40235
5.40139
5.39887
5.392
5.38205
5.3706
5.35856
5.34578
5.33075
5.312
5.28878
5.26111
5.22867
5.19137
5.14686
5.09378
5.02576
4.94163
4.82952
4.68903
4.48699
4.21802
3.69023
2.92002
1.40001
1.40001
1.40001
1.40001
1.40001
1.40001
1.40001
1.40001
1.40001
1.40001
1.40001
1.40001
1.40001
1.40001
1.40001
1.40001
1.40001
1.40001
1.40001
1.40001
1.40001
1.40001
1.40001
1.40001
1.40001
1.40001
1.40001
1.40001
1.40001
1.40001
1.40001
1.40001
1.40001
1.40001
1.40001
1.40001
1.40001
1.40001
1.40001
1.40001
1.40001
1.40001
1.40001
1.40001
1.40001
1.40001
1.40001
1.40001
1.40001
1.40001
1.40001
1.4
1.94782
4.73784
5.34838
5.32803
5.3354
5.34191
5.35044
5.36042
5.36872
5.37507
5.37906
5.38067
5.38036
5.37963
5.37947
5.37992
5.37955
5.37657
5.3706
5.36312
5.35616
5.35119
5.34582
5.33657
5.32379
5.30831
5.29099
5.27246
5.25195
5.22825
5.19954
5.16579
5.1254
5.07846
5.02175
4.95447
4.87009
4.7656
4.63254
4.46267
4.24594
3.93302
3.48474
2.9858
1.40001
1.40001
1.40001
1.40001
1.40001
1.40001
1.40001
1.40001
1.40001
1.40001
1.40001
1.40001
1.40001
1.40001
1.40001
1.40001
1.40001
1.40001
1.40001
1.40001
1.40001
1.40001
1.40001
1.40001
1.40001
1.40001
1.40001
1.40001
1.40001
1.40001
1.40001
1.40001
1.40001
1.40001
1.40001
1.40001
1.40001
1.40001
1.40001
1.40001
1.40001
1.40001
1.40001
1.40001
1.40001
1.40001
1.40001
1.40001
1.40001
1.40001
1.40001
1.4
1.42278
3.54961
5.26225
5.30787
5.31979
5.32553
5.33266
5.34183
5.34926
5.35437
5.35691
5.35765
5.35619
5.3531
5.34938
5.3462
5.34297
5.33811
5.33056
5.32073
5.31053
5.30176
5.29245
5.27989
5.26373
5.24417
5.22201
5.19852
5.17278
5.14399
5.10953
5.06969
5.02237
4.96748
4.90189
4.82409
4.7297
4.61403
4.47253
4.29429
4.07434
3.79022
3.45426
3.07278
1.40001
1.40001
1.40001
1.40001
1.40001
1.40001
1.40001
1.40001
1.40001
1.40001
1.40001
1.40001
1.40001
1.40001
1.40001
1.40001
1.40001
1.40001
1.40001
1.40001
1.40001
1.40001
1.40001
1.40001
1.40001
1.40001
1.40001
1.40001
1.40001
1.40001
1.40001
1.40001
1.40001
1.40001
1.40001
1.40001
1.40001
1.40001
1.40001
1.40001
1.40001
1.40001
1.40001
1.40001
1.40001
1.40001
1.40001
1.40001
1.40001
1.40001
1.40001
1.40001
1.4
2.09896
4.82671
5.30839
5.30005
5.3067
5.31443
5.3234
5.3299
5.3335
5.33405
5.33371
5.33163
5.32766
5.32245
5.31655
5.30972
5.30175
5.29211
5.2804
5.2682
5.25626
5.24259
5.22601
5.20582
5.1821
5.15549
5.12769
5.09739
5.06368
5.02385
4.978
4.92471
4.86357
4.79226
4.70863
4.6096
4.491
4.35093
4.17737
3.97342
3.73668
3.47215
3.17009
1.40001
1.40001
1.40001
1.40001
1.40001
1.40001
1.40001
1.40001
1.40001
1.40001
1.40001
1.40001
1.40001
1.40001
1.40001
1.40001
1.40001
1.40001
1.40001
1.40001
1.40001
1.40001
1.40001
1.40001
1.40001
1.40001
1.40001
1.40001
1.40001
1.40001
1.40001
1.40001
1.40001
1.40001
1.40001
1.40001
1.40001
1.40001
1.40001
1.40001
1.40001
1.40001
1.40001
1.40001
1.40001
1.40001
1.40001
1.40001
1.40001
1.40001
1.40001
1.40001
1.4
1.43492
3.6127
5.23473
5.27463
5.28556
5.29354
5.30185
5.30749
5.31009
5.30898
5.30753
5.30425
5.30007
5.29508
5.28827
5.27873
5.26787
5.25562
5.24159
5.22735
5.21236
5.19496
5.17477
5.15057
5.12283
5.09203
5.06013
5.02601
4.98842
4.9448
4.89422
4.83588
4.76955
4.69418
4.60792
4.50872
4.39222
4.25928
4.10033
3.92007
3.72204
3.50538
3.26005
1.40001
1.40001
1.40001
1.40001
1.40001
1.40001
1.40001
1.40001
1.40001
1.40001
1.40001
1.40001
1.40001
1.40001
1.40001
1.40001
1.40001
1.40001
1.40001
1.40001
1.40001
1.40001
1.40001
1.40001
1.40001
1.40001
1.40001
1.40001
1.40001
1.40001
1.40001
1.40001
1.40001
1.40001
1.40001
1.40001
1.40001
1.40001
1.40001
1.40001
1.40001
1.40001
1.40001
1.40001
1.40001
1.40001
1.40001
1.40001
1.40001
1.40001
1.40001
1.40001
1.4
1.40003
2.04051
4.7774
5.27129
5.26594
5.26951
5.27519
5.279
5.2792
5.27634
5.27306
5.26712
5.26165
5.25771
5.25256
5.24368
5.23326
5.22051
5.20516
5.18829
5.16911
5.14756
5.12402
5.09683
5.06651
5.03293
4.99734
4.95955
4.91871
4.87287
4.82007
4.75893
4.68939
4.61153
4.52431
4.42749
4.31424
4.19161
4.04818
3.89173
3.72248
3.54109
3.33601
1.40001
1.40001
1.40001
1.40001
1.40001
1.40001
1.40001
1.40001
1.40001
1.40001
1.40001
1.40001
1.40001
1.40001
1.40001
1.40001
1.40001
1.40001
1.40001
1.40001
1.40001
1.40001
1.40001
1.40001
1.40001
1.40001
1.40001
1.40001
1.40001
1.40001
1.40001
1.40001
1.40001
1.40001
1.40001
1.40001
1.40001
1.40001
1.40001
1.40001
1.40001
1.40001
1.40001
1.40001
1.40001
1.40001
1.40001
1.40001
1.40001
1.40001
1.40001
1.40001
1.40001
1.40001
1.42685
3.38376
5.13342
5.23666
5.2421
5.24967
5.25468
5.25519
5.25196
5.24613
5.23771
5.23009
5.22477
5.21875
5.20979
5.19967
5.18706
5.17147
5.15236
5.12965
5.10405
5.07693
5.04723
5.01544
4.98032
4.94169
4.89999
4.85555
4.80771
4.75416
4.69227
4.62178
4.54367
4.45644
4.36211
4.25396
4.13947
4.0122
3.8752
3.72659
3.57217
3.39698
1.40001
1.40001
1.40001
1.40001
1.40001
1.40001
1.40001
1.40001
1.40001
1.40001
1.40001
1.40001
1.40001
1.40001
1.40001
1.40001
1.40001
1.40001
1.40001
1.40001
1.40001
1.40001
1.40001
1.40001
1.40001
1.40001
1.40001
1.40001
1.40001
1.40001
1.40001
1.40001
1.40001
1.40001
1.40001
1.40001
1.40001
1.40001
1.40001
1.40001
1.40001
1.40001
1.40001
1.40001
1.40001
1.40001
1.40001
1.40001
1.40001
1.40001
1.40001
1.40001
1.40001
1.40001
1.40002
1.74655
4.53415
5.26388
5.24723
5.24091
5.23565
5.23054
5.22385
5.21415
5.2026
5.19294
5.18626
5.17975
5.17121
5.16169
5.14963
5.13402
5.11364
5.08878
5.06025
5.0302
4.99853
4.96634
4.93137
4.89168
4.84726
4.79952
4.74941
4.69529
4.63401
4.56493
4.48963
4.40367
4.31266
4.2105
4.10278
3.9893
3.86647
3.73131
3.59584
3.4478
1.40001
1.40001
1.40001
1.40001
1.40001
1.40001
1.40001
1.40001
1.40001
1.40001
1.40001
1.40001
1.40001
1.40001
1.40001
1.40001
1.40001
1.40001
1.40001
1.40001
1.40001
1.40001
1.40001
1.40001
1.40001
1.40001
1.40001
1.40001
1.40001
1.40001
1.40001
1.40001
1.40001
1.40001
1.40001
1.40001
1.40001
1.40001
1.40001
1.40001
1.40001
1.40001
1.40001
1.40001
1.40001
1.40001
1.40001
1.40001
1.40001
1.40001
1.40001
1.40001
1.40001
1.40001
1.40001
1.40665
2.94527
5.01426
5.19303
5.20018
5.20601
5.20161
5.1962
5.18479
5.1704
5.15748
5.1478
5.13966
5.13097
5.12171
5.11001
5.09477
5.07364
5.04771
5.0184
4.98728
4.95415
4.92134
4.88668
4.84734
4.80203
4.75234
4.6998
4.64389
4.58289
4.51524
4.44327
4.36058
4.27469
4.17973
4.08001
3.97625
3.86237
3.73888
3.61881
3.48965
1.40001
1.40001
1.40001
1.40001
1.40001
1.40001
1.40001
1.40001
1.40001
1.40001
1.40001
1.40001
1.40001
1.40001
1.40001
1.40001
1.40001
1.40001
1.40001
1.40001
1.40001
1.40001
1.40001
1.40001
1.40001
1.40001
1.40001
1.40001
1.40001
1.40001
1.40001
1.40001
1.40001
1.40001
1.40001
1.40001
1.40001
1.40001
1.40001
1.40001
1.40001
1.40001
1.40001
1.40001
1.40001
1.40001
1.40001
1.40001
1.40001
1.40001
1.40001
1.40001
1.40001
1.40001
1.40001
1.40001
1.55607
3.97755
5.17065
5.18495
5.18598
5.17966
5.17486
5.16358
5.14779
5.1321
5.11901
5.10786
5.09728
5.08619
5.07249
5.05655
5.03462
5.00782
4.9789
4.94795
4.91401
4.88012
4.84472
4.80533
4.76078
4.71178
4.65845
4.60092
4.54038
4.4727
4.40287
4.32501
4.24511
4.15843
4.06641
3.96817
3.86292
3.75387
3.6417
3.52542
1.40001
1.40001
1.40001
1.40001
1.40001
1.40001
1.40001
1.40001
1.40001
1.40001
1.40001
1.40001
1.40001
1.40001
1.40001
1.40001
1.40001
1.40001
1.40001
1.40001
1.40001
1.40001
1.40001
1.40001
1.40001
1.40001
1.40001
1.40001
1.40001
1.40001
1.40001
1.40001
1.40001
1.40001
1.40001
1.40001
1.40001
1.40001
1.40001
1.40001
1.40001
1.40001
1.40001
1.40001
1.40001
1.40001
1.40001
1.40001
1.40001
1.40001
1.40001
1.40001
1.40001
1.40001
1.40001
1.40001
1.40121
2.10865
4.75017
5.18897
5.15617
5.15505
5.14817
5.138
5.12418
5.10876
5.09427
5.08026
5.06673
5.05275
5.03588
5.01779
4.99526
4.96798
4.93922
4.90912
4.8755
4.84105
4.80428
4.76402
4.72142
4.67368
4.62307
4.56488
4.50389
4.4369
4.36875
4.29528
4.2208
4.1415
4.05542
3.9635
3.86831
3.76942
3.66249
3.55866
1.40001
1.40001
1.40001
1.40001
1.40001
1.40001
1.40001
1.40001
1.40001
1.40001
1.40001
1.40001
1.40001
1.40001
1.40001
1.40001
1.40001
1.40001
1.40001
1.40001
1.40001
1.40001
1.40001
1.40001
1.40001
1.40001
1.40001
1.40001
1.40001
1.40001
1.40001
1.40001
1.40001
1.40001
1.40001
1.40001
1.40001
1.40001
1.40001
1.40001
1.40001
1.40001
1.40001
1.40001
1.40001
1.40001
1.40001
1.40001
1.40001
1.40001
1.40001
1.40001
1.40001
1.40001
1.40001
1.40001
1.40001
1.42983
3.08967
5.0436
5.133
5.12965
5.12722
5.11745
5.10475
5.08976
5.07485
5.05941
5.04351
5.02651
5.00646
4.98438
4.96137
4.93306
4.90385
4.8739
4.84136
4.80639
4.76819
4.7277
4.68654
4.64017
4.58899
4.53285
4.47327
4.40913
4.34315
4.27315
4.20281
4.12762
4.04629
3.96191
3.87375
3.7819
3.68386
3.5913
1.40001
1.40001
1.40001
1.40001
1.40001
1.40001
1.40001
1.40001
1.40001
1.40001
1.40001
1.40001
1.40001
1.40001
1.40001
1.40001
1.40001
1.40001
1.40001
1.40001
1.40001
1.40001
1.40001
1.40001
1.40001
1.40001
1.40001
1.40001
1.40001
1.40001
1.40001
1.40001
1.40001
1.40001
1.40001
1.40001
1.40001
1.40001
1.40001
1.40001
1.40001
1.40001
1.40001
1.40001
1.40001
1.40001
1.40001
1.40001
1.40001
1.40001
1.40001
1.40001
1.40001
1.40001
1.40001
1.40001
1.40001
1.40007
1.57606
3.78082
5.09169
5.1334
5.12109
5.11111
5.09714
5.08014
5.06212
5.04428
5.02581
5.00602
4.98319
4.95796
4.93328
4.90444
4.87361
4.84256
4.81029
4.775
4.73606
4.69623
4.65523
4.60839
4.55783
4.50338
4.44565
4.38488
4.32195
4.25601
4.18925
4.11716
4.04073
3.96231
3.8786
3.79382
3.70565
3.62045
1.40001
1.40001
1.40001
1.40001
1.40001
1.40001
1.40001
1.40001
1.40001
1.40001
1.40001
1.40001
1.40001
1.40001
1.40001
1.40001
1.40001
1.40001
1.40001
1.40001
1.40001
1.40001
1.40001
1.40001
1.40001
1.40001
1.40001
1.40001
1.40001
1.40001
1.40001
1.40001
1.40001
1.40001
1.40001
1.40001
1.40001
1.40001
1.40001
1.40001
1.40001
1.40001
1.40001
1.40001
1.40001
1.40001
1.40001
1.40001
1.40001
1.40001
1.40001
1.40001
1.40001
1.40001
1.40001
1.40001
1.40001
1.40001
1.40163
1.79595
4.48833
5.16863
5.13385
5.11186
5.08728
5.06519
5.04464
5.02493
5.00552
4.98495
4.9604
4.93386
4.90768
4.878
4.84586
4.813
4.78039
4.746
4.7082
4.6694
4.62816
4.58175
4.5312
4.478
4.42214
4.36421
4.30434
4.24239
4.17895
4.11057
4.03902
3.96507
3.88624
3.80769
3.72756
3.6471
1.40001
1.40001
1.40001
1.40001
1.40001
1.40001
1.40001
1.40001
1.40001
1.40001
1.40001
1.40001
1.40001
1.40001
1.40001
1.40001
1.40001
1.40001
1.40001
1.40001
1.40001
1.40001
1.40001
1.40001
1.40001
1.40001
1.40001
1.40001
1.40001
1.40001
1.40001
1.40001
1.40001
1.40001
1.40001
1.40001
1.40001
1.40001
1.40001
1.40001
1.40001
1.40001
1.40001
1.40001
1.40001
1.40001
1.40001
1.40001
1.40001
1.40001
1.40001
1.40001
1.40001
1.40001
1.40001
1.40001
1.40001
1.40001
1.40001
1.4085
2.57934
4.89729
5.10089
5.07146
5.05277
5.03557
5.01957
5.00228
4.98314
4.96278
4.9385
4.91231
4.88569
4.8553
4.82281
4.7889
4.7543
4.71939
4.68327
4.64513
4.60383
4.55873
4.50921
4.45694
4.40249
4.34628
4.28876
4.23005
4.16942
4.10504
4.03862
3.96942
3.8958
3.82247
3.74816
3.67169
1.40001
1.40001
1.40001
1.40001
1.40001
1.40001
1.40001
1.40001
1.40001
1.40001
1.40001
1.40001
1.40001
1.40001
1.40001
1.40001
1.40001
1.40001
1.40001
1.40001
1.40001
1.40001
1.40001
1.40001
1.40001
1.40001
1.40001
1.40001
1.40001
1.40001
1.40001
1.40001
1.40001
1.40001
1.40001
1.40001
1.40001
1.40001
1.40001
1.40001
1.40001
1.40001
1.40001
1.40001
1.40001
1.40001
1.40001
1.40001
1.40001
1.40001
1.40001
1.40001
1.40001
1.40001
1.40001
1.40001
1.40001
1.40001
1.40001
1.40002
1.48104
3.20842
4.98173
5.03804
5.02584
5.0229
5.01297
4.99785
4.97865
4.9572
4.93158
4.90453
4.87553
4.84309
4.80872
4.7734
4.73694
4.69959
4.66331
4.62555
4.58452
4.53966
4.49144
4.4404
4.38745
4.33289
4.27741
4.22106
4.16261
4.10157
4.03927
3.97427
3.90601
3.8373
3.7673
3.6945
1.40001
1.40001
1.40001
1.40001
1.40001
1.40001
1.40001
1.40001
1.40001
1.40001
1.40001
1.40001
1.40001
1.40001
1.40001
1.40001
1.40001
1.40001
1.40001
1.40001
1.40001
1.40001
1.40001
1.40001
1.40001
1.40001
1.40001
1.40001
1.40001
1.40001
1.40001
1.40001
1.40001
1.40001
1.40001
1.40001
1.40001
1.40001
1.40001
1.40001
1.40001
1.40001
1.40001
1.40001
1.40001
1.40001
1.40001
1.40001
1.40001
1.40001
1.40001
1.40001
1.40001
1.40001
1.40001
1.40001
1.40001
1.40001
1.40001
1.40001
1.40044
1.60207
3.59554
4.9861
5.01433
5.01031
5.00286
4.98878
4.97082
4.9494
4.92388
4.89597
4.86539
4.83253
4.79785
4.76194
4.72505
4.68637
4.64733
4.60945
4.56879
4.52413
4.47674
4.42722
4.376
4.32328
4.26966
4.21493
4.15826
4.09992
4.04031
3.97841
3.91471
3.84975
3.78291
3.71355
1.40001
1.40001
1.40001
1.40001
1.40001
1.40001
1.40001
1.40001
1.40001
1.40001
1.40001
1.40001
1.40001
1.40001
1.40001
1.40001
1.40001
1.40001
1.40001
1.40001
1.40001
1.40001
1.40001
1.40001
1.40001
1.40001
1.40001
1.40001
1.40001
1.40001
1.40001
1.40001
1.40001
1.40001
1.40001
1.40001
1.40001
1.40001
1.40001
1.40001
1.40001
1.40001
1.40001
1.40001
1.40001
1.40001
1.40001
1.40001
1.40001
1.40001
1.40001
1.40001
1.40001
1.40001
1.40001
1.40001
1.40001
1.40001
1.40001
1.40001
1.40001
1.40228
1.72504
3.91432
5.0139
5.01259
4.99665
4.97945
4.96002
4.93755
4.9129
4.886
4.85633
4.82416
4.79023
4.75458
4.71762
4.67913
4.63932
4.5997
4.55891
4.51483
4.46806
4.41945
4.36937
4.31815
4.26594
4.21222
4.15682
4.10009
4.04166
3.98194
3.9218
3.86011
3.79595
3.73021
1.40001
1.40001
1.40001
1.40001
1.40001
1.40001
1.40001
1.40001
1.40001
1.40001
1.40001
1.40001
1.40001
1.40001
1.40001
1.40001
1.40001
1.40001
1.40001
1.40001
1.40001
1.40001
1.40001
1.40001
1.40001
1.40001
1.40001
1.40001
1.40001
1.40001
1.40001
1.40001
1.40001
1.40001
1.40001
1.40001
1.40001
1.40001
1.40001
1.40001
1.40001
1.40001
1.40001
1.40001
1.40001
1.40001
1.40001
1.40001
1.40001
1.40001
1.40001
1.40001
1.40001
1.40001
1.40001
1.40001
1.40001
1.40001
1.40001
1.40001
1.40001
1.40001
1.40576
1.8619
4.19444
5.01939
5.0041
4.98094
4.95505
4.92978
4.90274
4.87462
4.8447
4.8134
4.78074
4.74616
4.7099
4.67216
4.63315
4.5933
4.5521
4.50853
4.46267
4.41495
4.3657
4.31547
4.26405
4.21089
4.15645
4.10077
4.04344
3.98563
3.92812
3.8695
3.80858
3.74749
1.40001
1.40001
1.40001
1.40001
1.40001
1.40001
1.40001
1.40001
1.40001
1.40001
1.40001
1.40001
1.40001
1.40001
1.40001
1.40001
1.40001
1.40001
1.40001
1.40001
1.40001
1.40001
1.40001
1.40001
1.40001
1.40001
1.40001
1.40001
1.40001
1.40001
1.40001
1.40001
1.40001
1.40001
1.40001
1.40001
1.40001
1.40001
1.40001
1.40001
1.40001
1.40001
1.40001
1.40001
1.40001
1.40001
1.40001
1.40001
1.40001
1.40001
1.40001
1.40001
1.40001
1.40001
1.40001
1.40001
1.40001
1.40001
1.40001
1.40001
1.40001
1.40001
1.40002
1.41154
2.01535
4.39774
5.03011
5.00449
4.97248
4.93874
4.90689
4.87432
4.84026
4.80686
4.77311
4.73839
4.70264
4.66587
4.62822
4.5895
4.54907
4.50626
4.46124
4.41432
4.36564
4.31592
4.26477
4.21179
4.15814
4.10324
4.04742
3.99171
3.93774
3.88372
3.82818
3.7749
1.40001
1.40001
1.40001
1.40001
1.40001
1.40001
1.40001
1.40001
1.40001
1.40001
1.40001
1.40001
1.40001
1.40001
1.40001
1.40001
1.40001
1.40001
1.40001
1.40001
1.40001
1.40001
1.40001
1.40001
1.40001
1.40001
1.40001
1.40001
1.40001
1.40001
1.40001
1.40001
1.40001
1.40001
1.40001
1.40001
1.40001
1.40001
1.40001
1.40001
1.40001
1.40001
1.40001
1.40001
1.40001
1.40001
1.40001
1.40001
1.40001
1.40001
1.40001
1.40001
1.40001
1.40001
1.40001
1.40001
1.40001
1.40001
1.40001
1.40001
1.40001
1.40001
1.40001
1.40004
1.42049
2.16297
4.58117
5.02781
4.99584
4.96031
4.91946
4.8809
4.8437
4.80715
4.77045
4.73425
4.69791
4.66117
4.62397
4.58578
4.54593
4.50378
4.45965
4.41375
4.36598
4.31708
4.26644
4.21402
4.16154
4.1083
4.05632
4.00514
3.95789
3.91478
3.87302
3.8409
1.40001
1.40001
1.40001
1.40001
1.40001
1.40001
1.40001
1.40001
1.40001
1.40001
1.40001
1.40001
1.40001
1.40001
1.40001
1.40001
1.40001
1.40001
1.40001
1.40001
1.40001
1.40001
1.40001
1.40001
1.40001
1.40001
1.40001
1.40001
1.40001
1.40001
1.40001
1.40001
1.40001
1.40001
1.40001
1.40001
1.40001
1.40001
1.40001
1.40001
1.40001
1.40001
1.40001
1.40001
1.40001
1.40001
1.40001