/*--------------------------------*- C++ -*----------------------------------*\
  =========                 |
  \\      /  F ield         | OpenFOAM: The Open Source CFD Toolbox
   \\    /   O peration     | Website:  https://openfoam.org
    \\  /    A nd           | Version:  7
     \\/     M anipulation  |
\*---------------------------------------------------------------------------*/
FoamFile
{
    version     2.0;
    format      ascii;
    class       volScalarField;
    location    "8";
    object      T;
}
// * * * * * * * * * * * * * * * * * * * * * * * * * * * * * * * * * * * * * //

dimensions      [0 0 0 1 0 0 0];

internalField   nonuniform List<scalar> 
19968
(
1
1
1
1
1
1
1
1
1
1
1
1
1
1
1
1
1
1
1
1
1
1
1
1
1
1
1
1
1
1
1
1
1
1
1
1
1
1
1
1
1
1
1
1
1
1
1
1
1.27433
2.45644
2.69335
2.69471
2.69834
2.70114
2.70408
2.70756
2.71189
2.71696
2.72226
2.72721
2.73128
2.73435
2.73688
2.73946
2.7425
2.74605
2.7499
2.75372
2.75711
2.75987
2.76217
2.7644
2.76686
2.76969
2.77276
2.77585
2.77869
2.78112
2.78316
2.78491
2.78647
2.78794
2.78941
2.79094
2.79257
2.79425
2.7959
2.79743
2.7988
2.79997
2.80096
2.80178
2.80244
2.80294
2.80329
2.80361
1
1
1
1
1
1
1
1
1
1
1
1
1
1
1
1
1
1
1
1
1
1
1
1
1
1
1
1
1
1
1
1
1
1
1
1
1
1
1
1
1
1
1
1
1
1
1
1
1.26037
2.44947
2.69277
2.6947
2.69808
2.70093
2.70394
2.70754
2.71193
2.717
2.7222
2.72701
2.73095
2.73399
2.73657
2.73919
2.74226
2.74583
2.74968
2.75347
2.75682
2.75955
2.76185
2.76408
2.76656
2.7694
2.77248
2.77556
2.77838
2.7808
2.78282
2.78458
2.78616
2.78767
2.78918
2.79073
2.79235
2.79399
2.79558
2.79705
2.79837
2.79952
2.8005
2.80132
2.80197
2.80246
2.8028
2.80311
1
1
1
1
1
1
1
1
1
1
1
1
1
1
1
1
1
1
1
1
1
1
1
1
1
1
1
1
1
1
1
1
1
1
1
1
1
1
1
1
1
1
1
1
1
1
1
1
1.22806
2.43233
2.69207
2.69367
2.69694
2.70007
2.70348
2.70736
2.71188
2.7169
2.72186
2.72636
2.73009
2.73311
2.73582
2.73859
2.74179
2.7454
2.74922
2.75294
2.75621
2.75891
2.76122
2.76348
2.766
2.76885
2.77193
2.775
2.77779
2.78018
2.78219
2.78394
2.78556
2.78713
2.78871
2.79031
2.79193
2.79351
2.79501
2.7964
2.79768
2.79882
2.79981
2.80063
2.80128
2.80176
2.80208
2.80239
1
1
1
1
1
1
1
1
1
1
1
1
1
1
1
1
1
1
1
1
1
1
1
1
1
1
1
1
1
1
1
1
1
1
1
1
1
1
1
1
1
1
1
1
1
1
1
1
1.18167
2.40482
2.69038
2.69234
2.69572
2.69943
2.70342
2.70761
2.71212
2.71687
2.72136
2.72545
2.72893
2.73194
2.73484
2.73783
2.74121
2.74485
2.7486
2.75219
2.75537
2.75805
2.76039
2.76271
2.76525
2.76809
2.77115
2.7742
2.77697
2.77934
2.78133
2.78309
2.78473
2.78634
2.78797
2.78961
2.79119
2.79268
2.79405
2.79532
2.79651
2.79762
2.79861
2.79945
2.80013
2.80064
2.80097
2.8013
1
1
1
1
1
1
1
1
1
1
1
1
1
1
1
1
1
1
1
1
1
1
1
1
1
1
1
1
1
1
1
1
1
1
1
1
1
1
1
1
1
1
1
1
1
1
1
1
1.12188
2.36708
2.68785
2.691
2.6948
2.69901
2.70346
2.70797
2.71244
2.71682
2.7208
2.72447
2.72776
2.73081
2.73394
2.73715
2.74062
2.74418
2.74777
2.7512
2.7543
2.75702
2.75947
2.76187
2.76443
2.76724
2.77025
2.77325
2.77602
2.77839
2.78038
2.78213
2.78378
2.78543
2.78712
2.7888
2.79036
2.79175
2.79298
2.79408
2.79512
2.79611
2.79701
2.79779
2.79843
2.79892
2.79924
2.79957
1
1
1
1
1
1
1
1
1
1
1
1
1
1
1
1
1
1
1
1
1
1
1
1
1
1
1
1
1
1
1
1
1
1
1
1
1
1
1
1
1
1
1
1
1
1
1
1
1.01285
2.30265
2.68486
2.69058
2.69499
2.69955
2.70413
2.70872
2.71307
2.71706
2.72051
2.72373
2.72687
2.73005
2.73348
2.73686
2.74027
2.74355
2.74679
2.74996
2.75296
2.75572
2.75828
2.76075
2.76326
2.76593
2.76878
2.77168
2.77441
2.77677
2.77875
2.78046
2.78207
2.78371
2.78542
2.78713
2.78871
2.79008
2.79124
2.79225
2.7932
2.79411
2.79497
2.79575
2.7964
2.79693
2.79728
2.79764
1
1
1
1
1
1
1
1
1
1
1
1
1
1
1
1
1
1
1
1
1
1
1
1
1
1
1
1
1
1
1
1
1
1
1
1
1
1
1
1
1
1
1
1
1
1
1
1
1.00008
2.21644
2.67871
2.687
2.69145
2.69637
2.70117
2.70591
2.71031
2.71421
2.71746
2.72055
2.7238
2.72729
2.73109
2.73472
2.73809
2.74111
2.74408
2.74708
2.7501
2.75305
2.75586
2.75848
2.761
2.76355
2.76626
2.76908
2.77181
2.77423
2.77625
2.77796
2.77953
2.78115
2.78287
2.78462
2.78626
2.78766
2.78879
2.78973
2.79058
2.79137
2.79214
2.79286
2.79352
2.7941
2.79449
2.79491
1
1
1
1
1
1
1
1
1
1
1
1
1
1
1
1
1
1
1
1
1
1
1
1
1
1
1
1
1
1
1
1
1
1
1
1
1
1
1
1
1
1
1
1
1
1
1
1
1
2.09158
2.66862
2.68388
2.68804
2.69302
2.69782
2.70258
2.70696
2.71086
2.71427
2.71757
2.72105
2.72465
2.72848
2.7321
2.73537
2.73824
2.74107
2.74403
2.74712
2.75027
2.7533
2.75607
2.75859
2.76102
2.76356
2.76626
2.76895
2.7714
2.77345
2.77514
2.77665
2.77818
2.77984
2.78161
2.78329
2.78472
2.78584
2.7867
2.7874
2.78804
2.78867
2.78931
2.78996
2.79059
2.79105
2.79152
1
1
1
1
1
1
1
1
1
1
1
1
1
1
1
1
1
1
1
1
1
1
1
1
1
1
1
1
1
1
1
1
1
1
1
1
1
1
1
1
1
1
1
1
1
1
1
1
1
1.91812
2.64153
2.67722
2.68198
2.68742
2.69237
2.69722
2.7017
2.70581
2.70964
2.71336
2.71717
2.72092
2.72469
2.72819
2.73133
2.73416
2.73699
2.74001
2.74318
2.74642
2.74954
2.75237
2.75486
2.75717
2.75957
2.76217
2.76484
2.76734
2.76944
2.77113
2.77257
2.774
2.77558
2.77733
2.77906
2.78056
2.7817
2.78251
2.78312
2.78362
2.78412
2.7847
2.78535
2.78606
2.78661
2.78717
1
1
1
1
1
1
1
1
1
1
1
1
1
1
1
1
1
1
1
1
1
1
1
1
1
1
1
1
1
1
1
1
1
1
1
1
1
1
1
1
1
1
1
1
1
1
1
1
1
1.68539
2.5855
2.67086
2.67651
2.68216
2.68695
2.69156
2.696
2.70032
2.7045
2.70856
2.71259
2.71647
2.72017
2.72356
2.72662
2.72951
2.73246
2.73559
2.73881
2.74202
2.74508
2.74782
2.75023
2.75241
2.75467
2.75714
2.75974
2.7622
2.76429
2.76595
2.76731
2.76864
2.77015
2.7719
2.7737
2.77527
2.77645
2.77722
2.77769
2.77801
2.77833
2.77875
2.77935
2.78008
2.78072
2.78134
1
1
1
1
1
1
1
1
1
1
1
1
1
1
1
1
1
1
1
1
1
1
1
1
1
1
1
1
1
1
1
1
1
1
1
1
1
1
1
1
1
1
1
1
1
1
1
1
1
1.3749
2.47888
2.67116
2.672
2.6779
2.68195
2.68624
2.69052
2.69481
2.69906
2.70323
2.70725
2.71114
2.71477
2.71815
2.72127
2.72431
2.72738
2.73058
2.73381
2.73692
2.73986
2.74248
2.74481
2.74696
2.74916
2.75156
2.75407
2.75642
2.75838
2.75988
2.76104
2.76215
2.76342
2.76495
2.7666
2.76808
2.76918
2.76986
2.77022
2.77043
2.77066
2.77103
2.77164
2.77245
2.7732
2.77389
1
1
1
1
1
1
1
1
1
1
1
1
1
1
1
1
1
1
1
1
1
1
1
1
1
1
1
1
1
1
1
1
1
1
1
1
1
1
1
1
1
1
1
1
1
1
1
1
1
1.01536
2.2962
2.67767
2.67741
2.67961
2.68246
2.68578
2.6891
2.69235
2.69562
2.69897
2.70234
2.7058
2.70916
2.71228
2.71519
2.71811
2.72108
2.72411
2.72716
2.72999
2.73267
2.73509
2.7373
2.73941
2.74158
2.74395
2.74642
2.74871
2.75058
2.75199
2.75306
2.75405
2.75518
2.75657
2.75813
2.75958
2.76062
2.76117
2.76132
2.76124
2.76106
2.761
2.76123
2.76174
2.7623
2.76288
1
1
1
1
1
1
1
1
1
1
1
1
1
1
1
1
1
1
1
1
1
1
1
1
1
1
1
1
1
1
1
1
1
1
1
1
1
1
1
1
1
1
1
1
1
1
1
1
1
1.00003
2.01569
2.64584
2.66202
2.66646
2.67181
2.67639
2.68031
2.68375
2.68694
2.69014
2.69332
2.69654
2.69979
2.70292
2.70586
2.70882
2.7118
2.71472
2.7176
2.72025
2.72273
2.72507
2.72726
2.7294
2.7316
2.73397
2.73641
2.73866
2.74046
2.74177
2.74273
2.74352
2.74433
2.74531
2.74642
2.74739
2.7479
2.74798
2.74773
2.74729
2.74694
2.74686
2.74708
2.74747
2.74774
2.74813
1
1
1
1
1
1
1
1
1
1
1
1
1
1
1
1
1
1
1
1
1
1
1
1
1
1
1
1
1
1
1
1
1
1
1
1
1
1
1
1
1
1
1
1
1
1
1
1
1
1
1.54749
2.51734
2.64628
2.6539
2.66267
2.66809
2.67256
2.67643
2.67985
2.68309
2.68628
2.6894
2.69257
2.69566
2.69855
2.70133
2.70404
2.70655
2.70896
2.71121
2.7133
2.71534
2.71728
2.71915
2.72102
2.72303
2.72514
2.72711
2.72868
2.72982
2.73061
2.731
2.7313
2.73175
2.73235
2.73287
2.73304
2.7328
2.73219
2.73139
2.73047
2.72948
2.72801
2.72589
2.72331
2.72125
1
1
1
1
1
1
1
1
1
1
1
1
1
1
1
1
1
1
1
1
1
1
1
1
1
1
1
1
1
1
1
1
1
1
1
1
1
1
1
1
1
1
1
1
1
1
1
1
1
1
1.02806
2.25565
2.65574
2.65435
2.65569
2.6597
2.6641
2.66807
2.67127
2.67404
2.6768
2.67971
2.68278
2.68592
2.68879
2.69136
2.69372
2.69582
2.69776
2.69965
2.70143
2.70317
2.70489
2.7065
2.70793
2.70931
2.71084
2.71233
2.71361
2.7146
2.71498
2.71475
2.71439
2.71405
2.71369
2.71306
2.71187
2.70993
2.70721
2.70394
2.70039
2.6968
2.69355
2.69006
2.68749
2.68604
1
1
1
1
1
1
1
1
1
1
1
1
1
1
1
1
1
1
1
1
1
1
1
1
1
1
1
1
1
1
1
1
1
1
1
1
1
1
1
1
1
1
1
1
1
1
1
1
1
1
1.00005
1.76942
2.55966
2.62922
2.63691
2.64458
2.65031
2.65495
2.6585
2.66144
2.66429
2.66738
2.67071
2.67408
2.67719
2.67983
2.68202
2.68378
2.68524
2.68664
2.68808
2.68959
2.69128
2.69279
2.69361
2.69426
2.69485
2.6954
2.69597
2.69626
2.6959
2.69501
2.69375
2.69221
2.69038
2.68812
2.68519
2.6814
2.67676
2.67149
2.66586
2.66028
2.65507
2.65295
2.64993
2.66415
1
1
1
1
1
1
1
1
1
1
1
1
1
1
1
1
1
1
1
1
1
1
1
1
1
1
1
1
1
1
1
1
1
1
1
1
1
1
1
1
1
1
1
1
1
1
1
1
1
1
1
1.11091
2.33399
2.63211
2.63104
2.6341
2.63918
2.64396
2.64795
2.6511
2.65374
2.65645
2.6595
2.6628
2.66603
2.66874
2.67077
2.6722
2.67324
2.67417
2.67524
2.67649
2.67803
2.6794
2.67982
2.6799
2.67974
2.67928
2.67875
2.6781
2.67696
2.67522
2.67289
2.66998
2.66646
2.66219
2.65684
2.65006
2.64121
2.62989
2.61467
2.59454
2.56522
2.5237
2.45993
2.33129
1
1
1
1
1
1
1
1
1
1
1
1
1
1
1
1
1
1
1
1
1
1
1
1
1
1
1
1
1
1
1
1
1
1
1
1
1
1
1
1
1
1
1
1
1
1
1
1
1
1
1
1.00102
2.00441
2.59926
2.61198
2.61692
2.62296
2.6282
2.63287
2.6368
2.64003
2.64316
2.64654
2.65015
2.65364
2.65664
2.65894
2.66064
2.6619
2.66269
2.66346
2.6643
2.66541
2.66652
2.66686
2.66672
2.66613
2.6649
2.66337
2.66171
2.6597
2.65706
2.65366
2.64946
2.64431
2.63806
2.63019
2.62037
2.60726
2.59043
2.5672
2.53713
2.49373
2.43739
2.32789
2.16153
1
1
1
1
1
1
1
1
1
1
1
1
1
1
1
1
1
1
1
1
1
1
1
1
1
1
1
1
1
1
1
1
1
1
1
1
1
1
1
1
1
1
1
1
1
1
1
1
1
1
1
0.999999
1.38009
2.42214
2.59741
2.60514
2.61303
2.61799
2.62181
2.62505
2.62783
2.63072
2.63403
2.63772
2.64135
2.64447
2.64689
2.64874
2.65008
2.65095
2.65165
2.65221
2.65275
2.65334
2.65346
2.65308
2.652
2.65007
2.64761
2.64493
2.64186
2.63817
2.63354
2.62798
2.62115
2.61295
2.60262
2.58986
2.57329
2.55205
2.52414
2.48727
2.43911
2.36732
2.26013
2.1382
1
1
1
1
1
1
1
1
1
1
1
1
1
1
1
1
1
1
1
1
1
1
1
1
1
1
1
1
1
1
1
1
1
1
1
1
1
1
1
1
1
1
1
1
1
1
1
1
1
1
1
1
1.01407
2.10875
2.59887
2.59991
2.60322
2.60692
2.61003
2.6126
2.61476
2.61724
2.62042
2.62428
2.62803
2.63119
2.63342
2.63499
2.63617
2.63714
2.63798
2.6386
2.63905
2.63937
2.63921
2.63852
2.63693
2.63435
2.63114
2.62766
2.62367
2.61895
2.61306
2.6061
2.5977
2.58774
2.57546
2.56039
2.54153
2.51768
2.48763
2.44846
2.39852
2.33087
2.246
2.14699
1
1
1
1
1
1
1
1
1
1
1
1
1
1
1
1
1
1
1
1
1
1
1
1
1
1
1
1
1
1
1
1
1
1
1
1
1
1
1
1
1
1
1
1
1
1
1
1
1
1
1
1
1.00001
1.46219
2.4447
2.58689
2.59311
2.59759
2.59982
2.60145
2.60278
2.60455
2.60716
2.61071
2.61442
2.61764
2.61983
2.62107
2.62175
2.62237
2.62314
2.62394
2.62462
2.62488
2.62456
2.62352
2.62138
2.61823
2.61444
2.6104
2.60574
2.60018
2.5932
2.58493
2.57512
2.56365
2.54997
2.53345
2.51335
2.48856
2.45849
2.41993
2.37304
2.31627
2.24982
2.16923
1
1
1
1
1
1
1
1
1
1
1
1
1
1
1
1
1
1
1
1
1
1
1
1
1
1
1
1
1
1
1
1
1
1
1
1
1
1
1
1
1
1
1
1
1
1
1
1
1
1
1
1
1
1.02115
2.12722
2.58902
2.58816
2.58862
2.58965
2.59093
2.592
2.59331
2.59506
2.59789
2.60114
2.60427
2.60644
2.60726
2.60723
2.60724
2.60759
2.60834
2.6092
2.60943
2.60907
2.60778
2.60516
2.60155
2.5973
2.59282
2.58775
2.58173
2.5742
2.56501
2.55408
2.54135
2.52657
2.50924
2.48882
2.46416
2.43532
2.39974
2.35807
2.31067
2.25674
2.19274
1
1
1
1
1
1
1
1
1
1
1
1
1
1
1
1
1
1
1
1
1
1
1
1
1
1
1
1
1
1
1
1
1
1
1
1
1
1
1
1
1
1
1
1
1
1
1
1
1
1
1
1
1
1.00003
1.42535
2.42222
2.57171
2.57706
2.57991
2.58123
2.58189
2.58251
2.58329
2.58516
2.58747
2.59005
2.59208
2.59264
2.59235
2.59212
2.59215
2.5926
2.59318
2.59314
2.59251
2.59087
2.58796
2.58417
2.57973
2.57491
2.56954
2.56333
2.55577
2.54643
2.53504
2.52161
2.50618
2.48844
2.46831
2.44409
2.41726
2.38498
2.34876
2.30814
2.26341
2.21113
1
1
1
1
1
1
1
1
1
1
1
1
1
1
1
1
1
1
1
1
1
1
1
1
1
1
1
1
1
1
1
1
1
1
1
1
1
1
1
1
1
1
1
1
1
1
1
1
1
1
1
1
1
1
1.01634
2.04829
2.5571
2.5675
2.56935
2.57114
2.5724
2.57341
2.57422
2.57547
2.577
2.5787
2.57982
2.57976
2.57897
2.5782
2.57779
2.57774
2.57769
2.57724
2.57596
2.57375
2.57052
2.56666
2.56214
2.557
2.55127
2.54485
2.53745
2.52846
2.51729
2.50386
2.48844
2.47068
2.451
2.42778
2.40262
2.37389
2.34217
2.30677
2.26889
2.22476
1
1
1
1
1
1
1
1
1
1
1
1
1
1
1
1
1
1
1
1
1
1
1
1
1
1
1
1
1
1
1
1
1
1
1
1
1
1
1
1
1
1
1
1
1
1
1
1
1
1
1
1
1
1
1.00002
1.24252
2.35063
2.5611
2.55881
2.55965
2.56089
2.56228
2.56356
2.56466
2.56575
2.56678
2.56718
2.56693
2.56591
2.56476
2.56386
2.56318
2.56241
2.56122
2.55922
2.55644
2.55284
2.54887
2.54435
2.53907
2.53304
2.52638
2.51908
2.51057
2.50005
2.48732
2.47279
2.45549
2.43666
2.41486
2.39126
2.36575
2.33741
2.30531
2.27238
2.2355
1
1
1
1
1
1
1
1
1
1
1
1
1
1
1
1
1
1
1
1
1
1
1
1
1
1
1
1
1
1
1
1
1
1
1
1
1
1
1
1
1
1
1
1
1
1
1
1
1
1
1
1
1
1
1
1.00421
1.86338
2.50257
2.53631
2.54241
2.54701
2.54924
2.55159
2.55302
2.55404
2.55451
2.55438
2.55391
2.55287
2.55166
2.55049
2.5494
2.54794
2.54603
2.54353
2.54034
2.53628
2.53192
2.52716
2.52171
2.51545
2.50858
2.50117
2.49278
2.48285
2.47091
2.45751
2.44126
2.42386
2.40396
2.38246
2.35948
2.33345
2.30438
2.27549
2.24366
1
1
1
1
1
1
1
1
1
1
1
1
1
1
1
1
1
1
1
1
1
1
1
1
1
1
1
1
1
1
1
1
1
1
1
1
1
1
1
1
1
1
1
1
1
1
1
1
1
1
1
1
1
1
1
1
1.1035
2.20441
2.52866
2.53376
2.5354
2.53594
2.53828
2.54062
2.54216
2.54253
2.54219
2.54143
2.54036
2.53912
2.53768
2.53638
2.53449
2.53206
2.5293
2.52588
2.52138
2.51643
2.51103
2.50508
2.49859
2.49169
2.48416
2.47568
2.46619
2.45465
2.44208
2.42726
2.41156
2.39392
2.37463
2.3534
2.32979
2.30467
2.27809
2.24987
1
1
1
1
1
1
1
1
1
1
1
1
1
1
1
1
1
1
1
1
1
1
1
1
1
1
1
1
1
1
1
1
1
1
1
1
1
1
1
1
1
1
1
1
1
1
1
1
1
1
1
1
1
1
1
1
1.00071
1.44648
2.35914
2.51351
2.51274
2.5163
2.52057
2.52494
2.52795
2.52906
2.52883
2.52801
2.5269
2.52567
2.52411
2.52275
2.52094
2.51844
2.51562
2.51222
2.50759
2.50223
2.4961
2.4894
2.48273
2.47559
2.46833
2.45961
2.4501
2.43888
2.4269
2.41329
2.39907
2.38345
2.36595
2.34667
2.32609
2.30402
2.2793
2.25474
1
1
1
1
1
1
1
1
1
1
1
1
1
1
1
1
1
1
1
1
1
1
1
1
1
1
1
1
1
1
1
1
1
1
1
1
1
1
1
1
1
1
1
1
1
1
1
1
1
1
1
1
1
1
1
1
1
1.01776
1.89079
2.46782
2.49774
2.50281
2.50771
2.51112
2.51377
2.51487
2.51472
2.51406
2.51308
2.51191
2.51038
2.50886
2.50752
2.50527
2.50263
2.49937
2.49499
2.48947
2.48283
2.47568
2.46876
2.4613
2.45339
2.44472
2.43531
2.42462
2.41312
2.40032
2.3871
2.37255
2.35638
2.33919
2.32081
2.30113
2.2791
2.25802
1
1
1
1
1
1
1
1
1
1
1
1
1
1
1
1
1
1
1
1
1
1
1
1
1
1
1
1
1
1
1
1
1
1
1
1
1
1
1
1
1
1
1
1
1
1
1
1
1
1
1
1
1
1
1
1
1
1.00003
1.11693
2.11898
2.47829
2.49938
2.49865
2.50013
2.50128
2.50125
2.50076
2.49998
2.49901
2.49789
2.49646
2.49496
2.49393
2.49219
2.48976
2.48666
2.4826
2.47721
2.4705
2.46337
2.45618
2.44818
2.4399
2.43115
2.42179
2.41161
2.40062
2.38857
2.37602
2.36204
2.34695
2.33122
2.31415
2.29658
2.27775
2.25897
1
1
1
1
1
1
1
1
1
1
1
1
1
1
1
1
1
1
1
1
1
1
1
1
1
1
1
1
1
1
1
1
1
1
1
1
1
1
1
1
1
1
1
1
1
1
1
1
1
1
1
1
1
1
1
1
1
1
1.00092
1.26398
2.26814
2.4827
2.48179
2.48342
2.48351
2.48355
2.48347
2.48327
2.48301
2.4826
2.48163
2.48052
2.47975
2.47838
2.47621
2.47324
2.46951
2.46466
2.45847
2.45174
2.44451
2.43646
2.42793
2.41916
2.40995
2.40018
2.38967
2.37831
2.36625
2.35282
2.33853
2.32372
2.30775
2.29176
2.27523
2.25821
1
1
1
1
1
1
1
1
1
1
1
1
1
1
1
1
1
1
1
1
1
1
1
1
1
1
1
1
1
1
1
1
1
1
1
1
1
1
1
1
1
1
1
1
1
1
1
1
1
1
1
1
1
1
1
1
1
1
1
1.005
1.65936
2.37809
2.45889
2.45636
2.45786
2.45973
2.46167
2.46321
2.46429
2.46517
2.46513
2.46495
2.46474
2.46377
2.46198
2.45928
2.45566
2.45118
2.44578
2.43959
2.43266
2.42508
2.41685
2.4083
2.39937
2.38995
2.3799
2.36915
2.35753
2.34472
2.33122
2.31711
2.30203
2.28708
2.2719
2.25615
1
1
1
1
1
1
1
1
1
1
1
1
1
1
1
1
1
1
1
1
1
1
1
1
1
1
1
1
1
1
1
1
1
1
1
1
1
1
1
1
1
1
1
1
1
1
1
1
1
1
1
1
1
1
1
1
1
1
1
1.00001
1.04969
1.90861
2.41874
2.44451
2.44374
2.44534
2.44655
2.4476
2.44847
2.44938
2.44973
2.44999
2.44979
2.44888
2.44718
2.4447
2.44132
2.43699
2.43216
2.42663
2.42032
2.41332
2.40582
2.3979
2.3896
2.38077
2.37135
2.36122
2.35007
2.33785
2.32503
2.31149
2.29724
2.283
2.26856
2.25354
1
1
1
1
1
1
1
1
1
1
1
1
1
1
1
1
1
1
1
1
1
1
1
1
1
1
1
1
1
1
1
1
1
1
1
1
1
1
1
1
1
1
1
1
1
1
1
1
1
1
1
1
1
1
1
1
1
1
1
1
1.00021
1.13255
2.02632
2.41356
2.43487
2.43676
2.43743
2.43707
2.43673
2.43644
2.43596
2.43543
2.43459
2.43332
2.4315
2.42906
2.42593
2.42187
2.41715
2.41227
2.40673
2.4005
2.3939
2.38698
2.37965
2.37175
2.36318
2.35375
2.34321
2.33167
2.31938
2.30633
2.29282
2.27911
2.26511
2.25066
1
1
1
1
1
1
1
1
1
1
1
1
1
1
1
1
1
1
1
1
1
1
1
1
1
1
1
1
1
1
1
1
1
1
1
1
1
1
1
1
1
1
1
1
1
1
1
1
1
1
1
1
1
1
1
1
1
1
1
1
1
1.00123
1.21252
2.10447
2.39922
2.42841
2.4276
2.42731
2.42668
2.42565
2.42444
2.42308
2.42137
2.41927
2.41683
2.41395
2.4106
2.40664
2.40209
2.39739
2.39245
2.38704
2.38133
2.3754
2.36912
2.36228
2.35468
2.34602
2.33617
2.32527
2.31343
2.30092
2.28817
2.27509
2.26156
2.24777
1
1
1
1
1
1
1
1
1
1
1
1
1
1
1
1
1
1
1
1
1
1
1
1
1
1
1
1
1
1
1
1
1
1
1
1
1
1
1
1
1
1
1
1
1
1
1
1
1
1
1
1
1
1
1
1
1
1
1
1
1
1
1.00318
1.29547
2.15625
2.38957
2.41021
2.41265
2.41322
2.4131
2.41233
2.41093
2.40884
2.40629
2.40336
2.39997
2.39619
2.39204
2.38755
2.38292
2.37818
2.37327
2.36823
2.36305
2.35755
2.35155
2.34475
2.3368
2.32769
2.3175
2.3063
2.29456
2.28266
2.27042
2.25765
2.24498
1
1
1
1
1
1
1
1
1
1
1
1
1
1
1
1
1
1
1
1
1
1
1
1
1
1
1
1
1
1
1
1
1
1
1
1
1
1
1
1
1
1
1
1
1
1
1
1
1
1
1
1
1
1
1
1
1
1
1
1
1
1
1
1.00647
1.37825
2.19491
2.37651
2.39062
2.3946
2.39601
2.39662
2.39605
2.39461
2.39262
2.38997
2.38671
2.38296
2.37885
2.37451
2.37003
2.36542
2.36065
2.3558
2.35081
2.34552
2.33983
2.33339
2.32592
2.31756
2.30817
2.29791
2.28712
2.27632
2.26553
2.25437
2.24427
1
1
1
1
1
1
1
1
1
1
1
1
1
1
1
1
1
1
1
1
1
1
1
1
1
1
1
1
1
1
1
1
1
1
1
1
1
1
1
1
1
1
1
1
1
1
1
1
1
1
1
1
1
1
1
1
1
1
1
1
1
1
1
1.00001
1.01167
1.45158
2.2263
2.36713
2.37008
2.37305
2.37461
2.3759
2.37584
2.37518
2.37372
2.37162
2.36886
2.36553
2.36181
2.35775
2.3534
2.34875
2.34393
2.33891
2.33355
2.32782
2.32144
2.31419
2.30634
2.29766
2.28856
2.27932
2.27058
2.26311
2.25634
2.25119
1
1
1
1
1
1
1
1
1
1
1
1
1
1
1
1
1
1
1
1
1
1
1
1
1
1
1
1
1
1
1
1
1
1
1
1
1
1
1
1
1
1
1
1
1
1
1
1
1
1
1
1
1
1
1
1
1
1
1
1
1
1
1
1
1.00003
1.01841
1.5518
2.25305
2.35362
2.35208
2.35333
2.35379
2.35425
2.35467
2.35458
2.35402
2.35277
2.35077
2.3481
2.34482
2.34102
2.3367
2.33203
2.32703
2.32166
2.31588
2.30936
2.3023
2.295
2.28764
2.28085
2.27552
2.27277
2.27161
2.27278
2.27621
1
1
1
1
1
1
1
1
1
1
1
1
1
1
1
1
1
1
1
1
1
1
1
1
1
1
1
1
1
1
1
1
1
1
1
1
1
1
1
1
1
1
1
1
1
1
1
1
1
1
1
1
1
1
1
1
1
1
1
1
1
1
1
1
1
1.00005
1.03183
1.61763
2.26287
2.34057
2.33787
2.33634
2.33573
2.33549
2.33549
2.33536
2.3349
2.33394
2.33239
2.3302
2.3273
2.32375
2.31963
2.31489
2.30954
2.30374
2.29741
2.29149
2.28639
2.2836
2.28462
2.28629
2.29249
2.29914
2.30725
2.31248
1
1
1
1
1
1
1
1
1
1
1
1
1
1
1
1
1
1
1
1
1
1
1
1
1
1
1
1
1
1
1
1
1
1
1
1
1
1
1
1
1
1
1
1
1
1
1
1
1
1
1
1
1
1
1
1
1
1
1
1
1
1
1
1
1
1
1.00013
1.04455
1.63796
2.2558
2.3283
2.32543
2.32353
2.32195
2.3206
2.31934
2.31809
2.31675
2.3152
2.31334
2.31093
2.30789
2.30431
2.30006
2.29559
2.29115
2.28719
2.28795
2.29064
2.29696
2.30705
2.31857
2.32908
2.33421
2.34041
2.3376
1
1
1
1
1
1
1
1
1
1
1
1
1
1
1
1
1
1
1
1
1
1
1
1
1
1
1
1
1
1
1
1
1
1
1
1
1
1
1
1
1
1
1
1
1
1
1
1
1
1
1
1
1
1
1
1
1
1
1
1
1
1
1
1
1
1
1
1.00022
1.05006
1.62408
2.23842
2.31736
2.31511
2.31299
2.31035
2.30762
2.30491
2.3022
2.29958
2.29678
2.29384
2.29059
2.28753
2.28433
2.28319
2.28589
2.29084
2.30197
2.31632
2.33282
2.34577
2.35423
2.35845
2.35639
2.35378
2.3478
1
1
1
1
1
1
1
1
1
1
1
1
1
1
1
1
1
1
1
1
1
1
1
1
1
1
1
1
1
1
1
1
1
1
1
1
1
1
1
1
1
1
1
1
1
1
1
1
1
1
1
1
1
1
1
1
1
1
1
1
1
1
1
1
1
1
1
1
1.00027
1.04784
1.60445
2.21686
2.30541
2.30404
2.3012
2.29812
2.29467
2.29095
2.28715
2.28302
2.27881
2.27504
2.27414
2.27717
2.28539
2.30002
2.31846
2.33901
2.35606
2.36626
2.37191
2.37118
2.36785
2.362
2.35503
2.34827
1
1
1
1
1
1
1
1
1
1
1
1
1
1
1
1
1
1
1
1
1
1
1
1
1
1
1
1
1
1
1
1
1
1
1
1
1
1
1
1
1
1
1
1
1
1
1
1
1
1
1
1
1
1
1
1
1
1
1
1
1
1
1
1
1
1
1
1
1
1.00025
1.04388
1.57377
2.18842
2.29233
2.29185
2.28878
2.28548
2.28121
2.27662
2.27198
2.2684
2.27038
2.27817
2.29447
2.3163
2.33992
2.36003
2.37116
2.37994
2.3786
2.37443
2.36982
2.36535
2.35967
2.35308
2.3477
1
1
1
1
1
1
1
1
1
1
1
1
1
1
1
1
1
1
1
1
1
1
1
1
1
1
1
1
1
1
1
1
1
1
1
1
1
1
1
1
1
1
1
1
1
1
1
1
1
1
1
1
1
1
1
1
1
1
1
1
1
1
1
1
1
1
1
1
1
1
1.00022
1.03784
1.52808
2.15305
2.27366
2.28049
2.27577
2.27124
2.2663
2.26713
2.2736
2.29078
2.31607
2.34393
2.3663
2.37834
2.38623
2.38349
2.38033
2.3765
2.37116
2.36564
2.36104
2.35639
2.35123
2.34723
1
1
1
1
1
1
1
1
1
1
1
1
1
1
1
1
1
1
1
1
1
1
1
1
1
1
1
1
1
1
1
1
1
1
1
1
1
1
1
1
1
1
1
1
1
1
1
1
1
1
1
1
1
1
1
1
1
1
1
1
1
1
1
1
1
1
1
1
1
1
1
1.00018
1.02994
1.47087
2.09742
2.25464
2.2616
2.26285
2.26832
2.28658
2.31649
2.35015
2.37487
2.38675
2.39593
2.39471
2.38984
2.38299
2.37836
2.37406
2.36858
2.36287
2.35865
2.35576
2.35196
2.34777
1
1
1
1
1
1
1
1
1
1
1
1
1
1
1
1
1
1
1
1
1
1
1
1
1
1
1
1
1
1
1
1
1
1
1
1
1
1
1
1
1
1
1
1
1
1
1
1
1
1
1
1
1
1
1
1
1
1
1
1
1
1
1
1
1
1
1
1
1
1
1
1
1.00013
1.02182
1.39948
2.01962
2.23093
2.27641
2.30156
2.34611
2.38067
2.39736
2.40526
2.40072
2.39702
2.39221
2.3856
2.37956
2.3759
2.37257
2.36761
2.36237
2.35901
2.35699
2.35333
2.34845
1
1
1
1
1
1
1
1
1
1
1
1
1
1
1
1
1
1
1
1
1
1
1
1
1
1
1
1
1
1
1
1
1
1
1
1
1
1
1
1
1
1
1
1
1
1
1
1
1
1
1
1
1
1
1
1
1
1
1
1
1
1
1
1
1
1
1
1
1
1
1
1
1
1.00008
1.01434
1.30575
1.95951
2.31159
2.3804
2.40273
2.41098
2.40764
2.40213
2.39649
2.39268
2.38778
2.38216
2.37829
2.37626
2.37355
2.36846
2.36301
2.36034
2.3586
2.35407
2.34856
1
1
1
1
1
1
1
1
1
1
1
1
1
1
1
1
1
1
1
1
1
1
1
1
1
1
1
1
1
1
1
1
1
1
1
1
1
1
1
1
1
1
1
1
1
1
1
1
1
1
1
1
1
1
1
1
1
1
1
1
1
1
1
1
1
1
1
1
1
1
1
1
1
1
1.00004
1.00788
1.26659
2.29828
2.49166
2.46186
2.44478
2.42899
2.41504
2.40393
2.39587
2.38892
2.38288
2.37899
2.37706
2.37451
2.36986
2.36541
2.36302
2.36045
2.35447
2.34913
1
1
1
1
1
1
1
1
1
1
1
1
1
1
1
1
1
1
1
1
1
1
1
1
1
1
1
1
1
1
1
1
1
1
1
1
1
1
1
1
1
1
1
1
1
1
1
1
1
1
1
1
1
1
1
1
1
1
1
1
1
1
1
1
1
1
1
1
1
1
1
1
1
1
1
1.00002
1.00563
2.18197
2.56652
2.52677
2.49431
2.46859
2.44862
2.43231
2.41991
2.41024
2.40186
2.39511
2.38963
2.38352
2.37655
2.37071
2.36684
2.36213
2.35554
2.35133
1
1
1
1
1
1
1
1
1
1
1
1
1
1
1
1
1
1
1
1
1
1
1
1
1
1
1
1
1
1
1
1
1
1
1
1
1
1
1
1
1
1
1
1
1
1
1
1
1
1
1
1
1
1
1
1
1
1
1
1
1
1
1
1
1
1
1
1
1
1
1
1
1
1
1
1
1
1.69634
2.53271
2.57942
2.56599
2.54883
2.52732
2.50583
2.48568
2.46764
2.45204
2.43771
2.42416
2.41105
2.39883
2.38848
2.38053
2.37253
2.36482
2.35919
1
1
1
1
1
1
1
1
1
1
1
1
1
1
1
1
1
1
1
1
1
1
1
1
1
1
1
1
1
1
1
1
1
1
1
1
1
1
1
1
1
1
1
1
1
1
1
1
1
1
1
1
1
1
1
1
1
1
1
1
1
1
1
1
1
1
1
1
1
1
1
1
1
1
1
1
1
1.05778
2.34899
2.62862
2.61987
2.60702
2.59012
2.57174
2.55191
2.53116
2.51036
2.49067
2.47172
2.45426
2.43866
2.42499
2.4134
2.40282
2.39282
2.38334
1
1
1
1
1
1
1
1
1
1
1
1
1
1
1
1
1
1
1
1
1
1
1
1
1
1
1
1
1
1
1
1
1
1
1
1
1
1
1
1
1
1
1
1
1
1
1
1
1
1
1
1
1
1
1
1
1
1
1
1
1
1
1
1
1
1
1
1
1
1
1
1
1
1
1
1
1
1.00021
1.98154
2.60285
2.61616
2.61256
2.60838
2.6017
2.59249
2.58074
2.56695
2.55169
2.5352
2.51846
2.50196
2.48608
2.47088
2.4557
2.44119
2.42743
1
1
1
1
1
1
1
1
1
1
1
1
1
1
1
1
1
1
1
1
1
1
1
1
1
1
1
1
1
1
1
1
1
1
1
1
1
1
1
1
1
1
1
1
1
1
1
1
1
1
1
1
1
1
1
1
1
1
1
1
1
1
1
1
1
1
1
1
1
1
1
1
1
1
1
1
1
1
1.41878
2.46301
2.6244
2.62075
2.6188
2.61579
2.61125
2.60525
2.59795
2.58933
2.57934
2.56812
2.55589
2.54251
2.52802
2.51268
2.49719
2.48219
1
1
1
1
1
1
1
1
1
1
1
1
1
1
1
1
1
1
1
1
1
1
1
1
1
1
1
1
1
1
1
1
1
1
1
1
1
1
1
1
1
1
1
1
1
1
1
1
1
1
1
1
1
1
1
1
1
1
1
1
1
1
1
1
1
1
1
1
1
1
1
1
1
1
1
1
1
1
1.01732
2.23643
2.63704
2.63414
2.62672
2.62215
2.61799
2.61391
2.60933
2.60417
2.5985
2.59207
2.58467
2.57633
2.56692
2.55665
2.54567
2.5343
1
1
1
1
1
1
1
1
1
1
1
1
1
1
1
1
1
1
1
1
1
1
1
1
1
1
1
1
1
1
1
1
1
1
1
1
1
1
1
1
1
1
1
1
1
1
1
1
1
1
1
1
1
1
1
1
1
1
1
1
1
1
1
1
1
1
1
1
1
1
1
1
1
1
1
1
1
1
1.00001
1.84672
2.58305
2.62953
2.62497
2.62266
2.61981
2.61678
2.61349
2.60998
2.60608
2.60183
2.59698
2.59186
2.58634
2.58045
2.57399
2.56696
1
1
1
1
1
1
1
1
1
1
1
1
1
1
1
1
1
1
1
1
1
1
1
1
1
1
1
1
1
1
1
1
1
1
1
1
1
1
1
1
1
1
1
1
1
1
1
1
1
1
1
1
1
1
1
1
1
1
1
1
1
1
1
1
1
1
1
1
1
1
1
1
1
1
1
1
1
1
1
1.33568
2.4398
2.63624
2.63089
2.62842
2.62522
2.62168
2.61799
2.61425
2.61053
2.60695
2.60343
2.59989
2.5962
2.59232
2.58813
2.58347
1
1
1
1
1
1
1
1
1
1
1
1
1
1
1
1
1
1
1
1
1
1
1
1
1
1
1
1
1
1
1
1
1
1
1
1
1
1
1
1
1
1
1
1
1
1
1
1
1
1
1
1
1
1
1
1
1
1
1
1
1
1
1
1
1
1
1
1
1
1
1
1
1
1
1
1
1
1
1
1.01076
2.24819
2.64777
2.64523
2.63864
2.63349
2.62843
2.62361
2.61902
2.6148
2.61093
2.60724
2.60363
2.60004
2.59639
2.59274
2.58903
1
1
1
1
1
1
1
1
1
1
1
1
1
1
1
1
1
1
1
1
1
1
1
1
1
1
1
1
1
1
1
1
1
1
1
1
1
1
1
1
1
1
1
1
1
1
1
1
1
1
1
1
1
1
1
1
1
1
1
1
1
1
1
1
1
1
1
1
1
1
1
1
1
1
1
1
1
1
1
1.00001
1.94284
2.61653
2.64142
2.63736
2.63449
2.6306
2.62653
2.62255
2.6186
2.6146
2.61064
2.60669
2.60287
2.59904
2.59529
2.59159
1
1
1
1
1
1
1
1
1
1
1
1
1
1
1
1
1
1
1
1
1
1
1
1
1
1
1
1
1
1
1
1
1
1
1
1
1
1
1
1
1
1
1
1
1
1
1
1
1
1
1
1
1
1
1
1
1
1
1
1
1
1
1
1
1
1
1
1
1
1
1
1
1
1
1
1
1
1
1
1
1.52673
2.5037
2.65201
2.64637
2.64293
2.63898
2.63483
2.63087
2.62684
2.62257
2.61823
2.61383
2.60954
2.60526
2.60103
2.59681
1
1
1
1
1
1
1
1
1
1
1
1
1
1
1
1
1
1
1
1
1
1
1
1
1
1
1
1
1
1
1
1
1
1
1
1
1
1
1
1
1
1
1
1
1
1
1
1
1
1
1
1
1
1
1
1
1
1
1
1
1
1
1
1
1
1
1
1
1
1
1
1
1
1
1
1
1
1
1
1
1.07438
2.34013
2.65652
2.6499
2.64528
2.64185
2.63898
2.63605
2.63273
2.62901
2.62506
2.62085
2.61653
2.61207
2.60747
2.60275
1
1
1
1
1
1
1
1
1
1
1
1
1
1
1
1
1
1
1
1
1
1
1
1
1
1
1
1
1
1
1
1
1
1
1
1
1
1
1
1
1
1
1
1
1
1
1
1
1
1
1
1
1
1
1
1
1
1
1
1
1
1
1
1
1
1
1
1
1
1
1
1
1
1
1
1
1
1
1
1
1.00043
2.15482
2.65366
2.65289
2.64927
2.64699
2.64434
2.64145
2.63823
2.63475
2.63109
2.62716
2.623
2.61864
2.61402
2.60921
1
1
1
1
1
1
1
1
1
1
1
1
1
1
1
1
1
1
1
1
1
1
1
1
1
1
1
1
1
1
1
1
1
1
1
1
1
1
1
1
1
1
1
1
1
1
1
1
1
1
1
1
1
1
1
1
1
1
1
1
1
1
1
1
1
1
1
1
1
1
1
1
1
1
1
1
1
1
1
1
1
1.89517
2.61896
2.65663
2.65251
2.65014
2.6471
2.64416
2.64112
2.63794
2.63464
2.63112
2.62739
2.62347
2.61927
2.61485
1
1
1
1
1
1
1
1
1
1
1
1
1
1
1
1
1
1
1
1
1
1
1
1
1
1
1
1
1
1
1
1
1
1
1
1
1
1
1
1
1
1
1
1
1
1
1
1
1
1
1
1
1
1
1
1
1
1
1
1
1
1
1
1
1
1
1
1
1
1
1
1
1
1
1
1
1
1
1
1
1
1.57731
2.53468
2.66257
2.65703
2.65466
2.65155
2.64841
2.64516
2.64189
2.63853
2.6351
2.63157
2.62793
2.62414
2.62021
1
1
1
1
1
1
1
1
1
1
1
1
1
1
1
1
1
1
1
1
1
1
1
1
1
1
1
1
1
1
1
1
1
1
1
1
1
1
1
1
1
1
1
1
1
1
1
1
1
1
1
1
1
1
1
1
1
1
1
1
1
1
1
1
1
1
1
1
1
1
1
1
1
1
1
1
1
1
1
1
1
1.22898
2.41333
2.66346
2.65759
2.65521
2.65266
2.64994
2.647
2.64395
2.64078
2.63758
2.63431
2.63095
2.62752
2.624
1
1
1
1
1
1
1
1
1
1
1
1
1
1
1
1
1
1
1
1
1
1
1
1
1
1
1
1
1
1
1
1
1
1
1
1
1
1
1
1
1
1
1
1
1
1
1
1
1
1
1
1
1
1
1
1
1
1
1
1
1
1
1
1
1
1
1
1
1
1
1
1
1
1
1
1
1
1
1
1
1
1.00559
2.29462
2.67121
2.66703
2.66147
2.65753
2.65399
2.65066
2.64744
2.64421
2.64104
2.63783
2.63456
2.63126
2.6279
1
1
1
1
1
1
1
1
1
1
1
1
1
1
1
1
1
1
1
1
1
1
1
1
1
1
1
1
1
1
1
1
1
1
1
1
1
1
1
1
1
1
1
1
1
1
1
1
1
1
1
1
1
1
1
1
1
1
1
1
1
1
1
1
1
1
1
1
1
1
1
1
1
1
1
1
1
1
1
1
1
1
2.1405
2.66506
2.66916
2.66497
2.66214
2.65886
2.65562
2.6524
2.64915
2.64587
2.64253
2.63913
2.63575
2.63233
1
1
1
1
1
1
1
1
1
1
1
1
1
1
1
1
1
1
1
1
1
1
1
1
1
1
1
1
1
1
1
1
1
1
1
1
1
1
1
1
1
1
1
1
1
1
1
1
1
1
1
1
1
1
1
1
1
1
1
1
1
1
1
1
1
1
1
1
1
1
1
1
1
1
1
1
1
1
1
1
1
1
1.95584
2.63828
2.67308
2.66856
2.66607
2.66293
2.6598
2.65657
2.65327
2.64988
2.64642
2.64292
2.63944
2.63593
1
1
1
1
1
1
1
1
1
1
1
1
1
1
1
1
1
1
1
1
1
1
1
1
1
1
1
1
1
1
1
1
1
1
1
1
1
1
1
1
1
1
1
1
1
1
1
1
1
1
1
1
1
1
1
1
1
1
1
1
1
1
1
1
1
1
1
1
1
1
1
1
1
1
1
1
1
1
1
1
1
1
1.7605
2.59959
2.67425
2.669
2.6665
2.66339
2.66031
2.65711
2.65385
2.65051
2.64717
2.64376
2.64031
2.63686
1
1
1
1
1
1
1
1
1
1
1
1
1
1
1
1
1
1
1
1
1
1
1
1
1
1
1
1
1
1
1
1
1
1
1
1
1
1
1
1
1
1
1
1
1
1
1
1
1
1
1
1
1
1
1
1
1
1
1
1
1
1
1
1
1
1
1
1
1
1
1
1
1
1
1
1
1
1
1
1
1
1
1.55341
2.54929
2.67377
2.66827
2.66603
2.66326
2.66053
2.65768
2.65474
2.6517
2.6486
2.64542
2.64215
2.63882
1
1
1
1
1
1
1
1
1
1
1
1
1
1
1
1
1
1
1
1
1
1
1
1
1
1
1
1
1
1
1
1
1
1
1
1
1
1
1
1
1
1
1
1
1
1
1
1
1
1
1
1
1
1
1
1
1
1
1
1
1
1
1
1
1
1
1
1
1
1
1
1
1
1
1
1
1
1
1
1
1
1
1.36011
2.48661
2.67619
2.66999
2.66706
2.66404
2.66117
2.65829
2.65537
2.65239
2.64939
2.6463
2.64312
2.63988
1
1
1
1
1
1
1
1
1
1
1
1
1
1
1
1
1
1
1
1
1
1
1
1
1
1
1
1
1
1
1
1
1
1
1
1
1
1
1
1
1
1
1
1
1
1
1
1
1
1
1
1
1
1
1
1
1
1
1
1
1
1
1
1
1
1
1
1
1
1
1
1
1
1
1
1
1
1
1
1
1
1
1.21259
2.41911
2.67919
2.67394
2.67053
2.66725
2.66408
2.66091
2.65774
2.65457
2.6514
2.64818
2.64491
2.64162
1
1
1
1
1
1
1
1
1
1
1
1
1
1
1
1
1
1
1
1
1
1
1
1
1
1
1
1
1
1
1
1
1
1
1
1
1
1
1
1
1
1
1
1
1
1
1
1
1
1
1
1
1
1
1
1
1
1
1
1
1
1
1
1
1
1
1
1
1
1
1
1
1
1
1
1
1
1
1
1
1
1
1.08898
2.34683
2.67957
2.6771
2.67342
2.67026
2.66699
2.66374
2.66045
2.65719
2.65389
2.65058
2.64726
2.64392
1
1
1
1
1
1
1
1
1
1
1
1
1
1
1
1
1
1
1
1
1
1
1
1
1
1
1
1
1
1
1
1
1
1
1
1
1
1
1
1
1
1
1
1
1
1
1
1
1
1
1
1
1
1
1
1
1
1
1
1
1
1
1
1
1
1
1
1
1
1
1
1
1
1
1
1
1
1
1
1
1
1
1.00169
2.27947
2.67758
2.6792
2.67485
2.67213
2.66897
2.66586
2.66261
2.65936
2.65604
2.65271
2.64935
2.64597
1
1
1
1
1
1
1
1
1
1
1
1
1
1
1
1
1
1
1
1
1
1
1
1
1
1
1
1
1
1
1
1
1
1
1
1
1
1
1
1
1
1
1
1
1
1
1
1
1
1
1
1
1
1
1
1
1
1
1
1
1
1
1
1
1
1
1
1
1
1
1
1
1
1
1
1
1
1
1
1
1
1
1
2.20447
2.67264
2.67966
2.67527
2.67286
2.66991
2.66701
2.66397
2.66092
2.65778
2.65461
2.6514
2.64815
1
1
1
1
1
1
1
1
1
1
1
1
1
1
1
1
1
1
1
1
1
1
1
1
1
1
1
1
1
1
1
1
1
1
1
1
1
1
1
1
1
1
1
1
1
1
1
1
1
1
1
1
1
1
1
1
1
1
1
1
1
1
1
1
1
1
1
1
1
1
1
1
1
1
1
1
1
1
1
1
1
1
1
2.13613
2.66707
2.68067
2.6761
2.67369
2.67077
2.66794
2.66495
2.66196
2.65887
2.65577
2.65259
2.64936
1
1
1
1
1
1
1
1
1
1
1
1
1
1
1
1
1
1
1
1
1
1
1
1
1
1
1
1
1
1
1
1
1
1
1
1
1
1
1
1
1
1
1
1
1
1
1
1
1
1
1
1
1
1
1
1
1
1
1
1
1
1
1
1
1
1
1
1
1
1
1
1
1
1
1
1
1
1
1
1
1
1
1
2.07963
2.66166
2.68178
2.67698
2.67452
2.67159
2.66874
2.66578
2.66281
2.65973
2.65665
2.65349
2.65028
1
1
1
1
1
1
1
1
1
1
1
1
1
1
1
1
1
1
1
1
1
1
1
1
1
1
1
1
1
1
1
1
1
1
1
1
1
1
1
1
1
1
1
1
1
1
1
1
1
1
1
1
1
1
1
1
1
1
1
1
1
1
1
1
1
1
1
1
1
1
1
1
1
1
1
1
1
1
1
1
1
1
1
2.03603
2.65686
2.68288
2.67789
2.67538
2.67243
2.66957
2.66663
2.66366
2.66058
2.6575
2.65435
2.65114
1
1
1
1
1
1
1
1
1
1
1
1
1
1
1
1
1
1
1
1
1
1
1
1
1
1
1
1
1
1
1
1
1
1
1
1
1
1
1
1
1
1
1
1
1
1
1
1
1
1
1
1
1
1
1
1
1
1
1
1
1
1
1
1
1
1
1
1
1
1
1
1
1
1
1
1
1
1
1
1
1
1
1
2.00614
2.65307
2.68348
2.67837
2.67584
2.67292
2.67008
2.6672
2.66426
2.66119
2.6581
2.65497
2.65177
1
1
1
1
1
1
1
1
1
1
1
1
1
1
1