/*--------------------------------*- C++ -*----------------------------------*\
  =========                 |
  \\      /  F ield         | OpenFOAM: The Open Source CFD Toolbox
   \\    /   O peration     | Website:  https://openfoam.org
    \\  /    A nd           | Version:  7
     \\/     M anipulation  |
\*---------------------------------------------------------------------------*/
FoamFile
{
    version     2.0;
    format      ascii;
    class       volVectorField;
    location    "8";
    object      U;
}
// * * * * * * * * * * * * * * * * * * * * * * * * * * * * * * * * * * * * * //

dimensions      [0 1 -1 0 0 0 0];

internalField   nonuniform List<vector> 
19968
(
(3 5.22977e-17 0)
(3 2.18676e-16 0)
(3 3.03537e-16 0)
(3 3.70933e-16 0)
(3 2.65869e-16 0)
(3 -9.84368e-17 0)
(3 -1.56779e-16 0)
(3 -2.91236e-16 0)
(3 -2.27024e-16 0)
(3 3.09709e-16 0)
(3 2.94946e-16 0)
(3 1.53683e-16 0)
(3 -1.86996e-16 0)
(3 -1.97783e-16 0)
(3 -1.49618e-16 0)
(3 7.19766e-16 0)
(3 2.37131e-15 0)
(3 2.5651e-15 0)
(3 2.51901e-15 0)
(3 2.49509e-15 0)
(3 2.36672e-15 0)
(3 1.93303e-15 0)
(3 1.79018e-15 0)
(3 8.82642e-16 0)
(3 4.83876e-16 0)
(3 1.33536e-16 0)
(3 2.37619e-16 0)
(3 5.79582e-16 0)
(3 1.48516e-15 0)
(3 1.84055e-15 0)
(3 4.46994e-16 0)
(3 -4.35127e-16 0)
(3 -1.82858e-15 0)
(3 -2.76405e-15 0)
(3 -9.03648e-16 0)
(3 -5.28602e-16 0)
(3 -1.1626e-15 0)
(3 -1.38283e-15 0)
(3 -8.44151e-16 0)
(3 -7.88312e-19 0)
(3 1.82886e-16 0)
(3 4.64963e-16 0)
(3 5.53803e-16 0)
(3 5.21412e-16 0)
(3 -2.41984e-16 0)
(3 -1.00902e-15 0)
(3 -1.11533e-15 0)
(3 -1.61357e-15 0)
(2.80229 0.00193755 0)
(0.968775 0.00478588 0)
(0.76111 0.00698892 0)
(0.744704 0.00953313 0)
(0.72704 0.0092811 0)
(0.711601 0.00848995 0)
(0.697196 0.00785972 0)
(0.683344 0.0077449 0)
(0.66924 0.00830114 0)
(0.654159 0.00937949 0)
(0.63783 0.010225 0)
(0.621151 0.00984181 0)
(0.605457 0.00872967 0)
(0.590645 0.00841393 0)
(0.575736 0.00900619 0)
(0.560402 0.00954232 0)
(0.54521 0.0095554 0)
(0.530339 0.00952003 0)
(0.515244 0.00971643 0)
(0.499496 0.00987558 0)
(0.483335 0.00987492 0)
(0.467244 0.00988702 0)
(0.451478 0.0100279 0)
(0.435977 0.0102256 0)
(0.420507 0.0103686 0)
(0.404797 0.0104473 0)
(0.388629 0.0105255 0)
(0.371992 0.0106327 0)
(0.355148 0.0107524 0)
(0.338422 0.0108657 0)
(0.321961 0.0109709 0)
(0.305689 0.0110806 0)
(0.289414 0.0112074 0)
(0.27296 0.0113523 0)
(0.256227 0.0115084 0)
(0.239192 0.0116678 0)
(0.221877 0.0118262 0)
(0.204309 0.0119852 0)
(0.186499 0.0121499 0)
(0.16843 0.0123291 0)
(0.150051 0.0125377 0)
(0.131287 0.0127858 0)
(0.112059 0.0130784 0)
(0.0923504 0.0134028 0)
(0.0722299 0.0137681 0)
(0.0517916 0.0141821 0)
(0.0311511 0.0144583 0)
(0.0106905 0.0149064 0)
(3 -1.80898e-17 0)
(3 -1.42669e-16 0)
(3 -5.00248e-17 0)
(3 6.5757e-17 0)
(3 6.15635e-17 0)
(3 4.87826e-17 0)
(3 1.93748e-18 0)
(3 -4.44006e-17 0)
(3 1.25823e-16 0)
(3 3.20119e-17 0)
(3 -9.99153e-16 0)
(3 -1.36876e-15 0)
(3 -1.33955e-15 0)
(3 -5.58839e-16 0)
(3 6.32737e-16 0)
(3 3.01786e-15 0)
(3 3.6994e-15 0)
(3 4.00509e-15 0)
(3 3.70153e-15 0)
(3 3.10464e-15 0)
(3 2.243e-15 0)
(3 6.99094e-16 0)
(3 1.97825e-16 0)
(3 1.67327e-16 0)
(3 -3.21927e-16 0)
(3 -9.68014e-16 0)
(3 -9.7376e-16 0)
(3 -1.95318e-16 0)
(3 2.86665e-16 0)
(3 8.17086e-16 0)
(3 8.44381e-16 0)
(3 -8.83711e-16 0)
(3 -2.11738e-15 0)
(3 -1.91593e-15 0)
(3 -1.04812e-15 0)
(3 -1.25671e-16 0)
(3 -8.86917e-16 0)
(3 -1.63727e-15 0)
(3 -1.12384e-15 0)
(3 -7.42904e-16 0)
(3 -2.77041e-16 0)
(3 1.1539e-15 0)
(3 1.79039e-15 0)
(3 2.21903e-15 0)
(3 3.95963e-16 0)
(3 -5.83248e-16 0)
(3 -8.2093e-16 0)
(3 -1.70382e-15 0)
(2.81656 0.0117272 0)
(0.973003 0.0254734 0)
(0.756692 0.0263517 0)
(0.739591 0.0277494 0)
(0.722998 0.0272492 0)
(0.707994 0.0253967 0)
(0.693589 0.0236804 0)
(0.679432 0.0233132 0)
(0.665058 0.0248258 0)
(0.650079 0.0277402 0)
(0.634177 0.0300274 0)
(0.61805 0.0292915 0)
(0.60263 0.0267491 0)
(0.58751 0.0259332 0)
(0.572393 0.0275274 0)
(0.556949 0.0289778 0)
(0.541723 0.0289719 0)
(0.526839 0.0288867 0)
(0.511749 0.0294976 0)
(0.496012 0.0300124 0)
(0.479834 0.030081 0)
(0.463672 0.0301691 0)
(0.447812 0.0305794 0)
(0.432245 0.0311249 0)
(0.416742 0.0315285 0)
(0.401009 0.0317758 0)
(0.384804 0.0320269 0)
(0.368123 0.0323565 0)
(0.351239 0.0327259 0)
(0.334481 0.0330852 0)
(0.317997 0.0334214 0)
(0.301709 0.0337593 0)
(0.28542 0.0341299 0)
(0.268946 0.034537 0)
(0.252181 0.0349675 0)
(0.235109 0.0354096 0)
(0.217774 0.0358647 0)
(0.200226 0.03635 0)
(0.182491 0.0368848 0)
(0.164551 0.0374845 0)
(0.146348 0.038173 0)
(0.1278 0.0389614 0)
(0.108839 0.0398569 0)
(0.0894665 0.0408267 0)
(0.0697748 0.0418955 0)
(0.0498915 0.0430997 0)
(0.0299078 0.0438826 0)
(0.0102517 0.0451206 0)
(3 -3.12917e-16 0)
(3 -5.1788e-16 0)
(3 -7.42286e-16 0)
(3 -8.40258e-16 0)
(3 -7.50408e-16 0)
(3 -7.56965e-16 0)
(3 -7.28129e-16 0)
(3 -7.78195e-16 0)
(3 -6.55427e-16 0)
(3 -2.81357e-16 0)
(3 -2.70188e-16 0)
(3 4.64362e-16 0)
(3 5.9383e-16 0)
(3 8.4535e-16 0)
(3 1.17872e-15 0)
(3 1.6368e-15 0)
(3 1.79341e-15 0)
(3 1.97973e-15 0)
(3 2.27395e-15 0)
(3 2.21651e-15 0)
(3 1.33416e-15 0)
(3 1.10469e-15 0)
(3 1.35324e-15 0)
(3 1.75155e-15 0)
(3 1.36269e-15 0)
(3 8.23269e-16 0)
(3 8.65071e-16 0)
(3 1.30766e-15 0)
(3 1.18921e-15 0)
(3 1.00644e-16 0)
(3 -2.65297e-16 0)
(3 -1.48634e-16 0)
(3 5.29293e-16 0)
(3 3.8771e-16 0)
(3 -3.76294e-16 0)
(3 -6.19032e-16 0)
(3 -2.4451e-16 0)
(3 2.57467e-16 0)
(3 7.2088e-16 0)
(3 2.79527e-16 0)
(3 8.49505e-16 0)
(3 1.43542e-15 0)
(3 2.49422e-15 0)
(3 2.8697e-15 0)
(3 2.62147e-15 0)
(3 2.03631e-15 0)
(3 8.23483e-16 0)
(3 1.52732e-16 0)
(2.85153 0.0190452 0)
(0.989653 0.045995 0)
(0.76026 0.0463445 0)
(0.743136 0.0466143 0)
(0.726725 0.045898 0)
(0.711612 0.0435806 0)
(0.696656 0.0414747 0)
(0.681663 0.0411591 0)
(0.666527 0.0434078 0)
(0.651277 0.0475823 0)
(0.635453 0.050634 0)
(0.619615 0.0494931 0)
(0.604295 0.0460446 0)
(0.588727 0.045091 0)
(0.573254 0.0475938 0)
(0.55749 0.0497934 0)
(0.541996 0.0496703 0)
(0.526894 0.0494934 0)
(0.511681 0.0505019 0)
(0.49588 0.0514031 0)
(0.479624 0.051615 0)
(0.463318 0.0518417 0)
(0.447266 0.0525163 0)
(0.431511 0.0533596 0)
(0.415849 0.0539966 0)
(0.39997 0.0544314 0)
(0.383616 0.0548864 0)
(0.366783 0.055451 0)
(0.349751 0.056067 0)
(0.332852 0.0566701 0)
(0.316239 0.0572442 0)
(0.299839 0.0578221 0)
(0.283454 0.0584434 0)
(0.266891 0.0591069 0)
(0.25004 0.0597903 0)
(0.232899 0.0604817 0)
(0.215531 0.0611928 0)
(0.198001 0.0619574 0)
(0.180326 0.0628086 0)
(0.162468 0.0637676 0)
(0.14435 0.0648661 0)
(0.12589 0.0661131 0)
(0.107036 0.0675155 0)
(0.0878087 0.0690228 0)
(0.0683263 0.0706668 0)
(0.0487556 0.0725354 0)
(0.0291439 0.0736989 0)
(0.00999441 0.075596 0)
(3 -2.03328e-17 0)
(3 1.40825e-16 0)
(3 1.93837e-16 0)
(3 -1.58904e-16 0)
(3 -5.09972e-16 0)
(3 -8.17406e-16 0)
(3 -7.98865e-16 0)
(3 -1.05581e-15 0)
(3 -7.07099e-16 0)
(3 7.50817e-17 0)
(3 1.33545e-15 0)
(3 2.60173e-15 0)
(3 2.4505e-15 0)
(3 1.89243e-15 0)
(3 8.4801e-16 0)
(3 5.26866e-16 0)
(3 6.74026e-16 0)
(3 8.88304e-16 0)
(3 1.05437e-15 0)
(3 1.35574e-15 0)
(3 2.9312e-15 0)
(3 3.52741e-15 0)
(3 3.44608e-15 0)
(3 2.89366e-15 0)
(3 2.66591e-15 0)
(3 2.48945e-15 0)
(3 2.42627e-15 0)
(3 1.73636e-15 0)
(3 1.51477e-15 0)
(3 1.0293e-15 0)
(3 8.31337e-16 0)
(3 1.27381e-15 0)
(3 1.43008e-15 0)
(3 5.40311e-16 0)
(3 -6.15757e-17 0)
(3 -1.14846e-15 0)
(3 -4.43265e-16 0)
(3 -3.52659e-16 0)
(3 2.67906e-16 0)
(3 1.4057e-15 0)
(3 1.5799e-15 0)
(3 1.81964e-15 0)
(3 2.38219e-15 0)
(3 2.00846e-15 0)
(3 1.73531e-15 0)
(3 1.36173e-15 0)
(3 1.39707e-15 0)
(3 1.26658e-15 0)
(2.89619 0.0221185 0)
(1.01354 0.0658705 0)
(0.761188 0.0663441 0)
(0.744005 0.0654509 0)
(0.728588 0.064815 0)
(0.713852 0.0627539 0)
(0.698866 0.0608192 0)
(0.683533 0.060591 0)
(0.668054 0.0632613 0)
(0.652863 0.0680669 0)
(0.637432 0.0713389 0)
(0.622129 0.0700249 0)
(0.607075 0.0663465 0)
(0.591356 0.0655936 0)
(0.575814 0.0689149 0)
(0.559952 0.0717765 0)
(0.544327 0.071558 0)
(0.529071 0.0712703 0)
(0.513792 0.0726074 0)
(0.498005 0.0738955 0)
(0.481752 0.0743465 0)
(0.465369 0.0748268 0)
(0.449166 0.0758169 0)
(0.433229 0.0769565 0)
(0.417372 0.0778454 0)
(0.401266 0.0785285 0)
(0.384633 0.079249 0)
(0.367474 0.0800817 0)
(0.350081 0.0809574 0)
(0.332799 0.0818116 0)
(0.315793 0.0826257 0)
(0.298995 0.0834332 0)
(0.28221 0.0842754 0)
(0.265241 0.0851425 0)
(0.247994 0.0860029 0)
(0.230501 0.0868493 0)
(0.212879 0.087713 0)
(0.195231 0.0886582 0)
(0.177582 0.08975 0)
(0.159871 0.0910281 0)
(0.141987 0.0925319 0)
(0.123818 0.0942573 0)
(0.105291 0.096196 0)
(0.0864047 0.0982759 0)
(0.0672548 0.100509 0)
(0.0480278 0.103054 0)
(0.0286878 0.104584 0)
(0.00988989 0.107106 0)
(3 2.19555e-16 0)
(3 3.606e-16 0)
(3 5.10754e-16 0)
(3 4.69405e-16 0)
(3 4.47065e-16 0)
(3 7.94512e-16 0)
(3 6.64022e-16 0)
(3 8.07921e-16 0)
(3 9.42555e-16 0)
(3 5.17565e-16 0)
(3 1.04709e-15 0)
(3 1.69136e-15 0)
(3 2.14013e-15 0)
(3 2.38123e-15 0)
(3 2.28226e-15 0)
(3 1.43668e-15 0)
(3 4.42212e-16 0)
(3 5.95468e-16 0)
(3 1.25212e-15 0)
(3 1.53251e-15 0)
(3 1.86565e-15 0)
(3 2.07419e-15 0)
(3 1.70344e-15 0)
(3 1.10406e-15 0)
(3 1.08926e-15 0)
(3 7.30581e-16 0)
(3 -2.96123e-16 0)
(3 -9.16906e-16 0)
(3 -7.12201e-16 0)
(3 -3.76872e-16 0)
(3 3.61353e-16 0)
(3 2.68379e-16 0)
(3 -2.3336e-16 0)
(3 -1.91317e-16 0)
(3 -3.62464e-16 0)
(3 -7.71973e-16 0)
(3 -9.96042e-16 0)
(3 -3.63804e-16 0)
(3 1.33832e-16 0)
(3 7.54282e-16 0)
(3 1.5078e-15 0)
(3 1.61142e-15 0)
(3 1.58204e-15 0)
(3 -4.17886e-16 0)
(3 -6.15559e-16 0)
(3 -3.12361e-16 0)
(3 3.09733e-17 0)
(3 1.50021e-15 0)
(2.94242 0.0272072 0)
(1.04118 0.0945721 0)
(0.760723 0.0877632 0)
(0.745933 0.0830379 0)
(0.732806 0.0830257 0)
(0.719405 0.0819257 0)
(0.704987 0.0810138 0)
(0.689508 0.0815418 0)
(0.673558 0.0846726 0)
(0.65799 0.089474 0)
(0.642608 0.0924081 0)
(0.627632 0.0909856 0)
(0.612798 0.0875053 0)
(0.597175 0.0871949 0)
(0.58188 0.0912267 0)
(0.566275 0.0947132 0)
(0.550806 0.0945538 0)
(0.5356 0.0942171 0)
(0.520392 0.0957992 0)
(0.504754 0.0974454 0)
(0.48864 0.0982436 0)
(0.472309 0.0991612 0)
(0.45605 0.100619 0)
(0.439977 0.102149 0)
(0.42394 0.103393 0)
(0.407594 0.104477 0)
(0.390638 0.105628 0)
(0.373072 0.106872 0)
(0.355202 0.108133 0)
(0.337388 0.109356 0)
(0.319802 0.110515 0)
(0.302375 0.111629 0)
(0.284903 0.112733 0)
(0.267178 0.113803 0)
(0.249114 0.114795 0)
(0.230792 0.115702 0)
(0.212392 0.11657 0)
(0.194069 0.117491 0)
(0.175868 0.118569 0)
(0.15773 0.11988 0)
(0.13955 0.121502 0)
(0.121228 0.123456 0)
(0.102714 0.125746 0)
(0.0840184 0.12831 0)
(0.0652172 0.131103 0)
(0.0465128 0.13436 0)
(0.02771 0.136299 0)
(0.00959648 0.13946 0)
(3 3.7748e-16 0)
(3 6.1473e-16 0)
(3 7.14254e-16 0)
(3 1.11809e-15 0)
(3 1.02173e-15 0)
(3 1.08939e-15 0)
(3 1.76082e-15 0)
(3 1.92709e-15 0)
(3 1.5366e-15 0)
(3 9.08794e-16 0)
(3 3.318e-16 0)
(3 7.40928e-17 0)
(3 6.59466e-16 0)
(3 1.33763e-15 0)
(3 9.97786e-16 0)
(3 4.4931e-16 0)
(3 1.29053e-16 0)
(3 -6.28059e-16 0)
(3 -8.0866e-16 0)
(3 -3.69544e-16 0)
(3 2.31677e-16 0)
(3 5.29633e-16 0)
(3 9.95339e-16 0)
(3 1.25138e-15 0)
(3 6.88463e-16 0)
(3 3.08343e-16 0)
(3 -1.02747e-15 0)
(3 -2.31203e-15 0)
(3 -2.16384e-15 0)
(3 -1.73977e-15 0)
(3 -1.24666e-15 0)
(3 -1.28437e-15 0)
(3 -1.08631e-15 0)
(3 -1.36551e-15 0)
(3 -1.41554e-15 0)
(3 -1.57081e-15 0)
(3 -1.16143e-15 0)
(3 7.85065e-17 0)
(3 1.44627e-16 0)
(3 7.0603e-16 0)
(3 7.55188e-16 0)
(3 8.20468e-16 0)
(3 9.24746e-16 0)
(3 7.98249e-16 0)
(3 4.48255e-16 0)
(3 2.38761e-16 0)
(3 2.81145e-16 0)
(3 -2.34305e-16 0)
(2.99657 0.00213636 0)
(1.10409 0.118891 0)
(0.773137 0.103778 0)
(0.756497 0.0977906 0)
(0.743675 0.0989289 0)
(0.730398 0.099698 0)
(0.716248 0.101033 0)
(0.700776 0.103399 0)
(0.684565 0.107292 0)
(0.66854 0.111528 0)
(0.653009 0.113501 0)
(0.638189 0.111702 0)
(0.62353 0.108439 0)
(0.608164 0.108526 0)
(0.593252 0.113036 0)
(0.578032 0.117117 0)
(0.562737 0.117295 0)
(0.547569 0.117095 0)
(0.532406 0.118862 0)
(0.516935 0.120758 0)
(0.501072 0.121909 0)
(0.484994 0.12339 0)
(0.468917 0.125467 0)
(0.452938 0.127482 0)
(0.436952 0.129159 0)
(0.42062 0.130772 0)
(0.403611 0.132519 0)
(0.385901 0.134335 0)
(0.3678 0.136135 0)
(0.349683 0.137898 0)
(0.331725 0.139592 0)
(0.313856 0.141212 0)
(0.29585 0.142785 0)
(0.277475 0.144281 0)
(0.258632 0.145639 0)
(0.239431 0.146833 0)
(0.220103 0.147895 0)
(0.200842 0.148916 0)
(0.181707 0.150023 0)
(0.162638 0.151329 0)
(0.143539 0.152953 0)
(0.124333 0.154948 0)
(0.105015 0.157346 0)
(0.0856449 0.160149 0)
(0.0663006 0.163255 0)
(0.0472284 0.167047 0)
(0.0280738 0.169291 0)
(0.00975842 0.172977 0)
(3 7.38585e-17 0)
(3 1.04793e-16 0)
(3 3.58118e-16 0)
(3 4.34741e-16 0)
(3 4.24932e-16 0)
(3 2.68258e-16 0)
(3 5.27279e-16 0)
(3 4.13683e-16 0)
(3 2.06383e-16 0)
(3 3.6452e-16 0)
(3 -3.1111e-16 0)
(3 -7.44181e-16 0)
(3 -1.48622e-15 0)
(3 -1.98307e-15 0)
(3 -1.72624e-15 0)
(3 -1.29186e-15 0)
(3 -1.02389e-15 0)
(3 -1.21945e-15 0)
(3 -1.59607e-15 0)
(3 -1.6663e-15 0)
(3 -1.946e-15 0)
(3 -1.10482e-15 0)
(3 -5.25685e-16 0)
(3 -5.02889e-16 0)
(3 -7.44239e-16 0)
(3 -4.30468e-16 0)
(3 -3.01059e-16 0)
(3 -7.2785e-16 0)
(3 -1.1901e-15 0)
(3 -1.47237e-15 0)
(3 -2.02939e-15 0)
(3 -2.26359e-15 0)
(3 -1.96705e-15 0)
(3 -1.9817e-15 0)
(3 -1.91876e-15 0)
(3 -1.31714e-15 0)
(3 -1.41486e-15 0)
(3 -1.64843e-15 0)
(3 -1.24111e-15 0)
(3 -9.42905e-16 0)
(3 -8.10453e-16 0)
(3 -1.06163e-15 0)
(3 -1.82262e-15 0)
(3 -7.55894e-16 0)
(3 -7.74073e-16 0)
(3 -1.17063e-15 0)
(3 -1.37593e-15 0)
(3 -1.10874e-15 0)
(3.00004 5.92723e-05 0)
(1.21779 0.140141 0)
(0.775813 0.126061 0)
(0.753219 0.11831 0)
(0.739611 0.11952 0)
(0.725459 0.121062 0)
(0.711045 0.123974 0)
(0.695669 0.128005 0)
(0.679817 0.132683 0)
(0.66417 0.136286 0)
(0.649156 0.137188 0)
(0.63483 0.134959 0)
(0.620559 0.131716 0)
(0.605658 0.131994 0)
(0.591357 0.136899 0)
(0.576806 0.141753 0)
(0.561898 0.142699 0)
(0.546943 0.142929 0)
(0.531946 0.144854 0)
(0.516769 0.146831 0)
(0.501367 0.14825 0)
(0.485841 0.150364 0)
(0.470308 0.153224 0)
(0.454775 0.155841 0)
(0.439194 0.157998 0)
(0.423283 0.160185 0)
(0.406704 0.16259 0)
(0.389393 0.165022 0)
(0.371649 0.167371 0)
(0.353854 0.169666 0)
(0.336189 0.171888 0)
(0.318567 0.17401 0)
(0.300737 0.176046 0)
(0.282428 0.177964 0)
(0.26351 0.179695 0)
(0.244095 0.181192 0)
(0.224461 0.182466 0)
(0.204843 0.183595 0)
(0.185313 0.184716 0)
(0.165807 0.185969 0)
(0.146227 0.187504 0)
(0.126513 0.189422 0)
(0.106693 0.191766 0)
(0.0868771 0.194658 0)
(0.0671464 0.197906 0)
(0.0478141 0.202111 0)
(0.028382 0.204599 0)
(0.0099096 0.208725 0)
(3 -3.26121e-16 0)
(3 -4.69241e-16 0)
(3 -9.70327e-16 0)
(3 -8.79359e-16 0)
(3 -3.0097e-16 0)
(3 -1.86078e-16 0)
(3 -3.75742e-16 0)
(3 -6.21031e-16 0)
(3 -9.29835e-16 0)
(3 -1.16729e-15 0)
(3 -1.27464e-15 0)
(3 -1.44385e-15 0)
(3 -1.81088e-15 0)
(3 -1.91031e-15 0)
(3 -1.98077e-15 0)
(3 -1.66606e-15 0)
(3 -7.38845e-16 0)
(3 -5.45357e-16 0)
(3 -5.745e-16 0)
(3 -7.16105e-16 0)
(3 -5.94807e-16 0)
(3 -9.8599e-16 0)
(3 -1.29803e-15 0)
(3 -1.04415e-15 0)
(3 -7.09504e-16 0)
(3 -5.57465e-16 0)
(3 -1.97423e-16 0)
(3 -4.20028e-16 0)
(3 -1.294e-15 0)
(3 -1.57133e-15 0)
(3 -1.5942e-15 0)
(3 -1.62195e-15 0)
(3 -2.01861e-15 0)
(3 -1.91396e-15 0)
(3 -2.47734e-15 0)
(3 -3.26653e-15 0)
(3 -3.35498e-15 0)
(3 -2.38132e-15 0)
(3 -1.9245e-15 0)
(3 -1.85309e-15 0)
(3 -2.05568e-15 0)
(3 -2.56716e-15 0)
(3 -2.52958e-15 0)
(3 -2.81079e-15 0)
(3 -2.3766e-15 0)
(3 -1.04249e-15 0)
(3 -1.04986e-15 0)
(3 -8.02543e-16 0)
(3 1.01977e-07 0)
(1.41661 0.170704 0)
(0.788527 0.153977 0)
(0.754968 0.140914 0)
(0.740115 0.1414 0)
(0.724763 0.14338 0)
(0.709851 0.147365 0)
(0.694584 0.152511 0)
(0.679223 0.157387 0)
(0.664111 0.160043 0)
(0.649541 0.160085 0)
(0.635272 0.157847 0)
(0.6209 0.154707 0)
(0.606072 0.154797 0)
(0.59216 0.159634 0)
(0.578447 0.165026 0)
(0.564277 0.166963 0)
(0.549943 0.167937 0)
(0.535508 0.170085 0)
(0.520972 0.17197 0)
(0.506377 0.173458 0)
(0.491771 0.176127 0)
(0.477144 0.179845 0)
(0.462315 0.183167 0)
(0.447297 0.185805 0)
(0.431924 0.188567 0)
(0.415867 0.191725 0)
(0.398996 0.19494 0)
(0.38158 0.198027 0)
(0.364021 0.201063 0)
(0.346521 0.204063 0)
(0.328993 0.206973 0)
(0.311168 0.209789 0)
(0.292738 0.212483 0)
(0.273526 0.214978 0)
(0.253623 0.217196 0)
(0.23334 0.2191 0)
(0.212979 0.220718 0)
(0.192662 0.222168 0)
(0.17234 0.223594 0)
(0.151922 0.225163 0)
(0.131357 0.227033 0)
(0.110683 0.229241 0)
(0.0900433 0.232094 0)
(0.069513 0.23528 0)
(0.0494788 0.23973 0)
(0.0293508 0.242384 0)
(0.0102742 0.246844 0)
(3 -1.70326e-17 0)
(3 -6.49157e-17 0)
(3 -1.40812e-16 0)
(3 -6.07282e-16 0)
(3 -5.76485e-16 0)
(3 -5.45312e-16 0)
(3 -4.36175e-16 0)
(3 -4.2746e-16 0)
(3 -3.68206e-16 0)
(3 -8.21592e-16 0)
(3 -1.11451e-15 0)
(3 -9.75742e-16 0)
(3 -3.78586e-16 0)
(3 3.15542e-16 0)
(3 3.41509e-16 0)
(3 5.1224e-16 0)
(3 4.6124e-16 0)
(3 1.84289e-16 0)
(3 -1.56509e-16 0)
(3 -1.37207e-16 0)
(3 -1.344e-16 0)
(3 -3.0086e-16 0)
(3 -7.20083e-16 0)
(3 -1.22158e-15 0)
(3 -1.39672e-15 0)
(3 -1.8983e-15 0)
(3 -1.97618e-15 0)
(3 -1.40505e-15 0)
(3 -7.099e-16 0)
(3 -5.7702e-16 0)
(3 -2.66837e-16 0)
(3 -4.14984e-17 0)
(3 -1.69194e-16 0)
(3 -4.3453e-16 0)
(3 -1.07308e-15 0)
(3 -1.23772e-15 0)
(3 -1.34524e-15 0)
(3 -1.05205e-15 0)
(3 -8.17634e-16 0)
(3 -7.00528e-16 0)
(3 -1.09211e-15 0)
(3 -7.38349e-16 0)
(3 -6.86268e-16 0)
(3 -7.86829e-16 0)
(3 -1.30586e-15 0)
(3 -1.19435e-15 0)
(3 -6.80941e-16 0)
(3 7.56912e-17 0)
(3 2.40689e-10 0)
(1.72536 0.193737 0)
(0.817666 0.184113 0)
(0.762493 0.168118 0)
(0.745359 0.166583 0)
(0.728311 0.168196 0)
(0.712551 0.172219 0)
(0.697126 0.177335 0)
(0.682068 0.181881 0)
(0.667221 0.184011 0)
(0.652559 0.184187 0)
(0.637632 0.182882 0)
(0.622369 0.180233 0)
(0.606784 0.179555 0)
(0.592194 0.183379 0)
(0.578497 0.188655 0)
(0.564527 0.19156 0)
(0.550342 0.19359 0)
(0.536017 0.196163 0)
(0.521648 0.197899 0)
(0.507425 0.199262 0)
(0.493431 0.202417 0)
(0.479612 0.207158 0)
(0.465502 0.211441 0)
(0.451131 0.214637 0)
(0.43652 0.217952 0)
(0.421376 0.221921 0)
(0.405447 0.226075 0)
(0.388893 0.230068 0)
(0.372104 0.233997 0)
(0.355301 0.23794 0)
(0.338399 0.241834 0)
(0.321117 0.245646 0)
(0.303123 0.249344 0)
(0.284177 0.252842 0)
(0.264304 0.256031 0)
(0.243802 0.258825 0)
(0.223021 0.261201 0)
(0.202142 0.263238 0)
(0.181149 0.265077 0)
(0.159956 0.266866 0)
(0.138515 0.268817 0)
(0.116858 0.270907 0)
(0.0951553 0.273672 0)
(0.0734812 0.276623 0)
(0.0523193 0.281157 0)
(0.0310629 0.283899 0)
(0.0108934 0.288613 0)
(3 2.99681e-17 0)
(3 -1.46447e-17 0)
(3 5.91174e-18 0)
(3 -1.63086e-16 0)
(3 -5.80482e-16 0)
(3 -1.37047e-15 0)
(3 -1.35354e-15 0)
(3 -8.79415e-16 0)
(3 -7.49371e-16 0)
(3 -5.89949e-16 0)
(3 -4.72126e-16 0)
(3 -1.2878e-16 0)
(3 8.31628e-17 0)
(3 1.68116e-17 0)
(3 1.71044e-16 0)
(3 3.5046e-16 0)
(3 5.88941e-16 0)
(3 6.65541e-16 0)
(3 5.33472e-16 0)
(3 2.9736e-16 0)
(3 3.34453e-16 0)
(3 3.16788e-16 0)
(3 -3.11315e-16 0)
(3 -1.05311e-15 0)
(3 -1.72997e-15 0)
(3 -2.31065e-15 0)
(3 -2.02051e-15 0)
(3 -1.40744e-15 0)
(3 -1.24735e-15 0)
(3 -1.85193e-15 0)
(3 -1.77298e-15 0)
(3 -5.43361e-16 0)
(3 5.46969e-16 0)
(3 1.32061e-15 0)
(3 1.9565e-15 0)
(3 2.19424e-15 0)
(3 1.87995e-15 0)
(3 1.17692e-15 0)
(3 3.38794e-17 0)
(3 -4.9568e-16 0)
(3 -1.00382e-15 0)
(3 -8.09511e-16 0)
(3 2.79969e-16 0)
(3 8.15422e-16 0)
(3 8.95312e-16 0)
(3 3.60444e-16 0)
(3 6.2661e-16 0)
(3 1.48508e-15 0)
(3 5.24629e-13 0)
(2.14915 0.199406 0)
(0.860635 0.218948 0)
(0.760716 0.202994 0)
(0.743662 0.197364 0)
(0.727477 0.197186 0)
(0.713148 0.200108 0)
(0.699321 0.204142 0)
(0.685803 0.207887 0)
(0.672068 0.210005 0)
(0.657947 0.211167 0)
(0.643023 0.211548 0)
(0.627321 0.210004 0)
(0.611314 0.208356 0)
(0.596075 0.210204 0)
(0.582193 0.21448 0)
(0.568335 0.218094 0)
(0.554113 0.221388 0)
(0.539532 0.224579 0)
(0.524802 0.226053 0)
(0.510319 0.226761 0)
(0.496227 0.22975 0)
(0.482626 0.235114 0)
(0.468746 0.240242 0)
(0.454505 0.243773 0)
(0.440152 0.247254 0)
(0.425549 0.251781 0)
(0.410362 0.256866 0)
(0.394594 0.261876 0)
(0.378607 0.266826 0)
(0.36265 0.271872 0)
(0.346642 0.276978 0)
(0.330274 0.282081 0)
(0.313151 0.287136 0)
(0.294926 0.292057 0)
(0.27549 0.296708 0)
(0.255073 0.300948 0)
(0.234058 0.304687 0)
(0.212715 0.307914 0)
(0.191103 0.310719 0)
(0.169162 0.313189 0)
(0.146836 0.315566 0)
(0.124142 0.317716 0)
(0.101255 0.320459 0)
(0.0782473 0.323038 0)
(0.0557241 0.327465 0)
(0.0331391 0.330171 0)
(0.0116155 0.33506 0)
(3 3.46435e-17 0)
(3 6.6219e-17 0)
(3 7.50257e-17 0)
(3 1.79742e-16 0)
(3 -9.68938e-17 0)
(3 -7.05011e-16 0)
(3 -1.28463e-15 0)
(3 -1.54588e-15 0)
(3 -1.52913e-15 0)
(3 -1.23909e-15 0)
(3 -9.21502e-16 0)
(3 -7.64684e-16 0)
(3 -1.02e-15 0)
(3 -1.35396e-15 0)
(3 -1.05951e-15 0)
(3 -7.91023e-16 0)
(3 -4.18974e-16 0)
(3 -4.76232e-17 0)
(3 3.47985e-16 0)
(3 4.75904e-16 0)
(3 4.75575e-16 0)
(3 3.35004e-16 0)
(3 2.37059e-16 0)
(3 9.1732e-17 0)
(3 -4.63376e-17 0)
(3 -5.51732e-16 0)
(3 -1.48341e-15 0)
(3 -1.87207e-15 0)
(3 -3.02734e-15 0)
(3 -3.33917e-15 0)
(3 -3.36156e-15 0)
(3 -3.57741e-15 0)
(3 -3.16727e-15 0)
(3 -1.74369e-15 0)
(3 -8.45723e-16 0)
(3 3.26544e-16 0)
(3 3.49932e-16 0)
(3 2.54993e-16 0)
(3 1.17054e-16 0)
(3 -2.18839e-17 0)
(3 -2.97571e-16 0)
(3 -7.84145e-18 0)
(3 9.34339e-17 0)
(3 4.73215e-16 0)
(3 1.31483e-15 0)
(3 1.30691e-15 0)
(3 7.89131e-16 0)
(3 7.65973e-16 0)
(3 2.08266e-15 0)
(2.68136 0.174428 0)
(0.962553 0.259088 0)
(0.784005 0.235789 0)
(0.774233 0.222611 0)
(0.755148 0.221476 0)
(0.739142 0.222944 0)
(0.723594 0.22638 0)
(0.708775 0.230116 0)
(0.694086 0.233396 0)
(0.679315 0.236776 0)
(0.664055 0.239933 0)
(0.647925 0.240655 0)
(0.63155 0.238729 0)
(0.615476 0.2384 0)
(0.600541 0.241372 0)
(0.586067 0.245913 0)
(0.571354 0.251125 0)
(0.556098 0.255685 0)
(0.540433 0.257467 0)
(0.524931 0.257589 0)
(0.509783 0.260067 0)
(0.495439 0.265775 0)
(0.480998 0.271833 0)
(0.465987 0.275814 0)
(0.450811 0.279175 0)
(0.435588 0.283816 0)
(0.420082 0.289521 0)
(0.404123 0.295366 0)
(0.38801 0.30115 0)
(0.372062 0.30711 0)
(0.356268 0.313318 0)
(0.340335 0.319714 0)
(0.323843 0.326229 0)
(0.306368 0.33276 0)
(0.287663 0.339145 0)
(0.267817 0.345173 0)
(0.247166 0.350683 0)
(0.225976 0.355581 0)
(0.20429 0.35991 0)
(0.18197 0.363686 0)
(0.158903 0.367162 0)
(0.135045 0.370028 0)
(0.110606 0.373332 0)
(0.0856795 0.375864 0)
(0.0610771 0.380259 0)
(0.0363872 0.382894 0)
(0.0127408 0.38799 0)
(3 5.07124e-17 0)
(3 -3.06082e-17 0)
(3 -8.82515e-17 0)
(3 7.17597e-17 0)
(3 -5.31263e-18 0)
(3 -2.07999e-16 0)
(3 -4.06964e-16 0)
(3 -3.56947e-16 0)
(3 -6.05229e-16 0)
(3 -6.03068e-16 0)
(3 -2.62789e-16 0)
(3 -2.14267e-16 0)
(3 -3.32795e-16 0)
(3 -4.74431e-16 0)
(3 -5.40494e-16 0)
(3 -6.42361e-16 0)
(3 -7.25642e-16 0)
(3 -7.29536e-16 0)
(3 -6.38386e-16 0)
(3 -6.86938e-16 0)
(3 -1.02027e-15 0)
(3 -1.77018e-15 0)
(3 -1.5609e-15 0)
(3 -8.20385e-16 0)
(3 -8.32821e-16 0)
(3 -8.32612e-16 0)
(3 -1.75861e-15 0)
(3 -1.74251e-15 0)
(3 -9.96326e-16 0)
(3 5.24055e-16 0)
(3 -1.49291e-16 0)
(3 -4.24928e-16 0)
(3 -2.16862e-16 0)
(3 -2.04876e-16 0)
(3 -2.25179e-16 0)
(3 -6.25956e-17 0)
(3 3.85796e-16 0)
(3 4.58644e-16 0)
(3 2.23897e-16 0)
(3 -1.55907e-16 0)
(3 3.88838e-16 0)
(3 1.65714e-15 0)
(3 1.88778e-15 0)
(3 1.84211e-15 0)
(3 2.26423e-15 0)
(3 1.84871e-15 0)
(3 1.68811e-15 0)
(3 5.51791e-16 0)
(3 2.32321e-16 0)
(3.02088 0.0103484 0)
(1.14905 0.279729 0)
(0.809972 0.233726 0)
(0.797296 0.246938 0)
(0.780516 0.251385 0)
(0.764443 0.25352 0)
(0.748703 0.255665 0)
(0.73358 0.257969 0)
(0.718886 0.26045 0)
(0.704605 0.263828 0)
(0.69052 0.267831 0)
(0.675666 0.270137 0)
(0.660059 0.269007 0)
(0.644182 0.267254 0)
(0.628714 0.268588 0)
(0.613988 0.27323 0)
(0.5995 0.279921 0)
(0.584417 0.286146 0)
(0.568483 0.289028 0)
(0.552398 0.289059 0)
(0.536371 0.290804 0)
(0.521173 0.296486 0)
(0.506241 0.30369 0)
(0.490503 0.30892 0)
(0.474302 0.312529 0)
(0.458004 0.317196 0)
(0.441605 0.323451 0)
(0.424865 0.330243 0)
(0.407959 0.336974 0)
(0.39125 0.343843 0)
(0.374824 0.351098 0)
(0.358431 0.35877 0)
(0.341655 0.366785 0)
(0.324027 0.375068 0)
(0.305153 0.383497 0)
(0.284933 0.391847 0)
(0.26363 0.399894 0)
(0.241543 0.407463 0)
(0.218754 0.414427 0)
(0.195164 0.420595 0)
(0.170722 0.426133 0)
(0.14544 0.430434 0)
(0.119609 0.434856 0)
(0.0928837 0.437731 0)
(0.0661741 0.44203 0)
(0.0393743 0.444358 0)
(0.0136149 0.449429 0)
(3 -4.54107e-18 0)
(3 2.44293e-17 0)
(3 4.43335e-17 0)
(3 2.4412e-16 0)
(3 4.76043e-16 0)
(3 5.35148e-16 0)
(3 7.44501e-16 0)
(3 7.79334e-16 0)
(3 6.48914e-16 0)
(3 8.03335e-17 0)
(3 -2.98264e-16 0)
(3 -3.38735e-16 0)
(3 -2.08994e-17 0)
(3 1.45714e-16 0)
(3 -9.74584e-17 0)
(3 -7.55951e-16 0)
(3 -8.27019e-16 0)
(3 -8.10213e-16 0)
(3 -6.81358e-16 0)
(3 -8.87185e-16 0)
(3 -8.01975e-16 0)
(3 -1.40932e-15 0)
(3 -1.90363e-15 0)
(3 -2.43409e-15 0)
(3 -2.58126e-15 0)
(3 -2.46527e-15 0)
(3 -1.64053e-15 0)
(3 -1.30011e-15 0)
(3 -7.41164e-16 0)
(3 2.29706e-16 0)
(3 7.96655e-16 0)
(3 1.43283e-15 0)
(3 1.6727e-15 0)
(3 1.99182e-15 0)
(3 1.74798e-15 0)
(3 8.96353e-16 0)
(3 5.29827e-16 0)
(3 2.17244e-16 0)
(3 -4.77186e-16 0)
(3 -7.21276e-16 0)
(3 -2.95901e-16 0)
(3 1.57541e-16 0)
(3 2.15908e-15 0)
(3 2.64044e-15 0)
(3 3.03559e-15 0)
(3 2.50564e-15 0)
(3 1.8998e-15 0)
(3 1.93898e-15 0)
(3 1.25265e-15 0)
(3.0003 1.02663e-05 0)
(1.55944 0.309119 0)
(0.824658 0.27395 0)
(0.781584 0.279903 0)
(0.767063 0.286298 0)
(0.752895 0.287069 0)
(0.739876 0.28808 0)
(0.727075 0.289458 0)
(0.714348 0.291275 0)
(0.701771 0.294309 0)
(0.68965 0.299005 0)
(0.677133 0.303342 0)
(0.663566 0.30454 0)
(0.649391 0.303366 0)
(0.634944 0.303683 0)
(0.620955 0.307716 0)
(0.607759 0.315055 0)
(0.594411 0.322766 0)
(0.580003 0.327149 0)
(0.565124 0.327808 0)
(0.550015 0.328952 0)
(0.535498 0.333948 0)
(0.521821 0.341653 0)
(0.507427 0.348226 0)
(0.492096 0.352367 0)
(0.476279 0.356784 0)
(0.460246 0.363057 0)
(0.443903 0.370452 0)
(0.427282 0.377969 0)
(0.410733 0.385584 0)
(0.394398 0.393657 0)
(0.378121 0.40238 0)
(0.361563 0.411737 0)
(0.344348 0.421708 0)
(0.326042 0.432157 0)
(0.306446 0.442856 0)
(0.285803 0.453499 0)
(0.26441 0.463825 0)
(0.242106 0.47353 0)
(0.218802 0.482135 0)
(0.194384 0.490003 0)
(0.168199 0.496567 0)
(0.140628 0.503796 0)
(0.110549 0.509753 0)
(0.0791809 0.515988 0)
(0.0470271 0.519029 0)
(0.0159551 0.523914 0)
(3 2.62694e-17 0)
(3 1.81788e-16 0)
(3 5.678e-16 0)
(3 5.65687e-16 0)
(3 1.1715e-15 0)
(3 1.91055e-15 0)
(3 1.84311e-15 0)
(3 1.55148e-15 0)
(3 1.3171e-15 0)
(3 1.21006e-15 0)
(3 7.89948e-16 0)
(3 2.86143e-16 0)
(3 1.97067e-16 0)
(3 2.17015e-16 0)
(3 5.97684e-17 0)
(3 -1.2087e-16 0)
(3 -3.22646e-16 0)
(3 -3.80801e-16 0)
(3 -7.1705e-16 0)
(3 -8.02476e-16 0)
(3 -6.07235e-16 0)
(3 -8.03896e-16 0)
(3 -1.90328e-15 0)
(3 -2.78258e-15 0)
(3 -2.79194e-15 0)
(3 -2.42963e-15 0)
(3 -1.15385e-15 0)
(3 -1.88143e-16 0)
(3 -3.32219e-17 0)
(3 -2.00364e-16 0)
(3 2.93857e-16 0)
(3 9.22122e-16 0)
(3 8.21714e-16 0)
(3 8.58164e-17 0)
(3 4.24726e-16 0)
(3 1.38319e-15 0)
(3 1.33631e-15 0)
(3 1.03061e-15 0)
(3 2.1802e-16 0)
(3 -6.22304e-16 0)
(3 -4.50507e-16 0)
(3 7.05456e-16 0)
(3 7.94727e-16 0)
(3 1.32871e-15 0)
(3 2.20993e-15 0)
(3 2.5372e-15 0)
(3 2.58525e-15 0)
(3 2.91401e-15 0)
(3 2.2869e-15 0)
(3 1.76621e-08 0)
(2.38084 0.280253 0)
(0.918409 0.333755 0)
(0.792054 0.318009 0)
(0.780099 0.313409 0)
(0.765605 0.315346 0)
(0.753156 0.316767 0)
(0.740737 0.318329 0)
(0.728233 0.319945 0)
(0.715732 0.322421 0)
(0.703745 0.326771 0)
(0.692141 0.331995 0)
(0.679736 0.335368 0)
(0.666462 0.335757 0)
(0.652575 0.335881 0)
(0.638678 0.339099 0)
(0.625722 0.346165 0)
(0.613334 0.354666 0)
(0.600145 0.360672 0)
(0.586249 0.36278 0)
(0.571968 0.364079 0)
(0.557913 0.36847 0)
(0.545009 0.376408 0)
(0.53201 0.384804 0)
(0.51776 0.390843 0)
(0.502567 0.395948 0)
(0.486879 0.402605 0)
(0.470923 0.410927 0)
(0.454718 0.419773 0)
(0.438543 0.428717 0)
(0.422493 0.438012 0)
(0.406324 0.448016 0)
(0.390083 0.458956 0)
(0.37316 0.470831 0)
(0.3551 0.483522 0)
(0.33576 0.496897 0)
(0.315092 0.510769 0)
(0.293005 0.524906 0)
(0.269513 0.53908 0)
(0.244208 0.552822 0)
(0.216946 0.566351 0)
(0.187326 0.579015 0)
(0.156216 0.592023 0)
(0.123779 0.603784 0)
(0.0901858 0.613213 0)
(0.0550873 0.618097 0)
(0.0177712 0.621232 0)
(3 6.73863e-17 0)
(3 -2.59766e-17 0)
(3 -9.18276e-18 0)
(3 -4.30303e-17 0)
(3 1.43998e-16 0)
(3 5.88033e-16 0)
(3 7.39687e-16 0)
(3 9.3586e-16 0)
(3 1.07629e-15 0)
(3 1.56219e-15 0)
(3 1.87921e-15 0)
(3 1.8761e-15 0)
(3 1.79221e-15 0)
(3 1.12673e-15 0)
(3 1.14703e-15 0)
(3 1.38502e-15 0)
(3 1.35793e-15 0)
(3 1.14651e-15 0)
(3 3.09532e-16 0)
(3 1.53441e-16 0)
(3 -1.71679e-16 0)
(3 -1.76414e-16 0)
(3 -2.22997e-16 0)
(3 7.9269e-17 0)
(3 4.32746e-17 0)
(3 -8.35473e-18 0)
(3 -1.44871e-16 0)
(3 -4.00878e-18 0)
(3 7.57051e-17 0)
(3 7.04878e-17 0)
(3 1.56459e-16 0)
(3 -3.44494e-17 0)
(3 -3.70807e-16 0)
(3 -7.35629e-16 0)
(3 -8.22899e-16 0)
(3 1.08966e-16 0)
(3 1.65887e-15 0)
(3 2.131e-15 0)
(3 2.32884e-15 0)
(3 2.4133e-15 0)
(3 2.14178e-15 0)
(3 1.05086e-15 0)
(3 9.57422e-16 0)
(3 9.1493e-16 0)
(3 1.3656e-15 0)
(3 1.92918e-15 0)
(3 1.61257e-15 0)
(3 1.35545e-15 0)
(3 1.75718e-15 0)
(3 -7.17809e-09 0)
(3.02821 0.0177605 0)
(1.25023 0.376087 0)
(0.840024 0.327264 0)
(0.818912 0.336874 0)
(0.805446 0.336876 0)
(0.791168 0.339302 0)
(0.777101 0.342668 0)
(0.76291 0.345467 0)
(0.748954 0.347993 0)
(0.735549 0.351615 0)
(0.723068 0.356856 0)
(0.710663 0.362228 0)
(0.697304 0.36574 0)
(0.68311 0.367453 0)
(0.668667 0.370324 0)
(0.654982 0.376519 0)
(0.642392 0.384918 0)
(0.62968 0.392233 0)
(0.616244 0.396494 0)
(0.60231 0.399035 0)
(0.588365 0.40324 0)
(0.575472 0.410967 0)
(0.563411 0.420717 0)
(0.550413 0.429308 0)
(0.536118 0.436181 0)
(0.52106 0.443518 0)
(0.50564 0.45268 0)
(0.490117 0.462995 0)
(0.474675 0.473655 0)
(0.459252 0.48468 0)
(0.443841 0.496306 0)
(0.428448 0.509144 0)
(0.41236 0.523248 0)
(0.395216 0.538668 0)
(0.376888 0.555399 0)
(0.357353 0.573374 0)
(0.336602 0.592497 0)
(0.314613 0.612561 0)
(0.291191 0.632979 0)
(0.26621 0.653106 0)
(0.239424 0.67169 0)
(0.210407 0.687797 0)
(0.179216 0.703407 0)
(0.142268 0.721838 0)
(0.0962726 0.743903 0)
(0.036862 0.763338 0)
(3 -2.22026e-17 0)
(3 -1.85804e-17 0)
(3 -1.40025e-16 0)
(3 -3.19683e-16 0)
(3 -6.20313e-16 0)
(3 -7.30287e-16 0)
(3 -6.93274e-16 0)
(3 -4.93626e-16 0)