/*--------------------------------*- C++ -*----------------------------------*\
  =========                 |
  \\      /  F ield         | OpenFOAM: The Open Source CFD Toolbox
   \\    /   O peration     | Website:  https://openfoam.org
    \\  /    A nd           | Version:  7
     \\/     M anipulation  |
\*---------------------------------------------------------------------------*/
FoamFile
{
    version     2.0;
    format      ascii;
    class       volScalarField;
    location    "11";
    object      p;
}
// * * * * * * * * * * * * * * * * * * * * * * * * * * * * * * * * * * * * * //

dimensions      [0 2 -2 0 0 0 0];

internalField   nonuniform List<scalar> 
8800
(
0.434918
0.387195
0.348616
0.319731
0.299006
0.284335
0.273923
0.266618
0.26191
0.259828
0.260819
0.264626
0.270864
0.279803
0.292275
0.309765
0.334357
0.368158
0.410547
0.469238
0.265932
0.273616
0.281404
0.284812
0.283459
0.278592
0.272349
0.266482
0.261899
0.25907
0.25862
0.260804
0.264893
0.27043
0.276803
0.282728
0.28611
0.28523
0.279519
0.270642
0.244172
0.250411
0.2547
0.257914
0.260232
0.261101
0.260243
0.258354
0.256442
0.255446
0.256142
0.258124
0.260463
0.26219
0.262377
0.260791
0.258092
0.254384
0.249706
0.2459
0.23798
0.240727
0.243882
0.246711
0.248712
0.250153
0.251142
0.251482
0.251319
0.251238
0.25165
0.252329
0.252657
0.252225
0.251167
0.249609
0.247287
0.244199
0.241452
0.239963
0.232502
0.234006
0.236415
0.239178
0.241601
0.24343
0.244686
0.245575
0.246189
0.246608
0.246925
0.24699
0.246652
0.2459
0.244586
0.242599
0.240064
0.237382
0.235599
0.234833
0.228303
0.229097
0.231094
0.233491
0.235781
0.237923
0.23973
0.241069
0.242
0.242645
0.242977
0.24288
0.242264
0.241049
0.239294
0.237247
0.234999
0.232734
0.231422
0.231114
0.226684
0.227084
0.228255
0.229768
0.231298
0.232731
0.234121
0.235464
0.236633
0.237502
0.237871
0.23768
0.23704
0.236122
0.235045
0.233746
0.232334
0.231003
0.230278
0.230141
0.225332
0.225539
0.226172
0.227081
0.228137
0.229447
0.230815
0.232111
0.233283
0.234241
0.234746
0.2347
0.234226
0.23341
0.232428
0.231562
0.23076
0.230058
0.229694
0.229624
0.223175
0.223289
0.223648
0.224234
0.224941
0.225668
0.22668
0.22782
0.228989
0.230053
0.230727
0.230895
0.230699
0.230338
0.229969
0.229523
0.229102
0.228742
0.228568
0.228525
0.220267
0.220326
0.220589
0.221061
0.221617
0.222445
0.223316
0.224341
0.225487
0.226662
0.227563
0.228021
0.228137
0.228017
0.227804
0.227605
0.227321
0.22708
0.226987
0.226968
0.217049
0.217084
0.217281
0.217673
0.218188
0.218856
0.219679
0.22071
0.221939
0.223299
0.22448
0.225236
0.225641
0.22582
0.22583
0.225742
0.225607
0.225493
0.22546
0.22545
0.21352
0.213546
0.2137
0.214017
0.21448
0.215109
0.215945
0.217036
0.218403
0.220018
0.221546
0.222647
0.223354
0.223773
0.223991
0.224079
0.224088
0.224077
0.224082
0.224073
0.209592
0.20962
0.209755
0.210044
0.210492
0.211139
0.212047
0.213278
0.21488
0.216856
0.218812
0.220302
0.221316
0.221985
0.222398
0.222641
0.222772
0.222842
0.222874
0.222866
0.205183
0.205206
0.20536
0.205661
0.206141
0.20686
0.2079
0.209348
0.211283
0.213728
0.216211
0.218158
0.219542
0.220481
0.221098
0.221487
0.221724
0.221857
0.221912
0.221903
0.200233
0.200259
0.200433
0.200779
0.201338
0.202189
0.203436
0.205197
0.207582
0.210634
0.213779
0.216289
0.218096
0.219337
0.220166
0.220704
0.22104
0.221232
0.221307
0.221297
0.194627
0.194658
0.194871
0.195292
0.195974
0.197017
0.198556
0.200742
0.203719
0.207553
0.211529
0.21472
0.217021
0.218621
0.219696
0.220399
0.220841
0.221093
0.221192
0.22118
0.18821
0.188249
0.188517
0.189044
0.189901
0.191212
0.193145
0.195895
0.199642
0.204471
0.209483
0.213506
0.216415
0.218441
0.219807
0.220701
0.221265
0.221587
0.221712
0.221697
0.18077
0.180821
0.181166
0.181839
0.182935
0.184607
0.187064
0.190552
0.195294
0.201385
0.207687
0.212736
0.216386
0.218928
0.220644
0.221767
0.222474
0.222879
0.223036
0.223017
0.172012
0.172078
0.172526
0.173404
0.174832
0.176999
0.180148
0.18459
0.190612
0.1983
0.206206
0.212517
0.217071
0.220241
0.222381
0.223782
0.224662
0.225163
0.225358
0.225335
0.16153
0.161617
0.162205
0.163361
0.165236
0.168041
0.172121
0.177858
0.185528
0.195229
0.205122
0.212976
0.218632
0.222569
0.225228
0.226968
0.228059
0.228676
0.228916
0.228887
0.148765
0.148884
0.149667
0.151213
0.153705
0.157418
0.162767
0.170171
0.179971
0.192203
0.204536
0.214264
0.221256
0.226126
0.229424
0.231587
0.232942
0.233706
0.234
0.233958
0.132934
0.133104
0.134169
0.136284
0.139663
0.14463
0.151689
0.161345
0.173899
0.189283
0.204574
0.216551
0.225152
0.231156
0.23524
0.237935
0.23963
0.240577
0.240939
0.240883
0.11286
0.113107
0.114612
0.117609
0.122301
0.129089
0.138587
0.151271
0.167346
0.186592
0.205401
0.220028
0.23054
0.237917
0.242975
0.246347
0.248491
0.24969
0.250129
0.250056
0.0866424
0.0870223
0.0893048
0.093803
0.100598
0.110193
0.123183
0.139919
0.160438
0.184319
0.207208
0.224879
0.237618
0.246648
0.252925
0.257177
0.259931
0.261495
0.26207
0.261969
0.0510443
0.0517359
0.0556202
0.0629332
0.0733309
0.0873209
0.105305
0.127404
0.153405
0.182687
0.210161
0.231226
0.246496
0.257486
0.2653
0.270742
0.274375
0.276476
0.277247
0.277111
-0.000164241
0.00191325
0.00988596
0.0229178
0.0396472
0.0603897
0.0852755
0.114162
0.146634
0.181953
0.214376
0.239073
0.257109
0.270345
0.280055
0.287128
0.292112
0.295201
0.296376
0.296182
-0.0773664
-0.0667789
-0.0484719
-0.0251316
0.00114063
0.0308855
0.0641849
0.100856
0.140493
0.182408
0.220243
0.249017
0.270304
0.286337
0.298596
0.308108
0.315449
0.320562
0.322967
0.323255
-0.159568
-0.136169
-0.107107
-0.073481
-0.0374611
0.00134991
0.0430699
0.0876517
0.134815
0.184028
0.228284
0.262182
0.287695
0.307422
0.323073
0.335773
0.346132
0.35515
0.360086
0.360527
-0.222829
-0.197265
-0.159962
-0.118151
-0.073685
-0.0266006
0.0230838
0.0752467
0.129607
0.185668
0.235741
0.274033
0.302899
0.325306
0.343117
0.357544
0.369236
0.378754
0.383312
0.383989
-0.273843
-0.246197
-0.20429
-0.156645
-0.105754
-0.0519487
0.00455051
0.063443
0.124333
0.186626
0.241793
0.283588
0.314778
0.338679
0.357388
0.372322
0.384342
0.393735
0.398498
0.399179
-0.314901
-0.28671
-0.241466
-0.189517
-0.133765
-0.0746358
-0.0124768
0.0522466
0.118931
0.18677
0.246386
0.291101
0.324056
0.348973
0.368211
0.383332
0.395325
0.404478
0.409361
0.41006
-0.349619
-0.321213
-0.273629
-0.218303
-0.158574
-0.09501
-0.0280683
0.0417021
0.113574
0.186535
0.250276
0.297596
0.332039
0.357729
0.377276
0.392419
0.404303
0.413216
0.418095
0.418815
-0.380005
-0.351599
-0.302195
-0.244179
-0.181174
-0.113841
-0.0427049
0.0316012
0.108217
0.1859
0.253475
0.303247
0.339098
0.365517
0.385382
0.400593
0.412397
0.421152
0.425955
0.426691
-0.407495
-0.379013
-0.328284
-0.268005
-0.202236
-0.131661
-0.0568446
0.0215071
0.10246
0.184652
0.256059
0.308361
0.3457
0.37293
0.393177
0.408512
0.420288
0.428938
0.433631
0.434382
-0.432961
-0.404379
-0.352519
-0.29034
-0.222221
-0.148868
-0.0708286
0.0111996
0.0962539
0.182854
0.258146
0.313125
0.352112
0.380284
0.401015
0.416549
0.428347
0.4369
0.441463
0.442277
-0.457063
-0.428312
-0.375465
-0.311647
-0.2415
-0.165704
-0.0847767
0.000607463
0.0895052
0.180391
0.259686
0.317585
0.358462
0.387774
0.409132
0.424958
0.436838
0.445333
0.449755
0.450598
-0.480043
-0.451086
-0.397364
-0.332218
-0.260284
-0.182342
-0.0988578
-0.0104383
0.0820556
0.177167
0.260607
0.321718
0.364796
0.395497
0.417665
0.433907
0.445941
0.454426
0.458705
0.459516
-0.502257
-0.472981
-0.418512
-0.352225
-0.278749
-0.198948
-0.113196
-0.0220132
0.0738453
0.173076
0.260796
0.325428
0.371069
0.403479
0.426689
0.443508
0.455807
0.464332
0.468464
0.4692
-0.523741
-0.494177
-0.439155
-0.371746
-0.296947
-0.215531
-0.127788
-0.034138
0.0648228
0.168013
0.260105
0.328567
0.377174
0.41167
0.436222
0.45382
0.466508
0.475128
0.479146
0.479721
-0.544576
-0.514691
-0.459176
-0.390813
-0.314886
-0.232087
-0.142629
-0.0468074
0.0549699
0.161913
0.258381
0.330938
0.382924
0.419957
0.446207
0.464838
0.47806
0.486852
0.490794
0.491162
-0.564824
-0.534594
-0.478603
-0.409437
-0.332571
-0.248596
-0.157674
-0.0599745
0.0443095
0.154738
0.255484
0.332319
0.388062
0.428106
0.456495
0.476483
0.490453
0.499486
0.503349
0.503497
-0.584528
-0.553956
-0.49744
-0.427597
-0.349931
-0.264994
-0.172854
-0.0735701
0.0328929
0.146465
0.251307
0.332462
0.392253
0.435799
0.466904
0.488653
0.503581
0.512905
0.516607
0.516562
-0.603517
-0.572627
-0.51563
-0.445243
-0.366917
-0.281195
-0.18809
-0.0875006
0.020799
0.137135
0.245738
0.331123
0.395156
0.442712
0.477207
0.501296
0.51742
0.526981
0.530388
0.530103
-0.621779
-0.590579
-0.533183
-0.462312
-0.383465
-0.297135
-0.203276
-0.101672
0.00812983
0.126807
0.238751
0.32811
0.396408
0.448333
0.48696
0.514314
0.532072
0.541588
0.544322
0.543756
-0.639346
-0.607779
-0.550051
-0.478777
-0.399511
-0.31273
-0.218319
-0.115964
-0.00500141
0.11558
0.230376
0.323298
0.395594
0.451955
0.495443
0.527451
0.548091
0.55722
0.557977
0.556945
-0.656081
-0.624247
-0.566184
-0.494566
-0.414997
-0.327904
-0.233127
-0.130257
-0.018449
0.103591
0.220671
0.316636
0.392446
0.452792
0.501444
0.539752
0.566037
0.576403
0.572632
0.569545
-0.672077
-0.639935
-0.581596
-0.509707
-0.429957
-0.342704
-0.247755
-0.144614
-0.0322827
0.0907852
0.209543
0.307884
0.386709
0.450125
0.503245
0.548872
0.584559
0.603842
0.599218
0.575064
-0.687292
-0.654899
-0.596396
-0.524362
-0.444653
-0.357429
-0.262593
-0.159502
-0.0470462
0.076497
0.196286
0.296209
0.377556
0.44281
0.497637
0.548831
0.592046
0.613449
0.601332
0.572857
-0.701613
-0.669292
-0.610424
-0.53829
-0.458809
-0.371752
-0.277411
-0.17459
-0.0624009
0.0610717
0.18115
0.281562
0.36459
0.430829
0.480947
0.530009
0.56592
0.5738
0.507962
0.462168
-0.714433
-0.683664
-0.62323
-0.550926
-0.471818
-0.385259
-0.29194
-0.189672
-0.0781233
0.0446898
0.16418
0.264047
0.347303
0.415119
0.455469
0.482307
0.503236
0.463761
0.38629
0.334872
-0.766689
-0.694669
-0.634761
-0.56371
-0.485033
-0.399229
-0.306283
-0.205002
-0.0945344
0.0269949
0.144994
0.243266
0.324188
0.39622
0.412543
0.412389
0.384098
0.315603
0.225386
0.175386
-0.722287
-0.708608
-0.650686
-0.581917
-0.503662
-0.418831
-0.327577
-0.22788
-0.119414
-0.000514187
0.113625
0.207512
0.281501
0.340082
0.346738
0.217538
0.0932655
0.00701682
-0.0822853
-0.0320248
-0.748888
-0.721957
-0.665031
-0.595735
-0.518289
-0.434219
-0.343405
-0.245059
-0.138304
-0.0217766
0.0886516
0.177438
0.244414
0.276283
0.217032
0.0365149
-0.13011
-0.24798
-0.377759
-0.292896
-0.768325
-0.737627
-0.680877
-0.611131
-0.534169
-0.450755
-0.360748
-0.263991
-0.159303
-0.0457545
0.0603506
0.142831
0.200355
0.205554
0.0741058
-0.170236
-0.378852
-0.538808
-0.723915
-0.647491
-0.786386
-0.754227
-0.696626
-0.62653
-0.549838
-0.467097
-0.378292
-0.283225
-0.180783
-0.0706178
0.0305059
0.106306
0.151737
0.116695
-0.0963941
-0.384805
-0.657621
-0.898376
-1.16949
-1.14112
-0.802847
-0.770749
-0.712563
-0.642252
-0.565857
-0.483883
-0.396437
-0.303159
-0.203207
-0.0965907
-0.000928279
0.0674275
0.0960233
0.0117386
-0.263999
-0.587672
-0.921586
-1.22656
-1.58914
-1.96299
-0.818762
-0.787083
-0.728852
-0.658551
-0.582487
-0.501313
-0.415205
-0.323843
-0.226514
-0.123549
-0.0336751
0.0262564
0.0376148
-0.0994796
-0.415853
-0.75156
-1.09904
-1.39488
-1.52872
-1.74396
-0.834755
-0.80349
-0.74556
-0.675542
-0.599952
-0.519739
-0.435145
-0.345973
-0.251548
-0.152761
-0.0693472
-0.0192607
-0.0283964
-0.231475
-0.551575
-0.873413
-1.17569
-1.36726
-1.40053
-1.43718
-0.851057
-0.820201
-0.762628
-0.693088
-0.618158
-0.539124
-0.456392
-0.369847
-0.278859
-0.184757
-0.108251
-0.0692538
-0.109428
-0.366072
-0.672321
-0.966319
-1.23117
-1.35133
-1.36565
-1.36766
-0.867783
-0.837211
-0.779958
-0.710953
-0.636846
-0.559248
-0.478715
-0.395278
-0.308282
-0.219138
-0.149913
-0.123319
-0.198617
-0.494975
-0.789248
-1.04294
-1.28771
-1.36944
-1.34178
-1.32987
-0.884688
-0.854308
-0.797338
-0.728893
-0.655786
-0.579835
-0.501957
-0.422198
-0.339723
-0.255907
-0.194373
-0.182777
-0.299296
-0.625724
-0.911358
-1.07673
-1.20921
-1.26836
-1.28498
-1.2847
-0.901379
-0.871141
-0.814401
-0.746509
-0.674535
-0.600559
-0.525755
-0.45031
-0.37316
-0.29464
-0.240336
-0.24568
-0.412501
-0.770368
-1.05682
-1.10993
-1.06028
-1.22008
-1.29763
-1.31672
-0.917125
-0.887139
-0.830561
-0.763258
-0.692539
-0.620781
-0.549507
-0.479243
-0.408178
-0.335137
-0.286781
-0.30648
-0.535796
-0.965159
-1.32677
-1.48919
-1.39976
-1.44771
-1.48671
-1.50179
-0.931287
-0.901382
-0.845109
-0.778476
-0.709036
-0.639749
-0.572599
-0.508509
-0.444738
-0.378157
-0.332174
-0.36325
-0.652849
-1.21791
-1.73968
-2.14058
-1.9592
-1.82547
-1.78715
-1.78454
-0.942932
-0.913376
-0.857207
-0.791107
-0.723088
-0.656555
-0.594221
-0.537695
-0.484437
-0.425471
-0.375444
-0.417024
-0.761903
-1.36979
-1.93224
-2.27119
-2.19268
-2.07951
-2.04502
-2.04268
-0.950748
-0.921257
-0.86555
-0.800039
-0.733551
-0.670013
-0.613148
-0.5663
-0.528287
-0.482842
-0.430428
-0.485425
-0.833652
-1.3857
-1.93446
-2.27827
-2.39818
-2.38342
-2.307
-2.29133
-0.953378
-0.924194
-0.868871
-0.804032
-0.73912
-0.678761
-0.628206
-0.593899
-0.580024
-0.567785
-0.529742
-0.575214
-0.891995
-1.4051
-1.98004
-2.51608
-2.77978
-2.76317
-2.58833
-2.47971
-0.949565
-0.920639
-0.865572
-0.801719
-0.7384
-0.681248
-0.637798
-0.619736
-0.643569
-0.712129
-0.743887
-0.752767
-0.918437
-1.27162
-1.70387
-2.2077
-2.43007
-2.35262
-2.12415
-1.98573
-0.938081
-0.909288
-0.855071
-0.791843
-0.730001
-0.675806
-0.63958
-0.640987
-0.722678
-0.958591
-1.17485
-1.02979
-0.878253
-0.82357
-0.780624
-0.778718
-0.731301
-0.579963
-0.395293
-0.302956
-0.917575
-0.888932
-0.835502
-0.773311
-0.712605
-0.660621
-0.630403
-0.651637
-0.8091
-1.31184
-1.83142
-1.38039
-0.809758
-0.197392
0.379868
0.822347
1.13852
1.33579
1.44888
1.48897
-0.887126
-0.858703
-0.806322
-0.745212
-0.685098
-0.633886
-0.607061
-0.638664
-0.852824
-1.59678
-2.48851
-1.63945
-0.669785
0.275212
1.05187
1.61935
1.98499
2.13691
2.19628
2.20974
-0.846259
-0.818371
-0.76707
-0.706934
-0.646665
-0.593472
-0.562027
-0.585283
-0.784412
-1.48959
-2.25775
-1.33891
-0.359414
0.552312
1.21117
1.63423
1.87787
1.9928
2.04371
2.05526
-0.794492
-0.767206
-0.717879
-0.658842
-0.59803
-0.54087
-0.497612
-0.493219
-0.601541
-0.979017
-1.20984
-0.571151
0.130133
0.743853
1.15132
1.40783
1.55958
1.64687
1.69351
1.69928
-0.73058
-0.705582
-0.659229
-0.602207
-0.54163
-0.481011
-0.42596
-0.388214
-0.392714
-0.456237
-0.38494
0.0281329
0.466417
0.801685
1.02981
1.18299
1.28482
1.35279
1.38575
1.39106
-0.656949
-0.633977
-0.59246
-0.538727
-0.48001
-0.41814
-0.355093
-0.293474
-0.234172
-0.15593
0.00923645
0.270519
0.535747
0.730422
0.87069
0.972325
1.04587
1.0966
1.12517
1.13427
-0.572448
-0.556892
-0.518129
-0.46932
-0.414667
-0.354888
-0.28969
-0.217852
-0.133918
-0.0192589
0.140141
0.31911
0.480413
0.603539
0.695269
0.764344
0.816736
0.853973
0.874877
0.880263
-0.465031
-0.457213
-0.429735
-0.390326
-0.344386
-0.292075
-0.232241
-0.163014
-0.0792979
0.030835
0.166454
0.30113
0.415669
0.503882
0.569322
0.616769
0.650871
0.675743
0.690756
0.694037
-0.357958
-0.354429
-0.335928
-0.306984
-0.271717
-0.229787
-0.179544
-0.118932
-0.0438133
0.0533669
0.165466
0.269548
0.354681
0.419244
0.466013
0.498882
0.521181
0.535083
0.541885
0.54348
-0.255574
-0.253794
-0.243241
-0.224317
-0.199672
-0.168598
-0.129398
-0.0797831
-0.0164502
0.0653113
0.156313
0.237024
0.300839
0.348171
0.381527
0.403966
0.418225
0.42657
0.430441
0.430842
-0.162566
-0.162349
-0.157375
-0.147147
-0.132171
-0.111353
-0.0828776
-0.04454
0.00622914
0.0724217
0.145133
0.207916
0.256164
0.290994
0.314868
0.330268
0.339451
0.344337
0.346264
0.346253
-0.0863546
-0.0869935
-0.0864719
-0.0829096
-0.0755492
-0.0627508
-0.043059
-0.0146059
0.0247997
0.0771414
0.134282
0.182665
0.21904
0.24477
0.261796
0.272332
0.278319
0.281201
0.282173
0.282024
-0.0318317
-0.0327426
-0.0343435
-0.0349395
-0.0322464
-0.0250629
-0.0119037
0.00877202
0.0386438
0.0791293
0.123392
0.160501
0.18788
0.206759
0.219053
0.22648
0.230411
0.232097
0.23258
0.2324
0.00332188
0.00249549
0.00050918
-0.00105694
-0.000621159
0.00308126
0.0114925
0.0261764
0.0485249
0.0794902
0.113415
0.141578
0.162161
0.176239
0.185142
0.190241
0.192784
0.193718
0.193897
0.193723
0.0246781
0.0240877
0.022468
0.0209442
0.0208149
0.0230442
0.0286681
0.038987
0.0553963
0.0787629
0.104623
0.126044
0.141458
0.151691
0.158002
0.161537
0.163158
0.163596
0.163596
0.163447
0.0373216
0.0369378
0.0358496
0.0347335
0.0344989
0.0359271
0.0399398
0.0475314
0.0597084
0.0772185
0.0966697
0.11266
0.124059
0.131619
0.136221
0.138671
0.139683
0.13985
0.139776
0.139657
0.0448927
0.0446452
0.0439481
0.0432153
0.0430729
0.0440593
0.0468585
0.0523403
0.0613726
0.0744971
0.0891195
0.101157
0.109698
0.115254
0.11854
0.12024
0.120887
0.120931
0.120842
0.120747
0.0492506
0.0490853
0.0486136
0.048118
0.0480499
0.0488128
0.0509067
0.0549476
0.0616174
0.0714055
0.0823551
0.0913115
0.0976005
0.101654
0.104024
0.105212
0.105622
0.105602
0.105513
0.105436
0.0512581
0.051143
0.0507987
0.0504304
0.0503749
0.0509241
0.0524583
0.0554564
0.0604236
0.0677116
0.0758634
0.0825252
0.0871894
0.0901678
0.0918779
0.092708
0.0929656
0.0929164
0.0928351
0.0927737
0.0514494
0.0513685
0.0511191
0.050849
0.0508125
0.0512241
0.0523596
0.0545726
0.0582549
0.0636817
0.0697566
0.074701
0.0781361
0.0803063
0.0815337
0.0821092
0.0822639
0.0822
0.0821278
0.0820788
0.0502806
0.050222
0.0500423
0.0498465
0.0498232
0.0501317
0.0509775
0.0526238
0.0553592
0.0593873
0.0638925
0.0675497
0.0700768
0.0716595
0.07254
0.0729379
0.0730263
0.0729593
0.072897
0.0728578
0.048115
0.048071
0.0479417
0.0478021
0.04779
0.0480223
0.0486511
0.0498714
0.0519003
0.0548897
0.0582285
0.0609295
0.0627848
0.0639355
0.0645649
0.0648375
0.0648839
0.0648202
0.0647672
0.0647358
0.0452255
0.0451916
0.0450969
0.0449966
0.044991
0.0451661
0.0456336
0.046539
0.0480419
0.0502554
0.0527225
0.054711
0.0560687
0.0569027
0.0573508
0.0575364
0.0575564
0.0574983
0.0574535
0.0574284
0.0418041
0.0417776
0.0417063
0.0416321
0.041628
0.0417573
0.042103
0.0427719
0.0438826
0.0455173
0.0473369
0.0487965
0.0497862
0.0503884
0.0507056
0.0508299
0.0508334
0.0507818
0.0507442
0.0507242
0.0379875
0.0379666
0.0379116
0.0378543
0.0378489
0.0379423
0.0381956
0.038688
0.0395057
0.0407091
0.0420449
0.0431117
0.043831
0.0442632
0.0444858
0.0445671
0.0445607
0.0445155
0.0444841
0.0444681
0.0338743
0.0338577
0.0338144
0.0337688
0.0337614
0.033827
0.0340105
0.0343695
0.0349676
0.0358484
0.0368249
0.037602
0.0381212
0.0384291
0.0385827
0.0386332
0.0386205
0.0385812
0.0385552
0.0385426
0.0295391
0.0295258
0.0294912
0.029454
0.0294446
0.0294886
0.0296189
0.0298776
0.0303116
0.0309518
0.0316602
0.0322212
0.0325931
0.0328096
0.0329139
0.0329433
0.0329273
0.0328934
0.0328718
0.032862
0.025039
0.0250284
0.0250004
0.0249694
0.024958
0.0249853
0.0250753
0.0252588
0.0255696
0.0260292
0.0265367
0.0269367
0.0271991
0.0273492
0.0274185
0.0274339
0.0274169
0.027388
0.0273703
0.0273625
0.0204161
0.0204077
0.020385
0.020359
0.0203467
0.020362
0.020422
0.020549
0.0207667
0.0210903
0.0214481
0.0217281
0.0219094
0.0220103
0.0220533
0.0220583
0.0220409
0.0220163
0.0220018
0.0219958
0.0157023
0.0156956
0.0156775
0.0156558
0.0156432
0.0156497
0.0156873
0.0157715
0.0159181
0.0161379
0.0163807
0.0165699
0.016691
0.016756
0.0167809
0.0167794
0.0167627
0.016742
0.0167302
0.0167256
0.0109224
0.0109175
0.0109031
0.010885
0.010873
0.0108738
0.0108951
0.0109468
0.011039
0.0111779
0.0113315
0.01145
0.011524
0.011562
0.0115741
0.0115694
0.0115547
0.0115379
0.0115288
0.0115256
0.00609315
0.00608966
0.00607909
0.00606642
0.00605774
0.00605612
0.0060656
0.0060917
0.00613988
0.00621253
0.00629279
0.00635401
0.00639188
0.00641061
0.00641497
0.00640981
0.00639846
0.00638603
0.00637925
0.00637721
0.00122609
0.00122569
0.00122447
0.00121964
0.00121549
0.00121338
0.00121398
0.00121724
0.00122391
0.00123501
0.00124983
0.00126377
0.00127326
0.00127866
0.00128084
0.00128037
0.00127761
0.00127316
0.00126925
0.00126843
-0.833962
-0.578061
-0.292227
-0.0634758
0.12195
0.272163
0.400139
0.508501
0.559512
0.536696
-0.377197
-0.205585
-0.0285137
0.122902
0.251473
0.359731
0.448353
0.512176
0.54566
0.556372
-0.0711986
0.0410864
0.158265
0.2624
0.352348
0.427973
0.48821
0.532238
0.562728
0.579385
0.139122
0.215357
0.297269
0.370825
0.434957
0.48924
0.533446
0.568031
0.594879
0.612334
0.295734
0.350464
0.407936
0.46232
0.510293
0.551755
0.586719
0.615206
0.638077
0.655403
0.419371
0.459366
0.504201
0.546796
0.585303
0.619382
0.648749
0.672995
0.692472
0.709572
0.523388
0.556149
0.594998
0.631354
0.665011
0.695231
0.721404
0.74288
0.759481
0.776479
0.61916
0.650907
0.687944
0.72262
0.754511
0.783038
0.807445
0.827056
0.841188
0.858242
0.718929
0.753696
0.792184
0.827421
0.858876
0.886264
0.9092
0.927202
0.939616
0.957074
0.836668
0.875499
0.915212
0.950439
0.980683
1.00618
1.02716
1.04353
1.05537
1.07351
0.983257
1.02239
1.05919
1.09045
1.11666
1.13924
1.15869
1.17454
1.18722
1.20529
1.15941
1.19133
1.21789
1.24071
1.26102
1.28002
1.29798
1.31465
1.33015
1.34827
1.34864
1.36602
1.38127
1.39773
1.41383
1.4285
1.44182
1.45586
1.47353
1.49374
1.53064
1.54029
1.55196
1.56284
1.5722
1.58195
1.59291
1.60434
1.61574
1.63112
1.73818
1.74186
1.72695
1.71222
1.70607
1.7118
1.73031
1.76068
1.79289
1.81956
2.0445
1.90965
1.83313
1.79089
1.77345
1.77747
1.8049
1.86131
1.96396
2.18834
0.325497
0.323432
0.318943
0.310435
0.298376
0.286444
0.276421
0.268711
0.263226
0.259994
0.259485
0.261873
0.266575
0.2734
0.282425
0.293645
0.306026
0.316855
0.3229
0.325876
0.249751
0.255639
0.262052
0.266738
0.269403
0.269279
0.266763
0.263194
0.259871
0.257644
0.257312
0.259154
0.262359
0.26618
0.269573
0.27112
0.269897
0.266137
0.260775
0.254093
0.240858
0.243161
0.246813
0.250166
0.2526
0.254432
0.2555
0.255432
0.254535
0.253636
0.253606
0.254673
0.256062
0.256892
0.256577
0.255205
0.253194
0.250411
0.246762
0.243683
0.235239
0.2363
0.238442
0.241326
0.243822
0.245606
0.246868
0.247795
0.248371
0.248678
0.248971
0.249265
0.249302
0.248872
0.248013
0.246685
0.244654
0.24195
0.239344
0.2378
0.230044
0.230551
0.23217
0.234818
0.237458
0.239866
0.24177
0.243064
0.243922
0.2445
0.244918
0.245142
0.244959
0.244285
0.242961
0.24095
0.238538
0.235938
0.233709
0.232785
0.227311
0.227505
0.228535
0.230398
0.232335
0.234108
0.235784
0.237355
0.238666
0.239645
0.240227
0.240271
0.239787
0.23881
0.237524
0.236054
0.234329
0.232482
0.230969
0.23049
0.226071
0.226166
0.226723
0.227791
0.229009
0.230432
0.231814
0.233141
0.23435
0.235381
0.236072
0.236237
0.23591
0.235222
0.234293
0.233095
0.232023
0.230991
0.230195
0.229951
0.224381
0.224432
0.224726
0.225336
0.226121
0.226993
0.228121
0.229362
0.230607
0.231737
0.232568
0.232865
0.23267
0.232156
0.231479
0.230864
0.230263
0.229698
0.229313
0.229191
0.221776
0.2218
0.22198
0.222414
0.223019
0.223646
0.224438
0.225457
0.226566
0.227704
0.228686
0.229238
0.229366
0.229218
0.228971
0.228763
0.228402
0.228052
0.227834
0.227777
0.218693
0.218698
0.218821
0.219163
0.219661
0.220304
0.221105
0.222037
0.223149
0.224389
0.225574
0.226401
0.226812
0.226964
0.226912
0.226661
0.226541
0.226336
0.226221
0.2262
0.215329
0.21533
0.21542
0.215685
0.216104
0.216658
0.217379
0.21831
0.21948
0.220871
0.222331
0.223487
0.224213
0.224628
0.224834
0.224889
0.224859
0.224789
0.224754
0.22475
0.211611
0.211611
0.211686
0.211909
0.212282
0.212818
0.213561
0.214566
0.215876
0.217511
0.219327
0.220868
0.22193
0.222611
0.223029
0.223261
0.223374
0.22342
0.223446
0.223453
0.207453
0.207448
0.207534
0.207748
0.208115
0.208674
0.209485
0.210622
0.212159
0.214139
0.21641
0.218424
0.219849
0.220836
0.221479
0.221885
0.222129
0.222268
0.222341
0.222357
0.202783
0.202777
0.202869
0.203108
0.20352
0.204156
0.205099
0.206449
0.208307
0.210747
0.2136
0.21617
0.218048
0.219371
0.22026
0.220839
0.221204
0.221424
0.221535
0.22156
0.197524
0.197515
0.197627
0.197911
0.198399
0.199163
0.200306
0.201958
0.204255
0.207297
0.210888
0.214157
0.216582
0.218281
0.219442
0.22021
0.220702
0.221001
0.221152
0.221185
0.191536
0.191524
0.191664
0.192017
0.192623
0.19357
0.194992
0.197054
0.199931
0.203752
0.208277
0.212409
0.215473
0.217642
0.219126
0.220112
0.220747
0.221134
0.221329
0.221371
0.184636
0.18462
0.1848
0.185248
0.186018
0.187216
0.189013
0.191621
0.195256
0.200078
0.20578
0.21098
0.214834
0.217565
0.219436
0.220682
0.221487
0.221979
0.222224
0.222277
0.176574
0.176553
0.176789
0.177372
0.178359
0.179888
0.182184
0.185514
0.19014
0.196242
0.203421
0.209944
0.214767
0.218183
0.220524
0.222085
0.223096
0.223716
0.224025
0.224089
0.167008
0.166983
0.167296
0.168057
0.16934
0.171319
0.174303
0.178594
0.184482
0.192214
0.201243
0.209397
0.215407
0.219658
0.222571
0.224516
0.225782
0.226562
0.22695
0.227028
0.155467
0.155439
0.155864
0.156878
0.158566
0.161171
0.165058
0.170594
0.178167
0.18798
0.19931
0.209462
0.216916
0.222183
0.225794
0.228208
0.229784
0.230765
0.231253
0.23135
0.141274
0.141241
0.141836
0.143217
0.145481
0.148954
0.154091
0.161347
0.171106
0.183554
0.197719
0.210287
0.219481
0.225978
0.23044
0.233427
0.235382
0.236605
0.237214
0.237336
0.123433
0.1234
0.12427
0.126206
0.129328
0.134082
0.141011
0.150588
0.163208
0.178977
0.196589
0.212038
0.223303
0.231282
0.236786
0.240487
0.242916
0.244442
0.245215
0.245369
0.100449
0.100444
0.101774
0.104585
0.109046
0.115739
0.125245
0.13804
0.154426
0.174334
0.196062
0.214878
0.228567
0.238314
0.245103
0.249717
0.252772
0.254705
0.255695
0.255895
0.0698995
0.069993
0.0721619
0.0765081
0.0832419
0.0930284
0.106385
0.123646
0.14489
0.169822
0.196328
0.218967
0.235422
0.247242
0.255608
0.26141
0.265331
0.267854
0.269142
0.269398
0.0272669
0.0276581
0.0317693
0.0393514
0.0503341
0.0652903
0.0843934
0.10768
0.134973
0.165781
0.197626
0.224442
0.243938
0.258116
0.268378
0.275721
0.280868
0.284326
0.286119
0.286446
-0.0356901
-0.0336205
-0.0239765
-0.00945833
0.00949074
0.0326863
0.059832
0.0907795
0.125223
0.162586
0.20013
0.23131
0.254003
0.270735
0.283169
0.292432
0.299278
0.304112
0.30684
0.307188
-0.110873
-0.107435
-0.0896695
-0.06383
-0.0343087
-0.00161848
0.0342931
0.0734238
0.115538
0.160163
0.204388
0.241099
0.26818
0.288656
0.304439
0.316778
0.326573
0.333884
0.336882
0.338306
-0.188093
-0.178035
-0.151575
-0.115629
-0.0766001
-0.0347845
0.00970929
0.0568733
0.106573
0.158431
0.209352
0.251563
0.282889
0.306887
0.325761
0.340897
0.353146
0.362726
0.368196
0.370469
-0.245977
-0.234758
-0.203344
-0.16096
-0.11459
-0.0652704
-0.013282
0.0412241
0.0979813
0.156561
0.213584
0.260542
0.295201
0.321598
0.34218
0.35848
0.371492
0.38161
0.387772
0.390231
-0.292495
-0.280879
-0.246026
-0.199017
-0.147333
-0.0922395
-0.0341439
0.0266044
0.0895873
0.154219
0.216632
0.267531
0.304689
0.332625
0.354115
0.370929
0.384188
0.394407
0.400626
0.403047
-0.330522
-0.31899
-0.2822
-0.231698
-0.17586
-0.116162
-0.0530373
0.0130409
0.081479
0.151516
0.218827
0.273273
0.312555
0.341702
0.363813
0.380864
0.394123
0.404272
0.410478
0.412799
-0.363332
-0.351947
-0.313702
-0.260504
-0.201297
-0.137741
-0.0703464
0.000357609
0.0736879
0.148711
0.220568
0.278246
0.319424
0.349601
0.372197
0.389413
0.402668
0.412743
0.418959
0.421174
-0.392458
-0.381222
-0.341988
-0.286611
-0.224625
-0.157815
-0.0866924
-0.0118603
0.0659002
0.145497
0.221651
0.282505
0.325589
0.35683
0.379959
0.397392
0.410692
0.420711
0.426954
0.429078
-0.419097
-0.407948
-0.367887
-0.310709
-0.246415
-0.176824
-0.102481
-0.0240166
0.0577745
0.141743
0.222172
0.286293
0.331403
0.363818
0.38757
0.405287
0.418683
0.428691
0.434952
0.436981
-0.444016
-0.432915
-0.392127
-0.333402
-0.267142
-0.195175
-0.118014
-0.0362552
0.0492864
0.137436
0.222123
0.289656
0.336999
0.370777
0.395294
0.413395
0.426946
0.436964
0.44325
0.44516
-0.467637
-0.456546
-0.415143
-0.355113
-0.287143
-0.213072
-0.133411
-0.0487048
0.0402819
0.132414
0.221397
0.292573
0.342429
0.377828
0.403305
0.42192
0.435706
0.445795
0.452046
0.453901
-0.490333
-0.479185
-0.437193
-0.376067
-0.306621
-0.230726
-0.148867
-0.0615242
0.0306447
0.126592
0.219884
0.294958
0.34767
0.385006
0.41169
0.430989
0.445115
0.455319
0.461549
0.463365
-0.512298
-0.501005
-0.458438
-0.39645
-0.325687
-0.248232
-0.164448
-0.0747412
0.0203303
0.119899
0.217471
0.296679
0.352616
0.392255
0.420456
0.440664
0.455277
0.465684
0.471889
0.473688
-0.533556
-0.522103
-0.479074
-0.416283
-0.344389
-0.265583
-0.180137
-0.0883637
0.00932341
0.112265
0.214056
0.297579
0.357096
0.399444
0.429527
0.450925
0.466225
0.476946
0.483159
0.484927
-0.554239
-0.542574
-0.499152
-0.435575
-0.362743
-0.282793
-0.195928
-0.102366
-0.00236183
0.103679
0.20953
0.29746
0.360881
0.406394
0.438806
0.461734
0.477942
0.489115
0.495387
0.497031
-0.574267
-0.56241
-0.518645
-0.454349
-0.380726
-0.299811
-0.211755
-0.116684
-0.0146776
0.0941408
0.203804
0.296119
0.363702
0.412881
0.448139
0.473016
0.490372
0.502102
0.508455
0.509938
-0.593694
-0.581613
-0.537447
-0.472575
-0.398286
-0.31658
-0.227547
-0.131232
-0.0275399
0.0836943
0.196848
0.293396
0.365264
0.418519
0.457189
0.484569
0.503443
0.515831
0.5222
0.523455
-0.612333
-0.600149
-0.555551
-0.490201
-0.415358
-0.333015
-0.243229
-0.145918
-0.0408495
0.0724308
0.18866
0.289178
0.365257
0.422766
0.465497
0.496185
0.517133
0.530216
0.536341
0.537244
-0.630313
-0.617938
-0.572965
-0.507199
-0.431907
-0.349068
-0.258702
-0.160648
-0.0544982
0.060458
0.179279
0.283351
0.36341
0.425147
0.472443
0.507501
0.531592
0.545577
0.550745
0.550843
-0.647495
-0.634927
-0.589655
-0.523515
-0.447853
-0.364655
-0.27388
-0.175296
-0.068365
0.0478724
0.168816
0.275871
0.359529
0.425244
0.477234
0.517742
0.546874
0.563098
0.566044
0.563537
-0.663928
-0.651198
-0.60557
-0.539103
-0.463158
-0.379716
-0.288682
-0.189781
-0.0823215
0.0348398
0.157401
0.266808
0.353524
0.422617
0.478714
0.525159
0.561833
0.584488
0.587364
0.575818
-0.67955
-0.666688
-0.620798
-0.554086
-0.478008
-0.394516
-0.303431
-0.204498
-0.096836
0.0208268
0.144434
0.255518
0.344701
0.416546
0.475257
0.526892
0.572413
0.605838
0.613064
0.606223
-0.694349
-0.681255
-0.635368
-0.568428
-0.4924
-0.409059
-0.318102
-0.219446
-0.111922
0.005764
0.129796