/*--------------------------------*- C++ -*----------------------------------*\
  =========                 |
  \\      /  F ield         | OpenFOAM: The Open Source CFD Toolbox
   \\    /   O peration     | Website:  https://openfoam.org
    \\  /    A nd           | Version:  7
     \\/     M anipulation  |
\*---------------------------------------------------------------------------*/
FoamFile
{
    version     2.0;
    format      ascii;
    class       volScalarField;
    location    "2.5";
    object      p;
}
// * * * * * * * * * * * * * * * * * * * * * * * * * * * * * * * * * * * * * //

dimensions      [1 -1 -2 0 0 0 0];

internalField   nonuniform List<scalar> 
19968
(
1
1
1
1
1
1
1
1
1
1
1
1
1
1
1
1
1
1
1
1
1
1
1
1
1
1
1
1
1
1
1
1
1
1
1
1
1
1
1
1
1
1
1
1
1
1
1
1
1
3.93235
10.0123
10.4514
10.5014
10.5696
10.6295
10.6871
10.7447
10.8061
10.8711
10.9337
10.9895
11.0354
11.0735
11.1113
11.1558
11.2082
11.2643
11.3184
11.3662
11.4042
11.4348
11.4647
11.499
11.5404
11.5879
11.6357
11.6781
11.7132
11.7429
11.7703
11.7978
11.8245
11.8479
11.8673
11.8845
11.9022
11.9234
11.9481
11.9736
11.9978
12.0186
12.0348
12.0429
12.0447
12.0428
12.0373
1
1
1
1
1
1
1
1
1
1
1
1
1
1
1
1
1
1
1
1
1
1
1
1
1
1
1
1
1
1
1
1
1
1
1
1
1
1
1
1
1
1
1
1
1
1
1
1
1
3.86684
9.99219
10.437
10.4914
10.5637
10.6247
10.6831
10.7413
10.8027
10.8672
10.9285
10.9832
11.0296
11.0688
11.1075
11.1524
11.2049
11.2608
11.3143
11.3614
11.3991
11.4305
11.4617
11.4971
11.5383
11.5843
11.6303
11.6719
11.7079
11.7392
11.7676
11.7944
11.8193
11.8409
11.8597
11.8776
11.8966
11.9188
11.9438
11.969
11.9924
12.0128
12.0285
12.0364
12.0383
12.0367
12.0316
1
1
1
1
1
1
1
1
1
1
1
1
1
1
1
1
1
1
1
1
1
1
1
1
1
1
1
1
1
1
1
1
1
1
1
1
1
1
1
1
1
1
1
1
1
1
1
1
1
3.72179
9.93062
10.4231
10.4767
10.5558
10.6182
10.6762
10.7334
10.7941
10.8574
10.9175
10.9718
11.0195
11.0601
11.1001
11.1452
11.1976
11.253
11.3059
11.3527
11.3907
11.4235
11.4563
11.4928
11.5336
11.5776
11.6213
11.6622
11.6994
11.7328
11.7624
11.7883
11.8107
11.83
11.8483
11.8674
11.8882
11.9116
11.9366
11.9609
11.983
12.0023
12.0173
12.0248
12.0268
12.0254
12.021
1
1
1
1
1
1
1
1
1
1
1
1
1
1
1
1
1
1
1
1
1
1
1
1
1
1
1
1
1
1
1
1
1
1
1
1
1
1
1
1
1
1
1
1
1
1
1
1
1
3.47895
9.82134
10.4159
10.4676
10.5479
10.6094
10.6671
10.7231
10.7823
10.8431
10.9015
10.9555
11.0044
11.0468
11.0881
11.1335
11.1852
11.2393
11.2909
11.3377
11.3768
11.4119
11.4468
11.4841
11.5237
11.5653
11.6071
11.6478
11.6864
11.7213
11.751
11.775
11.7947
11.8125
11.8314
11.8525
11.8757
11.9003
11.9251
11.9483
11.9689
11.9867
12.0003
12.0072
12.009
12.0078
12.0042
1
1
1
1
1
1
1
1
1
1
1
1
1
1
1
1
1
1
1
1
1
1
1
1
1
1
1
1
1
1
1
1
1
1
1
1
1
1
1
1
1
1
1
1
1
1
1
1
1
3.1453
9.62817
10.4049
10.4596
10.5397
10.599
10.6543
10.7082
10.7662
10.8261
10.884
10.9375
10.9868
11.0306
11.073
11.1184
11.1689
11.2209
11.2708
11.3174
11.3579
11.3955
11.4319
11.469
11.5068
11.5462
11.5871
11.6286
11.6685
11.7038
11.7321
11.7537
11.7715
11.7893
11.8099
11.8336
11.8587
11.8838
11.9077
11.9295
11.9488
11.9651
11.9771
11.9836
11.9854
11.9847
11.9821
1
1
1
1
1
1
1
1
1
1
1
1
1
1
1
1
1
1
1
1
1
1
1
1
1
1
1
1
1
1
1
1
1
1
1
1
1
1
1
1
1
1
1
1
1
1
1
1
1
2.72183
9.34283
10.3926
10.4485
10.5298
10.5888
10.644
10.6959
10.7501
10.8062
10.8617
10.9138
10.9637
11.0093
11.0528
11.0974
11.1453
11.1947
11.243
11.29
11.3322
11.372
11.4093
11.446
11.4828
11.5218
11.5631
11.6054
11.645
11.6781
11.703
11.7218
11.7389
11.7582
11.7813
11.8074
11.8339
11.8589
11.8819
11.9025
11.9209
11.9359
11.9465
11.9527
11.9549
11.9552
11.954
1
1
1
1
1
1
1
1
1
1
1
1
1
1
1
1
1
1
1
1
1
1
1
1
1
1
1
1
1
1
1
1
1
1
1
1
1
1
1
1
1
1
1
1
1
1
1
1
1
2.21727
8.90902
10.3855
10.4368
10.5143
10.5733
10.6294
10.6812
10.7333
10.7868
10.8403
10.891
10.9401
10.9864
11.0306
11.0745
11.1205
11.1681
11.2153
11.2626
11.3057
11.3461
11.3831
11.4189
11.4548
11.4931
11.5338
11.5747
11.6116
11.6413
11.6633
11.6811
11.6991
11.7206
11.7462
11.7743
11.802
11.827
11.8492
11.8687
11.8858
11.899
11.9073
11.9126
11.9149
11.9161
11.9163
1
1
1
1
1
1
1
1
1
1
1
1
1
1
1
1
1
1
1
1
1
1
1
1
1
1
1
1
1
1
1
1
1
1
1
1
1
1
1
1
1
1
1
1
1
1
1
1
1
1.71141
8.26978
10.3815
10.4257
10.4922
10.5481
10.6046
10.657
10.708
10.7596
10.8107
10.8599
10.908
10.9545
10.9997
11.0447
11.0907
11.1381
11.1848
11.2314
11.2738
11.3139
11.3506
11.3864
11.4221
11.4591
11.4974
11.5345
11.5672
11.5936
11.6145
11.633
11.6532
11.6772
11.7049
11.7342
11.7621
11.7868
11.8079
11.8259
11.8404
11.8504
11.856
11.8593
11.8611
11.8629
11.8639
1
1
1
1
1
1
1
1
1
1
1
1
1
1
1
1
1
1
1
1
1
1
1
1
1
1
1
1
1
1
1
1
1
1
1
1
1
1
1
1
1
1
1
1
1
1
1
1
1
1.25451
7.37457
10.3727
10.3969
10.4641
10.5236
10.5841
10.6403
10.6928
10.7442
10.7945
10.8421
10.8875
10.9311
10.974
11.0177
11.0624
11.1079
11.1518
11.1947
11.2334
11.2709
11.3064
11.3419
11.3768
11.4117
11.4458
11.4781
11.5071
11.5322
11.5544
11.576
11.5991
11.6248
11.6528
11.6813
11.708
11.7314
11.7511
11.7675
11.7793
11.7861
11.7895
11.7915
11.7932
11.7955
11.797
1
1
1
1
1
1
1
1
1
1
1
1
1
1
1
1
1
1
1
1
1
1
1
1
1
1
1
1
1
1
1
1
1
1
1
1
1
1
1
1
1
1
1
1
1
1
1
1
1
1.00539
6.07536
10.2903
10.3546
10.4085
10.4709
10.527
10.5782
10.6258
10.6736
10.7218
10.7687
10.8139
10.8572
10.8998
10.9439
10.9891
11.0348
11.0786
11.1208
11.1589
11.1963
11.2333
11.2701
11.305
11.3384
11.3695
11.3987
11.4259
11.4513
11.4754
11.4992
11.5235
11.5488
11.5753
11.6022
11.6278
11.6509
11.6703
11.6857
11.696
11.7015
11.7042
11.7061
11.7083
11.7111
11.7126
1
1
1
1
1
1
1
1
1
1
1
1
1
1
1
1
1
1
1
1
1
1
1
1
1
1
1
1
1
1
1
1
1
1
1
1
1
1
1
1
1
1
1
1
1
1
1
1
1
1.00001
4.51295
9.95913
10.2848
10.3546
10.4296
10.4925
10.5468
10.5939
10.6392
10.684
10.7277
10.7705
10.8124
10.8539
10.8967
10.9398
10.9825
11.0227
11.0607
11.0954
11.1291
11.1635
11.1975
11.2292
11.2587
11.2862
11.3125
11.3378
11.3622
11.3859
11.4089
11.4313
11.4535
11.4761
11.4991
11.5217
11.5427
11.5604
11.5742
11.5842
11.5905
11.5943
11.5978
11.6011
11.604
11.6052
1
1
1
1
1
1
1
1
1
1
1
1
1
1
1
1
1
1
1
1
1
1
1
1
1
1
1
1
1
1
1
1
1
1
1
1
1
1
1
1
1
1
1
1
1
1
1
1
1
1
2.83904
9.23927
10.2364
10.2949
10.3762
10.4388
10.4949
10.5434
10.5889
10.6325
10.6751
10.7168
10.7579
10.7989
10.8408
10.8829
10.9243
10.9626
10.9977
11.03
11.0601
11.091
11.1212
11.1499
11.1761
11.2007
11.2237
11.2455
11.2663
11.286
11.3051
11.3233
11.3409
11.3587
11.3773
11.3959
11.4134
11.4276
11.4379
11.4439
11.4463
11.4465
11.4464
11.4464
11.4465
11.4457
1
1
1
1
1
1
1
1
1
1
1
1
1
1
1
1
1
1
1
1
1
1
1
1
1
1
1
1
1
1
1
1
1
1
1
1
1
1
1
1
1
1
1
1
1
1
1
1
1
1
1.42101
7.71624
10.318
10.338
10.3895
10.4342
10.4781
10.519
10.5578
10.5948
10.6305
10.6652
10.6997
10.7344
10.7706
10.8079
10.8455
10.8805
10.9116
10.94
10.9648
10.9902
11.0159
11.0415
11.0652
11.0874
11.1076
11.1255
11.1415
11.1559
11.1693
11.1819
11.193
11.2031
11.2131
11.223
11.2315
11.2375
11.2412
11.2429
11.2436
11.2447
11.2458
11.2469
11.247
11.2464
1
1
1
1
1
1
1
1
1
1
1
1
1
1
1
1
1
1
1
1
1
1
1
1
1
1
1
1
1
1
1
1
1
1
1
1
1
1
1
1
1
1
1
1
1
1
1
1
1
1
1.00599
5.27768
10.052
10.2002
10.2423
10.2986
10.3478
10.3943
10.4376
10.4782
10.516
10.5515
10.5852
10.6185
10.6531
10.6895
10.7268
10.7618
10.792
10.8185
10.8406
10.8617
10.8843
10.9077
10.9298
10.9497
10.9665
10.9804
10.9915
10.999
11.0054
11.0114
11.015
11.0171
11.0182
11.0186
11.0188
11.0183
11.0159
11.0107
11.0012
10.9884
10.9689
10.9449
10.9192
10.8959
1
1
1
1
1
1
1
1
1
1
1
1
1
1
1
1
1
1
1
1
1
1
1
1
1
1
1
1
1
1
1
1
1
1
1
1
1
1
1
1
1
1
1
1
1
1
1
1
1
1
1
2.56561
8.89122
10.1408
10.1875
10.2448
10.294
10.3384
10.3791
10.4163
10.4502
10.4809
10.5091
10.5363
10.5646
10.5952
10.6277
10.659
10.6855
10.7071
10.7241
10.7375
10.7526
10.7691
10.7837
10.7964
10.8069
10.8143
10.8164
10.8145
10.8109
10.8052
10.7965
10.7849
10.7696
10.7513
10.73
10.7043
10.6721
10.6316
10.584
10.5335
10.4892
10.451
10.4325
10.4223
1
1
1
1
1
1
1
1
1
1
1
1
1
1
1
1
1
1
1
1
1
1
1
1
1
1
1
1
1
1
1
1
1
1
1
1
1
1
1
1
1
1
1
1
1
1
1
1
1
1
1
1.06417
6.06917
10.0781
10.1671
10.1933
10.2337
10.2676
10.3014
10.333
10.3621
10.3878
10.4102
10.4308
10.4515
10.4742
10.499
10.5244
10.5465
10.5645
10.5778
10.584
10.5901
10.5971
10.6023
10.6065
10.6088
10.6087
10.6012
10.5888
10.572
10.5506
10.5256
10.4957
10.4603
10.4195
10.3732
10.3208
10.2613
10.195
10.1228
10.0484
9.96148
9.87975
9.76602
9.85781
1
1
1
1
1
1
1
1
1
1
1
1
1
1
1
1
1
1
1
1
1
1
1
1
1
1
1
1
1
1
1
1
1
1
1
1
1
1
1
1
1
1
1
1
1
1
1
1
1
1
1
0.999054
3.10968
9.13647
10.0245
10.0678
10.1284
10.1723
10.2089
10.2415
10.2706
10.2962
10.3174
10.3349
10.3507
10.3669
10.3849
10.4047
10.4235
10.4393
10.4483
10.45
10.4483
10.4449
10.4401
10.4348
10.4284
10.4183
10.4015
10.3776
10.3464
10.3084
10.2648
10.2146
10.1566
10.0891
10.0096
9.91493
9.79802
9.65343
9.46203
9.20948
8.83633
8.28692
7.36509
5.48403
1
1
1
1
1
1
1
1
1
1
1
1
1
1
1
1
1
1
1
1
1
1
1
1
1
1
1
1
1
1
1
1
1
1
1
1
1
1
1
1
1
1
1
1
1
1
1
1
1
1
1
0.999842
1.19184
7.25883
10.1133
10.0848
10.0965
10.1253
10.1485
10.1726
10.1957
10.2174
10.2355
10.2496
10.2611
10.2719
10.2831
10.296
10.3103
10.3227
10.3285
10.3275
10.3197
10.308
10.294
10.2791
10.264
10.2451
10.2199
10.1863
10.1433
10.091
10.0298
9.96013
9.88004
9.78749
9.67558
9.5409
9.36875
9.15718
8.87419
8.5162
8.00407
7.35833
6.14089
4.52461
1
1
1
1
1
1
1
1
1
1
1
1
1
1
1
1
1
1
1
1
1
1
1
1
1
1
1
1
1
1
1
1
1
1
1
1
1
1
1
1
1
1
1
1
1
1
1
1
1
1
1
0.999994
1.00118
4.30082
9.49849
9.95605
9.99387
10.0263
10.0515
10.0762
10.0998
10.1222
10.1411
10.155
10.1644
10.1709
10.176
10.1822
10.1917
10.2004
10.2038
10.1992
10.1865
10.1682
10.1458
10.1216
10.0967
10.0683
10.0335
9.99006
9.93608
9.87069
9.79258
9.70343
9.60027
9.48297
9.3413
9.17213
8.95856
8.69625
8.36495
7.94258
7.41765
6.65073
5.64005
4.5556
1
1
1
1
1
1
1
1
1
1
1
1
1
1
1
1
1
1
1
1
1
1
1
1
1
1
1
1
1
1
1
1
1
1
1
1
1
1
1
1
1
1
1
1
1
1
1
1
1
1
1
1
0.999999
1.62497
7.88256
9.96914
9.9365
9.95012
9.97491
9.99558
10.0157
10.035
10.052
10.0637
10.0708
10.073
10.0721
10.0709
10.0718
10.0739
10.0735
10.0655
10.05
10.026
9.99609
9.96211
9.92557
9.88665
9.84178
9.78913
9.72515
9.64903
9.55708
9.45134
9.32823
9.18896
9.02453
8.83004
8.59285
8.30382
7.9527
7.5193
6.99179
6.31007
5.54162
4.72988
1
1
1
1
1
1
1
1
1
1
1
1
1
1
1
1
1
1
1
1
1
1
1
1
1
1
1
1
1
1
1
1
1
1
1
1
1
1
1
1
1
1
1
1
1
1
1
1
1
1
1
1
1
1.01287
4.76936
9.59793
9.81331
9.84693
9.87904
9.90069
9.91862
9.93536
9.95048
9.96187
9.96915
9.97003
9.96459
9.95655
9.94887
9.94391
9.93784
9.9269
9.90728
9.87832
9.8425
9.80096
9.75377
9.70444
9.64953
9.58802
9.51529
9.43022
9.32791
9.20916
9.07116
8.91508
8.73594
8.52757
8.28195
7.98803
7.64731
7.22401
6.74049
6.18452
5.56926
4.93437
1
1
1
1
1
1
1
1
1
1
1
1
1
1
1
1
1
1
1
1
1
1
1
1
1
1
1
1
1
1
1
1
1
1
1
1
1
1
1
1
1
1
1
1
1
1
1
1
1
1
1
1
1
0.999998
1.68997
7.90207
9.81436
9.79648
9.8154
9.82924
9.841
9.84932
9.85819
9.86539
9.87002
9.8698
9.86175
9.84787
9.83256
9.81865
9.80517
9.78949
9.76662
9.73584
9.69636
9.64865
9.59237
9.5323
9.46658
9.39545
9.31489
9.22264
9.11353
8.98595
8.83798
8.67096
8.48298
8.26939
8.02529
7.73909
7.41948
7.02903
6.61249
6.14226
5.64384
5.12295
1
1
1
1
1
1
1
1
1
1
1
1
1
1
1
1
1
1
1
1
1
1
1
1
1
1
1
1
1
1
1
1
1
1
1
1
1
1
1
1
1
1
1
1
1
1
1
1
1
1
1
1
1
0.999999
1.01467
4.49018
9.36662
9.68356
9.70073
9.72619
9.74446
9.75561
9.76125
9.76665
9.76928
9.76908
9.76085
9.74293
9.71997
9.69582
9.67229
9.64943
9.623
9.58814
9.54512
9.4928
9.43035
9.36234
9.28761
9.2075
9.1198
9.02207
8.90943
8.77782
8.62534
8.45363
8.26302
8.05036
7.8148
7.54141
7.24714
6.90177
6.54256
6.14194
5.72267
5.28553
1
1
1
1
1
1
1
1
1
1
1
1
1
1
1
1
1
1
1
1
1
1
1
1
1
1
1
1
1
1
1
1
1
1
1
1
1
1
1
1
1
1
1
1
1
1
1
1
1
1
1
1
1
1
1
1.37157
7.40555
9.75442
9.70048
9.69204
9.69184
9.68565
9.67775
9.67126
9.66529
9.66056
9.65266
9.63485
9.60822
9.57724
9.54445
9.51341
9.48228
9.44445
9.39966
9.34566
9.28107
9.20882
9.12782
9.04009
8.94495
8.84156
8.72632
8.5939
8.44111
8.26916
8.08014
7.87007
7.64224
7.38571
7.11509
6.81044
6.49821
6.14955
5.7958
5.41592
1
1
1
1
1
1
1
1
1
1
1
1
1
1
1
1
1
1
1
1
1
1
1
1
1
1
1
1
1
1
1
1
1
1
1
1
1
1
1
1
1
1
1
1
1
1
1
1
1
1
1
1
1
1
1
1.00411
3.6883
9.02319
9.51483
9.55567
9.57157
9.57033
9.55872
9.54575
9.53446
9.52785
9.52048
9.5052
9.48012
9.44799
9.41103
9.37389
9.33726
9.29708
9.25016
9.1947
9.129
9.05472
8.97034
8.87833
8.77802
8.67035
8.55384
8.42336
8.27505
8.10842
7.92731
7.72255
7.50399
7.26689
7.01485
6.74221
6.46521
6.15581
5.85117
5.51672
1
1
1
1
1
1
1
1
1
1
1
1
1
1
1
1
1
1
1
1
1
1
1
1
1
1
1
1
1
1
1
1
1
1
1
1
1
1
1
1
1
1
1
1
1
1
1
1
1
1
1
1
1
1
1
1
1.19142
6.26043
9.47851
9.51217
9.50149
9.49299
9.47982
9.45846
9.43943
9.42708
9.41366
9.39637
9.373
9.34169
9.30221
9.2584
9.21259
9.16557
9.11383
9.05596
8.98933
8.91515
8.83029
8.73728
8.63421
8.52242
8.40363
8.27362
8.13063
7.96927
7.79761
7.6012
7.39495
7.17476
6.93996
6.69134
6.44266
6.16461
5.89554
5.60044
1
1
1
1
1
1
1
1
1
1
1
1
1
1
1
1
1
1
1
1
1
1
1
1
1
1
1
1
1
1
1
1
1
1
1
1
1
1
1
1
1
1
1
1
1
1
1
1
1
1
1
1
1
1
1
1
1.0011
2.22637
8.14566
9.40544
9.35942
9.37481
9.36974
9.35133
9.33119
9.31517
9.29584
9.27395
9.25149
9.2239
9.1862
9.14173
9.09139
9.03843
8.9822
8.92115
8.85307
8.77848
8.69463
8.60239
8.49991
8.3882
8.26986
8.13989
7.99806
7.84163
7.67762
7.49573
7.30534
7.10323
6.88591
6.65861
6.43153
6.1776
5.93594
5.67024
1
1
1
1
1
1
1
1
1
1
1
1
1
1
1
1
1
1
1
1
1
1
1
1
1
1
1
1
1
1
1
1
1
1
1
1
1
1
1
1
1
1
1
1
1
1
1
1
1
1
1
1
1
1
1
1
1
1.04224
4.37929
9.03434
9.26618
9.27873
9.28115
9.26366
9.23934
9.21454
9.18692
9.15979
9.13617
9.11149
9.07548
9.032
8.97983
8.92334
8.86352
8.79889
8.72862
8.65181
8.56916
8.47892
8.37974
8.27243
8.15803
8.02575
7.88378
7.73109
7.57235
7.40397
7.22615
7.04149
6.84186
6.63548
6.42472
6.19496
5.9753
5.73667
1
1
1
1
1
1
1
1
1
1
1
1
1
1
1
1
1
1
1
1
1
1
1
1
1
1
1
1
1
1
1
1
1
1
1
1
1
1
1
1
1
1
1
1
1
1
1
1
1
1
1
1
1
1
1
1
1
1.00008
1.28863
6.02807
9.11822
9.24298
9.23492
9.21969
9.18757
9.15136
9.11508
9.07986
9.0482
9.01892
8.981
8.93535
8.87992
8.82116
8.75851
8.69009
8.61716
8.53839
8.45489
8.36621
8.27024
8.16551
8.05536
7.92707
7.78855
7.64016
7.48511
7.32686
7.1572
6.98816
6.80391
6.61531
6.41626
6.21136
6.00748
5.79364
1
1
1
1
1
1
1
1
1
1
1
1
1
1
1
1
1
1
1
1
1
1
1
1
1
1
1
1
1
1
1
1
1
1
1
1
1
1
1
1
1
1
1
1
1
1
1
1
1
1
1
1
1
1
1
1
1
1
1.00254
1.83132
7.61267
9.23198
9.15902
9.13432
9.09225
9.05367
9.0149
8.97746
8.94152
8.90812
8.87147
8.82699
8.77222
8.71643
8.65599
8.58558
8.51342
8.4333
8.351
8.26121
8.16667
8.06359
7.95675
7.83631
7.70514
7.56516
7.41715
7.26636
7.1041
6.94415
6.77128
6.59377
6.4057
6.22347
6.03289
5.84314
1
1
1
1
1
1
1
1
1
1
1
1
1
1
1
1
1
1
1
1
1
1
1
1
1
1
1
1
1
1
1
1
1
1
1
1
1
1
1
1
1
1
1
1
1
1
1
1
1
1
1
1
1
1
1
1
1
1
1
1.01931
3.52827
8.53824
9.00248
8.94531
8.93285
8.9208
8.90227
8.87449
8.84055
8.80364
8.76658
8.72353
8.67122
8.62045
8.56305
8.4963
8.42336
8.34471
8.25984
8.17329
8.07852
7.97636
7.86982
7.7535
7.62899
7.49732
7.35831
7.21534
7.06401
6.91012
6.74655
6.57605
6.40133
6.23519
6.05659
5.88463
1
1
1
1
1
1
1
1
1
1
1
1
1
1
1
1
1
1
1
1
1
1
1
1
1
1
1
1
1
1
1
1
1
1
1
1
1
1
1
1
1
1
1
1
1
1
1
1
1
1
1
1
1
1
1
1
1
1
1
1.00003
1.16476
4.80167
8.71133
8.83568
8.84407
8.85438
8.84326
8.81907
8.78352
8.73938
8.69601
8.64745
8.59335
8.54212
8.48449
8.41784
8.34601
8.26627
8.18205
8.09436
7.9995
7.89863
7.79149
7.67808
7.55925
7.4349
7.30462
7.17037
7.02988
6.88022
6.72496
6.56354
6.40274
6.24756
6.08115
5.92185
1
1
1
1
1
1
1
1
1
1
1
1
1
1
1
1
1
1
1
1
1
1
1
1
1
1
1
1
1
1
1
1
1
1
1
1
1
1
1
1
1
1
1
1
1
1
1
1
1
1
1
1
1
1
1
1
1
1
1
1
1.001
1.38282
5.6449
8.67898
8.81168
8.80337
8.78636
8.76111
8.7259
8.68255
8.63624
8.58267
8.52475
8.46827
8.40684
8.33999
8.26896
8.19103
8.10694
8.02187
7.9307
7.83122
7.72541
7.61409
7.49883
7.37922
7.25502
7.12822
6.9949
6.84929
6.70377
6.55534
6.40931
6.26283
6.1069
5.95504
1
1
1
1
1
1
1
1
1
1
1
1
1
1
1
1
1
1
1
1
1
1
1
1
1
1
1
1
1
1
1
1
1
1
1
1
1
1
1
1
1
1
1
1
1
1
1
1
1
1
1
1
1
1
1
1
1
1
1
1
1
1.00451
1.62499
6.37147
8.67887
8.74973
8.72699
8.69847
8.66482
8.62377
8.57755
8.52416
8.46785
8.40778
8.34226
8.27234
8.19915
8.12142
8.03878
7.95538
7.86779
7.77108
7.66772
7.55914
7.44664
7.33061
7.21111
7.08992
6.96053
6.81873
6.68252
6.54828
6.41453
6.27573
6.12786
5.98173
1
1
1
1
1
1
1
1
1
1
1
1
1
1
1
1
1
1
1
1
1
1
1
1
1
1
1
1
1
1
1
1
1
1
1
1
1
1
1
1
1
1
1
1
1
1
1
1
1
1
1
1
1
1
1
1
1
1
1
1
1
1.00001
1.01123
1.92426
6.93729
8.66962
8.68514
8.65723
8.61423
8.56956
8.5211
8.46865
8.41126
8.34834
8.28068
8.20909
8.13354
8.05474
7.97292
7.8896
7.80316
7.71018
7.61157
7.50827
7.40042
7.28829
7.17283
7.05567
6.92865
6.79055
6.66344
6.54279
6.41804
6.28555
6.14258
6.00105
1
1
1
1
1
1
1
1
1
1
1
1
1
1
1
1
1
1
1
1
1
1
1
1
1
1
1
1
1
1
1
1
1
1
1
1
1
1
1
1
1
1
1
1
1
1
1
1
1
1
1
1
1
1
1
1
1
1
1
1
1
1
1.00002
1.02351
2.26637
7.4642
8.65317
8.61292
8.57166
8.51661
8.46835
8.4157
8.35597
8.28959
8.22109
8.14868
8.07246
7.99365
7.91315
7.83047
7.74476
7.65456
7.56004
7.46149
7.35811
7.24972
7.13813
7.02377
6.90011
6.76885
6.65032
6.53881
6.4204
6.29245
6.15186
6.01444
1
1
1
1
1
1
1
1
1
1
1
1
1
1
1
1
1
1
1
1
1
1
1
1
1
1
1
1
1
1
1
1
1
1
1
1
1
1
1
1
1
1
1
1
1
1
1
1
1
1
1
1
1
1
1
1
1
1
1
1
1
1
1
1.00007
1.04251
2.88052
7.7825
8.54697
8.49897
8.46384
8.40787
8.35045
8.28891
8.22425
8.15628
8.08451
8.01067
7.93422
7.8552
7.77394
7.68967
7.60139
7.50986
7.41544
7.31625
7.21169
7.10381
6.99348
6.87679
6.75497
6.6428
6.53561
6.42249
6.29912
6.16095
6.02778
1
1
1
1
1
1
1
1
1
1
1
1
1
1
1
1
1
1
1
1
1
1
1
1
1
1
1
1
1
1
1
1
1
1
1
1
1
1
1
1
1
1
1
1
1
1
1
1
1
1
1
1
1
1
1
1
1
1
1
1
1
1
1
1
1.00014
1.09117
3.34933
7.91354
8.44205
8.38618
8.33778
8.28521
8.2259
8.16345
8.09889
8.03253
7.96289
7.88865
7.81054
7.72884
7.64343
7.55552
7.46539
7.37329
7.27702
7.17543
7.07109
6.96616
6.85737
6.7452
6.63833
6.53302
6.42379
6.30427
6.16977
6.04243
1
1
1
1
1
1
1
1
1
1
1
1
1
1
1
1
1
1
1
1
1
1
1
1
1
1
1
1
1
1
1
1
1
1
1
1
1
1
1
1
1
1
1
1
1
1
1
1
1
1
1
1
1
1
1
1
1
1
1
1
1
1
1
1
1
1.00046
1.14467
3.61507
7.89965
8.32884
8.27089
8.21848
8.16533
8.11009
8.04846
7.98461
7.91645
7.84433
7.76799
7.68821
7.606
7.5209
7.43246
7.34101
7.24591
7.14706
7.04637
6.94555
6.84236
6.73751
6.63495
6.53079
6.4235
6.30739
6.17968
6.06021
1
1
1
1
1
1
1
1
1
1
1
1
1
1
1
1
1
1
1
1
1
1
1
1
1
1
1
1
1
1
1
1
1
1
1
1
1
1
1
1
1
1
1
1
1
1
1
1
1
1
1
1
1
1
1
1
1
1
1
1
1
1
1
1
1
1
1.00097
1.18384
3.68418
7.7941
8.22966
8.16552
8.11787
8.06265
8.00597
7.94475
7.87788
7.8066
7.73152
7.65393
7.57352
7.48933
7.4014
7.31014
7.21649
7.12091
7.0239
6.92637
6.82741
6.72736
6.62787
6.52554
6.42041
6.30891
6.18982
6.08206
1
1
1
1
1
1
1
1
1
1
1
1
1
1
1
1
1
1
1
1
1
1
1
1
1
1
1
1
1
1
1
1
1
1
1
1
1
1
1
1
1
1
1
1
1
1
1
1
1
1
1
1
1
1
1
1
1
1
1
1
1
1
1
1
1
1
1
1.00145
1.19876
3.60245
7.64205
8.13744
8.07624
8.02525
7.9682
7.90746
7.84238
7.77244
7.6991
7.62258
7.5422
7.45901
7.37304
7.28438
7.19357
7.10114
7.00741
6.91296
6.81735
6.72077
6.62373
6.52295
6.42009
6.31258
6.20153
6.1048
1
1
1
1
1
1
1
1
1
1
1
1
1
1
1
1
1
1
1
1
1
1
1
1
1
1
1
1
1
1
1
1
1
1
1
1
1
1
1
1
1
1
1
1
1
1
1
1
1
1
1
1
1
1
1
1
1
1
1
1
1
1
1
1
1
1
1
1
1.0017
1.19086
3.40691
7.48248
8.05468
7.99617
7.94138
7.87677
7.80882
7.73896
7.66692
7.59107
7.51182
7.43032
7.34603
7.25986
7.17194
7.08262
6.99227
6.90107
6.80842
6.714
6.61878
6.52154
6.42293
6.32108
6.21899
6.12619
1
1
1
1
1
1
1
1
1
1
1
1
1
1
1
1
1
1
1
1
1
1
1
1
1
1
1
1
1
1
1
1
1
1
1
1
1
1
1
1
1
1
1
1
1
1
1
1
1
1
1
1
1
1
1
1
1
1
1
1
1
1
1
1
1
1
1
1
1
1.00163
1.16531
3.17132
7.30191
7.96451
7.91465
7.84898
7.78044
7.70759
7.63386
7.55826
7.48229
7.40345
7.32117
7.23717
7.15185
7.06571
6.97834
6.8894
6.79986
6.70924
6.61781
6.52623
6.43203
6.33537
6.23736
6.14519
1
1
1
1
1
1
1
1
1
1
1
1
1
1
1
1
1
1
1
1
1
1
1
1
1
1
1
1
1
1
1
1
1
1
1
1
1
1
1
1
1
1
1
1
1
1
1
1
1
1
1
1
1
1
1
1
1
1
1
1
1
1
1
1
1
1
1
1
1
1
1.00133
1.13426
2.9577
7.03921
7.85586
7.81693
7.74404
7.67345
7.59859
7.52427
7.44863
7.3716
7.29346
7.21364
7.13207
7.04906
6.96518
6.87927
6.79344
6.70777
6.61986
6.53213
6.44243
6.35124
6.26064
6.16832
1
1
1
1
1
1
1
1
1
1
1
1
1
1
1
1
1
1
1
1
1
1
1
1
1
1
1
1
1
1
1
1
1
1
1
1
1
1
1
1
1
1
1
1
1
1
1
1
1
1
1
1
1
1
1
1
1
1
1
1
1
1
1
1
1
1
1
1
1
1
1
1.00096
1.10786
2.69509
6.6752
7.72052
7.70875
7.63576
7.56776
7.49495
7.42069
7.34514
7.26843
7.19022
7.11204
7.03428
6.95685
6.87715
6.79463
6.71032
6.624
6.539
6.45489
6.36904
6.28235
6.19152
1
1
1
1
1
1
1
1
1
1
1
1
1
1
1
1
1
1
1
1
1
1
1
1
1
1
1
1
1
1
1
1
1
1
1
1
1
1
1
1
1
1
1
1
1
1
1
1
1
1
1
1
1
1
1
1
1
1
1
1
1
1
1
1
1
1
1
1
1
1
1
1
1.00069
1.08041
2.39971
6.16048
7.56638
7.6185
7.53342
7.46611
7.39447
7.3205
7.2437
7.16686
7.09452
7.02403
6.95211
6.87817
6.80009
6.71932
6.63525
6.54817
6.464
6.37767
6.29364
6.2117
1
1
1
1
1
1
1
1
1
1
1
1
1
1
1
1
1
1
1
1
1
1
1
1
1
1
1
1
1
1
1
1
1
1
1
1
1
1
1
1
1
1
1
1
1
1
1
1
1
1
1
1
1
1
1
1
1
1
1
1
1
1
1
1
1
1
1
1
1
1
1
1
1
1.00045
1.05508
2.07804
5.47138
7.40006
7.52696
7.43157
7.3654
7.29825
7.22988
7.15988
7.0879
7.0152
6.94554
6.87913
6.80828
6.73172
6.65001
6.56192
6.47405
6.38681
6.30346
6.22497
1
1
1
1
1
1
1
1
1
1
1
1
1
1
1
1
1
1
1
1
1
1
1
1
1
1
1
1
1
1
1
1
1
1
1
1
1
1
1
1
1
1
1
1
1
1
1
1
1
1
1
1
1
1
1
1
1
1
1
1
1
1
1
1
1
1
1
1
1
1
1
1
1
1
1.00026
1.03345
1.7552
4.63343
7.16643
7.41703
7.34963
7.28929
7.22584
7.16088
7.09372
7.025
6.95418
6.88208
6.80836
6.73442
6.65923
6.5761
6.48842
6.40101
6.31184
6.23282
1
1
1
1
1
1
1
1
1
1
1
1
1
1
1
1
1
1
1
1
1
1
1
1
1
1
1
1
1
1
1
1
1
1
1
1
1
1
1
1
1
1
1
1
1
1
1
1
1
1
1
1
1
1
1
1
1
1
1
1
1
1
1
1
1
1
1
1
1
1
1
1
1
1
1
1.00013
1.01764
1.46561
3.78502
6.78471
7.32697
7.29135
7.22272
7.16003
7.09511
7.02685
6.95678
6.88612
6.81351
6.73771
6.66006
6.58
6.49916
6.41705
6.32939
6.24844
1
1
1
1
1
1
1
1
1
1
1
1
1
1
1
1
1
1
1
1
1
1
1
1
1
1
1
1
1
1
1
1
1
1
1
1
1
1
1
1
1
1
1
1
1
1
1
1
1
1
1
1
1
1
1
1
1
1
1
1
1
1
1
1
1
1
1
1
1
1
1
1
1
1
1
1
1.00005
1.00775
1.25606
3.00203
6.21766
7.19736
7.2806
7.15848
7.09684
7.03292
6.96456
6.89198
6.81774
6.74178
6.66647
6.58927
6.50889
6.42848
6.34598
6.26702
1
1
1
1
1
1
1
1
1
1
1
1
1
1
1
1
1
1
1
1
1
1
1
1
1
1
1
1
1
1
1
1
1
1
1
1
1
1
1
1
1
1
1
1
1
1
1
1
1
1
1
1
1
1
1
1
1
1
1
1
1
1
1
1
1
1
1
1
1
1
1
1
1
1
1
1
1
1.00002
1.00294
1.12531
2.34238
5.38513
7.03129
7.17552
7.1075
7.03803
6.9673
6.89568
6.81926
6.74465
6.67046
6.59329
6.51726
6.44215
6.36204
6.28352
1
1
1
1
1
1
1
1
1
1
1
1
1
1
1
1
1
1
1
1
1
1
1
1
1
1
1
1
1
1
1
1
1
1
1
1
1
1
1
1
1
1
1
1
1
1
1
1
1
1
1
1
1
1
1
1
1
1
1
1
1
1
1
1
1
1
1
1
1
1
1
1
1
1
1
1
1
1
1
1.00095
1.05477
1.81131
4.37495
6.73591
7.09233
7.05872
6.96315
6.89071
6.82531
6.75503
6.68009
6.60756
6.53271
6.45554
6.38183
6.307
1
1
1
1
1
1
1
1
1
1
1
1
1
1
1
1
1
1
1
1
1
1
1
1
1
1
1
1
1
1
1
1
1
1
1
1
1
1
1
1
1
1
1
1
1
1
1
1
1
1
1
1
1
1
1
1
1
1
1
1
1
1
1
1
1
1
1
1
1
1
1
1
1
1
1
1
1
1
1
1
1.00027
1.02111
1.42541
3.3599
6.2118
6.95324
7.0061
6.92116
6.84349
6.77166
6.70227
6.62629
6.54854
6.47759
6.40312
6.32664
1
1
1
1
1
1
1
1
1
1
1
1
1
1
1
1
1
1
1
1
1
1
1
1
1
1
1
1
1
1
1
1
1
1
1
1
1
1
1
1
1
1
1
1
1
1
1
1
1
1
1
1
1
1
1
1
1
1
1
1
1
1
1
1
1
1
1
1
1
1
1
1
1
1
1
1
1
1
1
1
1
1.00007
1.00695
1.18929
2.50755
5.36596
6.74175
6.92901
6.86536
6.78527
6.7196
6.65123
6.57764
6.49856
6.41841
6.35014
1
1
1
1
1
1
1
1
1
1
1
1
1
1
1
1
1
1
1
1
1
1
1
1
1
1
1
1
1
1
1
1
1
1
1
1
1
1
1
1
1
1
1
1
1
1
1
1
1
1
1
1
1
1
1
1
1
1
1
1
1
1
1
1
1
1
1
1
1
1
1
1
1
1
1
1
1
1
1
1
1
1
1.00001
1.00193
1.0722
1.87428
4.17863
6.49409
6.84541
6.8043
6.72675
6.654
6.58196
6.5087
6.44279
6.37337
1
1
1
1
1
1
1
1
1
1
1
1
1
1
1
1
1
1
1
1
1
1
1
1
1
1
1
1
1
1
1
1
1
1
1
1
1
1
1
1
1
1
1
1
1
1
1
1
1
1
1
1
1
1
1
1
1
1
1
1
1
1
1
1
1
1
1
1
1
1
1
1
1
1
1
1
1
1
1
1
1
1
1
1
1.00042
1.02504
1.3997
3.16615
5.76295
6.65114
6.74564
6.6919
6.61974
6.55274
6.48106
6.39648
1
1
1
1
1
1
1
1
1
1
1
1
1
1
1
1
1
1
1
1
1
1
1
1
1
1
1
1
1
1
1
1
1
1
1
1
1
1
1
1
1
1
1
1
1
1
1
1
1
1
1
1
1
1
1
1
1
1
1
1
1
1
1
1
1
1
1
1
1
1
1
1
1
1
1
1
1
1
1
1
1
1
1
1
1
1.00009
1.0066
1.16315
2.2407
4.81604
6.32201
6.65527
6.65033
6.57856
6.50801
6.44201
1
1
1
1
1
1
1
1
1
1
1
1
1
1
1
1
1
1
1
1
1
1
1
1
1
1
1
1
1
1
1
1
1
1
1
1
1
1
1
1
1
1
1
1
1
1
1
1
1
1
1
1
1
1
1
1
1
1
1
1
1
1
1
1
1
1
1
1
1
1
1
1
1
1
1
1
1
1
1
1
1
1
1
1
1
1
1.00001
1.00159
1.05138
1.64672
3.47519
5.87741
6.59449
6.59335
6.51762
6.43876
1
1
1
1
1
1
1
1
1
1
1
1
1
1
1
1
1
1
1
1
1
1
1
1
1
1
1
1
1
1
1
1
1
1
1
1
1
1
1
1
1
1
1
1
1
1
1
1
1
1
1
1
1
1
1
1
1
1
1
1
1
1
1
1
1
1
1
1
1
1
1
1
1
1
1
1
1
1
1
1
1
1
1
1
1
1
1
1
1.00026
1.01488
1.23985
2.5243
4.92346
6.20922
6.54929
6.52527
1
1
1
1
1
1
1
1
1
1
1
1
1
1
1
1
1
1
1
1
1
1
1
1
1
1
1
1
1
1
1
1
1
1
1
1
1
1
1
1
1
1
1
1
1
1
1
1
1
1
1
1
1
1
1
1
1
1
1
1
1
1
1
1
1
1
1
1
1
1
1
1
1
1
1
1
1
1
1
1
1
1
1
1
1
1
1
1
1
1.00004
1.00299
1.08117
1.76833
3.64236
5.81682
6.38698
1
1
1
1
1
1
1
1
1
1
1
1
1
1
1
1
1
1
1
1
1
1
1
1
1
1
1
1
1
1
1
1
1
1
1
1
1
1
1
1
1
1
1
1
1
1
1
1
1
1
1
1
1
1
1
1
1
1
1
1
1
1
1
1
1
1
1
1
1
1
1
1
1
1
1
1
1
1
1
1
1
1
1
1
1
1
1
1
1
1
1
1.00054
1.0216
1.29166
2.54629
4.93588
1
1
1
1
1
1
1
1
1
1
1
1
1
1
1
1
1
1
1
1
1
1
1
1
1
1
1
1
1
1
1
1
1
1
1
1
1
1
1
1
1
1
1
1
1
1
1
1
1
1
1
1
1
1
1
1
1
1
1
1
1
1
1
1
1
1
1
1
1
1
1
1
1
1
1
1
1
1
1
1
1
1
1
1
1
1
1
1
1
1
1
1
1.00007
1.00419
1.08686
1.8029
1
1
1
1
1
1
1
1
1
1
1
1
1
1
1
1
1
1
1
1
1
1
1
1
1
1
1
1
1
1
1
1
1
1
1
1
1
1
1
1
1
1
1
1
1
1
1
1
1
1
1
1
1
1
1
1
1
1
1
1
1
1
1
1
1
1
1
1
1
1
1
1
1
1
1
1
1
1
1
1
1
1
1
1
1
1
1
1
1
1
1
1
1
1.00001
1.00064
1.02214
1
1
1
1
1
1
1
1
1
1
1
1
1
1
1
1
1
1
1
1
1
1
1
1
1
1
1
1
1
1
1
1
1
1
1
1
1
1
1
1
1
1
1
1
1
1
1
1
1
1
1
1
1
1
1
1
1
1
1
1
1
1
1
1
1
1
1
1
1
1
1
1
1
1
1
1
1
1
1
1
1
1
1
1
1
1
1
1
1
1
1
1
1
1
1
1.00007
1
1
1
1
1
1
1
1
1
1
1
1
1
1
1
1
1
1
1
1
1
1
1
1
1
1
1
1
1
1
1
1
1
1
1
1
1
1
1
1
1
1
1
1
1
1
1
1
1
1
1
1
1
1
1
1
1
1
1
1
1
1
1
1
1
1
1
1
1
1
1
1
1
1
1
1
1
1
1
1
1
1
1
1
1
1
1
1
1
1
1
1
1
1
1
1
1
1
1
1
1
1
1
1
1
1
1
1
1
1
1
1
1
1
1
1
1
1
1
1
1
1
1
1
1
1
1
1
1
1
1
1
1
1
1
1
1
1
1
1
1
1
1
1
1
1
1
1
1
1
1
1
1
1
1
1
1
1
1
1
1
1
1
1
1
1
1
1
1
1
1
1
1
1
1
1
1
1
1
1
1
1
1
1
1
1
1
1
1
1
1
1
1
1
1
1
1
1
1
1
1
1
1
1
1
1
1
1
1
1
1
1
1
1
1
1
1
1
1
1
1
1
1
1
1
1
1
1
1
1
1
1
1
1
1
1
1
1
1
1
1
1
1
1
1
1
1
1
1
1
1
1
1
1
1
1
1
1
1
1
1
1
1
1
1
1
1
1
1
1
1
1
1
1
1
1
1
1
1
1
1
1
1
1
1
1
1
1
1
1
1
1
1
1
1
1
1
1
1
1
1
1
1
1
1
1
1
1
1
1
1
1
1
1
1
1
1
1
1
1
1
1
1
1
1
1
1
1
1
1
1
1
1
1
1
1
1
1
1
1
1
1
1
1
1
1
1
1
1
1
1
1
1
1
1
1
1
1
1
1
1
1
1
1
1
1
1
1
1
1
1
1
1
1
1
1
1
1
1
1
1
1
1
1
1
1
1
1
1
1
1
1
1
1
1
1
1
1
1
1
1
1
1
1
1
1
1
1
1
1
1
1
1
1
1
1
1
1
1
1
1
1
1
1
1
1
1
1
1
1
1
1
1
1
1
1
1
1
1
1
1
1
1
1
1
1
1
1
1
1
1
1
1
1
1
1
1
1
1
1
1
1
1
1
1
1
1
1
1
1
1
1
1
1
1
1
1
1
1
1
1
1
1
1
1
1
1
1
1
1
1
1
1
1
1
1
1
1
1
1
1
1
1
1
1
1
1
1
1
1
1
1
1
1
1
1
1
1
1
1
1
1
1
1
1
1
1
1
1
1
1
1
1
1
1
1
1
1
1
1
1
1
1
1
1
1
1
1
1
1
1
1
1
1
1
1
1
1
1
1
1
1
1
1
1
1
1
1
1
1
1
1
1
1
1
1
1
1
1
1
1
1
1
1
1
1
1
1
1
1
1
1
1
1
1
1
1
1
1
1
1
1
1
1
1
1
1
1
1
1
1
1
1
1
1
1
1
1
1
1
1
1
1
1
1
1
1
1
1
1
1
1
1
1
1
1
1
1
1
1
1
1
1
1
1
1
1
1
1
1
1
1
1
1
1
1
1
1
1
1
1
1
1
1
1
1
1
1
1
1
1
1
1
1
1
1
1
1
1
1
1
1
1
1
1
1
1
1
1
1
1
1
1
1
1
1
1
1
1
1
1
1
1
1
1
1
1
1
1
1
1
1
1
1
1
1
1
1
1
1
1
1
1
1
1
1
1
1
1
1
1
1
1
1
1
1
1
1
1
1
1
1
1
1
1
1
1
1
1
1
1
1
1
1
1
1
1
1
1
1
1
1
1
1
1
1
1
1
1
1
1
1
1
1
1
1
1
1
1
1
1
1
1
1
1
1
1
1
1
1
1
1
1
1
1
1
1
1
1
1
1
1
1
1
1
1
1
1
1
1
1
1
1
1
1
1
1
1
1
1
1
1
1
1
1
1
1
1
1
1
1
1
1
1
1
1
1
1
1
1
1
1
1
1
1
1
1
1
1
1
1
1
1
1
1
1
1
1
1
1
1
1
1
1
1
1
1
1
1
1
1
1
1
1
1
1
1
1
1
1
1
1
1
1
1
1
1
1
1
1
1
1
1
1
1
1
1
1
1
1
1
1
1
1
1
1
1
1
1
1
1
1
1
1
1
1
1
1
1
1
1
1
1
1
1
1
1
1
1
1
1
1
1
1
1
1
1
1
1
1
1
1
1
1
1
1
1
1
1
1
1
1
1
1
1
1
1
1
1
1
1
1
1
1
1
1
1
1
1
1
1
1
1
1
1
1
1
1
1
1
1
1
1
1
1
1
1
1
1
1
1
1
1
1
1
1
1
1
1
1
1
1
1
1
1
1
1
1
1
1
1
1
1
1
1
1
1
1
1
1
1
1
1
1
1
1
1
1
1
1
1
1
1
1
1
1
1
1
1
1
1
1
1
1
1
1
1
1
1
1
1
1
1
1
1
1
1
1
1
1
1
1
1
1
1
1
1
1
1
1
1
1
1
1
1
1
1
1
1
1
1
1
1
1
1
1
1
1
1
1
1
1
1
1
1
1
1
1
1
1
1
1
1
1
1
1
1
1
1
1
1
1
1
1
1
1
1
1
1
1
1
1
1
1
1
1
1
1
1
1
1
1
1
1
1
1
1
1
1
1
1
1
1
1
1
1
1
1
1
1
1
1
1
1
1
1
1
1
1
1
1
1
1
1
1
1
1
1
1
1
1
1
1
1
1
1
1
1
1
1
1
1
1
1
1
1
1
1
1
1
1
1
1
1
1
1
1
1
1
1
1
1
1
1
1
1
1
1
1
1
1
1
1
1
1
1
1
1
1
1
1
1
1
1
1
1
1
1
1
1
1
1
1
1
1
1
1
1
1
1
1
1
1
1
1
1
1
1
1
1
1
1
1
1
1
1
1
1
1
1
1
1
1
1
1
1
1
1
1
1
1
1
1
1
1
1
1
1
1
1
1
1
1
1
1
1
1
1
1
1
1
1
1
1
1
1
1
1
1
1
1
1
1
1
1
1
1
1
1
1
1
1
1
1
1
1
1
1
1
1
1
1
1
1
1
1
1
1
1
1
1
1
1
1
1
1
1
1
1
1
1
1
1
1
1
1
1
1
1
1
1
1
1
1
1
1
1
1
1
1
1
1
1
1
1
1
1
1
1
1
1
1
1
1
1
1
1
1
1
1
1
1
1
1
1
1
1
1
1
1
1
1
1
1
1
1
1
1
1
1
1
1
1
1
1
1
1
1
1
1
1
1
1
1
1
1
1
1
1
1
1
1
1
1
1
1
1
1
1
1
1
1
1
1
1
1
1
1
1
1
1
1
1
1
1
1
1
1
1
1
1
1
1
1
1
1
1
1
1
1
1
1
1
1
1
1
1
1
1
1
1
1
1
1
1
1
1
1
1
1
1
1
1
1
1
1
1
1
1
1
1
1
1
1
1
1
1
1
1
1
1
1
1
1
1
1
1
1
1
1
1
1
1
1
1
1
1
1
1
1
1
1
1
1
1
1
1
1
1
1
1
1
1
1
1
1
1.17067
0.193579
0.0237471
0.0333182
0.07561
0.0863319
0.0957828
0.132396
0.203888
0.26861
0.32237
0.389747
0.47178
0.526202
0.570963
0.648496
0.74851
0.855842
0.959339
1.00104
1.00633
0.99374
0.988963
1.00295
1.00735
1.00954
1.02979
1.06518
1.0901
1.11229
1.13875
1.16038
1.17649
1.18735
1.20008
1.20738
1.21116
1.21459
1.21896
1.22992
1.25326
1.27611
1.28275
1.28535
1.28562
1.28237
1.28227
1.28611
1.29672
1.3136
1.32751
1.33408
1.33464
1.33325
1.32956
1.32629
1.32302
1.32143
1.32245
1.32623
1.33302
1.33765
1.33743
1.33523
1.33203
1.33001
1.32838
1.3269
1.3254
1.32284
1.31847
1.31277
1.32168
1.48585
4.099
7.28453
7.28376
7.08328
6.8894
6.73047
6.62031
6.53475
6.44304
6.34133
6.25915
6.19688
6.14315
6.0871
6.0227
5.95189
5.87221
5.7911
5.71911
5.65365
5.58851
5.5228
5.45782
5.39235
5.33035
5.26678
5.204
5.14218
5.08122
5.02553
4.97568
4.92736
4.87906
4.83151
4.78678
4.74475
4.7048
4.66474
4.62037
4.56998
4.51879
4.46981
4.42341
4.38017
4.34178
4.31012
4.2818
4.24733
4.20746
4.16513
4.11854
4.06829
4.01843
3.97324
3.93494
3.90351
3.87546
3.84782
3.81884
3.78546
3.74408
3.69315
3.64313
3.61054
3.58735
3.56599
3.54756
3.52609
3.49993
3.46868
3.4261
3.37532
3.33463
3.30634
3.28234
3.26091
3.242
3.22062
3.19746
3.16951
3.13208
3.08882
3.04954
3.01745
2.9897
2.96448
2.94111
2.91897
2.89724
2.87505
2.85186
2.82786
2.80443
2.78297
2.76352
2.74508
2.72606
2.70447
2.67685
2.63914
2.59439
2.5562
2.53347
2.51908
2.50639
2.49496
2.48387
2.47124
2.45524
2.43146
2.39939
2.36618
2.34072
2.32239
2.30788
2.29458
2.28513
2.26648
2.07683
0.861527
0.250925
0.234372
0.277275
0.251723
0.200643
0.193345
0.201672
0.212979
0.229998
0.251536
0.292881
0.348002
0.406201
0.46489
0.529128
0.601842
0.701823
0.787688
0.85529
0.904667
0.924569
0.954809
0.980735
1.00472
1.0303
1.05957
1.07966
1.09585
1.11487
1.1313