/*--------------------------------*- C++ -*----------------------------------*\
  =========                 |
  \\      /  F ield         | OpenFOAM: The Open Source CFD Toolbox
   \\    /   O peration     | Website:  https://openfoam.org
    \\  /    A nd           | Version:  7
     \\/     M anipulation  |
\*---------------------------------------------------------------------------*/
FoamFile
{
    version     2.0;
    format      ascii;
    class       volScalarField;
    location    "18";
    object      p;
}
// * * * * * * * * * * * * * * * * * * * * * * * * * * * * * * * * * * * * * //

dimensions      [0 2 -2 0 0 0 0];

internalField   nonuniform List<scalar> 
8800
(
0.4032
0.355422
0.316749
0.287769
0.26692
0.252103
0.241515
0.234032
0.22918
0.227028
0.228108
0.232093
0.238547
0.247706
0.260366
0.278013
0.302727
0.33662
0.379123
0.437821
0.234429
0.242109
0.249615
0.252938
0.251455
0.246404
0.239946
0.233889
0.229152
0.226233
0.2258
0.228101
0.232383
0.238139
0.244752
0.250912
0.254464
0.253677
0.248184
0.239452
0.212798
0.218972
0.223126
0.226109
0.228197
0.228842
0.227767
0.225668
0.223609
0.222583
0.223343
0.225496
0.228079
0.230066
0.230507
0.229176
0.226724
0.223247
0.218648
0.214876
0.20694
0.20961
0.21243
0.214913
0.216623
0.21784
0.218618
0.218752
0.218422
0.21824
0.218768
0.219673
0.220252
0.220087
0.219279
0.218009
0.216031
0.213319
0.210831
0.209325
0.20153
0.202971
0.204849
0.207005
0.208912
0.210359
0.211412
0.212219
0.212784
0.213207
0.213593
0.21378
0.213587
0.213022
0.212053
0.210548
0.208618
0.206573
0.205158
0.204335
0.196457
0.197385
0.19878
0.200551
0.202384
0.204089
0.205513
0.206645
0.207577
0.208308
0.208685
0.208634
0.208202
0.207366
0.206098
0.204529
0.20286
0.201309
0.200351
0.199824
0.191712
0.192367
0.193534
0.195137
0.196842
0.198568
0.200227
0.201659
0.202796
0.20366
0.204141
0.204106
0.203541
0.202503
0.201164
0.199712
0.198219
0.196899
0.196159
0.195801
0.187353
0.187827
0.188833
0.190309
0.191885
0.193455
0.19503
0.196607
0.198047
0.199188
0.199736
0.199612
0.198976
0.198043
0.196942
0.19569
0.194357
0.193209
0.19262
0.192374
0.183461
0.183765
0.184662
0.186071
0.18761
0.18918
0.190741
0.192225
0.19364
0.194888
0.195641
0.195765
0.195419
0.19469
0.193691
0.192536
0.191309
0.190269
0.189807
0.189671
0.180522
0.180685
0.181378
0.182601
0.183977
0.185398
0.186892
0.188471
0.190041
0.191484
0.192459
0.19278
0.19258
0.192042
0.191295
0.190408
0.189411
0.188618
0.18832
0.188261
0.178217
0.178316
0.178728
0.17953
0.180528
0.181652
0.182913
0.184341
0.185923
0.187554
0.188837
0.189534
0.189764
0.189687
0.189384
0.188938
0.18844
0.188064
0.187923
0.187882
0.175556
0.175642
0.175911
0.176431
0.177182
0.178178
0.179438
0.180964
0.18274
0.18466
0.186312
0.18736
0.187901
0.188035
0.187993
0.187945
0.187838
0.187747
0.187687
0.187645
0.172058
0.172128
0.17236
0.172777
0.173446
0.174328
0.175559
0.177168
0.179155
0.181447
0.183555
0.185032
0.185938
0.186559
0.186889
0.18711
0.187242
0.187277
0.187255
0.187215
0.167782
0.167826
0.168077
0.168573
0.169252
0.170263
0.17167
0.173511
0.175858
0.178613
0.181288
0.183284
0.184626
0.185511
0.186113
0.186493
0.186712
0.186783
0.186794
0.186764
0.162924
0.162955
0.163223
0.163836
0.164715
0.165826
0.167479
0.169649
0.172431
0.175837
0.179209
0.181817
0.183659
0.184914
0.185747
0.186276
0.186536
0.186649
0.186698
0.186677
0.157537
0.157564
0.157837
0.158528
0.159628
0.161003
0.162949
0.165538
0.168907
0.173107
0.177357
0.180702
0.183125
0.184821
0.18592
0.186617
0.186993
0.18719
0.187275
0.187255
0.151519
0.151547
0.151862
0.15262
0.153821
0.155554
0.157894
0.161052
0.165208
0.170429
0.175757
0.180005
0.183063
0.185221
0.186718
0.187666
0.188227
0.188538
0.188655
0.18863
0.144561
0.144594
0.144994
0.145839
0.147241
0.149298
0.152163
0.156073
0.161245
0.167759
0.17443
0.179774
0.183665
0.186441
0.188319
0.189558
0.19033
0.19076
0.19091
0.190877
0.136264
0.136305
0.13677
0.137824
0.139543
0.142055
0.145603
0.150497
0.156975
0.165121
0.173447
0.18011
0.185008
0.188451
0.190825
0.192413
0.193423
0.193981
0.194168
0.194125
0.126214
0.126268
0.12687
0.128182
0.130336
0.133502
0.138
0.14418
0.152325
0.162519
0.172881
0.181156
0.187192
0.191462
0.194418
0.196412
0.197687
0.198384
0.198615
0.198561
0.11387
0.11394
0.114726
0.116434
0.11922
0.123296
0.129058
0.136929
0.147226
0.159978
0.172814
0.182998
0.19041
0.195666
0.199314
0.201786
0.20337
0.20423
0.204514
0.204445
0.0984784
0.0985799
0.099632
0.101909
0.105601
0.110951
0.118451
0.128586
0.141647
0.157563
0.173368
0.185815
0.194855
0.201277
0.205753
0.208801
0.210763
0.211813
0.212154
0.212068
0.0788826
0.0790272
0.0804922
0.0836576
0.0887155
0.095925
0.105875
0.119039
0.135619
0.155391
0.174701
0.189778
0.200717
0.208515
0.213985
0.217744
0.220181
0.221485
0.221892
0.221779
0.053288
0.0535198
0.0556977
0.0603499
0.0675545
0.0775708
0.0910099
0.108229
0.129251
0.15364
0.176991
0.19506
0.208173
0.217582
0.224251
0.228889
0.231923
0.233545
0.234034
0.233887
0.0186631
0.0191184
0.0227353
0.0301237
0.0409286
0.0553095
0.0737321
0.0963045
0.12279
0.152545
0.180418
0.201792
0.217333
0.228599
0.236714
0.24247
0.246296
0.248334
0.248915
0.248719
-0.0309586
-0.0294095
-0.0220493
-0.00907213
0.00802297
0.0291281
0.0544237
0.0837472
0.116664
0.152404
0.18514
0.210026
0.228183
0.24152
0.251342
0.258508
0.263426
0.266099
0.266828
0.266555
-0.105085
-0.0962058
-0.0793521
-0.0562417
-0.0296905
0.000375147
0.0340592
0.0711618
0.111234
0.153537
0.19161
0.220446
0.241673
0.25757
0.269657
0.27893
0.285657
0.289582
0.290801
0.290743
-0.184351
-0.164321
-0.137329
-0.10387
-0.0676506
-0.0284978
0.0136615
0.0587336
0.106381
0.156004
0.200479
0.234377
0.259699
0.279089
0.294282
0.306336
0.315572
0.321984
0.324369
0.324467
-0.247591
-0.225056
-0.189884
-0.148153
-0.103404
-0.0558651
-0.00563485
0.0471103
0.102035
0.158579
0.208941
0.247293
0.276054
0.298225
0.315705
0.329683
0.340499
0.348003
0.350043
0.350408
-0.298916
-0.274304
-0.234286
-0.186648
-0.135299
-0.0808571
-0.0236393
0.0360163
0.0976216
0.160517
0.216107
0.258179
0.289562
0.313619
0.332464
0.347446
0.35898
0.366763
0.369246
0.369675
-0.340784
-0.31537
-0.271874
-0.219762
-0.163218
-0.103209
-0.0401258
0.0255193
0.0930682
0.161653
0.221832
0.266954
0.300253
0.325506
0.345091
0.360516
0.372278
0.380074
0.382792
0.383172
-0.376404
-0.350533
-0.304585
-0.248848
-0.188085
-0.123405
-0.0552936
0.0155856
0.0884202
0.162133
0.226383
0.274114
0.30897
0.335098
0.355094
0.370613
0.382335
0.390092
0.392966
0.393342
-0.407706
-0.381606
-0.333765
-0.275041
-0.210741
-0.142037
-0.069546
0.00599356
0.0836195
0.162054
0.23014
0.280314
0.316552
0.343366
0.363626
0.379146
0.390791
0.39841
0.401401
0.401762
-0.436153
-0.409847
-0.360449
-0.299226
-0.231898
-0.159694
-0.0832979
-0.00353351
0.0785299
0.161437
0.233184
0.285689
0.323264
0.350777
0.371338
0.386929
0.398539
0.40602
0.409057
0.409418
-0.462582
-0.436087
-0.385366
-0.321988
-0.25201
-0.176723
-0.0968451
-0.0132498
0.0729324
0.160083
0.235447
0.290408
0.329467
0.357807
0.37876
0.394488
0.406106
0.413426
0.416433
0.41688
-0.487688
-0.460942
-0.409008
-0.343749
-0.271438
-0.193426
-0.110436
-0.0233488
0.066666
0.157963
0.237071
0.294663
0.335371
0.364691
0.386169
0.402129
0.41379
0.421035
0.423936
0.424394
-0.511735
-0.484709
-0.431662
-0.364815
-0.290416
-0.20997
-0.124186
-0.0339082
0.0597302
0.155079
0.237993
0.298434
0.341046
0.371559
0.393739
0.410064
0.421852
0.429058
0.431818
0.4322
-0.535068
-0.50766
-0.453734
-0.38534
-0.309071
-0.226464
-0.13816
-0.0449665
0.0520397
0.151281
0.238093
0.301662
0.34651
0.378479
0.401555
0.418384
0.430378
0.437569
0.440165
0.44045
-0.557726
-0.529871
-0.475244
-0.405419
-0.327501
-0.242974
-0.152414
-0.0565904
0.0435056
0.146497
0.237287
0.304242
0.351663
0.385403
0.409604
0.427092
0.439385
0.446579
0.449045
0.449174
-0.579778
-0.551606
-0.496156
-0.425093
-0.345724
-0.259493
-0.166951
-0.0687906
0.0341409
0.140682
0.235442
0.306036
0.356369
0.392245
0.417849
0.436171
0.448836
0.456016
0.45834
0.45832
-0.601301
-0.572709
-0.516524
-0.444362
-0.363721
-0.275999
-0.181724
-0.081497
0.0239676
0.133785
0.232436
0.306853
0.360476
0.398899
0.426233
0.445577
0.458678
0.465808
0.467937
0.467781
-0.622338
-0.593258
-0.536358
-0.463213
-0.38145
-0.29244
-0.19666
-0.0946554
0.0130211
0.125795
0.228168
0.306483
0.363744
0.405196
0.434695
0.455287
0.468841
0.475836
0.47768
0.477405
-0.642709
-0.613182
-0.555606
-0.481601
-0.398858
-0.308737
-0.211694
-0.108183
0.00138058
0.116752
0.222553
0.304732
0.365862
0.410873
0.443147
0.465341
0.479278
0.485896
0.487346
0.486953
-0.662387
-0.632442
-0.574252
-0.499471
-0.415883
-0.324831
-0.226731
-0.121984
-0.0108536
0.106708
0.215558
0.301422
0.366521
0.415562
0.451432
0.475946
0.490249
0.495925
0.496651
0.496162
-0.681432
-0.650995
-0.592257
-0.516789
-0.432468
-0.340639
-0.241678
-0.135947
-0.0235744
0.0957578
0.207183
0.296422
0.36538
0.418721
0.45914
0.487338
0.502612
0.506407
0.505361
0.50477
-0.699688
-0.668834
-0.609572
-0.533492
-0.448556
-0.356081
-0.25644
-0.149957
-0.0366491
0.0840334
0.197492
0.289652
0.362152
0.41964
0.465363
0.499254
0.517875
0.520102
0.514947
0.51304
-0.717243
-0.685955
-0.626223
-0.549607
-0.46418
-0.371206
-0.271075
-0.164074
-0.0501422
0.07147
0.186375
0.280877
0.35654
0.417492
0.468484
0.510068
0.536209
0.542827
0.533758
0.512821
-0.734043
-0.70237
-0.64233
-0.565313
-0.479616
-0.386326
-0.285978
-0.178761
-0.0645866
0.0574124
0.173129
0.269206
0.347702
0.411051
0.465223
0.514385
0.547933
0.553604
0.537903
0.513103
-0.749942
-0.718258
-0.657727
-0.580361
-0.494591
-0.401112
-0.300929
-0.193694
-0.0796514
0.0421906
0.157979
0.254501
0.335268
0.399861
0.45099
0.500534
0.531704
0.527075
0.456737
0.415165
-0.764359
-0.734622
-0.672056
-0.594194
-0.508422
-0.415111
-0.315648
-0.208657
-0.0951173
0.0259674
0.140973
0.236717
0.318578
0.384433
0.426329
0.456489
0.472818
0.428855
0.353328
0.304239
-0.817512
-0.748382
-0.685042
-0.60823
-0.52249
-0.429658
-0.330198
-0.223893
-0.11129
0.00839348
0.12169
0.21558
0.295296
0.366371
0.376248
0.385717
0.356974
0.291273
0.207177
0.159909
-0.777436
-0.762557
-0.703525
-0.628142
-0.542668
-0.450347
-0.35209
-0.24696
-0.136178
-0.0193043
0.0898526
0.179239
0.249669
0.314324
0.317742
0.201286
0.0876504
0.0094729
-0.0721733
-0.0289494
-0.805782
-0.778113
-0.718905
-0.643421
-0.558462
-0.466561
-0.368301
-0.264109
-0.15486
-0.0405482
0.0646985
0.148969
0.211823
0.244521
0.192305
0.0310959
-0.116218
-0.220503
-0.335526
-0.267198
-0.827251
-0.796338
-0.736537
-0.66067
-0.575872
-0.484202
-0.386263
-0.283181
-0.175745
-0.0644968
0.0361889
0.114103
0.166854
0.170491
0.0526559
-0.15677
-0.339571
-0.48042
-0.646309
-0.586241
-0.84777
-0.815378
-0.754712
-0.678166
-0.593305
-0.501857
-0.404601
-0.302729
-0.197267
-0.0893986
0.00603129
0.0769671
0.11577
0.0810823
-0.102359
-0.346403
-0.581948
-0.7948
-1.03526
-1.02521
-0.867181
-0.834699
-0.773396
-0.696267
-0.611327
-0.520156
-0.423666
-0.323082
-0.219787
-0.115585
-0.0259166
0.0375914
0.0595449
-0.0162161
-0.251954
-0.519988
-0.800903
-1.05409
-1.36904
-1.73539
-0.886585
-0.854384
-0.792784
-0.715326
-0.630302
-0.539365
-0.443554
-0.344252
-0.243171
-0.142773
-0.0590321
-0.00343762
0.00123372
-0.125587
-0.384288
-0.655517
-0.934292
-1.17064
-1.26697
-1.41472
-0.906617
-0.874755
-0.813129
-0.735603
-0.650601
-0.559972
-0.464903
-0.367008
-0.268391
-0.172211
-0.0948302
-0.048255
-0.066974
-0.247708
-0.500486
-0.754167
-0.979224
-1.11927
-1.14715
-1.17488
-0.927624
-0.89608
-0.83455
-0.757101
-0.672266
-0.582067
-0.487918
-0.391653
-0.295833
-0.204392
-0.133855
-0.0979626
-0.146027
-0.362039
-0.60524
-0.833653
-1.01291
-1.0865
-1.10369
-1.10736
-0.949774
-0.91833
-0.857047
-0.779738
-0.695171
-0.605558
-0.512494
-0.418079
-0.325383
-0.239177
-0.175996
-0.152621
-0.228412
-0.471729
-0.702985
-0.910621
-1.0556
-1.08246
-1.07986
-1.07893
-0.972964
-0.941541
-0.880596
-0.803444
-0.719233
-0.630317
-0.538488
-0.446124
-0.356814
-0.276266
-0.221027
-0.210204
-0.315113
-0.578552
-0.797475
-0.970942
-1.04623
-1.06249
-1.06333
-1.06257
-0.996925
-0.965609
-0.904872
-0.828059
-0.744265
-0.656157
-0.565695
-0.475542
-0.389804
-0.315191
-0.268571
-0.267592
-0.414298
-0.683244
-0.895108
-1.00583
-1.04647
-1.04868
-1.05164
-1.05234
-1.02112
-0.990158
-0.929634
-0.853255
-0.769998
-0.682781
-0.593774
-0.505945
-0.423842
-0.355314
-0.317148
-0.329711
-0.510593
-0.784253
-1.01873
-1.04769
-1.04621
-1.05867
-1.05981
-1.05881
-1.04505
-1.01465
-0.954643
-0.878662
-0.795984
-0.709739
-0.622243
-0.536761
-0.458224
-0.395728
-0.36517
-0.397068
-0.59317
-0.86696
-1.20992
-1.28351
-1.18564
-1.10547
-1.06977
-1.06255
-1.06807
-1.03816
-0.979302
-0.903719
-0.82167
-0.736455
-0.650444
-0.567198
-0.491999
-0.434944
-0.410958
-0.457308
-0.661781
-0.886941
-1.29082
-1.53844
-1.28691
-1.13401
-1.06424
-1.04332
-1.08923
-1.06024
-1.00243
-0.927691
-0.846438
-0.762152
-0.677527
-0.596219
-0.523955
-0.470942
-0.453519
-0.509506
-0.702841
-0.763765
-0.75661
-1.08016
-1.22794
-1.3461
-1.30637
-1.28855
-1.10737
-1.07982
-1.02343
-0.949685
-0.869288
-0.786001
-0.702533
-0.622621
-0.552493
-0.501842
-0.491592
-0.552164
-0.778478
-0.703329
-0.0953495
-0.265628
-0.989842
-1.32727
-1.36282
-1.37726
-1.12142
-1.09577
-1.04136
-0.968737
-0.889231
-0.806863
-0.724295
-0.645145
-0.575592
-0.526141
-0.521677
-0.592594
-1.02817
-1.52038
-1.89514
-2.3898
-2.47261
-2.06353
-1.73537
-1.70874
-1.13019
-1.10707
-1.05507
-0.983821
-0.905242
-0.823653
-0.741611
-0.662445
-0.59141
-0.540405
-0.53487
-0.661629
-1.38717
-2.62992
-3.96543
-4.51729
-4.42742
-3.91045
-3.29898
-2.99405
-1.13287
-1.11263
-1.06359
-0.994073
-0.916332
-0.835361
-0.753406
-0.67312
-0.598784
-0.539601
-0.522837
-0.632374
-1.35551
-2.40748
-3.59823
-4.10843
-3.95942
-3.45861
-2.98222
-2.75925
-1.12805
-1.11129
-1.06628
-0.998478
-0.921729
-0.841225
-0.758919
-0.676711
-0.596445
-0.523003
-0.473243
-0.453831
-0.715123
-0.929985
-0.965541
-0.836421
-0.51355
-0.189719
0.0395488
0.141071
-1.11531
-1.10181
-1.06142
-0.996571
-0.920616
-0.840667
-0.758288
-0.673815
-0.586376
-0.49339
-0.398262
-0.32818
-0.118633
0.312074
0.858877
1.45011
1.88328
2.14009
2.26331
2.29775
-1.0942
-1.0844
-1.049
-0.98707
-0.912192
-0.833794
-0.752362
-0.666564
-0.572261
-0.46089
-0.338985
-0.217527
0.0174143
0.636117
1.33696
1.94255
2.38252
2.63927
2.75577
2.78821
-1.06399
-1.05755
-1.02714
-0.968211
-0.896267
-0.820782
-0.742474
-0.658614
-0.562858
-0.441677
-0.301329
-0.161386
0.00748976
0.521908
1.11637
1.61036
1.96095
2.16832
2.27137
2.30609
-1.02046
-1.01673
-0.991888
-0.938359
-0.871734
-0.802119
-0.731176
-0.655598
-0.566141
-0.443133
-0.282918
-0.13037
-0.00227557
0.328643
0.757777
1.11629
1.38852
1.55742
1.64945
1.68256
-0.960413
-0.957479
-0.938547
-0.894542
-0.837542
-0.778935
-0.721558
-0.662168
-0.588671
-0.478091
-0.311245
-0.133189
0.0358896
0.191587
0.438056
0.670078
0.860641
0.986427
1.05209
1.07288
-0.880355
-0.878253
-0.865685
-0.835956
-0.795629
-0.754277
-0.716113
-0.680704
-0.640616
-0.564854
-0.420023
-0.222846
-0.0451904
0.0730857
0.223706
0.383063
0.506826
0.593033
0.644642
0.655269
-0.805035
-0.803163
-0.795922
-0.779769
-0.757489
-0.735825
-0.720701
-0.717164
-0.728452
-0.746165
-0.673737
-0.467814
-0.250524
-0.153125
-0.0419547
0.0893764
0.19858
0.271906
0.306751
0.31331
-0.749348
-0.748493
-0.745813
-0.739474
-0.731785
-0.728894
-0.739801
-0.780115
-0.878791
-1.06334
-1.15566
-0.90585
-0.593557
-0.432604
-0.310247
-0.178013
-0.067142
0.00665442
0.0420142
0.0443212
-0.70517
-0.705905
-0.706228
-0.7063
-0.709811
-0.723513
-0.760602
-0.850641
-1.06359
-1.48419
-1.84919
-1.5582
-1.06474
-0.789084
-0.600418
-0.417963
-0.281533
-0.197213
-0.165034
-0.166246
-0.652053
-0.653931
-0.656553
-0.661078
-0.672259
-0.697613
-0.7541
-0.881496
-1.18184
-1.8026
-2.34833
-2.06246
-1.45526
-1.10141
-0.833971
-0.614776
-0.466068
-0.388746
-0.364484
-0.365625
-0.57762
-0.579925
-0.58373
-0.590616
-0.604864
-0.63427
-0.695239
-0.828383
-1.1376
-1.76663
-2.2614
-1.96606
-1.49031
-1.17013
-0.886371
-0.70054
-0.602217
-0.566347
-0.553854
-0.551707
-0.481769
-0.483878
-0.487634
-0.494281
-0.507038
-0.531977
-0.581809
-0.688507
-0.932024
-1.41133
-1.75915
-1.57279
-1.26291
-0.980359
-0.776243
-0.66534
-0.640311
-0.639604
-0.63476
-0.630942
-0.373952
-0.375389
-0.378208
-0.382772
-0.391301
-0.407162
-0.437733
-0.501097
-0.641485
-0.91328
-1.1065
-0.995422
-0.80343
-0.627143
-0.541443
-0.53355
-0.552931
-0.565719
-0.566524
-0.564588
-0.267614
-0.268293
-0.269872
-0.272142
-0.276028
-0.282732
-0.29502
-0.319343
-0.370516
-0.46483
-0.531562
-0.460098
-0.367115
-0.324473
-0.342289
-0.380119
-0.406435
-0.419035
-0.422074
-0.421858
-0.174102
-0.174214
-0.174828
-0.17548
-0.17614
-0.17662
-0.176979
-0.177516
-0.178946
-0.17725
-0.159668
-0.121719
-0.113704
-0.153668
-0.199925
-0.238007
-0.259824
-0.270172
-0.274366
-0.275127
-0.0996454
-0.0994573
-0.0995724
-0.0994806
-0.0986732
-0.0963807
-0.0915876
-0.0826772
-0.0674103
-0.0427489
-0.0186031
-0.00992303
-0.0226915
-0.0643973
-0.104063
-0.131739
-0.147497
-0.155315
-0.158949
-0.160022
-0.0452792
-0.045003
-0.0449633
-0.0447516
-0.0436802
-0.0408697
-0.0352392
-0.0251453
-0.00883555
0.013747
0.0298498
0.0261359
0.00918066
-0.0196325
-0.0461115
-0.0642386
-0.0746851
-0.0801158
-0.0828287
-0.0837178
-0.00855593
-0.0083108
-0.00828735
-0.00822837
-0.00748045
-0.00522067
-0.000573016
0.00753029
0.0198922
0.0352115
0.0433519
0.0369633
0.0220765
0.00338074
-0.0131021
-0.0246038
-0.0314846
-0.0351755
-0.0370099
-0.0375991
0.0144009
0.0145701
0.0145225
0.0143572
0.0146559
0.0160534
0.0191942
0.024745
0.0328756
0.0419355
0.045013
0.0388388
0.0277377
0.0156273
0.00528318
-0.00214686
-0.00680026
-0.00934739
-0.0105705
-0.0109805
0.0274821
0.0275746
0.0274528
0.0271139
0.0270268
0.0276681
0.0294437
0.0327088
0.0374216
0.0421913
0.0426507
0.0375167
0.0297248
0.0217568
0.0150564
0.0101104
0.00687159
0.0050673
0.00423846
0.00398604
0.0338794
0.0339135
0.0337409
0.0332961
0.0329606
0.0330573
0.0338599
0.0355425
0.0379483
0.0400439
0.0392331
0.035097
0.029609
0.0242377
0.0197474
0.0163524
0.0140484
0.0127509
0.0121829
0.0120135
0.0359226
0.0359206
0.0357182
0.0352257
0.0347457
0.0344861
0.0346239
0.0352462
0.0362059
0.0367564
0.0353929
0.0321126
0.028196
0.0244821
0.0213828
0.0189987
0.0173385
0.0163984
0.0160043
0.0158828
0.0351873
0.0351663
0.0349588
0.0344735
0.0339349
0.0334847
0.0332349
0.0332157
0.0333043
0.0330087
0.0314962
0.028902
0.0260378
0.0233956
0.0211978
0.0194872
0.0182744
0.0175866
0.0173085
0.017228
0.0327198
0.0326917
0.0324983
0.0320533
0.0315184
0.0309938
0.0305483
0.0301905
0.0298235
0.0291128
0.0276224
0.0255542
0.0234191
0.0214975
0.0199054
0.0186578
0.0177633
0.0172565
0.0170578
0.0170019
0.0291987
0.0291703
0.0290019
0.0286129
0.0281208
0.0275949
0.0270768
0.0265631
0.0259834
0.025121
0.0237667
0.022125
0.0205148
0.0190956
0.0179263
0.0170073
0.0163442
0.0159688
0.0158255
0.0157861
0.0250523
0.0250272
0.0248886
0.0245641
0.0241367
0.0236576
0.02315
0.0226067
0.0219762
0.0211168
0.0199455
0.0186512
0.0174335
0.0163789
0.0155148
0.0148348
0.0143423
0.0140641
0.0139606
0.0139326
0.020546
0.0205253
0.0204168
0.0201577
0.0198048
0.019398
0.0189486
0.018449
0.0178634
0.0171002
0.0161414
0.0151447
0.0142352
0.0134584
0.0128242
0.0123242
0.0119606
0.0117563
0.0116824
0.0116627
0.015839
0.0158231
0.0157424
0.0155453
0.0152705
0.0149491
0.0145868
0.0141766
0.013694
0.013081
0.0123474
0.0116152
0.0109611
0.0104066
0.00995382
0.00959468
0.00933212
0.00918585
0.00913447
0.00912075
0.0110238
0.0110123
0.0109559
0.0108158
0.0106191
0.01039
0.0101312
0.00983701
0.00949129
0.00905927
0.00855726
0.0080682
0.00763666
0.00727153
0.0069709
0.00672883
0.00654948
0.00645001
0.00641584
0.00640632
0.00614904
0.00614138
0.00610753
0.0060222
0.00590584
0.00577545
0.00563024
0.00546585
0.00527342
0.00503584
0.00476358
0.00450132
0.00427138
0.00407626
0.00391333
0.00377796
0.00367406
0.00361623
0.00359634
0.00358936
0.00125297
0.00125552
0.00127
0.00127562
0.00125626
0.0012249
0.00118809
0.00114753
0.00110067
0.00104355
0.000975491
0.000906399
0.000845611
0.000793817
0.000750998
0.000716439
0.000691181
0.000683237
0.000693847
0.000701509
-0.745124
-0.521459
-0.267808
-0.0596593
0.109394
0.245695
0.360797
0.457956
0.502528
0.480078
-0.343222
-0.189387
-0.0289691
0.109279
0.226707
0.325136
0.405278
0.462588
0.492371
0.50362
-0.067506
0.0346101
0.142083
0.237662
0.320154
0.389405
0.444469
0.484681
0.512911
0.530007
0.125876
0.196019
0.271262
0.339548
0.398894
0.449135
0.490122
0.522389
0.547861
0.565597
0.271912
0.322616
0.37649
0.427407
0.472266
0.511165
0.544105
0.571119
0.593151
0.610653
0.389203
0.426777
0.469561
0.509746
0.546282
0.578736
0.606822
0.630147
0.649075
0.666268
0.489629
0.520942
0.558187
0.593113
0.625502
0.654695
0.680038
0.700928
0.717167
0.734204
0.583012
0.613869
0.649878
0.683637
0.714742
0.742608
0.766498
0.785743
0.799629
0.816685
0.681305
0.715448
0.753312
0.78797
0.818961
0.845961
0.86857
0.88634
0.898577
0.916022
0.798193
0.836388
0.875828
0.910797
0.940725
0.965974
0.986758
1.00297
1.01469
1.03281
0.944333
0.983271
1.01965
1.05072
1.07676
1.09916
1.11846
1.1342
1.14678
1.16482
1.11976
1.15181
1.17824
1.20087
1.22106
1.23996
1.25782
1.27442
1.28987
1.30797
1.30876
1.32614
1.3414
1.35779
1.37381
1.38844
1.40173
1.41573
1.43334
1.45353
1.49094
1.5004
1.51201
1.52287
1.5322
1.54188
1.55278
1.5642
1.57561
1.59098
1.69817
1.70188
1.68695
1.67216
1.66598
1.67172
1.69022
1.72057
1.75278
1.77945
2.00451
1.86966
1.7931
1.75084
1.73344
1.73741
1.76485
1.82126
1.92389
2.14827
0.293795
0.291676
0.287192
0.278579
0.266374
0.254267
0.244061
0.236176
0.230535
0.227207
0.226698
0.229221
0.234117
0.241158
0.250395
0.261818
0.274382
0.285354
0.291441
0.294467
0.218209
0.224061
0.230415
0.234941
0.23744
0.237147
0.234436
0.230642
0.22712
0.224784
0.22447
0.226441
0.229874
0.23396
0.237604
0.239354
0.238314
0.234745
0.229513
0.222867
0.209745
0.212044
0.21548
0.218529
0.220664
0.222216
0.223017
0.222729
0.221685
0.220705
0.220694
0.221885
0.223458
0.224529
0.224503
0.223439
0.22174
0.219277
0.215924
0.212966
0.204186
0.205268
0.207157
0.209628
0.211746
0.213254
0.214333
0.215109
0.215501
0.215643
0.215933
0.216443
0.216739
0.216534
0.215881
0.214815
0.213147
0.210881
0.208656
0.20723
0.198962
0.199613
0.2008
0.202661
0.204611
0.206403
0.207827
0.208903
0.209764
0.21045
0.210944
0.211156
0.211009
0.21051
0.209606
0.208219
0.206483
0.204665
0.203151
0.202326
0.19403
0.194458
0.195342
0.196872
0.198609
0.200363
0.202033
0.203469
0.20463
0.205557
0.206187
0.20637
0.206081
0.205344
0.204181
0.202741
0.20119
0.19967
0.198493
0.19794
0.189495
0.189791
0.190507
0.191875
0.193507
0.195161
0.196831
0.19846
0.199896
0.201042
0.201815
0.202039
0.201673
0.200807
0.199638
0.198326
0.19693
0.195555
0.194569
0.194168
0.185315
0.1855
0.186085
0.187328
0.188847
0.190399
0.191923
0.19343
0.194917
0.196282
0.197243
0.197523
0.197232
0.19658
0.195678
0.194568
0.193328
0.192105
0.191267
0.190988
0.181862
0.181945
0.182403
0.183548
0.185014
0.186538
0.188127
0.189712
0.191238
0.192653
0.193783
0.194334
0.194288
0.193776
0.192931
0.191925
0.190804
0.189693
0.189002
0.188837
0.179352
0.179385
0.179674
0.180483
0.181621
0.182833
0.184115
0.185527
0.187075
0.188668
0.190042
0.190844
0.191064
0.190918
0.190525
0.189941
0.189213
0.188507
0.188111
0.188025
0.176977
0.177004
0.17719
0.177673
0.178437
0.179391
0.180551
0.181923
0.183487
0.185205
0.186868
0.188053
0.188664
0.188835
0.18876
0.188534
0.188275
0.18801
0.187862
0.187807
0.173916
0.173941
0.17409
0.174436
0.175004
0.175803
0.176868
0.178254
0.179988
0.181998
0.184048
0.185631
0.186594
0.18714
0.187324
0.187445
0.187527
0.187544
0.187515
0.187477
0.169999
0.170013
0.170154
0.170502
0.171027
0.171799
0.172923
0.174418
0.176346
0.178684
0.18121
0.18331
0.184712
0.185604
0.18624
0.186647
0.186895
0.187013
0.187026
0.187005
0.16542
0.16542
0.16556
0.165972
0.16663
0.167524
0.168805
0.170551
0.172841
0.175639
0.178775
0.181482
0.183391
0.184678
0.185548
0.186124
0.18648
0.186634
0.186686
0.18669
0.160305
0.160293
0.160428
0.160887
0.161656
0.162828
0.164312
0.166352
0.169049
0.172478
0.176384
0.179841
0.182356
0.184127
0.185323
0.18612
0.186561
0.18679
0.186899
0.18692
0.154641
0.154615
0.154768
0.155274
0.156184
0.157499
0.159372
0.161818
0.165099
0.169316
0.174181
0.178563
0.181794
0.184045
0.18563
0.186691
0.187321
0.187679
0.187857
0.187891
0.148201
0.148168
0.148358
0.148928
0.149969
0.151527
0.153719
0.156746
0.160806
0.16604
0.172119
0.177622
0.181693
0.184607
0.186658
0.188016
0.188884
0.189406
0.189655
0.189698
0.140612
0.140572
0.140801
0.141508
0.142731
0.144582
0.147272
0.15103
0.156087
0.162626
0.170223
0.177112
0.182227
0.185934
0.188488
0.190224
0.191369
0.19207
0.192392
0.192443
0.131474
0.131425
0.131727
0.132586
0.13411
0.136424
0.139784
0.144487
0.150837
0.159039
0.168531
0.177102
0.183494
0.188073
0.191268
0.193453
0.194913
0.195811
0.196215
0.196278
0.120344
0.120285
0.120694
0.121809
0.123735
0.126675
0.130944
0.13692
0.144963
0.15527
0.167099
0.177715
0.185588
0.191236
0.195192
0.197907
0.199731
0.200858
0.201359
0.201434
0.106548
0.106477
0.10704
0.108525
0.111051
0.114884
0.120425
0.128126
0.138366
0.151324
0.16601
0.17907
0.18871
0.195625
0.200479
0.203823
0.206078
0.207477
0.208099
0.208188
0.089148
0.0890679
0.0898763
0.0919152
0.0953195
0.100451
0.107788
0.117826
0.130945
0.147237
0.165378
0.181321
0.193035
0.201444
0.207366
0.211467
0.214247
0.215975
0.216745
0.216849
0.0667426
0.0666731
0.0678913
0.0707838
0.0755281
0.0826015
0.0925353
0.105804
0.122692
0.143115
0.165352
0.184632
0.198737
0.208889
0.216086
0.221111
0.224542
0.226677
0.227621
0.227744
0.0369573
0.0369449
0.0389074
0.0432924
0.050316
0.0604981
0.0742966
0.0920235
0.11375
0.139169
0.166139
0.189173
0.205965
0.218113
0.226821
0.232985
0.237247
0.239909
0.241071
0.241214
-0.00443472
-0.00422492
-0.000584627
0.00691369
0.0181319
0.0334475
0.0529648
0.0766955
0.104454
0.135722
0.167973
0.19509
0.214804
0.229174
0.239639
0.247209
0.252568
0.255938
0.257367
0.257521
-0.0652348
-0.0636444
-0.0549328
-0.0408565
-0.0218909
0.00157799
0.0290969
0.0604697
0.0953608
0.133154
0.171042
0.202417
0.225184
0.241925
0.254343
0.26358
0.270296
0.274636
0.276474
0.276665
-0.137984
-0.135394
-0.119107
-0.094432
-0.0649017
-0.031942
0.00433951
0.0438968
0.086466
0.131523
0.176067
0.212893
0.239901
0.26016
0.275607
0.287505
0.29668
0.302389
0.304307
0.304869
-0.212887
-0.204623
-0.180591
-0.145829
-0.106682
-0.0645432
-0.0196111
0.0280777
0.0783199
0.130666
0.181937
0.224275
0.255517
0.279256
0.297722
0.312279
0.323648
0.33082
0.334227
0.335291
-0.270998
-0.26133
-0.232391
-0.190972
-0.144407
-0.0946154
-0.0420445
0.0131013
0.0705203
0.129708
0.187179
0.234371
0.269111
0.295498
0.316016
0.332194
0.344809
0.353341
0.357798
0.359053
-0.318026
-0.307814
-0.275482
-0.229291
-0.177178
-0.121362
-0.0624752
-0.000882812
0.0629181
0.128287
0.191304
0.242649
0.280139
0.30836
0.330113
0.347158
0.360422
0.369697
0.374456
0.375768
-0.35694
-0.346642
-0.312221
-0.262389
-0.20581
-0.145131
-0.0809901
-0.0138692
0.0555527
0.126438
0.194405
0.249308
0.288969
0.318497
0.341012
0.358452
0.371869
0.381266
0.386035
0.387481
-0.390649
-0.380372
-0.344385
-0.291669
-0.231442
-0.166671
-0.0980002
-0.0260667
0.0483525
0.124232
0.196693
0.254834
0.296435
0.327047
0.350081
0.367686
0.381116
0.390502
0.395267
0.396679
-0.420694
-0.410472
-0.373332
-0.3182
-0.254962
-0.186672
-0.114057
-0.0378296
0.0411291
0.121641
0.198382
0.259601
0.302985
0.334551
0.358025
0.375787
0.389195
0.398572
0.403376
0.404647
-0.448282
-0.438077
-0.399996
-0.34284
-0.277023
-0.205661
-0.129551
-0.0494557
0.0336635
0.118522
0.199346
0.263574
0.308794
0.341401
0.365409
0.383383
0.396851
0.406217
0.411037
0.412155
-0.474171
-0.463958
-0.425054
-0.366132
-0.298029
-0.223981
-0.144782
-0.0612085
0.0257357
0.114677
0.199532
0.266931
0.314173
0.34797
0.37262
0.390902
0.404478
0.413818
0.418625
0.419643
-0.49882
-0.488581
-0.448923
-0.388466
-0.318359
-0.241917
-0.159957
-0.0732416
0.0172276
0.110099
0.199009
0.269719
0.319184
0.354389
0.379855
0.398572
0.412343
0.421706
0.426483
0.427464
-0.522608
-0.512275
-0.471868
-0.410116
-0.338181
-0.259606
-0.175178
-0.0856147
0.00813002
0.104737
0.197652
0.271855
0.323811
0.360693
0.387201
0.406515
0.420596
0.430046
0.434714
0.435687
-0.545718
-0.535218
-0.494154
-0.431192
-0.357616
-0.277159
-0.190522
-0.0983826
-0.00164698
0.0984644
0.195355
0.273264
0.328029
0.36688
0.394683
0.414782
0.429288
0.438879
0.443447
0.444389
-0.56817
-0.557476
-0.515873
-0.451756
-0.376741
-0.294613
-0.206014
-0.111586
-0.0121514
0.0912418
0.192036
0.273809
0.331726
0.372903
0.402282
0.423367
0.438418
0.448184
0.452659
0.453491
-0.590098
-0.579183
-0.536991
-0.471828
-0.395556
-0.311955
-0.221638
-0.125196
-0.0233343
0.0830728
0.187602
0.273337
0.334706
0.378622
0.409924
0.432223
0.447935
0.4579
0.46225
0.462946
-0.611434
-0.600298
-0.557546
-0.491432
-0.41404
-0.329151
-0.237337
-0.139139
-0.035154
0.0739476
0.181988
0.27169
0.336756
0.383829
0.417496
0.441309
0.457801
0.467951
0.472132
0.472642
-0.632197
-0.620814
-0.577496
-0.510535
-0.432157
-0.346148
-0.253046
-0.153346
-0.0475463
0.0639101
0.175156
0.268712
0.337648
0.388291
0.424866
0.450604
0.467988
0.478182
0.482033
0.482344
-0.652241
-0.640683
-0.596804
-0.52909
-0.449841
-0.362865
-0.268694
-0.167738
-0.0604162
0.0530441
0.167102
0.264283
0.337116
0.391683
0.431813
0.460136
0.478633
0.488574
0.491778
0.491819
-0.671666
-0.659853
-0.61545
-0.547066
-0.467059
-0.379262
-0.284187
-0.182217
-0.0736579
0.0414497
0.157872
0.258314
0.334913
0.393571
0.437927
0.469889
0.490196
0.499483
0.501203
0.500752
-0.690345
-0.678279
-0.633406
-0.564413
-0.483735
-0.395258
-0.299442
-0.196662
-0.087152
0.0292218
0.147552
0.250773
0.330853
0.39348
0.442521
0.479504
0.503378
0.512399
0.510995
0.50878
-0.708312
-0.696036
-0.650629
-0.581084
-0.499831
-0.410785
-0.314377
-0.210991
-0.100778
0.01652
0.136269
0.241663
0.324816
0.390964
0.444534
0.487757
0.518065
0.530279
0.526049
0.514773
-0.725503
-0.713064
-0.667228
-0.597221
-0.515544