/*--------------------------------*- C++ -*----------------------------------*\
  =========                 |
  \\      /  F ield         | OpenFOAM: The Open Source CFD Toolbox
   \\    /   O peration     | Website:  https://openfoam.org
    \\  /    A nd           | Version:  7
     \\/     M anipulation  |
\*---------------------------------------------------------------------------*/
FoamFile
{
    version     2.0;
    format      ascii;
    class       volScalarField;
    location    "5.9";
    object      T;
}
// * * * * * * * * * * * * * * * * * * * * * * * * * * * * * * * * * * * * * //

dimensions      [0 0 0 1 0 0 0];

internalField   nonuniform List<scalar> 
19968
(
1
1
1
1
1
1
1
1
1
1
1
1
1
1
1
1
1
1
1
1
1
1
1
1
1
1
1
1
1
1
1
1
1
1
1
1
1
1
1
1
1
1
1
1
1
1
1
1
1.27558
2.45879
2.69319
2.69288
2.6966
2.70014
2.70425
2.70859
2.71305
2.7176
2.72221
2.72676
2.73093
2.73435
2.73704
2.73956
2.74246
2.74592
2.74972
2.7535
2.75682
2.75953
2.76197
2.76456
2.76746
2.7705
2.77336
2.77586
2.77806
2.78017
2.78233
2.7845
2.78652
2.78828
2.78981
2.79124
2.79274
2.79437
2.79607
2.79773
2.79922
2.80048
2.80149
2.80223
2.8027
2.8029
2.80294
2.80294
1
1
1
1
1
1
1
1
1
1
1
1
1
1
1
1
1
1
1
1
1
1
1
1
1
1
1
1
1
1
1
1
1
1
1
1
1
1
1
1
1
1
1
1
1
1
1
1
1.26071
2.45075
2.69243
2.69319
2.69661
2.70019
2.70429
2.7086
2.71303
2.71755
2.7221
2.72652
2.7306
2.73396
2.73671
2.73929
2.74224
2.7457
2.74948
2.75321
2.75649
2.75921
2.76168
2.7643
2.76722
2.77027
2.77314
2.77562
2.77779
2.77986
2.782
2.78415
2.78619
2.78797
2.78952
2.79098
2.79247
2.79407
2.79574
2.79736
2.79882
2.80005
2.80104
2.80177
2.80222
2.80241
2.80244
2.80243
1
1
1
1
1
1
1
1
1
1
1
1
1
1
1
1
1
1
1
1
1
1
1
1
1
1
1
1
1
1
1
1
1
1
1
1
1
1
1
1
1
1
1
1
1
1
1
1
1.22619
2.43124
2.69146
2.6928
2.69628
2.69998
2.7041
2.7084
2.71277
2.7172
2.72158
2.72578
2.72972
2.73307
2.73598
2.73876
2.74185
2.74531
2.749
2.7526
2.75581
2.75853
2.76107
2.76378
2.76675
2.76982
2.77268
2.77513
2.77726
2.77929
2.78139
2.78353
2.78559
2.78742
2.78902
2.79049
2.79197
2.79353
2.79515
2.79674
2.79818
2.79941
2.80038
2.80108
2.80151
2.80167
2.80169
2.80168
1
1
1
1
1
1
1
1
1
1
1
1
1
1
1
1
1
1
1
1
1
1
1
1
1
1
1
1
1
1
1
1
1
1
1
1
1
1
1
1
1
1
1
1
1
1
1
1
1.17729
2.40138
2.6897
2.69222
2.69586
2.69993
2.70422
2.7085
2.71267
2.71677
2.72083
2.72472
2.72851
2.73191
2.73507
2.73815
2.74141
2.74486
2.74839
2.75179
2.75487
2.75759
2.76022
2.76303
2.76608
2.76917
2.77201
2.77443
2.77651
2.77848
2.78052
2.78264
2.78472
2.7866
2.78824
2.78972
2.79115
2.79263
2.79417
2.79568
2.79708
2.79828
2.79924
2.79993
2.80035
2.80052
2.80054
2.80055
1
1
1
1
1
1
1
1
1
1
1
1
1
1
1
1
1
1
1
1
1
1
1
1
1
1
1
1
1
1
1
1
1
1
1
1
1
1
1
1
1
1
1
1
1
1
1
1
1.11649
2.36296
2.68728
2.69141
2.69537
2.69985
2.70435
2.70867
2.71262
2.71636
2.72002
2.72361
2.72728
2.73082
2.7343
2.73767
2.74103
2.74437
2.74767
2.75082
2.75375
2.75648
2.75922
2.76217
2.7653
2.76842
2.77124
2.77362
2.77565
2.77756
2.77954
2.78164
2.78374
2.78568
2.78738
2.78887
2.79025
2.79163
2.79304
2.79443
2.79572
2.79682
2.79769
2.79829
2.79864
2.79878
2.79878
2.79879
1
1
1
1
1
1
1
1
1
1
1
1
1
1
1
1
1
1
1
1
1
1
1
1
1
1
1
1
1
1
1
1
1
1
1
1
1
1
1
1
1
1
1
1
1
1
1
1
1.00543
2.29731
2.68391
2.6914
2.69586
2.70053
2.70504
2.70929
2.713
2.71633
2.71945
2.72268
2.72629
2.73007
2.73392
2.73758
2.74093
2.74402
2.74694
2.74974
2.75244
2.75512
2.75792
2.76093
2.76408
2.76714
2.76989
2.7722
2.77416
2.77598
2.77787
2.7799
2.78198
2.78396
2.78572
2.78724
2.78861
2.78993
2.79125
2.79255
2.79378
2.79484
2.79568
2.79627
2.79662
2.79678
2.7968
2.79684
1
1
1
1
1
1
1
1
1
1
1
1
1
1
1
1
1
1
1
1
1
1
1
1
1
1
1
1
1
1
1
1
1
1
1
1
1
1
1
1
1
1
1
1
1
1
1
1
1.00002
2.21088
2.67743
2.68774
2.69226
2.69723
2.70202
2.7065
2.7103
2.71349
2.71639
2.71954
2.72329
2.7274
2.73164
2.73559
2.73896
2.74186
2.74448
2.74706
2.74967
2.75241
2.75535
2.75848
2.76164
2.76467
2.76737
2.76967
2.77162
2.77343
2.77528
2.77727
2.77935
2.78139
2.78324
2.78484
2.78624
2.78752
2.78875
2.78994
2.79106
2.79204
2.79284
2.79343
2.79379
2.79399
2.79404
2.79412
1
1
1
1
1
1
1
1
1
1
1
1
1
1
1
1
1
1
1
1
1
1
1
1
1
1
1
1
1
1
1
1
1
1
1
1
1
1
1
1
1
1
1
1
1
1
1
1
1
2.08626
2.66738
2.68385
2.68806
2.69317
2.69823
2.70304
2.70708
2.71043
2.71353
2.71685
2.72067
2.72478
2.72895
2.73286
2.73616
2.73899
2.74157
2.74414
2.74681
2.74967
2.75273
2.75591
2.75903
2.76195
2.76458
2.76686
2.76882
2.77062
2.77242
2.77433
2.77634
2.77838
2.78028
2.78196
2.78339
2.78462
2.78574
2.78678
2.78775
2.78861
2.78934
2.78991
2.79029
2.79054
2.79063
2.79075
1
1
1
1
1
1
1
1
1
1
1
1
1
1
1
1
1
1
1
1
1
1
1
1
1
1
1
1
1
1
1
1
1
1
1
1
1
1
1
1
1
1
1
1
1
1
1
1
1
1.91308
2.64033
2.67674
2.68137
2.68698
2.69239
2.69763
2.70211
2.70592
2.70945
2.71309
2.717
2.72101
2.72491
2.7286
2.73182
2.73468
2.73739
2.74014
2.74296
2.74592
2.749
2.75211
2.7551
2.7579
2.76047
2.76276
2.76478
2.76661
2.76839
2.77022
2.77216
2.77416
2.77609
2.77783
2.7793
2.78053
2.78157
2.78249
2.78333
2.78409
2.78477
2.78534
2.78577
2.78608
2.78621
2.78638
1
1
1
1
1
1
1
1
1
1
1
1
1
1
1
1
1
1
1
1
1
1
1
1
1
1
1
1
1
1
1
1
1
1
1
1
1
1
1
1
1
1
1
1
1
1
1
1
1
1.68131
2.58484
2.67066
2.67576
2.68144
2.68655
2.69171
2.69647
2.70076
2.70475
2.70867
2.71261
2.71648
2.7201
2.72353
2.72668
2.72965
2.7326
2.73563
2.73864
2.74163
2.7446
2.74751
2.75029
2.7529
2.75537
2.75765
2.75969
2.76152
2.76324
2.76498
2.76682
2.76876
2.77071
2.77252
2.77407
2.77532
2.77631
2.7771
2.77777
2.77837
2.77893
2.77944
2.77985
2.78017
2.78029
2.78047
1
1
1
1
1
1
1
1
1
1
1
1
1
1
1
1
1
1
1
1
1
1
1
1
1
1
1
1
1
1
1
1
1
1
1
1
1
1
1
1
1
1
1
1
1
1
1
1
1
1.36813
2.47665
2.67151
2.6717
2.6771
2.68129
2.68606
2.6908
2.69527
2.69945
2.70346
2.70734
2.71109
2.71455
2.71783
2.72098
2.7241
2.72727
2.73053
2.73369
2.73666
2.73947
2.74213
2.74472
2.74722
2.74966
2.75195
2.75399
2.75577
2.75737
2.75892
2.76053
2.76223
2.76398
2.76563
2.76705
2.76817
2.76902
2.76968
2.77023
2.77075
2.77128
2.7718
2.77224
2.77259
2.77272
2.77293
1
1
1
1
1
1
1
1
1
1
1
1
1
1
1
1
1
1
1
1
1
1
1
1
1
1
1
1
1
1
1
1
1
1
1
1
1
1
1
1
1
1
1
1
1
1
1
1
1
1.01479
2.29248
2.6776
2.67697
2.67918
2.68201
2.68545
2.68892
2.69229
2.6956
2.69896
2.70235
2.70574
2.70895
2.71191
2.71478
2.7177
2.72077
2.72397
2.7271
2.72989
2.73245
2.7348
2.73713
2.73949
2.74189
2.74422
2.74632
2.7481
2.74965
2.75109
2.75255
2.7541
2.75572
2.75729
2.75865
2.75973
2.76049
2.761
2.76132
2.76153
2.76169
2.76179
2.76181
2.76183
2.76174
2.76182
1
1
1
1
1
1
1
1
1
1
1
1
1
1
1
1
1
1
1
1
1
1
1
1
1
1
1
1
1
1
1
1
1
1
1
1
1
1
1
1
1
1
1
1
1
1
1
1
1
1.00003
2.00894
2.64602
2.66197
2.66635
2.67156
2.67619
2.6801
2.68356
2.6868
2.69
2.69326
2.69652
2.6997
2.70268
2.70549
2.70838
2.71145
2.71458
2.71767
2.72036
2.72274
2.72492
2.72707
2.72935
2.73177
2.73418
2.73634
2.73811
2.73957
2.74088
2.74216
2.74348
2.74481
2.74604
2.74702
2.74764
2.74791
2.74793
2.7478
2.74762
2.74754
2.74756
2.74751
2.74742
2.74716
2.74712
1
1
1
1
1
1
1
1
1
1
1
1
1
1
1
1
1
1
1
1
1
1
1
1
1
1
1
1
1
1
1
1
1
1
1
1
1
1
1
1
1
1
1
1
1
1
1
1
1
1
1.53615
2.51451
2.64661
2.65415
2.6623
2.66769
2.67219
2.67611
2.67965
2.68297
2.68623
2.68947
2.69267
2.6957
2.69845
2.70109
2.70382
2.7065
2.70915
2.71149
2.71347
2.71527
2.71704
2.71898
2.72111
2.72332
2.72529
2.7268
2.72792
2.72886
2.72977
2.7307
2.73163
2.73245
2.73304
2.73329
2.73321
2.73297
2.73254
2.73191
2.73104
2.72989
2.72808
2.7256
2.72276
2.7205
1
1
1
1
1
1
1
1
1
1
1
1
1
1
1
1
1
1
1
1
1
1
1
1
1
1
1
1
1
1
1
1
1
1
1
1
1
1
1
1
1
1
1
1
1
1
1
1
1
1
1.02664
2.25022
2.6565
2.65512
2.65639
2.6597
2.66359
2.66746
2.67088
2.67388
2.67676
2.67976
2.68291
2.68608
2.68893
2.69138
2.6937
2.69594
2.69807
2.70004
2.70166
2.70308
2.7045
2.70605
2.70779
2.70963
2.71131
2.71253
2.71327
2.7136
2.71379
2.71403
2.71434
2.71451
2.7143
2.71358
2.71226
2.7104
2.70791
2.70474
2.70098
2.69691
2.69317
2.68948
2.68698
2.68568
1
1
1
1
1
1
1
1
1
1
1
1
1
1
1
1
1
1
1
1
1
1
1
1
1
1
1
1
1
1
1
1
1
1
1
1
1
1
1
1
1
1
1
1
1
1
1
1
1
1
1.00004
1.76179
2.55939
2.6335
2.63875
2.64403
2.64874
2.65336
2.65743
2.66092
2.66409
2.66734
2.67081
2.67428
2.67746
2.68005
2.68217
2.68406
2.68578
2.68737
2.68872
2.6898
2.69071
2.6917
2.69284
2.69408
2.69538
2.69627
2.69632
2.69577
2.6948
2.69385
2.69307
2.69218
2.69078
2.68864
2.6857
2.68204
2.67767
2.67257
2.66669
2.66043
2.65441
2.65199
2.64945
2.66399
1
1
1
1
1
1
1
1
1
1
1
1
1
1
1
1
1
1
1
1
1
1
1
1
1
1
1
1
1
1
1
1
1
1
1
1
1
1
1
1
1
1
1
1
1
1
1
1
1
1
1
1.1087
2.33851
2.63205
2.63132
2.63334
2.63763
2.64214
2.64641
2.65015
2.65333
2.65637
2.65958
2.66297
2.66626
2.66902
2.67097
2.67251
2.67387
2.67514
2.67635
2.67714
2.67761
2.67806
2.6785
2.67898
2.67972
2.68018
2.67981
2.67841
2.67622
2.67387
2.67166
2.66937
2.66648
2.66256
2.6573
2.65058
2.642
2.63105
2.61592
2.5952
2.56471
2.5218
2.45849
2.33084
1
1
1
1
1
1
1
1
1
1
1
1
1
1
1
1
1
1
1
1
1
1
1
1
1
1
1
1
1
1
1
1
1
1
1
1
1
1
1
1
1
1
1
1
1
1
1
1
1
1
1
1.00096
2.00633
2.59843
2.61375
2.61791
2.62313
2.62788
2.63221
2.63621
2.63971
2.64301
2.6465
2.65027
2.65398
2.65712
2.65931
2.6608
2.66204
2.66324
2.6645
2.66551
2.66601
2.66605
2.66575
2.6654
2.66539
2.66533
2.66461
2.66268
2.65963
2.656
2.65225
2.64836
2.64381
2.63808
2.63042
2.62063
2.6077
2.59147
2.56902
2.53892
2.49429
2.43474
2.32422
2.16321
1
1
1
1
1
1
1
1
1
1
1
1
1
1
1
1
1
1
1
1
1
1
1
1
1
1
1
1
1
1
1
1
1
1
1
1
1
1
1
1
1
1
1
1
1
1
1
1
1
1
1
0.999999
1.37335
2.41823
2.60038
2.60408
2.611
2.61698
2.6214
2.62506
2.62811
2.63092
2.63406
2.63773
2.64165
2.64524
2.64771
2.6492
2.65009
2.65094
2.652
2.65321
2.65389
2.65375
2.65305
2.65198
2.65105
2.65009
2.64861
2.64608
2.64232
2.63763
2.63231
2.62664
2.62015
2.61246
2.60248
2.58985
2.57337
2.55266
2.52564
2.48921
2.4404
2.36717
2.26208
2.13031
1
1
1
1
1
1
1
1
1
1
1
1
1
1
1
1
1
1
1
1
1
1
1
1
1
1
1
1
1
1
1
1
1
1
1
1
1
1
1
1
1
1
1
1
1
1
1
1
1
1
1
1
1.01352
2.10529
2.5966
2.5965
2.59982
2.60529
2.60997
2.61334
2.6159
2.61796
2.62047
2.62381
2.6279
2.63192
2.63483
2.63647
2.63706
2.63739
2.63797
2.63894
2.63979
2.63994
2.63934
2.63808
2.63648
2.63453
2.63203
2.6287
2.62425
2.61881
2.61229
2.60501
2.59659
2.58685
2.57486
2.55996
2.54117
2.51762
2.48815
2.44956
2.39996
2.33277
2.24799
2.14661
1
1
1
1
1
1
1
1
1
1
1
1
1
1
1
1
1
1
1
1
1
1
1
1
1
1
1
1
1
1
1
1
1
1
1
1
1
1
1
1
1
1
1
1
1
1
1
1
1
1
1
1
1.00001
1.4457
2.4354
2.58626
2.59121
2.59693
2.60054
2.60283
2.60443
2.60566
2.60739
2.60993
2.61354
2.61735
2.62065
2.62274
2.62348
2.6235
2.62357
2.62397
2.62457
2.62491
2.62452
2.62342
2.62157
2.61896
2.61553
2.61131
2.60607
2.59996
2.59266
2.58424
2.57438
2.56291
2.5493
2.53281
2.51273
2.48806
2.45817
2.42015
2.37386
2.31713
2.25181
2.17048
1
1
1
1
1
1
1
1
1
1
1
1
1
1
1
1
1
1
1
1
1
1
1
1
1
1
1
1
1
1
1
1
1
1
1
1
1
1
1
1
1
1
1
1
1
1
1
1
1
1
1
1
1
1.0193
2.11315
2.58666
2.58776
2.5893
2.591
2.59254
2.59358
2.59434
2.59537
2.59691
2.59971
2.60295
2.60607
2.60834
2.6091
2.60894
2.60856
2.60845
2.60856
2.60879
2.60856
2.60769
2.60583
2.60291
2.59882
2.5938
2.58784
2.58112
2.57334
2.5643
2.55364
2.5411
2.52634
2.50886
2.48827
2.46361
2.43466
2.39904
2.35822
2.31007
2.25716
2.19416
1
1
1
1
1
1
1
1
1
1
1
1
1
1
1
1
1
1
1
1
1
1
1
1
1
1
1
1
1
1
1
1
1
1
1
1
1
1
1
1
1
1
1
1
1
1
1
1
1
1
1
1
1
1.00002
1.40619
2.41466
2.57415
2.57793
2.58116
2.58281
2.58338
2.58371
2.58397
2.58477
2.5867
2.58884
2.59107
2.59302
2.59369
2.59348
2.59291
2.59238
2.59215
2.59215
2.59188
2.59098
2.58901
2.58585
2.58142
2.57603
2.56974
2.5626
2.55445
2.5451
2.53426
2.52151
2.50646
2.48872
2.46843
2.44409
2.4166
2.38452
2.34878
2.30645
2.26274
2.2114
1
1
1
1
1
1
1
1
1
1
1
1
1
1
1
1
1
1
1
1
1
1
1
1
1
1
1
1
1
1
1
1
1
1
1
1
1
1
1
1
1
1
1
1
1
1
1
1
1
1
1
1
1
1
1.01469
2.03712
2.55826
2.5678
2.57047
2.57209
2.57343
2.57417
2.57475
2.57543
2.57663
2.57766
2.57875
2.57968
2.57963
2.57914
2.57804
2.57688
2.57611
2.57573
2.57522
2.57412
2.57186
2.56833
2.56356
2.55801
2.5517
2.54448
2.53618
2.5267
2.51593
2.50345
2.48878
2.47141
2.45189
2.42828
2.40268
2.37385
2.34213
2.3058
2.26867
2.22518
1
1
1
1
1
1
1
1
1
1
1
1
1
1
1
1
1
1
1
1
1
1
1
1
1
1
1
1
1
1
1
1
1
1
1
1
1
1
1
1
1
1
1
1
1
1
1
1
1
1
1
1
1
1
1.00001
1.23417
2.34938
2.56315
2.56112
2.56165
2.5623
2.56312
2.56393
2.56491
2.56572
2.56599
2.5662
2.56627
2.5659
2.56513
2.56364
2.56208
2.56078
2.55976
2.55866
2.55705
2.55436
2.55047
2.5454
2.53969
2.53348
2.52645
2.51832
2.50898
2.49848
2.48647
2.47277
2.45613
2.43756
2.41567
2.39179
2.3657
2.33757
2.30594
2.27308
2.23579
1
1
1
1
1
1
1
1
1
1
1
1
1
1
1
1
1
1
1
1
1
1
1
1
1
1
1
1
1
1
1
1
1
1
1
1
1
1
1
1
1
1
1
1
1
1
1
1
1
1
1
1
1
1
1
1.00389
1.85502
2.50433
2.53862
2.5435
2.54715
2.5489
2.55035
2.55219
2.55371
2.55415
2.5542
2.55387
2.55295
2.5517
2.54988
2.54813
2.54649
2.54466
2.54273
2.54049
2.53731
2.53312
2.52776
2.52182
2.51556
2.5087
2.50091
2.49191
2.48184
2.47028
2.45752
2.44162
2.42435
2.40453
2.38239
2.35904
2.33406
2.30576
2.27639
2.24453
1
1
1
1
1
1
1
1
1
1
1
1
1
1
1
1
1
1
1
1
1
1
1
1
1
1
1
1
1
1
1
1
1
1
1
1
1
1
1
1
1
1
1
1
1
1
1
1
1
1
1
1
1
1
1
1
1.09994
2.20401
2.52962
2.53539
2.53537
2.53526
2.53628
2.53861
2.54154
2.54272
2.5428
2.54227
2.54086
2.53914
2.53716
2.53532
2.53357
2.53109
2.52833
2.52531
2.52155
2.51699
2.51135
2.50516
2.49864
2.49166
2.48395
2.47529
2.46596
2.45473
2.44267
2.42769
2.41178
2.39377
2.37385
2.35298
2.33044
2.30482
2.27933
2.25119
1
1
1
1
1
1
1
1
1
1
1
1
1
1
1
1
1
1
1
1
1
1
1
1
1
1
1
1
1
1
1
1
1
1
1
1
1
1
1
1
1
1
1
1
1
1
1
1
1
1
1
1
1
1
1
1
1.00066
1.43845
2.35698
2.51356
2.51312
2.51629
2.51896
2.52261
2.52682
2.52949
2.52995
2.52947
2.52796
2.52594
2.52394
2.52213
2.52051
2.5179
2.51476
2.51115
2.50697
2.502
2.49619
2.48975
2.48284
2.47558
2.46773
2.45931
2.45047
2.43959
2.42801
2.41419
2.39951
2.38311
2.36555
2.3465
2.32634
2.30361
2.28113
2.25555
1
1
1
1
1
1
1
1
1
1
1
1
1
1
1
1
1
1
1
1
1
1
1
1
1
1
1
1
1
1
1
1
1
1
1
1
1
1
1
1
1
1
1
1
1
1
1
1
1
1
1
1
1
1
1
1
1
1.01692
1.88507
2.46631
2.49666
2.50186
2.5057
2.50919
2.5131
2.51577
2.51613
2.51561
2.51421
2.51217
2.51022
2.50846
2.5068
2.50475
2.50175
2.49812
2.49387
2.48883
2.48295
2.47628
2.46897
2.46136
2.45337
2.44468
2.43552
2.42524
2.41405
2.4014
2.38765
2.37279
2.35695
2.33939
2.32131
2.3012
2.28087
2.25765
1
1
1
1
1
1
1
1
1
1
1
1
1
1
1
1
1
1
1
1
1
1
1
1
1
1
1
1
1
1
1
1
1
1
1
1
1
1
1
1
1
1
1
1
1
1
1
1
1
1
1
1
1
1
1
1
1
1.00003
1.11461
2.11584
2.47477
2.49717
2.49751
2.49934
2.50139
2.50256
2.50244
2.50159
2.50009
2.49807
2.4961
2.49428
2.49254
2.49106
2.48872
2.48561
2.48166
2.47686
2.471
2.46418
2.45659
2.44859
2.44017
2.43132
2.42208
2.41214
2.40113
2.38931
2.37623
2.36275
2.348
2.33213
2.31566
2.29766
2.279
2.25811
1
1
1
1
1
1
1
1
1
1
1
1
1
1
1
1
1
1
1
1
1
1
1
1
1
1
1
1
1
1
1
1
1
1
1
1
1
1
1
1
1
1
1
1
1
1
1
1
1
1
1
1
1
1
1
1
1
1
1.00089
1.26188
2.26117
2.48086
2.48125
2.48331
2.48388
2.48449
2.48472
2.48453
2.48377
2.48257
2.48116
2.47951
2.47788
2.47665
2.47503
2.47252
2.46911
2.46482
2.45952
2.45282
2.44533
2.43719
2.4285
2.41968
2.41043
2.40066
2.38988
2.37848
2.36598
2.35336
2.33948
2.32496
2.30958
2.29312
2.27564
2.25719
1
1
1
1
1
1
1
1
1
1
1
1
1
1
1
1
1
1
1
1
1
1
1
1
1
1
1
1
1
1
1
1
1
1
1
1
1
1
1
1
1
1
1
1
1
1
1
1
1
1
1
1
1
1
1
1
1
1
1
1.0049
1.64578
2.37306
2.45883
2.45641
2.45827
2.46056
2.46276
2.46429
2.46511
2.46498
2.46464
2.46377
2.46262
2.46183
2.46066
2.45873
2.45585
2.45203
2.44722
2.44118
2.43414
2.42612
2.41766
2.40897
2.3999
2.39035
2.37999
2.36895
2.35707
2.34493
2.33193
2.31835
2.30376
2.28829
2.27179
2.25526
1
1
1
1
1
1
1
1
1
1
1
1
1
1
1
1
1
1
1
1
1
1
1
1
1
1
1
1
1
1
1
1
1
1
1
1
1
1
1
1
1
1
1
1
1
1
1
1
1
1
1
1
1
1
1
1
1
1
1
1.00001
1.04714
1.90146
2.41702
2.44477
2.44386
2.44563
2.44688
2.44791
2.44865
2.44883
2.4489
2.44858
2.44795
2.44731
2.44621
2.44438
2.44174
2.43821
2.43386
2.42846
2.42202
2.41476
2.40691
2.39859
2.38988
2.38072
2.37102
2.36062
2.34945
2.33777
2.32556
2.31256
2.29853
2.28367
2.26815
2.25294
1
1
1
1
1
1
1
1
1
1
1
1
1
1
1
1
1
1
1
1
1
1
1
1
1
1
1
1
1
1
1
1
1
1
1
1
1
1
1
1
1
1
1
1
1
1
1
1
1
1
1
1
1
1
1
1
1
1
1
1
1.0002
1.12941
2.01995
2.41291
2.43487
2.43672
2.43727
2.43683
2.43625
2.43552
2.43489
2.43415
2.43335
2.43242
2.43106
2.4291
2.42645
2.4231
2.41907
2.41422
2.40837
2.40191
2.39498
2.38749
2.37952
2.37109
2.36225
2.35275
2.34238
2.33141
2.31998
2.30751
2.29398
2.2797
2.26513
2.25076
1
1
1
1
1
1
1
1
1
1
1
1
1
1
1
1
1
1
1
1
1
1
1
1
1
1
1
1
1
1
1
1
1
1
1
1
1
1
1
1
1
1
1
1
1
1
1
1
1
1
1
1
1
1
1
1
1
1
1
1
1
1.00118
1.208
2.09848
2.39888
2.42832
2.42747
2.42691
2.4259
2.42451
2.42322
2.42199
2.42065
2.41897
2.41691
2.4144
2.41138
2.40787
2.40388
2.39934
2.39403
2.38817
2.38197
2.3754
2.36843
2.361
2.35318
2.34469
2.33519
2.32507
2.31441
2.30255
2.28957
2.2761
2.26254
2.24895
1
1
1
1
1
1
1
1
1
1
1
1
1
1
1
1
1
1
1
1
1
1
1
1
1
1
1
1
1
1
1
1
1
1
1
1
1
1
1
1
1
1
1
1
1
1
1
1
1
1
1
1
1
1
1
1
1
1
1
1
1
1
1.00304
1.2894
2.15174
2.38853
2.41021
2.4126
2.41259
2.41228
2.41148
2.4103
2.40856
2.40633
2.40368
2.40064
2.3972
2.39338
2.38919
2.3846
2.37952
2.37408
2.36839
2.36252
2.35641
2.34993
2.34307
2.33554
2.32689
2.31773
2.30794
2.29691
2.2847
2.2723
2.25975
2.24704
1
1
1
1
1
1
1
1
1
1
1
1
1
1
1
1
1
1
1
1
1
1
1
1
1
1
1
1
1
1
1
1
1
1
1
1
1
1
1
1
1
1
1
1
1
1
1
1
1
1
1
1
1
1
1
1
1
1
1
1
1
1
1
1.00618
1.37176
2.18984
2.37522
2.39044
2.39443
2.39574
2.39645
2.39601
2.39478
2.39295
2.39049
2.38749
2.38404
2.38016
2.37589
2.37125
2.36625
2.361
2.35553
2.34993
2.34423
2.33828
2.33208
2.3253
2.31756
2.30936
2.30052
2.29047
2.27924
2.26786
2.2562
2.2443
1
1
1
1
1
1
1
1
1
1
1
1
1
1
1
1
1
1
1
1
1
1
1
1
1
1
1
1
1
1
1
1
1
1
1
1
1
1
1
1
1
1
1
1
1
1
1
1
1
1
1
1
1
1
1
1
1
1
1
1
1
1
1
1.00001
1.01117
1.44376
2.21988
2.36455
2.37073
2.37367
2.37552
2.37669
2.37662
2.376
2.37461
2.37261
2.37002
2.3668
2.36297
2.35858
2.35378
2.34868
2.34339
2.33795
2.33244
2.32674
2.32087
2.31456
2.30751
2.29998
2.29184
2.28264
2.27246
2.262
2.25123
2.24011
1
1
1
1
1
1
1
1
1
1
1
1
1
1
1
1
1
1
1
1
1
1
1
1
1
1
1
1
1
1
1
1
1
1
1
1
1
1
1
1
1
1
1
1
1
1
1
1
1
1
1
1
1
1
1
1
1
1
1
1
1
1
1
1
1.00003
1.01759
1.52785
2.24343
2.35358
2.35306
2.3541
2.35457
2.35513
2.35568
2.35566
2.35525
2.35413
2.35212
2.34921
2.34553
2.34126
2.33659
2.33163
2.32647
2.3212
2.31571
2.30999
2.3039
2.29722
2.29002
2.28227
2.27376
2.26454
2.2549
2.24498
2.23453
1
1
1
1
1
1
1
1
1
1
1
1
1
1
1
1
1
1
1
1
1
1
1
1
1
1
1
1
1
1
1
1
1
1
1
1
1
1
1
1
1
1
1
1
1
1
1
1
1
1
1
1
1
1
1
1
1
1
1
1
1
1
1
1
1
1.00005
1.02814
1.5957
2.25662
2.34038
2.33766
2.33631
2.33595
2.33598
2.3362
2.33619
2.33585
2.3349
2.33315
2.33061
2.32737
2.32357
2.31938
2.31486
2.31005
2.30487
2.29933
2.29336
2.28692
2.27993
2.2724
2.26438
2.25585
2.24694
2.23768
2.22791
1
1
1
1
1
1
1
1
1
1
1
1
1
1
1
1
1
1
1
1
1
1
1
1
1
1
1
1
1
1
1
1
1
1
1
1
1
1
1
1
1
1
1
1
1
1
1
1
1
1
1
1
1
1
1
1
1
1
1
1
1
1
1
1
1
1
1.0001
1.04004
1.6205
2.25175
2.32767
2.32509
2.32315
2.32172
2.32064
2.31963
2.31855
2.31725
2.31564
2.31371
2.31132
2.30847
2.3052
2.30152
2.2974
2.29283
2.28781
2.28228
2.27628
2.2697
2.26256
2.25497
2.24701
2.23872
2.22996
2.2209
1
1
1
1
1
1
1
1
1
1
1
1
1
1
1
1
1
1
1
1
1
1
1
1
1
1
1
1
1
1
1
1
1
1
1
1
1
1
1
1
1
1
1
1
1
1
1
1
1
1
1
1
1
1
1
1
1
1
1
1
1
1
1
1
1
1
1
1.00018
1.04587
1.61054
2.23624
2.31699
2.31482
2.31259
2.31005
2.30743
2.30484
2.30216
2.29958
2.29708
2.29454
2.2919
2.28909
2.28603
2.28264
2.27885
2.2746
2.26982
2.26453
2.25866
2.25222
2.24527
2.23795
2.23032
2.22212
2.2138
1
1
1
1
1
1
1
1
1
1
1
1
1
1
1
1
1
1
1
1
1
1
1
1
1
1
1
1
1
1
1
1
1
1
1
1
1
1
1
1
1
1
1
1
1
1
1
1
1
1
1
1
1
1
1
1
1
1
1
1
1
1
1
1
1
1
1
1
1.00023
1.04453
1.59579
2.21596
2.30548
2.30404
2.30092
2.29774
2.29409
2.29058
2.28713
2.28358
2.28012
2.27679
2.27352
2.27027
2.26694
2.26347
2.25974
2.25567
2.25118
2.24622
2.24072
2.23468
2.22822
2.2214
2.21398
2.20641
1
1
1
1
1
1
1
1
1
1
1
1
1
1
1
1
1
1
1
1
1
1
1
1
1
1
1
1
1
1
1
1
1
1
1
1
1
1
1
1
1
1
1
1
1
1
1
1
1
1
1
1
1
1
1
1
1
1
1
1
1
1
1
1
1
1
1
1
1
1.00023
1.04173
1.56745
2.18832
2.29285
2.29216
2.28874
2.28522
2.28123
2.27727
2.27315
2.26899
2.26482
2.26067
2.25659
2.2526
2.24868
2.24481
2.24088
2.23684
2.23252
2.22789
2.2228
2.21728
2.21136
2.20485
2.19812
1
1
1
1
1
1
1
1
1
1
1
1
1
1
1
1
1
1
1
1
1
1
1
1
1
1
1
1
1
1
1
1
1
1
1
1
1
1
1
1
1
1
1
1
1
1
1
1
1
1
1
1
1
1
1
1
1
1
1
1
1
1
1
1
1
1
1
1
1
1
1.00021
1.03643
1.52438
2.15169
2.27617
2.27954
2.27612
2.27276
2.26875
2.26452
2.26007
2.25548
2.25076
2.246
2.24125
2.23661
2.23209
2.22774
2.22348
2.21927
2.21489
2.21036
2.20541
2.20013
2.19419
2.18811
1
1
1
1
1
1
1
1
1
1
1
1
1
1
1
1
1
1
1
1
1
1
1
1
1
1
1
1
1
1
1
1
1
1
1
1
1
1
1
1
1
1
1
1
1
1
1
1
1
1
1
1
1
1
1
1
1
1
1
1
1
1
1
1
1
1
1
1
1
1
1
1.00017
1.02922
1.46789
2.09942
2.25439
2.2678
2.26384
2.26033
2.25622
2.25187
2.24725
2.24242
2.23746
2.23241
2.22735
2.22238
2.21752
2.21285
2.20819
2.20363
2.1987
2.19369
2.18826
2.18285
2.17703
1
1
1
1
1
1
1
1
1
1
1
1
1
1
1
1
1
1
1
1
1
1
1
1
1
1
1
1
1
1
1
1
1
1
1
1
1
1
1
1
1
1
1
1
1
1
1
1
1
1
1
1
1
1
1
1
1
1
1
1
1
1
1
1
1
1
1
1
1
1
1
1
1.00012
1.02148
1.39655
2.02427
2.22761
2.2567
2.25019
2.2467
2.24286
2.23873
2.23435
2.22973
2.22495
2.22001
2.21509
2.21004
2.2051
2.19986
2.19467
2.18916
2.18364
2.17768
2.17302
2.16973
1
1
1
1
1
1
1
1
1
1
1
1
1
1
1
1
1
1
1
1
1
1
1
1
1
1
1
1
1
1
1
1
1
1
1
1
1
1
1
1
1
1
1
1
1
1
1
1
1
1
1
1
1
1
1
1
1
1
1
1
1
1
1
1
1
1
1
1
1
1
1
1
1
1.00008
1.01411
1.31243
1.91725
2.197
2.23941
2.23456
2.23238
2.22968
2.22641
2.22267
2.21854
2.2142
2.20955
2.20451
2.19926
2.19363
2.18792
2.18198
2.17718
2.17681
2.17869
2.18967
1
1
1
1
1
1
1
1
1
1
1
1
1
1
1
1
1
1
1
1
1
1
1
1
1
1
1
1
1
1
1
1
1
1
1
1
1
1
1
1
1
1
1
1
1
1
1
1
1
1
1
1
1
1
1
1
1
1
1
1
1
1
1
1
1
1
1
1
1
1
1
1
1
1
1.00004
1.00818
1.21865
1.7925
2.15368
2.2187
2.2176
2.21697
2.215
2.21284
2.21013
2.20656
2.20231
2.19751
2.19247
2.1876
2.18367
2.18444
2.19046
2.2081
2.23708
2.27543
1
1
1
1
1
1
1
1
1
1
1
1
1
1
1
1
1
1
1
1
1
1
1
1
1
1
1
1
1
1
1
1
1
1
1
1
1
1
1
1
1
1
1
1
1
1
1
1
1
1
1
1
1
1
1
1
1
1
1
1
1
1
1
1
1
1
1
1
1
1
1
1
1
1
1
1.00002
1.004
1.13522
1.65785
2.10246
2.19117
2.20062
2.19839
2.19808
2.19648
2.1943
2.19094
2.18723
2.18753
2.19033
2.20244
2.22921
2.27039
2.31043
2.34243
2.3586
1
1
1
1
1
1
1
1
1
1
1
1
1
1
1
1
1
1
1
1
1
1
1
1
1
1
1
1
1
1
1
1
1
1
1
1
1
1
1
1
1
1
1
1
1
1
1
1
1
1
1
1
1
1
1
1
1
1
1
1
1
1
1
1
1
1
1
1
1
1
1
1
1
1
1
1
1.00001
1.00167
1.07358
1.52577
2.02837
2.15897
2.18937
2.1816
2.17961
2.17672
2.17943
2.18917
2.21103
2.24848
2.29478
2.34099
2.37539
2.38806
2.39495
2.38895
1
1
1
1
1
1
1
1
1
1
1
1
1
1
1
1
1
1
1
1
1
1
1
1
1
1
1
1
1
1
1
1
1
1
1
1
1
1
1
1
1
1
1
1
1
1
1
1
1
1
1
1
1
1
1
1
1
1
1
1
1
1
1
1
1
1
1
1
1
1
1
1
1
1
1
1
1
1
1.0006
1.03585
1.3921
1.91183
2.1328
2.16887
2.1679
2.18289
2.21129
2.25847
2.31212
2.35705
2.38068
2.39556
2.39772
2.38933
2.38529
2.37924
1
1
1
1
1
1
1
1
1
1
1
1
1
1
1
1
1
1
1
1
1
1
1
1
1
1
1
1
1
1
1
1
1
1
1
1
1
1
1
1
1
1
1
1
1
1
1
1
1
1
1
1
1
1
1
1
1
1
1
1
1
1
1
1
1
1
1
1
1
1
1
1
1
1
1
1
1
1
1
1.00019
1.0155
1.25463
1.77782
2.06761
2.19998
2.26865
2.31814
2.35842
2.38023
2.39422
2.39001
2.3869
2.38342
2.37582
2.36809
2.36277
1
1
1
1
1
1
1
1
1
1
1
1
1
1
1
1
1
1
1
1
1
1
1
1
1
1
1
1
1
1
1
1
1
1
1
1
1
1
1
1
1
1
1
1
1
1
1
1
1
1
1
1
1
1
1
1
1
1
1
1
1
1
1
1
1
1
1
1
1
1
1
1
1
1
1
1
1
1
1
1
1.00005
1.00592
1.14243
1.69408
2.36669
2.42504
2.42173
2.41629
2.40833
2.40042
2.39013
2.38028
2.37236
2.3655
2.35934
2.35456
1
1
1
1
1
1
1
1
1
1
1
1
1
1
1
1
1
1
1
1
1
1
1
1
1
1
1
1
1
1
1
1
1
1
1
1
1
1
1
1
1
1
1
1
1
1
1
1
1
1
1
1
1
1
1
1
1
1
1
1
1
1
1
1
1
1
1
1
1
1
1
1
1
1
1
1
1
1
1
1
1
1.00001
1.00203
1.49306
2.59642
2.58723
2.54821
2.51034
2.47456
2.44458
2.42053
2.40219
2.39015
2.38084
2.37151
2.3629
1
1
1
1
1
1
1
1
1
1
1
1
1
1
1
1
1
1
1
1
1
1
1
1
1
1
1
1
1
1
1
1
1
1
1
1
1
1
1
1
1
1
1
1
1
1
1
1
1
1
1
1
1
1
1
1
1
1
1
1
1
1
1
1
1
1
1
1
1
1
1
1
1
1
1
1
1
1
1
1
1
1
1
1.31731
2.5281
2.66647
2.63382
2.6039
2.57044
2.5386
2.50842
2.48095
2.45703
2.43666
2.41843
2.40358
1
1
1
1
1
1
1
1
1
1
1
1
1
1
1
1
1
1
1
1
1
1
1
1
1
1
1
1
1
1
1
1
1
1
1
1
1
1
1
1
1
1
1
1
1
1
1
1
1
1
1
1
1
1
1
1
1
1
1
1
1
1
1
1
1
1
1
1
1
1
1
1
1
1
1
1
1
1
1
1
1
1
1
1.0134
2.32641
2.69084
2.68282
2.67166
2.65396
2.6338
2.60989
2.58439
2.55765
2.53147
2.50668
2.48396
1
1
1
1
1
1
1
1
1
1
1
1
1
1
1
1
1
1
1
1
1
1
1
1
1
1
1
1
1
1
1
1
1
1
1
1
1
1
1
1
1
1
1
1
1
1
1
1
1
1
1
1
1
1
1
1
1
1
1
1
1
1
1
1
1
1
1
1
1
1
1
1
1
1
1
1
1
1
1
1
1
1
1
1.00003
2.03937
2.66557
2.68104
2.6779
2.67307
2.66735
2.65795
2.64549
2.62967
2.61224
2.59258
2.57194
1
1
1
1
1
1
1
1
1
1
1
1
1
1
1
1
1
1
1
1
1
1
1
1
1
1
1
1
1
1
1
1
1
1
1
1
1
1
1
1
1
1
1
1
1
1
1
1
1
1
1
1
1
1
1
1
1
1
1
1
1
1
1
1
1
1
1
1
1
1
1
1
1
1
1
1
1
1
1
1
1
1
1
1
1.67336
2.56507
2.67527
2.67359
2.67191
2.66884
2.6651
2.66084
2.65513
2.64796
2.63895
2.62826
1
1
1
1
1
1
1
1
1
1
1
1
1
1
1
1
1
1
1
1
1
1
1
1
1
1
1
1
1
1
1
1
1
1
1
1
1
1
1
1
1
1
1
1
1
1
1
1
1
1
1
1
1
1
1
1
1
1
1
1
1
1
1
1
1
1
1
1
1
1
1
1
1
1
1
1
1
1
1
1
1
1
1
1
1.25002
2.42084
2.66825
2.66558
2.66513
2.66471
2.66364
2.66203
2.65966
2.65628
2.65183
2.64672
1
1
1
1
1
1
1
1
1
1
1
1
1
1
1
1
1
1
1
1
1
1
1
1
1
1
1
1
1
1
1
1
1
1
1
1
1
1
1
1
1
1
1
1
1
1
1
1
1
1
1
1
1
1
1
1
1
1
1
1
1
1
1
1
1
1
1
1
1
1
1
1
1
1
1
1
1
1
1
1
1
1
1
1
1.00605
2.26133
2.67301
2.67153
2.66657
2.66403
2.66204
2.66041
2.65819
2.65569
2.65296
2.65001
1
1
1
1
1
1
1
1
1
1
1
1
1
1
1
1
1
1
1
1
1
1
1
1
1
1
1
1
1
1
1
1
1
1
1
1
1
1
1
1
1
1
1
1
1
1
1
1
1
1
1
1
1
1
1
1
1
1
1
1
1
1
1
1
1
1
1
1
1
1
1
1
1
1
1
1
1
1
1
1
1
1
1
1
1
2.03037
2.65858
2.6741
2.66971
2.66646
2.66292
2.6599
2.65701
2.65438
2.65177
2.64878
1
1
1
1
1
1
1
1
1
1
1
1
1
1
1
1
1
1
1
1
1
1
1
1
1
1
1
1
1
1
1
1
1
1
1
1
1
1
1
1
1
1
1
1
1
1
1
1
1
1
1
1
1
1
1
1
1
1
1
1
1
1
1
1
1
1
1
1
1
1
1
1
1
1
1
1
1
1
1
1
1
1
1
1
1
1.74962
2.60383
2.67913
2.67318
2.66915
2.66449
2.6604
2.65693
2.65397
2.65122
2.64837
1
1
1
1
1
1
1
1
1
1
1
1
1
1
1
1
1
1
1
1
1
1
1
1
1
1
1
1
1
1
1
1
1
1
1
1
1
1
1
1
1
1
1
1
1
1
1
1
1
1
1
1
1
1
1
1
1
1
1
1
1
1
1
1
1
1
1
1
1
1
1
1
1
1
1
1
1
1
1
1
1
1
1
1
1
1.42471
2.50766
2.67896
2.67304
2.66984
2.66611
2.66235
2.6588
2.65549
2.65228
2.6491
1
1
1
1
1
1
1
1
1
1
1
1
1
1
1
1
1
1
1
1
1
1
1
1
1
1
1
1
1
1
1
1
1
1
1
1
1
1
1
1
1
1
1
1
1
1
1
1
1
1
1
1
1
1
1
1
1
1
1
1
1
1
1
1
1
1
1
1
1
1
1
1
1
1
1
1
1
1
1
1
1
1
1
1
1
1.13722
2.38507
2.68336
2.67719
2.67284
2.66921
2.66582
2.66253
2.65918
2.6557
2.65223
1
1
1
1
1
1
1
1
1
1
1
1
1
1
1
1
1
1
1
1
1
1
1
1
1
1
1
1
1
1
1
1
1
1
1
1
1
1
1
1
1
1
1
1
1
1
1
1
1
1
1
1
1
1
1
1
1
1
1
1
1
1
1
1
1
1
1
1
1
1
1
1
1
1
1
1
1
1
1
1
1
1
1
1
1
1.00209
2.2418
2.68198
2.68174
2.67712
2.67416
2.67096
2.66778
2.66442
2.66088
2.65737
1
1
1
1
1
1
1
1
1
1
1
1
1
1
1
1
1
1
1
1
1
1
1
1
1
1
1
1
1
1
1
1
1
1
1
1
1
1
1
1
1
1
1
1
1
1
1
1
1
1
1
1
1
1
1
1
1
1
1
1
1
1
1
1
1
1
1
1
1
1
1
1
1
1
1
1
1
1
1
1
1
1
1
1
1
1
2.07153
2.66525
2.68513
2.6808
2.67837
2.67531
2.67222
2.66896
2.66563
2.66223
1
1
1
1
1
1
1
1
1
1
1
1
1
1
1
1
1
1
1
1
1
1
1
1
1
1
1
1
1
1
1
1
1
1
1
1
1
1
1
1
1
1
1
1
1
1
1
1
1
1
1
1
1
1
1
1
1
1
1
1
1
1
1
1
1
1
1
1
1
1
1
1
1
1
1
1
1
1
1
1
1
1
1
1
1
1
1.8818
2.63379
2.68825
2.68342
2.68117
2.67829
2.67543
2.67235
2.66911
2.66557
1
1
1
1
1
1
1
1
1
1
1
1
1
1
1
1
1
1
1
1
1
1
1
1
1
1
1
1
1
1
1
1
1
1
1
1
1
1
1
1
1
1
1
1
1
1
1
1
1
1
1
1
1
1
1
1
1
1
1
1
1
1
1
1
1
1
1
1
1
1
1
1
1
1
1
1
1
1
1
1
1
1
1
1
1
1
1.67726
2.59304
2.68752
2.68239
2.68039
2.67785
2.67521
2.67227
2.66915
2.66576
1
1
1
1
1
1
1
1
1
1
1
1
1
1
1
1
1
1
1
1
1
1
1
1
1
1
1
1
1
1
1
1
1
1
1
1
1
1
1
1
1
1
1
1
1
1
1
1
1
1
1
1
1
1
1
1
1
1
1
1
1
1
1
1
1
1
1
1
1
1
1
1
1
1
1
1
1
1
1
1
1
1
1
1
1
1
1.47379
2.5358
2.68707
2.68215
2.68004
2.67762
2.67508
2.67232
2.66938
2.6662
1
1
1
1
1
1
1
1
1
1
1
1
1
1
1
1
1
1
1
1
1
1
1
1
1
1
1
1
1
1
1
1
1
1
1
1
1
1
1
1
1
1
1
1
1
1
1
1
1
1
1
1
1
1
1
1
1
1
1
1
1
1
1
1
1
1
1
1
1
1
1
1
1
1
1
1
1
1
1
1
1
1
1
1
1
1
1.30195
2.46952
2.68784
2.68323
2.68048
2.6779
2.67528
2.67258
2.66981
2.66688
1
1
1
1
1
1
1
1
1
1
1
1
1
1
1
1
1
1
1
1
1
1
1
1
1
1
1
1
1
1
1
1
1
1
1
1
1
1
1
1
1
1
1
1
1
1
1
1
1
1
1
1
1
1
1
1
1
1
1
1
1
1
1
1
1
1
1
1
1
1
1
1
1
1
1
1
1
1
1
1
1
1
1
1
1
1
1.16651
2.39773
2.68604
2.6831
2.67989
2.67752
2.67514
2.67293
2.67073
2.66842
1
1
1
1
1
1
1
1
1
1
1
1
1
1
1
1
1
1
1
1
1
1
1
1
1
1
1
1
1
1
1
1
1
1
1
1
1
1
1
1
1
1
1
1
1
1
1
1
1
1
1
1
1
1
1
1
1
1
1
1
1
1
1
1
1
1
1
1
1
1
1
1
1
1
1
1
1
1
1
1
1
1
1
1
1
1
1.01972
2.31251
2.68187
2.68581
2.6817
2.67951
2.67711
2.67504
2.67299
2.67085
1
1
1
1
1
1
1
1
1
1
1
1
1
1
1
1
1
1
1
1
1
1
1
1
1
1
1
1
1
1
1
1
1
1
1
1
1
1
1
1
1
1
1
1
1
1
1
1
1
1
1
1
1
1
1
1
1
1
1
1
1
1
1
1
1
1
1
1
1
1
1
1
1
1
1
1
1
1
1
1
1
1
1
1
1
1
1.00007
2.22817
2.67609
2.68789
2.68353
2.68149
2.67911
2.677
2.67491
2.67286
1
1
1
1
1
1
1
1
1
1
1
1
1
1
1
1
1
1
1
1
1
1
1
1
1
1
1
1
1
1
1
1
1
1
1
1
1
1
1
1
1
1
1
1
1
1
1
1
1
1
1
1
1
1
1
1
1
1
1
1
1
1
1
1
1
1
1
1
1
1
1
1
1
1
1
1
1
1
1
1
1
1
1
1
1
1
1
2.14598
2.67255
2.69083
2.68638
2.68438
2.68195
2.67969
2.67738
2.67511
1
1
1
1
1
1
1
1
1
1
1
1
1
1
1
1
1
1
1
1
1
1
1
1
1
1
1
1
1
1
1
1
1
1
1
1
1
1
1
1
1
1
1
1
1
1
1
1
1
1
1
1
1
1
1
1
1
1
1
1
1
1
1
1
1
1
1
1
1
1
1
1
1
1
1
1
1
1
1
1
1
1
1
1
1
1
1
2.07405
2.66898
2.69414
2.68946
2.68729
2.68464
2.68207
2.67941
2.6768
1
1
1
1
1
1
1
1
1
1
1
1
1
1
1
1
1
1
1
1
1
1
1
1
1
1
1
1
1
1
1
1
1
1
1
1
1
1
1
1
1
1
1
1
1
1
1
1
1
1
1
1
1
1
1
1
1
1
1
1
1
1
1
1
1
1
1
1
1
1
1
1
1
1
1
1
1
1
1
1
1
1
1
1
1
1
1
2.01503
2.6643
2.69737
2.69243
2.69006
2.68715
2.68426
2.68125
2.67828
1
1
1
1
1
1
1
1
1
1
1
1
1
1
1
1
1
1
1
1
1
1
1
1
1
1
1
1
1
1
1
1
1
1
1
1
1
1
1
1
1
1
1
1
1
1
1
1
1
1
1
1
1
1
1
1
1
1
1
1
1
1
1
1
1
1
1
1
1
1
1
1
1
1
1
1
1
1
1
1
1
1
1
1
1
1
1
1.96896
2.65918
2.69985
2.6946
2.69205
2.68896
2.68587
2.68264
2.67939
1
1
1
1
1
1
1
1
1
1
1
1
1
1
1
1
1
1
1
1
1
1
1
1
1
1
1
1
1
1
1
1
1
1
1
1
1
1
1
1
1
1
1
1
1
1
1
1
1
1
1
1
1
1
1
1
1
1
1
1
1
1
1
1
1
1
1
1
1
1
1
1
1
1
1
1
1
1
1
1
1
1
1
1
1
1
1
1.93724
2.65498
2.70098
2.69548
2.6928
2.68971
2.68659
2.68331
2.67992
1
1
1
1
1
1
1
1
1
1
1
1
1
1
1
1
1
1
1
1
1
1
1
1
1
1
1
1
1
1
1
1
1
1
1
1
1
1
1
1
1
1
1
1
1
1
1
1
1
1
1
1
1
1
1
1
1
1
1
1
1
1
1
1
1
1
1
1
1
1
1
1
1
1
1
1
1
1
1
1
1
1
1
1
1
1
1
1.92404
2.65231
2.70076
2.69554
2.69305
2.69009
2.68702
2.68374
2.68027
1.48752
0.936444
0.708107
0.545308
0.632849
0.754196
0.916631
1.06488
1.15853
1.26651
1.37948
1.40756
1.41116
1.4069
1.39801
1.41414
1.47487
1.5565
1.60611
1.60848
1.60682
1.6032
1.59503
1.59599
1.60319
1.61674
1.61663
1.61426
1.6143
1.6167
1.62181
1.63014
1.63846
1.63944
1.63893
1.63721
1.63295
1.63266
1.63381
1.63606
1.63743
1.63876
1.64596
1.66941
1.74072
1.89899
2.10535
2.32826
2.44982
2.49889
2.54248
2.5519
2.56161