/*--------------------------------*- C++ -*----------------------------------*\
  =========                 |
  \\      /  F ield         | OpenFOAM: The Open Source CFD Toolbox
   \\    /   O peration     | Website:  https://openfoam.org
    \\  /    A nd           | Version:  7
     \\/     M anipulation  |
\*---------------------------------------------------------------------------*/
FoamFile
{
    version     2.0;
    format      ascii;
    class       volScalarField;
    location    "5.1";
    object      rho;
}
// * * * * * * * * * * * * * * * * * * * * * * * * * * * * * * * * * * * * * //

dimensions      [1 -3 0 0 0 0 0];

internalField   nonuniform List<scalar> 
19968
(
1.40001
1.40001
1.40001
1.40001
1.40001
1.40001
1.40001
1.40001
1.40001
1.40001
1.40001
1.40001
1.40001
1.40001
1.40001
1.40001
1.40001
1.40001
1.40001
1.40001
1.40001
1.40001
1.40001
1.40001
1.40001
1.40001
1.40001
1.40001
1.40001
1.40001
1.40001
1.40001
1.40001
1.40001
1.40001
1.40001
1.40001
1.40001
1.40001
1.40001
1.40001
1.40001
1.40001
1.40001
1.40001
1.40001
1.40001
1.40001
1.68566
4.55917
5.42478
5.4368
5.45996
5.48317
5.50628
5.52861
5.54982
5.56898
5.58609
5.60269
5.6203
5.63924
5.65916
5.67933
5.69838
5.71543
5.73081
5.7456
5.76073
5.77655
5.79289
5.80925
5.82498
5.83963
5.85321
5.86617
5.87892
5.89139
5.90313
5.91358
5.92249
5.93015
5.93733
5.94487
5.95337
5.9629
5.97292
5.98257
5.991
5.99765
6.00243
6.00561
6.00766
6.00889
6.00985
6.01043
1.40001
1.40001
1.40001
1.40001
1.40001
1.40001
1.40001
1.40001
1.40001
1.40001
1.40001
1.40001
1.40001
1.40001
1.40001
1.40001
1.40001
1.40001
1.40001
1.40001
1.40001
1.40001
1.40001
1.40001
1.40001
1.40001
1.40001
1.40001
1.40001
1.40001
1.40001
1.40001
1.40001
1.40001
1.40001
1.40001
1.40001
1.40001
1.40001
1.40001
1.40001
1.40001
1.40001
1.40001
1.40001
1.40001
1.40001
1.40001
1.6697
4.53104
5.41935
5.43561
5.45987
5.48303
5.50575
5.52775
5.54872
5.56772
5.58482
5.60152
5.6192
5.63824
5.65824
5.67847
5.69753
5.71458
5.7299
5.74458
5.75956
5.77524
5.79147
5.80773
5.82335
5.83787
5.85135
5.86424
5.87695
5.88941
5.90119
5.91175
5.92086
5.9288
5.93625
5.94393
5.95234
5.96153
5.97105
5.98019
5.98828
5.99483
5.9997
6.00305
6.00524
6.00655
6.00753
6.00811
1.40001
1.40001
1.40001
1.40001
1.40001
1.40001
1.40001
1.40001
1.40001
1.40001
1.40001
1.40001
1.40001
1.40001
1.40001
1.40001
1.40001
1.40001
1.40001
1.40001
1.40001
1.40001
1.40001
1.40001
1.40001
1.40001
1.40001
1.40001
1.40001
1.40001
1.40001
1.40001
1.40001
1.40001
1.40001
1.40001
1.40001
1.40001
1.40001
1.40001
1.40001
1.40001
1.40001
1.40001
1.40001
1.40001
1.40001
1.40001
1.63408
4.47449
5.41471
5.43361
5.45862
5.48105
5.50304
5.52436
5.54491
5.56398
5.58154
5.59881
5.61688
5.63615
5.65619
5.67637
5.69531
5.71233
5.72763
5.74228
5.75716
5.77269
5.78873
5.80481
5.82027
5.83466
5.84806
5.86088
5.87351
5.8859
5.89768
5.90837
5.9178
5.92619
5.9341
5.94207
5.95044
5.9592
5.96803
5.97646
5.98403
5.99042
5.99544
5.9991
6.00155
6.00302
6.00405
6.00463
1.40001
1.40001
1.40001
1.40001
1.40001
1.40001
1.40001
1.40001
1.40001
1.40001
1.40001
1.40001
1.40001
1.40001
1.40001
1.40001
1.40001
1.40001
1.40001
1.40001
1.40001
1.40001
1.40001
1.40001
1.40001
1.40001
1.40001
1.40001
1.40001
1.40001
1.40001
1.40001
1.40001
1.40001
1.40001
1.40001
1.40001
1.40001
1.40001
1.40001
1.40001
1.40001
1.40001
1.40001
1.40001
1.40001
1.40001
1.40001
1.58225
4.38286
5.4112
5.43368
5.45788
5.47871
5.49907
5.51923
5.53919
5.55854
5.57689
5.59505
5.61366
5.63315
5.65309
5.67298
5.69157
5.70841
5.7237
5.73843
5.7533
5.76866
5.78442
5.80017
5.81534
5.82956
5.84289
5.85572
5.86836
5.88075
5.89256
5.90344
5.91326
5.9222
5.93062
5.93881
5.94693
5.95495
5.96273
5.97013
5.97701
5.9832
5.98847
5.9926
5.99552
5.99734
5.99855
5.99925
1.40001
1.40001
1.40001
1.40001
1.40001
1.40001
1.40001
1.40001
1.40001
1.40001
1.40001
1.40001
1.40001
1.40001
1.40001
1.40001
1.40001
1.40001
1.40001
1.40001
1.40001
1.40001
1.40001
1.40001
1.40001
1.40001
1.40001
1.40001
1.40001
1.40001
1.40001
1.40001
1.40001
1.40001
1.40001
1.40001
1.40001
1.40001
1.40001
1.40001
1.40001
1.40001
1.40001
1.40001
1.40001
1.40001
1.40001
1.40001
1.51463
4.26441
5.40999
5.43312
5.45499
5.47419
5.49308
5.51227
5.53196
5.55185
5.57131
5.59067
5.61002
5.62963
5.64914
5.66833
5.6863
5.70295
5.71842
5.73347
5.74846
5.76368
5.77906
5.79435
5.80913
5.82316
5.83653
5.84952
5.86228
5.87473
5.88659
5.89765
5.90787
5.91738
5.92635
5.93478
5.94262
5.94982
5.95645
5.96267
5.96862
5.97427
5.97937
5.98355
5.98659
5.9885
5.98973
5.99045
1.40001
1.40001
1.40001
1.40001
1.40001
1.40001
1.40001
1.40001
1.40001
1.40001
1.40001
1.40001
1.40001
1.40001
1.40001
1.40001
1.40001
1.40001
1.40001
1.40001
1.40001
1.40001
1.40001
1.40001
1.40001
1.40001
1.40001
1.40001
1.40001
1.40001
1.40001
1.40001
1.40001
1.40001
1.40001
1.40001
1.40001
1.40001
1.40001
1.40001
1.40001
1.40001
1.40001
1.40001
1.40001
1.40001
1.40001
1.40001
1.40582
4.06438
5.40942
5.43304
5.45212
5.47099
5.48893
5.50722
5.52636
5.54637
5.56676
5.58716
5.60701
5.62618
5.64454
5.66226
5.67914
5.69553
5.71132
5.72682
5.74184
5.75666
5.77132
5.78581
5.79992
5.81354
5.82682
5.8399
5.85274
5.86514
5.87689
5.88793
5.89833
5.90823
5.9176
5.92624
5.93391
5.94058
5.94646
5.95194
5.95738
5.96283
5.96804
5.97251
5.97589
5.97813
5.97955
5.98042
1.40001
1.40001
1.40001
1.40001
1.40001
1.40001
1.40001
1.40001
1.40001
1.40001
1.40001
1.40001
1.40001
1.40001
1.40001
1.40001
1.40001
1.40001
1.40001
1.40001
1.40001
1.40001
1.40001
1.40001
1.40001
1.40001
1.40001
1.40001
1.40001
1.40001
1.40001
1.40001
1.40001
1.40001
1.40001
1.40001
1.40001
1.40001
1.40001
1.40001
1.40001
1.40001
1.40001
1.40001
1.40001
1.40001
1.40001
1.40001
1.40004
3.76552
5.38156
5.4163
5.43487
5.45506
5.47341
5.49203
5.51147
5.53209
5.55347
5.57458
5.59474
5.61348
5.63108
5.64793
5.66434
5.68088
5.69723
5.71337
5.72866
5.74331
5.75753
5.77147
5.78519
5.79874
5.8123
5.82579
5.83896
5.85146
5.86318
5.87419
5.8847
5.8948
5.90439
5.91315
5.92074
5.92712
5.93258
5.93759
5.94258
5.9477
5.95273
5.95721
5.96077
5.96334
5.96503
5.96617
1.40001
1.40001
1.40001
1.40001
1.40001
1.40001
1.40001
1.40001
1.40001
1.40001
1.40001
1.40001
1.40001
1.40001
1.40001
1.40001
1.40001
1.40001
1.40001
1.40001
1.40001
1.40001
1.40001
1.40001
1.40001
1.40001
1.40001
1.40001
1.40001
1.40001
1.40001
1.40001
1.40001
1.40001
1.40001
1.40001
1.40001
1.40001
1.40001
1.40001
1.40001
1.40001
1.40001
1.40001
1.40001
1.40001
1.40001
1.40001
1.40001
3.3689
5.33315
5.40423
5.42504
5.44758
5.46701
5.48579
5.50492
5.52501
5.54575
5.56596
5.58542
5.60351
5.62054
5.6368
5.65278
5.66912
5.68539
5.70154
5.71663
5.73074
5.74423
5.75737
5.77052
5.78376
5.79732
5.81092
5.8241
5.83642
5.84781
5.85851
5.8688
5.8788
5.88834
5.89703
5.90451
5.91069
5.91583
5.92043
5.92495
5.92956
5.93416
5.9384
5.94196
5.94483
5.94681
5.94829
1.40001
1.40001
1.40001
1.40001
1.40001
1.40001
1.40001
1.40001
1.40001
1.40001
1.40001
1.40001
1.40001
1.40001
1.40001
1.40001
1.40001
1.40001
1.40001
1.40001
1.40001
1.40001
1.40001
1.40001
1.40001
1.40001
1.40001
1.40001
1.40001
1.40001
1.40001
1.40001
1.40001
1.40001
1.40001
1.40001
1.40001
1.40001
1.40001
1.40001
1.40001
1.40001
1.40001
1.40001
1.40001
1.40001
1.40001
1.40001
1.40001
2.89136
5.23931
5.39803
5.41912
5.44288
5.46313
5.48214
5.50066
5.51946
5.5386
5.55708
5.57515
5.59263
5.60939
5.62532
5.64084
5.65662
5.67215
5.6875
5.70179
5.71489
5.72742
5.73966
5.75211
5.7648
5.77795
5.79124
5.80405
5.8159
5.82674
5.83687
5.84664
5.85623
5.86552
5.87412
5.88162
5.88785
5.89299
5.89747
5.9017
5.90588
5.91003
5.91399
5.91755
5.92078
5.92314
5.92505
1.40001
1.40001
1.40001
1.40001
1.40001
1.40001
1.40001
1.40001
1.40001
1.40001
1.40001
1.40001
1.40001
1.40001
1.40001
1.40001
1.40001
1.40001
1.40001
1.40001
1.40001
1.40001
1.40001
1.40001
1.40001
1.40001
1.40001
1.40001
1.40001
1.40001
1.40001
1.40001
1.40001
1.40001
1.40001
1.40001
1.40001
1.40001
1.40001
1.40001
1.40001
1.40001
1.40001
1.40001
1.40001
1.40001
1.40001
1.40001
1.40001
2.35842
5.04741
5.4052
5.42367
5.4456
5.46511
5.4838
5.50145
5.51854
5.53536
5.55134
5.56717
5.58341
5.59965
5.61522
5.63018
5.64514
5.65952
5.67345
5.68665
5.69861
5.71011
5.72135
5.73285
5.7445
5.75648
5.76859
5.78027
5.79102
5.8008
5.80996
5.8189
5.82788
5.83684
5.84541
5.85306
5.85946
5.86465
5.86892
5.87264
5.87603
5.87933
5.88256
5.88571
5.88891
5.89134
5.89341
1.40001
1.40001
1.40001
1.40001
1.40001
1.40001
1.40001
1.40001
1.40001
1.40001
1.40001
1.40001
1.40001
1.40001
1.40001
1.40001
1.40001
1.40001
1.40001
1.40001
1.40001
1.40001
1.40001
1.40001
1.40001
1.40001
1.40001
1.40001
1.40001
1.40001
1.40001
1.40001
1.40001
1.40001
1.40001
1.40001
1.40001
1.40001
1.40001
1.40001
1.40001
1.40001
1.40001
1.40001
1.40001
1.40001
1.40001
1.40001
1.40001
1.84188
4.71231
5.42359
5.41649
5.43786
5.45474
5.47332
5.49096
5.50808
5.52501
5.54113
5.55642
5.57204
5.58791
5.60331
5.61799
5.63242
5.64584
5.65816
5.67012
5.6811
5.69188
5.70246
5.71312
5.72378
5.73444
5.745
5.75502
5.76408
5.77214
5.77956
5.78681
5.79416
5.80167
5.80903
5.81573
5.82142
5.82606
5.82987
5.83315
5.83612
5.83903
5.84199
5.84502
5.8482
5.85059
5.85272
1.40001
1.40001
1.40001
1.40001
1.40001
1.40001
1.40001
1.40001
1.40001
1.40001
1.40001
1.40001
1.40001
1.40001
1.40001
1.40001
1.40001
1.40001
1.40001
1.40001
1.40001
1.40001
1.40001
1.40001
1.40001
1.40001
1.40001
1.40001
1.40001
1.40001
1.40001
1.40001
1.40001
1.40001
1.40001
1.40001
1.40001
1.40001
1.40001
1.40001
1.40001
1.40001
1.40001
1.40001
1.40001
1.40001
1.40001
1.40001
1.40001
1.42115
4.04956
5.40229
5.41425
5.43134
5.4473
5.46461
5.48134
5.49774
5.51428
5.53007
5.54459
5.55905
5.57386
5.58823
5.60167
5.61468
5.62661
5.63695
5.64718
5.65681
5.66635
5.67604
5.68568
5.6953
5.70457
5.71353
5.72187
5.72931
5.73583
5.74182
5.74771
5.75377
5.76004
5.76629
5.7721
5.77712
5.78118
5.78428
5.78647
5.78787
5.78877
5.78937
5.79005
5.79121
5.79213
5.79332
1.40001
1.40001
1.40001
1.40001
1.40001
1.40001
1.40001
1.40001
1.40001
1.40001
1.40001
1.40001
1.40001
1.40001
1.40001
1.40001
1.40001
1.40001
1.40001
1.40001
1.40001
1.40001
1.40001
1.40001
1.40001
1.40001
1.40001
1.40001
1.40001
1.40001
1.40001
1.40001
1.40001
1.40001
1.40001
1.40001
1.40001
1.40001
1.40001
1.40001
1.40001
1.40001
1.40001
1.40001
1.40001
1.40001
1.40001
1.40001
1.40001
1.40004
3.15988
5.24015
5.36743
5.39225
5.41314
5.43057
5.447
5.4632
5.47982
5.49654
5.51214
5.52677
5.54114
5.55511
5.56821
5.58068
5.5925
5.60266
5.61206
5.62108
5.6298
5.63889
5.64793
5.65674
5.66498
5.67259
5.67939
5.68516
5.68998
5.69422
5.69832
5.70246
5.70649
5.71011
5.71291
5.71474
5.7157
5.71605
5.71601
5.71569
5.71539
5.71557
5.7159
5.7169
5.71764
5.71863
1.40001
1.40001
1.40001
1.40001
1.40001
1.40001
1.40001
1.40001
1.40001
1.40001
1.40001
1.40001
1.40001
1.40001
1.40001
1.40001
1.40001
1.40001
1.40001
1.40001
1.40001
1.40001
1.40001
1.40001
1.40001
1.40001
1.40001
1.40001
1.40001
1.40001
1.40001
1.40001
1.40001
1.40001
1.40001
1.40001
1.40001
1.40001
1.40001
1.40001
1.40001
1.40001
1.40001
1.40001
1.40001
1.40001
1.40001
1.40001
1.40001
1.4
2.13595
4.876
5.37936
5.38333
5.4038
5.42008
5.43487
5.4488
5.46305
5.47812
5.49307
5.50687
5.51967
5.53176
5.54309
5.55379
5.56431
5.57383
5.582
5.58972
5.59688
5.60411
5.61137
5.6182
5.62433
5.62955
5.63378
5.63684
5.6388
5.64012
5.64133
5.64273
5.64393
5.64449
5.64393
5.64239
5.64033
5.63831
5.63619
5.63358
5.62963
5.62435
5.61708
5.6093
5.60178
5.59505
1.40001
1.40001
1.40001
1.40001
1.40001
1.40001
1.40001
1.40001
1.40001
1.40001
1.40001
1.40001
1.40001
1.40001
1.40001
1.40001
1.40001
1.40001
1.40001
1.40001
1.40001
1.40001
1.40001
1.40001
1.40001
1.40001
1.40001
1.40001
1.40001
1.40001
1.40001
1.40001
1.40001
1.40001
1.40001
1.40001
1.40001
1.40001
1.40001
1.40001
1.40001
1.40001
1.40001
1.40001
1.40001
1.40001
1.40001
1.40001
1.40001
1.40001
1.43916
3.92222
5.38787
5.39615
5.40729
5.41615
5.42483
5.43393
5.44372
5.45459
5.46637
5.47792
5.48854
5.49834
5.50746
5.51592
5.52436
5.53275
5.54019
5.54686
5.55273
5.55778
5.56254
5.56696
5.57071
5.57344
5.57505
5.5754
5.5741
5.57158
5.56874
5.56619
5.56363
5.55992
5.55388
5.54549
5.53501
5.5231
5.50971
5.49434
5.47672
5.45784
5.44164
5.42843
5.42353
5.42107
1.40001
1.40001
1.40001
1.40001
1.40001
1.40001
1.40001
1.40001
1.40001
1.40001
1.40001
1.40001
1.40001
1.40001
1.40001
1.40001
1.40001
1.40001
1.40001
1.40001
1.40001
1.40001
1.40001
1.40001
1.40001
1.40001
1.40001
1.40001
1.40001
1.40001
1.40001
1.40001
1.40001
1.40001
1.40001
1.40001
1.40001
1.40001
1.40001
1.40001
1.40001
1.40001
1.40001
1.40001
1.40001
1.40001
1.40001
1.40001
1.40001
1.40001
1.40005
2.56442
5.07297
5.35527
5.36402
5.37596
5.38759
5.3982
5.40846
5.41941
5.43141
5.44358
5.45445
5.46321
5.46999
5.4755
5.48085
5.48686
5.49331
5.49929
5.50419
5.50749
5.50932
5.51034
5.51074
5.51031
5.50891
5.50613
5.50114
5.49349
5.48455
5.47533
5.46607
5.45576
5.44289
5.42639
5.40606
5.38284
5.35776
5.33177
5.30492
5.27755
5.24326
5.20437
5.15042
5.16996
1.40001
1.40001
1.40001
1.40001
1.40001
1.40001
1.40001
1.40001
1.40001
1.40001
1.40001
1.40001
1.40001
1.40001
1.40001
1.40001
1.40001
1.40001
1.40001
1.40001
1.40001
1.40001
1.40001
1.40001
1.40001
1.40001
1.40001
1.40001
1.40001
1.40001
1.40001
1.40001
1.40001
1.40001
1.40001
1.40001
1.40001
1.40001
1.40001
1.40001
1.40001
1.40001
1.40001
1.40001
1.40001
1.40001
1.40001
1.40001
1.40001
1.40001
1.40001
1.52897
4.34844
5.37252
5.35978
5.36273
5.37074
5.37848
5.38672
5.39585
5.40638
5.41738
5.42699
5.43399
5.43828
5.44075
5.44264
5.44513
5.44898
5.45346
5.45718
5.45904
5.45817
5.45556
5.45208
5.44816
5.4436
5.43744
5.42885
5.41718
5.40262
5.38624
5.36907
5.35084
5.32982
5.30394
5.2714
5.23178
5.18388
5.12728
5.05448
4.95946
4.81469
4.59141
4.18608
3.29494
1.40001
1.40001
1.40001
1.40001
1.40001
1.40001
1.40001
1.40001
1.40001
1.40001
1.40001
1.40001
1.40001
1.40001
1.40001
1.40001
1.40001
1.40001
1.40001
1.40001
1.40001
1.40001
1.40001
1.40001
1.40001
1.40001
1.40001
1.40001
1.40001
1.40001
1.40001
1.40001
1.40001
1.40001
1.40001
1.40001
1.40001
1.40001
1.40001
1.40001
1.40001
1.40001
1.40001
1.40001
1.40001
1.40001
1.40001
1.40001
1.40001
1.40001
1.40001
1.4007
3.19786
5.19092
5.30693
5.32762
5.34388
5.35376
5.36086
5.36705
5.37495
5.38488
5.39489
5.40257
5.40669
5.40778
5.40753
5.40759
5.40899
5.41151
5.41355
5.41394
5.41147
5.40661
5.40021
5.39292
5.38483
5.37532
5.36377
5.34899
5.33029
5.30816
5.28364
5.25727
5.22737
5.19192
5.14724
5.09218
5.02218
4.93814
4.82794
4.68887
4.48648
4.21882
3.68832
2.92638
1.40001
1.40001
1.40001
1.40001
1.40001
1.40001
1.40001
1.40001
1.40001
1.40001
1.40001
1.40001
1.40001
1.40001
1.40001
1.40001
1.40001
1.40001
1.40001
1.40001
1.40001
1.40001
1.40001
1.40001
1.40001
1.40001
1.40001
1.40001
1.40001
1.40001
1.40001
1.40001
1.40001
1.40001
1.40001
1.40001
1.40001
1.40001
1.40001
1.40001
1.40001
1.40001
1.40001
1.40001
1.40001
1.40001
1.40001
1.40001
1.40001
1.40001
1.40001
1.4
1.94299
4.72839
5.31823
5.32031
5.33473
5.34249
5.3483
5.35282
5.35788
5.36429
5.37195
5.37837
5.38143
5.38103
5.37867
5.37589
5.37386
5.3728
5.37196
5.36992
5.36559
5.35852
5.34887
5.33786
5.32578
5.31222
5.29655
5.27766
5.2545
5.22722
5.19599
5.16181
5.12278
5.07779
5.02191
4.95356
4.86693
4.76152
4.6296
4.46121
4.24655
3.92801
3.49137
2.97594
1.40001
1.40001
1.40001
1.40001
1.40001
1.40001
1.40001
1.40001
1.40001
1.40001
1.40001
1.40001
1.40001
1.40001
1.40001
1.40001
1.40001
1.40001
1.40001
1.40001
1.40001
1.40001
1.40001
1.40001
1.40001
1.40001
1.40001
1.40001
1.40001
1.40001
1.40001
1.40001
1.40001
1.40001
1.40001
1.40001
1.40001
1.40001
1.40001
1.40001
1.40001
1.40001
1.40001
1.40001
1.40001
1.40001
1.40001
1.40001
1.40001
1.40001
1.40001
1.4
1.42235
3.53587
5.2152
5.29967
5.31684
5.32804
5.3381
5.34485
5.34662
5.34564
5.34759
5.35045
5.35188
5.35093
5.34798
5.34393
5.33951
5.33511
5.33054
5.32513
5.31768
5.30748
5.29477
5.28061
5.26518
5.24807
5.22826
5.20491
5.17702
5.14506
5.10816
5.06741
5.0207
4.96734
4.90276
4.82437
4.7277
4.61011
4.46801
4.29036
4.07074
3.78947
3.45386
3.0709
1.40001
1.40001
1.40001
1.40001
1.40001
1.40001
1.40001
1.40001
1.40001
1.40001
1.40001
1.40001
1.40001
1.40001
1.40001
1.40001
1.40001
1.40001
1.40001
1.40001
1.40001
1.40001
1.40001
1.40001
1.40001
1.40001
1.40001
1.40001
1.40001
1.40001
1.40001
1.40001
1.40001
1.40001
1.40001
1.40001
1.40001
1.40001
1.40001
1.40001
1.40001
1.40001
1.40001
1.40001
1.40001
1.40001
1.40001
1.40001
1.40001
1.40001
1.40001
1.40001
1.4
2.07579
4.8053
5.30103
5.29913
5.3136
5.32277
5.32918
5.32997
5.32785
5.32737
5.32782
5.32715
5.32476
5.3205
5.31463
5.30731
5.29918
5.29078
5.28201
5.27147
5.2582
5.24228
5.2246
5.20543
5.18481
5.16131
5.134
5.10166
5.06521
5.02354
4.97727
4.92465
4.86469
4.79409
4.7099
4.60906
4.4883
4.34728
4.17269
3.97016
3.73234
3.47091
3.16956
1.40001
1.40001
1.40001
1.40001
1.40001
1.40001
1.40001
1.40001
1.40001
1.40001
1.40001
1.40001
1.40001
1.40001
1.40001
1.40001
1.40001
1.40001
1.40001
1.40001
1.40001
1.40001
1.40001
1.40001
1.40001
1.40001
1.40001
1.40001
1.40001
1.40001
1.40001
1.40001
1.40001
1.40001
1.40001
1.40001
1.40001
1.40001
1.40001
1.40001
1.40001
1.40001
1.40001
1.40001
1.40001
1.40001
1.40001
1.40001
1.40001
1.40001
1.40001
1.40001
1.4
1.43233
3.55704
5.21857
5.28358
5.29623
5.30419
5.30678
5.30565
5.30261
5.30135
5.30179
5.30113
5.29871
5.29399
5.28681
5.27695
5.2654
5.25376
5.24208
5.22852
5.2125
5.19301
5.17109
5.14746
5.12279
5.09574
5.065
5.02897
4.98859
4.9433
4.89315
4.83666
4.77244
4.69809
4.61125
4.51029
4.39163
4.25722
4.09624
3.91682
3.71701
3.50471
3.26076
1.40001
1.40001
1.40001
1.40001
1.40001
1.40001
1.40001
1.40001
1.40001
1.40001
1.40001
1.40001
1.40001
1.40001
1.40001
1.40001
1.40001
1.40001
1.40001
1.40001
1.40001
1.40001
1.40001
1.40001
1.40001
1.40001
1.40001
1.40001
1.40001
1.40001
1.40001
1.40001
1.40001
1.40001
1.40001
1.40001
1.40001
1.40001
1.40001
1.40001
1.40001
1.40001
1.40001
1.40001
1.40001
1.40001
1.40001
1.40001
1.40001
1.40001
1.40001
1.40001
1.4
1.40003
1.97558
4.73372
5.29851
5.28184
5.28345
5.28294
5.27927
5.27447
5.27216
5.27212
5.27196
5.26989
5.26519
5.25771
5.24559
5.23051
5.21576
5.20139
5.18585
5.16859
5.14727
5.12223
5.09441
5.06505
5.03372
4.99931
4.96009
4.91694
4.8697
4.81768
4.75923
4.69271
4.61639
4.52878
4.43007
4.31539
4.18946
4.04586
3.88818
3.7199
3.53959
3.33591
1.40001
1.40001
1.40001
1.40001
1.40001
1.40001
1.40001
1.40001
1.40001
1.40001
1.40001
1.40001
1.40001
1.40001
1.40001
1.40001
1.40001
1.40001
1.40001
1.40001
1.40001
1.40001
1.40001
1.40001
1.40001
1.40001
1.40001
1.40001
1.40001
1.40001
1.40001
1.40001
1.40001
1.40001
1.40001
1.40001
1.40001
1.40001
1.40001
1.40001
1.40001
1.40001
1.40001
1.40001
1.40001
1.40001
1.40001
1.40001
1.40001
1.40001
1.40001
1.40001
1.40001
1.40001
1.42134
3.30911
5.12588
5.24896
5.246
5.24836
5.24984
5.2486
5.24763
5.24716
5.24582
5.24244
5.23678
5.2294
5.21635
5.199
5.18142
5.16375
5.14539
5.12671
5.10451
5.07782
5.04696
5.01356
4.97791
4.93933
4.89653
4.85064
4.80171
4.74884
4.69029
4.62394
4.54837
4.46174
4.36706
4.25693
4.13894
4.01175
3.87265
3.7256
3.56893
3.39926
1.40001
1.40001
1.40001
1.40001
1.40001
1.40001
1.40001
1.40001
1.40001
1.40001
1.40001
1.40001
1.40001
1.40001
1.40001
1.40001
1.40001
1.40001
1.40001
1.40001
1.40001
1.40001
1.40001
1.40001
1.40001
1.40001
1.40001
1.40001
1.40001
1.40001
1.40001
1.40001
1.40001
1.40001
1.40001
1.40001
1.40001
1.40001
1.40001
1.40001
1.40001
1.40001
1.40001
1.40001
1.40001
1.40001
1.40001
1.40001
1.40001
1.40001
1.40001
1.40001
1.40001
1.40001
1.40001
1.69475
4.48734
5.27993
5.25147
5.24533
5.23276
5.22611
5.22167
5.21831
5.21431
5.20851
5.20117
5.19338
5.18042
5.162
5.14287
5.12389
5.10356
5.08415
5.06197
5.03542
5.00384
4.96828
4.92919
4.88673
4.84086
4.79277
4.74231
4.68865
4.63037
4.56509
4.49193
4.4072
4.31745
4.21227
4.10279
3.98855
3.86364
3.7315
3.59409
3.4508
1.40001
1.40001
1.40001
1.40001
1.40001
1.40001
1.40001
1.40001
1.40001
1.40001
1.40001
1.40001
1.40001
1.40001
1.40001
1.40001
1.40001
1.40001
1.40001
1.40001
1.40001
1.40001
1.40001
1.40001
1.40001
1.40001
1.40001
1.40001
1.40001
1.40001
1.40001
1.40001
1.40001
1.40001
1.40001
1.40001
1.40001
1.40001
1.40001
1.40001
1.40001
1.40001
1.40001
1.40001
1.40001
1.40001
1.40001
1.40001
1.40001
1.40001
1.40001
1.40001
1.40001
1.40001
1.40001
1.40469
2.87408
5.01073
5.1936
5.2026
5.20286
5.1968
5.18991
5.18432
5.17825
5.1714
5.16286
5.15404
5.14082
5.12244
5.1032
5.08399
5.06258
5.04214
5.01927
4.99299
4.96175
4.9258
4.88493
4.83986
4.7925
4.74314
4.69153
4.63681
4.57846
4.51391
4.44399
4.36182
4.27709
4.17862
4.07889
3.97347
3.86127
3.7417
3.62051
3.49425
1.40001
1.40001
1.40001
1.40001
1.40001
1.40001
1.40001
1.40001
1.40001
1.40001
1.40001
1.40001
1.40001
1.40001
1.40001
1.40001
1.40001
1.40001
1.40001
1.40001
1.40001
1.40001
1.40001
1.40001
1.40001
1.40001
1.40001
1.40001
1.40001
1.40001
1.40001
1.40001
1.40001
1.40001
1.40001
1.40001
1.40001
1.40001
1.40001
1.40001
1.40001
1.40001
1.40001
1.40001
1.40001
1.40001
1.40001
1.40001
1.40001
1.40001
1.40001
1.40001
1.40001
1.40001
1.40001
1.4
1.54231
3.91655
5.18536
5.1874
5.18091
5.17225
5.16604
5.16019
5.1535
5.14569
5.13493
5.12301
5.10824
5.08805
5.06752
5.04693
5.02433
5.00199
4.97761
4.95157
4.92166
4.88592
4.8451
4.79934
4.75175
4.70244
4.65094
4.59565
4.53695
4.47207
4.40373
4.32386
4.24386
4.15289
4.06209
3.96306
3.86279
3.75538
3.6456
3.53027
1.40001
1.40001
1.40001
1.40001
1.40001
1.40001
1.40001
1.40001
1.40001
1.40001
1.40001
1.40001
1.40001
1.40001
1.40001
1.40001
1.40001
1.40001
1.40001
1.40001
1.40001
1.40001
1.40001
1.40001
1.40001
1.40001
1.40001
1.40001
1.40001
1.40001
1.40001
1.40001
1.40001
1.40001
1.40001
1.40001
1.40001
1.40001
1.40001
1.40001
1.40001
1.40001
1.40001
1.40001
1.40001
1.40001
1.40001
1.40001
1.40001
1.40001
1.40001
1.40001
1.40001
1.40001
1.40001
1.40001
1.40098
2.067
4.73536
5.17975
5.151
5.14869
5.14237
5.13595
5.12828
5.11861
5.10527
5.08969
5.07445
5.0545
5.03319
5.01106
4.98707
4.96228
4.93602
4.91002
4.88122
4.8453
4.8053
4.76073
4.71406
4.66628
4.61569
4.56123
4.50351
4.43848
4.3706
4.29447
4.21776
4.13349
4.04942
3.95737
3.86734
3.76826
3.66885
3.56438
1.40001
1.40001
1.40001
1.40001
1.40001
1.40001
1.40001
1.40001
1.40001
1.40001
1.40001
1.40001
1.40001
1.40001
1.40001
1.40001
1.40001
1.40001
1.40001
1.40001
1.40001
1.40001
1.40001
1.40001
1.40001
1.40001
1.40001
1.40001
1.40001
1.40001
1.40001
1.40001
1.40001
1.40001
1.40001
1.40001
1.40001
1.40001
1.40001
1.40001
1.40001
1.40001
1.40001
1.40001
1.40001
1.40001
1.40001
1.40001
1.40001
1.40001
1.40001
1.40001
1.40001
1.40001
1.40001
1.40001
1.40001
1.42639
3.05426
5.03167
5.13227
5.13082
5.1261
5.11859
5.11019
5.09819
5.08152
5.06106
5.04319
5.02328
5.00121
4.97848
4.95362
4.92686
4.89988
4.87301
4.84456
4.80866
4.76875
4.72557
4.67937
4.63311
4.58493
4.53303
4.47667
4.41253
4.34587
4.27388
4.19909
4.12041
4.04119
3.95599
3.87297
3.78081
3.69048
3.59529
1.40001
1.40001
1.40001
1.40001
1.40001
1.40001
1.40001
1.40001
1.40001
1.40001
1.40001
1.40001
1.40001
1.40001
1.40001
1.40001
1.40001
1.40001
1.40001
1.40001
1.40001
1.40001
1.40001
1.40001
1.40001
1.40001
1.40001
1.40001
1.40001
1.40001
1.40001
1.40001
1.40001
1.40001
1.40001
1.40001
1.40001
1.40001
1.40001
1.40001
1.40001
1.40001
1.40001
1.40001
1.40001
1.40001
1.40001
1.40001
1.40001
1.40001
1.40001
1.40001
1.40001
1.40001
1.40001
1.40001
1.40001
1.40006
1.56871
3.75668
5.08828
5.13196
5.12005
5.11269
5.10198
5.0872
5.06768
5.04246
5.01937
4.99746
4.97387
4.95045
4.9253
4.89736
4.8697
4.84123
4.81231
4.77648
4.73675
4.69401
4.64822
4.6016
4.55515
4.50544
4.45075
4.39057
4.32633
4.25882
4.18713
4.11375
4.03803
3.95843
3.87989
3.79546
3.71147
3.62406
1.40001
1.40001
1.40001
1.40001
1.40001
1.40001
1.40001
1.40001
1.40001
1.40001
1.40001
1.40001
1.40001
1.40001
1.40001
1.40001
1.40001
1.40001
1.40001
1.40001
1.40001
1.40001
1.40001
1.40001
1.40001
1.40001
1.40001
1.40001
1.40001
1.40001
1.40001
1.40001
1.40001
1.40001
1.40001
1.40001
1.40001
1.40001
1.40001
1.40001
1.40001
1.40001
1.40001
1.40001
1.40001
1.40001
1.40001
1.40001
1.40001
1.40001
1.40001
1.40001
1.40001
1.40001
1.40001
1.40001
1.40001
1.40001
1.4015
1.78849
4.44596
5.16745
5.1359
5.11623
5.09191
5.0706
5.04728
5.01999
4.99382
4.97007
4.94673
4.92315
4.89899
4.87214
4.84418
4.81467
4.78338
4.74789
4.70724
4.6646
4.61956
4.57323
4.52717
4.47878
4.4271
4.3715
4.31117
4.24825
4.18044
4.11164
4.03959
3.96437
3.88879
3.81093
3.73181
3.65074
1.40001
1.40001
1.40001
1.40001
1.40001
1.40001
1.40001
1.40001
1.40001
1.40001
1.40001
1.40001
1.40001
1.40001
1.40001
1.40001
1.40001
1.40001
1.40001
1.40001
1.40001
1.40001
1.40001
1.40001
1.40001
1.40001
1.40001
1.40001
1.40001
1.40001
1.40001
1.40001
1.40001
1.40001
1.40001
1.40001
1.40001
1.40001
1.40001
1.40001
1.40001
1.40001
1.40001
1.40001
1.40001
1.40001
1.40001
1.40001
1.40001
1.40001
1.40001
1.40001
1.40001
1.40001
1.40001
1.40001
1.40001
1.40001
1.40001
1.40822
2.50933
4.88333
5.11215
5.08071
5.05963
5.03885
5.01819
4.99488
4.97149
4.94863
4.92625
4.903
4.87786
4.85185
4.8237
4.79323
4.75996
4.72394
4.68296
4.64002
4.59525
4.54944
4.50318
4.45542
4.406
4.35348
4.29713
4.23825
4.17472
4.11012
4.04241
3.97116
3.89903
3.82621
3.75198
3.67637
1.40001
1.40001
1.40001
1.40001
1.40001
1.40001
1.40001
1.40001
1.40001
1.40001
1.40001
1.40001
1.40001
1.40001
1.40001
1.40001
1.40001
1.40001
1.40001
1.40001
1.40001
1.40001
1.40001
1.40001
1.40001
1.40001
1.40001
1.40001
1.40001
1.40001
1.40001
1.40001
1.40001
1.40001
1.40001
1.40001
1.40001
1.40001
1.40001
1.40001
1.40001
1.40001
1.40001
1.40001
1.40001
1.40001
1.40001
1.40001
1.40001
1.40001
1.40001
1.40001
1.40001
1.40001
1.40001
1.40001
1.40001
1.40001
1.40001
1.40002
1.47096
3.1653
4.9859
5.04264
5.02757
5.02199
5.00868
4.99043
4.96872
4.9454
4.92074
4.89533
4.86847
4.83996
4.81216
4.7796
4.74436
4.70669
4.66496
4.62118
4.57599
4.53026
4.4841
4.4368
4.38915
4.33907
4.28628
4.23044
4.17063
4.10948
4.04539
3.97757
3.90913
3.83978
3.7706
3.69928
1.40001
1.40001
1.40001
1.40001
1.40001
1.40001
1.40001
1.40001
1.40001
1.40001
1.40001
1.40001
1.40001
1.40001
1.40001
1.40001
1.40001
1.40001
1.40001
1.40001
1.40001
1.40001
1.40001
1.40001
1.40001
1.40001
1.40001
1.40001
1.40001
1.40001
1.40001
1.40001
1.40001
1.40001
1.40001
1.40001
1.40001
1.40001
1.40001
1.40001
1.40001
1.40001
1.40001
1.40001
1.40001
1.40001
1.40001
1.40001
1.40001
1.40001
1.40001
1.40001
1.40001
1.40001
1.40001
1.40001
1.40001
1.40001
1.40001
1.40001
1.40035
1.5902
3.55836
4.98297
5.01015
5.00515
4.99695
4.98249
4.96349
4.94134
4.91676
4.89043
4.8625
4.8323
4.80212
4.76894
4.73238
4.69344
4.65138
4.60746
4.56224
4.51639
4.47026
4.42344
4.37639
4.32818
4.27794
4.22412
4.16714
4.10892
4.04769
3.98325
3.91827
3.85165
3.78705
3.71927
1.40001
1.40001
1.40001
1.40001
1.40001
1.40001
1.40001
1.40001
1.40001
1.40001
1.40001
1.40001
1.40001
1.40001
1.40001
1.40001
1.40001
1.40001
1.40001
1.40001
1.40001
1.40001
1.40001
1.40001
1.40001
1.40001
1.40001
1.40001
1.40001
1.40001
1.40001
1.40001
1.40001
1.40001
1.40001
1.40001
1.40001
1.40001
1.40001
1.40001
1.40001
1.40001
1.40001
1.40001
1.40001
1.40001
1.40001
1.40001
1.40001
1.40001
1.40001
1.40001
1.40001
1.40001
1.40001
1.40001
1.40001
1.40001
1.40001
1.40001
1.40001
1.40204
1.71008
3.86699
5.00656
5.00598
4.9916
4.97442
4.9548
4.93295
4.90907
4.88335
4.85552
4.82528
4.79418
4.76077
4.72445
4.68524
4.64343
4.59992
4.55518
4.5096
4.4636
4.41705
4.37013
4.32262
4.27307
4.22019
4.16522
4.10906
4.04973
3.98837
3.92621
3.86222
3.80134
3.73667
1.40001
1.40001
1.40001
1.40001
1.40001
1.40001
1.40001
1.40001
1.40001
1.40001
1.40001
1.40001
1.40001
1.40001
1.40001
1.40001
1.40001
1.40001
1.40001
1.40001
1.40001
1.40001
1.40001
1.40001
1.40001
1.40001
1.40001
1.40001
1.40001
1.40001
1.40001
1.40001
1.40001
1.40001
1.40001
1.40001
1.40001
1.40001
1.40001
1.40001
1.40001
1.40001
1.40001
1.40001
1.40001
1.40001
1.40001
1.40001
1.40001
1.40001
1.40001
1.40001
1.40001
1.40001
1.40001
1.40001
1.40001
1.40001
1.40001
1.40001
1.40001
1.40001
1.40524
1.83885
4.14437
5.01134
4.99786
4.97529
4.95103
4.92673
4.90108
4.87458
4.84609
4.81635
4.7857
4.75244
4.71633
4.67761
4.63686
4.59465
4.55121
4.50675
4.46143
4.41511
4.36833
4.32096
4.27096
4.21803
4.1644
4.1097
4.05232
3.99414
3.9345
3.87309
3.81482
3.75285
1.40001
1.40001
1.40001
1.40001
1.40001
1.40001
1.40001
1.40001
1.40001
1.40001
1.40001
1.40001
1.40001
1.40001
1.40001
1.40001
1.40001
1.40001
1.40001
1.40001
1.40001
1.40001
1.40001
1.40001
1.40001
1.40001
1.40001
1.40001
1.40001
1.40001
1.40001
1.40001
1.40001
1.40001
1.40001
1.40001
1.40001
1.40001
1.40001
1.40001
1.40001
1.40001
1.40001
1.40001
1.40001
1.40001
1.40001
1.40001
1.40001
1.40001
1.40001
1.40001
1.40001
1.40001
1.40001
1.40001
1.40001
1.40001
1.40001
1.40001
1.40001
1.40001
1.40002
1.41039
1.98431
4.34884
5.01798
4.99332
4.96492
4.93441
4.9056
4.8747
4.8422
4.81029
4.77818
4.74424
4.70835
4.6707
4.63157
4.59111
4.54931
4.50635
4.46213
4.41649
4.36999
4.32262
4.27244
4.21922
4.16644
4.11325
4.05806
4.00255
3.9449
3.88551
3.82875
3.76906
1.40001
1.40001
1.40001
1.40001
1.40001
1.40001
1.40001
1.40001
1.40001
1.40001
1.40001
1.40001
1.40001
1.40001
1.40001
1.40001
1.40001
1.40001
1.40001
1.40001
1.40001
1.40001
1.40001
1.40001
1.40001
1.40001
1.40001
1.40001
1.40001
1.40001
1.40001
1.40001
1.40001
1.40001
1.40001
1.40001
1.40001
1.40001
1.40001
1.40001
1.40001
1.40001
1.40001
1.40001
1.40001
1.40001
1.40001
1.40001
1.40001
1.40001
1.40001
1.40001
1.40001
1.40001
1.40001
1.40001
1.40001
1.40001
1.40001
1.40001
1.40001
1.40001
1.40001
1.40003
1.41841
2.12542
4.50346
5.02
4.99188
4.95652
4.91988
4.8829
4.84747
4.81271
4.77698
4.74045
4.70336
4.66562
4.62714
4.5877
4.54699
4.50506
4.4619
4.41749
4.37181
4.32493
4.27575
4.22393
4.17263
4.12087
4.0674
4.01351
3.95719
3.89902
3.84307
3.7853
1.40001
1.40001
1.40001
1.40001
1.40001
1.40001
1.40001
1.40001
1.40001
1.40001
1.40001
1.40001
1.40001
1.40001
1.40001
1.40001
1.40001
1.40001
1.40001
1.40001
1.40001
1.40001
1.40001
1.40001
1.40001
1.40001
1.40001
1.40001
1.40001
1.40001
1.40001
1.40001
1.40001
1.40001
1.40001
1.40001
1.40001
1.40001
1.40001
1.40001
1.40001
1.40001