/*--------------------------------*- C++ -*----------------------------------*\
  =========                 |
  \\      /  F ield         | OpenFOAM: The Open Source CFD Toolbox
   \\    /   O peration     | Website:  https://openfoam.org
    \\  /    A nd           | Version:  7
     \\/     M anipulation  |
\*---------------------------------------------------------------------------*/
FoamFile
{
    version     2.0;
    format      ascii;
    class       volScalarField;
    location    "5.1";
    object      T;
}
// * * * * * * * * * * * * * * * * * * * * * * * * * * * * * * * * * * * * * //

dimensions      [0 0 0 1 0 0 0];

internalField   nonuniform List<scalar> 
19968
(
1
1
1
1
1
1
1
1
1
1
1
1
1
1
1
1
1
1
1
1
1
1
1
1
1
1
1
1
1
1
1
1
1
1
1
1
1
1
1
1
1
1
1
1
1
1
1
1
1.25144
2.44338
2.69167
2.69584
2.69984
2.70225
2.70441
2.7072
2.71136
2.71693
2.72306
2.72853
2.7325
2.73507
2.73698
2.73903
2.74167
2.74513
2.74927
2.75356
2.75736
2.76036
2.76277
2.76501
2.76743
2.77014
2.77305
2.77589
2.77847
2.78077
2.78282
2.78467
2.78634
2.78785
2.78927
2.79074
2.79237
2.79418
2.79608
2.7979
2.79949
2.80077
2.80174
2.80248
2.80305
2.80346
2.80375
2.8039
1
1
1
1
1
1
1
1
1
1
1
1
1
1
1
1
1
1
1
1
1
1
1
1
1
1
1
1
1
1
1
1
1
1
1
1
1
1
1
1
1
1
1
1
1
1
1
1
1.23962
2.43752
2.69155
2.69562
2.6995
2.70189
2.70408
2.70693
2.71117
2.71677
2.72286
2.72826
2.73219
2.73476
2.73671
2.73879
2.74147
2.74496
2.7491
2.75336
2.75711
2.76007
2.76247
2.7647
2.7671
2.76981
2.7727
2.77552
2.7781
2.78039
2.78245
2.78432
2.78603
2.78759
2.78907
2.79056
2.79217
2.79392
2.79572
2.79745
2.79898
2.80023
2.80122
2.80199
2.80259
2.80302
2.80331
2.80346
1
1
1
1
1
1
1
1
1
1
1
1
1
1
1
1
1
1
1
1
1
1
1
1
1
1
1
1
1
1
1
1
1
1
1
1
1
1
1
1
1
1
1
1
1
1
1
1
1.21086
2.42199
2.69137
2.69451
2.6982
2.70071
2.70322
2.7064
2.71082
2.7164
2.72233
2.72757
2.73142
2.73405
2.73608
2.73826
2.74101
2.74454
2.74868
2.75289
2.75658
2.7595
2.76188
2.76411
2.76652
2.76923
2.7721
2.77489
2.77745
2.77972
2.78178
2.78369
2.78546
2.78711
2.78867
2.79022
2.79182
2.79348
2.79515
2.79675
2.79818
2.7994
2.80042
2.80125
2.8019
2.80235
2.80265
2.8028
1
1
1
1
1
1
1
1
1
1
1
1
1
1
1
1
1
1
1
1
1
1
1
1
1
1
1
1
1
1
1
1
1
1
1
1
1
1
1
1
1
1
1
1
1
1
1
1
1.16744
2.39542
2.69026
2.69299
2.69648
2.69942
2.70256
2.70623
2.71075
2.71605
2.72157
2.7265
2.73027
2.73302
2.73524
2.73758
2.74042
2.74398
2.74806
2.75217
2.75576
2.75864
2.76101
2.76326
2.76568
2.76837
2.77121
2.77397
2.7765
2.77877
2.78085
2.78281
2.78466
2.7864
2.78805
2.78963
2.79117
2.7927
2.79417
2.79557
2.79687
2.79805
2.79911
2.80002
2.80076
2.80127
2.80161
2.80178
1
1
1
1
1
1
1
1
1
1
1
1
1
1
1
1
1
1
1
1
1
1
1
1
1
1
1
1
1
1
1
1
1
1
1
1
1
1
1
1
1
1
1
1
1
1
1
1
1.10841
2.35872
2.68826
2.69148
2.69507
2.69854
2.70227
2.70632
2.71081
2.71569
2.72065
2.72519
2.7289
2.73187
2.73441
2.73702
2.73999
2.74353
2.74745
2.75136
2.75479
2.75761
2.76
2.7623
2.76475
2.76742
2.77021
2.77293
2.77543
2.7777
2.77981
2.78181
2.78374
2.78558
2.78731
2.78892
2.79041
2.79178
2.79303
2.7942
2.79532
2.79639
2.79741
2.79832
2.79907
2.7996
2.79995
2.80012
1
1
1
1
1
1
1
1
1
1
1
1
1
1
1
1
1
1
1
1
1
1
1
1
1
1
1
1
1
1
1
1
1
1
1
1
1
1
1
1
1
1
1
1
1
1
1
1
1.0041
2.29219
2.68592
2.69063
2.69469
2.69888
2.70296
2.70716
2.71146
2.71582
2.72001
2.72394
2.72748
2.73068
2.73366
2.73665
2.73981
2.74325
2.74684
2.75037
2.75351
2.7562
2.7586
2.76093
2.76338
2.76598
2.76867
2.77128
2.77373
2.77598
2.77809
2.78011
2.78208
2.78397
2.78575
2.78739
2.78884
2.7901
2.79121
2.79223
2.79324
2.79426
2.79529
2.79625
2.79706
2.79765
2.79802
2.79823
1
1
1
1
1
1
1
1
1
1
1
1
1
1
1
1
1
1
1
1
1
1
1
1
1
1
1
1
1
1
1
1
1
1
1
1
1
1
1
1
1
1
1
1
1
1
1
1
1.00002
2.20253
2.6806
2.68731
2.69155
2.69624
2.70055
2.70485
2.70911
2.71323
2.71702
2.72056
2.72402
2.72744
2.73088
2.73435
2.73781
2.74128
2.74465
2.74787
2.75078
2.75342
2.75592
2.7584
2.76095
2.76357
2.7662
2.76877
2.7712
2.77347
2.77561
2.77766
2.77965
2.78156
2.78336
2.785
2.78643
2.78763
2.78866
2.78958
2.7905
2.79144
2.79243
2.79338
2.79421
2.79486
2.79528
2.79553
1
1
1
1
1
1
1
1
1
1
1
1
1
1
1
1
1
1
1
1
1
1
1
1
1
1
1
1
1
1
1
1
1
1
1
1
1
1
1
1
1
1
1
1
1
1
1
1
1
2.07202
2.66919
2.68424
2.68871
2.69347
2.69762
2.7017
2.70581
2.70987
2.7137
2.71727
2.72079
2.7243
2.72789
2.73152
2.73511
2.73864
2.74196
2.74508
2.74789
2.75051
2.75309
2.75569
2.75833
2.76094
2.76352
2.76601
2.76839
2.77065
2.77279
2.77483
2.77679
2.77866
2.78043
2.78204
2.78345
2.78462
2.78558
2.78642
2.78723
2.78807
2.78896
2.78985
2.79067
2.79136
2.79184
2.79215
1
1
1
1
1
1
1
1
1
1
1
1
1
1
1
1
1
1
1
1
1
1
1
1
1
1
1
1
1
1
1
1
1
1
1
1
1
1
1
1
1
1
1
1
1
1
1
1
1
1.89097
2.63747
2.67806
2.68352
2.68862
2.69271
2.69657
2.70051
2.70463
2.70879
2.71275
2.71657
2.72028
2.72391
2.72748
2.73104
2.7346
2.73795
2.74109
2.74392
2.74655
2.74919
2.75186
2.75454
2.75713
2.75964
2.76207
2.76442
2.76666
2.76879
2.77079
2.77268
2.77448
2.77619
2.77779
2.7792
2.78039
2.78136
2.78216
2.7829
2.78364
2.78444
2.78527
2.78608
2.78682
2.78736
2.78776
1
1
1
1
1
1
1
1
1
1
1
1
1
1
1
1
1
1
1
1
1
1
1
1
1
1
1
1
1
1
1
1
1
1
1
1
1
1
1
1
1
1
1
1
1
1
1
1
1
1.65602
2.57673
2.67152
2.67827
2.68372
2.68778
2.69133
2.69485
2.69882
2.70329
2.70778
2.712
2.71588
2.71945
2.72282
2.72618
2.72968
2.73309
2.73631
2.73929
2.742
2.74467
2.7473
2.74991
2.7524
2.75479
2.75713
2.75941
2.7616
2.76366
2.76558
2.76736
2.76908
2.77076
2.77237
2.77385
2.7751
2.77608
2.77684
2.77747
2.77805
2.77866
2.77935
2.78007
2.7808
2.78136
2.78178
1
1
1
1
1
1
1
1
1
1
1
1
1
1
1
1
1
1
1
1
1
1
1
1
1
1
1
1
1
1
1
1
1
1
1
1
1
1
1
1
1
1
1
1
1
1
1
1
1
1.34954
2.46911
2.67005
2.67307
2.67961
2.68319
2.68645
2.6896
2.69331
2.69781
2.70258
2.70701
2.71095
2.71443
2.7176
2.72073
2.7241
2.72751
2.73079
2.73392
2.73673
2.73942
2.74199
2.74449
2.74689
2.7492
2.75149
2.75371
2.75581
2.75772
2.75942
2.76098
2.76246
2.76393
2.76539
2.76675
2.76791
2.76882
2.7695
2.77004
2.77052
2.77105
2.77167
2.77236
2.77311
2.77369
2.77415
1
1
1
1
1
1
1
1
1
1
1
1
1
1
1
1
1
1
1
1
1
1
1
1
1
1
1
1
1
1
1
1
1
1
1
1
1
1
1
1
1
1
1
1
1
1
1
1
1
1.01334
2.28451
2.6763
2.6769
2.67947
2.68221
2.68527
2.68826
2.69138
2.69493
2.69875
2.70246
2.70594
2.70911
2.71195
2.71466
2.71762
2.72077
2.72387
2.72694
2.7297
2.73223
2.73463
2.73694
2.73923
2.74149
2.74377
2.746
2.74808
2.7499
2.75148
2.7529
2.75426
2.75564
2.75703
2.75834
2.75946
2.76031
2.76087
2.7612
2.76138
2.76151
2.76165
2.76187
2.76224
2.76256
2.76285
1
1
1
1
1
1
1
1
1
1
1
1
1
1
1
1
1
1
1
1
1
1
1
1
1
1
1
1
1
1
1
1
1
1
1
1
1
1
1
1
1
1
1
1
1
1
1
1
1
1.00002
1.9981
2.6422
2.66206
2.66711
2.67225
2.67657
2.68024
2.68352
2.6868
2.69026
2.69371
2.697
2.70006
2.70288
2.70555
2.70836
2.71144
2.71451
2.71746
2.72014
2.7225
2.72473
2.72691
2.72911
2.73137
2.73367
2.73592
2.73795
2.73968
2.74111
2.74236
2.74355
2.7447
2.74579
2.74669
2.74734
2.74768
2.74775
2.74769
2.74757
2.74748
2.74754
2.74763
2.74778
2.74779
2.74788
1
1
1
1
1
1
1
1
1
1
1
1
1
1
1
1
1
1
1
1
1
1
1
1
1
1
1
1
1
1
1
1
1
1
1
1
1
1
1
1
1
1
1
1
1
1
1
1
1
1
1.51976
2.5047
2.6462
2.65515
2.66372
2.66893
2.67288
2.67626
2.6796
2.68312
2.68668
2.68999
2.69297
2.6957
2.69829
2.70091
2.70375
2.70657
2.70912
2.7114
2.71334
2.71514
2.71694
2.71881
2.72077
2.72279
2.72475
2.72648
2.72784
2.7289
2.72979
2.73067
2.73153
2.73228
2.73276
2.73294
2.73285
2.73262
2.73226
2.73178
2.73106
2.73005
2.72839
2.72602
2.72326
2.72097
1
1
1
1
1
1
1
1
1
1
1
1
1
1
1
1
1
1
1
1
1
1
1
1
1
1
1
1
1
1
1
1
1
1
1
1
1
1
1
1
1
1
1
1
1
1
1
1
1
1
1.02487
2.23461
2.65501
2.65586
2.65875
2.66165
2.66435
2.66706
2.66999
2.6733
2.67683
2.68018
2.68313
2.68578
2.6883
2.6908
2.69341
2.69603
2.69834
2.70029
2.70188
2.70322
2.70455
2.70601
2.70759
2.7092
2.71075
2.71206
2.71284
2.7133
2.71359
2.71388
2.71418
2.71434
2.71409
2.71324
2.71173
2.70975
2.70732
2.70439
2.70097
2.69724
2.69375
2.69012
2.68761
2.68614
1
1
1
1
1
1
1
1
1
1
1
1
1
1
1
1
1
1
1
1
1
1
1
1
1
1
1
1
1
1
1
1
1
1
1
1
1
1
1
1
1
1
1
1
1
1
1
1
1
1
1.00004
1.73054
2.55317
2.63749
2.64338
2.64686
2.64969
2.65248
2.65567
2.65948
2.6637
2.66776
2.67123
2.67406
2.67649
2.67879
2.68116
2.6836
2.68589
2.68775
2.68919
2.69028
2.6912
2.69216
2.69322
2.69425
2.69514
2.69569
2.6957
2.69528
2.69445
2.69355
2.69276
2.69186
2.69049
2.68828
2.68514
2.6812
2.67666
2.67167
2.66619
2.6605
2.65511
2.65299
2.6504
2.6647
1
1
1
1
1
1
1
1
1
1
1
1
1
1
1
1
1
1
1
1
1
1
1
1
1
1
1
1
1
1
1
1
1
1
1
1
1
1
1
1
1
1
1
1
1
1
1
1
1
1
1
1.09063
2.33334
2.63565
2.63537
2.63678
2.63905
2.6413
2.64421
2.64796
2.65233
2.65664
2.66026
2.66306
2.66529
2.6673
2.66933
2.67148
2.67361
2.67543
2.67688
2.67795
2.67848
2.67891
2.67937
2.67974
2.67992
2.67977
2.67913
2.67776
2.67579
2.67355
2.6713
2.66894
2.66606
2.66217
2.65684
2.64985
2.64088
2.62973
2.61475
2.59472
2.56533
2.52397
2.46077
2.33373
1
1
1
1
1
1
1
1
1
1
1
1
1
1
1
1
1
1
1
1
1
1
1
1
1
1
1
1
1
1
1
1
1
1
1
1
1
1
1
1
1
1
1
1
1
1
1
1
1
1
1
1.00063
1.99857
2.60505
2.61615
2.62043
2.62462
2.62798
2.63128
2.63496
2.63933
2.64399
2.64815
2.65138
2.65377
2.65568
2.65754
2.65958
2.6617
2.66359
2.66512
2.66621
2.66655
2.66678
2.66684
2.66673
2.66635
2.66556
2.66421
2.6621
2.65925
2.65586
2.65213
2.64812
2.64347
2.63773
2.63004
2.62002
2.60661
2.5898
2.56692
2.53712
2.49367
2.43764
2.32773
2.16621
1
1
1
1
1
1
1
1
1
1
1
1
1
1
1
1
1
1
1
1
1
1
1
1
1
1
1
1
1
1
1
1
1
1
1
1
1
1
1
1
1
1
1
1
1
1
1
1
1
1
1
0.999999
1.38083
2.4339
2.5975
2.60597
2.61175
2.615
2.61841
2.62239
2.62715
2.63216
2.63663
2.63996
2.64227
2.64393
2.64554
2.64747
2.64952
2.65137
2.65285
2.65377
2.65413
2.65413
2.6539
2.65337
2.65244
2.65093
2.64873
2.64576
2.64196
2.63746
2.63228
2.6266
2.62003
2.61229
2.60227
2.58949
2.57259
2.55122
2.52355
2.48696
2.43924
2.36616
2.26184
2.13298
1
1
1
1
1
1
1
1
1
1
1
1
1
1
1
1
1
1
1
1
1
1
1
1
1
1
1
1
1
1
1
1
1
1
1
1
1
1
1
1
1
1
1
1
1
1
1
1
1
1
1
1
1.01391
2.11423
2.59575
2.59596
2.59753
2.60057
2.60487
2.61007
2.61544
2.61996
2.62401
2.62682
2.62873
2.63024
2.63188
2.63395
2.63619
2.63812
2.63948
2.64022
2.64035
2.64007
2.63951
2.63872
2.63751
2.63559
2.63273
2.62892
2.62415
2.61861
2.61216
2.60502
2.59675
2.58714
2.57516
2.56011
2.54091
2.51676
2.48663
2.44758
2.39766
2.33069
2.24589
2.14572
1
1
1
1
1
1
1
1
1
1
1
1
1
1
1
1
1
1
1
1
1
1
1
1
1
1
1
1
1
1
1
1
1
1
1
1
1
1
1
1
1
1
1
1
1
1
1
1
1
1
1
1
1.00001
1.45332
2.44389
2.58418
2.58618
2.59016
2.59354
2.59848
2.60402
2.60848
2.61187
2.61401
2.61524
2.61629
2.61771
2.61973
2.62202
2.62401
2.62531
2.62588
2.62575
2.62522
2.62429
2.62316
2.62168
2.61954
2.61635
2.61199
2.60642
2.59995
2.59246
2.58409
2.57448
2.56332
2.54985
2.53329
2.5129
2.48776
2.45756
2.41882
2.37225
2.31519
2.24945
2.16929
1
1
1
1
1
1
1
1
1
1
1
1
1
1
1
1
1
1
1
1
1
1
1
1
1
1
1
1
1
1
1
1
1
1
1
1
1
1
1
1
1
1
1
1
1
1
1
1
1
1
1
1
1
1.01968
2.11108
2.58354
2.58356
2.58382
2.58568
2.58931
2.59356
2.597
2.59939
2.60088
2.60164
2.60229
2.60338
2.60519
2.60743
2.60945
2.61067
2.61094
2.61064
2.6098
2.60839
2.60674
2.60485
2.6025
2.59919
2.5946
2.58856
2.58141
2.57321
2.56403
2.55355
2.54138
2.52691
2.50951
2.48876
2.4637
2.43462
2.39864
2.35722
2.30932
2.25651
2.19306
1
1
1
1
1
1
1
1
1
1
1
1
1
1
1
1
1
1
1
1
1
1
1
1
1
1
1
1
1
1
1
1
1
1
1
1
1
1
1
1
1
1
1
1
1
1
1
1
1
1
1
1
1
1.00002
1.38843
2.40661
2.57591
2.57515
2.57771
2.58151
2.58465
2.58662
2.58768
2.58826
2.58861
2.58884
2.58946
2.5909
2.5927
2.59432
2.59517
2.59514
2.59464
2.59362
2.59195
2.58992
2.5876
2.58489
2.58139
2.57668
2.57045
2.56304
2.55462
2.54517
2.53434
2.52169
2.50673
2.489
2.46849
2.44397
2.41644
2.38417
2.34771
2.30745
2.26296
2.21107
1
1
1
1
1
1
1
1
1
1
1
1
1
1
1
1
1
1
1
1
1
1
1
1
1
1
1
1
1
1
1
1
1
1
1
1
1
1
1
1
1
1
1
1
1
1
1
1
1
1
1
1
1
1
1.01309
2.02137
2.55093
2.56694
2.56877
2.57188
2.57491
2.57683
2.57767
2.57783
2.57767
2.57739
2.57744
2.57832
2.57945
2.58026
2.58039
2.57991
2.57871
2.5772
2.57525
2.57293
2.57024
2.56717
2.56341
2.5585
2.55211
2.54456
2.5361
2.52671
2.51606
2.50362
2.48894
2.47146
2.45178
2.42812
2.40214
2.37345
2.34129
2.30628
2.26788
2.22522
1
1
1
1
1
1
1
1
1
1
1
1
1
1
1
1
1
1
1
1
1
1
1
1
1
1
1
1
1
1
1
1
1
1
1
1
1
1
1
1
1
1
1
1
1
1
1
1
1
1
1
1
1
1
1.00001
1.2057
2.33109
2.56183
2.55911
2.5617
2.56362
2.56574
2.5667
2.56671
2.56637
2.56575
2.56546
2.56588
2.56628
2.56615
2.56572
2.56469
2.56278
2.56077
2.55847
2.55594
2.55308
2.54978
2.54571
2.54052
2.534
2.52645
2.51804
2.50879
2.4985
2.48658
2.47274
2.45594
2.43754
2.41509
2.39104
2.3653
2.33647
2.30509
2.27167
2.23603
1
1
1
1
1
1
1
1
1
1
1
1
1
1
1
1
1
1
1
1
1
1
1
1
1
1
1
1
1
1
1
1
1
1
1
1
1
1
1
1
1
1
1
1
1
1
1
1
1
1
1
1
1
1
1
1.00298
1.82723
2.4905
2.53665
2.5456
2.55065
2.5525
2.55346
2.55363
2.55344
2.55315
2.55304
2.55336
2.55328
2.55269
2.55177
2.5503
2.54783
2.54518
2.54224
2.5393
2.53618
2.53268
2.52832
2.52281
2.51628
2.50879
2.50044
2.49123
2.48121
2.4698
2.45707
2.44129
2.42442
2.40383
2.38227
2.35877
2.33289
2.30478
2.27559
2.24453
1
1
1
1
1
1
1
1
1
1
1
1
1
1
1
1
1
1
1
1
1
1
1
1
1
1
1
1
1
1
1
1
1
1
1
1
1
1
1
1
1
1
1
1
1
1
1
1
1
1
1
1
1
1
1
1
1.09308
2.18216
2.53384
2.53985
2.53934
2.53945
2.54001
2.54051
2.54072
2.54094
2.54111
2.54153
2.54144
2.54049
2.53913
2.53719
2.53425
2.5309
2.5272
2.5238
2.52045
2.51659
2.51198
2.50623
2.49966
2.49225
2.48401
2.47478
2.46483
2.45362
2.44163
2.42686
2.4116
2.39324
2.3742
2.35258
2.32992
2.3049
2.27881
2.25078
1
1
1
1
1
1
1
1
1
1
1
1
1
1
1
1
1
1
1
1
1
1
1
1
1
1
1
1
1
1
1
1
1
1
1
1
1
1
1
1
1
1
1
1
1
1
1
1
1
1
1
1
1
1
1
1
1.00058
1.42326
2.35833
2.51826
2.51762
2.52044
2.52261
2.52432
2.52537
2.52609
2.52669
2.52747
2.52825
2.52766
2.52641
2.52431
2.52111
2.51718
2.5129
2.50915
2.50557
2.50121
2.49638
2.49056
2.48396
2.47668
2.46845
2.45923
2.44939
2.43816
2.42648
2.41292
2.39892
2.38266
2.36576
2.34625
2.32652
2.30399
2.2808
2.25583
1
1
1
1
1
1
1
1
1
1
1
1
1
1
1
1
1
1
1
1
1
1
1
1
1
1
1
1
1
1
1
1
1
1
1
1
1
1
1
1
1
1
1
1
1
1
1
1
1
1
1
1
1
1
1
1
1
1.01577
1.87848
2.47028
2.5005
2.50532
2.50755
2.50903
2.51033
2.51115
2.51184
2.51266
2.51399
2.51393
2.51311
2.51129
2.50817
2.50403
2.49968
2.49571
2.49202
2.48739
2.48229
2.47648
2.46971
2.46244
2.45436
2.44529
2.43536
2.42403
2.41251
2.39997
2.38671
2.37218
2.35692
2.33948
2.32193
2.3016
2.28084
2.25866
1
1
1
1
1
1
1
1
1
1
1
1
1
1
1
1
1
1
1
1
1
1
1
1
1
1
1
1
1
1
1
1
1
1
1
1
1
1
1
1
1
1
1
1
1
1
1
1
1
1
1
1
1
1
1
1
1
1.00003
1.11153
2.1159
2.48138
2.4972
2.49584
2.49664
2.49736
2.49796
2.49857
2.49896
2.49983
2.49998
2.49939
2.4979
2.49507
2.49101
2.48682
2.48275
2.47911
2.47457
2.46953
2.46378
2.45699
2.44945
2.4414
2.43235
2.42223
2.41124
2.39982
2.38806
2.37548
2.36232
2.34817
2.33254
2.31646
2.29835
2.27977
2.25983
1
1
1
1
1
1
1
1
1
1
1
1
1
1
1
1
1
1
1
1
1
1
1
1
1
1
1
1
1
1
1
1
1
1
1
1
1
1
1
1
1
1
1
1
1
1
1
1
1
1
1
1
1
1
1
1
1
1
1.00084
1.25956
2.26224
2.48027
2.47924
2.48045
2.48041
2.4813
2.48255
2.48343
2.48427
2.48448
2.48414
2.48303
2.48082
2.47739
2.47356
2.46968
2.46595
2.46186
2.45696
2.45153
2.4451
2.4377
2.42963
2.42057
2.41064
2.40006
2.38889
2.37766
2.36564
2.35341
2.34021
2.32581
2.31069
2.29441
2.27735
2.2593
1
1
1
1
1
1
1
1
1
1
1
1
1
1
1
1
1
1
1
1
1
1
1
1
1
1
1
1
1
1
1
1
1
1
1
1
1
1
1
1
1
1
1
1
1
1
1
1
1
1
1
1
1
1
1
1
1
1
1
1.00481
1.62724
2.36799
2.4572
2.45449
2.45616
2.45868
2.46183
2.46456
2.46669
2.46759
2.4675
2.46686
2.46517
2.46258
2.45935
2.45587
2.45233
2.44873
2.44438
2.43947
2.43364
2.42676
2.4189
2.40999
2.40033
2.39
2.37918
2.36829
2.35677
2.34522
2.33288
2.31938
2.30515
2.29019
2.27439
2.25788
1
1
1
1
1
1
1
1
1
1
1
1
1
1
1
1
1
1
1
1
1
1
1
1
1
1
1
1
1
1
1
1
1
1
1
1
1
1
1
1
1
1
1
1
1
1
1
1
1
1
1
1
1
1
1
1
1
1
1
1.00001
1.043
1.89225
2.41397
2.4433
2.44258
2.4448
2.44695
2.44899
2.45057
2.45115
2.45093
2.45028
2.44892
2.44672
2.4444
2.44133
2.43819
2.43507
2.43136
2.42708
2.42193
2.41576
2.40848
2.40005
2.39091
2.38103
2.3707
2.3601
2.34902
2.33793
2.32623
2.31345
2.3001
2.286
2.27141
2.25591
1
1
1
1
1
1
1
1
1
1
1
1
1
1
1
1
1
1
1
1
1
1
1
1
1
1
1
1
1
1
1
1
1
1
1
1
1
1
1
1
1
1
1
1
1
1
1
1
1
1
1
1
1
1
1
1
1
1
1
1
1.00017
1.12452
2.01345
2.40957
2.43372
2.43664
2.43798
2.43787
2.43761
2.43704
2.43605
2.43469
2.43294
2.43065
2.42839
2.42582
2.4231
2.42041
2.41735
2.41378
2.4094
2.404
2.39748
2.38982
2.38133
2.37217
2.3625
2.35226
2.34166
2.33107
2.31992
2.30793
2.29546
2.2821
2.26866
2.25396
1
1
1
1
1
1
1
1
1
1
1
1
1
1
1
1
1
1
1
1
1
1
1
1
1
1
1
1
1
1
1
1
1
1
1
1
1
1
1
1
1
1
1
1
1
1
1
1
1
1
1
1
1
1
1
1
1
1
1
1
1
1.00109
1.20305
2.08946
2.39614
2.42824
2.42789
2.42753
2.42662
2.42523
2.42349
2.42146
2.41905
2.4163
2.41366
2.41105
2.40848
2.40589
2.4031
2.39992
2.39606
2.39131
2.38555
2.37874
2.37107
2.36273
2.35371
2.34397
2.33397
2.32396
2.3134
2.30233
2.29077
2.2783
2.26593
2.25211
1
1
1
1
1
1
1
1
1
1
1
1
1
1
1
1
1
1
1
1
1
1
1
1
1
1
1
1
1
1
1
1
1
1
1
1
1
1
1
1
1
1
1
1
1
1
1
1
1
1
1
1
1
1
1
1
1
1
1
1
1
1
1.00289
1.2815
2.14266
2.38684
2.41037
2.41292
2.41291
2.41251
2.4113
2.40942
2.40682
2.40391
2.40104
2.39809
2.39515
2.39222
2.38921
2.38595
2.38219
2.37774
2.37248
2.36632
2.35939
2.35183
2.34339
2.33421
2.32496
2.3157
2.30602
2.29613
2.28564
2.27425
2.26293
2.25012
1
1
1
1
1
1
1
1
1
1
1
1
1
1
1
1
1
1
1
1
1
1
1
1
1
1
1
1
1
1
1
1
1
1
1
1
1
1
1
1
1
1
1
1
1
1
1
1
1
1
1
1
1
1
1
1
1
1
1
1
1
1
1
1.00581
1.36127
2.18177
2.37356
2.38952
2.39429
2.39626
2.39656
2.39564
2.39379
2.39152
2.38895
2.38605
2.38299
2.37984
2.37653
2.37295
2.36892
2.36437
2.35919
2.35331
2.34679
2.33969
2.33172
2.32306
2.31468
2.30642
2.29784
2.28917
2.27979
2.26953
2.25919
2.2475
1
1
1
1
1
1
1
1
1
1
1
1
1
1
1
1
1
1
1
1
1
1
1
1
1
1
1
1
1
1
1
1
1
1
1
1
1
1
1
1
1
1
1
1
1
1
1
1
1
1
1
1
1
1
1
1
1
1
1
1
1
1
1
1.00001
1.01044
1.43234
2.21082
2.36114
2.37048
2.37458
2.37671
2.37737
2.37715
2.3763
2.37463
2.37247
2.36999
2.36717
2.36398
2.36032
2.35612
2.35139
2.34614
2.34036
2.33402
2.32719
2.31976
2.31182
2.30417
2.29665
2.28894
2.2812
2.27277
2.26348
2.25402
2.24347
1
1
1
1
1
1
1
1
1
1
1
1
1
1
1
1
1
1
1
1
1
1
1
1
1
1
1
1
1
1
1
1
1
1
1
1
1
1
1
1
1
1
1
1
1
1
1
1
1
1
1
1
1
1
1
1
1
1
1
1
1
1
1
1
1.00002
1.01646
1.49808
2.23213
2.35263
2.35328
2.35485
2.35572
2.35641
2.35685
2.35671
2.35611
2.35492
2.35304
2.35048
2.34721
2.34325
2.33865
2.3335
2.32787
2.32178
2.31529
2.30836
2.30106
2.29394
2.28688
2.27969
2.27251
2.26479
2.25626
2.24751
2.23798
1
1
1
1
1
1
1
1
1
1
1
1
1
1
1
1
1
1
1
1
1
1
1
1
1
1
1
1
1
1
1
1
1
1
1
1
1
1
1
1
1
1
1
1
1
1
1
1
1
1
1
1
1
1
1
1
1
1
1
1
1
1
1
1
1
1.00005
1.02405
1.56916
2.24825
2.33995
2.33798
2.33707
2.33707
2.33694
2.33697
2.33686
2.33644
2.33553
2.33396
2.33164
2.32857
2.32478
2.32035
2.31535
2.30979
2.30377
2.29738
2.29073
2.2841
2.27742
2.27053
2.26357
2.25626
2.24817
2.23985
2.23111
1
1
1
1
1
1
1
1
1
1
1
1
1
1
1
1
1
1
1
1
1
1
1
1
1
1
1
1
1
1
1
1
1
1
1
1
1
1
1
1
1
1
1
1
1
1
1
1
1
1
1
1
1
1
1
1
1
1
1
1
1
1
1
1
1
1
1.00008
1.03504
1.59748
2.24652
2.32808
2.32597
2.32392
2.32233
2.32097
2.31979
2.31865
2.31732
2.31574
2.31394
2.31178
2.3091
2.30582
2.30188
2.29725
2.29203
2.28639
2.28043
2.27432
2.26805
2.26144
2.25462
2.24748
2.2397
2.23177
2.2235
1
1
1
1
1
1
1
1
1
1
1
1
1
1
1
1
1
1
1
1
1
1
1
1
1
1
1
1
1
1
1
1
1
1
1
1
1
1
1
1
1
1
1
1
1
1
1
1
1
1
1
1
1
1
1
1
1
1
1
1
1
1
1
1
1
1
1
1.00015
1.0408
1.59251
2.23428
2.31781
2.3154
2.31267
2.30991
2.30709
2.30434
2.30155
2.29891
2.29651
2.29424
2.29191
2.28931
2.28626
2.28265
2.27848
2.27381
2.26877
2.26343
2.25769
2.2516
2.24519
2.23834
2.23108
2.22344
2.21568
1
1
1
1
1
1
1
1
1
1
1
1
1
1
1
1
1
1
1
1
1
1
1
1
1
1
1
1
1
1
1
1
1
1
1
1
1
1
1
1
1
1
1
1
1
1
1
1
1
1
1
1
1
1
1
1
1
1
1
1
1
1
1
1
1
1
1
1
1.00019
1.04034
1.58402
2.21583
2.30604
2.3043
2.30066
2.29701
2.29316
2.28947
2.28596
2.28259
2.2793
2.27621
2.27323
2.27019
2.26697
2.26342
2.2595
2.2553
2.25076
2.24585
2.24047
2.2346
2.22855
2.22184
2.21479
2.2078
1
1
1
1
1
1
1
1
1
1
1
1
1
1
1
1
1
1
1
1
1
1
1
1
1
1
1
1
1
1
1
1
1
1
1
1
1
1
1
1
1
1
1
1
1
1
1
1
1
1
1
1
1
1
1
1
1
1
1
1
1
1
1
1
1
1
1
1
1
1.00019
1.03886
1.55851
2.18813
2.29328
2.29231
2.2883
2.28457
2.28047
2.27644
2.27244
2.2684
2.26432
2.26033
2.25634
2.25231
2.24838
2.24455
2.24061
2.23649
2.23227
2.22759
2.22263
2.21734
2.21152
2.20548
2.1988
1
1
1
1
1
1
1
1
1
1
1
1
1
1
1
1
1
1
1
1
1
1
1
1
1
1
1
1
1
1
1
1
1
1
1
1
1
1
1
1
1
1
1
1
1
1
1
1
1
1
1
1
1
1
1
1
1
1
1
1
1
1
1
1
1
1
1
1
1
1
1.00018
1.03436
1.51724
2.15007
2.27526
2.28015
2.27618
2.27253
2.2686
2.26451
2.2602
2.2556
2.25087
2.24601
2.241
2.23607
2.23138
2.22695
2.22265
2.21843
2.2143
2.20995
2.20513
2.20009
2.19465
2.18886
1
1
1
1
1
1
1
1
1
1
1
1
1
1
1
1
1
1
1
1
1
1
1
1
1
1
1
1
1
1
1
1
1
1
1
1
1
1
1
1
1
1
1
1
1
1
1
1
1
1
1
1
1
1
1
1
1
1
1
1
1
1
1
1
1
1
1
1
1
1
1
1.00015
1.0279
1.46168
2.09614
2.25672
2.26736
2.2637
2.26039
2.25638
2.25221
2.24785
2.24306
2.23786
2.23247
2.22697
2.22155
2.21649
2.2117
2.20696
2.20235
2.19775
2.19319
2.18846
2.1836
2.17869
1
1
1
1
1
1
1
1
1
1
1
1
1
1
1
1
1
1
1
1
1
1
1
1
1
1
1
1
1
1
1
1
1
1
1
1
1
1
1
1
1
1
1
1
1
1
1
1
1
1
1
1
1
1
1
1
1
1
1
1
1
1
1
1
1
1
1
1
1
1
1
1
1.00011
1.02051
1.38983
2.01947
2.22681
2.25719
2.25099
2.24718
2.24317
2.23898
2.23455
2.23007
2.22551
2.22058
2.2152
2.20962
2.20412
2.19866
2.19345
2.1884
2.18341
2.17845
2.1733
2.16828
1
1
1
1
1
1
1
1
1
1
1
1
1
1
1
1
1
1
1
1
1
1
1
1
1
1
1
1
1
1
1
1
1
1
1
1
1
1
1
1
1
1
1
1
1
1
1
1
1
1
1
1
1
1
1
1
1
1
1
1
1
1
1
1
1
1
1
1
1
1
1
1
1
1.00007
1.01355
1.30643
1.90999
2.19596
2.23998
2.23505
2.23292
2.23023
2.22694
2.22311
2.21897
2.21456
2.2098
2.20473
2.19943
2.1939
2.18823
2.18238
2.17667
2.17091
2.16529
2.15995
1
1
1
1
1
1
1
1
1
1
1
1
1
1
1
1
1
1
1
1
1
1
1
1
1
1
1
1
1
1
1
1
1
1
1
1
1
1
1
1
1
1
1
1
1
1
1
1
1
1
1
1
1
1
1
1
1
1
1
1
1
1
1
1
1
1
1
1
1
1
1
1
1
1
1.00004
1.00786
1.21313
1.78592
2.15187
2.21879
2.21774
2.21721
2.21538
2.21331
2.21058
2.20723
2.20334
2.19879
2.19382
2.18861
2.18319
2.17761
2.17188
2.16591
2.15985
2.15377
1
1
1
1
1
1
1
1
1
1
1
1
1
1
1
1
1
1
1
1
1
1
1
1
1
1
1
1
1
1
1
1
1
1
1
1
1
1
1
1
1
1
1
1
1
1
1
1
1
1
1
1
1
1
1
1
1
1
1
1
1
1
1
1
1
1
1
1
1
1
1
1
1
1
1
1.00002
1.00381
1.13156
1.65149
2.10059
2.18993
2.2011
2.19809
2.19797
2.19713
2.19552
2.19314
2.19011
2.18638
2.18217
2.17744
2.17238
2.16682
2.16127
2.15503
2.14915
1
1
1
1
1
1
1
1
1
1
1
1
1
1
1
1
1
1
1
1
1
1
1
1
1
1
1
1
1
1
1
1
1
1
1
1
1
1
1
1
1
1
1
1
1
1
1
1
1
1
1
1
1
1
1
1
1
1
1
1
1
1
1
1
1
1
1
1
1
1
1
1
1
1
1
1
1.00001
1.00159
1.07141
1.52053
2.02407
2.15863
2.18937
2.18109
2.18108
2.18062
2.17958
2.17776
2.17538
2.17245
2.16908
2.165
2.16042
2.15502
2.14955
2.14329
1
1
1
1
1
1
1
1
1
1
1
1
1
1
1
1
1
1
1
1
1
1
1
1
1
1
1
1
1
1
1
1
1
1
1
1
1
1
1
1
1
1
1
1
1
1
1
1
1
1
1
1
1
1
1
1
1
1
1
1
1
1
1
1
1
1
1
1
1
1
1
1
1
1
1
1
1
1
1.00057
1.03475
1.38664
1.90869
2.13133
2.16954
2.16667
2.16478
2.16344
2.16206
2.16085
2.15884
2.15658
2.15314
2.14997
2.14521
2.14194
2.14019
1
1
1
1
1
1
1
1
1
1
1
1
1
1
1
1
1
1
1
1
1
1
1
1
1
1
1
1
1
1
1
1
1
1
1
1
1
1
1
1
1
1
1
1
1
1
1
1
1
1
1
1
1
1
1
1
1
1
1
1
1
1
1
1
1
1
1
1
1
1
1
1
1
1
1
1
1
1
1
1.00018
1.01507
1.25055
1.75992
2.08932
2.14716
2.15269
2.1487
2.14681
2.14514
2.14313
2.14096
2.13881
2.13804
2.14054
2.14869
2.17002
1
1
1
1
1
1
1
1
1
1
1
1
1
1
1
1
1
1
1
1
1
1
1
1
1
1
1
1
1
1
1
1
1
1
1
1
1
1
1
1
1
1
1
1
1
1
1
1
1
1
1
1
1
1
1
1
1
1
1
1
1
1
1
1
1
1
1
1
1
1
1
1
1
1
1
1
1
1
1
1
1.00005
1.00564
1.1339
1.59546
2.02096
2.11689
2.14016
2.13534
2.13182
2.12666
2.12869
2.13478
2.15294
2.18802
2.23677
2.2947
1
1
1
1
1
1
1
1
1
1
1
1
1
1
1
1
1
1
1
1
1
1
1
1
1
1
1
1
1
1
1
1
1
1
1
1
1
1
1
1
1
1
1
1
1
1
1
1
1
1
1
1
1
1
1
1
1
1
1
1
1
1
1
1
1
1
1
1
1
1
1
1
1
1
1
1
1
1
1
1
1
1.00001
1.00175
1.05845
1.4365
1.89655
2.09035
2.12446
2.12278
2.13612
2.16307
2.20769
2.26507
2.31819
2.35233
2.37424
1
1
1
1
1
1
1
1
1
1
1
1
1
1
1
1
1
1
1
1
1
1
1
1
1
1
1
1
1
1
1
1
1
1
1
1
1
1
1
1
1
1
1
1
1
1
1
1
1
1
1
1
1
1
1
1
1
1
1
1
1
1
1
1
1
1
1
1
1
1
1
1
1
1
1
1
1
1
1
1
1
1
1
1.00044
1.02222
1.27017
1.75476
2.00958
2.16004
2.24519
2.29785
2.33923
2.36569
2.3782
2.37594
2.37119
1
1
1
1
1
1
1
1
1
1
1
1
1
1
1
1
1
1
1
1
1
1
1
1
1
1
1
1
1
1
1
1
1
1
1
1
1
1
1
1
1
1
1
1
1
1
1
1
1
1
1
1
1
1
1
1
1
1
1
1
1
1
1
1
1
1
1
1
1
1
1
1
1
1
1
1
1
1
1
1
1
1
1
1
1.00009
1.0071
1.13901
1.63644
2.39041
2.4534
2.44159
2.43028
2.4181
2.40714
2.39525
2.38175
1
1
1
1
1
1
1
1
1
1
1
1
1
1
1
1
1
1
1
1
1
1
1
1
1
1
1
1
1
1
1
1
1
1
1
1
1
1
1
1
1
1
1
1
1
1
1
1
1
1
1
1
1
1
1
1
1
1
1
1
1
1
1
1
1
1
1
1
1
1
1
1
1
1
1
1
1
1
1
1
1
1
1
1
1
1.00001
1.00207
1.66016
2.68018
2.64716
2.58734
2.53807
2.49655
2.46315
2.43618
2.41324
1
1
1
1
1
1
1
1
1
1
1
1
1
1
1
1
1
1
1
1
1
1
1
1
1
1
1
1
1
1
1
1
1
1
1
1
1
1
1
1
1
1
1
1
1
1
1
1
1
1
1
1
1
1
1
1
1
1
1
1
1
1
1
1
1
1
1
1
1
1
1
1
1
1
1
1
1
1
1
1
1
1
1
1
1
1
1
1.60667
2.66097
2.69096
2.66752
2.63938
2.60559
2.5745
2.54372
2.5151
1
1
1
1
1
1
1
1
1
1
1
1
1
1
1
1
1
1
1
1
1
1
1
1
1
1
1
1
1
1
1
1
1
1
1
1
1
1
1
1
1
1
1
1
1
1
1
1
1
1
1
1
1
1
1
1
1
1
1
1
1
1
1
1
1
1
1
1
1
1
1
1
1
1
1
1
1
1
1
1
1
1
1
1
1
1
1
1.33566
2.50902
2.70378
2.69696
2.68952
2.67582
2.66104
2.64131
2.61973
1
1
1
1
1
1
1
1
1
1
1
1
1
1
1
1
1
1
1
1
1
1
1
1
1
1
1
1
1
1
1
1
1
1
1
1
1
1
1
1
1
1
1
1
1
1
1
1
1
1
1
1
1
1
1
1
1
1
1
1
1
1
1
1
1
1
1
1
1
1
1
1
1
1
1
1
1
1
1
1
1
1
1
1
1
1
1
1.01434
2.30668
2.7036
2.70222
2.70017
2.6974
2.69223
2.68394
2.67382
1
1
1
1
1
1
1
1
1
1
1
1
1
1
1
1
1
1
1
1
1
1
1
1
1
1
1
1
1
1
1
1
1
1
1
1
1
1
1
1
1
1
1
1
1
1
1
1
1
1
1
1
1
1
1
1
1
1
1
1
1
1
1
1
1
1
1
1
1
1
1
1
1
1
1
1
1
1
1
1
1
1
1
1
1
1
1
1.00002
2.10738
2.67518
2.6976
2.69686
2.69559
2.69221
2.68812
2.68389
1
1
1
1
1
1
1
1
1
1
1
1
1
1
1
1
1
1
1
1
1
1
1
1
1
1
1
1
1
1
1
1
1
1
1
1
1
1
1
1
1
1
1
1
1
1
1
1
1
1
1
1
1
1
1
1
1
1
1
1
1
1
1
1
1
1
1
1
1
1
1
1
1
1
1
1
1
1
1
1
1
1
1
1
1
1
1
1
1.87027
2.63495
2.69529
2.69253
2.69069
2.68836
2.68564
2.68234
1
1
1
1
1
1
1
1
1
1
1
1
1
1
1
1
1
1
1
1
1
1
1
1
1
1
1
1
1
1
1
1
1
1
1
1
1
1
1
1
1
1
1
1
1
1
1
1
1
1
1
1
1
1
1
1
1
1
1
1
1
1
1
1
1
1
1
1
1
1
1
1
1
1
1
1
1
1
1
1
1
1
1
1
1
1
1
1
1.60069
2.57669
2.69173
2.68707
2.68522
2.68326
2.68111
2.67862
1
1
1
1
1
1
1
1
1
1
1
1
1
1
1
1
1
1
1
1
1
1
1
1
1
1
1
1
1
1
1
1
1
1
1
1
1
1
1
1
1
1
1
1
1
1
1
1
1
1
1
1
1
1
1
1
1
1
1
1
1
1
1
1
1
1
1
1
1
1
1
1
1
1
1
1
1
1
1
1
1
1
1
1
1
1
1
1
1.31313
2.47457
2.69236
2.68692
2.68451
2.68208
2.6794
2.67657
1
1
1
1
1
1
1
1
1
1
1
1
1
1
1
1
1
1
1
1
1
1
1
1
1
1
1
1
1
1
1
1
1
1
1
1
1
1
1
1
1
1
1
1
1
1
1
1
1
1
1
1
1
1
1
1
1
1
1
1
1
1
1
1
1
1
1
1
1
1
1
1
1
1
1
1
1
1
1
1
1
1
1
1
1
1
1
1
1.07877
2.35593
2.69464
2.69216
2.68812
2.68521
2.68187
2.67848
1
1
1
1
1
1
1
1
1
1
1
1
1
1
1
1
1
1
1
1
1
1
1
1
1
1
1
1
1
1
1
1
1
1
1
1
1
1
1
1
1
1
1
1
1
1
1
1
1
1
1
1
1
1
1
1
1
1
1
1
1
1
1
1
1
1
1
1
1
1
1
1
1
1
1
1
1
1
1
1
1
1
1
1
1
1
1
1
1.00078
2.21363
2.69271
2.69691
2.6918
2.68848
2.68473
2.68102
1
1
1
1
1
1
1
1
1
1
1
1
1
1
1
1
1
1
1
1
1
1
1
1
1
1
1
1
1
1
1
1
1
1
1
1
1
1
1
1
1
1
1
1
1
1
1
1
1
1
1
1
1
1
1
1
1
1
1
1
1
1
1
1
1
1
1
1
1
1
1
1
1
1
1
1
1
1
1
1
1
1
1
1
1
1
1
1
1
2.05322
2.67829
2.70148
2.69655
2.69346
2.68966
2.6857
1
1
1
1
1
1
1
1
1
1
1
1
1
1
1
1
1
1
1
1
1
1
1
1
1
1
1
1
1
1
1
1
1
1
1
1
1
1
1
1
1
1
1
1
1
1
1
1
1
1
1
1
1
1
1
1
1
1
1
1
1
1
1
1
1
1
1
1
1
1
1
1
1
1
1
1
1
1
1
1
1
1
1
1
1
1
1
1
1
1.88498
2.65103
2.70435
2.6987
2.69554
2.69187
2.68796
1
1
1
1
1
1
1
1
1
1
1
1
1
1
1
1
1
1
1
1
1
1
1
1
1
1
1
1
1
1
1
1
1
1
1
1
1
1
1
1
1
1
1
1
1
1
1
1
1
1
1
1
1
1
1
1
1
1
1
1
1
1
1
1
1
1
1
1
1
1
1
1
1
1
1
1
1
1
1
1
1
1
1
1
1
1
1
1
1
1.70507
2.61596
2.70392
2.69841
2.69551
2.69212
2.68849
1
1
1
1
1
1
1
1
1
1
1
1
1
1
1
1
1
1
1
1
1
1
1
1
1
1
1
1
1
1
1
1
1
1
1
1
1
1
1
1
1
1
1
1
1
1
1
1
1
1
1
1
1
1
1
1
1
1
1
1
1
1
1
1
1
1
1
1
1
1
1
1
1
1
1
1
1
1
1
1
1
1
1
1
1
1
1
1
1
1.53155
2.56799
2.70139
2.69689
2.69447
2.69146
2.68818
1
1
1
1
1
1
1
1
1
1
1
1
1
1
1
1
1
1
1
1
1
1
1
1
1
1
1
1
1
1
1
1
1
1
1
1
1
1
1
1
1
1
1
1
1
1
1
1
1
1
1
1
1
1
1
1
1
1
1
1
1
1
1
1
1
1
1
1
1
1
1
1
1
1
1
1
1
1
1
1
1
1
1
1
1
1
1
1
1
1.38309
2.51375
2.69767
2.69401
2.6913
2.68822
2.68541
1
1
1
1
1
1
1
1
1
1
1
1
1
1
1
1
1
1
1
1
1
1
1
1
1
1
1
1
1
1
1
1
1
1
1
1
1
1
1
1
1
1
1
1
1
1
1
1
1
1
1
1
1
1
1
1
1
1
1
1
1
1
1
1
1
1
1
1
1
1
1
1
1
1
1
1
1
1
1
1
1
1
1
1
1
1
1
1
1
1.25957
2.45433
2.69326
2.69021
2.68701
2.68465
2.68269
1
1
1
1
1
1
1
1
1
1
1
1
1
1
1
1
1
1
1
1
1
1
1
1
1
1
1
1
1
1
1
1
1
1
1
1
1
1
1
1
1
1
1
1
1
1
1
1
1
1
1
1
1
1
1
1
1
1
1
1
1
1
1
1
1
1
1
1
1
1
1
1
1
1
1
1
1
1
1
1
1
1
1
1
1
1
1
1
1
1.14439
2.38618
2.68872
2.68746
2.68433
2.68366
2.68302
1
1
1
1
1
1
1
1
1
1
1
1
1
1
1
1
1
1
1
1
1
1
1
1
1
1
1
1
1
1
1
1
1
1
1
1
1
1
1
1
1
1
1
1
1
1
1
1
1
1
1
1
1
1
1
1
1
1
1
1
1
1
1
1
1
1
1
1
1
1
1
1
1
1
1
1
1
1
1
1
1
1
1
1
1
1
1
1
1
1.01459
2.31123
2.68406
2.69104
2.68763
2.6869
2.68614
1
1
1
1
1
1
1
1
1
1
1
1
1
1
1
1
1
1
1
1
1
1
1
1
1
1
1
1
1
1
1
1
1
1
1
1
1
1
1
1
1
1
1
1
1
1
1
1
1
1
1
1
1
1
1
1
1
1
1
1
1
1
1
1
1
1
1
1
1
1
1
1
1
1
1
1
1
1
1
1
1
1
1
1
1
1
1
1
1
1.00003
2.23853
2.68132
2.69731
2.69274
2.69134
2.68976
1
1
1
1
1
1
1
1
1
1
1
1
1
1
1
1
1
1
1
1
1
1
1
1
1
1
1
1
1
1
1
1
1
1
1
1
1
1
1
1
1
1
1
1
1
1
1
1
1
1
1
1
1
1
1
1
1
1
1
1
1
1
1
1
1
1
1
1
1
1
1
1
1
1
1
1
1
1
1
1
1
1
1
1
1
1
1
1
1
1
2.1771
2.68322
2.7023
2.69741
2.69525
2.69283
1
1
1
1
1
1
1
1
1
1
1
1
1
1
1
1
1
1
1
1
1
1
1
1
1
1
1
1
1
1
1
1
1
1
1
1
1
1
1
1
1
1
1
1
1
1
1
1
1
1
1
1
1
1
1
1
1
1
1
1
1
1
1
1
1
1
1
1
1
1
1
1
1
1
1
1
1
1
1
1
1
1
1
1
1
1
1
1
1
1
2.12954
2.6848
2.70554
2.70037
2.6977
2.69473
1
1
1
1
1
1
1
1
1
1
1
1
1
1
1
1
1
1
1
1
1
1
1
1
1
1
1
1
1
1
1
1
1
1
1
1
1
1
1
1
1
1
1
1
1
1
1
1
1
1
1
1
1
1
1
1
1
1
1
1
1
1
1
1
1
1
1
1
1
1
1
1
1
1
1
1
1
1
1
1
1
1
1
1
1
1
1
1
1
1
2.09723
2.68476
2.70711
2.70188
2.69905
2.69589
1
1
1
1
1
1
1
1
1
1
1
1
1
1
1
1
1
1
1
1
1
1
1
1
1
1
1
1
1
1
1
1
1
1
1
1
1
1
1
1
1
1
1
1
1
1
1
1
1
1
1
1
1
1
1
1
1
1
1
1
1
1
1
1
1
1
1
1
1
1
1
1
1
1
1
1
1
1
1
1
1
1
1
1
1
1
1
1
1
1
2.08326
2.68338
2.70693
2.70214
2.69965
2.69656
1.50481
0.829082
0.552024
0.791052
0.887246
0.961631
1.04787
1.1385
1.19228
1.20821
1.23558
1.27221
1.30898
1.3632
1.43452
1.50719
1.55289
1.5825
1.58087
1.5695
1.56598
1.5846
1.60876
1.60996
1.60548
1.59887
1.59928
1.6095
1.63592
1.65323
1.65366
1.64992
1.64137
1.63595
1.6387
1.64651
1.64739
1.64557
1.64509
1.64486
1.64303
1.64329
1.64455
1.64494
1.64428
1.64203
1.63846
1.64213
1.66499
1.77297
2.45488
2.6662
2.66117
2.65255
2.64969
2.64698
2.64297
2.63743
2.63085
2.62519
2.62275
2.62319
2.62455
2.62387
2.61941
2.61183
2.60282
2.59361
2.58519
2.57835
2.57097
2.56125
2.55195
2.54437
2.53874
2.5351
2.53268
2.52928
2.52359
2.51625
2.50823
2.50031
2.49316
2.48713
2.48087
2.47305
2.46565
2.45922
2.45424
2.45077
2.44899
2.44681
2.4422
2.43613
2.42858
2.41986
2.41171
2.40434
2.39826