/*--------------------------------*- C++ -*----------------------------------*\
  =========                 |
  \\      /  F ield         | OpenFOAM: The Open Source CFD Toolbox
   \\    /   O peration     | Website:  https://openfoam.org
    \\  /    A nd           | Version:  7
     \\/     M anipulation  |
\*---------------------------------------------------------------------------*/
FoamFile
{
    version     2.0;
    format      ascii;
    class       volVectorField;
    location    "5.1";
    object      U;
}
// * * * * * * * * * * * * * * * * * * * * * * * * * * * * * * * * * * * * * //

dimensions      [0 1 -1 0 0 0 0];

internalField   nonuniform List<vector> 
19968
(
(3 9.65425e-18 0)
(3 1.49381e-16 0)
(3 4.52789e-16 0)
(3 4.66881e-16 0)
(3 2.44548e-16 0)
(3 3.54649e-16 0)
(3 5.8948e-16 0)
(3 7.05554e-16 0)
(3 9.98974e-16 0)
(3 1.22121e-15 0)
(3 1.7768e-15 0)
(3 1.81145e-15 0)
(3 1.13495e-15 0)
(3 2.92616e-16 0)
(3 2.62864e-17 0)
(3 1.17428e-16 0)
(3 -1.67193e-17 0)
(3 -1.69412e-16 0)
(3 -5.29992e-16 0)
(3 -1.08695e-15 0)
(3 -3.41137e-16 0)
(3 2.11302e-16 0)
(3 3.08326e-16 0)
(3 2.00347e-16 0)
(3 3.55946e-16 0)
(3 7.03892e-16 0)
(3 6.64053e-16 0)
(3 2.59756e-16 0)
(3 -3.11194e-16 0)
(3 -1.79684e-16 0)
(3 -2.72614e-16 0)
(3 -1.24002e-15 0)
(3 -1.8499e-15 0)
(3 -2.18303e-15 0)
(3 -1.65524e-15 0)
(3 -7.36488e-16 0)
(3 -1.97789e-16 0)
(3 3.81538e-16 0)
(3 3.92508e-16 0)
(3 -3.81013e-17 0)
(3 -1.10287e-16 0)
(3 -6.80799e-17 0)
(3 -9.11784e-17 0)
(3 3.18856e-16 0)
(3 -7.80358e-16 0)
(3 -1.7233e-15 0)
(3 -1.17396e-15 0)
(3 -8.30002e-16 0)
(2.82813 0.00156618 0)
(0.979333 0.0041801 0)
(0.761305 0.00956918 0)
(0.74205 0.00912693 0)
(0.72542 0.00802344 0)
(0.711587 0.0075183 0)
(0.698414 0.00773315 0)
(0.684573 0.00843886 0)
(0.669316 0.00911446 0)
(0.653116 0.00929842 0)
(0.63695 0.00910053 0)
(0.62142 0.00884283 0)
(0.606482 0.00880381 0)
(0.591581 0.00908438 0)
(0.57628 0.00935437 0)
(0.560751 0.00929275 0)
(0.545353 0.00918086 0)
(0.530023 0.00939516 0)
(0.51456 0.00977396 0)
(0.499099 0.00995202 0)
(0.483895 0.00992211 0)
(0.468852 0.00993886 0)
(0.453632 0.0100787 0)
(0.438031 0.0102466 0)
(0.422081 0.0103746 0)
(0.405923 0.010472 0)
(0.389658 0.0105701 0)
(0.373297 0.0106649 0)
(0.356822 0.0107437 0)
(0.340241 0.0108252 0)
(0.323614 0.0109235 0)
(0.307022 0.0110332 0)
(0.290488 0.0111589 0)
(0.273924 0.011308 0)
(0.257186 0.011475 0)
(0.240147 0.0116498 0)
(0.222752 0.0118251 0)
(0.205036 0.0119995 0)
(0.187092 0.0121804 0)
(0.169007 0.0123792 0)
(0.150793 0.0126108 0)
(0.132369 0.0128893 0)
(0.113581 0.0132212 0)
(0.0942709 0.0135849 0)
(0.0743288 0.0139715 0)
(0.0536651 0.0143476 0)
(0.0324608 0.0145132 0)
(0.0109538 0.0146821 0)
(3 -2.42037e-16 0)
(3 -3.56437e-16 0)
(3 2.80807e-16 0)
(3 4.06768e-16 0)
(3 1.53178e-16 0)
(3 1.10235e-15 0)
(3 1.22347e-15 0)
(3 9.73542e-16 0)
(3 1.10305e-15 0)
(3 1.30953e-15 0)
(3 1.65259e-15 0)
(3 2.02099e-15 0)
(3 8.28663e-16 0)
(3 7.73751e-17 0)
(3 5.97109e-16 0)
(3 1.24155e-15 0)
(3 1.1749e-15 0)
(3 8.24022e-16 0)
(3 -4.95877e-17 0)
(3 -1.05875e-15 0)
(3 -9.27895e-16 0)
(3 8.32388e-17 0)
(3 2.18184e-16 0)
(3 -1.22787e-16 0)
(3 -4.69529e-16 0)
(3 -1.12942e-16 0)
(3 -6.71431e-18 0)
(3 -2.46216e-16 0)
(3 -8.07623e-16 0)
(3 -1.08138e-15 0)
(3 -9.31929e-16 0)
(3 -2.43098e-15 0)
(3 -3.39999e-15 0)
(3 -2.80154e-15 0)
(3 -1.78103e-15 0)
(3 -1.11817e-15 0)
(3 -7.29136e-16 0)
(3 -5.68431e-16 0)
(3 -5.28345e-16 0)
(3 -7.63263e-16 0)
(3 -3.63566e-16 0)
(3 -1.64337e-16 0)
(3 -3.93096e-16 0)
(3 -4.27624e-16 0)
(3 -6.118e-16 0)
(3 -1.65718e-15 0)
(3 -1.46732e-15 0)
(3 -1.41371e-15 0)
(2.83939 0.00990775 0)
(0.982464 0.0238613 0)
(0.756925 0.0319107 0)
(0.73801 0.0280246 0)
(0.721522 0.0245452 0)
(0.707543 0.0225562 0)
(0.694277 0.0230015 0)
(0.680591 0.0251066 0)
(0.665577 0.0271812 0)
(0.649618 0.0279102 0)
(0.633591 0.0275555 0)
(0.618038 0.026907 0)
(0.602997 0.0267468 0)
(0.58808 0.0274878 0)
(0.572845 0.0282864 0)
(0.557349 0.0281995 0)
(0.541871 0.0279227 0)
(0.526407 0.0285033 0)
(0.510868 0.029554 0)
(0.495377 0.0300617 0)
(0.480153 0.0300454 0)
(0.465043 0.0301994 0)
(0.449717 0.0306696 0)
(0.434012 0.0311571 0)
(0.417985 0.0315132 0)
(0.401766 0.0318116 0)
(0.385435 0.032135 0)
(0.369001 0.0324388 0)
(0.352468 0.032674 0)
(0.335865 0.0329086 0)
(0.319249 0.0331943 0)
(0.302691 0.0335079 0)
(0.286205 0.0338533 0)
(0.269704 0.0342553 0)
(0.253044 0.0347148 0)
(0.236095 0.0352252 0)
(0.218794 0.0357841 0)
(0.201176 0.0363859 0)
(0.183347 0.0370336 0)
(0.165418 0.0377303 0)
(0.147433 0.0384939 0)
(0.129331 0.0393551 0)
(0.110955 0.0403435 0)
(0.0921175 0.0414231 0)
(0.0726773 0.0425861 0)
(0.0525242 0.0437401 0)
(0.0318027 0.0442901 0)
(0.0107529 0.0448756 0)
(3 9.0452e-17 0)
(3 -1.77689e-16 0)
(3 -4.24646e-17 0)
(3 5.10786e-16 0)
(3 5.37457e-16 0)
(3 5.3576e-16 0)
(3 3.48706e-17 0)
(3 -8.80936e-17 0)
(3 -1.743e-16 0)
(3 -4.46593e-16 0)
(3 -4.11124e-16 0)
(3 -1.72281e-16 0)
(3 -3.93394e-18 0)
(3 2.67026e-16 0)
(3 1.66957e-15 0)
(3 2.71083e-15 0)
(3 2.53211e-15 0)
(3 2.36365e-15 0)
(3 1.09786e-15 0)
(3 1.21904e-16 0)
(3 -5.41747e-16 0)
(3 -9.65615e-16 0)
(3 -1.09614e-15 0)
(3 -1.58379e-16 0)
(3 2.01176e-16 0)
(3 -1.24406e-16 0)
(3 -5.8304e-17 0)
(3 -2.88041e-17 0)
(3 7.14349e-17 0)
(3 -1.61789e-16 0)
(3 -9.89417e-16 0)
(3 -1.61146e-15 0)
(3 -1.72083e-15 0)
(3 -4.82207e-16 0)
(3 -7.40784e-16 0)
(3 -1.13904e-15 0)
(3 -7.30497e-16 0)
(3 -4.37495e-16 0)
(3 -2.21935e-16 0)
(3 -4.64033e-16 0)
(3 -1.17706e-15 0)
(3 -1.47078e-15 0)
(3 -1.39368e-15 0)
(3 -1.19315e-15 0)
(3 -8.97079e-16 0)
(3 -1.58915e-15 0)
(3 -9.69809e-16 0)
(3 7.01897e-16 0)
(2.86885 0.0171743 0)
(0.998015 0.0460591 0)
(0.759563 0.0528297 0)
(0.742215 0.0465775 0)
(0.725657 0.0424985 0)
(0.710919 0.039743 0)
(0.696636 0.0403337 0)
(0.682392 0.0435016 0)
(0.667154 0.046664 0)
(0.651133 0.0478087 0)
(0.635052 0.0473493 0)
(0.619326 0.0464091 0)
(0.604028 0.046133 0)
(0.58895 0.0472611 0)
(0.573654 0.0485856 0)
(0.558056 0.0486112 0)
(0.542357 0.0482924 0)
(0.526615 0.0491974 0)
(0.510858 0.0507621 0)
(0.495196 0.0514742 0)
(0.479822 0.0514573 0)
(0.46453 0.0518191 0)
(0.448993 0.0526857 0)
(0.433057 0.0534952 0)
(0.416796 0.054036 0)
(0.400334 0.0544975 0)
(0.38374 0.0550365 0)
(0.367038 0.0555618 0)
(0.350259 0.0559761 0)
(0.333456 0.0563908 0)
(0.316681 0.0568915 0)
(0.299984 0.0574257 0)
(0.283372 0.0579832 0)
(0.266772 0.058601 0)
(0.250049 0.0592864 0)
(0.233077 0.0600386 0)
(0.215782 0.0608668 0)
(0.198184 0.0617752 0)
(0.180388 0.0627769 0)
(0.16253 0.0638785 0)
(0.144692 0.0651036 0)
(0.126842 0.0664904 0)
(0.108823 0.0680816 0)
(0.0904075 0.0698323 0)
(0.0714055 0.0717426 0)
(0.0516804 0.0736798 0)
(0.031324 0.0746601 0)
(0.0106192 0.0757498 0)
(3 1.93126e-16 0)
(3 1.40825e-16 0)
(3 -2.33081e-16 0)
(3 -4.74452e-16 0)
(3 -4.54287e-16 0)
(3 -7.71001e-16 0)
(3 -1.35571e-15 0)
(3 -1.21358e-15 0)
(3 -7.72065e-16 0)
(3 -5.51373e-16 0)
(3 -2.28363e-16 0)
(3 -1.54673e-16 0)
(3 6.96429e-16 0)
(3 1.7161e-15 0)
(3 2.33758e-15 0)
(3 2.34126e-15 0)
(3 1.80164e-15 0)
(3 1.7839e-15 0)
(3 1.78755e-15 0)
(3 9.05625e-16 0)
(3 1.70245e-17 0)
(3 -3.8909e-16 0)
(3 -5.77156e-16 0)
(3 2.71831e-16 0)
(3 1.03713e-15 0)
(3 9.53479e-16 0)
(3 2.31357e-16 0)
(3 2.40452e-17 0)
(3 1.36571e-16 0)
(3 3.37877e-16 0)
(3 6.87485e-16 0)
(3 8.74733e-16 0)
(3 6.04084e-16 0)
(3 7.5841e-16 0)
(3 1.2099e-15 0)
(3 1.00469e-15 0)
(3 1.12519e-15 0)
(3 1.15547e-15 0)
(3 1.51617e-15 0)
(3 1.07623e-15 0)
(3 6.47178e-16 0)
(3 4.50721e-16 0)
(3 3.17206e-16 0)
(3 4.30722e-16 0)
(3 8.58274e-16 0)
(3 1.11115e-15 0)
(3 1.85647e-15 0)
(3 2.54269e-15 0)
(2.90899 0.0217248 0)
(1.02144 0.0684452 0)
(0.760795 0.0718523 0)
(0.744142 0.0650527 0)
(0.728535 0.0613344 0)
(0.713999 0.0586116 0)
(0.699378 0.0593316 0)
(0.685 0.0631488 0)
(0.669933 0.0669575 0)
(0.654215 0.0683317 0)
(0.638415 0.0678838 0)
(0.622835 0.0668008 0)
(0.607583 0.0663986 0)
(0.592615 0.067802 0)
(0.57749 0.0696547 0)
(0.561934 0.0699977 0)
(0.546093 0.0698412 0)
(0.530105 0.0710978 0)
(0.514133 0.0730806 0)
(0.498287 0.0739346 0)
(0.48274 0.0739551 0)
(0.467244 0.0746333 0)
(0.451477 0.0760097 0)
(0.435259 0.0772044 0)
(0.418682 0.077957 0)
(0.401863 0.0786205 0)
(0.384871 0.0794393 0)
(0.367747 0.08026 0)
(0.350554 0.0809182 0)
(0.333364 0.0815616 0)
(0.316217 0.0823141 0)
(0.299138 0.0830897 0)
(0.282128 0.0838483 0)
(0.265128 0.08463 0)
(0.248028 0.0854493 0)
(0.23071 0.0863165 0)
(0.21311 0.0872634 0)
(0.19526 0.0883209 0)
(0.177296 0.0895365 0)
(0.159395 0.0909396 0)
(0.141684 0.0925658 0)
(0.124145 0.0944514 0)
(0.106591 0.0966397 0)
(0.08872 0.0990834 0)
(0.0702524 0.101787 0)
(0.0510084 0.104595 0)
(0.030978 0.106127 0)
(0.0105654 0.107874 0)
(3 -6.84503e-17 0)
(3 2.38552e-17 0)
(3 -3.31108e-16 0)
(3 -4.03473e-16 0)
(3 -1.86547e-16 0)
(3 -3.44217e-16 0)
(3 -3.28489e-16 0)
(3 -1.34104e-15 0)
(3 -9.62712e-16 0)
(3 1.71959e-16 0)
(3 4.2234e-16 0)
(3 4.41859e-16 0)
(3 7.70998e-16 0)
(3 1.16275e-15 0)
(3 1.1967e-15 0)
(3 9.00548e-16 0)
(3 5.66275e-16 0)
(3 2.45431e-16 0)
(3 7.35094e-17 0)
(3 -1.11339e-16 0)
(3 -8.77044e-16 0)
(3 -8.50176e-16 0)
(3 -3.30318e-16 0)
(3 -2.5621e-16 0)
(3 -1.64672e-16 0)
(3 -8.02653e-17 0)
(3 -3.53724e-16 0)
(3 -9.61215e-16 0)
(3 -1.34581e-15 0)
(3 -1.458e-15 0)
(3 -7.81807e-16 0)
(3 -1.87999e-16 0)
(3 5.90759e-17 0)
(3 2.57948e-17 0)
(3 6.03462e-16 0)
(3 1.15102e-15 0)
(3 1.48524e-15 0)
(3 1.72756e-15 0)
(3 1.68463e-15 0)
(3 2.22976e-15 0)
(3 3.03644e-15 0)
(3 3.849e-15 0)
(3 3.9747e-15 0)
(3 3.4148e-15 0)
(3 3.35892e-15 0)
(3 3.82606e-15 0)
(3 3.51362e-15 0)
(3 2.40411e-15 0)
(2.9508 0.0187545 0)
(1.04793 0.0981573 0)
(0.761481 0.0912348 0)
(0.747757 0.0825704 0)
(0.73384 0.0800318 0)
(0.719777 0.0784135 0)
(0.705076 0.0797733 0)
(0.690423 0.0838876 0)
(0.675372 0.0879382 0)
(0.659862 0.0894085 0)
(0.644199 0.0892376 0)
(0.628568 0.0882929 0)
(0.613174 0.0877909 0)
(0.598174 0.0893042 0)
(0.583238 0.0916288 0)
(0.567881 0.0924862 0)
(0.552125 0.0927459 0)
(0.536139 0.0944477 0)
(0.520149 0.0967832 0)
(0.504295 0.0977143 0)
(0.488753 0.0977817 0)
(0.473262 0.0988509 0)
(0.45749 0.100854 0)
(0.441182 0.102532 0)
(0.424438 0.103563 0)
(0.407391 0.104514 0)
(0.390114 0.105742 0)
(0.372665 0.107018 0)
(0.35512 0.10808 0)
(0.337556 0.109093 0)
(0.319993 0.110224 0)
(0.302418 0.111352 0)
(0.284816 0.112387 0)
(0.267147 0.113352 0)
(0.249321 0.114261 0)
(0.231235 0.11514 0)
(0.212838 0.116047 0)
(0.194188 0.117041 0)
(0.175471 0.118209 0)
(0.156931 0.119618 0)
(0.138763 0.12134 0)
(0.121006 0.12344 0)
(0.103498 0.125991 0)
(0.0859177 0.128983 0)
(0.067934 0.132417 0)
(0.0493396 0.136149 0)
(0.0299449 0.138353 0)
(0.0102585 0.140894 0)
(3 1.99788e-16 0)
(3 6.02038e-16 0)
(3 1.41233e-15 0)
(3 2.06578e-15 0)
(3 2.26558e-15 0)
(3 1.99054e-15 0)
(3 1.40544e-15 0)
(3 1.19517e-15 0)
(3 1.35891e-15 0)
(3 1.13726e-15 0)
(3 4.33338e-16 0)
(3 2.39093e-16 0)
(3 2.06213e-17 0)
(3 2.29173e-16 0)
(3 -5.08366e-16 0)
(3 -7.18381e-16 0)
(3 -6.70561e-16 0)
(3 -8.05751e-16 0)
(3 -8.93275e-16 0)
(3 -5.04928e-16 0)
(3 -1.24486e-15 0)
(3 -2.38113e-15 0)
(3 -2.31735e-15 0)
(3 -2.0063e-15 0)
(3 -1.7823e-15 0)
(3 -1.68858e-15 0)
(3 -9.04776e-16 0)
(3 -5.90108e-16 0)
(3 -1.1273e-15 0)
(3 -1.54092e-15 0)
(3 -1.66127e-15 0)
(3 -1.45783e-15 0)
(3 -1.08631e-15 0)
(3 -1.34435e-15 0)
(3 -8.14768e-16 0)
(3 -2.50815e-16 0)
(3 -2.26433e-16 0)
(3 2.30814e-16 0)
(3 4.49242e-16 0)
(3 1.92872e-15 0)
(3 2.52788e-15 0)
(3 3.54085e-15 0)
(3 3.42936e-15 0)
(3 3.23517e-15 0)
(3 2.99517e-15 0)
(3 2.9253e-15 0)
(3 2.72229e-15 0)
(3 1.81761e-15 0)
(3.00055 0.00292835 0)
(1.11668 0.119387 0)
(0.773859 0.103838 0)
(0.757051 0.0979748 0)
(0.743126 0.0986179 0)
(0.728724 0.09911 0)
(0.714116 0.101343 0)
(0.699593 0.105467 0)
(0.684818 0.109167 0)
(0.669597 0.110701 0)
(0.654011 0.111166 0)
(0.638224 0.110691 0)
(0.622666 0.109932 0)
(0.607706 0.11099 0)
(0.593221 0.113277 0)
(0.578483 0.114568 0)
(0.563231 0.115455 0)
(0.547607 0.117748 0)
(0.531823 0.120444 0)
(0.516088 0.121373 0)
(0.500661 0.121409 0)
(0.485318 0.122857 0)
(0.469743 0.12559 0)
(0.45354 0.127895 0)
(0.436812 0.129298 0)
(0.419726 0.130626 0)
(0.402375 0.132402 0)
(0.384824 0.134327 0)
(0.367143 0.136002 0)
(0.349409 0.137581 0)
(0.331618 0.139292 0)
(0.313706 0.141002 0)
(0.295627 0.142564 0)
(0.277344 0.143966 0)
(0.258785 0.145208 0)
(0.239864 0.146311 0)
(0.220537 0.147351 0)
(0.200874 0.148409 0)
(0.181083 0.149603 0)
(0.161442 0.151022 0)
(0.142193 0.152749 0)
(0.123435 0.154866 0)
(0.105071 0.157473 0)
(0.0868327 0.16066 0)
(0.0683983 0.164463 0)
(0.0495946 0.16888 0)
(0.0300297 0.171649 0)
(0.0103335 0.174935 0)
(3 1.34454e-16 0)
(3 3.75454e-16 0)
(3 1.30341e-15 0)
(3 1.91731e-15 0)
(3 1.44698e-15 0)
(3 1.43977e-15 0)
(3 1.71091e-15 0)
(3 2.26387e-15 0)
(3 1.9475e-15 0)
(3 5.90744e-16 0)
(3 -6.01969e-16 0)
(3 -3.80607e-16 0)
(3 -6.90394e-16 0)
(3 -8.43869e-16 0)
(3 -1.10412e-15 0)
(3 -6.45504e-16 0)
(3 -3.85612e-16 0)
(3 -2.7012e-16 0)
(3 -7.0329e-16 0)
(3 -6.07901e-16 0)
(3 -5.52303e-16 0)
(3 -1.55726e-15 0)
(3 -2.02442e-15 0)
(3 -2.13897e-15 0)
(3 -1.40675e-15 0)
(3 -1.60198e-15 0)
(3 -2.5431e-15 0)
(3 -2.72751e-15 0)
(3 -2.38181e-15 0)
(3 -1.98541e-15 0)
(3 -1.76681e-15 0)
(3 -1.75055e-15 0)
(3 -1.77315e-15 0)
(3 -2.11097e-15 0)
(3 -2.2985e-15 0)
(3 -2.4321e-15 0)
(3 -2.33995e-15 0)
(3 -1.74942e-15 0)
(3 -9.62367e-16 0)
(3 4.34635e-16 0)
(3 1.57297e-15 0)
(3 1.59246e-15 0)
(3 1.2314e-15 0)
(3 1.16297e-15 0)
(3 1.08015e-15 0)
(3 9.58292e-16 0)
(3 8.45905e-16 0)
(3 8.586e-16 0)
(3.00003 7.59925e-06 0)
(1.23787 0.141217 0)
(0.778297 0.123894 0)
(0.753476 0.120778 0)
(0.737544 0.121585 0)
(0.722036 0.122134 0)
(0.707564 0.124026 0)
(0.693733 0.127605 0)
(0.679894 0.131262 0)
(0.665394 0.13363 0)
(0.650224 0.135242 0)
(0.634564 0.135614 0)
(0.61907 0.134527 0)
(0.604247 0.134557 0)
(0.590232 0.136409 0)
(0.576241 0.138253 0)
(0.561732 0.140198 0)
(0.546798 0.143455 0)
(0.531531 0.146684 0)
(0.516197 0.14764 0)
(0.501151 0.147593 0)
(0.486224 0.149366 0)
(0.471197 0.152879 0)
(0.455503 0.155943 0)
(0.439212 0.157804 0)
(0.422544 0.159558 0)
(0.405618 0.161945 0)
(0.388497 0.164608 0)
(0.37123 0.166988 0)
(0.353888 0.16919 0)
(0.336455 0.17151 0)
(0.318816 0.173833 0)
(0.30087 0.175953 0)
(0.28256 0.177818 0)
(0.263837 0.179414 0)
(0.244655 0.180763 0)
(0.225011 0.181955 0)
(0.204987 0.183086 0)
(0.184782 0.184294 0)
(0.16465 0.18568 0)
(0.144825 0.187329 0)
(0.125428 0.189334 0)
(0.106419 0.191804 0)
(0.0876253 0.194962 0)
(0.0687701 0.198859 0)
(0.0497856 0.203783 0)
(0.0300733 0.207027 0)
(0.0104121 0.210995 0)
(3 -2.87548e-16 0)
(3 -5.50244e-16 0)
(3 -7.04175e-16 0)
(3 -4.82059e-16 0)
(3 -7.72474e-17 0)
(3 3.38512e-16 0)
(3 5.1529e-16 0)
(3 1.19567e-16 0)
(3 -6.28967e-16 0)
(3 -9.01135e-16 0)
(3 -8.27198e-16 0)
(3 -9.34686e-16 0)
(3 -5.30258e-16 0)
(3 -1.08964e-16 0)
(3 -1.35566e-17 0)
(3 -4.31732e-16 0)
(3 -7.3113e-16 0)
(3 -9.31085e-16 0)
(3 -9.87229e-16 0)
(3 -9.784e-16 0)
(3 -6.25665e-16 0)
(3 -3.70991e-17 0)
(3 -1.28646e-15 0)
(3 -2.14347e-15 0)
(3 -2.15213e-15 0)
(3 -2.84869e-15 0)
(3 -3.64583e-15 0)
(3 -2.98898e-15 0)
(3 -2.67105e-15 0)
(3 -2.62437e-15 0)
(3 -2.73595e-15 0)
(3 -2.71356e-15 0)
(3 -2.20761e-15 0)
(3 -2.07597e-15 0)
(3 -1.89104e-15 0)
(3 -1.8779e-15 0)
(3 -1.70792e-15 0)
(3 -1.32828e-15 0)
(3 -4.54874e-16 0)
(3 6.39775e-17 0)
(3 1.08251e-16 0)
(3 5.99665e-16 0)
(3 1.24285e-15 0)
(3 1.38979e-15 0)
(3 1.31482e-15 0)
(3 1.22945e-15 0)
(3 9.94501e-16 0)
(3 8.2523e-16 0)
(3 1.64064e-08 0)
(1.44833 0.168563 0)
(0.794924 0.145769 0)
(0.757229 0.148902 0)
(0.738621 0.147575 0)
(0.721403 0.146535 0)
(0.706341 0.146728 0)
(0.692551 0.149095 0)
(0.679173 0.152659 0)
(0.665155 0.156115 0)
(0.650285 0.159251 0)
(0.634643 0.160731 0)
(0.619045 0.159416 0)
(0.604139 0.158014 0)
(0.590239 0.158823 0)
(0.576862 0.160902 0)
(0.563233 0.163934 0)
(0.549284 0.168306 0)
(0.534844 0.172173 0)
(0.520193 0.173133 0)
(0.505804 0.172835 0)
(0.491536 0.174749 0)
(0.477325 0.178992 0)
(0.462403 0.182987 0)
(0.446747 0.185467 0)
(0.430674 0.187707 0)
(0.414337 0.190754 0)
(0.397779 0.194273 0)
(0.380994 0.197542 0)
(0.364046 0.200564 0)
(0.346925 0.203694 0)
(0.329478 0.20687 0)
(0.311541 0.209848 0)
(0.293025 0.212525 0)
(0.2739 0.214873 0)
(0.254183 0.2169 0)
(0.233937 0.218679 0)
(0.213281 0.220279 0)
(0.192401 0.221823 0)
(0.171513 0.223407 0)
(0.150812 0.225101 0)
(0.130419 0.227019 0)
(0.110343 0.229258 0)
(0.0905165 0.232229 0)
(0.0707278 0.235951 0)
(0.0510632 0.241186 0)
(0.030756 0.244792 0)
(0.0107027 0.249354 0)
(3 -5.01804e-17 0)
(3 -2.15923e-16 0)
(3 -8.84796e-16 0)
(3 -1.24446e-15 0)
(3 -9.66893e-16 0)
(3 -6.11608e-16 0)
(3 -4.98787e-16 0)
(3 -9.83607e-16 0)
(3 -1.4363e-15 0)
(3 -1.37406e-15 0)
(3 -8.56698e-16 0)
(3 -7.91587e-16 0)
(3 -5.70107e-16 0)
(3 6.14084e-17 0)
(3 2.82579e-16 0)
(3 -1.15252e-15 0)
(3 -1.90699e-15 0)
(3 -2.346e-15 0)
(3 -2.60208e-15 0)
(3 -2.68591e-15 0)
(3 -2.661e-15 0)
(3 -1.4242e-15 0)
(3 -1.29833e-15 0)
(3 -1.90296e-15 0)
(3 -2.91415e-15 0)
(3 -3.41574e-15 0)
(3 -2.79014e-15 0)
(3 -1.75862e-15 0)
(3 -1.61226e-15 0)
(3 -2.18653e-15 0)
(3 -1.65905e-15 0)
(3 -1.68047e-15 0)
(3 -1.18941e-15 0)
(3 -5.14881e-17 0)
(3 6.61654e-16 0)
(3 5.15433e-16 0)
(3 4.3738e-16 0)
(3 3.44582e-17 0)
(3 1.25237e-16 0)
(3 5.07526e-16 0)
(3 4.32686e-16 0)
(3 4.80755e-16 0)
(3 1.20684e-15 0)
(3 1.48564e-15 0)
(3 1.55222e-15 0)
(3 1.54956e-15 0)
(3 1.36686e-15 0)
(3 1.00751e-15 0)
(3 3.25268e-11 0)
(1.77115 0.186009 0)
(0.82384 0.16937 0)
(0.764158 0.181916 0)
(0.744341 0.177147 0)
(0.725574 0.173522 0)
(0.709346 0.170845 0)
(0.694613 0.171307 0)
(0.680772 0.174409 0)
(0.666762 0.178998 0)
(0.652087 0.184047 0)
(0.636426 0.187037 0)
(0.620518 0.186042 0)
(0.605197 0.183372 0)
(0.590691 0.182666 0)
(0.576998 0.184452 0)
(0.563485 0.188347 0)
(0.549944 0.193892 0)
(0.535856 0.198541 0)
(0.521441 0.199616 0)
(0.507304 0.198919 0)
(0.493321 0.20071 0)
(0.479715 0.205604 0)
(0.465555 0.210745 0)
(0.450583 0.214079 0)
(0.435249 0.216866 0)
(0.419768 0.220585 0)
(0.40415 0.22504 0)
(0.38828 0.229358 0)
(0.372174 0.233373 0)
(0.355824 0.237471 0)
(0.339053 0.241674 0)
(0.321629 0.245724 0)
(0.303412 0.249465 0)
(0.284381 0.252843 0)
(0.2646 0.255845 0)
(0.244194 0.258513 0)
(0.223301 0.260875 0)
(0.202072 0.263019 0)
(0.180657 0.265026 0)
(0.159197 0.266937 0)
(0.137798 0.268891 0)
(0.116514 0.270922 0)
(0.0953883 0.273672 0)
(0.0742821 0.277013 0)
(0.0534804 0.282385 0)
(0.0321357 0.286245 0)
(0.0112314 0.291321 0)
(3 1.60089e-16 0)
(3 8.73416e-17 0)
(3 -5.98973e-16 0)
(3 -1.10206e-15 0)
(3 -1.73398e-15 0)
(3 -1.58499e-15 0)
(3 -1.00186e-15 0)
(3 -6.57858e-16 0)
(3 -4.82096e-16 0)
(3 -4.45762e-16 0)
(3 -6.62031e-16 0)
(3 -6.21128e-16 0)
(3 -1.22859e-15 0)
(3 -1.58684e-15 0)
(3 -1.40799e-15 0)
(3 -1.92489e-15 0)
(3 -2.41086e-15 0)
(3 -2.74221e-15 0)
(3 -2.87076e-15 0)
(3 -2.44924e-15 0)
(3 -1.89518e-15 0)
(3 -1.68074e-15 0)
(3 -1.15886e-15 0)
(3 -1.2395e-15 0)
(3 -1.54006e-15 0)
(3 -1.84644e-15 0)
(3 -2.20338e-15 0)
(3 -2.24443e-15 0)
(3 -1.68694e-15 0)
(3 -1.10286e-15 0)
(3 -8.34005e-16 0)
(3 5.18704e-16 0)
(3 1.36286e-15 0)
(3 1.94308e-15 0)
(3 2.47698e-15 0)
(3 2.69714e-15 0)
(3 2.76969e-15 0)
(3 2.48516e-15 0)
(3 1.9048e-15 0)
(3 1.94144e-15 0)
(3 1.79905e-15 0)
(3 1.01921e-15 0)
(3 5.01526e-16 0)
(3 4.32094e-16 0)
(3 5.96386e-16 0)
(3 6.41785e-16 0)
(3 3.101e-16 0)
(3 2.22555e-16 0)
(3 6.32354e-14 0)
(2.20098 0.18766 0)
(0.864518 0.206116 0)
(0.761027 0.214557 0)
(0.745128 0.209013 0)
(0.728618 0.204485 0)
(0.713512 0.199402 0)
(0.698909 0.197445 0)
(0.685069 0.199367 0)
(0.671479 0.204388 0)
(0.657592 0.210951 0)
(0.642525 0.215552 0)
(0.626677 0.215505 0)
(0.611053 0.212275 0)
(0.595859 0.210033 0)
(0.581393 0.21094 0)
(0.567522 0.215109 0)
(0.554024 0.221547 0)
(0.539952 0.227007 0)
(0.525295 0.22837 0)
(0.510837 0.227099 0)
(0.496448 0.228148 0)
(0.482709 0.233118 0)
(0.468799 0.2392 0)
(0.454034 0.243356 0)
(0.43896 0.246423 0)
(0.423925 0.250465 0)
(0.408979 0.25565 0)
(0.393899 0.261005 0)
(0.378607 0.2661 0)
(0.363104 0.271285 0)
(0.347203 0.276694 0)
(0.330598 0.282094 0)
(0.313059 0.287282 0)
(0.294508 0.292169 0)
(0.275006 0.296702 0)
(0.254712 0.300865 0)
(0.233786 0.304606 0)
(0.212367 0.307927 0)
(0.190562 0.310862 0)
(0.168463 0.313398 0)
(0.146161 0.315701 0)
(0.123711 0.317699 0)
(0.101233 0.320312 0)
(0.0786528 0.323119 0)
(0.0564672 0.328428 0)
(0.0338656 0.33239 0)
(0.0118473 0.337905 0)
(3 2.12117e-17 0)
(3 -4.29814e-18 0)
(3 1.45543e-16 0)
(3 2.80481e-16 0)
(3 9.45098e-17 0)
(3 -3.69215e-16 0)
(3 -9.55551e-16 0)
(3 -8.91083e-16 0)
(3 -8.40746e-16 0)
(3 -8.05912e-16 0)
(3 -9.51723e-16 0)
(3 -1.47993e-15 0)
(3 -2.07104e-15 0)
(3 -2.96914e-15 0)
(3 -3.06086e-15 0)
(3 -2.742e-15 0)
(3 -2.38338e-15 0)
(3 -1.56206e-15 0)
(3 -1.16645e-15 0)
(3 -6.35581e-16 0)
(3 -6.79563e-16 0)
(3 -1.09213e-15 0)
(3 -1.33782e-15 0)
(3 -1.81895e-15 0)
(3 -1.97716e-15 0)
(3 -1.85798e-15 0)
(3 -2.47401e-15 0)
(3 -2.49665e-15 0)
(3 -1.93936e-15 0)
(3 -1.12627e-15 0)
(3 -3.36042e-16 0)
(3 7.74506e-16 0)
(3 1.7555e-15 0)
(3 2.05081e-15 0)
(3 2.31412e-15 0)
(3 2.98605e-15 0)
(3 2.94228e-15 0)
(3 2.72981e-15 0)
(3 2.60866e-15 0)
(3 1.49256e-15 0)
(3 1.54931e-15 0)
(3 8.68586e-16 0)
(3 5.36684e-16 0)
(3 2.75096e-16 0)
(3 1.09325e-16 0)
(3 6.35317e-16 0)
(3 1.25924e-15 0)
(3 1.57524e-15 0)
(3 2.32107e-15 0)
(2.71775 0.162261 0)
(0.971317 0.253 0)
(0.783209 0.238912 0)
(0.774759 0.229333 0)
(0.757213 0.228921 0)
(0.74155 0.224423 0)
(0.725165 0.221658 0)
(0.709249 0.222787 0)
(0.694023 0.228079 0)
(0.679356 0.235958 0)
(0.664128 0.242695 0)
(0.647978 0.244788 0)
(0.631775 0.242427 0)
(0.615717 0.239444 0)
(0.600012 0.239439 0)
(0.585062 0.243568 0)
(0.570988 0.250838 0)
(0.556566 0.25759 0)
(0.541208 0.260124 0)
(0.525756 0.258889 0)
(0.510196 0.259045 0)
(0.495324 0.263623 0)
(0.480857 0.270427 0)
(0.465549 0.275558 0)
(0.44979 0.278832 0)
(0.434107 0.282794 0)
(0.418718 0.288262 0)
(0.4034 0.294345 0)
(0.387967 0.300308 0)
(0.372436 0.306384 0)
(0.356693 0.312847 0)
(0.340439 0.319557 0)
(0.323385 0.326284 0)
(0.305392 0.332877 0)
(0.286482 0.339228 0)
(0.26679 0.345236 0)
(0.246434 0.350761 0)
(0.225459 0.355709 0)
(0.203845 0.36009 0)
(0.181543 0.363855 0)
(0.158562 0.367202 0)
(0.134897 0.369875 0)
(0.110748 0.372996 0)
(0.0861131 0.375615 0)
(0.0617463 0.380928 0)
(0.0369837 0.384917 0)
(0.0129227 0.390896 0)
(3 -7.4334e-17 0)
(3 -1.20385e-16 0)
(3 4.73174e-18 0)
(3 3.98804e-16 0)
(3 6.32745e-16 0)
(3 5.10216e-16 0)
(3 2.343e-16 0)
(3 -1.42124e-16 0)
(3 -2.78185e-16 0)
(3 -5.99862e-16 0)
(3 -5.9304e-16 0)
(3 -1.02226e-15 0)
(3 -1.12476e-15 0)
(3 -1.50045e-15 0)
(3 -1.49277e-15 0)
(3 -1.24836e-15 0)
(3 -9.37259e-16 0)
(3 -7.26329e-16 0)
(3 -6.54418e-16 0)
(3 -7.60684e-16 0)
(3 -7.76593e-16 0)
(3 -9.33331e-16 0)
(3 -1.407e-15 0)
(3 -1.65723e-15 0)
(3 -1.52539e-15 0)
(3 -9.92928e-16 0)
(3 -8.22368e-16 0)
(3 -1.3802e-15 0)
(3 -1.86844e-15 0)
(3 -1.65945e-15 0)
(3 -1.46068e-15 0)
(3 -1.36759e-15 0)
(3 -1.22044e-15 0)
(3 -1.28541e-15 0)
(3 -8.11935e-16 0)
(3 3.54226e-16 0)
(3 3.98621e-16 0)
(3 -3.33317e-16 0)
(3 -2.29898e-17 0)
(3 1.80756e-16 0)
(3 5.97249e-16 0)
(3 9.45339e-16 0)
(3 1.08941e-15 0)
(3 9.25104e-16 0)
(3 1.15805e-15 0)
(3 1.45754e-15 0)
(3 1.85484e-15 0)
(3 1.77981e-15 0)
(3 1.06276e-15 0)
(3.01858 0.00868835 0)
(1.16383 0.279106 0)
(0.807695 0.234563 0)
(0.796554 0.250569 0)
(0.781362 0.25695 0)
(0.766285 0.256527 0)
(0.750385 0.254452 0)
(0.734299 0.254004 0)
(0.718676 0.257187 0)
(0.704226 0.263501 0)
(0.690226 0.269891 0)
(0.67551 0.273019 0)
(0.66015 0.272091 0)
(0.644419 0.269305 0)
(0.628488 0.26834 0)
(0.613001 0.271595 0)
(0.598644 0.278848 0)
(0.584467 0.286832 0)
(0.569129 0.291442 0)
(0.55314 0.291488 0)
(0.536826 0.291033 0)
(0.520821 0.294737 0)
(0.505653 0.30196 0)
(0.489844 0.308628 0)
(0.473225 0.312846 0)
(0.456486 0.316906 0)
(0.440051 0.322567 0)
(0.423845 0.329352 0)
(0.407578 0.336258 0)
(0.39123 0.343225 0)
(0.374784 0.350646 0)
(0.358003 0.358557 0)
(0.340576 0.366793 0)
(0.322276 0.375199 0)
(0.30304 0.383651 0)
(0.282938 0.392015 0)
(0.262046 0.40009 0)
(0.240369 0.407657 0)
(0.217889 0.414607 0)
(0.194552 0.420718 0)
(0.170431 0.426093 0)
(0.145482 0.430258 0)
(0.119885 0.434439 0)
(0.0934612 0.437218 0)
(0.0669381 0.442443 0)
(0.0400066 0.446164 0)
(0.0137883 0.452326 0)
(3 -5.0464e-17 0)
(3 -8.27241e-17 0)
(3 -5.05738e-17 0)
(3 -2.33479e-16 0)
(3 -1.85247e-16 0)
(3 2.93288e-16 0)
(3 7.32255e-16 0)
(3 9.29348e-16 0)
(3 7.4076e-16 0)
(3 2.24225e-16 0)
(3 6.2996e-17 0)
(3 -2.6832e-16 0)
(3 -3.11744e-16 0)
(3 -7.17636e-16 0)
(3 -6.88333e-16 0)
(3 -7.40644e-16 0)
(3 -1.1148e-15 0)
(3 -1.19903e-15 0)
(3 -8.16065e-16 0)
(3 -6.69817e-16 0)
(3 -2.84577e-16 0)
(3 -1.02052e-16 0)
(3 -3.33063e-16 0)
(3 -1.68558e-16 0)
(3 7.00199e-17 0)
(3 2.25814e-16 0)
(3 5.42339e-16 0)
(3 4.51081e-16 0)
(3 1.58925e-16 0)
(3 -9.18367e-16 0)
(3 -1.19028e-15 0)
(3 -2.20396e-16 0)
(3 3.7767e-16 0)
(3 4.61054e-16 0)
(3 1.89665e-16 0)
(3 -2.54781e-16 0)
(3 -3.94753e-16 0)
(3 -5.38953e-16 0)
(3 -3.11863e-16 0)
(3 2.03305e-16 0)
(3 4.78665e-16 0)
(3 1.04232e-15 0)
(3 1.28655e-15 0)
(3 1.23826e-15 0)
(3 2.67974e-16 0)
(3 3.99312e-16 0)
(3 5.64971e-16 0)
(3 8.7663e-16 0)
(3 -4.31193e-16 0)
(3.00024 9.35324e-06 0)
(1.58891 0.31044 0)
(0.824941 0.273644 0)
(0.782212 0.281698 0)
(0.768768 0.288366 0)
(0.754939 0.289212 0)
(0.741186 0.288524 0)
(0.727305 0.287843 0)
(0.713699 0.289359 0)
(0.701066 0.293855 0)
(0.689312 0.29994 0)
(0.677115 0.304744 0)
(0.663926 0.306269 0)
(0.650002 0.305214 0)
(0.635483 0.304435 0)
(0.620916 0.306829 0)
(0.607292 0.313319 0)
(0.594568 0.321904 0)
(0.581042 0.328449 0)
(0.566475 0.330439 0)
(0.551369 0.33018 0)
(0.536039 0.332761 0)
(0.521599 0.339551 0)
(0.507096 0.347377 0)
(0.49148 0.352931 0)
(0.475297 0.357218 0)
(0.45915 0.362704 0)
(0.443219 0.369735 0)
(0.427198 0.377336 0)
(0.410927 0.38503 0)
(0.394479 0.393168 0)
(0.377767 0.401999 0)
(0.360548 0.411493 0)
(0.342595 0.42157 0)
(0.323783 0.43206 0)
(0.304186 0.442824 0)
(0.283886 0.453561 0)
(0.262889 0.463882 0)
(0.241105 0.47349 0)
(0.218286 0.482085 0)
(0.194328 0.489816 0)
(0.168714 0.496318 0)
(0.141419 0.503294 0)
(0.11165 0.508973 0)
(0.0804105 0.516082 0)
(0.0479742 0.520476 0)
(0.0161946 0.52657 0)
(3 6.13486e-17 0)
(3 2.57793e-16 0)
(3 4.04097e-16 0)
(3 3.07283e-17 0)
(3 -4.04142e-16 0)
(3 -5.53768e-16 0)
(3 -6.12438e-16 0)
(3 -6.70208e-16 0)
(3 -5.62567e-16 0)
(3 -3.80203e-16 0)
(3 -4.81676e-16 0)
(3 -4.06673e-16 0)
(3 -2.85273e-16 0)
(3 -3.09174e-16 0)
(3 -2.58868e-16 0)
(3 -2.26107e-16 0)
(3 4.11096e-16 0)
(3 4.84487e-16 0)
(3 2.33014e-16 0)
(3 2.48104e-17 0)
(3 -2.0967e-16 0)
(3 -1.52006e-16 0)
(3 1.16701e-16 0)
(3 3.27786e-16 0)
(3 1.95644e-16 0)
(3 -1.61169e-16 0)
(3 -1.19012e-16 0)
(3 4.31591e-16 0)
(3 1.10101e-15 0)
(3 6.70771e-16 0)
(3 5.86184e-16 0)
(3 9.30892e-16 0)
(3 1.11696e-15 0)
(3 1.18497e-15 0)
(3 4.27649e-16 0)
(3 -1.07682e-16 0)
(3 -2.33485e-16 0)
(3 -1.24081e-16 0)
(3 -2.23394e-16 0)
(3 -6.5446e-16 0)
(3 -6.63906e-16 0)
(3 -5.89553e-16 0)
(3 -6.34753e-16 0)
(3 -5.12952e-16 0)
(3 -8.18577e-16 0)
(3 -9.82422e-16 0)
(3 -6.27428e-16 0)
(3 -9.40405e-17 0)
(3 -6.07139e-16 0)
(3 1.76021e-08 0)
(2.42869 0.271945 0)
(0.926074 0.332203 0)
(0.794845 0.315527 0)
(0.782266 0.314161 0)
(0.767418 0.317918 0)
(0.753741 0.319322 0)
(0.740521 0.318823 0)
(0.72763 0.31878 0)
(0.715187 0.321247 0)
(0.703584 0.326266 0)
(0.692164 0.331913 0)
(0.679908 0.335754 0)
(0.666738 0.337006 0)
(0.65288 0.337223 0)
(0.638705 0.339112 0)
(0.625123 0.344504 0)
(0.612851 0.352772 0)
(0.600768 0.360703 0)
(0.587677 0.365149 0)
(0.573792 0.366306 0)
(0.559294 0.368402 0)
(0.545214 0.374535 0)
(0.531699 0.38336 0)
(0.517269 0.391278 0)
(0.501812 0.397158 0)
(0.486042 0.403241 0)
(0.470398 0.410886 0)
(0.454726 0.419588 0)
(0.438713 0.428586 0)
(0.422341 0.437873 0)
(0.405744 0.447932 0)
(0.388751 0.458826 0)
(0.371171 0.470698 0)
(0.352643 0.483358 0)
(0.33321 0.496792 0)
(0.312716 0.510752 0)
(0.291034 0.524931 0)
(0.268051 0.539037 0)
(0.243394 0.552721 0)
(0.216904 0.566155 0)
(0.188123 0.578752 0)
(0.157686 0.591629 0)
(0.125537 0.603033 0)
(0.0919676 0.613094 0)
(0.0564277 0.619199 0)
(0.018092 0.623304 0)
(3 1.2042e-16 0)
(3 2.72688e-16 0)
(3 3.34143e-16 0)
(3 3.5612e-16 0)
(3 3.7009e-16 0)
(3 2.92159e-16 0)
(3 2.12138e-16 0)
(3 -7.17853e-17 0)
(3 -8.20868e-17 0)
(3 1.58297e-17 0)
(3 2.4632e-16 0)
(3 3.38113e-16 0)
(3 5.50102e-16 0)
(3 7.7782e-16 0)
(3 8.9302e-16 0)
(3 9.07716e-16 0)
(3 7.85722e-16 0)
(3 8.47849e-16 0)
(3 7.44969e-16 0)
(3 3.65577e-16 0)
(3 5.20554e-16 0)
(3 1.16618e-15 0)
(3 1.21171e-15 0)
(3 5.42619e-16 0)
(3 1.29804e-16 0)
(3 -2.20491e-16 0)
(3 -8.25939e-16 0)
(3 -7.24154e-16 0)
(3 -5.7745e-16 0)
(3 -6.34928e-17 0)
(3 3.08527e-17 0)
(3 1.16279e-16 0)
(3 2.65601e-16 0)
(3 -6.85176e-17 0)
(3 -4.712e-16 0)
(3 -7.64699e-16 0)
(3 -4.3737e-16 0)
(3 -2.94605e-16 0)
(3 -2.55868e-16 0)
(3 -4.1146e-16 0)
(3 -5.60163e-16 0)
(3 -1.0398e-15 0)
(3 -1.41794e-15 0)
(3 -1.70048e-15 0)
(3 -1.50103e-15 0)
(3 -1.51803e-15 0)
(3 -1.89884e-15 0)
(3 -2.03035e-15 0)
(3 -1.6035e-15 0)
(3 -5.52083e-09 0)
(3.02768 0.0154176 0)
(1.27094 0.376367 0)
(0.841372 0.318635 0)
(0.82248 0.337316 0)
(0.805305 0.343013 0)
(0.790394 0.344182 0)
(0.77625 0.343869 0)
(0.762297 0.343768 0)
(0.748493 0.345579 0)
(0.735286 0.350062 0)
(0.722798 0.356305 0)
(0.710227 0.362197 0)
(0.696947 0.366248 0)
(0.682951 0.368643 0)
(0.668558 0.370976 0)
(0.654447 0.375389 0)
(0.641522 0.382579 0)
(0.629656 0.390829 0)
(0.61752 0.397501 0)
(0.604455 0.401356 0)
(0.590605 0.404222 0)
(0.576653 0.409742 0)
(0.563464 0.418806 0)
(0.550167 0.428927 0)
(0.535772 0.437438 0)
(0.520725 0.444915 0)
(0.505693 0.453341 0)
(0.490564 0.463103 0)
(0.475348 0.473703 0)
(0.459608 0.484657 0)
(0.443594 0.496413 0)
(0.427245 0.509061 0)
(0.410587 0.523024 0)
(0.393113 0.538267 0)
(0.374772 0.554993 0)
(0.355314 0.573069 0)
(0.3347 0.592312 0)
(0.313032 0.612402 0)
(0.290258 0.632744 0)
(0.266301 0.65282 0)
(0.240627 0.671328 0)
(0.212575 0.687456 0)
(0.181646 0.702626 0)
(0.144473 0.721316 0)
(0.0980282 0.744417 0)
(0.0373856 0.764421 0)
(3 -1.95374e-17 0)
(3 -1.11863e-16 0)
(3 -1.32029e-16 0)
(3 9.87555e-17 0)