/*--------------------------------*- C++ -*----------------------------------*\
  =========                 |
  \\      /  F ield         | OpenFOAM: The Open Source CFD Toolbox
   \\    /   O peration     | Website:  https://openfoam.org
    \\  /    A nd           | Version:  7
     \\/     M anipulation  |
\*---------------------------------------------------------------------------*/
FoamFile
{
    version     2.0;
    format      ascii;
    class       volScalarField;
    location    "6";
    object      p;
}
// * * * * * * * * * * * * * * * * * * * * * * * * * * * * * * * * * * * * * //

dimensions      [0 2 -2 0 0 0 0];

internalField   nonuniform List<scalar> 
16000
(
-8.1250289e-06
-0.00014449119
-0.00043002049
-0.00079435454
-0.0011671023
-0.0015080328
-0.0017887357
-0.0019919491
-0.002108038
-0.002131986
-0.0020614165
-0.0018954761
-0.0016341806
-0.0012783549
-0.00082990946
-0.00029224211
0.00032924056
0.0010265277
0.0017884976
0.0026005995
0.0034447467
0.0042995159
0.0051406454
0.0059419053
0.0066763158
0.0073176395
0.0078420577
0.008229932
0.0084674882
0.0085482689
0.0084742245
0.0082563467
0.0079148167
0.0074788261
0.0069858044
0.0064773527
0.0060079285
0.0056286826
0.0053991287
0.0053553294
0.00012422814
-1.2690397e-05
-0.00024063315
-0.00051799284
-0.00080288752
-0.0010638981
-0.0012786782
-0.0014323254
-0.0015153966
-0.0015221997
-0.0014494092
-0.0012952912
-0.0010592228
-0.00074159299
-0.00034396599
0.00013062189
0.00067727441
0.0012887945
0.0019553008
0.002663996
0.0033990934
0.0041421055
0.0048721413
0.0055667976
0.0062031711
0.0067591476
0.0072148431
0.0075540998
0.0077659073
0.0078456109
0.0077957784
0.0076266384
0.0073560456
0.0070090092
0.0066167452
0.0062149518
0.0058428763
0.0055406199
0.0053514006
0.005310765
0.00041505535
0.00021172775
-2.127889e-05
-0.00027099786
-0.00051750221
-0.00073810405
-0.0009162557
-0.0010407861
-0.0011041745
-0.0011015128
-0.0010296645
-0.0008867417
-0.00067177473
-0.00038470186
-2.6542127e-05
0.00040034083
0.00089188455
0.0014419209
0.0020418187
0.002680262
0.003343217
0.0040140542
0.0046739909
0.0053027701
0.0058796258
0.0063844712
0.0067992424
0.0071092977
0.007304736
0.0073815021
0.0073421518
0.0071961785
0.0069598452
0.0066555232
0.0063105792
0.0059558597
0.0056238884
0.0053470426
0.005158267
0.0050862736
0.0007963689
0.00048887447
0.00021489699
-4.0943515e-05
-0.00027866875
-0.00048304054
-0.00064311075
-0.00075205966
-0.00080519216
-0.00079922441
-0.00073182926
-0.00060136064
-0.00040669078
-0.00014729124
0.00017653402
0.0005633354
0.0010101256
0.0015119392
0.002061455
0.0026487415
0.0032611617
0.0038834402
0.0044980753
0.0050859325
0.0056271736
0.0061024173
0.0064940698
0.00678772
0.0069734633
0.0070470073
0.0070104134
0.0068723671
0.0066479176
0.006357676
0.0060265387
0.0056820799
0.0053530306
0.0050675478
0.0048492417
0.0047123343
0.001197927
0.00077446173
0.00044383928
0.00016563692
-7.8582199e-05
-0.00028004729
-0.00043310063
-0.00053535624
-0.00058516905
-0.00058116213
-0.00052207314
-0.0004066566
-0.00023366907
-2.0549585e-06
0.00028873296
0.00063832995
0.001045
0.0015051325
0.0020128014
0.0025594408
0.0031336617
0.0037212861
0.0043056337
0.0048681002
0.0053890538
0.005848998
0.0062299387
0.0065168369
0.0066990016
0.0067712626
0.0067347513
0.0065971692
0.0063724785
0.0060799931
0.0057429366
0.0053867173
0.005037776
0.0047218265
0.0044528083
0.0042310038
0.0015735875
0.001029805
0.00063439035
0.00032362868
6.2239096e-05
-0.00014653474
-0.00030180259
-0.00040537538
-0.00045859977
-0.00046204284
-0.00041555776
-0.0003183183
-0.00016892604
3.4289501e-05
0.0002928502
0.00060762279
0.00097826993
0.0014026639
0.0018763529
0.0023921354
0.0029397768
0.0035059611
0.004074473
0.004626749
0.0051427476
0.0056021366
0.005985729
0.0062770415
0.006463815
0.0065393208
0.0065032517
0.0063620519
0.006128618
0.0058213309
0.0054624685
0.0050763531
0.0046886134
0.0043242925
0.0039891279
0.0036699721
0.0018831019
0.0012205844
0.00075724773
0.00040800364
0.00012230181
-0.0001013521
-0.00026630229
-0.00037819962
-0.00044117331
-0.00045761361
-0.00042839537
-0.00035301679
-0.00022982189
-5.6406651e-05
0.00016986215
0.00045123303
0.00078891789
0.0011824093
0.0016288371
0.0021224117
0.002654019
0.0032110692
0.0037775628
0.0043345985
0.0048612117
0.0053355927
0.0057366161
0.0060455419
0.006247717
0.0063340834
0.0063022592
0.0061570176
0.0059100757
0.0055791244
0.0051861311
0.0047553598
0.0043130553
0.003885338
0.0034715927
0.0030468105
0.0020927117
0.0013161854
0.00078514314
0.00039476675
8.054989e-05
-0.00016318529
-0.00034357548
-0.0004697457
-0.00054832611
-0.00058330458
-0.00057639482
-0.00052725222
-0.00043380581
-0.00029276534
-0.00010023039
0.00014759894
0.00045366711
0.00081926713
0.0012432721
0.0017214339
0.0022458308
0.002804602
0.0033818459
0.0039580826
0.0045110302
0.005016848
0.0054517647
0.0057939507
0.0060254504
0.0061339684
0.0061142385
0.0059687562
0.0057077548
0.0053483101
0.0049125771
0.004425691
0.0039158485
0.003411905
0.0029086108
0.0023705586
0.0021731326
0.0012888333
0.00069226965
0.00026024866
-8.4688758e-05
-0.00035205455
-0.00055243662
-0.00069809309
-0.00079785947
-0.000857059
-0.00087800945
-0.00086031873
-0.00080132071
-0.00069666221
-0.00054098647
-0.00032873757
-5.5016656e-05
0.00028350925
0.00068770439
0.0011550994
0.0016791667
0.0022489555
0.0028486779
0.0034581919
0.0040536362
0.0046086716
0.0050961957
0.0054904035
0.0057690017
0.005915359
0.0059202728
0.0057830935
0.0055120113
0.0051233491
0.0046397846
0.0040881384
0.0034998229
0.0029080214
0.0023042395
0.00164357
0.0020979353
0.0011130112
0.00045431558
-1.853574e-05
-0.00039515282
-0.00068866659
-0.00091286763
-0.0010828509
-0.001209367
-0.0012988141
-0.0013538808
-0.0013739201
-0.0013554764
-0.0012929384
-0.0011792822
-0.0010069565
-0.00076883405
-0.00045922764
-7.493113e-05
0.00038373441
0.00091199061
0.0015002003
0.0021328534
0.0027892581
0.0034438702
0.0040674876
0.0046290213
0.0050977457
0.0054458391
0.0056509887
0.0056986877
0.0055839223
0.0053119376
0.0048978725
0.0043650467
0.003742641
0.0030664895
0.0023756759
0.0016594906
0.00086379024
0.0018428335
0.00076517658
4.8560235e-05
-0.00046349139
-0.00087201686
-0.0011936348
-0.0014451449
-0.0016442238
-0.0018032871
-0.0019295778
-0.002025947
-0.0020913017
-0.0021212096
-0.0021086036
-0.0020445684
-0.0019192875
-0.0017230752
-0.0014474935
-0.00108653
-0.00063780971
-0.00010371968
0.00050761216
0.001181773
0.0018977721
0.0026284612
0.0033415626
0.0040014135
0.00457138
0.0050167532
0.005307902
0.0054232524
0.0053517489
0.0050943271
0.0046641005
0.0040848409
0.0033885765
0.002616714
0.0018158436
0.00097374768
2.669654e-05
0.0013854991
0.0002237549
-0.00054597334
-0.001095125
-0.0015354222
-0.0018868785
-0.0021691477
-0.0024022753
-0.0026001414
-0.0027706495
-0.002916647
-0.003036438
-0.0031244529
-0.0031719854
-0.0031680035
-0.003100136
-0.002955764
-0.0027232218
-0.0023931063
-0.0019596625
-0.0014221334
-0.00078628853
-6.4737987e-05
0.00072186388
0.0015451452
0.0023697697
0.0031550568
0.0038574913
0.0044339747
0.004845604
0.0050615072
0.0050623283
0.0048427149
0.0044123392
0.0037947846
0.0030251388
0.0021514662
0.0012295594
0.00024615769
-0.00087293809
0.00070562754
-0.00053074878
-0.0013483187
-0.001932207
-0.0024039995
-0.0027870213
-0.0031036517
-0.003376133
-0.0036196586
-0.0038426661
-0.0040478878
-0.0042329178
-0.0043909314
-0.0045114348
-0.0045810743
-0.0045846337
-0.0045061571
-0.0043302089
-0.0040433008
-0.0036354698
-0.0031019055
-0.0024446457
-0.0016737083
-0.00080836116
0.00012256383
0.0010810277
0.0020211446
0.0028916633
0.0036395216
0.0042142935
0.0045730602
0.0046851996
0.0045362904
0.0041303642
0.00348952
0.0026516988
0.0016725909
0.00061902199
-0.00052298817
-0.0018394186
-0.00021476215
-0.0015154826
-0.0023752346
-0.0029913458
-0.0034943332
-0.0039107411
-0.0042655636
-0.0045831067
-0.0048797769
-0.0051644808
-0.0054397886
-0.0057025432
-0.0059446106
-0.0061536162
-0.0063137235
-0.006406605
-0.0064125621
-0.0063118108
-0.0060859988
-0.0057199615
-0.0052036279
-0.0045340289
-0.00371707
-0.0027692418
-0.0017186285
-0.00060514744
0.0005203355
0.0015982567
0.0025640854
0.00335341
0.0039079984
0.00418219
0.0041487029
0.0038026768
0.0031625045
0.0022681293
0.0011836
-1.124862e-05
-0.0013308359
-0.0028745331
-0.0013908847
-0.002744875
-0.0036408098
-0.0042865267
-0.0048204081
-0.0052721048
-0.0056691289
-0.0060377499
-0.0063955427
-0.0067518843
-0.0071092107
-0.0074636533
-0.0078057951
-0.0081213649
-0.0083919505
-0.0085959028
-0.0087094081
-0.0087077567
-0.0085669146
-0.0082654238
-0.00778658
-0.007120825
-0.0062681155
-0.0052403022
-0.004062955
-0.0027764357
-0.0014357648
-0.00010889186
0.0011269708
0.0021909375
0.0030057609
0.0035061281
0.0036469078
0.0034097277
0.0028057615
0.0018751298
0.00069052268
-0.00065315133
-0.0021704332
-0.0039758659
-0.002834695
-0.0042302224
-0.0051560648
-0.0058286705
-0.0063930793
-0.0068819139
-0.0073251184
-0.0077508624
-0.0081779058
-0.0086161728
-0.009068079
-0.0095291774
-0.0099888899
-0.010431129
-0.010834908
-0.011175134
-0.011423577
-0.01155008
-0.011524123
-0.011316834
-0.010903399
-0.01026586
-0.0093960839
-0.008298954
-0.0069951477
-0.0055233048
-0.0039409751
-0.002323791
-0.00076225612
0.00064406322
0.0017949898
0.0026001695
0.0029903268
0.0029272695
0.0024096927
0.0014746256
0.00020287647
-0.0012935702
-0.0030289859
-0.0051348945
-0.0045543914
-0.0059793138
-0.0069286145
-0.0076252604
-0.0082196125
-0.0087471047
-0.0092400478
-0.0097284981
-0.010232489
-0.010762655
-0.011321603
-0.011904543
-0.012499964
-0.013090152
-0.013651665
-0.014155955
-0.014570197
-0.014858363
-0.014982739
-0.01490596
-0.014593621
-0.014017423
-0.013158853
-0.012013014
-0.010592733
-0.008931963
-0.007088184
-0.0051429438
-0.0031996566
-0.0013780589
0.00019502827
0.0013983012
0.0021307519
0.0023261236
0.0019631189
0.0010703439
-0.00026514484
-0.0019126616
-0.0038857839
-0.006334722
-0.0065539827
-0.0079961569
-0.0089624445
-0.0096800812
-0.010303323
-0.010870238
-0.011415472
-0.011971031
-0.012558399
-0.013189188
-0.01386651
-0.014585577
-0.015334287
-0.016093607
-0.016837879
-0.017535236
-0.018148219
-0.018634669
-0.018949121
-0.019044799
-0.018876335
-0.018403236
-0.017594062
-0.016431231
-0.01491622
-0.013074542
-0.010959938
-0.0086567967
-0.0062796482
-0.0039686317
-0.0018801183
-0.00017226403
0.0010135759
0.0015727917
0.0014538405
0.00066876072
-0.00069313116
-0.0024817381
-0.0047096619
-0.0075472927
-0.0088330254
-0.010280885
-0.011257867
-0.01199314
-0.012643388
-0.013249143
-0.013847429
-0.01447236
-0.015147172
-0.015884841
-0.016689416
-0.017556565
-0.018474043
-0.019421923
-0.020372696
-0.021291448
-0.022136218
-0.022858653
-0.023405204
-0.023719003
-0.023742592
-0.023421591
-0.022709316
-0.021572503
-0.019997461
-0.017996901
-0.015616128
-0.01293786
-0.010084177
-0.0072139904
-0.0045145523
-0.002185955
-0.00041891536
0.00063148081
0.00087011181
0.00028067534
-0.0010523781
-0.0029605906
-0.0054558396
-0.0087299258
-0.011386595
-0.012829912
-0.013811728
-0.014560825
-0.015234888
-0.015876788
-0.01652608
-0.017219312
-0.017981928
-0.018828801
-0.019765476
-0.02078864
-0.021886457
-0.023038621
-0.024216242
-0.025381762
-0.02648901
-0.027483579
-0.02830377
-0.028882261
-0.029148728
-0.029033595
-0.028472918
-0.027415136
-0.025827474
-0.023705185
-0.021079654
-0.018026053
-0.014668485
-0.011180614
-0.0077794571
-0.0047102343
-0.0022213868
-0.00053175724
0.00020355342
-7.6240063e-05
-0.0013030455
-0.0032940775
-0.0060619794
-0.0098210029
-0.014205537
-0.015636394
-0.016617934
-0.017376379
-0.018069149
-0.01874142
-0.019435636
-0.020191329
-0.021036834
-0.021989638
-0.023057482
-0.024238741
-0.025522614
-0.026888994
-0.028308152
-0.029740369
-0.031135686
-0.032433976
-0.033565576
-0.034452697
-0.035011822
-0.03515744
-0.034807084
-0.03388798
-0.032345598
-0.030153018
-0.02732184
-0.023912764
-0.020044543
-0.015898899
-0.011718286
-0.0077931105
-0.0044357846
-0.0019420671
-0.00054590897
-0.00037350065
-0.0013902783
-0.0034077806
-0.0064432938
-0.010734652
-0.017277078
-0.018691086
-0.019668384
-0.020430763
-0.021134424
-0.021827027
-0.022554566
-0.023360464
-0.024276932
-0.02532502
-0.026515528
-0.027849283
-0.029317186
-0.030899929
-0.032567484
-0.03427848
-0.035979662
-0.037605635
-0.039079175
-0.040312337
-0.041208543
-0.041666159
-0.041583414
-0.040865125
-0.039432254
-0.037231831
-0.034250128
-0.030526052
-0.026164263
-0.021345307
-0.0163291
-0.011447037
-0.0070778918
-0.0036054663
-0.0013624918
-0.00056601809
-0.0012389872
-0.0032025182
-0.0064865294
-0.011354292
-0.020585875
-0.021983724
-0.022954406
-0.02371396
-0.024416963
-0.025114109
-0.025856106
-0.026691685
-0.027658329
-0.028781908
-0.030077315
-0.031548664
-0.033189231
-0.034981051
-0.036894272
-0.038886315
-0.040901083
-0.042868403
-0.04470402
-0.046310377
-0.047578364
-0.048390604
-0.048626018
-0.048166583
-0.046907645
-0.044767026
-0.041701117
-0.037720193
-0.032905595
-0.027425617
-0.021546177
-0.015630504
-0.010120606
-0.0054950411
-0.0022039708
-0.00058401355
-0.00074695387
-0.0025474772
-0.0060426363
-0.011524884
-0.024115626
-0.025505038
-0.026468816
-0.027216789
-0.027902458
-0.028580742
-0.029309004
-0.030143426
-0.031128732
-0.032297214
-0.033669088
-0.03525263
-0.037044088
-0.039027263
-0.04117278
-0.043437132
-0.045761688
-0.048071896
-0.050276992
-0.052270456
-0.053931424
-0.055127581
-0.055719291
-0.055565843
-0.054538184
-0.052522225
-0.049441706
-0.045272848
-0.040065146
-0.03396294
-0.027224135
-0.020229814
-0.013475463
-0.0075342562
-0.0029880144
-0.00032232623
0.00022405328
-0.0012717105
-0.0049179048
-0.011043758
-0.027851402
-0.029249645
-0.030208752
-0.030933313
-0.031577867
-0.032203854
-0.032878396
-0.033668299
-0.034628205
-0.035798857
-0.037207175
-0.038866447
-0.040776337
-0.042922586
-0.045276338
-0.047793142
-0.050411874
-0.053053775
-0.055621941
-0.058001473
-0.060060616
-0.061653149
-0.06262261
-0.062808504
-0.062051437
-0.060212432
-0.057179929
-0.05289231
-0.04736055
-0.040694304
-0.033128564
-0.025044672
-0.016975162
-0.0095790143
-0.0035760573
0.00037289201
0.0018593827
0.00084627069
-0.0028632941
-0.0096498009
-0.031782981
-0.033220114
-0.034179529
-0.034863908
-0.035433566
-0.035960581
-0.036526664
-0.037213786
-0.038090056
-0.0392071
-0.040600014
-0.042287791
-0.044273662
-0.046545117
-0.04907345
-0.051812858
-0.054699373
-0.057649839
-0.060561278
-0.063310766
-0.065756385
-0.067739117
-0.069086654
-0.069618863
-0.069154584
-0.067524886
-0.064585193
-0.060235495
-0.054444418
-0.047278762
-0.038936985
-0.029781712
-0.020360849
-0.011401228
-0.0037562312
0.0017196082
0.0044049129
0.004091113
0.00043847839
-0.007010684
-0.035909696
-0.037432808
-0.038399908
-0.039019147
-0.039465767
-0.039829553
-0.040214091
-0.040722791
-0.041441713
-0.042436107
-0.043750602
-0.045410229
-0.047421454
-0.049772788
-0.052434751
-0.055359264
-0.058478691
-0.061704849
-0.064928319
-0.068018196
-0.070822722
-0.073170991
-0.07487619
-0.075740504
-0.075562057
-0.074145708
-0.071315762
-0.066935139
-0.060929404
-0.053318022
-0.044252653
-0.034059694
-0.023278354
-0.01267765
-0.0032279069
0.0040163155
0.0081825868
0.0088258227
0.0053887932
-0.0027073766
-0.040247838
-0.041926515
-0.042909427
-0.043424704
-0.043679137
-0.043791903
-0.0438991
-0.04413387
-0.044605513
-0.045395633
-0.046559276
-0.048127157
-0.050107885
-0.052489523
-0.055240208
-0.058308052
-0.061620382
-0.065082896
-0.068578869
-0.071968964
-0.075091549
-0.077764224
-0.079786604
-0.080944728
-0.081017509
-0.079786949
-0.077048878
-0.072632156
-0.066421345
-0.058388035
-0.048631539
-0.037428693
-0.025287207
-0.012988277
-0.0015914489
0.0076573434
0.013607607
0.015510146
0.01249327
0.0037856663
-0.044842558
-0.046775639
-0.047778824
-0.048127586
-0.048089482
-0.047831764
-0.047537898
-0.047381047
-0.047499352
-0.047992851
-0.048926807
-0.050336084
-0.052229223
-0.054591411
-0.057386033
-0.060555196
-0.064019242
-0.067676082
-0.071400521
-0.075043813
-0.078433959
-0.081376994
-0.083659269
-0.085051594
-0.085315497
-0.084210641
-0.081508889
-0.077008194
-0.070555681
-0.062077661
-0.051620349
-0.039403442
-0.025885035
-0.011828646
0.0016522336
0.013143826
0.021206263
0.024723055
0.022388683
0.013128269
-0.049788104
-0.052111047
-0.053125129
-0.053204032
-0.052726302
-0.051935922
-0.051083296
-0.050393168
-0.050037257
-0.050134345
-0.050757748
-0.051943106
-0.053695138
-0.055992513
-0.0587908
-0.062023173
-0.06560044
-0.069410761
-0.073318814
-0.077165207
-0.080766716
-0.083917447
-0.086390087
-0.087939933
-0.088311494
-0.087245218
-0.084489113
-0.079813524
-0.073031984
-0.064029465
-0.052801683
-0.039509073
-0.024548465
-0.0086400588
0.0070866363
0.021085235
0.031632093
0.037190521
0.035880999
0.02615784
-0.055264012
-0.058153906
-0.05913366
-0.058769276
-0.057634622
-0.056092074
-0.054482383
-0.053092636
-0.052129822
-0.051728226
-0.051963871
-0.052867214
-0.054433361
-0.05663005
-0.059400172
-0.062665301
-0.06632335
-0.070250619
-0.0742999
-0.078299828
-0.082054753
-0.0853454
-0.087930528
-0.089550279
-0.089931466
-0.088794839
-0.085865538
-0.080887534
-0.073642988
-0.063978461
-0.051842389
-0.037336643
-0.020790607
-0.0028612546
0.015342463
0.032183964
0.045675829
0.053819484
0.05400133
0.043963357
-0.061602561
-0.065271518
-0.066089632
-0.064988516
-0.062874641
-0.060284396
-0.057672178
-0.055392941
-0.053683976
-0.052685769
-0.052466998
-0.053043627
-0.05439323
-0.056467764
-0.059190046
-0.062467161
-0.06618193
-0.070195954
-0.074348457
-0.078454794
-0.08230588
-0.085668429
-0.088286334
-0.089883488
-0.090168454
-0.0888414
-0.085603762
-0.080172409
-0.072297429
-0.061787201
-0.048542901
-0.032606831
-0.014235876
0.0059950393
0.027030353
0.04719238
0.064260629
0.075736993
0.078089378
0.068019593
-0.069419471
-0.074070071
-0.074421537
-0.072086304
-0.06851568
-0.064483518
-0.06057095
-0.057193036
-0.05460032
-0.052920935
-0.052199755
-0.052425522
-0.053548736
-0.05549394
-0.05816465
-0.06144576
-0.065202496
-0.069280485
-0.073503973
-0.07767405
-0.081567526
-0.084936646
-0.087509913
-0.088994307
-0.089079373
-0.087443548
-0.083762348
-0.077723205
-0.06904044
-0.057479321
-0.042887761
-0.025241895
-0.004714152
0.01823319
0.042628661
0.066822051
0.08840224
0.10432559
0.10992052
0.10044471
-0.079879504
-0.085546497
-0.084750436
-0.080342566
-0.074613953
-0.068622333
-0.063058173
-0.058362603
-0.054762885
-0.052343395
-0.05110099
-0.050979307
-0.051889592
-0.053722386
-0.056353293
-0.059643206
-0.063437681
-0.067565088
-0.071834124
-0.076031426
-0.079919789
-0.08323723
-0.085697117
-0.086989655
-0.086785202
-0.084739721
-0.080500253
-0.073721729
-0.064076443
-0.051277011
-0.035104383
-0.015447812
0.0076342797
0.033813191
0.062297256
0.09155589
0.119075
0.14121639
0.15190257
0.14450643
-0.095260152
-0.10132677
-0.097903868
-0.090028475
-0.081135831
-0.072526893
-0.064918264
-0.058698391
-0.054005829
-0.05083294
-0.049094941
-0.04866867
-0.049412085
-0.051174052
-0.053797006
-0.057116101
-0.06095625
-0.065128622
-0.069427031
-0.073624684
-0.077471615
-0.080693006
-0.082988543
-0.084033044
-0.083478801
-0.080959605
-0.076093635
-0.068499778
-0.057801671
-0.043646871
-0.025728728
-0.0038177486
0.022188662
0.052176148
0.085628387
0.12130566
0.15687626
0.18813585
0.20731224
0.20545115
-0.12010757
-0.12401117
-0.11481448
-0.10120817
-0.087765593
-0.075754468
-0.065713881
-0.057829554
-0.052044639
-0.048189126
-0.046054364
-0.045425461
-0.046093966
-0.047860846
-0.050533825
-0.053922527
-0.057832624
-0.062060184
-0.0663866
-0.070574288
-0.07436329
-0.077468835
-0.079579934
-0.08035913
-0.079443644
-0.076446777
-0.070961463
-0.062568212
-0.050837954
-0.035341939
-0.015662975
0.0085881185
0.037743252
0.0720135
0.11133694
0.15507649
0.20149548
0.24646058
0.28028181
0.2912776
-0.16346175
-0.15746123
-0.13629143
-0.11349912
-0.093684542
-0.077424791
-0.064684608
-0.055173066
-0.048469218
-0.044147258
-0.041826684
-0.041179564
-0.041924078
-0.043813665
-0.046625084
-0.050147305
-0.054171809
-0.058484486
-0.062858987
-0.0670514
-0.070796127
-0.073802815
-0.07575435
-0.076306021
-0.075085422
-0.071687979
-0.065689082
-0.056633327
-0.044040557
-0.027401749
-0.0061734535
0.020230957
0.052450649
0.091169523
0.13704555
0.19054271
0.25139786
0.31628994
0.37508397
0.41415011
-0.24544996
-0.20546446
-0.16138943
-0.12499708
-0.096858076
-0.075814857
-0.060579034
-0.049907901
-0.042783058
-0.038435288
-0.036288258
-0.035902825
-0.036935413
-0.039106
-0.042173583
-0.045917865
-0.050125653
-0.054580612
-0.059055452
-0.063305928
-0.067066267
-0.070045777
-0.071926486
-0.07236204
-0.070976722
-0.06735666
-0.061069358
-0.051630993
-0.038521915
-0.021164805
0.0011013143
0.029064552
0.06371209
0.10633288
0.15863543
0.22288618
0.3015967
0.39423632
0.49496821
0.60190918
-0.42463167
-0.26487812
-0.17648868
-0.12412766
-0.088867619
-0.065087912
-0.049475706
-0.039413511
-0.033191595
-0.029770181
-0.028476174
-0.028840004
-0.030516071
-0.033234021
-0.036765857
-0.040904074
-0.045446936
-0.050188086
-0.05490891
-0.059372808
-0.063320874
-0.066468638
-0.068503475
-0.069081784
-0.067820494
-0.064344022
-0.058186895
-0.048864597
-0.035842872
-0.018511671
0.0038527849
0.032159341
0.067634732
0.11206717
0.1682465
0.24075688
0.33676994
0.46460682
0.64174177
0.91954174
-0.79242358
-0.32353251
-0.14820611
-0.087168484
-0.055068932
-0.035984163
-0.025274012
-0.019491467
-0.016654354
-0.015829207
-0.016529831
-0.018445886
-0.021352029
-0.025066487
-0.029425918
-0.034270219
-0.039433083
-0.044735413
-0.049980287
-0.054948977
-0.059397785
-0.063055615
-0.06562237
-0.066769154
-0.066143221
-0.063321256
-0.057890049
-0.049376967
-0.037257617
-0.020939159
0.00027703632
0.027264491
0.061206626
0.1038786
0.15828741
0.23028353
0.33256481
0.49278806
0.78870589
1.3824615
-1.2172783e-05
-0.00014671013
-0.00043220055
-0.00079663367
-0.0011693192
-0.0015101512
-0.0017907049
-0.0019937355
-0.0021096543
-0.0021334487
-0.002062744
-0.001896669
-0.0016352389
-0.001279299
-0.00083076129
-0.00029300519
0.00032857312
0.0010259608
0.0017880332
0.0026002354
0.0034444838
0.0042993572
0.0051405888
0.0059419477
0.0066764537
0.007317863
0.0078423518
0.008230279
0.0084678652
0.0085486481
0.0084745788
0.0082566514
0.0079150466
0.0074789544
0.0069858146
0.0064772857
0.006007743
0.0056283625
0.0053986649
0.0053550711
0.00012194869
-1.4694443e-05
-0.00024261498
-0.00051986111
-0.00080455598
-0.0010652988
-0.0012797838
-0.0014331551
-0.0015160095
-0.0015226319
-0.0014496901
-0.0012954483
-0.0010592885
-0.00074160988
-0.00034397315
0.00013060269
0.00067723013
0.001288708
0.0019551538
0.0026637694
0.0033987736
0.0041416863
0.0048716213
0.0055661797
0.0062024652
0.0067583671
0.0072140035
0.00755322
0.0077650095
0.0078447171
0.0077949115
0.0076258238
0.0073553056
0.0070083597
0.0066162
0.006214524
0.0058425659
0.0055403724
0.0053511287
0.0053107021
0.00041310529
0.00020958465
-2.3313922e-05
-0.00027299
-0.00051940105
-0.00073980977
-0.00091774613
-0.0010420753
-0.0011052903
-0.0011024653
-0.001030467
-0.00088741229
-0.0006723404
-0.00038519557
-2.6987206e-05
0.00039993864
0.0008915251
0.0014415963
0.0020415163
0.0026799706
0.0033429308
0.0040137728
0.0046737145
0.0053025004
0.0058793649
0.006384219
0.0067989975
0.0071090592
0.0073045029
0.0073812715
0.0073419204
0.0071959459
0.0069596108
0.0066552847
0.0063103347
0.0059556076
0.0056236346
0.0053467778
0.0051579662
0.005086086
0.0007944868
0.00048663098
0.00021289145
-4.2856185e-05
-0.00028049558
-0.00048469343
-0.00064458247
-0.00075336669
-0.00080634417
-0.00080021736
-0.00073267539
-0.00060208456
-0.00040732091
-0.00014785265
0.00017602841
0.00056288506
0.001009729
0.0015115876
0.0020611367
0.0026484455
0.003260885
0.003883186
0.0044978449
0.0050857264
0.0056269914
0.0061022571
0.0064939268
0.0067875885
0.0069733381
0.0070468824
0.0070102824
0.0068722256
0.0066477599
0.0063574978
0.0060263397
0.0056818563
0.0053527767
0.0050672746
0.0048489809
0.004712043
0.0011963425
0.00077220711
0.00044197106
0.00016393764
-8.0194562e-05
-0.00028150187
-0.00043439272
-0.0005364937
-0.00058615263
-0.00058199164
-0.00052277018
-0.00040725234
-0.00023418964
-2.5174761e-06
0.00028831951
0.00063796319
0.0010446727
0.001504831
0.0020125136
0.0025591566
0.0031333785
0.0037210075
0.0043053629
0.0048678385
0.0053888006
0.0058487523
0.0062296985
0.0065166001
0.0066987675
0.0067710293
0.0067345164
0.0065969329
0.0063722379
0.0060797458
0.0057426861
0.0053864612
0.0050374966
0.0047215546
0.0044526373
0.0042306332
0.0015723012
0.0010276046
0.00063271743
0.00032214824
6.0803804e-05
-0.00014784487
-0.00030296913
-0.00040639663
-0.00045947564
-0.00046278159
-0.00041618662
-0.0003188656
-0.00016940936
3.3861818e-05
0.00029247095
0.00060728608
0.00097796571
0.001402378
0.0018760738
0.0023918555
0.0029394959
0.0035056829
0.0040742011
0.0046264846
0.0051424892
0.0056018826
0.0059854777
0.0062767909
0.0064635655
0.006539073
0.006503004
0.0063618041
0.0061283669
0.0058210749
0.0054622118
0.0050760911
0.004688317
0.0043240202
0.0039890454
0.0036695198
0.0018821352
0.0012184904
0.00075579554
0.00040673649
0.00012103059
-0.00010252224
-0.00026733961
-0.00037910307
-0.00044195035
-0.00045827949
-0.00042897496
-0.00035352987
-0.00023027782
-5.6808485e-05
0.0001695069
0.00045091439
0.00078862416
0.0011821287
0.0016285603
0.0021221333
0.0026537404
0.0032107949
0.0037772966
0.004334341
0.0048609598
0.0053353444
0.0057363704
0.0060452968
0.0062474725
0.0063338404
0.0063020167
0.0061567752
0.0059098292
0.0055788727
0.0051858787
0.0047550984
0.004312743
0.0038850642
0.0034715994
0.003046276
0.0020920755
0.0013142027
0.00078389479
0.00039369953
7.9444995e-05
-0.00016419998
-0.00034446615
-0.00047052063
-0.00054900012
-0.00058389499
-0.00057691763
-0.00052771709
-0.00043421785
-0.00029312782
-0.00010055272
0.00014730507
0.0004533897
0.00081899637
0.0012430012
0.0017211597
0.0022455561
0.0028043307
0.0033815815
0.003957825
0.0045107755
0.0050165942
0.0054515128
0.0057936995
0.0060252
0.0061337193
0.0061139904
0.0059685096
0.0057075058
0.0053480577
0.0049123262
0.0044254291
0.0039155191
0.0034116295
0.0029087089
0.002369941
0.0021727991
0.0012869419
0.00069120399
0.00025937391
-8.5623493e-05
-0.00035290837
-0.00055318169
-0.00069874895
-0.00079844148
-0.00085757866
-0.00087847249
-0.00086072958
-0.00080168473
-0.00069698377
-0.00054127618
-0.00032900787
-5.5278673e-05
0.00028324826
0.00068744021
0.0011548312
0.0016788985
0.0022486885
0.0028484145
0.0034579324
0.004053377
0.0046084109
0.0050959352
0.0054901431
0.0057687421
0.005915101
0.0059200173
0.0057828417
0.0055117598
0.0051230964
0.0046395359
0.0040878773
0.0034994773
0.0029077449
0.0023044332
0.0016428659
0.0020978622
0.00111119
0.00045342039
-1.9222377e-05
-0.00039592064
-0.00068937085
-0.0009134852
-0.0010834045
-0.0012098665
-0.0012992639
-0.0013542797
-0.0013742717
-0.001355789
-0.0012932174
-0.001179538
-0.0010072016
-0.00076907844
-0.00045947518
-7.5183472e-05
0.00038347773
0.00091173364
0.0014999397
0.0021325916
0.0027889963
0.0034436063
0.0040672199
0.0046287521
0.0050974761
0.0054455712
0.0056507229
0.005698426
0.005583666
0.0053116843
0.0048976203
0.0043648011
0.0037423824
0.0030661288
0.0023753995
0.0016597875
0.00086299174
0.0018429961
0.0007634228
4.7831148e-05
-0.00046400039
-0.0008726348
-0.0011942124
-0.0014456573
-0.0016446904
-0.0018037107
-0.001929959
-0.0020262826
-0.0020915966
-0.0021214752
-0.0021088456
-0.0020447953
-0.0019195107
-0.0017233031
-0.0014477265
-0.0010867678
-0.00063805255
-0.00010396761
0.00050735897
0.0011815139
0.0018975087
0.0026281934
0.0033412888
0.0040011358
0.0045711007
0.0050164769
0.0053076291
0.0054229848
0.0053514873
0.0050940703
0.0046638472
0.0040845982
0.0033883204
0.0026163372
0.0018155677
0.00097415888
2.5792254e-05
0.0013858813
0.00022206794
-0.00054655312
-0.0010954824
-0.0015359183
-0.0018873542
-0.0021695717
-0.0024026629
-0.002600491
-0.0027709625
-0.0029169213
-0.0030366805
-0.0031246764
-0.0031721946
-0.0031682042
-0.0031003379
-0.0029559737
-0.0027234371
-0.0023933255
-0.0019598877
-0.0014223689
-0.00078653176
-6.4991919e-05
0.00072160057
0.0015448741
0.0023694903
0.0031547705
0.0038572017
0.0044336892
0.0048453239
0.0050612338
0.0050620608
0.0048424525
0.0044120825
0.0037945439
0.0030248847
0.0021510697
0.0012292825
0.00024669774
-0.00087396463
0.00070620495
-0.00053238204
-0.0013487797
-0.0019324466
-0.0024044013
-0.0027874134
-0.0031039961
-0.0033764447
-0.003619936
-0.003842914
-0.0040481052
-0.0042331124
-0.0043911164
-0.0045116131
-0.0045812488
-0.004584812
-0.0045063445
-0.0043304025
-0.0040434982
-0.0036356739
-0.003102122
-0.0024448761
-0.0016739552
-0.00080862286
0.00012229087
0.0010807442
0.002020851
0.0028913642
0.0036392264
0.0042140054
0.0045727803
0.0046849264
0.0045360224
0.0041301029
0.0034892804
0.0026514452
0.0016721687
0.00061874108
-0.00052230069
-0.0018405893
-0.00021402273
-0.0015170834
-0.0023756078
-0.0029914947
-0.0034946577
-0.0039110593
-0.0042658348
-0.0045833486
-0.0048799901
-0.0051646734
-0.0054399593
-0.0057026991
-0.0059447642
-0.0061537686
-0.0063138742
-0.00640676
-0.0064127262
-0.0063119816
-0.006086174
-0.0057201445
-0.0052038257
-0.0045342451
-0.0037173075
-0.0027694995
-0.0017189011
-0.00060543229
0.00052003777
0.0015979507
0.0025637811
0.0033531136
0.0039077108
0.0041819106
0.0041484298
0.0038024116
0.0031622659
0.0022678751
0.0011831456
-1.1536907e-05
-0.0013299774
-0.002875874
-0.0013900195
-0.0027464585
-0.0036411139
-0.0042865986
-0.0048206616
-0.0052723534
-0.0056693327
-0.0060379301
-0.0063957018
-0.0067520319
-0.0071093443
-0.0074637783
-0.0078059229
-0.0081214947
-0.0083920793
-0.0085960352
-0.0087095491
-0.0087079052
-0.0085670686
-0.0082655867
-0.0077867601
-0.0071210263
-0.0062683414
-0.005240553
-0.0040632244
-0.0027767189
-0.0014360633
-0.00010920173
0.0011266589
0.0021906325
0.0030054648
0.0035058413
0.0036466293
0.0034094595
0.0028055253
0.0018748759
0.00069003089
-0.00065344847
-0.0021693738
-0.0039774057
-0.0028337357
-0.0042317908
-0.005156307
-0.0058286719
-0.0063932666
-0.0068820989
-0.007325263
-0.0077509904
-0.0081780198
-0.0086162826
-0.0090681805
-0.0095292743
-0.0099889922