/*--------------------------------*- C++ -*----------------------------------*\
  =========                 |
  \\      /  F ield         | OpenFOAM: The Open Source CFD Toolbox
   \\    /   O peration     | Website:  https://openfoam.org
    \\  /    A nd           | Version:  7
     \\/     M anipulation  |
\*---------------------------------------------------------------------------*/
FoamFile
{
    version     2.0;
    format      ascii;
    class       surfaceScalarField;
    location    "6";
    object      phi;
}
// * * * * * * * * * * * * * * * * * * * * * * * * * * * * * * * * * * * * * //

dimensions      [0 3 -1 0 0 0 0];

internalField   nonuniform List<scalar> 
45600
(
2.5398918e-07
-2.4707772e-07
1.5243273e-10
3.4931139e-07
-9.5400027e-08
5.9906893e-11
7.3857226e-08
2.7540632e-07
5.8857021e-11
-5.9124458e-07
6.6503488e-07
6.1531805e-11
-1.6067148e-06
1.0154076e-06
5.9850274e-11
-2.9066897e-06
1.2999176e-06
5.7193418e-11
-4.4222666e-06
1.5155196e-06
5.3163733e-11
-6.0903216e-06
1.6680042e-06
4.8231227e-11
-7.855687e-06
1.7653191e-06
4.3637465e-11
-9.6705956e-06
1.8148683e-06
3.9488685e-11
-1.1493033e-05
1.8224052e-06
3.5839568e-11
-1.3284792e-05
1.7917238e-06
3.2204616e-11
-1.5009618e-05
1.7247941e-06
2.8572125e-11
-1.6631788e-05
1.6221467e-06
2.5487996e-11
-1.8115233e-05
1.4834224e-06
2.2997812e-11
-1.9423254e-05
1.3079972e-06
2.0601377e-11
-2.051889e-05
1.095614e-06
1.8019605e-11
-2.1365888e-05
8.4698286e-07
1.5304642e-11
-2.1930218e-05
5.6431812e-07
1.253805e-11
-2.2182008e-05
2.5177946e-07
9.830297e-12
-2.2097784e-05
-8.4234137e-08
7.0978608e-12
-2.1662789e-05
-4.3499956e-07
4.2824988e-12
-2.0873308e-05
-7.8948002e-07
1.5288382e-12
-1.9738612e-05
-1.1346912e-06
-1.1441567e-12
-1.8282378e-05
-1.4562277e-06
-3.7222382e-12
-1.6543354e-05
-1.7390169e-06
-6.0339152e-12
-1.4575084e-05
-1.9682627e-06
-7.9406946e-12
-1.2444571e-05
-2.1305034e-06
-9.3682141e-12
-1.0229869e-05
-2.2146918e-06
-1.0179024e-11
-8.01666e-06
-2.2131982e-06
-1.023861e-11
-5.8940161e-06
-2.1226334e-06
-9.5637244e-12
-3.9495903e-06
-1.9444177e-06
-8.2264893e-12
-2.2645195e-06
-1.6850661e-06
-6.2068357e-12
-9.0821785e-07
-1.356301e-06
-3.4653908e-12
6.7589302e-08
-9.7581018e-07
-2.7369682e-13
6.3815527e-07
-5.7057123e-07
1.809432e-12
8.0862528e-07
-1.7047834e-07
5.0087116e-12
6.3695321e-07
1.7166016e-07
8.6416457e-12
2.7015184e-07
3.6678522e-07
1.2522222e-11
2.7014214e-07
6.5232179e-12
1.056108e-07
-3.5276751e-07
6.1540542e-11
-3.3215574e-07
3.4231501e-07
5.8122324e-11
-1.5879539e-06
1.5311388e-06
5.7478155e-11
-3.7151419e-06
2.7921709e-06
5.4184543e-11
-6.6425669e-06
3.9427942e-06
4.8389464e-11
-1.0246184e-05
4.9034985e-06
4.0626217e-11
-1.4381726e-05
5.6510236e-06
3.2063822e-11
-1.890466e-05
6.1909159e-06
2.4065498e-11
-2.3679258e-05
6.5399072e-06
1.7778036e-11
-2.8581019e-05
6.7166161e-06
1.2534455e-11
-3.3495608e-05
6.7369875e-06
8.1463212e-12
-3.8316305e-05
6.6124207e-06
4.5558369e-12
-4.2941114e-05
6.3496058e-06
1.9051034e-12
-4.7270396e-05
5.9514299e-06
4.9001738e-13
-5.1205488e-05
5.4185139e-06
2.0745588e-13
-5.4648574e-05
4.7510817e-06
5.5668638e-13
-5.7503897e-05
3.9509375e-06
1.2842187e-12
-5.9680286e-05
3.023369e-06
2.5087469e-12
-6.1094799e-05
1.9788249e-06
4.2633027e-12
-6.1677244e-05
8.3421496e-07
6.5712729e-12
-6.1375423e-05
-3.8606586e-07
9.2755791e-12
-6.0159957e-05
-1.6504773e-06
1.2155307e-11
-5.8029662e-05
-2.9197891e-06
1.5080748e-11
-5.5015361e-05
-4.1490111e-06
1.7920178e-11
-5.1182706e-05
-5.2889072e-06
2.0472948e-11
-4.663317e-05
-6.2885812e-06
2.2635656e-11
-4.1502906e-05
-7.0985583e-06
2.435241e-11
-3.595923e-05
-7.6742108e-06
2.5515259e-11
-3.0194688e-05
-7.9792643e-06
2.6036428e-11
-2.441883e-05
-7.9890864e-06
2.5921327e-11
-1.8848021e-05
-7.6934724e-06
2.5141029e-11
-1.3693739e-05
-7.098729e-06
2.3627771e-11
-9.1498059e-06
-6.2290254e-06
2.1462454e-11
-5.3788064e-06
-5.1273245e-06
1.8836208e-11
-2.4977667e-06
-3.8568696e-06
1.5811694e-11
-5.6444449e-07
-2.5039087e-06
1.2406304e-11
4.4789708e-07
-1.1828299e-06
9.0017708e-12
6.7195684e-07
-5.2405449e-08
7.1786115e-12
3.697161e-07
6.6902036e-07
7.8874728e-12
6.3985501e-07
1.6985764e-12
-2.7426429e-07
-7.8544754e-08
5.2647539e-11
-1.5624318e-06
1.6304068e-06
6.2155293e-11
-4.0607862e-06
4.0294283e-06
5.9020975e-11
-7.7760567e-06
6.5073887e-06
5.7777003e-11
-1.2604214e-05
8.7708908e-06
5.5071114e-11
-1.8378603e-05
1.0677832e-05
4.9469966e-11
-2.4904724e-05
1.2177101e-05
4.3226163e-11
-3.198227e-05
1.3268424e-05
3.7391516e-11
-3.9416919e-05
1.3974522e-05
3.2360987e-11
-4.7024928e-05
1.4324599e-05
2.762394e-11
-5.4633349e-05
1.4345386e-05
2.3274284e-11
-6.2078008e-05
1.4057058e-05
1.9449017e-11
-6.9200818e-05
1.3472397e-05
1.64058e-11
-7.5847533e-05
1.2598132e-05
1.4318827e-11
-8.1866656e-05
1.1437625e-05
1.2908393e-11
-8.7109881e-05
9.9942931e-06
1.1664607e-11
-9.1434244e-05
8.2752869e-06
1.0424894e-11
-9.4705926e-05
6.2950398e-06
9.4143083e-12
-9.6805483e-05
4.0783725e-06
8.7688263e-12
-9.7634181e-05
1.6629051e-06
8.4535321e-12
-9.7120822e-05
-8.9943146e-07
8.2988241e-12
-9.5228832e-05
-3.5424725e-06
8.1634838e-12
-9.1962641e-05
-6.185986e-06
8.0169169e-12
-8.7372913e-05
-8.7387444e-06
7.8211449e-12
-8.155994e-05
-1.1101887e-05
7.5691256e-12
-7.467461e-05
-1.3173918e-05
7.3146827e-12
-6.6916503e-05
-1.4856674e-05
7.102898e-12
-5.8528778e-05
-1.6061944e-05
6.9194789e-12
-4.9789767e-05
-1.6718282e-05
6.7580201e-12
-4.1001413e-05
-1.6777448e-05
6.6874787e-12
-3.2474897e-05
-1.6219997e-05
6.7111323e-12
-2.4514029e-05
-1.5059606e-05
6.7464343e-12
-1.7397023e-05
-1.3346043e-05
6.7970706e-12
-1.1357245e-05
-1.1167114e-05
6.9170139e-12
-6.5635279e-06
-8.6505987e-06
7.0918667e-12
-3.0997263e-06
-5.9677216e-06
7.3100547e-12
-9.4244146e-07
-3.3401256e-06
7.3615035e-12
5.9560052e-08
-1.054417e-06
7.6782772e-12
2.1181643e-07
5.1675678e-07
8.7232449e-12
8.5166657e-07
5.0634018e-12
-7.0563083e-07
6.2703289e-07
5.0812743e-11
-2.9797685e-06
3.9044829e-06
6.5066895e-11
-6.8500645e-06
7.8996703e-06
5.8165752e-11
-1.2235403e-05
1.189267e-05
5.5472147e-11
-1.89729e-05
1.5508334e-05
5.2982481e-11
-2.6849472e-05
1.855435e-05
4.7937811e-11
-3.5627648e-05
2.0955234e-05
4.2683616e-11
-4.5063887e-05
2.270463e-05
3.7907109e-11
-5.4919343e-05
2.3829947e-05
3.3411107e-11
-6.4964597e-05
2.4369822e-05
2.8798105e-11
-7.4980367e-05
2.4361131e-05
2.4539977e-11
-8.4756021e-05
2.3832691e-05
2.099537e-11
-9.4087385e-05
2.2803744e-05
1.8275491e-11
-0.00010277502
2.1285751e-05
1.6282402e-11
-0.00011062372
1.928631e-05
1.4664105e-11
-0.00011744372
1.6814275e-05
1.306083e-11
-0.00012305373
1.3885287e-05
1.1504286e-11
-0.00012728582
1.0527119e-05
1.0197492e-11
-0.00012999178
6.7843285e-06
9.231386e-12
-0.00013105069
2.7218041e-06
8.5851881e-12
-0.00013037691
-1.5732185e-06
8.0252188e-12
-0.0001279284
-5.9909885e-06
7.3740929e-12
-0.00012371396
-1.0400435e-05
6.6824819e-12
-0.00011779925
-1.4653463e-05
5.9791278e-12
-0.00011031064
-1.8590507e-05
5.2842366e-12
-0.00010143625
-2.2048319e-05
4.6472571e-12
-9.1423652e-05
-2.4869275e-05
4.1463303e-12
-8.0573856e-05
-2.6911747e-05
3.8147899e-12
-6.923132e-05
-2.8060824e-05
3.6297504e-12
-5.7770163e-05
-2.823861e-05
3.6226001e-12
-4.6576875e-05
-2.7413289e-05
3.7985736e-12
-3.6030165e-05
-2.5606322e-05
4.1036174e-12
-2.6478768e-05
-2.2897446e-05
4.5743597e-12
-1.8218185e-05
-1.9427705e-05
5.1673692e-12
-1.1467361e-05
-1.540143e-05
5.770413e-12
-6.3460991e-06
-1.108899e-05
6.4850413e-12
-2.8535909e-06
-6.8326419e-06
7.3627851e-12
-8.5150689e-07
-3.05651e-06
7.9231192e-12
-5.2154704e-08
-2.826014e-07
7.5639067e-12
7.9950553e-07
7.8664529e-12
-1.1418758e-06
1.7688613e-06
4.2777608e-11
-4.4347776e-06
7.1973248e-06
6.5389588e-11
-9.723793e-06
1.3188634e-05
5.4182911e-11
-1.6809426e-05
1.8978244e-05
4.9283358e-11
-2.5450437e-05
2.4149295e-05
4.6762519e-11
-3.5378252e-05
2.8482123e-05
4.2186479e-11
-4.6311926e-05
3.1888872e-05
3.7473575e-11
-5.7969832e-05
3.4362505e-05
3.2989325e-11
-7.0076879e-05
3.5936965e-05
2.8526231e-11
-8.2367605e-05
3.6660522e-05
2.4057853e-11
-9.4586297e-05
3.6579804e-05
2.021577e-11
-0.00010648549
3.5731864e-05
1.7278084e-11
-0.00011782404
3.4142288e-05
1.5098082e-11
-0.00012836592
3.1827619e-05
1.3414157e-11
-0.00013788027
2.8800642e-05
1.1991068e-11
-0.00014614328
2.5077269e-05
1.0637048e-11
-0.00015294201
2.0684008e-05
9.4952264e-12
-0.00015808004
1.5665149e-05
8.7426088e-12
-0.00016138471
1.0088991e-05
8.3463834e-12
-0.00016271544
4.0525256e-06
8.2434097e-12
-0.00016197272
-2.315951e-06
8.2130424e-12
-0.00015910703
-8.8566822e-06
8.0796943e-12
-0.00015412707
-1.5380401e-05
7.8556157e-12
-0.00014710644
-2.1674102e-05
7.5907674e-12
-0.00013818813
-2.750883e-05
7.3419382e-12
-0.00012758604
-3.2650412e-05
7.1269002e-12
-0.00011558294
-3.687239e-05
6.9660275e-12
-0.00010252417
-3.9970521e-05
6.8669803e-12
-8.8807059e-05
-4.1777944e-05
6.7900898e-12
-7.4865712e-05
-4.2179965e-05
6.7651224e-12
-6.1151711e-05
-4.1127299e-05
6.811767e-12
-4.8111261e-05
-3.864678e-05
6.852268e-12
-3.6159867e-05
-3.4848849e-05
6.9764801e-12
-2.5655853e-05
-2.9931728e-05
7.1706907e-12
-1.6874307e-05
-2.4182985e-05
7.2630322e-12
-9.9830896e-06
-1.7980215e-05
7.4284047e-12
-5.022615e-06
-1.1793124e-05
8.1038035e-12
-1.8924643e-06
-6.1866684e-06
7.8845145e-12
-3.4713375e-07
-1.827935e-06
4.9585662e-12
4.5236378e-07
1.0006092e-11
-1.5594763e-06
3.3283063e-06
3.472611e-11
-5.8585034e-06
1.1496281e-05
6.3817071e-11
-1.2560272e-05
1.9890351e-05
4.8518945e-11
-2.1335826e-05
2.7753752e-05
4.2936394e-11
-3.1853708e-05
3.4667135e-05
4.1627042e-11
-4.3782087e-05
4.0410466e-05
3.7996908e-11
-5.6793779e-05
4.490053e-05
3.3832548e-11
-7.0570674e-05
4.8139372e-05
2.9618583e-11
-8.4806205e-05
5.0172469e-05
2.5402598e-11
-9.9205581e-05
5.1059875e-05
2.1425701e-11
-0.00011348437
5.0858574e-05
1.823865e-11
-0.00012736629
4.961377e-05
1.5873043e-11
-0.00014058116
4.735715e-05
1.4017401e-11
-0.00015286382
4.4110269e-05
1.2403877e-11
-0.00016395457
3.9891371e-05
1.0999395e-11
-0.00017360146
3.4724157e-05
9.7654965e-12
-0.00018156469
2.8647226e-05
8.8231534e-12
-0.00018762268
2.1723135e-05
8.2927746e-12
-0.00019157991
1.4046214e-05
8.0961767e-12
-0.00019327582
5.7484318e-06
8.1168707e-12
-0.00019259447
-2.9973168e-06
8.1469425e-12
-0.00018947411
-1.1977045e-05
8.0675015e-12
-0.0001839164
-2.0938119e-05
7.8862688e-12
-0.00017599402
-2.9596495e-05
7.6678707e-12
-0.00016585627
-3.7646588e-05
7.4932924e-12
-0.00015373172
-4.4774971e-05
7.3653694e-12
-0.00013992707
-5.0677045e-05
7.2870229e-12
-0.00012482161
-5.5075989e-05
7.2688916e-12
-0.00010885666
-5.7742902e-05
7.2361861e-12
-9.2519853e-05
-5.851678e-05
7.1859041e-12
-7.6324385e-05
-5.7322775e-05
7.1837938e-12
-6.0783932e-05
-5.418724e-05
7.1874393e-12
-4.6384432e-05
-4.9248356e-05
7.2813815e-12
-3.3554447e-05
-4.2761722e-05
7.4239716e-12
-2.2636242e-05
-3.5101198e-05
7.445718e-12
-1.385997e-05
-2.6756497e-05
7.5985259e-12
-7.3235499e-06
-1.8329553e-05
8.5974811e-12
-2.9814295e-06
-1.0528796e-05
7.898996e-12
-6.4529612e-07
-4.1640686e-06
2.3929731e-12
-1.9294287e-07
1.2212888e-11
-1.9526261e-06
5.2809064e-06
2.609788e-11
-7.2213487e-06
1.6764935e-05
6.073102e-11
-1.5298182e-05
2.7967141e-05
4.2117098e-11
-2.5723857e-05
3.8179389e-05
3.6750365e-11
-3.8071885e-05
4.7015128e-05
3.686852e-11
-5.1942705e-05
5.4281253e-05
3.3936739e-11
-6.6960682e-05
5.9918475e-05
3.0084999e-11
-8.2771794e-05
6.3950457e-05
2.6202029e-11
-9.9041043e-05
6.6441695e-05
2.2536343e-11
-0.00011544921
6.7468023e-05
1.9312149e-11
-0.00013168921
6.7098559e-05
1.6809564e-11
-0.0001474626
6.5387144e-05
1.4880783e-11
-0.00016247685
6.2371394e-05
1.3223222e-11
-0.00017644405
5.8077457e-05
1.1654165e-11
-0.00018908131
5.2528609e-05
1.0303166e-11
-0.00020011318
4.5756027e-05
9.2414839e-12
-0.00020927623
3.7810265e-05
8.5188902e-12
-0.00021632533
2.8772229e-05
8.1396949e-12
-0.00022104176
1.8762637e-05
8.027383e-12
-0.00022324251
7.9491769e-06
8.0758689e-12
-0.00022279048
-3.4493523e-06
8.0796186e-12
-0.00021960486
-1.5162682e-05
7.9554471e-12
-0.0002136714
-2.6871582e-05
7.7208109e-12
-0.00020505154
-3.8216361e-05
7.4694411e-12
-0.00019388965
-4.8808485e-05
7.3053195e-12
-0.00018041757
-5.824706e-05
7.2014524e-12
-0.00016495537
-6.6139258e-05
7.1252611e-12
-0.00014790737
-7.2123994e-05
7.1092218e-12
-0.00012975268
-7.5897603e-05
7.0912218e-12
-0.00011102959
-7.7239876e-05
7.0484079e-12
-9.2313957e-05
-7.6038415e-05
7.033143e-12
-7.4192034e-05
-7.230917e-05
7.0299955e-12
-5.7229202e-05
-6.6211196e-05
7.1483927e-12
-4.1936622e-05
-5.8054309e-05
7.3006814e-12
-2.8738554e-05
-4.8299275e-05
7.3202601e-12
-1.7943423e-05
-3.7551638e-05
7.5787376e-12
-9.7219185e-06
-2.6551068e-05
9.0588083e-12
-4.0955948e-06
-1.6155128e-05
7.9415444e-12
-9.3923735e-07
-7.3204243e-06
-1.9409516e-13
-1.1321938e-06
1.4431749e-11
-2.3210702e-06
7.6019564e-06
1.717637e-11
-8.511976e-06
2.2955776e-05
5.7501996e-11
-1.7907277e-05
3.736241e-05
3.6205093e-11
-2.9922392e-05
5.0194472e-05
3.0951903e-11
-4.4036278e-05
6.1128981e-05
3.2044681e-11
-5.9780669e-05
7.0025612e-05
2.942844e-11
-7.6730975e-05
7.6868752e-05
2.5831669e-11
-9.4498165e-05
8.1717624e-05
2.2474773e-11
-0.00011272135
8.4664857e-05
1.9547925e-11
-0.00013106084
8.5807501e-05
1.7123283e-11
-0.00014919193
8.5229631e-05
1.516273e-11
-0.0001667996
8.2994797e-05
1.3482275e-11
-0.00018357473
7.9146518e-05
1.1950214e-11
-0.00019921211
7.3714819e-05
1.0512816e-11
-0.00021341039
6.672688e-05
9.3484015e-12
-0.00022587432
5.8219953e-05
8.5230683e-12
-0.00023631902
4.8254965e-05
8.0456715e-12
-0.00024447627
3.6929474e-05
7.8528112e-12
-0.00025010254
2.4388896e-05
7.8554643e-12
-0.00025298852
1.0835149e-05
7.9532496e-12
-0.00025296985
-3.4680303e-06
7.9673771e-12
-0.00024993826
-1.8194272e-05
7.8684136e-12
-0.00024385347
-3.2956385e-05
7.6680881e-12
-0.00023475398
-4.7315855e-05
7.469975e-12
-0.00022276688
-6.0795594e-05
7.3872955e-12
-0.00020811509
-7.2898856e-05
7.359863e-12
-0.00019112105
-8.3133307e-05
7.3076517e-12
-0.00017220544
-9.1039615e-05
7.2853224e-12
-0.00015187975
-9.6223301e-05
7.2612085e-12
-0.00013073176
-9.8387868e-05
7.224047e-12
-0.00010940353
-9.7366652e-05
7.1949959e-12
-8.8562265e-05
-9.3150444e-05
7.1516348e-12
-6.8865537e-05
-8.5907933e-05
7.222756e-12
-5.0923264e-05
-7.599659e-05
7.3201855e-12
-3.5259769e-05
-6.3962779e-05
7.2771897e-12
-2.227979e-05
-5.0531627e-05
7.5954088e-12
-1.2242444e-05
-3.6588426e-05
9.5544833e-12
-5.2470005e-06
-2.3150581e-05
7.9883284e-12
-1.2336838e-06
-1.1333738e-05
-2.8473816e-12
-2.3658945e-06
1.667257e-11
-2.6653743e-06
1.0267323e-05
9.0023406e-12
-9.7251487e-06
3.001549e-05
5.4854922e-11
-2.0370121e-05
4.8007356e-05
3.0906829e-11
-3.3898433e-05
6.3722756e-05
2.5369955e-11
-4.9698539e-05
7.6929059e-05
2.7109636e-11
-6.723542e-05
8.7562466e-05
2.4763017e-11
-8.6036915e-05
9.5670224e-05
2.1608811e-11
-0.00010568078
0.00010136147
1.9021329e-11
-0.00012578291
0.00010476697
1.6879711e-11
-0.00014598679
0.00010601136
1.5071465e-11
-0.00016595449
0.00010519732
1.3429121e-11
-0.0001853594
0.00010239969
1.1915508e-11
-0.00020388087
9.7667978e-05
1.0557388e-11
-0.00022120119
9.1035136e-05
9.3261872e-12
-0.00023700478
8.2530458e-05
8.4023267e-12
-0.00025097965
7.2194814e-05
7.8393664e-12
-0.00026282117
6.0096476e-05
7.5991402e-12
-0.00027223787
4.6346171e-05
7.5692683e-12
-0.00027895922
3.1110247e-05
7.661793e-12
-0.00028274516
1.4621076e-05
7.7766055e-12
-0.00028339727
-2.8159241e-06
7.776753e-12
-0.00028077063
-2.0820927e-05
7.7435938e-12
-0.00027478773
-3.8939289e-05
7.6368642e-12
-0.00026545146
-5.665213e-05
7.5244535e-12
-0.00025285801
-7.338906e-05
7.5166001e-12
-0.00023720783
-8.854904e-05
7.5624902e-12
-0.0002188134
-0.00010152774
7.554745e-12
-0.00019810186
-0.00011175117
7.5524576e-12
-0.00017561092
-0.00011871425
7.5283922e-12
-0.00015197649
-0.0001220223
7.4833437e-12
-0.00012791104
-0.00012143212
7.4106264e-12
-0.00010417267
-0.00011688882
7.3032636e-12
-8.1526373e-05
-0.00010855423
7.2950756e-12
-6.0700054e-05
-9.6822918e-05
7.3284994e-12
-4.2339377e-05
-8.2323465e-05
7.2136606e-12
-2.6966287e-05
-6.5904727e-05
7.5703718e-12
-1.4946053e-05
-4.8608674e-05
1.0023035e-11
-6.4674317e-06
-3.1629213e-05
8.0172719e-12
-1.5391413e-06
-1.6262024e-05
-5.6194868e-12
-3.9050564e-06
1.9011159e-11
-2.9854647e-06
1.325279e-05
1.9746704e-12
-1.0856298e-05
3.7886266e-05
5.2818126e-11
-2.2672622e-05
5.9823654e-05
2.5962638e-11
-3.7624855e-05
7.8674965e-05
1.9914169e-11
-5.5017264e-05
9.4321444e-05
2.226869e-11
-7.4252173e-05
0.00010679735
2.0425254e-11
-9.4812848e-05
0.00011623088
1.7911105e-11
-0.00011624659
0.0001227952
1.6056382e-11
-0.00013814915
0.0001266695
1.4487089e-11
-0.00016015079
0.000128013
1.3044158e-11
-0.0001819046
0.00012695111
1.1569883e-11
-0.00020307687
0.00012357195
1.0197868e-11
-0.0002233402
0.00011793129
9.0662124e-12
-0.00024236888
0.00011006381
8.0926625e-12
-0.000259837
9.9998568e-05
7.4178936e-12
-0.00027541882
8.7776631e-05
7.1091891e-12
-0.0002887916
7.3469254e-05
7.0878068e-12
-0.00029964058
5.7195145e-05
7.1790979e-12
-0.00030766613
3.9135789e-05
7.3185642e-12
-0.00031259299
1.9547925e-05
7.4443613e-12
-0.00031418205
-1.2268739e-06
7.4528154e-12
-0.00031224222
-2.2760759e-05
7.5568248e-12
-0.0003066474
-4.4534124e-05
7.5946788e-12
-0.00029735123
-6.594831e-05
7.5928436e-12
-0.00028440411
-8.6336183e-05
7.6523395e-12
-0.00026796878
-0.00010498438
7.7630958e-12
-0.0002483332
-0.00012116333
7.8056954e-12
-0.00022591863
-0.00013416575
7.8173691e-12
-0.00020128043
-0.00014335246
7.7701608e-12
-0.00017509928
-0.00014820346
7.7090956e-12
-0.00014816104
-0.00014837037
7.5917018e-12
-0.00012132466
-0.00014372521
7.432937e-12
-9.5479036e-05
-0.00013439987
7.3442847e-12
-7.1491777e-05
-0.00012081019
7.3157908e-12
-5.015461e-05
-0.00010366064
7.1240286e-12
-3.2131433e-05
-8.3927913e-05
7.5022536e-12
-1.7915246e-05
-6.2824873e-05
1.0461214e-11
-7.7997249e-06
-4.1744745e-05
8.0149361e-12
-1.8690261e-06
-2.2192717e-05
-8.610023e-12
-5.7741061e-06
2.1557797e-11
-3.280254e-06
1.653305e-05
-4.3901149e-12
-1.1899391e-05
4.6505345e-05
5.0863966e-11
-2.4799639e-05
7.2723879e-05
2.1145341e-11
-4.1074104e-05
9.4949413e-05
1.4762407e-11
-5.9950556e-05
0.00011319788
1.792201e-11
-8.0774198e-05
0.00012762098
1.6750243e-11
-0.00010298789
0.00013844455
1.4859151e-11
-0.00012611202
0.00014591932
1.3533078e-11
-0.00014972565
0.00015028312
1.2285049e-11
-0.00017344961
0.00015173694
1.1054476e-11
-0.00019693202
0.00015043351
9.7315018e-12
-0.0002198366
0.00014647652
8.5546064e-12
-0.00024183369
0.00013992837
7.7043115e-12
-0.00026259409
0.00013082421
7.0188856e-12
-0.0002817856
0.00011919007
6.5807139e-12
-0.00029907198
0.00010506301
6.4754427e-12
-0.00031411448
8.8511759e-05
6.6085134e-12
-0.00032657564
6.9656297e-05
6.7593078e-12
-0.00033612544
4.8685579e-05
6.8956116e-12
-0.00034245002
2.58725e-05
7.0430318e-12
-0.00034526294
1.586031e-06
7.1905652e-12
-0.0003443194
-2.3704307e-05
7.342975e-12
-0.00033943266
-4.9420874e-05
7.5128321e-12
-0.00033049338
-7.4887594e-05
7.6380309e-12
-0.00031749027
-9.9339307e-05
7.7670209e-12
-0.00030053104
-0.00012194361
7.938992e-12
-0.00027986181
-0.00014183258
8.055589e-12
-0.00025588206
-0.00015814551
8.1018065e-12
-0.00022915223
-0.0001700823
8.014897e-12
-0.00020039051
-0.00017696518
7.915171e-12
-0.00017045605
-0.00017830484
7.75994e-12
-0.00014031668
-0.00017386459
7.5861432e-12
-0.00011100162
-0.00016371494
7.4468256e-12
-8.3541791e-05
-0.00014827002
7.3461734e-12
-5.890333e-05
-0.00012829911
7.0394144e-12
-3.7921743e-05
-0.00010490951
7.4260936e-12
-2.124494e-05
-7.9501688e-05
1.0927593e-11
-9.2928263e-06
-5.3696869e-05
8.002245e-12
-2.2381595e-06
-2.9247374e-05
-1.1926023e-11
-8.0122918e-06
2.4413862e-11
-3.5476695e-06
2.0080732e-05
-1.0320782e-11
-1.2846324e-05
5.5803941e-05
4.8926114e-11
-2.6733337e-05
8.6610877e-05
1.6815086e-11
-4.42155e-05
0.00011243156
1.0365504e-11
-6.4452597e-05
0.00013343496
1.4387357e-11
-8.6739094e-05
0.00014990746
1.3796488e-11
-0.00011048232
0.00016218777
1.2296342e-11
-0.00013517981
0.0001706168
1.1241442e-11
-0.00016039767
0.00017550097
1.0138757e-11
-0.00018575107
0.00017709033
9.0784915e-12
-0.00021088731
0.00017556974
7.9557342e-12
-0.00023547186
0.00017106107
7.0327317e-12
-0.00025917745
0.00016363396
6.4818306e-12
-0.00028167602
0.00015332278
6.0650511e-12
-0.00030263347
0.0001401475
5.8210072e-12
-0.00032170697
0.00012413651
5.8583145e-12
-0.00033854481
0.0001053496
6.0798208e-12
-0.0003527886
8.3900072e-05
6.2453434e-12
-0.00036407809
5.9975065e-05
6.3592013e-12
-0.00037205896
3.3853364e-05
6.5309633e-12
-0.00037639323
5.9202867e-06
6.8293738e-12
-0.00037677506
-2.3322481e-05
7.0544947e-12
-0.00037294699
-5.3248954e-05
7.3646389e-12
-0.00036472321
-8.3111385e-05
7.6367895e-12
-0.00035201416
-0.00011204837
7.8603361e-12
-0.00033485351
-0.00013910427
8.1019941e-12
-0.00031342497
-0.00016326112
8.304504e-12
-0.00028808591
-0.00018348458
8.3998306e-12
-0.00025938386
-0.00019878436
8.2812014e-12
-0.00022806153
-0.00020828753
8.1258895e-12
-0.00019504577
-0.0002113206
7.931389e-12
-0.00016141743
-0.00020749295
7.7576259e-12
-0.00012836064
-0.00019677173
7.6103544e-12
-9.7094164e-05
-0.00017953652
7.446854e-12
-6.8790471e-05
-0.00015660281
6.9793424e-12
-4.449218e-05
-0.00012920781
7.3687421e-12
-2.5036556e-05
-9.8957323e-05
1.1499722e-11
-1.0998963e-05
-6.7734469e-05
8.0298795e-12
-2.6620781e-06
-3.7584244e-05
-1.5662922e-11
-1.0674399e-05
2.7714579e-11
-3.784862e-06
2.3865612e-05
-1.5588898e-11
-1.3687154e-05
6.5706179e-05
4.7368699e-11
-2.845318e-05
0.00010137689
1.3371094e-11
-4.7014901e-05
0.00013099328
6.9497901e-12
-6.8473069e-05
0.00015489312
1.165433e-11
-9.2078176e-05
0.00017351256
1.137225e-11
-0.0001172072
0.00018731679
9.9894519e-12
-0.00014333901
0.0001967486
9.0408388e-12
-0.00017003058
0.00020219254
8.0457305e-12
-0.0001968952
0.00020395494
7.1914771e-12
-0.00022358335
0.00020225788
6.306767e-12
-0.00024976666
0.00019724438
5.6437372e-12
-0.00027512494
0.00018899223
5.3655509e-12
-0.00029933618
0.00017753402
5.1722232e-12
-0.00032206942
0.00016288073
5.060484e-12
-0.00034298004
0.00014504713
5.1722767e-12
-0.00036170766
0.00012407721
5.4343984e-12
-0.00037787646
0.00010006887
5.6134786e-12
-0.00039109825
7.3196844e-05
5.7267261e-12
-0.00040097865
4.3733763e-05
5.9186877e-12
-0.00040712693
1.206856e-05
6.2794571e-12
-0.00040917072
-2.1278701e-05
6.6820453e-12
-0.00040677425
-5.5645434e-05
7.159849e-12
-0.00039966313
-9.0222514e-05
7.5897263e-12
-0.0003876533
-0.00012405822
7.9166113e-12
-0.00037068405
-0.00015607353
8.2223987e-12
-0.00034885313
-0.00018509204
8.5141419e-12
-0.0003224505
-0.00020988723
8.6749435e-12
-0.00029198619
-0.00022924868
8.56259e-12
-0.00025820666
-0.00024206707
8.3547848e-12
-0.00022209326
-0.00024743401
8.1202622e-12
-0.00018483728
-0.00024474894
7.9244582e-12
-0.00014778827
-0.00023382074
7.775126e-12
-0.00011237661
-0.00021494819
7.5793305e-12
-8.0016181e-05
-0.00018896325
6.9504094e-12
-5.1998662e-05
-0.00015722533
7.3561148e-12
-2.9393943e-05
-0.00012156205
1.2246104e-11
-1.2971987e-05
-8.4156432e-05
8.1472674e-12
-3.1567378e-06
-4.7399473e-05
-1.9938594e-11
-1.3831168e-05
3.160641e-11
-3.9885085e-06
2.7854141e-05
-1.9962898e-11
-1.4410835e-05
7.6128456e-05
4.6428697e-11
-2.9937005e-05
0.00011690306
1.0823703e-11
-4.9436035e-05
0.0001504923
4.318897e-12
-7.1958723e-05
0.0001774158
9.4121304e-12
-9.6718344e-05
0.00019827217
9.2297396e-12
-0.00012306661
0.00021366504
7.8658677e-12
-0.0001504678
0.00022414979
7.0154726e-12
-0.00017847337
0.0002301981
6.1849268e-12
-0.00020669834
0.0002321799
5.5860201e-12
-0.00023480025
0.00023035979
4.9510786e-12
-0.00026246121
0.00022490533
4.5205098e-12
-0.00028937291
0.00021590393
4.4563557e-12
-0.00031522472
0.00020338583
4.4196916e-12
-0.00033969444
0.00018735045
4.3718455e-12
-0.00036244155
0.00016779424
4.4954428e-12
-0.00038310291
0.00014473857
4.7581881e-12
-0.00040129082
0.00011825677
4.9526581e-12
-0.00041659396
8.8499973e-05
5.0827958e-12
-0.00042858154
5.5721342e-05
5.3054874e-12
-0.00043681159
2.0298601e-05
5.7366865e-12
-0.0004408443
-1.7245998e-05
6.2697834e-12
-0.00044026073
-5.6229008e-05
6.8890893e-12
-0.00043468863
-9.5794621e-05
7.4738497e-12
-0.00042383475
-0.00013491211
7.9056382e-12
-0.00040752362
-0.00017238467
8.2615106e-12
-0.00038574111
-0.00020687455
8.6350156e-12
-0.00035867962
-0.00023694873
8.8759666e-12
-0.00032677974
-0.00026114858
8.8256462e-12
-0.00029076159
-0.00027808523
8.5970232e-12
-0.00025163738
-0.00028655823
8.3394776e-12
-0.00021069662
-0.00028568971
8.1039528e-12
-0.00016945752
-0.00027505985
7.921048e-12
-0.00012958267
-0.00025482305
7.6925126e-12
-9.2764176e-05
-0.00022578175
6.9219969e-12
-6.0591358e-05
-0.00018939816
7.3723625e-12
-3.4420178e-05
-0.00014773324
1.3179699e-11
-1.5266308e-05
-0.00010331031
8.3610451e-12
-3.7384083e-06
-5.8927348e-05
-2.489994e-11
-1.7569614e-05
3.6202741e-11
-4.1551971e-06
3.2009364e-05
-2.3359083e-11
-1.5006294e-05
8.6979504e-05
4.5926671e-11
-3.1162859e-05
0.00013305962
8.8190705e-12
-5.1443063e-05
0.00017077251
2.0855339e-12
-7.4856634e-05
0.00020082936
7.3521953e-12
-0.00010058602
0.00022400155
7.2089886e-12
-0.00012796234
0.00024104136
5.9103285e-12
-0.00015643894
0.00025262639
5.2270576e-12
-0.00018556501
0.00025932416
4.6136271e-12
-0.00021496053
0.00026157542
4.280199e-12
-0.00024429377
0.00025969303
3.8730431e-12
-0.00027326145
0.000253873
3.6258205e-12
-0.00030157204
0.00024421452
3.708429e-12
-0.00032893188
0.00023074567
3.7662137e-12
-0.00035503388
0.00021345244
3.7360241e-12
-0.00037954862
0.00019230898
3.8405541e-12
-0.00040211769
0.00016730763
4.0890924e-12
-0.00042234935
0.00013848843
4.3070245e-12
-0.00043981691
0.00010596752
4.4660953e-12
-0.00045406032
6.996475e-05
4.7253454e-12
-0.00046459209
3.0830365e-05
5.2222291e-12
-0.00047090853
-1.0929563e-05
5.8374087e-12
-0.00047250734
-5.4630214e-05
6.5524996e-12
-0.0004689133
-9.938866e-05
7.2737751e-12
-0.00045971261
-0.00014411281
7.8117996e-12
-0.0004445962
-0.00018750109
8.2142725e-12
-0.00042341133
-0.00022805943
8.6550831e-12
-0.00039621874
-0.00026414132
8.9867809e-12
-0.00036335028
-0.00029401705
9.0446623e-12
-0.00032545907
-0.00031597646
8.8461167e-12
-0.00028355175
-0.00032846556
8.5895832e-12
-0.00023899059
-0.00033025087
8.3164532e-12
-0.00019345439
-0.00032059606
8.0776823e-12
-0.00014885171
-0.00029942574
7.778277e-12
-0.00010718902
-0.00026744444
6.8487789e-12
-7.0407733e-05
-0.00022617945
7.3638392e-12
-4.0214527e-05
-0.00017792646
1.4263072e-11
-1.7936038e-05
-0.0001255888
8.617994e-12
-4.4236457e-06
-7.2439711e-05
-3.0723868e-11
-2.1993303e-05
4.1571737e-11
-4.2818761e-06
3.6291272e-05
-2.5899361e-11
-1.5463795e-05
9.8161374e-05
4.5487711e-11
-3.2111458e-05
0.00014970728
7.0253951e-12
-5.3004136e-05
0.00019166518
4.0536629e-14
-7.7118817e-05
0.00022494404
5.4311835e-12
-0.00010361281
0.00025049554
5.367103e-12
-0.00013180061
0.00026922915
4.1916324e-12
-0.00016112765
0.00028195343
3.7125253e-12
-0.00019114351
0.00028934002
3.305991e-12
-0.00022147599
0.0002919079
3.1847324e-12
-0.00025180727
0.0002900243
2.9441389e-12
-0.00028185268
0.00028391841
2.8092477e-12
-0.00031134229
0.00027370413
2.9654793e-12
-0.00034000522
0.00025940859
3.0687573e-12
-0.0003675564
0.00024100361
3.0407423e-12
-0.00039368548
0.00021843806
3.1309707e-12
-0.00041804792
0.00019167006
3.3811002e-12
-0.00044025797
0.00016069848
3.6519816e-12
-0.00045988431
0.00012559385
3.8702804e-12
-0.00047644859
8.6529028e-05
4.1852074e-12
-0.00048942819
4.3809962e-05
4.7540668e-12
-0.00049826434
-2.0934186e-06
5.4330137e-12
-0.00050237698
-5.0517581e-05
6.2060108e-12
-0.00050118876
-0.00010057688
7.036106e-12
-0.00049415916
-0.00015114242
7.6710084e-12
-0.00048083053
-0.00020082973
8.1203902e-12
-0.00046088624
-0.00024800374
8.5996032e-12
-0.0004342193
-0.00029080827
9.0225001e-12
-0.0004010072
-0.00032722916
9.2109181e-12
-0.00036178458
-0.00035519909
9.0944013e-12
-0.00031750135
-0.0003727488
8.8550633e-12
-0.00026955019
-0.00037820204
8.5403033e-12
-0.00021974624
-0.00037040002
8.2399639e-12
-0.00017024584
-0.00034892615
7.8255334e-12
-0.0001234013
-0.00031428899
6.67189e-12
-8.1564469e-05
-0.00026801629
7.2564245e-12
-4.6868992e-05
-0.00021262195
1.5448989e-11
-2.1034052e-05
-0.00015142375
8.8526088e-12
-5.229269e-06
-8.8244458e-05
-3.7584542e-11
-2.7222623e-05
4.7809081e-11
-4.3663572e-06
4.0657661e-05
-2.7878829e-11
-1.5776529e-05
0.0001095715
4.4797089e-11
-3.2769121e-05
0.00016669986
5.3275905e-12
-5.4095755e-05
0.00021299182
-1.8056469e-12
-7.8707984e-05
0.00024955627
3.7292959e-12
-0.00010574261
0.00027753017
3.8067831e-12
-0.00013450052
0.00029798705
2.77394e-12
-0.00016442146
0.00031187436
2.4733175e-12
-0.00019505741
0.00031997596
2.218163e-12
-0.00022604624
0.00032289673
2.2314244e-12
-0.00025708693
0.00032106498
2.0896868e-12
-0.00028791706
0.00031474853
2.0018064e-12
-0.00031829298
0.00030408005
2.1693296e-12
-0.00034797249
0.00028908809
2.2900014e-12
-0.00037669976
0.00026973088
2.2787421e-12
-0.00040419235
0.00024593065
2.3862167e-12
-0.00043012992
0.00021760762
2.6705336e-12
-0.00045414476
0.00018471332
3.026364e-12
-0.00047581443
0.00014726351
3.3364253e-12
-0.00049465695
0.00010537154
3.7265428e-12
-0.0005101297
5.9282714e-05
4.3825489e-12
-0.00052163322
9.4101032e-06
5.1381671e-12
-0.00052852227
-4.362854e-05
5.9043389e-12
-0.00053012528
-9.8973877e-05
6.805019e-12
-0.00052577625
-0.00015549144
7.5319094e-12
-0.00051486056
-0.00021174543
8.0498293e-12
-0.00049687689
-0.00026598742
8.5446591e-12
-0.00047151554
-0.00031616962
9.0245763e-12
-0.00043875031
-0.0003599944
9.3194191e-12
-0.0003989362
-0.00039501322
9.3166843e-12
-0.00035289963
-0.00041878538
9.1046542e-12
-0.00030200114
-0.00042910054
8.7378367e-12
-0.00024814646
-0.00042425472
8.3651067e-12
-0.00019372305
-0.00040334957
7.8000858e-12
-0.00014144983
-0.00036656222
6.3436823e-12
-9.4147546e-05
-0.00031531858
7.0003801e-12
-5.446396e-05
-0.00025230556
1.672466e-11
-2.4610741e-05
-0.00018127699
9.0375894e-12
-6.172282e-06
-0.00010668288
-4.5646233e-11
-3.3394963e-05
5.5051764e-11
-4.4078731e-06
4.5065565e-05
-2.9513988e-11
-1.5942419e-05
0.00012110599
4.3773244e-11
-3.3131154e-05
0.0001838886
3.7844158e-12
-5.470781e-05
0.00023456848
-3.3242864e-12
-7.9604216e-05