/*--------------------------------*- C++ -*----------------------------------*\
  =========                 |
  \\      /  F ield         | OpenFOAM: The Open Source CFD Toolbox
   \\    /   O peration     | Website:  https://openfoam.org
    \\  /    A nd           | Version:  7
     \\/     M anipulation  |
\*---------------------------------------------------------------------------*/
FoamFile
{
    version     2.0;
    format      ascii;
    class       surfaceScalarField;
    location    "6";
    object      phi_0;
}
// * * * * * * * * * * * * * * * * * * * * * * * * * * * * * * * * * * * * * //

dimensions      [0 3 -1 0 0 0 0];

internalField   nonuniform List<scalar> 
45600
(
2.5322814e-07
-2.4754208e-07
3.8883772e-10
3.4873403e-07
-9.5686804e-08
2.0455987e-10
7.3282516e-08
2.7529033e-07
1.525933e-10
-5.9161694e-07
6.6476548e-07
1.2034269e-10
-1.6067425e-06
1.0150497e-06
9.704911e-11
-2.9062642e-06
1.2994502e-06
7.735316e-11
-4.4212811e-06
1.5149492e-06
6.1732354e-11
-6.0886907e-06
1.6673598e-06
5.0351519e-11
-7.8533559e-06
1.7646317e-06
4.1577746e-11
-9.6675257e-06
1.8141479e-06
3.4782254e-11
-1.1489226e-05
1.8216629e-06
2.9522011e-11
-1.3280242e-05
1.7909857e-06
2.5583335e-11
-1.5004334e-05
1.7240814e-06
2.2863693e-11
-1.6625819e-05
1.6214736e-06
2.0602881e-11
-1.8108646e-05
1.4828075e-06
1.8200349e-11
-1.9416128e-05
1.3074636e-06
1.5873827e-11
-2.0511322e-05
1.0951827e-06
1.3799267e-11
-2.1358003e-05
8.4667226e-07
1.1852569e-11
-2.192216e-05
5.6414579e-07
9.9500093e-12
-2.2173931e-05
2.5176138e-07
7.5604242e-12
-2.2089849e-05
-8.4087531e-08
4.9186846e-12
-2.1655165e-05
-4.3468641e-07
2.3967652e-12
-2.086616e-05
-7.8900643e-07
-2.8848713e-13
-1.9732089e-05
-1.1340706e-06
-2.9415746e-12
-1.8276608e-05
-1.4554807e-06
-5.2638339e-12
-1.6538434e-05
-1.738171e-06
-7.4114368e-12
-1.4571075e-05
-1.9673521e-06
-9.2712588e-12
-1.2441499e-05
-2.1295677e-06
-1.0469908e-11
-1.0227715e-05
-2.2137739e-06
-1.1008793e-11
-8.015365e-06
-2.2123414e-06
-1.1081451e-11
-5.8934797e-06
-2.1218783e-06
-1.0461691e-11
-3.9496766e-06
-1.9437987e-06
-8.9653825e-12
-2.2650654e-06
-1.6846086e-06
-6.9535334e-12
-9.0904707e-07
-1.3560177e-06
-4.3826766e-12
6.6653056e-08
-9.757011e-07
-1.0584608e-12
6.3730078e-07
-5.7064927e-07
1.1556679e-12
8.0798232e-07
-1.7068626e-07
4.3249759e-12
6.3659032e-07
1.7138215e-07
7.9358108e-12
2.7004578e-07
3.6652771e-07
1.172385e-11
2.7003471e-07
5.6104501e-12
1.050261e-07
-3.5275201e-07
2.0667064e-10
-3.3279214e-07
3.420194e-07
1.2124828e-10
-1.5882575e-06
1.530582e-06
1.4315741e-10
-3.7147528e-06
2.791178e-06
1.1104143e-10
-6.641118e-06
3.9413306e-06
8.1912136e-11
-1.0243361e-05
4.9016077e-06
5.7673182e-11
-1.437725e-05
5.6487957e-06
3.8949126e-11
-1.8898331e-05
6.188432e-06
2.4891081e-11
-2.3670959e-05
6.5372377e-06
1.3931698e-11
-2.8570666e-05
6.7138385e-06
5.8233039e-12
-3.3483179e-05
6.7341735e-06
2.9967498e-13
-3.8301826e-05
6.609638e-06
-3.0591922e-12
-4.2924663e-05
6.3469261e-06
-4.7880564e-12
-4.7252112e-05
5.9489268e-06
-5.6001298e-12
-5.1185564e-05
5.4162605e-06
-5.8755314e-12
-5.462725e-05
4.7491505e-06
-5.2429399e-12
-5.7481468e-05
3.9494013e-06
-3.5747005e-12
-5.9657095e-05
3.0222978e-06
-1.3810661e-12
-6.1071231e-05
1.9782796e-06
1.3435383e-12
-6.1653714e-05
8.3424011e-07
4.1771679e-12
-6.1352361e-05
-3.8544615e-07
7.0043273e-12
-6.0137795e-05
-1.6492616e-06
1.0218487e-11
-5.8008815e-05
-2.9180002e-06
1.3443035e-11
-5.4996204e-05
-4.146698e-06
1.6423445e-11
-5.1165557e-05
-5.2861454e-06
1.9253119e-11
-4.6618274e-05
-6.2854718e-06
2.1761779e-11
-4.149042e-05
-7.0952239e-06
2.366843e-11
-3.5949217e-05
-7.67079e-06
2.4973604e-11
-3.0187108e-05
-7.9759042e-06
2.571474e-11
-2.4413541e-05
-7.985933e-06
2.5611161e-11
-1.8844782e-05
-7.690662e-06
2.4605151e-11
-1.3692229e-05
-7.0963783e-06
2.304691e-11
-9.1496401e-06
-6.2272228e-06
2.0859233e-11
-5.3795607e-06
-5.1261209e-06
1.7992238e-11
-2.499009e-06
-3.8562744e-06
1.4942062e-11
-5.6579274e-07
-2.5038828e-06
1.1648167e-11
4.4677012e-07
-1.1832602e-06
8.2916053e-12
6.712495e-07
-5.3102055e-08
6.603859e-12
3.6946001e-07
6.6831318e-07
7.3622021e-12
6.3949038e-07
9.0355441e-13
-2.7441767e-07
-7.8490049e-08
1.4681959e-10
-1.562418e-06
1.6298472e-06
1.4822057e-10
-4.0599812e-06
4.0280548e-06
1.2555199e-10
-7.7739198e-06
6.5050181e-06
1.0175649e-10
-1.2600216e-05
8.7675328e-06
8.0462343e-11
-1.8372272e-05
1.0673605e-05
6.2716474e-11
-2.4895687e-05
1.2172172e-05
4.81483e-11
-3.1970253e-05
1.3262966e-05
3.6566308e-11
-3.9401742e-05
1.3968698e-05
2.73459e-11
-4.7006489e-05
1.4318566e-05
2.0499838e-11
-5.4611637e-05
1.4339304e-05
1.5689989e-11
-6.2053088e-05
1.4051082e-05
1.242671e-11
-6.9172841e-05
1.346668e-05
1.0096326e-11
-7.5816743e-05
1.2592825e-05
8.2446045e-12
-8.1833377e-05
1.1432883e-05
6.7777884e-12
-8.7074508e-05
9.9902709e-06
5.9415776e-12
-9.1397249e-05
8.2721356e-06
5.7896657e-12
-9.4667851e-05
6.2928961e-06
5.8172717e-12
-9.6766925e-05
4.0773493e-06
5.8654984e-12
-9.7595776e-05
1.6630828e-06
5.8434098e-12
-9.708322e-05
-8.9801196e-07
5.8445939e-12
-9.5192677e-05
-3.5398154e-06
5.9022898e-12
-9.1928542e-05
-6.1821453e-06
5.9050599e-12
-8.7341424e-05
-8.733827e-06
5.9702601e-12
-8.1531526e-05
-1.1096053e-05
6.1011217e-12
-7.4649633e-05
-1.3167374e-05
6.1361959e-12
-6.6895197e-05
-1.4849667e-05
6.0597758e-12
-5.8511241e-05
-1.6054755e-05
6.0213672e-12
-4.9775952e-05
-1.6711201e-05
6.0990755e-12
-4.0991129e-05
-1.6770766e-05
6.0901991e-12
-3.2467816e-05
-1.6213985e-05
5.9361915e-12
-2.4509708e-05
-1.5054497e-05
5.9557107e-12
-1.7394926e-05
-1.3342013e-05
6.1086732e-12
-1.1356782e-05
-1.1164271e-05
6.2028368e-12
-6.5640997e-06
-8.6489647e-06
6.3100142e-12
-3.1007749e-06
-5.9672177e-06
6.367686e-12
-9.4349755e-07
-3.3405498e-06
6.3829833e-12
5.8823294e-08
-1.055435e-06
6.9234502e-12
2.1152857e-07
5.156005e-07
8.1011198e-12
8.5101328e-07
4.339833e-12
-7.055566e-07
6.2693862e-07
1.0998259e-10
-2.978982e-06
3.9031785e-06
1.223215e-10
-6.8478538e-06
7.8968314e-06
1.0197799e-10
-1.2231068e-05
1.188813e-05
8.4456972e-11
-1.8965796e-05
1.5502177e-05
6.972391e-11
-2.6839034e-05
1.8546795e-05
5.626403e-11
-3.5613437e-05
2.0946544e-05
4.44232e-11
-4.5045594e-05
2.2695085e-05
3.4621067e-11
-5.4896765e-05
2.3819828e-05
2.6780781e-11
-6.4937628e-05
2.4359408e-05
2.1065387e-11
-7.4949028e-05
2.435069e-05
1.7084736e-11
-8.4720438e-05
2.3822484e-05
1.413295e-11
-9.4047794e-05
2.279403e-05
1.1736526e-11
-0.00010273177
2.1276786e-05
9.781635e-12
-0.00011057726
1.9278358e-05
8.3757901e-12
-0.00011739459
1.6807592e-05
7.5937752e-12
-0.00012300258
1.3880115e-05
7.1617267e-12
-0.00012723336
1.0523673e-05
6.856807e-12
-0.00012993879
6.7827795e-06
6.5992654e-12
-0.00013099799
2.722272e-06
6.0787806e-12
-0.00013032533
-1.5706784e-06
5.5857141e-12
-0.00012787876
-5.9863953e-06
5.2576037e-12
-0.00012366702
-1.0393888e-05
4.8519997e-12
-0.00011775571
-1.4645145e-05
4.4196823e-12
-0.00011027108
-1.8580683e-05
4.0843938e-12
-0.00010140113
-2.2037327e-05
3.811887e-12
-9.1393284e-05
-2.4857517e-05
3.4892219e-12
-8.0548374e-05
-2.6899668e-05
3.1362848e-12
-6.9210686e-05
-2.8048893e-05
2.9507759e-12
-5.7754167e-05
-2.8227291e-05
2.9198138e-12
-4.6565142e-05
-2.7403017e-05
3.0156197e-12
-3.6022176e-05
-2.5597471e-05
3.4033089e-12
-2.6473892e-05
-2.2890305e-05
3.8358048e-12
-1.8215718e-05
-1.9422452e-05
4.3154179e-12
-1.1466577e-05
-1.539811e-05
5.0267406e-12
-6.3463061e-06
-1.1087493e-05
5.7236318e-12
-2.8541852e-06
-6.832678e-06
6.4792233e-12
-8.5203385e-07
-3.0575974e-06
7.0532114e-12
-5.2389566e-08
-2.8405164e-07
6.8016735e-12
7.9861652e-07
7.1291059e-12
-1.1415074e-06
1.7683858e-06
8.0237043e-11
-4.4331661e-06
7.1947396e-06
9.9685146e-11
-9.7200344e-06
1.3183596e-05
7.964421e-11
-1.6802657e-05
1.8970684e-05
6.6616855e-11
-2.5439922e-05
2.4139396e-05
5.6409922e-11
-3.536338e-05
2.8470216e-05
4.5643873e-11
-4.6292227e-05
3.1875353e-05
3.5697825e-11
-5.7944976e-05
3.4347796e-05
2.7486116e-11
-7.0046663e-05
3.5921487e-05
2.1115157e-11
-8.2331951e-05
3.6644687e-05
1.6517375e-11
-9.4545275e-05
3.6564008e-05
1.3173193e-11
-0.00010643929
3.5716496e-05
1.0453253e-11
-0.00011777301
3.4127733e-05
8.2724611e-12
-0.00012831049
3.1814263e-05
6.7388645e-12
-0.00013782102
2.8788869e-05
5.7921981e-12
-0.00014608088
2.5067451e-05
5.4964094e-12
-0.00015287725
2.0676486e-05
5.4478969e-12
-0.0001580138
1.566022e-05
5.41273e-12
-0.00016131792
1.0086891e-05
5.5585994e-12
-0.00016264907
4.0534119e-06
5.5721157e-12
-0.00016190775
-2.3120141e-06
5.5539979e-12
-0.00015904441
-8.8497367e-06
5.6746485e-12
-0.00015406771
-1.5370602e-05
5.8536342e-12
-0.00014705114
-2.1661721e-05
6.0589301e-12
-0.00013813758
-2.749425e-05
6.2135795e-12
-0.00012754079
-3.2634121e-05
6.3110769e-12
-0.00011554336
-3.685496e-05
6.3195501e-12
-0.00010249045
-3.9952583e-05
6.2091293e-12
-8.877919e-05
-4.1760162e-05
6.1557979e-12
-7.484349e-05
-4.2162998e-05
6.0937921e-12
-6.1134745e-05
-4.1111768e-05
5.9823078e-12
-4.8098998e-05
-3.8633226e-05
6.1817748e-12
-3.6151617e-05
-3.4837693e-05
6.3362708e-12
-2.5650837e-05
-2.9923241e-05
6.3134855e-12
-1.6871703e-05
-2.4177251e-05
6.3773506e-12
-9.9820957e-06
-1.7977107e-05
6.5938436e-12
-5.0225068e-06
-1.1792272e-05
7.2828934e-12
-1.8926651e-06
-6.1874475e-06
6.9749466e-12
-3.4727761e-07
-1.8294446e-06
4.0915753e-12
4.5133015e-07
9.1875057e-12
-1.5588519e-06
3.327181e-06
5.4736018e-11
-5.8560601e-06
1.1491853e-05
8.1479917e-11
-1.2554898e-05
1.9882362e-05
6.1410629e-11
-2.1326532e-05
2.774228e-05
5.1584692e-11
-3.1839686e-05
3.4652513e-05
4.5040606e-11
-4.3762692e-05
4.0393182e-05
3.6771847e-11
-5.6768523e-05
4.4881147e-05
2.8884784e-11
-7.053923e-05
4.8118473e-05
2.2591099e-11
-8.4768393e-05
5.0150632e-05
1.7801795e-11
-9.9161369e-05
5.103766e-05
1.4213739e-11
-0.00011343389
5.083652e-05
1.1291557e-11
-0.00012730981
4.9592411e-05
8.8088328e-12
-0.00014051911
4.7337016e-05
6.932985e-12
-0.00015279674
4.4091885e-05
5.8332221e-12
-0.00016388313
3.9875254e-05
5.1982573e-12
-0.00017352649
3.4710799e-05
5.0325199e-12
-0.00018148708
2.8637075e-05
5.0837317e-12
-0.00018754343
2.1716573e-05
5.1058374e-12
-0.00019150009
1.4043539e-05
5.2468917e-12
-0.00019319652
5.7498376e-06
5.3386191e-12
-0.00019251678
-2.9917626e-06
5.4631523e-12
-0.00018939912
-1.1967413e-05
5.6717624e-12
-0.0001838451
-2.0924627e-05
5.9460518e-12
-0.00017592731
-2.957951e-05
6.2872006e-12
-0.00016579495
-3.7626622e-05
6.5460509e-12
-0.00015367641
-4.4752667e-05
6.7241111e-12
-0.00013987822
-5.0653154e-05
6.7820252e-12
-0.00012477948
-5.5051341e-05
6.6053347e-12
-0.00010882128
-5.771837e-05
6.5170855e-12
-9.2491048e-05
-5.8493234e-05
6.5587572e-12
-7.6301785e-05
-5.7301039e-05
6.4824337e-12
-6.0766976e-05
-5.4168041e-05
6.5758188e-12
-4.6372402e-05
-4.9232272e-05
6.5886624e-12
-3.3546513e-05
-4.2749136e-05
6.5302946e-12
-2.2631511e-05
-3.509226e-05
6.5108404e-12
-1.3857544e-05
-2.6751082e-05
6.7123929e-12
-7.3225893e-06
-1.8327234e-05
7.8123775e-12
-2.9812231e-06
-1.052882e-05
6.9908507e-12
-6.4532538e-07
-4.1653444e-06
1.4286468e-12
-1.9400611e-07
1.1281964e-11
-1.9517619e-06
5.2788935e-06
3.4481902e-11
-7.2180899e-06
1.6758113e-05
6.8401931e-11
-1.5291214e-05
2.795545e-05
4.6938281e-11
-2.5712081e-05
3.8163115e-05
3.881779e-11
-3.8054428e-05
4.699482e-05
3.5137859e-11
-5.1918894e-05
5.4257607e-05
2.9088985e-11
-6.6930025e-05
5.9892249e-05
2.3226028e-11
-8.2733985e-05
6.3922414e-05
1.8740399e-11
-9.8995943e-05
6.6412581e-05
1.5175127e-11
-0.00011539685
6.7438558e-05
1.2261948e-11
-0.00013162978
6.7069443e-05
9.6997413e-12
-0.00014739645
6.5359066e-05
7.5752832e-12
-0.00016240448
6.234504e-05
6.0941054e-12
-0.0001763661
5.8053499e-05
5.394727e-12
-0.00018899855
5.25077e-05
5.0213831e-12
-0.00020002654
4.5738783e-05
4.8710681e-12
-0.0002091867
3.779724e-05
4.8711273e-12
-0.00021623403
2.8763892e-05
4.9472272e-12
-0.00022094984
1.8759345e-05
5.1159326e-12
-0.00022315116
7.9511558e-06
5.1875231e-12
-0.0002227009
-3.4420337e-06
5.3089108e-12
-0.00021951819
-1.5150127e-05
5.5403337e-12
-0.00021358875
-2.6854073e-05
5.9068747e-12
-0.0002049739
-3.8194363e-05
6.3362971e-12
-0.00019381789
-4.8782639e-05
6.5473507e-12
-0.0001803524
-5.8218164e-05
6.6277861e-12
-0.00016489732
-6.6108247e-05
6.6951111e-12
-0.00014785677
-7.2091899e-05
6.5181365e-12
-0.00012970963
-7.5865514e-05
6.3674816e-12
-0.00011099398
-7.7208888e-05
6.3988455e-12
-9.2285457e-05
-7.6009572e-05
6.3941908e-12
-7.4170103e-05
-7.2283402e-05
6.5246562e-12
-5.7213119e-05
-6.6189261e-05
6.4701714e-12
-4.1925528e-05
-5.8036733e-05
6.4328042e-12
-2.8731498e-05
-4.8286297e-05
6.4236592e-12
-1.7939419e-05
-3.7543167e-05
6.6777265e-12
-9.720016e-06
-2.6546645e-05
8.2289771e-12
-4.0949399e-06
-1.6153902e-05
7.0342998e-12
-9.3914279e-07
-7.3211397e-06
-1.2144437e-12
-1.133162e-06
1.3446455e-11
-2.3199756e-06
7.5988501e-06
1.8989676e-11
-8.5079458e-06
2.2946036e-05
5.8933384e-11
-1.7898814e-05
3.7346287e-05
3.5102539e-11
-2.9908284e-05
5.0172553e-05
2.7901338e-11
-4.4015595e-05
6.1102094e-05
2.6593841e-11
-5.9752717e-05
6.99947e-05
2.2504406e-11
-7.6695275e-05
7.6834792e-05
1.8330083e-11
-9.4454447e-05
8.1681576e-05
1.5196767e-11
-0.00011266952
8.4627648e-05
1.2467478e-11
-0.000131001
8.5770026e-05
9.9169295e-12
-0.00014912432
8.5192757e-05
7.7526392e-12
-0.00016672465
8.295938e-05
6.2288423e-12
-0.00018349301
7.9113399e-05
5.2567005e-12
-0.00019912434
7.3684821e-05
4.8000527e-12
-0.00021331744
6.6700795e-05
4.5449819e-12
-0.00022577717
5.8198519e-05
4.5119829e-12
-0.00023621877
4.8238841e-05
4.6005602e-12
-0.0002443741
3.691921e-05
4.7378144e-12
-0.00024999967
2.4384908e-05
4.9047368e-12
-0.00025288621
1.0837691e-05
5.0120382e-12
-0.00025286936
-3.4588907e-06
5.2458036e-12
-0.00024984082
-1.817867e-05
5.5899799e-12
-0.00024376023
-3.2934666e-05
6.0478032e-12
-0.00023466602
-4.7288578e-05
6.5406425e-12
-0.00022268515
-6.076352e-05
6.7244586e-12
-0.00020804039
-7.2862936e-05
6.7335082e-12
-0.00019105399
-8.3094652e-05
6.8432229e-12
-0.00017214644
-9.0999458e-05
6.7517693e-12
-0.00015182901
-9.6182951e-05
6.6110942e-12
-0.00013068926
-9.834865e-05
6.5442332e-12
-0.00010936899
-9.7329846e-05
6.4727769e-12
-8.8535189e-05
-9.3117207e-05
6.6102594e-12
-6.884523e-05
-8.5879228e-05
6.5891219e-12
-5.0908854e-05
-7.5973114e-05
6.609706e-12
-3.5250261e-05
-6.3944897e-05
6.5405891e-12
-2.227412e-05
-5.0519314e-05
6.7504354e-12
-1.2239547e-05
-3.6581228e-05
8.6319144e-12
-5.2458752e-06
-2.3147581e-05
7.0558207e-12
-1.2334616e-06
-1.1333549e-05
-3.8748044e-12
-2.3666393e-06
1.5710407e-11
-2.6640739e-06
1.0262923e-05
6.6684371e-12
-9.7204274e-06
3.0002348e-05
5.2054757e-11
-2.0360318e-05
4.7986138e-05
2.5748876e-11
-3.3882229e-05
6.3694438e-05
1.9135757e-11
-4.9674958e-05
7.6894798e-05
1.977199e-11
-6.7203761e-05
8.7523487e-05
1.7355909e-11
-8.5996722e-05
9.5627747e-05
1.4392979e-11
-0.00010563183
0.00010131667
1.192004e-11
-0.00012572515
0.00010472096
9.6618551e-12
-0.00014592037
0.00010596524
7.6080079e-12
-0.00016587974
0.00010515211
6.0392935e-12
-0.00018527679
0.00010235642
5.0321646e-12
-0.00020379104
9.7627648e-05
4.3842534e-12
-0.00022110494
9.0998718e-05
4.1174063e-12
-0.00023690303
8.2498877e-05
4.0147696e-12
-0.00025087344
7.2168928e-05
4.1088511e-12
-0.00026271165
6.0077043e-05
4.2538379e-12
-0.00027212626
4.633382e-05
4.412911e-12
-0.00027884681
3.1105446e-05
4.5898522e-12
-0.00028263323
1.4624106e-05
4.8146279e-12
-0.00028328713
-2.8049955e-06
5.2300749e-12
-0.00028066353
-2.0802266e-05
5.7038842e-12
-0.0002746849
-3.8913297e-05
6.1689647e-12
-0.00026535404
-5.6619447e-05
6.6736351e-12
-0.000252767
-7.3350562e-05
6.908274e-12
-0.00023712413
-8.8505815e-05
6.9368552e-12
-0.00021873773
-0.00010148107
7.0707879e-12
-0.00019803473
-0.00011170247
6.9908718e-12
-0.00017555264
-0.00011866505
6.8685701e-12
-0.00015192714
-0.00012197416
6.7543276e-12
-0.00012787043
-0.00012138656
6.6629801e-12
-0.00010414038
-0.00011684726
6.777344e-12
-8.1501753e-05
-0.00010851786
6.8019533e-12
-6.0682239e-05
-9.6792636e-05
6.8392175e-12
-4.2327342e-05
-8.2299801e-05
6.6510138e-12
-2.6958897e-05
-6.5887767e-05
6.8470736e-12
-1.494213e-05
-4.8598005e-05
9.0905862e-12
-6.4658237e-06
-3.1623895e-05
7.0783208e-12
-1.5387901e-06
-1.6260577e-05
-6.6056595e-12
-3.9054481e-06
1.8080815e-11
-2.9839904e-06
1.324691e-05
-3.3754651e-12
-1.0850995e-05
3.7869303e-05
4.7182557e-11
-2.2661676e-05
5.9796784e-05
1.8552213e-11
-3.7606866e-05
7.8639613e-05
1.2543376e-11
-5.4991223e-05
9.4279141e-05
1.4780108e-11
-7.4217384e-05
0.00010674964
1.3319265e-11
-9.4768882e-05
0.00011617924
1.0941768e-11
-0.00011619326
0.00012274104
8.940148e-12
-0.00013808646
0.00012661415
7.1705196e-12
-0.00016007895
0.00012795772
5.688698e-12
-0.00018182397
0.00012689712
4.6805476e-12
-0.000202988
0.00012352044
4.0822412e-12
-0.00022324377
0.00011788342
3.6605757e-12
-0.00024226574
0.00011002069
3.5548081e-12
-0.00025972811
9.9961248e-05
3.5955059e-12
-0.00027530527
8.7746084e-05
3.7461083e-12
-0.00028867455
7.344633e-05
3.8788556e-12
-0.00029952128
5.7180544e-05
4.0798815e-12
-0.00030754587
3.9130028e-05
4.3341769e-12
-0.00031247307
1.9551306e-05
4.6895251e-12
-0.00031406379
-1.2142785e-06
5.2171624e-12
-0.00031212691
-2.2739143e-05
5.8090714e-12
-0.00030653628
-4.4503932e-05
6.2540726e-12
-0.00029724547
-6.5910254e-05
6.7439327e-12
-0.00028430481
-8.629123e-05
7.0630163e-12
-0.0002678769
-0.00010493374
7.1637295e-12
-0.00024824955
-0.00012110843
7.319647e-12
-0.00022584385
-0.00013410818
7.2229753e-12
-0.00020121494
-0.00014329396
7.1306952e-12
-0.00017504328
-0.00014814583
6.9875144e-12
-0.00014811447
-0.00014831538
6.9208304e-12
-0.0001212872
-0.00014367454
6.9677846e-12
-9.5450094e-05
-0.00013435497
7.0164993e-12
-7.1470525e-05
-0.00012077221
7.0170006e-12
-5.014001e-05
-0.00010363033
6.6544773e-12
-3.2122291e-05
-8.3905495e-05
6.8859441e-12
-1.7910278e-05
-6.281003e-05
9.6416317e-12
-7.7976261e-06
-4.1736556e-05
7.13191e-12
-1.8685449e-06
-2.218965e-05
-9.5219499e-12
-5.7740149e-06
2.0631448e-11
-3.2786428e-06
1.6525556e-05
-1.1450473e-11
-1.1893626e-05
4.648424e-05
4.409313e-11
-2.4787789e-05
7.269093e-05
1.3450964e-11
-4.1054713e-05
9.4906536e-05
7.6969031e-12
-5.9922596e-05
0.00011314702
1.0956645e-11
-8.0736983e-05
0.00012756402
9.9186157e-12
-0.00010294102
0.00013838327
7.845151e-12
-0.00012605535
0.00014585536
6.3014634e-12
-0.00014965923
0.00015021802
5.0947137e-12
-0.00017337368
0.00015167216
4.1427629e-12
-0.00019684701
0.00015037044
3.5496213e-12
-0.00021974309
0.00014641652
3.2446994e-12
-0.00024173242
0.00013987274
2.9923105e-12
-0.00026248593
0.0001307742
2.9866614e-12
-0.00028167152
0.00011914684
3.1123709e-12
-0.00029895308
0.00010502764
3.291752e-12
-0.00031399195
8.8485189e-05
3.425458e-12
-0.00032645069
6.9639284e-05
3.7135417e-12
-0.00033599935
4.8678681e-05
4.0989243e-12
-0.00034232409
2.5876042e-05
4.6102212e-12
-0.00034513845
1.6000797e-06
5.3016399e-12
-0.00034419765
-2.3679949e-05
5.8945607e-12
-0.00033931489
-4.9386692e-05
6.3233318e-12
-0.0003303808
-7.4844351e-05
6.7968852e-12
-0.00031738399
-9.9288044e-05
7.1999865e-12
-0.00030043211
-0.00012188563
7.3998266e-12
-0.00027977113
-0.00014176942
7.5721001e-12
-0.00025580037
-0.00015807894
7.4445638e-12
-0.0002290801
-0.00017001424
7.3997987e-12
-0.00020032828
-0.00017689766
7.2501138e-12
-0.0001704038
-0.00017823987
7.2194366e-12
-0.00014027421
-0.00017380414
7.1355571e-12
-0.00011096844
-0.00016366075
7.1382487e-12
-8.3517133e-05
-0.00014822353
7.0985582e-12
-5.8886166e-05
-0.0001282613
6.5895249e-12
-3.7910839e-05
-0.00010488083
6.8471425e-12
-2.1238916e-05
-7.9481967e-05
1.0239795e-11
-9.2902303e-06
-5.3685251e-05
7.2031863e-12
-2.2375465e-06
-2.9242324e-05
-1.2786017e-11
-8.0115864e-06
2.3502322e-11
-3.545964e-06
2.007153e-05
-1.7556494e-11
-1.2840234e-05
5.5778477e-05
4.2506816e-11
-2.6720864e-05
8.6571552e-05
9.853156e-12
-4.4195155e-05
0.00011238083
3.9235927e-12
-6.4423349e-05
0.00013337521
7.7465634e-12
-8.6700271e-05
0.00014984093
6.9349583e-12
-0.00011043356
0.00016211654
5.181148e-12
-0.00013512098
0.00017054277
4.1130076e-12
-0.00016032888
0.00017542591
3.4451771e-12
-0.00018567261
0.00017701588
2.8960219e-12
-0.00021079963
0.00017549746
2.5576549e-12
-0.00023537558
0.00017099248
2.4411944e-12
-0.00025907333
0.00016357049
2.3163488e-12
-0.00028156494
0.0001532658
2.3685119e-12
-0.00030251642
0.00014009831
2.5401449e-12
-0.00032158503
0.00012409626
2.7556557e-12
-0.00033841913
0.00010531928
2.9380496e-12
-0.00035266037
8.3880515e-05
3.3436281e-12
-0.00036394855
5.9966857e-05
3.8766583e-12
-0.00037192935
3.3856845e-05
4.5201258e-12
-0.0003762648
5.9355283e-06
5.2971911e-12
-0.00037664907
-2.3295689e-05
5.9002646e-12
-0.00037282465
-5.3211116e-05
6.3636812e-12
-0.00036460571
-8.3063297e-05
6.8177258e-12
-0.00035190265
-0.00011199112
7.2539568e-12
-0.00033474906
-0.00013903923
7.5573387e-12
-0.00031332857
-0.00016318992
7.7929268e-12
-0.00028799841
-0.00018340911
7.6824648e-12
-0.00025930597
-0.0001987067
7.6636473e-12
-0.00022799373
-0.00020820991
7.5027724e-12
-0.00019498832
-0.0002112453
7.4915634e-12
-0.00016137027
-0.0002074222
7.2891671e-12
-0.00012832343
-0.0001967076
7.1628111e-12
-9.7066206e-05
-0.00017948076
7.0533105e-12
-6.8770791e-05
-0.00015655673
6.4869576e-12
-4.4479527e-05
-0.00012917211
6.7668495e-12
-2.5029474e-05
-9.8932034e-05
1.0852919e-11
-1.0995865e-05
-6.771887e-05
7.2628745e-12
-2.6613307e-06
-3.7576845e-05
-1.6569424e-11
-1.0672945e-05
2.6783913e-11
-3.7831057e-06
2.3854651e-05
-2.2159398e-11
-1.3680899e-05
6.5676244e-05
4.1842242e-11
-2.8440404e-05
0.00010133105
7.0432769e-12
-4.6994106e-05
0.00013093453
6.8663418e-13
-6.8443234e-05
0.00015482432
4.9261792e-12
-9.2038652e-05
0.00017343634
4.4494686e-12
-0.00011715765
0.00018723552
3.1358121e-12
-0.00014327934
0.00019666446
2.4925368e-12
-0.00016996093
0.0002021075
2.2150144e-12
-0.00019681589
0.00020387083
1.9111569e-12
-0.00022349487
0.00020217645
1.7381933e-12
-0.00024966965
0.00019716726
1.7586843e-12
-0.00027502017
0.000188921
1.717376e-12
-0.00029922453
0.00017747017
1.7829748e-12
-0.00032195186
0.00016282563
1.982347e-12
-0.00034285761
0.00014500201
2.2525332e-12
-0.00036158147
0.00012404314
2.5050648e-12
-0.00037774765
0.00010004669
2.9897326e-12
-0.00039096798
7.3187181e-05
3.6300127e-12
-0.00040084809
4.3736961e-05
4.3516157e-12
-0.00040699726
1.2084693e-05
5.0621726e-12
-0.00040904311
-2.1249851e-05
5.7334327e-12
-0.00040664985
-5.5604378e-05
6.2867593e-12
-0.00039954309
-9.0170063e-05
6.7639932e-12
-0.00038753874
-0.00012399548
7.2185443e-12
-0.00037057607
-0.00015600191
7.6120405e-12
-0.00034875276
-0.00018501324
7.948458e-12
-0.00032235869
-0.0002098032
7.961093e-12
-0.00029190376
-0.00022916163
7.9534689e-12
-0.00025813427
-0.00024197941
7.7677194e-12
-0.00022203133
-0.00024734824
7.6896786e-12
-0.00018478595
-0.00024466759
7.4499094e-12
-0.00014774736
-0.00023374621
7.2288473e-12
-0.00011234556
-0.00021488257
6.985539e-12
-7.9994093e-05
-0.00018890821
6.3471601e-12
-5.1984306e-05
-0.0001571819
6.6566987e-12
-2.9385815e-05
-0.00012153054
1.148834e-11
-1.2968386e-05
-8.4136308e-05
7.2788388e-12
-3.1558533e-06
-4.7389358e-05
-2.0985478e-11
-1.3828829e-05
3.0540643e-11
-3.9867488e-06
2.7841423e-05
-2.5776842e-11
-1.4404591e-05
7.6094056e-05
4.1368679e-11
-2.9924269e-05
0.00011685071
4.5692459e-12
-4.9415334e-05
0.00015042559
-2.086474e-12
-7.1929058e-05
0.00017733804
2.6807013e-12
-9.6679091e-05
0.00019818637
2.5746989e-12
-0.00012301746
0.00021357389
1.6225064e-12
-0.0001504087
0.0002240557
1.2875729e-12
-0.00017840448
0.00023010328
1.230958e-12
-0.00020662001
0.00023208636
1.0581797e-12
-0.000234713
0.00023026944
1.0049808e-12
-0.00026236567
0.00022481993
1.1268449e-12
-0.00028926986
0.00021582519
1.1332101e-12
-0.00031511503
0.00020331532
1.1860517e-12
-0.00033957903
0.00018728964
1.4082614e-12
-0.00036232144
0.00016774441
1.7491636e-12
-0.00038297912
0.00014470083
2.0891922e-12
-0.00040116442
0.00011823199
2.6038275e-12
-0.00041646601
8.8488767e-05
3.2977019e-12
-0.00042845311
5.5724066e-05
4.0826574e-12
-0.00043668375
2.0315322e-05
4.7398873e-12
-0.0004407181
-1.7215501e-05
5.4219696e-12
-0.00044013724
-5.618525e-05
6.0642949e-12
-0.0004345689
-9.5738411e-05
6.6299232e-12
-0.00042371984
-0.00013484456
7.1390365e-12
-0.00040741459
-0.00017230717
7.5966996e-12
-0.00038563901
-0.00020678882
8.0055468e-12
-0.00035858545
-0.00023685677
8.2352622e-12
-0.00032669443
-0.00026105267
8.2890402e-12
-0.00029068595
-0.0002779879
8.1250192e-12
-0.00025157202
-0.00028646218
7.8661491e-12
-0.00021064189
-0.00028559774
7.5823436e-12
-0.00016941343
-0.00027497467
7.3700174e-12
-0.00012954885
-0.00025474715
7.0050954e-12
-9.2739868e-05
-0.0002257172
6.1782608e-12
-6.0575391e-05
-0.00018934639
6.5157807e-12
-3.4411037e-05
-0.00014769491
1.2212489e-11
-1.5262209e-05
-0.00010328514
7.2532491e-12
-3.7373846e-06
-5.8914156e-05
-2.6124865e-11
-1.7566247e-05
3.4930614e-11
-4.1534895e-06
3.199494e-05
-2.8739155e-11
-1.5000246e-05
8.6940776e-05
4.0885983e-11
-3.1150527e-05
0.00013300099
2.5776259e-12
-5.1423023e-05
0.00017069809
-4.1682766e-12
-7.4827928e-05
0.00020074294
1.1878233e-12
-0.00010054806
0.0002239065
1.3707785e-12
-0.00012791484
0.00024094067
5.8308288e-13
-0.00015638189
0.00025252275
3.95147e-13
-0.00018549857
0.00025921997
4.3970712e-13
-0.0002148851
0.00026147289
3.3625365e-13
-0.00024420985
0.00025959419
3.5087368e-13
-0.00027316969
0.00025377977
5.1381145e-13
-0.00030147321
0.0002441287
5.2950949e-13
-0.00032882681
0.00023066892
5.6402069e-13
-0.00035492346
0.00021338629
8.0995697e-13
-0.00037943379
0.00019225474
1.2226054e-12
-0.00040199941
0.00016726644
1.6649203e-12
-0.00042222858
0.00013846116
2.1842076e-12
-0.0004396946
0.00010595478
2.8892644e-12
-0.00045393741
6.9966879e-05
3.7257614e-12
-0.00046446951
3.0847414e-05
4.3678502e-12
-0.00047078719
-1.0897826e-05
5.0263358e-12
-0.00047238815
-5.4584306e-05
5.7107666e-12
-0.00046879719
-9.9329378e-05
6.3941181e-12
-0.00045960051
-0.00014404124
7.0354458e-12
-0.00044448909
-0.00018741861
7.5758928e-12
-0.00042331021
-0.00022796771
8.0001779e-12
-0.00039612463
-0.00026404235
8.4036736e-12
-0.00036326418
-0.00029391313
8.5756423e-12
-0.00032538191
-0.00031587018
8.5335897e-12
-0.00028348434
-0.00032835977
8.1156122e-12
-0.0002389335
-0.00033014858
7.6992173e-12
-0.00019340787
-0.00032050031
7.4702873e-12
-0.00014881562
-0.00029933941
7.0374098e-12
-0.00010716279
-0.00026737004
5.9616164e-12
-7.0390307e-05
-0.00022611887
6.3540672e-12
-4.0204439e-05
-0.00017788079
1.3127635e-11
-1.7931459e-05
-0.00012555813
7.2864496e-12
-4.4224827e-06
-7.2423099e-05
-3.2075878e-11
-2.1988769e-05
4.0218723e-11
-4.2802789e-06
3.6275245e-05
-3.1148426e-11
-1.545813e-05
9.8118589e-05
4.0492104e-11
-3.2099895e-05
0.00014964275
1.2779135e-12
-5.2985336e-05
0.00019158354
-5.487873e-12
-7.7091877e-05
0.00022484948
2.3878938e-13
-0.00010357718
0.00025039181
5.6405112e-13
-0.00013175604
0.00026911954
-1.6490796e-13
-0.00016107414
0.00028184085
-3.1742017e-13
-0.00019108126
0.0002892271
-2.2541877e-13
-0.00022140538
0.00029179701
-2.7927709e-13
-0.00025172882
0.00028991763
-2.3623969e-13
-0.00028176703
0.00028381799
-7.3761039e-14
-0.0003112502
0.00027361185
-4.8462015e-14
-0.00033990748
0.0002593262
7.925854e-15
-0.00036745385
0.00024093265
3.0216623e-13
-0.00039357899
0.00021837989
7.7917308e-13
-0.00041793836
0.0001916258
1.3229109e-12
-0.00044014619
0.00016066899
1.8316622e-12
-0.00045977112
0.00012557971
2.4945279e-12
-0.00047633479
8.6530548e-05
3.3307266e-12
-0.00048931453
4.3827158e-05
3.9809449e-12
-0.00049815156
-2.0608021e-06
4.6150422e-12
-0.00050226581
-5.0470072e-05
5.2716157e-12
-0.00050107993
-0.00010051526
6.0208965e-12
-0.00049405344
-0.00015106774
6.8494452e-12
-0.00048072875
-0.00020074331
7.5539738e-12
-0.00046078929
-0.00024790718
8.0465115e-12
-0.00043412815
-0.0002907035
8.4750753e-12
-0.00040092287
-0.00032711842
8.7197968e-12
-0.00036170809
-0.00035508497
8.8047677e-12
-0.00031743366
-0.0003726342
8.3957268e-12
-0.00026949211
-0.00037809015
7.8865158e-12
-0.00021969829
-0.00037029414
7.5533693e-12
-0.00017020816
-0.00034882955
7.0371289e-12
-0.00012337356
-0.00031420464
5.7160379e-12
-8.1545815e-05
-0.00026794663
6.1960598e-12
-4.6858061e-05
-0.00021256855
1.4279607e-11
-2.1029025e-05
-0.00015138717
7.4673851e-12
-5.2279704e-06
-8.8224113e-05
-3.8981887e-11
-2.7216785e-05
4.6512742e-11
-4.3649252e-06
4.0640195e-05
-3.2802135e-11
-1.5771431e-05
0.00010952506
4.0322423e-11
-3.2758691e-05
0.00016663001
5.4595592e-13
-5.4078768e-05
0.00021290363
-6.2462698e-12
-7.8683608e-05
0.00024945433
-3.7389534e-13
-0.00010571035
0.00027741855
-5.5364798e-14
-0.00013446014
0.00029786933
-7.5907735e-13
-0.00016437298
0.00031175369
-9.1044634e-13
-0.00019500104
0.00031985516
-7.8895346e-13
-0.00022598238
0.00032277834
-8.1052681e-13
-0.00025701609
0.00032095133
-7.5775491e-13
-0.00028783987
0.00031464177
-5.9627092e-13
-0.00031821015
0.00030398213
-5.2427224e-13
-0.00034788478
0.00028900082
-3.8841727e-13
-0.00037660796
0.00026965584
-2.3571846e-14
-0.00040409725
0.00024586919
4.8494083e-13
-0.00043003229
0.00021756084
1.0852826e-12
-0.00045404534
0.00018468204
1.5704463e-12
-0.00047571388
0.00014724826
2.1426186e-12
-0.0004945559
0.00010537257
2.9055944e-12
-0.00051002874
5.9299987e-05
3.5818374e-12
-0.00052153286
9.4433211e-06
4.28866e-12
-0.00052842302
-4.3579925e-05
4.9047431e-12
-0.00053002764
-9.8910646e-05
5.6265455e-12
-0.00052568077
-0.00015541461
6.5580929e-12
-0.00051476784
-0.00021165624
7.4186621e-12
-0.00049678766
-0.00026588738
8.1214137e-12
-0.00047143065
-0.00031606052
8.5745046e-12
-0.00043867071
-0.00035987837
8.836451e-12
-0.00039886295
-0.00039489275
8.9246064e-12
-0.00035283382
-0.00041866335
8.6216221e-12
-0.00030194379
-0.00042898019
8.1381122e-12
-0.00024809836
-0.00042413957
7.6791953e-12
-0.00019368468
-0.00040324324
7.0228169e-12
-0.00014142116
-0.00036646817
5.4398171e-12
-9.4127993e-05
-0.0003152398
5.9810692e-12
-5.4452344e-05
-0.00025224422
1.5577955e-11
-2.4605324e-05
-0.0001812342
7.7279318e-12
-6.1708568e-06
-0.00010665853
-4.6997698e-11
-3.3387697e-05
5.3787069e-11
-4.4066555e-06
4.504688e-05
-3.3639741e-11
-1.5938062e-05
0.00012105644
4.0303757e-11
-3.3122205e-05
0.00018381415
1.392407e-13
-5.4693188e-05