/*--------------------------------*- C++ -*----------------------------------*\
  =========                 |
  \\      /  F ield         | OpenFOAM: The Open Source CFD Toolbox
   \\    /   O peration     | Website:  https://openfoam.org
    \\  /    A nd           | Version:  7
     \\/     M anipulation  |
\*---------------------------------------------------------------------------*/
FoamFile
{
    version     2.0;
    format      ascii;
    class       volVectorField;
    location    "6";
    object      U;
}
// * * * * * * * * * * * * * * * * * * * * * * * * * * * * * * * * * * * * * //

dimensions      [0 1 -1 0 0 0 0];

internalField   nonuniform List<vector> 
16000
(
(6.1401406e-05 -5.9726695e-05 4.108868e-07)
(0.00014636165 -4.8112672e-05 6.3030589e-06)
(0.00011731646 4.8018551e-06 1.8662793e-05)
(-7.066114e-05 6.1133457e-05 3.4436974e-05)
(-0.00041184156 0.000110403 5.0571893e-05)
(-0.00088046674 0.00014888884 6.5328659e-05)
(-0.0014491229 0.00017690886 7.7477068e-05)
(-0.0020910561 0.0001960533 8.627023e-05)
(-0.0027824349 0.0002079856 9.1292041e-05)
(-0.0035026961 0.00021407348 9.2325426e-05)
(-0.0042339952 0.00021529256 8.9267545e-05)
(-0.004960421 0.00021223408 8.2081062e-05)
(-0.0056672007 0.00020515916 7.0766658e-05)
(-0.006340024 0.00019407589 5.5360473e-05)
(-0.0069645715 0.00017883184 3.5945254e-05)
(-0.0075262775 0.00015921139 1.266769e-05)
(-0.008010346 0.00013502958 -1.4238391e-05)
(-0.0084020224 0.00010622043 -4.4426156e-05)
(-0.008687099 7.2917436e-05 -7.7414085e-05)
(-0.0088526149 3.5521686e-05 -0.00011257219)
(-0.0088877073 -5.2500527e-06 -0.00014911754)
(-0.0087845356 -4.835456e-05 -0.00018612279)
(-0.0085392293 -9.2397021e-05 -0.00022253754)
(-0.008152765 -0.00013569047 -0.00025722625)
(-0.0076316536 -0.00017632062 -0.00028902098)
(-0.0069883743 -0.00021224887 -0.00031678577)
(-0.0062414644 -0.00024144508 -0.00033948938)
(-0.0054152032 -0.00026203811 -0.00035628162)
(-0.0045388599 -0.00027246998 -0.00036656609)
(-0.0036455168 -0.00027163697 -0.00037006314)
(-0.0027705206 -0.00025900061 -0.00036685721)
(-0.0019496609 -0.00023465491 -0.0003574242)
(-0.0012171843 -0.00019934408 -0.00034263773)
(-0.0006035829 -0.00015445945 -0.00032376148)
(-0.0001329931 -0.00010221056 -0.00030241599)
(0.00017708991 -4.6220427e-05 -0.00028040343)
(0.00032134789 9.8917733e-06 -0.00026007947)
(0.00031143147 5.7425342e-05 -0.00024365899)
(0.00018949614 8.1495587e-05 -0.00023371848)
(5.4332007e-05 5.4260515e-05 -0.00021680973)
(5.1027309e-05 -0.00014577688 -5.3285029e-06)
(2.4765655e-05 -2.1153077e-05 6.3685674e-07)
(-0.00030221546 0.00024751885 1.1238329e-05)
(-0.00098073711 0.00053605198 2.4136138e-05)
(-0.0020009532 0.00079764075 3.7382407e-05)
(-0.0033199424 0.0010129746 4.9516207e-05)
(-0.0048815638 0.0011781412 5.9499117e-05)
(-0.0066267081 0.001296098 6.6639082e-05)
(-0.0084987763 0.0013719555 7.0497816e-05)
(-0.010445645 0.0014107987 7.0810036e-05)
(-0.0124197 0.0014167299 6.7420916e-05)
(-0.014376972 0.0013925396 6.0249755e-05)
(-0.016275947 0.0013397456 4.9267705e-05)
(-0.018076464 0.0012588528 3.449309e-05)
(-0.019738921 0.0011497415 1.5998585e-05)
(-0.021223961 0.0010121212 -6.0749902e-06)
(-0.022492681 0.00084599712 -3.1500106e-05)
(-0.023507398 0.00065211884 -5.9941919e-05)
(-0.024232895 0.00043237852 -9.0940807e-05)
(-0.024638092 0.0001901291 -0.00012390152)
(-0.024698021 -6.9606965e-05 -0.00015808993)
(-0.024395895 -0.00034004354 -0.00019264632)
(-0.023725185 -0.00061272025 -0.00022659913)
(-0.022691505 -0.00087773587 -0.00025890645)
(-0.021313985 -0.0011241587 -0.00028850317)
(-0.019626066 -0.0013406004 -0.00031436081)
(-0.017675502 -0.0015159212 -0.00033555457)
(-0.015523437 -0.0016400175 -0.00035133302)
(-0.013242515 -0.001704628 -0.00036118411)
(-0.010914025 -0.0017040832 -0.00036489135)
(-0.0086241825 -0.0016359281 -0.00036257418)
(-0.0064597173 -0.001501367 -0.00035470842)
(-0.004502949 -0.0013055233 -0.00034212445)
(-0.0028264646 -0.0010576066 -0.00032598532)
(-0.0014874904 -0.00077138697 -0.00030774291)
(-0.00052263238 -0.00046647581 -0.00028905758)
(5.9434084e-05 -0.00016773402 -0.00027175447)
(0.00028657033 8.6018519e-05 -0.0002576975)
(0.00024053429 0.00023645175 -0.00024889603)
(8.1833387e-05 0.00018849103 -0.00022990189)
(-1.9323168e-06 -0.00012124275 -1.7925555e-05)
(-0.00025190013 0.00030611265 -9.7979626e-06)
(-0.0010020355 0.00098137447 1.0370422e-06)
(-0.0022527226 0.0016938412 1.265088e-05)
(-0.0039750825 0.002346732 2.4114029e-05)
(-0.006113357 0.0028953159 3.4370089e-05)
(-0.0085929527 0.0033248948 4.2651205e-05)
(-0.011333135 0.0036367453 4.8438638e-05)
(-0.014254191 0.0038388981 5.1382904e-05)
(-0.017280301 0.0039409566 5.1255306e-05)
(-0.02034022 0.0039514229 4.7910035e-05)
(-0.02336675 0.0038765363 4.1259395e-05)
(-0.026295671 0.0037200921 3.1258491e-05)
(-0.029064673 0.0034838885 1.7904591e-05)
(-0.031612629 0.003168556 1.2448682e-06)
(-0.033879442 0.0027745899 -1.8611151e-05)
(-0.03580656 0.0023034518 -4.1474643e-05)
(-0.03733818 0.0017586313 -6.7058541e-05)
(-0.038423083 0.00114658 -9.4961278e-05)
(-0.03901699 0.00047743701 -0.00012465657)
(-0.039085242 -0.00023451538 -0.00015549181)
(-0.038605641 -0.00097069578 -0.00018669365)
(-0.037571198 -0.0017085363 -0.0002173885)
(-0.03599253 -0.0024220995 -0.0002466342)
(-0.033899625 -0.0030831486 -0.0002734649)
(-0.031342773 -0.0036625881 -0.00029694628)
(-0.028392412 -0.0041322075 -0.00031623814)
(-0.025137745 -0.0044666146 -0.00033065946)
(-0.02168403 -0.0046452175 -0.00033974974)
(-0.01814857 -0.0046540903 -0.00034332032)
(-0.014655478 -0.0044875681 -0.00034149005)
(-0.011329435 -0.0041494623 -0.00033470057)
(-0.0082886599 -0.0036538781 -0.00032370828)
(-0.0056373607 -0.0030257744 -0.00030955367)
(-0.0034578966 -0.0023016776 -0.00029350962)
(-0.0018028856 -0.0015311479 -0.00027701087)
(-0.00068676468 -0.00077915935 -0.0002615703)
(-7.7016764e-05 -0.00013273186 -0.0002486935)
(0.00011801482 0.00029001455 -0.0002399124)
(6.3748326e-05 0.00031606112 -0.00022018094)
(-6.2835754e-05 7.1069673e-05 -3.4434106e-05)
(-0.00057376205 0.0010115142 -2.2686173e-05)
(-0.0018053768 0.0022494952 -9.9485685e-06)
(-0.0036746866 0.0035140514 1.9488302e-06)
(-0.0061183213 0.0046675675 1.3003822e-05)
(-0.009063354 0.0056412118 2.2505441e-05)
(-0.012418319 0.0064087592 2.9946354e-05)
(-0.016085248 0.006968538 3.5009915e-05)
(-0.019966871 0.007330498 3.7477589e-05)
(-0.023969309 0.0075082318 3.719632e-05)
(-0.028002872 0.0075145038 3.4058248e-05)
(-0.031981764 0.0073591358 2.7987098e-05)
(-0.035823213 0.0070485194 1.8930504e-05)
(-0.039446603 0.0065862296 6.8638113e-06)
(-0.042772964 0.0059743353 -8.1991264e-06)
(-0.045725084 0.0052150937 -2.6191174e-05)
(-0.048228356 0.0043127821 -4.6973362e-05)
(-0.050212376 0.0032754668 -7.0314577e-05)
(-0.051613228 0.0021165477 -9.5874227e-05)
(-0.052376317 0.00085593991 -0.0001231904)
(-0.052459539 -0.00047921752 -0.00015167551)
(-0.051836609 -0.0018544378 -0.00018061921)
(-0.050500233 -0.0032284015 -0.00020920745)
(-0.048464838 -0.0045541542 -0.00023655021)
(-0.045768604 -0.0057809889 -0.00026172477)
(-0.042474497 -0.0068569566 -0.00028382964)
(-0.038670068 -0.007731885 -0.00030204643)
(-0.034465808 -0.008360729 -0.00031570485)
(-0.029991957 -0.0087070216 -0.00032434422)
(-0.025393732 -0.0087461587 -0.00032776488)
(-0.020825067 -0.0084682643 -0.00032606269)
(-0.016441057 -0.0078804372 -0.00031964169)
(-0.012389409 -0.0070083086 -0.0003092018)
(-0.0088012535 -0.0058970369 -0.00029570171)
(-0.0057817592 -0.0046121424 -0.0002802995)
(-0.0034009464 -0.0032409068 -0.00026427758)
(-0.00168456 -0.0018952319 -0.00024897226)
(-0.00060551782 -0.00071676604 -0.00023569354)
(-7.9997102e-05 0.0001150253 -0.00022554006)
(2.919893e-05 0.00035516929 -0.00020399085)
(-0.00012271786 0.00044155861 -5.1824016e-05)
(-0.00090171347 0.0021238768 -3.5969043e-05)
(-0.0026337956 0.0040797828 -2.060024e-05)
(-0.0051395762 0.0060077946 -7.6645247e-06)
(-0.008310668 0.007745404 3.6924828e-06)
(-0.012051423 0.0092076117 1.3059283e-05)
(-0.016251915 0.010360205 2.0174264e-05)
(-0.020798136 0.011199679 2.4926743e-05)
(-0.025578149 0.011737915 2.7240039e-05)
(-0.030483733 0.01199215 2.7050088e-05)
(-0.035410734 0.011979059 2.4298682e-05)
(-0.040258686 0.011711835 1.8928115e-05)
(-0.044930026 0.011199455 1.0880435e-05)
(-0.049329375 0.010447504 1.0633569e-07)
(-0.053363248 0.0094599957 -1.3419825e-05)
(-0.056940425 0.0082417612 -2.9681236e-05)
(-0.059973081 0.0068010445 -4.859704e-05)
(-0.062378703 0.0051520057 -6.9999151e-05)
(-0.0640827 0.0033168915 -9.3611976e-05)
(-0.06502157 0.0013276762 -0.00011903715)
(-0.065146422 -0.00077299876 -0.00014574512)
(-0.06442662 -0.0029317291 -0.0001730766)
(-0.062853284 -0.0050851414 -0.00020025573)
(-0.060442338 -0.0071617053 -0.00022641718)
(-0.05723682 -0.0090845061 -0.00025064778)
(-0.053308148 -0.010774922 -0.0002720407)
(-0.048756062 -0.012157051 -0.00028975901)
(-0.043707 -0.013162648 -0.00030310319)
(-0.038310746 -0.013736252 -0.00031157602)
(-0.032735248 -0.013840138 -0.00031493702)
(-0.027159688 -0.013458707 -0.00031323879)
(-0.02176597 -0.012601998 -0.00030683958)
(-0.016728975 -0.011308139 -0.00029638875)
(-0.012206055 -0.0096447764 -0.00028278463)
(-0.0083264307 -0.0077098317 -0.0002671075)
(-0.0051811345 -0.0056323082 -0.00025053903)
(-0.0028132279 -0.0035741011 -0.00023430867)
(-0.0012091385 -0.0017328534 -0.00021961351)
(-0.0003049152 -0.00034696041 -0.00020710339)
(-8.632021e-06 0.00027773096 -0.00018315231)
(-0.00017825108 0.00098333766 -6.809283e-05)
(-0.0012188006 0.0036444999 -4.7846734e-05)
(-0.0034486048 0.0064801272 -2.9467623e-05)
(-0.0065887869 0.0091824893 -1.5018068e-05)
(-0.010480881 0.011580631 -2.8614628e-06)
(-0.015002365 0.013583873 6.8460373e-06)
(-0.020022749 0.015156138 1.4064459e-05)
(-0.02541186 0.016295266 1.8878419e-05)
(-0.031044499 0.017016479 2.1350591e-05)
(-0.036800504 0.017341106 2.1507545e-05)
(-0.042564217 0.017289731 1.9342892e-05)
(-0.048223707 0.016878776 1.481823e-05)
(-0.053669834 0.016119707 7.8682652e-06)
(-0.05879556 0.015020165 -1.5849144e-06)
(-0.063495762 0.013586361 -1.361212e-05)
(-0.06766778 0.01182619 -2.8253695e-05)
(-0.071212734 0.0097526146 -4.5493852e-05)
(-0.074037651 0.0073869037 -6.5233532e-05)
(-0.076058282 0.0047614378 -8.7265738e-05)
(-0.0772025 0.0019218077 -0.0001112556)
(-0.077414063 -0.0010720033 -0.00013672727)
(-0.076656524 -0.0041455256 -0.00016306149)
(-0.074917059 -0.0072108849 -0.00018950405)
(-0.072209901 -0.010169202 -0.00021519148)
(-0.068579062 -0.012914254 -0.00023919155)
(-0.064100052 -0.015337349 -0.00026055858)
(-0.058880252 -0.017333238 -0.00027840016)
(-0.053057635 -0.01880677 -0.00029194959)
(-0.046797584 -0.019679904 -0.00030063675)
(-0.040287649 -0.019898582 -0.00030414869)
(-0.033730214 -0.019438937 -0.00030247106)
(-0.027333256 -0.018312355 -0.00029590363)
(-0.021299539 -0.016569017 -0.00028504616)
(-0.015814853 -0.014299817 -0.00027075362)
(-0.011036177 -0.011636862 -0.00025406233)
(-0.0070806911 -0.0087532075 -0.00023610335)
(-0.0040149749 -0.0058627061 -0.00021806815)
(-0.0018456259 -0.0032196709 -0.00020112355)
(-0.00053548659 -0.0011194794 -0.00018553891)
(-4.4557377e-05 7.9916853e-05 -0.00015886346)
(-0.00022921585 0.0016875952 -8.1498637e-05)
(-0.0015193234 0.0055619275 -5.6722669e-05)
(-0.0042318678 0.0094405371 -3.5187053e-05)
(-0.0079911827 0.013027882 -1.8947445e-05)
(-0.012587453 0.016159542 -5.658893e-06)
(-0.017869032 0.018750239 4.7412638e-06)
(-0.023683393 0.020769503 1.2410277e-05)
(-0.029883882 0.022221124 1.761169e-05)
(-0.036332815 0.023126239 2.053776e-05)
(-0.042899747 0.023511534 2.129984e-05)
(-0.049459778 0.023401983 1.9938845e-05)
(-0.055892099 0.022817308 1.6431318e-05)
(-0.062078714 0.021771374 1.0699993e-05)
(-0.067903573 0.020273772 2.6329101e-06)
(-0.073252358 0.018332881 -7.8923036e-06)
(-0.078013054 0.015959759 -2.0980173e-05)
(-0.082077336 0.013172315 -3.6687025e-05)
(-0.085342766 0.009999312 -5.4989256e-05)
(-0.087715718 0.0064838129 -7.5753427e-05)
(-0.089114887 0.0026857623 -9.8710349e-05)
(-0.089475248 -0.0013165413 -0.00012343627)
(-0.088752217 -0.0054262952 -0.00014934568)
(-0.086925855 -0.0095294638 -0.0001756944)
(-0.08400482 -0.013497687 -0.00020160324)
(-0.08002971 -0.017192755 -0.00022609701)
(-0.075075518 -0.020472641 -0.00024816133)
(-0.069252779 -0.023198927 -0.00026681364)
(-0.062707012 -0.025245301 -0.0002811823)
(-0.0556161 -0.026506658 -0.0002905858)
(-0.04818531 -0.026908212 -0.00029460288)
(-0.040639831 -0.026413895 -0.0002931227)
(-0.033214935 -0.025033348 -0.00028636727)
(-0.02614413 -0.022826873 -0.00027488151)
(-0.019645982 -0.019908003 -0.0002594883)
(-0.013910771 -0.016443682 -0.00024120953)
(-0.0090881376 -0.01265259 -0.00022117345)
(-0.0052746239 -0.0088023952 -0.00020059996)
(-0.002502719 -0.0052054984 -0.00018070703)
(-0.00076610401 -0.0022143545 -0.00016146958)
(-7.7645448e-05 -0.00023644431 -0.00013188499)
(-0.00027618714 0.0025443439 -9.0579808e-05)
(-0.0018019901 0.0078585532 -6.1171817e-05)
(-0.0049757205 0.012941101 -3.6489254e-05)
(-0.0093303325 0.017522899 -1.8336425e-05)
(-0.014605843 0.02145922 -3.7208113e-06)
(-0.020620988 0.024680918 7.613611e-06)
(-0.02720074 0.027171062 1.6000968e-05)
(-0.034182002 0.0289448 2.1866659e-05)
(-0.041415303 0.030032588 2.5519215e-05)
(-0.048761248 0.030468396 2.7144176e-05)
(-0.056087532 0.030282533 2.682122e-05)
(-0.063266644 0.029498336 2.453417e-05)
(-0.07017404 0.028132025 2.0186597e-05)
(-0.076686939 0.026194916 1.3625423e-05)
(-0.082683909 0.023697244 4.6693745e-06)
(-0.0880453 0.020652884 -6.8582329e-06)
(-0.09265455 0.017084355 -2.1094344e-05)
(-0.096400321 0.0130276 -3.8099151e-05)
(-0.09917939 0.0085361026 -5.7820309e-05)
(-0.1009002 0.0036840213 -8.0060316e-05)
(-0.10148696 -0.0014319625 -0.00010445086)
(-0.10088403 -0.0066923179 -0.0001304403)
(-0.099060596 -0.011955939 -0.00015728901)
(-0.096015328 -0.017063423 -0.00018409088)
(-0.091780529 -0.021842189 -0.00020980943)
(-0.086425668 -0.026113571 -0.00023333587)
(-0.080059693 -0.029701733 -0.00025356459)
(-0.072831627 -0.032444104 -0.00026948024)
(-0.064928941 -0.034202816 -0.00028024768)
(-0.056573235 -0.034876431 -0.00028529506)
(-0.048012941 -0.034411024 -0.00028437742)
(-0.039513028 -0.032809632 -0.00027761083)
(-0.031342034 -0.03013912 -0.00026547118)
(-0.023757204 -0.026533742 -0.00024875274)
(-0.016989132 -0.022195117 -0.00022848612)
(-0.01122735 -0.017388964 -0.00020584)
(-0.0066053467 -0.012439329 -0.00018212483)
(-0.0031869917 -0.0077198416 -0.00015868685)
(-0.00099978138 -0.0036432302 -0.0001352865)
(-0.0001088016 -0.00066988912 -0.00010260822)
(-0.0003196657 0.003543731 -9.4067786e-05)
(-0.0020665784 0.010513905 -5.9901751e-05)
(-0.0056760992 0.016956294 -3.2173806e-05)
(-0.01059626 0.022639742 -1.2084246e-05)
(-0.016519569 0.027450647 3.96075e-06)
(-0.023236008 0.031345939 1.6394487e-05)
(-0.030548559 0.034330083 2.5712054e-05)
(-0.038278261 0.036435324 3.2484699e-05)
(-0.046264729 0.037705316 3.7123278e-05)
(-0.054360886 0.038183729 3.9875294e-05)
(-0.062428661 0.037907514 4.0848417e-05)
(-0.070335749 0.036904172 4.0024379e-05)
(-0.077953102 0.035192291 3.7279196e-05)
(-0.085153232 0.032784572 3.2410372e-05)
(-0.091809428 0.029692518 2.5168899e-05)
(-0.097795901 0.025932044 1.5296406e-05)
(-0.10298884 0.021529356 2.5650077e-06)
(-0.10726835 0.016526534 -1.3180407e-05)
(-0.11052118 0.010986393 -3.1980107e-05)
(-0.11264419 0.0049962563 -5.3719317e-05)
(-0.11354857 -0.001329674 -7.8094539e-05)
(-0.1131644 -0.0078496226 -0.00010459637)
(-0.11144591 -0.014395288 -0.00013249052)
(-0.10837694 -0.020775233 -0.0001608401)
(-0.10397614 -0.026780411 -0.00018853519)
(-0.098301935 -0.032192124 -0.00021435076)
(-0.091456394 -0.036792348 -0.0002370263)
(-0.083587473 -0.040376172 -0.00025536155)
(-0.074888898 -0.042765829 -0.00026831963)
(-0.065597005 -0.043825484 -0.00027512698)
(-0.055983989 -0.043475637 -0.00027535558)
(-0.046347356 -0.041705774 -0.00026897524)
(-0.036995795 -0.038583875 -0.00025636677)
(-0.028232273 -0.034261574 -0.00023828943)
(-0.020336014 -0.028974276 -0.00021579815)
(-0.013545143 -0.02303632 -0.0001901399)
(-0.0080380812 -0.016831877 -0.00016277442)
(-0.0039161479 -0.010801234 -0.00013525038)
(-0.0012440684 -0.0054240699 -0.00010717843)
(-0.00013968135 -0.0012223181 -7.1134976e-05)
(-0.00035989564 0.004676108 -9.0818128e-05)
(-0.0023126785 0.013505714 -5.1725609e-05)
(-0.0063296998 0.021456572 -2.1110139e-05)
(-0.011780939 0.028345198 8.7809574e-07)
(-0.018314915 0.034099112 1.8397057e-05)
(-0.025694658 0.038710371 3.2047382e-05)
(-0.033702442 0.042212327 4.2473322e-05)
(-0.042144536 0.044660063 5.0378031e-05)
(-0.050850772 0.046114538 5.6261245e-05)
(-0.059667719 0.04663182 6.0420418e-05)
(-0.068453111 0.046257089 6.2980478e-05)
(-0.077071624 0.045022726 6.3911436e-05)
(-0.085391597 0.04294976 6.3052681e-05)
(-0.093282714 0.040051842 6.0143158e-05)
(-0.10061471 0.036340904 5.4856282e-05)
(-0.10725708 0.031833715 4.6840887e-05)
(-0.11307973 0.026558672 3.5765407e-05)
(-0.11795454 0.02056225 2.1365182e-05)
(-0.12175783 0.013914673 3.4910373e-06)
(-0.12437361 0.0067144509 -1.7842143e-05)
(-0.12569782 -0.00090851862 -4.2412192e-05)
(-0.12564305 -0.0087915566 -6.9770697e-05)
(-0.12414437 -0.016739991 -9.9196396e-05)
(-0.1211657 -0.024530033 -0.00012972685)
(-0.11670631 -0.031914469 -0.00016017387)
(-0.11080743 -0.038631212 -0.00018917924)
(-0.10355815 -0.044414842 -0.00021529706)
(-0.095099856 -0.049011057 -0.00023709818)
(-0.085628189 -0.05219352 -0.00025328861)
(-0.075391698 -0.053782227 -0.0002628305)
(-0.064686183 -0.053661994 -0.00026504916)
(-0.053844259 -0.051799294 -0.00025971136)
(-0.043220122 -0.048255455 -0.00024706097)
(-0.033170275 -0.043194372 -0.00022780216)
(-0.024032118 -0.036883415 -0.00020301972)
(-0.016102584 -0.029687272 -0.00017407031)
(-0.0096145696 -0.022055329 -0.00014261903)
(-0.0047143334 -0.014502436 -0.00011049013)
(-0.0015088946 -0.0075853588 -7.7192514e-05)
(-0.00017224435 -0.0019006102 -3.7376233e-05)
(-0.00039686699 0.0059316296 -7.9779862e-05)
(-0.0025392939 0.016809932 -3.5548823e-05)
(-0.006932672 0.026408805 -2.2416601e-06)
(-0.012876085 0.034601083 2.1569576e-05)
(-0.019978099 0.041364237 4.0573294e-05)
(-0.027977186 0.046733634 5.553133e-05)
(-0.036636741 0.050778485 6.7227958e-05)
(-0.045749754 0.053582265 7.6486376e-05)
(-0.055137632 0.055227371 8.3883671e-05)
(-0.064642014 0.055785125 8.975667e-05)
(-0.074118001 0.055310696 9.4237898e-05)
(-0.083428973 0.053842205 9.7276705e-05)
(-0.092442477 0.051403243 9.8667088e-05)
(-0.10102721 0.048007913 9.8080216e-05)
(-0.10905108 0.043667526 9.5101483e-05)
(-0.11638037 0.038398164 8.9274377e-05)
(-0.1228798 0.032228417 8.0148331e-05)
(-0.12841363 0.025206751 6.7330698e-05)
(-0.13284761 0.017408093 5.054181e-05)
(-0.136052 0.0089392701 2.9671215e-05)
(-0.13790551 -5.6938721e-05 4.8299369e-06)
(-0.13830041 -0.0093994134 -2.360398e-05)
(-0.13714866 -0.018868826 -5.4960161e-05)
(-0.13438912 -0.028209605 -8.8262345e-05)
(-0.12999566 -0.037135342 -0.00012224778)
(-0.12398559 -0.045337504 -0.00015541515)
(-0.11642798 -0.052497901 -0.0001861058)
(-0.1074508 -0.058304999 -0.00021261583)
(-0.097245737 -0.062473761 -0.00023333093)
(-0.086069413 -0.064768095 -0.00024687282)
(-0.074239598 -0.065024322 -0.00025223807)
(-0.062125529 -0.063173425 -0.00024891247)
(-0.050131845 -0.059259379 -0.00023693948)
(-0.038676756 -0.0534508 -0.00021692902)
(-0.028166524 -0.046043752 -0.00018998696)
(-0.018968866 -0.037454812 -0.00015760225)
(-0.011382841 -0.028204869 -0.00012169886)
(-0.0056093538 -0.018893678 -8.4451427e-05)
(-0.0018054238 -0.010168551 -4.5300153e-05)
(-0.00020855395 -0.0027173842 -1.1361211e-06)
(-0.00043036222 0.0072998199 -5.9986589e-05)
(-0.0027447881 0.020400342 -1.0367973e-05)
(-0.0074801862 0.031776152 2.5407592e-05)
(-0.013872261 0.041364218 5.0944356e-05)
(-0.021493997 0.049199791 7.1426524e-05)
(-0.030062044 0.055368872 8.7772855e-05)
(-0.039323071 0.059982929 0.00010090045)
(-0.049058521 0.063159075 0.00011174275)
(-0.059082891 0.065005195 0.00012094494)
(-0.06923437 0.065610775 0.0001288747)
(-0.079366999 0.06504285 0.00013566438)
(-0.089344556 0.063346267 0.00014123531)
(-0.09903561 0.060547366 0.00014532859)
(-0.10830974 0.056660176 0.00014753907)
(-0.11703488 0.051694209 0.00014735367)
(-0.12507577 0.045663047 0.00014419707)
(-0.13229339 0.038593062 0.00013748227)
(-0.13854535 0.030531752 0.00012666649)
(-0.1436873 0.02155532 0.00011131237)
(-0.14757541 0.011775201 9.115233e-05)
(-0.15006999 0.0013432574 6.6151218e-05)
(-0.15104071 -0.0095446561 3.6577216e-05)
(-0.15037299 -0.020647281 3.0169746e-06)
(-0.14797589 -0.031678989 -3.3568941e-05)
(-0.14379182 -0.04231417 -7.1860914e-05)
(-0.137807 -0.052195536 -0.00011021535)
(-0.13006243 -0.060947007 -0.00014674017)
(-0.1206643 -0.068191604 -0.00017941146)
(-0.10979246 -0.073574252 -0.00020622474)
(-0.097705139 -0.076788741 -0.00022537042)
(-0.08473813 -0.077607133 -0.00023541258)
(-0.071296844 -0.075908886 -0.00023545091)
(-0.057840072 -0.071706175 -0.00022523645)
(-0.044855693 -0.065161462 -0.00020521911)
(-0.032830427 -0.05659389 -0.00017649601)
(-0.022216722 -0.046472602 -0.00014069822)
(-0.013394161 -0.03539705 -0.00010005897)
(-0.0066310058 -0.024064492 -5.718237e-05)
(-0.0021454782 -0.013229436 -1.1461754e-05)
(-0.00025071417 -0.0036913855 3.7811747e-05)
(-0.00046001269 0.0087692032 -3.0559145e-05)
(-0.002926998 0.024248086 2.4723973e-05)
(-0.007966493 0.037517701 6.2723219e-05)
(-0.014758811 0.048586138 8.9875667e-05)
(-0.022845951 0.057553276 0.00011182327)
(-0.03192563 0.064562226 0.00012963802)
(-0.041730075 0.069772488 0.0001443639)
(-0.052031015 0.073339692 0.00015703669)
(-0.062637594 0.075401106 0.00016836267)
(-0.073386032 0.076067291 0.00017873442)
(-0.084130855 0.075419131 0.00018827891)
(-0.094737918 0.073509297 0.00019688442)
(-0.10507864 0.070367176 0.00020423367)
(-0.11502541 0.06600625 0.00020983832)
(-0.12444821 0.060433008 0.00021307728)
(-0.13321223 0.053656571 0.00021324292)
(-0.14117654 0.045698402 0.00020959306)
(-0.14819372 0.036601642 0.00020140957)
(-0.1541105 0.026439764 0.00018806509)
(-0.15876957 0.015324307 0.00016909637)
(-0.16201272 0.0034114512 0.00014427971)
(-0.16368574 -0.0090928986 0.00011370981)
(-0.16364491 -0.021929779 7.7852641e-05)
(-0.16176563 -0.034786653 3.760428e-05)
(-0.15795319 -0.047300131 -5.6942953e-06)
(-0.15215534 -0.059063135 -5.0273764e-05)
(-0.14437614 -0.069637494 -9.3999897e-05)
(-0.13469006 -0.078572802 -0.00013448901)
(-0.12325484 -0.085431921 -0.00016927321)
(-0.11032092 -0.089822663 -0.00019600695)
(-0.096234994 -0.091434001 -0.00021269397)
(-0.081435185 -0.090073735 -0.00021790991)
(-0.066435877 -0.085703108 -0.00021098402)
(-0.051801536 -0.078462986 -0.00019210389)
(-0.038111421 -0.068686349 -0.00016229768)
(-0.02591864 -0.056893605 -0.00012332893)
(-0.015700817 -0.043769889 -7.7785106e-05)
(-0.0078100369 -0.030124472 -2.8785188e-05)
(-0.0025412613 -0.016838835 2.4309043e-05)
(-0.00030086737 -0.0048476898 7.9653852e-05)
(-0.00048535761 0.010327042 9.281058e-06)
(-0.0030834435 0.028321294 7.0524791e-05)
(-0.008385291 0.043588146 0.00011048471)
(-0.015524338 0.056212786 0.00013913582)
(-0.02401634 0.066365522 0.00016253467)
(-0.033542959 0.074252151 0.00018190233)
(-0.043824245 0.080085325 0.00019840461)
(-0.054623997 0.08406367 0.00021317338)
(-0.065747498 0.086357556 0.00022697133)
(-0.077030411 0.087101519 0.00024021289)
(-0.088329218 0.086392363 0.00025301739)
(-0.099513482 0.084291847 0.00026523819)
(-0.11045929 0.080832858 0.00027649709)
(-0.1210439 0.076027994 0.00028621825)
(-0.13114151 0.069879582 0.00029366506)
(-0.1406201 0.06239032 0.00029798523)
(-0.14933922 0.053573967 0.00029826252)
(-0.15714874 0.043465678 0.00029357657)
(-0.16388857 0.032131775 0.00028307379)
(-0.16938968 0.019678781 0.00026604898)
(-0.17347646 0.006261564 0.00024203381)
(-0.17597099 -0.0079096868 0.00021089009)
(-0.17669938 -0.022564039 0.0001728925)
(-0.17550058 -0.037366905 0.00012880794)
(-0.17223806 -0.05192045 7.994255e-05)
(-0.1668141 -0.065768719 2.8153017e-05)
(-0.15918648 -0.078408953 -2.4194727e-05)
(-0.14938657 -0.089310479 -7.4330404e-05)
(-0.13753732 -0.097942205 -0.00011925271)
(-0.12386857 -0.10380884 -0.00015596566)
(-0.10872667 -0.10649458 -0.00018176068)
(-0.09257485 -0.10571091 -0.00019451397)
(-0.075980954 -0.10134332 -0.00019295657)
(-0.059590719 -0.093489551 -0.00017686252)
(-0.044087698 -0.082481802 -0.00014708768)
(-0.030143328 -0.068886877 -0.00010548847)
(-0.018354282 -0.053481606 -5.5040596e-05)
(-0.0091774244 -0.037203162 5.2989599e-07)
(-0.0030052318 -0.021082878 6.1879379e-05)
(-0.00036121933 -0.0062178376 0.00012446769)
(-0.00050590799 0.011959222 6.0192733e-05)
(-0.0032116025 0.032584946 0.00012770543)
(-0.008730309 0.049937693 0.00016934706)
(-0.016157597 0.064184421 0.00019937501)
(-0.024987748 0.075570463 0.00022421092)
(-0.034889105 0.084368916 0.00024521996)
(-0.045571637 0.090850029 0.00026368515)
(-0.056792829 0.095259487 0.00028082977)
(-0.068355437 0.0978043 0.0002974708)
(-0.080095823 0.09864588 0.00031404456)
(-0.091873783 0.097899146 0.00033066407)
(-0.10356413 0.095636399 0.00034714957)
(-0.11504942 0.091894724 0.00036306321)
(-0.12621386 0.086685737 0.00037774092)
(-0.13693829 0.080006679 0.00039032628)
(-0.14709614 0.071852038 0.00039981251)
(-0.15655035 0.062225169 0.00040509203)
(-0.16515118 0.051149607 0.00040501539)
(-0.1727349 0.038679927 0.00039846473)
(-0.17912377 0.024912136 0.0003844421)
(-0.18412743 0.0099934901 0.0003621707)
(-0.18754625 -0.0058684398 0.00033120584)
(-0.18917693 -0.022397872 0.00029154551)
(-0.18882108 -0.039244977 0.00024374082)
(-0.18629716 -0.05598317 0.00018898092)
(-0.18145602 -0.072111181 0.00012914313)
(-0.17420005 -0.087061826 6.67867e-05)
(-0.16450527 -0.10021958 5.071944e-06)
(-0.15244486 -0.11094884 -5.2409994e-05)
(-0.13821162 -0.11863386 -0.00010189698)
(-0.12213556 -0.12273005 -0.00013979595)
(-0.10469196 -0.12282337 -0.00016306906)
(-0.086494861 -0.11869208 -0.00016961714)
(-0.068272091 -0.11036143 -0.00015858575)
(-0.050821612 -0.098140648 -0.00013049504)
(-0.034951948 -0.082632239 -8.7209436e-05)
(-0.021403392 -0.064707914 -3.2105897e-05)
(-0.010763756 -0.045449114 3.0386042e-05)
(-0.00355004 -0.026062931 0.00010092575)
(-0.00043407704 -0.0078399526 0.00017214873)
(-0.00052121554 0.013650294 0.0001226933)
(-0.0033092416 0.037001058 0.000196791)
(-0.0089960573 0.05651235 0.0002398226)
(-0.016648691 0.072435893 0.00027110099)
(-0.025744599 0.085095271 0.00029735688)
(-0.035941253 0.094834466 0.00032009332)
(-0.046940339 0.10198507 0.00034070654)
(-0.058494379 0.10684349 0.0003605082)
(-0.070404687 0.10965677 0.00038037036)
(-0.082509385 0.1106161 0.00040075478)
(-0.094672761 0.10985689 0.00042177348)
(-0.1067763 0.10746368 0.00044321981)
(-0.11871078 0.10347877 0.00046460191)
(-0.13036949 0.097913039 0.00048517125)
(-0.1416424 0.090758083 0.00050395166)
(-0.1524114 0.081998748 0.00051977617)
(-0.16254626 0.07162561 0.00053133189)
(-0.17190145 0.059647185 0.00053721593)
(-0.1803138 0.046101838 0.00053600884)
(-0.18760127 0.031069458 0.00052636771)
(-0.19356312 0.014682977 0.00050713866)
(-0.19798193 -0.0028603866 0.00047748622)
(-0.20062804 -0.021288482 0.00043703213)
(-0.20126719 -0.040245072 0.0003860035)
(-0.19967194 -0.059283211 0.00032536186)
(-0.19563769 -0.077863157 0.00025690441)
(-0.18900349 -0.095357131 0.00018330806)
(-0.17967768 -0.11106378 0.00010809053)
(-0.16766715 -0.12423525 3.5461159e-05)
(-0.15310781 -0.13411935 -2.9949137e-05)
(-0.13629208 -0.14001758 -8.3480796e-05)
(-0.11768771 -0.14135702 -0.00012093127)
(-0.097940704 -0.13776994 -0.00013907836)
(-0.077855889 -0.12917019 -0.0001361458)
(-0.05835217 -0.11581147 -0.00011207338)
(-0.040393713 -0.098312466 -6.8581417e-05)
(-0.024892261 -0.077637619 -9.4237271e-06)
(-0.01259854 -0.055028028 6.0173153e-05)
(-0.0041884664 -0.031895202 0.00014085293)
(-0.00052189115 -0.0097588551 0.00022232813)
(-0.00053094668 0.015383718 0.00019713745)
(-0.0033747932 0.041529283 0.00027814354)
(-0.0091787165 0.063254706 0.00032226541)
(-0.016990534 0.080897428 0.00035466183)
(-0.026275187 0.094860989 0.00038231055)
(-0.036681271 0.10556276 0.00040684513)
(-0.047903582 0.11339874 0.00042977189)
(-0.059690673 0.11871937 0.00045249027)
(-0.071843217 0.12181498 0.00047593149)
(-0.084201914 0.12290957 0.0005005904)
(-0.096636542 0.12216156 0.00052658786)
(-0.10903654 0.11966977 0.00055370126)
(-0.12130256 0.11548309 0.00058139539)
(-0.13333903 0.10961237 0.00060884613)
(-0.14504773 0.10204349 0.00063496298)
(-0.15632217 0.09275076 0.00065841842)
(-0.16704278 0.08171014 0.00067768574)
(-0.17707274 0.068912258 0.0006910891)
(-0.18625455 0.054375226 0.00069687425)
(-0.19440757 0.038157486 0.00069330347)
(-0.20132669 0.020370898 0.00067877659)
(-0.20678276 0.0011941137 0.00065197728)
(-0.21052533 -0.019113973 0.00061204441)
(-0.21228855 -0.040201401 0.0005587503)
(-0.21180123 -0.061612076 0.0004926913)
(-0.2088021 -0.082778407 0.0004154466)
(-0.20306128 -0.10302044 0.00032968983)
(-0.19440843 -0.12155499 0.00023921393)
(-0.18276719 -0.13751902 0.00014882871)
(-0.16819407 -0.15001124 6.4103234e-05)
(-0.1509176 -0.15815499 -9.0637819e-06)
(-0.13137105 -0.16118222 -6.5030258e-05)
(-0.11020949 -0.15853327 -9.9098034e-05)
(-0.088301128 -0.14996042 -0.00010818554)
(-0.066686112 -0.13561596 -9.1302771e-05)
(-0.046500513 -0.11610256 -4.9777825e-05)
(-0.028857668 -0.092466219 1.2345729e-05)
(-0.01470932 -0.066119795 8.8968252e-05)
(-0.0049333145 -0.038709944 0.00018069753)
(-0.00062729677 -0.012026161 0.00027427453)
(-0.00053496216 0.01714231 0.00028369853)
(-0.0034077764 0.046127967 0.00037194937)
(-0.0092771505 0.070105292 0.00041686092)
(-0.017180535 0.089496039 0.00045023367)
(-0.026574021 0.10478378 0.00047922621)
(-0.037098705 0.11646071 0.0005055945)
(-0.048443356 0.12498969 0.00053095354)
(-0.060353152 0.13077825 0.00055679335)
(-0.072628624 0.1341632 0.00058411265)
(-0.085113651 0.13540446 0.00061345172)
(-0.097684321 0.13468633 0.00064495502)
(-0.11023916 0.13212423 0.00067839993)
(-0.12269025 0.12777548 0.00071322375)
(-0.13495521 0.1216521 0.0007485411)
(-0.14695021 0.11373482 0.00078315844)