/*--------------------------------*- C++ -*----------------------------------*\
  =========                 |
  \\      /  F ield         | OpenFOAM: The Open Source CFD Toolbox
   \\    /   O peration     | Website:  https://openfoam.org
    \\  /    A nd           | Version:  7
     \\/     M anipulation  |
\*---------------------------------------------------------------------------*/
FoamFile
{
    version     2.0;
    format      ascii;
    class       volVectorField;
    location    "6";
    object      U_0;
}
// * * * * * * * * * * * * * * * * * * * * * * * * * * * * * * * * * * * * * //

dimensions      [0 1 -1 0 0 0 0];

internalField   nonuniform List<vector> 
16000
(
(6.1192039e-05 -5.9875917e-05 5.2692462e-07)
(0.00014603798 -4.8228597e-05 6.4787196e-06)
(0.00011707606 4.7660137e-06 1.8866712e-05)
(-7.0831685e-05 6.1095384e-05 3.4654693e-05)
(-0.00041192898 0.00011036187 5.0794032e-05)
(-0.00088039555 0.00014883661 6.5554102e-05)
(-0.0014488476 0.00017684471 7.770452e-05)
(-0.002090538 0.00019598074 8.6498973e-05)
(-0.0027816459 0.00020790855 9.1521726e-05)
(-0.0035016175 0.00021399224 9.2555609e-05)
(-0.0042326196 0.00021520779 8.9498452e-05)
(-0.0049587476 0.00021214903 8.2311636e-05)
(-0.0056652303 0.0002050762 7.0997295e-05)
(-0.006337768 0.00019399621 5.5593263e-05)
(-0.0069620531 0.00017875759 3.6181297e-05)
(-0.0075235257 0.00015914547 1.2906934e-05)
(-0.0080073961 0.00013497467 -1.3994986e-05)
(-0.0083989193 0.00010617893 -4.4176728e-05)
(-0.0086838964 7.2891806e-05 -7.7157188e-05)
(-0.0088493728 3.5514402e-05 -0.00011230688)
(-0.0088844897 -5.2372859e-06 -0.0001488439)
(-0.0087814088 -4.8321236e-05 -0.00018584078)
(-0.0085362606 -9.2343605e-05 -0.00022224713)
(-0.0081500181 -0.00013561839 -0.00025692873)
(-0.0076291846 -0.00017623232 -0.00028871803)
(-0.0069862287 -0.00021214772 -0.00031647922)
(-0.0062396746 -0.00024133544 -0.00033918172)
(-0.0054137866 -0.00026192523 -0.00035597521)
(-0.0045378181 -0.00027235956 -0.00036626286)
(-0.0036448342 -0.0002715348 -0.00036976522)
(-0.0027701648 -0.00025891224 -0.00036656718)
(-0.001949584 -0.00023458494 -0.00035714418)
(-0.001217326 -0.00019929581 -0.00034236909)
(-0.00060387378 -0.00015443438 -0.00032350522)
(-0.00013335348 -0.00010220892 -0.00030217224)
(0.00017672654 -4.6246331e-05 -0.00028016947)
(0.00032103918 9.848496e-06 -0.00025985401)
(0.00031122778 5.7374095e-05 -0.00024343895)
(0.00018940836 8.1451631e-05 -0.00023350027)
(5.43157e-05 5.4244197e-05 -0.00021660442)
(5.0835613e-05 -0.00014591218 -5.1494923e-06)
(2.4434633e-05 -2.1308287e-05 8.5131699e-07)
(-0.0003024465 0.00024739654 1.1470448e-05)
(-0.00098075279 0.00053584957 2.4377791e-05)
(-0.0020006155 0.00079735042 3.763081e-05)
(-0.0033191139 0.0010125953 4.9769189e-05)
(-0.0048801246 0.0011776886 5.9754633e-05)
(-0.006624562 0.0012955902 6.6896818e-05)
(-0.0084958601 0.0013714089 7.0757862e-05)
(-0.010441919 0.0014102273 7.107038e-05)
(-0.012415143 0.0014161471 6.7681068e-05)
(-0.014371584 0.0013919606 6.0509455e-05)
(-0.01626975 0.0013391855 4.9527559e-05)
(-0.0180695 0.0012583257 3.475421e-05)
(-0.019731258 0.0011492627 1.6261482e-05)
(-0.021215684 0.0010117065 -5.8103094e-06)
(-0.022483899 0.0008456626 -3.1232678e-05)
(-0.023498238 0.00065187983 -5.9670007e-05)
(-0.024223504 0.00043224888 -9.0663347e-05)
(-0.02462863 0.00019011975 -0.00012361758)
(-0.024688661 -6.9489523e-05 -0.00015779933)
(-0.024386809 -0.00033979806 -0.0001923492)
(-0.023716545 -0.00061235107 -0.00022629549)
(-0.02268347 -0.00087725303 -0.00025859723)
(-0.021306696 -0.0011235781 -0.00028819002)
(-0.019619637 -0.0013399438 -0.00031404537)
(-0.017670014 -0.0015152152 -0.00033523861)
(-0.015518936 -0.0016392927 -0.00035101841)
(-0.013239005 -0.0017039172 -0.00036087267)
(-0.010911469 -0.0017034189 -0.00036458493)
(-0.0086225036 -0.001635341 -0.00036227487)
(-0.0064588014 -0.0015008831 -0.00035441817)
(-0.0045026526 -0.0013051621 -0.00034184449)
(-0.0028266232 -0.0010573788 -0.00032571629)
(-0.001487929 -0.00077129423 -0.00030748464)
(-0.00052318559 -0.00046651558 -0.00028880835)
(5.8912765e-05 -0.00016787414 -0.00027151248)
(0.00028619368 8.5820789e-05 -0.00025746046)
(0.00024034883 0.00023626642 -0.00024866117)
(8.1789304e-05 0.00018840303 -0.00022968193)
(-2.0115398e-06 -0.00012122078 -1.7706295e-05)
(-0.00025200285 0.00030597063 -9.5557865e-06)
(-0.0010019323 0.00098103786 1.2856499e-06)
(-0.0022521881 0.0016932377 1.2906174e-05)
(-0.0039739034 0.0023458533 2.437416e-05)
(-0.0061113309 0.0028941914 3.4633568e-05)
(-0.0085899099 0.0033235725 4.2918033e-05)
(-0.011328947 0.003635273 4.8708006e-05)
(-0.014248765 0.0038373192 5.1653668e-05)
(-0.017273582 0.0039393153 5.1525735e-05)
(-0.020332186 0.0039497623 4.8179883e-05)
(-0.023357411 0.0038748982 4.1528149e-05)
(-0.026285072 0.0037185183 3.1526629e-05)
(-0.029052891 0.0034824211 1.8173038e-05)
(-0.031599778 0.0031672377 1.5137233e-06)
(-0.033865668 0.0027734641 -1.83421e-05)
(-0.035792036 0.0023025611 -4.1204609e-05)
(-0.037323109 0.0017580153 -6.6785803e-05)
(-0.038407695 0.0011462723 -9.4684503e-05)
(-0.039001534 0.0004774623 -0.00012437504)
(-0.039069977 -0.0002341441 -0.00015520539)
(-0.038590827 -0.00096997819 -0.00018640216)
(-0.03755709 -0.0017074863 -0.00021709208)
(-0.035979362 -0.0024207462 -0.00024633366)
(-0.033887603 -0.0030815362 -0.00027316116)
(-0.031332065 -0.0036607752 -0.0002966406)
(-0.028383139 -0.0041302648 -0.00031593234)
(-0.025129974 -0.0044646216 -0.00033035523)
(-0.021677771 -0.0046432582 -0.0003394485)
(-0.018143775 -0.004652248 -0.00034302381)
(-0.014652043 -0.0044859205 -0.00034120039)
(-0.011327202 -0.0041480762 -0.00033441945)
(-0.008287431 -0.003652804 -0.00032343644)
(-0.0056369069 -0.0030250421 -0.00030929142)
(-0.0034579754 -0.0023012923 -0.00029325682)
(-0.0018032614 -0.0015310868 -0.00027676629)
(-0.00068722589 -0.0007793601 -0.00026133233)
(-7.7391624e-05 -0.00013309525 -0.00024846036)
(0.00011781525 0.000289635 -0.00023968103)
(6.3696206e-05 0.0003158566 -0.00021996445)
(-6.2861421e-05 7.1105898e-05 -3.4184202e-05)
(-0.00057366726 0.0010111922 -2.2419661e-05)
(-0.0018048534 0.0022487195 -9.6802287e-06)
(-0.0036734463 0.0035127495 2.2201849e-06)
(-0.0061160931 0.0046657561 1.3277926e-05)
(-0.0090598943 0.0056389552 2.2781756e-05)
(-0.012413426 0.0064061404 3.0225126e-05)
(-0.016078773 0.0069656454 3.5290762e-05)
(-0.019958711 0.0073274179 3.7758657e-05)
(-0.023959402 0.0075050493 3.7475824e-05)
(-0.027991203 0.0075113018 3.4336234e-05)
(-0.03196836 0.0073559955 2.826348e-05)
(-0.035808149 0.0070455206 1.9205408e-05)
(-0.039429995 0.0065834521 7.1375387e-06)
(-0.042754973 0.0059718603 -7.9268519e-06)
(-0.045705908 0.0052130022 -2.5920523e-05)
(-0.048208233 0.0043111514 -4.6703231e-05)
(-0.050191577 0.0032743662 -7.0043383e-05)
(-0.051592056 0.0021160335 -9.560056e-05)
(-0.052355095 0.00085605244 -0.00012291333)
(-0.0524386 -0.00047845863 -0.00015139513)
(-0.051816284 -0.0018530363 -0.00018033526)
(-0.050480843 -0.003226387 -0.00020891949)
(-0.048446677 -0.0045515828 -0.00023625868)
(-0.045751932 -0.0057779437 -0.00026143039)
(-0.042459525 -0.0068535448 -0.00028353342)
(-0.03865695 -0.0077282342 -0.00030174988)
(-0.034454633 -0.0083569818 -0.00031540965)
(-0.029982746 -0.0087033273 -0.00032405212)
(-0.025386435 -0.0087426658 -0.00032747766)
(-0.020819565 -0.008465111 -0.00032578216)
(-0.016437169 -0.0078777428 -0.0003193692)
(-0.012386902 -0.0070061644 -0.00030893797)
(-0.0087998555 -0.0058954981 -0.00029544718)
(-0.0057811795 -0.0046112209 -0.00028005418)
(-0.003400896 -0.0032405635 -0.00026404002)
(-0.0016847736 -0.0018953681 -0.00024874096)
(-0.00060577513 -0.00071721901 -0.00023546701)
(-8.0159529e-05 0.00011448461 -0.00022531594)
(2.9152153e-05 0.00035485425 -0.00020378165)
(-0.00012269364 0.00044147107 -5.1549617e-05)
(-0.00090141488 0.0021231548 -3.5679292e-05)
(-0.0026328147 0.0040782815 -2.031204e-05)
(-0.0051375505 0.0060054616 -7.376859e-06)
(-0.0083072785 0.0077422885 3.9813178e-06)
(-0.0120464 0.00920382 1.3349812e-05)
(-0.016245041 0.010355867 2.0466016e-05)
(-0.020789251 0.011194932 2.5218778e-05)
(-0.025567147 0.011732897 2.7530399e-05)
(-0.030470558 0.011986998 2.7337758e-05)
(-0.035395384 0.011973905 2.4584012e-05)
(-0.040241216 0.011706805 1.9210963e-05)
(-0.044910541 0.011194677 1.1160306e-05)
(-0.04930803 0.010443106 3.8291463e-07)
(-0.053340249 0.0094561045 -1.3146692e-05)
(-0.056916022 0.0082385017 -2.9411525e-05)
(-0.059947568 0.0067985328 -4.832943e-05)
(-0.062352413 0.0051503436 -6.9732022e-05)
(-0.064055998 0.0033161606 -9.3344057e-05)
(-0.06499484 0.0013279319 -0.00011876742)
(-0.065120058 -0.00077173188 -0.00014547345)
(-0.064401011 -0.0029294625 -0.00017280248)
(-0.062828803 -0.0050819251 -0.00019997835)
(-0.06041933 -0.0071576289 -0.00022613636)
(-0.057215589 -0.0090796984 -0.00025036384)
(-0.053288943 -0.010769547 -0.00027175462)
(-0.048739068 -0.012151302 -0.00028947228)
(-0.043692332 -0.013156738 -0.00030281756)
(-0.038298438 -0.013730406 -0.00031129338)
(-0.032725259 -0.013834579 -0.00031465924)
(-0.027151897 -0.013453644 -0.00031296763)
(-0.021760186 -0.012597613 -0.00030657638)
(-0.016724945 -0.011304571 -0.0002961339)
(-0.012203482 -0.0096421133 -0.00028253875)
(-0.0083249877 -0.0077080974 -0.00026687084)
(-0.0051804916 -0.005631453 -0.00025031036)
(-0.0028130732 -0.003573992 -0.00023408653)
(-0.0012092039 -0.0017332674 -0.00021939656)
(-0.00030500748 -0.00034757913 -0.00020688944)
(-8.6665133e-06 0.00027733697 -0.00018295356)
(-0.00017818877 0.00098304113 -6.7793813e-05)
(-0.0012183098 0.0036431528 -4.7535126e-05)
(-0.003447152 0.0064775977 -2.916096e-05)
(-0.0065859433 0.0091787715 -1.4713859e-05)
(-0.010476292 0.011575822 -2.5575222e-06)
(-0.014995739 0.013578133 7.1502523e-06)
(-0.02001386 0.015149657 1.4367927e-05)
(-0.025400545 0.016288243 1.9180039e-05)
(-0.031030657 0.017009111 2.1648947e-05)
(-0.036784093 0.017333586 2.1802225e-05)
(-0.042545259 0.017282245 1.9634189e-05)
(-0.048202282 0.016871506 1.5105318e-05)
(-0.05364608 0.016112836 8.1502284e-06)
(-0.05876967 0.015013874 -1.3085531e-06)
(-0.063467984 0.013580829 -1.3341307e-05)
(-0.067638411 0.011821589 -2.7988153e-05)
(-0.071182119 0.0097491029 -4.5232123e-05)
(-0.074006174 0.0073846169 -6.4973927e-05)
(-0.076026359 0.0047604827 -8.7007069e-05)
(-0.077170566 0.0019222548 -0.00011099688)
(-0.077382558 -0.0010701272 -0.0001364679)
(-0.076625884 -0.0041422424 -0.00016280031)
(-0.074887703 -0.0072062687 -0.00018923985)
(-0.072182215 -0.01016338 -0.0002149237)
(-0.068553388 -0.012907405 -0.00023892014)
(-0.064076674 -0.015329698 -0.00026028428)
(-0.058859387 -0.017325049 -0.00027812445)
(-0.053039424 -0.018798335 -0.00029167447)
(-0.046782086 -0.019671529 -0.00030036453)
(-0.040274837 -0.019890572 -0.00030388128)
(-0.033719979 -0.019431579 -0.00030220992)
(-0.027325408 -0.018305899 -0.00029565013)
(-0.021293819 -0.016563662 -0.00028480106)
(-0.015810946 -0.014295691 -0.00027051783)
(-0.011033734 -0.011634009 -0.00025383597)
(-0.0070793468 -0.0087515752 -0.00023588522)
(-0.0040143757 -0.0058621326 -0.00021785701)
(-0.0018454546 -0.0032198783 -0.00020091828)
(-0.00053549149 -0.0011200669 -0.00018533755)
(-4.4577344e-05 7.9486437e-05 -0.00015867788)
(-0.00022911966 0.0016869892 -8.1177762e-05)
(-0.0015186478 0.0055597307 -5.6391476e-05)
(-0.0042299507 0.0094366747 -3.486326e-05)
(-0.0079875333 0.013022418 -1.8627343e-05)
(-0.012581685 0.016152647 -5.3409282e-06)
(-0.017860838 0.018742147 5.0572607e-06)
(-0.023672539 0.020760474 1.2723186e-05)
(-0.029870211 0.022211425 1.7920982e-05)
(-0.036316238 0.023116134 2.0842628e-05)
(-0.042880243 0.023501278 2.1599643e-05)
(-0.049437392 0.023391822 2.0233416e-05)
(-0.05586694 0.022807486 1.6719442e-05)
(-0.062050952 0.021762133 1.0980433e-05)
(-0.067873436 0.020265352 2.9050895e-06)
(-0.073220132 0.018325515 -7.627875e-06)
(-0.077979077 0.015953668 -2.072274e-05)
(-0.082041994 0.0131677 -3.643524e-05)
(-0.085306486 0.0099963435 -5.4741701e-05)
(-0.087678954 0.0064826223 -7.5508667e-05)
(-0.089078114 0.0026864334 -9.846696e-05)
(-0.089438945 -0.0013139808 -0.00012319319)
(-0.088716855 -0.0054218798 -0.0001491013)
(-0.086891888 -0.0095232936 -0.00017544705)
(-0.083972668 -0.013489929 -0.00020135173)
(-0.07999975 -0.017183639 -0.00022584084)
(-0.075048069 -0.020462456 -0.00024790124)
(-0.069228091 -0.02318801 -0.00026655136)
(-0.062685258 -0.025234024 -0.00028091995)
(-0.055597368 -0.026495413 -0.00029032582)
(-0.0481696 -0.026897391 -0.00029434716)
(-0.040627052 -0.02640387 -0.00029287263)
(-0.033204911 -0.025024448 -0.00028612453)
(-0.026136606 -0.022819363 -0.00027464723)
(-0.019640637 -0.019902062 -0.00025926375)
(-0.013907238 -0.016439384 -0.00024099461)
(-0.0090860228 -0.01264989 -0.00022096696)
(-0.0052735335 -0.0088011121 -0.00020040113)
(-0.0025022861 -0.0052053088 -0.00018051507)
(-0.00076601346 -0.0022147856 -0.00016128292)
(-7.7650342e-05 -0.00023686252 -0.00013171486)
(-0.00027605894 0.0025433397 -9.0240353e-05)
(-0.0018011396 0.0078552896 -6.0823278e-05)
(-0.0049733674 0.012935605 -3.6149609e-05)
(-0.0093259265 0.017515338 -1.8002554e-05)
(-0.014598967 0.021449864 -3.3917147e-06)
(-0.02061132 0.024670091 7.9384026e-06)
(-0.027188047 0.027159108 1.6320842e-05)
(-0.034166136 0.028932061 2.2181355e-05)
(-0.041396194 0.030019397 2.5828037e-05)
(-0.048738896 0.030455077 2.744637e-05)
(-0.056062007 0.030269397 2.7115616e-05)
(-0.063238082 0.029485692 2.481908e-05)
(-0.07014264 0.028120178 2.0461088e-05)
(-0.076652962 0.026184165 1.3889307e-05)
(-0.082647672 0.023687878 4.9232764e-06)
(-0.088007176 0.020645173 -6.6135445e-06)
(-0.092614956 0.017078544 -2.085743e-05)
(-0.096359714 0.013023892 -3.7868491e-05)
(-0.099138256 0.0085346531 -5.7594213e-05)
(-0.10085904 0.0036849261 -7.9837051e-05)
(-0.10144628 -0.0014286759 -0.00010422885)
(-0.10084432 -0.0066866972 -0.00013021727)
(-0.099022349 -0.011948111 -0.00015706266)
(-0.095978989 -0.017053592 -0.0001838595)
(-0.091746505 -0.021830637 -0.00020957233)
(-0.086394311 -0.026100648 -0.00023309385)
(-0.080031289 -0.02968785 -0.00025331945)
(-0.072806386 -0.032429712 -0.00026923394)
(-0.064906987 -0.034188397 -0.00028000262)
(-0.056554602 -0.034862468 -0.00028505322)
(-0.047997569 -0.034397979 -0.00028414042)
(-0.039500763 -0.032797921 -0.0002773807)
(-0.031332635 -0.030129085 -0.00026524913)
(-0.023750353 -0.026525624 -0.00024854024)
(-0.016984451 -0.022189033 -0.00022828327)
(-0.011224421 -0.017384888 -0.00020564597)
(-0.0066037371 -0.012437073 -0.00018193944)
(-0.003186283 -0.0077190496 -0.00015850961)
(-0.00099959163 -0.0036433699 -0.00013511628)
(-0.00010879144 -0.00067024397 -0.00010245533)
(-0.00031950931 0.0035422467 -9.3712518e-05)
(-0.0020655718 0.010509371 -5.9539116e-05)
(-0.0056733552 0.016948885 -3.182208e-05)
(-0.010591174 0.022629763 -1.174053e-05)
(-0.016511696 0.02743849 4.2976016e-06)
(-0.023225019 0.031332033 1.6724936e-05)
(-0.030534223 0.034314866 2.6036143e-05)
(-0.038260444 0.03641922 3.2802401e-05)
(-0.046243379 0.037688734 3.7433191e-05)
(-0.054336027 0.038167064 4.0175963e-05)
(-0.062400385 0.037891147 4.1138138e-05)
(-0.070304218 0.036888478 4.0301683e-05)
(-0.077918542 0.035177638 3.7543381e-05)
(-0.085115929 0.03277132 3.2661218e-05)
(-0.091769726 0.029681011 2.5407122e-05)
(-0.097754196 0.025922602 1.552299e-05)
(-0.10294558 0.021522262 2.7815355e-06)
(-0.107224 0.016522025 -1.2972384e-05)
(-0.11047624 0.010984646 -3.177869e-05)
(-0.11259919 0.0049973782 -5.3522322e-05)
(-0.11350402 -0.001325656 -7.7899552e-05)
(-0.11312082 -0.0078427689 -0.00010440033)
(-0.11140381 -0.014385749 -0.00013229063)
(-0.10833678 -0.02076325 -0.00016063439)
(-0.10393836 -0.026766313 -0.00018832274)
(-0.098266917 -0.032176319 -0.00021413214)
(-0.09142446 -0.036775315 -0.00023680306)
(-0.083558872 -0.040358445 -0.0002551354)
(-0.074863798 -0.042747974 -0.00026809301)
(-0.065575484 -0.04380808 -0.000274902)
(-0.055966025 -0.043459243 -0.0002751342)
(-0.046332829 -0.041690899 -0.00026875962)
(-0.036984489 -0.038570949 -0.00025615834)
(-0.02822388 -0.034250913 -0.00023808985)
(-0.020330152 -0.028966056 -0.0002156081)
(-0.013541374 -0.023030547 -0.00018995934)
(-0.0080359353 -0.016828374 -0.00016260371)
(-0.0039151554 -0.010799625 -0.00013508922)
(-0.0012437777 -0.0054237779 -0.00010702607)
(-0.00013965639 -0.0012225579 -7.1000806e-05)
(-0.00035971556 0.004674066 -9.0451621e-05)
(-0.0023115405 0.013499729 -5.1353556e-05)
(-0.0063266236 0.021447004 -2.0751363e-05)
(-0.011775273 0.02833252 1.2267823e-06)
(-0.018306195 0.034083857 1.8737458e-05)
(-0.025682549 0.03869309 3.2380253e-05)
(-0.033686722 0.042193558 4.2798565e-05)
(-0.042125085 0.044640321 5.0694872e-05)
(-0.050827556 0.046094312 5.6567765e-05)
(-0.059640782 0.046611579 6.0714751e-05)
(-0.068422569 0.046237286 6.3260622e-05)
(-0.07703766 0.045003801 6.4176127e-05)
(-0.085354458 0.042932146 6.3301337e-05)
(-0.093242707 0.040035956 6.037547e-05)
(-0.1005722 0.036327143 5.5073085e-05)
(-0.10721247 0.031822445 4.7043381e-05)
(-0.11303348 0.026550216 3.5955156e-05)
(-0.11790714 0.020556874 2.1543737e-05)
(-0.12170978 0.013912574 3.6607886e-06)
(-0.12432544 0.0067157469 -1.7678225e-05)
(-0.12565005 -0.00090380182 -4.2250762e-05)
(-0.12559621 -0.0087834887 -6.9608131e-05)
(-0.12409896 -0.016728743 -9.9029576e-05)
(-0.12112221 -0.024515878 -0.00012955348)
(-0.1166652 -0.031897778 -0.00015999261)
(-0.1107691 -0.038612444 -0.00018899016)
(-0.10352298 -0.044394542 -0.00021510134)
(-0.095068117 -0.048989831 -0.00023689727)
(-0.085600103 -0.052172021 -0.00025308497)
(-0.075367394 -0.053761126 -0.00026262619)
(-0.064665689 -0.053641952 -0.0002648465)
(-0.053827498 -0.051780924 -0.00025951254)
(-0.043206912 -0.048239285 -0.000246868)
(-0.033160329 -0.043180808 -0.00022761711)
(-0.024025059 -0.036872707 -0.00020284392)
(-0.016097959 -0.029679478 -0.00017390467)
(-0.0096118769 -0.022050297 -0.0001424644)
(-0.0047130518 -0.01449979 -0.00011034644)
(-0.0015085016 -0.0075844919 -7.7059337e-05)
(-0.00017220465 -0.001900683 -3.7262126e-05)
(-0.00039666813 0.0059289656 -7.9408311e-05)
(-0.002538052 0.016802345 -3.5173747e-05)
(-0.0069293325 0.026396877 -1.8817128e-06)
(-0.012869962 0.034585478 2.19185e-05)
(-0.019968715 0.041345647 4.0913102e-05)
(-0.027964207 0.04671274 5.5862536e-05)
(-0.036619953 0.050755937 6.7549879e-05)
(-0.04572905 0.053558672 7.6797501e-05)
(-0.055112997 0.055203308 8.4181725e-05)
(-0.06461351 0.055761137 9.0039592e-05)
(-0.074085763 0.055287306 9.4503469e-05)
(-0.083393202 0.05381992 9.7523752e-05)
(-0.092403439 0.051382556 9.8895085e-05)
(-0.10098522 0.047989297 9.8288694e-05)
(-0.10900653 0.043651427 9.5291176e-05)
(-0.11633366 0.038384991 8.9446532e-05)
(-0.12283139 0.032218529 8.0304527e-05)
(-0.128364 0.025200442 6.7472704e-05)
(-0.13279727 0.017405577 5.0672718e-05)
(-0.13600147 0.0089406739 2.9794828e-05)
(-0.1378553 -5.1588414e-05 4.9503264e-06)
(-0.13825103 -0.0093901949 -2.3482569e-05)
(-0.13710063 -0.018855927 -5.4834347e-05)
(-0.13434294 -0.028193322 -8.8129341e-05)
(-0.12995178 -0.037116079 -0.00012210555)
(-0.12394446 -0.045315766 -0.00015526304)
(-0.11638998 -0.052474284 -0.00018594454)
(-0.10741626 -0.05828018 -0.00021244656)
(-0.09721493 -0.062448472 -0.00023315601)
(-0.08604252 -0.064743099 -0.00024669399)
(-0.074216708 -0.065000381 -0.0002520581)
(-0.062106619 -0.063151264 -0.0002487336)
(-0.050116777 -0.059239637 -0.00023676465)
(-0.038665278 -0.053433988 -0.00021676113)
(-0.028158272 -0.04603021 -0.00018982778)
(-0.018963383 -0.037444672 -0.00015745348)
(-0.011379596 -0.028198026 -0.0001215619)
(-0.0056077792 -0.018889773 -8.4326654e-05)
(-0.0018049269 -0.010166964 -4.5187563e-05)
(-0.0002084993 -0.0027172377 -1.043346e-06)
(-0.00043015025 0.0072964875 -5.9616423e-05)
(-0.0027434727 0.020391044 -9.9959382e-06)
(-0.0074766638 0.031761719 2.5763793e-05)
(-0.013865825 0.041345519 5.1289017e-05)
(-0.021484164 0.049177691 7.176111e-05)
(-0.030048484 0.055344195 8.8097325e-05)
(-0.039305579 0.059956443 0.0001012135)
(-0.049037003 0.06313149 0.00011204248)
(-0.059057348 0.064977172 0.00012122869)
(-0.069204881 0.065582935 0.0001291404)
(-0.079333714 0.065015787 0.00013590963)
(-0.089307692 0.06332055 0.0001414589)
(-0.098995445 0.060523545 0.00014552984)
(-0.1082666 0.056638777 0.00014771719)
(-0.11698915 0.051675725 0.00014750916)
(-0.12502786 0.045647925 0.00014433123)
(-0.13224375 0.038581691 0.00013759688)
(-0.13849444 0.030524448 0.00012676376)
(-0.14363562 0.021552315 0.00011139617)
(-0.14752345 0.011776628 9.122722e-05)
(-0.15001826 0.0013491449 6.6222042e-05)
(-0.15098971 -0.0095343926 3.664843e-05)
(-0.1503232 -0.020632839 3.0925675e-06)
(-0.1479278 -0.031660683 -3.3485469e-05)
(-0.14374591 -0.042292428 -7.1766739e-05)
(-0.13776371 -0.052170895 -0.00011010899)
(-0.13002217 -0.060920109 -0.00014662171)
(-0.12062744 -0.068163179 -0.00017928152)
(-0.10975933 -0.073545104 -0.00020608536)
(-0.097675964 -0.076759722 -0.00022522296)
(-0.08471307 -0.077579107 -0.00023526025)
(-0.071275941 -0.075882691 -0.00023529633)
(-0.057823248 -0.071682571 -0.00022508343)
(-0.04484274 -0.065141082 -0.00020507155)
(-0.03282101 -0.056577187 -0.00017635625)
(-0.02221039 -0.046459801 -0.0001405686)
(-0.013390365 -0.035388115 -9.9941486e-05)
(-0.0066291361 -0.024059104 -5.7078047e-05)
(-0.0021448757 -0.013226982 -1.137129e-05)
(-0.00025064402 -0.0036909666 3.7881829e-05)
(-0.00045979336 0.0087651729 -3.0196704e-05)
(-0.0029256443 0.024237011 2.5087175e-05)
(-0.0079628793 0.037500673 6.3070461e-05)
(-0.014752224 0.048564246 9.0210711e-05)
(-0.02283591 0.057527569 0.00011214698)
(-0.031911809 0.064533677 0.00012994972)
(-0.041712281 0.069741988 0.00014466193)
(-0.052009168 0.073308052 0.00015731887)
(-0.062611707 0.075369076 0.00016862615)
(-0.073356199 0.076035569 0.0001789771)
(-0.084097241 0.075388375 0.00018849799)
(-0.094700749 0.07348014 0.00019707849)
(-0.1050382 0.070340221 0.00020440173)
(-0.11498203 0.06598207 0.00020997911)
(-0.12440226 0.060412136 0.00021319103)
(-0.13316412 0.053639488 0.00021333112)
(-0.1411267 0.045685523 0.00020965781)
(-0.14814261 0.036593301 0.00020145366)
(-0.15405857 0.026436203 0.00018809301)
(-0.15871729 0.015325666 0.00016911332)
(-0.16196056 0.0034177581 0.00014429121)
(-0.16363417 -0.0090817294 0.00011372085)
(-0.16359439 -0.021913951 7.7867926e-05)
(-0.16171663 -0.03476649 3.7628096e-05)
(-0.15790616 -0.047276075 -5.6582591e-06)
(-0.15211073 -0.059035744 -5.022306e-05)
(-0.14433437 -0.069607438 -9.3933657e-05)
(-0.13465153 -0.078540855 -0.00013440712)
(-0.12321992 -0.085398946 -0.00016917711)
(-0.1102899 -0.089789587 -0.00019589777)
(-0.096208103 -0.091401787 -0.00021257504)
(-0.081412536 -0.090043335 -0.00021778479)
(-0.066417464 -0.085675413 -0.00021085716)
(-0.051787213 -0.078438765 -0.00019197991)
(-0.038100899 -0.068666186 -0.00016217993)
(-0.025911487 -0.056877845 -0.00012322068)
(-0.01569648 -0.043758591 -7.7689028e-05)
(-0.0078078725 -0.03011738 -2.8702955e-05)
(-0.0025405515 -0.016835367 2.4375934e-05)
(-0.00030078095 -0.004846944 7.969993e-05)
(-0.00048513718 0.010322304 9.6293389e-06)
(-0.0030820901 0.02830842 7.0873194e-05)
(-0.0083816862 0.043568496 0.00011081694)
(-0.015517777 0.05618768 0.00013945498)
(-0.024006349 0.066336193 0.00016284111)
(-0.033529224 0.074219725 0.00018219505)
(-0.043806584 0.080050819 0.00019868176)
(-0.054602341 0.084027998 0.00021343236)
(-0.065721874 0.086321554 0.0002272092)
(-0.077000923 0.08706596 0.0002404273)
(-0.088296043 0.086357972 0.00025320493)
(-0.09947685 0.084259312 0.00026539704)
(-0.11041949 0.080802832 0.00027662578)
(-0.12100125 0.076001093 0.00028631503)
(-0.13109638 0.069856373 0.00029372991)
(-0.14057289 0.062371311 0.0002980199)
(-0.14929033 0.053559591 0.00029826952)
(-0.15709859 0.043456284 0.0002935592)
(-0.1638376 0.032127609 0.00028303704)
(-0.1693383 0.019679985 0.00026599867)
(-0.1734251 0.0062681672 0.00024197616)
(-0.17592008 -0.0078977722 0.00021083075)
(-0.17664934 -0.022547019 0.000172837)
(-0.17545183 -0.037345105 0.00012876145)
(-0.17219103 -0.051894315 7.9909757e-05)
(-0.16676921 -0.065738815 2.8137565e-05)
(-0.15914415 -0.078375964 -2.4190616e-05)
(-0.14934722 -0.089275203 -7.4305872e-05)
(-0.13750134 -0.097905545 -0.00011920821)
(-0.12383631 -0.10377179 -0.0001559025)
(-0.10869842 -0.10645818 -0.00018168169)
(-0.092550812 -0.10567624 -0.00019442369)
(-0.075961205 -0.10131139 -0.00019286042)
(-0.059575194 -0.093461279 -0.00017676559)
(-0.044076169 -0.082457928 -0.00014699452)
(-0.030135405 -0.068867892 -0.00010540362)
(-0.018349424 -0.053467692 -5.4967664e-05)
(-0.0091749707 -0.037194153 5.8850972e-07)
(-0.003004414 -0.02107825 6.1921499e-05)
(-0.00036111573 -0.0062167091 0.00012448877)
(-0.00050569391 0.011953786 6.052056e-05)
(-0.0032102913 0.0325703 0.0001280326)
(-0.0087268183 0.049915469 0.00016965779)
(-0.016151244 0.064156162 0.00019967202)
(-0.024978078 0.075537587 0.00022449417)
(-0.034875817 0.084332701 0.00024548816)
(-0.045554561 0.090811615 0.00026393624)
(-0.05677191 0.095219894 0.00028106064)
(-0.06833071 0.097764448 0.0002976782)
(-0.080067402 0.098606614 0.00031422565)
(-0.09184185 0.097861254 0.00033081471)
(-0.10352892 0.095600623 0.00034726745)
(-0.11501122 0.091861762 0.00036314634)
(-0.12617299 0.086656241 0.00037778708)
(-0.13689509 0.079981244 0.00039033529)
(-0.14705098 0.071831192 0.00039978643)
(-0.15650363 0.062209358 0.00040503375)
(-0.16510327 0.051139182 0.00040492873)
(-0.17268618 0.038675137 0.00039835503)
(-0.17907463 0.02491312 0.00038431579)
(-0.18407824 0.010000274 0.00036203466)
(-0.18749738 -0.0058559473 0.0003310664)
(-0.18912873 -0.022379877 0.00029140915)
(-0.18877393 -0.0392218 0.00024361373)
(-0.18625142 -0.055955253 0.00018886892)
(-0.18141208 -0.072079082 0.00012905127)
(-0.17415831 -0.087026227 6.6718931e-05)
(-0.16446613 -0.10018129 5.0298831e-06)
(-0.15240872 -0.11090877 -5.2425583e-05)
(-0.13817888 -0.11859305 -0.00010188778)
(-0.12210658 -0.12268961 -0.00013976424)
(-0.10466702 -0.12278447 -0.00016301955)
(-0.086474131 -0.11865587 -0.00016955627)
(-0.068255604 -0.11032898 -0.00015851947)
(-0.050809227 -0.098112881 -0.00013042928)
(-0.034943338 -0.082609808 -8.7149985e-05)
(-0.021398051 -0.064691156 -3.2057422e-05)
(-0.010761025 -0.045437989 3.0420215e-05)
(-0.003549115 -0.026057001 0.00010094269)
(-0.00043395537 -0.0078383847 0.00017214475)
(-0.00052101567 0.013644192 0.00012299449)
(-0.003308015 0.036984723 0.00019709057)
(-0.0089927869 0.056487671 0.00024010595)
(-0.016642734 0.072404626 0.0002713706)
(-0.025735526 0.085059013 0.00029761232)
(-0.03592878 0.094794642 0.0003203328)
(-0.046924312 0.10194294 0.00034092742)
(-0.058474752 0.10680018 0.00036070686)
(-0.070381503 0.10961327 0.00038054297)
(-0.082482764 0.11057334 0.00040089786)
(-0.094642888 0.10981571 0.00042188219)
(-0.10674341 0.10742488 0.00044329129)
(-0.11867516 0.10344308 0.00046463371)
(-0.13033143 0.097881147 0.00048516079)
(-0.14160225 0.090730603 0.00050389869)
(-0.1523695 0.081976219 0.0005196831)
(-0.16250296 0.071608481 0.00053120198)
(-0.17185709 0.059635807 0.00053705344)
(-0.18026872 0.046096451 0.00053581936)
(-0.18755579 0.031070192 0.00052615815)
(-0.19351756 0.014689848 0.00050691649)
(-0.19793657 -0.0028474741 0.00047725848)
(-0.20058318 -0.021269736 0.00043680635)
(-0.20122311 -0.040220808 0.00038578704)
(-0.19962896 -0.059253857 0.00032516179)
(-0.19559611 -0.077829255 0.00025672716)
(-0.18896365 -0.095319342 0.00018315944)
(-0.17963996 -0.11102289 0.00010797316)
(-0.16763196 -0.12419217 3.537691e-05)
(-0.15307555 -0.13407514 -3.0001566e-05)
(-0.13626316 -0.13997339 -8.3503699e-05)
(-0.11766249 -0.14131409 -0.00012092912)
(-0.097919464 -0.13772955 -0.00013905779)
(-0.077838771 -0.12913357 -0.00013611384)
(-0.058339142 -0.11577971 -0.00011203756)
(-0.04038454 -0.098286434 -6.8548883e-05)
(-0.0248865 -0.077617834 -9.4004038e-06)
(-0.012595556 -0.055014611 6.0182857e-05)
(-0.0041874382 -0.031887838 0.00014084508)
(-0.00052175079 -0.009756792 0.00022229975)
(-0.0005307683 0.015377002 0.00019740572)
(-0.0033736921 0.041511395 0.00027840971)
(-0.0091757712 0.063227765 0.00032251659)
(-0.016985157 0.080863385 0.00035489986)
(-0.026266984 0.094821607 0.0003825344)
(-0.03666998 0.1055196 0.00040705231)
(-0.047889062 0.11335318 0.00042995902)
(-0.059672888 0.11867263 0.00045265304)
(-0.071822214 0.12176814 0.00047606539)
(-0.084177819 0.12286362 0.00050069136)
(-0.096609539 0.1221174 0.00052665036)
(-0.10900686 0.11962825 0.00055372192)
(-0.12127047 0.11544497 0.00058137134)
(-0.13330484 0.10957836 0.00060877463)
(-0.14501174 0.10201422 0.0006348438)
(-0.15628471 0.09272677 0.00065825427)
(-0.16700416 0.081691878 0.00067748011)
(-0.17703325 0.068900064 0.00069084654)
(-0.18621449 0.054369324 0.00069660046)
(-0.19436719 0.038157988 0.00069300576)
(-0.20128623 0.020377804 0.00067846301)
(-0.20674244 0.0012073153 0.00065165556)
(-0.21048535 -0.019094688 0.00061172325)
(-0.21224912 -0.040176346 0.00055843835)
(-0.21176255 -0.061581663 0.00049239681)
(-0.2087644 -0.08274315 0.00041517731)
(-0.20302482 -0.10298096 0.00032945299)
(-0.19437352 -0.12151205 0.00023901382)
(-0.1827342 -0.13747348 0.00014866783)
(-0.1681634 -0.14996414 6.3981749e-05)
(-0.15088969 -0.1581075 -9.147838e-06)
(-0.13134633 -0.16113563 -6.508135e-05)
(-0.11018834 -0.15848895 -9.9122765e-05)
(-0.08828381 -0.14991976 -0.00010819177)
(-0.06667273 -0.13558024 -9.1299415e-05)
(-0.046490951 -0.11607285 -4.9773433e-05)
(-0.028851575 -0.092443281 1.2343673e-05)
(-0.014706118 -0.066103944 8.8954055e-05)
(-0.0049321912 -0.038701028 0.00018066598)
(-0.00062713755 -0.01202355 0.00027422292)
(-0.00053481172 0.017135059 0.00028392855)
(-0.0034068394 0.046108712 0.0003721776)
(-0.009274631 0.070076352 0.00041707615)
(-0.017175916 0.089459534 0.00045043684)
(-0.02656695 0.10474162 0.00047941528)
(-0.037088946 0.11641458 0.00050576617)
(-0.048430784 0.12494108 0.00053110378)
(-0.060337737 0.13072846 0.00055691699)
(-0.072610419 0.1341134 0.00058420454)
(-0.085092779 0.13535571 0.00061350724)
(-0.097660964 0.13463957 0.00064496803)
(-0.11021355 0.13208036 0.00067836659)
(-0.12266263 0.12773529 0.00071314092)
(-0.13492588 0.12161632 0.00074840608)
(-0.14691945 0.11370407 0.00078297103)