/*--------------------------------*- C++ -*----------------------------------*\
  =========                 |
  \\      /  F ield         | OpenFOAM: The Open Source CFD Toolbox
   \\    /   O peration     | Website:  https://openfoam.org
    \\  /    A nd           | Version:  7
     \\/     M anipulation  |
\*---------------------------------------------------------------------------*/
FoamFile
{
    version     2.0;
    format      ascii;
    class       volScalarField;
    location    "0.8";
    object      p;
}
// * * * * * * * * * * * * * * * * * * * * * * * * * * * * * * * * * * * * * //

dimensions      [1 -1 -2 0 0 0 0];

internalField   nonuniform List<scalar> 
19968
(
1
1
1
1
1
1
1
1
1
1
1
1
1
1
1
1
1
1
1
1
1
1
1
1
1
1
1
1
1
1
1
1
1
1
1
1
1
1
1
1
1
1
1
1
1
1
1
1
1
1
1
1
1
1
1
1
4.99465
10.7119
10.9509
11.0202
11.1662
11.2999
11.3923
11.4423
11.446
11.4087
11.3525
11.3169
11.3566
11.4656
11.5918
11.6919
11.7609
11.8126
11.8574
11.8912
11.9122
11.9161
11.9162
11.9411
11.9882
12.0477
12.0951
12.1513
12.2289
12.3183
12.3853
12.3947
12.3589
12.3166
12.289
12.2711
12.2499
12.2214
12.1963
12.1586
1
1
1
1
1
1
1
1
1
1
1
1
1
1
1
1
1
1
1
1
1
1
1
1
1
1
1
1
1
1
1
1
1
1
1
1
1
1
1
1
1
1
1
1
1
1
1
1
1
1
1
1
1
1
1
1
4.89302
10.6578
10.952
11.0222
11.1722
11.304
11.3964
11.4377
11.439
11.3969
11.3427
11.3134
11.3568
11.4688
11.5909
11.6854
11.7515
11.8043
11.8539
11.8937
11.919
11.9231
11.9208
11.9396
11.9781
12.034
12.0827
12.1434
12.2243
12.313
12.3759
12.3835
12.3508
12.3112
12.2835
12.263
12.2407
12.2145
12.1943
12.1613
1
1
1
1
1
1
1
1
1
1
1
1
1
1
1
1
1
1
1
1
1
1
1
1
1
1
1
1
1
1
1
1
1
1
1
1
1
1
1
1
1
1
1
1
1
1
1
1
1
1
1
1
1
1
1
1
4.68616
10.595
10.9368
11.0212
11.1689
11.3018
11.3972
11.4293
11.426
11.3781
11.3258
11.3063
11.3547
11.4691
11.5848
11.6733
11.7379
11.7947
11.8508
11.8973
11.9263
11.9302
11.9243
11.937
11.9666
12.0184
12.0681
12.1316
12.2129
12.2968
12.3555
12.3671
12.3434
12.3077
12.2758
12.2478
12.2221
12.1986
12.186
12.1607
1
1
1
1
1
1
1
1
1
1
1
1
1
1
1
1
1
1
1
1
1
1
1
1
1
1
1
1
1
1
1
1
1
1
1
1
1
1
1
1
1
1
1
1
1
1
1
1
1
1
1
1
1
1
1
1
4.36684
10.4901
10.9242
11.0189
11.1668
11.3028
11.4007
11.4179
11.4028
11.3506
11.3046
11.2968
11.349
11.4638
11.571
11.6535
11.7199
11.7853
11.8503
11.9035
11.9332
11.9326
11.9207
11.9265
11.9502
12.0012
12.0528
12.1155
12.1928
12.2676
12.3212
12.3408
12.3283
12.2983
12.2636
12.2297
12.2013
12.18
12.1728
12.1532
1
1
1
1
1
1
1
1
1
1
1
1
1
1
1
1
1
1
1
1
1
1
1
1
1
1
1
1
1
1
1
1
1
1
1
1
1
1
1
1
1
1
1
1
1
1
1
1
1
1
1
1
1
1
1
1
3.94697
10.344
10.9111
11.0112
11.1531
11.2828
11.3806
11.3911
11.3712
11.3244
11.2862
11.2848
11.336
11.4488
11.5484
11.6283
11.7012
11.7799
11.8552
11.911
11.9354
11.924
11.904
11.9048
11.9288
11.9864
12.0414
12.0987
12.1645
12.2264
12.2735
12.302
12.3024
12.2805
12.247
12.212
12.1827
12.1617
12.1538
12.1352
1
1
1
1
1
1
1
1
1
1
1
1
1
1
1
1
1
1
1
1
1
1
1
1
1
1
1
1
1
1
1
1
1
1
1
1
1
1
1
1
1
1
1
1
1
1
1
1
1
1
1
1
1
1
1
1
3.48052
10.1381
10.853
10.9524
11.1148
11.2457
11.3367
11.3575
11.3435
11.3048
11.2667
11.2623
11.3092
11.4187
11.5172
11.6005
11.6841
11.7782
11.8645
11.9196
11.9326
11.9033
11.871
11.8669
11.8981
11.9717
12.0345
12.0854
12.1326
12.1761
12.2155
12.2496
12.2599
12.2468
12.2208
12.1922
12.1655
12.1431
12.1276
12.1056
1
1
1
1
1
1
1
1
1
1
1
1
1
1
1
1
1
1
1
1
1
1
1
1
1
1
1
1
1
1
1
1
1
1
1
1
1
1
1
1
1
1
1
1
1
1
1
1
1
1
1
1
1
1
1
1
2.96489
9.74171
10.7855
10.9049
11.0826
11.2046
11.278
11.3078
11.3035
11.2795
11.244
11.232
11.2738
11.3795
11.4815
11.5714
11.6664
11.7735
11.8683
11.9233
11.9233
11.8713
11.8221
11.8099
11.8529
11.9485
12.0236
12.0723
12.1004
12.1193
12.1507
12.1836
12.1974
12.1907
12.1767
12.163
12.1457
12.1232
12.0954
12.0673
1
1
1
1
1
1
1
1
1
1
1
1
1
1
1
1
1
1
1
1
1
1
1
1
1
1
1
1
1
1
1
1
1
1
1
1
1
1
1
1
1
1
1
1
1
1
1
1
1
1
1
1
1
1
1
1
2.20376
9.00744
10.8008
10.9059
11.0664
11.1741
11.2262
11.2468
11.2515
11.2406
11.2133
11.198
11.2331
11.3333
11.4413
11.5388
11.6418
11.7559
11.856
11.9124
11.9024
11.8334
11.7634
11.7397
11.7939
11.9093
12.0026
12.056
12.0692
12.067
12.0855
12.1097
12.1175
12.1102
12.1078
12.1151
12.1148
12.0951
12.0535
12.0186
1
1
1
1
1
1
1
1
1
1
1
1
1
1
1
1
1
1
1
1
1
1
1
1
1
1
1
1
1
1
1
1
1
1
1
1
1
1
1
1
1
1
1
1
1
1
1
1
1
1
1
1
1
1
1
1
1.38454
7.71468
10.7742
10.9002
11.0505
11.178
11.2151
11.2141
11.1868
11.1776
11.1677
11.1645
11.2073
11.3002
11.409
11.5033
11.5999
11.7098
11.8115
11.8714
11.8611
11.7875
11.7035
11.6665
11.7227
11.8456
11.9532
12.0134
12.0211
12.0102
12.0172
12.0278
12.0228
12.0087
12.0142
12.0424
12.0637
12.0534
12.0046
11.9697
1
1
1
1
1
1
1
1
1
1
1
1
1
1
1
1
1
1
1
1
1
1
1
1
1
1
1
1
1
1
1
1
1
1
1
1
1
1
1
1
1
1
1
1
1
1
1
1
1
1
1
1
1
1
1
1
1.00774
5.92706
10.7174
10.8347
10.937
11.0683
11.1353
11.1424
11.1281
11.1239
11.1342
11.1392
11.1896
11.2774
11.3793
11.464
11.5446
11.6388
11.7329
11.7954
11.7976
11.7326
11.6496
11.6048
11.6474
11.761
11.8693
11.9349
11.949
11.9401
11.9437
11.9445
11.9256
11.8983
11.8988
11.9341
11.9716
11.9788
11.9369
11.9173
1
1
1
1
1
1
1
1
1
1
1
1
1
1
1
1
1
1
1
1
1
1
1
1
1
1
1
1
1
1
1
1
1
1
1
1
1
1
1
1
1
1
1
1
1
1
1
1
1
1
1
1
1
1
1
1
1.00002
4.13554
10.2696
10.7232
10.838
10.9923
11.0659
11.097
11.0962
11.095
11.0934
11.1093
11.161
11.2444
11.335
11.4052
11.4673
11.5427
11.6269
11.6921
11.7126
11.6683
11.5984
11.5524
11.569
11.654
11.7453
11.8081
11.8308
11.8286
11.8358
11.8382
11.8171
11.7807
11.767
11.7926
11.8357
11.8663
11.8519
11.8616
1
1
1
1
1
1
1
1
1
1
1
1
1
1
1
1
1
1
1
1
1
1
1
1
1
1
1
1
1
1
1
1
1
1
1
1
1
1
1
1
1
1
1
1
1
1
1
1
1
1
1
1
1
1
1
1
1
2.40426
9.12305
10.6319
10.731
10.9134
11.0271
11.0864
11.1064
11.0973
11.0765
11.0781
11.1085
11.1545
11.2225
11.2956
11.3591
11.4341
11.5159
11.5828
11.6138
11.5934
11.54
11.494
11.4869
11.528
11.5928
11.6431
11.6695
11.6795
11.697
11.7128
11.7018
11.6619
11.6254
11.6216
11.6504
11.6945
11.7166
11.7564
1
1
1
1
1
1
1
1
1
1
1
1
1
1
1
1
1
1
1
1
1
1
1
1
1
1
1
1
1
1
1
1
1
1
1
1
1
1
1
1
1
1
1
1
1
1
1
1
1
1
1
1
1
1
1
1
1
1.06383
6.88769
10.678
10.7611
10.8821
10.9775
11.0446
11.0806
11.0743
11.055
11.0396
11.0291
11.0384
11.0783
11.156
11.2338
11.3203
11.4027
11.4653
11.497
11.4961
11.4635
11.4193
11.3879
11.386
11.4059
11.4317
11.4555
11.4744
11.4963
11.5149
11.5123
11.479
11.4348
11.4126
11.4288
11.4791
11.5324
11.5913
1
1
1
1
1
1
1
1
1
1
1
1
1
1
1
1
1
1
1
1
1
1
1
1
1
1
1
1
1
1
1
1
1
1
1
1
1
1
1
1
1
1
1
1
1
1
1
1
1
1
1
1
1
1
1
1
1
1.00019
3.97645
10.0513
10.6436
10.7248
10.8238
10.9138
10.9747
10.9985
11.0067
10.987
10.9504
10.9166
10.9122
10.9836
11.082
11.1887
11.2694
11.3222
11.3504
11.3631
11.3568
11.321
11.2661
11.2167
11.1878
11.1852
11.2107
11.2419
11.2695
11.2785
11.2758
11.2571
11.222
11.1868
11.1709
11.1813
11.2082
11.2435
1
1
1
1
1
1
1
1
1
1
1
1
1
1
1
1
1
1
1
1
1
1
1
1
1
1
1
1
1
1
1
1
1
1
1
1
1
1
1
1
1
1
1
1
1
1
1
1
1
1
1
1
1
1
1
1
1
1
1.51475
7.92871
10.5427
10.5972
10.7116
10.8182
10.9002
10.9548
10.9727
10.9377
10.8618
10.7732
10.7269
10.781
10.8929
11.0196
11.107
11.1531
11.1737
11.1923
11.2033
11.1778
11.1053
11.0094
10.932
10.9021
10.9213
10.9599
10.9745
10.9455
10.9027
10.8596
10.8138
10.7595
10.7198
10.6945
10.7131
10.732
1
1
1
1
1
1
1
1
1
1
1
1
1
1
1
1
1
1
1
1
1
1
1
1
1
1
1
1
1
1
1
1
1
1
1
1
1
1
1
1
1
1
1
1
1
1
1
1
1
1
1
1
1
1
1
1
1
1
1.00592
4.0508
9.88007
10.4147
10.5084
10.624
10.7127
10.7748
10.8164
10.8132
10.7563
10.6651
10.593
10.6097
10.708
10.8334
10.9213
10.9565
10.9593
10.9644
10.9753
10.9639
10.8946
10.7752
10.6568
10.5892
10.581
10.6061
10.6043
10.5436
10.4582
10.3924
10.3668
10.3441
10.266
10.1646
9.98895
10.1442
1
1
1
1
1
1
1
1
1
1
1
1
1
1
1
1
1
1
1
1
1
1
1
1
1
1
1
1
1
1
1
1
1
1
1
1
1
1
1
1
1
1
1
1
1
1
1
1
1
1
1
1
1
1
1
1
1
1
0.999934
1.31736
7.53819
10.3623
10.4457
10.5216
10.6031
10.6742
10.7381
10.7604
10.7149
10.6115
10.4972
10.4523
10.4988
10.6061
10.7025
10.7504
10.7598
10.752
10.7496
10.7404
10.6821
10.5664
10.4249
10.314
10.257
10.2362
10.2055
10.1173
9.97551
9.83206
9.69596
9.50259
9.12532
8.51777
7.5363
5.58281
1
1
1
1
1
1
1
1
1
1
1
1
1
1
1
1
1
1
1
1
1
1
1
1
1
1
1
1
1
1
1
1
1
1
1
1
1
1
1
1
1
1
1
1
1
1
1
1
1
1
1
1
1
1
1
1
1
1
0.999992
1.00324
4.17508
9.72414
10.3
10.3502
10.4405
10.5093
10.5812
10.6372
10.6357
10.563
10.4457
10.3529
10.3494
10.4274
10.5216
10.5807
10.5909
10.5608
10.5311
10.5051
10.4641
10.3778
10.2431
10.1048
9.99216
9.90966
9.82968
9.71668
9.53697
9.32812
9.08724
8.77819
8.26213
7.52576
6.29424
4.65933
1
1
1
1
1
1
1
1
1
1
1
1
1
1
1
1
1
1
1
1
1
1
1
1
1
1
1
1
1
1
1
1
1
1
1
1
1
1
1
1
1
1
1
1
1
1
1
1
1
1
1
1
1
1
1
1
1
1
1
0.999999
1.40388
7.70604
10.2645
10.2776
10.342
10.4097
10.4826
10.5443
10.5509
10.4986
10.3885
10.2579
10.1953
10.2203
10.3045
10.3782
10.4076
10.3728
10.314
10.2613
10.2283
10.1726
10.0628
9.90993
9.74471
9.59124
9.45223
9.30627
9.10979
8.86203
8.56423
8.1588
7.65044
6.83289
5.81203
4.64431
1
1
1
1
1
1
1
1
1
1
1
1
1
1
1
1
1
1
1
1
1
1
1
1
1
1
1
1
1
1
1
1
1
1
1
1
1
1
1
1
1
1
1
1
1
1
1
1
1
1
1
1
1
1
1
1
1
1
1
1
1.00447
3.91781
9.50782
10.0778
10.1302
10.2164
10.289
10.3529
10.3927
10.39
10.3213
10.1977
10.0819
10.0534
10.1038
10.1768
10.2183
10.1903
10.109
10.0236
9.97671
9.9399
9.8588
9.71519
9.52098
9.3098
9.11479
8.92809
8.71735
8.46205
8.14349
7.73688
7.18932
6.49211
5.69107
4.78413
1
1
1
1
1
1
1
1
1
1
1
1
1
1
1
1
1
1
1
1
1
1
1
1
1
1
1
1
1
1
1
1
1
1
1
1
1
1
1
1
1
1
1
1
1
1
1
1
1
1
1
1
1
1
1
1
1
1
1
1
1
1.21234
6.94717
10.0977
10.0879
10.1329
10.1921
10.2378
10.2588
10.2591
10.2193
10.1251
9.99367
9.91283
9.90885
9.95247
9.99682
9.99429
9.92481
9.82702
9.7503
9.69916
9.6281
9.50198
9.30333
9.06445
8.83435
8.61217
8.3799
8.12027
7.80934
7.4352
6.92907
6.34776
5.70693
4.99136
1
1
1
1
1
1
1
1
1
1
1
1
1
1
1
1
1
1
1
1
1
1
1
1
1
1
1
1
1
1
1
1
1
1
1
1
1
1
1
1
1
1
1
1
1
1
1
1
1
1
1
1
1
1
1
1
1
1
1
1
1
1.00135
2.84712
8.96179
9.9783
9.9329
10.0082
10.0681
10.106
10.1226
10.1129
10.0609
9.95941
9.85698
9.79147
9.76729
9.77533
9.77312
9.72829
9.64695
9.55626
9.47796
9.3954
9.27454
9.08626
8.8552
8.6132
8.36532
8.11218
7.84487
7.55135
7.20806
6.78477
6.29073
5.77021
5.19071
1
1
1
1
1
1
1
1
1
1
1
1
1
1
1
1
1
1
1
1
1
1
1
1
1
1
1
1
1
1
1
1
1
1
1
1
1
1
1
1
1
1
1
1
1
1
1
1
1
1
1
1
1
1
1
1
1
1
1
1
1
1
1.08574
5.34204
9.77002
9.86282
9.86219
9.89586
9.92514
9.94078
9.94568
9.92732
9.86917
9.7864
9.6937
9.61625
9.57501
9.55103
9.5214
9.46874
9.38913
9.29449
9.18646
9.0489
8.86654
8.66334
8.43196
8.18258
7.92002
7.64833
7.36208
7.0507
6.68655
6.2644
5.82999
5.34648
1
1
1
1
1
1
1
1
1
1
1
1
1
1
1
1
1
1
1
1
1
1
1
1
1
1
1
1
1
1
1
1
1
1
1
1
1
1
1
1
1
1
1
1
1
1
1
1
1
1
1
1
1
1
1
1
1
1
1
1
1
1
1.00025
1.45057
7.40571
9.80296
9.76233
9.78502
9.80727
9.82484
9.83367
9.82301
9.78779
9.72243
9.62274
9.51235
9.41447
9.34896
9.30087
9.25827
9.19925
9.11452
8.99595
8.84088
8.66108
8.4791
8.27353
8.0442
7.78967
7.52647
7.24516
6.95198
6.62259
6.26006
5.88145
5.47292
1
1
1
1
1
1
1
1
1
1
1
1
1
1
1
1
1
1
1
1
1
1
1
1
1
1
1
1
1
1
1
1
1
1
1
1
1
1
1
1
1
1
1
1
1
1
1
1
1
1
1
1
1
1
1
1
1
1
1
1
1
1
1
1.00574
2.88423
8.67119
9.66669
9.5974
9.61191
9.6465
9.68053
9.69071
9.67231
9.61947
9.53216
9.42589
9.31407
9.21081
9.13349
9.06608
9.00053
8.92259
8.8051
8.64774
8.47701
8.30571
8.12156
7.92013
7.69276
7.44682
7.17895
6.89937
6.5924
6.27318
5.93972
5.58734
1
1
1
1
1
1
1
1
1
1
1
1
1
1
1
1
1
1
1
1
1
1
1
1
1
1
1
1
1
1
1
1
1
1
1
1
1
1
1
1
1
1
1
1
1
1
1
1
1
1
1
1
1
1
1
1
1
1
1
1
1
1
1
1
1.08529
4.60352
9.35352
9.52161
9.47639
9.5071
9.53674
9.55584
9.54017
9.49455
9.40686
9.31
9.20528
9.09765
8.99058
8.8978
8.80836
8.71772
8.60373
8.46049
8.30944
8.14609
7.97683
7.79713
7.59879
7.37437
7.12759
6.8646
6.58085
6.2955
5.99868
5.68796
1
1
1
1
1
1
1
1
1
1
1
1
1
1
1
1
1
1
1
1
1
1
1
1
1
1
1
1
1
1
1
1
1
1
1
1
1
1
1
1
1
1
1
1
1
1
1
1
1
1
1
1
1
1
1
1
1
1
1
1
1
1
1
1
1.00029
1.30758
6.00311
9.45616
9.46691
9.40761
9.42449
9.4279
9.42024
9.383
9.30882
9.2185
9.12175
9.01647
8.90186
8.7835
8.66053
8.53666
8.41359
8.28666
8.1534
8.00491
7.8447
7.67381
7.49358
7.29015
7.06605
6.82448
6.56557
6.30672
6.04597
5.76318
1
1
1
1
1
1
1
1
1
1
1
1
1
1
1
1
1
1
1
1
1
1
1
1
1
1
1
1
1
1
1
1
1
1
1
1
1
1
1
1
1
1
1
1
1
1
1
1
1
1
1
1
1
1
1
1
1
1
1
1
1
1
1
1
1
1.00269
1.63367
7.08805
9.31209
9.32147
9.28081
9.28504
9.27437
9.2455
9.19313
9.12861
9.04959
8.956
8.84516
8.717
8.57178
8.41772
8.27704
8.15241
8.02582
7.88668
7.73136
7.56481
7.39484
7.20774
7.00394
6.7846
6.54831
6.31209
6.07639
5.81166
1
1
1
1
1
1
1
1
1
1
1
1
1
1
1
1
1
1
1
1
1
1
1
1
1
1
1
1
1
1
1
1
1
1
1
1
1
1
1
1
1
1
1
1
1
1
1
1
1
1
1
1
1
1
1
1
1
1
1
1
1
1
1
1
1
1
1.01063
2.16948
7.75891
9.23471
9.16333
9.11942
9.07954
9.06297
9.0437
9.00921
8.95202
8.87381
8.77544
8.65412
8.50784
8.34428
8.19511
8.06405
7.93463
7.79387
7.63455
7.46908
7.30609
7.13335
6.94669
6.74555
6.52686
6.30863
6.09014
5.84402
1
1
1
1
1
1
1
1
1
1
1
1
1
1
1
1
1
1
1
1
1
1
1
1
1
1
1
1
1
1
1
1
1
1
1
1
1
1
1
1
1
1
1
1
1
1
1
1
1
1
1
1
1
1
1
1
1
1
1
1
1
1
1
1
1
1
1.00002
1.0317
2.81078
8.10725
9.10644
9.02521
8.96513
8.90824
8.86781
8.83955
8.80493
8.75093
8.6753
8.57376
8.44379
8.29187
8.1451
8.00875
7.87212
7.72568
7.56057
7.39132
7.23127
7.06946
6.89728
6.71117
6.50825
6.30609
6.10121
5.87418
1
1
1
1
1
1
1
1
1
1
1
1
1
1
1
1
1
1
1
1
1
1
1
1
1
1
1
1
1
1
1
1
1
1
1
1
1
1
1
1
1
1
1
1
1
1
1
1
1
1
1
1
1
1
1
1
1
1
1
1
1
1
1
1
1
1
1
1.00008
1.07481
3.26615
8.24749
8.98694
8.89256
8.82951
8.75169
8.69024
8.64575
8.5987
8.54101
8.46409
8.36199
8.23643
8.10097
7.96507
7.8256
7.67707
7.5129
7.34253
7.18011
7.02208
6.85955
6.6867
6.49977
6.31132
6.12266
5.91589
1
1
1
1
1
1
1
1
1
1
1
1
1
1
1
1
1
1
1
1
1
1
1
1
1
1
1
1
1
1
1
1
1
1
1
1
1
1
1
1
1
1
1
1
1
1
1
1
1
1
1
1
1
1
1
1
1
1
1
1
1
1
1
1
1
1
1
1
1.00029
1.11915
3.51693
8.25347
8.8705
8.77063
8.69227
8.60515
8.52454
8.4586
8.39774
8.33524
8.2575
8.15988
8.04414
7.91664
7.78089
7.63518
7.47913
7.31805
7.15937
7.00247
6.83969
6.66836
6.48938
6.31153
6.14282
5.96222
1
1
1
1
1
1
1
1
1
1
1
1
1
1
1
1
1
1
1
1
1
1
1
1
1
1
1
1
1
1
1
1
1
1
1
1
1
1
1
1
1
1
1
1
1
1
1
1
1
1
1
1
1
1
1
1
1
1
1
1
1
1
1
1
1
1
1
1
1
1.00061
1.15044
3.56343
8.1543
8.75335
8.64954
8.55794
8.46289
8.36461
8.28025
8.21259
8.1436
8.0626
7.96501
7.85037
7.72518
7.59281
7.45264
7.30624
7.15675
7.00277
6.83732
6.66336
6.48849
6.31948
6.16644
6.01038
1
1
1
1
1
1
1
1
1
1
1
1
1
1
1
1
1
1
1
1
1
1
1
1
1
1
1
1
1
1
1
1
1
1
1
1
1
1
1
1
1
1
1
1
1
1
1
1
1
1
1
1
1
1
1
1
1
1
1
1
1
1
1
1
1
1
1
1
1
1
1.00092
1.15797
3.42526
7.99234
8.61862
8.52084
8.41757
8.31559
8.21372
8.12402
8.04741
7.96767
7.87493
7.77004
7.65825
7.54291
7.42149
7.2914
7.15396
7.00731
6.84435
6.67114
6.50249
6.34128
6.1972
6.05773
1
1
1
1
1
1
1
1
1
1
1
1
1
1
1
1
1
1
1
1
1
1
1
1
1
1
1
1
1
1
1
1
1
1
1
1
1
1
1
1
1
1
1
1
1
1
1
1
1
1
1
1
1
1
1
1
1
1
1
1
1
1
1
1
1
1
1
1
1
1
1
1.00101
1.14213
3.1545
7.74631
8.44171
8.38137
8.28015
8.18353
8.08221
7.9888
7.89635
7.79656
7.69108
7.5875
7.48729
7.38066
7.26267
7.13538
6.99948
6.84759
6.68563
6.52879
6.3748
6.23573
6.10144
1
1
1
1
1
1
1
1
1
1
1
1
1
1
1
1
1
1
1
1
1
1
1
1
1
1
1
1
1
1
1
1
1
1
1
1
1
1
1
1
1
1
1
1
1
1
1
1
1
1
1
1
1
1
1
1
1
1
1
1
1
1
1
1
1
1
1
1
1
1
1
1
1.00087
1.11235
2.87026
7.23949
8.26367
8.29155
8.16807
8.07075
7.96378
7.85548
7.7441
7.63057
7.52836
7.43351
7.33337
7.22376
7.10487
6.9786
6.83988
6.69371
6.54992
6.40688
6.27049
6.13809
1
1
1
1
1
1
1
1
1
1
1
1
1
1
1
1
1
1
1
1
1
1
1
1
1
1
1
1
1
1
1
1
1
1
1
1
1
1
1
1
1
1
1
1
1
1
1
1
1
1
1
1
1
1
1
1
1
1
1
1
1
1
1
1
1
1
1
1
1
1
1
1
1
1.00062
1.08476
2.50367
6.50659
8.09847
8.20119
8.07013
7.95985
7.84616
7.7227
7.60637
7.5032
7.40064
7.29583
7.18761
7.07271
6.9517
6.82362
6.69066
6.55802
6.42497
6.29273
6.16785
1
1
1
1
1
1
1
1
1
1
1
1
1
1
1
1
1
1
1
1
1
1
1
1
1
1
1
1
1
1
1
1
1
1
1
1
1
1
1
1
1
1
1
1
1
1
1
1
1
1
1
1
1
1
1
1
1
1
1
1
1
1
1
1
1
1
1
1
1
1
1
1
1
1
1.00041
1.05454
2.08896
5.56904
7.87763
8.08254
7.96266
7.84809
7.73579
7.61665
7.50352
7.39197
7.28021
7.16588
7.04831
6.92961
6.80686
6.68208
6.5587
6.4316
6.30959
6.19242
1
1
1
1
1
1
1
1
1
1
1
1
1
1
1
1
1
1
1
1
1
1
1
1
1
1
1
1
1
1
1
1
1
1
1
1
1
1
1
1
1
1
1
1
1
1
1
1
1
1
1
1
1
1
1
1
1
1
1
1
1
1
1
1
1
1
1
1
1
1
1
1
1
1
1
1.00021
1.02945
1.69089
4.45813
7.60285
7.94766
7.8787
7.74673
7.63259
7.5188
7.40521
7.28858
7.16699
7.04242
6.9195
6.79786
6.68296
6.56477
6.4398
6.32525
6.20998
1
1
1
1
1
1
1
1
1
1
1
1
1
1
1
1
1
1
1
1
1
1
1
1
1
1
1
1
1
1
1
1
1
1
1
1
1
1
1
1
1
1
1
1
1
1
1
1
1
1
1
1
1
1
1
1
1
1
1
1
1
1
1
1
1
1
1
1
1
1
1
1
1
1
1
1
1.00009
1.01298
1.36326
3.51979
7.06789
7.69964
7.73835
7.61574
7.52218
7.42114
7.3065
7.18324
7.05876
6.93451
6.81583
6.70582
6.58717
6.46468
6.34391
6.22889
1
1
1
1
1
1
1
1
1
1
1
1
1
1
1
1
1
1
1
1
1
1
1
1
1
1
1
1
1
1
1
1
1
1
1
1
1
1
1
1
1
1
1
1
1
1
1
1
1
1
1
1
1
1
1
1
1
1
1
1
1
1
1
1
1
1
1
1
1
1
1
1
1
1
1
1
1
1.00003
1.00438
1.17698
2.74987
6.00586
7.51591
7.60055
7.50478
7.41023
7.31517
7.20767
7.08634
6.96285
6.85351
6.74222
6.62302
6.50285
6.37164
6.2574
1
1
1
1
1
1
1
1
1
1
1
1
1
1
1
1
1
1
1
1
1
1
1
1
1
1
1
1
1
1
1
1
1
1
1
1
1
1
1
1
1
1
1
1
1
1
1
1
1
1
1
1
1
1
1
1
1
1
1
1
1
1
1
1
1
1
1
1
1
1
1
1
1
1
1
1
1
1
1.00001
1.00141
1.08018
2.02633
4.74552
7.14782
7.47189
7.45512
7.3222
7.20087
7.08097
6.97356
6.87228
6.76589
6.65941
6.54625
6.41473
6.30134
1
1
1
1
1
1
1
1
1
1
1
1
1
1
1
1
1
1
1
1
1
1
1
1
1
1
1
1
1
1
1
1
1
1
1
1
1
1
1
1
1
1
1
1
1
1
1
1
1
1
1
1
1
1
1
1
1
1
1
1
1
1
1
1
1
1
1
1
1
1
1
1
1
1
1
1
1
1
1
1
1.00041
1.02861
1.48832
3.52768
6.50196
7.22739
7.32214
7.19601
7.08196
6.98238
6.88399
6.7782
6.6767
6.577
6.47782
6.36416
1
1
1
1
1
1
1
1
1
1
1
1
1
1
1
1
1
1
1
1
1
1
1
1
1
1
1
1
1
1
1
1
1
1
1
1
1
1
1
1
1
1
1
1
1
1
1
1
1
1
1
1
1
1
1
1
1
1
1
1
1
1
1
1
1
1
1
1
1
1
1
1
1
1
1
1
1
1
1
1
1
1.00009
1.00777
1.19774
2.56675
5.27348
6.96593
7.17816
7.14017
7.0254
6.90919
6.77215
6.66656
6.58993
6.51758
6.41949
1
1
1
1
1
1
1
1
1
1
1
1
1
1
1
1
1
1
1
1
1
1
1
1
1
1
1
1
1
1
1
1
1
1
1
1
1
1
1
1
1
1
1
1
1
1
1
1
1
1
1
1
1
1
1
1
1
1
1
1
1
1
1
1
1
1
1
1
1
1
1
1
1
1
1
1
1
1
1
1
1
1
1.00001
1.00182
1.07034
1.76265
3.94734
6.24947
6.9867
7.06687
6.98327
6.85537
6.7193
6.56563
6.46914
6.42248
1
1
1
1
1
1
1
1
1
1
1
1
1
1
1
1
1
1
1
1
1
1
1
1
1
1
1
1
1
1
1
1
1
1
1
1
1
1
1
1
1
1
1
1
1
1
1
1
1
1
1
1
1
1
1
1
1
1
1
1
1
1
1
1
1
1
1
1
1
1
1
1
1
1
1
1
1
1
1
1
1
1
1
1
1.00036
1.01764
1.29882
2.66342
5.32148
6.56466
6.89807
6.92068
6.81229
6.67974
6.51408
6.38665
1
1
1
1
1
1
1
1
1
1
1
1
1
1
1
1
1
1
1
1
1
1
1
1
1
1
1
1
1
1
1
1
1
1
1
1
1
1
1
1
1
1
1
1
1
1
1
1
1
1
1
1
1
1
1
1
1
1
1
1
1
1
1
1
1
1
1
1
1
1
1
1
1
1
1
1
1
1
1
1
1
1
1
1
1
1.00004
1.00366
1.08802
1.8244
3.899
5.89957
6.60525
6.82202
6.78311
6.64757
6.44951
1
1
1
1
1
1
1
1
1
1
1
1
1
1
1
1
1
1
1
1
1
1
1
1
1
1
1
1
1
1
1
1
1
1
1
1
1
1
1
1
1
1
1
1
1
1
1
1
1
1
1
1
1
1
1
1
1
1
1
1
1
1
1
1
1
1
1
1
1
1
1
1
1
1
1
1
1
1
1
1
1
1
1
1
1
1
1
1.00054
1.02126
1.30964
2.54614
4.72183
6.15805
6.69317
6.73565
6.61728
1
1
1
1
1
1
1
1
1
1
1
1
1
1
1
1
1
1
1
1
1
1
1
1
1
1
1
1
1
1
1
1
1
1
1
1
1
1
1
1
1
1
1
1
1
1
1
1
1
1
1
1
1
1
1
1
1
1
1
1
1
1
1
1
1
1
1
1
1
1
1
1
1
1
1
1
1
1
1
1
1
1
1
1
1
1
1
1
1.00006
1.00396
1.07872
1.65121
3.26598
5.3123
6.49696
6.6004
1
1
1
1
1
1
1
1
1
1
1
1
1
1
1
1
1
1
1
1
1
1
1
1
1
1
1
1
1
1
1
1
1
1
1
1
1
1
1
1
1
1
1
1
1
1
1
1
1
1
1
1
1
1
1
1
1
1
1
1
1
1
1
1
1
1
1
1
1
1
1
1
1
1
1
1
1
1
1
1
1
1
1
1
1
1
1
1
1
1
1.00046
1.01464
1.19352
2.10085
4.05064
5.81913
1
1
1
1
1
1
1
1
1
1
1
1
1
1
1
1
1
1
1
1
1
1
1
1
1
1
1
1
1
1
1
1
1
1
1
1
1
1
1
1
1
1
1
1
1
1
1
1
1
1
1
1
1
1
1
1
1
1
1
1
1
1
1
1
1
1
1
1
1
1
1
1
1
1
1
1
1
1
1
1
1
1
1
1
1
1
1
1
1
1
1
1.00004
1.00187
1.04282
1.3984
2.65902
1
1
1
1
1
1
1
1
1
1
1
1
1
1
1
1
1
1
1
1
1
1
1
1
1
1
1
1
1
1
1
1
1
1
1
1
1
1
1
1
1
1
1
1
1
1
1
1
1
1
1
1
1
1
1
1
1
1
1
1
1
1
1
1
1
1
1
1
1
1
1
1
1
1
1
1
1
1
1
1
1
1
1
1
1
1
1
1
1
1
1
1
1
1.00018
1.00657
1.09297
1
1
1
1
1
1
1
1
1
1
1
1
1
1
1
1
1
1
1
1
1
1
1
1
1
1
1
1
1
1
1
1
1
1
1
1
1
1
1
1
1
1
1
1
1
1
1
1
1
1
1
1
1
1
1
1
1
1
1
1
1
1
1
1
1
1
1
1
1
1
1
1
1
1
1
1
1
1
1
1
1
1
1
1
1
1
1
1
1
1
1
1
1
1
1.00001
1.00053
1
1
1
1
1
1
1
1
1
1
1
1
1
1
1
1
1
1
1
1
1
1
1
1
1
1
1
1
1
1
1
1
1
1
1
1
1
1
1
1
1
1
1
1
1
1
1
1
1
1
1
1
1
1
1
1
1
1
1
1
1
1
1
1
1
1
1
1
1
1
1
1
1
1
1
1
1
1
1
1
1
1
1
1
1
1
1
1
1
1
1
1
1
1
1
1
1
1
1
1
1
1
1
1
1
1
1
1
1
1
1
1
1
1
1
1
1
1
1
1
1
1
1
1
1
1
1
1
1
1
1
1
1
1
1
1
1
1
1
1
1
1
1
1
1
1
1
1
1
1
1
1
1
1
1
1
1
1
1
1
1
1
1
1
1
1
1
1
1
1
1
1
1
1
1
1
1
1
1
1
1
1
1
1
1
1
1
1
1
1
1
1
1
1
1
1
1
1
1
1
1
1
1
1
1
1
1
1
1
1
1
1
1
1
1
1
1
1
1
1
1
1
1
1
1
1
1
1
1
1
1
1
1
1
1
1
1
1
1
1
1
1
1
1
1
1
1
1
1
1
1
1
1
1
1
1
1
1
1
1
1
1
1
1
1
1
1
1
1
1
1
1
1
1
1
1
1
1
1
1
1
1
1
1
1
1
1
1
1
1
1
1
1
1
1
1
1
1
1
1
1
1
1
1
1
1
1
1
1
1
1
1
1
1
1
1
1
1
1
1
1
1
1
1
1
1
1
1
1
1
1
1
1
1
1
1
1
1
1
1
1
1
1
1
1
1
1
1
1
1
1
1
1
1
1
1
1
1
1
1
1
1
1
1
1
1
1
1
1
1
1
1
1
1
1
1
1
1
1
1
1
1
1
1
1
1
1
1
1
1
1
1
1
1
1
1
1
1
1
1
1
1
1
1
1
1
1
1
1
1
1
1
1
1
1
1
1
1
1
1
1
1
1
1
1
1
1
1
1
1
1
1
1
1
1
1
1
1
1
1
1
1
1
1
1
1
1
1
1
1
1
1
1
1
1
1
1
1
1
1
1
1
1
1
1
1
1
1
1
1
1
1
1
1
1
1
1
1
1
1
1
1
1
1
1
1
1
1
1
1
1
1
1
1
1
1
1
1
1
1
1
1
1
1
1
1
1
1
1
1
1
1
1
1
1
1
1
1
1
1
1
1
1
1
1
1
1
1
1
1
1
1
1
1
1
1
1
1
1
1
1
1
1
1
1
1
1
1
1
1
1
1
1
1
1
1
1
1
1
1
1
1
1
1
1
1
1
1
1
1
1
1
1
1
1
1
1
1
1
1
1
1
1
1
1
1
1
1
1
1
1
1
1
1
1
1
1
1
1
1
1
1
1
1
1
1
1
1
1
1
1
1
1
1
1
1
1
1
1
1
1
1
1
1
1
1
1
1
1
1
1
1
1
1
1
1
1
1
1
1
1
1
1
1
1
1
1
1
1
1
1
1
1
1
1
1
1
1
1
1
1
1
1
1
1
1
1
1
1
1
1
1
1
1
1
1
1
1
1
1
1
1
1
1
1
1
1
1
1
1
1
1
1
1
1
1
1
1
1
1
1
1
1
1
1
1
1
1
1
1
1
1
1
1
1
1
1
1
1
1
1
1
1
1
1
1
1
1
1
1
1
1
1
1
1
1
1
1
1
1
1
1
1
1
1
1
1
1
1
1
1
1
1
1
1
1
1
1
1
1
1
1
1
1
1
1
1
1
1
1
1
1
1
1
1
1
1
1
1
1
1
1
1
1
1
1
1
1
1
1
1
1
1
1
1
1
1
1
1
1
1
1
1
1
1
1
1
1
1
1
1
1
1
1
1
1
1
1
1
1
1
1
1
1
1
1
1
1
1
1
1
1
1
1
1
1
1
1
1
1
1
1
1
1
1
1
1
1
1
1
1
1
1
1
1
1
1
1
1
1
1
1
1
1
1
1
1
1
1
1
1
1
1
1
1
1
1
1
1
1
1
1
1
1
1
1
1
1
1
1
1
1
1
1
1
1
1
1
1
1
1
1
1
1
1
1
1
1
1
1
1
1
1
1
1
1
1
1
1
1
1
1
1
1
1
1
1
1
1
1
1
1
1
1
1
1
1
1
1
1
1
1
1
1
1
1
1
1
1
1
1
1
1
1
1
1
1
1
1
1
1
1
1
1
1
1
1
1
1
1
1
1
1
1
1
1
1
1
1
1
1
1
1
1
1
1
1
1
1
1
1
1
1
1
1
1
1
1
1
1
1
1
1
1
1
1
1
1
1
1
1
1
1
1
1
1
1
1
1
1
1
1
1
1
1
1
1
1
1
1
1
1
1
1
1
1
1
1
1
1
1
1
1
1
1
1
1
1
1
1
1
1
1
1
1
1
1
1
1
1
1
1
1
1
1
1
1
1
1
1
1
1
1
1
1
1
1
1
1
1
1
1
1
1
1
1
1
1
1
1
1
1
1
1
1
1
1
1
1
1
1
1
1
1
1
1
1
1
1
1
1
1
1
1
1
1
1
1
1
1
1
1
1
1
1
1
1
1
1
1
1
1
1
1
1
1
1
1
1
1
1
1
1
1
1
1
1
1
1
1
1
1
1
1
1
1
1
1
1
1
1
1
1
1
1
1
1
1
1
1
1
1
1
1
1
1
1
1
1
1
1
1
1
1
1
1
1
1
1
1
1
1
1
1
1
1
1
1
1
1
1
1
1
1
1
1
1
1
1
1
1
1
1
1
1
1
1
1
1
1
1
1
1
1
1
1
1
1
1
1
1
1
1
1
1
1
1
1
1
1
1
1
1
1
1
1
1
1
1
1
1
1
1
1
1
1
1
1
1
1
1
1
1
1
1
1
1
1
1
1
1
1
1
1
1
1
1
1
1
1
1
1
1
1
1
1
1
1
1
1
1
1
1
1
1
1
1
1
1
1
1
1
1
1
1
1
1
1
1
1
1
1
1
1
1
1
1
1
1
1
1
1
1
1
1
1
1
1
1
1
1
1
1
1
1
1
1
1
1
1
1
1
1
1
1
1
1
1
1
1
1
1
1
1
1
1
1
1
1
1
1
1
1
1
1
1
1
1
1
1
1
1
1
1
1
1
1
1
1
1
1
1
1
1
1
1
1
1
1
1
1
1
1
1
1
1
1
1
1
1
1
1
1
1
1
1
1
1
1
1
1
1
1
1
1
1
1
1
1
1
1
1
1
1
1
1
1
1
1
1
1
1
1
1
1
1
1
1
1
1
1
1
1
1
1
1
1
1
1
1
1
1
1
1
1
1
1
1
1
1
1
1
1
1
1
1
1
1
1
1
1
1
1
1
1
1
1
1
1
1
1
1
1
1
1
1
1
1
1
1
1
1
1
1
1
1
1
1
1
1
1
1
1
1
1
1
1
1
1
1
1
1
1
1
1
1
1
1
1
1
1
1
1
1
1
1
1
1
1
1
1
1
1
1
1
1
1
1
1
1
1
1
1
1
1
1
1
1
1
1
1
1
1
1
1
1
1
1
1
1
1
1
1
1
1
1
1
1
1
1
1
1
1
1
1
1
1
1
1
1
1
1
1
1
1
1
1
1
1
1
1
1
1
1
1
1
1
1
1
1
1
1
1
1
1
1
1
1
1
1
1
1
1
1
1
1
1
1
1
1
1
1
1
1
1
1
1
1
1
1
1
1
1
1
1
1
1
1
1
1
1
1
1
1
1
1
1
1
1
1
1
1
1
1
1
1
1
1
1
1
1
1
1
1
1
1
1
1
1
1
1
1
1
1
1
1
1
1
1
1
1
1
1
1
1
1
1
1
1
1
1
1
1
1
1
1
1
1
1
1
1
1
1
1
1
1
1
1
1
1
1
1
1
1
1
1
1
1
1
1
1
1
1
1
1
1
1
1
1
1
1
1
1
1
1
1
1
1
1
1
1
1
1
1
1
1
1
1
1
1
1
1
1
1
1
1
1
1
1
1
1
1
1
1
1
1
1
1
1
1
1
1
1
1
1
1
1
1
1
1
1
1
1
1
1
1
1
1
1
1
1
1
1
1
1
1
1
1
1
1
1
1
1
1
1
1
1
1
1
1
1
1
1
1
1
1
1
1
1
1
1
1
1
1
1
1
1
1
1
1
1
1
1
1
1
1
1
1
1
1
1
1
1
1
1
1
1
1
1
1
1
1
1
1
1
1
1
1
1
1
1
1
1
1
1
1
1
1
1
1
1
1
1
1
1
1
1
1
1
1
1
1
1
1
1
1
1
1
1
1
1
1
1
1
1
1
1
1
1
1
1
1
1
1
1
1
1
1
1
1
1
1
1
1
1
1
1
1
1
1
1
1
1
1
1
1
1
1
1
1
1
1
1
1
1
1
1
1
1
1
1
1
1
1
1
1
1
1
1
1
1
1
1
1
1
1
1
1
1
1
1
1
1
1
1
1
1
1
1
1
1
1
1
1
1
1
1
1
1
1
1
1
1
1
1
1
1
1
1
1
1
1
1
1
1
1
1
1
1
1
1
1
1
1
1
1
1
1
1
1
1
1
1
1
1
1
1
1
1
1
1
1
1
1
1
1
1
1
1
1
1
1
1
1
1
1
1
1
1
1
1
1
1
1
1
1
1
1
1
1
1
1
1
1
1
1
1
1
1
1
1
1
1
1
1
1
1
1
1
1
1
1
1
1
1
1
1
1
1
1
1
1
1
1
1
1
1
1
1
1
1
1
1
1
1
1
1
1
1
1
1
1
1
1
1
1
1
1
1
1
1
1
1
1
1
1
1
1
1
1
1
1
1
1
1
1
1
1
1
1
1
1
1
1
1
1
1
1
1
1
1
1
1
1
1
1
1
1
1
1
1
1
1
1
1
1
1
1
1
1
1
1
1
1
1
1
1
1
1
1
1
1
1
1
1
1
1
1
1
1
1
1
1
1
1
1
1
1
1
1
1
1
1
1
1
1
1
1
1
1
1
1
1
1
1
1
1
1
1
1
1
1
1
1
1
1
1
1
1
1
1
1
1
1
1
1
1
1
1
1
1
1
1
1
1
1
1
1
1
1
1
1
1
1
1
1
1
1
1
1
1
1
1
1
1
1
1
1
1
1
1
1
1
1
1
1
1
1
1
1
1
1
1
1
1
1
1
1
1
1
1
1
1
1
1
1
1
1
1
1
1
1
1
1
1
1
1
1
1
1
1
1
1
1
1
1
1
1
1
1
1
1
1
1
1
1
1
1
1
1
1
1
1
1
1
1
1
1
1
1
1
1
1
1
1
1
1
1
1
1
1
1
1
1
1
1
1
1
1
1
1
1
1
1
1
1
1
1
1
1
1
1
1
1
1
1
1
1
1
1
1
1
1
1
1
1
1
1
1
1
1
1
1
1
1
1
1
1
1
1
1
1
1
1
1
1
1
1
1
1
1
1
1
1
1
1
1
1
1
1
1
1
1
1
1
1
1
1
1
1
1
1
1
1
1
1
1
1
1
1
1
1
1
1
1
1
1
1
1
1
1
1
1
1
1
1
1
1
1
1
1
1
1
1
1
1
1
1
1
1
1
1
1
1
1
1
1
1
1
1
1
1
1
1
1
1
1
1
1
1
1
1
1
1
1
1
1
1
1
1
1
1
1
1
1
1
1
1
1
1
1
1
1
1
1
1
1
1
1
1
1
1
1
1
1
1
1
1
1
1
1
1
1
1
1
1
1
1
1
1
1
1
1
1
1
1
1
1
1
1
1
1
1
1
1
1
1
1
1
1
1
1
1
1
1
1
1
1
1
1
1
1
1
1
1
1
1
1
1
1
1
1
1
1
1
1
1
1
1
1
1
1
1
1
1
1
1
1
1
1
1
1
1.12439
0.274728
0.0462941
0.0189308
0.0285409
0.0442603
0.0773694
0.131871
0.196499
0.288093
0.375548
0.448023
0.524983
0.588907
0.590635
0.595668
0.637724
0.721109
0.80863
0.886582
0.936211
0.956087
0.951837
0.943729
0.928678
0.927583
0.93278
0.93975
0.961383
0.980971
0.989691
1.0013
1.01156
1.01776
1.02745
1.03937
1.04201
1.0434
1.04353
1.04308
1.04116
1.03927
1.04136
1.04774
1.04764
1.04456
1.03771
1.02914
1.0257
1.02206
1.01702
1.01584
1.02244
1.03239
1.03533
1.03369
1.02987
1.02237
1.01158
1.00144
0.995735
0.990964
0.985748
0.981849
0.978165
0.974684
0.972349
0.969429
0.966603
0.96384
0.961129
0.95901
0.957931
0.956472
0.953787
0.950482
0.947089
0.944087
0.941553
0.939246
0.937293
0.935343
0.933342
0.931011
0.928035
0.924198
0.919178
0.913899
0.910994
0.909349
0.907761
0.90569
0.90262
0.898805
0.894418
0.889891
0.885222
0.88038
0.875585
0.871038
0.866502
0.861554
0.855658
0.850098
0.84622
0.84502
0.845774
0.847466
0.85014
0.852299
0.85309
0.852189
0.849368
0.846593
0.847065
0.848587
0.850662
0.853678
0.857566
0.861802
0.86596
0.870014
0.873934
0.87763
0.88062
0.882628
0.884429
0.8864
0.888705
0.891285
0.893589
0.895803
0.897721
0.898809
0.899774
0.901875
0.903803
0.905948
0.909065
0.913436
0.917888
0.919791
0.920709
0.921202
0.920255
0.9187
0.919524
0.921291
0.923219
0.925897
0.928508
0.930377
0.931984
0.933593
0.935441
0.937319
0.93873
0.939967
0.941235
0.942274
0.943243
0.944747
0.946978
0.950047
0.949425
0.944973
0.941759
0.940777
0.940639
0.940798
0.941249
0.942495
0.945622
0.94904
0.951311
0.953729
0.955342
0.95475
0.955788
0.960241
0.961944
0.968433
0.977975
0.982846
0.985219
0.986148
0.985402
0.984329
0.983988
0.984225
0.984668
0.989973
2.05464
1.01862
0.500791
0.286876
0.25623
0.21023
0.193001
0.207336
0.225742
0.225876
0.240228
0.258869
0.286121
0.346218
0.412984
0.460628
0.518283
0.573983
0.625812
0.70044
0.792992
0.853881
0.877179
0.885638
0.894311
0.912516
0.931217
0.950784
0.963895
0.971933
0.978907
0.987804
0.996107
1.00129
1.01108
1.02664
1.03169
1.03428
1.03597
1.03656
1.03744
1.03857
1.04145
1.04467
1.04366
1.0411
1.03669
1.02984
1.02685
1.02477
1.02075
1.01775
1.02039
1.02446
1.02403
1.02196
1.01868
1.01297
1.00486
0.995714
0.990621
0.98742
0.984727
0.982253
0.980435
0.979653
0.97848
0.975427
0.972695
0.96935
0.964798
0.958789
0.953259
0.949521
0.946458
0.943635
0.941686
0.940211
0.939079
0.938253
0.938052
0.937966
0.936722
0.934474
0.931111
0.926515
0.921092
0.91493
0.910109
0.907553
0.905735
0.904443
0.902904
0.899917
0.896617
0.892945
0.888395
0.883279
0.878142
0.873142
0.868452
0.863652
0.858633
0.853473
0.848839
0.845414
0.844096
0.844879
0.846746
0.849396
0.851257
0.851932
0.851638
0.850274
0.847965
0.847881
0.849398
0.851712
0.854949
0.859158
0.864057
0.869262
0.874218
0.878536
0.882076
0.884304
0.886178
0.888208
0.89065
0.893379
0.895991
0.898632
0.901262
0.903655
0.90504
0.904796
0.905223
0.906346
0.907696
0.909612
0.912418
0.916203
0.919477
0.921428
0.922941
0.924176
0.925005
0.925981
0.92676
0.927509
0.92825
0.928935
0.929548
0.930493
0.932005
0.933469
0.934181
0.93483
0.935801
0.93684
0.938121
0.939619
0.941097
0.943621
0.947497
0.947124
0.943232
0.94173
0.943237
0.945551
0.947546
0.949012
0.949361
0.949196
0.949479
0.949774
0.951171
0.955698
0.962366
0.964767
0.957876
0.958475
0.968144
0.973575
0.976132
0.977222
0.977451
0.977522
0.978419
0.980017
0.98106
0.986321
2.95164
1.66413
0.994914
0.786992
0.641593
0.497328
0.389152
0.365929
0.337764
0.28963
0.275596
0.279138
0.290052
0.324001
0.373265
0.414204
0.448146
0.477685
0.502251
0.55256
0.639514
0.718625
0.780849
0.819271
0.856102
0.896969
0.934232
0.974173
0.986227
0.990976
0.99929
1.00648
1.01242
1.01426
1.01596
1.01749
1.01812
1.02044
1.02225
1.02335
1.02703
1.03339
1.04129
1.04644
1.0472
1.04627
1.04251
1.0353
1.02883
1.02742
1.02695
1.02674
1.02904
1.0305
1.02851
1.02473
1.01895
1.01107
1.00131
0.990827
0.983675
0.980812
0.978746
0.977352
0.976887
0.978665
0.978796
0.977226
0.975851
0.974697
0.971881
0.966781
0.960345
0.953347
0.94648
0.940595
0.936732
0.934384
0.932819
0.932776
0.933963
0.935827
0.93765
0.93809
0.937298
0.93468
0.92906
0.920947
0.912827
0.906404
0.901409
0.897499
0.894725
0.892636
0.89151
0.889604
0.886515
0.883177
0.879356
0.874428
0.868532
0.862855
0.857922
0.854004
0.851015
0.848542
0.846606
0.845456
0.845258
0.845559
0.846315
0.848368
0.85087
0.852285
0.853041
0.853736
0.854827
0.85617
0.857821
0.859508
0.861543
0.864466
0.868476
0.872855
0.876653
0.879434
0.881648
0.883801
0.886252
0.888867
0.891612
0.894745
0.898571
0.903115
0.907341
0.910831
0.91342
0.914493
0.91386
0.910761
0.908599
0.90913
0.910453
0.912568
0.916484
0.921235
0.925827
0.930205
0.93384
0.935836
0.936767
0.936659
0.935187
0.93515
0.935215
0.934319
0.93247
0.930586
0.929436
0.928823
0.928704
0.929503
0.930998
0.932984
0.936562
0.940312
0.940818
0.939107
0.939374
0.941847
0.944271
0.945091
0.944527
0.94384
0.943816
0.944577
0.947521
0.952528
0.958907
0.965734
0.966729
0.965357
0.972698
0.978641
0.980962
0.981766
0.981917
0.982022
0.983282
0.986125
0.988244
0.992973
3.50965
2.43642
1.72493
1.3047
1.01391
0.784435
0.690804
0.642876
0.569508
0.489636
0.441216
0.413449
0.404604
0.405723
0.407505
0.406354