/*--------------------------------*- C++ -*----------------------------------*\
  =========                 |
  \\      /  F ield         | OpenFOAM: The Open Source CFD Toolbox
   \\    /   O peration     | Website:  https://openfoam.org
    \\  /    A nd           | Version:  7
     \\/     M anipulation  |
\*---------------------------------------------------------------------------*/
FoamFile
{
    version     2.0;
    format      ascii;
    class       volVectorField;
    location    "0.8";
    object      U;
}
// * * * * * * * * * * * * * * * * * * * * * * * * * * * * * * * * * * * * * //

dimensions      [0 1 -1 0 0 0 0];

internalField   nonuniform List<vector> 
19968
(
(3 -9.15809e-17 0)
(3 -1.75634e-16 0)
(3 -1.22692e-16 0)
(3 -1.19342e-16 0)
(3 -9.28061e-16 0)
(3 -7.75367e-16 0)
(3 -3.27714e-16 0)
(3 -1.26661e-16 0)
(3 -3.33321e-16 0)
(3 5.92849e-17 0)
(3 3.37681e-16 0)
(3 5.53652e-16 0)
(3 6.39339e-16 0)
(3 6.55806e-16 0)
(3 5.59568e-16 0)
(3 3.04271e-16 0)
(3 -9.18231e-17 0)
(3 -4.20316e-16 0)
(3 -1.03347e-16 0)
(3 3.52428e-16 0)
(3 4.68956e-16 0)
(3 6.96893e-16 0)
(3 5.48462e-16 0)
(3 2.37536e-16 0)
(3 5.27149e-17 0)
(3 2.77251e-16 0)
(3 8.38882e-16 0)
(3 1.29336e-15 0)
(3 1.17553e-15 0)
(3 5.19116e-16 0)
(3 1.05691e-16 0)
(3 3.4836e-16 0)
(3 6.82315e-17 0)
(3 1.24857e-16 0)
(3 2.05051e-16 0)
(3 5.80522e-16 0)
(3 6.07768e-16 0)
(3 7.75787e-16 0)
(3 6.95878e-16 0)
(3 6.25128e-17 0)
(3 2.14409e-16 0)
(3 6.7777e-16 0)
(3 5.63069e-16 0)
(3 1.04814e-15 0)
(3 1.50039e-15 0)
(3 1.43277e-15 0)
(3 8.14996e-16 0)
(3 7.26617e-16 0)
(3 5.7922e-16 0)
(3 -8.16681e-16 0)
(3 -7.38507e-16 0)
(3 -3.81196e-16 0)
(3 -5.6402e-16 0)
(3 3.59107e-16 0)
(3 1.18008e-15 0)
(3 1.20137e-15 0)
(1.43342 0.004114 0)
(0.742144 0.000814457 0)
(0.695737 0.0114722 0)
(0.670204 0.0155441 0)
(0.635919 0.0157521 0)
(0.610159 0.0128746 0)
(0.592959 0.00998087 0)
(0.583888 0.0076773 0)
(0.5793 0.00814022 0)
(0.568498 0.00993701 0)
(0.552288 0.0117581 0)
(0.532019 0.0116322 0)
(0.510298 0.0103792 0)
(0.485307 0.0103709 0)
(0.461073 0.0108033 0)
(0.438891 0.011007 0)
(0.418346 0.0109246 0)
(0.399935 0.0109467 0)
(0.385261 0.011124 0)
(0.37542 0.0113645 0)
(0.369682 0.0116472 0)
(0.363682 0.0119046 0)
(0.354682 0.0120775 0)
(0.338886 0.0121677 0)
(0.317104 0.0120417 0)
(0.29233 0.0120497 0)
(0.270253 0.0119706 0)
(0.25124 0.0117983 0)
(0.233307 0.0117331 0)
(0.214964 0.0118351 0)
(0.195486 0.0120522 0)
(0.177019 0.0124258 0)
(0.159117 0.0129408 0)
(0.139271 0.0133318 0)
(0.118138 0.0138065 0)
(0.098469 0.0143614 0)
(0.0812874 0.015094 0)
(0.0638511 0.0158916 0)
(0.0434933 0.0164095 0)
(0.013517 0.0169973 0)
(3 -3.43338e-16 0)
(3 -6.05189e-16 0)
(3 -5.8935e-16 0)
(3 -2.09059e-16 0)
(3 -6.71336e-16 0)
(3 -8.82628e-16 0)
(3 2.71711e-17 0)
(3 8.91768e-16 0)
(3 4.75941e-16 0)
(3 6.67518e-16 0)
(3 1.15955e-15 0)
(3 1.08484e-15 0)
(3 9.96638e-16 0)
(3 3.11619e-16 0)
(3 1.14405e-16 0)
(3 2.64239e-16 0)
(3 1.77285e-16 0)
(3 1.51946e-16 0)
(3 3.69639e-17 0)
(3 1.04978e-17 0)
(3 5.97526e-17 0)
(3 5.11065e-16 0)
(3 2.59237e-16 0)
(3 5.61765e-17 0)
(3 2.37931e-16 0)
(3 4.76983e-16 0)
(3 1.64691e-15 0)
(3 2.725e-15 0)
(3 2.53114e-15 0)
(3 9.03847e-16 0)
(3 -1.66416e-17 0)
(3 2.7684e-16 0)
(3 -4.32788e-16 0)
(3 -1.06097e-15 0)
(3 -7.62077e-16 0)
(3 -2.87232e-16 0)
(3 -1.22289e-16 0)
(3 2.71819e-16 0)
(3 1.53438e-16 0)
(3 4.10799e-17 0)
(3 5.62981e-16 0)
(3 9.45117e-16 0)
(3 1.10693e-15 0)
(3 1.06673e-15 0)
(3 1.42805e-15 0)
(3 4.80597e-16 0)
(3 -5.04556e-16 0)
(3 1.69506e-16 0)
(3 3.50598e-16 0)
(3 -1.14727e-15 0)
(3 -9.59287e-16 0)
(3 -4.88102e-16 0)
(3 -2.00354e-16 0)
(3 4.5811e-16 0)
(3 6.94991e-16 0)
(3 2.09949e-15 0)
(1.45632 0.0264107 0)
(0.737221 0.014845 0)
(0.685423 0.0304231 0)
(0.663723 0.0426519 0)
(0.63192 0.0441229 0)
(0.607676 0.0382532 0)
(0.59019 0.030472 0)
(0.580465 0.0242965 0)
(0.573936 0.0250669 0)
(0.562395 0.030115 0)
(0.546349 0.034853 0)
(0.527095 0.0342918 0)
(0.506056 0.0311506 0)
(0.481153 0.0309703 0)
(0.457006 0.0323121 0)
(0.434727 0.0332596 0)
(0.414059 0.0333764 0)
(0.395462 0.0335723 0)
(0.38063 0.0337604 0)
(0.370903 0.0340655 0)
(0.365479 0.0344792 0)
(0.35957 0.0352649 0)
(0.350457 0.0360743 0)
(0.334097 0.0367467 0)
(0.311844 0.0369123 0)
(0.286276 0.0370601 0)
(0.263829 0.0366614 0)
(0.244806 0.0358159 0)
(0.227301 0.0352446 0)
(0.209868 0.0354808 0)
(0.190919 0.0365334 0)
(0.173016 0.0381165 0)
(0.154867 0.0396604 0)
(0.134634 0.0408044 0)
(0.113508 0.0419799 0)
(0.0945295 0.043534 0)
(0.0783689 0.0457526 0)
(0.0619691 0.0480841 0)
(0.0425391 0.0494486 0)
(0.0133622 0.0510203 0)
(3 -8.45195e-17 0)
(3 -1.29169e-16 0)
(3 -4.25249e-17 0)
(3 -9.64959e-17 0)
(3 5.03364e-16 0)
(3 1.56938e-16 0)
(3 2.4899e-16 0)
(3 2.62048e-16 0)
(3 4.37212e-16 0)
(3 3.91709e-17 0)
(3 1.52007e-16 0)
(3 2.846e-16 0)
(3 5.64778e-16 0)
(3 3.89044e-16 0)
(3 4.39635e-16 0)
(3 5.08762e-16 0)
(3 5.34112e-16 0)
(3 6.33852e-16 0)
(3 5.82062e-16 0)
(3 9.37537e-16 0)
(3 2.05811e-15 0)
(3 2.56131e-15 0)
(3 2.36937e-15 0)
(3 1.64549e-15 0)
(3 9.77916e-16 0)
(3 1.66775e-16 0)
(3 4.12648e-16 0)
(3 8.51559e-16 0)
(3 1.34075e-15 0)
(3 9.32065e-16 0)
(3 9.83966e-16 0)
(3 1.06624e-15 0)
(3 1.44284e-15 0)
(3 1.17463e-15 0)
(3 1.38372e-15 0)
(3 1.83022e-15 0)
(3 1.89899e-15 0)
(3 1.56945e-15 0)
(3 1.03719e-15 0)
(3 6.06568e-16 0)
(3 3.98489e-16 0)
(3 3.32212e-16 0)
(3 5.60115e-16 0)
(3 4.33517e-16 0)
(3 3.17945e-16 0)
(3 1.03605e-15 0)
(3 1.1844e-15 0)
(3 7.16517e-16 0)
(3 -5.71881e-16 0)
(3 -9.24243e-16 0)
(3 -5.73518e-17 0)
(3 -3.32666e-17 0)
(3 2.92249e-16 0)
(3 4.75024e-16 0)
(3 1.90039e-15 0)
(3 4.42962e-16 0)
(1.51511 0.0484814 0)
(0.740662 0.0317425 0)
(0.683939 0.055443 0)
(0.661257 0.0713215 0)
(0.63091 0.072576 0)
(0.608711 0.0635301 0)
(0.592076 0.0519686 0)
(0.582097 0.0430699 0)
(0.572944 0.0445597 0)
(0.560221 0.0524584 0)
(0.544241 0.0592439 0)
(0.525305 0.0584209 0)
(0.505157 0.0538137 0)
(0.480374 0.0533152 0)
(0.456337 0.0553113 0)
(0.4338 0.0566278 0)
(0.412795 0.0569438 0)
(0.393765 0.0576584 0)
(0.378486 0.0581421 0)
(0.368744 0.0589699 0)
(0.363578 0.0595982 0)
(0.357767 0.0605596 0)
(0.348585 0.0614811 0)
(0.331424 0.062319 0)
(0.30829 0.0626282 0)
(0.281208 0.0629751 0)
(0.257772 0.0625979 0)
(0.238329 0.0616577 0)
(0.221232 0.0609482 0)
(0.204883 0.0612298 0)
(0.186311 0.0627102 0)
(0.168134 0.0645479 0)
(0.148765 0.0663169 0)
(0.127489 0.0677984 0)
(0.106264 0.0698149 0)
(0.0880836 0.0727774 0)
(0.0730472 0.0767926 0)
(0.0579158 0.0807878 0)
(0.039998 0.0828567 0)
(0.0127537 0.0852776 0)
(3 1.41811e-16 0)
(3 5.2342e-17 0)
(3 -1.03336e-16 0)
(3 -3.81578e-16 0)
(3 -3.93877e-16 0)
(3 -2.60456e-16 0)
(3 -3.62156e-16 0)
(3 -8.27779e-16 0)
(3 -3.67309e-16 0)
(3 -1.80724e-16 0)
(3 -3.4917e-16 0)
(3 -3.81535e-16 0)
(3 -7.27371e-16 0)
(3 -5.56424e-17 0)
(3 7.08361e-16 0)
(3 1.05517e-15 0)
(3 6.22858e-16 0)
(3 -9.96594e-17 0)
(3 5.57847e-17 0)
(3 1.08591e-15 0)
(3 1.37004e-15 0)
(3 1.77315e-15 0)
(3 2.29542e-15 0)
(3 2.23458e-15 0)
(3 2.61567e-16 0)
(3 -3.23203e-16 0)
(3 -5.9908e-16 0)
(3 -6.11489e-16 0)
(3 -7.72963e-16 0)
(3 -9.70454e-16 0)
(3 2.79601e-16 0)
(3 2.07288e-16 0)
(3 5.66791e-16 0)
(3 1.18915e-15 0)
(3 2.10902e-15 0)
(3 2.82193e-15 0)
(3 2.66008e-15 0)
(3 2.03256e-15 0)
(3 2.21818e-15 0)
(3 1.62849e-15 0)
(3 6.3753e-16 0)
(3 2.09094e-16 0)
(3 3.54299e-16 0)
(3 4.17667e-16 0)
(3 1.85862e-16 0)
(3 9.86534e-16 0)
(3 2.31614e-15 0)
(3 1.53191e-15 0)
(3 3.16881e-16 0)
(3 9.2672e-16 0)
(3 1.48716e-15 0)
(3 1.29635e-15 0)
(3 1.15386e-15 0)
(3 9.97791e-16 0)
(3 2.11465e-15 0)
(3 8.83814e-16 0)
(1.61139 0.069938 0)
(0.74853 0.0511495 0)
(0.685317 0.0851654 0)
(0.659594 0.10148 0)
(0.631664 0.0994109 0)
(0.612394 0.0862919 0)
(0.596278 0.0720788 0)
(0.585914 0.0625722 0)
(0.574084 0.0657362 0)
(0.560794 0.0766378 0)
(0.545316 0.0846216 0)
(0.527277 0.0832946 0)
(0.508209 0.0774129 0)
(0.483624 0.0767548 0)
(0.459822 0.0792429 0)
(0.437299 0.080898 0)
(0.416221 0.0815528 0)
(0.396919 0.0831263 0)
(0.381141 0.0842839 0)
(0.371075 0.0857046 0)
(0.365658 0.08669 0)
(0.359781 0.087243 0)
(0.350453 0.0882526 0)
(0.332646 0.089068 0)
(0.308575 0.0897066 0)
(0.279995 0.0904138 0)
(0.255524 0.0904577 0)
(0.235646 0.0901199 0)
(0.218865 0.0897213 0)
(0.203201 0.0900152 0)
(0.184985 0.0915799 0)
(0.165769 0.0931327 0)
(0.144592 0.0944694 0)
(0.12197 0.0961949 0)
(0.100376 0.098875 0)
(0.082465 0.102959 0)
(0.067919 0.1083 0)
(0.0535865 0.113488 0)
(0.0369877 0.115745 0)
(0.0118706 0.118723 0)
(3 9.97844e-17 0)
(3 -7.83172e-17 0)
(3 -1.62936e-16 0)
(3 -1.15503e-16 0)
(3 -2.75371e-16 0)
(3 -5.61723e-16 0)
(3 -9.40391e-16 0)
(3 -9.96126e-16 0)
(3 -4.97302e-16 0)
(3 4.96715e-16 0)
(3 1.43911e-16 0)
(3 -3.28212e-16 0)
(3 -1.09384e-15 0)
(3 -1.16702e-15 0)
(3 -6.01818e-16 0)
(3 7.45855e-16 0)
(3 1.54916e-15 0)
(3 1.13523e-15 0)
(3 8.79452e-16 0)
(3 8.40991e-16 0)
(3 1.05046e-15 0)
(3 1.65733e-15 0)
(3 2.09691e-15 0)
(3 2.2417e-15 0)
(3 1.80254e-15 0)
(3 1.6175e-15 0)
(3 1.29586e-15 0)
(3 1.36191e-15 0)
(3 1.09996e-15 0)
(3 1.18324e-15 0)
(3 6.94367e-16 0)
(3 7.03031e-16 0)
(3 6.06768e-16 0)
(3 1.40711e-15 0)
(3 1.61771e-15 0)
(3 2.09906e-15 0)
(3 2.11898e-15 0)
(3 2.58744e-15 0)
(3 2.62032e-15 0)
(3 2.5442e-15 0)
(3 2.21645e-15 0)
(3 9.6005e-16 0)
(3 9.87274e-16 0)
(3 8.49241e-16 0)
(3 6.60729e-16 0)
(3 5.03722e-16 0)
(3 2.4146e-15 0)
(3 3.27186e-15 0)
(3 4.15412e-15 0)
(3 2.50579e-15 0)
(3 1.3532e-15 0)
(3 4.53208e-16 0)
(3 -3.26954e-17 0)
(3 -8.65625e-17 0)
(3 1.62443e-15 0)
(3 2.16535e-15 0)
(1.74821 0.0883458 0)
(0.76197 0.0774089 0)
(0.684229 0.120528 0)
(0.655997 0.129687 0)
(0.630182 0.122311 0)
(0.615273 0.105505 0)
(0.601152 0.08968 0)
(0.589962 0.0821314 0)
(0.576304 0.0886181 0)
(0.562795 0.103247 0)
(0.54698 0.11163 0)
(0.53002 0.108818 0)
(0.512062 0.101862 0)
(0.487637 0.10112 0)
(0.464261 0.104092 0)
(0.442321 0.10633 0)
(0.421705 0.107588 0)
(0.402583 0.110326 0)
(0.38652 0.112123 0)
(0.37588 0.114105 0)
(0.369408 0.115244 0)
(0.363445 0.115839 0)
(0.353906 0.116474 0)
(0.335912 0.1169 0)
(0.311508 0.118011 0)
(0.282007 0.119108 0)
(0.2569 0.11985 0)
(0.236946 0.120649 0)
(0.22047 0.121276 0)
(0.20465 0.121912 0)
(0.186528 0.123237 0)
(0.165813 0.12427 0)
(0.14293 0.124763 0)
(0.119318 0.126337 0)
(0.0975841 0.129766 0)
(0.0797086 0.134876 0)
(0.0649721 0.141167 0)
(0.0505764 0.146968 0)
(0.034364 0.148769 0)
(0.0108906 0.151719 0)
(3 2.21705e-17 0)
(3 8.58212e-17 0)
(3 5.49124e-16 0)
(3 1.43941e-15 0)
(3 1.31382e-15 0)
(3 6.66046e-16 0)
(3 -5.11072e-16 0)
(3 -2.82204e-16 0)
(3 1.82762e-16 0)
(3 6.17071e-16 0)
(3 7.00141e-16 0)
(3 6.08078e-16 0)
(3 5.12616e-16 0)
(3 2.08709e-16 0)
(3 -2.71585e-16 0)
(3 -2.70767e-16 0)
(3 2.20391e-16 0)
(3 3.48651e-16 0)
(3 8.16099e-16 0)
(3 1.09505e-15 0)
(3 1.21297e-15 0)
(3 1.53599e-15 0)
(3 1.4055e-15 0)
(3 1.32856e-15 0)
(3 1.70078e-15 0)
(3 2.10124e-15 0)
(3 2.34021e-15 0)
(3 2.21518e-15 0)
(3 1.89253e-15 0)
(3 4.05467e-16 0)
(3 -4.59581e-16 0)
(3 -1.08011e-16 0)
(3 1.44748e-15 0)
(3 1.55813e-15 0)
(3 2.02411e-15 0)
(3 1.90675e-15 0)
(3 1.70286e-15 0)
(3 1.75479e-15 0)
(3 1.1985e-15 0)
(3 1.31107e-15 0)
(3 8.01623e-16 0)
(3 2.44519e-16 0)
(3 -9.91787e-17 0)
(3 -1.07289e-16 0)
(3 -6.86562e-17 0)
(3 6.1828e-16 0)
(3 1.17026e-15 0)
(3 2.68714e-15 0)
(3 4.03212e-15 0)
(3 4.5573e-15 0)
(3 2.44777e-15 0)
(3 8.91917e-16 0)
(3 4.81908e-16 0)
(3 6.9583e-16 0)
(3 3.17225e-16 0)
(3 2.27864e-16 0)
(1.91515 0.110612 0)
(0.782943 0.123799 0)
(0.677266 0.153751 0)
(0.657046 0.150529 0)
(0.635368 0.139188 0)
(0.62497 0.119284 0)
(0.609978 0.104889 0)
(0.596241 0.104031 0)
(0.580079 0.116472 0)
(0.564888 0.134016 0)
(0.547843 0.139916 0)
(0.532969 0.134422 0)
(0.515983 0.126732 0)
(0.492084 0.1263 0)
(0.469553 0.130103 0)
(0.448783 0.133434 0)
(0.429047 0.135515 0)
(0.41044 0.139081 0)
(0.394205 0.141499 0)
(0.382747 0.143999 0)
(0.374075 0.145641 0)
(0.367713 0.146203 0)
(0.357448 0.146297 0)
(0.339508 0.146377 0)
(0.315662 0.147959 0)
(0.28634 0.149313 0)
(0.261383 0.150937 0)
(0.241751 0.153146 0)
(0.225448 0.155123 0)
(0.208551 0.156502 0)
(0.189595 0.157649 0)
(0.166938 0.158299 0)
(0.142789 0.157897 0)
(0.119159 0.159 0)
(0.0979224 0.162564 0)
(0.0799475 0.168566 0)
(0.0642521 0.175542 0)
(0.0488177 0.181524 0)
(0.0320756 0.183036 0)
(0.00987017 0.185539 0)
(3 1.31061e-17 0)
(3 1.89766e-16 0)
(3 7.09563e-16 0)
(3 8.42915e-16 0)
(3 4.0863e-16 0)
(3 6.57292e-17 0)
(3 -2.13548e-18 0)
(3 4.97349e-17 0)
(3 5.98682e-16 0)
(3 5.87199e-16 0)
(3 7.71342e-16 0)
(3 6.95607e-16 0)
(3 9.90583e-16 0)
(3 1.12841e-15 0)
(3 3.90287e-16 0)
(3 -1.00162e-15 0)
(3 -1.186e-15 0)
(3 -1.24759e-15 0)
(3 2.61971e-16 0)
(3 6.88981e-16 0)
(3 9.66521e-16 0)
(3 7.37362e-16 0)
(3 2.22692e-16 0)
(3 7.70976e-16 0)
(3 1.41748e-15 0)
(3 1.73474e-15 0)
(3 1.73817e-15 0)
(3 1.36058e-15 0)
(3 6.51307e-16 0)
(3 3.05248e-16 0)
(3 -3.37676e-17 0)
(3 -8.62467e-16 0)
(3 -5.33405e-16 0)
(3 2.43995e-16 0)
(3 4.93637e-16 0)
(3 7.02865e-16 0)
(3 5.60493e-16 0)
(3 1.35442e-17 0)
(3 9.28491e-17 0)
(3 5.43786e-16 0)
(3 3.64558e-16 0)
(3 1.74126e-16 0)
(3 2.44331e-16 0)
(3 4.19753e-16 0)
(3 5.80967e-17 0)
(3 1.16485e-17 0)
(3 3.79458e-17 0)
(3 5.364e-16 0)
(3 1.44633e-15 0)
(3 1.69087e-15 0)
(3 1.41747e-15 0)
(3 7.58801e-16 0)
(3 2.01694e-16 0)
(3 -2.63469e-16 0)
(3 -6.33556e-16 0)
(3 -5.80597e-16 0)
(2.12646 0.147914 0)
(0.807315 0.191311 0)
(0.679798 0.178693 0)
(0.671456 0.166875 0)
(0.652944 0.149937 0)
(0.639208 0.131298 0)
(0.620074 0.125361 0)
(0.601994 0.134254 0)
(0.582776 0.152952 0)
(0.565321 0.168003 0)
(0.548838 0.168074 0)
(0.537301 0.159444 0)
(0.520963 0.152133 0)
(0.497976 0.152859 0)
(0.476323 0.158125 0)
(0.456814 0.162976 0)
(0.438085 0.165683 0)
(0.420085 0.169597 0)
(0.403752 0.172388 0)
(0.391399 0.175072 0)
(0.380002 0.177178 0)
(0.372603 0.177869 0)
(0.361198 0.177796 0)
(0.34378 0.17776 0)
(0.321047 0.179612 0)
(0.293368 0.181032 0)
(0.269765 0.183405 0)
(0.251156 0.18714 0)
(0.233733 0.190521 0)
(0.216399 0.192785 0)
(0.194877 0.194335 0)
(0.1698 0.195085 0)
(0.144689 0.194347 0)
(0.121951 0.195167 0)
(0.101805 0.198665 0)
(0.0835098 0.20465 0)
(0.0660713 0.211745 0)
(0.0486436 0.217692 0)
(0.0302752 0.219515 0)
(0.00900007 0.221722 0)
(3 5.60301e-18 0)
(3 2.9053e-16 0)
(3 3.10282e-16 0)
(3 3.91368e-17 0)
(3 -1.73244e-16 0)
(3 2.15747e-16 0)
(3 9.97362e-16 0)
(3 8.60291e-16 0)
(3 7.83488e-16 0)
(3 -1.71872e-16 0)
(3 -6.57501e-16 0)
(3 -4.21918e-16 0)
(3 -1.05917e-16 0)
(3 2.26391e-17 0)
(3 -2.79938e-17 0)
(3 -1.45878e-16 0)
(3 -2.75929e-16 0)
(3 5.2134e-17 0)
(3 9.45878e-16 0)
(3 1.98088e-15 0)
(3 2.09435e-15 0)
(3 1.16246e-15 0)
(3 9.21179e-16 0)
(3 6.92065e-16 0)
(3 6.94428e-16 0)
(3 1.4733e-16 0)
(3 -1.29715e-15 0)
(3 -1.0335e-15 0)
(3 -9.9e-16 0)
(3 1.30204e-16 0)
(3 -1.65066e-17 0)
(3 -1.08555e-15 0)
(3 -1.35508e-15 0)
(3 1.92264e-16 0)
(3 1.42449e-16 0)
(3 -2.91355e-16 0)
(3 -1.92054e-16 0)
(3 -1.01419e-16 0)
(3 2.39195e-16 0)
(3 9.83292e-16 0)
(3 1.49336e-15 0)
(3 1.4316e-15 0)
(3 1.15953e-15 0)
(3 9.91319e-16 0)
(3 8.20026e-16 0)
(3 3.91395e-16 0)
(3 5.51141e-16 0)
(3 8.29296e-16 0)
(3 8.90289e-16 0)
(3 2.60075e-16 0)
(3 6.81415e-17 0)
(3 6.46697e-18 0)
(3 -1.08534e-15 0)
(3 -1.51161e-15 0)
(3 -1.6289e-15 0)
(3 -1.72967e-15 0)
(2.47838 0.178463 0)
(0.859583 0.250252 0)
(0.694196 0.200528 0)
(0.695153 0.175709 0)
(0.676855 0.156378 0)
(0.653704 0.149495 0)
(0.627369 0.157821 0)
(0.601636 0.177814 0)
(0.580484 0.197864 0)
(0.563395 0.202097 0)
(0.551582 0.194839 0)
(0.543483 0.183814 0)
(0.528744 0.177785 0)
(0.507521 0.181042 0)
(0.486359 0.188913 0)
(0.467283 0.195435 0)
(0.449014 0.19825 0)
(0.431348 0.201828 0)
(0.414788 0.204608 0)
(0.401046 0.207229 0)
(0.388038 0.209612 0)
(0.378633 0.210438 0)
(0.365824 0.211081 0)
(0.348863 0.211235 0)
(0.327088 0.213424 0)
(0.301631 0.215208 0)
(0.279886 0.218247 0)
(0.261896 0.223143 0)
(0.244211 0.227784 0)
(0.224741 0.230943 0)
(0.199689 0.233308 0)
(0.17181 0.234728 0)
(0.145805 0.234515 0)
(0.124386 0.235408 0)
(0.105727 0.238801 0)
(0.0873793 0.244542 0)
(0.0683517 0.251382 0)
(0.049037 0.256681 0)
(0.0287975 0.258988 0)
(0.00831324 0.261277 0)
(3 3.46972e-17 0)
(3 2.71493e-17 0)
(3 -5.30952e-16 0)
(3 -1.11562e-15 0)
(3 -9.07577e-16 0)
(3 -3.38949e-16 0)
(3 1.19711e-16 0)
(3 1.39307e-16 0)
(3 -5.45642e-16 0)
(3 -1.43689e-15 0)
(3 -1.77316e-15 0)
(3 -1.6509e-15 0)
(3 -1.08633e-15 0)
(3 -7.0092e-16 0)
(3 -8.70516e-16 0)
(3 -8.45267e-16 0)
(3 -6.32258e-16 0)
(3 -4.85992e-16 0)
(3 -4.69344e-16 0)
(3 -5.64196e-16 0)
(3 -6.05093e-16 0)
(3 -3.88384e-16 0)
(3 -1.67517e-16 0)
(3 -4.15641e-16 0)
(3 -1.17611e-15 0)
(3 -1.65886e-15 0)
(3 -1.53742e-15 0)
(3 -1.44897e-15 0)
(3 -1.67154e-15 0)
(3 -1.25178e-15 0)
(3 -6.91253e-16 0)
(3 -5.49481e-16 0)
(3 -6.4395e-16 0)
(3 -8.09837e-16 0)
(3 -5.02289e-16 0)
(3 -3.4681e-16 0)
(3 -3.90643e-16 0)
(3 -2.05423e-16 0)
(3 -3.25994e-16 0)
(3 -3.55363e-16 0)
(3 6.42424e-16 0)
(3 1.43438e-15 0)
(3 1.25861e-15 0)
(3 2.96604e-16 0)
(3 1.33249e-15 0)
(3 2.30256e-15 0)
(3 2.34304e-15 0)
(3 1.26502e-15 0)
(3 1.5487e-16 0)
(3 -1.56624e-16 0)
(3 -4.77131e-16 0)
(3 -1.28306e-15 0)
(3 -1.64395e-15 0)
(3 -1.55919e-15 0)
(3 -1.21071e-15 0)
(3 -8.62802e-16 0)
(2.88694 0.0902014 0)
(0.97975 0.258196 0)
(0.712721 0.20348 0)
(0.711748 0.182921 0)
(0.694834 0.179701 0)
(0.66478 0.187386 0)
(0.628759 0.207827 0)
(0.595625 0.230485 0)
(0.573727 0.238253 0)
(0.564397 0.231349 0)
(0.560937 0.218274 0)
(0.555247 0.206788 0)
(0.541054 0.204755 0)
(0.521159 0.212559 0)
(0.49845 0.224383 0)
(0.477609 0.231759 0)
(0.459031 0.23361 0)
(0.441714 0.236113 0)
(0.425439 0.238523 0)
(0.411123 0.240875 0)
(0.39715 0.243296 0)
(0.386135 0.243978 0)
(0.372433 0.246044 0)
(0.355713 0.247163 0)
(0.335132 0.249968 0)
(0.311639 0.252739 0)
(0.29164 0.256704 0)
(0.274634 0.261924 0)
(0.257241 0.26692 0)
(0.236156 0.270544 0)
(0.208118 0.273847 0)
(0.177722 0.276503 0)
(0.150881 0.277685 0)
(0.130408 0.279413 0)
(0.112678 0.282856 0)
(0.093893 0.288422 0)
(0.0730166 0.295049 0)
(0.0516166 0.299568 0)
(0.0290324 0.301792 0)
(0.00860174 0.305356 0)
(3 8.27182e-17 0)
(3 -1.76469e-16 0)
(3 -3.98448e-16 0)
(3 -5.5335e-16 0)
(3 -7.31944e-16 0)
(3 -7.41096e-16 0)
(3 -2.56179e-16 0)
(3 -1.12429e-16 0)
(3 1.99354e-16 0)
(3 2.78503e-16 0)
(3 3.6167e-16 0)
(3 8.22289e-17 0)
(3 2.01979e-16 0)
(3 1.27929e-16 0)
(3 -1.59641e-17 0)
(3 -2.9981e-16 0)
(3 -1.03163e-15 0)
(3 -1.71082e-15 0)
(3 -1.72805e-15 0)
(3 -2.0557e-15 0)
(3 -2.07417e-15 0)
(3 -2.08437e-15 0)
(3 -2.08008e-15 0)
(3 -2.13716e-15 0)
(3 -2.33196e-15 0)
(3 -2.27858e-15 0)
(3 -1.93927e-15 0)
(3 -1.96309e-15 0)
(3 -1.27565e-15 0)
(3 -1.67555e-16 0)
(3 3.51116e-16 0)
(3 5.5681e-16 0)
(3 4.81e-16 0)
(3 -8.7004e-16 0)
(3 -1.85912e-15 0)
(3 -1.81499e-15 0)
(3 -5.78957e-16 0)
(3 2.62197e-17 0)
(3 1.13943e-15 0)
(3 1.64054e-15 0)
(3 1.99246e-15 0)
(3 2.6762e-15 0)
(3 3.03119e-15 0)
(3 2.81086e-15 0)
(3 2.70451e-15 0)
(3 1.7822e-15 0)
(3 1.40056e-15 0)
(3 7.89204e-16 0)
(3 -5.17545e-16 0)
(3 -7.44465e-16 0)
(3 -1.103e-15 0)
(3 -1.13984e-15 0)
(3 -6.66772e-16 0)
(3 1.1662e-16 0)
(3 5.78698e-16 0)
(3 9.56735e-16 0)
(3.00322 0.00314929 0)
(1.23985 0.252186 0)
(0.749101 0.211358 0)
(0.715123 0.203057 0)
(0.684948 0.218723 0)
(0.647321 0.23931 0)
(0.618589 0.262151 0)
(0.595444 0.271615 0)
(0.582305 0.264976 0)
(0.580188 0.25188 0)
(0.577534 0.239281 0)
(0.570153 0.23371 0)
(0.556258 0.237389 0)
(0.536113 0.250235 0)
(0.511398 0.264051 0)
(0.488722 0.268947 0)
(0.469916 0.268543 0)
(0.452828 0.270032 0)
(0.436835 0.272752 0)
(0.422355 0.27565 0)
(0.407583 0.278672 0)
(0.395463 0.279456 0)
(0.381587 0.282912 0)
(0.365153 0.28602 0)
(0.346259 0.289246 0)
(0.323762 0.293394 0)
(0.304295 0.29868 0)
(0.287706 0.304132 0)
(0.269865 0.308763 0)
(0.247997 0.312551 0)
(0.218412 0.316738 0)
(0.186389 0.321032 0)
(0.158529 0.324245 0)
(0.137655 0.327946 0)
(0.119379 0.332154 0)
(0.0994161 0.337943 0)
(0.0768167 0.344535 0)
(0.053928 0.348274 0)
(0.0295248 0.349583 0)
(0.00952186 0.355405 0)
(3 4.50837e-18 0)
(3 -1.1639e-18 0)
(3 -5.94559e-17 0)
(3 2.5254e-17 0)
(3 -2.42149e-18 0)
(3 -3.66923e-17 0)
(3 -2.53343e-16 0)
(3 -1.99038e-16 0)
(3 -2.32369e-16 0)
(3 2.69147e-16 0)
(3 1.19368e-15 0)
(3 1.88759e-15 0)
(3 1.8771e-15 0)
(3 1.99064e-15 0)
(3 1.55291e-15 0)
(3 4.94734e-16 0)
(3 -7.68521e-17 0)
(3 -3.39614e-16 0)
(3 -1.19654e-15 0)
(3 -1.8243e-15 0)
(3 -2.1209e-15 0)
(3 -2.38547e-15 0)
(3 -2.77146e-15 0)
(3 -2.52773e-15 0)
(3 -2.25904e-15 0)
(3 -1.77454e-15 0)
(3 -1.97063e-15 0)
(3 -1.73156e-15 0)
(3 -1.16035e-15 0)
(3 -3.50652e-16 0)
(3 1.67425e-17 0)
(3 1.11444e-15 0)
(3 1.47037e-15 0)
(3 1.07734e-15 0)
(3 2.29533e-16 0)
(3 -2.17393e-16 0)
(3 2.39164e-17 0)
(3 -1.16558e-16 0)
(3 3.38663e-16 0)
(3 8.84702e-16 0)
(3 1.27169e-15 0)
(3 1.57677e-15 0)
(3 1.98736e-15 0)
(3 2.63985e-15 0)
(3 2.773e-15 0)
(3 2.32949e-15 0)
(3 1.50853e-15 0)
(3 1.94692e-16 0)
(3 1.57473e-16 0)
(3 8.27783e-16 0)
(3 1.45882e-15 0)
(3 1.98908e-15 0)
(3 2.33732e-15 0)
(3 2.57873e-15 0)
(3 2.89943e-15 0)
(3 2.8169e-15 0)
(3.00001 6.74497e-06 0)
(1.69405 0.265713 0)
(0.779086 0.250182 0)
(0.701652 0.244401 0)
(0.682727 0.26784 0)
(0.655309 0.287165 0)
(0.633948 0.296927 0)
(0.616843 0.29183 0)
(0.605814 0.281039 0)
(0.599238 0.271733 0)
(0.592549 0.267948 0)
(0.58402 0.270568 0)
(0.56983 0.279909 0)
(0.549302 0.294278 0)
(0.524558 0.304225 0)
(0.502436 0.303891 0)
(0.483741 0.301343 0)
(0.466968 0.302738 0)
(0.451431 0.307032 0)
(0.436714 0.311846 0)
(0.421284 0.316359 0)
(0.407835 0.318063 0)
(0.394224 0.322427 0)
(0.378551 0.327345 0)
(0.362265 0.33097 0)
(0.34054 0.336503 0)
(0.320578 0.343187 0)
(0.30316 0.349259 0)
(0.284175 0.353515 0)
(0.262695 0.357043 0)
(0.234343 0.361775 0)
(0.203068 0.367777 0)
(0.174555 0.373572 0)
(0.151634 0.380292 0)
(0.130507 0.386576 0)
(0.107676 0.393588 0)
(0.0826355 0.400885 0)
(0.0577976 0.404665 0)
(0.0316147 0.40498 0)
(0.011284 0.412527 0)
(3 -2.63323e-17 0)
(3 5.92958e-17 0)
(3 1.55529e-16 0)
(3 4.85251e-16 0)
(3 7.19247e-16 0)
(3 7.98677e-16 0)
(3 5.67796e-16 0)
(3 2.91065e-16 0)
(3 -2.0425e-16 0)
(3 -1.44606e-16 0)
(3 -5.82976e-17 0)
(3 1.35028e-16 0)
(3 3.43769e-16 0)
(3 4.84581e-16 0)
(3 4.21805e-16 0)
(3 9.4884e-17 0)
(3 -3.09542e-16 0)
(3 -3.48307e-16 0)
(3 -7.2504e-16 0)
(3 -1.17781e-15 0)
(3 -1.7233e-15 0)
(3 -1.7192e-15 0)
(3 -1.52193e-15 0)
(3 -1.51899e-15 0)
(3 -1.47311e-15 0)
(3 -9.9959e-16 0)
(3 -6.01846e-16 0)
(3 -3.35836e-16 0)
(3 2.5064e-16 0)
(3 3.5722e-16 0)
(3 -1.39951e-16 0)
(3 -4.15016e-16 0)
(3 -1.20838e-16 0)
(3 3.46741e-16 0)
(3 8.13405e-16 0)
(3 7.67647e-16 0)
(3 -2.93916e-16 0)
(3 -7.43839e-16 0)
(3 -1.41167e-15 0)
(3 -1.84575e-15 0)
(3 -1.8786e-15 0)
(3 -1.96024e-15 0)
(3 -1.45691e-15 0)
(3 -4.62126e-16 0)
(3 2.27495e-16 0)
(3 7.59223e-16 0)
(3 6.05055e-16 0)
(3 3.11054e-16 0)
(3 1.04904e-15 0)
(3 1.98161e-15 0)
(3 2.79501e-15 0)
(3 3.90903e-15 0)
(3 3.56397e-15 0)
(3 3.1484e-15 0)
(3 3.71425e-15 0)
(3 3.44689e-15 0)
(3 8.8203e-09 0)
(2.38556 0.250553 0)
(0.870162 0.321364 0)
(0.722266 0.287566 0)
(0.71116 0.29994 0)
(0.686791 0.311395 0)
(0.66623 0.315414 0)
(0.64778 0.312411 0)
(0.630588 0.306824 0)
(0.614982 0.303955 0)
(0.601132 0.307285 0)
(0.590108 0.317071 0)
(0.578083 0.329446 0)
(0.561941 0.338327 0)
(0.542608 0.337851 0)
(0.522335 0.333606 0)
(0.503583 0.331257 0)
(0.486823 0.335391 0)
(0.471172 0.343428 0)
(0.454978 0.351382 0)
(0.43843 0.357588 0)
(0.422852 0.360427 0)
(0.409635 0.364746 0)
(0.3965 0.370668 0)
(0.381266 0.375389 0)
(0.362072 0.381644 0)
(0.340596 0.389599 0)
(0.31975 0.39707 0)
(0.298165 0.402466 0)
(0.275954 0.407014 0)
(0.249811 0.412938 0)
(0.220624 0.421205 0)
(0.191636 0.42997 0)
(0.165327 0.43975 0)
(0.139843 0.44879 0)
(0.113468 0.457835 0)
(0.0864304 0.466588 0)
(0.0603091 0.471568 0)
(0.0337174 0.471546 0)
(0.0128273 0.479435 0)
(3 -3.83896e-17 0)
(3 -4.8913e-17 0)
(3 1.33125e-16 0)
(3 3.51265e-16 0)
(3 5.88636e-16 0)
(3 9.36333e-16 0)
(3 9.40524e-16 0)
(3 7.5759e-16 0)
(3 3.42084e-16 0)
(3 4.03553e-19 0)
(3 -1.03916e-15 0)
(3 -1.49602e-15 0)
(3 -1.87287e-15 0)
(3 -1.58691e-15 0)
(3 -1.19651e-15 0)
(3 -1.12671e-15 0)
(3 -1.40244e-15 0)
(3 -1.79848e-15 0)
(3 -1.63332e-15 0)
(3 -1.17175e-15 0)
(3 -8.51163e-16 0)
(3 -6.66017e-16 0)
(3 -8.47489e-16 0)
(3 -1.3185e-15 0)
(3 -1.46006e-15 0)
(3 -1.20385e-15 0)
(3 -3.97865e-16 0)
(3 -1.62137e-16 0)
(3 2.35587e-16 0)
(3 6.86352e-16 0)
(3 6.55846e-16 0)
(3 7.95719e-17 0)
(3 -5.71631e-16 0)
(3 -7.12878e-16 0)
(3 -5.98486e-16 0)
(3 -4.17232e-16 0)
(3 -7.40585e-16 0)
(3 -7.49618e-16 0)
(3 -4.62295e-16 0)
(3 -3.04992e-16 0)
(3 -3.56769e-16 0)
(3 -4.51412e-16 0)
(3 -3.78521e-16 0)
(3 1.10754e-17 0)
(3 3.2331e-16 0)
(3 1.54694e-16 0)
(3 3.93439e-16 0)
(3 8.1257e-16 0)
(3 1.95639e-15 0)
(3 2.23565e-15 0)
(3 2.3629e-15 0)
(3 2.42302e-15 0)
(3 2.7094e-15 0)
(3 3.17309e-15 0)
(3 3.52068e-15 0)
(3 2.9448e-15 0)
(3 1.27993e-11 0)
(3.02953 0.0247412 0)
(1.13744 0.368011 0)
(0.772767 0.305647 0)
(0.749449 0.336565 0)
(0.717293 0.353878 0)
(0.687586 0.357882 0)
(0.663792 0.353741 0)
(0.644668 0.347483 0)
(0.629357 0.345093 0)
(0.617838 0.350542 0)
(0.610497 0.361199 0)
(0.600649 0.369073 0)
(0.588189 0.368731 0)
(0.570402 0.365151 0)
(0.547546 0.364389 0)
(0.526177 0.366962 0)
(0.508541 0.375662 0)
(0.492754 0.386672 0)
(0.476487 0.395312 0)
(0.460033 0.401201 0)
(0.443878 0.404245 0)
(0.43053 0.408664 0)
(0.419593 0.415238 0)
(0.406655 0.421726 0)
(0.388798 0.429227 0)
(0.366736 0.438109 0)
(0.342288 0.447591 0)
(0.318274 0.455479 0)
(0.29586 0.462695 0)
(0.273387 0.47011 0)
(0.249314 0.479931 0)
(0.222491 0.490495 0)
(0.193961 0.502262 0)
(0.164088 0.514716 0)
(0.133425 0.528107 0)
(0.102843 0.541917 0)
(0.0725848 0.551781 0)
(0.0423106 0.553212 0)
(0.0161324 0.560828 0)
(3 2.83521e-18 0)
(3 -3.44514e-17 0)
(3 -2.77085e-16 0)
(3 -3.22945e-16 0)
(3 -2.81386e-16 0)
(3 -2.64248e-16 0)
(3 -3.43363e-16 0)
(3 -2.87152e-16 0)
(3 -4.22324e-16 0)
(3 -6.17049e-16 0)
(3 -4.8152e-16 0)
(3 -4.21177e-16 0)
(3 -1.40499e-15 0)
(3 -1.6808e-15 0)
(3 -1.72112e-15 0)
(3 -8.74801e-16 0)
(3 -2.95993e-16 0)
(3 -2.83989e-16 0)
(3 -3.25343e-16 0)
(3 -3.8151e-16 0)
(3 -3.05189e-16 0)
(3 -5.63809e-16 0)
(3 -7.65833e-16 0)
(3 -1.20698e-15 0)
(3 -9.00768e-16 0)
(3 -6.22932e-16 0)
(3 -8.93299e-17 0)
(3 6.68582e-16 0)
(3 6.91209e-16 0)
(3 6.85346e-16 0)
(3 1.24658e-15 0)
(3 1.41913e-15 0)
(3 9.00157e-16 0)
(3 3.07747e-16 0)
(3 7.62445e-17 0)
(3 1.69556e-16 0)
(3 3.71586e-16 0)
(3 1.06835e-15 0)
(3 1.38969e-15 0)
(3 1.66956e-15 0)
(3 1.76002e-15 0)
(3 1.43667e-15 0)
(3 1.14911e-15 0)
(3 7.85172e-16 0)
(3 7.01238e-16 0)
(3 1.66843e-15 0)
(3 1.86553e-15 0)
(3 2.51054e-15 0)
(3 2.96823e-15 0)
(3 3.0721e-15 0)
(3 2.21498e-15 0)
(3 1.84846e-15 0)
(3 2.40602e-15 0)
(3 2.47093e-15 0)
(3 2.30733e-15 0)
(3 1.43982e-15 0)
(3 1.69528e-14 0)
(3.0007 4.08113e-05 0)
(1.76908 0.385585 0)
(0.803045 0.364099 0)
(0.742077 0.389674 0)
(0.724432 0.399076 0)
(0.703099 0.399001 0)
(0.68717 0.388357 0)
(0.674161 0.376518 0)
(0.66054 0.372754 0)
(0.651152 0.379964 0)
(0.643558 0.393017 0)
(0.632726 0.403031 0)
(0.616084 0.405515 0)
(0.597228 0.403882 0)
(0.571762 0.406704 0)
(0.549875 0.412651 0)
(0.534474 0.42248 0)
(0.521857 0.431881 0)
(0.507831 0.436593 0)
(0.492376 0.44154 0)
(0.475461 0.446596 0)
(0.460205 0.453808 0)
(0.448269 0.462913 0)
(0.436543 0.471203 0)
(0.42088 0.480258 0)
(0.398507 0.489602 0)
(0.372945 0.500983 0)
(0.34607 0.511879 0)
(0.32354 0.523304 0)
(0.302323 0.534263 0)
(0.281195 0.547143 0)
(0.254446 0.561683 0)
(0.221267 0.578232 0)
(0.184612 0.597353 0)
(0.148781 0.618449 0)
(0.116162 0.640925 0)
(0.0849659 0.657878 0)
(0.0534454 0.661891 0)
(0.0187785 0.668886 0)
(3 5.06682e-17 0)
(3 2.12803e-18 0)
(3 1.25021e-16 0)
(3 3.75532e-16 0)
(3 4.87269e-16 0)
(3 3.06338e-16 0)
(3 3.34838e-16 0)
(3 5.20158e-16 0)
(3 2.89286e-16 0)
(3 2.86399e-16 0)
(3 3.66477e-16 0)
(3 5.7577e-16 0)
(3 7.65225e-16 0)
(3 1.05659e-15 0)
(3 7.61942e-16 0)
(3 5.28179e-16 0)
(3 1.55681e-15 0)
(3 1.7469e-15 0)
(3 6.46988e-16 0)
(3 3.04029e-16 0)
(3 -4.15184e-18 0)
(3 -1.23358e-16 0)
(3 -8.04373e-17 0)
(3 2.04676e-16 0)
(3 1.26309e-15 0)
(3 1.46855e-15 0)
(3 1.52516e-15 0)
(3 1.71588e-15 0)
(3 1.49266e-15 0)
(3 1.58257e-15 0)
(3 9.27177e-16 0)
(3 6.47017e-16 0)
(3 8.1552e-16 0)
(3 1.01368e-15 0)
(3 1.06389e-15 0)
(3 1.97298e-15 0)
(3 2.17486e-15 0)
(3 2.05859e-15 0)
(3 1.52548e-15 0)
(3 1.24979e-15 0)
(3 1.07353e-15 0)
(3 1.18506e-15 0)
(3 1.66064e-15 0)
(3 1.2796e-15 0)
(3 1.38485e-15 0)
(3 2.38832e-15 0)
(3 2.31299e-15 0)
(3 1.57611e-15 0)
(3 1.31676e-15 0)
(3 7.248e-16 0)
(3 2.50767e-16 0)
(3 1.65844e-16 0)
(3 7.16699e-16 0)
(3 4.96054e-16 0)
(3 1.51526e-17 0)
(3 -3.15405e-17 0)
(3 6.97693e-17 0)
(3 1.29653e-07 0)
(2.86347 0.120542 0)
(1.03813 0.425765 0)
(0.773792 0.417154 0)
(0.762471 0.418361 0)
(0.7448 0.417307 0)
(0.727333 0.411143 0)
(0.709595 0.4074 0)
(0.691382 0.410048 0)
(0.676261 0.422138 0)
(0.66249 0.438991 0)
(0.648318 0.450012 0)
(0.632736 0.452026 0)
(0.61801 0.448955 0)
(0.600058 0.450934 0)
(0.58318 0.455514 0)
(0.570315 0.463084 0)
(0.560055 0.471549 0)
(0.546604 0.476684 0)
(0.530491 0.484778 0)
(0.51195 0.494782 0)
(0.494166 0.505536 0)
(0.480201 0.516878 0)
(0.469658 0.525323 0)
(0.457876 0.534005 0)
(0.438684 0.543881 0)
(0.41491 0.557078 0)
(0.389022 0.571961 0)
(0.366373 0.589132 0)
(0.346491 0.606253 0)
(0.329052 0.623987 0)
(0.306396 0.643327 0)
(0.275871 0.664914 0)
(0.241185 0.689382 0)
(0.207791 0.714767 0)
(0.178137 0.742765 0)
(0.144933 0.774651 0)
(0.0987585 0.802523 0)
(0.0382783 0.825161 0)
(3 1.77795e-17 0)
(3 1.01018e-16 0)
(3 2.22523e-16 0)
(3 3.99865e-16 0)
(3 4.21817e-16 0)
(3 -8.23073e-17 0)
(3 -7.49948e-17 0)
(3 -1.29554e-16 0)
(3 -1.29189e-16 0)
(3 -1.80231e-16 0)
(3 -3.0863e-16 0)
(3 3.11032e-16 0)
(3 1.58201e-15 0)
(3 1.62195e-15 0)
(3 1.42524e-15 0)
(3 1.32408e-15 0)
(3 7.77854e-16 0)
(3 3.55866e-16 0)
(3 8.31047e-16 0)
(3 1.32588e-15 0)
(3 1.35326e-15 0)
(3 1.40625e-15 0)
(3 1.63932e-15 0)
(3 2.37208e-15 0)
(3 2.42499e-15 0)
(3 2.30078e-15 0)
(3 1.94153e-15 0)
(3 1.52722e-15 0)
(3 1.25985e-15 0)
(3 9.8495e-16 0)
(3 1.74348e-15 0)
(3 1.90975e-15 0)
(3 2.32342e-15 0)
(3 2.23037e-15 0)
(3 2.2134e-15 0)
(3 1.75979e-15 0)
(3 1.5333e-15 0)
(3 1.44187e-15 0)
(3 1.27225e-15 0)
(3 7.83895e-16 0)