/*--------------------------------*- C++ -*----------------------------------*\
  =========                 |
  \\      /  F ield         | OpenFOAM: The Open Source CFD Toolbox
   \\    /   O peration     | Website:  https://openfoam.org
    \\  /    A nd           | Version:  7
     \\/     M anipulation  |
\*---------------------------------------------------------------------------*/
FoamFile
{
    version     2.0;
    format      ascii;
    class       volScalarField;
    location    "14";
    object      p;
}
// * * * * * * * * * * * * * * * * * * * * * * * * * * * * * * * * * * * * * //

dimensions      [0 2 -2 0 0 0 0];

internalField   nonuniform List<scalar> 
16000
(
8.3612177e-07
-0.00014164564
-0.00045320673
-0.00085509136
-0.0012727214
-0.0016607505
-0.0019883425
-0.0022367
-0.0023952017
-0.0024581459
-0.0024226134
-0.0022871554
-0.0020512117
-0.0017150385
-0.0012799992
-0.00074910299
-0.00012765857
0.00057607265
0.0013503224
0.0021794518
0.0030438551
0.0039202013
0.0047820408
0.0056008144
0.0063472243
0.0069929146
0.0075123514
0.0078847603
0.008095956
0.0081398956
0.0080197965
0.0077487254
0.0073496376
0.0068549356
0.0063054397
0.0057486049
0.0052394239
0.0048341101
0.0045943346
0.0045554828
0.00014301813
-2.0958587e-06
-0.00025197432
-0.0005604686
-0.00088218751
-0.0011828574
-0.0014382507
-0.0016322165
-0.0017544159
-0.0017984092
-0.0017602754
-0.0016376646
-0.001429333
-0.0011350593
-0.00075584053
-0.00029428443
0.00024490066
0.00085440797
0.0015239098
0.0022397824
0.0029850399
0.0037396756
0.0044810107
0.00518472
0.0058259781
0.0063809065
0.0068281927
0.0071507445
0.0073372348
0.0073833865
0.0072928598
0.0070776451
0.0067579195
0.0063614018
0.0059222626
0.0054794763
0.0050741923
0.0047497728
0.0045513323
0.0045158044
0.00046084136
0.00024317765
-1.2365726e-05
-0.00029104129
-0.00057084207
-0.00082729269
-0.0010426148
-0.001204766
-0.0013055548
-0.0013394669
-0.0013028025
-0.0011930413
-0.0010085538
-0.00074859548
-0.00041351926
-5.1463135e-06
0.00047278372
0.0010141551
0.0016100804
0.0022486374
0.0029148352
0.0035907366
0.0042560012
0.0048886559
0.0054661871
0.0059668876
0.0063713663
0.0066640954
0.0068348519
0.0068798993
0.0068027662
0.0066145217
0.0063334949
0.0059844574
0.0055973517
0.0052055876
0.0048437525
0.0045460734
0.0043488162
0.0042814709
0.00088180409
0.00055090879
0.0002505766
-3.4808464e-05
-0.00030496476
-0.00054363953
-0.00073926663
-0.00088464212
-0.00097470055
-0.00100575
-0.00097499508
-0.00088016134
-0.00071938812
-0.0004913487
-0.00019554266
0.00016728188
0.00059463974
0.0010818166
0.0016214369
0.0022031599
0.0028135681
0.0034362305
0.0040522046
0.0046407228
0.0051802445
0.0056497766
0.0060303719
0.0063066803
0.006468401
0.0065114659
0.0064387988
0.0062605326
0.0059936319
0.0056609325
0.0052896789
0.0049097177
0.0045516929
0.0042455222
0.0040176897
0.0038821763
0.0013318297
0.00087271045
0.0005100095
0.00020014086
-7.710032e-05
-0.00031267982
-0.00050090725
-0.00063952541
-0.00072687874
-0.00076140053
-0.00074144323
-0.00066511795
-0.00053035324
-0.00033515207
-7.7992886e-05
0.00024166228
0.00062280178
0.0010622944
0.0015543783
0.0020902695
0.0026579532
0.0032422173
0.0038250078
0.0043861035
0.00490414
0.0053579381
0.005728045
0.0059983542
0.0061576382
0.0062008095
0.0061297282
0.0059534184
0.0056876349
0.0053537899
0.004977309
0.004585696
0.0042071782
0.0038689227
0.0035864666
0.0033628328
0.0017579049
0.0011655108
0.00073140104
0.00038585198
8.9790606e-05
-0.00015400091
-0.00034519004
-0.00048622678
-0.00057879929
-0.00062347925
-0.00061978808
-0.00056621257
-0.00046040986
-0.00029959664
-8.10689e-05
0.00019718262
0.00053580284
0.00093339598
0.001385905
0.0018861062
0.0024232861
0.0029831864
0.0035482547
0.0040982818
0.0046114059
0.0050654734
0.0054396606
0.0057162144
0.0058821298
0.0059305578
0.0058617372
0.0056832842
0.005409765
0.0050615577
0.0046630489
0.0042405692
0.003821495
0.0034323094
0.003079974
0.0027526883
0.0021148816
0.0013908183
0.00088188377
0.00049420861
0.00017147898
-8.8969568e-05
-0.00029162151
-0.00044324807
-0.00054862541
-0.00061029233
-0.00062880745
-0.00060290933
-0.00052984896
-0.00040590235
-0.00022700912
1.0497144e-05
0.00030910148
0.00066930658
0.0010888813
0.0015622189
0.0020798785
0.0026284129
0.0031905037
0.0037455454
0.004270625
0.0047419201
0.0051364237
0.005433845
0.0056184923
0.0056809046
0.0056189957
0.005438509
0.005152681
0.0047811002
0.0043477797
0.0038789664
0.0034026928
0.0029465894
0.0025106648
0.0020694387
0.0023642605
0.0015139382
0.00093061142
0.00049804945
0.00014404945
-0.00013893562
-0.00035973604
-0.00052902129
-0.00065431249
-0.00073983882
-0.00078696395
-0.00079447348
-0.00075901949
-0.00067574545
-0.00053903666
-0.00034336369
-8.4191243e-05
0.00024108754
0.00063225516
0.0010854731
0.0015926637
0.0021411999
0.0027138856
0.003289467
0.0038435609
0.0043500802
0.0047830656
0.0051187763
0.0053378331
0.0054271573
0.0053814311
0.0052038345
0.0049059131
0.004506523
0.0040298226
0.0035029544
0.0029560247
0.0024195626
0.0018885359
0.001326366
0.0024722961
0.0015032369
0.00084833655
0.00037054172
-1.7130828e-05
-0.00032673811
-0.00057107413
-0.00076430253
-0.00091632605
-0.0010327467
-0.0011154546
-0.0011630355
-0.0011713151
-0.0011340844
-0.0010439498
-0.00089328206
-0.00067524119
-0.0003848453
-2.0018393e-05
0.0004174409
0.00092105618
0.0014792037
0.0020748752
0.0026860908
0.0032867237
0.0038479222
0.0043400353
0.0047349078
0.0050083375
0.0051424117
0.0051274087
0.0049629625
0.004658282
0.0042313044
0.0037066711
0.0031132779
0.002484645
0.0018559013
0.0012184403
0.00052540229
0.002408572
0.001329681
0.00060753973
8.5682403e-05
-0.00033667745
-0.00067585833
-0.0009483127
-0.0011713352
-0.0013568656
-0.0015115648
-0.0016375662
-0.0017329993
-0.0017926258
-0.00180865
-0.0017716546
-0.001671639
-0.0014991506
-0.0012464817
-0.00090887255
-0.00048566902
1.8661506e-05
0.0005939125
0.0012235096
0.0018848791
0.0025500553
0.0031870426
0.0037617999
0.004240737
0.0045935287
0.0047959484
0.0048323586
0.0046974858
0.0043971821
0.0039479519
0.0033750103
0.0027097117
0.001990268
0.0012580914
0.00050213834
-0.0003344343
0.0021453666
0.00096668177
0.00018266408
-0.00038113997
-0.00083836928
-0.0012094255
-0.0015141704
-0.0017727118
-0.0019987197
-0.0021996314
-0.0023775651
-0.0025299565
-0.0026502769
-0.002728913
-0.0027541682
-0.0027133707
-0.0025940936
-0.0023854678
-0.0020795398
-0.0016726287
-0.0011665921
-0.00056953273
0.00010285995
0.00082781483
0.0015756637
0.0023110632
0.0029949699
0.0035873077
0.0040501643
0.004351218
0.0044669863
0.004385439
0.0041075523
0.0036474362
0.0030306228
0.0022914152
0.0014739317
0.00062758037
-0.00026029381
-0.0012567792
0.0016575219
0.00039015573
-0.00044961215
-0.0010526701
-0.0015444982
-0.0019494311
-0.0022905256
-0.0025904259
-0.0028642729
-0.0031200459
-0.0033596358
-0.0035795886
-0.0037718922
-0.0039249061
-0.0040244042
-0.0040547282
-0.0040000703
-0.0038458862
-0.0035803969
-0.0031961186
-0.0026913506
-0.0020717137
-0.0013507028
-0.0005507028
0.00029732385
0.0011547378
0.0019770502
0.0027166853
0.0033265508
0.0037641367
0.0039957044
0.0040000073
0.0037709684
0.003318724
0.0026683729
0.0018573444
0.00093679055
-3.4092816e-05
-0.0010689937
-0.0022460362
0.00092266366
-0.00042121116
-0.0013100004
-0.0019492744
-0.0024752219
-0.0029159553
-0.0032975318
-0.0036448912
-0.0039744361
-0.0042945136
-0.0046066379
-0.0049063291
-0.0051839521
-0.0054256722
-0.0056145105
-0.0057315107
-0.0057570546
-0.0056723465
-0.005461043
-0.005110976
-0.0046159201
-0.0039775161
-0.0032062466
-0.0023229617
-0.00135907
-0.00035608362
0.00063591319
0.0015609876
0.0023612349
0.0029815893
0.0033751255
0.0035081973
0.0033646518
0.002948234
0.0022821538
0.0014066735
0.00038095279
-0.00072411473
-0.0019228182
-0.0033055302
-7.8371383e-05
-0.0014855649
-0.0024161528
-0.0030883936
-0.0036478962
-0.0041263711
-0.0045526896
-0.0049538786
-0.0053474482
-0.0057420072
-0.006138618
-0.0065317148
-0.006909972
-0.0072572575
-0.0075536671
-0.0077766671
-0.0079024043
-0.0079072262
-0.00776941
-0.0074710789
-0.0070002661
-0.0063530998
-0.0055356303
-0.0045656481
-0.0034736873
-0.0023032107
-0.0011095916
4.2355417e-05
0.0010824034
0.0019403987
0.0025528043
0.0028695825
0.0028604452
0.0025192175
0.0018647691
0.00093919459
-0.00018965337
-0.001437159
-0.0028178276
-0.0044357824
-0.0013610017
-0.0028174228
-0.0037821889
-0.0044839971
-0.0050764207
-0.0055945554
-0.0060699048
-0.0065314083
-0.006997589
-0.0074772866
-0.0079711225
-0.0084724734
-0.0089683451
-0.0094402891
-0.0098653793
-0.010217288
-0.010467548
-0.010587058
-0.010547879
-0.010325306
-0.0099002183
-0.0092616348
-0.0084092376
-0.0073558096
-0.0061291374
-0.0047730763
-0.0033473355
-0.0019255704
-0.00059147227
0.00056723307
0.0014666025
0.0020353954
0.0022239282
0.0020111657
0.0014078149
0.00045574124
-0.0007683471
-0.0021640452
-0.0037456606
-0.0056327167
-0.0029363362
-0.0044272148
-0.0054182473
-0.0061460798
-0.0067706342
-0.0073301444
-0.0078585736
-0.0083866414
-0.008933856
-0.0095093422
-0.010113385
-0.010738432
-0.011369945
-0.011987241
-0.012564376
-0.013071109
-0.01347406
-0.013738161
-0.013828455
-0.013712289
-0.013361906
-0.012757402
-0.011889912
-0.010764815
-0.009404674
-0.007851436
-0.0061673541
-0.0044340442
-0.0027491057
-0.0012199391
4.5210682e-05
0.00094839247
0.0014139834
0.0013994429
0.0009016747
-4.1289852e-05
-0.001344629
-0.0028902201
-0.0046917032
-0.0068856554
-0.0048106611
-0.0063208983
-0.0073301286
-0.0080802575
-0.0087358101
-0.0093378824
-0.0099227476
-0.010522829
-0.011158673
-0.011839839
-0.012566484
-0.013330363
-0.014115624
-0.014899552
-0.015653305
-0.016342727
-0.016929359
-0.017371768
-0.017627293
-0.017654294
-0.017414929
-0.016878487
-0.016025208
-0.014850313
-0.013368104
-0.011615532
-0.0096546098
-0.0075729196
-0.0054813247
-0.003508159
-0.0017895197
-0.00045595216
0.00038323902
0.00065544437
0.0003358255
-0.00054718957
-0.0019028792
-0.0035939586
-0.0056329367
-0.0081749704
-0.0069850552
-0.0084997191
-0.0095190953
-0.010287526
-0.010972314
-0.011617126
-0.012260442
-0.012936393
-0.013666719
-0.014461673
-0.015321603
-0.01623792
-0.017193808
-0.01816483
-0.019119497
-0.02001988
-0.020822425
-0.021479107
-0.021939059
-0.022150794
-0.022065101
-0.021638672
-0.02083846
-0.019646609
-0.018065683
-0.016123821
-0.013878966
-0.011421339
-0.0088729386
-0.0063828913
-0.0041177177
-0.0022462401
-0.00092003815
-0.00025229287
-0.0003002573
-0.0010537695
-0.0024206811
-0.0042441607
-0.0065353353
-0.0094692432
-0.0094552065
-0.010960188
-0.0119819
-0.012764255
-0.013475491
-0.014161575
-0.014863161
-0.01561622
-0.016443972
-0.017357752
-0.018358545
-0.019437876
-0.020578419
-0.021754444
-0.022932181
-0.024070207
-0.02512003
-0.026027007
-0.026731803
-0.027172496
-0.027287502
-0.027019376
-0.0263196
-0.025154363
-0.023510812
-0.021403928
-0.018882802
-0.016035551
-0.012991383
-0.0099181084
-0.0070134781
-0.0044892195
-0.0025479259
-0.0013554836
-0.0010152086
-0.0015475228
-0.0028665944
-0.0047975981
-0.0073506698
-0.01072178
-0.012211499
-0.013694347
-0.014711114
-0.015502476
-0.016235851
-0.016959281
-0.01771571
-0.01854325
-0.019467071
-0.020500142
-0.02164466
-0.022892842
-0.024227399
-0.02562182
-0.02704052
-0.028438985
-0.029764089
-0.03095476
-0.03194319
-0.032656771
-0.033020927
-0.032962943
-0.032417008
-0.031331029
-0.029672981
-0.027440183
-0.024667422
-0.021434709
-0.01787262
-0.014163114
-0.010533395
-0.0072405801
-0.0045460515
-0.0026813764
-0.0018124184
-0.0020067886
-0.003197163
-0.0051954477
-0.0080125684
-0.011866336
-0.015239435
-0.016690396
-0.017695814
-0.018490534
-0.019239591
-0.019993
-0.020796328
-0.021690402
-0.022703057
-0.02384965
-0.025134325
-0.026550666
-0.028082047
-0.029701744
-0.031372874
-0.033048306
-0.034670704
-0.036172922
-0.037478935
-0.038505533
-0.039164968
-0.039368666
-0.039032263
-0.038083932
-0.036468928
-0.034162728
-0.0311802
-0.027586373
-0.023505637
-0.019126958
-0.014701963
-0.010532328
-0.0069435575
-0.0042453509
-0.0026846959
-0.0023975389
-0.0033529039
-0.005358927
-0.0084316778
-0.012811902
-0.018520452
-0.019933755
-0.020922726
-0.021714155
-0.0224695
-0.02324088
-0.024077166
-0.025022864
-0.026109531
-0.027355928
-0.028769052
-0.030344637
-0.032067378
-0.033910908
-0.035837561
-0.037798065
-0.039731339
-0.041564625
-0.04321413
-0.044586431
-0.045580867
-0.046093211
-0.04602084
-0.045268041
-0.043758154
-0.041440616
-0.038304983
-0.034394216
-0.029817816
-0.024762277
-0.019495075
-0.014357306
-0.0097398293
-0.0060404752
-0.003606486
-0.0026673895
-0.0032529958
-0.0051838317
-0.0084897603
-0.013436427
-0.022033198
-0.02340864
-0.024377861
-0.02515797
-0.025906264
-0.026677493
-0.027525072
-0.028498708
-0.029635208
-0.030958082
-0.032478282
-0.034194549
-0.036093559
-0.038149811
-0.040325277
-0.042568932
-0.044816367
-0.046989668
-0.04899781
-0.050737762
-0.052096573
-0.052954725
-0.053190947
-0.052688368
-0.051344555
-0.049081163
-0.045858457
-0.041690901
-0.036664192
-0.030951332
-0.024823864
-0.018652366
-0.012888716
-0.0080241208
-0.0045233798
-0.0027374884
-0.0027883917
-0.0045337678
-0.0080325571
-0.013579346
-0.025755345
-0.027100286
-0.028048773
-0.028807539
-0.029530126
-0.030275138
-0.031102601
-0.032069756
-0.033220801
-0.034585743
-0.036180797
-0.038008616
-0.040058439
-0.042305994
-0.044713125
-0.04722726
-0.049780892
-0.0522913
-0.054660713
-0.056777152
-0.058516211
-0.059744029
-0.060321692
-0.06011134
-0.058985636
-0.056837271
-0.053594665
-0.049238859
-0.043823756
-0.03749758
-0.030522019
-0.023282761
-0.016281934
-0.010102436
-0.0053390479
-0.0024921024
-0.001813115
-0.0032318625
-0.0068612213
-0.013032797
-0.029666076
-0.030997975
-0.031927553
-0.032651925
-0.0333229
-0.034005312
-0.034769122
-0.035682545
-0.036800095
-0.038160487
-0.039786681
-0.04168612
-0.043851019
-0.04625844
-0.048870042
-0.051631591
-0.054472439
-0.057305142
-0.060025481
-0.062513077
-0.064632897
-0.066237844
-0.067172744
-0.067280035
-0.066408481
-0.064422693
-0.061218477
-0.056740627
-0.051005311
-0.044125968
-0.036340101
-0.028031072
-0.01973434
-0.012114385
-0.005900348
-0.0017659999
-0.0001335706
-0.001050716
-0.0047220515
-0.011531316
-0.033749507
-0.03509922
-0.0360148
-0.036686881
-0.037270233
-0.037840202
-0.038481836
-0.03927923
-0.040301083
-0.041597471
-0.043199679
-0.045120651
-0.047355677
-0.049882866
-0.052663201
-0.055640263
-0.058739803
-0.061869381
-0.064918304
-0.067758061
-0.070243627
-0.072215692
-0.073504291
-0.073934109
-0.073330847
-0.071533802
-0.06840703
-0.063858594
-0.057863793
-0.050494007
-0.041949884
-0.03259425
-0.022974458
-0.013817968
-0.0059821387
-0.00033018804
0.0025041658
0.002299698
-0.0012940952
-0.0087396549
-0.037999563
-0.039415651
-0.040324939
-0.040918775
-0.04136407
-0.041754016
-0.042196495
-0.042798242
-0.043646995
-0.044807179
-0.046319852
-0.048203782
-0.050456915
-0.053057546
-0.055964941
-0.059119431
-0.062442224
-0.065835156
-0.069180612
-0.072341829
-0.075164074
-0.077476536
-0.07909553
-0.079829235
-0.079484064
-0.077874751
-0.074836343
-0.070241946
-0.064025854
-0.056213769
-0.046960362
-0.036591662
-0.025643854
-0.014882012
-0.0052741908
0.0021228748
0.0064288858
0.0071865757
0.0038261365
-0.0042379242
-0.042427306
-0.043981629
-0.044893541
-0.045369452
-0.045605197
-0.045723931
-0.045867629
-0.046174542
-0.046757155
-0.047697202
-0.049046443
-0.050829052
-0.053044397
-0.055669339
-0.058659684
-0.061950837
-0.065457978
-0.069075985
-0.072679453
-0.076122778
-0.079241374
-0.081853169
-0.083761482
-0.084759277
-0.084635173
-0.083182109
-0.080208952
-0.075556847
-0.069121396
-0.060882721
-0.050945021
-0.039585628
-0.027308362
-0.0148872
-0.0033734403
0.0059926605
0.012060201
0.014071895
0.011144228
0.0024976431
-0.047072725
-0.048867377
-0.049787655
-0.050082329
-0.050005775
-0.049730457
-0.049448097
-0.049339426
-0.049547673
-0.050174115
-0.05128098
-0.052896177
-0.055018106
-0.05761957
-0.060650373
-0.064038655
-0.067691519
-0.071495153
-0.075315493
-0.078996393
-0.082363235
-0.085222369
-0.087364209
-0.088567118
-0.088603123
-0.087245018
-0.08427821
-0.079515205
-0.072816517
-0.064119544
-0.053477963
-0.041114105
-0.027483107
-0.013340023
0.00021432953
0.011779573
0.019924979
0.023534076
0.021294236
0.012121972
-0.052024879
-0.054199784
-0.055120803
-0.055130121
-0.054591705
-0.053756954
-0.052887871
-0.052219916
-0.051932112
-0.052145578
-0.052930671
-0.054315447
-0.056293388
-0.0588294
-0.061864008
-0.065314867
-0.069078582
-0.073030349
-0.077027875
-0.080899778
-0.084462488
-0.087509824
-0.089818748
-0.091152862
-0.091268678
-0.089918399
-0.086866061
-0.081898183
-0.074843539
-0.065600623
-0.054175364
-0.040733748
-0.025672069
-0.0097030675
0.0060582751
0.020084888
0.030672186
0.036294986
0.03507634
0.025464193
-0.057458172
-0.060196299
-0.061074929
-0.060624506
-0.059404405
-0.057787954
-0.056131911
-0.054737804
-0.053822252
-0.05352274
-0.053912031
-0.055012096
-0.056805593
-0.059244284
-0.062255856
-0.065742846
-0.069589583
-0.073658553
-0.077792276
-0.081811275
-0.085516819
-0.08868985
-0.091093465
-0.092475993
-0.092575873
-0.091127729
-0.087872992
-0.082572661
-0.075025633
-0.065094155
-0.052739205
-0.038071337
-0.021422444
-0.0034450007
0.014765499
0.03159451
0.045081811
0.053253333
0.053512679
0.04360173
-0.063700353
-0.067221173
-0.067932268
-0.066727345
-0.064500862
-0.061805349
-0.059116597
-0.056808019
-0.055128633
-0.054222503
-0.054154199
-0.054930019
-0.056513775
-0.058837865
-0.061810367
-0.065317837
-0.069227639
-0.073387465
-0.077625282
-0.081748683
-0.085544829
-0.088780692
-0.09120451
-0.092548372
-0.092532475
-0.090871386
-0.087283178
-0.081502286
-0.073296576
-0.062491267
-0.049002114
-0.032882773
-0.014394919
0.0058856784
0.026915338
0.047036294
0.064059614
0.075523479
0.077930969
0.067995058
-0.071364643
-0.075879244
-0.076119654
-0.073661196
-0.069949012
-0.065780033
-0.061762831
-0.058334707
-0.055759362
-0.054168142
-0.05360041
-0.054033451
-0.055401268
-0.057609777
-0.060542755
-0.064065815
-0.068027515
-0.072258934
-0.076572754
-0.080762103
-0.084599891
-0.087838579
-0.090210965
-0.091432202
-0.091203444
-0.089217466
-0.08516681
-0.078756457
-0.069719013
-0.057837277
-0.042974841
-0.025120198
-0.004453083
0.018555339
0.042950062
0.06709094
0.088597675
0.10447084
0.11009207
0.10074621
-0.081618117
-0.087169948
-0.086260052
-0.081708072
-0.075808702
-0.069651107
-0.063959219
-0.059199316
-0.055612129
-0.053283952
-0.052204293
-0.052302716
-0.053472413
-0.055583892
-0.058491751
-0.062037325
-0.066048725
-0.07033946
-0.074706578
-0.078928754
-0.082764863
-0.0859531
-0.08821106
-0.089237019
-0.088712809
-0.086308381
-0.081688359
-0.074524561
-0.064507706
-0.051368122
-0.034902743
-0.015013995
0.0082303383
0.034495858
0.062993815
0.092206928
0.11964202
0.14170564
0.15238766
0.14510635
-0.096749913
-0.10272944
-0.099190825
-0.091150411
-0.082060349
-0.073261865
-0.065510127
-0.059220195
-0.054543076
-0.051470805
-0.049909093
-0.049718591
-0.050737619
-0.052793767
-0.055708323
-0.059296515
-0.063365566
-0.067711783
-0.072117445
-0.076347929
-0.080149403
-0.083247211
-0.085345169
-0.086125991
-0.085253269
-0.082374356
-0.077125025
-0.069140577
-0.058062755
-0.04355658
-0.025331138
-0.0031700018
0.023019873
0.053118817
0.086610361
0.12226037
0.15775916
0.18893112
0.20807775
0.20630638
-0.12133314
-0.12518154
-0.11586892
-0.10207956
-0.088418663
-0.076202407
-0.066011862
-0.05805919
-0.052297861
-0.048555141
-0.046610593
-0.046231726
-0.0471895
-0.049263219
-0.052239429
-0.05590798
-0.060057048
-0.064468084
-0.068911183
-0.073141109
-0.076894104
-0.079885526
-0.081808347
-0.082332681
-0.081106872
-0.077757372
-0.071893893
-0.063113553
-0.051004459
-0.035154786
-0.01516256
0.0093489472
0.038702751
0.073105268
0.1124945
0.15623727
0.20260621
0.24749941
0.28127779
0.2923326
-0.16445384
-0.15842989
-0.13714695
-0.11415874
-0.09411179
-0.077638585
-0.064747267
-0.055171968
-0.048499559
-0.044299444
-0.042177932
-0.041788899
-0.042829841
-0.045032795
-0.048153693
-0.051962179
-0.056232652
-0.060736716
-0.065236957
-0.069481929
-0.073202229
-0.076107516
-0.077884415
-0.078195496
-0.076679516
-0.072941441
-0.066576292
-0.057144254
-0.044180927
-0.027193577
-0.0056534004
0.021014452
0.053441047
0.092306606
0.13827009
0.1918003
0.25264159
0.31748563
0.37624326
0.41534495
-0.24629279
-0.20631673
-0.16213055
-0.12553202
-0.097150135
-0.075887642
-0.060499063
-0.049764637
-0.042671996
-0.038446173
-0.036497487
-0.03636893
-0.037696805
-0.040180319
-0.043558202
-0.0475913
-0.052049667
-0.056702873
-0.061312613
-0.065627028
-0.069376337
-0.072269557
-0.073992159
-0.074205431
-0.07254768
-0.068599316
-0.061960193
-0.052159244
-0.038691066
-0.020993805
0.0015794747
0.029805565
0.064663961
0.10744044
0.15984533
0.22415137
0.30287879
0.39550568
0.49621718
0.60318569
-0.42543806
-0.26572887
-0.17722174
-0.1246394
-0.089123538
-0.065112813
-0.049336221
-0.039198645
-0.032996656
-0.029685417
-0.02857937
-0.029191918
-0.03115796
-0.03418676
-0.03803023
-0.042461991
-0.047263387
-0.052213671
-0.057082829
-0.061626178
-0.065580263
-0.068659682
-0.070554366
-0.07092616
-0.069397255
-0.065622987
-0.059130049
-0.049455254
-0.036081888
-0.0184148
0.0042562065
0.032828638
0.068521235
0.11311851
0.16941159
0.24199124
0.33803965
0.46588921
0.64302798
0.92083545
-0.79331087
-0.32443985
-0.14899675
-0.087727925
-0.055352135
-0.036009358
-0.025104025
-0.019214862
-0.016369405
-0.015631666
-0.016504426
-0.018660846
-0.021855935
-0.025886933
-0.03056953
-0.035723729
-0.041165212
-0.046699391
-0.052116857
-0.057189744
-0.061668778
-0.065280911
-0.06772765
-0.06868533
-0.067812321
-0.064699655
-0.058937942
-0.050073346
-0.037599045
-0.020937394
0.00059622797
0.027863207
0.062037824
0.10489004
0.15942631
0.23150193
0.33382484
0.49406535
0.78998942
1.3837513
1.2571682e-06
-0.00014148288
-0.00045328991
-0.00085530494
-0.0012730689
-0.0016611995
-0.0019888647
-0.0022372739
-0.0023958076
-0.0024587734
-0.0024232514
-0.0022877947
-0.0020518446
-0.0017156555
-0.0012805889
-0.00074965338
-0.00012815784
0.00057563642
0.0013499612
0.0021791767
0.0030436757
0.0039201246
0.0047820697
0.0056009472
0.0063474545
0.0069932309
0.0075127372
0.007885194
0.0080964134
0.0081403511
0.0080202234
0.007749096
0.0073499248
0.0068551146
0.0063054944
0.0057485449
0.0052392419
0.0048337932
0.004593882
0.0045552706
0.00014308537
-2.053175e-06
-0.00025188983
-0.00056030261
-0.00088193484
-0.0011825215
-0.0014378465
-0.0016317637
-0.0017539291
-0.0017979079
-0.0017597776
-0.0016371864
-0.0014288899
-0.0011346652
-0.0007555077
-0.00029402475
0.00024507518
0.00085448597
0.0015238818
0.0022396413
0.0029847819
0.0037392982
0.004480516
0.0051841136
0.0058252693
0.0063801098
0.0068273276
0.0071498337
0.0073363038
0.0073824631
0.0072919722
0.0070768198
0.00675718
0.0063607669
0.0059217434
0.0054790769
0.0050739191
0.0047495489
0.0045510732
0.0045157986
0.00046097318
0.00024308858
-1.2381631e-05
-0.00029106655
-0.00057090202
-0.00082736539
-0.0010426921
-0.0012048485
-0.00130564
-0.0013395577
-0.0013029011
-0.0011931499
-0.0010086746
-0.00074872962
-0.00041366688
-5.3068987e-06
0.0004726107
0.0010139705
0.0016098857
0.0022484348
0.002914627
0.0035905252
0.0042557887
0.0048884434
0.0054659751
0.0059666768
0.0063711577
0.0066638892
0.0068346478
0.0068796963
0.0068025632
0.0066143168
0.0063332857
0.0059842427
0.0055971321
0.005205367
0.0048435362
0.0045458329
0.004348511
0.0042813224
0.00088201234
0.00055067196
0.00025054162
-3.4844096e-05
-0.00030507004
-0.00054377245
-0.0007394135
-0.00088480236
-0.0009748701
-0.0010059293
-0.00097518414
-0.00088035968
-0.00071959547
-0.00049156397
-0.00019576381
0.00016705733
0.00059441416
0.0010815929
0.0016212185
0.0022029497
0.0028133689
0.0034360456
0.0040520365
0.0046405719
0.0051801104
0.0056496578
0.0060302662
0.0063065849
0.0064683118
0.0065113777
0.0064387052
0.0062604272
0.0059935077
0.0056607833
0.0052895027
0.0049095187
0.0045514738
0.0042452791
0.0040174253
0.0038819192
0.001332155
0.00087231865
0.00050998346
0.00020016185
-7.7149564e-05
-0.00031274042
-0.00050096676
-0.00063959019
-0.00072694864
-0.00076147837
-0.00074153119
-0.0006652172
-0.00053046505
-0.0003352774
-7.8131899e-05
0.00024151007
0.00062263671
0.0010621174
0.0015541908
0.0020900728
0.0026577487
0.0032420073
0.0038247945
0.0043858882
0.0049039245
0.005357724
0.0057278331
0.0059981446
0.0061574308
0.0062006039
0.0061295236
0.005953214
0.0056874283
0.0053535769
0.0049770867
0.0045854625
0.0042069259
0.0038686866
0.0035863398
0.0033624984
0.0017583529
0.0011649649
0.00073136987
0.00038589897
8.9750852e-05
-0.00015405
-0.0003452338
-0.0004862757
-0.00057885446
-0.00062354278
-0.00061986221
-0.00056629853
-0.00046050874
-0.00029970935
-8.1195784e-05
0.00019704179
0.00053564794
0.00093322758
0.0013857241
0.0018859137
0.0024230832
0.0029829749
0.0035480366
0.0040980581
0.0046111787
0.0050652454
0.0054394343
0.0057159906
0.005881908
0.0059303372
0.0058615171
0.0056830649
0.0054095469
0.0050613399
0.0046628302
0.004240339
0.0038212263
0.0034320683
0.0030799311
0.0027522659
0.002115447
0.0013901278
0.00088184763
0.00049427639
0.00017144019
-8.9019829e-05
-0.00029166544
-0.00044329862
-0.00054868406
-0.00061035996
-0.00062888575
-0.00060299932
-0.00052995145
-0.00040601799
-0.00022713801
1.0355542e-05
0.00030894705
0.00066913968
0.0010887026
0.001562029
0.0020796783
0.0026282044
0.0031902892
0.003745326
0.004270402
0.0047416961
0.0051362017
0.0054336267
0.0056182776
0.005680692
0.0056187833
0.0054382956
0.0051524662
0.0047808852
0.0043475681
0.0038787447
0.0034024138
0.0029463472
0.002510714
0.0020689375
0.0023649395
0.0015131167
0.00093057627
0.00049814261
0.00014401758
-0.00013898041
-0.00035977269
-0.00052906475
-0.00065436482
-0.00073990008
-0.00078703573
-0.00079455685
-0.00075911527
-0.0006758544
-0.00053915886
-0.00034349849
-8.4338837e-05
0.00024092716
0.00063208242
0.001085288
0.0015924666
0.0021409924
0.0027136706
0.0032892463
0.0038433357
0.0043498525
0.0047828383
0.0051185519
0.0053376124
0.0054269396
0.0053812146
0.0052036174
0.0049056938
0.0045063025
0.0040296084
0.0035027335
0.0029557328
0.0024193231
0.0018886847
0.0013257753
0.0024730839
0.0015022952
0.00084830396
0.00037065984
-1.7155308e-05
-0.00032677696
-0.00057110274
-0.00076433733
-0.00091636961
-0.0010327985
-0.0011155165
-0.0011631086
-0.0011714003
-0.0011341824
-0.001044061
-0.00089340583
-0.00067537805
-0.00038499571
-2.0182316e-05
0.00041726317
0.00092086469
0.001478999
0.0020746602
0.0026858682
0.0032864954
0.0038476901
0.004339802
0.0047346761
0.0050081092
0.0051421868
0.0051271862
0.0049627407
0.0046580583
0.0042310789
0.0037064531
0.0031130541
0.0024843363
0.001855663
0.0012186921
0.00052471722
0.0024094639
0.0013286312
0.00060751063
8.5824078e-05
-0.0003366947
-0.0006758914
-0.00094833352
-0.0011713615
-0.0013569006
-0.0015116074
-0.0016376186
-0.0017330627
-0.0017927007
-0.0018087372
-0.0017717544
-0.0016717511
-0.0014992758
-0.0012466212
-0.00090902673
-0.00048583799
1.8478155e-05
0.00059371335
0.0012232972
0.0018846565
0.002549825
0.0031868072
0.003761562
0.0042404995
0.0045932938
0.0047957169
0.0048321304
0.0046972596
0.004396955
0.0039477237
0.003374791
0.0027094851
0.0019899396
0.001257852
0.00050249959
-0.00033522029
0.0021463541
0.00096553529
0.00018263879
-0.0003809764
-0.00083837886
-0.0012094518
-0.0015141822
-0.0017727282
-0.0019987446
-0.0021996633
-0.0023776063
-0.0025300082
-0.0026503396
-0.0027289875
-0.0027542549
-0.0027134693
-0.0025942052
-0.0023855942
-0.0020796822
-0.0016727874
-0.0011667654
-0.00056972487
0.00010265209
0.00082759402
0.0015754327
0.0023108248
0.0029947271
0.0035870636
0.0040499216
0.0043509786
0.0044667512
0.0043852074
0.0041073214
0.0036472059
0.0030304041
0.0022911868
0.0014735814
0.00062733838
-0.00025981265
-0.0012576782
0.0016585946
0.00038892402
-0.00044963313
-0.001052486
-0.0015444995
-0.0019494494
-0.0022905271
-0.0025904311
-0.0028642863
-0.0031200656
-0.0033596642
-0.003579627
-0.0037719406
-0.0039249656
-0.0040244757
-0.0040548116
-0.0040001665
-0.0038459973
-0.003580525
-0.0031962657
-0.0026915185
-0.0020718987
-0.0013509049
-0.0005509202
0.00029709344
0.0011544972
0.0019768028
0.0027164347
0.0033263
0.0037638886
0.003995461
0.0039997691
0.0037707328
0.0033184915
0.0026681563
0.0018571158
0.0009364159
-3.4338232e-05
-0.0010683772
-0.0022470642
0.00092381071
-0.0004225152
-0.0013100161
-0.0019490707
-0.0024752138
-0.0029159644
-0.0032975222
-0.0036448844
-0.0039744372
-0.0042945203
-0.0046066525
-0.004906353
-0.0051839852
-0.0054257154
-0.0056145654
-0.0057315777
-0.0057571348
-0.0056724418
-0.0054611556
-0.0051111087
-0.0046160756
-0.0039776909
-0.0032064408
-0.002323174
-0.0013592979
-0.00035632452
0.00063566278
0.0015607317
0.0023609773
0.0029813336
0.0033748745
0.0035079526
0.0033644117
0.0029479997
0.0022819406
0.0014064463
0.00038055104
-0.000724364
-0.0019220457
-0.0033067068
-7.7161902e-05
-0.001486927
-0.0024161622
-0.0030881715
-0.0036478778
-0.0041263699
-0.0045526681
-0.004953859
-0.0053474362
-0.0057419998
-0.0061386176
-0.0065317229
-0.0069099885
-0.0072572834
-0.0075537043
-0.0077767167
-0.0079024678
-0.0079073053
-0.0077695066
-0.0074711956
-0.0070004051
-0.006353261
-0.0055358136
-0.0045658523
-0.0034739102
-0.0023034496
-0.001109843
4.2095764e-05
0.0010821403
0.0019401367
0.0025525475
0.0028693329
0.0028602015
0.0025189823
0.0018645612
0.00093897064
-0.00019008547
-0.0014374123
-0.0028168736
-0.0044371315
-0.0013597428
-0.0028188275
-0.0037821912
-0.0044837585
-0.0050763917
-0.0055945434
-0.0060698709
-0.0065313753
-0.0069975631
-0.0074772643
-0.0079711061
-0.0084724649
-0.0089683443
-0.0094402973
-0.0098653987
-0.010217321
-0.010467595
-0.010587121
-0.010547959
-0.010325406
-0.0099003408
-0.0092617806
-0.0084094074
-0.0073560028
-0.0061293523
-0.0047733104
-0.0033475854
-0.0019258318
-0.00059173951
0.000566966
0.0014663411
0.0020351429
0.0022236832
0.0020109319
0.0014076149
0.00045552294
-0.0007688132
-0.0021643028
-0.0037444945
-0.0056342671
-0.0029350416
-0.004428646
-0.0054182418
-0.006145827
-0.0067705947
-0.0073301213
-0.0078585272
-0.0083865948
-0.0089338158