/*--------------------------------*- C++ -*----------------------------------*\
  =========                 |
  \\      /  F ield         | OpenFOAM: The Open Source CFD Toolbox
   \\    /   O peration     | Website:  https://openfoam.org
    \\  /    A nd           | Version:  7
     \\/     M anipulation  |
\*---------------------------------------------------------------------------*/
FoamFile
{
    version     2.0;
    format      ascii;
    class       surfaceScalarField;
    location    "14";
    object      phi;
}
// * * * * * * * * * * * * * * * * * * * * * * * * * * * * * * * * * * * * * //

dimensions      [0 3 -1 0 0 0 0];

internalField   nonuniform List<scalar> 
45600
(
2.7795848e-07
-2.7865823e-07
-1.0202266e-11
4.0408458e-07
-1.2614406e-07
-4.3942317e-12
1.3256562e-07
2.7151451e-07
2.2457423e-12
-5.6224468e-07
6.9481478e-07
5.76632e-12
-1.638567e-06
1.076318e-06
9.3806106e-12
-3.0257384e-06
1.3871565e-06
1.2122582e-11
-4.6491053e-06
1.6233515e-06
1.40977e-11
-6.4400295e-06
1.7909086e-06
1.5492856e-11
-8.3384956e-06
1.8984524e-06
1.6357076e-11
-1.0292567e-05
1.9540585e-06
1.6939633e-11
-1.2256549e-05
1.9639652e-06
1.7225373e-11
-1.4188768e-05
1.9322023e-06
1.7259549e-11
-1.6049529e-05
1.8607468e-06
1.7086801e-11
-1.7799535e-05
1.7499945e-06
1.6658521e-11
-1.939895e-05
1.5994022e-06
1.592069e-11
-2.0807166e-05
1.4082027e-06
1.4859189e-11
-2.1983305e-05
1.1761252e-06
1.3479111e-11
-2.2887385e-05
9.0406721e-07
1.1777405e-11
-2.3482075e-05
5.9467892e-07
9.7523535e-12
-2.3734907e-05
2.5282377e-07
7.4273711e-12
-2.3620776e-05
-1.1413632e-07
4.8429116e-12
-2.3124511e-05
-4.9626675e-07
2.0716451e-12
-2.2243365e-05
-8.8114428e-07
-7.8111918e-13
-2.0989082e-05
-1.2542788e-06
-3.5864998e-12
-1.9389333e-05
-1.5997444e-06
-6.2152537e-12
-1.7488284e-05
-1.901041e-06
-8.5405093e-12
-1.534612e-05
-2.1421538e-06
-1.0416294e-11
-1.3037385e-05
-2.3087217e-06
-1.1708836e-11
-1.0648157e-05
-2.3892146e-06
-1.2346724e-11
-8.2721385e-06
-2.3760062e-06
-1.229839e-11
-6.0058912e-06
-2.2662356e-06
-1.1526021e-11
-3.9435038e-06
-2.0623771e-06
-1.0004298e-11
-2.1709835e-06
-1.7725129e-06
-7.7538612e-12
-7.6050228e-07
-1.4104768e-06
-4.8334447e-12
2.3595097e-07
-9.9644981e-07
-1.4759196e-12
7.9443086e-07
-5.5847545e-07
1.6188365e-12
9.2765827e-07
-1.3322529e-07
4.9142545e-12
7.0466047e-07
2.2298836e-07
8.5571427e-12
2.901881e-07
4.1444716e-07
1.2220711e-11
2.9017065e-07
5.3587011e-12
1.3404094e-07
-4.1271987e-07
-1.8151122e-12
-3.0057834e-07
3.0847805e-07
-1.2379311e-12
-1.613833e-06
1.5847854e-06
-2.4503148e-12
-3.8715775e-06
2.9525673e-06
-4.8141642e-12
-7.0015558e-06
4.206298e-06
-7.3281324e-12
-1.0870358e-05
5.2559572e-06
-9.7411758e-12
-1.5321403e-05
6.0744021e-06
-1.1724977e-11
-2.0197317e-05
6.6668319e-06
-1.3131188e-11
-2.5350088e-05
7.0512313e-06
-1.4118231e-11
-3.064382e-05
7.2477981e-06
-1.4537241e-11
-3.5953569e-05
7.2737217e-06
-1.4436685e-11
-4.1162443e-05
7.1410866e-06
-1.3867702e-11
-4.6158419e-05
6.856734e-06
-1.2849754e-11
-5.0831769e-05
6.4233543e-06
-1.1430017e-11
-5.5073653e-05
5.8412951e-06
-9.6527454e-12
-5.8776164e-05
5.1107192e-06
-7.5313291e-12
-6.1833874e-05
4.2338393e-06
-5.0616522e-12
-6.414683e-05
3.2170234e-06
-2.2620485e-12
-6.5624751e-05
2.0725981e-06
8.1362689e-13
-6.6192124e-05
8.2019394e-07
4.0928976e-12
-6.5794031e-05
-5.1223562e-07
7.4845063e-12
-6.4401369e-05
-1.8889371e-06
1.0946171e-11
-6.2016621e-05
-3.2659056e-06
1.4345979e-11
-5.8677783e-05
-4.5931323e-06
1.7587169e-11
-5.446114e-05
-5.8164048e-06
2.0555122e-11
-4.9481966e-05
-6.8802344e-06
2.3103764e-11
-4.3892852e-05
-7.7312878e-06
2.509113e-11
-3.7879445e-05
-8.3221502e-06
2.6415988e-11
-3.1653558e-05
-8.6151237e-06
2.7000533e-11
-2.5443853e-05
-8.5857336e-06
2.6780651e-11
-1.9484477e-05
-8.2256353e-06
2.5741956e-11
-1.4002162e-05
-7.5447158e-06
2.3933249e-11
-9.2023123e-06
-6.5723857e-06
2.1446004e-11
-5.2544148e-06
-5.3583956e-06
1.8413937e-11
-2.2768768e-06
-3.9740084e-06
1.5056347e-11
-3.2052814e-07
-2.5148404e-06
1.1583519e-11
6.5427626e-07
-1.1080299e-06
7.9244668e-12
8.0192234e-07
7.5361253e-08
6.4950142e-12
4.1721072e-07
7.9917975e-07
7.5131267e-12
7.0737237e-07
1.5626358e-13
-2.7291915e-07
-1.3979911e-07
-3.5589248e-12
-1.6255119e-06
1.6610868e-06
2.5831335e-12
-4.2851164e-06
4.244394e-06
4.6126339e-13
-8.2667055e-06
6.9341542e-06
7.3252672e-13
-1.3461369e-05
9.4009586e-06
1.7386182e-12
-1.9689359e-05
1.1483943e-05
2.1083473e-12
-2.673907e-05
1.3124112e-05
2.2421641e-12
-3.4391882e-05
1.4319644e-05
2.3908569e-12
-4.2435372e-05
1.5094722e-05
2.4722987e-12
-5.066845e-05
1.5480877e-05
2.6328254e-12
-5.8901576e-05
1.5506846e-05
2.8605453e-12
-6.6954502e-05
1.519401e-05
3.1500799e-12
-7.4653343e-05
1.4555574e-05
3.502644e-12
-8.1828218e-05
1.3598229e-05
3.890458e-12
-8.8312236e-05
1.2325311e-05
4.2812994e-12
-9.3942261e-05
1.0740739e-05
4.6573677e-12
-9.8561571e-05
8.853142e-06
5.0182741e-12
-0.00010202432
6.6797606e-06
5.3545018e-12
-0.00010420148
4.2497507e-06
5.6450821e-12
-0.00010498795
1.6066595e-06
5.8765356e-12
-0.00010430998
-1.1902129e-06
6.0399446e-12
-0.00010213285
-4.0660694e-06
6.1296741e-12
-9.8467543e-05
-6.931219e-06
6.1616819e-12
-9.3376068e-05
-9.6846133e-06
6.1646248e-12
-8.697469e-05
-1.2217791e-05
6.149782e-12
-7.9434435e-05
-1.4420495e-05
6.1125285e-12
-7.0978441e-05
-1.6187285e-05
6.0500362e-12
-6.187583e-05
-1.7424764e-05
5.9787465e-12
-5.243205e-05
-1.8058908e-05
5.9206835e-12
-4.2975866e-05
-1.8041924e-05
5.8860382e-12
-3.384344e-05
-1.7358069e-05
5.8872892e-12
-2.5360123e-05
-1.6028039e-05
5.9447632e-12
-1.7820675e-05
-1.4111837e-05
6.0681393e-12
-1.1468567e-05
-1.1710503e-05
6.2277563e-12
-6.4748438e-06
-8.9677345e-06
6.3679973e-12
-2.9163899e-06
-6.0733061e-06
6.3965481e-12
-7.5370279e-07
-3.2707356e-06
6.27384e-12
1.9259663e-07
-8.7094892e-07
6.9744904e-12
2.6477782e-07
7.2700552e-07
8.851169e-12
9.7214709e-07
4.0094097e-12
-7.449117e-07
6.0512636e-07
-5.6223134e-12
-3.1761218e-06
4.0922981e-06
6.8687723e-12
-7.3382755e-06
8.4065426e-06
1.014512e-12
-1.3149138e-05
1.2745012e-05
1.0334204e-12
-2.0434153e-05
1.6685966e-05
3.0531994e-12
-2.8961797e-05
2.0011579e-05
3.8549285e-12
-3.8472732e-05
2.2635043e-05
4.2598327e-12
-4.8700418e-05
2.4547325e-05
4.647197e-12
-5.938313e-05
2.577743e-05
4.9173522e-12
-7.0269226e-05
2.6366967e-05
5.2020173e-12
-8.1117909e-05
2.6355521e-05
5.4832699e-12
-9.1697588e-05
2.5773682e-05
5.7523179e-12
-0.00010178357
2.4641548e-05
6.0137084e-12
-0.00011115633
2.2970991e-05
6.2434231e-12
-0.0001196013
2.0770275e-05
6.4137338e-12
-0.00012691047
1.8049893e-05
6.5125174e-12
-0.00013288609
1.4828758e-05
6.5423318e-12
-0.00013734635
1.1140007e-05
6.488478e-12
-0.0001401325
7.0358992e-06
6.3366452e-12
-0.00014111724
2.5913908e-06
6.0943555e-12
-0.00014021332
-2.0941427e-06
5.7776283e-12
-0.00013738238
-6.8970095e-06
5.3597673e-12
-0.00013264244
-1.1671166e-05
4.8756255e-12
-0.0001260739
-1.6253157e-05
4.3736829e-12
-0.00011782314
-2.0468561e-05
3.8890283e-12
-0.00010810296
-2.4140681e-05
3.4470503e-12
-9.7189455e-05
-2.7100789e-05
3.0652002e-12
-8.5414843e-05
-2.9199376e-05
2.7666226e-12
-7.3156099e-05
-3.0317652e-05
2.5859908e-12
-6.0819565e-05
-3.037846e-05
2.5599748e-12
-4.8821915e-05
-2.9355721e-05
2.712815e-12
-3.7568187e-05
-2.728177e-05
3.0566806e-12
-2.7427793e-05
-2.4252235e-05
3.6023636e-12
-1.8709554e-05
-2.0428744e-05
4.3273064e-12
-1.1636828e-05
-1.6040458e-05
5.1100854e-12
-6.3236537e-06
-1.1386478e-05
5.7726009e-12
-2.7527586e-06
-6.841639e-06
6.3562388e-12
-7.582818e-07
-2.8654442e-06
7.0499977e-12
-1.0069602e-08
-2.1212629e-08
7.6680656e-12
9.6207439e-07
6.9425368e-12
-1.2265571e-06
1.8316959e-06
-8.7835199e-12
-4.7826754e-06
7.6484059e-06
1.1363054e-11
-1.0509673e-05
1.4133531e-05
7.5524433e-13
-1.8193834e-05
2.0429171e-05
-6.0883336e-13
-2.7572909e-05
2.606504e-05
1.4281845e-12
-3.8353188e-05
3.0791853e-05
1.7575879e-12
-5.022668e-05
3.4508535e-05
1.7258912e-12
-6.2884347e-05
3.7204991e-05
1.8789135e-12
-7.6024125e-05
3.8917206e-05
2.0272251e-12
-8.9354341e-05
3.9697179e-05
2.257505e-12
-0.00010259383
3.9595009e-05
2.5511845e-12
-0.00011547035
3.8650188e-05
2.8785574e-12
-0.0001277186
3.6889802e-05
3.2427193e-12
-0.00013907921
3.43316e-05
3.6348366e-12
-0.00014929913
3.0990193e-05
4.0317066e-12
-0.00015813412
2.6884879e-05
4.4144402e-12
-0.00016535328
2.204791e-05
4.7873466e-12
-0.00017074551
1.6532225e-05
5.1323932e-12
-0.00017412753
1.0417913e-05
5.4375703e-12
-0.00017535299
3.8168454e-06
5.705158e-12
-0.00017432198
-3.1251559e-06
5.9300236e-12
-0.0001709904
-1.0228602e-05
6.0882216e-12
-0.00016537824
-1.7283323e-05
6.1881845e-12
-0.00015757631
-2.4055099e-05
6.2445358e-12
-0.00014775028
-3.0294595e-05
6.2507628e-12
-0.0001361417
-3.5749274e-05
6.2108341e-12
-0.00012306497
-4.0177518e-05
6.146392e-12
-0.00010890007
-4.3364283e-05
6.0780998e-12
-9.4080424e-05
-4.5137299e-05
6.015021e-12
-7.9076192e-05
-4.5382695e-05
5.964521e-12
-6.4373094e-05
-4.4058823e-05
5.9327996e-12
-5.0447654e-05
-4.1207215e-05
5.928816e-12
-3.7739915e-05
-3.6959982e-05
5.9925071e-12
-2.6625088e-05
-3.1543581e-05
6.1777181e-12
-1.7385819e-05
-2.5279731e-05
6.4458259e-12
-1.0186876e-05
-1.8585419e-05
6.7729143e-12
-5.0541414e-06
-1.1974372e-05
7.3159747e-12
-1.8602248e-06
-6.0593712e-06
6.8452354e-12
-3.224643e-07
-1.5589816e-06
3.6770147e-12
6.396039e-07
9.0284167e-12
-1.6911764e-06
3.5228815e-06
-1.2094281e-11
-6.3638797e-06
1.2321096e-05
1.5831888e-11
-1.3655332e-05
2.1424977e-05
9.0410033e-13
-2.3206758e-05
2.9980601e-05
-1.3630718e-12
-3.4654652e-05
3.7512936e-05
1.1529567e-12
-4.7634306e-05
4.3771505e-05
1.4237986e-12
-6.1785904e-05
4.8660133e-05
1.2692125e-12
-7.6759613e-05
5.2178701e-05
1.4187213e-12
-9.2218285e-05
5.4375877e-05
1.6000117e-12
-0.00010783767
5.5316565e-05
1.8427842e-12
-0.00012330487
5.5062202e-05
2.1497515e-12
-0.00013831599
5.3661308e-05
2.4930036e-12
-0.00015257418
5.1147988e-05
2.8677568e-12
-0.00016578876
4.7546176e-05
3.2688641e-12
-0.00017767616
4.2877586e-05
3.6799453e-12
-0.00018796289
3.7171601e-05
4.0844161e-12
-0.0001963906
3.0475619e-05
4.4924848e-12
-0.00020272307
2.2864686e-05
4.8841709e-12
-0.00020675467
1.4449503e-05
5.2466417e-12
-0.00020831994
5.3821098e-06
5.5845136e-12
-0.00020730368
-4.1414215e-06
5.8866095e-12
-0.00020365086
-1.3881433e-05
6.1336036e-12
-0.00019737578
-2.355841e-05
6.3276768e-12
-0.00018856967
-3.2861223e-05
6.4863811e-12
-0.0001774059
-4.1458375e-05
6.5892561e-12
-0.0001641421
-4.9013086e-05
6.6109609e-12
-0.00014911824
-5.520138e-05
6.5645264e-12
-0.0001327501
-5.9732435e-05
6.4934134e-12
-0.00011551738
-6.237002e-05
6.4323366e-12
-9.7946507e-05
-6.2953577e-05
6.3970826e-12
-8.0588025e-05
-6.1417308e-05
6.3808165e-12
-6.3989583e-05
-5.7805659e-05
6.3591569e-12
-4.8665625e-05
-5.2283943e-05
6.325902e-12
-3.5065737e-05
-4.5143477e-05
6.3156016e-12
-2.3543887e-05
-3.6801592e-05
6.3434791e-12
-1.4331157e-05
-2.7798155e-05
6.6761976e-12
-7.5146962e-06
-1.8790835e-05
7.7923431e-12
-3.02601e-06
-1.0548061e-05
6.9937702e-12
-6.4237642e-07
-3.9426193e-06
1.2440402e-12
-2.783884e-09
1.1403752e-11
-2.1303322e-06
5.6532232e-06
-1.5264517e-11
-7.8814321e-06
1.8072179e-05
2.0025633e-11
-1.6697074e-05
3.0240615e-05
1.0480023e-12
-2.8071777e-05
4.1355307e-05
-1.9658786e-12
-4.1535205e-05
5.0976365e-05
1.1249453e-12
-5.6646649e-05
5.8882946e-05
1.4576885e-12
-7.2992053e-05
6.5005535e-05
1.2743371e-12
-9.0181498e-05
6.9368146e-05
1.4660881e-12
-0.00010784622
7.2040599e-05
1.7010648e-12
-0.00012563496
7.3105299e-05
1.961326e-12
-0.00014320995
7.2637191e-05
2.2708794e-12
-0.00016024328
7.0694633e-05
2.6100232e-12
-0.00017641422
6.7318926e-05
2.9723583e-12
-0.00019140822
6.2540169e-05
3.3540687e-12
-0.00020491784
5.6387206e-05
3.7379488e-12
-0.00021664591
4.8899659e-05
4.1067975e-12
-0.00022631067
4.0140378e-05
4.4787455e-12
-0.00023365295
3.0206956e-05
4.8405916e-12
-0.00023844474
1.9241291e-05
5.1807808e-12
-0.00024049906
7.4364236e-06
5.5081244e-12
-0.00023968041
-4.9600774e-06
5.8062013e-12
-0.00023591536
-1.7646489e-05
6.0472335e-12
-0.0002292028
-3.0270973e-05
6.2227026e-12
-0.00021962292
-4.2441111e-05
6.3638866e-12
-0.00020734422
-5.3737083e-05
6.4676223e-12
-0.00019262765
-6.3729672e-05
6.497544e-12
-0.00017582675
-7.2002289e-05
6.4397096e-12
-0.00015738293
-7.8176258e-05
6.3315406e-12
-0.00013781488
-8.1938074e-05
6.2275511e-12
-0.00011770161
-8.3066854e-05
6.1675993e-12
-9.7659092e-05
-8.1459832e-05
6.1599608e-12
-7.8311133e-05
-7.7153622e-05
6.189142e-12
-6.025591e-05
-7.0339167e-05
6.2294124e-12
-4.4030429e-05
-6.1368962e-05
6.2359398e-12
-3.0075788e-05
-5.075624e-05
6.1383438e-12
-1.8706582e-05
-3.9167369e-05
6.4293124e-12
-1.0087907e-05
-2.7409517e-05
8.0896388e-12
-4.223523e-06
-1.641245e-05
7.0242517e-12
-9.5832577e-07
-7.2078142e-06
-1.4274137e-12
-9.6112446e-07
1.3530579e-11
-2.5418577e-06
8.1950955e-06
-1.8329482e-11
-9.3171958e-06
2.48475e-05
2.3827261e-11
-1.9591076e-05
4.0514491e-05
1.0195866e-12
-3.2716666e-05
5.4480902e-05
-2.7017057e-12
-4.811738e-05
6.6377079e-05
9.2444084e-13
-6.5275562e-05
7.6041123e-05
1.2992049e-12
-8.372252e-05
8.3452491e-05
1.0629717e-12
-0.00010302942
8.867504e-05
1.2604232e-12
-0.00012279885
9.1810029e-05
1.5175073e-12
-0.00014265711
9.2963561e-05
1.7765401e-12
-0.00016224737
9.2227448e-05
2.0817624e-12
-0.00018122414
8.9671394e-05
2.4180884e-12
-0.00019924949
8.5344269e-05
2.7777955e-12
-0.00021599136
7.9282041e-05
3.1598051e-12
-0.00023112412
7.1519963e-05
3.5438811e-12
-0.00024433134
6.2106867e-05
3.9095559e-12
-0.00025531071
5.111975e-05
4.280595e-12
-0.00026378096
3.8677202e-05
4.6513601e-12
-0.00026949029
2.4950614e-05
5.0100361e-12
-0.00027222622
1.0172347e-05
5.3701997e-12
-0.00027182645
-5.3598549e-06
5.7168999e-12
-0.00026819015
-2.1282791e-05
6.0171409e-12
-0.00026128967
-3.7171457e-05
6.2362399e-12
-0.0002511814
-5.2549391e-05
6.4007699e-12
-0.00023801534
-6.6903146e-05
6.5298527e-12
-0.00022204225
-7.9702771e-05
6.6032797e-12
-0.00020361696
-9.0427588e-05
6.5920667e-12
-0.00018319662
-9.85966e-05
6.5078993e-12
-0.00016133251
-0.00010380219
6.3984764e-12
-0.00013865435
-0.00010574502
6.3149667e-12
-0.00011584671
-0.00010426748
6.27907e-12
-9.3617928e-05
-9.9382407e-05
6.2945418e-12
-7.2663073e-05
-9.1294028e-05
6.3600664e-12
-5.3623452e-05
-8.0408588e-05
6.3954468e-12
-3.7046357e-05
-6.733334e-05
6.2106548e-12
-2.3349113e-05
-5.2864621e-05
6.4051531e-12
-1.2791685e-05
-3.7966956e-05
8.4654187e-12
-5.4619072e-06
-2.3742236e-05
6.944207e-12
-1.2767042e-06
-1.1393013e-05
-4.3135827e-12
-2.2378451e-06
1.5947657e-11
-2.9247516e-06
1.1119865e-05
-2.1268434e-11
-1.0660225e-05
3.2582954e-05
2.7309929e-11
-2.2308365e-05
5.2162627e-05
9.450869e-13
-3.7090287e-05
6.9262827e-05
-3.4259211e-12
-5.4328011e-05
8.3614803e-05
7.0997074e-13
-7.3429428e-05
9.5142534e-05
1.1266846e-12
-9.3873017e-05
0.00010389608
8.2963885e-13
-0.00011519324
0.00010999526
1.0091838e-12
-0.0001369672
0.000113584
1.2633597e-12
-0.000158803
0.00011479936
1.503536e-12
-0.00018032983
0.00011375427
1.7958788e-12
-0.00020119034
0.0001105319
2.1221459e-12
-0.0002210353
0.00010518923
2.4693236e-12
-0.00023952081
9.7767547e-05
2.842491e-12
-0.00025630795
8.8307093e-05
3.2229659e-12
-0.0002710648
7.6863718e-05
3.5895077e-12
-0.00028347072
6.3525665e-05
3.9691863e-12
-0.00029322252
4.8428994e-05
4.3624466e-12
-0.00030004249
3.177058e-05
4.754169e-12
-0.00030368804
1.3817903e-05
5.1545673e-12
-0.00030396287
-5.0850282e-06
5.553832e-12
-0.00030072898
-2.4516693e-05
5.9354508e-12
-0.00029392015
-4.3980294e-05
6.2350827e-12
-0.0002835552
-6.2914339e-05
6.4569454e-12
-0.0002697509
-8.0707452e-05
6.6225399e-12
-0.00025273301
-9.6720674e-05
6.7329883e-12
-0.00023284402
-0.00011031659
6.7666822e-12
-0.00021054574
-0.00012089488
6.7194977e-12
-0.00018641482
-0.00012793311
6.6217533e-12
-0.00016112952
-0.00013103032
6.5226291e-12
-0.00013544674
-0.00012995026
6.4537645e-12
-0.00011016926
-0.00012465989
6.4331621e-12
-8.6104552e-05
-0.00011535875
6.4882529e-12
-6.4018137e-05
-0.00010249501
6.5400227e-12
-4.458575e-05
-8.6765733e-05
6.3218459e-12
-2.8349458e-05
-6.910092e-05
6.4892813e-12
-1.5682975e-05
-5.0633449e-05
8.9548642e-12
-6.7710244e-06
-3.2654191e-05
6.9128713e-12
-1.606114e-06
-1.6557918e-05
-7.302589e-12
-3.8439789e-06
1.8495484e-11
-3.2775195e-06
1.4397404e-05
-2.4078835e-11
-1.1900919e-05
4.1206332e-05
3.0445382e-11
-2.4824771e-05
6.5086473e-05
8.440593e-13
-4.1149672e-05
8.5587732e-05
-4.1089318e-12
-6.0103961e-05
0.00010256909
5.0032372e-13
-8.1026138e-05
0.00011606471
9.590163e-13
-0.00010334555
0.00012621549
6.0380869e-13
-0.00012656326
0.00013321297
7.6378353e-13
-0.00015023451
0.00013725525
1.0146615e-12
-0.00017395336
0.0001385182
1.2374718e-12
-0.00019733984
0.00013714075
1.519566e-12
-0.00022002997
0.00013322203
1.8376317e-12
-0.00024166866
0.00012682791
2.1703932e-12
-0.00026190534
0.00011800422
2.5280825e-12
-0.0002803924
0.00010679415
2.8947513e-12
-0.000296786
9.3257316e-05
3.2514953e-12
-0.00031074918
7.7488847e-05
3.6323021e-12
-0.00032195707
5.963688e-05
4.0457998e-12
-0.00033010406
3.9917562e-05
4.4717153e-12
-0.00033491298
1.8626823e-05
4.9006291e-12
-0.00033614647
-3.8515398e-06
5.317628e-12
-0.0003336195
-2.7043675e-05
5.7756279e-12
-0.0003272151
-5.0384694e-05
6.1600248e-12
-0.00031690016
-7.3229291e-05
6.458226e-12
-0.00030274226
-9.486536e-05
6.6787557e-12
-0.00028492571
-0.00011453723
6.828016e-12
-0.0002637649
-0.00013147741
6.8993435e-12
-0.00023971265
-0.00014494713
6.8888579e-12
-0.00021336118
-0.00015428459
6.8140831e-12
-0.00018543288
-0.00015895862
6.7123019e-12
-0.00015675927
-0.00015862388
6.6180764e-12
-0.00012824712
-0.00015317206
6.5611391e-12
-0.0001008329
-0.00014277298
6.5870127e-12
-7.5428611e-05
-0.00012789931
6.6183442e-12
-5.2864027e-05
-0.00010933033
6.3599554e-12
-3.3831782e-05
-8.8133174e-05
6.5729115e-12
-1.8842045e-05
-6.5623198e-05
9.525554e-12
-8.1928485e-06
-4.3303395e-05
6.9440443e-12
-1.9599083e-06
-2.279085e-05
-1.0477211e-11
-5.8039098e-06
2.1220303e-11
-3.5977773e-06
1.7995204e-05
-2.6660041e-11
-1.3028778e-05
5.0637308e-05
3.3250889e-11
-2.7116336e-05
7.9174026e-05
7.3346934e-13
-4.4853508e-05
0.00010332491
-4.7439468e-12
-6.5384512e-05
0.0001231001
2.7812645e-13
-8.7985294e-05
0.00013866549
7.6051405e-13
-0.00011204114
0.00015027133
3.4145665e-13
-0.00013702394
0.00015819578
4.7647265e-13
-0.00016247109
0.00016270241
7.2159068e-13
-0.00018796685
0.00016401396
9.2553503e-13
-0.00021312673
0.00016230062
1.1948458e-12
-0.00023758514
0.00015768043
1.5015154e-12
-0.00026098623
0.00015022899
1.8170835e-12
-0.00028297784
0.00013999583
2.159255e-12
-0.00030320824
0.00012702455
2.5138708e-12
-0.00032132538
0.00011137446
2.8597024e-12
-0.0003369785
9.3141967e-05
3.2352195e-12
-0.00034982189
7.2480266e-05
3.6639295e-12
-0.0003595209
4.9616564e-05
4.130939e-12
-0.00036576026
2.4866185e-05
4.6025807e-12
-0.00036825563
-1.356172e-06
5.0275167e-12
-0.00036676585
-2.8533461e-05
5.5724339e-12
-0.00036111164
-5.6038915e-05
6.0283615e-12
-0.0003511934
-8.3147544e-05
6.4042518e-12
-0.00033701279
-0.00010904597
6.7014219e-12
-0.00031869442
-0.00013285561
6.9158641e-12
-0.0002965059
-0.00015366593
7.0424531e-12
-0.00027087383
-0.00017057922
7.0794006e-12
-0.00024239192
-0.0001827665
7.037969e-12
-0.00021181809
-0.00018953245
6.9416871e-12
-0.00018005713
-0.00019038484
6.8203915e-12
-0.0001481271
-0.00018510209
6.7168521e-12
-0.00011710962
-0.00017379046
6.6979213e-12
-8.8087015e-05
-0.00015692192
6.6803546e-12
-6.2072149e-05
-0.0001353452
6.3410175e-12
-3.9938928e-05
-0.0001102664
6.622281e-12
-2.2362318e-05
-8.3199823e-05
1.0161005e-11
-9.7760623e-06
-5.588966e-05
7.0183836e-12
-2.3531145e-06
-3.0213786e-05
-1.3955073e-11
-8.1570496e-06
2.4271506e-11
-3.8823016e-06
2.1877531e-05
-2.8960888e-11
-1.4031839e-05
6.0786817e-05
3.5722657e-11
-2.9157712e-05
9.4299894e-05
6.0843098e-13
-4.8159493e-05
0.0001223267
-5.3389905e-12
-7.0108025e-05
0.00014504863
3.7743588e-14
-9.4224648e-05
0.00016278211
5.2890165e-13
-0.00011985652
0.00017590321
4.4207166e-14
-0.00014645114
0.0001847904
1.5084479e-13
-0.00017353233
0.00018978359
3.8855254e-13
-0.00020067883
0.00019116046
5.7139425e-13
-0.00022750616
0.00018912795
8.2309781e-13
-0.00025365192
0.00018382619
1.1128714e-12
-0.0002787646
0.00017534166
1.404478e-12
-0.00030249551
0.00016372674
1.7262242e-12
-0.00032449364
0.00014902268
2.07253e-12
-0.00034440305
0.00013128386
2.4170308e-12
-0.00036186253
0.00011060145
2.7904205e-12
-0.00037650766
8.7125393e-05
3.2221885e-12
-0.00038797519
6.1084088e-05
3.7154068e-12
-0.00039591026
3.280126e-05
4.266796e-12
-0.00039997651
2.7100694e-06
4.8700044e-12
-0.00039987103
-2.8638943e-05
5.3672621e-12
-0.00039534103
-6.0568917e-05
5.8588022e-12
-0.00038620689
-9.2281699e-05
6.3053537e-12
-0.00037238732
-0.00012286555
6.682265e-12
-0.00035392729
-0.00015131564
6.9756278e-12
-0.00033102602
-0.0001765672
7.1733358e-12
-0.00030406197
-0.00019754327
7.2692321e-12
-0.00027361069
-0.00021321779
7.27196e-12
-0.00024045075
-0.0002226924
7.1962075e-12
-0.00020555299
-0.0002252826
7.0607452e-12
-0.00017004946
-0.00022060563
6.910432e-12
-0.0001351807
-0.00020865922
6.8322127e-12
-0.00010222369
-0.00018987893
6.7427988e-12
-7.2406783e-05
-0.00016516212
6.2812065e-12
-4.682159e-05
-0.00013585161
6.6290453e-12
-2.6343547e-05
-0.00010367788
1.0865766e-11
-1.1572606e-05
-7.0660609e-05
7.1176696e-12
-2.8014061e-06
-3.898497e-05
-1.7880223e-11
-1.0958483e-05
2.7754773e-11
-4.1272807e-06
2.6004838e-05
-3.0968013e-11
-1.4897009e-05
7.1556514e-05
3.7820521e-11
-3.0922309e-05
0.00011032519
4.5480989e-13
-5.10242e-05
0.00014242859
-5.9082556e-12
-7.4211619e-05
0.00016823605
-2.3354469e-13
-9.9659793e-05
0.00018823028
2.6329557e-13
-0.00012668409
0.0002029275
-2.778039e-13
-0.00015471257
0.00021281889
-1.9737824e-13
-0.00018325981
0.00021833083
3.312459e-14
-0.00021190321
0.00021980386
1.9310613e-13
-0.00024026265
0.00021748737
4.2257404e-13
-0.00026798361
0.00021154715
6.9237208e-13
-0.00029472394
0.00020208199
9.5746133e-13
-0.0003201437
0.00018914649
1.2537875e-12
-0.0003438979
0.00017277688
1.5905352e-12
-0.00036563182
0.00015301778
1.9429645e-12
-0.0003849785
0.00012994813
2.3272753e-12
-0.00040155863
0.00010370552
2.7640845e-12
-0.000414983
7.4508456e-05
3.2653784e-12
-0.00042485801
4.2676269e-05
3.8477574e-12
-0.00043079458
8.6466356e-06
4.5099982e-12
-0.00043242286
-2.7010672e-05
5.0700473e-12
-0.00042940943
-6.3582353e-05
5.6332247e-12
-0.00042148264
-0.00010020849
6.1558537e-12
-0.00040846191
-0.00013588629
6.6120125e-12
-0.00039029176
-0.00016948579
6.9869097e-12
-0.00036707845
-0.00019978053
7.262402e-12
-0.00033912552
-0.00022549621
7.4235146e-12
-0.00030696381
-0.0002453795
7.4713975e-12
-0.00027136957
-0.00025828665
7.4178039e-12
-0.0002333641
-0.00026328808
7.277932e-12
-0.00019418881
-0.00025978092
7.0949502e-12
-0.0001552521
-0.00024759594
6.9639357e-12
-0.00011804857
-0.00022708247
6.7955708e-12
-8.4057114e-05
-0.00019915358
6.1820447e-12
-5.4629804e-05
-0.00016527893
6.5894851e-12
-3.0887064e-05
-0.00012742063
1.1651794e-11
-1.3635667e-05
-8.7912013e-05
7.2296065e-12
-3.3207549e-06
-4.929986e-05
-2.2403416e-11
-1.4279268e-05
3.176527e-11
-4.328675e-06
3.033354e-05
-3.2653515e-11
-1.5610928e-05
8.2838734e-05
3.9504004e-11
-3.238357e-05
0.00012709783
2.7281371e-13
-5.340468e-05
0.00016344971
-6.4416045e-12
-7.7633062e-05
0.00019246443
-5.3275119e-13
-0.00010420644
0.00021480366
-3.4581891e-14
-0.00013241468
0.00023113574
-6.2313854e-13
-0.00016167125
0.00024207546
-5.6827431e-13
-0.00019148555
0.00024814514
-3.4736724e-13
-0.00022143759
0.00024975589
-2.1344232e-13
-0.00025115566
0.00024720545
-1.1832816e-14
-0.0002802977
0.00024068919
2.3611657e-13
-0.00030853588
0.00023032016
4.7762975e-13
-0.00033554446
0.00021615507
7.5135847e-13
-0.0003609904
0.00019822283
1.0782762e-12
-0.0003845263
0.00017655368
1.439738e-12
-0.00040578561
0.00015120744
1.8425584e-12
-0.00042438011
0.00012230002
2.2947865e-12
-0.00043989996
9.0028295e-05
2.8035797e-12
-0.00045191697
5.4693284e-05
3.3854453e-12
-0.00045999196
1.6721616e-05
4.0329523e-12
-0.00046368743
-2.3315202e-05
4.6744392e-12
-0.00046258559
-6.4684199e-05
5.3172863e-12
-0.00045631408
-0.00010648001
5.9223059e-12
-0.00044457865
-0.00014762172
6.4645123e-12
-0.00042720294
-0.00018686151
6.9279336e-12
-0.00040417365
-0.00022280982
7.2915402e-12
-0.00037568797
-0.00025398189
7.5305611e-12
-0.00034219808
-0.00027886941
7.6316274e-12
-0.00030444519
-0.00029603954
7.5981223e-12
-0.00026347453
-0.00030425875
7.4494901e-12
-0.00022062178
-0.00030263367
7.2373104e-12
-0.00017746393
-0.0002907538
7.0654949e-12
-0.00013573217
-0.00026881423
6.8201158e-12
-9.7192199e-05
-0.00023769356
6.0310174e-12
-6.3505471e-05
-0.00019896566
6.4952956e-12
-3.6092068e-05
-0.00015483405
1.2531772e-11
-1.6018363e-05
-0.00010798572
7.3480901e-12
-3.9272697e-06
-6.1390924e-05
-2.7670055e-11
-1.820657e-05
3.6421929e-11
-4.4826499e-06
3.481622e-05
-3.3988891e-11
-1.6161182e-05
9.4517232e-05
4.0739767e-11
-3.3517028e-05
0.00014445367
6.6081461e-14
-5.5261305e-05
0.00018519399
-6.9196851e-12
-8.0314372e-05
0.0002175175
-8.4136048e-13
-0.00010778476
0.00024227405
-3.5057223e-13
-0.00013694272
0.00026029371
-9.8319291e-13
-0.00016719155
0.00027232428
-9.5766244e-13
-0.00019803914
0.00027899273
-7.5196351e-13
-0.00022907156
0.0002807883
-6.4692432e-13
-0.00025992933
0.00027806322
-4.7637932e-13
-0.00029028701
0.00027104687
-2.4926302e-13
-0.00031983606
0.00025986921
-2.4498952e-14
-0.00034827062
0.00024458963
2.359554e-13
-0.00037527598
0.00022522819
5.6051161e-13
-0.00040051923
0.00020179693
9.3142329e-13
-0.000423642
0.00017433021
1.3488225e-12
-0.00044425534
0.00014291336
1.8152021e-12
-0.00046193708
0.00010771003
2.3316889e-12
-0.00047623241
6.8988608e-05
2.9135653e-12
-0.00048665859
2.7147789e-05
3.5526628e-12
-0.00049271522
-1.7258578e-05
4.2292892e-12
-0.000493901
-6.349842e-05
4.924566e-12
-0.00048973892
-0.0001106421
5.6027342e-12
-0.00047981058
-0.00015755006
6.2317891e-12
-0.00046380036
-0.00020287174
6.7879151e-12
-0.00044154852
-0.00024506166
7.248219e-12
-0.00041311091
-0.0002824195
7.5803103e-12
-0.00037881985
-0.00031316048
7.7507374e-12
-0.0003393382
-0.0003355212
7.7456446e-12
-0.00029569532
-0.00034790164
7.5799204e-12
-0.00024929201
-0.000349037
7.3215606e-12
-0.00020186233
-0.00033818348
7.104508e-12
-0.00015538518
-0.0003152914
6.7827881e-12
-0.00011194764
-0.0002811311
5.8004713e-12
-7.3574865e-05
-0.00023733844
6.331329e-12
-4.2052225e-05
-0.0001863567
1.3518219e-11
-1.8772699e-05
-0.00013126525
7.4699607e-12
-4.6371199e-06
-7.5526466e-05
-3.3821326e-11
-2.2843725e-05
4.1858523e-11
-4.586063e-06
3.9402315e-05
-3.4952843e-11
-1.6537773e-05
0.00010646891
4.1509882e-11
-3.4302931e-05
0.00016221883
-1.5833233e-13
-5.6561554e-05
0.00020745262
-7.3310626e-12
-8.2206723e-05
0.00024316267
-1.1453409e-12
-0.00011032539
0.00027039271
-6.6968655e-13
-0.00014017342
0.00029014174
-1.3441189e-12
-0.00017114763
0.0003032985
-1.3520315e-12
-0.00020275752
0.00031060262
-1.1660638e-12
-0.00023459817
0.00031262896
-1.0896877e-12
-0.00026632561
0.00030979066
-9.4839515e-13
-0.00029763496
0.00030235623
-7.36128e-13
-0.00032824172
0.00029047596
-5.1790705e-13
-0.00035786564
0.00027421356
-2.6147949e-13
-0.00038621722
0.00025357976
6.8669085e-14
-0.00041298606
0.00022856578
4.5320342e-13
-0.00043783122
0.00019917538
8.81026e-13
-0.0004603734
0.00016545553
1.3538873e-12
-0.00048018936
0.00012752599
1.8690563e-12
-0.00049680937
8.5608612e-05
2.4466304e-12
-0.00050971854
4.0056958e-05
3.0835192e-12
-0.00051836365
-8.6134733e-06
3.7773907e-12
-0.00052216697
-5.969511e-05
4.5026558e-12
-0.00052054908
-0.00011225999
5.235833e-12
-0.00051296273
-0.00016513642
5.9416284e-12
-0.00049893915
-0.00021689532
6.5847603e-12
-0.00047814745
-0.00026585337
7.139271e-12
-0.00045046573
-0.00031010123
7.5706477e-12
-0.00041605957
-0.00034756664
7.8252766e-12
-0.00037545948
-0.0003761213
7.8666968e-12
-0.00032962425
-0.00039373688
7.6908094e-12
-0.00027997317
-0.00039868809
7.3708215e-12
-0.00022836875
-0.00038978792
7.0855954e-12
-0.00017703545
-0.00036662469
6.6694817e-12
-0.0001284106
-0.00032975595
5.4649306e-12
-8.4940315e-05
-0.00028080874
6.0776963e-12
-4.8851999e-05
-0.00022244503
1.4623295e-11
-2.1948512e-05
-0.00015816874
7.5957231e-12
-5.466476e-06
-9.2008457e-05
-4.0986748e-11
-2.8310244e-05
4.8204312e-11
-4.6369952e-06
4.4039344e-05
-3.5537548e-11
-1.673478e-05
0.00011856665
4.18011e-11
-3.4729295e-05
0.00018021334
-3.9353636e-13
-5.7284536e-05
0.00023000787
-7.6749329e-12
-8.3276397e-05
0.00026915453
-1.4493482e-12
-0.00011177681
0.00029889312
-9.9716209e-13
-0.00014203148
0.00032039642
-1.7100449e-12
-0.00017343374
0.00033470076
-1.7526447e-12
-0.00020549702
0.00034266591
-1.5844944e-12
-0.00023782788
0.00034495981
-1.5284025e-12
-0.00027010062
0.0003420634
-1.4075333e-12
-0.00030203452
0.00033429013
-1.1995106e-12
-0.00033337359
0.00032181503
-9.74499e-13
-0.00036386893
0.0003047089
-7.1429874e-13
-0.00039326333
0.00028297415
-3.7676735e-13
-0.00042127759
0.00025658004
2.3101352e-14
-0.0004475986
0.00022549638
4.6272023e-13
-0.00047186886
0.0001897258
9.4078762e-13
-0.00049367802
0.00014933514
1.4517711e-12
-0.00051255668
0.00010448728
2.017391e-12
-0.00052797391
5.5474179e-05
2.6490541e-12
-0.00053933942
2.7520306e-06
3.3557948e-12
-0.00054601293
-5.3021605e-05
4.1001664e-12
-0.00054732247
-0.00011095046
4.8756808e-12
-0.00054259499
-0.0001698639
5.6496219e-12
-0.00053120191
-0.00022828841
6.3735393e-12
-0.00051262174
-0.00028443356
7.0127769e-12
-0.00048652046
-0.00033620251
7.5352638e-12
-0.00045284712
-0.00038123999
7.8742627e-12
-0.00041193695
-0.00041703148
7.9727684e-12
-0.00036460813
-0.0004410657
7.8019347e-12
-0.00031223141
-0.00045106482
7.423122e-12
-0.00025674671
-0.00044527262
7.0508031e-12
-0.00020060233
-0.00042276908
6.5073037e-12
-0.00014660246
-0.00038375582
5.0267741e-12
-9.7670356e-05
-0.00032974085
5.7248982e-12
-5.6562248e-05
-0.00026355315
1.5863418e-11
-2.5592159e-05
-0.00018913883
7.734983e-12
-6.4314075e-06
-0.00011116916
-4.9273321e-11
-3.4741702e-05
5.5583694e-11
-4.6353173e-06
4.8674696e-05
-3.5741687e-11
-1.6752178e-05
0.00013068348
4.1611209e-11
-3.4795312e-05
0.00019825648
-6.3416458e-13