/*--------------------------------*- C++ -*----------------------------------*\
  =========                 |
  \\      /  F ield         | OpenFOAM: The Open Source CFD Toolbox
   \\    /   O peration     | Website:  https://openfoam.org
    \\  /    A nd           | Version:  7
     \\/     M anipulation  |
\*---------------------------------------------------------------------------*/
FoamFile
{
    version     2.0;
    format      ascii;
    class       surfaceScalarField;
    location    "14";
    object      phi_0;
}
// * * * * * * * * * * * * * * * * * * * * * * * * * * * * * * * * * * * * * //

dimensions      [0 3 -1 0 0 0 0];

internalField   nonuniform List<scalar> 
45600
(
2.7800184e-07
-2.7861099e-07
-7.2432659e-12
4.0410041e-07
-1.2612099e-07
-3.6789235e-12
1.3256999e-07
2.7152272e-07
2.4519371e-12
-5.6224334e-07
6.9481334e-07
5.8328858e-12
-1.6385659e-06
1.0763117e-06
9.0511051e-12
-3.0257275e-06
1.3871469e-06
1.1592678e-11
-4.6490869e-06
1.6233388e-06
1.3560695e-11
-6.4400023e-06
1.7908951e-06
1.5123611e-11
-8.338455e-06
1.8984374e-06
1.6383744e-11
-1.0292518e-05
1.9540423e-06
1.7140758e-11
-1.225649e-05
1.9639497e-06
1.746361e-11
-1.4188699e-05
1.9321873e-06
1.7491736e-11
-1.6049452e-05
1.8607316e-06
1.7264831e-11
-1.7799451e-05
1.7499798e-06
1.67959e-11
-1.9398858e-05
1.5993889e-06
1.6050805e-11
-2.0807066e-05
1.4081913e-06
1.4969552e-11
-2.1983197e-05
1.1761162e-06
1.3526848e-11
-2.288727e-05
9.0406094e-07
1.1739776e-11
-2.3481955e-05
5.9467551e-07
9.6496821e-12
-2.3734785e-05
2.5282299e-07
7.3082431e-12
-2.3620656e-05
-1.1413469e-07
4.7873376e-12
-2.3124394e-05
-4.9626273e-07
2.1543812e-12
-2.2243254e-05
-8.811377e-07
-5.314578e-13
-2.098898e-05
-1.2542695e-06
-3.2297807e-12
-1.9389241e-05
-1.5997325e-06
-5.8518284e-12
-1.7488206e-05
-1.9010273e-06
-8.2254139e-12
-1.5346056e-05
-2.1421396e-06
-1.0154652e-11
-1.3037336e-05
-2.3087077e-06
-1.1513133e-11
-1.0648123e-05
-2.389201e-06
-1.2226448e-11
-8.2721171e-06
-2.375993e-06
-1.2216297e-11
-6.0058794e-06
-2.2662236e-06
-1.1430956e-11
-3.9434996e-06
-2.0623674e-06
-9.8928221e-12
-2.170985e-06
-1.7725065e-06
-7.6752919e-12
-7.6050708e-07
-1.4104748e-06
-4.8456056e-12
2.3594517e-07
-9.9645354e-07
-1.6280288e-12
7.944251e-07
-5.5848435e-07
1.2989566e-12
9.2765093e-07
-1.3323391e-07
4.5265781e-12
7.0465266e-07
2.2298704e-07
8.5194553e-12
2.9018507e-07
4.1445163e-07
1.2916551e-11
2.9017128e-07
6.4593254e-12
1.340596e-07
-4.1269739e-07
-1.0688882e-12
-3.005625e-07
3.084993e-07
-8.2436789e-13
-1.6138207e-06
1.5847905e-06
-2.371647e-12
-3.8715581e-06
2.9525592e-06
-5.0122783e-12
-7.0015262e-06
4.2062807e-06
-7.9062265e-12
-1.0870306e-05
5.2559342e-06
-1.0387536e-11
-1.5321326e-05
6.0743734e-06
-1.2161951e-11
-2.0197216e-05
6.6667985e-06
-1.3343865e-11
-2.5349956e-05
7.0511957e-06
-1.3944979e-11
-3.0643658e-05
7.2477607e-06
-1.4180844e-11
-3.5953378e-05
7.2736831e-06
-1.4070931e-11
-4.1162224e-05
7.1410478e-06
-1.3529213e-11
-4.6158174e-05
6.856696e-06
-1.2551012e-11
-5.08315e-05
6.4233181e-06
-1.1166464e-11
-5.5073362e-05
5.841262e-06
-9.4115609e-12
-5.8775852e-05
5.1106903e-06
-7.329093e-12
-6.1833545e-05
4.2338159e-06
-4.9524966e-12
-6.4146488e-05
3.2170064e-06
-2.2862987e-12
-6.5624403e-05
2.0725884e-06
6.8818315e-13
-6.6191776e-05
8.2019219e-07
3.9441388e-12
-6.5793689e-05
-5.1222927e-07
7.4093136e-12
-6.4401041e-05
-1.8889229e-06
1.1009954e-11
-6.201631e-05
-3.2658842e-06
1.456054e-11
-5.8677497e-05
-4.5931046e-06
1.7885717e-11
-5.4460883e-05
-5.8163719e-06
2.0828765e-11
-4.9481742e-05
-6.8801971e-06
2.3287853e-11
-4.3892665e-05
-7.7312471e-06
2.5205391e-11
-3.7879295e-05
-8.3221073e-06
2.6502208e-11
-3.1653444e-05
-8.6150808e-06
2.7073515e-11
-2.5443772e-05
-8.5856929e-06
2.684541e-11
-1.9484425e-05
-8.2255991e-06
2.5798515e-11
-1.4002134e-05
-7.5446858e-06
2.3966852e-11
-9.2023032e-06
-6.5723626e-06
2.1447088e-11
-5.2544197e-06
-5.3583792e-06
1.8426887e-11
-2.2768885e-06
-3.9739994e-06
1.5139512e-11
-3.2053784e-07
-2.5148415e-06
1.164859e-11
6.5427059e-07
-1.1080424e-06
7.6145298e-12
8.0191499e-07
7.5343962e-08
5.7219454e-12
4.1719974e-07
7.9916671e-07
6.9801756e-12
7.0736874e-07
6.2509824e-13
-2.7290926e-07
-1.3978985e-07
-3.3023357e-12
-1.6254982e-06
1.6610935e-06
2.7254921e-12
-4.2850909e-06
4.2443825e-06
2.7837139e-13
-8.2666586e-06
6.9341244e-06
2.7267748e-13
-1.3461297e-05
9.4009115e-06
1.101003e-12
-1.9689251e-05
1.1483882e-05
1.5489405e-12
-2.6738923e-05
1.312404e-05
1.9639848e-12
-3.4391692e-05
1.4319562e-05
2.3480566e-12
-4.2435135e-05
1.5094634e-05
2.7035662e-12
-5.0668167e-05
1.5480786e-05
2.9480261e-12
-5.8901246e-05
1.5506755e-05
3.1512933e-12
-6.6954127e-05
1.519392e-05
3.4085188e-12
-7.4652927e-05
1.4555489e-05
3.7479283e-12
-8.1827764e-05
1.359815e-05
4.1366831e-12
-8.8311748e-05
1.2325241e-05
4.5109279e-12
-9.3941743e-05
1.0740679e-05
4.8282731e-12
-9.8561029e-05
8.8530957e-06
5.0886635e-12
-0.00010202376
6.679729e-06
5.3144657e-12
-0.00010420091
4.2497348e-06
5.5407319e-12
-0.00010498739
1.6066602e-06
5.7767078e-12
-0.00010430943
-1.1901952e-06
6.0126751e-12
-0.00010213232
-4.0660352e-06
6.2258891e-12
-9.8467043e-05
-6.9311691e-06
6.3887131e-12
-9.3375606e-05
-9.6845493e-06
6.452655e-12
-8.6974272e-05
-1.2217715e-05
6.3907422e-12
-7.9434067e-05
-1.442041e-05
6.2565559e-12
-7.0978126e-05
-1.6187194e-05
6.1428526e-12
-6.187557e-05
-1.7424669e-05
6.0748706e-12
-5.2431845e-05
-1.8058814e-05
6.0173686e-12
-4.2975713e-05
-1.8041835e-05
5.9583737e-12
-3.3843332e-05
-1.7357989e-05
5.9210882e-12
-2.5360053e-05
-1.6027971e-05
5.920266e-12
-1.7820636e-05
-1.4111785e-05
5.9527659e-12
-1.1468553e-05
-1.1710467e-05
6.0548504e-12
-6.4748473e-06
-8.9677125e-06
6.3108158e-12
-2.9163999e-06
-6.0732985e-06
6.6666253e-12
-7.5370824e-07
-3.2707444e-06
6.6880461e-12
1.9259395e-07
-8.7097224e-07
6.9441811e-12
2.6477127e-07
7.2697772e-07
8.3685641e-12
9.721314e-07
3.8733218e-12
-7.4490308e-07
6.0512492e-07
-5.5034186e-12
-3.1761044e-06
4.092286e-06
6.6865075e-12
-7.3382313e-06
8.4065054e-06
6.0794611e-13
-1.3149059e-05
1.2744948e-05
4.2066325e-13
-2.0434034e-05
1.6685877e-05
2.4342798e-12
-2.8961626e-05
2.0011466e-05
3.4527894e-12
-3.8472507e-05
2.2634912e-05
4.1469521e-12
-4.8700133e-05
2.4547181e-05
4.7482238e-12
-5.9382781e-05
2.5777277e-05
5.2494994e-12
-7.0268814e-05
2.6366809e-05
5.5674105e-12
-8.1117435e-05
2.6355364e-05
5.8060135e-12
-9.1697055e-05
2.5773529e-05
6.0525181e-12
-0.00010178298
2.4641403e-05
6.3032141e-12
-0.0001111557
2.2970859e-05
6.5177195e-12
-0.00011960062
2.0770159e-05
6.6529368e-12
-0.00012690975
1.8049797e-05
6.6863222e-12
-0.00013288534
1.4828685e-05
6.6146618e-12
-0.00013734558
1.1139959e-05
6.4596815e-12
-0.00014013173
7.0358794e-06
6.257018e-12
-0.00014111648
2.5913994e-06
6.0243929e-12
-0.00014021257
-2.0941057e-06
5.7527582e-12
-0.00013738167
-6.8969448e-06
5.4047191e-12
-0.00013264176
-1.1671075e-05
5.0011685e-12
-0.00012607327
-1.6253042e-05
4.5428626e-12
-0.00011782256
-2.0468427e-05
4.0208191e-12
-0.00010810245
-2.4140532e-05
3.4812055e-12
-9.7189012e-05
-2.710063e-05
3.0280666e-12
-8.5414471e-05
-2.9199212e-05
2.7312945e-12
-7.3155797e-05
-3.0317489e-05
2.5961683e-12
-6.081933e-05
-3.0378304e-05
2.6155672e-12
-4.8821741e-05
-2.935558e-05
2.7959548e-12
-3.7568065e-05
-2.7281649e-05
3.1312806e-12
-2.7427714e-05
-2.4252139e-05
3.5861385e-12
-1.8709509e-05
-2.0428675e-05
4.1351033e-12
-1.1636811e-05
-1.6040415e-05
4.8122672e-12
-6.3236546e-06
-1.1386457e-05
5.7056632e-12
-2.7527631e-06
-6.841638e-06
6.8053563e-12
-7.5828336e-07
-2.8654612e-06
7.623123e-12
-1.0069604e-08
-2.1240366e-08
7.8817062e-12
9.620523e-07
6.784208e-12
-1.2265463e-06
1.8316844e-06
-8.93388e-12
-4.7826498e-06
7.6483707e-06
1.0876882e-11
-1.0509607e-05
1.4133459e-05
2.5859548e-13
-1.8193718e-05
2.042906e-05
-1.1208734e-12
-2.757274e-05
2.6064893e-05
1.029582e-12
-3.8352951e-05
3.0791675e-05
1.6326209e-12
-5.0226373e-05
3.4508332e-05
1.826304e-12
-6.2883965e-05
3.7204771e-05
2.0738599e-12
-7.6023663e-05
3.8916975e-05
2.3664724e-12
-8.9353801e-05
3.9696944e-05
2.6094641e-12
-0.00010259322
3.9594775e-05
2.8559165e-12
-0.00011546966
3.8649961e-05
3.1641806e-12
-0.00012771785
3.6889587e-05
3.5258216e-12
-0.0001390784
3.4331405e-05
3.8949909e-12
-0.00014929827
3.0990023e-05
4.2318149e-12
-0.00015813321
2.688474e-05
4.5356305e-12
-0.00016535234
2.2047805e-05
4.8098876e-12
-0.00017074455
1.6532158e-05
5.0750399e-12
-0.00017412656
1.0417886e-05
5.356398e-12
-0.00017535203
3.8168606e-06
5.6425559e-12
-0.00017432105
-3.1250988e-06
5.8850011e-12
-0.0001709895
-1.0228504e-05
6.0618089e-12
-0.00016537739
-1.7283187e-05
6.1941543e-12
-0.00015757551
-2.4054929e-05
6.2734713e-12
-0.00014774955
-3.0294395e-05
6.2685739e-12
-0.00013614104
-3.5749051e-05
6.1870427e-12
-0.0001230644
-4.0177281e-05
6.0887829e-12
-0.00010889958
-4.3364039e-05
6.0180905e-12
-9.4080021e-05
-4.5137056e-05
5.979843e-12
-7.907587e-05
-4.5382462e-05
5.9724548e-12
-6.4372847e-05
-4.4058608e-05
6.0138069e-12
-5.0447474e-05
-4.1207027e-05
6.121023e-12
-3.7739789e-05
-3.6959828e-05
6.2711883e-12
-2.6625006e-05
-3.1543467e-05
6.3776922e-12
-1.7385773e-05
-2.5279659e-05
6.3724888e-12
-1.0186858e-05
-1.8585383e-05
6.4891017e-12
-5.0541387e-06
-1.1974364e-05
7.2679026e-12
-1.8602286e-06
-6.0593851e-06
7.1751816e-12
-3.2246241e-07
-1.5590076e-06
4.1602042e-12
6.3958159e-07
9.0649538e-12
-1.6911611e-06
3.5228572e-06
-1.2465216e-11
-6.3638436e-06
1.2321028e-05
1.5228288e-11
-1.3655243e-05
2.1424856e-05
4.7731317e-13
-2.3206606e-05
2.9980427e-05
-1.6534108e-12
-3.4654432e-05
3.7512715e-05
1.013926e-12
-4.7634003e-05
4.3771245e-05
1.5134863e-12
-6.1785514e-05
4.8659841e-05
1.4967069e-12
-7.6759134e-05
5.2178389e-05
1.6520206e-12
-9.2217712e-05
5.4375553e-05
1.9101846e-12
-0.00010783701
5.5316236e-05
2.1643381e-12
-0.00012330412
5.5061877e-05
2.4371876e-12
-0.00013831516
5.3660995e-05
2.7602246e-12
-0.00015257327
5.1147696e-05
3.1212987e-12
-0.00016578778
4.7545912e-05
3.4839813e-12
-0.00017767512
4.2877358e-05
3.8242625e-12
-0.0001879618
3.7171416e-05
4.1591028e-12
-0.00019638948
3.0475481e-05
4.4873868e-12
-0.00020272193
2.2864601e-05
4.8172002e-12
-0.00020675352
1.4449473e-05
5.171702e-12
-0.00020831881
5.3821374e-06
5.5327898e-12
-0.00020730257
-4.1413368e-06
5.837589e-12
-0.00020364979
-1.3881293e-05
6.0730229e-12
-0.00019737477
-2.3558219e-05
6.2698874e-12
-0.00018856872
-3.2860984e-05
6.4271775e-12
-0.00017740502
-4.1458097e-05
6.5083732e-12
-0.00016414131
-4.9012777e-05
6.5096897e-12
-0.00014911755
-5.520105e-05
6.4735135e-12
-0.0001327495
-5.9732096e-05
6.4347385e-12
-0.00011551688
-6.2369683e-05
6.4014414e-12
-9.7946093e-05
-6.2953254e-05
6.3731095e-12
-8.05877e-05
-6.1417011e-05
6.3621267e-12
-6.3989338e-05
-5.7805397e-05
6.3996651e-12
-4.866545e-05
-5.2283724e-05
6.5168558e-12
-3.5065618e-05
-4.5143307e-05
6.6539112e-12
-2.3543811e-05
-3.6801474e-05
6.6445521e-12
-1.4331116e-05
-2.7798088e-05
6.7039563e-12
-7.5146799e-06
-1.879081e-05
7.6696663e-12
-3.0260093e-06
-1.0548069e-05
7.0167581e-12
-6.4237541e-07
-3.9426438e-06
1.5668639e-12
-2.8029063e-09
1.1495004e-11
-2.1303126e-06
5.6531855e-06
-1.5635821e-11
-7.8813847e-06
1.8072073e-05
1.9528598e-11
-1.6696963e-05
3.0240435e-05
8.2343856e-13
-2.8071589e-05
4.1355059e-05
-2.0183548e-12
-4.1534935e-05
5.0976058e-05
1.18404e-12
-5.6646282e-05
5.888259e-05
1.6525965e-12
-7.2991585e-05
6.5005143e-05
1.510782e-12
-9.0180927e-05
6.9367728e-05
1.6483329e-12
-0.00010784554
7.2040168e-05
1.9306014e-12
-0.00012563418
7.3104865e-05
2.2280594e-12
-0.00014320907
7.2636765e-05
2.5301359e-12
-0.00016024231
7.0694226e-05
2.8473525e-12
-0.00017641316
6.7318548e-05
3.1773325e-12
-0.00019140708
6.253983e-05
3.5016124e-12
-0.00020491664
5.6386914e-05
3.8150087e-12
-0.00021664466
4.8899423e-05
4.1441775e-12
-0.00022630938
4.0140205e-05
4.4754409e-12
-0.00023365164
3.020685e-05
4.8022312e-12
-0.00023844343
1.9241257e-05
5.1461672e-12
-0.00024049776
7.4364634e-06
5.4843059e-12
-0.00023967914
-4.9599641e-06
5.7522878e-12
-0.00023591414
-1.7646305e-05
5.9515838e-12
-0.00022920164
-3.0270722e-05
6.1271667e-12
-0.00021962183
-4.2440799e-05
6.2824118e-12
-0.00020734321
-5.373672e-05
6.3682521e-12
-0.00019262673
-6.3729269e-05
6.3675676e-12
-0.00017582593
-7.2001858e-05
6.321863e-12
-0.00015738222
-7.8175814e-05
6.2756482e-12
-0.00013781427
-8.1937633e-05
6.2458218e-12
-0.00011770111
-8.3066428e-05
6.2317345e-12
-9.7658687e-05
-8.1459437e-05
6.2321793e-12
-7.831082e-05
-7.7153271e-05
6.259442e-12
-6.0255681e-05
-7.033887e-05
6.3524814e-12
-4.4030268e-05
-6.1368724e-05
6.4952385e-12
-3.0075682e-05
-5.0756066e-05
6.5272663e-12
-1.8706519e-05
-3.916726e-05
6.7367515e-12
-1.0087877e-05
-2.7409465e-05
8.1446572e-12
-4.223515e-06
-1.6412444e-05
7.0299058e-12
-9.5832606e-07
-7.2078352e-06
-1.2532287e-12
-9.6114646e-07
1.3629741e-11
-2.5418353e-06
8.1950411e-06
-1.8518046e-11
-9.3171381e-06
2.4847349e-05
2.3590171e-11
-1.9590943e-05
4.0514243e-05
1.0509604e-12
-3.2716444e-05
5.4480568e-05
-2.5605661e-12
-4.8117063e-05
6.6376673e-05
1.0797881e-12
-6.5275135e-05
7.6040659e-05
1.4872685e-12
-8.372198e-05
8.3451985e-05
1.2319207e-12
-0.00010302876
8.8674506e-05
1.3654719e-12
-0.00012279807
9.180948e-05
1.6670221e-12
-0.00014265623
9.2963013e-05
1.98433e-12
-0.00016224638
9.2226913e-05
2.2913146e-12
-0.00018122304
8.9670884e-05
2.5913581e-12
-0.0001992483
8.5343798e-05
2.8966921e-12
-0.00021599009
7.9281619e-05
3.2037794e-12
-0.00023112278
7.1519602e-05
3.5239141e-12
-0.00024432994
6.2106577e-05
3.8904286e-12
-0.00025530928
5.1119538e-05
4.2702857e-12
-0.00026377951
3.8677075e-05
4.6353507e-12
-0.00026948884
2.4950576e-05
5.0110952e-12
-0.00027222478
1.0172399e-05
5.3803084e-12
-0.00027182504
-5.3597122e-06
5.6742016e-12
-0.00026818879
-2.1282561e-05
5.9008259e-12
-0.00026128837
-3.7171144e-05
6.1119163e-12
-0.00025118017
-5.2549003e-05
6.3212696e-12
-0.0002380142
-6.6902694e-05
6.473816e-12
-0.00022204121
-7.9702268e-05
6.5303939e-12
-0.00020361602
-9.042705e-05
6.5157698e-12
-0.0001831958
-9.8596045e-05
6.4764374e-12
-0.0001613318
-0.00010380163
6.4406178e-12
-0.00013865376
-0.00010574448
6.4135468e-12
-0.00011584622
-0.00010426698
6.395603e-12
-9.3617548e-05
-9.9381953e-05
6.3926114e-12
-7.2662787e-05
-9.1293638e-05
6.4316719e-12
-5.3623247e-05
-8.040827e-05
6.4959854e-12
-3.704622e-05
-6.73331e-05
6.4375992e-12
-2.3349028e-05
-5.2864458e-05
6.7358544e-12
-1.2791641e-05
-3.7966864e-05
8.626006e-12
-5.4618923e-06
-2.3742203e-05
7.009814e-12
-1.2767003e-06
-1.1393021e-05
-4.2099155e-12
-2.2378653e-06
1.6032243e-11
-2.9247253e-06
1.111979e-05
-2.1289666e-11
-1.0660158e-05
3.2582751e-05
2.7234614e-11
-2.2308214e-05
5.2162302e-05
1.0981155e-12
-3.7090035e-05
6.9262396e-05
-3.2345954e-12
-5.4327654e-05
8.3614286e-05
8.3638176e-13
-7.3428949e-05
9.514195e-05
1.2280189e-12
-9.3872415e-05
0.00010389545
9.0024519e-13
-0.00011519251
0.0001099946
1.0462887e-12
-0.00013696635
0.00011358332
1.3619746e-12
-0.00015880202
0.00011479868
1.6843241e-12
-0.00018032874
0.00011375362
1.9813093e-12
-0.00020118914
0.00011053128
2.2583917e-12
-0.000221034
0.00010518866
2.5468348e-12
-0.00023951943
9.7767041e-05
2.8557256e-12
-0.00025630649
8.8306663e-05
3.2025893e-12
-0.00027106329
7.6863373e-05
3.6177392e-12
-0.00028346917
6.3525414e-05
4.0494331e-12
-0.00029322094
4.8428845e-05
4.4522418e-12
-0.00030004091
3.1770536e-05
4.8577865e-12
-0.00030368648
1.3817969e-05
5.2605945e-12
-0.00030396134
-5.0848554e-06
5.588752e-12
-0.00030072749
-2.4516416e-05
5.858369e-12
-0.00029391872
-4.3979919e-05
6.1101613e-12
-0.00028355386
-6.2913875e-05
6.3707257e-12
-0.00026974965
-8.070691e-05
6.5894644e-12
-0.00025273185
-9.672007e-05
6.7096851e-12
-0.00023284297
-0.00011031594
6.7351659e-12
-0.00021054481
-0.00012089421
6.7082179e-12
-0.00018641401
-0.00012793243
6.6651368e-12
-0.00016112884
-0.00013102966
6.6168666e-12
-0.00013544618
-0.00012994964
6.5674775e-12
-0.00011016881
-0.00012465933
6.5327205e-12
-8.6104209e-05
-0.00011535825
6.5413301e-12
-6.4017887e-05
-0.0001024946
6.5427107e-12
-4.458558e-05
-8.6765415e-05
6.3474085e-12
-2.8349351e-05
-6.9100695e-05
6.6690405e-12
-1.5682917e-05
-5.0633311e-05
9.0944038e-12
-6.7710024e-06
-3.2654128e-05
7.0007783e-12
-1.6061079e-06
-1.6557909e-05
-7.2310194e-12
-3.8439946e-06
1.85592e-11
-3.2774895e-06
1.439731e-05
-2.3935956e-11
-1.1900845e-05
4.1206071e-05
3.0462146e-11
-2.4824604e-05
6.5086064e-05
1.0271063e-12
-4.1149396e-05
8.5587197e-05
-3.9237447e-12
-6.010357e-05
0.00010256846
5.8728321e-13
-8.1025618e-05
0.000116064
1.0021742e-12
-0.00010334489
0.00012621472
6.2835082e-13
-0.00012656247
0.00013321217
7.8588534e-13
-0.0001502336
0.00013725445
1.091471e-12
-0.00017395231
0.0001385174
1.3894029e-12
-0.00019733867
0.00013713997
1.6531015e-12
-0.00022002869
0.0001332213
1.8986029e-12
-0.00024166728
0.00012682724
2.1728626e-12
-0.00026190387
0.00011800363
2.4890605e-12
-0.00028039086
0.00010679365
2.8658462e-12
-0.0002967844
9.3256912e-05
3.3244434e-12
-0.00031074754
7.7488553e-05
3.7935949e-12
-0.00032195541
5.9636705e-05
4.2166611e-12
-0.00033010239
3.9917512e-05
4.6376425e-12
-0.00033491132
1.8626898e-05
5.0679297e-12
-0.00033614485
-3.8513386e-06
5.4303103e-12
-0.00033361791
-2.7043353e-05
5.7780397e-12
-0.00032721358
-5.0384258e-05
6.0810773e-12
-0.00031689871
-7.322875e-05
6.3778045e-12
-0.0003027409
-9.4864728e-05
6.6420233e-12
-0.00028492446
-0.00011453652
6.8158964e-12
-0.00026376375
-0.00013147665
6.884523e-12
-0.00023971163
-0.00014494634
6.8798711e-12
-0.00021336028
-0.00015428378
6.8407544e-12
-0.00018543212
-0.00015895783
6.7821286e-12
-0.00015675864
-0.00015862313
6.7047588e-12
-0.0001282466
-0.00015317137
6.6339338e-12
-0.0001008325
-0.00014277236
6.6218097e-12
-7.5428317e-05
-0.00012789879
6.5928777e-12
-5.2863824e-05
-0.00010932992
6.2874251e-12
-3.3831653e-05
-8.8132874e-05
6.6073563e-12
-1.8841973e-05
-6.5623003e-05
9.5920423e-12
-8.1928188e-06
-4.3303292e-05
7.0025496e-12
-1.9598999e-06
-2.2790818e-05
-1.0442385e-11
-5.8039179e-06
2.1243331e-11
-3.597745e-06
1.7995088e-05
-2.6440072e-11
-1.3028697e-05
5.0636986e-05
3.3302009e-11
-2.7116157e-05
7.9173526e-05
9.0035634e-13
-4.4853214e-05
0.00010332426
-4.5770637e-12
-6.5384095e-05
0.00012309933
3.6958395e-13
-8.7984744e-05
0.00013866464
8.2241935e-13
-0.00011204045
0.00015027043
4.0384605e-13
-0.00013702311
0.00015819484
5.510288e-13
-0.00016247013
0.00016270146
8.169179e-13
-0.00018796575
0.00016401303
1.0674836e-12
-0.00021312551
0.00016229973
1.2875901e-12
-0.0002375838
0.00015767959
1.5035887e-12
-0.00026098479
0.00015022822
1.7723351e-12
-0.00028297631
0.00013999515
2.0982387e-12
-0.00030320663
0.00012702397
2.4936422e-12
-0.00032132372
0.000111374
2.9774828e-12
-0.0003369768
9.3141631e-05
3.4684708e-12
-0.00034982017
7.2480065e-05
3.9032134e-12
-0.00035951917
4.9616504e-05
4.3320062e-12
-0.00036575854
2.4866269e-05
4.782421e-12
-0.00036825394
-1.3559459e-06
5.168009e-12
-0.0003667642
-2.8533097e-05
5.6356938e-12
-0.00036111004
-5.603842e-05
6.0177473e-12
-0.00035119187
-8.3146931e-05
6.3687234e-12
-0.00033701135
-0.00010904525
6.6851994e-12
-0.00031869307
-0.00013285481
6.9164113e-12
-0.00029650467
-0.00015366506
7.0300161e-12
-0.00027087272
-0.0001705783
7.0437464e-12
-0.00024239094
-0.00018276557
6.9984897e-12
-0.00021181724
-0.00018953153
6.9218764e-12
-0.00018005642
-0.00019038395
6.8191213e-12
-0.00014812652
-0.00018510127
6.7173569e-12
-0.00011710917
-0.00017378973
6.6879751e-12
-8.8086678e-05
-0.00015692129
6.6348433e-12
-6.2071912e-05
-0.00013534469
6.2372702e-12
-3.9938776e-05
-0.00011026602
6.5642094e-12
-2.2362232e-05
-8.3199558e-05
1.0157385e-11
-9.7760254e-06
-5.5889507e-05
7.0303591e-12
-2.3531036e-06
-3.0213725e-05
-1.3967248e-11
-8.1570469e-06
2.4242282e-11
-3.8822678e-06
2.1877391e-05
-2.8751478e-11
-1.4031754e-05
6.078643e-05
3.5769064e-11
-2.9157526e-05
9.42993e-05
7.6481101e-13
-4.8159187e-05
0.00012232593
-5.1684452e-12
-7.0107594e-05
0.00014504774
1.7211712e-13
-9.422408e-05
0.00016278112
6.4860078e-13
-0.00011985581
0.00017590216
1.7194075e-13
-0.00014645029
0.00018478932
2.85058e-13
-0.00017353134
0.00018978251
4.9228046e-13
-0.00020067771
0.0001911594
6.8860673e-13
-0.00022750491
0.00018912693
8.721333e-13
-0.00025365056
0.00018382523
1.0727686e-12
-0.00027876313
0.00017534079
1.3470297e-12
-0.00030249395
0.00016372597
1.6831374e-12
-0.00032449201
0.00014902203
2.0807688e-12
-0.00034440136
0.00013128334
2.5625992e-12
-0.0003618608
0.00011060107
3.0565673e-12
-0.00037650591
8.7125165e-05
3.5006709e-12
-0.00038797343
6.1084016e-05
3.9443111e-12
-0.00039590851
3.2801348e-05
4.4521984e-12
-0.00039997478
2.710316e-06
5.0138933e-12
-0.00039986934
-2.8638542e-05
5.4561066e-12
-0.00039533939
-6.056837e-05
5.8952191e-12
-0.00038620531
-9.2281018e-05
6.3213966e-12
-0.00037238582
-0.00012286475
6.7127996e-12
-0.00035392589
-0.00015131475
7.0218776e-12
-0.00033102473
-0.00017656623
7.1996966e-12
-0.0003040608
-0.00019754224
7.2402932e-12
-0.00027360964
-0.00021321673
7.1817985e-12
-0.00024044983
-0.00022269135
7.0653561e-12
-0.00020555221
-0.00022528158
6.9146688e-12
-0.00017004882
-0.00022060467
6.7717698e-12
-0.0001351802
-0.00020865836
6.7187236e-12
-0.00010222332
-0.00018987818
6.6384422e-12
-7.2406515e-05
-0.00016516149
6.1539135e-12
-4.6821415e-05
-0.00013585112
6.5167663e-12
-2.6343448e-05
-0.00010367754
1.080475e-11
-1.1572562e-05
-7.06604e-05
7.0830742e-12
-2.8013923e-06
-3.8984875e-05
-1.7943036e-11
-1.0958467e-05
2.7684334e-11
-4.1272461e-06
2.6004673e-05
-3.0780289e-11
-1.4896922e-05
7.1556062e-05
3.7872432e-11
-3.0922121e-05
0.0001103245
6.3245336e-13
-5.1023892e-05
0.00014242771
-5.6980972e-12
-7.4211183e-05
0.00016823503
-3.5232258e-14
-9.9659221e-05
0.00018822916
4.3643876e-13
-0.00012668338
0.00020292631
-1.1654101e-13
-0.00015471172
0.00021281767
-5.4587646e-14
-0.00018325882
0.00021832962
8.9351024e-14
-0.00021190209
0.00021980267
2.4005031e-13
-0.0002402614
0.00021748624
4.0381221e-13
-0.00026798225
0.00021154609
6.0473952e-13
-0.00029472248
0.00020208102
8.8933419e-13
-0.00032014215
0.00018914564
1.2287378e-12
-0.00034389628
0.00017277616
1.6130157e-12
-0.00036563015
0.0001530172
2.069712e-12
-0.00038497678
0.00012994771
2.5476641e-12
-0.00040155689
0.00010370526
3.000113e-12
-0.00041498125
7.4508371e-05
3.4699164e-12
-0.00042485626
4.2676359e-05
4.0185995e-12
-0.00043079285
8.6468985e-06
4.6446612e-12
-0.00043242116
-2.701024e-05
5.1524075e-12
-0.00042940778
-6.358176e-05
5.6649404e-12
-0.00042148105
-0.00010020775
6.1704711e-12
-0.00040846039
-0.00013588542
6.6529001e-12
-0.00039029033
-0.0001694848
7.0660021e-12
-0.00036707712
-0.00019977945
7.3436864e-12
-0.0003391243
-0.00022549506
7.4513666e-12
-0.00030696272
-0.00024537832
7.4077468e-12
-0.00027136861
-0.00025828546
7.2593032e-12
-0.00023336327
-0.00026328692
7.044563e-12
-0.00019418813
-0.00025977982
6.8388011e-12
-0.00015525155
-0.00024759494
6.7421166e-12
-0.00011804815
-0.00022708159
6.6193394e-12
-8.4056815e-05
-0.00019915283
6.0266635e-12
-5.4629607e-05
-0.00016527834
6.4422538e-12
-3.0886951e-05
-0.00012742021
1.1540984e-11
-1.3635617e-05
-8.7911741e-05
7.1482274e-12
-3.3207379e-06
-4.9299725e-05
-2.2517455e-11
-1.4279237e-05
3.1666516e-11
-4.328641e-06
3.033335e-05
-3.2477352e-11
-1.5610842e-05
8.2838217e-05
3.9579216e-11
-3.2383385e-05
0.00012709704
4.7836935e-13
-5.3404378e-05
0.00016344872
-6.1923276e-12
-7.7632634e-05
0.00019246328
-2.8532005e-13
-0.00010420588
0.0002148024
1.6063453e-13
-0.00013241398
0.00023113442
-4.7285826e-13
-0.00016167041
0.0002420741
-4.597177e-13
-0.00019148458
0.00024814379
-3.6614166e-13
-0.00022143649
0.00024975457
-2.4130321e-13
-0.00025115445
0.0002472042
-7.7736223e-14
-0.00028029638
0.00024068802
1.3327035e-13
-0.00030853446
0.0002303191
4.233675e-13
-0.00033554296
0.00021615414
7.5201173e-13
-0.00036098883
0.00019822203
1.1085971e-12
-0.00038452468
0.00017655305
1.5296037e-12
-0.00040578395
0.00015120698
1.9829901e-12
-0.00042437843
0.00012229974
2.4393925e-12
-0.00043989826
9.0028197e-05
2.9348507e-12
-0.00045191528
5.4693373e-05
3.5059724e-12
-0.00045999027
1.6721892e-05
4.1419975e-12
-0.00046368577
-2.3314744e-05
4.7395839e-12
-0.00046258397
-6.4683568e-05
5.3239519e-12
-0.00045631251
-0.00010647922
5.9015198e-12
-0.00044457714
-0.00014762078
6.475034e-12
-0.00042720151
-0.00018686044
7.0026e-12
-0.00040417231
-0.00022280865
7.4025944e-12
-0.00037568674
-0.00025398064
7.6142083e-12
-0.00034219695
-0.00027886812
7.6310428e-12
-0.00030444419
-0.00029603823
7.488355e-12
-0.00026347366
-0.00030425746
7.2312729e-12
-0.00022062105
-0.00030263243
6.9579904e-12
-0.00017746334
-0.00029075266
6.7950715e-12
-0.00013573172
-0.00026881321
6.6035194e-12
-9.7191871e-05
-0.00023769268
5.8669239e-12
-6.3505252e-05
-0.00019896496
6.3446218e-12
-3.6091942e-05
-0.00015483353
1.2397049e-11
-1.6018306e-05
-0.00010798538
7.2372919e-12
-3.9272496e-06
-6.1390746e-05
-2.7818487e-11
-1.8206523e-05
3.629713e-11
-4.482618e-06
3.4816006e-05
-3.3826733e-11
-1.61611e-05
9.4516652e-05
4.0832072e-11
-3.3516853e-05
0.0001444528
2.7417689e-13
-5.5261017e-05
0.00018519289
-6.6783258e-12
-8.0313963e-05
0.00021751623
-5.9893106e-13
-0.00010778422
0.00024227266
-1.8282391e-13
-0.00013694205
0.00026029225
-8.8093619e-13
-0.00016719075
0.0002723228
-8.9631488e-13
-0.00019803821
0.00027899126
-8.2839611e-13
-0.00022907051
0.00028078687
-7.0910464e-13
-0.00025992817
0.00027806186
-5.3314537e-13
-0.00029028575
0.0002710456
-3.1242996e-13
-0.00031983471
0.00025986806
-2.8880809e-14
-0.0003482692
0.00024458862
2.7467886e-13
-0.0003752745
0.00022522733
5.9355493e-13
-0.0004005177
0.00020179625
9.7544371e-13
-0.00042364043
0.00017432972
1.4068202e-12
-0.00044425375
0.00014291305
1.8674208e-12
-0.00046193548
0.00010770992
2.3840584e-12
-0.00047623081
6.8988697e-05
2.9708403e-12
-0.00048665699
2.7148075e-05
3.6213395e-12
-0.00049271364
-1.7258099e-05
4.2727535e-12
-0.00049389946
-6.3497758e-05
4.9104887e-12
-0.00048973742
-0.00011064126
5.5484283e-12
-0.00047980913
-0.00015754907
6.2002728e-12
-0.00046379897
-0.00020287061
6.8296859e-12
-0.00044154721
-0.00024506042
7.3487865e-12
-0.00041310969
-0.00028241816
7.6769563e-12
-0.00037881873
-0.00031315908
7.7866315e-12
-0.0003393372
-0.00033551978
7.6926775e-12
-0.00029569444
-0.00034790022
7.4350599e-12
-0.00024929125
-0.00034903562
7.1190852e-12
-0.00020186172
-0.0003381822
6.8898026e-12
-0.0001553847
-0.00031529024
6.609064e-12
-0.00011194729
-0.0002811301
5.6890152e-12
-7.3574629e-05
-0.00023733763
6.2394358e-12
-4.2052087e-05
-0.00018635608
1.3421064e-11
-1.8772636e-05
-0.00013126484
7.3896921e-12
-4.6370972e-06
-7.5526242e-05
-3.3948299e-11
-2.2843664e-05
4.1727207e-11
-4.5860343e-06
3.9402078e-05
-3.4820213e-11
-1.6537698e-05
0.00010646827
4.1582817e-11
-3.4302769e-05
0.00016221787
1.0540644e-14
-5.6561289e-05
0.00020745142
-7.1563204e-12
-8.2206345e-05
0.00024316128
-9.7132188e-13
-0.00011032489
0.0002703912
-5.7987938e-13
-0.0001401728
0.00029014016
-1.3158215e-12
-0.00017114689
0.00030329689
-1.3359054e-12
-0.00020275666
0.00031060103
-1.2718482e-12
-0.0002345972
0.00031262741
-1.1475494e-12
-0.00026632454
0.00030978919
-9.5863624e-13
-0.00029763381
0.00030235487
-7.3701424e-13
-0.00032824048
0.00029047474
-4.731645e-13
-0.00035786434
0.00027421248
-2.0153999e-13
-0.00038621586
0.00025357885
8.1902601e-14
-0.00041298466
0.00022856505
4.3072008e-13
-0.00043782979
0.00019917485
8.4780598e-13
-0.00046037195
0.00016545521
1.3168821e-12
-0.0004801879
0.00012752588
1.849232e-12
-0.00049680791
8.5608702e-05
2.4442675e-12
-0.00050971709
4.0057253e-05
3.1024213e-12
-0.00051836221
-8.6129776e-06
3.7877346e-12
-0.00052216555
-5.9694423e-05
4.4689456e-12
-0.00052054769
-0.00011225913
5.1607897e-12
-0.00051296138
-0.00016513539
5.8792613e-12
-0.00049893785
-0.00021689415
6.5922084e-12
-0.00047814621
-0.00026585207
7.2123474e-12
-0.00045046456
-0.00031009982
7.6478829e-12
-0.00041605849
-0.00034756516
7.8570961e-12
-0.00037545849
-0.00037611977
7.8346059e-12
-0.00032962338
-0.00039373535
7.607604e-12
-0.00027997241
-0.00039868659
7.2787249e-12
-0.00022836812
-0.0003897865
6.9996131e-12
-0.00017703496
-0.0003666234
6.6197936e-12
-0.00012841024
-0.00032975482
5.4762887e-12
-8.4940063e-05
-0.0002808078
6.1107961e-12
-4.8851849e-05
-0.00022244431
1.4631672e-11
-2.1948444e-05
-0.00015816825
7.6247337e-12
-5.4664517e-06
-9.2008185e-05
-4.101623e-11
-2.8310166e-05
4.8121943e-11
-4.6369707e-06
4.4039088e-05
-3.5439566e-11
-1.6734713e-05
0.00011856597
4.1828615e-11
-3.4729153e-05
0.00018021231
-2.8963091e-13
-5.7284301e-05
0.00023000658
-7.585635e-12
-8.327606e-05
0.00026915304
-1.3543904e-12
-0.00011177636
0.00029889151
-9.798138e-13
-0.00014203093
0.00032039473
-1.7287443e-12
-0.00017343307
0.00033469905
-1.7381536e-12
-0.00020549626
0.00034266422
-1.6704825e-12
-0.00023782702
0.00034495817
-1.5443041e-12
-0.00027009967
0.00034206185
-1.3511794e-12
-0.00030203349
0.0003342887
-1.1384713e-12
-0.00033337249
0.00032181373
-9.0159849e-13
-0.00036386778
0.00030470777
-6.589405e-13
-0.00039326213
0.0002829732
-3.9806595e-13
-0.00042127636
0.00025657928
-6.8670054e-14
-0.00044759735
0.00022549583
3.4295233e-13
-0.0004718676
0.00018972546
8.2192297e-13
-0.00049367674
0.00014933502
1.363882e-12
-0.00051255541
0.00010448737
1.9612986e-12
-0.00052797264
5.5474484e-05
2.6210232e-12
-0.00053933816
2.7525407e-06
3.3303138e-12
-0.00054601169
-5.3020899e-05
4.0499745e-12
-0.00054732124
-0.00011094957
4.796331e-12
-0.0005425938
-0.00016986284
5.5750391e-12
-0.00053120075
-0.0002282872
6.3565659e-12
-0.00051262061
-0.00028443221
7.0599921e-12
-0.00048651939
-0.00033620105
7.5886042e-12
-0.00045284611
-0.00038123844
7.8909053e-12
-0.00041193601
-0.00041702988
7.94374e-12
-0.00036460729
-0.00044106408
7.7540376e-12
-0.00031223067
-0.00045106322
7.4167064e-12
-0.00025674608
-0.00044527109
7.0909848e-12
-0.00020060183
-0.00042276767
6.5926564e-12
-0.00014660209
-0.00038375457
5.1728006e-12
-9.7670094e-05
-0.0003297398
5.8942742e-12
-5.656209e-05
-0.00026355233
1.599407e-11
-2.5592087e-05
-0.00018913826
7.9040435e-12
-6.4313827e-06
-0.00011116883
-4.9165966e-11
-3.4741609e-05
5.5604931e-11
-4.6352977e-06
4.8674424e-05
-3.5674726e-11
-1.6752121e-05
0.00013068274
4.1604378e-11
-3.4795193e-05