/*--------------------------------*- C++ -*----------------------------------*\
  =========                 |
  \\      /  F ield         | OpenFOAM: The Open Source CFD Toolbox
   \\    /   O peration     | Website:  https://openfoam.org
    \\  /    A nd           | Version:  7
     \\/     M anipulation  |
\*---------------------------------------------------------------------------*/
FoamFile
{
    version     2.0;
    format      ascii;
    class       volVectorField;
    location    "14";
    object      U;
}
// * * * * * * * * * * * * * * * * * * * * * * * * * * * * * * * * * * * * * //

dimensions      [0 1 -1 0 0 0 0];

internalField   nonuniform List<vector> 
16000
(
(6.6671224e-05 -6.6531964e-05 -4.2374292e-08)
(0.00016355356 -5.5839866e-05 6.1283231e-06)
(0.00014205989 6.9859854e-07 1.9621139e-05)
(-5.0667058e-05 6.1964799e-05 3.7021565e-05)
(-0.00040985312 0.00011559624 5.5103687e-05)
(-0.00090853125 0.0001576363 7.1903678e-05)
(-0.001516686 0.0001883496 8.6086735e-05)
(-0.0022052169 0.00020942296 9.6839261e-05)
(-0.002948212 0.00022267113 0.0001037015)
(-0.0037233082 0.0002295935 0.00010642682)
(-0.0045111038 0.00023125323 0.00010488885)
(-0.0052942741 0.00022827901 9.9024892e-05)
(-0.0060566777 0.00022092656 8.8810743e-05)
(-0.006782608 0.00020917183 7.4257447e-05)
(-0.0074562763 0.00019281814 5.5423983e-05)
(-0.0080615725 0.00017160734 3.2440614e-05)
(-0.0085821208 0.00014532782 5.5371516e-06)
(-0.0090016184 0.00011391451 -2.4928768e-05)
(-0.0093044295 7.7536935e-05 -5.8447698e-05)
(-0.0094763915 3.6671344e-05 -9.4342609e-05)
(-0.0095057764 -7.8500919e-06 -0.00013176473)
(-0.0093843176 -5.4833569e-05 -0.00016970402)
(-0.0091082447 -0.00010269976 -0.00020701538)
(-0.0086792194 -0.00014955637 -0.00024246237)
(-0.0081050509 -0.00019327643 -0.0002747766)
(-0.0074001155 -0.00023161707 -0.00030273042)
(-0.0065853859 -0.00026236973 -0.00032521837)
(-0.0056880093 -0.00028352795 -0.000341341)
(-0.0047404068 -0.0002934564 -0.00035048419)
(-0.0037789127 -0.00029104258 -0.00035238629)
(-0.0028420211 -0.0002758135 -0.00034718658)
(-0.0019683475 -0.00024800274 -0.00033545068)
(-0.0011944191 -0.00020856771 -0.00031817234)
(-0.00055234043 -0.00015919399 -0.00029675433)
(-6.738782e-05 -0.00010240366 -0.00027296394)
(0.0002440144 -4.1813487e-05 -0.00024885606)
(0.00037816884 1.7741192e-05 -0.00022681095)
(0.00034926833 6.6940755e-05 -0.00020926198)
(0.00020596241 8.9740719e-05 -0.00019887915)
(5.7423654e-05 5.736596e-05 -0.00018442821)
(5.8303243e-05 -0.00016569622 -6.1927164e-06)
(4.1386873e-05 -3.8960298e-05 9.6489156e-08)
(-0.00029450976 0.00024895066 1.1717771e-05)
(-0.0010101885 0.00056198586 2.6064447e-05)
(-0.0020975404 0.00084692151 4.1026101e-05)
(-0.003511132 0.0010822044 5.5008811e-05)
(-0.0051901178 0.001263133 6.6885982e-05)
(-0.0070701853 0.0013927219 7.5906515e-05)
(-0.0090896469 0.0014764982 8.1589419e-05)
(-0.011191633 0.001519998 8.3635281e-05)
(-0.013324147 0.0015276584 8.1861699e-05)
(-0.01543909 0.0015024393 7.6159327e-05)
(-0.017490932 0.0014458761 6.6470301e-05)
(-0.019435495 0.0013583914 5.278429e-05)
(-0.021229116 0.0012397508 3.5147633e-05)
(-0.022828357 0.0010895845 1.3681609e-05)
(-0.024190326 0.00090791933 -1.1394787e-05)
(-0.025273597 0.00069567724 -3.9741719e-05)
(-0.026039676 0.00045510692 -7.0878874e-05)
(-0.026454899 0.00019011645 -0.00010417264)
(-0.026492646 -9.352274e-05 -0.00013883306)
(-0.026135603 -0.00038809744 -0.00017392962)
(-0.025378011 -0.00068408908 -0.0002084076)
(-0.024227651 -0.00097046205 -0.00024113566)
(-0.022707232 -0.0012351449 -0.00027095924)
(-0.020855125 -0.001465685 -0.00029676782)
(-0.01872519 -0.001650038 -0.00031757024)
(-0.016385607 -0.0017774375 -0.00033257159)
(-0.013916633 -0.0018392718 -0.00034124508)
(-0.011407339 -0.0018298849 -0.00034339185)
(-0.0089514309 -0.0017472279 -0.00033918214)
(-0.0066423533 -0.0015933061 -0.0003291736)
(-0.0045678906 -0.0013744259 -0.00031430464)
(-0.0028044385 -0.00110135 -0.00029586439)
(-0.0014110061 -0.00078965897 -0.000275442)
(-0.0004229577 -0.0004606554 -0.00025485008)
(0.00015449565 -0.00014288764 -0.00023600259)
(0.00035579816 0.0001218375 -0.00022091446)
(0.00027480334 0.0002706711 -0.00021168385)
(9.0012228e-05 0.00020487011 -0.00019548924)
(2.0387623e-06 -0.00014808034 -1.9952696e-05)
(-0.00025558759 0.00029771527 -1.1308517e-05)
(-0.001049322 0.0010234665 5.7551993e-07)
(-0.0023855107 0.0017963865 1.3537392e-05)
(-0.0042353671 0.0025078116 2.6552188e-05)
(-0.0065391892 0.0031071735 3.8480421e-05)
(-0.0092160008 0.0035774252 4.8495509e-05)
(-0.012177776 0.0039194856 5.6037547e-05)
(-0.015337425 0.0041419441 6.072546e-05)
(-0.018612014 0.0042551928 6.2302898e-05)
(-0.021923522 0.0042683834 6.0597759e-05)
(-0.02519824 0.0041881261 5.5492818e-05)
(-0.02836559 0.0040183154 4.6912288e-05)
(-0.031356974 0.0037606774 3.4821514e-05)
(-0.034105039 0.0034157448 1.9236887e-05)
(-0.036543599 0.0029840473 2.4309796e-07)
(-0.038608328 0.0024673542 -2.1985917e-05)
(-0.040238195 0.0018698457 -4.7165711e-05)
(-0.04137759 0.0011991148 -7.4882932e-05)
(-0.041978979 0.00046691523 -0.00010458307)
(-0.042005861 -0.00031040602 -0.00013556889)
(-0.041435862 -0.0011118132 -0.00016700609)
(-0.040263658 -0.0019120148 -0.0001979486)
(-0.038503451 -0.0026822184 -0.0002273744)
(-0.036190727 -0.0033913715 -0.00025423633)
(-0.03338306 -0.0040077928 -0.00027752475)
(-0.030159711 -0.0045011101 -0.00029633777)
(-0.026619896 -0.0048443792 -0.00030995313)
(-0.022879618 -0.0050162265 -0.00031789534)
(-0.019067108 -0.0050028353 -0.0003199906)
(-0.01531699 -0.0047996099 -0.00031640301)
(-0.011763399 -0.004412404 -0.00030764741)
(-0.0085323155 -0.0038583053 -0.00029457629)
(-0.005733424 -0.0031661315 -0.00027834186)
(-0.0034516836 -0.0023770415 -0.00026033683)
(-0.0017387813 -0.0015459519 -0.00024211522)
(-0.0006047522 -0.00074463341 -0.00022528578)
(-8.9326933e-06 -6.7231954e-05 -0.00021143968)
(0.00015491249 0.00035947204 -0.00020226342)
(7.3417632e-05 0.00035386084 -0.00018534185)
(-6.4574275e-05 5.0950383e-05 -3.8177845e-05)
(-0.00060765986 0.0010456771 -2.5618157e-05)
(-0.0019284496 0.0023802627 -1.1653912e-05)
(-0.0039422577 0.0037534234 1.619827e-06)
(-0.0065820501 0.005010664 1.4186856e-05)
(-0.0097688264 0.0060740785 2.5288651e-05)
(-0.013402828 0.0069134819 3.438791e-05)
(-0.017376916 0.0075263068 4.1149872e-05)
(-0.021584553 0.0079230965 4.5338852e-05)
(-0.025922814 0.0081184996 4.6783239e-05)
(-0.030293267 0.0081262213 4.5353005e-05)
(-0.034601632 0.0079566706 4.0942349e-05)
(-0.038756846 0.0076164761 3.3464735e-05)
(-0.04267016 0.0071092553 2.2858434e-05)
(-0.046254676 0.0064371583 9.1001505e-06)
(-0.049425602 0.0056028111 -7.7753305e-06)
(-0.052101321 0.00461137 -2.7652416e-05)
(-0.054205283 0.0034724561 -5.0311847e-05)
(-0.055668612 0.0022017939 -7.5410591e-05)
(-0.056433262 0.00082240967 -0.00010246766)
(-0.056455476 -0.0006347185 -0.000130859)
(-0.055709351 -0.0021306742 -0.00015982037)
(-0.054190167 -0.0036193094 -0.00018847072)
(-0.051917161 -0.0050486879 -0.00021584406)
(-0.048935505 -0.006363255 -0.00024093849)
(-0.045317177 -0.0075066568 -0.00026277754)
(-0.041160466 -0.0084250737 -0.00028047996)
(-0.036587929 -0.0090708702 -0.00029333175)
(-0.031742694 -0.0094063042 -0.00030085379)
(-0.026783085 -0.0094070144 -0.00030285683)
(-0.021875684 -0.0090650062 -0.00029947684)
(-0.017187065 -0.0083909344 -0.00029118511)
(-0.012874507 -0.007415614 -0.00027877069)
(-0.009076104 -0.0061909063 -0.00026329572)
(-0.0059007116 -0.0047904123 -0.00024602748)
(-0.0034181578 -0.0033107979 -0.00022835434)
(-0.0016499285 -0.0018747676 -0.00021170155)
(-0.000560359 -0.00063579291 -0.0001974605)
(-5.0503136e-05 0.0002136518 -0.00018686314)
(3.7963922e-05 0.00041304823 -0.00016805402)
(-0.00013071084 0.00044564369 -5.7662006e-05)
(-0.00096983921 0.0022412935 -4.0582072e-05)
(-0.0028429911 0.0043555592 -2.3720766e-05)
(-0.0055585417 0.006451172 -9.3093653e-06)
(-0.0089993063 0.0083451665 3.5872066e-06)
(-0.013060768 0.0099412081 1.4544657e-05)
(-0.017622478 0.011199982 2.3299396e-05)
(-0.022559376 0.012116724 2.9746874e-05)
(-0.027748583 0.012703987 3.3809939e-05)
(-0.033071227 0.012980322 3.5415788e-05)
(-0.038412828 0.012963622 3.4487777e-05)
(-0.043662876 0.012667904 3.0938027e-05)
(-0.048714014 0.012102594 2.4670193e-05)
(-0.053461335 0.011273562 1.5591383e-05)
(-0.057802199 0.010185271 3.6308089e-06)
(-0.061636795 0.0088435004 -1.1236566e-05)
(-0.064869541 0.0072582324 -2.8963686e-05)
(-0.067411313 0.0054463641 -4.9404927e-05)
(-0.06918239 0.0034339796 -7.2292306e-05)
(-0.070115935 0.0012579829 -9.7217261e-05)
(-0.070161775 -0.0010330747 -0.00012362098)
(-0.069290255 -0.0033791118 -0.00015079592)
(-0.06749584 -0.0057095932 -0.00017790238)
(-0.064800183 -0.0079456923 -0.00020399981)
(-0.061254348 -0.010003461 -0.00022809452)
(-0.056939892 -0.011797928 -0.00024920144)
(-0.05196851 -0.013247957 -0.00026641577)
(-0.046480015 -0.01428159 -0.00027898834)
(-0.040638475 -0.014841536 -0.00028639695)
(-0.034626437 -0.014890412 -0.00028840496)
(-0.028637293 -0.014415321 -0.00028509888)
(-0.022866028 -0.013431437 -0.00027689843)
(-0.017498681 -0.011984407 -0.00026453635)
(-0.01270107 -0.010151635 -0.00024900853)
(-0.008607457 -0.0080428169 -0.00023149758)
(-0.0053098732 -0.0058005545 -0.00021328276)
(-0.0028479649 -0.003602017 -0.00019567684)
(-0.0012001154 -0.0016614767 -0.0001799444)
(-0.00028899 -0.00023529525 -0.00016680945)
(-2.5297131e-06 0.00034951364 -0.00014556994)
(-0.00019264001 0.0010307075 -7.6109477e-05)
(-0.0013224233 0.0038892215 -5.4197108e-05)
(-0.0037474244 0.0069613576 -3.4017928e-05)
(-0.0071648498 0.0099008053 -1.7947697e-05)
(-0.011401416 0.012514314 -4.1753827e-06)
(-0.016322404 0.014698844 7.1639748e-06)
(-0.021784289 0.016412844 1.6056369e-05)
(-0.027643915 0.017652958 2.2616337e-05)
(-0.033763598 0.018435363 2.692218e-05)
(-0.040011179 0.018783051 2.9000512e-05)
(-0.046259426 0.018718161 2.8829076e-05)
(-0.05238519 0.018258233 2.6337467e-05)
(-0.05826846 0.017415489 2.1416712e-05)
(-0.063791718 0.016198244 1.3937348e-05)
(-0.06883991 0.014613722 3.7735973e-06)
(-0.073301216 0.012671582 -9.1680098e-06)
(-0.077068665 0.010387641 -2.491746e-05)
(-0.08004257 0.0077873492 -4.340985e-05)
(-0.082133665 0.0049086827 -6.4456492e-05)
(-0.083266774 0.0018041925 -8.7721394e-05)
(-0.083384792 -0.0014579886 -0.00011270626)
(-0.082452754 -0.0047943382 -0.00013874794)
(-0.080461717 -0.0081074039 -0.00016503003)
(-0.077432183 -0.011288639 -0.00019061256)
(-0.073416735 -0.014222556 -0.00021447871)
(-0.068501576 -0.016792124 -0.00023559811)
(-0.062806639 -0.018885202 -0.00025300221)
(-0.056483956 -0.020401712 -0.00026586523)
(-0.049714018 -0.021261112 -0.00027358227)
(-0.042699964 -0.021409654 -0.00027583477)
(-0.035659585 -0.02082687 -0.00027263382)
(-0.028815316 -0.019530763 -0.0002643337)
(-0.022382618 -0.017581323 -0.00025161191)
(-0.016557381 -0.015082265 -0.00023541622)
(-0.011503304 -0.012181236 -0.00021688091)
(-0.0073402228 -0.0090692013 -0.00019723042)
(-0.0041328387 -0.0059799538 -0.0001777377)
(-0.001881059 -0.0031893718 -0.00015963669)
(-0.00053612631 -0.0010156974 -0.00014325361)
(-4.1254936e-05 0.00015786706 -0.00011915485)
(-0.00024981217 0.0017970465 -9.1565555e-05)
(-0.001657742 0.0059783055 -6.4673164e-05)
(-0.0046188122 0.010188104 -4.1017009e-05)
(-0.0087215724 0.014092027 -2.2988023e-05)
(-0.013735033 0.01750339 -7.9748646e-06)
(-0.019491747 0.020324927 4.1392883e-06)
(-0.02582349 0.022521271 1.3564813e-05)
(-0.032568683 0.024095673 2.0617365e-05)
(-0.039575733 0.025070863 2.5518825e-05)
(-0.046701073 0.025475738 2.8387262e-05)
(-0.053807282 0.02533728 2.9248679e-05)
(-0.060761525 0.024676739 2.8044387e-05)
(-0.067434246 0.023509161 2.4646521e-05)
(-0.073698382 0.021845363 1.8881868e-05)
(-0.079429322 0.019695489 1.0561561e-05)
(-0.084505717 0.017073377 -4.8494617e-07)
(-0.088811163 0.014001121 -1.4373222e-05)
(-0.092236688 0.010513294 -3.1126657e-05)
(-0.094683944 0.006660455 -5.0641487e-05)
(-0.096068943 0.0025116348 -7.265693e-05)
(-0.096326167 -0.0018444393 -9.673388e-05)
(-0.095412831 -0.0062995434 -0.00012224692)
(-0.093313115 -0.010727689 -0.00014839053)
(-0.090042078 -0.014988527 -0.00017420631)
(-0.085648932 -0.018932388 -0.00019862853)
(-0.080219369 -0.022406906 -0.00022054921)
(-0.073876507 -0.025265056 -0.00023889826)
(-0.066780065 -0.027374249 -0.0002527319)
(-0.059123371 -0.028626017 -0.00026132023)
(-0.051127894 -0.028945611 -0.00026422318)
(-0.043035162 -0.0283008 -0.0002613437)
(-0.035096184 -0.026709069 -0.00025294895)
(-0.027558748 -0.024242611 -0.00023965459)
(-0.020653365 -0.021030704 -0.00022237175)
(-0.014579048 -0.017259521 -0.00020221739)
(-0.0094902014 -0.013169957 -0.00018041188)
(-0.005483556 -0.0090543282 -0.00015825829)
(-0.0025867733 -0.0052514749 -0.00013704504)
(-0.00078424423 -0.0021414686 -0.00011677625)
(-7.6909389e-05 -0.0001615706 -8.9575243e-05)
(-0.00030257308 0.0027338367 -0.00010236364)
(-0.00197302 0.008489158 -7.0396625e-05)
(-0.0054453532 0.014013381 -4.3283435e-05)
(-0.010205365 0.019000471 -2.3167257e-05)
(-0.015965651 0.023285278 -6.6992333e-06)
(-0.022525533 0.026788454 6.4631636e-06)
(-0.029691635 0.029489783 1.6732761e-05)
(-0.037284067 0.031405229 2.4606652e-05)
(-0.045138163 0.032567912 3.0434356e-05)
(-0.053100495 0.033014847 3.4412533e-05)
(-0.061025569 0.032778993 3.6604644e-05)
(-0.068773361 0.031885775 3.6954194e-05)
(-0.076207446 0.030353176 3.5305459e-05)
(-0.083193873 0.028194448 3.1432555e-05)
(-0.08960092 0.025422517 2.5074314e-05)
(-0.095299775 0.022055232 1.5973539e-05)
(-0.1001661 0.018120763 3.9193042e-06)
(-0.10408241 0.013662594 -1.1209644e-05)
(-0.10694118 0.0087436495 -2.94032e-05)
(-0.10864856 0.0034492742 -5.0482816e-05)
(-0.10912853 -0.0021112241 -7.4072797e-05)
(-0.10832734 -0.007804647 -9.9585868e-05)
(-0.10621824 -0.013475715 -0.00012622224)
(-0.102806 -0.018950849 -0.00015299333)
(-0.098131097 -0.024043907 -0.00017876504)
(-0.092273191 -0.028563907 -0.00020232402)
(-0.085353307 -0.032324612 -0.00022246288)
(-0.077534299 -0.035155654 -0.0002380774)
(-0.069018975 -0.036914657 -0.00024826617)
(-0.0600454 -0.037499596 -0.00025242086)
(-0.05087906 -0.036860411 -0.00025029408)
(-0.041801857 -0.035008815 -0.00024203377)
(-0.033098286 -0.032025284 -0.0002281769)
(-0.025039604 -0.02806246 -0.00020960059)
(-0.017867505 -0.023344701 -0.00018742863)
(-0.011778837 -0.018164167 -0.00016292298)
(-0.0069098378 -0.012874254 -0.00013748273)
(-0.0033219633 -0.0078799193 -0.00011253223)
(-0.001036371 -0.0036262715 -8.7842339e-05)
(-0.00011091941 -0.00060780513 -5.7405656e-05)
(-0.00035123844 0.003829734 -0.00010704286)
(-0.0022668034 0.011397765 -6.9896095e-05)
(-0.0062196682 0.018406674 -3.9456756e-05)
(-0.011600354 0.024592248 -1.7237246e-05)
(-0.018068172 0.029823956 7.9735201e-07)
(-0.025390298 0.034051666 1.5198025e-05)
(-0.033348888 0.037279185 2.6562253e-05)
(-0.041746479 0.039541646 3.5549764e-05)
(-0.050406384 0.04088694 4.2620829e-05)
(-0.059166796 0.041362939 4.8035934e-05)
(-0.06787604 0.04101013 5.188305e-05)
(-0.076389109 0.039858848 5.4096374e-05)
(-0.084565073 0.037930205 5.4481753e-05)
(-0.092265444 0.035239716 5.275039e-05)
(-0.099353553 0.031802652 4.8558391e-05)
(-0.10569491 0.027640222 4.1550881e-05)
(-0.11115847 0.022785831 3.140975e-05)
(-0.11561875 0.017290847 1.7903279e-05)
(-0.11895871 0.011229419 9.3490021e-07)
(-0.12107328 0.0047020267 -1.9411723e-05)
(-0.12187357 -0.0021624926 -4.2835369e-05)
(-0.12129149 -0.0092066898 -6.879541e-05)
(-0.11928493 -0.016246097 -9.6500823e-05)
(-0.11584315 -0.023073128 -0.00012492928)
(-0.11099214 -0.029463219 -0.00015286556)
(-0.10479947 -0.035183426 -0.00017896773)
(-0.097378279 -0.040003456 -0.00020185668)
(-0.088889488 -0.043708862 -0.00022022288)
(-0.079541593 -0.046115871 -0.00023294062)
(-0.069587273 -0.047086969 -0.00023917671)
(-0.059316231 -0.046546016 -0.00023847895)
(-0.049043997 -0.044491448 -0.00023083031)
(-0.039096931 -0.04100606 -0.00021665908)
(-0.02979429 -0.036262105 -0.00019679961)
(-0.021429107 -0.030520952 -0.00017239824)
(-0.014249799 -0.024127462 -0.00014479842)
(-0.0084405651 -0.01749984 -0.0001155577)
(-0.0041031691 -0.011114635 -8.6315448e-05)
(-0.0012993175 -0.0054886816 -5.6677498e-05)
(-0.00014459529 -0.0011822283 -2.272986e-05)
(-0.00039587678 0.005072994 -0.00010428649)
(-0.0025375834 0.014676774 -6.1821214e-05)
(-0.0069355489 0.023331288 -2.8256985e-05)
(-0.01289337 0.030825585 -3.9885228e-06)
(-0.020021355 0.037075201 1.5659817e-05)
(-0.028056751 0.042069477 3.143604e-05)
(-0.03675884 0.045844668 4.4108052e-05)
(-0.045913923 0.048461511 5.4481319e-05)
(-0.055334632 0.049987267 6.3110841e-05)
(-0.064852321 0.050483725 7.030633e-05)
(-0.074310943 0.050000754 7.6167089e-05)
(-0.083562538 0.04857454 8.0606094e-05)
(-0.092463839 0.046229581 8.3379687e-05)
(-0.10087399 0.042983386 8.4125285e-05)
(-0.10865336 0.03885287 8.2404862e-05)
(-0.11566347 0.033861497 7.7753257e-05)
(-0.12176771 0.02804644 6.9730846e-05)
(-0.1268331 0.021465151 5.7979136e-05)
(-0.13073275 0.014200944 4.2276727e-05)
(-0.13334912 0.0063672546 2.2593186e-05)
(-0.13457813 -0.0018896523 -8.6371305e-07)
(-0.13433395 -0.010389819 -2.7619206e-05)
(-0.1325547 -0.018920643 -5.6902485e-05)
(-0.12920878 -0.027240508 -8.7663618e-05)
(-0.12430151 -0.035084942 -0.00011860187)
(-0.11788183 -0.042175776 -0.00014822906)
(-0.11004841 -0.048233395 -0.00017496191)
(-0.10095418 -0.052991987 -0.00019723806)
(-0.090808488 -0.056217315 -0.00021364703)
(-0.079875644 -0.057726045 -0.00022306198)
(-0.068469041 -0.057405182 -0.00022475556)
(-0.056940178 -0.055229711 -0.00021848245)
(-0.045662592 -0.051276303 -0.00020451482)
(-0.035011481 -0.045731125 -0.00018362036)
(-0.025341053 -0.038890335 -0.00015697212)
(-0.016961918 -0.031153014 -0.00012602783)
(-0.010116237 -0.023007238 -9.2562966e-05)
(-0.0049540039 -0.015009162 -5.8510313e-05)
(-0.0015828899 -0.0077576756 -2.3363673e-05)
(-0.00017989837 -0.0018920574 1.4494688e-05)
(-0.00043631031 0.0064511343 -9.2894388e-05)
(-0.0027833714 0.018295698 -4.4935281e-05)
(-0.007586588 0.028745064 -8.4954154e-06)
(-0.014071646 0.037651598 1.7723636e-05)
(-0.021804891 0.04498693 3.8994143e-05)
(-0.030496606 0.050789055 5.6252961e-05)
(-0.039885443 0.055134454 7.0426805e-05)
(-0.04974326 0.058115633 8.2452092e-05)
(-0.059873603 0.059823823 9.2964287e-05)
(-0.070102617 0.060337942 0.00010230918)
(-0.080271653 0.059719284 0.00011058538)
(-0.09023174 0.058010983 0.0001176736)
(-0.099839327 0.055241243 0.00012327015)
(-0.10895325 0.051429232 0.00012692792)
(-0.11743292 0.046592575 0.00012810286)
(-0.1251375 0.040755505 0.00012620558)
(-0.13192615 0.03395694 0.00012065811)
(-0.1376591 0.026257907 0.00011095493)
(-0.14219955 0.017747974 9.6726092e-05)
(-0.1454166 0.0085503713 7.7800374e-05)
(-0.14718912 -0.0011743731 5.4264127e-05)
(-0.14741056 -0.011226518 2.6494363e-05)
(-0.14599512 -0.021367557 -4.7793497e-06)
(-0.14288507 -0.031322757 -3.849788e-05)
(-0.13805877 -0.040786982 -7.3281312e-05)
(-0.13153945 -0.049433941 -0.00010748577)
(-0.12340375 -0.056929315 -0.00013929528)
(-0.1137893 -0.062947901 -0.00016684584)
(-0.10289981 -0.067194453 -0.00018837409)
(-0.091006495 -0.069427289 -0.00020237666)
(-0.078444275 -0.069482971 -0.00020776134)
(-0.065601731 -0.067299685 -0.00020396852)
(-0.05290429 -0.062936408 -0.00019104357)
(-0.040791258 -0.056584924 -0.00016964284)
(-0.029688905 -0.048572344 -0.00014095411)
(-0.01998238 -0.039353203 -0.00010657214)
(-0.011983949 -0.029491676 -6.8546816e-05)
(-0.0059020137 -0.019634027 -2.9184157e-05)
(-0.0018983171 -0.010474961 1.2095499e-05)
(-0.00021896614 -0.0027499833 5.4425484e-05)
(-0.00047216674 0.0079505489 -7.1777414e-05)
(-0.0030016599 0.022220703 -1.8118134e-05)
(-0.008165761 0.034600527 2.0912681e-05)
(-0.015121948 0.045014595 4.8957119e-05)
(-0.023398167 0.053499348 7.1837158e-05)
(-0.032681159 0.060149513 9.067164e-05)
(-0.042691593 0.065088812 0.00010653611)
(-0.053188964 0.068447269 0.00012048505)
(-0.063969492 0.070344535 0.00013322231)
(-0.074855786 0.070879901 0.00014511887)
(-0.085688341 0.070128247 0.00015626279)
(-0.09631905 0.068140877 0.00016649339)
(-0.10660607 0.064950097 0.00017543797)
(-0.11640999 0.060576369 0.00018255515)
(-0.12559124 0.055036952 0.00018718325)
(-0.13400854 0.048355073 0.00018859395)
(-0.14151837 0.040568929 0.00018605202)
(-0.14797528 0.031740024 0.00017888101)
(-0.15323315 0.021960524 0.00016653307)
(-0.15714752 0.011359417 0.0001486601)
(-0.15957896 0.00010731063 0.000125183)
(-0.16039809 -0.011580327 9.6363079e-05)
(-0.15949184 -0.023442347 6.2828086e-05)
(-0.15677146 -0.035173054 2.5619139e-05)
(-0.15218217 -0.046427006 -1.3823658e-05)
(-0.145714 -0.056827745 -5.370314e-05)
(-0.13741319 -0.065981247 -9.1950069e-05)
(-0.12739314 -0.073494593 -0.00012635163)
(-0.11584336 -0.078999845 -0.00015471746)
(-0.10303481 -0.08218233 -0.00017507036)
(-0.089319253 -0.082811551 -0.00018584106)
(-0.075121267 -0.080771838 -0.00018604131)
(-0.060921417 -0.076088955 -0.0001753884)
(-0.047230865 -0.068948431 -0.00015435385)
(-0.034559602 -0.059701936 -0.00012410533)
(-0.023381554 -0.048859666 -8.6382794e-05)
(-0.014093913 -0.037068831 -4.3562941e-05)
(-0.0069767147 -0.025078566 1.5914197e-06)
(-0.002257473 -0.013696419 4.9706299e-05)
(-0.00026396311 -0.0037748356 9.7253255e-05)
(-0.00050294407 0.0095562049 -3.9966978e-05)
(-0.0031895656 0.026414331 1.9621543e-05)
(-0.0086655376 0.040844818 6.0930615e-05)
(-0.016030569 0.052852127 9.0659187e-05)
(-0.024780149 0.062544896 0.00011512641)
(-0.034581129 0.07008152 0.00013562604)
(-0.045139032 0.075639136 0.00015337335)
(-0.056203191 0.079390518 0.00016952966)
(-0.067564298 0.081487951 0.00018485752)
(-0.079043082 0.0820543 0.00019974497)
(-0.090480868 0.081180277 0.00021426257)
(-0.10173221 0.078926698 0.00022820191)
(-0.11265893 0.075330468 0.00024111482)
(-0.12312545 0.070413035 0.00025235785)
(-0.13299534 0.064190168 0.0002611413)
(-0.14212901 0.056682152 0.00026658345)
(-0.15038223 0.047923722 0.00026777185)
(-0.1576056 0.037973324 0.00026383229)
(-0.16364504 0.026921484 0.00025400462)
(-0.16834327 0.014898145 0.0002377229)
(-0.17154263 0.0020788471 0.00021469757)
(-0.1730898 -0.011310513 0.00018500482)
(-0.17284206 -0.0249907 0.00014913227)
(-0.17067581 -0.038628727 0.00010804967)
(-0.16649753 -0.051840778 6.3217858e-05)
(-0.16025659 -0.06419961 1.6567631e-05)
(-0.15195962 -0.075247557 -2.9571534e-05)
(-0.14168533 -0.084516076 -7.2598123e-05)
(-0.12959815 -0.091552296 -0.00010981889)
(-0.11595847 -0.095952153 -0.00013867263)
(-0.10112684 -0.097398395 -0.00015697674)
(-0.085559468 -0.095700225 -0.00016316628)
(-0.069792735 -0.090829761 -0.00015648985)
(-0.054416086 -0.082949562 -0.00013712171)
(-0.040035151 -0.072425544 -0.00010614173)
(-0.027228732 -0.059821556 -6.5421391e-05)
(-0.016496901 -0.045874682 -1.7709391e-05)
(-0.0082083555 -0.03145156 3.3685552e-05)
(-0.0026725306 -0.017492769 8.9415441e-05)
(-0.00031707327 -0.0049918228 0.00014312201)
(-0.0005280801 0.011251471 3.3665213e-06)
(-0.0033440746 0.030835345 6.9127718e-05)
(-0.0090783174 0.047419677 0.00011237942)
(-0.016783914 0.061095045 0.00014364105)
(-0.025930081 0.07204822 0.00016966916)
(-0.036167487 0.080506977 0.00019192421)
(-0.047189349 0.086707144 0.00021175251)
(-0.058737005 0.090868904 0.0002304125)
(-0.070597344 0.093181109 0.00024871824)
(-0.08259077 0.093793325 0.00026706993)
(-0.094561012 0.092814406 0.00028551711)
(-0.106367 0.090316169 0.00030380088)
(-0.11787612 0.086340784 0.00032139443)
(-0.12895871 0.080910502 0.00033754746)
(-0.1394838 0.074038571 0.00035133422)
(-0.14931586 0.065740409 0.0003617066)
(-0.15831246 0.056044449 0.00036755516)
(-0.16632272 0.045002331 0.0003677798)
(-0.17318687 0.032698315 0.00036137015)
(-0.17873678 0.019257895 0.00034749476)
(-0.18279799 0.0048555434 0.000325597)
(-0.18519371 -0.010278627 0.00029549676)
(-0.18575076 -0.025853546 0.00025747544)
(-0.18430832 -0.041514373 0.00021236047)
(-0.18072957 -0.056842848 0.00016157203)
(-0.17491631 -0.07136244 0.00010713164)
(-0.1668261 -0.084549837 5.161476e-05)
(-0.15649121 -0.095854327 -1.963981e-06)
(-0.14403759 -0.10472623 -5.0338224e-05)
(-0.12970133 -0.11065461 -9.0245011e-05)
(-0.11383943 -0.11321295 -0.00011872911)
(-0.096930876 -0.11210951 -0.00013346315)
(-0.079564646 -0.1072364 -0.0001330383)
(-0.062412299 -0.098710108 -0.00011716744)
(-0.046186387 -0.086894732 -8.6728613e-05)
(-0.031588237 -0.072401842 -4.3678261e-05)
(-0.019242146 -0.056063881 8.8311358e-06)
(-0.0096270472 -0.038880875 6.6850495e-05)
(-0.0031557846 -0.021949692 0.00013103956)
(-0.00038052127 -0.0064325986 0.00019205441)
(-0.0005470249 0.013018104 5.8890573e-05)
(-0.0034623529 0.03543885 0.00013107559)
(-0.009397081 0.054261704 0.00017591582)
(-0.01736948 0.069667798 0.00020855246)
(-0.026828773 0.081926352 0.00023611192)
(-0.037413034 0.091338917 0.0002602116)
(-0.048805866 0.098204341 0.00028232036)
(-0.060742612 0.10279428 0.00030378566)
(-0.073007906 0.10533777 0.00032546865)
(-0.085423211 0.10601415 0.00034778025)
(-0.097836075 0.1049528 0.0003707495)
(-0.11011139 0.1022382 0.00039406833)
(-0.1221239 0.097918693 0.00041713231)
(-0.133752 0.092017393 0.0004390834)
(-0.1448726 0.084544221 0.0004588553)
(-0.15535695 0.075507996 0.00047522347)
(-0.16506739 0.064928144 0.00048686378)
(-0.17385481 0.052845782 0.00049242277)
(-0.18155706 0.039334167 0.00049060088)
(-0.18799848 0.024508613 0.00048024911)
(-0.19299082 0.0085359101 0.00046047812)
(-0.19633614 -0.0083568653 0.0004307771)
(-0.19783209 -0.025874491 0.00039113128)
(-0.19728016 -0.043647688 0.00034213517)
(-0.19449749 -0.061230156 0.00028508116)
(-0.18933261 -0.07810039 0.00022200899)
(-0.18168501 -0.09367033 0.00015569583)
(-0.17152806 -0.10730311 8.9567495e-05)
(-0.15893369 -0.11834201 2.7516553e-05)
(-0.14409637 -0.1261518 -2.6376722e-05)
(-0.12735227 -0.13017211 -6.8207992e-05)
(-0.1091887 -0.12997982 -9.4663682e-05)
(-0.090238436 -0.12535399 -0.00010343282)
(-0.071254726 -0.1163337 -9.3537154e-05)
(-0.053066295 -0.10325716 -6.5475113e-05)
(-0.036515406 -0.086771426 -2.119219e-05)
(-0.022375344 -0.067806589 3.5747914e-05)
(-0.011262036 -0.047512182 0.00010065926)
(-0.0037195489 -0.027167544 0.00017418965)
(-0.0004566048 -0.0081352937 0.00024387411)
(-0.00055931648 0.014836424 0.0001270861)
(-0.0035421046 0.040176768 0.00020595025)
(-0.0096161973 0.061303017 0.00025201138)
(-0.017777144 0.078489124 0.0002858583)
(-0.027460344 0.09208927 0.0003149123)
(-0.038294589 0.10248178 0.00034093641)
(-0.04995627 0.11003187 0.00036551397)
(-0.06217646 0.11506615 0.00039007526)
(-0.07473884 0.11785716 0.00041552725)
(-0.087467084 0.11861701 0.00044229411)
(-0.10021378 0.11749811 0.00047038923)
(-0.11285118 0.11459953 0.00049946138)
(-0.12526315 0.10997694 0.00052883423)
(-0.1373382 0.10365476 0.00055754589)
(-0.14896361 0.095639142 0.00058438966)
(-0.16002043 0.085930967 0.00060795892)
(-0.17037921 0.074538311 0.00062670116)
(-0.17989652 0.061488362 0.0006389853)
(-0.18841224 0.046838832 0.00064318545)
(-0.19574779 0.030689124 0.00063778285)
(-0.20170583 0.013191421 0.00062148648)
(-0.20607173 -0.0054383002 0.00059337059)
(-0.20861753 -0.024909621 0.00055302279)
(-0.2091091 -0.044848259 0.00050069326)
(-0.20731726 -0.06478904 0.00043743146)
(-0.20303377 -0.084173243 0.00036518835)
(-0.19609244 -0.10235287 0.0002868594)
(-0.18639549 -0.11860485 0.00020624068)
(-0.17394405 -0.13215843 0.00012787166)
(-0.15887031 -0.14223839 5.6747663e-05)
(-0.14146715 -0.14812516 -2.0966555e-06)
(-0.12220899 -0.14922992 -4.4105367e-05)
(-0.10175646 -0.14517822 -6.576099e-05)
(-0.080937589 -0.13589062 -6.5085018e-05)
(-0.060702473 -0.12164449 -4.1933976e-05)
(-0.042052094 -0.10310078 1.9253317e-06)
(-0.02593646 -0.081283578 6.2552608e-05)
(-0.013140944 -0.057506705 0.00013443493)
(-0.0043760663 -0.033260711 0.00021818589)
(-0.00054773248 -0.010144532 0.00029811897)
(-0.00056465972 0.016685694 0.00020822524)
(-0.0035819687 0.04499874 0.00029402879)
(-0.0097323512 0.068472433 0.0003409359)
(-0.018000674 0.087473281 0.00037581977)
(-0.027814318 0.10244098 0.00040631558)
(-0.038795644 0.11383219 0.00043431931)
(-0.050615824 0.12208091 0.00046152177)
(-0.063003037 0.12757155 0.0004894325)
(-0.075741014 0.1306233 0.00051900679)
(-0.088656553 0.13148397 0.00055068898)
(-0.10160829 0.1303317 0.00058448651)
(-0.11447709 0.12728227 0.00062001592)
(-0.12715752 0.12240027 0.00065653988)
(-0.13955023 0.11571228 0.00069300185)
(-0.15155543 0.10722077 0.00072806039)
(-0.16306707 0.096917881 0.00076012686)
(-0.17396775 0.0847986 0.00078741243)
(-0.18412425 0.070873364 0.00080798996)
(-0.19338365 0.055180323 0.00081987528)
(-0.2015704 0.037797605 0.00082113156)
(-0.2084844 0.018855936 0.0008099988)
(-0.21390081 -0.001448242 0.00078504858)
(-0.21757219 -0.022839288 0.00074536182)
(-0.21923375 -0.044949182 0.00069071613)
(-0.21861286 -0.067305867 0.00062177683)
(-0.21544406 -0.089325034 0.0005402624)
(-0.20949053 -0.11030834 0.00044905724)
(-0.20057275 -0.12945179 0.00035223486)
(-0.18860414 -0.1458688 0.00025495165)
(-0.1736317 -0.15863236 0.00016317658)
(-0.1558777 -0.16683969 8.3239731e-05)
(-0.13577518 -0.16969944 2.121303e-05)
(-0.11398761 -0.16663619 -1.7819417e-05)
(-0.091402115 -0.15739946 -3.0480567e-05)
(-0.069088494 -0.14215704 -1.561576e-05)
(-0.048221375 -0.12154873 2.5455268e-05)
(-0.0299571 -0.096679343 8.8518731e-05)
(-0.015288852 -0.069037856 0.00016716707)
(-0.005137383 -0.040356522 0.00026195755)
(-0.00065646025 -0.012511417 0.00035393939)
(-0.00056300791 0.018544716 0.00030235469)
(-0.0035819449 0.049853509 0.00039536914)
(-0.0097455633 0.075697242 0.00044274811)
(-0.018039428 0.096531899 0.00047848322)
(-0.027887987 0.11288122 0.00051033876)
(-0.038909381 0.12528037 0.00054033039)
(-0.050771025 0.13423361 0.00057025144)
(-0.063199179 0.14018564 0.00060169095)
(-0.075978341 0.14350512 0.00063565974)
(-0.088939123 0.14447862 0.00067263438)
(-0.10194704 0.14331281 0.00071263123)
(-0.11489268 0.14014269 0.00075525081)
(-0.12768275 0.13504373 0.0007997109)
(-0.14023201 0.12804604 0.00084487495)
(-0.15245608 0.11914909 0.00088927834)
(-0.164265 0.10833619 0.00093115694)
(-0.1755574 0.095588283 0.00096848498)