/*--------------------------------*- C++ -*----------------------------------*\
  =========                 |
  \\      /  F ield         | OpenFOAM: The Open Source CFD Toolbox
   \\    /   O peration     | Website:  https://openfoam.org
    \\  /    A nd           | Version:  7
     \\/     M anipulation  |
\*---------------------------------------------------------------------------*/
FoamFile
{
    version     2.0;
    format      ascii;
    class       volVectorField;
    location    "14";
    object      U_0;
}
// * * * * * * * * * * * * * * * * * * * * * * * * * * * * * * * * * * * * * //

dimensions      [0 1 -1 0 0 0 0];

internalField   nonuniform List<vector> 
16000
(
(6.6680212e-05 -6.6522096e-05 -3.8227757e-08)
(0.00016356628 -5.5834375e-05 6.13421e-06)
(0.00014206397 7.0102229e-07 1.9627187e-05)
(-5.0666308e-05 6.1965059e-05 3.7027358e-05)
(-0.00040985296 0.00011559556 5.5109242e-05)
(-0.00090852903 0.00015763516 7.1908636e-05)
(-0.0015166803 0.00018834806 8.6091763e-05)
(-0.0022052078 0.00020942137 9.6844492e-05)
(-0.0029481985 0.00022266924 0.00010370729)
(-0.0037232903 0.00022959141 0.00010643396)
(-0.0045110821 0.00023125129 0.00010489694)
(-0.0052942483 0.00022827713 9.9033252e-05)
(-0.0060566483 0.00022092463 8.8818651e-05)
(-0.0067825757 0.00020916993 7.4264123e-05)
(-0.0074562409 0.0001928164 5.5428957e-05)
(-0.0080615338 0.00017160581 3.244376e-05)
(-0.0085820789 0.00014532657 5.5384972e-06)
(-0.0090015735 0.0001139136 -2.4929107e-05)
(-0.0093043823 7.753639e-05 -5.8449529e-05)
(-0.009476343 3.6671126e-05 -9.4345642e-05)
(-0.0095057278 -7.8500406e-06 -0.00013176853)
(-0.00938427 -5.4833267e-05 -0.00016970801)
(-0.009108199 -0.00010269917 -0.00020701894)
(-0.0086791767 -0.00014955543 -0.00024246505)
(-0.0081050122 -0.00019327513 -0.00027477833)
(-0.0074000815 -0.00023161551 -0.00030273142)
(-0.0065853573 -0.00026236808 -0.0003252189)
(-0.0056879867 -0.00028352633 -0.00034134127)
(-0.0047403904 -0.00029345483 -0.00035048428)
(-0.0037789018 -0.00029104106 -0.00035238624)
(-0.0028420147 -0.00027581216 -0.00034718629)
(-0.0019683445 -0.00024800172 -0.00033545007)
(-0.0011944188 -0.00020856713 -0.00031817141)
(-0.00055234187 -0.00015919403 -0.00029675315)
(-6.7390108e-05 -0.00010240456 -0.00027296244)
(0.0002440119 -4.1815181e-05 -0.00024885397)
(0.00037816602 1.7739661e-05 -0.00022680803)
(0.00034926519 6.6940565e-05 -0.00020925856)
(0.00020596031 8.9741619e-05 -0.00019887588)
(5.7423204e-05 5.7366067e-05 -0.00018442551)
(5.830759e-05 -0.00016568116 -6.1869137e-06)
(4.1394512e-05 -3.8949983e-05 1.029329e-07)
(-0.00029450432 0.00024895467 1.1723964e-05)
(-0.0010101828 0.00056198506 2.6070202e-05)
(-0.0020975312 0.00084691795 4.1031563e-05)
(-0.0035111161 0.0010821994 5.5013369e-05)
(-0.0051900923 0.0012631264 6.689036e-05)
(-0.0070701499 0.0013927144 7.591133e-05)
(-0.0090896005 0.0014764899 8.1594956e-05)
(-0.011191575 0.0015199892 8.3642232e-05)
(-0.013324077 0.0015276496 8.1869718e-05)
(-0.015439008 0.0015024305 7.6167546e-05)
(-0.017490839 0.0014458673 6.6477886e-05)
(-0.019435392 0.0013583829 5.2790534e-05)
(-0.021229004 0.0012397429 3.5152155e-05)
(-0.022828236 0.0010895776 1.3684347e-05)
(-0.024190197 0.00090791369 -1.139375e-05)
(-0.025273462 0.0006956731 -3.9742282e-05)
(-0.026039538 0.00045510446 -7.0880915e-05)
(-0.026454759 0.00019011575 -0.00010417592)
(-0.026492507 -9.3521718e-05 -0.0001388371)
(-0.026135468 -0.00038809476 -0.00017393379)
(-0.025377883 -0.00068408481 -0.00020841123)
(-0.024227531 -0.00097045629 -0.00024113832)
(-0.022707123 -0.0012351379 -0.00027096088)
(-0.020855028 -0.0014656769 -0.00029676873)
(-0.018725108 -0.0016500291 -0.00031757076)
(-0.016385539 -0.0017774283 -0.00033257189)
(-0.01391658 -0.0018392626 -0.00034124515)
(-0.0114073 -0.0018298762 -0.00034339159)
(-0.0089514047 -0.0017472202 -0.00033918151)
(-0.0066423377 -0.0015932998 -0.00032917267)
(-0.0045678836 -0.0013744214 -0.00031430361)
(-0.0028044382 -0.0011013474 -0.00029586346)
(-0.00141101 -0.00078965861 -0.00027544118)
(-0.0004229625 -0.00046065777 -0.00025484892)
(0.00015449209 -0.00014289193 -0.00023600015)
(0.00035579534 0.00012183381 -0.00022091023)
(0.00027479959 0.00027066965 -0.00021167886)
(9.0010223e-05 0.00020486959 -0.00019548601)
(2.0409134e-06 -0.0001480736 -1.9947184e-05)
(-0.00025558282 0.00029772176 -1.130249e-05)
(-0.0010493147 0.0010234663 5.8126838e-07)
(-0.0023854971 0.0017963802 1.3542695e-05)
(-0.0042353439 0.0025078002 2.6557159e-05)
(-0.0065391538 0.0031071582 3.8484694e-05)
(-0.0092159503 0.0035774066 4.8499725e-05)
(-0.012177709 0.0039194643 5.6042269e-05)
(-0.01533734 0.0041419212 6.0731068e-05)
(-0.01861191 0.0042551689 6.2309841e-05)
(-0.0219234 0.004268359 6.0605556e-05)
(-0.025198099 0.004188102 5.5500624e-05)
(-0.028365432 0.0040182922 4.6919263e-05)
(-0.0313568 0.0037606556 3.4827023e-05)
(-0.034104849 0.0034157252 1.924073e-05)
(-0.036543397 0.0029840305 2.4534211e-07)
(-0.038608115 0.0024673408 -2.1985172e-05)
(-0.040237974 0.0018698363 -4.7166385e-05)
(-0.041377365 0.0011991097 -7.4884913e-05)
(-0.041978752 0.00046691471 -0.00010458614)
(-0.042005638 -0.00031040183 -0.00013557268)
(-0.041435646 -0.0011118044 -0.00016701012)
(-0.040263452 -0.0019120017 -0.00019795234)
(-0.038503258 -0.0026822015 -0.00022737743)
(-0.036190551 -0.0033913512 -0.00025423856)
(-0.033382902 -0.00400777 -0.00027752638)
(-0.030159574 -0.0045010854 -0.000296339)
(-0.026619781 -0.0048443535 -0.00030995399)
(-0.022879525 -0.0050162009 -0.00031789577)
(-0.019067036 -0.0050028111 -0.00031999058)
(-0.015316938 -0.0047995882 -0.00031640266)
(-0.011763364 -0.0044123859 -0.00030764685)
(-0.0085322945 -0.0038582914 -0.00029457563)
(-0.0057334141 -0.0031661219 -0.00027834116)
(-0.0034516822 -0.0023770362 -0.00026033618)
(-0.0017387847 -0.0015459513 -0.0002421147)
(-0.00060475594 -0.00074463806 -0.00022528494)
(-8.9346651e-06 -6.7240335e-05 -0.00021143751)
(0.00015491056 0.00035946378 -0.00020225976)
(7.3416352e-05 0.00035385703 -0.00018533902)
(-6.4573052e-05 5.0952019e-05 -3.8173393e-05)
(-0.00060765557 0.0010456767 -2.5613056e-05)
(-0.0019284383 0.002380254 -1.1649254e-05)
(-0.0039422339 0.003753406 1.6240537e-06)
(-0.0065820111 0.0050106382 1.4190718e-05)
(-0.009768769 0.0060740453 2.5291883e-05)
(-0.01340275 0.0069134429 3.4391314e-05)
(-0.017376815 0.0075262633 4.115383e-05)
(-0.021584427 0.00792305 4.5343698e-05)
(-0.025922662 0.0081184515 4.6789366e-05)
(-0.03029309 0.008126173 4.5359823e-05)
(-0.03460143 0.0079566234 4.0948997e-05)
(-0.038756622 0.0076164312 3.3470497e-05)
(-0.042669914 0.0071092141 2.2862806e-05)
(-0.046254412 0.0064371218 9.1030267e-06)
(-0.049425321 0.0056027806 -7.7737688e-06)
(-0.052101027 0.0046113465 -2.7651973e-05)
(-0.054204979 0.0034724404 -5.0312477e-05)
(-0.055668304 0.0022017866 -7.5412336e-05)
(-0.056432953 0.00082241118 -0.00010247047)
(-0.056455172 -0.00063470815 -0.00013086264)
(-0.055709056 -0.0021306552 -0.0001598245)
(-0.054189886 -0.0036192822 -0.00018847488)
(-0.051916898 -0.0050486533 -0.00021584781)
(-0.048935263 -0.0063632143 -0.00024094161)
(-0.04531696 -0.0075066113 -0.0002627801)
(-0.041160275 -0.0084250251 -0.00028048206)
(-0.036587766 -0.0090708199 -0.00029333341)
(-0.03174256 -0.0094062543 -0.00030085493)
(-0.026782978 -0.0094069669 -0.00030285746)
(-0.021875603 -0.0090649632 -0.00029947709)
(-0.017187007 -0.0083908979 -0.0002911852)
(-0.012874467 -0.0074155854 -0.00027877079)
(-0.00907608 -0.0061908862 -0.0002632958)
(-0.0059007 -0.0047904003 -0.00024602743)
(-0.0034181554 -0.003310793 -0.00022835432)
(-0.0016499304 -0.0018747698 -0.00021170181)
(-0.00056036079 -0.00063580135 -0.00019746053)
(-5.0503739e-05 0.00021364011 -0.00018686234)
(3.7963756e-05 0.00041304071 -0.00016805301)
(-0.00013070965 0.00044564129 -5.7659043e-05)
(-0.0009698335 0.0022412847 -4.0578474e-05)
(-0.002842974 0.0043555384 -2.3717744e-05)
(-0.0055585064 0.0064511385 -9.3066739e-06)
(-0.0089992502 0.0083451209 3.5897711e-06)
(-0.013060687 0.0099411516 1.4546717e-05)
(-0.01762237 0.011199917 2.3301809e-05)
(-0.022559238 0.012116653 2.9749899e-05)
(-0.027748414 0.012703912 3.3813688e-05)
(-0.033071027 0.012980244 3.5420543e-05)
(-0.038412597 0.012963545 3.4493017e-05)
(-0.043662615 0.012667829 3.0942974e-05)
(-0.048713724 0.012102523 2.4674261e-05)
(-0.05346102 0.011273497 1.5594275e-05)
(-0.057801862 0.010185215 3.6325849e-06)
(-0.061636439 0.0088434538 -1.1235637e-05)
(-0.064869169 0.0072581972 -2.8963365e-05)
(-0.067410931 0.0054463413 -4.9405213e-05)
(-0.069182003 0.0034339702 -7.2293408e-05)
(-0.070115548 0.0012579874 -9.7219352e-05)
(-0.070161395 -0.0010330564 -0.00012362408)
(-0.069289886 -0.0033790799 -0.00015079988)
(-0.067495488 -0.0057095486 -0.00017790677)
(-0.064799853 -0.0079456361 -0.00020400409)
(-0.061254043 -0.010003395 -0.00022809829)
(-0.056939616 -0.011797855 -0.0002492046)
(-0.051968265 -0.013247879 -0.00026641834)
(-0.046479803 -0.014281509 -0.00027899032)
(-0.040638297 -0.014841456 -0.00028639833)
(-0.034626292 -0.014890335 -0.00028840583)
(-0.02863718 -0.014415251 -0.00028509945)
(-0.022865943 -0.013431376 -0.00027689902)
(-0.01749862 -0.011984358 -0.00026453723)
(-0.012701029 -0.010151599 -0.00024900969)
(-0.0086074325 -0.0080427948 -0.00023149873)
(-0.0053098614 -0.005800544 -0.00021328374)
(-0.0028479617 -0.0036020161 -0.00019567804)
(-0.0012001163 -0.0016614835 -0.0001799459)
(-0.00028899074 -0.00023530667 -0.00016681114)
(-2.5295067e-06 0.00034950464 -0.00014557141)
(-0.00019263819 0.0010307006 -7.610832e-05)
(-0.001322415 0.0038892018 -5.4195359e-05)
(-0.0037474009 0.0069613203 -3.4016766e-05)
(-0.0071648028 0.0099007499 -1.7946638e-05)
(-0.011401343 0.012514242 -4.1740157e-06)
(-0.0163223 0.014698758 7.1651277e-06)
(-0.021784151 0.016412747 1.6057987e-05)
(-0.027643742 0.017652853 2.2618515e-05)
(-0.033763388 0.018435253 2.6924876e-05)
(-0.040010931 0.01878294 2.9003865e-05)
(-0.046259142 0.01871805 2.8832622e-05)
(-0.052384871 0.018258126 2.6340561e-05)
(-0.058268109 0.017415388 2.1418951e-05)
(-0.063791337 0.016198153 1.3938664e-05)
(-0.068839504 0.014613643 3.77422e-06)
(-0.073300789 0.012671517 -9.1677361e-06)
(-0.077068221 0.010387593 -2.4917299e-05)
(-0.080042115 0.0077873189 -4.3409901e-05)
(-0.082133206 0.0049086715 -6.4457164e-05)
(-0.083266316 0.0018042009 -8.7723083e-05)
(-0.083384341 -0.0014579605 -0.00011270918)
(-0.082452317 -0.004794291 -0.00013875206)
(-0.080461299 -0.0081073388 -0.00016503496)
(-0.07743179 -0.011288558 -0.00019061761)
(-0.07341637 -0.014222461 -0.00021448327)
(-0.068501243 -0.016792019 -0.00023560188)
(-0.062806341 -0.01888509 -0.00025300516)
(-0.056483695 -0.020401597 -0.0002658674)
(-0.049713795 -0.021260997 -0.00027358373)
(-0.04269978 -0.021409544 -0.00027583566)
(-0.035659438 -0.020826769 -0.00027263441)
(-0.028815203 -0.019530675 -0.00026433433)
(-0.022382535 -0.017581249 -0.00025161301)
(-0.016557324 -0.01508221 -0.0002354181)
(-0.011503266 -0.012181199 -0.00021688343)
(-0.0073402006 -0.0090691815 -0.00019723317)
(-0.0041328284 -0.0059799483 -0.00017774064)
(-0.0018810565 -0.0031893767 -0.00015963993)
(-0.00053612652 -0.001015708 -0.00014325732)
(-4.1254949e-05 0.00015785757 -0.00011915849)
(-0.0002498097 0.0017970344 -9.1566703e-05)
(-0.001657731 0.0059782716 -6.4673775e-05)
(-0.0046187822 0.010188045 -4.1018012e-05)
(-0.0087215139 0.014091944 -2.2988755e-05)
(-0.013734943 0.017503286 -7.9748494e-06)
(-0.019491621 0.020324805 4.1393653e-06)
(-0.025823324 0.022521135 1.3565384e-05)
(-0.032568476 0.024095528 2.0618353e-05)
(-0.039575483 0.025070713 2.5520089e-05)
(-0.046700781 0.025475586 2.8388881e-05)
(-0.053806949 0.025337131 2.9250324e-05)
(-0.060761153 0.024676596 2.8045592e-05)
(-0.067433837 0.023509028 2.4647058e-05)
(-0.073697941 0.021845243 1.8881864e-05)
(-0.079428853 0.019695385 1.0561387e-05)
(-0.084505226 0.017073293 -4.8489807e-07)
(-0.088810654 0.014001059 -1.4372755e-05)
(-0.092236168 0.010513256 -3.1126013e-05)
(-0.094683419 0.0066604424 -5.0641287e-05)
(-0.09606842 0.0025116482 -7.2657779e-05)
(-0.096325652 -0.0018443999 -9.6736147e-05)
(-0.095412331 -0.0062994787 -0.00012225068)
(-0.093312636 -0.010727601 -0.00014839544)
(-0.090041625 -0.014988418 -0.00017421161)
(-0.08564851 -0.01893226 -0.00019863343)
(-0.080218982 -0.022406764 -0.00022055325)
(-0.073876158 -0.025264904 -0.00023890133)
(-0.066779757 -0.027374094 -0.00025273407)
(-0.059123106 -0.028625862 -0.00026132164)
(-0.051127671 -0.028945463 -0.00026422409)
(-0.043034981 -0.028300663 -0.00026134443)
(-0.035096041 -0.026708948 -0.00025294982)
(-0.027558641 -0.024242509 -0.000239656)
(-0.020653288 -0.021030624 -0.00022237413)
(-0.014578996 -0.017259464 -0.0002022209)
(-0.0094901688 -0.013169923 -0.00018041627)
(-0.0054835385 -0.0090543138 -0.00015826309)
(-0.0025867668 -0.0052514757 -0.00013705011)
(-0.00078424371 -0.0021414782 -0.00011678166)
(-7.6909949e-05 -0.00016158005 -8.9580243e-05)
(-0.00030257022 0.0027338186 -0.00010236697)
(-0.0019730067 0.0084891073 -7.0399492e-05)
(-0.0054453173 0.014013296 -4.3286395e-05)
(-0.010205296 0.019000356 -2.316951e-05)
(-0.015965545 0.023285136 -6.7003681e-06)
(-0.022525385 0.026788292 6.4622358e-06)
(-0.029691442 0.029489605 1.6732178e-05)
(-0.037283828 0.031405039 2.460621e-05)
(-0.045137877 0.032567717 3.0433921e-05)
(-0.053100163 0.033014652 3.4412223e-05)
(-0.061025192 0.032778802 3.6604322e-05)
(-0.068772941 0.031885592 3.695359e-05)
(-0.076206987 0.030353006 3.5304521e-05)
(-0.083193379 0.028194296 3.1431578e-05)
(-0.089600397 0.025422387 2.5073756e-05)
(-0.095299227 0.022055127 1.5973784e-05)
(-0.10016553 0.018120687 3.920475e-06)
(-0.10408183 0.013662547 -1.1207949e-05)
(-0.1069406 0.0087436351 -2.940181e-05)
(-0.10864798 0.0034492926 -5.0482506e-05)
(-0.10912795 -0.002111173 -7.4074023e-05)
(-0.10832678 -0.0078045642 -9.9588752e-05)
(-0.1062177 -0.013475602 -0.00012622647)
(-0.10280549 -0.018950709 -0.00015299815)
(-0.098130622 -0.024043744 -0.0001787696)
(-0.092272753 -0.028563726 -0.00020232777)
(-0.08535291 -0.032324419 -0.00022246566)
(-0.077533946 -0.035155455 -0.00023807926)
(-0.069018668 -0.036914459 -0.00024826729)
(-0.060045139 -0.037499404 -0.00025242157)
(-0.050878844 -0.036860232 -0.0002502948)
(-0.041801685 -0.035008655 -0.00024203489)
(-0.033098154 -0.032025147 -0.00022817878)
(-0.025039507 -0.02806235 -0.00020960354)
(-0.017867438 -0.023344619 -0.0001874329)
(-0.011778794 -0.018164114 -0.0001629286)
(-0.0069098135 -0.012874226 -0.00013748913)
(-0.0033219529 -0.0078799121 -0.00011253902)
(-0.0010363686 -0.0036262775 -8.7849413e-05)
(-0.00011091936 -0.00060781376 -5.7411838e-05)
(-0.00035123506 0.0038297085 -0.00010704805)
(-0.002266788 0.011397695 -6.990068e-05)
(-0.006219627 0.01840656 -3.9461178e-05)
(-0.011600275 0.024592096 -1.724065e-05)
(-0.018068052 0.029823773 7.9527986e-07)
(-0.025390131 0.034051458 1.5196138e-05)
(-0.033348672 0.037278959 2.6560438e-05)
(-0.041746213 0.039541408 3.5547765e-05)
(-0.050406068 0.040886697 4.2618592e-05)
(-0.05916643 0.041362696 4.803367e-05)
(-0.067875626 0.041009893 5.1880861e-05)
(-0.076388649 0.039858624 5.4094185e-05)
(-0.084564571 0.037929998 5.4479644e-05)
(-0.092264905 0.03523953 5.2748771e-05)
(-0.099352984 0.031802494 4.8557767e-05)
(-0.10569431 0.027640095 4.1551608e-05)
(-0.11115785 0.022785738 3.1411879e-05)
(-0.11561812 0.017290792 1.7906275e-05)
(-0.11895808 0.011229402 9.3776622e-07)
(-0.12107266 0.0047020501 -1.9409889e-05)
(-0.12187295 -0.0021624295 -4.2835087e-05)
(-0.12129089 -0.0092065883 -6.879683e-05)
(-0.11928434 -0.016245959 -9.6503678e-05)
(-0.1158426 -0.023072958 -0.00012493287)
(-0.11099161 -0.02946302 -0.00015286906)
(-0.10479898 -0.035183205 -0.00017897056)
(-0.097377837 -0.040003219 -0.00020185866)
(-0.088889092 -0.043708617 -0.00022022411)
(-0.079541245 -0.046115625 -0.00023294133)
(-0.069586975 -0.04708673 -0.00023917726)
(-0.059315982 -0.046545791 -0.00023847977)
(-0.049043795 -0.044491244 -0.00023083183)
(-0.039096774 -0.041005884 -0.00021666164)
(-0.029794173 -0.036261961 -0.00019680337)
(-0.021429024 -0.030520841 -0.00017240325)
(-0.014249745 -0.024127386 -0.00014480473)
(-0.0084405336 -0.017499795 -0.00011556481)
(-0.0041031547 -0.011114617 -8.6322927e-05)
(-0.0012993135 -0.0054886817 -5.6685123e-05)
(-0.00014459495 -0.0011822356 -2.2736454e-05)
(-0.00039587292 0.0050729605 -0.00010429325)
(-0.002537566 0.014676682 -6.1827124e-05)
(-0.0069355032 0.023331142 -2.8262488e-05)
(-0.012893283 0.030825392 -3.9928698e-06)
(-0.020021222 0.037074971 1.5656852e-05)
(-0.028056569 0.042069218 3.1433159e-05)
(-0.036758605 0.045844389 4.4104964e-05)
(-0.045913636 0.04846122 5.4477799e-05)
(-0.055334291 0.049986971 6.3106986e-05)
(-0.064851928 0.050483432 7.0302456e-05)
(-0.074310499 0.05000047 7.6163519e-05)
(-0.083562047 0.048574272 8.0602908e-05)
(-0.092463305 0.046229334 8.3377044e-05)
(-0.10087341 0.042983167 8.4123635e-05)
(-0.10865276 0.038852683 8.2404692e-05)
(-0.11566283 0.033861347 7.7754869e-05)
(-0.12176706 0.028046331 6.9734238e-05)
(-0.12683244 0.021465086 5.7983692e-05)
(-0.13073209 0.014200925 4.2281347e-05)
(-0.13334845 0.0063672828 2.259688e-05)
(-0.13457747 -0.0018895775 -8.6151099e-07)
(-0.13433331 -0.0103897 -2.7618684e-05)
(-0.13255408 -0.018920481 -5.6903459e-05)
(-0.12920818 -0.027240307 -8.7665507e-05)
(-0.12430094 -0.035084708 -0.00011860392)
(-0.11788131 -0.042175515 -0.0001482307)
(-0.11004793 -0.048233113 -0.00017496291)
(-0.10095375 -0.052991694 -0.00019723855)
(-0.090808102 -0.056217019 -0.00021364734)
(-0.07987531 -0.057725755 -0.00022306251)
(-0.06846876 -0.057404908 -0.00022475672)
(-0.056939949 -0.05522946 -0.00021848463)
(-0.045662411 -0.051276083 -0.00020451825)
(-0.035011344 -0.045730941 -0.00018362507)
(-0.025340955 -0.038890191 -0.00015697795)
(-0.016961853 -0.03115291 -0.00012603462)
(-0.010116198 -0.023007172 -9.2570297e-05)
(-0.0049539854 -0.01500913 -5.8517767e-05)
(-0.0015828842 -0.007757668 -2.3370985e-05)
(-0.00017989772 -0.0018920624 1.448847e-05)
(-0.00043630619 0.0064510924 -9.2902003e-05)
(-0.0027833525 0.018295581 -4.4941899e-05)
(-0.0075865389 0.028744882 -8.501485e-06)
(-0.014071553 0.037651362 1.7718723e-05)
(-0.02180475 0.044986651 3.8990494e-05)
(-0.030496413 0.050788744 5.624926e-05)
(-0.039885195 0.05513412 7.0422664e-05)
(-0.049742957 0.058115287 8.2447383e-05)
(-0.059873245 0.059823473 9.2959259e-05)
(-0.070102204 0.060337596 0.00010230422)
(-0.080271188 0.059718951 0.00011058097)
(-0.090231227 0.05801067 0.00011766993)
(-0.09983877 0.055240956 0.00012326741)
(-0.10895266 0.051428977 0.00012692655)
(-0.11743229 0.046592358 0.00012810329)
(-0.12513684 0.040755332 0.00012620803)
(-0.13192548 0.033956814 0.00012066256)
(-0.13765841 0.026257832 0.00011096074)
(-0.14219886 0.017747952 9.6732157e-05)
(-0.1454159 0.0085504032 7.7805682e-05)
(-0.14718843 -0.0011742875 5.4268091e-05)
(-0.14740989 -0.011226381 2.6496747e-05)
(-0.14599446 -0.021367371 -4.7784626e-06)
(-0.14288444 -0.031322526 -3.8498058e-05)
(-0.13805818 -0.040786712 -7.3281922e-05)
(-0.13153889 -0.049433638 -0.00010748626)
(-0.12340324 -0.056928988 -0.00013929542)
(-0.11378884 -0.062947559 -0.00016684574)
(-0.10289939 -0.067194107 -0.00018837413)
(-0.091006129 -0.069426948 -0.00020237732)
(-0.078443964 -0.069482645 -0.00020776303)
(-0.065601474 -0.067299383 -0.0002039715)
(-0.052904085 -0.06293614 -0.00019104789)
(-0.040791102 -0.056584696 -0.0001696483)
(-0.029688792 -0.048572161 -0.00014096038)
(-0.019982304 -0.039353066 -0.00010657883)
(-0.011983903 -0.029491585 -6.855358e-05)
(-0.0059019912 -0.019633977 -2.9190767e-05)
(-0.0018983096 -0.010474943 1.2089281e-05)
(-0.00021896513 -0.0027499846 5.4420403e-05)
(-0.00047216243 0.0079504976 -7.1785247e-05)
(-0.0030016401 0.022220562 -1.8124885e-05)
(-0.0081657097 0.034600309 2.090649e-05)
(-0.015121851 0.045014314 4.8952003e-05)
(-0.023398021 0.053499017 7.1833143e-05)
(-0.032680959 0.060149147 9.0667489e-05)
(-0.042691337 0.065088422 0.00010653139)
(-0.053188652 0.068446867 0.00012047976)
(-0.063969124 0.07034413 0.00013321681)
(-0.074855363 0.070879503 0.00014511355)
(-0.085687866 0.070127865 0.00015625821)
(-0.096318526 0.068140519 0.00016648977)
(-0.1066055 0.064949769 0.0001754355)
(-0.11640938 0.060576079 0.00018255423)
(-0.1255906 0.055036706 0.00018718423)
(-0.13400788 0.048354876 0.00018859697)
(-0.14151769 0.040568786 0.00018605705)
(-0.14797458 0.031739938 0.00017888748)
(-0.15323245 0.021960498 0.0001665399)
(-0.15714681 0.011359451 0.00014866633)
(-0.15957826 0.00010740552 0.00012518807)
(-0.16039741 -0.011580173 9.6366745e-05)
(-0.15949118 -0.023442138 6.2830348e-05)
(-0.15677081 -0.035172794 2.5620282e-05)
(-0.15218155 -0.046426702 -1.382314e-05)
(-0.14571342 -0.056827404 -5.3702767e-05)
(-0.13741265 -0.065980877 -9.1949605e-05)
(-0.12739264 -0.073494204 -0.00012635118)
(-0.11584292 -0.078999448 -0.00015471743)
(-0.10303442 -0.082181936 -0.00017507123)
(-0.089318915 -0.082811171 -0.00018584322)
(-0.075120985 -0.080771483 -0.00018604491)
(-0.06092119 -0.076088635 -0.00017539324)
(-0.04723069 -0.068948155 -0.00015435954)
(-0.034559475 -0.05970171 -0.00012411141)
(-0.023381467 -0.048859493 -8.638876e-05)
(-0.01409386 -0.037068711 -4.3568429e-05)
(-0.0069766884 -0.025078495 1.586434e-06)
(-0.0022574639 -0.013696388 4.9701893e-05)
(-0.00026396171 -0.003774832 9.725002e-05)
(-0.00050293963 0.0095561438 -3.9974647e-05)
(-0.0031895454 0.026414164 1.961499e-05)
(-0.0086654856 0.040844561 6.0924606e-05)
(-0.016030472 0.052851799 9.0654145e-05)
(-0.024780002 0.062544513 0.00011512235)
(-0.034580928 0.070081098 0.00013562186)
(-0.045138775 0.075638689 0.00015336861)
(-0.056202878 0.079390058 0.00016952446)
(-0.067563929 0.081487491 0.00018485227)
(-0.079042658 0.08205385 0.00019973998)
(-0.090480393 0.081179846 0.0002142584)
(-0.10173169 0.078926294 0.00022819877)
(-0.11265837 0.075330101 0.00024111285)
(-0.12312484 0.070412711 0.00025235741)
(-0.13299471 0.064189893 0.00026114264)
(-0.14212835 0.056681932 0.00026658666)
(-0.15038155 0.047923562 0.00026777688)
(-0.15760491 0.037973227 0.00026383867)
(-0.16364434 0.026921453 0.00025401141)
(-0.16834257 0.014898181 0.00023772921)
(-0.17154194 0.0020789496 0.00021470289)
(-0.17308912 -0.011310345 0.00018500893)
(-0.17284139 -0.024990471 0.00014913515)
(-0.17067516 -0.038628442 0.00010805151)
(-0.16649691 -0.051840443 6.3219012e-05)
(-0.160256 -0.064199232 1.6568478e-05)
(-0.15195906 -0.075247145 -2.9570795e-05)
(-0.14168482 -0.08451564 -7.2597601e-05)
(-0.12959768 -0.091551849 -0.00010981895)
(-0.11595805 -0.095951705 -0.00013867372)
(-0.10112648 -0.09739796 -0.00015697918)
(-0.085559165 -0.095699814 -0.00016317009)
(-0.069792488 -0.090829387 -0.00015649468)
(-0.054415894 -0.082949234 -0.00013712701)
(-0.040035009 -0.072425271 -0.0001061469)
(-0.027228635 -0.059821342 -6.5425916e-05)
(-0.016496841 -0.045874529 -1.7712949e-05)
(-0.0082083253 -0.031451465 3.3682833e-05)
(-0.0026725198 -0.017492724 8.9413429e-05)
(-0.00031707142 -0.0049918136 0.00014312119)
(-0.00052807574 0.0112514 3.359298e-06)
(-0.0033440546 0.030835151 6.9121568e-05)
(-0.0090782663 0.047419383 0.00011237383)
(-0.016783819 0.061094671 0.00014363636)
(-0.025929936 0.072047785 0.00016966539)
(-0.03616729 0.0805065 0.00019192044)
(-0.047189097 0.086706641 0.00021174828)
(-0.058736698 0.090868389 0.00023040796)
(-0.070596982 0.093180595 0.00024871381)
(-0.082590355 0.093792823 0.00026706577)
(-0.094560548 0.092813927 0.00028551373)
(-0.10636649 0.090315722 0.00030379845)
(-0.11787557 0.086340377 0.00032139302)
(-0.12895812 0.080910144 0.00033754738)
(-0.13948318 0.074038268 0.00035133564)
(-0.14931522 0.065740167 0.00036170951)
(-0.1583118 0.056044272 0.00036755956)
(-0.16632205 0.045002223 0.00036778534)
(-0.17318619 0.032698279 0.00036137609)
(-0.17873609 0.019257931 0.00034750031)
(-0.18279732 0.0048556517 0.00032560174)
(-0.18519304 -0.010278448 0.00029550051)
(-0.1857501 -0.025853301 0.00025747822)
(-0.18430768 -0.041514065 0.00021236241)
(-0.18072896 -0.056842484 0.00016157337)
(-0.17491572 -0.071362028 0.00010713263)
(-0.16682555 -0.084549386 5.1615521e-05)
(-0.1564907 -0.095853847 -1.9635725e-06)
(-0.14403711 -0.10472573 -5.0338467e-05)
(-0.1297009 -0.11065411 -9.0246224e-05)
(-0.11383905 -0.11321246 -0.00011873148)
(-0.096930557 -0.11210904 -0.00013346658)
(-0.079564384 -0.10723597 -0.00013304237)
(-0.062412092 -0.098709727 -0.00011717154)
(-0.046186233 -0.086894409 -8.6732117e-05)
(-0.03158813 -0.072401585 -4.3680693e-05)
(-0.019242079 -0.056063692 8.8300383e-06)
(-0.0096270132 -0.038880753 6.6850502e-05)
(-0.0031557722 -0.02194963 0.00013104034)
(-0.00038051897 -0.0064325834 0.00019205632)
(-0.00054702083 0.013018023 5.8884018e-05)
(-0.0034623338 0.035438631 0.00013107003)
(-0.0093970321 0.054261372 0.00017591087)
(-0.017369389 0.069667378 0.00020854842)
(-0.026828635 0.081925867 0.00023610878)
(-0.037412845 0.091338387 0.00026020865)
(-0.048805625 0.098203783 0.00028231709)
(-0.060742318 0.10279371 0.00030378224)
(-0.073007561 0.10533721 0.00032546546)
(-0.085422815 0.1060136 0.0003477773)
(-0.097835633 0.10495227 0.0003707472)
(-0.1101109 0.10223772 0.0003940668)
(-0.12212338 0.09791825 0.00041713156)
(-0.13375145 0.092017004 0.00043908367)
(-0.14487201 0.084543892 0.00045885666)
(-0.15535634 0.075507733 0.00047522584)
(-0.16506677 0.064927952 0.00048686715)
(-0.17385418 0.052845664 0.00049242695)
(-0.18155642 0.039334126 0.00049060537)
(-0.18799784 0.024508649 0.00048025334)
(-0.19299018 0.008536023 0.00046048174)
(-0.19633551 -0.0083566773 0.00043078001)
(-0.19783147 -0.025874232 0.00039113352)
(-0.19727955 -0.043647361 0.00034213686)
(-0.19449689 -0.061229768 0.00028508243)
(-0.18933204 -0.078099949 0.00022200997)
(-0.18168447 -0.093669845 0.00015569651)
(-0.17152755 -0.10730259 8.9567713e-05)
(-0.15893322 -0.11834147 2.7516097e-05)
(-0.14409595 -0.12615125 -2.6377973e-05)
(-0.12735189 -0.13017157 -6.8210013e-05)
(-0.10918837 -0.1299793 -9.466627e-05)
(-0.090238162 -0.1253535 -0.00010343555)
(-0.071254507 -0.11633326 -9.3539452e-05)
(-0.05306613 -0.10325678 -6.547643e-05)
(-0.03651529 -0.086771123 -2.1192125e-05)
(-0.022375271 -0.067806362 3.5749558e-05)
(-0.011261998 -0.047512031 0.0001006622)
(-0.003719535 -0.027167464 0.00017419335)
(-0.00045660215 -0.0081352723 0.00024387878)
(-0.00055931286 0.014836334 0.00012708047)
(-0.0035420872 0.040176524 0.00020594554)
(-0.0096161523 0.06130265 0.00025200736)
(-0.01777706 0.078488662 0.00028585523)
(-0.027460216 0.092088737 0.00031491013)
(-0.038294414 0.1024812 0.0003409346)
(-0.049956047 0.11003127 0.00036551196)
(-0.062176188 0.11506553 0.00039007322)
(-0.07473852 0.11785655 0.00041552553)
(-0.087466718 0.11861641 0.00044229254)
(-0.10021337 0.11749754 0.00047038818)
(-0.11285074 0.114599 0.0004994609)
(-0.12526267 0.10997646 0.00052883427)
(-0.13733769 0.10365434 0.00055754661)
(-0.14896308 0.095638789 0.00058439105)
(-0.16001988 0.085930685 0.00060796083)
(-0.17037864 0.074538106 0.00062670354)
(-0.17989595 0.061488236 0.00063898809)
(-0.18841166 0.046838787 0.0006431884)
(-0.1957472 0.03068916 0.00063778565)
(-0.20170524 0.013191538 0.00062148892)
(-0.20607115 -0.0054381047 0.00059337263)
(-0.20861696 -0.02490935 0.0005530245)
(-0.20910853 -0.044847918 0.00050069471)
(-0.20731671 -0.064788634 0.00043743268)
(-0.20303324 -0.08417278 0.00036518931)
(-0.19609193 -0.10235236 0.00028685999)
(-0.18639501 -0.1186043 0.00020624071)
(-0.1739436 -0.13215785 0.00012787099)
(-0.15886989 -0.1422378 5.6746406e-05)
(-0.14146677 -0.14812457 -2.098239e-06)
(-0.12220866 -0.14922935 -4.4106953e-05)
(-0.10175618 -0.14517768 -6.57622e-05)
(-0.080937364 -0.13589013 -6.5085397e-05)
(-0.060702301 -0.12164406 -4.193309e-05)
(-0.042051971 -0.10310043 1.9277885e-06)
(-0.025936382 -0.081283312 6.2556805e-05)
(-0.013140903 -0.057506524 0.0001344406)
(-0.0043760512 -0.033260612 0.00021819224)
(-0.00054772965 -0.010144504 0.00029812605)
(-0.00056465668 0.016685595 0.00020822088)
(-0.0035819534 0.044998474 0.0002940253)
(-0.0097323114 0.068472034 0.00034093318)
(-0.0180006 0.08747278 0.00037581796)
(-0.027814205 0.1024404 0.00040631457)
(-0.038795489 0.11383157 0.00043431876)
(-0.050615625 0.12208025 0.00046152107)
(-0.063002794 0.12757089 0.00048943182)
(-0.075740728 0.13062264 0.00051900647)
(-0.088656227 0.13148334 0.00055068872)
(-0.10160792 0.1303311 0.0005844866)
(-0.11447669 0.12728171 0.00062001643)
(-0.12715709 0.12239977 0.00065654072)
(-0.13954978 0.11571184 0.00069300309)
(-0.15155496 0.1072204 0.00072806196)
(-0.16306658 0.096917585 0.00076012855)
(-0.17396726 0.084798384 0.00078741415)
(-0.18412374 0.070873232 0.00080799172)
(-0.19338315 0.055180275 0.00081987706)
(-0.20156989 0.037797642 0.00082113327)
(-0.20848389 0.018856056 0.00081000041)
(-0.21390031 -0.0014480403 0.00078505011)
(-0.21757169 -0.022839009 0.00074536332)
(-0.21923325 -0.04494883 0.00069071759)
(-0.21861237 -0.067305447 0.00062177816)
(-0.21544359 -0.089324553 0.00054026343)
(-0.20949007 -0.1103078 0.00044905776)
(-0.20057231 -0.12945121 0.00035223471)
(-0.18860372 -0.14586819 0.0002549508)
(-0.17363131 -0.15863173 0.00016317532)
(-0.15587735 -0.16683906 8.3238543e-05)
(-0.13577486 -0.16969882 2.1212333e-05)
(-0.11398734 -0.1666356 -1.7819346e-05)
(-0.091401889 -0.15739892 -3.047944e-05)
(-0.069088319 -0.14215656 -1.5613263e-05)
(-0.048221248 -0.12154833 2.5459377e-05)
(-0.029957018 -0.096679035 8.8524667e-05)
(-0.015288809 -0.069037643 0.00016717463)
(-0.0051373672 -0.040356403 0.00026196573)
(-0.00065645738 -0.012511383 0.0003539481)
(-0.00056300557 0.01854461 0.00030235202)
(-0.0035819323 0.049853224 0.00039536727)
(-0.0097455301 0.075696815 0.00044274707)
(-0.018039366 0.096531363 0.00047848289)
(-0.027887891 0.1128806 0.00051033898)
(-0.03890925 0.1252797 0.00054033105)
(-0.050770855 0.13423292 0.0005702519)
(-0.063198972 0.14018493 0.00060169141)
(-0.075978098 0.14350442 0.00063566055)
(-0.088938846 0.14447794 0.00067263514)
(-0.10194673 0.14331217 0.00071263219)
(-0.11489234 0.1401421 0.00075525206)
(-0.12768239 0.1350432 0.00079971236)
(-0.14023163 0.12804557 0.00084487668)
(-0.15245568 0.1191487 0.00088928022)
(-0.16426459 0.10833589 0.00093115873)
(-0.17555699 0.09558806 0.00096848651)