/*--------------------------------*- C++ -*----------------------------------*\
  =========                 |
  \\      /  F ield         | OpenFOAM: The Open Source CFD Toolbox
   \\    /   O peration     | Website:  https://openfoam.org
    \\  /    A nd           | Version:  7
     \\/     M anipulation  |
\*---------------------------------------------------------------------------*/
FoamFile
{
    version     2.0;
    format      ascii;
    class       volScalarField;
    location    "3.85";
    object      T;
}
// * * * * * * * * * * * * * * * * * * * * * * * * * * * * * * * * * * * * * //

dimensions      [0 0 0 1 0 0 0];

internalField   nonuniform List<scalar> 
1000
(
0
0
0
0
0
0
0
0
0
0
0
0
0
0
0
0
0
0
0
0
0
0
0
0
0
0
0
0
0
0
0
0
0
0
0
0
0
0
0
0
0
0
0
0
0
0
0
0
0
0
0
0
0
0
0
0
0
0
0
0
0
0
0
0
0
0
0
0
0
0
0
0
0
0
0
0
8.05327e-322
-1.53422e-319
2.51954e-317
-3.66012e-315
4.78425e-313
-5.69627e-311
6.23532e-309
-6.32126e-307
5.97054e-305
-5.2801e-303
4.39046e-301
-3.44498e-299
2.5588e-297
-1.80408e-295
1.21036e-293
-7.74391e-292
4.73426e-290
-2.77055e-288
1.55456e-286
-8.37574e-285
4.33916e-283
-2.16423e-281
1.04044e-279
-4.82641e-278
2.16249e-276
-9.36735e-275
3.92638e-273
-1.59381e-271
6.27025e-270
-2.3925e-268
8.86004e-267
-3.18651e-265
1.11366e-263
-3.78446e-262
1.25113e-260
-4.02601e-259
1.26164e-257
-3.85198e-256
1.14636e-254
-3.32678e-253
9.41834e-252
-2.60218e-250
7.01898e-249
-1.849e-247
4.75855e-246
-1.19681e-244
2.94256e-243
-7.0746e-242
1.66371e-240
-3.82801e-239
8.61985e-238
-1.90006e-236
4.1009e-235
-8.66837e-234
1.79488e-232
-3.64141e-231
7.23979e-230
-1.41088e-228
2.69553e-227
-5.0497e-226
9.27753e-225
-1.67192e-223
2.95587e-222
-5.12753e-221
8.72867e-220
-1.45837e-218
2.3918e-217
-3.85102e-216
6.08801e-215
-9.45096e-214
1.44088e-212
-2.15762e-211
3.17369e-210
-4.58608e-209
6.51095e-208
-9.08267e-207
1.24505e-205
-1.67724e-204
2.22063e-203
-2.88973e-202
3.69634e-201
-4.64777e-200
5.74516e-199
-6.98181e-198
8.34188e-197
-9.79963e-196
1.13194e-194
-1.28565e-193
1.43589e-192
-1.577e-191
1.70319e-190
-1.80896e-189
1.88943e-188
-1.94079e-187
1.96052e-186
-1.94766e-185
1.90284e-184
-1.82825e-183
1.72745e-182
-1.60512e-181
1.46667e-180
-1.31784e-179
1.16437e-178
-1.01157e-177
8.64089e-177
-7.25698e-176
5.99188e-175
-4.86352e-174
3.88051e-173
-3.04326e-172
2.34566e-171
-1.77674e-170
1.32242e-169
-9.67047e-169
6.94712e-168
-4.90207e-167
3.39708e-166
-2.31158e-165
1.54423e-164
-1.01258e-163
6.51579e-163
-4.11359e-162
2.5473e-161
-1.54675e-160
9.20679e-160
-5.37026e-159
3.06845e-158
-1.71671e-157
9.39997e-157
-5.03485e-156
2.63647e-155
-1.34882e-154
6.73679e-154
-3.28211e-153
1.55822e-152
-7.20077e-152
3.23456e-151
-1.41004e-150
5.95342e-150
-2.42852e-149
9.54066e-149
-3.59464e-148
1.29137e-147
-4.38627e-147
1.38996e-146
-4.01428e-146
1.00628e-145
-1.90326e-145
8.57543e-146
1.52091e-144
-1.00969e-143
4.41981e-143
-1.5498e-142
4.44519e-142
-9.64583e-142
9.47211e-142
4.4741e-141
-3.45643e-140
1.46034e-139
-4.53528e-139
1.00656e-138
-9.27451e-139
-4.90536e-138
3.46079e-137
-1.31788e-136
3.4381e-136
-4.90983e-136
-7.75726e-136
8.41774e-135
-3.39875e-134
8.69817e-134
-1.05691e-133
-2.88904e-133
2.3042e-132
-8.0809e-132
1.65219e-131
-3.50386e-132
-1.2909e-130
6.02163e-130
-1.52145e-129
1.4202e-129
6.89072e-129
-4.12222e-128
1.14731e-127
-1.30853e-127
-4.16357e-127
2.76637e-126
-7.67446e-126
7.8964e-126
3.11117e-125
-1.84e-124
4.56794e-124
-2.71907e-124
-2.57999e-123
1.16875e-122
-2.2752e-122
-7.90374e-123
2.03019e-121
-6.58665e-121
7.66974e-121
2.30744e-120
-1.36399e-119
2.89864e-119
3.88305e-120
-2.25831e-118
7.09963e-118
-6.556e-118
-3.02622e-117
1.42564e-116
-2.29416e-116
-3.0167e-116
2.53464e-115
-5.52945e-115
-1.15198e-115
4.16077e-114
-1.13145e-113
4.11927e-114
6.50996e-113
-2.10571e-112
1.47508e-112
9.99751e-112
-3.68542e-111
3.27323e-111
1.54909e-110
-6.17721e-110
5.90549e-110
2.47155e-109
-1.00005e-108
9.13573e-109
4.08345e-108
-1.56484e-107
1.19357e-107
6.90795e-107
-2.35096e-106
1.17344e-106
1.16998e-105
-3.34246e-105
3.43702e-106
1.93354e-104
-4.38477e-104
-2.13638e-104
3.04108e-103
-5.06314e-103
-7.39185e-103
4.43801e-102
-4.58566e-102
-1.648e-101
5.82245e-101
-1.78652e-101
-2.95443e-100
6.51055e-100
4.5583e-100
-4.44736e-99
5.42377e-99
1.49183e-98
-5.55832e-98
1.39077e-98
2.77484e-97
-5.36032e-97
-6.08643e-97
3.83788e-96
-2.87322e-96
-1.57351e-95
3.93229e-95
2.23886e-95
-2.37503e-94
2.33882e-94
8.80785e-94
-2.45007e-93
-1.03911e-93
1.38188e-92
-1.35342e-92
-5.10604e-92
1.34406e-91
7.9284e-92
-7.62701e-91
5.62962e-91
3.02845e-90
-6.37876e-90
-7.06755e-90
3.88416e-89
-1.05608e-89
-1.72787e-88
2.39934e-88
5.54144e-88
-1.70986e-87
-8.06229e-88
8.74594e-87
-5.00922e-87
-3.52359e-86
5.66329e-86
1.06951e-85
-3.54312e-85
-1.62489e-85
1.72913e-84
-7.64637e-85
-7.02136e-84
9.14969e-84
2.34663e-83
-5.83923e-83
-5.72541e-83
2.95429e-82
3.09638e-83
-1.28774e-81
7.60389e-82
4.95097e-81
-6.46344e-81
-1.66771e-80
3.7395e-80
4.68514e-80
-1.82381e-79
-8.94947e-80
7.9778e-79
-6.03788e-80
-3.21194e-78
1.84903e-78
1.20425e-77
-1.30201e-77
-4.21994e-77
6.9943e-77
1.37725e-76
-3.30138e-76
-4.13e-76
1.43815e-75
1.09897e-75
-5.92135e-75
-2.34291e-75
2.33675e-74
2.24346e-75
-8.9217e-74
1.4226e-74
3.31857e-73
-1.27268e-73
-1.20936e-72
7.0428e-73
4.3385e-72
-3.28878e-72
-1.53864e-71
1.39964e-71
5.41472e-71
-5.60023e-71
-1.89702e-70
2.13931e-70
6.63394e-70
-7.86622e-70
-2.32002e-69
2.79549e-69
8.1219e-69
-9.6136e-69
-2.8462e-68
3.19508e-68
9.97442e-68
-1.02193e-67
-3.48911e-67
3.11938e-67
1.21511e-66
-8.944e-67
-4.19962e-66
2.33194e-66
1.43517e-65
-5.09465e-66
-4.82964e-65
6.5903e-66
1.59303e-64
1.62207e-65
-5.12228e-64
-1.87041e-64
1.59471e-63
1.0599e-63
-4.76311e-63
-4.86635e-63
1.34625e-62
1.99147e-62
-3.5172e-62
-7.50964e-62
8.09246e-62
2.64393e-61
-1.42746e-61
-8.72176e-61
6.22419e-62
2.68694e-60
1.03224e-60
-7.64654e-60
-6.77441e-60
1.96221e-59
3.01362e-59
-4.2895e-59
-1.12048e-58
6.62669e-59
3.6643e-58
1.22953e-59
-1.06342e-57
-6.60744e-58
2.68709e-57
3.5511e-57
-5.51986e-57
-1.36839e-56
6.92072e-57
4.34919e-56
9.49851e-57
-1.1638e-55
-1.07327e-55
2.50779e-55
4.79253e-55
-3.49837e-55
-1.58752e-54
-2.22616e-55
4.20274e-54
3.85421e-54
-8.47532e-54
-1.72318e-53
9.14172e-54
5.40897e-53
2.00852e-53
-1.28527e-52
-1.62908e-52
2.02965e-52
6.10064e-52
-2.78873e-55
-1.61215e-51
-1.45514e-51
2.90168e-51
6.48912e-51
-1.49811e-51
-1.82818e-50
-1.36013e-50
3.40583e-50
6.82953e-50
-1.99266e-50
-1.94572e-49
-1.45444e-49
3.46351e-49
7.25059e-49
-1.21118e-49
-1.95317e-48
-1.76662e-48
2.99828e-48
7.64897e-48
8.82197e-49
-1.80062e-47
-2.21865e-47
1.9543e-47
7.66726e-47
3.95588e-47
-1.41974e-46
-2.613e-46
3.93088e-47
6.80114e-46
7.14705e-46
-7.82415e-46
-2.66613e-45
-1.37578e-45
4.68726e-45
9.09312e-45
2.02584e-46
-2.13327e-44
-2.75404e-44
1.51887e-44
8.44468e-44
7.3851e-44
-1.0148e-43
-3.06299e-43
-1.69305e-43
4.86898e-43
1.04785e-42
2.90775e-43
-2.02556e-42
-3.4511e-42
-1.08848e-43
7.77161e-42
1.11342e-41
-2.06677e-42
-2.8328e-41
-3.57547e-41
1.29451e-41
9.97623e-41
1.15937e-40
-5.53737e-41
-3.42781e-40
-3.83779e-40
1.96639e-40
1.15461e-39
1.30361e-39
-5.9633e-40
-3.81408e-39
-4.53454e-39
1.45597e-39
1.23068e-38
1.60155e-38
-1.99352e-39
-3.84423e-38
-5.67069e-38
-6.18176e-39
1.14411e-37
1.98334e-37
7.19881e-38
-3.15327e-37
-6.74332e-37
-4.26277e-37
7.58245e-37
2.1885e-36
2.0233e-36
-1.32815e-36
-6.61825e-36
-8.38808e-36
-7.3621e-38
1.79227e-35
3.10824e-35
1.54209e-35
-3.97664e-35
-1.02618e-34
-9.54101e-35
5.06337e-35
2.93429e-34
4.15273e-34
1.19144e-34
-6.68721e-34
-1.46166e-33
-1.23432e-33
8.48009e-34
4.16708e-33
5.87039e-33
2.03599e-33
-8.6199e-33
-2.03552e-32
-1.99129e-32
5.45925e-33
5.22037e-32
8.74163e-32
5.66047e-32
-7.54002e-32
-2.63327e-31
-3.48947e-31
-1.22965e-31
4.91729e-31
1.2152e-30
1.34896e-30
1.10276e-31
-2.59852e-30
-5.37114e-30
-5.24935e-30
7.27249e-31
1.23865e-29
2.3362e-29
2.13247e-29
-5.42989e-30
-5.5337e-29
-1.01482e-28
-9.26531e-29
2.04276e-29
2.34239e-28
4.41755e-28
4.30745e-28
-1.86661e-29
-9.309e-28
-1.91191e-27
-2.0935e-27
-4.61628e-28
3.35168e-27
8.07169e-27
1.02712e-26
5.28059e-27
-9.88813e-27
-3.21758e-26
-4.90346e-26
-3.97699e-26
1.47834e-26
1.14243e-25
2.19207e-25
2.45048e-25
8.70257e-26
-3.13088e-25
-8.72081e-25
-1.29033e-24
-1.07565e-24
2.56342e-25
2.78938e-24
5.73651e-24
7.17715e-24
4.4016e-24
-4.80432e-24
-1.99762e-23
-3.56247e-23
-4.02802e-23
-1.89704e-23
3.93141e-23
1.29626e-22
2.18586e-22
2.39648e-22
1.06883e-22
-2.44221e-22
-7.90391e-22
-1.34843e-21
-1.53963e-21
-8.49572e-22
1.16348e-21
4.50237e-21
8.28857e-21
1.04499e-20
7.86001e-21
-2.72056e-21
-2.27061e-20
-4.89666e-20
-7.12125e-20
-7.11441e-20
-2.5569e-20
8.45036e-20
2.58291e-19
4.55855e-19
5.82231e-19
4.87343e-19
-3.01416e-21
-1.01222e-18
-2.49226e-18
-4.07846e-18
-4.9731e-18
-3.94689e-18
4.28853e-19
9.21671e-18
2.2182e-17
3.66128e-17
4.62411e-17
4.08925e-17
7.73862e-18
-6.49109e-17
-1.80641e-16
-3.25019e-16
-4.54516e-16
-4.88254e-16
-3.09044e-16
2.17824e-16
1.19932e-15
2.63738e-15
4.32233e-15
5.71463e-15
5.8537e-15
3.35809e-15
-3.39557e-15
-1.58158e-14
-3.42797e-14
-5.69346e-14
-7.82236e-14
-8.74401e-14
-6.78915e-14
2.42792e-15
1.47459e-13
3.85643e-13
7.17231e-13
1.10585e-12
1.45529e-12
1.585e-12
1.21149e-12
-5.25529e-14
-2.66409e-12
-7.05829e-12
-1.34745e-11
-2.16758e-11
-3.05492e-11
-3.75933e-11
-3.83444e-11
-2.58495e-11
9.61132e-12
8.02391e-11
1.99409e-10
3.78738e-10
6.22782e-10
9.20537e-10
1.23295e-09
1.47591e-09
1.49868e-09
1.05896e-09
-2.02666e-10
-2.78329e-09
-7.32374e-09
-1.45852e-08
-2.53735e-08
-4.03796e-08
-5.98904e-08
-8.33099e-08
-1.08411e-07
-1.30216e-07
-1.39374e-07
-1.19884e-07
-4.59561e-08
1.22204e-07
4.43967e-07
1.00551e-06
1.92907e-06
3.38459e-06
5.60418e-06
8.89985e-06
1.3685e-05
2.05002e-05
3.00433e-05
4.32052e-05
6.11108e-05
8.51658e-05
0.000117109
0.000159074
0.00021365
0.000283957
0.00037372
0.000487354
0.000630045
0.000807844
0.00102776
0.00129783
0.00162724
0.00202639
0.00250697
0.00308207
0.00376616
0.00457522
0.00552674
0.0066397
0.00793462
0.00943347
0.0111597
0.0131379
0.0153942
0.0179556
0.02085
0.0241061
0.027753
0.0318202
0.036337
0.0413324
0.0468348
0.0528716
0.0594689
0.0666512
0.0744408
0.082858
0.0919202
0.101642
0.112035
0.123106
0.13486
0.147297
0.160413
0.174201
0.188648
0.203737
0.219448
0.235757
0.252634
0.270047
0.287961
0.306334
0.325127
0.344292
0.363783
0.383549
0.403541
0.423706
0.443991
0.464343
0.484708
0.505034
0.52527
0.545365
0.565269
0.584937
0.604322
0.623385
0.642084
0.660383
0.678249
0.695652
0.712565
0.728964
0.74483
0.760145
0.774895
0.789072
0.802667
0.815676
0.828099
0.839937
0.851193
0.861875
0.871991
0.881552
0.890569
0.899057
0.907032
0.914508
0.921504
0.928038
0.934129
0.939794
0.945054
0.949928
0.954435
0.958593
0.96242
0.965935
0.969154
0.972094
0.974768
0.977192
0.979377
0.981335
0.983076
0.984608
0.985937
0.987068
0.988004
0.988746
0.989292
0.98964
0.989784
0.989717
0.989429
0.988909
0.988142
0.987114
0.985806
0.984198
0.982271
0.980001
0.977363
0.974334
0.970887
0.966996
0.962633
0.957773
0.952389
0.946456
0.93995
0.932847
0.925126
0.916768
0.907758
0.898082
0.887728
0.876691
0.864966
0.852554
0.839459
0.82569
0.81126
0.796184
0.780485
0.764186
0.747318
0.729912
0.712005
0.693636
0.674849
0.655687
0.6362
0.616436
0.596446
0.576283
0.556
0.53565
0.515286
0.49496
0.474726
0.454632
0.434728
0.415061
0.395676
0.376614
0.357915
0.339616
0.32175
0.304347
0.287434
0.271035
0.25517
0.239855
0.225104
0.210928
0.197333
0.184324
0.171901
0.160063
0.148807
0.138125
0.128009
0.118448
0.109431
0.100942
0.0929679
0.0854909
0.0784937
0.0719583
0.0658658
0.0601968
0.0549318
0.0500512
0.0455351
0.041364
0.0375185
0.0339795
0.0307284
0.0277472
0.0250181
0.0225241
0.0202491
0.0181772
0.0162937
0.0145841
0.0130351
0.0116339
0.0103685
0.00922763
0.00820066
0.00727772
0.0064496
0.00570774
0.0050442
0.00445164
0.0039233
0.00345293
0.00303482
0.00266374
0.00233477
0.00204434
0.00178414
0.00157374
0.00128638
)
;

boundaryField
{
    sides
    {
        type            zeroGradient;
    }
    empty
    {
        type            empty;
    }
}


// ************************************************************************* //
