/*--------------------------------*- C++ -*----------------------------------*\
  =========                 |
  \\      /  F ield         | OpenFOAM: The Open Source CFD Toolbox
   \\    /   O peration     | Website:  https://openfoam.org
    \\  /    A nd           | Version:  7
     \\/     M anipulation  |
\*---------------------------------------------------------------------------*/
FoamFile
{
    version     2.0;
    format      ascii;
    class       volScalarField;
    location    "50";
    object      p;
}
// * * * * * * * * * * * * * * * * * * * * * * * * * * * * * * * * * * * * * //

dimensions      [0 2 -2 0 0 0 0];

internalField   nonuniform List<scalar> 
16000
(
8.0253335e-06
-0.00013246398
-0.00044399783
-0.00084636582
-0.0012645839
-0.0016532584
-0.0019815181
-0.0022305231
-0.0023896362
-0.002453153
-0.0024181338
-0.0022831211
-0.0020475445
-0.0017116474
-0.0012767878
-0.00074597478
-0.00012451998
0.00057930959
0.0013537369
0.0021831087
0.003047798
0.0039244453
0.0047865678
0.0056055745
0.0063521408
0.0069978868
0.0075172565
0.0078894556
0.0081002876
0.0081437134
0.0080229744
0.0077511739
0.0073513033
0.0068557942
0.0063055008
0.0057479519
0.0052382057
0.0048325531
0.0045926808
0.0045539198
0.00015243243
7.4927004e-06
-0.00024260378
-0.00055149038
-0.00087369095
-0.0011748952
-0.0014308588
-0.001625402
-0.0017481643
-0.0017927034
-0.0017550792
-0.0016329286
-0.0014249974
-0.0011310536
-0.00075208828
-0.00029070666
0.00024838237
0.00085786805
0.0015274153
0.0022433891
0.0029887886
0.0037435867
0.0044850781
0.0051889079
0.0058302235
0.0063851259
0.0068322902
0.0071546164
0.0073407696
0.0073864663
0.0072953719
0.0070795065
0.0067590981
0.006361914
0.0059221482
0.0054787851
0.0050729841
0.004748197
0.0045496325
0.0045142564
0.00047105114
0.00025316789
-2.6712044e-06
-0.00028172222
-0.00056196996
-0.00081891017
-0.0010347545
-0.0011974452
-0.0012987762
-0.001333227
-0.001297079
-0.0011878001
-0.0010037499
-0.00074417382
-0.00040941823
-1.2998045e-06
0.00047644493
0.0010177005
0.0016135748
0.0022521357
0.0029183786
0.0035943494
0.0042596875
0.0048923967
0.0054699371
0.005970576
0.0063749035
0.0066673864
0.0068378062
0.0068824303
0.0068047871
0.0066159524
0.0063342869
0.0059846197
0.0055969483
0.0052047037
0.0048424548
0.0045444383
0.0043470117
0.0042797542
0.0008926615
0.00056140401
0.00026071074
-2.5076047e-05
-0.00029568074
-0.0005348317
-0.00073096409
-0.00087686383
-0.00096745958
-0.00099905615
-0.00096884024
-0.00087452519
-0.00071423916
-0.00048664362
-0.00019123036
0.00017125824
0.00059834304
0.0010853155
0.001624801
0.0022064517
0.0028168367
0.0034395066
0.0040554988
0.0046440263
0.0051835285
0.0056529877
0.0060334305
0.0063094906
0.0064708693
0.0065135152
0.0064403674
0.0062615631
0.0059940704
0.0056607553
0.0052889251
0.0049084892
0.0045501014
0.0042436534
0.0040156922
0.0038801117
0.001343456
0.00088378996
0.00052063599
0.00021032121
-6.7388216e-05
-0.00030344799
-0.00049218189
-0.00063132751
-0.00071922829
-0.00075431911
-0.00073493756
-0.00065918218
-0.00052496969
-0.00033028939
-7.3607855e-05
0.00024562217
0.0006263971
0.0010655946
0.001557459
0.0020932051
0.0026608082
0.003245037
0.0038278123
0.00438889
0.0049068877
0.0053606084
0.0057305758
0.0060006588
0.0061596174
0.0062023739
0.0061308164
0.0059539944
0.0056876682
0.0053532495
0.0049761906
0.0045840632
0.0042051548
0.0038666137
0.0035839287
0.0033602991
0.0017703023
0.0011771756
0.0007425141
0.00039646679
9.9905453e-05
-0.00014438532
-0.00033609732
-0.00047768239
-0.00057083067
-0.0006161178
-0.00061305456
-0.00056011575
-0.00045494567
-0.00029474515
-7.6793541e-05
0.0002009336
0.00053909361
0.00093630216
0.0013885104
0.0018884969
0.0024255432
0.0029853755
0.0035504147
0.0041004207
0.0046135065
0.0050675009
0.0054415653
0.0057179278
0.0058835622
0.0059316089
0.0058623209
0.0056833529
0.0054093062
0.005060566
0.0046615122
0.0042385009
0.0038189798
0.0034294695
0.003076918
0.0027496125
0.0021279946
0.0014030185
0.00089343208
0.0005052021
0.00018193282
-7.9045783e-05
-0.00028225036
-0.00043446144
-0.00054046117
-0.00060279351
-0.00062200884
-0.00059683329
-0.00052450362
-0.00040127801
-0.00022307493
1.3793844e-05
0.00031183262
0.00067156037
0.0010907557
0.0015638141
0.0020812909
0.0026297281
0.0031917849
0.0037468234
0.0042718954
0.0047431497
0.0051375613
0.00543483
0.0056192529
0.0056813515
0.0056190279
0.0054380429
0.0051516789
0.0047795659
0.0043457221
0.0038763842
0.0033996198
0.0029431212
0.0025068925
0.0020653457
0.0023779679
0.0015265644
0.00094249118
0.00050931649
0.00015473148
-0.00012882315
-0.00035021693
-0.00052013636
-0.00064611337
-0.00073238323
-0.0007803026
-0.00078864231
-0.00075403707
-0.00067160947
-0.00053571969
-0.00034081124
-8.232272e-05
0.00024237637
0.00063308318
0.0010859615
0.0015929277
0.0021413427
0.0027139921
0.0032895951
0.0038437334
0.0043502802
0.0047832423
0.0051188615
0.0053377553
0.0054268412
0.0053807855
0.0052027567
0.0049043209
0.0045043859
0.0040271509
0.0034997593
0.0029523163
0.0024153961
0.0018839886
0.0013214673
0.0024864151
0.0015161205
0.00086039009
0.00038192943
-6.3746352e-06
-0.00031659775
-0.00056157852
-0.00075550444
-0.0009082937
-0.0010255551
-0.0011091728
-0.001157714
-0.0011669822
-0.0011307423
-0.0010415711
-0.00089180794
-0.00067458228
-0.000384882
-2.0608937e-05
0.00041644586
0.00091979998
0.0014778132
0.0020734558
0.0026847234
0.0032854605
0.0038467779
0.0043389791
0.0047338706
0.0050072324
0.0051411537
0.0051259132
0.0049611314
0.0046560076
0.0042285042
0.0037033158
0.0031093753
0.0024802036
0.0018509498
0.0012130236
0.00051953547
0.002422864
0.001342607
0.00061956413
9.6995215e-05
-0.00032604031
-0.00066588807
-0.00093904934
-0.0011628482
-0.0013492428
-0.0015049001
-0.0016319477
-0.0017284932
-0.0017892705
-0.0018064517
-0.0017705825
-0.0016716259
-0.0015000955
-0.0012482498
-0.00091130107
-0.00048857942
1.5448458e-05
0.00059055844
0.0012201506
0.00188162
0.0025469719
0.0031841799
0.0037591612
0.0042382748
0.0045911517
0.0047935474
0.0048298291
0.0046947265
0.0043940803
0.0039443903
0.0033709029
0.0027050279
0.0019850062
0.0012522688
0.0004957686
-0.00034137404
0.0021595384
0.00097939
0.00019441528
-0.00037013773
-0.00082808307
-0.00119986
-0.0015053832
-0.0017647946
-0.0019917834
-0.0021937904
-0.0023729266
-0.0025266017
-0.0026482547
-0.0027282345
-0.0027547998
-0.0027152345
-0.0025970725
-0.0023894085
-0.0020842583
-0.0016779198
-0.00117224
-0.00057533661
9.7082302e-05
0.00082220632
0.0015703279
0.0023060689
0.00299035
0.0035830482
0.0040461941
0.0043474175
0.0044632174
0.0043815694
0.0041034542
0.0036429734
0.0030256646
0.0022858746
0.0014677725
0.00062080535
-0.00026769393
-0.0012648653
0.0016712416
0.00040235203
-0.00043840817
-0.0010422437
-0.0015348258
-0.0019405363
-0.0022824889
-0.0025833663
-0.0028583279
-0.0031153526
-0.0033563209
-0.0035777472
-0.0037715821
-0.0039261434
-0.0040271544
-0.0040589043
-0.0040055382
-0.0038524696
-0.0035878858
-0.0032042809
-0.0026999439
-0.0020804836
-0.001359422
-0.000559176
0.0002892455
0.0011471547
0.001970019
0.0027102189
0.0033206072
0.00375861
0.0039904373
0.0039948236
0.0037656981
0.0033132027
0.0026624375
0.001850856
0.00092966193
-4.1889521e-05
-0.0010774927
-0.0022553348
0.00093557415
-0.00040984343
-0.0012996381
-0.0019397084
-0.0024664459
-0.0029080182
-0.0032905411
-0.0036389958
-0.0039698031
-0.0042913046
-0.0046050007
-0.0049063729
-0.0051857425
-0.0054292284
-0.0056197974
-0.0057384349
-0.0057654675
-0.0056820489
-0.0054717946
-0.0051225099
-0.0046279549
-0.0039897677
-0.0032184378
-0.0023348397
-0.0013704248
-0.0003667628
0.00062600129
0.0015518784
0.002352908
0.0029739604
0.0033680402
0.003501449
0.0033580161
0.0029414941
0.0022751053
0.0013991324
0.00037277981
-0.00073299163
-0.0019324693
-0.0033160943
-6.6640763e-05
-0.001475354
-0.002406938
-0.0030799832
-0.0036403084
-0.0041196868
-0.0045470474
-0.0049494594
-0.0053444493
-0.0057406158
-0.0061390042
-0.0065340041
-0.0069142386
-0.007263523
-0.0075618938
-0.007786755
-0.0079141932
-0.0079204978
-0.0077838957
-0.0074864741
-0.0070162469
-0.0063693385
-0.0055518052
-0.0045814547
-0.0034888534
-0.0023175171
-0.0011228896
3.0137823e-05
0.0010712658
0.0019302715
0.0025435435
0.0028609708
0.0028522148
0.0025110882
0.0018564752
0.00093049811
-0.00019894403
-0.0014471653
-0.0028286664
-0.0044476434
-0.00135082
-0.0028086952
-0.0037744262
-0.0044770362
-0.0050703102
-0.0055894134
-0.0060659049
-0.0065287657
-0.0069965319
-0.0074780273
-0.0079738534
-0.0084773381
-0.0089754289
-0.0094496176
-0.0098769118
-0.010230916
-0.010483098
-0.010604295
-0.010566511
-0.010344995
-0.0099205974
-0.0092823248
-0.0084298658
-0.0073760203
-0.006148602
-0.0047915094
-0.0033645185
-0.0019413726
-0.00060585789
0.00055421011
0.0014548049
0.0020246029
0.0022138466
0.0020014588
0.0013981447
0.00044579929
-0.00077881495
-0.0021752152
-0.0037577019
-0.0056458782
-0.0029280568
-0.0044202811
-0.0054122263
-0.006140847
-0.0067662732
-0.0073268139
-0.0078564851
-0.0083860464
-0.0089350147
-0.0095124921
-0.01011874
-0.010746153
-0.01138013
-0.011999923
-0.012579514
-0.013088584
-0.013493684
-0.01375968
-0.013851557
-0.013736608
-0.013387037
-0.012782916
-0.011915379
-0.010789821
-0.0094288358
-0.0078744081
-0.0061888507
-0.0044538646
-0.0027671563
-0.0012362405
3.05325e-05
0.00093511476
0.0014017943
0.0013879631
0.0008904981
-5.2552805e-05
-0.0013563102
-0.0029025617
-0.0047049331
-0.0069000866
-0.0048046084
-0.0063160409
-0.0073261096
-0.0080770011
-0.0087334387
-0.0093365971
-0.0099227988
-0.010524506
-0.011162269
-0.011845617
-0.012574679
-0.013341152
-0.014129119
-0.014915791
-0.015672249
-0.016364253
-0.016953263
-0.017397775
-0.017655068
-0.017683443
-0.017445017
-0.016909044
-0.016055753
-0.01488037
-0.013397229
-0.011643321
-0.009680719
-0.0075970818
-0.0055033784
-0.0035280698
-0.0018073833
-0.00047198454
0.00036871378
0.00064201366
0.00032302402
-0.00055983204
-0.0019157829
-0.0036074452
-0.0056473025
-0.0081905984
-0.0069815095
-0.0084971786
-0.0095172967
-0.010286451
-0.010972125
-0.01161807
-0.012262807
-0.012940504
-0.013672904
-0.014470221
-0.015332771
-0.016251901
-0.017210722
-0.018184723
-0.019142332
-0.020045528
-0.020850671
-0.021509656
-0.021971549
-0.022184806
-0.022100169
-0.021674295
-0.020874113
-0.019681766
-0.018099843
-0.016156521
-0.013909806
-0.011449995
-0.0088991852
-0.0064066292
-0.0041389901
-0.0022652349
-0.000937077
-0.00026781182
-0.00031477147
-0.0010678236
-0.0024347858
-0.0042587269
-0.0065507392
-0.0094859449
-0.0094543897
-0.010960152
-0.011982487
-0.01276551
-0.013477621
-0.01416487
-0.014867948
-0.015622858
-0.016452819
-0.017369124
-0.018372719
-0.019455062
-0.020598747
-0.021777963
-0.022958851
-0.024099897
-0.025152511
-0.02606197
-0.02676886
-0.0272112
-0.027327357
-0.027059853
-0.026360144
-0.025194413
-0.02354982
-0.021441384
-0.018918255
-0.016068627
-0.013021803
-0.0099457095
-0.0070382399
-0.0045112783
-0.0025675766
-0.001373166
-0.001031474
-0.0015629803
-0.0028818409
-0.0048131371
-0.0073669654
-0.010739377
-0.012213562
-0.013696937
-0.014714188
-0.015506146
-0.016240368
-0.016964977
-0.017722949
-0.018552423
-0.019478562
-0.020514292
-0.021661765
-0.022913126
-0.024251003
-0.025648796
-0.027070824
-0.028472474
-0.029800524
-0.030993812
-0.031984451
-0.032699769
-0.033065139
-0.033007812
-0.032461953
-0.031375472
-0.029716351
-0.02748194
-0.02470708
-0.021471855
-0.017906931
-0.014194374
-0.01056152
-0.0072656406
-0.0045682897
-0.0027012074
-0.0018304048
-0.002023586
-0.0032134435
-0.005211805
-0.008029558
-0.01188459
-0.01524445
-0.016695661
-0.017701408
-0.018496635
-0.01924649
-0.02000107
-0.020805966
-0.021702026
-0.022717077
-0.023866427
-0.02515417
-0.026573818
-0.028108657
-0.029731864
-0.031406454
-0.033085191
-0.034710636
-0.036215551
-0.037523833
-0.038552205
-0.039212866
-0.039417208
-0.039080837
-0.038131986
-0.036515872
-0.034208015
-0.031223335
-0.027626925
-0.023543256
-0.019161389
-0.014733067
-0.010560108
-0.0069681846
-0.0042671855
-0.002704278
-0.00241554
-0.0033700498
-0.005375892
-0.008449106
-0.012830509
-0.018528409
-0.019941667
-0.020930796
-0.02172263
-0.022478704
-0.023251216
-0.024089061
-0.02503676
-0.026125859
-0.027375071
-0.028791333
-0.030370304
-0.03209659
-0.033943719
-0.035873915
-0.037837789
-0.039774155
-0.041610157
-0.043261923
-0.044635968
-0.04563158
-0.046144508
-0.046072133
-0.045318695
-0.04380762
-0.041488372
-0.038350556
-0.034437189
-0.029857841
-0.024799082
-0.019528484
-0.014387261
-0.0097664262
-0.0060639954
-0.0036274098
-0.0026863636
-0.0032707648
-0.0052011299
-0.0085073091
-0.013455015
-0.022044002
-0.023419095
-0.02438829
-0.025168684
-0.025917613
-0.026689906
-0.027538995
-0.028514603
-0.029653524
-0.03097922
-0.032502579
-0.034222264
-0.036124854
-0.038184741
-0.040363775
-0.042610813
-0.044861326
-0.047037302
-0.049047633
-0.050789225
-0.052149088
-0.053007683
-0.053243743
-0.052740405
-0.051395291
-0.049130108
-0.04590518
-0.041735035
-0.036705425
-0.030989411
-0.024858606
-0.018683673
-0.012916613
-0.0080488005
-0.0045452302
-0.0027570859
-0.0028064545
-0.0045510543
-0.0080498435
-0.013597472
-0.025768815
-0.0271131
-0.028061369
-0.028820283
-0.029543387
-0.030289358
-0.031118239
-0.032087286
-0.033240686
-0.034608406
-0.03620659
-0.038037809
-0.040091199
-0.042342374
-0.04475305
-0.047270526
-0.049827171
-0.052340158
-0.054711628
-0.056829542
-0.058569458
-0.059797508
-0.060374791
-0.060163479
-0.059036296
-0.056886007
-0.053641109
-0.049282714
-0.043864783
-0.037535586
-0.030556855
-0.023314326
-0.016310208
-0.010127524
-0.0053612254
-0.0025118345
-0.001831042
-0.0032487181
-0.006877799
-0.013049954
-0.029681951
-0.031012893
-0.031942056
-0.032666422
-0.033337764
-0.034020992
-0.03478608
-0.035701263
-0.036821049
-0.038184119
-0.039813364
-0.041716139
-0.043884552
-0.046295539
-0.048910621
-0.051675429
-0.054519183
-0.057354325
-0.060076544
-0.062565401
-0.064685828
-0.066290732
-0.067224966
-0.067331014
-0.066457741
-0.064469831
-0.061263192
-0.056782711
-0.051044624
-0.044162413
-0.036373608
-0.028061587
-0.01976184
-0.012138912
-0.0059220637
-0.0017852279
-0.00015082401
-0.001066646
-0.0047374169
-0.011546945
-0.033767451
-0.035115918
-0.036030883
-0.036702791
-0.037286332
-0.037856926
-0.038499647
-0.039298618
-0.040322535
-0.041621453
-0.043226588
-0.045150795
-0.04738925
-0.049919923
-0.052703651
-0.055683865
-0.058786179
-0.061918032
-0.064968629
-0.067809403
-0.070295293
-0.072266996
-0.073554595
-0.073982847
-0.073377536
-0.071578095
-0.068448694
-0.063897511
-0.057899935
-0.050527401
-0.041980581
-0.032622294
-0.022999877
-0.013840789
-0.0060024334
-0.00034813115
0.0024882282
0.0022852568
-0.0013077003
-0.0087531646
-0.038019167
-0.03943374
-0.040342223
-0.040935704
-0.041380979
-0.041771314
-0.042214637
-0.042817723
-0.043668322
-0.044830847
-0.046346291
-0.048233331
-0.050489789
-0.053093814
-0.056004508
-0.059162041
-0.062487474
-0.065882511
-0.069229429
-0.07239141
-0.075213684
-0.077525449
-0.079143076
-0.079874834
-0.079527249
-0.0779152
-0.07487388
-0.070276533
-0.064057572
-0.056242779
-0.04698686
-0.036615836
-0.02566584
-0.014901886
-0.0052919862
0.0021071106
0.0064149919
0.0071742376
0.0038148631
-0.0042487182
-0.042448097
-0.044000667
-0.044911592
-0.045386959
-0.045622445
-0.045741289
-0.045885534
-0.046193499
-0.0467777
-0.04771987
-0.049071709
-0.050857296
-0.053075865
-0.055704116
-0.058697682
-0.061991786
-0.06550145
-0.069121415
-0.072726149
-0.076170003
-0.079288343
-0.081899114
-0.083805693
-0.084801149
-0.084674233
-0.083218046
-0.080241624
-0.075586279
-0.069147763
-0.060906309
-0.050966178
-0.039604709
-0.027325663
-0.014902908
-0.003387622
0.0059800294
0.012049131
0.0140623
0.011135854
0.002490132
-0.047094164
-0.048886872
-0.049806
-0.050099929
-0.050022848
-0.049747315
-0.049465162
-0.049357213
-0.049566761
-0.050195094
-0.051304388
-0.052922443
-0.055047515
-0.057652231
-0.06068621
-0.064077383
-0.067732698
-0.071538214
-0.075359602
-0.079040862
-0.082407203
-0.085265013
-0.087404781
-0.088604977
-0.088637757
-0.087276128
-0.084305658
-0.079539054
-0.07283701
-0.064137069
-0.053493006
-0.041127188
-0.027494708
-0.013350498
0.00020480302
0.011771013
0.019917517
0.023527852
0.021289291
0.012118245
-0.052046365
-0.054219196
-0.055138926
-0.05514729
-0.054608045
-0.053772711
-0.052903455
-0.052235867
-0.051949067
-0.052164199
-0.05295157
-0.054339123
-0.056320166
-0.058859404
-0.061897221
-0.065350947
-0.069117111
-0.073070867
-0.077068984
-0.080941255
-0.084503299
-0.087549065
-0.089855628
-0.091186711
-0.091298871
-0.089944702
-0.086888293
-0.081916419
-0.074858059
-0.065611886
-0.054183961
-0.040740347
-0.025677326
-0.0097075332
0.0060542495
0.020081223
0.030669052
0.036292707
0.035075277
0.025464644
-0.057479037
-0.060215041
-0.061092275
-0.060640673
-0.059419408
-0.057801969
-0.056145347
-0.054751247
-0.053836414
-0.053538373
-0.053929838
-0.055032648
-0.056829257
-0.059271144
-0.062286171
-0.065776003
-0.069625175
-0.073695979
-0.077830637
-0.081849775
-0.085554491
-0.08872577
-0.091126787
-0.092505987
-0.092601949
-0.091149522
-0.087890327
-0.082585603
-0.075034468
-0.065099381
-0.052741475
-0.038071428
-0.021421159
-0.0034430784
0.014767503
0.031596342
0.045083577
0.053255463
0.053515834
0.043606605
-0.063719869
-0.067238619
-0.067948236
-0.066741894
-0.06451388
-0.061816945
-0.059127201
-0.056818292
-0.055139389
-0.054234597
-0.05416843
-0.054947026
-0.056534007
-0.058861488
-0.061837375
-0.065347885
-0.069260233
-0.073421921
-0.077660756
-0.081784246
-0.085579497
-0.0888135
-0.091234561
-0.092574885
-0.092554829
-0.090889159
-0.087296165
-0.081510523
-0.073300333
-0.06249104
-0.048998588
-0.032876784
-0.014387364
0.0058939017
0.026923483
0.047043896
0.06406662
0.075530312
0.077938519
0.06800441
-0.071382043
-0.075894743
-0.076133619
-0.073673478
-0.069959371
-0.065788536
-0.061769953
-0.058341215
-0.055766193
-0.054176269
-0.053610733
-0.054046631
-0.05541784
-0.057629935
-0.060566445
-0.064092728
-0.068057121
-0.072290507
-0.076605414
-0.080794883
-0.084631775
-0.087868562
-0.090238107
-0.091455682
-0.091222601
-0.089231835
-0.085176147
-0.078760761
-0.069718523
-0.057832465
-0.042966388
-0.025108948
-0.0044399764
0.018569288
0.042963995
0.06710418
0.088609945
0.10448244
0.110104
0.10075989
-0.08163266
-0.08718288
-0.086271407
-0.081717455
-0.075815769
-0.069655923
-0.063962333
-0.059201622
-0.055614696
-0.053287865
-0.052210523
-0.052312019
-0.053485301
-0.055600581
-0.058512182
-0.06206117
-0.066075427
-0.070368265
-0.07473658
-0.078958953
-0.082794215
-0.08598057
-0.088235681
-0.089257938
-0.088729334
-0.086320009
-0.081694816
-0.074525804
-0.064503936
-0.051359775
-0.034890469
-0.014998617
0.0082478817
0.034514562
0.063012704
0.092225219
0.11965921
0.1417218
0.15240375
0.14512397
-0.096761011
-0.10273932
-0.099199098
-0.091156413
-0.082063669
-0.073262622
-0.065508974
-0.059218155
-0.05454134
-0.051470549
-0.049911347
-0.049724148
-0.050746987
-0.052807157
-0.055725661
-0.059317451
-0.063389523
-0.067737987
-0.072144972
-0.076375761
-0.080176479
-0.083272483
-0.085367653
-0.086144817
-0.085267724
-0.082383914
-0.077129385
-0.069139664
-0.058056729
-0.043545836
-0.02531628
-0.0031518044
0.023040513
0.053140941
0.086633005
0.12228266
0.1577805
0.18895131
0.20809753
0.20632737
-0.12134056
-0.1251882
-0.11587397
-0.10208208
-0.088418195
-0.076199168
-0.066006628
-0.0580531
-0.052292191
-0.048551122
-0.046609281
-0.046233918
-0.047195702
-0.049273627
-0.05225395
-0.055926253
-0.060078482
-0.064491897
-0.068936449
-0.073166808
-0.076919177
-0.079908926
-0.081829089
-0.082349887
-0.081119819
-0.077765518
-0.071896926
-0.063111371
-0.050997185
-0.035142772
-0.015146358
0.0093686192
0.038725064
0.073129337
0.11251944
0.15626225
0.20263054
0.2475228
0.28130061
0.29235621
-0.164458
-0.15843374
-0.13714923
-0.11415831
-0.094108164
-0.077632062
-0.064738737
-0.055162655
-0.048490783
-0.04429245
-0.04217377
-0.041788356
-0.042833411
-0.045040666
-0.04816577
-0.051978102
-0.056251835
-0.060758389
-0.06526021
-0.069505758
-0.073225594
-0.076129387
-0.077903824
-0.078211575
-0.076691561
-0.07294882
-0.066578724
-0.057141628
-0.044173329
-0.027181313
-0.0056369743
0.021034383
0.053463724
0.092331231
0.13829588
0.19182653
0.25266764
0.31751106
0.37626821
0.41537038
-0.24629487
-0.20631891
-0.16213121
-0.12552985
-0.097144618
-0.075879134
-0.060488517
-0.049753312
-0.042661223
-0.038437191
-0.036491333
-0.036366384
-0.037698359
-0.040186174
-0.04356828
-0.047605266
-0.052066963
-0.056722758
-0.061334207
-0.065649359
-0.06939839
-0.072290326
-0.074010696
-0.074220915
-0.072559583
-0.068606603
-0.061962701
-0.052156877
-0.038683881
-0.020982067
0.0015953111
0.029824897
0.064686089
0.10746463
0.15987088
0.22417766
0.30290532
0.39553206
0.49624329
0.60321217
-0.42543963
-0.26573101
-0.17722223
-0.12463685
-0.089117473
-0.065103605
-0.049324813
-0.039186292
-0.032984686
-0.02967508
-0.028571726
-0.029187776
-0.031157853
-0.034190933
-0.038038652
-0.042474373
-0.047279215
-0.052232245
-0.057103302
-0.061647606
-0.065601649
-0.068680026
-0.070572706
-0.070941589
-0.069408876
-0.065630749
-0.059133298
-0.049453745
-0.036075658
-0.018404077
0.0042710225
0.032846993
0.068542474
0.11314193
0.16943654
0.2420171
0.338066
0.46591575
0.64305457
0.92086215
-0.79331359
-0.32444282
-0.14899807
-0.087726027
-0.055346429
-0.036000126
-0.025092159
-0.019201611
-0.016356142
-0.015619721
-0.01649496
-0.018654777
-0.0218539
-0.02588927
-0.030576288
-0.035734686
-0.041179905
-0.046717154
-0.052136864
-0.057211051
-0.061690375
-0.065301771
-0.067746774
-0.068701806
-0.067825401
-0.064708839
-0.058942651
-0.0500733
-0.037594225
-0.020927974
0.00060989658
0.027880612
0.062058327
0.10491295
0.15945091
0.23152759
0.33385106
0.49409182
0.79001597
1.3837779
1.1291798e-05
-0.00013157064
-0.00044376229
-0.00084632108
-0.0012647257
-0.0016535275
-0.0019818709
-0.0022309351
-0.0023900904
-0.0024536351
-0.0024186312
-0.0022836229
-0.0020480404
-0.0017121274
-0.0012772412
-0.00074639027
-0.00012488539
0.00057900662
0.0013535079
0.0021829635
0.0030477444
0.0039244895
0.004786714
0.0056058233
0.0063524865
0.0069983167
0.0075177524
0.0078899974
0.0081008551
0.008144284
0.0080235192
0.0077516585
0.0073516959
0.0068560743
0.0063056645
0.0057480164
0.0052381527
0.0048323453
0.0045923051
0.0045537699
0.00015322927
7.9613933e-06
-0.00024219187
-0.0005510494
-0.0008732077
-0.0011743577
-0.0014302709
-0.0016247777
-0.0017475195
-0.0017920537
-0.0017544394
-0.0016323121
-0.001424417
-0.0011305221
-0.00075161839
-0.0002903112
0.00024869092
0.00085807871
0.001527519
0.0022433789
0.0029886593
0.0037433335
0.0044847017
0.0051884152
0.0058296279
0.0063844451
0.0068315425
0.0071538206
0.0073399483
0.0073856495
0.0072945948
0.0070787997
0.0067584789
0.0063613889
0.0059217254
0.0054784838
0.0050728337
0.0047481188
0.0045495084
0.0045143443
0.0004714983
0.00025340287
-2.3890073e-06
-0.00028148658
-0.00056180069
-0.0008187771
-0.0010346448
-0.0011973545
-0.0012987012
-0.0013331662
-0.0012970321
-0.0011877672
-0.0010037313
-0.00074416935
-0.00040942768
-1.3230085e-06
0.00047640786
0.0010176496
0.0016135112
0.002252062
0.0029182975
0.0035942628
0.004259596
0.0048923001
0.0054698372
0.005970477
0.0063748101
0.0066672988
0.0068377192
0.0068823378
0.0068046895
0.0066158572
0.0063341988
0.005984531
0.0055968425
0.0052045762
0.0048423278
0.0045443095
0.0043468378
0.0042797211
0.00089312225
0.00056143679
0.00026093216
-2.4875375e-05
-0.00029556894
-0.00053476498
-0.00073092733
-0.00087685387
-0.00096747135
-0.00099908516
-0.00096888365
-0.00087458109
-0.00071430596
-0.00048671963
-0.00019131339
0.0001711709
0.00059825405
0.001085227
0.0016247149
0.0022063703
0.0028167633
0.0034394459
0.0040554538
0.0046439968
0.0051835118
0.0056529819
0.0060334367
0.0063095108
0.0064709004
0.006513546
0.0064403843
0.0062615601
0.0059940526
0.0056607274
0.0052888791
0.0049084078
0.0045499761
0.0042435007
0.0040155347
0.0038799725
0.0013439766
0.00088361963
0.00052082982
0.00021055356
-6.7236988e-05
-0.00030332074
-0.00049206563
-0.00063122691
-0.00071914312
-0.00075424792
-0.00073487985
-0.00065913802
-0.00052493949
-0.00033027389
-7.3607583e-05
0.00024560747
0.00062636851
0.0010655533
0.0015574055
0.0020931393
0.0026607306
0.0032449503
0.0038277212
0.0043887982
0.0049067957
0.0053605137
0.005730477
0.0060005594
0.006159524
0.0062022888
0.0061307319
0.0059538987
0.0056875582
0.0053531357
0.0049760853
0.0045839583
0.004205019
0.0038664771
0.0035839011
0.0033600755
0.0017709172
0.0011768208
0.00074267694
0.00039670445
0.00010004963
-0.00014425987
-0.00033597508
-0.00047757191
-0.00057073363
-0.00061603378
-0.00061298372
-0.00056005837
-0.00045490204
-0.0002947159
-7.6779761e-05
0.00020093095
0.0005390746
0.00093626808
0.0013884629
0.0018884367
0.0024254699
0.0029852892
0.0035503178
0.0041003184
0.0046134038
0.0050673989
0.0054414604
0.0057178168
0.0058834481
0.0059314999
0.0058622214
0.0056832555
0.0054091976
0.0050604433
0.0046613902
0.0042383841
0.003818832
0.0034293404
0.0030769766
0.0027492949
0.0021287131
0.0014024994
0.00089357054
0.00050544314
0.00018206291
-7.8933753e-05
-0.00028213742
-0.0004343584
-0.00054037027
-0.00060271458
-0.00062194252
-0.00059678021
-0.00052446398
-0.00040125177
-0.00022306249
1.3791461e-05
0.00031181439
0.00067152641
0.0010907078
0.0015637547
0.0020812216
0.0026296485
0.0031916944
0.0037467239
0.0042717925
0.0047430495
0.0051374654
0.0054347336
0.00561915
0.0056812433
0.0056189233
0.0054379471
0.0051515841
0.0047794595
0.0043456062
0.0038762613
0.003399452
0.0029429935
0.0025070494
0.0020649534
0.0023787905
0.0015258983
0.00094261356
0.00050956735
0.00015485559
-0.00012871566
-0.00035010419
-0.00052003153
-0.00064601912
-0.00073229932
-0.00078023001
-0.00078858235
-0.00075399069
-0.00067157696
-0.00053570091
-0.00034080643
-8.2332973e-05
0.00024234971
0.00063303996
0.0010859038
0.0015928588
0.0021412647
0.0027139051
0.0032894978
0.0038436267
0.0043501699
0.004783136
0.0051187617
0.0053376566
0.0054267355
0.0053806729
0.0052026462
0.0049042176
0.0045042836
0.0040270446
0.0034996368
0.0029521272
0.0024152667
0.0018842476
0.0013209857
0.0024873388
0.001515323
0.00086050197
0.00038219288
-6.2530642e-06
-0.00031649146
-0.00056146284
-0.00075539502
-0.00090819379
-0.0010254643
-0.0011090919
-0.0011576444
-0.0011669256
-0.0011307001
-0.0010415436
-0.00089179493
-0.00067458378
-0.0003848991
-2.0643326e-05
0.00041639371
0.00091973242
0.0014777337
0.002073368
0.0026846278
0.0032853552
0.0038466628
0.00433886
0.0047337562
0.0050071262
0.0051410499
0.005125803
0.0049610139
0.0046558907
0.0042283941
0.0037032143
0.0031092587
0.002479998
0.0018508174
0.0012133846
0.00051895986
0.0024238837
0.0013416922
0.00061966995
9.7272857e-05
-0.00032591955
-0.00066578184
-0.00093892993
-0.0011627334
-0.0013491366
-0.0015048023
-0.0016318591
-0.0017284147
-0.0017892036
-0.0018063983
-0.0017705444
-0.0016716037
-0.0015000887
-0.0012482582
-0.00091132561
-0.00048862161
1.538843e-05
0.00059048052
0.0012200602
0.0018815221
0.0025468678
0.0031840672
0.003759039
0.0042381485
0.0045910306
0.0047934357
0.0048297209
0.0046946127
0.0043939592
0.0039442711
0.0033707992
0.0027049149
0.0019847863
0.001252136
0.00049623841
-0.00034205019
0.0021606473
0.00097837135
0.00019451864
-0.00036984418
-0.00082796048
-0.0011997521
-0.0015052589
-0.0017646732
-0.0019916695
-0.0021936841
-0.0023728291
-0.0025265139
-0.0026481775
-0.0027281692
-0.0027547486
-0.0027151997
-0.002597055
-0.0023894079
-0.0020842738
-0.0016779512
-0.0011722874
-0.00057540612
9.6993762e-05
0.00082210466
0.0015702193
0.0023059556
0.0029902298
0.0035829196
0.0040460621
0.0043472913
0.0044631013
0.0043814572
0.0041033364
0.0036428519
0.0030255576
0.0022857603
0.0014675349
0.0006206736
-0.00026710241
-0.0012656535
0.0016724321
0.00040124318
-0.00043830472
-0.0010419333
-0.0015346988
-0.0019404244
-0.0022823585
-0.0025832374
-0.0028582052
-0.0031152361
-0.0033562124
-0.0035776483
-0.0037714937
-0.003926066
-0.0040270895
-0.0040588544
-0.0040055059
-0.0038524562
-0.0035878909
-0.0032043036
-0.0026999851
-0.0020805422
-0.0013595012
-0.00055927496
0.00028913248
0.0011470349
0.001969896
0.002710091
0.0033204728
0.003758474
0.0039903083
0.0039947046
0.0037655817
0.0033130844
0.0026623326
0.0018507398
0.00092940046
-4.2022143e-05
-0.001076763
-0.0022562504
0.00093683704
-0.00041102786
-0.0012995326
-0.0019393815
-0.0024663125
-0.0029079
-0.0032904027
-0.0036388584
-0.0039696709
-0.0042911773
-0.0046048798
-0.0049062608
-0.0051856409
-0.0054291381
-0.0056197189
-0.0057383696
-0.0057654182
-0.0056820184
-0.0054717848
-0.005122521
-0.0046279867
-0.0039898155
-0.0032185046
-0.0023349282
-0.0013705342
-0.00036688701
0.00062587068
0.001551746
0.0023527731
0.002973822
0.0033679031
0.00350132
0.0033578948
0.0029413778
0.002275007
0.0013990181
0.00037249057
-0.00073312782
-0.001931582
-0.0033171574
-6.5316121e-05
-0.0014765983
-0.0024068285
-0.0030796405
-0.0036401676
-0.0041195608
-0.0045468994
-0.0049493119
-0.0053443068
-0.0057404774
-0.0061388709
-0.0065338778
-0.0069141218
-0.0072634177
-0.0075618009
-0.007786675
-0.0079141274
-0.0079204487
-0.0077838667
-0.0074864679
-0.0070162641
-0.0063693758
-0.0055518616
-0.0045815312
-0.0034889523
-0.0023176374
-0.0011230246
2.999716e-05
0.0010711252
0.0019301314
0.0025434043
0.002860836
0.0028520869
0.0025109702
0.0018563838
0.00093038888
-0.00019926317
-0.0014473062
-0.0028275975
-0.0044488791
-0.0013494461
-0.0028099828
-0.0037743108
-0.0044766789
-0.0050701611
-0.0055892786
-0.0060657463
-0.0065286069
-0.0069963777
-0.0074778772
-0.0079737078
-0.0084771982
-0.0089752967
-0.0094494957
-0.0098768025
-0.010230821
-0.010483017
-0.010604229
-0.010566463
-0.010344969
-0.0099205957
-0.0092823481
-0.0084299119
-0.0073760872
-0.00614869
-0.0047916201
-0.0033646502
-0.001941518
-0.00060600697
0.00055406395
0.0014546637
0.002024467
0.0022137157
0.0020013389
0.0013980594
0.00044569584
-0.00077916739
-0.0021753606
-0.003756422
-0.0056473161
-0.0029266475
-0.0044215957
-0.0054121036
-0.0061404761
-0.0067661151
-0.0073266698
-0.0078563158
-0.0083858757
-0.0089348478