/*--------------------------------*- C++ -*----------------------------------*\
  =========                 |
  \\      /  F ield         | OpenFOAM: The Open Source CFD Toolbox
   \\    /   O peration     | Website:  https://openfoam.org
    \\  /    A nd           | Version:  7
     \\/     M anipulation  |
\*---------------------------------------------------------------------------*/
FoamFile
{
    version     2.0;
    format      ascii;
    class       surfaceScalarField;
    location    "50";
    object      phi;
}
// * * * * * * * * * * * * * * * * * * * * * * * * * * * * * * * * * * * * * //

dimensions      [0 3 -1 0 0 0 0];

internalField   nonuniform List<scalar> 
45600
(
2.7528063e-07
-2.821288e-07
-7.6812346e-11
4.0339043e-07
-1.2808529e-07
-2.4118386e-11
1.3259361e-07
2.7080338e-07
-6.3591352e-12
-5.6228822e-07
6.9488362e-07
-1.2078856e-12
-1.639297e-06
1.0770055e-06
3.8290029e-12
-3.0276119e-06
1.3883071e-06
7.2644221e-12
-4.6524581e-06
1.6248351e-06
9.5255633e-12
-6.4450932e-06
1.7926231e-06
1.1125082e-11
-8.3454214e-06
1.9003164e-06
1.2262192e-11
-1.0301441e-05
1.9560079e-06
1.3013943e-11
-1.2267401e-05
1.9659463e-06
1.3430191e-11
-1.4201582e-05
1.9341653e-06
1.3548354e-11
-1.606424e-05
1.8626435e-06
1.3390234e-11
-1.7816029e-05
1.7517759e-06
1.2958903e-11
-1.9417056e-05
1.6010166e-06
1.2241768e-11
-2.082666e-05
1.4095953e-06
1.1217471e-11
-2.2003909e-05
1.1772399e-06
9.8654112e-12
-2.2908771e-05
9.0485198e-07
8.1794185e-12
-2.3503871e-05
5.9509017e-07
6.1829498e-12
-2.3756705e-05
2.5282891e-07
3.9198295e-12
-2.3642144e-05
-1.145585e-07
1.446312e-12
-2.3145011e-05
-4.9712454e-07
-1.1923623e-12
-2.2262576e-05
-8.824283e-07
-3.9467653e-12
-2.1006619e-05
-1.2559554e-06
-6.7164867e-12
-1.9404868e-05
-1.6017524e-06
-9.3337503e-12
-1.7501564e-05
-1.9032969e-06
-1.1605489e-11
-1.5356977e-05
-2.1445628e-06
-1.338727e-11
-1.3045754e-05
-2.311188e-06
-1.4627269e-11
-1.065409e-05
-2.3916414e-06
-1.5321349e-11
-8.2758069e-06
-2.3782868e-06
-1.5404059e-11
-6.0075716e-06
-2.2682511e-06
-1.4707161e-11
-3.943548e-06
-2.0640161e-06
-1.3083322e-11
-2.1697945e-06
-1.7737067e-06
-1.0599784e-11
-7.5852573e-07
-1.4112161e-06
-7.5623905e-12
2.3823768e-07
-9.9676127e-07
-4.4204834e-12
7.9655473e-07
-5.5837314e-07
-1.7412613e-12
9.2924626e-07
-1.3274125e-07
1.4305608e-12
7.0553166e-07
2.2375103e-07
5.6105074e-12
2.904334e-07
4.1519952e-07
1.0144224e-11
2.9049661e-07
3.7864026e-12
1.3294549e-07
-4.1505213e-07
-2.1512881e-11
-3.0162458e-07
3.0649927e-07
-1.3593257e-11
-1.6153546e-06
1.5845452e-06
-1.1946416e-11
-3.874673e-06
2.9542141e-06
-1.2789559e-11
-7.0073164e-06
4.2096634e-06
-1.4015451e-11
-1.0879732e-05
5.2607396e-06
-1.5589446e-11
-1.533515e-05
6.0802705e-06
-1.7048468e-11
-2.0215992e-05
6.6734815e-06
-1.8106572e-11
-2.5374054e-05
7.0583948e-06
-1.8701532e-11
-3.067327e-05
7.2552413e-06
-1.8841788e-11
-3.5988538e-05
7.2812348e-06
-1.8557122e-11
-4.1202826e-05
7.1484738e-06
-1.7879876e-11
-4.620397e-05
6.8638054e-06
-1.6830198e-11
-5.08821e-05
6.4299196e-06
-1.5414017e-11
-5.5128233e-05
5.8471617e-06
-1.3628161e-11
-5.8834321e-05
5.1156944e-06
-1.1469301e-11
-6.1894805e-05
4.237736e-06
-8.9486991e-12
-6.420961e-05
3.2196682e-06
-6.1096491e-12
-6.5688358e-05
2.0738443e-06
-3.006727e-12
-6.6255469e-05
8.1993528e-07
2.9553304e-13
-6.5855987e-05
-5.1405275e-07
3.7500283e-12
-6.4460814e-05
-1.8923079e-06
7.3432316e-12
-6.2072481e-05
-3.2707636e-06
1.0916191e-11
-5.8729086e-05
-4.5993474e-06
1.4288418e-11
-5.4507069e-05
-5.8237785e-06
1.7272245e-11
-4.9521901e-05
-6.8884969e-06
1.9746603e-11
-4.3926403e-05
-7.7401083e-06
2.1685134e-11
-3.7906463e-05
-8.3311615e-06
2.3079617e-11
-3.1674148e-05
-8.6239541e-06
2.382071e-11
-2.5458387e-05
-8.5940279e-06
2.3689837e-11
-1.949359e-05
-8.2330585e-06
2.2537669e-11
-1.4006714e-05
-7.5509567e-06
2.0498315e-11
-9.2033115e-06
-6.5771865e-06
1.7958133e-11
-5.252929e-06
-5.3616092e-06
1.5228583e-11
-2.2739763e-06
-3.9756435e-06
1.2263108e-11
-3.1722932e-07
-2.5150557e-06
8.7377041e-12
6.5709463e-07
-1.1071193e-06
4.3613331e-12
8.0365491e-07
7.702596e-08
2.2684979e-12
4.1777308e-07
8.009301e-07
3.5985159e-12
7.0833104e-07
-2.3706613e-12
-2.7355896e-07
-1.4148082e-07
-1.2072354e-11
-1.6274411e-06
1.6603897e-06
-6.8149798e-12
-4.2893614e-06
4.2464745e-06
-8.1844145e-12
-8.2746398e-06
6.9394986e-06
-6.8340407e-12
-1.3474387e-05
9.4094142e-06
-4.9093211e-12
-1.9708696e-05
1.1495053e-05
-3.8592963e-12
-2.676573e-05
1.3137309e-05
-3.1827806e-12
-3.44266e-05
1.4334355e-05
-2.6320206e-12
-4.2478618e-05
1.5110414e-05
-2.174182e-12
-5.0720441e-05
1.5497064e-05
-1.763654e-12
-5.8962289e-05
1.5523083e-05
-1.3608136e-12
-6.7023685e-05
1.5209873e-05
-9.5257271e-13
-7.4730528e-05
1.4570651e-05
-5.4033446e-13
-8.1912716e-05
1.361211e-05
-1.2956829e-13
-8.8403145e-05
1.2337591e-05
2.7415324e-13
-9.4038476e-05
1.0751021e-05
6.7297195e-13
-9.8661797e-05
8.861054e-06
1.0752533e-12
-0.0001021271
6.684968e-06
1.4747594e-12
-0.00010430523
4.2519781e-06
1.8424999e-12
-0.000105091
1.605714e-06
2.1373246e-12
-0.00010441064
-1.1944192e-06
2.3522299e-12
-0.00010222946
-4.0735008e-06
2.5111841e-12
-9.8558526e-05
-6.9417077e-06
2.6557309e-12
-9.3460009e-05
-9.697862e-06
2.8013302e-12
-8.7050393e-05
-1.2233379e-05
2.8980015e-12
-7.9500991e-05
-1.4437886e-05
2.8690234e-12
-7.1035276e-05
-1.6205833e-05
2.7091457e-12
-6.1922731e-05
-1.744374e-05
2.5396566e-12
-5.2469164e-05
-1.8077547e-05
2.5227837e-12
-4.3003689e-05
-1.8059486e-05
2.6823181e-12
-3.3862813e-05
-1.7373886e-05
2.8311853e-12
-2.5372205e-05
-1.604154e-05
2.7629394e-12
-1.7826877e-05
-1.4122558e-05
2.5534638e-12
-1.1470431e-05
-1.1718131e-05
2.5732633e-12
-6.4738996e-06
-8.9721903e-06
3.0685069e-12
-2.9140461e-06
-6.0748187e-06
3.6975936e-12
-7.511886e-07
-3.2698597e-06
3.6843499e-12
1.943896e-07
-8.6853553e-07
3.7354954e-12
2.6546592e-07
7.2974831e-07
5.0422794e-12
9.7380626e-07
8.9552136e-13
-7.4583399e-07
6.0436545e-07
-1.2439147e-11
-3.1796123e-06
4.0941701e-06
-9.5069231e-13
-7.3460775e-06
8.4129481e-06
-6.4217728e-12
-1.3163032e-05
1.275646e-05
-5.8199956e-12
-2.0455799e-05
1.6702184e-05
-3.2427413e-12
-2.8992623e-05
2.0031877e-05
-1.9350797e-12
-3.8513869e-05
2.2658557e-05
-1.0661275e-12
-4.8752672e-05
2.4573159e-05
-2.8860007e-13
-5.9446981e-05
2.5804724e-05
3.4143988e-13
-7.0344835e-05
2.6394917e-05
8.4145589e-13
-8.1205132e-05
2.6383377e-05
1.2591023e-12
-9.1795987e-05
2.5800725e-05
1.6211664e-12
-0.00010189242
2.4667082e-05
1.9372115e-12
-0.00011127464
2.2994329e-05
2.204366e-12
-0.00011972779
2.0790742e-05
2.407942e-12
-0.00012704362
1.8066846e-05
2.5328777e-12
-0.00013302417
1.4841599e-05
2.5808802e-12
-0.00013748743
1.114822e-05
2.5670682e-12
-0.00014027453
7.0390744e-06
2.4984685e-12
-0.00014125806
2.5892554e-06
2.3595547e-12
-0.00014035078
-2.1016955e-06
2.1285535e-12
-0.00013751439
-6.9098917e-06
1.7606175e-12
-0.00013276703
-1.1689078e-05
1.3054025e-12
-0.00012618932
-1.6275587e-05
8.5681262e-13
-0.0001179279
-2.04948e-05
4.8450554e-13
-0.00010819592
-2.4169847e-05
1.6815633e-13
-9.7269866e-05
-2.7131856e-05
-1.7962111e-13
-8.5482403e-05
-2.9231203e-05
-5.8451023e-13
-7.3210954e-05
-3.0349032e-05
-9.0178634e-13
-6.0862289e-05
-3.0408187e-05
-8.9533465e-13
-4.8853473e-05
-2.938269e-05
-4.8935083e-13
-3.7589896e-05
-2.7305053e-05
8.6767403e-14
-2.7441283e-05
-2.4271127e-05
5.1841161e-13
-1.8716672e-05
-2.0442784e-05
8.1007799e-13
-1.163948e-05
-1.6049484e-05
1.3330421e-12
-6.3236142e-06
-1.1390735e-05
2.3606624e-12
-2.7515432e-06
-6.8418699e-06
3.6341062e-12
-7.5711626e-07
-2.8628806e-06
4.4296482e-12
-9.5150837e-09
-1.7870529e-08
4.5686445e-12
9.6426222e-07
3.7594288e-12
-1.2279616e-06
1.8323414e-06
-1.4055431e-11
-4.7880987e-06
7.654302e-06
4.9398119e-12
-1.0521527e-05
1.4146384e-05
-5.6215076e-12
-1.8214316e-05
2.0449258e-05
-6.7388321e-12
-2.7603921e-05
2.6091794e-05
-4.3859712e-12
-3.8396282e-05
3.0824241e-05
-3.6905271e-12
-5.0283043e-05
3.454532e-05
-3.3717981e-12
-6.2954773e-05
3.7244893e-05
-2.9177283e-12
-7.6109029e-05
3.8958984e-05
-2.4702218e-12
-8.9453766e-05
3.9739659e-05
-2.0644761e-12
-0.00010270747
3.9637079e-05
-1.6735417e-12
-0.00011559753
3.8690786e-05
-1.2807994e-12
-0.00012785834
3.6927895e-05
-8.7568754e-13
-0.0001392302
3.4366184e-05
-4.4965134e-13
-0.00014945975
3.1020294e-05
-7.880124e-15
-0.00015830247
2.6909575e-05
4.2637967e-13
-0.00016552724
2.2066363e-05
8.2907591e-13
-0.00017092274
1.6543724e-05
1.1971671e-12
-0.00017430559
1.0421915e-05
1.5510598e-12
-0.00017552936
3.8130148e-06
1.9082583e-12
-0.00017449413
-3.1369186e-06
2.251302e-12
-0.00017115588
-1.0248129e-05
2.5126984e-12
-0.0001655348
-1.731016e-05
2.6436317e-12
-0.0001577219
-2.4088497e-05
2.6638644e-12
-0.0001478832
-3.0333522e-05
2.6683266e-12
-0.00013626061
-3.5792451e-05
2.7444186e-12
-0.00012316897
-4.022348e-05
2.8640155e-12
-0.00010898871
-4.3411428e-05
2.8836038e-12
-9.4153786e-05
-4.5183949e-05
2.7087005e-12
-7.9134854e-05
-4.5427163e-05
2.4686787e-12
-6.4418088e-05
-4.4099512e-05
2.4491753e-12
-5.0480393e-05
-4.1242748e-05
2.7742253e-12
-3.7762135e-05
-3.6989315e-05
3.1914722e-12
-2.6638788e-05
-3.1566065e-05
3.3001696e-12
-1.7393149e-05
-2.5295147e-05
3.0521733e-12
-1.0189938e-05
-1.8594038e-05
3.0415153e-12
-5.0547693e-06
-1.197708e-05
3.9386001e-12
-1.8598288e-06
-6.0577747e-06
3.9617113e-12
-3.2221763e-07
-1.555454e-06
8.0016089e-13
6.4202185e-07
6.0361645e-12
-1.6931659e-06
3.5255251e-06
-1.6601502e-11
-6.3714042e-06
1.233253e-05
1.0290222e-11
-1.3671444e-05
2.1446428e-05
-4.7229529e-12
-2.3234048e-05
3.001187e-05
-6.8927854e-12
-3.4695229e-05
3.7552982e-05
-4.1815147e-12
-4.7689807e-05
4.3818825e-05
-3.6384867e-12
-6.185751e-05
4.8713025e-05
-3.5450889e-12
-7.6848055e-05
5.223544e-05
-3.2041372e-12
-9.232386e-05
5.4434792e-05
-2.8143093e-12
-0.00010796026
5.5376066e-05
-2.4368146e-12
-0.00012344396
5.512078e-05
-2.0545369e-12
-0.00013847069
5.3717517e-05
-1.6641592e-12
-0.00015274322
5.1200429e-05
-1.2654405e-12
-0.00016597054
4.7593497e-05
-8.485082e-13
-0.00017786874
4.2918495e-05
-3.9965341e-13
-0.00018816405
3.720489e-05
7.6713399e-14
-0.00019659789
3.0500207e-05
5.5124023e-13
-0.00020293383
2.2879672e-05
9.8852953e-13
-0.00020696614
1.4454215e-05
1.378866e-12
-0.0002085293
5.3761615e-06
1.7474049e-12
-0.00020750812
-4.1581002e-06
2.124155e-12
-0.00020384768
-1.3908566e-05
2.5021397e-12
-0.00019756247
-2.3595363e-05
2.8094368e-12
-0.00018874396
-3.2906995e-05
2.9679147e-12
-0.00017756588
-4.151161e-05
2.9797802e-12
-0.00016428627
-4.9072103e-05
2.9599261e-12
-0.00014924553
-5.5264239e-05
3.0412255e-12
-0.00013285991
-5.9797026e-05
3.2178016e-12
-0.00011560966
-6.2434153e-05
3.3104561e-12
-9.8021738e-05
-6.3015071e-05
3.162179e-12
-8.0647219e-05
-6.1474076e-05
2.8868449e-12
-6.40342e-05
-5.785584e-05
2.8243715e-12
-4.8697475e-05
-5.2326059e-05
3.1493291e-12
-3.5086899e-05
-4.5176581e-05
3.5582286e-12
-2.3556642e-05
-3.6825342e-05
3.5396361e-12
-1.4337851e-05
-2.7812851e-05
3.3884342e-12
-7.5175051e-06
-1.8797496e-05
4.2869614e-12
-3.0267379e-06
-1.0548552e-05
3.7458251e-12
-6.4248844e-07
-3.9396741e-06
-1.7002912e-12
-4.7547702e-10
8.5751863e-12
-2.1329365e-06
5.6584824e-06
-1.9398931e-11
-7.8910729e-06
1.8090652e-05
1.5056284e-11
-1.67174e-05
3.0272758e-05
-4.0159083e-12
-2.8105735e-05
4.1400211e-05
-6.9906967e-12
-4.1585082e-05
5.1032334e-05
-3.772798e-12
-5.6714127e-05
5.8947876e-05
-3.2491558e-12
-7.307827e-05
6.5077174e-05
-3.2753774e-12
-9.0287081e-05
6.9444255e-05
-2.988564e-12
-0.00010797132
7.2119029e-05
-2.6362535e-12
-0.00012577926
7.3184015e-05
-2.2890699e-12
-0.00014337274
7.2714257e-05
-1.9233809e-12
-0.00016042341
7.0768196e-05
-1.5392707e-12
-0.00017661018
6.7387203e-05
-1.1497427e-12
-0.00019161813
6.2601448e-05
-7.6100868e-13
-0.00020513951
5.6439868e-05
-3.6089154e-13
-0.00021687684
4.8942215e-05
6.9126972e-14
-0.00022654815
4.0171516e-05
5.2879863e-13
-0.00023389406
3.0225597e-05
9.8467469e-13
-0.0002386865
1.9246653e-05
1.3896582e-12
-0.00024073841
7.4280772e-06
1.7223988e-12
-0.00023991436
-4.9821639e-06
2.0088467e-12
-0.00023614103
-1.7681919e-05
2.3077886e-12
-0.00022941748
-3.0318913e-05
2.6232647e-12
-0.00021982416
-4.2500297e-05
2.8844998e-12
-0.00020752991
-5.380584e-05
2.985962e-12
-0.00019279609
-6.3805935e-05
2.9067464e-12
-0.0001759767
-7.2083661e-05
2.7810697e-12
-0.00015751366
-7.8260107e-05
2.7969785e-12
-0.00013792614
-8.2021656e-05
2.984513e-12
-0.00011779372
-8.314744e-05
3.1364182e-12
-9.7732928e-05
-8.153483e-05
3.0337355e-12
-7.8368114e-05
-7.7220689e-05
2.7764568e-12
-6.0297884e-05
-7.0396363e-05
2.7478801e-12
-4.4059548e-05
-6.1414942e-05
3.0878613e-12
-3.0094423e-05
-5.0790417e-05
3.3610523e-12
-1.8717236e-05
-3.9189994e-05
3.566308e-12
-1.0093045e-05
-2.7421716e-05
4.8662037e-12
-4.2253214e-06
-1.6416314e-05
3.7048573e-12
-9.5849135e-07
-7.2064996e-06
-4.5481213e-12
-9.5896535e-07
1.0591805e-11
-2.545055e-06
8.2035595e-06
-2.2207142e-11
-9.3288444e-06
2.4874425e-05
1.9316819e-11
-1.961536e-05
4.0559277e-05
-3.5493189e-12
-3.2756845e-05
5.4541702e-05
-7.2756135e-12
-4.8175881e-05
6.6451374e-05
-3.5995784e-12
-6.5354084e-05
7.6126084e-05
-3.1174115e-12
-8.3822132e-05
8.3545229e-05
-3.2696137e-12
-0.00010315062
8.8772743e-05
-3.0403254e-12
-0.00012294161
9.1910032e-05
-2.7336738e-12
-0.00014282095
9.3063352e-05
-2.4335587e-12
-0.00016243134
9.2324647e-05
-2.1053961e-12
-0.00018142688
8.9763733e-05
-1.7391839e-12
-0.00019946924
8.5429577e-05
-1.3450474e-12
-0.00021622604
7.9358248e-05
-9.428615e-13
-0.0002313713
7.1585129e-05
-5.4470919e-13
-0.00024458832
6.2159232e-05
-1.3961887e-13
-0.0002555746
5.1157786e-05
2.9737515e-13
-0.00026404868
3.8699679e-05
7.7312748e-13
-0.00026975868
2.4956659e-05
1.253329e-12
-0.00027249209
1.0161502e-05
1.6759354e-12
-0.00027208668
-5.3875809e-06
1.9990503e-12
-0.00026844172
-2.1326888e-05
2.2614679e-12
-0.00026152976
-3.7230901e-05
2.5234463e-12
-0.0002514074
-5.2622658e-05
2.8236695e-12
-0.00023822498
-6.698824e-05
3.0948685e-12
-0.00022223362
-7.9797264e-05
3.1994445e-12
-0.00020378862
-9.0528668e-05
3.0838539e-12
-0.00018334762
-9.8701147e-05
2.8926004e-12
-0.00016146243
-0.0001039069
2.8646875e-12
-0.00013876329
-0.00010584658
3.0650881e-12
-0.00011593534
-0.00010436272
3.2640522e-12
-9.368752e-05
-9.9468465e-05
3.2055461e-12
-7.2715422e-05
-9.1368489e-05
2.9973834e-12
-5.3660763e-05
-8.0469667e-05
2.9672238e-12
-3.7071103e-05
-6.7380095e-05
3.0830115e-12
-2.3363939e-05
-5.2897117e-05
3.5521135e-12
-1.2799301e-05
-3.7986336e-05
5.4822984e-12
-5.4648767e-06
-2.375076e-05
3.7523911e-12
-1.2772615e-06
-1.1394126e-05
-7.5119428e-12
-2.2362355e-06
1.3001319e-11
-2.9284829e-06
1.1132066e-05
-2.4938837e-11
-1.0673672e-05
3.2619592e-05
2.3130293e-11
-2.2336172e-05
5.2221783e-05
-3.2448972e-12
-3.7135971e-05
6.9341509e-05
-7.6405251e-12
-5.4394105e-05
8.3709511e-05
-3.5258597e-12
-7.3517621e-05
9.5249604e-05
-3.082756e-12
-9.3984292e-05
0.0001040119
-3.3547791e-12
-0.00011532795
0.00011011641
-3.1734492e-12
-0.00013712517
0.00011370725
-2.8976684e-12
-0.00015898352
0.00011492171
-2.6332848e-12
-0.00018053177
0.0001138729
-2.3454565e-12
-0.00020141214
0.0001106441
-2.0168279e-12
-0.00022127503
0.00010529246
-1.6408184e-12
-0.00023977618
9.7859404e-05
-1.2257358e-12
-0.00025657637
8.8385329e-05
-7.977846e-13
-0.00027134346
7.6926319e-05
-3.773604e-13
-0.00028375659
6.357091e-05
4.3465234e-14
-0.00029351244
4.845552e-05
4.9591399e-13
-0.00030033323
3.1777446e-05
9.9736333e-13
-0.00030397636
1.3804645e-05
1.512308e-12
-0.00030424557
-5.1183597e-06
1.959388e-12
-0.00030100297
-2.4569486e-05
2.3058263e-12
-0.00029418252
-4.4051368e-05
2.5451261e-12
-0.00028380326
-6.3001942e-05
2.7705756e-12
-0.00026998222
-8.0809291e-05
3.0539564e-12
-0.0002529455
-9.6833973e-05
3.3366432e-12
-0.00023303599
-0.00011043814
3.4543917e-12
-0.00021071599
-0.00012102114
3.3195204e-12
-0.00018656267
-0.00012806025
3.0792128e-12
-0.00016125485
-0.00013115445
3.0096065e-12
-0.00013555
-0.00013006758
3.196994e-12
-0.00011025147
-0.00012476694
3.4059213e-12
-8.6167362e-05
-0.00011545256
3.3898269e-12
-6.4063726e-05
-0.00010257333
3.1914204e-12
-4.4616685e-05
-8.6827188e-05
2.9440624e-12
-2.8368542e-05
-6.9145268e-05
3.3833652e-12
-1.5693148e-05
-5.0661707e-05
5.9648157e-12
-6.7752139e-06
-3.2668686e-05
3.8391984e-12
-1.6070333e-06
-1.6562305e-05
-1.0468983e-11
-3.843289e-06
1.5540191e-11
-3.2817001e-06
1.4413793e-05
-2.7530492e-11
-1.1915871e-05
4.1253734e-05
2.6532453e-11
-2.4855511e-05
6.5161426e-05
-3.0687978e-12
-4.1199915e-05
8.5685924e-05
-8.0523219e-12
-6.0176305e-05
0.0001026859
-3.5023446e-12
-8.1122243e-05
0.00011619555
-3.0810872e-12
-0.0001034663
0.00012635596
-3.4632688e-12
-0.00012670887
0.00013335899
-3.3297504e-12
-0.00015040464
0.00013740302
-3.0790594e-12
-0.00017414713
0.00013866421
-2.8346402e-12
-0.00019755594
0.00013728171
-2.5694361e-12
-0.00022026668
0.00013335485
-2.2753782e-12
-0.00024192389
0.00012694967
-1.9405495e-12
-0.00026217668
0.0001181122
-1.548818e-12
-0.00028067717
0.00010688583
-1.1063678e-12
-0.0002970813
9.3330458e-05
-6.4511469e-13
-0.00031105195
7.7541567e-05
-1.9555315e-13
-0.00032226414
5.9667704e-05
2.4493994e-13
-0.00033041221
3.9925499e-05
7.1177541e-13
-0.00033521898
1.8611411e-05
1.2236052e-12
-0.00033644713
-3.8901999e-06
1.7409549e-12
-0.00033391173
-2.7104875e-05
2.2598823e-12
-0.00032749596
-5.0467131e-05
2.6231286e-12
-0.00031716688
-7.3331038e-05
2.839366e-12
-0.00030299231
-9.4983891e-05
3.020505e-12
-0.00028515684
-0.00011466946
3.2686603e-12
-0.00026397519
-0.00013161978
3.5428532e-12
-0.00023990061
-0.00014509568
3.6623606e-12
-0.00021352581
-0.00015443503
3.5127019e-12
-0.00018557378
-0.00015910652
3.239948e-12
-0.0001568766
-0.00015876482
3.1367474e-12
-0.00012834165
-0.0001533019
3.3001848e-12
-0.00010090606
-0.00014288811
3.5114481e-12
-7.5482456e-05
-0.0001279969
3.457163e-12
-5.2901144e-05
-0.00010940852
3.0091126e-12
-3.3855125e-05
-8.8191321e-05
3.2769724e-12
-1.8854791e-05
-6.5662048e-05
6.375256e-12
-8.1982613e-06
-4.3325204e-05
3.8500025e-12
-1.9611595e-06
-2.2799387e-05
-1.362558e-11
-5.8044714e-06
1.8254855e-11
-3.6023023e-06
1.8016125e-05
-2.9939815e-11
-1.3044873e-05
5.0696272e-05
2.9543286e-11
-2.714929e-05
7.9265845e-05
-2.9977566e-12
-4.4907168e-05
0.00010344381
-8.5136755e-12
-6.5461501e-05
0.00012324024
-3.555385e-12
-8.8087226e-05
0.00013882128
-3.1311444e-12
-0.0001121688
0.00015043754
-3.6035841e-12
-0.00013717741
0.00015836761
-3.5193598e-12
-0.00016264987
0.00016287549
-3.3036523e-12
-0.00018816992
0.00016418426
-3.0829922e-12
-0.00021335264
0.00016246442
-2.8284811e-12
-0.00023783202
0.00015783424
-2.546146e-12
-0.0002612519
0.00015036955
-2.2417284e-12
-0.00028325983
0.00014012012
-1.895613e-12
-0.00030350382
0.00012712982
-1.4836099e-12
-0.00032163166
0.0001114583
-1.0087583e-12
-0.00033729244
9.3202356e-05
-5.0654272e-13
-0.00035014037
7.2515646e-05
-1.7891135e-14
-0.00035984078
4.9625906e-05
4.4840514e-13
-0.00036607842
2.4849039e-05
9.106294e-13
-0.00036856897
-1.3996691e-06
1.3751281e-12
-0.00036707135
-2.8602497e-05
2.0160464e-12
-0.00036140636
-5.6132096e-05
2.5678734e-12
-0.00035147457
-8.3262819e-05
2.9484743e-12
-0.00033727782
-0.00010918065
3.1508728e-12
-0.00031894091
-0.0001330064
3.2868024e-12
-0.00029673176
-0.00015382896
3.4868279e-12
-0.00027107727
-0.00017075015
3.7298134e-12
-0.00024257162
-0.00018294065
3.8294746e-12
-0.00021197326
-0.00018970486
3.6596268e-12
-0.00018018759
-0.00019055051
3.3671371e-12
-0.00014823333
-0.0001852562
3.2526274e-12
-0.00011719278
-0.00017392868
3.4151909e-12
-8.8148946e-05
-0.0001570407
3.5243487e-12
-6.2115371e-05
-0.00013544208
3.103774e-12
-3.9966489e-05
-0.00011034022
3.3145714e-12
-2.2377617e-05
-8.3250945e-05
6.8917657e-12
-9.7826939e-06
-5.5920131e-05
3.8208112e-12
-2.3546948e-06
-3.022736e-05
-1.7155514e-11
-8.1591866e-06
2.1280203e-11
-3.88705e-06
2.1903208e-05
-3.2138775e-11
-1.404866e-05
6.0857849e-05
3.2159436e-11
-2.9192054e-05
9.4409239e-05
-3.0005035e-12
-4.8215264e-05
0.00012246703
-9.0007855e-12
-7.0187839e-05
0.00014521282
-3.6834665e-12
-9.4330055e-05
0.0001629635
-3.2472122e-12
-0.00011998821
0.00017609569
-3.7839395e-12
-0.00014660907
0.00018498848
-3.7363753e-12
-0.00017371587
0.00018998229
-3.5595437e-12
-0.00020088685
0.00019135524
-3.3783338e-12
-0.00022773708
0.00018931466
-3.1471138e-12
-0.0002539038
0.00018400097
-2.8680952e-12
-0.00027903519
0.00017550095
-2.5655874e-12
-0.00030278231
0.00016386725
-2.2449933e-12
-0.00032479396
0.00014914147
-1.8824919e-12
-0.00034471404
0.00013137838
-1.4473999e-12
-0.00036218125
0.00011066958
-9.3645249e-13
-0.00037683113
8.7165532e-05
-3.8689055e-13
-0.00038830041
6.1095194e-05
1.482691e-13
-0.00039623426
3.2782894e-05
6.5754374e-13
-0.00040029638
2.6624312e-06
1.1934757e-12
-0.00040018388
-2.8715013e-05
1.6981975e-12
-0.00039564406
-6.0671923e-05
2.2950537e-12
-0.00038649735
-9.2409505e-05
2.8701891e-12
-0.00037266261
-0.00012301537
3.2777092e-12
-0.00035418496
-0.00015148406
3.4725401e-12
-0.0003312638
-0.00017675015
3.5663881e-12
-0.00030427785
-0.00019773614
3.7093921e-12
-0.000273803
-0.00021341549
3.8958205e-12
-0.00024061829
-0.00022288953
3.9446323e-12
-0.00020569517
-0.00022547361
3.7394547e-12
-0.00017016638
-0.00022078502
3.4501831e-12
-0.00013527319
-0.00020882191
3.3773582e-12
-0.00010229333
-0.00019002056
3.4304445e-12
-7.2455929e-05
-0.00016527946
3.0444103e-12
-4.6853286e-05
-0.00013594286
3.3692266e-12
-2.6361362e-05
-0.00010374288
7.5834919e-12
-1.1580445e-05
-7.0701061e-05
3.8463886e-12
-2.8033161e-06
-3.9004467e-05
-2.1162396e-11
-1.0962524e-05
2.472039e-11
-4.1321177e-06
2.6035359e-05
-3.4095315e-11
-1.4914097e-05
7.1639795e-05
3.435154e-11
-3.0957131e-05
0.00011045228
-3.0594901e-12
-5.1080654e-05
0.00014259056
-9.4819655e-12
-7.4292271e-05
0.00016842445
-3.8680898e-12
-9.9766122e-05
0.00018843735
-3.4288625e-12
-0.00012681668
0.00020314626
-4.0144711e-12
-0.0001548713
0.0002130431
-3.9847076e-12
-0.00018344393
0.00021855493
-3.8324457e-12
-0.00021211149
0.0002200228
-3.6923135e-12
-0.00024049344
0.0002176966
-3.5048765e-12
-0.00026823493
0.00021174246
-3.2508182e-12
-0.00029499351
0.00020225954
-2.9466588e-12
-0.00032042904
0.00018930278
-2.6186963e-12
-0.0003441964
0.00017290883
-2.2750043e-12
-0.00036594074
0.00015312271
-1.8914864e-12
-0.00038529505
0.00013002388
-1.4318218e-12
-0.00040188001
0.0001037505
-8.8490207e-13
-0.00041530644
7.4521629e-05
-2.8541969e-13
-0.00042518076
4.2657234e-05
3.2127358e-13
-0.00043111396
8.5956278e-06
9.2059617e-13
-0.00043273622
-2.7092767e-05
1.3889239e-12
-0.00042971417
-6.3693995e-05
1.938262e-12
-0.00042177619
-0.00010034749
2.5686814e-12
-0.00040874172
-0.00013604982
3.1748354e-12
-0.00039055537
-0.00016967038
3.6023374e-12
-0.00036732349
-0.00019998203
3.7879148e-12
-0.0003393498
-0.00022570985
3.839384e-12
-0.00030716538
-0.00024559994
3.9140766e-12
-0.00027154684
-0.00025850807
4.0136885e-12
-0.000233516
-0.00026350442
3.9762468e-12
-0.00019431497
-0.00025998604
3.7411704e-12
-0.00015535291
-0.00024778398
3.5193177e-12
-0.00011812527
-0.00022724822
3.3718125e-12
-8.4111835e-05
-0.0001992929
2.8516304e-12
-5.4665478e-05
-0.0001653892
3.3157697e-12
-3.0907336e-05
-0.00012750103
8.388727e-12
-1.3644696e-05
-8.7963708e-05
3.9499131e-12
-3.322993e-06
-4.9326149e-05
-2.5733972e-11
-1.4285544e-05
2.8700838e-11
-4.3334559e-06
3.0368848e-05
-3.5762632e-11
-1.5627795e-05
8.2934099e-05
3.6085692e-11
-3.2417911e-05
0.0001272424
-3.1743926e-12
-5.3460307e-05
0.00016363297
-9.9372511e-12
-7.7712458e-05
0.0001926766
-4.0840968e-12
-0.000104311
0.0002150359
-3.65679e-12
-0.00013254491
0.00023138018
-4.2934448e-12
-0.00016182693
0.00024232512
-4.2765402e-12
-0.00019166587
0.00024839388
-4.1315706e-12
-0.00022164124
0.00024999817
-4.0126016e-12
-0.00025138096
0.00024743633
-3.866511e-12
-0.00028054264
0.00024090414
-3.6612088e-12
-0.00030879822
0.00023051512
-3.3857888e-12
-0.00033582178
0.00021632636
-3.0536109e-12
-0.00036128017
0.00019836723
-2.693697e-12
-0.00038482595
0.00017666849
-2.3193719e-12
-0.00040609255
0.00015129049
-1.9096772e-12
-0.00042469179
0.00012234972
-1.4246681e-12
-0.00044021385
9.0043694e-05
-8.4118362e-13
-0.00045223065
5.467404e-05
-1.7902188e-13
-0.00046030303
1.6668022e-05
4.990365e-13
-0.00046399357
-2.3402224e-05
1.082512e-12
-0.00046288448
-6.4803091e-05
1.6336177e-12
-0.00045660341
-0.00010662858
2.2197181e-12
-0.0004448561
-0.00014779715
2.8688312e-12
-0.00042746613
-0.00018706033
3.4895643e-12
-0.00040442021
-0.00022302793
3.9177483e-12
-0.0003759156
-0.00025421446
4.0795693e-12
-0.00034240458
-0.00027911099
4.0775904e-12
-0.00030462863
-0.00029628405
4.061999e-12
-0.00026363338
-0.00030449967
4.037831e-12
-0.00022075512
-0.00030286428
3.9090704e-12
-0.00017757162
-0.00029096747
3.7114772e-12
-0.00013581501
-0.00026900485
3.4222411e-12
-9.7251938e-05
-0.00023785599
2.651258e-12
-6.3544843e-05
-0.0001990963
3.1680666e-12
-3.6114689e-05
-0.00015493118
9.2557003e-12
-1.6028556e-05
-0.00010804984
4.0841521e-12
-3.9298349e-06
-6.1424839e-05
-3.100043e-11
-1.8215414e-05
3.3360508e-11
-4.4872249e-06
3.4856108e-05
-3.7090997e-11
-1.6177326e-05
9.4624161e-05
3.7344379e-11
-3.3549902e-05
0.00014461498
-3.3456101e-12
-5.5314556e-05
0.00018539763
-1.0363533e-11
-8.0390367e-05
0.00021775242
-4.3242822e-12
-0.0001078848
0.00024253034
-3.9096659e-12
-0.00013706725
0.00026056263
-4.6003605e-12
-0.00016734027
0.00027259815
-4.6079001e-12
-0.00019821119
0.0002792648
-4.4713625e-12
-0.00022926561
0.0002810526
-4.354834e-12
-0.00026014367
0.00027831439
-4.2228264e-12
-0.00029051966
0.00027128014
-4.0571135e-12
-0.00032008483
0.00026008028
-3.8342117e-12
-0.00034853318
0.00024477471
-3.535217e-12
-0.00037554993
0.00022538399
-3.1706942e-12
-0.00040080218
0.00020192075
-2.7717762e-12
-0.0004239316
0.00017441991
-2.3582838e-12
-0.0004445493
0.00014296742
-1.9156348e-12
-0.00046223322
0.0001077276
-1.3995357e-12
-0.00047652863
6.8969446e-05
-7.7171973e-13
-0.00048695288
2.709228e-05
-4.9805146e-14
-0.00049300564
-1.7349451e-05
6.7399038e-13
-0.00049418563
-6.3623088e-05
1.335769e-12
-0.00049001582
-0.0001107984
1.9389284e-12
-0.00048007775
-0.00015773524
2.5527884e-12
-0.00046405567
-0.00020308242
3.2106259e-12
-0.00044178975
-0.00024529384
3.8196625e-12
-0.00041333574
-0.00028266845
4.2148892e-12
-0.00037902595
-0.00031342077
4.3235549e-12
-0.00033952333
-0.00033578668
4.2390899e-12
-0.00029585753
-0.0003481655
4.0951773e-12
-0.0002494298
-0.000349292
3.9411918e-12
-0.00020197496
-0.00033842229
3.7960491e-12
-0.00015547283
-0.00031550697
3.4773543e-12
-0.00011201159
-0.00028131724
2.4749567e-12
-7.3617499e-05
-0.0002374904
3.0003852e-12
-4.2077005e-05
-0.00018647168
1.0221611e-11
-1.8784002e-05
-0.00013134284
4.2173265e-12
-4.640009e-06
-7.5568792e-05
-3.7122893e-11
-2.2855462e-05
3.8822181e-11
-4.5902834e-06
3.944643e-05
-3.8048278e-11
-1.6552691e-05
0.00010658653
3.8126406e-11
-3.4333352e-05
0.00016239564
-3.5581899e-12
-5.6610889e-05
0.00020767518
-1.0755748e-11
-8.2277186e-05
0.00024341872
-4.5862138e-12
-0.00011041819
0.00027067134
-4.1785064e-12
-0.00014028892
0.00029043336
-4.9090259e-12
-0.00017128551
0.00030359475
-4.9508168e-12
-0.00020291689
0.00031089618
-4.8405585e-12
-0.00023477769
0.0003129134
-4.7319353e-12
-0.00026652358
0.0003100603
-4.5937424e-12
-0.00029784946
0.00030260601
-4.4322021e-12
-0.00032847061
0.00029070143
-4.2432094e-12
-0.00035810672
0.00027441082
-3.996735e-12
-0.00038646825
0.00025374553
-3.6689399e-12
-0.00041324486
0.00022869736
-3.2665897e-12
-0.00043809568
0.00019927074
-2.820809e-12
-0.00046064152
0.00016551328
-2.3584465e-12
-0.00048045932
0.0001275454
-1.8721292e-12
-0.00049707946
8.5589582e-05
-1.3142747e-12
-0.0005099872
4.000001e-05
-6.3888053e-13
-0.00051862939
-8.707259e-06
1.388458e-13
-0.00052242834
-5.9824122e-05
9.3162972e-13
-0.00052080462
-0.0001124221
1.6612305e-12
-0.00051321089
-0.00016532898
2.3166101e-12
-0.00049917823
-0.00021711511
2.9555184e-12
-0.0004783755
-0.00026609657
3.6012315e-12
-0.0004506806
-0.00031036336
4.1586709e-12
-0.0004162589
-0.00034784245
4.4726184e-12
-0.00037564085
-0.00037640473
4.4782129e-12
-0.00032978532
-0.00039402105
4.2589356e-12
-0.00028011191
-0.00039896544
3.9767538e-12
-0.00022848373
-0.00039005048
3.7776214e-12
-0.00017712616
-0.00036686453
3.427953e-12
-0.00012847765
-0.00032996575
2.2352913e-12
-8.4985583e-05
-0.00028098247
2.8151947e-12
-4.8878641e-05
-0.00022257864
1.1349659e-11
-2.1960825e-05
-0.00015826066
4.3679855e-12
-5.4696774e-06
-9.2059892e-05
-4.4243833e-11
-2.8325183e-05
4.5197742e-11
-4.6407194e-06
4.4087189e-05
-3.862735e-11
-1.6747989e-05
0.00011869376
3.8431262e-11
-3.4756315e-05
0.00018040397
-3.7893124e-12
-5.7328466e-05
0.00023024735
-1.1099551e-11
-8.3339268e-05
0.00026942953
-4.8740965e-12
-0.00011185972
0.0002991918
-4.47483e-12
-0.00014213475
0.0003207084
-5.2280597e-12
-0.00017355703
0.00033501703
-5.2926587e-12
-0.00020563944
0.0003429786
-5.2121348e-12
-0.00023798811
0.00034526207
-5.128992e-12
-0.00027027702
0.00034234921
-4.992104e-12
-0.0003022252
0.00033455421
-4.8118725e-12
-0.00033357653
0.00032205277
-4.6125242e-12
-0.00036408207
0.00030491636
-4.3877056e-12
-0.00039348459
0.00028314805
-4.1061946e-12
-0.00042150501
0.00025671778
-3.7409642e-12
-0.00044783033
0.00022559605
-3.2927776e-12
-0.00047210323
0.00018978619
-2.7909991e-12
-0.00049391353
0.00014935571
-2.2688093e-12
-0.00051279208
0.00010446813
-1.7253051e-12
-0.00052820808
5.5416006e-05
-1.1131433e-12
-0.00053957141
2.6560536e-06
-3.79046e-13
-0.00054624184
-5.3153685e-05
4.4800632e-13
-0.00054754741
-0.00011111652
1.3043138e-12
-0.00054281499
-0.00017006138
2.0958703e-12
-0.0005314158
-0.00022851431
2.7957539e-12
-0.00051282805
-0.00028468435
3.4408158e-12
-0.00048671738
-0.00033647404
4.0358683e-12
-0.00045303247
-0.00038152737
4.48391e-12
-0.00041210823
-0.00041732895
4.6453355e-12
-0.00036476274
-0.00044136654
4.4711523e-12
-0.00031236682
-0.00045136138
4.0937651e-12
-0.00025686081
-0.00044555649
3.7621371e-12
-0.00020069381
-0.00042303154
3.2851475e-12
-0.00014667113
-0.00038398842
1.8526031e-12
-9.7717405e-05
-0.0003299362
2.5402112e-12
-5.6590332e-05
-0.00026370572
1.2649794e-11
-2.5605327e-05
-0.00018924567
4.5608995e-12
-6.4348945e-06