/*--------------------------------*- C++ -*----------------------------------*\
  =========                 |
  \\      /  F ield         | OpenFOAM: The Open Source CFD Toolbox
   \\    /   O peration     | Website:  https://openfoam.org
    \\  /    A nd           | Version:  7
     \\/     M anipulation  |
\*---------------------------------------------------------------------------*/
FoamFile
{
    version     2.0;
    format      ascii;
    class       surfaceScalarField;
    location    "50";
    object      phi_0;
}
// * * * * * * * * * * * * * * * * * * * * * * * * * * * * * * * * * * * * * //

dimensions      [0 3 -1 0 0 0 0];

internalField   nonuniform List<scalar> 
45600
(
2.7528048e-07
-2.8212886e-07
-7.6803385e-11
4.0339021e-07
-1.2808529e-07
-2.4118386e-11
1.3259341e-07
2.708034e-07
-6.3591352e-12
-5.622884e-07
6.9488359e-07
-1.2078856e-12
-1.6392972e-06
1.0770055e-06
3.8290029e-12
-3.0276122e-06
1.3883073e-06
7.2644221e-12
-4.6524582e-06
1.6248354e-06
9.5255633e-12
-6.4450932e-06
1.7926233e-06
1.1125082e-11
-8.3454213e-06
1.9003165e-06
1.2262192e-11
-1.0301441e-05
1.9560079e-06
1.3013943e-11
-1.2267401e-05
1.9659464e-06
1.3430191e-11
-1.4201582e-05
1.9341657e-06
1.3548354e-11
-1.606424e-05
1.8626439e-06
1.3390234e-11
-1.7816029e-05
1.7517761e-06
1.2958903e-11
-1.9417056e-05
1.6010164e-06
1.2241768e-11
-2.082666e-05
1.409595e-06
1.1217471e-11
-2.2003909e-05
1.1772399e-06
9.8654112e-12
-2.2908771e-05
9.048524e-07
8.1794185e-12
-2.3503871e-05
5.950908e-07
6.1829498e-12
-2.3756705e-05
2.5282911e-07
3.9198295e-12
-2.3642143e-05
-1.1455916e-07
1.446312e-12
-2.3145011e-05
-4.971256e-07
-1.1923623e-12
-2.2262576e-05
-8.8242866e-07
-3.9467653e-12
-2.100662e-05
-1.2559543e-06
-6.7164867e-12
-1.9404869e-05
-1.6017507e-06
-9.3337503e-12
-1.7501563e-05
-1.9032965e-06
-1.1605489e-11
-1.5356975e-05
-2.1445648e-06
-1.338727e-11
-1.3045754e-05
-2.311191e-06
-1.4627269e-11
-1.0654092e-05
-2.3916422e-06
-1.5321349e-11
-8.2758091e-06
-2.3782836e-06
-1.5404059e-11
-6.007571e-06
-2.2682468e-06
-1.4707161e-11
-3.9435442e-06
-2.0640161e-06
-1.3083322e-11
-2.1697911e-06
-1.7737126e-06
-1.0599784e-11
-7.5852735e-07
-1.4112222e-06
-7.5623905e-12
2.382321e-07
-9.9675984e-07
-4.4204834e-12
7.9655132e-07
-5.5836466e-07
-1.7412613e-12
9.2925142e-07
-1.3273582e-07
1.4305608e-12
7.0554234e-07
2.2374009e-07
5.6105074e-12
2.9044058e-07
4.151801e-07
1.0144224e-11
2.90487e-07
3.7864026e-12
1.3294529e-07
-4.1505218e-07
-2.1512881e-11
-3.0162495e-07
3.0649933e-07
-1.3593257e-11
-1.615355e-06
1.5845454e-06
-1.1946416e-11
-3.8746733e-06
2.9542143e-06
-1.2789559e-11
-7.0073166e-06
4.2096635e-06
-1.4015451e-11
-1.0879732e-05
5.2607398e-06
-1.5589446e-11
-1.533515e-05
6.0802709e-06
-1.7048468e-11
-2.0215992e-05
6.6734822e-06
-1.8106572e-11
-2.5374054e-05
7.0583953e-06
-1.8701532e-11
-3.0673269e-05
7.2552415e-06
-1.8841788e-11
-3.5988538e-05
7.2812349e-06
-1.8557122e-11
-4.1202826e-05
7.148474e-06
-1.7879876e-11
-4.620397e-05
6.8638058e-06
-1.6830198e-11
-5.0882099e-05
6.42992e-06
-1.5414017e-11
-5.5128233e-05
5.847162e-06
-1.3628161e-11
-5.8834321e-05
5.1156943e-06
-1.1469301e-11
-6.1894805e-05
4.2377356e-06
-8.9486991e-12
-6.420961e-05
3.219668e-06
-6.1096491e-12
-6.5688359e-05
2.0738448e-06
-3.006727e-12
-6.6255469e-05
8.1993631e-07
2.9553304e-13
-6.5855986e-05
-5.1405223e-07
3.7500283e-12
-6.4460813e-05
-1.8923087e-06
7.3432316e-12
-6.207248e-05
-3.2707654e-06
1.0916191e-11
-5.8729087e-05
-4.5993486e-06
1.4288418e-11
-5.4507071e-05
-5.8237774e-06
1.7272245e-11
-4.9521902e-05
-6.8884943e-06
1.9746603e-11
-4.3926401e-05
-7.740107e-06
2.1685134e-11
-3.7906459e-05
-8.331164e-06
2.3079617e-11
-3.1674146e-05
-8.623959e-06
2.382071e-11
-2.545839e-05
-8.59403e-06
2.3689837e-11
-1.9493595e-05
-8.2330545e-06
2.2537669e-11
-1.4006716e-05
-7.5509504e-06
2.0498315e-11
-9.2033057e-06
-6.577186e-06
1.7958133e-11
-5.2529219e-06
-5.3616177e-06
1.5228583e-11
-2.2739774e-06
-3.9756527e-06
1.2263108e-11
-3.1724036e-07
-2.5150533e-06
8.7377041e-12
6.5708456e-07
-1.1071043e-06
4.3613331e-12
8.0365903e-07
7.7036558e-08
2.2684979e-12
4.1778794e-07
8.0092854e-07
3.5985159e-12
7.0832256e-07
-2.3706613e-12
-2.7355905e-07
-1.4148085e-07
-1.2072354e-11
-1.6274414e-06
1.6603898e-06
-6.8149798e-12
-4.2893619e-06
4.2464747e-06
-8.1844145e-12
-8.2746401e-06
6.939499e-06
-6.8340407e-12
-1.3474387e-05
9.4094145e-06
-4.9093211e-12
-1.9708696e-05
1.1495053e-05
-3.8592963e-12
-2.676573e-05
1.3137309e-05
-3.1827806e-12
-3.44266e-05
1.4334355e-05
-2.6320206e-12
-4.2478618e-05
1.5110415e-05
-2.174182e-12
-5.0720441e-05
1.5497065e-05
-1.763654e-12
-5.8962288e-05
1.5523083e-05
-1.3608136e-12
-6.7023685e-05
1.5209873e-05
-9.5257271e-13
-7.4730527e-05
1.4570651e-05
-5.4033446e-13
-8.1912716e-05
1.361211e-05
-1.2956829e-13
-8.8403145e-05
1.2337591e-05
2.7415324e-13
-9.4038475e-05
1.0751021e-05
6.7297195e-13
-9.8661797e-05
8.861054e-06
1.0752533e-12
-0.0001021271
6.6849675e-06
1.4747594e-12
-0.00010430523
4.2519776e-06
1.8424999e-12
-0.000105091
1.6057144e-06
2.1373246e-12
-0.00010441064
-1.194418e-06
2.3522299e-12
-0.00010222946
-4.0734997e-06
2.5111841e-12
-9.8558524e-05
-6.9417083e-06
2.6557309e-12
-9.3460008e-05
-9.6978643e-06
2.8013302e-12
-8.7050393e-05
-1.2233381e-05
2.8980015e-12
-7.9500993e-05
-1.4437885e-05
2.8690234e-12
-7.1035278e-05
-1.620583e-05
2.7091457e-12
-6.192273e-05
-1.7443737e-05
2.5396566e-12
-5.2469159e-05
-1.8077549e-05
2.5227837e-12
-4.3003686e-05
-1.8059492e-05
2.6823181e-12
-3.3862815e-05
-1.737389e-05
2.8311853e-12
-2.5372212e-05
-1.6041536e-05
2.7629394e-12
-1.782688e-05
-1.412255e-05
2.5534638e-12
-1.1470425e-05
-1.1718129e-05
2.5732633e-12
-6.4738893e-06
-8.9721999e-06
3.0685069e-12
-2.9140453e-06
-6.0748323e-06
3.6975936e-12
-7.5120031e-07
-3.2698634e-06
3.6843499e-12
1.9438035e-07
-8.6852713e-07
3.7354954e-12
2.6547172e-07
7.2975604e-07
5.0422794e-12
9.7380445e-07
8.9552136e-13
-7.4583398e-07
6.0436549e-07
-1.2439147e-11
-3.1796123e-06
4.0941701e-06
-9.5069231e-13
-7.3460778e-06
8.4129482e-06
-6.4217728e-12
-1.3163032e-05
1.275646e-05
-5.8199956e-12
-2.04558e-05
1.6702185e-05
-3.2427413e-12
-2.8992623e-05
2.0031877e-05
-1.9350797e-12
-3.8513869e-05
2.2658557e-05
-1.0661275e-12
-4.8752672e-05
2.457316e-05
-2.8860007e-13
-5.9446981e-05
2.5804724e-05
3.4143988e-13
-7.0344835e-05
2.6394918e-05
8.4145589e-13
-8.1205132e-05
2.6383378e-05
1.2591023e-12
-9.1795987e-05
2.5800726e-05
1.6211664e-12
-0.00010189242
2.4667082e-05
1.9372115e-12
-0.00011127464
2.2994329e-05
2.204366e-12
-0.00011972779
2.0790743e-05
2.407942e-12
-0.00012704362
1.8066846e-05
2.5328777e-12
-0.00013302417
1.48416e-05
2.5808802e-12
-0.00013748743
1.114822e-05
2.5670682e-12
-0.00014027452
7.0390737e-06
2.4984685e-12
-0.00014125806
2.5892543e-06
2.3595547e-12
-0.00014035078
-2.1016957e-06
2.1285535e-12
-0.00013751439
-6.9098904e-06
1.7606175e-12
-0.00013276703
-1.1689077e-05
1.3054025e-12
-0.00012618932
-1.6275588e-05
8.5681262e-13
-0.0001179279
-2.0494803e-05
4.8450554e-13
-0.00010819592
-2.416985e-05
1.6815633e-13
-9.7269869e-05
-2.7131857e-05
-1.7962111e-13
-8.5482406e-05
-2.92312e-05
-5.8451023e-13
-7.3210953e-05
-3.0349028e-05
-9.0178634e-13
-6.0862283e-05
-3.0408188e-05
-8.9533465e-13
-4.8853467e-05
-2.9382697e-05
-4.8935083e-13
-3.7589899e-05
-2.7305059e-05
8.6767403e-14
-2.7441292e-05
-2.4271124e-05
5.1841161e-13
-1.8716677e-05
-2.0442774e-05
8.1007799e-13
-1.1639473e-05
-1.6049478e-05
1.3330421e-12
-6.3236031e-06
-1.1390741e-05
2.3606624e-12
-2.7515425e-06
-6.8418816e-06
3.6341062e-12
-7.5712637e-07
-2.8628843e-06
4.4296482e-12
-9.5182382e-09
-1.7867163e-08
4.5686445e-12
9.6426406e-07
3.7594288e-12
-1.2279616e-06
1.8323415e-06
-1.4055431e-11
-4.7880986e-06
7.6543021e-06
4.9398119e-12
-1.0521527e-05
1.4146384e-05
-5.6215076e-12
-1.8214316e-05
2.0449258e-05
-6.7388321e-12
-2.7603921e-05
2.6091795e-05
-4.3859712e-12
-3.8396282e-05
3.0824242e-05
-3.6905271e-12
-5.0283043e-05
3.454532e-05
-3.3717981e-12
-6.2954773e-05
3.7244893e-05
-2.9177283e-12
-7.6109029e-05
3.8958984e-05
-2.4702218e-12
-8.9453766e-05
3.9739659e-05
-2.0644761e-12
-0.00010270747
3.963708e-05
-1.6735417e-12
-0.00011559753
3.8690787e-05
-1.2807994e-12
-0.00012785834
3.6927896e-05
-8.7568754e-13
-0.0001392302
3.4366184e-05
-4.4965134e-13
-0.00014945975
3.1020294e-05
-7.880124e-15
-0.00015830247
2.6909576e-05
4.2637967e-13
-0.00016552724
2.2066364e-05
8.2907591e-13
-0.00017092274
1.6543725e-05
1.1971671e-12
-0.00017430559
1.0421916e-05
1.5510598e-12
-0.00017552936
3.813014e-06
1.9082583e-12
-0.00017449413
-3.1369202e-06
2.251302e-12
-0.00017115588
-1.024813e-05
2.5126984e-12
-0.0001655348
-1.7310159e-05
2.6436317e-12
-0.0001577219
-2.4088495e-05
2.6638644e-12
-0.0001478832
-3.0333521e-05
2.6683266e-12
-0.00013626061
-3.5792454e-05
2.7444186e-12
-0.00012316897
-4.0223484e-05
2.8640155e-12
-0.00010898871
-4.341143e-05
2.8836038e-12
-9.4153791e-05
-4.5183945e-05
2.7087005e-12
-7.9134854e-05
-4.5427157e-05
2.4686787e-12
-6.4418081e-05
-4.4099512e-05
2.4491753e-12
-5.0480386e-05
-4.1242756e-05
2.7742253e-12
-3.7762136e-05
-3.6989324e-05
3.1914722e-12
-2.6638798e-05
-3.1566065e-05
3.3001696e-12
-1.7393155e-05
-2.5295138e-05
3.0521733e-12
-1.0189932e-05
-1.8594032e-05
3.0415153e-12
-5.0547608e-06
-1.1977085e-05
3.9386001e-12
-1.8598309e-06
-6.0577819e-06
3.9617113e-12
-3.222213e-07
-1.5554552e-06
8.0016089e-13
6.4202331e-07
6.0361645e-12
-1.693166e-06
3.5255252e-06
-1.6601502e-11
-6.3714042e-06
1.233253e-05
1.0290222e-11
-1.3671444e-05
2.1446428e-05
-4.7229529e-12
-2.3234048e-05
3.001187e-05
-6.8927854e-12
-3.4695229e-05
3.7552982e-05
-4.1815147e-12
-4.7689807e-05
4.3818825e-05
-3.6384867e-12
-6.185751e-05
4.8713026e-05
-3.5450889e-12
-7.6848055e-05
5.2235441e-05
-3.2041372e-12
-9.232386e-05
5.4434792e-05
-2.8143093e-12
-0.00010796026
5.5376066e-05
-2.4368146e-12
-0.00012344396
5.5120781e-05
-2.0545369e-12
-0.00013847069
5.3717517e-05
-1.6641592e-12
-0.00015274322
5.120043e-05
-1.2654405e-12
-0.00016597054
4.7593498e-05
-8.485082e-13
-0.00017786874
4.2918495e-05
-3.9965341e-13
-0.00018816405
3.720489e-05
7.6713399e-14
-0.00019659789
3.0500207e-05
5.5124023e-13
-0.00020293384
2.2879672e-05
9.8852953e-13
-0.00020696614
1.4454217e-05
1.378866e-12
-0.0002085293
5.3761624e-06
1.7474049e-12
-0.00020750812
-4.1581009e-06
2.124155e-12
-0.00020384768
-1.3908568e-05
2.5021397e-12
-0.00019756247
-2.3595364e-05
2.8094368e-12
-0.00018874396
-3.2906994e-05
2.9679147e-12
-0.00017756589
-4.1511607e-05
2.9797802e-12
-0.00016428626
-4.9072101e-05
2.9599261e-12
-0.00014924552
-5.5264241e-05
3.0412255e-12
-0.00013285991
-5.9797031e-05
3.2178016e-12
-0.00011560967
-6.2434157e-05
3.3104561e-12
-9.8021745e-05
-6.3015067e-05
3.162179e-12
-8.0647221e-05
-6.1474068e-05
2.8868449e-12
-6.4034194e-05
-5.7855837e-05
2.8243715e-12
-4.8697468e-05
-5.2326065e-05
3.1493291e-12
-3.50869e-05
-4.517659e-05
3.5582286e-12
-2.3556651e-05
-3.6825343e-05
3.5396361e-12
-1.4337855e-05
-2.7812844e-05
3.3884342e-12
-7.5174998e-06
-1.8797492e-05
4.2869614e-12
-3.0267341e-06
-1.0548555e-05
3.7458251e-12
-6.4248888e-07
-3.9396774e-06
-1.7002912e-12
-4.7552747e-10
8.5751863e-12
-2.1329365e-06
5.6584822e-06
-1.9398931e-11
-7.891073e-06
1.8090652e-05
1.5056284e-11
-1.67174e-05
3.0272758e-05
-4.0159083e-12
-2.8105734e-05
4.1400211e-05
-6.9906967e-12
-4.1585081e-05
5.1032334e-05
-3.772798e-12
-5.6714127e-05
5.8947876e-05
-3.2491558e-12
-7.3078271e-05
6.5077175e-05
-3.2753774e-12
-9.0287082e-05
6.9444255e-05
-2.988564e-12
-0.00010797132
7.211903e-05
-2.6362535e-12
-0.00012577926
7.3184015e-05
-2.2890699e-12
-0.00014337274
7.2714257e-05
-1.9233809e-12
-0.00016042341
7.0768196e-05
-1.5392707e-12
-0.00017661018
6.7387203e-05
-1.1497427e-12
-0.00019161813
6.2601449e-05
-7.6100868e-13
-0.00020513951
5.6439869e-05
-3.6089154e-13
-0.00021687684
4.8942215e-05
6.9126972e-14
-0.00022654815
4.0171515e-05
5.2879863e-13
-0.00023389406
3.0225596e-05
9.8467469e-13
-0.0002386865
1.9246653e-05
1.3896582e-12
-0.00024073842
7.4280788e-06
1.7223988e-12
-0.00023991436
-4.9821624e-06
2.0088467e-12
-0.00023614102
-1.7681919e-05
2.3077886e-12
-0.00022941747
-3.0318915e-05
2.6232647e-12
-0.00021982416
-4.25003e-05
2.8844998e-12
-0.00020752991
-5.3805839e-05
2.985962e-12
-0.00019279609
-6.380593e-05
2.9067464e-12
-0.0001759767
-7.2083657e-05
2.7810697e-12
-0.00015751365
-7.8260109e-05
2.7969785e-12
-0.00013792614
-8.2021662e-05
2.984513e-12
-0.00011779372
-8.3147445e-05
3.1364182e-12
-9.7732935e-05
-8.1534827e-05
3.0337355e-12
-7.8368117e-05
-7.7220681e-05
2.7764568e-12
-6.0297878e-05
-7.0396359e-05
2.7478801e-12
-4.4059541e-05
-6.1414947e-05
3.0878613e-12
-3.0094424e-05
-5.0790425e-05
3.3610523e-12
-1.8717243e-05
-3.9189994e-05
3.566308e-12
-1.0093046e-05
-2.7421711e-05
4.8662037e-12
-4.2253181e-06
-1.6416312e-05
3.7048573e-12
-9.5848943e-07
-7.2065011e-06
-4.5481213e-12
-9.5896658e-07
1.0591805e-11
-2.5450549e-06
8.2035593e-06
-2.2207142e-11
-9.3288444e-06
2.4874425e-05
1.9316819e-11
-1.9615359e-05
4.0559277e-05
-3.5493189e-12
-3.2756844e-05
5.4541702e-05
-7.2756135e-12
-4.8175881e-05
6.6451374e-05
-3.5995784e-12
-6.5354084e-05
7.6126084e-05
-3.1174115e-12
-8.3822133e-05
8.3545229e-05
-3.2696137e-12
-0.00010315062
8.8772744e-05
-3.0403254e-12
-0.00012294161
9.1910032e-05
-2.7336738e-12
-0.00014282095
9.3063352e-05
-2.4335587e-12
-0.00016243134
9.2324647e-05
-2.1053961e-12
-0.00018142687
8.9763733e-05
-1.7391839e-12
-0.00019946924
8.5429577e-05
-1.3450474e-12
-0.00021622604
7.9358248e-05
-9.428615e-13
-0.0002313713
7.158513e-05
-5.4470919e-13
-0.00024458832
6.2159233e-05
-1.3961887e-13
-0.0002555746
5.1157786e-05
2.9737515e-13
-0.00026404868
3.8699678e-05
7.7312748e-13
-0.00026975868
2.4956658e-05
1.253329e-12
-0.00027249209
1.0161502e-05
1.6759354e-12
-0.00027208668
-5.3875792e-06
1.9990503e-12
-0.00026844172
-2.1326886e-05
2.2614679e-12
-0.00026152975
-3.72309e-05
2.5234463e-12
-0.0002514074
-5.2622661e-05
2.8236695e-12
-0.00023822498
-6.6988244e-05
3.0948685e-12
-0.00022223363
-7.9797264e-05
3.1994445e-12
-0.00020378862
-9.0528663e-05
3.0838539e-12
-0.00018334762
-9.8701142e-05
2.8926004e-12
-0.00016146242
-0.0001039069
2.8646875e-12
-0.00013876328
-0.00010584658
3.0650881e-12
-0.00011593534
-0.00010436273
3.2640522e-12
-9.3687528e-05
-9.9468464e-05
3.2055461e-12
-7.2715426e-05
-9.1368482e-05
2.9973834e-12
-5.3660758e-05
-8.0469663e-05
2.9672238e-12
-3.7071098e-05
-6.7380099e-05
3.0830115e-12
-2.3363941e-05
-5.2897122e-05
3.5521135e-12
-1.2799305e-05
-3.7986335e-05
5.4822984e-12
-5.4648772e-06
-2.3750756e-05
3.7523911e-12
-1.2772603e-06
-1.1394124e-05
-7.5119428e-12
-2.2362358e-06
1.3001319e-11
-2.9284826e-06
1.1132066e-05
-2.4938837e-11
-1.0673671e-05
3.2619591e-05
2.3130293e-11
-2.2336172e-05
5.2221782e-05
-3.2448972e-12
-3.7135971e-05
6.9341509e-05
-7.6405251e-12
-5.4394104e-05
8.3709511e-05
-3.5258597e-12
-7.3517621e-05
9.5249604e-05
-3.082756e-12
-9.3984292e-05
0.0001040119
-3.3547791e-12
-0.00011532795
0.00011011641
-3.1734492e-12
-0.00013712517
0.00011370725
-2.8976684e-12
-0.00015898352
0.00011492171
-2.6332848e-12
-0.00018053177
0.0001138729
-2.3454565e-12
-0.00020141214
0.0001106441
-2.0168279e-12
-0.00022127503
0.00010529246
-1.6408184e-12
-0.00023977618
9.7859403e-05
-1.2257358e-12
-0.00025657637
8.8385329e-05
-7.977846e-13
-0.00027134346
7.692632e-05
-3.773604e-13
-0.00028375659
6.3570911e-05
4.3465234e-14
-0.00029351243
4.845552e-05
4.9591399e-13
-0.00030033322
3.1777445e-05
9.9736333e-13
-0.00030397636
1.3804643e-05
1.512308e-12
-0.00030424557
-5.1183603e-06
1.959388e-12
-0.00030100297
-2.4569485e-05
2.3058263e-12
-0.00029418252
-4.4051365e-05
2.5451261e-12
-0.00028380326
-6.300194e-05
2.7705756e-12
-0.00026998222
-8.0809293e-05
3.0539564e-12
-0.0002529455
-9.6833977e-05
3.3366432e-12
-0.00023303599
-0.00011043814
3.4543917e-12
-0.00021071599
-0.00012102113
3.3195204e-12
-0.00018656267
-0.00012806025
3.0792128e-12
-0.00016125485
-0.00013115445
3.0096065e-12
-0.00013554999
-0.00013006759
3.196994e-12
-0.00011025147
-0.00012476695
3.4059213e-12
-8.6167369e-05
-0.00011545256
3.3898269e-12
-6.4063729e-05
-0.00010257332
3.1914204e-12
-4.4616681e-05
-8.6827184e-05
2.9440624e-12
-2.8368538e-05
-6.9145271e-05
3.3833652e-12
-1.569315e-05
-5.0661709e-05
5.9648157e-12
-6.775216e-06
-3.2668686e-05
3.8391984e-12
-1.6070338e-06
-1.6562303e-05
-1.0468983e-11
-3.8432882e-06
1.5540191e-11
-3.2816999e-06
1.4413792e-05
-2.7530492e-11
-1.191587e-05
4.1253734e-05
2.6532453e-11
-2.485551e-05
6.5161426e-05
-3.0687978e-12
-4.1199915e-05
8.5685924e-05
-8.0523219e-12
-6.0176305e-05
0.0001026859
-3.5023446e-12
-8.1122243e-05
0.00011619555
-3.0810872e-12
-0.0001034663
0.00012635596
-3.4632688e-12
-0.00012670887
0.00013335899
-3.3297504e-12
-0.00015040464
0.00013740302
-3.0790594e-12
-0.00017414713
0.00013866421
-2.8346402e-12
-0.00019755594
0.00013728171
-2.5694361e-12
-0.00022026668
0.00013335485
-2.2753782e-12
-0.00024192388
0.00012694967
-1.9405495e-12
-0.00026217668
0.0001181122
-1.548818e-12
-0.00028067717
0.00010688582
-1.1063678e-12
-0.0002970813
9.3330458e-05
-6.4511469e-13
-0.00031105195
7.7541568e-05
-1.9555315e-13
-0.00032226414
5.9667706e-05
2.4493994e-13
-0.00033041221
3.99255e-05
7.1177541e-13
-0.00033521898
1.861141e-05
1.2236052e-12
-0.00033644713
-3.890202e-06
1.7409549e-12
-0.00033391173
-2.7104876e-05
2.2598823e-12
-0.00032749596
-5.0467129e-05
2.6231286e-12
-0.00031716688
-7.3331034e-05
2.839366e-12
-0.00030299231
-9.4983888e-05
3.020505e-12
-0.00028515684
-0.00011466946
3.2686603e-12
-0.00026397519
-0.00013161979
3.5428532e-12
-0.00023990061
-0.00014509568
3.6623606e-12
-0.00021352582
-0.00015443503
3.5127019e-12
-0.00018557378
-0.00015910651
3.239948e-12
-0.0001568766
-0.00015876482
3.1367474e-12
-0.00012834165
-0.0001533019
3.3001848e-12
-0.00010090606
-0.00014288812
3.5114481e-12
-7.5482462e-05
-0.0001279969
3.457163e-12
-5.2901145e-05
-0.00010940852
3.0091126e-12
-3.3855123e-05
-8.8191319e-05
3.2769724e-12
-1.8854789e-05
-6.5662049e-05
6.375256e-12
-8.198262e-06
-4.3325205e-05
3.8500025e-12
-1.9611603e-06
-2.2799387e-05
-1.362558e-11
-5.8044705e-06
1.8254855e-11
-3.6023023e-06
1.8016125e-05
-2.9939815e-11
-1.3044872e-05
5.0696272e-05
2.9543286e-11
-2.7149289e-05
7.9265844e-05
-2.9977566e-12
-4.4907168e-05
0.00010344381
-8.5136755e-12
-6.5461501e-05
0.00012324024
-3.555385e-12
-8.8087226e-05
0.00013882128
-3.1311444e-12
-0.0001121688
0.00015043754
-3.6035841e-12
-0.00013717741
0.00015836761
-3.5193598e-12
-0.00016264987
0.00016287549
-3.3036523e-12
-0.00018816992
0.00016418426
-3.0829922e-12
-0.00021335264
0.00016246442
-2.8284811e-12
-0.00023783202
0.00015783424
-2.546146e-12
-0.0002612519
0.00015036955
-2.2417284e-12
-0.00028325983
0.00014012012
-1.895613e-12
-0.00030350382
0.00012712982
-1.4836099e-12
-0.00032163166
0.0001114583
-1.0087583e-12
-0.00033729244
9.3202355e-05
-5.0654272e-13
-0.00035014037
7.2515647e-05
-1.7891135e-14
-0.00035984078
4.9625907e-05
4.4840514e-13
-0.00036607842
2.484904e-05
9.106294e-13
-0.00036856897
-1.3996694e-06
1.3751281e-12
-0.00036707135
-2.8602499e-05
2.0160464e-12
-0.00036140636
-5.6132098e-05
2.5678734e-12
-0.00035147457
-8.3262818e-05
2.9484743e-12
-0.00033727782
-0.00010918065
3.1508728e-12
-0.00031894091
-0.0001330064
3.2868024e-12
-0.00029673176
-0.00015382896
3.4868279e-12
-0.00027107727
-0.00017075016
3.7298134e-12
-0.00024257162
-0.00018294065
3.8294746e-12
-0.00021197326
-0.00018970486
3.6596268e-12
-0.00018018759
-0.00019055051
3.3671371e-12
-0.00014823333
-0.0001852562
3.2526274e-12
-0.00011719277
-0.00017392868
3.4151909e-12
-8.8148948e-05
-0.0001570407
3.5243487e-12
-6.2115375e-05
-0.00013544208
3.103774e-12
-3.9966489e-05
-0.00011034022
3.3145714e-12
-2.2377615e-05
-8.3250943e-05
6.8917657e-12
-9.7826928e-06
-5.5920131e-05
3.8208112e-12
-2.3546949e-06
-3.0227361e-05
-1.7155514e-11
-8.1591863e-06
2.1280203e-11
-3.88705e-06
2.1903208e-05
-3.2138775e-11
-1.4048659e-05
6.0857849e-05
3.2159436e-11
-2.9192053e-05
9.4409239e-05
-3.0005035e-12
-4.8215263e-05
0.00012246703
-9.0007855e-12
-7.0187839e-05
0.00014521282
-3.6834665e-12
-9.4330055e-05
0.0001629635
-3.2472122e-12
-0.00011998821
0.00017609569
-3.7839395e-12
-0.00014660907
0.00018498848
-3.7363753e-12
-0.00017371587
0.00018998229
-3.5595437e-12
-0.00020088685
0.00019135524
-3.3783338e-12
-0.00022773708
0.00018931465
-3.1471138e-12
-0.0002539038
0.00018400097
-2.8680952e-12
-0.00027903519
0.00017550095
-2.5655874e-12
-0.00030278231
0.00016386725
-2.2449933e-12
-0.00032479396
0.00014914147
-1.8824919e-12
-0.00034471404
0.00013137837
-1.4473999e-12
-0.00036218125
0.00011066958
-9.3645249e-13
-0.00037683113
8.716553e-05
-3.8689055e-13
-0.00038830041
6.1095194e-05
1.482691e-13
-0.00039623426
3.2782896e-05
6.5754374e-13
-0.00040029638
2.6624334e-06
1.1934757e-12
-0.00040018388
-2.8715012e-05
1.6981975e-12
-0.00039564406
-6.0671925e-05
2.2950537e-12
-0.00038649736
-9.2409508e-05
2.8701891e-12
-0.00037266262
-0.00012301537
3.2777092e-12
-0.00035418496
-0.00015148405
3.4725401e-12
-0.0003312638
-0.00017675015
3.5663881e-12
-0.00030427784
-0.00019773614
3.7093921e-12
-0.000273803
-0.0002134155
3.8958205e-12
-0.00024061829
-0.00022288954
3.9446323e-12
-0.00020569518
-0.00022547361
3.7394547e-12
-0.00017016638
-0.00022078502
3.4501831e-12
-0.00013527319
-0.0002088219
3.3773582e-12
-0.00010229333
-0.00019002056
3.4304445e-12
-7.245593e-05
-0.00016527946
3.0444103e-12
-4.6853288e-05
-0.00013594285
3.3692266e-12
-2.6361362e-05
-0.00010374288
7.5834919e-12
-1.1580444e-05
-7.070106e-05
3.8463886e-12
-2.8033155e-06
-3.9004467e-05
-2.1162396e-11
-1.0962524e-05
2.472039e-11
-4.1321175e-06
2.6035359e-05
-3.4095315e-11
-1.4914097e-05
7.1639794e-05
3.435154e-11
-3.095713e-05
0.00011045228
-3.0594901e-12
-5.1080653e-05
0.00014259056
-9.4819655e-12
-7.4292271e-05
0.00016842445
-3.8680898e-12
-9.9766121e-05
0.00018843735
-3.4288625e-12
-0.00012681668
0.00020314626
-4.0144711e-12
-0.0001548713
0.0002130431
-3.9847076e-12
-0.00018344393
0.00021855493
-3.8324457e-12
-0.00021211149
0.0002200228
-3.6923135e-12
-0.00024049344
0.0002176966
-3.5048765e-12
-0.00026823493
0.00021174246
-3.2508182e-12
-0.00029499351
0.00020225954
-2.9466588e-12
-0.00032042904
0.00018930278
-2.6186963e-12
-0.0003441964
0.00017290883
-2.2750043e-12
-0.00036594074
0.00015312271
-1.8914864e-12
-0.00038529505
0.00013002388
-1.4318218e-12
-0.00040188001
0.0001037505
-8.8490207e-13
-0.00041530644
7.4521627e-05
-2.8541969e-13
-0.00042518076
4.2657233e-05
3.2127358e-13
-0.00043111396
8.5956297e-06
9.2059617e-13
-0.00043273622
-2.7092764e-05
1.3889239e-12
-0.00042971416
-6.3693994e-05
1.938262e-12
-0.00042177618
-0.00010034749
2.5686814e-12
-0.00040874172
-0.00013604983
3.1748354e-12
-0.00039055537
-0.00016967038
3.6023374e-12
-0.00036732349
-0.00019998203
3.7879148e-12
-0.0003393498
-0.00022570985
3.839384e-12
-0.00030716538
-0.00024559994
3.9140766e-12
-0.00027154684
-0.00025850808
4.0136885e-12
-0.000233516
-0.00026350442
3.9762468e-12
-0.00019431497
-0.00025998604
3.7411704e-12
-0.00015535291
-0.00024778398
3.5193177e-12
-0.00011812527
-0.00022724822
3.3718125e-12
-8.4111834e-05
-0.0001992929
2.8516304e-12
-5.4665478e-05
-0.0001653892
3.3157697e-12
-3.0907337e-05
-0.00012750102
8.388727e-12
-1.3644696e-05
-8.7963707e-05
3.9499131e-12
-3.3229928e-06
-4.9326148e-05
-2.5733972e-11
-1.4285544e-05
2.8700838e-11
-4.3334555e-06
3.0368848e-05
-3.5762632e-11
-1.5627795e-05
8.2934099e-05
3.6085692e-11
-3.2417911e-05
0.0001272424
-3.1743926e-12
-5.3460306e-05
0.00016363297
-9.9372511e-12
-7.7712458e-05
0.0001926766
-4.0840968e-12
-0.000104311
0.0002150359
-3.65679e-12
-0.00013254491
0.00023138018
-4.2934448e-12
-0.00016182693
0.00024232512
-4.2765402e-12
-0.00019166587
0.00024839387
-4.1315706e-12
-0.00022164124
0.00024999817
-4.0126016e-12
-0.00025138096
0.00024743633
-3.866511e-12
-0.00028054264
0.00024090414
-3.6612088e-12
-0.00030879822
0.00023051512
-3.3857888e-12
-0.00033582178
0.00021632635
-3.0536109e-12
-0.00036128017
0.00019836723
-2.693697e-12
-0.00038482595
0.00017666849
-2.3193719e-12
-0.00040609255
0.00015129049
-1.9096772e-12
-0.00042469178
0.00012234972
-1.4246681e-12
-0.00044021385
9.0043692e-05
-8.4118362e-13
-0.00045223065
5.4674038e-05
-1.7902188e-13
-0.00046030303
1.6668021e-05
4.990365e-13
-0.00046399357
-2.3402222e-05
1.082512e-12
-0.00046288448
-6.4803088e-05
1.6336177e-12
-0.00045660341
-0.00010662858
2.2197181e-12
-0.00044485609
-0.00014779715
2.8688312e-12
-0.00042746613
-0.00018706034
3.4895643e-12
-0.00040442021
-0.00022302793
3.9177483e-12
-0.0003759156
-0.00025421446
4.0795693e-12
-0.00034240458
-0.00027911098
4.0775904e-12
-0.00030462863
-0.00029628405
4.061999e-12
-0.00026363338
-0.00030449967
4.037831e-12
-0.00022075512
-0.00030286428
3.9090704e-12
-0.00017757162
-0.00029096747
3.7114772e-12
-0.00013581501
-0.00026900484
3.4222411e-12
-9.7251936e-05
-0.00023785599
2.651258e-12
-6.3544841e-05
-0.0001990963
3.1680666e-12
-3.6114689e-05
-0.00015493118
9.2557003e-12
-1.6028556e-05
-0.00010804984
4.0841521e-12
-3.9298351e-06
-6.1424839e-05
-3.100043e-11
-1.8215413e-05
3.3360508e-11
-4.4872246e-06
3.4856109e-05
-3.7090997e-11
-1.6177326e-05
9.4624161e-05
3.7344379e-11
-3.3549901e-05
0.00014461498
-3.3456101e-12
-5.5314556e-05
0.00018539763
-1.0363533e-11
-8.0390367e-05
0.00021775242
-4.3242822e-12
-0.0001078848
0.00024253034
-3.9096659e-12
-0.00013706725
0.00026056263
-4.6003605e-12
-0.00016734027
0.00027259815
-4.6079001e-12
-0.00019821119
0.0002792648
-4.4713625e-12
-0.00022926561
0.0002810526
-4.354834e-12
-0.00026014367
0.00027831439
-4.2228264e-12
-0.00029051966
0.00027128014
-4.0571135e-12
-0.00032008483
0.00026008028
-3.8342117e-12
-0.00034853318
0.00024477471
-3.535217e-12
-0.00037554993
0.00022538399
-3.1706942e-12
-0.00040080218
0.00020192075
-2.7717762e-12
-0.0004239316
0.00017441991
-2.3582838e-12
-0.0004445493
0.00014296742
-1.9156348e-12
-0.00046223322
0.0001077276
-1.3995357e-12
-0.00047652863
6.8969445e-05
-7.7171973e-13
-0.00048695288
2.7092278e-05
-4.9805146e-14
-0.00049300564
-1.7349453e-05
6.7399038e-13
-0.00049418563
-6.3623087e-05
1.335769e-12
-0.00049001582
-0.0001107984
1.9389284e-12
-0.00048007775
-0.00015773524
2.5527884e-12
-0.00046405567
-0.00020308243
3.2106259e-12
-0.00044178975
-0.00024529384
3.8196625e-12
-0.00041333574
-0.00028266846
4.2148892e-12
-0.00037902595
-0.00031342077
4.3235549e-12
-0.00033952333
-0.00033578668
4.2390899e-12
-0.00029585752
-0.0003481655
4.0951773e-12
-0.0002494298
-0.00034929201
3.9411918e-12
-0.00020197496
-0.0003384223
3.7960491e-12
-0.00015547283
-0.00031550697
3.4773543e-12
-0.00011201159
-0.00028131724
2.4749567e-12
-7.3617498e-05
-0.0002374904
3.0003852e-12
-4.2077004e-05
-0.00018647168
1.0221611e-11
-1.8784002e-05
-0.00013134284
4.2173265e-12
-4.6400093e-06
-7.5568792e-05
-3.7122893e-11
-2.2855462e-05
3.8822181e-11
-4.5902834e-06
3.944643e-05
-3.8048278e-11
-1.6552691e-05
0.00010658653
3.8126406e-11
-3.4333352e-05
0.00016239564
-3.5581899e-12
-5.6610889e-05
0.00020767518
-1.0755748e-11
-8.2277186e-05
0.00024341872
-4.5862138e-12
-0.00011041819
0.00027067134
-4.1785064e-12
-0.00014028892
0.00029043336
-4.9090259e-12
-0.00017128551
0.00030359475
-4.9508168e-12
-0.00020291689
0.00031089618
-4.8405585e-12
-0.00023477769
0.0003129134
-4.7319353e-12
-0.00026652358
0.0003100603
-4.5937424e-12
-0.00029784946
0.00030260601
-4.4322021e-12
-0.00032847061
0.00029070143
-4.2432094e-12
-0.00035810672
0.00027441082
-3.996735e-12
-0.00038646825
0.00025374553
-3.6689399e-12
-0.00041324486
0.00022869736
-3.2665897e-12
-0.00043809568
0.00019927074
-2.820809e-12
-0.00046064152
0.00016551328
-2.3584465e-12
-0.00048045932
0.0001275454
-1.8721292e-12
-0.00049707946
8.5589583e-05
-1.3142747e-12
-0.0005099872
4.000001e-05
-6.3888053e-13
-0.00051862939
-8.7072611e-06
1.388458e-13
-0.00052242834
-5.9824124e-05
9.3162972e-13
-0.00052080462
-0.0001124221
1.6612305e-12
-0.00051321089
-0.00016532897
2.3166101e-12
-0.00049917822
-0.00021711511
2.9555184e-12
-0.0004783755
-0.00026609658
3.6012315e-12
-0.0004506806
-0.00031036336
4.1586709e-12
-0.0004162589
-0.00034784245
4.4726184e-12
-0.00037564085
-0.00037640473
4.4782129e-12
-0.00032978532
-0.00039402105
4.2589356e-12
-0.00028011191
-0.00039896544
3.9767538e-12
-0.00022848373
-0.00039005048
3.7776214e-12
-0.00017712616
-0.00036686453
3.4279531e-12
-0.00012847765
-0.00032996575
2.2352913e-12
-8.4985583e-05
-0.00028098247
2.8151947e-12
-4.8878641e-05
-0.00022257864
1.1349659e-11
-2.1960825e-05
-0.00015826066
4.3679855e-12
-5.4696773e-06
-9.2059892e-05
-4.4243833e-11
-2.8325183e-05
4.5197742e-11
-4.6407195e-06
4.408719e-05
-3.862735e-11
-1.6747989e-05
0.00011869376
3.8431262e-11
-3.4756315e-05
0.00018040397
-3.7893124e-12
-5.7328466e-05
0.00023024735
-1.1099551e-11
-8.3339268e-05
0.00026942953
-4.8740965e-12
-0.00011185972
0.0002991918
-4.47483e-12
-0.00014213475
0.0003207084
-5.2280597e-12
-0.00017355703
0.00033501703
-5.2926587e-12
-0.00020563944
0.0003429786
-5.2121348e-12
-0.00023798811
0.00034526207
-5.128992e-12
-0.00027027702
0.00034234921
-4.992104e-12
-0.0003022252
0.00033455421
-4.8118725e-12
-0.00033357653
0.00032205277
-4.6125242e-12
-0.00036408207
0.00030491636
-4.3877056e-12
-0.00039348459
0.00028314805
-4.1061946e-12
-0.00042150501
0.00025671778
-3.7409642e-12
-0.00044783033
0.00022559605
-3.2927776e-12
-0.00047210323
0.00018978619
-2.7909991e-12
-0.00049391354
0.00014935571
-2.2688093e-12
-0.00051279208
0.00010446813
-1.7253051e-12
-0.00052820808
5.5416007e-05
-1.1131433e-12
-0.0005395714
2.6560533e-06
-3.79046e-13
-0.00054624184
-5.3153687e-05
4.4800632e-13
-0.00054754741
-0.00011111652
1.3043138e-12
-0.000542815
-0.00017006138
2.0958703e-12
-0.0005314158
-0.00022851431
2.7957539e-12
-0.00051282805
-0.00028468435
3.4408158e-12
-0.00048671738
-0.00033647404
4.0358683e-12
-0.00045303246
-0.00038152737
4.48391e-12
-0.00041210823
-0.00041732895
4.6453355e-12
-0.00036476274
-0.00044136654
4.4711523e-12
-0.00031236681
-0.00045136137
4.0937651e-12
-0.00025686081
-0.00044555649
3.7621371e-12
-0.00020069381
-0.00042303154
3.2851475e-12
-0.00014667113
-0.00038398842
1.8526031e-12
-9.7717405e-05
-0.0003299362
2.5402112e-12
-5.6590332e-05
-0.00026370572
1.2649794e-11
-2.5605327e-05
-0.00018924567
4.5608995e-12
-6.4348944e-06
-0.00011123027