/*--------------------------------*- C++ -*----------------------------------*\
  =========                 |
  \\      /  F ield         | OpenFOAM: The Open Source CFD Toolbox
   \\    /   O peration     | Website:  https://openfoam.org
    \\  /    A nd           | Version:  7
     \\/     M anipulation  |
\*---------------------------------------------------------------------------*/
FoamFile
{
    version     2.0;
    format      ascii;
    class       volVectorField;
    location    "50";
    object      U_0;
}
// * * * * * * * * * * * * * * * * * * * * * * * * * * * * * * * * * * * * * //

dimensions      [0 1 -1 0 0 0 0];

internalField   nonuniform List<vector> 
16000
(
(6.6079049e-05 -6.7298236e-05 -3.9103513e-07)
(0.00016280694 -5.6334962e-05 5.715035e-06)
(0.00014195018 4.7258621e-07 1.9215587e-05)
(-5.0603253e-05 6.1895753e-05 3.6638244e-05)
(-0.00040996146 0.0001156334 5.4746961e-05)
(-0.00090901855 0.0001577448 7.1575453e-05)
(-0.0015177066 0.00018850518 8.5787642e-05)
(-0.002206883 0.00020960937 9.6568359e-05)
(-0.0029505994 0.00022287705 0.00010345729)
(-0.0037264634 0.00022981127 0.00010620754)
(-0.0045150494 0.00023147708 0.00010469188)
(-0.0052990125 0.00022850379 9.8847274e-05)
(-0.0060621927 0.00022114726 8.8649024e-05)
(-0.006788864 0.00020938308 7.410768e-05)
(-0.0074632161 0.00019301392 5.5282012e-05)
(-0.0080691173 0.00017178084 3.2302274e-05)
(-0.0085901698 0.00014547169 5.3983846e-06)
(-0.0090100501 0.00011402162 -2.5071779e-05)
(-0.009313103 7.760108e-05 -5.8598371e-05)
(-0.0094851496 3.6687552e-05 -9.4503727e-05)
(-0.0095144496 -7.8856126e-06 -0.00013193815)
(-0.0093927305 -5.4923175e-05 -0.00016989036)
(-0.0091162238 -0.00010284342 -0.00020721389)
(-0.0086866017 -0.00014975051 -0.00024267095)
(-0.0081116921 -0.00019351342 -0.00027499193)
(-0.0074058972 -0.00023188609 -0.00030294813)
(-0.0065902227 -0.00026265861 -0.00032543309)
(-0.0056918546 -0.00028382457 -0.0003415466)
(-0.0047432582 -0.00029374829 -0.00035067408)
(-0.0037808149 -0.00029131525 -0.00035255406)
(-0.0028430639 -0.00027605011 -0.0003473267)
(-0.0019686574 -0.00024818754 -0.00033555914)
(-0.0011941498 -0.00020869171 -0.00031824673)
(-0.00055166566 -0.00015925715 -0.00029679369)
(-6.6498734e-05 -0.00010241013 -0.00027296895)
(0.00024492747 -4.1763007e-05 -0.00024883048)
(0.00037893637 1.7846727e-05 -0.000226761)
(0.00034976998 6.7082637e-05 -0.00020919693)
(0.00020617403 8.9872089e-05 -0.00019880922)
(5.7461501e-05 5.7418199e-05 -0.00018436619)
(5.8023767e-05 -0.0001669763 -6.6160542e-06)
(4.0922727e-05 -3.9917838e-05 -3.5939753e-07)
(-0.00029494208 0.00024858904 1.1274318e-05)
(-0.0010110014 0.00056213835 2.564046e-05)
(-0.0020992126 0.00084750538 4.062555e-05)
(-0.0035140778 0.001083126 5.4633787e-05)
(-0.0051946798 0.0012643047 6.65379e-05)
(-0.0070766263 0.0013940702 7.5585572e-05)
(-0.0090981493 0.0014779626 8.1294971e-05)
(-0.011202306 0.0015215286 8.3366445e-05)
(-0.013337036 0.0015292121 8.1616712e-05)
(-0.01545418 0.0015039764 7.5935832e-05)
(-0.017508152 0.001447358 6.6265451e-05)
(-0.019454719 0.0013597788 5.2594783e-05)
(-0.021250159 0.0012410031 3.4969923e-05)
(-0.022850978 0.0010906599 1.3512043e-05)
(-0.024214229 0.00090877619 -1.1559844e-05)
(-0.025298435 0.00069627629 -3.9905738e-05)
(-0.026065058 0.00045541439 -7.1044982e-05)
(-0.026480399 0.00019010692 -0.00010434344)
(-0.026517816 -9.3864276e-05 -0.00013901042)
(-0.026159989 -0.00038877377 -0.00017411443)
(-0.025401171 -0.00068508918 -0.00020859953)
(-0.02424917 -0.00097175929 -0.0002413331)
(-0.022726749 -0.0012366958 -0.00027115933)
(-0.020872348 -0.0014674298 -0.00029696677)
(-0.018739913 -0.0016519045 -0.00031776355)
(-0.016397721 -0.0017793467 -0.00033275435)
(-0.01392613 -0.0018411429 -0.00034141204)
(-0.011414316 -0.0018316374 -0.00034353758)
(-0.008956092 -0.0017487827 -0.00033930155)
(-0.0066449999 -0.0015945904 -0.00032926293)
(-0.0045689 -0.0013753845 -0.00031436226)
(-0.0028042334 -0.0011019568 -0.00029589076)
(-0.0014100248 -0.00078991957 -0.00027543892)
(-0.00042162524 -0.00046059788 -0.00025482021)
(0.00015578608 -0.0001425688 -0.00023594925)
(0.0003567344 0.00012232023 -0.00022084455)
(0.00027524886 0.00027115031 -0.00021160793)
(9.0110045e-05 0.00020510995 -0.00019542426)
(1.9276751e-06 -0.00014893195 -2.0401503e-05)
(-0.00025602649 0.00029705525 -1.1780715e-05)
(-0.0010504273 0.0010236514 1.1767934e-07)
(-0.0023878054 0.0017975585 1.3097879e-05)
(-0.0042394267 0.0025099167 2.6134201e-05)
(-0.0065455499 0.0031100662 3.808575e-05)
(-0.0092251153 0.0035809318 4.8125565e-05)
(-0.012189993 0.0039234375 5.5693017e-05)
(-0.015352985 0.0041461887 6.040645e-05)
(-0.018631054 0.0042595939 6.2009142e-05)
(-0.021946078 0.0042728177 6.0328165e-05)
(-0.025224257 0.0041924777 5.5245751e-05)
(-0.028394923 0.0040224717 4.6685611e-05)
(-0.031389392 0.0037645255 3.4612632e-05)
(-0.034140222 0.0034191716 1.9042928e-05)
(-0.036581145 0.002986941 6.0995651e-08)
(-0.038647754 0.0024696074 -2.2159367e-05)
(-0.040278948 0.0018713605 -4.7333723e-05)
(-0.041419058 0.0011998092 -7.5048512e-05)
(-0.042020507 0.00046673 -0.00010474878)
(-0.042046771 -0.00031150043 -0.00013573665)
(-0.041475477 -0.0011138116 -0.00016717703)
(-0.040301323 -0.001914875 -0.00019812287)
(-0.038538563 -0.0026858603 -0.00022755109)
(-0.036222759 -0.0033956777 -0.00025441335)
(-0.033411585 -0.0040126099 -0.00027769891)
(-0.03018443 -0.0045062523 -0.00029650497)
(-0.026640648 -0.004849638 -0.00031010896)
(-0.022896388 -0.0050213849 -0.00031803547)
(-0.019080027 -0.0050076827 -0.00032011088)
(-0.015326331 -0.0048039533 -0.00031649946)
(-0.011769567 -0.0044160743 -0.0003077165)
(-0.0085358322 -0.0038611667 -0.00029461595)
(-0.0057348858 -0.0031680991 -0.00027835234)
(-0.0034517158 -0.0023781031 -0.00026032072)
(-0.0017379871 -0.0015461814 -0.00024207628)
(-0.00060367736 -0.00074419526 -0.0002252275)
(-8.0221002e-06 -6.6374409e-05 -0.00021136623)
(0.00015540812 0.00036039202 -0.00020218255)
(7.3546753e-05 0.00035438398 -0.00018527003)
(-6.4679979e-05 5.0439558e-05 -3.8653328e-05)
(-0.00060836945 0.0010457856 -2.6112577e-05)
(-0.0019305236 0.002381761 -1.213123e-05)
(-0.0039464235 0.0037565386 1.161661e-06)
(-0.0065890035 0.0050153288 1.3749993e-05)
(-0.0097791929 0.0060800741 2.4874341e-05)
(-0.013417124 0.0069205295 3.3997475e-05)
(-0.017395531 0.0075341187 4.0784133e-05)
(-0.021607743 0.0079314001 4.4998394e-05)
(-0.025950707 0.008127043 4.6468403e-05)
(-0.030325865 0.0081347707 4.5063346e-05)
(-0.034638816 0.0079650038 4.067689e-05)
(-0.038798385 0.0076243768 3.322198e-05)
(-0.042715707 0.0071165096 2.2636355e-05)
(-0.046303775 0.0064435546 8.8963662e-06)
(-0.049477693 0.0056081449 -7.9634684e-06)
(-0.052155751 0.0046154497 -2.7827839e-05)
(-0.054261314 0.0034751128 -5.0477731e-05)
(-0.055725443 0.0022028908 -7.5570137e-05)
(-0.056490045 0.00082185297 -0.00010262377)
(-0.056511343 -0.00063696925 -0.00013101395)
(-0.055763445 -0.0021345972 -0.00015997564)
(-0.05424167 -0.0036248153 -0.00018862681)
(-0.05196532 -0.0050556195 -0.00021600054)
(-0.048979668 -0.0063713909 -0.00024109396)
(-0.045356813 -0.0075157176 -0.00026292952)
(-0.041195192 -0.0084347302 -0.00028062482)
(-0.036617534 -0.0090807546 -0.00029346515)
(-0.031767143 -0.0094160293 -0.00030097139)
(-0.026802523 -0.0094161982 -0.00030295491)
(-0.021890424 -0.0090732992 -0.00029955236)
(-0.017197572 -0.0083980403 -0.00029123542)
(-0.012881379 -0.0074213032 -0.00027879356)
(-0.0090800459 -0.0061950307 -0.00026329029)
(-0.0059024828 -0.0047929306 -0.00024599545)
(-0.0034185082 -0.0033118068 -0.00022829993)
(-0.0016495392 -0.0018745242 -0.00021162971)
(-0.00055979472 -0.00063471034 -0.00019737568)
(-5.0107377e-05 0.00021499488 -0.00018677272)
(3.8095652e-05 0.00041383388 -0.00016796719)
(-0.0001308636 0.00044557169 -5.8169537e-05)
(-0.00097094451 0.0022427056 -4.1102549e-05)
(-0.0028462037 0.0043592022 -2.4220135e-05)
(-0.0055648032 0.0064572289 -9.7877853e-06)
(-0.0090094315 0.0083534878 3.1308187e-06)
(-0.013075451 0.0099514615 1.4110901e-05)
(-0.017642271 0.011211756 2.2889477e-05)
(-0.022584673 0.01212959 2.9361731e-05)
(-0.027779627 0.01271753 3.3450498e-05)
(-0.033108108 0.012994151 3.5082954e-05)
(-0.03845549 0.012977369 3.41818e-05)
(-0.043711124 0.012681218 3.0658609e-05)
(-0.048767516 0.012115132 2.4416493e-05)
(-0.053519629 0.01128499 1.5361937e-05)
(-0.057864697 0.010195263 3.4236148e-06)
(-0.061702791 0.0088517433 -1.1423945e-05)
(-0.064938226 0.0072644412 -2.9134084e-05)
(-0.067481791 0.0054502929 -4.956158e-05)
(-0.069253701 0.0034354369 -7.243871e-05)
(-0.070187074 0.0012568453 -9.7356846e-05)
(-0.070231726 -0.0010368499 -0.00012375672)
(-0.069358016 -0.0033854755 -0.00015092994)
(-0.067560462 -0.0057183974 -0.00017803566)
(-0.064860798 -0.0079566878 -0.00020413228)
(-0.061310202 -0.010016303 -0.0002282252)
(-0.056990369 -0.011812188 -0.00024932842)
(-0.052013156 -0.013263139 -0.00026653611)
(-0.04651856 -0.014297147 -0.0002790981)
(-0.040670847 -0.014856895 -0.00028649166)
(-0.034652765 -0.014905001 -0.00028848053)
(-0.028657902 -0.014428606 -0.00028515229)
(-0.022881413 -0.013442961 -0.00027692775)
(-0.017509484 -0.011993822 -0.00026454015)
(-0.012708052 -0.010158722 -0.0002489857)
(-0.0086114581 -0.0080475085 -0.00023144828)
(-0.0053117544 -0.0058029606 -0.0002132098)
(-0.002848528 -0.0036024673 -0.00019558544)
(-0.0012000386 -0.0016605384 -0.00017983932)
(-0.00028880582 -0.0002337813 -0.00016669372)
(-2.4684974e-06 0.00035046398 -0.00014546265)
(-0.00019286413 0.0010313102 -7.6649771e-05)
(-0.0013239837 0.0038925428 -5.4744104e-05)
(-0.0037518523 0.0069680111 -3.4539326e-05)
(-0.0071732939 0.0099108309 -1.8445843e-05)
(-0.011414801 0.012527409 -4.6501182e-06)
(-0.016341477 0.014714513 6.7126789e-06)
(-0.021809614 0.01643051 1.5629591e-05)
(-0.027675874 0.017672025 2.2215216e-05)
(-0.033802393 0.018455254 2.6548007e-05)
(-0.040056845 0.018803218 2.8654688e-05)
(-0.046311835 0.018738082 2.8512518e-05)
(-0.052444058 0.018277411 2.6050561e-05)
(-0.058333353 0.017433439 2.1159249e-05)
(-0.06386206 0.016214498 1.3708397e-05)
(-0.068914991 0.014627826 3.5714721e-06)
(-0.073380202 0.012683111 -9.3456873e-06)
(-0.077150613 0.010396212 -2.5073679e-05)
(-0.080126453 0.007792638 -4.3548145e-05)
(-0.082218393 0.0049104454 -6.4580776e-05)
(-0.08335122 0.0018022822 -8.7835664e-05)
(-0.083467825 -0.0014636073 -0.00011281426)
(-0.082533265 -0.0048035779 -0.00013885267)
(-0.080538654 -0.0081200477 -0.00016513332)
(-0.077504586 -0.011304338 -0.00019071486)
(-0.073483762 -0.014240834 -0.00021457931)
(-0.068562535 -0.016812391 -0.00023569534)
(-0.062861009 -0.018906779 -0.00025309362)
(-0.056531404 -0.020423857 -0.00026594755)
(-0.049754415 -0.021283052 -0.0002736514)
(-0.042733396 -0.021430617 -0.00027588625)
(-0.035686352 -0.020846127 -0.00027266378)
(-0.028835915 -0.019547672 -0.00026433973)
(-0.022397713 -0.017595384 -0.00025159311)
(-0.016567764 -0.015093164 -0.00023537231)
(-0.011509861 -0.012188863 -0.00021681168)
(-0.0073438919 -0.009073679 -0.00019713686)
(-0.0041345369 -0.0059816737 -0.00017762353)
(-0.0018816035 -0.0031890332 -0.00015950721)
(-0.00053619336 -0.0010143199 -0.00014311383)
(-4.1244466e-05 0.00015894801 -0.00011902397)
(-0.00025011633 0.0017985733 -9.2136529e-05)
(-0.0016597713 0.0059841479 -6.5244601e-05)
(-0.0046244534 0.010198626 -4.15582e-05)
(-0.0087321658 0.014107031 -2.3503378e-05)
(-0.0137516 0.017522346 -8.465017e-06)
(-0.019515075 0.020347127 3.6739427e-06)
(-0.02585414 0.022545932 1.3125297e-05)
(-0.032607005 0.024122009 2.0205113e-05)
(-0.039621878 0.025098115 2.5135615e-05)
(-0.046755007 0.025503183 2.8035072e-05)
(-0.053868796 0.025364233 2.8929101e-05)
(-0.060830244 0.024702542 2.7758453e-05)
(-0.067509637 0.023533177 2.4394595e-05)
(-0.073779765 0.021866982 1.8663483e-05)
(-0.079515877 0.019714126 1.0375289e-05)
(-0.084596502 0.017088493 -6.4151873e-07)
(-0.088905129 0.014012236 -1.4503419e-05)
(-0.092332704 0.010520011 -3.1234576e-05)
(-0.094780823 0.0066624817 -5.073171e-05)
(-0.096165468 0.0025088058 -7.2734158e-05)
(-0.096421123 -0.0018521455 -9.6802617e-05)
(-0.095505033 -0.0063119932 -0.00012231108)
(-0.093401437 -0.010744589 -0.00014845301)
(-0.090125483 -0.015009423 -0.00017426854)
(-0.085726504 -0.018956672 -0.00019869042)
(-0.08029034 -0.022433829 -0.00022060929)
(-0.073940284 -0.025293751 -0.00023895411)
(-0.066836246 -0.027403769 -0.00025278055)
(-0.05917176 -0.028655373 -0.00026135821)
(-0.051168507 -0.028973823 -0.00026424639)
(-0.043068241 -0.028326933 -0.0002613477)
(-0.03512219 -0.02673229 -0.00025293)
(-0.02757834 -0.024262245 -0.00023961077)
(-0.020667353 -0.0210463 -0.00022230292)
(-0.014588353 -0.017270896 -0.00020212391)
(-0.0094958146 -0.013177228 -0.00018029408)
(-0.0054864848 -0.0090579348 -0.00015811795)
(-0.0025879537 -0.0052522176 -0.00013688639)
(-0.00078447172 -0.0021405324 -0.0001166033)
(-7.6874434e-05 -0.00016053784 -8.9400413e-05)
(-0.00030295625 0.0027365317 -0.00010296014)
(-0.0019754984 0.0084981104 -7.0987504e-05)
(-0.0054521401 0.014028588 -4.3839645e-05)
(-0.010217971 0.019021404 -2.3694973e-05)
(-0.015985179 0.023311111 -7.1996992e-06)
(-0.022552797 0.026818212 5.9892748e-06)
(-0.029727183 0.029522446 1.6286538e-05)
(-0.037328206 0.031439792 2.4189951e-05)
(-0.045190984 0.032603417 3.0049593e-05)
(-0.053161891 0.033050386 3.4062385e-05)
(-0.061095248 0.032813705 3.6291456e-05)
(-0.06885086 0.031918835 3.6679643e-05)
(-0.076292141 0.030383794 3.5070413e-05)
(-0.08328499 0.028221868 3.1236894e-05)
(-0.089697551 0.025446025 2.4916758e-05)
(-0.095400892 0.022074175 1.5851574e-05)
(-0.10027057 0.018134573 3.8292022e-06)
(-0.10418904 0.013670805 -1.12727e-05)
(-0.10704872 0.0087459306 -2.9444724e-05)
(-0.10875573 0.0034454465 -5.0508495e-05)
(-0.10923405 -0.0021211657 -7.4088057e-05)
(-0.10842999 -0.0078205213 -9.9595521e-05)
(-0.10631684 -0.01349715 -0.00012623017)
(-0.10289945 -0.018977285 -0.00015300216)
(-0.09821843 -0.024074606 -0.00017877582)
(-0.092353558 -0.028597967 -0.00020233605)
(-0.085426034 -0.03236099 -0.00022247391)
(-0.077598901 -0.035193199 -0.00023808426)
(-0.069075172 -0.03695216 -0.00024826539)
(-0.060093127 -0.037535848 -0.00025240876)
(-0.050918477 -0.03689426 -0.00025026648)
(-0.041833355 -0.035039225 -0.00024198612)
(-0.03312248 -0.032051391 -0.00022810555)
(-0.025057302 -0.02808365 -0.00020950394)
(-0.017879656 -0.023360676 -0.00018730687)
(-0.011786482 -0.018174996 -0.00016277665)
(-0.0069140651 -0.0128804 -0.00013731264)
(-0.0033238355 -0.0078822658 -0.000112341)
(-0.0010368635 -0.0036261494 -8.7633399e-05)
(-0.00011093601 -0.00060701912 -5.7195953e-05)
(-0.00035169339 0.0038338238 -0.00010765701)
(-0.0022696859 0.011410368 -7.0498685e-05)
(-0.0062274783 0.01842731 -4.0020746e-05)
(-0.011614747 0.024619968 -1.7770286e-05)
(-0.018090315 0.029857572 2.9366743e-07)
(-0.025421019 0.03408989 1.4723005e-05)
(-0.033388713 0.037320724 2.6117241e-05)
(-0.041795669 0.039585257 3.5137197e-05)
(-0.050464966 0.04093145 4.2243895e-05)
(-0.059234588 0.041407245 4.7698126e-05)
(-0.067952672 0.041053189 5.1587551e-05)
(-0.076474037 0.039899671 5.3845544e-05)
(-0.084657595 0.037967844 5.4276925e-05)
(-0.092364712 0.035273274 5.2591684e-05)
(-0.099458589 0.031831292 4.844453e-05)
(-0.10580462 0.027663185 4.1479137e-05)
(-0.11127169 0.022802465 3.1375955e-05)
(-0.11573423 0.017300631 1.7901886e-05)
(-0.11907517 0.011231987 9.5935497e-07)
(-0.12118942 0.0046971954 -1.9368362e-05)
(-0.12198809 -0.0021747112 -4.2779823e-05)
(-0.12140313 -0.0092260703 -6.8733648e-05)
(-0.11939248 -0.016272197 -9.6437763e-05)
(-0.11594549 -0.023105289 -0.00012486863)
(-0.11108823 -0.02950058 -0.00015280967)
(-0.10488841 -0.03522494 -0.00017891723)
(-0.097459312 -0.040047915 -0.00020181021)
(-0.088962027 -0.043754928 -0.00022017737)
(-0.079605254 -0.046162121 -0.00023289206)
(-0.069641893 -0.04713196 -0.00023912101)
(-0.059361872 -0.046588357 -0.00023841201)
(-0.049080956 -0.044529874 -0.00023074757)
(-0.039125749 -0.041039503 -0.00021655577)
(-0.029815738 -0.036289766 -0.00019667205)
(-0.021444143 -0.030542383 -0.00017224489)
(-0.014259513 -0.024142636 -0.0001446194)
(-0.0084461228 -0.017509198 -0.00011535352)
(-0.0041057535 -0.011119106 -8.608761e-05)
(-0.0013000783 -0.0054896959 -5.6428097e-05)
(-0.00014466064 -0.0011817412 -2.2478254e-05)
(-0.00039639258 0.0050786774 -0.00010490796)
(-0.0025408052 0.014693494 -6.2425563e-05)
(-0.0069442137 0.023357989 -2.8819397e-05)
(-0.012909247 0.030860822 -4.5178621e-06)
(-0.020045657 0.037117363 1.5161857e-05)
(-0.02809031 0.04211692 3.0969068e-05)
(-0.036802155 0.045895799 4.3673937e-05)
(-0.045967204 0.04851483 5.4083295e-05)
(-0.055397844 0.050041373 6.2753009e-05)
(-0.064925213 0.050537315 6.9993078e-05)
(-0.074393073 0.050052604 7.5902485e-05)
(-0.083653295 0.048623493 8.0393206e-05)
(-0.092562456 0.046274541 8.3220326e-05)
(-0.10097956 0.043023322 8.4019766e-05)
(-0.10876487 0.038886829 8.2351788e-05)
(-0.11577978 0.033888627 7.7749525e-05)
(-0.12188764 0.028066014 6.9771725e-05)
(-0.1269554 0.021476601 5.8058326e-05)
(-0.13085612 0.014203879 4.2386667e-05)
(-0.13347227 0.0063614903 2.2725606e-05)
(-0.13469977 -0.0019040843 -7.1713695e-07)
(-0.13445283 -0.010412655 -2.7466022e-05)
(-0.1326696 -0.01895138 -5.6749088e-05)
(-0.12931855 -0.027278408 -8.7514932e-05)
(-0.12440509 -0.035129037 -0.00011846139)
(-0.11797827 -0.042224888 -0.00014809877)
(-0.11013686 -0.048286163 -0.00017484187)
(-0.10103395 -0.053046901 -0.00019712612)
(-0.090879078 -0.056272755 -0.00021353912)
(-0.079936765 -0.057780341 -0.0002229531)
(-0.068520637 -0.057456694 -0.0002246407)
(-0.056982439 -0.05527692 -0.00021835672)
(-0.045695959 -0.051317903 -0.00020437301)
(-0.035036656 -0.045766103 -0.00018345724)
(-0.025358972 -0.03891806 -0.00015678377)
(-0.016973703 -0.03117332 -0.00012581263)
(-0.010123131 -0.02302049 -9.2320756e-05)
(-0.0049573037 -0.015016289 -5.8241971e-05)
(-0.0015839101 -0.0077601728 -2.306993e-05)
(-0.00018000393 -0.0018920002 1.4792732e-05)
(-0.00043687323 0.0064585717 -9.3510514e-05)
(-0.0027868523 0.01831691 -4.5529334e-05)
(-0.0075959004 0.028778335 -9.0449748e-06)
(-0.014088641 0.037694923 1.7208881e-05)
(-0.021830807 0.045038228 3.8512641e-05)
(-0.030532268 0.050846292 5.5804932e-05)
(-0.039931317 0.055195711 7.0014933e-05)
(-0.049799508 0.058179137 8.2080646e-05)
(-0.059940133 0.05988794 9.2638439e-05)
(-0.070179117 0.060401166 0.00010203429)
(-0.08035762 0.05978021 0.00011036641)
(-0.090326507 0.058068293 0.00011751432)
(-0.09994208 0.055293699 0.00012317284)
(-0.10906305 0.051475681 0.00012689311)
(-0.11754872 0.046631961 0.00012812903)
(-0.12525817 0.040786896 0.00012628917)
(-0.13205051 0.033979549 0.00012079366)
(-0.1377859 0.026271127 0.00011113527)
(-0.14232754 0.017751398 9.6942606e-05)
(-0.14554452 0.0085438147 7.8043509e-05)
(-0.14731572 -0.0011908564 5.4523892e-05)
(-0.14753462 -0.011252633 2.6761459e-05)
(-0.14611544 -0.021402754 -4.5133968e-06)
(-0.14300051 -0.031366235 -3.823979e-05)
(-0.13816826 -0.040837693 -7.3035981e-05)
(-0.13164197 -0.049490602 -0.00010725638)
(-0.12349841 -0.056990433 -0.00013908325)
(-0.11387531 -0.063011809 -0.00016665042)
(-0.10297655 -0.067259349 -0.000188192)
(-0.091073519 -0.069491291 -0.00020220253)
(-0.078501388 -0.069544195 -0.00020758881)
(-0.065648988 -0.067356342 -0.00020379132)
(-0.052942016 -0.062986917 -0.0001908556)
(-0.040820059 -0.056628017 -0.0001694378)
(-0.029709662 -0.048607168 -0.0001407261)
(-0.019996218 -0.03937941 -0.00010631709)
(-0.011992172 -0.029509505 -6.8262963e-05)
(-0.005906026 -0.019644351 -2.8871603e-05)
(-0.0018995943 -0.010479297 1.2437124e-05)
(-0.00021911025 -0.0027504914 5.4773134e-05)
(-0.00047276074 0.0079598554 -7.2373889e-05)
(-0.003005307 0.022246671 -1.8688261e-05)
(-0.0081754823 0.034640718 2.0388672e-05)
(-0.015139639 0.045066398 4.8469232e-05)
(-0.023425073 0.053560174 7.1384293e-05)
(-0.032718088 0.060216913 9.02549e-05)
(-0.042738978 0.065160525 0.00010615924)
(-0.053246922 0.068521237 0.00012015357)
(-0.06403788 0.070418887 0.00013294263)
(-0.074934239 0.070952926 0.00014489741)
(-0.085776311 0.070198365 0.00015610542)
(-0.096415826 0.068206618 0.00016640455)
(-0.10671081 0.06501009 0.00017542037)
(-0.11652174 0.060629353 0.00018260952)
(-0.12570895 0.055081785 0.000187308)
(-0.1341311 0.048390755 0.00018878509)
(-0.14164462 0.040594631 0.00018630335)
(-0.14810402 0.03175511 0.00017918432)
(-0.15336319 0.021964579 0.00016687853)
(-0.15727766 0.01135226 0.00014903685)
(-0.15970802 8.9012663e-05 0.00012557975)
(-0.16052492 -0.011609441 9.6768041e-05)
(-0.15961529 -0.023481692 6.3230772e-05)
(-0.15689042 -0.035221787 2.6010488e-05)
(-0.15229557 -0.046484025 -1.3450651e-05)
(-0.14582082 -0.056891697 -5.3353246e-05)
(-0.13751249 -0.06605054 -9.1625931e-05)
(-0.12748404 -0.073567428 -0.00012605372)
(-0.11592514 -0.079074257 -0.00015444372)
(-0.10310687 -0.082256243 -0.00017481591)
(-0.089381226 -0.082882846 -0.00018559874)
(-0.075173046 -0.080838455 -0.00018580298)
(-0.060963179 -0.076149012 -0.00017514604)
(-0.047263093 -0.069000362 -0.0001540997)
(-0.034583092 -0.059744613 -0.00012383186)
(-0.023397396 -0.048892508 -8.6083622e-05)
(-0.014103445 -0.037091898 -4.3234009e-05)
(-0.0069814337 -0.025092622 1.951434e-06)
(-0.0022590068 -0.013702948 5.009897e-05)
(-0.00026414614 -0.00377604 9.7653358e-05)
(-0.0005035512 0.0095674438 -4.0528381e-05)
(-0.0031932763 0.026445194 1.909003e-05)
(-0.0086754054 0.040892107 6.0445829e-05)
(-0.016048495 0.052912595 9.0211392e-05)
(-0.024807365 0.062615428 0.00011471531)
(-0.034618419 0.070159233 0.00013525391)
(-0.045186794 0.075721415 0.00015304521)
(-0.056261501 0.079475015 0.00016925242)
(-0.06763297 0.081572556 0.00018463893)
(-0.079121712 0.082137101 0.0001995926)
(-0.090568872 0.081259524 0.00021418327)
(-0.10182886 0.079000779 0.00022820078)
(-0.11276336 0.075397896 0.00024119496)
(-0.1232367 0.070472453 0.00025252015)
(-0.13311239 0.064240362 0.0002613841)
(-0.14225078 0.056722074 0.00026690243)
(-0.15050761 0.047952514 0.00026816013)
(-0.15773347 0.03799034 0.00026428064)
(-0.16377429 0.026926308 0.00025450185)
(-0.16847278 0.014890607 0.00023825653)
(-0.17167133 0.0020590317 0.00021525446)
(-0.17321661 -0.011342257 0.0001855717)
(-0.17296594 -0.025033765 0.00014969633)
(-0.17079572 -0.038682245 0.00010859925)
(-0.16661244 -0.051903617 6.3743233e-05)
(-0.16036551 -0.06427038 1.7061623e-05)
(-0.15206157 -0.07532461 -2.9113302e-05)
(-0.14177939 -0.084597523 -7.217731e-05)
(-0.12968349 -0.091636042 -0.00010943444)
(-0.11603436 -0.096035944 -0.00013832052)
(-0.10119274 -0.097479896 -0.00015664985)
(-0.08561508 -0.095777109 -0.00016285509)
(-0.069838048 -0.090899838 -0.00015618398)
(-0.054451424 -0.083010929 -0.00013681097)
(-0.040061186 -0.072476744 -0.00010581657)
(-0.027246487 -0.059861712 -6.5073267e-05)
(-0.016507704 -0.045903617 -1.7331869e-05)
(-0.0082137706 -0.031469868 3.4095801e-05)
(-0.0026743203 -0.017501843 8.9861659e-05)
(-0.00031729598 -0.0049938556 0.00014357688)
(-0.00052868096 0.011264649 2.8562096e-06)
(-0.0033477393 0.030871107 6.8650054e-05)
(-0.009088053 0.047474057 0.00011194806)
(-0.016801586 0.061164152 0.00014324706)
(-0.025956888 0.072128405 0.0001693134)
(-0.03620418 0.080594918 0.00019161041)
(-0.047236293 0.086799869 0.00021148713)
(-0.058794243 0.090963774 0.00023020398)
(-0.070664655 0.093275773 0.00024857572)
(-0.08266772 0.093885676 0.00026700217)
(-0.094646996 0.092902532 0.00028553198)
(-0.10646127 0.090398327 0.00030390423)
(-0.11797782 0.086415384 0.00032158978)
(-0.1290669 0.08097611 0.00033783583)
(-0.13959748 0.074093918 0.00035171383)
(-0.14943402 0.065784416 0.00036217279)
(-0.15843404 0.056076247 0.00036810048)
(-0.1664467 0.045021278 0.0003683941)
(-0.17331224 0.03270401 0.00036204099)
(-0.17886253 0.019250187 0.00034820796)
(-0.18292318 0.0048345359 0.00032633747)
(-0.18531738 -0.010312572 0.00029624917)
(-0.18587199 -0.025899808 0.00025822481)
(-0.18442619 -0.041572074 0.0002130927)
(-0.18084315 -0.056910852 0.00016227455)
(-0.17502466 -0.07143935 0.00010779429)
(-0.16692828 -0.084633989 5.2230563e-05)
(-0.15658627 -0.095943793 -1.398488e-06)
(-0.14412461 -0.10481883 -4.9823047e-05)
(-0.12977948 -0.11074796 -8.9776812e-05)
(-0.113908 -0.11330452 -0.00011830111)
(-0.096989368 -0.11219671 -0.00013306527)
(-0.079612825 -0.10731675 -0.00013265818)
(-0.062450283 -0.098781331 -0.00011679206)
(-0.046214682 -0.086954995 -8.6345558e-05)
(-0.031607747 -0.072449908 -4.3276442e-05)
(-0.019254153 -0.056099263 9.2606325e-06)
(-0.009633138 -0.038903927 6.7313291e-05)
(-0.0031578291 -0.021961654 0.00013154102)
(-0.00038078502 -0.006435593 0.00019256542)
(-0.00054759936 0.013033168 5.8447318e-05)
(-0.0034658583 0.035479376 0.00013066693)
(-0.0094063976 0.054322974 0.00017555202)
(-0.017386396 0.069745293 0.00020822593)
(-0.026854434 0.082015898 0.00023582491)
(-0.037448152 0.09143676 0.00025996958)
(-0.048850774 0.098307155 0.00028213142)
(-0.060797323 0.10289913 0.00030365983)
(-0.073072178 0.10544208 0.0003254165)
(-0.085496592 0.10611562 0.00034781173)
(-0.097917948 0.10504936 0.00037087352)
(-0.110201 0.102328 0.00039429154)
(-0.12222042 0.098000037 0.00041745873)
(-0.13385451 0.092088793 0.00043951426)
(-0.14498015 0.084604375 0.0004593887)
(-0.15546858 0.075555812 0.00047585434)
(-0.16518214 0.064962757 0.00048758405)
(-0.17397175 0.052866571 0.0004932215)
(-0.1816753 0.039340761 0.00049146451)
(-0.18811716 0.024500894 0.00048116196)
(-0.19310912 0.0085140099 0.0004614231)
(-0.19645328 -0.0083925669 0.00043173658)
(-0.19794729 -0.025923369 0.00039208785)
(-0.19739265 -0.043708871 0.00034307227)
(-0.1946065 -0.061302524 0.00028598353)
(-0.18943731 -0.078182569 0.00022286348)
(-0.18178454 -0.093760681 0.0001564923)
(-0.17162149 -0.10739972 9.0299781e-05)
(-0.15902009 -0.11844268 2.8182904e-05)
(-0.14417482 -0.12625405 -2.5773815e-05)
(-0.12742191 -0.13027328 -6.7662061e-05)
(-0.1092488 -0.1300771 -9.4164418e-05)
(-0.09028855 -0.12544458 -0.00010296657)
(-0.071294714 -0.11641496 -9.3088317e-05)
(-0.053096439 -0.10332684 -6.5028003e-05)
(-0.036536437 -0.086827872 -2.0732445e-05)
(-0.022388442 -0.067848918 3.6232147e-05)
(-0.011268763 -0.04754043 0.00010117618)
(-0.0037218431 -0.027182722 0.00017474707)
(-0.00045691143 -0.0081393819 0.00024444144)
(-0.00055984463 0.014853263 0.0001267252)
(-0.003545338 0.040221778 0.00020562504)
(-0.0096248091 0.061370782 0.0002517286)
(-0.017792804 0.078574533 0.00028561217)
(-0.027484127 0.092187649 0.00031470671)
(-0.038327159 0.10258896 0.00034077869)
(-0.049997928 0.11014418 0.00036541397)
(-0.062227202 0.11518037 0.0003900447)
(-0.074798409 0.11797049 0.0004155782)
(-0.087535022 0.11872695 0.0004424377)
(-0.10028947 0.11760247 0.00047063538)
(-0.11293389 0.11469633 0.00049981754)
(-0.12535206 0.11006442 0.00052930498)
(-0.13743243 0.10373139 0.00055813276)
(-0.14906227 0.095703604 0.00058509072)
(-0.16012262 0.085982171 0.00060876872)
(-0.17048407 0.074575419 0.00062761093)
(-0.18000324 0.061510789 0.00063998323)
(-0.18852004 0.046846254 0.00064425697)
(-0.19585597 0.03068147 0.00063891096)
(-0.20181373 0.013168867 0.00062265236)
(-0.20617876 -0.0054753455 0.00059455434)
(-0.2087231 -0.024960523 0.00055420443)
(-0.20921262 -0.044912161 0.00050185349)
(-0.20741816 -0.064864857 0.00043855236)
(-0.20313139 -0.084259654 0.00036625391)
(-0.19618606 -0.1024483 0.00028785641)
(-0.18648429 -0.11870744 0.00020715983)
(-0.17402711 -0.13226603 0.00012870853)
(-0.15894668 -0.14234853 5.7503148e-05)
(-0.14153584 -0.14823509 -1.4167012e-06)
(-0.12226912 -0.14933666 -4.3490521e-05)
(-0.1018073 -0.14527869 -6.5196704e-05)
(-0.080978726 -0.13598182 -6.4553673e-05)
(-0.060733906 -0.12172372 -4.1416724e-05)
(-0.042074316 -0.1031659 2.4465739e-06)
(-0.025950479 -0.081333242 6.3093297e-05)
(-0.013148242 -0.057540538 0.00013500637)
(-0.0043785975 -0.033279404 0.00021879862)
(-0.00054808329 -0.010149842 0.00029874128)
(-0.00056512267 0.016704137 0.00020796074)
(-0.003584822 0.045047816 0.00029380016)
(-0.0097399827 0.068546105 0.00034074624)
(-0.018014596 0.087565908 0.00037566557)
(-0.027835516 0.10254743 0.00040620254)
(-0.038824727 0.1139479 0.00043425674)
(-0.050653065 0.12220188 0.00046152133)
(-0.063048416 0.12769431 0.00048950765)
(-0.075794274 0.1307448 0.00051917111)
(-0.088717241 0.13160156 0.00055095484)
(-0.1016758 0.13044303 0.00058486479)
(-0.11455071 0.12738527 0.00062051486)
(-0.12723646 0.12249313 0.00065716461)
(-0.13963366 0.11579342 0.00069375422)
(-0.15164252 0.10728888 0.00072893854)
(-0.16315701 0.096971903 0.00076112504)
(-0.17405977 0.084837735 0.00078852122)
(-0.18421763 0.070897087 0.00080919661)
(-0.19347778 0.055188375 0.00082116411)
(-0.20166471 0.037789982 0.00082248435)
(-0.20857841 0.018832873 0.00081139523)
(-0.21399413 -0.001486288 0.00078646686)
(-0.21766446 -0.022891661 0.00074677955)
(-0.21932461 -0.045015033 0.00069211127)
(-0.21870194 -0.067384155 0.00062312862)
(-0.21553095 -0.089414512 0.00054155207)
(-0.20957472 -0.11040753 0.00045026876)
(-0.20065358 -0.12955895 0.00035335588)
(-0.1886808 -0.14598189 0.00025597468)
(-0.17370326 -0.15874899 0.00016409999)
(-0.15594313 -0.16695712 8.4067924e-05)
(-0.13583341 -0.1698146 2.1956052e-05)
(-0.11403768 -0.16674579 -1.7146461e-05)
(-0.091443309 -0.15750014 -2.9858466e-05)
(-0.069120481 -0.14224565 -1.5022888e-05)
(-0.048244339 -0.1216226 2.6040736e-05)
(-0.029971804 -0.096736576 8.9116326e-05)
(-0.015296621 -0.069077571 0.00016779181)
(-0.0051401275 -0.04037899 0.00026262316)
(-0.00065685508 -0.01251807 0.00035461354)
(-0.0005633883 0.018564536 0.00030219871)
(-0.0035843183 0.049906102 0.00039524829)
(-0.0097519589 0.075776054 0.00044266174)
(-0.018051163 0.096630836 0.00047843045)
(-0.027905938 0.11299475 0.00051032726)
(-0.038934098 0.12540358 0.00054037152)
(-0.050802753 0.13436221 0.00057035865)
(-0.063237894 0.14031587 0.0006018794)
(-0.076023792 0.14363374 0.00063594454)
(-0.088990873 0.14460281 0.00067302913)
(-0.10200451 0.1434301 0.00071314781)
(-0.11495519 0.14025091 0.00075589818)
(-0.12774955 0.13514103 0.00080049469)
(-0.14030233 0.12813082 0.00084579731)
(-0.15252914 0.11922005 0.00089033746)
(-0.16434008 0.10839232 0.00093234686)
(-0.17563382 0.095628834 0.00096979568)