/*--------------------------------*- C++ -*----------------------------------*\
  =========                 |
  \\      /  F ield         | OpenFOAM: The Open Source CFD Toolbox
   \\    /   O peration     | Website:  https://openfoam.org
    \\  /    A nd           | Version:  7
     \\/     M anipulation  |
\*---------------------------------------------------------------------------*/
FoamFile
{
    version     2.0;
    format      ascii;
    class       volVectorField;
    location    "11";
    object      U;
}
// * * * * * * * * * * * * * * * * * * * * * * * * * * * * * * * * * * * * * //

dimensions      [0 1 -1 0 0 0 0];

internalField   nonuniform List<vector> 
8800
(
(0.979875 -0.0915044 0)
(1.00234 -0.0588482 0)
(0.999675 -0.0321424 0)
(1.00005 -0.0163976 0)
(0.999999 -0.00864331 0)
(0.999937 -0.00492716 0)
(0.999966 -0.00292323 0)
(0.999964 -0.00168838 0)
(0.999952 -0.000837062 0)
(1.00005 -0.00015229 0)
(0.99995 0.000559463 0)
(0.999965 0.00130858 0)
(0.999978 0.00231218 0)
(0.999963 0.00385572 0)
(0.99995 0.00652393 0)
(1.00005 0.0118548 0)
(0.999949 0.0230405 0)
(0.999211 0.0432298 0)
(1.007 0.0790991 0)
(0.774968 0.0478462 0)
(0.359412 -0.0147261 0)
(1.04678 -0.0721269 0)
(1.08832 -0.0656955 0)
(1.04923 -0.050658 0)
(1.02564 -0.0374757 0)
(1.0128 -0.0256389 0)
(1.00639 -0.0163409 0)
(1.00339 -0.00984702 0)
(1.00199 -0.00533368 0)
(1.00139 -0.00197844 0)
(1.0013 0.000903851 0)
(1.00159 0.0039452 0)
(1.00253 0.00772286 0)
(1.00458 0.0130672 0)
(1.009 0.0208844 0)
(1.01823 0.0315137 0)
(1.03585 0.0442587 0)
(1.06712 0.0576296 0)
(1.09493 0.0703606 0)
(0.846278 0.0554159 0)
(0.219024 -0.00132228 0)
(1.07666 -0.0497384 0)
(1.1001 -0.0477281 0)
(1.06457 -0.0383469 0)
(1.03968 -0.0307146 0)
(1.02365 -0.0238114 0)
(1.01397 -0.0170818 0)
(1.00841 -0.0109521 0)
(1.00555 -0.00569276 0)
(1.00451 -0.000775743 0)
(1.00478 0.00404196 0)
(1.00661 0.00895381 0)
(1.01063 0.0145491 0)
(1.01798 0.0209028 0)
(1.03043 0.0276155 0)
(1.05068 0.0347003 0)
(1.08071 0.042868 0)
(1.1069 0.050822 0)
(0.945329 0.0405016 0)
(0.218742 0.00133378 0)
(0.179269 -0.00055096 0)
(1.02231 -0.0333706 0)
(1.10653 -0.0390456 0)
(1.0784 -0.0344572 0)
(1.05214 -0.0286747 0)
(1.03466 -0.02297 0)
(1.02283 -0.0174279 0)
(1.0151 -0.0118887 0)
(1.01053 -0.00631889 0)
(1.00848 -0.000756161 0)
(1.0091 0.00466535 0)
(1.01226 0.0100954 0)
(1.01821 0.01551 0)
(1.02779 0.0208941 0)
(1.04214 0.0263826 0)
(1.06353 0.0320641 0)
(1.09487 0.037619 0)
(1.09642 0.0390356 0)
(0.836254 0.0213441 0)
(0.178799 0.000560018 0)
(0.159626 -0.00041207 0)
(0.966419 -0.0224389 0)
(1.10503 -0.0304241 0)
(1.08665 -0.0281682 0)
(1.06004 -0.024638 0)
(1.04192 -0.0202531 0)
(1.02957 -0.0155344 0)
(1.02112 -0.010789 0)
(1.01572 -0.0058976 0)
(1.01314 -0.000560359 0)
(1.01388 0.00486187 0)
(1.01768 0.00980766 0)
(1.02441 0.0143997 0)
(1.03456 0.0189067 0)
(1.04947 0.0233646 0)
(1.07129 0.0270514 0)
(1.10105 0.0303072 0)
(1.07452 0.0292523 0)
(0.75655 0.0122291 0)
(0.158933 0.00042317 0)
(0.148855 -0.000191701 0)
(0.920583 -0.0123559 0)
(1.09925 -0.0205297 0)
(1.0934 -0.0201386 0)
(1.06584 -0.0175959 0)
(1.04658 -0.0152539 0)
(1.03339 -0.0126153 0)
(1.02444 -0.0092064 0)
(1.01886 -0.00509697 0)
(1.0163 -0.000214102 0)
(1.0169 0.00483176 0)
(1.02069 0.00907639 0)
(1.02766 0.0125948 0)
(1.03844 0.0152921 0)
(1.05421 0.0173679 0)
(1.07748 0.0197724 0)
(1.10336 0.0215338 0)
(1.04954 0.0185452 0)
(0.705382 0.00586936 0)
(0.147893 0.000207848 0)
(0.144905 -1.83842e-05 0)
(0.890408 -0.00563876 0)
(1.08901 -0.012682 0)
(1.09502 -0.0142618 0)
(1.06865 -0.0142139 0)
(1.05033 -0.0132212 0)
(1.03805 -0.0112196 0)
(1.02963 -0.0083718 0)
(1.02414 -0.00459594 0)
(1.02157 9.46645e-05 0)
(1.02207 0.00488505 0)
(1.02571 0.00891611 0)
(1.03228 0.0119076 0)
(1.04219 0.0140721 0)
(1.05705 0.0153366 0)
(1.07942 0.0153043 0)
(1.10095 0.0148439 0)
(1.02638 0.01036 0)
(0.679028 0.00231139 0)
(0.143616 3.70709e-05 0)
(0.144016 2.7398e-05 0)
(0.871245 -0.00273156 0)
(1.07541 -0.00910373 0)
(1.09184 -0.0130949 0)
(1.06837 -0.0141282 0)
(1.05139 -0.0138059 0)
(1.03971 -0.01211 0)
(1.03188 -0.00912375 0)
(1.02679 -0.00485829 0)
(1.02419 0.000402603 0)
(1.02459 0.00571982 0)
(1.02788 0.0101753 0)
(1.03385 0.0133824 0)
(1.04317 0.015284 0)
(1.05692 0.0157783 0)
(1.07779 0.0152721 0)
(1.093 0.0126285 0)
(1.00595 0.00653599 0)
(0.665568 0.00101989 0)
(0.142327 -6.9799e-06 0)
(0.143963 1.96174e-05 0)
(0.858046 -0.0015571 0)
(1.05898 -0.00709049 0)
(1.08399 -0.0127407 0)
(1.06731 -0.0152944 0)
(1.05337 -0.0152548 0)
(1.0437 -0.0132768 0)
(1.03685 -0.00978159 0)
(1.03211 -0.0050407 0)
(1.02945 0.000820442 0)
(1.0297 0.00676765 0)
(1.03259 0.0116456 0)
(1.03778 0.0151977 0)
(1.04549 0.0173498 0)
(1.05651 0.0176098 0)
(1.07355 0.0162982 0)
(1.07992 0.0115806 0)
(0.987242 0.00473485 0)
(0.657484 0.000683295 0)
(0.141771 5.23128e-06 0)
(0.144003 1.52863e-05 0)
(0.849365 -0.000723268 0)
(1.04327 -0.00460441 0)
(1.07329 -0.00999851 0)
(1.06474 -0.0133635 0)
(1.05444 -0.0137962 0)
(1.04687 -0.0121545 0)
(1.04093 -0.00887461 0)
(1.03652 -0.00429767 0)
(1.03394 0.00150729 0)
(1.03392 0.00739613 0)
(1.03633 0.0121006 0)
(1.04066 0.0153011 0)
(1.04674 0.0170136 0)
(1.05562 0.0171471 0)
(1.06576 0.0142738 0)
(1.0644 0.00898351 0)
(0.971918 0.00318749 0)
(0.652092 0.000489958 0)
(0.141194 1.45063e-05 0)
(0.144282 2.45614e-05 0)
(0.844944 -6.62752e-05 0)
(1.03244 -0.00210865 0)
(1.06425 -0.00567034 0)
(1.06093 -0.00833579 0)
(1.05506 -0.00922549 0)
(1.0496 -0.00839888 0)
(1.04477 -0.00602643 0)
(1.04083 -0.0023071 0)
(1.03837 0.00255257 0)
(1.03799 0.00741813 0)
(1.03979 0.0110316 0)
(1.04299 0.013172 0)
(1.0474 0.0137639 0)
(1.05257 0.0127793 0)
(1.05773 0.00998687 0)
(1.05166 0.00581314 0)
(0.961697 0.00196997 0)
(0.648712 0.000356175 0)
(0.140706 1.47766e-05 0)
(0.144792 2.8923e-05 0)
(0.843523 0.000352248 0)
(1.02679 -0.000431207 0)
(1.05855 -0.00224486 0)
(1.05808 -0.00384069 0)
(1.0548 -0.00452889 0)
(1.05119 -0.00410637 0)
(1.04752 -0.00250522 0)
(1.04416 0.000234332 0)
(1.04177 0.00384739 0)
(1.04097 0.00733817 0)
(1.04193 0.00966924 0)
(1.04389 0.0106033 0)
(1.04651 0.010295 0)
(1.04927 0.00887806 0)
(1.0514 0.00655152 0)
(1.04324 0.00370847 0)
(0.955592 0.00137855 0)
(0.646398 0.000337361 0)
(0.140238 1.84716e-05 0)
(0.14548 3.42224e-05 0)
(0.843816 0.000596077 0)
(1.02463 0.000580732 0)
(1.05585 -4.18206e-05 0)
(1.05657 -0.000666001 0)
(1.0547 -0.000865566 0)
(1.05227 -0.000431892 0)
(1.04947 0.000769091 0)
(1.04659 0.00276787 0)
(1.04414 0.00531587 0)
(1.04282 0.00756101 0)
(1.04295 0.00869653 0)
(1.04377 0.00876413 0)
(1.04501 0.00797015 0)
(1.04624 0.00651217 0)
(1.04684 0.00466724 0)
(1.03796 0.00274309 0)
(0.951696 0.00122543 0)
(0.644382 0.000388681 0)
(0.139682 2.49339e-05 0)
(0.146332 4.15228e-05 0)
(0.845289 0.000844208 0)
(1.02456 0.00126966 0)
(1.05523 0.00137311 0)
(1.05636 0.00147004 0)
(1.05512 0.00178783 0)
(1.05332 0.00246181 0)
(1.05102 0.00359474 0)
(1.04837 0.00519154 0)
(1.04574 0.00700928 0)
(1.04386 0.00834753 0)
(1.04304 0.00873033 0)
(1.04298 0.00814232 0)
(1.04325 0.00699243 0)
(1.04356 0.00554427 0)
(1.04343 0.00399136 0)
(1.03429 0.0025177 0)
(0.948653 0.00131914 0)
(0.64222 0.00048224 0)
(0.138967 3.3445e-05 0)
(0.147396 5.16856e-05 0)
(0.847601 0.00110337 0)
(1.02577 0.00187499 0)
(1.05596 0.00247222 0)
(1.05718 0.00310141 0)
(1.05616 0.00389178 0)
(1.05459 0.00490854 0)
(1.05245 0.00618285 0)
(1.04978 0.00765202 0)
(1.04678 0.00903793 0)
(1.04421 0.00971142 0)
(1.04262 0.00937681 0)
(1.04173 0.0084154 0)
(1.04128 0.007043 0)
(1.04103 0.00553091 0)
(1.04051 0.00405324 0)
(1.03122 0.00270931 0)
(0.945713 0.00155508 0)
(0.639659 0.000606263 0)
(0.138047 4.3468e-05 0)
(0.148741 6.48446e-05 0)
(0.850764 0.00141966 0)
(1.02797 0.00252099 0)
(1.05768 0.00352931 0)
(1.05886 0.00461155 0)
(1.05784 0.00585274 0)
(1.05624 0.00727125 0)
(1.05398 0.00882565 0)
(1.05102 0.0103662 0)
(1.04745 0.0115395 0)
(1.04408 0.0117451 0)
(1.04168 0.0109246 0)
(1.04008 0.00952217 0)
(1.03906 0.00786037 0)
(1.0384 0.00617081 0)
(1.03762 0.00459019 0)
(1.02816 0.00317349 0)
(0.942461 0.00190395 0)
(0.636513 0.000763494 0)
(0.136875 5.54969e-05 0)
(0.150452 8.28835e-05 0)
(0.85491 0.00182548 0)
(1.03109 0.0033009 0)
(1.0603 0.0047181 0)
(1.06135 0.0062433 0)
(1.06018 0.0079541 0)
(1.05835 0.00984185 0)
(1.05575 0.0117926 0)
(1.05225 0.013555 0)
(1.04788 0.0146684 0)
(1.04354 0.014513 0)
(1.04025 0.0132211 0)
(1.03796 0.0113626 0)
(1.03643 0.00932183 0)
(1.03541 0.00732936 0)
(1.03441 0.00550174 0)
(1.02473 0.00386791 0)
(0.9386 0.00236712 0)
(0.63259 0.000960805 0)
(0.135394 7.02707e-05 0)
(0.152652 0.000108121 0)
(0.860286 0.00235953 0)
(1.03525 0.00428978 0)
(1.06389 0.00614966 0)
(1.06474 0.00814796 0)
(1.06328 0.0103933 0)
(1.06104 0.0128543 0)
(1.05785 0.0153307 0)
(1.05356 0.0174463 0)
(1.04811 0.018607 0)
(1.0426 0.0181329 0)
(1.03831 0.0163358 0)
(1.03527 0.0139398 0)
(1.03321 0.0114083 0)
(1.03185 0.00898846 0)
(1.03061 0.00678552 0)
(1.02066 0.0048077 0)
(0.933855 0.00296502 0)
(0.627663 0.00120976 0)
(0.133531 8.91013e-05 0)
(0.15551 0.000143196 0)
(0.867269 0.00306717 0)
(1.04076 0.00555739 0)
(1.06874 0.00790902 0)
(1.06927 0.0104516 0)
(1.0674 0.0133777 0)
(1.06452 0.016578 0)
(1.06045 0.019709 0)
(1.05505 0.0223016 0)
(1.0482 0.0235803 0)
(1.04124 0.0227732 0)
(1.03576 0.0203834 0)
(1.03187 0.0173311 0)
(1.02922 0.014176 0)
(1.02747 0.0112006 0)
(1.02599 0.00849908 0)
(1.01567 0.00604955 0)
(0.927915 0.00373741 0)
(0.621441 0.00152802 0)
(0.131194 0.000114034 0)
(0.159258 0.000190405 0)
(0.876392 0.00400043 0)
(1.04806 0.0071895 0)
(1.07524 0.0101191 0)
(1.07528 0.0133379 0)
(1.07281 0.0171936 0)
(1.06904 0.0213575 0)
(1.06378 0.0252904 0)
(1.05688 0.0284571 0)
(1.0482 0.0298766 0)
(1.03941 0.028663 0)
(1.03251 0.0255421 0)
(1.0276 0.0216738 0)
(1.02425 0.0177362 0)
(1.02204 0.014066 0)
(1.02025 0.0107436 0)
(1.00946 0.00769058 0)
(0.920419 0.0047484 0)
(0.613556 0.00193859 0)
(0.128264 0.000147257 0)
(0.16424 0.000255051 0)
(0.888341 0.00525465 0)
(1.05761 0.00937016 0)
(1.08379 0.013046 0)
(1.08318 0.0171758 0)
(1.07977 0.0221756 0)
(1.07484 0.0275051 0)
(1.06808 0.0324936 0)
(1.05919 0.036321 0)
(1.04815 0.0378429 0)
(1.03709 0.0360799 0)
(1.02844 0.0320355 0)
(1.02229 0.0271446 0)
(1.01807 0.022225 0)
(1.01527 0.0176919 0)
(1.01307 0.0136212 0)
(1.0017 0.00983896 0)
(0.911003 0.00608214 0)
(0.603601 0.00246306 0)
(0.124606 0.000188528 0)
(0.170984 0.000354189 0)
(0.903982 0.00707237 0)
(1.06988 0.0124559 0)
(1.09479 0.017115 0)
(1.09333 0.0225285 0)
(1.08875 0.0289873 0)
(1.08226 0.0357233 0)
(1.07343 0.0418419 0)
(1.06197 0.0463347 0)
(1.04797 0.0478466 0)
(1.03413 0.0453177 0)
(1.02336 0.0401006 0)
(1.0157 0.0339355 0)
(1.0104 0.0277862 0)
(1.00685 0.0221659 0)
(1.00412 0.0171763 0)
(0.992027 0.0125337 0)
(0.899337 0.00778713 0)
(0.591243 0.00312206 0)
(0.120074 0.000233664 0)
(0.180305 0.000519476 0)
(0.924586 0.00989377 0)
(1.08577 0.0169385 0)
(1.10898 0.0228863 0)
(1.1062 0.0299606 0)
(1.09998 0.0382462 0)
(1.09126 0.0465656 0)
(1.07963 0.0538852 0)
(1.06492 0.0589942 0)
(1.04734 0.0602839 0)
(1.03021 0.0566949 0)
(1.01695 0.0500136 0)
(1.00749 0.0422978 0)
(1.00091 0.0346402 0)
(0.996425 0.0276486 0)
(0.993014 0.021487 0)
(0.980061 0.0157842 0)
(0.885018 0.00985025 0)
(0.576052 0.00393948 0)
(0.114471 0.000290747 0)
(0.193477 0.000797886 0)
(0.952119 0.014383 0)
(1.10675 0.0236622 0)
(1.12749 0.0314747 0)
(1.12257 0.0407456 0)
(1.11373 0.0511592 0)
(1.10178 0.0611781 0)
(1.08644 0.0696058 0)
(1.06766 0.0750152 0)
(1.04584 0.0756498 0)
(1.02494 0.0705907 0)
(1.00885 0.0621285 0)
(0.997313 0.0525989 0)
(0.989189 0.0431805 0)
(0.983571 0.0345457 0)
(0.979311 0.0269358 0)
(0.965263 0.0199264 0)
(0.867275 0.0125671 0)
(0.557273 0.00501641 0)
(0.107624 0.000354805 0)
(0.212782 0.00129443 0)
(0.989712 0.0217138 0)
(1.13468 0.03405 0)
(1.15167 0.0444757 0)
(1.14331 0.0565628 0)
(1.13051 0.06937 0)
(1.11402 0.0809857 0)
(1.09376 0.0900726 0)
(1.06997 0.0951381 0)
(1.0432 0.0944418 0)
(1.01808 0.087366 0)
(0.998833 0.0767759 0)
(0.98491 0.0652085 0)
(0.974926 0.0538518 0)
(0.967844 0.0433905 0)
(0.962398 0.0341071 0)
(0.94684 0.0255311 0)
(0.845045 0.0163003 0)
(0.534116 0.00651457 0)
(0.0992069 0.000443382 0)
(0.241843 0.00245429 0)
(1.04313 0.035489 0)
(1.17174 0.0519969 0)
(1.18254 0.0657233 0)
(1.16847 0.0807777 0)
(1.14979 0.0953683 0)
(1.12723 0.107601 0)
(1.10093 0.116251 0)
(1.07132 0.119938 0)
(1.03908 0.117004 0)
(1.00943 0.107272 0)
(0.986789 0.0942073 0)
(0.970215 0.0804474 0)
(0.958027 0.0670899 0)
(0.949043 0.0547655 0)
(0.941833 0.0437223 0)
(0.92399 0.0335144 0)
(0.816916 0.0218573 0)
(0.505461 0.00862913 0)
(0.0894292 0.000497446 0)
(0.282592 0.00969688 -1.13731e-20)
(1.11383 0.0639103 -8.43962e-21)
(1.21766 0.0837606 2.20195e-21)
(1.2176 0.101098 0)
(1.1954 0.117312 -9.42773e-36)
(1.1692 0.131628 2.9389e-22)
(1.13954 0.1427 -1.47054e-21)
(1.10656 0.149479 0)
(1.07067 0.15072 5.12352e-35)
(1.0325 0.144858 -3.80794e-21)
(0.99785 0.13216 0)
(0.971297 0.116591 -5.40321e-21)
(0.951484 0.10077 -1.65067e-20)
(0.936399 0.0856745 -7.98355e-21)
(0.924658 0.0719295 -2.51169e-21)
(0.914582 0.0597581 -1.52166e-21)
(0.893409 0.0484479 0)
(0.780222 0.0343152 1.09726e-21)
(0.469223 0.0169641 1.30078e-21)
(0.0798591 0.00252386 2.31461e-20)
(0.307191 0.0271382 -2.29572e-20)
(1.17037 0.111008 5.11728e-22)
(1.25939 0.133305 -1.19731e-21)
(1.24955 0.150104 0)
(1.21952 0.164584 1.47548e-21)
(1.18595 0.177049 4.65087e-22)
(1.14932 0.186212 -1.0229e-21)
(1.10967 0.190864 -6.78247e-21)
(1.06721 0.189697 0)
(1.0224 0.181195 1.61062e-20)
(0.981583 0.166061 1.77076e-20)
(0.949815 0.148678 5.66925e-21)
(0.925433 0.131591 2.23492e-20)
(0.906139 0.115593 3.29444e-20)
(0.890337 0.101205 0)
(0.876048 0.0888022 4.90983e-20)
(0.849733 0.0775655 7.21089e-20)
(0.739275 0.0610013 8.06324e-20)
(0.445396 0.0365559 -9.41639e-20)
(0.0773993 0.00669265 -1.71335e-21)
(0.299908 0.0437785 0)
(1.20254 0.171187 -7.00108e-21)
(1.2908 0.19569 0)
(1.27447 0.20893 1.05966e-20)
(1.23823 0.219806 0)
(1.19841 0.2287 4.49494e-21)
(1.15561 0.234542 1.29519e-21)
(1.10989 0.236075 -1.03596e-20)
(1.06143 0.231866 -1.534e-21)
(1.01061 0.22039 7.79917e-21)
(0.964322 0.202849 4.10507e-20)
(0.928041 0.184023 -2.57374e-22)
(0.899884 0.166377 -1.67427e-20)
(0.877293 0.150567 -3.24454e-20)
(0.858604 0.136926 3.94309e-20)
(0.841924 0.125627 -7.08645e-20)
(0.815605 0.11551 -9.73266e-21)
(0.717496 0.097212 0)
(0.449474 0.0621816 2.93211e-22)
(0.0853259 0.0123126 0)
(0.28814 0.0579851 -1.78366e-19)
(1.21642 0.234391 7.2875e-20)
(1.31054 0.262361 3.82773e-20)
(1.29058 0.272501 -7.10115e-21)
(1.25005 0.279239 1.0794e-20)
(1.20558 0.284003 -1.13774e-20)
(1.15788 0.285927 1.77407e-21)
(1.10716 0.283747 0)
(1.05365 0.276067 -3.09377e-20)
(0.997641 0.261331 0)
(0.946758 0.241283 -2.08642e-20)
(0.907059 0.221037 -2.92617e-20)
(0.876422 0.202919 -1.86726e-20)
(0.85207 0.187255 -2.40654e-20)
(0.832216 0.174111 0)
(0.81495 0.163547 0)
(0.790399 0.154115 -6.50058e-20)
(0.702419 0.134542 1.30043e-20)
(0.450112 0.0876293 -7.61252e-21)
(0.0887113 0.0176135 -8.92407e-21)
(0.277136 0.0706013 1.31868e-19)
(1.21858 0.296873 0)
(1.32074 0.329757 -1.07508e-19)
(1.29883 0.33713 -2.70464e-20)
(1.25547 0.339859 -2.00206e-20)
(1.2077 0.340551 0)
(1.15635 0.338495 -1.75569e-21)
(1.10162 0.332487 9.28109e-21)
(1.04393 0.321162 1.36011e-20)
(0.983723 0.302986 3.88603e-20)
(0.929222 0.280215 0)
(0.886949 0.25831 -6.34238e-20)
(0.854657 0.23933 -4.05001e-20)
(0.829289 0.223368 -2.43843e-20)
(0.808881 0.210279 1.59679e-19)
(0.791591 0.199916 1.95803e-20)
(0.768826 0.190464 9.37722e-20)
(0.6876 0.168545 -4.54626e-19)
(0.445227 0.110185 2.71081e-19)
(0.0889766 0.0222374 -3.27803e-19)
(0.267966 0.0819428 1.39252e-19)
(1.21344 0.356528 -2.56143e-20)
(1.32387 0.395766 1.89991e-20)
(1.30094 0.400765 5.1119e-20)
(1.25556 0.399795 3.08808e-20)
(1.20535 0.396717 1.61404e-21)
(1.15122 0.390883 1.40912e-21)
(1.0934 0.381162 7.08095e-21)
(1.03229 0.366186 -2.95881e-20)
(0.968454 0.344523 0)
(0.910844 0.318813 -2.72462e-20)
(0.866557 0.29485 -1.46914e-21)
(0.833147 0.274539 -4.52175e-20)
(0.807291 0.257772 0)
(0.786863 0.244187 -3.47652e-20)
(0.769967 0.233447 -8.44905e-20)
(0.748547 0.223419 2.33952e-19)
(0.671547 0.198674 -2.34079e-19)
(0.436613 0.129764 3.33363e-19)
(0.0875764 0.0261675 -3.47495e-19)
(0.2607 0.0924309 -4.56365e-22)
(1.20387 0.412839 3.13993e-20)
(1.32173 0.459242 9.12714e-20)
(1.29832 0.46235 -3.14983e-20)
(1.25157 0.458079 1.77333e-20)
(1.19958 0.451565 0)
(1.14326 0.442255 7.40403e-21)
(1.08287 0.42903 -5.6252e-21)
(1.01888 0.410568 -1.35521e-20)
(0.95201 0.385384 0)
(0.89185 0.35654 -2.65268e-20)
(0.845965 0.330179 -3.7154e-20)
(0.811754 0.308128 4.93589e-20)
(0.785676 0.290104 -3.1568e-20)
(0.765398 0.275584 -1.52799e-19)
(0.748953 0.264054 9.39137e-20)
(0.728529 0.253056 2.97753e-20)
(0.654263 0.225305 0)
(0.425772 0.146737 -3.23046e-19)
(0.0852299 0.0294609 -1.18728e-20)
(0.255088 0.102421 2.28019e-20)
(1.19183 0.465705 -3.61291e-20)
(1.31569 0.519545 -4.9838e-20)
(1.29219 0.521239 -9.67566e-20)
(1.24448 0.514114 8.66727e-20)
(1.19117 0.504561 -4.52507e-20)
(1.13315 0.492108 -1.57487e-20)
(1.0707 0.475657 -8.03374e-21)
(1.00435 0.45392 1.3049e-20)
(0.934816 0.425283 -9.40644e-20)
(0.872263 0.393178 -3.25267e-20)
(0.824891 0.364141 0)
(0.789997 0.33999 5.39329e-20)
(0.76379 0.320328 6.66452e-20)
(0.743741 0.304524 8.20161e-20)
(0.727757 0.2919 -1.02437e-19)
(0.708117 0.279648 -3.08686e-20)
(0.635939 0.248962 3.67394e-20)
(0.413388 0.161428 0)
(0.0822888 0.0321676 -2.58852e-20)
(0.250781 0.112037 -2.64368e-19)
(1.17857 0.515302 1.65932e-19)
(1.30683 0.576572 5.4727e-20)
(1.28343 0.577153 -7.40328e-20)
(1.23507 0.567561 5.20971e-20)
(1.18082 0.555315 -3.79711e-21)
(1.12151 0.540053 1.54095e-20)
(1.05736 0.520722 -3.3623e-21)
(0.988882 0.495962 -2.39907e-20)
(0.916902 0.464064 1.31628e-22)
(0.852058 0.428635 -9.68882e-20)
(0.803231 0.396704 9.44106e-20)
(0.767667 0.37013 -6.04262e-20)
(0.741354 0.348497 7.51362e-20)
(0.72155 0.33111 0)
(0.706028 0.317165 -5.56738e-20)
(0.687064 0.303499 -1.34302e-21)
(0.616637 0.269675 -1.60687e-19)
(0.399653 0.173937 -2.3775e-20)
(0.0787708 0.0342239 0)
(0.247511 0.121357 0)
(1.16482 0.561877 1.79197e-19)
(1.29599 0.630287 1.27934e-19)
(1.27282 0.629967 8.36842e-20)
(1.22401 0.618222 5.00562e-20)
(1.16905 0.603608 0)
(1.10873 0.585874 1.57158e-20)
(1.04316 0.563994 -1.25672e-21)
(0.972783 0.536565 5.05136e-20)
(0.898502 0.50166 -1.14852e-20)
(0.831385 0.462957 -7.09918e-20)
(0.780983 0.427975 4.72836e-20)
(0.744651 0.398689 -1.96508e-21)
(0.71816 0.374749 7.92608e-20)
(0.698578 0.355486 5.1737e-20)
(0.68352 0.339988 -1.21333e-19)
(0.665149 0.324682 1.47063e-19)
(0.596149 0.287505 4.41205e-20)
(0.384541 0.184118 1.82612e-19)
(0.0746465 0.0355712 -4.88697e-19)
(0.245107 0.130494 -6.76379e-20)
(1.15113 0.605595 1.03541e-19)
(1.28378 0.680676 -7.99808e-20)
(1.26088 0.679675 -9.72991e-20)
(1.21179 0.666033 0)
(1.15635 0.64933 4.04051e-20)
(1.09524 0.629455 -4.53082e-20)
(1.02852 0.605377 2.1e-21)
(0.956442 0.57564 0)
(0.87981 0.538054 -1.77319e-19)
(0.81035 0.496254 1.93425e-19)
(0.7582 0.458119 0)
(0.720886 0.425878 7.17134e-20)
(0.694085 0.399306 -2.00955e-21)
(0.674681 0.377817 -1.64235e-19)
(0.660068 0.360494 6.45371e-20)
(0.642251 0.343354 0)
(0.574463 0.302534 2.39219e-19)
(0.367924 0.191979 0)
(0.0699817 0.0362134 -2.33334e-19)
(0.243338 0.139459 7.52855e-20)
(1.13777 0.646657 1.1842e-19)
(1.27073 0.727811 -8.36875e-20)
(1.2481 0.726293 0)
(1.19887 0.710996 6.93989e-20)
(1.14312 0.692484 0)
(1.08146 0.670763 6.04978e-20)
(1.01375 0.644825 6.11223e-21)
(0.940108 0.613134 5.28997e-21)
(0.861112 0.573264 -8.74546e-20)
(0.789127 0.528616 1.87645e-20)
(0.734966 0.48737 0)
(0.696342 0.451967 -1.52913e-19)
(0.668973 0.422435 2.09069e-21)
(0.649615 0.398353 0)
(0.635454 0.37889 2.44073e-21)
(0.618161 0.359553 2.17357e-19)
(0.551381 0.314801 -2.10252e-19)
(0.349768 0.19739 6.2063e-20)
(0.0646977 0.0361297 0)
(0.241815 0.148101 0)
(1.12479 0.68526 1.32256e-19)
(1.25732 0.77178 9.82356e-20)
(1.2348 0.769909 -2.10183e-21)
(1.18556 0.753141 4.35558e-20)
(1.12966 0.733079 9.57849e-20)
(1.0676 0.709794 -1.94946e-20)
(0.999096 0.682324 1.72979e-21)
(0.924043 0.649044 3.05819e-20)
(0.842769 0.607272 -1.35881e-19)
(0.767968 0.560124 -3.15567e-21)
(0.711385 0.515919 -6.25233e-20)
(0.671002 0.477217 2.5116e-19)
(0.642638 0.444446 -2.5354e-21)
(0.623106 0.417341 -1.3034e-19)
(0.609523 0.395414 -2.37978e-19)
(0.592811 0.373457 0)
(0.526721 0.324351 0)
(0.329868 0.20026 6.86177e-20)
(0.0588159 0.0351847 -4.00641e-20)
(0.240757 0.156503 9.33198e-20)
(1.1123 0.721344 -2.88663e-19)
(1.24371 0.81275 -1.05043e-19)
(1.22127 0.810616 0)
(1.17213 0.792556 -1.45717e-21)
(1.11621 0.771168 1.15402e-19)
(1.0539 0.746574 -6.60905e-20)
(0.98477 0.717865 -2.70739e-20)
(0.908461 0.683383 3.15511e-20)
(0.824967 0.640156 -1.04381e-19)
(0.747066 0.590976 -1.63523e-19)
(0.687582 0.543945 1.66823e-19)
(0.644999 0.501816 0)
(0.615167 0.465533 -5.88645e-20)
(0.595414 0.435105 -1.43522e-19)
(0.58218 0.410108 -1.73187e-19)
(0.565857 0.385129 -2.10623e-19)
(0.499969 0.33105 6.32524e-20)
(0.307924 0.200258 -3.71194e-20)
(0.0523364 0.0333399 5.26997e-22)
(0.239662 0.164537 0)
(1.10054 0.754961 0)
(1.23009 0.850916 2.32393e-21)
(1.20772 0.848539 0)
(1.15879 0.82936 -1.63865e-19)
(1.10296 0.80684 -1.02163e-19)
(1.04054 0.781147 0)
(0.970927 0.751467 -7.01802e-21)
(0.893501 0.716147 3.94366e-20)
(0.807808 0.671978 -2.39364e-19)
(0.726638 0.621253 0)
(0.663764 0.571626 -1.0699e-19)
(0.618628 0.526086 -3.09488e-21)
(0.587058 0.486061 -2.56052e-21)
(0.566622 0.451935 1.53906e-19)
(0.553171 0.423301 -3.37686e-22)
(0.536687 0.394612 -4.59506e-19)
(0.470723 0.334737 1.38682e-19)
(0.283685 0.197072 4.12585e-20)
(0.0452028 0.0305069 0)
(0.238528 0.172179 -3.42288e-19)
(1.08924 0.786519 -1.76855e-19)
(1.21657 0.886457 -2.62707e-19)
(1.19434 0.883815 3.65478e-19)
(1.14566 0.86365 -3.07302e-19)
(1.09006 0.840169 0)
(1.02765 0.813574 -5.68883e-20)
(0.957704 0.783163 1.31518e-20)
(0.879287 0.747344 3.65821e-21)
(0.791503 0.702719 1.88934e-20)
(0.706958 0.650928 2.0473e-19)
(0.640253 0.59922 -3.65713e-20)
(0.591924 0.550631 -1.55707e-19)
(0.558067 0.506724 -7.04218e-20)
(0.535888 0.468108 8.60033e-20)
(0.522018 0.435395 -2.83408e-22)
(0.50529 0.402161 1.26907e-19)
(0.43865 0.335106 -3.01832e-19)
(0.256498 0.190193 3.61218e-19)
(0.0374162 0.0267056 5.21996e-20)
(0.237208 0.179372 1.25483e-19)
(1.07832 0.816065 -9.65025e-20)
(1.20329 0.919486 5.61941e-21)
(1.18121 0.916599 2.06284e-19)
(1.13287 0.895557 7.17755e-20)
(1.07756 0.871242 2.04259e-19)
(1.01533 0.843922 -2.52309e-20)
(0.945199 0.813016 6.36375e-20)
(0.865973 0.776985 -2.06964e-20)
(0.776217 0.732356 -1.30007e-19)
(0.688272 0.680143 0)
(0.617226 0.627053 -1.64788e-19)
(0.564498 0.575874 2.26422e-19)
(0.527075 0.527678 0)
(0.502963 0.484253 -1.8445e-19)
(0.488118 0.44596 1.14893e-19)
(0.471173 0.407424 -1.37682e-19)
(0.403414 0.332105 -1.66847e-19)
(0.226141 0.179348 -2.95698e-19)
(0.0289841 0.0218708 -2.30843e-19)
(0.235973 0.186245 -1.37682e-19)
(1.06761 0.84367 1.03215e-19)
(1.19032 0.950153 2.44498e-19)
(1.16841 0.94701 2.83413e-19)
(1.12048 0.925192 -1.503e-19)
(1.06556 0.900157 1.41013e-19)
(1.00362 0.872253 -7.86302e-20)
(0.93348 0.841074 7.94175e-20)
(0.853635 0.805117 -5.85175e-21)
(0.762036 0.760903 1.23601e-19)
(0.670579 0.708994 4.34321e-19)
(0.594939 0.655124 0)
(0.536796 0.601723 0)
(0.494435 0.54948 -8.15228e-20)
(0.467384 0.500877 0)
(0.450848 0.45631 2.5105e-19)
(0.433468 0.409693 3.02693e-19)
(0.3647 0.324172 0)
(0.193445 0.164121 0)
(0.0204512 0.0162921 2.53376e-19)
(0.234486 0.192497 1.51565e-19)
(1.05717 0.869398 1.23473e-19)
(1.17772 0.978605 1.75546e-19)
(1.15599 0.975205 -2.52634e-19)
(1.10853 0.952675 -1.67453e-19)
(1.05409 0.927005 -1.86935e-19)
(0.992562 0.898639 1.16765e-19)
(0.922576 0.867344 5.92919e-22)
(0.842313 0.831728 -4.68992e-21)
(0.749039 0.788331 -6.0849e-21)
(0.654072 0.737268 2.19896e-19)
(0.573702 0.683459 0)
(0.509885 0.628412 2.28657e-19)
(0.461084 0.572792 1.71703e-19)
(0.429392 0.518983 4.4065e-19)
(0.409456 0.466023 1.35435e-19)
(0.390461 0.408572 -1.68877e-19)
(0.322126 0.309004 -1.00011e-19)
(0.161027 0.143527 0)
(0.0135087 0.0107781 2.77586e-19)
(0.233197 0.198569 -3.32685e-19)
(1.04699 0.893563 0)
(1.16549 1.00497 1.957e-19)
(1.14399 1.00129 -2.0672e-19)
(1.09707 0.978117 1.89289e-19)
(1.04318 0.951886 2.72802e-19)
(0.982168 0.923145 -2.70838e-19)
(0.912475 0.891871 2.56243e-21)
(0.831968 0.856804 0)
(0.737295 0.81457 -1.14351e-19)
(0.639046 0.764905 -4.55101e-19)
(0.553805 0.711703 2.23846e-20)
(0.484155 0.656207 3.10183e-19)
(0.428073 0.598801 0)
(0.388773 0.540748 2.96509e-19)
(0.362248 0.478469 0)
(0.337634 0.403201 0)
(0.272914 0.279329 -1.12434e-19)
(0.138395 0.109 0)
(0.0264555 0.0131092 7.53501e-20)
(0.231621 0.203972 -3.62893e-19)
(1.03705 0.916088 0)
(1.15361 1.02947 3.16612e-19)
(1.13236 1.0255 0)
(1.08603 1.00176 -1.02588e-19)
(1.03275 0.975067 0)
(0.972352 0.946061 -2.02055e-20)
(0.903061 0.914968 -1.4002e-20)
(0.822474 0.880665 -4.61664e-22)
(0.726618 0.839972 -1.11568e-19)
(0.625368 0.792323 1.18735e-20)
(0.535272 0.740711 1.85103e-19)
(0.459693 0.685419 2.99954e-19)
(0.39573 0.627418 4.29458e-20)
(0.345894 0.567563 2.30832e-19)
(0.307823 0.497205 0)
(0.264991 0.397905 3.69485e-19)
(0.197633 0.224164 -2.22617e-19)
(0.0789071 0.0918488 2.57928e-19)
(-0.0641003 0.371972 -3.0376e-19)
(0.23007 0.209088 2.95418e-19)
(1.02717 0.937081 4.65859e-19)
(1.14199 1.05241 0)
(1.12098 1.04823 4.35465e-21)
(1.07526 1.02412 2.78322e-19)
(1.02257 0.997139 -5.27199e-19)
(0.962875 0.968074 -1.19431e-19)
(0.894064 0.937458 0)
(0.813524 0.904316 -2.54829e-20)
(0.716611 0.865785 -3.23916e-21)
(0.612382 0.821036 0)
(0.517292 0.772201 0)
(0.434992 0.718231 2.62286e-19)
(0.362678 0.661497 -1.33627e-19)
(0.299548 0.604833 -2.28387e-19)
(0.244538 0.531568 0)
(0.155562 0.402786 1.86935e-19)
(0.0469467 0.47143 -2.24343e-19)
(0.0508058 1.68881 -1.1798e-19)
(0.0902235 2.71067 -1.5101e-19)
(0.228418 0.213302 -2.16015e-19)
(1.01763 0.956717 -5.86622e-19)
(1.1306 1.07381 1.81885e-19)
(1.10984 1.06934 1.7475e-19)
(1.06478 1.045 0)
(1.01267 1.01785 -3.77164e-19)
(0.953867 0.988911 -1.99927e-19)
(0.885593 0.958947 9.35937e-21)
(0.805282 0.927266 -3.39852e-21)
(0.707562 0.89136 8.35255e-20)
(0.600512 0.850229 2.01553e-19)
(0.500724 0.805306 1.89262e-19)
(0.41184 0.753849 2.5623e-19)
(0.33158 0.698161 -3.03166e-19)
(0.256783 0.651274 -3.34988e-19)
(0.182044 0.585481 0)
(0.0902354 0.820921 0)
(0.148085 2.39188 9.72475e-20)
(0.156378 3.13936 0)
(0.156691 3.36312 2.24465e-19)
(0.229095 0.217574 0)
(1.00869 0.975004 0)
(1.11924 1.09354 0)
(1.09872 1.08864 4.85535e-20)
(1.0543 1.06422 2.48163e-19)
(1.00283 1.03711 -2.87501e-19)
(0.945208 1.00848 -1.43156e-19)
(0.877595 0.979335 1.06472e-20)
(0.797705 0.949351 -6.38665e-20)
(0.699483 0.916534 -1.01329e-20)
(0.589966 0.87978 3.624e-19)
(0.4856 0.839713 -2.21731e-20)
(0.390443 0.792883 2.8634e-20)
(0.303167 0.73575 4.29727e-20)
(0.225578 0.702839 1.30453e-21)
(0.150975 0.92585 1.57995e-21)
(0.195998 2.49582 -4.62991e-19)
(0.227452 3.25513 -1.76269e-19)
(0.207868 3.42191 8.14801e-20)
(0.186308 3.45183 -8.30704e-20)
(0.144316 0.174239 1.22834e-19)
(0.992216 0.995021 0)
(1.10783 1.11183 -3.5577e-19)
(1.08841 1.10684 -4.52717e-19)
(1.04457 1.08254 5.1579e-19)
(0.993897 1.05552 3.05166e-19)
(0.936809 1.02688 1.67033e-19)
(0.870145 0.998737 -1.81939e-19)
(0.790951 0.970735 6.88279e-20)
(0.69265 0.941444 0)
(0.581308 0.909467 1.54664e-19)
(0.473239 0.874709 -1.40164e-19)
(0.371853 0.835044 0)
(0.278525 0.779451 3.75315e-20)
(0.217636 0.866944 8.91754e-20)
(0.19263 2.08709 -1.10521e-19)
(0.301274 3.28488 1.22483e-19)
(0.279714 3.44544 5.74174e-20)
(0.235066 3.47708 6.5704e-20)
(0.204345 3.49066 7.52136e-20)
(0.268957 0.250254 -2.27649e-19)
(0.97175 0.996857 0)
(1.08647 1.12947 3.61737e-19)
(1.07371 1.13322 4.65841e-19)
(1.02916 1.10862 -5.29755e-19)
(0.979304 1.082 -3.2371e-19)
(0.923383 1.05479 -2.57417e-19)
(0.858057 1.02826 -1.35652e-20)
(0.779804 1.00367 -1.00232e-19)
(0.680939 0.980522 3.62762e-21)
(0.566465 0.958088 5.89148e-21)
(0.451474 0.933931 1.07372e-19)
(0.339823 0.909137 2.32486e-20)
(0.256792 0.986699 -3.29232e-20)
(0.301346 2.01538 -7.67101e-20)
(0.388034 3.27439 4.79489e-20)
(0.380978 3.48719 -3.74254e-20)
(0.334213 3.51988 -2.04391e-20)
(0.286226 3.55602 2.08824e-20)
(0.217725 3.54656 9.35753e-22)
(0.2545 0.244889 0)
(0.965837 1.01405 9.52399e-20)
(1.07724 1.1482 -7.16562e-20)
(1.06306 1.1514 -5.1874e-20)
(1.01938 1.12675 -3.47618e-19)
(0.970389 1.10018 3.16016e-19)
(0.915242 1.07311 1.73229e-19)
(0.851215 1.04767 -1.42446e-20)
(0.774243 1.02536 1.24514e-19)
(0.676067 1.00651 -1.39006e-20)
(0.560949 0.990801 -1.95499e-19)
(0.444079 0.975179 1.52107e-20)
(0.333282 0.970534 -2.0022e-20)
(0.305324 1.33112 -2.69737e-20)
(0.425314 2.86639 1.94334e-20)
(0.480756 3.46667 4.3551e-22)
(0.426201 3.56499 -7.48204e-20)
(0.381449 3.59623 -8.13308e-20)
(0.311543 3.62956 1.06382e-19)
(0.235756 3.6209 4.64419e-20)
(0.236144 0.240852 2.33812e-19)
(0.957677 1.03346 6.40026e-19)
(1.06697 1.16808 -2.04228e-19)
(1.05179 1.17053 -1.96777e-19)
(1.00899 1.14554 0)
(0.961027 1.11881 4.6142e-19)
(0.907067 1.09192 2.63923e-19)
(0.844764 1.06756 -1.4991e-20)
(0.769579 1.04766 1.29114e-20)
(0.672802 1.03344 6.25883e-20)
(0.557706 1.02476 -5.77013e-20)
(0.440526 1.01847 -1.02074e-19)
(0.34235 1.0588 -1.30733e-19)
(0.393944 1.84248 1.42383e-19)
(0.539267 3.29274 5.1999e-20)
(0.553861 3.55305 0)
(0.484473 3.61948 0)
(0.433891 3.6848 9.98017e-20)
(0.34681 3.75413 0)
(0.252344 3.72547 2.09477e-19)
(0.222941 0.239748 -3.4038e-19)
(0.94769 1.05365 -5.31576e-19)
(1.05485 1.18848 0)
(1.03915 1.18991 4.6699e-21)
(0.997337 1.16431 -3.37127e-19)
(0.950612 1.13723 6.84436e-19)
(0.898285 1.11051 1.7728e-19)
(0.83807 1.08708 -1.85369e-20)
(0.765127 1.06957 1.39706e-19)
(0.670421 1.06025 -7.13638e-21)
(0.555961 1.05898 0)
(0.439647 1.06242 0)
(0.371194 1.20251 -9.50574e-20)
(0.508805 2.41353 2.77936e-20)
(0.645561 3.46799 -2.41426e-20)
(0.619797 3.60433 0)
(0.567571 3.68239 2.27269e-19)
(0.498907 3.7838 -3.49271e-19)