/*--------------------------------*- C++ -*----------------------------------*\
  =========                 |
  \\      /  F ield         | OpenFOAM: The Open Source CFD Toolbox
   \\    /   O peration     | Website:  https://openfoam.org
    \\  /    A nd           | Version:  7
     \\/     M anipulation  |
\*---------------------------------------------------------------------------*/
FoamFile
{
    version     2.0;
    format      ascii;
    class       volScalarField;
    location    "2.2";
    object      p;
}
// * * * * * * * * * * * * * * * * * * * * * * * * * * * * * * * * * * * * * //

dimensions      [1 -1 -2 0 0 0 0];

internalField   nonuniform List<scalar> 
19968
(
1
1
1
1
1
1
1
1
1
1
1
1
1
1
1
1
1
1
1
1
1
1
1
1
1
1
1
1
1
1
1
1
1
1
1
1
1
1
1
1
1
1
1
1
1
1
1
1
1
2.13545
8.8748
10.4988
10.5255
10.5854
10.6301
10.6771
10.729
10.7909
10.8588
10.9237
10.9781
11.0221
11.0624
11.1061
11.1558
11.2074
11.2548
11.2944
11.3287
11.3625
11.4022
11.4481
11.4993
11.5516
11.6006
11.6457
11.6886
11.7289
11.765
11.7939
11.8144
11.8282
11.8402
11.8598
11.8886
11.9248
11.9618
11.9925
12.0154
12.0318
12.04
12.042
12.0434
12.0431
12.0439
12.0433
1
1
1
1
1
1
1
1
1
1
1
1
1
1
1
1
1
1
1
1
1
1
1
1
1
1
1
1
1
1
1
1
1
1
1
1
1
1
1
1
1
1
1
1
1
1
1
1
1
2.08094
8.80604
10.4845
10.5234
10.5828
10.6285
10.6751
10.7265
10.7876
10.855
10.92
10.9754
11.0207
11.0622
11.1063
11.1555
11.2067
11.2543
11.2952
11.3302
11.3632
11.4007
11.4444
11.4939
11.5455
11.5951
11.6416
11.6854
11.7256
11.7608
11.789
11.8095
11.824
11.8368
11.8568
11.8854
11.9207
11.9566
11.9865
12.0088
12.0244
12.0322
12.0343
12.0362
12.0369
12.0389
12.0392
1
1
1
1
1
1
1
1
1
1
1
1
1
1
1
1
1
1
1
1
1
1
1
1
1
1
1
1
1
1
1
1
1
1
1
1
1
1
1
1
1
1
1
1
1
1
1
1
1
1.9664
8.66769
10.4758
10.5132
10.5749
10.6214
10.6679
10.7188
10.7791
10.8459
10.9115
10.9683
11.0154
11.0587
11.1031
11.1514
11.2024
11.2506
11.2936
11.3304
11.3634
11.3989
11.4392
11.4856
11.5357
11.5864
11.6351
11.6806
11.7207
11.7544
11.7814
11.8019
11.8173
11.8314
11.8521
11.88
11.9135
11.9476
11.9761
11.9974
12.0121
12.0189
12.0212
12.0238
12.026
12.0295
12.0313
1
1
1
1
1
1
1
1
1
1
1
1
1
1
1
1
1
1
1
1
1
1
1
1
1
1
1
1
1
1
1
1
1
1
1
1
1
1
1
1
1
1
1
1
1
1
1
1
1
1.79773
8.44126
10.4645
10.5037
10.5663
10.6133
10.6604
10.7114
10.7707
10.8365
10.9019
10.9593
11.008
11.0528
11.097
11.144
11.1944
11.2429
11.288
11.3268
11.3602
11.3941
11.4307
11.473
11.5203
11.5708
11.6215
11.6688
11.7093
11.7423
11.7686
11.7897
11.8067
11.8226
11.844
11.8709
11.9024
11.9341
11.9608
11.9806
11.9932
11.9985
12.0011
12.0048
12.009
12.0145
12.0181
1
1
1
1
1
1
1
1
1
1
1
1
1
1
1
1
1
1
1
1
1
1
1
1
1
1
1
1
1
1
1
1
1
1
1
1
1
1
1
1
1
1
1
1
1
1
1
1
1
1.59034
8.09453
10.4501
10.4953
10.5565
10.6029
10.6498
10.7004
10.7584
10.823
10.8877
10.9449
10.9941
11.0399
11.0842
11.1316
11.1828
11.2324
11.2792
11.3203
11.3549
11.3885
11.4222
11.4601
11.5033
11.5514
11.602
11.6498
11.6905
11.7231
11.7493
11.7713
11.7898
11.8074
11.8294
11.8555
11.8851
11.9148
11.9394
11.9573
11.9675
11.9711
11.9744
11.9796
11.986
11.9933
11.9985
1
1
1
1
1
1
1
1
1
1
1
1
1
1
1
1
1
1
1
1
1
1
1
1
1
1
1
1
1
1
1
1
1
1
1
1
1
1
1
1
1
1
1
1
1
1
1
1
1
1.37005
7.62888
10.443
10.4835
10.5454
10.5905
10.6349
10.6826
10.7381
10.8018
10.867
10.9254
10.9765
11.0244
11.0708
11.1193
11.1708
11.2199
11.266
11.3074
11.3423
11.3759
11.4074
11.442
11.4811
11.5261
11.5755
11.6231
11.6642
11.6976
11.7247
11.7479
11.7679
11.7867
11.8089
11.8342
11.8618
11.8891
11.911
11.9267
11.9346
11.9368
11.9412
11.9481
11.9566
11.9651
11.9716
1
1
1
1
1
1
1
1
1
1
1
1
1
1
1
1
1
1
1
1
1
1
1
1
1
1
1
1
1
1
1
1
1
1
1
1
1
1
1
1
1
1
1
1
1
1
1
1
1
1.07954
6.91133
10.4468
10.4892
10.5397
10.5874
10.6306
10.6773
10.7325
10.7962
10.8609
10.9187
10.969
11.0147
11.0581
11.1026
11.1508
11.1978
11.242
11.2833
11.3182
11.3517
11.3818
11.4139
11.4497
11.4913
11.5384
11.585
11.626
11.66
11.6879
11.7123
11.7336
11.7538
11.7767
11.8019
11.8283
11.8534
11.8732
11.887
11.8938
11.8964
11.9022
11.9107
11.9205
11.9293
11.9363
1
1
1
1
1
1
1
1
1
1
1
1
1
1
1
1
1
1
1
1
1
1
1
1
1
1
1
1
1
1
1
1
1
1
1
1
1
1
1
1
1
1
1
1
1
1
1
1
1
1.00093
5.97917
10.3411
10.4377
10.4849
10.5415
10.5875
10.635
10.6886
10.7509
10.8155
10.8745
10.9261
10.973
11.017
11.0611
11.1099
11.1589
11.2054
11.2502
11.2889
11.3247
11.3554
11.3866
11.42
11.458
11.5021
11.5463
11.586
11.6194
11.647
11.671
11.6922
11.7123
11.7346
11.7584
11.782
11.8033
11.8199
11.8317
11.8387
11.8431
11.8509
11.8605
11.8704
11.8779
11.8844
1
1
1
1
1
1
1
1
1
1
1
1
1
1
1
1
1
1
1
1
1
1
1
1
1
1
1
1
1
1
1
1
1
1
1
1
1
1
1
1
1
1
1
1
1
1
1
1
1
1
4.78906
10.1286
10.3982
10.4479
10.5109
10.559
10.6072
10.6595
10.7202
10.7845
10.8443
10.8968
10.9441
10.9874
11.0291
11.0744
11.1205
11.1643
11.2077
11.2464
11.2808
11.3099
11.338
11.3678
11.4026
11.4443
11.4872
11.5265
11.5597
11.5871
11.6107
11.6322
11.6524
11.6742
11.6963
11.7169
11.7351
11.7497
11.7616
11.771
11.7787
11.7885
11.7981
11.8063
11.8108
11.8155
1
1
1
1
1
1
1
1
1
1
1
1
1
1
1
1
1
1
1
1
1
1
1
1
1
1
1
1
1
1
1
1
1
1
1
1
1
1
1
1
1
1
1
1
1
1
1
1
1
1
3.51771
9.69807
10.376
10.4365
10.4991
10.5461
10.5904
10.6371
10.6928
10.7541
10.813
10.8654
10.9122
10.9538
10.992
11.0331
11.0765
11.1184
11.161
11.2007
11.2347
11.264
11.29
11.3167
11.3479
11.3862
11.4272
11.4657
11.4981
11.5246
11.547
11.5679
11.5873
11.6069
11.6252
11.6407
11.6543
11.6666
11.6782
11.689
11.6982
11.7075
11.7149
11.7197
11.7202
11.7221
1
1
1
1
1
1
1
1
1
1
1
1
1
1
1
1
1
1
1
1
1
1
1
1
1
1
1
1
1
1
1
1
1
1
1
1
1
1
1
1
1
1
1
1
1
1
1
1
1
1
2.26666
8.82447
10.3694
10.3962
10.4584
10.5031
10.5472
10.5927
10.6461
10.7055
10.7647
10.8182
10.8653
10.9067
10.9437
10.9811
11.022
11.0626
11.1037
11.1438
11.1774
11.2063
11.23
11.2537
11.2806
11.3137
11.3507
11.3864
11.4167
11.4416
11.4623
11.4816
11.4985
11.5136
11.5257
11.5347
11.5437
11.5546
11.5677
11.5818
11.594
11.6034
11.6102
11.6135
11.6126
11.6131
1
1
1
1
1
1
1
1
1
1
1
1
1
1
1
1
1
1
1
1
1
1
1
1
1
1
1
1
1
1
1
1
1
1
1
1
1
1
1
1
1
1
1
1
1
1
1
1
1
1
1.20023
7.27508
10.4349
10.4416
10.479
10.5136
10.5482
10.5848
10.6281
10.6786
10.7315
10.7805
10.8228
10.8594
10.8916
10.9231
10.9588
10.9955
11.0313
11.0672
11.0985
11.1253
11.1475
11.1691
11.1928
11.2211
11.2532
11.2851
11.3129
11.3361
11.3561
11.3742
11.3892
11.4001
11.4068
11.4109
11.4167
11.4266
11.44
11.4538
11.4628
11.4663
11.4674
11.4666
11.4642
11.4633
1
1
1
1
1
1
1
1
1
1
1
1
1
1
1
1
1
1
1
1
1
1
1
1
1
1
1
1
1
1
1
1
1
1
1
1
1
1
1
1
1
1
1
1
1
1
1
1
1
1
1.00164
5.10338
10.0989
10.2859
10.3386
10.393
10.4387
10.4816
10.5256
10.5739
10.6249
10.6739
10.7171
10.7542
10.7861
10.8153
10.8465
10.8801
10.9135
10.9462
10.9774
11.0041
11.0269
11.0478
11.0697
11.0933
11.1185
11.144
11.1675
11.1886
11.2085
11.2262
11.239
11.2451
11.2451
11.2414
11.2385
11.2407
11.2488
11.2584
11.2651
11.2685
11.2711
11.274
11.2757
11.2773
1
1
1
1
1
1
1
1
1
1
1
1
1
1
1
1
1
1
1
1
1
1
1
1
1
1
1
1
1
1
1
1
1
1
1
1
1
1
1
1
1
1
1
1
1
1
1
1
1
1
1
2.71122
9.05446
10.2245
10.2712
10.3469
10.3978
10.4386
10.4762
10.5166
10.5611
10.607
10.6497
10.686
10.7157
10.7406
10.7651
10.7921
10.8203
10.8468
10.8725
10.8956
10.9163
10.9344
10.9521
10.9685
10.9836
10.9975
11.0108
11.0246
11.0394
11.0524
11.0602
11.0601
11.0523
11.0413
11.032
11.0287
11.0309
11.0343
11.0309
11.0206
11.0028
10.9817
10.9601
10.9411
1
1
1
1
1
1
1
1
1
1
1
1
1
1
1
1
1
1
1
1
1
1
1
1
1
1
1
1
1
1
1
1
1
1
1
1
1
1
1
1
1
1
1
1
1
1
1
1
1
1
1
1.08276
6.78668
10.3336
10.336
10.3513
10.3719
10.3908
10.4133
10.441
10.4752
10.5142
10.5532
10.587
10.6139
10.6352
10.6546
10.6752
10.6971
10.7172
10.7348
10.7517
10.7672
10.781
10.7934
10.8033
10.8101
10.812
10.8118
10.8141
10.8188
10.8243
10.8255
10.8173
10.7991
10.7738
10.7465
10.7191
10.6903
10.6563
10.6152
10.5696
10.5299
10.4961
10.4838
10.4785
1
1
1
1
1
1
1
1
1
1
1
1
1
1
1
1
1
1
1
1
1
1
1
1
1
1
1
1
1
1
1
1
1
1
1
1
1
1
1
1
1
1
1
1
1
1
1
1
1
1
1
1.00018
3.58574
9.47055
10.1605
10.2093
10.2458
10.274
10.2994
10.324
10.3518
10.3851
10.4219
10.4575
10.4875
10.5111
10.5291
10.5447
10.5609
10.5748
10.5855
10.5959
10.6041
10.6107
10.6166
10.6218
10.6223
10.6131
10.5986
10.5834
10.5709
10.5599
10.5456
10.5221
10.4865
10.4416
10.3916
10.3378
10.2798
10.2174
10.151
10.0823
10.001
9.92871
9.81813
9.92301
1
1
1
1
1
1
1
1
1
1
1
1
1
1
1
1
1
1
1
1
1
1
1
1
1
1
1
1
1
1
1
1
1
1
1
1
1
1
1
1
1
1
1
1
1
1
1
1
1
1
1
1
1.38257
7.60871
10.1393
10.1271
10.1534
10.1835
10.2072
10.229
10.2513
10.2772
10.3074
10.3395
10.3685
10.3924
10.4093
10.4212
10.432
10.4407
10.4458
10.4483
10.4477
10.4451
10.4427
10.4412
10.4355
10.4206
10.3962
10.3657
10.3353
10.3052
10.2724
10.2309
10.1757
10.107
10.0254
9.93067
9.81551
9.67351
9.48597
9.23588
8.86237
8.31719
7.38716
5.50482
1
1
1
1
1
1
1
1
1
1
1
1
1
1
1
1
1
1
1
1
1
1
1
1
1
1
1
1
1
1
1
1
1
1
1
1
1
1
1
1
1
1
1
1
1
1
1
1
1
1
1
1
1.00546
4.93236
9.73809
10.0104
10.0509
10.0885
10.1157
10.1395
10.1598
10.1815
10.2067
10.2349
10.2619
10.2848
10.301
10.3107
10.3156
10.3202
10.3223
10.3215
10.3161
10.306
10.2947
10.2841
10.2717
10.2524
10.2215
10.1796
10.133
10.0843
10.0326
9.97267
9.89709
9.80391
9.68908
9.55416
9.38491
9.17681
8.89572
8.53384
8.01618
7.36718
6.11987
4.53228
1
1
1
1
1
1
1
1
1
1
1
1
1
1
1
1
1
1
1
1
1
1
1
1
1
1
1
1
1
1
1
1
1
1
1
1
1
1
1
1
1
1
1
1
1
1
1
1
1
1
1
1
0.999995
2.12405
8.36163
9.95105
9.96149
10.0058
10.0338
10.0571
10.0744
10.0926
10.113
10.1357
10.1576
10.1758
10.1894
10.1963
10.1957
10.1956
10.1939
10.1896
10.1799
10.1637
10.1441
10.1231
10.1011
10.075
10.0381
9.9881
9.92814
9.86217
9.7903
9.71014
9.613
9.49656
9.35212
9.18171
8.97115
8.71352
8.38425
7.95862
7.42268
6.65513
5.64663
4.50612
1
1
1
1
1
1
1
1
1
1
1
1
1
1
1
1
1
1
1
1
1
1
1
1
1
1
1
1
1
1
1
1
1
1
1
1
1
1
1
1
1
1
1
1
1
1
1
1
1
1
1
1
0.999999
1.04586
5.60678
9.79424
9.89484
9.92474
9.94991
9.97187
9.98818
10.0033
10.0189
10.0349
10.0513
10.0659
10.0788
10.0852
10.0794
10.071
10.0612
10.0506
10.0365
10.0171
9.9922
9.96191
9.92935
9.8947
9.85159
9.79615
9.7263
9.64573
9.5546
9.45393
9.33659
9.19955
9.03397
8.83776
8.60238
8.31771
7.9719
7.53507
6.99966
6.33333
5.55627
4.72274
1
1
1
1
1
1
1
1
1
1
1
1
1
1
1
1
1
1
1
1
1
1
1
1
1
1
1
1
1
1
1
1
1
1
1
1
1
1
1
1
1
1
1
1
1
1
1
1
1
1
1
1
1
1.00004
2.3023
8.51255
9.87109
9.83754
9.86284
9.88429
9.90049
9.91374
9.92541
9.93553
9.94548
9.95557
9.96536
9.97098
9.96351
9.94937
9.9324
9.91502
9.89467
9.87121
9.84146
9.80438
9.76268
9.71834
9.66668
9.60452
9.52677
9.43642
9.3318
9.21472
9.08062
8.92668
8.7469
8.53624
8.28971
7.99829
7.65577
7.2414
6.7534
6.20335
5.59589
4.93527
1
1
1
1
1
1
1
1
1
1
1
1
1
1
1
1
1
1
1
1
1
1
1
1
1
1
1
1
1
1
1
1
1
1
1
1
1
1
1
1
1
1
1
1
1
1
1
1
1
1
1
1
1
1
1.05379
5.56484
9.74304
9.77264
9.7954
9.80545
9.81578
9.82678
9.83704
9.84318
9.84632
9.8489
9.85235
9.85631
9.85079
9.83377
9.81086
9.78547
9.75645
9.72534
9.68812
9.6437
9.59393
9.54085
9.48104
9.41315
9.33126
9.23565
9.12378
8.99579
8.84866
8.68221
8.49338
8.27746
8.03127
7.74657
7.42261
7.04557
6.61682
6.16412
5.66676
5.13035
1
1
1
1
1
1
1
1
1
1
1
1
1
1
1
1
1
1
1
1
1
1
1
1
1
1
1
1
1
1
1
1
1
1
1
1
1
1
1
1
1
1
1
1
1
1
1
1
1
1
1
1
1
1
1.00007
2.07661
8.23766
9.74682
9.7052
9.71373
9.72193
9.73018
9.74005
9.74678
9.74722
9.74475
9.74062
9.73802
9.73195
9.71451
9.68981
9.66083
9.62618
9.58699
9.5414
9.49056
9.43507
9.37511
9.3079
9.23305
9.14627
9.04618
8.93027
8.79701
8.64414
8.47232
8.27989
8.06402
7.82528
7.55048
7.25181
6.91202
6.53819
6.15513
5.73147
5.28885
1
1
1
1
1
1
1
1
1
1
1
1
1
1
1
1
1
1
1
1
1
1
1
1
1
1
1
1
1
1
1
1
1
1
1
1
1
1
1
1
1
1
1
1
1
1
1
1
1
1
1
1
1
1
1
1.03549
4.87291
9.42626
9.6298
9.61427
9.62471
9.63762
9.64723
9.65267
9.65362
9.647
9.63654
9.62521
9.61452
9.59588
9.56986
9.5391
9.50034
9.4537
9.40002
9.3439
9.28194
9.21361
9.13812
9.05589
8.96449
8.8627
8.74684
8.61331
8.46096
8.28989
8.10082
7.88871
7.66311
7.39977
7.12576
6.82285
6.49178
6.15923
5.79145
5.42348
1
1
1
1
1
1
1
1
1
1
1
1
1
1
1
1
1
1
1
1
1
1
1
1
1
1
1
1
1
1
1
1
1
1
1
1
1
1
1
1
1
1
1
1
1
1
1
1
1
1
1
1
1
1
1
1.00003
1.47996
7.49195
9.65672
9.58678
9.57032
9.56874
9.56739
9.56483
9.55907
9.54819
9.53244
9.51511
9.49845
9.47588
9.44722
9.41442
9.37259
9.32189
9.26378
9.20424
9.13964
9.06696
8.98731
8.89997
8.80429
8.69916
8.58106
8.447
8.2968
8.12939
7.94886
7.74261
7.53192
7.28411
7.03465
6.76114
6.46466
6.16843
5.84381
5.52711
1
1
1
1
1
1
1
1
1
1
1
1
1
1
1
1
1
1
1
1
1
1
1
1
1
1
1
1
1
1
1
1
1
1
1
1
1
1
1
1
1
1
1
1
1
1
1
1
1
1
1
1
1
1
1
1
1.00679
3.65793
8.91176
9.38512
9.42708
9.44703
9.45324
9.45048
9.43954
9.42492
9.40723
9.3896
9.37025
9.34373
9.31256
9.27844
9.23573
9.185
9.12804
9.06813
9.00366
8.93156
8.84818
8.75575
8.65448
8.54582
8.42442
8.29092
8.14564
7.98503
7.81396
7.61691
7.42098
7.19397
6.96848
6.7192
6.45612
6.18391
5.89982
5.61544
1
1
1
1
1
1
1
1
1
1
1
1
1
1
1
1
1
1
1
1
1
1
1
1
1
1
1
1
1
1
1
1
1
1
1
1
1
1
1
1
1
1
1
1
1
1
1
1
1
1
1
1
1
1
1
1
1
1.18544
5.90683
9.31873
9.38827
9.36929
9.36679
9.36302
9.3524
9.33753
9.32048
9.30378
9.28155
9.24943
9.21194
9.171
9.12351
9.07045
9.01245
8.9506
8.88443
8.81198
8.72928
8.63336
8.52781
8.41439
8.28912
8.15662
8.0154
7.85954
7.69539
7.50962
7.32512
7.11753
6.91224
6.68362
6.44999
6.20017
5.94846
5.68727
1
1
1
1
1
1
1
1
1
1
1
1
1
1
1
1
1
1
1
1
1
1
1
1
1
1
1
1
1
1
1
1
1
1
1
1
1
1
1
1
1
1
1
1
1
1
1
1
1
1
1
1
1
1
1
1
1
1.00106
1.84235
7.73811
9.3579
9.28316
9.27374
9.26445
9.25663
9.24385
9.22719
9.20952
9.18456
9.1494
9.10818
9.06285
9.01193
8.95711
8.89693
8.83196
8.76424
8.6918
8.61006
8.5153
8.40629
8.29069
8.1662
8.03323
7.89488
7.74616
7.58902
7.4178
7.24186
7.05245
6.86188
6.65343
6.44408
6.21728
5.98937
5.7504
1
1
1
1
1
1
1
1
1
1
1
1
1
1
1
1
1
1
1
1
1
1
1
1
1
1
1
1
1
1
1
1
1
1
1
1
1
1
1
1
1
1
1
1
1
1
1
1
1
1
1
1
1
1
1
1
1
1
1.02004
3.75501
8.77054
9.14604
9.12475
9.13093
9.13253
9.12794
9.12022
9.10716
9.08441
9.05067
9.01125
8.96645
8.91435
8.85798
8.79468
8.72537
8.6548
8.58104
8.49583
8.39892
8.29168
8.17966
8.0576
7.92848
7.79371
7.65136
7.49992
7.34163
7.17284
6.99819
6.81634
6.62632
6.43418
6.22843
6.01928
5.80351
1
1
1
1
1
1
1
1
1
1
1
1
1
1
1
1
1
1
1
1
1
1
1
1
1
1
1
1
1
1
1
1
1
1
1
1
1
1
1
1
1
1
1
1
1
1
1
1
1
1
1
1
1
1
1
1
1
1
1.00003
1.19328
5.2327
8.92678
9.06776
9.08173
9.08848
9.08298
9.06785
9.045
9.01396
8.97392
8.92964
8.88205
8.82673
8.76618
8.69777
8.62433
8.54876
8.46911
8.38061
8.28276
8.18004
8.07094
7.9565
7.83373
7.70517
7.56983
7.42419
7.2745
7.11431
6.95021
6.77782
6.60433
6.42462
6.23815
6.04538
5.8511
1
1
1
1
1
1
1
1
1
1
1
1
1
1
1
1
1
1
1
1
1
1
1
1
1
1
1
1
1
1
1
1
1
1
1
1
1
1
1
1
1
1
1
1
1
1
1
1
1
1
1
1
1
1
1
1
1
1
1
1.00126
1.47832
6.37353
8.97425
9.08387
9.06558
9.04637
9.0225
8.98893
8.94625
8.89661
8.84452
8.79183
8.73364
8.66931
8.59957
8.52527
8.44617
8.36229
8.27355
8.17761
8.07917
7.97528
7.86552
7.74918
7.627
7.49859
7.36188
7.22002
7.0694
6.91251
6.7497
6.58611
6.41733
6.24573
6.06757
5.88889
1
1
1
1
1
1
1
1
1
1
1
1
1
1
1
1
1
1
1
1
1
1
1
1
1
1
1
1
1
1
1
1
1
1
1
1
1
1
1
1
1
1
1
1
1
1
1
1
1
1
1
1
1
1
1
1
1
1
1
1
1.00672
1.93424
7.55066
9.08688
9.03954
9.00529
8.95735
8.90969
8.85725
8.80341
8.74783
8.69244
8.63271
8.56842
8.50107
8.4289
8.35032
8.26588
8.17725
8.08496
7.98899
7.88928
7.78402
7.67267
7.55581
7.43335
7.30561
7.17205
7.03054
6.88059
6.72729
6.57147
6.41444
6.25317
6.08766
5.91896
1
1
1
1
1
1
1
1
1
1
1
1
1
1
1
1
1
1
1
1
1
1
1
1
1
1
1
1
1
1
1
1
1
1
1
1
1
1
1
1
1
1
1
1
1
1
1
1
1
1
1
1
1
1
1
1
1
1
1
1
1.00001
1.02369
3.29374
8.39374
8.94447
8.8815
8.84173
8.78985
8.73643
8.68414
8.63182
8.58009
8.52529
8.46714
8.40481
8.3368
8.26173
8.17991
8.09323
8.00389
7.91286
7.81782
7.71626
7.60739
7.49358
7.37674
7.25664
7.13046
6.99566
6.85262
6.70862
6.56082
6.41366
6.26006
6.10486
5.9437
1
1
1
1
1
1
1
1
1
1
1
1
1
1
1
1
1
1
1
1
1
1
1
1
1
1
1
1
1
1
1
1
1
1
1
1
1
1
1
1
1
1
1
1
1
1
1
1
1
1
1
1
1
1
1
1
1
1
1
1
1
1.00005
1.13296
4.49387
8.65039
8.80176
8.72689
8.6799
8.63317
8.58761
8.53925
8.49022
8.43799
8.38257
8.3228
8.25759
8.18557
8.10705
8.02443
7.93852
7.85036
7.75819
7.65895
7.55071
7.43675
7.32371
7.20947
7.08932
6.95979
6.82494
6.69067
6.55253
6.41438
6.26834
6.12158
5.96723
1
1
1
1
1
1
1
1
1
1
1
1
1
1
1
1
1
1
1
1
1
1
1
1
1
1
1
1
1
1
1
1
1
1
1
1
1
1
1
1
1
1
1
1
1
1
1
1
1
1
1
1
1
1
1
1
1
1
1
1
1
1
1.00071
1.31463
5.23693
8.59334
8.63968
8.58591
8.55349
8.51192
8.4692
8.42348
8.37372
8.31802
8.25637
8.18927
8.11716
8.04059
7.96112
7.87944
7.79417
7.70475
7.6087
7.50307
7.39063
7.28038
7.16975
7.05362
6.92793
6.80013
6.67403
6.54441
6.41331
6.27456
6.13519
5.98911
1
1
1
1
1
1
1
1
1
1
1
1
1
1
1
1
1
1
1
1
1
1
1
1
1
1
1
1
1
1
1
1
1
1
1
1
1
1
1
1
1
1
1
1
1
1
1
1
1
1
1
1
1
1
1
1
1
1
1
1
1
1
1
1.00314
1.49415
5.72976
8.4952
8.54066
8.50169
8.46404
8.42057
8.37227
8.31823
8.2602
8.19916
8.13466
8.06533
7.99118
7.91241
7.82947
7.74357
7.65427
7.55924
7.45588
7.34716
7.24037
7.13313
7.02085
6.89954
6.77732
6.65791
6.53584
6.41107
6.27987
6.14785
6.01063
1
1
1
1
1
1
1
1
1
1
1
1
1
1
1
1
1
1
1
1
1
1
1
1
1
1
1
1
1
1
1
1
1
1
1
1
1
1
1
1
1
1
1
1
1
1
1
1
1
1
1
1
1
1
1
1
1
1
1
1
1
1
1
1
1.00722
1.66424
6.05154
8.40271
8.45975
8.4215
8.37668
8.32418
8.26747
8.20695
8.14311
8.07686
8.00844
7.93732
7.86117
7.78009
7.6959
7.60678
7.51161
7.41021
7.3063
7.20352
7.09978
6.99161
6.87529
6.75865
6.64529
6.53009
6.41074
6.28637
6.16134
6.03188
1
1
1
1
1
1
1
1
1
1
1
1
1
1
1
1
1
1
1
1
1
1
1
1
1
1
1
1
1
1
1
1
1
1
1
1
1
1
1
1
1
1
1
1
1
1
1
1
1
1
1
1
1
1
1
1
1
1
1
1
1
1
1
1
1.00001
1.01254
1.8078
6.25742
8.32581
8.38217
8.33275
8.27588
8.21657
8.15526
8.08981
8.02316
7.95459
7.8825
7.80692
7.72802
7.64454
7.55593
7.46317
7.36782
7.27114
7.17294
7.072
6.96709
6.85685
6.7465
6.63787
6.52776
6.41241
6.29393
6.1754
6.05291
1
1
1
1
1
1
1
1
1
1
1
1
1
1
1
1
1
1
1
1
1
1
1
1
1
1
1
1
1
1
1
1
1
1
1
1
1
1
1
1
1
1
1
1
1
1
1
1
1
1
1
1
1
1
1
1
1
1
1
1
1
1
1
1
1
1.00003
1.01809
1.9187
6.36418
8.23492
8.28367
8.23179
8.17162
8.10505
8.03966
7.97268
7.90268
7.83088
7.75629
7.67864
7.59714
7.51131
7.42341
7.33409
7.24287
7.14883
7.05126
6.9507
6.84738
6.74267
6.63792
6.53159
6.41961
6.30581
6.19235
6.07575
1
1
1
1
1
1
1
1
1
1
1
1
1
1
1
1
1
1
1
1
1
1
1
1
1
1
1
1
1
1
1
1
1
1
1
1
1
1
1
1
1
1
1
1
1
1
1
1
1
1
1
1
1
1
1
1
1
1
1
1
1
1
1
1
1
1
1.00005
1.02306
1.98905
6.33926
8.15341
8.18625
8.12523
8.0642
7.99736
7.92797
7.85629
7.78419
7.71036
7.63334
7.55312
7.47089
7.38829
7.30426
7.21762
7.12776
7.03428
6.93825
6.84033
6.73983
6.63799
6.53433
6.42593
6.31595
6.20681
6.09606
1
1
1
1
1
1
1
1
1
1
1
1
1
1
1
1
1
1
1
1
1
1
1
1
1
1
1
1
1
1
1
1
1
1
1
1
1
1
1
1
1
1
1
1
1
1
1
1
1
1
1
1
1
1
1
1
1
1
1
1
1
1
1
1
1
1
1
1.00007
1.02658
1.99899
6.21207
8.04408
8.08717
8.01832
7.95459
7.88332
7.81462
7.74393
7.67072
7.5947
7.51695
7.4392
7.36066
7.28014
7.19682
7.11051
7.0208
6.9288
6.83481
6.73757
6.63826
6.53689
6.43265
6.32666
6.22136
6.11581
1
1
1
1
1
1
1
1
1
1
1
1
1
1
1
1
1
1
1
1
1
1
1
1
1
1
1
1
1
1
1
1
1
1
1
1
1
1
1
1
1
1
1
1
1
1
1
1
1
1
1
1
1
1
1
1
1
1
1
1
1
1
1
1
1
1
1
1
1.00008
1.02724
1.95444
5.95996
7.91745
7.9833
7.89807
7.83885
7.7736
7.70618
7.63708
7.56594
7.49401
7.42116
7.34562
7.26663
7.18437
7.09914
7.01073
6.92047
6.82823
6.73355
6.6369
6.53818
6.43831
6.33661
6.23495
6.13306
1
1
1
1
1
1
1
1
1
1
1
1
1
1
1
1
1
1
1
1
1
1
1
1
1
1
1
1
1
1
1
1
1
1
1
1
1
1
1
1
1
1
1
1
1
1
1
1
1
1
1
1
1
1
1
1
1
1
1
1
1
1
1
1
1
1
1
1
1
1.00009
1.02513
1.85724
5.56102
7.75927
7.87688
7.79254
7.73618
7.67674
7.61399
7.54984
7.48242
7.41167
7.33626
7.25644
7.1731
7.087
6.9988
6.90924
6.81823
6.7263
6.63253
6.53751
6.4421
6.34462
6.24705
6.14882
1
1
1
1
1
1
1
1
1
1
1
1
1
1
1
1
1
1
1
1
1
1
1
1
1
1
1
1
1
1
1
1
1
1
1
1
1
1
1
1
1
1
1
1
1
1
1
1
1
1
1
1
1
1
1
1
1
1
1
1
1
1
1
1
1
1
1
1
1
1
1.00008
1.02073
1.71215
4.97684
7.57452
7.79002
7.71275
7.65959
7.60434
7.54299
7.47754
7.40624
7.32921
7.24771
7.16306
7.07657
6.9887
6.89965
6.81003
6.72011
6.62898
6.53762
6.44553
6.35232
6.25926
6.16477
1
1
1
1
1
1
1
1
1
1
1
1
1
1
1
1
1
1
1
1
1
1
1
1
1
1
1
1
1
1
1
1
1
1
1
1
1
1
1
1
1
1
1
1
1
1
1
1
1
1
1
1
1
1
1
1
1
1
1
1
1
1
1
1
1
1
1
1
1
1
1
1.00006
1.01502
1.52792
4.26363
7.38439
7.72715
7.66149
7.6061
7.54147
7.47118
7.39714
7.31773
7.23486
7.15006
7.06425
6.97751
6.89062
6.8036
6.71609
6.62833
6.54007
6.45106
6.36191
6.27196
6.18091
1
1
1
1
1
1
1
1
1
1
1
1
1
1
1
1
1
1
1
1
1
1
1
1
1
1
1
1
1
1
1
1
1
1
1
1
1
1
1
1
1
1
1
1
1
1
1
1
1
1
1
1
1
1
1
1
1
1
1
1
1
1
1
1
1
1
1
1
1
1
1
1
1.00004
1.0091
1.34348
3.64118
7.10255
7.65474
7.61022
7.52988
7.46111
7.38095
7.29935
7.21657
7.13373
7.05053
6.96731
6.88401
6.80033
6.71641
6.63225
6.54714
6.46142
6.37479
6.28699
6.19954
1
1
1
1
1
1
1
1
1
1
1
1
1
1
1
1
1
1
1
1
1
1
1
1
1
1
1
1
1
1
1
1
1
1
1
1
1
1
1
1
1
1
1
1
1
1
1
1
1
1
1
1
1
1
1
1
1
1
1
1
1
1
1
1
1
1
1
1
1
1
1
1
1
1.00002
1.00449
1.21449
3.07523
6.6905
7.53753
7.54174
7.43673
7.36251
7.27772
7.19781
7.11878
7.0404
6.96176
6.88232
6.80223
6.72166
6.64004
6.55728
6.47414
6.38927
6.30395
6.2187
1
1
1
1
1
1
1
1
1
1
1
1
1
1
1
1
1
1
1
1
1
1
1
1
1
1
1
1
1
1
1
1
1
1
1
1
1
1
1
1
1
1
1
1
1
1
1
1
1
1
1
1
1
1
1
1
1
1
1
1
1
1
1
1
1
1
1
1
1
1
1
1
1
1
1.00001
1.0021
1.12704
2.56491
6.08052
7.39504
7.44013
7.3337
7.25974
7.18343
7.10855
7.03341
6.95901
6.88339
6.80694
6.72931
6.64988
6.57033
6.48924
6.4062
6.32367
6.23939
1
1
1
1
1
1
1
1
1
1
1
1
1
1
1
1
1
1
1
1
1
1
1
1
1
1
1
1
1
1
1
1
1
1
1
1
1
1
1
1
1
1
1
1
1
1
1
1
1
1
1
1
1
1
1
1
1
1
1
1
1
1
1
1
1
1
1
1
1
1
1
1
1
1
1
1
1.00093
1.07055
2.10357
5.24604
7.19953
7.32127
7.24743
7.17794
7.10565
7.03447
6.9601
6.8863
6.81283
6.73749
6.66166
6.58391
6.50375
6.42445
6.34277
6.25956
1
1
1
1
1
1
1
1
1
1
1
1
1
1
1
1
1
1
1
1
1
1
1
1
1
1
1
1
1
1
1
1
1
1
1
1
1
1
1
1
1
1
1
1
1
1
1
1
1
1
1
1
1
1
1
1
1
1
1
1
1
1
1
1
1
1
1
1
1
1
1
1
1
1
1
1
1
1.00038
1.03564
1.69528
4.28953
6.87829
7.22197
7.1772
7.10436
7.03401
6.96502
6.89422
6.82107
6.74863
6.6746
6.59744
6.5212
6.44169
6.35953
6.28052
1
1
1
1
1
1
1
1
1
1
1
1
1
1
1
1
1
1
1
1
1
1
1
1
1
1
1
1
1
1
1
1
1
1
1
1
1
1
1
1
1
1
1
1
1
1
1
1
1
1
1
1
1
1
1
1
1
1
1
1
1
1
1
1
1
1
1
1
1
1
1
1
1
1
1
1
1
1
1.00014
1.01553
1.38119
3.3624
6.33745
7.08157
7.15332
7.0521
6.98292
6.91186
6.83917
6.76402
6.68691
6.61202
6.53446
6.45419
6.37832
6.30044
1
1
1
1
1
1
1
1
1
1
1
1
1
1
1
1
1
1
1
1
1
1
1
1
1
1
1
1
1
1
1
1
1
1
1
1
1
1
1
1
1
1
1
1
1
1
1
1
1
1
1
1
1
1
1
1
1
1
1
1
1
1
1
1
1
1
1
1
1
1
1
1
1
1
1
1
1
1
1
1.00004
1.00568
1.18265
2.54606
5.51297
6.92438
7.06158
6.99543
6.92206
6.84852
6.77262
6.69691
6.62082
6.54438
6.4713
6.39396
6.31582
1
1
1
1
1
1
1
1
1
1
1
1
1
1
1
1
1
1
1
1
1
1
1
1
1
1
1
1
1
1
1
1
1
1
1
1
1
1
1
1
1
1
1
1
1
1
1
1
1
1
1
1
1
1
1
1
1
1
1
1
1
1
1
1
1
1
1
1
1
1
1
1
1
1
1
1
1
1
1
1
1.00001
1.00174
1.07428
1.91538
4.45194
6.62785
6.97936
6.94986
6.85104
6.77289
6.70575
6.63598
6.56694
6.4935
6.41713
6.34479
1
1
1
1
1
1
1
1
1
1
1
1
1
1
1
1
1
1
1
1
1
1
1
1
1
1
1
1
1
1
1
1
1
1
1
1
1
1
1
1
1
1
1
1
1
1
1
1
1
1
1
1
1
1
1
1
1
1
1
1
1
1
1
1
1
1
1
1
1
1
1
1
1
1
1
1
1
1
1
1
1
1
1.00044
1.02665
1.46685
3.33929
6.09624
6.84553
6.87203
6.79497
6.71666
6.64557
6.58488
6.52313
6.45109
6.37188
1
1
1
1
1
1
1
1
1
1
1
1
1
1
1
1
1
1
1
1
1
1
1
1
1
1
1
1
1
1
1
1
1
1
1
1
1
1
1
1
1
1
1
1
1
1
1
1
1
1
1
1
1
1
1
1
1
1
1
1
1
1
1
1
1
1
1
1
1
1
1
1
1
1
1
1
1
1
1
1
1
1
1
1.00009
1.00828
1.19107
2.4746
5.08367
6.61894
6.81936
6.77446
6.68632
6.6112
6.5446
6.47095
6.38335
1
1
1
1
1
1
1
1
1
1
1
1
1
1
1
1
1
1
1
1
1
1
1
1
1
1
1
1
1
1
1
1
1
1
1
1
1
1
1
1
1
1
1
1
1
1
1
1
1
1
1
1
1
1
1
1
1
1
1
1
1
1
1
1
1
1
1
1
1
1
1
1
1
1
1
1
1
1
1
1
1
1
1
1
1.00002
1.00196
1.07
1.76634
3.95557
6.18432
6.656
6.7002
6.65196
6.57956
6.52167
6.445
1
1
1
1
1
1
1
1
1
1
1
1
1
1
1
1
1
1
1
1
1
1
1
1
1
1
1
1
1
1
1
1
1
1
1
1
1
1
1
1
1
1
1
1
1
1
1
1
1
1
1
1
1
1
1
1
1
1
1
1
1
1
1
1
1
1
1
1
1
1
1
1
1
1
1
1
1
1
1
1
1
1
1
1
1
1
1.0004
1.02016
1.34166
2.77891
5.47613
6.45424
6.56249
6.54902
6.52091
6.48928
1
1
1
1
1
1
1
1
1
1
1
1
1
1
1
1
1
1
1
1
1
1
1
1
1
1
1
1
1
1
1
1
1
1
1
1
1
1
1
1
1
1
1
1
1
1
1
1
1
1
1
1
1
1
1
1
1
1
1
1
1
1
1
1
1
1
1
1
1
1
1
1
1
1
1
1
1
1
1
1
1
1
1
1
1
1
1
1.00006
1.00527
1.11034
2.03137
4.14272
6.20598
6.52605
6.50873
6.45409
1
1
1
1
1
1
1
1
1
1
1
1
1
1
1
1
1
1
1
1
1
1
1
1
1
1
1
1
1
1
1
1
1
1
1
1
1
1
1
1
1
1
1
1
1
1
1
1
1
1
1
1
1
1
1
1
1
1
1
1
1
1
1
1
1
1
1
1
1
1
1
1
1
1
1
1
1
1
1
1
1
1
1
1
1
1
1
1
1.00001
1.00083
1.03568
1.4277
3.05016
5.24276
6.40162
6.5227
1
1
1
1
1
1
1
1
1
1
1
1
1
1
1
1
1
1
1
1
1
1
1
1
1
1
1
1
1
1
1
1
1
1
1
1
1
1
1
1
1
1
1
1
1
1
1
1
1
1
1
1
1
1
1
1
1
1
1
1
1
1
1
1
1
1
1
1
1
1
1
1
1
1
1
1
1
1
1
1
1
1
1
1
1
1
1
1
1
1
1.00015
1.00764
1.1513
2.04655
4.1653
5.97104
1
1
1
1
1
1
1
1
1
1
1
1
1
1
1
1
1
1
1
1
1
1
1
1
1
1
1
1
1
1
1
1
1
1
1
1
1
1
1
1
1
1
1
1
1
1
1
1
1
1
1
1
1
1
1
1
1
1
1
1
1
1
1
1
1
1
1
1
1
1
1
1
1
1
1
1
1
1
1
1
1
1
1
1
1
1
1
1
1
1
1
1.00002
1.00137
1.03947
1.44925
3.0568
1
1
1
1
1
1
1
1
1
1
1
1
1
1
1
1
1
1
1
1
1
1
1
1
1
1
1
1
1
1
1
1
1
1
1
1
1
1
1
1
1
1
1
1
1
1
1
1
1
1
1
1
1
1
1
1
1
1
1
1
1
1
1
1
1
1
1
1
1
1
1
1
1
1
1
1
1
1
1
1
1
1
1
1
1
1
1
1
1
1
1
1
1
1.00018
1.00892
1.15602
1
1
1
1
1
1
1
1
1
1
1
1
1
1
1
1
1
1
1
1
1
1
1
1
1
1
1
1
1
1
1
1
1
1
1
1
1
1
1
1
1
1
1
1
1
1
1
1
1
1
1
1
1
1
1
1
1
1
1
1
1
1
1
1
1
1
1
1
1
1
1
1
1
1
1
1
1
1
1
1
1
1
1
1
1
1
1
1
1
1
1
1
1
1
1.00002
1.00128
1
1
1
1
1
1
1
1
1
1
1
1
1
1
1
1
1
1
1
1
1
1
1
1
1
1
1
1
1
1
1
1
1
1
1
1
1
1
1
1
1
1
1
1
1
1
1
1
1
1
1
1
1
1
1
1
1
1
1
1
1
1
1
1
1
1
1
1
1
1
1
1
1
1
1
1
1
1
1
1
1
1
1
1
1
1
1
1
1
1
1
1
1
1
1
1
1
1
1
1
1
1
1
1
1
1
1
1
1
1
1
1
1
1
1
1
1
1
1
1
1
1
1
1
1
1
1
1
1
1
1
1
1
1
1
1
1
1
1
1
1
1
1
1
1
1
1
1
1
1
1
1
1
1
1
1
1
1
1
1
1
1
1
1
1
1
1
1
1
1
1
1
1
1
1
1
1
1
1
1
1
1
1
1
1
1
1
1
1
1
1
1
1
1
1
1
1
1
1
1
1
1
1
1
1
1
1
1
1
1
1
1
1
1
1
1
1
1
1
1
1
1
1
1
1
1
1
1
1
1
1
1
1
1
1
1
1
1
1
1
1
1
1
1
1
1
1
1
1
1
1
1
1
1
1
1
1
1
1
1
1
1
1
1
1
1
1
1
1
1
1
1
1
1
1
1
1
1
1
1
1
1
1
1
1
1
1
1
1
1
1
1
1
1
1
1
1
1
1
1
1
1
1
1
1
1
1
1
1
1
1
1
1
1
1
1
1
1
1
1
1
1
1
1
1
1
1
1
1
1
1
1
1
1
1
1
1
1
1
1
1
1
1
1
1
1
1
1
1
1
1
1
1
1
1
1
1
1
1
1
1
1
1
1
1
1
1
1
1
1
1
1
1
1
1
1
1
1
1
1
1
1
1
1
1
1
1
1
1
1
1
1
1
1
1
1
1
1
1
1
1
1
1
1
1
1
1
1
1
1
1
1
1
1
1
1
1
1
1
1
1
1
1
1
1
1
1
1
1
1
1
1
1
1
1
1
1
1
1
1
1
1
1
1
1
1
1
1
1
1
1
1
1
1
1
1
1
1
1
1
1
1
1
1
1
1
1
1
1
1
1
1
1
1
1
1
1
1
1
1
1
1
1
1
1
1
1
1
1
1
1
1
1
1
1
1
1
1
1
1
1
1
1
1
1
1
1
1
1
1
1
1
1
1
1
1
1
1
1
1
1
1
1
1
1
1
1
1
1
1
1
1
1
1
1
1
1
1
1
1
1
1
1
1
1
1
1
1
1
1
1
1
1
1
1
1
1
1
1
1
1
1
1
1
1
1
1
1
1
1
1
1
1
1
1
1
1
1
1
1
1
1
1
1
1
1
1
1
1
1
1
1
1
1
1
1
1
1
1
1
1
1
1
1
1
1
1
1
1
1
1
1
1
1
1
1
1
1
1
1
1
1
1
1
1
1
1
1
1
1
1
1
1
1
1
1
1
1
1
1
1
1
1
1
1
1
1
1
1
1
1
1
1
1
1
1
1
1
1
1
1
1
1
1
1
1
1
1
1
1
1
1
1
1
1
1
1
1
1
1
1
1
1
1
1
1
1
1
1
1
1
1
1
1
1
1
1
1
1
1
1
1
1
1
1
1
1
1
1
1
1
1
1
1
1
1
1
1
1
1
1
1
1
1
1
1
1
1
1
1
1
1
1
1
1
1
1
1
1
1
1
1
1
1
1
1
1
1
1
1
1
1
1
1
1
1
1
1
1
1
1
1
1
1
1
1
1
1
1
1
1
1
1
1
1
1
1
1
1
1
1
1
1
1
1
1
1
1
1
1
1
1
1
1
1
1
1
1
1
1
1
1
1
1
1
1
1
1
1
1
1
1
1
1
1
1
1
1
1
1
1
1
1
1
1
1
1
1
1
1
1
1
1
1
1
1
1
1
1
1
1
1
1
1
1
1
1
1
1
1
1
1
1
1
1
1
1
1
1
1
1
1
1
1
1
1
1
1
1
1
1
1
1
1
1
1
1
1
1
1
1
1
1
1
1
1
1
1
1
1
1
1
1
1
1
1
1
1
1
1
1
1
1
1
1
1
1
1
1
1
1
1
1
1
1
1
1
1
1
1
1
1
1
1
1
1
1
1
1
1
1
1
1
1
1
1
1
1
1
1
1
1
1
1
1
1
1
1
1
1
1
1
1
1
1
1
1
1
1
1
1
1
1
1
1
1
1
1
1
1
1
1
1
1
1
1
1
1
1
1
1
1
1
1
1
1
1
1
1
1
1
1
1
1
1
1
1
1
1
1
1
1
1
1
1
1
1
1
1
1
1
1
1
1
1
1
1
1
1
1
1
1
1
1
1
1
1
1
1
1
1
1
1
1
1
1
1
1
1
1
1
1
1
1
1
1
1
1
1
1
1
1
1
1
1
1
1
1
1
1
1
1
1
1
1
1
1
1
1
1
1
1
1
1
1
1
1
1
1
1
1
1
1
1
1
1
1
1
1
1
1
1
1
1
1
1
1
1
1
1
1
1
1
1
1
1
1
1
1
1
1
1
1
1
1
1
1
1
1
1
1
1
1
1
1
1
1
1
1
1
1
1
1
1
1
1
1
1
1
1
1
1
1
1
1
1
1
1
1
1
1
1
1
1
1
1
1
1
1
1
1
1
1
1
1
1
1
1
1
1
1
1
1
1
1
1
1
1
1
1
1
1
1
1
1
1
1
1
1
1
1
1
1
1
1
1
1
1
1
1
1
1
1
1
1
1
1
1
1
1
1
1
1
1
1
1
1
1
1
1
1
1
1
1
1
1
1
1
1
1
1
1
1
1
1
1
1
1
1
1
1
1
1
1
1
1
1
1
1
1
1
1
1
1
1
1
1
1
1
1
1
1
1
1
1
1
1
1
1
1
1
1
1
1
1
1
1
1
1
1
1
1
1
1
1
1
1
1
1
1
1
1
1
1
1
1
1
1
1
1
1
1
1
1
1
1
1
1
1
1
1
1
1
1
1
1
1
1
1
1
1
1
1
1
1
1
1
1
1
1
1
1
1
1
1
1
1
1
1
1
1
1
1
1
1
1
1
1
1
1
1
1
1
1
1
1
1
1
1
1
1
1
1
1
1
1
1
1
1
1
1
1
1
1
1
1
1
1
1
1
1
1
1
1
1
1
1
1
1
1
1
1
1
1
1
1
1
1
1
1
1
1
1
1
1
1
1
1
1
1
1
1
1
1
1
1
1
1
1
1
1
1
1
1
1
1
1
1
1
1
1
1
1
1
1
1
1
1
1
1
1
1
1
1
1
1
1
1
1
1
1
1
1
1
1
1
1
1
1
1
1
1
1
1
1
1
1
1
1
1
1
1
1
1
1
1
1
1
1
1
1
1
1
1
1
1
1
1
1
1
1
1
1
1
1
1
1
1
1
1
1
1
1
1
1
1
1
1
1
1
1
1
1
1
1
1
1
1
1
1
1
1
1
1
1
1
1
1
1
1
1
1
1
1
1
1
1
1
1
1
1
1
1
1
1
1
1
1
1
1
1
1
1
1
1
1
1
1
1
1
1
1
1
1
1
1
1
1
1
1
1
1
1
1
1
1
1
1
1
1
1
1
1
1
1
1
1
1
1
1
1
1
1
1
1
1
1
1
1
1
1
1
1
1
1
1
1
1
1
1
1
1
1
1
1
1
1
1
1
1
1
1
1
1
1
1
1
1
1
1
1
1
1.0685
0.140011
0.100149
0.0719125
0.0393907
0.0431018
0.0642548
0.111926
0.166427
0.22602
0.303006
0.376814
0.453907
0.54481
0.610438
0.675842
0.759662
0.856375
0.916404
0.935062
0.957012
0.98437
1.00371
1.00137
1.02007
1.03799
1.05049
1.06525
1.09024
1.11323
1.13079
1.14525
1.15168
1.1612
1.17313
1.1837
1.1966
1.21512
1.23319
1.24034
1.24631
1.25053
1.25259
1.2525
1.25547
1.26818
1.28898
1.30969
1.32091
1.32306
1.32124
1.31597
1.30653
1.29844
1.29495
1.29529
1.30272
1.31109
1.31477
1.31716
1.31844
1.31791
1.31749
1.317
1.3165
1.3168
1.31693
1.31576
1.31343
1.30914
1.3031
1.29995
1.29872
1.29778
1.29763
1.29679
1.2977
1.32318
1.54663
2.47067
4.79796
7.20599
7.29559
6.82941
6.71917
6.60503
6.4021
6.27669
6.16938
6.08037
6.00444
5.92197
5.83853
5.76433
5.69947
5.64024
5.57785
5.51128
5.44594
5.38386
5.32608
5.27172
5.21175
5.14602
5.08032
5.01443
4.94888
4.88757
4.83321
4.78453
4.74415
4.71363
4.68391
4.64497
4.60136
4.55662
4.50523
4.44251
4.37446
4.32206
4.28607
4.25308
4.22167
4.18703
4.14929
4.10208
4.0395
3.97425
3.92936
3.89839
3.86972
3.84341
3.8164
3.78565
3.7514
3.7081
3.65542
3.60636
3.57048
3.54278
3.51808
3.49747
3.47967
3.45858
3.43611
3.40935
3.37091
3.32213
3.27618
3.24268
3.21732
3.19458
3.17215
3.1484
3.12038
3.08328
3.03504
2.99005
2.96305
2.94426
2.9266
2.9106
2.89719
2.88149
2.8633
2.84268
2.81357
2.7714
2.72289
2.68253
2.65528
2.63758
2.62362
2.61008
2.59628
2.58173
2.5648
2.54111
2.50928
2.47912
2.4576
2.441
2.42576
2.41016
2.39206
2.36727
2.33067
2.2899
2.26365
2.24912
2.23914
2.2209
1.96121
0.715682
0.536262
0.384326
0.21593
0.179703
0.193458
0.196453
0.204043
0.225108
0.23276
0.250507
0.28324
0.320401
0.378173
0.453122
0.52447
0.606663
0.691582
0.75786
0.824963
0.891307
0.957547
0.980745
0.996397
1.02883
1.05326
1.0642
1.08014
1.09252
1.10095
1.11696
1.13147
1.14613
1.16236
1.17753
1.19278
1.20824
1.22239
1.22972
1.2368
1.2431
1.24795
1.25162
1.25763
1.27058
1.28788
1.29988
1.30647
1.30841
1.30732
1.30497
1.30017
1.29649