/*--------------------------------*- C++ -*----------------------------------*\
  =========                 |
  \\      /  F ield         | OpenFOAM: The Open Source CFD Toolbox
   \\    /   O peration     | Website:  https://openfoam.org
    \\  /    A nd           | Version:  7
     \\/     M anipulation  |
\*---------------------------------------------------------------------------*/
FoamFile
{
    version     2.0;
    format      ascii;
    class       volScalarField;
    location    "2.2";
    object      T;
}
// * * * * * * * * * * * * * * * * * * * * * * * * * * * * * * * * * * * * * //

dimensions      [0 0 0 1 0 0 0];

internalField   nonuniform List<scalar> 
19968
(
1
1
1
1
1
1
1
1
1
1
1
1
1
1
1
1
1
1
1
1
1
1
1
1
1
1
1
1
1
1
1
1
1
1
1
1
1
1
1
1
1
1
1
1
1
1
1
1
1
1.4843
2.55319
2.69722
2.70054
2.70654
2.71169
2.71694
2.72223
2.72763
2.73258
2.73628
2.73834
2.73929
2.7403
2.74236
2.74612
2.75118
2.7562
2.75954
2.76069
2.76062
2.76103
2.76306
2.76802
2.77584
2.78449
2.79122
2.79463
2.79559
2.79587
2.79658
2.79865
2.80191
2.80503
2.8074
2.80881
2.80983
2.81076
2.81175
2.8134
2.81623
2.8201
2.82532
2.83223
2.83925
2.84411
2.84572
1
1
1
1
1
1
1
1
1
1
1
1
1
1
1
1
1
1
1
1
1
1
1
1
1
1
1
1
1
1
1
1
1
1
1
1
1
1
1
1
1
1
1
1
1
1
1
1
1
1.46675
2.54561
2.69524
2.70003
2.70622
2.71157
2.71686
2.72211
2.72739
2.73218
2.7358
2.73789
2.73899
2.74016
2.74235
2.74615
2.75123
2.75626
2.75967
2.76083
2.76071
2.76096
2.76281
2.76767
2.77548
2.78419
2.79098
2.79442
2.79535
2.79558
2.79626
2.79835
2.80165
2.80481
2.80719
2.80855
2.80952
2.81038
2.81133
2.81297
2.81577
2.81961
2.82486
2.83181
2.83887
2.8438
2.84547
1
1
1
1
1
1
1
1
1
1
1
1
1
1
1
1
1
1
1
1
1
1
1
1
1
1
1
1
1
1
1
1
1
1
1
1
1
1
1
1
1
1
1
1
1
1
1
1
1
1.42816
2.52928
2.69246
2.6984
2.7054
2.71105
2.71641
2.72153
2.7265
2.73098
2.73444
2.73662
2.73799
2.73954
2.74206
2.74606
2.75125
2.7563
2.75977
2.76096
2.76084
2.76096
2.76252
2.76716
2.77494
2.78374
2.79065
2.79412
2.79502
2.79517
2.7958
2.79791
2.80126
2.80447
2.80682
2.80808
2.80893
2.80968
2.81059
2.81227
2.81505
2.81885
2.82415
2.83114
2.83826
2.84325
2.845
1
1
1
1
1
1
1
1
1
1
1
1
1
1
1
1
1
1
1
1
1
1
1
1
1
1
1
1
1
1
1
1
1
1
1
1
1
1
1
1
1
1
1
1
1
1
1
1
1
1.36806
2.50309
2.68951
2.69698
2.70468
2.71052
2.71582
2.72064
2.72514
2.72919
2.73244
2.73472
2.73646
2.73854
2.74158
2.74592
2.75126
2.75629
2.75976
2.76096
2.76082
2.76083
2.76208
2.7664
2.774
2.78281
2.78985
2.79342
2.79433
2.79442
2.79502
2.79717
2.80057
2.80382
2.80614
2.80731
2.80803
2.80867
2.80953
2.81122
2.81395
2.81767
2.82306
2.83013
2.83733
2.84238
2.84422
1
1
1
1
1
1
1
1
1
1
1
1
1
1
1
1
1
1
1
1
1
1
1
1
1
1
1
1
1
1
1
1
1
1
1
1
1
1
1
1
1
1
1
1
1
1
1
1
1
1.28745
2.464
2.68674
2.69628
2.70442
2.71016
2.71501
2.71925
2.72318
2.72679
2.72988
2.7323
2.73446
2.73714
2.74081
2.74566
2.75124
2.75626
2.75969
2.76091
2.76074
2.76066
2.76169
2.76565
2.77293
2.78158
2.78864
2.7923
2.79322
2.79327
2.79383
2.79594
2.79934
2.80262
2.80493
2.80606
2.80669
2.80727
2.80807
2.80976
2.81239
2.81603
2.82153
2.82872
2.83602
2.84114
2.84307
1
1
1
1
1
1
1
1
1
1
1
1
1
1
1
1
1
1
1
1
1
1
1
1
1
1
1
1
1
1
1
1
1
1
1
1
1
1
1
1
1
1
1
1
1
1
1
1
1
1.19144
2.40992
2.68467
2.69554
2.70455
2.71012
2.71427
2.71761
2.72073
2.72382
2.72682
2.72956
2.7324
2.7359
2.74032
2.74565
2.75134
2.75621
2.75935
2.7604
2.76013
2.75999
2.76085
2.76451
2.77144
2.77983
2.78689
2.79067
2.79168
2.79175
2.79228
2.79428
2.79757
2.80086
2.80322
2.80437
2.80495
2.80545
2.80617
2.80776
2.81027
2.81387
2.81949
2.82682
2.83426
2.83944
2.84144
1
1
1
1
1
1
1
1
1
1
1
1
1
1
1
1
1
1
1
1
1
1
1
1
1
1
1
1
1
1
1
1
1
1
1
1
1
1
1
1
1
1
1
1
1
1
1
1
1
1.04399
2.32149
2.68392
2.69651
2.70513
2.71107
2.71482
2.71737
2.71958
2.722
2.72463
2.7275
2.73096
2.73526
2.74026
2.74569
2.75114
2.7555
2.75809
2.7589
2.75854
2.75835
2.75913
2.76259
2.76914
2.77718
2.78421
2.78816
2.78932
2.78942
2.78989
2.79167
2.79477
2.79807
2.80059
2.80189
2.80249
2.80296
2.80363
2.80511
2.80753
2.81118
2.81693
2.82443
2.832
2.83722
2.83925
1
1
1
1
1
1
1
1
1
1
1
1
1
1
1
1
1
1
1
1
1
1
1
1
1
1
1
1
1
1
1
1
1
1
1
1
1
1
1
1
1
1
1
1
1
1
1
1
1
1.00046
2.20769
2.67709
2.69509
2.70258
2.70875
2.71207
2.71394
2.71527
2.71698
2.71927
2.7223
2.72646
2.73182
2.73784
2.74381
2.74929
2.75331
2.75555
2.7564
2.75623
2.75626
2.75721
2.76061
2.76676
2.77434
2.78125
2.78538
2.78672
2.78685
2.78718
2.78862
2.79135
2.79454
2.79716
2.79856
2.79911
2.79944
2.79998
2.80135
2.80378
2.80754
2.81344
2.82107
2.82873
2.83391
2.83592
1
1
1
1
1
1
1
1
1
1
1
1
1
1
1
1
1
1
1
1
1
1
1
1
1
1
1
1
1
1
1
1
1
1
1
1
1
1
1
1
1
1
1
1
1
1
1
1
1
1
2.0411
2.66045
2.69285
2.6997
2.70565
2.70853
2.71013
2.71119
2.71259
2.71466
2.71771
2.72221
2.72829
2.73517
2.74172
2.74716
2.75062
2.75219
2.75278
2.75272
2.75283
2.75387
2.75704
2.7626
2.7696
2.77632
2.78072
2.78247
2.78281
2.78312
2.78425
2.78662
2.78964
2.79231
2.79383
2.79437
2.79464
2.79513
2.79655
2.79915
2.80307
2.80909
2.8168
2.82444
2.82947
2.83137
1
1
1
1
1
1
1
1
1
1
1
1
1
1
1
1
1
1
1
1
1
1
1
1
1
1
1
1
1
1
1
1
1
1
1
1
1
1
1
1
1
1
1
1
1
1
1
1
1
1
1.82048
2.62095
2.68599
2.6945
2.7009
2.70414
2.70583
2.70682
2.70806
2.70997
2.71294
2.71753
2.72395
2.73137
2.73831
2.74377
2.74695
2.74815
2.74865
2.74888
2.74922
2.75046
2.75338
2.75824
2.76442
2.7707
2.77535
2.77769
2.77844
2.77882
2.7797
2.78165
2.78433
2.78686
2.78834
2.78879
2.78895
2.78938
2.7908
2.79345
2.7974
2.80333
2.81094
2.81846
2.82332
2.82507
1
1
1
1
1
1
1
1
1
1
1
1
1
1
1
1
1
1
1
1
1
1
1
1
1
1
1
1
1
1
1
1
1
1
1
1
1
1
1
1
1
1
1
1
1
1
1
1
1
1
1.51511
2.52895
2.6769
2.68593
2.69408
2.69791
2.70027
2.7018
2.7034
2.7055
2.70847
2.71279
2.7188
2.72596
2.73285
2.7383
2.7417
2.74315
2.74386
2.74443
2.74504
2.74637
2.74885
2.75281
2.75791
2.76343
2.76811
2.77106
2.77237
2.77299
2.77374
2.77524
2.77739
2.7795
2.78073
2.78105
2.78114
2.7816
2.78306
2.78582
2.78988
2.7957
2.80328
2.81088
2.81582
2.81758
1
1
1
1
1
1
1
1
1
1
1
1
1
1
1
1
1
1
1
1
1
1
1
1
1
1
1
1
1
1
1
1
1
1
1
1
1
1
1
1
1
1
1
1
1
1
1
1
1
1
1.10275
2.35669
2.68079
2.68746
2.69313
2.69671
2.69917
2.70103
2.70287
2.70498
2.7075
2.71068
2.71493
2.72028
2.72593
2.7309
2.73464
2.73681
2.73794
2.73881
2.73964
2.74088
2.74284
2.74581
2.74975
2.7543
2.75871
2.76212
2.76415
2.76527
2.76616
2.76741
2.76907
2.7707
2.77167
2.77192
2.77208
2.77262
2.77404
2.77656
2.78015
2.78535
2.79254
2.80008
2.80518
2.80695
1
1
1
1
1
1
1
1
1
1
1
1
1
1
1
1
1
1
1
1
1
1
1
1
1
1
1
1
1
1
1
1
1
1
1
1
1
1
1
1
1
1
1
1
1
1
1
1
1
1
1.00084
2.09269
2.66397
2.67351
2.6776
2.68257
2.687
2.69076
2.69403
2.6971
2.70007
2.70305
2.70628
2.71008
2.71435
2.71864
2.72257
2.72573
2.72799
2.72969
2.73116
2.73257
2.73423
2.73638
2.73923
2.74266
2.74632
2.74965
2.75218
2.75392
2.75528
2.75657
2.75792
2.75904
2.75951
2.75941
2.75922
2.75942
2.76038
2.7623
2.76536
2.77028
2.77749
2.78541
2.79094
2.7929
1
1
1
1
1
1
1
1
1
1
1
1
1
1
1
1
1
1
1
1
1
1
1
1
1
1
1
1
1
1
1
1
1
1
1
1
1
1
1
1
1
1
1
1
1
1
1
1
1
1
1
1.63423
2.55498
2.66109
2.66551
2.67225
2.67749
2.68174
2.68543
2.68899
2.69254
2.69591
2.69895
2.70178
2.7047
2.70792
2.7115
2.71522
2.71861
2.72127
2.72333
2.72488
2.72623
2.72764
2.72941
2.73156
2.734
2.73647
2.7387
2.74059
2.7422
2.74355
2.74463
2.74518
2.74503
2.74458
2.74411
2.74404
2.74453
2.74574
2.74771
2.7513
2.75673
2.76258
2.76586
2.76581
1
1
1
1
1
1
1
1
1
1
1
1
1
1
1
1
1
1
1
1
1
1
1
1
1
1
1
1
1
1
1
1
1
1
1
1
1
1
1
1
1
1
1
1
1
1
1
1
1
1
1
1.03894
2.29832
2.66911
2.66865
2.66919
2.67054
2.67249
2.67512
2.67828
2.68173
2.68511
2.68799
2.69022
2.6922
2.69453
2.69768
2.70161
2.70578
2.70938
2.712
2.71372
2.71481
2.71566
2.7166
2.71776
2.71918
2.72053
2.72184
2.72323
2.72463
2.72594
2.72679
2.72678
2.72606
2.72466
2.72293
2.72107
2.71916
2.71739
2.71639
2.71685
2.71992
2.72478
2.72926
2.73057
1
1
1
1
1
1
1
1
1
1
1
1
1
1
1
1
1
1
1
1
1
1
1
1
1
1
1
1
1
1
1
1
1
1
1
1
1
1
1
1
1
1
1
1
1
1
1
1
1
1
1
1.00009
1.82388
2.58729
2.64961
2.65302
2.65564
2.6583
2.6613
2.66448
2.66772
2.67084
2.67357
2.67575
2.67757
2.67959
2.68238
2.68613
2.69051
2.69466
2.69779
2.69989
2.70089
2.70138
2.70188
2.70266
2.7035
2.70375
2.70379
2.70392
2.70425
2.70463
2.70469
2.704
2.70223
2.69953
2.69615
2.69225
2.68794
2.68355
2.67999
2.6785
2.67895
2.68462
2.68998
2.70964
1
1
1
1
1
1
1
1
1
1
1
1
1
1
1
1
1
1
1
1
1
1
1
1
1
1
1
1
1
1
1
1
1
1
1
1
1
1
1
1
1
1
1
1
1
1
1
1
1
1
1
1
1.18142
2.37986
2.6417
2.6417
2.64404
2.64719
2.65053
2.6539
2.65697
2.65958
2.66172
2.66344
2.66484
2.66639
2.66857
2.6717
2.67562
2.67979
2.68321
2.68541
2.68634
2.68659
2.68682
2.68734
2.68783
2.68771
2.68702
2.68587
2.68476
2.68376
2.68262
2.68083
2.67791
2.67365
2.66801
2.66097
2.65209
2.64112
2.62716
2.6096
2.58422
2.54852
2.49113
2.3704
1
1
1
1
1
1
1
1
1
1
1
1
1
1
1
1
1
1
1
1
1
1
1
1
1
1
1
1
1
1
1
1
1
1
1
1
1
1
1
1
1
1
1
1
1
1
1
1
1
1
1
1
1.00275
2.0639
2.61889
2.62795
2.63092
2.63498
2.63945
2.64394
2.64762
2.65044
2.65244
2.65387
2.65492
2.65593
2.6574
2.65973
2.66256
2.66607
2.66933
2.67167
2.67276
2.67292
2.67298
2.67324
2.67359
2.67346
2.67248
2.67049
2.66802
2.66541
2.66272
2.65959
2.65529
2.64943
2.64144
2.63129
2.61795
2.60119
2.5785
2.54941
2.50772
2.45548
2.34658
2.1905
1
1
1
1
1
1
1
1
1
1
1
1
1
1
1
1
1
1
1
1
1
1
1
1
1
1
1
1
1
1
1
1
1
1
1
1
1
1
1
1
1
1
1
1
1
1
1
1
1
1
1
1
1
1.45161
2.45808
2.61347
2.61631
2.6212
2.62626
2.63208
2.63714
2.6411
2.64369
2.64517
2.646
2.64653
2.64732
2.64866
2.65016
2.65241
2.65483
2.65683
2.65786
2.65798
2.65793
2.65794
2.65803
2.65785
2.65683
2.65451
2.65105
2.64689
2.64234
2.63742
2.63141
2.62388
2.61379
2.60095
2.58412
2.56272
2.53474
2.49785
2.45041
2.37885
2.27647
2.14458
1
1
1
1
1
1
1
1
1
1
1
1
1
1
1
1
1
1
1
1
1
1
1
1
1
1
1
1
1
1
1
1
1
1
1
1
1
1
1
1
1
1
1
1
1
1
1
1
1
1
1
1
1
1.02092
2.15255
2.60901
2.60764
2.60821
2.61164
2.61784
2.62425
2.6295
2.63302
2.63502
2.63616
2.63694
2.63785
2.63885
2.63916
2.63979
2.64063
2.64155
2.64211
2.64216
2.642
2.64167
2.6414
2.64107
2.64007
2.63782
2.63391
2.62862
2.62229
2.61535
2.60741
2.5981
2.58636
2.57158
2.5527
2.52863
2.49824
2.45849
2.40797
2.34136
2.25629
2.15881
1
1
1
1
1
1
1
1
1
1
1
1
1
1
1
1
1
1
1
1
1
1
1
1
1
1
1
1
1
1
1
1
1
1
1
1
1
1
1
1
1
1
1
1
1
1
1
1
1
1
1
1
1
1.00002
1.49827
2.45788
2.59505
2.59434
2.59816
2.60426
2.61068
2.61613
2.61994
2.62237
2.62408
2.62562
2.62728
2.62863
2.62858
2.62826
2.62774
2.62734
2.62693
2.62654
2.62597
2.62517
2.62439
2.62364
2.6224
2.62013
2.61611
2.6104
2.60302
2.59444
2.58464
2.57349
2.56032
2.54431
2.52455
2.4998
2.46922
2.43043
2.3826
2.32572
2.25917
2.18056
1
1
1
1
1
1
1
1
1
1
1
1
1
1
1
1
1
1
1
1
1
1
1
1
1
1
1
1
1
1
1
1
1
1
1
1
1
1
1
1
1
1
1
1
1
1
1
1
1
1
1
1
1
1
1.02442
2.13744
2.59224
2.59124
2.59199
2.59471
2.59882
2.60299
2.60623
2.60843
2.61017
2.61207
2.61445
2.61681
2.61759
2.6171
2.61589
2.61438
2.61279
2.61143
2.61001
2.60845
2.60691
2.60546
2.6037
2.60127
2.5974
2.59181
2.58423
2.57478
2.56354
2.55076
2.53627
2.51944
2.4996
2.47548
2.44653
2.41096
2.36832
2.32088
2.26595
2.20294
1
1
1
1
1
1
1
1
1
1
1
1
1
1
1
1
1
1
1
1
1
1
1
1
1
1
1
1
1
1
1
1
1
1
1
1
1
1
1
1
1
1
1
1
1
1
1
1
1
1
1
1
1
1
1.00004
1.42516
2.41636
2.58126
2.58115
2.58447
2.58821
2.59102
2.59311
2.59454
2.59566
2.59724
2.59966
2.60268
2.60462
2.60456
2.60361
2.60189
2.59967
2.5974
2.59507
2.59275
2.59044
2.58812
2.58551
2.58245
2.57838
2.57288
2.5655
2.556
2.54429
2.53068
2.51525
2.4978
2.47821
2.45484
2.42831
2.39646
2.35945
2.31933
2.27259
2.22124
1
1
1
1
1
1
1
1
1
1
1
1
1
1
1
1
1
1
1
1
1
1
1
1
1
1
1
1
1
1
1
1
1
1
1
1
1
1
1
1
1
1
1
1
1
1
1
1
1
1
1
1
1
1
1
1.0162
2.03476
2.56091
2.57647
2.57614
2.57799
2.58013
2.58133
2.58188
2.58249
2.5832
2.5849
2.58759
2.59006
2.59063
2.59015
2.5888
2.58649
2.58368
2.58068
2.57783
2.57475
2.57137
2.56761
2.56354
2.55888
2.55334
2.54633
2.53728
2.52596
2.51243
2.49695
2.47924
2.46023
2.43748
2.41316
2.38507
2.35277
2.31856
2.2786
2.2366
1
1
1
1
1
1
1
1
1
1
1
1
1
1
1
1
1
1
1
1
1
1
1
1
1
1
1
1
1
1
1
1
1
1
1
1
1
1
1
1
1
1
1
1
1
1
1
1
1
1
1
1
1
1
1
1.00002
1.21441
2.33451
2.56811
2.5646
2.56651
2.56858
2.56949
2.5697
2.56977
2.57
2.5709
2.57275
2.57483
2.5755
2.57527
2.57428
2.57215
2.56931
2.56618
2.5632
2.55991
2.55598
2.55149
2.54648
2.54099
2.53489
2.5277
2.51888
2.50814
2.49522
2.48053
2.46306
2.44491
2.42305
2.40071
2.37545
2.3469
2.31715
2.28277
2.24757
1
1
1
1
1
1
1
1
1
1
1
1
1
1
1
1
1
1
1
1
1
1
1
1
1
1
1
1
1
1
1
1
1
1
1
1
1
1
1
1
1
1
1
1
1
1
1
1
1
1
1
1
1
1
1
1
1.00319
1.8072
2.49097
2.53714
2.54669
2.55123
2.55342
2.55436
2.55469
2.55512
2.55589
2.55734
2.55877
2.55901
2.55871
2.5578
2.55587
2.55334
2.55061
2.54787
2.54481
2.54102
2.53614
2.53041
2.52401
2.51717
2.5094
2.50056
2.49042
2.47841
2.46481
2.44823
2.43122
2.41091
2.39045
2.36728
2.34212
2.31524
2.28601
2.25542
1
1
1
1
1
1
1
1
1
1
1
1
1
1
1
1
1
1
1
1
1
1
1
1
1
1
1
1
1
1
1
1
1
1
1
1
1
1
1
1
1
1
1
1
1
1
1
1
1
1
1
1
1
1
1
1
1
1.08446
2.16214
2.53416
2.53724
2.5364
2.53755
2.53925
2.54081
2.54227
2.54379
2.5454
2.54611
2.54571
2.54469
2.54306
2.54074
2.53811
2.53545
2.53276
2.52981
2.52626
2.52162
2.51565
2.50874
2.50119
2.49276
2.48376
2.47391
2.46245
2.44971
2.43437
2.41848
2.39987
2.38108
2.35964
2.3373
2.31279
2.28726
2.25983
1
1
1
1
1
1
1
1
1
1
1
1
1
1
1
1
1
1
1
1
1
1
1
1
1
1
1
1
1
1
1
1
1
1
1
1
1
1
1
1
1
1
1
1
1
1
1
1
1
1
1
1
1
1
1
1
1
1.00048
1.34449
2.33977
2.5191
2.51592
2.51799
2.5206
2.52393
2.52721
2.53012
2.53235
2.53276
2.53206
2.5305
2.52831
2.52559
2.52271
2.51975
2.51674
2.5137
2.51027
2.50592
2.50023
2.49314
2.48538
2.47686
2.46764
2.4579
2.44705
2.43506
2.42122
2.40631
2.3895
2.37205
2.35242
2.33234
2.31009
2.28713
2.26248
1
1
1
1
1
1
1
1
1
1
1
1
1
1
1
1
1
1
1
1
1
1
1
1
1
1
1
1
1
1
1
1
1
1
1
1
1
1
1
1
1
1
1
1
1
1
1
1
1
1
1
1
1
1
1
1
1
1
1.00914
1.81621
2.45371
2.49623
2.49622
2.49922
2.50379
2.50885
2.51356
2.51689
2.51799
2.51746
2.51613
2.51411
2.51142
2.50844
2.50509
2.50149
2.498
2.49432
2.48965
2.48387
2.47707
2.46975
2.46152
2.45264
2.44319
2.4329
2.42148
2.40896
2.39489
2.37965
2.36316
2.34534
2.32689
2.30667
2.28574
2.26361
1
1
1
1
1
1
1
1
1
1
1
1
1
1
1
1
1
1
1
1
1
1
1
1
1
1
1
1
1
1
1
1
1
1
1
1
1
1
1
1
1
1
1
1
1
1
1
1
1
1
1
1
1
1
1
1
1
1
1.00001
1.08806
2.05196
2.4709
2.48665
2.49093
2.49449
2.49764
2.50055
2.50266
2.50339
2.50281
2.50157
2.49988
2.49747
2.49454
2.49092
2.4869
2.48274
2.47826
2.47302
2.46698
2.46051
2.45351
2.44605
2.43783
2.42901
2.41941
2.40858
2.39696
2.38386
2.36985
2.35447
2.33841
2.32128
2.30304
2.28378
2.26389
1
1
1
1
1
1
1
1
1
1
1
1
1
1
1
1
1
1
1
1
1
1
1
1
1
1
1
1
1
1
1
1
1
1
1
1
1
1
1
1
1
1
1
1
1
1
1
1
1
1
1
1
1
1
1
1
1
1
1
1.00054
1.20907
2.18475
2.46004
2.48481
2.48519
2.48671
2.48835
2.48882
2.48845
2.48736
2.4859
2.48434
2.48232
2.47968
2.4764
2.47254
2.46807
2.46302
2.45744
2.45121
2.44483
2.43811
2.43099
2.42335
2.41514
2.40621
2.39624
2.38544
2.37339
2.36028
2.34606
2.33127
2.31552
2.29901
2.28136
2.26326
1
1
1
1
1
1
1
1
1
1
1
1
1
1
1
1
1
1
1
1
1
1
1
1
1
1
1
1
1
1
1
1
1
1
1
1
1
1
1
1
1
1
1
1
1
1
1
1
1
1
1
1
1
1
1
1
1
1
1
1
1.00298
1.37004
2.28261
2.46125
2.46467
2.46858
2.47026
2.4708
2.47039
2.4696
2.46851
2.46736
2.46582
2.4638
2.4613
2.45809
2.45397
2.44898
2.44333
2.43719
2.43073
2.42403
2.417
2.40954
2.40161
2.39308
2.38387
2.37383
2.36272
2.35041
2.33739
2.32377
2.3096
2.29452
2.2785
2.26171
1
1
1
1
1
1
1
1
1
1
1
1
1
1
1
1
1
1
1
1
1
1
1
1
1
1
1
1
1
1
1
1
1
1
1
1
1
1
1
1
1
1
1
1
1
1
1
1
1
1
1
1
1
1
1
1
1
1
1
1
1
1.01065
1.70926
2.37896
2.44674
2.44424
2.44571
2.44652
2.44706
2.4475
2.4477
2.44772
2.44741
2.44662
2.44523
2.44304
2.43981
2.43554
2.43041
2.42472
2.41866
2.41216
2.40509
2.3974
2.38927
2.38082
2.37197
2.36237
2.35177
2.34016
2.32827
2.31576
2.303
2.2892
2.27478
2.25926
1
1
1
1
1
1
1
1
1
1
1
1
1
1
1
1
1
1
1
1
1
1
1
1
1
1
1
1
1
1
1
1
1
1
1
1
1
1
1
1
1
1
1
1
1
1
1
1
1
1
1
1
1
1
1
1
1
1
1
1
1
1.00002
1.06031
1.92746
2.4212
2.43461
2.42905
2.42736
2.42667
2.42692
2.42734
2.42792
2.42837
2.42832
2.42787
2.42672
2.42464
2.4216
2.41776
2.41319
2.40794
2.40192
2.39497
2.387
2.37834
2.36965
2.36075
2.35121
2.3407
2.32964
2.31863
2.30719
2.29566
2.28312
2.27017
2.25602
1
1
1
1
1
1
1
1
1
1
1
1
1
1
1
1
1
1
1
1
1
1
1
1
1
1
1
1
1
1
1
1
1
1
1
1
1
1
1
1
1
1
1
1
1
1
1
1
1
1
1
1
1
1
1
1
1
1
1
1
1
1
1.00029
1.14107
2.03342
2.41605
2.42002
2.41572
2.41406
2.41233
2.41141
2.41093
2.4106
2.41008
2.40936
2.40837
2.40701
2.40521
2.40297
2.40011
2.39631
2.39143
2.3853
2.37774
2.36909
2.36029
2.35122
2.34149
2.33078
2.3199
2.3093
2.29851
2.2877
2.27616
2.26442
2.25173
1
1
1
1
1
1
1
1
1
1
1
1
1
1
1
1
1
1
1
1
1
1
1
1
1
1
1
1
1
1
1
1
1
1
1
1
1
1
1
1
1
1
1
1
1
1
1
1
1
1
1
1
1
1
1
1
1
1
1
1
1
1
1
1.00136
1.21361
2.08989
2.39547
2.40944
2.40708
2.40464
2.402
2.39941
2.39684
2.39454
2.39263
2.39106
2.38964
2.38825
2.38664
2.38456
2.38194
2.37844
2.37361
2.36716
2.35943
2.35123
2.34249
2.33291
2.32224
2.31141
2.30096
2.29047
2.27998
2.26907
2.25816
2.24667
1
1
1
1
1
1
1
1
1
1
1
1
1
1
1
1
1
1
1
1
1
1
1
1
1
1
1
1
1
1
1
1
1
1
1
1
1
1
1
1
1
1
1
1
1
1
1
1
1
1
1
1
1
1
1
1
1
1
1
1
1
1
1
1
1.00315
1.27603
2.11601
2.37589
2.39694
2.39593
2.39385
2.39073
2.3871
2.38321
2.37942
2.37616
2.37362
2.3716
2.36967
2.36769
2.36551
2.36267
2.35878
2.35366
2.34751
2.34067
2.33302
2.3243
2.31428
2.30396
2.29388
2.2837
2.27331
2.26267
2.25218
2.24136
1
1
1
1
1
1
1
1
1
1
1
1
1
1
1
1
1
1
1
1
1
1
1
1
1
1
1
1
1
1
1
1
1
1
1
1
1
1
1
1
1
1
1
1
1
1
1
1
1
1
1
1
1
1
1
1
1
1
1
1
1
1
1
1
1
1.00548
1.32364
2.12894
2.35781
2.38175
2.38126
2.37967
2.37705
2.37352
2.36932
2.3651
2.36114
2.3575
2.35429
2.35144
2.3486
2.34553
2.3421
2.33816
2.33361
2.32825
2.32191
2.31447
2.30588
2.2967
2.28731
2.27762
2.26742
2.25702
2.24679
2.23631
1
1
1
1
1
1
1
1
1
1
1
1
1
1
1
1
1
1
1
1
1
1
1
1
1
1
1
1
1
1
1
1
1
1
1
1
1
1
1
1
1
1
1
1
1
1
1
1
1
1
1
1
1
1
1
1
1
1
1
1
1
1
1
1
1
1.00001
1.00791
1.35778
2.13272
2.33947
2.36342
2.36397
2.36313
2.36107
2.3583
2.35481
2.3507
2.3464
2.34212
2.338
2.33406
2.33011
2.32635
2.32266
2.31878
2.3144
2.30926
2.30325
2.29633
2.28861
2.28033
2.2715
2.26185
2.25189
2.24197
2.23177
1
1
1
1
1
1
1
1
1
1
1
1
1
1
1
1
1
1
1
1
1
1
1
1
1
1
1
1
1
1
1
1
1
1
1
1
1
1
1
1
1
1
1
1
1
1
1
1
1
1
1
1
1
1
1
1
1
1
1
1
1
1
1
1
1
1
1.00002
1.01008
1.37821
2.12355
2.32311
2.34419
2.34497
2.34493
2.3439
2.34181
2.33887
2.33532
2.33124
2.32671
2.32197
2.31732
2.31296
2.30881
2.30469
2.3004
2.29573
2.29059
2.28487
2.27843
2.27134
2.26356
2.25489
2.24571
2.23639
2.22677
1
1
1
1
1
1
1
1
1
1
1
1
1
1
1
1
1
1
1
1
1
1
1
1
1
1
1
1
1
1
1
1
1
1
1
1
1
1
1
1
1
1
1
1
1
1
1
1
1
1
1
1
1
1
1
1
1
1
1
1
1
1
1
1
1
1
1
1.00002
1.01162
1.38012
2.10517
2.30418
2.32653
2.32587
2.32588
2.32516
2.32395
2.32187
2.31887
2.31508
2.3108
2.30642
2.30197
2.29746
2.29287
2.28817
2.28326
2.27816
2.2728
2.26695
2.26062
2.25373
2.24615
2.23798
2.22952
2.22073
1
1
1
1
1
1
1
1
1
1
1
1
1
1
1
1
1
1
1
1
1
1
1
1
1
1
1
1
1
1
1
1
1
1
1
1
1
1
1
1
1
1
1
1
1
1
1
1
1
1
1
1
1
1
1
1
1
1
1
1
1
1
1
1
1
1
1
1
1.00003
1.01189
1.366
2.07255
2.28353
2.30925
2.30618
2.30663
2.30635
2.30561
2.30425
2.30214
2.29943
2.29617
2.29235
2.28803
2.28329
2.27823
2.27286
2.26731
2.2616
2.25564
2.24944
2.24291
2.23605
2.22871
2.22105
2.21305
1
1
1
1
1
1
1
1
1
1
1
1
1
1
1
1
1
1
1
1
1
1
1
1
1
1
1
1
1
1
1
1
1
1
1
1
1
1
1
1
1
1
1
1
1
1
1
1
1
1
1
1
1
1
1
1
1
1
1
1
1
1
1
1
1
1
1
1
1
1.00003
1.01092
1.33512
2.02052
2.25738
2.29301
2.28853
2.2888
2.2887
2.28831
2.28762
2.28635
2.28437
2.28155
2.2779
2.27356
2.26864
2.26326
2.25756
2.2516
2.24547
2.23911
2.23258
2.22592
2.21893
2.21173
2.20427
1
1
1
1
1
1
1
1
1
1
1
1
1
1
1
1
1
1
1
1
1
1
1
1
1
1
1
1
1
1
1
1
1
1
1
1
1
1
1
1
1
1
1
1
1
1
1
1
1
1
1
1
1
1
1
1
1
1
1
1
1
1
1
1
1
1
1
1
1
1
1.00003
1.00896
1.28676
1.93563
2.23095
2.27593
2.27186
2.2722
2.27241
2.27214
2.27151
2.27025
2.26823
2.26544
2.26194
2.2578
2.25309
2.24786
2.24223
2.2363
2.23004
2.22358
2.2169
2.20997
2.20294
2.19567
1
1
1
1
1
1
1
1
1
1
1
1
1
1
1
1
1
1
1
1
1
1
1
1
1
1
1
1
1
1
1
1
1
1
1
1
1
1
1
1
1
1
1
1
1
1
1
1
1
1
1
1
1
1
1
1
1
1
1
1
1
1
1
1
1
1
1
1
1
1
1
1.00002
1.00642
1.21916
1.82549
2.2013
2.25852
2.25594
2.25614
2.25566
2.25476
2.25353
2.25179
2.2496
2.24699
2.24393
2.24035
2.23628
2.23172
2.22665
2.22113
2.21516
2.20879
2.20212
2.19518
2.18799
1
1
1
1
1
1
1
1
1
1
1
1
1
1
1
1
1
1
1
1
1
1
1
1
1
1
1
1
1
1
1
1
1
1
1
1
1
1
1
1
1
1
1
1
1
1
1
1
1
1
1
1
1
1
1
1
1
1
1
1
1
1
1
1
1
1
1
1
1
1
1
1
1.00001
1.00381
1.14601
1.72097
2.16728
2.24169
2.24097
2.23845
2.23728
2.23527
2.23322
2.23112
2.22904
2.22686
2.2245
2.22181
2.21867
2.215
2.21076
2.20587
2.20038
2.19433
2.1878
2.18105
1
1
1
1
1
1
1
1
1
1
1
1
1
1
1
1
1
1
1
1
1
1
1
1
1
1
1
1
1
1
1
1
1
1
1
1
1
1
1
1
1
1
1
1
1
1
1
1
1
1
1
1
1
1
1
1
1
1
1
1
1
1
1
1
1
1
1
1
1
1
1
1
1
1.00001
1.00182
1.09225
1.61782
2.12768
2.22093
2.22826
2.22238
2.21962
2.21616
2.21342
2.21106
2.20905
2.20721
2.20531
2.20321
2.20076
2.19777
2.19414
2.18987
2.18486
2.17929
2.17333
1
1
1
1
1
1
1
1
1
1
1
1
1
1
1
1
1
1
1
1
1
1
1
1
1
1
1
1
1
1
1
1
1
1
1
1
1
1
1
1
1
1
1
1
1
1
1
1
1
1
1
1
1
1
1
1
1
1
1
1
1
1
1
1
1
1
1
1
1
1
1
1
1
1
1
1.00082
1.0547
1.51422
2.06399
2.20024
2.21568
2.20834
2.20445
2.20061
2.19729
2.19437
2.19194
2.1897
2.18759
2.1854
2.18294
2.18019
2.17691
2.173
2.16865
2.16372
1
1
1
1
1
1
1
1
1
1
1
1
1
1
1
1
1
1
1
1
1
1
1
1
1
1
1
1
1
1
1
1
1
1
1
1
1
1
1
1
1
1
1
1
1
1
1
1
1
1
1
1
1
1
1
1
1
1
1
1
1
1
1
1
1
1
1
1
1
1
1
1
1
1
1
1
1.00034
1.03028
1.40108
1.96183
2.17601
2.2018
2.19673
2.19266
2.18855
2.18487
2.18121
2.17791
2.17495
2.17203
2.16923
2.16629
2.16308
2.1598
2.15608
2.15197
1
1
1
1
1
1
1
1
1
1
1
1
1
1
1
1
1
1
1
1
1
1
1
1
1
1
1
1
1
1
1
1
1
1
1
1
1
1
1
1
1
1
1
1
1
1
1
1
1
1
1
1
1
1
1
1
1
1
1
1
1
1
1
1
1
1
1
1
1
1
1
1
1
1
1
1
1
1.00013
1.01519
1.276
1.82308
2.13711
2.18662
2.18457
2.18032
2.17657
2.17304
2.16942
2.16568
2.16211
2.15855
2.15483
2.15132
2.14758
2.1436
2.13989
1
1
1
1
1
1
1
1
1
1
1
1
1
1
1
1
1
1
1
1
1
1
1
1
1
1
1
1
1
1
1
1
1
1
1
1
1
1
1
1
1
1
1
1
1
1
1
1
1
1
1
1
1
1
1
1
1
1
1
1
1
1
1
1
1
1
1
1
1
1
1
1
1
1
1
1
1
1
1.00005
1.00649
1.16011
1.66386
2.07858
2.15707
2.17597
2.16888
2.1656
2.16208
2.15823
2.15408
2.14981
2.14583
2.14167
2.13729
2.13335
2.12926
1
1
1
1
1
1
1
1
1
1
1
1
1
1
1
1
1
1
1
1
1
1
1
1
1
1
1
1
1
1
1
1
1
1
1
1
1
1
1
1
1
1
1
1
1
1
1
1
1
1
1
1
1
1
1
1
1
1
1
1
1
1
1
1
1
1
1
1
1
1
1
1
1
1
1
1
1
1
1
1.00001
1.00228
1.07766
1.50118
1.97572
2.13246
2.16061
2.15677
2.1529
2.14907
2.14504
2.14107
2.13706
2.13292
2.12899
2.12457
2.12003
1
1
1
1
1
1
1
1
1
1
1
1
1
1
1
1
1
1
1
1
1
1
1
1
1
1
1
1
1
1
1
1
1
1
1
1
1
1
1
1
1
1
1
1
1
1
1
1
1
1
1
1
1
1
1
1
1
1
1
1
1
1
1
1
1
1
1
1
1
1
1
1
1
1
1
1
1
1
1
1
1
1.00066
1.03132
1.33893
1.83191
2.09477
2.14386
2.14309
2.13759
2.13414
2.13135
2.12815
2.12489
2.12107
2.11684
2.11287
1
1
1
1
1
1
1
1
1
1
1
1
1
1
1
1
1
1
1
1
1
1
1
1
1
1
1
1
1
1
1
1
1
1
1
1
1
1
1
1
1
1
1
1
1
1
1
1
1
1
1
1
1
1
1
1
1
1
1
1
1
1
1
1
1
1
1
1
1
1
1
1
1
1
1
1
1
1
1
1
1
1
1.00015
1.01109
1.18973
1.64959
2.03564
2.11336
2.12811
2.1247
2.12046
2.11721
2.1151
2.11274
2.10928
2.10496
1
1
1
1
1
1
1
1
1
1
1
1
1
1
1
1
1
1
1
1
1
1
1
1
1
1
1
1
1
1
1
1
1
1
1
1
1
1
1
1
1
1
1
1
1
1
1
1
1
1
1
1
1
1
1
1
1
1
1
1
1
1
1
1
1
1
1
1
1
1
1
1
1
1
1
1
1
1
1
1
1
1
1
1.00003
1.00333
1.08033
1.47795
1.90843
2.08032
2.11513
2.11323
2.10864
2.1053
2.10268
2.0993
2.09426
1
1
1
1
1
1
1
1
1
1
1
1
1
1
1
1
1
1
1
1
1
1
1
1
1
1
1
1
1
1
1
1
1
1
1
1
1
1
1
1
1
1
1
1
1
1
1
1
1
1
1
1
1
1
1
1
1
1
1
1
1
1
1
1
1
1
1
1
1
1
1
1
1
1
1
1
1
1
1
1
1
1
1
1
1.00001
1.00073
1.02922
1.29071
1.74632
2.0307
2.08532
2.10031
2.09742
2.09326
2.09098
2.08691
1
1
1
1
1
1
1
1
1
1
1
1
1
1
1
1
1
1
1
1
1
1
1
1
1
1
1
1
1
1
1
1
1
1
1
1
1
1
1
1
1
1
1
1
1
1
1
1
1
1
1
1
1
1
1
1
1
1
1
1
1
1
1
1
1
1
1
1
1
1
1
1
1
1
1
1
1
1
1
1
1
1
1
1
1
1
1.00014
1.00827
1.1404
1.53744
1.94525
2.0558
2.07699
2.08018
2.07885
2.07822
1
1
1
1
1
1
1
1
1
1
1
1
1
1
1
1
1
1
1
1
1
1
1
1
1
1
1
1
1
1
1
1
1
1
1
1
1
1
1
1
1
1
1
1
1
1
1
1
1
1
1
1
1
1
1
1
1
1
1
1
1
1
1
1
1
1
1
1
1
1
1
1
1
1
1
1
1
1
1
1
1
1
1
1
1
1
1
1.00002
1.00204
1.04591
1.36433
1.76978
2.02377
2.0615
2.06803
2.06679
1
1
1
1
1
1
1
1
1
1
1
1
1
1
1
1
1
1
1
1
1
1
1
1
1
1
1
1
1
1
1
1
1
1
1
1
1
1
1
1
1
1
1
1
1
1
1
1
1
1
1
1
1
1
1
1
1
1
1
1
1
1
1
1
1
1
1
1
1
1
1
1
1
1
1
1
1
1
1
1
1
1
1
1
1
1
1
1
1
1.0003
1.01466
1.17201
1.58584
1.9086
2.03825
2.06444
1
1
1
1
1
1
1
1
1
1
1
1
1
1
1
1
1
1
1
1
1
1
1
1
1
1
1
1
1
1
1
1
1
1
1
1
1
1
1
1
1
1
1
1
1
1
1
1
1
1
1
1
1
1
1
1
1
1
1
1
1
1
1
1
1
1
1
1
1
1
1
1
1
1
1
1
1
1
1
1
1
1
1
1
1
1
1
1
1
1
1.00005
1.00301
1.0632
1.3604
1.76023
1.99213
1
1
1
1
1
1
1
1
1
1
1
1
1
1
1
1
1
1
1
1
1
1
1
1
1
1
1
1
1
1
1
1
1
1
1
1
1
1
1
1
1
1
1
1
1
1
1
1
1
1
1
1
1
1
1
1
1
1
1
1
1
1
1
1
1
1
1
1
1
1
1
1
1
1
1
1
1
1
1
1
1
1
1
1
1
1
1
1
1
1
1
1.00001
1.0005
1.01593
1.17737
1.58785
1
1
1
1
1
1
1
1
1
1
1
1
1
1
1
1
1
1
1
1
1
1
1
1
1
1
1
1
1
1
1
1
1
1
1
1
1
1
1
1
1
1
1
1
1
1
1
1
1
1
1
1
1
1
1
1
1
1
1
1
1
1
1
1
1
1
1
1
1
1
1
1
1
1
1
1
1
1
1
1
1
1
1
1
1
1
1
1
1
1
1
1
1
1.00006
1.00345
1.06539
1
1
1
1
1
1
1
1
1
1
1
1
1
1
1
1
1
1
1
1
1
1
1
1
1
1
1
1
1
1
1
1
1
1
1
1
1
1
1
1
1
1
1
1
1
1
1
1
1
1
1
1
1
1
1
1
1
1
1
1
1
1
1
1
1
1
1
1
1
1
1
1
1
1
1
1
1
1
1
1
1
1
1
1
1
1
1
1
1
1
1
1
1
1
1.00001
1.00049
1
1
1
1
1
1
1
1
1
1
1
1
1
1
1
1
1
1
1
1
1
1
1
1
1
1
1
1
1
1
1
1
1
1
1
1
1
1
1
1
1
1
1
1
1
1
1
1
1
1
1
1
1
1
1
1
1
1
1
1
1
1
1
1
1
1
1
1
1
1
1
1
1
1
1
1
1
1
1
1
1
1
1
1
1
1
1
1
1
1
1
1
1
1
1
1
1
1
1
1
1
1
1
1
1
1
1
1
1
1
1
1
1
1
1
1
1
1
1
1
1
1
1
1
1
1
1
1
1
1
1
1
1
1
1
1
1
1
1
1
1
1
1
1
1
1
1
1
1
1
1
1
1
1
1
1
1
1
1
1
1
1
1
1
1
1
1
1
1
1
1
1
1
1
1
1
1
1
1
1
1
1
1
1
1
1
1
1
1
1
1
1
1
1
1
1
1
1
1
1
1
1
1
1
1
1
1
1
1
1
1
1
1
1
1
1
1
1
1
1
1
1
1
1
1
1
1
1
1
1
1
1
1
1
1
1
1
1
1
1
1
1
1
1
1
1
1
1
1
1
1
1
1
1
1
1
1
1
1
1
1
1
1
1
1
1
1
1
1
1
1
1
1
1
1
1
1
1
1
1
1
1
1
1
1
1
1
1
1
1
1
1
1
1
1
1
1
1
1
1
1
1
1
1
1
1
1
1
1
1
1
1
1
1
1
1
1
1
1
1
1
1
1
1
1
1
1
1
1
1
1
1
1
1
1
1
1
1
1
1
1
1
1
1
1
1
1
1
1
1
1
1
1
1
1
1
1
1
1
1
1
1
1
1
1
1
1
1
1
1
1
1
1
1
1
1
1
1
1
1
1
1
1
1
1
1
1
1
1
1
1
1
1
1
1
1
1
1
1
1
1
1
1
1
1
1
1
1
1
1
1
1
1
1
1
1
1
1
1
1
1
1
1
1
1
1
1
1
1
1
1
1
1
1
1
1
1
1
1
1
1
1
1
1
1
1
1
1
1
1
1
1
1
1
1
1
1
1
1
1
1
1
1
1
1
1
1
1
1
1
1
1
1
1
1
1
1
1
1
1
1
1
1
1
1
1
1
1
1
1
1
1
1
1
1
1
1
1
1
1
1
1
1
1
1
1
1
1
1
1
1
1
1
1
1
1
1
1
1
1
1
1
1
1
1
1
1
1
1
1
1
1
1
1
1
1
1
1
1
1
1
1
1
1
1
1
1
1
1
1
1
1
1
1
1
1
1
1
1
1
1
1
1
1
1
1
1
1
1
1
1
1
1
1
1
1
1
1
1
1
1
1
1
1
1
1
1
1
1
1
1
1
1
1
1
1
1
1
1
1
1
1
1
1
1
1
1
1
1
1
1
1
1
1
1
1
1
1
1
1
1
1
1
1
1
1
1
1
1
1
1
1
1
1
1
1
1
1
1
1
1
1
1
1
1
1
1
1
1
1
1
1
1
1
1
1
1
1
1
1
1
1
1
1
1
1
1
1
1
1
1
1
1
1
1
1
1
1
1
1
1
1
1
1
1
1
1
1
1
1
1
1
1
1
1
1
1
1
1
1
1
1
1
1
1
1
1
1
1
1
1
1
1
1
1
1
1
1
1
1
1
1
1
1
1
1
1
1
1
1
1
1
1
1
1
1
1
1
1
1
1
1
1
1
1
1
1
1
1
1
1
1
1
1
1
1
1
1
1
1
1
1
1
1
1
1
1
1
1
1
1
1
1
1
1
1
1
1
1
1
1
1
1
1
1
1
1
1
1
1
1
1
1
1
1
1
1
1
1
1
1
1
1
1
1
1
1
1
1
1
1
1
1
1
1
1
1
1
1
1
1
1
1
1
1
1
1
1
1
1
1
1
1
1
1
1
1
1
1
1
1
1
1
1
1
1
1
1
1
1
1
1
1
1
1
1
1
1
1
1
1
1
1
1
1
1
1
1
1
1
1
1
1
1
1
1
1
1
1
1
1
1
1
1
1
1
1
1
1
1
1
1
1
1
1
1
1
1
1
1
1
1
1
1
1
1
1
1
1
1
1
1
1
1
1
1
1
1
1
1
1
1
1
1
1
1
1
1
1
1
1
1
1
1
1
1
1
1
1
1
1
1
1
1
1
1
1
1
1
1
1
1
1
1
1
1
1
1
1
1
1
1
1
1
1
1
1
1
1
1
1
1
1
1
1
1
1
1
1
1
1
1
1
1
1
1
1
1
1
1
1
1
1
1
1
1
1
1
1
1
1
1
1
1
1
1
1
1
1
1
1
1
1
1
1
1
1
1
1
1
1
1
1
1
1
1
1
1
1
1
1
1
1
1
1
1
1
1
1
1
1
1
1
1
1
1
1
1
1
1
1
1
1
1
1
1
1
1
1
1
1
1
1
1
1
1
1
1
1
1
1
1
1
1
1
1
1
1
1
1
1
1
1
1
1
1
1
1
1
1
1
1
1
1
1
1
1
1
1
1
1
1
1
1
1
1
1
1
1
1
1
1
1
1
1
1
1
1
1
1
1
1
1
1
1
1
1
1
1
1
1
1
1
1
1
1
1
1
1
1
1
1
1
1
1
1
1
1
1
1
1
1
1
1
1
1
1
1
1
1
1
1
1
1
1
1
1
1
1
1
1
1
1
1
1
1
1
1
1
1
1
1
1
1
1
1
1
1
1
1
1
1
1
1
1
1
1
1
1
1
1
1
1
1
1
1
1
1
1
1
1
1
1
1
1
1
1
1
1
1
1
1
1
1
1
1
1
1
1
1
1
1
1
1
1
1
1
1
1
1
1
1
1
1
1
1
1
1
1
1
1
1
1
1
1
1
1
1
1
1
1
1
1
1
1
1
1
1
1
1
1
1
1
1
1
1
1
1
1
1
1
1
1
1
1
1
1
1
1
1
1
1
1
1
1
1
1
1
1
1
1
1
1
1
1
1
1
1
1
1
1
1
1
1
1
1
1
1
1
1
1
1
1
1
1
1
1
1
1
1
1
1
1
1
1
1
1
1
1
1
1
1
1
1
1
1
1
1
1
1
1
1
1
1
1
1
1
1
1
1
1
1
1
1
1
1
1
1
1
1
1
1
1
1
1
1
1
1
1
1
1
1
1
1
1
1
1
1
1
1
1
1
1
1
1
1
1
1
1
1
1
1
1
1
1
1
1
1
1
1
1
1
1
1
1
1
1
1
1
1
1
1
1
1
1
1
1
1
1
1
1
1
1
1
1
1
1
1
1
1
1
1
1
1
1
1
1
1
1
1
1
1
1
1
1
1
1
1
1
1
1
1
1
1
1
1
1
1
1
1
1
1
1
1
1
1
1
1
1
1
1
1
1
1
1
1
1
1
1
1
1
1
1
1
1
1
1
1
1
1
1
1
1
1
1
1
1
1
1
1
1
1
1
1
1
1
1
1
1
1
1
1
1
1
1
1
1
1
1
1
1
1
1
1
1
1
1
1
1
1
1
1
1
1
1
1
1
1
1
1
1
1
1
1
1
1
1
1
1
1
1
1
1
1
1
1
1
1
1
1
1
1
1
1
1
1
1
1
1
1
1
1
1
1
1
1
1
1
1
1
1
1
1
1
1
1
1
1
1
1
1
1
1
1
1
1
1
1
1
1
1
1
1
1
1
1
1
1
1
1
1
1
1
1
1
1
1
1
1
1
1
1
1.50433
0.766688
0.833647
0.920371
0.909883
0.923271
0.989504
1.09248
1.12955
1.16406
1.22391
1.30149
1.38833
1.47061
1.49615
1.51142
1.53534
1.56379
1.58088
1.59671
1.6163
1.62406
1.61918
1.60319
1.6045
1.61148
1.62282
1.63608
1.64972
1.65064
1.64691
1.64519
1.64692
1.65639
1.66754
1.66929
1.66696
1.66546
1.66692
1.66892
1.67214
1.67284
1.67108
1.66532
1.65994
1.65988
1.66467
1.67326
1.67712
1.67698
1.67502
1.67004
1.66251
1.65644
1.65394
1.65385
1.65659
1.66068
1.66338
1.66533
1.66638
1.6665
1.66671
1.6669
1.66718
1.66795
1.66852
1.66857
1.66859
1.66819
1.66671
1.66542
1.66456
1.66374
1.6631
1.66148
1.65945
1.66697
1.74832
2.01137
2.44554
2.75665
2.74344
2.69208
2.67321
2.6539
2.62401
2.60538
2.59175
2.58187
2.57328
2.56307
2.55226
2.54272
2.53461
2.527
2.51815
2.50742
2.4957
2.48397
2.47311
2.46335
2.45341
2.44287
2.43211
2.42098
2.40974
2.39925
2.39012
2.38223
2.37588
2.37119
2.36679
2.36119
2.35509
2.34907
2.34229
2.33388
2.32442
2.31677
2.31108
2.30551
2.30006
2.29421
2.28807
2.28062
2.27084
2.26063
2.25364
2.24893
2.24462
2.24067
2.23648
2.23146
2.22562
2.21801
2.20859
2.19955
2.19258
2.18692
2.18181
2.17764
2.17434
2.17094
2.16778
2.1641
2.15842
2.15072
2.14315
2.13743
2.1328
2.12831
2.12368
2.11874
2.11308
2.10583
2.0966
2.08808
2.08304
2.07951
2.07608
2.07284
2.07003
2.06677
2.06309
2.05904
2.0534
2.04527
2.03589
2.02817
2.02307
2.01979
2.01706
2.01413
2.01082
2.0071
2.00272
1.99686
1.98941
1.98269
1.97825
1.97522
1.97274
1.97028
1.96724
1.96265
1.95513
1.94628
1.94051
1.93728
1.93488
1.92981
1.7657
1.3216
1.25497
1.16215
1.0152
1.00998
1.03506
1.02377
1.00878
1.01311
1.02568
1.06304
1.1174
1.15625
1.19992
1.25089
1.29267
1.33625
1.38231
1.42614
1.47285
1.51125
1.53994
1.54662
1.55199
1.56651
1.58001
1.58884
1.59776
1.59769
1.59557
1.59787
1.60415
1.61541
1.62712
1.63258
1.63299
1.63283
1.63447
1.63723
1.64146
1.6438
1.64346
1.64098
1.63893
1.63982
1.64445
1.64979
1.6519
1.65187
1.65072
1.64799
1.6436
1.64042
1.63986
1.64076
1.64377
1.64693
1.64889
1.65011
1.65037
1.65026
1.65031
1.65103
1.65201