/*--------------------------------*- C++ -*----------------------------------*\
  =========                 |
  \\      /  F ield         | OpenFOAM: The Open Source CFD Toolbox
   \\    /   O peration     | Website:  https://openfoam.org
    \\  /    A nd           | Version:  7
     \\/     M anipulation  |
\*---------------------------------------------------------------------------*/
FoamFile
{
    version     2.0;
    format      ascii;
    class       volVectorField;
    location    "2.2";
    object      U;
}
// * * * * * * * * * * * * * * * * * * * * * * * * * * * * * * * * * * * * * //

dimensions      [0 1 -1 0 0 0 0];

internalField   nonuniform List<vector> 
19968
(
(3 4.16368e-17 0)
(3 1.61199e-17 0)
(3 7.96592e-17 0)
(3 -2.35184e-17 0)
(3 -1.33913e-16 0)
(3 -2.10376e-16 0)
(3 3.51161e-17 0)
(3 1.03215e-16 0)
(3 3.69983e-16 0)
(3 -2.44655e-16 0)
(3 -9.0973e-16 0)
(3 -1.31218e-15 0)
(3 -1.14647e-15 0)
(3 -1.87123e-16 0)
(3 1.9686e-16 0)
(3 3.62627e-16 0)
(3 -5.40323e-17 0)
(3 -2.49369e-16 0)
(3 -4.23383e-16 0)
(3 -6.71182e-16 0)
(3 -1.55647e-15 0)
(3 -1.75563e-15 0)
(3 -1.73323e-15 0)
(3 -9.72347e-16 0)
(3 -9.12695e-16 0)
(3 -8.36602e-16 0)
(3 2.37619e-16 0)
(3 6.8619e-16 0)
(3 1.4212e-15 0)
(3 1.85121e-15 0)
(3 1.69431e-15 0)
(3 9.29463e-16 0)
(3 -6.66545e-16 0)
(3 -7.54475e-16 0)
(3 -2.42675e-16 0)
(3 -8.96401e-16 0)
(3 -9.92023e-16 0)
(3 -1.14829e-15 0)
(3 -1.15332e-15 0)
(3 -3.36605e-16 0)
(3 -6.38e-16 0)
(3 -5.53149e-16 0)
(3 1.54301e-17 0)
(3 6.38681e-16 0)
(3 9.4137e-16 0)
(3 2.916e-16 0)
(3 1.47982e-16 0)
(3 2.52074e-16 0)
(3 -1.41951e-15 0)
(2.5168 0.00399201 0)
(0.892892 0.00731614 0)
(0.745964 0.00662745 0)
(0.731857 0.00833154 0)
(0.716338 0.00856966 0)
(0.702917 0.00907333 0)
(0.688714 0.00972008 0)
(0.673017 0.0104427 0)
(0.655285 0.0109162 0)
(0.636644 0.0105509 0)
(0.619273 0.00932625 0)
(0.604273 0.00826399 0)
(0.590777 0.0082453 0)
(0.577095 0.00913485 0)
(0.56178 0.0102325 0)
(0.544831 0.0107219 0)
(0.527483 0.01045 0)
(0.510871 0.0099532 0)
(0.495213 0.00988137 0)
(0.480106 0.00993848 0)
(0.465619 0.00954964 0)
(0.452276 0.00869389 0)
(0.439341 0.00848094 0)
(0.425531 0.00901641 0)
(0.410288 0.00978415 0)
(0.394251 0.0102134 0)
(0.37821 0.0103024 0)
(0.362218 0.0103544 0)
(0.346214 0.010536 0)
(0.330249 0.010835 0)
(0.314273 0.011152 0)
(0.298235 0.0113669 0)
(0.281752 0.0114981 0)
(0.265477 0.0116829 0)
(0.248116 0.0119555 0)
(0.229488 0.0122289 0)
(0.209778 0.0124971 0)
(0.189579 0.0126587 0)
(0.169746 0.0127347 0)
(0.150634 0.0128439 0)
(0.13191 0.0130997 0)
(0.113479 0.0134332 0)
(0.0948442 0.0138466 0)
(0.0751792 0.0142274 0)
(0.0545601 0.0145996 0)
(0.0332098 0.0147612 0)
(0.0111337 0.0149593 0)
(3 -2.31795e-17 0)
(3 2.18701e-16 0)
(3 4.48767e-16 0)
(3 9.15739e-16 0)
(3 1.10495e-15 0)
(3 8.17329e-16 0)
(3 5.41447e-16 0)
(3 2.60982e-16 0)
(3 1.05464e-16 0)
(3 7.27296e-17 0)
(3 -4.24015e-16 0)
(3 -1.09392e-15 0)
(3 -8.71301e-16 0)
(3 -4.82493e-16 0)
(3 -4.61551e-16 0)
(3 -6.82361e-16 0)
(3 -1.07475e-15 0)
(3 -1.17624e-15 0)
(3 -1.11334e-15 0)
(3 -1.82221e-15 0)
(3 -3.36587e-15 0)
(3 -3.41339e-15 0)
(3 -2.3623e-15 0)
(3 -1.12608e-16 0)
(3 3.49915e-16 0)
(3 1.77172e-16 0)
(3 6.90576e-16 0)
(3 1.47411e-15 0)
(3 1.48784e-15 0)
(3 1.38713e-15 0)
(3 1.30754e-15 0)
(3 -4.91803e-16 0)
(3 -1.82218e-15 0)
(3 -1.62073e-15 0)
(3 -8.03809e-16 0)
(3 -9.00431e-17 0)
(3 -4.71146e-17 0)
(3 -5.63341e-16 0)
(3 -1.40887e-15 0)
(3 -3.25548e-16 0)
(3 -2.15965e-16 0)
(3 5.63492e-16 0)
(3 1.96853e-15 0)
(3 1.81694e-15 0)
(3 1.60223e-15 0)
(3 9.64024e-16 0)
(3 2.17372e-16 0)
(3 -5.9845e-17 0)
(3 -1.13011e-15 0)
(2.542 0.0204964 0)
(0.897614 0.031728 0)
(0.742744 0.027074 0)
(0.726481 0.0255204 0)
(0.710686 0.025637 0)
(0.696901 0.0264164 0)
(0.682765 0.0280387 0)
(0.667518 0.0301278 0)
(0.650556 0.0316217 0)
(0.63274 0.0310458 0)
(0.615806 0.028392 0)
(0.600421 0.0258067 0)
(0.585994 0.0254595 0)
(0.571583 0.0274051 0)
(0.556074 0.0298563 0)
(0.539566 0.0306998 0)
(0.52325 0.0298087 0)
(0.507761 0.0287962 0)
(0.493019 0.029076 0)
(0.478462 0.0297902 0)
(0.463939 0.0292464 0)
(0.45008 0.0273001 0)
(0.436197 0.0266198 0)
(0.42166 0.0279614 0)
(0.406045 0.0299996 0)
(0.389831 0.0310957 0)
(0.373648 0.0312396 0)
(0.357477 0.0313027 0)
(0.341277 0.0317882 0)
(0.32519 0.0326598 0)
(0.309212 0.0336065 0)
(0.293281 0.0342347 0)
(0.277045 0.0346327 0)
(0.261001 0.0352484 0)
(0.243817 0.0361309 0)
(0.225395 0.0370209 0)
(0.205966 0.0378789 0)
(0.186163 0.0384281 0)
(0.166801 0.0387657 0)
(0.148163 0.0392288 0)
(0.129845 0.0401239 0)
(0.111856 0.0411977 0)
(0.0936085 0.0424631 0)
(0.0743227 0.0436112 0)
(0.0540527 0.0447373 0)
(0.0329714 0.0452503 0)
(0.0111269 0.0459287 0)
(3 1.00172e-16 0)
(3 3.52036e-16 0)
(3 7.64274e-16 0)
(3 8.89856e-16 0)
(3 1.55803e-15 0)
(3 1.60007e-15 0)
(3 1.34218e-15 0)
(3 6.99205e-16 0)
(3 1.7075e-16 0)
(3 -9.18221e-17 0)
(3 -3.52806e-16 0)
(3 -5.36771e-16 0)
(3 -1.58339e-15 0)
(3 -1.77412e-15 0)
(3 -1.26579e-15 0)
(3 -1.20623e-15 0)
(3 -1.63766e-15 0)
(3 -1.58742e-15 0)
(3 -2.24573e-15 0)
(3 -2.57046e-15 0)
(3 -3.38963e-15 0)
(3 -3.7163e-15 0)
(3 -3.41915e-15 0)
(3 -2.39878e-15 0)
(3 -8.24256e-16 0)
(3 -3.96559e-16 0)
(3 -5.8304e-17 0)
(3 6.02979e-16 0)
(3 8.39294e-16 0)
(3 1.53917e-15 0)
(3 1.67865e-15 0)
(3 1.29475e-15 0)
(3 1.39435e-15 0)
(3 7.08461e-16 0)
(3 3.62407e-16 0)
(3 -4.92675e-16 0)
(3 -1.48378e-15 0)
(3 -1.92462e-15 0)
(3 -2.21448e-15 0)
(3 -4.64033e-16 0)
(3 6.6969e-16 0)
(3 3.75972e-16 0)
(3 3.07277e-16 0)
(3 9.9574e-17 0)
(3 -2.02118e-16 0)
(3 1.11294e-15 0)
(3 2.27172e-15 0)
(3 2.71874e-15 0)
(3 2.87901e-15 0)
(2.60056 0.0341474 0)
(0.912482 0.0543344 0)
(0.747132 0.0483708 0)
(0.730267 0.0456264 0)
(0.713196 0.0453825 0)
(0.698321 0.0464161 0)
(0.683349 0.0485402 0)
(0.667687 0.0512824 0)
(0.650725 0.0531138 0)
(0.633154 0.0522016 0)
(0.616334 0.0488359 0)
(0.600497 0.0457132 0)
(0.585204 0.0455713 0)
(0.570082 0.0483815 0)
(0.554288 0.0514282 0)
(0.538094 0.051728 0)
(0.522699 0.0496081 0)
(0.508241 0.0478873 0)
(0.494495 0.0485532 0)
(0.480742 0.0501006 0)
(0.466406 0.0499249 0)
(0.452161 0.0475505 0)
(0.437299 0.0468238 0)
(0.421796 0.0490689 0)
(0.405452 0.0523256 0)
(0.388604 0.0540178 0)
(0.371785 0.0541556 0)
(0.354961 0.0541546 0)
(0.3381 0.054844 0)
(0.321416 0.056173 0)
(0.304929 0.0576003 0)
(0.288566 0.0584584 0)
(0.272099 0.0589349 0)
(0.255817 0.0598159 0)
(0.238406 0.061176 0)
(0.219897 0.0625717 0)
(0.200549 0.063907 0)
(0.181004 0.064721 0)
(0.162019 0.0652192 0)
(0.143809 0.0659723 0)
(0.125875 0.067451 0)
(0.108416 0.0692309 0)
(0.0906763 0.0713561 0)
(0.0719812 0.0733421 0)
(0.0523732 0.0753573 0)
(0.0319502 0.0763806 0)
(0.0108688 0.0777221 0)
(3 1.09599e-16 0)
(3 2.75397e-16 0)
(3 3.05206e-16 0)
(3 1.42722e-16 0)
(3 1.44325e-16 0)
(3 4.54066e-16 0)
(3 4.81887e-16 0)
(3 5.35854e-16 0)
(3 4.06598e-16 0)
(3 -1.56939e-16 0)
(3 -2.33004e-16 0)
(3 -2.61403e-16 0)
(3 -3.61583e-16 0)
(3 -2.09673e-16 0)
(3 5.51024e-16 0)
(3 5.45427e-16 0)
(3 1.4966e-16 0)
(3 -7.03355e-16 0)
(3 -1.03845e-15 0)
(3 -1.10831e-15 0)
(3 -2.09436e-15 0)
(3 -2.08748e-15 0)
(3 -2.04352e-15 0)
(3 -1.99733e-15 0)
(3 -1.99306e-15 0)
(3 -1.55234e-15 0)
(3 -1.92248e-17 0)
(3 4.46322e-16 0)
(3 6.28454e-16 0)
(3 6.16301e-16 0)
(3 9.00943e-16 0)
(3 2.11836e-15 0)
(3 1.90804e-15 0)
(3 1.74218e-15 0)
(3 2.02197e-15 0)
(3 9.67568e-16 0)
(3 -1.87715e-15 0)
(3 -3.05337e-15 0)
(3 -2.23791e-15 0)
(3 -6.87121e-16 0)
(3 2.1098e-16 0)
(3 -3.5671e-16 0)
(3 -7.96491e-16 0)
(3 -1.06813e-15 0)
(3 -1.11854e-15 0)
(3 -7.63572e-16 0)
(3 2.48293e-15 0)
(3 3.38725e-15 0)
(3 2.81888e-15 0)
(2.68623 0.0429007 0)
(0.935454 0.0752548 0)
(0.75077 0.0697929 0)
(0.734692 0.0657352 0)
(0.717989 0.0657229 0)
(0.703107 0.0673108 0)
(0.68775 0.070093 0)
(0.671558 0.0733387 0)
(0.654161 0.0751857 0)
(0.636333 0.0739439 0)
(0.619226 0.0704205 0)
(0.603018 0.0673354 0)
(0.587511 0.0674635 0)
(0.572722 0.0706972 0)
(0.557728 0.0734868 0)
(0.542723 0.0725503 0)
(0.52856 0.068851 0)
(0.514761 0.0663168 0)
(0.501401 0.0674365 0)
(0.487928 0.0702357 0)
(0.473343 0.071177 0)
(0.458415 0.0691383 0)
(0.442617 0.068709 0)
(0.42629 0.0719072 0)
(0.409371 0.07638 0)
(0.391985 0.0788077 0)
(0.374555 0.0791615 0)
(0.357067 0.0792717 0)
(0.339514 0.0802631 0)
(0.322142 0.082112 0)
(0.304962 0.0840381 0)
(0.287871 0.0850806 0)
(0.270742 0.0855283 0)
(0.2537 0.0865445 0)
(0.235622 0.088238 0)
(0.216561 0.0899732 0)
(0.196886 0.0915878 0)
(0.177228 0.092447 0)
(0.158247 0.0929063 0)
(0.140094 0.0937654 0)
(0.122115 0.0956311 0)
(0.104894 0.0979267 0)
(0.087425 0.100741 0)
(0.0692163 0.103472 0)
(0.0502909 0.106369 0)
(0.0306161 0.107946 0)
(0.0105125 0.110041 0)
(3 -6.84503e-17 0)
(3 -2.24273e-16 0)
(3 -4.64034e-16 0)
(3 -5.45261e-16 0)
(3 -7.00526e-16 0)
(3 -4.90435e-16 0)
(3 -6.91819e-16 0)
(3 -6.63122e-16 0)
(3 -5.10765e-16 0)
(3 -5.5027e-16 0)
(3 -1.35947e-16 0)
(3 4.32998e-16 0)
(3 5.27301e-16 0)
(3 2.01255e-16 0)
(3 -2.6105e-16 0)
(3 -3.53383e-16 0)
(3 -4.26236e-16 0)
(3 -5.65415e-16 0)
(3 -6.82779e-17 0)
(3 1.81097e-16 0)
(3 -4.78268e-16 0)
(3 -8.72331e-16 0)
(3 -1.1899e-15 0)
(3 -1.9931e-15 0)
(3 -2.46872e-15 0)
(3 -2.27354e-15 0)
(3 -1.63867e-15 0)
(3 -9.39061e-16 0)
(3 -5.43828e-16 0)
(3 -5.80691e-16 0)
(3 -6.4445e-16 0)
(3 -9.01367e-16 0)
(3 2.36291e-17 0)
(3 -4.50988e-17 0)
(3 -1.89661e-16 0)
(3 -4.66244e-16 0)
(3 -5.35234e-16 0)
(3 -6.38517e-16 0)
(3 -5.79536e-16 0)
(3 -9.38303e-16 0)
(3 -1.39884e-15 0)
(3 -1.38827e-15 0)
(3 -2.74484e-16 0)
(3 -1.47604e-16 0)
(3 -1.72474e-16 0)
(3 4.01007e-16 0)
(3 1.19186e-15 0)
(3 1.63757e-15 0)
(3 1.29609e-15 0)
(2.78778 0.0446783 0)
(0.967621 0.0963092 0)
(0.751801 0.0914317 0)
(0.734983 0.0866292 0)
(0.718195 0.0872814 0)
(0.703075 0.0899949 0)
(0.687486 0.0937361 0)
(0.671322 0.0971636 0)
(0.654543 0.0983942 0)
(0.637946 0.0964152 0)
(0.622357 0.0926696 0)
(0.607732 0.0896713 0)
(0.593839 0.089739 0)
(0.580751 0.0925483 0)
(0.567281 0.0942332 0)
(0.553384 0.0920506 0)
(0.539381 0.0875607 0)
(0.524797 0.0850941 0)
(0.510321 0.0872918 0)
(0.495804 0.0919651 0)
(0.479952 0.0947109 0)
(0.463598 0.0935043 0)
(0.446616 0.0933176 0)
(0.429329 0.0971037 0)
(0.411744 0.102432 0)
(0.393782 0.105514 0)
(0.375758 0.106179 0)
(0.357789 0.106452 0)
(0.339941 0.107738 0)
(0.322445 0.11012 0)
(0.305189 0.112585 0)
(0.28792 0.113823 0)
(0.270542 0.114209 0)
(0.253059 0.115325 0)
(0.234578 0.117331 0)
(0.215198 0.119387 0)
(0.195354 0.12123 0)
(0.17561 0.122037 0)
(0.156523 0.122333 0)
(0.138195 0.123109 0)
(0.119841 0.125141 0)
(0.102476 0.127714 0)
(0.084917 0.130939 0)
(0.0668985 0.13419 0)
(0.0484408 0.137829 0)
(0.0293509 0.139878 0)
(0.0101702 0.142696 0)
(3 5.17111e-17 0)
(3 8.58847e-17 0)
(3 9.65625e-17 0)
(3 7.30902e-17 0)
(3 -6.55748e-17 0)
(3 -4.75991e-16 0)
(3 -7.48018e-16 0)
(3 -5.05601e-16 0)
(3 -2.69932e-16 0)
(3 -2.96973e-16 0)
(3 -4.08584e-16 0)
(3 -5.39368e-16 0)
(3 -4.48993e-16 0)
(3 -5.19672e-16 0)
(3 -9.10288e-16 0)
(3 -9.80688e-16 0)
(3 -8.44023e-16 0)
(3 -7.16905e-16 0)
(3 -9.05967e-16 0)
(3 -8.26466e-16 0)
(3 -4.41014e-16 0)
(3 -4.22288e-16 0)
(3 -1.53889e-15 0)
(3 -2.15015e-15 0)
(3 -2.70884e-15 0)
(3 -2.89857e-15 0)
(3 -2.45324e-15 0)
(3 -1.96511e-15 0)
(3 -1.85499e-15 0)
(3 -1.55362e-15 0)
(3 -2.19012e-15 0)
(3 -2.68052e-15 0)
(3 -1.91554e-15 0)
(3 -1.69127e-15 0)
(3 -1.644e-15 0)
(3 -2.52697e-15 0)
(3 -2.11335e-15 0)
(3 -3.36108e-16 0)
(3 7.91934e-16 0)
(3 -4.70462e-17 0)
(3 -3.91348e-16 0)
(3 -3.72607e-16 0)
(3 7.85935e-17 0)
(3 9.84402e-16 0)
(3 1.43825e-15 0)
(3 1.9226e-15 0)
(3 1.75768e-15 0)
(3 1.52992e-15 0)
(3 8.61693e-16 0)
(2.88712 0.0548329 0)
(1.00804 0.12775 0)
(0.753718 0.114652 0)
(0.739997 0.107343 0)
(0.724429 0.109652 0)
(0.710006 0.113581 0)
(0.695062 0.117849 0)
(0.679554 0.120455 0)
(0.663747 0.119804 0)
(0.648312 0.116117 0)
(0.633556 0.111633 0)
(0.619367 0.108827 0)
(0.605746 0.109424 0)
(0.592732 0.112554 0)
(0.579079 0.114704 0)
(0.564381 0.113448 0)
(0.54888 0.109793 0)
(0.532341 0.108088 0)
(0.515712 0.111397 0)
(0.499377 0.117732 0)
(0.482095 0.121973 0)
(0.464726 0.121232 0)
(0.447317 0.120699 0)
(0.429942 0.124374 0)
(0.412578 0.129975 0)
(0.394887 0.133537 0)
(0.376996 0.134632 0)
(0.35921 0.135202 0)
(0.341717 0.136854 0)
(0.324723 0.139838 0)
(0.307941 0.142941 0)
(0.290893 0.144463 0)
(0.273508 0.14482 0)
(0.255797 0.146063 0)
(0.237134 0.148475 0)
(0.217645 0.150962 0)
(0.197753 0.153098 0)
(0.177919 0.153852 0)
(0.158591 0.153946 0)
(0.139743 0.154512 0)
(0.120911 0.156583 0)
(0.102899 0.159287 0)
(0.0847859 0.162696 0)
(0.0664482 0.166213 0)
(0.0479196 0.170393 0)
(0.0288546 0.172747 0)
(0.010076 0.176175 0)
(3 -1.52365e-16 0)
(3 -3.84011e-16 0)
(3 -4.25586e-16 0)
(3 -4.78233e-16 0)
(3 -5.40559e-16 0)
(3 -9.35575e-16 0)
(3 -8.86618e-16 0)
(3 -8.62865e-16 0)
(3 -7.46988e-16 0)
(3 -3.78786e-16 0)
(3 -2.70713e-16 0)
(3 -2.31138e-16 0)
(3 -2.94503e-16 0)
(3 -5.40891e-16 0)
(3 -1.05564e-15 0)
(3 -1.23934e-15 0)
(3 -1.06832e-15 0)
(3 -7.99321e-16 0)
(3 -6.58853e-16 0)
(3 -5.91742e-16 0)
(3 -2.21047e-16 0)
(3 -2.21756e-17 0)
(3 -4.6105e-16 0)
(3 -1.44818e-15 0)
(3 -1.82688e-15 0)
(3 -2.11503e-15 0)
(3 -2.65621e-15 0)
(3 -2.87293e-15 0)
(3 -2.6242e-15 0)
(3 -2.21163e-15 0)
(3 -1.84356e-15 0)
(3 -1.76267e-15 0)
(3 -7.10702e-16 0)
(3 -1.55748e-16 0)
(3 2.26322e-16 0)
(3 3.63375e-16 0)
(3 6.4135e-16 0)
(3 1.06222e-15 0)
(3 1.41702e-15 0)
(3 1.60615e-15 0)
(3 1.52854e-15 0)
(3 9.94578e-16 0)
(3 8.27429e-16 0)
(3 9.69061e-16 0)
(3 1.35081e-15 0)
(3 1.24511e-15 0)
(3 8.33786e-16 0)
(3 1.31913e-15 0)
(3 2.4188e-15 0)
(2.9853 0.00587091 0)
(1.08102 0.155217 0)
(0.769312 0.127301 0)
(0.754476 0.124379 0)
(0.740226 0.129849 0)
(0.725255 0.135632 0)
(0.710029 0.141009 0)
(0.693843 0.143238 0)
(0.677425 0.141212 0)
(0.661415 0.136458 0)
(0.645695 0.132132 0)
(0.630245 0.13055 0)
(0.615215 0.13264 0)
(0.600337 0.137145 0)
(0.584501 0.140624 0)
(0.567553 0.140382 0)
(0.550202 0.136987 0)
(0.532443 0.135093 0)
(0.515149 0.138333 0)
(0.49923 0.145393 0)
(0.482998 0.150621 0)
(0.466844 0.150254 0)
(0.450801 0.149086 0)
(0.434632 0.152124 0)
(0.4183 0.157495 0)
(0.401372 0.161401 0)
(0.383872 0.163108 0)
(0.366407 0.16419 0)
(0.34939 0.166328 0)
(0.333047 0.169993 0)
(0.316918 0.17387 0)
(0.300209 0.175869 0)
(0.282862 0.17635 0)
(0.264941 0.177878 0)
(0.246131 0.180967 0)
(0.226501 0.184205 0)
(0.206404 0.186912 0)
(0.186174 0.187829 0)
(0.166193 0.187865 0)
(0.14639 0.188334 0)
(0.126611 0.190488 0)
(0.107437 0.193394 0)
(0.0881633 0.196984 0)
(0.0687888 0.200671 0)
(0.0494257 0.205311 0)
(0.029581 0.207871 0)
(0.0103685 0.211826 0)
(3 -1.21685e-16 0)
(3 -2.57091e-16 0)
(3 -6.81031e-16 0)
(3 -6.7878e-16 0)
(3 -6.51982e-16 0)
(3 -7.2224e-16 0)
(3 -8.00043e-16 0)
(3 -7.75322e-16 0)
(3 -9.76122e-16 0)
(3 -8.27846e-16 0)
(3 -5.37902e-16 0)
(3 1.42051e-17 0)
(3 -6.45977e-16 0)
(3 -8.76563e-16 0)
(3 -1.01645e-15 0)
(3 -1.37291e-15 0)
(3 -1.03586e-15 0)
(3 -1.26281e-15 0)
(3 -8.09794e-16 0)
(3 -9.59114e-16 0)
(3 -2.66938e-16 0)
(3 9.18831e-18 0)
(3 -1.60134e-16 0)
(3 -2.57261e-16 0)
(3 -4.70353e-16 0)
(3 -6.61611e-16 0)
(3 -1.34689e-15 0)
(3 -2.1288e-15 0)
(3 -1.72216e-15 0)
(3 -1.26661e-15 0)
(3 -1.24704e-15 0)
(3 -1.5448e-15 0)
(3 -1.13109e-16 0)
(3 2.27504e-15 0)
(3 2.95757e-15 0)
(3 3.395e-15 0)
(3 3.22555e-15 0)
(3 2.51358e-15 0)
(3 1.24233e-15 0)
(3 1.09387e-15 0)
(3 1.09957e-15 0)
(3 7.88672e-16 0)
(3 5.09461e-17 0)
(3 -1.33833e-16 0)
(3 -3.28385e-16 0)
(3 -2.13175e-16 0)
(3 2.84761e-16 0)
(3 1.43468e-15 0)
(3 1.71543e-15 0)
(3.00018 0.000370771 0)
(1.22952 0.169672 0)
(0.77397 0.145154 0)
(0.751069 0.147208 0)
(0.737818 0.155827 0)
(0.722103 0.162764 0)
(0.707007 0.16912 0)
(0.690724 0.171232 0)
(0.674137 0.168224 0)
(0.657745 0.162185 0)
(0.641465 0.157107 0)
(0.625816 0.155688 0)
(0.611298 0.158315 0)
(0.597832 0.163655 0)
(0.584054 0.16809 0)
(0.569366 0.168539 0)
(0.554235 0.165074 0)
(0.538284 0.162293 0)
(0.522128 0.164561 0)
(0.507348 0.171456 0)
(0.492153 0.177527 0)
(0.476462 0.178238 0)
(0.460718 0.177059 0)
(0.444699 0.179846 0)
(0.428306 0.185322 0)
(0.411105 0.189888 0)
(0.393058 0.192553 0)
(0.374991 0.194441 0)
(0.357531 0.197202 0)
(0.340965 0.201647 0)
(0.324738 0.206534 0)
(0.307695 0.209406 0)
(0.289777 0.210361 0)
(0.271214 0.212386 0)
(0.252036 0.216404 0)
(0.232216 0.220676 0)
(0.211941 0.224147 0)
(0.191421 0.22532 0)
(0.171034 0.225272 0)
(0.150696 0.225622 0)
(0.130396 0.227761 0)
(0.11058 0.230836 0)
(0.0906055 0.234598 0)
(0.0704995 0.238366 0)
(0.0505369 0.243439 0)
(0.0300778 0.246171 0)
(0.0105682 0.250646 0)
(3 2.70249e-16 0)
(3 4.98597e-16 0)
(3 6.87884e-16 0)
(3 8.58589e-16 0)
(3 7.31013e-16 0)
(3 8.43214e-16 0)
(3 7.20316e-16 0)
(3 1.13049e-15 0)
(3 1.31497e-15 0)
(3 1.04942e-15 0)
(3 7.38081e-16 0)
(3 3.64904e-16 0)
(3 1.37047e-16 0)
(3 2.82394e-16 0)
(3 4.29903e-16 0)
(3 3.87014e-16 0)
(3 -9.12237e-17 0)
(3 -4.67618e-16 0)
(3 -1.25407e-15 0)
(3 -1.35263e-15 0)
(3 -8.56286e-16 0)
(3 -6.32338e-16 0)
(3 -1.09208e-15 0)
(3 -1.15897e-15 0)
(3 -8.92132e-16 0)
(3 -9.37014e-16 0)
(3 -1.22115e-15 0)
(3 -1.70338e-15 0)
(3 -9.49301e-16 0)
(3 -9.49012e-16 0)
(3 -1.25391e-15 0)
(3 -1.38583e-15 0)
(3 -8.94763e-16 0)
(3 8.5087e-16 0)
(3 1.33566e-15 0)
(3 1.03475e-15 0)
(3 6.8783e-16 0)
(3 6.31119e-16 0)
(3 5.52476e-16 0)
(3 1.98146e-16 0)
(3 1.64963e-17 0)
(3 1.38227e-16 0)
(3 1.42428e-16 0)
(3 -9.0724e-17 0)
(3 -5.69238e-16 0)
(3 -5.0929e-16 0)
(3 -4.4154e-16 0)
(3 -2.52104e-16 0)
(3 -5.77806e-16 0)
(3 7.21268e-07 0)
(1.50142 0.199067 0)
(0.792799 0.17474 0)
(0.750519 0.168 0)
(0.737884 0.178379 0)
(0.722278 0.1872 0)
(0.708076 0.194618 0)
(0.692685 0.19702 0)
(0.676575 0.194342 0)
(0.659939 0.188258 0)
(0.642924 0.182693 0)
(0.62647 0.180748 0)
(0.611371 0.183074 0)
(0.597766 0.188525 0)
(0.584309 0.193653 0)
(0.569954 0.195216 0)
(0.554852 0.192636 0)
(0.538808 0.18988 0)
(0.522239 0.191658 0)
(0.507047 0.198676 0)
(0.49199 0.206206 0)
(0.476069 0.208809 0)
(0.460105 0.208166 0)
(0.443993 0.210775 0)
(0.427731 0.216293 0)
(0.410777 0.221265 0)
(0.393008 0.224648 0)
(0.375232 0.227212 0)
(0.358088 0.230362 0)
(0.34189 0.23529 0)
(0.326132 0.241067 0)
(0.309424 0.24495 0)
(0.291691 0.246503 0)
(0.273309 0.248952 0)
(0.254624 0.25384 0)
(0.235432 0.259218 0)
(0.215598 0.263538 0)
(0.19522 0.265092 0)
(0.174728 0.265076 0)
(0.154168 0.265517 0)
(0.133395 0.2678 0)
(0.113087 0.27118 0)
(0.0925463 0.275266 0)
(0.0717772 0.279084 0)
(0.0513063 0.284567 0)
(0.0303655 0.287466 0)
(0.0106323 0.292449 0)
(3 8.27196e-17 0)
(3 1.50644e-16 0)
(3 3.68139e-16 0)
(3 2.30792e-16 0)
(3 2.5651e-16 0)
(3 4.72316e-16 0)
(3 7.38939e-16 0)
(3 7.66434e-16 0)
(3 7.4174e-16 0)
(3 8.65994e-16 0)
(3 8.3963e-16 0)
(3 7.32829e-16 0)
(3 9.79939e-16 0)
(3 8.53803e-16 0)
(3 8.14613e-16 0)
(3 1.11712e-15 0)
(3 6.03008e-16 0)
(3 5.53004e-16 0)
(3 3.68184e-16 0)
(3 2.48126e-16 0)
(3 -1.72245e-17 0)
(3 -3.33815e-16 0)
(3 3.99073e-16 0)
(3 3.74697e-16 0)
(3 -1.19288e-16 0)
(3 3.65613e-16 0)
(3 8.0346e-16 0)
(3 1.0121e-15 0)
(3 -6.49495e-16 0)
(3 -1.2787e-15 0)
(3 -2.32512e-15 0)
(3 -3.16335e-15 0)
(3 -2.82561e-15 0)
(3 -2.12934e-15 0)
(3 -2.25307e-15 0)
(3 -1.81136e-15 0)
(3 -1.73844e-16 0)
(3 6.10721e-16 0)
(3 7.513e-16 0)
(3 1.26789e-16 0)
(3 1.03963e-16 0)
(3 3.22889e-16 0)
(3 7.19565e-16 0)
(3 1.02643e-15 0)
(3 5.19017e-16 0)
(3 -2.86642e-16 0)
(3 -8.89118e-16 0)
(3 -1.38109e-15 0)
(3 -1.61037e-15 0)
(3 1.37367e-09 0)
(1.90436 0.216669 0)
(0.825604 0.215264 0)
(0.748157 0.198452 0)
(0.732698 0.206787 0)
(0.71806 0.214123 0)
(0.70619 0.22106 0)
(0.693359 0.224108 0)
(0.679275 0.222729 0)
(0.663844 0.217725 0)
(0.647415 0.212259 0)
(0.631067 0.209666 0)
(0.615877 0.211294 0)
(0.602292 0.216465 0)
(0.589205 0.222162 0)
(0.575314 0.224896 0)
(0.56041 0.223406 0)
(0.544577 0.220615 0)
(0.528022 0.221404 0)
(0.512689 0.227799 0)
(0.498261 0.236341 0)
(0.482628 0.241063 0)
(0.46655 0.241271 0)
(0.450314 0.243578 0)
(0.43414 0.249033 0)
(0.417361 0.254397 0)
(0.399768 0.258447 0)
(0.382063 0.261744 0)
(0.364809 0.265247 0)
(0.348335 0.270445 0)
(0.332341 0.277033 0)
(0.315405 0.282286 0)
(0.297214 0.284918 0)
(0.278304 0.287973 0)
(0.259294 0.293744 0)
(0.239938 0.300414 0)
(0.219784 0.305928 0)
(0.198856 0.308269 0)
(0.177659 0.308609 0)
(0.156467 0.309315 0)
(0.135155 0.311813 0)
(0.114375 0.315383 0)
(0.0934194 0.319682 0)
(0.072218 0.323237 0)
(0.0514707 0.328785 0)
(0.0303604 0.331632 0)
(0.0105253 0.336913 0)
(3 -1.76908e-16 0)
(3 -2.02418e-16 0)
(3 -4.79037e-16 0)
(3 -7.94066e-16 0)
(3 -7.68486e-16 0)
(3 -5.94198e-16 0)
(3 -2.70528e-16 0)
(3 -4.14253e-16 0)
(3 -5.95615e-16 0)
(3 -3.25724e-16 0)
(3 -1.14948e-17 0)
(3 3.9717e-16 0)
(3 8.83965e-16 0)
(3 1.32905e-15 0)
(3 1.3515e-15 0)
(3 1.36814e-15 0)
(3 1.39432e-15 0)
(3 1.52726e-15 0)
(3 1.72475e-15 0)
(3 2.25562e-15 0)
(3 1.88928e-15 0)
(3 1.39948e-15 0)
(3 1.42578e-15 0)
(3 1.1562e-15 0)
(3 1.16589e-15 0)
(3 1.47648e-15 0)
(3 1.67979e-15 0)
(3 9.8219e-16 0)
(3 5.11947e-16 0)
(3 -2.43127e-16 0)
(3 -8.09515e-16 0)
(3 -1.76075e-15 0)
(3 -2.32106e-15 0)
(3 -2.51602e-15 0)
(3 -1.2386e-15 0)
(3 -1.73792e-16 0)
(3 -9.6677e-17 0)
(3 -2.92355e-16 0)
(3 -1.98595e-16 0)
(3 2.40037e-16 0)
(3 6.50884e-17 0)
(3 -2.36183e-16 0)
(3 -4.13618e-16 0)
(3 -5.5432e-16 0)
(3 -4.5817e-16 0)
(3 -1.30297e-16 0)
(3 -6.0778e-16 0)
(3 -1.07755e-15 0)
(3 -1.48685e-15 0)
(3 2.46982e-12 0)
(2.45919 0.210081 0)
(0.906497 0.267035 0)
(0.768498 0.232661 0)
(0.754782 0.232228 0)
(0.739473 0.236459 0)
(0.727374 0.241694 0)
(0.714989 0.245218 0)
(0.70147 0.246025 0)
(0.686424 0.243586 0)
(0.670292 0.239558 0)
(0.653798 0.23724 0)
(0.63807 0.238564 0)
(0.623839 0.243503 0)
(0.610567 0.249861 0)
(0.596811 0.254116 0)
(0.581961 0.254347 0)
(0.566109 0.252034 0)
(0.549296 0.251891 0)
(0.533157 0.257384 0)
(0.518643 0.266781 0)
(0.503201 0.274236 0)
(0.486727 0.276259 0)
(0.470072 0.278445 0)
(0.453701 0.283708 0)
(0.437018 0.289488 0)
(0.419579 0.29416 0)
(0.40183 0.298195 0)
(0.384178 0.302123 0)
(0.366932 0.307472 0)
(0.350141 0.314766 0)
(0.332695 0.32177 0)
(0.313829 0.326244 0)
(0.294135 0.330277 0)
(0.274474 0.336889 0)
(0.254733 0.344819 0)
(0.234206 0.351695 0)
(0.212701 0.355106 0)
(0.190632 0.356075 0)
(0.168339 0.357159 0)
(0.146074 0.3601 0)
(0.123776 0.364167 0)
(0.101393 0.368939 0)
(0.0785159 0.372327 0)
(0.0559741 0.377755 0)
(0.0330954 0.38035 0)
(0.0113517 0.38574 0)
(3 -1.92968e-16 0)
(3 -4.89112e-16 0)
(3 -4.18502e-16 0)
(3 -2.20015e-16 0)
(3 -2.23342e-16 0)
(3 -5.73024e-17 0)
(3 -1.50458e-16 0)
(3 -2.28694e-16 0)
(3 -2.42915e-16 0)
(3 -5.15815e-17 0)
(3 2.02127e-16 0)
(3 4.22388e-17 0)
(3 -1.40416e-16 0)
(3 -1.05704e-16 0)
(3 -1.91006e-16 0)
(3 1.7525e-16 0)
(3 7.74915e-16 0)
(3 9.53782e-16 0)
(3 1.49382e-15 0)
(3 1.64406e-15 0)
(3 1.03818e-15 0)
(3 9.10303e-16 0)
(3 4.71902e-16 0)
(3 2.47319e-16 0)
(3 4.1123e-16 0)
(3 9.02006e-16 0)
(3 9.44313e-16 0)
(3 9.63618e-16 0)
(3 9.7556e-16 0)
(3 5.17643e-16 0)
(3 2.77149e-16 0)
(3 -3.47977e-16 0)
(3 -6.40096e-16 0)
(3 -6.79411e-16 0)
(3 -2.44417e-16 0)
(3 -5.94844e-16 0)
(3 -1.00575e-15 0)
(3 -1.04191e-15 0)
(3 -3.26088e-17 0)
(3 -1.43082e-16 0)
(3 -2.29982e-16 0)
(3 -6.41788e-16 0)
(3 -1.53978e-15 0)
(3 -2.16579e-15 0)
(3 -1.99056e-15 0)
(3 -9.53614e-16 0)
(3 -4.44089e-16 0)
(3 -4.03692e-16 0)
(3 -1.19449e-15 0)
(3 4.25461e-15 0)
(2.98761 0.036407 0)
(1.08612 0.295327 0)
(0.798674 0.248541 0)
(0.784755 0.25525 0)
(0.769095 0.26069 0)
(0.754716 0.265703 0)
(0.741048 0.269427 0)
(0.727461 0.271016 0)
(0.713282 0.269838 0)
(0.698235 0.26699 0)
(0.682475 0.265207 0)
(0.666931 0.266319 0)
(0.652469 0.270643 0)
(0.639239 0.276925 0)
(0.626033 0.282145 0)
(0.61191 0.284096 0)
(0.596638 0.282919 0)
(0.580223 0.282246 0)
(0.563676 0.286393 0)
(0.548843 0.295662 0)
(0.534082 0.305416 0)
(0.517731 0.310407 0)
(0.500806 0.313182 0)
(0.484078 0.318344 0)
(0.46731 0.324855 0)
(0.449792 0.330736 0)
(0.431682 0.336062 0)
(0.41319 0.341106 0)
(0.394581 0.347069 0)
(0.376229 0.355188 0)
(0.357725 0.364236 0)
(0.337965 0.371405 0)
(0.317221 0.377054 0)
(0.296453 0.384608 0)
(0.275776 0.393821 0)
(0.254484 0.402529 0)
(0.231951 0.407935 0)
(0.208415 0.410591 0)
(0.184408 0.412843 0)
(0.160486 0.416746 0)
(0.136646 0.4217 0)
(0.112842 0.427266 0)
(0.0881162 0.430797 0)
(0.0631197 0.435895 0)
(0.0375956 0.437922 0)
(0.0126919 0.44303 0)
(3 -2.59717e-17 0)
(3 -1.53705e-17 0)
(3 -8.42506e-17 0)
(3 2.06282e-17 0)
(3 1.85198e-16 0)
(3 1.06535e-16 0)
(3 -2.32126e-16 0)
(3 -5.76922e-16 0)
(3 -4.77728e-16 0)
(3 -4.64618e-16 0)
(3 -7.08509e-16 0)
(3 -1.02758e-15 0)
(3 -1.48125e-15 0)
(3 -1.11563e-15 0)
(3 -6.51595e-16 0)
(3 -3.88568e-16 0)
(3 -4.41266e-16 0)
(3 -5.86722e-16 0)
(3 -5.61958e-16 0)
(3 -1.00352e-15 0)
(3 -1.03771e-15 0)
(3 -9.56218e-16 0)
(3 -1.40766e-15 0)
(3 -1.32888e-15 0)
(3 -8.82115e-16 0)
(3 -2.51784e-16 0)
(3 7.08635e-17 0)
(3 -6.01942e-17 0)
(3 -2.36012e-16 0)
(3 -2.29523e-16 0)
(3 -2.90187e-16 0)
(3 -1.31612e-16 0)
(3 4.16428e-18 0)
(3 -6.07419e-16 0)
(3 -1.70236e-15 0)
(3 -1.65696e-15 0)
(3 -1.44486e-15 0)
(3 -9.61444e-16 0)
(3 -4.43509e-16 0)
(3 -5.13093e-16 0)
(3 -7.36761e-16 0)
(3 -5.89472e-16 0)
(3 -5.9017e-16 0)
(3 -5.25178e-16 0)
(3 -5.8313e-16 0)
(3 -5.80376e-16 0)
(3 -2.43272e-16 0)
(3 -8.46894e-17 0)
(3 -1.98517e-16 0)
(3 -1.69547e-15 0)
(3.00232 0.00052214 0)
(1.44064 0.317447 0)
(0.813602 0.278792 0)
(0.777471 0.290777 0)
(0.761702 0.298316 0)
(0.74687 0.300361 0)
(0.733909 0.301631 0)
(0.721624 0.301635 0)
(0.709329 0.300202 0)
(0.696265 0.298306 0)
(0.6823 0.29774 0)
(0.668161 0.299624 0)
(0.654628 0.303997 0)
(0.642251 0.310229 0)
(0.630365 0.316183 0)
(0.617924 0.319532 0)
(0.604583 0.319752 0)
(0.590129 0.319426 0)
(0.575012 0.322527 0)
(0.560831 0.330769 0)
(0.547732 0.341749 0)
(0.533176 0.349964 0)
(0.517405 0.354407 0)
(0.501585 0.359845 0)
(0.486034 0.36707 0)
(0.470041 0.37423 0)
(0.453427 0.38069 0)
(0.436224 0.386598 0)
(0.418566 0.392867 0)
(0.400832 0.401005 0)
(0.383258 0.411049 0)
(0.364899 0.42061 0)
(0.345325 0.428235 0)
(0.325318 0.436689 0)
(0.305368 0.446828 0)
(0.285078 0.457263 0)
(0.263422 0.465045 0)
(0.240469 0.469769 0)
(0.216224 0.47324 0)
(0.191497 0.478083 0)
(0.166229 0.484689 0)
(0.140074 0.49321 0)
(0.111307 0.500368 0)
(0.0805853 0.507801 0)
(0.0482654 0.51085 0)
(0.0161856 0.515774 0)
(3 2.33461e-17 0)
(3 1.35015e-16 0)
(3 4.74575e-17 0)
(3 -8.03561e-17 0)
(3 -1.9659e-16 0)
(3 -5.91771e-16 0)
(3 -7.64449e-16 0)
(3 -6.99441e-16 0)
(3 -5.04101e-16 0)
(3 -6.02372e-16 0)
(3 -5.66451e-16 0)
(3 -3.65747e-16 0)
(3 -2.20961e-16 0)
(3 -1.25008e-16 0)
(3 -3.37763e-17 0)
(3 1.59765e-16 0)
(3 1.48001e-16 0)
(3 -7.16978e-16 0)
(3 -8.66136e-16 0)
(3 -9.92489e-16 0)
(3 -9.63874e-16 0)
(3 -1.06699e-15 0)
(3 -1.16077e-15 0)
(3 -9.46761e-16 0)
(3 -9.91205e-16 0)
(3 -1.57603e-15 0)
(3 -1.68004e-15 0)
(3 -1.69655e-15 0)
(3 -1.51824e-15 0)
(3 -1.42814e-15 0)
(3 -1.14439e-15 0)
(3 -4.1966e-16 0)
(3 1.17205e-16 0)
(3 -1.59738e-16 0)
(3 -7.18274e-16 0)
(3 -8.91119e-16 0)
(3 -8.70758e-16 0)
(3 -9.16288e-16 0)
(3 -1.16761e-15 0)
(3 -2.04301e-15 0)
(3 -1.77475e-15 0)
(3 -4.46313e-16 0)
(3 6.97555e-17 0)
(3 4.31265e-16 0)
(3 8.41842e-16 0)
(3 4.67521e-16 0)
(3 -2.3571e-16 0)
(3 -4.5945e-16 0)
(3 -1.39415e-16 0)
(3 -1.10222e-15 0)
(3 9.3698e-07 0)
(2.2337 0.312179 0)
(0.885001 0.341013 0)
(0.783493 0.326411 0)
(0.772107 0.32683 0)
(0.757929 0.329286 0)
(0.745654 0.330663 0)
(0.73367 0.33063 0)
(0.7215 0.329281 0)
(0.708623 0.327878 0)
(0.694969 0.327966 0)
(0.681124 0.330371 0)
(0.667782 0.334759 0)
(0.655554 0.340507 0)
(0.644261 0.346404 0)
(0.632729 0.350689 0)
(0.62028 0.352444 0)
(0.606696 0.352952 0)
(0.592233 0.355652 0)
(0.578079 0.362848 0)
(0.565386 0.374057 0)
(0.552482 0.38501 0)
(0.53807 0.39212 0)
(0.523367 0.398397 0)
(0.509191 0.406236 0)
(0.495195 0.414727 0)
(0.480747 0.422644 0)
(0.46562 0.429793 0)
(0.449776 0.436979 0)
(0.433328 0.445613 0)
(0.416737 0.456598 0)
(0.399968 0.468775 0)
(0.381922 0.479684 0)
(0.362934 0.49033 0)
(0.343612 0.502204 0)
(0.323931 0.515274 0)
(0.302403 0.527245 0)
(0.278279 0.536792 0)
(0.251561 0.545046 0)
(0.222702 0.554881 0)
(0.192678 0.567118 0)
(0.161811 0.58193 0)
(0.129282 0.595596 0)
(0.0950023 0.60656 0)
(0.0586017 0.611809 0)
(0.0188274 0.615003 0)
(3 -1.35603e-17 0)
(3 2.70574e-17 0)
(3 4.94338e-17 0)
(3 -6.74393e-18 0)
(3 -1.12798e-16 0)
(3 -9.30349e-17 0)
(3 -4.74495e-17 0)
(3 1.96176e-16 0)
(3 5.4685e-17 0)
(3 1.52602e-16 0)
(3 3.24476e-16 0)
(3 6.42361e-16 0)
(3 7.95733e-16 0)
(3 5.65684e-16 0)
(3 1.17049e-16 0)
(3 -1.13886e-16 0)
(3 -1.41359e-18 0)
(3 1.97485e-16 0)
(3 1.22518e-16 0)
(3 2.12058e-16 0)
(3 2.35845e-16 0)
(3 -3.35619e-18 0)
(3 1.70571e-16 0)
(3 1.01599e-16 0)
(3 -4.25657e-16 0)
(3 -6.30806e-16 0)
(3 -4.79822e-16 0)
(3 -2.69179e-16 0)
(3 -4.37887e-16 0)
(3 -5.54755e-16 0)
(3 6.71391e-17 0)
(3 3.64701e-16 0)
(3 3.57712e-16 0)
(3 3.44589e-16 0)
(3 7.3096e-17 0)
(3 -1.10581e-17 0)
(3 -6.91375e-16 0)
(3 -9.14265e-16 0)
(3 -1.40866e-15 0)
(3 -1.93549e-15 0)
(3 -2.19629e-16 0)
(3 5.76344e-16 0)
(3 9.63004e-16 0)
(3 9.26096e-16 0)
(3 7.40356e-16 0)
(3 1.06947e-15 0)
(3 1.04315e-15 0)
(3 3.36642e-16 0)
(3 3.61546e-16 0)
(3 -2.30225e-16 0)
(3 1.93739e-09 0)
(3.02978 0.0269031 0)
(1.19525 0.384383 0)
(0.829332 0.334839 0)
(0.81046 0.349416 0)
(0.79613 0.350835 0)
(0.782949 0.352123 0)
(0.770061 0.354157 0)
(0.756278 0.35534 0)
(0.741762 0.355646 0)
(0.726723 0.356634 0)
(0.7117 0.359473 0)
(0.697295 0.363834 0)
(0.683958 0.369082 0)
(0.671848 0.374964 0)
(0.660063 0.380638 0)
(0.647427 0.38475 0)
(0.633717 0.387051 0)
(0.619235 0.389772 0)
(0.604809 0.39572 0)
(0.591773 0.405937 0)
(0.579828 0.417831 0)
(0.566991 0.427296 0)
(0.553558 0.434616 0)
(0.540521 0.442671 0)
(0.528143 0.452004 0)
(0.515646 0.461505 0)
(0.502843 0.470515 0)
(0.489235 0.479257 0)
(0.474573 0.488976 0)
(0.4591 0.500816 0)
(0.443499 0.515227 0)
(0.426886 0.530148 0)
(0.409237 0.545082 0)
(0.390999 0.560826 0)
(0.372286 0.57821 0)
(0.352139 0.596057 0)
(0.329552 0.612784 0)
(0.30434 0.628262 0)
(0.277285 0.644334 0)
(0.249023 0.661311 0)
(0.219824 0.678947 0)
(0.188039 0.697179 0)
(0.149743 0.717963 0)
(0.101481 0.741806 0)
(0.038585 0.761052 0)
(3 2.3106e-17 0)
(3 5.07151e-17 0)
(3 1.0251e-16 0)
(3 2.14643e-17 0)
(3 -9.26006e-17 0)
(3 4.8505e-16 0)