/*--------------------------------*- C++ -*----------------------------------*\
  =========                 |
  \\      /  F ield         | OpenFOAM: The Open Source CFD Toolbox
   \\    /   O peration     | Website:  https://openfoam.org
    \\  /    A nd           | Version:  7
     \\/     M anipulation  |
\*---------------------------------------------------------------------------*/
FoamFile
{
    version     2.0;
    format      ascii;
    class       volScalarField;
    location    "20";
    object      p;
}
// * * * * * * * * * * * * * * * * * * * * * * * * * * * * * * * * * * * * * //

dimensions      [0 2 -2 0 0 0 0];

internalField   nonuniform List<scalar> 
8800
(
0.411685
0.363903
0.325221
0.296232
0.275372
0.260543
0.24994
0.242443
0.237576
0.235414
0.23652
0.240534
0.247018
0.256203
0.268885
0.286549
0.311276
0.345179
0.387694
0.446392
0.242924
0.250603
0.258092
0.261406
0.25991
0.254842
0.248365
0.242285
0.237528
0.234604
0.234182
0.236501
0.240815
0.246609
0.253252
0.259436
0.263009
0.262235
0.25676
0.24804
0.221319
0.227488
0.231634
0.234603
0.236673
0.237291
0.236187
0.234069
0.232003
0.230973
0.231755
0.233934
0.236547
0.238572
0.239052
0.237749
0.23532
0.231858
0.227265
0.223495
0.215496
0.218157
0.220944
0.223389
0.225066
0.22626
0.227018
0.227127
0.226769
0.226582
0.227131
0.228082
0.228707
0.228578
0.227802
0.226567
0.224631
0.221961
0.219499
0.217993
0.210112
0.211547
0.21339
0.2155
0.217356
0.218752
0.219766
0.22055
0.22111
0.221538
0.221944
0.222159
0.222001
0.221485
0.220576
0.219134
0.217263
0.215265
0.213878
0.213052
0.205078
0.206004
0.207343
0.209041
0.210807
0.212449
0.213813
0.214892
0.215783
0.216503
0.216911
0.216921
0.216563
0.215803
0.214611
0.213121
0.211533
0.21006
0.209138
0.208602
0.200268
0.200932
0.202023
0.203509
0.205101
0.20673
0.208311
0.20971
0.210862
0.211759
0.212251
0.212221
0.211696
0.210744
0.20952
0.208189
0.20683
0.205624
0.204925
0.204549
0.195759
0.196248
0.197193
0.198592
0.200116
0.201675
0.20326
0.204809
0.206193
0.207301
0.207902
0.207876
0.20732
0.206416
0.205331
0.204132
0.202884
0.201827
0.201272
0.201006
0.191582
0.19194
0.192755
0.194043
0.1955
0.196991
0.198487
0.199993
0.201483
0.202802
0.20356
0.203655
0.203298
0.202636
0.201742
0.200687
0.199582
0.198677
0.198241
0.198054
0.187784
0.188016
0.188756
0.190017
0.191458
0.192976
0.194584
0.196207
0.197788
0.199245
0.200264
0.20063
0.200454
0.199864
0.199046
0.198103
0.197083
0.196261
0.195921
0.195814
0.184658
0.184783
0.185347
0.18641
0.187655
0.188978
0.190404
0.191994
0.193708
0.195425
0.196725
0.197373
0.197508
0.197325
0.19688
0.196248
0.195503
0.194923
0.19472
0.194671
0.181914
0.18199
0.18236
0.183142
0.184166
0.185369
0.186768
0.188382
0.190198
0.192161
0.193856
0.194928
0.195441
0.195564
0.195445
0.195167
0.194805
0.194543
0.194457
0.194422
0.178863
0.178933
0.179193
0.17975
0.180573
0.18163
0.182999
0.184711
0.186787
0.189156
0.191313
0.192802
0.193735
0.194207
0.194454
0.194555
0.194552
0.194538
0.194515
0.194476
0.174988
0.175049
0.175297
0.175779
0.176503
0.177539
0.178981
0.180861
0.183237
0.186088
0.188832
0.190887
0.19228
0.193194
0.193774
0.194166
0.194431
0.194552
0.194561
0.19452
0.170227
0.170282
0.170553
0.171091
0.17192
0.173098
0.174777
0.177017
0.179886
0.183379
0.186831
0.189473
0.191318
0.192562
0.193495
0.194135
0.194515
0.194677
0.194708
0.194669
0.164661
0.164701
0.165013
0.16573
0.166687
0.168116
0.170132
0.172816
0.176296
0.180613
0.184952
0.188358
0.190794
0.192511
0.193704
0.194524
0.194988
0.195201
0.195268
0.195235
0.158365
0.1584
0.158738
0.159592
0.160918
0.162614
0.165072
0.168352
0.172635
0.177977
0.183408
0.187724
0.190858
0.193072
0.194599
0.195599
0.196176
0.19647
0.196578
0.196548
0.151207
0.151236
0.151635
0.152597
0.15419
0.156379
0.159382
0.163419
0.168718
0.175356
0.182129
0.187554
0.191521
0.194321
0.196279
0.197539
0.198306
0.19872
0.198867
0.198832
0.142889
0.142921
0.143421
0.144539
0.146412
0.149112
0.152828
0.157874
0.164485
0.172758
0.181198
0.18797
0.192907
0.196452
0.198893
0.200516
0.20153
0.202083
0.202268
0.202223
0.132879
0.132921
0.133523
0.13492
0.137216
0.140556
0.145221
0.151558
0.159854
0.170189
0.180674
0.189047
0.195192
0.199579
0.202622
0.204675
0.205982
0.206688
0.206914
0.206856
0.120618
0.120679
0.121464
0.123226
0.126121
0.130352
0.136278
0.144322
0.154784
0.167688
0.180662
0.190978
0.198529
0.203905
0.207663
0.210219
0.211856
0.21273
0.213006
0.212932
0.105289
0.105372
0.106414
0.108743
0.11255
0.118049
0.125717
0.136023
0.149248
0.165324
0.181283
0.193877
0.203064
0.209626
0.21423
0.217385
0.219413
0.220479
0.220813
0.220719
0.0857537
0.0858755
0.0873274
0.0905406
0.0957092
0.103062
0.11317
0.126503
0.143258
0.163208
0.182685
0.19792
0.209011
0.216956
0.222565
0.226443
0.228957
0.23028
0.230671
0.230549
0.0602574
0.0604619
0.0626104
0.0672764
0.0745799
0.0847238
0.098319
0.115719
0.13693
0.161509
0.185037
0.203267
0.21653
0.226083
0.232889
0.237646
0.24075
0.242371
0.242834
0.242678
0.0257444
0.0261517
0.0297015
0.037097
0.048003
0.0625128
0.0810968
0.103848
0.130524
0.160478
0.188532
0.210056
0.22573
0.237121
0.245354
0.251209
0.255074
0.257076
0.257612
0.257406
-0.0236658
-0.0222052
-0.0150044
-0.00206317
0.0151406
0.0363821
0.0618363
0.0913444
0.124467
0.160421
0.193339
0.218357
0.236614
0.250036
0.259935
0.267154
0.272037
0.274583
0.27522
0.274939
-0.0973695
-0.0887935
-0.0722283
-0.0492313
-0.0225742
0.0076317
0.0414989
0.0788127
0.119117
0.161656
0.199918
0.228869
0.250155
0.266075
0.278165
0.287378
0.293903
0.297527
0.298554
0.298444
-0.176206
-0.156779
-0.13026
-0.0968886
-0.0605323
-0.0212259
0.0211406
0.066461
0.114378
0.164278
0.208974
0.242988
0.268338
0.28769
0.302802
0.31471
0.32363
0.329278
0.331275
0.331329
-0.239652
-0.217619
-0.182984
-0.141258
-0.0963888
-0.0486429
0.00183924
0.0548937
0.110162
0.16705
0.217685
0.256194
0.28501
0.307161
0.324558
0.338305
0.348791
0.355525
0.357186
0.357472
-0.291231
-0.267171
-0.227606
-0.179968
-0.12841
-0.0737132
-0.0161821
0.0438416
0.105874
0.169218
0.225185
0.267499
0.299015
0.32313
0.341983
0.356883
0.368168
0.375249
0.377286
0.377659
-0.333533
-0.308602
-0.265548
-0.213336
-0.156547
-0.0962026
-0.0327189
0.0333848
0.101446
0.170594
0.231262
0.276748
0.310307
0.335748
0.355467
0.370935
0.382512
0.389788
0.39214
0.3925
-0.369603
-0.344171
-0.298608
-0.242715
-0.181628
-0.116544
-0.0479666
0.0234625
0.09691
0.171293
0.236169
0.284361
0.319551
0.345936
0.366138
0.38178
0.393391
0.400655
0.403155
0.403481
-0.401367
-0.375666
-0.328149
-0.269251
-0.204565
-0.135381
-0.0623252
0.0138522
0.0921986
0.171404
0.24019
0.290905
0.327562
0.354698
0.375201
0.390871
0.402428
0.409655
0.412268
0.412578
-0.430282
-0.404331
-0.355215
-0.293773
-0.225992
-0.153237
-0.0762094
0.00427529
0.0871473
0.17094
0.243509
0.296647
0.334683
0.362541
0.38336
0.399104
0.410628
0.417741
0.420454
0.42075
-0.457193
-0.431015
-0.380535
-0.3169
-0.246421
-0.170518
-0.0899274
-0.00551155
0.0815905
0.169761
0.246042
0.301675
0.341212
0.369919
0.391145
0.407032
0.41857
0.425543
0.428243
0.428627
-0.482798
-0.456335
-0.404597
-0.339064
-0.266183
-0.187481
-0.103695
-0.0156964
0.0753531
0.167754
0.247863
0.306208
0.347441
0.377135
0.398892
0.415014
0.426604
0.433484
0.436103
0.436482
-0.507371
-0.480592
-0.427709
-0.360538
-0.285513
-0.204324
-0.117666
-0.0263848
0.0683774
0.164959
0.248989
0.310242
0.353425
0.38432
0.406775
0.423259
0.434975
0.441808
0.444287
0.444595
-0.531247
-0.50408
-0.4503
-0.381507
-0.30457
-0.221152
-0.131899
-0.0376118
0.0606406
0.161258
0.249294
0.313722
0.35915
0.391522
0.414873
0.431857
0.443768
0.450584
0.452898
0.453111
-0.554475
-0.526848
-0.472306
-0.402048
-0.323414
-0.238009
-0.14643
-0.0494146
0.0520527
0.156545
0.248684
0.316581
0.364587
0.398725
0.423197
0.440829
0.453013
0.459821
0.461998
0.462061
-0.577126
-0.549115
-0.493736
-0.422209
-0.342072
-0.254911
-0.161269
-0.0618199
0.04259
0.150784
0.247042
0.318667
0.369629
0.405874
0.431713
0.450144
0.462652
0.4694
0.471427
0.471356
-0.599276
-0.570816
-0.514647
-0.441991
-0.360535
-0.271822
-0.176374
-0.0747733
0.0322965
0.143935
0.244247
0.319802
0.374099
0.412868
0.440376
0.459755
0.472614
0.479247
0.48106
0.480869
-0.620949
-0.591968
-0.535046
-0.461367
-0.37874
-0.288688
-0.191672
-0.0881997
0.0212088
0.13597
0.240197
0.319798
0.377777
0.419554
0.449141
0.469651
0.482827
0.489241
0.490765
0.490469
-0.641974
-0.612513
-0.554879
-0.480296
-0.396645
-0.305433
-0.207087
-0.102019
0.00939698
0.126934
0.234806
0.318455
0.380405
0.425725
0.457975
0.479902
0.493254
0.499181
0.500307
0.499908
-0.662306
-0.632399
-0.574112
-0.49872
-0.414184
-0.321989
-0.222524
-0.11614
-0.00303843
0.116874
0.228036
0.315594
0.38166
0.43104
0.466774
0.490754
0.50414
0.508967
0.509396
0.508924
-0.682018
-0.651584
-0.59271
-0.516596
-0.431289
-0.338272
-0.23789
-0.130446
-0.015986
0.105882
0.219879
0.311081
0.381212
0.434996
0.47521
0.502553
0.516389
0.519086
0.517824
0.517305
-0.700936
-0.670056
-0.610622
-0.533861
-0.447903
-0.354201
-0.253087
-0.14482
-0.0293162
0.0940856
0.210388
0.304822
0.378771
0.436901
0.482458
0.515191
0.531675
0.532312
0.527048
0.525323
-0.71915
-0.687809
-0.627869
-0.550542
-0.464061
-0.369822
-0.268173
-0.159324
-0.0430961
0.0814172
0.199449
0.296581
0.374034
0.435936
0.486985
0.527256
0.550522
0.554486
0.544622
0.52424
-0.736603
-0.704851
-0.644574
-0.566823
-0.480043
-0.385458
-0.283555
-0.174437
-0.0578717
0.0672088
0.186352
0.285472
0.366212
0.430925
0.485624
0.533673
0.56383
0.565388
0.549575
0.525933
-0.753141
-0.721353
-0.660566
-0.582452
-0.495568
-0.400771
-0.299007
-0.189827
-0.0733104
0.0517859
0.171313
0.271311
0.354892
0.421345
0.473537
0.522494
0.551406
0.543423
0.472409
0.43249
-0.768168
-0.738362
-0.675491
-0.596866
-0.509946
-0.415302
-0.314245
-0.205276
-0.0891953
0.0353021
0.154362
0.254022
0.339348
0.407647
0.450733
0.481653
0.496082
0.450706
0.375485
0.327013
-0.822005
-0.752838
-0.689055
-0.611447
-0.524566
-0.430397
-0.329336
-0.221037
-0.105845
0.0173857
0.135042
0.233289
0.317039
0.391526
0.400867
0.412733
0.383046
0.317375
0.234526
0.187836
-0.782777
-0.767628
-0.708495
-0.632154
-0.545604
-0.451936
-0.352079
-0.244942
-0.131506
-0.0108907
0.103061
0.197516
0.272849
0.342755
0.347267
0.233571
0.121548
0.0437919
-0.0367816
0.0047823
-0.811861
-0.783888
-0.724454
-0.648109
-0.562029
-0.468787
-0.368932
-0.262746
-0.150842
-0.0327252
0.0775114
0.167279
0.235111
0.273258
0.224177
0.0671469
-0.0762047
-0.178987
-0.293368
-0.226445
-0.834072
-0.802939
-0.742786
-0.666076
-0.580146
-0.48714
-0.38762
-0.282567
-0.172489
-0.057372
0.0485016
0.132295
0.190602
0.19959
0.0858812
-0.11605
-0.292546
-0.429331
-0.594949
-0.536311
-0.855431
-0.822839
-0.761752
-0.684343
-0.598344
-0.505569
-0.406754
-0.302942
-0.194854
-0.0830548
0.0177215
0.0948876
0.139861
0.110667
-0.0651758
-0.299996
-0.526839
-0.73105
-0.964549
-0.960359
-0.875782
-0.843066
-0.781293
-0.703287
-0.617199
-0.524715
-0.426698
-0.324226
-0.218351
-0.110206
-0.0150752
0.0549089
0.0826157
0.014882
-0.210955
-0.467309
-0.736584
-0.97896
-1.28242
-1.6449
-0.896198
-0.863737
-0.801623
-0.723263
-0.637084
-0.54485
-0.447555
-0.346431
-0.242837
-0.138513
-0.0491942
0.0129007
0.0241751
-0.0950789
-0.339495
-0.597471
-0.861812
-1.08674
-1.176
-1.31367
-0.917367
-0.885183
-0.823006
-0.744552
-0.658392
-0.566489
-0.469993
-0.370367
-0.269341
-0.169288
-0.0862828
-0.0335325
-0.0459135
-0.215213
-0.452518
-0.691492
-0.903703
-1.03318
-1.05778
-1.08398
-0.939623
-0.907707
-0.845564
-0.767171
-0.68118
-0.589744
-0.494249
-0.396384
-0.298314
-0.20314
-0.126951
-0.0851237
-0.125013
-0.325678
-0.55456
-0.767337
-0.932587
-1.00004
-1.01514
-1.01887
-0.963137
-0.931308
-0.86932
-0.791039
-0.705327
-0.614535
-0.520234
-0.424407
-0.329682
-0.239976
-0.171072
-0.142507
-0.206606
-0.429306
-0.64979
-0.842696
-0.969185
-0.988649
-0.99088
-0.99105
-0.987826
-0.955945
-0.894208
-0.816077
-0.730759
-0.640742
-0.547823
-0.454291
-0.363284
-0.279557
-0.218653
-0.202993
-0.295034
-0.525743
-0.737174
-0.913055
-0.96277
-0.976146
-0.978427
-0.978305
-1.0134
-0.981509
-0.920016
-0.842131
-0.757286
-0.668183
-0.576827
-0.485816
-0.398895
-0.321512
-0.269402
-0.263061
-0.39996
-0.618213
-0.810848
-0.966812
-0.994723
-0.977879
-0.970603
-0.968979
-1.03928
-1.00766
-0.946382
-0.868896
-0.784626
-0.696558
-0.606908
-0.518616
-0.436054
-0.365359
-0.32211
-0.330562
-0.504404
-0.715708
-0.857459
-0.960486
-0.963841
-0.962631
-0.961105
-0.959536
-1.06504
-1.03387
-0.972951
-0.895937
-0.812345
-0.725404
-0.637576
-0.552143
-0.474029
-0.410505
-0.375694
-0.4054
-0.599528
-0.82771
-0.896205
-0.859327
-0.929477
-0.949357
-0.953316
-0.954832
-1.08984
-1.05919
-0.999124
-0.922662
-0.839828
-0.754105
-0.668139
-0.585613
-0.511824
-0.455847
-0.429513
-0.478365
-0.696192
-0.959438
-1.11163
-1.0031
-1.02185
-1.02641
-1.02571
-1.02218
-1.11273
-1.08285
-1.02409
-0.948259
-0.866336
-0.781848
-0.697687
-0.61792
-0.548255
-0.499448
-0.483133
-0.548714
-0.81064
-1.10722
-1.66684
-1.8162
-1.39907
-1.27785
-1.24933
-1.23376
-1.13243
-1.1039
-1.04649
-0.971879
-0.890902
-0.807651
-0.725119
-0.647642
-0.581792
-0.538614
-0.534702
-0.611477
-0.895338
-1.06329
-1.08759
-1.16797
-1.32358
-1.44457
-1.41784
-1.41031
-1.14766
-1.12097
-1.06558
-0.992244
-0.912461
-0.830339
-0.749131
-0.673188
-0.610053
-0.570819
-0.580586
-0.661023
-0.888891
-0.806541
-0.365403
-0.504777
-1.09847
-1.3529
-1.37388
-1.39083
-1.1572
-1.13291
-1.08006
-1.00836
-0.929741
-0.848665
-0.768333
-0.692956
-0.630077
-0.59358
-0.610099
-0.725445
-1.09937
-1.57529
-2.09662
-2.61917
-2.67373
-2.30186
-1.91639
-1.8349
-1.15956
-1.13845
-1.08887
-1.01917
-0.941714
-0.861443
-0.781274
-0.705259
-0.639837
-0.599933
-0.613703
-0.775559
-1.37721
-2.39623
-3.38968
-3.94523
-3.92439
-3.55551
-3.09602
-2.83126
-1.15416
-1.13671
-1.09111
-1.02389
-0.9476
-0.867801
-0.787009
-0.708592
-0.637849
-0.58436
-0.579899
-0.674492
-1.17608
-1.81394
-2.5676
-2.89684
-2.76146
-2.40354
-2.06574
-1.87606
-1.14005
-1.12602
-1.08606
-1.02218
-0.947093
-0.867389
-0.785323
-0.702985
-0.622545
-0.549342
-0.490811
-0.414581
-0.49512
-0.48254
-0.335914
-0.0943755
0.246992
0.545128
0.737738
0.816772
-1.11826
-1.10811
-1.07399
-1.01414
-0.940245
-0.860512
-0.776905
-0.689991
-0.599338
-0.500597
-0.387318
-0.270729
0.0331351
0.515065
1.10476
1.7083
2.166
2.44256
2.57121
2.60949
-1.09041
-1.08405
-1.0563
-1.00051
-0.927536
-0.848137
-0.763819
-0.674163
-0.575604
-0.458524
-0.327027
-0.173389
0.056618
0.608054
1.29226
1.89462
2.32576
2.56865
2.68143
2.7167
-1.05762
-1.0544
-1.0334
-0.980852
-0.909506
-0.831398
-0.748561
-0.659335
-0.559022
-0.438916
-0.306964
-0.172633
-0.0285198
0.356644
0.894623
1.35069
1.68878
1.88636
1.98601
2.02091
-1.01727
-1.01612
-1.00063
-0.953115
-0.88477
-0.809569
-0.731487
-0.647947
-0.553324
-0.437574
-0.31176
-0.212866
-0.141568
0.0709574
0.424078
0.730638
0.96209
1.10557
1.17906
1.20284
-0.951177
-0.951231
-0.940218
-0.902447
-0.844621
-0.780152
-0.71337
-0.641228
-0.555901
-0.446831
-0.319863
-0.220325
-0.16061
-0.0290329
0.209577
0.405132
0.550492
0.64248
0.694733
0.707225
-0.861954
-0.861077
-0.853349
-0.829153
-0.789657
-0.74348
-0.694084
-0.63859
-0.567907
-0.466437
-0.341488
-0.228152
-0.144934
-0.0621346
0.0852498
0.201483
0.284598
0.335882
0.360152
0.366623
-0.781841
-0.780159
-0.774744
-0.761815
-0.739077
-0.711134
-0.679953
-0.643436
-0.591651
-0.506445
-0.381042
-0.250664
-0.145653
-0.0795078
-0.0245971
0.0418902
0.0953469
0.129197
0.14547
0.147789
-0.734247
-0.732607
-0.729534
-0.723756
-0.712016
-0.698646
-0.684792
-0.670234
-0.648402
-0.596143
-0.482311
-0.333795
-0.205619
-0.160554
-0.124777
-0.0795299
-0.0390246
-0.0086917
0.00775106
0.00804584
-0.718324
-0.717625
-0.716536
-0.714631
-0.711901
-0.710969
-0.715885
-0.731183
-0.75891
-0.785288
-0.723648
-0.551058
-0.388692
-0.332936
-0.285122
-0.21962
-0.160602
-0.118952
-0.0996876
-0.100723
-0.716346
-0.716795
-0.718018
-0.720478
-0.726168
-0.73949
-0.768381
-0.827678
-0.942216
-1.11358
-1.16627
-0.931687
-0.689719
-0.581543
-0.495686
-0.391429
-0.29721
-0.232037
-0.205061
-0.20842
-0.710364
-0.71202
-0.715654
-0.722451
-0.736659
-0.765002
-0.821043
-0.93506
-1.17249
-1.57975
-1.79047
-1.4877
-1.08541
-0.87044
-0.724192
-0.567715
-0.439755
-0.357323
-0.332777
-0.336987
-0.683939
-0.686497
-0.691892
-0.702255
-0.722853
-0.762395
-0.840386
-0.999926
-1.33948
-1.97026
-2.34037
-2.00392
-1.45938
-1.15782
-0.944502
-0.755411
-0.621844
-0.552532
-0.537122
-0.539781
-0.626405
-0.629248
-0.635088
-0.646473
-0.668823
-0.711951
-0.795997
-0.968992
-1.33593
-2.00198
-2.3554
-2.01511
-1.55868
-1.2888
-1.05552
-0.903028
-0.827363
-0.797879
-0.783362
-0.780133
-0.537374
-0.53977
-0.544712
-0.554316
-0.57349
-0.610268
-0.681824
-0.829604
-1.14443
-1.67277
-1.93103
-1.68337
-1.39902
-1.17253
-1.00279
-0.926421
-0.919775
-0.917543
-0.904762
-0.898139
-0.427417
-0.42891
-0.432068
-0.438275
-0.451036
-0.475587
-0.523084
-0.620044
-0.824761
-1.16943
-1.35209
-1.23155
-1.04602
-0.874266
-0.788379
-0.788946
-0.818279
-0.826424
-0.819363
-0.81523
-0.312885
-0.31342
-0.314737
-0.317477
-0.323518
-0.335366
-0.358166
-0.403823
-0.498527
-0.666966
-0.771032
-0.694307
-0.5907
-0.524101
-0.543205
-0.592279
-0.620383
-0.628727
-0.62967
-0.628408
-0.208916
-0.208752
-0.208769
-0.20906
-0.210236
-0.212825
-0.217978
-0.2283
-0.248692
-0.276894
-0.285142
-0.258227
-0.251237
-0.289262
-0.3543
-0.400464
-0.420484
-0.428277
-0.431048
-0.431302
-0.12477
-0.124268
-0.123674
-0.122828
-0.121581
-0.119453
-0.115777
-0.109542
-0.0989179
-0.0794029
-0.0550448
-0.0377598
-0.0883785
-0.157015
-0.211234
-0.242905
-0.25938
-0.266244
-0.269705
-0.270617
-0.0630292
-0.0624688
-0.0617833
-0.0607707
-0.0589394
-0.055489
-0.049378
-0.0390481
-0.0225809
0.000615104
0.0168537
0.0118854
-0.0292177
-0.0792497
-0.116735
-0.138907
-0.149655
-0.155035
-0.15805
-0.159012
-0.0215339
-0.0210661
-0.0205415
-0.0198206
-0.0183563
-0.0153408
-0.00990607
-0.000981446
0.0122491
0.0280836
0.0342848
0.0222433
-0.00638797
-0.0378211
-0.061462
-0.0757127
-0.0829673
-0.0867044
-0.0888077
-0.0895043
0.00400701
0.00433632
0.00464367
0.00495689
0.00579458
0.00780247
0.0115896
0.0177439
0.026277
0.0348541
0.0349204
0.0228382
0.00342022
-0.0159257
-0.0304659
-0.0394087
-0.0441674
-0.0466313
-0.0479687
-0.0484072
0.0181005
0.018304
0.0184279
0.018403
0.018669
0.0197031
0.0218773
0.0254452
0.0301085
0.0337983
0.0311543
0.0212622
0.00825266
-0.00383123
-0.0128652
-0.0186049
-0.0217934
-0.023439
-0.0242813
-0.0245488
0.0245141
0.0246259
0.024621
0.0243826
0.0242666
0.0245848
0.0255679
0.0272869
0.0293626
0.0302325
0.0267881
0.0192381
0.0105005
0.00276188
-0.00301419
-0.00680245
-0.00899496
-0.010123
-0.0106629
-0.0108299
0.0260244
0.0260773
0.026
0.025663
0.0253332
0.0252059
0.025422
0.025973
0.0265256
0.0259767
0.0226112
0.0170084
0.0110815
0.00599989
0.00220122
-0.00035891
-0.00189339
-0.00268199
-0.00303573
-0.00313919
0.0245269
0.0245458
0.0244394
0.0240861
0.0236671
0.0233123
0.0231033
0.0230013
0.0227483
0.0216126
0.0186993
0.0146108
0.0105496
0.00714581
0.00459427
0.00283694
0.00175512
0.00120168
0.000972299
0.000902275
0.0212472
0.0212492
0.0211424
0.0208189
0.0203983
0.019969
0.0195777
0.0191831
0.0185996
0.0173519
0.0150004
0.012063
0.00927716
0.00697888
0.00525003
0.00403874
0.00327845
0.00289247
0.00273595
0.00269092
0.016939
0.0169345
0.0168425
0.0165722
0.0162017
0.0157935
0.0153749
0.0149127
0.0142812
0.013184
0.0114207
0.00938362
0.00751269
0.00598446
0.00482893
0.00400659
0.00348192
0.00321718
0.00311369
0.003085
0.0120446
0.0120387
0.0119685
0.011762
0.0114707
0.0111455
0.0108012
0.0104138
0.00990372
0.00909586
0.00790721
0.00660206
0.00542873
0.00447448
0.00374643
0.0032176
0.00287288
0.00269973
0.00263464
0.00261625
0.00681332
0.00680827
0.00676296
0.00662879
0.00644392
0.00624527
0.00603685
0.00580412
0.00550451
0.00505008
0.00441045
0.00372824
0.00312305
0.00263142
0.00225187
0.0019673
0.00177397
0.00167675
0.0016409
0.00162779
0.0014069
0.00141271
0.00144486
0.00146945
0.00144067
0.00138814
0.0013287
0.00126472
0.00118765
0.00108373
0.000939224
0.00077163
0.000618058
0.000488879
0.000386125
0.000309209
0.000265693
0.000270379
0.000300457
0.000315651
-0.687585
-0.472643
-0.227976
-0.0259973
0.137896
0.26963
0.380478
0.473831
0.516072
0.493521
-0.301211
-0.152476
0.00308776
0.137217
0.251007
0.346194
0.423524
0.478653
0.50717
0.518608
-0.0347443
0.0644297
0.168942
0.261801
0.341873
0.409034
0.462414
0.501403
0.528955
0.546227
0.153316
0.221644
0.294892
0.361405
0.419226
0.46819
0.508175
0.539749
0.564846
0.58269
0.295962
0.345453
0.398118
0.447976
0.4919
0.53002
0.562367
0.588967
0.610782
0.628346
0.411106
0.447974
0.490089
0.529595
0.565562
0.597549
0.625278
0.648354
0.667146
0.68437
0.510306
0.541249
0.578038
0.612564
0.644607
0.673522
0.698649
0.719385
0.735534
0.752582
0.602981
0.633604
0.66934
0.702867
0.733769
0.761465
0.785221
0.804368
0.818192
0.835248
0.700849
0.734843
0.772562
0.807085
0.837952
0.864843
0.887369
0.905076
0.917269
0.93471
0.817497
0.855614
0.894955
0.929835
0.959693
0.984877
1.00561
1.02178
1.03347
1.05158
0.963491
1.00238
1.03871
1.06972
1.09571
1.11807
1.13735
1.15305
1.16562
1.18366
1.13882
1.17085
1.19725
1.21985
1.24001
1.25889
1.27673
1.29331
1.30874
1.32684
1.32778
1.34514
1.36038
1.37675
1.39275
1.40737
1.42065
1.43465
1.45225
1.47243
1.50992
1.51938
1.53097
1.54183
1.55116
1.56083
1.57171
1.58313
1.59453
1.6099
1.71712
1.72083
1.70591
1.69113
1.68492
1.69066
1.70916
1.7395
1.77171
1.79837
2.02347
1.88861
1.81203
1.76977
1.75237
1.75634
1.78378
1.84019
1.94282
2.16719
0.30228
0.300156
0.295671
0.287051
0.274835
0.262714
0.252488
0.244583
0.238929
0.235596
0.235095
0.23764
0.242563
0.249635
0.258903
0.27035
0.282931
0.293916
0.300007
0.303039
0.226715
0.232564
0.238913
0.243422
0.245907
0.245597
0.242871
0.23906
0.235516
0.233163
0.232856
0.234859
0.238331
0.242449
0.246119
0.247894
0.246874
0.243323
0.238106
0.231464
0.218284
0.220582
0.224003
0.227025
0.229128
0.230648
0.231421
0.231102
0.230038
0.229059
0.22906
0.230267
0.231871
0.232986
0.233001
0.231977
0.230317
0.22789
0.224563
0.221615
0.212755
0.213839
0.215707
0.218145
0.220228
0.221708
0.22276
0.223513
0.223882
0.224005
0.224301
0.224851
0.225192
0.225028
0.224415
0.223385
0.221755
0.219531
0.217339
0.215924
0.20756
0.208214
0.209371
0.211174
0.21306
0.214785
0.216147
0.217179
0.218015
0.21869
0.219197
0.219442
0.219338
0.218895
0.218064
0.216757
0.215097
0.213348
0.211887
0.211074
0.202649
0.203094
0.203943
0.205381
0.207026
0.208693
0.210288
0.211673
0.21281
0.213743
0.214392
0.214597
0.214351
0.213676
0.212596
0.211254
0.209806
0.208395
0.207293
0.206745
0.197963
0.198273
0.198956
0.200234
0.201765
0.203351
0.204972
0.206539
0.207918
0.209035
0.209822
0.210102
0.209814
0.209042
0.207949
0.206711
0.205423
0.204164
0.203252
0.202855
0.193638
0.193858
0.194414
0.195558
0.197001
0.198502
0.200009
0.201546
0.203084
0.20448
0.205465
0.205766
0.205473
0.204809
0.203934
0.20289
0.201733
0.200623
0.199869
0.199577
0.18961
0.189748
0.190213
0.191285
0.192685
0.194178
0.195726
0.19728
0.198789
0.200233
0.2014
0.201974
0.201974
0.201533
0.200763
0.199809
0.198753
0.197742
0.197097
0.196893
0.186136
0.186198
0.18656
0.18753
0.188846
0.190245
0.191731
0.193322
0.19501
0.196675
0.19809
0.198901
0.199062
0.198793
0.198239
0.197505
0.196632
0.195767
0.19526
0.195142
0.183279
0.183303
0.183538
0.184246
0.185302
0.186482
0.187796
0.189266
0.190905
0.192699
0.194415
0.195614
0.196216
0.196382
0.196231
0.195856
0.195347
0.194827
0.194557
0.1945
0.180473
0.180489
0.180653
0.181134
0.181938
0.18297
0.184222
0.185755
0.187579
0.189653
0.191757
0.19337
0.194318
0.194757
0.194918
0.194886
0.194752
0.19459
0.19451
0.194474
0.177039
0.177058
0.177207
0.177569
0.178183
0.179067
0.180255
0.181812
0.183797
0.186206
0.188799
0.190951
0.192395
0.193344
0.193869
0.194222
0.194426
0.194542
0.194569
0.194542
0.172719
0.172731
0.172883
0.173252
0.173873
0.174784
0.1761
0.177881
0.180208
0.1831
0.18632
0.18909
0.191025
0.192361
0.193255
0.193811
0.194279
0.19455
0.194627
0.194614
0.167538
0.167535
0.167689
0.168146
0.168891
0.169986
0.171522
0.173635
0.17643
0.17996
0.183962
0.187484
0.190023
0.191793
0.193048
0.193934
0.194521
0.194819
0.194925
0.19493
0.161618
0.161599
0.161771
0.162314
0.163269
0.164595
0.166463
0.169053
0.172451
0.176787
0.181762
0.186211
0.189487
0.191819
0.193441
0.194576
0.195264
0.195642
0.195807
0.195833
0.154912
0.154876
0.155069
0.155698
0.15681
0.158584
0.160891
0.164013
0.168192
0.173552
0.179746
0.185342
0.189489
0.192464
0.194547
0.195966
0.196845
0.197351
0.197586
0.197626
0.147218
0.147171
0.147407
0.148161
0.149516
0.151567
0.154421
0.158308
0.163497
0.170167
0.177887
0.184874
0.19009
0.193818
0.196465
0.198253
0.199407
0.200095
0.200411
0.20046
0.138123
0.138071
0.13837
0.139291
0.140923
0.143394
0.146915
0.151778
0.158285
0.166624
0.176241
0.184928
0.191389
0.196071
0.199363
0.201616
0.203107
0.204014
0.204417
0.204475
0.127037
0.12697
0.127372
0.128521
0.130553
0.133648
0.13809
0.144246
0.152448
0.162896
0.174859
0.185597
0.19359
0.199364
0.20342
0.206222
0.208104
0.209255
0.209756
0.209826
0.113315
0.113236
0.113791
0.1153
0.117916
0.121884
0.127588
0.135457
0.145864
0.158985
0.173823
0.187027
0.196809
0.203859
0.208837
0.21229
0.214626
0.216059
0.216679
0.216761
0.0960059
0.0959195
0.0967138
0.0987569
0.102227
0.107475
0.11496
0.125167
0.138467
0.154934
0.173242
0.189345
0.201213
0.209772
0.215835
0.220062
0.222939
0.224705
0.225468
0.225559
0.0736642
0.0735807
0.0747711
0.0776628
0.0824742
0.0896782
0.0997611
0.113198
0.130261
0.150862
0.173277
0.192724
0.206985
0.217288
0.224631
0.229792
0.23333
0.235499
0.236422
0.236528
0.0439704
0.0439383
0.0458514
0.0502277
0.0573141
0.0676255
0.0815699
0.0994601
0.121366
0.146976
0.174134
0.197337
0.214275
0.22656
0.235401
0.241693
0.246053
0.248726
0.249843
0.249959
0.00275279
0.00293424
0.00646327
0.0139048
0.0251683
0.040593
0.0602551
0.0841618
0.112118
0.143591
0.17604
0.203321
0.223163
0.237644
0.24821
0.255875
0.261297
0.264616
0.265954
0.266069
-0.0578053
-0.0562955
-0.0477813
-0.0337945
-0.0148229
0.00876059
0.0364327
0.0679929
0.103092
0.141105
0.179199
0.210729
0.233596
0.250404
0.262872
0.27214
0.278842
0.283018
0.284663
0.284792
-0.130233
-0.127778
-0.111795
-0.0873784
-0.0578303
-0.0247429
0.0117061
0.0514667
0.0942792
0.139595
0.18437
0.221351
0.248431
0.268699
0.284104
0.295911
0.30483
0.31024
0.311956
0.312359
-0.204772
-0.196884
-0.173318
-0.138876
-0.0996732
-0.0573945
-0.0122541
0.0356847
0.0862158
0.13888
0.190441
0.232966
0.264282
0.288016
0.306418
0.320846
0.331966
0.338444
0.341428
0.342283
-0.263197
-0.253768
-0.225345
-0.184226
-0.137529
-0.0875367
-0.0347139
0.0207448
0.0785126
0.138083
0.195926
0.243385
0.278267
0.304696
0.325184
0.34125
0.35359
0.361502
0.365501
0.366552
-0.310561
-0.300586
-0.268741
-0.222825
-0.170513
-0.114446
-0.0552353
0.00674884
0.0710027
0.136852
0.200349
0.252064
0.289797
0.318177
0.340032
0.35711
0.370259
0.379013
0.383379
0.384494
-0.349928
-0.339834
-0.305867
-0.256219
-0.199398
-0.138381
-0.0738368
-0.0062535
0.0637063
0.135187
0.203743
0.259148
0.299168
0.328956
0.351667
0.369243
0.382665
0.391739
0.396182
0.397394
-0.384089
-0.37399
-0.338435
-0.285828
-0.225327
-0.16014
-0.0909957
-0.0185025
0.0565476
0.133136
0.206314
0.265032
0.307052
0.33799
0.361285
0.379076
0.392529
0.401647
0.406067
0.40732
-0.414597
-0.404533
-0.367793
-0.312733
-0.249151
-0.18038
-0.107203
-0.0303388
0.0493411
0.130646
0.2082
0.270106
0.314006
0.345952
0.369716
0.387679
0.401143
0.410281
0.414723
0.41586
-0.442657
-0.432596
-0.394872
-0.337728
-0.271523
-0.199626
-0.122893
-0.0420796
0.0418592
0.127625
0.20939
0.274403
0.320186
0.353197
0.377504
0.395694
0.409218
0.418345
0.422814
0.423781
-0.469032
-0.458943
-0.420367
-0.361434
-0.292901
-0.218244
-0.13834
-0.0539559
0.0339095
0.123886
0.209767
0.278001
0.325851
0.360097
0.385066
0.403564
0.417195
0.426312
0.430769
0.43164
-0.494186
-0.484063
-0.44472
-0.384203
-0.313592
-0.236483
-0.153752
-0.0661399
0.0253522
0.119344
0.209394
0.281035
0.331135
0.366801
0.392602
0.411542
0.425373
0.434509
0.438934
0.439779
-0.518512
-0.508272
-0.468124
-0.406307
-0.33382
-0.254528
-0.169256
-0.0787142
0.0161468
0.114003
0.208196
0.28342
0.336054
0.373392
0.40024
0.419784
0.433923
0.443136
0.447449
0.448284
-0.542179
-0.531751
-0.490951
-0.427851
-0.35369
-0.272458
-0.184905
-0.0917056
0.00625601
0.107754
0.206042
0.285059
0.340567
0.379893
0.408018
0.428335
0.442886
0.452213
0.456423
0.45722
-0.565218
-0.554595
-0.513211
-0.448904
-0.373265
-0.290303
-0.200728
-0.105151
-0.0043792
0.100519
0.202858
0.285851
0.344547
0.38622
0.415902
0.437181
0.452251
0.461726
0.465811
0.466495
-0.587761
-0.576894
-0.53488
-0.469496
-0.392558
-0.308072
-0.216709
-0.119034
-0.0157391
0.0923142
0.198556
0.285647
0.34785
0.39225
0.423831
0.446283
0.461958
0.471566
0.475498
0.476045
-0.609726
-0.59862
-0.556008
-0.489639
-0.411538
-0.325712
-0.23279
-0.133285
-0.0277575
0.0831393
0.193067
0.284285
0.350288
0.397845
0.431732
0.45561
0.471961
0.481648
0.485362
0.485736
-0.631131
-0.61977
-0.576554
-0.509298
-0.430162
-0.343172
-0.248907
-0.14782
-0.0403712
0.0730244
0.186353
0.28162
0.351609
0.402773
0.4395
0.465174
0.482253
0.491841
0.49518
0.495365
-0.65183
-0.640279
-0.596468
-0.528419
-0.448374
-0.360373
-0.26498
-0.162562
-0.0534934
0.0620532
0.178407
0.277525
0.351577
0.406726
0.446954
0.475042
0.492973
0.502097
0.504737
0.504677
-0.671915
-0.660092
-0.615724
-0.546969
-0.466129
-0.377264
-0.280914
-0.177416
-0.0670146
0.0503282
0.169267
0.271909
0.349945
0.40931
0.453751
0.485279
0.50463
0.512772
0.513875
0.513374
-0.691259
-0.679169
-0.634294
-0.564894
-0.483347
-0.393762
-0.296625
-0.192256
-0.0808116
0.0379392
0.159013
0.264727
0.346512
0.410051
0.459251
0.495639
0.518059
0.525373
0.523263
0.521097
-0.709886
-0.697576
-0.652131
-0.582145
-0.49999
-0.409801
-0.312028
-0.206996
-0.0947649
0.0250462
0.147769
0.255973
0.341154
0.408492
0.462428
0.505022
0.533365
0.543031
0.537652
0.52636
-0.727734
-0.71525
-0.669343
-0.598866
-0.516259
-0.425656