/*--------------------------------*- C++ -*----------------------------------*\
  =========                 |
  \\      /  F ield         | OpenFOAM: The Open Source CFD Toolbox
   \\    /   O peration     | Website:  https://openfoam.org
    \\  /    A nd           | Version:  7
     \\/     M anipulation  |
\*---------------------------------------------------------------------------*/
FoamFile
{
    version     2.0;
    format      ascii;
    class       volScalarField;
    location    "0.002";
    object      mag(U);
}
// * * * * * * * * * * * * * * * * * * * * * * * * * * * * * * * * * * * * * //

dimensions      [0 1 -1 0 0 0 0];

internalField   nonuniform List<scalar> 
1000
(
4.90133e-13
5.36813e-13
5.48482e-13
6.76851e-13
2.45067e-13
2.56736e-13
2.56736e-13
4.31784e-13
4.90133e-13
3.50095e-13
3.73435e-13
5.83492e-13
3.85105e-13
4.66794e-14
1.28368e-13
1.98387e-13
3.38425e-13
8.16889e-14
2.45067e-13
3.38425e-13
1.63378e-13
3.85105e-13
1.51708e-13
4.08444e-13
1.51708e-13
2.91746e-13
2.80076e-13
4.08444e-13
2.91746e-13
1.51708e-13
1.98387e-13
3.61765e-13
4.20114e-13
1.28368e-13
1.28368e-13
2.68406e-13
2.45067e-13
1.63378e-13
4.66794e-14
8.16889e-14
2.45067e-13
2.33397e-14
1.86717e-13
8.16889e-14
8.16889e-14
2.56736e-13
4.90133e-13
4.20114e-13
1.63378e-13
2.10057e-13
5.83492e-14
1.05029e-13
2.56736e-13
3.03416e-13
1.28368e-13
1.40038e-13
1.05029e-13
1.51708e-13
3.03416e-13
2.91746e-13
3.96775e-13
3.61765e-13
3.61765e-13
3.15086e-13
6.30171e-13
5.01803e-13
5.71822e-13
6.41841e-13
5.01803e-13
5.25143e-13
1.28368e-13
1.98387e-13
1.16698e-14
3.03416e-13
5.83492e-14
1.16698e-13
1.28368e-13
1.51708e-13
2.33397e-13
1.05029e-13
3.50095e-14
2.21727e-13
1.40038e-13
3.26756e-13
1.16698e-14
3.26756e-13
9.33587e-14
2.56736e-13
9.33587e-14
1.75048e-13
3.85105e-13
3.03416e-13
3.73435e-13
4.90133e-13
2.68406e-13
1.40038e-13
1.28368e-13
2.56736e-13
2.33397e-14
9.33587e-14
2.33397e-14
5.83492e-14
1.92065e-28
3.26756e-13
2.68406e-13
3.26756e-13
1.98387e-13
2.91746e-13
3.50095e-14
2.33397e-14
7.0019e-14
1.98387e-13
3.50095e-14
1.28368e-13
2.91746e-13
8.16889e-14
1.16698e-13
2.56736e-13
9.33587e-14
9.33587e-14
1.16698e-14
3.50095e-14
1.40038e-13
1.16698e-13
1.51708e-13
3.03416e-13
1.40038e-13
4.31784e-13
1.40038e-13
2.91746e-13
4.66794e-14
1.75048e-13
2.10057e-13
1.05029e-13
1.05029e-13
8.16889e-14
1.28368e-13
2.33397e-14
4.66794e-14
2.33397e-14
1.28368e-13
1.63378e-13
2.56736e-13
1.98387e-13
1.40038e-13
7.0019e-14
2.33397e-14
3.73435e-13
2.10057e-13
3.26756e-13
1.28368e-13
5.71822e-13
4.66794e-14
1.63378e-13
5.83492e-14
1.28368e-13
1.28368e-13
1.05029e-13
1.40038e-13
1.16698e-14
9.33587e-14
8.16889e-14
1.63378e-13
4.66794e-14
1.63378e-13
1.05029e-13
2.45067e-13
2.10057e-13
2.21727e-13
1.51708e-13
5.83492e-14
1.40038e-13
1.05029e-13
2.80076e-13
1.05029e-13
2.33397e-13
2.10057e-13
1.63378e-13
7.0019e-14
3.50095e-14
4.66794e-14
4.66794e-14
7.0019e-14
5.01803e-13
1.98387e-13
5.25143e-13
3.15086e-13
2.10057e-13
1.05029e-13
3.85105e-13
3.96775e-13
3.50095e-13
7.0019e-14
1.05029e-13
1.63378e-13
1.51708e-13
5.83492e-14
2.80076e-13
1.98387e-13
3.38425e-13
2.45067e-13
1.40038e-13
2.33397e-14
1.16698e-14
1.51708e-13
9.33587e-14
9.33587e-14
2.56736e-13
1.28368e-13
3.50095e-14
5.83492e-14
1.75048e-13
1.40038e-13
2.80076e-13
1.51708e-13
3.15086e-13
3.61765e-13
4.66794e-13
4.43454e-13
4.90133e-13
3.96775e-13
4.31784e-13
1.40038e-13
1.05029e-13
1.98387e-13
3.50095e-14
4.66794e-14
1.28368e-13
1.86717e-13
3.38425e-13
8.16889e-14
1.86717e-13
7.0019e-14
2.56736e-13
1.17067e-27
1.05029e-13
1.16698e-14
1.40038e-13
2.10057e-13
2.33397e-14
3.50095e-13
1.86717e-13
1.40038e-13
1.75048e-13
1.16698e-13
8.16889e-14
1.40038e-13
4.66794e-14
2.33397e-14
1.40038e-13
1.26533e-27
3.50095e-14
1.51708e-13
3.50095e-14
3.26756e-13
1.63378e-13
3.03416e-13
1.28368e-13
1.28368e-13
1.40038e-13
9.33587e-14
5.83492e-14
2.33397e-14
4.66794e-14
1.98387e-13
1.16698e-13
3.50095e-14
2.33397e-14
4.66794e-14
9.33587e-14
2.33397e-14
2.10057e-13
3.50095e-14
1.05029e-13
5.83492e-14
3.50095e-14
1.63378e-13
1.75048e-13
2.10057e-13
2.33397e-14
3.50095e-14
1.16698e-13
8.16889e-14
3.50095e-14
1.63378e-13
1.16698e-14
3.50095e-14
8.16889e-14
2.80076e-13
2.10057e-13
4.55124e-13
5.13473e-13
3.61765e-13
5.01803e-13
3.96775e-13
3.96775e-13
4.55124e-13
3.73435e-13
2.80076e-13
2.68406e-13
1.98387e-13
1.40038e-13
1.16698e-14
1.40038e-13
1.40038e-13
1.86717e-13
2.45067e-13
1.86717e-13
5.71822e-13
3.15086e-13
2.91746e-13
5.95162e-13
3.38425e-13
2.45067e-13
3.38425e-13
3.85105e-13
1.75048e-13
1.63378e-13
7.0019e-14
1.05029e-13
1.05029e-13
2.45067e-13
1.40038e-13
2.80076e-13
2.45067e-13
3.50095e-13
5.13473e-13
4.08444e-13
4.31784e-13
3.85105e-13
2.21727e-13
3.50095e-14
1.51708e-13
1.28368e-13
1.16698e-14
1.63378e-13
1.98387e-13
1.16698e-14
3.15086e-13
2.21727e-13
1.05029e-13
4.31784e-13
3.73435e-13
2.56736e-13
3.15086e-13
3.38425e-13
3.96775e-13
3.15086e-13
2.68406e-13
3.61765e-13
4.00741e-28
1.40038e-13
4.66794e-14
7.0019e-14
1.40038e-13
1.63378e-13
5.25143e-13
2.10057e-13
5.25143e-13
2.21727e-13
7.0019e-14
9.33587e-14
3.50095e-14
7.0019e-14
1.58088e-27
3.26756e-13
2.10057e-13
3.26756e-13
3.03416e-13
1.01528e-12
1.71547e-12
4.34118e-12
9.2075e-12
2.20093e-11
4.99469e-11
1.13186e-10
2.53457e-10
5.62836e-10
1.23736e-09
2.69764e-09
5.82712e-09
1.24737e-08
2.64524e-08
5.55683e-08
1.1561e-07
2.38175e-07
4.85797e-07
9.8082e-07
1.95982e-06
3.87479e-06
7.57871e-06
1.4661e-05
2.80452e-05
5.30364e-05
9.91305e-05
0.000183083
0.000334026
0.000601843
0.00107062
0.00187974
0.00325643
0.0055644
0.00937519
0.0155693
0.0254758
0.0410568
0.0651435
0.101722
0.156257
0.236038
0.350496
0.511445
0.73318
1.03235
1.42758
1.93875
2.58606
3.38889
4.36453
5.52714
6.8868
8.44907
10.2148
12.1804
14.3385
16.6786
19.1883
21.854
24.6617
27.5977
30.649
33.8034
37.05
40.3787
43.781
47.249
50.7761
54.3564
57.9848
61.6568
65.3686
69.1168
72.8982
76.7101
80.5502
84.4161
88.3059
92.2177
96.1496
100.1
104.068
108.052
112.05
116.061
120.084
124.119
128.164
132.218
136.281
140.352
144.43
148.514
152.604
156.699
160.801
164.904
169.016
173.124
177.243
181.359
185.481
189.606
193.73
197.858
201.989
206.118
210.25
214.384
218.517
222.651
226.786
230.922
235.057
239.192
243.327
247.462
251.597
255.731
259.864
263.997
268.129
272.26
276.39
280.519
284.647
288.773
292.898
297.021
301.143
305.263
309.382
313.498
317.612
321.725
325.835
329.942
334.047
338.15
342.25
346.347
350.441
354.532
358.62
362.704
366.785
370.862
374.935
379.004
383.068
387.128
391.183
395.233
399.278
403.317
407.35
411.376
415.396
419.409
423.414
427.412
431.4
435.38
439.35
443.31
447.259
451.195
455.12
459.031
462.927
466.808
470.672
474.519
478.346
482.153
485.938
489.698
493.433
497.14
500.818
504.463
508.073
511.646
515.179
518.669
522.112
525.505
528.843
532.124
535.343
538.496
541.577
544.583
547.508
550.348
553.098
555.751
558.305
560.754
563.093
565.319
567.427
569.415
571.28
573.021
574.636
576.126
577.491
578.734
579.857
580.864
581.763
582.558
583.253
583.852
584.368
584.807
585.176
585.485
585.74
585.948
586.116
586.251
586.356
586.439
586.502
586.548
586.58
586.603
586.622
586.634
586.641
586.642
586.638
586.63
586.618
586.603
586.584
586.562
586.537
586.509
586.481
586.453
586.427
586.407
586.391
586.383
586.382
586.384
586.388
586.399
586.42
586.447
586.48
586.514
586.547
586.579
586.607
586.633
586.654
586.67
586.682
586.692
586.701
586.709
586.715
586.721
586.726
586.731
586.735
586.739
586.743
586.747
586.75
586.752
586.755
586.756
586.759
586.76
586.765
586.774
586.777
586.784
586.783
586.78
586.767
586.758
586.733
586.712
586.58
586.517
586.157
585.59
584.438
581.916
577.07
567.23
547.672
509.963
440.013
321.165
166.085
51.5852
11.0145
1.94657
0.302802
0.0454079
0.00678465
0.00101478
0.000151904
2.27468e-05
3.4067e-06
5.10229e-07
7.64192e-08
1.14455e-08
1.71435e-09
2.56635e-10
3.84084e-11
5.44107e-12
7.14779e-13
3.81178e-27
1.31286e-13
1.75048e-13
2.91746e-13
1.75048e-13
2.91746e-14
5.83493e-14
1.45873e-13
2.1881e-13
1.45873e-14
2.1881e-13
2.91746e-14
1.45873e-14
1.02111e-13
4.3762e-14
7.29366e-14
1.02111e-13
2.47984e-13
2.77159e-13
1.75048e-13
4.95969e-13
3.35508e-13
4.52207e-13
3.7927e-13
5.9808e-13
4.81382e-13
3.64683e-13
2.47984e-13
3.64683e-13
2.77159e-13
1.75048e-13
2.77159e-13
2.91746e-14
2.04222e-13
2.04222e-13
4.3762e-13
3.35508e-13
5.25144e-13
4.08445e-13
5.39731e-13
4.3762e-13
3.06334e-13
1.89635e-13
2.33397e-13
2.1881e-13
1.31286e-13
4.66794e-13
2.47984e-13
2.1881e-13
3.50096e-13
1.16699e-13
3.93858e-13
2.04222e-13
2.77159e-13
2.91746e-13
1.31286e-13
4.23032e-13
3.20921e-13
4.52207e-13
7.29366e-14
5.83493e-14
1.75048e-13
1.89635e-13
1.75048e-13
4.08445e-13
4.23032e-13
5.39731e-13
4.08445e-13
5.68906e-13
1.60461e-13
2.91746e-13
1.45873e-13
3.35508e-13
1.45873e-14
4.3762e-14
2.1881e-13
5.10556e-13
4.3762e-14
2.62572e-13
1.31286e-13
4.95969e-13
2.04222e-13
1.02111e-13
2.91746e-14
3.64683e-13
2.1881e-13
5.10556e-13
2.1881e-13
1.16699e-13
1.31286e-13
1.45873e-14
4.3762e-14
2.91746e-14
1.45873e-14
8.75239e-14
1.31286e-13
7.29366e-14
3.33846e-27
1.67239e-27
4.23032e-13
1.60461e-13
7.29366e-14
8.75239e-14
3.06334e-13
2.1881e-13
8.75239e-14
5.96379e-27
7.29366e-14
1.31286e-13
1.89635e-13
1.16699e-13
1.45873e-13
1.16699e-13
1.60461e-13
1.60461e-13
5.83493e-14
1.45873e-14
1.16699e-13
2.91746e-14
1.16699e-13
1.45873e-14
2.62572e-13
1.75048e-13
1.31286e-13
1.60461e-13
8.75239e-14
2.91746e-14
1.02111e-13
8.75239e-14
8.75239e-14
1.16699e-13
2.77159e-13
5.83493e-14
4.08445e-13
1.60461e-13
4.66794e-13
1.60461e-13
5.83493e-13
3.64683e-13
6.12667e-13
5.10556e-13
4.3762e-13
5.10556e-13
4.3762e-13
3.50096e-13
2.77159e-13
3.06334e-13
4.23032e-13
3.06334e-13
5.9808e-13
6.12667e-13
6.56429e-13
5.68906e-13
4.23032e-13
3.50096e-13
2.33397e-13
4.23032e-13
1.16699e-13
2.33397e-13
2.91746e-14
1.16699e-13
3.64683e-13
1.16699e-13
1.16699e-13
4.3762e-13
2.47984e-13
1.60461e-13
3.20921e-13
2.04222e-13
4.3762e-14
2.91746e-14
1.31286e-13
7.29366e-14
8.75239e-14
1.16699e-13
3.66031e-27
1.45873e-14
8.75239e-14
2.33397e-13
2.04222e-13
3.7927e-13
2.62572e-13
2.47984e-13
4.3762e-14
3.35508e-13
1.31286e-13
4.3762e-13
1.89635e-13
3.64683e-13
1.02111e-13
6.12667e-13
1.60461e-13
3.64683e-13
3.93858e-13
6.56429e-13
3.93858e-13
5.54318e-13
3.50096e-13
4.81382e-13
2.1881e-13
3.20921e-13
4.66794e-13
8.46065e-13
7.73128e-13
7.73128e-13
1.00653e-12
6.56429e-13
9.77351e-13
6.12667e-13
9.48176e-13
9.33589e-13
9.91938e-13
1.23992e-12
1.0357e-12
1.37121e-12
8.02303e-13
1.0357e-12
7.73128e-13
8.46065e-13
9.48176e-13
7.87715e-13
8.1689e-13
3.06334e-13
5.83493e-13
3.64683e-13
4.08445e-13
1.31286e-13
3.93858e-13
2.91746e-13
4.52207e-13
4.81382e-13
3.20921e-13
1.89635e-13
1.16699e-13
2.91746e-14
8.75239e-14
4.3762e-14
2.04222e-13
4.3762e-14
2.33397e-13
5.83493e-14
5.83493e-14
2.47984e-13
1.89635e-13
1.45873e-13
1.89635e-13
2.91746e-14
4.3762e-14
1.60461e-13
1.31286e-13
2.92825e-27
2.47984e-13
1.02111e-13
4.3762e-14
1.75048e-13
1.89635e-13
7.29366e-14
7.29366e-14
5.83493e-14
8.75239e-14
1.89635e-13
2.04222e-13
1.45873e-13
1.45873e-14
2.1881e-13
1.16699e-13
2.47984e-13
1.16699e-13
2.77159e-13
2.1881e-13
1.89635e-13
8.75239e-14
2.91746e-14
1.60461e-13
4.3762e-14
1.02111e-13
1.31286e-13
2.04222e-13
3.93858e-13
2.04222e-13
1.45873e-14
1.23062e-27
1.75048e-13
7.29366e-14
3.06334e-13
4.3762e-14
2.77159e-13
2.91746e-14
1.02111e-13
2.91746e-13
4.3762e-14
1.60461e-13
1.02111e-13
1.02111e-13
1.60461e-13
1.45873e-14
1.02111e-13
7.29366e-14
2.91746e-14
5.83493e-14
2.91746e-13
1.45873e-13
3.06334e-13
1.75048e-13
1.60461e-13
1.31286e-13
1.02111e-13
2.91746e-14
1.45873e-14
7.29366e-14
2.91746e-13
)
;

boundaryField
{
    sides
    {
        type            calculated;
        value           nonuniform List<scalar> 2(2.91746e-13 4.90133e-13);
    }
    empty
    {
        type            empty;
    }
}


// ************************************************************************* //
