/*--------------------------------*- C++ -*----------------------------------*\
  =========                 |
  \\      /  F ield         | OpenFOAM: The Open Source CFD Toolbox
   \\    /   O peration     | Website:  https://openfoam.org
    \\  /    A nd           | Version:  7
     \\/     M anipulation  |
\*---------------------------------------------------------------------------*/
FoamFile
{
    version     2.0;
    format      ascii;
    class       surfaceScalarField;
    location    "0.002";
    object      phi;
}
// * * * * * * * * * * * * * * * * * * * * * * * * * * * * * * * * * * * * * //

dimensions      [1 0 -1 0 0 0 0];

internalField   nonuniform List<scalar> 
999
(
-2.09184e-11
-2.27374e-11
-2.50111e-11
-1.72804e-11
-1.04592e-11
-1.09139e-11
-1.36424e-11
-1.54614e-11
-1.68257e-11
-1.36424e-11
-2.00089e-11
-2.13731e-11
-8.6402e-12
0
-1.04592e-11
-1.00044e-11
-1.00044e-11
-7.27596e-12
-1.18234e-11
-9.54969e-12
-1.13687e-11
-1.27329e-11
-1.18234e-11
-1.36424e-11
-9.54969e-12
-1.22782e-11
-1.40972e-11
-1.77351e-11
-7.27596e-12
-6.82121e-12
-1.09139e-11
-1.81899e-11
-1.45519e-11
-3.63798e-12
-8.6402e-12
-1.40972e-11
-5.00222e-12
-6.82121e-12
-4.09273e-12
3.18323e-12
5.91172e-12
2.27374e-12
5.00222e-12
5.45697e-12
6.82121e-12
1.81899e-11
1.86446e-11
1.27329e-11
6.36646e-12
6.82121e-12
4.54747e-12
-4.54747e-12
-1.04592e-11
-1.04592e-11
-6.36646e-12
-4.54747e-12
-4.54747e-12
-1.09139e-11
-1.13687e-11
-1.63709e-11
-1.54614e-11
-1.31877e-11
-1.31877e-11
-2.00089e-11
-2.54659e-11
-1.86446e-11
-2.54659e-11
-2.45564e-11
-2.04636e-11
-1.36424e-11
-8.6402e-12
-2.72848e-12
-5.91172e-12
-1.04592e-11
-1.36424e-12
-1.36424e-12
0
-7.7307e-12
-5.45697e-12
4.54747e-12
3.18323e-12
7.27596e-12
1.00044e-11
8.6402e-12
9.54969e-12
1.81899e-12
-4.09273e-12
-1.00044e-11
-4.54747e-12
-1.18234e-11
-1.40972e-11
-1.50067e-11
-1.81899e-11
-1.72804e-11
-8.6402e-12
-5.00222e-12
-1.09139e-11
-4.54747e-12
1.36424e-12
4.09273e-12
1.36424e-12
1.81899e-12
5.45697e-12
1.22782e-11
1.45519e-11
7.27596e-12
1.22782e-11
6.82121e-12
3.18323e-12
-9.09495e-13
8.6402e-12
2.72848e-12
-3.63798e-12
-9.09495e-12
-9.54969e-12
-3.63798e-12
2.72848e-12
8.18545e-12
-1.81899e-12
-9.09495e-13
-2.27374e-12
3.18323e-12
5.00222e-12
7.7307e-12
-4.09273e-12
-8.18545e-12
-1.22782e-11
-1.18234e-11
-1.04592e-11
-6.82121e-12
-5.91172e-12
-7.27596e-12
-5.45697e-12
-9.09495e-13
6.82121e-12
1.81899e-12
5.45697e-12
-4.54747e-13
-1.36424e-12
-2.72848e-12
-5.45697e-12
-6.82121e-12
-1.22782e-11
-5.45697e-12
-7.27596e-12
4.54747e-13
7.7307e-12
1.45519e-11
1.13687e-11
9.09495e-12
1.59162e-11
1.31877e-11
4.54747e-12
3.63798e-12
3.63798e-12
-4.54747e-13
-6.82121e-12
-4.09273e-12
-1.36424e-12
4.54747e-13
4.54747e-12
-1.81899e-12
-6.36646e-12
-2.72848e-12
-1.36424e-12
-5.00222e-12
-8.18545e-12
-8.6402e-12
-9.54969e-12
-5.00222e-12
-5.00222e-12
-5.00222e-12
-6.82121e-12
-8.18545e-12
-5.45697e-12
-1.22782e-11
-5.00222e-12
-4.09273e-12
5.00222e-12
-1.81899e-12
0
-3.18323e-12
-1.04592e-11
-1.77351e-11
-1.18234e-11
-2.00089e-11
-1.27329e-11
-5.91172e-12
-1.27329e-11
-1.45519e-11
-1.81899e-11
-5.91172e-12
-4.54747e-13
-4.54747e-12
-9.54969e-12
-5.00222e-12
6.36646e-12
1.09139e-11
9.54969e-12
1.31877e-11
6.82121e-12
3.18323e-12
4.54747e-13
-4.09273e-12
-6.82121e-12
-3.18323e-12
3.18323e-12
5.91172e-12
-7.7307e-12
9.09495e-13
1.81899e-12
5.45697e-12
8.6402e-12
8.6402e-12
6.82121e-12
1.59162e-11
1.50067e-11
1.59162e-11
2.09184e-11
1.86446e-11
1.95541e-11
1.13687e-11
5.45697e-12
3.63798e-12
5.45697e-12
-1.36424e-12
-5.00222e-12
-1.00044e-11
-9.54969e-12
-6.82121e-12
-6.82121e-12
-4.09273e-12
9.54969e-12
3.63798e-12
5.00222e-12
0
5.91172e-12
-2.72848e-12
-2.72848e-12
-8.6402e-12
-1.13687e-11
-6.82121e-12
-5.45697e-12
-3.63798e-12
6.36646e-12
-1.81899e-12
-5.45697e-12
4.54747e-13
4.09273e-12
1.36424e-12
9.09495e-13
1.36424e-12
5.00222e-12
4.09273e-12
1.00044e-11
1.09139e-11
8.6402e-12
7.27596e-12
-1.36424e-12
-4.09273e-12
-3.63798e-12
-1.81899e-12
2.72848e-12
-3.63798e-12
-4.54747e-12
4.09273e-12
-2.72848e-12
-9.09495e-13
9.09495e-13
2.27374e-12
8.6402e-12
2.72848e-12
-3.18323e-12
-3.63798e-12
4.09273e-12
3.18323e-12
1.00044e-11
7.7307e-12
2.72848e-12
4.54747e-13
5.91172e-12
1.36424e-12
3.18323e-12
-5.00222e-12
-4.54747e-12
0
-3.63798e-12
-8.6402e-12
-8.18545e-12
-1.45519e-11
-2.00089e-11
-2.27374e-11
-1.36424e-11
-1.90994e-11
-1.90994e-11
-1.81899e-11
-1.63709e-11
-1.45519e-11
-9.09495e-12
-1.04592e-11
-6.36646e-12
-2.72848e-12
1.36424e-12
5.91172e-12
7.27596e-12
9.54969e-12
6.36646e-12
1.77351e-11
1.86446e-11
1.13687e-11
1.86446e-11
2.27374e-11
8.18545e-12
1.04592e-11
1.54614e-11
1.45519e-11
6.82121e-12
6.36646e-12
4.09273e-12
2.27374e-12
8.18545e-12
8.6402e-12
7.7307e-12
1.13687e-11
1.00044e-11
2.00089e-11
1.86446e-11
1.50067e-11
1.77351e-11
1.09139e-11
5.45697e-12
-5.00222e-12
-5.45697e-12
-2.72848e-12
-3.63798e-12
-8.6402e-12
-3.63798e-12
-6.82121e-12
-1.22782e-11
-6.82121e-12
-1.18234e-11
-1.81899e-11
-1.18234e-11
-1.22782e-11
-1.50067e-11
-1.54614e-11
-1.45519e-11
-1.13687e-11
-1.31877e-11
-7.27596e-12
-2.27374e-12
-2.72848e-12
0
4.54747e-13
7.7307e-12
1.50067e-11
1.59162e-11
1.50067e-11
1.36424e-11
6.82121e-12
2.72848e-12
3.63798e-12
-2.27374e-12
-9.09495e-13
6.82121e-12
1.09139e-11
1.00044e-11
1.40972e-11
2.18279e-11
4.8658e-11
1.06866e-10
2.36923e-10
5.4979e-10
1.26829e-09
2.88401e-09
6.49379e-09
1.44996e-08
3.20474e-08
7.02184e-08
1.525e-07
3.28185e-07
6.9979e-07
1.47821e-06
3.09281e-06
6.40835e-06
1.31473e-05
2.67024e-05
5.36787e-05
0.000106784
0.000210172
0.000409184
0.000787842
0.00149982
0.00282237
0.00524874
0.00964389
0.017502
0.0313643
0.0554844
0.0968631
0.166824
0.283348
0.474454
0.782923
1.2727
2.03726
3.20998
4.97638
7.58755
11.3734
16.7541
24.2458
34.4599
48.0904
65.8894
88.6295
117.057
151.837
193.504
242.42
298.742
362.414
433.18
510.599
594.092
682.976
776.52
873.978
974.627
1077.78
1182.82
1289.16
1396.31
1503.83
1611.34
1718.52
1825.08
1930.79
2035.45
2138.9
2240.98
2341.59
2440.61
2537.95
2633.55
2727.33
2819.25
2909.26
2997.31
3083.39
3167.45
3249.49
3329.47
3407.4
3483.27
3557.06
3628.79
3698.44
3766.05
3831.58
3895.13
3956.49
4016.21
4073.23
4129.41
4182.09
4234.43
4283.91
4330.99
4378.41
4420.84
4463.93
4504.85
4542.41
4579.88
4615.65
4648.41
4680.24
4711.05
4739.56
4766.12
4791.73
4816.01
4838.36
4858.99
4878.49
4896.79
4913.53
4928.64
4942.43
4955.11
4966.58
4976.65
4985.32
4992.77
4999.16
5004.44
5008.56
5011.44
5013.17
5013.83
5013.53
5012.24
5009.93
5006.57
5002.21
4996.88
4990.68
4983.62
4975.73
4966.96
4957.33
4946.83
4935.54
4923.47
4910.69
4897.22
4883.05
4868.19
4852.63
4836.39
4819.49
4801.98
4783.89
4765.25
4746.08
4726.4
4706.2
4685.49
4664.28
4642.58
4620.43
4597.86
4574.89
4551.57
4527.9
4503.92
4479.64
4455.05
4430.17
4405.01
4379.6
4353.95
4328.09
4302.07
4275.91
4249.65
4223.32
4196.96
4170.58
4144.21
4117.87
4091.57
4065.34
4039.2
4013.18
3987.33
3961.68
3936.28
3911.19
3886.47
3862.16
3838.32
3814.99
3792.23
3770.05
3748.51
3727.62
3707.39
3687.86
3669.02
3650.9
3633.51
3616.88
3601.02
3585.93
3571.66
3558.3
3545.77
3534.08
3523.3
3513.42
3504.38
3496.12
3488.59
3481.65
3475.19
3469.01
3462.87
3456.5
3449.55
3441.61
3432.17
3420.7
3406.57
3389.2
3368.02
3342.08
3310.71
3273.26
3229.08
3177.64
3118.61
3051.75
2977.06
2894.76
2805.32
2709.43
2608.01
2502.19
2393.26
2282.6
2171.71
2061.95
1954.81
1851.44
1753.05
1660.59
1574.77
1495.95
1424.48
1360.34
1303.4
1253.4
1209.93
1172.53
1140.66
1113.77
1091.3
1072.71
1057.48
1045.14
1035.23
1027.37
1021.21
1016.44
1012.81
1010.08
1008.08
1006.64
1005.64
1004.96
1004.54
1004.31
1004.21
1004.19
1004.24
1004.31
1004.44
1004.53
1004.69
1004.85
1004.97
1005.07
1005.16
1005.18
1005.19
1005.04
1004.58
1003.74
1001.76
998.168
990.719
975.093
945.267
888.587
789.82
633.447
419.513
203.297
65.4908
13.7833
2.18927
0.324272
0.0480079
0.00715044
0.00106858
0.000159916
2.39447e-05
3.58599e-06
5.3708e-07
8.04405e-08
1.20479e-08
1.80447e-09
2.70305e-10
4.04654e-11
5.98277e-12
8.10019e-13
6.39488e-14
-3.55271e-14
-5.68434e-14
-1.56319e-13
-1.20792e-13
-4.9738e-14
-1.42109e-14
-4.26326e-14
-6.39488e-14
-7.81597e-14
-3.55271e-14
-7.81597e-14
-2.13163e-14
-1.42109e-14
-3.55271e-14
7.10543e-15
0
-9.23706e-14
-1.49214e-13
-8.52651e-14
-1.7053e-13
-2.34479e-13
-1.98952e-13
-1.91847e-13
-2.62901e-13
-2.77112e-13
-2.06057e-13
-1.06581e-13
-1.84741e-13
-1.91847e-13
-4.26326e-14
0
-1.06581e-13
-8.52651e-14
-9.23706e-14
-1.7053e-13
-2.4869e-13
-1.7053e-13
-2.62901e-13
-2.34479e-13
-2.20268e-13
-2.27374e-13
-1.06581e-13
-9.9476e-14
-8.52651e-14
-1.13687e-13
-1.13687e-13
-2.20268e-13
-8.52651e-14
-1.84741e-13
-7.81597e-14
-1.63425e-13
-1.13687e-13
-1.56319e-13
-1.13687e-13
-1.42109e-13
-1.06581e-13
-2.27374e-13
-1.84741e-13
-1.49214e-13
-3.55271e-14
-7.81597e-14
-8.52651e-14
-7.81597e-14
-1.56319e-13
-2.20268e-13
-2.62901e-13
-2.55795e-13
-1.98952e-13
-2.13163e-13
-8.52651e-14
-7.10543e-14
-1.42109e-14
-1.06581e-13
-7.10543e-15
-8.52651e-14
-1.77636e-13
-1.56319e-13
-7.10543e-14
-2.84217e-14
-6.39488e-14
-1.7053e-13
-9.9476e-14
-2.84217e-14
7.81597e-14
1.42109e-13
1.91847e-13
1.63425e-13
9.9476e-14
-2.13163e-14
-2.13163e-14
7.10543e-15
7.10543e-15
0
4.9738e-14
2.84217e-14
7.81597e-14
0
1.42109e-14
8.52651e-14
1.7053e-13
7.10543e-14
3.55271e-14
7.81597e-14
1.63425e-13
6.39488e-14
4.26326e-14
1.42109e-14
-2.13163e-14
1.42109e-14
1.06581e-13
5.68434e-14
8.52651e-14
4.9738e-14
7.10543e-15
-3.55271e-14
-4.26326e-14
-2.13163e-14
-6.39488e-14
7.10543e-15
3.55271e-14
4.26326e-14
1.49214e-13
8.52651e-14
0
-2.13163e-14
2.13163e-14
-1.42109e-14
-4.26326e-14
-5.68434e-14
-7.81597e-14
-5.68434e-14
-7.81597e-14
-1.13687e-13
-1.77636e-13
-1.56319e-13
-1.49214e-13
-1.84741e-13
-2.20268e-13
-2.70006e-13
-2.70006e-13
-2.62901e-13
-2.41585e-13
-2.41585e-13
-1.91847e-13
-1.98952e-13
-1.06581e-13
-2.13163e-13
-2.06057e-13
-1.91847e-13
-2.98428e-13
-2.98428e-13
-3.33955e-13
-2.41585e-13
-1.7053e-13
-1.35003e-13
-1.84741e-13
-1.42109e-13
-9.9476e-14
-4.26326e-14
-7.10543e-14
6.39488e-14
8.52651e-14
-7.81597e-14
-1.27898e-13
-2.06057e-13
-9.9476e-14
-1.13687e-13
-1.42109e-13
-2.13163e-14
-1.42109e-14
3.55271e-14
6.39488e-14
4.26326e-14
-1.42109e-14
-4.9738e-14
1.42109e-14
2.84217e-14
7.81597e-14
1.20792e-13
1.77636e-13
1.35003e-13
1.42109e-13
9.9476e-14
9.9476e-14
1.27898e-13
1.63425e-13
1.49214e-13
1.27898e-13
1.42109e-13
1.91847e-13
1.98952e-13
1.13687e-13
2.13163e-13
2.41585e-13
2.62901e-13
2.06057e-13
2.62901e-13
1.77636e-13
1.84741e-13
1.42109e-13
1.63425e-13
3.19744e-13
3.97904e-13
3.97904e-13
4.33431e-13
4.54747e-13
4.40536e-13
3.41061e-13
4.12115e-13
4.76064e-13
4.9738e-13
5.68434e-13
6.18172e-13
5.7554e-13
5.82645e-13
4.26326e-13
4.54747e-13
3.83693e-13
4.76064e-13
4.1922e-13
4.26326e-13
2.41585e-13
2.27374e-13
2.4869e-13
1.98952e-13
1.35003e-13
1.20792e-13
1.56319e-13
2.06057e-13
2.62901e-13
1.91847e-13
1.42109e-13
1.06581e-13
3.55271e-14
-7.10543e-15
3.55271e-14
3.55271e-14
2.13163e-14
7.10543e-14
5.68434e-14
4.26326e-14
7.10543e-14
7.81597e-14
1.13687e-13
-1.42109e-14
-8.52651e-14
1.42109e-14
5.68434e-14
4.9738e-14
3.55271e-14
7.10543e-14
4.26326e-14
-2.13163e-14
-4.9738e-14
-7.10543e-14
-9.9476e-14
-3.55271e-14
-3.55271e-14
-4.26326e-14
-7.10543e-14
-8.52651e-14
-1.13687e-13
-4.9738e-14
8.52651e-14
9.23706e-14
8.52651e-14
6.39488e-14
1.20792e-13
1.27898e-13
7.81597e-14
9.23706e-14
2.84217e-14
4.9738e-14
2.84217e-14
-2.13163e-14
-4.9738e-14
-1.06581e-13
-1.56319e-13
-1.77636e-13
-4.26326e-14
-1.42109e-14
-6.39488e-14
-6.39488e-14
-1.06581e-13
-5.68434e-14
-9.9476e-14
-8.52651e-14
-4.26326e-14
7.81597e-14
4.26326e-14
7.10543e-14
0
-4.9738e-14
-6.39488e-14
-2.84217e-14
-2.84217e-14
-6.39488e-14
-2.13163e-14
-3.55271e-14
-1.06581e-13
-1.20792e-13
-1.06581e-13
-1.20792e-13
-8.52651e-14
-2.84217e-14
1.42109e-14
-2.84217e-14
-1.42109e-14
1.42109e-14
1.13687e-13
)
;

boundaryField
{
    sides
    {
        type            calculated;
        value           nonuniform List<scalar> 2(1.38243e-13 1.86265e-11);
    }
    empty
    {
        type            empty;
        value           nonuniform 0();
    }
}


// ************************************************************************* //
