/*--------------------------------*- C++ -*----------------------------------*\
  =========                 |
  \\      /  F ield         | OpenFOAM: The Open Source CFD Toolbox
   \\    /   O peration     | Website:  https://openfoam.org
    \\  /    A nd           | Version:  7
     \\/     M anipulation  |
\*---------------------------------------------------------------------------*/
FoamFile
{
    version     2.0;
    format      ascii;
    class       volScalarField;
    location    "0.002";
    object      rho;
}
// * * * * * * * * * * * * * * * * * * * * * * * * * * * * * * * * * * * * * //

dimensions      [1 -3 0 0 0 0 0];

internalField   nonuniform List<scalar> 
1000
(
9.97574
9.97574
9.97574
9.97574
9.97574
9.97574
9.97574
9.97574
9.97574
9.97574
9.97574
9.97574
9.97574
9.97574
9.97574
9.97574
9.97574
9.97574
9.97574
9.97574
9.97574
9.97574
9.97574
9.97574
9.97574
9.97574
9.97574
9.97574
9.97574
9.97574
9.97574
9.97574
9.97574
9.97574
9.97574
9.97574
9.97574
9.97574
9.97574
9.97574
9.97574
9.97574
9.97574
9.97574
9.97574
9.97574
9.97574
9.97574
9.97574
9.97574
9.97574
9.97574
9.97574
9.97574
9.97574
9.97574
9.97574
9.97574
9.97574
9.97574
9.97574
9.97574
9.97574
9.97574
9.97574
9.97574
9.97574
9.97574
9.97574
9.97574
9.97574
9.97574
9.97574
9.97574
9.97574
9.97574
9.97574
9.97574
9.97574
9.97574
9.97574
9.97574
9.97574
9.97574
9.97574
9.97574
9.97574
9.97574
9.97574
9.97574
9.97574
9.97574
9.97574
9.97574
9.97574
9.97574
9.97574
9.97574
9.97574
9.97574
9.97574
9.97574
9.97574
9.97574
9.97574
9.97574
9.97574
9.97574
9.97574
9.97574
9.97574
9.97574
9.97574
9.97574
9.97574
9.97574
9.97574
9.97574
9.97574
9.97574
9.97574
9.97574
9.97574
9.97574
9.97574
9.97574
9.97574
9.97574
9.97574
9.97574
9.97574
9.97574
9.97574
9.97574
9.97574
9.97574
9.97574
9.97574
9.97574
9.97574
9.97574
9.97574
9.97574
9.97574
9.97574
9.97574
9.97574
9.97574
9.97574
9.97574
9.97574
9.97574
9.97574
9.97574
9.97574
9.97574
9.97574
9.97574
9.97574
9.97574
9.97574
9.97574
9.97574
9.97574
9.97574
9.97574
9.97574
9.97574
9.97574
9.97574
9.97574
9.97574
9.97574
9.97574
9.97574
9.97574
9.97574
9.97574
9.97574
9.97574
9.97574
9.97574
9.97574
9.97574
9.97574
9.97574
9.97574
9.97574
9.97574
9.97574
9.97574
9.97574
9.97574
9.97574
9.97574
9.97574
9.97574
9.97574
9.97574
9.97574
9.97574
9.97574
9.97574
9.97574
9.97574
9.97574
9.97574
9.97574
9.97574
9.97574
9.97574
9.97574
9.97574
9.97574
9.97574
9.97574
9.97574
9.97574
9.97574
9.97574
9.97574
9.97574
9.97574
9.97574
9.97574
9.97574
9.97574
9.97574
9.97574
9.97574
9.97574
9.97574
9.97574
9.97574
9.97574
9.97574
9.97574
9.97574
9.97574
9.97574
9.97574
9.97574
9.97574
9.97574
9.97574
9.97574
9.97574
9.97574
9.97574
9.97574
9.97574
9.97574
9.97574
9.97574
9.97574
9.97574
9.97574
9.97574
9.97574
9.97574
9.97574
9.97574
9.97574
9.97574
9.97574
9.97574
9.97574
9.97574
9.97574
9.97574
9.97574
9.97574
9.97574
9.97574
9.97574
9.97574
9.97574
9.97574
9.97574
9.97574
9.97574
9.97574
9.97574
9.97574
9.97574
9.97574
9.97574
9.97574
9.97574
9.97574
9.97574
9.97574
9.97574
9.97574
9.97574
9.97574
9.97574
9.97574
9.97574
9.97574
9.97574
9.97574
9.97574
9.97574
9.97574
9.97574
9.97574
9.97574
9.97574
9.97574
9.97574
9.97574
9.97574
9.97574
9.97574
9.97574
9.97574
9.97574
9.97574
9.97574
9.97574
9.97574
9.97574
9.97574
9.97574
9.97574
9.97574
9.97574
9.97574
9.97574
9.97574
9.97574
9.97574
9.97574
9.97574
9.97574
9.97574
9.97574
9.97574
9.97574
9.97574
9.97574
9.97574
9.97574
9.97574
9.97574
9.97574
9.97574
9.97574
9.97574
9.97574
9.97574
9.97574
9.97574
9.97574
9.97574
9.97574
9.97574
9.97574
9.97574
9.97574
9.97574
9.97574
9.97574
9.97574
9.97574
9.97574
9.97574
9.97574
9.97574
9.97574
9.97574
9.97574
9.97574
9.97574
9.97574
9.97574
9.97574
9.97574
9.97574
9.97574
9.97574
9.97574
9.97574
9.97574
9.97574
9.97574
9.97574
9.97574
9.97574
9.97574
9.97574
9.97574
9.97574
9.97574
9.97574
9.97573
9.97573
9.97571
9.97569
9.97566
9.9756
9.9755
9.97534
9.97508
9.97467
9.97404
9.97308
9.97165
9.96955
9.96654
9.9623
9.95645
9.94855
9.93811
9.9246
9.9075
9.8863
9.86057
9.82996
9.79423
9.75329
9.70717
9.65601
9.60009
9.53973
9.47533
9.40732
9.33611
9.26211
9.18573
9.10731
9.02717
8.94562
8.86289
8.77922
8.69479
8.60977
8.52431
8.43853
8.35255
8.26645
8.18031
8.09423
8.00825
7.92243
7.83684
7.75152
7.66651
7.58185
7.49757
7.41372
7.33032
7.2474
7.16498
7.08308
7.00173
6.92095
6.84072
6.76114
6.68202
6.60391
6.52543
6.4498
6.37036
6.29955
6.21676
6.15192
6.06781
6.0028
5.92615
5.85383
5.78517
5.71318
5.64179
5.57529
5.50525
5.43688
5.36991
5.30429
5.23707
5.17193
5.10736
5.04394
4.97977
4.91714
4.85493
4.794
4.73275
4.67256
4.61265
4.55409
4.49559
4.438
4.38048
4.3241
4.26802
4.21296
4.15804
4.10398
4.05014
3.99728
3.94474
3.8931
3.8417
3.79109
3.74075
3.69121
3.64207
3.59369
3.54571
3.49838
3.45145
3.40512
3.35924
3.31398
3.26921
3.22504
3.18132
3.13818
3.09546
3.0533
3.01157
2.97041
2.92971
2.88958
2.84991
2.81079
2.77211
2.73395
2.69623
2.65902
2.62225
2.58601
2.55023
2.51498
2.4802
2.44595
2.41216
2.37888
2.34605
2.31373
2.28187
2.25052
2.21963
2.18929
2.15943
2.13012
2.10132
2.07309
2.04537
2.01823
1.99162
1.96558
1.94007
1.91515
1.8908
1.86705
1.84391
1.8214
1.79955
1.77836
1.75787
1.7381
1.71904
1.70074
1.68317
1.66638
1.65033
1.63505
1.62053
1.60677
1.59376
1.5815
1.56999
1.55923
1.54917
1.53988
1.53133
1.52347
1.51626
1.50979
1.50392
1.49872
1.49398
1.48983
1.48599
1.48258
1.47929
1.47617
1.47291
1.46948
1.46552
1.46098
1.45536
1.44865
1.44035
1.43042
1.41821
1.4036
1.38624
1.36593
1.34242
1.31564
1.28547
1.25203
1.2154
1.17587
1.13376
1.08952
1.04366
0.996743
0.94941
0.902269
0.855887
0.810963
0.767814
0.727073
0.68894
0.653823
0.621727
0.592799
0.566979
0.544195
0.524289
0.507085
0.492358
0.479879
0.469402
0.460696
0.453535
0.447699
0.442996
0.439242
0.436288
0.433981
0.432219
0.430876
0.429892
0.429163
0.42866
0.428302
0.428082
0.42794
0.427877
0.427849
0.427868
0.427877
0.427946
0.427952
0.428052
0.428054
0.428164
0.428172
0.428249
0.428243
0.428303
0.428185
0.428289
0.428043
0.427723
0.427307
0.425873
0.423585
0.418601
0.408951
0.390948
0.35961
0.31079
0.245432
0.181708
0.14262
0.128409
0.125284
0.124784
0.124709
0.124699
0.124697
0.124697
0.124697
0.124697
0.124697
0.124697
0.124697
0.124697
0.124697
0.124697
0.124697
0.124697
0.124697
0.124697
0.124697
0.124697
0.124697
0.124697
0.124697
0.124697
0.124697
0.124697
0.124697
0.124697
0.124697
0.124697
0.124697
0.124697
0.124697
0.124697
0.124697
0.124697
0.124697
0.124697
0.124697
0.124697
0.124697
0.124697
0.124697
0.124697
0.124697
0.124697
0.124697
0.124697
0.124697
0.124697
0.124697
0.124697
0.124697
0.124697
0.124697
0.124697
0.124697
0.124697
0.124697
0.124697
0.124697
0.124697
0.124697
0.124697
0.124697
0.124697
0.124697
0.124697
0.124697
0.124697
0.124697
0.124697
0.124697
0.124697
0.124697
0.124697
0.124697
0.124697
0.124697
0.124697
0.124697
0.124697
0.124697
0.124697
0.124697
0.124697
0.124697
0.124697
0.124697
0.124697
0.124697
0.124697
0.124697
0.124697
0.124697
0.124697
0.124697
0.124697
0.124697
0.124697
0.124697
0.124697
0.124697
0.124697
0.124697
0.124697
0.124697
0.124697
0.124697
0.124697
0.124697
0.124697
0.124697
0.124697
0.124697
0.124697
0.124697
0.124697
0.124697
0.124697
0.124697
0.124697
0.124697
0.124697
0.124697
0.124697
0.124697
0.124697
0.124697
0.124697
0.124697
0.124697
0.124697
0.124697
0.124697
0.124697
0.124697
0.124697
0.124697
0.124697
0.124697
0.124697
0.124697
0.124697
0.124697
0.124697
0.124697
0.124697
0.124697
0.124697
0.124697
0.124697
0.124697
0.124697
0.124697
0.124697
0.124697
0.124697
0.124697
0.124697
0.124697
0.124697
0.124697
0.124697
0.124697
0.124697
0.124697
0.124697
0.124697
0.124697
0.124697
0.124697
0.124697
0.124697
0.124697
0.124697
0.124697
0.124697
0.124697
0.124697
0.124697
0.124697
0.124697
0.124697
0.124697
0.124697
0.124697
0.124697
0.124697
0.124697
0.124697
0.124697
0.124697
0.124697
0.124697
0.124697
0.124697
0.124697
0.124697
0.124697
0.124697
0.124697
0.124697
0.124697
0.124697
0.124697
0.124697
0.124697
0.124697
0.124697
0.124697
0.124697
0.124697
0.124697
0.124697
0.124697
0.124697
0.124697
0.124697
0.124697
0.124697
0.124697
0.124697
0.124697
0.124697
0.124697
0.124697
0.124697
0.124697
0.124697
0.124697
0.124697
0.124697
0.124697
0.124697
0.124697
0.124697
0.124697
0.124697
0.124697
0.124697
0.124697
0.124697
0.124697
0.124697
0.124697
0.124697
0.124697
0.124697
0.124697
0.124697
0.124697
0.124697
0.124697
0.124697
0.124697
0.124697
0.124697
0.124697
0.124697
0.124697
0.124697
0.124697
0.124697
0.124697
0.124697
0.124697
0.124697
0.124697
0.124697
0.124697
0.124697
0.124697
0.124697
0.124697
0.124697
0.124697
0.124697
0.124697
0.124697
0.124697
0.124697
0.124697
0.124697
0.124697
0.124697
0.124697
0.124697
0.124697
0.124697
0.124697
0.124697
0.124697
0.124697
0.124697
0.124697
0.124697
0.124697
0.124697
0.124697
0.124697
0.124697
0.124697
0.124697
0.124697
0.124697
0.124697
0.124697
0.124697
0.124697
0.124697
0.124697
0.124697
0.124697
0.124697
0.124697
0.124697
0.124697
0.124697
0.124697
0.124697
0.124697
0.124697
0.124697
0.124697
0.124697
0.124697
)
;

boundaryField
{
    sides
    {
        type            calculated;
        value           nonuniform List<scalar> 2(0.124697 9.97574);
    }
    empty
    {
        type            empty;
    }
}


// ************************************************************************* //
