/*--------------------------------*- C++ -*----------------------------------*\
  =========                 |
  \\      /  F ield         | OpenFOAM: The Open Source CFD Toolbox
   \\    /   O peration     | Website:  https://openfoam.org
    \\  /    A nd           | Version:  7
     \\/     M anipulation  |
\*---------------------------------------------------------------------------*/
FoamFile
{
    version     2.0;
    format      ascii;
    class       volVectorField;
    location    "0.002";
    object      U;
}
// * * * * * * * * * * * * * * * * * * * * * * * * * * * * * * * * * * * * * //

dimensions      [0 1 -1 0 0 0 0];

internalField   nonuniform List<vector> 
1000
(
(-4.90133e-13 0 0)
(-5.36813e-13 0 0)
(-5.48482e-13 0 0)
(-6.76851e-13 0 0)
(-2.45067e-13 0 0)
(-2.56736e-13 0 0)
(-2.56736e-13 0 0)
(-4.31784e-13 0 0)
(-4.90133e-13 0 0)
(-3.50095e-13 0 0)
(-3.73435e-13 0 0)
(-5.83492e-13 0 0)
(-3.85105e-13 0 0)
(-4.66794e-14 0 0)
(-1.28368e-13 0 0)
(-1.98387e-13 0 0)
(-3.38425e-13 0 0)
(-8.16889e-14 0 0)
(-2.45067e-13 0 0)
(-3.38425e-13 0 0)
(-1.63378e-13 0 0)
(-3.85105e-13 0 0)
(-1.51708e-13 0 0)
(-4.08444e-13 0 0)
(-1.51708e-13 0 0)
(-2.91746e-13 0 0)
(-2.80076e-13 0 0)
(-4.08444e-13 0 0)
(-2.91746e-13 0 0)
(-1.51708e-13 0 0)
(-1.98387e-13 0 0)
(-3.61765e-13 0 0)
(-4.20114e-13 0 0)
(-1.28368e-13 0 0)
(-1.28368e-13 0 0)
(-2.68406e-13 0 0)
(-2.45067e-13 0 0)
(-1.63378e-13 0 0)
(-4.66794e-14 0 0)
(-8.16889e-14 0 0)
(2.45067e-13 0 0)
(-2.33397e-14 0 0)
(1.86717e-13 0 0)
(8.16889e-14 0 0)
(8.16889e-14 0 0)
(2.56736e-13 0 0)
(4.90133e-13 0 0)
(4.20114e-13 0 0)
(1.63378e-13 0 0)
(2.10057e-13 0 0)
(5.83492e-14 0 0)
(1.05029e-13 0 0)
(-2.56736e-13 0 0)
(-3.03416e-13 0 0)
(-1.28368e-13 0 0)
(-1.40038e-13 0 0)
(-1.05029e-13 0 0)
(-1.51708e-13 0 0)
(-3.03416e-13 0 0)
(-2.91746e-13 0 0)
(-3.96775e-13 0 0)
(-3.61765e-13 0 0)
(-3.61765e-13 0 0)
(-3.15086e-13 0 0)
(-6.30171e-13 0 0)
(-5.01803e-13 0 0)
(-5.71822e-13 0 0)
(-6.41841e-13 0 0)
(-5.01803e-13 0 0)
(-5.25143e-13 0 0)
(-1.28368e-13 0 0)
(-1.98387e-13 0 0)
(1.16698e-14 0 0)
(-3.03416e-13 0 0)
(-5.83492e-14 0 0)
(-1.16698e-13 0 0)
(1.28368e-13 0 0)
(-1.51708e-13 0 0)
(-2.33397e-13 0 0)
(1.05029e-13 0 0)
(-3.50095e-14 0 0)
(2.21727e-13 0 0)
(1.40038e-13 0 0)
(3.26756e-13 0 0)
(1.16698e-14 0 0)
(3.26756e-13 0 0)
(-9.33587e-14 0 0)
(-2.56736e-13 0 0)
(-9.33587e-14 0 0)
(-1.75048e-13 0 0)
(-3.85105e-13 0 0)
(-3.03416e-13 0 0)
(-3.73435e-13 0 0)
(-4.90133e-13 0 0)
(-2.68406e-13 0 0)
(-1.40038e-13 0 0)
(-1.28368e-13 0 0)
(-2.56736e-13 0 0)
(2.33397e-14 0 0)
(9.33587e-14 0 0)
(2.33397e-14 0 0)
(5.83492e-14 0 0)
(-1.92065e-28 0 0)
(3.26756e-13 0 0)
(2.68406e-13 0 0)
(3.26756e-13 0 0)
(1.98387e-13 0 0)
(2.91746e-13 0 0)
(3.50095e-14 0 0)
(2.33397e-14 0 0)
(7.0019e-14 0 0)
(1.98387e-13 0 0)
(-3.50095e-14 0 0)
(-1.28368e-13 0 0)
(-2.91746e-13 0 0)
(-8.16889e-14 0 0)
(-1.16698e-13 0 0)
(2.56736e-13 0 0)
(9.33587e-14 0 0)
(-9.33587e-14 0 0)
(1.16698e-14 0 0)
(-3.50095e-14 0 0)
(1.40038e-13 0 0)
(1.16698e-13 0 0)
(1.51708e-13 0 0)
(-3.03416e-13 0 0)
(-1.40038e-13 0 0)
(-4.31784e-13 0 0)
(-1.40038e-13 0 0)
(-2.91746e-13 0 0)
(-4.66794e-14 0 0)
(-1.75048e-13 0 0)
(-2.10057e-13 0 0)
(-1.05029e-13 0 0)
(1.05029e-13 0 0)
(8.16889e-14 0 0)
(1.28368e-13 0 0)
(2.33397e-14 0 0)
(-4.66794e-14 0 0)
(2.33397e-14 0 0)
(-1.28368e-13 0 0)
(-1.63378e-13 0 0)
(-2.56736e-13 0 0)
(-1.98387e-13 0 0)
(-1.40038e-13 0 0)
(-7.0019e-14 0 0)
(2.33397e-14 0 0)
(3.73435e-13 0 0)
(2.10057e-13 0 0)
(3.26756e-13 0 0)
(1.28368e-13 0 0)
(5.71822e-13 0 0)
(4.66794e-14 0 0)
(1.63378e-13 0 0)
(5.83492e-14 0 0)
(1.28368e-13 0 0)
(-1.28368e-13 0 0)
(-1.05029e-13 0 0)
(-1.40038e-13 0 0)
(-1.16698e-14 0 0)
(9.33587e-14 0 0)
(8.16889e-14 0 0)
(-1.63378e-13 0 0)
(-4.66794e-14 0 0)
(-1.63378e-13 0 0)
(1.05029e-13 0 0)
(-2.45067e-13 0 0)
(-2.10057e-13 0 0)
(-2.21727e-13 0 0)
(-1.51708e-13 0 0)
(-5.83492e-14 0 0)
(-1.40038e-13 0 0)
(-1.05029e-13 0 0)
(-2.80076e-13 0 0)
(-1.05029e-13 0 0)
(-2.33397e-13 0 0)
(-2.10057e-13 0 0)
(-1.63378e-13 0 0)
(7.0019e-14 0 0)
(3.50095e-14 0 0)
(-4.66794e-14 0 0)
(-4.66794e-14 0 0)
(-7.0019e-14 0 0)
(-5.01803e-13 0 0)
(-1.98387e-13 0 0)
(-5.25143e-13 0 0)
(-3.15086e-13 0 0)
(-2.10057e-13 0 0)
(-1.05029e-13 0 0)
(-3.85105e-13 0 0)
(-3.96775e-13 0 0)
(-3.50095e-13 0 0)
(7.0019e-14 0 0)
(-1.05029e-13 0 0)
(-1.63378e-13 0 0)
(-1.51708e-13 0 0)
(-5.83492e-14 0 0)
(2.80076e-13 0 0)
(1.98387e-13 0 0)
(3.38425e-13 0 0)
(2.45067e-13 0 0)
(1.40038e-13 0 0)
(-2.33397e-14 0 0)
(1.16698e-14 0 0)
(-1.51708e-13 0 0)
(-9.33587e-14 0 0)
(-9.33587e-14 0 0)
(2.56736e-13 0 0)
(-1.28368e-13 0 0)
(-3.50095e-14 0 0)
(-5.83492e-14 0 0)
(1.75048e-13 0 0)
(1.40038e-13 0 0)
(2.80076e-13 0 0)
(1.51708e-13 0 0)
(3.15086e-13 0 0)
(3.61765e-13 0 0)
(4.66794e-13 0 0)
(4.43454e-13 0 0)
(4.90133e-13 0 0)
(3.96775e-13 0 0)
(4.31784e-13 0 0)
(1.40038e-13 0 0)
(1.05029e-13 0 0)
(1.98387e-13 0 0)
(-3.50095e-14 0 0)
(-4.66794e-14 0 0)
(-1.28368e-13 0 0)
(-1.86717e-13 0 0)
(-3.38425e-13 0 0)
(-8.16889e-14 0 0)
(-1.86717e-13 0 0)
(7.0019e-14 0 0)
(2.56736e-13 0 0)
(-1.17067e-27 0 0)
(1.05029e-13 0 0)
(1.16698e-14 0 0)
(1.40038e-13 0 0)
(-2.10057e-13 0 0)
(2.33397e-14 0 0)
(-3.50095e-13 0 0)
(-1.86717e-13 0 0)
(-1.40038e-13 0 0)
(-1.75048e-13 0 0)
(1.16698e-13 0 0)
(8.16889e-14 0 0)
(-1.40038e-13 0 0)
(-4.66794e-14 0 0)
(2.33397e-14 0 0)
(1.40038e-13 0 0)
(-1.26533e-27 0 0)
(-3.50095e-14 0 0)
(1.51708e-13 0 0)
(-3.50095e-14 0 0)
(3.26756e-13 0 0)
(1.63378e-13 0 0)
(3.03416e-13 0 0)
(1.28368e-13 0 0)
(1.28368e-13 0 0)
(-1.40038e-13 0 0)
(-9.33587e-14 0 0)
(-5.83492e-14 0 0)
(2.33397e-14 0 0)
(4.66794e-14 0 0)
(-1.98387e-13 0 0)
(1.16698e-13 0 0)
(-3.50095e-14 0 0)
(-2.33397e-14 0 0)
(-4.66794e-14 0 0)
(9.33587e-14 0 0)
(2.33397e-14 0 0)
(2.10057e-13 0 0)
(-3.50095e-14 0 0)
(-1.05029e-13 0 0)
(5.83492e-14 0 0)
(3.50095e-14 0 0)
(1.63378e-13 0 0)
(1.75048e-13 0 0)
(2.10057e-13 0 0)
(2.33397e-14 0 0)
(3.50095e-14 0 0)
(1.16698e-13 0 0)
(8.16889e-14 0 0)
(-3.50095e-14 0 0)
(-1.63378e-13 0 0)
(-1.16698e-14 0 0)
(-3.50095e-14 0 0)
(-8.16889e-14 0 0)
(-2.80076e-13 0 0)
(-2.10057e-13 0 0)
(-4.55124e-13 0 0)
(-5.13473e-13 0 0)
(-3.61765e-13 0 0)
(-5.01803e-13 0 0)
(-3.96775e-13 0 0)
(-3.96775e-13 0 0)
(-4.55124e-13 0 0)
(-3.73435e-13 0 0)
(-2.80076e-13 0 0)
(-2.68406e-13 0 0)
(-1.98387e-13 0 0)
(-1.40038e-13 0 0)
(1.16698e-14 0 0)
(1.40038e-13 0 0)
(1.40038e-13 0 0)
(1.86717e-13 0 0)
(2.45067e-13 0 0)
(1.86717e-13 0 0)
(5.71822e-13 0 0)
(3.15086e-13 0 0)
(2.91746e-13 0 0)
(5.95162e-13 0 0)
(3.38425e-13 0 0)
(2.45067e-13 0 0)
(3.38425e-13 0 0)
(3.85105e-13 0 0)
(1.75048e-13 0 0)
(1.63378e-13 0 0)
(7.0019e-14 0 0)
(1.05029e-13 0 0)
(1.05029e-13 0 0)
(2.45067e-13 0 0)
(1.40038e-13 0 0)
(2.80076e-13 0 0)
(2.45067e-13 0 0)
(3.50095e-13 0 0)
(5.13473e-13 0 0)
(4.08444e-13 0 0)
(4.31784e-13 0 0)
(3.85105e-13 0 0)
(2.21727e-13 0 0)
(-3.50095e-14 0 0)
(-1.51708e-13 0 0)
(-1.28368e-13 0 0)
(-1.16698e-14 0 0)
(-1.63378e-13 0 0)
(-1.98387e-13 0 0)
(1.16698e-14 0 0)
(-3.15086e-13 0 0)
(-2.21727e-13 0 0)
(-1.05029e-13 0 0)
(-4.31784e-13 0 0)
(-3.73435e-13 0 0)
(-2.56736e-13 0 0)
(-3.15086e-13 0 0)
(-3.38425e-13 0 0)
(-3.96775e-13 0 0)
(-3.15086e-13 0 0)
(-2.68406e-13 0 0)
(-3.61765e-13 0 0)
(-4.00741e-28 0 0)
(-1.40038e-13 0 0)
(4.66794e-14 0 0)
(-7.0019e-14 0 0)
(1.40038e-13 0 0)
(1.63378e-13 0 0)
(5.25143e-13 0 0)
(2.10057e-13 0 0)
(5.25143e-13 0 0)
(2.21727e-13 0 0)
(7.0019e-14 0 0)
(9.33587e-14 0 0)
(3.50095e-14 0 0)
(-7.0019e-14 0 0)
(1.58088e-27 0 0)
(3.26756e-13 0 0)
(2.10057e-13 0 0)
(3.26756e-13 0 0)
(3.03416e-13 0 0)
(1.01528e-12 0 0)
(1.71547e-12 0 0)
(4.34118e-12 0 0)
(9.2075e-12 0 0)
(2.20093e-11 0 0)
(4.99469e-11 0 0)
(1.13186e-10 0 0)
(2.53457e-10 0 0)
(5.62836e-10 0 0)
(1.23736e-09 0 0)
(2.69764e-09 0 0)
(5.82712e-09 0 0)
(1.24737e-08 0 0)
(2.64524e-08 0 0)
(5.55683e-08 0 0)
(1.1561e-07 0 0)
(2.38175e-07 0 0)
(4.85797e-07 0 0)
(9.8082e-07 0 0)
(1.95982e-06 0 0)
(3.87479e-06 0 0)
(7.57871e-06 0 0)
(1.4661e-05 0 0)
(2.80452e-05 0 0)
(5.30364e-05 0 0)
(9.91305e-05 0 0)
(0.000183083 0 0)
(0.000334026 0 0)
(0.000601843 0 0)
(0.00107062 0 0)
(0.00187974 0 0)
(0.00325643 0 0)
(0.0055644 0 0)
(0.00937519 0 0)
(0.0155693 0 0)
(0.0254758 0 0)
(0.0410568 0 0)
(0.0651435 0 0)
(0.101722 0 0)
(0.156257 0 0)
(0.236038 0 0)
(0.350496 0 0)
(0.511445 0 0)
(0.73318 0 0)
(1.03235 0 0)
(1.42758 0 0)
(1.93875 0 0)
(2.58606 0 0)
(3.38889 0 0)
(4.36453 0 0)
(5.52714 0 0)
(6.8868 0 0)
(8.44907 0 0)
(10.2148 0 0)
(12.1804 0 0)
(14.3385 0 0)
(16.6786 0 0)
(19.1883 0 0)
(21.854 0 0)
(24.6617 0 0)
(27.5977 0 0)
(30.649 0 0)
(33.8034 0 0)
(37.05 0 0)
(40.3787 0 0)
(43.781 0 0)
(47.249 0 0)
(50.7761 0 0)
(54.3564 0 0)
(57.9848 0 0)
(61.6568 0 0)
(65.3686 0 0)
(69.1168 0 0)
(72.8982 0 0)
(76.7101 0 0)
(80.5502 0 0)
(84.4161 0 0)
(88.3059 0 0)
(92.2177 0 0)
(96.1496 0 0)
(100.1 0 0)
(104.068 0 0)
(108.052 0 0)
(112.05 0 0)
(116.061 0 0)
(120.084 0 0)
(124.119 0 0)
(128.164 0 0)
(132.218 0 0)
(136.281 0 0)
(140.352 0 0)
(144.43 0 0)
(148.514 0 0)
(152.604 0 0)
(156.699 0 0)
(160.801 0 0)
(164.904 0 0)
(169.016 0 0)
(173.124 0 0)
(177.243 0 0)
(181.359 0 0)
(185.481 0 0)
(189.606 0 0)
(193.73 0 0)
(197.858 0 0)
(201.989 0 0)
(206.118 0 0)
(210.25 0 0)
(214.384 0 0)
(218.517 0 0)
(222.651 0 0)
(226.786 0 0)
(230.922 0 0)
(235.057 0 0)
(239.192 0 0)
(243.327 0 0)
(247.462 0 0)
(251.597 0 0)
(255.731 0 0)
(259.864 0 0)
(263.997 0 0)
(268.129 0 0)
(272.26 0 0)
(276.39 0 0)
(280.519 0 0)
(284.647 0 0)
(288.773 0 0)
(292.898 0 0)
(297.021 0 0)
(301.143 0 0)
(305.263 0 0)
(309.382 0 0)
(313.498 0 0)
(317.612 0 0)
(321.725 0 0)
(325.835 0 0)
(329.942 0 0)
(334.047 0 0)
(338.15 0 0)
(342.25 0 0)
(346.347 0 0)
(350.441 0 0)
(354.532 0 0)
(358.62 0 0)
(362.704 0 0)
(366.785 0 0)
(370.862 0 0)
(374.935 0 0)
(379.004 0 0)
(383.068 0 0)
(387.128 0 0)
(391.183 0 0)
(395.233 0 0)
(399.278 0 0)
(403.317 0 0)
(407.35 0 0)
(411.376 0 0)
(415.396 0 0)
(419.409 0 0)
(423.414 0 0)
(427.412 0 0)
(431.4 0 0)
(435.38 0 0)
(439.35 0 0)
(443.31 0 0)
(447.259 0 0)
(451.195 0 0)
(455.12 0 0)
(459.031 0 0)
(462.927 0 0)
(466.808 0 0)
(470.672 0 0)
(474.519 0 0)
(478.346 0 0)
(482.153 0 0)
(485.938 0 0)
(489.698 0 0)
(493.433 0 0)
(497.14 0 0)
(500.818 0 0)
(504.463 0 0)
(508.073 0 0)
(511.646 0 0)
(515.179 0 0)
(518.669 0 0)
(522.112 0 0)
(525.505 0 0)
(528.843 0 0)
(532.124 0 0)
(535.343 0 0)
(538.496 0 0)
(541.577 0 0)
(544.583 0 0)
(547.508 0 0)
(550.348 0 0)
(553.098 0 0)
(555.751 0 0)
(558.305 0 0)
(560.754 0 0)
(563.093 0 0)
(565.319 0 0)
(567.427 0 0)
(569.415 0 0)
(571.28 0 0)
(573.021 0 0)
(574.636 0 0)
(576.126 0 0)
(577.491 0 0)
(578.734 0 0)
(579.857 0 0)
(580.864 0 0)
(581.763 0 0)
(582.558 0 0)
(583.253 0 0)
(583.852 0 0)
(584.368 0 0)
(584.807 0 0)
(585.176 0 0)
(585.485 0 0)
(585.74 0 0)
(585.948 0 0)
(586.116 0 0)
(586.251 0 0)
(586.356 0 0)
(586.439 0 0)
(586.502 0 0)
(586.548 0 0)
(586.58 0 0)
(586.603 0 0)
(586.622 0 0)
(586.634 0 0)
(586.641 0 0)
(586.642 0 0)
(586.638 0 0)
(586.63 0 0)
(586.618 0 0)
(586.603 0 0)
(586.584 0 0)
(586.562 0 0)
(586.537 0 0)
(586.509 0 0)
(586.481 0 0)
(586.453 0 0)
(586.427 0 0)
(586.407 0 0)
(586.391 0 0)
(586.383 0 0)
(586.382 0 0)
(586.384 0 0)
(586.388 0 0)
(586.399 0 0)
(586.42 0 0)
(586.447 0 0)
(586.48 0 0)
(586.514 0 0)
(586.547 0 0)
(586.579 0 0)
(586.607 0 0)
(586.633 0 0)
(586.654 0 0)
(586.67 0 0)
(586.682 0 0)
(586.692 0 0)
(586.701 0 0)
(586.709 0 0)
(586.715 0 0)
(586.721 0 0)
(586.726 0 0)
(586.731 0 0)
(586.735 0 0)
(586.739 0 0)
(586.743 0 0)
(586.747 0 0)
(586.75 0 0)
(586.752 0 0)
(586.755 0 0)
(586.756 0 0)
(586.759 0 0)
(586.76 0 0)
(586.765 0 0)
(586.774 0 0)
(586.777 0 0)
(586.784 0 0)
(586.783 0 0)
(586.78 0 0)
(586.767 0 0)
(586.758 0 0)
(586.733 0 0)
(586.712 0 0)
(586.58 0 0)
(586.517 0 0)
(586.157 0 0)
(585.59 0 0)
(584.438 0 0)
(581.916 0 0)
(577.07 0 0)
(567.23 0 0)
(547.672 0 0)
(509.963 0 0)
(440.013 0 0)
(321.165 0 0)
(166.085 0 0)
(51.5852 0 0)
(11.0145 0 0)
(1.94657 0 0)
(0.302802 0 0)
(0.0454079 0 0)
(0.00678465 0 0)
(0.00101478 0 0)
(0.000151904 0 0)
(2.27468e-05 0 0)
(3.4067e-06 0 0)
(5.10229e-07 0 0)
(7.64192e-08 0 0)
(1.14455e-08 0 0)
(1.71435e-09 0 0)
(2.56635e-10 0 0)
(3.84084e-11 0 0)
(5.44107e-12 0 0)
(7.14779e-13 0 0)
(-3.81178e-27 0 0)
(-1.31286e-13 0 0)
(-1.75048e-13 0 0)
(-2.91746e-13 0 0)
(-1.75048e-13 0 0)
(-2.91746e-14 0 0)
(-5.83493e-14 0 0)
(-1.45873e-13 0 0)
(-2.1881e-13 0 0)
(-1.45873e-14 0 0)
(-2.1881e-13 0 0)
(-2.91746e-14 0 0)
(-1.45873e-14 0 0)
(-1.02111e-13 0 0)
(-4.3762e-14 0 0)
(7.29366e-14 0 0)
(-1.02111e-13 0 0)
(-2.47984e-13 0 0)
(-2.77159e-13 0 0)
(-1.75048e-13 0 0)
(-4.95969e-13 0 0)
(-3.35508e-13 0 0)
(-4.52207e-13 0 0)
(-3.7927e-13 0 0)
(-5.9808e-13 0 0)
(-4.81382e-13 0 0)
(-3.64683e-13 0 0)
(-2.47984e-13 0 0)
(-3.64683e-13 0 0)
(-2.77159e-13 0 0)
(1.75048e-13 0 0)
(-2.77159e-13 0 0)
(-2.91746e-14 0 0)
(-2.04222e-13 0 0)
(-2.04222e-13 0 0)
(-4.3762e-13 0 0)
(-3.35508e-13 0 0)
(-5.25144e-13 0 0)
(-4.08445e-13 0 0)
(-5.39731e-13 0 0)
(-4.3762e-13 0 0)
(-3.06334e-13 0 0)
(-1.89635e-13 0 0)
(-2.33397e-13 0 0)
(-2.1881e-13 0 0)
(-1.31286e-13 0 0)
(-4.66794e-13 0 0)
(-2.47984e-13 0 0)
(-2.1881e-13 0 0)
(-3.50096e-13 0 0)
(-1.16699e-13 0 0)
(-3.93858e-13 0 0)
(-2.04222e-13 0 0)
(-2.77159e-13 0 0)
(-2.91746e-13 0 0)
(-1.31286e-13 0 0)
(-4.23032e-13 0 0)
(-3.20921e-13 0 0)
(-4.52207e-13 0 0)
(-7.29366e-14 0 0)
(-5.83493e-14 0 0)
(-1.75048e-13 0 0)
(-1.89635e-13 0 0)
(-1.75048e-13 0 0)
(-4.08445e-13 0 0)
(-4.23032e-13 0 0)
(-5.39731e-13 0 0)
(-4.08445e-13 0 0)
(-5.68906e-13 0 0)
(-1.60461e-13 0 0)
(-2.91746e-13 0 0)
(1.45873e-13 0 0)
(-3.35508e-13 0 0)
(1.45873e-14 0 0)
(-4.3762e-14 0 0)
(-2.1881e-13 0 0)
(-5.10556e-13 0 0)
(-4.3762e-14 0 0)
(-2.62572e-13 0 0)
(1.31286e-13 0 0)
(-4.95969e-13 0 0)
(-2.04222e-13 0 0)
(-1.02111e-13 0 0)
(-2.91746e-14 0 0)
(3.64683e-13 0 0)
(2.1881e-13 0 0)
(5.10556e-13 0 0)
(2.1881e-13 0 0)
(1.16699e-13 0 0)
(-1.31286e-13 0 0)
(-1.45873e-14 0 0)
(4.3762e-14 0 0)
(2.91746e-14 0 0)
(1.45873e-14 0 0)
(8.75239e-14 0 0)
(1.31286e-13 0 0)
(7.29366e-14 0 0)
(3.33846e-27 0 0)
(1.67239e-27 0 0)
(4.23032e-13 0 0)
(1.60461e-13 0 0)
(7.29366e-14 0 0)
(8.75239e-14 0 0)
(3.06334e-13 0 0)
(2.1881e-13 0 0)
(8.75239e-14 0 0)
(5.96379e-27 0 0)
(7.29366e-14 0 0)
(-1.31286e-13 0 0)
(1.89635e-13 0 0)
(1.16699e-13 0 0)
(1.45873e-13 0 0)
(1.16699e-13 0 0)
(1.60461e-13 0 0)
(-1.60461e-13 0 0)
(-5.83493e-14 0 0)
(-1.45873e-14 0 0)
(-1.16699e-13 0 0)
(-2.91746e-14 0 0)
(1.16699e-13 0 0)
(-1.45873e-14 0 0)
(2.62572e-13 0 0)
(1.75048e-13 0 0)
(1.31286e-13 0 0)
(-1.60461e-13 0 0)
(8.75239e-14 0 0)
(2.91746e-14 0 0)
(-1.02111e-13 0 0)
(-8.75239e-14 0 0)
(-8.75239e-14 0 0)
(-1.16699e-13 0 0)
(-2.77159e-13 0 0)
(-5.83493e-14 0 0)
(-4.08445e-13 0 0)
(-1.60461e-13 0 0)
(-4.66794e-13 0 0)
(-1.60461e-13 0 0)
(-5.83493e-13 0 0)
(-3.64683e-13 0 0)
(-6.12667e-13 0 0)
(-5.10556e-13 0 0)
(-4.3762e-13 0 0)
(-5.10556e-13 0 0)
(-4.3762e-13 0 0)
(-3.50096e-13 0 0)
(-2.77159e-13 0 0)
(-3.06334e-13 0 0)
(-4.23032e-13 0 0)
(-3.06334e-13 0 0)
(-5.9808e-13 0 0)
(-6.12667e-13 0 0)
(-6.56429e-13 0 0)
(-5.68906e-13 0 0)
(-4.23032e-13 0 0)
(-3.50096e-13 0 0)
(-2.33397e-13 0 0)
(-4.23032e-13 0 0)
(-1.16699e-13 0 0)
(-2.33397e-13 0 0)
(-2.91746e-14 0 0)
(-1.16699e-13 0 0)
(3.64683e-13 0 0)
(-1.16699e-13 0 0)
(-1.16699e-13 0 0)
(-4.3762e-13 0 0)
(-2.47984e-13 0 0)
(-1.60461e-13 0 0)
(-3.20921e-13 0 0)
(-2.04222e-13 0 0)
(4.3762e-14 0 0)
(-2.91746e-14 0 0)
(1.31286e-13 0 0)
(7.29366e-14 0 0)
(8.75239e-14 0 0)
(-1.16699e-13 0 0)
(-3.66031e-27 0 0)
(1.45873e-14 0 0)
(8.75239e-14 0 0)
(2.33397e-13 0 0)
(2.04222e-13 0 0)
(3.7927e-13 0 0)
(2.62572e-13 0 0)
(2.47984e-13 0 0)
(4.3762e-14 0 0)
(3.35508e-13 0 0)
(1.31286e-13 0 0)
(4.3762e-13 0 0)
(1.89635e-13 0 0)
(3.64683e-13 0 0)
(1.02111e-13 0 0)
(6.12667e-13 0 0)
(1.60461e-13 0 0)
(3.64683e-13 0 0)
(3.93858e-13 0 0)
(6.56429e-13 0 0)
(3.93858e-13 0 0)
(5.54318e-13 0 0)
(3.50096e-13 0 0)
(4.81382e-13 0 0)
(2.1881e-13 0 0)
(3.20921e-13 0 0)
(4.66794e-13 0 0)
(8.46065e-13 0 0)
(7.73128e-13 0 0)
(7.73128e-13 0 0)
(1.00653e-12 0 0)
(6.56429e-13 0 0)
(9.77351e-13 0 0)
(6.12667e-13 0 0)
(9.48176e-13 0 0)
(9.33589e-13 0 0)
(9.91938e-13 0 0)
(1.23992e-12 0 0)
(1.0357e-12 0 0)
(1.37121e-12 0 0)
(8.02303e-13 0 0)
(1.0357e-12 0 0)
(7.73128e-13 0 0)
(8.46065e-13 0 0)
(9.48176e-13 0 0)
(7.87715e-13 0 0)
(8.1689e-13 0 0)
(3.06334e-13 0 0)
(5.83493e-13 0 0)
(3.64683e-13 0 0)
(4.08445e-13 0 0)
(1.31286e-13 0 0)
(3.93858e-13 0 0)
(2.91746e-13 0 0)
(4.52207e-13 0 0)
(4.81382e-13 0 0)
(3.20921e-13 0 0)
(1.89635e-13 0 0)
(1.16699e-13 0 0)
(-2.91746e-14 0 0)
(8.75239e-14 0 0)
(-4.3762e-14 0 0)
(2.04222e-13 0 0)
(-4.3762e-14 0 0)
(2.33397e-13 0 0)
(5.83493e-14 0 0)
(5.83493e-14 0 0)
(2.47984e-13 0 0)
(1.89635e-13 0 0)
(1.45873e-13 0 0)
(-1.89635e-13 0 0)
(-2.91746e-14 0 0)
(4.3762e-14 0 0)
(1.60461e-13 0 0)
(1.31286e-13 0 0)
(2.92825e-27 0 0)
(2.47984e-13 0 0)
(-1.02111e-13 0 0)
(4.3762e-14 0 0)
(-1.75048e-13 0 0)
(-1.89635e-13 0 0)
(-7.29366e-14 0 0)
(-7.29366e-14 0 0)
(-5.83493e-14 0 0)
(-8.75239e-14 0 0)
(-1.89635e-13 0 0)
(-2.04222e-13 0 0)
(-1.45873e-13 0 0)
(-1.45873e-14 0 0)
(2.1881e-13 0 0)
(1.16699e-13 0 0)
(2.47984e-13 0 0)
(1.16699e-13 0 0)
(2.77159e-13 0 0)
(2.1881e-13 0 0)
(1.89635e-13 0 0)
(8.75239e-14 0 0)
(2.91746e-14 0 0)
(1.60461e-13 0 0)
(-4.3762e-14 0 0)
(-1.02111e-13 0 0)
(-1.31286e-13 0 0)
(-2.04222e-13 0 0)
(-3.93858e-13 0 0)
(-2.04222e-13 0 0)
(-1.45873e-14 0 0)
(1.23062e-27 0 0)
(-1.75048e-13 0 0)
(-7.29366e-14 0 0)
(-3.06334e-13 0 0)
(-4.3762e-14 0 0)
(-2.77159e-13 0 0)
(-2.91746e-14 0 0)
(-1.02111e-13 0 0)
(2.91746e-13 0 0)
(4.3762e-14 0 0)
(1.60461e-13 0 0)
(-1.02111e-13 0 0)
(-1.02111e-13 0 0)
(-1.60461e-13 0 0)
(-1.45873e-14 0 0)
(-1.02111e-13 0 0)
(-7.29366e-14 0 0)
(-2.91746e-14 0 0)
(-5.83493e-14 0 0)
(-2.91746e-13 0 0)
(-1.45873e-13 0 0)
(-3.06334e-13 0 0)
(-1.75048e-13 0 0)
(-1.60461e-13 0 0)
(1.31286e-13 0 0)
(-1.02111e-13 0 0)
(-2.91746e-14 0 0)
(1.45873e-14 0 0)
(7.29366e-14 0 0)
(2.91746e-13 0 0)
)
;

boundaryField
{
    sides
    {
        type            zeroGradient;
    }
    empty
    {
        type            empty;
    }
}


// ************************************************************************* //
