/*--------------------------------*- C++ -*----------------------------------*\
  =========                 |
  \\      /  F ield         | OpenFOAM: The Open Source CFD Toolbox
   \\    /   O peration     | Website:  https://openfoam.org
    \\  /    A nd           | Version:  7
     \\/     M anipulation  |
\*---------------------------------------------------------------------------*/
FoamFile
{
    version     2.0;
    format      ascii;
    class       volScalarField;
    location    "10";
    object      p;
}
// * * * * * * * * * * * * * * * * * * * * * * * * * * * * * * * * * * * * * //

dimensions      [0 2 -2 0 0 0 0];

internalField   nonuniform List<scalar> 
8800
(
0.432113
0.384406
0.345866
0.317025
0.296344
0.281715
0.271353
0.264096
0.259424
0.257362
0.258338
0.262109
0.268296
0.277178
0.289599
0.307046
0.33159
0.365347
0.407699
0.466391
0.263134
0.270823
0.278669
0.282071
0.280733
0.275902
0.269715
0.263921
0.259409
0.256628
0.25618
0.258326
0.262344
0.267802
0.274103
0.27998
0.283334
0.282445
0.276718
0.267805
0.241124
0.2474
0.251833
0.255161
0.257592
0.258573
0.257798
0.255944
0.254031
0.253024
0.253722
0.2557
0.258018
0.259679
0.259758
0.258057
0.255233
0.251401
0.246604
0.242804
0.235101
0.237886
0.241105
0.244015
0.246052
0.24748
0.248468
0.248859
0.248777
0.248755
0.249126
0.249718
0.249968
0.24951
0.248463
0.24689
0.244505
0.241327
0.238522
0.237023
0.229549
0.231033
0.23374
0.236768
0.23939
0.241378
0.2427
0.243566
0.244114
0.244476
0.244812
0.244933
0.244633
0.243852
0.24241
0.240231
0.23747
0.234485
0.232506
0.231818
0.226788
0.227486
0.229327
0.231501
0.233592
0.235568
0.237307
0.238669
0.23964
0.240307
0.240614
0.240469
0.23981
0.238609
0.236981
0.235121
0.233064
0.230998
0.229775
0.229527
0.225778
0.226117
0.227073
0.22829
0.22963
0.230989
0.232295
0.233533
0.234612
0.235428
0.235803
0.235663
0.235105
0.234259
0.233247
0.232023
0.230924
0.229862
0.229263
0.229148
0.22421
0.224382
0.224911
0.225713
0.226631
0.227678
0.228909
0.230119
0.231231
0.232154
0.232652
0.232632
0.23221
0.231512
0.230742
0.230027
0.22934
0.228749
0.228451
0.228392
0.221707
0.221791
0.222101
0.222621
0.223229
0.223975
0.224855
0.225861
0.22692
0.227922
0.228596
0.228824
0.228724
0.228423
0.228137
0.227777
0.227412
0.227091
0.22695
0.226922
0.218713
0.218761
0.218989
0.219414
0.219949
0.220633
0.221424
0.22237
0.223442
0.224567
0.225463
0.225957
0.226139
0.22613
0.225973
0.225756
0.225516
0.225324
0.225253
0.225239
0.215391
0.215421
0.215581
0.215895
0.216331
0.21691
0.217662
0.218616
0.219774
0.221083
0.222256
0.223039
0.223486
0.223705
0.223777
0.223759
0.223689
0.223624
0.223605
0.223595
0.211703
0.211727
0.211858
0.212119
0.212515
0.213077
0.213849
0.214876
0.216184
0.217757
0.21927
0.220379
0.221107
0.221557
0.221813
0.221944
0.221999
0.22202
0.222033
0.222024
0.207601
0.207626
0.207752
0.208004
0.208402
0.208995
0.209845
0.211017
0.212566
0.214497
0.216431
0.217924
0.218947
0.219632
0.22007
0.220337
0.220492
0.220578
0.220614
0.220606
0.203037
0.20306
0.203202
0.20348
0.203925
0.204603
0.205595
0.206992
0.208875
0.211274
0.213727
0.215657
0.217052
0.217993
0.218615
0.219012
0.219255
0.219394
0.21945
0.219442
0.197949
0.197976
0.198144
0.198471
0.199002
0.199817
0.201021
0.202735
0.20507
0.208075
0.211187
0.21368
0.215464
0.216699
0.217523
0.218058
0.218391
0.218581
0.218658
0.218648
0.192219
0.192251
0.192459
0.192863
0.19352
0.194531
0.19603
0.198171
0.201098
0.204881
0.208814
0.211971
0.214251
0.215832
0.216893
0.217584
0.218017
0.218265
0.218364
0.218353
0.185689
0.185729
0.185993
0.186504
0.187335
0.188613
0.190507
0.19321
0.196906
0.20168
0.206641
0.210623
0.213501
0.2155
0.216845
0.217721
0.218271
0.218586
0.218711
0.218697
0.178143
0.178196
0.178535
0.179191
0.180256
0.181892
0.184309
0.18775
0.192437
0.198469
0.204715
0.209717
0.213327
0.215836
0.217523
0.218623
0.219314
0.219709
0.219865
0.219848
0.169288
0.16936
0.169801
0.170652
0.172037
0.174154
0.177262
0.181666
0.187631
0.195256
0.203102
0.209359
0.213868
0.216998
0.219104
0.220477
0.221337
0.221828
0.222023
0.222001
0.158717
0.158812
0.159394
0.16052
0.162352
0.165132
0.169154
0.174814
0.182424
0.192058
0.201886
0.209683
0.215289
0.21918
0.221799
0.223506
0.224572
0.225178
0.225418
0.225392
0.145858
0.145987
0.146764
0.148277
0.150726
0.154374
0.159663
0.167016
0.17675
0.188909
0.201174
0.210843
0.217782
0.222602
0.225852
0.227973
0.229295
0.230041
0.230334
0.230301
0.129913
0.130094
0.131156
0.133236
0.136565
0.141483
0.148489
0.158074
0.170556
0.185867
0.20109
0.213009
0.221557
0.227509
0.231542
0.234187
0.23584
0.236768
0.237129
0.23708
0.109707
0.10997
0.111472
0.114436
0.119074
0.125803
0.135231
0.147846
0.163856
0.183038
0.201789
0.216366
0.226831
0.234161
0.239169
0.24249
0.244587
0.245763
0.246206
0.24614
0.0833505
0.0837558
0.0860364
0.0904937
0.0972151
0.106732
0.119651
0.136325
0.156786
0.180614
0.203461
0.221099
0.233806
0.242799
0.249034
0.253242
0.255952
0.257495
0.258075
0.257982
0.0475414
0.0482814
0.0521919
0.059466
0.06979
0.0837118
0.101632
0.123665
0.149607
0.178846
0.206295
0.227345
0.242603
0.253574
0.261361
0.26677
0.270374
0.272476
0.273275
0.27315
-0.00404022
-0.00185128
0.00623018
0.0192381
0.0359186
0.0566117
0.0814373
0.110266
0.142689
0.177979
0.210396
0.235104
0.253153
0.266399
0.276112
0.28318
0.288167
0.291308
0.292569
0.292393
-0.0818756
-0.0709228
-0.0523654
-0.0290595
-0.00283933
0.0268527
0.0601104
0.0967461
0.136356
0.178262
0.216116
0.244929
0.266262
0.282346
0.294659
0.304227
0.311654
0.316948
0.319617
0.32
-0.164729
-0.140705
-0.11121
-0.077596
-0.0416006
-0.00283746
0.0388204
0.0833461
0.130478
0.179694
0.223984
0.257938
0.283519
0.303326
0.319068
0.331877
0.342408
0.351657
0.357251
0.357803
-0.228101
-0.201908
-0.164229
-0.122413
-0.0779808
-0.0309611
0.0186519
0.0707516
0.125076
0.181148
0.231282
0.269639
0.298561
0.321013
0.338858
0.353312
0.365077
0.374693
0.379822
0.380524
-0.279075
-0.250805
-0.208511
-0.16092
-0.110122
-0.0564308
-4.89538e-05
0.0587508
0.119598
0.181909
0.237131
0.278986
0.310219
0.334139
0.352848
0.367766
0.379798
0.389335
0.394596
0.395366
-0.319956
-0.291237
-0.245581
-0.193771
-0.138188
-0.0792226
-0.017221
0.0473766
0.114
0.181879
0.241612
0.286436
0.319456
0.3444
0.363635
0.378731
0.390729
0.399995
0.405282
0.406076
-0.354427
-0.325466
-0.277609
-0.222471
-0.162985
-0.0996645
-0.0329405
0.0366812
0.108511
0.181554
0.245455
0.292921
0.327463
0.353206
0.372773
0.387915
0.399813
0.408849
0.414098
0.414929
-0.384558
-0.355573
-0.306054
-0.248276
-0.18559
-0.118571
-0.0477026
0.0264228
0.102987
0.180788
0.248609
0.298614
0.334628
0.361149
0.381069
0.396304
0.408135
0.417043
0.422178
0.423015
-0.411801
-0.382772
-0.331929
-0.271975
-0.206621
-0.136452
-0.0619893
0.0161339
0.0970611
0.179457
0.251216
0.303844
0.341419
0.3688
0.389137
0.404521
0.416338
0.425161
0.430174
0.431023
-0.436971
-0.40786
-0.355947
-0.294194
-0.226599
-0.153747
-0.0761121
0.00567022
0.0907146
0.177595
0.253355
0.308774
0.348082
0.376468
0.397331
0.412939
0.424799
0.433523
0.438407
0.439305
-0.460765
-0.431485
-0.37866
-0.31537
-0.24584
-0.170634
-0.0901912
-0.00509361
0.0838059
0.175071
0.254981
0.31345
0.354752
0.384349
0.405882
0.42181
0.433766
0.442446
0.447181
0.448123
-0.483447
-0.453953
-0.400324
-0.335809
-0.26461
-0.187355
-0.104428
-0.0163254
0.076208
0.171794
0.256014
0.317846
0.36147
0.392541
0.414937
0.43131
0.443436
0.452116
0.456714
0.457631
-0.505375
-0.475561
-0.421246
-0.355685
-0.283056
-0.204035
-0.118909
-0.0280816
0.0678418
0.167658
0.256327
0.321863
0.368185
0.401064
0.424568
0.441554
0.453963
0.462696
0.467162
0.468014
-0.526589
-0.496491
-0.441636
-0.375077
-0.301219
-0.220679
-0.133645
-0.0403865
0.0586629
0.162566
0.255787
0.32534
0.374779
0.409856
0.434781
0.452597
0.465431
0.474281
0.478643
0.479341
-0.547164
-0.516785
-0.461442
-0.394013
-0.319127
-0.237301
-0.148628
-0.0532404
0.04866
0.15644
0.254237
0.32807
0.381053
0.418801
0.445533
0.464453
0.477868
0.486931
0.491228
0.491718
-0.567151
-0.536317
-0.480672
-0.412503
-0.336759
-0.25386
-0.163811
-0.0665888
0.0378478
0.14924
0.251513
0.329811
0.386751
0.427692
0.456693
0.47706
0.491265
0.500613
0.504866
0.505131
-0.586576
-0.555475
-0.49927
-0.430509
-0.354059
-0.270289
-0.179118
-0.0803634
0.0262779
0.140954
0.247504
0.330327
0.391532
0.436169
0.468021
0.490277
0.505552
0.515296
0.519438
0.519484
-0.605268
-0.573873
-0.517231
-0.447979
-0.370968
-0.286508
-0.194465
-0.0944668
0.0140394
0.131618
0.242133
0.329374
0.39498
0.443779
0.479222
0.503997
0.520636
0.530748
0.534661
0.534455
-0.623217
-0.591545
-0.534524
-0.464863
-0.387417
-0.302452
-0.20975
-0.108796
0.00123409
0.121297
0.235353
0.326729
0.396715
0.450026
0.489824
0.518103
0.536657
0.546974
0.550273
0.549736
-0.64046
-0.608461
-0.551119
-0.481109
-0.403336
-0.318032
-0.224881
-0.123238
-0.0120165
0.110093
0.227173
0.32226
0.396366
0.454239
0.499082
0.532256
0.55404
0.564373
0.565767
0.564661
-0.656853
-0.624578
-0.566945
-0.496662
-0.41867
-0.333169
-0.239762
-0.137675
-0.0255836
0.09815
0.217697
0.315871
0.393627
0.455629
0.505678
0.545307
0.573157
0.585456
0.582499
0.579063
-0.672486
-0.63992
-0.582019
-0.511537
-0.433458
-0.34791
-0.254451
-0.152173
-0.0395351
0.0854095
0.206828
0.307432
0.388227
0.453372
0.507887
0.554813
0.592336
0.614505
0.611623
0.586907
-0.687319
-0.654514
-0.596452
-0.525899
-0.447955
-0.362555
-0.269338
-0.167201
-0.0544138
0.071213
0.193878
0.296055
0.379294
0.4464
0.502571
0.554784
0.599731
0.624463
0.6137
0.584309
-0.701237
-0.668473
-0.610074
-0.539513
-0.461881
-0.376776
-0.284188
-0.182421
-0.0698662
0.055912
0.179066
0.28171
0.366551
0.4346
0.486101
0.535851
0.572717
0.582461
0.517288
0.470499
-0.713635
-0.682216
-0.622452
-0.551816
-0.474657
-0.390178
-0.298739
-0.197657
-0.085732
0.0396671
0.162526
0.264487
0.349375
0.419162
0.460878
0.488294
0.50958
0.470092
0.391375
0.339058
-0.765994
-0.692388
-0.633675
-0.564217
-0.487634
-0.404018
-0.313116
-0.21317
-0.102341
0.0220914
0.143857
0.244161
0.326116
0.400036
0.419812
0.418216
0.388966
0.318987
0.226632
0.175608
-0.719786
-0.706308
-0.648919
-0.581701
-0.50578
-0.423314
-0.33438
-0.236198
-0.127175
-0.00460273
0.113685
0.208612
0.282539
0.342901
0.352142
0.218629
0.0905586
0.00205735
-0.0893519
-0.037064
-0.746092
-0.719105
-0.662699
-0.595177
-0.52006
-0.438504
-0.350211
-0.253623
-0.14625
-0.0253979
0.0898897
0.178896
0.244396
0.27722
0.217614
0.0316432
-0.139796
-0.261187
-0.394981
-0.304194
-0.765038
-0.734074
-0.677952
-0.610064
-0.535473
-0.454765
-0.367513
-0.272746
-0.167534
-0.049286
0.0625219
0.1449
0.199365
0.204322
0.0692291
-0.182582
-0.397141
-0.56187
-0.753262
-0.667121
-0.782525
-0.749967
-0.693025
-0.624808
-0.550586
-0.470763
-0.385034
-0.292186
-0.189358
-0.0737224
0.0342561
0.109221
0.14916
0.110718
-0.108137
-0.406218
-0.687124
-0.93372
-1.21303
-1.17896
-0.798285
-0.765734
-0.708177
-0.639784
-0.565978
-0.487149
-0.403084
-0.312496
-0.212305
-0.099073
0.00517549
0.0718065
0.092755
0.000525027
-0.283267
-0.617998
-0.964536
-1.28437
-1.65963
-2.03056
-0.813378
-0.781189
-0.723578
-0.655241
-0.58189
-0.50411
-0.421771
-0.33361
-0.236147
-0.125592
-0.0248636
0.0327953
0.0329778
-0.11395
-0.444352
-0.790355
-1.15529
-1.47041
-1.61542
-1.8505
-0.828415
-0.79657
-0.73924
-0.671234
-0.598487
-0.521952
-0.441661
-0.356441
-0.262328
-0.154744
-0.0572777
-0.00934069
-0.0324155
-0.248136
-0.591584
-0.918729
-1.23045
-1.45077
-1.49594
-1.53122
-0.843636
-0.812105
-0.755107
-0.687555
-0.61563
-0.540595
-0.462795
-0.381194
-0.291237
-0.18669
-0.0909917
-0.0531131
-0.110349
-0.384153
-0.731142
-1.02526
-1.26655
-1.42196
-1.44437
-1.44191
-0.859116
-0.827754
-0.770983
-0.703988
-0.633024
-0.559798
-0.485016
-0.407854
-0.322909
-0.221941
-0.126831
-0.0974042
-0.193404
-0.514645
-0.872588
-1.14752
-1.28718
-1.34862
-1.38565
-1.39252
-0.87458
-0.843245
-0.786648
-0.720192
-0.650367
-0.579268
-0.508084
-0.436249
-0.357892
-0.261312
-0.164262
-0.141759
-0.280242
-0.654021
-1.02096
-1.32463
-1.31438
-1.34067
-1.41613
-1.43438
-0.889573
-0.858161
-0.801664
-0.735739
-0.667163
-0.598504
-0.531526
-0.46623
-0.396812
-0.306638
-0.20539
-0.18304
-0.362538
-0.807732
-1.20269
-1.64724
-1.79003
-1.64741
-1.59733
-1.58842
-0.903295
-0.871882
-0.81543
-0.750022
-0.682722
-0.61685
-0.554724
-0.497906
-0.440655
-0.360858
-0.253657
-0.227618
-0.450756
-0.946967
-1.37889
-1.809
-1.91719
-1.7476
-1.69463
-1.67111
-0.915165
-0.883651
-0.827216
-0.762305
-0.696552
-0.633356
-0.576901
-0.530549
-0.491097
-0.432457
-0.324803
-0.293793
-0.561865
-1.03536
-1.3367
-1.43241
-1.49597
-1.56992
-1.64256
-1.66152
-0.924282
-0.892594
-0.836142
-0.771698
-0.707149
-0.646972
-0.596861
-0.563739
-0.551756
-0.536594
-0.456701
-0.432589
-0.70636
-1.15518
-1.45923
-1.51628
-1.61965
-1.72731
-1.79869
-1.83542
-0.929634
-0.897662
-0.841158
-0.777084
-0.713646
-0.656305
-0.613028
-0.59628
-0.623606
-0.69962
-0.714857
-0.677369
-0.928276
-1.39694
-1.94077
-2.39912
-2.57603
-2.53632
-2.40234
-2.33956
-0.930067
-0.897808
-0.841217
-0.777343
-0.714681
-0.659651
-0.622945
-0.624608
-0.706455
-0.948026
-1.17285
-1.07182
-1.18663
-1.60289
-2.2451
-2.99076
-3.23823
-3.05283
-2.75772
-2.62336
-0.924724
-0.892008
-0.835271
-0.771375
-0.708914
-0.655179
-0.623423
-0.642778
-0.789674
-1.2679
-1.82864
-1.54437
-1.28253
-1.36717
-1.67326
-2.08466
-2.16989
-1.90896
-1.5934
-1.45248
-0.912854
-0.87953
-0.822523
-0.758225
-0.695187
-0.641056
-0.61108
-0.640707
-0.838665
-1.53121
-2.47532
-1.84526
-1.10826
-0.521153
-0.120737
0.0782772
0.204957
0.40628
0.548759
0.599731
-0.893798
-0.859941
-0.802382
-0.737377
-0.672914
-0.616209
-0.582149
-0.607552
-0.807328
-1.53552
-2.51048
-1.61704
-0.578569
0.332114
0.963081
1.40016
1.66096
1.76098
1.8005
1.80907
-0.867033
-0.83292
-0.774906
-0.709024
-0.642295
-0.58088
-0.536913
-0.539369
-0.673989
-1.17699
-1.69224
-0.845749
0.0400126
0.808951
1.32248
1.65593
1.83803
1.9249
1.96095
1.96766
-0.832472
-0.798591
-0.740506
-0.673744
-0.604587
-0.537469
-0.480287
-0.449652
-0.484904
-0.65522
-0.67553
-0.0961035
0.508531
0.996484
1.31483
1.5228
1.64847
1.72185
1.75953
1.76733
-0.789818
-0.756389
-0.699438
-0.63244
-0.561512
-0.489421
-0.419975
-0.359025
-0.313823
-0.267279
-0.0864762
0.28494
0.68259
0.982468
1.18351
1.32059
1.41302
1.47481
1.50736
1.51189
-0.735712
-0.704889
-0.651361
-0.585299
-0.514172
-0.43948
-0.361911
-0.281219
-0.19164
-0.0639026
0.149331
0.414086
0.670244
0.869006
1.01198
1.11517
1.19001
1.24314
1.2703
1.27809
-0.670988
-0.643181
-0.594028
-0.53129
-0.462651
-0.388403
-0.308209
-0.2192
-0.113114
0.0317915
0.223303
0.421594
0.596395
0.734795
0.839903
0.919475
0.979287
1.02167
1.0462
1.05425
-0.58921
-0.570976
-0.525322
-0.468535
-0.405008
-0.335464
-0.258011
-0.169827
-0.0642227
0.0718807
0.230776
0.379189
0.50203
0.598451
0.672534
0.72962
0.773853
0.806219
0.825291
0.830214
-0.477744
-0.468709
-0.436535
-0.391014
-0.338331
-0.278738
-0.210531
-0.131226
-0.0357447
0.0833056
0.21505
0.332533
0.426935
0.499698
0.554524
0.594978
0.624553
0.646617
0.660504
0.663663
-0.360023
-0.356358
-0.335711
-0.303737
-0.264792
-0.218365
-0.162857
-0.0962455
-0.0147296
0.0862896
0.194615
0.288382
0.361983
0.417343
0.457689
0.486402
0.506199
0.519092
0.525249
0.526643
-0.247498
-0.245528
-0.234695
-0.215368
-0.189735
-0.156769
-0.114987
-0.0621518
0.00431701
0.0872306
0.175061
0.24939
0.30646
0.348375
0.377934
0.398005
0.410913
0.418559
0.422216
0.422686
-0.149317
-0.149198
-0.144807
-0.13521
-0.120535
-0.0993828
-0.0699912
-0.030301
0.0218062
0.0881614
0.158452
0.217129
0.261175
0.292756
0.31443
0.328439
0.336926
0.341576
0.343464
0.343508
-0.0738755
-0.0746436
-0.0745337
-0.0717334
-0.0646967
-0.0518916
-0.031902
-0.00286012
0.0369205
0.0888398
0.144081
0.189852
0.22377
0.24754
0.263237
0.273069
0.27881
0.281651
0.282641
0.282557
-0.0228661
-0.0237885
-0.0255781
-0.0260804
-0.0234864
-0.0162572
-0.00289189
0.0180273
0.0481361
0.0882698
0.131257
0.16665
0.192452
0.210267
0.221972
0.229115
0.232933
0.234619
0.235131
0.235005
0.00877114
0.00803243
0.0062692
0.00509957
0.00597852
0.0100696
0.0187794
0.0336937
0.0561498
0.0868228
0.119926
0.147137
0.166932
0.180424
0.18896
0.193948
0.196534
0.197548
0.197778
0.19766
0.0277605
0.0272821
0.0260493
0.0250941
0.0255437
0.0283326
0.034481
0.0452017
0.061801
0.0850526
0.110439
0.131249
0.146148
0.156098
0.162359
0.165957
0.167707
0.16829
0.168372
0.168274
0.039427
0.039133
0.0383704
0.0377616
0.0380627
0.0399898
0.0444384
0.0524147
0.064862
0.0824073
0.101642
0.117391
0.128658
0.136198
0.140855
0.143448
0.144656
0.145011
0.145036
0.144956
0.0467068
0.0465243
0.0460449
0.045686
0.0459808
0.0474331
0.0506815
0.056538
0.065844
0.0791148
0.0937378
0.105712
0.114225
0.119831
0.123249
0.125131
0.12598
0.126202
0.126201
0.126137
0.0508932
0.0507754
0.0504528
0.0502234
0.0504792
0.0515978
0.0540656
0.0584747
0.065457
0.0754512
0.0864898
0.0955096
0.101898
0.106093
0.108633
0.110006
0.110601
0.110734
0.110719
0.110666
0.0527251
0.0526466
0.0524261
0.0522787
0.0524941
0.053347
0.0552003
0.0585138
0.0637782
0.07132
0.0796585
0.0864663
0.0912748
0.0944094
0.0962877
0.0972875
0.0977056
0.0977838
0.0977619
0.0977191
0.0527924
0.0527388
0.0525926
0.052507
0.0526954
0.0533617
0.0547754
0.0572798
0.0612465
0.0669335
0.0732212
0.0783451
0.0819483
0.0842855
0.085675
0.0864033
0.0866963
0.0867381
0.0867133
0.0866783
0.0515611
0.0515226
0.0514243
0.0513773
0.0515369
0.0520551
0.0531335
0.0550303
0.0580267
0.0623139
0.0670497
0.070902
0.0736026
0.0753456
0.0763733
0.0769045
0.07711
0.0771302
0.0771056
0.077077
0.0493677
0.049339
0.049271
0.0492462
0.0493783
0.0497802
0.0506032
0.0520402
0.0543014
0.0575342
0.0610984
0.0639911
0.0660119
0.0673094
0.0680688
0.0684551
0.0685979
0.0686036
0.06858
0.0685567
0.0464521
0.0464299
0.0463804
0.0463664
0.0464721
0.0467818
0.0474079
0.0484949
0.0502005
0.0526346
0.0553134
0.0574819
0.058992
0.0599562
0.0605155
0.0607954
0.0608937
0.060891
0.0608694
0.0608505
0.0429878
0.0429702
0.0429327
0.0429232
0.0430044
0.0432396
0.0437132
0.0445333
0.0458177
0.047647
0.0496577
0.0512799
0.0524048
0.0531202
0.0535315
0.0537333
0.0537995
0.0537912
0.0537717
0.0537567
0.039106
0.039092
0.0390624
0.0390542
0.0391146
0.039291
0.0396465
0.0402622
0.0412256
0.0425972
0.0441012
0.0453113
0.046148
0.0466763
0.0469771
0.0471214
0.0471648
0.0471537
0.0471366
0.0471246
0.0349063
0.0348951
0.0348711
0.0348628
0.0349058
0.0350358
0.0353005
0.0357599
0.0364795
0.0375032
0.0386229
0.0395223
0.0401413
0.0405299
0.0407481
0.04085
0.0408773
0.0408651
0.0408501
0.0408404
0.0304644
0.0304553
0.0304355
0.0304268
0.0304562
0.0305504
0.030745
0.0310844
0.0316172
0.0323756
0.0332048
0.0338685
0.0343227
0.034605
0.0347617
0.0348324
0.0348482
0.0348355
0.0348227
0.0348151
0.02584
0.0258325
0.0258158
0.0258066
0.0258252
0.0258917
0.0260323
0.0262799
0.0266698
0.0272244
0.0278302
0.0283137
0.028643
0.028846
0.0289569
0.0290048
0.0290127
0.0290004
0.0289894
0.0289835
0.0210801
0.021074
0.0210597
0.0210501
0.0210604
0.0211054
0.0212038
0.0213796
0.0216584
0.0220567
0.0224914
0.0228371
0.0230713
0.0232142
0.0232899
0.0233201
0.0233219
0.0233098
0.0233002
0.0232955
0.0162184
0.0162134
0.0162012
0.0161914
0.0161954
0.0162237
0.0162896
0.0164098
0.0166015
0.0168768
0.0171774
0.0174158
0.0175762
0.0176722
0.0177213
0.0177386
0.0177362
0.0177247
0.0177164
0.0177128
0.0112822
0.0112783
0.0112683
0.0112589
0.0112584
0.0112743
0.0113151
0.0113917
0.0115149
0.0116908
0.0118829
0.0120344
0.0121349
0.0121941
0.0122232
0.0122315
0.0122268
0.0122167
0.01221
0.0122073
0.0062939
0.00629124
0.00628321
0.00627498
0.00627236
0.0062791
0.0062996
0.00633915
0.00640381
0.00649657
0.00659775
0.0066774
0.00673057
0.00676172
0.00677582
0.00677779
0.00677208
0.0067633
0.0067581
0.00675648
0.00126462
0.00126399
0.00126182
0.00125828
0.00125658
0.00125691
0.00125912
0.00126468
0.00127448
0.00128955
0.00130921
0.00132764
0.00134068
0.00134859
0.00135247
0.00135361
0.00135313
0.0013503
0.00134687
0.00134557
-0.861925
-0.596656
-0.303161
-0.0688079
0.121028
0.274931
0.406212
0.517406
0.570076
0.546888
-0.390367
-0.21422
-0.0329026
0.122017
0.253504
0.364268
0.455031
0.520455
0.55477
0.565102
-0.0766077
0.0382874
0.157886
0.264138
0.356013
0.433245
0.494744
0.539627
0.570521
0.586902
0.13798
0.215602
0.299034
0.374054
0.439397
0.494647
0.539584
0.574633
0.601683
0.618961
0.296993
0.35269
0.41113
0.466342
0.515015
0.557067
0.592467
0.621212
0.644196
0.661414
0.421894
0.462664
0.508029
0.551182
0.590135
0.624565
0.654185
0.678596
0.698135
0.715165
0.526885
0.560001
0.599246
0.635949
0.66988
0.700326
0.726642
0.748195
0.764839
0.781803
0.623284
0.655225
0.692492
0.727349
0.759399
0.788019
0.812527
0.8322
0.846354
0.863385
0.723341
0.758227
0.796841
0.832165
0.86373
0.891218
0.914203
0.932235
0.944664
0.962106
0.841224
0.880095
0.919915
0.955281
0.985546
1.01108
1.0321
1.04848
1.06034
1.07848
0.987999
1.02722
1.06399
1.09528
1.12157
1.14415
1.16362
1.17948
1.19215
1.21022
1.1642
1.19615
1.22273
1.24551
1.26582
1.28487
1.30284
1.31952
1.33505
1.35318
1.35346
1.37088
1.38617
1.40261
1.41867
1.43337
1.44674
1.46079
1.47842
1.49861
1.53554
1.54514
1.55684
1.56781
1.57717
1.58683
1.59774
1.6092
1.62064
1.63603
1.74299
1.74666
1.73171
1.71702
1.71097
1.71673
1.73525
1.76559
1.79776
1.82442
2.04938
1.91457
1.83805
1.79573
1.77823
1.78229
1.80971
1.86613
1.96883
2.19322
0.322681
0.320639
0.316186
0.307717
0.295697
0.283813
0.273851
0.266195
0.260753
0.257548
0.257037
0.259403
0.264061
0.27083
0.279792
0.29095
0.303292
0.314079
0.320081
0.323026
0.246846
0.252755
0.259136
0.26391
0.266644
0.266594
0.264147
0.260642
0.257374
0.255173
0.254844
0.256663
0.259816
0.263568
0.26689
0.268363
0.267059
0.263224
0.257825
0.251145
0.237909
0.240206
0.243955
0.247409
0.249926
0.251809
0.252918
0.252908
0.252065
0.251218
0.251197
0.25221
0.253538
0.254306
0.253934
0.252516
0.250435
0.247552
0.243799
0.240669
0.232222
0.233266
0.235554
0.238657
0.241331
0.243217
0.244516
0.245429
0.24599
0.246281
0.246567
0.246866
0.246904
0.246482
0.245611
0.24421
0.242034
0.239119
0.236303
0.234696
0.2277
0.228113
0.229798
0.232532
0.235192
0.237649
0.239636
0.241002
0.241881
0.242453
0.242861
0.243076
0.242878
0.242149
0.240731
0.238645
0.236208
0.233554
0.231213
0.230319
0.226299
0.226466
0.227351
0.228901
0.230555
0.232096
0.233568
0.235008
0.236258
0.237211
0.237778
0.237825
0.237368
0.23648
0.235378
0.234082
0.232599
0.23107
0.229805
0.229385
0.225099
0.225174
0.225642
0.226536
0.227585
0.228776
0.230122
0.231409
0.23256
0.233539
0.234207
0.234387
0.234095
0.233437
0.232481
0.231518
0.230614
0.22974
0.229083
0.228879
0.223062
0.223102
0.223342
0.223874
0.22456
0.225273
0.226233
0.227322
0.228451
0.229505
0.230306
0.230632
0.230512
0.230107
0.22957
0.229149
0.228648
0.228156
0.227839
0.227746
0.220245
0.220259
0.220411
0.220794
0.221316
0.221982
0.222759
0.223632
0.224636
0.2257
0.226651
0.227227
0.227423
0.227391
0.227235
0.226836
0.226605
0.226307
0.226126
0.226085
0.217097
0.217104
0.217204
0.217486
0.217912
0.218456
0.219148
0.220009
0.221045
0.22222
0.223376
0.224217
0.224671
0.22486
0.224884
0.2248
0.224669
0.224518
0.224436
0.224419
0.213595
0.213599
0.213675
0.213888
0.214233
0.214715
0.215367
0.21623
0.217332
0.218666
0.220096
0.221257
0.222009
0.222458
0.222702
0.222809
0.222831
0.222814
0.222804
0.222803
0.209706
0.209705
0.20978
0.209967
0.210285
0.21076
0.211441
0.212382
0.213634
0.215219
0.217002
0.218538
0.219612
0.220316
0.220759
0.221025
0.221173
0.22125
0.22129
0.221298
0.205379
0.205375
0.205455
0.205651
0.205984
0.206498
0.207259
0.208342
0.209825
0.211755
0.213991
0.215987
0.217405
0.218409
0.219067
0.219487
0.219747
0.219899
0.219977
0.219995
0.200566
0.200561
0.200651
0.200874
0.201258
0.20186
0.202761
0.204064
0.205872
0.208263
0.211077
0.21362
0.215508
0.21681
0.217696
0.218276
0.218644
0.218865
0.218977
0.219003
0.195176
0.195168
0.195278
0.195549
0.196015
0.196749
0.197855
0.199464
0.201712
0.204704
0.208251
0.211488
0.213885
0.215573
0.216723
0.217482
0.217968
0.218262
0.218411
0.218445
0.18907
0.18906
0.189198
0.189539
0.190124
0.191043
0.192429
0.19445
0.197277
0.201046
0.20552
0.209611
0.212643
0.214788
0.216252
0.217221
0.217842
0.21822
0.218411
0.218454
0.182063
0.18205
0.182229
0.182665
0.183411
0.184581
0.186343
0.188907
0.19249
0.197255
0.2029
0.20805
0.211865
0.214563
0.216407
0.217629
0.218413
0.218891
0.219132
0.219187
0.1739
0.173883
0.174117
0.174684
0.175649
0.177151
0.179411
0.182692
0.187259
0.1933
0.200416
0.206883
0.211659
0.215035
0.217342
0.218872
0.219856
0.220457
0.220759
0.220826
0.164235
0.164213
0.164525
0.165272
0.166531
0.168478
0.1714
0.175631
0.181479
0.18915
0.198111
0.206204
0.212161
0.216367
0.219239
0.221148
0.222379
0.223133
0.223512
0.223594
0.152593
0.152568
0.152993
0.15399
0.155647
0.158202
0.162052
0.167545
0.175042
0.184786
0.196048
0.206135
0.213534
0.218751
0.222317
0.22469
0.226227
0.227176
0.227654
0.227754
0.138302
0.138277
0.138874
0.140232
0.142454
0.145878
0.150957
0.158143
0.167839
0.180221
0.19432
0.206827
0.215966
0.222413
0.226827
0.22977
0.231687
0.232881
0.233488
0.233613
0.120362
0.120342
0.121215
0.123123
0.126185
0.130869
0.13773
0.147248
0.159804
0.175508
0.193056
0.20845
0.219665
0.227595
0.233051
0.236704
0.239091
0.240588
0.241356
0.241517
0.0972462
0.0972549
0.0985996
0.101383
0.105782
0.112412
0.121858
0.134585
0.1509
0.17074
0.19241
0.211178
0.224826
0.23453
0.241271
0.245834
0.248838
0.250734
0.251721
0.251936
0.0664968
0.0666125
0.0688195
0.0731409
0.0798188
0.0895501
0.102844
0.120035
0.141216
0.166091
0.192552
0.215159
0.231589
0.243381
0.251712
0.25747
0.261342
0.263827
0.265125
0.265402
0.0236115
0.0240446
0.0282349
0.0357927
0.046708
0.0615986
0.0806353
0.103867
0.131113
0.161883
0.193704
0.220514
0.240011
0.254188
0.264443
0.271773
0.2769
0.280355
0.282197
0.282556
-0.0397699
-0.0376079
-0.0278083
-0.0132713
0.00566034
0.0288063
0.0558999
0.086796
0.121194
0.158529
0.19607
0.227269
0.249989
0.266751
0.279213
0.288501
0.295373
0.300272
0.303151
0.303521
-0.11555
-0.111878
-0.0938416
-0.0678531
-0.0383414
-0.00567857
0.0301842
0.0692554
0.111323
0.155927
0.200166
0.236917
0.264051
0.284591
0.300449
0.312876
0.322773
0.330357
0.333612
0.335162
-0.19329
-0.18283
-0.155883
-0.119842
-0.0808197
-0.0390591
0.00537167
0.052484
0.102145
0.153991
0.204939
0.247209
0.278604
0.302673
0.321624
0.336844
0.349192
0.359008
0.364839
0.367343
-0.251229
-0.239643
-0.207723
-0.165212
-0.118872
-0.0696247
-0.0177276
0.0366798
0.0933659
0.151931
0.208999
0.256018
0.290726
0.317154
0.33775
0.35405
0.367067
0.377284
0.383663
0.386336
-0.29762
-0.285675
-0.250336
-0.203251
-0.151669
-0.0967273
-0.0387723
0.0218623
0.084771
0.149382
0.211846
0.262835
0.300065
0.32804
0.349542
0.366346
0.379589
0.389876
0.396339
0.398955
-0.335435
-0.323616
-0.286402
-0.235858
-0.180169
-0.120662
-0.0577429
0.00815414
0.0764872
0.146534
0.213962
0.268548
0.30793
0.337132
0.359261
0.376306
0.389556
0.399762
0.406214
0.40869
-0.367992
-0.35634
-0.317682
-0.264529
-0.205578
-0.142307
-0.0751715
-0.0046689
0.068556
0.143602
0.215614
0.273493
0.31483
0.345108
0.367759
0.385001
0.39827
0.408411
0.414884
0.417283
-0.396875
-0.385386
-0.345723
-0.290476
-0.228841
-0.162395
-0.0916095
-0.0170458
0.0605735
0.140226
0.216634
0.277794
0.321117
0.352517
0.375742
0.393228
0.40656
0.416658
0.423165
0.425479
-0.423248
-0.411853
-0.371388
-0.314405
-0.25056
-0.181443
-0.10753
-0.0293774
0.0522834
0.136358
0.217136
0.281675
0.327114
0.359756
0.383652
0.401451
0.414899
0.42499
0.431523
0.433757
-0.447858
-0.436511
-0.395362
-0.336934
-0.27122
-0.199814
-0.123155
-0.0417656
0.0436345
0.131935
0.217081
0.28517
0.332955
0.36704
0.391753
0.409971
0.423594
0.433715
0.440253
0.442385
-0.471169
-0.459833
-0.418094
-0.358451
-0.291136
-0.217735
-0.138662
-0.054384
0.0344464
0.126802
0.216372
0.28826
0.338687
0.374484
0.400218
0.418987
0.432865
0.44307
0.449592
0.451665
-0.493579
-0.482168
-0.439871
-0.37922
-0.310545
-0.235427
-0.154246
-0.0673756
0.0246363
0.120872
0.214906
0.290854
0.344279
0.382123
0.409136
0.428633
0.442879
0.453218
0.459734
0.461765
-0.515268
-0.503708
-0.460858
-0.39941
-0.329534
-0.25295
-0.16993
-0.080764
0.0141444
0.114066
0.212547
0.29281
0.349621
0.389901
0.418524
0.438986
0.453744
0.464303
0.470813
0.472825
-0.536263
-0.524537
-0.481214
-0.419065
-0.348154
-0.270318
-0.185728
-0.094556
0.00295295
0.106328
0.209178
0.293959
0.354535
0.397684
0.428303
0.450025
0.465502
0.476391
0.48293
0.484938
-0.556688
-0.544749
-0.50105
-0.438185
-0.366423
-0.287536
-0.201617
-0.108727
-0.00890984
0.0976371
0.20471
0.294114
0.358787
0.405252
0.438328
0.461678
0.478141
0.489537
0.496177
0.498064
-0.576446
-0.56432
-0.520312
-0.45678
-0.384302
-0.304553
-0.217531
-0.123204
-0.0213967
0.0880034
0.199069
0.293068
0.362081
0.412336
0.448423
0.473872
0.491592
0.503633
0.510423
0.512173
-0.595586
-0.583231
-0.538851
-0.474801
-0.401742
-0.3213
-0.233404
-0.137904
-0.0344307
0.0774711
0.192198
0.290623
0.364093
0.41861
0.458308
0.486443
0.505814
0.518633
0.525524
0.527063
-0.613924
-0.601471
-0.556703
-0.492211
-0.418679
-0.337692
-0.24915
-0.152738
-0.0479113
0.06612
0.184105
0.286654
0.364534
0.423566
0.467477
0.499075
0.520721
0.534432
0.541216
0.542417
-0.631586
-0.618983
-0.573828
-0.508971
-0.435071
-0.353679
-0.264666
-0.167604
-0.0617281
0.0540682
0.174843
0.281108
0.363108
0.426558
0.475193
0.511337
0.536403
0.551346
0.557361
0.557734
-0.648434
-0.635653
-0.590222
-0.525024
-0.450834
-0.369183
-0.27987
-0.182377
-0.0757433
0.0414186
0.164504
0.273941
0.359625
0.42707
0.480522
0.522318
0.552727
0.570465
0.57464
0.57226
-0.664518
-0.651567
-0.605789
-0.540321
-0.465929
-0.384142
-0.294684
-0.196974
-0.0898417
0.0283447
0.153237
0.265153
0.353933
0.424835
0.482486
0.530301
0.568424
0.593209
0.598156
0.586682
-0.679766
-0.666677
-0.620656
-0.554985
-0.480543
-0.398814
-0.309429
-0.211796
-0.104501
0.0142925
0.140448
0.254145
0.345401
0.41906
0.479376
0.53227
0.579142
0.61531
0.625107
0.619343
-0.694172
-0.68087
-0.634815
-0.568981
-0.494675
-0.413206
-0.32408
-0.22684
-0.119739
-0.000804105
0.126035
0.240746