/*--------------------------------*- C++ -*----------------------------------*\
  =========                 |
  \\      /  F ield         | OpenFOAM: The Open Source CFD Toolbox
   \\    /   O peration     | Website:  https://openfoam.org
    \\  /    A nd           | Version:  7
     \\/     M anipulation  |
\*---------------------------------------------------------------------------*/
FoamFile
{
    version     2.0;
    format      ascii;
    class       volScalarField;
    location    "0.003";
    object      mag(U);
}
// * * * * * * * * * * * * * * * * * * * * * * * * * * * * * * * * * * * * * //

dimensions      [0 1 -1 0 0 0 0];

internalField   nonuniform List<scalar> 
1000
(
5.71822e-13
6.88521e-13
6.41841e-13
7.4687e-13
5.71822e-13
4.31784e-13
3.50095e-13
2.10057e-13
2.10057e-13
2.21727e-13
2.33397e-13
1.28368e-13
3.15086e-13
3.50095e-13
4.20114e-13
2.56736e-13
2.56736e-13
2.80076e-13
3.03416e-13
5.13473e-13
2.21727e-13
2.80076e-13
1.16698e-14
1.05029e-13
1.51708e-13
1.86717e-13
7.0019e-14
3.38425e-13
3.85105e-13
5.83492e-13
5.48482e-13
5.48482e-13
3.96775e-13
3.26756e-13
1.75048e-13
3.03416e-13
2.21727e-13
2.80076e-13
2.45067e-13
2.80076e-13
3.96775e-13
5.01803e-13
3.73435e-13
5.48482e-13
3.85105e-13
4.55124e-13
2.33397e-13
2.56736e-13
2.33397e-13
7.0019e-14
3.85105e-13
1.63378e-13
7.0019e-14
1.16698e-13
8.16889e-14
1.28368e-13
3.50095e-14
1.40038e-13
1.86717e-13
3.50095e-13
1.98387e-13
3.96775e-13
4.66794e-13
3.73435e-13
4.43454e-13
3.38425e-13
1.28368e-13
2.33397e-13
1.16698e-13
9.33587e-14
1.05029e-13
4.20114e-13
9.33587e-14
5.83492e-14
1.40038e-13
2.80076e-13
2.33397e-13
3.73435e-13
3.85105e-13
1.75048e-13
1.98387e-13
1.51708e-13
4.78463e-13
2.45067e-13
4.20114e-13
1.63378e-13
2.21727e-13
9.33587e-14
1.51708e-13
2.10057e-13
1.16698e-14
2.56736e-13
1.16698e-14
2.68406e-13
1.16698e-14
1.28368e-13
1.28368e-13
3.50095e-14
1.16698e-13
1.98387e-13
2.45067e-13
1.51708e-13
9.33587e-14
2.91746e-13
1.51708e-13
2.45067e-13
8.16889e-14
8.16889e-14
2.21727e-13
1.63378e-13
1.63378e-13
2.56736e-13
2.10057e-13
2.33397e-14
5.83492e-14
1.51708e-13
2.56736e-13
1.98387e-13
1.05029e-13
5.83492e-14
3.50095e-14
9.33587e-14
9.33587e-14
1.86717e-13
2.10057e-13
2.21727e-13
4.66794e-14
1.51708e-13
1.28368e-13
1.40038e-13
7.0019e-14
1.51708e-13
1.86717e-13
1.05029e-13
1.28368e-13
1.51708e-13
1.51708e-13
1.51708e-13
1.40038e-13
9.33587e-14
8.16889e-14
5.83492e-14
1.98387e-13
2.91746e-13
2.56736e-13
3.50095e-14
1.63378e-13
1.75048e-13
1.86717e-13
1.16698e-13
3.61765e-13
1.40038e-13
2.21727e-13
1.75048e-13
5.83492e-14
2.10057e-13
2.68406e-13
3.50095e-14
3.03416e-13
5.83492e-14
1.05029e-13
1.16698e-14
9.33587e-14
4.66794e-14
1.16698e-14
8.16889e-14
5.83492e-14
1.16698e-14
1.16698e-13
9.33587e-14
1.75048e-13
2.33397e-14
9.33587e-14
2.68406e-13
3.50095e-13
4.20114e-13
5.01803e-13
4.66794e-13
3.85105e-13
4.55124e-13
1.40038e-13
2.21727e-13
1.86717e-13
1.28368e-13
6.71478e-27
9.33587e-14
1.98387e-13
5.83492e-14
1.98387e-13
2.33397e-14
3.50095e-14
1.28368e-13
5.83492e-14
1.40038e-13
1.51708e-13
1.16698e-14
2.68406e-13
1.63378e-13
3.96775e-13
2.68406e-13
4.43454e-13
2.56736e-13
4.55124e-13
8.16889e-14
2.33397e-13
1.05029e-13
2.91746e-13
4.66794e-14
2.21727e-13
2.33397e-14
2.33397e-14
1.28368e-13
1.16698e-14
2.80076e-13
5.83492e-14
1.51708e-13
8.16889e-14
1.86717e-13
1.05029e-13
1.86717e-13
3.03416e-13
1.75048e-13
1.28368e-13
2.33397e-13
2.91746e-13
1.63378e-13
3.61765e-13
2.56736e-13
2.10057e-13
8.16889e-14
1.16698e-13
1.63378e-13
3.50095e-14
1.16698e-13
8.16889e-14
1.16698e-13
7.0019e-14
3.61765e-13
2.91746e-13
3.50095e-13
1.16698e-13
2.58746e-27
2.96769e-27
1.16698e-13
1.05029e-13
1.75048e-13
1.63378e-13
1.86717e-13
1.40038e-13
1.05029e-13
4.66794e-14
4.66794e-14
3.50095e-14
5.83492e-14
1.40038e-13
2.91746e-13
2.80076e-13
3.73435e-13
1.98387e-13
2.10057e-13
3.50095e-14
2.10057e-13
2.45067e-13
1.86717e-13
1.75048e-13
3.50095e-13
5.83492e-14
1.75048e-13
2.33397e-14
9.33587e-14
2.91746e-13
2.91746e-13
1.86717e-13
1.16698e-13
3.61765e-13
9.33587e-14
1.63378e-13
1.05029e-13
1.4515e-28
1.16698e-13
2.10057e-13
1.51708e-13
8.16889e-14
1.16698e-14
7.0019e-14
1.51708e-13
1.98387e-13
2.21727e-13
1.51708e-13
7.0019e-14
1.75048e-13
2.21727e-13
3.50095e-14
1.86717e-13
2.56736e-13
1.98387e-13
2.10057e-13
1.05029e-13
1.40038e-13
2.33397e-14
1.28368e-13
9.33587e-14
9.33587e-14
4.66794e-14
3.50095e-13
2.91746e-13
1.86717e-13
1.75048e-13
2.17726e-27
1.16698e-13
2.33397e-14
4.66794e-14
1.16698e-13
2.33397e-13
1.05029e-13
2.33397e-14
4.66794e-14
1.51708e-13
1.75048e-13
4.08444e-13
1.28368e-13
3.15086e-13
3.96775e-13
1.27201e-12
2.42733e-12
5.44982e-12
1.15765e-11
2.40866e-11
4.96902e-11
1.01539e-10
2.05331e-10
4.12471e-10
8.21895e-10
1.62632e-09
3.1939e-09
6.22682e-09
1.20514e-08
2.31505e-08
4.41375e-08
8.35081e-08
1.56777e-07
2.92024e-07
5.39622e-07
9.8911e-07
1.79817e-06
3.24187e-06
5.79538e-06
1.02715e-05
1.80464e-05
3.14262e-05
5.42345e-05
9.2742e-05
0.000157118
0.000263667
0.00043822
0.000721212
0.00117514
0.00189536
0.00302544
0.00477852
0.00746654
0.0115392
0.0176346
0.026644
0.0397904
0.0587224
0.0856211
0.123314
0.175393
0.246314
0.341483
0.467292
0.631098
0.841129
1.10631
1.43599
1.83965
2.32645
2.9049
3.58241
4.36504
5.25714
6.26134
7.37842
8.60745
9.9459
11.3899
12.9346
14.5744
16.3029
18.1141
20.0014
21.9586
23.9799
26.0596
28.1925
30.3738
32.5992
34.8647
37.1668
39.5023
41.8684
44.2625
46.6823
49.1259
51.5913
54.0771
56.5816
59.1036
61.6419
64.1954
66.763
69.3438
71.937
74.5417
77.1573
79.7829
82.418
85.0619
87.7141
90.374
93.0412
95.7152
98.3954
101.082
103.773
106.47
109.172
111.878
114.589
117.303
120.021
122.743
125.468
128.196
130.927
133.66
136.396
139.135
141.875
144.618
147.362
150.109
152.856
155.606
158.357
161.11
163.863
166.619
169.373
172.131
174.887
177.647
180.406
183.166
185.927
188.689
191.451
194.214
196.977
199.741
202.505
205.269
208.034
210.799
213.564
216.329
219.095
221.861
224.626
227.392
230.158
232.923
235.689
238.454
241.22
243.985
246.75
249.515
252.28
255.045
257.809
260.573
263.337
266.1
268.863
271.626
274.388
277.15
279.912
282.673
285.433
288.193
290.953
293.712
296.47
299.228
301.986
304.742
307.499
310.254
313.009
315.763
318.516
321.269
324.021
326.772
329.522
332.271
335.02
337.768
340.514
343.26
346.005
348.749
351.492
354.234
356.974
359.714
362.452
365.189
367.925
370.66
373.393
376.125
378.856
381.585
384.312
387.038
389.763
392.485
395.206
397.925
400.643
403.358
406.071
408.782
411.491
414.198
416.902
419.604
422.303
425
427.694
430.384
433.072
435.757
438.438
441.115
443.789
446.459
449.125
451.787
454.444
457.096
459.744
462.386
465.023
467.654
470.279
472.897
475.509
478.114
480.71
483.299
485.88
488.451
491.014
493.566
496.107
498.637
501.156
503.662
506.154
508.632
511.096
513.543
515.974
518.386
520.78
523.154
525.506
527.836
530.142
532.423
534.676
536.902
539.098
541.261
543.392
545.487
547.545
549.565
551.543
553.478
555.368
557.211
559.005
560.747
562.436
564.07
565.647
567.166
568.623
570.019
571.352
572.621
573.824
574.963
576.035
577.041
577.982
578.858
579.67
580.42
581.109
581.738
582.312
582.83
583.297
583.717
584.092
584.424
584.714
584.968
585.189
585.38
585.544
585.684
585.802
585.902
585.985
586.054
586.11
586.156
586.193
586.222
586.245
586.263
586.276
586.286
586.294
586.299
586.303
586.304
586.305
586.305
586.304
586.303
586.302
586.301
586.3
586.298
586.297
586.295
586.293
586.29
586.287
586.283
586.278
586.272
586.265
586.257
586.247
586.236
586.225
586.212
586.198
586.185
586.171
586.159
586.146
586.137
586.133
586.133
586.136
586.138
586.142
586.148
586.158
586.173
586.192
586.213
586.236
586.259
586.283
586.306
586.327
586.346
586.363
586.377
586.388
586.397
586.407
586.415
586.422
586.429
586.435
586.441
586.446
586.452
586.457
586.462
586.467
586.472
586.477
586.482
586.488
586.493
586.499
586.504
586.509
586.515
586.52
586.526
586.533
586.54
586.549
586.556
586.563
586.569
586.574
586.575
586.577
586.583
586.588
586.593
586.598
586.603
586.606
586.61
586.613
586.614
586.611
586.607
586.598
586.588
586.578
586.551
586.528
586.436
586.378
586.129
585.853
585.085
583.636
580.83
574.855
563.27
540.075
495.905
415.182
283.709
130.245
35.939
7.26684
1.2345
0.189154
0.0283206
0.00423465
0.000633877
9.49475e-05
1.42261e-05
2.13176e-06
3.19455e-07
4.78725e-08
7.17415e-09
1.07476e-09
1.60957e-10
2.37336e-11
3.09251e-12
2.62572e-13
6.27255e-13
8.60652e-13
6.85604e-13
6.71017e-13
1.00653e-12
7.29366e-13
8.46065e-13
5.9808e-13
6.12667e-13
3.20921e-13
4.23032e-13
4.3762e-14
3.06334e-13
3.06334e-13
2.62572e-13
3.50096e-13
5.68906e-13
4.81382e-13
5.83493e-13
1.16699e-13
2.77159e-13
2.91746e-14
5.83493e-14
7.29366e-14
8.75239e-14
1.47517e-26
1.60461e-13
2.33397e-13
2.47984e-13
2.91746e-14
1.45873e-13
1.75048e-13
1.45873e-14
1.60461e-13
1.31286e-13
1.89635e-13
2.33397e-13
1.60461e-13
2.62572e-13
1.45873e-13
4.3762e-14
2.91746e-13
4.3762e-14
2.33397e-13
2.91746e-14
1.16699e-13
4.3762e-14
8.75239e-14
3.64683e-13
7.29366e-14
3.64683e-13
4.3762e-14
2.04222e-13
3.06334e-13
1.60461e-13
4.81382e-13
4.3762e-14
1.02111e-13
1.45873e-14
2.81876e-27
1.02111e-13
2.91746e-14
2.04222e-13
3.35508e-13
5.83493e-14
2.77159e-13
2.04222e-13
3.35508e-13
3.20921e-13
2.91746e-13
5.83493e-14
1.16699e-13
5.83493e-14
1.31286e-13
1.45873e-14
3.35508e-13
2.91746e-14
2.1881e-13
1.89635e-13
2.1881e-13
4.66794e-13
3.20921e-13
4.81382e-13
4.66794e-13
3.93858e-13
6.41842e-13
5.39731e-13
4.95969e-13
3.7927e-13
2.33397e-13
3.06334e-13
6.27255e-13
6.41842e-13
7.73128e-13
5.54318e-13
6.27255e-13
3.64683e-13
3.7927e-13
2.1881e-13
2.47984e-13
2.91746e-14
2.04222e-13
1.89635e-13
3.7927e-13
3.93858e-13
5.68906e-13
2.91746e-13
4.81382e-13
2.62572e-13
4.66794e-13
2.47984e-13
2.47984e-13
1.45873e-14
2.77159e-13
3.50096e-13
2.1881e-13
5.83493e-14
3.06334e-13
2.91746e-13
4.23032e-13
5.54318e-13
5.68906e-13
6.12667e-13
3.35508e-13
5.10556e-13
5.68906e-13
6.85604e-13
6.27255e-13
7.58541e-13
1.0357e-12
8.75239e-13
1.06487e-12
7.14779e-13
9.77351e-13
8.46065e-13
7.43953e-13
6.12667e-13
4.81382e-13
5.54318e-13
8.75239e-14
2.33397e-13
8.75239e-14
3.50096e-13
3.20921e-13
5.39731e-13
3.7927e-13
4.3762e-13
4.66794e-13
5.39731e-13
5.25144e-13
7.00191e-13
5.68906e-13
4.3762e-13
4.3762e-13
6.27255e-13
5.39731e-13
1.00653e-12
7.14779e-13
1.0357e-12
9.04414e-13
8.02303e-13
8.75239e-13
7.00191e-13
8.60652e-13
4.52207e-13
7.43953e-13
3.35508e-13
3.20921e-13
2.33397e-13
3.83702e-27
1.75048e-13
1.16699e-13
4.3762e-14
1.45873e-14
2.04222e-13
1.75048e-13
1.75048e-13
1.45873e-13
5.83493e-14
7.29366e-14
1.31286e-13
1.45873e-13
4.3762e-14
2.91746e-13
1.45873e-13
2.0918e-27
2.91746e-14
4.3762e-14
7.29366e-14
1.31286e-13
2.04222e-13
1.02111e-13
5.11182e-28
4.3762e-14
2.91746e-14
1.31286e-13
5.83493e-14
1.45873e-14
3.50096e-13
3.20921e-13
6.71017e-13
5.68906e-13
8.02303e-13
6.41842e-13
8.1689e-13
5.68906e-13
6.85604e-13
4.08445e-13
5.83493e-13
7.43953e-13
7.87715e-13
7.58541e-13
4.23032e-13
3.50096e-13
2.77159e-13
5.54318e-13
4.52207e-13
2.62572e-13
5.10556e-13
5.10556e-13
8.46065e-13
6.41842e-13
7.14779e-13
5.54318e-13
5.9808e-13
7.14779e-13
7.00191e-13
4.08445e-13
)
;

boundaryField
{
    sides
    {
        type            calculated;
        value           nonuniform List<scalar> 2(4.08445e-13 5.71822e-13);
    }
    empty
    {
        type            empty;
    }
}


// ************************************************************************* //
