/*--------------------------------*- C++ -*----------------------------------*\
  =========                 |
  \\      /  F ield         | OpenFOAM: The Open Source CFD Toolbox
   \\    /   O peration     | Website:  https://openfoam.org
    \\  /    A nd           | Version:  7
     \\/     M anipulation  |
\*---------------------------------------------------------------------------*/
FoamFile
{
    version     2.0;
    format      ascii;
    class       volScalarField;
    location    "0.003";
    object      p;
}
// * * * * * * * * * * * * * * * * * * * * * * * * * * * * * * * * * * * * * //

dimensions      [1 -1 -2 0 0 0 0];

internalField   nonuniform List<scalar> 
1000
(
1e+06
1e+06
1e+06
1e+06
1e+06
1e+06
1e+06
1e+06
1e+06
1e+06
1e+06
1e+06
1e+06
1e+06
1e+06
1e+06
1e+06
1e+06
1e+06
1e+06
1e+06
1e+06
1e+06
1e+06
1e+06
1e+06
1e+06
1e+06
1e+06
1e+06
1e+06
1e+06
1e+06
1e+06
1e+06
1e+06
1e+06
1e+06
1e+06
1e+06
1e+06
1e+06
1e+06
1e+06
1e+06
1e+06
1e+06
1e+06
1e+06
1e+06
1e+06
1e+06
1e+06
1e+06
1e+06
1e+06
1e+06
1e+06
1e+06
1e+06
1e+06
1e+06
1e+06
1e+06
1e+06
1e+06
1e+06
1e+06
1e+06
1e+06
1e+06
1e+06
1e+06
1e+06
1e+06
1e+06
1e+06
1e+06
1e+06
1e+06
1e+06
1e+06
1e+06
1e+06
1e+06
1e+06
1e+06
1e+06
1e+06
1e+06
1e+06
1e+06
1e+06
1e+06
1e+06
1e+06
1e+06
1e+06
1e+06
1e+06
1e+06
1e+06
1e+06
1e+06
1e+06
1e+06
1e+06
1e+06
1e+06
1e+06
1e+06
1e+06
1e+06
1e+06
1e+06
1e+06
1e+06
1e+06
1e+06
1e+06
1e+06
1e+06
1e+06
1e+06
1e+06
1e+06
1e+06
1e+06
1e+06
1e+06
1e+06
1e+06
1e+06
1e+06
1e+06
1e+06
1e+06
1e+06
1e+06
1e+06
1e+06
1e+06
1e+06
1e+06
1e+06
1e+06
1e+06
1e+06
1e+06
1e+06
1e+06
1e+06
1e+06
1e+06
1e+06
1e+06
1e+06
1e+06
1e+06
1e+06
1e+06
1e+06
1e+06
1e+06
1e+06
1e+06
1e+06
1e+06
1e+06
1e+06
1e+06
1e+06
1e+06
1e+06
1e+06
1e+06
1e+06
1e+06
1e+06
1e+06
1e+06
1e+06
1e+06
1e+06
1e+06
1e+06
1e+06
1e+06
1e+06
1e+06
1e+06
1e+06
1e+06
1e+06
1e+06
1e+06
1e+06
1e+06
1e+06
1e+06
1e+06
1e+06
1e+06
1e+06
1e+06
1e+06
1e+06
1e+06
1e+06
1e+06
1e+06
1e+06
1e+06
1e+06
1e+06
1e+06
1e+06
1e+06
1e+06
1e+06
1e+06
1e+06
1e+06
1e+06
1e+06
1e+06
1e+06
1e+06
1e+06
1e+06
1e+06
1e+06
1e+06
1e+06
1e+06
1e+06
1e+06
1e+06
1e+06
1e+06
1e+06
1e+06
1e+06
1e+06
1e+06
1e+06
1e+06
1e+06
1e+06
1e+06
1e+06
1e+06
1e+06
1e+06
1e+06
1e+06
1e+06
1e+06
1e+06
1e+06
1e+06
1e+06
1e+06
1e+06
1e+06
1e+06
1e+06
1e+06
1e+06
1e+06
1e+06
1e+06
1e+06
1e+06
1e+06
1e+06
1e+06
1e+06
1e+06
1e+06
1e+06
1e+06
1e+06
1e+06
1e+06
1e+06
1e+06
1e+06
1e+06
1e+06
1e+06
1e+06
1e+06
1e+06
1e+06
1e+06
1e+06
1e+06
1e+06
1e+06
1e+06
1e+06
1e+06
1e+06
1e+06
1e+06
1e+06
1e+06
1e+06
1e+06
1e+06
1e+06
1e+06
1e+06
1e+06
1e+06
1e+06
1e+06
1e+06
1e+06
1e+06
1e+06
1e+06
1e+06
1e+06
1e+06
1e+06
1e+06
1e+06
1e+06
1e+06
1e+06
1e+06
1e+06
1e+06
1e+06
1e+06
1e+06
1e+06
1e+06
1e+06
1e+06
1e+06
1e+06
1e+06
1e+06
1e+06
1e+06
1e+06
1e+06
1e+06
1e+06
999999
999999
999998
999997
999996
999993
999989
999982
999973
999958
999935
999902
999853
999784
999684
999545
999352
999089
998736
998269
997661
996881
995896
994672
993175
991370
989228
986723
983836
980552
976867
972780
968299
963440
958220
952663
946795
940642
934233
927595
920754
913735
906562
899257
891840
884327
876736
869081
861374
853628
845851
838053
830243
822426
814610
806800
799001
791217
783453
775711
767997
760312
752659
745041
737460
729919
722418
714961
707548
700181
692861
685590
678368
671196
664076
657008
649993
643031
636122
629269
622469
615725
609036
602402
595823
589301
582834
576422
570067
563767
557523
551334
545200
539122
533099
527131
521218
515358
509555
503804
498109
492466
486876
481339
475856
470424
465045
459717
454441
449216
444041
438918
433845
428821
423847
418923
414047
409220
404441
399709
395026
390389
385799
381256
376758
372307
367901
363540
359223
354951
350723
346538
342397
338299
334243
330230
326258
322328
318439
314592
310784
307017
303290
299602
295954
292344
288773
285240
281745
278288
274868
271484
268138
264827
261553
258314
255111
251943
248809
245710
242646
239615
236617
233653
230722
227823
224957
222123
219321
216551
213812
211104
208426
205779
203163
200576
198019
195492
192994
190524
188084
185672
183288
180932
178604
176304
174031
171785
169566
167374
165208
163069
160955
158868
156806
154770
152759
150773
148813
146877
144966
143079
141217
139379
137565
135775
134010
132267
130549
128854
127183
125535
123910
122309
120731
119176
117644
116136
114651
113189
111750
110335
108942
107574
106229
104907
103609
102335
101086
99860
98658.7
97482.1
96330.3
95203.7
94102.3
93026.6
91976.9
90953.4
89956.4
88986.3
88043.5
87128.3
86241
85382
84551.6
83750.2
82978
82235.5
81522.7
80840
80187.5
79565.4
78973.8
78412.5
77881.7
77381.1
76910.5
76469.5
76057.8
75674.8
75319.8
74992.2
74691.1
74415.6
74164.5
73937.3
73731.5
73547.5
73383.9
73238.7
73107.5
72994.3
72896.1
72811.1
72738.1
72675.9
72623.2
72579.1
72542.4
72512.3
72487.9
72468.4
72453.1
72441.4
72432.6
72426.6
72422.2
72420.1
72419.5
72419.3
72420.4
72421.7
72424.1
72426.8
72429.9
72433.2
72436.5
72439.8
72443.1
72446.4
72449.6
72452.7
72455.6
72458.5
72461
72463.5
72465.7
72467.8
72469.6
72471.3
72472.9
72474.3
72475.7
72477
72478.3
72479.6
72481.1
72482.4
72484.6
72486.6
72490.3
72493.7
72497.8
72498.9
72501.4
72505.4
72508.7
72514.1
72518.7
72523.1
72527
72530.8
72534.3
72537.3
72539.9
72542.3
72544.4
72545.9
72547.1
72547.9
72549.1
72550
72550.8
72551.5
72552.1
72552.8
72553.5
72554.2
72555
72555.9
72556.8
72557.7
72558.8
72559.8
72560.9
72562
72563.1
72564.3
72565.3
72566.7
72567.6
72568.4
72570.1
72570.8
72572.9
72573.6
72574.5
72575.6
72576.5
72577.6
72578.2
72581
72581.9
72582.9
72583.8
72584.6
72585.2
72585.9
72586.6
72587
72587.1
72588.1
72588
72587.5
72586.5
72582.1
72576.5
72565
72552.5
72532.4
72468.6
72430.9
72123.1
71857.3
70918.6
69389.4
66350.7
60728.6
51836.3
38904.4
25134.9
15497.1
11359.1
10246.1
10038.2
10005.7
10000.9
10000.1
10000
10000
10000
10000
10000
10000
10000
10000
10000
10000
10000
10000
10000
10000
10000
10000
10000
10000
10000
10000
10000
10000
10000
10000
10000
10000
10000
10000
10000
10000
10000
10000
10000
10000
10000
10000
10000
10000
10000
10000
10000
10000
10000
10000
10000
10000
10000
10000
10000
10000
10000
10000
10000
10000
10000
10000
10000
10000
10000
10000
10000
10000
10000
10000
10000
10000
10000
10000
10000
10000
10000
10000
10000
10000
10000
10000
10000
10000
10000
10000
10000
10000
10000
10000
10000
10000
10000
10000
10000
10000
10000
10000
10000
10000
10000
10000
10000
10000
10000
10000
10000
10000
10000
10000
10000
10000
10000
10000
10000
10000
10000
10000
10000
10000
10000
10000
10000
10000
10000
10000
10000
10000
10000
10000
10000
10000
10000
10000
10000
10000
10000
10000
10000
10000
10000
10000
10000
10000
10000
10000
10000
10000
10000
10000
10000
10000
10000
10000
10000
10000
10000
10000
10000
10000
10000
10000
10000
10000
10000
10000
10000
10000
10000
10000
10000
10000
10000
10000
10000
10000
10000
10000
10000
10000
10000
10000
10000
10000
10000
10000
10000
10000
10000
10000
10000
10000
10000
10000
10000
10000
10000
10000
10000
10000
10000
10000
10000
10000
10000
10000
10000
10000
10000
10000
10000
10000
10000
10000
10000
10000
10000
10000
10000
10000
10000
10000
10000
10000
10000
10000
10000
10000
10000
10000
10000
10000
10000
10000
10000
10000
10000
10000
10000
10000
10000
10000
10000
10000
10000
10000
)
;

boundaryField
{
    sides
    {
        type            zeroGradient;
    }
    empty
    {
        type            empty;
    }
}


// ************************************************************************* //
