/*--------------------------------*- C++ -*----------------------------------*\
  =========                 |
  \\      /  F ield         | OpenFOAM: The Open Source CFD Toolbox
   \\    /   O peration     | Website:  https://openfoam.org
    \\  /    A nd           | Version:  7
     \\/     M anipulation  |
\*---------------------------------------------------------------------------*/
FoamFile
{
    version     2.0;
    format      ascii;
    class       surfaceScalarField;
    location    "0.003";
    object      phi;
}
// * * * * * * * * * * * * * * * * * * * * * * * * * * * * * * * * * * * * * //

dimensions      [1 0 -1 0 0 0 0];

internalField   nonuniform List<scalar> 
999
(
-2.95586e-11
-2.59206e-11
-2.68301e-11
-2.81943e-11
-2.31921e-11
-1.31877e-11
-1.36424e-11
-7.7307e-12
-9.09495e-12
-1.09139e-11
-5.45697e-12
-8.6402e-12
-1.27329e-11
-2.00089e-11
-1.13687e-11
-1.18234e-11
-1.22782e-11
-1.09139e-11
-1.63709e-11
-1.86446e-11
-8.18545e-12
-5.45697e-12
-2.72848e-12
0
9.09495e-13
-5.91172e-12
-6.36646e-12
-1.31877e-11
-2.27374e-11
-2.04636e-11
-2.36469e-11
-1.77351e-11
-1.50067e-11
-1.13687e-11
-9.09495e-12
-9.09495e-12
-1.04592e-11
-1.18234e-11
-1.09139e-11
-1.45519e-11
-1.72804e-11
-1.81899e-11
-2.04636e-11
-1.90994e-11
-1.95541e-11
-1.40972e-11
-1.09139e-11
-9.54969e-12
-4.54747e-12
-1.13687e-11
-1.09139e-11
-5.91172e-12
2.72848e-12
2.72848e-12
-4.54747e-13
-2.27374e-12
-2.27374e-12
-7.27596e-12
-1.18234e-11
-1.18234e-11
-1.09139e-11
-1.86446e-11
-1.81899e-11
-1.68257e-11
-1.36424e-11
-1.00044e-11
-8.6402e-12
-8.18545e-12
-5.45697e-12
-4.54747e-13
-1.45519e-11
-7.7307e-12
1.81899e-12
4.54747e-13
-9.09495e-13
-1.31877e-11
-1.36424e-11
-1.59162e-11
-8.18545e-12
-1.04592e-11
-4.54747e-12
-1.36424e-11
-1.72804e-11
-1.18234e-11
-1.00044e-11
-1.09139e-11
-3.63798e-12
-7.27596e-12
-9.09495e-12
-2.27374e-12
5.45697e-12
8.6402e-12
1.81899e-12
6.36646e-12
4.54747e-12
3.18323e-12
4.09273e-12
-2.72848e-12
-4.54747e-12
-1.04592e-11
-1.81899e-12
5.45697e-12
8.6402e-12
3.18323e-12
1.81899e-12
1.09139e-11
1.36424e-12
-3.63798e-12
-5.91172e-12
-7.7307e-12
-5.45697e-12
-1.09139e-11
-7.27596e-12
-9.09495e-13
-5.00222e-12
-7.27596e-12
-1.09139e-11
-5.00222e-12
-3.63798e-12
-1.81899e-12
4.54747e-12
5.00222e-12
1.36424e-12
1.00044e-11
-4.54747e-13
-8.6402e-12
-2.27374e-12
-4.54747e-13
-4.54747e-13
-5.00222e-12
-6.82121e-12
1.81899e-12
6.82121e-12
1.36424e-12
1.09139e-11
-9.09495e-13
4.54747e-13
5.00222e-12
6.36646e-12
-9.09495e-13
-3.63798e-12
-4.09273e-12
-1.27329e-11
-1.09139e-11
-6.36646e-12
-3.18323e-12
-8.6402e-12
-7.7307e-12
-5.91172e-12
-1.00044e-11
-3.63798e-12
-4.09273e-12
-4.54747e-13
3.63798e-12
2.27374e-12
-1.36424e-12
-5.45697e-12
-6.36646e-12
-7.7307e-12
-4.54747e-12
-1.81899e-12
-1.81899e-12
-3.63798e-12
-4.54747e-13
-4.54747e-13
-5.45697e-12
-1.81899e-12
-4.09273e-12
-2.72848e-12
-7.27596e-12
-5.00222e-12
-9.09495e-13
-9.09495e-12
-9.09495e-12
-1.72804e-11
-1.95541e-11
-1.68257e-11
-1.86446e-11
-1.68257e-11
-1.45519e-11
-5.91172e-12
-1.36424e-12
2.72848e-12
-5.45697e-12
5.45697e-12
5.00222e-12
5.91172e-12
5.45697e-12
3.18323e-12
2.72848e-12
-3.18323e-12
-1.81899e-12
-2.72848e-12
-6.82121e-12
-3.63798e-12
-4.09273e-12
-1.18234e-11
-9.09495e-12
-1.81899e-11
-1.18234e-11
-1.31877e-11
-2.00089e-11
-1.04592e-11
-5.00222e-12
-2.27374e-12
-5.91172e-12
-8.18545e-12
-5.00222e-12
-6.82121e-12
9.09495e-13
2.27374e-12
1.36424e-12
4.09273e-12
8.18545e-12
3.63798e-12
6.36646e-12
4.54747e-12
7.27596e-12
5.45697e-12
1.18234e-11
1.00044e-11
5.45697e-12
5.45697e-12
1.27329e-11
9.54969e-12
1.31877e-11
9.09495e-12
1.04592e-11
9.54969e-12
-2.27374e-12
-4.09273e-12
-4.54747e-12
-9.09495e-13
-9.09495e-13
5.00222e-12
3.18323e-12
9.54969e-12
1.36424e-11
1.00044e-11
1.22782e-11
2.72848e-12
-1.36424e-12
5.45697e-12
3.18323e-12
7.7307e-12
4.09273e-12
1.13687e-11
2.72848e-12
1.00044e-11
1.36424e-12
1.36424e-12
-1.81899e-12
-3.18323e-12
-5.00222e-12
-7.27596e-12
-1.22782e-11
-1.36424e-11
-1.13687e-11
-1.09139e-11
-9.09495e-13
4.54747e-12
1.27329e-11
6.36646e-12
7.7307e-12
1.31877e-11
5.91172e-12
6.36646e-12
4.09273e-12
4.09273e-12
6.82121e-12
1.18234e-11
9.54969e-12
9.09495e-12
8.6402e-12
1.09139e-11
6.36646e-12
9.09495e-13
-4.09273e-12
5.45697e-12
-3.63798e-12
-6.82121e-12
-5.00222e-12
-2.27374e-12
-1.81899e-12
-5.91172e-12
-6.82121e-12
-1.00044e-11
-9.54969e-12
-4.54747e-12
-4.09273e-12
-8.18545e-12
-5.45697e-12
-5.00222e-12
-1.04592e-11
-1.13687e-11
-6.82121e-12
-5.91172e-12
-6.36646e-12
-2.72848e-12
-2.27374e-12
-1.81899e-12
-4.54747e-13
-4.54747e-13
-7.27596e-12
-1.36424e-11
-8.18545e-12
-8.6402e-12
-3.63798e-12
0
5.91172e-12
0
-1.36424e-12
-9.54969e-12
-6.82121e-12
-2.27374e-12
-9.09495e-13
6.36646e-12
3.18323e-12
1.63709e-11
9.09495e-12
7.27596e-12
1.63709e-11
2.86491e-11
6.59384e-11
1.39607e-10
3.06954e-10
6.43468e-10
1.3415e-09
2.74167e-09
5.57793e-09
1.12541e-08
2.25259e-08
4.47594e-08
8.82746e-08
1.72828e-07
3.35914e-07
6.48073e-07
1.24098e-06
2.35834e-06
4.44736e-06
8.32164e-06
1.54481e-05
2.84482e-05
5.19629e-05
9.41324e-05
0.000169098
0.000301184
0.000531819
0.000930836
0.00161473
0.00277572
0.00472758
0.00797662
0.0133305
0.022062
0.0361527
0.0586484
0.0941692
0.149629
0.235227
0.365792
0.562556
0.855433
1.28587
1.91029
2.8041
4.06614
5.82324
8.23472
11.496
15.8409
21.5417
28.9067
38.2737
50.0008
64.4533
81.9878
102.935
127.583
156.162
188.83
225.67
266.683
311.792
360.85
413.646
469.923
529.388
591.725
656.61
723.723
792.749
863.39
935.368
1008.42
1082.32
1156.85
1231.82
1307.06
1382.42
1457.76
1532.96
1607.93
1682.57
1756.8
1830.56
1903.77
1976.38
2048.36
2119.64
2190.2
2260
2329.01
2397.2
2464.55
2531.04
2596.65
2661.36
2725.15
2788.02
2849.96
2910.94
2970.98
3030.05
3088.15
3145.28
3201.44
3256.62
3310.83
3364.05
3416.3
3467.57
3517.87
3567.2
3615.56
3662.95
3709.39
3754.87
3799.39
3842.97
3885.62
3927.32
3968.13
4007.93
4047
4084.83
4122.29
4158.11
4193.97
4228.02
4261.81
4294.78
4326.05
4357.96
4387.39
4417.12
4445.89
4473.15
4500.41
4526.66
4551.66
4576.43
4600.35
4623.18
4645.46
4667.17
4687.87
4707.83
4727.25
4745.94
4763.77
4780.95
4797.52
4813.4
4828.52
4842.99
4856.86
4870.09
4882.61
4894.5
4905.79
4916.49
4926.54
4935.98
4944.83
4953.11
4960.81
4967.93
4974.47
4980.46
4985.91
4990.82
4995.19
4999.03
5002.33
5005.14
5007.44
5009.24
5010.55
5011.37
5011.71
5011.58
5010.99
5009.94
5008.45
5006.5
5004.11
5001.3
4998.06
4994.41
4990.35
4985.88
4981.01
4975.75
4970.1
4964.08
4957.68
4950.92
4943.8
4936.32
4928.49
4920.32
4911.81
4902.97
4893.81
4884.34
4874.55
4864.45
4854.05
4843.35
4832.37
4821.1
4809.55
4797.73
4785.65
4773.3
4760.7
4747.85
4734.75
4721.42
4707.85
4694.05
4680.03
4665.8
4651.36
4636.71
4621.86
4606.82
4591.58
4576.17
4560.57
4544.81
4528.88
4512.79
4496.55
4480.16
4463.63
4446.97
4430.17
4413.25
4396.22
4379.07
4361.82
4344.47
4327.03
4309.51
4291.91
4274.25
4256.53
4238.75
4220.93
4203.08
4185.19
4167.29
4149.37
4131.46
4113.55
4095.67
4077.81
4060
4042.24
4024.55
4006.94
3989.42
3972
3954.7
3937.53
3920.5
3903.63
3886.94
3870.44
3854.14
3838.08
3822.25
3806.68
3791.39
3776.4
3761.72
3747.37
3733.38
3719.75
3706.5
3693.64
3681.2
3669.18
3657.6
3646.46
3635.77
3625.54
3615.78
3606.48
3597.65
3589.29
3581.39
3573.95
3566.94
3560.38
3554.26
3548.52
3543.12
3538.06
3533.38
3528.99
3524.89
3521.01
3517.35
3513.87
3510.54
3507.32
3504.21
3501.18
3498.21
3495.28
3492.38
3489.5
3486.62
3483.73
3480.81
3477.82
3474.72
3471.47
3467.97
3464.13
3459.84
3454.95
3449.24
3442.5
3434.45
3424.81
3413.22
3399.32
3382.72
3362.98
3339.72
3312.49
3280.91
3244.61
3203.29
3156.7
3104.66
3047.13
2984.13
2915.81
2842.42
2764.37
2682.13
2596.32
2507.59
2416.73
2324.53
2231.82
2139.46
2048.27
1959.02
1872.4
1789.17
1709.75
1634.71
1564.41
1499.02
1438.69
1383.47
1333.31
1288.08
1247.61
1211.64
1179.91
1152.11
1127.93
1107.03
1089.09
1073.81
1060.88
1050
1040.93
1033.41
1027.22
1022.17
1018.09
1014.81
1012.21
1010.16
1008.57
1007.35
1006.42
1005.74
1005.24
1004.89
1004.66
1004.51
1004.43
1004.4
1004.41
1004.43
1004.48
1004.53
1004.59
1004.65
1004.73
1004.8
1004.88
1004.96
1005.03
1005.1
1005.17
1005.23
1005.28
1005.34
1005.38
1005.42
1005.46
1005.5
1005.53
1005.54
1005.56
1005.54
1005.53
1005.45
1005.38
1005.19
1004.91
1004.3
1002.86
1000.85
996.194
986.791
969.018
932.69
867.832
755.921
584.019
362.037
159.471
46.1089
8.85356
1.36314
0.201536
0.0299032
0.00446119
0.000667367
9.99441e-05
1.49738e-05
2.24375e-06
3.36234e-07
5.03873e-08
7.55092e-09
1.13152e-09
1.69457e-10
2.53095e-11
3.6664e-12
2.06057e-13
-3.12639e-13
-4.05009e-13
-3.2685e-13
-3.69482e-13
-4.05009e-13
-4.54747e-13
-4.05009e-13
-3.41061e-13
-3.12639e-13
-2.4869e-13
-1.7053e-13
-1.06581e-13
-5.68434e-14
-1.84741e-13
-1.42109e-13
-1.49214e-13
-2.20268e-13
-2.91323e-13
-3.05533e-13
-1.49214e-13
-7.81597e-14
-7.81597e-14
4.9738e-14
-2.84217e-14
-2.84217e-14
-2.84217e-14
2.13163e-14
-7.10543e-15
7.10543e-15
5.68434e-14
5.68434e-14
7.10543e-14
3.55271e-14
4.9738e-14
-7.10543e-15
-4.9738e-14
-9.9476e-14
-1.20792e-13
-9.9476e-14
-1.20792e-13
-1.42109e-14
9.9476e-14
9.23706e-14
6.39488e-14
8.52651e-14
3.55271e-14
2.84217e-14
-4.9738e-14
-1.06581e-13
-1.42109e-13
-8.52651e-14
-1.27898e-13
-6.39488e-14
2.13163e-14
1.35003e-13
1.42109e-13
1.63425e-13
4.9738e-14
1.42109e-14
2.13163e-14
-1.42109e-14
-2.13163e-14
-7.10543e-14
-1.63425e-13
-9.23706e-14
-9.9476e-14
-9.9476e-14
-1.20792e-13
-1.77636e-13
-1.35003e-13
-8.52651e-14
-1.42109e-14
-1.42109e-14
-2.13163e-14
-1.42109e-14
-9.23706e-14
-7.81597e-14
-8.52651e-14
1.42109e-14
1.13687e-13
1.7053e-13
2.13163e-13
2.20268e-13
1.98952e-13
2.41585e-13
2.34479e-13
3.12639e-13
2.4869e-13
2.4869e-13
1.42109e-13
1.42109e-13
2.06057e-13
3.62377e-13
3.62377e-13
3.12639e-13
2.77112e-13
2.34479e-13
1.77636e-13
1.84741e-13
1.13687e-13
4.26326e-14
4.26326e-14
1.06581e-13
1.42109e-13
1.7053e-13
2.41585e-13
2.20268e-13
1.91847e-13
1.98952e-13
1.63425e-13
1.63425e-13
1.49214e-13
6.39488e-14
-7.10543e-14
-1.77636e-13
-9.9476e-14
-1.06581e-13
1.06581e-13
1.35003e-13
2.06057e-13
2.27374e-13
2.84217e-13
2.98428e-13
2.13163e-13
2.41585e-13
2.13163e-13
3.69482e-13
3.41061e-13
3.19744e-13
4.76064e-13
4.9738e-13
4.61853e-13
4.33431e-13
4.1922e-13
4.54747e-13
3.83693e-13
3.19744e-13
2.84217e-13
2.62901e-13
1.7053e-13
9.9476e-14
6.39488e-14
1.20792e-13
1.7053e-13
2.20268e-13
2.34479e-13
2.34479e-13
1.77636e-13
2.70006e-13
2.98428e-13
3.05533e-13
3.55271e-13
2.55795e-13
1.84741e-13
2.77112e-13
3.05533e-13
3.83693e-13
4.68958e-13
4.61853e-13
4.68958e-13
4.40536e-13
4.61853e-13
4.05009e-13
3.62377e-13
3.19744e-13
3.2685e-13
2.70006e-13
2.06057e-13
9.9476e-14
8.52651e-14
-3.55271e-14
-2.13163e-14
2.84217e-14
-7.10543e-15
4.9738e-14
7.10543e-15
1.42109e-14
9.23706e-14
1.42109e-14
-4.26326e-14
-6.39488e-14
-1.42109e-14
2.84217e-14
6.39488e-14
1.27898e-13
5.68434e-14
-1.42109e-14
-7.10543e-15
0
4.26326e-14
9.9476e-14
2.84217e-14
-2.84217e-14
0
2.13163e-14
-2.84217e-14
-1.42109e-14
1.42109e-14
9.9476e-14
1.7053e-13
2.62901e-13
2.77112e-13
3.97904e-13
3.33955e-13
3.90799e-13
3.55271e-13
3.19744e-13
2.4869e-13
2.62901e-13
3.19744e-13
3.55271e-13
4.05009e-13
3.41061e-13
1.7053e-13
1.35003e-13
1.98952e-13
2.27374e-13
1.84741e-13
1.7053e-13
2.4869e-13
3.41061e-13
3.69482e-13
3.33955e-13
3.2685e-13
2.70006e-13
3.2685e-13
3.69482e-13
2.4869e-13
)
;

boundaryField
{
    sides
    {
        type            calculated;
        value           nonuniform List<scalar> 2(2.18279e-13 2.28174e-11);
    }
    empty
    {
        type            empty;
        value           nonuniform 0();
    }
}


// ************************************************************************* //
