/*--------------------------------*- C++ -*----------------------------------*\
  =========                 |
  \\      /  F ield         | OpenFOAM: The Open Source CFD Toolbox
   \\    /   O peration     | Website:  https://openfoam.org
    \\  /    A nd           | Version:  7
     \\/     M anipulation  |
\*---------------------------------------------------------------------------*/
FoamFile
{
    version     2.0;
    format      ascii;
    class       volScalarField;
    location    "0.003";
    object      rho;
}
// * * * * * * * * * * * * * * * * * * * * * * * * * * * * * * * * * * * * * //

dimensions      [1 -3 0 0 0 0 0];

internalField   nonuniform List<scalar> 
1000
(
9.97574
9.97574
9.97574
9.97574
9.97574
9.97574
9.97574
9.97574
9.97574
9.97574
9.97574
9.97574
9.97574
9.97574
9.97574
9.97574
9.97574
9.97574
9.97574
9.97574
9.97574
9.97574
9.97574
9.97574
9.97574
9.97574
9.97574
9.97574
9.97574
9.97574
9.97574
9.97574
9.97574
9.97574
9.97574
9.97574
9.97574
9.97574
9.97574
9.97574
9.97574
9.97574
9.97574
9.97574
9.97574
9.97574
9.97574
9.97574
9.97574
9.97574
9.97574
9.97574
9.97574
9.97574
9.97574
9.97574
9.97574
9.97574
9.97574
9.97574
9.97574
9.97574
9.97574
9.97574
9.97574
9.97574
9.97574
9.97574
9.97574
9.97574
9.97574
9.97574
9.97574
9.97574
9.97574
9.97574
9.97574
9.97574
9.97574
9.97574
9.97574
9.97574
9.97574
9.97574
9.97574
9.97574
9.97574
9.97574
9.97574
9.97574
9.97574
9.97574
9.97574
9.97574
9.97574
9.97574
9.97574
9.97574
9.97574
9.97574
9.97574
9.97574
9.97574
9.97574
9.97574
9.97574
9.97574
9.97574
9.97574
9.97574
9.97574
9.97574
9.97574
9.97574
9.97574
9.97574
9.97574
9.97574
9.97574
9.97574
9.97574
9.97574
9.97574
9.97574
9.97574
9.97574
9.97574
9.97574
9.97574
9.97574
9.97574
9.97574
9.97574
9.97574
9.97574
9.97574
9.97574
9.97574
9.97574
9.97574
9.97574
9.97574
9.97574
9.97574
9.97574
9.97574
9.97574
9.97574
9.97574
9.97574
9.97574
9.97574
9.97574
9.97574
9.97574
9.97574
9.97574
9.97574
9.97574
9.97574
9.97574
9.97574
9.97574
9.97574
9.97574
9.97574
9.97574
9.97574
9.97574
9.97574
9.97574
9.97574
9.97574
9.97574
9.97574
9.97574
9.97574
9.97574
9.97574
9.97574
9.97574
9.97574
9.97574
9.97574
9.97574
9.97574
9.97574
9.97574
9.97574
9.97574
9.97574
9.97574
9.97574
9.97574
9.97574
9.97574
9.97574
9.97574
9.97574
9.97574
9.97574
9.97574
9.97574
9.97574
9.97574
9.97574
9.97574
9.97574
9.97574
9.97574
9.97574
9.97574
9.97574
9.97574
9.97574
9.97574
9.97574
9.97574
9.97574
9.97574
9.97574
9.97574
9.97574
9.97574
9.97574
9.97574
9.97574
9.97574
9.97574
9.97574
9.97574
9.97574
9.97574
9.97574
9.97574
9.97574
9.97574
9.97574
9.97574
9.97574
9.97574
9.97574
9.97574
9.97574
9.97574
9.97574
9.97574
9.97574
9.97574
9.97574
9.97574
9.97574
9.97574
9.97574
9.97574
9.97574
9.97574
9.97574
9.97574
9.97574
9.97574
9.97574
9.97574
9.97574
9.97574
9.97574
9.97574
9.97574
9.97574
9.97574
9.97574
9.97574
9.97574
9.97574
9.97574
9.97574
9.97574
9.97574
9.97574
9.97574
9.97574
9.97574
9.97574
9.97574
9.97574
9.97574
9.97574
9.97574
9.97574
9.97574
9.97574
9.97574
9.97574
9.97574
9.97574
9.97574
9.97574
9.97574
9.97574
9.97574
9.97574
9.97574
9.97574
9.97574
9.97574
9.97574
9.97574
9.97574
9.97574
9.97574
9.97574
9.97574
9.97574
9.97574
9.97574
9.97574
9.97574
9.97574
9.97574
9.97574
9.97574
9.97574
9.97574
9.97574
9.97574
9.97574
9.97574
9.97574
9.97574
9.97574
9.97574
9.97574
9.97574
9.97574
9.97574
9.97574
9.97574
9.97574
9.97574
9.97574
9.97574
9.97574
9.97574
9.97574
9.97574
9.97574
9.97574
9.97574
9.97574
9.97574
9.97574
9.97574
9.97574
9.97574
9.97573
9.97572
9.97571
9.97569
9.97566
9.97562
9.97555
9.97544
9.97528
9.97504
9.9747
9.9742
9.97349
9.9725
9.97113
9.96925
9.96674
9.96341
9.95908
9.95352
9.9465
9.93778
9.92709
9.91421
9.89892
9.88102
9.86036
9.83686
9.81044
9.78112
9.74893
9.71397
9.67636
9.63625
9.59382
9.54925
9.50274
9.45446
9.40461
9.35335
9.30085
9.24725
9.19271
9.13733
9.08124
9.02453
8.9673
8.90962
8.85157
8.7932
8.73459
8.67578
8.6168
8.55771
8.49854
8.43933
8.38009
8.32087
8.26169
8.20256
8.14351
8.08456
8.02572
7.96702
7.90847
7.85008
7.79187
7.73385
7.67603
7.61841
7.56102
7.50386
7.44693
7.39024
7.33381
7.27764
7.22172
7.16608
7.11071
7.05561
7.0008
6.94627
6.89203
6.83807
6.78441
6.73105
6.67797
6.62523
6.57268
6.52069
6.46843
6.41763
6.36495
6.3164
6.26203
6.21686
6.1604
6.11758
6.06192
6.01722
5.9664
5.91774
5.8706
5.82216
5.77382
5.72806
5.67981
5.63346
5.58723
5.54127
5.49483
5.44999
5.40455
5.35969
5.31483
5.27096
5.22666
5.18305
5.13945
5.09661
5.05355
5.0111
4.96868
4.9269
4.88508
4.84375
4.80251
4.76178
4.72117
4.68094
4.64086
4.60118
4.56171
4.52259
4.48365
4.44505
4.40666
4.36861
4.33078
4.29326
4.25595
4.21895
4.18219
4.14572
4.10949
4.07354
4.03782
4.00238
3.96718
3.93226
3.89757
3.86316
3.82897
3.79505
3.76136
3.72795
3.69476
3.66184
3.62914
3.5967
3.56449
3.53253
3.5008
3.46933
3.43808
3.40708
3.3763
3.34576
3.31545
3.28538
3.25554
3.22593
3.19655
3.1674
3.13847
3.10977
3.08129
3.05304
3.02501
2.99721
2.96963
2.94227
2.91513
2.88821
2.86151
2.83502
2.80875
2.7827
2.75687
2.73125
2.70585
2.68065
2.65568
2.63092
2.60638
2.58204
2.55792
2.53401
2.51031
2.48683
2.46356
2.4405
2.41766
2.39503
2.37262
2.35041
2.32842
2.30665
2.28509
2.26375
2.24263
2.22172
2.20104
2.18058
2.16035
2.14034
2.12056
2.101
2.08168
2.06259
2.04374
2.02513
2.00676
1.98864
1.97077
1.95315
1.93579
1.91869
1.90187
1.88531
1.86904
1.85304
1.83734
1.82192
1.80682
1.79201
1.77753
1.76336
1.74952
1.73602
1.72286
1.71005
1.69761
1.68552
1.67382
1.66249
1.65156
1.64101
1.63087
1.62113
1.6118
1.60287
1.59437
1.58627
1.57858
1.57131
1.56444
1.55797
1.55191
1.54623
1.54093
1.536
1.53142
1.5272
1.5233
1.5197
1.51635
1.51331
1.5105
1.50796
1.50558
1.50342
1.5014
1.49954
1.49778
1.49613
1.49457
1.49307
1.49165
1.49025
1.48892
1.48759
1.4863
1.48499
1.4837
1.48236
1.481
1.47954
1.47798
1.47625
1.4743
1.47207
1.46943
1.46633
1.46258
1.4581
1.45271
1.44625
1.43855
1.42943
1.41872
1.40622
1.3918
1.37528
1.35658
1.33556
1.31222
1.28653
1.25852
1.2283
1.19598
1.16178
1.12588
1.08863
1.05025
1.01117
0.971655
0.93213
0.892908
0.854368
0.816795
0.780501
0.745753
0.712769
0.681724
0.652749
0.625917
0.601253
0.578772
0.558424
0.540156
0.523862
0.509443
0.496765
0.485705
0.476112
0.467859
0.4608
0.45481
0.449754
0.445524
0.442003
0.439102
0.436721
0.434791
0.433231
0.431989
0.431003
0.430235
0.429637
0.429185
0.428842
0.428593
0.428411
0.428287
0.428203
0.428154
0.428127
0.428121
0.428122
0.428139
0.428148
0.428183
0.428187
0.428234
0.428237
0.42829
0.428294
0.428341
0.428356
0.428402
0.428407
0.428443
0.428448
0.428478
0.428481
0.428506
0.428507
0.428526
0.428533
0.428544
0.428541
0.428554
0.428526
0.428532
0.428452
0.428471
0.428314
0.428121
0.427732
0.426918
0.425691
0.42243
0.416838
0.405124
0.384424
0.349145
0.295588
0.22828
0.169146
0.137254
0.127077
0.125062
0.124751
0.124705
0.124698
0.124697
0.124697
0.124697
0.124697
0.124697
0.124697
0.124697
0.124697
0.124697
0.124697
0.124697
0.124697
0.124697
0.124697
0.124697
0.124697
0.124697
0.124697
0.124697
0.124697
0.124697
0.124697
0.124697
0.124697
0.124697
0.124697
0.124697
0.124697
0.124697
0.124697
0.124697
0.124697
0.124697
0.124697
0.124697
0.124697
0.124697
0.124697
0.124697
0.124697
0.124697
0.124697
0.124697
0.124697
0.124697
0.124697
0.124697
0.124697
0.124697
0.124697
0.124697
0.124697
0.124697
0.124697
0.124697
0.124697
0.124697
0.124697
0.124697
0.124697
0.124697
0.124697
0.124697
0.124697
0.124697
0.124697
0.124697
0.124697
0.124697
0.124697
0.124697
0.124697
0.124697
0.124697
0.124697
0.124697
0.124697
0.124697
0.124697
0.124697
0.124697
0.124697
0.124697
0.124697
0.124697
0.124697
0.124697
0.124697
0.124697
0.124697
0.124697
0.124697
0.124697
0.124697
0.124697
0.124697
0.124697
0.124697
0.124697
0.124697
0.124697
0.124697
0.124697
0.124697
0.124697
0.124697
0.124697
0.124697
0.124697
0.124697
0.124697
0.124697
0.124697
0.124697
0.124697
0.124697
0.124697
0.124697
0.124697
0.124697
0.124697
0.124697
0.124697
0.124697
0.124697
0.124697
0.124697
0.124697
0.124697
0.124697
0.124697
0.124697
0.124697
0.124697
0.124697
0.124697
0.124697
0.124697
0.124697
0.124697
0.124697
0.124697
0.124697
0.124697
0.124697
0.124697
0.124697
0.124697
0.124697
0.124697
0.124697
0.124697
0.124697
0.124697
0.124697
0.124697
0.124697
0.124697
0.124697
0.124697
0.124697
0.124697
0.124697
0.124697
0.124697
0.124697
0.124697
0.124697
0.124697
0.124697
0.124697
0.124697
0.124697
0.124697
0.124697
0.124697
0.124697
0.124697
0.124697
0.124697
0.124697
0.124697
0.124697
0.124697
0.124697
0.124697
0.124697
0.124697
0.124697
0.124697
0.124697
0.124697
0.124697
0.124697
0.124697
0.124697
0.124697
0.124697
0.124697
0.124697
0.124697
0.124697
0.124697
0.124697
0.124697
0.124697
0.124697
0.124697
0.124697
0.124697
0.124697
0.124697
0.124697
0.124697
0.124697
0.124697
0.124697
0.124697
0.124697
0.124697
0.124697
0.124697
0.124697
0.124697
0.124697
0.124697
0.124697
0.124697
0.124697
0.124697
0.124697
0.124697
0.124697
0.124697
0.124697
0.124697
0.124697
0.124697
0.124697
0.124697
)
;

boundaryField
{
    sides
    {
        type            calculated;
        value           nonuniform List<scalar> 2(0.124697 9.97574);
    }
    empty
    {
        type            empty;
    }
}


// ************************************************************************* //
