/*--------------------------------*- C++ -*----------------------------------*\
  =========                 |
  \\      /  F ield         | OpenFOAM: The Open Source CFD Toolbox
   \\    /   O peration     | Website:  https://openfoam.org
    \\  /    A nd           | Version:  7
     \\/     M anipulation  |
\*---------------------------------------------------------------------------*/
FoamFile
{
    version     2.0;
    format      ascii;
    class       volScalarField;
    location    "0.003";
    object      T;
}
// * * * * * * * * * * * * * * * * * * * * * * * * * * * * * * * * * * * * * //

dimensions      [0 0 0 1 0 0 0];

internalField   nonuniform List<scalar> 
1000
(
348.432
348.432
348.432
348.432
348.432
348.432
348.432
348.432
348.432
348.432
348.432
348.432
348.432
348.432
348.432
348.432
348.432
348.432
348.432
348.432
348.432
348.432
348.432
348.432
348.432
348.432
348.432
348.432
348.432
348.432
348.432
348.432
348.432
348.432
348.432
348.432
348.432
348.432
348.432
348.432
348.432
348.432
348.432
348.432
348.432
348.432
348.432
348.432
348.432
348.432
348.432
348.432
348.432
348.432
348.432
348.432
348.432
348.432
348.432
348.432
348.432
348.432
348.432
348.432
348.432
348.432
348.432
348.432
348.432
348.432
348.432
348.432
348.432
348.432
348.432
348.432
348.432
348.432
348.432
348.432
348.432
348.432
348.432
348.432
348.432
348.432
348.432
348.432
348.432
348.432
348.432
348.432
348.432
348.432
348.432
348.432
348.432
348.432
348.432
348.432
348.432
348.432
348.432
348.432
348.432
348.432
348.432
348.432
348.432
348.432
348.432
348.432
348.432
348.432
348.432
348.432
348.432
348.432
348.432
348.432
348.432
348.432
348.432
348.432
348.432
348.432
348.432
348.432
348.432
348.432
348.432
348.432
348.432
348.432
348.432
348.432
348.432
348.432
348.432
348.432
348.432
348.432
348.432
348.432
348.432
348.432
348.432
348.432
348.432
348.432
348.432
348.432
348.432
348.432
348.432
348.432
348.432
348.432
348.432
348.432
348.432
348.432
348.432
348.432
348.432
348.432
348.432
348.432
348.432
348.432
348.432
348.432
348.432
348.432
348.432
348.432
348.432
348.432
348.432
348.432
348.432
348.432
348.432
348.432
348.432
348.432
348.432
348.432
348.432
348.432
348.432
348.432
348.432
348.432
348.432
348.432
348.432
348.432
348.432
348.432
348.432
348.432
348.432
348.432
348.432
348.432
348.432
348.432
348.432
348.432
348.432
348.432
348.432
348.432
348.432
348.432
348.432
348.432
348.432
348.432
348.432
348.432
348.432
348.432
348.432
348.432
348.432
348.432
348.432
348.432
348.432
348.432
348.432
348.432
348.432
348.432
348.432
348.432
348.432
348.432
348.432
348.432
348.432
348.432
348.432
348.432
348.432
348.432
348.432
348.432
348.432
348.432
348.432
348.432
348.432
348.432
348.432
348.432
348.432
348.432
348.432
348.432
348.432
348.432
348.432
348.432
348.432
348.432
348.432
348.432
348.432
348.432
348.432
348.432
348.432
348.432
348.432
348.432
348.432
348.432
348.432
348.432
348.432
348.432
348.432
348.432
348.432
348.432
348.432
348.432
348.432
348.432
348.432
348.432
348.432
348.432
348.432
348.432
348.432
348.432
348.432
348.432
348.432
348.432
348.432
348.432
348.432
348.432
348.432
348.432
348.432
348.432
348.432
348.432
348.432
348.432
348.432
348.432
348.432
348.432
348.432
348.432
348.432
348.432
348.432
348.432
348.432
348.432
348.432
348.432
348.432
348.432
348.432
348.432
348.432
348.432
348.432
348.432
348.432
348.432
348.432
348.432
348.432
348.432
348.432
348.432
348.432
348.432
348.432
348.432
348.432
348.432
348.432
348.432
348.432
348.432
348.432
348.431
348.431
348.43
348.429
348.428
348.426
348.422
348.417
348.41
348.4
348.387
348.367
348.341
348.306
348.259
348.199
348.121
348.022
347.9
347.75
347.569
347.354
347.102
346.811
346.48
346.107
345.692
345.236
344.74
344.205
343.633
343.026
342.388
341.719
341.024
340.303
339.56
338.796
338.014
337.215
336.401
335.573
334.733
333.882
333.022
332.152
331.274
330.389
329.497
328.6
327.696
326.788
325.875
324.958
324.037
323.113
322.185
321.255
320.322
319.387
318.45
317.512
316.571
315.629
314.686
313.742
312.797
311.852
310.905
309.959
309.012
308.065
307.118
306.17
305.223
304.276
303.33
302.384
301.438
300.493
299.548
298.604
297.661
296.719
295.775
294.838
293.89
292.968
291.995
291.123
290.076
289.313
288.138
287.505
286.25
285.613
284.475
283.641
282.722
281.745
280.846
279.959
278.963
278.103
277.168
276.243
275.32
274.438
273.492
272.592
271.68
270.784
269.855
268.964
268.054
267.161
266.244
265.355
264.452
263.563
262.658
261.771
260.875
259.992
259.097
258.213
257.325
256.445
255.561
254.682
253.8
252.926
252.049
251.178
250.304
249.434
248.564
247.699
246.833
245.971
245.108
244.249
243.39
242.534
241.679
240.827
239.975
239.126
238.278
237.433
236.589
235.748
234.907
234.069
233.232
232.398
231.564
230.734
229.905
229.078
228.253
227.43
226.608
225.789
224.972
224.157
223.343
222.532
221.723
220.916
220.11
219.307
218.506
217.707
216.911
216.116
215.324
214.534
213.746
212.96
212.177
211.395
210.617
209.84
209.067
208.295
207.526
206.76
205.996
205.234
204.476
203.72
202.967
202.217
201.469
200.725
199.984
199.245
198.51
197.777
197.049
196.323
195.602
194.883
194.169
193.458
192.752
192.049
191.351
190.657
189.967
189.282
188.602
187.927
187.258
186.593
185.935
185.282
184.636
183.996
183.363
182.737
182.118
181.507
180.904
180.309
179.724
179.147
178.58
178.022
177.476
176.941
176.417
175.905
175.407
174.921
174.449
173.991
173.548
173.12
172.709
172.313
171.934
171.573
171.229
170.903
170.596
170.308
170.039
169.789
169.559
169.349
169.157
168.985
168.832
168.697
168.58
168.48
168.398
168.331
168.28
168.241
168.218
168.215
168.219
168.23
168.253
168.292
168.337
168.395
168.46
168.536
168.619
168.709
168.808
168.913
169.025
169.141
169.265
169.392
169.527
169.664
169.812
169.966
170.134
170.316
170.518
170.749
171.014
171.329
171.7
172.148
172.684
173.334
174.115
175.055
176.18
177.516
179.102
180.963
183.144
185.674
188.601
191.96
195.799
200.16
205.09
210.636
216.84
223.758
231.418
239.88
249.155
259.297
270.299
282.186
294.93
308.514
322.865
337.921
353.578
369.696
386.135
402.714
419.259
435.567
451.462
466.754
481.291
494.931
507.579
519.152
529.623
538.974
547.238
554.454
560.693
566.023
570.537
574.312
577.449
580.018
582.112
583.792
585.134
586.186
587.009
587.636
588.115
588.466
588.725
588.904
589.029
589.104
589.152
589.169
589.173
589.164
589.158
589.127
589.127
589.069
589.073
589.008
589.011
588.951
588.954
588.898
588.899
588.857
588.857
588.821
588.822
588.794
588.795
588.769
588.769
588.753
588.753
588.727
588.73
588.676
588.693
588.564
588.617
588.364
588.594
587.209
586.732
583.538
578.615
569.274
549.092
516.049
457.484
382.713
318.457
287.662
280.254
278.992
278.785
278.752
278.747
278.746
278.746
278.746
278.746
278.746
278.746
278.746
278.746
278.746
278.746
278.746
278.746
278.746
278.746
278.746
278.746
278.746
278.746
278.746
278.746
278.746
278.746
278.746
278.746
278.746
278.746
278.746
278.746
278.746
278.746
278.746
278.746
278.746
278.746
278.746
278.746
278.746
278.746
278.746
278.746
278.746
278.746
278.746
278.746
278.746
278.746
278.746
278.746
278.746
278.746
278.746
278.746
278.746
278.746
278.746
278.746
278.746
278.746
278.746
278.746
278.746
278.746
278.746
278.746
278.746
278.746
278.746
278.746
278.746
278.746
278.746
278.746
278.746
278.746
278.746
278.746
278.746
278.746
278.746
278.746
278.746
278.746
278.746
278.746
278.746
278.746
278.746
278.746
278.746
278.746
278.746
278.746
278.746
278.746
278.746
278.746
278.746
278.746
278.746
278.746
278.746
278.746
278.746
278.746
278.746
278.746
278.746
278.746
278.746
278.746
278.746
278.746
278.746
278.746
278.746
278.746
278.746
278.746
278.746
278.746
278.746
278.746
278.746
278.746
278.746
278.746
278.746
278.746
278.746
278.746
278.746
278.746
278.746
278.746
278.746
278.746
278.746
278.746
278.746
278.746
278.746
278.746
278.746
278.746
278.746
278.746
278.746
278.746
278.746
278.746
278.746
278.746
278.746
278.746
278.746
278.746
278.746
278.746
278.746
278.746
278.746
278.746
278.746
278.746
278.746
278.746
278.746
278.746
278.746
278.746
278.746
278.746
278.746
278.746
278.746
278.746
278.746
278.746
278.746
278.746
278.746
278.746
278.746
278.746
278.746
278.746
278.746
278.746
278.746
278.746
278.746
278.746
278.746
278.746
278.746
278.746
278.746
278.746
278.746
278.746
278.746
278.746
278.746
278.746
278.746
278.746
278.746
278.746
278.746
278.746
278.746
278.746
278.746
278.746
278.746
278.746
278.746
278.746
278.746
278.746
278.746
278.746
278.746
278.746
278.746
278.746
278.746
278.746
278.746
278.746
278.746
278.746
278.746
278.746
278.746
278.746
278.746
278.746
278.746
278.746
)
;

boundaryField
{
    sides
    {
        type            zeroGradient;
    }
    empty
    {
        type            empty;
    }
}


// ************************************************************************* //
