/*--------------------------------*- C++ -*----------------------------------*\
  =========                 |
  \\      /  F ield         | OpenFOAM: The Open Source CFD Toolbox
   \\    /   O peration     | Website:  https://openfoam.org
    \\  /    A nd           | Version:  7
     \\/     M anipulation  |
\*---------------------------------------------------------------------------*/
FoamFile
{
    version     2.0;
    format      ascii;
    class       volVectorField;
    location    "0.003";
    object      U;
}
// * * * * * * * * * * * * * * * * * * * * * * * * * * * * * * * * * * * * * //

dimensions      [0 1 -1 0 0 0 0];

internalField   nonuniform List<vector> 
1000
(
(-5.71822e-13 0 0)
(-6.88521e-13 0 0)
(-6.41841e-13 0 0)
(-7.4687e-13 0 0)
(-5.71822e-13 0 0)
(-4.31784e-13 0 0)
(-3.50095e-13 0 0)
(-2.10057e-13 0 0)
(-2.10057e-13 0 0)
(-2.21727e-13 0 0)
(-2.33397e-13 0 0)
(-1.28368e-13 0 0)
(-3.15086e-13 0 0)
(-3.50095e-13 0 0)
(-4.20114e-13 0 0)
(-2.56736e-13 0 0)
(-2.56736e-13 0 0)
(-2.80076e-13 0 0)
(-3.03416e-13 0 0)
(-5.13473e-13 0 0)
(-2.21727e-13 0 0)
(-2.80076e-13 0 0)
(-1.16698e-14 0 0)
(-1.05029e-13 0 0)
(1.51708e-13 0 0)
(-1.86717e-13 0 0)
(-7.0019e-14 0 0)
(-3.38425e-13 0 0)
(-3.85105e-13 0 0)
(-5.83492e-13 0 0)
(-5.48482e-13 0 0)
(-5.48482e-13 0 0)
(-3.96775e-13 0 0)
(-3.26756e-13 0 0)
(-1.75048e-13 0 0)
(-3.03416e-13 0 0)
(-2.21727e-13 0 0)
(-2.80076e-13 0 0)
(-2.45067e-13 0 0)
(-2.80076e-13 0 0)
(-3.96775e-13 0 0)
(-5.01803e-13 0 0)
(-3.73435e-13 0 0)
(-5.48482e-13 0 0)
(-3.85105e-13 0 0)
(-4.55124e-13 0 0)
(-2.33397e-13 0 0)
(-2.56736e-13 0 0)
(-2.33397e-13 0 0)
(-7.0019e-14 0 0)
(-3.85105e-13 0 0)
(-1.63378e-13 0 0)
(-7.0019e-14 0 0)
(1.16698e-13 0 0)
(8.16889e-14 0 0)
(-1.28368e-13 0 0)
(3.50095e-14 0 0)
(-1.40038e-13 0 0)
(-1.86717e-13 0 0)
(-3.50095e-13 0 0)
(-1.98387e-13 0 0)
(-3.96775e-13 0 0)
(-4.66794e-13 0 0)
(-3.73435e-13 0 0)
(-4.43454e-13 0 0)
(-3.38425e-13 0 0)
(-1.28368e-13 0 0)
(-2.33397e-13 0 0)
(-1.16698e-13 0 0)
(-9.33587e-14 0 0)
(-1.05029e-13 0 0)
(-4.20114e-13 0 0)
(9.33587e-14 0 0)
(-5.83492e-14 0 0)
(1.40038e-13 0 0)
(-2.80076e-13 0 0)
(-2.33397e-13 0 0)
(-3.73435e-13 0 0)
(-3.85105e-13 0 0)
(-1.75048e-13 0 0)
(-1.98387e-13 0 0)
(-1.51708e-13 0 0)
(-4.78463e-13 0 0)
(-2.45067e-13 0 0)
(-4.20114e-13 0 0)
(-1.63378e-13 0 0)
(-2.21727e-13 0 0)
(-9.33587e-14 0 0)
(-1.51708e-13 0 0)
(-2.10057e-13 0 0)
(1.16698e-14 0 0)
(2.56736e-13 0 0)
(1.16698e-14 0 0)
(2.68406e-13 0 0)
(1.16698e-14 0 0)
(1.28368e-13 0 0)
(1.28368e-13 0 0)
(-3.50095e-14 0 0)
(-1.16698e-13 0 0)
(-1.98387e-13 0 0)
(-2.45067e-13 0 0)
(1.51708e-13 0 0)
(9.33587e-14 0 0)
(2.91746e-13 0 0)
(-1.51708e-13 0 0)
(2.45067e-13 0 0)
(8.16889e-14 0 0)
(8.16889e-14 0 0)
(-2.21727e-13 0 0)
(-1.63378e-13 0 0)
(-1.63378e-13 0 0)
(-2.56736e-13 0 0)
(-2.10057e-13 0 0)
(-2.33397e-14 0 0)
(-5.83492e-14 0 0)
(-1.51708e-13 0 0)
(-2.56736e-13 0 0)
(-1.98387e-13 0 0)
(-1.05029e-13 0 0)
(-5.83492e-14 0 0)
(3.50095e-14 0 0)
(9.33587e-14 0 0)
(9.33587e-14 0 0)
(1.86717e-13 0 0)
(2.10057e-13 0 0)
(-2.21727e-13 0 0)
(-4.66794e-14 0 0)
(-1.51708e-13 0 0)
(1.28368e-13 0 0)
(-1.40038e-13 0 0)
(-7.0019e-14 0 0)
(-1.51708e-13 0 0)
(1.86717e-13 0 0)
(1.05029e-13 0 0)
(1.28368e-13 0 0)
(1.51708e-13 0 0)
(-1.51708e-13 0 0)
(1.51708e-13 0 0)
(1.40038e-13 0 0)
(9.33587e-14 0 0)
(-8.16889e-14 0 0)
(-5.83492e-14 0 0)
(-1.98387e-13 0 0)
(-2.91746e-13 0 0)
(-2.56736e-13 0 0)
(-3.50095e-14 0 0)
(-1.63378e-13 0 0)
(-1.75048e-13 0 0)
(-1.86717e-13 0 0)
(-1.16698e-13 0 0)
(-3.61765e-13 0 0)
(1.40038e-13 0 0)
(-2.21727e-13 0 0)
(1.75048e-13 0 0)
(-5.83492e-14 0 0)
(2.10057e-13 0 0)
(-2.68406e-13 0 0)
(-3.50095e-14 0 0)
(-3.03416e-13 0 0)
(-5.83492e-14 0 0)
(-1.05029e-13 0 0)
(-1.16698e-14 0 0)
(-9.33587e-14 0 0)
(-4.66794e-14 0 0)
(1.16698e-14 0 0)
(-8.16889e-14 0 0)
(-5.83492e-14 0 0)
(-1.16698e-14 0 0)
(-1.16698e-13 0 0)
(-9.33587e-14 0 0)
(-1.75048e-13 0 0)
(-2.33397e-14 0 0)
(-9.33587e-14 0 0)
(-2.68406e-13 0 0)
(-3.50095e-13 0 0)
(-4.20114e-13 0 0)
(-5.01803e-13 0 0)
(-4.66794e-13 0 0)
(-3.85105e-13 0 0)
(-4.55124e-13 0 0)
(-1.40038e-13 0 0)
(-2.21727e-13 0 0)
(1.86717e-13 0 0)
(-1.28368e-13 0 0)
(-6.71478e-27 0 0)
(9.33587e-14 0 0)
(1.98387e-13 0 0)
(5.83492e-14 0 0)
(1.98387e-13 0 0)
(2.33397e-14 0 0)
(3.50095e-14 0 0)
(-1.28368e-13 0 0)
(5.83492e-14 0 0)
(-1.40038e-13 0 0)
(-1.51708e-13 0 0)
(1.16698e-14 0 0)
(-2.68406e-13 0 0)
(-1.63378e-13 0 0)
(-3.96775e-13 0 0)
(-2.68406e-13 0 0)
(-4.43454e-13 0 0)
(-2.56736e-13 0 0)
(-4.55124e-13 0 0)
(-8.16889e-14 0 0)
(-2.33397e-13 0 0)
(1.05029e-13 0 0)
(-2.91746e-13 0 0)
(-4.66794e-14 0 0)
(-2.21727e-13 0 0)
(-2.33397e-14 0 0)
(-2.33397e-14 0 0)
(1.28368e-13 0 0)
(-1.16698e-14 0 0)
(2.80076e-13 0 0)
(5.83492e-14 0 0)
(1.51708e-13 0 0)
(8.16889e-14 0 0)
(1.86717e-13 0 0)
(1.05029e-13 0 0)
(1.86717e-13 0 0)
(3.03416e-13 0 0)
(1.75048e-13 0 0)
(1.28368e-13 0 0)
(2.33397e-13 0 0)
(2.91746e-13 0 0)
(1.63378e-13 0 0)
(3.61765e-13 0 0)
(2.56736e-13 0 0)
(2.10057e-13 0 0)
(8.16889e-14 0 0)
(-1.16698e-13 0 0)
(-1.63378e-13 0 0)
(3.50095e-14 0 0)
(-1.16698e-13 0 0)
(8.16889e-14 0 0)
(1.16698e-13 0 0)
(7.0019e-14 0 0)
(3.61765e-13 0 0)
(2.91746e-13 0 0)
(3.50095e-13 0 0)
(1.16698e-13 0 0)
(-2.58746e-27 0 0)
(2.96769e-27 0 0)
(1.16698e-13 0 0)
(1.05029e-13 0 0)
(1.75048e-13 0 0)
(1.63378e-13 0 0)
(1.86717e-13 0 0)
(1.40038e-13 0 0)
(1.05029e-13 0 0)
(4.66794e-14 0 0)
(-4.66794e-14 0 0)
(-3.50095e-14 0 0)
(-5.83492e-14 0 0)
(-1.40038e-13 0 0)
(-2.91746e-13 0 0)
(-2.80076e-13 0 0)
(-3.73435e-13 0 0)
(-1.98387e-13 0 0)
(-2.10057e-13 0 0)
(3.50095e-14 0 0)
(2.10057e-13 0 0)
(2.45067e-13 0 0)
(1.86717e-13 0 0)
(1.75048e-13 0 0)
(3.50095e-13 0 0)
(5.83492e-14 0 0)
(1.75048e-13 0 0)
(2.33397e-14 0 0)
(9.33587e-14 0 0)
(2.91746e-13 0 0)
(2.91746e-13 0 0)
(1.86717e-13 0 0)
(1.16698e-13 0 0)
(3.61765e-13 0 0)
(9.33587e-14 0 0)
(1.63378e-13 0 0)
(-1.05029e-13 0 0)
(1.4515e-28 0 0)
(1.16698e-13 0 0)
(-2.10057e-13 0 0)
(-1.51708e-13 0 0)
(-8.16889e-14 0 0)
(-1.16698e-14 0 0)
(-7.0019e-14 0 0)
(-1.51708e-13 0 0)
(-1.98387e-13 0 0)
(-2.21727e-13 0 0)
(-1.51708e-13 0 0)
(-7.0019e-14 0 0)
(-1.75048e-13 0 0)
(-2.21727e-13 0 0)
(-3.50095e-14 0 0)
(-1.86717e-13 0 0)
(-2.56736e-13 0 0)
(-1.98387e-13 0 0)
(-2.10057e-13 0 0)
(-1.05029e-13 0 0)
(-1.40038e-13 0 0)
(-2.33397e-14 0 0)
(-1.28368e-13 0 0)
(9.33587e-14 0 0)
(-9.33587e-14 0 0)
(4.66794e-14 0 0)
(-3.50095e-13 0 0)
(-2.91746e-13 0 0)
(-1.86717e-13 0 0)
(-1.75048e-13 0 0)
(-2.17726e-27 0 0)
(1.16698e-13 0 0)
(2.33397e-14 0 0)
(4.66794e-14 0 0)
(-1.16698e-13 0 0)
(-2.33397e-13 0 0)
(-1.05029e-13 0 0)
(-2.33397e-14 0 0)
(4.66794e-14 0 0)
(1.51708e-13 0 0)
(1.75048e-13 0 0)
(4.08444e-13 0 0)
(1.28368e-13 0 0)
(3.15086e-13 0 0)
(3.96775e-13 0 0)
(1.27201e-12 0 0)
(2.42733e-12 0 0)
(5.44982e-12 0 0)
(1.15765e-11 0 0)
(2.40866e-11 0 0)
(4.96902e-11 0 0)
(1.01539e-10 0 0)
(2.05331e-10 0 0)
(4.12471e-10 0 0)
(8.21895e-10 0 0)
(1.62632e-09 0 0)
(3.1939e-09 0 0)
(6.22682e-09 0 0)
(1.20514e-08 0 0)
(2.31505e-08 0 0)
(4.41375e-08 0 0)
(8.35081e-08 0 0)
(1.56777e-07 0 0)
(2.92024e-07 0 0)
(5.39622e-07 0 0)
(9.8911e-07 0 0)
(1.79817e-06 0 0)
(3.24187e-06 0 0)
(5.79538e-06 0 0)
(1.02715e-05 0 0)
(1.80464e-05 0 0)
(3.14262e-05 0 0)
(5.42345e-05 0 0)
(9.2742e-05 0 0)
(0.000157118 0 0)
(0.000263667 0 0)
(0.00043822 0 0)
(0.000721212 0 0)
(0.00117514 0 0)
(0.00189536 0 0)
(0.00302544 0 0)
(0.00477852 0 0)
(0.00746654 0 0)
(0.0115392 0 0)
(0.0176346 0 0)
(0.026644 0 0)
(0.0397904 0 0)
(0.0587224 0 0)
(0.0856211 0 0)
(0.123314 0 0)
(0.175393 0 0)
(0.246314 0 0)
(0.341483 0 0)
(0.467292 0 0)
(0.631098 0 0)
(0.841129 0 0)
(1.10631 0 0)
(1.43599 0 0)
(1.83965 0 0)
(2.32645 0 0)
(2.9049 0 0)
(3.58241 0 0)
(4.36504 0 0)
(5.25714 0 0)
(6.26134 0 0)
(7.37842 0 0)
(8.60745 0 0)
(9.9459 0 0)
(11.3899 0 0)
(12.9346 0 0)
(14.5744 0 0)
(16.3029 0 0)
(18.1141 0 0)
(20.0014 0 0)
(21.9586 0 0)
(23.9799 0 0)
(26.0596 0 0)
(28.1925 0 0)
(30.3738 0 0)
(32.5992 0 0)
(34.8647 0 0)
(37.1668 0 0)
(39.5023 0 0)
(41.8684 0 0)
(44.2625 0 0)
(46.6823 0 0)
(49.1259 0 0)
(51.5913 0 0)
(54.0771 0 0)
(56.5816 0 0)
(59.1036 0 0)
(61.6419 0 0)
(64.1954 0 0)
(66.763 0 0)
(69.3438 0 0)
(71.937 0 0)
(74.5417 0 0)
(77.1573 0 0)
(79.7829 0 0)
(82.418 0 0)
(85.0619 0 0)
(87.7141 0 0)
(90.374 0 0)
(93.0412 0 0)
(95.7152 0 0)
(98.3954 0 0)
(101.082 0 0)
(103.773 0 0)
(106.47 0 0)
(109.172 0 0)
(111.878 0 0)
(114.589 0 0)
(117.303 0 0)
(120.021 0 0)
(122.743 0 0)
(125.468 0 0)
(128.196 0 0)
(130.927 0 0)
(133.66 0 0)
(136.396 0 0)
(139.135 0 0)
(141.875 0 0)
(144.618 0 0)
(147.362 0 0)
(150.109 0 0)
(152.856 0 0)
(155.606 0 0)
(158.357 0 0)
(161.11 0 0)
(163.863 0 0)
(166.619 0 0)
(169.373 0 0)
(172.131 0 0)
(174.887 0 0)
(177.647 0 0)
(180.406 0 0)
(183.166 0 0)
(185.927 0 0)
(188.689 0 0)
(191.451 0 0)
(194.214 0 0)
(196.977 0 0)
(199.741 0 0)
(202.505 0 0)
(205.269 0 0)
(208.034 0 0)
(210.799 0 0)
(213.564 0 0)
(216.329 0 0)
(219.095 0 0)
(221.861 0 0)
(224.626 0 0)
(227.392 0 0)
(230.158 0 0)
(232.923 0 0)
(235.689 0 0)
(238.454 0 0)
(241.22 0 0)
(243.985 0 0)
(246.75 0 0)
(249.515 0 0)
(252.28 0 0)
(255.045 0 0)
(257.809 0 0)
(260.573 0 0)
(263.337 0 0)
(266.1 0 0)
(268.863 0 0)
(271.626 0 0)
(274.388 0 0)
(277.15 0 0)
(279.912 0 0)
(282.673 0 0)
(285.433 0 0)
(288.193 0 0)
(290.953 0 0)
(293.712 0 0)
(296.47 0 0)
(299.228 0 0)
(301.986 0 0)
(304.742 0 0)
(307.499 0 0)
(310.254 0 0)
(313.009 0 0)
(315.763 0 0)
(318.516 0 0)
(321.269 0 0)
(324.021 0 0)
(326.772 0 0)
(329.522 0 0)
(332.271 0 0)
(335.02 0 0)
(337.768 0 0)
(340.514 0 0)
(343.26 0 0)
(346.005 0 0)
(348.749 0 0)
(351.492 0 0)
(354.234 0 0)
(356.974 0 0)
(359.714 0 0)
(362.452 0 0)
(365.189 0 0)
(367.925 0 0)
(370.66 0 0)
(373.393 0 0)
(376.125 0 0)
(378.856 0 0)
(381.585 0 0)
(384.312 0 0)
(387.038 0 0)
(389.763 0 0)
(392.485 0 0)
(395.206 0 0)
(397.925 0 0)
(400.643 0 0)
(403.358 0 0)
(406.071 0 0)
(408.782 0 0)
(411.491 0 0)
(414.198 0 0)
(416.902 0 0)
(419.604 0 0)
(422.303 0 0)
(425 0 0)
(427.694 0 0)
(430.384 0 0)
(433.072 0 0)
(435.757 0 0)
(438.438 0 0)
(441.115 0 0)
(443.789 0 0)
(446.459 0 0)
(449.125 0 0)
(451.787 0 0)
(454.444 0 0)
(457.096 0 0)
(459.744 0 0)
(462.386 0 0)
(465.023 0 0)
(467.654 0 0)
(470.279 0 0)
(472.897 0 0)
(475.509 0 0)
(478.114 0 0)
(480.71 0 0)
(483.299 0 0)
(485.88 0 0)
(488.451 0 0)
(491.014 0 0)
(493.566 0 0)
(496.107 0 0)
(498.637 0 0)
(501.156 0 0)
(503.662 0 0)
(506.154 0 0)
(508.632 0 0)
(511.096 0 0)
(513.543 0 0)
(515.974 0 0)
(518.386 0 0)
(520.78 0 0)
(523.154 0 0)
(525.506 0 0)
(527.836 0 0)
(530.142 0 0)
(532.423 0 0)
(534.676 0 0)
(536.902 0 0)
(539.098 0 0)
(541.261 0 0)
(543.392 0 0)
(545.487 0 0)
(547.545 0 0)
(549.565 0 0)
(551.543 0 0)
(553.478 0 0)
(555.368 0 0)
(557.211 0 0)
(559.005 0 0)
(560.747 0 0)
(562.436 0 0)
(564.07 0 0)
(565.647 0 0)
(567.166 0 0)
(568.623 0 0)
(570.019 0 0)
(571.352 0 0)
(572.621 0 0)
(573.824 0 0)
(574.963 0 0)
(576.035 0 0)
(577.041 0 0)
(577.982 0 0)
(578.858 0 0)
(579.67 0 0)
(580.42 0 0)
(581.109 0 0)
(581.738 0 0)
(582.312 0 0)
(582.83 0 0)
(583.297 0 0)
(583.717 0 0)
(584.092 0 0)
(584.424 0 0)
(584.714 0 0)
(584.968 0 0)
(585.189 0 0)
(585.38 0 0)
(585.544 0 0)
(585.684 0 0)
(585.802 0 0)
(585.902 0 0)
(585.985 0 0)
(586.054 0 0)
(586.11 0 0)
(586.156 0 0)
(586.193 0 0)
(586.222 0 0)
(586.245 0 0)
(586.263 0 0)
(586.276 0 0)
(586.286 0 0)
(586.294 0 0)
(586.299 0 0)
(586.303 0 0)
(586.304 0 0)
(586.305 0 0)
(586.305 0 0)
(586.304 0 0)
(586.303 0 0)
(586.302 0 0)
(586.301 0 0)
(586.3 0 0)
(586.298 0 0)
(586.297 0 0)
(586.295 0 0)
(586.293 0 0)
(586.29 0 0)
(586.287 0 0)
(586.283 0 0)
(586.278 0 0)
(586.272 0 0)
(586.265 0 0)
(586.257 0 0)
(586.247 0 0)
(586.236 0 0)
(586.225 0 0)
(586.212 0 0)
(586.198 0 0)
(586.185 0 0)
(586.171 0 0)
(586.159 0 0)
(586.146 0 0)
(586.137 0 0)
(586.133 0 0)
(586.133 0 0)
(586.136 0 0)
(586.138 0 0)
(586.142 0 0)
(586.148 0 0)
(586.158 0 0)
(586.173 0 0)
(586.192 0 0)
(586.213 0 0)
(586.236 0 0)
(586.259 0 0)
(586.283 0 0)
(586.306 0 0)
(586.327 0 0)
(586.346 0 0)
(586.363 0 0)
(586.377 0 0)
(586.388 0 0)
(586.397 0 0)
(586.407 0 0)
(586.415 0 0)
(586.422 0 0)
(586.429 0 0)
(586.435 0 0)
(586.441 0 0)
(586.446 0 0)
(586.452 0 0)
(586.457 0 0)
(586.462 0 0)
(586.467 0 0)
(586.472 0 0)
(586.477 0 0)
(586.482 0 0)
(586.488 0 0)
(586.493 0 0)
(586.499 0 0)
(586.504 0 0)
(586.509 0 0)
(586.515 0 0)
(586.52 0 0)
(586.526 0 0)
(586.533 0 0)
(586.54 0 0)
(586.549 0 0)
(586.556 0 0)
(586.563 0 0)
(586.569 0 0)
(586.574 0 0)
(586.575 0 0)
(586.577 0 0)
(586.583 0 0)
(586.588 0 0)
(586.593 0 0)
(586.598 0 0)
(586.603 0 0)
(586.606 0 0)
(586.61 0 0)
(586.613 0 0)
(586.614 0 0)
(586.611 0 0)
(586.607 0 0)
(586.598 0 0)
(586.588 0 0)
(586.578 0 0)
(586.551 0 0)
(586.528 0 0)
(586.436 0 0)
(586.378 0 0)
(586.129 0 0)
(585.853 0 0)
(585.085 0 0)
(583.636 0 0)
(580.83 0 0)
(574.855 0 0)
(563.27 0 0)
(540.075 0 0)
(495.905 0 0)
(415.182 0 0)
(283.709 0 0)
(130.245 0 0)
(35.939 0 0)
(7.26684 0 0)
(1.2345 0 0)
(0.189154 0 0)
(0.0283206 0 0)
(0.00423465 0 0)
(0.000633877 0 0)
(9.49475e-05 0 0)
(1.42261e-05 0 0)
(2.13176e-06 0 0)
(3.19455e-07 0 0)
(4.78725e-08 0 0)
(7.17415e-09 0 0)
(1.07476e-09 0 0)
(1.60957e-10 0 0)
(2.37336e-11 0 0)
(3.09251e-12 0 0)
(-2.62572e-13 0 0)
(-6.27255e-13 0 0)
(-8.60652e-13 0 0)
(-6.85604e-13 0 0)
(-6.71017e-13 0 0)
(-1.00653e-12 0 0)
(-7.29366e-13 0 0)
(-8.46065e-13 0 0)
(-5.9808e-13 0 0)
(-6.12667e-13 0 0)
(-3.20921e-13 0 0)
(-4.23032e-13 0 0)
(4.3762e-14 0 0)
(-3.06334e-13 0 0)
(-3.06334e-13 0 0)
(-2.62572e-13 0 0)
(-3.50096e-13 0 0)
(-5.68906e-13 0 0)
(-4.81382e-13 0 0)
(-5.83493e-13 0 0)
(-1.16699e-13 0 0)
(-2.77159e-13 0 0)
(2.91746e-14 0 0)
(5.83493e-14 0 0)
(-7.29366e-14 0 0)
(-8.75239e-14 0 0)
(1.47517e-26 0 0)
(1.60461e-13 0 0)
(-2.33397e-13 0 0)
(2.47984e-13 0 0)
(-2.91746e-14 0 0)
(1.45873e-13 0 0)
(1.75048e-13 0 0)
(1.45873e-14 0 0)
(1.60461e-13 0 0)
(-1.31286e-13 0 0)
(-1.89635e-13 0 0)
(-2.33397e-13 0 0)
(-1.60461e-13 0 0)
(-2.62572e-13 0 0)
(-1.45873e-13 0 0)
(4.3762e-14 0 0)
(2.91746e-13 0 0)
(4.3762e-14 0 0)
(2.33397e-13 0 0)
(2.91746e-14 0 0)
(1.16699e-13 0 0)
(-4.3762e-14 0 0)
(-8.75239e-14 0 0)
(-3.64683e-13 0 0)
(-7.29366e-14 0 0)
(-3.64683e-13 0 0)
(-4.3762e-14 0 0)
(-2.04222e-13 0 0)
(3.06334e-13 0 0)
(1.60461e-13 0 0)
(4.81382e-13 0 0)
(4.3762e-14 0 0)
(1.02111e-13 0 0)
(1.45873e-14 0 0)
(2.81876e-27 0 0)
(-1.02111e-13 0 0)
(-2.91746e-14 0 0)
(-2.04222e-13 0 0)
(-3.35508e-13 0 0)
(-5.83493e-14 0 0)
(-2.77159e-13 0 0)
(-2.04222e-13 0 0)
(-3.35508e-13 0 0)
(-3.20921e-13 0 0)
(-2.91746e-13 0 0)
(5.83493e-14 0 0)
(-1.16699e-13 0 0)
(5.83493e-14 0 0)
(-1.31286e-13 0 0)
(1.45873e-14 0 0)
(-3.35508e-13 0 0)
(2.91746e-14 0 0)
(-2.1881e-13 0 0)
(1.89635e-13 0 0)
(2.1881e-13 0 0)
(4.66794e-13 0 0)
(3.20921e-13 0 0)
(4.81382e-13 0 0)
(4.66794e-13 0 0)
(3.93858e-13 0 0)
(6.41842e-13 0 0)
(5.39731e-13 0 0)
(4.95969e-13 0 0)
(3.7927e-13 0 0)
(2.33397e-13 0 0)
(3.06334e-13 0 0)
(6.27255e-13 0 0)
(6.41842e-13 0 0)
(7.73128e-13 0 0)
(5.54318e-13 0 0)
(6.27255e-13 0 0)
(3.64683e-13 0 0)
(3.7927e-13 0 0)
(2.1881e-13 0 0)
(2.47984e-13 0 0)
(-2.91746e-14 0 0)
(2.04222e-13 0 0)
(1.89635e-13 0 0)
(3.7927e-13 0 0)
(3.93858e-13 0 0)
(5.68906e-13 0 0)
(2.91746e-13 0 0)
(4.81382e-13 0 0)
(2.62572e-13 0 0)
(4.66794e-13 0 0)
(2.47984e-13 0 0)
(2.47984e-13 0 0)
(1.45873e-14 0 0)
(-2.77159e-13 0 0)
(-3.50096e-13 0 0)
(-2.1881e-13 0 0)
(-5.83493e-14 0 0)
(3.06334e-13 0 0)
(2.91746e-13 0 0)
(4.23032e-13 0 0)
(5.54318e-13 0 0)
(5.68906e-13 0 0)
(6.12667e-13 0 0)
(3.35508e-13 0 0)
(5.10556e-13 0 0)
(5.68906e-13 0 0)
(6.85604e-13 0 0)
(6.27255e-13 0 0)
(7.58541e-13 0 0)
(1.0357e-12 0 0)
(8.75239e-13 0 0)
(1.06487e-12 0 0)
(7.14779e-13 0 0)
(9.77351e-13 0 0)
(8.46065e-13 0 0)
(7.43953e-13 0 0)
(6.12667e-13 0 0)
(4.81382e-13 0 0)
(5.54318e-13 0 0)
(8.75239e-14 0 0)
(2.33397e-13 0 0)
(8.75239e-14 0 0)
(3.50096e-13 0 0)
(3.20921e-13 0 0)
(5.39731e-13 0 0)
(3.7927e-13 0 0)
(4.3762e-13 0 0)
(4.66794e-13 0 0)
(5.39731e-13 0 0)
(5.25144e-13 0 0)
(7.00191e-13 0 0)
(5.68906e-13 0 0)
(4.3762e-13 0 0)
(4.3762e-13 0 0)
(6.27255e-13 0 0)
(5.39731e-13 0 0)
(1.00653e-12 0 0)
(7.14779e-13 0 0)
(1.0357e-12 0 0)
(9.04414e-13 0 0)
(8.02303e-13 0 0)
(8.75239e-13 0 0)
(7.00191e-13 0 0)
(8.60652e-13 0 0)
(4.52207e-13 0 0)
(7.43953e-13 0 0)
(3.35508e-13 0 0)
(3.20921e-13 0 0)
(2.33397e-13 0 0)
(3.83702e-27 0 0)
(-1.75048e-13 0 0)
(1.16699e-13 0 0)
(-4.3762e-14 0 0)
(-1.45873e-14 0 0)
(2.04222e-13 0 0)
(-1.75048e-13 0 0)
(1.75048e-13 0 0)
(1.45873e-13 0 0)
(-5.83493e-14 0 0)
(-7.29366e-14 0 0)
(-1.31286e-13 0 0)
(1.45873e-13 0 0)
(-4.3762e-14 0 0)
(2.91746e-13 0 0)
(1.45873e-13 0 0)
(-2.0918e-27 0 0)
(-2.91746e-14 0 0)
(-4.3762e-14 0 0)
(7.29366e-14 0 0)
(1.31286e-13 0 0)
(2.04222e-13 0 0)
(-1.02111e-13 0 0)
(5.11182e-28 0 0)
(4.3762e-14 0 0)
(2.91746e-14 0 0)
(-1.31286e-13 0 0)
(5.83493e-14 0 0)
(1.45873e-14 0 0)
(3.50096e-13 0 0)
(3.20921e-13 0 0)
(6.71017e-13 0 0)
(5.68906e-13 0 0)
(8.02303e-13 0 0)
(6.41842e-13 0 0)
(8.1689e-13 0 0)
(5.68906e-13 0 0)
(6.85604e-13 0 0)
(4.08445e-13 0 0)
(5.83493e-13 0 0)
(7.43953e-13 0 0)
(7.87715e-13 0 0)
(7.58541e-13 0 0)
(4.23032e-13 0 0)
(3.50096e-13 0 0)
(2.77159e-13 0 0)
(5.54318e-13 0 0)
(4.52207e-13 0 0)
(2.62572e-13 0 0)
(5.10556e-13 0 0)
(5.10556e-13 0 0)
(8.46065e-13 0 0)
(6.41842e-13 0 0)
(7.14779e-13 0 0)
(5.54318e-13 0 0)
(5.9808e-13 0 0)
(7.14779e-13 0 0)
(7.00191e-13 0 0)
(4.08445e-13 0 0)
)
;

boundaryField
{
    sides
    {
        type            zeroGradient;
    }
    empty
    {
        type            empty;
    }
}


// ************************************************************************* //
