/*--------------------------------*- C++ -*----------------------------------*\
  =========                 |
  \\      /  F ield         | OpenFOAM: The Open Source CFD Toolbox
   \\    /   O peration     | Website:  https://openfoam.org
    \\  /    A nd           | Version:  7
     \\/     M anipulation  |
\*---------------------------------------------------------------------------*/
FoamFile
{
    version     2.0;
    format      ascii;
    class       volScalarField;
    location    "4";
    object      p;
}
// * * * * * * * * * * * * * * * * * * * * * * * * * * * * * * * * * * * * * //

dimensions      [1 -1 -2 0 0 0 0];

internalField   nonuniform List<scalar> 
19968
(
1
1
1
1
1
1
1
1
1
1
1
1
1
1
1
1
1
1
1
1
1
1
1
1
1
1
1
1
1
1
1
1
1
1
1
1
1
1
1
1
1
1
1
1
1
1
1
1
1.37303
7.67024
10.442
10.4745
10.5288
10.5753
10.6261
10.6838
10.7465
10.8071
10.8605
10.9073
10.9528
11.0023
11.0581
11.119
11.1789
11.2321
11.2764
11.3133
11.3466
11.381
11.42
11.4635
11.5077
11.5484
11.5839
11.6152
11.6448
11.6757
11.7101
11.7484
11.7899
11.8324
11.8728
11.9079
11.9352
11.9537
11.9638
11.9682
11.9706
11.9755
11.9858
12.0017
12.0207
12.039
12.0528
12.064
1
1
1
1
1
1
1
1
1
1
1
1
1
1
1
1
1
1
1
1
1
1
1
1
1
1
1
1
1
1
1
1
1
1
1
1
1
1
1
1
1
1
1
1
1
1
1
1
1.34447
7.5839
10.4284
10.4756
10.5277
10.5744
10.6248
10.6822
10.7447
10.8054
10.8589
10.9056
10.9507
10.9994
11.0544
11.1146
11.1741
11.2271
11.2715
11.3087
11.3424
11.3775
11.4173
11.4612
11.5055
11.5461
11.5812
11.6119
11.641
11.6713
11.7051
11.7432
11.7845
11.827
11.8673
11.9021
11.9291
11.9474
11.9577
11.9625
11.9655
11.9708
11.9812
11.9967
12.0152
12.0329
12.0465
12.0573
1
1
1
1
1
1
1
1
1
1
1
1
1
1
1
1
1
1
1
1
1
1
1
1
1
1
1
1
1
1
1
1
1
1
1
1
1
1
1
1
1
1
1
1
1
1
1
1
1.28536
7.41374
10.4233
10.4704
10.5222
10.569
10.6189
10.6759
10.7384
10.7995
10.8536
10.9007
10.9453
10.9931
11.0471
11.1063
11.1655
11.2187
11.2634
11.301
11.3351
11.3708
11.4111
11.4557
11.5006
11.5416
11.5768
11.6071
11.6353
11.6646
11.6975
11.7349
11.7759
11.8183
11.8584
11.8928
11.9192
11.937
11.9473
11.9525
11.956
11.9616
11.9717
11.9865
12.004
12.0211
12.0343
12.0447
1
1
1
1
1
1
1
1
1
1
1
1
1
1
1
1
1
1
1
1
1
1
1
1
1
1
1
1
1
1
1
1
1
1
1
1
1
1
1
1
1
1
1
1
1
1
1
1
1.20017
7.17511
10.4181
10.4655
10.5174
10.5655
10.615
10.6715
10.7332
10.7939
10.8477
10.8943
10.9377
10.9837
11.036
11.0939
11.1527
11.2064
11.2519
11.2902
11.3251
11.3611
11.402
11.4469
11.4926
11.5343
11.5697
11.5996
11.6268
11.6547
11.6863
11.7227
11.7631
11.8052
11.845
11.879
11.9051
11.9228
11.9335
11.9395
11.9439
11.9496
11.959
11.972
11.9875
12.0028
12.0147
12.024
1
1
1
1
1
1
1
1
1
1
1
1
1
1
1
1
1
1
1
1
1
1
1
1
1
1
1
1
1
1
1
1
1
1
1
1
1
1
1
1
1
1
1
1
1
1
1
1
1.03638
6.77727
10.4128
10.4685
10.5162
10.5642
10.6115
10.6663
10.7268
10.7871
10.8413
10.8877
10.9302
10.9742
11.0246
11.081
11.1393
11.1934
11.2396
11.2784
11.3133
11.3487
11.3889
11.433
11.4784
11.5203
11.5561
11.5857
11.6118
11.638
11.6677
11.7022
11.7412
11.7823
11.8215
11.855
11.8807
11.8987
11.9104
11.9181
11.9242
11.9313
11.9409
11.9532
11.9673
11.9812
11.9921
12.0005
1
1
1
1
1
1
1
1
1
1
1
1
1
1
1
1
1
1
1
1
1
1
1
1
1
1
1
1
1
1
1
1
1
1
1
1
1
1
1
1
1
1
1
1
1
1
1
1
1.00043
6.21084
10.3466
10.4349
10.4836
10.5355
10.5842
10.6402
10.7013
10.7627
10.8182
10.8658
10.908
10.9507
10.9995
11.054
11.1109
11.1645
11.211
11.2498
11.2848
11.3193
11.358
11.4005
11.4452
11.488
11.5254
11.5565
11.5833
11.6092
11.6375
11.6704
11.7078
11.7477
11.7862
11.8197
11.846
11.865
11.8782
11.8878
11.8957
11.904
11.9138
11.9252
11.9376
11.9497
11.9591
11.9662
1
1
1
1
1
1
1
1
1
1
1
1
1
1
1
1
1
1
1
1
1
1
1
1
1
1
1
1
1
1
1
1
1
1
1
1
1
1
1
1
1
1
1
1
1
1
1
1
1
5.4571
10.2392
10.4132
10.4656
10.5188
10.5678
10.6229
10.6825
10.7427
10.7981
10.846
10.888
10.9295
10.9766
11.0295
11.0849
11.1383
11.1852
11.2245
11.2597
11.2934
11.3305
11.3707
11.4139
11.4565
11.4948
11.5269
11.554
11.5793
11.6059
11.6361
11.6707
11.7081
11.7449
11.7776
11.8038
11.8234
11.8378
11.8488
11.8583
11.8677
11.878
11.8889
11.9001
11.9108
11.9188
11.9249
1
1
1
1
1
1
1
1
1
1
1
1
1
1
1
1
1
1
1
1
1
1
1
1
1
1
1
1
1
1
1
1
1
1
1
1
1
1
1
1
1
1
1
1
1
1
1
1
1
4.54995
10.0319
10.3778
10.4359
10.4925
10.544
10.599
10.6573
10.7158
10.7709
10.8196
10.8622
10.903
10.9487
10.9995
11.0525
11.1046
11.1512
11.1903
11.2255
11.2583
11.2934
11.3308
11.3715
11.4131
11.4521
11.4856
11.5137
11.5389
11.5641
11.5917
11.6233
11.6581
11.6933
11.7251
11.7514
11.7714
11.7864
11.7981
11.8082
11.8179
11.828
11.8381
11.8479
11.8571
11.8638
11.8691
1
1
1
1
1
1
1
1
1
1
1
1
1
1
1
1
1
1
1
1
1
1
1
1
1
1
1
1
1
1
1
1
1
1
1
1
1
1
1
1
1
1
1
1
1
1
1
1
1
3.55949
9.67343
10.342
10.4009
10.4648
10.52
10.5757
10.6327
10.6893
10.7431
10.7919
10.835
10.8752
10.9189
10.9672
11.0173
11.0669
11.1127
11.151
11.1855
11.2171
11.2496
11.2837
11.3206
11.3596
11.3977
11.4315
11.4598
11.4844
11.508
11.5329
11.5612
11.593
11.6259
11.6565
11.6824
11.7027
11.7181
11.7304
11.7413
11.7516
11.7622
11.7726
11.7825
11.7916
11.798
11.8035
1
1
1
1
1
1
1
1
1
1
1
1
1
1
1
1
1
1
1
1
1
1
1
1
1
1
1
1
1
1
1
1
1
1
1
1
1
1
1
1
1
1
1
1
1
1
1
1
1
2.48379
9.02579
10.3288
10.3776
10.4413
10.4929
10.5465
10.6012
10.6559
10.7086
10.7574
10.801
10.8409
10.8829
10.9288
10.9763
11.0233
11.0682
11.1064
11.1408
11.1717
11.2016
11.2329
11.2659
11.3018
11.3379
11.3708
11.3982
11.4214
11.4427
11.4646
11.4894
11.5178
11.5481
11.5769
11.6016
11.6211
11.6357
11.6468
11.6561
11.6648
11.6739
11.6833
11.6925
11.7014
11.7074
11.7129
1
1
1
1
1
1
1
1
1
1
1
1
1
1
1
1
1
1
1
1
1
1
1
1
1
1
1
1
1
1
1
1
1
1
1
1
1
1
1
1
1
1
1
1
1
1
1
1
1
1.53122
7.95019
10.392
10.364
10.4223
10.463
10.5098
10.5593
10.6105
10.6617
10.7102
10.7543
10.7943
10.8347
10.8787
10.9244
10.9692
11.0129
11.0513
11.0852
11.116
11.1436
11.1724
11.2017
11.2339
11.2668
11.2975
11.3232
11.3442
11.3627
11.381
11.4014
11.4251
11.4506
11.4753
11.4965
11.5131
11.5253
11.5344
11.5421
11.55
11.5591
11.5695
11.5802
11.5905
11.5976
11.6042
1
1
1
1
1
1
1
1
1
1
1
1
1
1
1
1
1
1
1
1
1
1
1
1
1
1
1
1
1
1
1
1
1
1
1
1
1
1
1
1
1
1
1
1
1
1
1
1
1
1.01409
6.21438
10.2677
10.3032
10.349
10.3953
10.4423
10.492
10.5439
10.5971
10.6481
10.6943
10.7351
10.7739
10.8146
10.857
10.8988
10.9399
10.9776
11.0102
11.0406
11.0673
11.0941
11.1206
11.1493
11.1787
11.2066
11.2302
11.2491
11.2652
11.2806
11.2974
11.3168
11.3381
11.359
11.3771
11.3909
11.4003
11.4059
11.4089
11.4114
11.4147
11.4195
11.4255
11.4322
11.4372
11.4426
1
1
1
1
1
1
1
1
1
1
1
1
1
1
1
1
1
1
1
1
1
1
1
1
1
1
1
1
1
1
1
1
1
1
1
1
1
1
1
1
1
1
1
1
1
1
1
1
1
1.00002
4.13158
9.79157
10.2138
10.2758
10.3354
10.3836
10.4307
10.477
10.5238
10.569
10.6105
10.6478
10.6828
10.7187
10.7573
10.7962
10.8346
10.8712
10.9031
10.9334
10.9615
10.9876
11.0131
11.0386
11.0645
11.0887
11.109
11.1247
11.1374
11.1489
11.1611
11.1748
11.1897
11.2035
11.2139
11.2199
11.2214
11.2184
11.2136
11.2099
11.2096
11.2143
11.2207
11.2288
11.2345
11.2407
1
1
1
1
1
1
1
1
1
1
1
1
1
1
1
1
1
1
1
1
1
1
1
1
1
1
1
1
1
1
1
1
1
1
1
1
1
1
1
1
1
1
1
1
1
1
1
1
1
1
2.07069
8.52432
10.1724
10.2095
10.2798
10.3302
10.3783
10.4239
10.4682
10.5107
10.5496
10.584
10.6149
10.645
10.6771
10.7106
10.7439
10.7761
10.8048
10.831
10.8564
10.8796
10.9014
10.9214
10.941
10.9587
10.9727
10.9826
10.9896
10.9952
11.0007
11.0068
11.0132
11.0181
11.0203
11.019
11.0139
11.0052
10.9948
10.9844
10.9741
10.9638
10.949
10.931
10.91
10.892
1
1
1
1
1
1
1
1
1
1
1
1
1
1
1
1
1
1
1
1
1
1
1
1
1
1
1
1
1
1
1
1
1
1
1
1
1
1
1
1
1
1
1
1
1
1
1
1
1
1
1.03659
5.83002
10.1286
10.2203
10.2499
10.2839
10.3177
10.3536
10.3903
10.4267
10.4611
10.4921
10.5193
10.5445
10.5706
10.5984
10.6266
10.654
10.6789
10.7002
10.7203
10.7399
10.7577
10.7729
10.7859
10.7961
10.803
10.806
10.8042
10.801
10.7975
10.7933
10.7877
10.7796
10.767
10.7489
10.7239
10.6922
10.6538
10.61
10.5628
10.5152
10.4753
10.441
10.4237
10.4159
1
1
1
1
1
1
1
1
1
1
1
1
1
1
1
1
1
1
1
1
1
1
1
1
1
1
1
1
1
1
1
1
1
1
1
1
1
1
1
1
1
1
1
1
1
1
1
1
1
1
1.00004
2.80232
9.03264
10.0684
10.1086
10.1549
10.1985
10.2426
10.2843
10.322
10.3557
10.3857
10.4118
10.4348
10.4567
10.4793
10.5022
10.5241
10.5437
10.5596
10.573
10.586
10.5978
10.607
10.6125
10.6153
10.6136
10.605
10.5917
10.5758
10.5587
10.5396
10.5175
10.4907
10.4572
10.4157
10.3657
10.308
10.244
10.1761
10.1058
10.0349
9.95114
9.86892
9.7542
9.84098
1
1
1
1
1
1
1
1
1
1
1
1
1
1
1
1
1
1
1
1
1
1
1
1
1
1
1
1
1
1
1
1
1
1
1
1
1
1
1
1
1
1
1
1
1
1
1
1
1
1
1
1.09482
6.84376
10.081
10.0724
10.0894
10.1218
10.1595
10.1972
10.2316
10.262
10.289
10.3122
10.3317
10.3489
10.366
10.3835
10.4004
10.4151
10.4261
10.4332
10.4379
10.4426
10.4455
10.4447
10.4399
10.429
10.411
10.3865
10.3576
10.3259
10.291
10.2516
10.2052
10.1492
10.0809
9.99795
9.89903
9.77979
9.63652
9.45034
9.20385
8.83391
8.27846
7.35194
5.449
1
1
1
1
1
1
1
1
1
1
1
1
1
1
1
1
1
1
1
1
1
1
1
1
1
1
1
1
1
1
1
1
1
1
1
1
1
1
1
1
1
1
1
1
1
1
1
1
1
1
1
1.00018
4.04858
9.41149
9.92778
9.9761
10.0239
10.0655
10.1084
10.1477
10.179
10.2031
10.2221
10.238
10.2522
10.2666
10.2814
10.2947
10.3047
10.3115
10.3123
10.3107
10.3086
10.3057
10.2992
10.2877
10.2695
10.2437
10.2096
10.1688
10.123
10.0726
10.0162
9.95132
9.87357
9.77974
9.66322
9.52343
9.34884
9.13992
8.86545
8.51659
8.0105
7.34351
6.13386
4.51596
1
1
1
1
1
1
1
1
1
1
1
1
1
1
1
1
1
1
1
1
1
1
1
1
1
1
1
1
1
1
1
1
1
1
1
1
1
1
1
1
1
1
1
1
1
1
1
1
1
1
1
0.999999
1.5916
7.84674
9.93914
9.94724
9.97182
10.0016
10.0406
10.0766
10.1034
10.1226
10.1368
10.1482
10.1578
10.1669
10.1766
10.1852
10.191
10.1921
10.1882
10.1795
10.1692
10.1588
10.1455
10.1275
10.1024
10.0686
10.0253
9.9735
9.91396
9.84793
9.77376
9.69056
9.59185
9.47524
9.32964
9.15506
8.93822
8.67828
8.35404
7.94125
7.41022
6.6686
5.64976
4.53991
1
1
1
1
1
1
1
1
1
1
1
1
1
1
1
1
1
1
1
1
1
1
1
1
1
1
1
1
1
1
1
1
1
1
1
1
1
1
1
1
1
1
1
1
1
1
1
1
1
1
1
1
1.01209
4.90543
9.63044
9.84491
9.87916
9.91243
9.94897
9.98045
10.0039
10.021
10.0338
10.0436
10.0516
10.0582
10.0647
10.0705
10.0725
10.0681
10.0584
10.0434
10.0257
10.0076
9.9876
9.96267
9.93059
9.88984
9.83881
9.77804
9.70631
9.62556
9.53384
9.43256
9.31522
9.17945
9.01382
8.815
8.57379
8.28433
7.93807
7.50764
6.98428
6.32541
5.55396
4.71657
1
1
1
1
1
1
1
1
1
1
1
1
1
1
1
1
1
1
1
1
1
1
1
1
1
1
1
1
1
1
1
1
1
1
1
1
1
1
1
1
1
1
1
1
1
1
1
1
1
1
1
1
0.999994
1.87825
8.15189
9.80881
9.81259
9.84636
9.87454
9.89754
9.91566
9.92997
9.94136
9.94988
9.95434
9.95661
9.95727
9.95723
9.95478
9.94608
9.93217
9.91237
9.88808
9.86157
9.833
9.8005
9.76128
9.71372
9.65546
9.58711
9.50583
9.4132
9.30695
9.18929
9.05652
8.90558
8.72833
8.5181
8.26865
7.97216
7.62779
7.20873
6.72818
6.1786
5.58365
4.92077
1
1
1
1
1
1
1
1
1
1
1
1
1
1
1
1
1
1
1
1
1
1
1
1
1
1
1
1
1
1
1
1
1
1
1
1
1
1
1
1
1
1
1
1
1
1
1
1
1
1
1
1
0.999999
1.02473
4.9906
9.56335
9.73184
9.76389
9.78993
9.80927
9.8254
9.83956
9.85175
9.85858
9.85892
9.85552
9.84903
9.84159
9.83407
9.82266
9.80496
9.7801
9.74935
9.71497
9.67755
9.63687
9.58968
9.5348
9.47001
9.39585
9.30852
9.20814
9.09209
8.96226
8.81761
8.65602
8.47252
8.26051
8.0154
7.72842
7.40154
7.01803
6.59242
6.12762
5.64497
5.10345
1
1
1
1
1
1
1
1
1
1
1
1
1
1
1
1
1
1
1
1
1
1
1
1
1
1
1
1
1
1
1
1
1
1
1
1
1
1
1
1
1
1
1
1
1
1
1
1
1
1
1
1
1
1.00001
1.75583
7.96446
9.73987
9.72328
9.73823
9.74172
9.7466
9.75343
9.76146
9.76565
9.76316
9.75521
9.74269
9.72842
9.71306
9.69632
9.67566
9.64849
9.61458
9.57462
9.52941
9.4806
9.4262
9.36548
9.29587
9.21756
9.1265
9.02159
8.90033
8.76361
8.61124
8.44254
8.25493
8.04404
7.80819
7.53594
7.23531
6.89582
6.52236
6.12444
5.71472
5.26136
1
1
1
1
1
1
1
1
1
1
1
1
1
1
1
1
1
1
1
1
1
1
1
1
1
1
1
1
1
1
1
1
1
1
1
1
1
1
1
1
1
1
1
1
1
1
1
1
1
1
1
1
1
1
1.01735
4.50648
9.2691
9.6084
9.61019
9.61998
9.63415
9.64773
9.6589
9.66738
9.66658
9.65571
9.63844
9.61799
9.59456
9.57177
9.5472
9.51805
9.48117
9.4361
9.38414
9.32773
9.2659
9.19914
9.12462
9.04211
8.94767
8.84034
8.7181
8.58052
8.42734
8.25734
8.0707
7.86296
7.63835
7.38234
7.10841
6.8099
6.48098
6.1384
5.78031
5.39552
1
1
1
1
1
1
1
1
1
1
1
1
1
1
1
1
1
1
1
1
1
1
1
1
1
1
1
1
1
1
1
1
1
1
1
1
1
1
1
1
1
1
1
1
1
1
1
1
1
1
1
1
1
1
1
1.33318
7.32073
9.67665
9.59406
9.58005
9.57128
9.56947
9.56943
9.57022
9.56638
9.55369
9.53492
9.51203
9.48348
9.45508
9.42407
9.39137
9.35228
9.30496
9.24969
9.18798
9.11949
9.04675
8.96799
8.88229
8.78482
8.67609
8.55467
8.41903
8.26933
8.10231
7.92248
7.71736
7.50295
7.26178
7.00917
6.74521
6.45143
6.15241
5.83489
5.5077
1
1
1
1
1
1
1
1
1
1
1
1
1
1
1
1
1
1
1
1
1
1
1
1
1
1
1
1
1
1
1
1
1
1
1
1
1
1
1
1
1
1
1
1
1
1
1
1
1
1
1
1
1
1
1
1.00337
3.55852
8.85373
9.3751
9.41911
9.45463
9.46154
9.45529
9.44996
9.44481
9.43357
9.41578
9.39087
9.36088
9.32987
9.29476
9.25905
9.21815
9.16973
9.11313
9.04912
8.97683
8.90049
8.81861
8.72996
8.63051
8.52126
8.40123
8.26862
8.12414
7.96387
7.79551
7.59623
7.39478
7.16954
6.93598
6.69784
6.42962
6.16527
5.88014
5.59632
1
1
1
1
1
1
1
1
1
1
1
1
1
1
1
1
1
1
1
1
1
1
1
1
1
1
1
1
1
1
1
1
1
1
1
1
1
1
1
1
1
1
1
1
1
1
1
1
1
1
1
1
1
1
1
1
1.17647
5.86385
9.29888
9.38951
9.38335
9.37499
9.36765
9.35867
9.34999
9.34039
9.32498
9.29945
9.26839
9.23301
9.19132
9.14872
9.10198
9.05191
8.99395
8.92825
8.85417
8.77474
8.68825
8.59498
8.49351
8.38378
8.26555
8.13591
7.99622
7.84216
7.68208
7.49375
7.30651
7.09865
6.88465
6.66474
6.4197
6.18123
5.9207
5.66874
1
1
1
1
1
1
1
1
1
1
1
1
1
1
1
1
1
1
1
1
1
1
1
1
1
1
1
1
1
1
1
1
1
1
1
1
1
1
1
1
1
1
1
1
1
1
1
1
1
1
1
1
1
1
1
1
1.00096
1.87293
7.75862
9.34808
9.27642
9.27945
9.27112
9.25972
9.24687
9.23305
9.21769
9.19382
9.16366
9.12714
9.08246
9.0345
8.98159
8.92852
8.87037
8.80344
8.7307
8.65202
8.56449
8.46975
8.36832
8.25879
8.14277
8.01624
7.88312
7.73216
7.57764
7.40358
7.23122
7.04132
6.84657
6.64152
6.42021
6.19931
5.96037
5.73001
1
1
1
1
1
1
1
1
1
1
1
1
1
1
1
1
1
1
1
1
1
1
1
1
1
1
1
1
1
1
1
1
1
1
1
1
1
1
1
1
1
1
1
1
1
1
1
1
1
1
1
1
1
1
1
1
1
1.02204
3.84347
8.79982
9.15155
9.16584
9.17089
9.16201
9.14807
9.13118
9.11195
9.08896
9.05961
9.02449
8.98093
8.93142
8.87561
8.81743
8.75906
8.69166
8.61797
8.53993
8.45397
8.35894
8.25894
8.1501
8.03546
7.91227
7.78338
7.6373
7.48802
7.32685
7.16721
6.99217
6.81349
6.62233
6.4225
6.21507
5.9985
5.7858
1
1
1
1
1
1
1
1
1
1
1
1
1
1
1
1
1
1
1
1
1
1
1
1
1
1
1
1
1
1
1
1
1
1
1
1
1
1
1
1
1
1
1
1
1
1
1
1
1
1
1
1
1
1
1
1
1
1.00003
1.20713
5.44236
8.97462
9.14083
9.12399
9.11515
9.09516
9.06454
9.03325
9.00131
8.96671
8.9296
8.88774
8.83918
8.78237
8.71955
8.65596
8.58839
8.51351
8.43408
8.34995
8.25799
8.16009
8.05482
7.94211
7.82175
7.69514
7.55768
7.4142
7.26309
7.1127
6.94917
6.78204
6.60346
6.42084
6.22596
6.03103
5.83391
1
1
1
1
1
1
1
1
1
1
1
1
1
1
1
1
1
1
1
1
1
1
1
1
1
1
1
1
1
1
1
1
1
1
1
1
1
1
1
1
1
1
1
1
1
1
1
1
1
1
1
1
1
1
1
1
1
1
1.00141
1.5376
6.89551
9.11124
9.08482
9.06652
9.0199
8.97927
8.93874
8.9012
8.86373
8.82559
8.7849
8.73972
8.68728
8.62582
8.5601
8.49317
8.41783
8.33842
8.25372
8.16401
8.06745
7.9671
7.85884
7.74272
7.61964
7.48991
7.35361
7.21134
7.06714
6.91315
6.75379
6.58603
6.41639
6.23485
6.05863
5.87658
1
1
1
1
1
1
1
1
1
1
1
1
1
1
1
1
1
1
1
1
1
1
1
1
1
1
1
1
1
1
1
1
1
1
1
1
1
1
1
1
1
1
1
1
1
1
1
1
1
1
1
1
1
1
1
1
1
1
1
1.00838
2.5572
8.05013
8.99357
8.92612
8.89714
8.86444
8.83319
8.8001
8.76624
8.72992
8.69061
8.64684
8.59958
8.54258
8.4775
8.4104
8.33568
8.25554
8.17111
8.08147
7.98739
7.88777
7.78306
7.67264
7.55462
7.43158
7.30199
7.16741
7.02847
6.88232
6.72857
6.57176
6.41188
6.24384
6.08196
5.91263
1
1
1
1
1
1
1
1
1
1
1
1
1
1
1
1
1
1
1
1
1
1
1
1
1
1
1
1
1
1
1
1
1
1
1
1
1
1
1
1
1
1
1
1
1
1
1
1
1
1
1
1
1
1
1
1
1
1
1
1.00001
1.06454
3.99546
8.54795
8.81632
8.76531
8.75799
8.74222
8.71795
8.68526
8.64792
8.607
8.56231
8.5141
8.46083
8.39929
8.33324
8.25998
8.18088
8.09698
8.00794
7.91468
7.81665
7.71383
7.60671
7.4945
7.37862
7.25593
7.12831
6.99525
6.85542
6.70831
6.56306
6.41077
6.25534
6.10366
5.94625
1
1
1
1
1
1
1
1
1
1
1
1
1
1
1
1
1
1
1
1
1
1
1
1
1
1
1
1
1
1
1
1
1
1
1
1
1
1
1
1
1
1
1
1
1
1
1
1
1
1
1
1
1
1
1
1
1
1
1
1
1.00022
1.22982
4.91702
8.55971
8.68797
8.68227
8.68043
8.66067
8.63036
8.59114
8.5455
8.49558
8.44278
8.38698
8.32731
8.26265
8.19159
8.11458
8.03215
7.94449
7.85219
7.75585
7.65526
7.54898
7.44071
7.33025
7.21296
7.09048
6.96295
6.82934
6.69115
6.55529
6.41152
6.26744
6.12316
5.97589
1
1
1
1
1
1
1
1
1
1
1
1
1
1
1
1
1
1
1
1
1
1
1
1
1
1
1
1
1
1
1
1
1
1
1
1
1
1
1
1
1
1
1
1
1
1
1
1
1
1
1
1
1
1
1
1
1
1
1
1
1
1.00183
1.41682
5.5453
8.53996
8.65343
8.63632
8.61065
8.57704
8.53663
8.49118
8.44011
8.38407
8.32482
8.26265
8.19689
8.12632
8.05111
7.97118
7.88635
7.79654
7.70257
7.60428
7.49972
7.39415
7.28708
7.17383
7.05588
6.93397
6.80655
6.67734
6.5484
6.4132
6.2783
6.14053
6.00171
1
1
1
1
1
1
1
1
1
1
1
1
1
1
1
1
1
1
1
1
1
1
1
1
1
1
1
1
1
1
1
1
1
1
1
1
1
1
1
1
1
1
1
1
1
1
1
1
1
1
1
1
1
1
1
1
1
1
1
1
1
1
1.00535
1.60678
6.10232
8.51765
8.59687
8.55944
8.51875
8.47714
8.43154
8.38059
8.32502
8.26581
8.20373
8.13734
8.06689
7.99246
7.91412
7.83166
7.74469
7.65378
7.55856
7.45753
7.35441
7.24954
7.13912
7.02424
6.90612
6.78422
6.66272
6.53969
6.41346
6.28673
6.1559
6.02387
1
1
1
1
1
1
1
1
1
1
1
1
1
1
1
1
1
1
1
1
1
1
1
1
1
1
1
1
1
1
1
1
1
1
1
1
1
1
1
1
1
1
1
1
1
1
1
1
1
1
1
1
1
1
1
1
1
1
1
1
1
1
1.00001
1.01069
1.82236
6.5486
8.47674
8.50528
8.46925
8.42641
8.3767
8.32497
8.27009
8.21239
8.1506
8.08403
8.01375
7.94024
7.86317
7.78215
7.69714
7.60865
7.51632
7.41922
7.31855
7.21497
7.10714
6.99514
6.88031
6.76517
6.65088
6.53345
6.4145
6.29389
6.16929
6.04308
1
1
1
1
1
1
1
1
1
1
1
1
1
1
1
1
1
1
1
1
1
1
1
1
1
1
1
1
1
1
1
1
1
1
1
1
1
1
1
1
1
1
1
1
1
1
1
1
1
1
1
1
1
1
1
1
1
1
1
1
1
1
1
1.00002
1.0188
2.0467
6.85582
8.42093
8.4211
8.37958
8.32932
8.27843
8.22536
8.16626
8.10176
8.0341
7.96428
7.89163
7.81541
7.73509
7.65141
7.56471
7.47482
7.38095
7.2835
7.18296
7.07928
6.97263
6.8634
6.75416
6.64414
6.53104
6.4171
6.30143
6.18215
6.06139
1
1
1
1
1
1
1
1
1
1
1
1
1
1
1
1
1
1
1
1
1
1
1
1
1
1
1
1
1
1
1
1
1
1
1
1
1
1
1
1
1
1
1
1
1
1
1
1
1
1
1
1
1
1
1
1
1
1
1
1
1
1
1
1
1.00005
1.02977
2.24179
7.05778
8.35873
8.33943
8.28889
8.23764
8.18037
8.12069
8.05649
7.98989
7.92043
7.84729
7.7701
7.69007
7.60763
7.52285
7.43512
7.34415
7.25058
7.15426
7.05496
6.95286
6.84868
6.74405
6.63738
6.52822
6.41885
6.30701
6.19177
6.07681
1
1
1
1
1
1
1
1
1
1
1
1
1
1
1
1
1
1
1
1
1
1
1
1
1
1
1
1
1
1
1
1
1
1
1
1
1
1
1
1
1
1
1
1
1
1
1
1
1
1
1
1
1
1
1
1
1
1
1
1
1
1
1
1
1
1.0001
1.0415
2.39988
7.16268
8.27833
8.25583
8.19886
8.14225
8.07731
8.01228
7.94606
7.87729
7.80452
7.72852
7.65048
7.56998
7.48667
7.40077
7.3125
7.22156
7.12834
7.03311
6.93498
6.83505
6.73519
6.63283
6.52675
6.41958
6.31236
6.20214
6.09049
1
1
1
1
1
1
1
1
1
1
1
1
1
1
1
1
1
1
1
1
1
1
1
1
1
1
1
1
1
1
1
1
1
1
1
1
1
1
1
1
1
1
1
1
1
1
1
1
1
1
1
1
1
1
1
1
1
1
1
1
1
1
1
1
1
1
1.00016
1.05258
2.50837
7.17267
8.19311
8.16313
8.09963
8.03951
7.9723
7.90515
7.83447
7.76234
7.68872
7.61284
7.53444
7.4533
7.36969
7.28428
7.19629
7.10531
7.01251
6.91844
6.82195
6.72389
6.62586
6.52394
6.41819
6.31453
6.20873
6.10403
1
1
1
1
1
1
1
1
1
1
1
1
1
1
1
1
1
1
1
1
1
1
1
1
1
1
1
1
1
1
1
1
1
1
1
1
1
1
1
1
1
1
1
1
1
1
1
1
1
1
1
1
1
1
1
1
1
1
1
1
1
1
1
1
1
1
1
1.00022
1.06116
2.55549
7.09103
8.09501
8.06225
7.99471
7.93533
7.86812
7.7977
7.72607
7.65322
7.5784
7.50135
7.42278
7.34196
7.25786
7.17151
7.08342
6.99332
6.90312
6.81082
6.7153
6.61773
6.51938
6.41963
6.31652
6.21728
6.11876
1
1
1
1
1
1
1
1
1
1
1
1
1
1
1
1
1
1
1
1
1
1
1
1
1
1
1
1
1
1
1
1
1
1
1
1
1
1
1
1
1
1
1
1
1
1
1
1
1
1
1
1
1
1
1
1
1
1
1
1
1
1
1
1
1
1
1
1
1.00028
1.06531
2.53179
6.9096
7.988
7.96437
7.89472
7.82987
7.76244
7.69372
7.62218
7.54955
7.47435
7.39524
7.31477
7.23231
7.1472
7.06224
6.97605
6.88669
6.79565
6.70453
6.61051
6.51723
6.42275
6.32515
6.22794
6.12731
1
1
1
1
1
1
1
1
1
1
1
1
1
1
1
1
1
1
1
1
1
1
1
1
1
1
1
1
1
1
1
1
1
1
1
1
1
1
1
1
1
1
1
1
1
1
1
1
1
1
1
1
1
1
1
1
1
1
1
1
1
1
1
1
1
1
1
1
1
1.00031
1.06367
2.43252
6.65897
7.86095
7.84789
7.78336
7.72116
7.6576
7.59304
7.52419
7.45051
7.3722
7.29209
7.21238
7.12946
7.04293
6.95488
6.86664
6.7785
6.69274
6.60686
6.5174
6.42599
6.33355
6.2396
6.14565
1
1
1
1
1
1
1
1
1
1
1
1
1
1
1
1
1
1
1
1
1
1
1
1
1
1
1
1
1
1
1
1
1
1
1
1
1
1
1
1
1
1
1
1
1
1
1
1
1
1
1
1
1
1
1
1
1
1
1
1
1
1
1
1
1
1
1
1
1
1
1.00031
1.05607
2.298
6.21897
7.77696
7.77491
7.69921
7.6303
7.55593
7.48307
7.41438
7.34628
7.27189
7.19259
7.11069
7.02699
6.94246
6.85762
6.77254
6.68647
6.60038
6.51499
6.43024
6.34574
6.26029
6.17116
1
1
1
1
1
1
1
1
1
1
1
1
1
1
1
1
1
1
1
1
1
1
1
1
1
1
1
1
1
1
1
1
1
1
1
1
1
1
1
1
1
1
1
1
1
1
1
1
1
1
1
1
1
1
1
1
1
1
1
1
1
1
1
1
1
1
1
1
1
1
1
1.00026
1.04673
2.06812
5.77158
7.59225
7.68215
7.60756
7.53766
7.46051
7.38547
7.31032
7.23594
7.16329
7.08934
7.01365
6.93519
6.85491
6.77327
6.68902
6.60712
6.52398
6.43969
6.35753
6.27129
6.18932
1
1
1
1
1
1
1
1
1
1
1
1
1
1
1
1
1
1
1
1
1
1
1
1
1
1
1
1
1
1
1
1
1
1
1
1
1
1
1
1
1
1
1
1
1
1
1
1
1
1
1
1
1
1
1
1
1
1
1
1
1
1
1
1
1
1
1
1
1
1
1
1
1.0002
1.03272
1.84656
5.13105
7.40966
7.58802
7.49714
7.43156
7.3658
7.29706
7.2245
7.14817
7.0708
6.99677
6.92594
6.85632
6.78286
6.70452
6.62301
6.53938
6.45513
6.37013
6.28761
6.20699
1
1
1
1
1
1
1
1
1
1
1
1
1
1
1
1
1
1
1
1
1
1
1
1
1
1
1
1
1
1
1
1
1
1
1
1
1
1
1
1
1
1
1
1
1
1
1
1
1
1
1
1
1
1
1
1
1
1
1
1
1
1
1
1
1
1
1
1
1
1
1
1
1
1.00012
1.02132
1.60771
4.36794
7.18202
7.48364
7.41474
7.35303
7.28837
7.22186
7.15072
7.07948
7.0079
6.93516
6.86091
6.78576
6.71012
6.6327
6.55417
6.47319
6.38984
6.30496
6.21974
1
1
1
1
1
1
1
1
1
1
1
1
1
1
1
1
1
1
1
1
1
1
1
1
1
1
1
1
1
1
1
1
1
1
1
1
1
1
1
1
1
1
1
1
1
1
1
1
1
1
1
1
1
1
1
1
1
1
1
1
1
1
1
1
1
1
1
1
1
1
1
1
1
1
1.00007
1.012
1.38558
3.63462
6.81099
7.38758
7.34767
7.28547
7.21776
7.1486
7.0782
7.00856
6.93907
6.86674
6.79102
6.71413
6.63637
6.55835
6.48017
6.39928
6.3193
6.23847
1
1
1
1
1
1
1
1
1
1
1
1
1
1
1
1
1
1
1
1
1
1
1
1
1
1
1
1
1
1
1
1
1
1
1
1
1
1
1
1
1
1
1
1
1
1
1
1
1
1
1
1
1
1
1
1
1
1
1
1
1
1
1
1
1
1
1
1
1
1
1
1
1
1
1
1.00003
1.00565
1.22356
2.95178
6.27922
7.2563
7.31887
7.20794
7.14275
7.07638
7.00773
6.93765
6.86605
6.79232
6.718
6.64301
6.56781
6.49057
6.4128
6.3343
6.25224
1
1
1
1
1
1
1
1
1
1
1
1
1
1
1
1
1
1
1
1
1
1
1
1
1
1
1
1
1
1
1
1
1
1
1
1
1
1
1
1
1
1
1
1
1
1
1
1
1
1
1
1
1
1
1
1
1
1
1
1
1
1
1
1
1
1
1
1
1
1
1
1
1
1
1
1
1.00001
1.00235
1.11759
2.35956
5.50766
7.10208
7.23091
7.14118
7.07444
7.00832
6.94071
6.8687
6.79545
6.72213
6.64825
6.57619
6.50248
6.42639
6.34821
6.27118
1
1
1
1
1
1
1
1
1
1
1
1
1
1
1
1
1
1
1
1
1
1
1
1
1
1
1
1
1
1
1
1
1
1
1
1
1
1
1
1
1
1
1
1
1
1
1
1
1
1
1
1
1
1
1
1
1
1
1
1
1
1
1
1
1
1
1
1
1
1
1
1
1
1
1
1
1
1
1.00087
1.05586
1.86212
4.56624
6.84957
7.13296
7.0765
7.00345
6.93671
6.87086
6.80022
6.72722
6.65719
6.58696
6.51312
6.43988
6.36663
6.29234
1
1
1
1
1
1
1
1
1
1
1
1
1
1
1
1
1
1
1
1
1
1
1
1
1
1
1
1
1
1
1
1
1
1
1
1
1
1
1
1
1
1
1
1
1
1
1
1
1
1
1
1
1
1
1
1
1
1
1
1
1
1
1
1
1
1
1
1
1
1
1
1
1
1
1
1
1
1
1
1.00028
1.02358
1.4809
3.58105
6.41367
6.99768
7.04017
6.9423
6.87254
6.80992
6.74484
6.67433
6.60174
6.52994
6.45711
6.38639
6.315
1
1
1
1
1
1
1
1
1
1
1
1
1
1
1
1
1
1
1
1
1
1
1
1
1
1
1
1
1
1
1
1
1
1
1
1
1
1
1
1
1
1
1
1
1
1
1
1
1
1
1
1
1
1
1
1
1
1
1
1
1
1
1
1
1
1
1
1
1
1
1
1
1
1
1
1
1
1
1
1
1.00008
1.00856
1.23
2.72956
5.6285
6.85824
6.96354
6.89861
6.82657
6.75985
6.69279
6.6195
6.54532
6.47476
6.40453
6.33349
1
1
1
1
1
1
1
1
1
1
1
1
1
1
1
1
1
1
1
1
1
1
1
1
1
1
1
1
1
1
1
1
1
1
1
1
1
1
1
1
1
1
1
1
1
1
1
1
1
1
1
1
1
1
1
1
1
1
1
1
1
1
1
1
1
1
1
1
1
1
1
1
1
1
1
1
1
1
1
1
1
1.00002
1.00261
1.09573
2.03829
4.59331
6.61092
6.90042
6.87135
6.77159
6.68464
6.61764
6.55841
6.49403
6.41988
6.35094
1
1
1
1
1
1
1
1
1
1
1
1
1
1
1
1
1
1
1
1
1
1
1
1
1
1
1
1
1
1
1
1
1
1
1
1
1
1
1
1
1
1
1
1
1
1
1
1
1
1
1
1
1
1
1
1
1
1
1
1
1
1
1
1
1
1
1
1
1
1
1
1
1
1
1
1
1
1
1
1
1
1
1
1.00065
1.03481
1.53223
3.51705
6.10523
6.77275
6.79565
6.71035
6.62957
6.56773
6.51335
6.45941
6.3893
1
1
1
1
1
1
1
1
1
1
1
1
1
1
1
1
1
1
1
1
1
1
1
1
1
1
1
1
1
1
1
1
1
1
1
1
1
1
1
1
1
1
1
1
1
1
1
1
1
1
1
1
1
1
1
1
1
1
1
1
1
1
1
1
1
1
1
1
1
1
1
1
1
1
1
1
1
1
1
1
1
1
1
1
1.00014
1.01057
1.23136
2.56735
5.22899
6.65288
6.71532
6.61981
6.54796
6.52137
6.49612
6.44208
1
1
1
1
1
1
1
1
1
1
1
1
1
1
1
1
1
1
1
1
1
1
1
1
1
1
1
1
1
1
1
1
1
1
1
1
1
1
1
1
1
1
1
1
1
1
1
1
1
1
1
1
1
1
1
1
1
1
1
1
1
1
1
1
1
1
1
1
1
1
1
1
1
1
1
1
1
1
1
1
1
1
1
1
1
1.00003
1.0027
1.0815
1.88965
4.0418
6.31772
6.66138
6.56602
6.46666
6.4191
6.42988
1
1
1
1
1
1
1
1
1
1
1
1
1
1
1
1
1
1
1
1
1
1
1
1
1
1
1
1
1
1
1
1
1
1
1
1
1
1
1
1
1
1
1
1
1
1
1
1
1
1
1
1
1
1
1
1
1
1
1
1
1
1
1
1
1
1
1
1
1
1
1
1
1
1
1
1
1
1
1
1
1
1
1
1
1
1
1
1.00049
1.02763
1.39093
2.97793
5.54982
6.503
6.47658
6.42484
6.4003
1
1
1
1
1
1
1
1
1
1
1
1
1
1
1
1
1
1
1
1
1
1
1
1
1
1
1
1
1
1
1
1
1
1
1
1
1
1
1
1
1
1
1
1
1
1
1
1
1
1
1
1
1
1
1
1
1
1
1
1
1
1
1
1
1
1
1
1
1
1
1
1
1
1
1
1
1
1
1
1
1
1
1
1
1
1
1
1
1.0001
1.00695
1.14045
2.13615
4.39389
6.13983
6.43807
6.42075
1
1
1
1
1
1
1
1
1
1
1
1
1
1
1
1
1
1
1
1
1
1
1
1
1
1
1
1
1
1
1
1
1
1
1
1
1
1
1
1
1
1
1
1
1
1
1
1
1
1
1
1
1
1
1
1
1
1
1
1
1
1
1
1
1
1
1
1
1
1
1
1
1
1
1
1
1
1
1
1
1
1
1
1
1
1
1
1
1
1.00002
1.0012
1.04515
1.5159
3.14663
5.53079
6.07362
1
1
1
1
1
1
1
1
1
1
1
1
1
1
1
1
1
1
1
1
1
1
1
1
1
1
1
1
1
1
1
1
1
1
1
1
1
1
1
1
1
1
1
1
1
1
1
1
1
1
1
1
1
1
1
1
1
1
1
1
1
1
1
1
1
1
1
1
1
1
1
1
1
1
1
1
1
1
1
1
1
1
1
1
1
1
1
1
1
1
1
1.00022
1.01028
1.18431
2.18767
4.52137
1
1
1
1
1
1
1
1
1
1
1
1
1
1
1
1
1
1
1
1
1
1
1
1
1
1
1
1
1
1
1
1
1
1
1
1
1
1
1
1
1
1
1
1
1
1
1
1
1
1
1
1
1
1
1
1
1
1
1
1
1
1
1
1
1
1
1
1
1
1
1
1
1
1
1
1
1
1
1
1
1
1
1
1
1
1
1
1
1
1
1
1
1.00002
1.00203
1.04961
4.56032
1
1
1
1
1
1
1
1
1
1
1
1
1
1
1
1
1
1
1
1
1
1
1
1
1
1
1
1
1
1
1
1
1
1
1
1
1
1
1
1
1
1
1
1
1
1
1
1
1
1
1
1
1
1
1
1
1
1
1
1
1
1
1
1
1
1
1
1
1
1
1
1
1
1
1
1
1
1
1
1
1
1
1
1
1
1
1
1
1
1
1
1
1
1
1.00038
5.63687
1
1
1
1
1
1
1
1
1
1
1
1
1
1
1
1
1
1
1
1
1
1
1
1
1
1
1
1
1
1
1
1
1
1
1
1
1
1
1
1
1
1
1
1
1
1
1
1
1
1
1
1
1
1
1
1
1
1
1
1
1
1
1
1
1
1
1
1
1
1
1
1
1
1
1
1
1
1
1
1
1
1
1
1
1
1
1
1
1
1
1
1
1
1
1
5.79998
1
1
1
1
1
1
1
1
1
1
1
1
1
1
1
1
1
1
1
1
1
1
1
1
1
1
1
1
1
1
1
1
1
1
1
1
1
1
1
1
1
1
1
1
1
1
1
1
1
1
1
1
1
1
1
1
1
1
1
1
1
1
1
1
1
1
1
1
1
1
1
1
1
1
1
1
1
1
1
1
1
1
1
1
1
1
1
1
1
1
1
1
1
1
1
5.21576
1
1
1
1
1
1
1
1
1
1
1
1
1
1
1
1
1
1
1
1
1
1
1
1
1
1
1
1
1
1
1
1
1
1
1
1
1
1
1
1
1
1
1
1
1
1
1
1
1
1
1
1
1
1
1
1
1
1
1
1
1
1
1
1
1
1
1
1
1
1
1
1
1
1
1
1
1
1
1
1
1
1
1
1
1
1
1
1
1
1
1
1
1
1
1
4.36928
1
1
1
1
1
1
1
1
1
1
1
1
1
1
1
1
1
1
1
1
1
1
1
1
1
1
1
1
1
1
1
1
1
1
1
1
1
1
1
1
1
1
1
1
1
1
1
1
1
1
1
1
1
1
1
1
1
1
1
1
1
1
1
1
1
1
1
1
1
1
1
1
1
1
1
1
1
1
1
1
1
1
1
1
1
1
1
1
1
1
1
1
1
1
1
3.60242
1
1
1
1
1
1
1
1
1
1
1
1
1
1
1
1
1
1
1
1
1
1
1
1
1
1
1
1
1
1
1
1
1
1
1
1
1
1
1
1
1
1
1
1
1
1
1
1
1
1
1
1
1
1
1
1
1
1
1
1
1
1
1
1
1
1
1
1
1
1
1
1
1
1
1
1
1
1
1
1
1
1
1
1
1
1
1
1
1
1
1
1
1
1
1
3.00231
1
1
1
1
1
1
1
1
1
1
1
1
1
1
1
1
1
1
1
1
1
1
1
1
1
1
1
1
1
1
1
1
1
1
1
1
1
1
1
1
1
1
1
1
1
1
1
1
1
1
1
1
1
1
1
1
1
1
1
1
1
1
1
1
1
1
1
1
1
1
1
1
1
1
1
1
1
1
1
1
1
1
1
1
1
1
1
1
1
1
1
1
1
1
1
2.5424
1
1
1
1
1
1
1
1
1
1
1
1
1
1
1
1
1
1
1
1
1
1
1
1
1
1
1
1
1
1
1
1
1
1
1
1
1
1
1
1
1
1
1
1
1
1
1
1
1
1
1
1
1
1
1
1
1
1
1
1
1
1
1
1
1
1
1
1
1
1
1
1
1
1
1
1
1
1
1
1
1
1
1
1
1
1
1
1
1
1
1
1
1
1
1
2.17758
1
1
1
1
1
1
1
1
1
1
1
1
1
1
1
1
1
1
1
1
1
1
1
1
1
1
1
1
1
1
1
1
1
1
1
1
1
1
1
1
1
1
1
1
1
1
1
1
1
1
1
1
1
1
1
1
1
1
1
1
1
1
1
1
1
1
1
1
1
1
1
1
1
1
1
1
1
1
1
1
1
1
1
1
1
1
1
1
1
1
1
1
1
1
1
1.89602
1
1
1
1
1
1
1
1
1
1
1
1
1
1
1
1
1
1
1
1
1
1
1
1
1
1
1
1
1
1
1
1
1
1
1
1
1
1
1
1
1
1
1
1
1
1
1
1
1
1
1
1
1
1
1
1
1
1
1
1
1
1
1
1
1
1
1
1
1
1
1
1
1
1
1
1
1
1
1
1
1
1
1
1
1
1
1
1
1
1
1
1
1
1
1
1.68065
1
1
1
1
1
1
1
1
1
1
1
1
1
1
1
1
1
1
1
1
1
1
1
1
1
1
1
1
1
1
1
1
1
1
1
1
1
1
1
1
1
1
1
1
1
1
1
1
1
1
1
1
1
1
1
1
1
1
1
1
1
1
1
1
1
1
1
1
1
1
1
1
1
1
1
1
1
1
1
1
1
1
1
1
1
1
1
1
1
1
1
1
1
1
1
1.5011
1
1
1
1
1
1
1
1
1
1
1
1
1
1
1
1
1
1
1
1
1
1
1
1
1
1
1
1
1
1
1
1
1
1
1
1
1
1
1
1
1
1
1
1
1
1
1
1
1
1
1
1
1
1
1
1
1
1
1
1
1
1
1
1
1
1
1
1
1
1
1
1
1
1
1
1
1
1
1
1
1
1
1
1
1
1
1
1
1
1
1
1
1
1
1
1.33415
1
1
1
1
1
1
1
1
1
1
1
1
1
1
1
1
1
1
1
1
1
1
1
1
1
1
1
1
1
1
1
1
1
1
1
1
1
1
1
1
1
1
1
1
1
1
1
1
1
1
1
1
1
1
1
1
1
1
1
1
1
1
1
1
1
1
1
1
1
1
1
1
1
1
1
1
1
1
1
1
1
1
1
1
1
1
1
1
1
1
1
1
1
1
1
1.16505
1
1
1
1
1
1
1
1
1
1
1
1
1
1
1
1
1
1
1
1
1
1
1
1
1
1
1
1
1
1
1
1
1
1
1
1
1
1
1
1
1
1
1
1
1
1
1
1
1
1
1
1
1
1
1
1
1
1
1
1
1
1
1
1
1
1
1
1
1
1
1
1
1
1
1
1
1
1
1
1
1
1
1
1
1
1
1
1
1
1
1
1
1
1
1
1.02678
1
1
1
1
1
1
1
1
1
1
1
1
1
1
1
1
1
1
1
1
1
1
1
1
1
1
1
1
1
1
1
1
1
1
1
1
1
1
1
1
1
1
1
1
1
1
1
1
1
1
1
1
1
1
1
1
1
1
1
1
1
1
1
1
1
1
1
1
1
1
1
1
1
1
1
1
1
1
1
1
1
1
1
1
1
1
1
1
1
1
1
1
1
1
1
1.0001
1
1
1
1
1
1
1
1
1
1
1
1
1
1
1
1
1
1
1
1
1
1
1
1
1
1
1
1
1
1
1
1
1
1
1
1
1
1
1
1
1
1
1
1
1
1
1
1
1
1
1
1
1
1
1
1
1
1
1
1
1
1
1
1
1
1
1
1
1
1
1
1
1
1
1
1
1
1
1
1
1
1
1
1
1
1
1
1
1
1
1
1
1
1
1
1
1
1
1
1
1
1
1
1
1
1
1
1
1
1
1
1
1
1
1
1
1
1
1
1
1
1
1
1
1
1
1
1
1
1
1
1
1
1
1
1
1
1
1
1
1
1
1
1
1
1
1
1
1
1
1
1
1
1
1
1
1
1
1
1
1
1
1
1
1
1
1
1
1
1
1
1
1
1
1
1
1
1
1
1
1
1
1
1
1
1
1
1
1
1
1
1
1.12431
0.244654
0.0278425
0.0193785
0.0347825
0.0554693
0.091749
0.133028
0.195212
0.274321
0.344429
0.410806
0.462531
0.502162
0.56664
0.688063
0.801413
0.885609
0.953179
0.98487
0.966127
0.964934
0.994007
1.01161
1.02175
1.03207
1.04528
1.06879
1.09353
1.12204
1.15829
1.18934
1.2111
1.21364
1.2086
1.21293
1.2235
1.23201
1.24059
1.25493
1.27552
1.28851
1.29149
1.29329
1.29514
1.29572
1.29513
1.29932
1.30936
1.32344
1.3402
1.35331
1.35665
1.35537
1.35089
1.3408
2.23196
5.37433
6.16296
6.24567
6.30816
6.32795
6.3281
6.31966
6.3043
6.28305
6.25323
6.21767
6.17898
6.14303
6.11386
6.08955
6.0673
6.04399
6.01577
5.98068
5.93742
5.88724
5.83621
5.79009
5.75136
5.7192
5.68994
5.65935
5.62486
5.58639
5.54545
5.50368
5.46182
5.41977
5.37721
5.33416
5.29109
5.24785
5.20306
5.15486
5.10394
5.05327
5.00585
4.96501
4.9323
4.90581
4.88076
4.84801
4.8023
4.75111
4.69689
4.64381
4.59876
4.56126
4.53556
4.52018
4.50245
4.47285
4.43514
4.39381
4.35092
4.31243
4.27853
4.24769
4.21852
4.18811
4.15578
4.12183
4.0851
4.04711
4.01087
3.97682
3.94409
3.91179
3.87946
3.84653
3.81293
3.78058
3.75118
3.72421
3.70075
3.6801
3.65892
3.63572
3.61103
3.5819
3.54575
3.50727
3.47009
3.43492
3.40179
3.37049
3.34034
3.31015
3.27851
3.24454
3.20917
3.17631
3.15017
3.12875
3.10909
3.09247
3.07532
3.05444
3.0325
3.00778
2.97985
2.95199
2.9275
2.90635
2.88683
2.86726
2.8461
2.8217
2.79331
2.76297
2.73534
2.71363
2.69606
2.67932
2.66187
2.642
2.61784
2.58867
2.56093
2.54243
2.52766
2.51404