/*--------------------------------*- C++ -*----------------------------------*\
  =========                 |
  \\      /  F ield         | OpenFOAM: The Open Source CFD Toolbox
   \\    /   O peration     | Website:  https://openfoam.org
    \\  /    A nd           | Version:  7
     \\/     M anipulation  |
\*---------------------------------------------------------------------------*/
FoamFile
{
    version     2.0;
    format      ascii;
    class       volScalarField;
    location    "4";
    object      rho;
}
// * * * * * * * * * * * * * * * * * * * * * * * * * * * * * * * * * * * * * //

dimensions      [1 -3 0 0 0 0 0];

internalField   nonuniform List<scalar> 
19968
(
1.40001
1.40001
1.40001
1.40001
1.40001
1.40001
1.40001
1.40001
1.40001
1.40001
1.40001
1.40001
1.40001
1.40001
1.40001
1.40001
1.40001
1.40001
1.40001
1.40001
1.40001
1.40001
1.40001
1.40001
1.40001
1.40001
1.40001
1.40001
1.40001
1.40001
1.40001
1.40001
1.40001
1.40001
1.40001
1.40001
1.40001
1.40001
1.40001
1.40001
1.40001
1.40001
1.40001
1.40001
1.40001
1.40001
1.40001
1.40001
1.61111
4.44658
5.42493
5.43859
5.46063
5.48043
5.50174
5.52471
5.54793
5.56862
5.58546
5.59988
5.61479
5.63242
5.65351
5.67719
5.70082
5.72178
5.73897
5.7527
5.76424
5.77558
5.7884
5.80313
5.8189
5.83426
5.84819
5.86037
5.87128
5.88199
5.89366
5.90693
5.92171
5.93712
5.9518
5.96443
5.97414
5.98063
5.98422
5.98578
5.98659
5.98812
5.99122
5.99581
6.00114
6.00613
6.00995
6.01349
1.40001
1.40001
1.40001
1.40001
1.40001
1.40001
1.40001
1.40001
1.40001
1.40001
1.40001
1.40001
1.40001
1.40001
1.40001
1.40001
1.40001
1.40001
1.40001
1.40001
1.40001
1.40001
1.40001
1.40001
1.40001
1.40001
1.40001
1.40001
1.40001
1.40001
1.40001
1.40001
1.40001
1.40001
1.40001
1.40001
1.40001
1.40001
1.40001
1.40001
1.40001
1.40001
1.40001
1.40001
1.40001
1.40001
1.40001
1.40001
1.59501
4.41291
5.41969
5.43901
5.46028
5.48019
5.50137
5.5242
5.54733
5.56801
5.58492
5.59933
5.61406
5.6314
5.65218
5.67559
5.69906
5.71998
5.73721
5.75104
5.76275
5.77433
5.78738
5.80227
5.8181
5.83342
5.84721
5.85919
5.86987
5.88036
5.89186
5.90504
5.91978
5.93517
5.9498
5.96234
5.97193
5.97837
5.98203
5.98376
5.98478
5.98646
5.98957
5.99403
5.99917
6.00399
6.00769
6.01111
1.40001
1.40001
1.40001
1.40001
1.40001
1.40001
1.40001
1.40001
1.40001
1.40001
1.40001
1.40001
1.40001
1.40001
1.40001
1.40001
1.40001
1.40001
1.40001
1.40001
1.40001
1.40001
1.40001
1.40001
1.40001
1.40001
1.40001
1.40001
1.40001
1.40001
1.40001
1.40001
1.40001
1.40001
1.40001
1.40001
1.40001
1.40001
1.40001
1.40001
1.40001
1.40001
1.40001
1.40001
1.40001
1.40001
1.40001
1.40001
1.56237
4.34958
5.41894
5.43778
5.45855
5.47823
5.49902
5.52159
5.54467
5.56566
5.58301
5.59768
5.61229
5.6292
5.64952
5.67256
5.69591
5.71692
5.73431
5.74826
5.7601
5.77181
5.78506
5.80019
5.81629
5.83181
5.84562
5.85741
5.86776
5.87786
5.88903
5.90198
5.91663
5.93199
5.94657
5.95895
5.96834
5.97463
5.97828
5.98017
5.98139
5.98316
5.98617
5.99036
5.99516
5.99974
6.00335
6.00666
1.40001
1.40001
1.40001
1.40001
1.40001
1.40001
1.40001
1.40001
1.40001
1.40001
1.40001
1.40001
1.40001
1.40001
1.40001
1.40001
1.40001
1.40001
1.40001
1.40001
1.40001
1.40001
1.40001
1.40001
1.40001
1.40001
1.40001
1.40001
1.40001
1.40001
1.40001
1.40001
1.40001
1.40001
1.40001
1.40001
1.40001
1.40001
1.40001
1.40001
1.40001
1.40001
1.40001
1.40001
1.40001
1.40001
1.40001
1.40001
1.51483
4.26187
5.42016
5.43745
5.45734
5.47672
5.49678
5.51883
5.54173
5.56298
5.58073
5.59555
5.60982
5.62598
5.64555
5.668
5.69117
5.71234
5.72998
5.74413
5.75613
5.76795
5.7814
5.79679
5.81325
5.82909
5.843
5.8546
5.86454
5.87413
5.88482
5.89744
5.91191
5.9272
5.9417
5.95395
5.9632
5.96946
5.97328
5.97548
5.97701
5.97886
5.98161
5.98519
5.98925
5.99319
5.99638
5.99931
1.40001
1.40001
1.40001
1.40001
1.40001
1.40001
1.40001
1.40001
1.40001
1.40001
1.40001
1.40001
1.40001
1.40001
1.40001
1.40001
1.40001
1.40001
1.40001
1.40001
1.40001
1.40001
1.40001
1.40001
1.40001
1.40001
1.40001
1.40001
1.40001
1.40001
1.40001
1.40001
1.40001
1.40001
1.40001
1.40001
1.40001
1.40001
1.40001
1.40001
1.40001
1.40001
1.40001
1.40001
1.40001
1.40001
1.40001
1.40001
1.42194
4.1137
5.42181
5.44019
5.45747
5.47576
5.49416
5.5152
5.53774
5.55934
5.57786
5.59321
5.60733
5.62276
5.64148
5.66324
5.68616
5.70742
5.72517
5.73923
5.75103
5.76258
5.7759
5.79124
5.80786
5.82395
5.838
5.84945
5.85894
5.86788
5.87788
5.88987
5.90388
5.91885
5.93313
5.94522
5.95439
5.96076
5.96496
5.96775
5.96994
5.97227
5.97513
5.97845
5.98202
5.98548
5.98831
5.9909
1.40001
1.40001
1.40001
1.40001
1.40001
1.40001
1.40001
1.40001
1.40001
1.40001
1.40001
1.40001
1.40001
1.40001
1.40001
1.40001
1.40001
1.40001
1.40001
1.40001
1.40001
1.40001
1.40001
1.40001
1.40001
1.40001
1.40001
1.40001
1.40001
1.40001
1.40001
1.40001
1.40001
1.40001
1.40001
1.40001
1.40001
1.40001
1.40001
1.40001
1.40001
1.40001
1.40001
1.40001
1.40001
1.40001
1.40001
1.40001
1.40031
3.88456
5.39638
5.42829
5.44602
5.46517
5.48347
5.50446
5.52703
5.54911
5.56856
5.58472
5.59909
5.61423
5.63247
5.65367
5.67612
5.69719
5.71476
5.72848
5.7399
5.75088
5.76375
5.77883
5.79564
5.8123
5.82703
5.83894
5.84851
5.85721
5.86673
5.87815
5.89165
5.90626
5.92038
5.93248
5.94184
5.94858
5.95333
5.95682
5.95971
5.9625
5.96546
5.96845
5.97139
5.97421
5.9765
5.97864
1.40001
1.40001
1.40001
1.40001
1.40001
1.40001
1.40001
1.40001
1.40001
1.40001
1.40001
1.40001
1.40001
1.40001
1.40001
1.40001
1.40001
1.40001
1.40001
1.40001
1.40001
1.40001
1.40001
1.40001
1.40001
1.40001
1.40001
1.40001
1.40001
1.40001
1.40001
1.40001
1.40001
1.40001
1.40001
1.40001
1.40001
1.40001
1.40001
1.40001
1.40001
1.40001
1.40001
1.40001
1.40001
1.40001
1.40001
1.40001
1.40001
3.56843
5.35273
5.42009
5.44046
5.46059
5.47873
5.4988
5.52018
5.54134
5.56045
5.57672
5.59122
5.60632
5.62447
5.64551
5.66773
5.68878
5.7063
5.71967
5.7306
5.74084
5.75305
5.76755
5.78416
5.80107
5.81625
5.82845
5.83794
5.8462
5.85498
5.8655
5.87806
5.89188
5.90543
5.91725
5.92659
5.93354
5.93871
5.94275
5.94623
5.94948
5.95264
5.95548
5.95798
5.96027
5.96207
5.96387
1.40001
1.40001
1.40001
1.40001
1.40001
1.40001
1.40001
1.40001
1.40001
1.40001
1.40001
1.40001
1.40001
1.40001
1.40001
1.40001
1.40001
1.40001
1.40001
1.40001
1.40001
1.40001
1.40001
1.40001
1.40001
1.40001
1.40001
1.40001
1.40001
1.40001
1.40001
1.40001
1.40001
1.40001
1.40001
1.40001
1.40001
1.40001
1.40001
1.40001
1.40001
1.40001
1.40001
1.40001
1.40001
1.40001
1.40001
1.40001
1.40001
3.17509
5.27683
5.40971
5.43391
5.45602
5.47484
5.494
5.5137
5.53317
5.55125
5.56733
5.58201
5.59722
5.6153
5.63612
5.65787
5.67858
5.69583
5.70858
5.71879
5.7281
5.73931
5.75291
5.76892
5.78578
5.80135
5.81397
5.82356
5.83152
5.83963
5.84922
5.8608
5.87377
5.88676
5.89832
5.90764
5.91473
5.92013
5.92444
5.92819
5.93161
5.93474
5.93731
5.93932
5.94108
5.94237
5.94387
1.40001
1.40001
1.40001
1.40001
1.40001
1.40001
1.40001
1.40001
1.40001
1.40001
1.40001
1.40001
1.40001
1.40001
1.40001
1.40001
1.40001
1.40001
1.40001
1.40001
1.40001
1.40001
1.40001
1.40001
1.40001
1.40001
1.40001
1.40001
1.40001
1.40001
1.40001
1.40001
1.40001
1.40001
1.40001
1.40001
1.40001
1.40001
1.40001
1.40001
1.40001
1.40001
1.40001
1.40001
1.40001
1.40001
1.40001
1.40001
1.40001
2.72329
5.15426
5.40406
5.42995
5.45493
5.47444
5.49275
5.5107
5.52814
5.54457
5.55984
5.57427
5.58918
5.60672
5.62686
5.64778
5.66775
5.6846
5.69668
5.706
5.71418
5.72395
5.73624
5.751
5.76714
5.78253
5.7952
5.80462
5.81206
5.81934
5.82787
5.83829
5.85024
5.86248
5.8736
5.88275
5.88988
5.89544
5.9
5.90405
5.90775
5.91113
5.91388
5.91593
5.91767
5.91884
5.92037
1.40001
1.40001
1.40001
1.40001
1.40001
1.40001
1.40001
1.40001
1.40001
1.40001
1.40001
1.40001
1.40001
1.40001
1.40001
1.40001
1.40001
1.40001
1.40001
1.40001
1.40001
1.40001
1.40001
1.40001
1.40001
1.40001
1.40001
1.40001
1.40001
1.40001
1.40001
1.40001
1.40001
1.40001
1.40001
1.40001
1.40001
1.40001
1.40001
1.40001
1.40001
1.40001
1.40001
1.40001
1.40001
1.40001
1.40001
1.40001
1.40001
2.20395
4.9446
5.40969
5.43029
5.45429
5.47195
5.4892
5.50604
5.52238
5.53789
5.55246
5.56638
5.58063
5.59719
5.61624
5.6361
5.65514
5.67176
5.68377
5.69269
5.70005
5.70822
5.71903
5.73224
5.74724
5.76201
5.7744
5.78335
5.78996
5.79609
5.80333
5.81243
5.8232
5.83452
5.84497
5.85366
5.86043
5.86564
5.86978
5.87333
5.8765
5.87942
5.88187
5.88372
5.88533
5.88634
5.88788
1.40001
1.40001
1.40001
1.40001
1.40001
1.40001
1.40001
1.40001
1.40001
1.40001
1.40001
1.40001
1.40001
1.40001
1.40001
1.40001
1.40001
1.40001
1.40001
1.40001
1.40001
1.40001
1.40001
1.40001
1.40001
1.40001
1.40001
1.40001
1.40001
1.40001
1.40001
1.40001
1.40001
1.40001
1.40001
1.40001
1.40001
1.40001
1.40001
1.40001
1.40001
1.40001
1.40001
1.40001
1.40001
1.40001
1.40001
1.40001
1.40001
1.70959
4.57719
5.43939
5.42773
5.44894
5.46323
5.47932
5.49557
5.51165
5.52717
5.54173
5.55541
5.56891
5.58408
5.60171
5.62048
5.63859
5.655
5.66748
5.67648
5.68355
5.69024
5.69932
5.71059
5.72397
5.73759
5.74935
5.75769
5.76331
5.76807
5.77369
5.78102
5.78999
5.79959
5.80851
5.81585
5.82148
5.82576
5.82914
5.83212
5.83503
5.83804
5.84093
5.84337
5.84549
5.84682
5.84871
1.40001
1.40001
1.40001
1.40001
1.40001
1.40001
1.40001
1.40001
1.40001
1.40001
1.40001
1.40001
1.40001
1.40001
1.40001
1.40001
1.40001
1.40001
1.40001
1.40001
1.40001
1.40001
1.40001
1.40001
1.40001
1.40001
1.40001
1.40001
1.40001
1.40001
1.40001
1.40001
1.40001
1.40001
1.40001
1.40001
1.40001
1.40001
1.40001
1.40001
1.40001
1.40001
1.40001
1.40001
1.40001
1.40001
1.40001
1.40001
1.40001
1.41037
3.88283
5.37206
5.39324
5.41489
5.43494
5.45366
5.4721
5.49028
5.50812
5.52472
5.53953
5.55297
5.56665
5.5821
5.59892
5.61563
5.6314
5.64441
5.65373
5.66101
5.66692
5.67429
5.68361
5.69509
5.70729
5.71818
5.72601
5.73084
5.73437
5.73846
5.74411
5.75134
5.75933
5.76683
5.77295
5.77743
5.78055
5.7826
5.78386
5.78484
5.78583
5.78684
5.78765
5.78851
5.78901
5.79046
1.40001
1.40001
1.40001
1.40001
1.40001
1.40001
1.40001
1.40001
1.40001
1.40001
1.40001
1.40001
1.40001
1.40001
1.40001
1.40001
1.40001
1.40001
1.40001
1.40001
1.40001
1.40001
1.40001
1.40001
1.40001
1.40001
1.40001
1.40001
1.40001
1.40001
1.40001
1.40001
1.40001
1.40001
1.40001
1.40001
1.40001
1.40001
1.40001
1.40001
1.40001
1.40001
1.40001
1.40001
1.40001
1.40001
1.40001
1.40001
1.40001
1.40002
2.98857
5.19819
5.36561
5.39095
5.41359
5.43178
5.44974
5.46726
5.48443
5.50032
5.51423
5.52643
5.53813
5.55093
5.5655
5.58071
5.59559
5.60891
5.61904
5.62713
5.63365
5.64012
5.64795
5.65744
5.6679
5.67747
5.68446
5.68835
5.69041
5.69252
5.69593
5.70075
5.70622
5.71105
5.71428
5.71572
5.71584
5.71469
5.71298
5.71164
5.71134
5.71241
5.71357
5.71524
5.71639
5.71833
1.40001
1.40001
1.40001
1.40001
1.40001
1.40001
1.40001
1.40001
1.40001
1.40001
1.40001
1.40001
1.40001
1.40001
1.40001
1.40001
1.40001
1.40001
1.40001
1.40001
1.40001
1.40001
1.40001
1.40001
1.40001
1.40001
1.40001
1.40001
1.40001
1.40001
1.40001
1.40001
1.40001
1.40001
1.40001
1.40001
1.40001
1.40001
1.40001
1.40001
1.40001
1.40001
1.40001
1.40001
1.40001
1.40001
1.40001
1.40001
1.40001
1.40001
2.00935
4.80721
5.38192
5.38139
5.40059
5.41773
5.43567
5.45306
5.46972
5.48499
5.49815
5.50912
5.51872
5.52852
5.53986
5.55243
5.56522
5.57728
5.58705
5.5946
5.60077
5.60601
5.61171
5.61822
5.6257
5.63274
5.6377
5.63978
5.63973
5.63921
5.6395
5.64102
5.6431
5.64451
5.64459
5.64339
5.64085
5.63712
5.63313
5.62927
5.62521
5.62089
5.61486
5.60814
5.60109
5.59538
1.40001
1.40001
1.40001
1.40001
1.40001
1.40001
1.40001
1.40001
1.40001
1.40001
1.40001
1.40001
1.40001
1.40001
1.40001
1.40001
1.40001
1.40001
1.40001
1.40001
1.40001
1.40001
1.40001
1.40001
1.40001
1.40001
1.40001
1.40001
1.40001
1.40001
1.40001
1.40001
1.40001
1.40001
1.40001
1.40001
1.40001
1.40001
1.40001
1.40001
1.40001
1.40001
1.40001
1.40001
1.40001
1.40001
1.40001
1.40001
1.40001
1.40001
1.42689
3.73827
5.34712
5.39155
5.40357
5.41567
5.4271
5.43919
5.45146
5.46337
5.47409
5.48311
5.49067
5.49784
5.50605
5.51575
5.52618
5.5364
5.54512
5.55148
5.55637
5.5605
5.56432
5.56829
5.57261
5.57652
5.57878
5.57861
5.57573
5.57171
5.56808
5.56523
5.56236
5.55864
5.55322
5.5456
5.53541
5.52286
5.50825
5.49186
5.47421
5.45611
5.44083
5.42821
5.42271
5.42064
1.40001
1.40001
1.40001
1.40001
1.40001
1.40001
1.40001
1.40001
1.40001
1.40001
1.40001
1.40001
1.40001
1.40001
1.40001
1.40001
1.40001
1.40001
1.40001
1.40001
1.40001
1.40001
1.40001
1.40001
1.40001
1.40001
1.40001
1.40001
1.40001
1.40001
1.40001
1.40001
1.40001
1.40001
1.40001
1.40001
1.40001
1.40001
1.40001
1.40001
1.40001
1.40001
1.40001
1.40001
1.40001
1.40001
1.40001
1.40001
1.40001
1.40001
1.40003
2.38726
4.99444
5.34684
5.36173
5.37901
5.39453
5.40949
5.42302
5.43468
5.44456
5.45282
5.4596
5.46551
5.47163
5.47872
5.48652
5.49418
5.50074
5.50523
5.50791
5.50989
5.51143
5.51267
5.51353
5.51396
5.51286
5.50871
5.50185
5.49333
5.48435
5.47503
5.46527
5.45423
5.44086
5.42437
5.40454
5.38182
5.35702
5.3312
5.30497
5.27842
5.24382
5.20324
5.14728
5.16524
1.40001
1.40001
1.40001
1.40001
1.40001
1.40001
1.40001
1.40001
1.40001
1.40001
1.40001
1.40001
1.40001
1.40001
1.40001
1.40001
1.40001
1.40001
1.40001
1.40001
1.40001
1.40001
1.40001
1.40001
1.40001
1.40001
1.40001
1.40001
1.40001
1.40001
1.40001
1.40001
1.40001
1.40001
1.40001
1.40001
1.40001
1.40001
1.40001
1.40001
1.40001
1.40001
1.40001
1.40001
1.40001
1.40001
1.40001
1.40001
1.40001
1.40001
1.40001
1.46875
4.16563
5.34723
5.34494
5.35254
5.36611
5.38105
5.39487
5.40644
5.41585
5.42354
5.42963
5.43447
5.43884
5.44364
5.44905
5.45444
5.45878
5.46119
5.46147
5.46059
5.45952
5.45821
5.45626
5.45339
5.44835
5.44049
5.42966
5.41653
5.40196
5.38629
5.36934
5.35039
5.32818
5.30137
5.26883
5.23009
5.18368
5.12846
5.05738
4.96305
4.81761
4.58913
4.18002
3.26923
1.40001
1.40001
1.40001
1.40001
1.40001
1.40001
1.40001
1.40001
1.40001
1.40001
1.40001
1.40001
1.40001
1.40001
1.40001
1.40001
1.40001
1.40001
1.40001
1.40001
1.40001
1.40001
1.40001
1.40001
1.40001
1.40001
1.40001
1.40001
1.40001
1.40001
1.40001
1.40001
1.40001
1.40001
1.40001
1.40001
1.40001
1.40001
1.40001
1.40001
1.40001
1.40001
1.40001
1.40001
1.40001
1.40001
1.40001
1.40001
1.40001
1.40001
1.40001
1.40009
2.96656
5.1074
5.29936
5.3165
5.33404
5.34946
5.36492
5.37837
5.38842
5.39554
5.40069
5.40467
5.40823
5.41216
5.41658
5.42044
5.42275
5.42333
5.42147
5.41825
5.41468
5.41113
5.40687
5.40107
5.39281
5.3817
5.3672
5.34968
5.32983
5.30811
5.28432
5.25778
5.22682
5.18995
5.14431
5.08948
5.02106
4.93935
4.83219
4.69545
4.493
4.21617
3.68669
2.91945
1.40001
1.40001
1.40001
1.40001
1.40001
1.40001
1.40001
1.40001
1.40001
1.40001
1.40001
1.40001
1.40001
1.40001
1.40001
1.40001
1.40001
1.40001
1.40001
1.40001
1.40001
1.40001
1.40001
1.40001
1.40001
1.40001
1.40001
1.40001
1.40001
1.40001
1.40001
1.40001
1.40001
1.40001
1.40001
1.40001
1.40001
1.40001
1.40001
1.40001
1.40001
1.40001
1.40001
1.40001
1.40001
1.40001
1.40001
1.40001
1.40001
1.40001
1.40001
1.4
1.76493
4.60401
5.33928
5.32921
5.3325
5.33906
5.34944
5.35894
5.3657
5.37032
5.37359
5.37598
5.37781
5.37973
5.38214
5.38414
5.38482
5.38354
5.38
5.3743
5.3678
5.3615
5.3545
5.3458
5.33457
5.32012
5.30191
5.28015
5.25508
5.2273
5.19644
5.1624
5.12281
5.07663
5.01927
4.9504
4.86462
4.7615
4.63237
4.46685
4.25021
3.93947
3.49392
2.97552
1.40001
1.40001
1.40001
1.40001
1.40001
1.40001
1.40001
1.40001
1.40001
1.40001
1.40001
1.40001
1.40001
1.40001
1.40001
1.40001
1.40001
1.40001
1.40001
1.40001
1.40001
1.40001
1.40001
1.40001
1.40001
1.40001
1.40001
1.40001
1.40001
1.40001
1.40001
1.40001
1.40001
1.40001
1.40001
1.40001
1.40001
1.40001
1.40001
1.40001
1.40001
1.40001
1.40001
1.40001
1.40001
1.40001
1.40001
1.40001
1.40001
1.40001
1.40001
1.4
1.40881
3.35783
5.21197
5.30822
5.31747
5.3241
5.33069
5.3356
5.33891
5.34137
5.34312
5.34409
5.3444
5.34444
5.34483
5.34535
5.34466
5.34155
5.3361
5.32826
5.31922
5.31002
5.30022
5.28872
5.27464
5.25727
5.23584
5.21047
5.18063
5.14711
5.10928
5.06786
5.02045
4.96613
4.90022
4.82109
4.7247
4.60839
4.46823
4.29238
4.07515
3.7958
3.45892
3.07375
1.40001
1.40001
1.40001
1.40001
1.40001
1.40001
1.40001
1.40001
1.40001
1.40001
1.40001
1.40001
1.40001
1.40001
1.40001
1.40001
1.40001
1.40001
1.40001
1.40001
1.40001
1.40001
1.40001
1.40001
1.40001
1.40001
1.40001
1.40001
1.40001
1.40001
1.40001
1.40001
1.40001
1.40001
1.40001
1.40001
1.40001
1.40001
1.40001
1.40001
1.40001
1.40001
1.40001
1.40001
1.40001
1.40001
1.40001
1.40001
1.40001
1.40001
1.40001
1.40001
1.4
1.92697
4.72673
5.32138
5.31036
5.315
5.31799
5.31974
5.32089
5.3217
5.32185
5.32082
5.3181
5.31454
5.31088
5.30793
5.30509
5.30048
5.29353
5.28406
5.27258
5.26011
5.24687
5.23228
5.21529
5.19514
5.17078
5.14234
5.10867
5.07043
5.02676
4.97863
4.92466
4.86366
4.79231
4.70772
4.60698
4.48652
4.34535
4.17178
3.96974
3.7343
3.4731
3.17321
1.40001
1.40001
1.40001
1.40001
1.40001
1.40001
1.40001
1.40001
1.40001
1.40001
1.40001
1.40001
1.40001
1.40001
1.40001
1.40001
1.40001
1.40001
1.40001
1.40001
1.40001
1.40001
1.40001
1.40001
1.40001
1.40001
1.40001
1.40001
1.40001
1.40001
1.40001
1.40001
1.40001
1.40001
1.40001
1.40001
1.40001
1.40001
1.40001
1.40001
1.40001
1.40001
1.40001
1.40001
1.40001
1.40001
1.40001
1.40001
1.40001
1.40001
1.40001
1.40001
1.4
1.41833
3.39782
5.20371
5.28069
5.29036
5.29636
5.29949
5.30178
5.30349
5.30399
5.30168
5.29594
5.28814
5.27949
5.27196
5.26628
5.26023
5.25165
5.24016
5.22606
5.21024
5.19313
5.17494
5.15454
5.13141
5.10448
5.07377
5.03769
4.99628
4.94857
4.89535
4.83623
4.77036
4.69567
4.60936
4.50926
4.39144
4.25606
4.0956
3.91506
3.71462
3.50217
3.25811
1.40001
1.40001
1.40001
1.40001
1.40001
1.40001
1.40001
1.40001
1.40001
1.40001
1.40001
1.40001
1.40001
1.40001
1.40001
1.40001
1.40001
1.40001
1.40001
1.40001
1.40001
1.40001
1.40001
1.40001
1.40001
1.40001
1.40001
1.40001
1.40001
1.40001
1.40001
1.40001
1.40001
1.40001
1.40001
1.40001
1.40001
1.40001
1.40001
1.40001
1.40001
1.40001
1.40001
1.40001
1.40001
1.40001
1.40001
1.40001
1.40001
1.40001
1.40001
1.40001
1.4
1.40001
1.8623
4.66499
5.29337
5.28278
5.28515
5.28348
5.28324
5.28379
5.28399
5.28136
5.27436
5.26374
5.25115
5.23955
5.23002
5.22116
5.211
5.19828
5.1825
5.16381
5.14279
5.12053
5.0966
5.07078
5.04188
5.00961
4.97213
4.9289
4.87895
4.82273
4.76015
4.69092
4.61387
4.52715
4.42979
4.31691
4.19125
4.04802
3.88857
3.71647
3.53587
3.33184
1.40001
1.40001
1.40001
1.40001
1.40001
1.40001
1.40001
1.40001
1.40001
1.40001
1.40001
1.40001
1.40001
1.40001
1.40001
1.40001
1.40001
1.40001
1.40001
1.40001
1.40001
1.40001
1.40001
1.40001
1.40001
1.40001
1.40001
1.40001
1.40001
1.40001
1.40001
1.40001
1.40001
1.40001
1.40001
1.40001
1.40001
1.40001
1.40001
1.40001
1.40001
1.40001
1.40001
1.40001
1.40001
1.40001
1.40001
1.40001
1.40001
1.40001
1.40001
1.40001
1.40001
1.40001
1.41283
3.18657
5.08767
5.24043
5.2402
5.24324
5.24831
5.25289
5.25543
5.25522
5.24982
5.2385
5.22388
5.2096
5.19666
5.18484
5.17289
5.15905
5.14151
5.1199
5.09504
5.06847
5.0404
5.01134
4.98006
4.94605
4.9073
4.86313
4.81268
4.75583
4.69253
4.6223
4.54508
4.45897
4.36542
4.25832
4.14284
4.01594
3.8747
3.72568
3.56785
3.39517
1.40001
1.40001
1.40001
1.40001
1.40001
1.40001
1.40001
1.40001
1.40001
1.40001
1.40001
1.40001
1.40001
1.40001
1.40001
1.40001
1.40001
1.40001
1.40001
1.40001
1.40001
1.40001
1.40001
1.40001
1.40001
1.40001
1.40001
1.40001
1.40001
1.40001
1.40001
1.40001
1.40001
1.40001
1.40001
1.40001
1.40001
1.40001
1.40001
1.40001
1.40001
1.40001
1.40001
1.40001
1.40001
1.40001
1.40001
1.40001
1.40001
1.40001
1.40001
1.40001
1.40001
1.40001
1.4
1.61947
4.40915
5.27524
5.24351
5.23628
5.23181
5.23009
5.22847
5.22602
5.22021
5.20925
5.19516
5.18093
5.16608
5.1522
5.13785
5.12258
5.10381
5.08057
5.05329
5.02324
4.99103
4.95827
4.92437
4.88863
4.84854
4.80379
4.75356
4.69722
4.6349
4.56537
4.49041
4.40484
4.31494
4.21337
4.10615
3.99318
3.86635
3.73577
3.59554
3.44888
1.40001
1.40001
1.40001
1.40001
1.40001
1.40001
1.40001
1.40001
1.40001
1.40001
1.40001
1.40001
1.40001
1.40001
1.40001
1.40001
1.40001
1.40001
1.40001
1.40001
1.40001
1.40001
1.40001
1.40001
1.40001
1.40001
1.40001
1.40001
1.40001
1.40001
1.40001
1.40001
1.40001
1.40001
1.40001
1.40001
1.40001
1.40001
1.40001
1.40001
1.40001
1.40001
1.40001
1.40001
1.40001
1.40001
1.40001
1.40001
1.40001
1.40001
1.40001
1.40001
1.40001
1.40001
1.4
1.40252
2.78442
4.98445
5.17415
5.1849
5.19577
5.19543
5.19116
5.18631
5.18035
5.17085
5.15852
5.14497
5.12992
5.11538
5.09972
5.08356
5.06418
5.04032
5.01195
4.98003
4.94499
4.90935
4.87291
4.83507
4.79369
4.74849
4.69861
4.64315
4.58244
4.51502
4.44409
4.36033
4.27531
4.17995
4.08036
3.97795
3.86175
3.74597
3.61982
3.49256
1.40001
1.40001
1.40001
1.40001
1.40001
1.40001
1.40001
1.40001
1.40001
1.40001
1.40001
1.40001
1.40001
1.40001
1.40001
1.40001
1.40001
1.40001
1.40001
1.40001
1.40001
1.40001
1.40001
1.40001
1.40001
1.40001
1.40001
1.40001
1.40001
1.40001
1.40001
1.40001
1.40001
1.40001
1.40001
1.40001
1.40001
1.40001
1.40001
1.40001
1.40001
1.40001
1.40001
1.40001
1.40001
1.40001
1.40001
1.40001
1.40001
1.40001
1.40001
1.40001
1.40001
1.40001
1.40001
1.4
1.5248
3.80572
5.14443
5.1815
5.17815
5.1726
5.16685
5.15982
5.15214
5.14347
5.13274
5.11939
5.10427
5.0881
5.06996
5.05141
5.03025
5.00616
4.97746
4.9447
4.90833
4.87041
4.83088
4.79006
4.74705
4.70115
4.65163
4.59697
4.5376
4.47193
4.40356
4.32347
4.24371
4.15513
4.06351
3.96869
3.86237
3.7577
3.64231
3.52927
1.40001
1.40001
1.40001
1.40001
1.40001
1.40001
1.40001
1.40001
1.40001
1.40001
1.40001
1.40001
1.40001
1.40001
1.40001
1.40001
1.40001
1.40001
1.40001
1.40001
1.40001
1.40001
1.40001
1.40001
1.40001
1.40001
1.40001
1.40001
1.40001
1.40001
1.40001
1.40001
1.40001
1.40001
1.40001
1.40001
1.40001
1.40001
1.40001
1.40001
1.40001
1.40001
1.40001
1.40001
1.40001
1.40001
1.40001
1.40001
1.40001
1.40001
1.40001
1.40001
1.40001
1.40001
1.40001
1.4
1.40075
1.93809
4.64916
5.19669
5.16031
5.1557
5.14605
5.13551
5.12454
5.11317
5.10172
5.08865
5.07341
5.05633
5.03668
5.01603
4.99284
4.96821
4.94009
4.90728
4.87154
4.83357
4.79286
4.75052
4.70667
4.66021
4.61112
4.55725
4.49996
4.43473
4.36764
4.29239
4.2179
4.1361
4.05214
3.96344
3.86712
3.77019
3.66437
3.56111
1.40001
1.40001
1.40001
1.40001
1.40001
1.40001
1.40001
1.40001
1.40001
1.40001
1.40001
1.40001
1.40001
1.40001
1.40001
1.40001
1.40001
1.40001
1.40001
1.40001
1.40001
1.40001
1.40001
1.40001
1.40001
1.40001
1.40001
1.40001
1.40001
1.40001
1.40001
1.40001
1.40001
1.40001
1.40001
1.40001
1.40001
1.40001
1.40001
1.40001
1.40001
1.40001
1.40001
1.40001
1.40001
1.40001
1.40001
1.40001
1.40001
1.40001
1.40001
1.40001
1.40001
1.40001
1.40001
1.40001
1.40001
1.41666
2.93943
5.01582
5.13121
5.12731
5.1226
5.11315
5.10137
5.088
5.0738
5.05949
5.04376
5.02631
5.0063
4.98453
4.96013
4.93384
4.9062
4.87384
4.83822
4.80073
4.76052
4.71761
4.67375
4.62702
4.57806
4.52516
4.46911
4.40519
4.33935
4.26833
4.19801
4.1214
4.04342
3.96013
3.87283
3.78169
3.68574
3.59051
1.40001
1.40001
1.40001
1.40001
1.40001
1.40001
1.40001
1.40001
1.40001
1.40001
1.40001
1.40001
1.40001
1.40001
1.40001
1.40001
1.40001
1.40001
1.40001
1.40001
1.40001
1.40001
1.40001
1.40001
1.40001
1.40001
1.40001
1.40001
1.40001
1.40001
1.40001
1.40001
1.40001
1.40001
1.40001
1.40001
1.40001
1.40001
1.40001
1.40001
1.40001
1.40001
1.40001
1.40001
1.40001
1.40001
1.40001
1.40001
1.40001
1.40001
1.40001
1.40001
1.40001
1.40001
1.40001
1.40001
1.40001
1.40003
1.54455
3.65977
5.07624
5.12543
5.11667
5.1093
5.09631
5.07789
5.05847
5.0394
5.02029
5.0009
4.98059
4.95835
4.93294
4.90456
4.87493
4.84281
4.80711
4.76942
4.73018
4.68846
4.6452
4.5996
4.55114
4.49915
4.44381
4.38308
4.31906
4.25137
4.18387
4.11095
4.03679
3.95801
3.87755
3.79152
3.705
3.6167
1.40001
1.40001
1.40001
1.40001
1.40001
1.40001
1.40001
1.40001
1.40001
1.40001
1.40001
1.40001
1.40001
1.40001
1.40001
1.40001
1.40001
1.40001
1.40001
1.40001
1.40001
1.40001
1.40001
1.40001
1.40001
1.40001
1.40001
1.40001
1.40001
1.40001
1.40001
1.40001
1.40001
1.40001
1.40001
1.40001
1.40001
1.40001
1.40001
1.40001
1.40001
1.40001
1.40001
1.40001
1.40001
1.40001
1.40001
1.40001
1.40001
1.40001
1.40001
1.40001
1.40001
1.40001
1.40001
1.40001
1.40001
1.40001
1.40111
1.74684
4.31841
5.14847
5.12637
5.11063
5.08575
5.06241
5.0387
5.01641
4.99504
4.97412
4.95316
4.93121
4.90659
4.87801
4.84705
4.81497
4.77908
4.74152
4.70215
4.6614
4.61857
4.57479
4.52795
4.47762
4.42372
4.36618
4.30501
4.24067
4.17515
4.10539
4.03352
3.95842
3.88262
3.80164
3.72286
3.64097
1.40001
1.40001
1.40001
1.40001
1.40001
1.40001
1.40001
1.40001
1.40001
1.40001
1.40001
1.40001
1.40001
1.40001
1.40001
1.40001
1.40001
1.40001
1.40001
1.40001
1.40001
1.40001
1.40001
1.40001
1.40001
1.40001
1.40001
1.40001
1.40001
1.40001
1.40001
1.40001
1.40001
1.40001
1.40001
1.40001
1.40001
1.40001
1.40001
1.40001
1.40001
1.40001
1.40001
1.40001
1.40001
1.40001
1.40001
1.40001
1.40001
1.40001
1.40001
1.40001
1.40001
1.40001
1.40001
1.40001
1.40001
1.40001
1.40001
1.40645
2.32368
4.81718
5.12079
5.08548
5.06422
5.04126
5.01926
4.99707
4.97549
4.95436
4.93267
4.90979
4.88594
4.85796
4.82628
4.79338
4.75721
4.719
4.67952
4.63857
4.59652
4.55274
4.5071
4.45898
4.40722
4.35263
4.29447
4.23348
4.17008
4.10331
4.03332
3.96197
3.88944
3.81346
3.74015
3.66355
1.40001
1.40001
1.40001
1.40001
1.40001
1.40001
1.40001
1.40001
1.40001
1.40001
1.40001
1.40001
1.40001
1.40001
1.40001
1.40001
1.40001
1.40001
1.40001
1.40001
1.40001
1.40001
1.40001
1.40001
1.40001
1.40001
1.40001
1.40001
1.40001
1.40001
1.40001
1.40001
1.40001
1.40001
1.40001
1.40001
1.40001
1.40001
1.40001
1.40001
1.40001
1.40001
1.40001
1.40001
1.40001
1.40001
1.40001
1.40001
1.40001
1.40001
1.40001
1.40001
1.40001
1.40001
1.40001
1.40001
1.40001
1.40001
1.40001
1.40002
1.44856
3.03569
4.9739
5.05115
5.02714
5.01857
5.00488
4.98692
4.96548
4.94294
4.91969
4.89512
4.86938
4.84149
4.80995
4.77638
4.73985
4.70127
4.66132
4.62002
4.57771
4.534
4.48864
4.44151
4.39199
4.34045
4.28541
4.22765
4.16699
4.10306
4.03566
3.96894
3.89915
3.82803
3.75854
3.68641
1.40001
1.40001
1.40001
1.40001
1.40001
1.40001
1.40001
1.40001
1.40001
1.40001
1.40001
1.40001
1.40001
1.40001
1.40001
1.40001
1.40001
1.40001
1.40001
1.40001
1.40001
1.40001
1.40001
1.40001
1.40001
1.40001
1.40001
1.40001
1.40001
1.40001
1.40001
1.40001
1.40001
1.40001
1.40001
1.40001
1.40001
1.40001
1.40001
1.40001
1.40001
1.40001
1.40001
1.40001
1.40001
1.40001
1.40001
1.40001
1.40001
1.40001
1.40001
1.40001
1.40001
1.40001
1.40001
1.40001
1.40001
1.40001
1.40001
1.40001
1.40019
1.55996
3.46622
4.97475
5.00138
4.99648
4.99251
4.98045
4.96251
4.94037
4.91533
4.88844
4.8602
4.8304
4.79869
4.76473
4.72817
4.6895
4.64921
4.60751
4.56465
4.52073
4.47544
4.42791
4.37948
4.32988
4.27701
4.22151
4.16342
4.10235
4.03898
3.97637
3.9102
3.84379
3.77721
3.7091
1.40001
1.40001
1.40001
1.40001
1.40001
1.40001
1.40001
1.40001
1.40001
1.40001
1.40001
1.40001
1.40001
1.40001
1.40001
1.40001
1.40001
1.40001
1.40001
1.40001
1.40001
1.40001
1.40001
1.40001
1.40001
1.40001
1.40001
1.40001
1.40001
1.40001
1.40001
1.40001
1.40001
1.40001
1.40001
1.40001
1.40001
1.40001
1.40001
1.40001
1.40001
1.40001
1.40001
1.40001
1.40001
1.40001
1.40001
1.40001
1.40001
1.40001
1.40001
1.40001
1.40001
1.40001
1.40001
1.40001
1.40001
1.40001
1.40001
1.40001
1.40001
1.40147
1.6778
3.76458
4.98864
4.99595
4.98642
4.97258
4.95484
4.93362
4.90972
4.88306
4.85392
4.82301
4.79043
4.75601
4.71944
4.68106
4.6411
4.59969
4.55684
4.51282
4.46741
4.41957
4.37135
4.32239
4.27063
4.21667
4.16083
4.1024
4.04299
3.98355
3.92126
3.85896
3.79525
3.73081
1.40001
1.40001
1.40001
1.40001
1.40001
1.40001
1.40001
1.40001
1.40001
1.40001
1.40001
1.40001
1.40001
1.40001
1.40001
1.40001
1.40001
1.40001
1.40001
1.40001
1.40001
1.40001
1.40001
1.40001
1.40001
1.40001
1.40001
1.40001
1.40001
1.40001
1.40001
1.40001
1.40001
1.40001
1.40001
1.40001
1.40001
1.40001
1.40001
1.40001
1.40001
1.40001
1.40001
1.40001
1.40001
1.40001
1.40001
1.40001
1.40001
1.40001
1.40001
1.40001
1.40001
1.40001
1.40001
1.40001
1.40001
1.40001
1.40001
1.40001
1.40001
1.40001
1.40423
1.79385
4.03314
5.00049
4.99066
4.96956
4.94696
4.92423
4.89996
4.87336
4.84461
4.81413
4.78226
4.74836
4.7125
4.67485
4.6356
4.59489
4.55263
4.50909
4.46402
4.41665
4.36842
4.31937
4.26786
4.21436
4.15945
4.10291
4.04656
3.98958
3.93124
3.87265
3.81212
3.75084
1.40001
1.40001
1.40001
1.40001
1.40001
1.40001
1.40001
1.40001
1.40001
1.40001
1.40001
1.40001
1.40001
1.40001
1.40001
1.40001
1.40001
1.40001
1.40001
1.40001
1.40001
1.40001
1.40001
1.40001
1.40001
1.40001
1.40001
1.40001
1.40001
1.40001
1.40001
1.40001
1.40001
1.40001
1.40001
1.40001
1.40001
1.40001
1.40001
1.40001
1.40001
1.40001
1.40001
1.40001
1.40001
1.40001
1.40001
1.40001
1.40001
1.40001
1.40001
1.40001
1.40001
1.40001
1.40001
1.40001
1.40001
1.40001
1.40001
1.40001
1.40001
1.40001
1.40001
1.40841
1.92211
4.24708
5.00088
4.97995
4.95319
4.92606
4.89746
4.86828
4.8382
4.80747
4.77551
4.74183
4.70661
4.66995
4.63173
4.59192
4.55055
4.50784
4.46358
4.41726
4.3693
4.31992
4.26855
4.21528
4.16077
4.10621
4.05229
3.99729
3.94186
3.88584
3.82806
3.76943
1.40001
1.40001
1.40001
1.40001
1.40001
1.40001
1.40001
1.40001
1.40001
1.40001
1.40001
1.40001
1.40001
1.40001
1.40001
1.40001
1.40001
1.40001
1.40001
1.40001
1.40001
1.40001
1.40001
1.40001
1.40001
1.40001
1.40001
1.40001
1.40001
1.40001
1.40001
1.40001
1.40001
1.40001
1.40001
1.40001
1.40001
1.40001
1.40001
1.40001
1.40001
1.40001
1.40001
1.40001
1.40001
1.40001
1.40001
1.40001
1.40001
1.40001
1.40001
1.40001
1.40001
1.40001
1.40001
1.40001
1.40001
1.40001
1.40001
1.40001
1.40001
1.40001
1.40001
1.40003
1.41466
2.0527
4.39032
4.99733
4.97279
4.94093
4.90741
4.87468
4.84264
4.80913
4.77423
4.73879
4.703
4.66636
4.62847
4.58905
4.54835
4.50646
4.4632
4.41808
4.37115
4.32258
4.27233
4.22059
4.16766
4.11488
4.06205
4.00823
3.95441
3.90013
3.84441
3.78803
1.40001
1.40001
1.40001
1.40001
1.40001
1.40001
1.40001
1.40001
1.40001
1.40001
1.40001
1.40001
1.40001
1.40001
1.40001
1.40001
1.40001
1.40001
1.40001
1.40001
1.40001
1.40001
1.40001
1.40001
1.40001
1.40001
1.40001
1.40001
1.40001
1.40001
1.40001
1.40001
1.40001
1.40001
1.40001
1.40001
1.40001
1.40001
1.40001
1.40001
1.40001
1.40001