/*--------------------------------*- C++ -*----------------------------------*\
  =========                 |
  \\      /  F ield         | OpenFOAM: The Open Source CFD Toolbox
   \\    /   O peration     | Website:  https://openfoam.org
    \\  /    A nd           | Version:  7
     \\/     M anipulation  |
\*---------------------------------------------------------------------------*/
FoamFile
{
    version     2.0;
    format      ascii;
    class       volScalarField;
    location    "4";
    object      T;
}
// * * * * * * * * * * * * * * * * * * * * * * * * * * * * * * * * * * * * * //

dimensions      [0 0 0 1 0 0 0];

internalField   nonuniform List<scalar> 
19968
(
1
1
1
1
1
1
1
1
1
1
1
1
1
1
1
1
1
1
1
1
1
1
1
1
1
1
1
1
1
1
1
1
1
1
1
1
1
1
1
1
1
1
1
1
1
1
1
1
1.19312
2.41497
2.69474
2.69636
2.69939
2.70151
2.70397
2.70736
2.71184
2.71702
2.7222
2.72688
2.731
2.73475
2.73837
2.74196
2.74532
2.74827
2.75084
2.75327
2.75583
2.75875
2.76209
2.76557
2.76871
2.77118
2.77308
2.7748
2.7767
2.779
2.78166
2.78449
2.78736
2.79015
2.79277
2.79509
2.79696
2.79824
2.79893
2.79922
2.7994
2.79983
2.8008
2.80236
2.80431
2.80623
2.80768
2.80862
1
1
1
1
1
1
1
1
1
1
1
1
1
1
1
1
1
1
1
1
1
1
1
1
1
1
1
1
1
1
1
1
1
1
1
1
1
1
1
1
1
1
1
1
1
1
1
1
1.1801
2.40601
2.69385
2.69643
2.69929
2.7014
2.70383
2.7072
2.71169
2.71688
2.72207
2.72674
2.73083
2.73453
2.73811
2.74165
2.74498
2.74791
2.75048
2.75293
2.75553
2.75851
2.76191
2.76542
2.76856
2.77102
2.7729
2.77458
2.77645
2.77871
2.78134
2.78415
2.787
2.78979
2.7924
2.79471
2.79655
2.79782
2.79852
2.79884
2.79906
2.79952
2.80049
2.80203
2.80394
2.80583
2.80726
2.80817
1
1
1
1
1
1
1
1
1
1
1
1
1
1
1
1
1
1
1
1
1
1
1
1
1
1
1
1
1
1
1
1
1
1
1
1
1
1
1
1
1
1
1
1
1
1
1
1
1.15178
2.38627
2.69289
2.6957
2.69872
2.70099
2.70348
2.70689
2.71139
2.71654
2.72167
2.7263
2.73035
2.73402
2.73756
2.74107
2.74438
2.74732
2.74991
2.75239
2.75503
2.75808
2.76153
2.76508
2.76825
2.77072
2.77261
2.77427
2.7761
2.77831
2.78086
2.78362
2.78645
2.78922
2.79182
2.7941
2.79591
2.79714
2.79784
2.79818
2.79843
2.79891
2.79986
2.80135
2.80321
2.80505
2.80644
2.80733
1
1
1
1
1
1
1
1
1
1
1
1
1
1
1
1
1
1
1
1
1
1
1
1
1
1
1
1
1
1
1
1
1
1
1
1
1
1
1
1
1
1
1
1
1
1
1
1
1.10919
2.35699
2.69095
2.6946
2.69809
2.70083
2.7036
2.70712
2.71153
2.71644
2.72131
2.72574
2.72966
2.73324
2.73674
2.74021
2.74352
2.7465
2.74918
2.75175
2.75448
2.75759
2.76106
2.76459
2.76776
2.77025
2.77215
2.77381
2.77559
2.77772
2.78019
2.78287
2.78564
2.78838
2.79097
2.79322
2.795
2.79623
2.79694
2.79733
2.79763
2.79812
2.79902
2.8004
2.80212
2.80384
2.80514
2.80594
1
1
1
1
1
1
1
1
1
1
1
1
1
1
1
1
1
1
1
1
1
1
1
1
1
1
1
1
1
1
1
1
1
1
1
1
1
1
1
1
1
1
1
1
1
1
1
1
1.02039
2.30649
2.68877
2.69402
2.69771
2.70098
2.70398
2.70757
2.71185
2.71652
2.72109
2.72525
2.72898
2.73245
2.73589
2.73931
2.74263
2.74568
2.74848
2.7512
2.75405
2.75715
2.76052
2.76388
2.7669
2.76934
2.77125
2.77291
2.77466
2.7767
2.77904
2.78158
2.78424
2.78691
2.78944
2.79166
2.79342
2.79466
2.79544
2.79593
2.79634
2.7969
2.79782
2.79915
2.80078
2.80242
2.80364
2.80437
1
1
1
1
1
1
1
1
1
1
1
1
1
1
1
1
1
1
1
1
1
1
1
1
1
1
1
1
1
1
1
1
1
1
1
1
1
1
1
1
1
1
1
1
1
1
1
1
1.00021
2.2384
2.68426
2.69126
2.69502
2.69887
2.7023
2.70622
2.71066
2.71535
2.71984
2.72388
2.72746
2.73075
2.73402
2.73728
2.74047
2.74353
2.74646
2.74939
2.75245
2.75559
2.75883
2.76192
2.76473
2.76712
2.76911
2.77091
2.77278
2.77485
2.77712
2.77954
2.78207
2.78463
2.78712
2.78934
2.79113
2.79244
2.79333
2.79393
2.79445
2.79508
2.796
2.79727
2.7988
2.80032
2.80144
2.8021
1
1
1
1
1
1
1
1
1
1
1
1
1
1
1
1
1
1
1
1
1
1
1
1
1
1
1
1
1
1
1
1
1
1
1
1
1
1
1
1
1
1
1
1
1
1
1
1
1
2.14098
2.67806
2.68971
2.69314
2.69686
2.70044
2.70461
2.70926
2.7141
2.71873
2.72282
2.72628
2.72929
2.73222
2.73516
2.73811
2.74112
2.74421
2.74742
2.75079
2.7541
2.75728
2.7601
2.76263
2.76486
2.76686
2.76879
2.77079
2.77292
2.77512
2.77736
2.77966
2.78203
2.78438
2.78655
2.78835
2.78971
2.79067
2.79136
2.79197
2.79266
2.7936
2.79483
2.79628
2.79771
2.79876
2.79935
1
1
1
1
1
1
1
1
1
1
1
1
1
1
1
1
1
1
1
1
1
1
1
1
1
1
1
1
1
1
1
1
1
1
1
1
1
1
1
1
1
1
1
1
1
1
1
1
1
2.00623
2.66157
2.68573
2.68872
2.69237
2.69628
2.70089
2.70602
2.71133
2.71638
2.72079
2.72431
2.72712
2.72972
2.73227
2.73488
2.73774
2.74092
2.74438
2.7481
2.75165
2.75483
2.75742
2.75964
2.76167
2.76366
2.76573
2.76794
2.7702
2.77239
2.77447
2.77654
2.7787
2.78092
2.78304
2.78487
2.78627
2.78728
2.78801
2.78864
2.78932
2.79023
2.79139
2.79276
2.7941
2.79507
2.79561
1
1
1
1
1
1
1
1
1
1
1
1
1
1
1
1
1
1
1
1
1
1
1
1
1
1
1
1
1
1
1
1
1
1
1
1
1
1
1
1
1
1
1
1
1
1
1
1
1
1.82988
2.62751
2.67925
2.68167
2.68579
2.69033
2.69556
2.70126
2.70708
2.71263
2.71748
2.72127
2.72408
2.72646
2.72872
2.73102
2.73367
2.73684
2.74045
2.74444
2.74826
2.7515
2.75394
2.75585
2.75761
2.75949
2.76161
2.76396
2.76636
2.76857
2.77051
2.77235
2.77428
2.77635
2.7784
2.78023
2.78168
2.78274
2.7835
2.78416
2.78487
2.78578
2.78696
2.78832
2.78967
2.79063
2.7912
1
1
1
1
1
1
1
1
1
1
1
1
1
1
1
1
1
1
1
1
1
1
1
1
1
1
1
1
1
1
1
1
1
1
1
1
1
1
1
1
1
1
1
1
1
1
1
1
1
1.57776
2.55555
2.67306
2.67548
2.68007
2.68462
2.68985
2.69553
2.70143
2.7072
2.71239
2.71657
2.71965
2.7221
2.72432
2.7265
2.72897
2.73206
2.7357
2.73985
2.74392
2.74731
2.74978
2.75152
2.75308
2.75479
2.75685
2.75922
2.76169
2.76389
2.76573
2.76737
2.76909
2.77098
2.77293
2.77473
2.77618
2.7772
2.77789
2.77844
2.77901
2.77979
2.78087
2.78219
2.78353
2.78449
2.78507
1
1
1
1
1
1
1
1
1
1
1
1
1
1
1
1
1
1
1
1
1
1
1
1
1
1
1
1
1
1
1
1
1
1
1
1
1
1
1
1
1
1
1
1
1
1
1
1
1
1.25393
2.43169
2.67472
2.67325
2.67781
2.68125
2.68533
2.68998
2.69515
2.70055
2.70572
2.71017
2.71364
2.71641
2.71886
2.72116
2.72356
2.72647
2.72993
2.73396
2.73815
2.74173
2.74444
2.74621
2.74765
2.74916
2.75102
2.75327
2.7557
2.75791
2.75967
2.76112
2.76255
2.76415
2.76585
2.76746
2.76877
2.76969
2.77026
2.77069
2.77119
2.77195
2.77307
2.77448
2.77595
2.77702
2.7777
1
1
1
1
1
1
1
1
1
1
1
1
1
1
1
1
1
1
1
1
1
1
1
1
1
1
1
1
1
1
1
1
1
1
1
1
1
1
1
1
1
1
1
1
1
1
1
1
1
1.00664
2.24068
2.67586
2.67456
2.67569
2.67776
2.68063
2.68432
2.68867
2.69347
2.69832
2.70277
2.70652
2.70962
2.71232
2.71477
2.71712
2.71974
2.72282
2.7264
2.73042
2.73417
2.73722
2.73927
2.74078
2.74216
2.74376
2.74578
2.74809
2.75031
2.75211
2.7535
2.75476
2.75612
2.75761
2.75908
2.76029
2.76107
2.76143
2.76156
2.76169
2.76202
2.76272
2.76377
2.76499
2.76595
2.76657
1
1
1
1
1
1
1
1
1
1
1
1
1
1
1
1
1
1
1
1
1
1
1
1
1
1
1
1
1
1
1
1
1
1
1
1
1
1
1
1
1
1
1
1
1
1
1
1
1
1.00001
1.93545
2.63712
2.66499
2.66859
2.67284
2.6763
2.67958
2.68286
2.68639
2.69014
2.69389
2.6974
2.70054
2.70338
2.706
2.70839
2.71079
2.71349
2.71655
2.72019
2.72401
2.72738
2.7299
2.73164
2.733
2.73435
2.73599
2.738
2.74012
2.74193
2.74328
2.74434
2.74535
2.74641
2.74743
2.7482
2.7485
2.74832
2.74797
2.74771
2.74778
2.74841
2.74942
2.75062
2.75145
2.75202
1
1
1
1
1
1
1
1
1
1
1
1
1
1
1
1
1
1
1
1
1
1
1
1
1
1
1
1
1
1
1
1
1
1
1
1
1
1
1
1
1
1
1
1
1
1
1
1
1
1
1.44274
2.48254
2.64616
2.65607
2.66486
2.66944
2.67302
2.67619
2.67939
2.68277
2.68626
2.68967
2.69281
2.69566
2.69826
2.70061
2.70277
2.70501
2.70747
2.71037
2.71373
2.717
2.71968
2.72151
2.72277
2.72375
2.72484
2.7263
2.72806
2.7297
2.73091
2.7317
2.73227
2.73282
2.73333
2.73359
2.73355
2.73319
2.73253
2.73183
2.73123
2.73078
2.73003
2.72879
2.72697
2.72526
1
1
1
1
1
1
1
1
1
1
1
1
1
1
1
1
1
1
1
1
1
1
1
1
1
1
1
1
1
1
1
1
1
1
1
1
1
1
1
1
1
1
1
1
1
1
1
1
1
1
1.01705
2.18338
2.65191
2.65387
2.65564
2.65849
2.66162
2.66494
2.66835
2.67187
2.67545
2.67895
2.68221
2.68512
2.68774
2.69007
2.69215
2.69412
2.69617
2.69843
2.70113
2.70406
2.70669
2.70859
2.70974
2.71041
2.71103
2.71188
2.71282
2.71398
2.71486
2.71521
2.71518
2.71495
2.71443
2.71358
2.71228
2.71038
2.70784
2.70474
2.7014
2.69813
2.69544
2.69285
2.69113
2.69015
1
1
1
1
1
1
1
1
1
1
1
1
1
1
1
1
1
1
1
1
1
1
1
1
1
1
1
1
1
1
1
1
1
1
1
1
1
1
1
1
1
1
1
1
1
1
1
1
1
1
1.00002
1.64342
2.53196
2.63629
2.63947
2.64304
2.64675
2.65084
2.65499
2.659
2.66284
2.66652
2.6699
2.6729
2.67552
2.67783
2.67986
2.6817
2.6835
2.68536
2.68745
2.68979
2.69204
2.69376
2.69475
2.69523
2.69536
2.6952
2.69518
2.6953
2.69535
2.69505
2.6942
2.69277
2.69078
2.68825
2.68517
2.68148
2.67717
2.67231
2.66697
2.66158
2.65677
2.65537
2.65304
2.66733
1
1
1
1
1
1
1
1
1
1
1
1
1
1
1
1
1
1
1
1
1
1
1
1
1
1
1
1
1
1
1
1
1
1
1
1
1
1
1
1
1
1
1
1
1
1
1
1
1
1
1
1.04357
2.30008
2.6394
2.63826
2.63898
2.64075
2.64323
2.64624
2.64948
2.65275
2.65595
2.65895
2.6616
2.66391
2.66594
2.66779
2.6695
2.67114
2.67279
2.67446
2.6761
2.67782
2.67923
2.67999
2.68016
2.67983
2.67906
2.67809
2.67712
2.67612
2.67485
2.673
2.67034
2.66675
2.66221
2.6566
2.6498
2.64132
2.63065
2.61608
2.59627
2.56715
2.52551
2.46237
2.33346
1
1
1
1
1
1
1
1
1
1
1
1
1
1
1
1
1
1
1
1
1
1
1
1
1
1
1
1
1
1
1
1
1
1
1
1
1
1
1
1
1
1
1
1
1
1
1
1
1
1
1
1.00012
1.91064
2.57981
2.62276
2.62703
2.63094
2.63425
2.63786
2.64148
2.64469
2.64744
2.64986
2.65201
2.65395
2.65573
2.65741
2.65894
2.6604
2.66185
2.66298
2.66414
2.66536
2.66636
2.66679
2.66666
2.66603
2.66482
2.66313
2.66116
2.65904
2.65664
2.65366
2.64977
2.64464
2.63812
2.62981
2.61968
2.60671
2.59061
2.56854
2.53933
2.49604
2.43846
2.3293
2.1656
1
1
1
1
1
1
1
1
1
1
1
1
1
1
1
1
1
1
1
1
1
1
1
1
1
1
1
1
1
1
1
1
1
1
1
1
1
1
1
1
1
1
1
1
1
1
1
1
1
1
1
1
1.26251
2.38607
2.60613
2.61318
2.61802
2.62262
2.62774
2.63247
2.63616
2.63888
2.64099
2.64279
2.64437
2.6458
2.64714
2.64839
2.64957
2.65049
2.6512
2.65177
2.6523
2.65268
2.65268
2.65229
2.65128
2.64958
2.64725
2.64442
2.64118
2.63753
2.63321
2.62801
2.62134
2.61303
2.60228
2.58911
2.57236
2.55164
2.52477
2.48896
2.44091
2.36988
2.26385
2.13607
1
1
1
1
1
1
1
1
1
1
1
1
1
1
1
1
1
1
1
1
1
1
1
1
1
1
1
1
1
1
1
1
1
1
1
1
1
1
1
1
1
1
1
1
1
1
1
1
1
1
1
1
1.00576
2.04526
2.58687
2.59652
2.60102
2.60654
2.61291
2.61877
2.62329
2.62656
2.62905
2.63116
2.63308
2.63479
2.63631
2.63758
2.63844
2.63881
2.63898
2.6389
2.63875
2.63855
2.63813
2.63727
2.6358
2.63365
2.63079
2.62727
2.62302
2.61814
2.61239
2.60576
2.59764
2.58778
2.57527
2.5598
2.54055
2.51674
2.48719
2.4487
2.39943
2.333
2.24798
2.14826
1
1
1
1
1
1
1
1
1
1
1
1
1
1
1
1
1
1
1
1
1
1
1
1
1
1
1
1
1
1
1
1
1
1
1
1
1
1
1
1
1
1
1
1
1
1
1
1
1
1
1
1
1
1.36461
2.4145
2.58061
2.58696
2.59359
2.59955
2.60475
2.60896
2.61232
2.61525
2.61799
2.62051
2.62286
2.62484
2.62629
2.62705
2.62704
2.6268
2.62627
2.62554
2.62471
2.62371
2.62233
2.62034
2.61769
2.61425
2.6101
2.60502
2.5991
2.59208
2.58405
2.57463
2.56347
2.54986
2.53316
2.51274
2.48769
2.45756
2.41918
2.37282
2.31638
2.25076
2.17102
1
1
1
1
1
1
1
1
1
1
1
1
1
1
1
1
1
1
1
1
1
1
1
1
1
1
1
1
1
1
1
1
1
1
1
1
1
1
1
1
1
1
1
1
1
1
1
1
1
1
1
1
1
1.01149
2.05628
2.57292
2.58008
2.58385
2.58781
2.59139
2.59453
2.59743
2.6004
2.60334
2.60625
2.6092
2.61174
2.6135
2.61432
2.61429
2.61384
2.61293
2.61174
2.61044
2.60895
2.60711
2.60462
2.60138
2.59734
2.59259
2.5869
2.58021
2.57225
2.56309
2.55255
2.54037
2.52607
2.50897
2.48857
2.46384
2.43469
2.39898
2.35741
2.30944
2.2566
2.19294
1
1
1
1
1
1
1
1
1
1
1
1
1
1
1
1
1
1
1
1
1
1
1
1
1
1
1
1
1
1
1
1
1
1
1
1
1
1
1
1
1
1
1
1
1
1
1
1
1
1
1
1
1
1.00001
1.31997
2.39021
2.57603
2.57679
2.5796
2.58134
2.58275
2.58429
2.58632
2.58872
2.59149
2.59461
2.59749
2.59943
2.60006
2.59998
2.5995
2.59854
2.59729
2.59586
2.59416
2.59209
2.58932
2.58574
2.58123
2.57597
2.56975
2.5625
2.55393
2.54401
2.53265
2.51968
2.50482
2.48759
2.46772
2.44396
2.41681
2.38492
2.34825
2.30709
2.26271
2.21077
1
1
1
1
1
1
1
1
1
1
1
1
1
1
1
1
1
1
1
1
1
1
1
1
1
1
1
1
1
1
1
1
1
1
1
1
1
1
1
1
1
1
1
1
1
1
1
1
1
1
1
1
1
1
1.00811
1.9799
2.55064
2.56693
2.56752
2.56865
2.56994
2.57132
2.57305
2.57542
2.57785
2.58052
2.58311
2.5847
2.58482
2.58456
2.58388
2.5829
2.58167
2.58024
2.57856
2.57649
2.57367
2.56994
2.56513
2.55942
2.55268
2.54497
2.53609
2.52591
2.51428
2.50099
2.48599
2.46877
2.44965
2.42709
2.40217
2.37401
2.3417
2.30664
2.26816
2.22486
1
1
1
1
1
1
1
1
1
1
1
1
1
1
1
1
1
1
1
1
1
1
1
1
1
1
1
1
1
1
1
1
1
1
1
1
1
1
1
1
1
1
1
1
1
1
1
1
1
1
1
1
1
1
1
1.15251
2.3245
2.5681
2.56159
2.56138
2.56123
2.56158
2.56237
2.56378
2.5656
2.56759
2.5695
2.57037
2.57002
2.56923
2.56795
2.56667
2.56539
2.56408
2.56261
2.56074
2.55806
2.55442
2.54961
2.54371
2.5366
2.52854
2.5195
2.50929
2.49781
2.48463
2.47005
2.45284
2.43437
2.41292
2.3898
2.36486
2.33607
2.30566
2.27195
2.23575
1
1
1
1
1
1
1
1
1
1
1
1
1
1
1
1
1
1
1
1
1
1
1
1
1
1
1
1
1
1
1
1
1
1
1
1
1
1
1
1
1
1
1
1
1
1
1
1
1
1
1
1
1
1
1
1.00157
1.78922
2.48679
2.53669
2.54331
2.54756
2.54959
2.55
2.55095
2.55249
2.55413
2.55541
2.55536
2.55467
2.55345
2.55165
2.54993
2.54838
2.547
2.5456
2.54393
2.54148
2.53816
2.53362
2.52778
2.52056
2.51234
2.50324
2.49316
2.48205
2.46941
2.45579
2.43898
2.42151
2.40132
2.37979
2.35725
2.33094
2.30418
2.27421
2.24331
1
1
1
1
1
1
1
1
1
1
1
1
1
1
1
1
1
1
1
1
1
1
1
1
1
1
1
1
1
1
1
1
1
1
1
1
1
1
1
1
1
1
1
1
1
1
1
1
1
1
1
1
1
1
1
1
1.08018
2.15713
2.53059
2.53698
2.53696
2.53742
2.53825
2.53927
2.5407
2.54237
2.54348
2.54313
2.54214
2.54049
2.53806
2.53558
2.53324
2.53143
2.52972
2.52788
2.52548
2.52231
2.51788
2.51208
2.50492
2.49669
2.48769
2.47779
2.46711
2.4551
2.44233
2.42659
2.41042
2.39177
2.37198
2.35107
2.32697
2.30294
2.27576
2.2487
1
1
1
1
1
1
1
1
1
1
1
1
1
1
1
1
1
1
1
1
1
1
1
1
1
1
1
1
1
1
1
1
1
1
1
1
1
1
1
1
1
1
1
1
1
1
1
1
1
1
1
1
1
1
1
1
1.00043
1.35294
2.33636
2.5184
2.51672
2.51979
2.52225
2.52432
2.52621
2.52805
2.5295
2.52943
2.52871
2.52714
2.52458
2.52159
2.51846
2.51599
2.51383
2.51154
2.50907
2.50599
2.5017
2.49608
2.48917
2.48108
2.47227
2.46262
2.45256
2.44097
2.42894
2.41475
2.40018
2.38337
2.36547
2.34598
2.32429
2.30203
2.27721
2.25268
1
1
1
1
1
1
1
1
1
1
1
1
1
1
1
1
1
1
1
1
1
1
1
1
1
1
1
1
1
1
1
1
1
1
1
1
1
1
1
1
1
1
1
1
1
1
1
1
1
1
1
1
1
1
1
1
1
1.01003
1.83059
2.45619
2.49692
2.50272
2.50641
2.5086
2.51057
2.51252
2.51424
2.51499
2.51469
2.51364
2.51151
2.50857
2.50516
2.502
2.49943
2.49667
2.49373
2.49045
2.4862
2.48061
2.47394
2.46599
2.4573
2.44792
2.43824
2.4272
2.41586
2.40319
2.39021
2.37518
2.35912
2.34116
2.3217
2.30086
2.27849
2.25599
1
1
1
1
1
1
1
1
1
1
1
1
1
1
1
1
1
1
1
1
1
1
1
1
1
1
1
1
1
1
1
1
1
1
1
1
1
1
1
1
1
1
1
1
1
1
1
1
1
1
1
1
1
1
1
1
1
1.00001
1.09417
2.08191
2.47516
2.49681
2.49648
2.49766
2.49853
2.49915
2.50009
2.50067
2.50054
2.49985
2.49827
2.49577
2.4925
2.48899
2.48586
2.48282
2.47944
2.47572
2.47136
2.46589
2.45935
2.45169
2.44313
2.4339
2.42432
2.41401
2.40328
2.39178
2.38005
2.36657
2.35209
2.33574
2.31827
2.29891
2.27894
2.25828
1
1
1
1
1
1
1
1
1
1
1
1
1
1
1
1
1
1
1
1
1
1
1
1
1
1
1
1
1
1
1
1
1
1
1
1
1
1
1
1
1
1
1
1
1
1
1
1
1
1
1
1
1
1
1
1
1
1
1.00062
1.23231
2.23548
2.47759
2.48105
2.48368
2.483
2.48321
2.48364
2.48419
2.48432
2.48403
2.48304
2.48127
2.47875
2.47564
2.47247
2.46948
2.46596
2.46205
2.45744
2.45198
2.44544
2.43814
2.42989
2.4209
2.41144
2.40162
2.39142
2.38073
2.36975
2.3575
2.34419
2.32933
2.31364
2.29607
2.27839
2.25963
1
1
1
1
1
1
1
1
1
1
1
1
1
1
1
1
1
1
1
1
1
1
1
1
1
1
1
1
1
1
1
1
1
1
1
1
1
1
1
1
1
1
1
1
1
1
1
1
1
1
1
1
1
1
1
1
1
1
1
1.00376
1.5407
2.33959
2.45881
2.45731
2.45962
2.46174
2.46381
2.46548
2.46665
2.4669
2.4666
2.46561
2.4641
2.46187
2.45915
2.45643
2.45312
2.4492
2.44461
2.43913
2.43279
2.42555
2.41759
2.40901
2.39981
2.39034
2.38046
2.37025
2.35964
2.34818
2.33555
2.3222
2.30796
2.29225
2.27659
2.25948
1
1
1
1
1
1
1
1
1
1
1
1
1
1
1
1
1
1
1
1
1
1
1
1
1
1
1
1
1
1
1
1
1
1
1
1
1
1
1
1
1
1
1
1
1
1
1
1
1
1
1
1
1
1
1
1
1
1
1
1
1.02886
1.84264
2.40599
2.44358
2.44104
2.44317
2.44544
2.44744
2.44879
2.44938
2.44931
2.44882
2.4479
2.4466
2.44473
2.44256
2.43974
2.43621
2.43189
2.42665
2.42056
2.41362
2.40594
2.39771
2.38897
2.37996
2.37044
2.36057
2.35023
2.33914
2.32717
2.31505
2.30181
2.28773
2.27353
2.25823
1
1
1
1
1
1
1
1
1
1
1
1
1
1
1
1
1
1
1
1
1
1
1
1
1
1
1
1
1
1
1
1
1
1
1
1
1
1
1
1
1
1
1
1
1
1
1
1
1
1
1
1
1
1
1
1
1
1
1
1
1.00009
1.10372
1.98598
2.40889
2.43197
2.43276
2.43417
2.43451
2.43476
2.43457
2.43397
2.43306
2.43198
2.43082
2.42947
2.42779
2.42552
2.42253
2.4187
2.41395
2.40831
2.40188
2.39471
2.38681
2.3786
2.37013
2.36104
2.35146
2.34139
2.33064
2.31931
2.30799
2.29558
2.28276
2.26952
2.25561
1
1
1
1
1
1
1
1
1
1
1
1
1
1
1
1
1
1
1
1
1
1
1
1
1
1
1
1
1
1
1
1
1
1
1
1
1
1
1
1
1
1
1
1
1
1
1
1
1
1
1
1
1
1
1
1
1
1
1
1
1
1.00078
1.18223
2.06223
2.39664
2.42493
2.42476
2.42429
2.42347
2.42243
2.42126
2.41984
2.4182
2.4165
2.41476
2.41288
2.41064
2.40792
2.40453
2.40036
2.39534
2.38955
2.38305
2.37572
2.36811
2.36026
2.35174
2.34267
2.33309
2.32284
2.31223
2.30141
2.2897
2.27772
2.26514
2.25217
1
1
1
1
1
1
1
1
1
1
1
1
1
1
1
1
1
1
1
1
1
1
1
1
1
1
1
1
1
1
1
1
1
1
1
1
1
1
1
1
1
1
1
1
1
1
1
1
1
1
1
1
1
1
1
1
1
1
1
1
1
1
1.00232
1.25401
2.11827
2.38472
2.41164
2.41133
2.41083
2.41013
2.40904
2.40755
2.40578
2.40379
2.40164
2.39921
2.39654
2.39355
2.39015
2.38621
2.38161
2.37638
2.37052
2.36391
2.35697
2.34974
2.34188
2.33344
2.32449
2.31493
2.30513
2.29488
2.28398
2.27272
2.26076
2.24842
1
1
1
1
1
1
1
1
1
1
1
1
1
1
1
1
1
1
1
1
1
1
1
1
1
1
1
1
1
1
1
1
1
1
1
1
1
1
1
1
1
1
1
1
1
1
1
1
1
1
1
1
1
1
1
1
1
1
1
1
1
1
1
1.00466
1.32735
2.15868
2.37308
2.39108
2.39381
2.39482
2.39459
2.39407
2.39307
2.39157
2.38946
2.38678
2.38373
2.38041
2.37675
2.37266
2.36807
2.36303
2.3575
2.35145
2.345
2.33824
2.33101
2.32327
2.31507
2.30657
2.29777
2.28826
2.2782
2.26759
2.25624
2.24446
1
1
1
1
1
1
1
1
1
1
1
1
1
1
1
1
1
1
1
1
1
1
1
1
1
1
1
1
1
1
1
1
1
1
1
1
1
1
1
1
1
1
1
1
1
1
1
1
1
1
1
1
1
1
1
1
1
1
1
1
1
1
1
1.00001
1.00824
1.39592
2.18622
2.35913
2.37082
2.37434
2.37622
2.37756
2.37795
2.37731
2.37578
2.37356
2.37084
2.36765
2.36398
2.35979
2.35514
2.3501
2.34468
2.33888
2.33278
2.32643
2.31982
2.31288
2.30556
2.29797
2.28994
2.28118
2.27189
2.26199
2.25133
2.24021
1
1
1
1
1
1
1
1
1
1
1
1
1
1
1
1
1
1
1
1
1
1
1
1
1
1
1
1
1
1
1
1
1
1
1
1
1
1
1
1
1
1
1
1
1
1
1
1
1
1
1
1
1
1
1
1
1
1
1
1
1
1
1
1
1.00002
1.0131
1.45057
2.20416
2.34669
2.35277
2.35499
2.35732
2.35878
2.35947
2.35912
2.35809
2.3563
2.35374
2.35046
2.34663
2.34231
2.33754
2.33232
2.32674
2.32093
2.31492
2.30868
2.3022
2.29546
2.2885
2.28107
2.27302
2.2645
2.2553
2.24533
2.23504
1
1
1
1
1
1
1
1
1
1
1
1
1
1
1
1
1
1
1
1
1
1
1
1
1
1
1
1
1
1
1
1
1
1
1
1
1
1
1
1
1
1
1
1
1
1
1
1
1
1
1
1
1
1
1
1
1
1
1
1
1
1
1
1
1
1.00003
1.01832
1.4922
2.21401
2.335
2.33835
2.33824
2.33891
2.33917
2.33938
2.33925
2.33861
2.33722
2.33509
2.3323
2.32886
2.32478
2.32012
2.31501
2.30951
2.30377
2.29785
2.29167
2.28528
2.27878
2.27185
2.26425
2.25617
2.24769
2.23852
2.22887
1
1
1
1
1
1
1
1
1
1
1
1
1
1
1
1
1
1
1
1
1
1
1
1
1
1
1
1
1
1
1
1
1
1
1
1
1
1
1
1
1
1
1
1
1
1
1
1
1
1
1
1
1
1
1
1
1
1
1
1
1
1
1
1
1
1
1.00005
1.02326
1.51962
2.21443
2.32562
2.32509
2.32293
2.32184
2.32072
2.31997
2.31912
2.31819
2.31702
2.31539
2.31316
2.31021
2.30658
2.30237
2.29761
2.29237
2.28683
2.28109
2.27504
2.26871
2.26219
2.25505
2.2472
2.23922
2.2307
2.222
1
1
1
1
1
1
1
1
1
1
1
1
1
1
1
1
1
1
1
1
1
1
1
1
1
1
1
1
1
1
1
1
1
1
1
1
1
1
1
1
1
1
1
1
1
1
1
1
1
1
1
1
1
1
1
1
1
1
1
1
1
1
1
1
1
1
1
1.00008
1.02708
1.53051
2.20816
2.3141
2.31278
2.30936
2.30711
2.30461
2.30235
2.30046
2.29889
2.29736
2.29563
2.29356
2.29095
2.28767
2.2838
2.27945
2.27465
2.26965
2.26427
2.2584
2.25208
2.2454
2.23826
2.23045
2.22274
2.21486
1
1
1
1
1
1
1
1
1
1
1
1
1
1
1
1
1
1
1
1
1
1
1
1
1
1
1
1
1
1
1
1
1
1
1
1
1
1
1
1
1
1
1
1
1
1
1
1
1
1
1
1
1
1
1
1
1
1
1
1
1
1
1
1
1
1
1
1
1.0001
1.02887
1.52461
2.18956
2.30231
2.30142
2.29716
2.2937
2.29032
2.28716
2.28429
2.2818
2.27938
2.27684
2.27422
2.27132
2.268
2.26448
2.26063
2.25628
2.25156
2.24657
2.241
2.23515
2.22883
2.22185
2.2146
2.20677
1
1
1
1
1
1
1
1
1
1
1
1
1
1
1
1
1
1
1
1
1
1
1
1
1
1
1
1
1
1
1
1
1
1
1
1
1
1
1
1
1
1
1
1
1
1
1
1
1
1
1
1
1
1
1
1
1
1
1
1
1
1
1
1
1
1
1
1
1
1.00011
1.02804
1.49958
2.16243
2.28657
2.28838
2.28498
2.28124
2.27753
2.27407
2.27051
2.26684
2.26319
2.25962
2.25622
2.25266
2.24885
2.24493
2.24095
2.23689
2.23288
2.22859
2.22363
2.21812
2.21213
2.20565
2.19892
1
1
1
1
1
1
1
1
1
1
1
1
1
1
1
1
1
1
1
1
1
1
1
1
1
1
1
1
1
1
1
1
1
1
1
1
1
1
1
1
1
1
1
1
1
1
1
1
1
1
1
1
1
1
1
1
1
1
1
1
1
1
1
1
1
1
1
1
1
1
1.00011
1.02459
1.46331
2.10799
2.2761
2.27854
2.27393
2.27011
2.2656
2.26101
2.25696
2.25312
2.24879
2.24422
2.23969
2.23526
2.23099
2.22687
2.22284
2.21876
2.21464
2.21041
2.20598
2.20127
2.19617
2.19045
1
1
1
1
1
1
1
1
1
1
1
1
1
1
1
1
1
1
1
1
1
1
1
1
1
1
1
1
1
1
1
1
1
1
1
1
1
1
1
1
1
1
1
1
1
1
1
1
1
1
1
1
1
1
1
1
1
1
1
1
1
1
1
1
1
1
1
1
1
1
1
1.00009
1.02035
1.39762
2.05287
2.24483
2.26835
2.26332
2.25905
2.25412
2.24921
2.24419
2.2393
2.23462
2.22984
2.22514
2.22047
2.21582
2.21123
2.20663
2.20245
2.19819
2.19375
2.1894
2.1845
2.17983
1
1
1
1
1
1
1
1
1
1
1
1
1
1
1
1
1
1
1
1
1
1
1
1
1
1
1
1
1
1
1
1
1
1
1
1
1
1
1
1
1
1
1
1
1
1
1
1
1
1
1
1
1
1
1
1
1
1
1
1
1
1
1
1
1
1
1
1
1
1
1
1
1.00007
1.01409
1.33016
1.9593
2.2173
2.25414
2.24816
2.24499
2.24142
2.23727
2.23262
2.22749
2.2222
2.21729
2.21276
2.20838
2.20373
2.19875
2.19361
2.18844
2.18336
2.17831
2.17351
2.16884
1
1
1
1
1
1
1
1
1
1
1
1
1
1
1
1
1
1
1
1
1
1
1
1
1
1
1
1
1
1
1
1
1
1
1
1
1
1
1
1
1
1
1
1
1
1
1
1
1
1
1
1
1
1
1
1
1
1
1
1
1
1
1
1
1
1
1
1
1
1
1
1
1
1.00004
1.00907
1.24734
1.84173
2.18006
2.23503
2.2321
2.23043
2.228
2.22504
2.22139
2.21737
2.21291
2.20804
2.20294
2.19773
2.19243
2.18698
2.18155
2.17605
2.17041
2.16466
2.1589
1
1
1
1
1
1
1
1
1
1
1
1
1
1
1
1
1
1
1
1
1
1
1
1
1
1
1
1
1
1
1
1
1
1
1
1
1
1
1
1
1
1
1
1
1
1
1
1
1
1
1
1
1
1
1
1
1
1
1
1
1
1
1
1
1
1
1
1
1
1
1
1
1
1
1.00002
1.00501
1.16215
1.71559
2.1321
2.21263
2.21451
2.21396
2.21266
2.2108
2.20822
2.20503
2.20129
2.19692
2.192
2.18676
2.18131
2.17574
2.17007
2.16406
2.15812
2.15212
1
1
1
1
1
1
1
1
1
1
1
1
1
1
1
1
1
1
1
1
1
1
1
1
1
1
1
1
1
1
1
1
1
1
1
1
1
1
1
1
1
1
1
1
1
1
1
1
1
1
1
1
1
1
1
1
1
1
1
1
1
1
1
1
1
1
1
1
1
1
1
1
1
1
1
1.00001
1.00228
1.09527
1.58559
2.07608
2.17912
2.20187
2.19548
2.19531
2.19447
2.19285
2.19052
2.18751
2.18384
2.17972
2.17521
2.17031
2.16486
2.15909
2.15311
2.14671
1
1
1
1
1
1
1
1
1
1
1
1
1
1
1
1
1
1
1
1
1
1
1
1
1
1
1
1
1
1
1
1
1
1
1
1
1
1
1
1
1
1
1
1
1
1
1
1
1
1
1
1
1
1
1
1
1
1
1
1
1
1
1
1
1
1
1
1
1
1
1
1
1
1
1
1
1
1.00091
1.04987
1.45932
1.9804
2.15283
2.18525
2.17993
2.17892
2.17792
2.17669
2.17481
2.17244
2.16963
2.16628
2.16256
2.15818
2.15315
2.14764
2.14204
1
1
1
1
1
1
1
1
1
1
1
1
1
1
1
1
1
1
1
1
1
1
1
1
1
1
1
1
1
1
1
1
1
1
1
1
1
1
1
1
1
1
1
1
1
1
1
1
1
1
1
1
1
1
1
1
1
1
1
1
1
1
1
1
1
1
1
1
1
1
1
1
1
1
1
1
1
1
1.00032
1.02356
1.32514
1.85131
2.11974
2.16703
2.16506
2.16254
2.16116
2.16002
2.15843
2.15642
2.15431
2.15176
2.14844
2.1447
2.14058
2.13609
1
1
1
1
1
1
1
1
1
1
1
1
1
1
1
1
1
1
1
1
1
1
1
1
1
1
1
1
1
1
1
1
1
1
1
1
1
1
1
1
1
1
1
1
1
1
1
1
1
1
1
1
1
1
1
1
1
1
1
1
1
1
1
1
1
1
1
1
1
1
1
1
1
1
1
1
1
1
1
1.0001
1.00984
1.19629
1.69271
2.07318
2.13683
2.15305
2.14732
2.1452
2.1441
2.1429
2.1411
2.13887
2.13645
2.13367
2.1308
2.12762
1
1
1
1
1
1
1
1
1
1
1
1
1
1
1
1
1
1
1
1
1
1
1
1
1
1
1
1
1
1
1
1
1
1
1
1
1
1
1
1
1
1
1
1
1
1
1
1
1
1
1
1
1
1
1
1
1
1
1
1
1
1
1
1
1
1
1
1
1
1
1
1
1
1
1
1
1
1
1
1
1.00003
1.00348
1.09673
1.53427
1.9792
2.11151
2.13835
2.13488
2.13189
2.12995
2.12803
2.12558
2.12309
2.12093
2.11869
2.11619
1
1
1
1
1
1
1
1
1
1
1
1
1
1
1
1
1
1
1
1
1
1
1
1
1
1
1
1
1
1
1
1
1
1
1
1
1
1
1
1
1
1
1
1
1
1
1
1
1
1
1
1
1
1
1
1
1
1
1
1
1
1
1
1
1
1
1
1
1
1
1
1
1
1
1
1
1
1
1
1
1
1.00001
1.001
1.04023
1.37018
1.84279
2.08012
2.12479
2.12422
2.11831
2.11365
2.11154
2.11027
2.10853
2.10576
2.10334
1
1
1
1
1
1
1
1
1
1
1
1
1
1
1
1
1
1
1
1
1
1
1
1
1
1
1
1
1
1
1
1
1
1
1
1
1
1
1
1
1
1
1
1
1
1
1
1
1
1
1
1
1
1
1
1
1
1
1
1
1
1
1
1
1
1
1
1
1
1
1
1
1
1
1
1
1
1
1
1
1
1
1
1.00023
1.01443
1.21198
1.67345
2.02791
2.09793
2.10891
2.10455
2.1011
2.09898
2.09715
2.09541
2.09249
1
1
1
1
1
1
1
1
1
1
1
1
1
1
1
1
1
1
1
1
1
1
1
1
1
1
1
1
1
1
1
1
1
1
1
1
1
1
1
1
1
1
1
1
1
1
1
1
1
1
1
1
1
1
1
1
1
1
1
1
1
1
1
1
1
1
1
1
1
1
1
1
1
1
1
1
1
1
1
1
1
1
1
1
1.00005
1.00427
1.09602
1.49492
1.92151
2.07665
2.09575
2.08973
2.08628
2.08598
2.08597
2.08456
1
1
1
1
1
1
1
1
1
1
1
1
1
1
1
1
1
1
1
1
1
1
1
1
1
1
1
1
1
1
1
1
1
1
1
1
1
1
1
1
1
1
1
1
1
1
1
1
1
1
1
1
1
1
1
1
1
1
1
1
1
1
1
1
1
1
1
1
1
1
1
1
1
1
1
1
1
1
1
1
1
1
1
1
1
1.00001
1.00102
1.03398
1.32331
1.7577
2.04054
2.08045
2.07589
2.07207
2.07052
2.07317
1
1
1
1
1
1
1
1
1
1
1
1
1
1
1
1
1
1
1
1
1
1
1
1
1
1
1
1
1
1
1
1
1
1
1
1
1
1
1
1
1
1
1
1
1
1
1
1
1
1
1
1
1
1
1
1
1
1
1
1
1
1
1
1
1
1
1
1
1
1
1
1
1
1
1
1
1
1
1
1
1
1
1
1
1
1
1
1.00017
1.01128
1.15747
1.57616
1.95296
2.05331
2.06071
2.06162
2.06169
1
1
1
1
1
1
1
1
1
1
1
1
1
1
1
1
1
1
1
1
1
1
1
1
1
1
1
1
1
1
1
1
1
1
1
1
1
1
1
1
1
1
1
1
1
1
1
1
1
1
1
1
1
1
1
1
1
1
1
1
1
1
1
1
1
1
1
1
1
1
1
1
1
1
1
1
1
1
1
1
1
1
1
1
1
1
1
1
1.00003
1.00269
1.05846
1.39075
1.80374
2.01126
2.04865
2.05396
1
1
1
1
1
1
1
1
1
1
1
1
1
1
1
1
1
1
1
1
1
1
1
1
1
1
1
1
1
1
1
1
1
1
1
1
1
1
1
1
1
1
1
1
1
1
1
1
1
1
1
1
1
1
1
1
1
1
1
1
1
1
1
1
1
1
1
1
1
1
1
1
1
1
1
1
1
1
1
1
1
1
1
1
1
1
1
1
1
1
1.00044
1.01853
1.20334
1.60029
1.93932
2.00452
1
1
1
1
1
1
1
1
1
1
1
1
1
1
1
1
1
1
1
1
1
1
1
1
1
1
1
1
1
1
1
1
1
1
1
1
1
1
1
1
1
1
1
1
1
1
1
1
1
1
1
1
1
1
1
1
1
1
1
1
1
1
1
1
1
1
1
1
1
1
1
1
1
1
1
1
1
1
1
1
1
1
1
1
1
1
1
1
1
1
1
1.00007
1.00412
1.07597
1.39619
1.81238
1
1
1
1
1
1
1
1
1
1
1
1
1
1
1
1
1
1
1
1
1
1
1
1
1
1
1
1
1
1
1
1
1
1
1
1
1
1
1
1
1
1
1
1
1
1
1
1
1
1
1
1
1
1
1
1
1
1
1
1
1
1
1
1
1
1
1
1
1
1
1
1
1
1
1
1
1
1
1
1
1
1
1
1
1
1
1
1
1
1
1
1
1.00001
1.00074
1.02002
1.98133
1
1
1
1
1
1
1
1
1
1
1
1
1
1
1
1
1
1
1
1
1
1
1
1
1
1
1
1
1
1
1
1
1
1
1
1
1
1
1
1
1
1
1
1
1
1
1
1
1
1
1
1
1
1
1
1
1
1
1
1
1
1
1
1
1
1
1
1
1
1
1
1
1
1
1
1
1
1
1
1
1
1
1
1
1
1
1
1
1
1
1
1
1
1
1.00012
2.23531
1
1
1
1
1
1
1
1
1
1
1
1
1
1
1
1
1
1
1
1
1
1
1
1
1
1
1
1
1
1
1
1
1
1
1
1
1
1
1
1
1
1
1
1
1
1
1
1
1
1
1
1
1
1
1
1
1
1
1
1
1
1
1
1
1
1
1
1
1
1
1
1
1
1
1
1
1
1
1
1
1
1
1
1
1
1
1
1
1
1
1
1
1
1
1
2.25911
1
1
1
1
1
1
1
1
1
1
1
1
1
1
1
1
1
1
1
1
1
1
1
1
1
1
1
1
1
1
1
1
1
1
1
1
1
1
1
1
1
1
1
1
1
1
1
1
1
1
1
1
1
1
1
1
1
1
1
1
1
1
1
1
1
1
1
1
1
1
1
1
1
1
1
1
1
1
1
1
1
1
1
1
1
1
1
1
1
1
1
1
1
1
1
2.17217
1
1
1
1
1
1
1
1
1
1
1
1
1
1
1
1
1
1
1
1
1
1
1
1
1
1
1
1
1
1
1
1
1
1
1
1
1
1
1
1
1
1
1
1
1
1
1
1
1
1
1
1
1
1
1
1
1
1
1
1
1
1
1
1
1
1
1
1
1
1
1
1
1
1
1
1
1
1
1
1
1
1
1
1
1
1
1
1
1
1
1
1
1
1
1
2.02732
1
1
1
1
1
1
1
1
1
1
1
1
1
1
1
1
1
1
1
1
1
1
1
1
1
1
1
1
1
1
1
1
1
1
1
1
1
1
1
1
1
1
1
1
1
1
1
1
1
1
1
1
1
1
1
1
1
1
1
1
1
1
1
1
1
1
1
1
1
1
1
1
1
1
1
1
1
1
1
1
1
1
1
1
1
1
1
1
1
1
1
1
1
1
1
1.87645
1
1
1
1
1
1
1
1
1
1
1
1
1
1
1
1
1
1
1
1
1
1
1
1
1
1
1
1
1
1
1
1
1
1
1
1
1
1
1
1
1
1
1
1
1
1
1
1
1
1
1
1
1
1
1
1
1
1
1
1
1
1
1
1
1
1
1
1
1
1
1
1
1
1
1
1
1
1
1
1
1
1
1
1
1
1
1
1
1
1
1
1
1
1
1
1.74082
1
1
1
1
1
1
1
1
1
1
1
1
1
1
1
1
1
1
1
1
1
1
1
1
1
1
1
1
1
1
1
1
1
1
1
1
1
1
1
1
1
1
1
1
1
1
1
1
1
1
1
1
1
1
1
1
1
1
1
1
1
1
1
1
1
1
1
1
1
1
1
1
1
1
1
1
1
1
1
1
1
1
1
1
1
1
1
1
1
1
1
1
1
1
1
1.62028
1
1
1
1
1
1
1
1
1
1
1
1
1
1
1
1
1
1
1
1
1
1
1
1
1
1
1
1
1
1
1
1
1
1
1
1
1
1
1
1
1
1
1
1
1
1
1
1
1
1
1
1
1
1
1
1
1
1
1
1
1
1
1
1
1
1
1
1
1
1
1
1
1
1
1
1
1
1
1
1
1
1
1
1
1
1
1
1
1
1
1
1
1
1
1
1.50982
1
1
1
1
1
1
1
1
1
1
1
1
1
1
1
1
1
1
1
1
1
1
1
1
1
1
1
1
1
1
1
1
1
1
1
1
1
1
1
1
1
1
1
1
1
1
1
1
1
1
1
1
1
1
1
1
1
1
1
1
1
1
1
1
1
1
1
1
1
1
1
1
1
1
1
1
1
1
1
1
1
1
1
1
1
1
1
1
1
1
1
1
1
1
1
1.41301
1
1
1
1
1
1
1
1
1
1
1
1
1
1
1
1
1
1
1
1
1
1
1
1
1
1
1
1
1
1
1
1
1
1
1
1
1
1
1
1
1
1
1
1
1
1
1
1
1
1
1
1
1
1
1
1
1
1
1
1
1
1
1
1
1
1
1
1
1
1
1
1
1
1
1
1
1
1
1
1
1
1
1
1
1
1
1
1
1
1
1
1
1
1
1
1.33061
1
1
1
1
1
1
1
1
1
1
1
1
1
1
1
1
1
1
1
1
1
1
1
1
1
1
1
1
1
1
1
1
1
1
1
1
1
1
1
1
1
1
1
1
1
1
1
1
1
1
1
1
1
1
1
1
1
1
1
1
1
1
1
1
1
1
1
1
1
1
1
1
1
1
1
1
1
1
1
1
1
1
1
1
1
1
1
1
1
1
1
1
1
1
1
1.25505
1
1
1
1
1
1
1
1
1
1
1
1
1
1
1
1
1
1
1
1
1
1
1
1
1
1
1
1
1
1
1
1
1
1
1
1
1
1
1
1
1
1
1
1
1
1
1
1
1
1
1
1
1
1
1
1
1
1
1
1
1
1
1
1
1
1
1
1
1
1
1
1
1
1
1
1
1
1
1
1
1
1
1
1
1
1
1
1
1
1
1
1
1
1
1
1.17786
1
1
1
1
1
1
1
1
1
1
1
1
1
1
1
1
1
1
1
1
1
1
1
1
1
1
1
1
1
1
1
1
1
1
1
1
1
1
1
1
1
1
1
1
1
1
1
1
1
1
1
1
1
1
1
1
1
1
1
1
1
1
1
1
1
1
1
1
1
1
1
1
1
1
1
1
1
1
1
1
1
1
1
1
1
1
1
1
1
1
1
1
1
1
1
1.09239
1
1
1
1
1
1
1
1
1
1
1
1
1
1
1
1
1
1
1
1
1
1
1
1
1
1
1
1
1
1
1
1
1
1
1
1
1
1
1
1
1
1
1
1
1
1
1
1
1
1
1
1
1
1
1
1
1
1
1
1
1
1
1
1
1
1
1
1
1
1
1
1
1
1
1
1
1
1
1
1
1
1
1
1
1
1
1
1
1
1
1
1
1
1
1
1.01652
1
1
1
1
1
1
1
1
1
1
1
1
1
1
1
1
1
1
1
1
1
1
1
1
1
1
1
1
1
1
1
1
1
1
1
1
1
1
1
1
1
1
1
1
1
1
1
1
1
1
1
1
1
1
1
1
1
1
1
1
1
1
1
1
1
1
1
1
1
1
1
1
1
1
1
1
1
1
1
1
1
1
1
1
1
1
1
1
1
1
1
1
1
1
1
1.00006
1
1
1
1
1
1
1
1
1
1
1
1
1
1
1
1
1
1
1
1
1
1
1
1
1
1
1
1
1
1
1
1
1
1
1
1
1
1
1
1
1
1
1
1
1
1
1
1
1
1
1
1
1
1
1
1
1
1
1
1
1
1
1
1
1
1
1
1
1
1
1
1
1
1
1
1
1
1
1
1
1
1
1
1
1
1
1
1
1
1
1
1
1
1
1
1
1
1
1
1
1
1
1
1
1
1
1
1
1
1
1
1
1
1
1
1
1
1
1
1
1
1
1
1
1
1
1
1
1
1
1
1
1
1
1
1
1
1
1
1
1
1
1
1
1
1
1
1
1
1
1
1
1
1
1
1
1
1
1
1
1
1
1
1
1
1
1
1
1
1
1
1
1
1
1
1
1
1
1
1
1
1
1
1
1
1
1
1
1
1
1
1
1.50852
0.934913
0.480444
0.530995
0.761431
0.882498
0.998206
1.08361
1.20378
1.27914
1.30613
1.3224
1.32604
1.33403
1.37867
1.48152
1.56124
1.59397
1.59633
1.58681
1.5668
1.56712
1.59026
1.60646
1.60805
1.60427
1.59878
1.60052
1.6099
1.63193
1.6572
1.66253
1.6584
1.64638
1.63723
1.63837
1.64579
1.65038
1.64969
1.64712
1.64556
1.64515
1.64482
1.64494
1.64492
1.64355
1.64053
1.63978
1.6405
1.64413
1.65134
1.65699
1.658
1.65715
1.65407
1.64704
2.02277
2.71049
2.79253
2.78406
2.78159
2.77949
2.77742
2.77405
2.7682
2.75959
2.74825
2.73532
2.72204
2.70984
2.69953
2.69097
2.68382
2.67745
2.67088
2.66329
2.65432
2.64441
2.63489
2.62705
2.62134
2.61739
2.61434
2.61116
2.60697
2.60133
2.5942
2.58579
2.57636
2.56619
2.55567
2.54526
2.5354
2.52628
2.51778
2.50958
2.50167
2.49429
2.48765
2.48201
2.47734
2.4732
2.4688
2.46276
2.4544
2.44505
2.43524
2.42572
2.4176
2.41085
2.40632
2.40394
2.40169
2.39791
2.39317
2.38795
2.38229
2.37701
2.37206
2.36713
2.36197
2.35615
2.34959
2.3424
2.33446
2.3261
2.31792
2.31007
2.30249
2.29513
2.288
2.28109
2.27441
2.26828
2.26293
2.25824
2.25438
2.25122
2.24819
2.24494
2.24141
2.23701
2.23131
2.22501
2.21869
2.21242
2.20618
2.19996
2.19363
2.18696
2.17967
2.17168
2.16326
2.15519
2.14835
2.14246
2.13701
2.1323
2.12768
2.12256
2.11754
2.11224
2.10657
2.10114
2.09654
2.09276
2.08942
2.0861
2.0824
2.0779
2.07237
2.06615
2.06021
2.05525
2.05096
2.04666
2.04203
2.03683
2.03064
2.02324
2.01599
2.01056
2.00583
2.00122
1.99679
1.99181
1.98658
1.98089
1.97435