/*--------------------------------*- C++ -*----------------------------------*\
  =========                 |
  \\      /  F ield         | OpenFOAM: The Open Source CFD Toolbox
   \\    /   O peration     | Website:  https://openfoam.org
    \\  /    A nd           | Version:  7
     \\/     M anipulation  |
\*---------------------------------------------------------------------------*/
FoamFile
{
    version     2.0;
    format      ascii;
    class       volVectorField;
    location    "4";
    object      U;
}
// * * * * * * * * * * * * * * * * * * * * * * * * * * * * * * * * * * * * * //

dimensions      [0 1 -1 0 0 0 0];

internalField   nonuniform List<vector> 
19968
(
(3 -8.62934e-17 0)
(3 -1.54454e-16 0)
(3 -1.76201e-16 0)
(3 -1.30127e-16 0)
(3 -1.92547e-16 0)
(3 2.94934e-17 0)
(3 2.74985e-16 0)
(3 1.83172e-16 0)
(3 7.27122e-16 0)
(3 1.02932e-15 0)
(3 9.50589e-16 0)
(3 5.26813e-16 0)
(3 4.26003e-16 0)
(3 6.81737e-16 0)
(3 6.33955e-16 0)
(3 4.85227e-16 0)
(3 8.98892e-17 0)
(3 -4.35934e-16 0)
(3 -2.68801e-16 0)
(3 -2.92721e-16 0)
(3 -3.57128e-16 0)
(3 -7.65408e-17 0)
(3 3.24317e-16 0)
(3 -5.29921e-16 0)
(3 -5.07583e-16 0)
(3 -9.56724e-17 0)
(3 4.50836e-16 0)
(3 3.23721e-16 0)
(3 1.57884e-16 0)
(3 -1.37041e-16 0)
(3 5.78725e-17 0)
(3 6.25628e-16 0)
(3 1.47629e-15 0)
(3 1.52695e-15 0)
(3 4.23628e-16 0)
(3 -2.19437e-16 0)
(3 -4.11006e-16 0)
(3 -3.64722e-16 0)
(3 -8.3349e-16 0)
(3 -1.23212e-15 0)
(3 -6.27339e-16 0)
(3 -3.60973e-17 0)
(3 4.79177e-16 0)
(3 1.05445e-15 0)
(3 9.4137e-16 0)
(3 6.594e-16 0)
(3 -2.25917e-17 0)
(3 -3.0762e-16 0)
(2.88505 0.00161522 0)
(0.999272 0.00669808 0)
(0.758069 0.00627096 0)
(0.742858 0.00829026 0)
(0.727945 0.0084739 0)
(0.714508 0.00847459 0)
(0.700559 0.00854649 0)
(0.685558 0.00870254 0)
(0.669559 0.00891773 0)
(0.653399 0.00906618 0)
(0.637899 0.00910064 0)
(0.623206 0.00909539 0)
(0.608895 0.00904187 0)
(0.594339 0.00904428 0)
(0.578955 0.00924296 0)
(0.562718 0.00944583 0)
(0.546369 0.00952472 0)
(0.530626 0.00957271 0)
(0.515693 0.00961639 0)
(0.501297 0.0096889 0)
(0.48684 0.00982637 0)
(0.471754 0.00993257 0)
(0.455787 0.00998592 0)
(0.439034 0.0101143 0)
(0.421901 0.0103555 0)
(0.404953 0.0105861 0)
(0.388646 0.0107048 0)
(0.373068 0.0107909 0)
(0.357886 0.0109454 0)
(0.342639 0.0110955 0)
(0.327014 0.0111562 0)
(0.310828 0.0111932 0)
(0.293995 0.0112822 0)
(0.276643 0.01139 0)
(0.259097 0.0114761 0)
(0.241652 0.0115649 0)
(0.224405 0.0116966 0)
(0.207252 0.0118947 0)
(0.189934 0.0121782 0)
(0.172144 0.0125253 0)
(0.15376 0.012878 0)
(0.134711 0.0131577 0)
(0.114979 0.0134009 0)
(0.0946768 0.013677 0)
(0.0739535 0.0140169 0)
(0.0529483 0.0144174 0)
(0.0317371 0.0146266 0)
(0.0110165 0.0148648 0)
(3 -5.37178e-17 0)
(3 -1.56881e-19 0)
(3 6.70386e-17 0)
(3 2.28628e-16 0)
(3 6.21432e-16 0)
(3 4.76319e-16 0)
(3 5.15999e-16 0)
(3 1.79547e-16 0)
(3 5.17731e-16 0)
(3 6.68226e-16 0)
(3 8.9931e-16 0)
(3 1.05903e-15 0)
(3 9.35547e-16 0)
(3 8.10294e-16 0)
(3 6.07289e-16 0)
(3 -3.15902e-16 0)
(3 -6.52305e-16 0)
(3 -1.00318e-15 0)
(3 -7.87596e-16 0)
(3 -1.00785e-15 0)
(3 -8.00652e-16 0)
(3 7.30594e-17 0)
(3 1.96855e-17 0)
(3 4.00839e-17 0)
(3 1.92134e-16 0)
(3 4.52016e-16 0)
(3 3.90283e-16 0)
(3 2.52576e-16 0)
(3 -1.61229e-16 0)
(3 -5.36778e-16 0)
(3 -6.15881e-17 0)
(3 7.80626e-16 0)
(3 1.17057e-15 0)
(3 6.74734e-16 0)
(3 8.80886e-16 0)
(3 4.73792e-17 0)
(3 -6.88418e-16 0)
(3 -8.53455e-16 0)
(3 -1.36815e-15 0)
(3 -1.4402e-15 0)
(3 -9.38704e-16 0)
(3 -2.40682e-16 0)
(3 8.89512e-16 0)
(3 1.77113e-15 0)
(3 1.30193e-15 0)
(3 5.46668e-16 0)
(3 2.58089e-16 0)
(3 6.67984e-16 0)
(2.89555 0.00941286 0)
(1.00572 0.030096 0)
(0.755165 0.0260529 0)
(0.738334 0.0242907 0)
(0.724071 0.0249954 0)
(0.710756 0.0252808 0)
(0.696787 0.0256776 0)
(0.681675 0.0261417 0)
(0.665619 0.0267154 0)
(0.64947 0.0271112 0)
(0.634009 0.0272051 0)
(0.619332 0.0272365 0)
(0.604974 0.0271879 0)
(0.590289 0.0273085 0)
(0.574749 0.0279578 0)
(0.558374 0.0285552 0)
(0.541936 0.028725 0)
(0.526169 0.0288074 0)
(0.511248 0.0289449 0)
(0.496846 0.0292314 0)
(0.482336 0.0297047 0)
(0.467169 0.0299813 0)
(0.451158 0.0299963 0)
(0.43443 0.0302746 0)
(0.417346 0.0310182 0)
(0.400378 0.0318101 0)
(0.383941 0.0322559 0)
(0.368165 0.0325422 0)
(0.352795 0.0329878 0)
(0.337423 0.0334205 0)
(0.321746 0.0336063 0)
(0.305573 0.0337468 0)
(0.288799 0.0340623 0)
(0.27153 0.0344434 0)
(0.254075 0.0347599 0)
(0.236732 0.035082 0)
(0.219621 0.0355243 0)
(0.202671 0.0361419 0)
(0.185659 0.0369856 0)
(0.168305 0.038002 0)
(0.150454 0.039041 0)
(0.131997 0.0398975 0)
(0.112881 0.0406812 0)
(0.0931805 0.0416065 0)
(0.0730082 0.0427543 0)
(0.0524716 0.0441145 0)
(0.0315767 0.0449275 0)
(0.0110056 0.0458691 0)
(3 1.7307e-16 0)
(3 3.86056e-16 0)
(3 8.22592e-16 0)
(3 9.28735e-16 0)
(3 1.32962e-15 0)
(3 1.32792e-15 0)
(3 6.18055e-16 0)
(3 4.24397e-18 0)
(3 -4.36733e-16 0)
(3 -6.94446e-16 0)
(3 -6.54118e-16 0)
(3 1.6791e-16 0)
(3 8.07664e-16 0)
(3 1.13208e-15 0)
(3 1.26134e-15 0)
(3 1.55904e-15 0)
(3 1.41434e-15 0)
(3 1.32364e-15 0)
(3 6.9449e-16 0)
(3 3.98916e-16 0)
(3 7.12099e-16 0)
(3 2.35368e-15 0)
(3 1.09081e-15 0)
(3 9.15652e-16 0)
(3 4.73329e-16 0)
(3 1.65304e-17 0)
(3 2.81887e-16 0)
(3 1.37084e-15 0)
(3 1.53912e-15 0)
(3 9.8514e-16 0)
(3 1.28986e-15 0)
(3 1.77101e-15 0)
(3 1.36519e-15 0)
(3 1.05837e-15 0)
(3 6.78298e-16 0)
(3 6.10516e-16 0)
(3 5.3307e-16 0)
(3 9.70908e-17 0)
(3 -3.24e-17 0)
(3 8.51318e-17 0)
(3 1.93422e-16 0)
(3 -1.28173e-17 0)
(3 1.10551e-18 0)
(3 6.63319e-16 0)
(3 7.97545e-17 0)
(3 -2.72123e-16 0)
(3 -3.38026e-16 0)
(3 2.79088e-16 0)
(2.91934 0.0147289 0)
(1.02224 0.0507385 0)
(0.757618 0.0458588 0)
(0.740417 0.042173 0)
(0.72586 0.0429235 0)
(0.712148 0.0435681 0)
(0.697813 0.0444615 0)
(0.68232 0.0452947 0)
(0.665953 0.0460938 0)
(0.649613 0.0465604 0)
(0.634078 0.0465676 0)
(0.619395 0.0465898 0)
(0.605017 0.0466385 0)
(0.590236 0.0470422 0)
(0.574552 0.0482603 0)
(0.557982 0.0492869 0)
(0.541323 0.0494759 0)
(0.525373 0.0494758 0)
(0.510323 0.049672 0)
(0.495815 0.0502791 0)
(0.481196 0.0512923 0)
(0.465886 0.0519215 0)
(0.449745 0.051933 0)
(0.432921 0.0522579 0)
(0.415738 0.0533792 0)
(0.398581 0.054669 0)
(0.381804 0.0554288 0)
(0.365573 0.0558946 0)
(0.349712 0.0565827 0)
(0.333879 0.0572509 0)
(0.317792 0.0575352 0)
(0.301259 0.0577588 0)
(0.28416 0.058265 0)
(0.266573 0.0588486 0)
(0.24878 0.0592783 0)
(0.231087 0.0596732 0)
(0.213648 0.0602383 0)
(0.196452 0.0610728 0)
(0.179346 0.0622747 0)
(0.162107 0.0637813 0)
(0.144578 0.0653752 0)
(0.126627 0.0667429 0)
(0.108187 0.068057 0)
(0.0893 0.0696724 0)
(0.0700367 0.0716935 0)
(0.0504605 0.0741151 0)
(0.0304384 0.0756593 0)
(0.0106584 0.0774546 0)
(3 1.04958e-16 0)
(3 5.86304e-16 0)
(3 5.00103e-16 0)
(3 3.93304e-16 0)
(3 3.76346e-16 0)
(3 8.80983e-16 0)
(3 7.4639e-16 0)
(3 5.82258e-16 0)
(3 -2.96002e-17 0)
(3 -4.81767e-16 0)
(3 -1.68038e-16 0)
(3 1.23751e-16 0)
(3 9.3773e-16 0)
(3 1.77642e-15 0)
(3 1.56263e-15 0)
(3 1.53383e-15 0)
(3 1.9919e-15 0)
(3 1.66789e-15 0)
(3 1.27711e-15 0)
(3 9.70591e-16 0)
(3 1.00079e-15 0)
(3 1.94967e-15 0)
(3 2.35094e-15 0)
(3 1.70572e-15 0)
(3 1.06961e-15 0)
(3 1.34791e-15 0)
(3 2.58868e-15 0)
(3 2.04726e-15 0)
(3 2.18299e-15 0)
(3 2.35181e-15 0)
(3 1.88471e-15 0)
(3 1.74249e-15 0)
(3 1.77811e-15 0)
(3 1.88603e-15 0)
(3 1.22846e-15 0)
(3 9.62927e-16 0)
(3 4.70895e-16 0)
(3 1.8574e-17 0)
(3 5.4447e-17 0)
(3 4.86901e-16 0)
(3 9.25603e-16 0)
(3 4.60002e-16 0)
(3 -6.3307e-17 0)
(3 -3.67428e-16 0)
(3 -2.87907e-16 0)
(3 -3.04172e-16 0)
(3 -3.98766e-16 0)
(3 8.32798e-17 0)
(2.94889 0.021867 0)
(1.04161 0.0750882 0)
(0.759171 0.0653147 0)
(0.743917 0.060384 0)
(0.730139 0.0617333 0)
(0.71638 0.0631082 0)
(0.70185 0.0646896 0)
(0.68605 0.0658624 0)
(0.669422 0.0667319 0)
(0.652953 0.0669072 0)
(0.637505 0.0665094 0)
(0.623122 0.0663526 0)
(0.609159 0.06653 0)
(0.594771 0.0673745 0)
(0.579435 0.0693188 0)
(0.563069 0.070929 0)
(0.546453 0.0711992 0)
(0.530494 0.0710667 0)
(0.515454 0.0713093 0)
(0.500985 0.0723604 0)
(0.486422 0.0741469 0)
(0.471103 0.0753623 0)
(0.454929 0.075447 0)
(0.438076 0.0757695 0)
(0.42084 0.0772374 0)
(0.403526 0.0791056 0)
(0.386401 0.0803453 0)
(0.369664 0.0811537 0)
(0.353234 0.0822117 0)
(0.336835 0.0832457 0)
(0.320201 0.0837772 0)
(0.30314 0.0842254 0)
(0.285517 0.0850404 0)
(0.267367 0.0859217 0)
(0.248931 0.0865253 0)
(0.230517 0.0869991 0)
(0.212314 0.0876236 0)
(0.194367 0.088523 0)
(0.176604 0.0898297 0)
(0.158867 0.0914874 0)
(0.141015 0.0932523 0)
(0.122932 0.0947553 0)
(0.104572 0.0962403 0)
(0.0859951 0.0982364 0)
(0.0672639 0.100868 0)
(0.0484377 0.104203 0)
(0.0292029 0.106454 0)
(0.0102319 0.109106 0)
(3 -2.41254e-16 0)
(3 -2.95166e-16 0)
(3 -4.72896e-16 0)
(3 -2.88271e-16 0)
(3 -5.32154e-16 0)
(3 -4.94866e-16 0)
(3 -4.3483e-16 0)
(3 2.36605e-17 0)
(3 3.21393e-18 0)
(3 8.72033e-16 0)
(3 1.01607e-15 0)
(3 1.04889e-15 0)
(3 1.57298e-15 0)
(3 1.51722e-15 0)
(3 -3.31943e-16 0)
(3 -4.64154e-16 0)
(3 -3.18897e-17 0)
(3 5.95468e-16 0)
(3 1.15021e-15 0)
(3 1.46161e-15 0)
(3 1.37826e-15 0)
(3 1.69313e-15 0)
(3 2.53201e-15 0)
(3 3.1777e-15 0)
(3 3.42875e-15 0)
(3 2.09971e-15 0)
(3 8.38176e-16 0)
(3 -3.1431e-16 0)
(3 -5.20036e-17 0)
(3 8.61204e-18 0)
(3 -1.17179e-16 0)
(3 1.2216e-16 0)
(3 6.48379e-16 0)
(3 8.05625e-16 0)
(3 7.67404e-16 0)
(3 4.50942e-16 0)
(3 8.50857e-17 0)
(3 9.25735e-17 0)
(3 -2.87099e-16 0)
(3 -4.06601e-16 0)
(3 5.44759e-17 0)
(3 8.67034e-16 0)
(3 4.12298e-16 0)
(3 -4.09025e-16 0)
(3 -1.0099e-15 0)
(3 -6.66829e-16 0)
(3 4.65197e-16 0)
(3 1.16347e-15 0)
(2.9894 0.00125953 0)
(1.09472 0.095663 0)
(0.769581 0.0793994 0)
(0.753027 0.0766923 0)
(0.739893 0.0798421 0)
(0.726121 0.0824535 0)
(0.711723 0.0852096 0)
(0.695799 0.0869947 0)
(0.678878 0.0878981 0)
(0.661986 0.0875982 0)
(0.646203 0.0864346 0)
(0.631702 0.0857438 0)
(0.61786 0.085936 0)
(0.603741 0.0873143 0)
(0.588776 0.0901419 0)
(0.57269 0.0925862 0)
(0.556179 0.0931123 0)
(0.540287 0.0927698 0)
(0.525371 0.0929079 0)
(0.51113 0.0943766 0)
(0.496913 0.0970722 0)
(0.481873 0.0990977 0)
(0.465921 0.0993136 0)
(0.449286 0.0995008 0)
(0.432239 0.101164 0)
(0.415035 0.10359 0)
(0.397832 0.105418 0)
(0.380851 0.106703 0)
(0.364104 0.10826 0)
(0.347373 0.109831 0)
(0.330399 0.110829 0)
(0.312992 0.111718 0)
(0.295007 0.113047 0)
(0.276424 0.11444 0)
(0.257431 0.115438 0)
(0.238329 0.116201 0)
(0.219326 0.117077 0)
(0.200504 0.118195 0)
(0.18184 0.119699 0)
(0.163225 0.121529 0)
(0.144528 0.123422 0)
(0.125634 0.124973 0)
(0.106543 0.126453 0)
(0.0873542 0.12858 0)
(0.0681424 0.131465 0)
(0.0490132 0.135384 0)
(0.0295129 0.138125 0)
(0.0103216 0.141457 0)
(3 1.36342e-17 0)
(3 -2.83459e-17 0)
(3 3.67331e-16 0)
(3 2.9309e-16 0)
(3 -1.96728e-16 0)
(3 -4.29453e-16 0)
(3 -6.93018e-16 0)
(3 -7.42523e-16 0)
(3 -4.51855e-16 0)
(3 5.87256e-16 0)
(3 7.63337e-16 0)
(3 2.814e-16 0)
(3 2.06213e-17 0)
(3 -3.46211e-16 0)
(3 -1.31644e-15 0)
(3 -1.15838e-15 0)
(3 -1.14018e-15 0)
(3 -1.2119e-15 0)
(3 -2.03661e-16 0)
(3 1.39468e-15 0)
(3 1.72091e-15 0)
(3 1.39694e-15 0)
(3 9.91108e-16 0)
(3 1.07369e-15 0)
(3 1.08615e-15 0)
(3 5.91804e-16 0)
(3 1.19069e-16 0)
(3 3.49121e-16 0)
(3 2.98466e-16 0)
(3 -9.3882e-18 0)
(3 -1.14512e-15 0)
(3 -1.6186e-15 0)
(3 -1.13708e-15 0)
(3 -7.64737e-16 0)
(3 -7.97845e-16 0)
(3 -1.24504e-15 0)
(3 -1.36451e-15 0)
(3 -1.59264e-15 0)
(3 -1.49691e-15 0)
(3 -9.94737e-16 0)
(3 -9.5404e-16 0)
(3 -5.92606e-16 0)
(3 -8.3102e-16 0)
(3 -1.39752e-15 0)
(3 -1.23982e-15 0)
(3 -1.12354e-15 0)
(3 -9.03469e-16 0)
(3 -8.85843e-16 0)
(2.99992 0.000179137 0)
(1.18331 0.113759 0)
(0.770831 0.0989543 0)
(0.748677 0.0956191 0)
(0.73599 0.100038 0)
(0.722677 0.103591 0)
(0.709277 0.107441 0)
(0.694206 0.110159 0)
(0.677826 0.111602 0)
(0.66105 0.111182 0)
(0.645148 0.109166 0)
(0.630453 0.10762 0)
(0.616468 0.107575 0)
(0.602294 0.109384 0)
(0.587422 0.113113 0)
(0.571439 0.116526 0)
(0.554891 0.117478 0)
(0.538931 0.116892 0)
(0.523998 0.116754 0)
(0.509869 0.11854 0)
(0.496043 0.12222 0)
(0.48147 0.125279 0)
(0.465982 0.125836 0)
(0.449865 0.125949 0)
(0.433338 0.127777 0)
(0.416658 0.130734 0)
(0.399877 0.13315 0)
(0.383203 0.134887 0)
(0.366715 0.13688 0)
(0.350245 0.138967 0)
(0.333524 0.140467 0)
(0.316361 0.141835 0)
(0.29862 0.1437 0)
(0.280241 0.145638 0)
(0.261364 0.147078 0)
(0.242274 0.148169 0)
(0.223182 0.149318 0)
(0.204171 0.150663 0)
(0.185236 0.152347 0)
(0.16629 0.154319 0)
(0.14721 0.156311 0)
(0.127888 0.15791 0)
(0.10835 0.159338 0)
(0.0887347 0.161507 0)
(0.0691132 0.164437 0)
(0.0496701 0.16872 0)
(0.0298678 0.171775 0)
(0.0104194 0.175638 0)
(3 6.57791e-17 0)
(3 8.45949e-17 0)
(3 -2.51878e-16 0)
(3 -4.29757e-16 0)
(3 -8.87974e-16 0)
(3 -1.09716e-15 0)
(3 -1.00377e-15 0)
(3 -9.67897e-16 0)
(3 -7.59107e-16 0)
(3 -4.35342e-16 0)
(3 -2.70713e-16 0)
(3 -3.84647e-16 0)
(3 -8.03506e-16 0)
(3 -1.10645e-15 0)
(3 -1.4677e-15 0)
(3 -2.10788e-15 0)
(3 -1.02793e-15 0)
(3 -3.22636e-16 0)
(3 1.85446e-16 0)
(3 1.42142e-17 0)
(3 2.11202e-16 0)
(3 4.22192e-16 0)
(3 1.16628e-16 0)
(3 -4.18055e-16 0)
(3 -9.21986e-16 0)
(3 -5.59739e-16 0)
(3 4.50327e-16 0)
(3 1.32836e-15 0)
(3 1.52862e-15 0)
(3 1.51702e-15 0)
(3 1.42052e-15 0)
(3 -5.30556e-16 0)
(3 -1.09851e-15 0)
(3 -1.14952e-15 0)
(3 -9.77511e-16 0)
(3 -6.7483e-16 0)
(3 -5.70562e-16 0)
(3 -1.02631e-15 0)
(3 -6.02833e-16 0)
(3 -6.27808e-16 0)
(3 -7.78135e-16 0)
(3 -1.27978e-15 0)
(3 -1.53176e-15 0)
(3 -1.22046e-15 0)
(3 -7.21557e-16 0)
(3 -1.19083e-15 0)
(3 -1.46077e-15 0)
(3 -1.45615e-15 0)
(3 3.32459e-07 0)
(1.33233 0.143468 0)
(0.777803 0.126673 0)
(0.746682 0.115725 0)
(0.733346 0.119076 0)
(0.720225 0.123024 0)
(0.707567 0.128049 0)
(0.693267 0.13228 0)
(0.67743 0.134958 0)
(0.660826 0.134987 0)
(0.644891 0.132436 0)
(0.63016 0.12989 0)
(0.616287 0.129373 0)
(0.602513 0.131497 0)
(0.588354 0.136055 0)
(0.573127 0.14046 0)
(0.557065 0.141988 0)
(0.54138 0.141128 0)
(0.526605 0.14043 0)
(0.512647 0.142202 0)
(0.499291 0.146634 0)
(0.485291 0.150743 0)
(0.470276 0.151775 0)
(0.454627 0.15183 0)
(0.438488 0.153776 0)
(0.422165 0.157271 0)
(0.405641 0.160399 0)
(0.389145 0.16275 0)
(0.37283 0.165319 0)
(0.356567 0.168072 0)
(0.340041 0.170269 0)
(0.323041 0.172292 0)
(0.305438 0.174848 0)
(0.287151 0.177531 0)
(0.268275 0.179674 0)
(0.249087 0.18138 0)
(0.229805 0.183088 0)
(0.210505 0.184924 0)
(0.191184 0.187016 0)
(0.171767 0.189325 0)
(0.152146 0.191597 0)
(0.132218 0.193437 0)
(0.112011 0.194932 0)
(0.0917016 0.197194 0)
(0.0713401 0.200064 0)
(0.0512129 0.204553 0)
(0.0307413 0.207768 0)
(0.0106957 0.212037 0)
(3 -2.10403e-16 0)
(3 -2.18518e-16 0)
(3 -5.22883e-16 0)
(3 -4.82059e-16 0)
(3 -9.65338e-17 0)
(3 -2.86367e-16 0)
(3 -5.18461e-16 0)
(3 -5.20742e-16 0)
(3 -5.32535e-16 0)
(3 -7.62272e-16 0)
(3 -1.22064e-15 0)
(3 -1.13912e-15 0)
(3 -1.07028e-15 0)
(3 -1.41273e-15 0)
(3 -1.20546e-15 0)
(3 8.12866e-17 0)
(3 5.76488e-16 0)
(3 7.73833e-16 0)
(3 9.22125e-16 0)
(3 5.41369e-16 0)
(3 7.28241e-16 0)
(3 1.40336e-16 0)
(3 -3.91571e-16 0)
(3 -3.22834e-16 0)
(3 -1.81057e-16 0)
(3 -1.98738e-16 0)
(3 -2.43711e-16 0)
(3 -1.88591e-16 0)
(3 -3.60539e-16 0)
(3 1.41806e-15 0)
(3 1.96993e-15 0)
(3 1.68374e-15 0)
(3 8.85927e-16 0)
(3 -8.87927e-16 0)
(3 -4.44555e-16 0)
(3 -3.26522e-18 0)
(3 1.78294e-16 0)
(3 4.30643e-16 0)
(3 4.86303e-16 0)
(3 -6.07189e-16 0)
(3 -7.63494e-16 0)
(3 -1.33669e-15 0)
(3 -1.9317e-15 0)
(3 -1.80018e-15 0)
(3 -1.80187e-15 0)
(3 -1.65194e-15 0)
(3 -1.34687e-15 0)
(3 -1.44671e-15 0)
(3 7.66226e-10 0)
(1.5648 0.168479 0)
(0.796822 0.157669 0)
(0.751885 0.141006 0)
(0.735994 0.141011 0)
(0.721748 0.144 0)
(0.708698 0.149368 0)
(0.69455 0.155038 0)
(0.678848 0.159283 0)
(0.662105 0.160159 0)
(0.645825 0.157389 0)
(0.630705 0.153722 0)
(0.616468 0.152246 0)
(0.602638 0.154235 0)
(0.588914 0.159378 0)
(0.574361 0.164812 0)
(0.558734 0.167245 0)
(0.543201 0.166434 0)
(0.528441 0.16512 0)
(0.514456 0.166596 0)
(0.501451 0.171601 0)
(0.488085 0.17686 0)
(0.473596 0.178683 0)
(0.458501 0.178812 0)
(0.442904 0.180873 0)
(0.427135 0.184887 0)
(0.411082 0.188762 0)
(0.394958 0.191785 0)
(0.378984 0.194975 0)
(0.363053 0.198483 0)
(0.346794 0.201545 0)
(0.329957 0.204402 0)
(0.312439 0.207809 0)
(0.294157 0.211431 0)
(0.275167 0.214527 0)
(0.255739 0.217109 0)
(0.236111 0.219615 0)
(0.216366 0.222145 0)
(0.196516 0.224792 0)
(0.176514 0.227543 0)
(0.156282 0.23017 0)
(0.135729 0.232349 0)
(0.114872 0.233962 0)
(0.0939177 0.236316 0)
(0.0728959 0.238992 0)
(0.0522038 0.2435 0)
(0.0312492 0.246704 0)
(0.0108413 0.251241 0)
(3 2.26052e-16 0)
(3 2.55513e-16 0)
(3 5.81074e-16 0)
(3 7.70194e-16 0)
(3 1.2135e-15 0)
(3 1.37726e-15 0)
(3 1.16229e-15 0)
(3 1.06419e-15 0)
(3 8.61947e-16 0)
(3 6.88476e-16 0)
(3 8.98564e-17 0)
(3 -1.03835e-15 0)
(3 -1.46142e-15 0)
(3 -8.33583e-16 0)
(3 -1.4466e-16 0)
(3 7.33225e-16 0)
(3 1.92374e-16 0)
(3 -3.71858e-16 0)
(3 -6.13213e-16 0)
(3 -2.88213e-16 0)
(3 3.13393e-17 0)
(3 -1.09339e-16 0)
(3 2.33838e-16 0)
(3 4.68955e-16 0)
(3 6.21619e-16 0)
(3 1.19181e-15 0)
(3 1.06974e-15 0)
(3 5.17528e-16 0)
(3 5.97598e-16 0)
(3 9.36731e-16 0)
(3 1.14747e-15 0)
(3 9.86085e-16 0)
(3 5.30594e-16 0)
(3 -8.83191e-17 0)
(3 -1.37577e-16 0)
(3 3.2948e-17 0)
(3 5.36823e-16 0)
(3 1.54084e-15 0)
(3 2.46768e-15 0)
(3 1.51669e-15 0)
(3 7.75213e-16 0)
(3 5.54417e-16 0)
(3 5.51252e-16 0)
(3 3.80712e-16 0)
(3 -2.04186e-18 0)
(3 -1.02299e-18 0)
(3 -6.58647e-17 0)
(3 -4.69407e-16 0)
(3 1.55182e-12 0)
(1.88901 0.191905 0)
(0.825997 0.194257 0)
(0.754376 0.173929 0)
(0.737287 0.16703 0)
(0.72181 0.168326 0)
(0.708183 0.173441 0)
(0.694198 0.180191 0)
(0.678891 0.185787 0)
(0.662463 0.187487 0)
(0.646261 0.18481 0)
(0.631001 0.180293 0)
(0.61645 0.177567 0)
(0.602349 0.178799 0)
(0.588758 0.183995 0)
(0.574714 0.190275 0)
(0.559396 0.193787 0)
(0.543766 0.193363 0)
(0.528736 0.191392 0)
(0.514321 0.192033 0)
(0.501164 0.197095 0)
(0.488164 0.203376 0)
(0.473976 0.206231 0)
(0.459204 0.20648 0)
(0.443992 0.208535 0)
(0.428734 0.213008 0)
(0.413217 0.217678 0)
(0.397612 0.221433 0)
(0.382241 0.225282 0)
(0.36704 0.229615 0)
(0.351567 0.233691 0)
(0.335493 0.237543 0)
(0.31872 0.241931 0)
(0.301148 0.246644 0)
(0.282754 0.250912 0)
(0.263751 0.254616 0)
(0.244372 0.258165 0)
(0.224682 0.261639 0)
(0.204685 0.265085 0)
(0.184344 0.268514 0)
(0.163593 0.271727 0)
(0.14236 0.274506 0)
(0.120629 0.27648 0)
(0.0986665 0.279104 0)
(0.0765117 0.281636 0)
(0.0547046 0.286115 0)
(0.0326816 0.289238 0)
(0.0113286 0.293981 0)
(3 1.38988e-16 0)
(3 -1.11279e-17 0)
(3 7.97639e-17 0)
(3 2.20224e-18 0)
(3 -1.72536e-16 0)
(3 -8.33335e-17 0)
(3 3.16927e-16 0)
(3 3.79589e-16 0)
(3 5.48317e-16 0)
(3 1.04887e-15 0)
(3 9.31066e-16 0)
(3 5.07755e-16 0)
(3 3.96155e-16 0)
(3 4.66958e-16 0)
(3 3.18748e-16 0)
(3 1.60554e-16 0)
(3 6.84592e-17 0)
(3 3.10347e-16 0)
(3 -4.59411e-18 0)
(3 -5.53698e-16 0)
(3 -5.97492e-16 0)
(3 -7.03076e-16 0)
(3 -2.86697e-16 0)
(3 5.43565e-18 0)
(3 4.25811e-16 0)
(3 6.92673e-16 0)
(3 5.25635e-16 0)
(3 6.99105e-16 0)
(3 7.5018e-16 0)
(3 3.74184e-16 0)
(3 1.61241e-16 0)
(3 4.20235e-16 0)
(3 4.05543e-17 0)
(3 -2.63121e-17 0)
(3 -3.89185e-16 0)
(3 1.65068e-16 0)
(3 9.37455e-16 0)
(3 1.613e-15 0)
(3 1.44059e-15 0)
(3 1.85704e-15 0)
(3 2.19996e-15 0)
(3 2.10237e-15 0)
(3 1.53546e-15 0)
(3 1.23392e-15 0)
(3 7.61674e-16 0)
(3 4.04175e-17 0)
(3 -1.36529e-16 0)
(3 -4.87833e-16 0)
(3 4.31539e-15 0)
(2.34823 0.192558 0)
(0.890041 0.231072 0)
(0.765813 0.208533 0)
(0.751162 0.196138 0)
(0.735209 0.19529 0)
(0.721524 0.199974 0)
(0.70783 0.207117 0)
(0.693265 0.213405 0)
(0.677547 0.215766 0)
(0.661551 0.213689 0)
(0.645858 0.209199 0)
(0.630413 0.205735 0)
(0.615178 0.206121 0)
(0.600633 0.211032 0)
(0.586223 0.217933 0)
(0.570638 0.222685 0)
(0.554306 0.223194 0)
(0.538295 0.220935 0)
(0.522683 0.220462 0)
(0.50833 0.225005 0)
(0.494849 0.23201 0)
(0.480249 0.236085 0)
(0.464984 0.236502 0)
(0.449329 0.238191 0)
(0.433771 0.242729 0)
(0.418076 0.24794 0)
(0.402274 0.252218 0)
(0.386789 0.256503 0)
(0.371666 0.261513 0)
(0.356458 0.266606 0)
(0.340732 0.271552 0)
(0.324375 0.27703 0)
(0.307271 0.28301 0)
(0.289292 0.288747 0)
(0.270554 0.293965 0)
(0.251279 0.298995 0)
(0.231536 0.303884 0)
(0.21133 0.308589 0)
(0.190644 0.313114 0)
(0.169415 0.317264 0)
(0.147601 0.320968 0)
(0.125119 0.323606 0)
(0.102297 0.326698 0)
(0.0791964 0.32917 0)
(0.0564941 0.333551 0)
(0.0336775 0.336521 0)
(0.0116637 0.34142 0)
(3 -2.44067e-16 0)
(3 -3.97179e-16 0)
(3 -5.12617e-16 0)
(3 -6.69821e-16 0)
(3 -1.08749e-15 0)
(3 -1.30944e-15 0)
(3 -1.42231e-15 0)
(3 -1.1933e-15 0)
(3 -9.61633e-16 0)
(3 -7.38753e-16 0)
(3 -1.76035e-16 0)
(3 -5.78536e-18 0)
(3 -1.30138e-16 0)
(3 -2.1897e-16 0)
(3 -1.73011e-16 0)
(3 2.19722e-16 0)
(3 5.74982e-16 0)
(3 9.02679e-16 0)
(3 1.01958e-15 0)
(3 7.64688e-16 0)
(3 4.48711e-16 0)
(3 1.93555e-17 0)
(3 -1.79328e-16 0)
(3 3.16715e-16 0)
(3 4.13703e-16 0)
(3 5.60586e-17 0)
(3 -5.06244e-16 0)
(3 -5.92692e-16 0)
(3 -1.76434e-16 0)
(3 -3.67372e-16 0)
(3 -4.33423e-16 0)
(3 -5.25024e-16 0)
(3 -4.77229e-17 0)
(3 -7.81401e-17 0)
(3 -2.4129e-16 0)
(3 -4.7265e-16 0)
(3 -5.0299e-16 0)
(3 -1.14863e-15 0)
(3 -1.36716e-15 0)
(3 -1.16023e-15 0)
(3 -8.61708e-16 0)
(3 -7.86888e-16 0)
(3 -5.9159e-16 0)
(3 -5.7111e-16 0)
(3 -4.078e-16 0)
(3 -5.23179e-16 0)
(3 -8.39387e-17 0)
(3 1.11171e-16 0)
(3 -2.61199e-16 0)
(2.85186 0.114838 0)
(1.01565 0.257171 0)
(0.791155 0.23036 0)
(0.783885 0.217672 0)
(0.766277 0.218286 0)
(0.751024 0.223654 0)
(0.735926 0.230854 0)
(0.720893 0.237117 0)
(0.705287 0.240187 0)
(0.689272 0.239689 0)
(0.673147 0.236868 0)
(0.656989 0.234175 0)
(0.640799 0.234316 0)
(0.625131 0.238869 0)
(0.610038 0.246245 0)
(0.59416 0.252498 0)
(0.577225 0.254734 0)
(0.560184 0.25313 0)
(0.543304 0.251752 0)
(0.527301 0.255325 0)
(0.512805 0.262806 0)
(0.49751 0.268551 0)
(0.481273 0.269756 0)
(0.4646 0.271064 0)
(0.448042 0.275416 0)
(0.431526 0.281066 0)
(0.41483 0.285835 0)
(0.398427 0.290386 0)
(0.382548 0.295841 0)
(0.366872 0.301771 0)
(0.350903 0.307673 0)
(0.334498 0.314052 0)
(0.317576 0.32109 0)
(0.299949 0.328173 0)
(0.281607 0.33488 0)
(0.262721 0.341443 0)
(0.243314 0.347911 0)
(0.2233 0.354145 0)
(0.202587 0.360163 0)
(0.181016 0.365748 0)
(0.158533 0.371003 0)
(0.134931 0.375091 0)
(0.110625 0.379347 0)
(0.0857284 0.382332 0)
(0.0611241 0.386858 0)
(0.0364041 0.389758 0)
(0.0126256 0.394895 0)
(3 -9.35719e-17 0)
(3 -2.80701e-16 0)
(3 -5.43549e-16 0)
(3 -6.689e-16 0)
(3 -5.02292e-16 0)
(3 -7.37042e-16 0)
(3 -8.23785e-16 0)
(3 -8.18657e-16 0)
(3 -7.75164e-16 0)
(3 -8.30717e-16 0)
(3 -7.27705e-16 0)
(3 -4.22677e-16 0)
(3 -3.52033e-16 0)
(3 -5.22526e-16 0)
(3 -5.95002e-16 0)
(3 -6.32742e-16 0)
(3 -5.04406e-16 0)
(3 -2.16525e-16 0)
(3 -1.25375e-16 0)
(3 -1.38658e-16 0)
(3 -1.54567e-16 0)
(3 -2.59424e-17 0)
(3 2.69904e-16 0)
(3 2.24875e-16 0)
(3 2.60533e-16 0)
(3 -3.51664e-16 0)
(3 -4.88911e-16 0)
(3 -7.19699e-16 0)
(3 -7.84709e-16 0)
(3 -1.23301e-15 0)
(3 -1.89673e-15 0)
(3 -1.73631e-15 0)
(3 -9.09427e-16 0)
(3 -2.40145e-16 0)
(3 -2.38004e-16 0)
(3 -6.0767e-16 0)
(3 -5.37624e-16 0)
(3 -5.54553e-16 0)
(3 -4.4943e-16 0)
(3 -9.0298e-16 0)
(3 -1.22073e-15 0)
(3 -1.15801e-15 0)
(3 -9.88288e-16 0)
(3 -7.77451e-16 0)
(3 -4.29081e-16 0)
(3 2.43136e-17 0)
(3 7.0698e-16 0)
(3 1.54575e-15 0)
(3 7.87014e-16 0)
(3.01126 0.00397604 0)
(1.21806 0.26972 0)
(0.806777 0.229005 0)
(0.794022 0.247084 0)
(0.777355 0.254728 0)
(0.761291 0.25963 0)
(0.74658 0.264352 0)
(0.732845 0.268229 0)
(0.719441 0.270224 0)
(0.705909 0.269933 0)
(0.69214 0.26808 0)
(0.678001 0.266291 0)
(0.663391 0.266431 0)
(0.648701 0.270165 0)
(0.63446 0.277038 0)
(0.61978 0.283944 0)
(0.603878 0.287739 0)
(0.587249 0.287553 0)
(0.570387 0.285964 0)
(0.553666 0.288186 0)
(0.5385 0.295406 0)
(0.523162 0.302839 0)
(0.506475 0.305796 0)
(0.48909 0.307125 0)
(0.471577 0.311174 0)
(0.454203 0.317297 0)
(0.4365 0.322915 0)
(0.41883 0.327958 0)
(0.40164 0.333846 0)
(0.384859 0.340549 0)
(0.368008 0.347367 0)
(0.350852 0.354527 0)
(0.333324 0.362414 0)
(0.315222 0.370702 0)
(0.29638 0.378941 0)
(0.276875 0.387276 0)
(0.256723 0.395808 0)
(0.23579 0.404261 0)
(0.214027 0.412605 0)
(0.191269 0.42045 0)
(0.167661 0.42795 0)
(0.142945 0.434196 0)
(0.117483 0.440157 0)
(0.0911935 0.444178 0)
(0.0649593 0.448915 0)
(0.0386163 0.451634 0)
(0.0132603 0.456807 0)
(3 1.68896e-17 0)
(3 6.42292e-17 0)
(3 -4.44507e-17 0)
(3 -1.61101e-17 0)
(3 5.96754e-17 0)
(3 2.68796e-16 0)
(3 3.52626e-16 0)
(3 3.99704e-16 0)
(3 4.98899e-16 0)
(3 1.41564e-16 0)
(3 5.38114e-17 0)
(3 5.00785e-17 0)
(3 1.93407e-16 0)
(3 1.21222e-16 0)
(3 1.27566e-17 0)
(3 -6.94721e-16 0)
(3 -2.11286e-15 0)
(3 -2.45731e-15 0)
(3 -2.23049e-15 0)
(3 -2.39958e-15 0)
(3 -2.94198e-15 0)
(3 -2.9309e-15 0)
(3 -2.83739e-15 0)
(3 -2.93312e-15 0)
(3 -2.419e-15 0)
(3 -1.8101e-15 0)
(3 -1.4997e-15 0)
(3 -1.77159e-15 0)
(3 -2.13416e-15 0)
(3 -2.54098e-15 0)
(3 -2.79758e-15 0)
(3 -2.44613e-15 0)
(3 -2.15115e-15 0)
(3 -1.77386e-15 0)
(3 -1.42682e-15 0)
(3 -1.22835e-15 0)
(3 -8.84598e-16 0)
(3 -3.38012e-17 0)
(3 6.24964e-16 0)
(3 5.40073e-16 0)
(3 -2.43855e-16 0)
(3 -8.31332e-16 0)
(3 -8.16722e-16 0)
(3 -6.2927e-16 0)
(3 -4.025e-16 0)
(3 -4.46093e-17 0)
(3 6.59426e-17 0)
(3 3.13309e-16 0)
(3 -1.89332e-16 0)
(3.00008 5.68966e-06 0)
(1.69713 0.308083 0)
(0.830795 0.277236 0)
(0.774103 0.275877 0)
(0.761737 0.283268 0)
(0.748763 0.286204 0)
(0.7374 0.289224 0)
(0.726291 0.29187 0)
(0.715112 0.294013 0)
(0.703356 0.295173 0)
(0.691098 0.295501 0)
(0.678523 0.295995 0)
(0.665726 0.297783 0)
(0.652879 0.301943 0)
(0.640452 0.308758 0)
(0.628155 0.316421 0)
(0.614979 0.321972 0)
(0.60089 0.323812 0)
(0.586374 0.323258 0)
(0.571477 0.324694 0)
(0.557552 0.331039 0)
(0.544122 0.339539 0)
(0.529054 0.344938 0)
(0.512701 0.347193 0)
(0.495755 0.351064 0)
(0.478857 0.35752 0)
(0.461562 0.364234 0)
(0.443885 0.370075 0)
(0.426379 0.376318 0)
(0.409263 0.383545 0)
(0.392192 0.391159 0)
(0.374802 0.399074 0)
(0.357011 0.407715 0)
(0.338722 0.417119 0)
(0.319774 0.426916 0)
(0.300201 0.437045 0)
(0.280109 0.447688 0)
(0.25915 0.45837 0)
(0.237543 0.468989 0)
(0.214815 0.479077 0)
(0.190804 0.48888 0)
(0.165282 0.498043 0)
(0.137888 0.507459 0)
(0.108326 0.51528 0)
(0.0775353 0.522375 0)
(0.0459759 0.525974 0)
(0.0155561 0.530994 0)
(3 3.79625e-17 0)
(3 9.11662e-17 0)
(3 1.55619e-16 0)
(3 4.04907e-16 0)
(3 7.71013e-16 0)
(3 1.06572e-15 0)
(3 8.25812e-16 0)
(3 7.15423e-16 0)
(3 6.15512e-16 0)
(3 5.93247e-16 0)
(3 4.47925e-16 0)
(3 4.03074e-16 0)
(3 4.86471e-16 0)
(3 6.11657e-16 0)
(3 -4.07955e-16 0)
(3 -1.22294e-15 0)
(3 -1.80474e-15 0)
(3 -2.12015e-15 0)
(3 -2.6201e-15 0)
(3 -2.78738e-15 0)
(3 -2.75876e-15 0)
(3 -2.75664e-15 0)
(3 -3.55785e-15 0)
(3 -3.58648e-15 0)
(3 -3.03457e-15 0)
(3 -2.70149e-15 0)
(3 -2.67395e-15 0)
(3 -2.79278e-15 0)
(3 -2.80741e-15 0)
(3 -2.49513e-15 0)
(3 -1.38703e-15 0)
(3 -1.48081e-15 0)
(3 -1.57537e-15 0)
(3 -1.58922e-15 0)
(3 -1.82327e-15 0)
(3 -2.49892e-15 0)
(3 -2.48733e-15 0)
(3 -4.28102e-16 0)
(3 2.0925e-16 0)
(3 4.21304e-16 0)
(3 1.42933e-17 0)
(3 -5.48627e-16 0)
(3 -4.12585e-16 0)
(3 -3.69712e-16 0)
(3 -8.1273e-16 0)
(3 -7.63177e-16 0)
(3 -7.06357e-16 0)
(3 -5.32531e-16 0)
(3 -6.33448e-16 0)
(3 1.03972e-08 0)
(2.56707 0.2373 0)
(0.960114 0.338444 0)
(0.793416 0.319792 0)
(0.778931 0.310941 0)
(0.763556 0.313476 0)
(0.750749 0.315757 0)
(0.738425 0.318451 0)
(0.72619 0.321125 0)
(0.713558 0.323229 0)
(0.700577 0.324524 0)
(0.687606 0.325777 0)
(0.674938 0.328015 0)
(0.662656 0.331972 0)
(0.650957 0.338119 0)
(0.639816 0.345584 0)
(0.628376 0.352079 0)
(0.616089 0.355783 0)
(0.603191 0.357025 0)
(0.589771 0.358832 0)
(0.576663 0.364661 0)
(0.564578 0.374045 0)
(0.551442 0.3826 0)
(0.536557 0.387472 0)
(0.520803 0.392136 0)
(0.505035 0.39915 0)
(0.489166 0.407289 0)
(0.472727 0.414721 0)
(0.455986 0.421845 0)
(0.43925 0.429923 0)
(0.422497 0.438747 0)
(0.405294 0.448009 0)
(0.38744 0.457933 0)
(0.369013 0.468755 0)
(0.349951 0.480378 0)
(0.329917 0.492541 0)
(0.309318 0.505635 0)
(0.287532 0.519291 0)
(0.264556 0.533631 0)
(0.239642 0.548176 0)
(0.212693 0.563229 0)
(0.183493 0.578409 0)
(0.152832 0.593959 0)
(0.121032 0.608178 0)
(0.088041 0.618913 0)
(0.0536871 0.624531 0)
(0.017298 0.627752 0)
(3 -4.14729e-17 0)
(3 -2.31853e-17 0)
(3 1.5271e-16 0)
(3 2.52843e-16 0)
(3 2.41692e-16 0)
(3 -1.9352e-16 0)
(3 -2.09343e-16 0)
(3 -1.47149e-16 0)
(3 -2.35606e-16 0)
(3 -1.99098e-16 0)
(3 -3.2868e-16 0)
(3 -4.37858e-16 0)
(3 -4.57544e-16 0)
(3 -5.14534e-16 0)
(3 -3.07222e-16 0)
(3 -1.8925e-16 0)
(3 -3.00079e-16 0)
(3 -4.55671e-16 0)
(3 -1.16425e-15 0)
(3 -1.39571e-15 0)
(3 -1.32168e-15 0)
(3 -1.53855e-15 0)
(3 -1.92008e-15 0)
(3 -2.34913e-15 0)
(3 -2.59726e-15 0)
(3 -2.54282e-15 0)
(3 -2.44487e-15 0)
(3 -1.94673e-15 0)
(3 -1.64092e-15 0)
(3 -1.26094e-15 0)
(3 -6.47424e-16 0)
(3 -2.71707e-16 0)
(3 -2.50783e-16 0)
(3 4.59242e-17 0)
(3 2.57319e-16 0)
(3 4.46709e-16 0)
(3 3.19062e-16 0)
(3 2.13405e-16 0)
(3 9.30398e-17 0)
(3 5.15239e-16 0)
(3 1.00574e-15 0)
(3 4.47946e-16 0)
(3 1.3679e-16 0)
(3 -1.51332e-16 0)
(3 -3.3428e-16 0)
(3 9.81074e-17 0)
(3 3.06257e-16 0)
(3 6.86805e-17 0)
(3 -6.29352e-16 0)
(3 -9.45735e-10 0)
(3.02286 0.00957634 0)
(1.35493 0.382193 0)
(0.846276 0.337002 0)
(0.816605 0.335137 0)
(0.801062 0.337662 0)
(0.786531 0.339391 0)
(0.77278 0.342349 0)
(0.759021 0.346174 0)
(0.744866 0.349944 0)
(0.730223 0.352607 0)
(0.715606 0.354351 0)
(0.701544 0.35646 0)
(0.688241 0.359911 0)
(0.675761 0.365288 0)
(0.664119 0.372322 0)
(0.652757 0.379447 0)
(0.640946 0.384914 0)
(0.628576 0.388278 0)
(0.615831 0.391073 0)
(0.603126 0.396404 0)
(0.591448 0.405658 0)
(0.579919 0.416313 0)
(0.566786 0.424492 0)
(0.552494 0.430726 0)
(0.538066 0.438245 0)
(0.523874 0.44749 0)
(0.509425 0.457076 0)
(0.493981 0.46625 0)
(0.478586 0.475928 0)
(0.462843 0.486639 0)
(0.446541 0.498099 0)
(0.42949 0.510245 0)
(0.411644 0.52325 0)
(0.393188 0.537359 0)
(0.373901 0.552448 0)
(0.353957 0.56901 0)
(0.333125 0.586968 0)
(0.311274 0.606405 0)
(0.287989 0.626914 0)
(0.262959 0.647912 0)
(0.236196 0.668521 0)
(0.207123 0.687183 0)
(0.176268 0.705913 0)
(0.139714 0.72628 0)
(0.0944338 0.749172 0)
(0.0362304 0.768672 0)
(3 4.97581e-17 0)
(3 1.01354e-16 0)
(3 1.82466e-16 0)
(3 1.76047e-16 0)
(3 1.28612e-16 0)
(3 1.57229e-16 0)
(3 2.15564e-16 0)