/*--------------------------------*- C++ -*----------------------------------*\
  =========                 |
  \\      /  F ield         | OpenFOAM: The Open Source CFD Toolbox
   \\    /   O peration     | Website:  https://openfoam.org
    \\  /    A nd           | Version:  7
     \\/     M anipulation  |
\*---------------------------------------------------------------------------*/
FoamFile
{
    version     2.0;
    format      ascii;
    class       volScalarField;
    location    "4.6";
    object      p;
}
// * * * * * * * * * * * * * * * * * * * * * * * * * * * * * * * * * * * * * //

dimensions      [1 -1 -2 0 0 0 0];

internalField   nonuniform List<scalar> 
19968
(
1
1
1
1
1
1
1
1
1
1
1
1
1
1
1
1
1
1
1
1
1
1
1
1
1
1
1
1
1
1
1
1
1
1
1
1
1
1
1
1
1
1
1
1
1
1
1
1
1.50403
7.96252
10.4313
10.4634
10.5217
10.5786
10.6341
10.6857
10.7369
10.7917
10.851
10.9119
10.9707
11.0243
11.0727
11.1178
11.1616
11.2077
11.2575
11.3091
11.3587
11.4031
11.441
11.4738
11.5052
11.5387
11.5767
11.618
11.6591
11.6971
11.731
11.7618
11.7904
11.8167
11.8403
11.8613
11.8812
11.9021
11.9259
11.952
11.9779
11.9997
12.0151
12.0246
12.0295
12.0313
12.0327
12.032
1
1
1
1
1
1
1
1
1
1
1
1
1
1
1
1
1
1
1
1
1
1
1
1
1
1
1
1
1
1
1
1
1
1
1
1
1
1
1
1
1
1
1
1
1
1
1
1
1.47733
7.89781
10.4196
10.4585
10.5178
10.5752
10.6313
10.6837
10.7351
10.7895
10.8482
10.9088
10.9675
11.0212
11.0696
11.1143
11.1579
11.2038
11.2533
11.3044
11.3539
11.3983
11.4364
11.4696
11.5016
11.5356
11.5736
11.6144
11.6549
11.6923
11.726
11.7569
11.7855
11.8119
11.8354
11.8562
11.8759
11.8967
11.92
11.9457
11.9711
11.9925
12.0078
12.0173
12.0226
12.0248
12.0265
12.0263
1
1
1
1
1
1
1
1
1
1
1
1
1
1
1
1
1
1
1
1
1
1
1
1
1
1
1
1
1
1
1
1
1
1
1
1
1
1
1
1
1
1
1
1
1
1
1
1
1.4167
7.75563
10.4088
10.4453
10.5066
10.565
10.6228
10.6768
10.7289
10.7833
10.8417
10.902
10.9609
11.0148
11.0631
11.1076
11.1508
11.1962
11.245
11.2956
11.3446
11.3892
11.4279
11.4622
11.4951
11.5298
11.5676
11.6076
11.6472
11.6842
11.718
11.7491
11.7779
11.8042
11.8276
11.8483
11.8679
11.8883
11.911
11.9358
11.9603
11.9811
11.9962
12.0058
12.0114
12.0142
12.016
12.0163
1
1
1
1
1
1
1
1
1
1
1
1
1
1
1
1
1
1
1
1
1
1
1
1
1
1
1
1
1
1
1
1
1
1
1
1
1
1
1
1
1
1
1
1
1
1
1
1
1.32824
7.5204
10.3917
10.4287
10.4926
10.5521
10.6119
10.6676
10.7205
10.7748
10.8328
10.8925
10.9516
11.0055
11.0535
11.0974
11.14
11.1846
11.2326
11.2821
11.3305
11.375
11.4145
11.4502
11.4846
11.5202
11.5578
11.5969
11.6355
11.672
11.7057
11.7368
11.7656
11.7917
11.8149
11.8355
11.8548
11.8746
11.8963
11.9197
11.9427
11.9625
11.9773
11.9869
11.9931
11.9964
11.9985
11.9994
1
1
1
1
1
1
1
1
1
1
1
1
1
1
1
1
1
1
1
1
1
1
1
1
1
1
1
1
1
1
1
1
1
1
1
1
1
1
1
1
1
1
1
1
1
1
1
1
1.20598
7.19311
10.3837
10.4142
10.4779
10.5377
10.598
10.6545
10.708
10.7625
10.8203
10.8801
10.9398
10.9941
11.0419
11.0854
11.1272
11.171
11.2176
11.2657
11.3128
11.357
11.3972
11.4346
11.4709
11.5076
11.5453
11.5834
11.621
11.657
11.6906
11.7218
11.7504
11.7763
11.7993
11.8197
11.8388
11.8579
11.8783
11.8998
11.9209
11.9392
11.953
11.962
11.9677
11.9708
11.9729
11.974
1
1
1
1
1
1
1
1
1
1
1
1
1
1
1
1
1
1
1
1
1
1
1
1
1
1
1
1
1
1
1
1
1
1
1
1
1
1
1
1
1
1
1
1
1
1
1
1
1.00889
6.65644
10.3741
10.4142
10.4677
10.5278
10.5868
10.6428
10.6966
10.751
10.8083
10.8679
10.928
10.9828
11.0306
11.0736
11.1143
11.1564
11.2008
11.2463
11.291
11.3336
11.3734
11.4114
11.4488
11.4864
11.5238
11.5606
11.5966
11.6314
11.6644
11.6952
11.7236
11.7493
11.7722
11.7927
11.8117
11.8303
11.8498
11.8703
11.8904
11.9081
11.922
11.9315
11.9376
11.9413
11.9436
11.9452
1
1
1
1
1
1
1
1
1
1
1
1
1
1
1
1
1
1
1
1
1
1
1
1
1
1
1
1
1
1
1
1
1
1
1
1
1
1
1
1
1
1
1
1
1
1
1
1
1.00004
5.90865
10.2862
10.3785
10.4278
10.4937
10.5544
10.6123
10.6675
10.7224
10.7791
10.8378
10.8968
10.9507
10.9974
11.0397
11.0796
11.1207
11.1639
11.208
11.251
11.2927
11.3323
11.3714
11.4108
11.4502
11.4883
11.5247
11.5595
11.5931
11.6254
11.6561
11.6846
11.7106
11.7338
11.7545
11.7734
11.7917
11.8107
11.8303
11.8497
11.8671
11.8809
11.8908
11.8972
11.9015
11.9041
11.9064
1
1
1
1
1
1
1
1
1
1
1
1
1
1
1
1
1
1
1
1
1
1
1
1
1
1
1
1
1
1
1
1
1
1
1
1
1
1
1
1
1
1
1
1
1
1
1
1
1
4.95826
10.1401
10.349
10.3966
10.4671
10.5289
10.5877
10.6438
10.6986
10.7542
10.8111
10.8684
10.9212
10.9671
11.0091
11.0491
11.0896
11.1313
11.1737
11.2145
11.2543
11.2924
11.3311
11.371
11.4113
11.4496
11.485
11.5179
11.5494
11.58
11.6099
11.6383
11.6646
11.6881
11.7087
11.7274
11.7452
11.7634
11.7823
11.8009
11.8175
11.8308
11.8404
11.8469
11.8517
11.8544
11.8572
1
1
1
1
1
1
1
1
1
1
1
1
1
1
1
1
1
1
1
1
1
1
1
1
1
1
1
1
1
1
1
1
1
1
1
1
1
1
1
1
1
1
1
1
1
1
1
1
1
3.88022
9.83097
10.3235
10.3692
10.4409
10.5015
10.5596
10.6154
10.67
10.7244
10.7791
10.8341
10.8852
10.9299
10.9712
11.011
11.0508
11.0906
11.1306
11.1687
11.2055
11.241
11.2778
11.317
11.3574
11.3957
11.4299
11.4606
11.4893
11.5175
11.5458
11.5736
11.5998
11.6234
11.6441
11.6628
11.6807
11.6991
11.7179
11.7362
11.7523
11.7653
11.7749
11.7817
11.7871
11.7902
11.7935
1
1
1
1
1
1
1
1
1
1
1
1
1
1
1
1
1
1
1
1
1
1
1
1
1
1
1
1
1
1
1
1
1
1
1
1
1
1
1
1
1
1
1
1
1
1
1
1
1
2.76502
9.26639
10.3056
10.367
10.4326
10.4858
10.5391
10.5915
10.6439
10.6959
10.7476
10.7989
10.8469
10.8898
10.9298
10.9692
11.0085
11.0469
11.0851
11.121
11.1548
11.1877
11.2215
11.2585
11.2972
11.3339
11.3656
11.3927
11.4174
11.4417
11.467
11.4931
11.5187
11.5424
11.5638
11.5833
11.602
11.6206
11.639
11.6559
11.6701
11.6811
11.6893
11.6953
11.7004
11.7031
11.7062
1
1
1
1
1
1
1
1
1
1
1
1
1
1
1
1
1
1
1
1
1
1
1
1
1
1
1
1
1
1
1
1
1
1
1
1
1
1
1
1
1
1
1
1
1
1
1
1
1
1.7626
8.28939
10.3463
10.337
10.3964
10.4444
10.4961
10.5479
10.6
10.6517
10.7027
10.7524
10.7994
10.8421
10.8813
10.9198
10.9586
10.9963
11.0336
11.0685
11.0998
11.1304
11.1611
11.1952
11.2315
11.2665
11.2961
11.3201
11.3401
11.359
11.3785
11.3994
11.421
11.4421
11.4617
11.48
11.4975
11.5146
11.5312
11.5464
11.5592
11.5697
11.5778
11.5841
11.5896
11.5924
11.5957
1
1
1
1
1
1
1
1
1
1
1
1
1
1
1
1
1
1
1
1
1
1
1
1
1
1
1
1
1
1
1
1
1
1
1
1
1
1
1
1
1
1
1
1
1
1
1
1
1
1.02777
6.5899
10.3322
10.3549
10.387
10.4294
10.4737
10.5203
10.568
10.6164
10.6639
10.7089
10.7506
10.7888
10.8239
10.8586
10.8948
10.93
10.9643
10.9971
11.0256
11.0533
11.0801
11.1098
11.1422
11.1748
11.203
11.2251
11.2422
11.2567
11.2709
11.2866
11.3046
11.3239
11.3433
11.3615
11.378
11.3929
11.4058
11.4163
11.4239
11.4288
11.4311
11.4319
11.4327
11.4326
11.4341
1
1
1
1
1
1
1
1
1
1
1
1
1
1
1
1
1
1
1
1
1
1
1
1
1
1
1
1
1
1
1
1
1
1
1
1
1
1
1
1
1
1
1
1
1
1
1
1
1
1.00005
4.49819
9.88738
10.2001
10.2651
10.3301
10.3813
10.4289
10.4744
10.5201
10.5657
10.6094
10.6499
10.6878
10.723
10.7564
10.7909
10.8255
10.8585
10.891
10.9202
10.9463
10.9709
10.9964
11.0251
11.0549
11.082
11.103
11.1178
11.1283
11.1368
11.1458
11.1576
11.1722
11.1876
11.2006
11.2099
11.2155
11.2184
11.2201
11.2214
11.2234
11.2257
11.227
11.2286
11.2288
11.2301
1
1
1
1
1
1
1
1
1
1
1
1
1
1
1
1
1
1
1
1
1
1
1
1
1
1
1
1
1
1
1
1
1
1
1
1
1
1
1
1
1
1
1
1
1
1
1
1
1
1
2.31257
8.71032
10.1625
10.203
10.2764
10.3295
10.3759
10.4179
10.4599
10.5024
10.544
10.5825
10.6177
10.6501
10.6796
10.7089
10.7396
10.7696
10.799
10.8265
10.8489
10.8687
10.8869
10.9078
10.9308
10.9529
10.9698
10.9801
10.9854
10.9864
10.9866
10.989
10.9961
11.0051
11.0124
11.0151
11.0118
11.0057
10.9988
10.9925
10.9847
10.9735
10.9548
10.931
10.9052
10.8828
1
1
1
1
1
1
1
1
1
1
1
1
1
1
1
1
1
1
1
1
1
1
1
1
1
1
1
1
1
1
1
1
1
1
1
1
1
1
1
1
1
1
1
1
1
1
1
1
1
1
1.05353
6.23641
10.2129
10.2377
10.2635
10.2944
10.3225
10.3509
10.382
10.4169
10.4539
10.4895
10.5212
10.5493
10.5742
10.5974
10.6224
10.6481
10.6728
10.6969
10.7172
10.7329
10.7455
10.7577
10.772
10.7866
10.7979
10.8046
10.8049
10.7978
10.7875
10.7781
10.7719
10.7682
10.7623
10.749
10.7251
10.6922
10.6532
10.6106
10.5649
10.5176
10.4763
10.4393
10.4206
10.4105
1
1
1
1
1
1
1
1
1
1
1
1
1
1
1
1
1
1
1
1
1
1
1
1
1
1
1
1
1
1
1
1
1
1
1
1
1
1
1
1
1
1
1
1
1
1
1
1
1
1
1.00007
3.14454
9.22397
10.0904
10.1204
10.1606
10.195
10.2273
10.2595
10.2943
10.3321
10.3706
10.4065
10.4375
10.4627
10.482
10.4984
10.515
10.5321
10.5501
10.568
10.5818
10.5905
10.5949
10.5985
10.6025
10.6056
10.6048
10.5975
10.5826
10.5607
10.5341
10.507
10.4808
10.4529
10.418
10.3714
10.3125
10.2446
10.1729
10.1002
10.0289
9.94765
9.86951
9.75836
9.85186
1
1
1
1
1
1
1
1
1
1
1
1
1
1
1
1
1
1
1
1
1
1
1
1
1
1
1
1
1
1
1
1
1
1
1
1
1
1
1
1
1
1
1
1
1
1
1
1
1
1
1
1.16385
7.19093
10.1244
10.0928
10.1061
10.1293
10.1502
10.1728
10.1997
10.2329
10.2704
10.3074
10.3386
10.3613
10.3755
10.384
10.3914
10.4002
10.4105
10.4228
10.4342
10.4406
10.4389
10.4328
10.4258
10.4178
10.4072
10.3916
10.3687
10.3369
10.2956
10.2476
10.196
10.1412
10.0793
10.003
9.9063
9.783
9.63193
9.43761
9.18745
8.82001
8.27797
7.36285
5.49836
1
1
1
1
1
1
1
1
1
1
1
1
1
1
1
1
1
1
1
1
1
1
1
1
1
1
1
1
1
1
1
1
1
1
1
1
1
1
1
1
1
1
1
1
1
1
1
1
1
1
1
1.00079
4.51458
9.66252
9.92237
9.97795
10.0235
10.0548
10.0816
10.1071
10.1351
10.1656
10.1979
10.2274
10.2516
10.2679
10.276
10.2787
10.2813
10.2861
10.2931
10.3007
10.3043
10.2977
10.2858
10.2711
10.2539
10.2335
10.2083
10.1767
10.1363
10.0843
10.02
9.94579
9.8636
9.77334
9.6656
9.53299
9.35823
9.13973
8.84951
8.48853
7.98191
7.34758
6.1329
4.50974
1
1
1
1
1
1
1
1
1
1
1
1
1
1
1
1
1
1
1
1
1
1
1
1
1
1
1
1
1
1
1
1
1
1
1
1
1
1
1
1
1
1
1
1
1
1
1
1
1
1
1
0.999997
1.88919
8.19746
9.8723
9.90255
9.95103
9.98109
10.007
10.0302
10.0566
10.0832
10.1097
10.1343
10.1559
10.1707
10.1748
10.1717
10.1679
10.1669
10.1678
10.169
10.1664
10.1556
10.138
10.1158
10.0893
10.0584
10.0218
9.9784
9.92625
9.86254
9.78348
9.69037
9.58285
9.46491
9.32703
9.16277
8.95149
8.68532
8.34649
7.91981
7.38585
6.63603
5.6259
4.55755
1
1
1
1
1
1
1
1
1
1
1
1
1
1
1
1
1
1
1
1
1
1
1
1
1
1
1
1
1
1
1
1
1
1
1
1
1
1
1
1
1
1
1
1
1
1
1
1
1
1
1
1
1.02825
5.31387
9.67393
9.82639
9.86696
9.89771
9.92172
9.94635
9.97828
10.0044
10.0234
10.0402
10.0534
10.0625
10.062
10.0556
10.0491
10.0443
10.0408
10.0354
10.0261
10.0091
9.98351
9.95227
9.91712
9.87801
9.83227
9.77834
9.71368
9.63748
9.54488
9.43694
9.31047
9.16989
9.00827
8.81909
8.5865
8.29734
7.94322
7.50311
6.97518
6.2994
5.5202
4.72766
1
1
1
1
1
1
1
1
1
1
1
1
1
1
1
1
1
1
1
1
1
1
1
1
1
1
1
1
1
1
1
1
1
1
1
1
1
1
1
1
1
1
1
1
1
1
1
1
1
1
1
1
1
2.13629
8.3757
9.78209
9.80034
9.83391
9.8467
9.86743
9.89628
9.91844
9.93657
9.95194
9.96072
9.96319
9.95667
9.94516
9.93339
9.92218
9.91203
9.90127
9.88655
9.86395
9.83143
9.79106
9.74557
9.6971
9.64315
9.58151
9.50736
9.42027
9.31576
9.19521
9.05576
8.89915
8.72184
8.51745
8.27493
7.98218
7.64027
7.21527
6.73699
6.17641
5.55519
4.92612
1
1
1
1
1
1
1
1
1
1
1
1
1
1
1
1
1
1
1
1
1
1
1
1
1
1
1
1
1
1
1
1
1
1
1
1
1
1
1
1
1
1
1
1
1
1
1
1
1
1
1
1
0.999999
1.04187
5.33873
9.57912
9.76121
9.78075
9.79097
9.80481
9.82332
9.83225
9.83998
9.84958
9.85609
9.85645
9.84967
9.83815
9.82364
9.80585
9.78716
9.7685
9.74722
9.72093
9.68404
9.63567
9.57814
9.51784
9.4546
9.38582
9.30531
9.21039
9.09692
8.96709
8.81997
8.65514
8.47062
8.26058
8.01839
7.73171
7.41181
7.01875
6.60542
6.14024
5.63079
5.11681
1
1
1
1
1
1
1
1
1
1
1
1
1
1
1
1
1
1
1
1
1
1
1
1
1
1
1
1
1
1
1
1
1
1
1
1
1
1
1
1
1
1
1
1
1
1
1
1
1
1
1
1
1
1.00004
1.94534
8.11724
9.74406
9.71167
9.72613
9.73999
9.74764
9.74691
9.74533
9.74565
9.74613
9.74414
9.73822
9.72936
9.71512
9.69218
9.66445
9.63516
9.60556
9.57561
9.53704
9.48556
9.42093
9.35019
9.27634
9.19874
9.11198
9.01176
8.89404
8.76058
8.61102
8.44388
8.2579
8.04853
7.81394
7.53653
7.2392
6.8866
6.52905
6.13163
5.70897
5.26878
1
1
1
1
1
1
1
1
1
1
1
1
1
1
1
1
1
1
1
1
1
1
1
1
1
1
1
1
1
1
1
1
1
1
1
1
1
1
1
1
1
1
1
1
1
1
1
1
1
1
1
1
1
1
1.02771
4.7807
9.33024
9.60426
9.61663
9.64079
9.65712
9.6612
9.66013
9.65552
9.64997
9.64325
9.63425
9.62545
9.61113
9.58593
9.55319
9.51415
9.47264
9.43312
9.38997
9.33759
9.27151
9.19522
9.11297
9.02648
8.93108
8.82365
8.70237
8.56804
8.42016
8.25649
8.07596
7.8737
7.64978
7.38935
7.11279
6.79841
6.48337
6.13206
5.77529
5.39428
1
1
1
1
1
1
1
1
1
1
1
1
1
1
1
1
1
1
1
1
1
1
1
1
1
1
1
1
1
1
1
1
1
1
1
1
1
1
1
1
1
1
1
1
1
1
1
1
1
1
1
1
1
1
1.00001
1.4472
7.44477
9.66239
9.59051
9.59533
9.58174
9.57691
9.57097
9.56172
9.55147
9.53991
9.52551
9.51416
9.49833
9.47036
9.43521
9.392
9.34159
9.29339
9.24442
9.19118
9.12716
9.05102
8.96583
8.87346
8.76939
8.65502
8.53098
8.39678
8.25209
8.09409
7.92252
7.72927
7.51681
7.27726
7.01932
6.73863
6.45442
6.13978
5.8346
5.49927
1
1
1
1
1
1
1
1
1
1
1
1
1
1
1
1
1
1
1
1
1
1
1
1
1
1
1
1
1
1
1
1
1
1
1
1
1
1
1
1
1
1
1
1
1
1
1
1
1
1
1
1
1
1
1
1.00603
3.74588
8.90244
9.39312
9.44114
9.47161
9.47265
9.46462
9.45395
9.44054
9.42692
9.41004
9.39457
9.3758
9.34606
9.31198
9.27036
9.21741
9.1632
9.10541
9.04687
8.98235
8.90917
8.82598
8.73195
8.62257
8.50438
8.37864
8.24396
8.10199
7.94947
7.78881
7.60502
7.40603
7.18699
6.94829
6.6971
6.43804
6.15906
5.89031
5.5899
1
1
1
1
1
1
1
1
1
1
1
1
1
1
1
1
1
1
1
1
1
1
1
1
1
1
1
1
1
1
1
1
1
1
1
1
1
1
1
1
1
1
1
1
1
1
1
1
1
1
1
1
1
1
1
1
1.20443
6.06327
9.37328
9.39658
9.39141
9.37993
9.37268
9.36439
9.35249
9.33752
9.31763
9.29433
9.27089
9.23686
9.2008
9.15904
9.10582
9.0471
8.9799
8.91381
8.84765
8.77608
8.6953
8.60221
8.49042
8.37329
8.24953
8.11592
7.97681
7.82785
7.67522
7.49862
7.31253
7.11149
6.89048
6.66343
6.42734
6.18226
5.9361
5.66786
1
1
1
1
1
1
1
1
1
1
1
1
1
1
1
1
1
1
1
1
1
1
1
1
1
1
1
1
1
1
1
1
1
1
1
1
1
1
1
1
1
1
1
1
1
1
1
1
1
1
1
1
1
1
1
1
1.00129
2.06994
7.94244
9.32483
9.25978
9.26791
9.26757
9.26316
9.2539
9.23792
9.21452
9.18404
9.15504
9.12195
9.08531
9.04414
8.99337
8.93362
8.86012
8.78874
8.72196
8.64676
8.56479
8.47361
8.36586
8.25324
8.13358
8.00379
7.86966
7.72264
7.57664
7.40758
7.23205
7.04567
6.8405
6.63637
6.4198
6.2024
5.97367
5.73818
1
1
1
1
1
1
1
1
1
1
1
1
1
1
1
1
1
1
1
1
1
1
1
1
1
1
1
1
1
1
1
1
1
1
1
1
1
1
1
1
1
1
1
1
1
1
1
1
1
1
1
1
1
1
1
1
1
1.03299
4.07071
8.867
9.15694
9.17309
9.17784
9.17297
9.16509
9.14746
9.12154
9.08499
9.04709
9.01299
8.97451
8.93305
8.88422
8.82439
8.75013
8.67806
8.61275
8.53559
8.45057
8.35824
8.25368
8.14169
8.02869
7.90746
7.7799
7.63625
7.49383
7.33239
7.16392
6.98865
6.80012
6.61429
6.41256
6.21853
6.00611
5.79823
1
1
1
1
1
1
1
1
1
1
1
1
1
1
1
1
1
1
1
1
1
1
1
1
1
1
1
1
1
1
1
1
1
1
1
1
1
1
1
1
1
1
1
1
1
1
1
1
1
1
1
1
1
1
1
1
1
1.00006
1.24147
5.65209
9.01819
9.15072
9.12275
9.11212
9.09635
9.07419
9.04719
9.0079
8.96091
8.91808
8.87466
8.83026
8.78186
8.72283
8.64996
8.57928
8.51318
8.43832
8.35147
8.25777
8.154
8.04184
7.92988
7.81641
7.69603
7.56213
7.42243
7.26895
7.10817
6.94248
6.77085
6.59631
6.40941
6.23284
6.03549
5.84788
1
1
1
1
1
1
1
1
1
1
1
1
1
1
1
1
1
1
1
1
1
1
1
1
1
1
1
1
1
1
1
1
1
1
1
1
1
1
1
1
1
1
1
1
1
1
1
1
1
1
1
1
1
1
1
1
1
1
1.00186
1.60055
7.16046
9.14941
9.08744
9.05638
9.01236
8.98013
8.95113
8.91579
8.86914
8.82156
8.77452
8.72757
8.67903
8.62331
8.55661
8.48857
8.42024
8.34915
8.26171
8.16867
8.06741
7.95814
7.84555
7.73447
7.61981
7.49398
7.36002
7.21523
7.06388
6.90717
6.74998
6.58485
6.41319
6.24632
6.06251
5.88951
1
1
1
1
1
1
1
1
1
1
1
1
1
1
1
1
1
1
1
1
1
1
1
1
1
1
1
1
1
1
1
1
1
1
1
1
1
1
1
1
1
1
1
1
1
1
1
1
1
1
1
1
1
1
1
1
1
1
1
1.01043
2.88161
8.23943
8.97106
8.90216
8.87131
8.84571
8.82517
8.79859
8.76525
8.72728
8.68366
8.63754
8.58753
8.531
8.46941
8.40253
8.3347
8.26278
8.17864
8.08847
7.991
7.88646
7.77681
7.66636
7.55278
7.43062
7.30205
7.16555
7.02393
6.87709
6.73272
6.57688
6.41899
6.25882
6.08808
5.92653
1
1
1
1
1
1
1
1
1
1
1
1
1
1
1
1
1
1
1
1
1
1
1
1
1
1
1
1
1
1
1
1
1
1
1
1
1
1
1
1
1
1
1
1
1
1
1
1
1
1
1
1
1
1
1
1
1
1
1
1.00001
1.09257
4.24835
8.59318
8.79793
8.76482
8.76279
8.74901
8.72558
8.69598
8.6603
8.61751
8.56863
8.51586
8.45693
8.39261
8.33087
8.25759
8.18482
8.10332
8.01446
7.92051
7.82083
7.71615
7.60855
7.4961
7.37772
7.25403
7.12447
6.99024
6.85227
6.7167
6.57016
6.42337
6.26936
6.11046
5.95851
1
1
1
1
1
1
1
1
1
1
1
1
1
1
1
1
1
1
1
1
1
1
1
1
1
1
1
1
1
1
1
1
1
1
1
1
1
1
1
1
1
1
1
1
1
1
1
1
1
1
1
1
1
1
1
1
1
1
1
1
1.00039
1.27168
5.09777
8.57726
8.70483
8.70319
8.69279
8.66717
8.63589
8.59811
8.55479
8.50489
8.45019
8.39052
8.32464
8.25935
8.18889
8.11319
8.03211
7.9455
7.85447
7.75884
7.65868
7.55516
7.44663
7.33288
7.21352
7.09016
6.96232
6.8324
6.70243
6.56436
6.42564
6.27798
6.12884
5.98545
1
1
1
1
1
1
1
1
1
1
1
1
1
1
1
1
1
1
1
1
1
1
1
1
1
1
1
1
1
1
1
1
1
1
1
1
1
1
1
1
1
1
1
1
1
1
1
1
1
1
1
1
1
1
1
1
1
1
1
1
1
1.00245
1.46347
5.7458
8.56327
8.67744
8.64788
8.61622
8.58018
8.53916
8.49431
8.44517
8.39063
8.33045
8.26528
8.19828
8.12805
8.05263
7.97175
7.88614
7.79691
7.70395
7.60704
7.50682
7.4032
7.29455
7.17921
7.06077
6.93884
6.81576
6.69016
6.55885
6.42609
6.2854
6.14444
6.00912
1
1
1
1
1
1
1
1
1
1
1
1
1
1
1
1
1
1
1
1
1
1
1
1
1
1
1
1
1
1
1
1
1
1
1
1
1
1
1
1
1
1
1
1
1
1
1
1
1
1
1
1
1
1
1
1
1
1
1
1
1
1
1.00648
1.67357
6.30568
8.53148
8.59857
8.56715
8.52468
8.48186
8.43515
8.38564
8.3308
8.27113
8.20844
8.14259
8.07199
7.99634
7.91598
7.8318
7.74452
7.65402
7.55945
7.46139
7.36134
7.25699
7.14595
7.03073
6.91373
6.79674
6.67585
6.55136
6.4251
6.29231
6.15878
6.03089
1
1
1
1
1
1
1
1
1
1
1
1
1
1
1
1
1
1
1
1
1
1
1
1
1
1
1
1
1
1
1
1
1
1
1
1
1
1
1
1
1
1
1
1
1
1
1
1
1
1
1
1
1
1
1
1
1
1
1
1
1
1
1.00001
1.01292
1.91258
6.72803
8.49747
8.51399
8.48173
8.43816
8.39069
8.33645
8.27782
8.21753
8.15494
8.08869
8.0186
7.94466
7.86675
7.78528
7.70012
7.61117
7.51801
7.42162
7.32341
7.22176
7.11486
7.00263
6.88974
6.77811
6.66301
6.54519
6.42564
6.30009
6.17328
6.05142
1
1
1
1
1
1
1
1
1
1
1
1
1
1
1
1
1
1
1
1
1
1
1
1
1
1
1
1
1
1
1
1
1
1
1
1
1
1
1
1
1
1
1
1
1
1
1
1
1
1
1
1
1
1
1
1
1
1
1
1
1
1
1
1.00003
1.02287
2.14792
7.04842
8.44827
8.44061
8.39954
8.34594
8.2897
8.23223
8.1717
8.10611
8.0373
7.96711
7.89429
7.81826
7.73868
7.65538
7.56809
7.47694
7.38316
7.28716
7.18812
7.08505
6.97743
6.8693
6.76226
6.65234
6.53977
6.42582
6.30615
6.18516
6.06798
1
1
1
1
1
1
1
1
1
1
1
1
1
1
1
1
1
1
1
1
1
1
1
1
1
1
1
1
1
1
1
1
1
1
1
1
1
1
1
1
1
1
1
1
1
1
1
1
1
1
1
1
1
1
1
1
1
1
1
1
1
1
1
1
1.00007
1.03565
2.3665
7.28278
8.38692
8.35482
8.30559
8.24815
8.18827
8.1246
8.05966
7.99317
7.92412
7.85142
7.77505
7.69507
7.61216
7.52658
7.43797
7.34694
7.2537
7.1576
7.05816
6.95525
6.85157
6.74858
6.64269
6.53433
6.42512
6.31103
6.19556
6.0823
1
1
1
1
1
1
1
1
1
1
1
1
1
1
1
1
1
1
1
1
1
1
1
1
1
1
1
1
1
1
1
1
1
1
1
1
1
1
1
1
1
1
1
1
1
1
1
1
1
1
1
1
1
1
1
1
1
1
1
1
1
1
1
1
1
1.00012
1.05011
2.60404
7.39431
8.29186
8.25178
8.20389
8.14606
8.08237
8.01713
7.94996
7.88092
7.80883
7.73287
7.65399
7.57276
7.48898
7.40272
7.31429
7.22363
7.13027
7.0342
6.93557
6.8361
6.73685
6.63456
6.52958
6.42394
6.31495
6.20426
6.09487
1
1
1
1
1
1
1
1
1
1
1
1
1
1
1
1
1
1
1
1
1
1
1
1
1
1
1
1
1
1
1
1
1
1
1
1
1
1
1
1
1
1
1
1
1
1
1
1
1
1
1
1
1
1
1
1
1
1
1
1
1
1
1
1
1
1
1.0002
1.06875
2.74207
7.38463
8.19785
8.15662
8.10002
8.04361
7.98103
7.9152
7.84582
7.77143
7.69443
7.61648
7.5367
7.45475
7.37083
7.28497
7.19675
7.1059
7.01288
6.91785
6.82193
6.72583
6.62709
6.52524
6.42258
6.31809
6.21211
6.10657
1
1
1
1
1
1
1
1
1
1
1
1
1
1
1
1
1
1
1
1
1
1
1
1
1
1
1
1
1
1
1
1
1
1
1
1
1
1
1
1
1
1
1
1
1
1
1
1
1
1
1
1
1
1
1
1
1
1
1
1
1
1
1
1
1
1
1
1.00033
1.08178
2.75946
7.30758
8.10602
8.06226
8.003
7.94232
7.87842
7.81018
7.73682
7.66053
7.58293
7.50402
7.42369
7.34182
7.25821
7.17224
7.08392
6.99375
6.90191
6.80907
6.71533
6.61957
6.52069
6.42082
6.3205
6.21916
6.11788
1
1
1
1
1
1
1
1
1
1
1
1
1
1
1
1
1
1
1
1
1
1
1
1
1
1
1
1
1
1
1
1
1
1
1
1
1
1
1
1
1
1
1
1
1
1
1
1
1
1
1
1
1
1
1
1
1
1
1
1
1
1
1
1
1
1
1
1
1.00043
1.08434
2.74253
7.14036
8.00181
7.96584
7.90215
7.83681
7.76716
7.69719
7.62669
7.55232
7.47531
7.39654
7.3169
7.23568
7.15198
7.06596
6.97808
6.88878
6.79815
6.70629
6.61294
6.51704
6.4206
6.32405
6.22726
6.13032
1
1
1
1
1
1
1
1
1
1
1
1
1
1
1
1
1
1
1
1
1
1
1
1
1
1
1
1
1
1
1
1
1
1
1
1
1
1
1
1
1
1
1
1
1
1
1
1
1
1
1
1
1
1
1
1
1
1
1
1
1
1
1
1
1
1
1
1
1
1.00046
1.08297
2.64549
6.89232
7.89001
7.86339
7.79476
7.73016
7.66219
7.59332
7.52247
7.44917
7.37319
7.29555
7.21503
7.13188
7.04729
6.96152
6.87465
6.78658
6.69737
6.60687
6.51493
6.42247
6.32977
6.23733
6.14408
1
1
1
1
1
1
1
1
1
1
1
1
1
1
1
1
1
1
1
1
1
1
1
1
1
1
1
1
1
1
1
1
1
1
1
1
1
1
1
1
1
1
1
1
1
1
1
1
1
1
1
1
1
1
1
1
1
1
1
1
1
1
1
1
1
1
1
1
1
1
1.00045
1.07446
2.48584
6.54202
7.76749
7.76447
7.69413
7.6336
7.56618
7.49634
7.42442
7.35123
7.2756
7.19647
7.1144
7.03145
6.9477
6.86349
6.77848
6.69289
6.60627
6.5186
6.43004
6.34093
6.25172
6.16156
1
1
1
1
1
1
1
1
1
1
1
1
1
1
1
1
1
1
1
1
1
1
1
1
1
1
1
1
1
1
1
1
1
1
1
1
1
1
1
1
1
1
1
1
1
1
1
1
1
1
1
1
1
1
1
1
1
1
1
1
1
1
1
1
1
1
1
1
1
1
1
1.00039
1.06136
2.26562
6.09493
7.63348
7.66868
7.60033
7.53708
7.46772
7.39768
7.32522
7.25031
7.17298
7.09419
7.01463
6.93474
6.85447
6.77367
6.69247
6.60986
6.52664
6.44197
6.35658
6.2704
6.18281
1
1
1
1
1
1
1
1
1
1
1
1
1
1
1
1
1
1
1
1
1
1
1
1
1
1
1
1
1
1
1
1
1
1
1
1
1
1
1
1
1
1
1
1
1
1
1
1
1
1
1
1
1
1
1
1
1
1
1
1
1
1
1
1
1
1
1
1
1
1
1
1
1.0003
1.04505
2.01729
5.49989
7.46856
7.59543
7.50469
7.43618
7.36654
7.29683
7.2255
7.15253
7.07867
7.00384
6.92825
6.85164
6.77491
6.69683
6.61792
6.5378
6.45583
6.37335
6.28864
6.2037
1
1
1
1
1
1
1
1
1
1
1
1
1
1
1
1
1
1
1
1
1
1
1
1
1
1
1
1
1
1
1
1
1
1
1
1
1
1
1
1
1
1
1
1
1
1
1
1
1
1
1
1
1
1
1
1
1
1
1
1
1
1
1
1
1
1
1
1
1
1
1
1
1
1.00019
1.02995
1.75237
4.74608
7.27875
7.49483
7.41236
7.34972
7.28468
7.21667
7.14656
7.07621
7.00526
6.93306
6.85951
6.7848
6.7081
6.63076
6.55116
6.47098
6.38938
6.30677
6.22426
1
1
1
1
1
1
1
1
1
1
1
1
1
1
1
1
1
1
1
1
1
1
1
1
1
1
1
1
1
1
1
1
1
1
1
1
1
1
1
1
1
1
1
1
1
1
1
1
1
1
1
1
1
1
1
1
1
1
1
1
1
1
1
1
1
1
1
1
1
1
1
1
1
1
1.00011
1.01747
1.49449
3.98237
6.95712
7.39423
7.34122
7.28316
7.21286
7.14474
7.07534
7.00534
6.93391
6.86129
6.7874
6.71293
6.63721
6.55942
6.48124
6.40105
6.32147
6.24
1
1
1
1
1
1
1
1
1
1
1
1
1
1
1
1
1
1
1
1
1
1
1
1
1
1
1
1
1
1
1
1
1
1
1
1
1
1
1
1
1
1
1
1
1
1
1
1
1
1
1
1
1
1
1
1
1
1
1
1
1
1
1
1
1
1
1
1
1
1
1
1
1
1
1
1.00005
1.00857
1.29543
3.23928
6.49519
7.28377
7.29502
7.20218
7.13811
7.07233
7.00332
6.93373
6.86332
6.79127
6.71784
6.64296
6.56743
6.49134
6.41372
6.33577
6.25705
1
1
1
1
1
1
1
1
1
1
1
1
1
1
1
1
1
1
1
1
1
1
1
1
1
1
1
1
1
1
1
1
1
1
1
1
1
1
1
1
1
1
1
1
1
1
1
1
1
1
1
1
1
1
1
1
1
1
1
1
1
1
1
1
1
1
1
1
1
1
1
1
1
1
1
1
1.00002
1.00368
1.15857
2.59006
5.80964
7.13279
7.25548
7.13914
7.07272
7.00811
6.94109
6.86871
6.7967
6.72441
6.65125
6.57751
6.50198
6.42546
6.34996
6.27417
1
1
1
1
1
1
1
1
1
1
1
1
1
1
1
1
1
1
1
1
1
1
1
1
1
1
1
1
1
1
1
1
1
1
1
1
1
1
1
1
1
1
1
1
1
1
1
1
1
1
1
1
1
1
1
1
1
1
1
1
1
1
1
1
1
1
1
1
1
1
1
1
1
1
1
1
1
1.00001
1.00138
1.07714
2.03934
4.9114
6.93289
7.14101
7.07577
7.00705
6.93597
6.86796
6.79742
6.72543
6.6546
6.58257
6.50904
6.43776
6.36361
6.28901
1
1
1
1
1
1
1
1
1
1
1
1
1
1
1
1
1
1
1
1
1
1
1
1
1
1
1
1
1
1
1
1
1
1
1
1
1
1
1
1
1
1
1
1
1
1
1
1
1
1
1
1
1
1
1
1
1
1
1
1
1
1
1
1
1
1
1
1
1
1
1
1
1
1
1
1
1
1
1
1.00046
1.03349
1.60415
3.91288
6.56185
7.03025
7.03292
6.93775
6.86667
6.80113
6.73511
6.66686
6.59521
6.5271
6.45448
6.38299
6.31123
1
1
1
1
1
1
1
1
1
1
1
1
1
1
1
1
1
1
1
1
1
1
1
1
1
1
1
1
1
1
1
1
1
1
1
1
1
1
1
1
1
1
1
1
1
1
1
1
1
1
1
1
1
1
1
1
1
1
1
1
1
1
1
1
1
1
1
1
1
1
1
1
1
1
1
1
1
1
1
1
1.00013
1.01263
1.30249
3.00001
5.87858
6.897
6.97132
6.89396
6.8233
6.75542
6.68611
6.61866
6.54854
6.47513
6.40309
6.33014
1
1
1
1
1
1
1
1
1
1
1
1
1
1
1
1
1
1
1
1
1
1
1
1
1
1
1
1
1
1
1
1
1
1
1
1
1
1
1
1
1
1
1
1
1
1
1
1
1
1
1
1
1
1
1
1
1
1
1
1
1
1
1
1
1
1
1
1
1
1
1
1
1
1
1
1
1
1
1
1
1
1.00003
1.00404
1.13116
2.23309
4.92645
6.73461
6.89704
6.84005
6.75607
6.68065
6.62283
6.55931
6.49385
6.41354
6.33919
1
1
1
1
1
1
1
1
1
1
1
1
1
1
1
1
1
1
1
1
1
1
1
1
1
1
1
1
1
1
1
1
1
1
1
1
1
1
1
1
1
1
1
1
1
1
1
1
1
1
1
1
1
1
1
1
1
1
1
1
1
1
1
1
1
1
1
1
1
1
1
1
1
1
1
1
1
1
1
1
1
1
1.00001
1.00105
1.0489
1.66933
3.8775
6.2774
6.76492
6.79182
6.69709
6.63407
6.57152
6.48934
6.45788
6.47095
1
1
1
1
1
1
1
1
1
1
1
1
1
1
1
1
1
1
1
1
1
1
1
1
1
1
1
1
1
1
1
1
1
1
1
1
1
1
1
1
1
1
1
1
1
1
1
1
1
1
1
1
1
1
1
1
1
1
1
1
1
1
1
1
1
1
1
1
1
1
1
1
1
1
1
1
1
1
1
1
1
1
1
1
1.00024
1.01604
1.31092
2.85106
5.42781
6.66948
6.75884
6.64521
6.5897
6.69988
7.00108
7.55265
1
1
1
1
1
1
1
1
1
1
1
1
1
1
1
1
1
1
1
1
1
1
1
1
1
1
1
1
1
1
1
1
1
1
1
1
1
1
1
1
1
1
1
1
1
1
1
1
1
1
1
1
1
1
1
1
1
1
1
1
1
1
1
1
1
1
1
1
1
1
1
1
1
1
1
1
1
1
1
1
1
1
1
1
1
1.00005
1.0043
1.11717
2.01362
4.50818
6.17113
6.7086
7.56623
8.41714
9.17975
9.79732
1
1
1
1
1
1
1
1
1
1
1
1
1
1
1
1
1
1
1
1
1
1
1
1
1
1
1
1
1
1
1
1
1
1
1
1
1
1
1
1
1
1
1
1
1
1
1
1
1
1
1
1
1
1
1
1
1
1
1
1
1
1
1
1
1
1
1
1
1
1
1
1
1
1
1
1
1
1
1
1
1
1
1
1
1
1
1.00001
1.00093
1.03508
1.52077
3.19095
8.00009
10.4804
10.7613
10.8273
10.7704
1
1
1
1
1
1
1
1
1
1
1
1
1
1
1
1
1
1
1
1
1
1
1
1
1
1
1
1
1
1
1
1
1
1
1
1
1
1
1
1
1
1
1
1
1
1
1
1
1
1
1
1
1
1
1
1
1
1
1
1
1
1
1
1
1
1
1
1
1
1
1
1
1
1
1
1
1
1
1
1
1
1
1
1
1
1
1
1
1.00013
1.01148
1.93343
9.49127
11.6223
11.2746
11.0507
10.8089
1
1
1
1
1
1
1
1
1
1
1
1
1
1
1
1
1
1
1
1
1
1
1
1
1
1
1
1
1
1
1
1
1
1
1
1
1
1
1
1
1
1
1
1
1
1
1
1
1
1
1
1
1
1
1
1
1
1
1
1
1
1
1
1
1
1
1
1
1
1
1
1
1
1
1
1
1
1
1
1
1
1
1
1
1
1
1
1
1
1.00005
2.38947
9.41901
10.8724
10.6856
10.5988
10.4942
1
1
1
1
1
1
1
1
1
1
1
1
1
1
1
1
1
1
1
1
1
1
1
1
1
1
1
1
1
1
1
1
1
1
1
1
1
1
1
1
1
1
1
1
1
1
1
1
1
1
1
1
1
1
1
1
1
1
1
1
1
1
1
1
1
1
1
1
1
1
1
1
1
1
1
1
1
1
1
1
1
1
1
1
1
1
1
1
1
1
1.92433
8.60478
10.4988
10.469
10.5183
10.4943
1
1
1
1
1
1
1
1
1
1
1
1
1
1
1
1
1
1
1
1
1
1
1
1
1
1
1
1
1
1
1
1
1
1
1
1
1
1
1
1
1
1
1
1
1
1
1
1
1
1
1
1
1
1
1
1
1
1
1
1
1
1
1
1
1
1
1
1
1
1
1
1
1
1
1
1
1
1
1
1
1
1
1
1
1
1
1
1
1
1
1.35912
7.60267
10.4524
10.4616
10.4363
10.4318
1
1
1
1
1
1
1
1
1
1
1
1
1
1
1
1
1
1
1
1
1
1
1
1
1
1
1
1
1
1
1
1
1
1
1
1
1
1
1
1
1
1
1
1
1
1
1
1
1
1
1
1
1
1
1
1
1
1
1
1
1
1
1
1
1
1
1
1
1
1
1
1
1
1
1
1
1
1
1
1
1
1
1
1
1
1
1
1
1
1
1.00979
6.24676
10.4306
10.4643
10.4322
10.4084
1
1
1
1
1
1
1
1
1
1
1
1
1
1
1
1
1
1
1
1
1
1
1
1
1
1
1
1
1
1
1
1
1
1
1
1
1
1
1
1
1
1
1
1
1
1
1
1
1
1
1
1
1
1
1
1
1
1
1
1
1
1
1
1
1
1
1
1
1
1
1
1
1
1
1
1
1
1
1
1
1
1
1
1
1
1
1
1
1
1
1.00001
4.90315
10.1945
10.4708
10.4323
10.4072
1
1
1
1
1
1
1
1
1
1
1
1
1
1
1
1
1
1
1
1
1
1
1
1
1
1
1
1
1
1
1
1
1
1
1
1
1
1
1
1
1
1
1
1
1
1
1
1
1
1
1
1
1
1
1
1
1
1
1
1
1
1
1
1
1
1
1
1
1
1
1
1
1
1
1
1
1
1
1
1
1
1
1
1
1
1
1
1
1
1
1
3.70763
9.88727
10.4782
10.4319
10.4039
1
1
1
1
1
1
1
1
1
1
1
1
1
1
1
1
1
1
1
1
1
1
1
1
1
1
1
1
1
1
1
1
1
1
1
1
1
1
1
1
1
1
1
1
1
1
1
1
1
1
1
1
1
1
1
1
1
1
1
1
1
1
1
1
1
1
1
1
1
1
1
1
1
1
1
1
1
1
1
1
1
1
1
1
1
1
1
1
1
1
1
2.71899
9.38945
10.4887
10.4427
10.4142
1
1
1
1
1
1
1
1
1
1
1
1
1
1
1
1
1
1
1
1
1
1
1
1
1
1
1
1
1
1
1
1
1
1
1
1
1
1
1
1
1
1
1
1
1
1
1
1
1
1
1
1
1
1
1
1
1
1
1
1
1
1
1
1
1
1
1
1
1
1
1
1
1
1
1
1
1
1
1
1
1
1
1
1
1
1
1
1
1
1
1
1.99594
8.72579
10.49
10.4511
10.4241
1
1
1
1
1
1
1
1
1
1
1
1
1
1
1
1
1
1
1
1
1
1
1
1
1
1
1
1
1
1
1
1
1
1
1
1
1
1
1
1
1
1
1
1
1
1
1
1
1
1
1
1
1
1
1
1
1
1
1
1
1
1
1
1
1
1
1
1
1
1
1
1
1
1
1
1
1
1
1
1
1
1
1
1
1
1
1
1
1
1
1
1.5062
7.95299
10.4809
10.4538
10.4225
1
1
1
1
1
1
1
1
1
1
1
1
1
1
1
1
1
1
1
1
1
1
1
1
1
1
1
1
1
1
1
1
1
1
1
1
1
1
1
1
1
1
1
1
1
1
1
1
1
1
1
1
1
1
1
1
1
1
1
1
1
1
1
1
1
1
1
1
1
1
1
1
1
1
1
1
1
1
1
1
1
1
1
1
1
1
1
1
1
1
1
1.12334
7.05541
10.4505
10.4651
10.429
1
1
1
1
1
1
1
1
1
1
1
1
1
1
1
1
1
1
1
1
1
1
1
1
1
1
1
1
1
1
1
1
1
1
1
1
1
1
1
1
1
1
1
1
1
1
1
1
1
1
1
1
1
1
1
1
1
1
1
1
1
1
1
1
1
1
1
1
1
1
1
1
1
1
1
1
1
1
1
1
1
1
1
1
1
1
1
1
1
1
1
1.00138
6.19944
10.3972
10.4936
10.4383
1
1
1
1
1
1
1
1
1
1
1
1
1
1
1
1
1
1
1
1
1
1
1
1
1
1
1
1
1
1
1
1
1
1
1
1
1
1
1
1
1
1
1
1
1
1
1
1
1
1
1
1
1
1
1
1
1
1
1
1
1
1
1
1
1
1
1
1
1
1
1
1
1
1
1
1
1
1
1
1
1
1
1
1
1
1
1
1
1
1
1
1
5.32643
10.3059
10.5277
10.4618
1
1
1
1
1
1
1
1
1
1
1
1
1
1
1
1
1
1
1
1
1
1
1
1
1
1
1
1
1
1
1
1
1
1
1
1
1
1
1
1
1
1
1
1
1
1
1
1
1
1
1
1
1
1
1
1
1
1
1
1
1
1
1
1
1
1
1
1
1
1
1
1
1
1
1
1
1
1
1
1
1
1
1
1
1
1
1
1
1
1
1
1
4.59668
10.1803
10.5652
10.4909
1
1
1
1
1
1
1
1
1
1
1
1
1
1
1
1
1
1
1
1
1
1
1
1
1
1
1
1
1
1
1
1
1
1
1
1
1
1
1
1
1
1
1
1
1
1
1
1
1
1
1
1
1
1
1
1
1
1
1
1
1
1
1
1
1
1
1
1
1
1
1
1
1
1
1
1
1
1
1
1
1
1
1
1
1
1
1
1
1
1
1
1
4.03715
10.0298
10.5981
10.5192
1
1
1
1
1
1
1
1
1
1
1
1
1
1
1
1
1
1
1
1
1
1
1
1
1
1
1
1
1
1
1
1
1
1
1
1
1
1
1
1
1
1
1
1
1
1
1
1
1
1
1
1
1
1
1
1
1
1
1
1
1
1
1
1
1
1
1
1
1
1
1
1
1
1
1
1
1
1
1
1
1
1
1
1
1
1
1
1
1
1
1
1
3.62791
9.87684
10.6222
10.5444
1
1
1
1
1
1
1
1
1
1
1
1
1
1
1
1
1
1
1
1
1
1
1
1
1
1
1
1
1
1
1
1
1
1
1
1
1
1
1
1
1
1
1
1
1
1
1
1
1
1
1
1
1
1
1
1
1
1
1
1
1
1
1
1
1
1
1
1
1
1
1
1
1
1
1
1
1
1
1
1
1
1
1
1
1
1
1
1
1
1
1
1
3.35345
9.7406
10.6247
10.5478
1
1
1
1
1
1
1
1
1
1
1
1
1
1
1
1
1
1
1
1
1
1
1
1
1
1
1
1
1
1
1
1
1
1
1
1
1
1
1
1
1
1
1
1
1
1
1
1
1
1
1
1
1
1
1
1
1
1
1
1
1
1
1
1
1
1
1
1
1
1
1
1
1
1
1
1
1
1
1
1
1
1
1
1
1
1
1
1
1
1
1
1
3.193
9.64293
10.6034
10.529
1
1
1
1
1
1
1
1
1
1
1
1
1
1
1
1
1
1
1
1
1
1
1
1
1
1
1
1
1
1
1
1
1
1
1
1
1
1
1
1
1
1
1
1
1
1
1
1
1
1
1
1
1
1
1
1
1
1
1
1
1
1
1
1
1
1
1
1
1
1
1
1
1
1
1
1
1
1
1
1
1
1
1
1
1
1
1
1
1
1
1
1
3.10103
9.58785
10.5691
10.5041
1
1
1
1
1
1
1
1
1
1
1
1
1
1
1
1
1
1
1
1
1
1
1
1
1
1
1
1
1
1
1
1
1
1
1
1
1
1
1
1
1
1
1
1
1
1
1
1
1
1
1
1
1
1
1
1
1
1
1
1
1
1
1
1
1
1
1
1
1
1
1
1
1
1
1
1
1
1
1
1
1
1
1
1
1
1
1
1
1
1
1
1
3.04282
9.58824
10.543
10.485
1
1
1
1
1
1
1
1
1
1
1
1
1
1
1
1
1
1
1
1
1
1
1
1
1
1
1
1
1
1
1
1
1
1
1
1
1
1
1
1
1
1
1
1
1
1
1
1
1
1
1
1
1
1
1
1
1
1
1
1
1
1
1
1
1
1
1
1
1
1
1
1
1
1
1
1
1
1
1
1
1
1
1
1
1
1
1
1
1
1
1
1
3.00449
9.5836
10.5228
10.4715
1.165
0.170449
0.0227021
0.032716
0.0739299
0.087976
0.0959152
0.129257
0.186743
0.248627
0.305829
0.368523
0.426009
0.507755
0.592733
0.675678
0.765297
0.860229
0.947444
0.961371
0.957599
0.974051
0.989032
1.0024
1.01837
1.04122
1.07086
1.09786
1.12183
1.14585
1.15993
1.17117
1.18588
1.19781
1.21355
1.23434
1.24839
1.25666
1.26493
1.27379
1.28165
1.28642
1.28912
1.29109
1.29297
1.29522
1.29889
1.30753
1.3182
1.32946
1.3334
1.35031
2.77306
5.79856
6.21575
6.25653
6.31187
6.34303
6.3562
6.35382
6.33094
6.30125
6.26973
6.24062
6.21415
6.18755
6.16037
6.13688
6.12205
6.11431
6.1066
6.08544
6.03823
5.97925
5.9201
5.86685
5.82485
5.79396
5.76655
5.73352
5.69219
5.64677
5.60194
5.55976
5.5191
5.47384
5.42209
5.37182
5.3279
5.29318
5.26993
5.25286
5.22623
5.18448
5.13645
5.08113
5.02504
4.97944
4.94144
4.9139
4.89274
4.86643
4.83221
4.79135
4.74651
4.7009
4.65542
4.61244
4.57311
4.53771
4.50148
4.46425
4.42722
4.39192
4.35885
4.33089
4.30972
4.28866
4.25839
4.22494
4.18928
4.14939
4.10772
4.06856
4.03368
4.00194
3.97184