/*--------------------------------*- C++ -*----------------------------------*\
  =========                 |
  \\      /  F ield         | OpenFOAM: The Open Source CFD Toolbox
   \\    /   O peration     | Website:  https://openfoam.org
    \\  /    A nd           | Version:  7
     \\/     M anipulation  |
\*---------------------------------------------------------------------------*/
FoamFile
{
    version     2.0;
    format      ascii;
    class       volScalarField;
    location    "4.6";
    object      rho;
}
// * * * * * * * * * * * * * * * * * * * * * * * * * * * * * * * * * * * * * //

dimensions      [1 -3 0 0 0 0 0];

internalField   nonuniform List<scalar> 
19968
(
1.40001
1.40001
1.40001
1.40001
1.40001
1.40001
1.40001
1.40001
1.40001
1.40001
1.40001
1.40001
1.40001
1.40001
1.40001
1.40001
1.40001
1.40001
1.40001
1.40001
1.40001
1.40001
1.40001
1.40001
1.40001
1.40001
1.40001
1.40001
1.40001
1.40001
1.40001
1.40001
1.40001
1.40001
1.40001
1.40001
1.40001
1.40001
1.40001
1.40001
1.40001
1.40001
1.40001
1.40001
1.40001
1.40001
1.40001
1.40001
1.68277
4.55262
5.43517
5.44438
5.46325
5.48116
5.4986
5.5157
5.53446
5.55635
5.58099
5.60624
5.62951
5.64896
5.66482
5.67898
5.69362
5.71051
5.72976
5.74972
5.7683
5.78408
5.79705
5.80845
5.81981
5.83226
5.84621
5.86107
5.87564
5.88905
5.90118
5.91234
5.92269
5.93217
5.94059
5.94803
5.95505
5.96245
5.97084
5.98015
5.98942
5.99728
6.0028
6.00596
6.00733
6.00755
6.00767
6.00728
1.40001
1.40001
1.40001
1.40001
1.40001
1.40001
1.40001
1.40001
1.40001
1.40001
1.40001
1.40001
1.40001
1.40001
1.40001
1.40001
1.40001
1.40001
1.40001
1.40001
1.40001
1.40001
1.40001
1.40001
1.40001
1.40001
1.40001
1.40001
1.40001
1.40001
1.40001
1.40001
1.40001
1.40001
1.40001
1.40001
1.40001
1.40001
1.40001
1.40001
1.40001
1.40001
1.40001
1.40001
1.40001
1.40001
1.40001
1.40001
1.6679
4.52681
5.42947
5.44213
5.46179
5.47992
5.49763
5.5151
5.53405
5.55583
5.58021
5.60522
5.62838
5.64776
5.66359
5.67773
5.69235
5.7092
5.72832
5.74812
5.76658
5.78233
5.79538
5.80695
5.81854
5.83116
5.84511
5.85979
5.87411
5.88733
5.8994
5.91057
5.92096
5.93044
5.93883
5.94622
5.95318
5.9605
5.96877
5.9779
5.987
5.99473
6.0002
6.00338
6.00484
6.00522
6.00548
6.00525
1.40001
1.40001
1.40001
1.40001
1.40001
1.40001
1.40001
1.40001
1.40001
1.40001
1.40001
1.40001
1.40001
1.40001
1.40001
1.40001
1.40001
1.40001
1.40001
1.40001
1.40001
1.40001
1.40001
1.40001
1.40001
1.40001
1.40001
1.40001
1.40001
1.40001
1.40001
1.40001
1.40001
1.40001
1.40001
1.40001
1.40001
1.40001
1.40001
1.40001
1.40001
1.40001
1.40001
1.40001
1.40001
1.40001
1.40001
1.40001
1.63504
4.47403
5.42382
5.43674
5.4576
5.47616
5.49467
5.51303
5.53252
5.55439
5.57848
5.60302
5.62588
5.64514
5.66103
5.6753
5.69001
5.70677
5.72562
5.74506
5.76324
5.77898
5.79229
5.80429
5.81628
5.82912
5.84298
5.85734
5.87134
5.88442
5.89651
5.90777
5.91821
5.92768
5.93602
5.94338
5.95028
5.95748
5.96553
5.97435
5.98314
5.99067
5.9961
5.99932
6.00089
6.00141
6.00175
6.00168
1.40001
1.40001
1.40001
1.40001
1.40001
1.40001
1.40001
1.40001
1.40001
1.40001
1.40001
1.40001
1.40001
1.40001
1.40001
1.40001
1.40001
1.40001
1.40001
1.40001
1.40001
1.40001
1.40001
1.40001
1.40001
1.40001
1.40001
1.40001
1.40001
1.40001
1.40001
1.40001
1.40001
1.40001
1.40001
1.40001
1.40001
1.40001
1.40001
1.40001
1.40001
1.40001
1.40001
1.40001
1.40001
1.40001
1.40001
1.40001
1.5864
4.3867
5.41702
5.43026
5.45219
5.4713
5.49089
5.51041
5.53054
5.55236
5.57587
5.59957
5.62188
5.64103
5.65708
5.67158
5.68642
5.70304
5.72141
5.74024
5.75797
5.77364
5.78733
5.79995
5.81255
5.82572
5.83948
5.85345
5.86707
5.87996
5.89205
5.90334
5.91376
5.92316
5.93143
5.93873
5.94556
5.95256
5.96024
5.96855
5.97683
5.98403
5.98935
5.99263
5.99437
5.99505
5.99551
5.99568
1.40001
1.40001
1.40001
1.40001
1.40001
1.40001
1.40001
1.40001
1.40001
1.40001
1.40001
1.40001
1.40001
1.40001
1.40001
1.40001
1.40001
1.40001
1.40001
1.40001
1.40001
1.40001
1.40001
1.40001
1.40001
1.40001
1.40001
1.40001
1.40001
1.40001
1.40001
1.40001
1.40001
1.40001
1.40001
1.40001
1.40001
1.40001
1.40001
1.40001
1.40001
1.40001
1.40001
1.40001
1.40001
1.40001
1.40001
1.40001
1.51834
4.26733
5.41478
5.42406
5.44577
5.46568
5.48628
5.5067
5.52714
5.54857
5.57126
5.59417
5.61621
5.63557
5.65208
5.66707
5.68212
5.69847
5.71614
5.73407
5.75108
5.76662
5.78076
5.79418
5.80757
5.82119
5.8349
5.84849
5.86172
5.87445
5.88653
5.89783
5.90822
5.91753
5.92574
5.93301
5.93975
5.94651
5.95373
5.96141
5.96903
5.97569
5.98067
5.98376
5.98536
5.98596
5.98638
5.98663
1.40001
1.40001
1.40001
1.40001
1.40001
1.40001
1.40001
1.40001
1.40001
1.40001
1.40001
1.40001
1.40001
1.40001
1.40001
1.40001
1.40001
1.40001
1.40001
1.40001
1.40001
1.40001
1.40001
1.40001
1.40001
1.40001
1.40001
1.40001
1.40001
1.40001
1.40001
1.40001
1.40001
1.40001
1.40001
1.40001
1.40001
1.40001
1.40001
1.40001
1.40001
1.40001
1.40001
1.40001
1.40001
1.40001
1.40001
1.40001
1.40632
4.06638
5.40924
5.42185
5.44034
5.46173
5.48311
5.50387
5.5241
5.54458
5.56593
5.58789
5.60974
5.62945
5.6467
5.66248
5.67773
5.69354
5.71
5.72652
5.74236
5.75741
5.77163
5.78556
5.79951
5.81344
5.82701
5.84009
5.85276
5.86508
5.87696
5.88817
5.89847
5.90773
5.91593
5.92323
5.92996
5.93657
5.94349
5.95078
5.95806
5.96455
5.96958
5.97285
5.97462
5.97545
5.97593
5.97636
1.40001
1.40001
1.40001
1.40001
1.40001
1.40001
1.40001
1.40001
1.40001
1.40001
1.40001
1.40001
1.40001
1.40001
1.40001
1.40001
1.40001
1.40001
1.40001
1.40001
1.40001
1.40001
1.40001
1.40001
1.40001
1.40001
1.40001
1.40001
1.40001
1.40001
1.40001
1.40001
1.40001
1.40001
1.40001
1.40001
1.40001
1.40001
1.40001
1.40001
1.40001
1.40001
1.40001
1.40001
1.40001
1.40001
1.40001
1.40001
1.40004
3.75948
5.37089
5.4059
5.42458
5.44959
5.47268
5.4945
5.51498
5.53486
5.55507
5.57588
5.59696
5.61651
5.634
5.65026
5.66567
5.68114
5.69678
5.71233
5.72731
5.74201
5.75638
5.77094
5.7857
5.8003
5.81411
5.827
5.83925
5.85119
5.86284
5.87398
5.88434
5.89371
5.90204
5.90943
5.91616
5.92267
5.92939
5.93642
5.94346
5.94981
5.95484
5.95824
5.96019
5.96127
5.96182
5.96248
1.40001
1.40001
1.40001
1.40001
1.40001
1.40001
1.40001
1.40001
1.40001
1.40001
1.40001
1.40001
1.40001
1.40001
1.40001
1.40001
1.40001
1.40001
1.40001
1.40001
1.40001
1.40001
1.40001
1.40001
1.40001
1.40001
1.40001
1.40001
1.40001
1.40001
1.40001
1.40001
1.40001
1.40001
1.40001
1.40001
1.40001
1.40001
1.40001
1.40001
1.40001
1.40001
1.40001
1.40001
1.40001
1.40001
1.40001
1.40001
1.40001
3.35656
5.31854
5.39676
5.41556
5.44256
5.46604
5.48816
5.50893
5.5287
5.54821
5.56792
5.58798
5.60697
5.62414
5.64037
5.65576
5.6709
5.68582
5.70047
5.71441
5.7283
5.74207
5.75643
5.77133
5.78621
5.80008
5.81265
5.82426
5.83544
5.84646
5.85726
5.86754
5.87701
5.88547
5.8929
5.89956
5.90589
5.91237
5.91913
5.92589
5.93198
5.93684
5.9402
5.94219
5.94346
5.94406
5.94491
1.40001
1.40001
1.40001
1.40001
1.40001
1.40001
1.40001
1.40001
1.40001
1.40001
1.40001
1.40001
1.40001
1.40001
1.40001
1.40001
1.40001
1.40001
1.40001
1.40001
1.40001
1.40001
1.40001
1.40001
1.40001
1.40001
1.40001
1.40001
1.40001
1.40001
1.40001
1.40001
1.40001
1.40001
1.40001
1.40001
1.40001
1.40001
1.40001
1.40001
1.40001
1.40001
1.40001
1.40001
1.40001
1.40001
1.40001
1.40001
1.40001
2.87888
5.22309
5.39776
5.4128
5.43869
5.46109
5.48274
5.50344
5.52327
5.54241
5.56118
5.5799
5.59756
5.61358
5.62895
5.64393
5.65862
5.67283
5.68661
5.69941
5.71195
5.7244
5.7377
5.7521
5.76693
5.7808
5.79303
5.80388
5.81401
5.82404
5.83415
5.84414
5.85358
5.86211
5.86961
5.8763
5.88267
5.88917
5.89591
5.90258
5.90852
5.91329
5.91667
5.91881
5.92034
5.92105
5.92208
1.40001
1.40001
1.40001
1.40001
1.40001
1.40001
1.40001
1.40001
1.40001
1.40001
1.40001
1.40001
1.40001
1.40001
1.40001
1.40001
1.40001
1.40001
1.40001
1.40001
1.40001
1.40001
1.40001
1.40001
1.40001
1.40001
1.40001
1.40001
1.40001
1.40001
1.40001
1.40001
1.40001
1.40001
1.40001
1.40001
1.40001
1.40001
1.40001
1.40001
1.40001
1.40001
1.40001
1.40001
1.40001
1.40001
1.40001
1.40001
1.40001
2.34554
5.03908
5.40304
5.42079
5.44359
5.46291
5.48244
5.50168
5.52072
5.53911
5.55669
5.57357
5.58919
5.60341
5.61731
5.63158
5.64598
5.65985
5.67316
5.68518
5.69624
5.70712
5.71867
5.73176
5.74577
5.75912
5.77058
5.78018
5.78872
5.79711
5.80591
5.81513
5.82431
5.83292
5.84067
5.84768
5.85432
5.86092
5.86746
5.87364
5.8789
5.88301
5.88589
5.88776
5.88919
5.88976
5.89073
1.40001
1.40001
1.40001
1.40001
1.40001
1.40001
1.40001
1.40001
1.40001
1.40001
1.40001
1.40001
1.40001
1.40001
1.40001
1.40001
1.40001
1.40001
1.40001
1.40001
1.40001
1.40001
1.40001
1.40001
1.40001
1.40001
1.40001
1.40001
1.40001
1.40001
1.40001
1.40001
1.40001
1.40001
1.40001
1.40001
1.40001
1.40001
1.40001
1.40001
1.40001
1.40001
1.40001
1.40001
1.40001
1.40001
1.40001
1.40001
1.40001
1.83443
4.70235
5.42161
5.41423
5.43466
5.45208
5.47108
5.49014
5.50927
5.52787
5.54552
5.56196
5.57695
5.59055
5.6035
5.61699
5.63114
5.64502
5.65837
5.67019
5.68002
5.68937
5.69897
5.71041
5.72324
5.73601
5.74685
5.75531
5.762
5.76805
5.77442
5.78154
5.7892
5.79684
5.80399
5.81054
5.81669
5.8227
5.82858
5.83412
5.83891
5.8428
5.84569
5.84771
5.84926
5.84989
5.85088
1.40001
1.40001
1.40001
1.40001
1.40001
1.40001
1.40001
1.40001
1.40001
1.40001
1.40001
1.40001
1.40001
1.40001
1.40001
1.40001
1.40001
1.40001
1.40001
1.40001
1.40001
1.40001
1.40001
1.40001
1.40001
1.40001
1.40001
1.40001
1.40001
1.40001
1.40001
1.40001
1.40001
1.40001
1.40001
1.40001
1.40001
1.40001
1.40001
1.40001
1.40001
1.40001
1.40001
1.40001
1.40001
1.40001
1.40001
1.40001
1.40001
1.42048
4.04009
5.40008
5.41337
5.42791
5.4453
5.46258
5.48023
5.49803
5.51575
5.53283
5.54844
5.56233
5.57475
5.58626
5.59826
5.61151
5.62471
5.63734
5.64866
5.65742
5.6652
5.67264
5.6818
5.69287
5.7047
5.71513
5.72296
5.72837
5.73242
5.73642
5.74134
5.74748
5.75442
5.76144
5.76791
5.77364
5.77874
5.78323
5.78707
5.78996
5.79184
5.79263
5.7927
5.79264
5.79222
5.79257
1.40001
1.40001
1.40001
1.40001
1.40001
1.40001
1.40001
1.40001
1.40001
1.40001
1.40001
1.40001
1.40001
1.40001
1.40001
1.40001
1.40001
1.40001
1.40001
1.40001
1.40001
1.40001
1.40001
1.40001
1.40001
1.40001
1.40001
1.40001
1.40001
1.40001
1.40001
1.40001
1.40001
1.40001
1.40001
1.40001
1.40001
1.40001
1.40001
1.40001
1.40001
1.40001
1.40001
1.40001
1.40001
1.40001
1.40001
1.40001
1.40001
1.40004
3.15254
5.23307
5.36367
5.38954
5.4134
5.43164
5.44862
5.46487
5.48126
5.49765
5.51334
5.52765
5.54077
5.5529
5.56464
5.57727
5.59025
5.60258
5.61404
5.6232
5.63032
5.63664
5.64385
5.6532
5.6639
5.67393
5.68137
5.68574
5.68793
5.68934
5.69141
5.69503
5.70009
5.70555
5.71003
5.71295
5.71455
5.71539
5.71596
5.71647
5.71724
5.71803
5.71839
5.71893
5.71905
5.71958
1.40001
1.40001
1.40001
1.40001
1.40001
1.40001
1.40001
1.40001
1.40001
1.40001
1.40001
1.40001
1.40001
1.40001
1.40001
1.40001
1.40001
1.40001
1.40001
1.40001
1.40001
1.40001
1.40001
1.40001
1.40001
1.40001
1.40001
1.40001
1.40001
1.40001
1.40001
1.40001
1.40001
1.40001
1.40001
1.40001
1.40001
1.40001
1.40001
1.40001
1.40001
1.40001
1.40001
1.40001
1.40001
1.40001
1.40001
1.40001
1.40001
1.4
2.13189
4.86488
5.37416
5.38178
5.40444
5.42117
5.43608
5.44976
5.46357
5.47786
5.49221
5.50573
5.51826
5.52984
5.5404
5.55105
5.5623
5.57321
5.58354
5.59237
5.59852
5.6033
5.60782
5.61412
5.6221
5.63019
5.63611
5.63869
5.63861
5.6369
5.63527
5.63516
5.63716
5.64011
5.64219
5.64256
5.64089
5.6381
5.63528
5.63286
5.6299
5.62577
5.61923
5.61165
5.60397
5.59708
1.40001
1.40001
1.40001
1.40001
1.40001
1.40001
1.40001
1.40001
1.40001
1.40001
1.40001
1.40001
1.40001
1.40001
1.40001
1.40001
1.40001
1.40001
1.40001
1.40001
1.40001
1.40001
1.40001
1.40001
1.40001
1.40001
1.40001
1.40001
1.40001
1.40001
1.40001
1.40001
1.40001
1.40001
1.40001
1.40001
1.40001
1.40001
1.40001
1.40001
1.40001
1.40001
1.40001
1.40001
1.40001
1.40001
1.40001
1.40001
1.40001
1.40001
1.43915
3.91023
5.38301
5.39754
5.40785
5.41809
5.42634
5.43434
5.44316
5.45339
5.4648
5.47642
5.48735
5.49741
5.50633
5.51452
5.52315
5.5319
5.54015
5.54784
5.55366
5.55749
5.56021
5.56331
5.56785
5.57293
5.57667
5.5779
5.57597
5.57099
5.56514
5.56029
5.55708
5.55501
5.55205
5.54621
5.53652
5.52362
5.50871
5.49268
5.47565
5.45809
5.44316
5.43075
5.42588
5.42346
1.40001
1.40001
1.40001
1.40001
1.40001
1.40001
1.40001
1.40001
1.40001
1.40001
1.40001
1.40001
1.40001
1.40001
1.40001
1.40001
1.40001
1.40001
1.40001
1.40001
1.40001
1.40001
1.40001
1.40001
1.40001
1.40001
1.40001
1.40001
1.40001
1.40001
1.40001
1.40001
1.40001
1.40001
1.40001
1.40001
1.40001
1.40001
1.40001
1.40001
1.40001
1.40001
1.40001
1.40001
1.40001
1.40001
1.40001
1.40001
1.40001
1.40001
1.40005
2.55133
5.06118
5.3572
5.36328
5.37679
5.38867
5.39911
5.40861
5.41832
5.42894
5.44045
5.45206
5.4628
5.4716
5.47796
5.48284
5.48741
5.49206
5.49713
5.50229
5.50585
5.50751
5.50786
5.50828
5.50907
5.50948
5.508
5.50356
5.4958
5.48532
5.47358
5.46214
5.45133
5.43989
5.42576
5.4072
5.38412
5.35786
5.33056
5.30336
5.27682
5.244
5.20633
5.1526
5.17356
1.40001
1.40001
1.40001
1.40001
1.40001
1.40001
1.40001
1.40001
1.40001
1.40001
1.40001
1.40001
1.40001
1.40001
1.40001
1.40001
1.40001
1.40001
1.40001
1.40001
1.40001
1.40001
1.40001
1.40001
1.40001
1.40001
1.40001
1.40001
1.40001
1.40001
1.40001
1.40001
1.40001
1.40001
1.40001
1.40001
1.40001
1.40001
1.40001
1.40001
1.40001
1.40001
1.40001
1.40001
1.40001
1.40001
1.40001
1.40001
1.40001
1.40001
1.40001
1.51295
4.32693
5.3764
5.361
5.36474
5.37256
5.37955
5.3863
5.39338
5.40186
5.41207
5.42321
5.43336
5.44088
5.44498
5.44638
5.44688
5.44764
5.44916
5.452
5.45471
5.4557
5.45428
5.45099
5.44723
5.44317
5.43795
5.43052
5.41997
5.40583
5.38833
5.3686
5.34782
5.32596
5.30142
5.27126
5.2333
5.18537
5.12721
5.05296
4.95723
4.81318
4.5909
4.18763
3.29771
1.40001
1.40001
1.40001
1.40001
1.40001
1.40001
1.40001
1.40001
1.40001
1.40001
1.40001
1.40001
1.40001
1.40001
1.40001
1.40001
1.40001
1.40001
1.40001
1.40001
1.40001
1.40001
1.40001
1.40001
1.40001
1.40001
1.40001
1.40001
1.40001
1.40001
1.40001
1.40001
1.40001
1.40001
1.40001
1.40001
1.40001
1.40001
1.40001
1.40001
1.40001
1.40001
1.40001
1.40001
1.40001
1.40001
1.40001
1.40001
1.40001
1.40001
1.40001
1.40048
3.17847
5.19515
5.30712
5.32763
5.34389
5.35462
5.3628
5.3691
5.37524
5.38214
5.39059
5.39942
5.40708
5.41166
5.41259
5.41094
5.40865
5.40741
5.40762
5.40861
5.40859
5.40552
5.39991
5.39294
5.38502
5.37588
5.36485
5.35119
5.33399
5.31236
5.2862
5.25654
5.22399
5.18832
5.1458
5.09355
5.02502
4.93968
4.82642
4.68485
4.48213
4.21892
3.68795
2.91892
1.40001
1.40001
1.40001
1.40001
1.40001
1.40001
1.40001
1.40001
1.40001
1.40001
1.40001
1.40001
1.40001
1.40001
1.40001
1.40001
1.40001
1.40001
1.40001
1.40001
1.40001
1.40001
1.40001
1.40001
1.40001
1.40001
1.40001
1.40001
1.40001
1.40001
1.40001
1.40001
1.40001
1.40001
1.40001
1.40001
1.40001
1.40001
1.40001
1.40001
1.40001
1.40001
1.40001
1.40001
1.40001
1.40001
1.40001
1.40001
1.40001
1.40001
1.40001
1.4
1.92907
4.72193
5.31836
5.31739
5.33188
5.34208
5.34954
5.35421
5.3587
5.36275
5.36772
5.37372
5.3799
5.38367
5.38298
5.37877
5.37335
5.36897
5.3661
5.36417
5.36166
5.35663
5.34862
5.33848
5.32664
5.31319
5.29762
5.27948
5.25792
5.23188
5.2
5.16286
5.12027
5.0736
5.01899
4.95387
4.87012
4.76458
4.62975
4.45865
4.24069
3.92632
3.48431
2.98512
1.40001
1.40001
1.40001
1.40001
1.40001
1.40001
1.40001
1.40001
1.40001
1.40001
1.40001
1.40001
1.40001
1.40001
1.40001
1.40001
1.40001
1.40001
1.40001
1.40001
1.40001
1.40001
1.40001
1.40001
1.40001
1.40001
1.40001
1.40001
1.40001
1.40001
1.40001
1.40001
1.40001
1.40001
1.40001
1.40001
1.40001
1.40001
1.40001
1.40001
1.40001
1.40001
1.40001
1.40001
1.40001
1.40001
1.40001
1.40001
1.40001
1.40001
1.40001
1.4
1.42096
3.52479
5.2138
5.29747
5.317
5.32801
5.33424
5.33866
5.34371
5.34589
5.34685
5.34908
5.35174
5.35323
5.35074
5.34482
5.33773
5.33101
5.32545
5.32039
5.31482
5.30676
5.29527
5.28133
5.26575
5.24867
5.22921
5.20678
5.18034
5.14952
5.1124
5.06936
5.0191
4.96322
4.89885
4.82331
4.73013
4.61388
4.47061
4.29088
4.07172
3.78503
3.4443
3.08032
1.40001
1.40001
1.40001
1.40001
1.40001
1.40001
1.40001
1.40001
1.40001
1.40001
1.40001
1.40001
1.40001
1.40001
1.40001
1.40001
1.40001
1.40001
1.40001
1.40001
1.40001
1.40001
1.40001
1.40001
1.40001
1.40001
1.40001
1.40001
1.40001
1.40001
1.40001
1.40001
1.40001
1.40001
1.40001
1.40001
1.40001
1.40001
1.40001
1.40001
1.40001
1.40001
1.40001
1.40001
1.40001
1.40001
1.40001
1.40001
1.40001
1.40001
1.40001
1.40001
1.39999
2.06617
4.7979
5.29987
5.30329
5.31459
5.31782
5.32185
5.32563
5.32573
5.32605
5.32772
5.32874
5.3278
5.3229
5.31468
5.30499
5.29491
5.28582
5.27786
5.26958
5.25851
5.24371
5.22583
5.20578
5.1845
5.16124
5.13531
5.10485
5.06962
5.02773
4.97958
4.92393
4.86133
4.79025
4.70802
4.60997
4.49094
4.35075
4.1748
3.97376
3.73366
3.46082
3.17631
1.40001
1.40001
1.40001
1.40001
1.40001
1.40001
1.40001
1.40001
1.40001
1.40001
1.40001
1.40001
1.40001
1.40001
1.40001
1.40001
1.40001
1.40001
1.40001
1.40001
1.40001
1.40001
1.40001
1.40001
1.40001
1.40001
1.40001
1.40001
1.40001
1.40001
1.40001
1.40001
1.40001
1.40001
1.40001
1.40001
1.40001
1.40001
1.40001
1.40001
1.40001
1.40001
1.40001
1.40001
1.40001
1.40001
1.40001
1.40001
1.40001
1.40001
1.40001
1.40001
1.4
1.43133
3.54526
5.19691
5.28736
5.29819
5.303
5.30578
5.30659
5.30296
5.30018
5.30059
5.30122
5.29982
5.29497
5.28676
5.27571
5.26239
5.24917
5.23743
5.22581
5.21247
5.19532
5.17381
5.14848
5.12188
5.0942
5.06472
5.03115
4.99239
4.94663
4.89451
4.83544
4.76911
4.6946
4.60946
4.51074
4.39313
4.26064
4.09625
3.9209
3.72034
3.49617
3.26453
1.40001
1.40001
1.40001
1.40001
1.40001
1.40001
1.40001
1.40001
1.40001
1.40001
1.40001
1.40001
1.40001
1.40001
1.40001
1.40001
1.40001
1.40001
1.40001
1.40001
1.40001
1.40001
1.40001
1.40001
1.40001
1.40001
1.40001
1.40001
1.40001
1.40001
1.40001
1.40001
1.40001
1.40001
1.40001
1.40001
1.40001
1.40001
1.40001
1.40001
1.40001
1.40001
1.40001
1.40001
1.40001
1.40001
1.40001
1.40001
1.40001
1.40001
1.40001
1.40001
1.4
1.40002
1.96799
4.72187
5.29461
5.27977
5.28352
5.28496
5.28271
5.27708
5.27251
5.27066
5.26985
5.26811
5.2641
5.25742
5.2467
5.23122
5.21418
5.19786
5.18219
5.16692
5.14863
5.12529
5.09647
5.06494
5.03219
4.99832
4.96141
4.91981
4.87174
4.81762
4.75704
4.68924
4.61354
4.52801
4.43164
4.31701
4.19295
4.04439
3.89168
3.71986
3.53371
3.33569
1.40001
1.40001
1.40001
1.40001
1.40001
1.40001
1.40001
1.40001
1.40001
1.40001
1.40001
1.40001
1.40001
1.40001
1.40001
1.40001
1.40001
1.40001
1.40001
1.40001
1.40001
1.40001
1.40001
1.40001
1.40001
1.40001
1.40001
1.40001
1.40001
1.40001
1.40001
1.40001
1.40001
1.40001
1.40001
1.40001
1.40001
1.40001
1.40001
1.40001
1.40001
1.40001
1.40001
1.40001
1.40001
1.40001
1.40001
1.40001
1.40001
1.40001
1.40001
1.40001
1.40001
1.40001
1.42074
3.30697
5.11693
5.24214
5.2438
5.24994
5.25246
5.25005
5.24682
5.24399
5.24127
5.23809
5.23338
5.22754
5.21753
5.20185
5.18337
5.16292
5.14233
5.12328
5.10303
5.07891
5.04886
5.01433
4.97734
4.93894
4.89759
4.85218
4.80183
4.74658
4.68594
4.6188
4.54458
4.46119
4.36845
4.26004
4.14394
4.01074
3.87559
3.72316
3.56598
3.39502
1.40001
1.40001
1.40001
1.40001
1.40001
1.40001
1.40001
1.40001
1.40001
1.40001
1.40001
1.40001
1.40001
1.40001
1.40001
1.40001
1.40001
1.40001
1.40001
1.40001
1.40001
1.40001
1.40001
1.40001
1.40001
1.40001
1.40001
1.40001
1.40001
1.40001
1.40001
1.40001
1.40001
1.40001
1.40001
1.40001
1.40001
1.40001
1.40001
1.40001
1.40001
1.40001
1.40001
1.40001
1.40001
1.40001
1.40001
1.40001
1.40001
1.40001
1.40001
1.40001
1.40001
1.40001
1.40001
1.68699
4.47283
5.28006
5.24801
5.24547
5.23422
5.22657
5.22027
5.21511
5.21012
5.20501
5.19834
5.19184
5.18228
5.16692
5.1481
5.12632
5.10255
5.08035
5.05799
5.03352
5.00402
4.96903
4.93011
4.88846
4.84266
4.79347
4.74103
4.68489
4.62463
4.5589
4.48744
4.40687
4.31801
4.21744
4.10845
3.9889
3.86656
3.72955
3.59495
3.44492
1.40001
1.40001
1.40001
1.40001
1.40001
1.40001
1.40001
1.40001
1.40001
1.40001
1.40001
1.40001
1.40001
1.40001
1.40001
1.40001
1.40001
1.40001
1.40001
1.40001
1.40001
1.40001
1.40001
1.40001
1.40001
1.40001
1.40001
1.40001
1.40001
1.40001
1.40001
1.40001
1.40001
1.40001
1.40001
1.40001
1.40001
1.40001
1.40001
1.40001
1.40001
1.40001
1.40001
1.40001
1.40001
1.40001
1.40001
1.40001
1.40001
1.40001
1.40001
1.40001
1.40001
1.40001
1.40001
1.40449
2.8709
5.00698
5.18676
5.19594
5.20095
5.19578
5.18821
5.1814
5.17448
5.16788
5.15987
5.15161
5.14146
5.12615
5.10863
5.08821
5.06387
5.03971
5.01432
4.98817
4.95873
4.92489
4.88645
4.84356
4.79487
4.74326
4.68919
4.63191
4.57178
4.5073
4.43928
4.36158
4.27731
4.18434
4.08263
3.97495
3.86302
3.74126
3.62268
3.48849
1.40001
1.40001
1.40001
1.40001
1.40001
1.40001
1.40001
1.40001
1.40001
1.40001
1.40001
1.40001
1.40001
1.40001
1.40001
1.40001
1.40001
1.40001
1.40001
1.40001
1.40001
1.40001
1.40001
1.40001
1.40001
1.40001
1.40001
1.40001
1.40001
1.40001
1.40001
1.40001
1.40001
1.40001
1.40001
1.40001
1.40001
1.40001
1.40001
1.40001
1.40001
1.40001
1.40001
1.40001
1.40001
1.40001
1.40001
1.40001
1.40001
1.40001
1.40001
1.40001
1.40001
1.40001
1.40001
1.4
1.54246
3.90094
5.18807
5.18184
5.1776
5.17038
5.16412
5.15745
5.15023
5.14215
5.13191
5.11995
5.10759
5.09059
5.07258
5.05248
5.02833
5.00268
4.97399
4.94541
4.91592
4.88325
4.84604
4.80349
4.75351
4.70179
4.64784
4.59021
4.53042
4.46648
4.40077
4.32494
4.24492
4.15842
4.06321
3.96499
3.86242
3.75518
3.64637
3.52654
1.40001
1.40001
1.40001
1.40001
1.40001
1.40001
1.40001
1.40001
1.40001
1.40001
1.40001
1.40001
1.40001
1.40001
1.40001
1.40001
1.40001
1.40001
1.40001
1.40001
1.40001
1.40001
1.40001
1.40001
1.40001
1.40001
1.40001
1.40001
1.40001
1.40001
1.40001
1.40001
1.40001
1.40001
1.40001
1.40001
1.40001
1.40001
1.40001
1.40001
1.40001
1.40001
1.40001
1.40001
1.40001
1.40001
1.40001
1.40001
1.40001
1.40001
1.40001
1.40001
1.40001
1.40001
1.40001
1.4
1.40099
2.05075
4.73132
5.18431
5.14948
5.14714
5.14095
5.13375
5.12569
5.11592
5.10313
5.08698
5.07122
5.05377
5.03499
5.01477
4.99142
4.96534
4.93427
4.90392
4.87478
4.84137
4.80432
4.76296
4.71475
4.66474
4.61215
4.55566
4.49739
4.4336
4.36985
4.29619
4.21951
4.13807
4.04848
3.95915
3.8642
3.76842
3.66696
3.56156
1.40001
1.40001
1.40001
1.40001
1.40001
1.40001
1.40001
1.40001
1.40001
1.40001
1.40001
1.40001
1.40001
1.40001
1.40001
1.40001
1.40001
1.40001
1.40001
1.40001
1.40001
1.40001
1.40001
1.40001
1.40001
1.40001
1.40001
1.40001
1.40001
1.40001
1.40001
1.40001
1.40001
1.40001
1.40001
1.40001
1.40001
1.40001
1.40001
1.40001
1.40001
1.40001
1.40001
1.40001
1.40001
1.40001
1.40001
1.40001
1.40001
1.40001
1.40001
1.40001
1.40001
1.40001
1.40001
1.40001
1.40001
1.42495
3.04404
5.03186
5.12774
5.12612
5.12283
5.11596
5.10796
5.09653
5.08163
5.06157
5.04055
5.02133
5.00063
4.97934
4.9561
4.92954
4.89787
4.86717
4.83881
4.80506
4.76737
4.7261
4.67958
4.63006
4.58028
4.52726
4.47157
4.40895
4.34631
4.27524
4.20074
4.12306
4.03959
3.95721
3.86779
3.78138
3.68681
3.59333
1.40001
1.40001
1.40001
1.40001
1.40001
1.40001
1.40001
1.40001
1.40001
1.40001
1.40001
1.40001
1.40001
1.40001
1.40001
1.40001
1.40001
1.40001
1.40001
1.40001
1.40001
1.40001
1.40001
1.40001
1.40001
1.40001
1.40001
1.40001
1.40001
1.40001
1.40001
1.40001
1.40001
1.40001
1.40001
1.40001
1.40001
1.40001
1.40001
1.40001
1.40001
1.40001
1.40001
1.40001
1.40001
1.40001
1.40001
1.40001
1.40001
1.40001
1.40001
1.40001
1.40001
1.40001
1.40001
1.40001
1.40001
1.40005
1.5662
3.74769
5.08772
5.12942
5.11681
5.10912
5.09876
5.08523
5.06898
5.04682
5.02065
4.99639
4.97252
4.94902
4.92506
4.89804
4.86628
4.83563
4.80667
4.77376
4.73545
4.69385
4.6479
4.59853
4.5494
4.49977
4.44724
4.38881
4.32739
4.25953
4.18796
4.11382
4.03696
3.95863
3.87481
3.79532
3.70657
3.62178
1.40001
1.40001
1.40001
1.40001
1.40001
1.40001
1.40001
1.40001
1.40001
1.40001
1.40001
1.40001
1.40001
1.40001
1.40001
1.40001
1.40001
1.40001
1.40001
1.40001
1.40001
1.40001
1.40001
1.40001
1.40001
1.40001
1.40001
1.40001
1.40001
1.40001
1.40001
1.40001
1.40001
1.40001
1.40001
1.40001
1.40001
1.40001
1.40001
1.40001
1.40001
1.40001
1.40001
1.40001
1.40001
1.40001
1.40001
1.40001
1.40001
1.40001
1.40001
1.40001
1.40001
1.40001
1.40001
1.40001
1.40001
1.40001
1.40145
1.78367
4.43518
5.16425
5.13185
5.11199
5.08794
5.06866
5.04985
5.02757
5.00011
4.97248
4.94634
4.92103
4.89614
4.86954
4.83941
4.80905
4.77849
4.74652
4.70748
4.66581
4.62065
4.57232
4.5229
4.47437
4.42446
4.36972
4.31109
4.2472
4.17979
4.10945
4.03842
3.96366
3.88598
3.81029
3.72696
3.64827
1.40001
1.40001
1.40001
1.40001
1.40001
1.40001
1.40001
1.40001
1.40001
1.40001
1.40001
1.40001
1.40001
1.40001
1.40001
1.40001
1.40001
1.40001
1.40001
1.40001
1.40001
1.40001
1.40001
1.40001
1.40001
1.40001
1.40001
1.40001
1.40001
1.40001
1.40001
1.40001
1.40001
1.40001
1.40001
1.40001
1.40001
1.40001
1.40001
1.40001
1.40001
1.40001
1.40001
1.40001
1.40001
1.40001
1.40001
1.40001
1.40001
1.40001
1.40001
1.40001
1.40001
1.40001
1.40001
1.40001
1.40001
1.40001
1.40001
1.40801
2.49156
4.8758
5.11127
5.07846
5.05793
5.03913
5.02177
5.00131
4.97774
4.95273
4.92739
4.90185
4.87542
4.84735
4.81818
4.78726
4.75591
4.72259
4.68386
4.64239
4.59791
4.55081
4.50209
4.45354
4.40407
4.35108
4.29511
4.23519
4.17234
4.10653
4.04115
3.97042
3.89857
3.82558
3.74777
3.67373
1.40001
1.40001
1.40001
1.40001
1.40001
1.40001
1.40001
1.40001
1.40001
1.40001
1.40001
1.40001
1.40001
1.40001
1.40001
1.40001
1.40001
1.40001
1.40001
1.40001
1.40001
1.40001
1.40001
1.40001
1.40001
1.40001
1.40001
1.40001
1.40001
1.40001
1.40001
1.40001
1.40001
1.40001
1.40001
1.40001
1.40001
1.40001
1.40001
1.40001
1.40001
1.40001
1.40001
1.40001
1.40001
1.40001
1.40001
1.40001
1.40001
1.40001
1.40001
1.40001
1.40001
1.40001
1.40001
1.40001
1.40001
1.40001
1.40001
1.40002
1.46864
3.15114
4.98255
5.04308
5.02683
5.02158
5.00955
4.99212
4.97121
4.94761
4.92246
4.89527
4.86695
4.83677
4.80517
4.77515
4.7403
4.70529
4.66623
4.62382
4.57934
4.53294
4.4852
4.43706
4.38758
4.33603
4.28224
4.22558
4.16629
4.1047
4.04348
3.97702
3.9101
3.8398
3.76718
3.69735
1.40001
1.40001
1.40001
1.40001
1.40001
1.40001
1.40001
1.40001
1.40001
1.40001
1.40001
1.40001
1.40001
1.40001
1.40001
1.40001
1.40001
1.40001
1.40001
1.40001
1.40001
1.40001
1.40001
1.40001
1.40001
1.40001
1.40001
1.40001
1.40001
1.40001
1.40001
1.40001
1.40001
1.40001
1.40001
1.40001
1.40001
1.40001
1.40001
1.40001
1.40001
1.40001
1.40001
1.40001
1.40001
1.40001
1.40001
1.40001
1.40001
1.40001
1.40001
1.40001
1.40001
1.40001
1.40001
1.40001
1.40001
1.40001
1.40001
1.40001
1.40033
1.58665
3.5477
4.98174
5.01034
5.00454
4.99565
4.9809
4.96276
4.94115
4.91703
4.89023
4.86155
4.83096
4.79808
4.76566
4.73096
4.69356
4.65329
4.61029
4.56541
4.51909
4.47176
4.42408
4.37528
4.325
4.27269
4.21858
4.16213
4.10424
4.04567
3.98305
3.91976
3.8523
3.78403
3.71811
1.40001
1.40001
1.40001
1.40001
1.40001
1.40001
1.40001
1.40001
1.40001
1.40001
1.40001
1.40001
1.40001
1.40001
1.40001
1.40001
1.40001
1.40001
1.40001
1.40001
1.40001
1.40001
1.40001
1.40001
1.40001
1.40001
1.40001
1.40001
1.40001
1.40001
1.40001
1.40001
1.40001
1.40001
1.40001
1.40001
1.40001
1.40001
1.40001
1.40001
1.40001
1.40001
1.40001
1.40001
1.40001
1.40001
1.40001
1.40001
1.40001
1.40001
1.40001
1.40001
1.40001
1.40001
1.40001
1.40001
1.40001
1.40001
1.40001
1.40001
1.40001
1.40196
1.70628
3.85372
5.00464
5.00498
4.98928
4.97169
4.95237
4.93101
4.90791
4.88287
4.85545
4.82551
4.79335
4.76023
4.72533
4.68757
4.6467
4.60322
4.55799
4.51149
4.46412
4.41643
4.36839
4.31914
4.26764
4.215
4.16071
4.10547
4.04866
3.98888
3.92807
3.86355
3.79878
3.73641
1.40001
1.40001
1.40001
1.40001
1.40001
1.40001
1.40001
1.40001
1.40001
1.40001
1.40001
1.40001
1.40001
1.40001
1.40001
1.40001
1.40001
1.40001
1.40001
1.40001
1.40001
1.40001
1.40001
1.40001
1.40001
1.40001
1.40001
1.40001
1.40001
1.40001
1.40001
1.40001
1.40001
1.40001
1.40001
1.40001
1.40001
1.40001
1.40001
1.40001
1.40001
1.40001
1.40001
1.40001
1.40001
1.40001
1.40001
1.40001
1.40001
1.40001
1.40001
1.40001
1.40001
1.40001
1.40001
1.40001
1.40001
1.40001
1.40001
1.40001
1.40001
1.40001
1.40512
1.83289
4.12708
5.00711
4.99432
4.97202
4.94752
4.92348
4.89856
4.87316
4.84593
4.81677
4.78621
4.75404
4.71935
4.68176
4.64132
4.59854
4.55403
4.50821
4.46118
4.41344
4.36577
4.31712
4.26628
4.21396
4.16089
4.10752
4.05212
3.99475
3.93627
3.87473
3.81282
3.75342
1.40001
1.40001
1.40001
1.40001
1.40001
1.40001
1.40001
1.40001
1.40001
1.40001
1.40001
1.40001
1.40001
1.40001
1.40001
1.40001
1.40001
1.40001
1.40001
1.40001
1.40001
1.40001
1.40001
1.40001
1.40001
1.40001
1.40001
1.40001
1.40001
1.40001
1.40001
1.40001
1.40001
1.40001
1.40001
1.40001
1.40001
1.40001
1.40001
1.40001
1.40001
1.40001
1.40001
1.40001
1.40001
1.40001
1.40001
1.40001
1.40001
1.40001
1.40001
1.40001
1.40001
1.40001
1.40001
1.40001
1.40001
1.40001
1.40001
1.40001
1.40001
1.40001
1.40002
1.41012
1.97434
4.32777
5.01308
4.98872
4.96021
4.93055
4.90238
4.87237
4.84143
4.81058
4.77927
4.74658
4.71206
4.67544
4.63653
4.59557
4.55271
4.50815
4.46196
4.41479
4.36739
4.31907
4.26898
4.21689
4.16449
4.11246
4.05859
4.00319
3.94676
3.88755
3.82784
3.77042
1.40001
1.40001
1.40001
1.40001
1.40001
1.40001
1.40001
1.40001
1.40001
1.40001
1.40001
1.40001
1.40001
1.40001
1.40001
1.40001
1.40001
1.40001
1.40001
1.40001
1.40001
1.40001
1.40001
1.40001
1.40001
1.40001
1.40001
1.40001
1.40001
1.40001
1.40001
1.40001
1.40001
1.40001
1.40001
1.40001
1.40001
1.40001
1.40001
1.40001
1.40001
1.40001
1.40001
1.40001
1.40001
1.40001
1.40001
1.40001
1.40001
1.40001
1.40001
1.40001
1.40001
1.40001
1.40001
1.40001
1.40001
1.40001
1.40001
1.40001
1.40001
1.40001
1.40001
1.40003
1.41776
2.11046
4.47578
5.01288
4.98574
4.95217
4.91635
4.88104
4.84741
4.8135
4.77854
4.74279
4.70675
4.66973
4.63136
4.59149
4.55004
4.50692
4.46221
4.41655
4.37018
4.32277
4.27385
4.22306
4.17195
4.12104
4.06849
4.0144
3.9594
3.90173
3.84356
3.78725
1.40001
1.40001
1.40001
1.40001
1.40001
1.40001
1.40001
1.40001
1.40001
1.40001
1.40001
1.40001
1.40001
1.40001
1.40001
1.40001
1.40001
1.40001
1.40001
1.40001
1.40001
1.40001
1.40001
1.40001
1.40001
1.40001
1.40001
1.40001
1.40001
1.40001
1.40001
1.40001
1.40001
1.40001
1.40001
1.40001
1.40001
1.40001
1.40001