/*--------------------------------*- C++ -*----------------------------------*\
  =========                 |
  \\      /  F ield         | OpenFOAM: The Open Source CFD Toolbox
   \\    /   O peration     | Website:  https://openfoam.org
    \\  /    A nd           | Version:  7
     \\/     M anipulation  |
\*---------------------------------------------------------------------------*/
FoamFile
{
    version     2.0;
    format      ascii;
    class       volScalarField;
    location    "4.6";
    object      T;
}
// * * * * * * * * * * * * * * * * * * * * * * * * * * * * * * * * * * * * * //

dimensions      [0 0 0 1 0 0 0];

internalField   nonuniform List<scalar> 
19968
(
1
1
1
1
1
1
1
1
1
1
1
1
1
1
1
1
1
1
1
1
1
1
1
1
1
1
1
1
1
1
1
1
1
1
1
1
1
1
1
1
1
1
1
1
1
1
1
1
1.2513
2.4486
2.68692
2.69064
2.69627
2.702
2.70756
2.71227
2.71602
2.71912
2.72199
2.72496
2.72831
2.73219
2.73651
2.7408
2.74453
2.74772
2.75066
2.75365
2.75683
2.76007
2.76303
2.76552
2.76766
2.76982
2.77229
2.77513
2.77806
2.78075
2.78308
2.78512
2.787
2.78876
2.79038
2.79183
2.79321
2.79466
2.7963
2.79808
2.79979
2.8012
2.80222
2.80296
2.80348
2.80379
2.80405
2.80409
1
1
1
1
1
1
1
1
1
1
1
1
1
1
1
1
1
1
1
1
1
1
1
1
1
1
1
1
1
1
1
1
1
1
1
1
1
1
1
1
1
1
1
1
1
1
1
1
1.24004
2.44255
2.68673
2.69048
2.696
2.70173
2.70732
2.71205
2.71577
2.71882
2.72167
2.72466
2.72807
2.732
2.73632
2.74056
2.74424
2.74738
2.75031
2.7533
2.75649
2.75973
2.76271
2.76522
2.7674
2.76959
2.77207
2.77488
2.77777
2.78042
2.78274
2.78479
2.78667
2.78844
2.79004
2.79149
2.79286
2.79429
2.79591
2.79765
2.79934
2.80072
2.80173
2.80246
2.80301
2.80337
2.80363
2.8037
1
1
1
1
1
1
1
1
1
1
1
1
1
1
1
1
1
1
1
1
1
1
1
1
1
1
1
1
1
1
1
1
1
1
1
1
1
1
1
1
1
1
1
1
1
1
1
1
1.21305
2.42688
2.68673
2.68974
2.6952
2.70098
2.70663
2.71133
2.71496
2.71797
2.72088
2.72403
2.72764
2.73169
2.73598
2.74008
2.74362
2.74669
2.74959
2.75261
2.75584
2.75912
2.76214
2.76469
2.76693
2.76915
2.77164
2.77442
2.77725
2.77988
2.7822
2.78426
2.78616
2.78792
2.78952
2.79096
2.79232
2.79373
2.7953
2.79699
2.79861
2.79995
2.80094
2.80168
2.80226
2.80266
2.80294
2.80302
1
1
1
1
1
1
1
1
1
1
1
1
1
1
1
1
1
1
1
1
1
1
1
1
1
1
1
1
1
1
1
1
1
1
1
1
1
1
1
1
1
1
1
1
1
1
1
1
1.17217
2.40012
2.6857
2.68869
2.69428
2.70009
2.70571
2.71027
2.71379
2.71683
2.71992
2.72335
2.72725
2.73137
2.7355
2.73935
2.74268
2.74565
2.74856
2.75163
2.75492
2.75824
2.76127
2.76387
2.76617
2.76847
2.77097
2.7737
2.77648
2.77907
2.78138
2.78345
2.78535
2.7871
2.78869
2.79011
2.79146
2.79283
2.79433
2.79592
2.79744
2.79871
2.79967
2.8004
2.80102
2.80147
2.80177
2.80189
1
1
1
1
1
1
1
1
1
1
1
1
1
1
1
1
1
1
1
1
1
1
1
1
1
1
1
1
1
1
1
1
1
1
1
1
1
1
1
1
1
1
1
1
1
1
1
1
1.11199
2.35988
2.68474
2.68801
2.69368
2.69917
2.70442
2.70877
2.71231
2.71558
2.71905
2.72288
2.72706
2.73119
2.73506
2.73855
2.74162
2.74449
2.74744
2.75058
2.75391
2.75721
2.76022
2.76285
2.76523
2.7676
2.77014
2.77283
2.77555
2.7781
2.7804
2.78247
2.78436
2.7861
2.78767
2.78909
2.79041
2.79174
2.79315
2.79461
2.79599
2.79716
2.79805
2.79873
2.79931
2.79975
2.80005
2.80018
1
1
1
1
1
1
1
1
1
1
1
1
1
1
1
1
1
1
1
1
1
1
1
1
1
1
1
1
1
1
1
1
1
1
1
1
1
1
1
1
1
1
1
1
1
1
1
1
1.00436
2.29173
2.68499
2.68911
2.69373
2.69859
2.70313
2.70719
2.7109
2.71462
2.71862
2.72289
2.72727
2.73135
2.73486
2.73786
2.74056
2.74329
2.74626
2.74947
2.75277
2.75596
2.75881
2.76135
2.76374
2.76617
2.76871
2.77134
2.77396
2.77642
2.77867
2.78072
2.7826
2.78433
2.7859
2.78731
2.78862
2.78992
2.79127
2.79265
2.79396
2.79509
2.79599
2.79669
2.79728
2.79775
2.79809
2.79826
1
1
1
1
1
1
1
1
1
1
1
1
1
1
1
1
1
1
1
1
1
1
1
1
1
1
1
1
1
1
1
1
1
1
1
1
1
1
1
1
1
1
1
1
1
1
1
1
1.00002
2.20034
2.68126
2.6878
2.69127
2.69583
2.69999
2.70403
2.70801
2.71215
2.71658
2.72118
2.72568
2.72963
2.73278
2.73537
2.7378
2.74049
2.74356
2.74691
2.75024
2.75337
2.75612
2.75866
2.76115
2.76371
2.76633
2.76894
2.77147
2.77385
2.77606
2.77811
2.78002
2.78177
2.78335
2.78476
2.78607
2.78734
2.78865
2.78999
2.79125
2.79235
2.79325
2.79397
2.79456
2.79507
2.79543
2.79565
1
1
1
1
1
1
1
1
1
1
1
1
1
1
1
1
1
1
1
1
1
1
1
1
1
1
1
1
1
1
1
1
1
1
1
1
1
1
1
1
1
1
1
1
1
1
1
1
1
2.06807
2.6692
2.6847
2.68768
2.69248
2.69675
2.70088
2.70494
2.70916
2.71367
2.71835
2.72294
2.72691
2.73001
2.7326
2.73505
2.73775
2.74084
2.74421
2.7475
2.75057
2.75327
2.75581
2.75837
2.76103
2.76367
2.76622
2.76861
2.77085
2.77298
2.77501
2.77693
2.77871
2.7803
2.78171
2.78298
2.78423
2.7855
2.78678
2.78799
2.78904
2.78989
2.79059
2.79118
2.79171
2.79208
2.79234
1
1
1
1
1
1
1
1
1
1
1
1
1
1
1
1
1
1
1
1
1
1
1
1
1
1
1
1
1
1
1
1
1
1
1
1
1
1
1
1
1
1
1
1
1
1
1
1
1
1.88695
2.63511
2.67759
2.68197
2.68766
2.69216
2.69637
2.70042
2.70456
2.70896
2.71361
2.7183
2.72249
2.72586
2.72871
2.73134
2.73408
2.73706
2.74029
2.74347
2.74648
2.74918
2.75179
2.75445
2.75718
2.75983
2.76227
2.76451
2.76659
2.76862
2.77061
2.77254
2.77434
2.77594
2.77734
2.77862
2.77987
2.78116
2.78245
2.78365
2.78466
2.78549
2.78618
2.78678
2.78735
2.78774
2.78803
1
1
1
1
1
1
1
1
1
1
1
1
1
1
1
1
1
1
1
1
1
1
1
1
1
1
1
1
1
1
1
1
1
1
1
1
1
1
1
1
1
1
1
1
1
1
1
1
1
1.65039
2.57448
2.67032
2.67744
2.6831
2.68724
2.69127
2.69522
2.6992
2.70337
2.70784
2.71253
2.71699
2.7208
2.72404
2.72694
2.72972
2.73254
2.73555
2.73861
2.74159
2.74444
2.74717
2.74992
2.75265
2.75519
2.75742
2.75941
2.76129
2.76318
2.76509
2.76698
2.76877
2.77039
2.77183
2.77317
2.7745
2.77584
2.77711
2.77823
2.77912
2.77981
2.78039
2.78093
2.78147
2.78183
2.78212
1
1
1
1
1
1
1
1
1
1
1
1
1
1
1
1
1
1
1
1
1
1
1
1
1
1
1
1
1
1
1
1
1
1
1
1
1
1
1
1
1
1
1
1
1
1
1
1
1
1.34519
2.46795
2.67169
2.67293
2.67819
2.68195
2.68587
2.68976
2.69366
2.69768
2.70197
2.7065
2.71102
2.71513
2.71865
2.72172
2.72451
2.72716
2.72995
2.73289
2.73587
2.73891
2.74182
2.7447
2.74742
2.74985
2.75188
2.75366
2.75534
2.75701
2.75871
2.76037
2.76195
2.7634
2.76473
2.76601
2.76729
2.76857
2.76975
2.77077
2.77158
2.77223
2.77281
2.77336
2.77393
2.77432
2.77463
1
1
1
1
1
1
1
1
1
1
1
1
1
1
1
1
1
1
1
1
1
1
1
1
1
1
1
1
1
1
1
1
1
1
1
1
1
1
1
1
1
1
1
1
1
1
1
1
1
1.01295
2.28359
2.67868
2.67798
2.67908
2.68144
2.68431
2.68756
2.69102
2.69464
2.69836
2.70212
2.70586
2.70943
2.71263
2.71549
2.71813
2.72051
2.72292
2.72559
2.72844
2.73154
2.73456
2.73747
2.74012
2.74243
2.74434
2.74599
2.74759
2.74918
2.75072
2.7522
2.75364
2.75502
2.75636
2.75769
2.75897
2.76015
2.76112
2.76183
2.76229
2.76257
2.76275
2.76292
2.76314
2.76331
2.7635
1
1
1
1
1
1
1
1
1
1
1
1
1
1
1
1
1
1
1
1
1
1
1
1
1
1
1
1
1
1
1
1
1
1
1
1
1
1
1
1
1
1
1
1
1
1
1
1
1
1.00002
1.99759
2.64517
2.66238
2.66649
2.67155
2.67578
2.67968
2.68337
2.68702
2.6906
2.69406
2.69735
2.70053
2.7035
2.70619
2.70873
2.7111
2.71339
2.71596
2.7188
2.72185
2.72491
2.72776
2.73034
2.73257
2.73442
2.73601
2.73755
2.73908
2.74048
2.74171
2.74288
2.74403
2.74517
2.74621
2.74707
2.74767
2.748
2.74814
2.74821
2.74832
2.7485
2.74865
2.74879
2.74878
2.74883
1
1
1
1
1
1
1
1
1
1
1
1
1
1
1
1
1
1
1
1
1
1
1
1
1
1
1
1
1
1
1
1
1
1
1
1
1
1
1
1
1
1
1
1
1
1
1
1
1
1
1.51866
2.50664
2.64739
2.65419
2.66207
2.66758
2.67219
2.6763
2.68027
2.68414
2.68774
2.69093
2.69376
2.69632
2.69862
2.70085
2.70312
2.70535
2.70772
2.71032
2.71295
2.71558
2.71793
2.72009
2.72198
2.72356
2.72489
2.72619
2.72755
2.72863
2.72946
2.73011
2.73091
2.73173
2.73252
2.73303
2.73301
2.73283
2.73248
2.73211
2.7316
2.73082
2.72934
2.72709
2.72439
2.72213
1
1
1
1
1
1
1
1
1
1
1
1
1
1
1
1
1
1
1
1
1
1
1
1
1
1
1
1
1
1
1
1
1
1
1
1
1
1
1
1
1
1
1
1
1
1
1
1
1
1
1.02487
2.23286
2.65615
2.65544
2.65705
2.66003
2.66323
2.66661
2.6703
2.67425
2.67815
2.68156
2.68431
2.68656
2.68853
2.69044
2.69255
2.6948
2.69704
2.69938
2.70165
2.70377
2.7056
2.70716
2.70856
2.70976
2.71079
2.71187
2.71288
2.71351
2.71379
2.71377
2.71377
2.71386
2.71383
2.71333
2.71203
2.71002
2.70744
2.70448
2.70122
2.69777
2.69456
2.69116
2.68876
2.68736
1
1
1
1
1
1
1
1
1
1
1
1
1
1
1
1
1
1
1
1
1
1
1
1
1
1
1
1
1
1
1
1
1
1
1
1
1
1
1
1
1
1
1
1
1
1
1
1
1
1
1.00004
1.72552
2.5515
2.63694
2.64179
2.64562
2.64872
2.65197
2.65565
2.65988
2.66442
2.6687
2.67222
2.67493
2.67706
2.67888
2.68069
2.68269
2.68478
2.68689
2.68893
2.69069
2.69209
2.69304
2.69375
2.69439
2.69498
2.69548
2.69582
2.69581
2.69537
2.69436
2.69305
2.69168
2.69015
2.68814
2.6853
2.68151
2.67692
2.6718
2.6663
2.66079
2.65575
2.65395
2.65143
2.66599
1
1
1
1
1
1
1
1
1
1
1
1
1
1
1
1
1
1
1
1
1
1
1
1
1
1
1
1
1
1
1
1
1
1
1
1
1
1
1
1
1
1
1
1
1
1
1
1
1
1
1
1.07696
2.32667
2.63639
2.6357
2.63732
2.63953
2.64155
2.64411
2.64764
2.65208
2.65677
2.66087
2.66392
2.66608
2.66773
2.66923
2.67088
2.67279
2.67467
2.67645
2.67805
2.6792
2.67945
2.67951
2.67955
2.6795
2.67933
2.67898
2.6783
2.67704
2.67503
2.67234
2.66921
2.66575
2.66176
2.65672
2.65012
2.64133
2.63004
2.61484
2.59469
2.56547
2.52438
2.46154
2.33427
1
1
1
1
1
1
1
1
1
1
1
1
1
1
1
1
1
1
1
1
1
1
1
1
1
1
1
1
1
1
1
1
1
1
1
1
1
1
1
1
1
1
1
1
1
1
1
1
1
1
1
1.00045
1.98851
2.60388
2.61749
2.62203
2.62598
2.62891
2.6319
2.63545
2.63972
2.64429
2.64852
2.65184
2.65434
2.65631
2.65796
2.65947
2.66126
2.66311
2.66483
2.66631
2.66726
2.66706
2.66675
2.66638
2.66583
2.66503
2.66394
2.66249
2.66047
2.65759
2.6537
2.64892
2.6434
2.63721
2.6297
2.62022
2.60727
2.59038
2.56699
2.53668
2.49317
2.43822
2.32815
2.16301
1
1
1
1
1
1
1
1
1
1
1
1
1
1
1
1
1
1
1
1
1
1
1
1
1
1
1
1
1
1
1
1
1
1
1
1
1
1
1
1
1
1
1
1
1
1
1
1
1
1
1
0.999999
1.37106
2.43046
2.59878
2.60722
2.61287
2.61575
2.61889
2.62267
2.62738
2.63232
2.6368
2.64026
2.64285
2.64485
2.64625
2.64752
2.6492
2.65109
2.65277
2.65402
2.65458
2.65427
2.65364
2.65285
2.65179
2.65036
2.64846
2.64606
2.64302
2.63913
2.63402
2.62772
2.62018
2.61174
2.60169
2.58947
2.57327
2.55206
2.52392
2.4868
2.43833
2.36621
2.2605
2.13747
1
1
1
1
1
1
1
1
1
1
1
1
1
1
1
1
1
1
1
1
1
1
1
1
1
1
1
1
1
1
1
1
1
1
1
1
1
1
1
1
1
1
1
1
1
1
1
1
1
1
1
1
1.01309
2.11061
2.59764
2.5969
2.59804
2.60075
2.60402
2.60832
2.61422
2.62
2.62451
2.62782
2.62996
2.6316
2.6327
2.63393
2.63572
2.6378
2.63961
2.64072
2.64102
2.64055
2.63952
2.6382
2.63667
2.63481
2.63237
2.62921
2.62515
2.62015
2.61382
2.6062
2.59702
2.5866
2.5744
2.55982
2.5414
2.51769
2.48748
2.44808
2.39832
2.33002
2.24379
2.14872
1
1
1
1
1
1
1
1
1
1
1
1
1
1
1
1
1
1
1
1
1
1
1
1
1
1
1
1
1
1
1
1
1
1
1
1
1
1
1
1
1
1
1
1
1
1
1
1
1
1
1
1
1.00001
1.44751
2.44399
2.58402
2.58717
2.59051
2.59231
2.5958
2.60154
2.60732
2.61193
2.61515
2.61695
2.61806
2.61876
2.61978
2.62145
2.62348
2.6253
2.62641
2.62663
2.62614
2.62487
2.62304
2.62091
2.61857
2.61574
2.61214
2.60739
2.60146
2.59404
2.58522
2.5748
2.56285
2.54906
2.5328
2.51302
2.48836
2.45852
2.41962
2.37352
2.31596
2.24724
2.17126
1
1
1
1
1
1
1
1
1
1
1
1
1
1
1
1
1
1
1
1
1
1
1
1
1
1
1
1
1
1
1
1
1
1
1
1
1
1
1
1
1
1
1
1
1
1
1
1
1
1
1
1
1
1.01907
2.10824
2.58054
2.58461
2.58449
2.58484
2.58714
2.59163
2.59576
2.59916
2.6015
2.6029
2.60369
2.60428
2.60527
2.60688
2.60875
2.61033
2.6112
2.6113
2.61092
2.6096
2.60736
2.60454
2.60159
2.59834
2.59445
2.58937
2.58285
2.57463
2.56491
2.55365
2.54078
2.52607
2.50894
2.48868
2.46395
2.43545
2.39885
2.35854
2.31064
2.25479
2.19436
1
1
1
1
1
1
1
1
1
1
1
1
1
1
1
1
1
1
1
1
1
1
1
1
1
1
1
1
1
1
1
1
1
1
1
1
1
1
1
1
1
1
1
1
1
1
1
1
1
1
1
1
1
1.00002
1.38389
2.40671
2.57653
2.57518
2.57719
2.58016
2.58329
2.58585
2.58767
2.58866
2.58919
2.58951
2.58991
2.59084
2.59234
2.59387
2.5949
2.59516
2.59501
2.59457
2.59329
2.59104
2.58794
2.58449
2.58077
2.57652
2.57121
2.56443
2.55591
2.54583
2.53424
2.52098
2.50591
2.48851
2.46851
2.4441
2.41713
2.38386
2.34878
2.3077
2.26181
2.21133
1
1
1
1
1
1
1
1
1
1
1
1
1
1
1
1
1
1
1
1
1
1
1
1
1
1
1
1
1
1
1
1
1
1
1
1
1
1
1
1
1
1
1
1
1
1
1
1
1
1
1
1
1
1
1.01271
2.02391
2.55278
2.56498
2.56748
2.57091
2.57403
2.57631
2.5776
2.57776
2.57762
2.57739
2.5773
2.57783
2.57893
2.57992
2.58027
2.57991
2.57893
2.57773
2.57612
2.57392
2.57091
2.56731
2.56326
2.55867
2.553
2.5459
2.53723
2.52715
2.51567
2.50263
2.48789
2.47091
2.45161
2.42841
2.40301
2.37308
2.34203
2.30582
2.26738
2.22444
1
1
1
1
1
1
1
1
1
1
1
1
1
1
1
1
1
1
1
1
1
1
1
1
1
1
1
1
1
1
1
1
1
1
1
1
1
1
1
1
1
1
1
1
1
1
1
1
1
1
1
1
1
1
1.00001
1.20101
2.33022
2.56198
2.55845
2.56097
2.56284
2.5653
2.5668
2.56686
2.56656
2.56597
2.56539
2.56554
2.566
2.56605
2.56587
2.56497
2.56309
2.561
2.55877
2.5564
2.55356
2.55009
2.54603
2.54127
2.53521
2.52783
2.51916
2.50924
2.49814
2.48563
2.47169
2.45549
2.43713
2.41573
2.39192
2.36509
2.33702
2.30476
2.27221
2.23489
1
1
1
1
1
1
1
1
1
1
1
1
1
1
1
1
1
1
1
1
1
1
1
1
1
1
1
1
1
1
1
1
1
1
1
1
1
1
1
1
1
1
1
1
1
1
1
1
1
1
1
1
1
1
1
1.00282
1.82669
2.48922
2.53538
2.54384
2.54959
2.55241
2.55397
2.55444
2.55423
2.5538
2.55319
2.55308
2.553
2.55251
2.55192
2.55071
2.54833
2.54549
2.54224
2.53914
2.536
2.53262
2.52871
2.52393
2.51762
2.51012
2.50153
2.49176
2.48105
2.46917
2.45634
2.4411
2.42407
2.40464
2.38269
2.35877
2.33322
2.30476
2.27635
2.24334
1
1
1
1
1
1
1
1
1
1
1
1
1
1
1
1
1
1
1
1
1
1
1
1
1
1
1
1
1
1
1
1
1
1
1
1
1
1
1
1
1
1
1
1
1
1
1
1
1
1
1
1
1
1
1
1
1.09319
2.17604
2.52939
2.53872
2.53941
2.53984
2.54096
2.54199
2.54232
2.54224
2.54189
2.54146
2.54118
2.54031
2.53937
2.5379
2.53528
2.53184
2.52753
2.52343
2.51972
2.51606
2.51204
2.50716
2.5006
2.49323
2.48489
2.47534
2.46502
2.45362
2.4417
2.42734
2.41172
2.39421
2.37416
2.3528
2.32971
2.30487
2.27913
2.25009
1
1
1
1
1
1
1
1
1
1
1
1
1
1
1
1
1
1
1
1
1
1
1
1
1
1
1
1
1
1
1
1
1
1
1
1
1
1
1
1
1
1
1
1
1
1
1
1
1
1
1
1
1
1
1
1
1.00058
1.4131
2.35018
2.51814
2.51749
2.52084
2.52378
2.52612
2.52757
2.52802
2.52793
2.52757
2.52742
2.52698
2.52622
2.52491
2.52248
2.51889
2.51389
2.50907
2.50489
2.50043
2.49583
2.4907
2.48417
2.477
2.46892
2.45966
2.44977
2.43859
2.42739
2.41392
2.39955
2.38372
2.36551
2.3467
2.32591
2.30426
2.28068
2.25561
1
1
1
1
1
1
1
1
1
1
1
1
1
1
1
1
1
1
1
1
1
1
1
1
1
1
1
1
1
1
1
1
1
1
1
1
1
1
1
1
1
1
1
1
1
1
1
1
1
1
1
1
1
1
1
1
1
1.01491
1.87219
2.46705
2.50008
2.50528
2.50819
2.51023
2.512
2.51279
2.51301
2.51286
2.51281
2.51292
2.51256
2.51164
2.50962
2.50616
2.50113
2.49618
2.49191
2.48693
2.48163
2.47595
2.46928
2.46183
2.45404
2.4453
2.43581
2.42479
2.41386
2.40113
2.38756
2.37303
2.35673
2.34004
2.32112
2.30233
2.28072
2.25906
1
1
1
1
1
1
1
1
1
1
1
1
1
1
1
1
1
1
1
1
1
1
1
1
1
1
1
1
1
1
1
1
1
1
1
1
1
1
1
1
1
1
1
1
1
1
1
1
1
1
1
1
1
1
1
1
1
1.00002
1.10974
2.11142
2.48156
2.49756
2.49607
2.49691
2.49765
2.4982
2.49875
2.49882
2.49875
2.49888
2.49864
2.49795
2.49634
2.49325
2.48855
2.48386
2.47958
2.47471
2.46906
2.46299
2.45608
2.44831
2.4403
2.43191
2.42274
2.41228
2.40132
2.38913
2.37621
2.36265
2.34811
2.33284
2.31578
2.29915
2.27966
2.26051
1
1
1
1
1
1
1
1
1
1
1
1
1
1
1
1
1
1
1
1
1
1
1
1
1
1
1
1
1
1
1
1
1
1
1
1
1
1
1
1
1
1
1
1
1
1
1
1
1
1
1
1
1
1
1
1
1
1
1.00082
1.25627
2.26026
2.48036
2.47912
2.48024
2.47986
2.48039
2.48158
2.48274
2.48332
2.48371
2.48353
2.48295
2.48169
2.47923
2.47536
2.47118
2.46697
2.46261
2.45703
2.45106
2.44434
2.43671
2.42849
2.42007
2.41109
2.40098
2.39013
2.37836
2.36602
2.35313
2.34003
2.32583
2.31048
2.29507
2.27734
2.26007
1
1
1
1
1
1
1
1
1
1
1
1
1
1
1
1
1
1
1
1
1
1
1
1
1
1
1
1
1
1
1
1
1
1
1
1
1
1
1
1
1
1
1
1
1
1
1
1
1
1
1
1
1
1
1
1
1
1
1
1.00469
1.61917
2.36582
2.45722
2.4541
2.45553
2.45757
2.46034
2.46297
2.46526
2.46697
2.46726
2.46695
2.46596
2.46391
2.46093
2.45727
2.4535
2.44949
2.44459
2.43924
2.43316
2.42618
2.41834
2.40998
2.40095
2.39088
2.38012
2.36868
2.35684
2.34455
2.33246
2.31906
2.30511
2.29048
2.27425
2.25851
1
1
1
1
1
1
1
1
1
1
1
1
1
1
1
1
1
1
1
1
1
1
1
1
1
1
1
1
1
1
1
1
1
1
1
1
1
1
1
1
1
1
1
1
1
1
1
1
1
1
1
1
1
1
1
1
1
1
1
1.00001
1.04151
1.88748
2.41453
2.44239
2.44106
2.44305
2.44506
2.44703
2.44898
2.45057
2.45092
2.45055
2.44964
2.44786
2.44522
2.44249
2.4388
2.4353
2.43123
2.42663
2.42147
2.41547
2.40851
2.40069
2.39188
2.3821
2.37158
2.36045
2.34894
2.33713
2.32557
2.31285
2.29988
2.28583
2.27084
2.25619
1
1
1
1
1
1
1
1
1
1
1
1
1
1
1
1
1
1
1
1
1
1
1
1
1
1
1
1
1
1
1
1
1
1
1
1
1
1
1
1
1
1
1
1
1
1
1
1
1
1
1
1
1
1
1
1
1
1
1
1
1.00016
1.12209
2.0117
2.41045
2.43233
2.43469
2.43611
2.43612
2.4362
2.43615
2.43577
2.43483
2.43345
2.43156
2.429
2.42635
2.42329
2.42002
2.41657
2.41281
2.40861
2.40367
2.39776
2.39084
2.38278
2.37366
2.36361
2.35299
2.3419
2.33061
2.31938
2.30731
2.29502
2.28155
2.26753
2.25374
1
1
1
1
1
1
1
1
1
1
1
1
1
1
1
1
1
1
1
1
1
1
1
1
1
1
1
1
1
1
1
1
1
1
1
1
1
1
1
1
1
1
1
1
1
1
1
1
1
1
1
1
1
1
1
1
1
1
1
1
1
1.00105
1.20078
2.08737
2.3955
2.42727
2.42662
2.42629
2.42556
2.42443
2.42304
2.42138
2.41933
2.41688
2.41406
2.41115
2.40815
2.40503
2.40181
2.39846
2.39485
2.39069
2.38567
2.37966
2.37262
2.36445
2.35515
2.34522
2.3348
2.32424
2.31343
2.30201
2.29032
2.2776
2.26448
2.25157
1
1
1
1
1
1
1
1
1
1
1
1
1
1
1
1
1
1
1
1
1
1
1
1
1
1
1
1
1
1
1
1
1
1
1
1
1
1
1
1
1
1
1
1
1
1
1
1
1
1
1
1
1
1
1
1
1
1
1
1
1
1
1.00282
1.27831
2.13904
2.38543
2.41035
2.41231
2.41224
2.41184
2.41076
2.4091
2.40679
2.40402
2.40103
2.39789
2.39457
2.39118
2.38777
2.38436
2.38083
2.37692
2.3723
2.36686
2.36062
2.35338
2.34499
2.33582
2.32625
2.3166
2.3065
2.296
2.2852
2.27352
2.2614
2.24949
1
1
1
1
1
1
1
1
1
1
1
1
1
1
1
1
1
1
1
1
1
1
1
1
1
1
1
1
1
1
1
1
1
1
1
1
1
1
1
1
1
1
1
1
1
1
1
1
1
1
1
1
1
1
1
1
1
1
1
1
1
1
1
1.00565
1.35621
2.17648
2.37309
2.38932
2.39395
2.39597
2.39618
2.39536
2.39371
2.39152
2.38885
2.38576
2.38241
2.37894
2.37537
2.37172
2.36787
2.36365
2.35888
2.35352
2.34759
2.3409
2.33331
2.32487
2.31617
2.30747
2.2984
2.289
2.27932
2.26882
2.25783
2.24697
1
1
1
1
1
1
1
1
1
1
1
1
1
1
1
1
1
1
1
1
1
1
1
1
1
1
1
1
1
1
1
1
1
1
1
1
1
1
1
1
1
1
1
1
1
1
1
1
1
1
1
1
1
1
1
1
1
1
1
1
1
1
1
1.00001
1.01006
1.42486
2.20471
2.35945
2.37014
2.37459
2.37663
2.3777
2.37759
2.37674
2.37491
2.3725
2.36978
2.36674
2.36337
2.35963
2.35549
2.35091
2.34587
2.34039
2.33447
2.328
2.32088
2.31312
2.30517
2.29728
2.28913
2.28072
2.27211
2.26275
2.25292
2.2431
1
1
1
1
1
1
1
1
1
1
1
1
1
1
1
1
1
1
1
1
1
1
1
1
1
1
1
1
1
1
1
1
1
1
1
1
1
1
1
1
1
1
1
1
1
1
1
1
1
1
1
1
1
1
1
1
1
1
1
1
1
1
1
1
1.00002
1.01573
1.48359
2.22417
2.34973
2.35294
2.35503
2.35658
2.3576
2.35778
2.35748
2.35663
2.35515
2.35299
2.35017
2.34675
2.34278
2.3383
2.33331
2.32788
2.32203
2.3157
2.30888
2.30158
2.29413
2.28676
2.27919
2.27146
2.26366
2.25529
2.24651
2.23763
1
1
1
1
1
1
1
1
1
1
1
1
1
1
1
1
1
1
1
1
1
1
1
1
1
1
1
1
1
1
1
1
1
1
1
1
1
1
1
1
1
1
1
1
1
1
1
1
1
1
1
1
1
1
1
1
1
1
1
1
1
1
1
1
1
1.00004
1.02219
1.5421
2.2376
2.33917
2.33834
2.3383
2.33808
2.3378
2.3377
2.33749
2.337
2.33599
2.33427
2.33182
2.3287
2.32491
2.3205
2.31554
2.31007
2.30409
2.29762
2.29075
2.2837
2.27668
2.26944
2.26204
2.25466
2.24692
2.23885
2.23068
1
1
1
1
1
1
1
1
1
1
1
1
1
1
1
1
1
1
1
1
1
1
1
1
1
1
1
1
1
1
1
1
1
1
1
1
1
1
1
1
1
1
1
1
1
1
1
1
1
1
1
1
1
1
1
1
1
1
1
1
1
1
1
1
1
1
1.00007
1.03052
1.57424
2.24023
2.32821
2.32633
2.32406
2.32238
2.32079
2.31957
2.31851
2.31726
2.31584
2.31418
2.31206
2.30934
2.306
2.30205
2.29744
2.2922
2.28641
2.28015
2.27362
2.26698
2.26008
2.25292
2.24572
2.23834
2.23069
2.22294
1
1
1
1
1
1
1
1
1
1
1
1
1
1
1
1
1
1
1
1
1
1
1
1
1
1
1
1
1
1
1
1
1
1
1
1
1
1
1
1
1
1
1
1
1
1
1
1
1
1
1
1
1
1
1
1
1
1
1
1
1
1
1
1
1
1
1
1.00012
1.03628
1.57838
2.23213
2.31763
2.31511
2.31182
2.3089
2.3061
2.3034
2.30075
2.29833
2.29618
2.2941
2.2919
2.2894
2.28645
2.28292
2.27874
2.27397
2.26864
2.26291
2.25687
2.25049
2.24373
2.2368
2.22975
2.22246
2.21503
1
1
1
1
1
1
1
1
1
1
1
1
1
1
1
1
1
1
1
1
1
1
1
1
1
1
1
1
1
1
1
1
1
1
1
1
1
1
1
1
1
1
1
1
1
1
1
1
1
1
1
1
1
1
1
1
1
1
1
1
1
1
1
1
1
1
1
1
1.00016
1.03734
1.57415
2.21484
2.3061
2.30408
2.30004
2.2961
2.29206
2.28835
2.28489
2.28152
2.27839
2.27551
2.27283
2.27011
2.2671
2.26369
2.2598
2.25545
2.25063
2.2454
2.23977
2.23369
2.22737
2.22084
2.21408
2.2071
1
1
1
1
1
1
1
1
1
1
1
1
1
1
1
1
1
1
1
1
1
1
1
1
1
1
1
1
1
1
1
1
1
1
1
1
1
1
1
1
1
1
1
1
1
1
1
1
1
1
1
1
1
1
1
1
1
1
1
1
1
1
1
1
1
1
1
1
1
1.00017
1.03665
1.55074
2.18705
2.29347
2.29229
2.28796
2.28387
2.27948
2.27524
2.27107
2.26698
2.26302
2.2593
2.25566
2.25202
2.24837
2.24463
2.24071
2.23653
2.23206
2.22725
2.22208
2.21662
2.21087
2.20487
2.19853
1
1
1
1
1
1
1
1
1
1
1
1
1
1
1
1
1
1
1
1
1
1
1
1
1
1
1
1
1
1
1
1
1
1
1
1
1
1
1
1
1
1
1
1
1
1
1
1
1
1
1
1
1
1
1
1
1
1
1
1
1
1
1
1
1
1
1
1
1
1
1.00017
1.03274
1.5108
2.14564
2.27803
2.28045
2.27607
2.27229
2.26796
2.26349
2.25894
2.25436
2.24973
2.24501
2.24029
2.23574
2.23132
2.22702
2.22275
2.21848
2.2141
2.20955
2.20479
2.19978
2.19452
2.18892
1
1
1
1
1
1
1
1
1
1
1
1
1
1
1
1
1
1
1
1
1
1
1
1
1
1
1
1
1
1
1
1
1
1
1
1
1
1
1
1
1
1
1
1
1
1
1
1
1
1
1
1
1
1
1
1
1
1
1
1
1
1
1
1
1
1
1
1
1
1
1
1.00014
1.02681
1.45252
2.09315
2.25483
2.26845
2.26438
2.26064
2.25628
2.25177
2.24701
2.24203
2.23688
2.23165
2.22646
2.22137
2.2164
2.21157
2.20689
2.20224
2.19767
2.19302
2.18832
2.18348
2.17838
1
1
1
1
1
1
1
1
1
1
1
1
1
1
1
1
1
1
1
1
1
1
1
1
1
1
1
1
1
1
1
1
1
1
1
1
1
1
1
1
1
1
1
1
1
1
1
1
1
1
1
1
1
1
1
1
1
1
1
1
1
1
1
1
1
1
1
1
1
1
1
1
1.00011
1.01949
1.3824
2.01203
2.22707
2.25721
2.25099
2.24729
2.24334
2.23914
2.23459
2.2298
2.22486
2.21976
2.21456
2.20926
2.204
2.19873
2.19352
2.18836
2.18319
2.17812
2.17295
2.16784
1
1
1
1
1
1
1
1
1
1
1
1
1
1
1
1
1
1
1
1
1
1
1
1
1
1
1
1
1
1
1
1
1
1
1
1
1
1
1
1
1
1
1
1
1
1
1
1
1
1
1
1
1
1
1
1
1
1
1
1
1
1
1
1
1
1
1
1
1
1
1
1
1
1.00007
1.01282
1.29772
1.90029
2.19414
2.23967
2.23507
2.23309
2.23048
2.22721
2.22336
2.21917
2.21468
2.20985
2.20473
2.19936
2.19375
2.18807
2.18222
2.17641
2.17059
2.16482
2.15921
1
1
1
1
1
1
1
1
1
1
1
1
1
1
1
1
1
1
1
1
1
1
1
1
1
1
1
1
1
1
1
1
1
1
1
1
1
1
1
1
1
1
1
1
1
1
1
1
1
1
1
1
1
1
1
1
1
1
1
1
1
1
1
1
1
1
1
1
1
1
1
1
1
1
1.00004
1.00737
1.2045
1.77517
2.14861
2.2183
2.21763
2.21725
2.21557
2.21351
2.21075
2.20741
2.20347
2.199
2.19407
2.18881
2.18325
2.17737
2.17139
2.1652
2.15912
2.15291
1
1
1
1
1
1
1
1
1
1
1
1
1
1
1
1
1
1
1
1
1
1
1
1
1
1
1
1
1
1
1
1
1
1
1
1
1
1
1
1
1
1
1
1
1
1
1
1
1
1
1
1
1
1
1
1
1
1
1
1
1
1
1
1
1
1
1
1
1
1
1
1
1
1
1
1.00002
1.00352
1.12524
1.64024
2.09683
2.18802
2.20139
2.19781
2.19784
2.19718
2.19561
2.19333
2.19037
2.18669
2.18239
2.17755
2.17231
2.16676
2.16088
2.15484
2.14865
1
1
1
1
1
1
1
1
1
1
1
1
1
1
1
1
1
1
1
1
1
1
1
1
1
1
1
1
1
1
1
1
1
1
1
1
1
1
1
1
1
1
1
1
1
1
1
1
1
1
1
1
1
1
1
1
1
1
1
1
1
1
1
1
1
1
1
1
1
1
1
1
1
1
1
1
1.00001
1.00145
1.06734
1.51005
2.0167
2.15724
2.18867
2.18075
2.18084
2.18053
2.17964
2.17788
2.17561
2.17275
2.16927
2.16524
2.1606
2.15548
2.15013
2.14451
1
1
1
1
1
1
1
1
1
1
1
1
1
1
1
1
1
1
1
1
1
1
1
1
1
1
1
1
1
1
1
1
1
1
1
1
1
1
1
1
1
1
1
1
1
1
1
1
1
1
1
1
1
1
1
1
1
1
1
1
1
1
1
1
1
1
1
1
1
1
1
1
1
1
1
1
1
1
1.00052
1.03256
1.37588
1.89827
2.12901
2.16892
2.16625
2.16458
2.1631
2.16205
2.16066
2.15888
2.15681
2.15418
2.15093
2.1474
2.14315
2.13847
1
1
1
1
1
1
1
1
1
1
1
1
1
1
1
1
1
1
1
1
1
1
1
1
1
1
1
1
1
1
1
1
1
1
1
1
1
1
1
1
1
1
1
1
1
1
1
1
1
1
1
1
1
1
1
1
1
1
1
1
1
1
1
1
1
1
1
1
1
1
1
1
1
1
1
1
1
1
1
1.00016
1.01402
1.24031
1.74771
2.08676
2.14468
2.15259
2.14786
2.14608
2.14504
2.14399
2.14263
2.14075
2.13886
2.13626
2.13334
2.13006
1
1
1
1
1
1
1
1
1
1
1
1
1
1
1
1
1
1
1
1
1
1
1
1
1
1
1
1
1
1
1
1
1
1
1
1
1
1
1
1
1
1
1
1
1
1
1
1
1
1
1
1
1
1
1
1
1
1
1
1
1
1
1
1
1
1
1
1
1
1
1
1
1
1
1
1
1
1
1
1
1.00004
1.00519
1.12652
1.58657
2.00899
2.11681
2.13941
2.13485
2.13261
2.13087
2.12894
2.12719
2.12525
2.12302
2.12076
2.11805
1
1
1
1
1
1
1
1
1
1
1
1
1
1
1
1
1
1
1
1
1
1
1
1
1
1
1
1
1
1
1
1
1
1
1
1
1
1
1
1
1
1
1
1
1
1
1
1
1
1
1
1
1
1
1
1
1
1
1
1
1
1
1
1
1
1
1
1
1
1
1
1
1
1
1
1
1
1
1
1
1
1.00001
1.00158
1.05516
1.42041
1.88898
2.09379
2.12551
2.12234
2.11755
2.11411
2.11288
2.1113
2.10942
2.10655
2.10286
1
1
1
1
1
1
1
1
1
1
1
1
1
1
1
1
1
1
1
1
1
1
1
1
1
1
1
1
1
1
1
1
1
1
1
1
1
1
1
1
1
1
1
1
1
1
1
1
1
1
1
1
1
1
1
1
1
1
1
1
1
1
1
1
1
1
1
1
1
1
1
1
1
1
1
1
1
1
1
1
1
1
1
1.00038
1.0203
1.25895
1.73504
2.04537
2.09881
2.10981
2.10372
2.10171
2.09962
2.09494
2.09665
2.10228
1
1
1
1
1
1
1
1
1
1
1
1
1
1
1
1
1
1
1
1
1
1
1
1
1
1
1
1
1
1
1
1
1
1
1
1
1
1
1
1
1
1
1
1
1
1
1
1
1
1
1
1
1
1
1
1
1
1
1
1
1
1
1
1
1
1
1
1
1
1
1
1
1
1
1
1
1
1
1
1
1
1
1
1
1.00008
1.00653
1.12876
1.55281
1.94331
2.07751
2.10134
2.09236
2.09119
2.10374
2.13405
2.18426
1
1
1
1
1
1
1
1
1
1
1
1
1
1
1
1
1
1
1
1
1
1
1
1
1
1
1
1
1
1
1
1
1
1
1
1
1
1
1
1
1
1
1
1
1
1
1
1
1
1
1
1
1
1
1
1
1
1
1
1
1
1
1
1
1
1
1
1
1
1
1
1
1
1
1
1
1
1
1
1
1
1
1
1
1
1.00002
1.00168
1.04884
1.35879
1.82023
2.02746
2.08256
2.16213
2.23075
2.28731
2.33257
1
1
1
1
1
1
1
1
1
1
1
1
1
1
1
1
1
1
1
1
1
1
1
1
1
1
1
1
1
1
1
1
1
1
1
1
1
1
1
1
1
1
1
1
1
1
1
1
1
1
1
1
1
1
1
1
1
1
1
1
1
1
1
1
1
1
1
1
1
1
1
1
1
1
1
1
1
1
1
1
1
1
1
1
1
1
1
1.00033
1.01438
1.20761
1.60579
2.19421
2.39608
2.41781
2.41745
2.41284
1
1
1
1
1
1
1
1
1
1
1
1
1
1
1
1
1
1
1
1
1
1
1
1
1
1
1
1
1
1
1
1
1
1
1
1
1
1
1
1
1
1
1
1
1
1
1
1
1
1
1
1
1
1
1
1
1
1
1
1
1
1
1
1
1
1
1
1
1
1
1
1
1
1
1
1
1
1
1
1
1
1
1
1
1
1
1
1
1.00004
1.0045
1.39556
2.52357
2.62729
2.5902
2.55078
2.51043
1
1
1
1
1
1
1
1
1
1
1
1
1
1
1
1
1
1
1
1
1
1
1
1
1
1
1
1
1
1
1
1
1
1
1
1
1
1
1
1
1
1
1
1
1
1
1
1
1
1
1
1
1
1
1
1
1
1
1
1
1
1
1
1
1
1
1
1
1
1
1
1
1
1
1
1
1
1
1
1
1
1
1
1
1
1
1
1
1
1.00002
1.59547
2.66508
2.68476
2.65855
2.63113
2.60057
1
1
1
1
1
1
1
1
1
1
1
1
1
1
1
1
1
1
1
1
1
1
1
1
1
1
1
1
1
1
1
1
1
1
1
1
1
1
1
1
1
1
1
1
1
1
1
1
1
1
1
1
1
1
1
1
1
1
1
1
1
1
1
1
1
1
1
1
1
1
1
1
1
1
1
1
1
1
1
1
1
1
1
1
1
1
1
1
1
1
1.42601
2.56988
2.71239
2.70149
2.69442
2.6808
1
1
1
1
1
1
1
1
1
1
1
1
1
1
1
1
1
1
1
1
1
1
1
1
1
1
1
1
1
1
1
1
1
1
1
1
1
1
1
1
1
1
1
1
1
1
1
1
1
1
1
1
1
1
1
1
1
1
1
1
1
1
1
1
1
1
1
1
1
1
1
1
1
1
1
1
1
1
1
1
1
1
1
1
1
1
1
1
1
1
1.18628
2.42161
2.70775
2.71053
2.70801
2.70572
1
1
1
1
1
1
1
1
1
1
1
1
1
1
1
1
1
1
1
1
1
1
1
1
1
1
1
1
1
1
1
1
1
1
1
1
1
1
1
1
1
1
1
1
1
1
1
1
1
1
1
1
1
1
1
1
1
1
1
1
1
1
1
1
1
1
1
1
1
1
1
1
1
1
1
1
1
1
1
1
1
1
1
1
1
1
1
1
1
1
1.00457
2.244
2.69722
2.71179
2.71041
2.709
1
1
1
1
1
1
1
1
1
1
1
1
1
1
1
1
1
1
1
1
1
1
1
1
1
1
1
1
1
1
1
1
1
1
1
1
1
1
1
1
1
1
1
1
1
1
1
1
1
1
1
1
1
1
1
1
1
1
1
1
1
1
1
1
1
1
1
1
1
1
1
1
1
1
1
1
1
1
1
1
1
1
1
1
1
1
1
1
1
1
1.00001
2.06112
2.6747
2.71102
2.70889
2.70792
1
1
1
1
1
1
1
1
1
1
1
1
1
1
1
1
1
1
1
1
1
1
1
1
1
1
1
1
1
1
1
1
1
1
1
1
1
1
1
1
1
1
1
1
1
1
1
1
1
1
1
1
1
1
1
1
1
1
1
1
1
1
1
1
1
1
1
1
1
1
1
1
1
1
1
1
1
1
1
1
1
1
1
1
1
1
1
1
1
1
1
1.86297
2.65081
2.70881
2.70599
2.70484
1
1
1
1
1
1
1
1
1
1
1
1
1
1
1
1
1
1
1
1
1
1
1
1
1
1
1
1
1
1
1
1
1
1
1
1
1
1
1
1
1
1
1
1
1
1
1
1
1
1
1
1
1
1
1
1
1
1
1
1
1
1
1
1
1
1
1
1
1
1
1
1
1
1
1
1
1
1
1
1
1
1
1
1
1
1
1
1
1
1
1
1.64831
2.60564
2.70626
2.70306
2.70137
1
1
1
1
1
1
1
1
1
1
1
1
1
1
1
1
1
1
1
1
1
1
1
1
1
1
1
1
1
1
1
1
1
1
1
1
1
1
1
1
1
1
1
1
1
1
1
1
1
1
1
1
1
1
1
1
1
1
1
1
1
1
1
1
1
1
1
1
1
1
1
1
1
1
1
1
1
1
1
1
1
1
1
1
1
1
1
1
1
1
1
1.43779
2.53736
2.70252
2.6992
2.69715
1
1
1
1
1
1
1
1
1
1
1
1
1
1
1
1
1
1
1
1
1
1
1
1
1
1
1
1
1
1
1
1
1
1
1
1
1
1
1
1
1
1
1
1
1
1
1
1
1
1
1
1
1
1
1
1
1
1
1
1
1
1
1
1
1
1
1
1
1
1
1
1
1
1
1
1
1
1
1
1
1
1
1
1
1
1
1
1
1
1
1
1.25214
2.45161
2.69748
2.69526
2.69339
1
1
1
1
1
1
1
1
1
1
1
1
1
1
1
1
1
1
1
1
1
1
1
1
1
1
1
1
1
1
1
1
1
1
1
1
1
1
1
1
1
1
1
1
1
1
1
1
1
1
1
1
1
1
1
1
1
1
1
1
1
1
1
1
1
1
1
1
1
1
1
1
1
1
1
1
1
1
1
1
1
1
1
1
1
1
1
1
1
1
1
1.06882
2.34326
2.68901
2.69535
2.69417
1
1
1
1
1
1
1
1
1
1
1
1
1
1
1
1
1
1
1
1
1
1
1
1
1
1
1
1
1
1
1
1
1
1
1
1
1
1
1
1
1
1
1
1
1
1
1
1
1
1
1
1
1
1
1
1
1
1
1
1
1
1
1
1
1
1
1
1
1
1
1
1
1
1
1
1
1
1
1
1
1
1
1
1
1
1
1
1
1
1
1
1.00071
2.23521
2.68173
2.70187
2.6986
1
1
1
1
1
1
1
1
1
1
1
1
1
1
1
1
1
1
1
1
1
1
1
1
1
1
1
1
1
1
1
1
1
1
1
1
1
1
1
1
1
1
1
1
1
1
1
1
1
1
1
1
1
1
1
1
1
1
1
1
1
1
1
1
1
1
1
1
1
1
1
1
1
1
1
1
1
1
1
1
1
1
1
1
1
1
1
1
1
1
1
1
2.12119
2.67955
2.70955
2.70531
1
1
1
1
1
1
1
1
1
1
1
1
1
1
1
1
1
1
1
1
1
1
1
1
1
1
1
1
1
1
1
1
1
1
1
1
1
1
1
1
1
1
1
1
1
1
1
1
1
1
1
1
1
1
1
1
1
1
1
1
1
1
1
1
1
1
1
1
1
1
1
1
1
1
1
1
1
1
1
1
1
1
1
1
1
1
1
1
1
1
1
1
2.01672
2.67794
2.71668
2.71161
1
1
1
1
1
1
1
1
1
1
1
1
1
1
1
1
1
1
1
1
1
1
1
1
1
1
1
1
1
1
1
1
1
1
1
1
1
1
1
1
1
1
1
1
1
1
1
1
1
1
1
1
1
1
1
1
1
1
1
1
1
1
1
1
1
1
1
1
1
1
1
1
1
1
1
1
1
1
1
1
1
1
1
1
1
1
1
1
1
1
1
1
1.92766
2.67331
2.72246
2.71661
1
1
1
1
1
1
1
1
1
1
1
1
1
1
1
1
1
1
1
1
1
1
1
1
1
1
1
1
1
1
1
1
1
1
1
1
1
1
1
1
1
1
1
1
1
1
1
1
1
1
1
1
1
1
1
1
1
1
1
1
1
1
1
1
1
1
1
1
1
1
1
1
1
1
1
1
1
1
1
1
1
1
1
1
1
1
1
1
1
1
1
1
1.85501
2.66535
2.72682
2.72061
1
1
1
1
1
1
1
1
1
1
1
1
1
1
1
1
1
1
1
1
1
1
1
1
1
1
1
1
1
1
1
1
1
1
1
1
1
1
1
1
1
1
1
1
1
1
1
1
1
1
1
1
1
1
1
1
1
1
1
1
1
1
1
1
1
1
1
1
1
1
1
1
1
1
1
1
1
1
1
1
1
1
1
1
1
1
1
1
1
1
1
1
1.80136
2.65694
2.72939
2.72288
1
1
1
1
1
1
1
1
1
1
1
1
1
1
1
1
1
1
1
1
1
1
1
1
1
1
1
1
1
1
1
1
1
1
1
1
1
1
1
1
1
1
1
1
1
1
1
1
1
1
1
1
1
1
1
1
1
1
1
1
1
1
1
1
1
1
1
1
1
1
1
1
1
1
1
1
1
1
1
1
1
1
1
1
1
1
1
1
1
1
1
1
1.76748
2.65068
2.73069
2.72416
1
1
1
1
1
1
1
1
1
1
1
1
1
1
1
1
1
1
1
1
1
1
1
1
1
1
1
1
1
1
1
1
1
1
1
1
1
1
1
1
1
1
1
1
1
1
1
1
1
1
1
1
1
1
1
1
1
1
1
1
1
1
1
1
1
1
1
1
1
1
1
1
1
1
1
1
1
1
1
1
1
1
1
1
1
1
1
1
1
1
1
1
1.74641
2.64574
2.73103
2.72535
1
1
1
1
1
1
1
1
1
1
1
1
1
1
1
1
1
1
1
1
1
1
1
1
1
1
1
1
1
1
1
1
1
1
1
1
1
1
1
1
1
1
1
1
1
1
1
1
1
1
1
1
1
1
1
1
1
1
1
1
1
1
1
1
1
1
1
1
1
1
1
1
1
1
1
1
1
1
1
1
1
1
1
1
1
1
1
1
1
1
1
1
1.73188
2.64364
2.73083
2.72601
1
1
1
1
1
1
1
1
1
1
1
1
1
1
1
1
1
1
1
1
1
1
1
1
1
1
1
1
1
1
1
1
1
1
1
1
1
1
1
1
1
1
1
1
1
1
1
1
1
1
1
1
1
1
1
1
1
1
1
1
1
1
1
1
1
1
1
1
1
1
1
1
1
1
1
1
1
1
1
1
1
1
1
1
1
1
1
1
1
1
1
1
1.7219
2.64145
2.72983
2.72569
1.50522
0.847184
0.460648
0.652455
0.923596
1.00938
1.08901
1.23892
1.2887
1.2615
1.23516
1.25283
1.31198
1.42506
1.5149
1.54686
1.55546
1.55875
1.56042
1.5618
1.56961
1.59359
1.60258
1.59904
1.589
1.58591
1.59074
1.601
1.61422
1.6282
1.63143
1.63069
1.63039
1.63103
1.63799
1.65267
1.65987
1.65933
1.65556
1.6499
1.64695
1.6468
1.64722
1.64736
1.6465
1.64348
1.63961
1.63869
1.6393
1.6434
1.64531
1.65244
2.16379
2.75172
2.74554
2.73167
2.72232
2.71216
2.70415
2.69938
2.69445
2.69059
2.68678
2.68235
2.67664
2.66896
2.65979
2.6511
2.64477
2.64057
2.63723
2.63251
2.62505
2.61602
2.60649
2.59728
2.58914
2.58218
2.57555
2.56824
2.56023
2.55238
2.54549
2.53982
2.53499
2.52989
2.52391
2.51771
2.51172
2.50626
2.50187
2.49803
2.49262
2.48552
2.47825
2.47046
2.46291
2.4569
2.45177
2.44767
2.44381
2.43857
2.43156
2.42322
2.41428
2.40536
2.39666
2.38856
2.38119
2.37459
2.36799
2.36137
2.35496
2.34901
2.34367
2.3395
2.33679
2.33432
2.33059
2.3265
2.32201
2.31665
2.31073
2.30497
2.2997
2.29477
2.28995
2.28501
2.2797
2.27376
2.26708
2.26051
2.25534
2.25114
2.24739