/*--------------------------------*- C++ -*----------------------------------*\
  =========                 |
  \\      /  F ield         | OpenFOAM: The Open Source CFD Toolbox
   \\    /   O peration     | Website:  https://openfoam.org
    \\  /    A nd           | Version:  7
     \\/     M anipulation  |
\*---------------------------------------------------------------------------*/
FoamFile
{
    version     2.0;
    format      ascii;
    class       volVectorField;
    location    "4.6";
    object      U;
}
// * * * * * * * * * * * * * * * * * * * * * * * * * * * * * * * * * * * * * //

dimensions      [0 1 -1 0 0 0 0];

internalField   nonuniform List<vector> 
19968
(
(3 3.63064e-17 0)
(3 1.65372e-16 0)
(3 3.03537e-16 0)
(3 4.72211e-16 0)
(3 -1.81886e-16 0)
(3 -5.24871e-16 0)
(3 -5.08587e-16 0)
(3 -6.32383e-16 0)
(3 -3.22972e-16 0)
(3 1.55127e-16 0)
(3 4.81511e-16 0)
(3 6.01439e-16 0)
(3 -1.01709e-16 0)
(3 -4.80296e-16 0)
(3 -6.29356e-16 0)
(3 -2.87685e-16 0)
(3 1.11211e-16 0)
(3 1.71526e-17 0)
(3 -2.36011e-17 0)
(3 -9.01652e-17 0)
(3 -3.89111e-16 0)
(3 -5.24297e-16 0)
(3 -6.72473e-16 0)
(3 -6.3653e-16 0)
(3 -2.46392e-16 0)
(3 4.29187e-17 0)
(3 -1.46172e-16 0)
(3 -7.53025e-16 0)
(3 -1.20137e-15 0)
(3 -5.36823e-16 0)
(3 -5.71118e-16 0)
(3 -7.49622e-16 0)
(3 -5.59936e-16 0)
(3 7.70711e-17 0)
(3 1.31853e-17 0)
(3 -2.88732e-16 0)
(3 -4.21667e-16 0)
(3 -5.67278e-16 0)
(3 -1.22261e-15 0)
(3 -2.00503e-15 0)
(3 -2.39704e-15 0)
(3 -2.44012e-15 0)
(3 -1.62634e-15 0)
(3 -1.37622e-15 0)
(3 -1.20679e-15 0)
(3 -5.18624e-16 0)
(3 1.24605e-15 0)
(3 9.13047e-16 0)
(2.82826 0.00152547 0)
(0.979013 0.00437125 0)
(0.759807 0.0080919 0)
(0.742983 0.00826045 0)
(0.72712 0.0079128 0)
(0.712591 0.008019 0)
(0.698121 0.00858418 0)
(0.683288 0.00940384 0)
(0.667698 0.00987838 0)
(0.651825 0.00944805 0)
(0.636448 0.00857625 0)
(0.621616 0.00827339 0)
(0.606842 0.00878149 0)
(0.591724 0.00960536 0)
(0.57643 0.00996809 0)
(0.561538 0.00972987 0)
(0.546994 0.00952408 0)
(0.532149 0.00956428 0)
(0.516668 0.00967129 0)
(0.500693 0.00979577 0)
(0.484594 0.00991094 0)
(0.468763 0.0100014 0)
(0.453318 0.0101143 0)
(0.438045 0.0102381 0)
(0.422614 0.0103398 0)
(0.406731 0.0104476 0)
(0.390272 0.0105634 0)
(0.37346 0.0106443 0)
(0.356723 0.0107078 0)
(0.340287 0.0108099 0)
(0.324058 0.0109414 0)
(0.30781 0.011062 0)
(0.291376 0.011168 0)
(0.274722 0.0112734 0)
(0.257936 0.0113887 0)
(0.241112 0.0115219 0)
(0.22424 0.011682 0)
(0.20719 0.0118715 0)
(0.189769 0.0120927 0)
(0.17184 0.0123566 0)
(0.153421 0.0126646 0)
(0.134635 0.013019 0)
(0.115532 0.0134043 0)
(0.0960441 0.0137855 0)
(0.0760048 0.0141567 0)
(0.0551128 0.0144692 0)
(0.0335225 0.0145543 0)
(0.0112323 0.0146266 0)
(3 -1.60602e-16 0)
(3 -8.15923e-17 0)
(3 2.34999e-16 0)
(3 6.86702e-16 0)
(3 2.85511e-16 0)
(3 -2.75631e-17 0)
(3 -4.0524e-16 0)
(3 -1.86913e-16 0)
(3 7.26409e-16 0)
(3 1.29426e-15 0)
(3 1.75947e-15 0)
(3 1.4204e-15 0)
(3 1.21193e-16 0)
(3 -6.86082e-16 0)
(3 -1.13339e-15 0)
(3 -9.26667e-16 0)
(3 -6.72664e-16 0)
(3 -8.14865e-16 0)
(3 -1.25076e-15 0)
(3 -1.64916e-15 0)
(3 -1.97129e-15 0)
(3 -1.81013e-15 0)
(3 -1.82279e-15 0)
(3 -2.33172e-15 0)
(3 -2.14913e-15 0)
(3 -1.71111e-15 0)
(3 -1.17226e-15 0)
(3 -1.34559e-15 0)
(3 -2.17676e-15 0)
(3 -1.97717e-15 0)
(3 -1.98041e-15 0)
(3 -2.14596e-15 0)
(3 -2.01559e-15 0)
(3 -1.32043e-15 0)
(3 -6.91835e-16 0)
(3 -5.73566e-16 0)
(3 -5.91714e-16 0)
(3 -8.12737e-16 0)
(3 -1.03223e-15 0)
(3 -1.54708e-15 0)
(3 -1.6309e-15 0)
(3 -1.31461e-15 0)
(3 -9.63144e-16 0)
(3 -4.78521e-16 0)
(3 -1.28277e-16 0)
(3 3.48169e-16 0)
(3 9.45201e-16 0)
(3 -3.44869e-16 0)
(2.83891 0.00930544 0)
(0.982326 0.0231448 0)
(0.756154 0.0287268 0)
(0.738919 0.0255677 0)
(0.722981 0.0240265 0)
(0.708325 0.0240968 0)
(0.693827 0.025599 0)
(0.679232 0.0278385 0)
(0.664059 0.0291787 0)
(0.648598 0.0283071 0)
(0.633301 0.0262577 0)
(0.618092 0.0254278 0)
(0.602977 0.0267402 0)
(0.587771 0.0289388 0)
(0.572548 0.0298791 0)
(0.557814 0.0292876 0)
(0.543309 0.0288459 0)
(0.528404 0.0290821 0)
(0.512811 0.0294605 0)
(0.49672 0.0298344 0)
(0.480539 0.0301285 0)
(0.464672 0.0303339 0)
(0.449208 0.0306538 0)
(0.433883 0.0310518 0)
(0.418349 0.0313527 0)
(0.402358 0.031616 0)
(0.385836 0.0319099 0)
(0.369006 0.0321577 0)
(0.352263 0.0323947 0)
(0.335814 0.03275 0)
(0.319572 0.0331769 0)
(0.303327 0.0335532 0)
(0.286926 0.0338759 0)
(0.270348 0.0341984 0)
(0.253681 0.0345592 0)
(0.237021 0.0349818 0)
(0.220363 0.0354913 0)
(0.203585 0.0360947 0)
(0.186501 0.0368008 0)
(0.168978 0.0376463 0)
(0.151019 0.0386305 0)
(0.132725 0.0397482 0)
(0.114125 0.0409499 0)
(0.0951221 0.0421466 0)
(0.0755232 0.0433403 0)
(0.0549699 0.0444012 0)
(0.0335694 0.0448287 0)
(0.0113316 0.0452934 0)
(3 -1.9142e-16 0)
(3 6.98573e-18 0)
(3 1.17911e-16 0)
(3 6.27423e-16 0)
(3 7.46432e-16 0)
(3 5.6006e-16 0)
(3 -2.34478e-17 0)
(3 -2.63049e-16 0)
(3 -3.49256e-16 0)
(3 -4.51452e-16 0)
(3 -7.5793e-17 0)
(3 -8.67242e-16 0)
(3 -1.35498e-15 0)
(3 -1.80814e-15 0)
(3 -1.99477e-15 0)
(3 -2.31428e-15 0)
(3 -2.3229e-15 0)
(3 -1.86443e-15 0)
(3 -1.69171e-15 0)
(3 -1.73457e-15 0)
(3 -1.49914e-15 0)
(3 -1.13571e-15 0)
(3 -1.67446e-15 0)
(3 -3.52627e-15 0)
(3 -3.42915e-15 0)
(3 -3.54089e-15 0)
(3 -3.2318e-15 0)
(3 -3.46959e-15 0)
(3 -3.51029e-15 0)
(3 -3.72407e-15 0)
(3 -3.66721e-15 0)
(3 -4.07541e-15 0)
(3 -3.82515e-15 0)
(3 -3.74318e-15 0)
(3 -3.31166e-15 0)
(3 -2.13531e-15 0)
(3 -8.32554e-16 0)
(3 -7.09648e-16 0)
(3 -1.87916e-16 0)
(3 5.1766e-16 0)
(3 1.96241e-15 0)
(3 3.02946e-15 0)
(3 2.60114e-15 0)
(3 2.26222e-15 0)
(3 1.4308e-15 0)
(3 1.32191e-15 0)
(3 1.38723e-15 0)
(3 -3.52695e-16 0)
(2.86627 0.0158857 0)
(0.996532 0.0437821 0)
(0.759339 0.0483225 0)
(0.74315 0.0438981 0)
(0.72663 0.0419764 0)
(0.711129 0.0421584 0)
(0.695823 0.0443188 0)
(0.680877 0.0474416 0)
(0.665715 0.0491646 0)
(0.65043 0.0479246 0)
(0.635044 0.0452372 0)
(0.619263 0.0442643 0)
(0.603576 0.0463422 0)
(0.588039 0.0496172 0)
(0.572632 0.0508665 0)
(0.557865 0.0498896 0)
(0.543257 0.0493244 0)
(0.528213 0.0498962 0)
(0.512444 0.0506888 0)
(0.496144 0.0514073 0)
(0.479738 0.0518807 0)
(0.463647 0.0521209 0)
(0.447959 0.0525801 0)
(0.432383 0.0532721 0)
(0.416557 0.0538408 0)
(0.400278 0.0543037 0)
(0.383516 0.0547821 0)
(0.36647 0.0551792 0)
(0.349471 0.0555417 0)
(0.33271 0.056077 0)
(0.316125 0.0567266 0)
(0.299544 0.0573012 0)
(0.282841 0.0577895 0)
(0.26601 0.0582661 0)
(0.249141 0.0587869 0)
(0.232334 0.0593914 0)
(0.215598 0.060128 0)
(0.198837 0.0610184 0)
(0.181894 0.062086 0)
(0.164654 0.0634022 0)
(0.147108 0.0649675 0)
(0.129323 0.0667748 0)
(0.111299 0.0687597 0)
(0.092893 0.0707996 0)
(0.0738894 0.0729322 0)
(0.0539105 0.074968 0)
(0.0329871 0.0760082 0)
(0.0112054 0.0771981 0)
(3 9.10369e-17 0)
(3 2.9455e-17 0)
(3 -9.85089e-17 0)
(3 -1.72825e-16 0)
(3 -2.36188e-16 0)
(3 -4.78656e-16 0)
(3 -9.05595e-16 0)
(3 -1.84003e-15 0)
(3 -2.62823e-15 0)
(3 -3.14072e-15 0)
(3 -3.3328e-15 0)
(3 -2.43311e-15 0)
(3 -1.10405e-15 0)
(3 -8.26847e-16 0)
(3 -4.23461e-16 0)
(3 2.02037e-16 0)
(3 2.09985e-16 0)
(3 4.28904e-16 0)
(3 3.16544e-16 0)
(3 6.55043e-16 0)
(3 5.3211e-16 0)
(3 -4.40135e-16 0)
(3 -1.43099e-15 0)
(3 -1.45904e-15 0)
(3 -1.25523e-15 0)
(3 -1.45489e-15 0)
(3 -1.78258e-15 0)
(3 -1.09893e-15 0)
(3 -8.00791e-16 0)
(3 -1.16097e-15 0)
(3 -1.54455e-15 0)
(3 -1.116e-15 0)
(3 -9.41171e-16 0)
(3 -1.15344e-15 0)
(3 -1.51402e-15 0)
(3 -1.45472e-15 0)
(3 -1.16253e-15 0)
(3 -2.08806e-16 0)
(3 4.99926e-16 0)
(3 8.07089e-16 0)
(3 1.0973e-15 0)
(3 1.19783e-15 0)
(3 1.36594e-15 0)
(3 1.382e-15 0)
(3 1.29911e-15 0)
(3 1.59375e-15 0)
(3 2.36692e-15 0)
(3 2.02297e-15 0)
(2.90373 0.0211054 0)
(1.01766 0.0664755 0)
(0.761044 0.0658171 0)
(0.746658 0.0615533 0)
(0.730671 0.060713 0)
(0.715127 0.0615722 0)
(0.69942 0.0642422 0)
(0.684292 0.0676255 0)
(0.669331 0.0692426 0)
(0.654422 0.0678116 0)
(0.639157 0.0650849 0)
(0.623114 0.0643538 0)
(0.607118 0.067131 0)
(0.591434 0.0711681 0)
(0.575953 0.0725256 0)
(0.561188 0.0712008 0)
(0.546502 0.07062 0)
(0.531407 0.0716547 0)
(0.515577 0.0730437 0)
(0.49917 0.0742817 0)
(0.4826 0.0750274 0)
(0.466304 0.0752964 0)
(0.450386 0.0758852 0)
(0.434548 0.0769557 0)
(0.418397 0.077927 0)
(0.401768 0.0786854 0)
(0.384682 0.0794077 0)
(0.367302 0.0800154 0)
(0.349883 0.0805578 0)
(0.332592 0.0813059 0)
(0.315394 0.0822025 0)
(0.298156 0.0829979 0)
(0.280793 0.0836584 0)
(0.263321 0.0842647 0)
(0.24584 0.0848829 0)
(0.228454 0.0855653 0)
(0.211188 0.0863811 0)
(0.193979 0.0873687 0)
(0.176726 0.0885733 0)
(0.159363 0.0901216 0)
(0.141896 0.0920381 0)
(0.124387 0.0943357 0)
(0.106818 0.0969582 0)
(0.0890087 0.0997731 0)
(0.0707448 0.102858 0)
(0.0516522 0.106012 0)
(0.0315953 0.107862 0)
(0.01081 0.110032 0)
(3 5.56136e-17 0)
(3 -2.19842e-16 0)
(3 -4.9505e-16 0)
(3 -5.18675e-16 0)
(3 -3.10611e-16 0)
(3 -3.5751e-16 0)
(3 -5.45601e-16 0)
(3 -1.35877e-15 0)
(3 -1.95079e-15 0)
(3 -1.99916e-15 0)
(3 -1.51837e-15 0)
(3 -1.10451e-15 0)
(3 -4.1204e-16 0)
(3 3.91782e-16 0)
(3 1.3828e-15 0)
(3 2.26968e-15 0)
(3 2.10821e-15 0)
(3 1.08286e-15 0)
(3 -3.42991e-16 0)
(3 -4.70238e-16 0)
(3 -7.79566e-16 0)
(3 -1.63887e-15 0)
(3 -1.76148e-15 0)
(3 -1.63421e-15 0)
(3 -1.72433e-15 0)
(3 -1.73297e-15 0)
(3 -1.57221e-15 0)
(3 -1.21377e-15 0)
(3 -1.13313e-15 0)
(3 -1.7017e-15 0)
(3 -1.62367e-15 0)
(3 -7.41856e-16 0)
(3 -7.5177e-16 0)
(3 -2.00179e-16 0)
(3 2.84441e-16 0)
(3 1.93953e-16 0)
(3 -1.98489e-16 0)
(3 -4.56852e-16 0)
(3 -2.16206e-16 0)
(3 -7.78793e-16 0)
(3 -1.4786e-15 0)
(3 -8.34414e-16 0)
(3 -6.99846e-16 0)
(3 -1.08695e-15 0)
(3 4.9069e-17 0)
(3 6.40273e-16 0)
(3 9.34867e-16 0)
(3 1.27867e-15 0)
(2.9482 0.0237408 0)
(1.04433 0.09586 0)
(0.766113 0.0820457 0)
(0.752332 0.078606 0)
(0.736122 0.0802547 0)
(0.719939 0.0826244 0)
(0.703594 0.0857465 0)
(0.688212 0.0885942 0)
(0.673699 0.089478 0)
(0.659561 0.087889 0)
(0.644857 0.0855788 0)
(0.629081 0.0855107 0)
(0.613196 0.0890282 0)
(0.597552 0.093544 0)
(0.58207 0.0949182 0)
(0.567298 0.0933327 0)
(0.552573 0.0927741 0)
(0.537582 0.0943037 0)
(0.52195 0.0964285 0)
(0.505733 0.0983825 0)
(0.489271 0.0995519 0)
(0.473011 0.0998736 0)
(0.457091 0.10057 0)
(0.441231 0.102097 0)
(0.424983 0.103641 0)
(0.408193 0.104849 0)
(0.390937 0.105949 0)
(0.37334 0.106931 0)
(0.355569 0.107823 0)
(0.33775 0.108922 0)
(0.319871 0.110187 0)
(0.301839 0.111324 0)
(0.283611 0.112268 0)
(0.265236 0.11309 0)
(0.246826 0.113856 0)
(0.228484 0.114617 0)
(0.21025 0.115448 0)
(0.192093 0.116392 0)
(0.17397 0.117506 0)
(0.155878 0.11897 0)
(0.137866 0.120842 0)
(0.120005 0.123176 0)
(0.102302 0.12596 0)
(0.0846206 0.129141 0)
(0.0667844 0.132822 0)
(0.0485503 0.136968 0)
(0.0295364 0.139631 0)
(0.0101598 0.142839 0)
(3 2.46326e-16 0)
(3 4.20115e-16 0)
(3 5.95792e-16 0)
(3 1.23232e-15 0)
(3 1.44058e-15 0)
(3 1.50401e-15 0)
(3 1.07121e-15 0)
(3 8.10166e-16 0)
(3 7.11605e-16 0)
(3 5.83025e-16 0)
(3 5.51799e-16 0)
(3 -2.89753e-16 0)
(3 -6.35147e-16 0)
(3 -3.58903e-16 0)
(3 -1.57213e-16 0)
(3 -6.92996e-16 0)
(3 -7.89023e-16 0)
(3 -1.20344e-15 0)
(3 -1.36289e-15 0)
(3 -1.753e-15 0)
(3 -1.9514e-15 0)
(3 -1.65767e-15 0)
(3 -1.56004e-15 0)
(3 -1.524e-15 0)
(3 -1.41423e-15 0)
(3 -1.57435e-15 0)
(3 -1.81862e-15 0)
(3 -2.17664e-15 0)
(3 -1.66038e-15 0)
(3 -1.18131e-15 0)
(3 -1.09435e-15 0)
(3 -1.14052e-15 0)
(3 -1.40362e-15 0)
(3 -1.5855e-15 0)
(3 -1.39438e-15 0)
(3 -7.07737e-16 0)
(3 -4.33741e-16 0)
(3 -3.14954e-16 0)
(3 7.27042e-17 0)
(3 1.0103e-16 0)
(3 2.17881e-16 0)
(3 2.57777e-16 0)
(3 2.56286e-16 0)
(3 5.65557e-16 0)
(3 3.1287e-16 0)
(3 2.47223e-16 0)
(3 -3.74623e-16 0)
(3 -2.85075e-16 0)
(3.00053 0.00311572 0)
(1.11649 0.114107 0)
(0.777231 0.0923067 0)
(0.760881 0.0969463 0)
(0.744675 0.101776 0)
(0.727392 0.105751 0)
(0.710428 0.108692 0)
(0.694851 0.109825 0)
(0.680834 0.109101 0)
(0.667495 0.107201 0)
(0.653543 0.105641 0)
(0.638477 0.106606 0)
(0.62318 0.11096 0)
(0.607878 0.115897 0)
(0.59257 0.117303 0)
(0.577917 0.11547 0)
(0.563311 0.114741 0)
(0.548611 0.116531 0)
(0.533425 0.119353 0)
(0.517649 0.122187 0)
(0.501487 0.124007 0)
(0.4854 0.124439 0)
(0.469592 0.125162 0)
(0.453851 0.127149 0)
(0.437694 0.129428 0)
(0.420943 0.131263 0)
(0.403742 0.132895 0)
(0.386196 0.134441 0)
(0.368371 0.135897 0)
(0.350324 0.137551 0)
(0.332033 0.139397 0)
(0.313423 0.141125 0)
(0.294488 0.142624 0)
(0.27531 0.143939 0)
(0.256012 0.145122 0)
(0.236695 0.14621 0)
(0.217403 0.147268 0)
(0.198129 0.148335 0)
(0.178872 0.149458 0)
(0.159672 0.150855 0)
(0.140597 0.152594 0)
(0.121719 0.154752 0)
(0.103064 0.157337 0)
(0.0845795 0.16042 0)
(0.0661484 0.164097 0)
(0.0477611 0.168743 0)
(0.0288303 0.171883 0)
(0.00995858 0.175869 0)
(3 7.78982e-17 0)
(3 6.82472e-16 0)
(3 8.71161e-16 0)
(3 9.51823e-16 0)
(3 9.70292e-16 0)
(3 1.02772e-15 0)
(3 9.51449e-16 0)
(3 1.48825e-15 0)
(3 2.711e-15 0)
(3 2.83278e-15 0)
(3 2.16927e-15 0)
(3 6.97995e-16 0)
(3 1.01389e-16 0)
(3 -1.06201e-15 0)
(3 -1.53637e-15 0)
(3 -2.21695e-15 0)
(3 -2.4903e-15 0)
(3 -2.05971e-15 0)
(3 -1.47083e-15 0)
(3 -1.67842e-15 0)
(3 -1.17038e-15 0)
(3 -6.84688e-16 0)
(3 -8.81179e-16 0)
(3 -1.14924e-15 0)
(3 -1.19669e-15 0)
(3 -1.27073e-15 0)
(3 -1.24635e-15 0)
(3 -7.72287e-16 0)
(3 -6.60899e-16 0)
(3 -4.6244e-16 0)
(3 -3.37712e-17 0)
(3 2.41028e-16 0)
(3 -5.69312e-16 0)
(3 -1.08892e-15 0)
(3 -1.61982e-15 0)
(3 -1.49489e-15 0)
(3 -1.12804e-15 0)
(3 1.81559e-16 0)
(3 6.21199e-16 0)
(3 5.59866e-16 0)
(3 2.31792e-16 0)
(3 -4.51637e-16 0)
(3 2.35272e-17 0)
(3 2.09596e-16 0)
(3 -7.92429e-17 0)
(3 -6.25274e-16 0)
(3 -4.14484e-16 0)
(3 -6.15893e-16 0)
(3.00003 8.54492e-06 0)
(1.24032 0.137131 0)
(0.778687 0.111315 0)
(0.755253 0.118279 0)
(0.740022 0.12617 0)
(0.722481 0.130898 0)
(0.705926 0.132847 0)
(0.690901 0.131834 0)
(0.677394 0.129493 0)
(0.664294 0.127484 0)
(0.650474 0.127015 0)
(0.635634 0.129402 0)
(0.620594 0.134868 0)
(0.605519 0.14038 0)
(0.590421 0.141919 0)
(0.576002 0.139881 0)
(0.561672 0.138776 0)
(0.547407 0.140568 0)
(0.532909 0.144045 0)
(0.51795 0.147961 0)
(0.502515 0.15077 0)
(0.486984 0.151553 0)
(0.47162 0.152353 0)
(0.456304 0.154826 0)
(0.440578 0.15797 0)
(0.424212 0.16058 0)
(0.407448 0.162845 0)
(0.390409 0.165064 0)
(0.373067 0.167208 0)
(0.355396 0.16949 0)
(0.337355 0.171944 0)
(0.318886 0.174272 0)
(0.300009 0.176332 0)
(0.280818 0.17814 0)
(0.261424 0.179734 0)
(0.241911 0.181135 0)
(0.222324 0.182399 0)
(0.202682 0.183562 0)
(0.183009 0.184659 0)
(0.163365 0.185948 0)
(0.143801 0.187497 0)
(0.124355 0.189398 0)
(0.105041 0.191628 0)
(0.0858688 0.194411 0)
(0.0667725 0.197746 0)
(0.0479776 0.202572 0)
(0.0287845 0.205942 0)
(0.00998455 0.210493 0)
(3 -2.9912e-16 0)
(3 -5.77245e-16 0)
(3 -7.77463e-16 0)
(3 -9.33361e-16 0)
(3 -5.36264e-16 0)
(3 -4.71517e-16 0)
(3 -8.64458e-17 0)
(3 9.21881e-16 0)
(3 1.32282e-15 0)
(3 4.21913e-16 0)
(3 1.83409e-16 0)
(3 -2.28804e-16 0)
(3 -4.5697e-16 0)
(3 -5.44837e-16 0)
(3 -4.37858e-16 0)
(3 -4.58733e-16 0)
(3 -5.34409e-16 0)
(3 -5.76215e-16 0)
(3 -7.44221e-16 0)
(3 -8.78111e-16 0)
(3 -6.02521e-16 0)
(3 -7.00551e-16 0)
(3 -7.88871e-16 0)
(3 -1.42602e-15 0)
(3 -1.98241e-15 0)
(3 -1.9808e-15 0)
(3 -1.16946e-15 0)
(3 -3.93027e-16 0)
(3 -9.43864e-17 0)
(3 -8.92453e-16 0)
(3 -1.16989e-15 0)
(3 -1.59109e-15 0)
(3 -3.11407e-15 0)
(3 -3.44145e-15 0)
(3 -3.10608e-15 0)
(3 -3.29353e-15 0)
(3 -3.45141e-15 0)
(3 -1.86444e-15 0)
(3 -1.51948e-15 0)
(3 -1.46736e-15 0)
(3 -8.02067e-16 0)
(3 1.83078e-16 0)
(3 -7.2487e-17 0)
(3 -4.65559e-16 0)
(3 -6.52397e-16 0)
(3 -1.06178e-15 0)
(3 -7.91421e-16 0)
(3 -1.1497e-15 0)
(3 1.91191e-08 0)
(1.45472 0.164609 0)
(0.793681 0.135869 0)
(0.7565 0.142001 0)
(0.74119 0.152027 0)
(0.72288 0.156944 0)
(0.706243 0.157646 0)
(0.691159 0.154858 0)
(0.677265 0.15112 0)
(0.663633 0.148856 0)
(0.649586 0.149137 0)
(0.63497 0.152571 0)
(0.620444 0.158742 0)
(0.605963 0.164418 0)
(0.59139 0.16603 0)
(0.577297 0.163907 0)
(0.563217 0.162235 0)
(0.54925 0.163637 0)
(0.535386 0.167488 0)
(0.52135 0.172451 0)
(0.506834 0.176443 0)
(0.492056 0.177747 0)
(0.477386 0.178522 0)
(0.462777 0.181315 0)
(0.447837 0.185336 0)
(0.43218 0.18887 0)
(0.416119 0.191876 0)
(0.399841 0.19487 0)
(0.383234 0.197857 0)
(0.366164 0.200949 0)
(0.348548 0.204223 0)
(0.330324 0.207432 0)
(0.311518 0.210402 0)
(0.292226 0.213098 0)
(0.272555 0.215522 0)
(0.252594 0.21766 0)
(0.232422 0.219541 0)
(0.212103 0.221185 0)
(0.191699 0.222589 0)
(0.171275 0.224025 0)
(0.150862 0.225568 0)
(0.130464 0.227335 0)
(0.110083 0.22924 0)
(0.089786 0.231695 0)
(0.069548 0.234496 0)
(0.0497794 0.239266 0)
(0.0297393 0.242668 0)
(0.0103234 0.247602 0)
(3 -9.66637e-18 0)
(3 -4.59007e-16 0)
(3 -5.90149e-16 0)
(3 -5.22571e-16 0)
(3 -5.4702e-16 0)
(3 -6.48439e-16 0)
(3 -3.73562e-16 0)
(3 -3.97996e-16 0)
(3 -3.75572e-16 0)
(3 -2.32297e-16 0)
(3 -2.93185e-16 0)
(3 -1.02849e-16 0)
(3 3.24885e-16 0)
(3 3.52373e-16 0)
(3 2.82579e-16 0)
(3 5.78535e-16 0)
(3 -1.09639e-16 0)
(3 -4.67618e-16 0)
(3 -6.90558e-16 0)
(3 -5.53396e-16 0)
(3 -5.3954e-16 0)
(3 -8.86472e-16 0)
(3 -7.31132e-16 0)
(3 -5.99141e-16 0)
(3 -8.18471e-16 0)
(3 -1.10644e-15 0)
(3 -1.51211e-15 0)
(3 -1.43819e-15 0)
(3 -5.40477e-16 0)
(3 -9.89526e-16 0)
(3 -2.10102e-15 0)
(3 -2.45761e-15 0)
(3 -2.29434e-15 0)
(3 -2.28713e-15 0)
(3 -1.6366e-15 0)
(3 -1.5692e-15 0)
(3 -1.58096e-15 0)
(3 -2.03176e-15 0)
(3 -1.90415e-15 0)
(3 -1.22353e-15 0)
(3 -1.01363e-16 0)
(3 7.92976e-17 0)
(3 -8.88838e-16 0)
(3 -1.08148e-15 0)
(3 -7.79174e-16 0)
(3 -3.41708e-17 0)
(3 2.91395e-16 0)
(3 6.46419e-17 0)
(3 3.86519e-11 0)
(1.77924 0.183979 0)
(0.820857 0.16428 0)
(0.762506 0.169923 0)
(0.746537 0.180504 0)
(0.727687 0.184263 0)
(0.710985 0.18354 0)
(0.695346 0.179871 0)
(0.680366 0.175487 0)
(0.665504 0.172854 0)
(0.650563 0.173262 0)
(0.635624 0.177072 0)
(0.621167 0.183408 0)
(0.606918 0.18915 0)
(0.592422 0.191251 0)
(0.577969 0.18961 0)
(0.563435 0.187453 0)
(0.548988 0.187976 0)
(0.534979 0.191651 0)
(0.521312 0.197397 0)
(0.507371 0.20262 0)
(0.493044 0.204654 0)
(0.478825 0.2053 0)
(0.464753 0.208208 0)
(0.450627 0.213114 0)
(0.435806 0.217791 0)
(0.420586 0.221698 0)
(0.405297 0.225563 0)
(0.389808 0.229544 0)
(0.373865 0.233641 0)
(0.357304 0.237929 0)
(0.340004 0.242234 0)
(0.321941 0.246363 0)
(0.303182 0.250213 0)
(0.283836 0.253737 0)
(0.264017 0.256883 0)
(0.243832 0.259655 0)
(0.223362 0.262056 0)
(0.202646 0.264037 0)
(0.181717 0.265866 0)
(0.160561 0.267622 0)
(0.139171 0.269464 0)
(0.117564 0.271201 0)
(0.0958904 0.273451 0)
(0.0741792 0.27567 0)
(0.0529852 0.280254 0)
(0.0315943 0.283559 0)
(0.0109569 0.288755 0)
(3 3.34849e-17 0)
(3 -7.61115e-18 0)
(3 -2.82463e-16 0)
(3 -5.11246e-16 0)
(3 -1.02359e-15 0)
(3 -6.21399e-16 0)
(3 2.57142e-16 0)
(3 4.42891e-16 0)
(3 4.60398e-16 0)
(3 5.98719e-16 0)
(3 6.88408e-16 0)
(3 1.20759e-15 0)
(3 1.67274e-15 0)
(3 1.11756e-15 0)
(3 -9.27138e-17 0)
(3 -1.31337e-16 0)
(3 -4.90707e-16 0)
(3 -8.64254e-16 0)
(3 -1.19326e-15 0)
(3 -1.84435e-15 0)
(3 -1.87408e-15 0)
(3 -1.65612e-15 0)
(3 -1.57735e-15 0)
(3 -8.91341e-16 0)
(3 -4.07664e-16 0)
(3 -1.77148e-17 0)
(3 -1.63015e-15 0)
(3 -2.36752e-15 0)
(3 -2.5802e-15 0)
(3 -1.68313e-15 0)
(3 -1.20327e-15 0)
(3 -1.29243e-15 0)
(3 -1.52089e-15 0)
(3 -1.58776e-15 0)
(3 -7.09211e-16 0)
(3 8.54355e-16 0)
(3 1.05703e-15 0)
(3 4.55983e-16 0)
(3 -3.84616e-16 0)
(3 -4.07761e-16 0)
(3 -2.44198e-16 0)
(3 -7.70826e-16 0)
(3 -1.22169e-15 0)
(3 -1.82567e-15 0)
(3 -1.76688e-15 0)
(3 -1.32761e-15 0)
(3 -2.94784e-16 0)
(3 7.81721e-16 0)
(3 7.74326e-14 0)
(2.21231 0.185406 0)
(0.866175 0.203012 0)
(0.757116 0.198189 0)
(0.744886 0.2098 0)
(0.730461 0.212682 0)
(0.716752 0.211964 0)
(0.702352 0.208679 0)
(0.687399 0.204391 0)
(0.671969 0.2013 0)
(0.656432 0.201102 0)
(0.641275 0.204341 0)
(0.626936 0.210101 0)
(0.613002 0.215846 0)
(0.598603 0.21897 0)
(0.583615 0.218554 0)
(0.568327 0.216337 0)
(0.553038 0.215626 0)
(0.538295 0.218336 0)
(0.524414 0.224186 0)
(0.510586 0.230354 0)
(0.49615 0.233217 0)
(0.481713 0.23351 0)
(0.46738 0.235898 0)
(0.453309 0.241178 0)
(0.438716 0.246825 0)
(0.423713 0.251462 0)
(0.408862 0.255936 0)
(0.394156 0.260766 0)
(0.379264 0.265894 0)
(0.363894 0.271311 0)
(0.347796 0.276898 0)
(0.330815 0.282464 0)
(0.312937 0.287852 0)
(0.294265 0.29296 0)
(0.274935 0.297698 0)
(0.255073 0.302013 0)
(0.234745 0.305856 0)
(0.213931 0.30907 0)
(0.19262 0.311865 0)
(0.17077 0.314297 0)
(0.148392 0.316594 0)
(0.125538 0.318454 0)
(0.102447 0.320706 0)
(0.0792133 0.322371 0)
(0.0564919 0.326634 0)
(0.0336558 0.329689 0)
(0.0116272 0.335036 0)
(3 2.12117e-17 0)
(3 1.36736e-16 0)
(3 1.65691e-16 0)
(3 1.12583e-16 0)
(3 1.38163e-16 0)
(3 6.38172e-16 0)
(3 6.62985e-16 0)
(3 7.77822e-16 0)
(3 8.95318e-16 0)
(3 5.13765e-16 0)
(3 4.21682e-16 0)
(3 2.42704e-16 0)
(3 1.72078e-16 0)
(3 8.66043e-17 0)
(3 -3.10687e-16 0)
(3 -1.36188e-15 0)
(3 -1.15773e-15 0)
(3 -8.40101e-16 0)
(3 -1.15302e-15 0)
(3 -1.64633e-15 0)
(3 -2.16378e-15 0)
(3 -2.15324e-15 0)
(3 -2.33849e-15 0)
(3 -2.54762e-15 0)
(3 -1.55742e-15 0)
(3 -1.10244e-15 0)
(3 -8.2525e-16 0)
(3 -6.69925e-16 0)
(3 -5.79389e-16 0)
(3 8.71954e-18 0)
(3 2.48242e-16 0)
(3 8.75245e-16 0)
(3 1.21823e-15 0)
(3 1.23818e-15 0)
(3 3.4971e-16 0)
(3 -6.96948e-17 0)
(3 2.99562e-16 0)
(3 4.9005e-16 0)
(3 4.96503e-16 0)
(3 2.76974e-16 0)
(3 -2.37128e-16 0)
(3 -3.20132e-16 0)
(3 -6.82255e-16 0)
(3 -1.00764e-15 0)
(3 -1.50921e-15 0)
(3 -1.91337e-15 0)
(3 -1.46742e-15 0)
(3 -1.13799e-15 0)
(3 -1.20479e-15 0)
(2.72418 0.158932 0)
(0.972621 0.248981 0)
(0.782309 0.230427 0)
(0.771895 0.227114 0)
(0.757152 0.230849 0)
(0.743454 0.233029 0)
(0.728415 0.233223 0)
(0.712515 0.231431 0)
(0.695965 0.229356 0)
(0.67923 0.22892 0)
(0.662942 0.231263 0)
(0.647617 0.236178 0)
(0.63311 0.242299 0)
(0.618417 0.247407 0)
(0.602815 0.249413 0)
(0.586646 0.248236 0)
(0.570354 0.246626 0)
(0.554387 0.248016 0)
(0.539536 0.25352 0)
(0.52532 0.260654 0)
(0.510297 0.265 0)
(0.494922 0.265489 0)
(0.479463 0.26711 0)
(0.464383 0.272266 0)
(0.449094 0.278638 0)
(0.433276 0.283843 0)
(0.417665 0.288524 0)
(0.402537 0.293728 0)
(0.387608 0.299528 0)
(0.372473 0.305801 0)
(0.356788 0.312449 0)
(0.340315 0.319343 0)
(0.323003 0.3263 0)
(0.304989 0.333171 0)
(0.286438 0.339803 0)
(0.267438 0.346052 0)
(0.247944 0.351802 0)
(0.22774 0.356781 0)
(0.206659 0.361121 0)
(0.184545 0.364859 0)
(0.161393 0.368319 0)
(0.137242 0.371078 0)
(0.112438 0.374048 0)
(0.0871426 0.375698 0)
(0.0621709 0.379821 0)
(0.0370501 0.382605 0)
(0.0127625 0.388123 0)
(3 -6.15087e-17 0)
(3 -1.75133e-18 0)
(3 3.67046e-16 0)
(3 4.46899e-16 0)
(3 9.59789e-16 0)
(3 9.04593e-16 0)
(3 3.88203e-16 0)
(3 -2.38313e-16 0)
(3 -4.80183e-16 0)
(3 -4.42752e-16 0)
(3 -4.58375e-16 0)
(3 -2.39917e-16 0)
(3 -3.4562e-16 0)
(3 -9.60855e-17 0)
(3 4.94683e-17 0)
(3 -3.89062e-16 0)
(3 -1.12002e-15 0)
(3 -1.32591e-15 0)
(3 -1.49768e-15 0)
(3 -1.36668e-15 0)
(3 -1.51405e-15 0)
(3 -1.21228e-15 0)
(3 -7.65737e-16 0)
(3 -6.92132e-16 0)
(3 -1.07971e-15 0)
(3 -1.60854e-15 0)
(3 -1.71372e-15 0)
(3 -1.03071e-15 0)
(3 -7.43027e-16 0)
(3 -7.42441e-16 0)
(3 -1.06309e-15 0)
(3 -1.17841e-15 0)
(3 -5.31081e-16 0)
(3 9.62224e-16 0)
(3 1.4389e-15 0)
(3 1.47964e-15 0)
(3 1.06554e-15 0)
(3 8.97909e-16 0)
(3 2.52754e-16 0)
(3 -1.014e-16 0)
(3 9.06503e-17 0)
(3 5.0928e-16 0)
(3 4.80205e-16 0)
(3 3.28729e-16 0)
(3 5.42434e-16 0)
(3 -1.45621e-16 0)
(3 -5.2104e-16 0)
(3 5.38966e-16 0)
(3 4.53556e-16 0)
(3.01796 0.00846225 0)
(1.16518 0.277299 0)
(0.806449 0.233221 0)
(0.793406 0.248386 0)
(0.780011 0.256764 0)
(0.765901 0.261038 0)
(0.751689 0.262862 0)
(0.736916 0.262302 0)
(0.721491 0.260726 0)
(0.70551 0.259762 0)
(0.689512 0.260589 0)
(0.674129 0.263713 0)
(0.659722 0.268991 0)
(0.64579 0.274975 0)
(0.631065 0.279151 0)
(0.615241 0.279907 0)
(0.598913 0.278282 0)
(0.58243 0.2782 0)
(0.566734 0.282602 0)
(0.552259 0.290297 0)
(0.53715 0.296789 0)
(0.521107 0.298816 0)
(0.504713 0.299947 0)
(0.488465 0.304629 0)
(0.472287 0.311698 0)
(0.455393 0.317977 0)
(0.438428 0.323189 0)
(0.422029 0.328798 0)
(0.406119 0.335245 0)
(0.390249 0.342313 0)
(0.374003 0.349851 0)
(0.3571 0.357852 0)
(0.339436 0.366225 0)
(0.321137 0.374863 0)
(0.30237 0.383627 0)
(0.283152 0.392304 0)
(0.263339 0.400745 0)
(0.242566 0.408515 0)
(0.220625 0.415565 0)
(0.197392 0.421732 0)
(0.173006 0.427339 0)
(0.147537 0.431796 0)
(0.121345 0.4361 0)
(0.0943215 0.438283 0)
(0.0672653 0.442269 0)
(0.0400655 0.444533 0)
(0.0136308 0.449953 0)
(3 3.52588e-17 0)
(3 9.12169e-18 0)
(3 -1.20989e-16 0)
(3 -1.32448e-16 0)
(3 3.04597e-16 0)
(3 2.65734e-16 0)
(3 2.30165e-16 0)
(3 -1.97293e-16 0)
(3 -8.35926e-16 0)
(3 -8.10571e-16 0)
(3 -8.21785e-16 0)
(3 -3.8772e-16 0)
(3 -1.00499e-16 0)
(3 1.40685e-17 0)
(3 3.4034e-16 0)
(3 6.37043e-16 0)
(3 7.00085e-17 0)
(3 -7.39798e-16 0)
(3 -1.17426e-15 0)
(3 -1.06782e-15 0)
(3 -1.00097e-15 0)
(3 -6.53127e-16 0)
(3 -3.91561e-17 0)
(3 2.12565e-17 0)
(3 -3.83086e-16 0)
(3 -1.49476e-15 0)
(3 -1.74156e-15 0)
(3 -1.78077e-15 0)
(3 -1.97802e-15 0)
(3 -1.45413e-15 0)
(3 -1.14741e-15 0)
(3 -9.3067e-16 0)
(3 -8.0714e-16 0)
(3 -8.00295e-16 0)
(3 4.16218e-16 0)
(3 1.43518e-15 0)
(3 1.28909e-15 0)
(3 6.27488e-16 0)
(3 1.41242e-16 0)
(3 -4.16175e-17 0)
(3 3.40896e-16 0)
(3 6.99431e-16 0)
(3 1.35696e-15 0)
(3 1.78321e-15 0)
(3 2.20286e-15 0)
(3 2.5087e-15 0)
(3 2.13553e-15 0)
(3 1.53486e-15 0)
(3 1.05365e-15 0)
(3.00023 9.09617e-06 0)
(1.59113 0.311438 0)
(0.825865 0.277842 0)
(0.779019 0.278564 0)
(0.767581 0.285878 0)
(0.754973 0.289292 0)
(0.743078 0.291715 0)
(0.730544 0.292664 0)
(0.717328 0.292884 0)
(0.703417 0.293221 0)
(0.689224 0.294203 0)
(0.675296 0.296443 0)
(0.662071 0.300723 0)
(0.649755 0.307044 0)
(0.637277 0.313279 0)
(0.623565 0.316582 0)
(0.60899 0.31638 0)
(0.593923 0.315838 0)
(0.57901 0.318871 0)
(0.565526 0.326234 0)
(0.552208 0.334325 0)
(0.537565 0.338507 0)
(0.52219 0.339742 0)
(0.506511 0.343493 0)
(0.491028 0.350542 0)
(0.474827 0.357817 0)
(0.458016 0.363717 0)
(0.441464 0.369535 0)
(0.425441 0.37628 0)
(0.409562 0.38384 0)
(0.3934 0.391992 0)
(0.376703 0.400797 0)
(0.359308 0.410332 0)
(0.341309 0.420525 0)
(0.322934 0.431305 0)
(0.304216 0.442388 0)
(0.28503 0.453547 0)
(0.264901 0.464189 0)
(0.243607 0.474115 0)
(0.220799 0.482871 0)
(0.196513 0.490921 0)
(0.170362 0.497897 0)
(0.142523 0.50526 0)
(0.112257 0.510812 0)
(0.0805891 0.516753 0)
(0.0479448 0.519549 0)
(0.0160404 0.524644 0)
(3 1.16891e-16 0)
(3 8.8243e-17 0)
(3 -3.64724e-16 0)
(3 -4.54535e-16 0)
(3 -5.21073e-16 0)
(3 -5.77154e-16 0)
(3 -4.54582e-16 0)
(3 -3.22339e-16 0)
(3 -1.85465e-16 0)
(3 4.95179e-17 0)
(3 3.39764e-16 0)
(3 8.4437e-17 0)
(3 -8.06444e-17 0)
(3 -8.40822e-17 0)
(3 3.63822e-17 0)
(3 8.90583e-16 0)
(3 1.22961e-15 0)
(3 1.9432e-15 0)
(3 1.96651e-15 0)
(3 1.79631e-15 0)
(3 1.89509e-15 0)
(3 1.19855e-15 0)
(3 9.23525e-16 0)
(3 7.57507e-16 0)
(3 4.11966e-16 0)
(3 4.63829e-17 0)
(3 2.20088e-16 0)
(3 6.03357e-17 0)
(3 7.78625e-17 0)
(3 4.31063e-16 0)
(3 7.38194e-16 0)
(3 1.50378e-16 0)
(3 -4.6745e-16 0)
(3 -1.21796e-15 0)
(3 -1.10122e-15 0)
(3 -1.18345e-15 0)
(3 -6.74899e-16 0)
(3 6.0089e-16 0)
(3 1.67673e-15 0)
(3 1.5643e-15 0)
(3 1.35608e-15 0)
(3 1.15272e-15 0)
(3 8.97042e-16 0)
(3 8.93142e-16 0)
(3 1.15463e-15 0)
(3 1.90285e-15 0)
(3 2.24323e-15 0)
(3 1.50791e-15 0)
(3 -2.53423e-16 0)
(3 1.67529e-08 0)
(2.4316 0.2743 0)
(0.928604 0.338965 0)
(0.794208 0.314533 0)
(0.781263 0.310491 0)
(0.767343 0.314488 0)
(0.754986 0.318422 0)
(0.742564 0.321005 0)
(0.729948 0.322513 0)
(0.716868 0.323737 0)
(0.703419 0.32497 0)
(0.689986 0.32671 0)
(0.67698 0.329986 0)
(0.664895 0.335696 0)
(0.653456 0.34273 0)
(0.641213 0.348145 0)
(0.627844 0.350034 0)
(0.613799 0.350032 0)
(0.59947 0.352105 0)
(0.586186 0.358606 0)
(0.574093 0.367739 0)
(0.560966 0.374843 0)
(0.546638 0.377825 0)
(0.531683 0.381301 0)
(0.516832 0.388241 0)
(0.501662 0.396815 0)
(0.485544 0.404468 0)
(0.469149 0.411394 0)
(0.453108 0.418987 0)
(0.437027 0.427484 0)
(0.421068 0.436773 0)
(0.404503 0.446754 0)
(0.387574 0.457674 0)
(0.369766 0.469537 0)
(0.351504 0.482352 0)
(0.332765 0.495983 0)
(0.313099 0.510228 0)
(0.292283 0.524683 0)
(0.269873 0.53916 0)
(0.245211 0.553139 0)
(0.218291 0.566938 0)
(0.188925 0.58011 0)
(0.157984 0.593551 0)
(0.125529 0.605325 0)
(0.0916568 0.614497 0)
(0.0560837 0.618933 0)
(0.0179614 0.622033 0)
(3 -3.03079e-17 0)
(3 1.58923e-17 0)
(3 1.49919e-16 0)
(3 1.04907e-16 0)
(3 -1.12798e-16 0)
(3 -3.0238e-16 0)
(3 -5.77789e-16 0)
(3 -4.29067e-16 0)
(3 -1.5466e-16 0)
(3 -1.2083e-17 0)
(3 -4.11795e-17 0)
(3 -5.21205e-18 0)
(3 1.56534e-16 0)
(3 4.48451e-16 0)
(3 9.26516e-16 0)
(3 1.32361e-15 0)
(3 2.56655e-15 0)
(3 2.79336e-15 0)
(3 2.77143e-15 0)
(3 2.71861e-15 0)
(3 2.63633e-15 0)
(3 2.31897e-15 0)
(3 1.68623e-15 0)
(3 1.07296e-15 0)
(3 7.69003e-16 0)
(3 3.90967e-17 0)
(3 -5.44021e-16 0)
(3 -3.33378e-16 0)
(3 3.26919e-16 0)
(3 1.08092e-15 0)
(3 2.08522e-15 0)
(3 2.14832e-15 0)
(3 1.41002e-15 0)
(3 9.05633e-16 0)
(3 6.10573e-18 0)
(3 -4.29747e-16 0)
(3 -3.64797e-16 0)
(3 -2.3878e-16 0)
(3 -2.75407e-16 0)
(3 -1.51005e-17 0)
(3 -3.54056e-17 0)
(3 -3.22443e-16 0)
(3 -1.14423e-16 0)
(3 1.05615e-17 0)
(3 4.36109e-16 0)
(3 -1.8381e-16 0)
(3 -6.67894e-16 0)
(3 -8.99888e-16 0)
(3 -1.12341e-15 0)
(3 -4.78435e-09 0)
(3.02801 0.0154817 0)
(1.27571 0.380275 0)
(0.842022 0.321574 0)
(0.821027 0.332875 0)
(0.8055 0.338543 0)
(0.790919 0.342103 0)
(0.777226 0.344768 0)
(0.763643 0.347012 0)
(0.749796 0.349468 0)
(0.73556 0.352128 0)
(0.721225 0.354838 0)
(0.70727 0.35803 0)
(0.694173 0.362891 0)
(0.682181 0.369662 0)
(0.670301 0.376515 0)
(0.657412 0.381239 0)
(0.643558 0.383429 0)
(0.629286 0.385605 0)
(0.615554 0.391018 0)
(0.603462 0.400039 0)
(0.591582 0.409355 0)
(0.578379 0.415341 0)
(0.564271 0.419445 0)
(0.550082 0.425995 0)
(0.535983 0.435273 0)
(0.521168 0.445052 0)
(0.50555 0.454025 0)
(0.489676 0.46308 0)
(0.473941 0.472952 0)
(0.458511 0.483778 0)
(0.442817 0.495586 0)
(0.426553 0.508317 0)
(0.409679 0.522157 0)
(0.392214 0.537323 0)
(0.374092 0.55388 0)
(0.355364 0.571917 0)
(0.33566 0.591283 0)
(0.314589 0.611689 0)
(0.291776 0.632465 0)
(0.267199 0.653001 0)
(0.240802 0.672156 0)
(0.212156 0.688938 0)
(0.181084 0.70489 0)
(0.143881 0.723115 0)
(0.0974059 0.744737 0)
(0.0372191 0.763952 0)
(3 1.77756e-17 0)
(3 -5.85586e-17 0)