/*--------------------------------*- C++ -*----------------------------------*\
  =========                 |
  \\      /  F ield         | OpenFOAM: The Open Source CFD Toolbox
   \\    /   O peration     | Website:  https://openfoam.org
    \\  /    A nd           | Version:  7
     \\/     M anipulation  |
\*---------------------------------------------------------------------------*/
FoamFile
{
    version     2.0;
    format      ascii;
    class       volScalarField;
    location    "3.8";
    object      rho;
}
// * * * * * * * * * * * * * * * * * * * * * * * * * * * * * * * * * * * * * //

dimensions      [1 -3 0 0 0 0 0];

internalField   nonuniform List<scalar> 
19968
(
1.40001
1.40001
1.40001
1.40001
1.40001
1.40001
1.40001
1.40001
1.40001
1.40001
1.40001
1.40001
1.40001
1.40001
1.40001
1.40001
1.40001
1.40001
1.40001
1.40001
1.40001
1.40001
1.40001
1.40001
1.40001
1.40001
1.40001
1.40001
1.40001
1.40001
1.40001
1.40001
1.40001
1.40001
1.40001
1.40001
1.40001
1.40001
1.40001
1.40001
1.40001
1.40001
1.40001
1.40001
1.40001
1.40001
1.40001
1.40001
1.58191
4.39715
5.42852
5.42941
5.44634
5.46751
5.49293
5.51797
5.54101
5.56273
5.58432
5.60646
5.62833
5.6477
5.66302
5.67516
5.68687
5.70067
5.7175
5.73739
5.75963
5.78192
5.80173
5.81804
5.83123
5.84234
5.85273
5.86343
5.87491
5.8872
5.89963
5.91105
5.92072
5.92876
5.93593
5.94309
5.95106
5.96047
5.9715
5.98363
5.99556
6.00544
6.01154
6.01335
6.0114
6.00709
6.00285
6.00109
1.40001
1.40001
1.40001
1.40001
1.40001
1.40001
1.40001
1.40001
1.40001
1.40001
1.40001
1.40001
1.40001
1.40001
1.40001
1.40001
1.40001
1.40001
1.40001
1.40001
1.40001
1.40001
1.40001
1.40001
1.40001
1.40001
1.40001
1.40001
1.40001
1.40001
1.40001
1.40001
1.40001
1.40001
1.40001
1.40001
1.40001
1.40001
1.40001
1.40001
1.40001
1.40001
1.40001
1.40001
1.40001
1.40001
1.40001
1.40001
1.5679
4.36292
5.42158
5.42834
5.44552
5.46745
5.49302
5.51817
5.54131
5.56305
5.5846
5.60667
5.62844
5.6477
5.66299
5.67513
5.6867
5.70017
5.71661
5.7362
5.75818
5.78029
5.80002
5.81636
5.82965
5.84092
5.85143
5.86218
5.87366
5.88593
5.89829
5.90965
5.91926
5.92725
5.93437
5.94149
5.94945
5.95884
5.96976
5.98163
5.99316
6.00268
6.00863
6.01051
6.00878
6.00475
6.00074
5.99896
1.40001
1.40001
1.40001
1.40001
1.40001
1.40001
1.40001
1.40001
1.40001
1.40001
1.40001
1.40001
1.40001
1.40001
1.40001
1.40001
1.40001
1.40001
1.40001
1.40001
1.40001
1.40001
1.40001
1.40001
1.40001
1.40001
1.40001
1.40001
1.40001
1.40001
1.40001
1.40001
1.40001
1.40001
1.40001
1.40001
1.40001
1.40001
1.40001
1.40001
1.40001
1.40001
1.40001
1.40001
1.40001
1.40001
1.40001
1.40001
1.53863
4.29939
5.41695
5.42513
5.44316
5.46593
5.49202
5.51753
5.54085
5.56254
5.5839
5.6057
5.62716
5.6463
5.66175
5.67414
5.68578
5.69895
5.71486
5.73395
5.75539
5.7771
5.79662
5.81299
5.8265
5.83809
5.84887
5.85977
5.87126
5.88346
5.89573
5.90707
5.91674
5.92483
5.932
5.93916
5.94716
5.95654
5.96727
5.97866
5.98945
5.99819
6.0036
6.00531
6.0038
6.00025
5.99674
5.99508
1.40001
1.40001
1.40001
1.40001
1.40001
1.40001
1.40001
1.40001
1.40001
1.40001
1.40001
1.40001
1.40001
1.40001
1.40001
1.40001
1.40001
1.40001
1.40001
1.40001
1.40001
1.40001
1.40001
1.40001
1.40001
1.40001
1.40001
1.40001
1.40001
1.40001
1.40001
1.40001
1.40001
1.40001
1.40001
1.40001
1.40001
1.40001
1.40001
1.40001
1.40001
1.40001
1.40001
1.40001
1.40001
1.40001
1.40001
1.40001
1.48915
4.21141
5.41307
5.4218
5.43929
5.46277
5.48956
5.51566
5.53927
5.56078
5.58164
5.60291
5.6239
5.6429
5.65865
5.67157
5.68355
5.69657
5.71202
5.73053
5.75123
5.7723
5.79138
5.80764
5.82134
5.83331
5.84444
5.85556
5.8671
5.87919
5.8913
5.90251
5.91217
5.92029
5.9275
5.93469
5.9427
5.952
5.96246
5.97328
5.98331
5.99132
5.99629
5.99799
5.99687
5.99396
5.99098
5.98935
1.40001
1.40001
1.40001
1.40001
1.40001
1.40001
1.40001
1.40001
1.40001
1.40001
1.40001
1.40001
1.40001
1.40001
1.40001
1.40001
1.40001
1.40001
1.40001
1.40001
1.40001
1.40001
1.40001
1.40001
1.40001
1.40001
1.40001
1.40001
1.40001
1.40001
1.40001
1.40001
1.40001
1.40001
1.40001
1.40001
1.40001
1.40001
1.40001
1.40001
1.40001
1.40001
1.40001
1.40001
1.40001
1.40001
1.40001
1.40001
1.40445
4.06187
5.40236
5.41801
5.43523
5.45996
5.48757
5.51444
5.53844
5.55961
5.57946
5.59964
5.61983
5.63846
5.65438
5.66792
5.68059
5.69374
5.70886
5.72677
5.74652
5.7666
5.78476
5.8005
5.81414
5.82639
5.83795
5.84941
5.86111
5.87314
5.88506
5.89614
5.90584
5.91414
5.92157
5.92894
5.93701
5.94614
5.95612
5.96617
5.97525
5.98238
5.9868
5.98843
5.9876
5.9851
5.98253
5.98079
1.40001
1.40001
1.40001
1.40001
1.40001
1.40001
1.40001
1.40001
1.40001
1.40001
1.40001
1.40001
1.40001
1.40001
1.40001
1.40001
1.40001
1.40001
1.40001
1.40001
1.40001
1.40001
1.40001
1.40001
1.40001
1.40001
1.40001
1.40001
1.40001
1.40001
1.40001
1.40001
1.40001
1.40001
1.40001
1.40001
1.40001
1.40001
1.40001
1.40001
1.40001
1.40001
1.40001
1.40001
1.40001
1.40001
1.40001
1.40001
1.40004
3.82206
5.37552
5.40677
5.42431
5.45122
5.47976
5.50732
5.53168
5.55259
5.57151
5.59056
5.60976
5.62776
5.64364
5.65788
5.67161
5.68549
5.70095
5.71872
5.73764
5.75655
5.77339
5.78823
5.80149
5.81394
5.82604
5.83815
5.85032
5.86252
5.87436
5.88536
5.89515
5.90377
5.9116
5.91928
5.92739
5.93625
5.94567
5.955
5.96338
5.97
5.97424
5.97604
5.97549
5.97329
5.97103
5.96917
1.40001
1.40001
1.40001
1.40001
1.40001
1.40001
1.40001
1.40001
1.40001
1.40001
1.40001
1.40001
1.40001
1.40001
1.40001
1.40001
1.40001
1.40001
1.40001
1.40001
1.40001
1.40001
1.40001
1.40001
1.40001
1.40001
1.40001
1.40001
1.40001
1.40001
1.40001
1.40001
1.40001
1.40001
1.40001
1.40001
1.40001
1.40001
1.40001
1.40001
1.40001
1.40001
1.40001
1.40001
1.40001
1.40001
1.40001
1.40001
1.40001
3.50234
5.34028
5.39593
5.41386
5.44276
5.47202
5.50024
5.5255
5.54717
5.56612
5.58428
5.60204
5.61868
5.63383
5.64826
5.66283
5.67754
5.6936
5.71148
5.72969
5.74748
5.76277
5.77638
5.78887
5.80119
5.81365
5.82628
5.83882
5.85098
5.86245
5.87299
5.88252
5.89116
5.89914
5.90684
5.91469
5.92295
5.93158
5.94014
5.94796
5.95433
5.95861
5.96062
5.96029
5.95832
5.95618
5.95425
1.40001
1.40001
1.40001
1.40001
1.40001
1.40001
1.40001
1.40001
1.40001
1.40001
1.40001
1.40001
1.40001
1.40001
1.40001
1.40001
1.40001
1.40001
1.40001
1.40001
1.40001
1.40001
1.40001
1.40001
1.40001
1.40001
1.40001
1.40001
1.40001
1.40001
1.40001
1.40001
1.40001
1.40001
1.40001
1.40001
1.40001
1.40001
1.40001
1.40001
1.40001
1.40001
1.40001
1.40001
1.40001
1.40001
1.40001
1.40001
1.40001
3.10378
5.27778
5.38949
5.40705
5.43557
5.46419
5.49246
5.51841
5.54115
5.56058
5.57804
5.5942
5.60893
5.62245
5.63616
5.65099
5.66636
5.68304
5.70121
5.71894
5.73581
5.74955
5.76174
5.77308
5.78491
5.79744
5.81043
5.82329
5.83545
5.84659
5.85672
5.86605
5.87478
5.88303
5.89089
5.89858
5.90635
5.91426
5.92209
5.92935
5.93535
5.93936
5.94107
5.94043
5.9383
5.93597
5.9339
1.40001
1.40001
1.40001
1.40001
1.40001
1.40001
1.40001
1.40001
1.40001
1.40001
1.40001
1.40001
1.40001
1.40001
1.40001
1.40001
1.40001
1.40001
1.40001
1.40001
1.40001
1.40001
1.40001
1.40001
1.40001
1.40001
1.40001
1.40001
1.40001
1.40001
1.40001
1.40001
1.40001
1.40001
1.40001
1.40001
1.40001
1.40001
1.40001
1.40001
1.40001
1.40001
1.40001
1.40001
1.40001
1.40001
1.40001
1.40001
1.40001
2.64049
5.15827
5.40173
5.41276
5.43595
5.46167
5.48867
5.51435
5.53754
5.5573
5.5741
5.58872
5.60146
5.61283
5.62483
5.63898
5.65437
5.67119
5.6894
5.70665
5.72274
5.73505
5.7456
5.75529
5.76595
5.77779
5.79052
5.80323
5.81507
5.82564
5.83502
5.84366
5.85196
5.86003
5.86782
5.87539
5.8829
5.89047
5.89803
5.90516
5.91114
5.91515
5.91681
5.91611
5.91394
5.91163
5.90972
1.40001
1.40001
1.40001
1.40001
1.40001
1.40001
1.40001
1.40001
1.40001
1.40001
1.40001
1.40001
1.40001
1.40001
1.40001
1.40001
1.40001
1.40001
1.40001
1.40001
1.40001
1.40001
1.40001
1.40001
1.40001
1.40001
1.40001
1.40001
1.40001
1.40001
1.40001
1.40001
1.40001
1.40001
1.40001
1.40001
1.40001
1.40001
1.40001
1.40001
1.40001
1.40001
1.40001
1.40001
1.40001
1.40001
1.40001
1.40001
1.40001
2.12721
4.92733
5.42009
5.42101
5.43638
5.45719
5.48179
5.50638
5.52945
5.54974
5.56695
5.58156
5.59367
5.60354
5.61358
5.62622
5.64096
5.65744
5.67548
5.69248
5.7081
5.71979
5.72916
5.73727
5.74634
5.75694
5.76885
5.78102
5.79238
5.80227
5.81069
5.81824
5.8256
5.83306
5.84056
5.84798
5.85528
5.86243
5.86936
5.87571
5.88077
5.88381
5.88453
5.88303
5.88031
5.87765
5.87576
1.40001
1.40001
1.40001
1.40001
1.40001
1.40001
1.40001
1.40001
1.40001
1.40001
1.40001
1.40001
1.40001
1.40001
1.40001
1.40001
1.40001
1.40001
1.40001
1.40001
1.40001
1.40001
1.40001
1.40001
1.40001
1.40001
1.40001
1.40001
1.40001
1.40001
1.40001
1.40001
1.40001
1.40001
1.40001
1.40001
1.40001
1.40001
1.40001
1.40001
1.40001
1.40001
1.40001
1.40001
1.40001
1.40001
1.40001
1.40001
1.40001
1.65559
4.51803
5.44383
5.42649
5.43904
5.45477
5.47453
5.49533
5.51596
5.53539
5.55274
5.56799
5.58078
5.59074
5.59972
5.61059
5.62387
5.6391
5.65639
5.67313
5.68827
5.69999
5.7086
5.71545
5.72256
5.73132
5.7418
5.75307
5.76384
5.77309
5.78048
5.78653
5.79219
5.79812
5.80449
5.81112
5.8178
5.82437
5.83069
5.83645
5.84091
5.84358
5.844
5.84235
5.83955
5.83683
5.83518
1.40001
1.40001
1.40001
1.40001
1.40001
1.40001
1.40001
1.40001
1.40001
1.40001
1.40001
1.40001
1.40001
1.40001
1.40001
1.40001
1.40001
1.40001
1.40001
1.40001
1.40001
1.40001
1.40001
1.40001
1.40001
1.40001
1.40001
1.40001
1.40001
1.40001
1.40001
1.40001
1.40001
1.40001
1.40001
1.40001
1.40001
1.40001
1.40001
1.40001
1.40001
1.40001
1.40001
1.40001
1.40001
1.40001
1.40001
1.40001
1.40001
1.40682
3.81834
5.35669
5.38045
5.40012
5.42294
5.44506
5.46662
5.48733
5.50721
5.52594
5.54327
5.55853
5.57061
5.58036
5.59029
5.60185
5.61511
5.6307
5.64675
5.6612
5.67337
5.682
5.68849
5.69414
5.70096
5.70965
5.71971
5.72987
5.73874
5.7455
5.75032
5.75428
5.7585
5.76347
5.76909
5.77497
5.7807
5.78583
5.78982
5.79206
5.79239
5.79029
5.78638
5.78169
5.77772
5.77552
1.40001
1.40001
1.40001
1.40001
1.40001
1.40001
1.40001
1.40001
1.40001
1.40001
1.40001
1.40001
1.40001
1.40001
1.40001
1.40001
1.40001
1.40001
1.40001
1.40001
1.40001
1.40001
1.40001
1.40001
1.40001
1.40001
1.40001
1.40001
1.40001
1.40001
1.40001
1.40001
1.40001
1.40001
1.40001
1.40001
1.40001
1.40001
1.40001
1.40001
1.40001
1.40001
1.40001
1.40001
1.40001
1.40001
1.40001
1.40001
1.40001
1.40001
2.92384
5.17312
5.36189
5.38837
5.41225
5.43202
5.45061
5.46773
5.48421
5.50053
5.51651
5.53153
5.54424
5.55429
5.56328
5.57288
5.58385
5.59693
5.61168
5.62553
5.63789
5.64674
5.65311
5.65766
5.66231
5.66846
5.67642
5.68526
5.69349
5.69972
5.70347
5.7055
5.7071
5.70901
5.71148
5.71423
5.7169
5.71895
5.71991
5.71982
5.71873
5.71645
5.71266
5.70856
5.7048
5.70282
1.40001
1.40001
1.40001
1.40001
1.40001
1.40001
1.40001
1.40001
1.40001
1.40001
1.40001
1.40001
1.40001
1.40001
1.40001
1.40001
1.40001
1.40001
1.40001
1.40001
1.40001
1.40001
1.40001
1.40001
1.40001
1.40001
1.40001
1.40001
1.40001
1.40001
1.40001
1.40001
1.40001
1.40001
1.40001
1.40001
1.40001
1.40001
1.40001
1.40001
1.40001
1.40001
1.40001
1.40001
1.40001
1.40001
1.40001
1.40001
1.40001
1.40001
1.95934
4.76707
5.3879
5.38135
5.40274
5.42035
5.43845
5.45471
5.46951
5.48365
5.49773
5.51175
5.52445
5.53467
5.54293
5.55046
5.55838
5.56744
5.57829
5.58968
5.60017
5.60824
5.6138
5.6173
5.61977
5.62282
5.62759
5.63385
5.64037
5.64541
5.64772
5.64769
5.64618
5.6443
5.6427
5.64182
5.6417
5.64143
5.64017
5.63747
5.63246
5.62504
5.61422
5.60184
5.58978
5.58017
1.40001
1.40001
1.40001
1.40001
1.40001
1.40001
1.40001
1.40001
1.40001
1.40001
1.40001
1.40001
1.40001
1.40001
1.40001
1.40001
1.40001
1.40001
1.40001
1.40001
1.40001
1.40001
1.40001
1.40001
1.40001
1.40001
1.40001
1.40001
1.40001
1.40001
1.40001
1.40001
1.40001
1.40001
1.40001
1.40001
1.40001
1.40001
1.40001
1.40001
1.40001
1.40001
1.40001
1.40001
1.40001
1.40001
1.40001
1.40001
1.40001
1.40001
1.42263
3.65346
5.33178
5.38441
5.39748
5.41386
5.42762
5.44001
5.45124
5.462
5.47316
5.48502
5.49651
5.5062
5.51376
5.51975
5.52516
5.53078
5.53757
5.54592
5.55415
5.56108
5.5654
5.56749
5.56783
5.56759
5.56828
5.57053
5.57356
5.576
5.57644
5.57382
5.56853
5.56127
5.55268
5.54457
5.53649
5.52718
5.51518
5.49975
5.48112
5.46023
5.44059
5.42258
5.4125
5.40689
1.40001
1.40001
1.40001
1.40001
1.40001
1.40001
1.40001
1.40001
1.40001
1.40001
1.40001
1.40001
1.40001
1.40001
1.40001
1.40001
1.40001
1.40001
1.40001
1.40001
1.40001
1.40001
1.40001
1.40001
1.40001
1.40001
1.40001
1.40001
1.40001
1.40001
1.40001
1.40001
1.40001
1.40001
1.40001
1.40001
1.40001
1.40001
1.40001
1.40001
1.40001
1.40001
1.40001
1.40001
1.40001
1.40001
1.40001
1.40001
1.40001
1.40001
1.40002
2.29002
4.94361
5.35523
5.36183
5.38292
5.39739
5.41135
5.42353
5.43431
5.44459
5.45522
5.46584
5.47514
5.48228
5.48725
5.49062
5.49328
5.4962
5.50046
5.50551
5.50991
5.51232
5.51248
5.50994
5.50592
5.50208
5.49919
5.49694
5.49472
5.49089
5.48411
5.47343
5.45882
5.4416
5.42348
5.40494
5.38527
5.36325
5.33837
5.31075
5.28097
5.24197
5.19712
5.13883
5.1551
1.40001
1.40001
1.40001
1.40001
1.40001
1.40001
1.40001
1.40001
1.40001
1.40001
1.40001
1.40001
1.40001
1.40001
1.40001
1.40001
1.40001
1.40001
1.40001
1.40001
1.40001
1.40001
1.40001
1.40001
1.40001
1.40001
1.40001
1.40001
1.40001
1.40001
1.40001
1.40001
1.40001
1.40001
1.40001
1.40001
1.40001
1.40001
1.40001
1.40001
1.40001
1.40001
1.40001
1.40001
1.40001
1.40001
1.40001
1.40001
1.40001
1.40001
1.40001
1.45635
4.01532
5.33612
5.34606
5.35829
5.37156
5.38458
5.39616
5.40662
5.41624
5.42581
5.43542
5.44416
5.4509
5.45514
5.45704
5.45744
5.45715
5.45746
5.45902
5.46085
5.46155
5.4592
5.45376
5.44613
5.43818
5.43014
5.42253
5.41489
5.40595
5.39405
5.3777
5.35621
5.33012
5.30067
5.26832
5.23228
5.18919
5.1358
5.06383
4.96634
4.81656
4.58558
4.17474
3.26394
1.40001
1.40001
1.40001
1.40001
1.40001
1.40001
1.40001
1.40001
1.40001
1.40001
1.40001
1.40001
1.40001
1.40001
1.40001
1.40001
1.40001
1.40001
1.40001
1.40001
1.40001
1.40001
1.40001
1.40001
1.40001
1.40001
1.40001
1.40001
1.40001
1.40001
1.40001
1.40001
1.40001
1.40001
1.40001
1.40001
1.40001
1.40001
1.40001
1.40001
1.40001
1.40001
1.40001
1.40001
1.40001
1.40001
1.40001
1.40001
1.40001
1.40001
1.40001
1.40002
2.81495
5.06658
5.30774
5.32192
5.34069
5.35466
5.36653
5.37714
5.38675
5.39598
5.4053
5.41422
5.42132
5.42558
5.42709
5.42628
5.42409
5.42176
5.42069
5.42041
5.4188
5.41437
5.4063
5.39572
5.38408
5.37147
5.35891
5.34594
5.33163
5.31427
5.29214
5.26414
5.22953
5.18924
5.14263
5.08995
5.02546
4.94668
4.83911
4.69801
4.48999
4.21739
3.67367
2.91026
1.40001
1.40001
1.40001
1.40001
1.40001
1.40001
1.40001
1.40001
1.40001
1.40001
1.40001
1.40001
1.40001
1.40001
1.40001
1.40001
1.40001
1.40001
1.40001
1.40001
1.40001
1.40001
1.40001
1.40001
1.40001
1.40001
1.40001
1.40001
1.40001
1.40001
1.40001
1.40001
1.40001
1.40001
1.40001
1.40001
1.40001
1.40001
1.40001
1.40001
1.40001
1.40001
1.40001
1.40001
1.40001
1.40001
1.40001
1.40001
1.40001
1.40001
1.40001
1.4
1.67191
4.50626
5.36607
5.34054
5.34091
5.34464
5.35034
5.357
5.36375
5.37011
5.3764
5.38285
5.38857
5.39217
5.39341
5.39181
5.388
5.38329
5.37938
5.37643
5.37263
5.36647
5.35642
5.34299
5.32725
5.3104
5.29296
5.27463
5.2545
5.23131
5.20306
5.16887
5.12634
5.07642
5.01688
4.94894
4.86687
4.76741
4.63978
4.47197
4.2537
3.93394
3.48964
2.97383
1.40001
1.40001
1.40001
1.40001
1.40001
1.40001
1.40001
1.40001
1.40001
1.40001
1.40001
1.40001
1.40001
1.40001
1.40001
1.40001
1.40001
1.40001
1.40001
1.40001
1.40001
1.40001
1.40001
1.40001
1.40001
1.40001
1.40001
1.40001
1.40001
1.40001
1.40001
1.40001
1.40001
1.40001
1.40001
1.40001
1.40001
1.40001
1.40001
1.40001
1.40001
1.40001
1.40001
1.40001
1.40001
1.40001
1.40001
1.40001
1.40001
1.40001
1.40001
1.4
1.40457
3.25436
5.20298
5.30748
5.31335
5.32045
5.32559
5.32993
5.33418
5.33812
5.34212
5.34644
5.35084
5.35399
5.35489
5.35259
5.34762
5.34133
5.33509
5.32982
5.32429
5.31654
5.30489
5.28907
5.26988
5.2491
5.2271
5.20375
5.17781
5.14864
5.11423
5.0741
5.02506
4.96725
4.89814
4.81808
4.72382
4.61116
4.47411
4.29955
4.08453
3.79544
3.45793
3.08458
1.40001
1.40001
1.40001
1.40001
1.40001
1.40001
1.40001
1.40001
1.40001
1.40001
1.40001
1.40001
1.40001
1.40001
1.40001
1.40001
1.40001
1.40001
1.40001
1.40001
1.40001
1.40001
1.40001
1.40001
1.40001
1.40001
1.40001
1.40001
1.40001
1.40001
1.40001
1.40001
1.40001
1.40001
1.40001
1.40001
1.40001
1.40001
1.40001
1.40001
1.40001
1.40001
1.40001
1.40001
1.40001
1.40001
1.40001
1.40001
1.40001
1.40001
1.40001
1.40001
1.4
1.85519
4.66271
5.3289
5.31152
5.31269
5.31467
5.31578
5.31701
5.31781
5.31818
5.31828
5.3184
5.3188
5.31824
5.31509
5.30934
5.30147
5.29215
5.28351
5.27542
5.26588
5.25281
5.23513
5.21321
5.18916
5.16325
5.13558
5.10449
5.06962
5.0295
4.98379
4.92996
4.86672
4.79208
4.70496
4.60387
4.48541
4.34641
4.17756
3.97732
3.74315
3.47521
3.18511
1.40001
1.40001
1.40001
1.40001
1.40001
1.40001
1.40001
1.40001
1.40001
1.40001
1.40001
1.40001
1.40001
1.40001
1.40001
1.40001
1.40001
1.40001
1.40001
1.40001
1.40001
1.40001
1.40001
1.40001
1.40001
1.40001
1.40001
1.40001
1.40001
1.40001
1.40001
1.40001
1.40001
1.40001
1.40001
1.40001
1.40001
1.40001
1.40001
1.40001
1.40001
1.40001
1.40001
1.40001
1.40001
1.40001
1.40001
1.40001
1.40001
1.40001
1.40001
1.40001
1.4
1.41355
3.30375
5.18261
5.28334
5.29033
5.29991
5.3029
5.30353
5.30263
5.30012
5.29617
5.29151
5.28778
5.28476
5.27991
5.27229
5.26168
5.24895
5.23655
5.22517
5.21318
5.19794
5.17821
5.15422
5.1281
5.09946
5.06834
5.03295
4.99305
4.94797
4.89762
4.84049
4.77452
4.69796
4.60883
4.5067
4.3879
4.25342
4.09549
3.918
3.72292
3.50237
3.27058
1.40001
1.40001
1.40001
1.40001
1.40001
1.40001
1.40001
1.40001
1.40001
1.40001
1.40001
1.40001
1.40001
1.40001
1.40001
1.40001
1.40001
1.40001
1.40001
1.40001
1.40001
1.40001
1.40001
1.40001
1.40001
1.40001
1.40001
1.40001
1.40001
1.40001
1.40001
1.40001
1.40001
1.40001
1.40001
1.40001
1.40001
1.40001
1.40001
1.40001
1.40001
1.40001
1.40001
1.40001
1.40001
1.40001
1.40001
1.40001
1.40001
1.40001
1.40001
1.40001
1.40001
1.4
1.79877
4.60713
5.30215
5.28784
5.28928
5.28786
5.28539
5.28281
5.27937
5.27397
5.2667
5.25957
5.25333
5.24637
5.23698
5.2247
5.21019
5.19467
5.17904
5.16293
5.14443
5.1229
5.09809
5.07117
5.04098
5.00717
4.96828
4.92428
4.87496
4.82076
4.76095
4.69373
4.61744
4.52952
4.43112
4.31459
4.18942
4.04316
3.88784
3.72043
3.53192
3.34198
1.40001
1.40001
1.40001
1.40001
1.40001
1.40001
1.40001
1.40001
1.40001
1.40001
1.40001
1.40001
1.40001
1.40001
1.40001
1.40001
1.40001
1.40001
1.40001
1.40001
1.40001
1.40001
1.40001
1.40001
1.40001
1.40001
1.40001
1.40001
1.40001
1.40001
1.40001
1.40001
1.40001
1.40001
1.40001
1.40001
1.40001
1.40001
1.40001
1.40001
1.40001
1.40001
1.40001
1.40001
1.40001
1.40001
1.40001
1.40001
1.40001
1.40001
1.40001
1.40001
1.40001
1.4
1.40932
3.12246
5.0691
5.24309
5.24452
5.24706
5.2501
5.25197
5.25125
5.24722
5.24012
5.23179
5.22345
5.21461
5.2038
5.19022
5.17413
5.15621
5.13603
5.11471
5.09166
5.06769
5.04178
5.01403
4.98279
4.94729
4.90614
4.85946
4.80716
4.75015
4.68848
4.62109
4.54662
4.46226
4.3701
4.25916
4.14479
4.0112
3.87384
3.72496
3.56271
3.4005
1.40001
1.40001
1.40001
1.40001
1.40001
1.40001
1.40001
1.40001
1.40001
1.40001
1.40001
1.40001
1.40001
1.40001
1.40001
1.40001
1.40001
1.40001
1.40001
1.40001
1.40001
1.40001
1.40001
1.40001
1.40001
1.40001
1.40001
1.40001
1.40001
1.40001
1.40001
1.40001
1.40001
1.40001
1.40001
1.40001
1.40001
1.40001
1.40001
1.40001
1.40001
1.40001
1.40001
1.40001
1.40001
1.40001
1.40001
1.40001
1.40001
1.40001
1.40001
1.40001
1.40001
1.40001
1.4
1.60021
4.34318
5.27047
5.24936
5.23815
5.23362
5.23037
5.2271
5.22265
5.21597
5.20724
5.19675
5.18492
5.17188
5.15751
5.14109
5.12173
5.0984
5.0728
5.04526
5.01818
4.99068
4.96192
4.92975
4.8932
4.85087
4.80296
4.74922
4.69045
4.62748
4.55974
4.487
4.40581
4.31896
4.21704
4.11307
3.99183
3.86955
3.73515
3.59415
3.45005
1.40001
1.40001
1.40001
1.40001
1.40001
1.40001
1.40001
1.40001
1.40001
1.40001
1.40001
1.40001
1.40001
1.40001
1.40001
1.40001
1.40001
1.40001
1.40001
1.40001
1.40001
1.40001
1.40001
1.40001
1.40001
1.40001
1.40001
1.40001
1.40001
1.40001
1.40001
1.40001
1.40001
1.40001
1.40001
1.40001
1.40001
1.40001
1.40001
1.40001
1.40001
1.40001
1.40001
1.40001
1.40001
1.40001
1.40001
1.40001
1.40001
1.40001
1.40001
1.40001
1.40001
1.40001
1.4
1.40207
2.69532
4.97171
5.18397
5.18807
5.19866
5.19849
5.19431
5.18824
5.18028
5.17076
5.15966
5.14721
5.13368
5.1195
5.10278
5.08202
5.05784
5.03089
5.00148
4.97226
4.94271
4.91203
4.87825
4.84035
4.79748
4.74962
4.69631
4.63758
4.57528
4.50741
4.43653
4.35726
4.27514
4.18338
4.08831
3.97835
3.86891
3.74692
3.62208
3.49261
1.40001
1.40001
1.40001
1.40001
1.40001
1.40001
1.40001
1.40001
1.40001
1.40001
1.40001
1.40001
1.40001
1.40001
1.40001
1.40001
1.40001
1.40001
1.40001
1.40001
1.40001
1.40001
1.40001
1.40001
1.40001
1.40001
1.40001
1.40001
1.40001
1.40001
1.40001
1.40001
1.40001
1.40001
1.40001
1.40001
1.40001
1.40001
1.40001
1.40001
1.40001
1.40001
1.40001
1.40001
1.40001
1.40001
1.40001
1.40001
1.40001
1.40001
1.40001
1.40001
1.40001
1.40001
1.40001
1.4
1.50889
3.72861
5.12857
5.18676
5.18144
5.17587
5.17019
5.16394
5.15635
5.14693
5.13582
5.12287
5.10813
5.09222
5.0731
5.05042
5.02522
4.99769
4.96752
4.93662
4.90441
4.87062
4.83432
4.79426
4.75011
4.70208
4.64958
4.59214
4.53193
4.46435
4.39499
4.31898
4.2404
4.15624
4.06832
3.96843
3.86977
3.75823
3.64822
3.53034
1.40001
1.40001
1.40001
1.40001
1.40001
1.40001
1.40001
1.40001
1.40001
1.40001
1.40001
1.40001
1.40001
1.40001
1.40001
1.40001
1.40001
1.40001
1.40001
1.40001
1.40001
1.40001
1.40001
1.40001
1.40001
1.40001
1.40001
1.40001
1.40001
1.40001
1.40001
1.40001
1.40001
1.40001
1.40001
1.40001
1.40001
1.40001
1.40001
1.40001
1.40001
1.40001
1.40001
1.40001
1.40001
1.40001
1.40001
1.40001
1.40001
1.40001
1.40001
1.40001
1.40001
1.40001
1.40001
1.4
1.40056
1.8606
4.59031
5.21081
5.17651
5.16568
5.15232
5.14035
5.12928
5.11779
5.10564
5.09223
5.07666
5.05905
5.03746
5.01418
4.9888
4.96144
4.93228
4.90174
4.86842
4.8329
4.79498
4.75322
4.70766
4.65903
4.60695
4.55123
4.49315
4.42749
4.36077
4.28949
4.21371
4.135
4.05285
3.96228
3.87125
3.76992
3.67078
3.56217
1.40001
1.40001
1.40001
1.40001
1.40001
1.40001
1.40001
1.40001
1.40001
1.40001
1.40001
1.40001
1.40001
1.40001
1.40001
1.40001
1.40001
1.40001
1.40001
1.40001
1.40001
1.40001
1.40001
1.40001
1.40001
1.40001
1.40001
1.40001
1.40001
1.40001
1.40001
1.40001
1.40001
1.40001
1.40001
1.40001
1.40001
1.40001
1.40001
1.40001
1.40001
1.40001
1.40001
1.40001
1.40001
1.40001
1.40001
1.40001
1.40001
1.40001
1.40001
1.40001
1.40001
1.40001
1.40001
1.40001
1.40001
1.41197
2.87127
5.00511
5.13691
5.12926
5.12238
5.11313
5.10146
5.08931
5.07618
5.06244
5.04686
5.02862
5.00623
4.98271
4.95803
4.93012
4.90079
4.8706
4.83721
4.80164
4.76358
4.72101
4.67445
4.62437
4.57237
4.51662
4.45881
4.39627
4.33216
4.26526
4.19307
4.11962
4.04272
3.96082
3.87518
3.78344
3.69123
3.59152
1.40001
1.40001
1.40001
1.40001
1.40001
1.40001
1.40001
1.40001
1.40001
1.40001
1.40001
1.40001
1.40001
1.40001
1.40001
1.40001
1.40001
1.40001
1.40001
1.40001
1.40001
1.40001
1.40001
1.40001
1.40001
1.40001
1.40001
1.40001
1.40001
1.40001
1.40001
1.40001
1.40001
1.40001
1.40001
1.40001
1.40001
1.40001
1.40001
1.40001
1.40001
1.40001
1.40001
1.40001
1.40001
1.40001
1.40001
1.40001
1.40001
1.40001
1.40001
1.40001
1.40001
1.40001
1.40001
1.40001
1.40001
1.40002
1.53182
3.60795
5.05727
5.11858
5.1123
5.10434
5.09181
5.0763
5.05968
5.04301
5.02609
5.00639
4.98249
4.95665
4.93091
4.90238
4.87169
4.84071
4.80817
4.77333
4.73594
4.69423
4.64753
4.59864
4.54541
4.48945
4.43178
4.37144
4.30914
4.24577
4.17731
4.10875
4.03644
3.96126
3.88095
3.79693
3.70927
3.61843
1.40001
1.40001
1.40001
1.40001
1.40001
1.40001
1.40001
1.40001
1.40001
1.40001
1.40001
1.40001
1.40001
1.40001
1.40001
1.40001
1.40001
1.40001
1.40001
1.40001
1.40001
1.40001
1.40001
1.40001
1.40001
1.40001
1.40001
1.40001
1.40001
1.40001
1.40001
1.40001
1.40001
1.40001
1.40001
1.40001
1.40001
1.40001
1.40001
1.40001
1.40001
1.40001
1.40001
1.40001
1.40001
1.40001
1.40001
1.40001
1.40001
1.40001
1.40001
1.40001
1.40001
1.40001
1.40001
1.40001
1.40001
1.40001
1.40093
1.72988
4.2474
5.13494
5.11698
5.1008
5.07806
5.05868
5.03942
5.02059
5.00152
4.98146
4.95754
4.93083
4.904
4.87535
4.84384
4.81163
4.77865
4.74534
4.70924
4.66942
4.62502
4.57738
4.52519
4.4702
4.41285
4.35311
4.29184
4.23038
4.16539
4.10084
4.03285
3.96243
3.88745
3.80968
3.72671
3.64403
1.40001
1.40001
1.40001
1.40001
1.40001
1.40001
1.40001
1.40001
1.40001
1.40001
1.40001
1.40001
1.40001
1.40001
1.40001
1.40001
1.40001
1.40001
1.40001
1.40001
1.40001
1.40001
1.40001
1.40001
1.40001
1.40001
1.40001
1.40001
1.40001
1.40001
1.40001
1.40001
1.40001
1.40001
1.40001
1.40001
1.40001
1.40001
1.40001
1.40001
1.40001
1.40001
1.40001
1.40001
1.40001
1.40001
1.40001
1.40001
1.40001
1.40001
1.40001
1.40001
1.40001
1.40001
1.40001
1.40001
1.40001
1.40001
1.40001
1.40585
2.23358
4.77648
5.12435
5.08559
5.06367
5.04002
5.01978
5.0008
4.98137
4.9611
4.93873
4.9117
4.88363
4.85382
4.82136
4.78832
4.75449
4.72069
4.68646
4.64777
4.60518
4.55916
4.50931
4.45641
4.40058
4.34195
4.28207
4.22093
4.15809
4.09631
4.03181
3.96452
3.89467
3.82139
3.74343
3.66697
1.40001
1.40001
1.40001
1.40001
1.40001
1.40001
1.40001
1.40001
1.40001
1.40001
1.40001
1.40001
1.40001
1.40001
1.40001
1.40001
1.40001
1.40001
1.40001
1.40001
1.40001
1.40001
1.40001
1.40001
1.40001
1.40001
1.40001
1.40001
1.40001
1.40001
1.40001
1.40001
1.40001
1.40001
1.40001
1.40001
1.40001
1.40001
1.40001
1.40001
1.40001
1.40001
1.40001
1.40001
1.40001
1.40001
1.40001
1.40001
1.40001
1.40001
1.40001
1.40001
1.40001
1.40001
1.40001
1.40001
1.40001
1.40001
1.40001
1.40002
1.43931
2.96714
4.96449
5.05664
5.02968
5.01718
5.00211
4.98575
4.96703
4.94625
4.92328
4.89613
4.86739
4.83622
4.80274
4.76871
4.73436
4.69938
4.66443
4.62675
4.58558
4.54223
4.4953
4.44503
4.39151
4.33478
4.27674
4.21638
4.15494
4.09524
4.03345
3.96899
3.90367
3.83374
3.76094
3.68876
1.40001
1.40001
1.40001
1.40001
1.40001
1.40001
1.40001
1.40001
1.40001
1.40001
1.40001
1.40001
1.40001
1.40001
1.40001
1.40001
1.40001
1.40001
1.40001
1.40001
1.40001
1.40001
1.40001
1.40001
1.40001
1.40001
1.40001
1.40001
1.40001
1.40001
1.40001
1.40001
1.40001
1.40001
1.40001
1.40001
1.40001
1.40001
1.40001
1.40001
1.40001
1.40001
1.40001
1.40001
1.40001
1.40001
1.40001
1.40001
1.40001
1.40001
1.40001
1.40001
1.40001
1.40001
1.40001
1.40001
1.40001
1.40001
1.40001
1.40001
1.40014
1.5457
3.41577
4.97368
5.00472
4.99825
4.9925
4.97959
4.96195
4.94032
4.91587
4.88834
4.85857
4.82632
4.79209
4.75687
4.72137
4.68549
4.64919
4.61096
4.56962
4.52786
4.48371
4.43579
4.38439
4.32968
4.2735
4.21489
4.15487
4.09706
4.03792
3.97626
3.91433
3.84726
3.77889
3.70983
1.40001
1.40001
1.40001
1.40001
1.40001
1.40001
1.40001
1.40001
1.40001
1.40001
1.40001
1.40001
1.40001
1.40001
1.40001
1.40001
1.40001
1.40001
1.40001
1.40001
1.40001
1.40001
1.40001
1.40001
1.40001
1.40001
1.40001
1.40001
1.40001
1.40001
1.40001
1.40001
1.40001
1.40001
1.40001
1.40001
1.40001
1.40001
1.40001
1.40001
1.40001
1.40001
1.40001
1.40001
1.40001
1.40001
1.40001
1.40001
1.40001
1.40001
1.40001
1.40001
1.40001
1.40001
1.40001
1.40001
1.40001
1.40001
1.40001
1.40001
1.40001
1.40124
1.66108
3.7136
4.98549
4.99729
4.98821
4.97464
4.95519
4.93308
4.90836
4.88087
4.8508
4.81844
4.7843
4.74904
4.71297
4.67629
4.63917
4.60031
4.55877
4.51705
4.47389
4.42765
4.37796
4.32486
4.27019
4.21368
4.15564
4.10043
4.04369
3.98475
3.92532
3.86136
3.79689
3.73133
1.40001
1.40001
1.40001
1.40001
1.40001
1.40001
1.40001
1.40001
1.40001
1.40001
1.40001
1.40001
1.40001
1.40001
1.40001
1.40001
1.40001
1.40001
1.40001
1.40001
1.40001
1.40001
1.40001
1.40001
1.40001
1.40001
1.40001
1.40001
1.40001
1.40001
1.40001
1.40001
1.40001
1.40001
1.40001
1.40001
1.40001
1.40001
1.40001
1.40001
1.40001
1.40001
1.40001
1.40001
1.40001
1.40001
1.40001
1.40001
1.40001
1.40001
1.40001
1.40001
1.40001
1.40001
1.40001
1.40001
1.40001
1.40001
1.40001
1.40001
1.40001
1.40001
1.40375
1.77217
3.97815
5.00118
4.99326
4.97278
4.94971
4.92509
4.89885
4.87066
4.84112
4.80992
4.77715
4.743
4.70743
4.67075
4.63325
4.59429
4.55333
4.5113
4.46752
4.42148
4.37267
4.32076
4.26768
4.21322
4.15733
4.10427
4.04989
3.99362
3.93615
3.8756
3.81442
3.75248
1.40001
1.40001
1.40001
1.40001
1.40001
1.40001
1.40001
1.40001
1.40001
1.40001
1.40001
1.40001
1.40001
1.40001
1.40001
1.40001
1.40001
1.40001
1.40001
1.40001
1.40001
1.40001
1.40001
1.40001
1.40001
1.40001
1.40001
1.40001
1.40001
1.40001
1.40001
1.40001
1.40001
1.40001
1.40001
1.40001
1.40001
1.40001
1.40001
1.40001
1.40001
1.40001
1.40001
1.40001
1.40001
1.40001
1.40001
1.40001
1.40001
1.40001
1.40001
1.40001
1.40001
1.40001
1.40001
1.40001
1.40001
1.40001
1.40001
1.40001
1.40001
1.40001
1.40001
1.40752
1.89241
4.19408
5.00078
4.98339
4.95533
4.92636
4.89655
4.8664
4.83545
4.80389
4.77125
4.73739
4.70227
4.66607
4.62899
4.59075
4.5507
4.50868
4.46445
4.41832
4.36991
4.31886
4.26683
4.2139
4.16034
4.10896
4.05669
4.00271
3.94688
3.88917
3.83069
3.77241
1.40001
1.40001
1.40001
1.40001
1.40001
1.40001
1.40001
1.40001
1.40001
1.40001
1.40001
1.40001
1.40001
1.40001
1.40001
1.40001
1.40001
1.40001
1.40001
1.40001
1.40001
1.40001
1.40001
1.40001
1.40001
1.40001
1.40001
1.40001
1.40001
1.40001
1.40001
1.40001
1.40001
1.40001
1.40001
1.40001
1.40001
1.40001
1.40001
1.40001
1.40001
1.40001
1.40001
1.40001
1.40001
1.40001
1.40001
1.40001
1.40001
1.40001
1.40001
1.40001
1.40001
1.40001
1.40001
1.40001
1.40001
1.40001
1.40001
1.40001
1.40001
1.40001
1.40001
1.40002
1.41303
2.01622
4.33946
4.99625
4.97319
4.94049
4.907
4.87385
4.84114
4.80687
4.77177
4.73575
4.69951
4.66271
4.6254
4.58722
4.54753
4.50598
4.46214
4.41629
4.36847
4.31836
4.26774
4.21713
4.1663
4.11616
4.06513
4.01257
3.95839
3.90304
3.84693
3.79201
1.40001
1.40001
1.40001
1.40001
1.40001
1.40001
1.40001
1.40001
1.40001
1.40001
1.40001
1.40001
1.40001
1.40001
1.40001
1.40001
1.40001
1.40001
1.40001
1.40001
1.40001
1.40001
1.40001
1.40001
1.40001
1.40001
1.40001
1.40001
1.40001
1.40001
1.40001
1.40001
1.40001
1.40001
1.40001
1.40001
1.40001
1.40001
1.40001
1.40001
1.40001