/*--------------------------------*- C++ -*----------------------------------*\
  =========                 |
  \\      /  F ield         | OpenFOAM: The Open Source CFD Toolbox
   \\    /   O peration     | Website:  https://openfoam.org
    \\  /    A nd           | Version:  7
     \\/     M anipulation  |
\*---------------------------------------------------------------------------*/
FoamFile
{
    version     2.0;
    format      ascii;
    class       volScalarField;
    location    "3.8";
    object      T;
}
// * * * * * * * * * * * * * * * * * * * * * * * * * * * * * * * * * * * * * //

dimensions      [0 0 0 1 0 0 0];

internalField   nonuniform List<scalar> 
19968
(
1
1
1
1
1
1
1
1
1
1
1
1
1
1
1
1
1
1
1
1
1
1
1
1
1
1
1
1
1
1
1
1
1
1
1
1
1
1
1
1
1
1
1
1
1
1
1
1
1.16951
2.40226
2.68755
2.69045
2.6963
2.70211
2.7079
2.71267
2.71614
2.71871
2.72106
2.72385
2.72744
2.73176
2.73642
2.74087
2.74469
2.74774
2.75019
2.75255
2.75532
2.75869
2.76256
2.76662
2.77036
2.7733
2.77535
2.77687
2.77835
2.78015
2.78234
2.78468
2.78684
2.78864
2.79018
2.79171
2.79342
2.79539
2.79757
2.79979
2.80187
2.8037
2.80527
2.80659
2.80756
2.80814
2.80835
2.80839
1
1
1
1
1
1
1
1
1
1
1
1
1
1
1
1
1
1
1
1
1
1
1
1
1
1
1
1
1
1
1
1
1
1
1
1
1
1
1
1
1
1
1
1
1
1
1
1
1.15764
2.39275
2.68706
2.6907
2.69608
2.7019
2.7077
2.71249
2.71601
2.71861
2.72101
2.72385
2.72748
2.73183
2.73648
2.74091
2.74466
2.74761
2.74999
2.7523
2.75503
2.75839
2.76227
2.76634
2.7701
2.77305
2.7751
2.77663
2.77812
2.77992
2.7821
2.78444
2.78659
2.78837
2.7899
2.79142
2.79312
2.79509
2.79724
2.79941
2.80142
2.80318
2.80472
2.80606
2.80709
2.80771
2.80796
2.80799
1
1
1
1
1
1
1
1
1
1
1
1
1
1
1
1
1
1
1
1
1
1
1
1
1
1
1
1
1
1
1
1
1
1
1
1
1
1
1
1
1
1
1
1
1
1
1
1
1.13096
2.37178
2.68673
2.69064
2.69579
2.70137
2.707
2.71176
2.71533
2.71805
2.7206
2.7236
2.72741
2.73186
2.73651
2.74085
2.74449
2.74731
2.74958
2.75183
2.75451
2.75786
2.76173
2.76583
2.7696
2.77258
2.77466
2.7762
2.77769
2.7795
2.78168
2.78403
2.78619
2.78798
2.7895
2.79101
2.79271
2.79467
2.79678
2.79885
2.80073
2.80235
2.80379
2.80511
2.80618
2.80688
2.80721
2.80725
1
1
1
1
1
1
1
1
1
1
1
1
1
1
1
1
1
1
1
1
1
1
1
1
1
1
1
1
1
1
1
1
1
1
1
1
1
1
1
1
1
1
1
1
1
1
1
1
1.08572
2.34126
2.68619
2.69067
2.69541
2.7006
2.70589
2.7105
2.71414
2.71707
2.71991
2.72324
2.72732
2.7319
2.73652
2.74071
2.74417
2.7468
2.74894
2.75114
2.75378
2.7571
2.76096
2.76504
2.76882
2.77182
2.77392
2.77548
2.77698
2.77878
2.78096
2.7833
2.78545
2.78723
2.78873
2.79022
2.79191
2.79384
2.79588
2.79785
2.79958
2.80108
2.80244
2.80378
2.80494
2.80573
2.80613
2.80617
1
1
1
1
1
1
1
1
1
1
1
1
1
1
1
1
1
1
1
1
1
1
1
1
1
1
1
1
1
1
1
1
1
1
1
1
1
1
1
1
1
1
1
1
1
1
1
1
1.00323
2.29053
2.68533
2.69111
2.6952
2.70004
2.70491
2.70928
2.71295
2.71617
2.71943
2.7232
2.72752
2.73217
2.73671
2.74071
2.74389
2.74625
2.74824
2.75038
2.75297
2.75624
2.76003
2.76404
2.76777
2.77075
2.77287
2.77445
2.77597
2.77777
2.77994
2.78228
2.78444
2.78624
2.78775
2.78923
2.79089
2.79277
2.79471
2.79653
2.79809
2.79943
2.80069
2.80205
2.80327
2.80411
2.80455
2.80456
1
1
1
1
1
1
1
1
1
1
1
1
1
1
1
1
1
1
1
1
1
1
1
1
1
1
1
1
1
1
1
1
1
1
1
1
1
1
1
1
1
1
1
1
1
1
1
1
1.00001
2.21902
2.68229
2.69082
2.69423
2.69883
2.70324
2.70721
2.71066
2.71392
2.71745
2.72163
2.72632
2.73118
2.73574
2.73961
2.74256
2.74468
2.74653
2.74862
2.75117
2.7544
2.75811
2.76205
2.76572
2.76868
2.77083
2.77248
2.77404
2.77587
2.77806
2.78043
2.78264
2.78449
2.78604
2.78752
2.78914
2.79094
2.79277
2.79445
2.79589
2.79712
2.79836
2.79979
2.80107
2.80191
2.8024
2.80238
1
1
1
1
1
1
1
1
1
1
1
1
1
1
1
1
1
1
1
1
1
1
1
1
1
1
1
1
1
1
1
1
1
1
1
1
1
1
1
1
1
1
1
1
1
1
1
1
1
2.11635
2.6738
2.69061
2.69348
2.69796
2.7019
2.70535
2.70838
2.71137
2.71486
2.71926
2.72441
2.72973
2.73454
2.73843
2.74124
2.74312
2.74478
2.74674
2.74919
2.75238
2.75604
2.75995
2.7636
2.76655
2.76872
2.77037
2.77193
2.77373
2.77589
2.77824
2.78046
2.78234
2.78388
2.78532
2.78683
2.78847
2.79014
2.79168
2.793
2.7942
2.79545
2.79694
2.79825
2.7991
2.79961
2.79959
1
1
1
1
1
1
1
1
1
1
1
1
1
1
1
1
1
1
1
1
1
1
1
1
1
1
1
1
1
1
1
1
1
1
1
1
1
1
1
1
1
1
1
1
1
1
1
1
1
1.97424
2.65212
2.68765
2.6908
2.6954
2.69913
2.70221
2.70476
2.70737
2.71065
2.71512
2.72072
2.72667
2.732
2.73616
2.73898
2.74069
2.74213
2.74392
2.74621
2.74934
2.75296
2.75691
2.76059
2.7636
2.76579
2.76744
2.76897
2.77071
2.77283
2.77519
2.77749
2.77945
2.78105
2.78246
2.78388
2.78539
2.7869
2.7883
2.78952
2.79065
2.79186
2.79326
2.79449
2.79533
2.79581
2.79577
1
1
1
1
1
1
1
1
1
1
1
1
1
1
1
1
1
1
1
1
1
1
1
1
1
1
1
1
1
1
1
1
1
1
1
1
1
1
1
1
1
1
1
1
1
1
1
1
1
1.78975
2.61249
2.67971
2.68585
2.69153
2.69553
2.69845
2.70063
2.70284
2.70579
2.7101
2.71584
2.72226
2.72817
2.7328
2.73589
2.73758
2.73884
2.74041
2.74245
2.74542
2.74895
2.75291
2.75665
2.75974
2.76195
2.76357
2.76499
2.76659
2.76859
2.7709
2.77322
2.77522
2.77684
2.77822
2.77956
2.78098
2.78242
2.78377
2.78497
2.7861
2.7873
2.78865
2.78985
2.79072
2.79121
2.79119
1
1
1
1
1
1
1
1
1
1
1
1
1
1
1
1
1
1
1
1
1
1
1
1
1
1
1
1
1
1
1
1
1
1
1
1
1
1
1
1
1
1
1
1
1
1
1
1
1
1.53199
2.53512
2.66991
2.67955
2.68657
2.69102
2.69424
2.69648
2.69855
2.70118
2.705
2.71032
2.71665
2.72282
2.72793
2.73151
2.73352
2.73482
2.73626
2.73807
2.74076
2.74413
2.74806
2.75191
2.75517
2.7575
2.75911
2.76042
2.76183
2.76363
2.76582
2.7681
2.77012
2.77175
2.7731
2.77439
2.77573
2.77708
2.77833
2.7794
2.78036
2.78139
2.78248
2.78348
2.78432
2.78477
2.78476
1
1
1
1
1
1
1
1
1
1
1
1
1
1
1
1
1
1
1
1
1
1
1
1
1
1
1
1
1
1
1
1
1
1
1
1
1
1
1
1
1
1
1
1
1
1
1
1
1
1.21315
2.4125
2.67533
2.67604
2.68153
2.68661
2.69058
2.69329
2.69539
2.69759
2.70052
2.70469
2.71008
2.71588
2.72114
2.72527
2.7279
2.72952
2.73102
2.73268
2.73497
2.73802
2.74173
2.74562
2.74904
2.75158
2.75327
2.75453
2.75577
2.75733
2.75931
2.76145
2.76338
2.76492
2.76616
2.76731
2.76852
2.76977
2.77093
2.77193
2.7728
2.77374
2.7747
2.77564
2.77653
2.77704
2.7771
1
1
1
1
1
1
1
1
1
1
1
1
1
1
1
1
1
1
1
1
1
1
1
1
1
1
1
1
1
1
1
1
1
1
1
1
1
1
1
1
1
1
1
1
1
1
1
1
1
1.00455
2.22474
2.67576
2.67397
2.67501
2.67832
2.68251
2.68645
2.68965
2.69238
2.69516
2.69856
2.70285
2.70775
2.71268
2.71705
2.72035
2.72255
2.72434
2.72603
2.72795
2.73057
2.73386
2.73762
2.74118
2.74402
2.74596
2.7473
2.74847
2.74983
2.75158
2.75356
2.75541
2.7569
2.75807
2.75911
2.7602
2.7613
2.76227
2.763
2.76356
2.76398
2.76428
2.7648
2.76538
2.76568
2.76565
1
1
1
1
1
1
1
1
1
1
1
1
1
1
1
1
1
1
1
1
1
1
1
1
1
1
1
1
1
1
1
1
1
1
1
1
1
1
1
1
1
1
1
1
1
1
1
1
1
1.00001
1.9133
2.63572
2.66392
2.66699
2.67152
2.67611
2.68047
2.68409
2.68706
2.68969
2.69239
2.69552
2.69915
2.70308
2.70703
2.71056
2.71334
2.71557
2.71756
2.71941
2.72165
2.72435
2.72765
2.73107
2.73405
2.73623
2.7377
2.73883
2.74001
2.74148
2.74323
2.74494
2.74625
2.74709
2.74768
2.74823
2.7488
2.74926
2.74952
2.74964
2.74976
2.75002
2.75047
2.75095
2.75108
2.75097
1
1
1
1
1
1
1
1
1
1
1
1
1
1
1
1
1
1
1
1
1
1
1
1
1
1
1
1
1
1
1
1
1
1
1
1
1
1
1
1
1
1
1
1
1
1
1
1
1
1
1.41274
2.47549
2.64862
2.65299
2.66102
2.66662
2.67179
2.67626
2.67999
2.68311
2.68589
2.68867
2.69162
2.69474
2.69804
2.70134
2.70431
2.70677
2.70886
2.71065
2.7124
2.71439
2.71688
2.71979
2.72263
2.72486
2.7264
2.72746
2.72839
2.72947
2.73083
2.73227
2.73327
2.73368
2.73369
2.73373
2.73386
2.73398
2.73392
2.73364
2.73307
2.7323
2.73102
2.72911
2.72661
2.72425
1
1
1
1
1
1
1
1
1
1
1
1
1
1
1
1
1
1
1
1
1
1
1
1
1
1
1
1
1
1
1
1
1
1
1
1
1
1
1
1
1
1
1
1
1
1
1
1
1
1
1.0144
2.16148
2.65048
2.64892
2.64979
2.65375
2.65885
2.66396
2.66845
2.67221
2.67542
2.67834
2.68111
2.68382
2.68667
2.68968
2.69268
2.69535
2.69759
2.69948
2.70101
2.70251
2.70423
2.70643
2.70886
2.71091
2.7123
2.71314
2.71369
2.71429
2.71512
2.71588
2.71623
2.71593
2.71512
2.71404
2.71276
2.71118
2.70907
2.7063
2.703
2.69949
2.69636
2.6932
2.69095
2.68938
1
1
1
1
1
1
1
1
1
1
1
1
1
1
1
1
1
1
1
1
1
1
1
1
1
1
1
1
1
1
1
1
1
1
1
1
1
1
1
1
1
1
1
1
1
1
1
1
1
1
1.00002
1.59373
2.51492
2.62865
2.63367
2.64036
2.64554
2.65076
2.65554
2.65962
2.66304
2.66606
2.66882
2.67142
2.67403
2.6768
2.67966
2.68234
2.68461
2.68647
2.68787
2.689
2.69023
2.69179
2.69335
2.69491
2.69596
2.69631
2.69634
2.69626
2.69611
2.69581
2.6951
2.69371
2.69163
2.68896
2.68585
2.68232
2.67827
2.67357
2.66813
2.66241
2.65715
2.65549
2.6532
2.66743
1
1
1
1
1
1
1
1
1
1
1
1
1
1
1
1
1
1
1
1
1
1
1
1
1
1
1
1
1
1
1
1
1
1
1
1
1
1
1
1
1
1
1
1
1
1
1
1
1
1
1
1.03558
2.26379
2.63826
2.63605
2.63708
2.63987
2.64364
2.64748
2.65085
2.65357
2.65588
2.65804
2.66017
2.66236
2.66474
2.66729
2.66979
2.67183
2.67345
2.6747
2.67569
2.67667
2.67748
2.67837
2.67926
2.67979
2.6797
2.67927
2.67843
2.67726
2.67578
2.67384
2.67118
2.6676
2.66302
2.65742
2.65074
2.64245
2.63188
2.61717
2.59696
2.56731
2.5256
2.46267
2.33543
1
1
1
1
1
1
1
1
1
1
1
1
1
1
1
1
1
1
1
1
1
1
1
1
1
1
1
1
1
1
1
1
1
1
1
1
1
1
1
1
1
1
1
1
1
1
1
1
1
1
1
1.00007
1.84872
2.56769
2.62287
2.62702
2.63198
2.63625
2.64023
2.6436
2.6461
2.64795
2.64955
2.65119
2.65294
2.65488
2.65706
2.65915
2.66087
2.66217
2.66317
2.66401
2.6646
2.66501
2.66534
2.66558
2.66548
2.66498
2.66403
2.6625
2.66043
2.65786
2.65468
2.65065
2.64541
2.63883
2.63057
2.62062
2.60794
2.592
2.56965
2.53961
2.49543
2.43915
2.32671
2.16372
1
1
1
1
1
1
1
1
1
1
1
1
1
1
1
1
1
1
1
1
1
1
1
1
1
1
1
1
1
1
1
1
1
1
1
1
1
1
1
1
1
1
1
1
1
1
1
1
1
1
1
1
1.19647
2.36245
2.61745
2.61659
2.62015
2.62585
2.6314
2.63589
2.639
2.64079
2.64188
2.64283
2.64394
2.64531
2.64701
2.64858
2.64979
2.65056
2.65105
2.65144
2.65166
2.6517
2.6515
2.65104
2.65026
2.64915
2.6476
2.6454
2.64247
2.63887
2.63445
2.6291
2.6222
2.61372
2.60294
2.58994
2.57358
2.5531
2.52615
2.4897
2.44138
2.36838
2.2627
2.1361
1
1
1
1
1
1
1
1
1
1
1
1
1
1
1
1
1
1
1
1
1
1
1
1
1
1
1
1
1
1
1
1
1
1
1
1
1
1
1
1
1
1
1
1
1
1
1
1
1
1
1
1
1.00305
2.00877
2.58422
2.59894
2.60371
2.60981
2.61627
2.62209
2.62659
2.62947
2.63116
2.63235
2.63352
2.63487
2.63639
2.63759
2.63838
2.63867
2.63864
2.63856
2.6384
2.63803
2.63727
2.63611
2.63456
2.63274
2.63047
2.62757
2.6238
2.61923
2.61367
2.6071
2.59883
2.5887
2.57598
2.56052
2.54154
2.51805
2.48867
2.45011
2.40123
2.33249
2.24737
2.15073
1
1
1
1
1
1
1
1
1
1
1
1
1
1
1
1
1
1
1
1
1
1
1
1
1
1
1
1
1
1
1
1
1
1
1
1
1
1
1
1
1
1
1
1
1
1
1
1
1
1
1
1
1
1.31744
2.39039
2.5842
2.58849
2.59467
2.60096
2.60673
2.61185
2.61581
2.61855
2.62044
2.62198
2.62357
2.62516
2.62642
2.62719
2.62714
2.62672
2.62608
2.62541
2.62455
2.62325
2.62141
2.61905
2.61641
2.61333
2.60967
2.60508
2.59957
2.59299
2.58535
2.57609
2.56483
2.55096
2.53403
2.51356
2.48867
2.45856
2.42079
2.37452
2.3182
2.25092
2.17403
1
1
1
1
1
1
1
1
1
1
1
1
1
1
1
1
1
1
1
1
1
1
1
1
1
1
1
1
1
1
1
1
1
1
1
1
1
1
1
1
1
1
1
1
1
1
1
1
1
1
1
1
1
1.00861
2.02159
2.56907
2.57781
2.58218
2.58745
2.59225
2.59692
2.60106
2.60435
2.60682
2.60873
2.61057
2.61243
2.61392
2.61478
2.61466
2.61403
2.61306
2.61205
2.61083
2.60899
2.60645
2.60332
2.59993
2.59607
2.59163
2.5862
2.57975
2.57221
2.56364
2.55372
2.5419
2.52766
2.51035
2.48969
2.46466
2.4354
2.39985
2.35858
2.31169
2.25653
2.19604
1
1
1
1
1
1
1
1
1
1
1
1
1
1
1
1
1
1
1
1
1
1
1
1
1
1
1
1
1
1
1
1
1
1
1
1
1
1
1
1
1
1
1
1
1
1
1
1
1
1
1
1
1
1
1.27862
2.37609
2.57715
2.576
2.57815
2.58068
2.58345
2.58654
2.58962
2.59221
2.59422
2.59604
2.59785
2.59943
2.60051
2.60089
2.60052
2.59973
2.59866
2.59717
2.59494
2.592
2.58844
2.58456
2.58009
2.5749
2.56865
2.56127
2.55276
2.54328
2.5327
2.52058
2.50642
2.48943
2.46968
2.44522
2.41806
2.38516
2.34912
2.30866
2.26188
2.21336
1
1
1
1
1
1
1
1
1
1
1
1
1
1
1
1
1
1
1
1
1
1
1
1
1
1
1
1
1
1
1
1
1
1
1
1
1
1
1
1
1
1
1
1
1
1
1
1
1
1
1
1
1
1
1.006
1.95488
2.5453
2.56511
2.56605
2.56754
2.5697
2.57235
2.57515
2.5775
2.57939
2.58098
2.58243
2.58374
2.58477
2.58546
2.58562
2.58522
2.58424
2.58262
2.58014
2.57703
2.5733
2.5691
2.56422
2.55854
2.55171
2.54366
2.53435
2.52403
2.51279
2.50041
2.48653
2.47031
2.45203
2.42895
2.40438
2.37454
2.3429
2.30753
2.26764
2.22677
1
1
1
1
1
1
1
1
1
1
1
1
1
1
1
1
1
1
1
1
1
1
1
1
1
1
1
1
1
1
1
1
1
1
1
1
1
1
1
1
1
1
1
1
1
1
1
1
1
1
1
1
1
1
1
1.13796
2.30937
2.56633
2.56033
2.55919
2.55978
2.56107
2.56284
2.56473
2.56635
2.56749
2.56805
2.5684
2.56876
2.56929
2.56986
2.56981
2.56914
2.5676
2.56505
2.56195
2.55826
2.554
2.54898
2.54313
2.53612
2.52786
2.51819
2.50729
2.49543
2.48258
2.46873
2.453
2.43584
2.41488
2.39287
2.36613
2.33833
2.30687
2.2728
2.23708
1
1
1
1
1
1
1
1
1
1
1
1
1
1
1
1
1
1
1
1
1
1
1
1
1
1
1
1
1
1
1
1
1
1
1
1
1
1
1
1
1
1
1
1
1
1
1
1
1
1
1
1
1
1
1
1.00128
1.74857
2.47868
2.53196
2.53922
2.54487
2.54807
2.54961
2.55099
2.55206
2.55268
2.5526
2.55234
2.55211
2.5523
2.55264
2.55264
2.55222
2.551
2.5488
2.54595
2.54235
2.53804
2.53294
2.52707
2.52027
2.51234
2.50301
2.49218
2.48029
2.46704
2.45314
2.4374
2.42101
2.40224
2.38236
2.35846
2.334
2.30583
2.27615
2.24458
1
1
1
1
1
1
1
1
1
1
1
1
1
1
1
1
1
1
1
1
1
1
1
1
1
1
1
1
1
1
1
1
1
1
1
1
1
1
1
1
1
1
1
1
1
1
1
1
1
1
1
1
1
1
1
1
1.0689
2.13867
2.53032
2.5332
2.53398
2.53563
2.53748
2.5392
2.54045
2.54092
2.54067
2.54
2.5391
2.53841
2.53782
2.53725
2.53654
2.53536
2.53337
2.5306
2.52683
2.52218
2.51686
2.51091
2.50432
2.49694
2.48838
2.47828
2.46706
2.4538
2.4399
2.42444
2.4084
2.39106
2.37269
2.35122
2.32946
2.30404
2.2783
2.24996
1
1
1
1
1
1
1
1
1
1
1
1
1
1
1
1
1
1
1
1
1
1
1
1
1
1
1
1
1
1
1
1
1
1
1
1
1
1
1
1
1
1
1
1
1
1
1
1
1
1
1
1
1
1
1
1
1.00032
1.30899
2.32869
2.5201
2.51782
2.52021
2.52264
2.52508
2.52695
2.52753
2.52728
2.52655
2.52534
2.52398
2.52248
2.52147
2.52049
2.51925
2.51743
2.51475
2.51081
2.50588
2.50036
2.4943
2.48782
2.48092
2.4732
2.46425
2.45412
2.44166
2.42839
2.41376
2.39797
2.3815
2.36419
2.3448
2.32493
2.30212
2.27925
2.2535
1
1
1
1
1
1
1
1
1
1
1
1
1
1
1
1
1
1
1
1
1
1
1
1
1
1
1
1
1
1
1
1
1
1
1
1
1
1
1
1
1
1
1
1
1
1
1
1
1
1
1
1
1
1
1
1
1
1.00723
1.80493
2.45432
2.49725
2.50182
2.50596
2.50944
2.51189
2.51292
2.51275
2.5122
2.51112
2.50966
2.50794
2.50679
2.50588
2.50449
2.50252
2.49973
2.49558
2.49045
2.48475
2.47846
2.4719
2.46508
2.458
2.44987
2.44069
2.42967
2.41746
2.40398
2.38892
2.37341
2.35708
2.33948
2.32094
2.30061
2.27967
2.25644
1
1
1
1
1
1
1
1
1
1
1
1
1
1
1
1
1
1
1
1
1
1
1
1
1
1
1
1
1
1
1
1
1
1
1
1
1
1
1
1
1
1
1
1
1
1
1
1
1
1
1
1
1
1
1
1
1
1.00001
1.08517
2.06883
2.47335
2.49686
2.49797
2.49951
2.50035
2.5002
2.49957
2.49855
2.49735
2.49586
2.49417
2.49281
2.49192
2.49058
2.48842
2.48538
2.48119
2.47592
2.47
2.46353
2.4567
2.45011
2.44305
2.43546
2.42711
2.41743
2.40639
2.39424
2.3803
2.36596
2.35062
2.33454
2.31724
2.2989
2.2793
2.25856
1
1
1
1
1
1
1
1
1
1
1
1
1
1
1
1
1
1
1
1
1
1
1
1
1
1
1
1
1
1
1
1
1
1
1
1
1
1
1
1
1
1
1
1
1
1
1
1
1
1
1
1
1
1
1
1
1
1
1.00051
1.22149
2.22329
2.47581
2.48496
2.48678
2.48594
2.48529
2.4843
2.48304
2.48167
2.48054
2.47934
2.47825
2.47752
2.47649
2.47447
2.47136
2.46706
2.46191
2.4559
2.44936
2.44252
2.43584
2.42887
2.42167
2.41386
2.40502
2.39499
2.38396
2.37131
2.35819
2.34397
2.32907
2.31308
2.29639
2.27823
2.25988
1
1
1
1
1
1
1
1
1
1
1
1
1
1
1
1
1
1
1
1
1
1
1
1
1
1
1
1
1
1
1
1
1
1
1
1
1
1
1
1
1
1
1
1
1
1
1
1
1
1
1
1
1
1
1
1
1
1
1
1.00339
1.49824
2.32509
2.46213
2.46114
2.46363
2.46475
2.46531
2.4652
2.46477
2.46445
2.46432
2.46388
2.46346
2.46271
2.46094
2.45804
2.45385
2.4487
2.44296
2.43631
2.42937
2.42253
2.41567
2.40875
2.40138
2.39314
2.38395
2.37362
2.36201
2.34989
2.33667
2.32265
2.30801
2.29261
2.27604
2.25953
1
1
1
1
1
1
1
1
1
1
1
1
1
1
1
1
1
1
1
1
1
1
1
1
1
1
1
1
1
1
1
1
1
1
1
1
1
1
1
1
1
1
1
1
1
1
1
1
1
1
1
1
1
1
1
1
1
1
1
1
1.02325
1.81579
2.40143
2.4455
2.44251
2.44419
2.44563
2.44664
2.44711
2.44751
2.44812
2.44855
2.44861
2.44814
2.4467
2.44415
2.44041
2.4355
2.42989
2.42346
2.41658
2.4099
2.40327
2.3966
2.3896
2.38184
2.37333
2.36357
2.35267
2.3413
2.32894
2.31574
2.30229
2.28783
2.27277
2.25788
1
1
1
1
1
1
1
1
1
1
1
1
1
1
1
1
1
1
1
1
1
1
1
1
1
1
1
1
1
1
1
1
1
1
1
1
1
1
1
1
1
1
1
1
1
1
1
1
1
1
1
1
1
1
1
1
1
1
1
1
1.00006
1.09391
1.9701
2.40992
2.43185
2.43214
2.43339
2.43334
2.43324
2.43308
2.43322
2.43364
2.43368
2.43327
2.43204
2.42979
2.42649
2.42214
2.41692
2.41088
2.40418
2.39781
2.39158
2.38521
2.37851
2.37116
2.36314
2.35395
2.34356
2.33291
2.32135
2.30883
2.29615
2.28238
2.2685
2.25468
1
1
1
1
1
1
1
1
1
1
1
1
1
1
1
1
1
1
1
1
1
1
1
1
1
1
1
1
1
1
1
1
1
1
1
1
1
1
1
1
1
1
1
1
1
1
1
1
1
1
1
1
1
1
1
1
1
1
1
1
1
1.00065
1.17126
2.04941
2.39746
2.4237
2.42386
2.42359
2.42265
2.42173
2.42099
2.42043
2.41976
2.41875
2.41721
2.41497
2.41191
2.408
2.40335
2.3979
2.39174
2.38576
2.37993
2.37396
2.36763
2.36062
2.353
2.34439
2.33464
2.32471
2.31378
2.30189
2.28971
2.27656
2.26355
2.25058
1
1
1
1
1
1
1
1
1
1
1
1
1
1
1
1
1
1
1
1
1
1
1
1
1
1
1
1
1
1
1
1
1
1
1
1
1
1
1
1
1
1
1
1
1
1
1
1
1
1
1
1
1
1
1
1
1
1
1
1
1
1
1.00205
1.2408
2.10615
2.38375
2.41176
2.41133
2.41088
2.41029
2.40945
2.4083
2.40698
2.40537
2.40337
2.40086
2.39771
2.39393
2.38958
2.38463
2.37918
2.37367
2.36814
2.3625
2.35653
2.34991
2.34273
2.33468
2.32561
2.31636
2.30613
2.29493
2.28318
2.27072
2.25834
2.24608
1
1
1
1
1
1
1
1
1
1
1
1
1
1
1
1
1
1
1
1
1
1
1
1
1
1
1
1
1
1
1
1
1
1
1
1
1
1
1
1
1
1
1
1
1
1
1
1
1
1
1
1
1
1
1
1
1
1
1
1
1
1
1
1.00416
1.31085
2.14638
2.37169
2.39169
2.39443
2.39571
2.3956
2.39514
2.39408
2.39247
2.39031
2.38758
2.3843
2.38052
2.3763
2.3717
2.36674
2.36158
2.35629
2.35091
2.34523
2.33892
2.33207
2.32457
2.31626
2.30765
2.29818
2.28776
2.27655
2.2648
2.25299
2.24145
1
1
1
1
1
1
1
1
1
1
1
1
1
1
1
1
1
1
1
1
1
1
1
1
1
1
1
1
1
1
1
1
1
1
1
1
1
1
1
1
1
1
1
1
1
1
1
1
1
1
1
1
1
1
1
1
1
1
1
1
1
1
1
1.00001
1.00729
1.37708
2.17377
2.35595
2.37154
2.37568
2.37785
2.3791
2.37902
2.37817
2.37642
2.37396
2.37097
2.36742
2.36341
2.359
2.35429
2.34941
2.34435
2.33914
2.33364
2.32755
2.32111
2.31426
2.30674
2.2987
2.28988
2.28019
2.26973
2.25878
2.24764
2.2369
1
1
1
1
1
1
1
1
1
1
1
1
1
1
1
1
1
1
1
1
1
1
1
1
1
1
1
1
1
1
1
1
1
1
1
1
1
1
1
1
1
1
1
1
1
1
1
1
1
1
1
1
1
1
1
1
1
1
1
1
1
1
1
1
1.00001
1.01158
1.4305
2.18986
2.34306
2.35359
2.35629
2.3587
2.35989
2.36024
2.35979
2.3586
2.35658
2.35375
2.35017
2.34606
2.34167
2.33708
2.33229
2.32726
2.32189
2.31623
2.31034
2.30395
2.2969
2.28927
2.281
2.27194
2.26241
2.25238
2.24199
2.23201
1
1
1
1
1
1
1
1
1
1
1
1
1
1
1
1
1
1
1
1
1
1
1
1
1
1
1
1
1
1
1
1
1
1
1
1
1
1
1
1
1
1
1
1
1
1
1
1
1
1
1
1
1
1
1
1
1
1
1
1
1
1
1
1
1
1.00003
1.01623
1.46999
2.19891
2.33145
2.33884
2.33864
2.33934
2.33967
2.34021
2.34011
2.33937
2.33773
2.3352
2.33197
2.32829
2.32427
2.31995
2.31544
2.31067
2.30544
2.29978
2.29362
2.2868
2.27947
2.27174
2.26338
2.25455
2.24543
2.23606
2.2265
1
1
1
1
1
1
1
1
1
1
1
1
1
1
1
1
1
1
1
1
1
1
1
1
1
1
1
1
1
1
1
1
1
1
1
1
1
1
1
1
1
1
1
1
1
1
1
1
1
1
1
1
1
1
1
1
1
1
1
1
1
1
1
1
1
1
1.00005
1.02055
1.4956
2.19917
2.32264
2.32392
2.32222
2.32166
2.32116
2.32091
2.32032
2.31928
2.31773
2.31563
2.31297
2.30982
2.30631
2.30253
2.29846
2.29381
2.28848
2.28261
2.27629
2.2693
2.262
2.25449
2.24636
2.23795
2.22921
2.22056
1
1
1
1
1
1
1
1
1
1
1
1
1
1
1
1
1
1
1
1
1
1
1
1
1
1
1
1
1
1
1
1
1
1
1
1
1
1
1
1
1
1
1
1
1
1
1
1
1
1
1
1
1
1
1
1
1
1
1
1
1
1
1
1
1
1
1
1.00007
1.02381
1.50513
2.19254
2.3112
2.31073
2.30788
2.30646
2.30472
2.30316
2.30162
2.29991
2.298
2.29584
2.29336
2.29071
2.28769
2.28421
2.28029
2.27586
2.27079
2.26522
2.25903
2.25225
2.24501
2.23761
2.22999
2.22189
2.21435
1
1
1
1
1
1
1
1
1
1
1
1
1
1
1
1
1
1
1
1
1
1
1
1
1
1
1
1
1
1
1
1
1
1
1
1
1
1
1
1
1
1
1
1
1
1
1
1
1
1
1
1
1
1
1
1
1
1
1
1
1
1
1
1
1
1
1
1
1.00008
1.02522
1.49925
2.17431
2.29704
2.299
2.29591
2.2934
2.29077
2.28794
2.28501
2.28229
2.27977
2.27704
2.27411
2.27103
2.26783
2.2645
2.26111
2.2572
2.25252
2.24726
2.24148
2.23523
2.22865
2.2217
2.21462
2.20712
1
1
1
1
1
1
1
1
1
1
1
1
1
1
1
1
1
1
1
1
1
1
1
1
1
1
1
1
1
1
1
1
1
1
1
1
1
1
1
1
1
1
1
1
1
1
1
1
1
1
1
1
1
1
1
1
1
1
1
1
1
1
1
1
1
1
1
1
1
1.00009
1.02461
1.47604
2.1427
2.28797
2.28708
2.2837
2.28048
2.27674
2.27341
2.27008
2.2665
2.26279
2.25916
2.2555
2.25198
2.24853
2.24501
2.24142
2.23769
2.23378
2.22945
2.22456
2.21894
2.21261
2.20611
2.19933
1
1
1
1
1
1
1
1
1
1
1
1
1
1
1
1
1
1
1
1
1
1
1
1
1
1
1
1
1
1
1
1
1
1
1
1
1
1
1
1
1
1
1
1
1
1
1
1
1
1
1
1
1
1
1
1
1
1
1
1
1
1
1
1
1
1
1
1
1
1
1.00009
1.02154
1.43422
2.09237
2.26899
2.27856
2.27344
2.26939
2.26466
2.25975
2.2553
2.25155
2.24754
2.24311
2.23875
2.23462
2.2308
2.22719
2.22364
2.22007
2.21616
2.21197
2.20737
2.20225
2.19696
2.1911
1
1
1
1
1
1
1
1
1
1
1
1
1
1
1
1
1
1
1
1
1
1
1
1
1
1
1
1
1
1
1
1
1
1
1
1
1
1
1
1
1
1
1
1
1
1
1
1
1
1
1
1
1
1
1
1
1
1
1
1
1
1
1
1
1
1
1
1
1
1
1
1.00007
1.01738
1.37503
2.02957
2.24114
2.26716
2.26159
2.25762
2.25264
2.2475
2.24254
2.23768
2.23311
2.22869
2.22436
2.22019
2.21608
2.21204
2.20791
2.2039
2.19982
2.19533
2.19077
2.18568
2.1807
1
1
1
1
1
1
1
1
1
1
1
1
1
1
1
1
1
1
1
1
1
1
1
1
1
1
1
1
1
1
1
1
1
1
1
1
1
1
1
1
1
1
1
1
1
1
1
1
1
1
1
1
1
1
1
1
1
1
1
1
1
1
1
1
1
1
1
1
1
1
1
1
1.00006
1.01216
1.3058
1.9309
2.21246
2.25216
2.24663
2.24326
2.23961
2.23555
2.23117
2.22642
2.2214
2.21667
2.21234
2.20817
2.20393
2.19935
2.19458
2.18965
2.18461
2.17967
2.17451
2.1698
1
1
1
1
1
1
1
1
1
1
1
1
1
1
1
1
1
1
1
1
1
1
1
1
1
1
1
1
1
1
1
1
1
1
1
1
1
1
1
1
1
1
1
1
1
1
1
1
1
1
1
1
1
1
1
1
1
1
1
1
1
1
1
1
1
1
1
1
1
1
1
1
1
1.00003
1.00765
1.22284
1.8126
2.17259
2.23218
2.22983
2.22837
2.226
2.22322
2.21982
2.21585
2.21151
2.20694
2.20227
2.19746
2.19236
2.1872
2.18186
2.17643
2.17101
2.16533
2.15986
1
1
1
1
1
1
1
1
1
1
1
1
1
1
1
1
1
1
1
1
1
1
1
1
1
1
1
1
1
1
1
1
1
1
1
1
1
1
1
1
1
1
1
1
1
1
1
1
1
1
1
1
1
1
1
1
1
1
1
1
1
1
1
1
1
1
1
1
1
1
1
1
1
1
1.00002
1.00408
1.14338
1.68597
2.12313
2.2077
2.21262
2.21144
2.21048
2.20877
2.20629
2.20312
2.19952
2.19556
2.19101
2.18601
2.18075
2.17518
2.1698
2.16406
2.15822
2.15252
1
1
1
1
1
1
1
1
1
1
1
1
1
1
1
1
1
1
1
1
1
1
1
1
1
1
1
1
1
1
1
1
1
1
1
1
1
1
1
1
1
1
1
1
1
1
1
1
1
1
1
1
1
1
1
1
1
1
1
1
1
1
1
1
1
1
1
1
1
1
1
1
1
1
1
1.00001
1.00182
1.08238
1.5579
2.06008
2.17491
2.20181
2.19357
2.19362
2.19282
2.1911
2.1887
2.18579
2.18233
2.17835
2.17379
2.16903
2.16397
2.15828
2.15262
2.14667
1
1
1
1
1
1
1
1
1
1
1
1
1
1
1
1
1
1
1
1
1
1
1
1
1
1
1
1
1
1
1
1
1
1
1
1
1
1
1
1
1
1
1
1
1
1
1
1
1
1
1
1
1
1
1
1
1
1
1
1
1
1
1
1
1
1
1
1
1
1
1
1
1
1
1
1
1
1.00071
1.04244
1.43
1.95777
2.1498
2.18288
2.17917
2.17771
2.17633
2.17484
2.17287
2.17054
2.16765
2.16432
2.16072
2.15644
2.15182
2.14683
2.14119
1
1
1
1
1
1
1
1
1
1
1
1
1
1
1
1
1
1
1
1
1
1
1
1
1
1
1
1
1
1
1
1
1
1
1
1
1
1
1
1
1
1
1
1
1
1
1
1
1
1
1
1
1
1
1
1
1
1
1
1
1
1
1
1
1
1
1
1
1
1
1
1
1
1
1
1
1
1
1.00024
1.01955
1.29644
1.82322
2.112
2.16514
2.16412
2.16119
2.15983
2.15852
2.15671
2.15461
2.15235
2.14982
2.14692
2.14343
2.13922
2.13463
1
1
1
1
1
1
1
1
1
1
1
1
1
1
1
1
1
1
1
1
1
1
1
1
1
1
1
1
1
1
1
1
1
1
1
1
1
1
1
1
1
1
1
1
1
1
1
1
1
1
1
1
1
1
1
1
1
1
1
1
1
1
1
1
1
1
1
1
1
1
1
1
1
1
1
1
1
1
1
1.00007
1.00796
1.17311
1.66164
2.05907
2.13444
2.15335
2.14747
2.14509
2.14325
2.14149
2.13925
2.13695
2.13476
2.13208
2.12929
2.12632
1
1
1
1
1
1
1
1
1
1
1
1
1
1
1
1
1
1
1
1
1
1
1
1
1
1
1
1
1
1
1
1
1
1
1
1
1
1
1
1
1
1
1
1
1
1
1
1
1
1
1
1
1
1
1
1
1
1
1
1
1
1
1
1
1
1
1
1
1
1
1
1
1
1
1
1
1
1
1
1
1.00002
1.00274
1.0825
1.50125
1.96073
2.10788
2.13775
2.13483
2.13158
2.1295
2.12707
2.12406
2.1212
2.11848
2.11658
2.1148
1
1
1
1
1
1
1
1
1
1
1
1
1
1
1
1
1
1
1
1
1
1
1
1
1
1
1
1
1
1
1
1
1
1
1
1
1
1
1
1
1
1
1
1
1
1
1
1
1
1
1
1
1
1
1
1
1
1
1
1
1
1
1
1
1
1
1
1
1
1
1
1
1
1
1
1
1
1
1
1
1
1
1.00076
1.03322
1.34071
1.81894
2.07229
2.12273
2.1235
2.11849
2.11492
2.11222
2.10898
2.10637
2.10399
2.1013
1
1
1
1
1
1
1
1
1
1
1
1
1
1
1
1
1
1
1
1
1
1
1
1
1
1
1
1
1
1
1
1
1
1
1
1
1
1
1
1
1
1
1
1
1
1
1
1
1
1
1
1
1
1
1
1
1
1
1
1
1
1
1
1
1
1
1
1
1
1
1
1
1
1
1
1
1
1
1
1
1
1
1
1.00017
1.01168
1.18914
1.64669
2.01369
2.09055
2.10913
2.10567
2.10245
2.09997
2.09764
2.09468
2.09035
1
1
1
1
1
1
1
1
1
1
1
1
1
1
1
1
1
1
1
1
1
1
1
1
1
1
1
1
1
1
1
1
1
1
1
1
1
1
1
1
1
1
1
1
1
1
1
1
1
1
1
1
1
1
1
1
1
1
1
1
1
1
1
1
1
1
1
1
1
1
1
1
1
1
1
1
1
1
1
1
1
1
1
1
1.00003
1.00339
1.08298
1.46199
1.9089
2.06189
2.0937
2.09226
2.08797
2.08588
2.08528
2.08314
1
1
1
1
1
1
1
1
1
1
1
1
1
1
1
1
1
1
1
1
1
1
1
1
1
1
1
1
1
1
1
1
1
1
1
1
1
1
1
1
1
1
1
1
1
1
1
1
1
1
1
1
1
1
1
1
1
1
1
1
1
1
1
1
1
1
1
1
1
1
1
1
1
1
1
1
1
1
1
1
1
1
1
1
1
1.00001
1.00081
1.02778
1.29936
1.72481
2.02313
2.07743
2.07993
2.07823
2.07406
2.0715
1
1
1
1
1
1
1
1
1
1
1
1
1
1
1
1
1
1
1
1
1
1
1
1
1
1
1
1
1
1
1
1
1
1
1
1
1
1
1
1
1
1
1
1
1
1
1
1
1
1
1
1
1
1
1
1
1
1
1
1
1
1
1
1
1
1
1
1
1
1
1
1
1
1
1
1
1
1
1
1
1
1
1
1
1
1
1
1.00013
1.00907
1.13602
1.55051
1.91943
2.03984
2.07173
2.07027
2.06678
1
1
1
1
1
1
1
1
1
1
1
1
1
1
1
1
1
1
1
1
1
1
1
1
1
1
1
1
1
1
1
1
1
1
1
1
1
1
1
1
1
1
1
1
1
1
1
1
1
1
1
1
1
1
1
1
1
1
1
1
1
1
1
1
1
1
1
1
1
1
1
1
1
1
1
1
1
1
1
1
1
1
1
1
1
1
1
1
1.00002
1.00199
1.05051
1.34873
1.7619
2.01219
2.04751
2.05801
1
1
1
1
1
1
1
1
1
1
1
1
1
1
1
1
1
1
1
1
1
1
1
1
1
1
1
1
1
1
1
1
1
1
1
1
1
1
1
1
1
1
1
1
1
1
1
1
1
1
1
1
1
1
1
1
1
1
1
1
1
1
1
1
1
1
1
1
1
1
1
1
1
1
1
1
1
1
1
1
1
1
1
1
1
1
1
1
1
1
1.00035
1.01386
1.17203
1.57331
1.91088
2.0338
1
1
1
1
1
1
1
1
1
1
1
1
1
1
1
1
1
1
1
1
1
1
1
1
1
1
1
1
1
1
1
1
1
1
1
1
1
1
1
1
1
1
1
1
1
1
1
1
1
1
1
1
1
1
1
1
1
1
1
1
1
1
1
1
1
1
1
1
1
1
1
1
1
1
1
1
1
1
1
1
1
1
1
1
1
1
1
1
1
1
1
1.00004
1.00321
1.0618
1.36431
1.80617
1
1
1
1
1
1
1
1
1
1
1
1
1
1
1
1
1
1
1
1
1
1
1
1
1
1
1
1
1
1
1
1
1
1
1
1
1
1
1
1
1
1
1
1
1
1
1
1
1
1
1
1
1
1
1
1
1
1
1
1
1
1
1
1
1
1
1
1
1
1
1
1
1
1
1
1
1
1
1
1
1
1
1
1
1
1
1
1
1
1
1
1
1.00001
1.0005
1.01727
1.20092
1
1
1
1
1
1
1
1
1
1
1
1
1
1
1
1
1
1
1
1
1
1
1
1
1
1
1
1
1
1
1
1
1
1
1
1
1
1
1
1
1
1
1
1
1
1
1
1
1
1
1
1
1
1
1
1
1
1
1
1
1
1
1
1
1
1
1
1
1
1
1
1
1
1
1
1
1
1
1
1
1
1
1
1
1
1
1
1
1
1
1
1
1
1
1.00008
1.00369
1
1
1
1
1
1
1
1
1
1
1
1
1
1
1
1
1
1
1
1
1
1
1
1
1
1
1
1
1
1
1
1
1
1
1
1
1
1
1
1
1
1
1
1
1
1
1
1
1
1
1
1
1
1
1
1
1
1
1
1
1
1
1
1
1
1
1
1
1
1
1
1
1
1
1
1
1
1
1
1
1
1
1
1
1
1
1
1
1
1
1
1
1
1
1
1.00001
1
1
1
1
1
1
1
1
1
1
1
1
1
1
1
1
1
1
1
1
1
1
1
1
1
1
1
1
1
1
1
1
1
1
1
1
1
1
1
1
1
1
1
1
1
1
1
1
1
1
1
1
1
1
1
1
1
1
1
1
1
1
1
1
1
1
1
1
1
1
1
1
1
1
1
1
1
1
1
1
1
1
1
1
1
1
1
1
1
1
1
1
1
1
1
1
1
1
1
1
1
1
1
1
1
1
1
1
1
1
1
1
1
1
1
1
1
1
1
1
1
1
1
1
1
1
1
1
1
1
1
1
1
1
1
1
1
1
1
1
1
1
1
1
1
1
1
1
1
1
1
1
1
1
1
1
1
1
1
1
1
1
1
1
1
1
1
1
1
1
1
1
1
1
1
1
1
1
1
1
1
1
1
1
1
1
1
1
1
1
1
1
1
1
1
1
1
1
1
1
1
1
1
1
1
1
1
1
1
1
1
1
1
1
1
1
1
1
1
1
1
1
1
1
1
1
1
1
1
1
1
1
1
1
1
1
1
1
1
1
1
1
1
1
1
1
1
1
1
1
1
1
1
1
1
1
1
1
1
1
1
1
1
1
1
1
1
1
1
1
1
1
1
1
1
1
1
1
1
1
1
1
1
1
1
1
1
1
1
1
1
1
1
1
1
1
1
1
1
1
1
1
1
1
1
1
1
1
1
1
1
1
1
1
1
1
1
1
1
1
1
1
1
1
1
1
1
1
1
1
1
1
1
1
1
1
1
1
1
1
1
1
1
1
1
1
1
1
1
1
1
1
1
1
1
1
1
1
1
1
1
1
1
1
1
1
1
1
1
1
1
1
1
1
1
1
1
1
1
1
1
1
1
1
1
1
1
1
1
1
1
1
1
1
1
1
1
1
1
1
1
1
1
1
1
1
1
1
1
1
1
1
1
1
1
1
1
1
1
1
1
1
1
1
1
1
1
1
1
1
1
1
1
1
1
1
1
1
1
1
1
1
1
1
1
1
1
1
1
1
1
1
1
1
1
1
1
1
1
1
1
1
1
1
1
1
1
1
1
1
1
1
1
1
1
1
1
1
1
1
1
1
1
1
1
1
1
1
1
1
1
1
1
1
1
1
1
1
1
1
1
1
1
1
1
1
1
1
1
1
1
1
1
1
1
1
1
1
1
1
1
1
1
1
1
1
1
1
1
1
1
1
1
1
1
1
1
1
1
1
1
1
1
1
1
1
1
1
1
1
1
1
1
1
1
1
1
1
1
1
1
1
1
1
1
1
1
1
1
1
1
1
1
1
1
1
1
1
1
1
1
1
1
1
1
1
1
1
1
1
1
1
1
1
1
1
1
1
1
1
1
1
1
1
1
1
1
1
1
1
1
1
1
1
1
1
1
1
1
1
1
1
1
1
1
1
1
1
1
1
1
1
1
1
1
1
1
1
1
1
1
1
1
1
1
1
1
1
1
1
1
1
1
1
1
1
1
1
1
1
1
1
1
1
1
1
1
1
1
1
1
1
1
1
1
1
1
1
1
1
1
1
1
1
1
1
1
1
1
1
1
1
1
1
1
1
1
1
1
1
1
1
1
1
1
1
1
1
1
1
1
1
1
1
1
1
1
1
1
1
1
1
1
1
1
1
1
1
1
1
1
1
1
1
1
1
1
1
1
1
1
1
1
1
1
1
1
1
1
1
1
1
1
1
1
1
1
1
1
1
1
1
1
1
1
1
1
1
1
1
1
1
1
1
1
1
1
1
1
1
1
1
1
1
1
1
1
1
1
1
1
1
1
1
1
1
1
1
1
1
1
1
1
1
1
1
1
1
1
1
1
1
1
1
1
1
1
1
1
1
1
1
1
1
1
1
1
1
1
1
1
1
1
1
1
1
1
1
1
1
1
1
1
1
1
1
1
1
1
1
1
1
1
1
1
1
1
1
1
1
1
1
1
1
1
1
1
1
1
1
1
1
1
1
1
1
1
1
1
1
1
1
1
1
1
1
1
1
1
1
1
1
1
1
1
1
1
1
1
1
1
1
1
1
1
1
1
1
1
1
1
1
1
1
1
1
1
1
1
1
1
1
1
1
1
1
1
1
1
1
1
1
1
1
1
1
1
1
1
1
1
1
1
1
1
1
1
1
1
1
1
1
1
1
1
1
1
1
1
1
1
1
1
1
1
1
1
1
1
1
1
1
1
1
1
1
1
1
1
1
1
1
1
1
1
1
1
1
1
1
1
1
1
1
1
1
1
1
1
1
1
1
1
1
1
1
1
1
1
1
1
1
1
1
1
1
1
1
1
1
1
1
1
1
1
1
1
1
1
1
1
1
1
1
1
1
1
1
1
1
1
1
1
1
1
1
1
1
1
1
1
1
1
1
1
1
1
1
1
1
1
1
1
1
1
1
1
1
1
1
1
1
1
1
1
1
1
1
1
1
1
1
1
1
1
1
1
1
1
1
1
1
1
1
1
1
1
1
1
1
1
1
1
1
1
1
1
1
1
1
1
1
1
1
1
1
1
1
1
1
1
1
1
1
1
1
1
1
1
1
1
1
1
1
1
1
1
1
1
1
1
1
1
1
1
1
1
1
1
1
1
1
1
1
1
1
1
1
1
1
1
1
1
1
1
1
1
1
1
1
1
1
1
1
1
1
1
1
1
1
1
1
1
1
1
1
1
1
1
1
1
1
1
1
1
1
1
1
1
1
1
1
1
1
1
1
1
1
1
1
1
1
1
1
1
1
1
1
1
1
1
1
1
1
1
1
1
1
1
1
1
1
1
1
1
1
1
1
1
1
1
1
1
1
1
1
1
1
1
1
1
1
1
1
1
1
1
1
1
1
1
1
1
1
1
1
1
1
1
1
1
1
1
1
1
1
1
1
1
1
1
1
1
1
1
1
1
1
1
1
1
1
1
1
1
1
1
1
1
1
1
1
1
1
1
1
1
1
1
1
1
1
1
1
1
1
1
1
1
1
1
1
1
1
1
1
1
1
1
1
1
1
1
1
1
1
1
1
1
1
1
1
1
1
1
1
1
1
1
1
1
1
1
1
1
1
1
1
1
1
1
1
1
1
1
1
1
1
1
1
1
1
1
1
1
1
1
1
1
1
1
1
1
1
1
1
1
1
1
1
1
1
1
1
1
1
1
1
1
1
1
1
1
1
1
1
1
1
1
1
1
1
1
1
1
1
1
1
1
1
1
1
1
1
1
1
1
1
1
1
1
1
1
1
1
1
1
1
1
1
1.48463
0.911434
0.766786
0.626252
0.70291
0.845343
0.994869
1.0529
1.091
1.1554
1.24989
1.3386
1.41461
1.46432
1.47063
1.47258
1.48631
1.52836
1.58706
1.60736
1.61441
1.61154
1.5977
1.58933
1.59788
1.61728
1.62804
1.62834
1.62183
1.61353
1.61126
1.61308
1.62597
1.64597
1.65338
1.6524
1.64564
1.63746
1.6361
1.63775
1.64288
1.6483
1.65217
1.65581
1.6588
1.66169
1.66442
1.66505
1.66444
1.66116
1.65615
1.65313
1.65196
1.65237
1.65347
1.65226
1.64895
1.64341
2.24984
2.79004
2.79203
2.78553
2.78318
2.78184
2.78206
2.78163
2.77901
2.7729
2.76316
2.75047
2.73606
2.72171
2.70898
2.69867
2.69091
2.68533
2.68087
2.67581
2.66829
2.65758
2.64537
2.63373
2.62404
2.61707
2.61249
2.6083
2.60273
2.59485
2.58547
2.57643
2.56821
2.56119
2.55536
2.54989
2.54337
2.53457
2.52451
2.51464
2.5054
2.49732
2.4909
2.48568
2.47986
2.47159
2.46157
2.45138
2.44207
2.43438
2.4289
2.42585
2.42358
2.41961
2.41419
2.40837
2.4017
2.39472
2.38845
2.38242
2.37651
2.37066
2.36414
2.35639
2.34763
2.33855
2.32952
2.32097
2.31297
2.30575
2.29941
2.29375
2.28852
2.28352
2.27877
2.27439
2.2704
2.26677
2.26318
2.25917
2.25449
2.24848
2.24006
2.22813
2.21608
2.20632
2.19882
2.19294
2.18756
2.18297
2.17903
2.17387
2.1675
2.16074
2.15385
2.14759
2.142
2.13727
2.13335
2.12933
2.12505
2.12033
2.1148
2.10857
2.1022
2.09609
2.0903
2.08482
2.07954
2.07422
2.06877
2.06346
2.05836
2.05352
2.04892
2.04402
2.0388
2.03266
2.02527
2.01779
2.01185
2.00754
2.00415
2.00114
1.99848
1.99566
1.99219
1.98814
1.98285
1.97583
1.96872
1.96282
1.95902
1.95389
1.72089
1.44347
1.2494
1.00699
0.998841
1.03914
1.03533
0.993493
0.987118
0.994542
1.01596
1.06608
1.11009
1.13362