/*--------------------------------*- C++ -*----------------------------------*\
  =========                 |
  \\      /  F ield         | OpenFOAM: The Open Source CFD Toolbox
   \\    /   O peration     | Website:  https://openfoam.org
    \\  /    A nd           | Version:  7
     \\/     M anipulation  |
\*---------------------------------------------------------------------------*/
FoamFile
{
    version     2.0;
    format      ascii;
    class       volScalarField;
    location    "1.41";
    object      T;
}
// * * * * * * * * * * * * * * * * * * * * * * * * * * * * * * * * * * * * * //

dimensions      [0 0 0 1 0 0 0];

internalField   nonuniform List<scalar> 
1000
(
0
0
0
0
0
0
0
0
0
0
0
0
0
0
0
0
0
0
0
0
0
0
0
0
0
0
0
0
0
0
0
0
0
0
0
0
0
0
0
0
0
0
0
0
0
0
0
0
0
0
0
0
0
0
0
0
0
0
0
0
0
0
0
0
0
0
0
0
0
0
0
0
0
0
0
0
0
0
0
0
0
0
0
0
0
0
0
0
0
0
0
0
0
0
0
0
0
0
0
0
0
0
0
0
0
0
0
0
0
0
0
0
0
0
0
0
0
0
0
0
0
0
0
0
0
0
0
0
0
0
0
0
0
0
0
0
0
0
0
0
0
0
0
0
0
0
0
0
0
0
0
0
0
0
0
0
0
0
0
0
0
0
0
0
0
0
0
0
0
0
0
0
0
0
0
0
0
0
0
0
0
0
0
0
0
0
0
0
0
0
0
0
0
0
0
0
0
0
0
0
0
0
0
0
0
0
0
0
0
0
0
0
0
0
0
0
0
0
0
0
0
0
0
0
0
0
0
0
0
0
0
0
0
0
0
0
0
0
0
0
0
0
0
0
0
0
0
0
0
0
0
0
0
0
0
0
0
0
0
0
0
0
0
0
0
0
0
0
0
0
0
0
0
0
0
0
0
0
0
0
0
0
0
0
0
0
0
0
0
0
0
0
0
0
0
0
0
0
0
0
0
0
0
0
0
0
0
0
0
-1.90842e-110
6.25961e-108
-1.01238e-105
1.07613e-103
-8.455e-102
5.23551e-100
-2.66051e-98
1.14074e-96
-4.21105e-95
1.35897e-93
-3.87992e-92
9.89371e-91
-2.27074e-89
4.7206e-88
-8.93563e-87
1.54683e-85
-2.45766e-84
3.59468e-83
-4.85194e-82
6.05518e-81
-6.9973e-80
7.49486e-79
-7.44494e-78
6.85869e-77
-5.85709e-76
4.63097e-75
-3.3833e-74
2.27685e-73
-1.40482e-72
7.89063e-72
-3.98997e-71
1.78259e-70
-6.79033e-70
2.02674e-69
-3.38696e-69
-8.53328e-69
1.06366e-67
-5.40797e-67
1.7517e-66
-2.7357e-66
-8.04721e-66
7.86517e-65
-3.06613e-64
5.71354e-64
8.93094e-64
-1.07831e-62
3.84046e-62
-4.80946e-62
-2.10468e-61
1.35698e-60
-3.16647e-60
-1.54521e-60
3.65175e-59
-1.14622e-58
5.27945e-59
8.67887e-58
-3.25113e-57
2.52535e-57
2.01165e-56
-7.94277e-56
5.87821e-56
4.75297e-55
-1.70928e-54
6.98121e-55
1.11373e-53
-3.16375e-53
-7.72004e-54
2.41445e-52
-4.65685e-52
-6.7875e-52
4.48182e-51
-4.2457e-51
-2.09401e-50
6.48428e-50
1.67312e-50
-4.24316e-49
5.91399e-49
1.5711e-48
-5.80793e-48
-4.54547e-49
3.31351e-47
-4.24227e-47
-1.23828e-46
3.80951e-46
1.8802e-46
-2.17703e-45
1.46953e-45
9.26762e-45
-1.66657e-44
-2.83515e-44
1.05547e-43
3.79829e-44
-5.17232e-43
2.48565e-43
2.11045e-42
-2.64022e-42
-7.26908e-42
1.60191e-41
2.04421e-41
-7.80659e-41
-3.98759e-41
3.33016e-40
-4.17044e-42
-1.29149e-39
5.56698e-40
4.65518e-39
-3.72197e-39
-1.5845e-38
1.80892e-38
5.16198e-38
-7.55406e-38
-1.6304e-37
2.86329e-37
5.05706e-37
-1.01009e-36
-1.55915e-36
3.35936e-36
4.82444e-36
-1.05986e-35
-1.50552e-35
3.17641e-35
4.73209e-35
-9.01499e-35
-1.48774e-34
2.40219e-34
4.62911e-34
-5.90716e-34
-1.40832e-33
1.29405e-33
4.13794e-33
-2.31219e-33
-1.15962e-32
2.2969e-33
3.0571e-32
5.31136e-33
-7.44915e-32
-4.34496e-32
1.63252e-31
1.78053e-31
-3.05076e-31
-5.68329e-31
4.18464e-31
1.52647e-30
-1.07551e-31
-3.48098e-30
-1.81894e-30
6.50409e-30
8.03201e-30
-8.68029e-30
-2.2777e-29
2.44694e-30
4.87697e-29
3.04548e-29
-7.57871e-29
-1.18827e-28
5.66413e-29
2.77877e-28
1.18721e-28
-4.32537e-28
-5.96864e-28
2.88093e-28
1.36834e-27
7.22122e-28
-1.82258e-27
-3.04278e-27
3.10777e-28
5.71551e-27
5.21877e-27
-4.62954e-27
-1.38962e-26
-6.82736e-27
1.63534e-26
2.96118e-26
5.61524e-27
-4.32132e-26
-5.93907e-26
1.67793e-27
9.98185e-26
1.18391e-25
-1.69294e-26
-2.13409e-25
-2.43408e-25
3.05258e-26
4.30672e-25
5.21136e-25
1.1691e-26
-8.13864e-25
-1.13949e-24
-2.99042e-25
1.38147e-24
2.44813e-24
1.3615e-24
-1.86858e-24
-4.9142e-24
-4.41687e-24
1.05192e-24
8.56781e-24
1.15988e-23
4.63124e-24
-1.09699e-23
-2.47974e-23
-2.26156e-23
2.40329e-24
3.96901e-23
6.18975e-23
4.0506e-23
-2.99151e-23
-1.15124e-22
-1.49642e-22
-7.51628e-23
1.07685e-22
3.08858e-22
3.73759e-22
1.71082e-22
-2.92411e-22
-8.02981e-22
-9.90445e-22
-5.2055e-22
6.38363e-22
2.02636e-21
2.75223e-21
1.88827e-21
-8.98731e-22
-4.78346e-21
-7.69479e-21
-7.01081e-21
-9.96294e-22
9.54563e-21
2.0337e-20
2.43693e-20
1.47732e-20
-1.07865e-20
-4.59996e-20
-7.46802e-20
-7.47166e-20
-2.77771e-20
6.75852e-20
1.84929e-19
2.68342e-19
2.46458e-19
6.32864e-20
-2.81148e-19
-6.96332e-19
-9.94585e-19
-9.31708e-19
-3.01617e-19
9.31415e-19
2.50697e-18
3.81505e-18
3.98392e-18
2.15073e-18
-2.10478e-18
-8.26984e-18
-1.45452e-17
-1.78738e-17
-1.45707e-17
-1.63752e-18
2.14003e-17
5.06165e-17
7.65543e-17
8.4787e-17
5.8984e-17
-1.32317e-17
-1.32297e-16
-2.78498e-16
-4.06697e-16
-4.47923e-16
-3.21597e-16
3.96013e-17
6.536e-16
1.44796e-15
2.2262e-15
2.65844e-15
2.31565e-15
7.63347e-16
-2.27947e-15
-6.72925e-15
-1.19132e-14
-1.63984e-14
-1.79681e-14
-1.38489e-14
-1.28325e-15
2.15113e-14
5.4042e-14
9.20819e-14
1.26398e-13
1.42184e-13
1.19835e-13
3.77511e-14
-1.22294e-13
-3.6703e-13
-6.81272e-13
-1.01656e-12
-1.2814e-12
-1.33685e-12
-1.00226e-12
-7.68047e-14
1.61836e-12
4.17352e-12
7.49994e-12
1.12213e-11
1.45616e-11
1.6254e-11
1.45077e-11
7.07967e-12
-8.49061e-12
-3.44243e-11
-7.1971e-11
-1.20371e-10
-1.7552e-10
-2.28422e-10
-2.63588e-10
-2.57701e-10
-1.78975e-10
1.215e-11
3.60177e-10
9.08627e-10
1.68994e-09
2.7101e-09
3.92711e-09
5.22267e-09
6.3673e-09
6.98023e-09
6.48688e-09
4.07958e-09
-1.31023e-09
-1.10155e-08
-2.6595e-08
-4.97286e-08
-8.20146e-08
-1.24628e-07
-1.77791e-07
-2.3999e-07
-3.06865e-07
-3.69689e-07
-4.13325e-07
-4.13551e-07
-3.33617e-07
-1.19892e-07
3.03558e-07
1.04163e-06
2.23627e-06
4.07614e-06
6.80805e-06
1.07504e-05
1.63088e-05
2.39936e-05
3.44405e-05
4.84332e-05
6.69286e-05
9.10847e-05
0.000122292
0.000162204
0.000212776
0.000276302
0.000355451
0.00045331
0.000573427
0.000719853
0.000897181
0.00111059
0.0013659
0.00166957
0.00202878
0.00245143
0.00294618
0.00352248
0.00419055
0.00496143
0.00584695
0.00685973
0.00801315
0.00932136
0.0107992
0.0124621
0.0143262
0.016408
0.0187246
0.0212934
0.0241319
0.0272579
0.0306892
0.0344432
0.0385375
0.042989
0.0478141
0.0530286
0.0586474
0.0646845
0.0711526
0.0780635
0.0854274
0.0932529
0.101547
0.110315
0.119561
0.129287
0.139491
0.150172
0.161325
0.172944
0.185021
0.197544
0.210501
0.223878
0.237658
0.251823
0.266352
0.281223
0.296414
0.3119
0.327655
0.343651
0.359861
0.376256
0.392805
0.40948
0.42625
0.443085
0.459953
0.476825
0.493671
0.510462
0.527168
0.543762
0.560217
0.576506
0.592604
0.608489
0.624136
0.639525
0.654637
0.669453
0.683956
0.698131
0.711965
0.725446
0.738562
0.751306
0.763669
0.775645
0.78723
0.798421
0.809215
0.819612
0.829612
0.839216
0.848428
0.857249
0.865685
0.873739
0.881418
0.888727
0.895671
0.902258
0.908494
0.914384
0.919936
0.925156
0.930048
0.93462
0.938875
0.942818
0.946452
0.94978
0.952805
0.955527
0.957947
0.960063
0.961874
0.963378
0.964569
0.965444
0.965996
0.966219
0.966105
0.965646
0.964832
0.963653
0.962099
0.960159
0.957821
0.955075
0.951908
0.94831
0.944268
0.939772
0.934813
0.92938
0.923464
0.917058
0.910156
0.902751
0.894841
0.886422
0.877494
0.868058
0.858117
0.847674
0.836737
0.825314
0.813415
0.801052
0.788239
0.774993
0.761331
0.747273
0.73284
0.718054
0.702941
0.687524
0.671832
0.655892
0.639732
0.623383
0.606873
0.590234
0.573496
0.556691
0.539848
0.522998
0.506173
0.4894
0.47271
0.45613
0.439688
0.42341
0.407322
0.391446
0.375807
0.360424
0.345319
0.330508
0.31601
0.301839
0.288009
0.274531
0.261418
0.248677
0.236315
0.22434
0.212756
0.201565
0.190769
0.18037
0.170365
0.160754
0.151533
0.142698
0.134244
0.126166
0.118457
0.111108
0.104114
0.0974635
0.0911491
0.085161
0.0794891
0.0741235
0.0690535
0.0642688
0.0597587
0.0555123
0.0515189
0.0477678
0.0442484
0.0409501
0.0378624
0.0349753
0.0322786
0.0297626
0.0274177
0.0252346
0.0232045
0.0213185
0.0195683
0.0179458
0.0164434
0.0150534
0.0137689
0.012583
0.0114893
0.0104817
0.00955418
0.00870133
0.00791788
0.0071989
0.0065397
0.0059359
0.00538338
0.00487825
0.00441688
0.00399587
0.00361205
0.00326246
0.00294433
0.00265509
0.00239236
0.00215392
0.00193772
0.00174185
0.00156456
0.00140422
0.00125935
0.00112855
0.00101056
0.000904228
0.00080847
0.000722309
0.000644849
0.000575267
0.000512814
0.000456805
0.000406615
0.000361677
0.000321472
0.00028553
0.000253425
0.00022477
0.000199214
0.000176438
0.000156157
0.000138111
0.000122066
0.00010781
9.51535e-05
8.39255e-05
7.39721e-05
6.51551e-05
5.73504e-05
5.04468e-05
4.43447e-05
3.89548e-05
3.41976e-05
3.00016e-05
2.63033e-05
2.30459e-05
2.01788e-05
1.76571e-05
1.54407e-05
1.34939e-05
1.1785e-05
1.02862e-05
8.97228e-06
7.82135e-06
6.81382e-06
5.93243e-06
5.16187e-06
4.48866e-06
3.90087e-06
3.38801e-06
2.9408e-06
2.5511e-06
2.21171e-06
1.91634e-06
1.65944e-06
1.43614e-06
1.24215e-06
1.07375e-06
9.27635e-07
8.00945e-07
6.91161e-07
5.96085e-07
5.13795e-07
4.42616e-07
3.81083e-07
3.27922e-07
2.82019e-07
2.42407e-07
2.08244e-07
1.78798e-07
1.53432e-07
1.31592e-07
1.12801e-07
9.66404e-08
8.27509e-08
7.08199e-08
6.05769e-08
5.1788e-08
4.4251e-08
3.77911e-08
3.22574e-08
2.75197e-08
2.34657e-08
1.99987e-08
1.70351e-08
1.45032e-08
1.23426e-08
1.04894e-08
8.97517e-09
7.21723e-09
)
;

boundaryField
{
    sides
    {
        type            zeroGradient;
    }
    empty
    {
        type            empty;
    }
}


// ************************************************************************* //
