/*--------------------------------*- C++ -*----------------------------------*\
  =========                 |
  \\      /  F ield         | OpenFOAM: The Open Source CFD Toolbox
   \\    /   O peration     | Website:  https://openfoam.org
    \\  /    A nd           | Version:  7
     \\/     M anipulation  |
\*---------------------------------------------------------------------------*/
FoamFile
{
    version     2.0;
    format      ascii;
    class       volScalarField;
    location    "1.5";
    object      rho;
}
// * * * * * * * * * * * * * * * * * * * * * * * * * * * * * * * * * * * * * //

dimensions      [1 -3 0 0 0 0 0];

internalField   nonuniform List<scalar> 
19968
(
1.40001
1.40001
1.40001
1.40001
1.40001
1.40001
1.40001
1.40001
1.40001
1.40001
1.40001
1.40001
1.40001
1.40001
1.40001
1.40001
1.40001
1.40001
1.40001
1.40001
1.40001
1.40001
1.40001
1.40001
1.40001
1.40001
1.40001
1.40001
1.40001
1.40001
1.40001
1.40001
1.40001
1.40001
1.40001
1.40001
1.40001
1.40001
1.40001
1.40001
1.40001
1.40001
1.40001
1.40001
1.40001
1.40001
1.40001
1.40001
1.40001
1.40001
1.40001
3.10568
5.36383
5.49316
5.47725
5.47537
5.47634
5.48855
5.51136
5.54139
5.57547
5.6112
5.64575
5.67549
5.69895
5.71683
5.73258
5.7488
5.76568
5.78049
5.79099
5.79672
5.79833
5.79962
5.80656
5.82073
5.83754
5.85397
5.86967
5.88397
5.89553
5.90156
5.90358
5.90503
5.90873
5.91588
5.92539
5.93473
5.94002
5.93775
5.92372
5.89381
5.84629
5.79253
5.75406
5.74
1.40001
1.40001
1.40001
1.40001
1.40001
1.40001
1.40001
1.40001
1.40001
1.40001
1.40001
1.40001
1.40001
1.40001
1.40001
1.40001
1.40001
1.40001
1.40001
1.40001
1.40001
1.40001
1.40001
1.40001
1.40001
1.40001
1.40001
1.40001
1.40001
1.40001
1.40001
1.40001
1.40001
1.40001
1.40001
1.40001
1.40001
1.40001
1.40001
1.40001
1.40001
1.40001
1.40001
1.40001
1.40001
1.40001
1.40001
1.40001
1.40001
1.40001
1.40001
3.06823
5.35417
5.48578
5.47308
5.4721
5.47391
5.48688
5.50986
5.53973
5.57378
5.6098
5.64471
5.67521
5.69887
5.7162
5.73077
5.74569
5.76178
5.77631
5.78719
5.79393
5.79637
5.79814
5.80545
5.81954
5.83668
5.85351
5.86952
5.88372
5.89488
5.90023
5.90168
5.90296
5.90684
5.91417
5.92367
5.9325
5.93704
5.93392
5.91933
5.88968
5.84295
5.79008
5.75216
5.73836
1.40001
1.40001
1.40001
1.40001
1.40001
1.40001
1.40001
1.40001
1.40001
1.40001
1.40001
1.40001
1.40001
1.40001
1.40001
1.40001
1.40001
1.40001
1.40001
1.40001
1.40001
1.40001
1.40001
1.40001
1.40001
1.40001
1.40001
1.40001
1.40001
1.40001
1.40001
1.40001
1.40001
1.40001
1.40001
1.40001
1.40001
1.40001
1.40001
1.40001
1.40001
1.40001
1.40001
1.40001
1.40001
1.40001
1.40001
1.40001
1.40001
1.40001
1.40001
2.98811
5.33882
5.47484
5.4654
5.46579
5.46958
5.48418
5.50811
5.53843
5.57244
5.60855
5.6438
5.6748
5.6982
5.71464
5.72762
5.74043
5.75506
5.76916
5.78084
5.78933
5.79308
5.79562
5.80306
5.81716
5.83502
5.85273
5.86935
5.88361
5.89412
5.89817
5.89847
5.8993
5.90351
5.91147
5.92133
5.92945
5.93247
5.92735
5.91146
5.88201
5.83659
5.78532
5.74841
5.73504
1.40001
1.40001
1.40001
1.40001
1.40001
1.40001
1.40001
1.40001
1.40001
1.40001
1.40001
1.40001
1.40001
1.40001
1.40001
1.40001
1.40001
1.40001
1.40001
1.40001
1.40001
1.40001
1.40001
1.40001
1.40001
1.40001
1.40001
1.40001
1.40001
1.40001
1.40001
1.40001
1.40001
1.40001
1.40001
1.40001
1.40001
1.40001
1.40001
1.40001
1.40001
1.40001
1.40001
1.40001
1.40001
1.40001
1.40001
1.40001
1.40001
1.40001
1.40001
2.86574
5.30292
5.46606
5.45763
5.45993
5.4657
5.48198
5.50696
5.53796
5.57221
5.60838
5.64387
5.67459
5.69707
5.7121
5.72295
5.73291
5.74559
5.75914
5.77172
5.7821
5.78779
5.79194
5.79942
5.81329
5.8316
5.85006
5.86752
5.882
5.89175
5.89454
5.89395
5.89457
5.89911
5.90764
5.91746
5.92416
5.92506
5.91757
5.90019
5.871
5.82716
5.77773
5.74191
5.72897
1.40001
1.40001
1.40001
1.40001
1.40001
1.40001
1.40001
1.40001
1.40001
1.40001
1.40001
1.40001
1.40001
1.40001
1.40001
1.40001
1.40001
1.40001
1.40001
1.40001
1.40001
1.40001
1.40001
1.40001
1.40001
1.40001
1.40001
1.40001
1.40001
1.40001
1.40001
1.40001
1.40001
1.40001
1.40001
1.40001
1.40001
1.40001
1.40001
1.40001
1.40001
1.40001
1.40001
1.40001
1.40001
1.40001
1.40001
1.40001
1.40001
1.40001
1.40001
2.69486
5.24183
5.45814
5.44994
5.45537
5.46353
5.48151
5.50748
5.53933
5.57407
5.60984
5.64454
5.67352
5.69421
5.70745
5.71626
5.72396
5.73523
5.74847
5.7616
5.77358
5.78141
5.787
5.79432
5.80783
5.82603
5.84453
5.86258
5.87759
5.88702
5.88903
5.88783
5.88839
5.89326
5.90197
5.9112
5.91602
5.91471
5.90514
5.88658
5.85781
5.81558
5.76788
5.73307
5.72065
1.40001
1.40001
1.40001
1.40001
1.40001
1.40001
1.40001
1.40001
1.40001
1.40001
1.40001
1.40001
1.40001
1.40001
1.40001
1.40001
1.40001
1.40001
1.40001
1.40001
1.40001
1.40001
1.40001
1.40001
1.40001
1.40001
1.40001
1.40001
1.40001
1.40001
1.40001
1.40001
1.40001
1.40001
1.40001
1.40001
1.40001
1.40001
1.40001
1.40001
1.40001
1.40001
1.40001
1.40001
1.40001
1.40001
1.40001
1.40001
1.40001
1.40001
1.40001
2.47615
5.14807
5.4548
5.44702
5.45384
5.46274
5.48026
5.50565
5.53758
5.57261
5.6085
5.64239
5.66959
5.68929
5.7015
5.70833
5.71451
5.72512
5.73862
5.75215
5.76498
5.77405
5.78011
5.78706
5.80003
5.81783
5.83588
5.85408
5.86979
5.87941
5.88159
5.88052
5.88132
5.88609
5.89404
5.90183
5.90489
5.90173
5.8905
5.87126
5.84268
5.80136
5.7548
5.72076
5.70906
1.40001
1.40001
1.40001
1.40001
1.40001
1.40001
1.40001
1.40001
1.40001
1.40001
1.40001
1.40001
1.40001
1.40001
1.40001
1.40001
1.40001
1.40001
1.40001
1.40001
1.40001
1.40001
1.40001
1.40001
1.40001
1.40001
1.40001
1.40001
1.40001
1.40001
1.40001
1.40001
1.40001
1.40001
1.40001
1.40001
1.40001
1.40001
1.40001
1.40001
1.40001
1.40001
1.40001
1.40001
1.40001
1.40001
1.40001
1.40001
1.40001
1.40001
1.40001
2.19775
5.00268
5.45338
5.44643
5.45376
5.4638
5.48077
5.50454
5.5345
5.56794
5.60178
5.63405
5.66219
5.68215
5.69285
5.6974
5.70199
5.7126
5.7275
5.74221
5.7556
5.76523
5.77118
5.77759
5.7895
5.80636
5.8239
5.84205
5.85816
5.86807
5.87102
5.8706
5.87164
5.87579
5.88222
5.88822
5.88979
5.88567
5.87392
5.85465
5.82602
5.78486
5.73888
5.70551
5.69493
1.40001
1.40001
1.40001
1.40001
1.40001
1.40001
1.40001
1.40001
1.40001
1.40001
1.40001
1.40001
1.40001
1.40001
1.40001
1.40001
1.40001
1.40001
1.40001
1.40001
1.40001
1.40001
1.40001
1.40001
1.40001
1.40001
1.40001
1.40001
1.40001
1.40001
1.40001
1.40001
1.40001
1.40001
1.40001
1.40001
1.40001
1.40001
1.40001
1.40001
1.40001
1.40001
1.40001
1.40001
1.40001
1.40001
1.40001
1.40001
1.40001
1.40001
1.40001
1.89715
4.78804
5.46227
5.4537
5.45358
5.4594
5.47295
5.49386
5.52168
5.55387
5.58829
5.62215
5.65146
5.67182
5.68108
5.68315
5.68561
5.69641
5.71358
5.73073
5.74531
5.75587
5.76171
5.7671
5.77698
5.79187
5.80851
5.82644
5.84274
5.85283
5.85674
5.8571
5.8583
5.86176
5.86655
5.8707
5.87109
5.86674
5.85534
5.83637
5.80716
5.7653
5.71915
5.68626
5.67701
1.40001
1.40001
1.40001
1.40001
1.40001
1.40001
1.40001
1.40001
1.40001
1.40001
1.40001
1.40001
1.40001
1.40001
1.40001
1.40001
1.40001
1.40001
1.40001
1.40001
1.40001
1.40001
1.40001
1.40001
1.40001
1.40001
1.40001
1.40001
1.40001
1.40001
1.40001
1.40001
1.40001
1.40001
1.40001
1.40001
1.40001
1.40001
1.40001
1.40001
1.40001
1.40001
1.40001
1.40001
1.40001
1.40001
1.40001
1.40001
1.40001
1.40001
1.40001
1.6224
4.46704
5.46899
5.4473
5.44573
5.45098
5.46521
5.48749
5.51601
5.54803
5.58057
5.61262
5.64135
5.66104
5.66845
5.66775
5.66746
5.67652
5.69317
5.71102
5.72702
5.7396
5.74715
5.75275
5.76083
5.77359
5.78938
5.80745
5.82406
5.83406
5.83818
5.83862
5.83953
5.8422
5.84543
5.84782
5.84741
5.84331
5.83302
5.81495
5.78541
5.74279
5.69627
5.66385
5.65592
1.40001
1.40001
1.40001
1.40001
1.40001
1.40001
1.40001
1.40001
1.40001
1.40001
1.40001
1.40001
1.40001
1.40001
1.40001
1.40001
1.40001
1.40001
1.40001
1.40001
1.40001
1.40001
1.40001
1.40001
1.40001
1.40001
1.40001
1.40001
1.40001
1.40001
1.40001
1.40001
1.40001
1.40001
1.40001
1.40001
1.40001
1.40001
1.40001
1.40001
1.40001
1.40001
1.40001
1.40001
1.40001
1.40001
1.40001
1.40001
1.40001
1.40001
1.40001
1.4084
3.90719
5.44223
5.43596
5.43965
5.44568
5.45812
5.47673
5.50125
5.53038
5.56128
5.59207
5.62039
5.64072
5.64911
5.64903
5.6486
5.65663
5.67227
5.68989
5.7073
5.72218
5.73194
5.73806
5.7439
5.75382
5.76779
5.78508
5.80145
5.81104
5.81446
5.81444
5.81503
5.81719
5.81918
5.81997
5.81911
5.81504
5.80564
5.78846
5.75856
5.71481
5.6672
5.6347
5.62718
1.40001
1.40001
1.40001
1.40001
1.40001
1.40001
1.40001
1.40001
1.40001
1.40001
1.40001
1.40001
1.40001
1.40001
1.40001
1.40001
1.40001
1.40001
1.40001
1.40001
1.40001
1.40001
1.40001
1.40001
1.40001
1.40001
1.40001
1.40001
1.40001
1.40001
1.40001
1.40001
1.40001
1.40001
1.40001
1.40001
1.40001
1.40001
1.40001
1.40001
1.40001
1.40001
1.40001
1.40001
1.40001
1.40001
1.40001
1.40001
1.40001
1.40001
1.40001
1.40003
3.18438
5.31705
5.41857
5.42896
5.43838
5.45289
5.47176
5.49484
5.5211
5.54883
5.57607
5.60216
5.6222
5.63169
5.6321
5.63007
5.6345
5.64675
5.6627
5.68096
5.69817
5.71066
5.71777
5.72222
5.72938
5.74108
5.75673
5.77242
5.78199
5.78498
5.78467
5.7846
5.78567
5.78579
5.78427
5.78132
5.77636
5.76821
5.7525
5.72341
5.67943
5.631
5.59822
5.59031
1.40001
1.40001
1.40001
1.40001
1.40001
1.40001
1.40001
1.40001
1.40001
1.40001
1.40001
1.40001
1.40001
1.40001
1.40001
1.40001
1.40001
1.40001
1.40001
1.40001
1.40001
1.40001
1.40001
1.40001
1.40001
1.40001
1.40001
1.40001
1.40001
1.40001
1.40001
1.40001
1.40001
1.40001
1.40001
1.40001
1.40001
1.40001
1.40001
1.40001
1.40001
1.40001
1.40001
1.40001
1.40001
1.40001
1.40001
1.40001
1.40001
1.40001
1.40001
1.40001
2.3459
5.04756
5.42809
5.42449
5.43049
5.44063
5.4585
5.48072
5.50539
5.5306
5.5546
5.57822
5.59793
5.60939
5.61192
5.60952
5.61038
5.6192
5.63447
5.65345
5.67255
5.68789
5.69672
5.70014
5.70348
5.71095
5.72283
5.73565
5.74388
5.74587
5.74426
5.74218
5.74158
5.74039
5.73785
5.7343
5.72985
5.72324
5.70935
5.68105
5.63591
5.58485
5.54969
5.5393
1.40001
1.40001
1.40001
1.40001
1.40001
1.40001
1.40001
1.40001
1.40001
1.40001
1.40001
1.40001
1.40001
1.40001
1.40001
1.40001
1.40001
1.40001
1.40001
1.40001
1.40001
1.40001
1.40001
1.40001
1.40001
1.40001
1.40001
1.40001
1.40001
1.40001
1.40001
1.40001
1.40001
1.40001
1.40001
1.40001
1.40001
1.40001
1.40001
1.40001
1.40001
1.40001
1.40001
1.40001
1.40001
1.40001
1.40001
1.40001
1.40001
1.40001
1.40001
1.40001
1.6141
4.46621
5.46329
5.44548
5.43704
5.44112
5.45515
5.4752
5.49706
5.51848
5.53841
5.55821
5.57618
5.58807
5.59125
5.58672
5.58306
5.58715
5.59906
5.61497
5.63213
5.64774
5.65799
5.66182
5.6634
5.66777
5.67611
5.68597
5.69367
5.69607
5.69417
5.6901
5.68607
5.68124
5.67491
5.66783
5.66135
5.65519
5.64455
5.62063
5.57778
5.52611
5.48883
5.4757
1.40001
1.40001
1.40001
1.40001
1.40001
1.40001
1.40001
1.40001
1.40001
1.40001
1.40001
1.40001
1.40001
1.40001
1.40001
1.40001
1.40001
1.40001
1.40001
1.40001
1.40001
1.40001
1.40001
1.40001
1.40001
1.40001
1.40001
1.40001
1.40001
1.40001
1.40001
1.40001
1.40001
1.40001
1.40001
1.40001
1.40001
1.40001
1.40001
1.40001
1.40001
1.40001
1.40001
1.40001
1.40001
1.40001
1.40001
1.40001
1.40001
1.40001
1.40001
1.40001
1.40285
3.41909
5.32884
5.40774
5.40151
5.40756
5.41919
5.43673
5.45664
5.47856
5.50064
5.52216
5.54171
5.55675
5.56366
5.5629
5.56013
5.5622
5.57087
5.58308
5.59583
5.60797
5.61736
5.62052
5.6195
5.619
5.62086
5.62434
5.62729
5.62735
5.62467
5.6198
5.61468
5.60901
5.6016
5.59283
5.58471
5.57794
5.56697
5.54152
5.49297
5.43081
5.38159
5.35872
1.40001
1.40001
1.40001
1.40001
1.40001
1.40001
1.40001
1.40001
1.40001
1.40001
1.40001
1.40001
1.40001
1.40001
1.40001
1.40001
1.40001
1.40001
1.40001
1.40001
1.40001
1.40001
1.40001
1.40001
1.40001
1.40001
1.40001
1.40001
1.40001
1.40001
1.40001
1.40001
1.40001
1.40001
1.40001
1.40001
1.40001
1.40001
1.40001
1.40001
1.40001
1.40001
1.40001
1.40001
1.40001
1.40001
1.40001
1.40001
1.40001
1.40001
1.40001
1.40001
1.40001
2.16667
4.88526
5.39123
5.38688
5.39224
5.40055
5.41273
5.42642
5.4433
5.46318
5.48289
5.50175
5.5177
5.52836
5.53134
5.5286
5.52667
5.52998
5.5376
5.54566
5.55453
5.56258
5.56659
5.56561
5.56239
5.55861
5.55561
5.55259
5.54926
5.54468
5.53778
5.52936
5.5178
5.50162
5.48344
5.46373
5.44411
5.42267
5.38954
5.33808
5.271
5.22091
5.19933
1.40001
1.40001
1.40001
1.40001
1.40001
1.40001
1.40001
1.40001
1.40001
1.40001
1.40001
1.40001
1.40001
1.40001
1.40001
1.40001
1.40001
1.40001
1.40001
1.40001
1.40001
1.40001
1.40001
1.40001
1.40001
1.40001
1.40001
1.40001
1.40001
1.40001
1.40001
1.40001
1.40001
1.40001
1.40001
1.40001
1.40001
1.40001
1.40001
1.40001
1.40001
1.40001
1.40001
1.40001
1.40001
1.40001
1.40001
1.40001
1.40001
1.40001
1.40001
1.40001
1.40001
1.43595
3.68695
5.3162
5.38319
5.3915
5.40127
5.40641
5.41318
5.42112
5.43401
5.44998
5.46613
5.48092
5.49339
5.49903
5.49572
5.48942
5.4856
5.4871
5.49108
5.49619
5.50147
5.50489
5.50293
5.49589
5.48464
5.47224
5.46024
5.45098
5.44222
5.43204
5.41856
5.39862
5.37332
5.34532
5.31734
5.28975
5.26172
5.22774
5.16441
5.07606
4.96598
4.9721
1.40001
1.40001
1.40001
1.40001
1.40001
1.40001
1.40001
1.40001
1.40001
1.40001
1.40001
1.40001
1.40001
1.40001
1.40001
1.40001
1.40001
1.40001
1.40001
1.40001
1.40001
1.40001
1.40001
1.40001
1.40001
1.40001
1.40001
1.40001
1.40001
1.40001
1.40001
1.40001
1.40001
1.40001
1.40001
1.40001
1.40001
1.40001
1.40001
1.40001
1.40001
1.40001
1.40001
1.40001
1.40001
1.40001
1.40001
1.40001
1.40001
1.40001
1.40001
1.40001
1.40001
1.39945
2.32332
4.92687
5.35011
5.36481
5.37738
5.38422
5.39217
5.39794
5.40687
5.42013
5.43372
5.44706
5.45921
5.46641
5.46356
5.45419
5.44363
5.43862
5.43802
5.43944
5.442
5.44312
5.43989
5.43013
5.41356
5.39379
5.37455
5.3587
5.34463
5.32912
5.30856
5.27915
5.24062
5.19561
5.14588
5.09037
5.01995
4.92185
4.75604
4.50591
4.05949
3.16121
1.40001
1.40001
1.40001
1.40001
1.40001
1.40001
1.40001
1.40001
1.40001
1.40001
1.40001
1.40001
1.40001
1.40001
1.40001
1.40001
1.40001
1.40001
1.40001
1.40001
1.40001
1.40001
1.40001
1.40001
1.40001
1.40001
1.40001
1.40001
1.40001
1.40001
1.40001
1.40001
1.40001
1.40001
1.40001
1.40001
1.40001
1.40001
1.40001
1.40001
1.40001
1.40001
1.40001
1.40001
1.40001
1.40001
1.40001
1.40001
1.40001
1.40001
1.40001
1.40001
1.40001
1.39991
1.47404
4.06906
5.33707
5.34987
5.35775
5.36958
5.38003
5.3864
5.39219
5.40137
5.41182
5.42128
5.43067
5.43766
5.43546
5.42511
5.41047
5.39852
5.39207
5.38979
5.38964
5.38863
5.38351
5.37161
5.35176
5.32656
5.30082
5.2775
5.25636
5.23426
5.2064
5.16864
5.118
5.05741
4.98553
4.90338
4.79578
4.65485
4.43902
4.15066
3.58955
2.8302
1.40001
1.40001
1.40001
1.40001
1.40001
1.40001
1.40001
1.40001
1.40001
1.40001
1.40001
1.40001
1.40001
1.40001
1.40001
1.40001
1.40001
1.40001
1.40001
1.40001
1.40001
1.40001
1.40001
1.40001
1.40001
1.40001
1.40001
1.40001
1.40001
1.40001
1.40001
1.40001
1.40001
1.40001
1.40001
1.40001
1.40001
1.40001
1.40001
1.40001
1.40001
1.40001
1.40001
1.40001
1.40001
1.40001
1.40001
1.40001
1.40001
1.40001
1.40001
1.40001
1.40001
1.4
1.40021
2.68451
5.02714
5.32201
5.32743
5.345
5.35602
5.36498
5.37138
5.37859
5.38681
5.39277
5.39888
5.40367
5.40246
5.39306
5.377
5.35949
5.34664
5.33884
5.334
5.32971
5.32255
5.309
5.28691
5.25886
5.22839
5.19815
5.16824
5.13714
5.10015
5.05398
4.99314
4.91955
4.83004
4.72477
4.59449
4.42517
4.21072
3.87889
3.42689
2.91205
1.40001
1.40001
1.40001
1.40001
1.40001
1.40001
1.40001
1.40001
1.40001
1.40001
1.40001
1.40001
1.40001
1.40001
1.40001
1.40001
1.40001
1.40001
1.40001
1.40001
1.40001
1.40001
1.40001
1.40001
1.40001
1.40001
1.40001
1.40001
1.40001
1.40001
1.40001
1.40001
1.40001
1.40001
1.40001
1.40001
1.40001
1.40001
1.40001
1.40001
1.40001
1.40001
1.40001
1.40001
1.40001
1.40001
1.40001
1.40001
1.40001
1.40001
1.40001
1.40001
1.40001
1.40001
1.4
1.52353
4.22571
5.35697
5.33513
5.33811
5.3402
5.3448
5.35069
5.35619
5.36148
5.36412
5.36517
5.36586
5.36472
5.35603
5.33988
5.31956
5.3016
5.28849
5.27855
5.27028
5.25998
5.24411
5.22054
5.19117
5.1575
5.12143
5.08265
5.0418
4.99574
4.94205
4.87517
4.79338
4.69399
4.57517
4.433
4.25657
4.04091
3.75221
3.42045
3.03315
1.40001
1.40001
1.40001
1.40001
1.40001
1.40001
1.40001
1.40001
1.40001
1.40001
1.40001
1.40001
1.40001
1.40001
1.40001
1.40001
1.40001
1.40001
1.40001
1.40001
1.40001
1.40001
1.40001
1.40001
1.40001
1.40001
1.40001
1.40001
1.40001
1.40001
1.40001
1.40001
1.40001
1.40001
1.40001
1.40001
1.40001
1.40001
1.40001
1.40001
1.40001
1.40001
1.40001
1.40001
1.40001
1.40001
1.40001
1.40001
1.40001
1.40001
1.40001
1.40001
1.40001
1.40001
1.4
1.40072
2.72601
5.05615
5.31384
5.31013
5.31039
5.31209
5.31854
5.32593
5.32914
5.32923
5.32501
5.32103
5.3186
5.31117
5.29753
5.27866
5.25885
5.2418
5.22674
5.21306
5.19859
5.18013
5.1558
5.12625
5.09103
5.05067
5.00434
4.95363
4.89796
4.83627
4.76463
4.67892
4.57641
4.45342
4.31188
4.13622
3.94005
3.70387
3.43998
3.15165
1.40001
1.40001
1.40001
1.40001
1.40001
1.40001
1.40001
1.40001
1.40001
1.40001
1.40001
1.40001
1.40001
1.40001
1.40001
1.40001
1.40001
1.40001
1.40001
1.40001
1.40001
1.40001
1.40001
1.40001
1.40001
1.40001
1.40001
1.40001
1.40001
1.40001
1.40001
1.40001
1.40001
1.40001
1.40001
1.40001
1.40001
1.40001
1.40001
1.40001
1.40001
1.40001
1.40001
1.40001
1.40001
1.40001
1.40001
1.40001
1.40001
1.40001
1.40001
1.40001
1.40001
1.40001
1.40001
1.4
1.52353
4.14545
5.32835
5.30566
5.29879
5.29121
5.29112
5.2962
5.29855
5.29767
5.29152
5.284
5.27821
5.26966
5.25645
5.23841
5.21776
5.19755
5.17768
5.15866
5.13919
5.1176
5.09176
5.06173
5.02599
4.9835
4.9325
4.87462
4.81157
4.74394
4.66904
4.58277
4.48183
4.36167
4.22434
4.06168
3.88821
3.68786
3.47619
3.24054
1.40001
1.40001
1.40001
1.40001
1.40001
1.40001
1.40001
1.40001
1.40001
1.40001
1.40001
1.40001
1.40001
1.40001
1.40001
1.40001
1.40001
1.40001
1.40001
1.40001
1.40001
1.40001
1.40001
1.40001
1.40001
1.40001
1.40001
1.40001
1.40001
1.40001
1.40001
1.40001
1.40001
1.40001
1.40001
1.40001
1.40001
1.40001
1.40001
1.40001
1.40001
1.40001
1.40001
1.40001
1.40001
1.40001
1.40001
1.40001
1.40001
1.40001
1.40001
1.40001
1.40001
1.40001
1.40001
1.4
1.40069
2.50053
4.9781
5.27641
5.26369
5.25599
5.25025
5.25025
5.25243
5.25268
5.24871
5.2408
5.23252
5.2238
5.21295
5.19829
5.18022
5.16002
5.13744
5.11382
5.08852
5.06218
5.03352
5.00226
4.96629
4.9232
4.87018
4.80796
4.73937
4.66633
4.58761
4.50092
4.40293
4.28964
4.16041
4.01588
3.86105
3.68912
3.51116
3.31419
1.40001
1.40001
1.40001
1.40001
1.40001
1.40001
1.40001
1.40001
1.40001
1.40001
1.40001
1.40001
1.40001
1.40001
1.40001
1.40001
1.40001
1.40001
1.40001
1.40001
1.40001
1.40001
1.40001
1.40001
1.40001
1.40001
1.40001
1.40001
1.40001
1.40001
1.40001
1.40001
1.40001
1.40001
1.40001
1.40001
1.40001
1.40001
1.40001
1.40001
1.40001
1.40001
1.40001
1.40001
1.40001
1.40001
1.40001
1.40001
1.40001
1.40001
1.40001
1.40001
1.40001
1.40001
1.40001
1.40001
1.4
1.48026
3.76883
5.25184
5.25107
5.23571
5.22409
5.21988
5.22075
5.22195
5.22095
5.21377
5.20275
5.191
5.17825
5.16292
5.14495
5.12372
5.09872
5.07143
5.04136
5.00987
4.97708
4.94332
4.90638
4.8634
4.81097
4.74868
4.67918
4.60425
4.52428
4.43705
4.34275
4.23591
4.11729
3.9873
3.85068
3.69842
3.5431
3.37376
1.40001
1.40001
1.40001
1.40001
1.40001
1.40001
1.40001
1.40001
1.40001
1.40001
1.40001
1.40001
1.40001
1.40001
1.40001
1.40001
1.40001
1.40001
1.40001
1.40001
1.40001
1.40001
1.40001
1.40001
1.40001
1.40001
1.40001
1.40001
1.40001
1.40001
1.40001
1.40001
1.40001
1.40001
1.40001
1.40001
1.40001
1.40001
1.40001
1.40001
1.40001
1.40001
1.40001
1.40001
1.40001
1.40001
1.40001
1.40001
1.40001
1.40001
1.40001
1.40001
1.40001
1.40001
1.40001
1.40001
1.40001
1.40028
2.0005
4.73491
5.25868
5.22342
5.209
5.20028
5.19682
5.19613
5.19482
5.18865
5.17815
5.1644
5.14934
5.13267
5.1137
5.09174
5.06578
5.0364
5.00324
4.96751
4.93019
4.89281
4.85377
4.81033
4.75895
4.69801
4.62996
4.55489
4.47491
4.38663
4.2951
4.19425
4.08618
3.96894
3.8478
3.71043
3.57323
3.42393
1.40001
1.40001
1.40001
1.40001
1.40001
1.40001
1.40001
1.40001
1.40001
1.40001
1.40001
1.40001
1.40001
1.40001
1.40001
1.40001
1.40001
1.40001
1.40001
1.40001
1.40001
1.40001
1.40001
1.40001
1.40001
1.40001
1.40001
1.40001
1.40001
1.40001
1.40001
1.40001
1.40001
1.40001
1.40001
1.40001
1.40001
1.40001
1.40001
1.40001
1.40001
1.40001
1.40001
1.40001
1.40001
1.40001
1.40001
1.40001
1.40001
1.40001
1.40001
1.40001
1.40001
1.40001
1.40001
1.40001
1.40001
1.40001
1.42102
3.1281
5.08683
5.17306
5.16959
5.17009
5.1683
5.16702
5.16595
5.16092
5.15088
5.13557
5.11769
5.0986
5.07734
5.05435
5.02783
4.99766
4.96324
4.92539
4.88491
4.8439
4.80207
4.75764
4.70632
4.6478
4.5843
4.51166
4.43424
4.34815
4.25946
4.16502
4.06421
3.95845
3.84741
3.72477
3.60225
3.46869
1.40001
1.40001
1.40001
1.40001
1.40001
1.40001
1.40001
1.40001
1.40001
1.40001
1.40001
1.40001
1.40001
1.40001
1.40001
1.40001
1.40001
1.40001
1.40001
1.40001
1.40001
1.40001
1.40001
1.40001
1.40001
1.40001
1.40001
1.40001
1.40001
1.40001
1.40001
1.40001
1.40001
1.40001
1.40001
1.40001
1.40001
1.40001
1.40001
1.40001
1.40001
1.40001
1.40001
1.40001
1.40001
1.40001
1.40001
1.40001
1.40001
1.40001
1.40001
1.40001
1.40001
1.40001
1.40001
1.40001
1.40001
1.40001
1.40003
1.58616
3.91506
5.12504
5.17679
5.17369
5.16442
5.15871
5.15307
5.14576
5.13456
5.11646
5.09529
5.07252
5.04791
5.02212
4.99307
4.96118
4.92533
4.88587
4.84357
4.80016
4.75656
4.70994
4.65858
4.6026
4.54149
4.47295
4.39943
4.31822
4.23313
4.14493
4.04965
3.95273
3.84876
3.74091
3.62668
3.50717
1.40001
1.40001
1.40001
1.40001
1.40001
1.40001
1.40001
1.40001
1.40001
1.40001
1.40001
1.40001
1.40001
1.40001
1.40001
1.40001
1.40001
1.40001
1.40001
1.40001
1.40001
1.40001
1.40001
1.40001
1.40001
1.40001
1.40001
1.40001
1.40001
1.40001
1.40001
1.40001
1.40001
1.40001
1.40001
1.40001
1.40001
1.40001
1.40001
1.40001
1.40001
1.40001
1.40001
1.40001
1.40001
1.40001
1.40001
1.40001
1.40001
1.40001
1.40001
1.40001
1.40001
1.40001
1.40001
1.40001
1.40001
1.40001
1.40001
1.4018
1.92528
4.6198
5.22966
5.20004
5.17849
5.15329
5.13628
5.12087
5.10504
5.08594
5.06452
5.04062
5.01467
4.98759
4.95757
4.92384
4.88745
4.84762
4.80456
4.75987
4.71444
4.66604
4.61374
4.55778
4.49929
4.43542
4.36788
4.29353
4.21497
4.13303
4.04449
3.95257
3.85397
3.75569
3.6471
3.53947
1.40001
1.40001
1.40001
1.40001
1.40001
1.40001
1.40001
1.40001
1.40001
1.40001
1.40001
1.40001
1.40001
1.40001
1.40001
1.40001
1.40001
1.40001
1.40001
1.40001
1.40001
1.40001
1.40001
1.40001
1.40001
1.40001
1.40001
1.40001
1.40001
1.40001
1.40001
1.40001
1.40001
1.40001
1.40001
1.40001
1.40001
1.40001
1.40001
1.40001
1.40001
1.40001
1.40001
1.40001
1.40001
1.40001
1.40001
1.40001
1.40001
1.40001
1.40001
1.40001
1.40001
1.40001
1.40001
1.40001
1.40001
1.40001
1.40001
1.40001
1.41531
2.80036
5.02256
5.18726
5.15583
5.13459
5.10567
5.08258
5.06351
5.0455
5.02699
5.00668
4.98346
4.95786
4.92842
4.89265
4.85315
4.81255
4.76804
4.72196
4.67568
4.62668
4.57526
4.52083
4.46488
4.4047
4.34232
4.27387
4.20186
4.12549
4.04353
3.95562
3.862
3.76896
3.66716
3.56867
1.40001
1.40001
1.40001
1.40001
1.40001
1.40001
1.40001
1.40001
1.40001
1.40001
1.40001
1.40001
1.40001
1.40001
1.40001
1.40001
1.40001
1.40001
1.40001
1.40001
1.40001
1.40001
1.40001
1.40001
1.40001
1.40001
1.40001
1.40001
1.40001
1.40001
1.40001
1.40001
1.40001
1.40001
1.40001
1.40001
1.40001
1.40001
1.40001
1.40001
1.40001
1.40001
1.40001
1.40001
1.40001
1.40001
1.40001
1.40001
1.40001
1.40001
1.40001
1.40001
1.40001
1.40001
1.40001
1.40001
1.40001
1.40001
1.40001
1.40001
1.40003
1.5147
3.54424
5.12511
5.12459
5.09814
5.0821
5.05844
5.03446
5.01342
4.99418
4.97622
4.95592
4.93155
4.90332
4.86728
4.82663
4.78448
4.73873
4.69146
4.64401
4.5952
4.54436
4.49152
4.438
4.38117
4.3224
4.25846
4.19151
4.12063
4.04402
3.96146
3.87367
3.78441
3.68987
3.59737
1.40001
1.40001
1.40001
1.40001
1.40001
1.40001
1.40001
1.40001
1.40001
1.40001
1.40001
1.40001
1.40001
1.40001
1.40001
1.40001
1.40001
1.40001
1.40001
1.40001
1.40001
1.40001
1.40001
1.40001
1.40001
1.40001
1.40001
1.40001
1.40001
1.40001
1.40001
1.40001
1.40001
1.40001
1.40001
1.40001
1.40001
1.40001
1.40001
1.40001
1.40001
1.40001
1.40001
1.40001
1.40001
1.40001
1.40001
1.40001
1.40001
1.40001
1.40001
1.40001
1.40001
1.40001
1.40001
1.40001
1.40001
1.40001
1.40001
1.40001
1.40001
1.40072
1.6869
4.0296
5.05989
5.06967
5.06409
5.04639
5.02322
4.99987
4.97869
4.9593
4.93981
4.91656
4.88815
4.85301
4.81026
4.76427
4.71572
4.66591
4.61626
4.56714
4.51775
4.46785
4.41746
4.36442
4.30854
4.24775
4.18406
4.1174
4.0444
3.96706
3.8853
3.80006
3.71287
3.62537
1.40001
1.40001
1.40001
1.40001
1.40001
1.40001
1.40001
1.40001
1.40001
1.40001
1.40001
1.40001
1.40001
1.40001
1.40001
1.40001
1.40001
1.40001
1.40001
1.40001
1.40001
1.40001
1.40001
1.40001
1.40001
1.40001
1.40001
1.40001
1.40001
1.40001
1.40001
1.40001
1.40001
1.40001
1.40001
1.40001
1.40001
1.40001
1.40001
1.40001
1.40001
1.40001
1.40001
1.40001
1.40001
1.40001
1.40001
1.40001
1.40001
1.40001
1.40001
1.40001
1.40001
1.40001
1.40001
1.40001
1.40001
1.40001
1.40001
1.40001
1.40001
1.40001
1.40432
1.89306
4.37055
5.08489
5.0627
5.03747
5.01156
4.98858
4.96655
4.94656
4.92585
4.9023
4.87316
4.83823
4.79666
4.75031
4.70062
4.64912
4.5974
4.54661
4.49724
4.44947
4.40147
4.35045
4.29653
4.23902
4.17893
4.11593
4.04597
3.97274
3.89646
3.81569
3.73514
3.6523
1.40001
1.40001
1.40001
1.40001
1.40001
1.40001
1.40001
1.40001
1.40001
1.40001
1.40001
1.40001
1.40001
1.40001
1.40001
1.40001
1.40001
1.40001
1.40001
1.40001
1.40001
1.40001
1.40001
1.40001
1.40001
1.40001
1.40001
1.40001
1.40001
1.40001
1.40001
1.40001
1.40001
1.40001
1.40001
1.40001
1.40001
1.40001
1.40001
1.40001
1.40001
1.40001
1.40001
1.40001
1.40001
1.40001
1.40001
1.40001
1.40001
1.40001
1.40001
1.40001
1.40001
1.40001
1.40001
1.40001
1.40001
1.40001
1.40001
1.40001
1.40001
1.40001
1.40001
1.41308
2.16907
4.6595
5.0891
5.04938
5.0207
4.98871
4.95983
4.93381
4.90958
4.88425
4.85562
4.82251
4.78428
4.74051
4.69196
4.64034
4.58743
4.53484
4.4836
4.4353
4.38834
4.33836
4.2859
4.2317
4.17517
4.11525
4.04812
3.97788
3.90578
3.82962
3.75482
3.67724
1.40001
1.40001
1.40001
1.40001
1.40001
1.40001
1.40001
1.40001
1.40001
1.40001
1.40001
1.40001
1.40001
1.40001
1.40001
1.40001
1.40001
1.40001
1.40001
1.40001
1.40001
1.40001
1.40001
1.40001
1.40001
1.40001
1.40001
1.40001
1.40001
1.40001
1.40001
1.40001
1.40001
1.40001
1.40001
1.40001
1.40001
1.40001
1.40001
1.40001
1.40001
1.40001
1.40001
1.40001
1.40001
1.40001
1.40001
1.40001
1.40001
1.40001
1.40001
1.40001
1.40001
1.40001
1.40001
1.40001
1.40001
1.40001
1.40001
1.40001
1.40001
1.40001
1.40001
1.40004
1.43181
2.56113
4.81037
5.05498
5.02432
4.99689
4.96329
4.9314
4.89945
4.86855
4.83671
4.80408
4.76939
4.72948
4.68456
4.63583
4.58462
4.53211
4.4795
4.42913
4.3807
4.33004
4.2775
4.22503
4.1711
4.11395
4.05008
3.98305
3.91448
3.84317
3.7733
3.70118
1.40001
1.40001
1.40001
1.40001
1.40001
1.40001
1.40001
1.40001
1.40001
1.40001
1.40001
1.40001
1.40001
1.40001
1.40001
1.40001
1.40001
1.40001
1.40001
1.40001
1.40001
1.40001
1.40001
1.40001
1.40001
1.40001
1.40001
1.40001
1.40001
1.40001
1.40001
1.40001
1.40001
1.40001
1.40001
1.40001
1.40001
1.40001
1.40001
1.40001
1.40001
1.40001
1.40001
1.40001
1.40001
1.40001
1.40001
1.40001
1.40001
1.40001
1.40001
1.40001
1.40001
1.40001
1.40001
1.40001
1.40001
1.40001
1.40001
1.40001
1.40001
1.40001
1.40001
1.40001
1.40012
1.47443
2.85996
4.86507
5.02677
4.99707
4.97138
4.93708
4.90182
4.86377
4.82581
4.78993
4.75473
4.71712
4.67638
4.63214
4.58476
4.53452
4.48274
4.43098
4.37961
4.32689
4.27332
4.22086
4.16806
4.11289
4.05221
3.98827
3.92257
3.8557
3.79029
3.72366
1.40001
1.40001
1.40001
1.40001
1.40001
1.40001
1.40001
1.40001
1.40001
1.40001
1.40001
1.40001
1.40001
1.40001
1.40001
1.40001
1.40001
1.40001
1.40001
1.40001
1.40001
1.40001
1.40001
1.40001
1.40001
1.40001
1.40001
1.40001
1.40001
1.40001
1.40001
1.40001
1.40001
1.40001
1.40001
1.40001
1.40001
1.40001
1.40001
1.40001
1.40001
1.40001
1.40001
1.40001
1.40001
1.40001
1.40001
1.40001
1.40001
1.40001
1.40001
1.40001
1.40001
1.40001
1.40001
1.40001
1.40001
1.40001
1.40001
1.40001
1.40001
1.40001
1.40001
1.40001
1.40001
1.40044
1.52355
3.05267
4.87606
4.99653
4.96533
4.93897
4.90495
4.86779
4.82918
4.78969
4.74972
4.7103
4.6702
4.62842
4.58393
4.53647
4.48677
4.43531
4.38279
4.32948
4.27581
4.22284
4.16947
4.11438
4.05626
3.99503
3.93162
3.8682
3.80673
3.74538
1.40001
1.40001
1.40001
1.40001
1.40001
1.40001
1.40001
1.40001
1.40001
1.40001
1.40001
1.40001
1.40001
1.40001
1.40001
1.40001
1.40001
1.40001
1.40001
1.40001
1.40001
1.40001
1.40001
1.40001
1.40001
1.40001
1.40001
1.40001
1.40001
1.40001
1.40001
1.40001
1.40001
1.40001
1.40001
1.40001
1.40001
1.40001
1.40001
1.40001
1.40001
1.40001
1.40001
1.40001
1.40001
1.40001
1.40001
1.40001
1.40001
1.40001
1.40001
1.40001
1.40001
1.40001
1.40001
1.40001
1.40001
1.40001
1.40001
1.40001
1.40001
1.40001
1.40001
1.40001
1.40001
1.40001
1.40102
1.56513
3.15139
4.86229
4.96496
4.93097
4.90391
4.87038
4.83378
4.79481
4.75469
4.71399
4.67236
4.6295
4.58498
4.53873
4.49077
4.44071
4.38875
4.33567
4.28211
4.22912
4.1758
4.12112
4.06493
4.00571
3.94443
3.88324
3.82449
3.76677
1.40001
1.40001
1.40001
1.40001
1.40001
1.40001
1.40001
1.40001
1.40001
1.40001
1.40001
1.40001
1.40001
1.40001
1.40001
1.40001
1.40001
1.40001
1.40001
1.40001
1.40001
1.40001
1.40001
1.40001
1.40001
1.40001
1.40001
1.40001
1.40001
1.40001
1.40001
1.40001
1.40001
1.40001
1.40001
1.40001
1.40001
1.40001
1.40001
1.40001
1.40001
1.40001
1.40001
1.40001
1.40001
1.40001
1.40001
1.40001
1.40001
1.40001
1.40001
1.40001
1.40001
1.40001
1.40001
1.40001
1.40001
1.40001
1.40001
1.40001
1.40001
1.40001
1.40001
1.40001
1.40001
1.40001
1.40001
1.4017
1.59068
3.17038
4.8294
4.93383
4.89829
4.87008
4.83647
4.80042
4.76206
4.72124
4.67852
4.63438
4.58929
4.54342
4.4964
4.4475
4.39666
4.34452
4.29178
4.23952
4.18678
4.13254
4.07698
4.0194
3.96064
3.90091
3.84444
3.7888
1.40001
1.40001
1.40001
1.40001
1.40001
1.40001
1.40001
1.40001
1.40001
1.40001
1.40001
1.40001
1.40001
1.40001
1.40001
1.40001
1.40001
1.40001
1.40001
1.40001
1.40001
1.40001
1.40001
1.40001
1.40001
1.40001
1.40001
1.40001
1.40001
1.40001
1.40001
1.40001
1.40001
1.40001
1.40001
1.40001
1.40001
1.40001
1.40001
1.40001
1.40001
1.40001
1.40001
1.40001