/*--------------------------------*- C++ -*----------------------------------*\
  =========                 |
  \\      /  F ield         | OpenFOAM: The Open Source CFD Toolbox
   \\    /   O peration     | Website:  https://openfoam.org
    \\  /    A nd           | Version:  7
     \\/     M anipulation  |
\*---------------------------------------------------------------------------*/
FoamFile
{
    version     2.0;
    format      ascii;
    class       volScalarField;
    location    "7.6";
    object      p;
}
// * * * * * * * * * * * * * * * * * * * * * * * * * * * * * * * * * * * * * //

dimensions      [1 -1 -2 0 0 0 0];

internalField   nonuniform List<scalar> 
19968
(
1
1
1
1
1
1
1
1
1
1
1
1
1
1
1
1
1
1
1
1
1
1
1
1
1
1
1
1
1
1
1
1
1
1
1
1
1
1
1
1
1
1
1
1
1
1
1
1
1.58813
8.10974
10.4331
10.435
10.5103
10.566
10.6293
10.6923
10.7529
10.8109
10.8658
10.9168
10.9647
11.0106
11.0555
11.1012
11.1499
11.2004
11.2505
11.2993
11.3475
11.3948
11.4399
11.4817
11.5196
11.5543
11.5873
11.6201
11.6539
11.6891
11.7251
11.7602
11.7929
11.822
11.8476
11.8704
11.8916
11.9123
11.9334
11.9551
11.9771
11.9978
12.0145
12.0248
12.0284
12.0258
12.0209
12.016
1
1
1
1
1
1
1
1
1
1
1
1
1
1
1
1
1
1
1
1
1
1
1
1
1
1
1
1
1
1
1
1
1
1
1
1
1
1
1
1
1
1
1
1
1
1
1
1
1.5507
8.02543
10.4111
10.4436
10.5085
10.5654
10.6283
10.6913
10.7524
10.8109
10.866
10.9168
10.9642
11.01
11.0549
11.101
11.1494
11.1995
11.2489
11.2972
11.3449
11.3914
11.4356
11.4763
11.5136
11.5483
11.5818
11.6154
11.6501
11.6857
11.7217
11.7565
11.7888
11.8176
11.8429
11.8654
11.8864
11.907
11.9279
11.9495
11.9711
11.9913
12.0073
12.0173
12.0209
12.0188
12.0145
12.0103
1
1
1
1
1
1
1
1
1
1
1
1
1
1
1
1
1
1
1
1
1
1
1
1
1
1
1
1
1
1
1
1
1
1
1
1
1
1
1
1
1
1
1
1
1
1
1
1
1.47488
7.85995
10.4014
10.4358
10.4984
10.557
10.6203
10.6843
10.7467
10.8061
10.8618
10.9127
10.9598
11.0055
11.0504
11.097
11.1453
11.1951
11.2441
11.2921
11.3392
11.3848
11.4276
11.467
11.5032
11.5375
11.5715
11.6062
11.642
11.6785
11.7145
11.749
11.7807
11.809
11.8341
11.8565
11.8775
11.898
11.9189
11.9403
11.9615
11.9808
11.9962
12.0058
12.0097
12.0086
12.0055
12.0024
1
1
1
1
1
1
1
1
1
1
1
1
1
1
1
1
1
1
1
1
1
1
1
1
1
1
1
1
1
1
1
1
1
1
1
1
1
1
1
1
1
1
1
1
1
1
1
1
1.36874
7.59736
10.3868
10.4266
10.4884
10.5482
10.6115
10.6757
10.7388
10.799
10.8553
10.9064
10.9533
10.999
11.0437
11.0905
11.1384
11.1878
11.2363
11.284
11.3305
11.3749
11.4161
11.4539
11.4889
11.5229
11.5574
11.5932
11.6301
11.6674
11.7035
11.7375
11.7684
11.7961
11.8206
11.8425
11.863
11.883
11.9033
11.924
11.9442
11.9624
11.977
11.9867
11.9916
11.9925
11.9916
11.9902
1
1
1
1
1
1
1
1
1
1
1
1
1
1
1
1
1
1
1
1
1
1
1
1
1
1
1
1
1
1
1
1
1
1
1
1
1
1
1
1
1
1
1
1
1
1
1
1
1.23159
7.2439
10.3841
10.4234
10.481
10.5399
10.6013
10.6643
10.7269
10.7872
10.8441
10.8959
10.9431
10.9891
11.0339
11.0808
11.1286
11.1778
11.226
11.2735
11.3194
11.3628
11.4027
11.4388
11.4726
11.5059
11.5405
11.577
11.6149
11.6528
11.6892
11.723
11.7536
11.781
11.8052
11.8269
11.8469
11.8663
11.8856
11.9047
11.9229
11.9388
11.9515
11.9604
11.9657
11.9682
11.9691
11.9692
1
1
1
1
1
1
1
1
1
1
1
1
1
1
1
1
1
1
1
1
1
1
1
1
1
1
1
1
1
1
1
1
1
1
1
1
1
1
1
1
1
1
1
1
1
1
1
1
1.01922
6.72722
10.368
10.4197
10.4734
10.5337
10.5946
10.6571
10.7194
10.7796
10.8363
10.8879
10.9343
10.9793
11.0232
11.0695
11.1164
11.1645
11.2114
11.2579
11.3028
11.3451
11.3834
11.4177
11.4497
11.4817
11.5154
11.5514
11.5889
11.6265
11.6627
11.6962
11.7266
11.7537
11.7778
11.7995
11.8194
11.8384
11.8572
11.8754
11.8924
11.9073
11.9195
11.9289
11.9357
11.9404
11.9435
11.9454
1
1
1
1
1
1
1
1
1
1
1
1
1
1
1
1
1
1
1
1
1
1
1
1
1
1
1
1
1
1
1
1
1
1
1
1
1
1
1
1
1
1
1
1
1
1
1
1
1.00013
6.01768
10.2741
10.3778
10.4306
10.4966
10.5589
10.6217
10.6829
10.742
10.7976
10.8488
10.8957
10.9406
10.9845
11.0305
11.0777
11.126
11.1731
11.22
11.2653
11.308
11.3466
11.381
11.413
11.4447
11.4776
11.5125
11.5491
11.5863
11.6225
11.6563
11.6871
11.7145
11.7389
11.7607
11.7807
11.7996
11.8176
11.8348
11.8505
11.8644
11.8762
11.8861
11.8942
11.9006
11.9052
11.9084
1
1
1
1
1
1
1
1
1
1
1
1
1
1
1
1
1
1
1
1
1
1
1
1
1
1
1
1
1
1
1
1
1
1
1
1
1
1
1
1
1
1
1
1
1
1
1
1
1
5.09502
10.1392
10.3535
10.4015
10.4715
10.5336
10.5961
10.656
10.7141
10.7684
10.8182
10.8647
10.9089
10.9522
10.9972
11.0438
11.0915
11.138
11.1843
11.229
11.271
11.3093
11.3435
11.3753
11.4063
11.438
11.4712
11.5061
11.542
11.5774
11.6109
11.6415
11.6689
11.6933
11.7151
11.7348
11.7529
11.7698
11.7855
11.7999
11.813
11.8248
11.8352
11.844
11.8514
11.8568
11.8603
1
1
1
1
1
1
1
1
1
1
1
1
1
1
1
1
1
1
1
1
1
1
1
1
1
1
1
1
1
1
1
1
1
1
1
1
1
1
1
1
1
1
1
1
1
1
1
1
1
4.03571
9.86356
10.3217
10.3711
10.4409
10.5023
10.5638
10.6222
10.6794
10.7332
10.7821
10.8282
10.8717
10.9143
10.9577
11.0028
11.0487
11.0934
11.1379
11.181
11.2215
11.2589
11.2924
11.3236
11.3538
11.3842
11.4159
11.4489
11.4831
11.5169
11.5491
11.5788
11.6057
11.6299
11.6516
11.671
11.6885
11.7045
11.7194
11.7333
11.7464
11.7588
11.7699
11.7792
11.787
11.7924
11.7959
1
1
1
1
1
1
1
1
1
1
1
1
1
1
1
1
1
1
1
1
1
1
1
1
1
1
1
1
1
1
1
1
1
1
1
1
1
1
1
1
1
1
1
1
1
1
1
1
1
2.92701
9.3273
10.3004
10.3621
10.4275
10.4836
10.5398
10.5936
10.6477
10.7007
10.7489
10.7941
10.8366
10.8776
10.9186
10.9611
11.0049
11.0475
11.0897
11.1307
11.1688
11.204
11.2354
11.2645
11.2927
11.3214
11.3509
11.3814
11.4125
11.4431
11.4724
11.5001
11.5261
11.5502
11.5721
11.5915
11.6085
11.6236
11.6375
11.6506
11.6631
11.6749
11.6854
11.6939
11.7009
11.7053
11.7082
1
1
1
1
1
1
1
1
1
1
1
1
1
1
1
1
1
1
1
1
1
1
1
1
1
1
1
1
1
1
1
1
1
1
1
1
1
1
1
1
1
1
1
1
1
1
1
1
1
1.85774
8.37771
10.3404
10.327
10.3899
10.4407
10.4957
10.5498
10.6033
10.6563
10.7048
10.7499
10.7927
10.8338
10.8735
10.9135
10.9552
10.9963
11.0366
11.0759
11.1117
11.1445
11.1739
11.2013
11.2282
11.2555
11.2833
11.3108
11.3374
11.3628
11.3868
11.4098
11.432
11.453
11.472
11.4884
11.5025
11.5152
11.5273
11.5394
11.5517
11.5636
11.5742
11.5829
11.5897
11.5939
11.5968
1
1
1
1
1
1
1
1
1
1
1
1
1
1
1
1
1
1
1
1
1
1
1
1
1
1
1
1
1
1
1
1
1
1
1
1
1
1
1
1
1
1
1
1
1
1
1
1
1
1.03394
6.73597
10.3558
10.362
10.3961
10.4376
10.4833
10.53
10.5766
10.624
10.6691
10.7102
10.7494
10.7867
10.8218
10.8568
10.8938
10.931
10.9673
11.0028
11.0351
11.0638
11.0903
11.1151
11.1402
11.166
11.1921
11.217
11.2399
11.2608
11.2803
11.2993
11.3182
11.3364
11.3531
11.3675
11.38
11.3909
11.4009
11.4098
11.4175
11.4236
11.428
11.4309
11.4333
11.4348
11.4365
1
1
1
1
1
1
1
1
1
1
1
1
1
1
1
1
1
1
1
1
1
1
1
1
1
1
1
1
1
1
1
1
1
1
1
1
1
1
1
1
1
1
1
1
1
1
1
1
1
1.00006
4.61911
9.92568
10.2034
10.264
10.3278
10.3837
10.4348
10.4822
10.5282
10.5724
10.6129
10.6505
10.6861
10.7194
10.7521
10.7871
10.8234
10.8591
10.8933
10.9246
10.9516
10.9766
11.0003
11.0245
11.0493
11.0736
11.096
11.1156
11.1325
11.1475
11.1611
11.1739
11.1855
11.1952
11.2026
11.208
11.2118
11.2144
11.216
11.2171
11.2185
11.221
11.224
11.2282
11.2308
11.2335
1
1
1
1
1
1
1
1
1
1
1
1
1
1
1
1
1
1
1
1
1
1
1
1
1
1
1
1
1
1
1
1
1
1
1
1
1
1
1
1
1
1
1
1
1
1
1
1
1
1
2.40313
8.79634
10.1527
10.1989
10.2733
10.3285
10.3792
10.4256
10.4693
10.5112
10.5498
10.5845
10.6163
10.6457
10.6741
10.7046
10.7374
10.77
10.8001
10.8267
10.849
10.8689
10.8883
10.9081
10.9284
10.9478
10.9648
10.9786
10.9895
10.9977
11.0038
11.0076
11.0091
11.0091
11.0078
11.0062
11.0049
11.003
10.9991
10.9925
10.982
10.9687
10.9502
10.9292
10.907
10.8875
1
1
1
1
1
1
1
1
1
1
1
1
1
1
1
1
1
1
1
1
1
1
1
1
1
1
1
1
1
1
1
1
1
1
1
1
1
1
1
1
1
1
1
1
1
1
1
1
1
1
1.05981
6.40793
10.2173
10.2214
10.248
10.2822
10.3199
10.3558
10.3908
10.4259
10.4603
10.4915
10.519
10.5433
10.5669
10.5927
10.6216
10.6512
10.6776
10.6987
10.7153
10.7289
10.7425
10.7564
10.7709
10.7847
10.7963
10.8046
10.8095
10.81
10.807
10.7995
10.7873
10.772
10.7542
10.7349
10.7135
10.688
10.6556
10.6148
10.5665
10.5149
10.4712
10.435
10.4193
10.4132
1
1
1
1
1
1
1
1
1
1
1
1
1
1
1
1
1
1
1
1
1
1
1
1
1
1
1
1
1
1
1
1
1
1
1
1
1
1
1
1
1
1
1
1
1
1
1
1
1
1
1.00009
3.27668
9.25005
10.082
10.11
10.1533
10.1944
10.2336
10.2707
10.3071
10.3425
10.3748
10.402
10.424
10.4435
10.465
10.4909
10.5193
10.5454
10.5646
10.5758
10.5811
10.5842
10.5876
10.5925
10.5986
10.6037
10.6047
10.6011
10.592
10.5765
10.554
10.5243
10.4886
10.4479
10.4031
10.3546
10.302
10.2439
10.1795
10.1085
10.033
9.94505
9.86312
9.75057
9.84726
1
1
1
1
1
1
1
1
1
1
1
1
1
1
1
1
1
1
1
1
1
1
1
1
1
1
1
1
1
1
1
1
1
1
1
1
1
1
1
1
1
1
1
1
1
1
1
1
1
1
1
1.21
7.25956
10.1349
10.0977
10.1205
10.1461
10.1734
10.199
10.2255
10.2538
10.2816
10.3047
10.3212
10.3334
10.3475
10.3677
10.3932
10.4184
10.4363
10.4438
10.4419
10.4352
10.4282
10.423
10.4198
10.4164
10.4095
10.397
10.3773
10.3493
10.3117
10.2645
10.2085
10.144
10.0705
9.98641
9.89056
9.77618
9.63691
9.44985
9.19705
8.82078
8.26777
7.3506
5.48849
1
1
1
1
1
1
1
1
1
1
1
1
1
1
1
1
1
1
1
1
1
1
1
1
1
1
1
1
1
1
1
1
1
1
1
1
1
1
1
1
1
1
1
1
1
1
1
1
1
1
1
1.00145
4.60323
9.69923
9.93711
9.98515
10.0212
10.0597
10.0919
10.1206
10.1492
10.1775
10.2016
10.2188
10.2292
10.2367
10.2475
10.2653
10.2878
10.3069
10.3163
10.3136
10.3015
10.2859
10.2712
10.2589
10.2468
10.2321
10.212
10.184
10.1456
10.0949
10.0318
9.95744
9.8713
9.77241
9.65488
9.5178
9.3475
9.14095
8.86244
8.5041
7.98863
7.34421
6.11891
4.49374
1
1
1
1
1
1
1
1
1
1
1
1
1
1
1
1
1
1
1
1
1
1
1
1
1
1
1
1
1
1
1
1
1
1
1
1
1
1
1
1
1
1
1
1
1
1
1
1
1
1
1
0.999996
1.95561
8.26396
9.88647
9.91137
9.95042
9.9867
10.0186
10.0435
10.0672
10.0922
10.116
10.1336
10.1438
10.1466
10.1484
10.1559
10.1701
10.1847
10.1911
10.1858
10.1684
10.1452
10.1216
10.0997
10.0772
10.0519
10.0218
9.98442
9.93592
9.87336
9.79428
9.70117
9.59237
9.46881
9.32169
9.14943
8.93775
8.68014
8.35484
7.93583
7.40255
6.64228
5.62328
4.54324
1
1
1
1
1
1
1
1
1
1
1
1
1
1
1
1
1
1
1
1
1
1
1
1
1
1
1
1
1
1
1
1
1
1
1
1
1
1
1
1
1
1
1
1
1
1
1
1
1
1
1
0.999999
1.03291
5.43756
9.74015
9.83829
9.86824
9.90318
9.93684
9.96035
9.97914
9.9983
10.0182
10.033
10.0438
10.047
10.0459
10.0462
10.0506
10.0561
10.0562
10.0466
10.0256
9.99743
9.96731
9.93686
9.904
9.86739
9.82561
9.77782
9.71945
9.64735
9.55619
9.44814
9.32054
9.1756
9.00546
8.80696
8.5711
8.28753
7.94558
7.51544
6.99168
6.31877
5.53215
4.72711
1
1
1
1
1
1
1
1
1
1
1
1
1
1
1
1
1
1
1
1
1
1
1
1
1
1
1
1
1
1
1
1
1
1
1
1
1
1
1
1
1
1
1
1
1
1
1
1
1
1
1
1
1
2.248
8.47624
9.77101
9.79015
9.83024
9.86021
9.88507
9.90256
9.91922
9.93165
9.93398
9.93953
9.94418
9.94496
9.9439
9.94175
9.93761
9.92822
9.91081
9.88419
9.8513
9.81582
9.77914
9.7381
9.6913
9.63682
9.57559
9.50477
9.42268
9.32306
9.20576
9.06729
8.9079
8.72217
8.50723
8.25895
7.96865
7.63315
7.2208
6.7479
6.19454
5.57265
4.94052
1
1
1
1
1
1
1
1
1
1
1
1
1
1
1
1
1
1
1
1
1
1
1
1
1
1
1
1
1
1
1
1
1
1
1
1
1
1
1
1
1
1
1
1
1
1
1
1
1
1
1
1
0.999999
1.05052
5.52352
9.6255
9.73832
9.76623
9.78522
9.80465
9.82312
9.84594
9.85808
9.85388
9.84848
9.84637
9.84296
9.83735
9.82884
9.81703
9.8001
9.77702
9.74652
9.71012
9.6693
9.62627
9.57811
9.52349
9.45892
9.3847
9.29996
9.20532
9.09735
8.97437
8.83212
8.66759
8.4758
8.2549
8.00421
7.71691
7.39726
7.01854
6.61018
6.15852
5.64357
5.13491
1
1
1
1
1
1
1
1
1
1
1
1
1
1
1
1
1
1
1
1
1
1
1
1
1
1
1
1
1
1
1
1
1
1
1
1
1
1
1
1
1
1
1
1
1
1
1
1
1
1
1
1
1
1.00005
2.08137
8.24934
9.67003
9.67827
9.70038
9.71559
9.7323
9.75167
9.75866
9.7567
9.75135
9.7466
9.73979
9.7281
9.71172
9.6917
9.66737
9.63949
9.60604
9.56792
9.52379
9.47577
9.42222
9.36225
9.29195
9.2089
9.11214
9.00433
8.88693
8.75964
8.61748
8.45484
8.26603
8.0481
7.80506
7.52465
7.2243
6.88266
6.52904
6.14812
5.70966
5.28552
1
1
1
1
1
1
1
1
1
1
1
1
1
1
1
1
1
1
1
1
1
1
1
1
1
1
1
1
1
1
1
1
1
1
1
1
1
1
1
1
1
1
1
1
1
1
1
1
1
1
1
1
1
1
1.03594
4.93778
9.3703
9.60898
9.60086
9.62003
9.6444
9.66791
9.6738
9.67165
9.66426
9.65562
9.64497
9.62776
9.60367
9.5764
9.54548
9.51253
9.47543
9.43487
9.38714
9.33368
9.27381
9.20791
9.13379
9.04691
8.94336
8.8256
8.69889
8.56587
8.42232
8.26271
8.0821
7.87354
7.64551
7.37832
7.10179
6.79675
6.4792
6.14667
5.77411
5.41287
1
1
1
1
1
1
1
1
1
1
1
1
1
1
1
1
1
1
1
1
1
1
1
1
1
1
1
1
1
1
1
1
1
1
1
1
1
1
1
1
1
1
1
1
1
1
1
1
1
1
1
1
1
1
1.00003
1.52249
7.54533
9.6452
9.58269
9.57635
9.56877
9.57392
9.57344
9.56792
9.55742
9.54554
9.53199
9.51253
9.48535
9.45469
9.4199
9.38151
9.34104
9.29851
9.2483
9.1919
9.12727
9.05616
8.97916
8.89206
8.78822
8.66767
8.53633
8.39905
8.25341
8.09526
7.92282
7.72466
7.51175
7.2643
7.01514
6.74131
6.44932
6.1575
5.83794
5.51472
1
1
1
1
1
1
1
1
1
1
1
1
1
1
1
1
1
1
1
1
1
1
1
1
1
1
1
1
1
1
1
1
1
1
1
1
1
1
1
1
1
1
1
1
1
1
1
1
1
1
1
1
1
1
1
1.00819
3.89624
8.98171
9.40609
9.42757
9.45122
9.45525
9.45218
9.44821
9.44157
9.43049
9.41587
9.39597
9.36867
9.3394
9.30325
9.25897
9.21487
9.17017
9.11736
9.05897
8.99008
8.91376
8.83289
8.74431
8.64248
8.52469
8.39473
8.25602
8.10916
7.95011
7.78247
7.5929
7.394
7.17006
6.94614
6.69801
6.43737
6.18022
5.89767
5.60164
1
1
1
1
1
1
1
1
1
1
1
1
1
1
1
1
1
1
1
1
1
1
1
1
1
1
1
1
1
1
1
1
1
1
1
1
1
1
1
1
1
1
1
1
1
1
1
1
1
1
1
1
1
1
1
1
1.22218
6.21147
9.41478
9.38578
9.37812
9.3612
9.3561
9.35201
9.34768
9.33705
9.32078
9.29874
9.26932
9.23952
9.20062
9.15103
9.10136
9.05207
8.99439
8.93305
8.86063
8.78138
8.69695
8.60521
8.50551
8.39309
8.27036
8.13292
7.98804
7.82911
7.66432
7.48162
7.29575
7.09269
6.88623
6.66463
6.4368
6.20065
5.94495
5.6773
1
1
1
1
1
1
1
1
1
1
1
1
1
1
1
1
1
1
1
1
1
1
1
1
1
1
1
1
1
1
1
1
1
1
1
1
1
1
1
1
1
1
1
1
1
1
1
1
1
1
1
1
1
1
1
1
1.00151
2.1516
8.00067
9.33315
9.25528
9.26101
9.25877
9.2547
9.24976
9.23938
9.22106
9.19626
9.16458
9.13242
9.09355
9.04198
8.98845
8.93475
8.87377
8.80977
8.7364
8.65706
8.57159
8.47798
8.37687
8.26877
8.15099
8.01886
7.87857
7.72518
7.56514
7.3909
7.2163
7.02826
6.83672
6.64033
6.43384
6.21112
5.98368
5.74534
1
1
1
1
1
1
1
1
1
1
1
1
1
1
1
1
1
1
1
1
1
1
1
1
1
1
1
1
1
1
1
1
1
1
1
1
1
1
1
1
1
1
1
1
1
1
1
1
1
1
1
1
1
1
1
1
1
1.03768
4.1525
8.90255
9.16115
9.17357
9.18211
9.17584
9.16647
9.15226
9.13076
9.10299
9.06769
9.02936
8.98969
8.93701
8.8811
8.82442
8.76224
8.69576
8.62227
8.54234
8.45923
8.36544
8.26343
8.1555
8.04101
7.91444
7.77994
7.63475
7.48283
7.31936
7.15386
6.97943
6.80119
6.62091
6.42567
6.21959
6.01599
5.80152
1
1
1
1
1
1
1
1
1
1
1
1
1
1
1
1
1
1
1
1
1
1
1
1
1
1
1
1
1
1
1
1
1
1
1
1
1
1
1
1
1
1
1
1
1
1
1
1
1
1
1
1
1
1
1
1
1
1.00007
1.25356
5.72584
9.03472
9.15868
9.13039
9.11943
9.10133
9.07765
9.05097
9.01944
8.9805
8.93684
8.89396
8.84129
8.78359
8.72409
8.66077
8.59197
8.51699
8.4351
8.35315
8.26026
8.16111
8.05459
7.94183
7.81865
7.68942
7.55161
7.40931
7.25728
7.10115
6.94092
6.7739
6.60269
6.41892
6.23082
6.04152
5.84595
1
1
1
1
1
1
1
1
1
1
1
1
1
1
1
1
1
1
1
1
1
1
1
1
1
1
1
1
1
1
1
1
1
1
1
1
1
1
1
1
1
1
1
1
1
1
1
1
1
1
1
1
1
1
1
1
1
1
1.00202
1.62162
7.27773
9.17003
9.10598
9.06688
9.02363
8.98659
8.95347
8.92219
8.88343
8.83948
8.79559
8.74415
8.68723
8.62688
8.56464
8.49716
8.42154
8.33897
8.25398
8.16502
8.06765
7.96522
7.85548
7.73836
7.61443
7.48096
7.34639
7.20428
7.05785
6.91024
6.75331
6.58919
6.41758
6.24404
6.06439
5.88438
1
1
1
1
1
1
1
1
1
1
1
1
1
1
1
1
1
1
1
1
1
1
1
1
1
1
1
1
1
1
1
1
1
1
1
1
1
1
1
1
1
1
1
1
1
1
1
1
1
1
1
1
1
1
1
1
1
1
1
1.01115
3.04589
8.31876
8.9599
8.90042
8.87125
8.84522
8.82326
8.80081
8.7712
8.73678
8.69866
8.65089
8.59752
8.53894
8.47484
8.40909
8.33464
8.25205
8.16597
8.07808
7.98587
7.8864
7.78045
7.66859
7.54988
7.42104
7.29162
7.15657
7.01885
6.88043
6.73212
6.57669
6.41706
6.25537
6.08632
5.9188
1
1
1
1
1
1
1
1
1
1
1
1
1
1
1
1
1
1
1
1
1
1
1
1
1
1
1
1
1
1
1
1
1
1
1
1
1
1
1
1
1
1
1
1
1
1
1
1
1
1
1
1
1
1
1
1
1
1
1
1.00002
1.10883
4.3684
8.60683
8.79569
8.77304
8.77072
8.7571
8.73525
8.70582
8.67124
8.63126
8.58242
8.52725
8.46783
8.40211
8.33192
8.26139
8.17935
8.09164
8.00451
7.91194
7.81584
7.71436
7.60697
7.49326
7.37108
7.24726
7.11795
6.98765
6.85545
6.71362
6.56724
6.41857
6.26608
6.10803
5.95069
1
1
1
1
1
1
1
1
1
1
1
1
1
1
1
1
1
1
1
1
1
1
1
1
1
1
1
1
1
1
1
1
1
1
1
1
1
1
1
1
1
1
1
1
1
1
1
1
1
1
1
1
1
1
1
1
1
1
1
1
1.00051
1.29425
5.2026
8.58904
8.71959
8.71844
8.70691
8.68077
8.64841
8.6098
8.56576
8.51543
8.45974
8.39925
8.33374
8.26105
8.18797
8.11009
8.02419
7.93677
7.84569
7.75172
7.65329
7.54913
7.43915
7.32399
7.20669
7.08305
6.95904
6.83129
6.69443
6.55706
6.41817
6.27389
6.12643
5.97861
1
1
1
1
1
1
1
1
1
1
1
1
1
1
1
1
1
1
1
1
1
1
1
1
1
1
1
1
1
1
1
1
1
1
1
1
1
1
1
1
1
1
1
1
1
1
1
1
1
1
1
1
1
1
1
1
1
1
1
1
1
1.00282
1.49333
5.87573
8.58556
8.69369
8.66133
8.6301
8.59387
8.55082
8.50384
8.45321
8.39725
8.33539
8.26916
8.19721
8.12355
8.04769
7.96589
7.87991
7.79004
7.6973
7.60084
7.49911
7.3922
7.28213
7.17052
7.05223
6.93245
6.80821
6.67737
6.54951
6.41952
6.28288
6.14376
6.00344
1
1
1
1
1
1
1
1
1
1
1
1
1
1
1
1
1
1
1
1
1
1
1
1
1
1
1
1
1
1
1
1
1
1
1
1
1
1
1
1
1
1
1
1
1
1
1
1
1
1
1
1
1
1
1
1
1
1
1
1
1
1
1.00728
1.72115
6.44765
8.56605
8.6122
8.58177
8.53929
8.49373
8.44276
8.39035
8.33312
8.2714
8.20506
8.13439
8.06248
7.98766
7.90831
7.82449
7.73681
7.64608
7.55198
7.45309
7.34965
7.2435
7.13603
7.02323
6.90641
6.78537
6.66222
6.54275
6.41975
6.28977
6.15742
6.02312
1
1
1
1
1
1
1
1
1
1
1
1
1
1
1
1
1
1
1
1
1
1
1
1
1
1
1
1
1
1
1
1
1
1
1
1
1
1
1
1
1
1
1
1
1
1
1
1
1
1
1
1
1
1
1
1
1
1
1
1
1
1
1.00001
1.0147
1.97969
6.88597
8.53697
8.54199
8.5034
8.44901
8.39481
8.33752
8.27567
8.21216
8.14488
8.07522
8.0051
7.93263
7.85653
7.77623
7.69172
7.60316
7.51045
7.41333
7.31326
7.21045
7.10608
6.99832
6.88571
6.76958
6.65277
6.53859
6.41985
6.29511
6.16774
6.03898
1
1
1
1
1
1
1
1
1
1
1
1
1
1
1
1
1
1
1
1
1
1
1
1
1
1
1
1
1
1
1
1
1
1
1
1
1
1
1
1
1
1
1
1
1
1
1
1
1
1
1
1
1
1
1
1
1
1
1
1
1
1
1
1.00003
1.02625
2.23761
7.27983
8.49888
8.45587
8.4053
8.34097
8.27997
8.21698
8.15233
8.08463
8.01691
7.94893
7.87894
7.80569
7.72837
7.64673
7.56062
7.47004
7.37615
7.28009
7.18115
7.08008
6.97595
6.86726
6.75582
6.64342
6.53158
6.41485
6.29638
6.17711
6.05679
1
1
1
1
1
1
1
1
1
1
1
1
1
1
1
1
1
1
1
1
1
1
1
1
1
1
1
1
1
1
1
1
1
1
1
1
1
1
1
1
1
1
1
1
1
1
1
1
1
1
1
1
1
1
1
1
1
1
1
1
1
1
1
1
1.00008
1.04125
2.63917
7.52068
8.38501
8.32969
8.28611
8.22436
8.15999
8.09634
8.03264
7.96878
7.90317
7.8345
7.76205
7.68547
7.60517
7.52108
7.43375
7.34411
7.25173
7.15613
7.05748
6.95516
6.84941
6.7405
6.63145
6.52374
6.41339
6.30569
6.20518
6.11428
1
1
1
1
1
1
1
1
1
1
1
1
1
1
1
1
1
1
1
1
1
1
1
1
1
1
1
1
1
1
1
1
1
1
1
1
1
1
1
1
1
1
1
1
1
1
1
1
1
1
1
1
1
1
1
1
1
1
1
1
1
1
1
1
1
1.00015
1.07112
2.93149
7.57171
8.27005
8.21643
8.16101
8.1062
8.04872
7.9898
7.92838
7.86378
7.7958
7.72414
7.6489
7.57051
7.48891
7.40426
7.31683
7.22581
7.13175
7.03352
6.93147
6.82836
6.72507
6.62506
6.52879
6.44418
6.38118
6.33578
6.32967
1
1
1
1
1
1
1
1
1
1
1
1
1
1
1
1
1
1
1
1
1
1
1
1
1
1
1
1
1
1
1
1
1
1
1
1
1
1
1
1
1
1
1
1
1
1
1
1
1
1
1
1
1
1
1
1
1
1
1
1
1
1
1
1
1
1
1.00033
1.09961
3.02971
7.49824
8.16024
8.11073
8.06183
8.01089
7.95588
7.89644
7.83201
7.76303
7.69092
7.61652
7.53946
7.45886
7.37526
7.28823
7.19642
7.10157
7.00357
6.90673
6.81309
6.72527
6.66076
6.61758
6.60887
6.64426
6.71997
6.82466
1
1
1
1
1
1
1
1
1
1
1
1
1
1
1
1
1
1
1
1
1
1
1
1
1
1
1
1
1
1
1
1
1
1
1
1
1
1
1
1
1
1
1
1
1
1
1
1
1
1
1
1
1
1
1
1
1
1
1
1
1
1
1
1
1
1
1
1.00057
1.11227
2.97024
7.36914
8.0768
8.03264
7.98431
7.92715
7.86574
7.80056
7.73147
7.65983
7.58541
7.50783
7.42687
7.34214
7.25306
7.16266
7.07282
6.98384
6.90691
6.85758
6.83886
6.87266
6.95507
7.08101
7.20545
7.31216
7.35407
1
1
1
1
1
1
1
1
1
1
1
1
1
1
1
1
1
1
1
1
1
1
1
1
1
1
1
1
1
1
1
1
1
1
1
1
1
1
1
1
1
1
1
1
1
1
1
1
1
1
1
1
1
1
1
1
1
1
1
1
1
1
1
1
1
1
1
1
1.00071
1.10756
2.88657
7.19027
7.98561
7.95051
7.892
7.83154
7.7649
7.69782
7.62784
7.55413
7.47532
7.39212
7.30766
7.22228
7.13789
7.0711
7.0344
7.04203
7.10511
7.24922
7.42302
7.56971
7.69519
7.74658
7.73323
7.65958
1
1
1
1
1
1
1
1
1
1
1
1
1
1
1
1
1
1
1
1
1
1
1
1
1
1
1
1
1
1
1
1
1
1
1
1
1
1
1
1
1
1
1
1
1
1
1
1
1
1
1
1
1
1
1
1
1
1
1
1
1
1
1
1
1
1
1
1
1
1.00067
1.09893
2.75337
6.94347
7.88574
7.86071
7.79656
7.73344
7.66617
7.59493
7.52002
7.44129
7.3591
7.27814
7.21501
7.19048
7.21986
7.32061
7.51248
7.74338
7.94611
8.04837
8.10357
8.10189
8.01861
7.91886
7.81362
1
1
1
1
1
1
1
1
1
1
1
1
1
1
1
1
1
1
1
1
1
1
1
1
1
1
1
1
1
1
1
1
1
1
1
1
1
1
1
1
1
1
1
1
1
1
1
1
1
1
1
1
1
1
1
1
1
1
1
1
1
1
1
1
1
1
1
1
1
1
1.0006
1.08552
2.56301
6.61818
7.76848
7.76369
7.69922
7.63569
7.56032
7.48658
7.4093
7.34537
7.3207
7.3587
7.5098
7.7452
8.03083
8.29207
8.41212
8.44474
8.4302
8.37529
8.27883
8.14401
8.04149
7.95089
1
1
1
1
1
1
1
1
1
1
1
1
1
1
1
1
1
1
1
1
1
1
1
1
1
1
1
1
1
1
1
1
1
1
1
1
1
1
1
1
1
1
1
1
1
1
1
1
1
1
1
1
1
1
1
1
1
1
1
1
1
1
1
1
1
1
1
1
1
1
1
1.00049
1.06813
2.33227
6.17552
7.64232
7.69044
7.59626
7.52172
7.45585
7.42707
7.47458
7.65696
7.95933
8.31285
8.59688
8.76369
8.80311
8.7427
8.67582
8.60168
8.50237
8.37356
8.25164
8.179
8.10367
1
1
1
1
1
1
1
1
1
1
1
1
1
1
1
1
1
1
1
1
1
1
1
1
1
1
1
1
1
1
1
1
1
1
1
1
1
1
1
1
1
1
1
1
1
1
1
1
1
1
1
1
1
1
1
1
1
1
1
1
1
1
1
1
1
1
1
1
1
1
1
1
1.00035
1.04995
2.06936
5.60516
7.49486
7.53722
7.50766
7.55072
7.7611
8.13579
8.57909
8.903
9.07413
9.14207
9.09443
8.9895
8.88258
8.79859
8.71076
8.60042
8.48063
8.39588
8.34323
8.2631
1
1
1
1
1
1
1
1
1
1
1
1
1
1
1
1
1
1
1
1
1
1
1
1
1
1
1
1
1
1
1
1
1
1
1
1
1
1
1
1
1
1
1
1
1
1
1
1
1
1
1
1
1
1
1
1
1
1
1
1
1
1
1
1
1
1
1
1
1
1
1
1
1
1.00023
1.03282
1.79947
4.88336
7.20225
7.83182
8.16673
8.77168
9.23021
9.44373
9.48305
9.42583
9.33989
9.21215
9.07735
8.98225
8.90341
8.81449
8.70714
8.61837
8.56607
8.50926
8.41345
1
1
1
1
1
1
1
1
1
1
1
1
1
1
1
1
1
1
1
1
1
1
1
1
1
1
1
1
1
1
1
1
1
1
1
1
1
1
1
1
1
1
1
1
1
1
1
1
1
1
1
1
1
1
1
1
1
1
1
1
1
1
1
1
1
1
1
1
1
1
1
1
1
1
1.00012
1.01965
1.52991
4.31812
8.47336
9.51104
9.78332
9.84138
9.76109
9.65377
9.5435
9.43013
9.29975
9.18403
9.11323
9.0402
8.94907
8.85133
8.78878
8.74252
8.6619
8.54834
1
1
1
1
1
1
1
1
1
1
1
1
1
1
1
1
1
1
1
1
1
1
1
1
1
1
1
1
1
1
1
1
1
1
1
1
1
1
1
1
1
1
1
1
1
1
1
1
1
1
1
1
1
1
1
1
1
1
1
1
1
1
1
1
1
1
1
1
1
1
1
1
1
1
1
1.00006
1.0098
1.36864
7.84179
10.7034
10.2685
10.0729
9.8989
9.75771
9.63204
9.50135
9.36807
9.27289
9.21611
9.1556
9.07379
9.00033
8.9539
8.90287
8.80482
8.7008
1
1
1
1
1
1
1
1
1
1
1
1
1
1
1
1
1
1
1
1
1
1
1
1
1
1
1
1
1
1
1
1
1
1
1
1
1
1
1
1
1
1
1
1
1
1
1
1
1
1
1
1
1
1
1
1
1
1
1
1
1
1
1
1
1
1
1
1
1
1
1
1
1
1
1
1
1.00003
1.00418
5.77835
10.2381
9.98104
9.86683
9.75516
9.66608
9.58839
9.51456
9.45848
9.41878
9.37948
9.32426
9.24578
9.17022
9.11403
9.04596
8.93577
8.84154
1
1
1
1
1
1
1
1
1
1
1
1
1
1
1
1
1
1
1
1
1
1
1
1
1
1
1
1
1
1
1
1
1
1
1
1
1
1
1
1
1
1
1
1
1
1
1
1
1
1
1
1
1
1
1
1
1
1
1
1
1
1
1
1
1
1
1
1
1
1
1
1
1
1
1
1
1
1
3.02016
9.13012
9.99382
9.92519
9.89755
9.85123
9.79958
9.74294
9.68986
9.63169
9.56879
9.49684
9.41326
9.32867
9.25556
9.16781
9.0624
8.97436
1
1
1
1
1
1
1
1
1
1
1
1
1
1
1
1
1
1
1
1
1
1
1
1
1
1
1
1
1
1
1
1
1
1
1
1
1
1
1
1
1
1
1
1
1
1
1
1
1
1
1
1
1
1
1
1
1
1
1
1
1
1
1
1
1
1
1
1
1
1
1
1
1
1
1
1
1
1
1.24003
7.43658
10.1031
10.0363
9.98571
9.92587
9.86863
9.81093
9.74492
9.67459
9.59857
9.51914
9.44059
9.37001
9.3023
9.22908
9.15888
9.10419
1
1
1
1
1
1
1
1
1
1
1
1
1
1
1
1
1
1
1
1
1
1
1
1
1
1
1
1
1
1
1
1
1
1
1
1
1
1
1
1
1
1
1
1
1
1
1
1
1
1
1
1
1
1
1
1
1
1
1
1
1
1
1
1
1
1
1
1
1
1
1
1
1
1
1
1
1
1
1.00181
4.9261
9.73411
9.96133
9.94951
9.92434
9.88148
9.83379
9.78384
9.73246
9.679
9.6265
9.57086
9.51532
9.45583
9.39378
9.33413
9.27665
1
1
1
1
1
1
1
1
1
1
1
1
1
1
1
1
1
1
1
1
1
1
1
1
1
1
1
1
1
1
1
1
1
1
1
1
1
1
1
1
1
1
1
1
1
1
1
1
1
1
1
1
1
1
1
1
1
1
1
1
1
1
1
1
1
1
1
1
1
1
1
1
1
1
1
1
1
1
0.999998
2.47581
8.72014
10.0682
10.0115
9.96652
9.92586
9.88145
9.83386
9.78478
9.73471
9.68411
9.63683
9.58647
9.53215
9.47527
9.4163
9.3545
1
1
1
1
1
1
1
1
1
1
1
1
1
1
1
1
1
1
1
1
1
1
1
1
1
1
1
1
1
1
1
1
1
1
1
1
1
1
1
1
1
1
1
1
1
1
1
1
1
1
1
1
1
1
1
1
1
1
1
1
1
1
1
1
1
1
1
1
1
1
1
1
1
1
1
1
1
1
1
1.08324
6.91106
10.1352
10.0756
10.0012
9.95001
9.91101
9.87537
9.83693
9.79627
9.74935
9.69745
9.64522
9.59109
9.53499
9.47678
9.41763
1
1
1
1
1
1
1
1
1
1
1
1
1
1
1
1
1
1
1
1
1
1
1
1
1
1
1
1
1
1
1
1
1
1
1
1
1
1
1
1
1
1
1
1
1
1
1
1
1
1
1
1
1
1
1
1
1
1
1
1
1
1
1
1
1
1
1
1
1
1
1
1
1
1
1
1
1
1
1
1.00016
4.60294
9.68965
10.0011
9.98519
9.96809
9.93199
9.89255
9.85044
9.80613
9.76167
9.71361
9.66536
9.61627
9.56735
9.5171
9.46507
1
1
1
1
1
1
1
1
1
1
1
1
1
1
1
1
1
1
1
1
1
1
1
1
1
1
1
1
1
1
1
1
1
1
1
1
1
1
1
1
1
1
1
1
1
1
1
1
1
1
1
1
1
1
1
1
1
1
1
1
1
1
1
1
1
1
1
1
1
1
1
1
1
1
1
1
1
1
1
1
2.49359
8.80258
10.1901
10.1094
10.0617
10.0054
9.95601
9.90932
9.86381
9.81962
9.77492
9.72896
9.68129
9.63249
9.58356
9.53303
1
1
1
1
1
1
1
1
1
1
1
1
1
1
1
1
1
1
1
1
1
1
1
1
1
1
1
1
1
1
1
1
1
1
1
1
1
1
1
1
1
1
1
1
1
1
1
1
1
1
1
1
1
1
1
1
1
1
1
1
1
1
1
1
1
1
1
1
1
1
1
1
1
1
1
1
1
1
1
1
1.15231
7.25795
10.2411
10.1494
10.0807
10.0297
9.98264
9.9384
9.89512
9.85213
9.80879
9.7632
9.71602
9.66684
9.61773
9.5673
1
1
1
1
1
1
1
1
1
1
1
1
1
1
1
1
1
1
1
1
1
1
1
1
1
1
1
1
1
1
1
1
1
1
1
1
1
1
1
1
1
1
1
1
1
1
1
1
1
1
1
1
1
1
1
1
1
1
1
1
1
1
1
1
1
1
1
1
1
1
1
1
1
1
1
1
1
1
1
1
1.00078
5.39763
10.0076
10.1359
10.1007
10.0667
10.0232
9.97939
9.93515
9.89051
9.84581
9.79922
9.75187
9.70286
9.65378
9.60398
1
1
1
1
1
1
1
1
1
1
1
1
1
1
1
1
1
1
1
1
1
1
1
1
1
1
1
1
1
1
1
1
1
1
1
1
1
1
1
1
1
1
1
1
1
1
1
1
1
1
1
1
1
1
1
1
1
1
1
1
1
1
1
1
1
1
1
1
1
1
1
1
1
1
1
1
1
1
1
1
0.999999
3.51831
9.44107
10.1541
10.1025
10.0729
10.0334
9.99325
9.95118
9.90813
9.86496
9.81989
9.77466
9.72813
9.68108
9.63374
1
1
1
1
1
1
1
1
1
1
1
1
1
1
1
1
1
1
1
1
1
1
1
1
1
1
1
1
1
1
1
1
1
1
1
1
1
1
1
1
1
1
1
1
1
1
1
1
1
1
1
1
1
1
1
1
1
1
1
1
1
1
1
1
1
1
1
1
1
1
1
1
1
1
1
1
1
1
1
1
1
2.05452
8.56176
10.2985
10.2082
10.16
10.1083
10.06
10.0122
9.96585
9.92018
9.87389
9.82784
9.78087
9.7332
9.68525
1
1
1
1
1
1
1
1
1
1
1
1
1
1
1
1
1
1
1
1
1
1
1
1
1
1
1
1
1
1
1
1
1
1
1
1
1
1
1
1
1
1
1
1
1
1
1
1
1
1
1
1
1
1
1
1
1
1
1
1
1
1
1
1
1
1
1
1
1
1
1
1
1
1
1
1
1
1
1
1
1
1.12329
7.16963
10.3306
10.2391
10.1724
10.1217
10.0762
10.0326
9.98965
9.94598
9.90156
9.85695
9.81137
9.7648
9.71766
1
1
1
1
1
1
1
1
1
1
1
1
1
1
1
1
1
1
1
1
1
1
1
1
1
1
1
1
1
1
1
1
1
1
1
1
1
1
1
1
1
1
1
1
1
1
1
1
1
1
1
1
1
1
1
1
1
1
1
1
1
1
1
1
1
1
1
1
1
1
1
1
1
1
1
1
1
1
1
1
1
1.00068
5.68464
10.1419
10.2225
10.1786
10.1441
10.1023
10.0596
10.0168
9.97297
9.92863
9.88422
9.83899
9.79287
9.74606
1
1
1
1
1
1
1
1
1
1
1
1
1
1
1
1
1
1
1
1
1
1
1
1
1
1
1
1
1
1
1
1
1
1
1
1
1
1
1
1
1
1
1
1
1
1
1
1
1
1
1
1
1
1
1
1
1
1
1
1
1
1
1
1
1
1
1
1
1
1
1
1
1
1
1
1
1
1
1
1
1
1
4.26273
9.796
10.2366
10.1891
10.1628
10.1258
10.0867
10.0457
10.003
9.9592
9.9147
9.86918
9.8229
9.7758
1
1
1
1
1
1
1
1
1
1
1
1
1
1
1
1
1
1
1
1
1
1
1
1
1
1
1
1
1
1
1
1
1
1
1
1
1
1
1
1
1
1
1
1
1
1
1
1
1
1
1
1
1
1
1
1
1
1
1
1
1
1
1
1
1
1
1
1
1
1
1
1
1
1
1
1
1
1
1
1
1
1
2.9967
9.2929
10.2877
10.2219
10.1892
10.1474
10.1051
10.062
10.018
9.97387
9.92897
9.88336
9.83756
9.79093
1
1
1
1
1
1
1
1
1
1
1
1
1
1
1
1
1
1
1
1
1
1
1
1
1
1
1
1
1
1
1
1
1
1
1
1
1
1
1
1
1
1
1
1
1
1
1
1
1
1
1
1
1
1
1
1
1
1
1
1
1
1
1
1
1
1
1
1
1
1
1
1
1
1
1
1
1
1
1
1
1
1
2.00939
8.61537
10.3451
10.2653
10.2254
10.1817
10.1383
10.0952
10.0516
10.008
9.96364
9.91854
9.87309
9.82677
1
1
1
1
1
1
1
1
1
1
1
1
1
1
1
1
1
1
1
1
1
1
1
1
1
1
1
1
1
1
1
1
1
1
1
1
1
1
1
1
1
1
1
1
1
1
1
1
1
1
1
1
1
1
1
1
1
1
1
1
1
1
1
1
1
1
1
1
1
1
1
1
1
1
1
1
1
1
1
1
1
1
1.38251
7.71747
10.399
10.3029
10.2465
10.1973
10.152
10.1084
10.065
10.0219
9.97819
9.93389
9.88926
9.84409
1
1
1
1
1
1
1
1
1
1
1
1
1
1
1
1
1
1
1
1
1
1
1
1
1
1
1
1
1
1
1
1
1
1
1
1
1
1
1
1
1
1
1
1
1
1
1
1
1
1
1
1
1
1
1
1
1
1
1
1
1
1
1
1
1
1
1
1
1
1
1
1
1
1
1
1
1
1
1
1
1
1
1.00973
6.76695
10.3447
10.3218
10.2582
10.2142
10.1699
10.1265
10.083
10.0396
9.9959
9.95177
9.90743
9.86285
1
1
1
1
1
1
1
1
1
1
1
1
1
1
1
1
1
1
1
1
1
1
1
1
1
1
1
1
1
1
1
1
1
1
1
1
1
1
1
1
1
1
1
1
1
1
1
1
1
1
1
1
1
1
1
1
1
1
1
1
1
1
1
1
1
1
1
1
1
1
1
1
1
1
1
1
1
1
1
1
1
1
1.00001
5.82303
10.2117
10.3061
10.2487
10.2156
10.1748
10.134
10.0926
10.0508
10.0084
9.96555
9.92264
9.8792
1
1
1
1
1
1
1
1
1
1
1
1
1
1
1
1
1
1
1
1
1
1
1
1
1
1
1
1
1
1
1
1
1
1
1
1
1
1
1
1
1
1
1
1
1
1
1
1
1
1
1
1
1
1
1
1
1
1
1
1
1
1
1
1
1
1
1
1
1
1
1
1
1
1
1
1
1
1
1
1
1
1
1
4.90316
10.055
10.3189
10.2609
10.2307
10.1919
10.1528
10.1124
10.0714
10.0295
9.98706
9.94448
9.90124
1
1
1
1
1
1
1
1
1
1
1
1
1
1
1
1
1
1
1
1
1
1
1
1
1
1
1
1
1
1
1
1
1
1
1
1
1
1
1
1
1
1
1
1
1
1
1
1
1
1
1
1
1
1
1
1
1
1
1
1
1
1
1
1
1
1
1
1
1
1
1
1
1
1
1
1
1
1
1
1
1
1
1
4.10367
9.846
10.3445
10.2745
10.2421
10.2032
10.1642
10.124
10.0831
10.0415
9.99908
9.95652
9.91346
1
1
1
1
1
1
1
1
1
1
1
1
1
1
1
1
1
1
1
1
1
1
1
1
1
1
1
1
1
1
1
1
1
1
1
1
1
1
1
1
1
1
1
1
1
1
1
1
1
1
1
1
1
1
1
1
1
1
1
1
1
1
1
1
1
1
1
1
1
1
1
1
1
1
1
1
1
1
1
1
1
1
1
3.44532
9.59247
10.3682
10.2887
10.2549
10.216
10.1764
10.1356
10.0942
10.0526
10.0103
9.96785
9.92503
1
1
1
1
1
1
1
1
1
1
1
1
1
1
1
1
1
1
1
1
1
1
1
1
1
1
1
1
1
1
1
1
1
1
1
1
1
1
1
1
1
1
1
1
1
1
1
1
1
1
1
1
1
1
1
1
1
1
1
1
1
1
1
1
1
1
1
1
1
1
1
1
1
1
1
1
1
1
1
1
1
1
1
2.88796
9.38012
10.3848
10.3018
10.2657
10.2247
10.1846
10.1439
10.1027
10.0614
10.0193
9.97693
9.93432
1
1
1
1
1
1
1
1
1
1
1
1
1
1
1
1
1
1
1
1
1
1
1
1
1
1
1
1
1
1
1
1
1
1
1
1
1
1
1
1
1
1
1
1
1
1
1
1
1
1
1
1
1
1
1
1
1
1
1
1
1
1
1
1
1
1
1
1
1
1
1
1
1
1
1
1
1
1
1
1
1
1
1
2.47169
9.13175
10.3933
10.3115
10.2745
10.2331
10.1929
10.1524
10.1111
10.0699
10.0279
9.98569
9.94325
1
1
1
1
1
1
1
1
1
1
1
1
1
1
1
1
1
1
1
1
1
1
1
1
1
1
1
1
1
1
1
1
1
1
1
1
1
1
1
1
1
1
1
1
1
1
1
1
1
1
1
1
1
1
1
1
1
1
1
1
1
1
1
1
1
1
1
1
1
1
1
1
1
1
1
1
1
1
1
1
1
1
1
2.18195
8.88852
10.3937
10.3154
10.2787
10.2378
10.1979
10.1578
10.1167
10.0758
10.0343
9.99252
9.95027
1
1
1
1
1
1
1
1
1
1
1
1
1
1
1
1
1
1
1
1
1
1
1
1
1
1
1
1
1
1
1
1
1
1
1
1
1
1
1
1
1
1
1
1
1
1
1
1
1
1
1
1
1
1
1
1
1
1
1
1
1
1
1
1
1
1
1
1
1
1
1
1
1
1
1
1
1
1
1
1
1
1
1
1.98243
8.67482
10.3877
10.3141
10.2786
10.2386
10.1996
10.16
10.1196
10.0791
10.0382
9.9971
9.95516
1
1
1
1
1
1
1
1
1
1
1
1
1
1
1
1
1
1
1
1
1
1
1
1
1
1
1
1
1
1
1
1
1
1
1
1
1
1
1
1
1
1
1
1
1
1
1
1
1
1
1
1
1
1
1
1
1
1
1
1
1
1
1
1
1
1
1
1
1
1
1
1
1
1
1
1
1
1
1
1
1
1
1
1.84729
8.50663
10.3816
10.3121
10.2773
10.238
10.1998
10.1609
10.1212
10.0812
10.0407
10.0002
9.95825
1
1
1
1
1
1
1
1
1
1
1
1
1
1
1
1
1
1
1
1
1
1
1
1
1
1
1
1
1
1
1
1
1
1
1
1
1
1
1
1
1
1
1
1
1
1
1
1
1
1
1
1
1
1
1
1
1
1
1
1
1
1
1
1
1
1
1
1
1
1
1
1
1
1
1
1
1
1
1
1
1
1
1
1.76157
8.38909
10.3755
10.3092
10.2746
10.2359
10.1983
10.1598
10.1207
10.0809
10.0408
10.0008
9.95895
1
1
1
1
1
1
1
1
1
1
1
1
1
1
1
1
1
1
1
1
1
1
1
1
1
1
1
1
1
1
1
1
1
1
1
1
1
1
1
1
1
1
1
1
1