/*--------------------------------*- C++ -*----------------------------------*\
  =========                 |
  \\      /  F ield         | OpenFOAM: The Open Source CFD Toolbox
   \\    /   O peration     | Website:  https://openfoam.org
    \\  /    A nd           | Version:  7
     \\/     M anipulation  |
\*---------------------------------------------------------------------------*/
FoamFile
{
    version     2.0;
    format      ascii;
    class       volScalarField;
    location    "7.6";
    object      rho;
}
// * * * * * * * * * * * * * * * * * * * * * * * * * * * * * * * * * * * * * //

dimensions      [1 -3 0 0 0 0 0];

internalField   nonuniform List<scalar> 
19968
(
1.40001
1.40001
1.40001
1.40001
1.40001
1.40001
1.40001
1.40001
1.40001
1.40001
1.40001
1.40001
1.40001
1.40001
1.40001
1.40001
1.40001
1.40001
1.40001
1.40001
1.40001
1.40001
1.40001
1.40001
1.40001
1.40001
1.40001
1.40001
1.40001
1.40001
1.40001
1.40001
1.40001
1.40001
1.40001
1.40001
1.40001
1.40001
1.40001
1.40001
1.40001
1.40001
1.40001
1.40001
1.40001
1.40001
1.40001
1.40001
1.72711
4.59818
5.43381
5.43579
5.46185
5.47707
5.49586
5.51753
5.54144
5.56609
5.58971
5.61066
5.62839
5.64334
5.65683
5.67106
5.68776
5.70681
5.72679
5.74651
5.76536
5.78279
5.79845
5.81248
5.82541
5.83781
5.85009
5.86245
5.87496
5.88762
5.90028
5.91262
5.92419
5.93462
5.94385
5.95211
5.95978
5.96725
5.97479
5.98254
5.99035
5.9977
6.00363
6.00731
6.0086
6.00768
6.00594
6.00422
1.40001
1.40001
1.40001
1.40001
1.40001
1.40001
1.40001
1.40001
1.40001
1.40001
1.40001
1.40001
1.40001
1.40001
1.40001
1.40001
1.40001
1.40001
1.40001
1.40001
1.40001
1.40001
1.40001
1.40001
1.40001
1.40001
1.40001
1.40001
1.40001
1.40001
1.40001
1.40001
1.40001
1.40001
1.40001
1.40001
1.40001
1.40001
1.40001
1.40001
1.40001
1.40001
1.40001
1.40001
1.40001
1.40001
1.40001
1.40001
1.70703
4.56815
5.4262
5.43803
5.45944
5.4759
5.4953
5.51739
5.54159
5.56631
5.58987
5.61066
5.62819
5.64309
5.65663
5.67103
5.68767
5.70654
5.72628
5.74582
5.76446
5.78159
5.79687
5.81054
5.82325
5.83565
5.84813
5.86079
5.87359
5.8864
5.89907
5.9113
5.92272
5.93303
5.94217
5.95035
5.95795
5.96536
5.97285
5.98053
5.98821
5.99535
6.00107
6.00461
6.00592
6.00518
6.00368
6.00218
1.40001
1.40001
1.40001
1.40001
1.40001
1.40001
1.40001
1.40001
1.40001
1.40001
1.40001
1.40001
1.40001
1.40001
1.40001
1.40001
1.40001
1.40001
1.40001
1.40001
1.40001
1.40001
1.40001
1.40001
1.40001
1.40001
1.40001
1.40001
1.40001
1.40001
1.40001
1.40001
1.40001
1.40001
1.40001
1.40001
1.40001
1.40001
1.40001
1.40001
1.40001
1.40001
1.40001
1.40001
1.40001
1.40001
1.40001
1.40001
1.66664
4.51095
5.42208
5.43301
5.4535
5.4718
5.49262
5.51576
5.54041
5.56514
5.58845
5.60888
5.62619
5.64124
5.65505
5.66978
5.68642
5.70518
5.7247
5.74404
5.76242
5.77916
5.79394
5.80711
5.81947
5.83179
5.84445
5.85748
5.87067
5.88375
5.89646
5.90857
5.9198
5.92995
5.93901
5.94716
5.95474
5.96214
5.96963
5.97725
5.98477
5.99164
5.99711
6.00053
6.00194
6.00158
6.00049
5.99938
1.40001
1.40001
1.40001
1.40001
1.40001
1.40001
1.40001
1.40001
1.40001
1.40001
1.40001
1.40001
1.40001
1.40001
1.40001
1.40001
1.40001
1.40001
1.40001
1.40001
1.40001
1.40001
1.40001
1.40001
1.40001
1.40001
1.40001
1.40001
1.40001
1.40001
1.40001
1.40001
1.40001
1.40001
1.40001
1.40001
1.40001
1.40001
1.40001
1.40001
1.40001
1.40001
1.40001
1.40001
1.40001
1.40001
1.40001
1.40001
1.6087
4.41611
5.41492
5.42742
5.44829
5.46849
5.49061
5.51434
5.53895
5.56326
5.58593
5.60575
5.62285
5.63831
5.65257
5.66771
5.68433
5.70288
5.72205
5.74108
5.75905
5.7753
5.78953
5.80219
5.81423
5.82648
5.83934
5.85274
5.86632
5.87965
5.8924
5.90435
5.91535
5.92528
5.93415
5.94212
5.94952
5.95674
5.96403
5.97141
5.9786
5.98508
5.99027
5.99374
5.9955
5.99586
5.99555
5.99507
1.40001
1.40001
1.40001
1.40001
1.40001
1.40001
1.40001
1.40001
1.40001
1.40001
1.40001
1.40001
1.40001
1.40001
1.40001
1.40001
1.40001
1.40001
1.40001
1.40001
1.40001
1.40001
1.40001
1.40001
1.40001
1.40001
1.40001
1.40001
1.40001
1.40001
1.40001
1.40001
1.40001
1.40001
1.40001
1.40001
1.40001
1.40001
1.40001
1.40001
1.40001
1.40001
1.40001
1.40001
1.40001
1.40001
1.40001
1.40001
1.53312
4.2883
5.41295
5.42478
5.4449
5.46607
5.48852
5.51203
5.53587
5.55921
5.58108
5.60058
5.61771
5.63368
5.64862
5.66442
5.68127
5.69967
5.71841
5.73699
5.75447
5.77025
5.78404
5.79634
5.80812
5.82026
5.83318
5.84678
5.86061
5.87416
5.88703
5.89898
5.90991
5.91975
5.92854
5.93642
5.94368
5.95067
5.95761
5.96447
5.97094
5.97663
5.98117
5.98436
5.98628
5.9872
5.98752
5.9876
1.40001
1.40001
1.40001
1.40001
1.40001
1.40001
1.40001
1.40001
1.40001
1.40001
1.40001
1.40001
1.40001
1.40001
1.40001
1.40001
1.40001
1.40001
1.40001
1.40001
1.40001
1.40001
1.40001
1.40001
1.40001
1.40001
1.40001
1.40001
1.40001
1.40001
1.40001
1.40001
1.40001
1.40001
1.40001
1.40001
1.40001
1.40001
1.40001
1.40001
1.40001
1.40001
1.40001
1.40001
1.40001
1.40001
1.40001
1.40001
1.41279
4.09647
5.40552
5.42181
5.44157
5.46459
5.48781
5.51125
5.53413
5.55606
5.57676
5.59568
5.61246
5.6284
5.64391
5.66038
5.67749
5.69544
5.71324
5.73083
5.74747
5.76269
5.7761
5.78808
5.79953
5.81135
5.82397
5.83731
5.85095
5.86439
5.8772
5.88913
5.90003
5.90985
5.9186
5.92646
5.93369
5.94059
5.94735
5.95391
5.96
5.96533
5.9697
5.9731
5.97558
5.9773
5.9784
5.97912
1.40001
1.40001
1.40001
1.40001
1.40001
1.40001
1.40001
1.40001
1.40001
1.40001
1.40001
1.40001
1.40001
1.40001
1.40001
1.40001
1.40001
1.40001
1.40001
1.40001
1.40001
1.40001
1.40001
1.40001
1.40001
1.40001
1.40001
1.40001
1.40001
1.40001
1.40001
1.40001
1.40001
1.40001
1.40001
1.40001
1.40001
1.40001
1.40001
1.40001
1.40001
1.40001
1.40001
1.40001
1.40001
1.40001
1.40001
1.40001
1.40011
3.80476
5.365
5.40563
5.42667
5.45259
5.47656
5.4999
5.52177
5.54243
5.56197
5.58025
5.59709
5.6133
5.62951
5.64676
5.66448
5.68247
5.69981
5.71683
5.73302
5.74814
5.76183
5.77426
5.78607
5.79793
5.81026
5.8231
5.83631
5.84954
5.86241
5.87454
5.88565
5.89561
5.90448
5.91243
5.9197
5.92654
5.93308
5.93926
5.94493
5.94992
5.9542
5.95781
5.96075
5.96308
5.96476
5.96591
1.40001
1.40001
1.40001
1.40001
1.40001
1.40001
1.40001
1.40001
1.40001
1.40001
1.40001
1.40001
1.40001
1.40001
1.40001
1.40001
1.40001
1.40001
1.40001
1.40001
1.40001
1.40001
1.40001
1.40001
1.40001
1.40001
1.40001
1.40001
1.40001
1.40001
1.40001
1.40001
1.40001
1.40001
1.40001
1.40001
1.40001
1.40001
1.40001
1.40001
1.40001
1.40001
1.40001
1.40001
1.40001
1.40001
1.40001
1.40001
1.40001
3.41388
5.31384
5.4009
5.42034
5.44695
5.46974
5.49219
5.51337
5.53375
5.55277
5.57033
5.58691
5.60296
5.61913
5.63622
5.65386
5.67153
5.68826
5.70447
5.71984
5.73438
5.74795
5.76053
5.77251
5.78426
5.79607
5.80812
5.82054
5.83324
5.84587
5.85795
5.86908
5.87907
5.88794
5.89586
5.90303
5.90963
5.91577
5.92146
5.92669
5.93144
5.93574
5.93956
5.9428
5.9455
5.94744
5.94873
1.40001
1.40001
1.40001
1.40001
1.40001
1.40001
1.40001
1.40001
1.40001
1.40001
1.40001
1.40001
1.40001
1.40001
1.40001
1.40001
1.40001
1.40001
1.40001
1.40001
1.40001
1.40001
1.40001
1.40001
1.40001
1.40001
1.40001
1.40001
1.40001
1.40001
1.40001
1.40001
1.40001
1.40001
1.40001
1.40001
1.40001
1.40001
1.40001
1.40001
1.40001
1.40001
1.40001
1.40001
1.40001
1.40001
1.40001
1.40001
1.40001
2.94643
5.22363
5.40007
5.41732
5.44185
5.46286
5.48406
5.50434
5.52443
5.54351
5.56083
5.57717
5.59273
5.60828
5.62448
5.64131
5.65816
5.67399
5.68916
5.70355
5.71721
5.73029
5.7426
5.7544
5.76581
5.77705
5.78833
5.79992
5.81187
5.82392
5.83557
5.8464
5.85622
5.86502
5.87289
5.87995
5.88632
5.89217
5.89759
5.90268
5.90748
5.91201
5.9161
5.91956
5.92243
5.92439
5.92568
1.40001
1.40001
1.40001
1.40001
1.40001
1.40001
1.40001
1.40001
1.40001
1.40001
1.40001
1.40001
1.40001
1.40001
1.40001
1.40001
1.40001
1.40001
1.40001
1.40001
1.40001
1.40001
1.40001
1.40001
1.40001
1.40001
1.40001
1.40001
1.40001
1.40001
1.40001
1.40001
1.40001
1.40001
1.40001
1.40001
1.40001
1.40001
1.40001
1.40001
1.40001
1.40001
1.40001
1.40001
1.40001
1.40001
1.40001
1.40001
1.40001
2.42046
5.04381
5.4025
5.42266
5.44493
5.46355
5.48177
5.49945
5.51803
5.53688
5.55417
5.57016
5.58493
5.59922
5.6138
5.62917
5.64498
5.65998
5.67424
5.6877
5.70021
5.71223
5.72351
5.73433
5.74483
5.7552
5.76554
5.77601
5.78671
5.79748
5.80802
5.81809
5.82755
5.83628
5.84417
5.85117
5.85735
5.86289
5.86799
5.8728
5.87741
5.8818
5.88571
5.88892
5.89148
5.8931
5.89417
1.40001
1.40001
1.40001
1.40001
1.40001
1.40001
1.40001
1.40001
1.40001
1.40001
1.40001
1.40001
1.40001
1.40001
1.40001
1.40001
1.40001
1.40001
1.40001
1.40001
1.40001
1.40001
1.40001
1.40001
1.40001
1.40001
1.40001
1.40001
1.40001
1.40001
1.40001
1.40001
1.40001
1.40001
1.40001
1.40001
1.40001
1.40001
1.40001
1.40001
1.40001
1.40001
1.40001
1.40001
1.40001
1.40001
1.40001
1.40001
1.40001
1.88456
4.72729
5.41889
5.41277
5.43549
5.45265
5.47041
5.48787
5.5061
5.52505
5.54272
5.55885
5.57369
5.5876
5.60111
5.61511
5.62994
5.64443
5.65823
5.6712
5.68276
5.69353
5.70364
5.71345
5.72314
5.73282
5.74232
5.75153
5.76047
5.76916
5.7776
5.78584
5.7938
5.80129
5.80804
5.81389
5.81899
5.82364
5.82812
5.83263
5.8372
5.84167
5.84566
5.8489
5.85141
5.8529
5.85397
1.40001
1.40001
1.40001
1.40001
1.40001
1.40001
1.40001
1.40001
1.40001
1.40001
1.40001
1.40001
1.40001
1.40001
1.40001
1.40001
1.40001
1.40001
1.40001
1.40001
1.40001
1.40001
1.40001
1.40001
1.40001
1.40001
1.40001
1.40001
1.40001
1.40001
1.40001
1.40001
1.40001
1.40001
1.40001
1.40001
1.40001
1.40001
1.40001
1.40001
1.40001
1.40001
1.40001
1.40001
1.40001
1.40001
1.40001
1.40001
1.40001
1.42505
4.1017
5.41206
5.41802
5.43333
5.44994
5.4665
5.48261
5.49882
5.5159
5.53254
5.54762
5.5615
5.5742
5.58594
5.59786
5.61086
5.62407
5.63671
5.64861
5.65892
5.66795
5.67649
5.68485
5.69353
5.70244
5.71121
5.71934
5.72673
5.73354
5.74006
5.74657
5.75311
5.75943
5.76521
5.77024
5.77463
5.77859
5.78225
5.78563
5.78858
5.79102
5.79278
5.79394
5.79489
5.79544
5.79605
1.40001
1.40001
1.40001
1.40001
1.40001
1.40001
1.40001
1.40001
1.40001
1.40001
1.40001
1.40001
1.40001
1.40001
1.40001
1.40001
1.40001
1.40001
1.40001
1.40001
1.40001
1.40001
1.40001
1.40001
1.40001
1.40001
1.40001
1.40001
1.40001
1.40001
1.40001
1.40001
1.40001
1.40001
1.40001
1.40001
1.40001
1.40001
1.40001
1.40001
1.40001
1.40001
1.40001
1.40001
1.40001
1.40001
1.40001
1.40001
1.40001
1.40005
3.20681
5.24896
5.36645
5.39052
5.41354
5.43319
5.45109
5.46775
5.4842
5.50034
5.51512
5.5285
5.54075
5.55194
5.5631
5.57541
5.58843
5.60109
5.61279
5.62287
5.63117
5.63885
5.64642
5.65444
5.66277
5.67083
5.67798
5.684
5.68907
5.69356
5.69775
5.70176
5.7054
5.70841
5.71068
5.71235
5.7136
5.71454
5.71526
5.71584
5.71649
5.71754
5.71885
5.72074
5.72209
5.72334
1.40001
1.40001
1.40001
1.40001
1.40001
1.40001
1.40001
1.40001
1.40001
1.40001
1.40001
1.40001
1.40001
1.40001
1.40001
1.40001
1.40001
1.40001
1.40001
1.40001
1.40001
1.40001
1.40001
1.40001
1.40001
1.40001
1.40001
1.40001
1.40001
1.40001
1.40001
1.40001
1.40001
1.40001
1.40001
1.40001
1.40001
1.40001
1.40001
1.40001
1.40001
1.40001
1.40001
1.40001
1.40001
1.40001
1.40001
1.40001
1.40001
1.4
2.17677
4.89292
5.37072
5.37979
5.40253
5.42032
5.43739
5.45335
5.46857
5.48317
5.49645
5.50815
5.5187
5.52843
5.53815
5.54894
5.56071
5.57232
5.5826
5.59109
5.59769
5.60341
5.6092
5.61545
5.62204
5.62826
5.63339
5.63716
5.63976
5.64144
5.64243
5.64278
5.64242
5.64155
5.64036
5.63923
5.63842
5.6376
5.63606
5.63365
5.62987
5.62512
5.61899
5.61284
5.60686
5.60123
1.40001
1.40001
1.40001
1.40001
1.40001
1.40001
1.40001
1.40001
1.40001
1.40001
1.40001
1.40001
1.40001
1.40001
1.40001
1.40001
1.40001
1.40001
1.40001
1.40001
1.40001
1.40001
1.40001
1.40001
1.40001
1.40001
1.40001
1.40001
1.40001
1.40001
1.40001
1.40001
1.40001
1.40001
1.40001
1.40001
1.40001
1.40001
1.40001
1.40001
1.40001
1.40001
1.40001
1.40001
1.40001
1.40001
1.40001
1.40001
1.40001
1.40001
1.44352
3.98096
5.38787
5.39138
5.40022
5.41038
5.42262
5.4351
5.44728
5.45901
5.46994
5.47938
5.48753
5.49507
5.50294
5.51204
5.5224
5.53282
5.5416
5.54802
5.55249
5.55593
5.55955
5.56361
5.56803
5.57219
5.57535
5.57694
5.57715
5.57582
5.57321
5.56907
5.56322
5.55634
5.54874
5.54073
5.53216
5.5223
5.51009
5.4949
5.47705
5.45807
5.44252
5.43089
5.42755
5.42678
1.40001
1.40001
1.40001
1.40001
1.40001
1.40001
1.40001
1.40001
1.40001
1.40001
1.40001
1.40001
1.40001
1.40001
1.40001
1.40001
1.40001
1.40001
1.40001
1.40001
1.40001
1.40001
1.40001
1.40001
1.40001
1.40001
1.40001
1.40001
1.40001
1.40001
1.40001
1.40001
1.40001
1.40001
1.40001
1.40001
1.40001
1.40001
1.40001
1.40001
1.40001
1.40001
1.40001
1.40001
1.40001
1.40001
1.40001
1.40001
1.40001
1.40001
1.40006
2.61297
5.0694
5.35723
5.35862
5.37057
5.38467
5.39907
5.41245
5.42471
5.43549
5.44437
5.45143
5.45728
5.4632
5.47054
5.47966
5.48938
5.49767
5.50298
5.50518
5.50545
5.50522
5.50541
5.50625
5.50748
5.50817
5.50721
5.50445
5.49942
5.49182
5.48164
5.46903
5.45431
5.43781
5.41987
5.40068
5.38018
5.35787
5.33355
5.30715
5.27921
5.24413
5.20542
5.1515
5.1738
1.40001
1.40001
1.40001
1.40001
1.40001
1.40001
1.40001
1.40001
1.40001
1.40001
1.40001
1.40001
1.40001
1.40001
1.40001
1.40001
1.40001
1.40001
1.40001
1.40001
1.40001
1.40001
1.40001
1.40001
1.40001
1.40001
1.40001
1.40001
1.40001
1.40001
1.40001
1.40001
1.40001
1.40001
1.40001
1.40001
1.40001
1.40001
1.40001
1.40001
1.40001
1.40001
1.40001
1.40001
1.40001
1.40001
1.40001
1.40001
1.40001
1.40001
1.40001
1.54073
4.36059
5.38766
5.36839
5.37414
5.38051
5.38834
5.3963
5.4045
5.4124
5.41902
5.42363
5.42654
5.42911
5.43326
5.43996
5.44818
5.45563
5.45985
5.46021
5.45768
5.45364
5.44978
5.4468
5.44463
5.44228
5.43845
5.43216
5.42301
5.41065
5.39476
5.37538
5.35275
5.32692
5.29771
5.26457
5.22714
5.18289
5.12947
5.05817
4.96161
4.81435
4.58795
4.1838
3.29394
1.40001
1.40001
1.40001
1.40001
1.40001
1.40001
1.40001
1.40001
1.40001
1.40001
1.40001
1.40001
1.40001
1.40001
1.40001
1.40001
1.40001
1.40001
1.40001
1.40001
1.40001
1.40001
1.40001
1.40001
1.40001
1.40001
1.40001
1.40001
1.40001
1.40001
1.40001
1.40001
1.40001
1.40001
1.40001
1.40001
1.40001
1.40001
1.40001
1.40001
1.40001
1.40001
1.40001
1.40001
1.40001
1.40001
1.40001
1.40001
1.40001
1.40001
1.40001
1.40094
3.22077
5.21552
5.31941
5.33586
5.34611
5.35745
5.36729
5.37597
5.38375
5.39018
5.39453
5.39695
5.39811
5.39919
5.4018
5.40665
5.41255
5.4166
5.41709
5.41388
5.40752
5.40008
5.39347
5.38786
5.3822
5.37521
5.36592
5.35355
5.33733
5.31654
5.29101
5.2612
5.22684
5.1876
5.14123
5.08739
5.02083
4.94034
4.83184
4.69149
4.48546
4.21835
3.68284
2.91226
1.40001
1.40001
1.40001
1.40001
1.40001
1.40001
1.40001
1.40001
1.40001
1.40001
1.40001
1.40001
1.40001
1.40001
1.40001
1.40001
1.40001
1.40001
1.40001
1.40001
1.40001
1.40001
1.40001
1.40001
1.40001
1.40001
1.40001
1.40001
1.40001
1.40001
1.40001
1.40001
1.40001
1.40001
1.40001
1.40001
1.40001
1.40001
1.40001
1.40001
1.40001
1.40001
1.40001
1.40001
1.40001
1.40001
1.40001
1.40001
1.40001
1.40001
1.40001
1.4
1.96664
4.75216
5.32606
5.32126
5.33057
5.34227
5.35297
5.36036
5.36605
5.37089
5.37448
5.37614
5.37629
5.37487
5.37339
5.37375
5.37594
5.37764
5.37634
5.37132
5.36242
5.35163
5.34139
5.3319
5.322
5.3107
5.29741
5.28141
5.26131
5.23595
5.20425
5.1671
5.1238
5.07473
5.01644
4.94826
4.86453
4.76254
4.63327
4.46544
4.24801
3.92959
3.48385
2.97899
1.40001
1.40001
1.40001
1.40001
1.40001
1.40001
1.40001
1.40001
1.40001
1.40001
1.40001
1.40001
1.40001
1.40001
1.40001
1.40001
1.40001
1.40001
1.40001
1.40001
1.40001
1.40001
1.40001
1.40001
1.40001
1.40001
1.40001
1.40001
1.40001
1.40001
1.40001
1.40001
1.40001
1.40001
1.40001
1.40001
1.40001
1.40001
1.40001
1.40001
1.40001
1.40001
1.40001
1.40001
1.40001
1.40001
1.40001
1.40001
1.40001
1.40001
1.40001
1.4
1.4245
3.58001
5.23948
5.29566
5.31005
5.32395
5.33606
5.34299
5.34675
5.3492
5.35072
5.35037
5.35
5.34816
5.34514
5.34243
5.3406
5.33826
5.33356
5.32585
5.31493
5.30172
5.28841
5.27515
5.26079
5.24474
5.22666
5.20642
5.18233
5.15312
5.1166
5.0735
5.02272
4.96503
4.89726
4.81806
4.72368
4.60979
4.47158
4.2961
4.07893
3.7938
3.45009
3.08062
1.40001
1.40001
1.40001
1.40001
1.40001
1.40001
1.40001
1.40001
1.40001
1.40001
1.40001
1.40001
1.40001
1.40001
1.40001
1.40001
1.40001
1.40001
1.40001
1.40001
1.40001
1.40001
1.40001
1.40001
1.40001
1.40001
1.40001
1.40001
1.40001
1.40001
1.40001
1.40001
1.40001
1.40001
1.40001
1.40001
1.40001
1.40001
1.40001
1.40001
1.40001
1.40001
1.40001
1.40001
1.40001
1.40001
1.40001
1.40001
1.40001
1.40001
1.40001
1.40001
1.4
2.12491
4.83117
5.29091
5.2924
5.30586
5.31726
5.32588
5.32992
5.33166
5.33018
5.32474
5.32195
5.3205
5.31845
5.31543
5.31096
5.30442
5.29513
5.28339
5.26957
5.25385
5.23776
5.22139
5.2032
5.18264
5.15914
5.13323
5.10388
5.07041
5.03026
4.98326
4.92793
4.86423
4.78984
4.70345
4.60313
4.48515
4.34767
4.17708
3.97852
3.74178
3.46895
3.18326
1.40001
1.40001
1.40001
1.40001
1.40001
1.40001
1.40001
1.40001
1.40001
1.40001
1.40001
1.40001
1.40001
1.40001
1.40001
1.40001
1.40001
1.40001
1.40001
1.40001
1.40001
1.40001
1.40001
1.40001
1.40001
1.40001
1.40001
1.40001
1.40001
1.40001
1.40001
1.40001
1.40001
1.40001
1.40001
1.40001
1.40001
1.40001
1.40001
1.40001
1.40001
1.40001
1.40001
1.40001
1.40001
1.40001
1.40001
1.40001
1.40001
1.40001
1.40001
1.40001
1.4
1.43776
3.62202
5.21046
5.27444
5.28907
5.29734
5.30441
5.30912
5.31317
5.31171
5.30412
5.29744
5.29414
5.29122
5.28701
5.28034
5.27071
5.25793
5.24316
5.22713
5.20935
5.19043
5.17086
5.14921
5.12493
5.09679
5.06508
5.02958
4.99056
4.94656
4.89684
4.83953
4.77332
4.69599
4.60658
4.50448
4.38665
4.25432
4.09597
3.92289
3.72842
3.50209
3.27301
1.40001
1.40001
1.40001
1.40001
1.40001
1.40001
1.40001
1.40001
1.40001
1.40001
1.40001
1.40001
1.40001
1.40001
1.40001
1.40001
1.40001
1.40001
1.40001
1.40001
1.40001
1.40001
1.40001
1.40001
1.40001
1.40001
1.40001
1.40001
1.40001
1.40001
1.40001
1.40001
1.40001
1.40001
1.40001
1.40001
1.40001
1.40001
1.40001
1.40001
1.40001
1.40001
1.40001
1.40001
1.40001
1.40001
1.40001
1.40001
1.40001
1.40001
1.40001
1.40001
1.4
1.40003
2.04123
4.76818
5.2658
5.26599
5.27283
5.27714
5.28078
5.28341
5.28038
5.27419
5.26869
5.26561
5.2622
5.25635
5.24718
5.23487
5.21928
5.20223
5.18445
5.16541
5.1446
5.12256
5.09829
5.07129
5.04009
5.00396
4.96275
4.91763
4.86909
4.81691
4.75894
4.6928
4.61599
4.5271
4.42738
4.31157
4.18632
4.04238
3.89146
3.72691
3.53408
3.34338
1.40001
1.40001
1.40001
1.40001
1.40001
1.40001
1.40001
1.40001
1.40001
1.40001
1.40001
1.40001
1.40001
1.40001
1.40001
1.40001
1.40001
1.40001
1.40001
1.40001
1.40001
1.40001
1.40001
1.40001
1.40001
1.40001
1.40001
1.40001
1.40001
1.40001
1.40001
1.40001
1.40001
1.40001
1.40001
1.40001
1.40001
1.40001
1.40001
1.40001
1.40001
1.40001
1.40001
1.40001
1.40001
1.40001
1.40001
1.40001
1.40001
1.40001
1.40001
1.40001
1.40001
1.40001
1.42693
3.37557
5.12924
5.24481
5.24057
5.24617
5.25233
5.25624
5.2528
5.24739
5.24264
5.23859
5.23434
5.22721
5.21582
5.20108
5.18371
5.165
5.14536
5.12502
5.10256
5.07829
5.05141
5.02171
4.98831
4.94969
4.90469
4.85452
4.80126
4.74586
4.68644
4.62065
4.54629
4.46036
4.36598
4.25486
4.13883
4.00962
3.87347
3.72926
3.56527
3.4033
1.40001
1.40001
1.40001
1.40001
1.40001
1.40001
1.40001
1.40001
1.40001
1.40001
1.40001
1.40001
1.40001
1.40001
1.40001
1.40001
1.40001
1.40001
1.40001
1.40001
1.40001
1.40001
1.40001
1.40001
1.40001
1.40001
1.40001
1.40001
1.40001
1.40001
1.40001
1.40001
1.40001
1.40001
1.40001
1.40001
1.40001
1.40001
1.40001
1.40001
1.40001
1.40001
1.40001
1.40001
1.40001
1.40001
1.40001
1.40001
1.40001
1.40001
1.40001
1.40001
1.40001
1.40001
1.40002
1.73036
4.50893
5.27543
5.24958
5.24225
5.23292
5.22791
5.22093
5.21421
5.20862
5.20336
5.19814
5.19047
5.17843
5.16306
5.14478
5.12452
5.10351
5.08236
5.05904
5.03392
5.00546
4.97374
4.93887
4.89946
4.85335
4.80095
4.74475
4.68661
4.62538
4.5592
4.48716
4.40447
4.31536
4.21152
4.10621
3.98961
3.86403
3.73694
3.59624
3.4517
1.40001
1.40001
1.40001
1.40001
1.40001
1.40001
1.40001
1.40001
1.40001
1.40001
1.40001
1.40001
1.40001
1.40001
1.40001
1.40001
1.40001
1.40001
1.40001
1.40001
1.40001
1.40001
1.40001
1.40001
1.40001
1.40001
1.40001
1.40001
1.40001
1.40001
1.40001
1.40001
1.40001
1.40001
1.40001
1.40001
1.40001
1.40001
1.40001
1.40001
1.40001
1.40001
1.40001
1.40001
1.40001
1.40001
1.40001
1.40001
1.40001
1.40001
1.40001
1.40001
1.40001
1.40001
1.40001
1.40608
2.93561
5.02857
5.19823
5.19589
5.19664
5.19091
5.18307
5.17688
5.17234
5.16707
5.16089
5.15264
5.14048
5.1259
5.10752
5.08528
5.06305
5.04124
5.0172
4.99181
4.96228
4.92898
4.89274
4.85253
4.80662
4.75445
4.69784
4.63818
4.57554
4.50806
4.43697
4.35671
4.2723
4.17716
4.08155
3.97512
3.86267
3.75041
3.6258
3.49353
1.40001
1.40001
1.40001
1.40001
1.40001
1.40001
1.40001
1.40001
1.40001
1.40001
1.40001
1.40001
1.40001
1.40001
1.40001
1.40001
1.40001
1.40001
1.40001
1.40001
1.40001
1.40001
1.40001
1.40001
1.40001
1.40001
1.40001
1.40001
1.40001
1.40001
1.40001
1.40001
1.40001
1.40001
1.40001
1.40001
1.40001
1.40001
1.40001
1.40001
1.40001
1.40001
1.40001
1.40001
1.40001
1.40001
1.40001
1.40001
1.40001
1.40001
1.40001
1.40001
1.40001
1.40001
1.40001
1.40001
1.55324
3.96072
5.20242
5.18869
5.18016
5.16618
5.15775
5.15152
5.14703
5.14143
5.13369
5.12358
5.10983
5.09463
5.07493
5.05046
5.02606
5.00259
4.97687
4.95075
4.92045
4.8867
4.84963
4.80846
4.76332
4.71288
4.65856
4.59872
4.53619
4.46804
4.39731
4.31891
4.23885
4.15129
4.06197
3.9659
3.86665
3.76315
3.65012
3.5306
1.40001
1.40001
1.40001
1.40001
1.40001
1.40001
1.40001
1.40001
1.40001
1.40001
1.40001
1.40001
1.40001
1.40001
1.40001
1.40001
1.40001
1.40001
1.40001
1.40001
1.40001
1.40001
1.40001
1.40001
1.40001
1.40001
1.40001
1.40001
1.40001
1.40001
1.40001
1.40001
1.40001
1.40001
1.40001
1.40001
1.40001
1.40001
1.40001
1.40001
1.40001
1.40001
1.40001
1.40001
1.40001
1.40001
1.40001
1.40001
1.40001
1.40001
1.40001
1.40001
1.40001
1.40001
1.40001
1.40001
1.40116
2.09485
4.75286
5.19466
5.15351
5.14717
5.13742
5.12949
5.1233
5.11647
5.10695
5.09457
5.07879
5.06171
5.04121
5.0153
4.98903
4.96365
4.93655
4.90946
4.87912
4.84593
4.80913
4.76777
4.72238
4.67368
4.62112
4.56307
4.50201
4.4357
4.36647
4.29097
4.2148
4.13256
4.0485
3.96213
3.87112
3.7727
3.67173
3.56502
1.40001
1.40001
1.40001
1.40001
1.40001
1.40001
1.40001
1.40001
1.40001
1.40001
1.40001
1.40001
1.40001
1.40001
1.40001
1.40001
1.40001
1.40001
1.40001
1.40001
1.40001
1.40001
1.40001
1.40001
1.40001
1.40001
1.40001
1.40001
1.40001
1.40001
1.40001
1.40001
1.40001
1.40001
1.40001
1.40001
1.40001
1.40001
1.40001
1.40001
1.40001
1.40001
1.40001
1.40001
1.40001
1.40001
1.40001
1.40001
1.40001
1.40001
1.40001
1.40001
1.40001
1.40001
1.40001
1.40001
1.40001
1.42848
3.0819
5.0468
5.12991
5.12527
5.12191
5.1146
5.10671
5.09758
5.08591
5.07125
5.05286
5.0322
5.01044
4.98317
4.95526
4.92815
4.9001
4.87164
4.84111
4.80784
4.77239
4.73144
4.68607
4.63765
4.58644
4.53054
4.47172
4.40869
4.34274
4.27157
4.19891
4.12188
4.04267
3.96229
3.87519
3.78318
3.69214
3.59551
1.40001
1.40001
1.40001
1.40001
1.40001
1.40001
1.40001
1.40001
1.40001
1.40001
1.40001
1.40001
1.40001
1.40001
1.40001
1.40001
1.40001
1.40001
1.40001
1.40001
1.40001
1.40001
1.40001
1.40001
1.40001
1.40001
1.40001
1.40001
1.40001
1.40001
1.40001
1.40001
1.40001
1.40001
1.40001
1.40001
1.40001
1.40001
1.40001
1.40001
1.40001
1.40001
1.40001
1.40001
1.40001
1.40001
1.40001
1.40001
1.40001
1.40001
1.40001
1.40001
1.40001
1.40001
1.40001
1.40001
1.40001
1.40006
1.57377
3.78022
5.09418
5.12959
5.11664
5.10856
5.09755
5.08443
5.06988
5.0529
5.0321
5.00839
4.98457
4.95657
4.92716
4.89817
4.86897
4.83886
4.80713
4.77273
4.73765
4.69716
4.65309
4.60535
4.55486
4.50027
4.44358
4.38366
4.32188
4.25568
4.18711
4.11602
4.0413
3.96421
3.88137
3.79642
3.71072
3.62209
1.40001
1.40001
1.40001
1.40001
1.40001
1.40001
1.40001
1.40001
1.40001
1.40001
1.40001
1.40001
1.40001
1.40001
1.40001
1.40001
1.40001
1.40001
1.40001
1.40001
1.40001
1.40001
1.40001
1.40001
1.40001
1.40001
1.40001
1.40001
1.40001
1.40001
1.40001
1.40001
1.40001
1.40001
1.40001
1.40001
1.40001
1.40001
1.40001
1.40001
1.40001
1.40001
1.40001
1.40001
1.40001
1.40001
1.40001
1.40001
1.40001
1.40001
1.40001
1.40001
1.40001
1.40001
1.40001
1.40001
1.40001
1.40001
1.40158
1.79599
4.48735
5.17115
5.13765
5.11377
5.08968
5.06869
5.04954
5.03089
5.00867
4.98368
4.95876
4.93084
4.90122
4.8712
4.8417
4.8113
4.77844
4.74301
4.70616
4.66689
4.62332
4.57705
4.52758
4.47527
4.42063
4.36249
4.30414
4.24246
4.1784
4.11302
4.04281
3.96869
3.89077
3.81167
3.72964
3.64732
1.40001
1.40001
1.40001
1.40001
1.40001
1.40001
1.40001
1.40001
1.40001
1.40001
1.40001
1.40001
1.40001
1.40001
1.40001
1.40001
1.40001
1.40001
1.40001
1.40001
1.40001
1.40001
1.40001
1.40001
1.40001
1.40001
1.40001
1.40001
1.40001
1.40001
1.40001
1.40001
1.40001
1.40001
1.40001
1.40001
1.40001
1.40001
1.40001
1.40001
1.40001
1.40001
1.40001
1.40001
1.40001
1.40001
1.40001
1.40001
1.40001
1.40001
1.40001
1.40001
1.40001
1.40001
1.40001
1.40001
1.40001
1.40001
1.40001
1.40855
2.57369
4.89849
5.10342
5.07473
5.05537
5.03691
5.01997
5.00259
4.98208
4.95939
4.93577
4.90918
4.88062
4.85066
4.81949
4.7888
4.75535
4.71886
4.68064
4.64103
4.59893
4.55332
4.50489
4.45429
4.40141
4.34495
4.28874
4.23025
4.17029
4.10933
4.04325
3.9732
3.90054
3.82646
3.74885
3.67167
1.40001
1.40001
1.40001
1.40001
1.40001
1.40001
1.40001
1.40001
1.40001
1.40001
1.40001
1.40001
1.40001
1.40001
1.40001
1.40001
1.40001
1.40001
1.40001
1.40001
1.40001
1.40001
1.40001
1.40001
1.40001
1.40001
1.40001
1.40001
1.40001
1.40001
1.40001
1.40001
1.40001
1.40001
1.40001
1.40001
1.40001
1.40001
1.40001
1.40001
1.40001
1.40001
1.40001
1.40001
1.40001
1.40001
1.40001
1.40001
1.40001
1.40001
1.40001
1.40001
1.40001
1.40001
1.40001
1.40001
1.40001
1.40001
1.40001
1.40002
1.47996
3.20616
4.98372
5.03893
5.02723
5.02258
5.01158
4.99586
4.97605
4.95339
4.92881
4.90138
4.87157
4.84059
4.80776
4.77401
4.74089
4.70324
4.66305
4.62257
4.57929
4.53417
4.48677
4.43727
4.38582
4.33162
4.27742
4.22125
4.1646
4.10664
4.04379
3.97803
3.91042
3.8405
3.76773
3.69494
1.40001
1.40001
1.40001
1.40001
1.40001
1.40001
1.40001
1.40001
1.40001
1.40001
1.40001
1.40001
1.40001
1.40001
1.40001
1.40001
1.40001
1.40001
1.40001
1.40001
1.40001
1.40001
1.40001
1.40001
1.40001
1.40001
1.40001
1.40001
1.40001
1.40001
1.40001
1.40001
1.40001
1.40001
1.40001
1.40001
1.40001
1.40001
1.40001
1.40001
1.40001
1.40001
1.40001
1.40001
1.40001
1.40001
1.40001
1.40001
1.40001
1.40001
1.40001
1.40001
1.40001
1.40001
1.40001
1.40001
1.40001
1.40001
1.40001
1.40001
1.40043
1.60097
3.5952
4.98517
5.01436
5.00908
5.00026
4.98558
4.96727
4.94543
4.92085
4.89358
4.86416
4.83294
4.79991
4.7643
4.72893
4.69165
4.65081
4.6089
4.56504
4.5197
4.47255
4.42344
4.37264
4.32058
4.26844
4.21418
4.15996
4.10392
4.0434
3.98178
3.91866
3.85248
3.78443
3.71584
1.40001
1.40001
1.40001
1.40001
1.40001
1.40001
1.40001
1.40001
1.40001
1.40001
1.40001
1.40001
1.40001
1.40001
1.40001
1.40001
1.40001
1.40001
1.40001
1.40001
1.40001
1.40001
1.40001
1.40001
1.40001
1.40001
1.40001
1.40001
1.40001
1.40001
1.40001
1.40001
1.40001
1.40001
1.40001
1.40001
1.40001
1.40001
1.40001
1.40001
1.40001
1.40001
1.40001
1.40001
1.40001
1.40001
1.40001
1.40001
1.40001
1.40001
1.40001
1.40001
1.40001
1.40001
1.40001
1.40001
1.40001
1.40001
1.40001
1.40001
1.40001
1.40225
1.72455
3.91153
5.01268
5.01134
4.99418
4.97646
4.95685
4.93441
4.91016
4.8842
4.85599
4.82524
4.79255
4.75738
4.72136
4.68417
4.64411
4.60181
4.55746
4.51169
4.46443
4.41541
4.36497
4.3141
4.26346
4.21064
4.15758
4.10262
4.04436
3.9867
3.9274
3.86455
3.80011
3.73475
1.40001
1.40001
1.40001
1.40001
1.40001
1.40001
1.40001
1.40001
1.40001
1.40001
1.40001
1.40001
1.40001
1.40001
1.40001
1.40001
1.40001
1.40001
1.40001
1.40001
1.40001
1.40001
1.40001
1.40001
1.40001
1.40001
1.40001
1.40001
1.40001
1.40001
1.40001
1.40001
1.40001
1.40001
1.40001
1.40001
1.40001
1.40001
1.40001
1.40001
1.40001
1.40001
1.40001
1.40001
1.40001
1.40001
1.40001
1.40001
1.40001
1.40001
1.40001
1.40001
1.40001
1.40001
1.40001
1.40001
1.40001
1.40001
1.40001
1.40001
1.40001
1.40001
1.40574
1.86092
4.19004
5.01898
5.00265
4.97854
4.9533
4.92763
4.90039
4.87329
4.84472
4.81452
4.78242
4.74829
4.71326
4.67651
4.63726
4.59555
4.55176
4.50645
4.45975
4.4114
4.36178
4.31176
4.26198
4.2106
4.15788
4.10336
4.0476
3.993
3.93633
3.87603
3.81424
3.75123
1.40001
1.40001
1.40001
1.40001
1.40001
1.40001
1.40001
1.40001
1.40001
1.40001
1.40001
1.40001
1.40001
1.40001
1.40001
1.40001
1.40001
1.40001
1.40001
1.40001
1.40001
1.40001
1.40001
1.40001
1.40001
1.40001
1.40001
1.40001
1.40001
1.40001
1.40001
1.40001
1.40001
1.40001
1.40001
1.40001
1.40001
1.40001
1.40001
1.40001
1.40001
1.40001
1.40001
1.40001
1.40001
1.40001
1.40001
1.40001
1.40001
1.40001
1.40001
1.40001
1.40001
1.40001
1.40001
1.40001
1.40001
1.40001
1.40001
1.40001
1.40001
1.40001
1.40002
1.41148
2.01297
4.39454
5.02994
5.00259
4.97092
4.93682
4.90491
4.87284
4.83983
4.80712
4.77356
4.73935
4.70487
4.66904
4.63118
4.59107
4.54885
4.50476
4.45896
4.41144
4.36296
4.31379
4.26453
4.21433
4.1624
4.10905
4.05525
4.0022
3.94667
3.888
3.82778
3.7668
1.40001
1.40001
1.40001
1.40001
1.40001
1.40001
1.40001
1.40001
1.40001
1.40001
1.40001
1.40001
1.40001
1.40001
1.40001
1.40001
1.40001
1.40001
1.40001
1.40001
1.40001
1.40001
1.40001
1.40001
1.40001
1.40001
1.40001
1.40001
1.40001
1.40001
1.40001
1.40001
1.40001
1.40001
1.40001
1.40001
1.40001
1.40001
1.40001
1.40001
1.40001
1.40001
1.40001
1.40001
1.40001
1.40001
1.40001
1.40001
1.40001
1.40001
1.40001
1.40001
1.40001
1.40001
1.40001
1.40001
1.40001
1.40001
1.40001
1.40001
1.40001
1.40001
1.40001
1.40004
1.42032
2.16039
4.57983
5.02723
4.99489
4.95889
4.91803
4.87969
4.84282
4.80638
4.76979
4.73417
4.69895
4.66303
4.62567
4.5865
4.54549
4.50269
4.45815
4.41231
4.36572
4.31816
4.27001
4.22086
4.16993
4.11782
4.06509
4.01219
3.95666
3.90013
3.84282
3.78489
1.40001
1.40001
1.40001
1.40001
1.40001
1.40001
1.40001
1.40001
1.40001
1.40001
1.40001
1.40001
1.40001
1.40001
1.40001
1.40001
1.40001
1.40001
1.40001
1.40001
1.40001
1.40001
1.40001
1.40001
1.40001
1.40001
1.40001
1.40001
1.40001
1.40001
1.40001
1.40001
1.40001
1.40001
1.40001
1.40001
1.40001
1.40001
1.40001
1.40001