/*--------------------------------*- C++ -*----------------------------------*\
  =========                 |
  \\      /  F ield         | OpenFOAM: The Open Source CFD Toolbox
   \\    /   O peration     | Website:  https://openfoam.org
    \\  /    A nd           | Version:  7
     \\/     M anipulation  |
\*---------------------------------------------------------------------------*/
FoamFile
{
    version     2.0;
    format      ascii;
    class       volScalarField;
    location    "43";
    object      p;
}
// * * * * * * * * * * * * * * * * * * * * * * * * * * * * * * * * * * * * * //

dimensions      [0 2 -2 0 0 0 0];

internalField   nonuniform List<scalar> 
16000
(
8.2705225e-06
-0.00013214468
-0.0004436633
-0.00084602905
-0.0012642455
-0.0016529189
-0.0019811776
-0.0022301826
-0.0023892965
-0.0024528137
-0.0024177935
-0.0022827793
-0.0020472018
-0.001711305
-0.0012764465
-0.00074563448
-0.00012417953
0.00057965158
0.0013540802
0.0021834507
0.0030481356
0.0039247787
0.0047869016
0.0056059145
0.0063524872
0.006998232
0.0075175912
0.0078897799
0.0081006151
0.0081440594
0.0080233359
0.0077515261
0.0073516234
0.0068560936
0.0063058217
0.0057483186
0.005238586
0.0048328788
0.0045929281
0.004554131
0.00015275064
7.8222217e-06
-0.00024226953
-0.00055115388
-0.0008733536
-0.0011745575
-0.0014305199
-0.0016250614
-0.001747823
-0.0017923628
-0.0017547395
-0.0016325888
-0.0014246565
-0.0011307113
-0.00075174537
-0.0002903647
0.00024872197
0.00085820589
0.0015277542
0.0022437315
0.0029891329
0.0037439277
0.0044854115
0.0051892368
0.0058305574
0.0063854723
0.0068326441
0.0071549611
0.0073410935
0.0073867803
0.0072957042
0.0070798713
0.0067594701
0.0063622478
0.0059224351
0.0054790771
0.005073348
0.0047486275
0.004550041
0.004514542
0.00047138324
0.00025349971
-2.337516e-06
-0.00028138581
-0.00056163182
-0.00081857177
-0.001034416
-0.0011971055
-0.0012984349
-0.0013328853
-0.0012967382
-0.0011874606
-0.0010034114
-0.00074383486
-0.00040907756
-9.5729425e-07
0.00047678734
0.0010180401
0.0016139112
0.0022524724
0.0029187199
0.0035946954
0.0042600322
0.0048927324
0.0054702639
0.005970905
0.0063752478
0.0066677452
0.0068381593
0.0068827569
0.0068050939
0.0066162752
0.0063346524
0.0059850038
0.0055972915
0.0052049799
0.0048427185
0.0045447705
0.0043474119
0.0042800953
0.00089299504
0.00056173666
0.00026104404
-2.4740526e-05
-0.00029534246
-0.00053449186
-0.00073062429
-0.00087652435
-0.0009671197
-0.00099871555
-0.00096849956
-0.00087418542
-0.00071390102
-0.000486307
-0.00019089375
0.00017159729
0.00059868563
0.0010856594
0.0016251419
0.0022067875
0.0028171711
0.0034398462
0.0040558466
0.0046443758
0.0051838679
0.0056533126
0.0060337532
0.0063098317
0.0064712337
0.0065138791
0.0064406986
0.006261862
0.0059943819
0.0056611216
0.005289327
0.0049088544
0.004550394
0.0042439359
0.0040160388
0.0038804713
0.0013437904
0.00088412403
0.00052096998
0.00021065592
-6.7051216e-05
-0.00030310826
-0.0004918409
-0.00063098715
-0.00071888916
-0.00075398069
-0.00073459924
-0.0006588437
-0.00052463136
-0.00032995219
-7.3272405e-05
0.00024595728
0.0006267352
0.0010659378
0.0015578051
0.0020935482
0.0026611443
0.0032453688
0.0038281492
0.0043892385
0.0049072423
0.005360953
0.0057309003
0.0060009754
0.0061599538
0.0062027429
0.0061311917
0.0059543323
0.0056879614
0.0053535478
0.0049765477
0.0045844612
0.0042055186
0.0038669223
0.0035842505
0.0033606493
0.0017706362
0.0011775103
0.00074284946
0.00039680204
0.00010024127
-0.00014404743
-0.00033575714
-0.00047734159
-0.00057049116
-0.00061578036
-0.00061271877
-0.00055978039
-0.00045460931
-0.00029440743
-7.645593e-05
0.00020126929
0.00053942814
0.00093663945
0.0013888541
0.0018888453
0.0024258892
0.0029857122
0.0035507435
0.0041007532
0.0046138544
0.0050678611
0.0054419175
0.0057182543
0.0058838727
0.0059319384
0.0058626918
0.0056837397
0.0054096561
0.0050608647
0.0046618125
0.0042388568
0.0038193655
0.0034298201
0.0030772462
0.0027499521
0.0021283283
0.0014033527
0.00089376796
0.00050553863
0.00018226897
-7.8709429e-05
-0.00028191254
-0.00043412216
-0.00054012181
-0.00060245565
-0.00062167336
-0.00059649995
-0.00052417067
-0.00040094291
-0.0002227367
1.4133078e-05
0.00031216954
0.00067189457
0.0010910915
0.0015641569
0.002081641
0.0026300776
0.0031921233
0.0037471493
0.0042722223
0.0047434954
0.0051379267
0.0054351915
0.0056195838
0.0056816568
0.0056193485
0.0054384099
0.0051520688
0.0047799217
0.0043460303
0.003876699
0.0033999802
0.0029434902
0.0025072409
0.0020656832
0.0023783029
0.0015268983
0.00094282637
0.00050965334
0.00015506876
-0.00012848652
-0.00034988061
-0.00051979948
-0.00064577581
-0.00073204565
-0.00077996607
-0.00078830799
-0.00075370521
-0.00067127805
-0.00053538524
-0.00034047208
-8.1981421e-05
0.00024271495
0.00063341704
0.001086295
0.0015932684
0.0021416938
0.0027143457
0.0032899368
0.0038440575
0.0043506009
0.0047835837
0.0051192302
0.0053381258
0.0054271787
0.0053810903
0.0052030726
0.0049046836
0.0045047713
0.0040275046
0.0035000776
0.0029526476
0.0024157534
0.0018843477
0.0013218142
0.002486752
0.0015164558
0.00086072486
0.00038226531
-6.0372057e-06
-0.00031625998
-0.00056124159
-0.00075516841
-0.00090795805
-0.0010252193
-0.0011088365
-0.0011573778
-0.0011666479
-0.001130411
-0.0010412408
-0.00089147423
-0.00067424253
-0.00038453863
-2.0268157e-05
0.00041677993
0.00092013092
0.001478151
0.002073807
0.0026850811
0.0032858067
0.0038471017
0.004339294
0.0047342058
0.0050076005
0.0051415287
0.0051262556
0.004961439
0.004656325
0.0042288644
0.0037036918
0.003109724
0.0024805329
0.0018512888
0.0012133755
0.00051988701
0.0024232018
0.0013429446
0.00061990014
9.7330503e-05
-0.0003257039
-0.00066555014
-0.00093871106
-0.0011625109
-0.0013489068
-0.0015045654
-0.0016316133
-0.0017281576
-0.001788934
-0.0018061167
-0.0017702511
-0.0016712964
-0.0014997629
-0.00124791
-0.00091095552
-0.00048823543
1.5784031e-05
0.00059088734
0.0012204844
0.0018819694
0.0025473324
0.0031845308
0.0037594865
0.0042385857
0.004591481
0.0047939117
0.0048302029
0.0046950697
0.0043943922
0.0039447132
0.0033712599
0.0027053921
0.0019853522
0.0012526046
0.00049610955
-0.00034102661
0.0021598758
0.00097972879
0.00019475343
-0.00036980122
-0.00082774704
-0.0011995229
-0.0015050446
-0.0017644556
-0.0019914452
-0.0021934542
-0.0023725926
-0.0025262683
-0.0026479196
-0.0027278973
-0.0027544634
-0.0027149021
-0.0025967433
-0.0023890771
-0.0020839188
-0.001677572
-0.0011718919
-0.00057499836
9.7409634e-05
0.00082253513
0.0015706732
0.0023064294
0.0029907041
0.0035833757
0.0040465037
0.0043477429
0.0044635766
0.0043819375
0.0041037951
0.0036432906
0.0030259931
0.0022862254
0.0014681265
0.00062114866
-0.00026735596
-0.0012645245
0.0016715789
0.0004026903
-0.00043806892
-0.0010419049
-0.0015344882
-0.0019401991
-0.0022821508
-0.002583027
-0.0028579879
-0.0031150132
-0.0033559841
-0.0035774136
-0.0037712496
-0.0039258083
-0.0040268159
-0.0040585655
-0.0040052035
-0.0038521397
-0.0035875554
-0.0032039424
-0.0026995949
-0.002080132
-0.001359081
-0.00055884989
0.00028956911
0.0011474943
0.0019703771
0.0027105739
0.0033209364
0.0037589206
0.0039907616
0.0039951773
0.003766058
0.0033135406
0.0026627603
0.0018511869
0.00093000619
-4.1543674e-05
-0.0010771522
-0.0022549969
0.00093591251
-0.00040950593
-0.0012992994
-0.0019393684
-0.0024661059
-0.0029076789
-0.0032902023
-0.0036386567
-0.0039694631
-0.0042909636
-0.00460466
-0.0049060353
-0.0051854089
-0.005428896
-0.0056194617
-0.0057380942
-0.005765125
-0.0056817105
-0.0054714631
-0.0051221807
-0.0046276187
-0.0039894193
-0.0032180845
-0.0023344967
-0.0013700993
-0.00036644297
0.00062633634
0.0015522334
0.0023532622
0.0029742911
0.0033683539
0.0035017744
0.0033583643
0.0029418452
0.0022754412
0.0013994589
0.00037311129
-0.00073265252
-0.0019321289
-0.0033157564
-6.6300828e-05
-0.0014750159
-0.0024066
-0.0030796436
-0.0036399671
-0.004119345
-0.004546706
-0.0049491189
-0.0053441094
-0.0057402752
-0.0061386622
-0.0065336621
-0.0069138997
-0.0072631883
-0.0075615604
-0.0077864179
-0.0079138498
-0.0079201513
-0.0077835533
-0.0074861409
-0.0070159195
-0.0063690061
-0.0055514599
-0.004581102
-0.0034885094
-0.0023171911
-0.0011225707
3.0470831e-05
0.0010716184
0.001930624
0.0025438758
0.0028612893
0.0028525422
0.0025114308
0.0018568192
0.00093083261
-0.00019861504
-0.0014468335
-0.0028283303
-0.0044473064
-0.0013504797
-0.0028083554
-0.0037740874
-0.0044766971
-0.0050699693
-0.0055890706
-0.0060655612
-0.0065284223
-0.00699619
-0.0074776869
-0.0079735127
-0.0084769954
-0.0089750854
-0.0094492765
-0.0098765745
-0.010230581
-0.010482759
-0.01060395
-0.010566162
-0.01034465
-0.0099202634
-0.0092819996
-0.0084295375
-0.0073756786
-0.0061482506
-0.0047911643
-0.0033641901
-0.0019410513
-0.00060552418
0.00055456076
0.0014551552
0.0020249371
0.0022141704
0.0020017877
0.001398483
0.00044613847
-0.00077848099
-0.0021748841
-0.0037573694
-0.0056455433
-0.0029277178
-0.0044199407
-0.0054118858
-0.006140507
-0.0067659327
-0.0073264717
-0.007856141
-0.008385701
-0.0089346695
-0.0095121492
-0.010118399
-0.010745813
-0.011379787
-0.011999578
-0.012579169
-0.013088243
-0.013493345
-0.01375934
-0.013851212
-0.013736259
-0.013386691
-0.012782582
-0.011915055
-0.010789496
-0.0094284963
-0.0078740573
-0.0061885038
-0.0044535321
-0.0027668304
-0.0012359047
3.0881014e-05
0.0009354624
0.00140213
0.0013882911
0.00089082861
-5.2216908e-05
-0.0013559734
-0.0029022273
-0.0047046001
-0.0068997529
-0.0048042706
-0.0063157015
-0.0073257685
-0.0080766596
-0.0087330973
-0.0093362553
-0.0099224559
-0.010524161
-0.011161922
-0.011845271
-0.012574335
-0.013340812
-0.014128778
-0.014915448
-0.015671902
-0.016363905
-0.016952919
-0.017397435
-0.017654728
-0.0176831
-0.017444669
-0.016908699
-0.016055418
-0.014880045
-0.013396903
-0.011642982
-0.0096803677
-0.0075967329
-0.0055030416
-0.0035277389
-0.0018070459
-0.00047163884
0.00036905865
0.00064235069
0.00032335575
-0.00055949931
-0.0019154471
-0.0036071086
-0.0056469669
-0.0081902635
-0.0069811715
-0.0084968407
-0.0095169568
-0.010286109
-0.010971783
-0.011617728
-0.012262465
-0.012940161
-0.013672559
-0.014469874
-0.015332424
-0.016251557
-0.017210381
-0.018184383
-0.019141988
-0.02004518
-0.020850321
-0.02150931
-0.021971209
-0.022184469
-0.022099829
-0.021673949
-0.020873768
-0.019681429
-0.018099514
-0.01615619
-0.013909464
-0.011449643
-0.0088988355
-0.0064062892
-0.0041386555
-0.002264897
-0.00093673403
-0.00026746897
-0.00031443292
-0.0010674881
-0.00243445
-0.0042583895
-0.0065504013
-0.0094856074
-0.0094540505
-0.010959814
-0.011982149
-0.012765169
-0.013477279
-0.014164527
-0.014867605
-0.015622516
-0.016452476
-0.01736878
-0.018372371
-0.019454714
-0.020598403
-0.021777623
-0.022958512
-0.024099554
-0.025152164
-0.026061621
-0.026768514
-0.027210862
-0.027327023
-0.027059515
-0.0263598
-0.025194066
-0.023549478
-0.02144105
-0.018917919
-0.016068283
-0.013021452
-0.009945361
-0.0070378988
-0.0045109417
-0.0025672385
-0.0013728244
-0.0010311314
-0.0015626394
-0.0028815015
-0.0048127978
-0.0073666257
-0.010739037
-0.012213223
-0.013696598
-0.014713849
-0.015505807
-0.016240028
-0.016964635
-0.017722606
-0.01855208
-0.019478221
-0.020513951
-0.021661421
-0.022912779
-0.024250656
-0.025648452
-0.027070484
-0.028472137
-0.029800184
-0.030993468
-0.031984105
-0.032699426
-0.033064801
-0.033007478
-0.032461614
-0.031375126
-0.029716002
-0.027481594
-0.02470674
-0.021471516
-0.017906588
-0.014194027
-0.010561174
-0.0072652996
-0.0045679514
-0.0027008678
-0.0018300624
-0.002023242
-0.0032130999
-0.0052114623
-0.0080292156
-0.011884247
-0.015244112
-0.016695322
-0.017701068
-0.018496297
-0.019246152
-0.02000073
-0.020805624
-0.021701683
-0.022716734
-0.023866087
-0.02515383
-0.026573476
-0.028108312
-0.029731518
-0.031406112
-0.033084853
-0.034710301
-0.036215215
-0.037523492
-0.038551861
-0.039212524
-0.03941687
-0.039080501
-0.038131646
-0.036515524
-0.034207664
-0.031222987
-0.027626583
-0.023542916
-0.019161048
-0.014732723
-0.010559765
-0.0069678432
-0.0042668447
-0.0027039358
-0.0024151955
-0.003369704
-0.0053755463
-0.0084487608
-0.012830164
-0.018528072
-0.019941328
-0.020930457
-0.021722291
-0.022478366
-0.023250879
-0.024088723
-0.025036419
-0.026125517
-0.02737473
-0.028790994
-0.030369966
-0.032096249
-0.033943376
-0.035873572
-0.037837449
-0.03977382
-0.041609825
-0.043261591
-0.04463563
-0.045631238
-0.046144165
-0.046071793
-0.045318355
-0.043807276
-0.041488023
-0.038350205
-0.034436842
-0.029857499
-0.024798744
-0.019528145
-0.01438692
-0.0097660838
-0.0060636524
-0.0036270661
-0.0026860185
-0.0032704184
-0.0052007828
-0.0085069622
-0.013454668
-0.022043664
-0.023418757
-0.024387952
-0.025168345
-0.025917275
-0.026689569
-0.027538659
-0.028514266
-0.029653185
-0.030978879
-0.03250224
-0.034221926
-0.036124517
-0.038184403
-0.040363435
-0.042610472
-0.044860989
-0.047036969
-0.049047303
-0.050788894
-0.052148751
-0.053007341
-0.053243399
-0.052740062
-0.051394948
-0.049129763
-0.045904833
-0.041734688
-0.036705081
-0.030989071
-0.024858268
-0.018683335
-0.012916272
-0.0080484573
-0.0045448854
-0.0027567401
-0.002806108
-0.0045507073
-0.0080494966
-0.013597125
-0.025768476
-0.027112762
-0.028061032
-0.028819946
-0.029543049
-0.03028902
-0.031117902
-0.032086951
-0.033240351
-0.034608068
-0.036206251
-0.03803747
-0.040090863
-0.042342039
-0.044752714
-0.047270188
-0.049826834
-0.052339822
-0.054711295
-0.056829212
-0.058569126
-0.05979717
-0.060374447
-0.060163133
-0.059035951
-0.056885663
-0.053640765
-0.04928237
-0.04386444
-0.037535246
-0.030556516
-0.023313988
-0.016309869
-0.010127182
-0.0053608811
-0.0025114888
-0.0018306958
-0.0032483719
-0.0068774532
-0.013049608
-0.029681611
-0.031012554
-0.031941719
-0.032666087
-0.033337428
-0.034020654
-0.034785742
-0.035700926
-0.036820715
-0.038183784
-0.039813027
-0.041715801
-0.043884215
-0.046295203
-0.048910287
-0.051675095
-0.054518847
-0.057353989
-0.060076209
-0.062565067
-0.064685496
-0.066290397
-0.067224627
-0.067330669
-0.066457395
-0.064469486
-0.061262849
-0.05678237
-0.051044283
-0.044162074
-0.036373269
-0.028061249
-0.0197615
-0.01213857
-0.0059217205
-0.0017848835
-0.00015047913
-0.0010663013
-0.0047370729
-0.011546601
-0.033767111
-0.035115577
-0.036030545
-0.036702455
-0.037285997
-0.037856591
-0.038499309
-0.039298279
-0.040322198
-0.041621118
-0.043226253
-0.045150459
-0.047388912
-0.049919586
-0.052703315
-0.055683532
-0.058785846
-0.061917697
-0.064968293
-0.067809066
-0.070294957
-0.07226666
-0.073554257
-0.073982505
-0.073377192
-0.07157775
-0.068448351
-0.063897171
-0.057899597
-0.050527064
-0.041980243
-0.032621956
-0.022999537
-0.013840448
-0.0060020913
-0.0003477883
0.0024885711
0.0022855994
-0.0013073584
-0.0087528231
-0.038018827
-0.0394334
-0.040341883
-0.040935367
-0.041380644
-0.04177098
-0.042214301
-0.042817383
-0.043667982
-0.044830509
-0.046345955
-0.048232996
-0.050489452
-0.053093476
-0.056004171
-0.059161706
-0.06248714
-0.065882177
-0.069229094
-0.072391072
-0.075213344
-0.077525109
-0.079142736
-0.079874494
-0.079526908
-0.077914858
-0.074873538
-0.070276193
-0.064057234
-0.056242443
-0.046986524
-0.036615499
-0.025665502
-0.014901547
-0.0052916455
0.0021074518
0.0064153329
0.0071745781
0.0038152031
-0.0042483783
-0.042447755
-0.044000326
-0.044911252
-0.045386619
-0.045622107
-0.045740953
-0.045885199
-0.046193161
-0.046777359
-0.047719528
-0.049071369
-0.050856959
-0.053075528
-0.055703779
-0.058697344
-0.061991447
-0.065501113
-0.069121079
-0.072725813
-0.076169666
-0.079288003
-0.081898772
-0.083805351
-0.084800808
-0.084673892
-0.083217706
-0.080241284
-0.075585941
-0.069147427
-0.060905974
-0.050965844
-0.039604374
-0.027325326
-0.01490257
-0.0033872833
0.0059803686
0.01204947
0.014062639
0.011136192
0.0024904709
-0.04709382
-0.04888653
-0.04980566
-0.050099589
-0.050022508
-0.049746976
-0.049464825
-0.049356877
-0.049566422
-0.050194752
-0.051304045
-0.052922102
-0.055047176
-0.057651893
-0.060685872
-0.064077043
-0.067732358
-0.071537874
-0.075359262
-0.079040523
-0.082406863
-0.085264671
-0.087404437
-0.088604634
-0.088637415
-0.087275787
-0.084305319
-0.079538717
-0.072836674
-0.064136735
-0.053492673
-0.041126855
-0.027494374
-0.013350163
0.00020513973
0.01177135
0.019917854
0.023528189
0.021289628
0.012118584
-0.052046019
-0.054218851
-0.055138584
-0.055146949
-0.054607705
-0.05377237
-0.052903115
-0.05223553
-0.05194873
-0.05216386
-0.052951228
-0.054338779
-0.056319824
-0.058859063
-0.061896882
-0.065350607
-0.06911677
-0.073070524
-0.077068641
-0.080940912
-0.084502957
-0.087548722
-0.089855284
-0.091186367
-0.091298528
-0.08994436
-0.086887954
-0.081916081
-0.074857724
-0.065611552
-0.054183628
-0.040740014
-0.025676992
-0.0097071989
0.0060545847
0.020081559
0.030669388
0.036293044
0.035075615
0.025464983
-0.057478691
-0.060214695
-0.06109193
-0.06064033
-0.059419068
-0.057801628
-0.056145006
-0.054750906
-0.053836075
-0.053538036
-0.053929498
-0.055032306
-0.056828913
-0.0592708
-0.062285829
-0.065775661
-0.069624834
-0.073695636
-0.077830292
-0.08184943
-0.085554146
-0.088725425
-0.091126442
-0.092505643
-0.092601605
-0.091149179
-0.087889987
-0.082585264
-0.075034132
-0.065099046
-0.052741142
-0.038071095
-0.021420826
-0.0034427444
0.014767837
0.031596677
0.045083913
0.053255799
0.053516172
0.043606943
-0.063719524
-0.067238272
-0.06794789
-0.066741549
-0.064513538
-0.061816605
-0.059126861
-0.05681795
-0.055139048
-0.054234259
-0.054168092
-0.054946686
-0.056533665
-0.058861145
-0.061837031
-0.065347541
-0.069259889
-0.073421578
-0.077660412
-0.081783901
-0.085579151
-0.088813155
-0.091234216
-0.092574541
-0.092554486
-0.090888817
-0.087295824
-0.081510183
-0.073299995
-0.062490704
-0.048998253
-0.03287645
-0.01438703
0.0058942362
0.026923819
0.047044232
0.064066956
0.07553065
0.077938857
0.068004749
-0.071381698
-0.075894399
-0.076133273
-0.073673132
-0.069959027
-0.065788195
-0.061769614
-0.058340875
-0.055765853
-0.054175929
-0.053610394
-0.054046292
-0.0554175
-0.057629594
-0.060566101
-0.064092383
-0.068056776
-0.072290162
-0.07660507
-0.08079454
-0.084631432
-0.087868218
-0.090237764
-0.091455339
-0.091222258
-0.089231493
-0.085175806
-0.07876042
-0.069718183
-0.057832126
-0.042966051
-0.025108612
-0.0044396403
0.018569624
0.042964332
0.067104516
0.088610282
0.10448278
0.11010434
0.10076023
-0.081632316
-0.087182537
-0.086271064
-0.081717112
-0.075815425
-0.069655581
-0.063961993
-0.059201284
-0.055614358
-0.053287526
-0.052210183
-0.052311679
-0.053484962
-0.055600241
-0.05851184
-0.062060827
-0.066075083
-0.070367921
-0.074736236
-0.078958611
-0.082793873
-0.085980229
-0.08823534
-0.089257598
-0.088728993
-0.086319668
-0.081694476
-0.074525463
-0.064503594
-0.051359434
-0.034890129
-0.014998278
0.0082482202
0.034514901
0.063013042
0.092225557
0.11965955
0.14172214
0.15240409
0.14512431
-0.096760668
-0.10273898
-0.099198757
-0.091156073
-0.082063328
-0.07326228
-0.065508633
-0.059217816
-0.054541002
-0.051470211
-0.049911008
-0.049723808
-0.050746647
-0.052806817
-0.05572532
-0.05931711
-0.063389181
-0.067737644
-0.072144629
-0.076375419
-0.080176139
-0.083272145
-0.085367316
-0.08614448
-0.085267387
-0.082383575
-0.077129046
-0.069139323
-0.058056387
-0.043545494
-0.025315937
-0.0031514624
0.023040855
0.053141282
0.086633345
0.122283
0.15778084
0.18895165
0.20809787
0.20632771
-0.12134022
-0.12518786
-0.11587363
-0.10208174
-0.088417857
-0.076198829
-0.066006288
-0.058052759
-0.052291851
-0.048550783
-0.046608942
-0.04623358
-0.047195363
-0.049273287
-0.05225361
-0.055925912
-0.06007814
-0.064491555
-0.068936108
-0.073166468
-0.076918839
-0.079908589
-0.081828754
-0.082349552
-0.081119484
-0.077765182
-0.071896588
-0.063111031
-0.050996843
-0.035142428
-0.015146013
0.0093689636
0.038725408
0.07312968
0.11251978
0.15626259
0.20263088
0.24752314
0.28130095
0.29235655
-0.16445766
-0.1584334
-0.1371489
-0.11415798
-0.094107827
-0.077631724
-0.064738399
-0.055162314
-0.048490442
-0.044292109
-0.042173431
-0.041788017
-0.042833072
-0.045040327
-0.04816543
-0.051977761
-0.056251494
-0.060758048
-0.065259869
-0.069505419
-0.073225256
-0.076129051
-0.077903489
-0.078211242
-0.076691228
-0.072948485
-0.066578387
-0.057141288
-0.044172986
-0.027180968
-0.0056366286
0.021034729
0.053464069
0.092331575
0.13829623
0.19182687
0.25266799
0.3175114
0.37626855
0.41537072
-0.24629453
-0.20631858
-0.16213087
-0.12552951
-0.09714428
-0.075878796
-0.060488178
-0.049752972
-0.042660882
-0.03843685
-0.036490992
-0.036366044
-0.03769802
-0.040185835
-0.043567941
-0.047604927
-0.052066623
-0.056722417
-0.061333867
-0.06564902
-0.069398052
-0.07228999
-0.074010361
-0.074220581
-0.072559249
-0.068606268
-0.061962365
-0.052156538
-0.038683539
-0.020981723
0.0015956565
0.029825243
0.064686435
0.10746498
0.15987122
0.224178
0.30290566
0.3955324
0.49624363
0.60321251
-0.4254393
-0.26573068
-0.1772219
-0.12463651
-0.089117136
-0.065103266
-0.049324473
-0.039185951
-0.032984345
-0.02967474
-0.028571385
-0.029187436
-0.031157514
-0.034190595
-0.038038313
-0.042474034
-0.047278876
-0.052231905
-0.057102962
-0.061647266
-0.06560131
-0.068679689
-0.07057237
-0.070941253
-0.069408541
-0.065630413
-0.059132961
-0.049453406
-0.036075317
-0.018403734
0.0042713668
0.032847339
0.068542819
0.11314228
0.16943688
0.24201745
0.33806634
0.4659161
0.64305491
0.92086249
-0.79331326
-0.32444248
-0.14899773
-0.087725692
-0.055346092
-0.035999786
-0.025091819
-0.01920127
-0.016355801
-0.01561938
-0.016494619
-0.018654438
-0.021853561
-0.025888931
-0.030575949
-0.035734347
-0.041179565
-0.046716814
-0.052136523
-0.05721071
-0.061690035
-0.065301432
-0.067746437
-0.068701469
-0.067825065
-0.064708502
-0.058942314
-0.050072962
-0.037593884
-0.020927632
0.00061024029
0.027880957
0.062058673
0.10491329
0.15945126
0.23152793
0.3338514
0.49409216
0.79001632
1.3837783
1.1640645e-05
-0.00013122159
-0.00044341344
-0.00084597284
-0.0012643783
-0.0016531806
-0.0019815244
-0.002230589
-0.0023897447
-0.0024532893
-0.0024182846
-0.0022832752
-0.002047692
-0.0017117789
-0.0012768932
-0.00074604289
-0.00012453841
0.0005793535
0.0013538543
0.0021833083
0.0030480864
0.0039248292
0.0047870538
0.0056061658
0.0063528316
0.006998661
0.007518092
0.0078903329
0.0081011924
0.0081446294
0.0080238706
0.0077520046
0.0073520269
0.006856396
0.0063059966
0.0057483691
0.0052385117
0.0048326781
0.0045925998
0.0045540435
0.0001535775
8.3094837e-06
-0.00024184367
-0.00055070147
-0.00087286065
-0.0011740114
-0.0014299248
-0.0016244312
-0.0017471729
-0.0017917073
-0.0017540931
-0.0016319654
-0.0014240696
-0.0011301739
-0.00075127008
-0.00028996363
0.00024903701
0.00085842347
0.0015278635
0.0022437241
0.0029890044
0.0037436765
0.0044850411
0.0051887529
0.0058299681
0.0063847907
0.0068318911
0.0071541648
0.0073402833
0.0073859804
0.0072949341
0.0070791531
0.0067588346
0.0063617262
0.0059220406
0.005478801
0.005073186
0.0047485053
0.0045498865
0.004514654
0.00047184497
0.00025374924
-2.0423069e-06
-0.00028113942
-0.00056145355
-0.00081843054
-0.0010342986
-0.0011970082
-0.0012983544
-0.0013328193
-0.0012966857
-0.0011874214
-0.0010033858
-0.00074382355
-0.00040908119
-9.7592778e-07
0.00047675456
0.0010179947
0.0016138545
0.0022524049
0.0029186419
0.0035946087
0.0042599408
0.0048926408
0.0054701742
0.0059708154
0.0063751554
0.0066676504
0.0068380679
0.0068826743
0.0068050169
0.0066161919
0.0063345534
0.0059848942
0.005597186
0.0052048858
0.0048426296
0.0045446465
0.0043472138
0.0042800623
0.00089346722
0.00056178156
0.00026127716
-2.4529663e-05
-0.00029522231
-0.000534418
-0.00073058069
-0.00087650768
-0.00096712527
-0.00099873911
-0.00096853798
-0.00087423618
-0.00071396193
-0.00048637624
-0.00019096986
0.00017151558
0.00059860027
0.0010855736
0.00162506
0.002206713
0.0028171051
0.0034397897
0.0040558009
0.0046443443
0.0051838547
0.0056533186
0.0060337728
0.0063098554
0.0064712556
0.0065139008
0.0064407236
0.006261884
0.0059943822
0.0056610836
0.0052892536
0.0049087642
0.0045502937
0.0042438112
0.0040158821
0.0038803269
0.00134432
0.0008839633
0.00052117368
0.00021089777
-6.6891757e-05
-0.00030297433
-0.00049171883
-0.00063088072
-0.00071879792
-0.00075390357
-0.00073453612
-0.00065879479
-0.00052459671
-0.00032993164
-7.326584e-05
0.00024594945
0.00062671217
0.0010658995
0.001557753
0.0020934853
0.0026610733
0.0032452911
0.0038280641
0.0043891461
0.0049071463
0.0053608599
0.0057308142
0.0060008931
0.0061598672
0.0062026473
0.0061310935
0.0059542423
0.0056878795
0.0053534588
0.0049764384
0.0045843338
0.0042053768
0.0038668029
0.0035842349
0.0033604263
0.0017712591
0.0011771635
0.00074302026
0.00039704784
0.00010039338
-0.00014391508
-0.00033562931
-0.00047722618
-0.00057038904
-0.00061569077
-0.0006126421
-0.00055971753
-0.00045456118
-0.00029437454
-7.643816e-05
0.00020127227
0.00053941603
0.00093661123
0.0013888091
0.0018887851
0.0024258173
0.0029856324
0.0035506574
0.0041006596
0.004613752
0.0050677529
0.0054418111
0.0057181557
0.0058837794
0.0059318401
0.0058625817
0.0056836243
0.0054095484
0.0050607674
0.004661714
0.0042387379
0.0038192035
0.0034296912
0.0030773143
0.0027496399
0.0021290542
0.001402841
0.00089391323
0.00050578623
0.00018240593
-7.8590525e-05
-0.00028179352
-0.00043401408
-0.0005400265
-0.00060237224
-0.00062160194
-0.00059644112
-0.00052412542
-0.00040091237
-0.00022272146
1.4133488e-05
0.00031215612
0.00067186764
0.0010910502
0.0015641006
0.0020815709
0.0026299976
0.0031920386
0.0037470624
0.0042721314
0.0047433973
0.0051378229
0.0054350898
0.0056194917
0.0056815722
0.0056192589
0.0054383061
0.0051519559
0.0047798142
0.004345935
0.0038765929
0.0033998101
0.0029433563
0.0025073993
0.0020652971
0.0023791318
0.0015262394
0.00094295536
0.00050990998
0.00015519846
-0.00012837303
-0.00034976167
-0.00051968891
-0.00064567667
-0.00073195762
-0.00077988955
-0.00078824344
-0.00075365318
-0.00067123972
-0.00053536216
-0.00034046516
-8.1990086e-05
0.00024269218
0.00063338105
0.0010862451
0.0015932038
0.0021416147
0.0027142564
0.0032898438
0.0038439646
0.004350506
0.0047834819
0.0051191213
0.0053380178
0.0054270807
0.0053810009
0.0052029787
0.0049045746
0.0045046542
0.0040273986
0.0034999706
0.0029524687
0.0024156235
0.0018846045
0.001321335
0.0024876809
0.0015156645
0.0008608433
0.00038253472
-5.9104356e-06
-0.00031614864
-0.00056112041
-0.00075505311
-0.0009078524
-0.0010251235
-0.0011087517
-0.001157305
-0.0011665874
-0.0011303633
-0.0010412071
-0.0008914566
-0.00067424224
-0.00038455521
-2.0299706e-05
0.00041673514
0.00092007298
0.0014780776
0.0020737184
0.0026849815
0.0032857037
0.0038470005
0.0043391929
0.0047340986
0.0050074853
0.0051414135
0.0051261502
0.0049613421
0.0046562231
0.0042287502
0.0037035804
0.0031096096
0.0024803378
0.0018511634
0.0012137379
0.00051931244
0.0024242263
0.0013420347
0.00062001177
9.7614343e-05
-0.00032557737
-0.00066543885
-0.0009385868
-0.0011623909
-0.001348795
-0.0015044618
-0.0016315194
-0.0017280754
-0.0017888645
-0.0018060601
-0.0017702076
-0.0016712674
-0.0014997507
-0.0012479164
-0.00091098035
-0.00048827602
1.5731107e-05
0.0005908206
0.0012204025
0.0018818717
0.0025472227
0.0031844177
0.0037593767
0.0042384782
0.0045913688
0.0047937921
0.0048300833
0.0046949592
0.0043942881
0.0039446057
0.0033711538
0.0027052744
0.0019851354
0.0012524793
0.00049658496
-0.00034169984
0.0021609898
0.0009787145
0.00019486151
-0.00036950202
-0.00082761835
-0.0011994091
-0.0015049152
-0.0017643295
-0.0019913264
-0.0021933423
-0.002372489
-0.002526175
-0.0026478386
-0.0027278299
-0.0027544097
-0.0027148622
-0.0025967184
-0.0023890698
-0.0020839314
-0.0016776042
-0.0011719393
-0.0005750617
9.7333206e-05
0.00082244425
0.0015705661
0.0023063097
0.0029905809
0.0035832571
0.0040463894
0.004347626
0.0044634541
0.0043818159
0.0041036805
0.0036431824
0.0030258949
0.0022861113
0.001467888
0.00062102048
-0.00026675851
-0.0012653076
0.0016727744
0.00040158609
-0.00043796122
-0.0010415899
-0.0015343556
-0.0019400809
-0.0022820143
-0.0025828928
-0.0028578606
-0.0031148922
-0.0033558703
-0.0035773084
-0.0037711552
-0.003925727
-0.0040267492
-0.0040585137
-0.0040051663
-0.0038521181
-0.0035875522
-0.0032039608
-0.002699637
-0.0020801921
-0.0013591556
-0.00055893686
0.00028946829
0.0011473776
0.0019702477
0.0027104414
0.0033208098
0.0037588003
0.0039906412
0.0039950539
0.0037659353
0.0033134258
0.0026626655
0.001851078
0.00092974707
-4.1674431e-05
-0.0010764184
-0.0022559072
0.00093717982
-0.0004106854
-0.0012991893
-0.0019390372
-0.0024659678
-0.002907555
-0.0032900576
-0.003638513
-0.0039693253
-0.0042908318
-0.0046045352
-0.0049059183
-0.0051853009
-0.0054287993
-0.005619379
-0.0057380273
-0.0057650743
-0.0056816756
-0.0054714446
-0.0051221819
-0.0046276447
-0.003989468
-0.0032181544
-0.0023345828
-0.0013701979
-0.00036655474
0.00062620962
0.0015520952
0.0023531224
0.0029741588
0.00336823
0.0035016529
0.0033582409
0.0029417261
0.0022753467
0.0013993527
0.00037282863
-0.00073278484
-0.0019312382
-0.003316815
-6.4972878e-05
-0.0014762557
-0.0024064856
-0.0030792962
-0.0036398218
-0.0041192142
-0.0045465525
-0.004948965
-0.0053439603
-0.0057401311
-0.0061385247
-0.0065335325
-0.0069137785
-0.0072630767
-0.0075614606
-0.0077863329
-0.007913782
-0.0079201013
-0.0077835207
-0.0074861263
-0.007015926
-0.0063690364
-0.0055515166
-0.0045811826
-0.0034886077
-0.0023173022
-0.0011226941
3.0334372e-05
0.001071473
0.0019304798
0.0025437416
0.0028611651
0.0028524209
0.0025113132
0.0018567277
0.00093072735
-0.00019892759
-0.0014469684
-0.0028272569
-0.0044485379
-0.0013491031
-0.0028096398
-0.0037739677
-0.0044763347
-0.0050698153
-0.0055889312
-0.0060653979
-0.0065282581
-0.0069960295
-0.0074775299
-0.0079733612
-0.0084768516
-0.0089749505
-0.0094491508
-0.0098764591
-0.010230477
-0.010482672
-0.010603881
-0.010566113
-0.010344621
-0.009920254
-0.009282012
-0.0084295759
-0.0073757454
-0.0061483431
-0.0047912756
-0.0033643143
-0.0019411863
-0.00060566902
0.00055441149
0.0014550115
0.0020248055
0.0022140479
0.002001674
0.0013983999
0.00044603686
-0.00077882943
-0.0021750241
-0.0037560842
-0.0056469769
-0.0029263056
-0.0044212528
-0.0054117599
-0.0061401317
-0.0067657694
-0.0073263224
-0.0078559669
-0.0083855257