/*--------------------------------*- C++ -*----------------------------------*\
  =========                 |
  \\      /  F ield         | OpenFOAM: The Open Source CFD Toolbox
   \\    /   O peration     | Website:  https://openfoam.org
    \\  /    A nd           | Version:  7
     \\/     M anipulation  |
\*---------------------------------------------------------------------------*/
FoamFile
{
    version     2.0;
    format      ascii;
    class       surfaceScalarField;
    location    "43";
    object      phi;
}
// * * * * * * * * * * * * * * * * * * * * * * * * * * * * * * * * * * * * * //

dimensions      [0 3 -1 0 0 0 0];

internalField   nonuniform List<scalar> 
45600
(
2.7517558e-07
-2.8223332e-07
-7.9223482e-11
4.0333818e-07
-1.2813712e-07
-2.49215e-11
1.3256509e-07
2.7078058e-07
-6.7457798e-12
-5.6230415e-07
6.948711e-07
-1.5174328e-12
-1.6393071e-06
1.0769994e-06
3.584188e-12
-3.027619e-06
1.388305e-06
7.0664635e-12
-4.6524628e-06
1.6248346e-06
9.3616528e-12
-6.4450965e-06
1.7926223e-06
1.0973007e-11
-8.3454244e-06
1.9003147e-06
1.2100766e-11
-1.0301445e-05
1.9560066e-06
1.2841805e-11
-1.2267405e-05
1.9659465e-06
1.3260252e-11
-1.4201584e-05
1.9341669e-06
1.3388416e-11
-1.6064241e-05
1.862645e-06
1.3234516e-11
-1.7816029e-05
1.7517759e-06
1.2794826e-11
-1.9417056e-05
1.6010149e-06
1.206108e-11
-2.082666e-05
1.4095934e-06
1.1026393e-11
-2.200391e-05
1.1772402e-06
9.6890636e-12
-2.2908771e-05
9.0485521e-07
8.0474923e-12
-2.3503869e-05
5.9509402e-07
6.099323e-12
-2.3756701e-05
2.5282907e-07
3.8458281e-12
-2.3642141e-05
-1.1456378e-07
1.3277976e-12
-2.3145012e-05
-4.9713109e-07
-1.3645259e-12
-2.2262581e-05
-8.8242873e-07
-4.1096595e-12
-2.1006624e-05
-1.2559467e-06
-6.7837236e-12
-1.9404867e-05
-1.6017418e-06
-9.2979151e-12
-1.7501557e-05
-1.903297e-06
-1.1580417e-11
-1.535697e-05
-2.1445786e-06
-1.3521537e-11
-1.3045758e-05
-2.3112065e-06
-1.4929307e-11
-1.0654104e-05
-2.3916409e-06
-1.5586593e-11
-8.2758173e-06
-2.3782614e-06
-1.5389368e-11
-6.0075628e-06
-2.268225e-06
-1.4434836e-11
-3.943524e-06
-2.0640237e-06
-1.2918768e-11
-2.1697814e-06
-1.7737495e-06
-1.0892404e-11
-7.5854443e-07
-1.411249e-06
-8.1647969e-12
2.3820297e-07
-9.9673828e-07
-4.7207286e-12
7.9654629e-07
-5.5831054e-07
-1.36223e-12
9.2928777e-07
-1.3272033e-07
2.0057034e-12
7.0559398e-07
2.236655e-07
5.4172823e-12
2.9046783e-07
4.1505941e-07
8.8635263e-12
2.9043456e-07
2.2097047e-12
1.3289315e-07
-4.1510361e-07
-2.2323457e-11
-3.0167689e-07
3.0644786e-07
-1.4131804e-11
-1.615394e-06
1.5845113e-06
-1.2351024e-11
-3.8747012e-06
2.9541922e-06
-1.3121076e-11
-7.0073369e-06
4.209649e-06
-1.4296699e-11
-1.0879748e-05
5.2607308e-06
-1.5836863e-11
-1.5335163e-05
6.080266e-06
-1.7257663e-11
-2.0216002e-05
6.6734796e-06
-1.8277332e-11
-2.5374062e-05
7.0583934e-06
-1.8856698e-11
-3.0673275e-05
7.2552393e-06
-1.9009163e-11
-3.5988543e-05
7.2812331e-06
-1.8746212e-11
-4.1202832e-05
7.1484733e-06
-1.8079564e-11
-4.6203975e-05
6.8638066e-06
-1.7022094e-11
-5.0882103e-05
6.4299216e-06
-1.5585959e-11
-5.5128234e-05
5.8471629e-06
-1.3784412e-11
-5.8834321e-05
5.1156933e-06
-1.1631845e-11
-6.1894805e-05
4.2377331e-06
-9.1369538e-12
-6.4209611e-05
3.2196663e-06
-6.3105366e-12
-6.5688362e-05
2.0738463e-06
-3.1683169e-12
-6.6255471e-05
8.1994039e-07
2.1612087e-13
-6.5855984e-05
-5.1404993e-07
3.7274046e-12
-6.4460809e-05
-1.8923123e-06
7.2847347e-12
-6.2072478e-05
-3.2707738e-06
1.0742609e-11
-5.8729092e-05
-4.5993544e-06
1.4034523e-11
-5.4507081e-05
-5.8237734e-06
1.709103e-11
-4.9521908e-05
-6.8884826e-06
1.9767834e-11
-4.3926395e-05
-7.7401005e-06
2.1837525e-11
-3.7906445e-05
-8.3311745e-06
2.3094624e-11
-3.167414e-05
-8.623981e-06
2.3499709e-11
-2.5458405e-05
-8.5940405e-06
2.3198954e-11
-1.949362e-05
-8.233037e-06
2.233594e-11
-1.4006721e-05
-7.5509198e-06
2.082939e-11
-9.2032781e-06
-6.5771805e-06
1.843036e-11
-5.25289e-06
-5.361654e-06
1.512602e-11
-2.2739855e-06
-3.9756944e-06
1.1442022e-11
-3.1729727e-07
-2.5150424e-06
8.0072015e-12
6.5703381e-07
-1.1070283e-06
4.7009261e-12
8.036759e-07
7.7106518e-08
3.5422629e-12
4.1787827e-07
8.009329e-07
4.481502e-12
7.0828612e-07
-3.0228043e-12
-2.7358126e-07
-1.4150945e-07
-1.246594e-11
-1.6274759e-06
1.6603498e-06
-7.2369765e-12
-4.2893961e-06
4.2464405e-06
-8.5617927e-12
-8.2746694e-06
6.9394734e-06
-7.1458591e-12
-1.347441e-05
9.4093959e-06
-5.1702311e-12
-1.9708715e-05
1.149504e-05
-4.0961767e-12
-2.6765747e-05
1.31373e-05
-3.4036827e-12
-3.4426614e-05
1.433435e-05
-2.8243738e-12
-4.247863e-05
1.5110412e-05
-2.3363302e-12
-5.072045e-05
1.5497063e-05
-1.9137013e-12
-5.8962295e-05
1.5523081e-05
-1.5223863e-12
-6.7023691e-05
1.5209871e-05
-1.1374056e-12
-7.4730533e-05
1.457065e-05
-7.4262654e-13
-8.1912721e-05
1.361211e-05
-3.2803731e-13
-8.840315e-05
1.2337593e-05
1.053074e-13
-9.4038478e-05
1.0751023e-05
5.4041857e-13
-9.8661797e-05
8.8610533e-06
9.5082817e-13
-0.0001021271
6.684964e-06
1.3162387e-12
-0.00010430523
4.2519742e-06
1.6450329e-12
-0.00010509101
1.6057145e-06
1.9573834e-12
-0.00010441064
-1.1944137e-06
2.2617453e-12
-0.00010222946
-4.0734959e-06
2.5138774e-12
-9.855852e-05
-6.9417111e-06
2.6501493e-12
-9.3460004e-05
-9.6978747e-06
2.6564226e-12
-8.7050397e-05
-1.2233391e-05
2.6025368e-12
-7.9501005e-05
-1.4437884e-05
2.59829e-12
-7.1035288e-05
-1.6205816e-05
2.6808751e-12
-6.1922726e-05
-1.7443726e-05
2.7479659e-12
-5.2469141e-05
-1.8077557e-05
2.6503059e-12
-4.3003674e-05
-1.8059518e-05
2.3967487e-12
-3.3862829e-05
-1.7373908e-05
2.2326872e-12
-2.5372243e-05
-1.604152e-05
2.415707e-12
-1.7826892e-05
-1.4122513e-05
2.8714275e-12
-1.1470396e-05
-1.1718117e-05
3.1797035e-12
-6.473846e-06
-8.9722407e-06
3.0615682e-12
-2.9140416e-06
-6.0748929e-06
2.7294274e-12
-7.512499e-07
-3.2698803e-06
2.5781274e-12
1.9432976e-07
-8.6848971e-07
3.5967168e-12
2.6551251e-07
7.2979569e-07
5.7456304e-12
9.7379063e-07
8.914494e-13
-7.4584543e-07
6.0434914e-07
-1.2747888e-11
-3.1796336e-06
4.0941394e-06
-1.3021858e-12
-7.3461036e-06
8.4129171e-06
-6.7609777e-12
-1.3163058e-05
1.2756434e-05
-6.1155532e-12
-2.0455823e-05
1.6702165e-05
-3.4845921e-12
-2.8992642e-05
2.0031862e-05
-2.1421249e-12
-3.8513886e-05
2.2658545e-05
-1.2643975e-12
-4.8752687e-05
2.4573151e-05
-4.8338768e-13
-5.9446994e-05
2.5804719e-05
1.6168058e-13
-7.0344846e-05
2.6394915e-05
6.8335463e-13
-8.1205141e-05
2.6383375e-05
1.1142087e-12
-9.1795994e-05
2.5800724e-05
1.4719682e-12
-0.00010189242
2.4667079e-05
1.7665642e-12
-0.00011127464
2.2994326e-05
2.0079194e-12
-0.00011972779
2.0790742e-05
2.2076163e-12
-0.00012704362
1.8066848e-05
2.3697764e-12
-0.00013302417
1.4841602e-05
2.4758505e-12
-0.00013748743
1.114822e-05
2.4869589e-12
-0.00014027452
7.0390696e-06
2.375728e-12
-0.00014125806
2.5892486e-06
2.1627213e-12
-0.00014035078
-2.1016979e-06
1.9144028e-12
-0.0001375144
-6.9098864e-06
1.6390808e-12
-0.00013276703
-1.168907e-05
1.3250999e-12
-0.00012618931
-1.6275588e-05
9.1332263e-13
-0.00011792789
-2.0494814e-05
3.8161481e-13
-0.00010819592
-2.4169866e-05
-1.7286038e-13
-9.7269883e-05
-2.713186e-05
-5.6597902e-13
-8.5482423e-05
-2.9231185e-05
-6.8688983e-13
-7.3210953e-05
-3.0349009e-05
-6.343754e-13
-6.0862261e-05
-3.0408191e-05
-6.2939377e-13
-4.8853446e-05
-2.9382727e-05
-7.2485823e-13
-3.7589909e-05
-2.7305086e-05
-6.3802627e-13
-2.7441332e-05
-2.4271112e-05
-7.9852227e-15
-1.8716703e-05
-2.0442727e-05
1.1037114e-12
-1.1639449e-05
-1.6049447e-05
2.1273954e-12
-6.3235542e-06
-1.1390763e-05
2.6175101e-12
-2.7515367e-06
-6.8419287e-06
2.9105844e-12
-7.5717349e-07
-2.8628978e-06
3.6175522e-12
-9.5304234e-09
-1.784487e-08
4.5440073e-12
9.6426794e-07
3.8999984e-12
-1.2279677e-06
1.8323314e-06
-1.4297913e-11
-4.7881111e-06
7.6542792e-06
4.6616036e-12
-1.0521545e-05
1.4146357e-05
-5.9077296e-12
-1.8214336e-05
2.0449233e-05
-7.0142316e-12
-2.7603941e-05
2.6091775e-05
-4.6246909e-12
-3.8396301e-05
3.0824227e-05
-3.884362e-12
-5.0283058e-05
3.4545308e-05
-3.5405078e-12
-6.2954787e-05
3.7244883e-05
-3.086635e-12
-7.6109042e-05
3.8958976e-05
-2.6459524e-12
-8.9453778e-05
3.9739654e-05
-2.2367995e-12
-0.00010270748
3.9637077e-05
-1.8305026e-12
-0.00011559754
3.8690785e-05
-1.4185546e-12
-0.00012785835
3.6927894e-05
-1.0050399e-12
-0.0001392302
3.4366181e-05
-5.9613345e-13
-0.00014945975
3.102029e-05
-1.9039965e-13
-0.00015830248
2.6909573e-05
2.2718192e-13
-0.00016552724
2.2066365e-05
6.679223e-13
-0.00017092275
1.6543728e-05
1.1131756e-12
-0.00017430559
1.0421917e-05
1.5131505e-12
-0.00017552935
3.8130097e-06
1.8252516e-12
-0.00017449413
-3.1369283e-06
2.057253e-12
-0.00017115589
-1.0248135e-05
2.2544329e-12
-0.00016553481
-1.7310156e-05
2.4696036e-12
-0.00015772191
-2.4088485e-05
2.6805258e-12
-0.0001478832
-3.0333517e-05
2.7847195e-12
-0.0001362606
-3.5792465e-05
2.7012138e-12
-0.00012316896
-4.0223505e-05
2.4978512e-12
-0.00010898873
-4.3411439e-05
2.384639e-12
-9.4153814e-05
-4.5183929e-05
2.5140365e-12
-7.9134858e-05
-4.542713e-05
2.7719355e-12
-6.4418055e-05
-4.4099507e-05
2.8472367e-12
-5.0480356e-05
-4.1242788e-05
2.6101896e-12
-3.7762142e-05
-3.6989363e-05
2.3759951e-12
-2.6638841e-05
-3.1566065e-05
2.5831055e-12
-1.7393185e-05
-2.5295098e-05
3.1720857e-12
-1.0189909e-05
-1.8594002e-05
3.6947075e-12
-5.0547228e-06
-1.1977099e-05
4.1132623e-12
-1.8598388e-06
-6.0578084e-06
3.4628248e-12
-3.222412e-07
-1.5554569e-06
4.5262954e-13
6.420293e-07
6.0219441e-12
-1.6931698e-06
3.5255178e-06
-1.6817018e-11
-6.371412e-06
1.2332513e-05
1.0058541e-11
-1.3671455e-05
2.1446406e-05
-4.953533e-12
-2.3234062e-05
3.0011847e-05
-7.1288164e-12
-3.4695245e-05
3.7552962e-05
-4.4115647e-12
-4.7689824e-05
4.3818809e-05
-3.8383964e-12
-6.1857525e-05
4.8713014e-05
-3.7072292e-12
-7.6848068e-05
5.2235431e-05
-3.3470917e-12
-9.2323871e-05
5.4434783e-05
-2.9616239e-12
-0.00010796027
5.5376059e-05
-2.5981188e-12
-0.00012344397
5.5120774e-05
-2.2235274e-12
-0.0001384707
5.3717513e-05
-1.823055e-12
-0.00015274323
5.1200428e-05
-1.3959065e-12
-0.00016597054
4.7593497e-05
-9.5387298e-13
-0.00017786874
4.2918493e-05
-5.153825e-13
-0.00018816405
3.7204886e-05
-8.6281271e-14
-0.0001965979
3.0500204e-05
3.5135403e-13
-0.00020293384
2.2879673e-05
8.1851733e-13
-0.00020696614
1.4454221e-05
1.302475e-12
-0.0002085293
5.3761652e-06
1.7464774e-12
-0.00020750812
-4.1581047e-06
2.086854e-12
-0.00020384768
-1.3908578e-05
2.316427e-12
-0.00019756247
-2.3595373e-05
2.4977653e-12
-0.00018874398
-3.2906992e-05
2.7151915e-12
-0.0001775659
-4.1511594e-05
2.9687376e-12
-0.00016428626
-4.9072091e-05
3.135939e-12
-0.00014924551
-5.526425e-05
3.0845382e-12
-0.0001328599
-5.9797056e-05
2.8572173e-12
-0.00011560968
-6.2434172e-05
2.7053714e-12
-9.8021773e-05
-6.3015052e-05
2.8515311e-12
-8.0647231e-05
-6.1474033e-05
3.1927931e-12
-6.4034167e-05
-5.7855821e-05
3.3478405e-12
-4.8697433e-05
-5.2326091e-05
3.1251841e-12
-3.5086903e-05
-4.5176629e-05
2.8238199e-12
-2.3556691e-05
-3.6825347e-05
2.8570503e-12
-1.4337877e-05
-2.7812813e-05
3.4499426e-12
-7.5174758e-06
-1.8797473e-05
4.6982328e-12
-3.0267174e-06
-1.0548568e-05
3.7396928e-12
-6.4249578e-07
-3.9396902e-06
-1.9736162e-12
-4.7385004e-10
8.4295171e-12
-2.1329384e-06
5.6584758e-06
-1.9598057e-11
-7.8910784e-06
1.8090639e-05
1.4840103e-11
-1.6717408e-05
3.0272741e-05
-4.2131552e-12
-2.8105744e-05
4.1400192e-05
-7.1811735e-12
-4.1585093e-05
5.1032315e-05
-3.9719928e-12
-5.671414e-05
5.894786e-05
-3.4484893e-12
-7.3078284e-05
6.5077162e-05
-3.4517977e-12
-9.0287094e-05
6.9444245e-05
-3.1343302e-12
-0.00010797133
7.2119021e-05
-2.7642146e-12
-0.00012577927
7.3184007e-05
-2.4193382e-12
-0.00014337275
7.2714249e-05
-2.0714866e-12
-0.00016042342
7.076819e-05
-1.7060896e-12
-0.00017661019
6.7387199e-05
-1.3124556e-12
-0.00019161814
6.2601448e-05
-8.8584344e-13
-0.00020513951
5.6439869e-05
-4.4199107e-13
-0.00021687684
4.8942213e-05
-1.191334e-14
-0.00022654815
4.017151e-05
3.8923092e-13
-0.00023389407
3.0225592e-05
7.8111575e-13
-0.0002386865
1.9246653e-05
1.1965759e-12
-0.00024073842
7.4280834e-06
1.6342888e-12
-0.00023991437
-4.9821573e-06
2.0339029e-12
-0.00023614102
-1.7681921e-05
2.3199215e-12
-0.00022941747
-3.0318927e-05
2.456607e-12
-0.00021982416
-4.2500313e-05
2.5198698e-12
-0.00020752993
-5.3805839e-05
2.6369753e-12
-0.0001927961
-6.3805914e-05
2.8452508e-12
-0.0001759767
-7.208364e-05
3.0116631e-12
-0.00015751363
-7.8260112e-05
2.9503027e-12
-0.00013792612
-8.2021689e-05
2.6693206e-12
-0.00011779373
-8.3147469e-05
2.4549435e-12
-9.7732968e-05
-8.1534817e-05
2.5969551e-12
-7.8368132e-05
-7.7220645e-05
3.0107006e-12
-6.0297854e-05
-7.0396338e-05
3.2739125e-12
-4.4059509e-05
-6.1414966e-05
3.1174058e-12
-3.0094429e-05
-5.0790455e-05
2.7640293e-12
-1.8717275e-05
-3.9189995e-05
3.0761181e-12
-1.0093052e-05
-2.742169e-05
4.9331754e-12
-4.2253037e-06
-1.6416304e-05
3.8839654e-12
-9.5848124e-07
-7.2065086e-06
-4.5943668e-12
-9.5897132e-07
1.0423452e-11
-2.5450548e-06
8.2035538e-06
-2.2378604e-11
-9.3288474e-06
2.4874413e-05
1.9109936e-11
-1.9615365e-05
4.0559263e-05
-3.7410365e-12
-3.2756851e-05
5.4541687e-05
-7.4430574e-12
-4.8175889e-05
6.6451358e-05
-3.7615987e-12
-6.5354094e-05
7.6126068e-05
-3.2915638e-12
-8.3822144e-05
8.3545215e-05
-3.4495665e-12
-0.00010315063
8.8772732e-05
-3.2068696e-12
-0.00012294163
9.1910023e-05
-2.8753783e-12
-0.00014282096
9.3063344e-05
-2.5531748e-12
-0.00016243135
9.232464e-05
-2.2192814e-12
-0.00018142688
8.9763725e-05
-1.8722172e-12
-0.00019946925
8.542957e-05
-1.5088922e-12
-0.00021622605
7.9358244e-05
-1.1117088e-12
-0.00023137131
7.1585129e-05
-6.6921947e-13
-0.00024458832
6.2159234e-05
-2.0071344e-13
-0.0002555746
5.1157785e-05
2.5130948e-13
-0.00026404868
3.8699673e-05
6.6032597e-13
-0.00026975868
2.4956651e-05
1.0438319e-12
-0.0002724921
1.01615e-05
1.4447041e-12
-0.00027208669
-5.3875746e-06
1.876002e-12
-0.00026844173
-2.1326878e-05
2.2957992e-12
-0.00026152975
-3.7230899e-05
2.5877018e-12
-0.00025140739
-5.2622672e-05
2.6947192e-12
-0.00023822498
-6.698826e-05
2.6940075e-12
-0.00022223364
-7.9797267e-05
2.752539e-12
-0.00020378864
-9.0528645e-05
2.9523755e-12
-0.00018334762
-9.8701117e-05
3.1583839e-12
-0.0001614624
-0.00010390689
3.1325164e-12
-0.00013876326
-0.00010584661
2.8420636e-12
-0.00011593535
-0.00010436275
2.5930053e-12
-9.3687561e-05
-9.9468459e-05
2.7237807e-12
-7.2715441e-05
-9.136845e-05
3.1610908e-12
-5.3660736e-05
-8.0469644e-05
3.3973663e-12
-3.7071073e-05
-6.7380113e-05
3.0733888e-12
-2.336395e-05
-5.2897143e-05
3.1028934e-12
-1.2799323e-05
-3.7986333e-05
5.1880759e-12
-5.4648791e-06
-2.3750744e-05
3.767711e-12
-1.277252e-06
-1.139412e-05
-7.4488351e-12
-2.2362387e-06
1.2937027e-11
-2.9284816e-06
1.1132062e-05
-2.5079668e-11
-1.0673672e-05
3.2619581e-05
2.2950009e-11
-2.2336175e-05
5.222177e-05
-3.4349025e-12
-3.7135976e-05
6.9341496e-05
-7.8134542e-12
-5.4394111e-05
8.3709497e-05
-3.6766449e-12
-7.3517628e-05
9.524959e-05
-3.2293772e-12
-9.3984301e-05
0.00010401189
-3.5143442e-12
-0.00011532796
0.00011011639
-3.3439207e-12
-0.00013712518
0.00011370724
-3.0639913e-12
-0.00015898353
0.0001149217
-2.7781088e-12
-0.00018053178
0.00011387289
-2.4591317e-12
-0.00020141215
0.0001106441
-2.112633e-12
-0.00022127503
0.00010529246
-1.7556888e-12
-0.00023977618
9.7859396e-05
-1.385425e-12
-0.00025657638
8.8385325e-05
-9.7702682e-13
-0.00027134347
7.692632e-05
-5.1146288e-13
-0.00028375659
6.3570913e-05
-8.36115e-15
-0.00029351244
4.8455521e-05
4.8083059e-13
-0.00030033322
3.177744e-05
9.1499465e-13
-0.00030397636
1.3804634e-05
1.2991222e-12
-0.00030424558
-5.1183659e-06
1.6804047e-12
-0.00030100298
-2.4569481e-05
2.1263743e-12
-0.00029418252
-4.4051354e-05
2.5695753e-12
-0.00028380325
-6.3001934e-05
2.88687e-12
-0.00026998221
-8.0809302e-05
2.9867426e-12
-0.00025294549
-9.6833995e-05
2.9344509e-12
-0.00023303601
-0.00011043815
2.9320659e-12
-0.00021071601
-0.00012102112
3.1095598e-12
-0.00018656268
-0.00012806022
3.3387197e-12
-0.00016125482
-0.00013115444
3.3422298e-12
-0.00013554997
-0.00013006761
3.0576305e-12
-0.00011025148
-0.00012476697
2.8099653e-12
-8.6167399e-05
-0.00011545256
2.9570221e-12
-6.406374e-05
-0.0001025733
3.3108854e-12
-4.4616663e-05
-8.6827171e-05
3.2298856e-12
-2.8368525e-05
-6.9145282e-05
3.3177711e-12
-1.5693156e-05
-5.0661721e-05
5.6597904e-12
-6.7752254e-06
-3.2668683e-05
3.636749e-12
-1.607034e-06
-1.6562296e-05
-1.0511015e-11
-3.8432863e-06
1.5512075e-11
-3.2816996e-06
1.441379e-05
-2.7658893e-11
-1.1915869e-05
4.1253726e-05
2.6388362e-11
-2.4855511e-05
6.5161415e-05
-3.2374936e-12
-4.1199919e-05
8.5685911e-05
-8.2320657e-12
-6.017631e-05
0.00010268589
-3.669406e-12
-8.112225e-05
0.00011619553
-3.227557e-12
-0.0001034663
0.00012635595
-3.6036908e-12
-0.00012670888
0.00013335898
-3.48027e-12
-0.00015040465
0.00013740301
-3.2443942e-12
-0.00017414714
0.0001386642
-3.0052449e-12
-0.00019755594
0.0001372817
-2.7208353e-12
-0.00022026669
0.00013335484
-2.3843472e-12
-0.00024192389
0.00012694966
-2.01737e-12
-0.00026217668
0.00011811219
-1.6432774e-12
-0.00028067717
0.00010688582
-1.2611758e-12
-0.00029708131
9.3330453e-05
-8.4045793e-13
-0.00031105196
7.7541567e-05
-3.5345461e-13
-0.00032226415
5.9667709e-05
1.8618478e-13
-0.00033041221
3.9925502e-05
7.2026311e-13
-0.00033521898
1.8611406e-05
1.1772394e-12
-0.00033644713
-3.890212e-06
1.5349312e-12
-0.00033391174
-2.7104885e-05
1.9357035e-12
-0.00032749597
-5.0467126e-05
2.375041e-12
-0.00031716688
-7.333102e-05
2.8349719e-12
-0.0003029923
-9.4983876e-05
3.1811655e-12
-0.00028515682
-0.00011466947
3.2817208e-12
-0.00026397518
-0.00013161981
3.1842822e-12
-0.00023990063
-0.00014509569
3.1172776e-12
-0.00021352584
-0.00015443501
3.2512468e-12
-0.00018557379
-0.00015910649
3.4667423e-12
-0.00015687657
-0.0001587648
3.4681843e-12
-0.00012834163
-0.00015330192
3.202314e-12
-0.00010090607
-0.00014288814
3.0176792e-12
-7.5482486e-05
-0.0001279969
3.1183937e-12
-5.2901151e-05
-0.0001094085
3.0778045e-12
-3.3855111e-05
-8.819131e-05
3.4136826e-12
-1.8854783e-05
-6.5662055e-05
6.2891731e-12
-8.1982656e-06
-4.3325211e-05
3.6335357e-12
-1.961165e-06
-2.2799385e-05
-1.3787983e-11
-5.8044668e-06
1.8175872e-11
-3.6023031e-06
1.8016124e-05
-3.0075285e-11
-1.3044872e-05
5.0696268e-05
2.9417102e-11
-2.7149288e-05
7.9265836e-05
-3.1346292e-12
-4.4907169e-05
0.0001034438
-8.6775036e-12
-6.5461505e-05
0.00012324023
-3.7324877e-12
-8.8087232e-05
0.00013882126
-3.2996791e-12
-0.0001121688
0.00015043753
-3.7528196e-12
-0.00013717742
0.0001583676
-3.6570524e-12
-0.00016264988
0.00016287547
-3.445356e-12
-0.00018816993
0.00016418425
-3.2432953e-12
-0.00021335264
0.00016246441
-3.0047968e-12
-0.00023783203
0.00015783423
-2.7066292e-12
-0.00026125191
0.00015036955
-2.3491284e-12
-0.00028325983
0.00014012012
-1.9557345e-12
-0.00030350382
0.00012712981
-1.5573275e-12
-0.00032163166
0.00011145829
-1.1578176e-12
-0.00033729244
9.3202348e-05
-7.2297537e-13
-0.00035014038
7.2515645e-05
-2.1400522e-13
-0.00035984079
4.9625911e-05
3.6485371e-13
-0.00036607843
2.4849045e-05
9.3338623e-13
-0.00036856896
-1.3996705e-06
1.3721037e-12
-0.00036707134
-2.8602509e-05
1.8368227e-12
-0.00036140637
-5.6132108e-05
2.2166072e-12
-0.00035147458
-8.3262817e-05
2.6356574e-12
-0.00033727783
-0.00010918063
3.1040737e-12
-0.0003189409
-0.00013300638
3.471508e-12
-0.00029673174
-0.00015382896
3.5733084e-12
-0.00027107726
-0.00017075018
3.439325e-12
-0.00024257163
-0.00018294066
3.3135861e-12
-0.00021197328
-0.00018970485
3.3889884e-12
-0.0001801876
-0.00019055048
3.5504442e-12
-0.00014823331
-0.00018525619
3.5271782e-12
-0.00011719276
-0.00017392869
3.3221135e-12
-8.8148956e-05
-0.00015704072
3.1367617e-12
-6.2115391e-05
-0.00013544208
2.8464896e-12
-3.9966492e-05
-0.00011034021
3.3097775e-12
-2.2377608e-05
-8.3250938e-05
6.9160757e-12
-9.7826892e-06
-5.5920134e-05
3.7173579e-12
-2.3546969e-06
-3.0227364e-05
-1.7327544e-11
-8.1591845e-06
2.114378e-11
-3.8870504e-06
2.1903206e-05
-3.2277447e-11
-1.404866e-05
6.0857845e-05
3.2024599e-11
-2.9192053e-05
9.4409233e-05
-3.1234351e-12
-4.8215263e-05
0.00012246702
-9.137112e-12
-7.0187841e-05
0.00014521281
-3.8459174e-12
-9.433006e-05
0.00016296349
-3.4273296e-12
-0.00011998821
0.00017609568
-3.9592418e-12
-0.00014660908
0.00018498847
-3.8921464e-12
-0.00017371588
0.00018998228
-3.6943981e-12
-0.00020088685
0.00019135523
-3.5088272e-12
-0.00022773708
0.00018931464
-3.3003644e-12
-0.0002539038
0.00018400096
-3.0499295e-12
-0.00027903519
0.00017550094
-2.7379895e-12
-0.00030278231
0.00016386724
-2.3569601e-12
-0.00032479396
0.00014914147
-1.9320052e-12
-0.00034471404
0.00013137837
-1.501716e-12
-0.00036218125
0.00011066957
-1.0769986e-12
-0.00037683113
8.7165521e-05
-6.2436704e-13
-0.00038830042
6.109519e-05
-9.4259262e-14
-0.00039623427
3.27829e-05
5.3519706e-13
-0.00040029638
2.6624415e-06
1.2207293e-12
-0.00040018387
-2.8715009e-05
1.7424724e-12
-0.00039564405
-6.0671933e-05
2.1633192e-12
-0.00038649736
-9.2409519e-05
2.5222379e-12
-0.00037266263
-0.00012301537
2.9240781e-12
-0.00035418497
-0.00015148404
3.3852981e-12
-0.00033126379
-0.00017675013
3.7525206e-12
-0.00030427782
-0.00019773613
3.8410213e-12
-0.00027380298
-0.00021341551
3.6705782e-12
-0.00024061831
-0.00022288955
3.4898765e-12
-0.0002056952
-0.0002254736
3.4908059e-12
-0.00017016638
-0.000220785
3.5789072e-12
-0.00013527317
-0.00020882189
3.5600738e-12
-0.00010229332
-0.00019002057
3.3288138e-12
-7.2455936e-05
-0.00016527947
2.7489387e-12
-4.6853298e-05
-0.00013594285
3.155831e-12
-2.6361364e-05
-0.00010374287
7.5149807e-12
-1.1580441e-05
-7.0701057e-05
3.7922803e-12
-2.8033139e-06
-3.9004469e-05
-2.1279974e-11
-1.0962524e-05
2.4577505e-11
-4.1321164e-06
2.6035358e-05
-3.4214769e-11
-1.4914097e-05
7.1639791e-05
3.4207453e-11
-3.0957131e-05
0.00011045227
-3.1927104e-12
-5.1080654e-05
0.00014259055
-9.6070636e-12
-7.4292272e-05
0.00016842444
-4.0048321e-12
-9.9766124e-05
0.00018843734
-3.5917817e-12
-0.00012681669
0.00020314625
-4.1973816e-12
-0.0001548713
0.00021304309
-4.1691558e-12
-0.00018344394
0.00021855492
-3.9955379e-12
-0.0002121115
0.00022002279
-3.8221932e-12
-0.00024049344
0.00021769659
-3.6205667e-12
-0.00026823493
0.00021174245
-3.393414e-12
-0.00029499352
0.00020225953
-3.1318766e-12
-0.00032042905
0.00018930278
-2.8054631e-12
-0.0003441964
0.00017290882
-2.3997531e-12
-0.00036594074
0.00015312271
-1.9394719e-12
-0.00038529505
0.00013002388
-1.4694342e-12
-0.00040188001
0.00010375049
-1.0112774e-12
-0.00041530644
7.4521616e-05
-5.3524952e-13
-0.00042518077
4.2657228e-05
3.6332921e-14
-0.00043111397
8.5956338e-06
7.5484227e-13
-0.00043273622
-2.7092754e-05
1.4114337e-12
-0.00042971416
-6.3693987e-05
2.0258547e-12
-0.00042177617
-0.0001003475
2.4959174e-12
-0.00040874172
-0.00013604984
2.859223e-12
-0.00039055539
-0.00016967038
3.2416025e-12
-0.0003673235
-0.00019998202
3.6752071e-12
-0.0003393498
-0.00022570983
4.0088347e-12
-0.00030716536
-0.00024559994
4.0553624e-12
-0.00027154682
-0.00025850809
3.8368382e-12
-0.00023351601
-0.00026350443
3.5955179e-12
-0.00019431499
-0.00025998603
3.5242047e-12
-0.00015535291
-0.00024778396
3.5797756e-12
-0.00011812526
-0.00022724821
3.4551686e-12
-8.4111828e-05
-0.00019929291
2.7423671e-12
-5.4665482e-05
-0.00016538921
3.082664e-12
-3.0907343e-05
-0.00012750102
8.1978623e-12
-1.3644698e-05
-8.7963703e-05
3.8375509e-12
-3.3229915e-06
-4.9326146e-05
-2.5833922e-11
-1.4285544e-05
2.8580172e-11
-4.3334537e-06
3.0368848e-05
-3.5851926e-11
-1.5627794e-05
8.2934095e-05
3.5958015e-11
-3.2417911e-05
0.00012724239
-3.3169611e-12
-5.3460308e-05
0.00016363296
-1.0073914e-11
-7.771246e-05
0.00019267659
-4.2140736e-12
-0.000104311
0.00021503589
-3.7948761e-12
-0.00013254491
0.00023138016
-4.4536002e-12
-0.00016182693
0.00024232511
-4.4617096e-12
-0.00019166588
0.00024839386
-4.3250781e-12
-0.00022164124
0.00024999817
-4.1816026e-12
-0.00025138097
0.00024743632
-3.9887175e-12
-0.00028054264
0.00024090413
-3.7588298e-12
-0.00030879822
0.00023051511
-3.5132723e-12
-0.00033582178
0.00021632634
-3.2381141e-12
-0.00036128018
0.00019836722
-2.8959733e-12
-0.00038482595
0.00017666849
-2.4654146e-12
-0.00040609256
0.00015129049
-1.966753e-12
-0.00042469178
0.00012234972
-1.449529e-12
-0.00044021385
9.0043684e-05
-9.4578342e-13
-0.00045223065
5.4674027e-05
-4.2486975e-13
-0.00046030304
1.6668014e-05
1.8784387e-13
-0.00046399358
-2.3402219e-05
8.8058952e-13
-0.00046288449
-6.4803076e-05
1.6448804e-12
-0.0004566034
-0.00010662857
2.3369923e-12
-0.00044485608
-0.00014779716
2.8502644e-12
-0.00042746613
-0.00018706035
3.2220828e-12
-0.00040442022
-0.00022302793
3.5789724e-12
-0.00037591561
-0.00025421445
3.9576575e-12
-0.00034240457
-0.00027911097
4.2149963e-12
-0.00030462861
-0.00029628404
4.1808764e-12
-0.00026363337
-0.00030449968
3.8923049e-12
-0.00022075513
-0.00030286429
3.6016072e-12
-0.00017757164
-0.00029096747
3.5192432e-12
-0.00013581501
-0.00026900483
3.4116086e-12
-9.725193e-05
-0.00023785599
2.6534225e-12
-6.3544838e-05
-0.0001990963
3.0528012e-12
-3.6114692e-05
-0.00015493118
9.064841e-12
-1.602856e-05
-0.00010804984
3.9129093e-12
-3.9298362e-06
-6.1424836e-05
-3.1130958e-11
-1.8215412e-05
3.32483e-11
-4.4872236e-06
3.4856109e-05
-3.7165034e-11
-1.6177324e-05
9.4624159e-05
3.725152e-11
-3.3549901e-05
0.00014461497
-3.4721047e-12
-5.5314557e-05
0.00018539763
-1.0508896e-11
-8.039037e-05
0.00021775241
-4.4658325e-12
-0.0001078848
0.00024253033
-4.0440587e-12
-0.00013706725
0.00026056262
-4.7351221e-12
-0.00016734027
0.00027259814
-4.761674e-12
-0.0001982112
0.00027926479
-4.6546953e-12
-0.00022926561
0.00028105259
-4.5535753e-12
-0.00026014368
0.00027831439
-4.3941612e-12
-0.00029051967
0.00027128013
-4.1697982e-12
-0.00032008483
0.00026008027
-3.9123597e-12
-0.00034853318
0.0002447747
-3.6435756e-12
-0.00037554993
0.00022538398
-3.3490289e-12
-0.00040080219
0.00020192074
-2.9881895e-12
-0.0004239316
0.0001744199
-2.5312606e-12
-0.0004445493
0.00014296742
-1.9905889e-12
-0.00046223322
0.0001077276
-1.4156491e-12
-0.00047652862
6.896944e-05
-8.472672e-13
-0.00048695288
2.7092268e-05
-2.7242973e-13
-0.00049300564
-1.7349461e-05
3.6093482e-13
-0.00049418564
-6.3623085e-05
1.1138098e-12
-0.00049001583
-0.00011079839
1.9362305e-12
-0.00048007774
-0.00015773523
2.680893e-12
-0.00046405566
-0.00020308243
3.2286817e-12
-0.00044178975
-0.00024529385
3.6015887e-12
-0.00041333575
-0.00028266846
3.9148452e-12
-0.00037902596
-0.00031342077
4.2005169e-12
-0.00033952333
-0.00033578667
4.329245e-12
-0.00029585751
-0.0003481655
4.1690181e-12
-0.00024942979
-0.00034929201
3.8144361e-12
-0.00020197497
-0.0003384223
3.5502136e-12
-0.00015547284
-0.00031550697
3.2993651e-12
-0.00011201159
-0.00028131724
2.4089682e-12
-7.3617494e-05
-0.00023749039
2.9471296e-12
-4.2077002e-05
-0.00018647168
1.010558e-11
-1.8784003e-05
-0.00013134284
4.0598018e-12
-4.640011e-06
-7.5568791e-05
-3.7272494e-11
-2.2855461e-05
3.8703637e-11
-4.590284e-06
3.9446431e-05
-3.8128432e-11
-1.655269e-05
0.00010658653
3.8055243e-11
-3.4333351e-05
0.00016239563
-3.6523396e-12
-5.661089e-05
0.00020767518
-1.0885891e-11
-8.2277189e-05
0.00024341871
-4.7367812e-12
-0.00011041819
0.00027067134
-4.3308895e-12
-0.00014028892
0.00029043336
-5.0501048e-12
-0.00017128552
0.00030359474
-5.0823382e-12
-0.00020291689
0.00031089617
-4.9822722e-12
-0.00023477769
0.00031291339
-4.9074105e-12
-0.00026652359
0.00031006029
-4.7918447e-12
-0.00029784946
0.00030260601
-4.6029016e-12
-0.00032847061
0.00029070143
-4.3480975e-12
-0.00035810672
0.00027441082
-4.0581483e-12
-0.00038646825
0.00025374552
-3.7567391e-12
-0.00041324486
0.00022869735
-3.4332146e-12
-0.00043809568
0.00019927073
-3.0464298e-12
-0.00046064153
0.00016551327
-2.5578307e-12
-0.00048045932
0.0001275454
-1.9685626e-12
-0.00049707946
8.5589584e-05
-1.3252385e-12
-0.00050998719
4.0000006e-05
-6.8279218e-13
-0.00051862938
-8.7072703e-06
-4.7051377e-14
-0.00052242834
-5.9824133e-05
6.3846964e-13
-0.00052080463
-0.00011242211
1.4363369e-12
-0.0005132109
-0.00016532897
2.2984134e-12
-0.00049917822
-0.0002171151
3.0733743e-12
-0.00047837549
-0.00026609658
3.6320472e-12
-0.00045068059
-0.00031036337
3.9812023e-12
-0.00041625891
-0.00034784246
4.2149112e-12
-0.00037564086
-0.00037640472
4.3520185e-12
-0.00032978532
-0.00039402104
4.2901089e-12
-0.0002801119
-0.00039896543
3.9963971e-12
-0.00022848372
-0.00039005048
3.6611416e-12
-0.00017712616
-0.00036686454
3.2282351e-12
-0.00012847766
-0.00032996575
2.0705791e-12
-8.4985584e-05
-0.00028098247
2.718297e-12
-4.8878639e-05
-0.00022257864
1.1268013e-11
-2.1960824e-05
-0.00015826066
4.2582877e-12
-5.4696778e-06
-9.2059893e-05
-4.4372075e-11
-2.8325183e-05
4.5083173e-11
-4.6407203e-06
4.4087189e-05
-3.8714454e-11
-1.674799e-05
0.00011869376
3.8353591e-11
-3.4756315e-05
0.00018040396
-3.8653731e-12
-5.7328467e-05
0.00023024734
-1.1199765e-11
-8.333927e-05
0.00026942952
-5.0089624e-12
-0.00011185972
0.00029919179
-4.6338461e-12
-0.00014213476
0.0003207084
-5.3884576e-12
-0.00017355703
0.00033501702
-5.4333077e-12
-0.00020563945
0.00034297859
-5.3288606e-12
-0.00023798811
0.00034526206
-5.2491249e-12
-0.00027027702
0.0003423492
-5.1510028e-12
-0.0003022252
0.0003345542
-5.0024855e-12
-0.00033357654
0.00032205276
-4.7816766e-12
-0.00036408207
0.00030491636
-4.490583e-12
-0.0003934846
0.00028314805
-4.1578031e-12
-0.00042150501
0.00025671777
-3.809951e-12
-0.00044783033
0.00022559604
-3.4427167e-12
-0.00047210323
0.00018978618
-3.0169334e-12
-0.00049391354
0.00014935571
-2.4863371e-12
-0.00051279208
0.00010446813
-1.8398021e-12
-0.00052820808
5.5416009e-05
-1.121501e-12
-0.0005395714
2.6560517e-06
-3.9473343e-13
-0.00054624183
-5.3153695e-05
3.0292945e-13
-0.00054754741
-0.00011111653
1.0442933e-12
-0.00054281501
-0.00017006138
1.8802434e-12
-0.00053141581
-0.0002285143
2.7589353e-12
-0.00051282804
-0.00028468434
3.5279831e-12
-0.00048671737
-0.00033647404
4.0558657e-12
-0.00045303246
-0.00038152738
4.333672e-12
-0.00041210824
-0.00041732896
4.423584e-12
-0.00036476275
-0.00044136654
4.3353513e-12
-0.00031236681
-0.00045136137
4.0648223e-12
-0.0002568608
-0.00044555649
3.7322009e-12
-0.0002006938
-0.00042303154
3.1744697e-12
-0.00014667113
-0.00038398842
1.6896208e-12
-9.7717407e-05
-0.0003299362
2.3955852e-12
-5.6590332e-05
-0.00026370572
1.254699e-11
-2.5605326e-05
-0.00018924567
4.4733361e-12
-6.4348938e-06