/*--------------------------------*- C++ -*----------------------------------*\
  =========                 |
  \\      /  F ield         | OpenFOAM: The Open Source CFD Toolbox
   \\    /   O peration     | Website:  https://openfoam.org
    \\  /    A nd           | Version:  7
     \\/     M anipulation  |
\*---------------------------------------------------------------------------*/
FoamFile
{
    version     2.0;
    format      ascii;
    class       surfaceScalarField;
    location    "43";
    object      phi_0;
}
// * * * * * * * * * * * * * * * * * * * * * * * * * * * * * * * * * * * * * //

dimensions      [0 3 -1 0 0 0 0];

internalField   nonuniform List<scalar> 
45600
(
2.7517544e-07
-2.8223379e-07
-7.9216743e-11
4.0333811e-07
-1.2813756e-07
-2.49215e-11
1.3256477e-07
2.7078034e-07
-6.7457798e-12
-5.6230459e-07
6.9487104e-07
-1.5174328e-12
-1.6393074e-06
1.0769993e-06
3.584188e-12
-3.0276192e-06
1.3883048e-06
7.0664635e-12
-4.6524631e-06
1.6248346e-06
9.3616528e-12
-6.4450968e-06
1.7926227e-06
1.0973007e-11
-8.3454246e-06
1.9003155e-06
1.2100766e-11
-1.0301445e-05
1.9560072e-06
1.2841805e-11
-1.2267404e-05
1.9659465e-06
1.3260252e-11
-1.4201584e-05
1.9341664e-06
1.3388416e-11
-1.6064241e-05
1.8626445e-06
1.3234516e-11
-1.7816029e-05
1.7517758e-06
1.2794826e-11
-1.9417056e-05
1.6010153e-06
1.206108e-11
-2.082666e-05
1.4095937e-06
1.1026393e-11
-2.2003909e-05
1.1772398e-06
9.6890636e-12
-2.2908771e-05
9.0485405e-07
8.0474923e-12
-2.3503869e-05
5.9509295e-07
6.099323e-12
-2.3756702e-05
2.5282937e-07
3.8458281e-12
-2.3642142e-05
-1.1456186e-07
1.3277976e-12
-2.3145012e-05
-4.9712907e-07
-1.3645259e-12
-2.2262579e-05
-8.8242888e-07
-4.1096595e-12
-2.1006622e-05
-1.2559496e-06
-6.7837236e-12
-1.9404867e-05
-1.6017449e-06
-9.2979151e-12
-1.7501559e-05
-1.9032964e-06
-1.1580417e-11
-1.5356973e-05
-2.1445734e-06
-1.3521537e-11
-1.3045758e-05
-2.3112014e-06
-1.4929307e-11
-1.06541e-05
-2.3916424e-06
-1.5586593e-11
-8.2758122e-06
-2.37827e-06
-1.5389368e-11
-6.0075637e-06
-2.2682322e-06
-1.4434836e-11
-3.943532e-06
-2.0640196e-06
-1.2918768e-11
-2.1697884e-06
-1.7737359e-06
-1.0892404e-11
-7.58541e-07
-1.4112413e-06
-8.1647969e-12
2.3821487e-07
-9.9674888e-07
-4.7207286e-12
7.9655222e-07
-5.5833024e-07
-1.36223e-12
9.2927483e-07
-1.3272306e-07
2.0057034e-12
7.0557369e-07
2.2369185e-07
5.4172823e-12
2.9045866e-07
4.150987e-07
8.8635263e-12
2.9045312e-07
2.2097047e-12
1.3289302e-07
-4.1510434e-07
-2.2323457e-11
-3.0167693e-07
3.0644693e-07
-1.4131804e-11
-1.6153943e-06
1.5845105e-06
-1.2351024e-11
-3.8747018e-06
2.9541919e-06
-1.3121076e-11
-7.0073375e-06
4.2096493e-06
-1.4296699e-11
-1.0879748e-05
5.2607314e-06
-1.5836863e-11
-1.5335163e-05
6.0802665e-06
-1.7257663e-11
-2.0216002e-05
6.6734801e-06
-1.8277332e-11
-2.5374062e-05
7.058394e-06
-1.8856698e-11
-3.0673275e-05
7.2552401e-06
-1.9009163e-11
-3.5988543e-05
7.2812336e-06
-1.8746212e-11
-4.1202831e-05
7.1484733e-06
-1.8079564e-11
-4.6203975e-05
6.8638058e-06
-1.7022094e-11
-5.0882102e-05
6.4299205e-06
-1.5585959e-11
-5.5128234e-05
5.8471621e-06
-1.3784412e-11
-5.8834321e-05
5.1156932e-06
-1.1631845e-11
-6.1894805e-05
4.2377336e-06
-9.1369538e-12
-6.4209611e-05
3.2196667e-06
-6.3105366e-12
-6.5688361e-05
2.0738457e-06
-3.1683169e-12
-6.6255471e-05
8.1993914e-07
2.1612087e-13
-6.5855985e-05
-5.140504e-07
3.7274046e-12
-6.446081e-05
-1.8923107e-06
7.2847347e-12
-6.2072479e-05
-3.270771e-06
1.0742609e-11
-5.8729091e-05
-4.5993529e-06
1.4034523e-11
-5.4507078e-05
-5.8237755e-06
1.709103e-11
-4.9521906e-05
-6.8884871e-06
1.9767834e-11
-4.3926397e-05
-7.7401027e-06
2.1837525e-11
-3.7906449e-05
-8.3311708e-06
2.3094624e-11
-3.1674143e-05
-8.6239738e-06
2.3499709e-11
-2.54584e-05
-8.5940381e-06
2.3198954e-11
-1.9493611e-05
-8.2330442e-06
2.233594e-11
-1.4006719e-05
-7.5509304e-06
2.082939e-11
-9.2032874e-06
-6.5771815e-06
1.843036e-11
-5.2529022e-06
-5.3616409e-06
1.512602e-11
-2.2739855e-06
-3.9756809e-06
1.1442022e-11
-3.172802e-07
-2.5150475e-06
8.0072015e-12
6.5705008e-07
-1.1070533e-06
4.7009261e-12
8.0367002e-07
7.7080553e-08
3.5422629e-12
4.1784726e-07
8.0093126e-07
4.481502e-12
7.0830123e-07
-3.0228043e-12
-2.7358151e-07
-1.415102e-07
-1.246594e-11
-1.6274758e-06
1.660349e-06
-7.2369765e-12
-4.2893959e-06
4.2464397e-06
-8.5617927e-12
-8.2746694e-06
6.939473e-06
-7.1458591e-12
-1.3474411e-05
9.4093961e-06
-5.1702311e-12
-1.9708716e-05
1.1495041e-05
-4.0961767e-12
-2.6765747e-05
1.3137301e-05
-3.4036827e-12
-3.4426614e-05
1.433435e-05
-2.8243738e-12
-4.247863e-05
1.5110412e-05
-2.3363302e-12
-5.072045e-05
1.5497063e-05
-1.9137013e-12
-5.8962296e-05
1.5523081e-05
-1.5223863e-12
-6.7023691e-05
1.5209871e-05
-1.1374056e-12
-7.4730533e-05
1.4570649e-05
-7.4262654e-13
-8.1912721e-05
1.3612109e-05
-3.2803731e-13
-8.8403149e-05
1.2337591e-05
1.053074e-13
-9.4038478e-05
1.0751022e-05
5.4041857e-13
-9.8661798e-05
8.8610533e-06
9.5082817e-13
-0.0001021271
6.6849653e-06
1.3162387e-12
-0.00010430523
4.2519755e-06
1.6450329e-12
-0.00010509101
1.6057145e-06
1.9573834e-12
-0.00010441064
-1.1944153e-06
2.2617453e-12
-0.00010222946
-4.0734973e-06
2.5138774e-12
-9.8558522e-05
-6.9417101e-06
2.6501493e-12
-9.3460006e-05
-9.6978711e-06
2.6564226e-12
-8.7050397e-05
-1.2233388e-05
2.6025368e-12
-7.9501001e-05
-1.4437885e-05
2.59829e-12
-7.1035284e-05
-1.6205822e-05
2.6808751e-12
-6.1922727e-05
-1.744373e-05
2.7479659e-12
-5.2469148e-05
-1.8077554e-05
2.6503059e-12
-4.300368e-05
-1.8059509e-05
2.3967487e-12
-3.3862825e-05
-1.7373902e-05
2.2326872e-12
-2.5372231e-05
-1.6041527e-05
2.415707e-12
-1.7826887e-05
-1.4122527e-05
2.8714275e-12
-1.1470407e-05
-1.1718122e-05
3.1797035e-12
-6.4738642e-06
-8.9722254e-06
3.0615682e-12
-2.9140459e-06
-6.0748696e-06
2.7294274e-12
-7.5123146e-07
-3.2698725e-06
2.5781274e-12
1.9434611e-07
-8.6850304e-07
3.5967168e-12
2.6549605e-07
7.2978206e-07
5.7456304e-12
9.7379434e-07
8.914494e-13
-7.458456e-07
6.0434845e-07
-1.2747888e-11
-3.1796335e-06
4.094139e-06
-1.3021858e-12
-7.3461031e-06
8.4129167e-06
-6.7609777e-12
-1.3163057e-05
1.2756434e-05
-6.1155532e-12
-2.0455822e-05
1.6702165e-05
-3.4845921e-12
-2.8992642e-05
2.0031862e-05
-2.1421249e-12
-3.8513886e-05
2.2658546e-05
-1.2643975e-12
-4.8752687e-05
2.4573152e-05
-4.8338768e-13
-5.9446994e-05
2.5804719e-05
1.6168058e-13
-7.0344847e-05
2.6394915e-05
6.8335463e-13
-8.1205141e-05
2.6383375e-05
1.1142087e-12
-9.1795994e-05
2.5800723e-05
1.4719682e-12
-0.00010189243
2.4667079e-05
1.7665642e-12
-0.00011127464
2.2994326e-05
2.0079194e-12
-0.00011972779
2.0790741e-05
2.2076163e-12
-0.00012704362
1.8066847e-05
2.3697764e-12
-0.00013302417
1.4841601e-05
2.4758505e-12
-0.00013748743
1.114822e-05
2.4869589e-12
-0.00014027452
7.0390712e-06
2.375728e-12
-0.00014125806
2.5892508e-06
2.1627213e-12
-0.00014035078
-2.1016973e-06
1.9144028e-12
-0.00013751439
-6.9098884e-06
1.6390808e-12
-0.00013276703
-1.1689073e-05
1.3250999e-12
-0.00012618932
-1.6275588e-05
9.1332263e-13
-0.00011792789
-2.049481e-05
3.8161481e-13
-0.00010819592
-2.4169861e-05
-1.7286038e-13
-9.7269879e-05
-2.713186e-05
-5.6597902e-13
-8.5482416e-05
-2.9231191e-05
-6.8688983e-13
-7.3210952e-05
-3.0349017e-05
-6.343754e-13
-6.0862269e-05
-3.040819e-05
-6.2939377e-13
-4.8853455e-05
-2.9382716e-05
-7.2485823e-13
-3.7589906e-05
-2.7305076e-05
-6.3802627e-13
-2.7441318e-05
-2.4271117e-05
-7.9852227e-15
-1.8716694e-05
-2.0442745e-05
1.1037114e-12
-1.1639459e-05
-1.6049459e-05
2.1273954e-12
-6.3235735e-06
-1.1390755e-05
2.6175101e-12
-2.7515395e-06
-6.8419098e-06
2.9105844e-12
-7.5715729e-07
-2.8628902e-06
3.6175522e-12
-9.5249016e-09
-1.7850677e-08
4.5440073e-12
9.6426456e-07
3.8999984e-12
-1.2279675e-06
1.8323307e-06
-1.4297913e-11
-4.7881109e-06
7.6542789e-06
4.6616036e-12
-1.0521544e-05
1.4146357e-05
-5.9077296e-12
-1.8214336e-05
2.0449233e-05
-7.0142316e-12
-2.760394e-05
2.6091774e-05
-4.6246909e-12
-3.83963e-05
3.0824226e-05
-3.884362e-12
-5.0283059e-05
3.4545308e-05
-3.5405078e-12
-6.2954787e-05
3.7244883e-05
-3.086635e-12
-7.6109042e-05
3.8958976e-05
-2.6459524e-12
-8.9453779e-05
3.9739653e-05
-2.2367995e-12
-0.00010270748
3.9637076e-05
-1.8305026e-12
-0.00011559754
3.8690784e-05
-1.4185546e-12
-0.00012785835
3.6927893e-05
-1.0050399e-12
-0.0001392302
3.4366181e-05
-5.9613345e-13
-0.00014945975
3.1020291e-05
-1.9039965e-13
-0.00015830248
2.6909573e-05
2.2718192e-13
-0.00016552724
2.2066364e-05
6.679223e-13
-0.00017092275
1.6543727e-05
1.1131756e-12
-0.00017430559
1.0421916e-05
1.5131505e-12
-0.00017552936
3.8130114e-06
1.8252516e-12
-0.00017449413
-3.1369255e-06
2.057253e-12
-0.00017115589
-1.0248134e-05
2.2544329e-12
-0.00016553481
-1.7310158e-05
2.4696036e-12
-0.00015772191
-2.408849e-05
2.6805258e-12
-0.0001478832
-3.0333519e-05
2.7847195e-12
-0.0001362606
-3.5792461e-05
2.7012138e-12
-0.00012316897
-4.0223498e-05
2.4978512e-12
-0.00010898872
-4.3411437e-05
2.384639e-12
-9.4153805e-05
-4.5183936e-05
2.5140365e-12
-7.9134856e-05
-4.542714e-05
2.7719355e-12
-6.4418064e-05
-4.4099508e-05
2.8472367e-12
-5.0480368e-05
-4.1242775e-05
2.6101896e-12
-3.7762141e-05
-3.6989348e-05
2.3759951e-12
-2.6638826e-05
-3.1566065e-05
2.5831055e-12
-1.7393175e-05
-2.5295113e-05
3.1720857e-12
-1.0189918e-05
-1.8594013e-05
3.6947075e-12
-5.0547373e-06
-1.1977093e-05
4.1132623e-12
-1.8598346e-06
-6.0577968e-06
3.4628248e-12
-3.2223336e-07
-1.5554543e-06
4.5262954e-13
6.4202659e-07
6.0219441e-12
-1.6931693e-06
3.5255174e-06
-1.6817018e-11
-6.3714115e-06
1.2332513e-05
1.0058541e-11
-1.3671454e-05
2.1446406e-05
-4.953533e-12
-2.3234061e-05
3.0011847e-05
-7.1288164e-12
-3.4695244e-05
3.7552962e-05
-4.4115647e-12
-4.7689823e-05
4.3818809e-05
-3.8383964e-12
-6.1857525e-05
4.8713013e-05
-3.7072292e-12
-7.6848069e-05
5.2235431e-05
-3.3470917e-12
-9.2323872e-05
5.4434783e-05
-2.9616239e-12
-0.00010796027
5.5376059e-05
-2.5981188e-12
-0.00012344397
5.5120774e-05
-2.2235274e-12
-0.0001384707
5.3717513e-05
-1.823055e-12
-0.00015274323
5.1200427e-05
-1.3959065e-12
-0.00016597054
4.7593496e-05
-9.5387298e-13
-0.00017786874
4.2918493e-05
-5.153825e-13
-0.00018816405
3.7204887e-05
-8.6281271e-14
-0.00019659789
3.0500204e-05
3.5135403e-13
-0.00020293384
2.2879672e-05
8.1851733e-13
-0.00020696614
1.4454219e-05
1.302475e-12
-0.0002085293
5.3761639e-06
1.7464774e-12
-0.00020750812
-4.1581035e-06
2.086854e-12
-0.00020384768
-1.3908575e-05
2.316427e-12
-0.00019756247
-2.3595371e-05
2.4977653e-12
-0.00018874397
-3.2906994e-05
2.7151915e-12
-0.00017756589
-4.15116e-05
2.9687376e-12
-0.00016428626
-4.9072095e-05
3.135939e-12
-0.00014924551
-5.5264247e-05
3.0845382e-12
-0.0001328599
-5.9797047e-05
2.8572173e-12
-0.00011560968
-6.2434167e-05
2.7053714e-12
-9.8021762e-05
-6.3015058e-05
2.8515311e-12
-8.0647226e-05
-6.1474046e-05
3.1927931e-12
-6.4034177e-05
-5.7855826e-05
3.3478405e-12
-4.8697447e-05
-5.232608e-05
3.1251841e-12
-3.5086903e-05
-4.5176613e-05
2.8238199e-12
-2.3556676e-05
-3.6825345e-05
2.8570503e-12
-1.4337869e-05
-2.7812824e-05
3.4499426e-12
-7.517485e-06
-1.879748e-05
4.6982328e-12
-3.0267229e-06
-1.0548563e-05
3.7396928e-12
-6.4249204e-07
-3.9396846e-06
-1.9736162e-12
-4.7360993e-10
8.4295171e-12
-2.1329381e-06
5.6584758e-06
-1.9598057e-11
-7.8910776e-06
1.8090639e-05
1.4840103e-11
-1.6717407e-05
3.0272741e-05
-4.2131552e-12
-2.8105743e-05
4.1400192e-05
-7.1811735e-12
-4.1585092e-05
5.1032316e-05
-3.9719928e-12
-5.6714139e-05
5.894786e-05
-3.4484893e-12
-7.3078284e-05
6.5077161e-05
-3.4517977e-12
-9.0287095e-05
6.9444244e-05
-3.1343302e-12
-0.00010797133
7.2119021e-05
-2.7642146e-12
-0.00012577927
7.3184007e-05
-2.4193382e-12
-0.00014337275
7.2714249e-05
-2.0714866e-12
-0.00016042342
7.076819e-05
-1.7060896e-12
-0.00017661019
6.7387199e-05
-1.3124556e-12
-0.00019161814
6.2601447e-05
-8.8584344e-13
-0.00020513951
5.6439868e-05
-4.4199107e-13
-0.00021687684
4.8942213e-05
-1.191334e-14
-0.00022654815
4.0171511e-05
3.8923092e-13
-0.00023389407
3.0225593e-05
7.8111575e-13
-0.0002386865
1.9246652e-05
1.1965759e-12
-0.00024073842
7.4280808e-06
1.6342888e-12
-0.00023991437
-4.9821597e-06
2.0339029e-12
-0.00023614102
-1.768192e-05
2.3199215e-12
-0.00022941747
-3.0318923e-05
2.456607e-12
-0.00021982416
-4.2500309e-05
2.5198698e-12
-0.00020752992
-5.380584e-05
2.6369753e-12
-0.0001927961
-6.3805921e-05
2.8452508e-12
-0.0001759767
-7.2083646e-05
3.0116631e-12
-0.00015751364
-7.826011e-05
2.9503027e-12
-0.00013792613
-8.2021679e-05
2.6693206e-12
-0.00011779373
-8.314746e-05
2.4549435e-12
-9.7732956e-05
-8.1534822e-05
2.5969551e-12
-7.8368126e-05
-7.7220658e-05
3.0107006e-12
-6.0297863e-05
-7.0396345e-05
3.2739125e-12
-4.4059521e-05
-6.1414958e-05
3.1174058e-12
-3.0094428e-05
-5.0790442e-05
2.7640293e-12
-1.8717263e-05
-3.9189993e-05
3.0761181e-12
-1.009305e-05
-2.7421697e-05
4.9331754e-12
-4.2253092e-06
-1.6416307e-05
3.8839654e-12
-9.5848384e-07
-7.2065059e-06
-4.5943668e-12
-9.5896823e-07
1.0423452e-11
-2.5450549e-06
8.2035541e-06
-2.2378604e-11
-9.3288468e-06
2.4874413e-05
1.9109936e-11
-1.9615364e-05
4.0559263e-05
-3.7410365e-12
-3.275685e-05
5.4541686e-05
-7.4430574e-12
-4.8175888e-05
6.6451358e-05
-3.7615987e-12
-6.5354094e-05
7.6126068e-05
-3.2915638e-12
-8.3822144e-05
8.3545215e-05
-3.4495665e-12
-0.00010315063
8.8772732e-05
-3.2068696e-12
-0.00012294163
9.1910022e-05
-2.8753783e-12
-0.00014282096
9.3063344e-05
-2.5531748e-12
-0.00016243135
9.232464e-05
-2.2192814e-12
-0.00018142688
8.9763726e-05
-1.8722172e-12
-0.00019946925
8.5429571e-05
-1.5088922e-12
-0.00021622605
7.9358244e-05
-1.1117088e-12
-0.00023137131
7.1585128e-05
-6.6921947e-13
-0.00024458832
6.2159233e-05
-2.0071344e-13
-0.0002555746
5.1157785e-05
2.5130948e-13
-0.00026404868
3.8699674e-05
6.6032597e-13
-0.00026975868
2.4956652e-05
1.0438319e-12
-0.0002724921
1.0161499e-05
1.4447041e-12
-0.00027208669
-5.3875774e-06
1.876002e-12
-0.00026844173
-2.1326881e-05
2.2957992e-12
-0.00026152975
-3.7230899e-05
2.5877018e-12
-0.00025140739
-5.2622667e-05
2.6947192e-12
-0.00023822498
-6.6988254e-05
2.6940075e-12
-0.00022223364
-7.9797267e-05
2.752539e-12
-0.00020378864
-9.0528652e-05
2.9523755e-12
-0.00018334762
-9.8701126e-05
3.1583839e-12
-0.00016146241
-0.00010390689
3.1325164e-12
-0.00013876327
-0.0001058466
2.8420636e-12
-0.00011593535
-0.00010436275
2.5930053e-12
-9.3687549e-05
-9.9468462e-05
2.7237807e-12
-7.2715435e-05
-9.1368462e-05
3.1610908e-12
-5.3660745e-05
-8.046965e-05
3.3973663e-12
-3.7071083e-05
-6.7380107e-05
3.0733888e-12
-2.3363946e-05
-5.2897134e-05
3.1028934e-12
-1.2799316e-05
-3.7986333e-05
5.1880759e-12
-5.4648788e-06
-2.3750748e-05
3.767711e-12
-1.2772555e-06
-1.1394121e-05
-7.4488351e-12
-2.2362376e-06
1.2937027e-11
-2.9284819e-06
1.1132062e-05
-2.5079668e-11
-1.0673672e-05
3.2619581e-05
2.2950009e-11
-2.2336174e-05
5.222177e-05
-3.4349025e-12
-3.7135975e-05
6.9341496e-05
-7.8134542e-12
-5.439411e-05
8.3709497e-05
-3.6766449e-12
-7.3517628e-05
9.524959e-05
-3.2293772e-12
-9.3984301e-05
0.00010401189
-3.5143442e-12
-0.00011532796
0.00011011639
-3.3439207e-12
-0.00013712518
0.00011370724
-3.0639913e-12
-0.00015898353
0.0001149217
-2.7781088e-12
-0.00018053178
0.00011387289
-2.4591317e-12
-0.00020141215
0.0001106441
-2.112633e-12
-0.00022127503
0.00010529246
-1.7556888e-12
-0.00023977618
9.7859397e-05
-1.385425e-12
-0.00025657638
8.8385325e-05
-9.7702682e-13
-0.00027134346
7.6926319e-05
-5.1146288e-13
-0.00028375659
6.3570911e-05
-8.36115e-15
-0.00029351244
4.845552e-05
4.8083059e-13
-0.00030033323
3.1777441e-05
9.1499465e-13
-0.00030397636
1.3804637e-05
1.2991222e-12
-0.00030424558
-5.118365e-06
1.6804047e-12
-0.00030100298
-2.4569483e-05
2.1263743e-12
-0.00029418252
-4.4051358e-05
2.5695753e-12
-0.00028380325
-6.3001935e-05
2.88687e-12
-0.00026998221
-8.0809297e-05
2.9867426e-12
-0.00025294549
-9.6833987e-05
2.9344509e-12
-0.000233036
-0.00011043815
2.9320659e-12
-0.00021071601
-0.00012102112
3.1095598e-12
-0.00018656267
-0.00012806023
3.3387197e-12
-0.00016125483
-0.00013115444
3.3422298e-12
-0.00013554998
-0.0001300676
3.0576305e-12
-0.00011025148
-0.00012476696
2.8099653e-12
-8.6167388e-05
-0.00011545256
2.9570221e-12
-6.4063736e-05
-0.00010257331
3.3108854e-12
-4.461667e-05
-8.6827176e-05
3.2298856e-12
-2.836853e-05
-6.9145278e-05
3.3177711e-12
-1.5693154e-05
-5.0661717e-05
5.6597904e-12
-6.7752221e-06
-3.2668684e-05
3.636749e-12
-1.6070343e-06
-1.6562299e-05
-1.0511015e-11
-3.8432877e-06
1.5512075e-11
-3.2816995e-06
1.441379e-05
-2.7658893e-11
-1.1915869e-05
4.1253726e-05
2.6388362e-11
-2.4855511e-05
6.5161415e-05
-3.2374936e-12
-4.1199918e-05
8.5685912e-05
-8.2320657e-12
-6.0176309e-05
0.00010268589
-3.669406e-12
-8.1122249e-05
0.00011619553
-3.227557e-12
-0.0001034663
0.00012635595
-3.6036908e-12
-0.00012670888
0.00013335898
-3.48027e-12
-0.00015040465
0.00013740301
-3.2443942e-12
-0.00017414714
0.0001386642
-3.0052449e-12
-0.00019755594
0.0001372817
-2.7208353e-12
-0.00022026669
0.00013335484
-2.3843472e-12
-0.00024192389
0.00012694966
-2.01737e-12
-0.00026217668
0.00011811219
-1.6432774e-12
-0.00028067717
0.00010688582
-1.2611758e-12
-0.00029708131
9.3330453e-05
-8.4045793e-13
-0.00031105196
7.7541566e-05
-3.5345461e-13
-0.00032226415
5.9667707e-05
1.8618478e-13
-0.00033041221
3.9925501e-05
7.2026311e-13
-0.00033521898
1.8611407e-05
1.1772394e-12
-0.00033644714
-3.8902087e-06
1.5349312e-12
-0.00033391174
-2.7104882e-05
1.9357035e-12
-0.00032749597
-5.0467128e-05
2.375041e-12
-0.00031716688
-7.3331025e-05
2.8349719e-12
-0.0003029923
-9.4983879e-05
3.1811655e-12
-0.00028515683
-0.00011466946
3.2817208e-12
-0.00026397518
-0.0001316198
3.1842822e-12
-0.00023990062
-0.00014509569
3.1172776e-12
-0.00021352583
-0.00015443502
3.2512468e-12
-0.00018557378
-0.0001591065
3.4667423e-12
-0.00015687658
-0.00015876481
3.4681843e-12
-0.00012834163
-0.00015330191
3.202314e-12
-0.00010090607
-0.00014288813
3.0176792e-12
-7.5482477e-05
-0.0001279969
3.1183937e-12
-5.2901149e-05
-0.00010940851
3.0778045e-12
-3.3855115e-05
-8.8191314e-05
3.4136826e-12
-1.8854785e-05
-6.5662053e-05
6.2891731e-12
-8.1982641e-06
-4.3325209e-05
3.6335357e-12
-1.9611633e-06
-2.2799386e-05
-1.3787983e-11
-5.8044688e-06
1.8175872e-11
-3.6023026e-06
1.8016124e-05
-3.0075285e-11
-1.3044871e-05
5.0696267e-05
2.9417102e-11
-2.7149288e-05
7.9265836e-05
-3.1346292e-12
-4.4907168e-05
0.0001034438
-8.6775036e-12
-6.5461504e-05
0.00012324023
-3.7324877e-12
-8.8087232e-05
0.00013882126
-3.2996791e-12
-0.0001121688
0.00015043753
-3.7528196e-12
-0.00013717742
0.0001583676
-3.6570524e-12
-0.00016264988
0.00016287548
-3.445356e-12
-0.00018816993
0.00016418425
-3.2432953e-12
-0.00021335264
0.00016246441
-3.0047968e-12
-0.00023783203
0.00015783423
-2.7066292e-12
-0.00026125191
0.00015036955
-2.3491284e-12
-0.00028325983
0.00014012012
-1.9557345e-12
-0.00030350382
0.00012712981
-1.5573275e-12
-0.00032163166
0.00011145829
-1.1578176e-12
-0.00033729244
9.320235e-05
-7.2297537e-13
-0.00035014038
7.2515644e-05
-2.1400522e-13
-0.00035984079
4.9625909e-05
3.6485371e-13
-0.00036607843
2.4849043e-05
9.3338623e-13
-0.00036856897
-1.39967e-06
1.3721037e-12
-0.00036707134
-2.8602505e-05
1.8368227e-12
-0.00036140637
-5.6132105e-05
2.2166072e-12
-0.00035147458
-8.3262818e-05
2.6356574e-12
-0.00033727782
-0.00010918064
3.1040737e-12
-0.0003189409
-0.00013300638
3.471508e-12
-0.00029673174
-0.00015382896
3.5733084e-12
-0.00027107727
-0.00017075017
3.439325e-12
-0.00024257163
-0.00018294066
3.3135861e-12
-0.00021197328
-0.00018970485
3.3889884e-12
-0.0001801876
-0.00019055049
3.5504442e-12
-0.00014823332
-0.00018525619
3.5271782e-12
-0.00011719276
-0.00017392869
3.3221135e-12
-8.8148953e-05
-0.00015704071
3.1367617e-12
-6.2115385e-05
-0.00013544208
2.8464896e-12
-3.9966491e-05
-0.00011034021
3.3097775e-12
-2.2377611e-05
-8.325094e-05
6.9160757e-12
-9.7826904e-06
-5.5920134e-05
3.7173579e-12
-2.3546959e-06
-3.0227364e-05
-1.7327544e-11
-8.1591854e-06
2.114378e-11
-3.88705e-06
2.1903207e-05
-3.2277447e-11
-1.4048659e-05
6.0857845e-05
3.2024599e-11
-2.9192052e-05
9.4409233e-05
-3.1234351e-12
-4.8215263e-05
0.00012246702
-9.137112e-12
-7.018784e-05
0.00014521281
-3.8459174e-12
-9.4330059e-05
0.00016296349
-3.4273296e-12
-0.00011998821
0.00017609568
-3.9592418e-12
-0.00014660908
0.00018498847
-3.8921464e-12
-0.00017371588
0.00018998228
-3.6943981e-12
-0.00020088685
0.00019135523
-3.5088272e-12
-0.00022773708
0.00018931464
-3.3003644e-12
-0.0002539038
0.00018400096
-3.0499295e-12
-0.00027903519
0.00017550094
-2.7379895e-12
-0.00030278231
0.00016386724
-2.3569601e-12
-0.00032479396
0.00014914146
-1.9320052e-12
-0.00034471404
0.00013137837
-1.501716e-12
-0.00036218125
0.00011066957
-1.0769986e-12
-0.00037683113
8.7165523e-05
-6.2436704e-13
-0.00038830041
6.109519e-05
-9.4259262e-14
-0.00039623427
3.2782898e-05
5.3519706e-13
-0.00040029638
2.6624382e-06
1.2207293e-12
-0.00040018388
-2.871501e-05
1.7424724e-12
-0.00039564405
-6.0671929e-05
2.1633192e-12
-0.00038649736
-9.2409515e-05
2.5222379e-12
-0.00037266262
-0.00012301537
2.9240781e-12
-0.00035418497
-0.00015148404
3.3852981e-12
-0.00033126379
-0.00017675013
3.7525206e-12
-0.00030427783
-0.00019773613
3.8410213e-12
-0.00027380299
-0.0002134155
3.6705782e-12
-0.0002406183
-0.00022288954
3.4898765e-12
-0.00020569519
-0.0002254736
3.4908059e-12
-0.00017016638
-0.000220785
3.5789072e-12
-0.00013527317
-0.0002088219
3.5600738e-12
-0.00010229332
-0.00019002057
3.3288138e-12
-7.2455934e-05
-0.00016527947
2.7489387e-12
-4.6853294e-05
-0.00013594285
3.155831e-12
-2.6361364e-05
-0.00010374288
7.5149807e-12
-1.1580442e-05
-7.0701059e-05
3.7922803e-12
-2.8033145e-06
-3.9004469e-05
-2.1279974e-11
-1.0962524e-05
2.4577505e-11
-4.1321165e-06
2.6035358e-05
-3.4214769e-11
-1.4914096e-05
7.1639791e-05
3.4207453e-11
-3.095713e-05
0.00011045227
-3.1927104e-12
-5.1080653e-05
0.00014259055
-9.6070636e-12
-7.4292272e-05
0.00016842444
-4.0048321e-12
-9.9766124e-05
0.00018843734
-3.5917817e-12
-0.00012681669
0.00020314625
-4.1973816e-12
-0.0001548713
0.00021304309
-4.1691558e-12
-0.00018344394
0.00021855492
-3.9955379e-12
-0.0002121115
0.00022002279
-3.8221932e-12
-0.00024049344
0.00021769659
-3.6205667e-12
-0.00026823493
0.00021174245
-3.393414e-12
-0.00029499352
0.00020225953
-3.1318766e-12
-0.00032042905
0.00018930278
-2.8054631e-12
-0.0003441964
0.00017290882
-2.3997531e-12
-0.00036594074
0.00015312271
-1.9394719e-12
-0.00038529505
0.00013002388
-1.4694342e-12
-0.00040188001
0.00010375049
-1.0112774e-12
-0.00041530644
7.4521619e-05
-5.3524952e-13
-0.00042518077
4.2657229e-05
3.6332921e-14
-0.00043111396
8.5956313e-06
7.5484227e-13
-0.00043273622
-2.7092758e-05
1.4114337e-12
-0.00042971416
-6.3693989e-05
2.0258547e-12
-0.00042177618
-0.0001003475
2.4959174e-12
-0.00040874172
-0.00013604983
2.859223e-12
-0.00039055538
-0.00016967038
3.2416025e-12
-0.0003673235
-0.00019998202
3.6752071e-12
-0.0003393498
-0.00022570984
4.0088347e-12
-0.00030716536
-0.00024559994
4.0553624e-12
-0.00027154683
-0.00025850808
3.8368382e-12
-0.00023351601
-0.00026350443
3.5955179e-12
-0.00019431498
-0.00025998603
3.5242047e-12
-0.00015535291
-0.00024778397
3.5797756e-12
-0.00011812527
-0.00022724821
3.4551686e-12
-8.411183e-05
-0.00019929291
2.7423671e-12
-5.4665481e-05
-0.00016538921
3.082664e-12
-3.0907341e-05
-0.00012750102
8.1978623e-12
-1.3644698e-05
-8.7963705e-05
3.8375509e-12
-3.3229922e-06
-4.9326147e-05
-2.5833922e-11
-1.4285544e-05
2.8580172e-11
-4.3334539e-06
3.0368848e-05
-3.5851926e-11
-1.5627794e-05
8.2934096e-05
3.5958015e-11
-3.241791e-05
0.00012724239
-3.3169611e-12
-5.3460307e-05
0.00016363296
-1.0073914e-11
-7.771246e-05
0.00019267659
-4.2140736e-12
-0.000104311
0.00021503589
-3.7948761e-12
-0.00013254491
0.00023138017
-4.4536002e-12
-0.00016182693
0.00024232511
-4.4617096e-12
-0.00019166588
0.00024839386
-4.3250781e-12
-0.00022164124
0.00024999816
-4.1816026e-12
-0.00025138097
0.00024743632
-3.9887175e-12
-0.00028054265
0.00024090413
-3.7588298e-12
-0.00030879822
0.00023051511
-3.5132723e-12
-0.00033582178
0.00021632635
-3.2381141e-12
-0.00036128018
0.00019836722
-2.8959733e-12
-0.00038482595
0.00017666849
-2.4654146e-12
-0.00040609256
0.00015129048
-1.966753e-12
-0.00042469178
0.00012234972
-1.449529e-12
-0.00044021385
9.0043687e-05
-9.4578342e-13
-0.00045223065
5.467403e-05
-4.2486975e-13
-0.00046030304
1.6668015e-05
1.8784387e-13
-0.00046399357
-2.3402221e-05
8.8058952e-13
-0.00046288448
-6.480308e-05
1.6448804e-12
-0.00045660341
-0.00010662857
2.3369923e-12
-0.00044485609
-0.00014779715
2.8502644e-12
-0.00042746613
-0.00018706034
3.2220828e-12
-0.00040442022
-0.00022302793
3.5789724e-12
-0.00037591561
-0.00025421445
3.9576575e-12
-0.00034240457
-0.00027911097
4.2149963e-12
-0.00030462862
-0.00029628404
4.1808764e-12
-0.00026363338
-0.00030449968
3.8923049e-12
-0.00022075513
-0.00030286429
3.6016072e-12
-0.00017757163
-0.00029096747
3.5192432e-12
-0.00013581501
-0.00026900484
3.4116086e-12
-9.7251932e-05
-0.00023785599
2.6534225e-12
-6.3544839e-05
-0.0001990963
3.0528012e-12
-3.6114691e-05
-0.00015493118
9.064841e-12
-1.6028559e-05
-0.00010804984
3.9129093e-12
-3.9298359e-06
-6.1424837e-05
-3.1130958e-11
-1.8215413e-05
3.32483e-11
-4.4872235e-06
3.4856109e-05
-3.7165034e-11
-1.6177324e-05
9.4624159e-05
3.725152e-11
-3.35499e-05
0.00014461497
-3.4721047e-12
-5.5314556e-05
0.00018539763
-1.0508896e-11
-8.0390369e-05
0.00021775241
-4.4658325e-12
-0.0001078848
0.00024253033
-4.0440587e-12
-0.00013706725
0.00026056262
-4.7351221e-12
-0.00016734027
0.00027259814
-4.761674e-12
-0.0001982112
0.00027926479
-4.6546953e-12
-0.00022926561
0.00028105259
-4.5535753e-12
-0.00026014368
0.00027831439
-4.3941612e-12
-0.00029051967
0.00027128013
-4.1697982e-12
-0.00032008483
0.00026008027
-3.9123597e-12
-0.00034853318
0.0002447747
-3.6435756e-12
-0.00037554993
0.00022538398
-3.3490289e-12
-0.00040080219
0.00020192074
-2.9881895e-12
-0.0004239316
0.0001744199
-2.5312606e-12
-0.0004445493
0.00014296742
-1.9905889e-12
-0.00046223322
0.0001077276
-1.4156491e-12
-0.00047652863
6.8969441e-05
-8.472672e-13
-0.00048695288
2.7092271e-05
-2.7242973e-13
-0.00049300564
-1.7349459e-05
3.6093482e-13
-0.00049418564
-6.3623087e-05
1.1138098e-12
-0.00049001582
-0.00011079839
1.9362305e-12
-0.00048007774
-0.00015773524
2.680893e-12
-0.00046405566
-0.00020308243
3.2286817e-12
-0.00044178975
-0.00024529385
3.6015887e-12
-0.00041333575
-0.00028266846
3.9148452e-12
-0.00037902596
-0.00031342077
4.2005169e-12
-0.00033952333
-0.00033578667
4.329245e-12
-0.00029585751
-0.0003481655
4.1690181e-12
-0.00024942979
-0.00034929201
3.8144361e-12
-0.00020197497
-0.0003384223
3.5502136e-12
-0.00015547284
-0.00031550697
3.2993651e-12
-0.00011201159
-0.00028131724
2.4089682e-12
-7.3617496e-05
-0.0002374904
2.9471296e-12
-4.2077003e-05
-0.00018647168
1.010558e-11
-1.8784003e-05
-0.00013134284
4.0598018e-12
-4.6400103e-06
-7.5568791e-05
-3.7272494e-11
-2.2855461e-05
3.8703637e-11
-4.5902833e-06
3.9446431e-05
-3.8128432e-11
-1.655269e-05
0.00010658653
3.8055243e-11
-3.433335e-05
0.00016239563
-3.6523396e-12
-5.6610889e-05
0.00020767518
-1.0885891e-11
-8.2277188e-05
0.00024341871
-4.7367812e-12
-0.00011041819
0.00027067133
-4.3308895e-12
-0.00014028892
0.00029043336
-5.0501048e-12
-0.00017128552
0.00030359474
-5.0823382e-12
-0.00020291689
0.00031089617
-4.9822722e-12
-0.00023477769
0.00031291339
-4.9074105e-12
-0.00026652359
0.00031006029
-4.7918447e-12
-0.00029784946
0.00030260601
-4.6029016e-12
-0.00032847061
0.00029070143
-4.3480975e-12
-0.00035810672
0.00027441082
-4.0581483e-12
-0.00038646825
0.00025374552
-3.7567391e-12
-0.00041324486
0.00022869735
-3.4332146e-12
-0.00043809568
0.00019927073
-3.0464298e-12
-0.00046064153
0.00016551327
-2.5578307e-12
-0.00048045932
0.0001275454
-1.9685626e-12
-0.00049707946
8.5589583e-05
-1.3252385e-12
-0.00050998719
4.0000007e-05
-6.8279218e-13
-0.00051862939
-8.7072672e-06
-4.7051377e-14
-0.00052242834
-5.9824131e-05
6.3846964e-13
-0.00052080463
-0.00011242211
1.4363369e-12
-0.0005132109
-0.00016532897
2.2984134e-12
-0.00049917822
-0.00021711511
3.0733743e-12
-0.00047837549
-0.00026609658
3.6320472e-12
-0.0004506806
-0.00031036337
3.9812023e-12
-0.00041625891
-0.00034784246
4.2149112e-12
-0.00037564086
-0.00037640472
4.3520185e-12
-0.00032978532
-0.00039402104
4.2901089e-12
-0.0002801119
-0.00039896543
3.9963971e-12
-0.00022848373
-0.00039005048
3.6611416e-12
-0.00017712616
-0.00036686454
3.2282351e-12
-0.00012847765
-0.00032996575
2.0705791e-12
-8.4985583e-05
-0.00028098247
2.718297e-12
-4.8878639e-05
-0.00022257864
1.1268013e-11
-2.1960824e-05
-0.00015826066
4.2582877e-12
-5.4696774e-06
-9.2059892e-05
-4.4372075e-11
-2.8325183e-05
4.5083173e-11
-4.6407197e-06
4.4087189e-05
-3.8714454e-11
-1.6747989e-05
0.00011869376
3.8353591e-11
-3.4756314e-05
0.00018040396
-3.8653731e-12
-5.7328467e-05
0.00023024734
-1.1199765e-11
-8.3339269e-05
0.00026942952
-5.0089624e-12
-0.00011185972
0.00029919179
-4.6338461e-12
-0.00014213476
0.0003207084
-5.3884576e-12
-0.00017355703
0.00033501702
-5.4333077e-12
-0.00020563945
0.00034297859
-5.3288606e-12
-0.00023798811
0.00034526206
-5.2491249e-12
-0.00027027702
0.0003423492
-5.1510028e-12
-0.0003022252
0.0003345542
-5.0024855e-12
-0.00033357653
0.00032205276
-4.7816766e-12
-0.00036408207
0.00030491636
-4.490583e-12
-0.0003934846
0.00028314805
-4.1578031e-12
-0.00042150501
0.00025671777
-3.809951e-12
-0.00044783033
0.00022559604
-3.4427167e-12
-0.00047210323
0.00018978618
-3.0169334e-12
-0.00049391354
0.00014935571
-2.4863371e-12
-0.00051279208
0.00010446813
-1.8398021e-12
-0.00052820808
5.5416007e-05
-1.121501e-12
-0.0005395714
2.6560521e-06
-3.9473343e-13
-0.00054624184
-5.3153692e-05
3.0292945e-13
-0.00054754741
-0.00011111653
1.0442933e-12
-0.000542815
-0.00017006138
1.8802434e-12
-0.0005314158
-0.00022851431
2.7589353e-12
-0.00051282804
-0.00028468434
3.5279831e-12
-0.00048671737
-0.00033647404
4.0558657e-12
-0.00045303246
-0.00038152737
4.333672e-12
-0.00041210824
-0.00041732895
4.423584e-12
-0.00036476275
-0.00044136654
4.3353513e-12
-0.00031236681
-0.00045136137
4.0648223e-12
-0.0002568608
-0.00044555649
3.7322009e-12
-0.0002006938
-0.00042303154
3.1744697e-12
-0.00014667113
-0.00038398842
1.6896208e-12
-9.7717406e-05
-0.0003299362
2.3955852e-12
-5.6590332e-05
-0.00026370572
1.254699e-11
-2.5605326e-05
-0.00018924567
4.4733361e-12