/*--------------------------------*- C++ -*----------------------------------*\
  =========                 |
  \\      /  F ield         | OpenFOAM: The Open Source CFD Toolbox
   \\    /   O peration     | Website:  https://openfoam.org
    \\  /    A nd           | Version:  7
     \\/     M anipulation  |
\*---------------------------------------------------------------------------*/
FoamFile
{
    version     2.0;
    format      ascii;
    class       volVectorField;
    location    "43";
    object      U_0;
}
// * * * * * * * * * * * * * * * * * * * * * * * * * * * * * * * * * * * * * //

dimensions      [0 1 -1 0 0 0 0];

internalField   nonuniform List<vector> 
16000
(
(6.6055882e-05 -6.7321356e-05 -4.0306016e-07)
(0.00016277232 -5.6348217e-05 5.7005686e-06)
(0.00014193378 4.6672778e-07 1.9200795e-05)
(-5.0611197e-05 6.1892883e-05 3.6623418e-05)
(-0.00040996638 0.00011563211 5.4732116e-05)
(-0.00090902184 0.0001577444 7.1560595e-05)
(-0.0015177089 0.00018850514 8.577277e-05)
(-0.0022068847 0.00020960931 9.6553498e-05)
(-0.0029506007 0.00022287687 0.00010344245)
(-0.0037264647 0.00022981115 0.00010619271)
(-0.0045150507 0.00023147719 0.00010467702)
(-0.0052990135 0.00022850407 9.8832348e-05)
(-0.0060621933 0.00022114747 8.8634064e-05)
(-0.0067888643 0.00020938302 7.4092725e-05)
(-0.0074632162 0.0001930136 5.5267092e-05)
(-0.0080691174 0.00017178051 3.2287389e-05)
(-0.00859017 0.00014547172 5.3835051e-06)
(-0.0090100502 0.00011402212 -2.508669e-05)
(-0.0093131027 7.7601649e-05 -5.8613302e-05)
(-0.0094851489 3.668753e-05 -9.4518594e-05)
(-0.0095144488 -7.8864421e-06 -0.00013195286)
(-0.0093927304 -5.4924115e-05 -0.00016990493)
(-0.0091162246 -0.00010284333 -0.00020722847)
(-0.0086866027 -0.00014974904 -0.00024268572)
(-0.0081116923 -0.00019351179 -0.0002750069)
(-0.0074058962 -0.00023188627 -0.00030296305)
(-0.0065902214 -0.00026266118 -0.00032544769)
(-0.0056918547 -0.00028382735 -0.00034156088)
(-0.0047432603 -0.00029374796 -0.00035068847)
(-0.0037808173 -0.00029131116 -0.00035256902)
(-0.0028430634 -0.00027604623 -0.00034734213)
(-0.0019686536 -0.00024818903 -0.00033557426)
(-0.0011941463 -0.00020869842 -0.00031826083)
(-0.0005516672 -0.00015926194 -0.00029680713)
(-6.6505063e-05 -0.00010240623 -0.00027298308)
(0.00024492303 -4.1753438e-05 -0.00024884606)
(0.00037894 1.7848851e-05 -0.00022677701)
(0.000349781 6.7068815e-05 -0.00020921119)
(0.00020618633 8.9849298e-05 -0.00019882095)
(5.7467185e-05 5.7407999e-05 -0.000184376)
(5.8010507e-05 -0.00016701093 -6.6304792e-06)
(4.0898418e-05 -3.994222e-05 -3.7515594e-07)
(-0.00029496078 0.00024857577 1.1258447e-05)
(-0.0010110146 0.00056213075 2.5624543e-05)
(-0.0020992222 0.00084750117 4.0609634e-05)
(-0.003514085 0.0010831239 5.4617883e-05)
(-0.0051946855 0.0012643038 6.6521971e-05)
(-0.0070766308 0.0013940698 7.5569596e-05)
(-0.0090981527 0.0014779622 8.1278974e-05)
(-0.011202309 0.0015215283 8.3350468e-05)
(-0.013337038 0.001529212 8.1600757e-05)
(-0.015454182 0.0015039766 7.5919867e-05)
(-0.017508154 0.0014473582 6.6249444e-05)
(-0.01945472 0.0013597789 5.2578727e-05)
(-0.02125016 0.0012410027 3.4953848e-05)
(-0.022850979 0.0010906593 1.3496008e-05)
(-0.024214229 0.0009087758 -1.157579e-05)
(-0.025298436 0.00069627653 -3.9921613e-05)
(-0.026065059 0.00045541521 -7.1060877e-05)
(-0.0264804 0.00019010753 -0.00010435943)
(-0.026517816 -9.3864728e-05 -0.00013902645)
(-0.026159988 -0.00038877521 -0.00017413033)
(-0.02540117 -0.00068509031 -0.00020861518)
(-0.02424917 -0.00097175868 -0.0002413486)
(-0.022726751 -0.0012366936 -0.00027117501)
(-0.02087235 -0.0014674284 -0.00029698286)
(-0.018739913 -0.0016519062 -0.00031777989)
(-0.016397718 -0.0017793512 -0.00033277037)
(-0.013926127 -0.0018411459 -0.00034142737)
(-0.011414317 -0.0018316349 -0.00034355257)
(-0.0089560979 -0.0017487763 -0.00033931717)
(-0.0066450045 -0.0015945875 -0.00032927964)
(-0.0045688969 -0.0013753905 -0.00031437918)
(-0.0028042248 -0.0011019669 -0.00029590637)
(-0.0014100216 -0.00078992167 -0.00027545292)
(-0.00042163584 -0.00046058647 -0.00025483437)
(0.0001557685 -0.00014255525 -0.00023596591)
(0.0003567288 0.00012231805 -0.00022086355)
(0.00027526792 0.00027112834 -0.00021162622)
(9.0126587e-05 0.00020509568 -0.00019543714)
(1.9219696e-06 -0.00014894862 -2.0416195e-05)
(-0.00025603951 0.00029703615 -1.1796487e-05)
(-0.0010504415 0.0010236369 1.0185635e-07)
(-0.0023878183 0.0017975484 1.3081982e-05)
(-0.0042394373 0.0025099099 2.6118264e-05)
(-0.0065455584 0.0031100618 3.8069821e-05)
(-0.0092251224 0.0035809292 4.8109641e-05)
(-0.012189999 0.0039234361 5.5677063e-05)
(-0.01535299 0.0041461879 6.0390449e-05)
(-0.018631058 0.0042595932 6.199313e-05)
(-0.021946082 0.004272817 6.0312184e-05)
(-0.02522426 0.0041924771 5.5229816e-05)
(-0.028394926 0.0040224713 4.6669701e-05)
(-0.031389394 0.0037645254 3.4596707e-05)
(-0.034140223 0.0034191717 1.9026948e-05)
(-0.036581146 0.0029869409 4.4958652e-08)
(-0.038647754 0.0024696068 -2.2175393e-05)
(-0.040278948 0.0018713598 -4.7349646e-05)
(-0.041419059 0.001199809 -7.5064319e-05)
(-0.042020508 0.00046673076 -0.00010476459)
(-0.042046773 -0.00031149933 -0.0001357526)
(-0.041475477 -0.0011138115 -0.00016719312)
(-0.040301323 -0.0019148767 -0.00019813891)
(-0.038538562 -0.0026858628 -0.00022756682)
(-0.036222759 -0.0033956787 -0.00025442879)
(-0.033411588 -0.004012608 -0.00027771443)
(-0.030184433 -0.0045062495 -0.00029652101)
(-0.026640648 -0.0048496381 -0.00031012548)
(-0.022896384 -0.0050213897 -0.0003180518)
(-0.019080023 -0.0050076884 -0.00032012631)
(-0.015326332 -0.0048039533 -0.0003165142)
(-0.011769574 -0.0044160674 -0.0003077318)
(-0.0085358384 -0.0038611604 -0.00029463269)
(-0.0057348835 -0.0031681029 -0.00027836972)
(-0.0034517058 -0.0023781154 -0.00026033669)
(-0.0017379811 -0.0015461883 -0.0002420899)
(-0.00060368531 -0.00074418558 -0.00022524065)
(-8.037898e-06 -6.6356385e-05 -0.00021138179)
(0.00015540827 0.00036039953 -0.0002022006)
(7.3554808e-05 0.0003543785 -0.0001852848)
(-6.4682607e-05 5.043124e-05 -3.8668014e-05)
(-0.00060837656 0.0010457715 -2.6128331e-05)
(-0.0019305333 0.0023817476 -1.2147004e-05)
(-0.0039464338 0.003756528 1.1458183e-06)
(-0.0065890131 0.0050153209 1.3734065e-05)
(-0.0097792013 0.0060800684 2.4858369e-05)
(-0.013417132 0.0069205254 3.3981511e-05)
(-0.017395537 0.007534116 4.0768187e-05)
(-0.021607749 0.0079313985 4.4982441e-05)
(-0.025950712 0.0081270419 4.6452434e-05)
(-0.030325869 0.0081347697 4.5047385e-05)
(-0.03463882 0.0079650028 4.0660967e-05)
(-0.038798388 0.0076243758 3.3206115e-05)
(-0.042715709 0.0071165089 2.262054e-05)
(-0.046303777 0.0064435545 8.8805491e-06)
(-0.049477695 0.0056081451 -7.9793691e-06)
(-0.052155752 0.0046154498 -2.7843858e-05)
(-0.054261315 0.0034751122 -5.049379e-05)
(-0.055725443 0.0022028897 -7.5586089e-05)
(-0.056490045 0.00082185228 -0.00010263955)
(-0.056511345 -0.0006369688 -0.00013102968)
(-0.055763448 -0.002134596 -0.00015999153)
(-0.054241671 -0.0036248149 -0.00018864296)
(-0.05196532 -0.0050556214 -0.00021601675)
(-0.048979666 -0.0063713944 -0.00024110983)
(-0.045356812 -0.0075157198 -0.00026294491)
(-0.041195195 -0.0084347287 -0.00028064014)
(-0.036617538 -0.0090807507 -0.00029348109)
(-0.031767145 -0.009416028 -0.00030098812)
(-0.02680252 -0.0094162029 -0.00030297163)
(-0.021890418 -0.0090733064 -0.00029956796)
(-0.01719757 -0.0083980418 -0.00029124991)
(-0.012881386 -0.0074212957 -0.00027880847)
(-0.0090800555 -0.0061950221 -0.0002633071)
(-0.005902483 -0.0047929324 -0.0002460135)
(-0.0034184976 -0.0033118192 -0.00022831671)
(-0.0016495317 -0.0018745332 -0.0002116439)
(-0.00055980172 -0.00063470585 -0.00019738947)
(-5.0115739e-05 0.00021500569 -0.00018678886)
(3.8094528e-05 0.00041383305 -0.00016798265)
(-0.00013086482 0.00044556645 -5.8184206e-05)
(-0.00097094829 0.002242695 -4.111831e-05)
(-0.0028462097 0.0043591905 -2.4235899e-05)
(-0.0055648106 0.0064572186 -9.8035743e-06)
(-0.0090094394 0.0083534796 3.1149529e-06)
(-0.013075459 0.0099514552 1.4094944e-05)
(-0.017642277 0.011211751 2.2873482e-05)
(-0.022584679 0.012129586 2.9345764e-05)
(-0.027779632 0.012717527 3.3434583e-05)
(-0.033108113 0.012994149 3.5067076e-05)
(-0.038455495 0.012977368 3.4165939e-05)
(-0.043711128 0.012681217 3.0642755e-05)
(-0.048767519 0.012115131 2.4400653e-05)
(-0.053519631 0.011284989 1.5346136e-05)
(-0.057864699 0.010195262 3.4078661e-06)
(-0.061702793 0.008851743 -1.1439691e-05)
(-0.064938228 0.0072644416 -2.9149939e-05)
(-0.067481793 0.0054502933 -4.9577612e-05)
(-0.069253702 0.0034354364 -7.245484e-05)
(-0.070187074 0.0012568438 -9.7372873e-05)
(-0.070231726 -0.0010368514 -0.0001237725)
(-0.069358017 -0.0033854757 -0.00015094558)
(-0.067560465 -0.0057183961 -0.00017805147)
(-0.064860801 -0.0079566867 -0.00020414848)
(-0.061310202 -0.010016304 -0.0002282416)
(-0.056990366 -0.011812192 -0.00024934449)
(-0.052013154 -0.013263142 -0.0002665515)
(-0.046518562 -0.014297146 -0.00027911322)
(-0.040670852 -0.01485689 -0.00028650747)
(-0.034652768 -0.014904998 -0.00028849745)
(-0.028657899 -0.01442861 -0.00028516942)
(-0.022881405 -0.01344297 -0.0002769436)
(-0.017509481 -0.011993826 -0.00026455444)
(-0.012708059 -0.010158715 -0.00024900015)
(-0.008611469 -0.0080474977 -0.00023146479)
(-0.0053117552 -0.0058029592 -0.00021322779)
(-0.0028485189 -0.0036024762 -0.00019560222)
(-0.0012000343 -0.0016605441 -0.00017985407)
(-0.00028881047 -0.00023377764 -0.00016670896)
(-2.471963e-06 0.00035046505 -0.00014547783)
(-0.00019286476 0.0010313067 -7.6664399e-05)
(-0.0013239858 0.0038925349 -5.4759857e-05)
(-0.0037518559 0.0069680014 -3.455511e-05)
(-0.0071732988 0.0099108214 -1.8461625e-05)
(-0.011414807 0.0125274 -4.6659223e-06)
(-0.016341483 0.014714507 6.6968025e-06)
(-0.02180962 0.016430505 1.5613638e-05)
(-0.027675879 0.017672021 2.2199251e-05)
(-0.033802399 0.01845525 2.6532098e-05)
(-0.04005685 0.018803215 2.8638864e-05)
(-0.046311839 0.01873808 2.8496764e-05)
(-0.052444062 0.018277409 2.6034835e-05)
(-0.058333357 0.017433438 2.11435e-05)
(-0.063862063 0.016214497 1.3692604e-05)
(-0.068914993 0.014627825 3.5556765e-06)
(-0.073380203 0.01268311 -9.3614316e-06)
(-0.077150615 0.010396211 -2.5089399e-05)
(-0.080126455 0.0077926384 -4.3563969e-05)
(-0.082218395 0.0049104461 -6.4596818e-05)
(-0.083351222 0.0018022819 -8.785187e-05)
(-0.083467825 -0.0014636092 -0.00011283038)
(-0.082533265 -0.0048035804 -0.00013886848)
(-0.080538656 -0.0081200486 -0.00016514886)
(-0.077504589 -0.011304336 -0.00019073053)
(-0.073483765 -0.014240832 -0.0002145955)
(-0.068562535 -0.016812392 -0.00023571195)
(-0.062861005 -0.018906784 -0.00025310997)
(-0.0565314 -0.020423862 -0.00026596302)
(-0.049754416 -0.021283052 -0.00027366633)
(-0.042733402 -0.021430611 -0.00027590183)
(-0.035686357 -0.020846121 -0.00027268078)
(-0.028835912 -0.019547674 -0.0002643573)
(-0.022397704 -0.017595394 -0.00025160941)
(-0.016567759 -0.015093169 -0.00023538679)
(-0.011509867 -0.012188857 -0.0002168262)
(-0.0073439009 -0.0090736694 -0.00019715337)
(-0.0041345361 -0.0059816723 -0.00017764114)
(-0.0018815974 -0.0031890383 -0.00015952352)
(-0.00053619226 -0.0010143218 -0.00014312931)
(-4.1245815e-05 0.0001589492 -0.00011903879)
(-0.00025011658 0.0017985705 -9.2151136e-05)
(-0.0016597725 0.0059841419 -6.5260318e-05)
(-0.0046244557 0.010198618 -4.1573981e-05)
(-0.008732169 0.014107022 -2.3519183e-05)
(-0.013751604 0.017522338 -8.4808116e-06)
(-0.01951508 0.02034712 3.6581385e-06)
(-0.025854146 0.022545927 1.3109443e-05)
(-0.03260701 0.024122005 2.0189215e-05)
(-0.039621883 0.025098111 2.5119728e-05)
(-0.046755012 0.02550318 2.8019253e-05)
(-0.0538688 0.025364231 2.8913379e-05)
(-0.060830248 0.02470254 2.7742816e-05)
(-0.067509641 0.023533176 2.4378979e-05)
(-0.073779768 0.021866981 1.8647797e-05)
(-0.079515879 0.019714125 1.0359492e-05)
(-0.084596503 0.017088492 -6.57362e-07)
(-0.088905129 0.014012235 -1.4519202e-05)
(-0.092332705 0.01052001 -3.1250284e-05)
(-0.094780825 0.0066624821 -5.0747482e-05)
(-0.096165471 0.0025088068 -7.2750173e-05)
(-0.096421125 -0.0018521455 -9.6818882e-05)
(-0.095505033 -0.0063119952 -0.00012232733)
(-0.093401436 -0.010744592 -0.00014846888)
(-0.090125483 -0.015009425 -0.00017428399)
(-0.085726508 -0.01895667 -0.0001987059)
(-0.080290345 -0.022433825 -0.00022062541)
(-0.073940285 -0.025293749 -0.00023897092)
(-0.066836242 -0.027403773 -0.00025279724)
(-0.059171754 -0.02865538 -0.00026137385)
(-0.051168506 -0.028973824 -0.00026426114)
(-0.043068248 -0.028326927 -0.00026136296)
(-0.035122197 -0.026732282 -0.00025294688)
(-0.027578338 -0.024262246 -0.00023962848)
(-0.020667345 -0.021046308 -0.00022231944)
(-0.014588349 -0.017270901 -0.00020213873)
(-0.0094958203 -0.013177224 -0.00018030911)
(-0.0054864902 -0.0090579284 -0.00015813466)
(-0.0025879523 -0.0052522176 -0.00013690341)
(-0.00078446831 -0.0021405351 -0.00011661954)
(-7.6873132e-05 -0.00016053774 -8.9415159e-05)
(-0.00030295615 0.0027365294 -0.00010297478)
(-0.0019754988 0.0084981055 -7.1003202e-05)
(-0.0054521415 0.014028582 -4.3855389e-05)
(-0.010217973 0.019021397 -2.3710775e-05)
(-0.015985182 0.023311104 -7.2155169e-06)
(-0.0225528 0.026818206 5.9734778e-06)
(-0.029727187 0.029522441 1.6270751e-05)
(-0.037328211 0.031439787 2.4174148e-05)
(-0.045190989 0.032603413 3.0033779e-05)
(-0.053161895 0.033050383 3.4046588e-05)
(-0.061095252 0.032813702 3.6275712e-05)
(-0.068850863 0.031918833 3.6663987e-05)
(-0.076292144 0.030383792 3.5054846e-05)
(-0.083284993 0.028221867 3.1221344e-05)
(-0.089697554 0.025446024 2.4901102e-05)
(-0.095400893 0.022074175 1.583575e-05)
(-0.10027057 0.018134572 3.8132908e-06)
(-0.10418904 0.013670803 -1.1288538e-05)
(-0.10704872 0.0087459292 -2.9460421e-05)
(-0.10875574 0.0034454466 -5.0524189e-05)
(-0.10923406 -0.0021211644 -7.4104005e-05)
(-0.10842999 -0.0078205206 -9.9611826e-05)
(-0.10631684 -0.013497151 -0.00012624656)
(-0.10289945 -0.018977289 -0.00015301815)
(-0.098218429 -0.024074609 -0.00017879121)
(-0.092353562 -0.028597965 -0.00020235132)
(-0.085426039 -0.032360984 -0.0002224899)
(-0.077598902 -0.035193195 -0.0002381012)
(-0.069075167 -0.036952164 -0.00024828241)
(-0.06009312 -0.037535856 -0.00025242464)
(-0.050918475 -0.036894263 -0.00025028119)
(-0.041833362 -0.035039219 -0.00024200119)
(-0.033122487 -0.032051383 -0.00022812229)
(-0.025057301 -0.028083649 -0.00020952152)
(-0.017879649 -0.023360682 -0.00018732333)
(-0.01178648 -0.018175 -0.00016279182)
(-0.0069140692 -0.012880397 -0.00013732829)
(-0.0033238383 -0.0078822625 -0.0001123576)
(-0.0010368623 -0.0036261495 -8.7650051e-05)
(-0.00011093458 -0.00060701983 -5.7211021e-05)
(-0.00035169315 0.0038338221 -0.00010767171)
(-0.0022696857 0.011410364 -7.0514426e-05)
(-0.0062274788 0.018427304 -4.0036469e-05)
(-0.011614749 0.024619962 -1.7786047e-05)
(-0.018090317 0.029857566 2.7785212e-07)
(-0.025421022 0.034089884 1.4707177e-05)
(-0.033388716 0.037320719 2.6101442e-05)
(-0.041795673 0.039585252 3.5121431e-05)
(-0.05046497 0.040931446 4.222815e-05)
(-0.059234592 0.041407241 4.7682391e-05)
(-0.067952676 0.041053187 5.1571819e-05)
(-0.07647404 0.039899668 5.3829833e-05)
(-0.084657597 0.037967842 5.4261287e-05)
(-0.092364713 0.035273272 5.2576146e-05)
(-0.099458591 0.031831291 4.8429021e-05)
(-0.10580463 0.027663185 4.1463508e-05)
(-0.11127169 0.022802465 3.1360111e-05)
(-0.11573423 0.01730063 1.7885903e-05)
(-0.11907517 0.011231985 9.4343866e-07)
(-0.12118942 0.0046971933 -1.9384071e-05)
(-0.12198809 -0.0021747115 -4.2795439e-05)
(-0.12140313 -0.0092260686 -6.8749502e-05)
(-0.11939248 -0.016272195 -9.6454079e-05)
(-0.11594549 -0.02310529 -0.00012488518)
(-0.11108823 -0.029500583 -0.00015282582)
(-0.10488841 -0.035224944 -0.00017893261)
(-0.097459315 -0.040047914 -0.00020182528)
(-0.088962032 -0.043754922 -0.00022019313)
(-0.079605257 -0.046162116 -0.00023290897)
(-0.069641888 -0.047131962 -0.00023913819)
(-0.059361864 -0.046588364 -0.00023842804)
(-0.049080954 -0.044529877 -0.00023076235)
(-0.039125755 -0.041039498 -0.00021657089)
(-0.029815744 -0.036289759 -0.00019668871)
(-0.021444141 -0.030542382 -0.00017226215)
(-0.014259508 -0.02414264 -0.00014463567)
(-0.0084461221 -0.017509199 -0.00011536909)
(-0.0041057559 -0.011119104 -8.6103538e-05)
(-0.0013000797 -0.005489694 -5.6444498e-05)
(-0.00014466065 -0.0011817414 -2.2493495e-05)
(-0.00039639249 0.0050786762 -0.00010492269)
(-0.0025408049 0.014693491 -6.244138e-05)
(-0.0069442136 0.023357984 -2.8835161e-05)
(-0.012909248 0.030860817 -4.5336011e-06)
(-0.020045659 0.037117358 1.5146076e-05)
(-0.028090313 0.042116915 3.0953232e-05)
(-0.036802157 0.045895794 4.365809e-05)
(-0.045967207 0.048514825 5.4067482e-05)
(-0.055397847 0.050041368 6.2737252e-05)
(-0.064925217 0.050537311 6.9977376e-05)
(-0.074393077 0.050052601 7.5886807e-05)
(-0.083653298 0.048623491 8.037751e-05)
(-0.092562458 0.046274538 8.3204615e-05)
(-0.10097956 0.04302332 8.4004111e-05)
(-0.10876487 0.038886827 8.233625e-05)
(-0.11577979 0.033888626 7.7734044e-05)
(-0.12188764 0.028066014 6.9756129e-05)
(-0.1269554 0.021476601 5.8042473e-05)
(-0.13085612 0.014203879 4.2370602e-05)
(-0.13347227 0.006361488 2.2709569e-05)
(-0.13469977 -0.0019040869 -7.3291019e-07)
(-0.13445283 -0.010412655 -2.748158e-05)
(-0.1326696 -0.018951378 -5.6764813e-05)
(-0.12931856 -0.027278404 -8.7531189e-05)
(-0.12440509 -0.035129036 -0.00011847803)
(-0.11797826 -0.042224891 -0.00014811508)
(-0.11013685 -0.048286167 -0.00017485729)
(-0.10103395 -0.053046901 -0.00019714102)
(-0.090879084 -0.056272749 -0.00021355465)
(-0.079936769 -0.057780335 -0.00022296986)
(-0.068520634 -0.057456695 -0.00022465782)
(-0.056982432 -0.055276926 -0.00021837276)
(-0.045695958 -0.051317906 -0.00020438791)
(-0.035036661 -0.045766099 -0.00018347253)
(-0.025358976 -0.038918055 -0.00015680032)
(-0.016973702 -0.031173321 -0.00012582945)
(-0.010123128 -0.023020493 -9.2336921e-05)
(-0.0049573033 -0.01501629 -5.8257763e-05)
(-0.0015839114 -0.0077601718 -2.3085919e-05)
(-0.00018000476 -0.0018919996 1.4777629e-05)
(-0.00043687333 0.006458571 -9.3525229e-05)
(-0.0027868522 0.018316907 -4.5545193e-05)
(-0.0075958999 0.028778331 -9.0608127e-06)
(-0.014088641 0.037694918 1.7193098e-05)
(-0.021830808 0.045038223 3.849687e-05)
(-0.030532269 0.050846287 5.5789115e-05)
(-0.039931319 0.055195706 6.9999067e-05)
(-0.049799511 0.058179132 8.2064768e-05)
(-0.059940136 0.059887936 9.2622595e-05)
(-0.07017912 0.060401161 0.00010201852)
(-0.080357623 0.059780206 0.00011035074)
(-0.09032651 0.05806829 0.00011749868)
(-0.099942082 0.055293697 0.00012315717)
(-0.10906306 0.051475679 0.00012687738)
(-0.11754872 0.046631959 0.00012811333)
(-0.12525817 0.040786894 0.00012627359)
(-0.13205051 0.033979548 0.00012077818)
(-0.1377859 0.026271127 0.0001111197)
(-0.14232754 0.017751398 9.6926749e-05)
(-0.14554452 0.0085438145 7.8027354e-05)
(-0.14731572 -0.0011908583 5.4507702e-05)
(-0.14753462 -0.011252636 2.6745583e-05)
(-0.14611544 -0.021402755 -4.5289033e-06)
(-0.14300052 -0.031366233 -3.8255335e-05)
(-0.13816826 -0.040837688 -7.3052076e-05)
(-0.13164197 -0.049490599 -0.000107273)
(-0.12349841 -0.056990435 -0.00013909965)
(-0.11387531 -0.063011813 -0.00016666588)
(-0.10297655 -0.067259349 -0.00018820682)
(-0.091073524 -0.069491286 -0.00020221788)
(-0.078501391 -0.069544189 -0.00020760537)
(-0.065648985 -0.067356342 -0.00020380822)
(-0.052942011 -0.062986922 -0.00019087153)
(-0.040820058 -0.05662802 -0.00016945286)
(-0.029709666 -0.048607166 -0.00014074158)
(-0.019996221 -0.039379407 -0.00010633341)
(-0.011992171 -0.029509505 -6.8279406e-05)
(-0.0059060245 -0.019644353 -2.8887654e-05)
(-0.0018995942 -0.010479297 1.2421267e-05)
(-0.00021911065 -0.0027504909 5.4758271e-05)
(-0.00047276079 0.0079598548 -7.23886e-05)
(-0.0030053069 0.022246669 -1.8704102e-05)
(-0.0081754819 0.034640716 2.0372794e-05)
(-0.015139638 0.045066394 4.8453367e-05)
(-0.023425073 0.05356017 7.1368461e-05)
(-0.032718089 0.060216909 9.0239068e-05)
(-0.04273898 0.065160521 0.00010614338)
(-0.053246925 0.068521233 0.00012013767)
(-0.064037882 0.070418883 0.00013292671)
(-0.074934242 0.070952921 0.00014488152)
(-0.085776313 0.070198361 0.00015608964)
(-0.096415828 0.068206615 0.00016638888)
(-0.10671081 0.065010088 0.00017540476)
(-0.11652174 0.060629352 0.00018259384)
(-0.12570895 0.055081783 0.00018729221)
(-0.1341311 0.048390753 0.00018876928)
(-0.14164462 0.040594628 0.00018628767)
(-0.14810402 0.031755109 0.00017916879)
(-0.15336319 0.021964578 0.00016686297)
(-0.15727766 0.011352261 0.00014902101)
(-0.15970803 8.9013562e-05 0.00012556353)
(-0.16052492 -0.011609442 9.6751724e-05)
(-0.15961529 -0.023481695 6.3214804e-05)
(-0.15689041 -0.035221788 2.5995041e-05)
(-0.15229557 -0.046484023 -1.3465986e-05)
(-0.14582083 -0.056891692 -5.3369116e-05)
(-0.13751249 -0.066050536 -9.1642439e-05)
(-0.12748404 -0.07356743 -0.00012607012)
(-0.11592513 -0.079074261 -0.00015445921)
(-0.10310687 -0.082256244 -0.00017483072)
(-0.089381231 -0.082882841 -0.00018561402)
(-0.075173049 -0.08083845 -0.00018581933)
(-0.060963176 -0.076149012 -0.00017516263)
(-0.04726309 -0.069000366 -0.0001541155)
(-0.034583091 -0.059744615 -0.00012384711)
(-0.023397399 -0.048892506 -8.6099184e-05)
(-0.014103447 -0.037091897 -4.3250076e-05)
(-0.0069814334 -0.025092622 1.9353048e-06)
(-0.0022590061 -0.013702949 5.0083038e-05)
(-0.0002641459 -0.00377604 9.7638617e-05)
(-0.00050355098 0.0095674434 -4.0543124e-05)
(-0.0031932759 0.026445192 1.9074217e-05)
(-0.0086754052 0.040892105 6.0429968e-05)
(-0.016048495 0.052912592 9.0195479e-05)
(-0.024807365 0.062615424 0.00011469939)
(-0.034618419 0.070159228 0.000135238)
(-0.045186795 0.075721411 0.0001530293)
(-0.056261504 0.079475011 0.00016923651)
(-0.067632973 0.081572553 0.00018462299)
(-0.079121715 0.082137098 0.00019957664)
(-0.090568873 0.08125952 0.00021416733)
(-0.10182886 0.079000775 0.00022818497)
(-0.11276336 0.075397893 0.0002411793)
(-0.1232367 0.07047245 0.00025250454)
(-0.13311239 0.06424036 0.00026136839)
(-0.14225078 0.056722073 0.00026688655)
(-0.15050761 0.047952512 0.00026814417)
(-0.15773347 0.037990337 0.00026426479)
(-0.16377429 0.026926306 0.00025448623)
(-0.16847278 0.014890607 0.00023824099)
(-0.17167133 0.0020590335 0.00021523868)
(-0.17321661 -0.011342255 0.00018555552)
(-0.17296594 -0.025033765 0.00014967998)
(-0.17079571 -0.038682247 0.00010858324)
(-0.16661244 -0.051903619 6.3727843e-05)
(-0.16036551 -0.064270378 1.7046459e-05)
(-0.15206157 -0.075324605 -2.9128976e-05)
(-0.14177939 -0.084597519 -7.2193688e-05)
(-0.12968348 -0.091636042 -0.0001094508)
(-0.11603435 -0.096035948 -0.00013833604)
(-0.10119274 -0.097479897 -0.00015666474)
(-0.085615084 -0.095777105 -0.0001628704)
(-0.06983805 -0.090899834 -0.00015620012)
(-0.054451422 -0.083010929 -0.00013682724)
(-0.040061184 -0.072476746 -0.00010583228)
(-0.027246486 -0.059861713 -6.5088642e-05)
(-0.016507706 -0.045903616 -1.734744e-05)
(-0.0082137717 -0.031469867 3.4079939e-05)
(-0.0026743203 -0.017501844 8.9845745e-05)
(-0.00031729574 -0.0049938557 0.00014356215)
(-0.00052868058 0.011264649 2.8414222e-06)
(-0.0033477386 0.030871106 6.8634223e-05)
(-0.0090880526 0.047474055 0.00011193222)
(-0.016801586 0.061164149 0.00014323116)
(-0.025956888 0.072128401 0.00016929742)
(-0.036204181 0.080594914 0.0001915944)
(-0.047236294 0.086799865 0.00021147113)
(-0.058794244 0.09096377 0.000230188)
(-0.070664657 0.09327577 0.00024855976)
(-0.082667723 0.093885672 0.00026698619)
(-0.094646998 0.092902528 0.00028551598)
(-0.10646128 0.090398324 0.00030388825)
(-0.11797782 0.08641538 0.00032157391)
(-0.1290669 0.080976106 0.00033782012)
(-0.13959748 0.074093916 0.00035169816)
(-0.14943402 0.065784415 0.00036215699)
(-0.15843404 0.056076246 0.00036808446)
(-0.1664467 0.045021276 0.00036837797)
(-0.17331224 0.032704007 0.00036202498)
(-0.17886253 0.019250184 0.00034819226)
(-0.18292318 0.0048345353 0.00032632199)
(-0.18531738 -0.01031257 0.00029623355)
(-0.18587199 -0.025899806 0.00025820876)
(-0.18442619 -0.041572073 0.00021307639)
(-0.18084315 -0.056910854 0.00016225854)
(-0.17502466 -0.071439352 0.00010777891)
(-0.16692828 -0.084633989 5.2215459e-05)
(-0.15658627 -0.095943789 -1.4140745e-06)
(-0.14412461 -0.10481883 -4.9839335e-05)
(-0.12977948 -0.11074796 -8.9793113e-05)
(-0.113908 -0.11330453 -0.00011831668)
(-0.096989368 -0.11219671 -0.00013308034)
(-0.079612828 -0.10731675 -0.00013267356)
(-0.062450285 -0.098781328 -0.000116808)
(-0.046214681 -0.086954994 -8.6361557e-05)
(-0.031607746 -0.07244991 -4.3292092e-05)
(-0.019254153 -0.056099263 9.2451774e-06)
(-0.0096331389 -0.038903927 6.729772e-05)
(-0.0031578298 -0.021961654 0.00013152528)
(-0.00038078516 -0.0064355928 0.00019255074)
(-0.00054759912 0.013033169 5.8432529e-05)
(-0.0034658576 0.035479375 0.00013065105)
(-0.009406397 0.054322972 0.00017553617)
(-0.017386396 0.069745291 0.00020821004)
(-0.026854435 0.082015895 0.00023580894)
(-0.037448153 0.091436757 0.00025995353)
(-0.048850775 0.098307151 0.00028211533)
(-0.060797325 0.10289913 0.00030364373)
(-0.07307218 0.10544208 0.00032540045)
(-0.085496594 0.10611561 0.00034779574)
(-0.09791795 0.10504936 0.00037085753)
(-0.11020101 0.10232799 0.00039427551)
(-0.12222042 0.098000033 0.00041744269)
(-0.13385451 0.09208879 0.00043949831)
(-0.14498015 0.084604372 0.00045937287)
(-0.15546858 0.075555809 0.00047583856)
(-0.16518214 0.064962756 0.00048756815)
(-0.17397175 0.05286657 0.00049320538)
(-0.1816753 0.03934076 0.00049144825)
(-0.18811716 0.024500891 0.00048114585)
(-0.19310912 0.0085140071 0.00046140738)
(-0.19645328 -0.0083925678 0.0004317212)
(-0.1979473 -0.025923367 0.00039207241)
(-0.19739266 -0.043708867 0.00034305637)
(-0.1946065 -0.061302522 0.00028596729)
(-0.18943731 -0.078182571 0.00022284744)
(-0.18178454 -0.093760684 0.00015647685)
(-0.17162149 -0.10739972 9.0284597e-05)
(-0.15902009 -0.11844267 2.8167284e-05)
(-0.14417482 -0.12625405 -2.5790052e-05)
(-0.1274219 -0.13027328 -6.7678296e-05)
(-0.1092488 -0.13007711 -9.4180061e-05)
(-0.09028855 -0.12544458 -0.00010298182)
(-0.071294716 -0.11641496 -9.3103761e-05)
(-0.05309644 -0.10332684 -6.5043789e-05)
(-0.036536437 -0.086827872 -2.0748264e-05)
(-0.022388441 -0.067848918 3.6216522e-05)
(-0.011268763 -0.04754043 0.00010116066)
(-0.0037218436 -0.027182721 0.00017473148)
(-0.00045691168 -0.0081393815 0.00024442684)
(-0.00055984465 0.014853263 0.00012671046)
(-0.0035453378 0.040221777 0.00020560915)
(-0.0096248086 0.06137078 0.00025171269)
(-0.017792803 0.078574531 0.00028559625)
(-0.027484128 0.092187646 0.00031469075)
(-0.03832716 0.10258895 0.00034076265)
(-0.04999793 0.11014418 0.00036539786)
(-0.062227203 0.11518037 0.00039002853)
(-0.07479841 0.11797048 0.00041556203)
(-0.087535023 0.11872695 0.00044242161)
(-0.10028947 0.11760247 0.00047061938)
(-0.11293389 0.11469633 0.00049980155)
(-0.12535206 0.11006442 0.00052928893)
(-0.13743243 0.10373139 0.00055811665)
(-0.14906227 0.0957036 0.00058507464)
(-0.16012262 0.085982167 0.00060875273)
(-0.17048407 0.074575416 0.00062759501)
(-0.18000324 0.061510788 0.00063996726)
(-0.18852004 0.046846254 0.00064424082)
(-0.19585597 0.030681469 0.00063889469)
(-0.20181373 0.013168865 0.00062263624)
(-0.20617875 -0.0054753483 0.00059453866)
(-0.2087231 -0.024960525 0.00055418913)
(-0.20921263 -0.04491216 0.00050183816)
(-0.20741816 -0.064864854 0.00043853656)
(-0.20313139 -0.084259652 0.00036623769)
(-0.19618605 -0.1024483 0.0002878403)
(-0.18648429 -0.11870744 0.00020714422)
(-0.17402712 -0.13226603 0.00012869316)
(-0.15894668 -0.14234853 5.748743e-05)
(-0.14153585 -0.14823509 -1.4328862e-06)
(-0.12226912 -0.14933666 -4.3506674e-05)
(-0.10180729 -0.14527869 -6.5212415e-05)
(-0.080978726 -0.13598182 -6.4569092e-05)
(-0.060733908 -0.12172372 -4.1432229e-05)
(-0.042074316 -0.1031659 2.4308731e-06)
(-0.025950479 -0.081333242 6.3077564e-05)
(-0.013148242 -0.057540538 0.00013499073)
(-0.0043785974 -0.033279404 0.00021878303)
(-0.00054808333 -0.010149842 0.00029872674)
(-0.00056512273 0.016704137 0.00020794604)
(-0.003584822 0.045047815 0.00029378431)
(-0.0097399826 0.068546103 0.00034073032)
(-0.018014596 0.087565905 0.0003756496)
(-0.027835516 0.10254742 0.00040618655)
(-0.038824728 0.1139479 0.00043424072)
(-0.050653066 0.12220188 0.00046150526)
(-0.063048418 0.1276943 0.00048949149)
(-0.075794276 0.1307448 0.00051915489)
(-0.088717242 0.13160155 0.00055093862)
(-0.1016758 0.13044302 0.00058484868)
(-0.11455071 0.12738527 0.00062049886)
(-0.12723646 0.12249313 0.00065714863)
(-0.13963367 0.11579342 0.00069373815)
(-0.15164252 0.10728888 0.00072892235)
(-0.16315701 0.0969719 0.00076110882)
(-0.17405977 0.084837731 0.00078850509)
(-0.18421764 0.070897084 0.00080918061)
(-0.19347778 0.055188373 0.00082114815)
(-0.20166471 0.037789982 0.00082246829)
(-0.20857841 0.018832873 0.00081137906)
(-0.21399413 -0.0014862897 0.00078645079)
(-0.21766446 -0.022891664 0.00074676387)
(-0.21932461 -0.045015035 0.00069209595)
(-0.21870195 -0.067384154 0.00062311326)
(-0.21553096 -0.089414509 0.00054153624)
(-0.20957472 -0.11040753 0.00045025249)
(-0.20065358 -0.12955896 0.00035333967)
(-0.1886808 -0.14598189 0.0002559589)
(-0.17370327 -0.15874899 0.00016408442)
(-0.15594313 -0.16695712 8.4052124e-05)
(-0.13583341 -0.1698146 2.1939949e-05)
(-0.11403768 -0.16674579 -1.7162526e-05)
(-0.091443307 -0.15750014 -2.9874231e-05)
(-0.069120481 -0.14224565 -1.5038448e-05)
(-0.04824434 -0.1216226 2.6025145e-05)
(-0.029971804 -0.096736574 8.9100624e-05)
(-0.015296621 -0.069077571 0.00016777608)
(-0.0051401272 -0.040378989 0.00026260747)
(-0.00065685495 -0.012518069 0.00035459896)
(-0.00056338816 0.018564536 0.00030218402)
(-0.0035843182 0.049906101 0.0003952325)
(-0.0097519592 0.075776052 0.00044264586)
(-0.018051163 0.096630834 0.00047841448)
(-0.027905938 0.11299474 0.00051031124)
(-0.038934099 0.12540358 0.00054035547)
(-0.050802754 0.1343622 0.0005703426)
(-0.063237895 0.14031587 0.00060186332)
(-0.076023793 0.14363374 0.00063592838)
(-0.088990875 0.14460281 0.00067301289)
(-0.10200451 0.14343009 0.00071313158)
(-0.11495519 0.14025091 0.00075588207)
(-0.12774955 0.13514102 0.00080047871)
(-0.14030233 0.12813082 0.00084578135)
(-0.15252914 0.11922005 0.00089032138)
(-0.16434008 0.10839231 0.00093233063)
(-0.17563382 0.095628831 0.00096977939)