/*--------------------------------*- C++ -*----------------------------------*\
  =========                 |
  \\      /  F ield         | OpenFOAM: The Open Source CFD Toolbox
   \\    /   O peration     | Website:  https://openfoam.org
    \\  /    A nd           | Version:  7
     \\/     M anipulation  |
\*---------------------------------------------------------------------------*/
FoamFile
{
    version     2.0;
    format      ascii;
    class       volScalarField;
    location    "45";
    object      p;
}
// * * * * * * * * * * * * * * * * * * * * * * * * * * * * * * * * * * * * * //

dimensions      [0 2 -2 0 0 0 0];

internalField   nonuniform List<scalar> 
16000
(
8.1978588e-06
-0.00013223919
-0.00044376154
-0.00084612705
-0.0012643428
-0.0016530141
-0.0019812703
-0.0022302743
-0.0023893894
-0.0024529088
-0.0024178905
-0.0022828774
-0.0020473011
-0.0017114064
-0.0012765509
-0.00074574165
-0.00012428718
0.00057954667
0.0013539797
0.0021833525
0.0030480352
0.0039246737
0.0047867956
0.0056058147
0.0063523973
0.0069981455
0.0075174948
0.0078896671
0.0081004975
0.0081439593
0.0080232608
0.0077514524
0.0073515168
0.0068559529
0.0063056941
0.0057482504
0.0052385618
0.0048328075
0.004592753
0.0045538863
0.00015265602
7.7244449e-06
-0.00024236735
-0.00055125069
-0.00087344995
-0.0011746532
-0.0014306139
-0.0016251535
-0.001747915
-0.0017924568
-0.0017548366
-0.0016326884
-0.001424757
-0.0011308121
-0.00075184669
-0.00029046813
0.00024861558
0.0008580984
0.00152765
0.0022436337
0.0029890396
0.003743832
0.0044853078
0.0051891276
0.0058304539
0.006385384
0.0068325652
0.0071548714
0.0073409777
0.0073866506
0.0072955953
0.0070798026
0.0067594135
0.0063621493
0.0059222824
0.0054789319
0.0050732877
0.0047486441
0.0045500236
0.0045143936
0.0004712848
0.00025340102
-2.4357617e-06
-0.00028148243
-0.00056172738
-0.00081866775
-0.0010345124
-0.0011972011
-0.0012985291
-0.0013329794
-0.0012968342
-0.0011875597
-0.0010035129
-0.000743937
-0.00040917836
-1.0566619e-06
0.00047668693
0.0010179359
0.0016138039
0.0022523674
0.0029186232
0.0035946066
0.0042599423
0.0048926305
0.0054701499
0.0059707941
0.0063751581
0.0066676747
0.0068380802
0.0068826411
0.0068049508
0.0066161542
0.0063345901
0.0059849689
0.0055972048
0.0052048071
0.0048425332
0.0045446808
0.0043473974
0.0042800262
0.00089289715
0.0005616384
0.00026094508
-2.4838584e-05
-0.00029543869
-0.00053458757
-0.00073072115
-0.00087662229
-0.00096721718
-0.00099881157
-0.00096859473
-0.00087428143
-0.00071399946
-0.00048640812
-0.00019099565
0.00017149752
0.00059858904
0.0010855631
0.0016250413
0.0022066816
0.0028170654
0.0034397495
0.0040557615
0.0046442923
0.00518377
0.0056531957
0.0060336347
0.0063097377
0.0064711688
0.0065138106
0.0064405861
0.0062617095
0.0059942492
0.0056610616
0.0052893109
0.0049087884
0.0045502368
0.0042437696
0.004015953
0.0038804103
0.0013436929
0.00088402687
0.00052087157
0.00021055649
-6.7149814e-05
-0.00030320538
-0.00049193781
-0.00063108533
-0.00071898841
-0.00075407945
-0.00073469612
-0.00065893861
-0.00052472584
-0.00033004873
-7.3372421e-05
0.00024585548
0.00062663576
0.0010658434
0.001557713
0.0020934518
0.0026610397
0.0032452611
0.0038280504
0.0043891557
0.004907166
0.0053608613
0.0057307813
0.0060008466
0.0061598516
0.0062026813
0.0061311353
0.0059542265
0.0056878008
0.0053533989
0.004976476
0.0045844382
0.0042054478
0.0038667802
0.0035841261
0.0033605577
0.0017705382
0.0011774136
0.00074275259
0.0003967032
0.00010014104
-0.0001441472
-0.00033585547
-0.00047743938
-0.00057058964
-0.0006158796
-0.00061281761
-0.00055987725
-0.00045470337
-0.00029449994
-7.6550253e-05
0.00020117038
0.00053932589
0.0009365393
0.0013887609
0.0018887574
0.0024257979
0.0029856096
0.0035506329
0.0041006498
0.0046137715
0.0050677914
0.0054418332
0.0057181342
0.0058837326
0.0059318244
0.00586263
0.0056836949
0.0054095621
0.0050607078
0.0046616618
0.0042387769
0.0038193195
0.0034297285
0.0030771245
0.0027498379
0.0021282299
0.001403255
0.0008936716
0.00050544148
0.00018216948
-7.8810719e-05
-0.0002820134
-0.0004342212
-0.00054021945
-0.00060255309
-0.00062177143
-0.00059659828
-0.00052426753
-0.00040103645
-0.0002228275
1.4041066e-05
0.00031207194
0.00067179158
0.0010909896
0.0015640638
0.0020815569
0.0026299921
0.0031920235
0.0037470349
0.0042721115
0.0047434089
0.005137862
0.0054351159
0.0056194655
0.005681507
0.0056192209
0.0054383417
0.005152026
0.0047798326
0.0043458813
0.0038765588
0.0033998955
0.0029434161
0.0025071405
0.0020655687
0.0023782053
0.0015267998
0.00094272885
0.00050955666
0.0001549711
-0.0001285868
-0.00034998265
-0.00051990087
-0.00064587485
-0.00073214228
-0.00078006172
-0.00078840455
-0.00075380326
-0.00067137561
-0.00053547908
-0.00034056156
-8.2070827e-05
0.00024261921
0.00063331324
0.0010861901
0.0015931734
0.002141612
0.0027142656
0.0032898402
0.0038439391
0.0043504804
0.0047834901
0.0051191677
0.0053380591
0.0054270662
0.0053809378
0.0052029377
0.0049046082
0.0045047209
0.0040274111
0.0034999382
0.0029525221
0.0024156596
0.0018842569
0.0013217121
0.0024866561
0.0015163583
0.00086062646
0.00038216738
-6.1344306e-06
-0.00031635832
-0.00056134225
-0.00075527051
-0.00090805938
-0.0010253179
-0.0011089319
-0.0011574717
-0.0011667432
-0.0011305093
-0.0010413399
-0.00089156924
-0.00067433113
-0.00038462519
-2.0361488e-05
0.00041667519
0.00092002141
0.0014780511
0.0020737247
0.0026850055
0.0032857142
0.0038469807
0.0043391639
0.004734103
0.0050075364
0.0051414676
0.0051261496
0.0049612904
0.0046561915
0.0042287839
0.0037036283
0.0031096244
0.0024804066
0.0018511725
0.0012132758
0.00051978999
0.002423107
0.0013428494
0.00061980296
9.7231677e-05
-0.00032580253
-0.00066564822
-0.00093880979
-0.0011626112
-0.0013490084
-0.0015046664
-0.0016317115
-0.0017282521
-0.0017890265
-0.001806211
-0.00177035
-0.0016713977
-0.00149986
-0.0012479986
-0.0009110396
-0.00048832625
1.5678203e-05
0.00059077185
0.0012203771
0.0018818837
0.0025472598
0.0031844437
0.0037593665
0.0042384502
0.0045913709
0.0047938442
0.0048301429
0.0046949682
0.0043942522
0.0039445877
0.0033711757
0.0027053155
0.0019852518
0.0012524894
0.0004960005
-0.00034112788
0.0021597805
0.00097963473
0.00019465871
-0.00036989877
-0.00082784666
-0.0011996225
-0.0015051434
-0.0017645541
-0.0019915446
-0.0021935547
-0.0023726934
-0.0025263669
-0.0026480141
-0.002727989
-0.002754557
-0.0027150017
-0.0025968472
-0.0023891775
-0.0020840089
-0.0016776548
-0.0011719805
-0.00057510479
9.7288397e-05
0.00082241934
0.0015705821
0.002306358
0.0029906224
0.0035832597
0.0040463681
0.0043476302
0.0044635056
0.0043818747
0.0041036964
0.0036431622
0.0030258777
0.0022861368
0.0014680413
0.00062104948
-0.0002674625
-0.0012646293
0.0016714828
0.00040259535
-0.00043816264
-0.0010420002
-0.0015345866
-0.0019402996
-0.0022822514
-0.0025831261
-0.0028580858
-0.0031151112
-0.0033560837
-0.0035775147
-0.0037713495
-0.0039259039
-0.0040269075
-0.0040586585
-0.0040053035
-0.0038522464
-0.0035876601
-0.0032040359
-0.0026996779
-0.0020802182
-0.0013591863
-0.00055897429
0.00028944685
0.0011473981
0.0019703056
0.0027104965
0.0033208261
0.0037587896
0.0039906505
0.003995103
0.0037659897
0.003313444
0.0026626438
0.0018510793
0.00092991431
-4.163404e-05
-0.0010772498
-0.0022550988
0.00093581694
-0.00040960222
-0.0012993946
-0.0019394631
-0.0024662022
-0.0029077781
-0.0032903034
-0.0036387577
-0.0039695621
-0.0042910605
-0.0046047566
-0.0049061342
-0.005185511
-0.0054289983
-0.0056195595
-0.0057381865
-0.0057652175
-0.0056818106
-0.0054715722
-0.0051222901
-0.0046277166
-0.0039895034
-0.0032181682
-0.0023345986
-0.001370223
-0.00036656777
0.00062623683
0.0015521607
0.002353187
0.0029741862
0.0033682301
0.0035016671
0.0033582856
0.00294177
0.0022753467
0.0013993517
0.00037300878
-0.00073274671
-0.0019322222
-0.003315853
-6.6395104e-05
-0.0014751121
-0.0024066973
-0.0030797402
-0.0036400631
-0.0041194421
-0.0045468054
-0.00494922
-0.0053442105
-0.0057403744
-0.0061387586
-0.0065337576
-0.0069139982
-0.007263292
-0.0075616658
-0.0077865187
-0.0079139436
-0.0079202432
-0.0077836525
-0.007486251
-0.0070160324
-0.006369108
-0.0055515452
-0.0045811828
-0.0034886062
-0.0023173106
-0.0011226941
3.0370093e-05
0.0010715434
0.001930548
0.002543775
0.0028611731
0.0028524384
0.0025113468
0.0018567376
0.00093073919
-0.00019871637
-0.001446933
-0.0028284255
-0.004447401
-0.0013505739
-0.0028084506
-0.0037741853
-0.004476796
-0.0050700673
-0.0055891674
-0.0060656581
-0.006528521
-0.0069962907
-0.0074777884
-0.0079736125
-0.0084770917
-0.0089751802
-0.0094493749
-0.0098766798
-0.010230689
-0.010482863
-0.010604045
-0.010566253
-0.010344747
-0.0099203722
-0.0092821137
-0.0084296418
-0.0073757648
-0.006148329
-0.0047912561
-0.0033643041
-0.0019411712
-0.00060562525
0.00055448173
0.0014550758
0.0020248386
0.0022140607
0.002001686
0.001398394
0.00044605158
-0.00077857442
-0.0021749823
-0.0037574668
-0.0056456391
-0.0029278142
-0.0044200361
-0.0054119828
-0.0061406065
-0.0067660329
-0.0073265703
-0.0078562377
-0.0083857971
-0.0089347671
-0.0095122496
-0.010118502
-0.010745914
-0.011379884
-0.011999672
-0.012579267
-0.013088349
-0.013493456
-0.013759447
-0.013851308
-0.013736348
-0.013386784
-0.012782687
-0.011915168
-0.0107896
-0.0094285833
-0.007874135
-0.0061885924
-0.0044536411
-0.0027669461
-0.0012360063
3.0796375e-05
0.00093537788
0.0014020327
0.001388186
0.0008907279
-5.2309808e-05
-0.0013560644
-0.0029023216
-0.0047046967
-0.0068998497
-0.0048043699
-0.0063157995
-0.0073258657
-0.008076758
-0.0087331975
-0.0093363556
-0.0099225544
-0.010524257
-0.011162017
-0.011845367
-0.012574436
-0.013340916
-0.014128881
-0.014915545
-0.015671996
-0.016364002
-0.016953024
-0.017397547
-0.017654836
-0.017683197
-0.017444757
-0.016908788
-0.016055519
-0.014880155
-0.013397007
-0.01164307
-0.0096804473
-0.0075968211
-0.005503147
-0.003527851
-0.0018071485
-0.00047172945
0.00036896899
0.00064225338
0.00032325338
-0.00055959948
-0.0019155427
-0.0036072028
-0.0056470624
-0.0081903601
-0.0069812725
-0.0084969421
-0.0095170564
-0.010286207
-0.010971882
-0.011617828
-0.012262564
-0.012940259
-0.013672654
-0.014469968
-0.01533252
-0.016251658
-0.017210486
-0.018184487
-0.019142085
-0.020045273
-0.020850416
-0.021509413
-0.021971319
-0.022184577
-0.022099926
-0.021674036
-0.020873855
-0.019681527
-0.018099622
-0.016156295
-0.013909556
-0.011449727
-0.0088989256
-0.0064063924
-0.0041387645
-0.0022650004
-0.00093682951
-0.00026756289
-0.00031453079
-0.001067589
-0.0024345498
-0.004258487
-0.0065504976
-0.0094857041
-0.0094541515
-0.010959917
-0.011982251
-0.012765269
-0.013477377
-0.014164624
-0.014867703
-0.015622614
-0.016452574
-0.017368876
-0.018372466
-0.01945481
-0.020598504
-0.021777728
-0.022958616
-0.024099651
-0.025152255
-0.026061712
-0.026768614
-0.027210969
-0.027327129
-0.027059612
-0.026359887
-0.025194153
-0.023549575
-0.021441156
-0.018918025
-0.016068379
-0.013021541
-0.0099454537
-0.0070380004
-0.0045110478
-0.0025673419
-0.001372923
-0.0010312284
-0.0015627381
-0.0028816017
-0.0048128976
-0.007366724
-0.010739135
-0.012213323
-0.0136967
-0.014713953
-0.015505909
-0.016240127
-0.016964732
-0.017722702
-0.018552176
-0.019478319
-0.02051405
-0.021661518
-0.022912874
-0.024250751
-0.025648552
-0.027070589
-0.02847224
-0.02980028
-0.030993557
-0.031984194
-0.032699522
-0.033064905
-0.033007583
-0.032461712
-0.031375215
-0.029716091
-0.027481691
-0.024706846
-0.021471622
-0.017906687
-0.01419412
-0.010561269
-0.0072653995
-0.0045680548
-0.0027009705
-0.0018301625
-0.0020233409
-0.0032131993
-0.0052115622
-0.0080293152
-0.011884346
-0.015244214
-0.016695423
-0.01770117
-0.018496399
-0.019246253
-0.020000828
-0.020805719
-0.021701777
-0.02271683
-0.023866185
-0.02515393
-0.026573574
-0.028108406
-0.029731612
-0.03140621
-0.033084956
-0.034710403
-0.03621531
-0.03752358
-0.038551948
-0.039212618
-0.039416972
-0.039080606
-0.038131746
-0.036515618
-0.034207756
-0.031223085
-0.027626687
-0.023543021
-0.019161148
-0.014732819
-0.010559861
-0.0069679418
-0.004266946
-0.0027040375
-0.0024152962
-0.0033698039
-0.0053756462
-0.0084488608
-0.012830264
-0.018528175
-0.01994143
-0.020930556
-0.02172239
-0.022478465
-0.023250977
-0.02408882
-0.025036514
-0.026125611
-0.027374825
-0.028791093
-0.030370067
-0.032096348
-0.03394347
-0.035873664
-0.037837545
-0.03977392
-0.041609926
-0.043261686
-0.044635719
-0.045631325
-0.046144258
-0.046071895
-0.045318461
-0.043807379
-0.041488121
-0.038350301
-0.034436941
-0.029857601
-0.024798846
-0.019528245
-0.014387017
-0.00976618
-0.0060637504
-0.0036271662
-0.0026861195
-0.0032705191
-0.0052008831
-0.0085070623
-0.013454768
-0.022043767
-0.023418859
-0.02438805
-0.025168442
-0.025917371
-0.026689666
-0.027538757
-0.028514364
-0.02965328
-0.030978974
-0.032502335
-0.034222027
-0.03612462
-0.038184502
-0.040363529
-0.042610565
-0.044861083
-0.047037068
-0.049047403
-0.050788991
-0.052148843
-0.053007431
-0.053243494
-0.052740164
-0.051395054
-0.049129868
-0.045904934
-0.041734786
-0.036705179
-0.03098917
-0.024858367
-0.018683433
-0.012916369
-0.0080485541
-0.0045449835
-0.0027568398
-0.0028062084
-0.0045508078
-0.0080495968
-0.013597225
-0.025768577
-0.027112864
-0.028061131
-0.028820042
-0.029543143
-0.030289115
-0.031117998
-0.03208705
-0.03324045
-0.034608165
-0.036206345
-0.038037566
-0.040090964
-0.042342142
-0.044752814
-0.047270283
-0.049826926
-0.052339917
-0.054711394
-0.056829312
-0.058569225
-0.059797265
-0.060374542
-0.060163231
-0.059036054
-0.056885769
-0.05364087
-0.049282471
-0.043864538
-0.037535342
-0.030556613
-0.023314085
-0.016309966
-0.01012728
-0.0053609788
-0.0025115876
-0.0018307956
-0.0032484721
-0.0068775534
-0.013049708
-0.029681709
-0.031012653
-0.031941817
-0.032666183
-0.033337523
-0.034020747
-0.034785836
-0.035701023
-0.036820816
-0.038183886
-0.039813126
-0.041715897
-0.043884312
-0.046295304
-0.04891039
-0.051675196
-0.054518944
-0.057354083
-0.060076304
-0.062565167
-0.064685598
-0.0662905
-0.067224726
-0.067330768
-0.066457495
-0.064469589
-0.061262954
-0.056782472
-0.051044383
-0.04416217
-0.036373365
-0.028061344
-0.019761596
-0.012138668
-0.0059218186
-0.0017849823
-0.0001505786
-0.0010664012
-0.0047371729
-0.011546701
-0.033767207
-0.035115673
-0.036030642
-0.036702552
-0.037286093
-0.037856685
-0.038499403
-0.039298374
-0.040322298
-0.041621222
-0.043226358
-0.04515056
-0.047389009
-0.049919683
-0.052703416
-0.055683635
-0.058785948
-0.061917796
-0.064968389
-0.067809163
-0.070295057
-0.072266764
-0.073554361
-0.073982608
-0.073377293
-0.071577851
-0.068448453
-0.063897272
-0.057899697
-0.050527161
-0.041980339
-0.032622051
-0.022999633
-0.013840545
-0.0060021897
-0.00034788755
0.0024884715
0.0022854995
-0.0013074584
-0.0087529231
-0.038018924
-0.039433495
-0.040341978
-0.040935462
-0.041380739
-0.041771076
-0.042214398
-0.04281748
-0.043668079
-0.04483061
-0.046346061
-0.048233103
-0.050489555
-0.053093573
-0.056004268
-0.059161806
-0.062487244
-0.06588228
-0.069229194
-0.07239117
-0.075213443
-0.077525211
-0.079142841
-0.079874599
-0.079527011
-0.077914959
-0.074873638
-0.070276293
-0.064057333
-0.05624254
-0.04698662
-0.036615595
-0.025665598
-0.014901644
-0.005291744
0.0021073523
0.006415233
0.0071744782
0.003815103
-0.0042484785
-0.042447852
-0.044000423
-0.044911347
-0.045386714
-0.045622202
-0.04574105
-0.045885298
-0.046193261
-0.046777458
-0.047719627
-0.049071472
-0.050857065
-0.053075635
-0.055703882
-0.058697442
-0.061991545
-0.065501213
-0.069121182
-0.072725917
-0.076169768
-0.079288103
-0.081898872
-0.083805453
-0.084800911
-0.084673996
-0.083217808
-0.080241384
-0.075586039
-0.069147523
-0.06090607
-0.050965939
-0.03960447
-0.027325423
-0.014902668
-0.0033873821
0.005980269
0.01204937
0.014062538
0.011136092
0.0024903705
-0.047093918
-0.048886628
-0.049805757
-0.050099685
-0.050022605
-0.049747073
-0.049464924
-0.049356978
-0.049566524
-0.050194851
-0.051304143
-0.052922203
-0.055047281
-0.057651998
-0.060685974
-0.064077142
-0.067732455
-0.071537974
-0.075359365
-0.079040627
-0.082406965
-0.085264772
-0.087404538
-0.088604735
-0.088637517
-0.087275889
-0.084305419
-0.079538815
-0.072836771
-0.06413683
-0.053492767
-0.04112695
-0.02749447
-0.01335026
0.0002050408
0.011771251
0.019917754
0.02352809
0.021289528
0.012118483
-0.052046118
-0.054218951
-0.055138683
-0.055147048
-0.054607804
-0.053772469
-0.052903213
-0.052235629
-0.051948831
-0.052163961
-0.052951326
-0.054338876
-0.056319922
-0.058859165
-0.061896984
-0.065350708
-0.069116868
-0.073070622
-0.07706874
-0.080941013
-0.084503059
-0.087548824
-0.089855385
-0.091186467
-0.091298628
-0.08994446
-0.086888053
-0.081916179
-0.07485782
-0.065611647
-0.054183723
-0.040740109
-0.025677089
-0.0097072966
0.0060544859
0.02008146
0.030669288
0.036292944
0.035075515
0.025464883
-0.057478792
-0.060214796
-0.06109203
-0.06064043
-0.059419168
-0.057801729
-0.056145105
-0.054751004
-0.053836174
-0.053538135
-0.053929597
-0.055032402
-0.056829007
-0.059270895
-0.062285926
-0.06577576
-0.069624933
-0.073695734
-0.077830389
-0.081849528
-0.085554245
-0.088725526
-0.091126543
-0.092505743
-0.092601704
-0.091149278
-0.087890085
-0.082585362
-0.075034228
-0.065099142
-0.052741237
-0.038071191
-0.021420922
-0.0034428421
0.014767739
0.031596578
0.045083814
0.0532557
0.053516072
0.043606844
-0.063719627
-0.067238375
-0.067947991
-0.066741649
-0.064513639
-0.061816707
-0.059126962
-0.056818048
-0.055139144
-0.054234354
-0.054168188
-0.054946782
-0.056533758
-0.058861236
-0.061837123
-0.065347635
-0.069259985
-0.073421675
-0.077660508
-0.081783998
-0.085579247
-0.088813252
-0.091234314
-0.09257464
-0.092554585
-0.090888916
-0.087295922
-0.081510281
-0.073300092
-0.0624908
-0.04899835
-0.032876547
-0.014387127
0.0058941385
0.02692372
0.047044133
0.064066858
0.075530551
0.077938759
0.068004651
-0.071381803
-0.075894502
-0.076133376
-0.073673233
-0.069959127
-0.065788295
-0.061769715
-0.058340974
-0.055765948
-0.054176022
-0.053610486
-0.054046385
-0.055417594
-0.057629686
-0.060566192
-0.064092474
-0.068056868
-0.072290256
-0.076605165
-0.080794634
-0.084631526
-0.087868313
-0.090237859
-0.091455435
-0.091222356
-0.089231591
-0.085175905
-0.078760519
-0.069718281
-0.057832224
-0.042966148
-0.025108709
-0.004439738
0.018569526
0.042964233
0.067104418
0.088610184
0.10448268
0.11010425
0.10076013
-0.081632421
-0.087182641
-0.086271167
-0.081717214
-0.075815525
-0.069655678
-0.063962091
-0.059201381
-0.055614454
-0.05328762
-0.052210274
-0.05231177
-0.053485053
-0.055600334
-0.058511933
-0.062060919
-0.066075174
-0.070368012
-0.074736328
-0.078958703
-0.082793966
-0.085980322
-0.088235433
-0.089257692
-0.088729089
-0.086319765
-0.081694574
-0.074525562
-0.064503694
-0.051359533
-0.034890228
-0.014998377
0.0082481214
0.034514802
0.063012944
0.092225459
0.11965945
0.14172204
0.15240399
0.14512421
-0.096760771
-0.10273908
-0.099198859
-0.091156174
-0.082063427
-0.073262376
-0.065508727
-0.059217911
-0.054541097
-0.051470306
-0.049911102
-0.0497239
-0.050746739
-0.05280691
-0.055725413
-0.059317204
-0.063389274
-0.067737737
-0.072144721
-0.076375511
-0.080176231
-0.083272236
-0.085367408
-0.086144573
-0.085267481
-0.082383671
-0.077129143
-0.069139422
-0.058056487
-0.043545594
-0.025316038
-0.003151563
0.023040754
0.053141183
0.086633246
0.1222829
0.15778075
0.18895156
0.20809778
0.20632761
-0.12134032
-0.12518796
-0.11587373
-0.10208184
-0.088417956
-0.076198926
-0.066006384
-0.058052854
-0.052291946
-0.048550879
-0.046609039
-0.046233676
-0.047195458
-0.049273382
-0.052253705
-0.055926008
-0.060078237
-0.064491651
-0.068936203
-0.073166562
-0.076918932
-0.079908681
-0.081828846
-0.082349644
-0.081119578
-0.077765277
-0.071896685
-0.06311113
-0.050996943
-0.035142529
-0.015146115
0.0093688618
0.038725306
0.07312958
0.11251968
0.1562625
0.20263078
0.24752305
0.28130085
0.29235645
-0.16445776
-0.1584335
-0.13714899
-0.11415807
-0.094107925
-0.077631822
-0.064738496
-0.055162412
-0.04849054
-0.044292207
-0.042173529
-0.041788116
-0.042833172
-0.045040427
-0.04816553
-0.051977861
-0.056251594
-0.060758148
-0.065259968
-0.069505517
-0.073225353
-0.076129146
-0.077903583
-0.078211336
-0.076691322
-0.07294858
-0.066578484
-0.057141387
-0.044173087
-0.02718107
-0.0056367311
0.021034626
0.053463968
0.092331474
0.13829613
0.19182677
0.25266789
0.3175113
0.37626845
0.41537063
-0.24629462
-0.20631868
-0.16213097
-0.12552961
-0.097144376
-0.075878893
-0.060488277
-0.049753072
-0.042660983
-0.038436951
-0.036491094
-0.036366146
-0.037698123
-0.040185938
-0.043568045
-0.047605031
-0.052066727
-0.056722521
-0.06133397
-0.065649122
-0.069398153
-0.072290089
-0.074010459
-0.074220678
-0.072559345
-0.068606365
-0.061962462
-0.052156637
-0.038683639
-0.020981825
0.0015955543
0.02982514
0.064686333
0.10746487
0.15987112
0.22417791
0.30290557
0.3955323
0.49624353
0.60321242
-0.42543939
-0.26573077
-0.17722199
-0.12463661
-0.089117232
-0.065103362
-0.049324572
-0.039186052
-0.032984448
-0.029674844
-0.02857149
-0.029187542
-0.03115762
-0.034190701
-0.03803842
-0.042474141
-0.047278983
-0.052232012
-0.057103069
-0.061647372
-0.065601414
-0.068679791
-0.070572471
-0.070941353
-0.06940864
-0.065630512
-0.059133059
-0.049453505
-0.036075416
-0.018403834
0.0042712657
0.032847237
0.068542718
0.11314218
0.16943678
0.24201735
0.33806624
0.465916
0.64305482
0.92086239
-0.79331335
-0.32444257
-0.14899782
-0.087725784
-0.055346187
-0.035999883
-0.025091918
-0.019201371
-0.016355904
-0.015619485
-0.016494726
-0.018654545
-0.021853669
-0.025889039
-0.030576057
-0.035734455
-0.041179674
-0.046716923
-0.052136632
-0.057210818
-0.061690141
-0.065301537
-0.06774654
-0.068701571
-0.067825165
-0.064708602
-0.058942413
-0.05007306
-0.037593984
-0.020927732
0.0006101396
0.027880855
0.062058571
0.10491319
0.15945116
0.23152783
0.3338513
0.49409206
0.79001622
1.3837782
1.1536066e-05
-0.00013132562
-0.00044351647
-0.00084607416
-0.0012644774
-0.001653277
-0.0019816183
-0.0022306818
-0.0023898383
-0.0024533848
-0.0024183822
-0.0022833748
-0.0020477938
-0.0017118831
-0.0012769998
-0.00074615109
-0.00012464657
0.00057924734
0.0013537509
0.0021832067
0.0030479847
0.0039247263
0.0047869513
0.0056060666
0.006352737
0.0069985678
0.007517994
0.0078902274
0.0081010849
0.00814453
0.0080237823
0.0077519165
0.0073519234
0.0068562773
0.0063058855
0.0057482878
0.0052384532
0.0048325963
0.0045924638
0.0045538672
0.00015347283
8.2055319e-06
-0.00024194632
-0.00055080213
-0.00087295936
-0.0011741083
-0.0014300196
-0.0016245244
-0.0017472662
-0.0017918025
-0.0017541909
-0.0016320657
-0.0014241717
-0.0011302774
-0.00075137472
-0.00029006965
0.00024892979
0.00085831657
0.001527759
0.0022436235
0.0029889065
0.0037435781
0.0044849397
0.0051886495
0.0058298677
0.0063846972
0.0068318015
0.0071540696
0.0073401759
0.0073858668
0.0072948304
0.0070790682
0.0067587553
0.0063616272
0.0059219161
0.0054786804
0.0050731083
0.0047484682
0.0045498334
0.0045145279
0.00047174126
0.00025364583
-2.1447213e-06
-0.00028123987
-0.00056155214
-0.00081852813
-0.0010343956
-0.0011971041
-0.0012984497
-0.0013329152
-0.0012967835
-0.0011875216
-0.001003488
-0.00074392689
-0.00040918457
-1.0790476e-06
0.00047665083
0.0010178897
0.0016137489
0.0022523014
0.002918543
0.0035945138
0.0042598456
0.0048925404
0.0054700686
0.0059707116
0.0063750613
0.0066675647
0.0068379774
0.0068825663
0.0068048961
0.0066160818
0.0063344716
0.0059848263
0.0055970934
0.0052047499
0.0048424863
0.0045445534
0.0043471639
0.0042799807
0.00089336487
0.0005616792
0.00026117493
-2.4630662e-05
-0.00029532148
-0.00053451609
-0.00073067883
-0.00087660594
-0.00096722315
-0.00099883647
-0.00096863541
-0.00087433461
-0.00071406206
-0.00048647807
-0.00019107244
0.00017141373
0.00059849966
0.0010854732
0.0016249581
0.0022066094
0.0028170025
0.0034396918
0.0040557085
0.0046442526
0.0051837563
0.0056532114
0.0060336649
0.0063097588
0.0064711722
0.0065138152
0.0064406165
0.0062617573
0.0059942649
0.0056610026
0.0052891965
0.0049086826
0.0045501634
0.0042436744
0.0040157919
0.0038802513
0.0013442188
0.00088386227
0.00052107225
0.00021079622
-6.6992368e-05
-0.00030307372
-0.00049181783
-0.00063098013
-0.0007188976
-0.0007540028
-0.00073463442
-0.00065889232
-0.00052469429
-0.00033003043
-7.3366455e-05
0.00024584786
0.00062661151
0.001065801
0.0015576557
0.0020933865
0.0026609715
0.0032451884
0.0038279658
0.0043890552
0.0049070581
0.0053607641
0.0057307053
0.0060007793
0.0061597655
0.006202565
0.0061310136
0.005954138
0.0056877472
0.0053533315
0.0049763516
0.0045842748
0.004205293
0.0038666783
0.0035841215
0.0033603329
0.0017711584
0.0011770634
0.00074292011
0.00039694678
0.00010029176
-0.00014401629
-0.00033572969
-0.00047732617
-0.0005704891
-0.00061579076
-0.00061274143
-0.00055981564
-0.00045465795
-0.00029447072
-7.653533e-05
0.00020117289
0.00053931505
0.00093651116
0.0013887123
0.0018886908
0.0024257218
0.0029855321
0.0035505538
0.0041005593
0.004613661
0.0050676676
0.0054417184
0.0057180453
0.0058836585
0.0059317312
0.0058624987
0.0056835505
0.00540945
0.0050606354
0.0046615841
0.0042386469
0.0038191331
0.0034295947
0.0030772007
0.0027495318
0.002128954
0.001402741
0.00089381389
0.00050568636
0.00018230471
-7.8692721e-05
-0.00028189551
-0.00043411509
-0.00054012659
-0.00060247176
-0.0006217011
-0.00059653979
-0.00052422304
-0.0004010084
-0.00022281636
1.4037929e-05
0.00031205798
0.00067176705
0.0010909502
0.0015640045
0.0020814791
0.0026299054
0.0031919399
0.0037469567
0.0042720269
0.0047433036
0.0051377392
0.0054350005
0.0056193811
0.0056814449
0.0056191419
0.0054382196
0.005151884
0.0047797185
0.0043458057
0.0038764676
0.0033997172
0.0029432699
0.0025072975
0.0020651875
0.0023790326
0.0015261396
0.00094285597
0.00050981071
0.00015509827
-0.00012847489
-0.00034986452
-0.00051979131
-0.00064577763
-0.00073205697
-0.00077998779
-0.00078834138
-0.00075375121
-0.00067133722
-0.00053545796
-0.00034055906
-8.2083968e-05
0.00024259548
0.00063328068
0.0010861442
0.0015931071
0.002141524
0.0027141666
0.0032897461
0.003843856
0.0043503954
0.0047833836
0.0051190381
0.0053379328
0.0054269725
0.0053808712
0.0052028571
0.0049044849
0.0045045793
0.0040273003
0.0034998454
0.0029523517
0.0024155257
0.0018845083
0.0013212319
0.0024875831
0.0015155658
0.000860744
0.0003824353
-6.0100692e-06
-0.00031624943
-0.0005612227
-0.00075515603
-0.00090795455
-0.0010252238
-0.00110885
-0.0011574019
-0.0011666843
-0.001130461
-0.001041305
-0.00089155267
-0.00067433544
-0.00038464743
-2.0394974e-05
0.00041663446
0.0009199696
0.0014779781
0.0020736267
0.002684893
0.003285607
0.0038468895
0.0043390763
0.0047339948
0.0050074014
0.005141332
0.0051260457
0.0049612141
0.0046561022
0.0042286588
0.0037034994
0.0031095077
0.0024802201
0.0018510522
0.0012136368
0.0005192126
0.0024241296
0.0013419377
0.00061991355
9.7514836e-05
-0.00032567745
-0.00066553936
-0.00093868815
-0.001162493
-0.0013488973
-0.0015045632
-0.001631619
-0.0017281727
-0.0017889603
-0.0018061563
-0.0017703056
-0.0016713663
-0.0014998476
-0.0012480095
-0.00091107147
-0.00048837036
1.5629331e-05
0.00059071339
0.0012202982
0.0018817771
0.0025471347
0.003184323
0.0037592655
0.0042383583
0.0045912614
0.0047937074
0.004830004
0.0046948581
0.004394165
0.0039444898
0.0033710616
0.0027051866
0.0019850332
0.0012523684
0.00049647817
-0.00034180191
0.0021608934
0.0009786186
0.00019476498
-0.00036960053
-0.00082771859
-0.0011995101
-0.0015050164
-0.0017644307
-0.0019914278
-0.0021934437
-0.0023725897
-0.0025262742
-0.0026479356
-0.0027279254
-0.0027545058
-0.0027149606
-0.0025968185
-0.0023891685
-0.0020840257
-0.0016776953
-0.0011720334
-0.00057516487
9.7221911e-05
0.0008223345
0.0015704681
0.0023062221
0.0029904892
0.0035831483
0.0040462699
0.0043475181
0.0044633694
0.0043817369
0.0041035819
0.0036430661
0.0030257857
0.0022860175
0.0014677958
0.00062091941
-0.00026686392
-0.0012654118
0.0016726782
0.00040149023
-0.00043805694
-0.001041687
-0.0015344551
-0.0019401821
-0.002282116
-0.0025829941
-0.0028579612
-0.0031149925
-0.0033559706
-0.0035774089
-0.0037712548
-0.0039258247
-0.0040268451
-0.0040586099
-0.0040052654
-0.0038522201
-0.0035876536
-0.0032040576
-0.0026997292
-0.0020802861
-0.0013592592
-0.00055905054
0.00028935479
0.0011472771
0.0019701609
0.0027103532
0.003320705
0.003758684
0.0039905355
0.0039949692
0.0037658547
0.0033133289
0.0026625564
0.0018509738
0.00092965181
-4.1769437e-05
-0.0010765182
-0.0022560097
0.00093708412
-0.00041078161
-0.0012992855
-0.0019391339
-0.0024660662
-0.0029076555
-0.0032901593
-0.0036386148
-0.0039694263
-0.0042909317
-0.0046046345
-0.0049060181
-0.0051854018
-0.0054289003
-0.0056194782
-0.0057381242
-0.0057651711
-0.0056817755
-0.0054715485
-0.0051222865
-0.0046277445
-0.0039895616
-0.0032182476
-0.0023346847
-0.0013703111
-0.00036666908
0.0006261084
0.0015520093
0.0023530369
0.002974058
0.0033681183
0.0035015503
0.003358155
0.0029416422
0.0022752511
0.0013992491
0.00037272757
-0.00073288139
-0.0019313346
-0.0033169139
-6.5067873e-05
-0.0014763518
-0.0024065829
-0.0030793939
-0.00363992
-0.0041193135
-0.0045466532
-0.0049490667
-0.0053440619
-0.0057402318
-0.0061386241
-0.0065336312
-0.0069138782
-0.0072631786
-0.0075615637
-0.0077864344
-0.0079138806
-0.0079201987
-0.0077836209
-0.0074862313
-0.0070160328
-0.0063691386
-0.0055516108
-0.0045812738
-0.0034887062
-0.0023174123
-0.0011228068
3.0233769e-05
0.0010713874
0.001930395
0.0025436433
0.0028610578
0.0028523206
0.0025112244
0.0018566401
0.00093063219
-0.00019902785
-0.0014470679
-0.002827354
-0.0044486349
-0.0013491983
-0.0028097357
-0.0037740655
-0.0044764338
-0.0050699145
-0.0055890304
-0.0060654974
-0.0065283585
-0.0069961308
-0.0074776315
-0.0079734622
-0.0084769511
-0.008975049
-0.0094492508
-0.0098765623
-0.010230583
-0.010482776
-0.010603981
-0.010566211
-0.010344721
-0.0099203586
-0.0092821194
-0.0084296789
-0.0073758391
-0.0061484318
-0.0047913704
-0.0033644206
-0.0019412964
-0.00060576905
0.00055432429
0.0014549248
0.002024708
0.0022139437
0.0020015744
0.0013983078
0.00044594564
-0.00077892496
-0.0021751228
-0.0037561825
-0.0056470742
-0.0029264022
-0.0044213493
-0.0054118578
-0.0061402314
-0.0067658699
-0.0073264224
-0.0078560661
-0.0083856248
-0.0089345974