/*--------------------------------*- C++ -*----------------------------------*\
  =========                 |
  \\      /  F ield         | OpenFOAM: The Open Source CFD Toolbox
   \\    /   O peration     | Website:  https://openfoam.org
    \\  /    A nd           | Version:  7
     \\/     M anipulation  |
\*---------------------------------------------------------------------------*/
FoamFile
{
    version     2.0;
    format      ascii;
    class       surfaceScalarField;
    location    "45";
    object      phi;
}
// * * * * * * * * * * * * * * * * * * * * * * * * * * * * * * * * * * * * * //

dimensions      [0 3 -1 0 0 0 0];

internalField   nonuniform List<scalar> 
45600
(
2.752064e-07
-2.8220253e-07
-7.8473111e-11
4.0335333e-07
-1.281219e-07
-2.4664544e-11
1.3257313e-07
2.7078735e-07
-6.6165893e-12
-5.6230004e-07
6.948749e-07
-1.427942e-12
-1.6393049e-06
1.0770014e-06
3.6338585e-12
-3.0276179e-06
1.3883059e-06
7.098255e-12
-4.6524624e-06
1.6248349e-06
9.394007e-12
-6.4450964e-06
1.7926226e-06
1.1003582e-11
-8.3454243e-06
1.9003152e-06
1.2119617e-11
-1.0301444e-05
1.956007e-06
1.2849507e-11
-1.2267404e-05
1.9659466e-06
1.3275098e-11
-1.4201583e-05
1.9341667e-06
1.3428899e-11
-1.6064241e-05
1.862645e-06
1.3301681e-11
-1.7816029e-05
1.7517764e-06
1.2870025e-11
-1.9417055e-05
1.601016e-06
1.2118564e-11
-2.082666e-05
1.4095949e-06
1.1053907e-11
-2.2003909e-05
1.1772416e-06
9.7027867e-12
-2.2908771e-05
9.0485597e-07
8.0813703e-12
-2.350387e-05
5.9509445e-07
6.1757472e-12
-2.3756703e-05
2.5283009e-07
3.9346212e-12
-2.3642143e-05
-1.1456151e-07
1.3617729e-12
-2.3145013e-05
-4.9712831e-07
-1.4203835e-12
-2.226258e-05
-8.8242716e-07
-4.2038009e-12
-2.1006624e-05
-1.2559475e-06
-6.8008828e-12
-1.9404868e-05
-1.6017438e-06
-9.1725721e-12
-1.7501558e-05
-1.9032973e-06
-1.1398769e-11
-1.535697e-05
-2.144575e-06
-1.3479553e-11
-1.3045755e-05
-2.3112013e-06
-1.512806e-11
-1.0654098e-05
-2.3916392e-06
-1.5858948e-11
-8.2758126e-06
-2.378266e-06
-1.5406673e-11
-6.0075635e-06
-2.2682315e-06
-1.4079925e-11
-3.9435286e-06
-2.0640233e-06
-1.2530095e-11
-2.1697833e-06
-1.7737395e-06
-1.0977973e-11
-7.5853935e-07
-1.4112386e-06
-8.7607631e-12
2.3820978e-07
-9.9674062e-07
-5.1674998e-12
7.9654556e-07
-5.5832618e-07
-1.0108118e-12
9.2927549e-07
-1.3273127e-07
2.932107e-12
7.0557641e-07
2.2368585e-07
5.7028463e-12
2.9045736e-07
4.1509701e-07
7.8090129e-12
2.9044889e-07
4.8212669e-13
1.3290846e-07
-4.1508862e-07
-2.2052194e-11
-3.0166145e-07
3.0646291e-07
-1.3952715e-11
-1.6153824e-06
1.5845213e-06
-1.221112e-11
-3.874693e-06
2.9541988e-06
-1.3009441e-11
-7.0073312e-06
4.2096536e-06
-1.4228313e-11
-1.0879744e-05
5.2607339e-06
-1.5805687e-11
-1.533516e-05
6.0802678e-06
-1.7235386e-11
-2.0216001e-05
6.6734807e-06
-1.8244518e-11
-2.5374061e-05
7.0583944e-06
-1.8815011e-11
-3.0673275e-05
7.2552406e-06
-1.8975813e-11
-3.5988543e-05
7.2812344e-06
-1.8726073e-11
-4.1202831e-05
7.1484745e-06
-1.8057594e-11
-4.6203974e-05
6.8638075e-06
-1.6976487e-11
-5.0882102e-05
6.4299228e-06
-1.550706e-11
-5.5128234e-05
5.8471648e-06
-1.3688357e-11
-5.8834321e-05
5.1156964e-06
-1.1556874e-11
-6.1894805e-05
4.2377372e-06
-9.1129339e-12
-6.4209611e-05
3.2196703e-06
-6.327473e-12
-6.5688361e-05
2.0738492e-06
-3.163537e-12
-6.6255471e-05
8.1994226e-07
2.9690303e-13
-6.5855986e-05
-5.1404757e-07
3.8599186e-12
-6.4460812e-05
-1.892308e-06
7.3642934e-12
-6.207248e-05
-3.2707681e-06
1.0677229e-11
-5.8729091e-05
-4.59935e-06
1.3865554e-11
-5.4507077e-05
-5.8237731e-06
1.7000586e-11
-4.9521906e-05
-6.8884856e-06
1.9916883e-11
-4.3926396e-05
-7.7401018e-06
2.2150124e-11
-3.7906448e-05
-8.3311696e-06
2.3252465e-11
-3.1674139e-05
-8.6239717e-06
2.3254966e-11
-2.5458396e-05
-8.5940355e-06
2.2731762e-11
-1.9493608e-05
-8.2330426e-06
2.2184919e-11
-1.4006718e-05
-7.5509304e-06
2.1299908e-11
-9.2032879e-06
-6.5771818e-06
1.9089222e-11
-5.2529015e-06
-5.3616397e-06
1.5141885e-11
-2.2739823e-06
-3.9756786e-06
1.0624166e-11
-3.1727743e-07
-2.5150478e-06
7.2946635e-12
6.57051e-07
-1.1070602e-06
5.2051022e-12
8.0366761e-07
7.70813e-08
5.1016347e-12
4.1784872e-07
8.0093001e-07
5.5164009e-12
7.0829616e-07
-3.6263941e-12
-2.7357463e-07
-1.4150115e-07
-1.232345e-11
-1.6274654e-06
1.6603616e-06
-7.100012e-12
-4.2893857e-06
4.2464506e-06
-8.4408914e-12
-8.2746607e-06
6.9394811e-06
-7.034862e-12
-1.3474404e-05
9.4094017e-06
-5.0824008e-12
-1.970871e-05
1.1495044e-05
-4.0493482e-12
-2.6765743e-05
1.3137303e-05
-3.3882949e-12
-3.4426611e-05
1.4334352e-05
-2.8132591e-12
-4.2478628e-05
1.5110413e-05
-2.303119e-12
-5.0720449e-05
1.5497064e-05
-1.8613092e-12
-5.8962294e-05
1.5523083e-05
-1.4721351e-12
-6.702369e-05
1.5209873e-05
-1.1046868e-12
-7.4730532e-05
1.4570652e-05
-7.2178259e-13
-8.1912719e-05
1.3612113e-05
-2.9318887e-13
-8.8403148e-05
1.2337596e-05
1.8008646e-13
-9.4038477e-05
1.0751026e-05
6.4924135e-13
-9.8661796e-05
8.8610579e-06
1.0471725e-12
-0.0001021271
6.6849699e-06
1.3390426e-12
-0.00010430523
4.2519801e-06
1.5932836e-12
-0.00010509101
1.6057191e-06
1.9140577e-12
-0.00010441064
-1.1944109e-06
2.3273071e-12
-0.00010222946
-4.0734933e-06
2.6925215e-12
-9.8558523e-05
-6.9417067e-06
2.8042932e-12
-9.3460006e-05
-9.6978682e-06
2.6144703e-12
-8.7050396e-05
-1.2233385e-05
2.3575518e-12
-7.9501001e-05
-1.4437882e-05
2.3932275e-12
-7.1035284e-05
-1.6205819e-05
2.8077987e-12
-6.1922726e-05
-1.7443728e-05
3.1913516e-12
-5.2469145e-05
-1.8077553e-05
2.9794376e-12
-4.3003676e-05
-1.8059508e-05
2.170241e-12
-3.3862821e-05
-1.7373901e-05
1.5881877e-12
-2.537223e-05
-1.6041525e-05
2.1005704e-12
-1.7826888e-05
-1.4122526e-05
3.4341489e-12
-1.1470408e-05
-1.1718121e-05
4.1356554e-12
-6.4738631e-06
-8.9722269e-06
3.2303413e-12
-2.9140442e-06
-6.074873e-06
1.6588101e-12
-7.5123346e-07
-3.2698774e-06
1.3586108e-12
1.9434732e-07
-8.6850681e-07
3.6963699e-12
2.6550214e-07
7.2977843e-07
6.7723676e-12
9.7379386e-07
1.2271045e-12
-7.4584194e-07
6.0435402e-07
-1.2627481e-11
-3.179627e-06
4.0941488e-06
-1.1832926e-12
-7.3460956e-06
8.4129265e-06
-6.6661775e-12
-1.316305e-05
1.2756442e-05
-6.0302285e-12
-2.0455816e-05
1.6702171e-05
-3.3994269e-12
-2.8992637e-05
2.0031867e-05
-2.0731623e-12
-3.8513882e-05
2.2658549e-05
-1.2273726e-12
-4.8752684e-05
2.4573154e-05
-4.740456e-13
-5.9446991e-05
2.5804721e-05
1.7318687e-13
-7.0344844e-05
2.6394917e-05
7.221713e-13
-8.1205139e-05
2.6383377e-05
1.1800422e-12
-9.1795992e-05
2.5800726e-05
1.5426302e-12
-0.00010189242
2.4667082e-05
1.8157639e-12
-0.00011127464
2.299433e-05
2.0287501e-12
-0.00011972779
2.0790746e-05
2.2269939e-12
-0.00012704362
1.8066852e-05
2.4302043e-12
-0.00013302417
1.4841606e-05
2.5920972e-12
-0.00013748743
1.1148225e-05
2.605956e-12
-0.00014027452
7.0390759e-06
2.4134962e-12
-0.00014125806
2.5892553e-06
2.0931894e-12
-0.00014035078
-2.1016928e-06
1.8254489e-12
-0.0001375144
-6.9098841e-06
1.6749255e-12
-0.00013276703
-1.168907e-05
1.5363733e-12
-0.00012618932
-1.6275585e-05
1.1521253e-12
-0.00011792789
-2.0494808e-05
3.9811959e-13
-0.00010819592
-2.4169858e-05
-4.5603049e-13
-9.7269877e-05
-2.7131856e-05
-8.7777788e-13
-8.5482416e-05
-2.9231188e-05
-6.1142824e-13
-7.3210951e-05
-3.0349014e-05
-9.763016e-14
-6.0862267e-05
-3.0408189e-05
-1.3165661e-13
-4.8853452e-05
-2.9382716e-05
-8.8344873e-13
-3.7589904e-05
-2.7305076e-05
-1.3873248e-12
-2.7441317e-05
-2.4271116e-05
-4.5337256e-13
-1.8716695e-05
-2.0442744e-05
1.7106332e-12
-1.1639461e-05
-1.604946e-05
3.3179714e-12
-6.3235746e-06
-1.1390757e-05
3.0663166e-12
-2.7515409e-06
-6.8419137e-06
2.1293872e-12
-7.5715689e-07
-2.8628958e-06
2.7629495e-12
-9.5227564e-09
-1.785435e-08
4.6724597e-12
9.6426592e-07
4.2929095e-12
-1.2279658e-06
1.8323346e-06
-1.4199022e-11
-4.788107e-06
7.6542864e-06
4.773765e-12
-1.0521539e-05
1.4146365e-05
-5.8200892e-12
-1.821433e-05
2.0449241e-05
-6.9529684e-12
-2.7603935e-05
2.6091781e-05
-4.5663297e-12
-3.8396296e-05
3.0824231e-05
-3.8186476e-12
-5.0283055e-05
3.4545311e-05
-3.4797465e-12
-6.2954784e-05
3.7244886e-05
-3.0511885e-12
-7.6109039e-05
3.8958979e-05
-2.6337929e-12
-8.9453776e-05
3.9739656e-05
-2.2231622e-12
-0.00010270747
3.9637079e-05
-1.7893505e-12
-0.00011559753
3.8690787e-05
-1.3425558e-12
-0.00012785835
3.6927897e-05
-9.1480956e-13
-0.0001392302
3.4366185e-05
-5.3057927e-13
-0.00014945975
3.1020295e-05
-1.7300715e-13
-0.00015830248
2.6909578e-05
2.2087435e-13
-0.00016552724
2.2066369e-05
7.0338586e-13
-0.00017092275
1.6543731e-05
1.2293301e-12
-0.00017430559
1.042192e-05
1.6621975e-12
-0.00017552936
3.8130148e-06
1.8942881e-12
-0.00017449413
-3.1369223e-06
1.9785198e-12
-0.00017115589
-1.024813e-05
2.1078817e-12
-0.00016553481
-1.7310155e-05
2.4524449e-12
-0.00015772191
-2.4088487e-05
2.9143478e-12
-0.0001478832
-3.0333517e-05
3.1286637e-12
-0.0001362606
-3.579246e-05
2.8177099e-12
-0.00012316896
-4.0223496e-05
2.2036614e-12
-0.00010898872
-4.3411433e-05
1.9525656e-12
-9.4153804e-05
-4.5183933e-05
2.4958552e-12
-7.9134856e-05
-4.5427139e-05
3.3731373e-12
-6.4418064e-05
-4.4099509e-05
3.5275767e-12
-5.0480366e-05
-4.1242777e-05
2.5653092e-12
-3.776214e-05
-3.6989349e-05
1.5553303e-12
-2.6638827e-05
-3.1566065e-05
1.9544901e-12
-1.7393177e-05
-2.5295113e-05
3.6087306e-12
-1.018992e-05
-1.8594014e-05
4.7376932e-12
-5.0547391e-06
-1.1977095e-05
4.4896435e-12
-1.859838e-06
-6.0578004e-06
2.9571916e-12
-3.222364e-07
-1.5554588e-06
1.3279488e-13
6.4202681e-07
6.0689759e-12
-1.6931684e-06
3.5255202e-06
-1.6744817e-11
-6.3714094e-06
1.2332518e-05
1.0156601e-11
-1.3671451e-05
2.1446413e-05
-4.8586246e-12
-2.3234057e-05
3.0011854e-05
-7.0645405e-12
-3.4695241e-05
3.7552968e-05
-4.3713501e-12
-4.7689819e-05
4.3818814e-05
-3.7967512e-12
-6.1857521e-05
4.8713017e-05
-3.6480224e-12
-7.6848065e-05
5.2235434e-05
-3.2835407e-12
-9.2323869e-05
5.4434786e-05
-2.9160618e-12
-0.00010796027
5.5376061e-05
-2.5765094e-12
-0.00012344397
5.5120777e-05
-2.2092535e-12
-0.00013847069
5.3717516e-05
-1.7867081e-12
-0.00015274323
5.120043e-05
-1.3172691e-12
-0.00016597054
4.7593499e-05
-8.4769396e-13
-0.00017786874
4.2918496e-05
-4.3281749e-13
-0.00018816405
3.720489e-05
-7.2761491e-14
-0.00019659789
3.0500208e-05
3.1448939e-13
-0.00020293384
2.2879676e-05
8.1630545e-13
-0.00020696614
1.4454222e-05
1.409232e-12
-0.0002085293
5.376166e-06
1.9310189e-12
-0.00020750812
-4.1581021e-06
2.2072396e-12
-0.00020384768
-1.3908573e-05
2.2470815e-12
-0.00019756247
-2.3595369e-05
2.2942112e-12
-0.00018874397
-3.2906992e-05
2.6261438e-12
-0.00017756589
-4.1511598e-05
3.2063837e-12
-0.00016428626
-4.9072094e-05
3.5904269e-12
-0.00014924551
-5.5264247e-05
3.3313151e-12
-0.0001328599
-5.9797046e-05
2.5800781e-12
-0.00011560967
-6.2434165e-05
2.1494915e-12
-9.8021762e-05
-6.3015056e-05
2.7014089e-12
-8.0647227e-05
-6.1474045e-05
3.8086808e-12
-6.4034178e-05
-5.7855827e-05
4.1882125e-12
-4.8697447e-05
-5.2326082e-05
3.2523188e-12
-3.5086904e-05
-4.5176615e-05
2.1004164e-12
-2.3556679e-05
-3.6825346e-05
2.2546364e-12
-1.4337872e-05
-2.7812825e-05
3.7719828e-12
-7.5174868e-06
-1.8797481e-05
5.406384e-12
-3.026726e-06
-1.0548564e-05
3.882355e-12
-6.4249644e-07
-3.939687e-06
-2.2119056e-12
-4.7575611e-10
8.262797e-12
-2.1329375e-06
5.6584778e-06
-1.9549502e-11
-7.8910765e-06
1.8090643e-05
1.490632e-11
-1.6717405e-05
3.0272746e-05
-4.1266926e-12
-2.8105741e-05
4.1400197e-05
-7.1020089e-12
-4.158509e-05
5.1032321e-05
-3.9219992e-12
-5.6714137e-05
5.8947864e-05
-3.4222083e-12
-7.3078281e-05
6.5077165e-05
-3.4190474e-12
-9.0287091e-05
6.9444248e-05
-3.0773774e-12
-0.00010797133
7.2119023e-05
-2.6931597e-12
-0.00012577927
7.3184009e-05
-2.3588727e-12
-0.00014337274
7.2714252e-05
-2.0395401e-12
-0.00016042342
7.0768192e-05
-1.6963757e-12
-0.00017661019
6.7387201e-05
-1.2904204e-12
-0.00019161814
6.2601449e-05
-8.1353689e-13
-0.00020513951
5.643987e-05
-3.2310767e-13
-0.00021687684
4.8942215e-05
9.097349e-14
-0.00022654815
4.0171513e-05
4.0475913e-13
-0.00023389407
3.0225594e-05
7.1124031e-13
-0.0002386865
1.9246653e-05
1.1436928e-12
-0.00024073842
7.4280816e-06
1.7186915e-12
-0.00023991437
-4.9821599e-06
2.2567406e-12
-0.00023614103
-1.7681922e-05
2.5142978e-12
-0.00022941747
-3.0318924e-05
2.4244151e-12
-0.00021982416
-4.2500309e-05
2.2682515e-12
-0.00020752992
-5.380584e-05
2.4553427e-12
-0.0001927961
-6.3805921e-05
3.0530519e-12
-0.0001759767
-7.2083647e-05
3.5605345e-12
-0.00015751364
-7.8260111e-05
3.3442636e-12
-0.00013792612
-8.2021679e-05
2.4461926e-12
-0.00011779373
-8.3147459e-05
1.8007395e-12
-9.7732955e-05
-8.153482e-05
2.2912818e-12
-7.8368127e-05
-7.7220657e-05
3.5397399e-12
-6.0297865e-05
-7.0396346e-05
4.1183091e-12
-4.4059523e-05
-6.1414959e-05
3.3107897e-12
-3.0094431e-05
-5.0790444e-05
2.1930976e-12
-1.8717267e-05
-3.9189995e-05
2.6465234e-12
-1.0093053e-05
-2.7421698e-05
5.1690234e-12
-4.2253111e-06
-1.6416307e-05
4.2379829e-12
-9.5848528e-07
-7.2065061e-06
-4.5529406e-12
-9.5897006e-07
1.0292903e-11
-2.5450545e-06
8.2035554e-06
-2.2334876e-11
-9.3288464e-06
2.4874417e-05
1.9148054e-11
-1.9615363e-05
4.0559267e-05
-3.6865525e-12
-3.2756849e-05
5.4541691e-05
-7.3680492e-12
-4.8175887e-05
6.6451363e-05
-3.6881026e-12
-6.5354092e-05
7.6126073e-05
-3.2458078e-12
-8.3822141e-05
8.3545218e-05
-3.4260544e-12
-0.00010315063
8.8772735e-05
-3.1774664e-12
-0.00012294162
9.1910025e-05
-2.8194333e-12
-0.00014282096
9.3063346e-05
-2.4744165e-12
-0.00016243134
9.2324642e-05
-2.1440635e-12
-0.00018142688
8.9763728e-05
-1.8320545e-12
-0.00019946925
8.5429572e-05
-1.5095928e-12
-0.00021622604
7.9358245e-05
-1.1133886e-12
-0.0002313713
7.1585129e-05
-6.1257383e-13
-0.00024458832
6.2159233e-05
-7.2548966e-14
-0.0002555746
5.1157784e-05
3.8114348e-13
-0.00026404868
3.8699673e-05
6.8846089e-13
-0.00026975868
2.4956651e-05
9.4425044e-13
-0.0002724921
1.0161498e-05
1.3314063e-12
-0.00027208669
-5.3875786e-06
1.9228491e-12
-0.00026844173
-2.1326883e-05
2.5526006e-12
-0.00026152975
-3.7230903e-05
2.872501e-12
-0.00025140739
-5.2622671e-05
2.7284128e-12
-0.00023822498
-6.6988256e-05
2.4107692e-12
-0.00022223364
-7.9797267e-05
2.4634854e-12
-0.00020378864
-9.0528652e-05
3.0886396e-12
-0.00018334762
-9.8701126e-05
3.75897e-12
-0.00016146241
-0.0001039069
3.6620535e-12
-0.00013876327
-0.0001058466
2.7153061e-12
-0.00011593535
-0.00010436274
1.9298859e-12
-9.368755e-05
-9.946846e-05
2.338206e-12
-7.2715437e-05
-9.1368461e-05
3.5766948e-12
-5.3660747e-05
-8.0469651e-05
4.1057705e-12
-3.7071086e-05
-6.7380108e-05
3.2132437e-12
-2.336395e-05
-5.2897135e-05
2.6904751e-12
-1.279932e-05
-3.7986334e-05
4.9401628e-12
-5.4648804e-06
-2.3750748e-05
3.8825739e-12
-1.2772545e-06
-1.1394121e-05
-7.292394e-12
-2.2362371e-06
1.2964613e-11
-2.9284818e-06
1.1132063e-05
-2.5027553e-11
-1.0673672e-05
3.2619584e-05
2.2986271e-11
-2.2336174e-05
5.2221773e-05
-3.4091317e-12
-3.7135975e-05
6.93415e-05
-7.7703532e-12
-5.4394109e-05
8.3709501e-05
-3.6067869e-12
-7.3517627e-05
9.5249594e-05
-3.1578779e-12
-9.3984299e-05
0.00010401189
-3.4671349e-12
-0.00011532796
0.0001101164
-3.3203116e-12
-0.00013712517
0.00011370724
-3.0402478e-12
-0.00015898353
0.00011492171
-2.7284065e-12
-0.00018053178
0.00011387289
-2.3772144e-12
-0.00020141214
0.0001106441
-2.0249396e-12
-0.00022127503
0.00010529246
-1.7084914e-12
-0.00023977618
9.7859397e-05
-1.39983e-12
-0.00025657638
8.8385324e-05
-1.0102815e-12
-0.00027134346
7.6926318e-05
-4.8065166e-13
-0.00028375659
6.3570909e-05
1.2484123e-13
-0.00029351244
4.8455517e-05
6.450111e-13
-0.00030033323
3.1777438e-05
9.7117783e-13
-0.00030397637
1.3804633e-05
1.1810686e-12
-0.00030424558
-5.1183676e-06
1.5024418e-12
-0.00030100298
-2.4569485e-05
2.1164995e-12
-0.00029418252
-4.4051361e-05
2.8421053e-12
-0.00028380326
-6.3001939e-05
3.2632438e-12
-0.00026998221
-8.0809302e-05
3.1096432e-12
-0.00025294549
-9.6833991e-05
2.6474246e-12
-0.000233036
-0.00011043815
2.5408853e-12
-0.000210716
-0.00012102112
3.137885e-12
-0.00018656267
-0.00012806023
3.9164282e-12
-0.00016125483
-0.00013115444
3.9314625e-12
-0.00013554998
-0.0001300676
3.0111128e-12
-0.00011025148
-0.00012476696
2.2114881e-12
-8.616739e-05
-0.00011545256
2.5912157e-12
-6.4063739e-05
-0.0001025733
3.6273525e-12
-4.4616673e-05
-8.6827175e-05
3.7374203e-12
-2.8368534e-05
-6.9145277e-05
3.3851941e-12
-1.5693157e-05
-5.0661716e-05
5.410482e-12
-6.7752239e-06
-3.2668683e-05
3.4887443e-12
-1.6070338e-06
-1.6562297e-05
-1.0469131e-11
-3.8432854e-06
1.5588244e-11
-3.2816997e-06
1.441379e-05
-2.760816e-11
-1.191587e-05
4.1253728e-05
2.6440858e-11
-2.4855511e-05
6.5161418e-05
-3.2074053e-12
-4.1199918e-05
8.5685915e-05
-8.212295e-12
-6.0176309e-05
0.0001026859
-3.6277762e-12
-8.1122249e-05
0.00011619554
-3.1571731e-12
-0.0001034663
0.00012635595
-3.5279732e-12
-0.00012670888
0.00013335898
-3.4271817e-12
-0.00015040465
0.00013740301
-3.2209634e-12
-0.00017414714
0.0001386642
-2.9920664e-12
-0.00019755594
0.0001372817
-2.6841721e-12
-0.00022026668
0.00013335484
-2.3044076e-12
-0.00024192389
0.00012694966
-1.9182401e-12
-0.00026217668
0.00011811219
-1.5867744e-12
-0.00028067717
0.00010688582
-1.2884104e-12
-0.0002970813
9.3330451e-05
-9.1050704e-13
-0.00031105196
7.7541563e-05
-3.583486e-13
-0.00032226415
5.9667703e-05
3.1792501e-13
-0.00033041221
3.9925496e-05
9.2422663e-13
-0.00033521898
1.8611402e-05
1.2793108e-12
-0.00033644714
-3.890213e-06
1.4173949e-12
-0.00033391174
-2.7104885e-05
1.6956079e-12
-0.00032749597
-5.046713e-05
2.288387e-12
-0.00031716688
-7.3331028e-05
3.0911119e-12
-0.0003029923
-9.4983883e-05
3.6273529e-12
-0.00028515683
-0.00011466947
3.5005992e-12
-0.00026397518
-0.0001316198
2.9284877e-12
-0.00023990062
-0.00014509569
2.6636373e-12
-0.00021352583
-0.00015443502
3.1767428e-12
-0.00018557378
-0.0001591065
3.9656865e-12
-0.00015687658
-0.00015876481
4.0276226e-12
-0.00012834164
-0.00015330191
3.1921603e-12
-0.00010090607
-0.00014288813
2.529529e-12
-7.548248e-05
-0.0001279969
2.8394657e-12
-5.2901152e-05
-0.00010940851
3.3074475e-12
-3.3855118e-05
-8.8191312e-05
3.7374272e-12
-1.8854788e-05
-6.5662052e-05
6.3405226e-12
-8.1982661e-06
-4.3325207e-05
3.5094618e-12
-1.9611642e-06
-2.2799384e-05
-1.3853683e-11
-5.8044663e-06
1.8197255e-11
-3.602303e-06
1.8016124e-05
-3.0046468e-11
-1.3044872e-05
5.0696268e-05
2.9470216e-11
-2.7149289e-05
7.9265838e-05
-3.0819696e-12
-4.4907169e-05
0.0001034438
-8.6497251e-12
-6.5461504e-05
0.00012324024
-3.7142482e-12
-8.8087231e-05
0.00013882127
-3.2607191e-12
-0.0001121688
0.00015043753
-3.6839181e-12
-0.00013717742
0.0001583676
-3.5780091e-12
-0.00016264988
0.00016287548
-3.3864649e-12
-0.00018816993
0.00016418425
-3.2214313e-12
-0.00021335264
0.00016246441
-3.0064219e-12
-0.00023783203
0.00015783423
-2.6892287e-12
-0.00026125191
0.00015036955
-2.2760366e-12
-0.00028325983
0.00014012012
-1.8449568e-12
-0.00030350382
0.00012712981
-1.4860257e-12
-0.00032163166
0.00011145829
-1.1919327e-12
-0.00033729244
9.3202346e-05
-8.2985083e-13
-0.00035014038
7.251564e-05
-2.6250702e-13
-0.00035984079
4.9625905e-05
4.8520256e-13
-0.00036607843
2.4849038e-05
1.1760291e-12
-0.00036856897
-1.3996749e-06
1.5343441e-12
-0.00036707134
-2.8602509e-05
1.742328e-12
-0.00036140637
-5.6132107e-05
1.9282707e-12
-0.00035147458
-8.3262819e-05
2.4607137e-12
-0.00033727782
-0.00010918064
3.3057026e-12
-0.00031894091
-0.00013300639
3.9407122e-12
-0.00029673174
-0.00015382896
3.8621172e-12
-0.00027107726
-0.00017075017
3.2320184e-12
-0.00024257163
-0.00018294066
2.8493951e-12
-0.00021197327
-0.00018970485
3.2504937e-12
-0.0001801876
-0.00019055049
3.9498057e-12
-0.00014823332
-0.00018525619
3.9955407e-12
-0.00011719276
-0.00017392869
3.3219271e-12
-8.8148956e-05
-0.00015704071
2.7856457e-12
-6.2115388e-05
-0.00013544208
2.6690271e-12
-3.9966494e-05
-0.00011034021
3.4599562e-12
-2.2377613e-05
-8.3250938e-05
7.1211019e-12
-9.782692e-06
-5.5920131e-05
3.7723287e-12
-2.3546971e-06
-3.022736e-05
-1.7360319e-11
-8.1591835e-06
2.1126814e-11
-3.8870503e-06
2.1903206e-05
-3.2271949e-11
-1.404866e-05
6.0857845e-05
3.2051404e-11
-2.9192053e-05
9.4409234e-05
-3.0657285e-12
-4.8215263e-05
0.00012246702
-9.0818764e-12
-7.0187841e-05
0.00014521282
-3.8152639e-12
-9.4330059e-05
0.00016296349
-3.409433e-12
-0.00011998821
0.00017609569
-3.9253705e-12
-0.00014660908
0.00018498847
-3.8279477e-12
-0.00017371588
0.00018998228
-3.6129417e-12
-0.00020088685
0.00019135523
-3.4425e-12
-0.00022773708
0.00018931465
-3.2787524e-12
-0.0002539038
0.00018400096
-3.0683488e-12
-0.00027903519
0.00017550094
-2.7453471e-12
-0.00030278231
0.00016386724
-2.2960119e-12
-0.00032479396
0.00014914146
-1.8095661e-12
-0.00034471404
0.00013137837
-1.40809e-12
-0.00036218125
0.00011066957
-1.1064446e-12
-0.00037683113
8.716552e-05
-7.6056869e-13
-0.00038830042
6.1095187e-05
-1.9017815e-13
-0.00039623427
3.2782895e-05
6.3035134e-13
-0.00040029638
2.6624349e-06
1.4897136e-12
-0.00040018388
-2.8715013e-05
1.9686629e-12
-0.00039564405
-6.0671932e-05
2.112812e-12
-0.00038649736
-9.2409516e-05
2.2112551e-12
-0.00037266262
-0.00012301537
2.6701105e-12
-0.00035418497
-0.00015148404
3.5095695e-12
-0.00033126379
-0.00017675014
4.1948829e-12
-0.00030427783
-0.00019773614
4.1548261e-12
-0.00027380299
-0.00021341551
3.5109979e-12
-0.0002406183
-0.00022288955
3.0626488e-12
-0.00020569519
-0.0002254736
3.3357634e-12
-0.00017016638
-0.000220785
3.8793032e-12
-0.00013527318
-0.0002088219
3.9143747e-12
-0.00010229333
-0.00019002057
3.3397089e-12
-7.2455936e-05
-0.00016527947
2.5353084e-12
-4.6853297e-05
-0.00013594285
3.0571758e-12
-2.6361366e-05
-0.00010374288
7.6130095e-12
-1.1580443e-05
-7.0701056e-05
3.9268709e-12
-2.8033148e-06
-3.9004466e-05
-2.1218113e-11
-1.0962523e-05
2.4591361e-11
-4.1321167e-06
2.6035357e-05
-3.4211299e-11
-1.4914097e-05
7.1639791e-05
3.4205163e-11
-3.095713e-05
0.00011045227
-3.163412e-12
-5.1080654e-05
0.00014259056
-9.5465851e-12
-7.4292272e-05
0.00016842444
-3.9447943e-12
-9.9766124e-05
0.00018843735
-3.5572079e-12
-0.00012681669
0.00020314625
-4.1809978e-12
-0.0001548713
0.00021304309
-4.1432781e-12
-0.00018344394
0.00021855492
-3.9386334e-12
-0.0002121115
0.0002200228
-3.7376235e-12
-0.00024049344
0.00021769659
-3.5430516e-12
-0.00026823493
0.00021174245
-3.3684449e-12
-0.00029499352
0.00020225953
-3.1671814e-12
-0.00032042905
0.00018930278
-2.8421057e-12
-0.0003441964
0.00017290882
-2.35678e-12
-0.00036594074
0.00015312271
-1.8068702e-12
-0.00038529505
0.00013002388
-1.3458145e-12
-0.00040188001
0.00010375049
-1.0200122e-12
-0.00041530644
7.4521618e-05
-6.8547204e-13
-0.00042518077
4.2657227e-05
-1.0434552e-13
-0.00043111397
8.5956305e-06
8.1131968e-13
-0.00043273622
-2.7092759e-05
1.6869739e-12
-0.00042971416
-6.369399e-05
2.3033403e-12
-0.00042177618
-0.0001003475
2.4984455e-12
-0.00040874171
-0.00013604983
2.5548827e-12
-0.00039055538
-0.00016967038
2.9381433e-12
-0.0003673235
-0.00019998202
3.7246414e-12
-0.0003393498
-0.00022570984
4.3910811e-12
-0.00030716536
-0.00024559994
4.3534431e-12
-0.00027154683
-0.00025850809
3.7202923e-12
-0.00023351601
-0.00026350443
3.2422064e-12
-0.00019431498
-0.00025998604
3.3879454e-12
-0.00015535291
-0.00024778397
3.7899955e-12
-0.00011812527
-0.00022724821
3.7050002e-12
-8.4111832e-05
-0.00019929291
2.7736945e-12
-5.4665483e-05
-0.0001653892
2.9767107e-12
-3.0907343e-05
-0.00012750102
8.155889e-12
-1.3644698e-05
-8.7963703e-05
3.9059963e-12
-3.3229919e-06
-4.9326145e-05
-2.5741314e-11
-1.4285543e-05
2.8640052e-11
-4.3334542e-06
3.0368847e-05
-3.5832549e-11
-1.5627794e-05
8.2934095e-05
3.5954887e-11
-3.241791e-05
0.00012724239
-3.3195525e-12
-5.3460307e-05
0.00016363296
-1.0042355e-11
-7.7712459e-05
0.0001926766
-4.1490485e-12
-0.000104311
0.00021503589
-3.7285133e-12
-0.00013254491
0.00023138017
-4.413354e-12
-0.00016182693
0.00024232512
-4.4462019e-12
-0.00019166588
0.00024839387
-4.309229e-12
-0.00022164124
0.00024999817
-4.1342348e-12
-0.00025138097
0.00024743632
-3.9005551e-12
-0.00028054265
0.00024090414
-3.6664704e-12
-0.00030879822
0.00023051511
-3.4803923e-12
-0.00033582178
0.00021632635
-3.28783e-12
-0.00036128018
0.00019836722
-2.9634301e-12
-0.00038482595
0.00017666849
-2.4454233e-12
-0.00040609256
0.00015129049
-1.8277961e-12
-0.00042469179
0.00012234972
-1.2913258e-12
-0.00044021385
9.0043687e-05
-9.1812691e-13
-0.00045223065
5.4674031e-05
-5.6982771e-13
-0.00046030304
1.6668016e-05
1.1953072e-14
-0.00046399357
-2.3402219e-05
8.8866556e-13
-0.00046288448
-6.4803079e-05
1.9011665e-12
-0.00045660341
-0.00010662857
2.6402278e-12
-0.00044485609
-0.00014779715
2.9009329e-12
-0.00042746612
-0.00018706034
2.9495997e-12
-0.00040442022
-0.00022302793
3.2657888e-12
-0.00037591561
-0.00025421445
3.9537415e-12
-0.00034240457
-0.00027911097
4.5239779e-12
-0.00030462862
-0.00029628405
4.4390587e-12
-0.00026363337
-0.00030449968
3.8191482e-12
-0.00022075513
-0.00030286429
3.3444264e-12
-0.00017757163
-0.00029096747
3.418663e-12
-0.00013581501
-0.00026900484
3.5495478e-12
-9.7251934e-05
-0.00023785599
2.8282601e-12
-6.3544841e-05
-0.0001990963
3.1032445e-12
-3.6114692e-05
-0.00015493118
9.0336728e-12
-1.6028559e-05
-0.00010804984
3.9121335e-12
-3.9298358e-06
-6.1424836e-05
-3.1076119e-11
-1.8215411e-05
3.3313693e-11
-4.487224e-06
3.4856108e-05
-3.7138846e-11
-1.6177324e-05
9.4624158e-05
3.727122e-11
-3.35499e-05
0.00014461497
-3.4738722e-12
-5.5314556e-05
0.00018539763
-1.0506832e-11
-8.0390369e-05
0.00021775241
-4.4295099e-12
-0.0001078848
0.00024253033
-3.9735297e-12
-0.00013706725
0.00026056262
-4.6602394e-12
-0.00016734027
0.00027259814
-4.7116328e-12
-0.0001982112
0.0002792648
-4.6386534e-12
-0.00022926561
0.00028105259
-4.5502608e-12
-0.00026014368
0.00027831439
-4.3600737e-12
-0.00029051967
0.00027128013
-4.0796107e-12
-0.00032008483
0.00026008027
-3.8030062e-12
-0.00034853318
0.0002447747
-3.5972323e-12
-0.00037554994
0.00022538399
-3.4061542e-12
-0.00040080219
0.00020192074
-3.082201e-12
-0.0004239316
0.00017441991
-2.5363629e-12
-0.0004445493
0.00014296742
-1.8513256e-12
-0.00046223322
0.0001077276
-1.2244708e-12
-0.00047652863
6.8969444e-05
-7.7391094e-13
-0.00048695288
2.7092273e-05
-3.9422804e-13
-0.00049300564
-1.7349455e-05
1.6584893e-13
-0.00049418564
-6.3623083e-05
1.0757184e-12
-0.00049001582
-0.00011079839
2.1552329e-12
-0.00048007775
-0.00015773524
2.9827304e-12
-0.00046405566
-0.00020308243
3.315119e-12
-0.00044178975
-0.00024529385
3.3800625e-12
-0.00041333575
-0.00028266846
3.6310064e-12
-0.00037902596
-0.00031342077
4.1707973e-12
-0.00033952333
-0.00033578667
4.5661431e-12
-0.00029585751
-0.0003481655
4.3807077e-12
-0.00024942979
-0.00034929201
3.787695e-12
-0.00020197497
-0.0003384223
3.3920052e-12
-0.00015547284
-0.00031550697
3.2377851e-12
-0.00011201159
-0.00028131724
2.5005337e-12
-7.3617497e-05
-0.0002374904
3.0725776e-12
-4.2077004e-05
-0.00018647168
1.0166602e-11
-1.8784003e-05
-0.00013134284
4.0742427e-12
-4.6400106e-06
-7.5568791e-05
-3.7247968e-11
-2.285546e-05
3.8745461e-11
-4.5902838e-06
3.944643e-05
-3.8119371e-11
-1.655269e-05
0.00010658653
3.8086793e-11
-3.433335e-05
0.00016239564
-3.6251571e-12
-5.6610888e-05
0.00020767518
-1.0877757e-11
-8.2277187e-05
0.00024341872
-4.7267931e-12
-0.00011041819
0.00027067134
-4.2894955e-12
-0.00014028892
0.00029043336
-4.975128e-12
-0.00017128552
0.00030359474
-4.9962516e-12
-0.00020291689
0.00031089618
-4.9195856e-12
-0.00023477769
0.0003129134
-4.8913596e-12
-0.00026652359
0.00031006029
-4.8052085e-12
-0.00029784946
0.00030260601
-4.5871359e-12
-0.00032847061
0.00029070143
-4.2589767e-12
-0.00035810672
0.00027441082
-3.9308502e-12
-0.00038646825
0.00025374552
-3.689947e-12
-0.00041324486
0.00022869735
-3.4856258e-12
-0.00043809568
0.00019927073
-3.1562845e-12
-0.00046064153
0.00016551328
-2.5861977e-12
-0.00048045932
0.0001275454
-1.8366189e-12
-0.00049707946
8.5589587e-05
-1.1104805e-12
-0.0005099872
4.0000011e-05
-5.6551126e-13
-0.00051862938
-8.7072635e-06
-1.3498007e-13
-0.00052242834
-5.9824127e-05
4.4264898e-13
-0.00052080463
-0.0001124221
1.3634732e-12
-0.0005132109
-0.00016532897
2.4723319e-12
-0.00049917822
-0.00021711511
3.3519988e-12
-0.00047837549
-0.00026609658
3.7410471e-12
-0.00045068059
-0.00031036337
3.8234112e-12
-0.00041625891
-0.00034784246
3.9902855e-12
-0.00037564086
-0.00037640473
4.3198339e-12
-0.00032978532
-0.00039402104
4.4648019e-12
-0.0002801119
-0.00039896544
4.1670939e-12
-0.00022848373
-0.00039005048
3.6781855e-12
-0.00017712616
-0.00036686454
3.1536224e-12
-0.00012847765
-0.00032996575
2.045423e-12
-8.4985584e-05
-0.00028098247
2.7834998e-12
-4.887864e-05
-0.00022257864
1.1358945e-11
-2.1960824e-05
-0.00015826066
4.3177643e-12
-5.4696778e-06
-9.2059892e-05
-4.4339023e-11
-2.8325183e-05
4.5110495e-11
-4.6407198e-06
4.4087189e-05
-3.8728471e-11
-1.6747988e-05
0.00011869376
3.8366786e-11
-3.4756313e-05
0.00018040397
-3.8203938e-12
-5.7328465e-05
0.00023024734
-1.1157782e-11
-8.3339268e-05
0.00026942953
-4.987812e-12
-0.00011185972
0.0002991918
-4.6145482e-12
-0.00014213476
0.0003207084
-5.3450978e-12
-0.00017355703
0.00033501702
-5.3558264e-12
-0.00020563945
0.0003429786
-5.2322951e-12
-0.00023798811
0.00034526206
-5.1748491e-12
-0.00027027702
0.00034234921
-5.1379822e-12
-0.0003022252
0.0003345542
-5.0366777e-12
-0.00033357654
0.00032205277
-4.7878374e-12
-0.00036408207
0.00030491636
-4.4051818e-12
-0.0003934846
0.00028314805
-4.0123754e-12
-0.00042150501
0.00025671778
-3.7155046e-12
-0.00044783033
0.00022559605
-3.4758933e-12
-0.00047210323
0.00018978619
-3.1279542e-12
-0.00049391354
0.00014935571
-2.53239e-12
-0.00051279208
0.00010446813
-1.722185e-12
-0.00052820808
5.5416013e-05
-8.9815456e-13
-0.0005395714
2.6560564e-06
-2.4516664e-13
-0.00054624184
-5.3153689e-05
2.517285e-13
-0.00054754741
-0.00011111653
8.6480841e-13
-0.000542815
-0.00017006138
1.7894917e-12
-0.00053141581
-0.0002285143
2.8887036e-12
-0.00051282804
-0.00028468434
3.7694926e-12
-0.00048671737
-0.00033647404
4.1765015e-12
-0.00045303246
-0.00038152737
4.2446384e-12
-0.00041210824
-0.00041732896
4.272914e-12
-0.00036476275
-0.00044136654
4.3149371e-12
-0.00031236681
-0.00045136137
4.1913584e-12
-0.00025686081
-0.00044555649
3.8701128e-12
-0.0002006938
-0.00042303154
3.2219602e-12
-0.00014667113
-0.00038398842
1.6737545e-12
-9.7717406e-05
-0.0003299362
2.3974543e-12
-5.6590332e-05
-0.00026370572
1.2594791e-11
-2.5605327e-05
-0.00018924567
4.5355145e-12