/*--------------------------------*- C++ -*----------------------------------*\
  =========                 |
  \\      /  F ield         | OpenFOAM: The Open Source CFD Toolbox
   \\    /   O peration     | Website:  https://openfoam.org
    \\  /    A nd           | Version:  7
     \\/     M anipulation  |
\*---------------------------------------------------------------------------*/
FoamFile
{
    version     2.0;
    format      ascii;
    class       surfaceScalarField;
    location    "45";
    object      phi_0;
}
// * * * * * * * * * * * * * * * * * * * * * * * * * * * * * * * * * * * * * //

dimensions      [0 3 -1 0 0 0 0];

internalField   nonuniform List<scalar> 
45600
(
2.7520609e-07
-2.8220321e-07
-7.8520598e-11
4.0335356e-07
-1.2812237e-07
-2.4682706e-11
1.3257332e-07
2.7078743e-07
-6.6369851e-12
-5.6229974e-07
6.9487546e-07
-1.4276708e-12
-1.639304e-06
1.0770016e-06
3.6619846e-12
-3.0276167e-06
1.3883052e-06
7.1201819e-12
-4.6524622e-06
1.6248342e-06
9.3847724e-12
-6.4450974e-06
1.7926228e-06
1.0989201e-11
-8.3454256e-06
1.9003165e-06
1.2139408e-11
-1.0301445e-05
1.956008e-06
1.2906262e-11
-1.2267404e-05
1.9659463e-06
1.3325783e-11
-1.4201584e-05
1.9341653e-06
1.3432653e-11
-1.6064242e-05
1.8626438e-06
1.3259199e-11
-1.781603e-05
1.7517767e-06
1.2822757e-11
-1.9417057e-05
1.6010179e-06
1.2117517e-11
-2.082666e-05
1.4095969e-06
1.1113985e-11
-2.2003908e-05
1.1772413e-06
9.771792e-12
-2.2908769e-05
9.0485306e-07
8.0742831e-12
-2.3503869e-05
5.9509143e-07
6.0460127e-12
-2.3756705e-05
2.5283096e-07
3.7723497e-12
-2.3642146e-05
-1.1455568e-07
1.3387178e-12
-2.3145013e-05
-4.9712192e-07
-1.2310781e-12
-2.2262576e-05
-8.8242724e-07
-3.9512143e-12
-2.1006617e-05
-1.2559562e-06
-6.7718526e-12
-1.9404867e-05
-1.6017537e-06
-9.4872192e-12
-1.7501565e-05
-1.9032962e-06
-1.1801737e-11
-1.535698e-05
-2.1445596e-06
-1.348575e-11
-1.3045756e-05
-2.311185e-06
-1.455086e-11
-1.0654084e-05
-2.3916424e-06
-1.5188872e-11
-8.2757962e-06
-2.3782918e-06
-1.5460049e-11
-6.007565e-06
-2.2682547e-06
-1.50485e-11
-3.9435525e-06
-2.0640126e-06
-1.3467796e-11
-2.1698046e-06
-1.7736979e-06
-1.0641909e-11
-7.58527e-07
-1.4112121e-06
-7.2081421e-12
2.382509e-07
-9.9676979e-07
-4.1386127e-12
7.965697e-07
-5.5838688e-07
-2.0246718e-12
9.2923703e-07
-1.3274416e-07
7.025187e-13
7.0550816e-07
2.2376385e-07
5.3438925e-12
2.9042023e-07
4.1522085e-07
1.0880565e-11
2.9051283e-07
5.0483524e-12
1.329083e-07
-4.1508902e-07
-2.2083873e-11
-3.016609e-07
3.0646218e-07
-1.3970137e-11
-1.6153818e-06
1.5845206e-06
-1.2240429e-11
-3.874693e-06
2.9541988e-06
-1.303821e-11
-7.0073311e-06
4.2096543e-06
-1.4213315e-11
-1.0879743e-05
5.2607342e-06
-1.5750608e-11
-1.5335159e-05
6.080267e-06
-1.7197768e-11
-2.0216e-05
6.6734794e-06
-1.8255553e-11
-2.5374062e-05
7.0583938e-06
-1.8848e-11
-3.0673277e-05
7.2552412e-06
-1.8973016e-11
-3.5988544e-05
7.2812353e-06
-1.86708e-11
-4.1202831e-05
7.1484746e-06
-1.7988748e-11
-4.6203974e-05
6.8638063e-06
-1.6951848e-11
-5.0882102e-05
6.429921e-06
-1.5556788e-11
-5.5128235e-05
5.8471643e-06
-1.3781547e-11
-5.8834323e-05
5.1156983e-06
-1.1608053e-11
-6.1894806e-05
4.2377405e-06
-9.0571998e-12
-6.4209609e-05
3.2196722e-06
-6.1855179e-12
-6.5688357e-05
2.0738472e-06
-3.0977827e-12
-6.6255468e-05
8.1993759e-07
1.5290874e-13
-6.5855988e-05
-5.1404973e-07
3.5761553e-12
-6.4460817e-05
-1.8923033e-06
7.2137856e-12
-6.2072484e-05
-3.2707588e-06
1.0892136e-11
-5.8729087e-05
-4.5993451e-06
1.4334794e-11
-5.4507067e-05
-5.8237803e-06
1.7260658e-11
-4.9521899e-05
-6.8885007e-06
1.9568021e-11
-4.3926404e-05
-7.7401091e-06
2.1399801e-11
-3.7906465e-05
-8.3311566e-06
2.2912124e-11
-3.1674148e-05
-8.6239472e-06
2.393416e-11
-2.5458381e-05
-8.5940266e-06
2.3940633e-11
-1.9493581e-05
-8.233066e-06
2.2541041e-11
-1.400671e-05
-7.5509658e-06
2.0055418e-11
-9.203317e-06
-6.5771855e-06
1.7401494e-11
-5.2529391e-06
-5.3615967e-06
1.5160336e-11
-2.2739782e-06
-3.9756341e-06
1.2808745e-11
-3.1721845e-07
-2.5150664e-06
9.2002719e-12
6.5710529e-07
-1.1071454e-06
3.9317475e-12
8.0364668e-07
7.699741e-08
1.0660867e-12
4.1774896e-07
8.0092628e-07
2.800775e-12
7.0834647e-07
-1.9455121e-12
-2.7357505e-07
-1.4150113e-07
-1.2347914e-11
-1.6274649e-06
1.6603614e-06
-7.0991244e-12
-4.2893845e-06
4.2464498e-06
-8.443485e-12
-8.27466e-06
6.9394801e-06
-7.0695684e-12
-1.3474404e-05
9.4094016e-06
-5.1147825e-12
-1.9708711e-05
1.1495045e-05
-4.0276779e-12
-2.6765742e-05
1.3137304e-05
-3.3260598e-12
-3.442661e-05
1.4334351e-05
-2.7639741e-12
-4.2478628e-05
1.5110412e-05
-2.3131735e-12
-5.072045e-05
1.5497063e-05
-1.9065581e-12
-5.8962296e-05
1.5523083e-05
-1.4927867e-12
-6.7023691e-05
1.5209874e-05
-1.0642259e-12
-7.4730532e-05
1.4570653e-05
-6.3790345e-13
-8.1912718e-05
1.3612112e-05
-2.3377711e-13
-8.8403147e-05
1.2337594e-05
1.4325203e-13
-9.4038477e-05
1.0751025e-05
5.1871666e-13
-9.8661799e-05
8.8610597e-06
9.2851366e-13
-0.0001021271
6.6849748e-06
1.3824915e-12
-0.00010430523
4.2519845e-06
1.8055848e-12
-0.000105091
1.6057185e-06
2.0961742e-12
-0.00010441064
-1.1944168e-06
2.2342754e-12
-0.00010222946
-4.0734986e-06
2.3133712e-12
-9.8558531e-05
-6.9417037e-06
2.4763786e-12
-9.3460015e-05
-9.6978561e-06
2.7636123e-12
-8.7050394e-05
-1.2233374e-05
3.0081447e-12
-7.9500987e-05
-1.4437886e-05
2.9538039e-12
-7.1035271e-05
-1.6205838e-05
2.5594491e-12
-6.1922731e-05
-1.7443744e-05
2.1658514e-12
-5.2469169e-05
-1.8077543e-05
2.2316443e-12
-4.3003694e-05
-1.8059476e-05
2.7849347e-12
-3.3862808e-05
-1.737388e-05
3.2219705e-12
-2.5372191e-05
-1.6041547e-05
2.903929e-12
-1.7826869e-05
-1.4122574e-05
2.0551574e-12
-1.1470442e-05
-1.1718138e-05
1.7984667e-12
-6.4739216e-06
-8.972178e-06
2.8906158e-12
-2.914055e-06
-6.0747982e-06
4.4520596e-12
-7.5116998e-07
-3.2698547e-06
4.5634277e-12
1.9440175e-07
-8.6855535e-07
3.6309604e-12
2.6545353e-07
7.2973001e-07
4.249752e-12
9.7380193e-07
6.0173475e-13
-7.4584236e-07
6.0435394e-07
-1.2660279e-11
-3.1796272e-06
4.0941493e-06
-1.187033e-12
-7.3460946e-06
8.4129267e-06
-6.6353661e-12
-1.3163049e-05
1.2756441e-05
-6.0189607e-12
-2.0455815e-05
1.670217e-05
-3.4345283e-12
-2.8992637e-05
2.0031867e-05
-2.1093192e-12
-3.8513882e-05
2.265855e-05
-1.214864e-12
-4.8752683e-05
2.4573155e-05
-4.1227888e-13
-5.9446991e-05
2.580472e-05
2.2352194e-13
-7.0344844e-05
2.6394915e-05
7.1332649e-13
-8.120514e-05
2.6383376e-05
1.1217073e-12
-9.1795994e-05
2.5800726e-05
1.4894987e-12
-0.00010189242
2.4667084e-05
1.8279649e-12
-0.00011127464
2.2994332e-05
2.1197637e-12
-0.00011972779
2.0790746e-05
2.3263716e-12
-0.00012704362
1.806685e-05
2.4227143e-12
-0.00013302417
1.4841604e-05
2.4309531e-12
-0.00013748743
1.1148226e-05
2.417182e-12
-0.00014027453
7.0390814e-06
2.4096181e-12
-0.00014125806
2.5892618e-06
2.3494437e-12
-0.00014035078
-2.1016918e-06
2.1316793e-12
-0.00013751439
-6.9098914e-06
1.6718762e-12
-0.00013276703
-1.1689079e-05
1.0889577e-12
-0.00012618933
-1.6275585e-05
6.2198293e-13
-0.00011792791
-2.0494794e-05
4.141521e-13
-0.00010819592
-2.4169841e-05
3.1824466e-13
-9.7269862e-05
-2.7131857e-05
-6.4437304e-15
-8.5482396e-05
-2.9231211e-05
-6.8940281e-13
-7.3210952e-05
-3.0349039e-05
-1.3376384e-12
-6.0862296e-05
-3.0408185e-05
-1.3023687e-12
-4.885348e-05
-2.9382678e-05
-4.2692484e-13
-3.7589892e-05
-2.7305044e-05
5.6576185e-13
-2.7441269e-05
-2.4271134e-05
7.6629237e-13
-1.8716664e-05
-2.0442805e-05
2.927128e-13
-1.1639492e-05
-1.6049499e-05
4.0331736e-13
-6.3236367e-06
-1.139073e-05
1.9966841e-12
-2.7515487e-06
-6.8418545e-06
4.190507e-12
-7.5710234e-07
-2.8628762e-06
5.0423693e-12
-9.51112e-09
-1.7879859e-08
4.4385174e-12
9.6424867e-07
3.4119784e-12
-1.2279655e-06
1.832334e-06
-1.4230587e-11
-4.7881075e-06
7.6542865e-06
4.736615e-12
-1.0521539e-05
1.4146366e-05
-5.8074727e-12
-1.8214329e-05
2.0449241e-05
-6.9042377e-12
-2.7603934e-05
2.609178e-05
-4.5469301e-12
-3.8396295e-05
3.082423e-05
-3.850963e-12
-5.0283055e-05
3.4545311e-05
-3.5270113e-12
-6.2954785e-05
3.7244887e-05
-3.0504425e-12
-7.6109039e-05
3.8958979e-05
-2.5796468e-12
-8.9453775e-05
3.9739655e-05
-2.1663596e-12
-0.00010270747
3.9637077e-05
-1.7853337e-12
-0.00011559753
3.8690785e-05
-1.4080524e-12
-0.00012785835
3.6927896e-05
-1.0054828e-12
-0.0001392302
3.4366187e-05
-5.5690191e-13
-0.00014945975
3.1020298e-05
-7.8285994e-14
-0.00015830247
2.690958e-05
3.7381436e-13
-0.00016552724
2.2066367e-05
7.4710483e-13
-0.00017092275
1.6543727e-05
1.0587819e-12
-0.0001743056
1.0421919e-05
1.3912109e-12
-0.00017552936
3.8130202e-06
1.8077393e-12
-0.00017449413
-3.1369134e-06
2.2573653e-12
-0.00017115588
-1.0248126e-05
2.5662618e-12
-0.0001655348
-1.7310162e-05
2.6018541e-12
-0.0001577219
-2.4088501e-05
2.4399163e-12
-0.00014788321
-3.0333522e-05
2.3659652e-12
-0.00013626062
-3.5792446e-05
2.6091157e-12
-0.00012316897
-4.0223473e-05
3.0280277e-12
-0.0001089887
-4.3411427e-05
3.1495411e-12
-9.4153776e-05
-4.5183958e-05
2.6782456e-12
-7.9134851e-05
-4.5427174e-05
1.9908741e-12
-6.4418096e-05
-4.4099512e-05
1.910799e-12
-5.0480405e-05
-4.1242735e-05
2.7557353e-12
-3.7762135e-05
-3.6989302e-05
3.7318753e-12
-2.6638776e-05
-3.1566069e-05
3.7077162e-12
-1.7393142e-05
-2.5295166e-05
2.6954717e-12
-1.0189951e-05
-1.8594053e-05
2.2468702e-12
-5.0547875e-06
-1.1977079e-05
3.6337584e-12
-1.859825e-06
-6.0577661e-06
4.2987018e-12
-3.2221181e-07
-1.5554555e-06
9.7416631e-13
6.4201306e-07
5.9381598e-12
-1.6931674e-06
3.5255199e-06
-1.6743189e-11
-6.371409e-06
1.2332518e-05
1.0113774e-11
-1.3671452e-05
2.1446413e-05
-4.8993182e-12
-2.3234058e-05
3.0011855e-05
-7.0484635e-12
-3.469524e-05
3.7552969e-05
-4.3212623e-12
-4.7689818e-05
4.3818813e-05
-3.7796793e-12
-6.1857521e-05
4.8713015e-05
-3.6922995e-12
-7.6848066e-05
5.2235433e-05
-3.3481468e-12
-9.232387e-05
5.4434786e-05
-2.938284e-12
-0.00010796027
5.5376062e-05
-2.535648e-12
-0.00012344397
5.5120777e-05
-2.1393421e-12
-0.00013847069
5.3717515e-05
-1.7558874e-12
-0.00015274322
5.1200428e-05
-1.3797739e-12
-0.00016597054
4.7593498e-05
-9.7739651e-13
-0.00017786874
4.2918498e-05
-5.0925223e-13
-0.00018816405
3.7204894e-05
1.7044488e-14
-0.00019659789
3.0500211e-05
5.2777517e-13
-0.00020293383
2.2879673e-05
9.4106391e-13
-0.00020696614
1.4454215e-05
1.2546879e-12
-0.0002085293
5.3761621e-06
1.5690093e-12
-0.00020750813
-4.1580977e-06
1.9933213e-12
-0.00020384769
-1.3908562e-05
2.5086237e-12
-0.00019756247
-2.3595362e-05
2.9118059e-12
-0.00018874396
-3.2906999e-05
2.985191e-12
-0.00017756588
-4.1511617e-05
2.7580746e-12
-0.00016428627
-4.9072106e-05
2.5797166e-12
-0.00014924554
-5.5264234e-05
2.8124721e-12
-0.00013285992
-5.9797016e-05
3.372106e-12
-0.00011560966
-6.243415e-05
3.6720214e-12
-9.8021726e-05
-6.3015079e-05
3.2342168e-12
-8.0647214e-05
-6.1474089e-05
2.4007837e-12
-6.403421e-05
-5.7855843e-05
2.1662811e-12
-4.8697491e-05
-5.2326047e-05
3.0038416e-12
-3.5086902e-05
-4.5176567e-05
4.035325e-12
-2.3556631e-05
-3.6825342e-05
3.9406813e-12
-1.4337847e-05
-2.7812864e-05
3.1170996e-12
-7.5175179e-06
-1.8797506e-05
3.7201559e-12
-3.026745e-06
-1.0548552e-05
3.5790376e-12
-6.4248644e-07
-3.9396719e-06
-1.6031545e-12
-4.7596424e-10
8.6232342e-12
-2.1329369e-06
5.6584785e-06
-1.9517316e-11
-7.8910752e-06
1.8090643e-05
1.4911295e-11
-1.6717405e-05
3.0272745e-05
-4.1762999e-12
-2.8105742e-05
4.1400197e-05
-7.1478812e-12
-4.158509e-05
5.1032322e-05
-3.9110377e-12
-5.6714136e-05
5.8947865e-05
-3.3683359e-12
-7.307828e-05
6.5077164e-05
-3.3953546e-12
-9.0287091e-05
6.9444246e-05
-3.1201703e-12
-0.00010797133
7.2119022e-05
-2.7710093e-12
-0.00012577927
7.3184009e-05
-2.4089974e-12
-0.00014337274
7.2714253e-05
-2.0155027e-12
-0.00016042342
7.0768193e-05
-1.6078782e-12
-0.00017661019
6.7387201e-05
-1.2198519e-12
-0.00019161813
6.2601446e-05
-8.6138477e-13
-0.00020513951
5.6439867e-05
-4.9178103e-13
-0.00021687684
4.8942216e-05
-5.0510316e-14
-0.00022654815
4.0171518e-05
4.7014527e-13
-0.00023389407
3.0225598e-05
9.8643527e-13
-0.0002386865
1.9246652e-05
1.3801502e-12
-0.00024073842
7.4280737e-06
1.6165537e-12
-0.00023991437
-4.9821674e-06
1.806274e-12
-0.00023614103
-1.7681919e-05
2.1282544e-12
-0.00022941748
-3.0318911e-05
2.6078319e-12
-0.00021982416
-4.2500297e-05
3.0249018e-12
-0.00020752991
-5.3805844e-05
3.0708623e-12
-0.00019279608
-6.3805943e-05
2.7055947e-12
-0.0001759767
-7.2083667e-05
2.3319863e-12
-0.00015751366
-7.8260103e-05
2.4638325e-12
-0.00013792615
-8.2021645e-05
3.1048713e-12
-0.00011779371
-8.3147433e-05
3.5748269e-12
-9.7732916e-05
-8.1534836e-05
3.2217985e-12
-7.8368109e-05
-7.7220702e-05
2.3529849e-12
-6.0297895e-05
-7.0396368e-05
2.0843016e-12
-4.4059564e-05
-6.1414933e-05
2.8922995e-12
-3.0094425e-05
-5.0790406e-05
3.7224604e-12
-1.8717228e-05
-3.9189993e-05
3.823439e-12
-1.0093046e-05
-2.7421724e-05
4.6261452e-12
-4.225329e-06
-1.6416319e-05
3.366835e-12
-9.5849369e-07
-7.2064988e-06
-4.6644154e-12
-9.5896146e-07
1.0601335e-11
-2.5450552e-06
8.2035567e-06
-2.2319131e-11
-9.3288454e-06
2.4874417e-05
1.9196109e-11
-1.9615362e-05
4.0559267e-05
-3.6829509e-12
-3.2756849e-05
5.454169e-05
-7.4241079e-12
-4.8175888e-05
6.6451363e-05
-3.7485299e-12
-6.5354092e-05
7.6126074e-05
-3.2430795e-12
-8.3822141e-05
8.3545219e-05
-3.3758723e-12
-0.00010315062
8.8772734e-05
-3.1465356e-12
-0.00012294162
9.1910024e-05
-2.8533559e-12
-0.00014282096
9.3063345e-05
-2.5633782e-12
-0.00016243135
9.2324642e-05
-2.2264128e-12
-0.00018142688
8.9763729e-05
-1.8289064e-12
-0.00019946925
8.5429574e-05
-1.3992751e-12
-0.00021622604
7.9358244e-05
-9.9057061e-13
-0.0002313713
7.1585126e-05
-6.3038348e-13
-0.00024458832
6.2159229e-05
-2.7642424e-13
-0.0002555746
5.1157784e-05
1.5602484e-13
-0.00026404868
3.8699678e-05
7.0065775e-13
-0.00026975868
2.4956658e-05
1.2708733e-12
-0.0002724921
1.0161499e-05
1.705409e-12
-0.00027208668
-5.3875878e-06
1.9183695e-12
-0.00026844173
-2.1326895e-05
2.0354932e-12
-0.00026152976
-3.7230904e-05
2.2814235e-12
-0.00025140741
-5.2622657e-05
2.7625664e-12
-0.00023822498
-6.6988238e-05
3.2573749e-12
-0.00022223362
-7.9797267e-05
3.3594752e-12
-0.00020378861
-9.0528676e-05
2.9330235e-12
-0.00018334762
-9.8701154e-05
2.4073322e-12
-0.00016146244
-0.0001039069
2.4359144e-12
-0.0001387633
-0.00010584657
3.1163572e-12
-0.00011593534
-0.00010436271
3.7054694e-12
-9.368751e-05
-9.9468469e-05
3.4447027e-12
-7.2715419e-05
-9.13685e-05
2.6488114e-12
-5.3660775e-05
-8.0469671e-05
2.3964369e-12
-3.7071117e-05
-6.7380088e-05
2.9195255e-12
-2.336394e-05
-5.2897108e-05
3.7844835e-12
-1.2799298e-05
-3.7986334e-05
5.5856118e-12
-5.4648789e-06
-2.3750763e-05
3.5846596e-12
-1.2772642e-06
-1.1394126e-05
-7.7142301e-12
-2.2362332e-06
1.289617e-11
-2.9284828e-06
1.1132063e-05
-2.5056043e-11
-1.0673672e-05
3.2619585e-05
2.3014201e-11
-2.2336173e-05
5.2221774e-05
-3.3537767e-12
-3.7135974e-05
6.9341499e-05
-7.7605061e-12
-5.439411e-05
8.37095e-05
-3.6611139e-12
-7.3517628e-05
9.5249594e-05
-3.2189572e-12
-9.39843e-05
0.0001040119
-3.4715164e-12
-0.00011532796
0.0001101164
-3.2711954e-12
-0.00013712517
0.00011370724
-2.9927008e-12
-0.00015898353
0.0001149217
-2.7426687e-12
-0.00018053178
0.00011387289
-2.4725366e-12
-0.00020141215
0.0001106441
-2.1425503e-12
-0.00022127503
0.00010529246
-1.7325523e-12
-0.00023977618
9.78594e-05
-1.2687619e-12
-0.00025657637
8.8385325e-05
-8.2354441e-13
-0.00027134346
7.6926314e-05
-4.4790967e-13
-0.00028375659
6.3570903e-05
-1.0369157e-13
-0.00029351244
4.8455515e-05
3.2007218e-13
-0.00030033323
3.1777443e-05
8.9324985e-13
-0.00030397637
1.3804642e-05
1.5322451e-12
-0.00030424557
-5.1183645e-06
2.0274089e-12
-0.00030100297
-2.4569495e-05
2.2623997e-12
-0.00029418252
-4.4051377e-05
2.3081012e-12
-0.00028380327
-6.3001946e-05
2.4640777e-12
-0.00026998223
-8.0809288e-05
2.9285376e-12
-0.0002529455
-9.6833967e-05
3.4994283e-12
-0.00023303598
-0.00011043814
3.6848257e-12
-0.00021071598
-0.00012102114
3.2448871e-12
-0.00018656267
-0.00012806026
2.6098982e-12
-0.00016125486
-0.00013115445
2.5353541e-12
-0.00013555001
-0.00013006757
3.1842284e-12
-0.00011025147
-0.00012476693
3.7913074e-12
-8.6167354e-05
-0.00011545256
3.6046499e-12
-6.4063727e-05
-0.00010257334
2.907304e-12
-4.4616697e-05
-8.682719e-05
2.5163395e-12
-2.8368551e-05
-6.9145262e-05
3.2712223e-12
-1.5693149e-05
-5.0661699e-05
6.0754989e-12
-6.7752127e-06
-3.2668683e-05
3.869754e-12
-1.6070337e-06
-1.6562304e-05
-1.0579299e-11
-3.8432882e-06
1.540972e-11
-3.2816997e-06
1.441379e-05
-2.7647652e-11
-1.1915871e-05
4.1253729e-05
2.6406856e-11
-2.4855512e-05
6.5161419e-05
-3.1776911e-12
-4.1199917e-05
8.5685916e-05
-8.1531225e-12
-6.0176308e-05
0.0001026859
-3.6175228e-12
-8.1122249e-05
0.00011619554
-3.2134339e-12
-0.0001034663
0.00012635595
-3.5967117e-12
-0.00012670888
0.00013335898
-3.4458101e-12
-0.00015040465
0.00013740302
-3.173533e-12
-0.00017414714
0.0001386642
-2.9203664e-12
-0.00019755594
0.0001372817
-2.6682753e-12
-0.00022026668
0.00013335484
-2.400066e-12
-0.00024192389
0.00012694966
-2.0743802e-12
-0.00026217668
0.00011811219
-1.6490333e-12
-0.00028067717
0.00010688582
-1.1445364e-12
-0.0002970813
9.3330453e-05
-6.5168768e-13
-0.00031105195
7.7541559e-05
-2.5074503e-13
-0.00032226414
5.9667695e-05
8.5737726e-14
-0.00033041221
3.9925491e-05
4.9253324e-13
-0.00033521899
1.8611407e-05
1.0719408e-12
-0.00033644714
-3.8902017e-06
1.7484565e-12
-0.00033391173
-2.7104879e-05
2.3649452e-12
-0.00032749596
-5.0467138e-05
2.6320354e-12
-0.00031716687
-7.3331047e-05
2.6141993e-12
-0.00030299231
-9.4983895e-05
2.663537e-12
-0.00028515685
-0.00011466946
3.0712816e-12
-0.00026397519
-0.00013161978
3.6776573e-12
-0.0002399006
-0.00014509567
3.9314655e-12
-0.0002135258
-0.00015443504
3.5066159e-12
-0.00018557378
-0.00015910653
2.8219679e-12
-0.00015687661
-0.00015876482
2.6771456e-12
-0.00012834166
-0.00015330189
3.2530368e-12
-0.00010090606
-0.0001428881
3.8089787e-12
-7.5482452e-05
-0.0001279969
3.6024439e-12
-5.2901147e-05
-0.00010940853
2.7854313e-12
-3.3855134e-05
-8.8191321e-05
2.9855327e-12
-1.8854797e-05
-6.5662042e-05
6.2791056e-12
-8.1982614e-06
-4.3325198e-05
3.874567e-12
-1.9611584e-06
-2.2799383e-05
-1.3648308e-11
-5.8044696e-06
1.8175624e-11
-3.6023018e-06
1.8016123e-05
-3.004223e-11
-1.3044872e-05
5.0696268e-05
2.9418223e-11
-2.714929e-05
7.9265839e-05
-3.1203997e-12
-4.4907169e-05
0.00010344381
-8.6159186e-12
-6.5461503e-05
0.00012324024
-3.6474988e-12
-8.808723e-05
0.00013882127
-3.2377241e-12
-0.0001121688
0.00015043753
-3.7300903e-12
-0.00013717742
0.0001583676
-3.6524169e-12
-0.00016264988
0.00016287548
-3.4230489e-12
-0.00018816993
0.00016418426
-3.1770761e-12
-0.00021335264
0.00016246442
-2.905059e-12
-0.00023783202
0.00015783423
-2.6329108e-12
-0.0002612519
0.00015036954
-2.363938e-12
-0.00028325983
0.00014012011
-2.0419995e-12
-0.00030350383
0.00012712981
-1.6012075e-12
-0.00032163166
0.00011145829
-1.0514965e-12
-0.00033729244
9.320235e-05
-4.9872875e-13
-0.00035014038
7.2515637e-05
-5.5944e-14
-0.00035984079
4.9625896e-05
2.8199705e-13
-0.00036607843
2.4849031e-05
6.4852808e-13
-0.00036856898
-1.3996721e-06
1.1673117e-12
-0.00036707136
-2.8602496e-05
1.9977033e-12
-0.00036140637
-5.6132096e-05
2.7023063e-12
-0.00035147456
-8.3262824e-05
3.0187208e-12
-0.00033727781
-0.00010918066
2.9635959e-12
-0.00031894091
-0.0001330064
2.9100255e-12
-0.00029673177
-0.00015382896
3.2329569e-12
-0.00027107728
-0.00017075015
3.8218378e-12
-0.00024257161
-0.00018294064
4.0981744e-12
-0.00021197325
-0.00018970487
3.6920479e-12
-0.00018018759
-0.00019055052
3.0134296e-12
-0.00014823334
-0.0001852562
2.8514056e-12
-0.00011719278
-0.00017392867
3.3542133e-12
-8.8148947e-05
-0.00015704069
3.7171443e-12
-6.211537e-05
-0.00013544208
3.1714544e-12
-3.9966492e-05
-0.00011034022
3.1481934e-12
-2.2377622e-05
-8.3250943e-05
6.6898876e-12
-9.7826965e-06
-5.5920126e-05
3.7251368e-12
-2.3546946e-06
-3.0227355e-05
-1.7190915e-11
-8.1591827e-06
2.1238232e-11
-3.8870494e-06
2.1903206e-05
-3.222434e-11
-1.4048658e-05
6.0857845e-05
3.2052891e-11
-2.9192053e-05
9.4409234e-05
-3.1263494e-12
-4.8215265e-05
0.00012246702
-9.120675e-12
-7.0187842e-05
0.00014521282
-3.7808096e-12
-9.4330059e-05
0.00016296349
-3.3353932e-12
-0.00011998821
0.00017609569
-3.8836606e-12
-0.00014660908
0.00018498847
-3.8579399e-12
-0.00017371588
0.00018998228
-3.6941233e-12
-0.00020088685
0.00019135523
-3.50418e-12
-0.00022773708
0.00018931465
-3.2433269e-12
-0.0002539038
0.00018400096
-2.9360596e-12
-0.00027903519
0.00017550094
-2.6391787e-12
-0.00030278231
0.00016386724
-2.3645843e-12
-0.00032479396
0.00014914146
-2.045159e-12
-0.00034471404
0.00013137837
-1.590651e-12
-0.00036218126
0.00011066957
-9.9358621e-13
-0.00037683113
8.7165526e-05
-3.702204e-13
-0.00038830041
6.1095186e-05
1.3136927e-13
-0.00039623426
3.2782885e-05
4.9669248e-13
-0.00040029638
2.6624246e-06
9.018025e-13
-0.00040018389
-2.8715013e-05
1.4365172e-12
-0.00039564407
-6.0671919e-05
2.2403124e-12
-0.00038649736
-9.2409501e-05
3.0185445e-12
-0.00037266261
-0.00012301537
3.4031268e-12
-0.00035418495
-0.00015148406
3.3380512e-12
-0.00033126379
-0.00017675016
3.2038421e-12
-0.00030427785
-0.00019773613
3.431024e-12
-0.000273803
-0.00021341548
3.9472185e-12
-0.00024061829
-0.00022288953
4.1810573e-12
-0.00020569517
-0.00022547361
3.7778449e-12
-0.00017016638
-0.00022078503
3.1615086e-12
-0.0001352732
-0.00020882191
3.0526442e-12
-0.00010229334
-0.00019002055
3.3563213e-12
-7.245593e-05
-0.00016527946
3.1335044e-12
-4.6853285e-05
-0.00013594285
3.3778439e-12
-2.6361364e-05
-0.00010374288
7.4559718e-12
-1.1580448e-05
-7.0701059e-05
3.6967224e-12
-2.8033172e-06
-3.9004464e-05
-2.1257484e-11
-1.096252e-05
2.4662864e-11
-4.1321173e-06
2.6035358e-05
-3.4178553e-11
-1.4914096e-05
7.1639791e-05
3.4265417e-11
-3.0957129e-05
0.00011045227
-3.1647382e-12
-5.1080654e-05
0.00014259056
-9.6043793e-12
-7.4292273e-05
0.00016842444
-3.9843424e-12
-9.9766125e-05
0.00018843735
-3.5249118e-12
-0.00012681669
0.00020314626
-4.0984327e-12
-0.0001548713
0.00021304309
-4.0771642e-12
-0.00018344394
0.00021855492
-3.9478074e-12
-0.0002121115
0.0002200228
-3.8287356e-12
-0.00024049344
0.00021769659
-3.6395802e-12
-0.00026823493
0.00021174246
-3.3523942e-12
-0.00029499352
0.00020225953
-3.0077348e-12
-0.00032042905
0.00018930278
-2.6782515e-12
-0.0003441964
0.00017290882
-2.3896429e-12
-0.00036594074
0.0001531227
-2.0694851e-12
-0.00038529505
0.00013002388
-1.6041313e-12
-0.00040188002
0.00010375049
-9.6395736e-13
-0.00041530644
7.4521625e-05
-2.6565102e-13
-0.00042518076
4.2657229e-05
3.2972943e-13
-0.00043111396
8.5956216e-06
7.8180024e-13
-0.00043273622
-2.7092771e-05
1.0890509e-12
-0.00042971417
-6.3693994e-05
1.6390727e-12
-0.00042177619
-0.00010034749
2.477149e-12
-0.00040874172
-0.00013604982
3.3199644e-12
-0.00039055537
-0.00016967038
3.763279e-12
-0.00036732348
-0.00019998204
3.7048028e-12
-0.0003393498
-0.00022570986
3.5160553e-12
-0.00030716538
-0.00024559994
3.6432306e-12
-0.00027154684
-0.00025850807
4.0316253e-12
-0.000233516
-0.00026350442
4.1573727e-12
-0.00019431496
-0.00025998604
3.7630079e-12
-0.00015535291
-0.00024778399
3.2922767e-12
-0.00011812528
-0.00022724822
3.1198216e-12
-8.411184e-05
-0.0001992929
2.7611818e-12
-5.4665479e-05
-0.0001653892
3.3281088e-12
-3.0907337e-05
-0.00012750102
8.3610001e-12
-1.3644698e-05
-8.7963707e-05
3.8494676e-12
-3.3229944e-06
-4.9326147e-05
-2.5846762e-11
-1.4285542e-05
2.8614571e-11
-4.3334555e-06
3.0368847e-05
-3.5856997e-11
-1.5627794e-05
8.2934096e-05
3.6000646e-11
-3.2417909e-05
0.00012724239
-3.2549438e-12
-5.3460306e-05
0.00016363296
-1.0036515e-11
-7.771246e-05
0.0001926766
-4.2018642e-12
-0.000104311
0.00021503589
-3.7710057e-12
-0.00013254491
0.00023138017
-4.3887536e-12
-0.00016182693
0.00024232512
-4.3572893e-12
-0.00019166588
0.00024839387
-4.2145127e-12
-0.00022164124
0.00024999817
-4.1186705e-12
-0.00025138097
0.00024743632
-4.0036596e-12
-0.00028054265
0.00024090414
-3.807084e-12
-0.00030879822
0.00023051511
-3.4967866e-12
-0.00033582178
0.00021632635
-3.1105107e-12
-0.00036128017
0.00019836722
-2.7379604e-12
-0.00038482595
0.00017666848
-2.4230809e-12
-0.00040609255
0.00015129048
-2.0952377e-12
-0.00042469179
0.00012234972
-1.6221393e-12
-0.00044021386
9.0043692e-05
-9.4509466e-13
-0.00045223065
5.467404e-05
-1.6133753e-13
-0.00046030303
1.666802e-05
5.3477489e-13
-0.00046399356
-2.3402227e-05
9.8190875e-13
-0.00046288448
-6.4803093e-05
1.3530935e-12
-0.00045660342
-0.00010662858
1.9092343e-12
-0.0004448561
-0.00014779714
2.7501171e-12
-0.00042746613
-0.00018706033
3.6174698e-12
-0.0004044202
-0.00022302792
4.0881879e-12
-0.00037591559
-0.00025421447
4.0343439e-12
-0.00034240457
-0.00027911099
3.8053515e-12
-0.00030462863
-0.00029628405
3.8190998e-12
-0.00026363339
-0.00030449966
4.0250556e-12
-0.00022075512
-0.00030286428
4.0218591e-12
-0.00017757162
-0.00029096747
3.7084358e-12
-0.00013581501
-0.00026900485
3.2491341e-12
-9.7251941e-05
-0.00023785599
2.4569189e-12
-6.3544846e-05
-0.0001990963
3.0697205e-12
-3.611469e-05
-0.00015493118
9.2229806e-12
-1.6028556e-05
-0.00010804984
4.0360755e-12
-3.9298355e-06
-6.1424838e-05
-3.1083932e-11
-1.8215412e-05
3.3273276e-11
-4.4872243e-06
3.4856107e-05
-3.7190779e-11
-1.6177325e-05
9.4624159e-05
3.724465e-11
-3.35499e-05
0.00014461497
-3.4226851e-12
-5.5314555e-05
0.00018539763
-1.0435978e-11
-8.0390367e-05
0.00021775241
-4.4137133e-12
-0.0001078848
0.00024253033
-4.0201555e-12
-0.00013706725
0.00026056262
-4.7118906e-12
-0.00016734028
0.00027259815
-4.7050324e-12
-0.0001982112
0.0002792648
-4.547983e-12
-0.00022926561
0.00028105259
-4.4242762e-12
-0.00026014367
0.00027831439
-4.3148154e-12
-0.00029051967
0.00027128013
-4.1928787e-12
-0.00032008483
0.00026008027
-3.9926962e-12
-0.00034853318
0.00024477471
-3.659161e-12
-0.00037554994
0.00022538399
-3.2264171e-12
-0.00040080218
0.00020192075
-2.7993951e-12
-0.0004239316
0.0001744199
-2.442617e-12
-0.0004445493
0.00014296742
-2.0956056e-12
-0.00046223322
0.0001077276
-1.611404e-12
-0.00047652863
6.8969448e-05
-8.976461e-13
-0.00048695289
2.7092284e-05
-3.7873231e-14
-0.00049300564
-1.7349449e-05
7.3444407e-13
-0.00049418563
-6.3623088e-05
1.2800154e-12
-0.00049001582
-0.0001107984
1.6979338e-12
-0.00048007775
-0.00015773524
2.2563171e-12
-0.00046405568
-0.00020308242
3.077915e-12
-0.00044178976
-0.00024529383
3.919638e-12
-0.00041333574
-0.00028266845
4.3688983e-12
-0.00037902594
-0.00031342078
4.2982173e-12
-0.00033952333
-0.00033578669
4.0189587e-12
-0.00029585753
-0.0003481655
3.8868184e-12
-0.0002494298
-0.000349292
3.8974715e-12
-0.00020197496
-0.00033842229
3.8415836e-12
-0.00015547283
-0.00031550697
3.4522542e-12
-0.00011201159
-0.00028131725
2.3436798e-12
-7.3617501e-05
-0.0002374904
2.8519163e-12
-4.2077007e-05
-0.00018647168
1.012717e-11
-1.8784002e-05
-0.00013134284
4.1620211e-12
-4.640009e-06
-7.556879e-05
-3.7182308e-11
-2.2855461e-05
3.8754172e-11
-4.5902827e-06
3.9446429e-05
-3.8135743e-11
-1.655269e-05
0.00010658653
3.8020615e-11
-3.4333351e-05
0.00016239564
-3.6510143e-12
-5.6610888e-05
0.00020767518
-1.0825757e-11
-8.2277186e-05
0.00024341872
-4.6495416e-12
-0.00011041819
0.00027067134
-4.2615618e-12
-0.00014028892
0.00029043336
-5.0149876e-12
-0.00017128552
0.00030359474
-5.0658521e-12
-0.00020291689
0.00031089618
-4.9421276e-12
-0.0002347777
0.0003129134
-4.8042562e-12
-0.00026652359
0.00031006029
-4.6462294e-12
-0.00029784946
0.00030260601
-4.5062303e-12
-0.00032847061
0.00029070143
-4.3752051e-12
-0.00035810672
0.00027441082
-4.1672762e-12
-0.00038646826
0.00025374552
-3.8075222e-12
-0.00041324486
0.00022869736
-3.3240345e-12
-0.00043809568
0.00019927073
-2.8315585e-12
-0.00046064152
0.00016551328
-2.4156909e-12
-0.00048045932
0.0001275454
-2.0321292e-12
-0.00049707946
8.5589582e-05
-1.5259409e-12
-0.0005099872
4.0000014e-05
-7.7897987e-13
-0.00051862939
-8.7072533e-06
1.4294454e-13
-0.00052242834
-5.9824118e-05
1.0084917e-12
-0.00052080462
-0.0001124221
1.6464081e-12
-0.00051321089
-0.00016532898
2.1240995e-12
-0.00049917823
-0.00021711511
2.6910869e-12
-0.00047837551
-0.00026609657
3.4654385e-12
-0.0004506806
-0.00031036335
4.222209e-12
-0.0004162589
-0.00034784245
4.5889992e-12
-0.00037564085
-0.00037640473
4.4562774e-12
-0.00032978532
-0.00039402105
4.0843503e-12
-0.00028011191
-0.00039896544
3.7998495e-12
-0.00022848373
-0.00039005048
3.7066715e-12
-0.00017712616
-0.00036686453
3.4207859e-12
-0.00012847765
-0.00032996575
2.1945601e-12
-8.4985583e-05
-0.00028098247
2.7152284e-12
-4.8878642e-05
-0.00022257864
1.1238192e-11
-2.1960825e-05
-0.00015826066
4.28404e-12
-5.4696774e-06
-9.2059891e-05
-4.4306303e-11
-2.8325182e-05
4.5142244e-11
-4.6407187e-06
4.4087189e-05
-3.8696244e-11
-1.6747987e-05
0.00011869376
3.8341719e-11
-3.4756313e-05
0.00018040396
-3.8895285e-12
-5.7328466e-05
0.00023024734
-1.1186209e-11
-8.3339268e-05
0.00026942953
-4.9384009e-12
-0.00011185972
0.0002991918
-4.5340941e-12
-0.00014213476
0.0003207084
-5.3021627e-12
-0.00017355703
0.00033501702
-5.3911316e-12
-0.00020563945
0.0003429786
-5.3283325e-12
-0.00023798811
0.00034526207
-5.234967e-12
-0.00027027702
0.00034234921
-5.0581461e-12
-0.0003022252
0.0003345542
-4.8443957e-12
-0.00033357653
0.00032205277
-4.6655617e-12
-0.00036408207
0.00030491636
-4.5121749e-12
-0.0003934846
0.00028314805
-4.2848443e-12
-0.00042150502
0.00025671778
-3.8928937e-12
-0.00044783033
0.00022559606
-3.3542578e-12
-0.00047210323
0.00018978619
-2.7870609e-12
-0.00049391353
0.00014935571
-2.295951e-12
-0.00051279208
0.00010446813
-1.8556908e-12
-0.00052820808
5.5416007e-05
-1.3118612e-12
-0.00053957141
2.6560575e-06
-5.2485456e-13
-0.00054624184
-5.3153679e-05
4.4161619e-13
-0.00054754741
-0.00011111652
1.3847219e-12
-0.00054281499
-0.00017006138
2.1092427e-12
-0.0005314158
-0.00022851432
2.6500919e-12
-0.00051282805
-0.00028468435
3.2168405e-12
-0.00048671738
-0.00033647404
3.9026144e-12
-0.00045303247
-0.00038152736
4.5048012e-12
-0.00041210823
-0.00041732895
4.7112118e-12
-0.00036476274
-0.00044136654
4.4410631e-12
-0.00031236681
-0.00045136138
3.9543714e-12
-0.00025686081
-0.0004455565
3.6115754e-12
-0.00020069381
-0.00042303154
3.198436e-12
-0.00014667113
-0.00038398842
1.8128141e-12
-9.7717403e-05
-0.0003299362
2.4916507e-12
-5.6590331e-05
-0.00026370573
1.2573459e-11
-2.5605327e-05
-0.00018924567
4.4782312e-12
-6.4348946e-06