/*--------------------------------*- C++ -*----------------------------------*\
  =========                 |
  \\      /  F ield         | OpenFOAM: The Open Source CFD Toolbox
   \\    /   O peration     | Website:  https://openfoam.org
    \\  /    A nd           | Version:  7
     \\/     M anipulation  |
\*---------------------------------------------------------------------------*/
FoamFile
{
    version     2.0;
    format      ascii;
    class       volVectorField;
    location    "45";
    object      U;
}
// * * * * * * * * * * * * * * * * * * * * * * * * * * * * * * * * * * * * * //

dimensions      [0 1 -1 0 0 0 0];

internalField   nonuniform List<vector> 
16000
(
(6.6062679e-05 -6.73145e-05 -3.9947226e-07)
(0.00016278248 -5.6344282e-05 5.7048659e-06)
(0.00014193857 4.6852135e-07 1.9205152e-05)
(-5.06089e-05 6.189381e-05 3.6627732e-05)
(-0.00040996507 0.00011563257 5.4736366e-05)
(-0.00090902112 0.00015774458 7.1564742e-05)
(-0.0015177085 0.00018850517 8.577681e-05)
(-0.0022068845 0.00020960929 9.6557491e-05)
(-0.0029506006 0.00022287685 0.00010344649)
(-0.0037264646 0.00022981112 0.00010619683)
(-0.0045150506 0.00023147711 0.00010468123)
(-0.0052990134 0.00022850398 9.8836626e-05)
(-0.0060621932 0.00022114745 8.8638416e-05)
(-0.0067888641 0.00020938312 7.4097177e-05)
(-0.007463216 0.00019301383 5.5271661e-05)
(-0.0080691172 0.00017178081 3.2292051e-05)
(-0.0085901699 0.00014547199 5.3881764e-06)
(-0.0090100503 0.00011402229 -2.5082121e-05)
(-0.009313103 7.7601791e-05 -5.8608887e-05)
(-0.0094851492 3.6687766e-05 -9.4514269e-05)
(-0.0095144491 -7.8860461e-06 -0.00013194848)
(-0.0093927307 -5.4923688e-05 -0.00016990043)
(-0.009116225 -0.00010284314 -0.00020722396)
(-0.0086866032 -0.00014974921 -0.00024268141)
(-0.0081116926 -0.00019351209 -0.00027500291)
(-0.0074058961 -0.00023188624 -0.00030295916)
(-0.0065902206 -0.00026266059 -0.00032544348)
(-0.0056918537 -0.00028382659 -0.00034155616)
(-0.0047432595 -0.00029374779 -0.0003506836)
(-0.0037808169 -0.00029131188 -0.0003525647)
(-0.002843063 -0.00027604709 -0.0003473386)
(-0.0019686527 -0.00024818879 -0.00033557076)
(-0.0011941451 -0.00020869682 -0.00031825628)
(-0.00055166649 -0.00015926041 -0.00029680152)
(-6.6505493e-05 -0.00010240661 -0.00027297791)
(0.00024492193 -4.1755725e-05 -0.00024884282)
(0.00037893993 1.7847795e-05 -0.00022677522)
(0.00034978154 6.7071662e-05 -0.00020920787)
(0.00020618412 8.9855425e-05 -0.00019881421)
(5.7464795e-05 5.7410839e-05 -0.00018436748)
(5.8014375e-05 -0.0001670006 -6.6261658e-06)
(4.0905582e-05 -3.9934892e-05 -3.7046458e-07)
(-0.00029495515 0.00024857985 1.1263109e-05)
(-0.0010110105 0.00056213314 2.5629135e-05)
(-0.0020992193 0.00084750252 4.061417e-05)
(-0.0035140829 0.0010831246 5.4622361e-05)
(-0.0051946841 0.0012643041 6.6526361e-05)
(-0.0070766299 0.0013940699 7.5573905e-05)
(-0.0090981522 0.0014779622 8.1283283e-05)
(-0.011202309 0.0015215283 8.3354869e-05)
(-0.013337038 0.0015292121 8.1605292e-05)
(-0.015454182 0.0015039767 7.5924514e-05)
(-0.017508154 0.0014473585 6.6254157e-05)
(-0.01945472 0.0013597794 5.2583475e-05)
(-0.02125016 0.0012410035 3.4958638e-05)
(-0.022850979 0.0010906603 1.3500879e-05)
(-0.024214229 0.00090877684 -1.1570822e-05)
(-0.025298435 0.00069627749 -3.9916627e-05)
(-0.026065059 0.00045541606 -7.1056023e-05)
(-0.0264804 0.00019010837 -0.00010435482)
(-0.026517816 -9.3863766e-05 -0.000139022)
(-0.026159989 -0.00038877415 -0.00017412582)
(-0.02540117 -0.00068508941 -0.00020861041)
(-0.02424917 -0.00097175821 -0.00024134365)
(-0.022726751 -0.0012366935 -0.00027117027)
(-0.02087235 -0.0014674282 -0.00029697863)
(-0.018739913 -0.0016519055 -0.00031777597)
(-0.016397718 -0.0017793499 -0.00033276607)
(-0.013926126 -0.0018411449 -0.00034142218)
(-0.011414316 -0.001831635 -0.00034354691)
(-0.0089560958 -0.0017487771 -0.00033931222)
(-0.006645003 -0.0015945876 -0.00032927607)
(-0.0045688968 -0.0013753889 -0.00031437602)
(-0.0028042256 -0.0011019646 -0.00029590178)
(-0.0014100216 -0.00078992111 -0.00027544648)
(-0.00042163366 -0.00046058907 -0.00025482819)
(0.00015577176 -0.00014255865 -0.0002359627)
(0.0003567292 0.0001223177 -0.00022086308)
(0.00027526294 0.0002711335 -0.00021162458)
(9.0122067e-05 0.00020509715 -0.0001954312)
(1.9236555e-06 -0.00014894355 -2.0411819e-05)
(-0.00025603561 0.00029704202 -1.1791787e-05)
(-0.0010504372 0.0010236414 1.0652286e-07)
(-0.0023878144 0.0017975515 1.3086565e-05)
(-0.0042394341 0.002509912 2.6122779e-05)
(-0.006545556 0.003110063 3.8074323e-05)
(-0.0092251205 0.0035809299 4.8114139e-05)
(-0.012189998 0.0039234365 5.5681518e-05)
(-0.015352989 0.0041461882 6.0394858e-05)
(-0.018631057 0.0042595936 6.1997549e-05)
(-0.021946081 0.0042728175 6.0316692e-05)
(-0.025224259 0.0041924778 5.5234449e-05)
(-0.028394925 0.0040224722 4.6674441e-05)
(-0.031389394 0.0037645266 3.4601486e-05)
(-0.034140223 0.0034191731 1.9031696e-05)
(-0.036581146 0.0029869425 4.9667661e-08)
(-0.038647754 0.0024696085 -2.2170646e-05)
(-0.040278948 0.0018713615 -4.734478e-05)
(-0.041419059 0.0011998107 -7.5059368e-05)
(-0.042020508 0.00046673221 -0.00010475974)
(-0.042046773 -0.000311498 -0.00013574805)
(-0.041475478 -0.0011138101 -0.00016718885)
(-0.040301323 -0.0019148752 -0.0001981346)
(-0.038538562 -0.0026858614 -0.00022756211)
(-0.036222759 -0.0033956776 -0.00025442369)
(-0.033411587 -0.0040126075 -0.00027770944)
(-0.030184433 -0.004506249 -0.00029651673)
(-0.026640648 -0.0048496373 -0.00031012185)
(-0.022896384 -0.0050213883 -0.00031804785)
(-0.019080022 -0.0050076871 -0.0003201211)
(-0.01532633 -0.0048039529 -0.00031650807)
(-0.011769572 -0.0044160679 -0.00030772642)
(-0.0085358375 -0.0038611608 -0.00029462934)
(-0.005734884 -0.003168102 -0.00027836733)
(-0.003451707 -0.0023781139 -0.00026033252)
(-0.0017379815 -0.0015461884 -0.00024208272)
(-0.00060368404 -0.00074418899 -0.00022523301)
(-8.0356115e-06 -6.6361166e-05 -0.00021137754)
(0.00015540773 0.00036039712 -0.0002021991)
(7.3552799e-05 0.00035437672 -0.00018528154)
(-6.4681813e-05 5.0433904e-05 -3.866368e-05)
(-0.00060837439 0.0010457759 -2.6123665e-05)
(-0.0019305303 0.0023817518 -1.2142326e-05)
(-0.0039464308 0.0037565313 1.1504476e-06)
(-0.0065890104 0.0050153233 1.3738608e-05)
(-0.009779199 0.00608007 2.4862876e-05)
(-0.01341713 0.0069205265 3.3986046e-05)
(-0.017395536 0.0075341168 4.0772749e-05)
(-0.021607748 0.007931399 4.4986984e-05)
(-0.025950711 0.0081270426 4.6456931e-05)
(-0.030325868 0.0081347705 4.5051864e-05)
(-0.034638819 0.0079650039 4.0665489e-05)
(-0.038798387 0.0076243771 3.3210733e-05)
(-0.042715708 0.0071165104 2.262526e-05)
(-0.046303776 0.0064435562 8.8853045e-06)
(-0.049477694 0.0056081469 -7.9746804e-06)
(-0.052155751 0.0046154518 -2.7839272e-05)
(-0.054261315 0.0034751143 -5.0489217e-05)
(-0.055725443 0.0022028918 -7.5581382e-05)
(-0.056490045 0.00082185416 -0.00010263467)
(-0.056511345 -0.00063696717 -0.00013102484)
(-0.055763448 -0.0021345945 -0.00015998701)
(-0.054241672 -0.0036248135 -0.00018863884)
(-0.051965321 -0.0050556199 -0.00021601267)
(-0.048979667 -0.0063713928 -0.00024110526)
(-0.045356812 -0.0075157185 -0.0002629397)
(-0.041195194 -0.0084347278 -0.00028063487)
(-0.036617537 -0.0090807502 -0.00029347666)
(-0.031767145 -0.0094160273 -0.00030098467)
(-0.026802519 -0.0094162017 -0.00030296804)
(-0.021890418 -0.0090733051 -0.00029956285)
(-0.01719757 -0.0083980414 -0.00029124341)
(-0.012881385 -0.0074212965 -0.00027880265)
(-0.0090800547 -0.0061950231 -0.00026330382)
(-0.0059024838 -0.0047929323 -0.0002460118)
(-0.0034184998 -0.0033118184 -0.00022831328)
(-0.0016495331 -0.0018745336 -0.00021163721)
(-0.00055980072 -0.00063470835 -0.00019738242)
(-5.0114624e-05 0.00021500176 -0.00018678476)
(3.8094707e-05 0.00041383226 -0.00016797969)
(-0.00013086445 0.00044556825 -5.8179905e-05)
(-0.00097094712 0.0022426984 -4.1113701e-05)
(-0.0028462079 0.0043591941 -2.4231252e-05)
(-0.0055648084 0.0064572218 -9.7989002e-06)
(-0.0090094373 0.0083534821 3.1195856e-06)
(-0.013075457 0.0099514571 1.4099514e-05)
(-0.017642276 0.011211752 2.2878038e-05)
(-0.022584678 0.012129587 2.935036e-05)
(-0.027779631 0.012717528 3.343921e-05)
(-0.033108112 0.012994149 3.507168e-05)
(-0.038455494 0.012977369 3.4170478e-05)
(-0.043711127 0.012681218 3.0647231e-05)
(-0.048767518 0.012115132 2.4405119e-05)
(-0.05351963 0.011284991 1.5350678e-05)
(-0.057864698 0.010195263 3.412532e-06)
(-0.061702792 0.0088517449 -1.1434961e-05)
(-0.064938227 0.0072644435 -2.9145285e-05)
(-0.067481793 0.0054502951 -4.9573126e-05)
(-0.069253702 0.0034354383 -7.2450437e-05)
(-0.070187075 0.0012568457 -9.7368334e-05)
(-0.070231726 -0.0010368497 -0.0001237677)
(-0.069358018 -0.0033854743 -0.00015094068)
(-0.067560465 -0.005718395 -0.00017804689)
(-0.064860801 -0.0079566857 -0.00020414444)
(-0.061310203 -0.010016303 -0.00022823777)
(-0.056990367 -0.011812191 -0.00024934013)
(-0.052013154 -0.013263141 -0.0002665462)
(-0.046518561 -0.014297145 -0.00027910758)
(-0.040670851 -0.01485689 -0.00028650272)
(-0.034652768 -0.014904998 -0.0002884941)
(-0.028657899 -0.014428609 -0.00028516625)
(-0.022881406 -0.013442968 -0.00027693871)
(-0.017509481 -0.011993825 -0.00026454763)
(-0.012708058 -0.010158716 -0.00024899373)
(-0.0086114684 -0.0080474996 -0.00023146111)
(-0.0053117563 -0.0058029601 -0.00021322588)
(-0.0028485211 -0.003602476 -0.00019559862)
(-0.0012000357 -0.0016605446 -0.00017984787)
(-0.00028881024 -0.00023377991 -0.00016670343)
(-2.4712812e-06 0.00035046499 -0.00014547382)
(-0.00019286456 0.001031308 -7.6660101e-05)
(-0.0013239852 0.0038925375 -5.475528e-05)
(-0.0037518549 0.0069680044 -3.4550528e-05)
(-0.0071732974 0.0099108243 -1.8456976e-05)
(-0.011414805 0.012527403 -4.6612279e-06)
(-0.016341482 0.014714509 6.7014767e-06)
(-0.021809619 0.016430506 1.561826e-05)
(-0.027675878 0.017672022 2.220385e-05)
(-0.033802397 0.018455251 2.6536715e-05)
(-0.040056848 0.018803216 2.8643497e-05)
(-0.046311838 0.018738081 2.8501373e-05)
(-0.052444061 0.018277411 2.6039369e-05)
(-0.058333356 0.017433439 2.1147938e-05)
(-0.063862062 0.016214498 1.3696992e-05)
(-0.068914992 0.014627827 3.5601298e-06)
(-0.073380202 0.012683112 -9.3568204e-06)
(-0.077150614 0.010396213 -2.5084673e-05)
(-0.080126454 0.0077926399 -4.3559313e-05)
(-0.082218395 0.0049104474 -6.4592399e-05)
(-0.083351222 0.0018022831 -8.7847634e-05)
(-0.083467826 -0.0014636079 -0.00011282604)
(-0.082533265 -0.0048035792 -0.00013886376)
(-0.080538656 -0.0081200477 -0.00016514387)
(-0.077504589 -0.011304336 -0.00019072579)
(-0.073483766 -0.014240832 -0.00021459145)
(-0.068562536 -0.016812391 -0.00023570835)
(-0.062861006 -0.018906782 -0.00025310585)
(-0.0565314 -0.020423861 -0.00026595766)
(-0.049754415 -0.021283051 -0.00027366026)
(-0.042733401 -0.021430611 -0.00027589664)
(-0.035686357 -0.020846122 -0.00027267741)
(-0.028835913 -0.019547674 -0.00026435455)
(-0.022397705 -0.017595393 -0.00025160493)
(-0.01656776 -0.015093169 -0.00023538007)
(-0.011509867 -0.012188858 -0.00021681967)
(-0.007343901 -0.0090736714 -0.00019714939)
(-0.0041345375 -0.0059816735 -0.00017763843)
(-0.0018815992 -0.0031890388 -0.00015951914)
(-0.00053619311 -0.0010143226 -0.00014312384)
(-4.1245807e-05 0.00015894889 -0.00011903398)
(-0.00025011647 0.0017985715 -9.2146837e-05)
(-0.0016597721 0.0059841439 -6.5255722e-05)
(-0.0046244551 0.010198621 -4.156943e-05)
(-0.0087321682 0.014107025 -2.3514601e-05)
(-0.013751603 0.017522341 -8.4761441e-06)
(-0.019515079 0.020347122 3.6628707e-06)
(-0.025854144 0.022545928 1.3114161e-05)
(-0.032607009 0.024122006 2.0193867e-05)
(-0.039621881 0.025098112 2.5124326e-05)
(-0.04675501 0.025503181 2.8023834e-05)
(-0.053868799 0.025364232 2.8917966e-05)
(-0.060830246 0.024702541 2.7747397e-05)
(-0.067509639 0.023533177 2.4383502e-05)
(-0.073779766 0.021866982 1.8652206e-05)
(-0.079515878 0.019714126 1.0363811e-05)
(-0.084596502 0.017088493 -6.5299989e-07)
(-0.088905129 0.014012236 -1.4514649e-05)
(-0.092332705 0.010520011 -3.124555e-05)
(-0.094780825 0.0066624827 -5.0742785e-05)
(-0.096165471 0.0025088071 -7.2745773e-05)
(-0.096421126 -0.0018521452 -9.6814791e-05)
(-0.095505035 -0.0063119949 -0.0001223232)
(-0.093401437 -0.010744591 -0.00014846426)
(-0.090125484 -0.015009425 -0.00017427888)
(-0.085726507 -0.01895667 -0.00019870089)
(-0.080290345 -0.022433826 -0.00022062122)
(-0.073940285 -0.02529375 -0.00023896747)
(-0.066836243 -0.027403772 -0.00025279341)
(-0.059171754 -0.028655378 -0.00026136852)
(-0.051168505 -0.028973824 -0.0002642547)
(-0.043068246 -0.028326927 -0.00026135728)
(-0.035122196 -0.026732284 -0.00025294329)
(-0.027578339 -0.024262246 -0.00023962582)
(-0.020667347 -0.021046307 -0.00022231514)
(-0.01458835 -0.017270901 -0.00020213226)
(-0.0094958208 -0.013177225 -0.00018030294)
(-0.0054864911 -0.0090579298 -0.00015813053)
(-0.0025879536 -0.0052522183 -0.00013689968)
(-0.00078446941 -0.0021405354 -0.00011661484)
(-7.6873592e-05 -0.00016053831 -8.9410308e-05)
(-0.00030295612 0.0027365301 -0.00010297052)
(-0.0019754987 0.008498107 -7.0998591e-05)
(-0.0054521412 0.014028584 -4.385081e-05)
(-0.010217973 0.019021399 -2.3706218e-05)
(-0.015985181 0.023311106 -7.2109157e-06)
(-0.0225528 0.026818208 5.9781789e-06)
(-0.029727186 0.029522442 1.6275515e-05)
(-0.03732821 0.031439789 2.4178888e-05)
(-0.045190987 0.032603414 3.003843e-05)
(-0.053161894 0.033050384 3.4051145e-05)
(-0.06109525 0.032813703 3.6280221e-05)
(-0.068850861 0.031918834 3.666851e-05)
(-0.076292142 0.030383793 3.5059406e-05)
(-0.083284991 0.028221867 3.122588e-05)
(-0.089697552 0.025446025 2.4905512e-05)
(-0.095400893 0.022074175 1.5840014e-05)
(-0.10027057 0.018134572 3.8175534e-06)
(-0.10418904 0.013670804 -1.1284063e-05)
(-0.10704872 0.0087459292 -2.9455673e-05)
(-0.10875574 0.0034454463 -5.05194e-05)
(-0.10923406 -0.002121165 -7.4099545e-05)
(-0.10843 -0.0078205213 -9.9607815e-05)
(-0.10631684 -0.013497152 -0.00012624261)
(-0.10289945 -0.018977289 -0.00015301364)
(-0.098218429 -0.024074609 -0.00017878593)
(-0.092353561 -0.028597966 -0.00020234595)
(-0.085426038 -0.032360985 -0.00022248543)
(-0.077598903 -0.035193196 -0.00023809781)
(-0.069075169 -0.036952163 -0.00024827888)
(-0.060093121 -0.037535854 -0.0002524195)
(-0.050918474 -0.036894262 -0.00025027463)
(-0.041833361 -0.035039219 -0.00024199523)
(-0.033122487 -0.032051384 -0.00022811844)
(-0.025057302 -0.02808365 -0.00020951861)
(-0.017879651 -0.023360681 -0.00018731887)
(-0.011786481 -0.018174999 -0.00016278567)
(-0.0069140701 -0.012880397 -0.00013732265)
(-0.0033238391 -0.007882263 -0.00011235315)
(-0.001036863 -0.0036261496 -8.7645703e-05)
(-0.00011093492 -0.00060702007 -5.720658e-05)
(-0.00035169318 0.0038338225 -0.00010766751)
(-0.0022696857 0.011410365 -7.0509864e-05)
(-0.0062274788 0.018427306 -4.0031871e-05)
(-0.011614748 0.024619964 -1.7781458e-05)
(-0.018090317 0.029857568 2.8243023e-07)
(-0.025421021 0.034089885 1.4711808e-05)
(-0.033388716 0.03732072 2.6106162e-05)
(-0.041795672 0.039585254 3.5126199e-05)
(-0.050464969 0.040931447 4.2232882e-05)
(-0.05923459 0.041407242 4.7687016e-05)
(-0.067952674 0.041053187 5.1576323e-05)
(-0.076474039 0.039899669 5.3834269e-05)
(-0.084657596 0.037967842 5.4265756e-05)
(-0.092364712 0.035273272 5.2580706e-05)
(-0.09945859 0.03183129 4.8433602e-05)
(-0.10580462 0.027663184 4.1467951e-05)
(-0.11127169 0.022802464 3.1364339e-05)
(-0.11573423 0.017300629 1.7890061e-05)
(-0.11907517 0.011231985 9.4782469e-07)
(-0.12118942 0.0046971926 -1.9379294e-05)
(-0.12198809 -0.0021747125 -4.2790489e-05)
(-0.12140313 -0.00922607 -6.8744866e-05)
(-0.11939248 -0.016272196 -9.6450034e-05)
(-0.11594549 -0.023105291 -0.00012488136)
(-0.11108823 -0.029500584 -0.00015282142)
(-0.10488841 -0.035224944 -0.00017892721)
(-0.097459313 -0.040047915 -0.00020181954)
(-0.088962031 -0.043754923 -0.00022018832)
(-0.079605257 -0.046162117 -0.00023290553)
(-0.06964189 -0.047131962 -0.00023913487)
(-0.059361865 -0.046588363 -0.00023842315)
(-0.049080953 -0.044529876 -0.00023075592)
(-0.039125755 -0.041039499 -0.00021656497)
(-0.029815745 -0.03628976 -0.00019668472)
(-0.021444143 -0.030542383 -0.00017225878)
(-0.01425951 -0.02414264 -0.00014463098)
(-0.0084461234 -0.017509199 -0.00011536341)
(-0.0041057566 -0.011119103 -8.6098248e-05)
(-0.0013000799 -0.0054896938 -5.6439828e-05)
(-0.00014466065 -0.0011817409 -2.2489233e-05)
(-0.0003963925 0.0050786764 -0.00010491854)
(-0.002540805 0.014693492 -6.2436909e-05)
(-0.0069442138 0.023357986 -2.8830617e-05)
(-0.012909248 0.030860818 -4.5289887e-06)
(-0.020045659 0.037117359 1.5150697e-05)
(-0.028090312 0.042116916 3.0957851e-05)
(-0.036802157 0.045895795 4.3662743e-05)
(-0.045967207 0.048514826 5.4072192e-05)
(-0.055397847 0.05004137 6.2741993e-05)
(-0.064925216 0.050537312 6.9982083e-05)
(-0.074393076 0.050052602 7.5891408e-05)
(-0.083653297 0.048623491 8.0381973e-05)
(-0.092562457 0.046274539 8.3208996e-05)
(-0.10097956 0.04302332 8.4008543e-05)
(-0.10876487 0.038886826 8.2340827e-05)
(-0.11577978 0.033888625 7.7738696e-05)
(-0.12188764 0.028066013 6.9760642e-05)
(-0.1269554 0.021476599 5.80467e-05)
(-0.13085612 0.014203877 4.2374676e-05)
(-0.13347227 0.0063614867 2.2713875e-05)
(-0.13469977 -0.001904088 -7.280822e-07)
(-0.13445283 -0.010412657 -2.7476401e-05)
(-0.1326696 -0.01895138 -5.6759889e-05)
(-0.12931856 -0.027278406 -8.7526997e-05)
(-0.12440509 -0.035129038 -0.00011847429)
(-0.11797826 -0.042224892 -0.00014811085)
(-0.11013685 -0.048286167 -0.00017485191)
(-0.10103395 -0.053046901 -0.00019713508)
(-0.090879082 -0.05627275 -0.00021354959)
(-0.079936768 -0.057780336 -0.00022296632)
(-0.068520635 -0.057456696 -0.00022465458)
(-0.056982433 -0.055276925 -0.00021836805)
(-0.045695958 -0.051317905 -0.0002043818)
(-0.035036661 -0.045766099 -0.00018346692)
(-0.025358977 -0.038918055 -0.00015679622)
(-0.016973704 -0.03117332 -0.00012582563)
(-0.01012313 -0.023020492 -9.2332209e-05)
(-0.0049573042 -0.015016289 -5.8252509e-05)
(-0.0015839116 -0.007760171 -2.3080899e-05)
(-0.00018000464 -0.0018919988 1.478203e-05)
(-0.00043687331 0.006458571 -9.3521081e-05)
(-0.0027868523 0.018316908 -4.5540775e-05)
(-0.0075959002 0.028778332 -9.0563648e-06)
(-0.014088641 0.03769492 1.7197658e-05)
(-0.021830808 0.045038225 3.8501517e-05)
(-0.030532269 0.050846288 5.5793782e-05)
(-0.039931319 0.055195708 7.0003717e-05)
(-0.049799511 0.058179133 8.2069415e-05)
(-0.059940136 0.059887937 9.2627265e-05)
(-0.070179119 0.060401162 0.00010202322)
(-0.080357622 0.059780207 0.00011035542)
(-0.090326509 0.058068291 0.00011750328)
(-0.099942082 0.055293697 0.00012316162)
(-0.10906306 0.051475678 0.00012688173)
(-0.11754872 0.046631958 0.00012811774)
(-0.12525817 0.040786893 0.00012627819)
(-0.13205051 0.033979546 0.00012078292)
(-0.1377859 0.026271125 0.00011112432)
(-0.14232754 0.017751396 9.6931037e-05)
(-0.14554452 0.0085438127 7.8031398e-05)
(-0.14731572 -0.0011908598 5.451195e-05)
(-0.14753462 -0.011252637 2.6750457e-05)
(-0.14611544 -0.021402756 -4.5234955e-06)
(-0.14300051 -0.031366234 -3.8250089e-05)
(-0.13816826 -0.04083769 -7.3047678e-05)
(-0.13164197 -0.049490601 -0.0001072693)
(-0.12349841 -0.056990436 -0.00013909562)
(-0.11387531 -0.063011813 -0.00016666065)
(-0.10297655 -0.067259349 -0.00018820088)
(-0.091073522 -0.069491286 -0.00020221275)
(-0.078501391 -0.06954419 -0.00020760174)
(-0.065648987 -0.067356343 -0.00020380492)
(-0.052942012 -0.062986921 -0.00019086694)
(-0.040820059 -0.056628019 -0.00016944717)
(-0.029709667 -0.048607165 -0.00014073636)
(-0.019996222 -0.039379407 -0.00010632917)
(-0.011992172 -0.029509504 -6.8275281e-05)
(-0.0059060255 -0.019644352 -2.8882997e-05)
(-0.0018995945 -0.010479296 1.2426196e-05)
(-0.00021911064 -0.00275049 5.4762795e-05)
(-0.00047276078 0.0079598546 -7.2384438e-05)
(-0.003005307 0.022246669 -1.8699665e-05)
(-0.0081754822 0.034640716 2.0377199e-05)
(-0.015139639 0.045066395 4.8457842e-05)
(-0.023425074 0.053560171 7.1373063e-05)
(-0.032718089 0.06021691 9.0243761e-05)
(-0.04273898 0.065160522 0.00010614808)
(-0.053246925 0.068521234 0.00012014233)
(-0.064037882 0.070418884 0.00013293133)
(-0.074934241 0.070952922 0.00014488613)
(-0.085776312 0.070198362 0.00015609429)
(-0.096415827 0.068206615 0.00016639357)
(-0.10671081 0.065010088 0.0001754094)
(-0.11652174 0.060629351 0.00018259834)
(-0.12570895 0.055081782 0.00018729657)
(-0.1341311 0.048390752 0.00018877368)
(-0.14164462 0.040594627 0.0001862923)
(-0.14810402 0.031755107 0.00017917364)
(-0.1533632 0.021964577 0.00016686776)
(-0.15727766 0.011352259 0.00014902543)
(-0.15970803 8.9011846e-05 0.00012556761)
(-0.16052492 -0.011609443 9.6755915e-05)
(-0.15961529 -0.023481696 6.3219662e-05)
(-0.15689041 -0.035221788 2.6000577e-05)
(-0.15229557 -0.046484024 -1.3460503e-05)
(-0.14582083 -0.056891693 -5.3364539e-05)
(-0.13751249 -0.066050538 -9.1638755e-05)
(-0.12748404 -0.073567431 -0.00012606627)
(-0.11592513 -0.079074261 -0.00015445421)
(-0.10310686 -0.082256243 -0.00017482497)
(-0.08938123 -0.082882842 -0.00018560898)
(-0.075173049 -0.080838451 -0.00018581563)
(-0.060963178 -0.076149013 -0.00017515917)
(-0.047263091 -0.069000365 -0.000154111)
(-0.034583092 -0.059744614 -0.00012384187)
(-0.023397399 -0.048892505 -8.6094258e-05)
(-0.014103447 -0.037091896 -4.3245724e-05)
(-0.0069814341 -0.025092621 1.9396157e-06)
(-0.0022590064 -0.013702947 5.0087628e-05)
(-0.000264146 -0.0037760392 9.764304e-05)
(-0.00050355104 0.009567443 -4.0538984e-05)
(-0.0031932761 0.026445192 1.9078694e-05)
(-0.0086754054 0.040892105 6.0434421e-05)
(-0.016048495 0.052912593 9.019993e-05)
(-0.024807365 0.062615425 0.00011470391)
(-0.03461842 0.07015923 0.00013524264)
(-0.045186795 0.075721412 0.00015303402)
(-0.056261504 0.079475013 0.00016924122)
(-0.067632973 0.081572554 0.00018462764)
(-0.079121714 0.082137099 0.00019958121)
(-0.090568873 0.081259521 0.00021417189)
(-0.10182886 0.079000776 0.00022818959)
(-0.11276336 0.075397894 0.00024118402)
(-0.1232367 0.07047245 0.00025250927)
(-0.13311239 0.06424036 0.00026137297)
(-0.14225078 0.056722072 0.00026689095)
(-0.15050761 0.047952511 0.00026814857)
(-0.15773347 0.037990336 0.00026426944)
(-0.16377429 0.026926305 0.00025449118)
(-0.16847278 0.014890605 0.00023824597)
(-0.17167133 0.0020590322 0.00021524328)
(-0.17321661 -0.011342256 0.00018555965)
(-0.17296594 -0.025033766 0.00014968409)
(-0.17079571 -0.038682247 0.00010858798)
(-0.16661244 -0.051903619 6.373335e-05)
(-0.16036551 -0.064270378 1.705202e-05)
(-0.15206157 -0.075324606 -2.9124308e-05)
(-0.14177939 -0.084597521 -7.2190002e-05)
(-0.12968348 -0.091636043 -0.00010944707)
(-0.11603435 -0.096035948 -0.00013833126)
(-0.10119274 -0.097479897 -0.00015665927)
(-0.085615083 -0.095777106 -0.00016286552)
(-0.069838051 -0.090899835 -0.00015619629)
(-0.054451423 -0.083010929 -0.00013682354)
(-0.040061185 -0.072476746 -0.00010582786)
(-0.027246487 -0.059861713 -6.508374e-05)
(-0.016507706 -0.045903615 -1.7342706e-05)
(-0.0082137722 -0.031469866 3.4084375e-05)
(-0.0026743206 -0.017501842 8.9850159e-05)
(-0.00031729582 -0.004993855 0.00014356638)
(-0.0005286807 0.011264648 2.845519e-06)
(-0.0033477388 0.030871106 6.8638696e-05)
(-0.0090880528 0.047474055 0.00011193675)
(-0.016801586 0.06116415 0.00014323568)
(-0.025956888 0.072128402 0.00016930193)
(-0.036204181 0.080594915 0.00019159897)
(-0.047236294 0.086799867 0.00021147578)
(-0.058794244 0.090963772 0.00023019271)
(-0.070664657 0.093275771 0.00024856447)
(-0.082667722 0.093885674 0.00026699084)
(-0.094646998 0.09290253 0.00028552053)
(-0.10646128 0.090398325 0.00030389276)
(-0.11797782 0.086415381 0.00032157852)
(-0.1290669 0.080976107 0.0003378249)
(-0.13959748 0.074093916 0.00035170301)
(-0.14943402 0.065784415 0.0003621617)
(-0.15843404 0.056076245 0.00036808893)
(-0.1664467 0.045021275 0.00036838237)
(-0.17331224 0.032704007 0.00036202961)
(-0.17886253 0.019250184 0.00034819726)
(-0.18292318 0.0048345352 0.0003263271)
(-0.18531738 -0.01031257 0.00029623829)
(-0.18587199 -0.025899806 0.00025821293)
(-0.18442619 -0.041572073 0.00021308038)
(-0.18084315 -0.056910854 0.00016226308)
(-0.17502466 -0.071439351 0.00010778426)
(-0.16692828 -0.084633988 5.2220951e-05)
(-0.15658627 -0.095943789 -1.4093921e-06)
(-0.14412461 -0.10481883 -4.98356e-05)
(-0.12977948 -0.11074796 -8.9789373e-05)
(-0.113908 -0.11330453 -0.00011831205)
(-0.096989368 -0.11219671 -0.00013307514)
(-0.079612828 -0.10731675 -0.00013266881)
(-0.062450285 -0.098781329 -0.00011680398)
(-0.046214682 -0.086954995 -8.6357621e-05)
(-0.031607747 -0.072449909 -4.3287707e-05)
(-0.019254153 -0.056099263 9.2498654e-06)
(-0.0096331393 -0.038903926 6.7302346e-05)
(-0.0031578299 -0.021961653 0.00013152976)
(-0.00038078517 -0.0064355922 0.00019255489)
(-0.00054759924 0.013033168 5.8436628e-05)
(-0.0034658578 0.035479374 0.00013065549)
(-0.0094063971 0.054322972 0.00017554071)
(-0.017386396 0.069745291 0.00020821465)
(-0.026854435 0.082015896 0.00023581353)
(-0.037448153 0.091436758 0.00025995809)
(-0.048850775 0.098307152 0.0002821199)
(-0.060797325 0.10289913 0.00030364836)
(-0.07307218 0.10544208 0.00032540515)
(-0.085496594 0.10611562 0.00034780046)
(-0.09791795 0.10504936 0.0003708622)
(-0.11020101 0.10232799 0.00039428006)
(-0.12222042 0.098000034 0.00041744719)
(-0.13385451 0.092088791 0.00043950292)
(-0.14498015 0.084604373 0.00045937772)
(-0.15546858 0.07555581 0.00047584353)
(-0.16518214 0.064962756 0.000487573)
(-0.17397175 0.052866571 0.00049320993)
(-0.1816753 0.039340761 0.00049145264)
(-0.18811716 0.024500892 0.00048115042)
(-0.19310912 0.0085140081 0.00046141234)
(-0.19645328 -0.0083925669 0.00043172635)
(-0.1979473 -0.025923367 0.00039207723)
(-0.19739266 -0.043708867 0.00034306056)
(-0.1946065 -0.061302522 0.00028597118)
(-0.18943731 -0.07818257 0.00022285178)
(-0.18178454 -0.093760683 0.00015648197)
(-0.17162149 -0.10739972 9.0289946e-05)
(-0.15902009 -0.11844267 2.817196e-05)
(-0.14417482 -0.12625405 -2.5786187e-05)
(-0.1274219 -0.13027328 -6.7674431e-05)
(-0.1092488 -0.13007711 -9.4175504e-05)
(-0.090288549 -0.12544458 -0.00010297685)
(-0.071294716 -0.11641496 -9.3099079e-05)
(-0.05309644 -0.10332684 -6.5039577e-05)
(-0.036536437 -0.086827872 -2.0744121e-05)
(-0.022388442 -0.067848918 3.6220916e-05)
(-0.011268763 -0.04754043 0.00010116524)
(-0.0037218437 -0.027182721 0.00017473603)
(-0.00045691169 -0.0081393812 0.00024443103)
(-0.00055984471 0.014853263 0.00012671464)
(-0.0035453378 0.040221777 0.00020561361)
(-0.0096248085 0.06137078 0.00025171722)
(-0.017792803 0.078574531 0.00028560088)
(-0.027484127 0.092187647 0.00031469541)
(-0.03832716 0.10258896 0.00034076727)
(-0.04999793 0.11014418 0.00036540241)
(-0.062227203 0.11518037 0.00039003307)
(-0.07479841 0.11797049 0.00041556662)
(-0.087535024 0.11872695 0.00044242629)
(-0.10028947 0.11760247 0.00047062414)
(-0.11293389 0.11469633 0.00049980627)
(-0.12535206 0.11006442 0.0005292935)
(-0.13743243 0.10373139 0.00055812114)
(-0.14906227 0.095703601 0.00058507925)
(-0.16012262 0.085982169 0.00060875763)
(-0.17048407 0.074575417 0.00062760008)
(-0.18000324 0.06151079 0.00063997221)
(-0.18852004 0.046846255 0.00064424542)
(-0.19585597 0.030681471 0.00063889903)
(-0.20181373 0.013168866 0.00062264068)
(-0.20617875 -0.0054753465 0.00059454349)
(-0.2087231 -0.024960523 0.00055419422)
(-0.20921263 -0.044912159 0.00050184297)
(-0.20741816 -0.064864854 0.00043854074)
(-0.20313139 -0.084259652 0.00036624152)
(-0.19618605 -0.1024483 0.00028784451)
(-0.18648429 -0.11870744 0.00020714916)
(-0.17402712 -0.13226603 0.00012869837)
(-0.15894668 -0.14234853 5.749213e-05)
(-0.14153585 -0.14823509 -1.4288094e-06)
(-0.12226912 -0.14933666 -4.3502607e-05)
(-0.10180729 -0.14527869 -6.5207873e-05)
(-0.080978726 -0.13598182 -6.4564261e-05)
(-0.060733908 -0.12172372 -4.1427565e-05)
(-0.042074316 -0.1031659 2.4352463e-06)
(-0.025950479 -0.081333242 6.3081872e-05)
(-0.013148242 -0.057540538 0.00013499517)
(-0.0043785975 -0.033279404 0.00021878755)
(-0.00054808337 -0.010149842 0.00029873096)
(-0.00056512275 0.016704136 0.00020795033)
(-0.0035848219 0.045047815 0.00029378888)
(-0.0097399822 0.068546104 0.00034073487)
(-0.018014596 0.087565906 0.00037565421)
(-0.027835515 0.10254743 0.00040619123)
(-0.038824727 0.1139479 0.0004342454)
(-0.050653066 0.12220188 0.00046150987)
(-0.063048418 0.12769431 0.00048949603)
(-0.075794276 0.1307448 0.00051915939)
(-0.088717243 0.13160156 0.00055094317)
(-0.1016758 0.13044303 0.00058485337)
(-0.11455071 0.12738527 0.00062050367)
(-0.12723646 0.12249313 0.0006571534)
(-0.13963367 0.11579342 0.00069374274)
(-0.15164252 0.10728888 0.00072892682)
(-0.16315701 0.096971902 0.0007611134)
(-0.17405977 0.084837733 0.00078850997)
(-0.18421764 0.070897086 0.00080918571)
(-0.19347778 0.055188376 0.00082115315)
(-0.20166471 0.037789984 0.0008224729)
(-0.20857841 0.018832875 0.00081138332)
(-0.21399413 -0.0014862878 0.00078645507)
(-0.21766446 -0.022891662 0.00074676853)
(-0.2193246 -0.045015033 0.00069210093)
(-0.21870195 -0.067384153 0.00062311805)
(-0.21553096 -0.089414509 0.00054154047)
(-0.20957472 -0.11040753 0.00045025638)
(-0.20065358 -0.12955896 0.00035334387)
(-0.1886808 -0.14598189 0.00025596373)
(-0.17370326 -0.15874899 0.00016408952)
(-0.15594313 -0.16695712 8.4056878e-05)
(-0.13583341 -0.1698146 2.1944265e-05)
(-0.11403768 -0.16674579 -1.7158245e-05)
(-0.091443307 -0.15750014 -2.9869667e-05)
(-0.069120481 -0.14224565 -1.5033699e-05)
(-0.04824434 -0.1216226 2.6029805e-05)
(-0.029971804 -0.096736575 8.910511e-05)
(-0.015296621 -0.069077571 0.00016778051)
(-0.0051401273 -0.040378989 0.00026261195)
(-0.000656855 -0.01251807 0.00035460317)
(-0.00056338818 0.018564536 0.00030218838)
(-0.0035843181 0.049906101 0.0003952372)
(-0.0097519586 0.075776053 0.00044265051)
(-0.018051163 0.096630835 0.0004784191)
(-0.027905938 0.11299475 0.00051031588)
(-0.038934098 0.12540358 0.00054036014)
(-0.050802753 0.13436221 0.00057034725)
(-0.063237895 0.14031587 0.00060186791)
(-0.076023793 0.14363374 0.0006359329)
(-0.088990875 0.14460281 0.00067301736)
(-0.10200451 0.14343009 0.00071313611)
(-0.11495519 0.14025091 0.00075588677)
(-0.12774955 0.13514103 0.00080048356)
(-0.14030233 0.12813082 0.00084578615)
(-0.15252914 0.11922005 0.00089032598)
(-0.16434008 0.10839232 0.00093233506)
(-0.17563382 0.095628833 0.0009697839)