/*--------------------------------*- C++ -*----------------------------------*\
  =========                 |
  \\      /  F ield         | OpenFOAM: The Open Source CFD Toolbox
   \\    /   O peration     | Website:  https://openfoam.org
    \\  /    A nd           | Version:  7
     \\/     M anipulation  |
\*---------------------------------------------------------------------------*/
FoamFile
{
    version     2.0;
    format      ascii;
    class       volVectorField;
    location    "45";
    object      U_0;
}
// * * * * * * * * * * * * * * * * * * * * * * * * * * * * * * * * * * * * * //

dimensions      [0 1 -1 0 0 0 0];

internalField   nonuniform List<vector> 
16000
(
(6.6062614e-05 -6.7314638e-05 -3.9957837e-07)
(0.00016278245 -5.6344383e-05 5.704757e-06)
(0.00014193865 4.6850942e-07 1.9205075e-05)
(-5.0608797e-05 6.1893887e-05 3.6627673e-05)
(-0.00040996481 0.00011563261 5.4736326e-05)
(-0.0009090207 0.00015774448 7.1564785e-05)
(-0.0015177082 0.00018850505 8.5776962e-05)
(-0.0022068846 0.00020960933 9.6557651e-05)
(-0.0029506011 0.00022287705 0.00010344652)
(-0.003726465 0.00022981129 0.00010619671)
(-0.0045150508 0.00023147708 0.00010468104)
(-0.0052990135 0.00022850378 9.883645e-05)
(-0.0060621935 0.00022114726 8.8638238e-05)
(-0.0067888646 0.00020938315 7.4096918e-05)
(-0.0074632166 0.00019301411 5.5271251e-05)
(-0.0080691175 0.00017178112 3.2291508e-05)
(-0.0085901696 0.00014547199 5.387646e-06)
(-0.0090100495 0.00011402187 -2.5082433e-05)
(-0.0093131024 7.7601305e-05 -5.8608927e-05)
(-0.0094851496 3.6687857e-05 -9.451425e-05)
(-0.0095144502 -7.8851468e-06 -0.00013194876)
(-0.0093927314 -5.4922637e-05 -0.00016990113)
(-0.0091162241 -0.00010284304 -0.00020722474)
(-0.008686601 -0.0001497505 -0.00024268171)
(-0.0081116912 -0.00019351369 -0.00027500249)
(-0.0074058973 -0.00023188622 -0.00030295861)
(-0.0065902241 -0.00026265827 -0.00032544377)
(-0.0056918558 -0.00028382394 -0.0003415576)
(-0.0047432569 -0.00029374804 -0.00035068512)
(-0.003780811 -0.00029131581 -0.0003525646)
(-0.0028430603 -0.00027605093 -0.00034733657)
(-0.0019686579 -0.00024818747 -0.0003355689)
(-0.0011941538 -0.00020869038 -0.00031825723)
(-0.00055166788 -0.00015925589 -0.00029680504)
(-6.6495045e-05 -0.00010241077 -0.00027298009)
(0.00024493413 -4.1765328e-05 -0.00024884031)
(0.00037893642 1.7844685e-05 -0.00022676979)
(0.00034976028 6.7084105e-05 -0.00020920686)
(0.00020616441 8.9875112e-05 -0.0001988217)
(5.7458945e-05 5.7420696e-05 -0.00018437957)
(5.8014344e-05 -0.00016700083 -6.6263085e-06)
(4.0905652e-05 -3.993514e-05 -3.7060309e-07)
(-0.00029495494 0.0002485797 1.1263053e-05)
(-0.0010110104 0.00056213322 2.5629152e-05)
(-0.0020992193 0.0008475027 4.0614168e-05)
(-0.0035140827 0.0010831246 5.4622335e-05)
(-0.0051946837 0.0012643038 6.6526416e-05)
(-0.0070766296 0.0013940696 7.557408e-05)
(-0.0090981524 0.0014779623 8.1283446e-05)
(-0.011202309 0.0015215286 8.3354858e-05)
(-0.013337039 0.0015292122 8.1605072e-05)
(-0.015454182 0.0015039765 7.5924184e-05)
(-0.017508154 0.0014473581 6.6253846e-05)
(-0.01945472 0.0013597791 5.2583246e-05)
(-0.02125016 0.0012410037 3.4958437e-05)
(-0.022850979 0.001090661 1.3500562e-05)
(-0.02421423 0.0009087775 -1.157136e-05)
(-0.025298435 0.0006962774 -3.9917248e-05)
(-0.026065058 0.00045541515 -7.105641e-05)
(-0.026480398 0.00019010756 -0.00010435474)
(-0.026517816 -9.3863218e-05 -0.00013902165)
(-0.02615999 -0.00038877212 -0.00017412578)
(-0.025401172 -0.00068508752 -0.00020861113)
(-0.02424917 -0.00097175865 -0.00024134487)
(-0.022726748 -0.0012366966 -0.00027117099)
(-0.020872346 -0.0014674311 -0.00029697807)
(-0.018739913 -0.0016519044 -0.00031777463)
(-0.016397723 -0.0017793446 -0.00033276565)
(-0.013926131 -0.0018411405 -0.00034142388)
(-0.011414315 -0.0018316375 -0.00034354959)
(-0.0089560878 -0.0017487857 -0.00033931293)
(-0.0066449963 -0.0015945931 -0.00032927327)
(-0.0045689011 -0.0013753828 -0.00031437233)
(-0.0028042385 -0.0011019514 -0.00029590193)
(-0.0014100278 -0.0007899169 -0.0002754515)
(-0.00042162164 -0.00046060293 -0.00025483267)
(0.00015579291 -0.00014257848 -0.00023595966)
(0.00035673548 0.00012231668 -0.00022085303)
(0.00027524137 0.00027115441 -0.00021161731)
(9.0105943e-05 0.00020511801 -0.00019543624)
(1.9235936e-06 -0.00014894363 -2.0411958e-05)
(-0.00025603559 0.00029704184 -1.1791965e-05)
(-0.0010504369 0.0010236411 1.0641045e-07)
(-0.002387814 0.0017975513 1.3086595e-05)
(-0.004239434 0.0025099121 2.612287e-05)
(-0.0065455561 0.0031100633 3.8074335e-05)
(-0.0092251204 0.0035809298 4.8114072e-05)
(-0.012189998 0.0039234361 5.5681503e-05)
(-0.015352989 0.0041461878 6.039494e-05)
(-0.018631057 0.0042595935 6.1997623e-05)
(-0.021946082 0.0042728177 6.0316611e-05)
(-0.02522426 0.0041924781 5.523416e-05)
(-0.028394926 0.0040224722 4.6674017e-05)
(-0.031389393 0.0037645262 3.4601092e-05)
(-0.034140223 0.0034191726 1.9031489e-05)
(-0.036581145 0.0029869426 4.9648214e-08)
(-0.038647755 0.0024696095 -2.2170705e-05)
(-0.040278949 0.0018713628 -4.7345133e-05)
(-0.041419059 0.0011998112 -7.5059996e-05)
(-0.042020506 0.00046673121 -0.00010476023)
(-0.042046771 -0.00031149956 -0.00013574794)
(-0.041475477 -0.0011138103 -0.00016718818)
(-0.040301325 -0.0019148729 -0.00019813411)
(-0.038538565 -0.0026858581 -0.00022756268)
(-0.03622276 -0.0033956769 -0.00025442529)
(-0.033411584 -0.0040126111 -0.00027771078)
(-0.030184428 -0.0045062542 -0.00029651632)
(-0.026640647 -0.0048496379 -0.00031011979)
(-0.02289639 -0.0050213818 -0.00031804643)
(-0.01908003 -0.0050076792 -0.00032012262)
(-0.015326331 -0.0048039534 -0.00031651172)
(-0.011769562 -0.0044160789 -0.00030772812)
(-0.0085358265 -0.0038611708 -0.00029462608)
(-0.005734887 -0.0031680971 -0.00027836184)
(-0.0034517248 -0.002378096 -0.00026033164)
(-0.0017379947 -0.0015461775 -0.00024208957)
(-0.00060367425 -0.00074420083 -0.00022524129)
(-8.0136026e-06 -6.6384772e-05 -0.00021137758)
(0.00015540993 0.00036038754 -0.00020219189)
(7.3545509e-05 0.00035438883 -0.00018528006)
(-6.4681883e-05 5.0433883e-05 -3.8663785e-05)
(-0.0006083745 0.001045776 -2.6123825e-05)
(-0.0019305302 0.0023817516 -1.2142512e-05)
(-0.0039464303 0.0037565309 1.1503686e-06)
(-0.0065890099 0.005015323 1.37387e-05)
(-0.0097791989 0.0060800701 2.4863011e-05)
(-0.01341713 0.0069205268 3.3986067e-05)
(-0.017395536 0.0075341168 4.0772663e-05)
(-0.021607748 0.0079313986 4.4986909e-05)
(-0.025950711 0.0081270421 4.6456936e-05)
(-0.030325868 0.0081347703 4.5051897e-05)
(-0.034638819 0.0079650041 4.0665438e-05)
(-0.038798387 0.0076243777 3.3210511e-05)
(-0.042715709 0.0071165107 2.2624885e-05)
(-0.046303776 0.0064435559 8.8849481e-06)
(-0.049477694 0.0056081463 -7.9747701e-06)
(-0.052155751 0.0046154516 -2.7839022e-05)
(-0.054261315 0.0034751153 -5.0488889e-05)
(-0.055725444 0.0022028936 -7.5581404e-05)
(-0.056490046 0.00082185531 -0.00010263519)
(-0.056511344 -0.00063696808 -0.00013102541)
(-0.055763445 -0.0021345969 -0.00015998693)
(-0.05424167 -0.0036248148 -0.00018863789)
(-0.051965322 -0.0050556177 -0.00021601166)
(-0.048979671 -0.0063713882 -0.0002411055)
(-0.045356815 -0.0075157161 -0.00026294157)
(-0.041195191 -0.0084347315 -0.00028063689)
(-0.03661753 -0.0090807576 -0.00029347656)
(-0.031767141 -0.0094160303 -0.000300982)
(-0.026802525 -0.0094161948 -0.0003029655)
(-0.021890429 -0.0090732941 -0.00029956392)
(-0.017197573 -0.0083980393 -0.00029124787)
(-0.012881374 -0.007421309 -0.00027880547)
(-0.0090800394 -0.0061950379 -0.00026330042)
(-0.0059024838 -0.0047929308 -0.00024600457)
(-0.0034185176 -0.0033117991 -0.00022831049)
(-0.0016495466 -0.001874518 -0.00021164282)
(-0.00055979214 -0.0006347138 -0.00019738915)
(-5.0101665e-05 0.0002149885 -0.00018678403)
(3.8097135e-05 0.00041383096 -0.00016797707)
(-0.0001308644 0.00044556812 -5.8180001e-05)
(-0.00097094716 0.0022426985 -4.1113776e-05)
(-0.002846208 0.0043591943 -2.4231394e-05)
(-0.0055648082 0.0064572217 -9.7990788e-06)
(-0.0090094367 0.0083534817 3.1195303e-06)
(-0.013075457 0.0099514567 1.4099628e-05)
(-0.017642276 0.011211752 2.2878176e-05)
(-0.022584678 0.012129587 2.9350366e-05)
(-0.027779631 0.012717528 3.3439077e-05)
(-0.033108112 0.012994149 3.5071519e-05)
(-0.038455493 0.012977368 3.4170394e-05)
(-0.043711127 0.012681218 3.0647254e-05)
(-0.048767518 0.012115133 2.4405179e-05)
(-0.053519631 0.011284991 1.5350632e-05)
(-0.057864698 0.010195264 3.4123007e-06)
(-0.061702792 0.0088517448 -1.143523e-05)
(-0.064938226 0.0072644426 -2.9145262e-05)
(-0.067481792 0.0054502945 -4.9572619e-05)
(-0.069253702 0.0034354391 -7.2449706e-05)
(-0.070187076 0.0012568479 -9.7367985e-05)
(-0.070231728 -0.0010368478 -0.00012376811)
(-0.069358017 -0.0033854749 -0.00015094148)
(-0.067560462 -0.0057183982 -0.00017804706)
(-0.064860798 -0.0079566885 -0.00020414337)
(-0.061310204 -0.010016301 -0.0002282362)
(-0.056990372 -0.011812185 -0.00024933984)
(-0.052013159 -0.013263137 -0.00026654819)
(-0.046518559 -0.014297148 -0.00027911037)
(-0.040670843 -0.014856899 -0.0002865032)
(-0.034652761 -0.014905003 -0.00028849097)
(-0.028657904 -0.014428603 -0.00028516247)
(-0.022881419 -0.013442954 -0.00027693906)
(-0.017509488 -0.01199382 -0.00026455282)
(-0.012708048 -0.010158729 -0.00024899815)
(-0.0086114519 -0.008047517 -0.00023145887)
(-0.0053117553 -0.0058029624 -0.00021321926)
(-0.0028485361 -0.0036024618 -0.00019559624)
(-0.0012000426 -0.0016605347 -0.00017985213)
(-0.00028880366 -0.00023378394 -0.00016670606)
(-2.4674238e-06 0.000350459 -0.00014547334)
(-0.00019286439 0.0010313078 -7.6660257e-05)
(-0.0013239849 0.0038925374 -5.4755327e-05)
(-0.0037518549 0.0069680046 -3.4550539e-05)
(-0.0071732976 0.0099108246 -1.8457094e-05)
(-0.011414805 0.012527403 -4.6613963e-06)
(-0.016341481 0.014714508 6.701412e-06)
(-0.021809619 0.016430506 1.5618348e-05)
(-0.027675878 0.017672022 2.2203959e-05)
(-0.033802398 0.018455251 2.6536698e-05)
(-0.040056849 0.018803216 2.8643326e-05)
(-0.046311838 0.018738081 2.850114e-05)
(-0.05244406 0.01827741 2.6039226e-05)
(-0.058333355 0.017433439 2.1148008e-05)
(-0.063862062 0.016214498 1.3697249e-05)
(-0.068914992 0.014627828 3.5603583e-06)
(-0.073380203 0.012683113 -9.3568337e-06)
(-0.077150614 0.010396213 -2.5084852e-05)
(-0.080126453 0.0077926387 -4.3559252e-05)
(-0.082218393 0.004910446 -6.459174e-05)
(-0.083351222 0.0018022833 -8.7846559e-05)
(-0.083467828 -0.0014636054 -0.00011282531)
(-0.082533268 -0.0048035763 -0.00013886408)
(-0.080538657 -0.0081200477 -0.00016514501)
(-0.077504586 -0.01130434 -0.00019072645)
(-0.073483761 -0.014240836 -0.00021459045)
(-0.068562535 -0.016812391 -0.00023570618)
(-0.062861012 -0.018906776 -0.00025310481)
(-0.056531408 -0.020423854 -0.00026595959)
(-0.049754415 -0.021283053 -0.00027366389)
(-0.042733391 -0.021430622 -0.00027589802)
(-0.035686347 -0.020846131 -0.00027267413)
(-0.028835917 -0.019547669 -0.00026434955)
(-0.02239772 -0.017595377 -0.0002516041)
(-0.016567768 -0.01509316 -0.00023538496)
(-0.011509858 -0.012188868 -0.00021682431)
(-0.0073438871 -0.0090736861 -0.00019714776)
(-0.0041345385 -0.0059816751 -0.00017763361)
(-0.0018816088 -0.0031890298 -0.00015951859)
(-0.00053619541 -0.0010143193 -0.00014312608)
(-4.1244489e-05 0.00015894595 -0.00011903522)
(-0.00025011637 0.0017985716 -9.2147045e-05)
(-0.0016597718 0.0059841437 -6.525586e-05)
(-0.0046244549 0.010198621 -4.1569401e-05)
(-0.0087321684 0.014107025 -2.3514571e-05)
(-0.013751604 0.017522341 -8.476242e-06)
(-0.019515079 0.020347122 3.662695e-06)
(-0.025854144 0.022545928 1.3114063e-05)
(-0.032607009 0.024122006 2.0193902e-05)
(-0.039621881 0.025098112 2.5124401e-05)
(-0.046755011 0.025503181 2.8023822e-05)
(-0.053868799 0.025364232 2.8917806e-05)
(-0.060830246 0.024702541 2.7747144e-05)
(-0.067509639 0.023533177 2.4383344e-05)
(-0.073779765 0.021866981 1.8652366e-05)
(-0.079515877 0.019714126 1.0364314e-05)
(-0.084596502 0.017088494 -6.5244371e-07)
(-0.08890513 0.014012237 -1.4514424e-05)
(-0.092332705 0.010520011 -3.1245701e-05)
(-0.094780824 0.0066624813 -5.0742849e-05)
(-0.096165469 0.0025088049 -7.2745167e-05)
(-0.096421124 -0.0018521459 -9.6813508e-05)
(-0.095505036 -0.0063119923 -0.00012232211)
(-0.093401441 -0.010744588 -0.00014846447)
(-0.090125486 -0.015009424 -0.00017428042)
(-0.085726504 -0.018956675 -0.00019870224)
(-0.080290338 -0.022433832 -0.00022062051)
(-0.073940283 -0.025293751 -0.00023896477)
(-0.066836249 -0.027403765 -0.00025279143)
(-0.059171764 -0.028655369 -0.00026137011)
(-0.051168507 -0.028973823 -0.00026425904)
(-0.043068236 -0.028326939 -0.00026135974)
(-0.035122185 -0.026732295 -0.00025294046)
(-0.027578341 -0.024262244 -0.00023962049)
(-0.02066736 -0.021046293 -0.00022231381)
(-0.014588357 -0.017270893 -0.00020213644)
(-0.0094958125 -0.013177232 -0.0001803065)
(-0.0054864822 -0.0090579396 -0.00015812898)
(-0.0025879555 -0.005252218 -0.00013689724)
(-0.00078447445 -0.0021405311 -0.00011661495)
(-7.6875088e-05 -0.00016053689 -8.9411627e-05)
(-0.00030295622 0.0027365304 -0.00010297067)
(-0.0019754986 0.0084981071 -7.099881e-05)
(-0.0054521408 0.014028584 -4.3850894e-05)
(-0.010217972 0.019021399 -2.3706159e-05)
(-0.015985182 0.023311106 -7.2108699e-06)
(-0.0225528 0.026818208 5.9780745e-06)
(-0.029727186 0.029522442 1.627531e-05)
(-0.037328209 0.031439788 2.4178727e-05)
(-0.045190987 0.032603414 3.0038393e-05)
(-0.053161894 0.033050384 3.40512e-05)
(-0.06109525 0.032813703 3.6280262e-05)
(-0.068850862 0.031918834 3.6668418e-05)
(-0.076292142 0.030383793 3.5059175e-05)
(-0.083284991 0.028221867 3.1225718e-05)
(-0.089697551 0.025446024 2.4905743e-05)
(-0.095400892 0.022074174 1.5840735e-05)
(-0.10027057 0.018134573 3.8184153e-06)
(-0.10418904 0.013670806 -1.1283633e-05)
(-0.10704872 0.0087459303 -2.9455903e-05)
(-0.10875573 0.0034454449 -5.05198e-05)
(-0.10923405 -0.0021211682 -7.4099246e-05)
(-0.10842999 -0.0078205232 -9.9606508e-05)
(-0.10631684 -0.01349715 -0.0001262412)
(-0.10289946 -0.018977284 -0.00015301365)
(-0.098218433 -0.024074606 -0.00017878784)
(-0.092353558 -0.02859797 -0.0002023481)
(-0.08542603 -0.032360994 -0.00022248524)
(-0.077598898 -0.0351932 -0.00023809475)
(-0.069075174 -0.036952157 -0.00024827592)
(-0.060093132 -0.037535843 -0.0002524204)
(-0.050918478 -0.036894259 -0.0002502791)
(-0.041833351 -0.035039229 -0.00024199827)
(-0.033122476 -0.032051396 -0.00022811615)
(-0.025057304 -0.028083648 -0.00020951387)
(-0.017879662 -0.02336067 -0.00018731794)
(-0.011786486 -0.018174994 -0.00016278902)
(-0.0069140639 -0.012880403 -0.00013732473)
(-0.0033238345 -0.0078822682 -0.00011235234)
(-0.0010368642 -0.0036261492 -8.7644766e-05)
(-0.00011093639 -0.00060701759 -5.7206822e-05)
(-0.00035169335 0.0038338229 -0.00010766753)
(-0.002269686 0.011410365 -7.0510007e-05)
(-0.0062274788 0.018427306 -4.0032053e-05)
(-0.011614748 0.024619964 -1.7781526e-05)
(-0.018090316 0.029857568 2.8250176e-07)
(-0.025421022 0.034089886 1.4711852e-05)
(-0.033388716 0.037320721 2.610605e-05)
(-0.041795672 0.039585254 3.5125964e-05)
(-0.050464969 0.040931447 4.2232653e-05)
(-0.05923459 0.041407242 4.768691e-05)
(-0.067952674 0.041053187 5.1576379e-05)
(-0.076474039 0.039899669 5.38344e-05)
(-0.084657596 0.037967843 5.4265769e-05)
(-0.092364713 0.035273273 5.2580503e-05)
(-0.099458589 0.03183129 4.8433392e-05)
(-0.10580462 0.027663183 4.1468154e-05)
(-0.11127169 0.022802463 3.1365162e-05)
(-0.11573423 0.01730063 1.7891142e-05)
(-0.11907517 0.011231987 9.4839686e-07)
(-0.12118942 0.0046971944 -1.9379696e-05)
(-0.12198809 -0.0021747136 -4.2791403e-05)
(-0.12140313 -0.009226074 -6.8745123e-05)
(-0.11939248 -0.0162722 -9.6448905e-05)
(-0.11594549 -0.02310529 -0.00012487965)
(-0.11108823 -0.029500578 -0.00015282108)
(-0.10488841 -0.035224939 -0.00017892927)
(-0.097459312 -0.040047918 -0.0002018224)
(-0.088962023 -0.043754932 -0.0002201888)
(-0.07960525 -0.046162123 -0.00023290245)
(-0.069641894 -0.047131956 -0.00023913127)
(-0.059361876 -0.046588351 -0.00023842337)
(-0.049080958 -0.044529872 -0.00023076003)
(-0.039125746 -0.041039507 -0.00021656788)
(-0.029815735 -0.03628977 -0.0001966828)
(-0.021444145 -0.030542381 -0.00017225521)
(-0.014259518 -0.024142632 -0.00014463074)
(-0.0084461253 -0.017509196 -0.00011536566)
(-0.004105753 -0.011119106 -8.6099551e-05)
(-0.0013000776 -0.0054896962 -5.6439657e-05)
(-0.0001446605 -0.0011817406 -2.2488957e-05)
(-0.00039639251 0.0050786764 -0.0001049185)
(-0.0025408052 0.014693492 -6.243688e-05)
(-0.0069442141 0.023357986 -2.8830724e-05)
(-0.012909248 0.030860818 -4.5291657e-06)
(-0.020045658 0.037117359 1.5150623e-05)
(-0.028090312 0.042116916 3.0957895e-05)
(-0.036802157 0.045895796 4.3662768e-05)
(-0.045967207 0.048514826 5.4072078e-05)
(-0.055397847 0.05004137 6.2741738e-05)
(-0.064925216 0.050537312 6.9981787e-05)
(-0.074393075 0.050052601 7.5891231e-05)
(-0.083653296 0.048623491 8.0382034e-05)
(-0.092562457 0.046274539 8.3209224e-05)
(-0.10097956 0.043023321 8.4008663e-05)
(-0.10876487 0.038886827 8.2340628e-05)
(-0.11577978 0.033888624 7.7738349e-05)
(-0.12188764 0.028066011 6.9760664e-05)
(-0.1269554 0.021476597 5.8047456e-05)
(-0.13085612 0.014203877 4.2375859e-05)
(-0.13347227 0.0063614893 2.2714552e-05)
(-0.13469977 -0.0019040853 -7.2866435e-07)
(-0.13445283 -0.010412657 -2.7477905e-05)
(-0.1326696 -0.018951384 -5.676087e-05)
(-0.12931855 -0.027278411 -8.7526227e-05)
(-0.12440509 -0.035129037 -0.00011847233)
(-0.11797827 -0.042224886 -0.00014810999)
(-0.11013686 -0.048286161 -0.00017485378)
(-0.10103395 -0.053046902 -0.00019713832)
(-0.090879074 -0.056272759 -0.0002135506)
(-0.079936761 -0.057780343 -0.00022296345)
(-0.068520638 -0.057456692 -0.00022465083)
(-0.056982443 -0.055276915 -0.00021836793)
(-0.045695962 -0.051317901 -0.00020438527)
(-0.035036654 -0.045766105 -0.00018346919)
(-0.02535897 -0.038918062 -0.00015679468)
(-0.016973706 -0.031173319 -0.0001258234)
(-0.010123135 -0.023020487 -9.2332237e-05)
(-0.0049573051 -0.015016288 -5.8253896e-05)
(-0.0015839097 -0.0077601723 -2.3081713e-05)
(-0.00018000371 -0.0018919999 1.4781958e-05)
(-0.00043687313 0.0064585708 -9.3521106e-05)
(-0.0027868521 0.018316908 -4.5540673e-05)
(-0.0075959005 0.028778332 -9.0562902e-06)
(-0.014088641 0.03769492 1.7197566e-05)
(-0.021830808 0.045038225 3.8501346e-05)
(-0.030532269 0.050846288 5.5793684e-05)
(-0.039931319 0.055195707 7.0003721e-05)
(-0.049799511 0.058179134 8.2069424e-05)
(-0.059940136 0.059887937 9.2627166e-05)
(-0.070179119 0.060401163 0.00010202296)
(-0.080357622 0.059780207 0.00011035506)
(-0.090326508 0.05806829 0.00011750301)
(-0.099942081 0.055293696 0.00012316166)
(-0.10906306 0.051475678 0.00012688203)
(-0.11754872 0.046631959 0.00012811794)
(-0.12525818 0.040786894 0.00012627796)
(-0.13205051 0.033979546 0.00012078235)
(-0.1377859 0.026271123 0.00011112401)
(-0.14232754 0.017751394 9.6931549e-05)
(-0.14554452 0.0085438121 7.803257e-05)
(-0.14731573 -0.0011908572 5.4512744e-05)
(-0.14753462 -0.011252633 2.6749797e-05)
(-0.14611544 -0.021402755 -4.5254959e-06)
(-0.14300051 -0.031366239 -3.8251805e-05)
(-0.13816826 -0.040837696 -7.3047381e-05)
(-0.13164197 -0.049490602 -0.00010726722)
(-0.12349841 -0.05699043 -0.00013909421)
(-0.11387532 -0.063011805 -0.0001666621)
(-0.10297655 -0.067259349 -0.00018820409)
(-0.091073515 -0.069491295 -0.000202214)
(-0.078501384 -0.069544197 -0.0002075992)
(-0.065648989 -0.067356339 -0.00020380151)
(-0.05294202 -0.062986912 -0.00019086677)
(-0.040820061 -0.056628016 -0.00016944982)
(-0.029709661 -0.04860717 -0.00014073785)
(-0.019996217 -0.039379411 -0.0001063282)
(-0.011992173 -0.029509503 -6.8274043e-05)
(-0.0059060281 -0.019644349 -2.8883102e-05)
(-0.0018995951 -0.010479295 1.2425424e-05)
(-0.00021911031 -0.0027504905 5.4762297e-05)
(-0.00047276063 0.0079598546 -7.2384539e-05)
(-0.0030053067 0.022246669 -1.8699666e-05)
(-0.0081754821 0.034640716 2.0377338e-05)
(-0.015139639 0.045066395 4.8457931e-05)
(-0.023425074 0.053560172 7.1372985e-05)
(-0.032718089 0.06021691 9.0243586e-05)
(-0.04273898 0.065160522 0.00010614794)
(-0.053246924 0.068521234 0.00012014228)
(-0.064037882 0.070418884 0.00013293132)
(-0.074934242 0.070952923 0.00014488606)
(-0.085776313 0.070198362 0.00015609403)
(-0.096415828 0.068206615 0.00016639313)
(-0.10671081 0.065010088 0.00017540901)
(-0.11652174 0.06062935 0.00018259829)
(-0.12570895 0.055081782 0.00018729689)
(-0.1341311 0.048390753 0.00018877395)
(-0.14164462 0.040594629 0.00018629203)
(-0.14810402 0.031755108 0.0001791728)
(-0.15336319 0.021964575 0.00016686701)
(-0.15727766 0.011352256 0.00014902556)
(-0.15970803 8.9010372e-05 0.00012556868)
(-0.16052492 -0.011609441 9.675688e-05)
(-0.15961529 -0.023481691 6.3219119e-05)
(-0.15689042 -0.035221786 2.5998336e-05)
(-0.15229557 -0.046484027 -1.3462764e-05)
(-0.14582082 -0.0568917 -5.3364682e-05)
(-0.13751249 -0.06605054 -9.1636658e-05)
(-0.12748404 -0.073567425 -0.00012606446)
(-0.11592514 -0.079074254 -0.00015445519)
(-0.10310687 -0.082256242 -0.00017482785)
(-0.089381223 -0.082882849 -0.00018561016)
(-0.075173043 -0.080838457 -0.00018581348)
(-0.06096318 -0.07614901 -0.00017515643)
(-0.047263097 -0.069000359 -0.00015411089)
(-0.034583094 -0.059744612 -0.00012384365)
(-0.023397396 -0.048892508 -8.6095226e-05)
(-0.014103445 -0.037091899 -4.3245248e-05)
(-0.0069814348 -0.025092621 1.9401954e-06)
(-0.0022590078 -0.013702946 5.0087528e-05)
(-0.00026414643 -0.0037760385 9.7642618e-05)
(-0.00050355112 0.0095674433 -4.0539047e-05)
(-0.003193276 0.026445192 1.9078565e-05)
(-0.0086754049 0.040892105 6.043443e-05)
(-0.016048495 0.052912593 9.0200075e-05)
(-0.024807366 0.062615425 0.00011470402)
(-0.03461842 0.07015923 0.00013524258)
(-0.045186795 0.075721413 0.00015303383)
(-0.056261503 0.079475013 0.00016924102)
(-0.067632972 0.081572554 0.00018462752)
(-0.079121714 0.082137099 0.0001995812)
(-0.090568874 0.081259522 0.00021417186)
(-0.10182886 0.079000777 0.00022818935)
(-0.11276336 0.075397894 0.00024118349)
(-0.1232367 0.07047245 0.00025250871)
(-0.13311239 0.064240358 0.00026137278)
(-0.14225078 0.056722071 0.00026689123)
(-0.15050761 0.047952512 0.00026814889)
(-0.15773347 0.037990338 0.00026426917)
(-0.16377429 0.026926306 0.00025449013)
(-0.16847278 0.014890604 0.00023824478)
(-0.17167133 0.0020590286 0.00021524298)
(-0.17321661 -0.011342258 0.00018556059)
(-0.17296594 -0.025033764 0.00014968527)
(-0.17079572 -0.038682242 0.00010858775)
(-0.16661244 -0.051903616 6.3731184e-05)
(-0.1603655 -0.064270381 1.7049535e-05)
(-0.15206156 -0.075324612 -2.9124732e-05)
(-0.14177939 -0.084597524 -7.2187988e-05)
(-0.12968349 -0.091636039 -0.00010944509)
(-0.11603436 -0.096035941 -0.00013833185)
(-0.10119274 -0.097479896 -0.00015666164)
(-0.085615078 -0.095777111 -0.00016286647)
(-0.069838046 -0.09089984 -0.00015619464)
(-0.054451425 -0.083010928 -0.0001368216)
(-0.040061189 -0.072476741 -0.00010582776)
(-0.027246488 -0.059861711 -6.5084849e-05)
(-0.016507704 -0.045903617 -1.7343364e-05)
(-0.0082137709 -0.031469868 3.4084497e-05)
(-0.0026743208 -0.017501842 8.9850367e-05)
(-0.00031729621 -0.0049938543 0.0001435663)
(-0.00052868091 0.011264648 2.8455679e-06)
(-0.0033477391 0.030871106 6.8638583e-05)
(-0.0090880526 0.047474055 0.0001119366)
(-0.016801585 0.061164149 0.00014323568)
(-0.025956888 0.072128402 0.00016930208)
(-0.036204181 0.080594915 0.00019159909)
(-0.047236295 0.086799867 0.00021147575)
(-0.058794245 0.090963772 0.00023019252)
(-0.070664657 0.093275771 0.00024856421)
(-0.082667722 0.093885673 0.00026699064)
(-0.094646998 0.092902529 0.0002855205)
(-0.10646128 0.090398325 0.0003038928)
(-0.11797782 0.086415382 0.00032157833)
(-0.1290669 0.080976107 0.00033782431)
(-0.13959748 0.074093916 0.00035170228)
(-0.14943402 0.065784413 0.00036216133)
(-0.15843404 0.056076244 0.00036808913)
(-0.1664467 0.045021276 0.00036838275)
(-0.17331224 0.032704009 0.00036202943)
(-0.17886254 0.019250186 0.00034819613)
(-0.18292318 0.0048345343 0.0003263256)
(-0.18531738 -0.010312574 0.00029623762)
(-0.18587199 -0.025899809 0.00025821373)
(-0.18442619 -0.041572072 0.00021308178)
(-0.18084316 -0.056910848 0.00016226326)
(-0.17502467 -0.071439347 0.00010778242)
(-0.16692827 -0.08463399 5.2218565e-05)
(-0.15658626 -0.095943795 -1.4099067e-06)
(-0.14412461 -0.10481883 -4.983376e-05)
(-0.12977948 -0.11074795 -8.9787484e-05)
(-0.11390801 -0.11330452 -0.00011831238)
(-0.096989369 -0.11219671 -0.00013307693)
(-0.079612824 -0.10731675 -0.00013266952)
(-0.062450282 -0.098781332 -0.00011680291)
(-0.046214683 -0.086954994 -8.6356397e-05)
(-0.031607749 -0.072449907 -4.3287638e-05)
(-0.019254154 -0.056099262 9.2491926e-06)
(-0.0096331383 -0.038903927 6.7301879e-05)
(-0.0031578292 -0.021961654 0.00013152972)
(-0.00038078509 -0.0064355922 0.00019255492)
(-0.0005475993 0.013033168 5.84367e-05)
(-0.0034658581 0.035479375 0.0001306555)
(-0.0094063973 0.054322973 0.00017554056)
(-0.017386395 0.069745291 0.00020821449)
(-0.026854434 0.082015896 0.00023581353)
(-0.037448153 0.091436758 0.00025995824)
(-0.048850775 0.098307153 0.00028212005)
(-0.060797325 0.10289913 0.00030364837)
(-0.07307218 0.10544208 0.00032540495)
(-0.085496594 0.10611562 0.0003478001)
(-0.09791795 0.10504936 0.0003708619)
(-0.11020101 0.10232799 0.00039428002)
(-0.12222042 0.098000035 0.0004174473)
(-0.13385452 0.092088792 0.00043950281)
(-0.14498015 0.084604374 0.00045937713)
(-0.15546858 0.07555581 0.00047584267)
(-0.16518214 0.064962755 0.00048757243)
(-0.17397175 0.052866569 0.00049321003)
(-0.1816753 0.039340761 0.00049145311)
(-0.18811716 0.024500894 0.00048115042)
(-0.19310912 0.0085140108 0.00046141132)
(-0.19645328 -0.008392567 0.00043172474)
(-0.19794729 -0.02592337 0.00039207632)
(-0.19739265 -0.043708871 0.00034306125)
(-0.1946065 -0.061302522 0.00028597275)
(-0.18943731 -0.078182565 0.00022285236)
(-0.18178454 -0.093760678 0.00015648058)
(-0.17162149 -0.10739972 9.0287876e-05)
(-0.15902009 -0.11844268 2.8171473e-05)
(-0.14417482 -0.12625405 -2.5784646e-05)
(-0.12742191 -0.13027328 -6.7672855e-05)
(-0.10924881 -0.1300771 -9.4175676e-05)
(-0.09028855 -0.12544458 -0.00010297811)
(-0.071294714 -0.11641497 -9.3099652e-05)
(-0.053096438 -0.10332684 -6.5039024e-05)
(-0.036536438 -0.086827872 -2.0743444e-05)
(-0.022388443 -0.067848917 3.6220944e-05)
(-0.011268763 -0.047540429 0.00010116483)
(-0.0037218432 -0.027182721 0.00017473574)
(-0.00045691144 -0.0081393815 0.00024443094)
(-0.00055984453 0.014853263 0.00012671458)
(-0.0035453377 0.040221777 0.00020561365)
(-0.0096248088 0.06137078 0.00025171719)
(-0.017792803 0.078574532 0.00028560073)
(-0.027484127 0.092187647 0.00031469527)
(-0.038327159 0.10258896 0.00034076728)
(-0.049997929 0.11014418 0.00036540258)
(-0.062227203 0.11518037 0.00039003327)
(-0.074798411 0.11797049 0.00041556669)
(-0.087535024 0.11872695 0.00044242607)
(-0.10028947 0.11760247 0.00047062367)
(-0.11293389 0.11469633 0.00049980586)
(-0.12535206 0.11006442 0.00052929344)
(-0.13743243 0.10373139 0.00055812135)
(-0.14906227 0.095703603 0.00058507928)
(-0.16012262 0.08598217 0.00060875711)
(-0.17048407 0.074575418 0.00062759917)
(-0.18000324 0.061510788 0.00063997151)
(-0.18852004 0.046846253 0.00064424545)
(-0.19585597 0.03068147 0.00063889962)
(-0.20181373 0.013168869 0.00062264096)
(-0.20617876 -0.0054753434 0.00059454272)
(-0.2087231 -0.024960523 0.0005541927)
(-0.20921262 -0.044912161 0.00050184201)
(-0.20741815 -0.064864857 0.00043854136)
(-0.20313139 -0.084259652 0.00036624315)
(-0.19618606 -0.10244829 0.00028784535)
(-0.18648429 -0.11870744 0.0002071482)
(-0.17402712 -0.13226603 0.0001286967)
(-0.15894667 -0.14234853 5.7491682e-05)
(-0.14153584 -0.14823509 -1.4276938e-06)
(-0.12226912 -0.14933666 -4.350147e-05)
(-0.1018073 -0.14527869 -6.520796e-05)
(-0.080978727 -0.13598182 -6.4565119e-05)
(-0.060733906 -0.12172372 -4.1428052e-05)
(-0.042074315 -0.1031659 2.4354364e-06)
(-0.025950479 -0.081333242 6.3082185e-05)
(-0.013148242 -0.057540538 0.00013499516)
(-0.0043785977 -0.033279404 0.00021878734)
(-0.00054808332 -0.010149842 0.00029873078)
(-0.00056512255 0.016704136 0.0002079501)
(-0.0035848215 0.045047815 0.00029378877)
(-0.0097399821 0.068546103 0.00034073488)
(-0.018014596 0.087565906 0.00037565419)
(-0.027835515 0.10254743 0.00040619111)
(-0.038824727 0.1139479 0.00043424529)
(-0.050653065 0.12220188 0.00046150989)
(-0.063048418 0.12769431 0.0004894962)
(-0.075794276 0.1307448 0.00051915965)
(-0.088717243 0.13160156 0.0005509433)
(-0.1016758 0.13044303 0.00058485314)
(-0.11455071 0.12738527 0.00062050311)
(-0.12723646 0.12249313 0.0006571529)
(-0.13963366 0.11579342 0.00069374268)
(-0.15164252 0.10728888 0.00072892716)
(-0.16315701 0.096971903 0.00076111364)
(-0.17405977 0.084837735 0.00078850964)
(-0.18421764 0.070897087 0.00080918486)
(-0.19347778 0.055188374 0.0008211524)
(-0.20166471 0.037789982 0.00082247289)
(-0.20857841 0.018832874 0.00081138402)
(-0.21399413 -0.0014862857 0.00078645566)
(-0.21766446 -0.022891659 0.00074676812)
(-0.21932461 -0.045015032 0.00069209965)
(-0.21870194 -0.067384155 0.00062311715)
(-0.21553095 -0.089414513 0.000541541)
(-0.20957472 -0.11040753 0.0004502579)
(-0.20065358 -0.12955895 0.00035334476)
(-0.18868081 -0.14598189 0.0002559631)
(-0.17370326 -0.15874899 0.00016408822)
(-0.15594313 -0.16695712 8.4056421e-05)
(-0.13583341 -0.1698146 2.1944902e-05)
(-0.11403768 -0.16674579 -1.7157548e-05)
(-0.091443309 -0.15750014 -2.9869728e-05)
(-0.069120482 -0.14224565 -1.5034269e-05)
(-0.048244339 -0.1216226 2.6029413e-05)
(-0.029971803 -0.096736576 8.9105111e-05)
(-0.015296621 -0.069077571 0.00016778062)
(-0.0051401276 -0.040378989 0.00026261193)
(-0.00065685511 -0.012518069 0.00035460306)
(-0.00056338822 0.018564536 0.00030218811)
(-0.0035843178 0.049906101 0.00039523689)
(-0.0097519581 0.075776052 0.00044265039)
(-0.018051162 0.096630835 0.00047841913)
(-0.027905938 0.11299475 0.0005103159)
(-0.038934098 0.12540358 0.00054036008)
(-0.050802753 0.13436221 0.00057034717)
(-0.063237894 0.14031587 0.00060186792)
(-0.076023793 0.14363374 0.00063593308)
(-0.088990875 0.14460281 0.00067301768)
(-0.10200451 0.1434301 0.0007131363)
(-0.11495519 0.14025091 0.00075588655)
(-0.12774955 0.13514103 0.00080048294)
(-0.14030233 0.12813082 0.0008457856)
(-0.15252914 0.11922005 0.00089032595)
(-0.16434008 0.10839231 0.00093233554)