/*--------------------------------*- C++ -*----------------------------------*\
  =========                 |
  \\      /  F ield         | OpenFOAM: The Open Source CFD Toolbox
   \\    /   O peration     | Website:  https://openfoam.org
    \\  /    A nd           | Version:  7
     \\/     M anipulation  |
\*---------------------------------------------------------------------------*/
FoamFile
{
    version     2.0;
    format      ascii;
    class       volScalarField;
    location    "23";
    object      p;
}
// * * * * * * * * * * * * * * * * * * * * * * * * * * * * * * * * * * * * * //

dimensions      [0 2 -2 0 0 0 0];

internalField   nonuniform List<scalar> 
16000
(
8.9191023e-06
-0.00013129772
-0.00044277355
-0.00084512754
-0.0012633325
-0.0016519986
-0.0019802537
-0.0022292563
-0.0023883675
-0.0024518817
-0.0024168596
-0.0022818459
-0.0020462707
-0.0017103763
-0.0012755184
-0.00074470514
-0.00012324921
0.00058057993
0.0013550032
0.0021843676
0.0030490495
0.0039256938
0.0047878187
0.0056068289
0.006353392
0.006999125
0.0075184789
0.0078906735
0.0081015199
0.0081449687
0.0080242366
0.0077524128
0.0073525073
0.0068569939
0.0063067475
0.0057492595
0.0052395195
0.0048337861
0.0045938049
0.0045549855
0.0001535954
8.699059e-06
-0.00024137993
-0.00055025653
-0.00087244783
-0.0011736442
-0.0014296015
-0.0016241409
-0.001746902
-0.0017914407
-0.0017538152
-0.0016316621
-0.0014237288
-0.001129785
-0.000750822
-0.00028944316
0.00024964472
0.00085913188
0.0015286818
0.0022446558
0.0029900499
0.0037448383
0.0044863217
0.0051901521
0.0058314769
0.0063863876
0.0068335466
0.0071558518
0.0073419848
0.0073876853
0.0072966235
0.0070807904
0.0067603742
0.0063631381
0.0059233298
0.0054799957
0.0050742971
0.0047495931
0.0045509948
0.0045154434
0.00047226558
0.00025438561
-1.4459443e-06
-0.00028048931
-0.000560731
-0.00081766612
-0.0010335053
-0.0011961913
-0.0012975193
-0.0013319695
-0.0012958217
-0.0011865419
-0.0010024893
-0.00074291026
-0.00040815321
-3.5720704e-08
0.00047770637
0.0010189598
0.001614835
0.0022533998
0.002919646
0.0035956144
0.0042609432
0.0048936414
0.0054711791
0.0059718282
0.0063761706
0.0066686557
0.0068390553
0.0068836508
0.0068060022
0.0066172017
0.0063355828
0.0059859205
0.0055981915
0.0052058769
0.0048436303
0.0045457062
0.0043483653
0.004281025
0.00089387979
0.00056262331
0.00026193562
-2.3844847e-05
-0.00029444483
-0.00053359273
-0.00072972231
-0.0008756184
-0.00096621021
-0.000997804
-0.00096758713
-0.00087327198
-0.00071298507
-0.00048538696
-0.00018996992
0.00017252199
0.00059960769
0.001086578
0.0016260604
0.0022077105
0.0028180998
0.003440776
0.00405677
0.0046452896
0.0051847776
0.0056542288
0.0060346807
0.0063107623
0.0064721531
0.0065147816
0.0064415963
0.006262774
0.0059953146
0.0056620621
0.0052902574
0.0049097694
0.0045513026
0.0042448526
0.0040169749
0.003881411
0.0013446751
0.00088500902
0.00052185826
0.0002115482
-6.6156773e-05
-0.00030221363
-0.00049094586
-0.00063008968
-0.00071798739
-0.00075307427
-0.0007336893
-0.0006579319
-0.0005237184
-0.00032903688
-7.2352657e-05
0.00024688191
0.00062766198
0.0010668625
0.0015587259
0.0020944679
0.0026620688
0.0032463011
0.0038290853
0.0043901691
0.0049081614
0.0053618652
0.0057318184
0.0060019076
0.0061608932
0.0062036724
0.0061321025
0.0059552356
0.005688878
0.0053544862
0.0049774961
0.0045854023
0.0042064457
0.0038678421
0.0035851791
0.0033615898
0.0017715169
0.0011783925
0.00074373302
0.00039768852
0.00010113081
-0.00014315657
-0.00033486627
-0.00047644991
-0.00056959636
-0.00061488023
-0.00061181251
-0.00055886912
-0.00045369539
-0.00029349244
-7.5538997e-05
0.00020219087
0.00054035587
0.00093757112
0.0013897848
0.0018897718
0.0024268136
0.0029866411
0.003551682
0.004101698
0.0046147946
0.0050687875
0.0054428335
0.005719175
0.0058848101
0.005932887
0.0058636325
0.0056846609
0.0054105682
0.0050617889
0.0046627573
0.004239811
0.0038203132
0.0034307555
0.0030781793
0.0027508944
0.0021292019
0.0014042314
0.00089464779
0.00050641939
0.00018315226
-7.7823388e-05
-0.00028102478
-0.00043323323
-0.00053923076
-0.00060156039
-0.00062077166
-0.00059559072
-0.00052325503
-0.0004000238
-0.00022181652
1.5054947e-05
0.00031309642
0.0006728291
0.0010920322
0.0015650982
0.0020825777
0.0026310103
0.0031930592
0.0037480958
0.0042731776
0.0047444471
0.0051388626
0.0054361132
0.0056205084
0.0056826
0.0056203064
0.0054393623
0.0051530023
0.0047808458
0.0043469648
0.003877651
0.0034009397
0.0029444434
0.002508187
0.0020666322
0.0023791679
0.0015277723
0.00094370359
0.00051053064
0.00015594681
-0.00012760595
-0.00034899665
-0.00051891226
-0.00064488541
-0.00073115145
-0.00077906658
-0.00078740107
-0.00075278938
-0.00067035423
-0.00053445675
-0.0003395421
-8.1049831e-05
0.0002436518
0.0006343629
0.0010872492
0.0015942247
0.0021426447
0.0027152897
0.0032908816
0.003845013
0.0043515676
0.0047845486
0.0051201779
0.005339056
0.0054281098
0.0053820408
0.0052040401
0.0049056475
0.0045057181
0.004028443
0.003501025
0.0029536095
0.0024167202
0.0018853102
0.0013227749
0.0024876096
0.0015173239
0.00086159916
0.00038314118
-5.1614753e-06
-0.00031538319
-0.00056036144
-0.00075428328
-0.0009070673
-0.0010243229
-0.0011079346
-0.0011564696
-0.0011657312
-0.0011294839
-0.0010403037
-0.00089053082
-0.00067329687
-0.00038359165
-1.931637e-05
0.00041774132
0.00092110242
0.0014791259
0.0020747754
0.0026860391
0.003286762
0.003848067
0.0043402727
0.004735185
0.0050085624
0.0051424711
0.0051271972
0.0049623995
0.0046573026
0.0042298394
0.0037046525
0.0031106788
0.0024814963
0.0018522636
0.0012143537
0.00052086424
0.0024240557
0.001343808
0.00062077088
9.8205301e-05
-0.00032482796
-0.00066467375
-0.00093783235
-0.0011616271
-0.0013480158
-0.0015036658
-0.0016307053
-0.0017272423
-0.0017880114
-0.0018051846
-0.0017693069
-0.0016703401
-0.0014987982
-0.0012469424
-0.00090998757
-0.00048726431
1.6764148e-05
0.00059187869
0.0012214805
0.0018829582
0.0025483073
0.0031854988
0.0037604628
0.0042395768
0.004592475
0.0047948894
0.0048311607
0.0046960258
0.0043953656
0.0039457018
0.0033722466
0.0027063682
0.0019863255
0.0012535859
0.00049709961
-0.00034003237
0.0021607297
0.00098059117
0.00019562192
-0.00036892767
-0.00082687008
-0.001198644
-0.0015041635
-0.0017635699
-0.0019905522
-0.0021925511
-0.0023716778
-0.0025253423
-0.0026469844
-0.0027269537
-0.0027535094
-0.0027139346
-0.0025957617
-0.0023880852
-0.0020829235
-0.0016765781
-0.0011708978
-0.00057399699
9.8422641e-05
0.00082355424
0.0015716847
0.0023074239
0.0029916876
0.003584365
0.004047508
0.0043487514
0.0044645703
0.0043829126
0.0041047685
0.0036442788
0.0030269938
0.0022872252
0.0014691198
0.00062214208
-0.00026635526
-0.0012635155
0.0016724348
0.00040355601
-0.00043719887
-0.001041031
-0.0015336099
-0.0019393166
-0.0022812643
-0.0025821352
-0.0028570888
-0.003114104
-0.0033550618
-0.0035764763
-0.0037702983
-0.0039248459
-0.0040258441
-0.0040575828
-0.0040042066
-0.0038511271
-0.003586531
-0.0032029144
-0.0026985705
-0.0020791111
-0.0013580558
-0.00055781368
0.00029061228
0.0011485299
0.0019713933
0.0027115753
0.0033219407
0.0037599386
0.0039917838
0.0039961864
0.0037670512
0.0033145326
0.0026637642
0.0018522009
0.0009310208
-4.0531526e-05
-0.0010761374
-0.0022539741
0.00093677173
-0.00040863421
-0.0012984233
-0.0019384903
-0.0024652241
-0.0029067918
-0.0032893088
-0.0036377557
-0.0039685531
-0.0042900432
-0.0046037268
-0.004905086
-0.0051844416
-0.0054279121
-0.0056184648
-0.0057370871
-0.0057641072
-0.0056806786
-0.0054704148
-0.0051211194
-0.0046265539
-0.0039883605
-0.0032170333
-0.0023334451
-0.0013690386
-0.0003653757
0.00062739539
0.0015532713
0.0023542828
0.0029753117
0.0033693854
0.003502809
0.003359388
0.0029428565
0.0022764521
0.0014004793
0.00037414008
-0.00073162139
-0.0019310964
-0.0033147183
-6.5435689e-05
-0.001474137
-0.0024057151
-0.0030787568
-0.0036390778
-0.0041184507
-0.0045458041
-0.0049482069
-0.0053431856
-0.0057393386
-0.006137712
-0.0065326964
-0.0069129154
-0.0072621835
-0.0075605366
-0.0077853794
-0.0079128007
-0.0079190922
-0.0077824811
-0.0074850527
-0.0070148179
-0.0063679012
-0.0055503634
-0.0045800175
-0.0034874292
-0.0023161054
-0.0011214806
3.1551329e-05
0.0010726766
0.0019316634
0.0025449125
0.0028623334
0.0028535881
0.0025124685
0.0018578483
0.00093186226
-0.0001975775
-0.0014457885
-0.0028272807
-0.0044462513
-0.001349604
-0.0028074677
-0.0037731924
-0.0044757986
-0.005069068
-0.0055881647
-0.0060646476
-0.0065274977
-0.0069952511
-0.0074767316
-0.0079725406
-0.0084760068
-0.008974079
-0.0094482496
-0.0098755253
-0.01022951
-0.010481672
-0.010602853
-0.010565056
-0.010343533
-0.0099191318
-0.0092808555
-0.0084283914
-0.0073745436
-0.006147132
-0.0047900553
-0.0033630805
-0.0019399411
-0.00060442544
0.0005556369
0.0014562122
0.0020259889
0.002215226
0.0020028443
0.0013995342
0.00044718481
-0.00077743286
-0.002173829
-0.0037563064
-0.0056444723
-0.0029268265
-0.0044190405
-0.0054109791
-0.0061395954
-0.0067650166
-0.00732555
-0.0078552113
-0.0083847601
-0.0089337137
-0.0095111746
-0.010117404
-0.010744797
-0.011378752
-0.011998523
-0.012578093
-0.013087143
-0.013492223
-0.013758201
-0.013850061
-0.013735102
-0.013385526
-0.012781405
-0.011913869
-0.01078831
-0.0094273248
-0.0078729065
-0.0061873679
-0.0044524012
-0.0027657034
-0.0012347913
3.1972287e-05
0.00093653492
0.0014031954
0.0013893574
0.00089189547
-5.1152587e-05
-0.0013549106
-0.0029011612
-0.0047035263
-0.0068986687
-0.0048033602
-0.0063147843
-0.0073248468
-0.0080757331
-0.0087321648
-0.0093353155
-0.0099215064
-0.010523199
-0.011160945
-0.011844275
-0.012573317
-0.013339768
-0.014127711
-0.014914359
-0.015670793
-0.016362774
-0.016951764
-0.017396257
-0.017653532
-0.017681894
-0.017443459
-0.016907485
-0.016054198
-0.01487882
-0.013395682
-0.011641778
-0.0096791889
-0.0075955737
-0.0055018929
-0.003526599
-0.0018059215
-0.00047053555
0.000370144
0.00064342762
0.00032443173
-0.00055842256
-0.0019143702
-0.0036060301
-0.0056458825
-0.0081891684
-0.0069802406
-0.0084959033
-0.0095160164
-0.010285165
-0.010970833
-0.011616769
-0.012261494
-0.012939176
-0.013671557
-0.014468854
-0.015331381
-0.016250487
-0.017209283
-0.018183259
-0.01914084
-0.020044011
-0.020849132
-0.021508097
-0.021969974
-0.022183217
-0.022098569
-0.021672689
-0.02087251
-0.019680171
-0.018098256
-0.016154941
-0.013908236
-0.011448442
-0.0088976577
-0.0064051272
-0.0041375068
-0.0022637653
-0.00093562237
-0.00026637404
-0.00031334666
-0.0010664034
-0.0024333635
-0.0042573004
-0.0065493067
-0.0094845026
-0.0094530982
-0.010958855
-0.011981187
-0.012764204
-0.013476309
-0.014163547
-0.014866613
-0.015621507
-0.016451449
-0.017367732
-0.018371301
-0.019453618
-0.020597276
-0.021776466
-0.022957326
-0.024098345
-0.025150934
-0.026060371
-0.026767244
-0.027209572
-0.027325719
-0.027058207
-0.026358497
-0.025192771
-0.02354819
-0.021439768
-0.018916651
-0.016067038
-0.013020235
-0.0099441702
-0.0070367284
-0.0045097886
-0.0025661036
-0.0013717083
-0.0010300303
-0.0015615458
-0.0028804085
-0.0048117016
-0.0073655232
-0.010737924
-0.012212247
-0.013695617
-0.014712866
-0.01550482
-0.016239035
-0.016963633
-0.017721592
-0.018551049
-0.019477168
-0.020512875
-0.021660322
-0.022911654
-0.024249503
-0.025647267
-0.027069267
-0.02847089
-0.029798913
-0.030992178
-0.031982799
-0.032698104
-0.033063464
-0.033006131
-0.032460269
-0.031373791
-0.02971468
-0.027480285
-0.024705443
-0.021470237
-0.017905333
-0.014192802
-0.010559977
-0.0072641265
-0.0045667988
-0.0026997341
-0.0018289457
-0.0020221374
-0.0032120003
-0.0052103612
-0.0080281082
-0.011883129
-0.015243111
-0.016694319
-0.017700063
-0.018495288
-0.019245136
-0.019999705
-0.020804587
-0.021700629
-0.02271566
-0.023864987
-0.025152703
-0.026572322
-0.028107129
-0.029730306
-0.031404867
-0.033083576
-0.034708996
-0.036213888
-0.037522149
-0.038550507
-0.039211159
-0.039415497
-0.039079125
-0.038130276
-0.036514169
-0.034206327
-0.031221667
-0.02762528
-0.023541634
-0.019159792
-0.014731498
-0.01055857
-0.0069666741
-0.0042656976
-0.0027028069
-0.0024140806
-0.0033685973
-0.0053744412
-0.0084476508
-0.012829044
-0.018527045
-0.019940303
-0.02092943
-0.02172126
-0.022477328
-0.023249831
-0.024087662
-0.025035343
-0.026124422
-0.027373609
-0.028789845
-0.030368787
-0.032095041
-0.033942138
-0.035872303
-0.037836149
-0.03977249
-0.04160847
-0.043260217
-0.044634246
-0.045629848
-0.046142772
-0.046070399
-0.045316965
-0.043805897
-0.041486663
-0.038348866
-0.034435524
-0.029856202
-0.02479747
-0.0195269
-0.014385705
-0.0097648984
-0.0060624935
-0.0036259286
-0.0026848967
-0.0032693066
-0.0051996748
-0.0085058514
-0.013453548
-0.022042613
-0.023417709
-0.024386904
-0.025167294
-0.025916218
-0.026688502
-0.027537579
-0.02851317
-0.029652069
-0.030977741
-0.032501073
-0.034220729
-0.036123288
-0.038183142
-0.040362145
-0.042609154
-0.044859642
-0.047035597
-0.04904591
-0.050787489
-0.052147342
-0.053005933
-0.053241995
-0.052738665
-0.051393561
-0.049128391
-0.045903482
-0.04173336
-0.036703777
-0.030987791
-0.024857013
-0.018682108
-0.012915075
-0.0080472887
-0.0045437412
-0.0027556144
-0.0028049941
-0.0045495989
-0.0080483872
-0.013596008
-0.025767402
-0.027111694
-0.028059965
-0.028818877
-0.029541974
-0.030287938
-0.031116806
-0.032085838
-0.033239219
-0.034606914
-0.036205071
-0.038036261
-0.040089621
-0.042340764
-0.044751409
-0.047268856
-0.049825476
-0.052338442
-0.054709896
-0.056827798
-0.058567708
-0.059795754
-0.06037304
-0.060161737
-0.059034568
-0.056884295
-0.053639416
-0.049281043
-0.043863138
-0.037533968
-0.030555263
-0.023312761
-0.016308669
-0.01012601
-0.0053597338
-0.0025103618
-0.0018295828
-0.0032472663
-0.0068763485
-0.013048498
-0.029680518
-0.031011468
-0.031940635
-0.032665001
-0.033336339
-0.034019558
-0.034784635
-0.035699804
-0.036819573
-0.03818262
-0.039811838
-0.041714585
-0.043882967
-0.046293924
-0.048908975
-0.051673755
-0.054517484
-0.057352606
-0.06007481
-0.062563658
-0.064684081
-0.066288985
-0.067223225
-0.067329283
-0.066456026
-0.064468135
-0.061261518
-0.056781058
-0.051042995
-0.044160809
-0.036372029
-0.028060033
-0.019760309
-0.012137403
-0.0059205765
-0.0017837595
-0.0001493704
-0.001065202
-0.0047359767
-0.011545502
-0.033766002
-0.035114478
-0.036029449
-0.036701358
-0.037284897
-0.037855485
-0.038498195
-0.039297152
-0.040321054
-0.041619951
-0.043225062
-0.045149241
-0.047387666
-0.049918308
-0.052702007
-0.055682194
-0.058784484
-0.061916317
-0.064966901
-0.067807667
-0.070293555
-0.072265263
-0.07355287
-0.073981136
-0.073375844
-0.071576424
-0.068447047
-0.063895888
-0.057898336
-0.050525825
-0.041979026
-0.032620761
-0.022998364
-0.013839296
-0.0060009586
-0.00034667355
0.0024896709
0.0022866884
-0.0013062749
-0.0087517395
-0.038017706
-0.03943229
-0.040340778
-0.040934262
-0.041379537
-0.041769869
-0.042213183
-0.042816257
-0.043666841
-0.044829347
-0.046344768
-0.048231783
-0.050488211
-0.053092206
-0.056002872
-0.059160379
-0.062485789
-0.065880807
-0.069227713
-0.072389688
-0.075211962
-0.077523735
-0.079141375
-0.079873151
-0.079525588
-0.077913563
-0.074872269
-0.070274948
-0.064056012
-0.056241241
-0.046985342
-0.036614335
-0.025664356
-0.014900418
-0.0052905323
0.0021085502
0.006416418
0.0071756522
0.0038162696
-0.0042473151
-0.042446627
-0.043999211
-0.044910143
-0.045385513
-0.045621
-0.045739843
-0.045884084
-0.046192039
-0.046776225
-0.047718377
-0.049070196
-0.050855758
-0.053074299
-0.055702521
-0.058696059
-0.061990136
-0.065499779
-0.069119727
-0.072724451
-0.0761683
-0.079286643
-0.081897423
-0.08380402
-0.084799497
-0.084672607
-0.083216448
-0.080240054
-0.075584738
-0.069146248
-0.060904817
-0.050964705
-0.039603251
-0.027324218
-0.014901474
-0.0033861978
0.0059814434
0.012050534
0.014063692
0.011137237
0.0024915089
-0.04709269
-0.048885415
-0.049804552
-0.050098485
-0.050021407
-0.049745875
-0.04946372
-0.049355765
-0.049565301
-0.050193617
-0.051302889
-0.05292092
-0.055045966
-0.057650654
-0.060684605
-0.064075752
-0.067731045
-0.071536545
-0.075357924
-0.079039182
-0.082405527
-0.085263349
-0.087403136
-0.088603358
-0.088636167
-0.08727457
-0.084304132
-0.079537559
-0.072835544
-0.064135627
-0.053491584
-0.04112578
-0.02749331
-0.013349107
0.00020618944
0.011772394
0.019918891
0.023529218
0.021290647
0.012119592
-0.052044894
-0.054217742
-0.055137483
-0.055145853
-0.054606613
-0.053771283
-0.052902027
-0.052234436
-0.051947627
-0.052162744
-0.052950094
-0.054337622
-0.056318639
-0.058857848
-0.061895638
-0.065349338
-0.06911548
-0.073069218
-0.077067329
-0.080939597
-0.084501649
-0.087547429
-0.089854013
-0.091185124
-0.091297317
-0.089943183
-0.086886811
-0.08191497
-0.074856642
-0.065610496
-0.054182592
-0.040738992
-0.025675979
-0.0097061905
0.0060555916
0.020082565
0.030670392
0.036294042
0.035076603
0.025465959
-0.057477576
-0.060213597
-0.061090841
-0.060639248
-0.059417992
-0.05780056
-0.05614394
-0.054749839
-0.053835
-0.053536946
-0.053928391
-0.055031175
-0.056827756
-0.059269614
-0.06228461
-0.065774417
-0.069623568
-0.073694355
-0.077829004
-0.081848141
-0.085552865
-0.08872416
-0.091125201
-0.092504431
-0.092600428
-0.091148039
-0.087888884
-0.082584197
-0.075033097
-0.065098039
-0.052740157
-0.038070126
-0.021419865
-0.0034417866
0.014768797
0.03159764
0.045084878
0.053256763
0.053517127
0.043607885
-0.063718424
-0.06723719
-0.067946819
-0.066740487
-0.064512485
-0.061815561
-0.059125823
-0.056816915
-0.055138006
-0.054233202
-0.054167016
-0.054945586
-0.056532537
-0.058859987
-0.061835843
-0.065346325
-0.06925865
-0.073420322
-0.077659147
-0.081782637
-0.085577895
-0.088811915
-0.091233001
-0.092573357
-0.092553339
-0.090887709
-0.087294757
-0.081509155
-0.073299002
-0.062489742
-0.048997316
-0.03287553
-0.01438612
0.0058951439
0.026924729
0.047045149
0.064067881
0.075531577
0.077939779
0.068005656
-0.071380622
-0.075893338
-0.076132224
-0.073672095
-0.069958003
-0.065787182
-0.061768611
-0.058339875
-0.055764848
-0.054174911
-0.053609354
-0.054045226
-0.055416404
-0.057628466
-0.060564942
-0.064091195
-0.068055563
-0.072288932
-0.076603829
-0.080793297
-0.084630197
-0.087867001
-0.090236572
-0.091454179
-0.091221136
-0.089230412
-0.085174768
-0.078759423
-0.069717225
-0.057831202
-0.042965153
-0.025107734
-0.0044387748
0.018570486
0.042965197
0.06710539
0.088611166
0.10448367
0.11010523
0.1007611
-0.081631269
-0.087181503
-0.086270041
-0.081716103
-0.075814434
-0.069654605
-0.063961028
-0.059200322
-0.055613392
-0.053286547
-0.052209182
-0.052310649
-0.053483898
-0.055599144
-0.058510709
-0.062059666
-0.066073896
-0.070366715
-0.074735018
-0.07895739
-0.082792658
-0.085979031
-0.088234166
-0.089256457
-0.08872789
-0.086318607
-0.081693459
-0.07452449
-0.064502663
-0.051358538
-0.034889263
-0.014997434
0.0082490499
0.034515724
0.063013868
0.092226391
0.11966039
0.141723
0.15240495
0.14512515
-0.096759655
-0.10273798
-0.099197764
-0.091155096
-0.082062372
-0.073261343
-0.065507709
-0.059216896
-0.054540076
-0.05146927
-0.049910044
-0.049722813
-0.050745617
-0.05280575
-0.055724217
-0.059315974
-0.063388018
-0.06773646
-0.072143433
-0.076374218
-0.080174943
-0.083270963
-0.085366157
-0.086143353
-0.085266298
-0.082382528
-0.077128044
-0.069138366
-0.058055472
-0.043544617
-0.025315092
-0.0031506412
0.023041659
0.053142079
0.086634141
0.1222838
0.15778166
0.18895248
0.2080987
0.20632852
-0.12133924
-0.12518689
-0.11587267
-0.1020808
-0.088416935
-0.076197929
-0.066005403
-0.058051878
-0.052290963
-0.048549877
-0.04660801
-0.046232616
-0.047194362
-0.049272248
-0.052252533
-0.055924801
-0.060077001
-0.064490393
-0.068934932
-0.073165286
-0.07691766
-0.079907423
-0.081827609
-0.082348436
-0.081118405
-0.077764144
-0.071895594
-0.063110082
-0.050995936
-0.03514156
-0.015145177
0.0093697737
0.0387262
0.073130462
0.11252056
0.15626337
0.20263167
0.24752394
0.28130175
0.29235735
-0.16445672
-0.15843245
-0.13714796
-0.11415706
-0.094106936
-0.077630855
-0.064737544
-0.055161464
-0.048489584
-0.044291233
-0.042172526
-0.041787078
-0.042832095
-0.045039311
-0.048164376
-0.051976672
-0.056250375
-0.060756906
-0.065258712
-0.069504254
-0.073224093
-0.076127899
-0.077902356
-0.078210135
-0.076690155
-0.072947452
-0.066577396
-0.05714034
-0.04417208
-0.0271801
-0.0056357929
0.021035539
0.05346486
0.092332354
0.138297
0.19182764
0.25266876
0.31751218
0.37626934
0.41537151
-0.2462936
-0.20631765
-0.16212995
-0.12552862
-0.097143409
-0.075877947
-0.060487344
-0.049752142
-0.042660044
-0.038435993
-0.036490107
-0.036365124
-0.037697062
-0.040184837
-0.043566905
-0.047603855
-0.052065522
-0.056721293
-0.061332725
-0.06564787
-0.069396903
-0.072288848
-0.074009236
-0.07421948
-0.072558177
-0.068605234
-0.061961372
-0.052155585
-0.038682627
-0.020980848
0.0015964996
0.02982606
0.064687232
0.10746576
0.159872
0.22417878
0.30290644
0.39553318
0.49624441
0.60321329
-0.42543837
-0.26572975
-0.17722098
-0.12463562
-0.089116271
-0.065102426
-0.04932365
-0.039185132
-0.032983519
-0.029673896
-0.028570514
-0.029186532
-0.031156571
-0.034189612
-0.038037292
-0.042472977
-0.047277788
-0.052230793
-0.057101832
-0.061646127
-0.065600168
-0.068678553
-0.070571249
-0.070940155
-0.069407472
-0.065629376
-0.05913196
-0.049452445
-0.036074394
-0.018402848
0.0042722208
0.032848166
0.068543626
0.11314307
0.16943767
0.24201823
0.33806712
0.46591687
0.64305569
0.92086327
-0.79331232
-0.32444155
-0.14899681
-0.087724794
-0.055345225
-0.035998948
-0.025091
-0.019200459
-0.016354986
-0.01561855
-0.016493764
-0.018653549
-0.021852635
-0.025887964
-0.030574942
-0.035733303
-0.041178488
-0.04671571
-0.052135399
-0.057209573
-0.061688893
-0.065300294
-0.067745311
-0.068700363
-0.067823984
-0.064707453
-0.058941301
-0.050071987
-0.037592949
-0.020926734
0.00061110527
0.027881793
0.062059486
0.10491409
0.15945205
0.23152871
0.33385218
0.49409294
0.7900171
1.383779
1.2568663e-05
-0.0001302931
-0.00044248369
-0.00084504009
-0.0012634413
-0.0016522401
-0.0019805815
-0.0022296447
-0.0023887993
-0.0024523431
-0.0024173386
-0.0022823306
-0.0020467497
-0.0017108388
-0.0012759543
-0.00074510437
-0.00012360034
0.00058028981
0.0013547872
0.0021842373
0.0030490126
0.003925754
0.0047879773
0.0056070855
0.0063537447
0.0069995668
0.0075189941
0.0078912367
0.0081021008
0.00814554
0.008024778
0.0077529071
0.0073529302
0.0068573095
0.0063069245
0.0057493067
0.0052394476
0.0048336018
0.0045935076
0.0045549373
0.00015450423
9.2366845e-06
-0.00024091573
-0.00054977203
-0.0008719285
-0.0011730762
-0.0014289873
-0.0016234929
-0.0017462347
-0.0017907695
-0.0017531551
-0.0016310274
-0.001423132
-0.0011292378
-0.00075033586
-0.00028903061
0.00024997025
0.00085935787
0.0015287981
0.0022446565
0.0029899326
0.0037446006
0.0044859636
0.0051896759
0.0058308912
0.0063857104
0.0068328038
0.0071550713
0.0073411895
0.0073868928
0.0072958536
0.0070800738
0.0067597499
0.0063626366
0.0059229544
0.0054797278
0.0050741297
0.0047494593
0.0045508354
0.0045155724
0.00047276704
0.00025467279
-1.1173964e-06
-0.00028021367
-0.00056052679
-0.00081750209
-0.0010333682
-0.0011960765
-0.0012974226
-0.001331888
-0.0012957545
-0.0011864897
-0.0010024529
-0.0007428899
-0.00040814784
-4.3888607e-08
0.00047768547
0.001018926
0.0016147875
0.0022533392
0.0029195751
0.0035955378
0.0042608653
0.0048935633
0.0054710982
0.0059717418
0.0063760806
0.0066685693
0.0068389796
0.0068835848
0.0068059343
0.0066171187
0.0063354832
0.005985819
0.0055981038
0.0052058029
0.0048435549
0.0045455853
0.0043481637
0.0042809979
0.00089438274
0.00056269921
0.0002621969
-2.3608747e-05
-0.00029430119
-0.00053349675
-0.00072965857
-0.0008755841
-0.0009662003
-0.00099781326
-0.00096761161
-0.00087330912
-0.00071303346
-0.00048544568
-0.0001900374
0.00017244867
0.0005995324
0.0010865045
0.0016259909
0.002207646
0.0028180405
0.0034407252
0.0040567329
0.0046452712
0.0051847788
0.0056542447
0.0060347031
0.0063107866
0.0064721812
0.0065148185
0.006441639
0.0062628065
0.0059953155
0.005662022
0.0052901887
0.0049096925
0.0045512192
0.0042447413
0.0040168238
0.003881271
0.0013452278
0.00088487383
0.00052208646
0.00021181227
-6.5976664e-05
-0.00030205963
-0.00049080434
-0.00062996523
-0.0007178803
-0.00075298336
-0.00073361359
-0.0006578705
-0.00052367094
-0.00032900396
-7.2335472e-05
0.0002468826
0.00062764684
0.0010668337
0.001558686
0.0020944183
0.0026620087
0.00324623
0.0038290044
0.0043900835
0.0049080778
0.0053617873
0.0057317436
0.0060018284
0.0061608055
0.0062035811
0.0061320186
0.0059551639
0.005688808
0.005354399
0.0049773851
0.0045852783
0.0042063149
0.0038677374
0.0035851753
0.0033613739
0.0017721584
0.0011780669
0.00074392566
0.00039795487
0.00010130168
-0.00014300646
-0.00033472092
-0.00047631724
-0.00056947802
-0.00061477628
-0.00061172348
-0.00055879509
-0.00045363592
-0.00029344728
-7.5508728e-05
0.00020220488
0.00054035238
0.00093755032
0.0013897488
0.0018897237
0.0024267555
0.0029865729
0.0035516022
0.0041016071
0.0046146969
0.0050686907
0.0054427432
0.0057190893
0.0058847204
0.0059327866
0.0058635249
0.0056845585
0.0054104784
0.005061704
0.0046626621
0.0042396923
0.0038201558
0.0034306376
0.0030782602
0.0027505919
0.0021299443
0.0014037375
0.00089481213
0.00050668616
0.00018330709
-7.7688135e-05
-0.00028089027
-0.00043310977
-0.00053912007
-0.00060146221
-0.00062068697
-0.00059552055
-0.00052319968
-0.00039998284
-0.00022178938
1.5068152e-05
0.00031309463
0.00067281106
0.0010919978
0.0015650497
0.002082519
0.0026309444
0.0031929869
0.0037480153
0.0042730878
0.0047443514
0.0051387689
0.0054360282
0.0056204309
0.0056825202
0.0056202147
0.0054392601
0.0051529012
0.0047807551
0.0043468817
0.0038775499
0.0034007726
0.0029443164
0.0025083564
0.0020662569
0.0023800126
0.001527129
0.00094384881
0.00051080439
0.00015609355
-0.00012747652
-0.00034886321
-0.00051878805
-0.00064477273
-0.00073104961
-0.00077897635
-0.0007873239
-0.00075272662
-0.00067030658
-0.00053442402
-0.00033952361
-8.1045368e-05
0.00024364138
0.00063433615
0.0010872056
0.0015941665
0.0021425758
0.0027152146
0.0032908019
0.0038449269
0.0043514728
0.0047844472
0.0051200777
0.005338965
0.0054280278
0.0053819578
0.0052039451
0.0049055404
0.0045056119
0.0040283523
0.0035009297
0.0029534369
0.0024165957
0.0018855755
0.001322306
0.0024885539
0.0015165476
0.00086173193
0.0003834253
-5.0193636e-06
-0.00031525653
-0.00056022596
-0.000754155
-0.00090694956
-0.0010242151
-0.0011078372
-0.0011563837
-0.0011656584
-0.0011294257
-0.0010402613
-0.00089050428
-0.00067328548
-0.00038359487
-1.933479e-05
0.00041770625
0.00092105009
0.0014790573
0.0020746955
0.0026859535
0.0032866734
0.0038479737
0.0043401715
0.0047350769
0.0050084547
0.0051423726
0.0051271085
0.0049623104
0.0046572013
0.0042297283
0.0037045515
0.003110578
0.0024813118
0.0018521452
0.001214723
0.00052029819
0.0024250944
0.0013429129
0.00062089633
9.8502195e-05
-0.00032468821
-0.00066454869
-0.00093769433
-0.0011614941
-0.0013478921
-0.0015035513
-0.0016306008
-0.0017271484
-0.0017879291
-0.0018051156
-0.001769253
-0.0016703028
-0.001498778
-0.0012469384
-0.00090999905
-0.00048729102
1.6721626e-05
0.00059181713
0.0012214017
0.0018828673
0.0025482109
0.0031854011
0.0037603625
0.0042394702
0.0045923618
0.0047947765
0.0048310571
0.0046959317
0.0043952701
0.0039455967
0.0033721448
0.0027062602
0.0019861204
0.0012534702
0.00049758244
-0.0003406983
0.0021618562
0.00097959096
0.00019574384
-0.00036861586
-0.00082672964
-0.0011985184
-0.0015040218
-0.0017634313
-0.0019904213
-0.0021924281
-0.0023715642
-0.0025252393
-0.0026468925
-0.0027268738
-0.0027534431
-0.002713884
-0.0025957288
-0.0023880708
-0.0020829268
-0.0016765973
-0.0011709305
-0.00057404896
9.8351456e-05
0.00082346519
0.0015715828
0.0023073168
0.0029915806
0.0035842576
0.0040473961
0.0043486343
0.0044644544
0.0043828058
0.0041046692
0.0036441795
0.0030268997
0.0022871164
0.0014688903
0.00062202398
-0.00026574908
-0.0012642912
0.0016736418
0.00040246433
-0.00043707792
-0.0010407033
-0.0015334658
-0.0019391878
-0.0022811172
-0.00258199
-0.0028569499
-0.0031139715
-0.0033549373
-0.0035763619
-0.003770195
-0.0039247544
-0.0040257652
-0.0040575182
-0.0040041584
-0.0038510979
-0.0035865218
-0.003202925
-0.0026986003
-0.0020791561
-0.0013581179
-0.00055789471
0.00029051285
0.0011484172
0.0019712757
0.0027114593
0.0033218265
0.0037598223
0.0039916646
0.0039960698
0.0037669418
0.0033144315
0.0026636782
0.0018520973
0.00093076769
-4.0654142e-05
-0.0010753949
-0.0022548765
0.00093805054
-0.00040980253
-0.0012983014
-0.0019381469
-0.0024650745
-0.0029066575
-0.0032891544
-0.0036376024
-0.0039684053
-0.0042899005
-0.0046035906
-0.0049049585
-0.0051843246
-0.0054278071
-0.0056183725
-0.0057370084
-0.0057640436
-0.0056806323
-0.0054703886
-0.0051211156
-0.0046265735
-0.0039883979
-0.0032170879
-0.0023335174
-0.0013691301
-0.00036548568
0.00062727233
0.0015531442
0.0023541589
0.0029751921
0.0033692669
0.0035026904
0.0033592715
0.0029427492
0.0022763695
0.0014003815
0.00037386338
-0.00073174746
-0.0019301982
-0.003315769
-6.4095634e-05
-0.001475366
-0.0024055902
-0.0030783985
-0.0036389214
-0.0041183092
-0.0045456408
-0.0049480441
-0.0053430278
-0.0057391852
-0.006137564
-0.0065325555
-0.0069127836
-0.007262063
-0.007560429
-0.0077852857
-0.0079127217
-0.0079190293
-0.0077824367
-0.0074850301
-0.0070148198
-0.0063679264
-0.0055504099
-0.004580083
-0.003487513
-0.0023162082
-0.0011216012
3.1418756e-05
0.0010725417
0.0019315342
0.0025447908
0.0028622159
0.0028534711
0.0025123578
0.001857767
0.00093176731
-0.00019788203
-0.0014459171
-0.0028262009
-0.0044474757
-0.0013482153
-0.0028087407
-0.0037730625
-0.0044754265
-0.0050689041
-0.0055880152
-0.0060644744
-0.0065273242
-0.0069950821
-0.0074765666
-0.0079723805
-0.0084758528
-0.0089739327
-0.0094481131
-0.009875401
-0.0102294
-0.010481577
-0.010602774
-0.010564994
-0.010343492
-0.009919114
-0.0092808635
-0.0084284253
-0.0073746011
-0.0061472099
-0.0047901519
-0.0033631954
-0.0019400721
-0.00060456586
0.00055549738
0.0014560819
0.0020258691
0.0022151109
0.0020027358
0.0013994579
0.00044709201
-0.00077777235
-0.0021739613
-0.0037550145
-0.0056458991
-0.0029254029
-0.0044203409
-0.0054108426
-0.0061392106
-0.0067648444
-0.0073253917
-0.0078550279
-0.0083845754