/*--------------------------------*- C++ -*----------------------------------*\
  =========                 |
  \\      /  F ield         | OpenFOAM: The Open Source CFD Toolbox
   \\    /   O peration     | Website:  https://openfoam.org
    \\  /    A nd           | Version:  7
     \\/     M anipulation  |
\*---------------------------------------------------------------------------*/
FoamFile
{
    version     2.0;
    format      ascii;
    class       surfaceScalarField;
    location    "23";
    object      phi;
}
// * * * * * * * * * * * * * * * * * * * * * * * * * * * * * * * * * * * * * //

dimensions      [0 3 -1 0 0 0 0];

internalField   nonuniform List<scalar> 
45600
(
2.7489433e-07
-2.8250835e-07
-8.5688075e-11
4.0319351e-07
-1.2827247e-07
-2.7122639e-11
1.3248089e-07
2.7071944e-07
-7.8257696e-12
-5.6235193e-07
6.9483485e-07
-2.3611956e-12
-1.6393296e-06
1.0769757e-06
2.9396811e-12
-3.0276206e-06
1.3882857e-06
6.5209424e-12
-4.6524456e-06
1.6248158e-06
8.8518655e-12
-6.4450613e-06
1.7926038e-06
1.0486376e-11
-8.3453711e-06
1.9002975e-06
1.1656121e-11
-1.0301373e-05
1.9559907e-06
1.2457458e-11
-1.2267314e-05
1.9659307e-06
1.2930331e-11
-1.4201475e-05
1.93415e-06
1.308523e-11
-1.6064116e-05
1.8626273e-06
1.2930951e-11
-1.781589e-05
1.7517592e-06
1.2486738e-11
-1.9416904e-05
1.6010014e-06
1.1770509e-11
-2.0826497e-05
1.409584e-06
1.0778638e-11
-2.2003736e-05
1.1772335e-06
9.4797467e-12
-2.290859e-05
9.0484876e-07
7.8326038e-12
-2.3503684e-05
5.9508727e-07
5.8301619e-12
-2.3756518e-05
2.5282475e-07
3.5176467e-12
-2.3641963e-05
-1.1456135e-07
9.9534019e-13
-2.3144841e-05
-4.971199e-07
-1.6271169e-12
-2.2262417e-05
-8.8241185e-07
-4.279787e-12
-2.1006471e-05
-1.2559305e-06
-6.9262862e-12
-1.940473e-05
-1.6017303e-06
-9.5215504e-12
-1.7501442e-05
-1.9032874e-06
-1.192832e-11
-1.5356881e-05
-2.1445628e-06
-1.3909744e-11
-1.3045692e-05
-2.3111797e-06
-1.5206038e-11
-1.0654055e-05
-2.3916083e-06
-1.568454e-11
-8.2757803e-06
-2.3782361e-06
-1.5423349e-11
-6.0075394e-06
-2.2682159e-06
-1.461759e-11
-3.9435193e-06
-2.0640258e-06
-1.3346607e-11
-2.1697967e-06
-1.7737477e-06
-1.1418796e-11
-7.5857202e-07
-1.4112332e-06
-8.5209962e-12
2.381771e-07
-9.9671508e-07
-4.7800415e-12
7.9653373e-07
-5.5829872e-07
-1.272876e-12
9.292905e-07
-1.327346e-07
1.9401361e-12
7.0560512e-07
2.2362507e-07
4.9770921e-12
2.9047689e-07
4.1501088e-07
8.0268336e-12
2.9040817e-07
1.2164791e-12
1.3275106e-07
-4.1523519e-07
-2.4536524e-11
-3.0181786e-07
3.0631238e-07
-1.5592471e-11
-1.6154956e-06
1.5844103e-06
-1.3462872e-11
-3.8747606e-06
2.9541119e-06
-1.405173e-11
-7.0073518e-06
4.2095802e-06
-1.5061597e-11
-1.0879716e-05
5.2606666e-06
-1.6473494e-11
-1.5335081e-05
6.0802017e-06
-1.7812997e-11
-2.021587e-05
6.6734133e-06
-1.8793915e-11
-2.5373879e-05
7.0583256e-06
-1.9351875e-11
-3.0673043e-05
7.255172e-06
-1.9468517e-11
-3.5988262e-05
7.2811677e-06
-1.9144259e-11
-4.1202501e-05
7.1484104e-06
-1.8408655e-11
-4.6203598e-05
6.863746e-06
-1.7306754e-11
-5.0881684e-05
6.4298639e-06
-1.5870639e-11
-5.512778e-05
5.8471102e-06
-1.4099471e-11
-5.8833837e-05
5.115649e-06
-1.1964898e-11
-6.1894298e-05
4.2377005e-06
-9.4411953e-12
-6.4209088e-05
3.2196463e-06
-6.5542695e-12
-6.5687828e-05
2.0738374e-06
-3.3740199e-12
-6.6254937e-05
8.1994075e-07
-2.2297708e-14
-6.5855462e-05
-5.1403951e-07
3.4001096e-12
-6.4460311e-05
-1.8922882e-06
6.892545e-12
-6.2072013e-05
-3.2707325e-06
1.0385419e-11
-5.8728665e-05
-4.5992968e-06
1.3809467e-11
-5.4506695e-05
-5.8237062e-06
1.6984331e-11
-4.9521568e-05
-6.8884141e-06
1.9640086e-11
-4.3926109e-05
-7.7400344e-06
2.1542466e-11
-3.7906221e-05
-8.3311072e-06
2.2637605e-11
-3.1673978e-05
-8.623907e-06
2.306593e-11
-2.5458294e-05
-8.5939616e-06
2.2983758e-11
-1.9493546e-05
-8.2329645e-06
2.2326403e-11
-1.4006676e-05
-7.5508669e-06
2.078196e-11
-9.2032633e-06
-6.5771511e-06
1.8105132e-11
-5.2529057e-06
-5.3616394e-06
1.4544894e-11
-2.274025e-06
-3.9756823e-06
1.0886979e-11
-3.1734474e-07
-2.5150262e-06
7.7717256e-12
6.5699853e-07
-1.1070106e-06
4.8562142e-12
8.0366639e-07
7.71152e-08
3.8810019e-12
4.17902e-07
8.0092258e-07
4.6220915e-12
7.0826165e-07
-3.4828082e-12
-2.7364256e-07
-1.4158009e-07
-1.3538257e-11
-1.6275604e-06
1.6602387e-06
-8.3291943e-12
-4.2894597e-06
4.2463203e-06
-9.5287049e-12
-8.2746895e-06
6.9393498e-06
-7.9943351e-12
-1.3474373e-05
9.4092688e-06
-5.9226439e-12
-1.9708612e-05
1.1494909e-05
-4.75724e-12
-2.676557e-05
1.3137164e-05
-3.9757783e-12
-3.4426359e-05
1.4334209e-05
-3.3279192e-12
-4.2478295e-05
1.5110267e-05
-2.8042133e-12
-5.0720036e-05
1.5496916e-05
-2.3645277e-12
-5.8961805e-05
1.5522937e-05
-1.9481992e-12
-6.7023126e-05
1.5209732e-05
-1.5138052e-12
-7.4729898e-05
1.457052e-05
-1.053857e-12
-8.1912021e-05
1.3611991e-05
-5.9055382e-13
-8.8402393e-05
1.2337486e-05
-1.5557715e-13
-9.4037675e-05
1.0750932e-05
2.7494744e-13
-9.8660961e-05
8.8609824e-06
6.0620581e-13
-0.00010212624
6.6849188e-06
9.8174593e-13
-0.00010430436
4.2519571e-06
1.3773331e-12
-0.00010509014
1.6057245e-06
1.7565526e-12
-0.0001044098
-1.1943794e-06
2.0566827e-12
-0.00010222864
-4.0734386e-06
2.2205477e-12
-9.8557756e-05
-6.941629e-06
2.2578504e-12
-9.3459304e-05
-9.6977649e-06
2.2654233e-12
-8.7049768e-05
-1.2233255e-05
2.3460036e-12
-7.9500449e-05
-1.443773e-05
2.5037957e-12
-7.1034809e-05
-1.6205658e-05
2.6098045e-12
-6.1922329e-05
-1.7443573e-05
2.507082e-12
-5.2468833e-05
-1.8077411e-05
2.1961124e-12
-4.3003453e-05
-1.8059374e-05
1.9148151e-12
-3.3862681e-05
-1.7373766e-05
1.968023e-12
-2.5372149e-05
-1.6041394e-05
2.4074517e-12
-1.7826838e-05
-1.4122418e-05
2.8860544e-12
-1.1470375e-05
-1.1718062e-05
2.9445545e-12
-6.4738538e-06
-8.9722195e-06
2.5419297e-12
-2.9140714e-06
-6.0748913e-06
2.1457773e-12
-7.5128832e-07
-3.2698848e-06
2.1862817e-12
1.9430133e-07
-8.6849467e-07
3.505928e-12
2.6551959e-07
7.2978555e-07
5.8482724e-12
9.7377028e-07
7.3241277e-13
-7.4587357e-07
6.0430632e-07
-1.3578451e-11
-3.1796698e-06
4.0940357e-06
-2.2012277e-12
-7.346114e-06
8.4127728e-06
-7.5779801e-12
-1.3163016e-05
1.275626e-05
-6.8475001e-12
-2.0455708e-05
1.6701966e-05
-4.1660152e-12
-2.8992442e-05
2.0031644e-05
-2.7837345e-12
-3.851359e-05
2.2658313e-05
-1.8484626e-12
-4.8752289e-05
2.4572909e-05
-9.9485307e-13
-5.9446491e-05
2.5804471e-05
-2.8731357e-13
-7.0344237e-05
2.6394665e-05
2.687881e-13
-8.1204429e-05
2.6383129e-05
7.1018795e-13
-9.1795185e-05
2.5800486e-05
1.0769592e-12
-0.00010189153
2.4666857e-05
1.4035727e-12
-0.00011127366
2.2994125e-05
1.7031158e-12
-0.00011972674
2.0790566e-05
1.9570637e-12
-0.00012704251
1.8066701e-05
2.1265602e-12
-0.00013302301
1.4841488e-05
2.1836212e-12
-0.00013748624
1.1148145e-05
2.1329347e-12
-0.00014027333
7.0390395e-06
2.0136483e-12
-0.00014125688
2.5892672e-06
1.8709034e-12
-0.00014034963
-2.1016319e-06
1.7188955e-12
-0.00013751328
-6.9097782e-06
1.4735793e-12
-0.00013276598
-1.1688925e-05
1.0754664e-12
-0.00012618834
-1.6275407e-05
5.3227399e-13
-0.00011792701
-2.0494597e-05
-3.7696389e-14
-0.00010819514
-2.4169615e-05
-4.6174435e-13
-9.7269213e-05
-2.7131589e-05
-6.5215203e-13
-8.5481854e-05
-2.9230912e-05
-7.0352585e-13
-7.3210488e-05
-3.0348752e-05
-8.1702772e-13
-6.0861904e-05
-3.0407954e-05
-1.0687652e-12
-4.8853193e-05
-2.9382506e-05
-1.2394448e-12
-3.7589743e-05
-2.7304883e-05
-9.4361355e-13
-2.7441228e-05
-2.4270938e-05
-2.5313402e-14
-1.8716643e-05
-2.0442601e-05
1.1625231e-12
-1.1639422e-05
-1.6049376e-05
1.9927829e-12
-6.323553e-06
-1.139074e-05
2.2282343e-12
-2.751554e-06
-6.8419357e-06
2.4191636e-12
-7.5719774e-07
-2.8629184e-06
3.228946e-12
-9.5376696e-09
-1.7865694e-08
4.3808096e-12
9.6424935e-07
3.7811171e-12
-1.2279738e-06
1.8322956e-06
-1.4922519e-11
-4.7881065e-06
7.6541628e-06
3.9207083e-12
-1.05215e-05
1.4146172e-05
-6.6185536e-12
-1.8214223e-05
2.0448992e-05
-7.6585292e-12
-2.7603737e-05
2.6091487e-05
-5.2236222e-12
-3.8395991e-05
3.0823903e-05
-4.4665065e-12
-5.0282631e-05
3.4544957e-05
-4.1045953e-12
-6.2954235e-05
3.7244516e-05
-3.6091677e-12
-7.6108362e-05
3.8958601e-05
-3.105808e-12
-8.945297e-05
3.9739278e-05
-2.6364629e-12
-0.00010270654
3.9636707e-05
-2.1956896e-12
-0.00011559648
3.869043e-05
-1.7809189e-12
-0.00012785719
3.6927562e-05
-1.3765611e-12
-0.00013922894
3.4365881e-05
-9.5494714e-13
-0.00014945841
3.1020031e-05
-4.9838915e-13
-0.00015830107
2.6909362e-05
-2.0033626e-14
-0.00016552578
2.2066205e-05
4.3911107e-13
-0.00017092126
1.6543624e-05
8.3512128e-13
-0.0001743041
1.0421875e-05
1.1569095e-12
-0.00017552787
3.8130365e-06
1.4408707e-12
-0.00017449268
-3.1368299e-06
1.7421086e-12
-0.0001711545
-1.0247968e-05
2.0647442e-12
-0.00016553349
-1.7309929e-05
2.3469808e-12
-0.00015772068
-2.4088209e-05
2.4837513e-12
-0.00014788208
-3.0333199e-05
2.4248744e-12
-0.0001362596
-3.5792108e-05
2.2575511e-12
-0.0001231681
-4.0223114e-05
2.1715049e-12
-0.00010898799
-4.3411031e-05
2.2963454e-12
-9.4153195e-05
-4.518353e-05
2.544712e-12
-7.9134359e-05
-4.5426761e-05
2.6497637e-12
-6.4417677e-05
-4.4099178e-05
2.4353126e-12
-5.0480091e-05
-4.1242497e-05
2.0793789e-12
-3.776197e-05
-3.6989111e-05
2.0298857e-12
-2.6638736e-05
-3.1565863e-05
2.5276746e-12
-1.7393124e-05
-2.529496e-05
3.2202461e-12
-1.0189878e-05
-1.859393e-05
3.5958095e-12
-5.0547151e-06
-1.1977083e-05
3.7929526e-12
-1.8598493e-06
-6.057827e-06
3.036956e-12
-3.2225165e-07
-1.5554867e-06
1.098656e-13
6.4200886e-07
5.8272489e-12
-1.6931619e-06
3.525476e-06
-1.731943e-11
-6.3713734e-06
1.2332365e-05
9.442592e-12
-1.3671357e-05
2.1446161e-05
-5.5870704e-12
-2.3233877e-05
3.0011519e-05
-7.7247743e-12
-3.469495e-05
3.7552567e-05
-4.95553e-12
-4.7689401e-05
4.381836e-05
-4.3535925e-12
-6.1856963e-05
4.8712525e-05
-4.2154578e-12
-7.684736e-05
5.2234918e-05
-3.8479755e-12
-9.2323015e-05
5.4434259e-05
-3.4321326e-12
-0.00010795927
5.5375536e-05
-3.014762e-12
-0.00012344282
5.5120264e-05
-2.5821027e-12
-0.00013846941
5.3717025e-05
-2.1470714e-12
-0.00015274182
5.1199972e-05
-1.7246077e-12
-0.00016596902
4.7593085e-05
-1.3097532e-12
-0.00017786713
4.2918137e-05
-8.7788482e-13
-0.00018816237
3.7204598e-05
-4.0624746e-13
-0.00019659615
3.0499992e-05
1.0097021e-13
-0.00020293207
2.2879542e-05
6.0319233e-13
-0.00020696436
1.4454173e-05
1.0448747e-12
-0.00020852753
5.3762058e-06
1.3972855e-12
-0.00020750639
-4.1579718e-06
1.6861139e-12
-0.00020384602
-1.3908351e-05
1.9795901e-12
-0.0001975609
-2.3595059e-05
2.3132839e-12
-0.0001887425
-3.2906604e-05
2.6385136e-12
-0.00017756454
-4.151115e-05
2.832632e-12
-0.00016428504
-4.9071604e-05
2.8049943e-12
-0.00014924444
-5.5263729e-05
2.6180311e-12
-0.00013285898
-5.979651e-05
2.486608e-12
-0.00011560891
-6.243362e-05
2.6015467e-12
-9.8021139e-05
-6.3014524e-05
2.9131078e-12
-8.0646726e-05
-6.1473558e-05
3.1207533e-12
-6.403379e-05
-5.7855411e-05
2.9715433e-12
-4.8697173e-05
-5.2325746e-05
2.6040974e-12
-3.5086738e-05
-4.5176347e-05
2.462484e-12
-2.3556592e-05
-3.6825136e-05
2.7596214e-12
-1.433782e-05
-2.7812682e-05
3.4443928e-12
-7.5174472e-06
-1.8797417e-05
4.5646204e-12
-3.0267119e-06
-1.0548567e-05
3.4212271e-12
-6.4250229e-07
-3.939718e-06
-2.3460924e-12
-4.9663566e-10
8.1647148e-12
-2.1329219e-06
5.6584183e-06
-2.0041855e-11
-7.8910122e-06
1.8090443e-05
1.4324921e-11
-1.6717262e-05
3.0272416e-05
-4.7661991e-12
-2.8105491e-05
4.1399756e-05
-7.7369811e-12
-4.158471e-05
5.103179e-05
-4.4905494e-12
-5.6713608e-05
5.8947265e-05
-3.9226633e-12
-7.3077592e-05
6.5076516e-05
-3.9011255e-12
-9.0286236e-05
6.9443567e-05
-3.5807773e-12
-0.0001079703
7.2118329e-05
-3.2103086e-12
-0.00012577808
7.3183318e-05
-2.8475087e-12
-0.00014337139
7.2713579e-05
-2.4563508e-12
-0.00016042192
7.0767553e-05
-2.0351631e-12
-0.00017660855
6.7386609e-05
-1.6052663e-12
-0.00019161638
6.2600917e-05
-1.1881165e-12
-0.00020513765
5.6439411e-05
-7.8713814e-13
-0.0002168749
4.8941842e-05
-3.8297458e-13
-0.00022654615
4.0171239e-05
5.1801346e-14
-0.00023389204
3.0225429e-05
5.2339544e-13
-0.00023868446
1.9246602e-05
9.9654849e-13
-0.0002407364
7.4281459e-06
1.4065187e-12
-0.00023991239
-4.9819819e-06
1.7036841e-12
-0.00023613911
-1.7681632e-05
1.9107054e-12
-0.00022941566
-3.0318526e-05
2.0974921e-12
-0.00021982246
-4.249981e-05
2.3351422e-12
-0.00020752835
-5.3805255e-05
2.603269e-12
-0.00019279467
-6.3805274e-05
2.7733646e-12
-0.00017597542
-7.2082966e-05
2.7169734e-12
-0.00015751253
-7.8259417e-05
2.4652384e-12
-0.00013792519
-8.2020985e-05
2.2490376e-12
-0.00011779296
-8.3146778e-05
2.3162496e-12
-9.7732345e-05
-8.1534174e-05
2.659314e-12
-7.8367645e-05
-7.7220081e-05
2.9641791e-12
-6.0297498e-05
-7.0395867e-05
2.9324971e-12
-4.405927e-05
-6.1414587e-05
2.6292811e-12
-3.0094284e-05
-5.0790165e-05
2.4075039e-12
-1.8717192e-05
-3.9189796e-05
2.9316578e-12
-1.0093007e-05
-2.7421581e-05
4.8465365e-12
-4.2252851e-06
-1.6416272e-05
3.6829652e-12
-9.5848073e-07
-7.2065243e-06
-4.9129228e-12
-9.5899441e-07
1.0130595e-11
-2.5450322e-06
8.2034725e-06
-2.2803738e-11
-9.3287594e-06
2.4874155e-05
1.8657518e-11
-1.9615177e-05
4.055884e-05
-4.2116499e-12
-3.2756536e-05
5.4541123e-05
-7.9395555e-12
-4.8175424e-05
6.6450682e-05
-4.2560876e-12
-6.5353461e-05
7.6125306e-05
-3.7535615e-12
-8.3821332e-05
8.3544392e-05
-3.8699462e-12
-0.00010314963
8.8771872e-05
-3.6024439e-12
-0.00012294044
9.1909148e-05
-3.2681951e-12
-0.0001428196
9.3062475e-05
-2.9536157e-12
-0.00016242981
9.2323797e-05
-2.6167771e-12
-0.00018142518
8.9762927e-05
-2.2380921e-12
-0.00019946741
8.5428835e-05
-1.8201117e-12
-0.00021622407
7.9357587e-05
-1.3817432e-12
-0.00023136922
7.1584565e-05
-9.4930083e-13
-0.00024458615
6.2158777e-05
-5.3613113e-13
-0.00025557237
5.115745e-05
-1.2942918e-13
-0.00026404642
3.8699473e-05
3.0198184e-13
-0.00026975641
2.4956594e-05
7.7579191e-13
-0.00027248985
1.0161587e-05
1.2631206e-12
-0.00027208448
-5.3873479e-06
1.6890633e-12
-0.00026843959
-2.1326517e-05
1.9987459e-12
-0.00026152771
-3.7230409e-05
2.1779892e-12
-0.00025140548
-5.2622059e-05
2.3093847e-12
-0.00023822321
-6.6987538e-05
2.4959411e-12
-0.00022223202
-7.9796464e-05
2.748441e-12
-0.00020378718
-9.0527794e-05
2.9392538e-12
-0.00018334634
-9.8700247e-05
2.904695e-12
-0.0001614613
-0.00010390602
2.6394122e-12
-0.00013876235
-0.00010584576
2.3776316e-12
-0.00011593461
-0.00010436194
2.4070917e-12
-9.3686973e-05
-9.9467722e-05
2.7548297e-12
-7.2714992e-05
-9.1367822e-05
3.1062994e-12
-5.3660418e-05
-8.0469138e-05
3.0800526e-12
-3.707087e-05
-6.7379726e-05
2.6299609e-12
-2.3363834e-05
-5.2896867e-05
2.7653122e-12
-1.2799263e-05
-3.7986163e-05
5.0055945e-12
-5.4648514e-06
-2.3750669e-05
3.6092334e-12
-1.2772449e-06
-1.1394114e-05
-7.6922213e-12
-2.2362586e-06
1.2659428e-11
-2.9284532e-06
1.113195e-05
-2.549351e-11
-1.0673566e-05
3.2619246e-05
2.2516666e-11
-2.2335952e-05
5.2221233e-05
-3.8507497e-12
-3.7135607e-05
6.9340789e-05
-8.2400734e-12
-5.4393574e-05
8.3708653e-05
-4.1215921e-12
-7.3516907e-05
9.5248644e-05
-3.6733831e-12
-9.3983385e-05
0.00010401087
-3.9290975e-12
-0.00011532684
0.00011011534
-3.7205716e-12
-0.00013712386
0.00011370617
-3.4146436e-12
-0.00015898202
0.00011492064
-3.1260388e-12
-0.00018053009
0.00011387186
-2.8239908e-12
-0.00020141029
0.00011064313
-2.4907497e-12
-0.00022127302
0.00010529157
-2.1138922e-12
-0.00023977403
9.7858605e-05
-1.6885485e-12
-0.00025657411
8.838465e-05
-1.2304661e-12
-0.00027134111
7.6925777e-05
-7.698002e-13
-0.00028375417
6.3570515e-05
-3.3036314e-13
-0.00029350998
4.8455281e-05
9.3241437e-14
-0.00030033076
3.177737e-05
5.3422792e-13
-0.00030397392
1.380474e-05
1.0172344e-12
-0.00030424318
-5.118088e-06
1.5176589e-12
-0.00030100065
-2.4569041e-05
1.9885684e-12
-0.00029418029
-4.4050765e-05
2.3184782e-12
-0.00028380114
-6.3001208e-05
2.4847523e-12
-0.00026998025
-8.080845e-05
2.5704944e-12
-0.00025294369
-9.6833036e-05
2.7046566e-12
-0.00023303438
-0.00011043712
2.9326222e-12
-0.00021071456
-0.00012102005
3.1354685e-12
-0.00018656141
-0.00012805916
3.1229323e-12
-0.00016125376
-0.00013115341
2.8578734e-12
-0.0001355491
-0.00013006663
2.5727964e-12
-0.0001102508
-0.00012476606
2.5842903e-12
-8.6166867e-05
-0.00011545175
2.9380108e-12
-6.4063348e-05
-0.00010257263
3.2231365e-12
-4.4616398e-05
-8.6826659e-05
2.9293993e-12
-2.8368369e-05
-6.9144912e-05
2.9261384e-12
-1.5693077e-05
-5.0661481e-05
5.3528689e-12
-6.7751912e-06
-3.2668557e-05
3.4342296e-12
-1.6070238e-06
-1.656226e-05
-1.0708898e-11
-3.8432981e-06
1.528202e-11
-3.2816652e-06
1.4413645e-05
-2.8042193e-11
-1.1915749e-05
4.1253304e-05
2.5957903e-11
-2.4855261e-05
6.5160751e-05
-3.6383578e-12
-4.1199506e-05
8.5685046e-05
-8.6106702e-12
-6.0175713e-05
0.00010268487
-4.0530926e-12
-8.1121454e-05
0.00011619439
-3.6269969e-12
-0.0001034653
0.00012635473
-4.0031114e-12
-0.00012670767
0.00013335771
-3.8577169e-12
-0.00015040323
0.00013740173
-3.5880657e-12
-0.00017414551
0.00013866294
-3.3205923e-12
-0.00019755413
0.00013728048
-3.0325803e-12
-0.00022026469
0.0001333537
-2.7221163e-12
-0.00024192174
0.00012694861
-2.3845159e-12
-0.00026217439
0.00011811126
-2.0022522e-12
-0.00028067477
0.00010688503
-1.5639848e-12
-0.00029707881
9.3329821e-05
-1.0812774e-12
-0.00031104939
7.7541107e-05
-5.8714342e-13
-0.00032226154
5.9667432e-05
-1.1426763e-13
-0.00033040959
3.9925418e-05
3.32902e-13
-0.00033521638
1.8611523e-05
7.7459281e-13
-0.00033644458
-3.8898923e-06
1.2332457e-12
-0.00033390925
-2.710437e-05
1.7854568e-12
-0.00032749358
-5.0466434e-05
2.2860785e-12
-0.00031716461
-7.3330172e-05
2.6364682e-12
-0.00030299017
-9.498289e-05
2.7944377e-12
-0.00028515486
-0.00011466836
2.8342649e-12
-0.0002639734
-0.0001316186
2.9074462e-12
-0.00023989903
-0.00014509443
3.0926347e-12
-0.00021352444
-0.00015443374
3.2833998e-12
-0.00018557258
-0.00015910525
3.273086e-12
-0.00015687558
-0.00015876363
3.0061177e-12
-0.00012834083
-0.00015330083
2.7270811e-12
-0.00010090546
-0.00014288716
2.7697981e-12
-7.5482029e-05
-0.00012799607
3.0461957e-12
-5.290083e-05
-0.00010940784
2.9519911e-12
-3.385491e-05
-8.8190824e-05
3.1314017e-12
-1.8854678e-05
-6.5661731e-05
5.9494173e-12
-8.1982233e-06
-4.3325027e-05
3.35608e-12
-1.9611544e-06
-2.2799314e-05
-1.4003268e-11
-5.8044668e-06
1.7978765e-11
-3.602264e-06
1.8015942e-05
-3.0414084e-11
-1.3044738e-05
5.069575e-05
2.9008677e-11
-2.7149016e-05
7.9265033e-05
-3.5361712e-12
-4.4906724e-05
0.00010344277
-9.0431054e-12
-6.5460864e-05
0.00012323901
-4.0733551e-12
-8.8086382e-05
0.00013881991
-3.6427799e-12
-0.00011216774
0.00015043609
-4.1096757e-12
-0.00013717614
0.00015836611
-4.0199385e-12
-0.00016264838
0.00016287398
-3.7965476e-12
-0.00018816822
0.00016418279
-3.5646618e-12
-0.00021335074
0.000162463
-3.293648e-12
-0.00023782994
0.00015783291
-2.9892887e-12
-0.00026124966
0.00015036834
-2.6652309e-12
-0.00028325744
0.00014011905
-2.3163309e-12
-0.00030350132
0.0001271289
-1.9223175e-12
-0.00032162907
0.00011145757
-1.4663896e-12
-0.00033728978
9.3201824e-05
-9.5400291e-13
-0.00035013768
7.2515332e-05
-4.1874705e-13
-0.00035983807
4.9625816e-05
9.6370495e-14
-0.00036607572
2.4849172e-05
5.5640448e-13
-0.0003685663
-1.3993182e-06
9.4985487e-13
-0.00036706874
-2.8601933e-05
1.5073689e-12
-0.00036140386
-5.6131322e-05
2.0645569e-12
-0.00035147218
-8.3261845e-05
2.5827252e-12
-0.00033727556
-0.0001091795
2.9542909e-12
-0.0003189388
-0.00013300512
3.1065409e-12
-0.00029672982
-0.0001538276
3.1041842e-12
-0.00027107554
-0.00017074873
3.1152659e-12
-0.00024257011
-0.00018293918
3.2445865e-12
-0.00021197196
-0.00018970339
3.3965815e-12
-0.00018018648
-0.00019054909
3.36039e-12
-0.00014823241
-0.0001852549
3.0972791e-12
-0.00011719206
-0.00017392753
2.880557e-12
-8.8148437e-05
-0.00015703971
2.8817635e-12
-6.2115023e-05
-0.00013544125
2.7287219e-12
-3.9966254e-05
-0.00011033958
3.1550106e-12
-2.2377477e-05
-8.3250509e-05
6.6562613e-12
-9.7826348e-06
-5.591988e-05
3.4252251e-12
-2.3546852e-06
-3.0227252e-05
-1.7580483e-11
-8.1591708e-06
2.0943971e-11
-3.8870094e-06
2.1902986e-05
-3.2586433e-11
-1.4048518e-05
6.085723e-05
3.1661668e-11
-2.9191766e-05
9.4408286e-05
-3.5077814e-12
-4.8214798e-05
0.00012246581
-9.5050238e-12
-7.0187173e-05
0.0001452114
-4.177678e-12
-9.4329176e-05
0.00016296192
-3.7353113e-12
-0.00011998711
0.00017609402
-4.266106e-12
-0.00014660775
0.00018498677
-4.2125858e-12
-0.00017371433
0.00018998057
-4.02983e-12
-0.0002008851
0.00019135356
-3.8440139e-12
-0.00022773513
0.00018931304
-3.6087862e-12
-0.00025390167
0.00018399946
-3.3201736e-12
-0.0002790329
0.00017549957
-2.9970924e-12
-0.00030277988
0.00016386603
-2.6534302e-12
-0.00032479141
0.00014914044
-2.285991e-12
-0.0003447114
0.00013137755
-1.8741247e-12
-0.00036217855
0.00011066897
-1.3952954e-12
-0.00037682838
8.7165169e-05
-8.4880732e-13
-0.00038829765
6.1095083e-05
-2.6800446e-13
-0.00039623151
3.278304e-05
3.0705878e-13
-0.00040029365
2.6628252e-06
8.6466755e-13
-0.00040018121
-2.8714383e-05
1.3058248e-12
-0.00039564147
-6.0671071e-05
1.7996935e-12
-0.00038649488
-9.240844e-05
2.3498624e-12
-0.00037266028
-0.00012301411
2.8837807e-12
-0.00035418277
-0.00015148262
3.2682281e-12
-0.00033126176
-0.0001767486
3.4103844e-12
-0.00030427599
-0.00019773451
3.3661268e-12
-0.00027380135
-0.00021341384
3.313498e-12
-0.00024061688
-0.00022288788
3.3722722e-12
-0.00020569398
-0.00022547198
3.4550708e-12
-0.00017016538
-0.00022078348
3.3820892e-12
-0.00013527238
-0.00020882053
3.1705312e-12
-0.00010229273
-0.00019001938
2.9331982e-12
-7.2455522e-05
-0.00016527848
2.4951944e-12
-4.6853027e-05
-0.00013594208
3.003453e-12
-2.6361209e-05
-0.00010374232
7.340897e-12
-1.1580372e-05
-7.0700719e-05
3.5561647e-12
-2.8032985e-06
-3.9004309e-05
-2.1533567e-11
-1.0962495e-05
2.4362478e-11
-4.1320757e-06
2.6035098e-05
-3.4525223e-11
-1.4913951e-05
7.1639076e-05
3.3884066e-11
-3.0956837e-05
0.00011045118
-3.5363492e-12
-5.1080179e-05
0.00014258916
-9.9610121e-12
-7.4291595e-05
0.00016842282
-4.3401011e-12
-9.976523e-05
0.00018843557
-3.8956992e-12
-0.00012681557
0.00020314437
-4.478298e-12
-0.00015486997
0.00021304117
-4.4449333e-12
-0.00018344238
0.000218553
-4.2859401e-12
-0.00021210974
0.00022002092
-4.1383139e-12
-0.00024049149
0.0002176948
-3.9482798e-12
-0.0002682328
0.00021174078
-3.6972822e-12
-0.00029499123
0.00020225801
-3.3911474e-12
-0.00032042663
0.00018930143
-3.0452715e-12
-0.00034419387
0.00017290768
-2.6753185e-12
-0.00036593811
0.0001531218
-2.2821829e-12
-0.00038529235
0.00013002322
-1.8463723e-12
-0.00040187727
0.00010375009
-1.3412977e-12
-0.00041530368
7.4521492e-05
-7.584916e-13
-0.00042517802
4.2657377e-05
-1.1042641e-13
-0.00043111124
8.5960503e-06
5.688331e-13
-0.00043273354
-2.7092078e-05
1.0835262e-12
-0.00042971155
-6.3693061e-05
1.5830136e-12
-0.00042177367
-0.00010034633
2.0988813e-12
-0.00040873933
-0.00013604846
2.6532576e-12
-0.00039055313
-0.00016966882
3.1895916e-12
-0.00036732141
-0.00019998032
3.5692625e-12
-0.00033934788
-0.00022570804
3.6865387e-12
-0.00030716364
-0.00024559808
3.5920748e-12
-0.00027154532
-0.00025850622
3.4670027e-12
-0.00023351472
-0.0002635026
3.4347971e-12
-0.00019431391
-0.00025998429
3.4404699e-12
-0.00015535205
-0.00024778238
3.3771359e-12
-0.00011812461
-0.00022724682
3.1118575e-12
-8.4111365e-05
-0.00019929174
2.3960473e-12
-5.4665181e-05
-0.00016538827
2.8373607e-12
-3.0907169e-05
-0.00012750034
8.0249783e-12
-1.3644618e-05
-8.7963268e-05
3.6564117e-12
-3.3229711e-06
-4.932593e-05
-2.6049237e-11
-1.4285497e-05
2.8368093e-11
-4.3334139e-06
3.0368548e-05
-3.6178776e-11
-1.5627651e-05
8.2933281e-05
3.5642325e-11
-3.241762e-05
0.00012724115
-3.6225499e-12
-5.3459837e-05
0.00016363139
-1.0391622e-11
-7.771179e-05
0.00019267478
-4.5357917e-12
-0.00010431012
0.0002150339
-4.1022611e-12
-0.00013254381
0.00023137807
-4.736724e-12
-0.00016182562
0.00024232298
-4.7216281e-12
-0.00019166435
0.00024839174
-4.5752919e-12
-0.00022163952
0.00024999609
-4.448441e-12
-0.00025137906
0.00024743434
-4.2924112e-12
-0.00028054057
0.00024090229
-4.0858701e-12
-0.00030879599
0.00023051343
-3.8199964e-12
-0.00033581942
0.00021632487
-3.4935373e-12
-0.00036127771
0.00019836598
-3.1195592e-12
-0.0003848234
0.00017666749
-2.7164541e-12
-0.00040608994
0.00015128976
-2.2902827e-12
-0.00042468913
0.00012234928
-1.8247747e-12
-0.00044021117
9.0043536e-05
-1.2879791e-12
-0.00045222797
5.4674177e-05
-6.5477852e-13
-0.00046030038
1.6668457e-05
5.7117226e-14
-0.00046399096
-2.3401496e-05
7.2948397e-13
-0.00046288193
-6.4802088e-05
1.347667e-12
-0.00045660093
-0.00010662733
1.8990629e-12
-0.00044485372
-0.00014779568
2.4298499e-12
-0.00042746388
-0.00018705867
2.9802934e-12
-0.00040441811
-0.00022302609
3.4987368e-12
-0.00037591366
-0.00025421249
3.8449648e-12
-0.00034240281
-0.00027910893
3.9108564e-12
-0.00030462705
-0.00029628198
3.7461191e-12
-0.00026363202
-0.00030449764
3.5293419e-12
-0.00022075399
-0.00030286233
3.4085093e-12
-0.00017757071
-0.00029096566
3.3947486e-12
-0.0001358143
-0.00026900322
3.2101858e-12
-9.7251419e-05
-0.00023785462
2.3567657e-12
-6.3544504e-05
-0.0001990952
2.7537265e-12
-3.61145e-05
-0.00015493036
8.8322472e-12
-1.6028472e-05
-0.0001080493
3.7279474e-12
-3.9298124e-06
-6.1424555e-05
-3.1317121e-11
-1.8215344e-05
3.3055145e-11
-4.4871847e-06
3.4855771e-05
-3.7493146e-11
-1.6177187e-05
9.4623249e-05
3.6919843e-11
-3.3549621e-05
0.00014461359
-3.7671238e-12
-5.5314105e-05
0.00018539589
-1.0791828e-11
-8.0389726e-05
0.00021775041
-4.7537814e-12
-0.00010788396
0.00024252814
-4.3359212e-12
-0.0001370662
0.00026056032
-5.021596e-12
-0.00016733901
0.0002725958
-5.0317215e-12
-0.00019820974
0.00027926247
-4.9006511e-12
-0.00022926397
0.00028105033
-4.7852865e-12
-0.00026014186
0.00027831224
-4.6442581e-12
-0.00029051769
0.00027127813
-4.4662808e-12
-0.00032008271
0.00026007846
-4.2427948e-12
-0.00034853094
0.00024477311
-3.9581667e-12
-0.0003755476
0.00022538264
-3.6061708e-12
-0.00040079977
0.00020191967
-3.1980151e-12
-0.00042392913
0.00017441912
-2.7544451e-12
-0.00044454679
0.00014296694
-2.2872846e-12
-0.00046223069
0.00010772743
-1.7821775e-12
-0.00047652609
6.8969583e-05
-1.2008986e-12
-0.00048695037
2.7092725e-05
-5.175695e-13
-0.00049300316
-1.7348701e-05
2.3081215e-13
-0.0004941832
-6.3622041e-05
9.8344435e-13
-0.00049001345
-0.00011079708
1.666714e-12
-0.00048007546
-0.00015773368
2.258813e-12
-0.00046405348
-0.00020308065
2.801321e-12
-0.00044178769
-0.00024529189
3.3319792e-12
-0.00041333383
-0.00028266635
3.8007365e-12
-0.00037902419
-0.00031341856
4.072542e-12
-0.00033952175
-0.00033578443
4.0464259e-12
-0.00029585613
-0.00034816327
3.777585e-12
-0.00024942862
-0.00034928986
3.4740654e-12
-0.00020197401
-0.00033842028
3.3385547e-12
-0.00015547209
-0.00031550514
3.1474856e-12
-0.00011201104
-0.00028131566
2.2141374e-12
-7.3617129e-05
-0.00023748911
2.6915393e-12
-4.2076792e-05
-0.00018647071
9.845947e-12
-1.8783907e-05
-0.00013134219
3.8384745e-12
-4.6399855e-06
-7.5568439e-05
-3.7466426e-11
-2.2855367e-05
3.8520666e-11
-4.5902465e-06
3.9446057e-05
-3.8432853e-11
-1.6552563e-05
0.00010658553
3.7715516e-11
-3.4333092e-05
0.00016239413
-3.9587387e-12
-5.661047e-05
0.00020767328
-1.1158216e-11
-8.227659e-05
0.00024341653
-4.9947767e-12
-0.0001104174
0.00027066896
-4.5905264e-12
-0.00014028794
0.00029043087
-5.3180995e-12
-0.00017128435
0.00030359221
-5.3564727e-12
-0.00020291554
0.00031089367
-5.2485273e-12
-0.00023477617
0.00031291096
-5.1484569e-12
-0.0002665219
0.00031005798
-5.0136984e-12
-0.00029784763
0.00030260387
-4.8425826e-12
-0.00032846866
0.00029069949
-4.6393993e-12
-0.00035810467
0.00027440912
-4.3916151e-12
-0.00038646611
0.00025374409
-4.0802669e-12
-0.00041324265
0.00022869621
-3.6954809e-12
-0.00043809342
0.0001992699
-3.2458047e-12
-0.00046063923
0.00016551276
-2.7535862e-12
-0.00048045701
0.00012754521
-2.2351073e-12
-0.00049707715
8.5589722e-05
-1.6779154e-12
-0.00050998489
4.0000469e-05
-1.0455304e-12
-0.00051862711
-8.7064886e-06
-3.1284274e-13
-0.0005224261
-5.9823048e-05
4.9479563e-13
-0.00052080244
-0.00011242074
1.311313e-12
-0.00051320877
-0.00016532735
2.0513182e-12
-0.00049917617
-0.00021711326
2.6776542e-12
-0.00047837354
-0.00026609453
3.2169561e-12
-0.00045067876
-0.00031036115
3.6978836e-12
-0.0004162572
-0.00034784012
4.0703253e-12
-0.00037563931
-0.00037640232
4.2092692e-12
-0.00032978394
-0.00039401863
4.0340805e-12
-0.00028011071
-0.00039896309
3.6566371e-12
-0.00022848274
-0.00039004826
3.3524907e-12
-0.00017712539
-0.0003668625
3.0104777e-12
-0.00012847708
-0.00032996397
1.9016893e-12
-8.4985195e-05
-0.000280981
2.5283338e-12
-4.887841e-05
-0.00022257751
1.1040081e-11
-2.1960719e-05
-0.00015825989
4.0235372e-12
-5.4696506e-06
-9.2059464e-05
-4.4589338e-11
-2.8325062e-05
4.4891277e-11
-4.6406863e-06
4.4086786e-05
-3.898932e-11
-1.6747875e-05
0.00011869268
3.8032305e-11
-3.4756084e-05
0.00018040235
-4.1775448e-12
-5.7328093e-05
0.00023024531
-1.1480549e-11
-8.3338735e-05
0.00026942718
-5.2604471e-12
-0.00011185902
0.00029918925
-4.8701941e-12
-0.00014213388
0.00032070574
-5.6255831e-12
-0.00017355598
0.00033501432
-5.686068e-12
-0.00020563824
0.00034297593
-5.6013787e-12
-0.00023798675
0.00034525948
-5.5219314e-12
-0.00027027552
0.00034234676
-5.396731e-12
-0.00030222358
0.00033455194
-5.2228729e-12
-0.0003335748
0.00032205072
-5.0147135e-12
-0.00036408025
0.00030491458
-4.7743423e-12
-0.00039348271
0.00028314655
-4.489279e-12
-0.00042150307
0.00025671658
-4.1396406e-12
-0.00044782834
0.00022559518
-3.7119154e-12
-0.00047210122
0.00018978565
-3.211446e-12
-0.00049391152
0.00014935551
-2.6610559e-12
-0.00051279006
0.00010446827
-2.0796469e-12
-0.00052820607
5.541648e-05
-1.4588378e-12
-0.00053956941
2.6568463e-06
-7.6285412e-13
-0.00054623987
-5.3152588e-05
1.5831694e-14
-0.00054754548
-0.00011111513
8.7845899e-13
-0.00054281311
-0.00017005972
1.7488222e-12
-0.00053141397
-0.0002285124
2.5301895e-12
-0.00051282627
-0.00028468222
3.1682871e-12
-0.00048671568
-0.00033647175
3.6708149e-12
-0.00045303088
-0.00038152494
4.0514999e-12
-0.00041210677
-0.00041732643
4.2566605e-12
-0.00036476142
-0.00044136398
4.1824885e-12
-0.00031236565
-0.00045135886
3.8372135e-12
-0.00025685983
-0.00044555409
3.4423665e-12
-0.00020069302
-0.00042302932
2.8982866e-12
-0.00014667055
-0.00038398645
1.4715152e-12
-9.7717004e-05
-0.00032993454
2.2123118e-12
-5.6590091e-05
-0.00026370443
1.2353449e-11
-2.5605213e-05