/*--------------------------------*- C++ -*----------------------------------*\
  =========                 |
  \\      /  F ield         | OpenFOAM: The Open Source CFD Toolbox
   \\    /   O peration     | Website:  https://openfoam.org
    \\  /    A nd           | Version:  7
     \\/     M anipulation  |
\*---------------------------------------------------------------------------*/
FoamFile
{
    version     2.0;
    format      ascii;
    class       surfaceScalarField;
    location    "23";
    object      phi_0;
}
// * * * * * * * * * * * * * * * * * * * * * * * * * * * * * * * * * * * * * //

dimensions      [0 3 -1 0 0 0 0];

internalField   nonuniform List<scalar> 
45600
(
2.7489538e-07
-2.8250735e-07
-8.5676562e-11
4.0319355e-07
-1.2827174e-07
-2.7122639e-11
1.3248056e-07
2.7071963e-07
-7.8257696e-12
-5.6235228e-07
6.9483419e-07
-2.3611956e-12
-1.6393304e-06
1.0769745e-06
2.9396811e-12
-3.0276222e-06
1.3882847e-06
6.5209424e-12
-4.6524475e-06
1.6248157e-06
8.8518655e-12
-6.4450627e-06
1.792604e-06
1.0486376e-11
-8.3453718e-06
1.9002971e-06
1.1656121e-11
-1.0301373e-05
1.9559891e-06
1.2457458e-11
-1.2267315e-05
1.9659288e-06
1.2930331e-11
-1.4201477e-05
1.9341491e-06
1.308523e-11
-1.6064118e-05
1.8626279e-06
1.2930951e-11
-1.7815891e-05
1.7517603e-06
1.2486738e-11
-1.9416904e-05
1.6010015e-06
1.1770509e-11
-2.0826496e-05
1.4095822e-06
1.0778638e-11
-2.2003736e-05
1.1772308e-06
9.4797467e-12
-2.290859e-05
9.0484744e-07
7.8326038e-12
-2.3503685e-05
5.9508889e-07
5.8301619e-12
-2.3756518e-05
2.5282845e-07
3.5176467e-12
-2.3641961e-05
-1.1455875e-07
9.9534019e-13
-2.3144838e-05
-4.9712139e-07
-1.6271169e-12
-2.2262415e-05
-8.8241706e-07
-4.279787e-12
-2.1006473e-05
-1.255935e-06
-6.9262862e-12
-1.9404735e-05
-1.6017286e-06
-9.5215504e-12
-1.7501447e-05
-1.9032789e-06
-1.192832e-11
-1.5356881e-05
-2.1445537e-06
-1.3909744e-11
-1.3045687e-05
-2.311179e-06
-1.5206038e-11
-1.065405e-05
-2.391619e-06
-1.568454e-11
-8.275782e-06
-2.378249e-06
-1.5423349e-11
-6.0075501e-06
-2.2682165e-06
-1.461759e-11
-3.9435317e-06
-2.0640086e-06
-1.3346607e-11
-2.1697987e-06
-1.7737262e-06
-1.1418796e-11
-7.5855934e-07
-1.4112306e-06
-8.5209962e-12
2.3819298e-07
-9.9674018e-07
-4.7800415e-12
7.9653334e-07
-5.5832941e-07
-1.272876e-12
9.2926375e-07
-1.3273131e-07
1.9401361e-12
7.0557029e-07
2.2367961e-07
4.9770921e-12
2.9045826e-07
4.1508915e-07
8.0268336e-12
2.9044954e-07
1.2164791e-12
1.3275194e-07
-4.1523545e-07
-2.4536524e-11
-3.0181799e-07
3.0631188e-07
-1.5592471e-11
-1.6154967e-06
1.5844099e-06
-1.3462872e-11
-3.8747616e-06
2.9541113e-06
-1.405173e-11
-7.0073525e-06
4.2095788e-06
-1.5061597e-11
-1.0879717e-05
5.2606644e-06
-1.6473494e-11
-1.5335083e-05
6.0801995e-06
-1.7812997e-11
-2.0215872e-05
6.6734119e-06
-1.8793915e-11
-2.5373881e-05
7.0583249e-06
-1.9351875e-11
-3.0673044e-05
7.255171e-06
-1.9468517e-11
-3.5988262e-05
7.2811657e-06
-1.9144259e-11
-4.1202502e-05
7.1484078e-06
-1.8408655e-11
-4.6203599e-05
6.8637438e-06
-1.7306754e-11
-5.0881685e-05
6.4298632e-06
-1.5870639e-11
-5.512778e-05
5.8471108e-06
-1.4099471e-11
-5.8833836e-05
5.1156497e-06
-1.1964898e-11
-6.1894296e-05
4.2376997e-06
-9.4411953e-12
-6.4209086e-05
3.2196438e-06
-6.5542695e-12
-6.5687827e-05
2.0738349e-06
-3.3740199e-12
-6.6254938e-05
8.1994064e-07
-2.2297708e-14
-6.5855464e-05
-5.1403627e-07
3.4001096e-12
-6.4460311e-05
-1.8922836e-06
6.892545e-12
-6.207201e-05
-3.2707305e-06
1.0385419e-11
-5.872866e-05
-4.5992996e-06
1.3809467e-11
-5.4506693e-05
-5.8237117e-06
1.6984331e-11
-4.9521572e-05
-6.8884162e-06
1.9640086e-11
-4.3926118e-05
-7.7400282e-06
2.1542466e-11
-3.7906227e-05
-8.3310952e-06
2.2637605e-11
-3.1673976e-05
-8.6238988e-06
2.306593e-11
-2.5458285e-05
-8.5939656e-06
2.2983758e-11
-1.949354e-05
-8.232978e-06
2.2326403e-11
-1.4006685e-05
-7.5508749e-06
2.078196e-11
-9.2032833e-06
-6.5771399e-06
1.8105132e-11
-5.2529193e-06
-5.3616136e-06
1.4544894e-11
-2.2740153e-06
-3.9756659e-06
1.0886979e-11
-3.1731423e-07
-2.5150422e-06
7.7717255e-12
6.5702181e-07
-1.1070553e-06
4.8562142e-12
8.0365294e-07
7.7075895e-08
3.8810019e-12
4.1784665e-07
8.0092226e-07
4.6220915e-12
7.0828957e-07
-3.4828081e-12
-2.7364203e-07
-1.4158112e-07
-1.3538257e-11
-1.6275603e-06
1.6602367e-06
-8.3291943e-12
-4.2894607e-06
4.2463185e-06
-9.5287049e-12
-8.2746909e-06
6.9393483e-06
-7.9943351e-12
-1.3474375e-05
9.4092672e-06
-5.9226439e-12
-1.9708613e-05
1.1494906e-05
-4.75724e-12
-2.676557e-05
1.3137161e-05
-3.9757783e-12
-3.442636e-05
1.4334205e-05
-3.3279192e-12
-4.2478297e-05
1.5110264e-05
-2.8042133e-12
-5.0720038e-05
1.5496914e-05
-2.3645277e-12
-5.8961805e-05
1.5522935e-05
-1.9481992e-12
-6.7023125e-05
1.520973e-05
-1.5138052e-12
-7.4729897e-05
1.4570517e-05
-1.053857e-12
-8.191202e-05
1.3611988e-05
-5.9055382e-13
-8.8402393e-05
1.2337484e-05
-1.5557715e-13
-9.4037675e-05
1.0750932e-05
2.6782915e-13
-9.8660959e-05
8.8609835e-06
6.0620581e-13
-0.00010212624
6.6849189e-06
9.8174593e-13
-0.00010430436
4.2519551e-06
1.3773331e-12
-0.00010509014
1.6057216e-06
1.7565526e-12
-0.0001044098
-1.1943806e-06
2.0566827e-12
-0.00010222865
-4.0734357e-06
2.2205477e-12
-9.8557757e-05
-6.9416229e-06
2.2578504e-12
-9.3459301e-05
-9.6977599e-06
2.2654233e-12
-8.7049762e-05
-1.2233255e-05
2.3460036e-12
-7.9500445e-05
-1.4437736e-05
2.5037957e-12
-7.1034811e-05
-1.6205662e-05
2.6098045e-12
-6.1922338e-05
-1.7443569e-05
2.507082e-12
-5.2468843e-05
-1.8077397e-05
2.1961124e-12
-4.3003453e-05
-1.805936e-05
1.9148151e-12
-3.386267e-05
-1.7373766e-05
1.968023e-12
-2.5372138e-05
-1.6041408e-05
2.4074517e-12
-1.7826843e-05
-1.4122432e-05
2.8860544e-12
-1.1470397e-05
-1.1718055e-05
2.9445545e-12
-6.4738762e-06
-8.972189e-06
2.5419297e-12
-2.9140699e-06
-6.0748589e-06
2.1457773e-12
-7.5125945e-07
-3.2698789e-06
2.1862817e-12
1.9432609e-07
-8.685182e-07
3.505928e-12
2.6549366e-07
7.2976268e-07
5.8482724e-12
9.7377702e-07
7.3241277e-13
-7.4587369e-07
6.0430505e-07
-1.3578451e-11
-3.1796696e-06
4.0940332e-06
-2.2012277e-12
-7.3461143e-06
8.4127697e-06
-7.5779801e-12
-1.3163017e-05
1.2756257e-05
-6.8475001e-12
-2.0455709e-05
1.6701963e-05
-4.1660152e-12
-2.8992443e-05
2.0031641e-05
-2.7837345e-12
-3.851359e-05
2.265831e-05
-1.8484626e-12
-4.8752289e-05
2.4572905e-05
-9.9485307e-13
-5.9446491e-05
2.5804467e-05
-2.8731357e-13
-7.0344238e-05
2.6394662e-05
2.687881e-13
-8.120443e-05
2.6383126e-05
7.1018795e-13
-9.1795184e-05
2.5800484e-05
1.0769592e-12
-0.00010189152
2.4666855e-05
1.4035727e-12
-0.00011127366
2.2994122e-05
1.7031158e-12
-0.00011972674
2.0790563e-05
1.9570637e-12
-0.00012704251
1.8066699e-05
2.1265602e-12
-0.00013302301
1.4841488e-05
2.1836212e-12
-0.00013748624
1.1148146e-05
2.1329347e-12
-0.00014027333
7.0390409e-06
2.0136483e-12
-0.00014125688
2.5892665e-06
1.8709034e-12
-0.00014034963
-2.1016346e-06
1.7188955e-12
-0.00013751328
-6.9097801e-06
1.4735793e-12
-0.00013276598
-1.1688923e-05
1.0754664e-12
-0.00012618834
-1.62754e-05
5.3227399e-13
-0.00011792701
-2.0494589e-05
-3.7696389e-14
-0.00010819514
-2.4169613e-05
-4.6174435e-13
-9.7269205e-05
-2.7131594e-05
-6.5215203e-13
-8.5481853e-05
-2.9230918e-05
-7.0352585e-13
-7.3210497e-05
-3.0348749e-05
-8.1702772e-13
-6.0861917e-05
-3.0407938e-05
-1.0687652e-12
-4.8853197e-05
-2.9382487e-05
-1.2394448e-12
-3.7589731e-05
-2.7304876e-05
-9.4361355e-13
-2.7441212e-05
-2.4270951e-05
-2.5313402e-14
-1.8716641e-05
-2.044262e-05
1.1625231e-12
-1.1639442e-05
-1.604938e-05
1.9927829e-12
-6.3235781e-06
-1.1390718e-05
2.2282343e-12
-2.7515545e-06
-6.8419074e-06
2.4191636e-12
-7.5717207e-07
-2.8629099e-06
3.228946e-12
-9.5282656e-09
-1.7877707e-08
4.3808096e-12
9.6424473e-07
3.7811171e-12
-1.2279746e-06
1.8322939e-06
-1.4922519e-11
-4.7881068e-06
7.6541601e-06
3.9207083e-12
-1.05215e-05
1.4146168e-05
-6.6185536e-12
-1.8214224e-05
2.0448988e-05
-7.6585292e-12
-2.7603739e-05
2.6091483e-05
-5.2236222e-12
-3.8395992e-05
3.0823899e-05
-4.4665065e-12
-5.0282632e-05
3.4544954e-05
-4.1045953e-12
-6.2954235e-05
3.7244512e-05
-3.6091677e-12
-7.6108361e-05
3.8958596e-05
-3.105808e-12
-8.9452969e-05
3.9739273e-05
-2.6364629e-12
-0.00010270654
3.9636703e-05
-2.1956896e-12
-0.00011559648
3.8690426e-05
-1.7809189e-12
-0.00012785718
3.6927559e-05
-1.3765611e-12
-0.00013922894
3.4365879e-05
-9.5494714e-13
-0.0001494584
3.1020028e-05
-4.9838915e-13
-0.00015830106
2.6909358e-05
-2.0033626e-14
-0.00016552578
2.2066202e-05
4.3911107e-13
-0.00017092126
1.6543624e-05
8.3512128e-13
-0.00017430409
1.0421878e-05
1.1569095e-12
-0.00017552787
3.8130394e-06
1.4408707e-12
-0.00017449268
-3.1368289e-06
1.7421086e-12
-0.00017115449
-1.0247969e-05
2.0647442e-12
-0.00016553348
-1.7309931e-05
2.3469808e-12
-0.00015772068
-2.4088207e-05
2.4837513e-12
-0.00014788208
-3.033319e-05
2.4248744e-12
-0.0001362596
-3.5792097e-05
2.2575511e-12
-0.00012316809
-4.0223108e-05
2.1715049e-12
-0.00010898798
-4.3411034e-05
2.2963454e-12
-9.4153191e-05
-4.5183537e-05
2.544712e-12
-7.9134368e-05
-4.5426761e-05
2.6497637e-12
-6.4417692e-05
-4.4099163e-05
2.4353126e-12
-5.0480098e-05
-4.1242474e-05
2.0793789e-12
-3.776196e-05
-3.6989097e-05
2.0298857e-12
-2.6638717e-05
-3.156587e-05
2.5276746e-12
-1.7393119e-05
-2.5294977e-05
3.2202461e-12
-1.0189897e-05
-1.8593936e-05
3.5958096e-12
-5.0547353e-06
-1.1977067e-05
3.7929526e-12
-1.8598422e-06
-6.0578078e-06
3.036956e-12
-3.2223854e-07
-1.5554828e-06
1.098656e-13
6.4200505e-07
5.8272489e-12
-1.6931627e-06
3.5254734e-06
-1.731943e-11
-6.3713744e-06
1.2332362e-05
9.442592e-12
-1.3671358e-05
2.1446157e-05
-5.5870704e-12
-2.3233877e-05
3.0011515e-05
-7.7247743e-12
-3.4694951e-05
3.7552561e-05
-4.95553e-12
-4.7689402e-05
4.3818354e-05
-4.3535925e-12
-6.1856963e-05
4.871252e-05
-4.2154578e-12
-7.684736e-05
5.2234913e-05
-3.8479755e-12
-9.2323013e-05
5.4434253e-05
-3.4321326e-12
-0.00010795927
5.537553e-05
-3.014762e-12
-0.00012344282
5.5120258e-05
-2.5821027e-12
-0.00013846941
5.371702e-05
-2.1470714e-12
-0.00015274182
5.1199969e-05
-1.7246077e-12
-0.00016596902
4.7593083e-05
-1.3097532e-12
-0.00017786712
4.2918135e-05
-8.7788482e-13
-0.00018816236
3.7204595e-05
-4.0624746e-13
-0.00019659615
3.0499988e-05
1.0097021e-13
-0.00020293206
2.2879539e-05
6.0319233e-13
-0.00020696436
1.4454173e-05
1.0448747e-12
-0.00020852753
5.3762087e-06
1.3972855e-12
-0.00020750639
-4.1579671e-06
1.6861139e-12
-0.00020384601
-1.3908348e-05
1.9795901e-12
-0.00019756089
-2.3595059e-05
2.3132839e-12
-0.00018874249
-3.2906606e-05
2.6385136e-12
-0.00017756454
-4.1511149e-05
2.832632e-12
-0.00016428504
-4.9071596e-05
2.8049943e-12
-0.00014924444
-5.5263715e-05
2.6180311e-12
-0.00013285898
-5.9796499e-05
2.486608e-12
-0.0001156089
-6.243362e-05
2.6015467e-12
-9.8021131e-05
-6.3014532e-05
2.9131078e-12
-8.0646733e-05
-6.1473561e-05
3.1207533e-12
-6.4033806e-05
-5.7855399e-05
2.9715433e-12
-4.8697183e-05
-5.2325723e-05
2.6040974e-12
-3.508673e-05
-4.517633e-05
2.462484e-12
-2.3556575e-05
-3.6825138e-05
2.7596214e-12
-1.4337817e-05
-2.7812694e-05
3.4443928e-12
-7.5174643e-06
-1.8797418e-05
4.5646204e-12
-3.0267201e-06
-1.0548554e-05
3.4212271e-12
-6.4249528e-07
-3.9397069e-06
-2.3460924e-12
-4.9577353e-10
8.1647148e-12
-2.132922e-06
5.6584151e-06
-2.0041855e-11
-7.8910134e-06
1.8090439e-05
1.4324921e-11
-1.6717263e-05
3.0272411e-05
-4.7661991e-12
-2.8105492e-05
4.1399751e-05
-7.7369811e-12
-4.1584709e-05
5.1031784e-05
-4.4905494e-12
-5.6713608e-05
5.8947258e-05
-3.9226633e-12
-7.3077592e-05
6.5076509e-05
-3.9011255e-12
-9.0286235e-05
6.944356e-05
-3.5807773e-12
-0.0001079703
7.2118323e-05
-3.2103086e-12
-0.00012577808
7.3183312e-05
-2.8475087e-12
-0.00014337139
7.2713573e-05
-2.4563508e-12
-0.00016042191
7.0767547e-05
-2.0351631e-12
-0.00017660855
6.7386604e-05
-1.6052663e-12
-0.00019161637
6.2600913e-05
-1.1881165e-12
-0.00020513765
5.6439408e-05
-7.8713814e-13
-0.00021687489
4.8941841e-05
-3.8297458e-13
-0.00022654614
4.0171237e-05
5.1801346e-14
-0.00023389203
3.0225426e-05
5.2339544e-13
-0.00023868445
1.92466e-05
9.9654849e-13
-0.00024073639
7.4281457e-06
1.4065187e-12
-0.00023991238
-4.9819783e-06
1.7036841e-12
-0.00023613911
-1.7681626e-05
1.9107054e-12
-0.00022941565
-3.031852e-05
2.0974921e-12
-0.00021982245
-4.2499808e-05
2.3351422e-12
-0.00020752835
-5.3805257e-05
2.603269e-12
-0.00019279467
-6.3805274e-05
2.7733646e-12
-0.00017597543
-7.2082957e-05
2.7169734e-12
-0.00015751253
-7.8259401e-05
2.4652384e-12
-0.00013792519
-8.202097e-05
2.2490376e-12
-0.00011779295
-8.3146773e-05
2.3162496e-12
-9.7732335e-05
-8.153418e-05
2.659314e-12
-7.8367649e-05
-7.7220085e-05
2.9641791e-12
-6.0297513e-05
-7.0395858e-05
2.9324971e-12
-4.405928e-05
-6.1414566e-05
2.6292811e-12
-3.0094275e-05
-5.0790149e-05
2.4075039e-12
-1.8717178e-05
-3.9189796e-05
2.9316578e-12
-1.009301e-05
-2.7421587e-05
4.8465365e-12
-4.2252955e-06
-1.6416269e-05
3.6829652e-12
-9.5848307e-07
-7.2065146e-06
-4.9129228e-12
-9.589889e-07
1.0130595e-11
-2.5450318e-06
8.2034693e-06
-2.2803738e-11
-9.32876e-06
2.4874149e-05
1.8657518e-11
-1.9615178e-05
4.0558835e-05
-4.2116499e-12
-3.2756537e-05
5.4541118e-05
-7.9395555e-12
-4.8175423e-05
6.6450675e-05
-4.2560876e-12
-6.535346e-05
7.6125299e-05
-3.7535615e-12
-8.3821331e-05
8.3544384e-05
-3.8699462e-12
-0.00010314963
8.8771864e-05
-3.6024439e-12
-0.00012294044
9.190914e-05
-3.2681951e-12
-0.00014281959
9.3062468e-05
-2.9536157e-12
-0.00016242981
9.232379e-05
-2.6167771e-12
-0.00018142518
8.9762921e-05
-2.2380921e-12
-0.0001994674
8.5428828e-05
-1.8201117e-12
-0.00021622407
7.9357581e-05
-1.3817432e-12
-0.00023136922
7.1584561e-05
-9.4930083e-13
-0.00024458615
6.2158775e-05
-5.3613113e-13
-0.00025557236
5.115745e-05
-1.2942918e-13
-0.00026404641
3.8699473e-05
3.0198184e-13
-0.0002697564
2.4956592e-05
7.7579191e-13
-0.00027248984
1.0161585e-05
1.2631206e-12
-0.00027208447
-5.387348e-06
1.6890633e-12
-0.00026843959
-2.1326513e-05
1.9987459e-12
-0.00026152771
-3.7230401e-05
2.1779892e-12
-0.00025140547
-5.2622051e-05
2.3093847e-12
-0.0002382232
-6.6987534e-05
2.4959411e-12
-0.00022223201
-7.9796464e-05
2.748441e-12
-0.00020378718
-9.0527793e-05
2.9392538e-12
-0.00018334634
-9.8700239e-05
2.904695e-12
-0.00016146131
-0.00010390601
2.6394122e-12
-0.00013876235
-0.00010584574
2.3776316e-12
-0.0001159346
-0.00010436193
2.4070917e-12
-9.3686963e-05
-9.9467726e-05
2.7548297e-12
-7.2714996e-05
-9.1367825e-05
3.1062994e-12
-5.3660432e-05
-8.0469129e-05
3.0800526e-12
-3.7070877e-05
-6.7379707e-05
2.6299609e-12
-2.3363825e-05
-5.2896854e-05
2.7653122e-12
-1.2799255e-05
-3.7986163e-05
5.0055945e-12
-5.4648547e-06
-2.375067e-05
3.6092334e-12
-1.2772503e-06
-1.1394109e-05
-7.6922213e-12
-2.2362531e-06
1.2659428e-11
-2.928453e-06
1.1131948e-05
-2.549351e-11
-1.0673566e-05
3.2619241e-05
2.2516666e-11
-2.2335953e-05
5.2221227e-05
-3.8507497e-12
-3.7135608e-05
6.9340782e-05
-8.2400734e-12
-5.4393574e-05
8.3708646e-05
-4.1215921e-12
-7.3516906e-05
9.5248636e-05
-3.6733831e-12
-9.3983383e-05
0.00010401087
-3.9290975e-12
-0.00011532684
0.00011011533
-3.7205716e-12
-0.00013712386
0.00011370616
-3.4146436e-12
-0.00015898202
0.00011492064
-3.1260388e-12
-0.00018053008
0.00011387186
-2.8239908e-12
-0.00020141028
0.00011064312
-2.4907497e-12
-0.00022127301
0.00010529156
-2.1138922e-12
-0.00023977402
9.7858599e-05
-1.6885485e-12
-0.00025657411
8.8384645e-05
-1.2304661e-12
-0.0002713411
7.6925773e-05
-7.698002e-13
-0.00028375416
6.3570514e-05
-3.3036314e-13
-0.00029350997
4.8455282e-05
9.3241437e-14
-0.00030033075
3.1777371e-05
5.3422792e-13
-0.00030397391
1.380474e-05
1.0172344e-12
-0.00030424317
-5.118089e-06
1.5176589e-12
-0.00030100064
-2.456904e-05
1.9885684e-12
-0.00029418029
-4.4050761e-05
2.3184782e-12
-0.00028380114
-6.3001198e-05
2.4847523e-12
-0.00026998024
-8.0808438e-05
2.5704944e-12
-0.00025294368
-9.6833028e-05
2.7046566e-12
-0.00023303437
-0.00011043712
2.9326222e-12
-0.00021071456
-0.00012102005
3.1354685e-12
-0.00018656142
-0.00012805915
3.1229323e-12
-0.00016125377
-0.00013115339
2.8578734e-12
-0.0001355491
-0.00013006661
2.5727964e-12
-0.00011025078
-0.00012476605
2.5842903e-12
-8.6166858e-05
-0.00011545176
2.9380108e-12
-6.4063352e-05
-0.00010257264
3.2231365e-12
-4.461641e-05
-8.682665e-05
2.9293994e-12
-2.8368372e-05
-6.9144897e-05
2.9261384e-12
-1.5693071e-05
-5.0661471e-05
5.3528689e-12
-6.775188e-06
-3.2668556e-05
3.4342296e-12
-1.6070262e-06
-1.6562258e-05
-1.0708898e-11
-3.8432951e-06
1.528202e-11
-3.2816658e-06
1.4413642e-05
-2.8042193e-11
-1.1915749e-05
4.1253299e-05
2.5957903e-11
-2.4855261e-05
6.5160744e-05
-3.6383578e-12
-4.1199506e-05
8.5685038e-05
-8.6106702e-12
-6.0175714e-05
0.00010268486
-4.0530926e-12
-8.1121453e-05
0.00011619438
-3.6269969e-12
-0.0001034653
0.00012635472
-4.0031114e-12
-0.00012670767
0.0001333577
-3.8577169e-12
-0.00015040322
0.00013740172
-3.5880657e-12
-0.00017414551
0.00013866293
-3.3205923e-12
-0.00019755412
0.00013728048
-3.0325803e-12
-0.00022026469
0.00013335369
-2.7221163e-12
-0.00024192173
0.00012694861
-2.3845159e-12
-0.00026217438
0.00011811125
-2.0022522e-12
-0.00028067476
0.00010688502
-1.5639848e-12
-0.0002970788
9.3329816e-05
-1.0812774e-12
-0.00031104939
7.7541103e-05
-5.8714342e-13
-0.00032226153
5.9667431e-05
-1.1426763e-13
-0.00033040958
3.992542e-05
3.32902e-13
-0.00033521637
1.8611526e-05
7.7459281e-13
-0.00033644457
-3.8898903e-06
1.2332457e-12
-0.00033390924
-2.710437e-05
1.7854568e-12
-0.00032749357
-5.0466433e-05
2.2860785e-12
-0.00031716461
-7.3330167e-05
2.6364682e-12
-0.00030299017
-9.4982879e-05
2.7944377e-12
-0.00028515486
-0.00011466835
2.8342649e-12
-0.00026397339
-0.00013161859
2.9074462e-12
-0.00023989902
-0.00014509442
3.0926347e-12
-0.00021352443
-0.00015443374
3.2833998e-12
-0.00018557259
-0.00015910524
3.273086e-12
-0.00015687558
-0.00015876361
3.0061177e-12
-0.00012834083
-0.00015330081
2.7270811e-12
-0.00010090545
-0.00014288715
2.7697981e-12
-7.5482022e-05
-0.00012799607
3.0461957e-12
-5.2900835e-05
-0.00010940784
2.9519911e-12
-3.3854919e-05
-8.8190815e-05
3.1314017e-12
-1.8854679e-05
-6.5661718e-05
5.9494173e-12
-8.1982197e-06
-4.3325019e-05
3.35608e-12
-1.961153e-06
-2.2799311e-05
-1.4003268e-11
-5.8044657e-06
1.7978765e-11
-3.6022652e-06
1.8015939e-05
-3.0414084e-11
-1.3044739e-05
5.0695745e-05
2.9008677e-11
-2.7149016e-05
7.9265026e-05
-3.5361712e-12
-4.4906724e-05
0.00010344276
-9.0431054e-12
-6.5460864e-05
0.00012323901
-4.0733551e-12
-8.8086381e-05
0.0001388199
-3.6427799e-12
-0.00011216773
0.00015043608
-4.1096757e-12
-0.00013717613
0.00015836611
-4.0199385e-12
-0.00016264838
0.00016287397
-3.7965476e-12
-0.00018816822
0.00016418278
-3.5646618e-12
-0.00021335073
0.000162463
-3.293648e-12
-0.00023782994
0.0001578329
-2.9892887e-12
-0.00026124966
0.00015036833
-2.6652309e-12
-0.00028325744
0.00014011904
-2.3163309e-12
-0.00030350131
0.0001271289
-1.9223175e-12
-0.00032162906
0.00011145756
-1.4663896e-12
-0.00033728977
9.320182e-05
-9.5400291e-13
-0.00035013767
7.2515329e-05
-4.1874705e-13
-0.00035983806
4.9625815e-05
9.6370495e-14
-0.00036607571
2.4849175e-05
5.5640448e-13
-0.00036856629
-1.3993132e-06
9.4985487e-13
-0.00036706873
-2.8601929e-05
1.5073689e-12
-0.00036140385
-5.613132e-05
2.0645569e-12
-0.00035147218
-8.3261843e-05
2.5827252e-12
-0.00033727556
-0.0001091795
2.9542909e-12
-0.0003189388
-0.00013300511
3.1065409e-12
-0.00029672982
-0.00015382758
3.1041842e-12
-0.00027107553
-0.00017074872
3.1152659e-12
-0.00024257009
-0.00018293918
3.2445865e-12
-0.00021197195
-0.00018970339
3.3965815e-12
-0.00018018649
-0.00019054908
3.36039e-12
-0.00014823241
-0.00018525488
3.0972791e-12
-0.00011719205
-0.00017392751
2.880557e-12
-8.8148428e-05
-0.0001570397
2.8817635e-12
-6.2115019e-05
-0.00013544125
2.7287219e-12
-3.9966258e-05
-0.00011033958
3.1550106e-12
-2.2377482e-05
-8.3250501e-05
6.6562613e-12
-9.7826351e-06
-5.5919871e-05
3.4252251e-12
-2.3546831e-06
-3.0227246e-05
-1.7580483e-11
-8.1591693e-06
2.0943971e-11
-3.8870103e-06
2.1902983e-05
-3.2586433e-11
-1.4048519e-05
6.0857224e-05
3.1661668e-11
-2.9191766e-05
9.4408279e-05
-3.5077814e-12
-4.8214797e-05
0.0001224658
-9.5050238e-12
-7.0187172e-05
0.00014521139
-4.177678e-12
-9.4329175e-05
0.00016296191
-3.7353113e-12
-0.0001199871
0.00017609401
-4.266106e-12
-0.00014660775
0.00018498675
-4.2125858e-12
-0.00017371433
0.00018998056
-4.02983e-12
-0.00020088509
0.00019135355
-3.8440139e-12
-0.00022773512
0.00018931303
-3.6087861e-12
-0.00025390167
0.00018399945
-3.3201736e-12
-0.00027903289
0.00017549956
-2.9970924e-12
-0.00030277987
0.00016386603
-2.6534302e-12
-0.0003247914
0.00014914043
-2.285991e-12
-0.00034471139
0.00013137755
-1.8741247e-12
-0.00036217854
0.00011066897
-1.3952954e-12
-0.00037682837
8.7165166e-05
-8.4880732e-13
-0.00038829764
6.1095081e-05
-2.6800446e-13
-0.0003962315
3.278304e-05
3.0705878e-13
-0.00040029364
2.6628296e-06
8.6466755e-13
-0.0004001812
-2.8714376e-05
1.3058248e-12
-0.00039564146
-6.0671065e-05
1.7996935e-12
-0.00038649487
-9.2408436e-05
2.3498624e-12
-0.00037266027
-0.0001230141
2.8837807e-12
-0.00035418276
-0.00015148262
3.2682281e-12
-0.00033126176
-0.00017674859
3.4103844e-12
-0.00030427599
-0.0001977345
3.3661268e-12
-0.00027380135
-0.00021341383
3.313498e-12
-0.00024061687
-0.00022288787
3.3722722e-12
-0.00020569398
-0.00022547198
3.4550708e-12
-0.00017016539
-0.00022078348
3.3820892e-12
-0.00013527239
-0.00020882051
3.1705312e-12
-0.00010229273
-0.00019001936
2.9331982e-12
-7.2455516e-05
-0.00016527847
2.4951944e-12
-4.6853025e-05
-0.00013594207
3.003453e-12
-2.6361212e-05
-0.00010374232
7.340897e-12
-1.1580375e-05
-7.0700712e-05
3.5561647e-12
-2.8032984e-06
-3.9004303e-05
-2.1533567e-11
-1.0962492e-05
2.4362478e-11
-4.1320758e-06
2.6035094e-05
-3.4525223e-11
-1.4913952e-05
7.163907e-05
3.3884066e-11
-3.0956837e-05
0.00011045117
-3.5363492e-12
-5.1080179e-05
0.00014258915
-9.9610121e-12
-7.4291593e-05
0.00016842281
-4.3401011e-12
-9.9765228e-05
0.00018843555
-3.8956992e-12
-0.00012681557
0.00020314436
-4.478298e-12
-0.00015486996
0.00021304115
-4.4449333e-12
-0.00018344238
0.00021855298
-4.2859401e-12
-0.00021210973
0.00022002091
-4.1383139e-12
-0.00024049148
0.00021769479
-3.9482798e-12
-0.00026823279
0.00021174077
-3.6972822e-12
-0.00029499122
0.000202258
-3.3911474e-12
-0.00032042662
0.00018930143
-3.0452715e-12
-0.00034419386
0.00017290768
-2.6753185e-12
-0.0003659381
0.00015312179
-2.2821829e-12
-0.00038529234
0.00013002322
-1.8463723e-12
-0.00040187726
0.00010375009
-1.3412977e-12
-0.00041530367
7.4521491e-05
-7.584916e-13
-0.00042517801
4.2657376e-05
-1.1042641e-13
-0.00043111123
8.5960518e-06
5.688331e-13
-0.00043273353
-2.7092073e-05
1.0835262e-12
-0.00042971155
-6.3693053e-05
1.5830136e-12
-0.00042177366
-0.00010034633
2.0988813e-12
-0.00040873932
-0.00013604845
2.6532576e-12
-0.00039055312
-0.00016966882
3.1895916e-12
-0.0003673214
-0.00019998031
3.5692625e-12
-0.00033934788
-0.00022570803
3.6865387e-12
-0.00030716364
-0.00024559807
3.5920748e-12
-0.00027154531
-0.0002585062
3.4670027e-12
-0.00023351471
-0.00026350259
3.4347971e-12
-0.0001943139
-0.00025998429
3.4404699e-12
-0.00015535205
-0.00024778237
3.3771359e-12
-0.00011812461
-0.0002272468
3.1118575e-12
-8.4111363e-05
-0.00019929172
2.3960473e-12
-5.4665177e-05
-0.00016538826
2.8373607e-12
-3.0907168e-05
-0.00012750034
8.0249783e-12
-1.364462e-05
-8.7963264e-05
3.6564117e-12
-3.3229727e-06
-4.9325925e-05
-2.6049237e-11
-1.4285494e-05
2.8368093e-11
-4.3334135e-06
3.0368545e-05
-3.6178776e-11
-1.5627651e-05
8.2933275e-05
3.5642325e-11
-3.241762e-05
0.00012724114
-3.6225499e-12
-5.3459837e-05
0.00016363138
-1.0391622e-11
-7.7711789e-05
0.00019267477
-4.5357917e-12
-0.00010431012
0.00021503389
-4.1022611e-12
-0.00013254381
0.00023137806
-4.736724e-12
-0.00016182561
0.00024232296
-4.7216281e-12
-0.00019166435
0.00024839172
-4.5752919e-12
-0.00022163951
0.00024999608
-4.448441e-12
-0.00025137905
0.00024743433
-4.2924112e-12
-0.00028054056
0.00024090228
-4.0858701e-12
-0.00030879598
0.00023051342
-3.8199964e-12
-0.00033581942
0.00021632487
-3.4935373e-12
-0.0003612777
0.00019836597
-3.1195592e-12
-0.00038482339
0.00017666749
-2.7164541e-12
-0.00040608993
0.00015128976
-2.2902827e-12
-0.00042468912
0.00012234928
-1.8247747e-12
-0.00044021116
9.0043537e-05
-1.2879791e-12
-0.00045222796
5.4674177e-05
-6.5477852e-13
-0.00046030037
1.6668457e-05
5.7117226e-14
-0.00046399095
-2.3401493e-05
7.2948397e-13
-0.00046288192
-6.4802081e-05
1.347667e-12
-0.00045660093
-0.00010662732
1.8990629e-12
-0.00044485371
-0.00014779567
2.4298499e-12
-0.00042746387
-0.00018705866
2.9802933e-12
-0.0004044181
-0.00022302608
3.4987368e-12
-0.00037591366
-0.00025421248
3.8449648e-12
-0.00034240281
-0.00027910892
3.9108564e-12
-0.00030462705
-0.00029628197
3.7461191e-12
-0.00026363202
-0.00030449763
3.5293419e-12
-0.00022075399
-0.00030286232
3.4085093e-12
-0.00017757071
-0.00029096565
3.3947486e-12
-0.0001358143
-0.00026900321
3.2101858e-12
-9.7251421e-05
-0.0002378546
2.3567657e-12
-6.3544503e-05
-0.00019909519
2.7537265e-12
-3.6114498e-05
-0.00015493035
8.8322472e-12
-1.6028471e-05
-0.00010804929
3.7279474e-12
-3.9298136e-06
-6.1424552e-05
-3.1317121e-11
-1.8215342e-05
3.3055145e-11
-4.4871846e-06
3.4855769e-05
-3.7493146e-11
-1.6177187e-05
9.4623243e-05
3.6919843e-11
-3.3549622e-05
0.00014461359
-3.7671238e-12
-5.5314105e-05
0.00018539588
-1.0791828e-11
-8.0389725e-05
0.00021775039
-4.7537814e-12
-0.00010788396
0.00024252813
-4.3359212e-12
-0.0001370662
0.00026056031
-5.021596e-12
-0.00016733901
0.00027259579
-5.0317215e-12
-0.00019820974
0.00027926246
-4.9006511e-12
-0.00022926396
0.00028105031
-4.7852865e-12
-0.00026014185
0.00027831223
-4.6442581e-12
-0.00029051768
0.00027127812
-4.4662808e-12
-0.0003200827
0.00026007845
-4.2427948e-12
-0.00034853093
0.0002447731
-3.9581667e-12
-0.00037554759
0.00022538263
-3.6061708e-12
-0.00040079976
0.00020191967
-3.1980151e-12
-0.00042392912
0.00017441912
-2.7544451e-12
-0.00044454678
0.00014296694
-2.2872846e-12
-0.00046223068
0.00010772743
-1.7821775e-12
-0.00047652608
6.8969586e-05
-1.2008986e-12
-0.00048695035
2.7092727e-05
-5.175695e-13
-0.00049300315
-1.7348699e-05
2.3081215e-13
-0.00049418319
-6.3622037e-05
9.8344435e-13
-0.00049001345
-0.00011079707
1.666714e-12
-0.00048007545
-0.00015773367
2.258813e-12
-0.00046405347
-0.00020308064
2.801321e-12
-0.00044178768
-0.00024529188
3.3319792e-12
-0.00041333382
-0.00028266635
3.8007365e-12
-0.00037902419
-0.00031341856
4.072542e-12
-0.00033952175
-0.00033578441
4.0464259e-12
-0.00029585612
-0.00034816325
3.777585e-12
-0.00024942861
-0.00034928984
3.4740654e-12
-0.000201974
-0.00033842027
3.3385547e-12
-0.00015547209
-0.00031550513
3.1474856e-12
-0.00011201104
-0.00028131565
2.2141374e-12
-7.3617131e-05
-0.0002374891
2.6915393e-12
-4.2076791e-05
-0.0001864707
9.845947e-12
-1.8783906e-05
-0.00013134218
3.8384745e-12
-4.6399854e-06
-7.5568435e-05
-3.7466426e-11
-2.2855366e-05
3.8520666e-11
-4.590247e-06
3.9446056e-05
-3.8432853e-11
-1.6552563e-05
0.00010658552
3.7715516e-11
-3.4333092e-05
0.00016239412
-3.9587387e-12
-5.661047e-05
0.00020767327
-1.1158216e-11
-8.227659e-05
0.00024341652
-4.9947767e-12
-0.0001104174
0.00027066895
-4.5905264e-12
-0.00014028794
0.00029043086
-5.3180995e-12
-0.00017128434
0.0003035922
-5.3564727e-12
-0.00020291554
0.00031089365
-5.2485273e-12
-0.00023477616
0.00031291095
-5.1484569e-12
-0.0002665219
0.00031005797
-5.0136984e-12
-0.00029784763
0.00030260386
-4.8425826e-12
-0.00032846865
0.00029069948
-4.6393993e-12
-0.00035810466
0.00027440911
-4.3916151e-12
-0.0003864661
0.00025374408
-4.0802669e-12
-0.00041324264
0.00022869621
-3.6954809e-12
-0.00043809341
0.00019926989
-3.2458047e-12
-0.00046063923
0.00016551276
-2.7535862e-12
-0.000480457
0.00012754521
-2.2351073e-12
-0.00049707714
8.5589725e-05
-1.6779154e-12
-0.00050998489
4.0000474e-05
-1.0455304e-12
-0.0005186271
-8.7064845e-06
-3.1284274e-13
-0.00052242609
-5.9823045e-05
4.9479563e-13
-0.00052080243
-0.00011242074
1.311313e-12
-0.00051320876
-0.00016532734
2.0513182e-12
-0.00049917617
-0.00021711324
2.6776542e-12
-0.00047837353
-0.00026609451
3.2169561e-12
-0.00045067875
-0.00031036114
3.6978836e-12
-0.0004162572
-0.00034784011
4.0703253e-12
-0.0003756393
-0.00037640231
4.2092692e-12
-0.00032978394
-0.00039401862
4.0340805e-12
-0.00028011071
-0.00039896307
3.6566371e-12
-0.00022848274
-0.00039004824
3.3524907e-12
-0.00017712538
-0.00036686249
3.0104777e-12
-0.00012847708
-0.00032996396
1.9016893e-12
-8.4985196e-05
-0.00028098099
2.5283338e-12
-4.8878411e-05
-0.0002225775
1.1040081e-11
-2.1960718e-05
-0.00015825988
4.0235372e-12
-5.4696501e-06
-9.205946e-05
-4.4589338e-11
-2.8325061e-05
4.4891277e-11
-4.6406873e-06
4.4086784e-05
-3.898932e-11
-1.6747875e-05
0.00011869268
3.8032305e-11
-3.4756084e-05
0.00018040234
-4.1775448e-12
-5.7328092e-05
0.00023024529
-1.1480549e-11
-8.3338734e-05
0.00026942717
-5.2604471e-12
-0.00011185902
0.00029918924
-4.8701941e-12
-0.00014213388
0.00032070572
-5.6255831e-12
-0.00017355598
0.00033501431
-5.686068e-12
-0.00020563823
0.00034297591
-5.6013787e-12
-0.00023798674
0.00034525947
-5.5219314e-12
-0.00027027551
0.00034234675
-5.396731e-12
-0.00030222357
0.00033455193
-5.2228729e-12
-0.0003335748
0.00032205072
-5.0147135e-12
-0.00036408024
0.00030491457
-4.7743423e-12
-0.0003934827
0.00028314654
-4.489279e-12
-0.00042150306
0.00025671657
-4.1396406e-12
-0.00044782834
0.00022559517
-3.7119154e-12
-0.00047210122
0.00018978564
-3.211446e-12
-0.00049391151
0.00014935551
-2.6610559e-12
-0.00051279006
0.00010446827
-2.0796469e-12
-0.00052820606
5.5416485e-05
-1.4588378e-12
-0.0005395694
2.6568523e-06
-7.6285412e-13
-0.00054623986
-5.3152582e-05
1.5831694e-14
-0.00054754548
-0.00011111513
8.7845899e-13
-0.00054281311
-0.00017005971
1.7488222e-12
-0.00053141396
-0.00022851239
2.5301895e-12
-0.00051282627
-0.00028468221
3.1682871e-12
-0.00048671568
-0.00033647173
3.6708149e-12
-0.00045303087
-0.00038152493
4.0514999e-12
-0.00041210676
-0.00041732642
4.2566605e-12
-0.00036476142
-0.00044136397
4.1824885e-12
-0.00031236565
-0.00045135884
3.8372135e-12
-0.00025685982
-0.00044555407
3.4423665e-12
-0.00020069302
-0.0004230293
2.8982866e-12
-0.00014667054
-0.00038398644
1.4715152e-12
-9.7717003e-05
-0.00032993453
2.2123118e-12
-5.6590091e-05
-0.00026370443
1.2353449e-11
-2.5605214e-05