/*--------------------------------*- C++ -*----------------------------------*\
  =========                 |
  \\      /  F ield         | OpenFOAM: The Open Source CFD Toolbox
   \\    /   O peration     | Website:  https://openfoam.org
    \\  /    A nd           | Version:  7
     \\/     M anipulation  |
\*---------------------------------------------------------------------------*/
FoamFile
{
    version     2.0;
    format      ascii;
    class       volVectorField;
    location    "23";
    object      U;
}
// * * * * * * * * * * * * * * * * * * * * * * * * * * * * * * * * * * * * * //

dimensions      [0 1 -1 0 0 0 0];

internalField   nonuniform List<vector> 
16000
(
(6.5993936e-05 -6.7381784e-05 -4.3497511e-07)
(0.00016267862 -5.638232e-05 5.662139e-06)
(0.00014188714 4.5181103e-07 1.9161412e-05)
(-5.0635108e-05 6.1885491e-05 3.6583715e-05)
(-0.00040997973 0.00011562823 5.4692074e-05)
(-0.00090902651 0.00015774178 7.1520318e-05)
(-0.0015177057 0.00018850277 8.5732363e-05)
(-0.0022068741 0.00020960703 9.6513009e-05)
(-0.002950583 0.00022287486 0.00010340188)
(-0.0037264397 0.00022980944 0.00010615205)
(-0.0045150182 0.00023147554 0.00010463632)
(-0.0052989736 0.0002285022 9.8791699e-05)
(-0.0060621466 0.00022114535 8.8593515e-05)
(-0.0067888114 0.00020938097 7.4052275e-05)
(-0.0074631579 0.00019301205 5.5226681e-05)
(-0.0080690543 0.00017177962 3.2246959e-05)
(-0.0085901026 0.00014547118 5.3430639e-06)
(-0.009009979 0.0001140214 -2.5127051e-05)
(-0.0093130291 7.7600541e-05 -5.8653471e-05)
(-0.0094850746 3.6686493e-05 -9.4558546e-05)
(-0.0095143757 -7.886516e-06 -0.00013199269)
(-0.00939266 -5.4922684e-05 -0.00016994476)
(-0.0091161577 -0.00010284084 -0.00020726831)
(-0.00868654 -0.00014974676 -0.00024272542)
(-0.0081116345 -0.00019351071 -0.00027504625)
(-0.0074058451 -0.00023188605 -0.00030300199)
(-0.0065901794 -0.00026266014 -0.00032548643)
(-0.0056918232 -0.00028382401 -0.00034159979)
(-0.0047432385 -0.00029374281 -0.00035072772)
(-0.0037808021 -0.00029130684 -0.00035260841)
(-0.0028430521 -0.00027604532 -0.00034738127)
(-0.0019686463 -0.00024819129 -0.00033561298)
(-0.001194146 -0.00020870041 -0.00031829951)
(-0.0005516759 -0.00015926005 -0.00029684639)
(-6.6519248e-05 -0.00010240071 -0.0002730232)
(0.0002449121 -4.1749219e-05 -0.00024888671)
(0.00037894008 1.7846128e-05 -0.00022681747)
(0.00034979044 6.7058065e-05 -0.00020925082)
(0.0002061953 8.9835953e-05 -0.00019885958)
(5.7469537e-05 5.740124e-05 -0.00018441139)
(5.797456e-05 -0.00016710023 -6.6688232e-06)
(4.0832193e-05 -4.000451e-05 -4.1711031e-07)
(-0.00029501115 0.0002485403 1.1216178e-05)
(-0.0010110465 0.00056210753 2.5582059e-05)
(-0.002099237 0.00084748422 4.0566891e-05)
(-0.0035140816 0.0010831095 5.4574891e-05)
(-0.0051946628 0.0012642898 6.6478808e-05)
(-0.007076588 0.0013940556 7.5526366e-05)
(-0.0090980898 0.001477948 8.1235737e-05)
(-0.011202226 0.0015215145 8.3307214e-05)
(-0.013336936 0.0015291987 8.155745e-05)
(-0.01545406 0.0015039636 7.5876499e-05)
(-0.017508013 0.0014473455 6.6206065e-05)
(-0.019454561 0.0013597666 5.2535416e-05)
(-0.021249985 0.0012409918 3.4910648e-05)
(-0.02285079 0.0010906505 1.3452878e-05)
(-0.02421403 0.0009087693 -1.1618953e-05)
(-0.025298229 0.00069627214 -3.9964878e-05)
(-0.026064847 0.00045541247 -7.1104183e-05)
(-0.026480185 0.00019010649 -0.00010440261)
(-0.026517604 -9.3863214e-05 -0.00013906936)
(-0.026159783 -0.00038876997 -0.000174173)
(-0.025400976 -0.00068508091 -0.0002086578)
(-0.024248991 -0.00097174617 -0.00024139135)
(-0.022726589 -0.0012366801 -0.00027121786)
(-0.020872205 -0.0014674153 -0.00029702553)
(-0.018739788 -0.0016518934 -0.0003178221)
(-0.016397615 -0.0017793367 -0.00033281216)
(-0.013926049 -0.0018411285 -0.00034146917)
(-0.011414264 -0.0018316163 -0.00034359484)
(-0.0089560637 -0.0017487609 -0.00033935993)
(-0.0066449831 -0.0015945789 -0.00032932242)
(-0.0045688844 -0.001375388 -0.00031442149)
(-0.0028042223 -0.0011019654 -0.00029594825)
(-0.0014100318 -0.00078991619 -0.00027549498)
(-0.00042165703 -0.00046057779 -0.00025487729)
(0.00015574636 -0.00014255032 -0.00023600993)
(0.00035671826 0.00012231145 -0.00022090819)
(0.00027527652 0.00027111092 -0.00021167047)
(9.013448e-05 0.00020507991 -0.00019547653)
(1.9060761e-06 -0.00014898935 -2.0455251e-05)
(-0.0002560741 0.00029698698 -1.1838567e-05)
(-0.0010504738 0.001023593 5.9612575e-08)
(-0.0023878366 0.0017975084 1.3039604e-05)
(-0.0042394349 0.0025098721 2.6075763e-05)
(-0.006545531 0.0031100245 3.8027168e-05)
(-0.0092250667 0.0035808912 4.8066826e-05)
(-0.012189913 0.0039233971 5.5634136e-05)
(-0.015352872 0.0041461479 6.0347487e-05)
(-0.018630908 0.0042595531 6.1950173e-05)
(-0.0219459 0.0042727777 6.0269215e-05)
(-0.025224048 0.0041924395 5.518678e-05)
(-0.028394685 0.0040224359 4.6626562e-05)
(-0.031389126 0.0037644926 3.4553492e-05)
(-0.034139931 0.003419142 1.8983745e-05)
(-0.036580833 0.0029869154 1.8513793e-09)
(-0.038647425 0.002469587 -2.2218415e-05)
(-0.040278608 0.001871347 -4.7392693e-05)
(-0.041418713 0.0011998037 -7.51075e-05)
(-0.04202016 0.00046673254 -0.00010480788)
(-0.04204643 -0.00031149106 -0.00013579584)
(-0.041475144 -0.0011137967 -0.0001672361)
(-0.040301006 -0.0019148544 -0.00019818159)
(-0.038538267 -0.0026858322 -0.00022760941)
(-0.036222492 -0.0033956405 -0.00025447157)
(-0.033411351 -0.0040125653 -0.00027775744)
(-0.030184227 -0.0045062062 -0.00029656398)
(-0.026640474 -0.0048495969 -0.00031016802)
(-0.022896243 -0.0050213501 -0.00031809383)
(-0.019079915 -0.0050076483 -0.00032016827)
(-0.015326259 -0.0048039128 -0.00031655666)
(-0.011769529 -0.0044160309 -0.00030777489)
(-0.0085358126 -0.003861135 -0.00029467595)
(-0.0057348686 -0.003168092 -0.00027841255)
(-0.0034516996 -0.0023781149 -0.00026037896)
(-0.0017379861 -0.0015461888 -0.00024213209)
(-0.00060370178 -0.00074418079 -0.00022528338)
(-8.05705e-06 -6.6350185e-05 -0.00021142538)
(0.00015540343 0.0003603973 -0.00020224486)
(7.35576e-05 0.00035436525 -0.00018532517)
(-6.468979e-05 5.0411872e-05 -3.8706981e-05)
(-0.00060839257 0.0010457309 -2.6170291e-05)
(-0.0019305456 0.0023816962 -1.2189128e-05)
(-0.0039464299 0.0037564697 1.1035719e-06)
(-0.0065889835 0.0050152572 1.3691768e-05)
(-0.0097791395 0.0060800002 2.4816034e-05)
(-0.013417033 0.0069204537 3.393909e-05)
(-0.017395399 0.0075340415 4.072564e-05)
(-0.021607569 0.0079313221 4.4939779e-05)
(-0.025950489 0.008126965 4.6409704e-05)
(-0.030325604 0.0081346939 4.5004622e-05)
(-0.034638515 0.0079649299 4.0618165e-05)
(-0.038798045 0.0076243076 3.3163222e-05)
(-0.042715332 0.0071164468 2.2577503e-05)
(-0.046303369 0.0064434997 8.8373794e-06)
(-0.049477261 0.0056080988 -8.0225734e-06)
(-0.052155297 0.0046154136 -2.7886979e-05)
(-0.054260845 0.0034750882 -5.0536801e-05)
(-0.055724967 0.0022028797 -7.56291e-05)
(-0.056489569 0.00082185717 -0.00010268271)
(-0.056510876 -0.00063694951 -0.00013107303)
(-0.055762993 -0.0021345636 -0.00016003491)
(-0.054241237 -0.0036247707 -0.00018868612)
(-0.051964914 -0.0050555654 -0.00021605955)
(-0.048979295 -0.0063713266 -0.00024115247)
(-0.045356481 -0.0075156416 -0.00026298775)
(-0.041194906 -0.0084346444 -0.00028068334)
(-0.036617292 -0.0090806665 -0.00029352439)
(-0.03176694 -0.009415949 -0.00030103103)
(-0.026802355 -0.0094161304 -0.00030301396)
(-0.021890294 -0.0090732387 -0.00029961012)
(-0.017197487 -0.0083979783 -0.00029129257)
(-0.012881337 -0.0074212409 -0.00027885186)
(-0.0090800282 -0.0061949839 -0.00026335079)
(-0.005902467 -0.0047929159 -0.00024605689)
(-0.0034184888 -0.0033118204 -0.00022835958)
(-0.0016495324 -0.0018745407 -0.00021168656)
(-0.00055981261 -0.0006347108 -0.00019743242)
(-5.0125563e-05 0.00021500119 -0.00018683253)
(3.8092449e-05 0.00041382441 -0.00016802342)
(-0.00013086719 0.00044555237 -5.8223006e-05)
(-0.00097095123 0.0022426529 -4.1160066e-05)
(-0.0028462028 0.0043591265 -2.4277784e-05)
(-0.0055647818 0.0064571373 -9.8455924e-06)
(-0.0090093783 0.0083533843 3.0728706e-06)
(-0.013075358 0.0099513488 1.4052866e-05)
(-0.017642131 0.011211636 2.28314e-05)
(-0.022584484 0.012129466 2.9303602e-05)
(-0.027779386 0.012717405 3.3392272e-05)
(-0.033107815 0.012994026 3.5024596e-05)
(-0.038455146 0.012977247 3.4123323e-05)
(-0.04371073 0.0126811 3.0600056e-05)
(-0.048767075 0.012115022 2.4357892e-05)
(-0.053519146 0.01128489 1.5303275e-05)
(-0.057864178 0.010195176 3.3648402e-06)
(-0.061702241 0.0088516722 -1.1482895e-05)
(-0.064937652 0.0072643875 -2.9193228e-05)
(-0.067481201 0.0054502578 -4.9620844e-05)
(-0.069253102 0.0034354217 -7.249795e-05)
(-0.070186475 0.0012568519 -9.7415958e-05)
(-0.070231137 -0.0010368197 -0.00012381575)
(-0.069357448 -0.0033854215 -0.0001509891)
(-0.067559921 -0.0057183221 -0.00017809511)
(-0.064860289 -0.0079565961 -0.00020419192)
(-0.06130973 -0.010016199 -0.00022828463)
(-0.05698994 -0.011812074 -0.00024938727)
(-0.052012779 -0.013263013 -0.00026659447)
(-0.046518241 -0.014297012 -0.00027915665)
(-0.040670583 -0.014856759 -0.00028655113)
(-0.034652547 -0.014904877 -0.00028854078)
(-0.028657723 -0.014428504 -0.00028521212)
(-0.022881275 -0.013442876 -0.00027698604)
(-0.017509394 -0.011993744 -0.00026459735)
(-0.012708008 -0.010158649 -0.00024904384)
(-0.0086114416 -0.0080474533 -0.00023150887)
(-0.005311739 -0.0058029414 -0.00021327164)
(-0.0028485091 -0.0036024796 -0.00019564559)
(-0.0012000342 -0.0016605557 -0.0001798972)
(-0.00028881694 -0.00023378817 -0.00016675243)
(-2.475035e-06 0.00035045811 -0.0001455187)
(-0.00019286451 0.0010312922 -7.6702929e-05)
(-0.0013239794 0.0038924838 -5.4801381e-05)
(-0.0037518318 0.0069679173 -3.4596713e-05)
(-0.0071732452 0.0099107097 -1.8503335e-05)
(-0.011414713 0.012527266 -4.7077324e-06)
(-0.016341342 0.014714354 6.6549542e-06)
(-0.021809425 0.016430339 1.5571795e-05)
(-0.027675626 0.017671847 2.2157376e-05)
(-0.033802086 0.018455072 2.6490102e-05)
(-0.040056477 0.018803038 2.8596663e-05)
(-0.046311408 0.018737906 2.8454325e-05)
(-0.052443574 0.018277243 2.5992191e-05)
(-0.058332816 0.017433282 2.1100728e-05)
(-0.063861475 0.016214355 1.3649761e-05)
(-0.068914364 0.014627703 3.5127378e-06)
(-0.073379541 0.012683011 -9.4045525e-06)
(-0.077149927 0.010396137 -2.513275e-05)
(-0.080125749 0.0077925918 -4.3607475e-05)
(-0.082217681 0.0049104285 -6.4640315e-05)
(-0.083350509 0.0018022949 -8.7895245e-05)
(-0.083467124 -0.001463564 -0.0001128737)
(-0.082532585 -0.004803503 -0.00013891195)
(-0.080538007 -0.0081199413 -0.00016519266)
(-0.077503978 -0.011304204 -0.00019077454)
(-0.073483199 -0.01424068 -0.00021463934)
(-0.068562019 -0.016812225 -0.00023575531)
(-0.062860545 -0.018906604 -0.00025315295)
(-0.056531001 -0.020423675 -0.00026600615)
(-0.049754079 -0.021282863 -0.00027371001)
(-0.042733124 -0.021430431 -0.0002759459)
(-0.035686133 -0.02084596 -0.00027272459)
(-0.028835737 -0.019547538 -0.00026440045)
(-0.022397574 -0.01759528 -0.00025165225)
(-0.016567674 -0.015093077 -0.00023543007)
(-0.011509819 -0.012188787 -0.00021687022)
(-0.0073438755 -0.0090736271 -0.00019719775)
(-0.0041345209 -0.0059816595 -0.00017768533)
(-0.0018815896 -0.003189046 -0.00015956728)
(-0.00053619297 -0.0010143352 -0.00014317301)
(-4.1247824e-05 0.00015894082 -0.00011907979)
(-0.00025011494 0.0017985514 -9.2189311e-05)
(-0.0016597595 0.0059840747 -6.5301602e-05)
(-0.0046244168 0.010198506 -4.1615347e-05)
(-0.0087320923 0.014106872 -2.3560594e-05)
(-0.01375148 0.017522156 -8.5223104e-06)
(-0.019514899 0.020346913 3.6165471e-06)
(-0.025853902 0.022545702 1.3067792e-05)
(-0.032606701 0.024121769 2.0147512e-05)
(-0.039621505 0.02509787 2.5077926e-05)
(-0.046754567 0.025502939 2.797727e-05)
(-0.05386829 0.025363996 2.8871131e-05)
(-0.060829676 0.024702316 2.7700262e-05)
(-0.067509011 0.023532968 2.4336156e-05)
(-0.073779085 0.021866793 1.8604806e-05)
(-0.079515152 0.019713963 1.0316416e-05)
(-0.084595739 0.017088361 -7.0053719e-07)
(-0.088904338 0.014012138 -1.4562583e-05)
(-0.092331896 0.010519951 -3.1293957e-05)
(-0.094780007 0.0066624628 -5.0791396e-05)
(-0.096164655 0.0025088277 -7.2794137e-05)
(-0.096420321 -0.0018520841 -9.6862713e-05)
(-0.095504252 -0.0063118932 -0.00012237104)
(-0.093400689 -0.01074445 -0.0001485127)
(-0.090124778 -0.015009248 -0.00017432816)
(-0.085725852 -0.018956465 -0.00019875036)
(-0.080289744 -0.022433599 -0.00022066973)
(-0.073939744 -0.025293511 -0.00023901468)
(-0.066835766 -0.027403528 -0.0002528405)
(-0.059171346 -0.028655132 -0.00026141719)
(-0.051168167 -0.028973582 -0.00026430512)
(-0.043067973 -0.028326702 -0.00026140747)
(-0.035121979 -0.026732087 -0.00025299122)
(-0.027578171 -0.024262085 -0.00023967217)
(-0.020667224 -0.021046181 -0.00022236281)
(-0.014588272 -0.017270805 -0.00020218248)
(-0.0094957788 -0.013177158 -0.00018035351)
(-0.0054864692 -0.0090578946 -0.00015817936)
(-0.0025879409 -0.0052522129 -0.0001369479)
(-0.00078446453 -0.0021405461 -0.0001166638)
(-7.6873267e-05 -0.0001605478 -8.9456474e-05)
(-0.00030295363 0.0027365021 -0.00010301257)
(-0.0019754807 0.0084980159 -7.1044216e-05)
(-0.00545209 0.014028434 -4.3896568e-05)
(-0.010217875 0.019021199 -2.3751978e-05)
(-0.015985028 0.023310865 -7.2567526e-06)
(-0.022552583 0.026817936 5.9321504e-06)
(-0.029726899 0.029522149 1.6229299e-05)
(-0.037327849 0.031439482 2.4132565e-05)
(-0.045190553 0.032603101 2.999205e-05)
(-0.053161386 0.033050073 3.4004676e-05)
(-0.061094671 0.0328134 3.6233556e-05)
(-0.068850215 0.031918547 3.6621511e-05)
(-0.076291434 0.030383528 3.5012e-05)
(-0.083284227 0.02822163 3.1178158e-05)
(-0.08969674 0.025445821 2.4857692e-05)
(-0.095400041 0.02207401 1.5792226e-05)
(-0.10026969 0.018134451 3.7696558e-06)
(-0.10418814 0.013670731 -1.13324e-05)
(-0.10704781 0.0087459077 -2.9504629e-05)
(-0.10875483 0.0034454768 -5.0568717e-05)
(-0.10923316 -0.0021210835 -7.4148634e-05)
(-0.10842912 -0.0078203906 -9.9656291e-05)
(-0.106316 -0.013496974 -0.0001262908)
(-0.10289866 -0.018977068 -0.00015306241)
(-0.098217689 -0.024074349 -0.00017883581)
(-0.092352882 -0.028597677 -0.00020239629)
(-0.085425423 -0.032360678 -0.00022253479)
(-0.077598354 -0.035192882 -0.00023814548)
(-0.06907469 -0.036951852 -0.00024832607)
(-0.060092716 -0.037535551 -0.00025246832)
(-0.050918145 -0.036893974 -0.00025032555)
(-0.0418331 -0.035038958 -0.00024204617)
(-0.033122284 -0.032051163 -0.00022816716)
(-0.025057149 -0.028083475 -0.00020956581)
(-0.017879544 -0.023360551 -0.00018736733)
(-0.011786417 -0.018174907 -0.00016283615)
(-0.0069140379 -0.012880341 -0.00013737317)
(-0.003323824 -0.007882241 -0.0001124027)
(-0.0010368566 -0.0036261526 -8.7695017e-05)
(-0.00011093351 -0.00060702955 -5.7252835e-05)
(-0.00035168977 0.0038337839 -0.00010770917)
(-0.0022696633 0.011410246 -7.0555151e-05)
(-0.0062274171 0.018427114 -4.0077467e-05)
(-0.011614633 0.02461971 -1.7827127e-05)
(-0.018090138 0.029857264 2.3676369e-07)
(-0.025420772 0.034089544 1.466604e-05)
(-0.03338839 0.037320352 2.6060172e-05)
(-0.041795267 0.039584871 3.507996e-05)
(-0.050464483 0.040931058 4.2186438e-05)
(-0.059234026 0.041406856 4.7640419e-05)
(-0.067952034 0.041052813 5.1529576e-05)
(-0.076473328 0.039899315 5.3787285e-05)
(-0.084656819 0.037967517 5.4218363e-05)
(-0.092363877 0.035272983 5.2532781e-05)
(-0.099457705 0.031831043 4.8385233e-05)
(-0.1058037 0.027662985 4.1419421e-05)
(-0.11127073 0.022802319 3.1315869e-05)
(-0.11573325 0.017300542 1.7841547e-05)
(-0.11907418 0.01123196 8.9886419e-07)
(-0.12118843 0.0046972317 -1.9429013e-05)
(-0.12198712 -0.0021746103 -4.2840756e-05)
(-0.12140218 -0.0092259078 -6.8794957e-05)
(-0.11939157 -0.016271979 -9.6499324e-05)
(-0.11594462 -0.023105023 -0.00012493006)
(-0.11108741 -0.029500271 -0.00015287059)
(-0.10488765 -0.035224592 -0.00017897769)
(-0.097458628 -0.040047537 -0.0002018708)
(-0.088961418 -0.043754533 -0.00022023865)
(-0.079604716 -0.046161729 -0.00023295389)
(-0.069641424 -0.047131587 -0.00023918241)
(-0.059361477 -0.046588008 -0.00023847223)
(-0.049080643 -0.04452955 -0.00023080721)
(-0.039125515 -0.041039212 -0.00021661637)
(-0.029815564 -0.036289525 -0.00019673413)
(-0.021444012 -0.030542205 -0.00017230707)
(-0.014259424 -0.024142515 -0.00014468039)
(-0.0084460769 -0.017509119 -0.00011541414)
(-0.0041057366 -0.011119064 -8.6149043e-05)
(-0.0013000734 -0.0054896857 -5.6490156e-05)
(-0.00014465948 -0.001181748 -2.2535983e-05)
(-0.0003963882 0.0050786251 -0.00010495996)
(-0.0025407788 0.01469334 -6.2481882e-05)
(-0.0069441434 0.023357745 -2.8875982e-05)
(-0.012909118 0.030860503 -4.5745929e-06)
(-0.020045459 0.037116985 1.5105027e-05)
(-0.028090036 0.042116498 3.091215e-05)
(-0.036801798 0.045895347 4.36169e-05)
(-0.045966764 0.048514361 5.4026074e-05)
(-0.05539732 0.0500409 6.2695531e-05)
(-0.064924606 0.050536848 6.9935281e-05)
(-0.074392387 0.050052153 7.5844328e-05)
(-0.083652534 0.048623068 8.0334668e-05)
(-0.092561627 0.046274151 8.3161407e-05)
(-0.10097867 0.043022975 8.3960469e-05)
(-0.10876393 0.038886534 8.2292091e-05)
(-0.1157788 0.033888391 7.7689371e-05)
(-0.12188663 0.028065843 6.9711075e-05)
(-0.12695436 0.021476498 5.7997228e-05)
(-0.13085508 0.014203848 4.232527e-05)
(-0.13347122 0.0063615324 2.2664077e-05)
(-0.13469874 -0.0019039676 -7.7873895e-07)
(-0.13445182 -0.010412464 -2.752781e-05)
(-0.13266863 -0.018951121 -5.6811214e-05)
(-0.12931762 -0.027278088 -8.7577339e-05)
(-0.12440421 -0.035128669 -0.00011852368)
(-0.11797744 -0.04222448 -0.00014816046)
(-0.1101361 -0.048285721 -0.00017490291)
(-0.10103328 -0.053046434 -0.00019718714)
(-0.090878485 -0.05627228 -0.00021360085)
(-0.079936249 -0.057779879 -0.00022301549)
(-0.068520194 -0.057456265 -0.00022470274)
(-0.056982073 -0.05527653 -0.00021841762)
(-0.045695677 -0.051317552 -0.00020443339)
(-0.03503645 -0.0457658 -0.00018351857)
(-0.025358825 -0.03891782 -0.00015684631)
(-0.0169736 -0.031173152 -0.00012587508)
(-0.010123069 -0.023020383 -9.2382463e-05)
(-0.0049572766 -0.015016229 -5.8303629e-05)
(-0.0015839039 -0.0077601502 -2.3132141e-05)
(-0.00018000398 -0.0018920016 1.473443e-05)
(-0.00043686837 0.0064585057 -9.3562466e-05)
(-0.0027868231 0.01831672 -4.5585631e-05)
(-0.0075958232 0.028778038 -9.1015293e-06)
(-0.0140885 0.037694539 1.7152175e-05)
(-0.021830593 0.045037776 3.8455807e-05)
(-0.030531973 0.050845789 5.5747965e-05)
(-0.039930937 0.055195175 6.9957799e-05)
(-0.049799041 0.058178583 8.2023286e-05)
(-0.059939578 0.059887382 9.2580779e-05)
(-0.070178477 0.060400617 0.00010197626)
(-0.080356899 0.059779682 0.00011030795)
(-0.09032571 0.058067797 0.00011745539)
(-0.099941214 0.055293245 0.00012311341)
(-0.10906213 0.051475278 0.0001268332)
(-0.11754774 0.046631619 0.00012806866)
(-0.12525715 0.040786622 0.00012622834)
(-0.13204946 0.033979351 0.00012073234)
(-0.13778482 0.02627101 0.0001110734)
(-0.14232645 0.017751363 9.6880241e-05)
(-0.14554343 0.0085438639 7.7980823e-05)
(-0.14731464 -0.0011907239 5.4461123e-05)
(-0.14753356 -0.011252418 2.6698743e-05)
(-0.14611442 -0.021402459 -4.5761418e-06)
(-0.14299953 -0.031365867 -3.8302777e-05)
(-0.13816733 -0.040837264 -7.3099245e-05)
(-0.1316411 -0.049490126 -0.00010731955)
(-0.1234976 -0.056989923 -0.00013914577)
(-0.11387458 -0.063011273 -0.00016671215)
(-0.1029759 -0.067258798 -0.00018825358)
(-0.091072955 -0.069490743 -0.00020226479)
(-0.078500905 -0.069543674 -0.00020765174)
(-0.065648582 -0.067355868 -0.00020385392)
(-0.05294169 -0.062986497 -0.00019091716)
(-0.040819816 -0.056627653 -0.00016949903)
(-0.029709492 -0.048606868 -0.00014078822)
(-0.019996103 -0.039379185 -0.00010638004)
(-0.0119921 -0.029509356 -6.8325815e-05)
(-0.0059059899 -0.019644266 -2.8934094e-05)
(-0.001899584 -0.010479261 1.2374519e-05)
(-0.00021910984 -0.0027504878 5.471443e-05)
(-0.00047275556 0.0079597743 -7.24259e-05)
(-0.003005276 0.022246443 -1.8744659e-05)
(-0.0081754007 0.034640366 2.0332018e-05)
(-0.015139491 0.045065945 4.8412427e-05)
(-0.023424849 0.053559643 7.1327342e-05)
(-0.03271778 0.060216326 9.0197777e-05)
(-0.042738583 0.065159902 0.0001061019)
(-0.053246438 0.068520595 0.00012009593)
(-0.064037307 0.070418243 0.00013288462)
(-0.07493358 0.070952294 0.00014483897)
(-0.08577557 0.070197758 0.00015604649)
(-0.09641501 0.06820605 0.00016634507)
(-0.10670992 0.065009572 0.00017536031)
(-0.11652079 0.060628895 0.00018254885)
(-0.12570795 0.055081396 0.00018724673)
(-0.13413006 0.048390444 0.00018872328)
(-0.14164355 0.040594404 0.00018624105)
(-0.14810293 0.031754975 0.00017912151)
(-0.15336209 0.021964539 0.00016681518)
(-0.15727655 0.011352315 0.00014897301)
(-0.15970693 8.9161809e-05 0.0001255156)
(-0.16052383 -0.011609201 9.670389e-05)
(-0.15961424 -0.023481366 6.3166831e-05)
(-0.1568894 -0.035221377 2.5946707e-05)
(-0.1522946 -0.046483542 -1.3514538e-05)
(-0.14581992 -0.056891155 -5.3417373e-05)
(-0.13751164 -0.066049956 -9.1689975e-05)
(-0.12748326 -0.073566818 -0.00012611708)
(-0.11592444 -0.079073633 -0.00015450621)
(-0.10310625 -0.082255616 -0.00017487816)
(-0.089380704 -0.082882237 -0.00018566159)
(-0.075172608 -0.080837889 -0.00018586642)
(-0.060962819 -0.076148508 -0.00017520914)
(-0.047262815 -0.068999928 -0.00015416195)
(-0.034582893 -0.059744252 -0.00012389401)
(-0.023397265 -0.048892226 -8.614647e-05)
(-0.014103365 -0.037091701 -4.3297407e-05)
(-0.0069813922 -0.025092505 1.8880388e-06)
(-0.0022589926 -0.013702895 5.0035635e-05)
(-0.00026414444 -0.0037760314 9.7594168e-05)
(-0.00050354585 0.0095673472 -4.0580569e-05)
(-0.0031932445 0.026444926 1.9033413e-05)
(-0.0086753219 0.040891697 6.0388948e-05)
(-0.016048344 0.052912071 9.0154354e-05)
(-0.024807137 0.062614817 0.00011465811)
(-0.034618106 0.07015856 0.0001351965)
(-0.045186393 0.075720704 0.00015298752)
(-0.056261012 0.079474286 0.00016919437)
(-0.067632393 0.081571826 0.00018458043)
(-0.07912105 0.082136387 0.00019953357)
(-0.090568129 0.08125884 0.00021412366)
(-0.10182804 0.079000139 0.00022814057)
(-0.11276247 0.075397314 0.0002411341)
(-0.12323575 0.070471939 0.00025245858)
(-0.1331114 0.064239927 0.0002613218)
(-0.14224975 0.056721726 0.00026683943)
(-0.15050654 0.04795226 0.00026809653)
(-0.15773238 0.037990186 0.00026421653)
(-0.16377319 0.026926259 0.00025443729)
(-0.16847168 0.014890665 0.00023819151)
(-0.17167023 0.002059195 0.00021518901)
(-0.17321553 -0.011341993 0.00018550601)
(-0.17296488 -0.025033407 0.00014963073)
(-0.17079469 -0.038681798 0.00010853401)
(-0.16661146 -0.051903089 6.3678342e-05)
(-0.16036458 -0.06426978 1.6996776e-05)
(-0.1520607 -0.075323956 -2.9178319e-05)
(-0.14177859 -0.084596835 -7.2242221e-05)
(-0.12968275 -0.091635338 -0.00010949864)
(-0.11603371 -0.09603524 -0.00013838381)
(-0.10119218 -0.097479205 -0.00015671284)
(-0.085614611 -0.095776453 -0.00016291859)
(-0.069837663 -0.090899243 -0.0001562479)
(-0.054451119 -0.083010413 -0.00013687455)
(-0.040060962 -0.072476314 -0.00010587957)
(-0.027246336 -0.059861372 -6.5136299e-05)
(-0.016507615 -0.04590337 -1.7395429e-05)
(-0.0082137253 -0.031469713 3.4031834e-05)
(-0.0026743043 -0.017501769 8.979755e-05)
(-0.00031729353 -0.0049938407 0.00014351704)
(-0.00052867562 0.011264536 2.8037083e-06)
(-0.0033477076 0.0308708 6.8593093e-05)
(-0.0090879702 0.047473588 0.00011189082)
(-0.016801437 0.061163556 0.00014318966)
(-0.025956662 0.072127714 0.0001692558)
(-0.036203872 0.08059416 0.00019155256)
(-0.047235898 0.086799071 0.00021142895)
(-0.058793761 0.090962958 0.00023014537)
(-0.070664088 0.093274959 0.00024851659)
(-0.082667071 0.093884881 0.00026694241)
(-0.094646269 0.092901773 0.00028547154)
(-0.10646048 0.090397619 0.00030384307)
(-0.11797696 0.08641474 0.00032152788)
(-0.12906598 0.080975543 0.00033777318)
(-0.13959652 0.074093439 0.00035165036)
(-0.14943301 0.065784034 0.00036210849)
(-0.158433 0.056075968 0.00036803541)
(-0.16644565 0.045021107 0.00036832841)
(-0.17331117 0.032703952 0.00036197483)
(-0.17886146 0.019250244 0.00034814146)
(-0.18292211 0.004834708 0.00032627064)
(-0.18531633 -0.010312288 0.00029618204)
(-0.18587096 -0.025899421 0.00025815752)
(-0.18442518 -0.041571591 0.00021302559)
(-0.18084218 -0.056910282 0.00016220796)
(-0.17502374 -0.071438702 0.00010772822)
(-0.1669274 -0.084633276 5.2164694e-05)
(-0.15658546 -0.095943033 -1.4644206e-06)
(-0.14412387 -0.10481805 -4.9888798e-05)
(-0.12977881 -0.11074717 -8.9841806e-05)
(-0.11390742 -0.11330375 -0.00011836519)
(-0.09698887 -0.11219597 -0.00013312905)
(-0.079612418 -0.10731607 -0.00013272231)
(-0.06244996 -0.098780726 -0.00011685643)
(-0.046214438 -0.086954487 -8.640966e-05)
(-0.031607579 -0.072449504 -4.3340222e-05)
(-0.019254051 -0.056098964 9.1967333e-06)
(-0.0096330873 -0.038903732 6.7248967e-05)
(-0.0031578119 -0.021961554 0.00013147632)
(-0.00038078257 -0.0064355699 0.00019250491)
(-0.00054759425 0.013033041 5.8394357e-05)
(-0.0034658279 0.035479029 0.0001306095)
(-0.009406318 0.054322449 0.0001754943)
(-0.017386252 0.069744628 0.00020816803)
(-0.026854218 0.08201513 0.00023576679)
(-0.037447856 0.09143592 0.00025991116)
(-0.048850395 0.098306272 0.0002820726)
(-0.060796862 0.10289823 0.00030360051)
(-0.073071635 0.10544119 0.00032535659)
(-0.085495972 0.10611475 0.00034775112)
(-0.097917255 0.10504853 0.00037081212)
(-0.11020024 0.10232722 0.00039422929)
(-0.1222196 0.097999335 0.00041739562)
(-0.13385364 0.092088176 0.0004394503)
(-0.14497923 0.084603854 0.00045932387)
(-0.15546763 0.075555396 0.00047578861)
(-0.16518116 0.064962454 0.00048751744)
(-0.17397075 0.052866386 0.0004931541)
(-0.18167429 0.039340696 0.00049139652)
(-0.18811615 0.024500949 0.00048109361)
(-0.19310811 0.0085141871 0.00046135455)
(-0.19645228 -0.0083922702 0.00043166788)
(-0.19794631 -0.025922958 0.00039201899)
(-0.19739169 -0.043708355 0.00034300336)
(-0.19460556 -0.061301916 0.00028591493)
(-0.18943641 -0.078181879 0.00022279552)
(-0.18178369 -0.093759919 0.00015642502)
(-0.17162069 -0.1073989 9.0232866e-05)
(-0.15901935 -0.11844182 2.8116077e-05)
(-0.14417415 -0.12625319 -2.5840332e-05)
(-0.12742131 -0.13027243 -6.772777e-05)
(-0.10924829 -0.13007628 -9.4229256e-05)
(-0.090288122 -0.12544381 -0.00010303109)
(-0.071294375 -0.11641427 -9.3153027e-05)
(-0.053096182 -0.10332625 -6.509284e-05)
(-0.036536256 -0.086827396 -2.0797135e-05)
(-0.022388329 -0.067848561 3.6167563e-05)
(-0.011268706 -0.047540192 0.0001011114)
(-0.0037218241 -0.027182595 0.00017468188)
(-0.00045690899 -0.0081393493 0.00024438033)
(-0.0005598399 0.014853121 0.00012667163)
(-0.0035453099 0.040221394 0.00020556701)
(-0.0096247354 0.061370203 0.00025167027)
(-0.017792671 0.078573803 0.00028555363)
(-0.027483926 0.092186807 0.00031464793)
(-0.038326884 0.10258804 0.00034071957)
(-0.049997577 0.11014322 0.0003653544)
(-0.062226773 0.11517939 0.00038998455)
(-0.074797905 0.11796952 0.00041551736)
(-0.087534447 0.11872601 0.00044237608)
(-0.10028883 0.11760157 0.0004705729)
(-0.11293319 0.1146955 0.00049975411)
(-0.1253513 0.11006367 0.00052924055)
(-0.13743163 0.10373073 0.00055806733)
(-0.14906143 0.095703045 0.00058502432)
(-0.16012175 0.085981725 0.00060870138)
(-0.17048318 0.074575093 0.00062754267)
(-0.18000233 0.06151059 0.0006399141)
(-0.18851912 0.046846182 0.0006441871)
(-0.19585504 0.030681526 0.00063884059)
(-0.20181281 0.013169049 0.00062258176)
(-0.20617784 -0.0054750397 0.00059448372)
(-0.20872219 -0.024960098 0.00055413384)
(-0.20921174 -0.044911623 0.0005017829)
(-0.20741729 -0.064864217 0.00043848187)
(-0.20313055 -0.084258926 0.00036618384)
(-0.19618525 -0.10244749 0.00028778713)
(-0.18648353 -0.11870657 0.00020709139)
(-0.17402641 -0.13226512 0.00012864063)
(-0.15894603 -0.1423476 5.743553e-05)
(-0.14153526 -0.14823416 -1.4838484e-06)
(-0.12226861 -0.14933576 -4.3556831e-05)
(-0.10180686 -0.14527784 -6.5262215e-05)
(-0.080978375 -0.13598104 -6.4618862e-05)
(-0.060733639 -0.12172305 -4.1481985e-05)
(-0.042074126 -0.10316535 2.3812175e-06)
(-0.025950359 -0.081332823 6.3027949e-05)
(-0.013148179 -0.057540254 0.00013494096)
(-0.0043785758 -0.033279248 0.00021873291)
(-0.00054808043 -0.010149799 0.00029867966)
(-0.00056511839 0.016703981 0.00020790641)
(-0.003584797 0.045047399 0.00029374139)
(-0.0097399173 0.068545477 0.0003406872)
(-0.018014478 0.087565117 0.00037560629)
(-0.027835336 0.10254652 0.00040614298)
(-0.038824481 0.11394691 0.00043419682)
(-0.05065275 0.12220085 0.0004614609)
(-0.063048033 0.12769326 0.00048944657)
(-0.075793823 0.13074376 0.00051910925)
(-0.088716726 0.13160055 0.0005508921)
(-0.10167522 0.13044207 0.00058480111)
(-0.11455009 0.12738439 0.00062045015)
(-0.12723579 0.12249233 0.0006570988)
(-0.13963295 0.11579272 0.00069368728)
(-0.15164178 0.10728829 0.00072887049)
(-0.16315624 0.096971433 0.00076105595)
(-0.17405898 0.084837391 0.00078845116)
(-0.18421684 0.070896875 0.00080912568)
(-0.19347697 0.055188297 0.0008210924)
(-0.2016639 0.037790038 0.00082241201)
(-0.20857761 0.01883306 0.00081132251)
(-0.21399333 -0.0014859742 0.00078639406)
(-0.21766366 -0.022891225 0.0007467069)
(-0.21932383 -0.04501448 0.00069203884)
(-0.21870118 -0.067383494 0.00062305636)
(-0.21553021 -0.089413755 0.00054148009)
(-0.20957399 -0.11040669 0.00045019737)
(-0.20065289 -0.12955805 0.00035328544)
(-0.18868014 -0.14598093 0.00025590525)
(-0.17370265 -0.158748 0.00016403127)
(-0.15594257 -0.16695612 8.3999702e-05)
(-0.13583291 -0.16981363 2.1888452e-05)
(-0.11403725 -0.16674486 -1.721324e-05)
(-0.091442955 -0.15749929 -2.9924542e-05)
(-0.069120208 -0.1422449 -1.5088668e-05)
(-0.048244144 -0.12162198 2.5974916e-05)
(-0.029971678 -0.096736091 8.9050381e-05)
(-0.015296555 -0.069077237 0.00016772574)
(-0.0051401036 -0.040378802 0.00026255685)
(-0.00065685162 -0.012518016 0.00035455139)
(-0.00056338463 0.018564369 0.00030214351)
(-0.0035842973 0.049905656 0.00039518866)
(-0.0097519041 0.075775384 0.00044260188)
(-0.018051063 0.096629994 0.00047837034)
(-0.027905785 0.11299378 0.00051026683)
(-0.038933888 0.12540253 0.00054031068)
(-0.050802484 0.13436111 0.00057029727)
(-0.063237566 0.14031476 0.00060181733)
(-0.076023406 0.14363264 0.00063588161)
(-0.088990434 0.14460175 0.00067296522)
(-0.10200402 0.14342909 0.00071308285)
(-0.11495465 0.14024998 0.00075583211)
(-0.12774898 0.13514019 0.00080042746)
(-0.14030173 0.12813009 0.00084572885)
(-0.15252852 0.11921944 0.00089026778)
(-0.16433944 0.10839183 0.00093227601)
(-0.17563317 0.095628478 0.00096972378)