/*--------------------------------*- C++ -*----------------------------------*\
  =========                 |
  \\      /  F ield         | OpenFOAM: The Open Source CFD Toolbox
   \\    /   O peration     | Website:  https://openfoam.org
    \\  /    A nd           | Version:  7
     \\/     M anipulation  |
\*---------------------------------------------------------------------------*/
FoamFile
{
    version     2.0;
    format      ascii;
    class       volVectorField;
    location    "23";
    object      U_0;
}
// * * * * * * * * * * * * * * * * * * * * * * * * * * * * * * * * * * * * * //

dimensions      [0 1 -1 0 0 0 0];

internalField   nonuniform List<vector> 
16000
(
(6.5994195e-05 -6.738154e-05 -4.3497511e-07)
(0.0001626789 -5.6382117e-05 5.662139e-06)
(0.00014188709 4.5188223e-07 1.9161412e-05)
(-5.0635259e-05 6.1885383e-05 3.6583715e-05)
(-0.00040997997 0.00011562799 5.4692074e-05)
(-0.00090902698 0.0001577416 7.1520318e-05)
(-0.0015177063 0.00018850275 8.5732363e-05)
(-0.0022068748 0.00020960709 9.6513009e-05)
(-0.0029505834 0.00022287478 0.00010340188)
(-0.0037264399 0.00022980915 0.00010615205)
(-0.0045150185 0.00023147519 0.00010463632)
(-0.0052989741 0.00022850202 9.8791699e-05)
(-0.0060621472 0.00022114545 8.8593515e-05)
(-0.0067888117 0.00020938118 7.4052275e-05)
(-0.0074631579 0.00019301206 5.5226681e-05)
(-0.0080690539 0.00017177928 3.2246959e-05)
(-0.0085901022 0.00014547067 5.3430639e-06)
(-0.0090099791 0.00011402115 -2.5127051e-05)
(-0.0093130296 7.7600842e-05 -5.8653471e-05)
(-0.009485075 3.6687184e-05 -9.4558546e-05)
(-0.0095143755 -7.886029e-06 -0.00013199269)
(-0.0093926591 -5.4922963e-05 -0.00016994476)
(-0.0091161567 -0.00010284182 -0.00020726831)
(-0.0086865398 -0.0001497476 -0.00024272542)
(-0.0081116357 -0.00019351041 -0.00027504625)
(-0.007405847 -0.00023188446 -0.00030300199)
(-0.0065901804 -0.00026265844 -0.00032548643)
(-0.0056918224 -0.00028382389 -0.00034159979)
(-0.0047432365 -0.0002937448 -0.00035072772)
(-0.0037808014 -0.00029130928 -0.00035260841)
(-0.0028430546 -0.00027604545 -0.00034738127)
(-0.0019686509 -0.00024818808 -0.00033561298)
(-0.0011941489 -0.00020869637 -0.00031829951)
(-0.00055167376 -0.00015925955 -0.00029684639)
(-6.6513667e-05 -0.00010240539 -0.0002730232)
(0.00024491505 -4.1754956e-05 -0.00024888671)
(0.00037893464 1.7846686e-05 -0.00022681747)
(0.00034977819 6.7068731e-05 -0.00020925082)
(0.00020618473 8.985101e-05 -0.00019885958)
(5.7466067e-05 5.7409136e-05 -0.00018441139)
(5.7974797e-05 -0.00016710002 -6.6688232e-06)
(4.0832416e-05 -4.0004391e-05 -4.1711031e-07)
(-0.00029501138 0.00024854031 1.1216178e-05)
(-0.001011047 0.00056210731 2.5582059e-05)
(-0.0020992374 0.0008474837 4.0566891e-05)
(-0.0035140819 0.0010831089 5.4574891e-05)
(-0.0051946634 0.0012642893 6.6478808e-05)
(-0.0070765889 0.0013940554 7.5526366e-05)
(-0.0090980907 0.0014779478 8.1235737e-05)
(-0.011202227 0.001521514 8.3307214e-05)
(-0.013336936 0.001529198 8.155745e-05)
(-0.01545406 0.0015039629 7.5876499e-05)
(-0.017508013 0.0014473451 6.6206065e-05)
(-0.019454561 0.0013597667 5.2535416e-05)
(-0.021249985 0.0012409919 3.4910648e-05)
(-0.02285079 0.0010906502 1.3452878e-05)
(-0.02421403 0.00090876861 -1.1618953e-05)
(-0.025298228 0.00069627138 -3.9964878e-05)
(-0.026064846 0.00045541229 -7.1104183e-05)
(-0.026480185 0.00019010719 -0.00010440261)
(-0.026517604 -9.3862063e-05 -0.00013906936)
(-0.026159783 -0.00038876935 -0.000174173)
(-0.025400975 -0.00068508153 -0.0002086578)
(-0.02424899 -0.00097174762 -0.00024139135)
(-0.022726587 -0.0012366809 -0.00027121786)
(-0.020872206 -0.0014674141 -0.00029702553)
(-0.01873979 -0.0016518904 -0.0003178221)
(-0.016397618 -0.0017793341 -0.00033281216)
(-0.01392605 -0.0018411289 -0.00034146917)
(-0.011414261 -0.0018316197 -0.00034359484)
(-0.0089560608 -0.0017487637 -0.00033935993)
(-0.0066449838 -0.0015945772 -0.00032932242)
(-0.0045688901 -0.0013753816 -0.00031442149)
(-0.002804229 -0.0011019597 -0.00029594825)
(-0.0014100326 -0.00078991783 -0.00027549498)
(-0.0004216491 -0.00046058706 -0.00025487729)
(0.00015575703 -0.00014255874 -0.00023600993)
(0.00035672031 0.00012231484 -0.00022090819)
(0.00027526274 0.00027112647 -0.00021167047)
(9.0124067e-05 0.00020509358 -0.00019547653)
(1.906212e-06 -0.0001489896 -2.0455251e-05)
(-0.00025607393 0.00029698651 -1.1838567e-05)
(-0.001050474 0.0010235926 5.9612575e-08)
(-0.002387837 0.001797508 1.3039604e-05)
(-0.0042394355 0.0025098715 2.6075763e-05)
(-0.0065455314 0.0031100236 3.8027168e-05)
(-0.009225067 0.0035808901 4.8066826e-05)
(-0.012189914 0.0039233961 5.5634136e-05)
(-0.015352873 0.0041461472 6.0347487e-05)
(-0.018630908 0.0042595525 6.1950173e-05)
(-0.021945901 0.004272777 6.0269215e-05)
(-0.025224048 0.0041924385 5.518678e-05)
(-0.028394685 0.0040224348 4.6626562e-05)
(-0.031389126 0.0037644918 3.4553492e-05)
(-0.034139931 0.0034191418 1.8983745e-05)
(-0.036580833 0.0029869155 1.8513793e-09)
(-0.038647425 0.002469587 -2.2218415e-05)
(-0.040278607 0.0018713465 -4.7392693e-05)
(-0.041418711 0.0011998029 -7.51075e-05)
(-0.042020159 0.00046673193 -0.00010480788)
(-0.042046429 -0.00031149065 -0.00013579584)
(-0.041475144 -0.0011137952 -0.0001672361)
(-0.040301006 -0.0019148528 -0.00019818159)
(-0.038538267 -0.0026858318 -0.00022760941)
(-0.03622249 -0.0033956417 -0.00025447157)
(-0.033411349 -0.0040125668 -0.00027775744)
(-0.030184227 -0.0045062058 -0.00029656398)
(-0.026640476 -0.0048495936 -0.00031016802)
(-0.022896246 -0.0050213456 -0.00031809383)
(-0.019079917 -0.0050076464 -0.00032016827)
(-0.015326256 -0.0048039153 -0.00031655666)
(-0.011769525 -0.0044160353 -0.00030777489)
(-0.0085358115 -0.0038611355 -0.00029467595)
(-0.0057348741 -0.0031680855 -0.00027841255)
(-0.0034517085 -0.0023781055 -0.00026037896)
(-0.0017379902 -0.0015461856 -0.00024213209)
(-0.00060369571 -0.00074418859 -0.00022528338)
(-8.0463888e-06 -6.6362652e-05 -0.00021142538)
(0.00015540319 0.00036039259 -0.00020224486)
(7.3552773e-05 0.00035437206 -0.00018532517)
(-6.4689793e-05 5.0411397e-05 -3.8706981e-05)
(-0.00060839253 0.00104573 -2.6170291e-05)
(-0.0019305456 0.0023816952 -1.2189128e-05)
(-0.0039464302 0.0037564688 1.1035719e-06)
(-0.0065889841 0.0050152564 1.3691768e-05)
(-0.00977914 0.0060799992 2.4816034e-05)
(-0.013417033 0.0069204523 3.393909e-05)
(-0.017395399 0.00753404 4.072564e-05)
(-0.021607569 0.0079313208 4.4939779e-05)
(-0.025950489 0.008126964 4.6409704e-05)
(-0.030325605 0.0081346931 4.5004622e-05)
(-0.034638515 0.007964929 4.0618165e-05)
(-0.038798044 0.0076243065 3.3163222e-05)
(-0.042715331 0.0071164455 2.2577503e-05)
(-0.046303368 0.0064434986 8.8373794e-06)
(-0.04947726 0.0056080983 -8.0225734e-06)
(-0.052155296 0.0046154138 -2.7886979e-05)
(-0.054260845 0.0034750886 -5.0536801e-05)
(-0.055724965 0.0022028796 -7.56291e-05)
(-0.056489567 0.00082185642 -0.00010268271)
(-0.056510874 -0.00063695029 -0.00013107303)
(-0.055762992 -0.0021345634 -0.00016003491)
(-0.054241237 -0.003624769 -0.00018868612)
(-0.051964915 -0.005055563 -0.00021605955)
(-0.048979295 -0.0063713251 -0.00024115247)
(-0.045356479 -0.0075156422 -0.00026298775)
(-0.041194903 -0.0084346461 -0.00028068334)
(-0.03661729 -0.0090806667 -0.00029352439)
(-0.031766942 -0.0094159456 -0.00030103103)
(-0.026802359 -0.0094161246 -0.00030301396)
(-0.021890298 -0.0090732348 -0.00029961012)
(-0.017197485 -0.0083979798 -0.00029129257)
(-0.012881331 -0.0074212462 -0.00027885186)
(-0.0090800246 -0.0061949865 -0.00026335079)
(-0.0059024706 -0.0047929105 -0.00024605689)
(-0.0034184977 -0.0033118096 -0.00022835958)
(-0.0016495375 -0.0018745338 -0.00021168656)
(-0.00055980762 -0.00063471385 -0.00019743241)
(-5.011927e-05 0.00021499461 -0.00018683253)
(3.8093516e-05 0.00041382488 -0.00016802342)
(-0.00013086733 0.00044555177 -5.8223006e-05)
(-0.00097095144 0.0022426519 -4.1160066e-05)
(-0.0028462029 0.0043591252 -2.4277784e-05)
(-0.0055647819 0.0064571359 -9.8455924e-06)
(-0.0090093786 0.0083533829 3.0728706e-06)
(-0.013075358 0.0099513475 1.4052866e-05)
(-0.017642131 0.011211635 2.28314e-05)
(-0.022584484 0.012129464 2.9303602e-05)
(-0.027779386 0.012717403 3.3392272e-05)
(-0.033107815 0.012994024 3.5024596e-05)
(-0.038455145 0.012977245 3.4123323e-05)
(-0.043710729 0.012681099 3.0600056e-05)
(-0.048767075 0.012115021 2.4357892e-05)
(-0.053519145 0.011284889 1.5303275e-05)
(-0.057864176 0.010195174 3.3648402e-06)
(-0.061702239 0.008851671 -1.1482895e-05)
(-0.064937651 0.0072643869 -2.9193228e-05)
(-0.0674812 0.005450258 -4.9620844e-05)
(-0.069253101 0.0034354224 -7.249795e-05)
(-0.070186474 0.0012568523 -9.7415958e-05)
(-0.070231135 -0.0010368201 -0.00012381575)
(-0.069357445 -0.0033854223 -0.0001509891)
(-0.067559918 -0.0057183221 -0.00017809511)
(-0.064860288 -0.0079565943 -0.00020419192)
(-0.061309731 -0.010016196 -0.00022828463)
(-0.056989941 -0.011812071 -0.00024938727)
(-0.052012778 -0.013263013 -0.00026659447)
(-0.046518238 -0.014297013 -0.00027915665)
(-0.04067058 -0.014856759 -0.00028655113)
(-0.034652548 -0.014904874 -0.00028854078)
(-0.028657728 -0.014428497 -0.00028521212)
(-0.022881279 -0.01344287 -0.00027698604)
(-0.017509393 -0.011993744 -0.00026459735)
(-0.012708002 -0.010158654 -0.00024904384)
(-0.0086114368 -0.0080474575 -0.00023150887)
(-0.0053117416 -0.0058029382 -0.00021327164)
(-0.0028485168 -0.0036024708 -0.00019564559)
(-0.0012000368 -0.0016605501 -0.0001798972)
(-0.00028881294 -0.00023378934 -0.00016675243)
(-2.472652e-06 0.0003504565 -0.0001455187)
(-0.00019286465 0.0010312913 -7.6702929e-05)
(-0.0013239798 0.0038924826 -5.4801381e-05)
(-0.0037518321 0.0069679158 -3.4596713e-05)
(-0.0071732453 0.0099107079 -1.8503335e-05)
(-0.011414713 0.012527264 -4.7077324e-06)
(-0.016341342 0.014714352 6.6549542e-06)
(-0.021809425 0.016430337 1.5571795e-05)
(-0.027675626 0.017671845 2.2157376e-05)
(-0.033802085 0.01845507 2.6490102e-05)
(-0.040056476 0.018803035 2.8596663e-05)
(-0.046311407 0.018737904 2.8454325e-05)
(-0.052443573 0.018277241 2.5992191e-05)
(-0.058332815 0.017433281 2.1100728e-05)
(-0.063861474 0.016214354 1.3649761e-05)
(-0.068914363 0.014627702 3.5127378e-06)
(-0.073379538 0.012683009 -9.4045525e-06)
(-0.077149924 0.010396136 -2.513275e-05)
(-0.080125747 0.0077925911 -4.3607475e-05)
(-0.082217679 0.0049104289 -6.4640315e-05)
(-0.083350507 0.0018022961 -8.7895245e-05)
(-0.083467122 -0.0014635629 -0.0001128737)
(-0.082532583 -0.0048035028 -0.00013891195)
(-0.080538004 -0.0081199418 -0.00016519266)
(-0.077503975 -0.011304204 -0.00019077454)
(-0.073483198 -0.014240678 -0.00021463934)
(-0.06856202 -0.016812221 -0.00023575531)
(-0.062860546 -0.0189066 -0.00025315295)
(-0.056531 -0.020423673 -0.00026600615)
(-0.049754075 -0.021282864 -0.00027371001)
(-0.042733121 -0.021430432 -0.0002759459)
(-0.035686133 -0.020845958 -0.00027272459)
(-0.028835741 -0.019547531 -0.00026440045)
(-0.02239758 -0.017595273 -0.00025165225)
(-0.016567674 -0.015093074 -0.00023543007)
(-0.011509814 -0.012188791 -0.00021687022)
(-0.0073438714 -0.0090736306 -0.00019719775)
(-0.0041345237 -0.0059816567 -0.00017768533)
(-0.0018815947 -0.0031890395 -0.00015956728)
(-0.00053619331 -0.0010143322 -0.00014317301)
(-4.1246596e-05 0.00015894025 -0.00011907979)
(-0.00025011497 0.0017985502 -9.2189311e-05)
(-0.0016597597 0.0059840732 -6.5301602e-05)
(-0.0046244172 0.010198505 -4.1615347e-05)
(-0.0087320925 0.01410687 -2.3560594e-05)
(-0.01375148 0.017522154 -8.5223104e-06)
(-0.019514899 0.020346911 3.6165471e-06)
(-0.025853902 0.022545699 1.3067792e-05)
(-0.0326067 0.024121767 2.0147512e-05)
(-0.039621505 0.025097867 2.5077926e-05)
(-0.046754566 0.025502937 2.797727e-05)
(-0.053868289 0.025363994 2.8871131e-05)
(-0.060829674 0.024702314 2.7700262e-05)
(-0.067509009 0.023532966 2.4336156e-05)
(-0.073779084 0.021866792 1.8604806e-05)
(-0.07951515 0.019713963 1.0316416e-05)
(-0.084595737 0.01708836 -7.0053719e-07)
(-0.088904335 0.014012137 -1.4562583e-05)
(-0.092331893 0.01051995 -3.1293957e-05)
(-0.094780004 0.0066624622 -5.0791396e-05)
(-0.096164652 0.0025088282 -7.2794137e-05)
(-0.096420319 -0.0018520824 -9.6862713e-05)
(-0.095504251 -0.0063118912 -0.00012237104)
(-0.093400687 -0.010744449 -0.0001485127)
(-0.090124775 -0.015009248 -0.00017432816)
(-0.085725848 -0.018956465 -0.00019875036)
(-0.080289742 -0.022433598 -0.00022066973)
(-0.073939745 -0.025293507 -0.00023901468)
(-0.066835767 -0.027403522 -0.0002528405)
(-0.059171345 -0.028655129 -0.00026141719)
(-0.051168163 -0.028973583 -0.00026430512)
(-0.043067968 -0.028326704 -0.00026140747)
(-0.035121978 -0.026732085 -0.00025299122)
(-0.027578175 -0.024262079 -0.00023967217)
(-0.020667229 -0.021046174 -0.00022236281)
(-0.014588273 -0.017270802 -0.00020218248)
(-0.0094957743 -0.01317716 -0.00018035351)
(-0.0054864668 -0.0090578962 -0.00015817936)
(-0.0025879434 -0.0052522097 -0.0001369479)
(-0.00078446712 -0.0021405419 -0.0001166638)
(-7.6873738e-05 -0.00016054655 -8.9456474e-05)
(-0.00030295355 0.0027365008 -0.00010301257)
(-0.0019754808 0.008498014 -7.1044216e-05)
(-0.0054520904 0.014028432 -4.3896568e-05)
(-0.010217876 0.019021197 -2.3751978e-05)
(-0.015985028 0.023310863 -7.2567526e-06)
(-0.022552582 0.026817933 5.9321504e-06)
(-0.029726899 0.029522146 1.6229299e-05)
(-0.037327849 0.031439479 2.4132565e-05)
(-0.045190552 0.032603099 2.999205e-05)
(-0.053161385 0.03305007 3.4004676e-05)
(-0.061094669 0.032813398 3.6233556e-05)
(-0.068850213 0.031918544 3.6621511e-05)
(-0.076291431 0.030383525 3.5012e-05)
(-0.083284225 0.028221628 3.1178158e-05)
(-0.089696738 0.025445819 2.4857692e-05)
(-0.095400038 0.022074009 1.5792226e-05)
(-0.10026969 0.01813445 3.7696558e-06)
(-0.10418814 0.01367073 -1.13324e-05)
(-0.10704781 0.0087459069 -2.9504629e-05)
(-0.10875482 0.0034454763 -5.0568717e-05)
(-0.10923316 -0.0021210828 -7.4148634e-05)
(-0.10842912 -0.0078203884 -9.9656291e-05)
(-0.106316 -0.013496971 -0.0001262908)
(-0.10289866 -0.018977066 -0.00015306241)
(-0.098217686 -0.024074348 -0.00017883581)
(-0.092352877 -0.028597676 -0.00020239629)
(-0.08542542 -0.032360676 -0.00022253479)
(-0.077598354 -0.035192878 -0.00023814548)
(-0.069074692 -0.036951845 -0.00024832607)
(-0.060092717 -0.037535546 -0.00025246832)
(-0.050918142 -0.036893974 -0.00025032555)
(-0.041833095 -0.035038959 -0.00024204617)
(-0.033122283 -0.032051161 -0.00022816716)
(-0.025057153 -0.028083469 -0.00020956581)
(-0.017879548 -0.023360544 -0.00018736733)
(-0.011786417 -0.018174905 -0.00016283615)
(-0.0069140346 -0.012880342 -0.00013737317)
(-0.0033238232 -0.0078822407 -0.0001124027)
(-0.0010368583 -0.0036261498 -8.7695017e-05)
(-0.00011093449 -0.00060702736 -5.7252835e-05)
(-0.00035168974 0.0038337827 -0.00010770917)
(-0.0022696633 0.011410244 -7.0555151e-05)
(-0.0062274173 0.018427112 -4.0077467e-05)
(-0.011614634 0.024619707 -1.7827127e-05)
(-0.018090138 0.029857261 2.3676369e-07)
(-0.025420771 0.034089541 1.466604e-05)
(-0.033388389 0.037320349 2.6060172e-05)
(-0.041795266 0.039584867 3.507996e-05)
(-0.050464482 0.040931055 4.2186438e-05)
(-0.059234025 0.041406853 4.7640419e-05)
(-0.067952032 0.041052811 5.1529576e-05)
(-0.076473326 0.039899313 5.3787285e-05)
(-0.084656817 0.037967515 5.4218363e-05)
(-0.092363875 0.03527298 5.2532781e-05)
(-0.099457702 0.031831041 4.8385233e-05)
(-0.1058037 0.027662984 4.1419421e-05)
(-0.11127073 0.022802318 3.1315869e-05)
(-0.11573325 0.017300542 1.7841547e-05)
(-0.11907418 0.01123196 8.9886419e-07)
(-0.12118843 0.0046972313 -1.9429013e-05)
(-0.12198712 -0.0021746105 -4.2840756e-05)
(-0.12140218 -0.0092259069 -6.8794957e-05)
(-0.11939156 -0.016271976 -9.6499324e-05)
(-0.11594462 -0.023105019 -0.00012493006)
(-0.11108741 -0.029500267 -0.00015287059)
(-0.10488765 -0.035224591 -0.00017897769)
(-0.097458624 -0.040047536 -0.0002018708)
(-0.088961415 -0.043754531 -0.00022023865)
(-0.079604716 -0.046161725 -0.00023295389)
(-0.069641426 -0.04713158 -0.00023918241)
(-0.059361478 -0.046588003 -0.00023847223)
(-0.049080641 -0.044529548 -0.00023080721)
(-0.039125511 -0.041039213 -0.00021661637)
(-0.029815563 -0.036289524 -0.00019673413)
(-0.021444015 -0.030542199 -0.00017230707)
(-0.014259427 -0.024142509 -0.00014468039)
(-0.0084460762 -0.017509117 -0.00011541414)
(-0.0041057347 -0.011119063 -8.6149043e-05)
(-0.0013000732 -0.0054896845 -5.6490156e-05)
(-0.0001446599 -0.0011817463 -2.2535983e-05)
(-0.00039638833 0.0050786241 -0.00010495996)
(-0.002540779 0.014693338 -6.2481882e-05)
(-0.0069441434 0.023357743 -2.8875982e-05)
(-0.012909118 0.0308605 -4.5745929e-06)
(-0.020045459 0.037116982 1.5105027e-05)
(-0.028090035 0.042116495 3.091215e-05)
(-0.036801798 0.045895344 4.36169e-05)
(-0.045966763 0.048514357 5.4026074e-05)
(-0.055397318 0.050040896 6.2695531e-05)
(-0.064924605 0.050536845 6.9935281e-05)
(-0.074392385 0.05005215 7.5844328e-05)
(-0.083652532 0.048623066 8.0334668e-05)
(-0.092561625 0.046274148 8.3161407e-05)
(-0.10097867 0.043022973 8.3960469e-05)
(-0.10876393 0.038886532 8.2292091e-05)
(-0.1157788 0.033888389 7.7689371e-05)
(-0.12188662 0.028065842 6.9711075e-05)
(-0.12695436 0.021476498 5.7997228e-05)
(-0.13085507 0.014203849 4.232527e-05)
(-0.13347122 0.006361533 2.2664077e-05)
(-0.13469873 -0.0019039674 -7.7873895e-07)
(-0.13445182 -0.010412464 -2.752781e-05)
(-0.13266862 -0.01895112 -5.6811214e-05)
(-0.12931762 -0.027278085 -8.7577339e-05)
(-0.12440421 -0.035128664 -0.00011852368)
(-0.11797744 -0.042224475 -0.00014816046)
(-0.1101361 -0.048285719 -0.00017490291)
(-0.10103327 -0.053046434 -0.00019718714)
(-0.090878482 -0.056272278 -0.00021360085)
(-0.079936249 -0.057779875 -0.00022301549)
(-0.068520196 -0.057456258 -0.00022470274)
(-0.056982074 -0.055276524 -0.00021841762)
(-0.045695675 -0.05131755 -0.00020443339)
(-0.035036447 -0.0457658 -0.00018351857)
(-0.025358824 -0.038917818 -0.00015684631)
(-0.016973603 -0.031173147 -0.00012587508)
(-0.010123071 -0.023020378 -9.2382463e-05)
(-0.0049572761 -0.015016227 -5.8303629e-05)
(-0.0015839029 -0.0077601494 -2.3132141e-05)
(-0.00018000372 -0.0018920008 1.473443e-05)
(-0.00043686859 0.0064585046 -9.3562466e-05)
(-0.0027868234 0.018316718 -4.5585631e-05)
(-0.0075958232 0.028778035 -9.1015293e-06)
(-0.0140885 0.037694536 1.7152175e-05)
(-0.021830593 0.045037772 3.8455807e-05)
(-0.030531972 0.050845785 5.5747965e-05)
(-0.039930936 0.055195171 6.9957799e-05)
(-0.04979904 0.058178579 8.2023286e-05)
(-0.059939577 0.059887378 9.2580779e-05)
(-0.070178475 0.060400613 0.00010197626)
(-0.080356897 0.059779678 0.00011030795)
(-0.090325708 0.058067794 0.00011745539)
(-0.099941212 0.055293242 0.00012311341)
(-0.10906212 0.051475276 0.0001268332)
(-0.11754774 0.046631617 0.00012806866)
(-0.12525715 0.040786621 0.00012622834)
(-0.13204945 0.033979349 0.00012073234)
(-0.13778482 0.026271009 0.0001110734)
(-0.14232645 0.017751364 9.6880241e-05)
(-0.14554343 0.0085438651 7.7980823e-05)
(-0.14731464 -0.0011907225 5.4461123e-05)
(-0.14753356 -0.011252417 2.6698743e-05)
(-0.14611441 -0.021402458 -4.5761418e-06)
(-0.14299953 -0.031365866 -3.8302777e-05)
(-0.13816733 -0.04083726 -7.3099245e-05)
(-0.1316411 -0.049490121 -0.00010731955)
(-0.1234976 -0.056989918 -0.00013914577)
(-0.11387458 -0.063011269 -0.00016671215)
(-0.10297589 -0.067258797 -0.00018825358)
(-0.091072952 -0.069490742 -0.00020226479)
(-0.078500905 -0.06954367 -0.00020765174)
(-0.065648584 -0.067355861 -0.00020385392)
(-0.052941691 -0.062986491 -0.00019091716)
(-0.040819814 -0.056627651 -0.00016949903)
(-0.02970949 -0.048606868 -0.00014078822)
(-0.019996103 -0.039379183 -0.00010638004)
(-0.011992102 -0.029509352 -6.8325815e-05)
(-0.005905991 -0.019644263 -2.8934094e-05)
(-0.0018995836 -0.010479259 1.2374519e-05)
(-0.00021910948 -0.0027504873 5.471443e-05)
(-0.00047275574 0.0079597732 -7.24259e-05)
(-0.0030052764 0.022246441 -1.8744659e-05)
(-0.008175401 0.034640363 2.0332018e-05)
(-0.015139491 0.045065941 4.8412427e-05)
(-0.023424848 0.05355964 7.1327342e-05)
(-0.03271778 0.060216322 9.0197777e-05)
(-0.042738582 0.065159898 0.0001061019)
(-0.053246437 0.068520591 0.00012009593)
(-0.064037305 0.070418239 0.00013288462)
(-0.074933578 0.07095229 0.00014483897)
(-0.085775568 0.070197755 0.00015604649)
(-0.096415007 0.068206046 0.00016634507)
(-0.10670992 0.065009569 0.00017536031)
(-0.11652079 0.060628893 0.00018254885)
(-0.12570795 0.055081394 0.00018724673)
(-0.13413006 0.048390442 0.00018872328)
(-0.14164354 0.040594403 0.00018624105)
(-0.14810292 0.031754974 0.00017912151)
(-0.15336208 0.021964538 0.00016681518)
(-0.15727655 0.011352316 0.00014897301)
(-0.15970692 8.9163666e-05 0.0001255156)
(-0.16052383 -0.011609199 9.670389e-05)
(-0.15961423 -0.023481364 6.3166831e-05)
(-0.1568894 -0.035221376 2.5946707e-05)
(-0.1522946 -0.04648354 -1.3514538e-05)
(-0.14581991 -0.056891151 -5.3417373e-05)
(-0.13751164 -0.06604995 -9.1689975e-05)
(-0.12748326 -0.073566812 -0.00012611708)
(-0.11592443 -0.079073629 -0.00015450621)
(-0.10310625 -0.082255614 -0.00017487816)
(-0.089380701 -0.082882235 -0.00018566159)
(-0.075172607 -0.080837884 -0.00018586642)
(-0.060962821 -0.076148502 -0.00017520914)
(-0.047262816 -0.068999923 -0.00015416195)
(-0.034582892 -0.05974425 -0.00012389401)
(-0.023397264 -0.048892225 -8.614647e-05)
(-0.014103365 -0.037091699 -4.3297407e-05)
(-0.0069813935 -0.025092502 1.8880388e-06)
(-0.0022589932 -0.013702893 5.0035635e-05)
(-0.00026414445 -0.0037760306 9.7594168e-05)
(-0.00050354589 0.0095673459 -4.0580569e-05)
(-0.0031932447 0.026444924 1.9033413e-05)
(-0.0086753223 0.040891694 6.0388948e-05)
(-0.016048344 0.052912067 9.0154354e-05)
(-0.024807136 0.062614813 0.00011465811)
(-0.034618106 0.070158556 0.0001351965)
(-0.045186392 0.0757207 0.00015298752)
(-0.056261011 0.079474281 0.00016919437)
(-0.067632392 0.081571822 0.00018458043)
(-0.079121048 0.082136383 0.00019953357)
(-0.090568127 0.081258836 0.00021412366)
(-0.10182804 0.079000136 0.00022814057)
(-0.11276247 0.075397311 0.0002411341)
(-0.12323575 0.070471936 0.00025245858)
(-0.13311139 0.064239925 0.0002613218)
(-0.14224974 0.056721725 0.00026683943)
(-0.15050654 0.047952259 0.00026809653)
(-0.15773238 0.037990185 0.00026421653)
(-0.16377318 0.026926259 0.00025443729)
(-0.16847167 0.014890665 0.00023819151)
(-0.17167023 0.0020591961 0.00021518901)
(-0.17321553 -0.01134199 0.00018550601)
(-0.17296488 -0.025033404 0.00014963073)
(-0.17079469 -0.038681795 0.00010853401)
(-0.16661146 -0.051903087 6.3678342e-05)
(-0.16036457 -0.064269778 1.6996776e-05)
(-0.1520607 -0.075323952 -2.9178319e-05)
(-0.14177859 -0.08459683 -7.2242221e-05)
(-0.12968275 -0.091635332 -0.00010949864)
(-0.11603371 -0.096035235 -0.00013838381)
(-0.10119218 -0.097479203 -0.00015671284)
(-0.085614608 -0.095776451 -0.00016291859)
(-0.069837663 -0.090899238 -0.0001562479)
(-0.054451121 -0.083010407 -0.00013687455)
(-0.040060962 -0.072476309 -0.00010587957)
(-0.027246335 -0.05986137 -6.5136299e-05)
(-0.016507614 -0.045903368 -1.7395429e-05)
(-0.0082137255 -0.03146971 3.4031834e-05)
(-0.002674305 -0.017501767 8.979755e-05)
(-0.00031729382 -0.0049938396 0.00014351704)
(-0.00052867557 0.011264535 2.8037083e-06)
(-0.0033477077 0.030870797 6.8593093e-05)
(-0.0090879704 0.047473585 0.00011189082)
(-0.016801437 0.061163552 0.00014318966)
(-0.025956662 0.072127709 0.0001692558)
(-0.036203871 0.080594155 0.00019155256)
(-0.047235897 0.086799066 0.00021142895)
(-0.05879376 0.090962953 0.00023014537)
(-0.070664086 0.093274954 0.00024851659)
(-0.082667069 0.093884877 0.00026694241)
(-0.094646267 0.092901769 0.00028547154)
(-0.10646047 0.090397615 0.00030384307)
(-0.11797695 0.086414737 0.00032152788)
(-0.12906597 0.080975539 0.00033777318)
(-0.13959651 0.074093437 0.00035165036)
(-0.14943301 0.065784032 0.00036210849)
(-0.158433 0.056075967 0.00036803541)
(-0.16644564 0.045021107 0.00036832841)
(-0.17331116 0.032703952 0.00036197483)
(-0.17886146 0.019250244 0.00034814146)
(-0.18292211 0.0048347084 0.00032627064)
(-0.18531632 -0.010312287 0.00029618204)
(-0.18587095 -0.025899418 0.00025815752)
(-0.18442518 -0.041571587 0.00021302559)
(-0.18084218 -0.056910279 0.00016220796)
(-0.17502373 -0.0714387 0.00010772822)
(-0.1669274 -0.084633274 5.2164694e-05)
(-0.15658545 -0.09594303 -1.4644206e-06)
(-0.14412386 -0.10481804 -4.9888798e-05)
(-0.12977881 -0.11074716 -8.9841806e-05)
(-0.11390741 -0.11330375 -0.00011836519)
(-0.096988867 -0.11219597 -0.00013312905)
(-0.079612415 -0.10731606 -0.00013272231)
(-0.062449959 -0.098780722 -0.00011685643)
(-0.046214439 -0.086954481 -8.640966e-05)
(-0.031607579 -0.0724495 -4.3340222e-05)
(-0.01925405 -0.056098961 9.1967333e-06)
(-0.0096330869 -0.038903731 6.7248967e-05)
(-0.0031578121 -0.021961553 0.00013147632)
(-0.00038078279 -0.0064355689 0.00019250491)
(-0.00054759425 0.01303304 5.8394357e-05)
(-0.0034658279 0.035479027 0.0001306095)
(-0.009406318 0.054322445 0.0001754943)
(-0.017386253 0.069744624 0.00020816803)
(-0.026854218 0.082015125 0.00023576679)
(-0.037447855 0.091435916 0.00025991116)
(-0.048850394 0.098306267 0.0002820726)
(-0.06079686 0.10289823 0.00030360051)
(-0.073071634 0.10544118 0.00032535659)
(-0.08549597 0.10611474 0.00034775112)
(-0.097917253 0.10504852 0.00037081212)
(-0.11020024 0.10232722 0.00039422929)
(-0.1222196 0.097999332 0.00041739562)
(-0.13385364 0.092088173 0.0004394503)
(-0.14497923 0.084603851 0.00045932387)
(-0.15546762 0.075555394 0.00047578861)
(-0.16518116 0.064962453 0.00048751744)
(-0.17397075 0.052866385 0.0004931541)
(-0.18167429 0.039340696 0.00049139652)
(-0.18811614 0.02450095 0.00048109361)
(-0.19310811 0.0085141877 0.00046135455)
(-0.19645227 -0.0083922693 0.00043166788)
(-0.19794631 -0.025922956 0.00039201899)
(-0.19739169 -0.043708352 0.00034300336)
(-0.19460556 -0.061301911 0.00028591493)
(-0.18943641 -0.078181875 0.00022279552)
(-0.18178368 -0.093759916 0.00015642502)
(-0.17162069 -0.1073989 9.0232866e-05)
(-0.15901935 -0.11844182 2.8116077e-05)
(-0.14417415 -0.12625318 -2.5840332e-05)
(-0.12742131 -0.13027242 -6.772777e-05)
(-0.10924829 -0.13007628 -9.4229256e-05)
(-0.09028812 -0.12544381 -0.00010303109)
(-0.071294373 -0.11641427 -9.3153027e-05)
(-0.053096181 -0.10332625 -6.509284e-05)
(-0.036536257 -0.086827392 -2.0797135e-05)
(-0.022388329 -0.067848558 3.6167563e-05)
(-0.011268705 -0.04754019 0.0001011114)
(-0.0037218239 -0.027182594 0.00017468188)
(-0.000456909 -0.0081393486 0.00024438033)
(-0.00055984002 0.01485312 0.00012667163)
(-0.00354531 0.040221392 0.00020556701)
(-0.0096247354 0.061370199 0.00025167027)
(-0.01779267 0.078573798 0.00028555363)
(-0.027483926 0.092186802 0.00031464793)
(-0.038326883 0.10258804 0.00034071957)
(-0.049997576 0.11014321 0.0003653544)
(-0.062226772 0.11517939 0.00038998455)
(-0.074797903 0.11796951 0.00041551736)
(-0.087534445 0.118726 0.00044237608)
(-0.10028883 0.11760157 0.0004705729)
(-0.11293319 0.11469549 0.00049975411)
(-0.1253513 0.11006367 0.00052924055)
(-0.13743163 0.10373072 0.00055806733)
(-0.14906143 0.095703042 0.00058502432)
(-0.16012175 0.085981723 0.00060870138)
(-0.17048318 0.074575092 0.00062754267)
(-0.18000233 0.061510589 0.0006399141)
(-0.18851912 0.046846182 0.0006441871)
(-0.19585504 0.030681527 0.00063884059)
(-0.20181281 0.01316905 0.00062258176)
(-0.20617783 -0.0054750384 0.00059448372)
(-0.20872219 -0.024960096 0.00055413384)
(-0.20921173 -0.04491162 0.0005017829)
(-0.20741729 -0.064864213 0.00043848187)
(-0.20313055 -0.084258921 0.00036618384)
(-0.19618525 -0.10244749 0.00028778713)
(-0.18648352 -0.11870657 0.00020709139)
(-0.1740264 -0.13226511 0.00012864063)
(-0.15894602 -0.14234759 5.743553e-05)
(-0.14153526 -0.14823416 -1.4838484e-06)
(-0.1222686 -0.14933575 -4.3556831e-05)
(-0.10180686 -0.14527784 -6.5262215e-05)
(-0.080978373 -0.13598104 -6.4618862e-05)
(-0.060733638 -0.12172304 -4.1481985e-05)
(-0.042074126 -0.10316535 2.3812175e-06)
(-0.025950359 -0.08133282 6.3027949e-05)
(-0.013148179 -0.057540251 0.00013494096)
(-0.0043785758 -0.033279247 0.00021873291)
(-0.00054808036 -0.010149799 0.00029867966)
(-0.00056511858 0.01670398 0.00020790641)
(-0.0035847973 0.045047397 0.00029374139)
(-0.0097399174 0.068545474 0.0003406872)
(-0.018014478 0.087565113 0.00037560629)
(-0.027835335 0.10254651 0.00040614298)
(-0.03882448 0.11394691 0.00043419682)
(-0.050652749 0.12220084 0.0004614609)
(-0.063048032 0.12769325 0.00048944657)
(-0.075793822 0.13074375 0.00051910925)
(-0.088716725 0.13160055 0.0005508921)
(-0.10167522 0.13044207 0.00058480111)
(-0.11455008 0.12738438 0.00062045015)
(-0.12723578 0.12249233 0.0006570988)
(-0.13963295 0.11579272 0.00069368728)
(-0.15164178 0.10728829 0.00072887049)
(-0.16315624 0.096971431 0.00076105595)
(-0.17405898 0.084837389 0.00078845116)
(-0.18421683 0.070896874 0.00080912568)
(-0.19347697 0.055188297 0.0008210924)
(-0.2016639 0.037790039 0.00082241201)
(-0.20857761 0.018833062 0.00081132251)
(-0.21399333 -0.0014859721 0.00078639406)
(-0.21766366 -0.022891223 0.0007467069)
(-0.21932382 -0.045014478 0.00069203884)
(-0.21870118 -0.067383491 0.00062305636)
(-0.21553021 -0.089413751 0.00054148009)
(-0.20957399 -0.11040669 0.00045019737)
(-0.20065288 -0.12955805 0.00035328544)
(-0.18868014 -0.14598093 0.00025590525)
(-0.17370265 -0.158748 0.00016403127)
(-0.15594257 -0.16695612 8.3999702e-05)
(-0.13583291 -0.16981362 2.1888452e-05)
(-0.11403725 -0.16674486 -1.721324e-05)
(-0.091442954 -0.15749928 -2.9924542e-05)
(-0.069120207 -0.14224489 -1.5088668e-05)
(-0.048244143 -0.12162197 2.5974916e-05)
(-0.029971678 -0.096736088 8.9050381e-05)
(-0.015296555 -0.069077235 0.00016772574)
(-0.0051401038 -0.040378801 0.00026255685)
(-0.00065685164 -0.012518015 0.00035455139)
(-0.00056338477 0.018564368 0.00030214351)
(-0.0035842976 0.049905654 0.00039518866)
(-0.0097519043 0.07577538 0.00044260188)
(-0.018051063 0.096629989 0.00047837034)
(-0.027905785 0.11299377 0.00051026683)
(-0.038933888 0.12540252 0.00054031068)
(-0.050802483 0.1343611 0.00057029727)
(-0.063237565 0.14031475 0.00060181733)
(-0.076023405 0.14363264 0.00063588161)
(-0.088990433 0.14460174 0.00067296522)
(-0.10200402 0.14342909 0.00071308285)
(-0.11495465 0.14024998 0.00075583211)
(-0.12774898 0.13514019 0.00080042746)
(-0.14030173 0.12813009 0.00084572885)
(-0.15252852 0.11921943 0.00089026778)
(-0.16433943 0.10839183 0.00093227601)
(-0.17563317 0.095628476 0.00096972378)