/*--------------------------------*- C++ -*----------------------------------*\
  =========                 |
  \\      /  F ield         | OpenFOAM: The Open Source CFD Toolbox
   \\    /   O peration     | Website:  https://openfoam.org
    \\  /    A nd           | Version:  7
     \\/     M anipulation  |
\*---------------------------------------------------------------------------*/
FoamFile
{
    version     2.0;
    format      ascii;
    class       volScalarField;
    location    "0.005";
    object      rho;
}
// * * * * * * * * * * * * * * * * * * * * * * * * * * * * * * * * * * * * * //

dimensions      [1 -3 0 0 0 0 0];

internalField   nonuniform List<scalar> 
1000
(
0.997574
0.997574
0.997574
0.997574
0.997574
0.997574
0.997574
0.997574
0.997574
0.997574
0.997574
0.997574
0.997574
0.997574
0.997574
0.997574
0.997574
0.997574
0.997574
0.997574
0.997574
0.997574
0.997574
0.997574
0.997574
0.997574
0.997574
0.997574
0.997574
0.997574
0.997574
0.997574
0.997574
0.997574
0.997574
0.997574
0.997574
0.997574
0.997574
0.997574
0.997574
0.997574
0.997574
0.997574
0.997574
0.997574
0.997574
0.997574
0.997574
0.997574
0.997574
0.997574
0.997574
0.997574
0.997574
0.997574
0.997574
0.997574
0.997574
0.997574
0.997574
0.997574
0.997574
0.997574
0.997574
0.997574
0.997574
0.997574
0.997574
0.997574
0.997574
0.997574
0.997574
0.997574
0.997574
0.997574
0.997574
0.997574
0.997574
0.997574
0.997574
0.997574
0.997574
0.997574
0.997574
0.997574
0.997574
0.997574
0.997574
0.997574
0.997574
0.997574
0.997574
0.997574
0.997574
0.997574
0.997574
0.997574
0.997574
0.997574
0.997574
0.997574
0.997574
0.997574
0.997574
0.997574
0.997574
0.997574
0.997574
0.997574
0.997574
0.997574
0.997574
0.997574
0.997574
0.997574
0.997574
0.997574
0.997574
0.997574
0.997574
0.997574
0.997574
0.997574
0.997574
0.997574
0.997574
0.997574
0.997574
0.997574
0.997574
0.997574
0.997574
0.997574
0.997574
0.997574
0.997574
0.997574
0.997574
0.997574
0.997574
0.997574
0.997574
0.997574
0.997574
0.997574
0.997574
0.997574
0.997574
0.997574
0.997574
0.997574
0.997574
0.997574
0.997574
0.997574
0.997574
0.997574
0.997574
0.997574
0.997574
0.997574
0.997574
0.997574
0.997574
0.997574
0.997574
0.997574
0.997574
0.997574
0.997574
0.997574
0.997574
0.997574
0.997574
0.997574
0.997574
0.997574
0.997574
0.997574
0.997574
0.997574
0.997574
0.997574
0.997574
0.997574
0.997574
0.997574
0.997574
0.997574
0.997574
0.997574
0.997574
0.997574
0.997574
0.997574
0.997574
0.997574
0.997574
0.997574
0.997574
0.997574
0.997574
0.997574
0.997574
0.997574
0.997574
0.997574
0.997574
0.997574
0.997574
0.997574
0.997574
0.997574
0.997574
0.997574
0.997574
0.997574
0.997574
0.997574
0.997574
0.997574
0.997574
0.997574
0.997574
0.997574
0.997574
0.997574
0.997574
0.997574
0.997574
0.997574
0.997574
0.997574
0.997574
0.997574
0.997574
0.997574
0.997574
0.997574
0.997574
0.997574
0.997574
0.997574
0.997574
0.997574
0.997574
0.997574
0.997574
0.997574
0.997574
0.997574
0.997574
0.997574
0.997574
0.997574
0.997574
0.997574
0.997574
0.997574
0.997574
0.997574
0.997574
0.997574
0.997574
0.997574
0.997574
0.997574
0.997574
0.997574
0.997574
0.997573
0.997573
0.997572
0.997571
0.997569
0.997567
0.997564
0.997559
0.997553
0.997544
0.997531
0.997514
0.997491
0.99746
0.997419
0.997365
0.997294
0.997202
0.997085
0.996936
0.99675
0.996518
0.996233
0.995886
0.995468
0.99497
0.994382
0.993694
0.992899
0.991987
0.990952
0.989787
0.988489
0.987053
0.985479
0.983766
0.981915
0.979929
0.977811
0.975566
0.9732
0.970718
0.968128
0.965435
0.962647
0.95977
0.956811
0.953777
0.950674
0.947508
0.944284
0.941009
0.937685
0.934319
0.930914
0.927475
0.924004
0.920505
0.916982
0.913436
0.90987
0.906287
0.902689
0.899077
0.895454
0.89182
0.888178
0.884529
0.880873
0.877213
0.873549
0.869882
0.866214
0.862544
0.858875
0.855206
0.851538
0.847872
0.844209
0.84055
0.836893
0.833242
0.829595
0.825953
0.822317
0.818687
0.815063
0.811447
0.807837
0.804235
0.800641
0.797055
0.793477
0.789908
0.786347
0.782796
0.779254
0.775721
0.772198
0.768684
0.765181
0.761688
0.758205
0.754732
0.75127
0.747818
0.744377
0.740947
0.737527
0.734119
0.730722
0.727335
0.723961
0.720597
0.717244
0.713903
0.710574
0.707256
0.703949
0.700654
0.697371
0.694099
0.690839
0.687591
0.684354
0.68113
0.677917
0.674716
0.671527
0.668349
0.665184
0.66203
0.658889
0.655759
0.652642
0.649534
0.646446
0.643354
0.640304
0.637211
0.634226
0.631096
0.628222
0.625004
0.622283
0.61896
0.616365
0.613025
0.610409
0.607234
0.604428
0.601514
0.598541
0.595745
0.592813
0.589952
0.58714
0.58426
0.581451
0.578652
0.575827
0.573051
0.570281
0.567507
0.564761
0.562028
0.559298
0.556585
0.553891
0.551204
0.548527
0.545871
0.543225
0.540588
0.537971
0.535364
0.532772
0.530193
0.527628
0.52508
0.522542
0.520021
0.517514
0.515023
0.512547
0.510085
0.507641
0.505211
0.5028
0.500403
0.498026
0.495666
0.493323
0.491
0.488695
0.486412
0.484148
0.481906
0.479686
0.477489
0.475316
0.473167
0.471045
0.468949
0.466883
0.464845
0.46284
0.460866
0.458928
0.457025
0.455161
0.453337
0.451555
0.449818
0.448127
0.446486
0.444896
0.443361
0.441883
0.440464
0.439107
0.437814
0.436588
0.43543
0.434342
0.433325
0.432381
0.43151
0.430711
0.429985
0.429328
0.428741
0.42822
0.427762
0.427362
0.427019
0.426725
0.426478
0.426271
0.4261
0.425961
0.425847
0.425757
0.425685
0.425628
0.425583
0.425548
0.425519
0.425496
0.425478
0.425462
0.425448
0.425437
0.425425
0.425416
0.425407
0.425399
0.42539
0.425383
0.425375
0.425369
0.425361
0.425356
0.425348
0.425343
0.425335
0.425331
0.425323
0.425319
0.425311
0.425307
0.425299
0.425295
0.425286
0.425283
0.425274
0.42527
0.42526
0.425257
0.425246
0.425243
0.425232
0.425228
0.425217
0.425213
0.425201
0.425197
0.425185
0.425181
0.425168
0.425163
0.42515
0.425145
0.425131
0.425126
0.425111
0.425106
0.425091
0.425085
0.425069
0.425063
0.425046
0.42504
0.425022
0.425016
0.424997
0.42499
0.42497
0.424963
0.424942
0.424934
0.424912
0.424904
0.424879
0.424871
0.424845
0.424836
0.424809
0.424799
0.42477
0.42476
0.424728
0.424717
0.424683
0.424671
0.424634
0.424622
0.424582
0.424568
0.424524
0.424509
0.424462
0.424445
0.424393
0.424375
0.424317
0.424297
0.424233
0.424211
0.424138
0.424114
0.424033
0.424006
0.423913
0.423882
0.423776
0.42374
0.423617
0.423574
0.423431
0.423382
0.423217
0.423163
0.422988
0.422923
0.422747
0.42269
0.422556
0.422477
0.422241
0.421824
0.420937
0.419465
0.417248
0.414148
0.410061
0.404929
0.398753
0.391594
0.383569
0.374844
0.365623
0.356125
0.346577
0.337193
0.328161
0.31964
0.31175
0.304572
0.29815
0.292495
0.28759
0.283398
0.279865
0.276927
0.274516
0.272563
0.271001
0.269768
0.268805
0.268062
0.267497
0.267071
0.266754
0.266521
0.266351
0.266228
0.26614
0.266077
0.266033
0.266001
0.265979
0.265963
0.265951
0.265941
0.265934
0.265929
0.265924
0.265921
0.265917
0.265915
0.265912
0.26591
0.265908
0.265906
0.265905
0.265903
0.265902
0.265901
0.265899
0.265898
0.265897
0.265896
0.265894
0.265894
0.265893
0.265892
0.265892
0.265891
0.265891
0.265891
0.265891
0.265891
0.26589
0.26589
0.26589
0.26589
0.265889
0.265888
0.265888
0.265887
0.265886
0.265886
0.265885
0.265885
0.265885
0.265884
0.265884
0.265884
0.265884
0.265884
0.265884
0.265884
0.265884
0.265883
0.265883
0.265882
0.265881
0.26588
0.265879
0.265878
0.265878
0.265877
0.265877
0.265877
0.265877
0.265877
0.265877
0.265877
0.265877
0.265876
0.265876
0.265876
0.265875
0.265874
0.265873
0.265872
0.26587
0.265869
0.265868
0.265867
0.265867
0.265867
0.265867
0.265867
0.265867
0.265867
0.265868
0.265866
0.265865
0.265857
0.265852
0.265841
0.265832
0.265799
0.265777
0.265678
0.265618
0.26537
0.265009
0.264183
0.262036
0.257665
0.246625
0.224589
0.192555
0.160793
0.13933
0.129336
0.125951
0.125014
0.124776
0.124716
0.124701
0.124698
0.124697
0.124697
0.124697
0.124697
0.124697
0.124697
0.124697
0.124697
0.124697
0.124697
0.124697
0.124697
0.124697
0.124697
0.124697
0.124697
0.124697
0.124697
0.124697
0.124697
0.124697
0.124697
0.124697
0.124697
0.124697
0.124697
0.124697
0.124697
0.124697
0.124697
0.124697
0.124697
0.124697
0.124697
0.124697
0.124697
0.124697
0.124697
0.124697
0.124697
0.124697
0.124697
0.124697
0.124697
0.124697
0.124697
0.124697
0.124697
0.124697
0.124697
0.124697
0.124697
0.124697
0.124697
0.124697
0.124697
0.124697
0.124697
0.124697
0.124697
0.124697
0.124697
0.124697
0.124697
0.124697
0.124697
0.124697
0.124697
0.124697
0.124697
0.124697
0.124697
0.124697
0.124697
0.124697
0.124697
0.124697
0.124697
0.124697
0.124697
0.124697
0.124697
0.124697
0.124697
0.124697
0.124697
0.124697
0.124697
0.124697
0.124697
0.124697
0.124697
0.124697
0.124697
0.124697
0.124697
0.124697
0.124697
0.124697
0.124697
0.124697
0.124697
0.124697
0.124697
0.124697
0.124697
0.124697
0.124697
0.124697
0.124697
0.124697
0.124697
0.124697
0.124697
0.124697
0.124697
0.124697
0.124697
0.124697
0.124697
0.124697
0.124697
0.124697
0.124697
0.124697
0.124697
0.124697
0.124697
0.124697
0.124697
0.124697
0.124697
0.124697
0.124697
0.124697
0.124697
0.124697
0.124697
0.124697
0.124697
0.124697
0.124697
0.124697
0.124697
0.124697
0.124697
0.124697
0.124697
0.124697
0.124697
0.124697
0.124697
0.124697
0.124697
0.124697
0.124697
0.124697
0.124697
0.124697
0.124697
0.124697
0.124697
0.124697
0.124697
0.124697
0.124697
0.124697
0.124697
0.124697
0.124697
0.124697
0.124697
0.124697
0.124697
0.124697
0.124697
0.124697
0.124697
0.124697
0.124697
0.124697
0.124697
0.124697
0.124697
0.124697
0.124697
0.124697
0.124697
0.124697
0.124697
0.124697
0.124697
0.124697
0.124697
0.124697
0.124697
0.124697
0.124697
0.124697
0.124697
0.124697
0.124697
0.124697
0.124697
0.124697
0.124697
0.124697
0.124697
0.124697
0.124697
0.124697
0.124697
0.124697
0.124697
)
;

boundaryField
{
    sides
    {
        type            calculated;
        value           nonuniform List<scalar> 2(0.124697 0.997574);
    }
    empty
    {
        type            empty;
    }
}


// ************************************************************************* //
