-4.995 	348.432 	7.14778e-13 	100000
-4.994 	348.432 	7.23523e-13 	100000
-4.993 	348.432 	7.32267e-13 	100000
-4.992 	348.432 	7.41012e-13 	100000
-4.991 	348.432 	7.49756e-13 	100000
-4.99 	348.432 	7.58501e-13 	100000
-4.98901 	348.432 	7.67245e-13 	100000
-4.98801 	348.432 	7.7599e-13 	100000
-4.98701 	348.432 	7.84734e-13 	100000
-4.98601 	348.432 	7.93479e-13 	100000
-4.98501 	348.432 	8.02223e-13 	100000
-4.98401 	348.432 	7.96525e-13 	100000
-4.98301 	348.432 	7.90695e-13 	100000
-4.98201 	348.432 	7.84865e-13 	100000
-4.98101 	348.432 	7.79036e-13 	100000
-4.98001 	348.432 	7.73206e-13 	100000
-4.97901 	348.432 	7.67376e-13 	100000
-4.97802 	348.432 	7.61546e-13 	100000
-4.97702 	348.432 	7.55717e-13 	100000
-4.97602 	348.432 	7.49887e-13 	100000
-4.97502 	348.432 	7.44057e-13 	100000
-4.97402 	348.432 	7.25347e-13 	100000
-4.97302 	348.432 	7.06401e-13 	100000
-4.97202 	348.432 	6.87454e-13 	100000
-4.97102 	348.432 	6.68508e-13 	100000
-4.97002 	348.432 	6.49561e-13 	100000
-4.96902 	348.432 	6.30615e-13 	100000
-4.96802 	348.432 	6.11668e-13 	100000
-4.96703 	348.432 	5.92722e-13 	100000
-4.96603 	348.432 	5.73775e-13 	100000
-4.96503 	348.432 	5.54829e-13 	100000
-4.96403 	348.432 	5.41555e-13 	100000
-4.96303 	348.432 	5.28438e-13 	100000
-4.96203 	348.432 	5.15321e-13 	100000
-4.96103 	348.432 	5.02205e-13 	100000
-4.96003 	348.432 	4.89088e-13 	100000
-4.95903 	348.432 	4.75971e-13 	100000
-4.95803 	348.432 	4.62855e-13 	100000
-4.95703 	348.432 	4.49738e-13 	100000
-4.95604 	348.432 	4.36621e-13 	100000
-4.95504 	348.432 	4.23505e-13 	100000
-4.95404 	348.432 	4.42701e-13 	100000
-4.95304 	348.432 	4.63104e-13 	100000
-4.95204 	348.432 	4.83508e-13 	100000
-4.95104 	348.432 	5.03912e-13 	100000
-4.95004 	348.432 	5.24316e-13 	100000
-4.94904 	348.432 	5.4472e-13 	100000
-4.94804 	348.432 	5.65123e-13 	100000
-4.94704 	348.432 	5.85527e-13 	100000
-4.94604 	348.432 	6.05931e-13 	100000
-4.94505 	348.432 	6.26335e-13 	100000
-4.94405 	348.432 	6.13336e-13 	100000
-4.94305 	348.432 	5.98762e-13 	100000
-4.94205 	348.432 	5.84188e-13 	100000
-4.94105 	348.432 	5.69614e-13 	100000
-4.94005 	348.432 	5.5504e-13 	100000
-4.93905 	348.432 	5.40465e-13 	100000
-4.93805 	348.432 	5.25891e-13 	100000
-4.93705 	348.432 	5.11317e-13 	100000
-4.93605 	348.432 	4.96743e-13 	100000
-4.93505 	348.432 	4.82169e-13 	100000
-4.93405 	348.432 	4.86896e-13 	100000
-4.93306 	348.432 	4.92725e-13 	100000
-4.93206 	348.432 	4.98555e-13 	100000
-4.93106 	348.432 	5.04384e-13 	100000
-4.93006 	348.432 	5.10214e-13 	100000
-4.92906 	348.432 	5.16044e-13 	100000
-4.92806 	348.432 	5.21873e-13 	100000
-4.92706 	348.432 	5.27703e-13 	100000
-4.92606 	348.432 	5.33533e-13 	100000
-4.92506 	348.432 	5.39362e-13 	100000
-4.92406 	348.432 	5.21978e-13 	100000
-4.92306 	348.432 	5.03032e-13 	100000
-4.92207 	348.432 	4.84086e-13 	100000
-4.92107 	348.432 	4.65139e-13 	100000
-4.92007 	348.432 	4.46193e-13 	100000
-4.91907 	348.432 	4.27246e-13 	100000
-4.91807 	348.432 	4.083e-13 	100000
-4.91707 	348.432 	3.89353e-13 	100000
-4.91607 	348.432 	3.70407e-13 	100000
-4.91507 	348.432 	3.51461e-13 	100000
-4.91407 	348.432 	3.56857e-13 	100000
-4.91307 	348.432 	3.64144e-13 	100000
-4.91207 	348.432 	3.71431e-13 	100000
-4.91108 	348.432 	3.78718e-13 	100000
-4.91008 	348.432 	3.86005e-13 	100000
-4.90908 	348.432 	3.93293e-13 	100000
-4.90808 	348.432 	4.0058e-13 	100000
-4.90708 	348.432 	4.07867e-13 	100000
-4.90608 	348.432 	4.15154e-13 	100000
-4.90508 	348.432 	4.22441e-13 	100000
-4.90408 	348.432 	4.17675e-13 	100000
-4.90308 	348.432 	4.11845e-13 	100000
-4.90208 	348.432 	4.06016e-13 	100000
-4.90108 	348.432 	4.00186e-13 	100000
-4.90009 	348.432 	3.94356e-13 	100000
-4.89909 	348.432 	3.88527e-13 	100000
-4.89809 	348.432 	3.82697e-13 	100000
-4.89709 	348.432 	3.76867e-13 	100000
-4.89609 	348.432 	3.71038e-13 	100000
-4.89509 	348.432 	3.65208e-13 	100000
-4.89409 	348.432 	3.51422e-13 	100000
-4.89309 	348.432 	3.36848e-13 	100000
-4.89209 	348.432 	3.22273e-13 	100000
-4.89109 	348.432 	3.07699e-13 	100000
-4.89009 	348.432 	2.93125e-13 	100000
-4.8891 	348.432 	2.78551e-13 	100000
-4.8881 	348.432 	2.63977e-13 	100000
-4.8871 	348.432 	2.49403e-13 	100000
-4.8861 	348.432 	2.34828e-13 	100000
-4.8851 	348.432 	2.20254e-13 	100000
-4.8841 	348.432 	2.34566e-13 	100000
-4.8831 	348.432 	2.52055e-13 	100000
-4.8821 	348.432 	2.69544e-13 	100000
-4.8811 	348.432 	2.87033e-13 	100000
-4.8801 	348.432 	3.04522e-13 	100000
-4.8791 	348.432 	3.22011e-13 	100000
-4.87811 	348.432 	3.39499e-13 	100000
-4.87711 	348.432 	3.56988e-13 	100000
-4.87611 	348.432 	3.74477e-13 	100000
-4.87511 	348.432 	3.91966e-13 	100000
-4.87411 	348.432 	3.6916e-13 	100000
-4.87311 	348.432 	3.41469e-13 	100000
-4.87211 	348.432 	3.13778e-13 	100000
-4.87111 	348.432 	2.86087e-13 	100000
-4.87011 	348.432 	2.58396e-13 	100000
-4.86911 	348.432 	2.30705e-13 	100000
-4.86811 	348.432 	2.03014e-13 	100000
-4.86712 	348.432 	1.75323e-13 	100000
-4.86612 	348.432 	1.47632e-13 	100000
-4.86512 	348.432 	1.19941e-13 	100000
-4.86412 	348.432 	1.45006e-13 	100000
-4.86312 	348.432 	1.77069e-13 	100000
-4.86212 	348.432 	2.09132e-13 	100000
-4.86112 	348.432 	2.41196e-13 	100000
-4.86012 	348.432 	2.73259e-13 	100000
-4.85912 	348.432 	3.05322e-13 	100000
-4.85812 	348.432 	3.37385e-13 	100000
-4.85712 	348.432 	3.69449e-13 	100000
-4.85613 	348.432 	4.01512e-13 	100000
-4.85513 	348.432 	4.33575e-13 	100000
-4.85413 	348.432 	4.03232e-13 	100000
-4.85313 	348.432 	3.63882e-13 	100000
-4.85213 	348.432 	3.24531e-13 	100000
-4.85113 	348.432 	2.85181e-13 	100000
-4.85013 	348.432 	2.45831e-13 	100000
-4.84913 	348.432 	2.06481e-13 	100000
-4.84813 	348.432 	1.6713e-13 	100000
-4.84713 	348.432 	1.2778e-13 	100000
-4.84613 	348.432 	8.84298e-14 	100000
-4.84514 	348.432 	4.90795e-14 	100000
-4.84414 	348.432 	6.26689e-14 	100000
-4.84314 	348.432 	8.45301e-14 	100000
-4.84214 	348.432 	1.06391e-13 	100000
-4.84114 	348.432 	1.28253e-13 	100000
-4.84014 	348.432 	1.50114e-13 	100000
-4.83914 	348.432 	1.71975e-13 	100000
-4.83814 	348.432 	1.93836e-13 	100000
-4.83714 	348.432 	2.15697e-13 	100000
-4.83614 	348.432 	2.37559e-13 	100000
-4.83514 	348.432 	2.5942e-13 	100000
-4.83414 	348.432 	2.43861e-13 	100000
-4.83315 	348.432 	2.22e-13 	100000
-4.83215 	348.432 	2.00139e-13 	100000
-4.83115 	348.432 	1.78277e-13 	100000
-4.83015 	348.432 	1.56416e-13 	100000
-4.82915 	348.432 	1.34555e-13 	100000
-4.82815 	348.432 	1.12694e-13 	100000
-4.82715 	348.432 	9.08324e-14 	100000
-4.82615 	348.432 	6.89712e-14 	100000
-4.82515 	348.432 	4.711e-14 	100000
-4.82415 	348.432 	5.48698e-14 	100000
-4.82315 	348.432 	6.79866e-14 	100000
-4.82216 	348.432 	8.11034e-14 	100000
-4.82116 	348.432 	9.42202e-14 	100000
-4.82016 	348.432 	1.07337e-13 	100000
-4.81916 	348.432 	1.20454e-13 	100000
-4.81816 	348.432 	1.33571e-13 	100000
-4.81716 	348.432 	1.46687e-13 	100000
-4.81616 	348.432 	1.59804e-13 	100000
-4.81516 	348.432 	1.72921e-13 	100000
-4.81416 	348.432 	1.73827e-13 	100000
-4.81316 	348.432 	1.72369e-13 	100000
-4.81216 	348.432 	1.70912e-13 	100000
-4.81117 	348.432 	1.69454e-13 	100000
-4.81017 	348.432 	1.67997e-13 	100000
-4.80917 	348.432 	1.66539e-13 	100000
-4.80817 	348.432 	1.65082e-13 	100000
-4.80717 	348.432 	1.63624e-13 	100000
-4.80617 	348.432 	1.62167e-13 	100000
-4.80517 	348.432 	1.60709e-13 	100000
-4.80417 	348.432 	1.68916e-13 	100000
-4.80317 	348.432 	1.79118e-13 	100000
-4.80217 	348.432 	1.89319e-13 	100000
-4.80117 	348.432 	1.99521e-13 	100000
-4.80018 	348.432 	2.09723e-13 	100000
-4.79918 	348.432 	2.19925e-13 	100000
-4.79818 	348.432 	2.30127e-13 	100000
-4.79718 	348.432 	2.40329e-13 	100000
-4.79618 	348.432 	2.50531e-13 	100000
-4.79518 	348.432 	2.60733e-13 	100000
-4.79418 	348.432 	2.73324e-13 	100000
-4.79318 	348.432 	2.86441e-13 	100000
-4.79218 	348.432 	2.99558e-13 	100000
-4.79118 	348.432 	3.12675e-13 	100000
-4.79018 	348.432 	3.25792e-13 	100000
-4.78919 	348.432 	3.38908e-13 	100000
-4.78819 	348.432 	3.52025e-13 	100000
-4.78719 	348.432 	3.65142e-13 	100000
-4.78619 	348.432 	3.78259e-13 	100000
-4.78519 	348.432 	3.91375e-13 	100000
-4.78419 	348.432 	3.80858e-13 	100000
-4.78319 	348.432 	3.64827e-13 	100000
-4.78219 	348.432 	3.48795e-13 	100000
-4.78119 	348.432 	3.32764e-13 	100000
-4.78019 	348.432 	3.16732e-13 	100000
-4.77919 	348.432 	3.00701e-13 	100000
-4.7782 	348.432 	2.84669e-13 	100000
-4.7772 	348.432 	2.68638e-13 	100000
-4.7762 	348.432 	2.52606e-13 	100000
-4.7752 	348.432 	2.36574e-13 	100000
-4.7742 	348.432 	2.36903e-13 	100000
-4.7732 	348.432 	2.41275e-13 	100000
-4.7722 	348.432 	2.45647e-13 	100000
-4.7712 	348.432 	2.50019e-13 	100000
-4.7702 	348.432 	2.54392e-13 	100000
-4.7692 	348.432 	2.58764e-13 	100000
-4.7682 	348.432 	2.63136e-13 	100000
-4.76721 	348.432 	2.67509e-13 	100000
-4.76621 	348.432 	2.71881e-13 	100000
-4.76521 	348.432 	2.76253e-13 	100000
-4.76421 	348.432 	2.58672e-13 	100000
-4.76321 	348.432 	2.35353e-13 	100000
-4.76221 	348.432 	2.12035e-13 	100000
-4.76121 	348.432 	1.88716e-13 	100000
-4.76021 	348.432 	1.65397e-13 	100000
-4.75921 	348.432 	1.42079e-13 	100000
-4.75821 	348.432 	1.1876e-13 	100000
-4.75721 	348.432 	9.54412e-14 	100000
-4.75622 	348.432 	7.21225e-14 	100000
-4.75522 	348.432 	4.88038e-14 	100000
-4.75422 	348.432 	4.94734e-14 	100000
-4.75322 	348.432 	5.67604e-14 	100000
-4.75222 	348.432 	6.40475e-14 	100000
-4.75122 	348.432 	7.13345e-14 	100000
-4.75022 	348.432 	7.86215e-14 	100000
-4.74922 	348.432 	8.59086e-14 	100000
-4.74822 	348.432 	9.31956e-14 	100000
-4.74722 	348.432 	1.00483e-13 	100000
-4.74622 	348.432 	1.0777e-13 	100000
-4.74523 	348.432 	1.15057e-13 	100000
-4.74423 	348.432 	1.22344e-13 	100000
-4.74323 	348.432 	1.29631e-13 	100000
-4.74223 	348.432 	1.36918e-13 	100000
-4.74123 	348.432 	1.44205e-13 	100000
-4.74023 	348.432 	1.51492e-13 	100000
-4.73923 	348.432 	1.5878e-13 	100000
-4.73823 	348.432 	1.66067e-13 	100000
-4.73723 	348.432 	1.73354e-13 	100000
-4.73623 	348.432 	1.80641e-13 	100000
-4.73523 	348.432 	1.87928e-13 	100000
-4.73423 	348.432 	1.79591e-13 	100000
-4.73324 	348.432 	1.66474e-13 	100000
-4.73224 	348.432 	1.53357e-13 	100000
-4.73124 	348.432 	1.4024e-13 	100000
-4.73024 	348.432 	1.27124e-13 	100000
-4.72924 	348.432 	1.14007e-13 	100000
-4.72824 	348.432 	1.0089e-13 	100000
-4.72724 	348.432 	8.77733e-14 	100000
-4.72624 	348.432 	7.46565e-14 	100000
-4.72524 	348.432 	6.15398e-14 	100000
-4.72424 	348.432 	7.15841e-14 	100000
-4.72324 	348.432 	8.90732e-14 	100000
-4.72225 	348.432 	1.06562e-13 	100000
-4.72125 	348.432 	1.24051e-13 	100000
-4.72025 	348.432 	1.4154e-13 	100000
-4.71925 	348.432 	1.59029e-13 	100000
-4.71825 	348.432 	1.76518e-13 	100000
-4.71725 	348.432 	1.94007e-13 	100000
-4.71625 	348.432 	2.11496e-13 	100000
-4.71525 	348.432 	2.28985e-13 	100000
-4.71425 	348.432 	2.15961e-13 	100000
-4.71325 	348.432 	1.92642e-13 	100000
-4.71225 	348.432 	1.69323e-13 	100000
-4.71126 	348.432 	1.46004e-13 	100000
-4.71026 	348.432 	1.22686e-13 	100000
-4.70926 	348.432 	9.9367e-14 	100000
-4.70826 	348.432 	7.60483e-14 	100000
-4.70726 	348.432 	5.27297e-14 	100000
-4.70626 	348.432 	2.9411e-14 	100000
-4.70526 	348.432 	6.09227e-15 	100000
-4.70426 	348.432 	6.4599e-15 	100000
-4.70326 	348.432 	1.52044e-14 	100000
-4.70226 	348.432 	2.39489e-14 	100000
-4.70126 	348.432 	3.26934e-14 	100000
-4.70027 	348.432 	4.14379e-14 	100000
-4.69927 	348.432 	5.01824e-14 	100000
-4.69827 	348.432 	5.89269e-14 	100000
-4.69727 	348.432 	6.76714e-14 	100000
-4.69627 	348.432 	7.64159e-14 	100000
-4.69527 	348.432 	8.51604e-14 	100000
-4.69427 	348.432 	1.0454e-13 	100000
-4.69327 	348.432 	1.27859e-13 	100000
-4.69227 	348.432 	1.51178e-13 	100000
-4.69127 	348.432 	1.74496e-13 	100000
-4.69027 	348.432 	1.97815e-13 	100000
-4.68928 	348.432 	2.21134e-13 	100000
-4.68828 	348.432 	2.44452e-13 	100000
-4.68728 	348.432 	2.67771e-13 	100000
-4.68628 	348.432 	2.9109e-13 	100000
-4.68528 	348.432 	3.14409e-13 	100000
-4.68428 	348.432 	3.14619e-13 	100000
-4.68328 	348.432 	3.05874e-13 	100000
-4.68228 	348.432 	2.9713e-13 	100000
-4.68128 	348.432 	2.88385e-13 	100000
-4.68028 	348.432 	2.79641e-13 	100000
-4.67928 	348.432 	2.70896e-13 	100000
-4.67829 	348.432 	2.62152e-13 	100000
-4.67729 	348.432 	2.53407e-13 	100000
-4.67629 	348.432 	2.44662e-13 	100000
-4.67529 	348.432 	2.35918e-13 	100000
-4.67429 	348.432 	2.58291e-13 	100000
-4.67329 	348.432 	2.93269e-13 	100000
-4.67229 	348.432 	3.28247e-13 	100000
-4.67129 	348.432 	3.63225e-13 	100000
-4.67029 	348.432 	3.98203e-13 	100000
-4.66929 	348.432 	4.33181e-13 	100000
-4.66829 	348.432 	4.68159e-13 	100000
-4.6673 	348.432 	5.03137e-13 	100000
-4.6663 	348.432 	5.38115e-13 	100000
-4.6653 	348.432 	5.73093e-13 	100000
-4.6643 	348.432 	5.74275e-13 	100000
-4.6633 	348.432 	5.61158e-13 	100000
-4.6623 	348.432 	5.48041e-13 	100000
-4.6613 	348.432 	5.34924e-13 	100000
-4.6603 	348.432 	5.21808e-13 	100000
-4.6593 	348.432 	5.08691e-13 	100000
-4.6583 	348.432 	4.95574e-13 	100000
-4.6573 	348.432 	4.82457e-13 	100000
-4.65631 	348.432 	4.69341e-13 	100000
-4.65531 	348.432 	4.56224e-13 	100000
-4.65431 	348.432 	4.64338e-13 	100000
-4.65331 	348.432 	4.81827e-13 	100000
-4.65231 	348.432 	4.99316e-13 	100000
-4.65131 	348.432 	5.16805e-13 	100000
-4.65031 	348.432 	5.34294e-13 	100000
-4.64931 	348.432 	5.51783e-13 	100000
-4.64831 	348.432 	5.69272e-13 	100000
-4.64731 	348.432 	5.86761e-13 	100000
-4.64631 	348.432 	6.0425e-13 	100000
-4.64532 	348.432 	6.21739e-13 	100000
-4.64432 	348.432 	6.1029e-13 	100000
-4.64332 	348.432 	5.85514e-13 	100000
-4.64232 	348.432 	5.60738e-13 	100000
-4.64132 	348.432 	5.35962e-13 	100000
-4.64032 	348.432 	5.11186e-13 	100000
-4.63932 	348.432 	4.8641e-13 	100000
-4.63832 	348.432 	4.61634e-13 	100000
-4.63732 	348.432 	4.36858e-13 	100000
-4.63632 	348.432 	4.12082e-13 	100000
-4.63532 	348.432 	3.87305e-13 	100000
-4.63432 	348.432 	3.76316e-13 	100000
-4.63333 	348.432 	3.71944e-13 	100000
-4.63233 	348.432 	3.67571e-13 	100000
-4.63133 	348.432 	3.63199e-13 	100000
-4.63033 	348.432 	3.58827e-13 	100000
-4.62933 	348.432 	3.54454e-13 	100000
-4.62833 	348.432 	3.50082e-13 	100000
-4.62733 	348.432 	3.4571e-13 	100000
-4.62633 	348.432 	3.41338e-13 	100000
-4.62533 	348.432 	3.36965e-13 	100000
-4.62433 	348.432 	3.34536e-13 	100000
-4.62333 	348.432 	3.33079e-13 	100000
-4.62234 	348.432 	3.31622e-13 	100000
-4.62134 	348.432 	3.30164e-13 	100000
-4.62034 	348.432 	3.28707e-13 	100000
-4.61934 	348.432 	3.27249e-13 	100000
-4.61834 	348.432 	3.25792e-13 	100000
-4.61734 	348.432 	3.24335e-13 	100000
-4.61634 	348.432 	3.22877e-13 	100000
-4.61534 	348.432 	3.2142e-13 	100000
-4.61434 	348.432 	3.06544e-13 	100000
-4.61334 	348.432 	2.84682e-13 	100000
-4.61234 	348.432 	2.62821e-13 	100000
-4.61135 	348.432 	2.4096e-13 	100000
-4.61035 	348.432 	2.19099e-13 	100000
-4.60935 	348.432 	1.97237e-13 	100000
-4.60835 	348.432 	1.75376e-13 	100000
-4.60735 	348.432 	1.53515e-13 	100000
-4.60635 	348.432 	1.31653e-13 	100000
-4.60535 	348.432 	1.09792e-13 	100000
-4.60435 	348.432 	9.83296e-14 	100000
-4.60335 	348.432 	9.24999e-14 	100000
-4.60235 	348.432 	8.66703e-14 	100000
-4.60135 	348.432 	8.08406e-14 	100000
-4.60036 	348.432 	7.5011e-14 	100000
-4.59936 	348.432 	6.91813e-14 	100000
-4.59836 	348.432 	6.33517e-14 	100000
-4.59736 	348.432 	5.7522e-14 	100000
-4.59636 	348.432 	5.16923e-14 	100000
-4.59536 	348.432 	4.58627e-14 	100000
-4.59436 	348.432 	5.30841e-14 	100000
-4.59336 	348.432 	6.76583e-14 	100000
-4.59236 	348.432 	8.22325e-14 	100000
-4.59136 	348.432 	9.68067e-14 	100000
-4.59036 	348.432 	1.11381e-13 	100000
-4.58937 	348.432 	1.25955e-13 	100000
-4.58837 	348.432 	1.40529e-13 	100000
-4.58737 	348.432 	1.55103e-13 	100000
-4.58637 	348.432 	1.69678e-13 	100000
-4.58537 	348.432 	1.84252e-13 	100000
-4.58437 	348.432 	1.85959e-13 	100000
-4.58337 	348.432 	1.80129e-13 	100000
-4.58237 	348.432 	1.74299e-13 	100000
-4.58137 	348.432 	1.6847e-13 	100000
-4.58037 	348.432 	1.6264e-13 	100000
-4.57937 	348.432 	1.5681e-13 	100000
-4.57838 	348.432 	1.50981e-13 	100000
-4.57738 	348.432 	1.45151e-13 	100000
-4.57638 	348.432 	1.39321e-13 	100000
-4.57538 	348.432 	1.33492e-13 	100000
-4.57438 	348.432 	1.26756e-13 	100000
-4.57338 	348.432 	1.19469e-13 	100000
-4.57238 	348.432 	1.12182e-13 	100000
-4.57138 	348.432 	1.04895e-13 	100000
-4.57038 	348.432 	9.76077e-14 	100000
-4.56938 	348.432 	9.03206e-14 	100000
-4.56838 	348.432 	8.30335e-14 	100000
-4.56739 	348.432 	7.57464e-14 	100000
-4.56639 	348.432 	6.84593e-14 	100000
-4.56539 	348.432 	6.11721e-14 	100000
-4.56439 	348.432 	5.9242e-14 	100000
-4.56339 	348.432 	6.06994e-14 	100000
-4.56239 	348.432 	6.21569e-14 	100000
-4.56139 	348.432 	6.36143e-14 	100000
-4.56039 	348.432 	6.50717e-14 	100000
-4.55939 	348.432 	6.65291e-14 	100000
-4.55839 	348.432 	6.79865e-14 	100000
-4.55739 	348.432 	6.9444e-14 	100000
-4.5564 	348.432 	7.09014e-14 	100000
-4.5554 	348.432 	7.23588e-14 	100000
-4.5544 	348.432 	7.7335e-14 	100000
-4.5534 	348.432 	8.46221e-14 	100000
-4.5524 	348.432 	9.19092e-14 	100000
-4.5514 	348.432 	9.91963e-14 	100000
-4.5504 	348.432 	1.06483e-13 	100000
-4.5494 	348.432 	1.1377e-13 	100000
-4.5484 	348.432 	1.21058e-13 	100000
-4.5474 	348.432 	1.28345e-13 	100000
-4.5464 	348.432 	1.35632e-13 	100000
-4.54541 	348.432 	1.42919e-13 	100000
-4.54441 	348.432 	1.38074e-13 	100000
-4.54341 	348.432 	1.24957e-13 	100000
-4.54241 	348.432 	1.1184e-13 	100000
-4.54141 	348.432 	9.87236e-14 	100000
-4.54041 	348.432 	8.56068e-14 	100000
-4.53941 	348.432 	7.24901e-14 	100000
-4.53841 	348.432 	5.93733e-14 	100000
-4.53741 	348.432 	4.62566e-14 	100000
-4.53641 	348.432 	3.31398e-14 	100000
-4.53541 	348.432 	2.00231e-14 	100000
-4.53441 	348.432 	3.16561e-14 	100000
-4.53342 	348.432 	6.08044e-14 	100000
-4.53242 	348.432 	8.99528e-14 	100000
-4.53142 	348.432 	1.19101e-13 	100000
-4.53042 	348.432 	1.48249e-13 	100000
-4.52942 	348.432 	1.77398e-13 	100000
-4.52842 	348.432 	2.06546e-13 	100000
-4.52742 	348.432 	2.35694e-13 	100000
-4.52642 	348.432 	2.64843e-13 	100000
-4.52542 	348.432 	2.93991e-13 	100000
-4.52442 	348.432 	2.94569e-13 	100000
-4.52342 	348.432 	2.74165e-13 	100000
-4.52243 	348.432 	2.53761e-13 	100000
-4.52143 	348.432 	2.33357e-13 	100000
-4.52043 	348.432 	2.12953e-13 	100000
-4.51943 	348.432 	1.9255e-13 	100000
-4.51843 	348.432 	1.72146e-13 	100000
-4.51743 	348.432 	1.51742e-13 	100000
-4.51643 	348.432 	1.31338e-13 	100000
-4.51543 	348.432 	1.10934e-13 	100000
-4.51443 	348.432 	1.07901e-13 	100000
-4.51343 	348.432 	1.18103e-13 	100000
-4.51243 	348.432 	1.28305e-13 	100000
-4.51144 	348.432 	1.38507e-13 	100000
-4.51044 	348.432 	1.48709e-13 	100000
-4.50944 	348.432 	1.58911e-13 	100000
-4.50844 	348.432 	1.69113e-13 	100000
-4.50744 	348.432 	1.79315e-13 	100000
-4.50644 	348.432 	1.89517e-13 	100000
-4.50544 	348.432 	1.99718e-13 	100000
-4.50444 	348.432 	1.95267e-13 	100000
-4.50344 	348.432 	1.79236e-13 	100000
-4.50244 	348.432 	1.63204e-13 	100000
-4.50144 	348.432 	1.47173e-13 	100000
-4.50045 	348.432 	1.31141e-13 	100000
-4.49945 	348.432 	1.1511e-13 	100000
-4.49845 	348.432 	9.9078e-14 	100000
-4.49745 	348.432 	8.30465e-14 	100000
-4.49645 	348.432 	6.70149e-14 	100000
-4.49545 	348.432 	5.09833e-14 	100000
-4.49445 	348.432 	5.3373e-14 	100000
-4.49345 	348.432 	7.08621e-14 	100000
-4.49245 	348.432 	8.83511e-14 	100000
-4.49145 	348.432 	1.0584e-13 	100000
-4.49045 	348.432 	1.23329e-13 	100000
-4.48946 	348.432 	1.40818e-13 	100000
-4.48846 	348.432 	1.58307e-13 	100000
-4.48746 	348.432 	1.75796e-13 	100000
-4.48646 	348.432 	1.93285e-13 	100000
-4.48546 	348.432 	2.10774e-13 	100000
-4.48446 	348.432 	2.10932e-13 	100000
-4.48346 	348.432 	1.96358e-13 	100000
-4.48246 	348.432 	1.81784e-13 	100000
-4.48146 	348.432 	1.67209e-13 	100000
-4.48046 	348.432 	1.52635e-13 	100000
-4.47946 	348.432 	1.38061e-13 	100000
-4.47847 	348.432 	1.23487e-13 	100000
-4.47747 	348.432 	1.08913e-13 	100000
-4.47647 	348.432 	9.43383e-14 	100000
-4.47547 	348.432 	7.97641e-14 	100000
-4.47447 	348.432 	8.14578e-14 	100000
-4.47347 	348.432 	9.74894e-14 	100000
-4.47247 	348.432 	1.13521e-13 	100000
-4.47147 	348.432 	1.29553e-13 	100000
-4.47047 	348.432 	1.45584e-13 	100000
-4.46947 	348.432 	1.61616e-13 	100000
-4.46847 	348.432 	1.77647e-13 	100000
-4.46748 	348.432 	1.93679e-13 	100000
-4.46648 	348.432 	2.09711e-13 	100000
-4.46548 	348.432 	2.25742e-13 	100000
-4.46448 	348.432 	2.23497e-13 	100000
-4.46348 	348.432 	2.04551e-13 	100000
-4.46248 	348.432 	1.85604e-13 	100000
-4.46148 	348.432 	1.66658e-13 	100000
-4.46048 	348.432 	1.47711e-13 	100000
-4.45948 	348.432 	1.28765e-13 	100000
-4.45848 	348.432 	1.09818e-13 	100000
-4.45748 	348.432 	9.0872e-14 	100000
-4.45649 	348.432 	7.19255e-14 	100000
-4.45549 	348.432 	5.29791e-14 	100000
-4.45449 	348.432 	5.94784e-14 	100000
-4.45349 	348.432 	9.00841e-14 	100000
-4.45249 	348.432 	1.2069e-13 	100000
-4.45149 	348.432 	1.51296e-13 	100000
-4.45049 	348.432 	1.81901e-13 	100000
-4.44949 	348.432 	2.12507e-13 	100000
-4.44849 	348.432 	2.43113e-13 	100000
-4.44749 	348.432 	2.73719e-13 	100000
-4.44649 	348.432 	3.04324e-13 	100000
-4.4455 	348.432 	3.3493e-13 	100000
-4.4445 	348.432 	3.3686e-13 	100000
-4.4435 	348.432 	3.10627e-13 	100000
-4.4425 	348.432 	2.84393e-13 	100000
-4.4415 	348.432 	2.5816e-13 	100000
-4.4405 	348.432 	2.31926e-13 	100000
-4.4395 	348.432 	2.05693e-13 	100000
-4.4385 	348.432 	1.79459e-13 	100000
-4.4375 	348.432 	1.53226e-13 	100000
-4.4365 	348.432 	1.26992e-13 	100000
-4.4355 	348.432 	1.00759e-13 	100000
-4.4345 	348.432 	1.00522e-13 	100000
-4.43351 	348.432 	1.26756e-13 	100000
-4.43251 	348.432 	1.52989e-13 	100000
-4.43151 	348.432 	1.79223e-13 	100000
-4.43051 	348.432 	2.05456e-13 	100000
-4.42951 	348.432 	2.3169e-13 	100000
-4.42851 	348.432 	2.57923e-13 	100000
-4.42751 	348.432 	2.84157e-13 	100000
-4.42651 	348.432 	3.1039e-13 	100000
-4.42551 	348.432 	3.36624e-13 	100000
-4.42451 	348.432 	3.44423e-13 	100000
-4.42351 	348.432 	3.32764e-13 	100000
-4.42252 	348.432 	3.21104e-13 	100000
-4.42152 	348.432 	3.09445e-13 	100000
-4.42052 	348.432 	2.97786e-13 	100000
-4.41952 	348.432 	2.86126e-13 	100000
-4.41852 	348.432 	2.74467e-13 	100000
-4.41752 	348.432 	2.62808e-13 	100000
-4.41652 	348.432 	2.51149e-13 	100000
-4.41552 	348.432 	2.39489e-13 	100000
-4.41452 	348.432 	2.43139e-13 	100000
-4.41352 	348.432 	2.63543e-13 	100000
-4.41252 	348.432 	2.83947e-13 	100000
-4.41153 	348.432 	3.04351e-13 	100000
-4.41053 	348.432 	3.24755e-13 	100000
-4.40953 	348.432 	3.45158e-13 	100000
-4.40853 	348.432 	3.65562e-13 	100000
-4.40753 	348.432 	3.85966e-13 	100000
-4.40653 	348.432 	4.0637e-13 	100000
-4.40553 	348.432 	4.26774e-13 	100000
-4.40453 	348.432 	4.29426e-13 	100000
-4.40353 	348.432 	4.11937e-13 	100000
-4.40253 	348.432 	3.94448e-13 	100000
-4.40153 	348.432 	3.76959e-13 	100000
-4.40054 	348.432 	3.5947e-13 	100000
-4.39954 	348.432 	3.41981e-13 	100000
-4.39854 	348.432 	3.24492e-13 	100000
-4.39754 	348.432 	3.07003e-13 	100000
-4.39654 	348.432 	2.89514e-13 	100000
-4.39554 	348.432 	2.72025e-13 	100000
-4.39454 	348.432 	2.53866e-13 	100000
-4.39354 	348.432 	2.3492e-13 	100000
-4.39254 	348.432 	2.15973e-13 	100000
-4.39154 	348.432 	1.97027e-13 	100000
-4.39054 	348.432 	1.7808e-13 	100000
-4.38955 	348.432 	1.59134e-13 	100000
-4.38855 	348.432 	1.40188e-13 	100000
-4.38755 	348.432 	1.21241e-13 	100000
-4.38655 	348.432 	1.02295e-13 	100000
-4.38555 	348.432 	8.33485e-14 	100000
-4.38455 	348.432 	8.27839e-14 	100000
-4.38355 	348.432 	1.04645e-13 	100000
-4.38255 	348.432 	1.26506e-13 	100000
-4.38155 	348.432 	1.48368e-13 	100000
-4.38055 	348.432 	1.70229e-13 	100000
-4.37955 	348.432 	1.9209e-13 	100000
-4.37856 	348.432 	2.13951e-13 	100000
-4.37756 	348.432 	2.35813e-13 	100000
-4.37656 	348.432 	2.57674e-13 	100000
-4.37556 	348.432 	2.79535e-13 	100000
-4.37456 	348.432 	2.85312e-13 	100000
-4.37356 	348.432 	2.70738e-13 	100000
-4.37256 	348.432 	2.56164e-13 	100000
-4.37156 	348.432 	2.4159e-13 	100000
-4.37056 	348.432 	2.27016e-13 	100000
-4.36956 	348.432 	2.12442e-13 	100000
-4.36856 	348.432 	1.97867e-13 	100000
-4.36757 	348.432 	1.83293e-13 	100000
-4.36657 	348.432 	1.68719e-13 	100000
-4.36557 	348.432 	1.54145e-13 	100000
-4.36457 	348.432 	1.49024e-13 	100000
-4.36357 	348.432 	1.56311e-13 	100000
-4.36257 	348.432 	1.63598e-13 	100000
-4.36157 	348.432 	1.70886e-13 	100000
-4.36057 	348.432 	1.78173e-13 	100000
-4.35957 	348.432 	1.8546e-13 	100000
-4.35857 	348.432 	1.92747e-13 	100000
-4.35757 	348.432 	2.00034e-13 	100000
-4.35658 	348.432 	2.07321e-13 	100000
-4.35558 	348.432 	2.14608e-13 	100000
-4.35458 	348.432 	2.16959e-13 	100000
-4.35358 	348.432 	2.12586e-13 	100000
-4.35258 	348.432 	2.08214e-13 	100000
-4.35158 	348.432 	2.03842e-13 	100000
-4.35058 	348.432 	1.9947e-13 	100000
-4.34958 	348.432 	1.95097e-13 	100000
-4.34858 	348.432 	1.90725e-13 	100000
-4.34758 	348.432 	1.86353e-13 	100000
-4.34658 	348.432 	1.81981e-13 	100000
-4.34559 	348.432 	1.77608e-13 	100000
-4.34459 	348.432 	1.84712e-13 	100000
-4.34359 	348.432 	2.0803e-13 	100000
-4.34259 	348.432 	2.31349e-13 	100000
-4.34159 	348.432 	2.54667e-13 	100000
-4.34059 	348.432 	2.77986e-13 	100000
-4.33959 	348.432 	3.01305e-13 	100000
-4.33859 	348.432 	3.24623e-13 	100000
-4.33759 	348.432 	3.47942e-13 	100000
-4.33659 	348.432 	3.7126e-13 	100000
-4.33559 	348.432 	3.94579e-13 	100000
-4.33459 	348.432 	4.03126e-13 	100000
-4.3336 	348.432 	3.9001e-13 	100000
-4.3326 	348.432 	3.76893e-13 	100000
-4.3316 	348.432 	3.63776e-13 	100000
-4.3306 	348.432 	3.5066e-13 	100000
-4.3296 	348.432 	3.37543e-13 	100000
-4.3286 	348.432 	3.24426e-13 	100000
-4.3276 	348.432 	3.1131e-13 	100000
-4.3266 	348.432 	2.98193e-13 	100000
-4.3256 	348.432 	2.85076e-13 	100000
-4.3246 	348.432 	2.81781e-13 	100000
-4.3236 	348.432 	2.9344e-13 	100000
-4.32261 	348.432 	3.05099e-13 	100000
-4.32161 	348.432 	3.16759e-13 	100000
-4.32061 	348.432 	3.28418e-13 	100000
-4.31961 	348.432 	3.40077e-13 	100000
-4.31861 	348.432 	3.51736e-13 	100000
-4.31761 	348.432 	3.63396e-13 	100000
-4.31661 	348.432 	3.75055e-13 	100000
-4.31561 	348.432 	3.86714e-13 	100000
-4.31461 	348.432 	3.97245e-13 	100000
-4.31361 	348.432 	4.05989e-13 	100000
-4.31261 	348.432 	4.14734e-13 	100000
-4.31162 	348.432 	4.23478e-13 	100000
-4.31062 	348.432 	4.32223e-13 	100000
-4.30962 	348.432 	4.40967e-13 	100000
-4.30862 	348.432 	4.49712e-13 	100000
-4.30762 	348.432 	4.58456e-13 	100000
-4.30662 	348.432 	4.67201e-13 	100000
-4.30562 	348.432 	4.75945e-13 	100000
-4.30462 	348.432 	4.78072e-13 	100000
-4.30362 	348.432 	4.69328e-13 	100000
-4.30262 	348.432 	4.60583e-13 	100000
-4.30162 	348.432 	4.51839e-13 	100000
-4.30063 	348.432 	4.43094e-13 	100000
-4.29963 	348.432 	4.3435e-13 	100000
-4.29863 	348.432 	4.25605e-13 	100000
-4.29763 	348.432 	4.16861e-13 	100000
-4.29663 	348.432 	4.08116e-13 	100000
-4.29563 	348.432 	3.99372e-13 	100000
-4.29463 	348.432 	4.00855e-13 	100000
-4.29363 	348.432 	4.19802e-13 	100000
-4.29263 	348.432 	4.38748e-13 	100000
-4.29163 	348.432 	4.57695e-13 	100000
-4.29063 	348.432 	4.76641e-13 	100000
-4.28964 	348.432 	4.95587e-13 	100000
-4.28864 	348.432 	5.14534e-13 	100000
-4.28764 	348.432 	5.3348e-13 	100000
-4.28664 	348.432 	5.52427e-13 	100000
-4.28564 	348.432 	5.71373e-13 	100000
-4.28464 	348.432 	5.69837e-13 	100000
-4.28364 	348.432 	5.31944e-13 	100000
-4.28264 	348.432 	4.94051e-13 	100000
-4.28164 	348.432 	4.56158e-13 	100000
-4.28064 	348.432 	4.18265e-13 	100000
-4.27964 	348.432 	3.80373e-13 	100000
-4.27865 	348.432 	3.4248e-13 	100000
-4.27765 	348.432 	3.04587e-13 	100000
-4.27665 	348.432 	2.66694e-13 	100000
-4.27565 	348.432 	2.28801e-13 	100000
-4.27465 	348.432 	2.16e-13 	100000
-4.27365 	348.432 	2.4952e-13 	100000
-4.27265 	348.432 	2.83041e-13 	100000
-4.27165 	348.432 	3.16561e-13 	100000
-4.27065 	348.432 	3.50082e-13 	100000
-4.26965 	348.432 	3.83603e-13 	100000
-4.26865 	348.432 	4.17123e-13 	100000
-4.26766 	348.432 	4.50644e-13 	100000
-4.26666 	348.432 	4.84164e-13 	100000
-4.26566 	348.432 	5.17685e-13 	100000
-4.26466 	348.432 	5.38233e-13 	100000
-4.26366 	348.432 	5.33861e-13 	100000
-4.26266 	348.432 	5.29489e-13 	100000
-4.26166 	348.432 	5.25116e-13 	100000
-4.26066 	348.432 	5.20744e-13 	100000
-4.25966 	348.432 	5.16372e-13 	100000
-4.25866 	348.432 	5.12e-13 	100000
-4.25766 	348.432 	5.07627e-13 	100000
-4.25667 	348.432 	5.03255e-13 	100000
-4.25567 	348.432 	4.98883e-13 	100000
-4.25467 	348.432 	4.90138e-13 	100000
-4.25367 	348.432 	4.72649e-13 	100000
-4.25267 	348.432 	4.5516e-13 	100000
-4.25167 	348.432 	4.37672e-13 	100000
-4.25067 	348.432 	4.20183e-13 	100000
-4.24967 	348.432 	4.02694e-13 	100000
-4.24867 	348.432 	3.85205e-13 	100000
-4.24767 	348.432 	3.67716e-13 	100000
-4.24667 	348.432 	3.50227e-13 	100000
-4.24568 	348.432 	3.32738e-13 	100000
-4.24468 	348.432 	3.24702e-13 	100000
-4.24368 	348.432 	3.36362e-13 	100000
-4.24268 	348.432 	3.48021e-13 	100000
-4.24168 	348.432 	3.5968e-13 	100000
-4.24068 	348.432 	3.7134e-13 	100000
-4.23968 	348.432 	3.82999e-13 	100000
-4.23868 	348.432 	3.94658e-13 	100000
-4.23768 	348.432 	4.06317e-13 	100000
-4.23668 	348.432 	4.17977e-13 	100000
-4.23568 	348.432 	4.29636e-13 	100000
-4.23468 	348.432 	4.31645e-13 	100000
-4.23369 	348.432 	4.12698e-13 	100000
-4.23269 	348.432 	3.93752e-13 	100000
-4.23169 	348.432 	3.74806e-13 	100000
-4.23069 	348.432 	3.55859e-13 	100000
-4.22969 	348.432 	3.36913e-13 	100000
-4.22869 	348.432 	3.17966e-13 	100000
-4.22769 	348.432 	2.9902e-13 	100000
-4.22669 	348.432 	2.80073e-13 	100000
-4.22569 	348.432 	2.61127e-13 	100000
-4.22469 	348.432 	2.52448e-13 	100000
-4.22369 	348.432 	2.67022e-13 	100000