/*--------------------------------*- C++ -*----------------------------------*\
  =========                 |
  \\      /  F ield         | OpenFOAM: The Open Source CFD Toolbox
   \\    /   O peration     | Website:  https://openfoam.org
    \\  /    A nd           | Version:  7
     \\/     M anipulation  |
\*---------------------------------------------------------------------------*/
FoamFile
{
    version     2.0;
    format      ascii;
    class       volScalarField;
    location    "3.29";
    object      T;
}
// * * * * * * * * * * * * * * * * * * * * * * * * * * * * * * * * * * * * * //

dimensions      [0 0 0 1 0 0 0];

internalField   nonuniform List<scalar> 
1000
(
0
0
0
0
0
0
0
0
0
0
0
0
0
0
0
0
0
0
0
0
0
0
0
0
0
0
0
0
0
0
0
0
0
0
0
0
0
0
0
0
0
0
0
0
0
0
0
0
0
0
0
0
0
0
0
0
0
0
0
0
0
0
0
0
0
0
0
0
0
0
0
0
0
0
0
0
0
0
0
0
0
0
0
0
0
0
0
0
0
0
0
0
0
0
0
0
0
0
0
0
0
0
0
0
0
0
0
0
0
0
0
0
0
0
0
0
0
0
0
0
0
-7.6453e-298
1.13112e-294
-8.33383e-292
4.0769e-289
-1.48974e-286
4.33713e-284
-1.04792e-281
2.16127e-279
-3.88413e-277
6.1789e-275
-8.80938e-273
1.13698e-270
-1.33944e-268
1.45037e-266
-1.45206e-264
1.35098e-262
-1.17327e-260
9.54813e-259
-7.30646e-257
5.27345e-255
-3.59977e-253
2.32982e-251
-1.43289e-249
8.39133e-248
-4.688e-246
2.50279e-244
-1.27887e-242
6.26358e-241
-2.9444e-239
1.33012e-237
-5.78105e-236
2.42e-234
-9.76688e-233
3.80398e-231
-1.43102e-229
5.20409e-228
-1.83093e-226
6.23661e-225
-2.05815e-223
6.58483e-222
-2.04371e-220
6.15687e-219
-1.80138e-217
5.12141e-216
-1.41556e-214
3.80567e-213
-9.95619e-212
2.53574e-210
-6.2899e-209
1.52013e-207
-3.58079e-206
8.22417e-205
-1.84234e-203
4.02673e-202
-8.58963e-201
1.78881e-199
-3.63788e-198
7.22669e-197
-1.40266e-195
2.66068e-194
-4.93361e-193
8.9447e-192
-1.58594e-190
2.75056e-189
-4.66713e-188
7.74917e-187
-1.25926e-185
2.00309e-184
-3.1195e-183
4.757e-182
-7.10406e-181
1.03912e-179
-1.48891e-178
2.0901e-177
-2.87483e-176
3.8748e-175
-5.11827e-174
6.62637e-173
-8.40901e-172
1.04608e-170
-1.27577e-169
1.52542e-168
-1.78834e-167
2.05577e-166
-2.31731e-165
2.56152e-164
-2.77671e-163
2.95185e-162
-3.07751e-161
3.14667e-160
-3.15538e-159
3.10315e-158
-2.99296e-157
2.831e-156
-2.62608e-155
2.38887e-154
-2.13097e-153
1.86397e-152
-1.59865e-151
1.34428e-150
-1.1082e-149
8.95556e-149
-7.09373e-148
5.50697e-147
-4.1894e-146
3.1227e-145
-2.28024e-144
1.6309e-143
-1.14231e-142
7.8336e-142
-5.25844e-141
3.45427e-140
-2.21992e-139
1.39528e-138
-8.57384e-138
5.14884e-137
-3.02048e-136
1.73006e-135
-9.67014e-135
5.27132e-134
-2.80039e-133
1.44873e-132
-7.2916e-132
3.5667e-131
-1.69347e-130
7.79307e-130
-3.46964e-129
1.49125e-128
-6.17025e-128
2.44901e-127
-9.27969e-127
3.33437e-126
-1.12481e-125
3.5048e-125
-9.7885e-125
2.2885e-124
-3.52265e-124
-3.08428e-124
5.58977e-123
-2.98739e-122
1.16435e-121
-3.63448e-121
8.78424e-121
-1.2508e-120
-1.89644e-120
2.28747e-119
-1.05001e-118
3.36449e-118
-7.52774e-118
6.73768e-118
3.73575e-117
-2.53361e-116
9.17333e-116
-2.17177e-115
2.11402e-115
9.73574e-115
-6.55261e-114
2.19751e-113
-4.31881e-113
2.47749e-114
3.69153e-112
-1.66728e-111
4.13758e-111
-3.63764e-111
-1.96981e-110
1.14168e-109
-3.11604e-109
3.33856e-109
1.21724e-108
-7.63045e-108
2.03548e-107
-1.8038e-107
-9.35037e-107
5.00131e-106
-1.1441e-105
3.3027e-106
7.68927e-105
-3.03717e-104
4.95189e-104
5.65537e-104
-5.70577e-103
1.53388e-102
-9.47693e-103
-8.16452e-102
3.38622e-101
-5.06882e-101
-8.21113e-101
6.23672e-100
-1.36265e-99
-2.14005e-100
1.02215e-98
-2.91472e-98
1.53928e-98
1.55545e-97
-5.52468e-97
5.12259e-97
2.28741e-96
-9.73468e-96
1.12839e-95
3.39472e-95
-1.63662e-94
2.05713e-94
5.28937e-94
-2.65979e-93
3.26814e-93
8.79907e-93
-4.18878e-92
4.51222e-92
1.53676e-91
-6.3462e-91
5.09472e-91
2.71297e-90
-9.09523e-90
3.58259e-90
4.65312e-89
-1.19804e-88
-2.39596e-89
7.49797e-88
-1.37687e-87
-1.58773e-87
1.10073e-86
-1.21737e-86
-3.92304e-86
1.4172e-85
-4.09358e-86
-7.1331e-85
1.49325e-84
1.30373e-84
-1.03789e-83
1.04671e-83
3.84904e-83
-1.18794e-82
-1.41484e-83
6.49891e-82
-9.31424e-82
-1.97556e-81
7.77916e-81
-1.21698e-81
-3.81014e-80
5.99885e-80
1.0972e-79
-4.50866e-79
5.24196e-80
2.17213e-78
-3.04242e-78
-6.84431e-78
2.32731e-77
5.14759e-78
-1.18322e-76
1.12112e-76
4.37054e-76
-1.01512e-75
-9.58999e-76
5.76891e-75
-1.5092e-75
-2.51702e-74
3.18222e-74
8.44181e-74
-2.24245e-73
-1.75564e-73
1.16544e-72
-2.33736e-73
-4.98003e-72
5.16206e-72
1.77124e-71
-3.64558e-71
-4.91057e-71
1.93871e-70
7.12587e-71
-8.77694e-70
2.92202e-70
3.51426e-69
-3.46106e-69
-1.25457e-68
2.1828e-68
3.92794e-68
-1.11379e-67
-1.01013e-67
5.04194e-67
1.59296e-67
-2.10077e-66
3.1688e-67
8.20943e-66
-4.65738e-66
-3.04239e-65
2.96545e-65
1.07696e-64
-1.51111e-64
-3.65967e-64
6.88196e-64
1.19848e-63
-2.92101e-63
-3.79581e-63
1.18019e-62
1.16751e-62
-4.59655e-62
-3.50873e-62
1.74008e-61
1.04075e-61
-6.43964e-61
-3.09794e-61
2.33916e-60
9.48517e-61
-8.36283e-60
-3.07482e-60
2.94738e-59
1.07769e-59
-1.02459e-58
-4.08228e-59
3.51157e-58
1.63592e-58
-1.18477e-57
-6.73857e-58
3.92485e-57
2.78473e-57
-1.27166e-56
-1.13597e-56
4.00742e-56
4.53e-56
-1.21846e-55
-1.7557e-55
3.53091e-55
6.58773e-55
-9.55326e-55
-2.38518e-54
2.3172e-54
8.30318e-54
-4.5322e-54
-2.76615e-53
4.07677e-54
8.76001e-53
2.19277e-53
-2.60997e-52
-1.77872e-52
7.18907e-52
8.66164e-52
-1.76998e-51
-3.46087e-51
3.58881e-51
1.2158e-50
-4.28371e-51
-3.82578e-50
-8.53181e-51
1.07281e-49
8.71694e-50
-2.59791e-49
-4.10067e-49
4.92926e-49
1.48873e-48
-4.40336e-49
-4.52228e-48
-1.81228e-48
1.14907e-47
1.31626e-47
-2.26684e-47
-5.31534e-47
2.33037e-47
1.64235e-46
6.23056e-47
-4.00546e-46
-4.88252e-46
6.92212e-46
1.8877e-45
-2.88899e-46
-5.30471e-45
-3.78753e-45
1.08039e-44
1.95912e-44
-1.09266e-44
-6.1433e-44
-2.80562e-44
1.33997e-43
1.99821e-43
-1.55095e-43
-6.66011e-43
-2.57001e-43
1.44866e-42
2.11645e-42
-1.52074e-42
-6.92892e-42
-3.40302e-42
1.38211e-41
2.32957e-41
-9.32404e-42
-6.81347e-41
-5.21335e-41
1.10136e-40
2.52586e-40
1.75924e-41
-5.97519e-40
-7.37763e-40
5.8535e-40
2.48114e-39
1.55818e-39
-4.08735e-39
-8.7269e-39
-9.74746e-40
1.95967e-38
2.69025e-38
-1.23912e-38
-7.93971e-38
-7.3092e-38
9.15483e-38
2.91209e-37
1.71037e-37
-4.50406e-37
-1.00257e-36
-3.14809e-37
1.88646e-36
3.3224e-36
2.74319e-37
-7.23244e-36
-1.0819e-35
1.13258e-36
2.62342e-35
3.52436e-35
-8.21807e-36
-9.1622e-35
-1.16469e-34
3.31518e-35
3.10781e-34
3.93498e-34
-9.7695e-35
-1.02585e-33
-1.35866e-33
1.74906e-34
3.2806e-33
4.75466e-33
2.65383e-34
-1.00433e-32
-1.66301e-32
-4.72007e-33
2.87568e-32
5.71308e-32
3.0886e-32
-7.34501e-32
-1.88907e-31
-1.55787e-31
1.47693e-31
5.86127e-31
6.76272e-31
-1.08525e-31
-1.64174e-30
-2.60219e-30
-9.96774e-31
3.83464e-30
8.86662e-30
7.46219e-30
-5.67245e-30
-2.60261e-29
-3.46251e-29
-7.13236e-30
6.05785e-29
1.25532e-28
1.01653e-28
-7.8416e-29
-3.59938e-28
-5.03863e-28
-1.82658e-28
7.18429e-28
1.74034e-27
1.7899e-27
-2.45096e-28
-4.22575e-27
-7.61469e-27
-5.86273e-27
4.55734e-27
2.11513e-26
3.1917e-26
1.86449e-26
-2.97463e-26
-9.79493e-26
-1.33366e-25
-6.31697e-26
1.50476e-25
4.3542e-25
5.70704e-25
2.58311e-25
-6.56419e-25
-1.88477e-24
-2.52701e-24
-1.32751e-24
2.47516e-24
7.91848e-24
1.1478e-23
7.77371e-24
-7.31601e-24
-3.15953e-23
-5.21636e-23
-4.62276e-23
8.55366e-24
1.13888e-22
2.28579e-22
2.60989e-22
9.68236e-23
-3.26723e-22
-9.16529e-22
-1.34443e-21
-1.08144e-21
3.72915e-22
3.05858e-21
6.06204e-21
7.28329e-21
3.88984e-21
-6.22511e-21
-2.21049e-20
-3.73936e-20
-3.97073e-20
-1.3802e-20
5.00932e-20
1.4372e-19
2.28741e-19
2.34008e-19
7.28911e-20
-3.11862e-19
-8.79444e-19
-1.42109e-18
-1.53343e-18
-6.93445e-19
1.51593e-18
5.02847e-18
8.85626e-18
1.08021e-17
7.64153e-18
-3.88959e-18
-2.51216e-17
-5.27164e-17
-7.60331e-17
-7.62025e-17
-2.9053e-17
8.60905e-17
2.71029e-16
4.88882e-16
6.46335e-16
5.89318e-16
1.2714e-16
-9.00504e-16
-2.50736e-15
-4.40746e-15
-5.86633e-15
-5.63415e-15
-2.07056e-15
6.41718e-15
2.05336e-14
3.88642e-14
5.64511e-14
6.36396e-14
4.59674e-14
-1.38708e-14
-1.30878e-13
-3.08634e-13
-5.263e-13
-7.23504e-13
-7.87315e-13
-5.48515e-13
2.02562e-13
1.66843e-12
3.95356e-12
6.92392e-12
1.00228e-11
1.20699e-11
1.10993e-11
4.33263e-12
-1.15786e-11
-3.9871e-11
-8.23667e-11
-1.374e-10
-1.96926e-10
-2.4298e-10
-2.43973e-10
-1.51839e-10
9.8344e-11
5.83798e-10
1.38133e-09
2.54243e-09
4.05188e-09
5.76575e-09
7.32629e-09
8.05461e-09
6.82775e-09
1.95669e-09
-8.90433e-09
-2.87669e-08
-6.11586e-08
-1.09703e-07
-1.7727e-07
-2.64499e-07
-3.67405e-07
-4.73741e-07
-5.57686e-07
-5.72346e-07
-4.3947e-07
-3.56926e-08
8.25467e-07
2.41671e-06
5.12603e-06
9.49278e-06
1.62515e-05
2.63845e-05
4.11843e-05
6.23254e-05
9.19482e-05
0.000132752
0.000188101
0.000262137
0.000359907
0.000487493
0.000652153
0.000862461
0.00112845
0.00146176
0.00187576
0.00238568
0.00300873
0.00376416
0.00467334
0.00575983
0.00704931
0.0085696
0.0103506
0.0124239
0.0148233
0.0175836
0.0207412
0.0243333
0.0283978
0.0329726
0.0380955
0.0438036
0.0501326
0.0571166
0.0647874
0.0731741
0.0823025
0.0921946
0.102868
0.114337
0.126608
0.139686
0.153567
0.168243
0.183699
0.199917
0.216869
0.234525
0.252848
0.271795
0.291319
0.311368
0.331888
0.352819
0.3741
0.395666
0.417451
0.439388
0.46141
0.483449
0.50544
0.527315
0.549013
0.570471
0.591632
0.612441
0.632847
0.652801
0.672261
0.691188
0.709547
0.727308
0.744447
0.760942
0.776777
0.791941
0.806425
0.820226
0.833344
0.845784
0.857551
0.868657
0.879113
0.888935
0.898141
0.90675
0.914782
0.922259
0.929205
0.935642
0.941597
0.947092
0.952153
0.956804
0.96107
0.964974
0.968539
0.971788
0.974743
0.977423
0.97985
0.98204
0.984011
0.98578
0.987359
0.988763
0.990001
0.991084
0.992019
0.992811
0.993465
0.993981
0.994359
0.994595
0.994684
0.994618
0.994385
0.993972
0.993364
0.99254
0.991481
0.990162
0.988556
0.986635
0.984368
0.981722
0.978664
0.975157
0.971167
0.966656
0.961588
0.955927
0.949638
0.942689
0.935048
0.926686
0.91758
0.907706
0.897048
0.885593
0.873332
0.860264
0.846392
0.831722
0.816271
0.800059
0.78311
0.765458
0.747138
0.728194
0.708672
0.688624
0.668105
0.647175
0.625895
0.60433
0.582546
0.560609
0.538588
0.516549
0.494559
0.472684
0.450986
0.429528
0.408367
0.387558
0.367153
0.347198
0.327738
0.308812
0.290453
0.272691
0.255553
0.239058
0.223223
0.208059
0.193575
0.179774
0.166656
0.154216
0.142449
0.131343
0.120887
0.111065
0.101859
0.0932502
0.0852184
0.0777411
0.0707956
0.0643578
0.0584036
0.0529084
0.0478475
0.0431963
0.0389305
0.0350262
0.0314601
0.0282094
0.0252521
0.0225671
0.020134
0.0179336
0.0159474
0.014158
0.0125489
0.0111047
0.00981083
0.00865387
0.0076212
0.00670113
0.00588285
0.00515642
0.00451264
0.00394313
0.0034402
0.00299681
0.0026066
0.00226377
0.00196307
0.00169977
0.0014696
0.00126871
0.00109368
0.00094142
0.000809178
0.000694509
0.000595234
0.000509421
0.000435362
0.000371544
0.000316637
0.000269468
0.000229008
0.000194354
0.000164719
0.000139412
0.000117834
9.94616e-05
8.38414e-05
7.05804e-05
5.93383e-05
4.98212e-05
4.17759e-05
3.49843e-05
2.92589e-05
2.44391e-05
2.03872e-05
1.69855e-05
1.41336e-05
1.17457e-05
9.74906e-06
8.0818e-06
6.6914e-06
5.53342e-06
4.57024e-06
3.77015e-06
3.10637e-06
2.55639e-06
2.10128e-06
1.72514e-06
1.41466e-06
1.1587e-06
9.47943e-07
7.74623e-07
6.32263e-07
5.15473e-07
4.19778e-07
3.4146e-07
2.77441e-07
2.25171e-07
1.82545e-07
1.47825e-07
1.19576e-07
9.66191e-08
7.79845e-08
6.28755e-08
5.06392e-08
4.07395e-08
3.27462e-08
2.62543e-08
2.12745e-08
1.5654e-08
)
;

boundaryField
{
    sides
    {
        type            zeroGradient;
    }
    empty
    {
        type            empty;
    }
}


// ************************************************************************* //
