/*--------------------------------*- C++ -*----------------------------------*\
  =========                 |
  \\      /  F ield         | OpenFOAM: The Open Source CFD Toolbox
   \\    /   O peration     | Website:  https://openfoam.org
    \\  /    A nd           | Version:  7
     \\/     M anipulation  |
\*---------------------------------------------------------------------------*/
FoamFile
{
    version     2.0;
    format      ascii;
    class       volScalarField;
    location    "0.006";
    object      rho;
}
// * * * * * * * * * * * * * * * * * * * * * * * * * * * * * * * * * * * * * //

dimensions      [1 -3 0 0 0 0 0];

internalField   nonuniform List<scalar> 
1000
(
0.997574
0.997574
0.997574
0.997574
0.997574
0.997574
0.997574
0.997574
0.997574
0.997574
0.997574
0.997574
0.997574
0.997574
0.997574
0.997574
0.997574
0.997574
0.997574
0.997574
0.997574
0.997574
0.997574
0.997574
0.997574
0.997574
0.997574
0.997574
0.997574
0.997574
0.997574
0.997574
0.997574
0.997574
0.997574
0.997574
0.997574
0.997574
0.997574
0.997574
0.997574
0.997574
0.997574
0.997574
0.997574
0.997574
0.997574
0.997574
0.997574
0.997574
0.997574
0.997574
0.997574
0.997574
0.997574
0.997574
0.997574
0.997574
0.997574
0.997574
0.997574
0.997574
0.997574
0.997574
0.997574
0.997574
0.997574
0.997574
0.997574
0.997574
0.997574
0.997574
0.997574
0.997574
0.997574
0.997574
0.997574
0.997574
0.997574
0.997574
0.997574
0.997574
0.997574
0.997574
0.997574
0.997574
0.997574
0.997574
0.997574
0.997574
0.997574
0.997574
0.997574
0.997574
0.997574
0.997574
0.997574
0.997574
0.997574
0.997574
0.997574
0.997574
0.997574
0.997574
0.997574
0.997574
0.997574
0.997574
0.997574
0.997574
0.997574
0.997574
0.997574
0.997574
0.997574
0.997574
0.997574
0.997574
0.997574
0.997574
0.997574
0.997574
0.997574
0.997574
0.997574
0.997574
0.997574
0.997574
0.997574
0.997574
0.997574
0.997574
0.997574
0.997574
0.997574
0.997574
0.997574
0.997574
0.997574
0.997574
0.997574
0.997574
0.997574
0.997574
0.997574
0.997574
0.997574
0.997574
0.997574
0.997574
0.997574
0.997574
0.997574
0.997574
0.997574
0.997574
0.997574
0.997574
0.997574
0.997574
0.997574
0.997574
0.997574
0.997574
0.997574
0.997574
0.997574
0.997574
0.997574
0.997574
0.997574
0.997574
0.997574
0.997574
0.997574
0.997574
0.997574
0.997574
0.997574
0.997574
0.997574
0.997574
0.997574
0.997574
0.997574
0.997574
0.997574
0.997574
0.997574
0.997574
0.997574
0.997574
0.997574
0.997574
0.997574
0.997574
0.997574
0.997574
0.997574
0.997574
0.997574
0.997574
0.997574
0.997574
0.997574
0.997574
0.997574
0.997574
0.997574
0.997574
0.997574
0.997574
0.997574
0.997574
0.997574
0.997574
0.997574
0.997574
0.997574
0.997574
0.997574
0.997574
0.997574
0.997574
0.997574
0.997574
0.997574
0.997574
0.997574
0.997574
0.997573
0.997573
0.997572
0.997571
0.99757
0.997568
0.997566
0.997563
0.997558
0.997552
0.997543
0.997532
0.997517
0.997497
0.99747
0.997436
0.997392
0.997335
0.997263
0.997172
0.997059
0.996918
0.996746
0.996536
0.996282
0.995979
0.99562
0.995199
0.994707
0.99414
0.99349
0.992752
0.991921
0.990992
0.989962
0.988827
0.987586
0.986239
0.984785
0.983226
0.981563
0.979799
0.977937
0.975981
0.973935
0.971803
0.969591
0.967303
0.964943
0.962516
0.960028
0.957482
0.954883
0.952234
0.949541
0.946806
0.944034
0.941227
0.938388
0.93552
0.932626
0.929708
0.926768
0.923809
0.920832
0.91784
0.914833
0.911813
0.908781
0.90574
0.902689
0.899631
0.896565
0.893494
0.890417
0.887336
0.884252
0.881164
0.878074
0.874983
0.87189
0.868797
0.865704
0.862612
0.85952
0.856429
0.853341
0.850254
0.84717
0.844089
0.841011
0.837936
0.834865
0.831798
0.828736
0.825678
0.822624
0.819576
0.816532
0.813494
0.810462
0.807435
0.804414
0.801399
0.79839
0.795388
0.792392
0.789402
0.786419
0.783443
0.780474
0.777512
0.774557
0.771609
0.768668
0.765734
0.762808
0.759889
0.756978
0.754074
0.751178
0.748289
0.745409
0.742536
0.73967
0.736813
0.733963
0.731122
0.728288
0.725462
0.722645
0.719835
0.717034
0.71424
0.711455
0.708678
0.705909
0.703148
0.700395
0.69765
0.694914
0.692186
0.689466
0.686755
0.684052
0.681357
0.67867
0.675992
0.673322
0.67066
0.668007
0.665362
0.662725
0.660097
0.657477
0.654865
0.652262
0.649668
0.647079
0.644505
0.641928
0.63938
0.636804
0.634298
0.631701
0.629266
0.626612
0.624285
0.621546
0.619336
0.616535
0.614377
0.61162
0.609382
0.606797
0.604395
0.601991
0.599497
0.597142
0.594702
0.592294
0.58993
0.587519
0.585151
0.582795
0.58042
0.578078
0.575741
0.573399
0.57108
0.568767
0.566455
0.564159
0.561871
0.559588
0.557316
0.555054
0.5528
0.550553
0.548317
0.546091
0.54387
0.541662
0.539462
0.53727
0.535088
0.532915
0.530753
0.528598
0.526454
0.52432
0.522195
0.52008
0.517975
0.515881
0.513795
0.511721
0.509657
0.507604
0.505562
0.50353
0.501511
0.499502
0.497505
0.49552
0.493547
0.491587
0.48964
0.487706
0.485785
0.483878
0.481986
0.480108
0.478246
0.476399
0.47457
0.472756
0.470961
0.469184
0.467426
0.465688
0.463971
0.462275
0.460602
0.458954
0.457329
0.455731
0.45416
0.452618
0.451106
0.449626
0.448179
0.446766
0.44539
0.444051
0.442753
0.441496
0.440283
0.439115
0.437994
0.436921
0.435898
0.434926
0.434007
0.433141
0.432329
0.431573
0.430871
0.430224
0.42963
0.42909
0.428601
0.428162
0.42777
0.427424
0.427121
0.426856
0.426628
0.426433
0.426268
0.426128
0.426012
0.425916
0.425837
0.425773
0.42572
0.425678
0.425644
0.425616
0.425593
0.425575
0.42556
0.425547
0.425536
0.425527
0.425519
0.425511
0.425505
0.425498
0.425493
0.425487
0.425483
0.425477
0.425474
0.425468
0.425465
0.42546
0.425457
0.425452
0.425449
0.425444
0.425442
0.425437
0.425434
0.425429
0.425426
0.425421
0.425418
0.425413
0.42541
0.425404
0.425402
0.425396
0.425393
0.425387
0.425384
0.425378
0.425375
0.425368
0.425366
0.425358
0.425356
0.425348
0.425346
0.425338
0.425335
0.425327
0.425324
0.425316
0.425313
0.425304
0.425301
0.425292
0.425289
0.42528
0.425277
0.425267
0.425263
0.425253
0.42525
0.425239
0.425236
0.425225
0.425221
0.425209
0.425206
0.425194
0.42519
0.425177
0.425173
0.42516
0.425155
0.425142
0.425137
0.425123
0.425118
0.425103
0.425098
0.425082
0.425076
0.42506
0.425054
0.425036
0.42503
0.425012
0.425006
0.424986
0.424979
0.424958
0.424951
0.424929
0.424922
0.424898
0.42489
0.424865
0.424857
0.42483
0.424821
0.424792
0.424782
0.424752
0.424741
0.424711
0.424693
0.424667
0.424646
0.424617
0.424593
0.424563
0.424537
0.424505
0.424476
0.424441
0.424408
0.42437
0.424333
0.424293
0.42425
0.424205
0.424158
0.424108
0.424054
0.423997
0.423936
0.423871
0.423801
0.423727
0.423647
0.42356
0.423465
0.42336
0.42325
0.423142
0.423047
0.422969
0.4229
0.422815
0.422665
0.422377
0.421861
0.421007
0.419697
0.417813
0.415243
0.411899
0.407717
0.402673
0.396778
0.390088
0.382696
0.374729
0.366338
0.357692
0.348961
0.340313
0.331901
0.323858
0.316293
0.309286
0.302892
0.297138
0.292029
0.287551
0.283675
0.28036
0.277558
0.275216
0.273279
0.271695
0.270414
0.269388
0.268574
0.267936
0.26744
0.267058
0.266767
0.266546
0.266381
0.266258
0.266167
0.266101
0.266052
0.266016
0.26599
0.26597
0.265956
0.265946
0.265938
0.265931
0.265926
0.265922
0.265919
0.265916
0.265914
0.265912
0.26591
0.265908
0.265907
0.265905
0.265904
0.265902
0.265901
0.2659
0.2659
0.265899
0.265898
0.265898
0.265898
0.265897
0.265897
0.265897
0.265896
0.265896
0.265896
0.265895
0.265895
0.265894
0.265894
0.265893
0.265893
0.265893
0.265892
0.265892
0.265892
0.265892
0.265892
0.265892
0.265892
0.265892
0.265892
0.265891
0.265891
0.265891
0.26589
0.26589
0.265889
0.265889
0.265888
0.265888
0.265888
0.265888
0.265888
0.265887
0.265887
0.265887
0.265887
0.265887
0.265887
0.265887
0.265887
0.265886
0.265886
0.265885
0.265884
0.265884
0.265883
0.265883
0.265882
0.265882
0.265882
0.265882
0.265882
0.265882
0.265882
0.265882
0.265882
0.265882
0.265882
0.265881
0.26588
0.265879
0.265878
0.265877
0.265877
0.265876
0.265876
0.265876
0.265876
0.265876
0.265876
0.265876
0.265877
0.265877
0.265877
0.265877
0.265876
0.265875
0.265874
0.265872
0.26587
0.265869
0.265868
0.265867
0.265866
0.265866
0.265865
0.265865
0.265858
0.265853
0.265835
0.265819
0.265771
0.26574
0.265606
0.265494
0.265117
0.264356
0.26281
0.2587
0.249863
0.230265
0.199661
0.166833
0.14278
0.130701
0.12636
0.125121
0.124803
0.124723
0.124703
0.124698
0.124697
0.124697
0.124697
0.124697
0.124697
0.124697
0.124697
0.124697
0.124697
0.124697
0.124697
0.124697
0.124697
0.124697
0.124697
0.124697
0.124697
0.124697
0.124697
0.124697
0.124697
0.124697
0.124697
0.124697
0.124697
0.124697
0.124697
0.124697
0.124697
0.124697
0.124697
0.124697
0.124697
0.124697
0.124697
0.124697
0.124697
0.124697
0.124697
0.124697
0.124697
0.124697
0.124697
0.124697
0.124697
0.124697
0.124697
0.124697
0.124697
0.124697
0.124697
0.124697
0.124697
0.124697
0.124697
0.124697
0.124697
0.124697
0.124697
0.124697
0.124697
0.124697
0.124697
0.124697
0.124697
0.124697
0.124697
0.124697
0.124697
0.124697
0.124697
0.124697
0.124697
0.124697
0.124697
0.124697
0.124697
0.124697
0.124697
0.124697
0.124697
0.124697
0.124697
0.124697
0.124697
0.124697
0.124697
0.124697
0.124697
0.124697
0.124697
0.124697
0.124697
0.124697
0.124697
0.124697
0.124697
0.124697
0.124697
0.124697
0.124697
0.124697
0.124697
0.124697
0.124697
0.124697
0.124697
0.124697
0.124697
0.124697
0.124697
0.124697
0.124697
0.124697
0.124697
0.124697
0.124697
0.124697
0.124697
0.124697
0.124697
0.124697
0.124697
0.124697
0.124697
0.124697
0.124697
0.124697
0.124697
0.124697
0.124697
0.124697
0.124697
0.124697
0.124697
0.124697
0.124697
0.124697
0.124697
0.124697
0.124697
0.124697
0.124697
0.124697
0.124697
0.124697
0.124697
0.124697
0.124697
0.124697
0.124697
0.124697
0.124697
0.124697
0.124697
0.124697
0.124697
0.124697
0.124697
)
;

boundaryField
{
    sides
    {
        type            calculated;
        value           nonuniform List<scalar> 2(0.124697 0.997574);
    }
    empty
    {
        type            empty;
    }
}


// ************************************************************************* //
