/*--------------------------------*- C++ -*----------------------------------*\
  =========                 |
  \\      /  F ield         | OpenFOAM: The Open Source CFD Toolbox
   \\    /   O peration     | Website:  https://openfoam.org
    \\  /    A nd           | Version:  7
     \\/     M anipulation  |
\*---------------------------------------------------------------------------*/
FoamFile
{
    version     2.0;
    format      ascii;
    class       volScalarField;
    location    "1.28";
    object      T;
}
// * * * * * * * * * * * * * * * * * * * * * * * * * * * * * * * * * * * * * //

dimensions      [0 0 0 1 0 0 0];

internalField   nonuniform List<scalar> 
1000
(
0
0
0
0
0
0
0
0
0
0
0
0
0
0
0
0
0
0
0
0
0
0
0
0
0
0
0
0
0
0
0
0
0
0
0
0
0
0
0
0
0
0
0
0
0
0
0
0
0
0
0
0
0
0
0
0
0
0
0
0
0
0
0
0
0
0
0
0
0
0
0
0
0
0
0
0
0
0
0
0
0
0
0
0
0
0
0
0
0
0
0
0
0
0
0
0
0
0
0
0
0
0
0
0
0
0
0
0
0
0
0
0
0
0
0
0
0
0
0
0
0
0
0
0
0
0
0
0
0
0
0
0
0
0
0
0
0
0
0
0
0
0
0
0
0
0
0
0
0
0
0
0
0
0
0
0
0
0
0
0
0
0
0
0
0
0
0
0
0
0
0
0
0
0
0
0
0
0
0
0
0
0
0
0
0
0
0
0
0
0
0
0
0
0
0
0
0
0
0
0
0
0
7.41098e-323
6.54637e-321
6.19761e-319
5.83994e-317
5.47558e-315
5.10815e-313
4.74109e-311
4.37763e-309
4.02082e-307
3.67342e-305
3.33787e-303
3.01632e-301
2.71055e-299
2.42197e-297
2.15167e-295
1.90036e-293
1.66844e-291
1.45598e-289
1.26278e-287
1.08838e-285
9.32114e-284
7.93136e-282
6.7045e-280
5.62956e-278
4.69484e-276
3.88823e-274
3.19751e-272
2.61063e-270
2.11589e-268
1.70213e-266
1.35889e-264
1.07647e-262
8.4601e-261
6.59537e-259
5.09941e-257
3.9097e-255
2.97188e-253
2.23925e-251
1.67215e-249
1.23726e-247
9.06922e-246
6.58425e-244
4.73338e-242
3.36871e-240
2.37287e-238
1.65383e-236
1.14024e-234
7.77434e-233
5.24041e-231
3.4911e-229
2.2978e-227
1.49369e-225
9.58622e-224
6.07155e-222
3.79347e-220
2.33703e-218
1.41898e-216
8.48692e-215
4.99746e-213
2.89546e-211
1.6496e-209
9.23488e-208
5.07632e-206
2.73761e-204
1.44712e-202
7.49052e-201
3.79228e-199
1.87551e-197
9.04785e-196
4.25064e-194
1.94093e-192
8.59453e-191
3.6804e-189
1.519e-187
6.01658e-186
2.27416e-184
8.1396e-183
2.72749e-181
8.40249e-180
2.30206e-178
5.20036e-177
7.3488e-176
-9.28713e-175
-1.23465e-172
-5.84975e-171
-1.94264e-169
-4.56719e-168
-4.79199e-167
2.00078e-165
1.46485e-163
5.22965e-162
1.0876e-160
3.99722e-161
-1.03383e-157
-4.67674e-156
-1.05077e-154
1.87184e-155
1.01975e-151
4.11734e-150
6.44105e-149
-1.48316e-147
-1.16847e-145
-2.7877e-144
1.45807e-143
3.1511e-141
8.82903e-140
-2.4394e-139
-9.12082e-137
-2.38614e-135
2.09764e-134
2.80479e-132
4.97696e-131
-1.47582e-129
-7.94716e-128
-2.6193e-127
6.94462e-125
1.49001e-123
-4.0298e-122
-1.99442e-120
1.04776e-119
1.97745e-117
1.10683e-116
-1.72842e-114
-2.29452e-113
1.45755e-111
2.70809e-110
-1.26693e-108
-2.57249e-107
1.17706e-105
2.02209e-104
-1.15514e-102
-1.10486e-101
1.12845e-99
-1.29641e-99
-9.93401e-97
1.48205e-95
6.48839e-94
-2.46049e-92
-8.55656e-92
2.34594e-89
-4.86827e-88
-7.71241e-87
6.39836e-85
-1.28729e-83
-1.26954e-82
1.54466e-80
-4.7097e-79
5.73745e-78
1.52523e-76
-1.16281e-74
4.2474e-73
-1.16652e-71
2.67112e-70
-5.32723e-69
9.47524e-68
-1.52523e-66
2.24406e-65
-3.03917e-64
3.80849e-63
-4.43326e-62
4.80784e-61
-4.86847e-60
4.6105e-59
-4.08774e-58
3.39513e-57
-2.64195e-56
1.92547e-55
-1.31315e-54
8.36783e-54
-4.97119e-53
2.74445e-52
-1.4015e-51
6.57595e-51
-2.80648e-50
1.07184e-49
-3.5578e-49
9.636e-49
-1.74325e-48
-5.34183e-49
2.14958e-47
-1.08781e-46
3.40107e-46
-6.06469e-46
-3.8942e-46
7.49906e-45
-2.96346e-44
5.91481e-44
1.69466e-44
-5.76095e-43
2.06413e-42
-2.87776e-42
-6.40237e-42
4.47123e-41
-9.83827e-41
-2.54341e-41
8.09481e-40
-2.20945e-39
5.08356e-40
1.40957e-38
-4.06861e-38
8.10561e-39
2.49762e-37
-6.38227e-37
-1.58013e-37
4.34409e-36
-8.03168e-36
-1.0331e-35
6.74257e-35
-6.24472e-35
-2.7855e-34
8.16178e-34
2.50588e-34
-4.83593e-33
5.62336e-33
1.78419e-32
-5.24318e-32
-2.66003e-32
2.94867e-31
-1.92966e-31
-1.23727e-30
2.13245e-30
3.89745e-30
-1.32498e-29
-7.32331e-30
6.51965e-29
-1.18369e-29
-2.78122e-28
2.09865e-28
1.07393e-27
-1.37868e-27
-3.86519e-27
7.01405e-27
1.33165e-26
-3.12653e-26
-4.52049e-26
1.27895e-25
1.55937e-25
-4.9049e-25
-5.60542e-25
1.77888e-24
2.11628e-24
-6.09595e-24
-8.27682e-24
1.95296e-23
3.26323e-23
-5.70499e-23
-1.25947e-22
1.43672e-22
4.63555e-22
-2.63714e-22
-1.58775e-21
3.20158e-23
4.91922e-21
2.71776e-21
-1.31807e-20
-1.65905e-20
2.75735e-20
6.8034e-20
-2.85316e-20
-2.16235e-19
-9.60536e-20
5.21592e-19
7.25426e-19
-7.61147e-19
-2.68279e-18
-5.89269e-19
6.51687e-18
8.33896e-18
-8.00125e-18
-3.0322e-17
-1.39615e-17
6.04923e-17
1.0728e-16
-1.92098e-17
-2.88804e-16
-3.23318e-16
2.77513e-16
1.15108e-15
9.10778e-16
-1.46274e-15
-4.23142e-15
-2.71485e-15
5.83548e-15
1.50696e-14
9.68344e-15
-1.93483e-14
-5.2705e-14
-4.123e-14
5.10212e-14
1.77216e-13
1.85767e-13
-7.45274e-14
-5.40069e-13
-7.89332e-13
-2.2902e-13
1.30838e-12
2.90398e-12
2.56999e-12
-1.43399e-12
-8.28248e-12
-1.29267e-11
-7.51289e-12
1.2811e-11
4.17006e-11
5.70944e-11
2.80691e-11
-6.32921e-11
-1.9188e-10
-2.71094e-10
-1.72115e-10
2.02491e-10
8.0415e-10
1.33854e-09
1.27061e-09
2.0137e-11
-2.63216e-09
-6.03557e-09
-8.31803e-09
-6.55703e-09
2.19906e-09
1.89816e-08
4.04191e-08
5.6713e-08
5.15792e-08
5.79886e-09
-9.45096e-08
-2.45179e-07
-4.09342e-07
-5.06016e-07
-4.09569e-07
3.10176e-08
9.45189e-07
2.36242e-06
4.10656e-06
5.67872e-06
6.15847e-06
4.16841e-06
-2.03941e-06
-1.4308e-05
-3.40414e-05
-6.13508e-05
-9.38377e-05
-0.000125001
-0.000142291
-0.000124882
-4.12727e-05
0.00015312
0.000518193
0.001131
0.00208698
0.00350041
0.00550384
0.00824654
0.0118917
0.0166127
0.0225882
0.0299966
0.0390098
0.0497868
0.062467
0.0771645
0.0939627
0.112909
0.134013
0.157244
0.182528
0.209753
0.238768
0.269389
0.301399
0.334561
0.368616
0.403296
0.438326
0.473432
0.50835
0.542824
0.57662
0.609521
0.641338
0.671906
0.701088
0.728776
0.754889
0.779372
0.802197
0.823358
0.84287
0.860767
0.877097
0.891922
0.905315
0.917355
0.928128
0.937724
0.946231
0.95374
0.960339
0.966114
0.971147
0.975515
0.979291
0.982542
0.98533
0.987712
0.98974
0.99146
0.992913
0.994137
0.995164
0.996023
0.996739
0.997334
0.997826
0.998233
0.998567
0.998842
0.999066
0.999249
0.999397
0.999518
0.999615
0.999694
0.999757
0.999808
0.999848
0.99988
0.999906
0.999927
0.999943
0.999955
0.999964
0.99997
0.999975
0.999978
0.999981
0.999986
0.999995
1.00001
1.00003
1.00006
1.00009
1.00012
1.00014
1.00012
1.00004
0.999846
0.999481
0.998869
0.997913
0.996499
0.994496
0.991753
0.988108
0.983387
0.977412
0.970003
0.96099
0.950213
0.937533
0.922835
0.906037
0.887091
0.865987
0.842756
0.817472
0.790247
0.761232
0.730611
0.698601
0.665439
0.631384
0.596704
0.561674
0.526568
0.49165
0.457176
0.42338
0.390479
0.358662
0.328094
0.298912
0.271224
0.245111
0.220628
0.197803
0.176642
0.15713
0.139233
0.122903
0.108078
0.0946853
0.0826449
0.0718716
0.0622764
0.0537692
0.0462601
0.0396608
0.0338857
0.0288529
0.024485
0.0207093
0.0174585
0.0146703
0.012288
0.0102601
0.00854021
0.00708677
0.00586285
0.00483578
0.00397684
0.00326092
0.00266618
0.00217371
0.00176722
0.00143277
0.00115843
0.000934091
0.000751185
0.000602503
0.000481991
0.000384593
0.000306097
0.000243012
0.00019245
0.000152035
0.000119818
9.42017e-05
7.38874e-05
5.78188e-05
4.51404e-05
3.5162e-05
2.73276e-05
2.11917e-05
1.63973e-05
1.266e-05
9.75359e-06
7.49845e-06
5.75262e-06
4.40411e-06
3.36479e-06
2.56553e-06
1.9522e-06
1.48254e-06
1.12367e-06
8.50014e-07
6.41769e-07
4.83622e-07
3.63762e-07
2.73099e-07
2.04655e-07
1.53086e-07
1.14305e-07
8.5196e-08
6.33881e-08
4.70801e-08
3.49073e-08
2.58376e-08
1.9092e-08
1.40839e-08
1.03723e-08
7.62625e-09
5.59811e-09
4.10272e-09
3.00199e-09
2.19311e-09
1.59968e-09
1.16501e-09
8.47154e-10
6.15084e-10
4.45915e-10
3.22791e-10
2.33319e-10
1.684e-10
1.21368e-10
8.7346e-11
6.27716e-11
4.50475e-11
3.22827e-11
2.3103e-11
1.65109e-11
1.17837e-11
8.39859e-12
5.97793e-12
4.24933e-12
3.01661e-12
2.13871e-12
1.51434e-12
1.07088e-12
7.56321e-13
5.33489e-13
3.7584e-13
2.6445e-13
1.85845e-13
1.30446e-13
9.14507e-14
6.40359e-14
4.47862e-14
3.12863e-14
2.18302e-14
1.52145e-14
1.05916e-14
7.36492e-15
5.11546e-15
3.54907e-15
2.45958e-15
1.70266e-15
1.17739e-15
8.13284e-16
5.61171e-16
3.86797e-16
2.66324e-16
1.83181e-16
1.25863e-16
8.639e-17
5.92356e-17
4.05749e-17
2.77647e-17
1.89798e-17
1.29615e-17
8.8428e-18
6.02693e-18
4.10373e-18
2.79152e-18
1.89707e-18
1.28799e-18
8.73629e-19
5.92017e-19
4.00806e-19
2.71101e-19
1.83201e-19
1.23688e-19
8.34319e-20
5.62269e-20
3.78588e-20
2.54685e-20
1.71181e-20
1.14954e-20
7.7129e-21
5.17051e-21
3.46319e-21
2.31764e-21
1.54971e-21
1.03535e-21
6.91128e-22
4.60967e-22
3.07201e-22
2.04559e-22
1.361e-22
9.04794e-23
6.01021e-23
3.98917e-23
2.64564e-23
1.75322e-23
1.16092e-23
7.68116e-24
5.07828e-24
3.35484e-24
2.2146e-24
1.4608e-24
9.62843e-25
6.34155e-25
4.17361e-25
2.74477e-25
1.80377e-25
1.18451e-25
7.77281e-26
5.09689e-26
3.3398e-26
2.18688e-26
1.43094e-26
9.35645e-27
6.11359e-27
3.9919e-27
2.60472e-27
1.69841e-27
1.1067e-27
7.20639e-28
4.68936e-28
3.04942e-28
1.98166e-28
1.28693e-28
8.35201e-29
5.41679e-29
3.51083e-29
2.27403e-29
1.47197e-29
9.52196e-30
6.15566e-30
3.97692e-30
2.56771e-30
1.6568e-30
1.06838e-30
6.8851e-31
4.43432e-31
2.85415e-31
1.83595e-31
1.18027e-31
7.58299e-32
4.86898e-32
3.12447e-32
2.00381e-32
1.28434e-32
8.22711e-33
5.26698e-33
3.36995e-33
2.15493e-33
1.37719e-33
8.79642e-34
5.61527e-34
3.58253e-34
2.28436e-34
1.45578e-34
9.27221e-35
5.90244e-35
3.75526e-35
2.38787e-35
1.51755e-35
9.63919e-36
6.11932e-36
3.88268e-36
2.46223e-36
1.56061e-36
9.88623e-37
6.25947e-37
3.96111e-37
2.50536e-37
1.58379e-37
1.0007e-37
6.3195e-38
3.98879e-38
2.51639e-38
1.58671e-38
9.99991e-39
6.29909e-39
3.96591e-39
2.4957e-39
1.56974e-39
9.86846e-40
6.20096e-40
3.89455e-40
2.44481e-40
1.53399e-40
9.62039e-41
6.03053e-41
3.77843e-41
2.36626e-41
1.48119e-41
9.26729e-42
5.79553e-42
3.6227e-42
2.26345e-42
1.41355e-42
8.82369e-43
5.50545e-43
3.43351e-43
2.14036e-43
1.33365e-43
8.3062e-44
5.17094e-44
3.21769e-44
2.00137e-44
1.24428e-44
7.73253e-45
4.80325e-45
2.98237e-45
1.85097e-45
1.14829e-45
7.12061e-46
4.41366e-46
2.73461e-46
1.6936e-46
1.04844e-46
6.48773e-47
4.01294e-47
2.48115e-47
1.53343e-47
9.47319e-48
5.84993e-48
3.61101e-48
2.22808e-48
1.37422e-48
8.47246e-49
5.22141e-49
3.21657e-49
1.98074e-49
1.21924e-49
7.50203e-50
4.61423e-50
2.83694e-50
1.74354e-50
1.07114e-50
6.57801e-51
4.03808e-51
2.47794e-51
1.51982e-51
9.34577e-52
5.31102e-52
)
;

boundaryField
{
    sides
    {
        type            zeroGradient;
    }
    empty
    {
        type            empty;
    }
}


// ************************************************************************* //
