/*--------------------------------*- C++ -*----------------------------------*\
  =========                 |
  \\      /  F ield         | OpenFOAM: The Open Source CFD Toolbox
   \\    /   O peration     | Website:  https://openfoam.org
    \\  /    A nd           | Version:  7
     \\/     M anipulation  |
\*---------------------------------------------------------------------------*/
FoamFile
{
    version     2.0;
    format      ascii;
    class       volScalarField;
    location    "1";
    object      p;
}
// * * * * * * * * * * * * * * * * * * * * * * * * * * * * * * * * * * * * * //

dimensions      [1 -1 -2 0 0 0 0];

internalField   nonuniform List<scalar> 
19968
(
1
1
1
1
1
1
1
1
1
1
1
1
1
1
1
1
1
1
1
1
1
1
1
1
1
1
1
1
1
1
1
1
1
1
1
1
1
1
1
1
1
1
1
1
1
1
1
1
1
1
1
1
1
1
5.45509
10.5428
10.8672
10.9474
11.0299
11.0629
11.1124
11.1711
11.2374
11.2961
11.3263
11.3316
11.3389
11.3542
11.4155
11.501
11.5848
11.6389
11.6713
11.6994
11.7334
11.7955
11.8774
11.951
11.9971
12.0117
11.983
11.9218
11.8601
11.8232
11.8418
11.9178
12.0179
12.1232
12.209
12.2655
12.2826
12.2742
12.2564
12.2472
12.2531
12.256
1
1
1
1
1
1
1
1
1
1
1
1
1
1
1
1
1
1
1
1
1
1
1
1
1
1
1
1
1
1
1
1
1
1
1
1
1
1
1
1
1
1
1
1
1
1
1
1
1
1
1
1
1
1
5.36469
10.5506
10.8474
10.9416
11.0152
11.0521
11.104
11.1644
11.2295
11.2868
11.3207
11.327
11.3369
11.3524
11.4085
11.4875
11.5688
11.6251
11.6623
11.6936
11.7289
11.7906
11.8697
11.9408
11.9861
12.0012
11.9754
11.9188
11.8612
11.8257
11.8407
11.9136
12.0113
12.1161
12.2025
12.2577
12.2723
12.2647
12.2498
12.2432
12.2492
12.2542
1
1
1
1
1
1
1
1
1
1
1
1
1
1
1
1
1
1
1
1
1
1
1
1
1
1
1
1
1
1
1
1
1
1
1
1
1
1
1
1
1
1
1
1
1
1
1
1
1
1
1
1
1
1
5.16686
10.5415
10.8249
10.9196
10.9926
11.0335
11.0874
11.1478
11.2133
11.2722
11.3112
11.3203
11.3322
11.3463
11.3972
11.4689
11.548
11.6068
11.6505
11.6862
11.7235
11.7826
11.8551
11.9222
11.9676
11.9852
11.9646
11.9138
11.8611
11.8271
11.8389
11.9101
12.0053
12.1063
12.1884
12.2377
12.2497
12.2476
12.2409
12.239
12.2425
12.2476
1
1
1
1
1
1
1
1
1
1
1
1
1
1
1
1
1
1
1
1
1
1
1
1
1
1
1
1
1
1
1
1
1
1
1
1
1
1
1
1
1
1
1
1
1
1
1
1
1
1
1
1
1
1
4.8621
10.5031
10.8032
10.8906
10.966
11.0113
11.0673
11.1286
11.1981
11.2597
11.2969
11.308
11.3166
11.3279
11.3778
11.4467
11.525
11.5864
11.6343
11.6737
11.7135
11.77
11.8359
11.8981
11.943
11.9628
11.9475
11.9028
11.854
11.8239
11.8351
11.9041
11.9987
12.0934
12.1678
12.2077
12.2166
12.2215
12.2252
12.23
12.2316
12.2379
1
1
1
1
1
1
1
1
1
1
1
1
1
1
1
1
1
1
1
1
1
1
1
1
1
1
1
1
1
1
1
1
1
1
1
1
1
1
1
1
1
1
1
1
1
1
1
1
1
1
1
1
1
1
4.4423
10.4202
10.7799
10.8556
10.937
10.9888
11.0403
11.1042
11.1804
11.2481
11.2777
11.2885
11.2895
11.3024
11.3515
11.4238
11.5041
11.5679
11.6163
11.6561
11.6982
11.7524
11.813
11.8705
11.9145
11.9365
11.9246
11.8833
11.8371
11.8123
11.8267
11.8969
11.9924
12.0787
12.1401
12.1668
12.1722
12.185
12.201
12.2151
12.2176
12.2265
1
1
1
1
1
1
1
1
1
1
1
1
1
1
1
1
1
1
1
1
1
1
1
1
1
1
1
1
1
1
1
1
1
1
1
1
1
1
1
1
1
1
1
1
1
1
1
1
1
1
1
1
1
1
3.91264
10.2649
10.7655
10.8183
10.9032
10.9567
11.011
11.0838
11.1655
11.2375
11.2587
11.2687
11.2618
11.274
11.3195
11.3958
11.4808
11.5483
11.5958
11.6338
11.6758
11.7273
11.7836
11.838
11.8829
11.9075
11.8967
11.8563
11.811
11.7907
11.8136
11.8896
11.985
12.0607
12.1049
12.1165
12.1179
12.1369
12.1645
12.1888
12.1962
12.2081
1
1
1
1
1
1
1
1
1
1
1
1
1
1
1
1
1
1
1
1
1
1
1
1
1
1
1
1
1
1
1
1
1
1
1
1
1
1
1
1
1
1
1
1
1
1
1
1
1
1
1
1
1
1
3.28922
9.96194
10.7272
10.7848
10.8803
10.9327
10.993
11.0671
11.1493
11.217
11.2464
11.2564
11.2441
11.2515
11.2813
11.3533
11.4432
11.5174
11.5697
11.6092
11.6498
11.6954
11.7451
11.797
11.8446
11.8722
11.8627
11.8231
11.7778
11.7619
11.7949
11.876
11.9684
12.0327
12.0593
12.0577
12.0569
12.0795
12.1152
12.1488
12.1637
12.1778
1
1
1
1
1
1
1
1
1
1
1
1
1
1
1
1
1
1
1
1
1
1
1
1
1
1
1
1
1
1
1
1
1
1
1
1
1
1
1
1
1
1
1
1
1
1
1
1
1
1
1
1
1
1
2.5986
9.41991
10.6886
10.766
10.8506
10.9147
10.971
11.0395
11.1127
11.1761
11.2231
11.2414
11.2342
11.2341
11.2431
11.2984
11.3883
11.4695
11.5329
11.5805
11.6209
11.6581
11.6975
11.7443
11.7921
11.8231
11.8208
11.7868
11.745
11.7328
11.7709
11.851
11.9358
11.9907
12.0036
11.9923
11.9914
12.0143
12.0517
12.0906
12.1111
12.127
1
1
1
1
1
1
1
1
1
1
1
1
1
1
1
1
1
1
1
1
1
1
1
1
1
1
1
1
1
1
1
1
1
1
1
1
1
1
1
1
1
1
1
1
1
1
1
1
1
1
1
1
1
1
1.88129
8.60973
10.6574
10.7386
10.8442
10.9094
10.9608
11.0094
11.067
11.1281
11.1875
11.2124
11.2155
11.2048
11.1979
11.2322
11.3122
11.3998
11.4776
11.5401
11.5863
11.6178
11.644
11.6777
11.7181
11.7522
11.7641
11.744
11.7126
11.7025
11.7335
11.8028
11.8761
11.9237
11.9328
11.9211
11.9212
11.9415
11.9758
12.0139
12.0365
12.0549
1
1
1
1
1
1
1
1
1
1
1
1
1
1
1
1
1
1
1
1
1
1
1
1
1
1
1
1
1
1
1
1
1
1
1
1
1
1
1
1
1
1
1
1
1
1
1
1
1
1
1
1
1
1
1.13535
7.1415
10.6853
10.7455
10.8403
10.9033
10.9543
11.0007
11.0461
11.0982
11.1425
11.1628
11.1626
11.1523
11.1421
11.1646
11.2315
11.3195
11.4069
11.4819
11.5361
11.5659
11.5802
11.5973
11.6264
11.664
11.6924
11.6949
11.6789
11.6682
11.6825
11.7311
11.7917
11.8355
11.8499
11.8449
11.8444
11.8566
11.8801
11.9096
11.928
11.9476
1
1
1
1
1
1
1
1
1
1
1
1
1
1
1
1
1
1
1
1
1
1
1
1
1
1
1
1
1
1
1
1
1
1
1
1
1
1
1
1
1
1
1
1
1
1
1
1
1
1
1
1
1
1
1.00096
5.17523
10.4162
10.6298
10.7227
10.8078
10.8854
10.9522
11.0096
11.059
11.089
11.0976
11.1042
11.1021
11.0949
11.1086
11.158
11.2403
11.3278
11.4025
11.4561
11.4829
11.4906
11.4975
11.5204
11.5647
11.608
11.6304
11.626
11.6049
11.5982
11.621
11.667
11.7135
11.7428
11.7507
11.7513
11.7535
11.7632
11.7812
11.7926
11.8119
1
1
1
1
1
1
1
1
1
1
1
1
1
1
1
1
1
1
1
1
1
1
1
1
1
1
1
1
1
1
1
1
1
1
1
1
1
1
1
1
1
1
1
1
1
1
1
1
1
1
1
1
1
1
1
3.11463
9.62491
10.5847
10.6276
10.7209
10.8021
10.8778
10.9425
10.9891
11.0222
11.0413
11.0504
11.0506
11.0407
11.0527
11.088
11.1592
11.2495
11.312
11.353
11.3706
11.3784
11.3857
11.4117
11.4642
11.5166
11.5468
11.5432
11.5102
11.4821
11.4839
11.5205
11.5736
11.6166
11.6349
11.6314
11.6183
11.6086
11.608
11.6076
11.6204
1
1
1
1
1
1
1
1
1
1
1
1
1
1
1
1
1
1
1
1
1
1
1
1
1
1
1
1
1
1
1
1
1
1
1
1
1
1
1
1
1
1
1
1
1
1
1
1
1
1
1
1
1
1
1
1.48841
7.91571
10.5986
10.5889
10.6722
10.7522
10.8252
10.8874
10.9317
10.9642
10.9791
10.9833
10.9724
10.9502
10.9576
10.9822
11.0505
11.149
11.2122
11.2445
11.2519
11.2563
11.2664
11.2966
11.3475
11.397
11.4212
11.4082
11.3644
11.3191
11.3021
11.3252
11.3732
11.4218
11.449
11.4457
11.4246
11.4036
11.3904
11.3835
11.388
1
1
1
1
1
1
1
1
1
1
1
1
1
1
1
1
1
1
1
1
1
1
1
1
1
1
1
1
1
1
1
1
1
1
1
1
1
1
1
1
1
1
1
1
1
1
1
1
1
1
1
1
1
1
1
1.00749
5.17147
10.3241
10.4893
10.561
10.6376
10.7038
10.759
10.8047
10.8471
10.8706
10.8811
10.8761
10.8529
10.8494
10.869
10.9337
11.0379
11.1092
11.1349
11.1337
11.1258
11.1288
11.1549
11.1931
11.2304
11.2468
11.2258
11.1806
11.1306
11.0986
11.1055
11.1441
11.1943
11.2296
11.2233
11.1826
11.1322
11.0827
11.045
11.0231
1
1
1
1
1
1
1
1
1
1
1
1
1
1
1
1
1
1
1
1
1
1
1
1
1
1
1
1
1
1
1
1
1
1
1
1
1
1
1
1
1
1
1
1
1
1
1
1
1
1
1
1
1
1
1
1.00001
2.32046
8.89016
10.3977
10.4142
10.5045
10.5679
10.6243
10.674
10.7204
10.7538
10.766
10.7697
10.7542
10.7388
10.7539
10.7993
10.8853
10.9638
10.9942
10.9933
10.975
10.9654
10.9772
11.001
11.0232
11.0261
10.9985
10.951
10.8941
10.8417
10.8126
10.8123
10.8286
10.8375
10.8032
10.7279
10.6504
10.5817
10.5526
10.5326
1
1
1
1
1
1
1
1
1
1
1
1
1
1
1
1
1
1
1
1
1
1
1
1
1
1
1
1
1
1
1
1
1
1
1
1
1
1
1
1
1
1
1
1
1
1
1
1
1
1
1
1
1
1
1
1
1.04281
5.51061
10.2309
10.3517
10.4177
10.4831
10.5343
10.5714
10.5992
10.6203
10.6272
10.6313
10.6232
10.5911
10.5939
10.6156
10.6776
10.7633
10.8146
10.8303
10.8152
10.7922
10.7795
10.7782
10.7751
10.7563
10.7174
10.6619
10.5969
10.5266
10.4598
10.4154
10.3925
10.3782
10.3404
10.2585
10.1253
10.0076
9.84666
9.97015
1
1
1
1
1
1
1
1
1
1
1
1
1
1
1
1
1
1
1
1
1
1
1
1
1
1
1
1
1
1
1
1
1
1
1
1
1
1
1
1
1
1
1
1
1
1
1
1
1
1
1
1
1
1
1
1
0.999449
2.36524
8.8413
10.1976
10.2371
10.3339
10.4117
10.4621
10.4867
10.498
10.5112
10.5251
10.5355
10.5142
10.488
10.4866
10.5171
10.5805
10.6365
10.6629
10.6496
10.61
10.569
10.5416
10.5204
10.4916
10.4469
10.3823
10.3037
10.2122
10.1086
10.002
9.90341
9.80557
9.66034
9.40631
8.98597
8.38737
7.43412
5.52751
1
1
1
1
1
1
1
1
1
1
1
1
1
1
1
1
1
1
1
1
1
1
1
1
1
1
1
1
1
1
1
1
1
1
1
1
1
1
1
1
1
1
1
1
1
1
1
1
1
1
1
1
1
1
1
1
0.999915
1.06476
6.16715
10.1685
10.2049
10.2546
10.3283
10.3671
10.3847
10.396
10.4161
10.4345
10.4469
10.4231
10.368
10.3478
10.3585
10.4045
10.4603
10.4972
10.4958
10.4521
10.3928
10.3392
10.2985
10.2618
10.212
10.1369
10.0382
9.91847
9.782
9.62871
9.46263
9.2796
9.0323
8.67917
8.1443
7.43522
6.22644
4.61716
1
1
1
1
1
1
1
1
1
1
1
1
1
1
1
1
1
1
1
1
1
1
1
1
1
1
1
1
1
1
1
1
1
1
1
1
1
1
1
1
1
1
1
1
1
1
1
1
1
1
1
1
1
1
1
1
0.999997
1.00011
2.81321
9.05123
10.0569
10.1111
10.1996
10.2501
10.2796
10.2973
10.3184
10.3397
10.3536
10.3406
10.2867
10.2365
10.2183
10.2361
10.2767
10.3132
10.3217
10.2811
10.2086
10.127
10.0617
10.015
9.96342
9.8862
9.77284
9.62393
9.45188
9.26202
9.0485
8.79753
8.47752
8.05771
7.53328
6.7483
5.75611
4.65537
1
1
1
1
1
1
1
1
1
1
1
1
1
1
1
1
1
1
1
1
1
1
1
1
1
1
1
1
1
1
1
1
1
1
1
1
1
1
1
1
1
1
1
1
1
1
1
1
1
1
1
1
1
1
1
1
1
1
1.09662
6.26036
10.0128
10.0748
10.1004
10.1579
10.1914
10.2042
10.2131
10.2283
10.2411
10.2407
10.1958
10.1237
10.0743
10.0651
10.0861
10.1137
10.1305
10.1052
10.0361
9.93888
9.84462
9.77265
9.70883
9.6281
9.5073
9.33884
9.13849
8.92265
8.68387
8.39802
8.04311
7.60416
7.06638
6.39997
5.64504
4.80659
1
1
1
1
1
1
1
1
1
1
1
1
1
1
1
1
1
1
1
1
1
1
1
1
1
1
1
1
1
1
1
1
1
1
1
1
1
1
1
1
1
1
1
1
1
1
1
1
1
1
1
1
1
1
1
1
1
1
1.00026
2.585
8.75974
9.91993
9.92786
10.0094
10.0679
10.0959
10.1084
10.1154
10.1282
10.1406
10.1179
10.0539
9.98309
9.9309
9.90889
9.90961
9.91614
9.90259
9.85069
9.75872
9.64552
9.54352
9.4601
9.37147
9.24922
9.07672
8.86415
8.63027
8.37367
8.07782
7.72079
7.29334
6.79301
6.23989
5.63838
4.99955
1
1
1
1
1
1
1
1
1
1
1
1
1
1
1
1
1
1
1
1
1
1
1
1
1
1
1
1
1
1
1
1
1
1
1
1
1
1
1
1
1
1
1
1
1
1
1
1
1
1
1
1
1
1
1
1
1
1
1
1.07113
5.42843
9.7041
9.87706
9.93831
9.98175
9.99416
9.98871
9.9799
9.98482
9.99664
9.99633
9.95423
9.87995
9.80346
9.74806
9.71805
9.7048
9.69153
9.65721
9.58476
9.47364
9.35094
9.23915
9.12893
8.99743
8.8272
8.6202
8.38497
8.12336
7.82897
7.48499
7.09612
6.65388
6.1794
5.68559
5.16227
1
1
1
1
1
1
1
1
1
1
1
1
1
1
1
1
1
1
1
1
1
1
1
1
1
1
1
1
1
1
1
1
1
1
1
1
1
1
1
1
1
1
1
1
1
1
1
1
1
1
1
1
1
1
1
1
1
1
1
1.00016
1.69871
7.87596
9.89555
9.87113
9.90008
9.90759
9.90591
9.89684
9.88756
9.88552
9.88458
9.85754
9.79489
9.70687
9.61969
9.55095
9.50364
9.4718
9.43998
9.38689
9.29488
9.17363
9.04565
8.91583
8.77154
8.60172
8.40374
8.17694
7.92302
7.63679
7.31639
6.97024
6.58323
6.17637
5.75369
5.31479
1
1
1
1
1
1
1
1
1
1
1
1
1
1
1
1
1
1
1
1
1
1
1
1
1
1
1
1
1
1
1
1
1
1
1
1
1
1
1
1
1
1
1
1
1
1
1
1
1
1
1
1
1
1
1
1
1
1
1
1
1.01317
3.87962
9.20628
9.71307
9.69257
9.70984
9.73201
9.74204
9.74029
9.73394
9.73047
9.7163
9.67511
9.60378
9.51179
9.41975
9.34156
9.28825
9.24167
9.18872
9.10974
8.99951
8.87041
8.731
8.57602
8.40379
8.21106
7.99426
7.75457
7.48672
7.1946
6.88613
6.54615
6.19453
5.82478
5.45016
1
1
1
1
1
1
1
1
1
1
1
1
1
1
1
1
1
1
1
1
1
1
1
1
1
1
1
1
1
1
1
1
1
1
1
1
1
1
1
1
1
1
1
1
1
1
1
1
1
1
1
1
1
1
1
1
1
1
1
1
1.00001
1.20533
6.06438
9.56241
9.5816
9.59509
9.61641
9.63827
9.64384
9.62464
9.60167
9.5772
9.54218
9.48302
9.39983
9.30197
9.20673
9.12269
9.05805
8.99286
8.91727
8.81878
8.69895
8.5615
8.40616
8.23297
8.04233
7.8333
7.60935
7.3649
7.10116
6.82586
6.52462
6.21463
5.88586
5.56368
1
1
1
1
1
1
1
1
1
1
1
1
1
1
1
1
1
1
1
1
1
1
1
1
1
1
1
1
1
1
1
1
1
1
1
1
1
1
1
1
1
1
1
1
1
1
1
1
1
1
1
1
1
1
1
1
1
1
1
1
1
1.00125
1.7676
7.62836
9.53564
9.48407
9.50846
9.53029
9.54466
9.52901
9.50082
9.46516
9.42633
9.36944
9.29679
9.20557
9.10698
9.00758
8.91534
8.83291
8.74395
8.64175
8.52772
8.39592
8.24889
8.07848
7.89349
7.69342
7.48533
7.261
7.02511
6.7764
6.50905
6.23246
5.94047
5.65693
1
1
1
1
1
1
1
1
1
1
1
1
1
1
1
1
1
1
1
1
1
1
1
1
1
1
1
1
1
1
1
1
1
1
1
1
1
1
1
1
1
1
1
1
1
1
1
1
1
1
1
1
1
1
1
1
1
1
1
1
1
1
1.01557
3.26784
8.7276
9.42898
9.37182
9.38967
9.40781
9.4054
9.38307
9.34809
9.30582
9.2437
9.17524
9.09684
9.00599
8.90572
8.80094
8.69896
8.59383
8.48234
8.36872
8.24423
8.10079
7.93956
7.76426
7.57537
7.381
7.17279
6.96061
6.73475
6.49888
6.24799
5.9926
5.73052
1
1
1
1
1
1
1
1
1
1
1
1
1
1
1
1
1
1
1
1
1
1
1
1
1
1
1
1
1
1
1
1
1
1
1
1
1
1
1
1
1
1
1
1
1
1
1
1
1
1
1
1
1
1
1
1
1
1
1
1
1
1
1.00002
1.12642
4.86774
9.20964
9.31963
9.26194
9.27358
9.27592
9.26515
9.23766
9.19895
9.1373
9.06889
8.99909
8.91276
8.81667
8.70739
8.5911
8.47098
8.34704
8.23074
8.10869
7.97096
7.81963
7.65448
7.47703
7.29306
7.0999
6.90514
6.70165
6.49438
6.26786
6.04099
5.79198
1
1
1
1
1
1
1
1
1
1
1
1
1
1
1
1
1
1
1
1
1
1
1
1
1
1
1
1
1
1
1
1
1
1
1
1
1
1
1
1
1
1
1
1
1
1
1
1
1
1
1
1
1
1
1
1
1
1
1
1
1
1
1
1.00058
1.36757
6.06935
9.20363
9.21247
9.1476
9.15034
9.14204
9.12129
9.08489
9.03107
8.9709
8.90304
8.82554
8.73465
8.62768
8.50627
8.37532
8.24442
8.12162
7.99903
7.86553
7.72104
7.56468
7.39822
7.22263
7.04264
6.85984
6.67498
6.48814
6.28379
6.07528
5.84162
1
1
1
1
1
1
1
1
1
1
1
1
1
1
1
1
1
1
1
1
1
1
1
1
1
1
1
1
1
1
1
1
1
1
1
1
1
1
1
1
1
1
1
1
1
1
1
1
1
1
1
1
1
1
1
1
1
1
1
1
1
1
1
1
1.00387
1.68468
6.95528
9.05573
9.0667
9.03448
9.00874
8.98813
8.95866
8.91743
8.86839
8.80622
8.7315
8.64404
8.54082
8.42306
8.29469
8.16344
8.0356
7.90948
7.77797
7.63817
7.49109
7.33575
7.16977
7.00039
6.82489
6.65096
6.47749
6.29342
6.09864
5.88393
1
1
1
1
1
1
1
1
1
1
1
1
1
1
1
1
1
1
1
1
1
1
1
1
1
1
1
1
1
1
1
1
1
1
1
1
1
1
1
1
1
1
1
1
1
1
1
1
1
1
1
1
1
1
1
1
1
1
1
1
1
1
1
1
1
1.01256
2.10011
7.53375
8.99662
8.94501
8.8994
8.85015
8.81652
8.78749
8.75268
8.70146
8.63215
8.54778
8.44922
8.33858
8.21945
8.09646
7.97113
7.84197
7.70754
7.56888
7.42983
7.28414
7.12688
6.96469
6.79658
6.63055
6.46705
6.29724
6.11212
5.91716
1
1
1
1
1
1
1
1
1
1
1
1
1
1
1
1
1
1
1
1
1
1
1
1
1
1
1
1
1
1
1
1
1
1
1
1
1
1
1
1
1
1
1
1
1
1
1
1
1
1
1
1
1
1
1
1
1
1
1
1
1
1
1
1
1
1.00002
1.0299
2.67073
7.86178
8.88538
8.8183
8.7657
8.70473
8.66182
8.6239
8.58162
8.52466
8.44877
8.35747
8.2559
8.14875
8.03716
7.91807
7.78844
7.65069
7.51163
7.37911
7.24215
7.09298
6.9363
6.77592
6.61628
6.45829
6.29632
6.1195
5.9424
1
1
1
1
1
1
1
1
1
1
1
1
1
1
1
1
1
1
1
1
1
1
1
1
1
1
1
1
1
1
1
1
1
1
1
1
1
1
1
1
1
1
1
1
1
1
1
1
1
1
1
1
1
1
1
1
1
1
1
1
1
1
1
1
1
1
1.00008
1.06688
3.10069
8.00636
8.77512
8.69303
8.64327
8.57751
8.5159
8.46292
8.40393
8.33843
8.2619
8.17558
8.08378
7.98463
7.87332
7.74927
7.61344
7.47266
7.33896
7.20553
7.06253
6.91309
6.76306
6.61204
6.45995
6.30244
6.13235
5.966
1
1
1
1
1
1
1
1
1
1
1
1
1
1
1
1
1
1
1
1
1
1
1
1
1
1
1
1
1
1
1
1
1
1
1
1
1
1
1
1
1
1
1
1
1
1
1
1
1
1
1
1
1
1
1
1
1
1
1
1
1
1
1
1
1
1
1
1.00026
1.10718
3.3394
8.01524
8.67003
8.58345
8.52299
8.44848
8.37521
8.30167
8.23031
8.15946
8.08525
8.00798
7.92139
7.82253
7.70989
7.58472
7.44993
7.31494
7.18031
7.03837
6.89374
6.75211
6.61081
6.46817
6.31755
6.15574
5.99497
1
1
1
1
1
1
1
1
1
1
1
1
1
1
1
1
1
1
1
1
1
1
1
1
1
1
1
1
1
1
1
1
1
1
1
1
1
1
1
1
1
1
1
1
1
1
1
1
1
1
1
1
1
1
1
1
1
1
1
1
1
1
1
1
1
1
1
1
1.00055
1.13537
3.39585
7.94106
8.56123
8.47525
8.40016
8.31124
8.22924
8.14996
8.0711
7.99879
7.92343
7.84278
7.75558
7.65725
7.549
7.4281
7.29869
7.16502
7.02441
6.88423
6.74936
6.61608
6.48224
6.33933
6.1867
6.03081
1
1
1
1
1
1
1
1
1
1
1
1
1
1
1
1
1
1
1
1
1
1
1
1
1
1
1
1
1
1
1
1
1
1
1
1
1
1
1
1
1
1
1
1
1
1
1
1
1
1
1
1
1
1
1
1
1
1
1
1
1
1
1
1
1
1
1
1
1
1.00081
1.14406
3.29335
7.80144
8.44274
8.36276
8.27175
8.17773
8.08942
8.01221
7.9351
7.85247
7.76872
7.68375
7.59614
7.50132
7.39499
7.27668
7.15038
7.01655
6.88276
6.75396
6.62673
6.4999
6.36466
6.22022
6.07065
1
1
1
1
1
1
1
1
1
1
1
1
1
1
1
1
1
1
1
1
1
1
1
1
1
1
1
1
1
1
1
1
1
1
1
1
1
1
1
1
1
1
1
1
1
1
1
1
1
1
1
1
1
1
1
1
1
1
1
1
1
1
1
1
1
1
1
1
1
1
1.00092
1.13296
3.05809
7.59257
8.30025
8.23966
8.1455
8.05983
7.9739
7.88688
7.80274
7.71437
7.62294
7.53627
7.44772
7.35111
7.24474
7.1303
7.00883
6.88548
6.76359
6.64
6.51625
6.38538
6.24861
6.10793
1
1
1
1
1
1
1
1
1
1
1
1
1
1
1
1
1
1
1
1
1
1
1
1
1
1
1
1
1
1
1
1
1
1
1
1
1
1
1
1
1
1
1
1
1
1
1
1
1
1
1
1
1
1
1
1
1
1
1
1
1
1
1
1
1
1
1
1
1
1
1
1.00083
1.10716
2.8227
7.14336
8.1445
8.1481
8.03827
7.95647
7.8657
7.76966
7.67528
7.58395
7.4928
7.4005
7.3071
7.20957
7.1072
6.99773
6.88295
6.76581
6.6457
6.5249
6.39805
6.27094
6.14017
1
1
1
1
1
1
1
1
1
1
1
1
1
1
1
1
1
1
1
1
1
1
1
1
1
1
1
1
1
1
1
1
1
1
1
1
1
1
1
1
1
1
1
1
1
1
1
1
1
1
1
1
1
1
1
1
1
1
1
1
1
1
1
1
1
1
1
1
1
1
1
1
1.0006
1.08367
2.4983
6.48844
8.00224
8.07548
7.94979
7.8573
7.76016
7.66008
7.56383
7.46622
7.36806
7.27142
7.17642
7.08068
6.97838
6.86986
6.75773
6.64269
6.52598
6.40469
6.28661
6.16619
1
1
1
1
1
1
1
1
1
1
1
1
1
1
1
1
1
1
1
1
1
1
1
1
1
1
1
1
1
1
1
1
1
1
1
1
1
1
1
1
1
1
1
1
1
1
1
1
1
1
1
1
1
1
1
1
1
1
1
1
1
1
1
1
1
1
1
1
1
1
1
1
1
1.00042
1.05627
2.11515
5.64665
7.81987
7.9811
7.86796
7.76578
7.66436
7.56029
7.45722
7.35467
7.2542
7.15686
7.05746
6.95562
6.85089
6.74366
6.63471
6.52346
6.40905
6.29663
6.18554
1
1
1
1
1
1
1
1
1
1
1
1
1
1
1
1
1
1
1
1
1
1
1
1
1
1
1
1
1
1
1
1
1
1
1
1
1
1
1
1
1
1
1
1
1
1
1
1
1
1
1
1
1
1
1
1
1
1
1
1
1
1
1
1
1
1
1
1
1
1
1
1
1
1
1.00023
1.03188
1.73766
4.66837
7.58236
7.86713
7.78179
7.66313
7.56424
7.46043
7.35532
7.25367
7.15321
7.04924
6.94327
6.83481
6.72911
6.62688
6.52293
6.41559
6.30802
6.20357
1
1
1
1
1
1
1
1
1
1
1
1
1
1
1
1
1
1
1
1
1
1
1
1
1
1
1
1
1
1
1
1
1
1
1
1
1
1
1
1
1
1
1
1
1
1
1
1
1
1
1
1
1
1
1
1
1
1
1
1
1
1
1
1
1
1
1
1
1
1
1
1
1
1
1
1.0001
1.0151
1.42544
3.73732
7.15358
7.69784
7.6888
7.55876
7.46086
7.36418
7.26521
7.16339
7.05866
6.94873
6.83398
6.72864
6.62838
6.52906
6.42846
6.32341
6.22034
1
1
1
1
1
1
1
1
1
1
1
1
1
1
1
1
1
1
1
1
1
1
1
1
1
1
1
1
1
1
1
1
1
1
1
1
1
1
1
1
1
1
1
1
1
1
1
1
1
1
1
1
1
1
1
1
1
1
1
1
1
1
1
1
1
1
1
1
1
1
1
1
1
1
1
1
1.00003
1.00587
1.21864
2.95097
6.35509
7.50092
7.57417
7.46057
7.37465
7.28165
7.18092
7.07559
6.96434
6.85322
6.74724
6.64656
6.55161
6.45049
6.34335
6.23847
1
1
1
1
1
1
1
1
1
1
1
1
1
1
1
1
1
1
1
1
1
1
1
1
1
1
1
1
1
1
1
1
1
1
1
1
1
1
1
1
1
1
1
1
1
1
1
1
1
1
1
1
1
1
1
1
1
1
1
1
1
1
1
1
1
1
1
1
1
1
1
1
1
1
1
1
1
1.00001
1.002
1.10424
2.2503
5.25372
7.26569
7.45244
7.38502
7.27186
7.18288
7.08772
6.98473
6.87797
6.77372
6.67945
6.58442
6.48129
6.37796
6.26582
1
1
1
1
1
1
1
1
1
1
1
1
1
1
1
1
1
1
1
1
1
1
1
1
1
1
1
1
1
1
1
1
1
1
1
1
1
1
1
1
1
1
1
1
1
1
1
1
1
1
1
1
1
1
1
1
1
1
1
1
1
1
1
1
1
1
1
1
1
1
1
1
1
1
1
1
1
1
1
1.00064
1.04272
1.68313
4.07466
6.81374
7.28108
7.30792
7.19034
7.10473
7.01207
6.91426
6.81349
6.70899
6.60791
6.51123
6.40664
6.29757
1
1
1
1
1
1
1
1
1
1
1
1
1
1
1
1
1
1
1
1
1
1
1
1
1
1
1
1
1
1
1
1
1
1
1
1
1
1
1
1
1
1
1
1
1
1
1
1
1
1
1
1
1
1
1
1
1
1
1
1
1
1
1
1
1
1
1
1
1
1
1
1
1
1
1
1
1
1
1
1
1.00017
1.01415
1.31568
2.98427
6.01258
7.08226
7.16519
7.0974
6.99607
6.92343
6.84334
6.74785
6.64368
6.53343
6.42113
6.33306
1
1
1
1
1
1
1
1
1
1
1
1
1
1
1
1
1
1
1
1
1
1
1
1
1
1
1
1
1
1
1
1
1
1
1
1
1
1
1
1
1
1
1
1
1
1
1
1
1
1
1
1
1
1
1
1
1
1
1
1
1
1
1
1
1
1
1
1
1
1
1
1
1
1
1
1
1
1
1
1
1
1.00003
1.00395
1.11828
2.17683
4.74758
6.72246
7.04303
7.04527
6.96115
6.86999
6.77395
6.66834
6.55288
6.45541
6.36471
1
1
1
1
1
1
1
1
1
1
1
1
1
1
1
1
1
1
1
1
1
1
1
1
1
1
1
1
1
1
1
1
1
1
1
1
1
1
1
1
1
1
1
1
1
1
1
1
1
1
1
1
1
1
1
1
1
1
1
1
1
1
1
1
1
1
1
1
1
1
1
1
1
1
1
1
1
1
1
1
1
1
1.00001
1.00084
1.04003
1.55415
3.41121
6.10608
6.81867
6.9354
6.86097
6.75671
6.67393
6.59267
6.50426
6.40669
1
1
1
1
1
1
1
1
1
1
1
1
1
1
1
1
1
1
1
1
1
1
1
1
1
1
1
1
1
1
1
1
1
1
1
1
1
1
1
1
1
1
1
1
1
1
1
1
1
1
1
1
1
1
1
1
1
1
1
1
1
1
1
1
1
1
1
1
1
1
1
1
1
1
1
1
1
1
1
1
1
1
1
1
1.00015
1.01061
1.19519
2.437
4.75639
6.60472
6.88156
6.82467
6.68335
6.57684
6.49794
6.43204
1
1
1
1
1
1
1
1
1
1
1
1
1
1
1
1
1
1
1
1
1
1
1
1
1
1
1
1
1
1
1
1
1
1
1
1
1
1
1
1
1
1
1
1
1
1
1
1
1
1
1
1
1
1
1
1
1
1
1
1
1
1
1
1
1
1
1
1
1
1
1
1
1
1
1
1
1
1
1
1
1
1
1
1
1
1.00002
1.00187
1.06277
1.63231
3.49881
5.92063
6.57072
6.68031
6.65716
6.56314
6.46746
1
1
1
1
1
1
1
1
1
1
1
1
1
1
1
1
1
1
1
1
1
1
1
1
1
1
1
1
1
1
1
1
1
1
1
1
1
1
1
1
1
1
1
1
1
1
1
1
1
1
1
1
1
1
1
1
1
1
1
1
1
1
1
1
1
1
1
1
1
1
1
1
1
1
1
1
1
1
1
1
1
1
1
1
1
1
1
1.00031
1.01407
1.2269
2.36289
4.72083
6.1526
6.47078
6.60531
6.56221
1
1
1
1
1
1
1
1
1
1
1
1
1
1
1
1
1
1
1
1
1
1
1
1
1
1
1
1
1
1
1
1
1
1
1
1
1
1
1
1
1
1
1
1
1
1
1
1
1
1
1
1
1
1
1
1
1
1
1
1
1
1
1
1
1
1
1
1
1
1
1
1
1
1
1
1
1
1
1
1
1
1
1
1
1
1
1
1
1.00003
1.00257
1.06047
1.60615
3.27743
5.26794
6.25911
6.55397
1
1
1
1
1
1
1
1
1
1
1
1
1
1
1
1
1
1
1
1
1
1
1
1
1
1
1
1
1
1
1
1
1
1
1
1
1
1
1
1
1
1
1
1
1
1
1
1
1
1
1
1
1
1
1
1
1
1
1
1
1
1
1
1
1
1
1
1
1
1
1
1
1
1
1
1
1
1
1
1
1
1
1
1
1
1
1
1
1
1
1.00032
1.01275
1.19056
2.09339
4.00521
5.85511
1
1
1
1
1
1
1
1
1
1
1
1
1
1
1
1
1
1
1
1
1
1
1
1
1
1
1
1
1
1
1
1
1
1
1
1
1
1
1
1
1
1
1
1
1
1
1
1
1
1
1
1
1
1
1
1
1
1
1
1
1
1
1
1
1
1
1
1
1
1
1
1
1
1
1
1
1
1
1
1
1
1
1
1
1
1
1
1
1
1
1
1.00003
1.00187
1.04173
1.40564
2.80297
1
1
1
1
1
1
1
1
1
1
1
1
1
1
1
1
1
1
1
1
1
1
1
1
1
1
1
1
1
1
1
1
1
1
1
1
1
1
1
1
1
1
1
1
1
1
1
1
1
1
1
1
1
1
1
1
1
1
1
1
1
1
1
1
1
1
1
1
1
1
1
1
1
1
1
1
1
1
1
1
1
1
1
1
1
1
1
1
1
1
1
1
1
1.00018
1.00723
1.11465
1
1
1
1
1
1
1
1
1
1
1
1
1
1
1
1
1
1
1
1
1
1
1
1
1
1
1
1
1
1
1
1
1
1
1
1
1
1
1
1
1
1
1
1
1
1
1
1
1
1
1
1
1
1
1
1
1
1
1
1
1
1
1
1
1
1
1
1
1
1
1
1
1
1
1
1
1
1
1
1
1
1
1
1
1
1
1
1
1
1
1
1
1
1
1.00001
1.00078
1
1
1
1
1
1
1
1
1
1
1
1
1
1
1
1
1
1
1
1
1
1
1
1
1
1
1
1
1
1
1
1
1
1
1
1
1
1
1
1
1
1
1
1
1
1
1
1
1
1
1
1
1
1
1
1
1
1
1
1
1
1
1
1
1
1
1
1
1
1
1
1
1
1
1
1
1
1
1
1
1
1
1
1
1
1
1
1
1
1
1
1
1
1
1
1
1
1
1
1
1
1
1
1
1
1
1
1
1
1
1
1
1
1
1
1
1
1
1
1
1
1
1
1
1
1
1
1
1
1
1
1
1
1
1
1
1
1
1
1
1
1
1
1
1
1
1
1
1
1
1
1
1
1
1
1
1
1
1
1
1
1
1
1
1
1
1
1
1
1
1
1
1
1
1
1
1
1
1
1
1
1
1
1
1
1
1
1
1
1
1
1
1
1
1
1
1
1
1
1
1
1
1
1
1
1
1
1
1
1
1
1
1
1
1
1
1
1
1
1
1
1
1
1
1
1
1
1
1
1
1
1
1
1
1
1
1
1
1
1
1
1
1
1
1
1
1
1
1
1
1
1
1
1
1
1
1
1
1
1
1
1
1
1
1
1
1
1
1
1
1
1
1
1
1
1
1
1
1
1
1
1
1
1
1
1
1
1
1
1
1
1
1
1
1
1
1
1
1
1
1
1
1
1
1
1
1
1
1
1
1
1
1
1
1
1
1
1
1
1
1
1
1
1
1
1
1
1
1
1
1
1
1
1
1
1
1
1
1
1
1
1
1
1
1
1
1
1
1
1
1
1
1
1
1
1
1
1
1
1
1
1
1
1
1
1
1
1
1
1
1
1
1
1
1
1
1
1
1
1
1
1
1
1
1
1
1
1
1
1
1
1
1
1
1
1
1
1
1
1
1
1
1
1
1
1
1
1
1
1
1
1
1
1
1
1
1
1
1
1
1
1
1
1
1
1
1
1
1
1
1
1
1
1
1
1
1
1
1
1
1
1
1
1
1
1
1
1
1
1
1
1
1
1
1
1
1
1
1
1
1
1
1
1
1
1
1
1
1
1
1
1
1
1
1
1
1
1
1
1
1
1
1
1
1
1
1
1
1
1
1
1
1
1
1
1
1
1
1
1
1
1
1
1
1
1
1
1
1
1
1
1
1
1
1
1
1
1
1
1
1
1
1
1
1
1
1
1
1
1
1
1
1
1
1
1
1
1
1
1
1
1
1
1
1
1
1
1
1
1
1
1
1
1
1
1
1
1
1
1
1
1
1
1
1
1
1
1
1
1
1
1
1
1
1
1
1
1
1
1
1
1
1
1
1
1
1
1
1
1
1
1
1
1
1
1
1
1
1
1
1
1
1
1
1
1
1
1
1
1
1
1
1
1
1
1
1
1
1
1
1
1
1
1
1
1
1
1
1
1
1
1
1
1
1
1
1
1
1
1
1
1
1
1
1
1
1
1
1
1
1
1
1
1
1
1
1
1
1
1
1
1
1
1
1
1
1
1
1
1
1
1
1
1
1
1
1
1
1
1
1
1
1
1
1
1
1
1
1
1
1
1
1
1
1
1
1
1
1
1
1
1
1
1
1
1
1
1
1
1
1
1
1
1
1
1
1
1
1
1
1
1
1
1
1
1
1
1
1
1
1
1
1
1
1
1
1
1
1
1
1
1
1
1
1
1
1
1
1
1
1
1
1
1
1
1
1
1
1
1
1
1
1
1
1
1
1
1
1
1
1
1
1
1
1
1
1
1
1
1
1
1
1
1
1
1
1
1
1
1
1
1
1
1
1
1
1
1
1
1
1
1
1
1
1
1
1
1
1
1
1
1
1
1
1
1
1
1
1
1
1
1
1
1
1
1
1
1
1
1
1
1
1
1
1
1
1
1
1
1
1
1
1
1
1
1
1
1
1
1
1
1
1
1
1
1
1
1
1
1
1
1
1
1
1
1
1
1
1
1
1
1
1
1
1
1
1
1
1
1
1
1
1
1
1
1
1
1
1
1
1
1
1
1
1
1
1
1
1
1
1
1
1
1
1
1
1
1
1
1
1
1
1
1
1
1
1
1
1
1
1
1
1
1
1
1
1
1
1
1
1
1
1
1
1
1
1
1
1
1
1
1
1
1
1
1
1
1
1
1
1
1
1
1
1
1
1
1
1
1
1
1
1
1
1
1
1
1
1
1
1
1
1
1
1
1
1
1
1
1
1
1
1
1
1
1
1
1
1
1
1
1
1
1
1
1
1
1
1
1
1
1
1
1
1
1
1
1
1
1
1
1
1
1
1
1
1
1
1
1
1
1
1
1
1
1
1
1
1
1
1
1
1
1
1
1
1
1
1
1
1
1
1
1
1
1
1
1
1
1
1
1
1
1
1
1
1
1
1
1
1
1
1
1
1
1
1
1
1
1
1
1
1
1
1
1
1
1
1
1
1
1
1
1
1
1
1
1
1
1
1
1
1
1
1
1
1
1
1
1
1
1
1
1
1
1
1
1
1
1
1
1
1
1
1
1
1
1
1
1
1
1
1
1
1
1
1
1
1
1
1
1
1
1
1
1
1
1
1
1
1
1
1
1
1
1
1
1
1
1
1
1
1
1
1
1
1
1
1
1
1
1
1
1
1
1
1
1
1
1
1
1
1
1
1
1
1
1
1
1
1
1
1
1
1
1
1
1
1
1
1
1
1
1
1
1
1
1
1
1
1
1
1
1
1
1
1
1
1
1
1
1
1
1
1
1
1
1
1
1
1
1
1
1
1
1
1
1
1
1
1
1
1
1
1
1
1
1
1
1
1
1
1
1
1
1
1
1
1
1
1
1
1
1
1
1
1
1
1
1
1
1
1
1
1
1
1
1
1
1
1
1
1
1
1
1
1
1
1
1
1
1
1
1
1
1
1
1
1
1
1
1
1
1
1
1
1
1
1
1
1
1
1
1
1
1
1
1
1
1
1
1
1
1
1
1
1
1
1
1
1
1
1
1
1
1
1
1
1
1
1
1
1
1
1
1
1
1
1
1
1
1
1
1
1
1
1
1
1
1
1
1
1
1
1
1
1
1
1
1
1
1
1
1
1
1
1
1
1
1
1
1
1
1
1
1
1
1
1
1
1
1
1
1
1
1
1
1
1
1
1
1
1
1
1
1
1
1
1
1
1
1
1
1
1
1
1
1
1
1
1
1
1
1
1
1
1
1
1
1
1
1
1
1
1
1
1
1
1
1
1
1
1
1
1
1
1
1
1
1
1
1
1
1
1
1
1
1
1
1
1
1
1
1
1
1
1
1
1
1
1
1
1
1
1
1
1
1
1
1
1
1
1
1
1
1
1
1
1
1
1
1
1
1
1
1
1
1
1
1
1
1
1
1
1
1
1
1
1
1
1
1
1
1
1
1
1
1
1
1
1
1
1
1
1
1
1
1
1
1
1
1
1
1
1
1
1
1
1
1
1
1
1
1
1
1
1
1
1
1
1
1
1
1
1
1
1
1
1
1
1
1
1
1
1
1
1
1
1
1
1
1
1
1
1
1
1
1
1
1
1
1
1
1
1
1
1
1
1
1
1
1
1
1
1
1
1
1
1
1
1
1
1
1
1
1
1
1
1
1
1
1
1
1
1
1
1
1
1
1
1
1
1
1
1
1
1
1
1
1
1
1
1
1
1
1
1
1
1
1
1
1
1
1
1
1
1
1
1
1
1
1
1
1
1
1
1
1
1
1
1
1
1
1
1
1
1
1
1
1
1
1
1
1
1
1
1
1
1
1
1
1
1
1
1
1
1
1
1
1
1
1
1
1
1
1
1
1
1
1
1
1
1
1
1
1
1
1
1
1
1
1
1
1
1
1
1
1
1
1
1
1
1
1
1
1
1
1
1
1
1
1
1
1
1
1
1
1
1
1
1
1
1
1
1
1
1
1
1
1
1
1
1
1
1
1
1
1
1
1
1
1
1
1
1
1
1
1
1
1
1
1
1
1
1
1
1
1
1
1
1
1
1
1
1
1
1
1
1
1
1
1
1
1
1
1
1
1
1
1
1
1
1
1
1
1
1
1
1
1
1
1
1
1
1
1
1
1
1
1
1
1
1
1
1
1
1
1
1
1
1
1
1
1
1
1
1
1
1
1
1
1
1
1
1
1
1
1
1
1
1
1
1
1
1
1
1
1
1
1
1
1
1
1
1
1
1
1
1
1
1
1
1
1
1
1
1
1
1
1
1
1
1
1
1
1
1
1
1
1
1
1
1
1
1
1
1
1
1
1
1
1
1
1
1
1
1
1
1
1
1
1
1
1
1
1
1
1
1
1
1
1
1
1
1
1
1
1
1
1
1
1
1
1
1
1
1
1
1
1
1
1
1
1
1
1
1
1
1
1
1
1
1
1
1
1
1
1
1
1
1
1
1
1
1
1
1
1
1
1
1
1
1
1
1
1
1
1
1
1
1
1
1
1
1
1
1
1
1
1
1
1
1
1
1
1
1
1
1
1
1
1
1
1
1
1
1
1
1
1
1
1
1
1
1
1
1
1
1
1
1
1
1
1
1
1
1
1
1
1
1
1
1
1
1
1
1
1
1
1
1
1
1
1
1
1
1
1
1
1
1
1
1
1
1
1
1
1
1
1
1
1
1
1
1
1
1
1
1
1
1
1
1
1
1
1
1
1
1
1
1
1
1
1
1
1
1
1
1
1
1
1
1
1
1
1
1
1
1
1
1
1
1
1
1
1
1
1
1
1
1
1
1
1
1
1
1
1
1
1
1
1
1
1
1
1
1
1
1
1
1
1
1
1
1
1
1
1
1
1
1
1
1
1
1
1
1
1
1
1
1
1
1
1
1
1
1
1
1
1
1
1
1
1
1
1
1
1
1
1
1
1
1
1
1
1
1
1
1
1
1
1
1
1
1
1
1
1
1
1
1
1
1
1
1
1
1
1
1
1
1
1
1
1
1
1
1
1
1
1
1
1
1
1
1
1
1
1
1
1
1
1
1
1
1
1
1
1
1
1
1
1
1
1
1
1
1
1
1
1
1
1
1
1
1
1
1
1
1
1
1
1
1
1
1
1
1
1
1
1
1
1
1
1
1
1
1
1
1
1
1
1
1
1
1
1
1
1
1
1
1
1
1
1
1
1
1
1
1
1
1
1
1
1
1
1
1
1
1
1
1
1
1
1
1
1
1
1
1
1
1
1
1
1
1.13178
0.240445
0.0318469
0.0199023
0.0417803
0.0789145
0.0978943
0.119872
0.171259
0.257214
0.343664
0.409294
0.480931
0.553724
0.594372
0.648973
0.738322
0.816609
0.852427
0.880024
0.899311
0.916603
0.932593
0.951104
0.96602
0.969716
0.979127
0.987206
0.986261
0.998396
1.0209
1.05541
1.08439
1.10371
1.12009
1.11918
1.11381
1.1082
1.096
1.09484
1.09803
1.10139
1.11066
1.12464
1.13172
1.12983
1.12589
1.12055
1.11789
1.11853
1.12163
1.12571
1.12518
1.12218
1.11871
1.11576
1.11225
1.10925
1.1107
1.11228
1.10911
1.10373
1.09585
1.08568
1.07812
1.07473
1.0716
1.06928
1.07181
1.07422
1.07011
1.06494
1.05863
1.0487
1.03564
1.02471
1.01865
1.0152
1.0128
1.01021
1.00647
1.00041
0.991091
0.982981
0.979257
0.976477
0.974102
0.974739
0.975479
0.972389
0.969292
0.965797
0.959853
0.950924
0.942871
0.938935
0.937442
0.936338
0.936096
0.938662
0.940269
0.938025
0.935326
0.931897
0.92661
0.919225
0.910836
0.904776
0.90236
0.901213
0.900043
0.899042
0.897663
0.895433
0.892481
0.889311
0.886238
0.883362
0.881285
0.880582
0.880166
0.879907
0.880175
0.880467
0.878763
0.876168
0.872142
0.863472
0.849204
0.834407
0.826409
0.824863
0.824829
0.824994
0.825706
0.828136
0.832373
0.837986
0.843647
0.846767
0.847088
0.845616
0.839056
0.830187
0.828934
0.830002
0.831629
0.834568
0.841289
0.852299
0.861622
0.866323
0.86986
0.873056
0.874926
0.871679
0.864796
0.86337
0.865802
0.868482
0.871275
0.875212
0.880289
0.885087
0.888814
0.892007
0.894309
0.895257
0.895663
0.895511
0.894695
0.89406
0.894232
0.895042
0.896592
0.898794
0.901086
0.903149
0.904821
0.906867
0.909187
0.910996
0.912322
0.91371
0.915277
0.917327
0.920115
0.923832
0.927976
0.930098
0.93079
0.930771
2.07558
1.01813
0.401355
0.209229
0.236075
0.252133
0.222284
0.195479
0.196839
0.205783
0.225312
0.254173
0.27941
0.321756
0.392495
0.464857
0.533697
0.606923
0.670296
0.729515
0.787539
0.840503
0.867042
0.894357
0.927122
0.944457
0.963356
0.98298
0.986483
0.990951
1.00685
1.03356
1.05574
1.07077
1.08942
1.1005
1.09987
1.0998
1.09736
1.0955
1.09894
1.10115
1.10658
1.11564
1.12437
1.12935
1.12896
1.12724
1.12584
1.12632
1.12736
1.12761
1.12565
1.12154
1.1166
1.11302
1.10898
1.10484
1.10302
1.10337
1.10191
1.09893
1.09503
1.08908
1.07974
1.07116
1.06661
1.06279
1.06028
1.06061
1.05803
1.05491
1.05155
1.04646
1.03862
1.02905
1.02082
1.01557
1.01217
1.00965
1.00686
1.00285
0.997581
0.99073
0.982885
0.976831
0.972793
0.969736
0.967616
0.966164
0.964638
0.962662
0.959802
0.955834
0.950734
0.944487
0.938279
0.934445
0.932738
0.931592
0.931623
0.930671
0.928829
0.927045
0.924873
0.921773
0.917999
0.91422
0.911112
0.908619
0.906463
0.904164
0.901403
0.897809
0.893514
0.889299
0.885542
0.8823
0.879474
0.877302
0.876182
0.875291
0.874663
0.873884
0.872169
0.869533
0.86566
0.859845
0.852151
0.843303
0.835037
0.830903
0.82999
0.829788
0.829765
0.830705
0.833212
0.836974
0.840801
0.842747
0.843377
0.842592
0.838747
0.833904
0.833774
0.834783
0.836362
0.838996
0.844235
0.852848
0.860163
0.863645
0.866498
0.869137
0.870778
0.869598
0.866813
0.867126
0.869601
0.871928
0.874125
0.87663
0.879769
0.883105
0.885787
0.887961
0.890066
0.892727
0.89469
0.895835
0.896904
0.897844
0.898561
0.899487
0.900804
0.902612
0.904891
0.907009
0.908752
0.910592
0.912909
0.914449
0.915133
0.91555
0.91625
0.917417
0.918958
0.921187
0.923591
0.926055
0.928756
0.930865
2.84632
1.68205
1.04474
0.719767
0.580655
0.469086
0.398686
0.33613
0.303425
0.302335
0.295387
0.292411
0.297122
0.321499
0.366659
0.405955
0.417372
0.447114
0.508239
0.582352
0.65406
0.734202
0.78821
0.825866
0.875787
0.917734
0.955859
0.991665
1.00802
1.01501
1.03004
1.05699
1.07469
1.07622
1.08245
1.08492
1.08334
1.08244
1.0848
1.0898
1.09548
1.10308
1.11111
1.11738
1.12248
1.12619
1.1294
1.1303
1.13166
1.13331
1.13274
1.13156
1.13098
1.12823
1.12421
1.11998
1.11528
1.11033
1.10544
1.1007
1.09662
1.09389
1.09205
1.08965
1.08452
1.08
1.07771
1.07451
1.06943
1.06286
1.05551
1.04801
1.04207
1.03802
1.03461
1.0303
1.02537
1.02029
1.01512
1.00976
1.00455
1.00038
0.996961
0.992734
0.988629
0.985517
0.982044
0.977271
0.971243
0.964873
0.959775
0.956665
0.954664
0.953298
0.952056
0.950561
0.94837
0.945123
0.940825
0.9355
0.930232
0.925278
0.920451
0.916662
0.91453
0.91388
0.91364
0.91306
0.912725