/*--------------------------------*- C++ -*----------------------------------*\
  =========                 |
  \\      /  F ield         | OpenFOAM: The Open Source CFD Toolbox
   \\    /   O peration     | Website:  https://openfoam.org
    \\  /    A nd           | Version:  7
     \\/     M anipulation  |
\*---------------------------------------------------------------------------*/
FoamFile
{
    version     2.0;
    format      ascii;
    class       volScalarField;
    location    "1";
    object      rho;
}
// * * * * * * * * * * * * * * * * * * * * * * * * * * * * * * * * * * * * * //

dimensions      [1 -3 0 0 0 0 0];

internalField   nonuniform List<scalar> 
19968
(
1.40001
1.40001
1.40001
1.40001
1.40001
1.40001
1.40001
1.40001
1.40001
1.40001
1.40001
1.40001
1.40001
1.40001
1.40001
1.40001
1.40001
1.40001
1.40001
1.40001
1.40001
1.40001
1.40001
1.40001
1.40001
1.40001
1.40001
1.40001
1.40001
1.40001
1.40001
1.40001
1.40001
1.40001
1.40001
1.40001
1.40001
1.40001
1.40001
1.40001
1.40001
1.40001
1.40001
1.40001
1.40001
1.40001
1.40001
1.40001
1.40001
1.40001
1.40001
1.40001
1.40001
1.40001
3.5558
5.39268
5.46126
5.4947
5.53289
5.55805
5.59752
5.63942
5.67414
5.69295
5.68321
5.65901
5.64397
5.64522
5.66912
5.70822
5.74759
5.77104
5.77859
5.77946
5.78238
5.79765
5.82387
5.84954
5.86415
5.86591
5.85205
5.82493
5.79737
5.78067
5.78486
5.80707
5.83731
5.86896
5.89024
5.8939
5.8639
5.77983
5.63742
5.4773
5.36609
5.32697
1.40001
1.40001
1.40001
1.40001
1.40001
1.40001
1.40001
1.40001
1.40001
1.40001
1.40001
1.40001
1.40001
1.40001
1.40001
1.40001
1.40001
1.40001
1.40001
1.40001
1.40001
1.40001
1.40001
1.40001
1.40001
1.40001
1.40001
1.40001
1.40001
1.40001
1.40001
1.40001
1.40001
1.40001
1.40001
1.40001
1.40001
1.40001
1.40001
1.40001
1.40001
1.40001
1.40001
1.40001
1.40001
1.40001
1.40001
1.40001
1.40001
1.40001
1.40001
1.40001
1.40001
1.40001
3.51534
5.39264
5.45384
5.49243
5.52904
5.55616
5.59635
5.63792
5.67158
5.68935
5.6807
5.65694
5.64302
5.64454
5.66681
5.70357
5.74206
5.76618
5.77534
5.77722
5.78066
5.79584
5.82121
5.84611
5.86041
5.86219
5.84921
5.82382
5.79775
5.78157
5.78446
5.80552
5.83495
5.86644
5.88779
5.89069
5.8594
5.7751
5.63337
5.47434
5.36361
5.32538
1.40001
1.40001
1.40001
1.40001
1.40001
1.40001
1.40001
1.40001
1.40001
1.40001
1.40001
1.40001
1.40001
1.40001
1.40001
1.40001
1.40001
1.40001
1.40001
1.40001
1.40001
1.40001
1.40001
1.40001
1.40001
1.40001
1.40001
1.40001
1.40001
1.40001
1.40001
1.40001
1.40001
1.40001
1.40001
1.40001
1.40001
1.40001
1.40001
1.40001
1.40001
1.40001
1.40001
1.40001
1.40001
1.40001
1.40001
1.40001
1.40001
1.40001
1.40001
1.40001
1.40001
1.40001
3.42627
5.38093
5.44727
5.48782
5.52508
5.55443
5.59442
5.6341
5.66668
5.68343
5.67583
5.65321
5.64078
5.6425
5.66328
5.6975
5.73506
5.75983
5.7709
5.77425
5.77841
5.79296
5.81637
5.83999
5.85433
5.85659
5.84513
5.82206
5.7977
5.78203
5.78368
5.80411
5.83274
5.86295
5.88248
5.88258
5.84916
5.76492
5.62479
5.46776
5.35748
5.31991
1.40001
1.40001
1.40001
1.40001
1.40001
1.40001
1.40001
1.40001
1.40001
1.40001
1.40001
1.40001
1.40001
1.40001
1.40001
1.40001
1.40001
1.40001
1.40001
1.40001
1.40001
1.40001
1.40001
1.40001
1.40001
1.40001
1.40001
1.40001
1.40001
1.40001
1.40001
1.40001
1.40001
1.40001
1.40001
1.40001
1.40001
1.40001
1.40001
1.40001
1.40001
1.40001
1.40001
1.40001
1.40001
1.40001
1.40001
1.40001
1.40001
1.40001
1.40001
1.40001
1.40001
1.40001
3.28716
5.3545
5.44366
5.4847
5.52283
5.5535
5.59272
5.63061
5.6629
5.67761
5.66789
5.64618
5.6344
5.63661
5.65773
5.69099
5.72782
5.75278
5.76485
5.76927
5.7745
5.78863
5.8102
5.83229
5.84636
5.84902
5.83908
5.81836
5.79537
5.78088
5.78213
5.80187
5.83044
5.85833
5.87484
5.87075
5.83432
5.74978
5.61107
5.45644
5.34717
5.31088
1.40001
1.40001
1.40001
1.40001
1.40001
1.40001
1.40001
1.40001
1.40001
1.40001
1.40001
1.40001
1.40001
1.40001
1.40001
1.40001
1.40001
1.40001
1.40001
1.40001
1.40001
1.40001
1.40001
1.40001
1.40001
1.40001
1.40001
1.40001
1.40001
1.40001
1.40001
1.40001
1.40001
1.40001
1.40001
1.40001
1.40001
1.40001
1.40001
1.40001
1.40001
1.40001
1.40001
1.40001
1.40001
1.40001
1.40001
1.40001
1.40001
1.40001
1.40001
1.40001
1.40001
1.40001
3.09575
5.31439
5.44079
5.47957
5.52077
5.55452
5.59077
5.62667
5.65797
5.67016
5.65582
5.63523
5.62406
5.6287
5.65107
5.68549
5.72211
5.74671
5.75811
5.76243
5.76865
5.7828
5.80316
5.82368
5.83738
5.84057
5.83144
5.8118
5.78968
5.77693
5.77912
5.79936
5.82835
5.85313
5.86486
5.85535
5.81567
5.73143
5.59464
5.44259
5.33465
5.29988
1.40001
1.40001
1.40001
1.40001
1.40001
1.40001
1.40001
1.40001
1.40001
1.40001
1.40001
1.40001
1.40001
1.40001
1.40001
1.40001
1.40001
1.40001
1.40001
1.40001
1.40001
1.40001
1.40001
1.40001
1.40001
1.40001
1.40001
1.40001
1.40001
1.40001
1.40001
1.40001
1.40001
1.40001
1.40001
1.40001
1.40001
1.40001
1.40001
1.40001
1.40001
1.40001
1.40001
1.40001
1.40001
1.40001
1.40001
1.40001
1.40001
1.40001
1.40001
1.40001
1.40001
1.40001
2.85472
5.25895
5.44132
5.4732
5.51823
5.55434
5.58974
5.62491
5.65164
5.65895
5.64091
5.62378
5.61472
5.62108
5.64396
5.67975
5.71658
5.74076
5.75059
5.75383
5.76037
5.77459
5.79422
5.81376
5.82757
5.83154
5.82247
5.80256
5.7809
5.76984
5.77459
5.79687
5.82599
5.84692
5.85262
5.83734
5.79438
5.71034
5.57607
5.42672
5.32047
5.28688
1.40001
1.40001
1.40001
1.40001
1.40001
1.40001
1.40001
1.40001
1.40001
1.40001
1.40001
1.40001
1.40001
1.40001
1.40001
1.40001
1.40001
1.40001
1.40001
1.40001
1.40001
1.40001
1.40001
1.40001
1.40001
1.40001
1.40001
1.40001
1.40001
1.40001
1.40001
1.40001
1.40001
1.40001
1.40001
1.40001
1.40001
1.40001
1.40001
1.40001
1.40001
1.40001
1.40001
1.40001
1.40001
1.40001
1.40001
1.40001
1.40001
1.40001
1.40001
1.40001
1.40001
1.40001
2.56602
5.1617
5.43527
5.47243
5.52398
5.55899
5.59158
5.62127
5.63962
5.6403
5.62731
5.61672
5.61105
5.61821
5.63711
5.67032
5.70699
5.73124
5.74109
5.74437
5.75104
5.7644
5.78251
5.80124
5.81561
5.82043
5.8116
5.79152
5.76997
5.76043
5.76837
5.79248
5.82051
5.83734
5.83713
5.8173
5.77213
5.68775
5.55521
5.40844
5.3043
5.27135
1.40001
1.40001
1.40001
1.40001
1.40001
1.40001
1.40001
1.40001
1.40001
1.40001
1.40001
1.40001
1.40001
1.40001
1.40001
1.40001
1.40001
1.40001
1.40001
1.40001
1.40001
1.40001
1.40001
1.40001
1.40001
1.40001
1.40001
1.40001
1.40001
1.40001
1.40001
1.40001
1.40001
1.40001
1.40001
1.40001
1.40001
1.40001
1.40001
1.40001
1.40001
1.40001
1.40001
1.40001
1.40001
1.40001
1.40001
1.40001
1.40001
1.40001
1.40001
1.40001
1.40001
1.40001
2.2348
4.9857
5.43705
5.484
5.52933
5.56272
5.58746
5.60603
5.61419
5.61343
5.61245
5.61283
5.61268
5.62031
5.63253
5.65763
5.69184
5.71573
5.72758
5.73346
5.74122
5.75305
5.76814
5.78496
5.79904
5.80471
5.79801
5.77982
5.75957
5.75135
5.76091
5.78446
5.80944
5.82308
5.81869
5.79584
5.75035
5.66522
5.53213
5.38608
5.28316
5.25053
1.40001
1.40001
1.40001
1.40001
1.40001
1.40001
1.40001
1.40001
1.40001
1.40001
1.40001
1.40001
1.40001
1.40001
1.40001
1.40001
1.40001
1.40001
1.40001
1.40001
1.40001
1.40001
1.40001
1.40001
1.40001
1.40001
1.40001
1.40001
1.40001
1.40001
1.40001
1.40001
1.40001
1.40001
1.40001
1.40001
1.40001
1.40001
1.40001
1.40001
1.40001
1.40001
1.40001
1.40001
1.40001
1.40001
1.40001
1.40001
1.40001
1.40001
1.40001
1.40001
1.40001
1.40001
1.87446
4.72818
5.44934
5.49316
5.53908
5.56403
5.57815
5.58318
5.58496
5.58762
5.59834
5.6084
5.61486
5.62052
5.62613
5.64106
5.66858
5.6917
5.70701
5.71867
5.73032
5.74159
5.75224
5.76408
5.7753
5.78156
5.77929
5.76621
5.74974
5.74224
5.74943
5.76888
5.78923
5.8003
5.79532
5.77334
5.72925
5.64379
5.50898
5.36089
5.25694
5.22439
1.40001
1.40001
1.40001
1.40001
1.40001
1.40001
1.40001
1.40001
1.40001
1.40001
1.40001
1.40001
1.40001
1.40001
1.40001
1.40001
1.40001
1.40001
1.40001
1.40001
1.40001
1.40001
1.40001
1.40001
1.40001
1.40001
1.40001
1.40001
1.40001
1.40001
1.40001
1.40001
1.40001
1.40001
1.40001
1.40001
1.40001
1.40001
1.40001
1.40001
1.40001
1.40001
1.40001
1.40001
1.40001
1.40001
1.40001
1.40001
1.40001
1.40001
1.40001
1.40001
1.40001
1.40001
1.47938
4.22676
5.48099
5.50366
5.5377
5.55712
5.56703
5.56993
5.56968
5.57484
5.58728
5.59959
5.60718
5.61257
5.61452
5.62257
5.64197
5.66247
5.6806
5.69838
5.71519
5.72703
5.73321
5.7386
5.74525
5.75249
5.75577
5.75065
5.73994
5.73218
5.73359
5.74564
5.76106
5.77048
5.7679
5.74982
5.70782
5.62157
5.48344
5.33068
5.22298
5.18979
1.40001
1.40001
1.40001
1.40001
1.40001
1.40001
1.40001
1.40001
1.40001
1.40001
1.40001
1.40001
1.40001
1.40001
1.40001
1.40001
1.40001
1.40001
1.40001
1.40001
1.40001
1.40001
1.40001
1.40001
1.40001
1.40001
1.40001
1.40001
1.40001
1.40001
1.40001
1.40001
1.40001
1.40001
1.40001
1.40001
1.40001
1.40001
1.40001
1.40001
1.40001
1.40001
1.40001
1.40001
1.40001
1.40001
1.40001
1.40001
1.40001
1.40001
1.40001
1.40001
1.40001
1.40001
1.4007
3.42918
5.38372
5.45848
5.48827
5.51407
5.5342
5.54723
5.55603
5.5665
5.57813
5.58694
5.59718
5.60304
5.60325
5.60573
5.61578
5.63254
5.65162
5.67209
5.69119
5.70258
5.7056
5.70646
5.71005
5.71911
5.72796
5.73023
5.72401
5.71256
5.70616
5.70944
5.71948
5.7295
5.7324
5.72053
5.68227
5.59641
5.45537
5.29706
5.18406
5.14929
1.40001
1.40001
1.40001
1.40001
1.40001
1.40001
1.40001
1.40001
1.40001
1.40001
1.40001
1.40001
1.40001
1.40001
1.40001
1.40001
1.40001
1.40001
1.40001
1.40001
1.40001
1.40001
1.40001
1.40001
1.40001
1.40001
1.40001
1.40001
1.40001
1.40001
1.40001
1.40001
1.40001
1.40001
1.40001
1.40001
1.40001
1.40001
1.40001
1.40001
1.40001
1.40001
1.40001
1.40001
1.40001
1.40001
1.40001
1.40001
1.40001
1.40001
1.40001
1.40001
1.40001
1.40001
1.40001
2.4948
5.11083
5.44318
5.44923
5.47739
5.50221
5.52395
5.54103
5.5533
5.56549
5.57771
5.58698
5.59078
5.58746
5.58674
5.58927
5.60213
5.62459
5.64384
5.66011
5.66821
5.67037
5.67001
5.6736
5.6853
5.69802
5.70372
5.69809
5.68246
5.66777
5.66363
5.67077
5.68297
5.6907
5.68392
5.64855
5.56301
5.41883
5.25324
5.13313
5.09458
1.40001
1.40001
1.40001
1.40001
1.40001
1.40001
1.40001
1.40001
1.40001
1.40001
1.40001
1.40001
1.40001
1.40001
1.40001
1.40001
1.40001
1.40001
1.40001
1.40001
1.40001
1.40001
1.40001
1.40001
1.40001
1.40001
1.40001
1.40001
1.40001
1.40001
1.40001
1.40001
1.40001
1.40001
1.40001
1.40001
1.40001
1.40001
1.40001
1.40001
1.40001
1.40001
1.40001
1.40001
1.40001
1.40001
1.40001
1.40001
1.40001
1.40001
1.40001
1.40001
1.40001
1.40001
1.40001
1.68433
4.54025
5.46325
5.44299
5.46518
5.49259
5.51821
5.53738
5.54825
5.5572
5.56513
5.56983
5.56713
5.55733
5.55305
5.5507
5.56435
5.59227
5.61377
5.62759
5.6315
5.63148
5.63068
5.63485
5.64622
5.65862
5.66307
5.65448
5.63463
5.61333
5.60222
5.60497
5.61541
5.62538
5.62351
5.59345
5.513
5.37105
5.20107
5.07491
5.03163
1.40001
1.40001
1.40001
1.40001
1.40001
1.40001
1.40001
1.40001
1.40001
1.40001
1.40001
1.40001
1.40001
1.40001
1.40001
1.40001
1.40001
1.40001
1.40001
1.40001
1.40001
1.40001
1.40001
1.40001
1.40001
1.40001
1.40001
1.40001
1.40001
1.40001
1.40001
1.40001
1.40001
1.40001
1.40001
1.40001
1.40001
1.40001
1.40001
1.40001
1.40001
1.40001
1.40001
1.40001
1.40001
1.40001
1.40001
1.40001
1.40001
1.40001
1.40001
1.40001
1.40001
1.40001
1.40001
1.40537
3.42984
5.35649
5.40954
5.43408
5.46303
5.48834
5.50658
5.51806
5.52821
5.53468
5.53841
5.53537
5.52375
5.5153
5.5127
5.52721
5.55897
5.58409
5.59519
5.59474
5.58925
5.58498
5.58748
5.59451
5.60303
5.60545
5.59441
5.57348
5.55031
5.53354
5.53046
5.53778
5.54878
5.5516
5.5255
5.44794
5.30563
5.12621
4.98718
4.93368
1.40001
1.40001
1.40001
1.40001
1.40001
1.40001
1.40001
1.40001
1.40001
1.40001
1.40001
1.40001
1.40001
1.40001
1.40001
1.40001
1.40001
1.40001
1.40001
1.40001
1.40001
1.40001
1.40001
1.40001
1.40001
1.40001
1.40001
1.40001
1.40001
1.40001
1.40001
1.40001
1.40001
1.40001
1.40001
1.40001
1.40001
1.40001
1.40001
1.40001
1.40001
1.40001
1.40001
1.40001
1.40001
1.40001
1.40001
1.40001
1.40001
1.40001
1.40001
1.40001
1.40001
1.40001
1.40001
1.40001
2.12657
4.89288
5.39682
5.39559
5.42631
5.45059
5.47055
5.48503
5.49639
5.50314
5.50323
5.50028
5.48975
5.47856
5.47789
5.48764
5.51383
5.5411
5.55244
5.55045
5.54002
5.5307
5.52826
5.53022
5.5333
5.53142
5.51835
5.49652
5.47095
5.44672
5.43021
5.42396
5.42351
5.4186
5.38841
5.31277
5.17861
4.99845
4.85402
4.79423
1.40001
1.40001
1.40001
1.40001
1.40001
1.40001
1.40001
1.40001
1.40001
1.40001
1.40001
1.40001
1.40001
1.40001
1.40001
1.40001
1.40001
1.40001
1.40001
1.40001
1.40001
1.40001
1.40001
1.40001
1.40001
1.40001
1.40001
1.40001
1.40001
1.40001
1.40001
1.40001
1.40001
1.40001
1.40001
1.40001
1.40001
1.40001
1.40001
1.40001
1.40001
1.40001
1.40001
1.40001
1.40001
1.40001
1.40001
1.40001
1.40001
1.40001
1.40001
1.40001
1.40001
1.40001
1.40001
1.40001
1.43089
3.58688
5.34343
5.3898
5.41132
5.43326
5.45119
5.46276
5.46848
5.46957
5.46419
5.45743
5.44786
5.43271
5.42969
5.43304
5.45173
5.48052
5.49717
5.49917
5.48826
5.47376
5.46303
5.45626
5.44993
5.43987
5.42258
5.39852
5.37015
5.33915
5.3088
5.28652
5.27233
5.2603
5.23378
5.16977
5.03569
4.84264
4.62904
4.58726
1.40001
1.40001
1.40001
1.40001
1.40001
1.40001
1.40001
1.40001
1.40001
1.40001
1.40001
1.40001
1.40001
1.40001
1.40001
1.40001
1.40001
1.40001
1.40001
1.40001
1.40001
1.40001
1.40001
1.40001
1.40001
1.40001
1.40001
1.40001
1.40001
1.40001
1.40001
1.40001
1.40001
1.40001
1.40001
1.40001
1.40001
1.40001
1.40001
1.40001
1.40001
1.40001
1.40001
1.40001
1.40001
1.40001
1.40001
1.40001
1.40001
1.40001
1.40001
1.40001
1.40001
1.40001
1.40001
1.40001
1.39955
2.16211
4.90549
5.35794
5.3566
5.38651
5.41595
5.43502
5.44171
5.44059
5.43659
5.43051
5.42575
5.41507
5.40192
5.39836
5.40676
5.42615
5.44243
5.44634
5.43466
5.41383
5.39285
5.37701
5.364
5.34949
5.32972
5.30245
5.26924
5.23027
5.18609
5.14087
5.09928
5.0583
4.99732
4.88211
4.67057
4.34512
3.84258
2.93207
1.40001
1.40001
1.40001
1.40001
1.40001
1.40001
1.40001
1.40001
1.40001
1.40001
1.40001
1.40001
1.40001
1.40001
1.40001
1.40001
1.40001
1.40001
1.40001
1.40001
1.40001
1.40001
1.40001
1.40001
1.40001
1.40001
1.40001
1.40001
1.40001
1.40001
1.40001
1.40001
1.40001
1.40001
1.40001
1.40001
1.40001
1.40001
1.40001
1.40001
1.40001
1.40001
1.40001
1.40001
1.40001
1.40001
1.40001
1.40001
1.40001
1.40001
1.40001
1.40001
1.40001
1.40001
1.40001
1.40001
1.39993
1.44722
3.8636
5.32775
5.34673
5.36619
5.39404
5.40978
5.41623
5.41747
5.41703
5.41143
5.405
5.39155
5.36842
5.35932
5.36047
5.37307
5.38795
5.39407
5.38554
5.36311
5.33474
5.30923
5.2892
5.27149
5.24934
5.21781
5.177
5.12743
5.07088
5.0079
4.94072
4.86797
4.77023
4.62547
4.39187
4.05777
3.48527
2.71386
1.40001
1.40001
1.40001
1.40001
1.40001
1.40001
1.40001
1.40001
1.40001
1.40001
1.40001
1.40001
1.40001
1.40001
1.40001
1.40001
1.40001
1.40001
1.40001
1.40001
1.40001
1.40001
1.40001
1.40001
1.40001
1.40001
1.40001
1.40001
1.40001
1.40001
1.40001
1.40001
1.40001
1.40001
1.40001
1.40001
1.40001
1.40001
1.40001
1.40001
1.40001
1.40001
1.40001
1.40001
1.40001
1.40001
1.40001
1.40001
1.40001
1.40001
1.40001
1.40001
1.40001
1.40001
1.40001
1.40001
1.4
1.40008
2.38815
4.96718
5.30346
5.32125
5.35481
5.37666
5.39013
5.3958
5.39718
5.39274
5.38457
5.37211
5.35006
5.33039
5.32071
5.3233
5.33136
5.33618
5.33047
5.30888
5.27498
5.23859
5.20943
5.18772
5.16439
5.13134
5.08447
5.02371
4.95362
4.87648
4.79048
4.69061
4.56411
4.39613
4.17809
3.83897
3.38778
2.85661
1.40001
1.40001
1.40001
1.40001
1.40001
1.40001
1.40001
1.40001
1.40001
1.40001
1.40001
1.40001
1.40001
1.40001
1.40001
1.40001
1.40001
1.40001
1.40001
1.40001
1.40001
1.40001
1.40001
1.40001
1.40001
1.40001
1.40001
1.40001
1.40001
1.40001
1.40001
1.40001
1.40001
1.40001
1.40001
1.40001
1.40001
1.40001
1.40001
1.40001
1.40001
1.40001
1.40001
1.40001
1.40001
1.40001
1.40001
1.40001
1.40001
1.40001
1.40001
1.40001
1.40001
1.40001
1.40001
1.40001
1.40001
1.4
1.46991
3.9043
5.27676
5.31378
5.32851
5.3543
5.37088
5.37597
5.374
5.36764
5.35774
5.34754
5.32825
5.29996
5.27949
5.27095
5.27231
5.27347
5.27018
5.25343
5.22099
5.17828
5.13792
5.10631
5.07766
5.04246
4.99195
4.92317
4.84187
4.75427
4.65766
4.54275
4.40059
4.22382
4.00329
3.72205
3.39212
3.00368
1.40001
1.40001
1.40001
1.40001
1.40001
1.40001
1.40001
1.40001
1.40001
1.40001
1.40001
1.40001
1.40001
1.40001
1.40001
1.40001
1.40001
1.40001
1.40001
1.40001
1.40001
1.40001
1.40001
1.40001
1.40001
1.40001
1.40001
1.40001
1.40001
1.40001
1.40001
1.40001
1.40001
1.40001
1.40001
1.40001
1.40001
1.40001
1.40001
1.40001
1.40001
1.40001
1.40001
1.40001
1.40001
1.40001
1.40001
1.40001
1.40001
1.40001
1.40001
1.40001
1.40001
1.40001
1.40001
1.40001
1.40001
1.40001
1.4002
2.28301
4.88007
5.27457
5.27886
5.31258
5.3389
5.34989
5.34888
5.34015
5.33062
5.32395
5.31071
5.28449
5.25643
5.23248
5.21683
5.20863
5.20183
5.18873
5.16342
5.12245
5.07442
5.03088
4.99391
4.95464
4.90245
4.83113
4.74435
4.64907
4.54463
4.42447
4.27952
4.10509
3.8985
3.66562
3.40571
3.11764
1.40001
1.40001
1.40001
1.40001
1.40001
1.40001
1.40001
1.40001
1.40001
1.40001
1.40001
1.40001
1.40001
1.40001
1.40001
1.40001
1.40001
1.40001
1.40001
1.40001
1.40001
1.40001
1.40001
1.40001
1.40001
1.40001
1.40001
1.40001
1.40001
1.40001
1.40001
1.40001
1.40001
1.40001
1.40001
1.40001
1.40001
1.40001
1.40001
1.40001
1.40001
1.40001
1.40001
1.40001
1.40001
1.40001
1.40001
1.40001
1.40001
1.40001
1.40001
1.40001
1.40001
1.40001
1.40001
1.40001
1.40001
1.40001
1.40001
1.4521
3.55862
5.18197
5.27418
5.30271
5.32065
5.32346
5.3157
5.30214
5.29141
5.28463
5.27746
5.25916
5.22821
5.19478
5.16672
5.1471
5.13382
5.12151
5.10322
5.06997
5.02243
4.97041
4.92169
4.87294
4.8159
4.7442
4.65847
4.5617
4.45434
4.33359
4.1923
4.03157
3.84703
3.64636
3.43246
3.20118
1.40001
1.40001
1.40001
1.40001
1.40001
1.40001
1.40001
1.40001
1.40001
1.40001
1.40001
1.40001
1.40001
1.40001
1.40001
1.40001
1.40001
1.40001
1.40001
1.40001
1.40001
1.40001
1.40001
1.40001
1.40001
1.40001
1.40001
1.40001
1.40001
1.40001
1.40001
1.40001
1.40001
1.40001
1.40001
1.40001
1.40001
1.40001
1.40001
1.40001
1.40001
1.40001
1.40001
1.40001
1.40001
1.40001
1.40001
1.40001
1.40001
1.40001
1.40001
1.40001
1.40001
1.40001
1.40001
1.40001
1.40001
1.40001
1.40001
1.40013
1.8206
4.5903
5.30523
5.29285
5.30133
5.29924
5.29235
5.28131
5.26925
5.25988
5.25188
5.23609
5.20706
5.16772
5.1277
5.09397
5.06867
5.05055
5.03362
5.00856
4.9685
4.91657
4.86084
4.80345
4.74018
4.66725
4.58373
4.48913
4.38379
4.26524
4.13218
3.98744
3.82425
3.65094
3.46797
3.27455
1.40001
1.40001
1.40001
1.40001
1.40001
1.40001
1.40001
1.40001
1.40001
1.40001
1.40001
1.40001
1.40001
1.40001
1.40001
1.40001
1.40001
1.40001
1.40001
1.40001
1.40001
1.40001
1.40001
1.40001
1.40001
1.40001
1.40001
1.40001
1.40001
1.40001
1.40001
1.40001
1.40001
1.40001
1.40001
1.40001
1.40001
1.40001
1.40001
1.40001
1.40001
1.40001
1.40001
1.40001
1.40001
1.40001
1.40001
1.40001
1.40001
1.40001
1.40001
1.40001
1.40001
1.40001
1.40001
1.40001
1.40001
1.40001
1.40001
1.40001
1.4098
2.91054
5.07817
5.24103
5.22826
5.23069
5.23404
5.23408
5.22934
5.22154
5.21288
5.19846
5.17397
5.13888
5.09609
5.05403
5.01812
4.99267
4.97067
4.94647
4.91177
4.86392
4.80737
4.7456
4.67713
4.60193
4.51907
4.42717
4.32643
4.21426
4.09164
3.96129
3.8166
3.66535
3.50464
3.33936
1.40001
1.40001
1.40001
1.40001
1.40001
1.40001
1.40001
1.40001
1.40001
1.40001
1.40001
1.40001
1.40001
1.40001
1.40001
1.40001
1.40001
1.40001
1.40001
1.40001
1.40001
1.40001
1.40001
1.40001
1.40001
1.40001
1.40001
1.40001
1.40001
1.40001
1.40001
1.40001
1.40001
1.40001
1.40001
1.40001
1.40001
1.40001
1.40001
1.40001
1.40001
1.40001
1.40001
1.40001
1.40001
1.40001
1.40001
1.40001
1.40001
1.40001
1.40001
1.40001
1.40001
1.40001
1.40001
1.40001
1.40001
1.40001
1.40001
1.40001
1.40001
1.54108
3.86813
5.18662
5.1851
5.18867
5.19817
5.20932
5.21131
5.20094
5.18459
5.16322
5.13671
5.10454
5.0641
5.0201
4.97858
4.94201
4.91332
4.88447
4.85105
4.80766
4.75465
4.6935
4.62442
4.54794
4.46473
4.37468
4.27912
4.17542
4.0635
3.94602
3.81685
3.68242
3.53852
3.39563
1.40001
1.40001
1.40001
1.40001
1.40001
1.40001
1.40001
1.40001
1.40001
1.40001
1.40001
1.40001
1.40001
1.40001
1.40001
1.40001
1.40001
1.40001
1.40001
1.40001
1.40001
1.40001
1.40001
1.40001
1.40001
1.40001
1.40001
1.40001
1.40001
1.40001
1.40001
1.40001
1.40001
1.40001
1.40001
1.40001
1.40001
1.40001
1.40001
1.40001
1.40001
1.40001
1.40001
1.40001
1.40001
1.40001
1.40001
1.40001
1.40001
1.40001
1.40001
1.40001
1.40001
1.40001
1.40001
1.40001
1.40001
1.40001
1.40001
1.40001
1.40001
1.40098
1.86447
4.54772
5.19966
5.16937
5.17664
5.1868
5.19345
5.18458
5.16537
5.13738
5.10653
5.07383
5.03763
4.99652
4.95431
4.91223
4.87266
4.83638
4.79687
4.75142
4.70053
4.64176
4.57609
4.50052
4.41892
4.33146
4.24118
4.14461
4.04328
3.93615
3.82043
3.69971
3.57142
3.44492
1.40001
1.40001
1.40001
1.40001
1.40001
1.40001
1.40001
1.40001
1.40001
1.40001
1.40001
1.40001
1.40001
1.40001
1.40001
1.40001
1.40001
1.40001
1.40001
1.40001
1.40001
1.40001
1.40001
1.40001
1.40001
1.40001
1.40001
1.40001
1.40001
1.40001
1.40001
1.40001
1.40001
1.40001
1.40001
1.40001
1.40001
1.40001
1.40001
1.40001
1.40001
1.40001
1.40001
1.40001
1.40001
1.40001
1.40001
1.40001
1.40001
1.40001
1.40001
1.40001
1.40001
1.40001
1.40001
1.40001
1.40001
1.40001
1.40001
1.40001
1.40001
1.40001
1.41166
2.64804
4.95601
5.17632
5.15117
5.15788
5.1639
5.15813
5.13892
5.10869
5.07491
5.03994
5.0055
4.96994
4.93108
4.8888
4.84398
4.79902
4.75177
4.7014
4.64997
4.59403
4.53016
4.45863
4.38094
4.29751
4.21194
4.12095
4.0285
3.93029
3.82736
3.71725
3.60416
3.48719
1.40001
1.40001
1.40001
1.40001
1.40001
1.40001
1.40001
1.40001
1.40001
1.40001
1.40001
1.40001
1.40001
1.40001
1.40001
1.40001
1.40001
1.40001
1.40001
1.40001
1.40001
1.40001
1.40001
1.40001
1.40001
1.40001
1.40001
1.40001
1.40001
1.40001
1.40001
1.40001
1.40001
1.40001
1.40001
1.40001
1.40001
1.40001
1.40001
1.40001
1.40001
1.40001
1.40001
1.40001
1.40001
1.40001
1.40001
1.40001
1.40001
1.40001
1.40001
1.40001
1.40001
1.40001
1.40001
1.40001
1.40001
1.40001
1.40001
1.40001
1.40001
1.40001
1.40002
1.49027
3.37911
5.10182
5.1524
5.1302
5.1337
5.12926
5.11365
5.08574
5.0526
5.01718
4.9821
4.94928
4.91165
4.87081
4.82397
4.77268
4.7183
4.66156
4.60784
4.55217
4.49049
4.42328
4.35006
4.27133
4.18962
4.1041
4.01808
3.92858
3.83729
3.73741
3.63653
3.52508
1.40001
1.40001
1.40001
1.40001
1.40001
1.40001
1.40001
1.40001
1.40001
1.40001
1.40001
1.40001
1.40001
1.40001
1.40001
1.40001
1.40001
1.40001
1.40001
1.40001
1.40001
1.40001
1.40001
1.40001
1.40001
1.40001
1.40001
1.40001
1.40001
1.40001
1.40001
1.40001
1.40001
1.40001
1.40001
1.40001
1.40001
1.40001
1.40001
1.40001
1.40001
1.40001
1.40001
1.40001
1.40001
1.40001
1.40001
1.40001
1.40001
1.40001
1.40001
1.40001
1.40001
1.40001
1.40001
1.40001
1.40001
1.40001
1.40001
1.40001
1.40001
1.40001
1.40001
1.40048
1.64089
3.90932
5.12041
5.12409
5.09832
5.09607
5.08484
5.06384
5.03412
4.99934
4.96632
4.93185
4.8956
4.85548
4.80913
4.75574
4.69675
4.63644
4.57899
4.52193
4.46104
4.39615
4.32645
4.25234
4.17408
4.09377
4.01226
3.93001
3.84701
3.75644
3.66352
3.55866
1.40001
1.40001
1.40001
1.40001
1.40001
1.40001
1.40001
1.40001
1.40001
1.40001
1.40001
1.40001
1.40001
1.40001
1.40001
1.40001
1.40001
1.40001
1.40001
1.40001
1.40001
1.40001
1.40001
1.40001
1.40001
1.40001
1.40001
1.40001
1.40001
1.40001
1.40001
1.40001
1.40001
1.40001
1.40001
1.40001
1.40001
1.40001
1.40001
1.40001
1.40001
1.40001
1.40001
1.40001
1.40001
1.40001
1.40001
1.40001
1.40001
1.40001
1.40001
1.40001
1.40001
1.40001
1.40001
1.40001
1.40001
1.40001
1.40001
1.40001
1.40001
1.40001
1.40001
1.40001
1.40301
1.82642
4.31225
5.09165
5.08196
5.06649
5.04984
5.03319
5.01122
4.98282
4.95159
4.91752
4.87931
4.83785
4.79153
4.73943
4.68188
4.62168
4.56178
4.50227
4.44085
4.37653
4.30965
4.23956
4.16512
4.08925
4.01082
3.93312
3.85571
3.77367
3.68653
3.58982
1.40001
1.40001
1.40001
1.40001
1.40001
1.40001
1.40001
1.40001
1.40001
1.40001
1.40001
1.40001
1.40001
1.40001
1.40001
1.40001
1.40001
1.40001
1.40001
1.40001
1.40001
1.40001
1.40001
1.40001
1.40001
1.40001
1.40001
1.40001
1.40001
1.40001
1.40001
1.40001
1.40001
1.40001
1.40001
1.40001
1.40001
1.40001
1.40001
1.40001
1.40001
1.40001
1.40001
1.40001
1.40001
1.40001
1.40001
1.40001
1.40001
1.40001
1.40001
1.40001
1.40001
1.40001
1.40001
1.40001
1.40001
1.40001
1.40001
1.40001
1.40001
1.40001
1.40001
1.40001
1.40001
1.40964
2.05734
4.575
5.09207
5.05959
5.02955
5.00005
4.97843
4.95745
4.93224
4.9009
4.86315
4.82027
4.77361
4.72343
4.6699
4.61388
4.55557
4.4945
4.43066
4.36505
4.29964
4.23202
4.16029
4.08724
4.01226
3.93833
3.86537
3.7893
3.70594
3.61739
1.40001
1.40001
1.40001
1.40001
1.40001
1.40001
1.40001
1.40001
1.40001
1.40001
1.40001
1.40001
1.40001
1.40001
1.40001
1.40001
1.40001
1.40001
1.40001
1.40001
1.40001
1.40001
1.40001
1.40001
1.40001
1.40001
1.40001
1.40001
1.40001
1.40001
1.40001
1.40001
1.40001
1.40001
1.40001
1.40001
1.40001
1.40001
1.40001
1.40001
1.40001
1.40001
1.40001
1.40001
1.40001
1.40001
1.40001
1.40001
1.40001
1.40001
1.40001
1.40001
1.40001
1.40001
1.40001
1.40001
1.40001
1.40001
1.40001
1.40001
1.40001
1.40001
1.40001
1.40001
1.40001
1.40003
1.42254
2.36351
4.70695
5.06622
5.03172
4.999
4.9615
4.9321
4.90499
4.87633
4.84346
4.80281
4.75745
4.70984
4.66106
4.61041
4.55566
4.49473
4.42869
4.36116
4.29635
4.2304
4.16059
4.08918
4.01739
3.94649
3.87615
3.80342
3.72332
3.642
1.40001
1.40001
1.40001
1.40001
1.40001
1.40001
1.40001
1.40001
1.40001
1.40001
1.40001
1.40001
1.40001
1.40001
1.40001
1.40001
1.40001
1.40001
1.40001
1.40001
1.40001
1.40001
1.40001
1.40001
1.40001
1.40001
1.40001
1.40001
1.40001
1.40001
1.40001
1.40001
1.40001
1.40001
1.40001
1.40001
1.40001
1.40001
1.40001
1.40001
1.40001
1.40001
1.40001
1.40001
1.40001
1.40001
1.40001
1.40001
1.40001
1.40001
1.40001
1.40001
1.40001
1.40001
1.40001
1.40001
1.40001
1.40001
1.40001
1.40001
1.40001
1.40001
1.40001
1.40001
1.40001
1.40001
1.40007
1.44918
2.58615
4.76236
5.04115
5.00342
4.97161
4.93012
4.88864
4.85221
4.81703
4.78031
4.74037
4.69843
4.65586
4.61081
4.55991
4.50167
4.43611
4.36673
4.29969
4.23324
4.16419
4.09446
4.02628
3.95884
3.89127
3.82084
3.74375
3.66677
1.40001
1.40001
1.40001
1.40001
1.40001
1.40001
1.40001
1.40001
1.40001
1.40001
1.40001
1.40001
1.40001
1.40001
1.40001
1.40001
1.40001
1.40001
1.40001
1.40001
1.40001
1.40001
1.40001
1.40001
1.40001
1.40001
1.40001
1.40001
1.40001
1.40001
1.40001
1.40001
1.40001
1.40001
1.40001
1.40001
1.40001
1.40001
1.40001
1.40001
1.40001
1.40001
1.40001
1.40001
1.40001
1.40001
1.40001
1.40001
1.40001
1.40001
1.40001
1.40001
1.40001
1.40001
1.40001
1.40001
1.40001
1.40001
1.40001
1.40001
1.40001
1.40001
1.40001
1.40001
1.40001
1.40001
1.40001
1.40023
1.47743
2.70932
4.76883
5.0184
4.98068
4.94355
4.8956
4.84653
4.80084
4.75968
4.72082
4.68311
4.64643
4.60698
4.56181
4.50913
4.44842
4.38118
4.31256
4.24409
4.17363
4.10406
4.03798
3.97382
3.91007
3.84277
3.76948
3.69492
1.40001
1.40001
1.40001
1.40001
1.40001
1.40001
1.40001
1.40001
1.40001
1.40001
1.40001
1.40001
1.40001
1.40001
1.40001
1.40001
1.40001
1.40001
1.40001
1.40001
1.40001
1.40001
1.40001
1.40001
1.40001
1.40001
1.40001
1.40001
1.40001
1.40001
1.40001
1.40001
1.40001
1.40001
1.40001
1.40001
1.40001
1.40001
1.40001
1.40001
1.40001
1.40001
1.40001
1.40001
1.40001
1.40001
1.40001
1.40001
1.40001
1.40001
1.40001
1.40001
1.40001
1.40001
1.40001
1.40001
1.40001
1.40001
1.40001
1.40001
1.40001
1.40001
1.40001
1.40001
1.40001
1.40001
1.40001
1.40001
1.40048
1.49688
2.74155
4.74813
4.994
4.95688
4.91279
4.85725
4.80335
4.75509
4.71005
4.67062
4.63309
4.59562
4.55586
4.50995
4.45761
4.3972
4.33107
4.26229
4.19097
4.12142
4.05631
3.99397
3.93295
3.86849
3.79913
3.72693
1.40001
1.40001
1.40001
1.40001
1.40001
1.40001
1.40001
1.40001
1.40001
1.40001
1.40001
1.40001
1.40001
1.40001
1.40001
1.40001
1.40001
1.40001
1.40001
1.40001
1.40001
1.40001
1.40001
1.40001
1.40001
1.40001
1.40001
1.40001
1.40001
1.40001
1.40001
1.40001
1.40001
1.40001
1.40001
1.40001
1.40001
1.40001
1.40001
1.40001
1.40001
1.40001
1.40001
1.40001
1.40001
1.40001
1.40001
1.40001
1.40001
1.40001
1.40001
1.40001
1.40001
1.40001
1.40001
1.40001
1.40001
1.40001
1.40001
1.40001
1.40001
1.40001
1.40001
1.40001
1.40001
1.40001
1.40001
1.40001
1.40001
1.4007
1.50307
2.69382
4.70642
4.96583
4.9306
4.87944
4.82095
4.76405
4.71574
4.67131
4.62711
4.58577
4.54609
4.50545
4.4603
4.40801
4.34809
4.28293
4.21394
4.14566
4.08107
4.0191
3.95914
3.89668
3.83034
3.76111
1.40001
1.40001
1.40001
1.40001
1.40001
1.40001
1.40001
1.40001
1.40001
1.40001
1.40001
1.40001
1.40001
1.40001
1.40001
1.40001
1.40001
1.40001
1.40001
1.40001
1.40001
1.40001
1.40001
1.40001
1.40001
1.40001
1.40001
1.40001
1.40001
1.40001
1.40001
1.40001
1.40001
1.40001
1.40001
1.40001
1.40001
1.40001
1.40001
1.40001
1.40001
1.40001
1.40001
1.40001
1.40001
1.40001
1.40001
1.40001
1.40001
1.40001
1.40001
1.40001
1.40001
1.40001
1.40001
1.40001
1.40001
1.40001
1.40001
1.40001
1.40001
1.40001
1.40001
1.40001
1.40001
1.40001
1.40001
1.40001
1.40001
1.40001
1.40079
1.4958
2.5786
4.64047
4.93163
4.89858
4.84443
4.79065
4.73576
4.68281
4.63381
4.58663
4.54148
4.50025
4.45857
4.41239
4.35997
4.30178
4.23882
4.17439
4.111
4.04808
3.98683
3.92407
3.85981
3.7942
1.40001
1.40001
1.40001
1.40001
1.40001
1.40001
1.40001
1.40001
1.40001
1.40001
1.40001
1.40001
1.40001
1.40001
1.40001
1.40001
1.40001
1.40001
1.40001
1.40001
1.40001
1.40001
1.40001
1.40001
1.40001
1.40001
1.40001
1.40001
1.40001
1.40001
1.40001
1.40001
1.40001
1.40001
1.40001
1.40001
1.40001
1.40001
1.40001
1.40001
1.40001
1.40001
1.40001
1.40001
1.40001
1.40001
1.40001
1.40001
1.40001
1.40001
1.40001
1.40001
1.40001
1.40001
1.40001
1.40001
1.40001
1.40001
1.40001
1.40001
1.40001
1.40001
1.40001
1.40001
1.40001
1.40001
1.40001
1.40001
1.40001
1.40001
1.40001
1.40072
1.47848
2.45903
4.46994
4.8925
4.87458
4.81771
4.76619
4.70978
4.65245
4.59808
4.54881
4.50304
4.45885
4.4148
4.36836
4.31811
4.26251
4.20252
4.14033
4.07682
4.01408
3.95025
3.88806
3.82551
1.40001
1.40001
1.40001
1.40001
1.40001
1.40001
1.40001
1.40001
1.40001
1.40001
1.40001
1.40001
1.40001
1.40001
1.40001
1.40001
1.40001
1.40001
1.40001
1.40001
1.40001
1.40001
1.40001
1.40001
1.40001
1.40001
1.40001
1.40001
1.40001
1.40001
1.40001
1.40001
1.40001
1.40001
1.40001
1.40001