/*--------------------------------*- C++ -*----------------------------------*\
  =========                 |
  \\      /  F ield         | OpenFOAM: The Open Source CFD Toolbox
   \\    /   O peration     | Website:  https://openfoam.org
    \\  /    A nd           | Version:  7
     \\/     M anipulation  |
\*---------------------------------------------------------------------------*/
FoamFile
{
    version     2.0;
    format      ascii;
    class       volScalarField;
    location    "1";
    object      T;
}
// * * * * * * * * * * * * * * * * * * * * * * * * * * * * * * * * * * * * * //

dimensions      [0 0 0 1 0 0 0];

internalField   nonuniform List<scalar> 
19968
(
1
1
1
1
1
1
1
1
1
1
1
1
1
1
1
1
1
1
1
1
1
1
1
1
1
1
1
1
1
1
1
1
1
1
1
1
1
1
1
1
1
1
1
1
1
1
1
1
1
1
1
1
1
1
2.1478
2.73703
2.78583
2.78932
2.79094
2.78661
2.77935
2.77327
2.77266
2.77794
2.79012
2.80338
2.81266
2.81581
2.81909
2.82076
2.82183
2.8235
2.82765
2.83405
2.84084
2.84835
2.85522
2.86031
2.86419
2.86682
2.86673
2.86538
2.86409
2.86342
2.86586
2.87321
2.88235
2.89193
2.90185
2.91347
2.93248
2.97308
3.04378
3.13041
3.19682
3.22106
1
1
1
1
1
1
1
1
1
1
1
1
1
1
1
1
1
1
1
1
1
1
1
1
1
1
1
1
1
1
1
1
1
1
1
1
1
1
1
1
1
1
1
1
1
1
1
1
1
1
1
1
1
1
2.13652
2.7391
2.78453
2.78899
2.78914
2.78484
2.77783
2.77235
2.77196
2.77739
2.78998
2.80326
2.81262
2.8157
2.81852
2.81974
2.82066
2.82251
2.82708
2.83372
2.8406
2.84806
2.85467
2.85954
2.86338
2.86613
2.8663
2.86519
2.86418
2.8636
2.8658
2.87297
2.88193
2.89145
2.90151
2.91322
2.93225
2.97321
3.04432
3.13107
3.19728
3.22155
1
1
1
1
1
1
1
1
1
1
1
1
1
1
1
1
1
1
1
1
1
1
1
1
1
1
1
1
1
1
1
1
1
1
1
1
1
1
1
1
1
1
1
1
1
1
1
1
1
1
1
1
1
1
2.11122
2.74267
2.78211
2.78572
2.78543
2.78103
2.77463
2.77009
2.77035
2.77669
2.79004
2.80344
2.81258
2.81522
2.81746
2.81817
2.81902
2.8212
2.82637
2.83341
2.84039
2.84755
2.85354
2.85808
2.86194
2.86504
2.86571
2.86485
2.86416
2.86369
2.86574
2.87283
2.88158
2.89085
2.90079
2.91247
2.93198
2.97432
3.04674
3.13377
3.19919
3.22312
1
1
1
1
1
1
1
1
1
1
1
1
1
1
1
1
1
1
1
1
1
1
1
1
1
1
1
1
1
1
1
1
1
1
1
1
1
1
1
1
1
1
1
1
1
1
1
1
1
1
1
1
1
1
2.07077
2.74617
2.77838
2.7799
2.77982
2.77589
2.77044
2.76703
2.76845
2.77646
2.7904
2.80388
2.8119
2.8136
2.81545
2.81594
2.81696
2.81967
2.82542
2.8328
2.83991
2.84662
2.85193
2.85607
2.85993
2.86338
2.86459
2.86402
2.8636
2.8635
2.86559
2.87248
2.88112
2.89005
2.89965
2.91118
2.93151
2.97578
3.05028
3.13796
3.20251
3.22604
1
1
1
1
1
1
1
1
1
1
1
1
1
1
1
1
1
1
1
1
1
1
1
1
1
1
1
1
1
1
1
1
1
1
1
1
1
1
1
1
1
1
1
1
1
1
1
1
1
1
1
1
1
1
2.00896
2.74508
2.77385
2.77356
2.7735
2.7697
2.76464
2.76291
2.76647
2.77725
2.7916
2.80449
2.81031
2.81121
2.81224
2.81301
2.81467
2.81815
2.82434
2.8319
2.83906
2.84523
2.84987
2.85364
2.8575
2.86123
2.86285
2.86258
2.86235
2.86265
2.86504
2.87198
2.88064
2.88909
2.89797
2.90905
2.93021
2.9764
3.05319
3.14212
3.20635
3.22972
1
1
1
1
1
1
1
1
1
1
1
1
1
1
1
1
1
1
1
1
1
1
1
1
1
1
1
1
1
1
1
1
1
1
1
1
1
1
1
1
1
1
1
1
1
1
1
1
1
1
1
1
1
1
1.91883
2.73267
2.76987
2.76725
2.76619
2.7617
2.75782
2.75869
2.76588
2.78012
2.79428
2.80527
2.80808
2.80794
2.80784
2.80896
2.81169
2.8163
2.82305
2.83069
2.83771
2.8432
2.84717
2.85069
2.85474
2.85869
2.86055
2.86062
2.86035
2.86093
2.86412
2.87146
2.88005
2.88785
2.89562
2.90598
2.92787
2.97561
3.0542
3.1445
3.20926
3.2328
1
1
1
1
1
1
1
1
1
1
1
1
1
1
1
1
1
1
1
1
1
1
1
1
1
1
1
1
1
1
1
1
1
1
1
1
1
1
1
1
1
1
1
1
1
1
1
1
1
1
1
1
1
1
1.79458
2.70197
2.76309
2.75907
2.75752
2.75336
2.75241
2.75631
2.76775
2.78421
2.79796
2.80572
2.80551
2.80376
2.80177
2.80314
2.80717
2.81342
2.82135
2.82936
2.83598
2.84047
2.84361
2.84695
2.85137
2.85565
2.85769
2.85803
2.85772
2.8586
2.86266
2.87036
2.87876
2.88589
2.89237
2.90184
2.92436
2.9733
3.05324
3.14479
3.21046
3.23428
1
1
1
1
1
1
1
1
1
1
1
1
1
1
1
1
1
1
1
1
1
1
1
1
1
1
1
1
1
1
1
1
1
1
1
1
1
1
1
1
1
1
1
1
1
1
1
1
1
1
1
1
1
1
1.62791
2.64515
2.75224
2.74843
2.74734
2.74697
2.74892
2.75692
2.77117
2.78734
2.79956
2.80394
2.80221
2.79838
2.79456
2.79584
2.80116
2.80933
2.81901
2.82774
2.83377
2.837
2.83914
2.8422
2.84684
2.85154
2.85428
2.85504
2.8549
2.85602
2.86053
2.86828
2.87638
2.88285
2.88813
2.89678
2.91948
2.969
3.04991
3.14271
3.20936
3.23355
1
1
1
1
1
1
1
1
1
1
1
1
1
1
1
1
1
1
1
1
1
1
1
1
1
1
1
1
1
1
1
1
1
1
1
1
1
1
1
1
1
1
1
1
1
1
1
1
1
1
1
1
1
1
1.40511
2.54932
2.73803
2.73689
2.74086
2.74499
2.75095
2.76064
2.77422
2.7882
2.79772
2.7989
2.79647
2.79098
2.78649
2.78762
2.79383
2.80404
2.81561
2.82517
2.83071
2.83284
2.83396
2.83632
2.84062
2.84579
2.8498
2.85137
2.8519
2.85317
2.85715
2.86433
2.87198
2.87799
2.88266
2.89081
2.91307
2.96223
3.04344
3.13745
3.20552
3.2304
1
1
1
1
1
1
1
1
1
1
1
1
1
1
1
1
1
1
1
1
1
1
1
1
1
1
1
1
1
1
1
1
1
1
1
1
1
1
1
1
1
1
1
1
1
1
1
1
1
1
1
1
1
1
1.07443
2.36544
2.72933
2.73341
2.74058
2.74687
2.75479
2.76502
2.77657
2.78707
2.79197
2.79091
2.78709
2.78184
2.77833
2.77996
2.787
2.79866
2.81127
2.82094
2.8259
2.82734
2.82779
2.82931
2.83313
2.83872
2.84401
2.84715
2.84854
2.84979
2.85258
2.85846
2.86553
2.87148
2.87624
2.88408
2.90519
2.95279
3.03316
3.12784
3.19727
3.22301
1
1
1
1
1
1
1
1
1
1
1
1
1
1
1
1
1
1
1
1
1
1
1
1
1
1
1
1
1
1
1
1
1
1
1
1
1
1
1
1
1
1
1
1
1
1
1
1
1
1
1
1
1
1
1.00047
2.11285
2.70867
2.72636
2.73525
2.74407
2.75373
2.76411
2.7742
2.78139
2.78312
2.78089
2.77747
2.77403
2.77212
2.77431
2.78168
2.79385
2.8061
2.8144
2.81815
2.8191
2.8195
2.82075
2.82461
2.83098
2.83717
2.84154
2.84355
2.84407
2.84561
2.84957
2.85583
2.8622
2.86791
2.87579
2.89531
2.94027
3.01876
3.11375
3.18471
3.21146
1
1
1
1
1
1
1
1
1
1
1
1
1
1
1
1
1
1
1
1
1
1
1
1
1
1
1
1
1
1
1
1
1
1
1
1
1
1
1
1
1
1
1
1
1
1
1
1
1
1
1
1
1
1
1
1.74784
2.63654
2.72241
2.73042
2.74023
2.74853
2.7569
2.76476
2.77039
2.77265
2.77136
2.76905
2.76722
2.76638
2.76973
2.77733
2.78875
2.80008
2.80604
2.80813
2.80845
2.80931
2.81129
2.81593
2.82307
2.82963
2.83423
2.83614
2.8358
2.83621
2.83872
2.84419
2.85118
2.85786
2.86578
2.88287
2.9239
2.99918
3.09356
3.16585
3.19331
1
1
1
1
1
1
1
1
1
1
1
1
1
1
1
1
1
1
1
1
1
1
1
1
1
1
1
1
1
1
1
1
1
1
1
1
1
1
1
1
1
1
1
1
1
1
1
1
1
1
1
1
1
1
1
1.23716
2.44084
2.71597
2.72361
2.73387
2.74063
2.74642
2.75264
2.75844
2.76217
2.76197
2.7607
2.7593
2.75858
2.76258
2.76995
2.78034
2.79112
2.79618
2.79734
2.79725
2.79834
2.80127
2.80669
2.81367
2.81974
2.82352
2.82457
2.82366
2.82307
2.82442
2.8288
2.83551
2.84258
2.8503
2.86479
2.90124
2.97244
3.06604
3.14034
3.16862
1
1
1
1
1
1
1
1
1
1
1
1
1
1
1
1
1
1
1
1
1
1
1
1
1
1
1
1
1
1
1
1
1
1
1
1
1
1
1
1
1
1
1
1
1
1
1
1
1
1
1
1
1
1
1
1.00365
2.11091
2.69837
2.71465
2.72088
2.72608
2.73039
2.7354
2.7413
2.74701
2.74974
2.75055
2.75078
2.75068
2.75401
2.7603
2.76944
2.77986
2.78522
2.78613
2.78605
2.78681
2.78969
2.79498
2.80104
2.8061
2.80898
2.80925
2.80845
2.80756
2.80797
2.8113
2.81733
2.82442
2.83189
2.84367
2.87368
2.93748
3.02676
3.10058
3.12796
1
1
1
1
1
1
1
1
1
1
1
1
1
1
1
1
1
1
1
1
1
1
1
1
1
1
1
1
1
1
1
1
1
1
1
1
1
1
1
1
1
1
1
1
1
1
1
1
1
1
1
1
1
1
1
1
1.52765
2.54375
2.69729
2.7022
2.71019
2.7144
2.71893
2.72444
2.73063
2.73578
2.73882
2.74125
2.74256
2.74423
2.74841
2.75512
2.76386
2.7701
2.77211
2.77286
2.77347
2.7757
2.77991
2.78497
2.78903
2.79072
2.79032
2.7893
2.78777
2.78672
2.78768
2.79082
2.79526
2.80008
2.80688
2.82698
2.87928
2.9638
3.04361
3.07572
1
1
1
1
1
1
1
1
1
1
1
1
1
1
1
1
1
1
1
1
1
1
1
1
1
1
1
1
1
1
1
1
1
1
1
1
1
1
1
1
1
1
1
1
1
1
1
1
1
1
1
1
1
1
1
1
1.0203
2.15086
2.68056
2.68887
2.69525
2.70121
2.70549
2.70927
2.71354
2.71839
2.72285
2.72728
2.72997
2.72931
2.73157
2.73545
2.74202
2.74951
2.75423
2.75722
2.75885
2.76029
2.76246
2.76553
2.76796
2.76825
2.76703
2.76496
2.76264
2.76024
2.7584
2.75827
2.7596
2.76211
2.76599
2.77807
2.815
2.89319
2.97802
3.04283
1
1
1
1
1
1
1
1
1
1
1
1
1
1
1
1
1
1
1
1
1
1
1
1
1
1
1
1
1
1
1
1
1
1
1
1
1
1
1
1
1
1
1
1
1
1
1
1
1
1
1
1
1
1
1
1
0.999775
1.53154
2.52327
2.66459
2.67556
2.68588
2.6914
2.69493
2.69795
2.7014
2.70681
2.71341
2.71848
2.71832
2.71815
2.71958
2.72327
2.72987
2.73612
2.74094
2.74341
2.74372
2.74375
2.7447
2.74582
2.74573
2.74418
2.74123
2.73764
2.73354
2.72885
2.72384
2.71898
2.71392
2.70635
2.69738
2.69355
2.70242
2.70855
2.63927
1
1
1
1
1
1
1
1
1
1
1
1
1
1
1
1
1
1
1
1
1
1
1
1
1
1
1
1
1
1
1
1
1
1
1
1
1
1
1
1
1
1
1
1
1
1
1
1
1
1
1
1
1
1
1
1
0.999971
1.03002
2.23471
2.67203
2.67208
2.67537
2.68069
2.68292
2.68426
2.68658
2.69198
2.69954
2.70597
2.70652
2.70381
2.70313
2.70536
2.71099
2.71799
2.72449
2.72845
2.72844
2.7274
2.72638
2.72593
2.72534
2.72354
2.71985
2.71462
2.70816
2.70068
2.6918
2.68134
2.66877
2.65087
2.62695
2.59617
2.56529
2.50111
2.38186
1
1
1
1
1
1
1
1
1
1
1
1
1
1
1
1
1
1
1
1
1
1
1
1
1
1
1
1
1
1
1
1
1
1
1
1
1
1
1
1
1
1
1
1
1
1
1
1
1
1
1
1
1
1
1
1
0.999999
1.00006
1.64919
2.5511
2.65481
2.6602
2.66665
2.66897
2.66997
2.67177
2.67654
2.68429
2.69196
2.69484
2.69182
2.68858
2.68868
2.69206
2.69863
2.70578
2.71091
2.71123
2.7094
2.70642
2.70403
2.70274
2.70097
2.6973
2.69094
2.68199
2.67132
2.65906
2.6444
2.6258
2.60041
2.56608
2.52427
2.46099
2.37872
2.28156
1
1
1
1
1
1
1
1
1
1
1
1
1
1
1
1
1
1
1
1
1
1
1
1
1
1
1
1
1
1
1
1
1
1
1
1
1
1
1
1
1
1
1
1
1
1
1
1
1
1
1
1
1
1
1
1
1
1
1.04446
2.24484
2.65655
2.65439
2.65376
2.65602
2.65654
2.65737
2.66066
2.66779
2.67605
2.68105
2.67896
2.67422
2.67149
2.67337
2.67826
2.68499
2.69113
2.69297
2.69117
2.68708
2.68251
2.67939
2.67691
2.67318
2.66635
2.65569
2.64236
2.62748
2.61021
2.58814
2.55884
2.52043
2.47121
2.40727
2.32984
2.24033
1
1
1
1
1
1
1
1
1
1
1
1
1
1
1
1
1
1
1
1
1
1
1
1
1
1
1
1
1
1
1
1
1
1
1
1
1
1
1
1
1
1
1
1
1
1
1
1
1
1
1
1
1
1
1
1
1
1
1.00012
1.5852
2.51301
2.633
2.63296
2.63775
2.64007
2.64198
2.64576
2.65191
2.66001
2.66661
2.66726
2.66354
2.65891
2.65711
2.65918
2.66356
2.6688
2.67188
2.67091
2.66713
2.66115
2.65579
2.65207
2.64804
2.64132
2.63033
2.61571
2.59889
2.57957
2.55601
2.52578
2.48733
2.43946
2.38319
2.3178
2.24509
1
1
1
1
1
1
1
1
1
1
1
1
1
1
1
1
1
1
1
1
1
1
1
1
1
1
1
1
1
1
1
1
1
1
1
1
1
1
1
1
1
1
1
1
1
1
1
1
1
1
1
1
1
1
1
1
1
1
1
1.0327
2.13561
2.62174
2.62181
2.62388
2.62646
2.62834
2.63075
2.63515
2.64179
2.64831
2.65182
2.64985
2.64564
2.64206
2.64139
2.6433
2.64652
2.64926
2.64933
2.64671
2.64078
2.63386
2.62813
2.62276
2.61559
2.60489
2.59062
2.57338
2.55319
2.52922
2.49959
2.4642
2.42147
2.37256
2.31899
2.25767
1
1
1
1
1
1
1
1
1
1
1
1
1
1
1
1
1
1
1
1
1
1
1
1
1
1
1
1
1
1
1
1
1
1
1
1
1
1
1
1
1
1
1
1
1
1
1
1
1
1
1
1
1
1
1
1
1
1
1
1.00007
1.30627
2.40211
2.61135
2.611
2.61447
2.61748
2.62045
2.62352
2.62706
2.63119
2.63495
2.63567
2.63352
2.62972
2.62644
2.62494
2.62498
2.62557
2.62555
2.62384
2.61907
2.61222
2.6053
2.59859
2.59066
2.5802
2.56675
2.55011
2.53029
2.50667
2.47883
2.44728
2.41003
2.36842
2.32274
2.27229
1
1
1
1
1
1
1
1
1
1
1
1
1
1
1
1
1
1
1
1
1
1
1
1
1
1
1
1
1
1
1
1
1
1
1
1
1
1
1
1
1
1
1
1
1
1
1
1
1
1
1
1
1
1
1
1
1
1
1
1
1.00613
1.86615
2.53809
2.5946
2.59545
2.59886
2.60313
2.60579
2.60768
2.60988
2.61328
2.61671
2.61795
2.61639
2.61309
2.60935
2.6062
2.60454
2.60295
2.60069
2.59655
2.59037
2.58325
2.57574
2.56706
2.55661
2.54378
2.52803
2.50933
2.48714
2.46172
2.43371
2.40126
2.36604
2.32684
2.28494
1
1
1
1
1
1
1
1
1
1
1
1
1
1
1
1
1
1
1
1
1
1
1
1
1
1
1
1
1
1
1
1
1
1
1
1
1
1
1
1
1
1
1
1
1
1
1
1
1
1
1
1
1
1
1
1
1
1
1
1
1
1.09499
2.1949
2.58115
2.58709
2.58894
2.58995
2.59029
2.59079
2.59079
2.59276
2.59685
2.60071
2.60088
2.59865
2.59414
2.58899
2.58433
2.581
2.57757
2.57351
2.56806
2.5614
2.55377
2.5449
2.53438
2.52183
2.50685
2.48956
2.46943
2.44658
2.42174
2.3932
2.36272
2.32872
2.29389
1
1
1
1
1
1
1
1
1
1
1
1
1
1
1
1
1
1
1
1
1
1
1
1
1
1
1
1
1
1
1
1
1
1
1
1
1
1
1
1
1
1
1
1
1
1
1
1
1
1
1
1
1
1
1
1
1
1
1
1
1
1.00056
1.32727
2.34837
2.56747
2.56854
2.57153
2.57238
2.57297
2.57315
2.57507
2.57938
2.58432
2.58528
2.58367
2.57936
2.57348
2.56719
2.56154
2.5569
2.55199
2.54629
2.53989
2.5323
2.52365
2.51302
2.50082
2.48665
2.47089
2.45269
2.43248
2.41022
2.38525
2.35843
2.32868
2.29896
1
1
1
1
1
1
1
1
1
1
1
1
1
1
1
1
1
1
1
1
1
1
1
1
1
1
1
1
1
1
1
1
1
1
1
1
1
1
1
1
1
1
1
1
1
1
1
1
1
1
1
1
1
1
1
1
1
1
1
1
1
1
1.00718
1.72769
2.46542
2.5502
2.54711
2.54864
2.55059
2.55279
2.55625
2.56179
2.56718
2.56773
2.56626
2.56253
2.55693
2.55033
2.54364
2.53772
2.53198
2.52591
2.51964
2.51238
2.50348
2.49301
2.4812
2.46784
2.45337
2.43681
2.41899
2.39898
2.37721
2.35314
2.32777
2.30063
1
1
1
1
1
1
1
1
1
1
1
1
1
1
1
1
1
1
1
1
1
1
1
1
1
1
1
1
1
1
1
1
1
1
1
1
1
1
1
1
1
1
1
1
1
1
1
1
1
1
1
1
1
1
1
1
1
1
1
1
1
1
1.00001
1.05819
2.01676
2.52725
2.53232
2.52754
2.52899
2.53182
2.5366
2.54295
2.5489
2.54969
2.54842
2.54558
2.54047
2.53416
2.52704
2.52009
2.51349
2.50686
2.50075
2.4938
2.48511
2.47498
2.46349
2.45073
2.43705
2.42194
2.40594
2.38822
2.36943
2.3479
2.32568
2.30032
1
1
1
1
1
1
1
1
1
1
1
1
1
1
1
1
1
1
1
1
1
1
1
1
1
1
1
1
1
1
1
1
1
1
1
1
1
1
1
1
1
1
1
1
1
1
1
1
1
1
1
1
1
1
1
1
1
1
1
1
1
1
1
1.00024
1.16681
2.17356
2.51642
2.51703
2.51194
2.51381
2.51707
2.52177
2.52654
2.52904
2.5289
2.52731
2.52386
2.5185
2.51164
2.50409
2.49651
2.48946
2.48315
2.47653
2.46843
2.45886
2.44787
2.43573
2.4225
2.40847
2.39362
2.37786
2.36116
2.34193
2.32165
2.29814
1
1
1
1
1
1
1
1
1
1
1
1
1
1
1
1
1
1
1
1
1
1
1
1
1
1
1
1
1
1
1
1
1
1
1
1
1
1
1
1
1
1
1
1
1
1
1
1
1
1
1
1
1
1
1
1
1
1
1
1
1
1
1
1
1.00172
1.29136
2.25808
2.48997
2.49774
2.49646
2.49756
2.50009
2.50282
2.5055
2.50744
2.50711
2.5053
2.50146
2.49548
2.48813
2.48033
2.47288
2.46612
2.45949
2.45205
2.44337
2.43351
2.42244
2.40995
2.39667
2.38228
2.36742
2.35197
2.33482
2.31603
2.29469
1
1
1
1
1
1
1
1
1
1
1
1
1
1
1
1
1
1
1
1
1
1
1
1
1
1
1
1
1
1
1
1
1
1
1
1
1
1
1
1
1
1
1
1
1
1
1
1
1
1
1
1
1
1
1
1
1
1
1
1
1
1
1
1
1
1.00564
1.42911
2.30542
2.47351
2.47511
2.4772
2.47803
2.47933
2.48163
2.48443
2.48569
2.48503
2.48263
2.47799
2.47152
2.46413
2.45674
2.44967
2.44272
2.43544
2.42757
2.41922
2.40968
2.39831
2.38562
2.37154
2.35704
2.34231
2.32659
2.30899
2.29006
1
1
1
1
1
1
1
1
1
1
1
1
1
1
1
1
1
1
1
1
1
1
1
1
1
1
1
1
1
1
1
1
1
1
1
1
1
1
1
1
1
1
1
1
1
1
1
1
1
1
1
1
1
1
1
1
1
1
1
1
1
1
1
1
1
1.00001
1.01358
1.58199
2.33836
2.4554
2.45357
2.4549
2.45625
2.45871
2.46147
2.4638
2.46406
2.46279
2.45941
2.45407
2.44757
2.44058
2.43331
2.42592
2.41855
2.41136
2.40455
2.39671
2.38673
2.37477
2.36132
2.3471
2.33263
2.31762
2.301
2.2843
1
1
1
1
1
1
1
1
1
1
1
1
1
1
1
1
1
1
1
1
1
1
1
1
1
1
1
1
1
1
1
1
1
1
1
1
1
1
1
1
1
1
1
1
1
1
1
1
1
1
1
1
1
1
1
1
1
1
1
1
1
1
1
1
1
1
1.00003
1.03068
1.67855
2.35366
2.43699
2.43239
2.43395
2.43575
2.43878
2.4418
2.44249
2.44207
2.44004
2.4361
2.43077
2.42442
2.4173
2.41
2.40275
2.39579
2.38961
2.38299
2.37443
2.36377
2.35163
2.33828
2.32416
2.3093
2.29324
2.27787
1
1
1
1
1
1
1
1
1
1
1
1
1
1
1
1
1
1
1
1
1
1
1
1
1
1
1
1
1
1
1
1
1
1
1
1
1
1
1
1
1
1
1
1
1
1
1
1
1
1
1
1
1
1
1
1
1
1
1
1
1
1
1
1
1
1
1
1.0001
1.04916
1.72559
2.35307
2.41872
2.41269
2.41369
2.41603
2.41932
2.4209
2.42085
2.41977
2.41707
2.41287
2.40721
2.40071
2.39378
2.38706
2.38062
2.37468
2.36858
2.36096
2.35164
2.34102
2.32904
2.31593
2.30162
2.28628
2.27149
1
1
1
1
1
1
1
1
1
1
1
1
1
1
1
1
1
1
1
1
1
1
1
1
1
1
1
1
1
1
1
1
1
1
1
1
1
1
1
1
1
1
1
1
1
1
1
1
1
1
1
1
1
1
1
1
1
1
1
1
1
1
1
1
1
1
1
1
1.00021
1.06189
1.73413
2.34146
2.40003
2.39372
2.39381
2.39555
2.39853
2.39953
2.39904
2.39762
2.39426
2.38922
2.38327
2.37701
2.37092
2.365
2.35928
2.35344
2.34653
2.3385
2.32949
2.31913
2.30747
2.2942
2.27984
2.26545
1
1
1
1
1
1
1
1
1
1
1
1
1
1
1
1
1
1
1
1
1
1
1
1
1
1
1
1
1
1
1
1
1
1
1
1
1
1
1
1
1
1
1
1
1
1
1
1
1
1
1
1
1
1
1
1
1
1
1
1
1
1
1
1
1
1
1
1
1
1.00032
1.06561
1.71159
2.32067
2.38024
2.37454
2.37332
2.37481
2.37723
2.37866
2.37817
2.37589
2.37174
2.36627
2.36039
2.35452
2.34868
2.34296
2.33732
2.33112
2.32434
2.31693
2.30834
2.29845
2.28671
2.27352
2.25969
1
1
1
1
1
1
1
1
1
1
1
1
1
1
1
1
1
1
1
1
1
1
1
1
1
1
1
1
1
1
1
1
1
1
1
1
1
1
1
1
1
1
1
1
1
1
1
1
1
1
1
1
1
1
1
1
1
1
1
1
1
1
1
1
1
1
1
1
1
1
1.00036
1.0604
1.66034
2.29064
2.3563
2.35488
2.35399
2.35538
2.35728
2.35792
2.35743
2.35471
2.34993
2.3445
2.33861
2.33243
2.32631
2.32054
2.31489
2.30925
2.30335
2.2964
2.28823
2.27814
2.26646
2.25374
1
1
1
1
1
1
1
1
1
1
1
1
1
1
1
1
1
1
1
1
1
1
1
1
1
1
1
1
1
1
1
1
1
1
1
1
1
1
1
1
1
1
1
1
1
1
1
1
1
1
1
1
1
1
1
1
1
1
1
1
1
1
1
1
1
1
1
1
1
1
1
1.00032
1.04839
1.60706
2.23733
2.33057
2.34018
2.33588
2.33711
2.33812
2.33803
2.33694
2.33414
2.32953
2.32363
2.3172
2.31058
2.30428
2.29838
2.29295
2.28778
2.28217
2.27572
2.26752
2.25803
2.24709
1
1
1
1
1
1
1
1
1
1
1
1
1
1
1
1
1
1
1
1
1
1
1
1
1
1
1
1
1
1
1
1
1
1
1
1
1
1
1
1
1
1
1
1
1
1
1
1
1
1
1
1
1
1
1
1
1
1
1
1
1
1
1
1
1
1
1
1
1
1
1
1
1.00023
1.03767
1.52893
2.159
2.30317
2.32693
2.31987
2.31972
2.31939
2.31859
2.31703
2.31384
2.30892
2.30272
2.29591
2.28901
2.28213
2.27586
2.2705
2.26561
2.26054
2.25435
2.2473
2.23881
1
1
1
1
1
1
1
1
1
1
1
1
1
1
1
1
1
1
1
1
1
1
1
1
1
1
1
1
1
1
1
1
1
1
1
1
1
1
1
1
1
1
1
1
1
1
1
1
1
1
1
1
1
1
1
1
1
1
1
1
1
1
1
1
1
1
1
1
1
1
1
1
1
1.00015
1.02517
1.42342
2.0453
2.27458
2.3097
2.30344
2.30107
2.2997
2.29816
2.29607
2.2928
2.2881
2.28213
2.27487
2.26702
2.25946
2.25301
2.24787
2.24345
2.23885
2.23382
2.22793
1
1
1
1
1
1
1
1
1
1
1
1
1
1
1
1
1
1
1
1
1
1
1
1
1
1
1
1
1
1
1
1
1
1
1
1
1
1
1
1
1
1
1
1
1
1
1
1
1
1
1
1
1
1
1
1
1
1
1
1
1
1
1
1
1
1
1
1
1
1
1
1
1
1
1.00008
1.01407
1.30048
1.90297
2.2388
2.28731
2.28323
2.27842
2.27784
2.27683
2.27504
2.27231
2.26807
2.26174
2.25375
2.24496
2.23708
2.23102
2.22635
2.22242
2.21867
2.21477
1
1
1
1
1
1
1
1
1
1
1
1
1
1
1
1
1
1
1
1
1
1
1
1
1
1
1
1
1
1
1
1
1
1
1
1
1
1
1
1
1
1
1
1
1
1
1
1
1
1
1
1
1
1
1
1
1
1
1
1
1
1
1
1
1
1
1
1
1
1
1
1
1
1
1
1.00003
1.00651
1.18227
1.74935
2.19358
2.25353
2.2628
2.25784
2.25774
2.25717
2.25583
2.25332
2.24892
2.24207
2.23313
2.2246
2.21723
2.21142
2.20713
2.20338
2.20009
1
1
1
1
1
1
1
1
1
1
1
1
1
1
1
1
1
1
1
1
1
1
1
1
1
1
1
1
1
1
1
1
1
1
1
1
1
1
1
1
1
1
1
1
1
1
1
1
1
1
1
1
1
1
1
1
1
1
1
1
1
1
1
1
1
1
1
1
1
1
1
1
1
1
1
1
1.00001
1.00244
1.09542
1.60654
2.10616
2.22025
2.2457
2.24054
2.24069
2.24003
2.23847
2.23554
2.23032
2.2231
2.21496
2.20697
2.20029
2.19435
2.18916
2.18511
1
1
1
1
1
1
1
1
1
1
1
1
1
1
1
1
1
1
1
1
1
1
1
1
1
1
1
1
1
1
1
1
1
1
1
1
1
1
1
1
1
1
1
1
1
1
1
1
1
1
1
1
1
1
1
1
1
1
1
1
1
1
1
1
1
1
1
1
1
1
1
1
1
1
1
1
1
1
1.00078
1.04556
1.44662
1.9688
2.18664
2.22713
2.22507
2.22106
2.22117
2.22016
2.21716
2.21199
2.20527
2.19831
2.19111
2.18378
2.17752
2.17129
1
1
1
1
1
1
1
1
1
1
1
1
1
1
1
1
1
1
1
1
1
1
1
1
1
1
1
1
1
1
1
1
1
1
1
1
1
1
1
1
1
1
1
1
1
1
1
1
1
1
1
1
1
1
1
1
1
1
1
1
1
1
1
1
1
1
1
1
1
1
1
1
1
1
1
1
1
1
1
1.00023
1.01849
1.27491
1.79183
2.13757
2.19199
2.20774
2.20294
2.20314
2.20196
2.1991
2.19443
2.18791
2.18065
2.17354
2.16599
2.15847
1
1
1
1
1
1
1
1
1
1
1
1
1
1
1
1
1
1
1
1
1
1
1
1
1
1
1
1
1
1
1
1
1
1
1
1
1
1
1
1
1
1
1
1
1
1
1
1
1
1
1
1
1
1
1
1
1
1
1
1
1
1
1
1
1
1
1
1
1
1
1
1
1
1
1
1
1
1
1
1
1.00006
1.00597
1.13453
1.59977
2.04529
2.15501
2.18572
2.18438
2.1813
2.18161
2.18035
2.17637
2.17001
2.16199
2.15326
2.14679
1
1
1
1
1
1
1
1
1
1
1
1
1
1
1
1
1
1
1
1
1
1
1
1
1
1
1
1
1
1
1
1
1
1
1
1
1
1
1
1
1
1
1
1
1
1
1
1
1
1
1
1
1
1
1
1
1
1
1
1
1
1
1
1
1
1
1
1
1
1
1
1
1
1
1
1
1
1
1
1
1
1.00001
1.00157
1.05079
1.41881
1.87973
2.10976
2.15774
2.16863
2.16651
2.16467
2.16192
2.1567
2.14893
2.14199
2.13524
1
1
1
1
1
1
1
1
1
1
1
1
1
1
1
1
1
1
1
1
1
1
1
1
1
1
1
1
1
1
1
1
1
1
1
1
1
1
1
1
1
1
1
1
1
1
1
1
1
1
1
1
1
1
1
1
1
1
1
1
1
1
1
1
1
1
1
1
1
1
1
1
1
1
1
1
1
1
1
1
1
1
1
1.0003
1.01709
1.22477
1.66783
2.0401
2.11745
2.14852
2.14611
2.14271
2.14069
2.13732
2.13209
2.12507
1
1
1
1
1
1
1
1
1
1
1
1
1
1
1
1
1
1
1
1
1
1
1
1
1
1
1
1
1
1
1
1
1
1
1
1
1
1
1
1
1
1
1
1
1
1
1
1
1
1
1
1
1
1
1
1
1
1
1
1
1
1
1
1
1
1
1
1
1
1
1
1
1
1
1
1
1
1
1
1
1
1
1
1
1.00005
1.00433
1.08306
1.47388
1.86848
2.08369
2.13197
2.13114
2.12562
2.12103
2.11683
2.11296
1
1
1
1
1
1
1
1
1
1
1
1
1
1
1
1
1
1
1
1
1
1
1
1
1
1
1
1
1
1
1
1
1
1
1
1
1
1
1
1
1
1
1
1
1
1
1
1
1
1
1
1
1
1
1
1
1
1
1
1
1
1
1
1
1
1
1
1
1
1
1
1
1
1
1
1
1
1
1
1
1
1
1
1
1
1.00001
1.00071
1.02647
1.24775
1.67589
2.00938
2.08095
2.10926
2.11119
2.10689
2.10157
1
1
1
1
1
1
1
1
1
1
1
1
1
1
1
1
1
1
1
1
1
1
1
1
1
1
1
1
1
1
1
1
1
1
1
1
1
1
1
1
1
1
1
1
1
1
1
1
1
1
1
1
1
1
1
1
1
1
1
1
1
1
1
1
1
1
1
1
1
1
1
1
1
1
1
1
1
1
1
1
1
1
1
1
1
1
1
1.00011
1.0057
1.0949
1.45433
1.85562
2.02533
2.07412
2.0978
2.09599
1
1
1
1
1
1
1
1
1
1
1
1
1
1
1
1
1
1
1
1
1
1
1
1
1
1
1
1
1
1
1
1
1
1
1
1
1
1
1
1
1
1
1
1
1
1
1
1
1
1
1
1
1
1
1
1
1
1
1
1
1
1
1
1
1
1
1
1
1
1
1
1
1
1
1
1
1
1
1
1
1
1
1
1
1
1
1
1
1.00001
1.00097
1.02524
1.23988
1.62947
1.91609
2.0389
2.08283
1
1
1
1
1
1
1
1
1
1
1
1
1
1
1
1
1
1
1
1
1
1
1
1
1
1
1
1
1
1
1
1
1
1
1
1
1
1
1
1
1
1
1
1
1
1
1
1
1
1
1
1
1
1
1
1
1
1
1
1
1
1
1
1
1
1
1
1
1
1
1
1
1
1
1
1
1
1
1
1
1
1
1
1
1
1
1
1
1
1
1.00011
1.00522
1.0799
1.37515
1.74218
1.98849
1
1
1
1
1
1
1
1
1
1
1
1
1
1
1
1
1
1
1
1
1
1
1
1
1
1
1
1
1
1
1
1
1
1
1
1
1
1
1
1
1
1
1
1
1
1
1
1
1
1
1
1
1
1
1
1
1
1
1
1
1
1
1
1
1
1
1
1
1
1
1
1
1
1
1
1
1
1
1
1
1
1
1
1
1
1
1
1
1
1
1
1.00001
1.0007
1.01695
1.16189
1.54354
1
1
1
1
1
1
1
1
1
1
1
1
1
1
1
1
1
1
1
1
1
1
1
1
1
1
1
1
1
1
1
1
1
1
1
1
1
1
1
1
1
1
1
1
1
1
1
1
1
1
1
1
1
1
1
1
1
1
1
1
1
1
1
1
1
1
1
1
1
1
1
1
1
1
1
1
1
1
1
1
1
1
1
1
1
1
1
1
1
1
1
1
1
1.00006
1.00278
1.04844
1
1
1
1
1
1
1
1
1
1
1
1
1
1
1
1
1
1
1
1
1
1
1
1
1
1
1
1
1
1
1
1
1
1
1
1
1
1
1
1
1
1
1
1
1
1
1
1
1
1
1
1
1
1
1
1
1
1
1
1
1
1
1
1
1
1
1
1
1
1
1
1
1
1
1
1
1
1
1
1
1
1
1
1
1
1
1
1
1
1
1
1
1
1
1
1.00029
1
1
1
1
1
1
1
1
1
1
1
1
1
1
1
1
1
1
1
1
1
1
1
1
1
1
1
1
1
1
1
1
1
1
1
1
1
1
1
1
1
1
1
1
1
1
1
1
1
1
1
1
1
1
1
1
1
1
1
1
1
1
1
1
1
1
1
1
1
1
1
1
1
1
1
1
1
1
1
1
1
1
1
1
1
1
1
1
1
1
1
1
1
1
1
1
1
1
1
1
1
1
1
1
1
1
1
1
1
1
1
1
1
1
1
1
1
1
1
1
1
1
1
1
1
1
1
1
1
1
1
1
1
1
1
1
1
1
1
1
1
1
1
1
1
1
1
1
1
1
1
1
1
1
1
1
1
1
1
1
1
1
1
1
1
1
1
1
1
1
1
1
1
1
1
1
1
1
1
1
1
1
1
1
1
1
1
1
1
1
1
1
1
1
1
1
1
1
1
1
1
1
1
1
1
1
1
1
1
1
1
1
1
1
1
1
1
1
1
1
1
1
1
1
1
1
1
1
1
1
1
1
1
1
1
1
1
1
1
1
1
1
1
1
1
1
1
1
1
1
1
1
1
1
1
1
1
1
1
1
1
1
1
1
1
1
1
1
1
1
1
1
1
1
1
1
1
1
1
1
1
1
1
1
1
1
1
1
1
1
1
1
1
1
1
1
1
1
1
1
1
1
1
1
1
1
1
1
1
1
1
1
1
1
1
1
1
1
1
1
1
1
1
1
1
1
1
1
1
1
1
1
1
1
1
1
1
1
1
1
1
1
1
1
1
1
1
1
1
1
1
1
1
1
1
1
1
1
1
1
1
1
1
1
1
1
1
1
1
1
1
1
1
1
1
1
1
1
1
1
1
1
1
1
1
1
1
1
1
1
1
1
1
1
1
1
1
1
1
1
1
1
1
1
1
1
1
1
1
1
1
1
1
1
1
1
1
1
1
1
1
1
1
1
1
1
1
1
1
1
1
1
1
1
1
1
1
1
1
1
1
1
1
1
1
1
1
1
1
1
1
1
1
1
1
1
1
1
1
1
1
1
1
1
1
1
1
1
1
1
1
1
1
1
1
1
1
1
1
1
1
1
1
1
1
1
1
1
1
1
1
1
1
1
1
1
1
1
1
1
1
1
1
1
1
1
1
1
1
1
1
1
1
1
1
1
1
1
1
1
1
1
1
1
1
1
1
1
1
1
1
1
1
1
1
1
1
1
1
1
1
1
1
1
1
1
1
1
1
1
1
1
1
1
1
1
1
1
1
1
1
1
1
1
1
1
1
1
1
1
1
1
1
1
1
1
1
1
1
1
1
1
1
1
1
1
1
1
1
1
1
1
1
1
1
1
1
1
1
1
1
1
1
1
1
1
1
1
1
1
1
1
1
1
1
1
1
1
1
1
1
1
1
1
1
1
1
1
1
1
1
1
1
1
1
1
1
1
1
1
1
1
1
1
1
1
1
1
1
1
1
1
1
1
1
1
1
1
1
1
1
1
1
1
1
1
1
1
1
1
1
1
1
1
1
1
1
1
1
1
1
1
1
1
1
1
1
1
1
1
1
1
1
1
1
1
1
1
1
1
1
1
1
1
1
1
1
1
1
1
1
1
1
1
1
1
1
1
1
1
1
1
1
1
1
1
1
1
1
1
1
1
1
1
1
1
1
1
1
1
1
1
1
1
1
1
1
1
1
1
1
1
1
1
1
1
1
1
1
1
1
1
1
1
1
1
1
1
1
1
1
1
1
1
1
1
1
1
1
1
1
1
1
1
1
1
1
1
1
1
1
1
1
1
1
1
1
1
1
1
1
1
1
1
1
1
1
1
1
1
1
1
1
1
1
1
1
1
1
1
1
1
1
1
1
1
1
1
1
1
1
1
1
1
1
1
1
1
1
1
1
1
1
1
1
1
1
1
1
1
1
1
1
1
1
1
1
1
1
1
1
1
1
1
1
1
1
1
1
1
1
1
1
1
1
1
1
1
1
1
1
1
1
1
1
1
1
1
1
1
1
1
1
1
1
1
1
1
1
1
1
1
1
1
1
1
1
1
1
1
1
1
1
1
1
1
1
1
1
1
1
1
1
1
1
1
1
1
1
1
1
1
1
1
1
1
1
1
1
1
1
1
1
1
1
1
1
1
1
1
1
1
1
1
1
1
1
1
1
1
1
1
1
1
1
1
1
1
1
1
1
1
1
1
1
1
1
1
1
1
1
1
1
1
1
1
1
1
1
1
1
1
1
1
1
1
1
1
1
1
1
1
1
1
1
1
1
1
1
1
1
1
1
1
1
1
1
1
1
1
1
1
1
1
1
1
1
1
1
1
1
1
1
1
1
1
1
1
1
1
1
1
1
1
1
1
1
1
1
1
1
1
1
1
1
1
1
1
1
1
1
1
1
1
1
1
1
1
1
1
1
1
1
1
1
1
1
1
1
1
1
1
1
1
1
1
1
1
1
1
1
1
1
1
1
1
1
1
1
1
1
1
1
1
1
1
1
1
1
1
1
1
1
1
1
1
1
1
1
1
1
1
1
1
1
1
1
1
1
1
1
1
1
1
1
1
1
1
1
1
1
1
1
1
1
1
1
1
1
1
1
1
1
1
1
1
1
1
1
1
1
1
1
1
1
1
1
1
1
1
1
1
1
1
1
1
1
1
1
1
1
1
1
1
1
1
1
1
1
1
1
1
1
1
1
1
1
1
1
1
1
1
1
1
1
1
1
1
1
1
1
1
1
1
1
1
1
1
1
1
1
1
1
1
1
1
1
1
1
1
1
1
1
1
1
1
1
1
1
1
1
1
1
1
1
1
1
1
1
1
1
1
1
1
1
1
1
1
1
1
1
1
1
1
1
1
1
1
1
1
1
1
1
1
1
1
1
1
1
1
1
1
1
1
1
1
1
1
1
1
1
1
1
1
1
1
1
1
1
1
1
1
1
1
1
1
1
1
1
1
1
1
1
1
1
1
1
1
1
1
1
1
1
1
1
1
1
1
1
1
1
1
1
1
1
1
1
1
1
1
1
1
1
1
1
1
1
1
1
1
1
1
1
1
1
1
1
1
1
1
1
1
1
1
1
1
1
1
1
1
1
1
1
1
1
1
1
1
1
1
1
1
1
1
1
1
1
1
1
1
1
1
1
1
1
1
1
1
1
1
1
1
1
1
1
1
1
1
1
1
1
1
1
1
1
1
1
1
1
1
1
1
1
1
1
1
1
1
1
1
1
1
1
1
1
1
1
1
1
1
1
1
1
1
1
1
1
1
1
1
1
1
1
1
1
1
1
1
1
1
1
1
1
1
1
1
1
1
1
1
1
1
1
1
1
1
1
1
1
1
1
1
1
1
1
1
1
1
1
1
1
1
1
1
1
1
1
1
1
1
1
1
1
1
1
1
1
1
1
1
1
1
1
1
1
1
1
1
1
1
1
1
1
1
1
1
1
1
1
1
1
1
1
1
1
1
1
1
1
1
1
1
1
1
1
1
1
1
1
1
1
1
1
1
1
1
1
1
1
1
1
1
1
1
1
1
1
1
1
1
1
1
1
1
1
1
1
1
1
1
1
1
1
1
1
1
1
1
1
1
1
1
1
1
1
1
1
1
1
1
1
1
1
1
1
1
1
1
1
1
1
1
1
1
1
1
1
1
1
1
1
1
1
1
1
1
1
1
1
1
1
1
1
1
1
1
1
1
1
1
1
1
1
1
1
1
1
1
1
1
1
1
1
1
1
1
1
1
1
1
1
1
1
1
1
1
1
1
1
1
1
1
1
1
1
1
1
1
1
1
1
1
1
1
1
1
1
1
1
1
1
1
1
1
1
1
1
1
1
1
1
1
1
1
1
1
1
1
1
1
1
1
1
1
1
1
1
1
1
1
1
1
1
1
1
1
1
1
1
1
1
1
1
1
1
1
1
1
1
1
1
1
1
1
1
1
1
1
1
1
1
1
1
1
1
1
1
1
1
1
1
1
1
1
1
1
1
1
1
1
1
1
1
1
1
1
1
1
1
1
1
1
1
1
1
1
1
1
1
1
1
1
1
1
1
1
1
1
1
1
1
1
1
1
1
1
1
1
1
1
1
1
1
1
1
1
1
1
1
1
1
1
1
1
1
1
1
1
1
1
1
1
1
1
1
1
1
1
1
1
1
1
1
1
1
1
1
1
1
1
1
1
1
1
1
1
1
1
1
1
1
1
1
1
1
1
1
1
1
1
1
1
1
1
1
1
1
1
1
1
1
1
1
1
1
1
1
1
1
1
1
1
1
1
1
1
1
1
1
1
1
1
1
1
1
1
1
1
1
1
1
1
1
1
1
1
1
1
1
1
1
1
1
1
1
1
1
1
1
1
1
1
1
1
1
1
1
1
1
1
1
1
1
1
1
1
1
1
1
1
1
1
1
1
1
1
1
1
1
1
1
1
1
1
1
1
1
1
1
1
1
1
1
1
1
1
1
1
1
1
1
1
1
1
1
1
1
1
1
1
1
1
1
1
1
1
1
1
1
1
1
1
1
1
1
1
1
1
1
1
1
1
1
1
1
1
1
1
1
1
1
1
1
1
1
1
1
1
1
1
1
1
1
1
1
1
1
1
1
1
1
1
1
1
1
1
1
1
1
1
1
1
1
1
1
1
1
1
1
1
1
1
1
1
1
1
1
1
1
1
1
1
1
1
1
1
1
1
1
1
1
1
1
1
1
1
1
1
1
1
1
1
1
1
1
1
1
1
1
1
1
1
1
1
1
1
1
1
1
1
1
1
1
1
1
1
1
1
1
1
1
1
1
1
1
1
1
1
1
1
1
1
1
1
1
1
1
1
1
1
1
1
1
1
1
1
1
1
1
1
1
1
1
1
1
1
1
1
1
1
1
1
1
1
1
1
1
1
1
1
1
1
1
1
1
1
1
1
1
1
1
1
1
1
1
1
1
1
1
1
1
1
1
1
1
1
1
1
1
1
1
1
1
1
1
1
1
1
1
1
1
1
1
1
1
1
1
1
1
1
1
1
1
1
1
1
1
1
1
1
1
1
1
1
1
1
1
1
1
1
1
1
1
1
1
1
1
1
1
1
1
1
1
1
1
1
1
1
1
1
1
1
1
1
1
1
1
1
1
1
1
1
1
1
1
1
1
1
1
1
1
1
1
1
1
1
1
1
1
1
1
1
1
1
1
1
1
1
1
1
1
1
1
1
1.7296
1.08404
0.589298
0.592956
0.920438
1.10215
1.14152
1.20135
1.32509
1.44893
1.52817
1.57251
1.61202
1.63525
1.64237
1.67667
1.76228
1.85096
1.86703
1.85923
1.82882
1.81607
1.82338
1.8537
1.88948
1.89556
1.88978
1.86343
1.83301
1.83034
1.84162
1.87139
1.88966
1.88957
1.88395
1.86907
1.85922
1.85783
1.85932
1.86849
1.87461
1.87396
1.87035
1.8655
1.86065
1.85651
1.8547
1.85478
1.85691
1.86214
1.8696
1.87641
1.87794
1.87791
1.87698
1.87461
1.86999
1.8646
1.86206
1.86087
1.85891
1.85796
1.85688
1.8542
1.85091
1.84822
1.84478
1.84156
1.84138
1.84139
1.83843
1.8365
1.83555
1.83371
1.8305
1.82817
1.82791
1.82848
1.82968
1.83055
1.83065
1.82976
1.82647
1.82262
1.82012
1.81714
1.81337
1.81106
1.80895
1.80543
1.80406
1.80385
1.80325
1.80149
1.79974
1.79894
1.79842
1.79724
1.79606
1.79614
1.7962
1.79478
1.79497
1.79588
1.79636
1.79601
1.79481
1.7944
1.79529
1.79611
1.79603
1.79551
1.79396
1.79089
1.7873
1.78529
1.78483
1.78478
1.78515
1.78648
1.78768
1.78817
1.78847
1.78846
1.78699
1.7853
1.78371
1.78053
1.77471
1.76865
1.76637
1.76674
1.76789
1.76875
1.76968
1.77128
1.7732
1.7752
1.77662
1.77659
1.77454
1.77027
1.7623
1.75411
1.75159
1.75078
1.75066
1.75166
1.75617
1.7645
1.77224
1.77723
1.78155
1.78581
1.7889
1.78892
1.78764
1.78812
1.79145
1.79436
1.79637
1.79847
1.80078
1.8026
1.80367
1.80429
1.8043
1.80349
1.80236
1.80128
1.80002
1.79935
1.79945
1.80029
1.80225
1.80507
1.80823
1.81153
1.8148
1.81837
1.82161
1.82328
1.82344
1.82329
1.8229
1.8226
1.82263
1.82327
1.82452
1.8249
1.82485
1.82477
1.99062
1.6543
1.32946
1.18088
1.24064
1.23292
1.16808
1.1198
1.12323
1.14002
1.17895
1.22733
1.25273
1.28918
1.351
1.41301
1.47758
1.5478
1.60091
1.63719
1.65769
1.67682
1.69488
1.72364
1.76236
1.78329
1.78795
1.78094
1.76518
1.76188
1.77036
1.79227
1.8084
1.81135
1.81155
1.80802
1.80386
1.80469
1.80878
1.81751
1.82605
1.82741
1.82602
1.82254
1.81898
1.81806
1.81792
1.81865
1.8215
1.82729
1.83475
1.841
1.84336
1.84333
1.84194
1.83933
1.83514
1.83018
1.82721
1.82674
1.82657
1.82716
1.82829
1.82839
1.82642
1.82261
1.81943
1.81625
1.81353
1.81244
1.81012
1.80968
1.81025
1.81073
1.81031
1.80877
1.80753
1.80746
1.80803
1.80917
1.81005
1.81015
1.80951
1.80731
1.80346
1.79934
1.79541
1.79154
1.78826
1.78621
1.78603
1.78659
1.78759
1.78836
1.78836
1.78727
1.78498
1.78287
1.78123
1.77953
1.77878
1.77823
1.77861
1.78014
1.78234
1.78441
1.78604
1.78724
1.78799
1.78813
1.78793
1.78701
1.785
1.78161
1.77778
1.77549
1.77477
1.77471
1.77506
1.77607
1.77722
1.77749
1.7774
1.77688
1.77554
1.77401
1.77276
1.77142
1.76957
1.76702
1.76439
1.76371
1.76418
1.76499
1.76552
1.76641
1.76772
1.76893
1.76947
1.76888
1.76679
1.76339
1.75781
1.75209
1.75007
1.74894
1.74873
1.74945
1.75288
1.75969
1.76629
1.77051
1.77423
1.77795
1.7811
1.78272
1.78361
1.78538
1.78856
1.79086
1.79241
1.79372
1.79507
1.79621
1.79671
1.79676
1.7967
1.79694
1.79697
1.79679
1.79681
1.79704
1.79744
1.79835
1.80006
1.80253
1.80559
1.80883
1.81206
1.81546
1.81886
1.8202
1.82013
1.81963
1.81896
1.81827
1.81763
1.81752
1.81762
1.81804
1.81921
1.82036
2.03618
1.80779
1.64561
1.52504
1.44662
1.35315
1.28364
1.22189
1.1796
1.17696
1.1676
1.15844
1.16159
1.18062
1.21314
1.23565
1.24147
1.26738
1.32252
1.38294
1.43346
1.4768
1.50658
1.53037
1.56435
1.5997
1.6292
1.64891
1.65246
1.65402
1.66116
1.6753
1.68412
1.68641
1.6908
1.69193
1.69142
1.692
1.69556
1.70342
1.71274
1.72188
1.7276
1.72805
1.72691
1.72549
1.72554
1.72676
1.7305
1.73692
1.74417
1.75129
1.75609
1.75696
1.75628
1.75419
1.75114
1.74834
1.74684
1.74662
1.74717
1.74896
1.75181
1.75503
1.75718
1.75832
1.75849
1.75748
1.75472
1.75047
1.74631
1.74408
1.74386
1.74477
1.7465
1.74754
1.74796
1.74799
1.74795
1.74795
1.74816
1.74905
1.75032
1.75052
1.7501
1.74913
1.74722
1.74417
1.74044
1.73734
1.73616
1.73633
1.73751
1.73969
1.74212
1.74427
1.74551
1.74554
1.74433
1.74143
1.73818
1.73576
1.73463
1.73475
1.73623
1.73944
1.74329
1.74659
1.74936
1.75194
1.75379
1.75414
1.75365
1.75178
1.74882
1.74642
1.74571
1.74594
1.74718
1.7493
1.75088
1.75105
1.75029
1.74837
1.74604
1.74373
1.7422
1.74199
1.74245
1.74268
1.74205
1.74141
1.74204
1.74382
1.74635
1.74927
1.75128
1.75157
1.75106
1.74884
1.74505
1.74116
1.7379
1.73518
1.73351
1.73313
1.73336
1.73512
1.73991
1.74602
1.75034
1.75406
1.75695
1.7578