/*--------------------------------*- C++ -*----------------------------------*\
  =========                 |
  \\      /  F ield         | OpenFOAM: The Open Source CFD Toolbox
   \\    /   O peration     | Website:  https://openfoam.org
    \\  /    A nd           | Version:  7
     \\/     M anipulation  |
\*---------------------------------------------------------------------------*/
FoamFile
{
    version     2.0;
    format      ascii;
    class       volVectorField;
    location    "1";
    object      U;
}
// * * * * * * * * * * * * * * * * * * * * * * * * * * * * * * * * * * * * * //

dimensions      [0 1 -1 0 0 0 0];

internalField   nonuniform List<vector> 
19968
(
(3 -2.78189e-16 0)
(3 -3.5701e-16 0)
(3 -2.02853e-16 0)
(3 -2.68718e-16 0)
(3 -2.35191e-16 0)
(3 -1.73063e-16 0)
(3 -2.63388e-16 0)
(3 -1.95288e-16 0)
(3 2.42053e-16 0)
(3 2.77726e-16 0)
(3 1.61686e-16 0)
(3 6.30657e-17 0)
(3 -2.02988e-16 0)
(3 -7.8413e-16 0)
(3 -8.53234e-16 0)
(3 -6.92797e-16 0)
(3 -2.40597e-16 0)
(3 1.39752e-16 0)
(3 6.16858e-17 0)
(3 4.52088e-19 0)
(3 8.84862e-16 0)
(3 1.02153e-15 0)
(3 1.10256e-15 0)
(3 1.22912e-15 0)
(3 9.15641e-16 0)
(3 3.57414e-16 0)
(3 2.37619e-16 0)
(3 -1.9333e-16 0)
(3 -9.56175e-16 0)
(3 -1.40568e-15 0)
(3 -4.27196e-16 0)
(3 4.60385e-16 0)
(3 8.31305e-16 0)
(3 1.21245e-15 0)
(3 1.18055e-15 0)
(3 1.2944e-15 0)
(3 9.74905e-16 0)
(3 3.22903e-16 0)
(3 -7.12391e-17 0)
(3 -6.11874e-18 0)
(3 -9.15182e-16 0)
(3 -1.18214e-15 0)
(3 -1.28519e-15 0)
(3 -9.81768e-16 0)
(3 -2.10002e-16 0)
(3 1.5834e-16 0)
(3 1.90625e-16 0)
(3 7.69126e-16 0)
(3 1.02715e-15 0)
(3 1.19825e-15 0)
(3 8.87188e-16 0)
(3 1.3936e-15 0)
(3 1.3071e-15 0)
(3 1.0849e-15 0)
(1.32166 0.00657279 0)
(0.728402 0.00774048 0)
(0.706577 0.00322362 0)
(0.696439 0.00661431 0)
(0.681609 0.00792118 0)
(0.666501 0.010824 0)
(0.643326 0.0138558 0)
(0.614773 0.0157022 0)
(0.588166 0.0149206 0)
(0.567981 0.0111496 0)
(0.555626 0.00815795 0)
(0.549893 0.0068703 0)
(0.543356 0.00759407 0)
(0.533161 0.00973965 0)
(0.513612 0.0116736 0)
(0.489234 0.0124399 0)
(0.465944 0.0111776 0)
(0.447803 0.00995425 0)
(0.43284 0.0100845 0)
(0.417792 0.0106315 0)
(0.401333 0.0109541 0)
(0.380619 0.010942 0)
(0.357562 0.0108184 0)
(0.336263 0.010693 0)
(0.319544 0.0108065 0)
(0.306452 0.0111523 0)
(0.296268 0.0114019 0)
(0.286936 0.0114961 0)
(0.273927 0.0117581 0)
(0.256544 0.0120516 0)
(0.238608 0.0120165 0)
(0.218735 0.0122061 0)
(0.200944 0.0123239 0)
(0.183818 0.0122903 0)
(0.165764 0.0124417 0)
(0.142849 0.0125821 0)
(0.120566 0.0130837 0)
(0.0980833 0.0138534 0)
(0.076633 0.0147817 0)
(0.0557234 0.0158135 0)
(0.0347632 0.0162551 0)
(0.0119429 0.017038 0)
(3 -1.70781e-16 0)
(3 -3.56437e-16 0)
(3 -2.02716e-16 0)
(3 -1.02204e-16 0)
(3 1.42999e-16 0)
(3 2.98179e-16 0)
(3 3.98935e-16 0)
(3 6.42711e-16 0)
(3 9.55446e-16 0)
(3 9.78699e-16 0)
(3 2.98724e-16 0)
(3 -5.95123e-16 0)
(3 -1.43626e-15 0)
(3 -1.49535e-15 0)
(3 -1.11812e-15 0)
(3 -8.24873e-16 0)
(3 -4.07999e-16 0)
(3 6.05652e-17 0)
(3 1.94719e-16 0)
(3 4.27447e-16 0)
(3 8.78953e-16 0)
(3 1.1419e-15 0)
(3 1.27175e-15 0)
(3 1.18018e-15 0)
(3 1.04721e-15 0)
(3 1.38343e-15 0)
(3 1.4693e-15 0)
(3 1.11274e-15 0)
(3 9.8346e-17 0)
(3 -4.19715e-16 0)
(3 3.71038e-16 0)
(3 2.53658e-15 0)
(3 3.11993e-15 0)
(3 3.83545e-15 0)
(3 2.43325e-15 0)
(3 1.36053e-15 0)
(3 5.94189e-16 0)
(3 3.83346e-16 0)
(3 -2.44637e-17 0)
(3 -5.85123e-16 0)
(3 -1.50875e-15 0)
(3 -1.80831e-15 0)
(3 -2.15923e-15 0)
(3 -1.20126e-15 0)
(3 8.54907e-17 0)
(3 7.55346e-16 0)
(3 8.17958e-16 0)
(3 7.64689e-16 0)
(3 5.13866e-16 0)
(3 2.26806e-16 0)
(3 7.92721e-17 0)
(3 8.39448e-16 0)
(3 1.53508e-15 0)
(3 2.39235e-16 0)
(1.3402 0.0302888 0)
(0.731758 0.0275443 0)
(0.702993 0.0157798 0)
(0.690116 0.0201089 0)
(0.673626 0.0240979 0)
(0.65764 0.0325508 0)
(0.634189 0.0408222 0)
(0.606778 0.0445767 0)
(0.582497 0.0417426 0)
(0.564877 0.0330678 0)
(0.553124 0.0253689 0)
(0.546765 0.0218871 0)
(0.53918 0.0236378 0)
(0.528428 0.0295105 0)
(0.508519 0.0351163 0)
(0.484299 0.0373036 0)
(0.461634 0.0343516 0)
(0.443684 0.0312139 0)
(0.428579 0.0313285 0)
(0.413254 0.03259 0)
(0.396413 0.0332582 0)
(0.37551 0.0330471 0)
(0.352739 0.032764 0)
(0.331853 0.0327042 0)
(0.315294 0.0333471 0)
(0.302058 0.034433 0)
(0.291682 0.0349694 0)
(0.282086 0.0348235 0)
(0.269191 0.0351876 0)
(0.25206 0.0358681 0)
(0.234613 0.0361472 0)
(0.214532 0.0371007 0)
(0.196336 0.0377321 0)
(0.178955 0.0375773 0)
(0.161383 0.0377506 0)
(0.139309 0.0380959 0)
(0.118426 0.0398165 0)
(0.0967583 0.0424178 0)
(0.075544 0.0453348 0)
(0.0546231 0.0484055 0)
(0.0335808 0.0496494 0)
(0.0116137 0.0514723 0)
(3 2.99426e-16 0)
(3 2.79138e-16 0)
(3 -1.81652e-17 0)
(3 1.07417e-16 0)
(3 1.74512e-17 0)
(3 2.78187e-16 0)
(3 6.22915e-16 0)
(3 9.179e-16 0)
(3 1.52346e-17 0)
(3 -1.55e-16 0)
(3 -2.0215e-16 0)
(3 -3.03497e-16 0)
(3 -5.82258e-16 0)
(3 -7.00088e-16 0)
(3 -3.42415e-16 0)
(3 -5.92957e-17 0)
(3 -2.62312e-16 0)
(3 -4.5993e-16 0)
(3 1.05412e-15 0)
(3 1.11332e-15 0)
(3 1.26612e-15 0)
(3 2.34882e-15 0)
(3 2.11624e-15 0)
(3 1.67379e-15 0)
(3 2.427e-15 0)
(3 2.71862e-15 0)
(3 2.88192e-15 0)
(3 2.45459e-15 0)
(3 2.57913e-15 0)
(3 2.16123e-15 0)
(3 1.68351e-15 0)
(3 3.47683e-15 0)
(3 4.37831e-15 0)
(3 5.0872e-15 0)
(3 3.96843e-15 0)
(3 3.05503e-15 0)
(3 1.73346e-15 0)
(3 1.25374e-15 0)
(3 5.89663e-16 0)
(3 -1.23189e-15 0)
(3 -1.50753e-15 0)
(3 -1.20835e-15 0)
(3 -7.03576e-16 0)
(3 4.30045e-16 0)
(3 6.51749e-17 0)
(3 -9.69036e-18 0)
(3 1.18801e-16 0)
(3 -6.15128e-16 0)
(3 -1.06234e-15 0)
(3 -7.05567e-16 0)
(3 1.36527e-16 0)
(3 9.91585e-16 0)
(3 1.02122e-15 0)
(3 -1.90462e-15 0)
(1.3896 0.0518407 0)
(0.741597 0.0471152 0)
(0.707471 0.0321167 0)
(0.692135 0.0391815 0)
(0.671756 0.0455396 0)
(0.653066 0.0586701 0)
(0.628516 0.0701913 0)
(0.602304 0.0729792 0)
(0.580547 0.0667252 0)
(0.565568 0.0543189 0)
(0.554691 0.0436241 0)
(0.547479 0.0390774 0)
(0.538634 0.041995 0)
(0.527171 0.0509767 0)
(0.506834 0.0595349 0)
(0.482537 0.0624778 0)
(0.460087 0.0581981 0)
(0.441965 0.0538997 0)
(0.426489 0.0540987 0)
(0.410703 0.055826 0)
(0.393299 0.0567264 0)
(0.372231 0.0565271 0)
(0.349915 0.0563198 0)
(0.329444 0.0565245 0)
(0.312762 0.0576474 0)
(0.298944 0.059289 0)
(0.287764 0.0600151 0)
(0.277416 0.0596221 0)
(0.264482 0.0600936 0)
(0.24773 0.0610552 0)
(0.230854 0.0614098 0)
(0.210034 0.062778 0)
(0.190675 0.0638193 0)
(0.172421 0.0637782 0)
(0.155051 0.0642733 0)
(0.134105 0.0649716 0)
(0.114824 0.067543 0)
(0.0938881 0.0712875 0)
(0.0728645 0.0756472 0)
(0.0520804 0.0806667 0)
(0.031222 0.0830525 0)
(0.0108862 0.086366 0)
(3 6.31945e-17 0)
(3 -7.66823e-18 0)
(3 -1.95957e-16 0)
(3 -3.82535e-17 0)
(3 9.32808e-17 0)
(3 -2.38961e-17 0)
(3 8.28119e-17 0)
(3 1.69262e-16 0)
(3 5.39271e-17 0)
(3 -2.49747e-16 0)
(3 -8.50178e-16 0)
(3 -6.46556e-16 0)
(3 1.90625e-16 0)
(3 6.62724e-16 0)
(3 4.35014e-16 0)
(3 4.71181e-16 0)
(3 4.14163e-16 0)
(3 7.44452e-16 0)
(3 1.71795e-15 0)
(3 1.80586e-15 0)
(3 1.21425e-15 0)
(3 3.67296e-16 0)
(3 -2.8017e-16 0)
(3 -5.17039e-16 0)
(3 -1.36895e-16 0)
(3 7.12178e-16 0)
(3 1.09911e-15 0)
(3 9.28924e-16 0)
(3 7.63026e-16 0)
(3 8.80804e-16 0)
(3 1.02623e-15 0)
(3 1.25989e-15 0)
(3 3.00781e-15 0)
(3 3.58906e-15 0)
(3 3.11246e-15 0)
(3 3.10215e-15 0)
(3 2.32242e-15 0)
(3 1.65664e-15 0)
(3 -3.07505e-16 0)
(3 -1.60592e-15 0)
(3 -1.77975e-15 0)
(3 -1.15486e-15 0)
(3 7.76607e-16 0)
(3 1.45161e-15 0)
(3 1.69819e-15 0)
(3 1.54735e-15 0)
(3 1.44161e-16 0)
(3 -1.35061e-15 0)
(3 -1.91433e-15 0)
(3 -5.76177e-16 0)
(3 3.50158e-16 0)
(3 2.19982e-16 0)
(3 -6.4564e-16 0)
(3 -2.75669e-15 0)
(1.46963 0.0722007 0)
(0.753191 0.0660062 0)
(0.711405 0.0510631 0)
(0.695086 0.0614041 0)
(0.670995 0.0720063 0)
(0.64995 0.0894791 0)
(0.624725 0.100739 0)
(0.601251 0.0994611 0)
(0.583172 0.0892052 0)
(0.570202 0.0743121 0)
(0.560771 0.0620081 0)
(0.552253 0.0581358 0)
(0.541871 0.0628033 0)
(0.529943 0.0745386 0)
(0.509321 0.0853306 0)
(0.485208 0.0883235 0)
(0.463028 0.0829844 0)
(0.444461 0.0780807 0)
(0.428269 0.0784408 0)
(0.411845 0.0805684 0)
(0.393849 0.081633 0)
(0.372948 0.0815242 0)
(0.351349 0.0814682 0)
(0.331393 0.0821055 0)
(0.314464 0.0838468 0)
(0.299755 0.0861214 0)
(0.287381 0.087243 0)
(0.275874 0.0867957 0)
(0.262762 0.0870234 0)
(0.246722 0.0880812 0)
(0.229869 0.0885729 0)
(0.20852 0.0901529 0)
(0.187689 0.0917182 0)
(0.168118 0.0921012 0)
(0.150116 0.0930449 0)
(0.130203 0.0938731 0)
(0.112026 0.0966647 0)
(0.0916511 0.1011 0)
(0.0705799 0.106304 0)
(0.0497398 0.112895 0)
(0.0288779 0.116249 0)
(0.0102138 0.121018 0)
(3 -1.08492e-17 0)
(3 -1.0907e-16 0)
(3 1.69578e-16 0)
(3 5.31437e-16 0)
(3 4.64788e-16 0)
(3 3.33703e-16 0)
(3 5.04511e-16 0)
(3 6.88288e-16 0)
(3 7.96337e-16 0)
(3 8.63172e-16 0)
(3 1.38766e-16 0)
(3 -5.46221e-16 0)
(3 -6.77891e-16 0)
(3 -5.29836e-16 0)
(3 -7.93847e-17 0)
(3 3.42261e-16 0)
(3 6.32738e-16 0)
(3 1.06514e-15 0)
(3 9.95127e-16 0)
(3 1.62999e-15 0)
(3 1.03708e-15 0)
(3 -1.60785e-15 0)
(3 -1.75705e-15 0)
(3 -1.54116e-15 0)
(3 -1.32112e-15 0)
(3 -8.68957e-16 0)
(3 -5.44251e-16 0)
(3 -7.94752e-17 0)
(3 -6.23584e-16 0)
(3 -5.54106e-16 0)
(3 1.30949e-16 0)
(3 4.10166e-16 0)
(3 1.20667e-15 0)
(3 1.9222e-15 0)
(3 2.56633e-15 0)
(3 3.57469e-15 0)
(3 3.85574e-15 0)
(3 2.47194e-15 0)
(3 -5.79536e-16 0)
(3 -1.4124e-15 0)
(3 -1.20832e-15 0)
(3 -8.74292e-16 0)
(3 -4.96026e-16 0)
(3 -2.45083e-16 0)
(3 3.23782e-16 0)
(3 1.12324e-15 0)
(3 1.28934e-15 0)
(3 1.65972e-15 0)
(3 1.0967e-15 0)
(3 -8.83762e-16 0)
(3 -1.28285e-15 0)
(3 -1.85922e-15 0)
(3 -2.28505e-15 0)
(3 -3.64046e-15 0)
(1.59084 0.0918249 0)
(0.767282 0.0839252 0)
(0.713104 0.0728922 0)
(0.695364 0.0890047 0)
(0.666861 0.1048 0)
(0.643625 0.123356 0)
(0.619474 0.129074 0)
(0.601852 0.122204 0)
(0.589077 0.108367 0)
(0.578375 0.0919306 0)
(0.569826 0.0798562 0)
(0.559593 0.0787189 0)
(0.54754 0.0864979 0)
(0.533841 0.101252 0)
(0.513153 0.113626 0)
(0.489671 0.11547 0)
(0.468204 0.108932 0)
(0.449086 0.103574 0)
(0.431828 0.104032 0)
(0.41463 0.10662 0)
(0.39616 0.107969 0)
(0.375854 0.10796 0)
(0.355383 0.108097 0)
(0.336257 0.109277 0)
(0.319198 0.111697 0)
(0.303453 0.114603 0)
(0.289647 0.116314 0)
(0.276776 0.116152 0)
(0.263361 0.116249 0)
(0.248168 0.117169 0)
(0.23186 0.117864 0)
(0.210609 0.119348 0)
(0.188601 0.121647 0)
(0.167527 0.122747 0)
(0.148135 0.124444 0)
(0.128712 0.125452 0)
(0.110881 0.127889 0)
(0.0908287 0.132498 0)
(0.0696764 0.137957 0)
(0.0486568 0.145512 0)
(0.0275653 0.149502 0)
(0.00990945 0.155437 0)
(3 -1.00596e-16 0)
(3 -3.68074e-17 0)
(3 2.74255e-16 0)
(3 3.05782e-16 0)
(3 3.32117e-16 0)
(3 4.20931e-16 0)
(3 2.03903e-16 0)
(3 4.01676e-17 0)
(3 5.06774e-18 0)
(3 -1.27743e-16 0)
(3 5.47568e-16 0)
(3 5.05631e-16 0)
(3 -1.32248e-17 0)
(3 -4.05442e-16 0)
(3 -5.2952e-16 0)
(3 -1.60743e-17 0)
(3 1.29053e-16 0)
(3 5.30937e-17 0)
(3 -5.55842e-17 0)
(3 5.06224e-16 0)
(3 8.95907e-16 0)
(3 8.21556e-16 0)
(3 1.74571e-16 0)
(3 -5.17075e-16 0)
(3 -1.26192e-15 0)
(3 -1.76473e-15 0)
(3 -1.77631e-15 0)
(3 -1.31357e-15 0)
(3 -1.03422e-15 0)
(3 -1.17285e-15 0)
(3 -4.47045e-16 0)
(3 -4.47558e-17 0)
(3 4.7484e-16 0)
(3 7.1603e-16 0)
(3 1.92253e-15 0)
(3 3.34956e-15 0)
(3 3.72087e-15 0)
(3 2.3885e-15 0)
(3 9.56934e-16 0)
(3 -1.61277e-16 0)
(3 -1.84673e-15 0)
(3 -1.67991e-15 0)
(3 -1.75252e-16 0)
(3 8.87095e-16 0)
(3 9.72869e-16 0)
(3 6.44915e-16 0)
(3 1.22884e-15 0)
(3 2.55377e-15 0)
(3 3.13784e-15 0)
(3 8.75486e-16 0)
(3 -6.06808e-16 0)
(3 -1.32915e-15 0)
(3 -9.06185e-16 0)
(3 -5.53649e-15 0)
(1.76434 0.109063 0)
(0.785668 0.103347 0)
(0.712579 0.101962 0)
(0.689576 0.123704 0)
(0.659773 0.142261 0)
(0.636856 0.153823 0)
(0.618577 0.151135 0)
(0.607905 0.139625 0)
(0.600077 0.122826 0)
(0.590238 0.106663 0)
(0.579919 0.0978628 0)
(0.567599 0.101679 0)
(0.552837 0.114437 0)
(0.536869 0.132861 0)
(0.515824 0.145082 0)
(0.493893 0.144259 0)
(0.473914 0.136141 0)
(0.454639 0.130101 0)
(0.436409 0.130497 0)
(0.41851 0.133763 0)
(0.399701 0.135817 0)
(0.380091 0.1361 0)
(0.360922 0.136443 0)
(0.34285 0.138166 0)
(0.325881 0.141199 0)
(0.309042 0.144597 0)
(0.293547 0.146942 0)
(0.27912 0.14745 0)
(0.265092 0.147739 0)
(0.250647 0.14861 0)
(0.235331 0.149511 0)
(0.21498 0.151045 0)
(0.192438 0.153936 0)
(0.169913 0.155866 0)
(0.14844 0.158406 0)
(0.128759 0.159826 0)
(0.110206 0.161724 0)
(0.0899612 0.165911 0)
(0.0690469 0.17125 0)
(0.0483357 0.179278 0)
(0.0273365 0.183531 0)
(0.00991979 0.190149 0)
(3 2.13423e-17 0)
(3 1.5731e-16 0)
(3 1.07656e-16 0)
(3 -3.53002e-16 0)
(3 -3.91089e-16 0)
(3 -4.34651e-16 0)
(3 -7.00792e-16 0)
(3 -1.13757e-15 0)
(3 -1.04593e-15 0)
(3 -8.43352e-16 0)
(3 -8.13226e-18 0)
(3 4.75811e-16 0)
(3 2.67017e-16 0)
(3 5.01354e-16 0)
(3 1.23891e-15 0)
(3 1.50362e-15 0)
(3 1.61808e-15 0)
(3 1.54775e-15 0)
(3 1.58722e-15 0)
(3 1.30692e-15 0)
(3 1.0151e-15 0)
(3 5.99939e-16 0)
(3 -1.05555e-16 0)
(3 -2.09049e-15 0)
(3 -3.16402e-15 0)
(3 -3.48853e-15 0)
(3 -3.43991e-15 0)
(3 -3.03452e-15 0)
(3 -2.10711e-15 0)
(3 -1.57336e-15 0)
(3 -5.9933e-16 0)
(3 -6.19499e-17 0)
(3 4.3261e-18 0)
(3 6.48153e-16 0)
(3 1.26453e-15 0)
(3 1.34098e-15 0)
(3 6.21151e-16 0)
(3 7.39039e-16 0)
(3 7.74707e-16 0)
(3 2.04372e-16 0)
(3 -1.5602e-16 0)
(3 -1.08262e-16 0)
(3 5.68888e-16 0)
(3 1.17509e-15 0)
(3 1.08015e-15 0)
(3 -3.18256e-16 0)
(3 -6.48787e-16 0)
(3 1.35492e-16 0)
(3 1.38867e-15 0)
(3 2.28764e-15 0)
(3 2.45477e-15 0)
(3 1.63437e-15 0)
(3 1.85328e-15 0)
(3 -4.70314e-16 0)
(1.99515 0.122967 0)
(0.807573 0.130207 0)
(0.705269 0.141607 0)
(0.680823 0.164354 0)
(0.655806 0.176052 0)
(0.63869 0.176023 0)
(0.628838 0.166766 0)
(0.621382 0.151303 0)
(0.614791 0.133488 0)
(0.603216 0.122248 0)
(0.589489 0.120202 0)
(0.574193 0.129977 0)
(0.556134 0.148406 0)
(0.537937 0.16874 0)
(0.517095 0.177807 0)
(0.498116 0.173408 0)
(0.480148 0.163702 0)
(0.461624 0.15688 0)
(0.443113 0.15738 0)
(0.424792 0.161832 0)
(0.405594 0.165217 0)
(0.386279 0.166246 0)
(0.367997 0.166928 0)
(0.35083 0.16911 0)
(0.334085 0.172435 0)
(0.316349 0.176018 0)
(0.299328 0.178804 0)
(0.283243 0.180077 0)
(0.268462 0.181159 0)
(0.255046 0.182442 0)
(0.24064 0.18377 0)
(0.221527 0.185538 0)
(0.199235 0.188878 0)
(0.175772 0.191568 0)
(0.151815 0.194839 0)
(0.13106 0.196832 0)
(0.110803 0.19854 0)
(0.0896565 0.202333 0)
(0.0687878 0.206824 0)
(0.0485777 0.214784 0)
(0.0279736 0.219055 0)
(0.0101244 0.225803 0)
(3 2.87488e-17 0)
(3 2.44909e-17 0)
(3 -2.68302e-16 0)
(3 -3.16196e-16 0)
(3 -3.35685e-16 0)
(3 -4.36801e-16 0)
(3 -6.22608e-16 0)
(3 -7.09749e-16 0)
(3 -3.85958e-16 0)
(3 3.71768e-16 0)
(3 1.29407e-16 0)
(3 2.19197e-17 0)
(3 1.64052e-16 0)
(3 1.26423e-15 0)
(3 2.01152e-15 0)
(3 2.29537e-15 0)
(3 2.92943e-15 0)
(3 2.47489e-15 0)
(3 2.13717e-15 0)
(3 1.99942e-15 0)
(3 6.81954e-16 0)
(3 -2.76251e-16 0)
(3 -8.23586e-16 0)
(3 -1.6266e-15 0)
(3 -1.84354e-15 0)
(3 -2.75997e-15 0)
(3 -2.8628e-15 0)
(3 -2.37953e-15 0)
(3 -1.59873e-15 0)
(3 -4.72009e-16 0)
(3 -5.29586e-16 0)
(3 -3.68329e-16 0)
(3 -2.01827e-16 0)
(3 -2.5919e-16 0)
(3 -4.32983e-16 0)
(3 -4.95526e-17 0)
(3 -2.76865e-16 0)
(3 -5.33677e-16 0)
(3 1.9572e-17 0)
(3 1.31374e-15 0)
(3 2.9395e-15 0)
(3 2.75589e-15 0)
(3 1.1387e-15 0)
(3 5.2962e-16 0)
(3 5.58789e-16 0)
(3 -3.01892e-16 0)
(3 -1.11157e-15 0)
(3 -1.29242e-15 0)
(3 -4.83223e-16 0)
(3 1.97676e-15 0)
(3 3.01477e-15 0)
(3 2.68887e-15 0)
(3 2.69016e-15 0)
(3 -2.61533e-15 0)
(2.29145 0.136319 0)
(0.840979 0.174339 0)
(0.703548 0.189235 0)
(0.684659 0.199631 0)
(0.668024 0.197662 0)
(0.656415 0.188115 0)
(0.647404 0.174899 0)
(0.639427 0.160871 0)
(0.628302 0.150484 0)
(0.61309 0.146313 0)
(0.596408 0.15184 0)
(0.577149 0.166832 0)
(0.558473 0.188314 0)
(0.539606 0.205515 0)
(0.520711 0.208501 0)
(0.505461 0.20058 0)
(0.488409 0.190256 0)
(0.470313 0.183702 0)
(0.451892 0.18526 0)
(0.433506 0.191639 0)
(0.414066 0.19676 0)
(0.394805 0.198724 0)
(0.376851 0.199864 0)
(0.359966 0.202405 0)
(0.343118 0.205647 0)
(0.324799 0.209133 0)
(0.306447 0.212119 0)
(0.289191 0.214194 0)
(0.273894 0.216518 0)
(0.26115 0.219114 0)
(0.247117 0.221039 0)
(0.228992 0.223309 0)
(0.20726 0.227008 0)
(0.182956 0.230052 0)
(0.157473 0.233827 0)
(0.134771 0.236455 0)
(0.112267 0.238402 0)
(0.0897787 0.242052 0)
(0.0686004 0.246091 0)
(0.0486564 0.253534 0)
(0.0285725 0.257103 0)
(0.0102708 0.263512 0)
(3 -4.64973e-17 0)
(3 -1.31211e-16 0)
(3 -9.66146e-17 0)
(3 -1.06212e-17 0)
(3 -5.34855e-17 0)
(3 -1.54904e-16 0)
(3 -1.67309e-16 0)
(3 4.76587e-17 0)
(3 6.11496e-16 0)
(3 8.57899e-16 0)
(3 6.82834e-16 0)
(3 -3.01736e-16 0)
(3 -1.53917e-16 0)
(3 8.3507e-17 0)
(3 1.90502e-16 0)
(3 4.817e-17 0)
(3 8.22183e-16 0)
(3 1.02035e-15 0)
(3 9.77883e-16 0)
(3 9.60355e-16 0)
(3 3.51768e-16 0)
(3 -6.88252e-17 0)
(3 -3.88604e-16 0)
(3 -3.52374e-16 0)
(3 -3.02887e-17 0)
(3 -7.04979e-16 0)
(3 -1.46423e-15 0)
(3 -2.07537e-15 0)
(3 -1.4502e-15 0)
(3 3.25338e-16 0)
(3 8.60189e-16 0)
(3 5.18332e-16 0)
(3 2.60098e-17 0)
(3 -1.09749e-15 0)
(3 -3.64756e-15 0)
(3 -3.84903e-15 0)
(3 -1.38207e-15 0)
(3 -1.23915e-16 0)
(3 5.15756e-17 0)
(3 7.39561e-16 0)
(3 2.28528e-15 0)
(3 2.28915e-15 0)
(3 2.00976e-15 0)
(3 1.21677e-15 0)
(3 1.61484e-15 0)
(3 1.96943e-15 0)
(3 6.22874e-16 0)
(3 3.9612e-16 0)
(3 3.83482e-16 0)
(3 9.45101e-16 0)
(3 1.05065e-15 0)
(3 1.02555e-15 0)
(3 1.22914e-15 0)
(3 -1.41521e-15 0)
(2.64535 0.149463 0)
(0.911736 0.238164 0)
(0.719116 0.221226 0)
(0.712656 0.21332 0)
(0.697031 0.207135 0)
(0.682766 0.197758 0)
(0.668536 0.187846 0)
(0.652261 0.181204 0)
(0.633721 0.179155 0)
(0.613426 0.182574 0)
(0.593979 0.194436 0)
(0.572656 0.211208 0)
(0.555779 0.229483 0)
(0.539947 0.237593 0)
(0.526337 0.2347 0)
(0.515358 0.224846 0)
(0.499181 0.215454 0)
(0.480608 0.211365 0)
(0.462131 0.215568 0)
(0.44404 0.224611 0)
(0.42478 0.23125 0)
(0.40572 0.23355 0)
(0.387762 0.234923 0)
(0.370389 0.237702 0)
(0.352693 0.240846 0)
(0.334123 0.244312 0)
(0.31499 0.247551 0)
(0.297889 0.250465 0)
(0.282986 0.254012 0)
(0.270508 0.258085 0)
(0.256914 0.260963 0)
(0.239262 0.263832 0)
(0.21803 0.267838 0)
(0.193487 0.270986 0)
(0.167311 0.275235 0)
(0.142459 0.278612 0)
(0.117274 0.28134 0)
(0.0927885 0.285461 0)
(0.0704302 0.289774 0)
(0.0498662 0.296891 0)
(0.0295603 0.299673 0)
(0.0105864 0.305586 0)
(3 2.29345e-17 0)
(3 2.84281e-16 0)
(3 2.8022e-16 0)
(3 4.03114e-16 0)
(3 4.78066e-16 0)
(3 6.51671e-16 0)
(3 6.54537e-16 0)
(3 7.45333e-16 0)
(3 4.92049e-16 0)
(3 1.13405e-16 0)
(3 -1.48583e-16 0)
(3 -1.14161e-15 0)
(3 -1.49938e-15 0)
(3 -1.4954e-15 0)
(3 -8.38269e-16 0)
(3 -2.89592e-16 0)
(3 -7.40398e-16 0)
(3 -6.63798e-16 0)
(3 -7.00915e-16 0)
(3 -1.07418e-15 0)
(3 -1.05819e-15 0)
(3 -1.14267e-15 0)
(3 -1.47537e-15 0)
(3 -7.71771e-16 0)
(3 -4.49865e-16 0)
(3 -2.9554e-16 0)
(3 -1.02878e-15 0)
(3 -1.42502e-15 0)
(3 -1.09612e-15 0)
(3 3.24949e-16 0)
(3 1.50113e-15 0)
(3 1.37328e-15 0)
(3 5.7862e-16 0)
(3 -1.76008e-15 0)
(3 -2.22142e-15 0)
(3 -2.42679e-15 0)
(3 -2.00608e-15 0)
(3 -5.5333e-16 0)
(3 8.32186e-16 0)
(3 1.39634e-15 0)
(3 1.21175e-15 0)
(3 9.73492e-16 0)
(3 9.55189e-16 0)
(3 1.00181e-15 0)
(3 1.07115e-15 0)
(3 1.15875e-15 0)
(3 1.38623e-15 0)
(3 1.61168e-15 0)
(3 1.64616e-15 0)
(3 8.8386e-16 0)
(3 6.30976e-16 0)
(3 7.45946e-16 0)
(3 -6.79607e-17 0)
(3 -1.23716e-15 0)
(2.97578 0.0271612 0)
(1.06108 0.273896 0)
(0.748611 0.225758 0)
(0.737658 0.234741 0)
(0.71846 0.232845 0)
(0.699029 0.22575 0)
(0.67664 0.21855 0)
(0.652248 0.215057 0)
(0.627852 0.216869 0)
(0.605228 0.226111 0)
(0.584981 0.240031 0)
(0.569367 0.255009 0)
(0.558135 0.263785 0)
(0.549722 0.261517 0)
(0.542658 0.253207 0)
(0.532048 0.244088 0)
(0.514578 0.239877 0)
(0.493584 0.24142 0)
(0.473033 0.250543 0)
(0.454315 0.262742 0)
(0.435557 0.26961 0)
(0.417521 0.270744 0)
(0.399946 0.271577 0)
(0.382137 0.274317 0)
(0.363448 0.277741 0)
(0.344191 0.281883 0)
(0.325772 0.285823 0)
(0.309109 0.289796 0)
(0.295072 0.294334 0)
(0.282275 0.299491 0)
(0.268538 0.303424 0)
(0.250304 0.307029 0)
(0.228809 0.311927 0)
(0.204184 0.315782 0)
(0.177359 0.320567 0)
(0.150551 0.324791 0)
(0.12293 0.328475 0)
(0.0962004 0.33351 0)
(0.0720306 0.33872 0)
(0.0502847 0.345883 0)
(0.0295556 0.348148 0)
(0.010555 0.353785 0)
(3 -1.46686e-16 0)
(3 -2.93083e-16 0)
(3 -2.80918e-16 0)
(3 5.12851e-18 0)
(3 2.7584e-16 0)
(3 3.25882e-16 0)
(3 9.54896e-17 0)
(3 3.23557e-17 0)
(3 2.30443e-16 0)
(3 -5.70875e-17 0)
(3 -2.09614e-16 0)
(3 -1.16598e-16 0)
(3 5.79073e-17 0)
(3 -4.33879e-16 0)
(3 -1.06287e-15 0)
(3 -7.97739e-16 0)
(3 -7.07759e-16 0)
(3 -9.77778e-16 0)
(3 -1.50225e-15 0)
(3 -1.79408e-15 0)
(3 -1.51905e-15 0)
(3 -3.23156e-16 0)
(3 6.53446e-16 0)
(3 8.20409e-16 0)
(3 1.30356e-15 0)
(3 1.50334e-15 0)
(3 9.14172e-16 0)
(3 4.31485e-16 0)
(3 2.46669e-16 0)
(3 7.94482e-16 0)
(3 1.38659e-15 0)
(3 1.38901e-15 0)
(3 2.1084e-16 0)
(3 -1.78879e-16 0)
(3 -7.28194e-16 0)
(3 -9.3269e-16 0)
(3 -6.97752e-16 0)
(3 -3.39366e-16 0)
(3 -2.221e-16 0)
(3 -2.16646e-16 0)
(3 -8.26617e-17 0)
(3 -2.69762e-16 0)
(3 6.65702e-17 0)
(3 4.86647e-16 0)
(3 3.37667e-16 0)
(3 1.08528e-15 0)
(3 2.46139e-15 0)
(3 2.96208e-15 0)
(3 2.49233e-15 0)
(3 4.21955e-16 0)
(3 -4.84194e-16 0)
(3 -1.36516e-15 0)
(3 -8.83087e-16 0)
(3 -1.03063e-17 0)
(3.00049 0.00044045 0)
(1.41034 0.297558 0)
(0.773696 0.256946 0)
(0.730665 0.271701 0)
(0.708215 0.268936 0)
(0.687726 0.262815 0)
(0.668034 0.257106 0)
(0.649341 0.25521 0)
(0.631387 0.258394 0)
(0.614725 0.267205 0)
(0.599325 0.277977 0)
(0.587002 0.285787 0)
(0.577705 0.284346 0)
(0.571152 0.277994 0)
(0.563293 0.270462 0)
(0.549868 0.266877 0)
(0.530003 0.269394 0)
(0.504592 0.278079 0)
(0.480103 0.292275 0)
(0.46028 0.305885 0)
(0.4433 0.310449 0)
(0.428814 0.308835 0)
(0.413807 0.308378 0)
(0.397655 0.310951 0)
(0.379516 0.31535 0)
(0.35997 0.321251 0)
(0.341488 0.326802 0)
(0.325313 0.332346 0)
(0.311081 0.337733 0)
(0.298512 0.34358 0)
(0.284159 0.348446 0)
(0.266466 0.352761 0)
(0.244938 0.358755 0)
(0.220475 0.363753 0)
(0.192792 0.36934 0)
(0.164183 0.374904 0)
(0.134391 0.380149 0)
(0.105045 0.386794 0)
(0.0780021 0.393723 0)
(0.0537518 0.401649 0)
(0.0311756 0.403975 0)
(0.0110082 0.409688 0)
(3 -5.50961e-17 0)
(3 -2.64669e-16 0)
(3 -3.73614e-16 0)
(3 -5.40647e-16 0)
(3 -6.30545e-16 0)
(3 -6.72916e-16 0)
(3 -4.35821e-16 0)
(3 -4.11455e-16 0)
(3 -5.53928e-16 0)
(3 -3.17706e-16 0)
(3 8.34931e-17 0)
(3 4.91123e-16 0)
(3 1.40182e-15 0)
(3 1.66739e-15 0)
(3 6.87526e-16 0)
(3 -4.27538e-16 0)
(3 2.46366e-17 0)
(3 1.75366e-17 0)
(3 -6.99306e-16 0)
(3 -8.08778e-16 0)
(3 -9.72178e-16 0)
(3 -6.70412e-16 0)
(3 5.18741e-17 0)
(3 7.82774e-16 0)
(3 1.0557e-15 0)
(3 1.31242e-15 0)
(3 1.44771e-15 0)
(3 1.34196e-15 0)
(3 6.26071e-16 0)
(3 -8.19389e-17 0)
(3 -1.42879e-16 0)
(3 2.77255e-16 0)
(3 9.0535e-16 0)
(3 8.04864e-17 0)
(3 -3.69463e-16 0)
(3 -4.63385e-16 0)
(3 -3.90133e-16 0)
(3 -5.25696e-16 0)
(3 -5.96921e-16 0)
(3 -4.38063e-16 0)
(3 -4.12742e-16 0)
(3 -3.56426e-16 0)
(3 -3.82294e-16 0)
(3 -4.92089e-16 0)
(3 -8.0422e-16 0)
(3 -7.7406e-16 0)
(3 4.56887e-16 0)
(3 1.12893e-15 0)
(3 8.09458e-16 0)
(3 -1.4879e-15 0)
(3 -2.74514e-15 0)
(3 -2.97533e-15 0)
(3 -2.83407e-15 0)
(3 -1.74594e-15 0)
(3 5.92444e-07 0)
(2.06817 0.29683 0)
(0.829707 0.308647 0)
(0.736341 0.304132 0)
(0.723451 0.29681 0)
(0.704101 0.294732 0)
(0.687921 0.288663 0)
(0.672405 0.28456 0)
(0.656713 0.285061 0)
(0.640666 0.291564 0)
(0.626418 0.302379 0)
(0.613455 0.310619 0)
(0.601917 0.311413 0)
(0.591134 0.307607 0)
(0.579755 0.301592 0)
(0.562447 0.301003 0)
(0.540094 0.306841 0)
(0.513827 0.320519 0)
(0.488967 0.336279 0)
(0.471007 0.347189 0)
(0.457824 0.347188 0)
(0.447219 0.343058 0)
(0.434488 0.342888 0)
(0.419859 0.347303 0)
(0.402314 0.35461 0)
(0.381821 0.363655 0)
(0.361464 0.372039 0)
(0.343431 0.379403 0)
(0.327322 0.38558 0)
(0.314096 0.391769 0)
(0.300294 0.397561 0)
(0.28294 0.403159 0)
(0.261759 0.410789 0)
(0.235969 0.417947 0)
(0.20688 0.425469 0)
(0.175604 0.433082 0)
(0.14439 0.440094 0)
(0.113638 0.448521 0)
(0.0845616 0.457602 0)
(0.0579507 0.466866 0)
(0.0334166 0.469672 0)
(0.0113253 0.475385 0)
(3 3.21973e-17 0)
(3 1.95875e-16 0)
(3 1.85164e-16 0)
(3 -5.89715e-17 0)
(3 -2.526e-16 0)
(3 -8.32799e-17 0)
(3 3.42269e-17 0)
(3 -9.93244e-17 0)
(3 -4.71605e-16 0)
(3 -1.19632e-15 0)
(3 -1.41266e-15 0)
(3 -1.26332e-15 0)
(3 -4.34205e-16 0)
(3 1.205e-15 0)
(3 1.86192e-15 0)
(3 1.5157e-15 0)
(3 8.56821e-16 0)
(3 2.52136e-16 0)
(3 -2.19067e-16 0)
(3 1.56795e-16 0)
(3 3.95082e-16 0)
(3 2.46962e-16 0)
(3 1.20043e-16 0)
(3 4.88103e-17 0)
(3 1.67989e-16 0)
(3 4.89106e-16 0)
(3 8.85229e-16 0)
(3 8.46018e-16 0)
(3 -4.04396e-16 0)
(3 -1.39596e-15 0)
(3 -1.43826e-15 0)
(3 -1.21845e-15 0)
(3 -9.69401e-16 0)
(3 -5.64557e-16 0)
(3 5.08064e-16 0)
(3 6.45308e-16 0)
(3 -7.63547e-17 0)
(3 -5.84876e-16 0)
(3 -1.77156e-16 0)
(3 1.81874e-16 0)
(3 -2.34671e-16 0)
(3 -3.96595e-16 0)
(3 -1.15043e-15 0)
(3 -1.30893e-15 0)
(3 -7.76006e-16 0)
(3 -6.78345e-16 0)
(3 -6.62701e-16 0)
(3 -7.09241e-16 0)
(3 -1.05268e-15 0)
(3 -1.85774e-15 0)
(3 -2.73204e-15 0)
(3 -3.33883e-15 0)
(3 -3.60198e-15 0)
(3 -1.62719e-15 0)
(3 6.13869e-10 0)
(2.88014 0.111402 0)
(1.02153 0.345588 0)
(0.768458 0.307595 0)
(0.757788 0.313544 0)
(0.738648 0.317566 0)
(0.720916 0.3162 0)
(0.703334 0.3157 0)
(0.683997 0.318414 0)
(0.662519 0.326956 0)
(0.642381 0.340605 0)
(0.623956 0.351158 0)
(0.609126 0.353205 0)
(0.597257 0.34989 0)
(0.589673 0.342635 0)
(0.576814 0.341751 0)
(0.559759 0.346379 0)
(0.539487 0.358726 0)
(0.516704 0.37123 0)
(0.4984 0.377433 0)
(0.484568 0.376825 0)
(0.472215 0.376457 0)
(0.458682 0.381038 0)
(0.443904 0.390436 0)
(0.4259 0.401526 0)
(0.404953 0.412708 0)
(0.383402 0.422541 0)
(0.363675 0.430271 0)
(0.346881 0.43647 0)
(0.334141 0.443162 0)
(0.322673 0.449975 0)
(0.308267 0.457317 0)
(0.289224 0.46677 0)
(0.263723 0.476234 0)
(0.234036 0.485642 0)
(0.200901 0.495641 0)
(0.168751 0.505317 0)
(0.136684 0.517369 0)
(0.10425 0.531436 0)
(0.0722844 0.544714 0)
(0.0421009 0.548976 0)
(0.0137757 0.554521 0)
(3 1.22737e-16 0)
(3 2.98719e-16 0)
(3 3.57324e-16 0)
(3 3.84444e-16 0)
(3 -1.20585e-16 0)
(3 -3.37446e-16 0)
(3 -4.34119e-16 0)
(3 -2.96029e-16 0)
(3 -2.55623e-16 0)
(3 -3.48047e-16 0)
(3 -5.57681e-16 0)
(3 -3.36514e-16 0)
(3 -1.04858e-17 0)
(3 1.55626e-16 0)
(3 4.42717e-16 0)
(3 5.19327e-16 0)
(3 2.82472e-16 0)
(3 -1.35246e-16 0)
(3 -2.13107e-17 0)
(3 2.06053e-16 0)
(3 6.93621e-16 0)
(3 1.07284e-15 0)
(3 9.9953e-16 0)
(3 7.04888e-16 0)
(3 7.80299e-16 0)
(3 9.11672e-16 0)
(3 1.27539e-15 0)
(3 9.8409e-16 0)
(3 3.98599e-17 0)
(3 -4.48842e-16 0)
(3 -9.8946e-16 0)
(3 -2.28178e-15 0)
(3 -2.6219e-15 0)
(3 -2.51882e-15 0)
(3 -1.99867e-15 0)
(3 -1.04313e-15 0)
(3 -6.1351e-16 0)
(3 -5.0703e-16 0)
(3 -1.11792e-15 0)
(3 -1.51098e-15 0)
(3 -1.56427e-15 0)
(3 -1.85241e-15 0)
(3 -2.17824e-15 0)
(3 -1.235e-15 0)
(3 -4.09862e-17 0)
(3 6.66303e-16 0)
(3 1.88165e-16 0)
(3 -1.26627e-15 0)
(3 -1.72968e-15 0)
(3 -2.00843e-15 0)
(3 -1.95269e-15 0)
(3 -2.2559e-15 0)
(3 -4.16343e-15 0)
(3 -4.82612e-16 0)
(3 -4.07522e-13 0)
(3.00757 0.00238273 0)
(1.45427 0.371707 0)
(0.802182 0.326685 0)
(0.7661 0.354599 0)
(0.743455 0.361857 0)
(0.722591 0.36158 0)
(0.704297 0.363226 0)
(0.686898 0.367224 0)
(0.669799 0.374866 0)
(0.655189 0.38559 0)
(0.64188 0.391872 0)
(0.631253 0.389605 0)
(0.623176 0.382752 0)
(0.619004 0.37386 0)
(0.609328 0.371563 0)
(0.595754 0.376115 0)
(0.578373 0.388849 0)
(0.554795 0.403521 0)
(0.531806 0.413062 0)
(0.511875 0.416512 0)
(0.494635 0.421184 0)
(0.479502 0.429568 0)
(0.46648 0.442129 0)
(0.451862 0.453866 0)
(0.434584 0.463264 0)
(0.415126 0.471232 0)
(0.395182 0.47867 0)
(0.377187 0.485939 0)
(0.36321 0.495712 0)
(0.352231 0.506286 0)
(0.339669 0.517435 0)
(0.320946 0.530246 0)
(0.294648 0.543672 0)
(0.261379 0.556904 0)
(0.224334 0.572166 0)
(0.188355 0.588148 0)
(0.154379 0.607024 0)
(0.120508 0.62871 0)
(0.0864607 0.647189 0)
(0.0533381 0.653034 0)
(0.0166631 0.65787 0)
(3 -4.98467e-17 0)
(3 -5.94718e-17 0)
(3 -1.06877e-16 0)
(3 -6.53604e-17 0)
(3 -1.51876e-16 0)
(3 -2.27015e-16 0)
(3 -2.51212e-16 0)
(3 -2.588e-16 0)
(3 -2.74684e-16 0)
(3 3.20077e-16 0)
(3 4.19379e-16 0)
(3 4.97215e-16 0)
(3 4.5799e-16 0)
(3 6.4384e-16 0)
(3 1.8404e-16 0)
(3 -5.15827e-16 0)
(3 -7.99715e-16 0)
(3 -8.40865e-16 0)
(3 -4.0224e-16 0)
(3 -3.29447e-16 0)
(3 -5.95951e-16 0)
(3 1.11086e-16 0)
(3 8.82343e-16 0)
(3 1.02551e-15 0)
(3 1.76827e-15 0)
(3 1.83667e-15 0)
(3 1.88438e-15 0)
(3 1.56747e-15 0)
(3 8.85171e-16 0)
(3 4.19396e-16 0)
(3 -2.92934e-16 0)
(3 -2.90666e-15 0)
(3 -3.12857e-15 0)
(3 -2.92398e-15 0)
(3 -2.98613e-15 0)
(3 -3.12052e-15 0)
(3 -2.06468e-15 0)
(3 -1.90237e-15 0)
(3 -1.83572e-15 0)
(3 -1.71777e-15 0)
(3 -2.03674e-15 0)
(3 -1.45011e-15 0)
(3 -7.84326e-16 0)
(3 -9.2172e-16 0)
(3 -1.00418e-15 0)
(3 -3.09417e-16 0)
(3 -1.08658e-15 0)
(3 -2.70025e-15 0)
(3 -2.7228e-15 0)
(3 -2.63071e-15 0)
(3 -1.83397e-15 0)
(3 -1.60647e-15 0)
(3 -2.65889e-15 0)
(3 8.7534e-16 0)
(3 -1.59525e-13 0)
(3.00002 6.44179e-06 0)
(2.4484 0.278345 0)
(0.921815 0.377917 0)
(0.784159 0.396609 0)
(0.771066 0.392965 0)
(0.75043 0.394317 0)
(0.733407 0.393657 0)
(0.717952 0.395896 0)
(0.702937 0.40132 0)
(0.688882 0.410703 0)
(0.675332 0.419002 0)
(0.662666 0.421645 0)
(0.652985 0.41806 0)
(0.646392 0.413523 0)
(0.637376 0.412418 0)
(0.624498 0.418991 0)
(0.608048 0.433359 0)
(0.585341 0.450775 0)
(0.561072 0.46259 0)
(0.540563 0.466334 0)
(0.524183 0.470613 0)
(0.511958 0.477194 0)
(0.503123 0.487634 0)
(0.492325 0.497302 0)
(0.477831 0.506062 0)
(0.459017 0.515757 0)
(0.437661 0.527321 0)
(0.416689 0.540198 0)
(0.399877 0.555702 0)
(0.388443 0.571801 0)
(0.378101 0.587024 0)
(0.363417 0.602824 0)
(0.341437 0.620035 0)
(0.311859 0.637632 0)
(0.27786 0.657813 0)
(0.244939 0.679664 0)
(0.214221 0.701901 0)
(0.183112 0.727931 0)
(0.146348 0.75887 0)
(0.0986486 0.787241 0)
(0.0366397 0.808617 0)
(3 -1.1282e-16 0)
(3 -6.92195e-17 0)
(3 -8.93856e-17 0)
(3 -1.27788e-16 0)
(3 3.23173e-16 0)
(3 5.54346e-16 0)
(3 9.53828e-16 0)
(3 9.93563e-16 0)
(3 9.05332e-16 0)
(3 9.49418e-16 0)
(3 8.71058e-16 0)
(3 4.89105e-16 0)
(3 -1.03473e-16 0)
(3 -6.51727e-16 0)
(3 -9.60504e-16 0)
(3 -1.05395e-15 0)
(3 -1.0505e-15 0)
(3 -7.9822e-16 0)
(3 -8.65935e-16 0)
(3 -1.25913e-15 0)
(3 -1.62852e-15 0)
(3 -2.2292e-15 0)
(3 -7.14448e-16 0)
(3 2.27171e-16 0)
(3 8.54071e-17 0)