/*--------------------------------*- C++ -*----------------------------------*\
  =========                 |
  \\      /  F ield         | OpenFOAM: The Open Source CFD Toolbox
   \\    /   O peration     | Website:  https://openfoam.org
    \\  /    A nd           | Version:  7
     \\/     M anipulation  |
\*---------------------------------------------------------------------------*/
FoamFile
{
    version     2.0;
    format      ascii;
    class       volScalarField;
    location    "17";
    object      p;
}
// * * * * * * * * * * * * * * * * * * * * * * * * * * * * * * * * * * * * * //

dimensions      [0 2 -2 0 0 0 0];

internalField   nonuniform List<scalar> 
16000
(
8.1741693e-06
-0.00013227947
-0.00044374418
-0.00084600031
-0.0012640717
-0.0016525872
-0.0019806865
-0.00222954
-0.002388515
-0.0024519088
-0.002416783
-0.0022816839
-0.0020460436
-0.0017101067
-0.0012752292
-0.00074441801
-0.00012298337
0.00058081034
0.0013551908
0.0021845102
0.0030491475
0.0039257493
0.0047878379
0.0056068251
0.0063533868
0.0069991428
0.0075185382
0.0078907841
0.0081016898
0.0081452161
0.0080245954
0.0077529205
0.007353181
0.006857816
0.0063076807
0.0057502803
0.0052406425
0.0048350392
0.0045951725
0.0045563967
0.00015256913
7.6447769e-06
-0.00024238948
-0.00055117641
-0.00087324826
-0.0011743125
-0.001430134
-0.0016245402
-0.0017471744
-0.0017915966
-0.0017538685
-0.0016316293
-0.001423627
-0.001129631
-0.00075063154
-0.00028923243
0.00024985802
0.0008593312
0.001528857
0.0022448064
0.0029901832
0.0037449632
0.0044864433
0.0051902728
0.0058316029
0.0063865349
0.0068337393
0.0071561117
0.007342321
0.0073880949
0.0072971068
0.007081369
0.0067610886
0.006364018
0.005924357
0.0054811035
0.0050754158
0.0047507077
0.0045521586
0.0045167406
0.00047110235
0.0002532541
-2.513579e-06
-0.00028146709
-0.00056159562
-0.00081840745
-0.001034121
-0.001196683
-0.00129789
-0.0013322248
-0.0012959721
-0.0011866009
-0.0010024726
-0.00074283345
-0.00040802939
1.2393861e-07
0.00047789057
0.0010191563
0.0016150324
0.0022535916
0.0029198349
0.0035958099
0.0042611554
0.0048938747
0.0054714321
0.0059721004
0.0063764723
0.0066690102
0.006839489
0.0068841772
0.0068066157
0.0066178916
0.006336358
0.0059868166
0.0055992427
0.005207073
0.0048449007
0.0045469614
0.0043495729
0.00428229
0.00089259962
0.0005614097
0.00026080393
-2.4882406e-05
-0.00029537221
-0.00053440174
-0.00073041116
-0.00087618864
-0.00096666285
-0.00099814117
-0.00096781469
-0.0008733993
-0.00071302418
-0.00048535125
-0.00018987243
0.00017266974
0.00059979657
0.0010868004
0.001626308
0.0022079741
0.0028183731
0.0034410595
0.0040570707
0.0046456167
0.0051851361
0.0056546161
0.0060350927
0.0063112057
0.0064726525
0.0065153712
0.006442298
0.0062635825
0.0059962065
0.005663027
0.0052913176
0.0049109614
0.0045526251
0.00424623
0.0040183001
0.0038827377
0.0013432674
0.00088370523
0.0005206567
0.00021044751
-6.714841e-05
-0.00030309012
-0.00049170426
-0.00063073045
-0.00071851066
-0.0007534808
-0.00073398165
-0.00065811467
-0.00052379841
-0.00032902263
-7.2254608e-05
0.00024705162
0.0006278922
0.0010671451
0.001559054
0.0020948337
0.0026624622
0.0032467126
0.0038295097
0.0043906097
0.0049086277
0.0053623648
0.0057323513
0.0060024697
0.0061614904
0.0062043309
0.0061328625
0.0059561263
0.0056898937
0.0053555916
0.0049786634
0.0045866444
0.0042077996
0.0038693009
0.0035866608
0.0033630383
0.0017699875
0.001177002
0.00074246325
0.00039652694
0.00010007867
-0.0001440956
-0.00033568764
-0.00047715169
-0.00057017631
-0.00061533709
-0.00061214613
-0.00055908074
-0.00045378773
-0.00029346939
-7.5407216e-05
0.0002024206
0.00054067034
0.00093795785
0.0013902334
0.0018902733
0.0024273578
0.0029872144
0.0035522691
0.0041022891
0.0046153915
0.0050694028
0.0054434819
0.0057198634
0.0058855377
0.0059336585
0.0058644724
0.0056856106
0.0054116587
0.0050630116
0.0046640684
0.0042411766
0.0038217475
0.0034322894
0.0030797733
0.0027524918
0.0021275622
0.0014027637
0.00089331707
0.00050520497
0.00018205057
-7.8811485e-05
-0.00028189464
-0.00043398066
-0.00053985
-0.00060204594
-0.00062111901
-0.00059579777
-0.00052332198
-0.00039995223
-0.00022161021
1.5388044e-05
0.00031354338
0.00067337305
0.001092655
0.0015657835
0.002083312
0.0026317797
0.0031938467
0.0037488832
0.0042739535
0.0047452146
0.0051396401
0.0054369253
0.0056213714
0.0056835169
0.0056212788
0.0054404094
0.0051541621
0.004782147
0.0043483947
0.003879163
0.0034025057
0.002946085
0.0025099049
0.0020683965
0.0023774391
0.0015262461
0.00094232787
0.00050927878
0.00015481332
-0.00012862186
-0.00034989136
-0.00051968007
-0.0006455167
-0.0007316353
-0.00077939324
-0.00078756435
-0.00075278692
-0.00067018656
-0.00053412708
-0.00033905697
-8.0420837e-05
0.00024440623
0.00063521803
0.0010881782
0.0015952038
0.0021436549
0.0027163148
0.0032919052
0.0038460187
0.0043525457
0.0047855053
0.0051211382
0.0053400538
0.0054291695
0.0053831677
0.0052052318
0.0049069177
0.0045071012
0.004029965
0.0035026687
0.0029553304
0.0024185076
0.0018871745
0.001324714
0.0024858222
0.0015157673
0.00086020485
0.000381876
-6.3031051e-06
-0.0003164015
-0.00056125231
-0.00075503905
-0.0009076747
-0.001024766
-0.0011081983
-0.001156543
-0.0011656086
-0.0011291645
-0.0010397913
-0.00088983315
-0.00067242658
-0.00038256846
-1.8168469e-05
0.00041897943
0.00092239521
0.0014804428
0.0020760945
0.0026873454
0.0032880434
0.0038493119
0.0043414753
0.0047363554
0.0050097312
0.0051436793
0.005128474
0.0049637501
0.0046587223
0.0042313418
0.0037062734
0.0031124383
0.0024833694
0.0018542199
0.001216391
0.00052299359
0.0024222498
0.0013422578
0.0006193944
9.6961369e-05
-0.00032594463
-0.00066566129
-0.00093868396
-0.0011623313
-0.0013485551
-0.00150402
-0.0016308552
-0.0017271725
-0.001787712
-0.0018046522
-0.0017685452
-0.0016693599
-0.0014976168
-0.0012455836
-0.00090848243
-0.00048565059
1.8443844e-05
0.0005935823
0.0012231727
0.0018846163
0.0025499203
0.0031870616
0.0037619703
0.0042410279
0.0045938828
0.0047962887
0.0048325972
0.004697532
0.0043969484
0.0039473602
0.0033740005
0.0027082511
0.0019883445
0.0012557181
0.00049933115
-0.00033769366
0.002158957
0.0009790928
0.00019430714
-0.00037010703
-0.00082791911
-0.0011995579
-0.0015049308
-0.0017641738
-0.0019909703
-0.0021927591
-0.0023716532
-0.0025250663
-0.0026464433
-0.0027261409
-0.0027524273
-0.0027125961
-0.0025941896
-0.0023863111
-0.0020809845
-0.0016745158
-0.0011687577
-0.00057182615
0.00010057732
0.0008256555
0.0015737113
0.0023093701
0.002993555
0.0035861551
0.0040492243
0.0043504112
0.0044662132
0.0043845896
0.0041065164
0.0036461097
0.0030289149
0.0022892606
0.0014712932
0.0006244523
-0.00026391854
-0.0012609505
0.0016707588
0.00040216395
-0.00043840113
-0.0010420946
-0.001534539
-0.0019401031
-0.0022818918
-0.0025825809
-0.002857325
-0.0031141016
-0.0033547943
-0.0035759221
-0.0037694412
-0.003923677
-0.0040243648
-0.0040558069
-0.0040021609
-0.0038488506
-0.00358407
-0.0032003178
-0.0026958867
-0.0020763916
-0.0013553511
-0.000555172
0.00029315346
0.0011509514
0.001973694
0.0027137632
0.003324024
0.0037619272
0.0039937025
0.003998083
0.0037689836
0.0033165434
0.0026658716
0.0018544193
0.00093337221
-3.8033611e-05
-0.0010734896
-0.0022511719
0.00093526309
-0.00040985789
-0.0012994554
-0.0019393804
-0.002465974
-0.00290739
-0.0032897337
-0.0036379784
-0.0039685405
-0.0042897608
-0.0046031434
-0.0049041766
-0.0051831879
-0.005426305
-0.0056165066
-0.0057347928
-0.005761506
-0.0056778135
-0.0054673397
-0.0051178931
-0.0046232344
-0.0039850029
-0.003213691
-0.0023301709
-0.0013658815
-0.0003623726
0.00063022732
0.0015559353
0.0023567939
0.0029776876
0.0033716473
0.0035049937
0.0033615544
0.0029450699
0.0022787576
0.0014029003
0.00037669427
-0.00072891821
-0.0019282299
-0.0033116724
-6.6703286e-05
-0.0014751258
-0.0024065152
-0.0030794125
-0.0036395868
-0.0041187972
-0.0045459612
-0.0049481396
-0.0053428551
-0.0057387054
-0.0061367399
-0.0065313564
-0.0069111868
-0.0072600573
-0.007558017
-0.0077824845
-0.0079095625
-0.0079155559
-0.0077787045
-0.0074811019
-0.0070107621
-0.0063638062
-0.0055462896
-0.0045760211
-0.0034835643
-0.0023124207
-0.0011180117
3.4790746e-05
0.0010756966
0.0019344903
0.0025475776
0.002864873
0.0028560545
0.0025149313
0.0018603748
0.00093449887
-0.00019480477
-0.0014428641
-0.0028241864
-0.0044429577
-0.0013505581
-0.0028081547
-0.0037736977
-0.0044761595
-0.0050692758
-0.0055881983
-0.0060644741
-0.0065270757
-0.0069945363
-0.0074756792
-0.0079711106
-0.0084741661
-0.0089718042
-0.0094455308
-0.0098723684
-0.010225937
-0.01047772
-0.010598569
-0.0105605
-0.010338777
-0.0099142506
-0.0092759275
-0.0084234897
-0.007369734
-0.0061424734
-0.0047856021
-0.0033588795
-0.001936024
-0.00060079838
0.00055899621
0.0014593447
0.0020289422
0.002218054
0.0020056139
0.0014023205
0.00045005523
-0.00077443309
-0.0021706763
-0.0037529789
-0.0056409297
-0.0029273986
-0.0044193632
-0.0054111301
-0.0061396047
-0.006764868
-0.0073252152
-0.0078546511
-0.0083839261
-0.0089325553
-0.0095096426
-0.010115455
-0.010742395
-0.011375871
-0.011995152
-0.012574239
-0.01308283
-0.013487491
-0.013753104
-0.013844664
-0.013729475
-0.013379752
-0.012775569
-0.011908057
-0.010782602
-0.0094217915
-0.0078676085
-0.0061823578
-0.0044477211
-0.0027613755
-0.0012308084
3.564811e-05
0.00093996071
0.0014064363
0.0013924835
0.00089498404
-4.8023185e-05
-0.001351676
-0.0028977818
-0.0046999689
-0.0068948824
-0.0048034884
-0.0063146888
-0.0073245925
-0.0080753416
-0.0087316125
-0.0093345658
-0.0099205132
-0.010521907
-0.011159297
-0.011842217
-0.012570803
-0.013336759
-0.01412418
-0.014910294
-0.015666201
-0.01635768
-0.016946211
-0.017390304
-0.017647249
-0.017675356
-0.017436751
-0.016900698
-0.016047425
-0.014872155
-0.01338921
-0.011635574
-0.0096733107
-0.0075900694
-0.0054967941
-0.0035219132
-0.001801625
-0.00046657417
0.00037384372
0.00064694639
0.00032785371
-0.00055501237
-0.0019108942
-0.0036024306
-0.005642108
-0.0081851538
-0.0069798729
-0.0084953464
-0.0095153173
-0.010284334
-0.01096984
-0.01161557
-0.012260035
-0.012937394
-0.01366939
-0.014466242
-0.015328276
-0.016246847
-0.017205081
-0.018178482
-0.019135496
-0.020038124
-0.020842746
-0.021501276
-0.021962791
-0.022175755
-0.022090917
-0.021664943
-0.020864768
-0.019672534
-0.018090822
-0.016147798
-0.013901455
-0.011442079
-0.0088917496
-0.0063996906
-0.0041325328
-0.002259213
-0.00093142177
-0.00026243674
-0.00030957665
-0.0010627051
-0.0024296481
-0.0042534938
-0.0065453367
-0.009480287
-0.0094521941
-0.010957805
-0.011980016
-0.01276291
-0.013474853
-0.014161878
-0.01486467
-0.015619222
-0.016448752
-0.017364562
-0.018367604
-0.01944935
-0.020592409
-0.021770987
-0.022951243
-0.024091683
-0.025143739
-0.026052706
-0.026759187
-0.027201211
-0.027317151
-0.027049533
-0.02634982
-0.025184197
-0.023539822
-0.021431704
-0.018908976
-0.016059819
-0.013013516
-0.0099379748
-0.0070310584
-0.0045046183
-0.002561376
-0.0013673373
-0.0010259112
-0.001557569
-0.0028764705
-0.0048077115
-0.0073613896
-0.010733547
-0.012210781
-0.013694054
-0.014711209
-0.01550305
-0.016237108
-0.016961491
-0.017719166
-0.018548265
-0.019473955
-0.020509166
-0.021656057
-0.022906789
-0.024244005
-0.025641124
-0.027062487
-0.028463501
-0.029790963
-0.030983731
-0.031973934
-0.032688914
-0.033054053
-0.032996608
-0.032450743
-0.03136437
-0.029705469
-0.027471384
-0.024696945
-0.021462217
-0.017897848
-0.014185885
-0.010553639
-0.0072583541
-0.0045615502
-0.0026949339
-0.0018244895
-0.0020179043
-0.00320787
-0.0052062239
-0.0080238544
-0.011878641
-0.015241074
-0.016692237
-0.017697919
-0.018493046
-0.019242748
-0.019997104
-0.020801699
-0.021697375
-0.022711963
-0.023860778
-0.025147919
-0.026566913
-0.028101063
-0.029723567
-0.031397465
-0.033075541
-0.034700378
-0.036204754
-0.037512584
-0.038540605
-0.03920103
-0.039405255
-0.03906889
-0.03812015
-0.036504262
-0.034196736
-0.031212485
-0.027616587
-0.023533493
-0.019152246
-0.01472457
-0.010552258
-0.0069609516
-0.0042605027
-0.0026980433
-0.0024096245
-0.0033643148
-0.0053702035
-0.0084433308
-0.012824508
-0.018524446
-0.019937713
-0.020926813
-0.021718567
-0.022474503
-0.023246802
-0.024084351
-0.025031664
-0.026120295
-0.027368961
-0.028784608
-0.03036291
-0.032088489
-0.033934895
-0.035864377
-0.037827573
-0.039763319
-0.041598777
-0.043250089
-0.044623785
-0.045619166
-0.046131987
-0.046059626
-0.045306325
-0.043795492
-0.041476586
-0.038339203
-0.034426349
-0.029847579
-0.024789449
-0.019519513
-0.014378965
-0.0097587918
-0.0060569737
-0.003620912
-0.0026802652
-0.0032649208
-0.0051953921
-0.0085015281
-0.013449035
-0.022039475
-0.023414637
-0.024383842
-0.025164181
-0.025912993
-0.02668509
-0.027533896
-0.028509127
-0.029647581
-0.03097273
-0.03249547
-0.034214478
-0.036116352
-0.038175505
-0.040353817
-0.042600169
-0.044850059
-0.047025495
-0.049035385
-0.050776649
-0.052136304
-0.052994818
-0.053230922
-0.052727746
-0.051382898
-0.049118073
-0.045893585
-0.041723949
-0.036694907
-0.03097951
-0.024849357
-0.018675101
-0.012908718
-0.0080415509
-0.0045385555
-0.0027508755
-0.002800567
-0.0045453356
-0.0080441322
-0.0135916
-0.025763764
-0.027108178
-0.028056499
-0.028815389
-0.0295384
-0.030284198
-0.031112816
-0.032081504
-0.033234451
-0.034601631
-0.0361992
-0.038029742
-0.040082417
-0.042332858
-0.044742813
-0.047259607
-0.049815638
-0.0523281
-0.054699154
-0.056816773
-0.058556523
-0.059784535
-0.060361904
-0.060150793
-0.059023911
-0.056874007
-0.053629562
-0.049271675
-0.043854297
-0.03752569
-0.03054758
-0.023305698
-0.016302239
-0.0101202
-0.0053544949
-0.0025056085
-0.0018251943
-0.0032430992
-0.0068722433
-0.013044287
-0.02967643
-0.03100756
-0.031936816
-0.032661193
-0.033332475
-0.034015557
-0.03478041
-0.035695261
-0.036814618
-0.038177165
-0.039805808
-0.041707916
-0.04387562
-0.046285882
-0.048900254
-0.051664395
-0.054507553
-0.057342197
-0.060064035
-0.062552642
-0.064672956
-0.06627788
-0.067212258
-0.067318561
-0.066445635
-0.064458146
-0.061251985
-0.056772019
-0.051034472
-0.044152821
-0.036364593
-0.028053166
-0.019754026
-0.012131704
-0.0059154338
-0.0017791118
-0.00014512027
-0.0010612216
-0.0047321129
-0.011541591
-0.033761529
-0.035110239
-0.036025339
-0.036697292
-0.03728081
-0.037851297
-0.03849382
-0.039292492
-0.04031601
-0.041614433
-0.043218989
-0.045142546
-0.047380305
-0.049910268
-0.052693303
-0.055672873
-0.05877462
-0.061906009
-0.064956268
-0.067796842
-0.070282678
-0.072254467
-0.073542278
-0.073970849
-0.073365948
-0.071566979
-0.068438093
-0.063887445
-0.057890409
-0.05051841
-0.04197212
-0.032614362
-0.022992477
-0.013833924
-0.0059960919
-0.00034227738
0.0024936634
0.0022903786
-0.001302753
-0.0087482377
-0.038012923
-0.039427793
-0.040336448
-0.04093001
-0.041375304
-0.041765579
-0.042208749
-0.042811581
-0.043661818
-0.04482388
-0.046338773
-0.048225187
-0.050480969
-0.053084302
-0.055994324
-0.059151239
-0.062476137
-0.065870748
-0.069217374
-0.07237921
-0.07520149
-0.077513408
-0.07913132
-0.079863472
-0.079516367
-0.077904854
-0.0748641
-0.070267324
-0.064048918
-0.056234651
-0.046979226
-0.036608668
-0.02565912
-0.014895606
-0.0052861427
0.0021125282
0.0064200172
0.0071789382
0.0038193437
-0.0042443338
-0.042441622
-0.043994536
-0.044905672
-0.045381154
-0.045616704
-0.045735541
-0.04587969
-0.046187454
-0.046771339
-0.047713082
-0.0490644
-0.050849386
-0.053067302
-0.055694882
-0.058687796
-0.061981305
-0.065490464
-0.06911004
-0.072714528
-0.076158288
-0.079276692
-0.081887681
-0.083794616
-0.08479054
-0.084664178
-0.0832086
-0.08023281
-0.075578089
-0.069140163
-0.060899247
-0.050959594
-0.039598543
-0.027319866
-0.014897449
-0.0033824924
0.005984826
0.012053595
0.014066454
0.011139757
0.0024938629
-0.047087562
-0.048880652
-0.049800025
-0.050094106
-0.050017139
-0.049741659
-0.049459472
-0.049351384
-0.04956067
-0.050188618
-0.051297418
-0.052914894
-0.055039332
-0.057643395
-0.060676739
-0.064067336
-0.067722168
-0.071527319
-0.075348507
-0.079029713
-0.08239617
-0.085254256
-0.087394442
-0.088595176
-0.088628587
-0.087267641
-0.084297877
-0.079531965
-0.072830566
-0.064131199
-0.053487623
-0.041122201
-0.027490031
-0.013346069
0.00020901631
0.011775007
0.019921267
0.023531338
0.021292513
0.012121224
-0.052039756
-0.054212991
-0.055132993
-0.055141548
-0.054602473
-0.053767261
-0.05289804
-0.052230377
-0.051943373
-0.052158165
-0.052945071
-0.054332059
-0.056312479
-0.058851075
-0.061888258
-0.065341422
-0.069107112
-0.073060494
-0.077058494
-0.080930716
-0.084492911
-0.087539
-0.089846036
-0.091177715
-0.091290586
-0.089937167
-0.086881542
-0.081910436
-0.074852792
-0.065607249
-0.054179846
-0.040736634
-0.025673896
-0.0097042859
0.0060573802
0.020084253
0.030671949
0.036295414
0.035077731
0.025466795
-0.057472552
-0.060208967
-0.061086491
-0.060635121
-0.059414087
-0.057796847
-0.056140338
-0.054746229
-0.053831245
-0.053532906
-0.053923929
-0.055026185
-0.056822171
-0.059263431
-0.062277769
-0.065767055
-0.069615762
-0.073686221
-0.07782071
-0.081839841
-0.085544737
-0.088716373
-0.091117907
-0.092497759
-0.092594481
-0.09114288
-0.087884542
-0.082580663
-0.075030321
-0.065095935
-0.052738609
-0.038068999
-0.021419019
-0.0034410902
0.014769444
0.031598288
0.04508551
0.053257301
0.053517453
0.04360788
-0.06371365
-0.067232799
-0.067942719
-0.066736655
-0.064508939
-0.061812283
-0.059122734
-0.056813882
-0.055134874
-0.05422981
-0.054163214
-0.054941255
-0.056527595
-0.058854409
-0.061829633
-0.065339556
-0.069251417
-0.073412757
-0.07765141
-0.081774902
-0.085570343
-0.088804723
-0.091226329
-0.092567345
-0.092548096
-0.090883312
-0.08729124
-0.081506513
-0.07329719
-0.062488674
-0.048996871
-0.03287556
-0.014386465
0.0058946446
0.026924211
0.047044703
0.06406752
0.075531227
0.077939273
0.068004803
-0.071376242
-0.075889307
-0.07612849
-0.073668683
-0.069954948
-0.06578447
-0.061766158
-0.058337537
-0.055762444
-0.054172257
-0.053606282
-0.054041613
-0.055412153
-0.057623545
-0.060559365
-0.064085025
-0.068048901
-0.072281916
-0.076596627
-0.080786089
-0.084623171
-0.087860341
-0.090230448
-0.091448738
-0.091216497
-0.089226659
-0.085171945
-0.078757532
-0.069716224
-0.05783101
-0.04296565
-0.02510877
-0.0044401787
0.018568898
0.04296358
0.067103873
0.088609808
0.10448242
0.1101039
0.10075943
-0.081627424
-0.087177953
-0.086266787
-0.081713231
-0.075811999
-0.069652584
-0.063959321
-0.059198766
-0.055611786
-0.053284685
-0.052206882
-0.05230777
-0.053480347
-0.055594883
-0.058505753
-0.062054079
-0.066067784
-0.070360222
-0.074728315
-0.078950664
-0.082786104
-0.085972838
-0.088228513
-0.089251496
-0.088723748
-0.086315375
-0.081691187
-0.074523186
-0.064502293
-0.051359025
-0.034890492
-0.01499926
0.0082467976
0.03451323
0.063011312
0.09222392
0.11965811
0.14172089
0.15240284
0.14512275
-0.096756458
-0.10273501
-0.099195088
-0.091152854
-0.082060644
-0.073260093
-0.065506808
-0.059216156
-0.054539277
-0.051468192
-0.049908494
-0.049720643
-0.050742734
-0.052802116
-0.055719848
-0.059310938
-0.063382424
-0.067730456
-0.072137191
-0.076367931
-0.080168807
-0.083265175
-0.085360899
-0.086138784
-0.085262547
-0.082379691
-0.077126174
-0.069137479
-0.05805554
-0.043545568
-0.02531682
-0.0031530078
0.023038816
0.053138934
0.086630876
0.12228058
0.1577786
0.18894962
0.20809591
0.2063255
-0.12133674
-0.12518454
-0.11587061
-0.10207921
-0.08841592
-0.076197436
-0.066005279
-0.058051907
-0.052290907
-0.048549508
-0.046607132
-0.04623108
-0.047192077
-0.049269178
-0.052248696
-0.055920266
-0.060071878
-0.064484832
-0.068929107
-0.07315939
-0.076911892
-0.079901979
-0.081822673
-0.08234417
-0.08111494
-0.077761578
-0.071893982
-0.063109443
-0.05099625
-0.035142762
-0.015147168
0.0093671235
0.038723039
0.073126951
0.11251686
0.15625966
0.20262806
0.24752049
0.2812984
0.29235385
-0.16445482
-0.15843064
-0.13714645
-0.11415605
-0.094106519
-0.077630981
-0.064738045
-0.055162107
-0.048490119
-0.044291428
-0.042172186
-0.041786058
-0.042830305
-0.045036716
-0.048160994
-0.051972572
-0.056245667
-0.060751737
-0.065253254
-0.069498698
-0.073218636
-0.076122735
-0.077897665
-0.078206079
-0.07668686
-0.072945034
-0.066575904
-0.057139793
-0.044172463
-0.027181359
-0.0056378356
0.021032832
0.053461627
0.09232874
0.13829315
0.1918237
0.25266484
0.31750837
0.3762656
0.41536768
-0.24629211
-0.20631614
-0.16212875
-0.12552795
-0.097143361
-0.075878456
-0.060488231
-0.04975317
-0.042660963
-0.038436569
-0.036490147
-0.036364484
-0.037695651
-0.040182618
-0.043563893
-0.047600115
-0.052061159
-0.056716449
-0.061327569
-0.065642585
-0.069391682
-0.072283882
-0.074004702
-0.074215531
-0.072554906
-0.068602836
-0.061959871
-0.052154998
-0.03868294
-0.020982015
0.0015945617
0.02982346
0.0646841
0.10746223
0.1598682
0.22417483
0.30290244
0.3955292
0.49624047
0.60320928
-0.425437
-0.26572823
-0.17721979
-0.12463501
-0.089116325
-0.06510307
-0.049324705
-0.039186362
-0.032984672
-0.029674737
-0.028570844
-0.029186199
-0.031155477
-0.03418771
-0.038034589
-0.04246953
-0.047273695
-0.052226189
-0.05709688
-0.061641005
-0.065595067
-0.068673661
-0.070566747
-0.070936212
-0.069404256
-0.065626887
-0.059130321
-0.049451698
-0.036074531
-0.018403826
0.0042704741
0.03284575
0.068540661
0.11313969
0.16943399
0.24201436
0.33806316
0.46591287
0.64305167
0.92085923
-0.79331074
-0.3244399
-0.14899547
-0.087724058
-0.055345211
-0.035999601
-0.025092149
-0.019201865
-0.016356389
-0.015619698
-0.016494439
-0.01865358
-0.021851902
-0.025886406
-0.03057255
-0.03573012
-0.041174605
-0.046711255
-0.052130531
-0.057204472
-0.06168375
-0.065295301
-0.067740657
-0.068696219
-0.067820488
-0.064704694
-0.058939385
-0.050070964
-0.037592821
-0.020927468
0.00060957279
0.027879556
0.06205666
0.1049108
0.15944843
0.23152489
0.33384824
0.49408896
0.79001309
1.383775
1.1386281e-05
-0.00013145282
-0.00044355799
-0.00084598966
-0.0012642398
-0.0016528768
-0.001981056
-0.002229965
-0.0023889783
-0.0024523968
-0.0024172848
-0.0022821892
-0.0020465421
-0.0017105876
-0.0012756817
-0.00074483159
-0.00012334703
0.00058050812
0.0013549615
0.0021843643
0.0030490937
0.0039257937
0.0047879836
0.0056070719
0.0063537298
0.0069995718
0.0075190374
0.0078913322
0.0081022614
0.0081457841
0.0080251325
0.0077533998
0.0073535764
0.0068581036
0.0063078472
0.0057503382
0.0052405802
0.0048348283
0.0045947979
0.0045562425
0.00015330027
8.058851e-06
-0.00024201917
-0.00055076655
-0.00087279101
-0.0011737967
-0.0014295642
-0.0016239301
-0.0017465399
-0.0017909537
-0.0017532329
-0.0016310156
-0.0014230488
-0.001129101
-0.00075016271
-0.00028883823
0.0002501649
0.00085953997
0.0015289587
0.0022447942
0.0029900523
0.0037447099
0.0044860693
0.0051897846
0.0058310117
0.0063858564
0.0068329928
0.0071553198
0.0073415085
0.0073872885
0.0072963346
0.0070806584
0.0067604628
0.0063634932
0.0059239435
0.0054808114
0.0050752649
0.0047506231
0.0045520319
0.0045168259
0.00047150049
0.00025344924
-2.2644273e-06
-0.000281258
-0.00056144927
-0.00081829361
-0.0010340266
-0.0011966041
-0.0012978242
-0.0013321711
-0.0012959298
-0.0011865704
-0.0010024545
-0.00074282826
-0.00040803767
1.0149413e-07
0.00047785363
0.0010191051
0.0016149682
0.002253517
0.0029197521
0.003595721
0.0042610621
0.004893779
0.0054713356
0.0059720049
0.006376379
0.0066689194
0.0068393996
0.0068840876
0.0068065251
0.0066178005
0.0063362664
0.005986721
0.0055991361
0.0052069525
0.0048447792
0.0045468305
0.0043493964
0.0042822549
0.00089302466
0.00056141176
0.00026099716
-2.4705733e-05
-0.00029528139
-0.00053435259
-0.00073038788
-0.00087618833
-0.0009666819
-0.00099817647
-0.00096786331
-0.00087345872
-0.00071309279
-0.00048542788
-0.00018995565
0.00017258209
0.0005997071
0.0010867115
0.001626222
0.0022078939
0.0028183014
0.0034409994
0.0040570249
0.0046455865
0.0051851216
0.005654616
0.0060351048
0.006311227
0.0064726788
0.0065153969
0.0064423166
0.0062635883
0.0059961962
0.005662998
0.0052912658
0.0049108795
0.0045525063
0.0042460816
0.0040181448
0.0038825974
0.0013437604
0.00088351087
0.00052082704
0.00021065941
-6.7014848e-05
-0.00030297756
-0.0004915996
-0.00063063827
-0.00071843153
-0.00075341426
-0.00073392753
-0.00065807297
-0.00052376954
-0.00032900764
-7.22545e-05
0.0002470369
0.00062786353
0.0010671032
0.0015589997
0.0020947679
0.0026623863
0.0032466288
0.0038294203
0.0043905171
0.0049085334
0.0053622699
0.0057322565
0.0060023758
0.0061613979
0.0062042399
0.0061327715
0.0059560322
0.005689794
0.0053554869
0.0049785574
0.0045865337
0.004207663
0.0038691674
0.0035866371
0.0033628155
0.0017705796
0.0011766274
0.0007426064
0.0003967477
0.00010020918
-0.00014398076
-0.00033557435
-0.00047704861
-0.00057008506
-0.00061525719
-0.00061207799
-0.00055902514
-0.00045374528
-0.000293441
-7.5393923e-05
0.00020241849
0.00054065314
0.00093792583
0.0013901869
0.0018902131
0.002427285
0.0029871308
0.0035521769
0.0041021907
0.0046152886
0.0050692969
0.0054433741
0.0057197551
0.0058854301
0.0059335525
0.0058643684
0.005685507
0.0054115517
0.005062899
0.0046639543
0.0042410588
0.0038215958
0.0034321593
0.0030798347
0.0027521757
0.0021282623
0.0014022292
0.00089344009
0.00050543275
0.00018217038
-7.8706695e-05
-0.00028178773
-0.00043388283
-0.00053976332
-0.00060196975
-0.00062105418
-0.00059574562
-0.00052328319
-0.0003999271
-0.00022159894
1.5385409e-05
0.00031352682
0.00067334247
0.0010926106
0.0015657261
0.0020832426
0.0026316997
0.0031937584
0.0037487889
0.0042738552
0.0047451138
0.0051395383
0.0054368239
0.0056212709
0.0056834172
0.0056211801
0.0054403114
0.005154062
0.0047820415
0.0043482865
0.0038790457
0.0034023377
0.0029459547
0.0025100618
0.0020680054
0.0023782471
0.0015255688
0.00094243939
0.00050952002
0.00015492952
-0.00012852007
-0.00034978303
-0.00051957843
-0.00064542464
-0.00073155271
-0.00077932151
-0.00078750512
-0.00075274108
-0.0006701544
-0.00053410854
-0.00033905205
-8.0429928e-05
0.00024438252
0.00063517947
0.0010881253
0.0015951376
0.0021435765
0.0027162262
0.0032918089
0.0038459171
0.0043524408
0.0047853987
0.0051210321
0.0053399494
0.0054290666
0.0053830652
0.0052051291
0.0049068136
0.0045069947
0.0040298596
0.003502552
0.0029551458
0.0024183783
0.0018874321
0.0013242321
0.002486735
0.0015149619
0.0008603094
0.00038213288
-6.1874521e-06
-0.00031629986
-0.00056114014
-0.00075493154
-0.00090757541
-0.0010246753
-0.001108118
-0.0011564747
-0.0011655532
-0.0011291224
-0.0010397626
-0.00088981831
-0.0006724264
-0.00038258393
-1.820018e-05
0.00041893182
0.00092233293
0.0014803665
0.002076006
0.0026872472
0.0032879381
0.0038492018
0.0043413626
0.0047362424
0.0050096203
0.0051435711
0.0051283672
0.0049636429
0.0046586132
0.0042312317
0.0037061693
0.0031123229
0.002483168
0.0018540904
0.0012167516
0.00052241732
0.0024232622
0.0013413374
0.00061949474
9.7234306e-05
-0.00032582812
-0.00066555848
-0.00093856713
-0.0011622177
-0.0013484488
-0.0015039218
-0.0016307668
-0.0017270953
-0.0017876468
-0.0018045996
-0.0017685059
-0.0016693346
-0.0014976067
-0.0012455899
-0.00090850588
-0.00048569102
1.8387861e-05
0.00059350991
0.0012230861
0.001884518
0.0025498131
0.0031869483
0.0037618533
0.0042409094
0.0045937655
0.0047961746
0.0048324862
0.0046974221
0.0043968366
0.0039472476
0.0033738975
0.0027081369
0.0019881253
0.0012555874
0.00049980139
-0.00033836968
0.0021600617
0.00097807081
0.00019440623
-0.00036981689
-0.00082779922
-0.0011994516
-0.0015048078
-0.0017640532
-0.0019908565
-0.0021926527
-0.0023715556
-0.0025249789
-0.002646367
-0.0027260766
-0.0027523759
-0.002712559
-0.0025941682
-0.0023863067
-0.0020809979
-0.0016745468
-0.0011688044
-0.00057189233
0.0001004947
0.00082555909
0.001573604
0.0023092548
0.0029934345
0.0035860319
0.0040491009
0.0043502903
0.0044660963
0.004384476
0.0041064023
0.0036459956
0.0030288134
0.0022891471
0.0014710544
0.00062432014
-0.00026332727
-0.0012617382
0.0016719465
0.00040105366
-0.00043830046
-0.0010417861
-0.001534413
-0.0019399912
-0.0022817612
-0.0025824521
-0.0028572025
-0.0031139855
-0.0033546858
-0.0035758227
-0.0037693521
-0.0039235995
-0.0040243
-0.0040557564
-0.0040021265
-0.0038488336
-0.0035840712
-0.0032003382
-0.0026959277
-0.00207645
-0.001355427
-0.000555264
0.00029304789
0.0011508352
0.0019735704
0.0027136353
0.0033238945
0.0037617988
0.0039935782
0.0039979635
0.003768866
0.0033164279
0.0026657723
0.0018543068
0.00093311114
-3.8167516e-05
-0.0010727609
-0.0022520874
0.00093652416
-0.00041104222
-0.0012993512
-0.0019390537
-0.0024658404
-0.0029072709
-0.0032895943
-0.0036378403
-0.003968408
-0.0042896338
-0.0046030229
-0.004904064
-0.0051830849
-0.0054262132
-0.0056164273
-0.0057347276
-0.0057614565
-0.0056777813
-0.0054673261
-0.0051178995
-0.0046232629
-0.00398505
-0.0032137574
-0.0023302557
-0.0013659826
-0.00036248756
0.0006301018
0.001555803
0.0023566584
0.0029775523
0.0033715155
0.0035048676
0.0033614322
0.0029449529
0.0022786615
0.0014027897
0.00037640756
-0.00072905426
-0.0019273432
-0.0033127358
-6.5380001e-05
-0.0014763689
-0.0024064058
-0.0030790689
-0.0036394449
-0.0041186699
-0.0045458119
-0.0049479908
-0.0053427114
-0.0057385661
-0.0061366063
-0.0065312298
-0.0069110689
-0.00725995
-0.0075579221
-0.0077824032
-0.0079094963
-0.0079155067
-0.0077786741
-0.007481092
-0.0070107739
-0.0063638391
-0.0055463439
-0.0045760962
-0.0034836585
-0.0023125319
-0.0011181369
3.4655487e-05
0.001075556
0.0019343488
0.0025474397
0.0028647413
0.0028559281
0.0025148131
0.0018602835
0.00093439144
-0.00019512129
-0.0014430033
-0.0028231169
-0.0044441935
-0.0013491852
-0.0028094407
-0.0037735817
-0.0044758006
-0.0050691253
-0.0055880619
-0.0060643139
-0.0065269151
-0.0069943798
-0.0074755267
-0.0079709631
-0.008474025
-0.0089716709
-0.0094454073
-0.0098722569
-0.010225839
-0.010477636
-0.010598502
-0.010560452
-0.010338749
-0.0099142452
-0.0092759448
-0.0084235301
-0.0073697973
-0.0061425588
-0.0047857076
-0.0033590024
-0.0019361602
-0.00060094276
0.00055884982
0.0014592022
0.0020288069
0.0022179254
0.002005496
0.0014022362
0.0004499528
-0.00077478407
-0.0021708201
-0.003751698
-0.0056423675
-0.0029259898
-0.0044206763
-0.0054110068
-0.006139232
-0.0067647079
-0.0073250689
-0.0078544792
-0.0083837527
-0.0089323855
-0.0095094762
-0.010115293
-0.010742239
-0.011375722
-0.011995013