/*--------------------------------*- C++ -*----------------------------------*\
  =========                 |
  \\      /  F ield         | OpenFOAM: The Open Source CFD Toolbox
   \\    /   O peration     | Website:  https://openfoam.org
    \\  /    A nd           | Version:  7
     \\/     M anipulation  |
\*---------------------------------------------------------------------------*/
FoamFile
{
    version     2.0;
    format      ascii;
    class       surfaceScalarField;
    location    "17";
    object      phi;
}
// * * * * * * * * * * * * * * * * * * * * * * * * * * * * * * * * * * * * * //

dimensions      [0 3 -1 0 0 0 0];

internalField   nonuniform List<scalar> 
45600
(
2.7516341e-07
-2.820881e-07
-7.7628546e-11
4.0321458e-07
-1.2802284e-07
-2.2318076e-11
1.3241689e-07
2.7080199e-07
-5.0267833e-12
-5.623785e-07
6.9479063e-07
-2.8735184e-13
-1.6392145e-06
1.0768255e-06
4.5375871e-12
-3.0272814e-06
1.3880546e-06
7.8182253e-12
-4.6518196e-06
1.6245273e-06
9.9758793e-12
-6.4441053e-06
1.7922749e-06
1.1475083e-11
-8.3440584e-06
1.8999404e-06
1.250854e-11
-1.0299689e-05
1.955616e-06
1.3175303e-11
-1.2265252e-05
1.9655494e-06
1.3545621e-11
-1.4199039e-05
1.9337734e-06
1.3642312e-11
-1.6061316e-05
1.8622653e-06
1.3460566e-11
-1.7812748e-05
1.75142e-06
1.2983891e-11
-1.9413455e-05
1.6006926e-06
1.2215983e-11
-2.0822784e-05
1.4093147e-06
1.1165839e-11
-2.1999813e-05
1.1770151e-06
9.8181434e-12
-2.2904519e-05
9.0469403e-07
8.1593244e-12
-2.3499537e-05
5.9500719e-07
6.1924708e-12
-2.3752371e-05
2.5282547e-07
3.9401975e-12
-2.3637897e-05
-1.1447936e-07
1.4527184e-12
-2.3140939e-05
-4.9695958e-07
-1.1974693e-12
-2.2258761e-05
-8.8217607e-07
-3.9339507e-12
-2.1003137e-05
-1.255621e-06
-6.6620732e-12
-1.9401779e-05
-1.6013512e-06
-9.2597533e-12
-1.7498919e-05
-1.9028512e-06
-1.1582856e-11
-1.5354813e-05
-2.1440934e-06
-1.3477282e-11
-1.3044089e-05
-2.3107071e-06
-1.4796205e-11
-1.0652913e-05
-2.3911578e-06
-1.543112e-11
-8.275078e-06
-2.3778197e-06
-1.5333602e-11
-6.0072283e-06
-2.2678371e-06
-1.4500571e-11
-3.943523e-06
-2.0636944e-06
-1.2940713e-11
-2.1700211e-06
-1.773491e-06
-1.0673134e-11
-7.5892602e-07
-1.4110855e-06
-7.7646937e-12
2.3776734e-07
-9.9668827e-07
-4.4965839e-12
7.9613017e-07
-5.5836347e-07
-1.5625436e-12
9.2895257e-07
-1.3282685e-07
1.6805816e-12
7.053881e-07
2.2355991e-07
5.6928697e-12
2.9039838e-07
4.149874e-07
1.011272e-11
2.9040276e-07
3.8957277e-12
1.3284186e-07
-4.1490313e-07
-1.9739274e-11
-3.0174024e-07
3.0656574e-07
-1.2009175e-11
-1.6153016e-06
1.5843669e-06
-1.0739875e-11
-3.8742451e-06
2.9537369e-06
-1.1886883e-11
-7.006309e-06
4.2088991e-06
-1.3261383e-11
-1.0877968e-05
5.2597302e-06
-1.4957199e-11
-1.533249e-05
6.0790678e-06
-1.6523542e-11
-2.0212333e-05
6.6721367e-06
-1.7692846e-11
-2.536933e-05
7.0569545e-06
-1.840218e-11
-3.0667446e-05
7.2537485e-06
-1.8646506e-11
-3.598161e-05
7.2797304e-06
-1.8434956e-11
-4.1194815e-05
7.1469966e-06
-1.7798119e-11
-4.6194925e-05
6.8623929e-06
-1.6768344e-11
-5.08721e-05
6.4286089e-06
-1.5370701e-11
-5.5117386e-05
5.8459898e-06
-1.3597112e-11
-5.8822761e-05
5.1146983e-06
-1.1432587e-11
-6.1882692e-05
4.236953e-06
-8.900382e-12
-6.4197128e-05
3.219134e-06
-6.0548149e-12
-6.5675712e-05
2.0735895e-06
-2.9489969e-12
-6.6242874e-05
8.1998071e-07
3.5505484e-13
-6.5843667e-05
-5.1369943e-07
3.796413e-12
-6.4448992e-05
-1.8916501e-06
7.3450629e-12
-6.2061373e-05
-3.2698134e-06
1.0846525e-11
-5.8718887e-05
-4.5981251e-06
1.416009e-11
-5.449794e-05
-5.822318e-06
1.7146917e-11
-4.951396e-05
-6.8868529e-06
1.9679296e-11
-4.3919723e-05
-7.7383554e-06
2.1648067e-11
-3.7901076e-05
-8.3293813e-06
2.2965968e-11
-3.1670044e-05
-8.6222177e-06
2.3565018e-11
-2.5455502e-05
-8.5923904e-06
2.3387844e-11
-1.949179e-05
-8.231575e-06
2.2395004e-11
-1.4005811e-05
-7.5496982e-06
2.0608448e-11
-9.2030944e-06
-6.5762289e-06
1.8150522e-11
-5.2532029e-06
-5.3609933e-06
1.5219197e-11
-2.2745559e-06
-3.9753462e-06
1.1991851e-11
-3.1791766e-07
-2.5150114e-06
8.4697289e-12
6.5650517e-07
-1.1072641e-06
4.3744174e-12
8.0331887e-07
7.6723146e-08
2.4536249e-12
4.1770352e-07
8.0057493e-07
3.6760124e-12
7.0811232e-07
-2.3027587e-12
-2.7357166e-07
-1.4132253e-07
-1.0749122e-11
-1.6272804e-06
1.6602711e-06
-5.6595605e-12
-4.2887424e-06
4.2458281e-06
-7.2260161e-12
-8.2732608e-06
6.9382545e-06
-6.0642011e-12
-1.3471962e-05
9.4076012e-06
-4.2444095e-12
-1.970498e-05
1.1492751e-05
-3.3016305e-12
-2.676053e-05
1.313462e-05
-2.7386452e-12
-3.4419777e-05
1.4331384e-05
-2.2891295e-12
-4.2470083e-05
1.510726e-05
-1.9070628e-12
-5.0710154e-05
1.5493818e-05
-1.5589775e-12
-5.8950256e-05
1.5519831e-05
-1.2248955e-12
-6.7009958e-05
1.5206699e-05
-8.8631297e-13
-7.4715201e-05
1.4567636e-05
-5.2639533e-13
-8.189593e-05
1.3609335e-05
-1.5064313e-13
-8.8385082e-05
1.2335136e-05
2.401582e-13
-9.4019353e-05
1.0748964e-05
6.5094549e-13
-9.8641873e-05
8.8594671e-06
1.0711751e-12
-0.00010210666
6.6839174e-06
1.4850793e-12
-0.0001042846
4.25152e-06
1.8596084e-12
-0.00010507051
1.6058895e-06
2.1637184e-12
-0.00010439063
-1.193592e-06
2.4011226e-12
-0.00010221025
-4.0720316e-06
2.5802379e-12
-9.8540429e-05
-6.9396339e-06
2.7048074e-12
-9.3443311e-05
-9.6952431e-06
2.7769712e-12
-8.7035336e-05
-1.2230293e-05
2.7985874e-12
-7.9487757e-05
-1.4434433e-05
2.7713179e-12
-7.1023975e-05
-1.620214e-05
2.7066032e-12
-6.1913396e-05
-1.7439963e-05
2.6346233e-12
-5.2461765e-05
-1.807385e-05
2.5929974e-12
-4.2998142e-05
-1.8056015e-05
2.5981377e-12
-3.3858964e-05
-1.7370757e-05
2.6268531e-12
-2.536982e-05
-1.6038848e-05
2.6416526e-12
-1.7825651e-05
-1.4120404e-05
2.6563017e-12
-1.1470043e-05
-1.1716608e-05
2.7717652e-12
-6.4740607e-06
-8.9713324e-06
3.0906139e-12
-2.9145126e-06
-6.07456e-06
3.493155e-12
-7.5172288e-07
-3.2700515e-06
3.5245276e-12
1.9400271e-07
-8.6900307e-07
3.7957123e-12
2.6534587e-07
7.2921452e-07
5.1210791e-12
9.7345691e-07
9.4735102e-13
-7.4572744e-07
6.0441195e-07
-1.1475173e-11
-3.179065e-06
4.0936021e-06
-5.9827826e-14
-7.3447004e-06
8.4114661e-06
-5.6041435e-12
-1.3160443e-05
1.2754001e-05
-5.123949e-12
-2.0451652e-05
1.6698813e-05
-2.6342601e-12
-2.8986627e-05
2.0027728e-05
-1.4254127e-12
-3.85058e-05
2.2653795e-05
-6.7537887e-13
-4.8742375e-05
2.4567956e-05
-9.2539676e-15
-5.9434362e-05
2.5799245e-05
5.5259717e-13
-7.0329864e-05
2.638932e-05
1.0236486e-12
-8.1187837e-05
2.6377806e-05
1.4100149e-12
-9.1776458e-05
2.5795321e-05
1.7232518e-12
-0.0001018708
2.466198e-05
1.9896906e-12
-0.00011125114
2.2989666e-05
2.2224736e-12
-0.00011970266
2.0786652e-05
2.4135381e-12
-0.00012701715
1.8063456e-05
2.5422093e-12
-0.00013299672
1.4839028e-05
2.5948948e-12
-0.00013745938
1.1146568e-05
2.5799399e-12
-0.00014024628
7.0384221e-06
2.4942453e-12
-0.00014123006
2.589659e-06
2.3252471e-12
-0.00014032345
-2.1002111e-06
2.0813239e-12
-0.00013748814
-6.9073418e-06
1.7414212e-12
-0.00013274225
-1.1685525e-05
1.3286116e-12
-0.00012616636
-1.6271138e-05
8.7418262e-13
-0.00011790705
-2.0489599e-05
4.1945473e-13
-0.00010817742
-2.4164065e-05
2.6930244e-15
-9.7253877e-05
-2.7125687e-05
-3.5015411e-13
-8.5468971e-05
-2.9224869e-05
-6.1641393e-13
-7.3200038e-05
-3.0342785e-05
-7.6275241e-13
-6.0853771e-05
-3.0402283e-05
-7.4567532e-13
-4.8847177e-05
-2.9377352e-05
-5.3887908e-13
-3.7585582e-05
-2.7300445e-05
-1.6905641e-13
-2.7438624e-05
-2.4267366e-05
3.0007091e-13
-1.8715273e-05
-2.0439967e-05
8.4064721e-13
-1.1638938e-05
-1.6047678e-05
1.5013954e-12
-6.323597e-06
-1.1389913e-05
2.3734351e-12
-2.7517898e-06
-6.8418653e-06
3.4450078e-12
-7.5737991e-07
-2.8634123e-06
4.3032079e-12
-9.6392959e-09
-1.853604e-08
4.502542e-12
9.6381359e-07
3.7892654e-12
-1.2277224e-06
1.8321445e-06
-1.3309672e-11
-4.7871134e-06
7.6529822e-06
5.6371269e-12
-1.0519295e-05
1.4143652e-05
-4.9402507e-12
-1.8210381e-05
2.0445094e-05
-6.1454304e-12
-2.759789e-05
2.6086327e-05
-3.8736321e-12
-3.8387837e-05
3.081768e-05
-3.2644302e-12
-5.0271944e-05
3.4537906e-05
-3.0355027e-12
-6.2940864e-05
3.7236878e-05
-2.6733539e-12
-7.6092227e-05
3.8950611e-05
-2.2950091e-12
-8.9434063e-05
3.973116e-05
-1.9297061e-12
-0.00010268492
3.9628671e-05
-1.5697453e-12
-0.00011557228
3.8682677e-05
-1.2092313e-12
-0.00012783059
3.6920288e-05
-8.372595e-13
-0.0001392002
3.4359276e-05
-4.3492228e-13
-0.00014942783
3.1014279e-05
-3.1361029e-15
-0.00015826901
2.6904637e-05
4.2681623e-13
-0.00016549266
2.206267e-05
8.3125433e-13
-0.00017088751
1.6541415e-05
1.2138145e-12
-0.00017427018
1.0421097e-05
1.5765795e-12
-0.00017549428
3.8137512e-06
1.9089578e-12
-0.00017445989
-3.1346054e-06
2.2006497e-12
-0.00017112297
-1.0244267e-05
2.4310379e-12
-0.00016550367
-1.7304836e-05
2.5914563e-12
-0.00015769294
-2.4081861e-05
2.6859278e-12
-0.00014785676
-3.0325789e-05
2.7336695e-12
-0.00013623694
-3.5783882e-05
2.752545e-12
-0.00012314827
-4.0214361e-05
2.7488912e-12
-0.00010897108
-4.3402064e-05
2.7236326e-12
-9.4139203e-05
-4.5174666e-05
2.680711e-12
-7.9123182e-05
-4.5418307e-05
2.638894e-12
-6.4409115e-05
-4.4091424e-05
2.6412986e-12
-5.0473857e-05
-4.1235709e-05
2.7293965e-12
-3.7757718e-05
-3.6983512e-05
2.8906991e-12
-2.6636091e-05
-3.1561599e-05
3.0357921e-12
-1.7391712e-05
-2.5292064e-05
3.0731251e-12
-1.0189319e-05
-1.8592316e-05
3.2111879e-12
-5.0546305e-06
-1.1976563e-05
3.962496e-12
-1.8599235e-06
-6.0581197e-06
3.8714995e-12
-3.2229038e-07
-1.5561696e-06
6.8632989e-13
6.4151441e-07
6.0160934e-12
-1.6927907e-06
3.5249508e-06
-1.5984588e-11
-6.3699661e-06
1.2330144e-05
1.086265e-11
-1.3668325e-05
2.1442017e-05
-4.1517018e-12
-2.3228724e-05
3.00055e-05
-6.4024887e-12
-3.4687271e-05
3.7544877e-05
-3.7852544e-12
-4.7678879e-05
4.380929e-05
-3.3306114e-12
-6.184337e-05
4.87024e-05
-3.285764e-12
-7.6830557e-05
5.2224067e-05
-2.9895875e-12
-9.2302943e-05
5.4423001e-05
-2.6463534e-12
-0.00010793595
5.5364171e-05
-2.3173467e-12
-0.00012341636
5.5109079e-05
-1.97632e-12
-0.00013843997
5.3706294e-05
-1.6127038e-12
-0.00015270964
5.118996e-05
-1.2311835e-12
-0.00016593442
4.7584049e-05
-8.2325903e-13
-0.00017783046
4.2910324e-05
-3.8553555e-13
-0.00018812406
3.7198236e-05
6.0950344e-14
-0.00019655668
3.0495286e-05
4.9884738e-13
-0.00020289193
2.2876664e-05
9.286374e-13
-0.00020692409
1.4453254e-05
1.3487296e-12
-0.00020848766
5.3773206e-06
1.7472053e-12
-0.00020746746
-4.1548102e-06
2.1096071e-12
-0.00020380853
-1.3903198e-05
2.4244758e-12
-0.00019752534
-2.3588038e-05
2.6730987e-12
-0.0001887093
-3.2897905e-05
2.8538701e-12
-0.00017753406
-4.1501026e-05
2.9830507e-12
-0.00016425758
-4.906037e-05
3.0738045e-12
-0.00014922019
-5.5251753e-05
3.1263125e-12
-0.00013283806
-5.9784203e-05
3.1406819e-12
-0.00011559131
-6.2421414e-05
3.1219423e-12
-9.8006785e-05
-6.3002835e-05
3.0740522e-12
-8.0635444e-05
-6.1462768e-05
3.0157952e-12
-6.4025303e-05
-5.7845856e-05
3.0043339e-12
-4.8691116e-05
-5.2317707e-05
3.102967e-12
-3.5082693e-05
-4.5170029e-05
3.2669972e-12
-2.3554133e-05
-3.6820628e-05
3.3074488e-12
-1.4336536e-05
-2.7809916e-05
3.4150481e-12
-7.5169371e-06
-1.8796166e-05
4.3994557e-12
-3.0265909e-06
-1.0548468e-05
3.7726052e-12
-6.4249501e-07
-3.9402641e-06
-1.7827727e-12
-9.9342729e-10
8.5327127e-12
-2.1324291e-06
5.6573985e-06
-1.8900593e-11
-7.8891924e-06
1.8086891e-05
1.5503125e-11
-1.6713416e-05
3.0266246e-05
-3.5679845e-12
-2.8099057e-05
4.1391147e-05
-6.6061502e-12
-4.157525e-05
5.102107e-05
-3.4747931e-12
-5.6700798e-05
5.8934838e-05
-3.039185e-12
-7.3061212e-05
6.5062816e-05
-3.1007022e-12
-9.0266164e-05
6.9429022e-05
-2.8373256e-12
-0.00010794651
7.2103349e-05
-2.5140055e-12
-0.00012575063
7.3168289e-05
-2.2097796e-12
-0.00014334042
7.2698868e-05
-1.8803022e-12
-0.00016038763
7.0753511e-05
-1.5123713e-12
-0.00017657125
6.7373575e-05
-1.1248877e-12
-0.00019157642
6.2589217e-05
-7.2883718e-13
-0.00020509545
5.6429355e-05
-3.2673302e-13
-0.00021683093
4.8933714e-05
7.6424182e-14
-0.00022650093
4.0165286e-05
4.8032995e-13
-0.00023384612
3.0221855e-05
8.8681088e-13
-0.00023863842
1.9245556e-05
1.2873432e-12
-0.00024069081
7.4297116e-06
1.6666324e-12
-0.00023986783
-4.9777953e-06
2.0114746e-12
-0.00023609613
-1.7674899e-05
2.3175626e-12
-0.00022937477
-3.0309408e-05
2.5610111e-12
-0.00021978412
-4.2488553e-05
2.7346455e-12
-0.00020749298
-5.3792179e-05
2.8512271e-12
-0.00019276258
-6.3790768e-05
2.9237496e-12
-0.00017594686
-7.2067476e-05
2.9524953e-12
-0.00015748763
-7.8243441e-05
2.9423898e-12
-0.00013790399
-8.2005055e-05
2.915968e-12
-0.0001177754
-8.313143e-05
2.8909701e-12
-9.7718254e-05
-8.1519909e-05
2.8629362e-12
-7.8356783e-05
-7.720733e-05
2.8441601e-12
-6.0289515e-05
-7.038498e-05
2.9023784e-12
-4.4053734e-05
-6.1405815e-05
3.0570762e-12
-3.009072e-05
-5.0783645e-05
3.1369749e-12
-1.8715135e-05
-3.91855e-05
3.4013898e-12
-1.0092021e-05
-2.7419282e-05
4.871464e-12
-4.2249437e-06
-1.6415548e-05
3.7765184e-12
-9.5842622e-07
-7.2067797e-06
-4.5492747e-12
-9.5943272e-07
1.0558391e-11
-2.544424e-06
8.2018444e-06
-2.1815039e-11
-9.3265512e-06
2.4868998e-05
1.9641279e-11
-1.961057e-05
4.0550269e-05
-3.2342679e-12
-3.2748909e-05
5.4529492e-05
-6.9966089e-12
-4.8164314e-05
6.6436475e-05
-3.3700043e-12
-6.533854e-05
7.6109066e-05
-2.952044e-12
-8.3802393e-05
8.3526673e-05
-3.1420114e-12
-0.00010312658
8.8753212e-05
-2.9477828e-12
-0.00012291328
9.1890056e-05
-2.6699493e-12
-0.00014278842
9.3043428e-05
-2.3953768e-12
-0.0001623948
9.2305247e-05
-2.0803984e-12
-0.0001813866
8.9745306e-05
-1.7179872e-12
-0.00019942557
8.5412553e-05
-1.3294564e-12
-0.00021617939
7.934304e-05
-9.3269492e-13
-0.00023132216
7.1572123e-05
-5.3768801e-13
-0.00024453723
6.2148776e-05
-1.4253523e-13
-0.00025552212
5.1150181e-05
2.6366851e-13
-0.00026399544
3.8695168e-05
6.8745685e-13
-0.0002697053
2.4955418e-05
1.118508e-12
-0.00027243922
1.0163626e-05
1.5357786e-12
-0.00027203492
-5.3820926e-06
1.920823e-12
-0.00026839168
-2.131814e-05
2.2755361e-12
-0.00026148199
-3.7219103e-05
2.5703929e-12
-0.00025136243
-5.2608116e-05
2.7915717e-12
-0.00023818327
-6.6971344e-05
2.9450352e-12
-0.00022219556
-7.9778485e-05
3.0446655e-12
-0.00020375448
-9.0508561e-05
3.0909097e-12
-0.00018331758
-9.8680344e-05
3.0782431e-12
-0.00016143656
-0.00010388607
3.0273322e-12
-0.00013874159
-0.0001058264
2.9842019e-12
-0.00011591771
-0.0001043438
2.9720673e-12
-9.3673692e-05
-9.9451345e-05
2.9790855e-12
-7.2705013e-05
-9.1353659e-05
3.0187699e-12
-5.3653323e-05
-8.0457509e-05
3.0910883e-12
-3.7066163e-05
-6.7370809e-05
3.0578891e-12
-2.3360991e-05
-5.2890672e-05
3.381815e-12
-1.279779e-05
-3.7982486e-05
5.3547386e-12
-5.4642761e-06
-2.3749066e-05
3.7495947e-12
-1.2771331e-06
-1.1393919e-05
-7.4722184e-12
-2.2365803e-06
1.301256e-11
-2.9277423e-06
1.1129612e-05
-2.4645217e-11
-1.0671012e-05
3.2612243e-05
2.3359275e-11
-2.2330669e-05
5.2209929e-05
-3.0320522e-12
-3.7126926e-05
6.9325756e-05
-7.4502993e-12
-5.4381011e-05
8.3690562e-05
-3.3542219e-12
-7.3500136e-05
9.5228196e-05
-2.9477329e-12
-9.3962217e-05
0.00010398876
-3.2532573e-12
-0.00011530121
0.00011009221
-3.1182191e-12
-0.0001370938
0.00011368265
-2.8795987e-12
-0.00015894767
0.00011489729
-2.6294226e-12
-0.00018049165
0.00011384923
-2.3289423e-12
-0.00020136806
0.00011062172
-1.9798876e-12
-0.00022122738
0.00010527187
-1.605091e-12
-0.00023972541
9.7841077e-05
-1.2195573e-12
-0.000256523
8.8369717e-05
-8.3088613e-13
-0.00027128805
7.6913823e-05
-4.3059064e-13
-0.00028369974
6.356187e-05
-5.3755359e-15
-0.00029345478
4.8450204e-05
4.4877806e-13
-0.0003002754
3.177604e-05
9.1968663e-13
-0.00030391901
1.3807242e-05
1.3807958e-12
-0.00030418934
-5.111765e-06
1.8061938e-12
-0.00030094847
-2.4559012e-05
2.2133991e-12
-0.00029413032
-4.4037251e-05
2.5662291e-12
-0.0002837539
-6.2984537e-05
2.8488732e-12
-0.00026993619
-8.0789061e-05
3.0552545e-12
-0.00025290321
-9.6811465e-05
3.19327e-12
-0.0002329978
-0.00011041398
3.2698602e-12
-0.00021068212
-0.00012099602
3.2770273e-12
-0.00018653325
-0.00012803495
3.2179274e-12
-0.0001612299
-0.00013112976
3.1384574e-12
-0.00013552943
-0.00013004426
3.0963821e-12
-0.00011023512
-0.00012474566
3.1079695e-12
-8.615488e-05
-0.0001154339
3.1634603e-12
-6.405466e-05
-0.00010255773
3.1922393e-12
-4.4610516e-05
-8.6814958e-05
3.0195022e-12
-2.8364732e-05
-6.9136459e-05
3.34566e-12
-1.5691124e-05
-5.0656101e-05
5.842342e-12
-6.7743818e-06
-3.2665813e-05
3.7580431e-12
-1.6068488e-06
-1.6561445e-05
-1.0458396e-11
-3.8434433e-06
1.5557953e-11
-3.2808693e-06
1.4410509e-05
-2.7333918e-11
-1.1912907e-05
4.1244252e-05
2.6691155e-11
-2.4849414e-05
6.514644e-05
-2.9099742e-12
-4.1189951e-05
8.56663e-05
-7.9158413e-12
-6.0161955e-05
0.00010266257
-3.378949e-12
-8.110317e-05
0.00011616942
-2.9817032e-12
-0.00010344232
0.00012632792
-3.3882451e-12
-0.00012667995
0.00013332985
-3.296001e-12
-0.00015037085
0.00013737354
-3.0812253e-12
-0.00017410863
0.00013863508
-2.8482239e-12
-0.00019751299
0.00013725359
-2.5655549e-12
-0.00022021963
0.00013332836
-2.2397968e-12
-0.00024187315
0.00012692539
-1.8909521e-12
-0.00026212273
0.00011809066
-1.5248392e-12
-0.00028062054
0.00010686753
-1.1423727e-12
-0.00029702258
9.3315858e-05
-7.3410272e-13
-0.00031099174
7.7531035e-05
-2.9196165e-13
-0.00032220307
5.9661533e-05
1.8255791e-13
-0.00033035092
3.9923882e-05
6.8013467e-13
-0.00033515811
1.8614438e-05
1.1724359e-12
-0.00033638732
-3.8825487e-06
1.6236552e-12
-0.0003338536
-2.7092735e-05
2.0993348e-12
-0.00032744009
-5.0450756e-05
2.5125484e-12
-0.00031711381
-7.3310813e-05
2.8518078e-12
-0.00030294255
-9.4960326e-05
3.1081743e-12
-0.00028511084
-0.00011464318
3.2837356e-12
-0.00026393333
-0.00013159149
3.3925716e-12
-0.00023986321
-0.00014506615
3.4351115e-12
-0.00021349307
-0.0001544051
3.4008788e-12
-0.00018554574
-0.00015907709
3.3087784e-12
-0.00015685324
-0.00015873678
3.2172578e-12
-0.00012832283
-0.00015327608
3.1869244e-12
-0.0001008915
-0.00014286522
3.2430396e-12
-7.5471756e-05
-0.00012797749
3.2642404e-12
-5.289376e-05
-0.00010939296
2.9871078e-12
-3.385047e-05
-8.8179753e-05
3.3130484e-12
-1.8852248e-05
-6.5654331e-05
6.3560091e-12
-8.1971861e-06
-4.3320881e-05
3.788985e-12
-1.9609147e-06
-2.2797704e-05
-1.3638301e-11
-5.8043733e-06
1.8251172e-11
-3.6014034e-06
1.8011941e-05
-2.9823323e-11
-1.3041679e-05
5.0684496e-05
2.9640188e-11
-2.7142745e-05
7.9247512e-05
-2.8738329e-12
-4.4896513e-05
0.00010342008
-8.4146961e-12
-6.5446215e-05
0.00012321227
-3.4770659e-12
-8.8066983e-05
0.00013879019
-3.0812362e-12
-0.00011214344
0.00015040438
-3.5663948e-12
-0.00013714692
0.00015833333
-3.499088e-12
-0.00016261435
0.00016284096
-3.2996274e-12
-0.00018812957
0.0001641503
-3.0880153e-12
-0.00021330773
0.00016243176
-2.8323539e-12
-0.00023778294
0.00015780357
-2.535482e-12
-0.00026119908
0.00015034152
-2.2129358e-12
-0.00028320376
0.00014009534
-1.8655916e-12
-0.00030344504
0.00012710882
-1.4902874e-12
-0.00032157075
0.00011144157
-1.0762499e-12
-0.00033723
9.3190291e-05
-6.1933789e-13
-0.00035007703
7.2508564e-05
-1.2756313e-13
-0.00035977716
4.962401e-05
3.8889519e-13
-0.00036601514
2.4852417e-05
9.0130387e-13
-0.00036850663
-1.3910491e-06
1.3560868e-12
-0.00036701057
-2.8588798e-05
1.9196187e-12
-0.00036134773
-5.6113591e-05
2.396274e-12
-0.00035141863
-8.3239909e-05
2.7960279e-12
-0.00033722509
-0.00010915387
3.1141914e-12
-0.00031889186
-0.00013297641
3.3443404e-12
-0.0002966868
-0.00015379655
3.4947625e-12
-0.00027103678
-0.00017071617
3.5740015e-12
-0.00024253586
-0.00018290602
3.5789937e-12
-0.00021194239
-0.00018967056
3.5088688e-12
-0.00018016163
-0.00019051754
3.3903592e-12
-0.00014821218
-0.00018522554
3.2968156e-12
-0.00011717622
-0.00017390119
3.3097062e-12
-8.8136628e-05
-0.00015701708
3.3082305e-12
-6.210678e-05
-0.00013542281
2.9451437e-12
-3.9961005e-05
-0.00011032553
3.2902096e-12
-2.2374567e-05
-8.3240778e-05
6.9255811e-12
-9.7813736e-06
-5.5914081e-05
3.8330022e-12
-2.3543828e-06
-3.0224677e-05
-1.7148516e-11
-8.1587751e-06
2.1266546e-11
-3.8861061e-06
2.1898077e-05
-3.2067902e-11
-1.4045319e-05
6.0843675e-05
3.220132e-11
-2.9185227e-05
9.4387426e-05
-2.9195825e-12
-4.8204181e-05
0.00012243904
-8.9484187e-12
-7.0171982e-05
0.00014518007
-3.6535323e-12
-9.4309111e-05
0.00016292732
-3.2451079e-12
-0.00011996204
0.00017605731
-3.7868457e-12
-0.00014657768
0.00018494898
-3.7357677e-12
-0.00017367939
0.00018994267
-3.5528858e-12
-0.0002008455
0.0001913164
-3.368667e-12
-0.00022769117
0.00018927743
-3.1460649e-12
-0.00025385372
0.00018396612
-2.8814174e-12
-0.00027898138
0.00017546919
-2.5826774e-12
-0.00030272528
0.00016383923
-2.248542e-12
-0.00032473423
0.00014911778
-1.877935e-12
-0.00034465218
0.00013135952
-1.4617822e-12
-0.00036211786
0.00011065597
-9.9710668e-13
-0.00037676679
8.7157496e-05
-4.940828e-13
-0.00038823572
6.1092942e-05
3.4741502e-14
-0.00039616982
3.2786515e-05
5.9202506e-13
-0.00040023275
2.6718815e-06
1.1895786e-12
-0.00040012164
-2.8699906e-05
1.6943978e-12
-0.00039558376
-6.0651462e-05
2.2025991e-12
-0.00038643956
-9.238411e-05
2.6683046e-12
-0.00037260784
-0.00012298559
3.0615335e-12
-0.00035413369
-0.00015145056
3.3689716e-12
-0.00033121648
-0.00017671376
3.5850396e-12
-0.00030423488
-0.00019769778
3.7118859e-12
-0.00027376472
-0.00021337618
3.7575829e-12
-0.00024058496
-0.00022285033
3.7224244e-12
-0.00020566689
-0.00022543561
3.6057115e-12
-0.00017014311
-0.00022074932
3.4639848e-12
-0.00013525478
-0.00020878954
3.4102589e-12
-0.00010227947
-0.00018999239
3.3472332e-12
-7.2446153e-05
-0.00016525613
2.8803901e-12
-4.6846985e-05
-0.0001359247
3.2611354e-12
-2.6357819e-05
-0.00010372995
7.5716364e-12
-1.1578885e-05
-7.069302e-05
3.883557e-12
-2.8029352e-06
-3.9000602e-05
-2.1132066e-11
-1.0961734e-05
2.4718855e-11
-4.1311546e-06
2.6029264e-05
-3.4046283e-11
-1.4910701e-05
7.1623186e-05
3.4348606e-11
-3.0950206e-05
0.00011042694
-3.0219575e-12
-5.1069431e-05
0.00014255827
-9.4742325e-12
-7.427624e-05
0.00016838688
-3.8747396e-12
-9.9744986e-05
0.00018839607
-3.4545413e-12
-0.00012679033
0.00020310265
-4.0424566e-12
-0.00015483974
0.0002129984
-4.0053826e-12
-0.00018340733
0.00021851025
-3.8411143e-12
-0.00021207008
0.00021997916
-3.685889e-12
-0.00024044755
0.00021765489
-3.4964226e-12
-0.00026818495
0.00021170353
-3.2640215e-12
-0.00029493991
0.00020222414
-2.9871413e-12
-0.0003203723
0.00018927162
-2.6631095e-12
-0.00034413703
0.00017288252
-2.2979473e-12
-0.00036587929
0.00015310178
-1.8907462e-12
-0.00038523208
0.00013000876
-1.4357108e-12
-0.00040181608
0.0001037415
-9.3340685e-13
-0.0004152421
7.4518959e-05
-3.9384854e-13
-0.00042511656
4.2660979e-05
1.8747243e-13
-0.00043105043
8.6057448e-06
8.2684965e-13
-0.00043267388
-2.7076458e-05
1.3653988e-12
-0.00042965353
-6.3671808e-05
1.9258273e-12
-0.00042171777
-0.00010031987
2.459892e-12
-0.00040868604
-0.00013601732
2.9343192e-12
-0.00039050293
-0.00016963368
3.3340781e-12
-0.00036727474
-0.00019994195
3.640643e-12
-0.00033930517
-0.00022566735
3.8381743e-12
-0.00030712526
-0.0002455561
3.9306895e-12
-0.00027151155
-0.00025846404
3.9258028e-12
-0.00023348578
-0.0002634614
3.8201446e-12
-0.00019428987
-0.00025994524
3.6552878e-12
-0.00015533285
-0.00024774657
3.5432499e-12
-0.00011811
-0.00022721524
3.3937229e-12
-8.4100943e-05
-0.00019926519
2.7855509e-12
-5.4658382e-05
-0.00016536727
3.2070983e-12
-3.0903307e-05
-0.00012748504
8.3152725e-12
-1.3642902e-05
-8.7953429e-05
3.9458995e-12
-3.3225463e-06
-4.9320929e-05
-2.5717952e-11
-1.428431e-05
2.8710329e-11
-4.3325026e-06
3.0361802e-05
-3.5726007e-11
-1.5624441e-05
8.2915087e-05
3.6052226e-11
-3.241108e-05
0.00012721358
-3.172529e-12
-5.3449245e-05
0.00016359644
-9.9632501e-12
-7.7696673e-05
0.00019263431
-4.1132341e-12
-0.00010429021
0.00021498961
-3.6929471e-12
-0.00013251902
0.00023133146
-4.3304349e-12
-0.00016179597
0.00024227536
-4.3136089e-12
-0.00019163002
0.0002483443
-4.1697532e-12
-0.00022160074
0.00024994988
-4.0384709e-12
-0.00025133616
0.00024739031
-3.8745254e-12
-0.00028049393
0.0002408613
-3.6707647e-12
-0.00030874604
0.00023047626
-3.4192198e-12
-0.00033576662
0.00021629221
-3.1114621e-12
-0.00036122254
0.00019833844
-2.7541432e-12
-0.00038476635
0.00017664559
-2.3579875e-12
-0.0004060315
0.00015127391
-1.9195746e-12
-0.00042462978
0.00012233978
-1.4274531e-12
-0.0004401514
9.0040581e-05
-8.8129896e-13
-0.00045216825
5.4677821e-05
-2.8866324e-13
-0.00046024115
1.6678644e-05
3.4399941e-13
-0.00046393267
-2.3384941e-05
9.5468583e-13
-0.00046282502
-6.4779459e-05
1.5756768e-12
-0.00045654584
-0.00010659905
2.177462e-12
-0.00044480089
-0.00014776228
2.7333791e-12
-0.00042741376
-0.00018702081
3.2263815e-12
-0.00040437116
-0.00022298456
3.6327705e-12
-0.00037587032
-0.0002541682
3.9228506e-12
-0.00034236349
-0.00027906293
4.0803952e-12
-0.00030459212
-0.00029623541
4.1038711e-12
-0.00026360177
-0.00030445176
3.999997e-12
-0.00022072859
-0.00030281842
3.8185159e-12
-0.0001775502
-0.00029092497
3.6652895e-12
-0.00013579853
-0.00026896692
3.4300716e-12
-9.7240047e-05
-0.00023782367
2.6491162e-12
-6.3537007e-05
-0.00019907031
3.1156781e-12
-3.6110191e-05
-0.00015491186
9.1800804e-12
-1.6026531e-05
-0.00010803709
4.0379751e-12
-3.9293249e-06
-6.1418103e-05
-3.1018005e-11
-1.821367e-05
3.3364847e-11
-4.4863128e-06
3.4848152e-05
-3.7067292e-11
-1.6174115e-05
9.460285e-05
3.7297916e-11
-3.3543361e-05
0.00014458283
-3.3644522e-12
-5.5303965e-05
0.00018535705
-1.0409962e-11
-8.0375255e-05
0.0002177056
-4.3658637e-12
-0.00010786491
0.00024247926
-3.9544058e-12
-0.00013704249
0.00026050904
-4.64731e-12
-0.0001673107
0.00027254357
-4.6594899e-12
-0.00019817698
0.00027921059
-4.5378579e-12
-0.00022922702
0.00028099993
-4.4244572e-12
-0.00026010104
0.00027826434
-4.2768167e-12
-0.00029047339
0.00027123365
-4.0925827e-12
-0.00032003535
0.00026003821
-3.8658527e-12
-0.00034848095
0.00024473782
-3.5817704e-12
-0.00037549544
0.00022535293
-3.2364023e-12
-0.0004007459
0.00020189606
-2.8470411e-12
-0.00042387399
0.00017440201
-2.4206964e-12
-0.00044449083
0.00014295662
-1.9426058e-12
-0.00046217431
0.00010772406
-1.4002676e-12
-0.0004764697
6.8973214e-05
-7.9910817e-13
-0.00048689433
2.7103279e-05
-1.5567703e-13
-0.00049294786
-1.7331411e-05
5.0167623e-13
-0.00049412901
-6.3598315e-05
1.1718365e-12
-0.00048996073
-0.00011076732
1.8380713e-12
-0.00048002459
-0.00015769842
2.4756317e-12
-0.00046400487
-0.00020304053
3.0595411e-12
-0.00044174176
-0.00024524767
3.5623437e-12
-0.00041329102
-0.00028261895
3.95053e-12
-0.00037898495
-0.000313369
4.1871579e-12
-0.0003394865
-0.00033573387
4.2455186e-12
-0.00029582524
-0.00034811302
4.1339926e-12
-0.00024940238
-0.00034924128
3.9230636e-12
-0.00020195255
-0.00033837479
3.7314128e-12
-0.00015545539
-0.00031546409
3.4201162e-12
-0.00011199886
-0.00028128021
2.4461278e-12
-7.3609014e-05
-0.00023746017
2.9707293e-12
-4.2072075e-05
-0.00018644881
1.0179219e-11
-1.8781755e-05
-0.00013132741
4.1718361e-12
-4.6394361e-06
-7.5560385e-05
-3.7149994e-11
-2.2853144e-05
3.8816035e-11
-4.589443e-06
3.9437633e-05
-3.803475e-11
-1.6549724e-05
0.00010656309
3.8081753e-11
-3.4327299e-05
0.00016236041
-3.5766007e-12
-5.6601076e-05
0.00020763084
-1.0808472e-11
-8.2263172e-05
0.0002433677
-4.640861e-12
-0.00011039973
0.00027061583
-4.2413949e-12
-0.00014026595
0.00029037526
-4.9845643e-12
-0.00017125809
0.00030353572
-5.0268347e-12
-0.00020288519
0.00031083769
-4.9247651e-12
-0.00023474198
0.00031285672
-4.825649e-12
-0.00026648421
0.00031000657
-4.6911141e-12
-0.00029780679
0.00030255624
-4.5174689e-12
-0.00032842508
0.0002906565
-4.3086415e-12
-0.00035805877
0.00027437151
-4.0502809e-12
-0.00038641832
0.00025371248
-3.7237917e-12
-0.00041319338
0.00022867112
-3.3408979e-12
-0.00043804307
0.00019925171
-2.9176815e-12
-0.00046058819
0.00016550174
-2.448351e-12
-0.00048040562
0.0001275415
-1.9158938e-12
-0.00049702573
8.559333e-05
-1.3144597e-12
-0.00050993375
4.0011301e-05
-6.5754677e-13
-0.00051857652
-8.6886404e-06
3.4387637e-14
-0.00052237634
-5.9798492e-05
7.4409004e-13
-0.00052075379
-0.00011238988
1.4678579e-12
-0.00051316153
-0.00016529069
2.1841195e-12
-0.00049913066
-0.00021707141
2.8583421e-12
-0.00047833013
-0.00026604821
3.4537932e-12
-0.00045063785
-0.00031031123
3.9341902e-12
-0.00041621926
-0.0003477876
4.2503873e-12
-0.00037560478
-0.00037634835
4.3510852e-12
-0.00032975328
-0.00039396452
4.2314716e-12
-0.0002800843
-0.00039891026
3.973986e-12
-0.00022846085
-0.00038999825
3.7296657e-12
-0.00017710811
-0.00036681682
3.3382963e-12
-0.00012846431
-0.00032992401
2.1475877e-12
-8.4976578e-05
-0.00028094791
2.7497629e-12
-4.8873341e-05
-0.00022255206
1.131224e-11
-2.1958376e-05
-0.00015824238
4.3399721e-12
-5.4690428e-06
-9.2049675e-05
-4.4253916e-11
-2.8322229e-05
4.5186813e-11
-4.6399785e-06
4.407765e-05
-3.8616764e-11
-1.6745363e-05
0.00011866844
3.8390187e-11
-3.4750939e-05
0.00018036599
-3.797559e-12
-5.7319728e-05
0.00023019964
-1.1145392e-11
-8.3326762e-05
0.00026937474
-4.9373475e-12
-0.00011184323
0.0002991323
-4.555143e-12
-0.00014211422
0.00032064625
-5.3356733e-12
-0.00017353251
0.00033495402
-5.4010778e-12
-0.00020561112
0.00034291631
-5.3113391e-12
-0.00023795624
0.00034520185
-5.2225413e-12
-0.00027024193
0.00034229227
-5.102676e-12
-0.00030218727
0.00033450159
-4.9370555e-12
-0.00033353617
0.0003220054
-4.7351794e-12
-0.00036403967
0.00030487502
-4.4904113e-12
-0.00039344058
0.0002831134
-4.1793496e-12
-0.00042145977
0.00025669032
-3.8020059e-12
-0.00044778423
0.00022557617
-3.3744824e-12
-0.00047205661
0.00018977413
-2.9046899e-12
-0.00049386669
0.00014935158
-2.381157e-12
-0.00051274525
0.0001044719
-1.7877861e-12
-0.0005281615
5.5427549e-05
-1.1250038e-12
-0.00053952525
2.6751164e-06
-4.0657325e-13
-0.0005461963
-5.3127442e-05
3.3262356e-13
-0.00054750266
-0.00011108352
1.1023921e-12
-0.00054277124
-0.00017002212
1.8860267e-12
-0.00053137326
-0.00022846939
2.6459739e-12
-0.00051278701
-0.00028463447
3.3342885e-12
-0.0004866782
-0.00033642004
3.9031059e-12
-0.0004529956
-0.00038147021
4.2930653e-12
-0.00041207417
-0.00041726978
4.4390549e-12
-0.00036473199
-0.0004413067
4.3162408e-12
-0.00031233988
-0.00045130238
4.0015929e-12
-0.00025683811
-0.00044550002
3.6838829e-12
-0.0002006756
-0.00042297933
3.1855149e-12
-0.00014665747
-0.00038394215
1.7335365e-12
-9.7708046e-05
-0.00032989734
2.4289139e-12
-5.6584746e-05
-0.00026367537
1.257692e-11
-2.560271e-05
-0.00018922442
4.5245162e-12