/*--------------------------------*- C++ -*----------------------------------*\
  =========                 |
  \\      /  F ield         | OpenFOAM: The Open Source CFD Toolbox
   \\    /   O peration     | Website:  https://openfoam.org
    \\  /    A nd           | Version:  7
     \\/     M anipulation  |
\*---------------------------------------------------------------------------*/
FoamFile
{
    version     2.0;
    format      ascii;
    class       surfaceScalarField;
    location    "17";
    object      phi_0;
}
// * * * * * * * * * * * * * * * * * * * * * * * * * * * * * * * * * * * * * //

dimensions      [0 3 -1 0 0 0 0];

internalField   nonuniform List<scalar> 
45600
(
2.751457e-07
-2.8210466e-07
-7.5350463e-11
4.0320321e-07
-1.280336e-07
-2.3562268e-11
1.3241288e-07
2.7079774e-07
-5.8802193e-12
-5.6237471e-07
6.9478991e-07
-8.7909673e-13
-1.6392063e-06
1.0768272e-06
4.0325318e-12
-3.0272705e-06
1.3880571e-06
7.4183466e-12
-4.6518078e-06
1.6245292e-06
9.6577634e-12
-6.4440929e-06
1.7922758e-06
1.1240642e-11
-8.3440451e-06
1.8999407e-06
1.2360939e-11
-1.0299675e-05
1.9556159e-06
1.3102276e-11
-1.2265239e-05
1.965549e-06
1.3521985e-11
-1.4199026e-05
1.9337727e-06
1.3649172e-11
-1.6061303e-05
1.8622648e-06
1.3497966e-11
-1.7812735e-05
1.7514198e-06
1.3053518e-11
-1.941344e-05
1.600693e-06
1.2299703e-11
-2.0822768e-05
1.4093158e-06
1.1239309e-11
-2.1999795e-05
1.1770172e-06
9.8768137e-12
-2.2904499e-05
9.0469669e-07
8.2059973e-12
-2.3499513e-05
5.9500979e-07
6.2135315e-12
-2.3752343e-05
2.5282756e-07
3.9064572e-12
-2.3637867e-05
-1.1447762e-07
1.3535972e-12
-2.3140908e-05
-4.9695762e-07
-1.3448528e-12
-2.2258731e-05
-8.8217329e-07
-4.0964097e-12
-2.1003109e-05
-1.2556173e-06
-6.8018347e-12
-1.9401755e-05
-1.601347e-06
-9.350624e-12
-1.7498899e-05
-1.9028474e-06
-1.1622508e-11
-1.5354798e-05
-2.1440908e-06
-1.348528e-11
-1.304408e-05
-2.3107058e-06
-1.4801049e-11
-1.0652911e-05
-2.3911572e-06
-1.5457846e-11
-8.2750796e-06
-2.3778191e-06
-1.5393316e-11
-6.0072321e-06
-2.2678366e-06
-1.4590582e-11
-3.9435275e-06
-2.0636945e-06
-1.3062416e-11
-2.1700263e-06
-1.7734917e-06
-1.083374e-11
-7.5893243e-07
-1.4110855e-06
-7.9300205e-12
2.3776009e-07
-9.9668642e-07
-4.565227e-12
7.9612441e-07
-5.5836114e-07
-1.470485e-12
9.2895114e-07
-1.3282855e-07
1.7977075e-12
7.0539144e-07
2.2355086e-07
5.4766058e-12
2.9040333e-07
4.1497286e-07
9.2403536e-12
2.9039621e-07
2.5413248e-12
1.328294e-07
-4.1491229e-07
-2.0891565e-11
-3.0174979e-07
3.06558e-07
-1.3068435e-11
-1.6153042e-06
1.5843639e-06
-1.1593207e-11
-3.8742388e-06
2.9537359e-06
-1.2542375e-11
-7.0062971e-06
4.2088977e-06
-1.3879752e-11
-1.0877952e-05
5.2597277e-06
-1.5499763e-11
-1.533247e-05
6.0790641e-06
-1.69771e-11
-2.0212308e-05
6.6721322e-06
-1.8042412e-11
-2.53693e-05
7.0569498e-06
-1.8633375e-11
-3.0667411e-05
7.2537438e-06
-1.8754193e-11
-3.5981571e-05
7.2797254e-06
-1.844383e-11
-4.1194772e-05
7.1469911e-06
-1.776156e-11
-4.6194879e-05
6.8623875e-06
-1.6735278e-11
-5.087205e-05
6.428604e-06
-1.5356964e-11
-5.5117331e-05
5.8459855e-06
-1.3610982e-11
-5.8822702e-05
5.114695e-06
-1.1496673e-11
-6.188263e-05
4.2369514e-06
-9.0229186e-12
-6.4197063e-05
3.2191352e-06
-6.2105887e-12
-6.5675643e-05
2.0735942e-06
-3.0972851e-12
-6.6242803e-05
8.1998848e-07
2.361956e-13
-6.5843594e-05
-5.1368929e-07
3.709459e-12
-6.444892e-05
-1.8916383e-06
7.2876792e-12
-6.2061304e-05
-3.2698004e-06
1.0819832e-11
-5.8718825e-05
-4.5981113e-06
1.4174824e-11
-5.4497885e-05
-5.8223037e-06
1.7219322e-11
-4.9513914e-05
-6.8868386e-06
1.9818662e-11
-4.3919686e-05
-7.7383415e-06
2.1844465e-11
-3.7901049e-05
-8.3293681e-06
2.3189115e-11
-3.1670026e-05
-8.6222052e-06
2.3773895e-11
-2.5455492e-05
-8.5923787e-06
2.3554136e-11
-1.9491786e-05
-8.2315641e-06
2.2527519e-11
-1.4005811e-05
-7.5496887e-06
2.0731544e-11
-9.2030961e-06
-6.5762216e-06
1.8234594e-11
-5.2532068e-06
-5.3609885e-06
1.5178813e-11
-2.2745633e-06
-3.9753423e-06
1.1831505e-11
-3.179285e-07
-2.5150051e-06
8.4077476e-12
6.5649462e-07
-1.1072534e-06
4.7348278e-12
8.0331573e-07
7.6735818e-08
3.2825365e-12
4.1771605e-07
8.0058101e-07
4.3854158e-12
7.0811146e-07
-2.8430883e-12
-2.7357725e-07
-1.4132355e-07
-1.1560025e-11
-1.6272823e-06
1.66027e-06
-6.4042573e-12
-4.2887389e-06
4.2458281e-06
-7.924003e-12
-8.2732486e-06
6.9382536e-06
-6.6112905e-12
-1.3471942e-05
9.4075974e-06
-4.7504641e-12
-1.9704954e-05
1.1492744e-05
-3.7439377e-12
-2.6760497e-05
1.313461e-05
-3.1025385e-12
-3.4419735e-05
1.4331372e-05
-2.5678271e-12
-4.2470033e-05
1.5107247e-05
-2.1054633e-12
-5.0710096e-05
1.5493805e-05
-1.6714865e-12
-5.895019e-05
1.5519818e-05
-1.2459353e-12
-6.7009885e-05
1.5206686e-05
-8.3197225e-13
-7.4715122e-05
1.4567625e-05
-4.418295e-13
-8.1895844e-05
1.3609326e-05
-6.4772232e-14
-8.8384988e-05
1.2335129e-05
3.2453917e-13
-9.4019253e-05
1.074896e-05
7.1373164e-13
-9.8641768e-05
8.8594664e-06
1.1000939e-12
-0.00010210655
6.6839199e-06
1.4468842e-12
-0.00010428449
4.2515265e-06
1.7529532e-12
-0.0001050704
1.6059001e-06
2.0106781e-12
-0.00010439051
-1.1935778e-06
2.2347981e-12
-0.00010221014
-4.0720147e-06
2.4300041e-12
-9.8540325e-05
-6.9396151e-06
2.5859879e-12
-9.3443215e-05
-9.6952231e-06
2.6891413e-12
-8.7035251e-05
-1.2230272e-05
2.7319488e-12
-7.9487685e-05
-1.4434411e-05
2.7178686e-12
-7.1023915e-05
-1.6202118e-05
2.6676013e-12
-6.1913349e-05
-1.7439941e-05
2.6146737e-12
-5.246173e-05
-1.8073829e-05
2.5803816e-12
-4.2998118e-05
-1.8055995e-05
2.5605935e-12
-3.3858949e-05
-1.7370737e-05
2.5562634e-12
-2.5369812e-05
-1.6038829e-05
2.6028921e-12
-1.7825648e-05
-1.4120388e-05
2.7296426e-12
-1.1470042e-05
-1.1716596e-05
2.9047372e-12
-6.4740622e-06
-8.9713258e-06
3.0705335e-12
-2.9145167e-06
-6.074558e-06
3.1574588e-12
-7.5173078e-07
-3.2700494e-06
3.0509113e-12
1.9399342e-07
-8.6899662e-07
3.6887323e-12
2.6535139e-07
7.2922222e-07
5.6078551e-12
9.7345944e-07
8.6402412e-13
-7.4572882e-07
6.0441593e-07
-1.2123916e-11
-3.1790605e-06
4.0936028e-06
-6.7353337e-13
-7.3446905e-06
8.4114639e-06
-6.2639648e-12
-1.3160424e-05
1.2753994e-05
-5.6729586e-12
-2.0451624e-05
1.6698801e-05
-3.1236628e-12
-2.8986589e-05
2.0027712e-05
-1.8384662e-12
-3.8505752e-05
2.2653775e-05
-9.9553843e-13
-4.8742314e-05
2.4567933e-05
-2.2385669e-13
-5.9434289e-05
2.579922e-05
4.1962419e-13
-7.032978e-05
2.6389293e-05
9.3960791e-13
-8.1187743e-05
2.6377779e-05
1.3559873e-12
-9.1776354e-05
2.5795295e-05
1.6959561e-12
-0.00010187069
2.4661956e-05
1.9692724e-12
-0.00011125101
2.2989646e-05
2.1895167e-12
-0.00011970252
2.0786636e-05
2.3762503e-12
-0.00012701701
1.8063446e-05
2.5211593e-12
-0.00013299657
1.4839024e-05
2.5968103e-12
-0.00013745923
1.114657e-05
2.5883882e-12
-0.00014024613
7.0384306e-06
2.4846907e-12
-0.0001412299
2.5896735e-06
2.2864691e-12
-0.00014032329
-2.1001907e-06
2.0223951e-12
-0.00013748799
-6.9073162e-06
1.6832449e-12
-0.00013274211
-1.1685495e-05
1.2937377e-12
-0.00012616623
-1.6271106e-05
8.7572356e-13
-0.00011790694
-2.0489564e-05
4.5181781e-13
-0.00010817732
-2.4164029e-05
4.2337482e-14
-9.7253792e-05
-2.7125649e-05
-3.2747836e-13
-8.5468903e-05
-2.9224832e-05
-6.1371169e-13
-7.3199984e-05
-3.0342747e-05
-7.6489167e-13
-6.085373e-05
-3.0402247e-05
-7.5614699e-13
-4.8847147e-05
-2.9377319e-05
-5.9281499e-13
-3.7585563e-05
-2.7300415e-05
-2.6364409e-13
-2.7438614e-05
-2.4267339e-05
2.7658225e-13
-1.8715269e-05
-2.0439944e-05
1.0248171e-12
-1.1638938e-05
-1.6047659e-05
1.8516089e-12
-6.3235962e-06
-1.1389901e-05
2.6009116e-12
-2.7517904e-06
-6.8418599e-06
3.2808291e-12
-7.5738678e-07
-2.8634086e-06
3.9469915e-12
-9.6376998e-09
-1.8530848e-08
4.5906345e-12
9.6381651e-07
3.8035328e-12
-1.2277216e-06
1.8321513e-06
-1.3834061e-11
-4.7871045e-06
7.652983e-06
5.1705943e-12
-1.0519279e-05
1.4143645e-05
-5.4845204e-12
-1.8210356e-05
2.0445079e-05
-6.618317e-12
-2.7597853e-05
2.6086304e-05
-4.2892558e-12
-3.8387787e-05
3.081765e-05
-3.6099647e-12
-5.0271881e-05
3.4537871e-05
-3.3038778e-12
-6.2940785e-05
3.723684e-05
-2.8387682e-12
-7.6092133e-05
3.895057e-05
-2.3644464e-12
-8.9433955e-05
3.9731117e-05
-1.9438198e-12
-0.0001026848
3.9628629e-05
-1.5724929e-12
-0.00011557214
3.8682637e-05
-1.2125168e-12
-0.00012783044
3.6920252e-05
-8.4330867e-13
-0.00013920004
3.4359245e-05
-4.5478165e-13
-0.00014942766
3.1014253e-05
-4.2884414e-14
-0.00015826883
2.6904619e-05
3.7620532e-13
-0.00016549247
2.2062661e-05
7.8660197e-13
-0.00017088732
1.6541415e-05
1.1813099e-12
-0.00017426999
1.0421106e-05
1.5466622e-12
-0.00017549409
3.8137693e-06
1.8695517e-12
-0.0001744597
-3.1345792e-06
2.1472415e-12
-0.00017112279
-1.0244233e-05
2.3661057e-12
-0.00016550349
-1.7304796e-05
2.5237969e-12
-0.00015769279
-2.4081817e-05
2.6267013e-12
-0.00014785661
-3.032574e-05
2.6868091e-12
-0.00013623682
-3.578383e-05
2.7066613e-12
-0.00012314816
-4.0214307e-05
2.6821143e-12
-0.00010897099
-4.340201e-05
2.6264532e-12
-9.4139129e-05
-4.5174612e-05
2.5803968e-12
-7.9123123e-05
-4.5418254e-05
2.5814899e-12
-6.440907e-05
-4.4091374e-05
2.6252758e-12
-5.0473825e-05
-4.1235665e-05
2.6869539e-12
-3.7757696e-05
-3.6983475e-05
2.7894726e-12
-2.663608e-05
-3.1561569e-05
2.9792241e-12
-1.7391709e-05
-2.5292039e-05
3.2167221e-12
-1.0189317e-05
-1.8592297e-05
3.5228948e-12
-5.0546279e-06
-1.1976552e-05
4.1284954e-12
-1.8599265e-06
-6.058115e-06
3.6784568e-12
-3.2229258e-07
-1.5561663e-06
5.9826478e-13
6.4151699e-07
5.9927832e-12
-1.6927887e-06
3.5249562e-06
-1.6460665e-11
-6.3699547e-06
1.233014e-05
1.0474475e-11
-1.3668305e-05
2.1442002e-05
-4.6003555e-12
-2.3228692e-05
3.0005473e-05
-6.7950811e-12
-3.4687224e-05
3.754484e-05
-4.1140737e-12
-4.7678816e-05
4.3809245e-05
-3.5788353e-12
-6.1843291e-05
4.8702349e-05
-3.4741538e-12
-7.683046e-05
5.2224011e-05
-3.1131805e-12
-9.2302828e-05
5.4422941e-05
-2.7050368e-12
-0.00010793582
5.536411e-05
-2.3348744e-12
-0.00012341621
5.5109018e-05
-1.9953315e-12
-0.0001384398
5.3706236e-05
-1.6509273e-12
-0.00015270946
5.1189909e-05
-1.2725233e-12
-0.00016593422
4.7584005e-05
-8.4937611e-13
-0.00017783026
4.2910288e-05
-3.9398452e-13
-0.00018812385
3.7198209e-05
6.0918721e-14
-0.00019655646
3.049527e-05
5.0293878e-13
-0.0002028917
2.2876661e-05
9.3783538e-13
-0.00020692386
1.4453263e-05
1.362005e-12
-0.00020848743
5.3773414e-06
1.7617915e-12
-0.00020746724
-4.1547781e-06
2.1205163e-12
-0.00020380832
-1.3903156e-05
2.4228592e-12
-0.00019752513
-2.3587987e-05
2.6525776e-12
-0.00018870911
-3.2897847e-05
2.8154942e-12
-0.00017753389
-4.1500962e-05
2.9299893e-12
-0.00016425743
-4.9060301e-05
3.0033598e-12
-0.00014922006
-5.5251681e-05
3.026622e-12
-0.00013283794
-5.978413e-05
2.997054e-12
-0.00011559122
-6.2421341e-05
2.9450427e-12
-9.8006709e-05
-6.3002764e-05
2.9284257e-12
-8.0635385e-05
-6.1462701e-05
2.9809847e-12
-6.4025258e-05
-5.7845796e-05
3.0757473e-12
-4.8691083e-05
-5.2317656e-05
3.1722475e-12
-3.5082672e-05
-4.5169988e-05
3.2530019e-12
-2.3554122e-05
-3.6820596e-05
3.2905442e-12
-1.4336532e-05
-2.7809892e-05
3.5480704e-12
-7.5169339e-06
-1.8796151e-05
4.6156528e-12
-3.0265916e-06
-1.054846e-05
3.7664209e-12
-6.424972e-07
-3.9402605e-06
-1.8613544e-12
-9.908833e-10
8.4830435e-12
-2.1324259e-06
5.6574011e-06
-1.9297994e-11
-7.8891795e-06
1.8086879e-05
1.5200786e-11
-1.6713392e-05
3.0266219e-05
-3.910567e-12
-2.8099019e-05
4.1391106e-05
-6.9076584e-12
-4.1575194e-05
5.1021017e-05
-3.7223382e-12
-5.6700723e-05
5.8934775e-05
-3.193342e-12
-7.3061117e-05
6.5062745e-05
-3.1874497e-12
-9.026605e-05
6.9428945e-05
-2.8742851e-12
-0.00010794638
7.2103268e-05
-2.5212296e-12
-0.00012575047
7.3168207e-05
-2.2056624e-12
-0.00014334024
7.2698788e-05
-1.892977e-12
-0.00016038744
7.0753435e-05
-1.5598422e-12
-0.00017657104
6.7373506e-05
-1.1908493e-12
-0.00019157619
6.2589157e-05
-7.8023823e-13
-0.00020509521
5.6429306e-05
-3.4226843e-13
-0.00021683068
4.8933677e-05
9.1021969e-14
-0.00022650067
4.0165263e-05
5.0872768e-13
-0.00023384586
3.0221846e-05
9.1589021e-13
-0.00023863816
1.9245563e-05
1.3102964e-12
-0.00024069056
7.4297337e-06
1.683619e-12
-0.00023986758
-4.9777587e-06
2.021872e-12
-0.00023609589
-1.7674849e-05
2.311291e-12
-0.00022937454
-3.0309346e-05
2.5263293e-12
-0.00021978391
-4.2488481e-05
2.6705863e-12
-0.00020749278
-5.3792099e-05
2.7638328e-12
-0.00019276241
-6.3790681e-05
2.8170523e-12
-0.00017594671
-7.2067384e-05
2.8278847e-12
-0.00015748749
-7.8243347e-05
2.7951779e-12
-0.00013790387
-8.2004962e-05
2.7362171e-12
-0.0001177753
-8.3131341e-05
2.6980882e-12
-9.7718179e-05
-8.1519825e-05
2.7376678e-12
-7.8356725e-05
-7.7207253e-05
2.8706748e-12
-6.0289473e-05
-7.0384913e-05
3.0542234e-12
-4.4053704e-05
-6.1405761e-05
3.1904478e-12
-3.0090701e-05
-5.0783604e-05
3.1591719e-12
-1.8715126e-05
-3.918547e-05
3.411465e-12
-1.0092017e-05
-2.7419262e-05
4.9915135e-12
-4.2249433e-06
-1.6415537e-05
3.8417841e-12
-9.5842719e-07
-7.2067742e-06
-4.5697319e-12
-9.594303e-07
1.0522348e-11
-2.5444203e-06
8.2018426e-06
-2.2118212e-11
-9.3265369e-06
2.4868977e-05
1.9430323e-11
-1.9610542e-05
4.0550228e-05
-3.4619987e-12
-3.2748864e-05
5.4529434e-05
-7.1882683e-12
-4.8164249e-05
6.6436402e-05
-3.5345322e-12
-6.5338454e-05
7.6108982e-05
-3.0430743e-12
-8.3802286e-05
8.3526579e-05
-3.179155e-12
-0.00010312645
8.8753111e-05
-2.9435679e-12
-0.00012291313
9.1889951e-05
-2.654029e-12
-0.00014278825
9.3043324e-05
-2.3864685e-12
-0.0001623946
9.2305145e-05
-2.0895249e-12
-0.00018138638
8.974521e-05
-1.753057e-12
-0.00019942534
8.5412466e-05
-1.3794102e-12
-0.00021617914
7.9342963e-05
-9.7116981e-13
-0.00023132189
7.157206e-05
-5.4016588e-13
-0.00024453695
6.2148728e-05
-1.0835814e-13
-0.00025552184
5.115015e-05
3.1876348e-13
-0.00026399515
3.8695155e-05
7.4410858e-13
-0.00026970501
2.4955423e-05
1.1616754e-12
-0.00027243893
1.0163649e-05
1.5623885e-12
-0.00027203464
-5.382052e-06
1.9340645e-12
-0.00026839141
-2.1318082e-05
2.2679021e-12
-0.00026148173
-3.721903e-05
2.5257531e-12
-0.00025136219
-5.2608029e-05
2.7059072e-12
-0.00023818305
-6.6971246e-05
2.8294756e-12
-0.00022219536
-7.9778379e-05
2.9102693e-12
-0.0002037543
-9.0508449e-05
2.947448e-12
-0.00018331742
-9.8680229e-05
2.9410818e-12
-0.00016143642
-0.00010388596
2.9023655e-12
-0.00013874148
-0.00010582629
2.8587733e-12
-0.00011591761
-0.00010434369
2.857048e-12
-9.3673621e-05
-9.9451251e-05
2.9431794e-12
-7.270496e-05
-9.1353576e-05
3.1211549e-12
-5.3653285e-05
-8.0457439e-05
3.2714713e-12
-3.7066136e-05
-6.7370755e-05
3.167423e-12
-2.3360976e-05
-5.2890632e-05
3.3805724e-12
-1.2797784e-05
-3.798246e-05
5.3773016e-12
-5.4642746e-06
-2.374905e-05
3.7907026e-12
-1.277133e-06
-1.1393911e-05
-7.4672156e-12
-2.2365774e-06
1.3003988e-11
-2.9277383e-06
1.1129605e-05
-2.4852333e-11
-1.0670996e-05
3.2612212e-05
2.32257e-11
-2.2330638e-05
5.2209873e-05
-3.1690374e-12
-3.7126875e-05
6.9325678e-05
-7.5410496e-12
-5.4380939e-05
8.3690467e-05
-3.430072e-12
-7.3500041e-05
9.5228086e-05
-2.9733772e-12
-9.3962099e-05
0.00010398864
-3.2567707e-12
-0.00011530107
0.00011009209
-3.1045311e-12
-0.00013709363
0.00011368252
-2.8732653e-12
-0.00015894747
0.00011489717
-2.6440723e-12
-0.00018049143
0.00011384911
-2.358973e-12
-0.00020136782
0.0001106216
-2.0183617e-12
-0.00022122712
0.00010527176
-1.6428122e-12
-0.00023972514
9.7840983e-05
-1.2444747e-12
-0.00025652271
8.8369639e-05
-8.2759864e-13
-0.00027128775
7.6913763e-05
-3.9644226e-13
-0.00028369943
6.3561829e-05
5.0350739e-14
-0.00029345446
4.8450184e-05
5.0805675e-13
-0.00030027508
3.1776041e-05
9.5933212e-13
-0.0003039187
1.3807265e-05
1.3887532e-12
-0.00030418904
-5.1117209e-06
1.7904926e-12
-0.00030094818
-2.4558947e-05
2.1821837e-12
-0.00029413004
-4.4037167e-05
2.5112453e-12
-0.00028375364
-6.2984437e-05
2.7615033e-12
-0.00026993595
-8.0788947e-05
2.9426845e-12
-0.00025290299
-9.681134e-05
3.0661594e-12
-0.0002329976
-0.00011041385
3.1325762e-12
-0.00021068195
-0.00012099588
3.1458824e-12
-0.0001865331
-0.00012803481
3.1250414e-12
-0.00016122977
-0.00013112962
3.0931287e-12
-0.00013552933
-0.00013004414
3.0705853e-12
-0.00011023503
-0.00012474555
3.0922964e-12
-8.6154816e-05
-0.00011543379
3.2046578e-12
-6.4054613e-05
-0.00010255765
3.3195026e-12
-4.4610483e-05
-8.6814888e-05
3.1515079e-12
-2.8364712e-05
-6.9136407e-05
3.3739989e-12
-1.5691114e-05
-5.0656065e-05
5.8173238e-12
-6.7743785e-06
-3.2665791e-05
3.7387046e-12
-1.6068475e-06
-1.6561433e-05
-1.0480037e-11
-3.8434397e-06
1.5549877e-11
-3.2808648e-06
1.4410497e-05
-2.7443383e-11
-1.191289e-05
4.1244209e-05
2.6630207e-11
-2.4849381e-05
6.5146367e-05
-2.9896226e-12
-4.1189896e-05
8.5666201e-05
-7.9526806e-12
-6.0161877e-05
0.00010266245
-3.4088482e-12
-8.1103068e-05
0.00011616928
-2.9728669e-12
-0.0001034422
0.00012632777
-3.379039e-12
-0.0001266798
0.00013332969
-3.2911936e-12
-0.00015037066
0.00013737338
-3.0965812e-12
-0.00017410842
0.00013863493
-2.8904904e-12
-0.00019751276
0.00013725344
-2.6191108e-12
-0.00022021937
0.00013332822
-2.2877477e-12
-0.00024187287
0.00012692526
-1.9223353e-12
-0.00026212243
0.00011809055
-1.5388852e-12
-0.00028062023
0.00010686744
-1.136985e-12
-0.00029702226
9.3315786e-05
-7.1126113e-13
-0.00031099141
7.7530985e-05
-2.5447659e-13
-0.00032220274
5.9661507e-05
2.2695161e-13
-0.00033035058
3.992388e-05
7.0783785e-13
-0.00033515778
1.861446e-05
1.1579425e-12
-0.000336387
-3.8825021e-06
1.5686968e-12
-0.00033385329
-2.7092665e-05
2.0278235e-12
-0.00032743979
-5.0450664e-05
2.4388012e-12
-0.00031711353
-7.33107e-05
2.774023e-12
-0.00030294229
-9.4960195e-05
3.0277741e-12
-0.0002851106
-0.00011464303
3.2068914e-12
-0.00026393311
-0.00013159133
3.3135606e-12
-0.00023986302
-0.00014506599
3.3471372e-12
-0.00021349289
-0.00015440494
3.3276084e-12
-0.0001855456
-0.00015907693
3.2898779e-12
-0.00015685311
-0.00015873663
3.2508899e-12
-0.00012832273
-0.00015327594
3.2251134e-12
-0.00010089143
-0.0001428651
3.2660628e-12
-7.5471699e-05
-0.00012797738
3.3121035e-12
-5.289372e-05
-0.00010939287
3.0669253e-12
-3.3850444e-05
-8.8179686e-05
3.3451293e-12
-1.8852234e-05
-6.5654284e-05
6.3183416e-12
-8.1971804e-06
-4.3320851e-05
3.7188969e-12
-1.9609128e-06
-2.2797687e-05
-1.3708613e-11
-5.8043685e-06
1.8207153e-11
-3.6013985e-06
1.8011925e-05
-2.9853894e-11
-1.3041661e-05
5.0684441e-05
2.9653833e-11
-2.7142711e-05
7.9247421e-05
-2.9024024e-12
-4.4896456e-05
0.00010341996
-8.422483e-12
-6.5446133e-05
0.00012321213
-3.5036773e-12
-8.8066875e-05
0.00013879003
-3.0860424e-12
-0.0001121433
0.00015040421
-3.5808775e-12
-0.00013714676
0.00015833315
-3.5269579e-12
-0.00016261416
0.00016284078
-3.3495028e-12
-0.00018812935
0.00016415012
-3.1626035e-12
-0.00021330749
0.00016243159
-2.9141272e-12
-0.00023778268
0.00015780341
-2.6070628e-12
-0.00026119879
0.00015034138
-2.2621128e-12
-0.00028320345
0.00014009521
-1.8946432e-12
-0.00030344472
0.00012710871
-1.5033103e-12
-0.00032157041
0.00011144148
-1.0818105e-12
-0.00033722966
9.3190232e-05
-6.2142677e-13
-0.00035007669
7.2508531e-05
-1.2334564e-13
-0.00035977681
4.9624005e-05
3.8833557e-13
-0.0003660148
2.4852438e-05
8.6765371e-13
-0.0003685063
-1.3910006e-06
1.2776666e-12
-0.00036701024
-2.8588723e-05
1.82057e-12
-0.00036134742
-5.611349e-05
2.3102553e-12
-0.00035141834
-8.3239784e-05
2.7361093e-12
-0.00033722481
-0.00010915372
3.0779377e-12
-0.0003188916
-0.00013297625
3.3300084e-12
-0.00029668657
-0.00015379637
3.4934966e-12
-0.00027103657
-0.00017071599
3.5616824e-12
-0.00024253568
-0.00018290584
3.5446325e-12
-0.00021194223
-0.00018967038
3.482787e-12
-0.0001801615
-0.00019051736
3.4085916e-12
-0.00014821207
-0.00018522538
3.3401811e-12
-0.00011717613
-0.00017390104
3.3257008e-12
-8.813656e-05
-0.00015701695
3.294611e-12
-6.2106733e-05
-0.0001354227
2.9423473e-12
-3.9960974e-05
-0.00011032545
3.2850047e-12
-2.237455e-05
-8.3240717e-05
6.8821183e-12
-9.7813653e-06
-5.5914041e-05
3.7414361e-12
-2.3543806e-06
-3.0224654e-05
-1.7254001e-11
-8.1587682e-06
2.1174893e-11
-3.8861014e-06
2.1898057e-05
-3.2066491e-11
-1.4045301e-05
6.0843608e-05
3.2251441e-11
-2.9185193e-05
9.4387318e-05
-2.9206357e-12
-4.8204123e-05
0.0001224389
-8.9357137e-12
-7.0171897e-05
0.00014517991
-3.6847283e-12
-9.4309e-05
0.00016292714
-3.2807155e-12
-0.0001199619
0.00017605711
-3.8417908e-12
-0.00014657752
0.00018494878
-3.804844e-12
-0.00017367919
0.00018994247
-3.6350959e-12
-0.00020084527
0.0001913162
-3.4664194e-12
-0.00022769092
0.00018927724
-3.247212e-12
-0.00025385344
0.00018396594
-2.9759483e-12
-0.00027898109
0.00017546903
-2.6609182e-12
-0.00030272496
0.00016383909
-2.3106025e-12
-0.00032473391
0.00014911766
-1.9232923e-12
-0.00034465184
0.00013135942
-1.4996429e-12
-0.00036211751
0.0001106559
-1.0408352e-12
-0.00037676644
8.7157457e-05
-5.4358337e-13
-0.00038823537
6.1092933e-05
-1.6753507e-14
-0.00039616947
3.2786536e-05
5.2736078e-13
-0.00040023241
2.6719324e-06
1.0997165e-12
-0.00040012131
-2.8699826e-05
1.5938177e-12
-0.00039558344
-6.0651353e-05
2.1261669e-12
-0.00038643926
-9.2383974e-05
2.6377213e-12
-0.00037260756
-0.00012298543
3.0714871e-12
-0.00035413343
-0.00015145038
3.4057366e-12
-0.00033121623
-0.00017671357
3.6386747e-12
-0.00030423465
-0.00019769758
3.7622989e-12
-0.00027376452
-0.00021337597
3.7728446e-12
-0.00024058478
-0.00022285012
3.6951775e-12
-0.00020566674
-0.00022543541
3.5706377e-12
-0.00017014299
-0.00022074913
3.4472608e-12
-0.00013525467
-0.00020878936
3.3871999e-12
-0.00010227939
-0.00018999224
3.2882358e-12
-7.2446098e-05
-0.000165256
2.8062161e-12
-4.6846948e-05
-0.0001359246
3.1977145e-12
-2.6357798e-05
-0.00010372988
7.5092369e-12
-1.1578874e-05
-7.0692969e-05
3.7924433e-12
-2.8029327e-06
-3.9000573e-05
-2.1244855e-11
-1.0961725e-05
2.4598964e-11
-4.1311504e-06
2.602924e-05
-3.4037617e-11
-1.4910683e-05
7.1623107e-05
3.44012e-11
-3.0950171e-05
0.00011042681
-3.0353258e-12
-5.1069372e-05
0.00014255811
-9.463829e-12
-7.4276155e-05
0.00016838669
-3.9081862e-12
-9.9744875e-05
0.00018839586
-3.5057147e-12
-0.00012679019
0.00020310242
-4.1201365e-12
-0.00015483958
0.00021299817
-4.1001895e-12
-0.00018340713
0.00021851003
-3.9420722e-12
-0.00021206986
0.00021997893
-3.7945854e-12
-0.0002404473
0.00021765468
-3.6056622e-12
-0.00026818468
0.00021170333
-3.3704384e-12
-0.00029493961
0.00020222396
-3.0874232e-12
-0.00032037199
0.00018927147
-2.7597547e-12
-0.00034413671
0.00017288238
-2.3837702e-12
-0.00036587896
0.00015310168
-1.9639868e-12
-0.00038523174
0.00013000868
-1.5119138e-12
-0.00040181573
0.00010374145
-1.025386e-12
-0.00041524175
7.4518948e-05
-4.9766563e-13
-0.00042511622
4.2661001e-05
8.0788606e-14
-0.00043105009
8.6057992e-06
7.2237286e-13
-0.00043267354
-2.7076371e-05
1.2753977e-12
-0.00042965321
-6.3671691e-05
1.8754776e-12
-0.00042171747
-0.00010031972
2.4672911e-12
-0.00040868575
-0.00013601715
2.9895453e-12
-0.00039050265
-0.00016963348
3.4089803e-12
-0.00036727449
-0.00019994174
3.7155017e-12
-0.00033930494
-0.00022566713
3.9042363e-12
-0.00030712505
-0.00024555586
3.9680315e-12
-0.00027151137
-0.0002584638
3.9072962e-12
-0.00023348562
-0.00026346117
3.7488178e-12
-0.00019428974
-0.00025994501
3.5671292e-12
-0.00015533274
-0.00024774636
3.4586348e-12
-0.00011810992
-0.00022721506
3.2974366e-12
-8.410088e-05
-0.00019926504
2.6721719e-12
-5.465834e-05
-0.00016536714
3.0977971e-12
-3.0903282e-05
-0.00012748494
8.2232842e-12
-1.364289e-05
-8.7953365e-05
3.8582447e-12
-3.3225434e-06
-4.9320892e-05
-2.5820823e-11
-1.4284298e-05
2.8590876e-11
-4.332499e-06
3.0361773e-05
-3.572018e-11
-1.5624423e-05
8.2914996e-05
3.6107711e-11
-3.2411045e-05
0.00012721344
-3.2080581e-12
-5.3449188e-05
0.00016359626
-9.9724783e-12
-7.769659e-05
0.0001926341
-4.1508335e-12
-0.0001042901
0.00021498937
-3.7382882e-12
-0.00013251888
0.00023133121
-4.3951251e-12
-0.00016179581
0.00024227511
-4.3985226e-12
-0.00019162983
0.00024834405
-4.2620021e-12
-0.00022160052
0.00024994964
-4.1407023e-12
-0.00025133592
0.00024739008
-3.9823264e-12
-0.00028049366
0.00024086108
-3.7790206e-12
-0.00030874575
0.00023047606
-3.5244545e-12
-0.00033576632
0.00021629204
-3.2218684e-12
-0.00036122222
0.00019833829
-2.8673634e-12
-0.00038476602
0.00017664548
-2.4626722e-12
-0.00040603117
0.00015127383
-2.0199087e-12
-0.00042462945
0.00012233974
-1.5413795e-12
-0.00044015107
9.0040568e-05
-1.0158456e-12
-0.00045216791
5.4677844e-05
-4.2903059e-13
-0.00046024082
1.6678702e-05
2.216682e-13
-0.00046393234
-2.3384848e-05
8.7165787e-13
-0.0004628247
-6.4779333e-05
1.5495815e-12
-0.00045654554
-0.00010659889
2.2156821e-12
-0.0004448006
-0.00014776209
2.8205753e-12
-0.00042741349
-0.00018702059
3.3261083e-12
-0.0004043709
-0.00022298432
3.7108118e-12
-0.00037587008
-0.00025416795
3.9689397e-12
-0.00034236327
-0.00027906267
4.0971555e-12
-0.00030459193
-0.00029623515
4.080409e-12
-0.0002636016
-0.00030445149
3.9209818e-12
-0.00022072845
-0.00030281816
3.6984866e-12
-0.00017755008
-0.00029092473
3.5411811e-12
-0.00013579843
-0.00026896671
3.3158292e-12
-9.7239978e-05
-0.00023782349
2.5350218e-12
-6.353696e-05
-0.00019907016
2.9978273e-12
-3.6110162e-05
-0.00015491175
9.0679176e-12
-1.6026517e-05
-0.00010803701
3.9456012e-12
-3.9293213e-06
-6.1418057e-05
-3.1112859e-11
-1.8213655e-05
3.3260301e-11
-4.4863093e-06
3.4848119e-05
-3.7077349e-11
-1.6174097e-05
9.4602748e-05
3.7363911e-11
-3.3543328e-05
0.00014458267
-3.3950753e-12
-5.530391e-05
0.00018535685
-1.041947e-11
-8.0375176e-05
0.00021770537
-4.396345e-12
-0.0001078648
0.000242479
-3.979039e-12
-0.00013704236
0.00026050877
-4.6736158e-12
-0.00016731054
0.0002725433
-4.7046551e-12
-0.0001981768
0.00027921031
-4.5939803e-12
-0.00022922681
0.00028099966
-4.4978875e-12
-0.00026010081
0.00027826409
-4.3680927e-12
-0.00029047314
0.00027123341
-4.1933877e-12
-0.00032003508
0.000260038
-3.9628513e-12
-0.00034848067
0.00024473763
-3.6799726e-12
-0.00037549514
0.00022535277
-3.3470051e-12
-0.00040074559
0.00020189593
-2.9652692e-12
-0.00042387368
0.00017440192
-2.5385089e-12
-0.00044449051
0.00014295657
-2.0666251e-12
-0.00046217399
0.00010772405
-1.5418972e-12
-0.00047646938
6.8973238e-05
-9.5047729e-13
-0.00048689402
2.7103341e-05
-2.8780277e-13
-0.00049294756
-1.7331312e-05
4.19541e-13
-0.00049412871
-6.3598181e-05
1.1568844e-12
-0.00048996044
-0.00011076716
1.8886093e-12
-0.00048002431
-0.00015769823
2.5714231e-12
-0.0004640046
-0.00020304031
3.1657201e-12
-0.00044174151
-0.00024524743
3.6396257e-12
-0.00041329078
-0.00028261868
3.9769829e-12
-0.00037898474
-0.00031336872
4.1708475e-12
-0.00033948631
-0.00033573358
4.2016964e-12
-0.00029582507
-0.00034811273
4.0593861e-12
-0.00024940223
-0.00034924101
3.8156103e-12
-0.00020195243
-0.00033837453
3.6148863e-12
-0.0001554553
-0.00031546385
3.3200953e-12
-0.00011199879
-0.00028128
2.3642622e-12
-7.3608963e-05
-0.00023746
2.8859511e-12
-4.2072043e-05
-0.00018644868
1.0077725e-11
-1.878174e-05
-0.00013132732
4.0739791e-12
-4.6394321e-06
-7.556033e-05
-3.7246713e-11
-2.2853126e-05
3.8723082e-11
-4.5894394e-06
3.9437595e-05
-3.8060376e-11
-1.6549708e-05
0.00010656298
3.8155259e-11
-3.4327268e-05
0.00016236023
-3.5783456e-12
-5.6601024e-05
0.00020763062
-1.0779675e-11
-8.2263099e-05
0.00024336744
-4.631204e-12
-0.00011039963
0.00027061554
-4.2271468e-12
-0.00014026583
0.00029037496
-4.9592501e-12
-0.00017125795
0.00030353542
-5.0191725e-12
-0.00020288502
0.00031083739
-4.9315438e-12
-0.00023474179
0.00031285644
-4.8531369e-12
-0.00026648399
0.00031000629
-4.744184e-12
-0.00029780656
0.00030255599
-4.5945063e-12
-0.00032842483
0.00029065627
-4.3898732e-12
-0.00035805851
0.00027437131
-4.1243636e-12
-0.00038641805
0.00025371232
-3.8058464e-12
-0.0004131931
0.00022867099
-3.4436472e-12
-0.00043804279
0.00019925161
-3.0355292e-12
-0.0004605879
0.00016550169
-2.5724592e-12
-0.00048040533
0.00012754148
-2.0479864e-12
-0.00049702544
8.5593355e-05
-1.4530316e-12
-0.00050993347
4.0011366e-05
-7.8181635e-13
-0.00051857624
-8.6885367e-06
-4.4453141e-14
-0.00052237607
-5.9798351e-05
7.3079442e-13
-0.00052075352
-0.00011238971
1.516212e-12
-0.00051316127
-0.00016529048
2.2706984e-12
-0.00049913041
-0.00021707117
2.953634e-12
-0.00047832989
-0.00026604795
3.5272685e-12
-0.00045063762
-0.00031031095
3.9606628e-12
-0.00041621904
-0.0003477873
4.2280893e-12
-0.00037560459
-0.00037634804
4.3016918e-12
-0.00032975311
-0.00039396421
4.1718758e-12
-0.00028008415
-0.00039890996
3.9066835e-12
-0.00022846072
-0.00038999796
3.6607383e-12
-0.00017710801
-0.00036681656
3.2826292e-12
-0.00012846424
-0.00032992378
2.1150613e-12
-8.4976524e-05
-0.00028094771
2.7210709e-12
-4.8873308e-05
-0.00022255191
1.1255257e-11
-2.195836e-05
-0.00015824228
4.2541458e-12
-5.4690385e-06
-9.2049611e-05
-4.4351355e-11
-2.8322209e-05
4.5099811e-11
-4.6399748e-06
4.4077608e-05
-3.8638901e-11
-1.6745348e-05
0.00011866831
3.8468721e-11
-3.4750911e-05
0.0001803658
-3.7763437e-12
-5.7319681e-05
0.0002301994
-1.1071507e-11
-8.3326696e-05
0.00026937446
-4.869194e-12
-0.00011184314
0.00029913199
-4.4936649e-12
-0.00014211411
0.00032064593
-5.2597248e-12
-0.00017353238
0.0003349537
-5.3447402e-12
-0.00020561097
0.00034291599
-5.2751198e-12
-0.00023795606
0.00034520154
-5.207889e-12
-0.00027024174
0.00034229198
-5.107836e-12
-0.00030218707
0.00033450132
-4.9723951e-12
-0.00033353595
0.00032200516
-4.7913006e-12
-0.00036403944
0.00030487481
-4.5410632e-12
-0.00039344034
0.00028311322
-4.2254073e-12
-0.00042145953
0.00025669018
-3.8654328e-12
-0.00044778398
0.00022557607
-3.4655822e-12
-0.00047205636
0.00018977407
-3.01119e-12
-0.00049386644
0.00014935156
-2.4895876e-12
-0.00051274501
0.00010447193
-1.8943672e-12
-0.00052816125
5.5427616e-05
-1.22129e-12
-0.00053952501
2.6752237e-06
-4.7197273e-13
-0.00054619606
-5.3127296e-05
3.1820079e-13
-0.00054750243
-0.00011108333
1.1410469e-12
-0.000542771
-0.0001700219
1.95844e-12
-0.00053137303
-0.00022846914
2.7267705e-12
-0.00051278679
-0.0002846342
3.403766e-12
-0.000486678
-0.00033641975
3.9457198e-12
-0.0004529954
-0.0003814699
4.3012764e-12
-0.00041207398
-0.00041726946
4.4225911e-12
-0.00036473182
-0.00044130637
4.2964497e-12
-0.00031233973
-0.00045130205
3.9935674e-12
-0.00025683798
-0.00044549971
3.6872658e-12
-0.0002006755
-0.00042297904
3.1963464e-12
-0.00014665739
-0.00038394189
1.7551314e-12
-9.7707991e-05
-0.00032989712
2.4535917e-12
-5.6584712e-05
-0.0002636752
1.2576937e-11
-2.5602694e-05
-0.0001892243
4.4757385e-12