/*--------------------------------*- C++ -*----------------------------------*\
  =========                 |
  \\      /  F ield         | OpenFOAM: The Open Source CFD Toolbox
   \\    /   O peration     | Website:  https://openfoam.org
    \\  /    A nd           | Version:  7
     \\/     M anipulation  |
\*---------------------------------------------------------------------------*/
FoamFile
{
    version     2.0;
    format      ascii;
    class       volVectorField;
    location    "17";
    object      U;
}
// * * * * * * * * * * * * * * * * * * * * * * * * * * * * * * * * * * * * * //

dimensions      [0 1 -1 0 0 0 0];

internalField   nonuniform List<vector> 
16000
(
(6.6052716e-05 -6.7290247e-05 -3.9596063e-07)
(0.0001627422 -5.6319836e-05 5.7084911e-06)
(0.00014187346 4.8099415e-07 1.9205674e-05)
(-5.0663165e-05 6.1891647e-05 3.662316e-05)
(-0.0004099699 0.00011561739 5.4725358e-05)
(-0.00090894167 0.00015771912 7.154684e-05)
(-0.0015175171 0.00018847239 8.5752001e-05)
(-0.0022065608 0.00020957144 9.6526081e-05)
(-0.0029501311 0.00022283552 0.00010340895)
(-0.0037258411 0.00022976749 0.0001061538)
(-0.004514269 0.00023143225 0.0001046335)
(-0.0052980731 0.00022845895 9.8785131e-05)
(-0.0060610973 0.00022110332 8.8584107e-05)
(-0.0067876201 0.00020934092 7.4041002e-05)
(-0.0074618359 0.00019297462 5.5214521e-05)
(-0.0080676171 0.00017174584 3.223484e-05)
(-0.0085885696 0.00014544265 5.3318267e-06)
(-0.0090083739 0.00011400006 -2.5136763e-05)
(-0.0093113786 7.758812e-05 -5.8661305e-05)
(-0.0094834083 3.6683851e-05 -9.4564383e-05)
(-0.0095127254 -7.8794575e-06 -0.00013199656)
(-0.0093910588 -5.4906384e-05 -0.00016994682)
(-0.009114639 -0.00010281543 -0.00020726886)
(-0.0086851356 -0.00014971184 -0.00024272504)
(-0.0081103723 -0.00019346618 -0.00027504582)
(-0.0074047468 -0.00023183339 -0.00030300248)
(-0.0065892593 -0.00026260305 -0.00032548865)
(-0.0056910889 -0.00028376727 -0.00034160425)
(-0.0047426913 -0.00029368999 -0.00035073487)
(-0.0037804368 -0.00029125877 -0.00035261905)
(-0.0028428546 -0.00027600118 -0.00034739671)
(-0.0019685914 -0.000248152 -0.00033563464)
(-0.0011941992 -0.00020867093 -0.00031832808)
(-0.00055179952 -0.00015924706 -0.00029688138)
(-6.6679053e-05 -0.00010240647 -0.00027306338)
(0.00024474351 -4.1767885e-05 -0.00024893113)
(0.00037878725 1.7826816e-05 -0.00022686629)
(0.00034967808 6.7047701e-05 -0.00020930449)
(0.00020613827 8.9835549e-05 -0.00019891711)
(5.7455911e-05 5.7402903e-05 -0.00018446638)
(5.7996387e-05 -0.00016693579 -6.6205496e-06)
(4.0863263e-05 -3.9880275e-05 -3.6520065e-07)
(-0.00029497348 0.00024857628 1.1265318e-05)
(-0.0010109247 0.00056205846 2.562658e-05)
(-0.0020989436 0.00084736086 4.0605565e-05)
(-0.0035135385 0.0010829267 5.4607191e-05)
(-0.0051938064 0.0012640627 6.6504609e-05)
(-0.0070753703 0.0013937968 7.5545821e-05)
(-0.0090964773 0.0014776677 8.1249168e-05)
(-0.011200199 0.0015212214 8.3315122e-05)
(-0.013334485 0.0015289009 8.1560496e-05)
(-0.015451188 0.0015036691 7.5875462e-05)
(-0.017504734 0.001447062 6.6201762e-05)
(-0.019450901 0.0013595017 5.2528652e-05)
(-0.021245978 0.0012407526 3.4902192e-05)
(-0.022846482 0.0010904442 1.3443504e-05)
(-0.024209478 0.0009086038 -1.162844e-05)
(-0.025293497 0.0006961553 -3.9973748e-05)
(-0.026060012 0.00045535161 -7.1111992e-05)
(-0.026475329 0.00019010699 -0.00010440932)
(-0.026512811 -9.3798968e-05 -0.00013907525)
(-0.02615514 -0.00038864273 -0.00017417845)
(-0.025396565 -0.00068489378 -0.00020866308)
(-0.024244891 -0.00097150376 -0.00024139668)
(-0.022722869 -0.0012363886 -0.0002712236)
(-0.020868923 -0.0014670839 -0.00029703236)
(-0.018736984 -0.0016515357 -0.00031783098)
(-0.016395308 -0.0017789708 -0.00033282399)
(-0.013924237 -0.0018407737 -0.00034148441)
(-0.011412928 -0.0018312885 -0.00034361357)
(-0.0089551674 -0.0017484706 -0.00033938236)
(-0.0066444756 -0.0015943337 -0.00032934947)
(-0.0045686967 -0.0013751975 -0.00031445469)
(-0.0028042681 -0.0011018421 -0.00029598863)
(-0.0014102171 -0.00078986937 -0.00027554187)
(-0.00042189555 -0.00046060383 -0.00025492825)
(0.0001555201 -0.00014262609 -0.00023606234)
(0.00035654496 0.00012222167 -0.00022096118)
(0.00027516857 0.00027104295 -0.00021172536)
(9.0097402e-05 0.00020505296 -0.00019553174)
(1.9136867e-06 -0.00014886288 -2.0402659e-05)
(-0.00025602269 0.00029706678 -1.1783799e-05)
(-0.0010503006 0.0010235192 1.1111643e-07)
(-0.0023874347 0.0017972562 1.308663e-05)
(-0.0042386918 0.002509451 2.6117323e-05)
(-0.0065443431 0.00310946 3.8062815e-05)
(-0.0092233484 0.0035802141 4.8096456e-05)
(-0.0121876 0.0039226379 5.5657841e-05)
(-0.015349919 0.0041453347 6.0365446e-05)
(-0.01862729 0.0042587109 6.1962696e-05)
(-0.021941611 0.0042719294 6.0276788e-05)
(-0.025219097 0.004191607 5.519003e-05)
(-0.028389101 0.0040216408 4.6626211e-05)
(-0.031382953 0.0037637565 3.4550272e-05)
(-0.034133232 0.0034184866 1.8978304e-05)
(-0.036573684 0.0029863618 -5.2426219e-09)
(-0.038639917 0.0024691551 -2.2226609e-05)
(-0.040270846 0.0018710548 -4.740143e-05)
(-0.041410813 0.0011996668 -7.5116293e-05)
(-0.04201225 0.00046676299 -0.00010481648)
(-0.042038638 -0.00031128644 -0.00013580435)
(-0.0414676 -0.0011134184 -0.0001672449)
(-0.040293833 -0.0019143114 -0.0001981911)
(-0.038531579 -0.0026851414 -0.00022761985)
(-0.036216387 -0.0033948251 -0.00025448297)
(-0.033405912 -0.0040116532 -0.00027776989)
(-0.030179514 -0.0045052298 -0.00029657794)
(-0.02663652 -0.004848594 -0.00031018441)
(-0.022893049 -0.005020364 -0.00031811369)
(-0.019077452 -0.0050067243 -0.00032019221)
(-0.015324471 -0.0048030911 -0.00031658467)
(-0.011768343 -0.0044153409 -0.00030780679)
(-0.0085351364 -0.0038605938 -0.0002947122)
(-0.0057345937 -0.0031677102 -0.00027845436)
(-0.003451703 -0.0023779004 -0.00026042741)
(-0.0017381414 -0.0015461421 -0.00024218664)
(-0.00060389662 -0.00074428031 -0.00022534139)
(-8.2132537e-06 -6.6538984e-05 -0.00021148353)
(0.00015530784 0.0003602093 -0.00020230161)
(7.3523923e-05 0.00035427236 -0.00018537976)
(-6.4676446e-05 5.0491523e-05 -3.8649876e-05)
(-0.00060827692 0.0010456758 -2.6112127e-05)
(-0.0019301783 0.002381374 -1.2134909e-05)
(-0.0039456666 0.0037558444 1.1532125e-06)
(-0.0065876878 0.0050143439 1.373613e-05)
(-0.0097771899 0.0060788396 2.4854752e-05)
(-0.013414331 0.0069190972 3.3972071e-05)
(-0.01739187 0.0075325426 4.0752953e-05)
(-0.021603166 0.0079297316 4.4961506e-05)
(-0.025945188 0.0081253306 4.6425992e-05)
(-0.030319405 0.0081330595 4.5015768e-05)
(-0.03463144 0.0079633375 4.0624605e-05)
(-0.038790138 0.0076227978 3.3165511e-05)
(-0.04270666 0.0071150599 2.2576259e-05)
(-0.04629402 0.0064422761 8.8332111e-06)
(-0.049467341 0.0056070779 -8.0291123e-06)
(-0.052144932 0.0046146321 -2.7895434e-05)
(-0.054250175 0.0034745778 -5.0546789e-05)
(-0.055714143 0.0022026657 -7.5640231e-05)
(-0.056478754 0.0008219571 -0.0001026946)
(-0.056500234 -0.00063652711 -0.00013108545)
(-0.055752689 -0.0021338214 -0.00016004788)
(-0.054231428 -0.0036237247 -0.0001886999)
(-0.051955742 -0.0050542462 -0.00021607449)
(-0.048970882 -0.0063697786 -0.00024116878)
(-0.045348927 -0.0075139199 -0.0002630054)
(-0.041188285 -0.0084328111 -0.00028070227)
(-0.036611646 -0.0090787882 -0.00029354495)
(-0.03176228 -0.0094140962 -0.00030105422)
(-0.026798653 -0.0094143768 -0.00030304112)
(-0.021887486 -0.0090716565 -0.0002996422)
(-0.017195479 -0.0083966296 -0.00029132955)
(-0.012880016 -0.007420168 -0.00027889309)
(-0.0090792678 -0.006194206 -0.00026339593)
(-0.0059021311 -0.0047924326 -0.00024610659)
(-0.0034184333 -0.0033116167 -0.0002284149)
(-0.0016496143 -0.0018745822 -0.00021174724)
(-0.00055991306 -0.00063492836 -0.00019749562)
(-5.0193702e-05 0.00021472703 -0.00018689407)
(3.8066865e-05 0.00041367049 -0.00016808085)
(-0.00013084139 0.00044555356 -5.8160774e-05)
(-0.00097075225 0.0022423577 -4.1098049e-05)
(-0.00284561 0.004358401 -2.4220552e-05)
(-0.0055636122 0.0064559532 -9.7931841e-06)
(-0.009007474 0.0083517733 3.1200758e-06)
(-0.013072584 0.0099493747 1.4094597e-05)
(-0.017638382 0.011209376 2.2867532e-05)
(-0.022579684 0.012127001 2.9334156e-05)
(-0.027773489 0.012714813 3.341726e-05)
(-0.033100804 0.012991382 3.5044071e-05)
(-0.038447031 0.01297462 3.4137423e-05)
(-0.043701549 0.012678558 3.0609015e-05)
(-0.048756892 0.012112628 2.4362045e-05)
(-0.053508048 0.011282707 1.530303e-05)
(-0.057852278 0.010193266 3.3606769e-06)
(-0.061689675 0.008850095 -1.1490431e-05)
(-0.064924573 0.0072631981 -2.9203622e-05)
(-0.06746778 0.0054495033 -4.9633682e-05)
(-0.069239522 0.0034351384 -7.2512876e-05)
(-0.070172927 0.0012570626 -9.7432595e-05)
(-0.070217814 -0.0010361075 -0.00012383369)
(-0.06934454 -0.0033842166 -0.00015100794)
(-0.067547611 -0.0057166511 -0.00017811465)
(-0.064848743 -0.007954505 -0.00020421225)
(-0.061299091 -0.010013754 -0.00022830607)
(-0.056980325 -0.011809358 -0.00024941011)
(-0.052004272 -0.013260125 -0.00026661878)
(-0.046510892 -0.014294055 -0.00027918245)
(-0.040664409 -0.014853839 -0.0002865788)
(-0.034647528 -0.0149021 -0.00028857141)
(-0.028653798 -0.014425969 -0.0002852473)
(-0.022878346 -0.013440677 -0.00027702694)
(-0.017507332 -0.011991954 -0.0002646439)
(-0.012706667 -0.010157311 -0.00024909485)
(-0.0086106698 -0.0080465717 -0.00023156328)
(-0.0053113825 -0.0058024854 -0.00021332972)
(-0.0028484134 -0.003602388 -0.00019570843)
(-0.0012000553 -0.0016607338 -0.00017996438)
(-0.00028885091 -0.00023408762 -0.00016682088)
(-2.4860311e-06 0.00035026668 -0.00014558125)
(-0.00019282319 0.0010311678 -7.6635652e-05)
(-0.0013236888 0.0038918315 -5.4735567e-05)
(-0.0037510012 0.0069666244 -3.4536503e-05)
(-0.0071716536 0.009908773 -1.8448247e-05)
(-0.011412183 0.012524746 -4.657857e-06)
(-0.016337729 0.014711347 6.6994502e-06)
(-0.02180462 0.016426955 1.5610744e-05)
(-0.027669557 0.017668199 2.2190705e-05)
(-0.033794712 0.01845127 2.6517706e-05)
(-0.040047793 0.018799185 2.8618471e-05)
(-0.046301437 0.018734102 2.8470328e-05)
(-0.052432371 0.018273581 2.6002462e-05)
(-0.058320464 0.017429855 2.1105419e-05)
(-0.063848084 0.016211252 1.3649079e-05)
(-0.06890007 0.014625008 3.5070032e-06)
(-0.073364502 0.012680806 -9.4148625e-06)
(-0.077134322 0.010394496 -2.5147057e-05)
(-0.080109775 0.0077915762 -4.3625202e-05)
(-0.082201546 0.0049100854 -6.4660937e-05)
(-0.083334427 0.0018026523 -8.7918288e-05)
(-0.083451311 -0.0014625 -0.00011289867)
(-0.082517251 -0.0048017499 -0.00013893826)
(-0.080523351 -0.0081175403 -0.00016521968)
(-0.077490185 -0.01130122 -0.00019080186)
(-0.07347043 -0.014237202 -0.00021466698)
(-0.068550408 -0.016808365 -0.00023578371)
(-0.062850189 -0.018902494 -0.0002531827)
(-0.056521961 -0.020419459 -0.00026603764)
(-0.049746377 -0.02127869 -0.00027374344)
(-0.042726747 -0.021426446 -0.00027598165)
(-0.035681028 -0.020842296 -0.00027276374)
(-0.028831814 -0.019544314 -0.00026444459)
(-0.022394703 -0.017592597 -0.00025170257)
(-0.016565695 -0.015091002 -0.00023548629)
(-0.011508561 -0.012187346 -0.00021693076)
(-0.0073431692 -0.0090727862 -0.00019726129)
(-0.0041342005 -0.0059813346 -0.00017775217)
(-0.0018814947 -0.0031891066 -0.00015963834)
(-0.00053618762 -0.0010145959 -0.0001432467)
(-4.1253353e-05 0.00015873725 -0.00011914865)
(-0.0002500574 0.0017982529 -9.2117413e-05)
(-0.0016593765 0.0059829469 -6.5232394e-05)
(-0.0046233507 0.010196481 -4.1552492e-05)
(-0.0087300866 0.01410399 -2.3503203e-05)
(-0.013748339 0.017518521 -8.4702545e-06)
(-0.019510472 0.020342661 3.6632135e-06)
(-0.025848081 0.022540984 1.3108892e-05)
(-0.032599418 0.024116734 2.0182872e-05)
(-0.039612731 0.025092663 2.5107286e-05)
(-0.046744308 0.025497698 2.8000365e-05)
(-0.053856586 0.02535885 2.8887749e-05)
(-0.060816597 0.02469739 2.7710311e-05)
(-0.06749466 0.023528383 2.4339655e-05)
(-0.073763593 0.021862666 1.8601845e-05)
(-0.079498673 0.019710404 1.030719e-05)
(-0.084578454 0.017085472 -7.156617e-07)
(-0.088886446 0.014010012 -1.4583028e-05)
(-0.092313612 0.010518662 -3.1318966e-05)
(-0.094761558 0.0066620676 -5.0820128e-05)
(-0.096146273 0.0025093582 -7.2825804e-05)
(-0.096402238 -0.0018506232 -9.6896618e-05)
(-0.095486693 -0.0063095279 -0.0001224065)
(-0.093383867 -0.010741238 -0.00014854895)
(-0.09010889 -0.015005275 -0.00017436447)
(-0.085711073 -0.018951846 -0.00019878625)
(-0.080276223 -0.022428476 -0.00022070531)
(-0.073927595 -0.025288047 -0.00023905066)
(-0.066825065 -0.027397903 -0.00025287789)
(-0.059162127 -0.028649541 -0.0002614568)
(-0.051160424 -0.028968214 -0.00026434731)
(-0.043061662 -0.028321733 -0.00026145253)
(-0.035117019 -0.026727669 -0.00025304002)
(-0.02757444 -0.024258343 -0.00023972614)
(-0.020664564 -0.021043206 -0.00022242299)
(-0.014586499 -0.01726864 -0.0002022484)
(-0.0094947014 -0.013175782 -0.00018042346)
(-0.0054859046 -0.0090572161 -0.00015825217)
(-0.0025877143 -0.0052520722 -0.00013702418)
(-0.00078441526 -0.0021407215 -0.00011674341)
(-7.6874396e-05 -0.00016074078 -8.9532508e-05)
(-0.00030288057 0.0027359821 -0.00010293693)
(-0.0019750105 0.0084962985 -7.097244e-05)
(-0.0054508029 0.01402552 -4.3831797e-05)
(-0.010215483 0.019017191 -2.3692995e-05)
(-0.015981321 0.023305922 -7.2033219e-06)
(-0.022547403 0.026812245 5.9800449e-06)
(-0.029720142 0.029515905 1.6271497e-05)
(-0.037319456 0.031432879 2.4168803e-05)
(-0.045180505 0.032596322 3.0021891e-05)
(-0.053149704 0.033043289 3.4027628e-05)
(-0.061081411 0.032806775 3.624918e-05)
(-0.068835464 0.031912237 3.6629523e-05)
(-0.076275311 0.030377683 3.5012279e-05)
(-0.083266881 0.028216395 3.117072e-05)
(-0.089678342 0.025441332 2.4842689e-05)
(-0.095380788 0.022070392 1.5769977e-05)
(-0.1002498 0.018131811 3.7407155e-06)
(-0.10416784 0.013669157 -1.136718e-05)
(-0.10702734 0.0087454633 -2.9544128e-05)
(-0.10873442 0.0034461958 -5.0611709e-05)
(-0.10921307 -0.002119199 -7.4193987e-05)
(-0.10840957 -0.0078173743 -9.9703056e-05)
(-0.10629722 -0.013492897 -0.00012633816)
(-0.10288086 -0.018972038 -0.00015310963)
(-0.098201053 -0.024068509 -0.00017888223)
(-0.09233757 -0.028591197 -0.00020244155)
(-0.085411566 -0.032353755 -0.00022257916)
(-0.077586048 -0.035185732 -0.00023819001)
(-0.069063987 -0.036944706 -0.00024837217)
(-0.060083625 -0.037528644 -0.00025251712)
(-0.050910631 -0.03688753 -0.00025037751)
(-0.041827091 -0.035033173 -0.00024210142)
(-0.03311767 -0.032046195 -0.00022822631)
(-0.025053779 -0.028079437 -0.00020963014)
(-0.017877233 -0.023357504 -0.00018743778)
(-0.011784958 -0.018172847 -0.00016291211)
(-0.0069132247 -0.012879178 -0.00013745293)
(-0.0033234612 -0.007881801 -0.00011248572)
(-0.0010367589 -0.003626181 -8.7781549e-05)
(-0.00011092839 -0.00060718741 -5.7336495e-05)
(-0.00035160293 0.0038329989 -0.00010763111)
(-0.0022691154 0.011407835 -7.0482073e-05)
(-0.0062259333 0.018423168 -4.0011959e-05)
(-0.011611898 0.024614411 -1.7767648e-05)
(-0.01808593 0.029850839 2.9047807e-07)
(-0.025414931 0.034082241 1.4713985e-05)
(-0.033380815 0.037312419 2.610215e-05)
(-0.041785908 0.039576544 3.5115595e-05)
(-0.050453336 0.040922562 4.2215119e-05)
(-0.059221125 0.041398401 4.7661426e-05)
(-0.067937449 0.041044597 5.1542241e-05)
(-0.076457162 0.039891526 5.3791108e-05)
(-0.084639206 0.037960334 5.4213065e-05)
(-0.092344979 0.035266578 5.2518299e-05)
(-0.099437707 0.031825576 4.8361719e-05)
(-0.10578281 0.0276586 4.1387243e-05)
(-0.11124917 0.02279914 3.1275651e-05)
(-0.11571126 0.017298669 1.7794242e-05)
(-0.11905201 0.011231461 8.4578253e-07)
(-0.12116632 0.0046981419 -1.9486308e-05)
(-0.12196531 -0.0021722934 -4.2900654e-05)
(-0.12138092 -0.009222226 -6.8856032e-05)
(-0.11937108 -0.016267015 -9.6560477e-05)
(-0.11592513 -0.023098903 -0.00012499053)
(-0.11106911 -0.029493159 -0.0001529298)
(-0.10487071 -0.035216691 -0.0001790352)
(-0.097443189 -0.040039076 -0.00020192646)
(-0.088947596 -0.043745764 -0.00022029297)
(-0.079592588 -0.046152921 -0.00023300818)
(-0.069631021 -0.047123014 -0.00023923838)
(-0.059352784 -0.04657994 -0.00023853119)
(-0.049073599 -0.044522232 -0.00023086961)
(-0.039120017 -0.041032848 -0.00021668222)
(-0.029811474 -0.036284261 -0.00019680404)
(-0.021441149 -0.030538121 -0.00017238239)
(-0.014257576 -0.024139623 -0.00014476189)
(-0.0084450147 -0.01750734 -0.00011550087)
(-0.0041052389 -0.01111822 -8.6239775e-05)
(-0.0012999262 -0.0054895004 -5.6584713e-05)
(-0.00014464691 -0.0011818473 -2.2627942e-05)
(-0.00039628997 0.0050775369 -0.00010488121)
(-0.0025401663 0.014690146 -6.2409191e-05)
(-0.0069424958 0.023352645 -2.8811375e-05)
(-0.012906099 0.030853774 -4.5161785e-06)
(-0.020040837 0.037108934 1.5157506e-05)
(-0.028083652 0.04210744 3.0958599e-05)
(-0.036793557 0.045885587 4.3657002e-05)
(-0.045956624 0.048504185 5.405928e-05)
(-0.055385289 0.050030575 6.2721022e-05)
(-0.064910732 0.050526623 6.9952134e-05)
(-0.074376754 0.050042261 7.5851674e-05)
(-0.083635258 0.048613729 8.0331808e-05)
(-0.092542853 0.046265573 8.314788e-05)
(-0.10095857 0.043015356 8.3936089e-05)
(-0.1087427 0.038880053 8.2257002e-05)
(-0.11575665 0.033883211 7.7644059e-05)
(-0.12186379 0.028062103 6.9656361e-05)
(-0.12693108 0.021474307 5.7934267e-05)
(-0.13083159 0.01420328 4.2255542e-05)
(-0.13344777 0.0063626214 2.258934e-05)
(-0.13467557 -0.0019012281 -8.5655129e-07)
(-0.13442918 -0.010408125 -2.7606796e-05)
(-0.13264674 -0.018945276 -5.688974e-05)
(-0.12929672 -0.027270876 -8.7654285e-05)
(-0.12438448 -0.035120274 -0.00011859845)
(-0.11795908 -0.042215128 -0.00014823279)
(-0.11011925 -0.048275675 -0.00017497264)
(-0.10101808 -0.053035981 -0.00019725436)
(-0.090865034 -0.056261726 -0.00021366624)
(-0.079924605 -0.057769538 -0.00022308054)
(-0.068510368 -0.057446449 -0.00022476938)
(-0.056974024 -0.055267533 -0.0002184873)
(-0.045689317 -0.051309629 -0.00020450663)
(-0.035031648 -0.045759143 -0.00018359553)
(-0.025355408 -0.038912543 -0.00015692786)
(-0.016971357 -0.031169283 -0.00012596251)
(-0.010121756 -0.023017859 -9.2476042e-05)
(-0.0049566463 -0.015014877 -5.8402454e-05)
(-0.0015837081 -0.0077596821 -2.3235641e-05)
(-0.00017998363 -0.0018920179 1.4633406e-05)
(-0.00043676138 0.0064570831 -9.3485253e-05)
(-0.0027861615 0.01831267 -4.5515433e-05)
(-0.0075940515 0.028771688 -9.0398458e-06)
(-0.014085266 0.03768627 1.7207533e-05)
(-0.021825662 0.045027986 3.8505078e-05)
(-0.030525186 0.050834867 5.5790919e-05)
(-0.039922205 0.055183486 6.999392e-05)
(-0.049788334 0.058166466 8.2051792e-05)
(-0.059926914 0.05987515 9.2600625e-05)
(-0.070163914 0.060388555 0.00010198632)
(-0.080340534 0.059768059 0.00011030718)
(-0.090307669 0.058056865 0.00011744291)
(-0.099921652 0.055283239 0.00012308861)
(-0.10904122 0.051466417 0.00012679575)
(-0.11752569 0.046624104 0.00012801868)
(-0.12523417 0.040780631 0.0001261664)
(-0.13202578 0.033975032 0.00012065948)
(-0.13776068 0.02626848 0.00011099111)
(-0.14230208 0.017750701 9.6790289e-05)
(-0.14551907 0.0085451045 7.7885177e-05)
(-0.14729054 -0.0011875916 5.4361909e-05)
(-0.14750994 -0.011247451 2.6598104e-05)
(-0.1460915 -0.021395763 -4.6760933e-06)
(-0.14297754 -0.031357594 -3.8400339e-05)
(-0.13814648 -0.040827611 -7.3193379e-05)
(-0.13162157 -0.049479336 -0.00010740988)
(-0.12347957 -0.056978283 -0.00013923231)
(-0.11385819 -0.062999103 -0.00016679505)
(-0.10296128 -0.067246443 -0.00018833314)
(-0.091060184 -0.069478558 -0.0002023419)
(-0.078490025 -0.069532014 -0.00020772813)
(-0.065639583 -0.067345072 -0.00020393176)
(-0.052934505 -0.062976873 -0.00019099811)
(-0.040814327 -0.056619447 -0.00016958384)
(-0.029705534 -0.04860024 -0.0001408774)
(-0.019993466 -0.039374196 -0.0001064746)
(-0.011990535 -0.029505961 -6.842669e-05)
(-0.0059052269 -0.019642303 -2.9041219e-05)
(-0.0018993408 -0.010478441 1.226153e-05)
(-0.00021908214 -0.0027503959 5.4603652e-05)
(-0.0004726427 0.0079579949 -7.2352929e-05)
(-0.0030045827 0.022241487 -1.8679479e-05)
(-0.0081735506 0.034632698 2.0388409e-05)
(-0.015136123 0.045056061 4.8462343e-05)
(-0.023419727 0.053548038 7.1370977e-05)
(-0.032710751 0.060203468 9.0234753e-05)
(-0.042729562 0.065146221 0.00010613146)
(-0.053235404 0.068506485 0.00012011705)
(-0.064024287 0.07040406 0.00013289599)
(-0.074918645 0.070938364 0.00014483923)
(-0.085758822 0.070184384 0.00015603442)
(-0.096396585 0.06819351 0.00016631965)
(-0.10668998 0.064998129 0.00017532077)
(-0.11649951 0.060618788 0.0001824948)
(-0.12568554 0.055072843 0.00018717825)
(-0.13410673 0.048383635 0.00018864101)
(-0.14161951 0.040589497 0.00018614622)
(-0.14807841 0.03175209 0.00017901591)
(-0.15333733 0.021963756 0.00016670096)
(-0.15725177 0.01135367 0.00014885246)
(-0.15968235 9.2640516e-05 0.00012539103)
(-0.16049969 -0.011603661 9.6577711e-05)
(-0.15959073 -0.023473877 6.304135e-05)
(-0.15686675 -0.035212102 2.5824093e-05)
(-0.152273 -0.046472689 -1.363259e-05)
(-0.14579957 -0.056878979 -5.3529922e-05)
(-0.13749273 -0.06603676 -9.1796845e-05)
(-0.12746595 -0.073552946 -0.00012621857)
(-0.11590886 -0.079059462 -0.00015460276)
(-0.10309253 -0.082241543 -0.00017497037)
(-0.089368896 -0.082868662 -0.00018575071)
(-0.075162744 -0.080825201 -0.00018595457)
(-0.060954867 -0.076137066 -0.00017529883)
(-0.047256678 -0.068990034 -0.00015425515)
(-0.034578417 -0.059736125 -0.00012399172)
(-0.023394245 -0.048885974 -8.6249444e-05)
(-0.014101549 -0.037087311 -4.3406589e-05)
(-0.0069804952 -0.02508983 1.7721192e-06)
(-0.0022587018 -0.013701655 4.9912802e-05)
(-0.0002641097 -0.003775806 9.7473145e-05)
(-0.00050343033 0.0095651989 -4.0514876e-05)
(-0.0031925386 0.026439037 1.90907e-05)
(-0.0086734435 0.040882676 6.0437364e-05)
(-0.016044931 0.052900536 9.019614e-05)
(-0.024801955 0.062601363 0.00011469336)
(-0.034611007 0.070143736 0.00013522467)
(-0.0451773 0.07570501 0.00015300763)
(-0.05624991 0.079458168 0.00016920509)
(-0.067619319 0.081555689 0.0001845802)
(-0.07910608 0.082120594 0.0001995208)
(-0.090551374 0.081243726 0.00021409689)
(-0.10180964 0.07898601 0.00022809862)
(-0.11274259 0.075384454 0.00024107611)
(-0.12321457 0.070460606 0.00025238415)
(-0.13308911 0.064230352 0.00026123102)
(-0.14222656 0.05671411 0.00026673303)
(-0.15048267 0.047946765 0.00026797587)
(-0.15770804 0.037986935 0.0002640836)
(-0.16374858 0.02692533 0.00025429455)
(-0.16844702 0.014892091 0.00023804169)
(-0.17164573 0.0020629617 0.00021503482)
(-0.17319139 -0.011335952 0.00018535007)
(-0.17294129 -0.025025208 0.00014947554)
(-0.17077186 -0.038671609 0.00010838201)
(-0.16658958 -0.051891126 6.3531723e-05)
(-0.16034383 -0.064256307 1.6857213e-05)
(-0.15204129 -0.075309285 -2.930998e-05)
(-0.14176068 -0.084581324 -7.2366006e-05)
(-0.1296665 -0.091619388 -0.00010961517)
(-0.11601925 -0.096019282 -0.00013849395)
(-0.10117963 -0.097463686 -0.00015681774)
(-0.085604015 -0.095761813 -0.00016302003)
(-0.069829033 -0.090885896 -0.00015634852)
(-0.054444392 -0.082998721 -0.00013697727)
(-0.040056004 -0.07246656 -0.00010598649)
(-0.027242954 -0.059853725 -6.5248605e-05)
(-0.016505556 -0.045897862 -1.7513996e-05)
(-0.0082126945 -0.031466228 3.3906337e-05)
(-0.0026739646 -0.017500043 8.9664491e-05)
(-0.00031725148 -0.004993457 0.00014338546)
(-0.00052856113 0.011262018 2.8589456e-06)
(-0.0033470101 0.030863977 6.863941e-05)
(-0.0090861166 0.047463216 0.0001119284)
(-0.016798071 0.061150376 0.0001432205)
(-0.025951558 0.07211242 0.00016927981)
(-0.036196885 0.080577387 0.000191569)
(-0.04722696 0.086781386 0.00021143658)
(-0.058782863 0.090944864 0.00023014257)
(-0.070651271 0.093256904 0.00024850155)
(-0.082652419 0.093867268 0.00026691329)
(-0.094629898 0.092884967 0.00028542666)
(-0.10644253 0.090381951 0.00030378107)
(-0.11795759 0.086400513 0.00032144781)
(-0.12904538 0.08096303 0.00033767459)
(-0.13957487 0.074082882 0.00035153347)
(-0.14941052 0.065775638 0.00036197413)
(-0.15840986 0.0560699 0.00036788509)
(-0.16642204 0.045017488 0.00036816425)
(-0.1732873 0.032702858 0.0003617995)
(-0.17883752 0.019251703 0.000347958)
(-0.18289828 0.0048387007 0.00032608223)
(-0.18529278 -0.01030583 0.00029599175)
(-0.18584788 -0.025890614 0.00025796822)
(-0.18440274 -0.041560605 0.00021283994)
(-0.18082055 -0.056897333 0.00016202844)
(-0.1750031 -0.071424058 0.00010755704)
(-0.16690795 -0.084617254 5.2003455e-05)
(-0.15656736 -0.095925997 -1.6150287e-06)
(-0.1441073 -0.10480041 -5.002913e-05)
(-0.12976393 -0.11072939 -8.9973003e-05)
(-0.11389436 -0.11328631 -0.00011848878)
(-0.096977728 -0.11217937 -0.00013324684)
(-0.07960324 -0.10730077 -0.0001328368)
(-0.062442726 -0.098767161 -0.0001169708)
(-0.046209051 -0.086943006 -8.6526937e-05)
(-0.031603864 -0.072440347 -4.3462565e-05)
(-0.019251764 -0.056092225 9.0680479e-06)
(-0.0096319273 -0.038899344 6.7113196e-05)
(-0.0031574231 -0.021959279 0.00013133263)
(-0.00038073266 -0.0064350033 0.00019236258)
(-0.00054748482 0.013030163 5.8436003e-05)
(-0.0034651607 0.035471298 0.00013064175)
(-0.0094045441 0.054310763 0.00017551813)
(-0.017383031 0.069729848 0.00020818512)
(-0.026849331 0.081998052 0.00023577677)
(-0.037441169 0.091417261 0.00025991303)
(-0.048841844 0.098286665 0.00028206484)
(-0.060786444 0.10287824 0.00030358118)
(-0.073059397 0.1054213 0.00032532363)
(-0.085481999 0.1060954 0.00034770246)
(-0.097901666 0.10503011 0.0003707459)
(-0.11018318 0.1023101 0.00039414398)
(-0.12220122 0.097983824 0.00041729012)
(-0.13383412 0.09207456 0.00043932414)
(-0.14495876 0.084592382 0.00045917733)
(-0.15544637 0.075546275 0.00047562271)
(-0.16515931 0.06495585 0.00048733386)
(-0.17394849 0.052862416 0.00049295512)
(-0.18165178 0.039339431 0.00049118495)
(-0.18809355 0.024502411 0.00048087269)
(-0.19308559 0.0085183502 0.00046112781)
(-0.19642998 -0.0083854781 0.00043143889)
(-0.19792438 -0.025913656 0.00039179116)
(-0.19737027 -0.043696707 0.0003427798)
(-0.19458481 -0.061288136 0.00028569842)
(-0.18941648 -0.07816623 0.0002225886)
(-0.18176474 -0.093742714 0.00015622981)
(-0.1716029 -0.10738051 9.0050796e-05)
(-0.1590029 -0.11842265 2.7947468e-05)
(-0.14415921 -0.12623371 -2.5996419e-05)
(-0.12740805 -0.13025316 -6.7873184e-05)
(-0.10923684 -0.13005775 -9.4366259e-05)
(-0.090278577 -0.12542656 -0.00010316231)
(-0.071286758 -0.1163988 -9.3281625e-05)
(-0.053090441 -0.10331298 -6.522225e-05)
(-0.036532252 -0.086816643 -2.0930419e-05)
(-0.022385836 -0.067840499 3.6028306e-05)
(-0.011267425 -0.047534813 0.00010096503)
(-0.0037213875 -0.027179707 0.00017452737)
(-0.00045685089 -0.0081385751 0.00024422721)
(-0.0005597395 0.014849905 0.00012669672)
(-0.0035446948 0.040212808 0.00020558231)
(-0.0096230958 0.061357279 0.0002516776)
(-0.017789688 0.078557515 0.00028555434)
(-0.027479397 0.092168046 0.0003146413)
(-0.038320681 0.1025676 0.00034070428)
(-0.049989644 0.1101218 0.00036532861)
(-0.062217111 0.11515761 0.00038994602)
(-0.074786562 0.11794791 0.00041546374)
(-0.08752151 0.11870504 0.00044230509)
(-0.10027441 0.11758167 0.0004704825)
(-0.11291744 0.11467704 0.00049964263)
(-0.12533437 0.11004699 0.00052910681)
(-0.13741369 0.10371612 0.00055791081)
(-0.14904265 0.095690753 0.00058484532)
(-0.16010229 0.08597196 0.00060850102)
(-0.17046321 0.074568015 0.00062732284)
(-0.17998201 0.061506309 0.00063967729)
(-0.1884986 0.04684476 0.0006439363)
(-0.19583445 0.030682976 0.0006385792)
(-0.20179227 0.013173338 0.00062231351)
(-0.20615746 -0.0054679908 0.00059421256)
(-0.2087021 -0.02495041 0.00055386372)
(-0.20919203 -0.044899458 0.00050151755)
(-0.20739808 -0.064849782 0.00043822461)
(-0.20311197 -0.084242471 0.00036593757)
(-0.19616743 -0.10242932 0.0002875543)
(-0.18646662 -0.11868704 0.0002068739)
(-0.17401059 -0.13224463 0.00012843948)
(-0.15893149 -0.14232662 5.7250389e-05)
(-0.14152218 -0.14821322 -1.6546586e-06)
(-0.12225716 -0.14931543 -4.3715916e-05)
(-0.10179718 -0.14525871 -6.541265e-05)
(-0.08097054 -0.13596368 -6.4763998e-05)
(-0.060727652 -0.12170796 -4.1625443e-05)
(-0.042069895 -0.10315295 2.2358414e-06)
(-0.02594769 -0.081323364 6.2877724e-05)
(-0.013146791 -0.057533811 0.00013478403)
(-0.0043780948 -0.033275691 0.00021856772)
(-0.00054801411 -0.010148793 0.00029851599)
(-0.00056503063 0.016700459 0.00020791226)
(-0.0035842547 0.045038038 0.00029373724)
(-0.0097384647 0.068531427 0.00034067567)
(-0.018011827 0.087547453 0.00037558835)
(-0.027831299 0.10252622 0.00040611755)
(-0.038818942 0.11392485 0.0004341622)
(-0.050645658 0.12217778 0.00046141494)
(-0.063039392 0.12766985 0.00048938669)
(-0.075783682 0.13072059 0.00051903282)
(-0.088705171 0.13157813 0.00055079661)
(-0.10166237 0.13042085 0.0005846844)
(-0.11453607 0.12736475 0.00062031042)
(-0.12722076 0.12247463 0.0006569348)
(-0.13961707 0.11577725 0.00069349846)
(-0.1516252 0.10727531 0.00072865715)
(-0.16313912 0.096961132 0.00076081926)
(-0.17404147 0.084829927 0.00078819316)
(-0.18419906 0.070892348 0.00080884904)
(-0.19345905 0.055186756 0.00082080035)
(-0.20164595 0.037791484 0.00082210816)
(-0.20855971 0.018837448 0.00081101079)
(-0.21397557 -0.0014787329 0.00078607865)
(-0.2176461 -0.022881255 0.00074639215)
(-0.21930653 -0.045001944 0.00069172902)
(-0.21868422 -0.067368589 0.00062275548)
(-0.21551367 -0.089396719 0.00054119159)
(-0.20955797 -0.1103878 0.0004499241)
(-0.2006375 -0.12953764 0.00035302961)
(-0.18866555 -0.1459594 0.00025566829)
(-0.17368903 -0.15872579 0.00016381348)
(-0.15593012 -0.16693376 8.3799972e-05)
(-0.13582183 -0.16979169 2.1704333e-05)
(-0.11402772 -0.16672399 -1.7385126e-05)
(-0.091435112 -0.15748011 -3.0087975e-05)
(-0.069114117 -0.14222802 -1.524762e-05)
(-0.048239771 -0.12160791 2.5816476e-05)
(-0.029968879 -0.096725191 8.8888887e-05)
(-0.015295077 -0.069069673 0.00016755854)
(-0.0051395826 -0.040374526 0.00026238155)
(-0.00065677713 -0.012516753 0.00035437782)
(-0.00056331268 0.018560584 0.00030212787)
(-0.0035838465 0.049895624 0.00039516303)
(-0.0097506871 0.075760354 0.00044256966)
(-0.018048829 0.096611127 0.00047833197)
(-0.027902367 0.11297213 0.0005102209)
(-0.038929181 0.12537904 0.00054025513)
(-0.050796442 0.13433659 0.0005702296)
(-0.063230194 0.14028993 0.00060173464)
(-0.076014753 0.14360812 0.000635781)
(-0.088980581 0.14457807 0.00067284398)
(-0.10199308 0.14340673 0.00071293864)
(-0.11494275 0.14022935 0.00075566304)
(-0.12773626 0.13512164 0.00080023222)
(-0.14028834 0.12811393 0.0008455069)
(-0.15251461 0.11920591 0.0008900194)
(-0.16432514 0.10838113 0.00093200242)
(-0.17561862 0.095620746 0.00096942706)