/*--------------------------------*- C++ -*----------------------------------*\
  =========                 |
  \\      /  F ield         | OpenFOAM: The Open Source CFD Toolbox
   \\    /   O peration     | Website:  https://openfoam.org
    \\  /    A nd           | Version:  7
     \\/     M anipulation  |
\*---------------------------------------------------------------------------*/
FoamFile
{
    version     2.0;
    format      ascii;
    class       volVectorField;
    location    "17";
    object      U_0;
}
// * * * * * * * * * * * * * * * * * * * * * * * * * * * * * * * * * * * * * //

dimensions      [0 1 -1 0 0 0 0];

internalField   nonuniform List<vector> 
16000
(
(6.6048747e-05 -6.7293936e-05 -3.9745326e-07)
(0.00016273581 -5.6322431e-05 5.7067882e-06)
(0.00014187023 4.7995145e-07 1.9204641e-05)
(-5.0663136e-05 6.1891451e-05 3.6623402e-05)
(-0.00040996753 0.00011561776 5.4727332e-05)
(-0.00090893787 0.0001577197 7.1550566e-05)
(-0.0015175126 0.00018847285 8.5757418e-05)
(-0.002206556 0.00020957171 9.6532907e-05)
(-0.002950126 0.00022283565 0.00010341676)
(-0.0037258357 0.00022976756 0.00010616209)
(-0.0045142635 0.00023143228 0.00010464168)
(-0.0052980677 0.00022845895 9.8792585e-05)
(-0.0060610922 0.00022110331 8.8590297e-05)
(-0.0067876149 0.00020934097 7.4045529e-05)
(-0.0074618303 0.00019297478 5.5217123e-05)
(-0.0080676108 0.00017174615 3.2235348e-05)
(-0.0085885627 0.00014544313 5.3301711e-06)
(-0.009008366 0.00011400065 -2.5140444e-05)
(-0.0093113696 7.7588661e-05 -5.8666554e-05)
(-0.0094833979 3.6684249e-05 -9.4570471e-05)
(-0.0095127139 -7.8791768e-06 -0.00013200263)
(-0.0093910466 -5.4906099e-05 -0.00016995204)
(-0.0091146269 -0.00010281501 -0.00020727255)
(-0.0086851241 -0.00014971124 -0.00024272673)
(-0.008110362 -0.00019346552 -0.00027504532)
(-0.0074047381 -0.00023183287 -0.00030299992)
(-0.0065892525 -0.0002626028 -0.00032548445)
(-0.0056910843 -0.00028376728 -0.00034159908)
(-0.0047426891 -0.00029369011 -0.00035072949)
(-0.0037804366 -0.00029125883 -0.0003526141)
(-0.0028428557 -0.00027600119 -0.00034739259)
(-0.0019685931 -0.0002481521 -0.00033563142)
(-0.0011942011 -0.00020867116 -0.00031832556)
(-0.00055180189 -0.00015924717 -0.00029687927)
(-6.6681865e-05 -0.00010240623 -0.00027306152)
(0.00024474085 -4.1767517e-05 -0.00024892944)
(0.0003787858 1.7826572e-05 -0.00022686459)
(0.00034967849 6.7046181e-05 -0.00020930249)
(0.00020613987 8.9833123e-05 -0.00019891451)
(5.7456695e-05 5.7401902e-05 -0.00018446334)
(5.7993359e-05 -0.00016694148 -6.6224739e-06)
(4.0858212e-05 -3.9884496e-05 -3.6714218e-07)
(-0.00029497612 0.00024857468 1.1264377e-05)
(-0.0010109241 0.00056205816 2.5627142e-05)
(-0.00209894 0.00084736113 4.0608122e-05)
(-0.003513533 0.001082927 5.4611708e-05)
(-0.0051937992 0.0012640626 6.6510919e-05)
(-0.0070753614 0.0013937964 7.555356e-05)
(-0.0090964665 0.0014776671 8.1257835e-05)
(-0.011200186 0.0015212207 8.3324145e-05)
(-0.01333447 0.0015289001 8.1569298e-05)
(-0.015451172 0.0015036681 7.5883485e-05)
(-0.017504717 0.0014470611 6.6208484e-05)
(-0.019450881 0.001359501 5.2533632e-05)
(-0.021245957 0.001240752 3.4905135e-05)
(-0.022846459 0.001090444 1.3444278e-05)
(-0.024209453 0.00090860411 -1.162986e-05)
(-0.025293472 0.00069615626 -3.9977252e-05)
(-0.026059985 0.00045535318 -7.1117213e-05)
(-0.026475301 0.00019010898 -0.00010441555)
(-0.026512782 -9.3796667e-05 -0.00013908154)
(-0.026155111 -0.00038864013 -0.00017418381)
(-0.025396537 -0.00068489084 -0.0002086667)
(-0.024244865 -0.00097150049 -0.00024139806)
(-0.022722846 -0.0012363852 -0.00027122265)
(-0.020868903 -0.0014670807 -0.00029702936)
(-0.018736968 -0.0016515329 -0.0003178265)
(-0.016395296 -0.0017789685 -0.00033281875)
(-0.013924228 -0.0018407716 -0.00034147913)
(-0.011412922 -0.0018312865 -0.00034360883)
(-0.0089551646 -0.0017484687 -0.00033937849)
(-0.0066444748 -0.0015943321 -0.0003293465)
(-0.004568697 -0.0013751964 -0.00031445231)
(-0.0028042694 -0.0011018414 -0.00029598642)
(-0.0014102195 -0.00078986843 -0.00027553955)
(-0.00042189936 -0.00046060225 -0.0002549259)
(0.0001555158 -0.00014262431 -0.00023606029)
(0.00035654225 0.00012222231 -0.00022095961)
(0.00027517041 0.00027104136 -0.00021172387)
(9.0099551e-05 0.0002050516 -0.00019552912)
(1.9122626e-06 -0.00014886498 -2.0404469e-05)
(-0.00025602461 0.00029706503 -1.1785462e-05)
(-0.0010503006 0.0010235187 1.1056856e-07)
(-0.0023874317 0.001797256 1.3087494e-05)
(-0.0042386856 0.0025094503 2.6120048e-05)
(-0.0065443342 0.0031094583 3.8067431e-05)
(-0.0092233367 0.0035802116 4.8102821e-05)
(-0.012187585 0.0039226349 5.5665608e-05)
(-0.015349901 0.0041453315 6.0374107e-05)
(-0.018627269 0.0042587077 6.1971633e-05)
(-0.021941586 0.0042719262 6.0285387e-05)
(-0.025219069 0.0041916038 5.5197761e-05)
(-0.02838907 0.0040216377 4.663264e-05)
(-0.03138292 0.0037637538 3.4555007e-05)
(-0.034133195 0.0034184846 1.8981036e-05)
(-0.036573645 0.0029863606 -4.625483e-09)
(-0.038639876 0.0024691548 -2.2227989e-05)
(-0.040270803 0.0018710556 -4.7404497e-05)
(-0.041410769 0.0011996691 -7.5120589e-05)
(-0.042012204 0.00046676661 -0.00010482139)
(-0.042038592 -0.00031128168 -0.0001358091)
(-0.041467555 -0.0011134129 -0.00016724867)
(-0.04029379 -0.0019143053 -0.00019819316)
(-0.038531539 -0.0026851349 -0.00022761978)
(-0.036216351 -0.0033948184 -0.00025448074)
(-0.03340588 -0.0040116464 -0.00027776588)
(-0.030179488 -0.0045052229 -0.00029657281)
(-0.026636498 -0.0048485873 -0.0003101789)
(-0.022893032 -0.0050203576 -0.00031810841)
(-0.01907744 -0.0050067183 -0.00032018752)
(-0.015324464 -0.0048030854 -0.00031658071)
(-0.011768339 -0.0044153356 -0.00030780349)
(-0.0085351344 -0.0038605894 -0.00029470934)
(-0.0057345932 -0.0031677071 -0.0002784516)
(-0.0034517035 -0.0023778985 -0.00026042439)
(-0.0017381428 -0.0015461407 -0.00024218322)
(-0.00060389909 -0.00074427796 -0.00022533783)
(-8.2166075e-06 -6.6535461e-05 -0.00021148043)
(0.00015530709 0.00036021195 -0.00020229938)
(7.352484e-05 0.00035427262 -0.00018537718)
(-6.4676948e-05 5.0492314e-05 -3.8651058e-05)
(-0.00060827664 0.0010456758 -2.6113019e-05)
(-0.0019301757 0.0023813737 -1.2134629e-05)
(-0.0039456611 0.0037558432 1.1547888e-06)
(-0.0065876787 0.0050143411 1.3739321e-05)
(-0.009777177 0.0060788352 2.4859598e-05)
(-0.013414314 0.0069190915 3.3978441e-05)
(-0.017391849 0.0075325358 4.0760529e-05)
(-0.021603139 0.0079297243 4.4969859e-05)
(-0.025945157 0.008125323 4.6434586e-05)
(-0.03031937 0.0081330519 4.5024036e-05)
(-0.0346314 0.0079633301 4.0632049e-05)
(-0.038790094 0.0076227909 3.3171767e-05)
(-0.042706612 0.0071150541 2.2581044e-05)
(-0.046293968 0.0064422718 8.836281e-06)
(-0.049467287 0.0056070754 -8.0278959e-06)
(-0.052144874 0.0046146313 -2.7895989e-05)
(-0.054250115 0.0034745788 -5.0548762e-05)
(-0.055714082 0.0022026686 -7.5643068e-05)
(-0.056478692 0.00082196203 -0.00010269767)
(-0.056500173 -0.00063652036 -0.0001310881)
(-0.055752629 -0.0021338132 -0.00016004952)
(-0.054231371 -0.0036237153 -0.00018870006)
(-0.051955688 -0.0050542359 -0.00021607295)
(-0.048970833 -0.0063697677 -0.00024116559)
(-0.045348884 -0.0075139086 -0.00026300092)
(-0.041188248 -0.0084327995 -0.00028069709)
(-0.036611616 -0.0090787766 -0.00029353972)
(-0.031762255 -0.0094140848 -0.00030104942)
(-0.026798634 -0.0094143659 -0.00030303691)
(-0.021887472 -0.0090716464 -0.00029963843)
(-0.01719547 -0.0083966203 -0.00029132594)
(-0.01288001 -0.0074201598 -0.00027888943)
(-0.0090792653 -0.0061941992 -0.00026339219)
(-0.0059021305 -0.0047924278 -0.00024610277)
(-0.0034184332 -0.0033116141 -0.00022841095)
(-0.0016496144 -0.0018745809 -0.00021174311)
(-0.00055991455 -0.00063492648 -0.00019749155)
(-5.0195019e-05 0.00021472953 -0.00018689081)
(3.8066885e-05 0.00041367151 -0.00016807788)
(-0.00013084145 0.0004455558 -5.8161206e-05)
(-0.00097075067 0.0022423582 -4.1098211e-05)
(-0.0028456055 0.0043583994 -2.4219606e-05)
(-0.0055636042 0.0064559491 -9.7910562e-06)
(-0.0090074616 0.0083517666 3.123602e-06)
(-0.013072567 0.0099493657 1.4099544e-05)
(-0.017638359 0.011209366 2.2873765e-05)
(-0.022579655 0.012126989 2.9341341e-05)
(-0.027773454 0.0127148 3.3425011e-05)
(-0.033100763 0.012991368 3.5051963e-05)
(-0.038446985 0.012974607 3.4144987e-05)
(-0.043701497 0.012678545 3.061581e-05)
(-0.048756835 0.012112616 2.4367764e-05)
(-0.053507986 0.011282697 1.530752e-05)
(-0.057852212 0.010193258 3.3638796e-06)
(-0.061689605 0.0088500895 -1.1488522e-05)
(-0.0649245 0.0072631955 -2.920291e-05)
(-0.067467704 0.0054495038 -4.9633887e-05)
(-0.069239445 0.0034351419 -7.2513535e-05)
(-0.07017285 0.001257069 -9.7433164e-05)
(-0.070217738 -0.0010360984 -0.00012383365)
(-0.069344466 -0.003384205 -0.0001510069)
(-0.06754754 -0.0057166376 -0.00017811241)
(-0.064848677 -0.0079544899 -0.0002042088)
(-0.061299031 -0.010013737 -0.00022830161)
(-0.056980271 -0.011809341 -0.00024940503)
(-0.052004224 -0.013260107 -0.00026661355)
(-0.046510852 -0.014294037 -0.00027917751)
(-0.040664376 -0.014853821 -0.00028657439)
(-0.034647502 -0.014902082 -0.00028856753)
(-0.028653778 -0.014425953 -0.00028524365)
(-0.022878331 -0.013440663 -0.00027702308)
(-0.017507321 -0.011991942 -0.00026463951)
(-0.012706661 -0.0101573 -0.00024908997)
(-0.008610667 -0.0080465632 -0.00023155824)
(-0.0053113815 -0.0058024794 -0.00021332487)
(-0.0028484126 -0.0036023848 -0.00019570378)
(-0.0012000555 -0.0016607321 -0.00017995978)
(-0.00028885203 -0.00023408594 -0.0001668168)
(-2.4864919e-06 0.00035026774 -0.00014557771)
(-0.00019282301 0.0010311703 -7.6635209e-05)
(-0.0013236865 0.0038918311 -5.4734912e-05)
(-0.0037509953 0.0069666202 -3.4534961e-05)
(-0.0071716436 0.0099087648 -1.8445766e-05)
(-0.011412168 0.012524735 -4.6542784e-06)
(-0.016337707 0.014711333 6.7041522e-06)
(-0.021804592 0.016426938 1.5616494e-05)
(-0.027669521 0.01766818 2.2197187e-05)
(-0.03379467 0.01845125 2.6524572e-05)
(-0.040047743 0.018799164 2.862539e-05)
(-0.04630138 0.018734081 2.8476968e-05)
(-0.052432308 0.018273562 2.6008486e-05)
(-0.058320395 0.017429837 2.1110566e-05)
(-0.063848009 0.016211237 1.3653255e-05)
(-0.06889999 0.014624996 3.5102828e-06)
(-0.073364417 0.012680797 -9.4123095e-06)
(-0.077134234 0.010394491 -2.514503e-05)
(-0.080109685 0.0077915754 -4.3623453e-05)
(-0.082201454 0.0049100889 -6.4659156e-05)
(-0.083334336 0.00180266 -8.7916142e-05)
(-0.083451221 -0.0014624885 -0.00011289587)
(-0.082517164 -0.004801735 -0.00013893464)
(-0.080523268 -0.0081175225 -0.00016521523)
(-0.077490107 -0.0113012 -0.00019079676)
(-0.073470359 -0.01423718 -0.00021466155)
(-0.068550343 -0.016808341 -0.00023577833)
(-0.062850132 -0.018902469 -0.00025317769)
(-0.056521911 -0.020419433 -0.0002660332)
(-0.049746335 -0.021278665 -0.00027373954)
(-0.042726713 -0.021426421 -0.00027597808)
(-0.035681002 -0.020842273 -0.00027276014)
(-0.028831793 -0.019544293 -0.00026444058)
(-0.022394688 -0.017592579 -0.00025169782)
(-0.016565685 -0.015090988 -0.00023548081)
(-0.011508555 -0.012187335 -0.0002169249)
(-0.0073431663 -0.0090727778 -0.0001972556)
(-0.0041341992 -0.0059813294 -0.00017774696)
(-0.0018814945 -0.0031891043 -0.00015963337)
(-0.00053618839 -0.0010145946 -0.00014324205)
(-4.1253858e-05 0.00015873825 -0.00011914453)
(-0.00025005702 0.0017982546 -9.2116328e-05)
(-0.0016593738 0.0059829441 -6.5231111e-05)
(-0.0046233438 0.010196473 -4.1550564e-05)
(-0.0087300746 0.014103977 -2.3500633e-05)
(-0.01374832 0.017518504 -8.4669622e-06)
(-0.019510446 0.02034264 3.6672309e-06)
(-0.025848047 0.022540959 1.3113647e-05)
(-0.032599376 0.024116708 2.0188139e-05)
(-0.039612681 0.025092635 2.5112791e-05)
(-0.04674425 0.02549767 2.8005858e-05)
(-0.053856519 0.025358822 2.8893024e-05)
(-0.060816523 0.024697364 2.7715189e-05)
(-0.067494579 0.023528359 2.4344005e-05)
(-0.073763505 0.021862645 1.8605649e-05)
(-0.07949858 0.019710387 1.0310589e-05)
(-0.084578356 0.01708546 -7.1240692e-07)
(-0.088886345 0.014010004 -1.4579642e-05)
(-0.092313508 0.01051866 -3.131522e-05)
(-0.094761454 0.0066620706 -5.0815863e-05)
(-0.096146169 0.0025093667 -7.2820936e-05)
(-0.096402135 -0.0018506096 -9.6891144e-05)
(-0.095486594 -0.0063095096 -0.0001224005)
(-0.093383773 -0.010741215 -0.00014854263)
(-0.090108801 -0.015005249 -0.00017435812)
(-0.085710991 -0.018951817 -0.00019878021)
(-0.080276148 -0.022428445 -0.00022069989)
(-0.073927528 -0.025288014 -0.00023904605)
(-0.066825006 -0.02739787 -0.00025287408)
(-0.059162077 -0.028649508 -0.00026145353)
(-0.051160382 -0.028968182 -0.00026434416)
(-0.043061628 -0.028321703 -0.00026144906)
(-0.035116993 -0.026727642 -0.00025303593)
(-0.02757442 -0.02425832 -0.0002397213)
(-0.02066455 -0.021043187 -0.00022241743)
(-0.01458649 -0.017268625 -0.00020224237)
(-0.0094946961 -0.013175771 -0.00018041743)
(-0.0054859022 -0.009057209 -0.00015824659)
(-0.0025877136 -0.0052520685 -0.00013701894)
(-0.00078441559 -0.0021407197 -0.00011673839)
(-7.6874679e-05 -0.00016073979 -8.9527933e-05)
(-0.00030288012 0.0027359824 -0.00010293549)
(-0.0019750075 0.0084962923 -7.097086e-05)
(-0.005450795 0.014025507 -4.3829838e-05)
(-0.010215469 0.019017171 -2.3690704e-05)
(-0.015981299 0.023305897 -7.2006687e-06)
(-0.022547373 0.026812216 5.9830201e-06)
(-0.029720104 0.029515873 1.6274872e-05)
(-0.037319408 0.031432843 2.4172463e-05)
(-0.045180448 0.032596285 3.0025669e-05)
(-0.053149638 0.033043251 3.403135e-05)
(-0.061081336 0.032806739 3.6252726e-05)
(-0.068835381 0.031912202 3.6632849e-05)
(-0.07627522 0.030377652 3.5015426e-05)
(-0.083266782 0.028216368 3.1173819e-05)
(-0.089678238 0.02544131 2.4845969e-05)
(-0.095380679 0.022070374 1.5773733e-05)
(-0.10024969 0.0181318 3.7452116e-06)
(-0.10416772 0.013669153 -1.1361792e-05)
(-0.10702722 0.0087454655 -2.9537847e-05)
(-0.1087343 0.0034462048 -5.0604683e-05)
(-0.10921295 -0.0021191836 -7.4186467e-05)
(-0.10840946 -0.0078173528 -9.9695355e-05)
(-0.10629712 -0.01349287 -0.00012633063)
(-0.10288076 -0.018972006 -0.00015310263)
(-0.098200961 -0.024068473 -0.00017887607)
(-0.092337485 -0.028591158 -0.00020243643)
(-0.08541149 -0.032353714 -0.00022257513)
(-0.07758598 -0.03518569 -0.0002381869)
(-0.069063928 -0.036944664 -0.00024836962)
(-0.060083575 -0.037528604 -0.00025251461)
(-0.05091059 -0.036887493 -0.00025037452)
(-0.041827058 -0.035033139 -0.00024209765)
(-0.033117645 -0.032046165 -0.00022822176)
(-0.025053761 -0.028079412 -0.00020962496)
(-0.01787722 -0.023357486 -0.00018743217)
(-0.01178495 -0.018172833 -0.00016290632)
(-0.0069132207 -0.012879169 -0.00013744734)
(-0.0033234599 -0.0078817957 -0.00011248038)
(-0.0010367588 -0.0036261784 -8.7776312e-05)
(-0.00011092845 -0.00060718636 -5.7331615e-05)
(-0.00035160245 0.0038329972 -0.00010762958)
(-0.0022691121 0.011407825 -7.0480519e-05)
(-0.0062259246 0.018423149 -4.0010323e-05)
(-0.011611883 0.024614384 -1.7766026e-05)
(-0.018085906 0.029850806 2.9211332e-07)
(-0.025414898 0.034082202 1.4715571e-05)
(-0.033380772 0.037312376 2.6103798e-05)
(-0.041785856 0.039576498 3.5117292e-05)
(-0.050453274 0.040922515 4.2216824e-05)
(-0.059221052 0.041398354 4.7663064e-05)
(-0.067937366 0.041044552 5.1543771e-05)
(-0.07645707 0.039891483 5.3792592e-05)
(-0.084639106 0.037960296 5.4214686e-05)
(-0.092344871 0.035266544 5.2520337e-05)
(-0.099437593 0.031825548 4.8364508e-05)
(-0.10578269 0.027658578 4.1391107e-05)
(-0.11124905 0.022799126 3.1280802e-05)
(-0.11571114 0.017298662 1.7800712e-05)
(-0.11905188 0.011231462 8.533924e-07)
(-0.12116619 0.0046981511 -1.9477919e-05)
(-0.12196519 -0.0021722764 -4.2891947e-05)
(-0.1213808 -0.0092222015 -6.8847479e-05)
(-0.11937097 -0.016266983 -9.655251e-05)
(-0.11592502 -0.023098865 -0.00012498351)
(-0.11106901 -0.029493117 -0.000152924)
(-0.10487062 -0.035216645 -0.00017903072)
(-0.097443104 -0.040039027 -0.0002019232)
(-0.08894752 -0.043745714 -0.00022029067)
(-0.079592522 -0.04615287 -0.00023300645)
(-0.069630964 -0.047122965 -0.00023923674)
(-0.059352736 -0.046579894 -0.00023852913)
(-0.04907356 -0.044522191 -0.00023086679)
(-0.039119988 -0.041032811 -0.00021667861)
(-0.029811452 -0.03628423 -0.00019679981)
(-0.021441133 -0.030538097 -0.0001723777)
(-0.014257565 -0.024139605 -0.00014475682)
(-0.008445009 -0.017507328 -0.00011549564)
(-0.0041052366 -0.011118212 -8.6234528e-05)
(-0.0012999255 -0.0054894964 -5.6579398e-05)
(-0.00014464674 -0.001181846 -2.262291e-05)
(-0.0003962894 0.0050775333 -0.00010487985)
(-0.0025401626 0.014690131 -6.2407933e-05)
(-0.0069424863 0.02335262 -2.8810296e-05)
(-0.012906081 0.030853739 -4.5154688e-06)
(-0.020040811 0.037108892 1.51579e-05)
(-0.028083616 0.042107391 3.0958633e-05)
(-0.036793511 0.045885534 4.3656783e-05)
(-0.045956568 0.048504129 5.4058849e-05)
(-0.055385222 0.050030518 6.2720441e-05)
(-0.064910654 0.050526567 6.9951444e-05)
(-0.074376665 0.050042207 7.5850944e-05)
(-0.08363516 0.048613678 8.0331217e-05)
(-0.092542746 0.046265526 8.3147722e-05)
(-0.10095846 0.043015315 8.3936752e-05)
(-0.10874258 0.038880019 8.225889e-05)
(-0.11575653 0.033883185 7.7647504e-05)
(-0.12186366 0.028062085 6.9661514e-05)
(-0.12693094 0.021474298 5.7941036e-05)
(-0.13083145 0.01420328 4.2263586e-05)
(-0.13344764 0.0063626305 2.2598127e-05)
(-0.13467544 -0.0019012099 -8.4763075e-07)
(-0.13442906 -0.010408098 -2.7598306e-05)
(-0.13264662 -0.01894524 -5.688213e-05)
(-0.1292966 -0.027270834 -8.7647876e-05)
(-0.12438437 -0.035120225 -0.00011859344)
(-0.11795897 -0.042215074 -0.00014822921)
(-0.11011916 -0.048275617 -0.00017497035)
(-0.10101799 -0.053035922 -0.00019725306)
(-0.09086496 -0.056261666 -0.00021366557)
(-0.079924541 -0.05776948 -0.0002230801)
(-0.068510314 -0.057446394 -0.00022476875)
(-0.05697398 -0.055267483 -0.0002184861)
(-0.045689282 -0.051309584 -0.00020450468)
(-0.035031622 -0.045759104 -0.00018359286)
(-0.025355389 -0.038912512 -0.00015692455)
(-0.016971344 -0.03116926 -0.00012595855)
(-0.010121749 -0.023017843 -9.2471484e-05)
(-0.0049566427 -0.015014866 -5.839747e-05)
(-0.0015837068 -0.0077596763 -2.3230318e-05)
(-0.00017998334 -0.0018920162 1.4638511e-05)
(-0.00043676073 0.0064570775 -9.3484211e-05)
(-0.0027861575 0.018312651 -4.5514641e-05)
(-0.0075940416 0.028771655 -9.0394087e-06)
(-0.014085248 0.037686226 1.7207293e-05)
(-0.021825634 0.045027933 3.8504227e-05)
(-0.030525149 0.050834807 5.5789454e-05)
(-0.039922157 0.055183422 6.9991944e-05)
(-0.049788275 0.0581664 8.2049356e-05)
(-0.059926843 0.059875083 9.2597839e-05)
(-0.070163832 0.060388489 0.00010198332)
(-0.080340441 0.059767996 0.00011030415)
(-0.090307567 0.058056805 0.00011744016)
(-0.09992154 0.055283185 0.00012308656)
(-0.1090411 0.05146637 0.00012679485)
(-0.11752557 0.046624064 0.00012801936)
(-0.12523404 0.0407806 0.00012616896)
(-0.13202564 0.033975011 0.000120664)
(-0.13776054 0.026268469 0.00011099738)
(-0.14230194 0.0177507 9.6797859e-05)
(-0.14551894 0.0085451134 7.7893404e-05)
(-0.1472904 -0.0011875725 5.4370102e-05)
(-0.14750981 -0.011247422 2.6605672e-05)
(-0.14609137 -0.021395725 -4.6695664e-06)
(-0.14297742 -0.031357547 -3.8395097e-05)
(-0.13814636 -0.040827555 -7.3189541e-05)
(-0.13162146 -0.049479275 -0.00010740747)
(-0.12347948 -0.056978217 -0.00013923122)
(-0.11385811 -0.062999035 -0.00016679504)
(-0.1029612 -0.067246373 -0.0001883339)
(-0.091060114 -0.069478489 -0.00020234308)
(-0.078489965 -0.069531948 -0.0002077294)
(-0.065639533 -0.067345012 -0.00020393274)
(-0.052934465 -0.062976818 -0.00019099843)
(-0.040814296 -0.0566194 -0.00016958327)
(-0.029705511 -0.048600201 -0.00014087583)
(-0.01999345 -0.039374166 -0.00010647194)
(-0.011990525 -0.02950594 -6.8422941e-05)
(-0.0059052221 -0.019642289 -2.9036566e-05)
(-0.001899339 -0.010478433 1.2266848e-05)
(-0.00021908185 -0.0027503936 5.4608847e-05)
(-0.00047264205 0.0079579876 -7.2352156e-05)
(-0.0030045787 0.022241463 -1.8679107e-05)
(-0.0081735406 0.034632658 2.0388337e-05)
(-0.015136105 0.045056009 4.8461377e-05)
(-0.023419699 0.053547976 7.1369148e-05)
(-0.032710712 0.060203398 9.0232085e-05)
(-0.042729512 0.065146147 0.00010612807)
(-0.053235343 0.068506409 0.00012011297)
(-0.064024215 0.070403983 0.00013289135)
(-0.074918561 0.070938288 0.00014483423)
(-0.085758728 0.070184311 0.00015602933)
(-0.09639648 0.068193442 0.0001663149)
(-0.10668987 0.064998067 0.00017531689)
(-0.11649939 0.060618734 0.0001824923)
(-0.12568541 0.055072798 0.00018717756)
(-0.13410659 0.048383599 0.00018864237)
(-0.14161937 0.040589472 0.00018614962)
(-0.14807827 0.031752076 0.00017902106)
(-0.15333719 0.021963753 0.0001667073)
(-0.15725163 0.011353678 0.00014885932)
(-0.15968221 9.2660447e-05 0.00012539771)
(-0.16049955 -0.01160363 9.6583648e-05)
(-0.1595906 -0.023473835 6.3046192e-05)
(-0.15686662 -0.03521205 2.5827675e-05)
(-0.15227289 -0.046472627 -1.3630327e-05)
(-0.14579946 -0.05687891 -5.3528999e-05)
(-0.13749263 -0.066036686 -9.1797242e-05)
(-0.12746586 -0.073552868 -0.00012622017)
(-0.11590878 -0.079059382 -0.00015460535)
(-0.10309245 -0.082241463 -0.00017497364)
(-0.089368831 -0.082868585 -0.00018575431)
(-0.07516269 -0.080825129 -0.00018595807)
(-0.060954822 -0.076137001 -0.00017530172)
(-0.047256643 -0.068989978 -0.00015425691)
(-0.034578391 -0.059736078 -0.00012399202)
(-0.023394227 -0.048885937 -8.6248095e-05)
(-0.014101538 -0.037087283 -4.3403607e-05)
(-0.0069804892 -0.025089812 1.7764886e-06)
(-0.0022586996 -0.013701645 4.9918144e-05)
(-0.00026410946 -0.0037758028 9.747848e-05)
(-0.00050342976 0.0095651898 -4.0514152e-05)
(-0.0031925347 0.026439008 1.9090905e-05)
(-0.0086734334 0.040882629 6.0437104e-05)
(-0.016044913 0.052900476 9.0194902e-05)
(-0.024801927 0.062601291 0.00011469109)
(-0.034610968 0.070143657 0.00013522136)
(-0.04517725 0.075704925 0.00015300338)
(-0.056249849 0.079458082 0.00016919996)
(-0.067619246 0.081555602 0.00018457432)
(-0.079105996 0.08212051 0.0001995144)
(-0.090551279 0.081243645 0.0002140903)
(-0.10180953 0.078985935 0.00022809234)
(-0.11274248 0.075384385 0.00024107074)
(-0.12321445 0.070460546 0.00025238026)
(-0.13308898 0.064230302 0.00026122903)
(-0.14222643 0.05671407 0.00026673311)
(-0.15048253 0.047946736 0.00026797791)
(-0.1577079 0.037986918 0.00026408721)
(-0.16374844 0.026925326 0.00025429915)
(-0.16844688 0.0148921 0.0002380466)
(-0.17164559 0.0020629828 0.00021503941)
(-0.17319125 -0.011335919 0.00018535384)
(-0.17294116 -0.025025163 0.00014947823)
(-0.17077173 -0.038671552 0.00010838352)
(-0.16658946 -0.051891059 6.3532032e-05)
(-0.16034372 -0.064256232 1.685629e-05)
(-0.15204118 -0.075309202 -2.931219e-05)
(-0.14176058 -0.084581237 -7.2369526e-05)
(-0.12966641 -0.091619298 -0.00010961989)
(-0.11601917 -0.096019192 -0.00013849958)
(-0.10117956 -0.097463598 -0.00015682384)
(-0.085603957 -0.09576173 -0.00016302606)
(-0.069828984 -0.09088582 -0.00015635383)
(-0.054444353 -0.082998654 -0.00013698116)
(-0.040055975 -0.072466504 -0.00010598842)
(-0.027242933 -0.05985368 -6.5248321e-05)
(-0.016505543 -0.045897828 -1.751157e-05)
(-0.0082126875 -0.031466205 3.391054e-05)
(-0.002673962 -0.01750003 8.9669873e-05)
(-0.00031725122 -0.0049934528 0.00014339092)
(-0.00052856067 0.011262007 2.859963e-06)
(-0.0033470064 0.030863943 6.8639863e-05)
(-0.0090861066 0.047463163 0.00011192838)
(-0.016798053 0.061150306 0.00014321953)
(-0.02595153 0.072112339 0.00016927775)
(-0.036196847 0.080577298 0.00019156577)
(-0.047226911 0.086781291 0.00021143222)
(-0.058782802 0.090944767 0.00023013716)
(-0.0706512 0.093256808 0.00024849521)
(-0.082652337 0.093867174 0.00026690628)
(-0.094629805 0.092884877 0.00028541935)
(-0.10644243 0.090381868 0.00030377398)
(-0.11795748 0.086400438 0.00032144156)
(-0.12904526 0.080962964 0.00033766978)
(-0.13957475 0.074082827 0.00035153049)
(-0.14941039 0.065775595 0.00036197308)
(-0.15840972 0.056069868 0.00036788576)
(-0.16642191 0.04501747 0.00036816619)
(-0.17328716 0.032702853 0.0003618021)
(-0.17883738 0.019251712 0.00034796065)
(-0.18289814 0.0048387235 0.00032608438)
(-0.18529265 -0.010305794 0.00029599303)
(-0.18584775 -0.025890566 0.00025796846)
(-0.18440261 -0.041560544 0.0002128391)
(-0.18082044 -0.056897261 0.00016202652)
(-0.17500299 -0.071423977 0.00010755399)
(-0.16690784 -0.084617164 5.1999179e-05)
(-0.15656726 -0.095925902 -1.6206328e-06)
(-0.1441072 -0.10480031 -5.0036037e-05)
(-0.12976385 -0.11072929 -8.9980934e-05)
(-0.11389428 -0.11328621 -0.00011849719)
(-0.096977666 -0.11217927 -0.00013325501)
(-0.079603188 -0.10730068 -0.00013284394)
(-0.062442684 -0.098767082 -0.00011697613)
(-0.046209019 -0.086942939 -8.6529873e-05)
(-0.031603841 -0.072440293 -4.3462866e-05)
(-0.019251749 -0.056092184 9.0702289e-06)
(-0.0096319192 -0.038899316 6.7117353e-05)
(-0.0031574201 -0.021959262 0.00013133801)
(-0.00038073229 -0.006434998 0.00019236803)
(-0.0005474844 0.01303015 5.8437676e-05)
(-0.0034651571 0.035471259 0.00013064294)
(-0.0094045344 0.054310702 0.00017551884)
(-0.017383014 0.069729771 0.00020818494)
(-0.026849305 0.081997962 0.00023577555)
(-0.037441132 0.091417161 0.00025991059)
(-0.048841797 0.09828656 0.00028206115)
(-0.060786386 0.10287813 0.0003035763)
(-0.073059329 0.10542119 0.00032531767)
(-0.08548192 0.10609529 0.00034769569)
(-0.097901578 0.10503002 0.00037073872)
(-0.11018308 0.10231001 0.00039413691)
(-0.12220112 0.097983742 0.00041728376)
(-0.13383401 0.092074488 0.00043931905)
(-0.14495864 0.084592321 0.00045917385)
(-0.15544625 0.075546227 0.00047562088)
(-0.16515919 0.064955816 0.00048733339)
(-0.17394836 0.052862396 0.00049295549)
(-0.18165166 0.039339426 0.00049118557)
(-0.18809343 0.024502421 0.00048087301)
(-0.19308546 0.0085183745 0.00046112743)
(-0.19642985 -0.0083854395 0.00043143758)
(-0.19792426 -0.025913604 0.00039178885)
(-0.19737016 -0.043696642 0.00034277652)
(-0.19458469 -0.061288059 0.00028569419)
(-0.18941637 -0.078166142 0.00022258335)
(-0.18176463 -0.093742618 0.00015622343)
(-0.1716028 -0.1073804 9.0043182e-05)
(-0.15900281 -0.11842254 2.7938647e-05)
(-0.14415913 -0.1262336 -2.6006163e-05)
(-0.12740798 -0.13025305 -6.7883239e-05)
(-0.10923678 -0.13005765 -9.4375773e-05)
(-0.090278523 -0.12542646 -0.00010317038)
(-0.071286714 -0.11639871 -9.328748e-05)
(-0.053090407 -0.1033129 -6.5225392e-05)
(-0.036532228 -0.086816579 -2.0930736e-05)
(-0.02238582 -0.067840449 3.6030538e-05)
(-0.011267416 -0.047534779 0.00010096918)
(-0.0037213842 -0.027179687 0.0001745326)
(-0.00045685035 -0.0081385687 0.0002442324)
(-0.00055973905 0.014849891 0.00012669932)
(-0.0035446914 0.040212765 0.00020558463)
(-0.0096230868 0.061357212 0.00025167948)
(-0.017789672 0.078557429 0.00028555536)
(-0.027479372 0.092167946 0.00031464137)
(-0.038320647 0.10256749 0.0003407032)
(-0.0499896 0.11012169 0.00036532623)
(-0.062217057 0.11515749 0.00038994234)
(-0.074786499 0.11794779 0.00041545887)
(-0.087521438 0.11870493 0.00044229929)
(-0.10027433 0.11758157 0.00047047618)
(-0.11291735 0.11467694 0.00049963632)
(-0.12533428 0.1100469 0.00052910104)
(-0.13741359 0.10371604 0.00055790606)
(-0.14904254 0.095690688 0.00058484185)
(-0.16010218 0.085971908 0.00060849881)
(-0.1704631 0.074567978 0.00062732154)
(-0.1799819 0.061506287 0.00063967637)
(-0.18849848 0.046844754 0.00064393517)
(-0.19583433 0.030682986 0.00063857741)
(-0.20179215 0.013173363 0.0006223108)
(-0.20615735 -0.0054679501 0.00059420885)
(-0.20870198 -0.024950354 0.00055385905)
(-0.20919192 -0.044899389 0.000501512)
(-0.20739798 -0.0648497 0.00043821824)
(-0.20311187 -0.084242379 0.00036593033)
(-0.19616733 -0.10242922 0.00028754608)
(-0.18646653 -0.11868693 0.00020686466)
(-0.1740105 -0.13224451 0.00012842932)
(-0.15893141 -0.1423265 5.7239647e-05)
(-0.14152211 -0.14821311 -1.6653541e-06)
(-0.12225709 -0.14931531 -4.3725692e-05)
(-0.10179712 -0.1452586 -6.5420599e-05)
(-0.080970495 -0.13596357 -6.4769431e-05)
(-0.060727617 -0.12170787 -4.1628047e-05)
(-0.042069869 -0.10315287 2.2359711e-06)
(-0.025947673 -0.081323306 6.2880157e-05)
(-0.013146781 -0.05753377 0.00013478806)
(-0.0043780912 -0.033275667 0.00021857256)
(-0.00054801345 -0.010148785 0.00029852062)
(-0.00056503013 0.016700443 0.00020791593)
(-0.0035842515 0.04503799 0.00029374086)
(-0.0097384566 0.068531354 0.00034067896)
(-0.018011812 0.08754736 0.00037559083)
(-0.027831277 0.10252611 0.00040611916)
(-0.038818912 0.11392473 0.00043416276)
(-0.050645619 0.12217766 0.00046141422)
(-0.063039344 0.12766973 0.00048938465)
(-0.075783625 0.13072047 0.0005190295)
(-0.088705106 0.13157801 0.00055079226)
(-0.1016623 0.13042073 0.0005846794)
(-0.11453599 0.12736464 0.0006203053)
(-0.12722067 0.12247453 0.00065693006)
(-0.13961698 0.11577717 0.00069349448)
(-0.1516251 0.10727524 0.00072865407)
(-0.16313902 0.096961078 0.000760817)
(-0.17404137 0.084829888 0.00078819134)
(-0.18419896 0.070892325 0.00080884715)
(-0.19345895 0.05518675 0.00082079787)
(-0.20164585 0.037791494 0.00082210473)
(-0.20855961 0.018837474 0.00081100625)
(-0.21397547 -0.0014786905 0.00078607305)
(-0.21764601 -0.022881198 0.0007463856)
(-0.21930644 -0.045001872 0.00069172169)
(-0.21868413 -0.067368504 0.00062274743)
(-0.21551358 -0.089396622 0.00054118283)
(-0.20955788 -0.1103877 0.00044991459)
(-0.20063742 -0.12953753 0.00035301939)
(-0.18866547 -0.14595927 0.00025565758)
(-0.17368895 -0.15872567 0.0001638027)
(-0.15593005 -0.16693363 8.378974e-05)
(-0.13582176 -0.16979157 2.1695418e-05)
(-0.11402766 -0.16672387 -1.7391966e-05)
(-0.091435066 -0.15748 -3.0092228e-05)
(-0.069114081 -0.14222792 -1.5249193e-05)
(-0.048239744 -0.12160782 2.5817265e-05)
(-0.029968861 -0.096725125 8.8891456e-05)
(-0.015295067 -0.069069627 0.00016756221)
(-0.0051395789 -0.040374498 0.00026238565)
(-0.00065677643 -0.012516744 0.00035438159)
(-0.0005633122 0.018560567 0.00030213259)
(-0.0035838437 0.049895572 0.00039516788)
(-0.0097506801 0.075760275 0.00044257432)
(-0.018048816 0.096611027 0.00047833592)
(-0.027902348 0.11297201 0.00051022403)
(-0.038929155 0.12537891 0.00054025731)
(-0.050796408 0.13433646 0.00057023055)
(-0.063230153 0.14028979 0.00060173428)
(-0.076014704 0.14360799 0.00063577931)
(-0.088980526 0.14457794 0.00067284117)
(-0.10199301 0.14340661 0.00071293506)
(-0.11494269 0.14022924 0.0007556592)
(-0.12773619 0.13512154 0.00080022858)
(-0.14028826 0.12811384 0.00084550374)
(-0.15251453 0.11920584 0.0008900168)
(-0.16432506 0.10838107 0.00093200023)
(-0.17561854 0.095620705 0.00096942494)