/*--------------------------------*- C++ -*----------------------------------*\
  =========                 |
  \\      /  F ield         | OpenFOAM: The Open Source CFD Toolbox
   \\    /   O peration     | Website:  https://openfoam.org
    \\  /    A nd           | Version:  7
     \\/     M anipulation  |
\*---------------------------------------------------------------------------*/
FoamFile
{
    version     2.0;
    format      ascii;
    class       volScalarField;
    location    "68";
    object      p;
}
// * * * * * * * * * * * * * * * * * * * * * * * * * * * * * * * * * * * * * //

dimensions      [0 2 -2 0 0 0 0];

internalField   nonuniform List<scalar> 
8800
(
0.86712
0.819334
0.780648
0.751657
0.730799
0.715977
0.705395
0.697935
0.693143
0.691125
0.692435
0.696661
0.703332
0.712667
0.725461
0.743204
0.767988
0.801933
0.844486
0.903188
0.698363
0.706042
0.713522
0.716833
0.715334
0.710264
0.703789
0.697729
0.693031
0.690222
0.689986
0.692533
0.697054
0.703023
0.709809
0.7161
0.719748
0.719016
0.713602
0.704916
0.676758
0.682918
0.687048
0.689997
0.692054
0.692668
0.691576
0.689494
0.687509
0.686645
0.687654
0.690075
0.692904
0.695107
0.695729
0.694541
0.692207
0.68882
0.684264
0.680503
0.670933
0.673584
0.67634
0.678748
0.68039
0.681563
0.682321
0.682463
0.682202
0.6822
0.683005
0.684219
0.685091
0.68518
0.684588
0.68351
0.681703
0.679139
0.67674
0.675237
0.665532
0.666958
0.66874
0.670779
0.672571
0.673925
0.674933
0.675758
0.676412
0.677031
0.677741
0.678287
0.678424
0.678164
0.677488
0.676254
0.67457
0.67273
0.671427
0.670595
0.66043
0.661351
0.662596
0.66417
0.665812
0.667351
0.668657
0.669756
0.670766
0.671722
0.67248
0.672866
0.672868
0.672462
0.671606
0.670424
0.669111
0.667861
0.667043
0.666491
0.655491
0.656161
0.657128
0.658438
0.659858
0.661332
0.662796
0.664154
0.665405
0.666585
0.667487
0.667923
0.667891
0.667422
0.666646
0.665721
0.664726
0.663815
0.663235
0.662828
0.650668
0.651185
0.651973
0.653112
0.654402
0.655794
0.657267
0.658781
0.660268
0.661689
0.66279
0.663342
0.663379
0.663043
0.662476
0.661779
0.661027
0.660358
0.659929
0.659611
0.645888
0.646299
0.64696
0.647975
0.649195
0.650544
0.65202
0.653622
0.655312
0.657007
0.658364
0.659118
0.659357
0.659247
0.658908
0.658426
0.657883
0.657408
0.657091
0.656832
0.641064
0.641399
0.641971
0.642908
0.644082
0.645418
0.646934
0.64864
0.650525
0.65252
0.654208
0.655268
0.655794
0.655944
0.655842
0.65559
0.655245
0.654932
0.654699
0.654482
0.636106
0.636383
0.636894
0.637787
0.638945
0.640308
0.641902
0.643755
0.645878
0.64822
0.650324
0.651778
0.652648
0.653097
0.653256
0.653235
0.653088
0.652919
0.652755
0.652566
0.630924
0.631156
0.631629
0.632507
0.633688
0.635123
0.636838
0.638892
0.641319
0.644093
0.646706
0.648632
0.649905
0.650699
0.651149
0.651368
0.651424
0.651387
0.651279
0.65111
0.625423
0.625621
0.626074
0.626967
0.628214
0.629765
0.631656
0.633978
0.636791
0.640104
0.643335
0.645824
0.647569
0.648757
0.649535
0.650013
0.650287
0.650376
0.650315
0.65016
0.619501
0.61967
0.620121
0.621058
0.622412
0.62413
0.626264
0.628935
0.632237
0.636216
0.640194
0.643356
0.645659
0.6473
0.648453
0.649243
0.649736
0.649946
0.649926
0.649778
0.613036
0.613181
0.613645
0.614656
0.616164
0.618108
0.620563
0.623678
0.627593
0.632389
0.637271
0.641236
0.6442
0.646377
0.647959
0.649093
0.649834
0.65017
0.650187
0.650043
0.605888
0.606008
0.606499
0.607615
0.609328
0.611568
0.614433
0.618113
0.622789
0.628582
0.634555
0.639478
0.643223
0.646032
0.648122
0.649647
0.65067
0.651138
0.651189
0.651044
0.597864
0.59797
0.598504
0.599759
0.601735
0.60435
0.607738
0.612126
0.617744
0.624753
0.632039
0.638103
0.64277
0.646322
0.64902
0.651009
0.652343
0.652948
0.65303
0.652881
0.588746
0.588845
0.589436
0.590853
0.59316
0.596264
0.600316
0.605589
0.612371
0.620863
0.629722
0.637139
0.642894
0.64732
0.650737
0.653265
0.654953
0.655703
0.655814
0.655657
0.578209
0.578289
0.578969
0.580611
0.583356
0.587083
0.591969
0.598353
0.606577
0.616873
0.627613
0.636622
0.643655
0.649111
0.653347
0.656519
0.658603
0.659504
0.659638
0.659468
0.565873
0.56594
0.56672
0.568673
0.571975
0.576503
0.582456
0.590248
0.600265
0.612755
0.625728
0.636599
0.645112
0.651765
0.65696
0.660867
0.663381
0.664431
0.664583
0.664397
0.551174
0.551229
0.552153
0.554523
0.558566
0.564145
0.571488
0.581081
0.59334
0.608491
0.624096
0.637122
0.647325
0.655346
0.66165
0.666379
0.669347
0.670534
0.670692
0.670488
0.533337
0.533381
0.534518
0.537474
0.542531
0.549533
0.558728
0.570661
0.585738
0.604102
0.622775
0.638252
0.650364
0.659923
0.667443
0.673093
0.67651
0.677807
0.677955
0.67773
0.511186
0.511227
0.512714
0.516556
0.523073
0.532077
0.54381
0.558833
0.577454
0.59967
0.621861
0.640068
0.654278
0.665535
0.674379
0.680982
0.684804
0.686159
0.686278
0.686033
0.482953
0.483016
0.485097
0.490368
0.499161
0.511106
0.526418
0.545544
0.568591
0.59535
0.621495
0.642663
0.659116
0.672169
0.682429
0.689945
0.694062
0.695396
0.695465
0.695202
0.445573
0.445739
0.449042
0.45695
0.46958
0.486028
0.506443
0.530958
0.559418
0.591404
0.621863
0.646142
0.664918
0.679811
0.691492
0.699772
0.703999
0.70521
0.705208
0.704933
0.393163
0.394163
0.400738
0.414072
0.433376
0.456792
0.484248
0.515571
0.550406
0.588183
0.623177
0.650611
0.671698
0.68837
0.701353
0.710135
0.714215
0.7152
0.71512
0.714843
0.316707
0.324098
0.339313
0.362827
0.392067
0.424816
0.460876
0.500036
0.541931
0.585968
0.625789
0.656565
0.680113
0.698689
0.712866
0.72191
0.725683
0.726432
0.726303
0.726062
0.234573
0.252039
0.276688
0.311001
0.35058
0.392792
0.437501
0.484658
0.533968
0.584886
0.630356
0.665174
0.691629
0.712373
0.727835
0.736665
0.739727
0.740188
0.740088
0.739925
0.166092
0.186666
0.2191
0.262591
0.311284
0.362401
0.415497
0.470494
0.527066
0.584649
0.635468
0.674026
0.703081
0.725566
0.741479
0.749733
0.752288
0.75269
0.75265
0.752529
0.110008
0.13225
0.170239
0.220212
0.276108
0.334726
0.395242
0.457436
0.520834
0.584764
0.640654
0.682699
0.714094
0.737951
0.754345
0.76241
0.76475
0.765116
0.765111
0.76502
0.0633517
0.0867739
0.128573
0.183689
0.245373
0.310186
0.377076
0.445673
0.515331
0.585212
0.645933
0.691305
0.724953
0.750282
0.767265
0.775262
0.777623
0.777973
0.777996
0.77793
0.0238479
0.047921
0.092605
0.151784
0.218338
0.288427
0.360861
0.43516
0.510537
0.585995
0.651333
0.699947
0.735828
0.76259
0.78028
0.788679
0.791062
0.791404
0.791433
0.791383
-0.0105479
0.013939
0.0608892
0.123429
0.1941
0.268782
0.346141
0.425601
0.506268
0.586983
0.656753
0.708519
0.746606
0.774842
0.793453
0.802222
0.804751
0.805107
0.805139
0.80511
-0.0413492
-0.0165063
0.0322885
0.0976933
0.171923
0.250641
0.332428
0.416613
0.502206
0.587918
0.661973
0.716834
0.757107
0.786812
0.80626
0.815521
0.81826
0.818638
0.818671
0.818655
-0.0695428
-0.0443865
0.00598194
0.0738676
0.151225
0.233529
0.319305
0.407829
0.498052
0.588561
0.666797
0.724686
0.767071
0.798214
0.818502
0.828201
0.831166
0.831617
0.831629
0.831615
-0.0959483
-0.0704353
-0.0186532
0.0514013
0.131553
0.217061
0.306453
0.398987
0.493578
0.58871
0.671055
0.731927
0.776375
0.808878
0.829922
0.840049
0.843186
0.843678
0.843675
0.843649
-0.120955
-0.0950895
-0.0419978
0.0299258
0.112581
0.200969
0.293649
0.389888
0.488594
0.588208
0.674632
0.738483
0.78495
0.818732
0.840424
0.850822
0.854087
0.854589
0.854551
0.854512
-0.145018
-0.118736
-0.064608
0.00920007
0.09408
0.185058
0.280727
0.380381
0.482967
0.586934
0.67745
0.744326
0.792794
0.827733
0.849913
0.8605
0.863797
0.864282
0.864211
0.864155
-0.168274
-0.141496
-0.0864335
-0.0109621
0.0759028
0.169205
0.267582
0.370382
0.476614
0.584804
0.679448
0.749454
0.799967
0.835989
0.858519
0.869108
0.872371
0.872825
0.872722
0.87265
-0.190878
-0.16368
-0.107576
-0.0306738
0.0579737
0.153353
0.254167
0.359837
0.469471
0.581741
0.680564
0.753883
0.806571
0.843661
0.866373
0.876798
0.879929
0.880333
0.880209
0.88012
-0.212963
-0.185267
-0.12818
-0.0499805
0.0402487
0.137479
0.240473
0.34874
0.461516
0.57769
0.680741
0.757611
0.812724
0.850924
0.873662
0.883726
0.886606
0.886918
0.886767
0.886665
-0.234593
-0.206291
-0.148315
-0.0688978
0.02274
0.121594
0.226525
0.337112
0.452753
0.572609
0.67991
0.76062
0.818519
0.858004
0.880618
0.890052
0.892498
0.892667
0.892491
0.892383
-0.255617
-0.226745
-0.167912
-0.0874157
0.00546289
0.105746
0.212366
0.325009
0.443221
0.5665
0.677993
0.762849
0.823999
0.865127
0.887592
0.89604
0.897745
0.897672
0.897482
0.897381
-0.276027
-0.246607
-0.18697
-0.105497
-0.0115388
0.0899818
0.198073
0.312494
0.43298
0.559369
0.674925
0.76418
0.829127
0.872485
0.895065
0.902249
0.902675
0.90206
0.901851
0.901814
-0.295892
-0.26585
-0.205478
-0.123121
-0.0282109
0.0743748
0.183721
0.299658
0.422109
0.551266
0.67064
0.764458
0.833758
0.880101
0.90353
0.909637
0.90815
0.906239
0.905819
0.906113
-0.315056
-0.284464
-0.223386
-0.140239
-0.0445026
0.0590002
0.169399
0.286604
0.410712
0.542267
0.665106
0.763488
0.837625
0.887711
0.913153
0.919366
0.916248
0.911963
0.909986
0.909984
-0.333612
-0.302442
-0.240716
-0.156888
-0.0604491
0.0438147
0.155051
0.273277
0.398725
0.532304
0.658186
0.76099
0.840443
0.894877
0.923487
0.931947
0.929353
0.922173
0.914723
0.901226
-0.351493
-0.319772
-0.257582
-0.173265
-0.0763282
0.0284983
0.140278
0.259217
0.385641
0.520777
0.649283
0.756249
0.841747
0.90105
0.933103
0.94561
0.944085
0.93046
0.909708
0.899372
-0.368533
-0.336609
-0.273802
-0.18918
-0.0917868
0.0133876
0.125296
0.244735
0.371747
0.507915
0.638403
0.748708
0.840579
0.904998
0.937959
0.950525
0.950611
0.925487
0.858285
0.828333
-0.384076
-0.354227
-0.28907
-0.204159
-0.106024
-0.00101693
0.110424
0.230059
0.357255
0.493828
0.625446
0.737984
0.83534
0.905897
0.932672
0.940186
0.925254
0.868873
0.799499
0.757012
-0.438708
-0.36975
-0.302866
-0.219333
-0.120705
-0.0162082
0.0955884
0.214896
0.341779
0.478029
0.609749
0.72331
0.821929
0.899431
0.900413
0.899262
0.844562
0.771336
0.693652
0.650444
-0.400393
-0.38448
-0.323446
-0.23881
-0.142436
-0.0379737
0.0727952
0.191484
0.317443
0.452418
0.582477
0.694843
0.786494
0.869771
0.851867
0.732733
0.623969
0.54835
0.473618
0.502507
-0.430619
-0.401617
-0.339709
-0.255922
-0.159593
-0.0552502
0.0558001
0.173863
0.298777
0.431999
0.559357
0.667556
0.7494
0.79352
0.741413
0.587143
0.455915
0.362251
0.262347
0.310857
-0.453886
-0.421967
-0.358943
-0.275034
-0.178589
-0.0743576
0.0366091
0.153839
0.277358
0.408192
0.531837
0.633746
0.706472
0.715582
0.604693
0.428147
0.272618
0.151689
0.0193407
0.0513472
-0.476598
-0.4432
-0.379057
-0.294251
-0.197739
-0.093672
0.0167569
0.133015
0.254932
0.382968
0.501881
0.595721
0.6527
0.629978
0.467174
0.267827
0.0753968
-0.0940509
-0.28336
-0.302909
-0.49871
-0.464897
-0.399906
-0.31435
-0.217722
-0.113897
-0.00413939
0.111012
0.231052
0.355859
0.469273
0.554852
0.591899
0.53199
0.336136
0.123014
-0.0959184
-0.286283
-0.528739
-0.824782
-0.52111
-0.487313
-0.421817
-0.33581
-0.239025
-0.135395
-0.0262443
0.0877545
0.205792
0.327075
0.434612
0.511551
0.526726
0.415146
0.221971
0.00962366
-0.196363
-0.369804
-0.440216
-0.518699
-0.544743
-0.510904
-0.445139
-0.358942
-0.262137
-0.158802
-0.0503565
0.0623072
0.178008
0.295206
0.396411
0.461992
0.451676
0.306296
0.120352
-0.0729469
-0.237693
-0.331833
-0.356207
-0.372019
-0.569911
-0.535967
-0.470039
-0.383819
-0.287187
-0.184325
-0.0768326
0.0341834
0.147113
0.259554
0.353922
0.404859
0.376565
0.205104
0.0281844
-0.139944
-0.268287
-0.308018
-0.320836
-0.32213
-0.596814
-0.562672
-0.496582
-0.410437
-0.314123
-0.211969
-0.105692
0.00333348
0.113045
0.220134
0.306704
0.34287
0.294224
0.111654
-0.0561481
-0.206675
-0.284153
-0.301294
-0.302648
-0.302454
-0.625508
-0.591082
-0.524793
-0.438796
-0.342964
-0.241723
-0.136938
-0.0302562
0.0758152
0.177027
0.254884
0.279124
0.193785
0.0263039
-0.133024
-0.257023
-0.294228
-0.292689
-0.291831
-0.291247
-0.655711
-0.621024
-0.554573
-0.46881
-0.373625
-0.273535
-0.17054
-0.0665577
0.035466
0.130347
0.199369
0.206286
0.102583
-0.0528228
-0.193942
-0.271066
-0.28149
-0.28421
-0.284912
-0.28465
-0.686875
-0.652042
-0.585666
-0.500257
-0.405921
-0.307251
-0.206349
-0.105439
-0.00781179
0.0804619
0.140686
0.13231
0.0207882
-0.119777
-0.238715
-0.270583
-0.279066
-0.280498
-0.28026
-0.279965
-0.718537
-0.6836
-0.617618
-0.532743
-0.439513
-0.342552
-0.244086
-0.146611
-0.053727
0.0280774
0.0779229
0.0621905
-0.0543818
-0.173922
-0.268774
-0.286457
-0.277711
-0.276827
-0.276816
-0.276586
-0.749801
-0.714985
-0.649581
-0.565673
-0.473862
-0.378972
-0.283306
-0.189596
-0.10181
-0.0261556
0.0139105
-0.0018556
-0.120434
-0.214833
-0.269077
-0.279708
-0.277037
-0.275864
-0.275312
-0.275088
-0.779132
-0.745025
-0.680582
-0.598134
-0.508212
-0.415818
-0.323364
-0.233716
-0.151259
-0.0816322
-0.0450723
-0.0721294
-0.174244
-0.254041
-0.254202
-0.273381
-0.277597
-0.275907
-0.275227
-0.274804
-0.80492
-0.77188
-0.709499
-0.628963
-0.541538
-0.452169
-0.363405
-0.278132
-0.200945
-0.137468
-0.100909
-0.139164
-0.220491
-0.281328
-0.298187
-0.289274
-0.284265
-0.282008
-0.281016
-0.28037
-0.825051
-0.79374
-0.734233
-0.656756
-0.572565
-0.486905
-0.402358
-0.321834
-0.249757
-0.192344
-0.157956
-0.192196
-0.254096
-0.328121
-0.353124
-0.318754
-0.299055
-0.294402
-0.292178
-0.291056
-0.83731
-0.8087
-0.752978
-0.679617
-0.599813
-0.518719
-0.439049
-0.363639
-0.296665
-0.244613
-0.212219
-0.232829
-0.257761
-0.31445
-0.305824
-0.29845
-0.298203
-0.29763
-0.296548
-0.296418
-0.839088
-0.814516
-0.763745
-0.695774
-0.621601
-0.546206
-0.472169
-0.402323
-0.340578
-0.293089
-0.256733
-0.262335
-0.23239
-0.216597
-0.238921
-0.265478
-0.278981
-0.284599
-0.287246
-0.28813
-0.828156
-0.808389
-0.76437
-0.703642
-0.63647
-0.567904
-0.50039
-0.436617
-0.380404
-0.33709
-0.294486
-0.291425
-0.24438
-0.165778
-0.219041
-0.269018
-0.291067
-0.299749
-0.303124
-0.304151
-0.802612
-0.787784
-0.753065
-0.701969
-0.643416
-0.582813
-0.522541
-0.46518
-0.414805
-0.376324
-0.33237
-0.342698
-0.36452
-0.365483
-0.380195
-0.370191
-0.358367
-0.35196
-0.349173
-0.348826
-0.765005
-0.75546
-0.73066
-0.6909
-0.642396
-0.590627
-0.537902
-0.486931
-0.441955
-0.408918
-0.384597
-0.409433
-0.512166
-0.697371
-0.672319
-0.506235
-0.406655
-0.369997
-0.359456
-0.356089
-0.722012
-0.716596
-0.701959
-0.673216
-0.635302
-0.592069
-0.54648
-0.501108
-0.46005
-0.429944
-0.406289
-0.396834
-0.360684
-0.348704
-0.323086
-0.27947
-0.265222
-0.261224
-0.257237
-0.253899
-0.683309
-0.680031
-0.67306
-0.654264
-0.625048
-0.588985
-0.549284
-0.507695
-0.467653
-0.433839
-0.411692
-0.327606
-0.151996
0.0724543
0.237736
0.157842
-0.0026538
-0.120162
-0.156192
-0.166369
-0.65537
-0.653324
-0.649739
-0.638323
-0.615486
-0.584468
-0.548254
-0.508358
-0.46604
-0.427449
-0.402028
-0.351675
-0.316887
-0.37199
-0.572578
-0.828203
-0.974843
-0.943844
-0.825913
-0.791921
-0.634222
-0.63344
-0.632251
-0.626605
-0.609372
-0.581293
-0.545846
-0.504674
-0.459557
-0.413197
-0.381129
-0.388008
-0.518045
-0.839845
-1.22719
-1.43495
-1.48658
-1.37256
-1.21919
-1.1496
-0.62206
-0.621808
-0.621278
-0.618748
-0.606423
-0.579605
-0.542871
-0.499105
-0.448996
-0.389659
-0.342657
-0.303141
-0.373797
-0.512635
-0.703935
-0.791299
-0.676403
-0.464372
-0.290017
-0.208615
-0.613437
-0.613368
-0.613053
-0.612303
-0.604459
-0.579312
-0.540967
-0.493339
-0.435376
-0.366859
-0.289981
-0.193363
-0.0679651
0.112281
0.347697
0.585129
0.861592
1.07577
1.19096
1.23261
-0.607066
-0.606996
-0.606687
-0.606557
-0.601547
-0.580594
-0.541125
-0.488628
-0.424458
-0.344079
-0.240431
-0.134273
0.0832057
0.445808
0.881186
1.31327
1.65599
1.8606
1.94644
1.96831
-0.603419
-0.603148
-0.602271
-0.600465
-0.598863
-0.584578
-0.544684
-0.487633
-0.417605
-0.326963
-0.217672
-0.102339
0.10497
0.497816
0.939812
1.34024
1.64493
1.81662
1.88344
1.89813
-0.603967
-0.604386
-0.60543
-0.606507
-0.607215
-0.595139
-0.552105
-0.492313
-0.41791
-0.324412
-0.215591
-0.102774
0.0488133
0.393654
0.753613
1.07171
1.30268
1.42718
1.47339
1.48258
-0.60541
-0.606761
-0.610466
-0.618412
-0.624327
-0.606119
-0.560975
-0.502564
-0.426746
-0.331542
-0.227955
-0.123324
-0.00750916
0.248263
0.517628
0.739472
0.896579
0.97648
1.00451
1.00795
-0.622843
-0.623212
-0.617261
-0.598303
-0.579292
-0.57489
-0.563998
-0.519953
-0.443073
-0.346514
-0.247748
-0.154602
-0.0631312
0.112087
0.289689
0.428755
0.521645
0.564946
0.58138
0.585799
-0.669879
-0.667407
-0.648721
-0.60159
-0.55868
-0.566126
-0.589334
-0.548898
-0.463916
-0.362966
-0.272043
-0.192918
-0.121519
0.00141813
0.117473
0.195901
0.240872
0.26195
0.272357
0.276711
-0.754134
-0.756216
-0.773988
-0.800939
-0.79977
-0.774176
-0.719922
-0.60487
-0.488779
-0.379167
-0.292966
-0.228066
-0.174276
-0.0851427
-0.00512443
0.0489359
0.0782776
0.0933074
0.102646
0.105786
-0.903693
-0.927233
-0.984106
-1.03619
-1.0443
-0.99831
-0.853732
-0.666447
-0.508281
-0.387343
-0.305698
-0.256011
-0.221025
-0.141797
-0.0716546
-0.0216854
0.0120883
0.0311477
0.0399761
0.0416063
-0.974996
-1.00052
-1.04339
-1.07919
-1.08445
-1.03081
-0.870588
-0.66669
-0.499572
-0.377951
-0.303093
-0.265205
-0.237699
-0.168878
-0.104922
-0.0576991
-0.0223095
-0.00317612
0.00389881
0.00466431
-0.853213
-0.874624
-0.910343
-0.944443
-0.951609
-0.897883
-0.743778
-0.581361
-0.444489
-0.342677
-0.280293
-0.250183
-0.224115
-0.167257
-0.114366
-0.0727256
-0.0414635
-0.0235828
-0.016919
-0.0172932
-0.55225
-0.570073
-0.603666
-0.640788
-0.658391
-0.624016
-0.535397
-0.438191
-0.353394
-0.285932
-0.239343
-0.211261
-0.186693
-0.145742
-0.107571
-0.0771931
-0.0545692
-0.0412672
-0.0371334
-0.037774
-0.200098
-0.210679
-0.233217
-0.265856
-0.295793
-0.30804
-0.301557
-0.279475
-0.250546
-0.217507
-0.18768
-0.161869
-0.138769
-0.116556
-0.0942741
-0.0751398
-0.0604319
-0.0520979
-0.0498787
-0.0510948
0.0542042
0.0490308
0.0337161
0.00473065
-0.0375079
-0.0828665
-0.119441
-0.144655
-0.154727
-0.149963
-0.135228
-0.115719
-0.0986148
-0.0891219
-0.0800937
-0.0714319
-0.0634999
-0.0590669
-0.0583
-0.0598297
0.17213
0.169004
0.157778
0.132642
0.0911128
0.0386883
-0.0129261
-0.0546017
-0.0818327
-0.0933666
-0.0893272
-0.0776271
-0.069303
-0.0701581
-0.0714698
-0.0711062
-0.0708512
-0.0716368
-0.0728802
-0.0741984
0.197571
0.195502
0.187316
0.167932
0.134478
0.090663
0.0433646
0.000133546
-0.033045
-0.0518285
-0.0545933
-0.0501093
-0.0492686
-0.0572577
-0.0660922
-0.0745263
-0.0814162
-0.0877864
-0.0905702
-0.0912541
0.180663
0.179336
0.173741
0.160129
0.136127
0.103388
0.0654285
0.0284337
-0.00289066
-0.0235816
-0.0296917
-0.02752
-0.0296749
-0.0431448
-0.059271
-0.0735118
-0.085891
-0.094721
-0.0977424
-0.0979839
0.149803
0.14902
0.145385
0.136301
0.119891
0.0966471
0.0680972
0.0384639
0.0113871
-0.0081775
-0.0147838
-0.0110031
-0.0116342
-0.0307993
-0.0508402
-0.0669952
-0.0796123
-0.0871795
-0.0894125
-0.089645
0.116959
0.116637
0.114386
0.108523
0.0975938
0.0814837
0.0607076
0.0378184
0.0150625
-0.0037453
-0.0129581
-0.0115232
-0.0121602
-0.0309538
-0.0482711
-0.0604514
-0.0687818
-0.0726942
-0.073813
-0.0741878
0.08705
0.0867888
0.0854208
0.0817202
0.0745615
0.0635799
0.0487432
0.0312966
0.0121921
-0.00739732
-0.0241617
-0.0350387
-0.0421861
-0.0515809
-0.0566182
-0.059022
-0.060615
-0.0609059
-0.0611923
-0.0617098
0.060944
0.0608425
0.0600224
0.0577868
0.0532489
0.045917
0.0355591
0.0224656
0.00646692
-0.0138921
-0.040696
-0.0745193
-0.0920247
-0.0823777
-0.0705986
-0.062507
-0.0587125
-0.0570841
-0.0567085
-0.0570829
0.0386457
0.0386179
0.0382057
0.0369985
0.0343893
0.0298683
0.0231149
0.0139777
0.00167057
-0.0174559
-0.0487972
-0.095215
-0.116159
-0.0943795
-0.0727177
-0.0621948
-0.0579073
-0.0561147
-0.0552399
-0.0551947
0.0197701
0.0197982
0.0196693
0.0191794
0.0179345
0.0156953
0.0121403
0.0070064
-0.000272135
-0.0133006
-0.0378014
-0.0758248
-0.0885909
-0.067611
-0.0518023
-0.0463278
-0.0452222
-0.0448299
-0.0439258
-0.043496
0.00342966
0.00348847
0.00345117
0.00353555
0.00370837
0.00359368
0.00309397
0.00225742
0.000958319
-0.00106372
-0.00510338
-0.0137072
-0.0200028
-0.0173234
-0.01657
-0.0157064
-0.014819
-0.0136167
-0.0126236
-0.0117303
-0.0577545
0.108024
0.301217
0.469747
0.603895
0.708898
0.79536
0.869038
0.902823
0.879603
0.241455
0.361191
0.489871
0.600841
0.69409
0.771013
0.833253
0.877495
0.899644
0.911844
0.457905
0.539917
0.627822
0.705281
0.771794
0.827412
0.871665
0.904043
0.927528
0.945594
0.617132
0.675897
0.736702
0.79325
0.842333
0.884039
0.918335
0.945739
0.968389
0.98674
0.741454
0.784133
0.829706
0.873104
0.911469
0.944999
0.97373
0.997678
1.01798
1.03584
0.845077
0.877699
0.915551
0.950842
0.983262
1.01235
1.03778
1.05919
1.07698
1.09434
0.937192
0.96574
0.999537
1.03152
1.06135
1.08842
1.11209
1.13175
1.14722
1.1643
1.02552
1.05463
1.08854
1.12049
1.15002
1.17654
1.19936
1.21781
1.23116
1.24819
1.12068
1.15383
1.19041
1.22394
1.25394
1.28008
1.30201
1.31926
1.33111
1.34851
1.23558
1.27337
1.31198
1.34619
1.37551
1.40024
1.42059
1.43646
1.44792
1.46598
1.38047
1.41899
1.45511
1.48577
1.51143
1.53352
1.55256
1.56808
1.5805
1.59849
1.55551
1.58712
1.61329
1.63572
1.65569
1.6744
1.69211
1.70858
1.72392
1.74199
1.7441
1.7613
1.77633
1.79255
1.80845
1.82297
1.83617
1.8501
1.86764
1.88779
1.92581
1.93534
1.94688
1.95768
1.96697
1.97655
1.98733
1.99869
2.01005
2.0254
2.13303
2.13669
2.12175
2.10694
2.10066
2.10633
2.12481
2.15512
2.18729
2.21395
2.43936
2.30449
2.22785
2.18546
2.16803
2.172
2.1994
2.25581
2.35843
2.58279
0.757717
0.755589
0.751106
0.742485
0.730265
0.718143
0.707924
0.700043
0.694446
0.69122
0.690899
0.69367
0.698799
0.706039
0.715439
0.726987
0.739644
0.750682
0.756796
0.759852
0.682161
0.688009
0.694344
0.69884
0.701315
0.700997
0.69827
0.694475
0.690987
0.688756
0.688645
0.690876
0.694565
0.698873
0.702693
0.704585
0.703655
0.700179
0.695018
0.688398
0.673721
0.676018
0.679424
0.682424
0.684504
0.686008
0.686775
0.686475
0.685473
0.684622
0.684836
0.6863
0.688143
0.689469
0.689664
0.688784
0.687243
0.684912
0.681653
0.678734
0.668189
0.669275
0.671111
0.673493
0.675523
0.67696
0.677993
0.678764
0.679192
0.67945
0.679985
0.680833
0.681462
0.681552
0.681156
0.68032
0.67886
0.676783
0.674701
0.67332
0.662957
0.66362
0.66473
0.66644
0.668229
0.669871
0.671182
0.672219
0.673132
0.673964
0.674743
0.675342
0.675572
0.675432
0.674885
0.673846
0.672429
0.670894
0.669581
0.668803
0.657945
0.658405
0.659194
0.660497
0.661993
0.663522
0.665004
0.666326
0.667497
0.668601
0.669575
0.670197
0.670385
0.670144
0.669471
0.6685
0.667389
0.666267
0.665358
0.664843
0.653071
0.653415
0.654028
0.655103
0.656407
0.657794
0.659252
0.660726
0.662139
0.663475
0.664654
0.66541
0.665639
0.665403
0.664834
0.664081
0.663248
0.662394
0.66173
0.661353
0.648281
0.648548
0.649043
0.649959
0.651139
0.652451
0.653868
0.655389
0.656975
0.658559
0.659988
0.660935
0.661299
0.661227
0.660871
0.660341
0.659715
0.659093
0.65861
0.658323
0.64349
0.643702
0.644115
0.64492
0.646022
0.647288
0.648699
0.650271
0.651995
0.653825
0.655552
0.656774
0.657387
0.657565
0.657447
0.657143
0.656728
0.656301
0.65596
0.655735
0.63861
0.638781
0.639135
0.639868
0.640925
0.642173
0.643615
0.645275
0.647164
0.649259
0.651343
0.652935
0.653883
0.654358
0.654501
0.654434
0.654237
0.653987
0.653763
0.653584
0.633552
0.633689
0.634001
0.634691
0.635734
0.637008
0.63852
0.640313
0.64242
0.644838
0.647357
0.64941
0.650761
0.651582
0.652021
0.652208
0.652227
0.65215
0.652027
0.651883
0.628223
0.628333
0.628618
0.629289
0.630351
0.631698
0.633325
0.635304
0.637698
0.640524
0.643579
0.646186
0.648013
0.649233
0.65001
0.650475
0.650724
0.65082
0.650784
0.650667
0.622525
0.622612
0.622881
0.623558
0.624676
0.626137
0.627935
0.630169
0.632928
0.636269
0.639981
0.643253
0.645643
0.647329
0.648487
0.649278
0.649781
0.650042
0.650084
0.649989
0.616348
0.616414
0.616676
0.617381
0.618594
0.620217
0.622248
0.624817
0.628042
0.632022
0.636535
0.640607
0.643667
0.645901
0.647499
0.648655
0.649441
0.649882
0.649999
0.64992
0.609559
0.609605
0.609869
0.610625
0.611971
0.613813
0.616151
0.619147
0.62296
0.62773
0.633216
0.638249
0.642105
0.644986
0.647103
0.648669
0.649781
0.650418
0.650608
0.650542
0.602004
0.60203
0.602297
0.603126
0.604651
0.606775
0.609507
0.613045
0.617593
0.623333
0.63
0.636184
0.640983
0.644626
0.647359
0.649417
0.650899
0.651746
0.652008
0.651952
0.593463
0.593476
0.593754
0.594684
0.596444
0.598914
0.602153
0.606376
0.611837
0.618769
0.626863
0.634421
0.640339
0.644878
0.648337
0.650986
0.652888
0.653965
0.654301
0.654252
0.583651
0.583635
0.583965
0.585039
0.587087
0.590016
0.593896
0.598979
0.605578
0.613973
0.623791
0.632981
0.640217
0.645814
0.650123
0.653459
0.655852
0.657181
0.657589
0.657542
0.572255
0.572215
0.572594
0.57386
0.576279
0.5798
0.584493
0.590665
0.598688
0.608882
0.620775
0.631893
0.640668
0.647501
0.65281
0.656935
0.659889
0.661486
0.661963
0.661914
0.558786
0.558718
0.559177
0.560697
0.563603
0.567893
0.573641
0.581209
0.591026
0.603435
0.617813
0.631194
0.641747
0.649999
0.656474
0.661509
0.665082
0.666953
0.667488
0.667431
0.542579
0.542483
0.543069
0.544944
0.548502
0.553822
0.560968
0.570357
0.582458
0.597597
0.614934
0.630934
0.643517
0.653381
0.66117
0.667231
0.671477
0.673612
0.674186
0.674115
0.522685
0.522562
0.523353
0.525746
0.530224
0.536974
0.546028
0.557843
0.572879
0.591379
0.612202
0.631187
0.646043
0.657701
0.666924
0.674133
0.679062
0.681424
0.682009
0.681915
0.497662
0.497524
0.498652
0.50185
0.507721
0.516565
0.528328
0.543443
0.562268
0.584872
0.609744
0.63206
0.649391
0.662994
0.673778
0.682182
0.687747
0.690257
0.690811
0.690687
0.465168
0.465053
0.466799
0.471394
0.479582
0.491695
0.507431
0.527075
0.550746
0.578278
0.607748
0.633682
0.653631
0.669271
0.681676
0.691271
0.697332
0.699862
0.700336
0.700177
0.420998
0.421051
0.424159
0.431664
0.444153
0.461599
0.483225
0.508974
0.538677
0.57195
0.606478
0.636206
0.658833
0.676531
0.690538
0.701194
0.707484
0.709857
0.710202
0.71001
0.357274
0.358507
0.366108
0.380114
0.400474
0.426405
0.456327
0.489853
0.526692
0.566358
0.606215
0.639774
0.665022
0.684689
0.700123
0.711508
0.717715
0.71969
0.719863
0.719652
0.281776
0.283588
0.298142
0.322203
0.353579
0.389526
0.428483
0.470274
0.514725
0.561377
0.607327
0.645515
0.674032
0.696086
0.713106
0.725123
0.730985
0.732622
0.732747
0.73262
0.203932
0.21022
0.23171
0.266103
0.307946
0.353619
0.401566
0.451663
0.503795
0.557521
0.609687
0.652592
0.684359
0.708792
0.727566
0.73963
0.744664
0.745791
0.745859
0.745807
0.140233
0.148869
0.174949
0.216416
0.266463
0.320417
0.376465
0.434332
0.493786
0.554312
0.612417
0.65973
0.694493
0.720912
0.740551
0.752535
0.757213
0.758246
0.75836
0.758367
0.0884353
0.0976716
0.127326
0.174063
0.230296
0.290926
0.353824
0.418552
0.484694
0.551593
0.615329
0.666822
0.704366
0.732637
0.75329
0.765447
0.769885
0.770845
0.771016
0.77107
0.0451302
0.0546472
0.0867612
0.137514
0.198827
0.264997
0.333709
0.404442
0.476608
0.549395
0.618457
0.673968
0.714224
0.744359
0.766072
0.778442
0.782893
0.784041
0.784238
0.784331
0.00794267
0.0175624
0.0515132
0.105479
0.171
0.2419
0.315683
0.391743
0.469379
0.547641
0.621762
0.681152
0.724069
0.756029
0.778834
0.791823
0.796574
0.797784
0.797978
0.798078
-0.0248159
-0.0151739
0.0201804
0.076857
0.145905
0.220887
0.299166
0.380036
0.46271
0.546102
0.62505
0.688204
0.733737
0.767551
0.791587
0.805207
0.810281
0.811585
0.811773
0.811853
-0.054446
-0.0447813
-0.00828055
0.0507351
0.122808
0.201373
0.283661
0.368905
0.456237
0.544481
0.628086
0.694919
0.743013
0.77862
0.803767
0.818114
0.82355
0.824934
0.825106
0.825168
-0.0818513
-0.0721569
-0.0346708
0.0263995
0.10115
0.182891
0.26877
0.358001
0.449677
0.542544
0.630677
0.701117
0.751718
0.789052
0.815305
0.830249
0.836096
0.83754
0.837678
0.837707
-0.107614
-0.0978681
-0.059471
0.00333289
0.0804998
0.16508
0.2542
0.347085
0.442813
0.54009
0.632651
0.706673
0.759737
0.798733
0.825996
0.841461
0.847579
0.84907
0.849186
0.849184
-0.132231
-0.122366
-0.0830807
-0.0187837
0.0605696
0.14769
0.239744
0.335971
0.435478
0.536968
0.633892
0.711522
0.76705
0.807639
0.835806
0.851622
0.857884
0.859401
0.85949
0.859455
-0.155992
-0.145922
-0.105923
-0.0401321
0.0411616
0.130548
0.225253
0.324537
0.427558
0.53308
0.634318
0.715615
0.773659
0.815795
0.844702
0.860748
0.867036
0.868521
0.868579
0.868518
-0.179013
-0.168755
-0.12807
-0.0608631
0.0221425
0.113565
0.210647
0.312711
0.418987
0.528335
0.633843
0.718932
0.779612
0.823326
0.852858
0.868958
0.875131
0.876539
0.876574
0.876492
-0.201492
-0.190965
-0.149537
-0.0810836
0.00345043
0.0966865
0.195894
0.300468
0.409731
0.522689
0.632403
0.721439
0.784975
0.830377
0.860435
0.876403
0.882334
0.88361
0.883595
0.883495
-0.223383
-0.212602
-0.170488
-0.100852
-0.0149358
0.0799059
0.181003
0.287818
0.39979
0.516112
0.629937
0.723088
0.7898
0.837108
0.867658
0.883266
0.888765
0.889831
0.889755
0.889636
-0.24476
-0.233699
-0.190857
-0.120167
-0.0330132
0.0632394
0.166
0.274804
0.3892
0.508606
0.626391
0.723811
0.794094
0.843677
0.874798
0.889796
0.894542
0.895263
0.895115
0.894992
-0.265481
-0.254206
-0.210642
-0.138992
-0.0507484
0.0467454
0.150938
0.261482
0.378018
0.500209
0.621726
0.72352
0.797803
0.850186
0.882199
0.896426
0.89999
0.900054
0.899777
0.899676
-0.285684
-0.274087
-0.229845
-0.15732
-0.0681194
0.0304537
0.135898
0.247923
0.366318
0.490986
0.615934
0.722099
0.800792
0.856627
0.890176
0.903833
0.905791
0.904537
0.903863
0.903817
-0.305216
-0.293324
-0.248444
-0.175118
-0.0850548
0.0144422
0.120956
0.234238
0.3542
0.480989
0.609036
0.719427
0.80286
0.862817
0.89881
0.912791
0.913322
0.909934
0.907789
0.907164
-0.324142
-0.311967
-0.266392
-0.192342
-0.101526
-0.00122548
0.106187
0.220502
0.341768
0.470345
0.601086
0.715377
0.80375
0.868385
0.907693
0.923553
0.924234
0.919064
0.912811
0.904985
-0.342384
-0.329975
-0.283783
-0.209146
-0.117737
-0.0168131
0.0912721
0.206333
0.3286
0.458585
0.591593
0.70945
0.803037
0.873102
0.916344
0.935713
0.939156
0.933481
0.922372
0.917885
-0.359898
-0.347271
-0.300605
-0.225507
-0.133702
-0.0323171
0.0762186
0.191709
0.314642
0.445578
0.580336
0.701222
0.799888
0.876171
0.92285
0.945333
0.950886
0.947813
0.9096
0.858002
-0.376407
-0.363077
-0.316708
-0.241356
-0.149523