/*--------------------------------*- C++ -*----------------------------------*\
  =========                 |
  \\      /  F ield         | OpenFOAM: The Open Source CFD Toolbox
   \\    /   O peration     | Website:  https://openfoam.org
    \\  /    A nd           | Version:  7
     \\/     M anipulation  |
\*---------------------------------------------------------------------------*/
FoamFile
{
    version     2.0;
    format      ascii;
    class       volScalarField;
    location    "2.3";
    object      p;
}
// * * * * * * * * * * * * * * * * * * * * * * * * * * * * * * * * * * * * * //

dimensions      [1 -1 -2 0 0 0 0];

internalField   nonuniform List<scalar> 
19968
(
1
1
1
1
1
1
1
1
1
1
1
1
1
1
1
1
1
1
1
1
1
1
1
1
1
1
1
1
1
1
1
1
1
1
1
1
1
1
1
1
1
1
1
1
1
1
1
1
1
2.68032
9.31925
10.4721
10.4959
10.5595
10.6191
10.6894
10.762
10.8321
10.8928
10.9414
10.9814
11.0205
11.0659
11.1235
11.1908
11.2554
11.3077
11.3463
11.3753
11.4032
11.4382
11.4807
11.5264
11.5706
11.6099
11.6435
11.6726
11.7008
11.7314
11.7657
11.8033
11.8421
11.8792
11.9115
11.9369
11.9547
11.9658
11.9732
11.9805
11.99
12.0059
12.0271
12.0513
12.0749
12.093
12.1064
1
1
1
1
1
1
1
1
1
1
1
1
1
1
1
1
1
1
1
1
1
1
1
1
1
1
1
1
1
1
1
1
1
1
1
1
1
1
1
1
1
1
1
1
1
1
1
1
1
2.62108
9.26423
10.4615
10.4959
10.556
10.6175
10.688
10.7604
10.83
10.8904
10.9389
10.979
11.0183
11.064
11.1218
11.1887
11.2528
11.3048
11.3433
11.373
11.4019
11.4374
11.4796
11.5243
11.5671
11.6055
11.6386
11.6679
11.6967
11.7275
11.7613
11.7981
11.8362
11.8728
11.9049
11.9305
11.9485
11.9601
11.9679
11.9755
11.9851
12.0007
12.0212
12.0446
12.0675
12.085
12.0981
1
1
1
1
1
1
1
1
1
1
1
1
1
1
1
1
1
1
1
1
1
1
1
1
1
1
1
1
1
1
1
1
1
1
1
1
1
1
1
1
1
1
1
1
1
1
1
1
1
2.48583
9.14755
10.4536
10.484
10.5471
10.6106
10.6817
10.7546
10.8241
10.8843
10.933
10.9735
11.0131
11.0588
11.1164
11.1829
11.2464
11.2988
11.3377
11.3687
11.3987
11.4345
11.4757
11.519
11.5601
11.5976
11.6306
11.6606
11.6901
11.721
11.7544
11.7903
11.8274
11.8634
11.8953
11.921
11.9394
11.9516
11.96
11.9677
11.977
11.9912
12.01
12.032
12.0538
12.0706
12.0832
1
1
1
1
1
1
1
1
1
1
1
1
1
1
1
1
1
1
1
1
1
1
1
1
1
1
1
1
1
1
1
1
1
1
1
1
1
1
1
1
1
1
1
1
1
1
1
1
1
2.27719
8.96458
10.4414
10.4744
10.5392
10.6036
10.6745
10.747
10.8161
10.8758
10.9242
10.9647
11.0044
11.0499
11.1068
11.1725
11.2353
11.2883
11.3281
11.3609
11.3924
11.4285
11.4684
11.51
11.549
11.5852
11.6178
11.6481
11.678
11.7089
11.7415
11.776
11.8119
11.847
11.8788
11.9048
11.924
11.9374
11.9469
11.9554
11.9645
11.9774
11.9937
12.0132
12.0329
12.0486
12.0605
1
1
1
1
1
1
1
1
1
1
1
1
1
1
1
1
1
1
1
1
1
1
1
1
1
1
1
1
1
1
1
1
1
1
1
1
1
1
1
1
1
1
1
1
1
1
1
1
1
2.00687
8.68479
10.4335
10.4688
10.5323
10.5957
10.6658
10.7382
10.8071
10.8669
10.9154
10.9559
10.9954
11.04
11.0954
11.1589
11.2198
11.2726
11.3129
11.3476
11.3804
11.4164
11.4551
11.4949
11.5322
11.5672
11.5996
11.6303
11.6607
11.6915
11.7234
11.7565
11.791
11.8252
11.8565
11.8828
11.9027
11.9173
11.9283
11.9379
11.9474
11.9588
11.9718
11.9877
12.0044
12.0185
12.0295
1
1
1
1
1
1
1
1
1
1
1
1
1
1
1
1
1
1
1
1
1
1
1
1
1
1
1
1
1
1
1
1
1
1
1
1
1
1
1
1
1
1
1
1
1
1
1
1
1
1.69427
8.2603
10.4247
10.4672
10.5282
10.5879
10.6559
10.7276
10.7962
10.8558
10.9045
10.9452
10.9841
11.027
11.0799
11.1406
11.1987
11.2509
11.2918
11.3285
11.3622
11.3984
11.4367
11.4757
11.5125
11.5471
11.5795
11.6098
11.6395
11.6689
11.6988
11.7296
11.7619
11.7944
11.8247
11.8507
11.8712
11.8871
11.9
11.9114
11.9219
11.9321
11.942
11.9538
11.9667
11.9786
11.9882
1
1
1
1
1
1
1
1
1
1
1
1
1
1
1
1
1
1
1
1
1
1
1
1
1
1
1
1
1
1
1
1
1
1
1
1
1
1
1
1
1
1
1
1
1
1
1
1
1
1.40163
7.70146
10.4161
10.456
10.521
10.5784
10.6443
10.7145
10.7814
10.8392
10.8865
10.9261
10.9636
11.0044
11.0544
11.1116
11.1665
11.2181
11.2603
11.2997
11.3365
11.3744
11.4131
11.4508
11.4869
11.521
11.5533
11.5829
11.6114
11.6388
11.6662
11.6941
11.7241
11.7548
11.7839
11.8095
11.8302
11.8472
11.8617
11.8751
11.887
11.897
11.9046
11.9129
11.9222
11.9315
11.9394
1
1
1
1
1
1
1
1
1
1
1
1
1
1
1
1
1
1
1
1
1
1
1
1
1
1
1
1
1
1
1
1
1
1
1
1
1
1
1
1
1
1
1
1
1
1
1
1
1
1.04689
6.83293
10.4311
10.481
10.5318
10.5872
10.6464
10.7122
10.7765
10.833
10.8799
10.9192
10.9551
10.9932
11.0396
11.0928
11.1443
11.1936
11.2353
11.2744
11.3112
11.3468
11.3822
11.4147
11.4466
11.478
11.5088
11.5375
11.5651
11.5911
11.6164
11.6422
11.6705
11.7002
11.729
11.7549
11.7766
11.7949
11.8113
11.8265
11.8401
11.8506
11.8572
11.8629
11.8689
11.875
11.8804
1
1
1
1
1
1
1
1
1
1
1
1
1
1
1
1
1
1
1
1
1
1
1
1
1
1
1
1
1
1
1
1
1
1
1
1
1
1
1
1
1
1
1
1
1
1
1
1
1
1.0003
5.73615
10.2762
10.4057
10.4538
10.5146
10.5751
10.6425
10.7084
10.7662
10.8145
10.8553
10.8924
10.9308
10.9765
11.0283
11.0784
11.1273
11.1706
11.2113
11.2509
11.2879
11.3244
11.3566
11.389
11.4212
11.4531
11.4833
11.5118
11.5379
11.5624
11.5862
11.612
11.6392
11.6655
11.6894
11.7094
11.7267
11.7425
11.7577
11.7716
11.7828
11.7899
11.7952
11.7998
11.8035
11.8073
1
1
1
1
1
1
1
1
1
1
1
1
1
1
1
1
1
1
1
1
1
1
1
1
1
1
1
1
1
1
1
1
1
1
1
1
1
1
1
1
1
1
1
1
1
1
1
1
1
1
4.41964
9.99005
10.369
10.4179
10.4824
10.5415
10.6066
10.6713
10.7286
10.7773
10.8186
10.8554
10.8917
10.9338
10.9819
11.0286
11.0753
11.1186
11.1589
11.1983
11.2339
11.2684
11.2982
11.3282
11.3579
11.3873
11.4151
11.4412
11.4651
11.4874
11.5093
11.533
11.5584
11.5828
11.6048
11.6231
11.639
11.6534
11.6671
11.6798
11.6907
11.6979
11.7035
11.7078
11.7096
11.7125
1
1
1
1
1
1
1
1
1
1
1
1
1
1
1
1
1
1
1
1
1
1
1
1
1
1
1
1
1
1
1
1
1
1
1
1
1
1
1
1
1
1
1
1
1
1
1
1
1
1
3.0382
9.40591
10.3379
10.3925
10.4497
10.5014
10.5608
10.6219
10.6781
10.7263
10.7677
10.805
10.8408
10.8812
10.9276
10.9732
11.0183
11.0613
11.1003
11.1386
11.1725
11.2043
11.2328
11.2611
11.2887
11.3154
11.3404
11.3637
11.3856
11.4061
11.4263
11.4475
11.4695
11.4893
11.5059
11.5189
11.5299
11.5403
11.5507
11.5613
11.5712
11.5789
11.5857
11.5916
11.5935
11.5975
1
1
1
1
1
1
1
1
1
1
1
1
1
1
1
1
1
1
1
1
1
1
1
1
1
1
1
1
1
1
1
1
1
1
1
1
1
1
1
1
1
1
1
1
1
1
1
1
1
1
1.75962
8.27354
10.3741
10.363
10.4174
10.4583
10.5085
10.5629
10.616
10.6633
10.7054
10.7439
10.7799
10.8178
10.8607
10.9037
10.9452
10.9861
11.0224
11.0573
11.0891
11.1181
11.1457
11.1715
11.1968
11.2202
11.2408
11.2603
11.2796
11.2991
11.3189
11.3391
11.3593
11.3762
11.389
11.3979
11.4046
11.4108
11.4166
11.4217
11.4249
11.4269
11.4288
11.432
11.4328
11.4372
1
1
1
1
1
1
1
1
1
1
1
1
1
1
1
1
1
1
1
1
1
1
1
1
1
1
1
1
1
1
1
1
1
1
1
1
1
1
1
1
1
1
1
1
1
1
1
1
1
1
1.02452
6.23975
10.2923
10.3329
10.3566
10.3889
10.4294
10.4782
10.5285
10.575
10.6159
10.6527
10.6865
10.7202
10.7578
10.7976
10.8367
10.8758
10.9115
10.9444
10.9756
11.0037
11.0303
11.054
11.0771
11.0972
11.1134
11.1281
11.143
11.16
11.1783
11.1966
11.2131
11.2246
11.2302
11.2301
11.2259
11.2227
11.22
11.218
11.2166
11.2164
11.2181
11.2229
11.2252
11.2309
1
1
1
1
1
1
1
1
1
1
1
1
1
1
1
1
1
1
1
1
1
1
1
1
1
1
1
1
1
1
1
1
1
1
1
1
1
1
1
1
1
1
1
1
1
1
1
1
1
1
1.00003
3.85027
9.68932
10.2459
10.28
10.3181
10.3535
10.3989
10.4483
10.4971
10.5415
10.5803
10.6144
10.6457
10.6783
10.7133
10.7484
10.7836
10.8168
10.846
10.8732
10.8979
10.9204
10.9402
10.9579
10.9724
10.9825
10.9888
10.9948
11.0044
11.0165
11.0289
11.0387
11.0433
11.0408
11.0311
11.0184
11.0085
11.0004
10.9926
10.9819
10.9679
10.9485
10.9264
10.9036
10.8856
1
1
1
1
1
1
1
1
1
1
1
1
1
1
1
1
1
1
1
1
1
1
1
1
1
1
1
1
1
1
1
1
1
1
1
1
1
1
1
1
1
1
1
1
1
1
1
1
1
1
1
1.6577
7.97835
10.1839
10.1716
10.2181
10.2574
10.3034
10.3533
10.4032
10.449
10.4889
10.5225
10.5508
10.5773
10.6048
10.6332
10.6622
10.6908
10.7154
10.7362
10.7555
10.7727
10.7885
10.8013
10.8106
10.8145
10.8129
10.8089
10.8072
10.8092
10.8129
10.813
10.8064
10.7894
10.7621
10.7288
10.6937
10.6574
10.6172
10.5712
10.5205
10.4757
10.4359
10.4165
10.4089
1
1
1
1
1
1
1
1
1
1
1
1
1
1
1
1
1
1
1
1
1
1
1
1
1
1
1
1
1
1
1
1
1
1
1
1
1
1
1
1
1
1
1
1
1
1
1
1
1
1
1
1.01203
4.72508
9.82367
10.072
10.1179
10.1611
10.204
10.2469
10.2892
10.3305
10.369
10.4026
10.4306
10.4546
10.4776
10.5011
10.5255
10.5501
10.5717
10.588
10.6004
10.6108
10.6197
10.6258
10.629
10.6272
10.617
10.6008
10.5837
10.5699
10.5584
10.5438
10.5198
10.4831
10.4333
10.3737
10.31
10.2464
10.1832
10.1171
10.0444
9.95193
9.86591
9.73526
9.83505
1
1
1
1
1
1
1
1
1
1
1
1
1
1
1
1
1
1
1
1
1
1
1
1
1
1
1
1
1
1
1
1
1
1
1
1
1
1
1
1
1
1
1
1
1
1
1
1
1
1
1
0.999835
1.9522
8.32175
10.0454
10.0418
10.0953
10.1348
10.1706
10.206
10.2416
10.2767
10.309
10.3352
10.3551
10.3712
10.3866
10.4035
10.422
10.4395
10.452
10.4577
10.4602
10.4604
10.4583
10.4538
10.4439
10.425
10.3981
10.3666
10.3362
10.3075
10.2763
10.235
10.1779
10.1027
10.01
9.9037
9.78334
9.64519
9.46623
9.21884
8.83881
8.27964
7.34242
5.44953
1
1
1
1
1
1
1
1
1
1
1
1
1
1
1
1
1
1
1
1
1
1
1
1
1
1
1
1
1
1
1
1
1
1
1
1
1
1
1
1
1
1
1
1
1
1
1
1
1
1
1
0.999972
1.03584
5.71183
9.92795
9.98727
10.0371
10.0676
10.0969
10.1283
10.1587
10.1895
10.2199
10.2463
10.2652
10.2768
10.2842
10.2918
10.3021
10.3144
10.3248
10.3292
10.3271
10.3207
10.3108
10.2984
10.2798
10.2536
10.2185
10.176
10.131
10.0856
10.0373
9.9797
9.90393
9.80587
9.68107
9.5342
9.35802
9.15278
8.88334
8.52891
8.00937
7.34842
6.11041
4.52267
1
1
1
1
1
1
1
1
1
1
1
1
1
1
1
1
1
1
1
1
1
1
1
1
1
1
1
1
1
1
1
1
1
1
1
1
1
1
1
1
1
1
1
1
1
1
1
1
1
1
1
0.999999
1.00001
2.66566
8.81819
9.94184
9.95907
9.99929
10.0328
10.0621
10.0876
10.1135
10.1402
10.165
10.1827
10.1911
10.191
10.1883
10.1883
10.1923
10.1988
10.2018
10.1966
10.1844
10.1668
10.1447
10.1159
10.0803
10.0356
9.98243
9.92284
9.85973
9.79165
9.71599
9.62157
9.50346
9.35183
9.17081
8.95253
8.69445
8.37457
7.95725
7.43177
6.65373
5.66225
4.52875
1
1
1
1
1
1
1
1
1
1
1
1
1
1
1
1
1
1
1
1
1
1
1
1
1
1
1
1
1
1
1
1
1
1
1
1
1
1
1
1
1
1
1
1
1
1
1
1
1
1
1
1
0.999999
1.09247
6.45811
9.96468
9.94908
9.95439
9.97248
9.98942
10.008
10.0293
10.0529
10.0753
10.0925
10.0991
10.0939
10.0831
10.0736
10.0681
10.067
10.0651
10.0559
10.0385
10.0147
9.98489
9.94736
9.90238
9.84863
9.78647
9.71464
9.63596
9.54893
9.45418
9.34211
9.20709
9.03773
8.83324
8.58997
8.30207
7.95994
7.53225
7.0121
6.33606
5.56954
4.74395
1
1
1
1
1
1
1
1
1
1
1
1
1
1
1
1
1
1
1
1
1
1
1
1
1
1
1
1
1
1
1
1
1
1
1
1
1
1
1
1
1
1
1
1
1
1
1
1
1
1
1
1
1
1.00019
3.13694
8.97938
9.76432
9.8307
9.86807
9.89338
9.9139
9.93345
9.9538
9.96956
9.98109
9.98781
9.98482
9.97557
9.964
9.9524
9.94333
9.93375
9.91863
9.89578
9.86542
9.82833
9.78252
9.72927
9.66789
9.5985
9.51741
9.4259
9.32271
9.20932
9.08092
8.93176
8.75255
8.53794
8.28571
7.98944
7.6461
7.23488
6.76212
6.20744
5.611
4.94896
1
1
1
1
1
1
1
1
1
1
1
1
1
1
1
1
1
1
1
1
1
1
1
1
1
1
1
1
1
1
1
1
1
1
1
1
1
1
1
1
1
1
1
1
1
1
1
1
1
1
1
1
1
1
1.13698
6.49739
9.79453
9.81449
9.80438
9.82211
9.83792
9.85499
9.86979
9.87775
9.88161
9.88507
9.88298
9.87271
9.85734
9.83862
9.81979
9.80029
9.77786
9.74899
9.7124
9.66868
9.61614
9.55658
9.48885
9.41319
9.32532
9.22462
9.10944
8.98127
8.83923
8.67908
8.49461
8.27939
8.03117
7.74228
7.41484
7.03694
6.62056
6.16162
5.67441
5.13559
1
1
1
1
1
1
1
1
1
1
1
1
1
1
1
1
1
1
1
1
1
1
1
1
1
1
1
1
1
1
1
1
1
1
1
1
1
1
1
1
1
1
1
1
1
1
1
1
1
1
1
1
1
1
1.00051
2.87503
8.74513
9.62334
9.65205
9.70271
9.73174
9.75768
9.7731
9.77221
9.76279
9.75296
9.74833
9.74208
9.73065
9.71354
9.69122
9.66508
9.63572
9.6001
9.55788
9.50936
9.45192
9.38853
9.31691
9.2382
9.14776
9.04276
8.92087
8.78311
8.63071
8.46195
8.27399
8.06147
7.82365
7.55011
7.24816
6.9084
6.54642
6.15269
5.73982
5.29053
1
1
1
1
1
1
1
1
1
1
1
1
1
1
1
1
1
1
1
1
1
1
1
1
1
1
1
1
1
1
1
1
1
1
1
1
1
1
1
1
1
1
1
1
1
1
1
1
1
1
1
1
1
1
1
1.10269
5.80499
9.50634
9.61331
9.63255
9.65098
9.67911
9.7029
9.70175
9.68526
9.66278
9.6474
9.6371
9.62316
9.6048
9.5777
9.54498
9.50829
9.46516
9.41603
9.36128
9.29764
9.22736
9.15031
9.06793
8.97423
8.86695
8.74313
8.60246
8.44539
8.27222
8.08359
7.87512
7.64927
7.39458
7.11955
6.82124
6.50177
6.15874
5.80024
5.41604
1
1
1
1
1
1
1
1
1
1
1
1
1
1
1
1
1
1
1
1
1
1
1
1
1
1
1
1
1
1
1
1
1
1
1
1
1
1
1
1
1
1
1
1
1
1
1
1
1
1
1
1
1
1
1
1.0003
2.0081
8.05558
9.57627
9.53712
9.55191
9.57599
9.59737
9.59734
9.58139
9.55746
9.5359
9.521
9.50439
9.48602
9.45768
9.42222
9.3805
9.33142
9.27638
9.21599
9.14739
9.07242
8.99129
8.90561
8.81014
8.70311
8.58216
8.44482
8.28928
8.11582
7.92904
7.72253
7.50664
7.26868
7.01804
6.75658
6.46999
6.17325
5.85555
5.52569
1
1
1
1
1
1
1
1
1
1
1
1
1
1
1
1
1
1
1
1
1
1
1
1
1
1
1
1
1
1
1
1
1
1
1
1
1
1
1
1
1
1
1
1
1
1
1
1
1
1
1
1
1
1
1
1
1.02956
4.45869
9.17262
9.4391
9.46736
9.47845
9.48465
9.48132
9.46917
9.45105
9.43094
9.41184
9.39089
9.37091
9.34218
9.30613
9.26222
9.20893
9.1498
9.08518
9.01208
8.93178
8.84457
8.75112
8.6504
8.54173
8.42551
8.29558
8.14814
7.97897
7.79822
7.59459
7.3885
7.16556
6.93526
6.70209
6.44385
6.18617
5.90133
5.61327
1
1
1
1
1
1
1
1
1
1
1
1
1
1
1
1
1
1
1
1
1
1
1
1
1
1
1
1
1
1
1
1
1
1
1
1
1
1
1
1
1
1
1
1
1
1
1
1
1
1
1
1
1
1
1
1
1.00003
1.307
6.60022
9.42007
9.4031
9.41489
9.40232
9.39353
9.38248
9.36603
9.34687
9.3243
9.29587
9.26883
9.23534
9.19685
9.15121
9.09363
9.03095
8.96235
8.88597
8.80199
8.70959
8.61083
8.50607
8.39443
8.28117
8.15863
8.02286
7.86064
7.68638
7.49207
7.29669
7.0871
6.87324
6.65914
6.42633
6.19589
5.93869
5.68447
1
1
1
1
1
1
1
1
1
1
1
1
1
1
1
1
1
1
1
1
1
1
1
1
1
1
1
1
1
1
1
1
1
1
1
1
1
1
1
1
1
1
1
1
1
1
1
1
1
1
1
1
1
1
1
1
1
1.00281
2.49706
8.25668
9.33187
9.2883
9.28855
9.29073
9.2869
9.27684
9.25898
9.23426
9.19922
9.16239
9.12057
9.07651
9.02911
8.97121
8.90748
8.83922
8.76303
8.67833
8.58358
8.48201
8.37503
8.26244
8.14876
8.03099
7.89992
7.7479
7.58468
7.40498
7.22314
7.02749
6.83106
6.62977
6.41803
6.20265
5.97098
5.74118
1
1
1
1
1
1
1
1
1
1
1
1
1
1
1
1
1
1
1
1
1
1
1
1
1
1
1
1
1
1
1
1
1
1
1
1
1
1
1
1
1
1
1
1
1
1
1
1
1
1
1
1
1
1
1
1
1
1
1.06216
4.44556
8.97227
9.18252
9.20522
9.21384
9.21388
9.20453
9.18539
9.15707
9.11778
9.07206
9.02017
8.96652
8.9143
8.85466
8.78978
8.72122
8.64675
8.56273
8.46891
8.36713
8.26065
8.14972
8.03743
7.92013
7.78987
7.64626
7.494
7.32879
7.1618
6.98243
6.80319
6.61446
6.41935
6.21394
6.00416
5.79141
1
1
1
1
1
1
1
1
1
1
1
1
1
1
1
1
1
1
1
1
1
1
1
1
1
1
1
1
1
1
1
1
1
1
1
1
1
1
1
1
1
1
1
1
1
1
1
1
1
1
1
1
1
1
1
1
1
1
1.00017
1.3042
5.88279
9.04596
9.18707
9.17716
9.16597
9.14601
9.11395
9.07416
9.02856
8.97778
8.92008
8.86144
8.80545
8.74418
8.67883
8.60966
8.53614
8.45625
8.36746
8.26795
8.16386
8.05485
7.94387
7.82403
7.69449
7.55736
7.41322
7.26123
7.10721
6.94463
6.77965
6.60318
6.42204
6.22754
6.03391
5.83562
1
1
1
1
1
1
1
1
1
1
1
1
1
1
1
1
1
1
1
1
1
1
1
1
1
1
1
1
1
1
1
1
1
1
1
1
1
1
1
1
1
1
1
1
1
1
1
1
1
1
1
1
1
1
1
1
1
1
1
1.00283
1.67608
7.37041
9.20655
9.15711
9.1189
9.06837
9.01728
8.96579
8.91572
8.86578
8.80954
8.75201
8.69762
8.63839
8.57302
8.50386
8.43022
8.35259
8.27003
8.17796
8.07878
7.97336
7.86167
7.7422
7.61549
7.48349
7.34615
7.2051
7.06002
6.9109
6.75539
6.58995
6.42094
6.24077
6.06068
5.87765
1
1
1
1
1
1
1
1
1
1
1
1
1
1
1
1
1
1
1
1
1
1
1
1
1
1
1
1
1
1
1
1
1
1
1
1
1
1
1
1
1
1
1
1
1
1
1
1
1
1
1
1
1
1
1
1
1
1
1
1
1.0131
3.09413
8.39877
9.04496
8.96739
8.91571
8.86571
8.82138
8.78208
8.74509
8.70271
8.65614
8.6068
8.54866
8.48424
8.41457
8.34059
8.26143
8.18251
8.09811
8.00371
7.90172
7.79233
7.67583
7.55242
7.42496
7.29386
7.16068
7.02188
6.88128
6.73216
6.57459
6.41477
6.2484
6.08052
5.91252
1
1
1
1
1
1
1
1
1
1
1
1
1
1
1
1
1
1
1
1
1
1
1
1
1
1
1
1
1
1
1
1
1
1
1
1
1
1
1
1
1
1
1
1
1
1
1
1
1
1
1
1
1
1
1
1
1
1
1
1
1.00002
1.11154
4.47733
8.73689
8.85487
8.77907
8.75233
8.72138
8.69107
8.65858
8.62255
8.58083
8.53279
8.47497
8.40885
8.33652
8.25983
8.17851
8.09878
8.01745
7.92713
7.82975
7.72548
7.6137
7.49542
7.37317
7.24861
7.12165
6.9889
6.85443
6.71094
6.5602
6.40965
6.25576
6.09974
5.9437
1
1
1
1
1
1
1
1
1
1
1
1
1
1
1
1
1
1
1
1
1
1
1
1
1
1
1
1
1
1
1
1
1
1
1
1
1
1
1
1
1
1
1
1
1
1
1
1
1
1
1
1
1
1
1
1
1
1
1
1
1
1.00052
1.30703
5.32124
8.65546
8.69469
8.66745
8.65494
8.6298
8.59741
8.561
8.5187
8.47004
8.41259
8.34645
8.27353
8.19531
8.11244
8.02917
7.94488
7.85582
7.76154
7.66255
7.55769
7.44635
7.32972
7.21068
7.08853
6.96135
6.83081
6.69222
6.54834
6.40647
6.26205
6.11651
5.96871
1
1
1
1
1
1
1
1
1
1
1
1
1
1
1
1
1
1
1
1
1
1
1
1
1
1
1
1
1
1
1
1
1
1
1
1
1
1
1
1
1
1
1
1
1
1
1
1
1
1
1
1
1
1
1
1
1
1
1
1
1
1
1.00297
1.51044
5.88148
8.53495
8.63416
8.61625
8.58479
8.5472
8.50454
8.45724
8.40583
8.34881
8.28524
8.215
8.13864
8.05702
7.97181
7.88371
7.79252
7.69872
7.6027
7.50323
7.39829
7.28739
7.17229
7.05342
6.93082
6.80403
6.67166
6.53641
6.40444
6.26893
6.13304
5.99274
1
1
1
1
1
1
1
1
1
1
1
1
1
1
1
1
1
1
1
1
1
1
1
1
1
1
1
1
1
1
1
1
1
1
1
1
1
1
1
1
1
1
1
1
1
1
1
1
1
1
1
1
1
1
1
1
1
1
1
1
1
1
1
1.00765
1.71567
6.3132
8.50275
8.57398
8.53481
8.49201
8.4444
8.39212
8.33758
8.27945
8.21655
8.14861
8.07601
7.99881
7.91668
7.82973
7.7392
7.64718
7.55341
7.45696
7.35593
7.24912
7.13619
7.01929
6.90018
6.77722
6.65168
6.52657
6.40416
6.2763
6.14867
6.01626
1
1
1
1
1
1
1
1
1
1
1
1
1
1
1
1
1
1
1
1
1
1
1
1
1
1
1
1
1
1
1
1
1
1
1
1
1
1
1
1
1
1
1
1
1
1
1
1
1
1
1
1
1
1
1
1
1
1
1
1
1
1
1
1.00001
1.01442
1.92088
6.6485
8.45238
8.47872
8.44149
8.38968
8.33421
8.27759
8.21928
8.1562
8.08928
8.01852
7.94393
7.86432
7.78033
7.69329
7.60418
7.51319
7.41922
7.32063
7.21714
7.10731
6.99272
6.87752
6.76008
6.64024
6.5231
6.40785
6.28585
6.16461
6.03972
1
1
1
1
1
1
1
1
1
1
1
1
1
1
1
1
1
1
1
1
1
1
1
1
1
1
1
1
1
1
1
1
1
1
1
1
1
1
1
1
1
1
1
1
1
1
1
1
1
1
1
1
1
1
1
1
1
1
1
1
1
1
1
1
1.00003
1.02319
2.11099
6.8674
8.37905
8.38251
8.3416
8.28872
8.23024
8.16777
8.1016
8.03395
7.96428
7.89069
7.81344
7.73302
7.65025
7.56481
7.47673
7.38495
7.2884
7.18693
7.07991
6.9687
6.85792
6.74676
6.63344
6.52312
6.41489
6.29895
6.18255
6.06385
1
1
1
1
1
1
1
1
1
1
1
1
1
1
1
1
1
1
1
1
1
1
1
1
1
1
1
1
1
1
1
1
1
1
1
1
1
1
1
1
1
1
1
1
1
1
1
1
1
1
1
1
1
1
1
1
1
1
1
1
1
1
1
1
1
1.00007
1.03324
2.26174
6.97745
8.29463
8.29032
8.23824
8.18267
8.12023
8.05754
7.99027
7.91875
7.84338
7.76651
7.68811
7.60757
7.52451
7.4382
7.34844
7.25469
7.15681
7.05461
6.94918
6.84403
6.73944
6.63255
6.52617
6.42192
6.31103
6.19749
6.08326
1
1
1
1
1
1
1
1
1
1
1
1
1
1
1
1
1
1
1
1
1
1
1
1
1
1
1
1
1
1
1
1
1
1
1
1
1
1
1
1
1
1
1
1
1
1
1
1
1
1
1
1
1
1
1
1
1
1
1
1
1
1
1
1
1
1
1.00011
1.04259
2.36093
6.9814
8.19765
8.19466
8.13597
8.07718
8.01307
7.9458
7.87473
7.80183
7.72612
7.64725
7.56631
7.48408
7.39961
7.31172
7.22061
7.1275
7.03149
6.93308
6.83444
6.73634
6.63574
6.53296
6.43114
6.32496
6.21454
6.10357
1
1
1
1
1
1
1
1
1
1
1
1
1
1
1
1
1
1
1
1
1
1
1
1
1
1
1
1
1
1
1
1
1
1
1
1
1
1
1
1
1
1
1
1
1
1
1
1
1
1
1
1
1
1
1
1
1
1
1
1
1
1
1
1
1
1
1
1.00016
1.0495
2.39514
6.8819
8.09787
8.08736
8.02937
7.97022
7.90148
7.83264
7.76067
7.68525
7.6077
7.52926
7.44873
7.36535
7.27976
7.1926
7.10411
7.01367
6.92142
6.82843
6.73525
6.63948
6.54006
6.43994
6.33756
6.23048
6.12216
1
1
1
1
1
1
1
1
1
1
1
1
1
1
1
1
1
1
1
1
1
1
1
1
1
1
1
1
1
1
1
1
1
1
1
1
1
1
1
1
1
1
1
1
1
1
1
1
1
1
1
1
1
1
1
1
1
1
1
1
1
1
1
1
1
1
1
1
1.0002
1.05216
2.35957
6.683
7.98433
7.98629
7.92037
7.85895
7.78832
7.71823
7.6448
7.57023
7.49442
7.41662
7.33699
7.25621
7.17365
7.08914
7.00286
6.91495
6.82565
6.73513
6.64214
6.5451
6.4468
6.34752
6.24438
6.13929
1
1
1
1
1
1
1
1
1
1
1
1
1
1
1
1
1
1
1
1
1
1
1
1
1
1
1
1
1
1
1
1
1
1
1
1
1
1
1
1
1
1
1
1
1
1
1
1
1
1
1
1
1
1
1
1
1
1
1
1
1
1
1
1
1
1
1
1
1
1.00022
1.04989
2.25831
6.37227
7.86896
7.8814
7.80735
7.74491
7.67537
7.6052
7.53511
7.46374
7.39081
7.3165
7.24091
7.16288
7.08148
6.99733
6.91122
6.82338
6.73387
6.64211
6.5468
6.45029
6.35386
6.2552
6.15385
1
1
1
1
1
1
1
1
1
1
1
1
1
1
1
1
1
1
1
1
1
1
1
1
1
1
1
1
1
1
1
1
1
1
1
1
1
1
1
1
1
1
1
1
1
1
1
1
1
1
1
1
1
1
1
1
1
1
1
1
1
1
1
1
1
1
1
1
1
1
1.00021
1.0432
2.09923
5.94174
7.71749
7.7747
7.69705
7.63355
7.56797
7.50282
7.43756
7.37061
7.3018
7.2303
7.15525
7.07581
6.99299
6.90772
6.82059
6.73182
6.64132
6.5481
6.45369
6.35964
6.26491
6.1676
1
1
1
1
1
1
1
1
1
1
1
1
1
1
1
1
1
1
1
1
1
1
1
1
1
1
1
1
1
1
1
1
1
1
1
1
1
1
1
1
1
1
1
1
1
1
1
1
1
1
1
1
1
1
1
1
1
1
1
1
1
1
1
1
1
1
1
1
1
1
1
1.00018
1.03355
1.8982
5.33487
7.52997
7.68073
7.59956
7.54054
7.48327
7.42353
7.36083
7.29476
7.2246
7.15011
7.07111
6.98889
6.90432
6.8181
6.73039
6.64121
6.55047
6.45873
6.3669
6.27572
6.18254
1
1
1
1
1
1
1
1
1
1
1
1
1
1
1
1
1
1
1
1
1
1
1
1
1
1
1
1
1
1
1
1
1
1
1
1
1
1
1
1
1
1
1
1
1
1
1
1
1
1
1
1
1
1
1
1
1
1
1
1
1
1
1
1
1
1
1
1
1
1
1
1
1.00012
1.0232
1.66476
4.5542
7.32879
7.60124
7.53477
7.48414
7.42518
7.36107
7.29256
7.21975
7.14307
7.06311
6.98126
6.89791
6.81348
6.72773
6.64101
6.5535
6.46494
6.37646
6.28785
6.19841
1
1
1
1
1
1
1
1
1
1
1
1
1
1
1
1
1
1
1
1
1
1
1
1
1
1
1
1
1
1
1
1
1
1
1
1
1
1
1
1
1
1
1
1
1
1
1
1
1
1
1
1
1
1
1
1
1
1
1
1
1
1
1
1
1
1
1
1
1
1
1
1
1
1.00007
1.01375
1.42758
3.82475
7.01089
7.52997
7.49056
7.42478
7.35935
7.28689
7.21092
7.13251
7.05283
6.97204
6.89035
6.80825
6.72558
6.64229
6.55801
6.47349
6.38815
6.30173
6.2169
1
1
1
1
1
1
1
1
1
1
1
1
1
1
1
1
1
1
1
1
1
1
1
1
1
1
1
1
1
1
1
1
1
1
1
1
1
1
1
1
1
1
1
1
1
1
1
1
1
1
1
1
1
1
1
1
1
1
1
1
1
1
1
1
1
1
1
1
1
1
1
1
1
1
1.00004
1.00658
1.25539
3.13933
6.57226
7.42509
7.44967
7.34885
7.2789
7.20167
7.12351
7.04465
6.96572
6.88647
6.80699
6.72675
6.64597
6.56529
6.48386
6.40127
6.31944
6.23668
1
1
1
1
1
1
1
1
1
1
1
1
1
1
1
1
1
1
1
1
1
1
1
1
1
1
1
1
1
1
1
1
1
1
1
1
1
1
1
1
1
1
1
1
1
1
1
1
1
1
1
1
1
1
1
1
1
1
1
1
1
1
1
1
1
1
1
1
1
1
1
1
1
1
1
1.00001
1.00284
1.13959
2.55084
5.90152
7.30198
7.37532
7.26835
7.19376
7.11642
7.03999
6.96204
6.88455
6.80692
6.72865
6.65132
6.57372
6.49471
6.41684
6.3372
6.25536
1
1
1
1
1
1
1
1
1
1
1
1
1
1
1
1
1
1
1
1
1
1
1
1
1
1
1
1
1
1
1
1
1
1
1
1
1
1
1
1
1
1
1
1
1
1
1
1
1
1
1
1
1
1
1
1
1
1
1
1
1
1
1
1
1
1
1
1
1
1
1
1
1
1
1
1
1
1.0011
1.0709
2.04098
5.04649
7.0939
7.25867
7.18771
7.11222
7.03614
6.9617
6.88585
6.81012
6.73588
6.66135
6.5851
6.5103
6.43397
6.35429
6.27569
1
1
1
1
1
1
1
1
1
1
1
1
1
1
1
1
1
1
1
1
1
1
1
1
1
1
1
1
1
1
1
1
1
1
1
1
1
1
1
1
1
1
1
1
1
1
1
1
1
1
1
1
1
1
1
1
1
1
1
1
1
1
1
1
1
1
1
1
1
1
1
1
1
1
1
1
1
1
1.00039
1.03255
1.62949
4.07148
6.72727
7.14829
7.12271
7.03227
6.96112
6.89306
6.82171
6.74908
6.67453
6.60178
6.52953
6.45018
6.37405
6.29863
1
1
1
1
1
1
1
1
1
1
1
1
1
1
1
1
1
1
1
1
1
1
1
1
1
1
1
1
1
1
1
1
1
1
1
1
1
1
1
1
1
1
1
1
1
1
1
1
1
1
1
1
1
1
1
1
1
1
1
1
1
1
1
1
1
1
1
1
1
1
1
1
1
1
1
1
1
1
1
1.00012
1.01321
1.32992
3.14232
6.114
7.0137
7.07214
6.98159
6.90825
6.83905
6.76924
6.69324
6.61704
6.53902
6.46426
6.39444
6.31879
1
1
1
1
1
1
1
1
1
1
1
1
1
1
1
1
1
1
1
1
1
1
1
1
1
1
1
1
1
1
1
1
1
1
1
1
1
1
1
1
1
1
1
1
1
1
1
1
1
1
1
1
1
1
1
1
1
1
1
1
1
1
1
1
1
1
1
1
1
1
1
1
1
1
1
1
1
1
1
1
1.00003
1.00452
1.14926
2.36092
5.23181
6.80956
6.97391
6.91801
6.84188
6.77765
6.70979
6.631
6.5505
6.48102
6.40606
6.33356
1
1
1
1
1
1
1
1
1
1
1
1
1
1
1
1
1
1
1
1
1
1
1
1
1
1
1
1
1
1
1
1
1
1
1
1
1
1
1
1
1
1
1
1
1
1
1
1
1
1
1
1
1
1
1
1
1
1
1
1
1
1
1
1
1
1
1
1
1
1
1
1
1
1
1
1
1
1
1
1
1
1.00001
1.00129
1.05815
1.7758
4.14038
6.42365
6.85026
6.87753
6.79682
6.72877
6.66044
6.58117
6.49648
6.42305
6.35812
1
1
1
1
1
1
1
1
1
1
1
1
1
1
1
1
1
1
1
1
1
1
1
1
1
1
1
1
1
1
1
1
1
1
1
1
1
1
1
1
1
1
1
1
1
1
1
1
1
1
1
1
1
1
1
1
1
1
1
1
1
1
1
1
1
1
1
1
1
1
1
1
1
1
1
1
1
1
1
1
1
1
1
1.00031
1.01991
1.37561
3.02419
5.79713
6.65478
6.79856
6.74782
6.6758
6.59764
6.51727
6.44841
6.38522
1
1
1
1
1
1
1
1
1
1
1
1
1
1
1
1
1
1
1
1
1
1
1
1
1
1
1
1
1
1
1
1
1
1
1
1
1
1
1
1
1
1
1
1
1
1
1
1
1
1
1
1
1
1
1
1
1
1
1
1
1
1
1
1
1
1
1
1
1
1
1
1
1
1
1
1
1
1
1
1
1
1
1
1
1.00006
1.00589
1.14079
2.2217
4.66423
6.40606
6.76142
6.755
6.67592
6.56823
6.43225
6.37036
1
1
1
1
1
1
1
1
1
1
1
1
1
1
1
1
1
1
1
1
1
1
1
1
1
1
1
1
1
1
1
1
1
1
1
1
1
1
1
1
1
1
1
1
1
1
1
1
1
1
1
1
1
1
1
1
1
1
1
1
1
1
1
1
1
1
1
1
1
1
1
1
1
1
1
1
1
1
1
1
1
1
1
1
1
1.00001
1.00123
1.04874
1.59117
3.53271
5.76021
6.63664
6.72546
6.64514
6.51245
6.36838
1
1
1
1
1
1
1
1
1
1
1
1
1
1
1
1
1
1
1
1
1
1
1
1
1
1
1
1
1
1
1
1
1
1
1
1
1
1
1
1
1
1
1
1
1
1
1
1
1
1
1
1
1
1
1
1
1
1
1
1
1
1
1
1
1
1
1
1
1
1
1
1
1
1
1
1
1
1
1
1
1
1
1
1
1
1
1
1.00025
1.01273
1.23655
2.49508
4.81323
6.40665
6.64203
6.61225
6.43044
1
1
1
1
1
1
1
1
1
1
1
1
1
1
1
1
1
1
1
1
1
1
1
1
1
1
1
1
1
1
1
1
1
1
1
1
1
1
1
1
1
1
1
1
1
1
1
1
1
1
1
1
1
1
1
1
1
1
1
1
1
1
1
1
1
1
1
1
1
1
1
1
1
1
1
1
1
1
1
1
1
1
1
1
1
1
1
1
1.00003
1.00273
1.07837
1.74096
3.66022
5.89412
6.50784
6.50729
1
1
1
1
1
1
1
1
1
1
1
1
1
1
1
1
1
1
1
1
1
1
1
1
1
1
1
1
1
1
1
1
1
1
1
1
1
1
1
1
1
1
1
1
1
1
1
1
1
1
1
1
1
1
1
1
1
1
1
1
1
1
1
1
1
1
1
1
1
1
1
1
1
1
1
1
1
1
1
1
1
1
1
1
1
1
1
1
1
1
1.00049
1.02087
1.29286
2.65297
4.88302
6.18363
1
1
1
1
1
1
1
1
1
1
1
1
1
1
1
1
1
1
1
1
1
1
1
1
1
1
1
1
1
1
1
1
1
1
1
1
1
1
1
1
1
1
1
1
1
1
1
1
1
1
1
1
1
1
1
1
1
1
1
1
1
1
1
1
1
1
1
1
1
1
1
1
1
1
1
1
1
1
1
1
1
1
1
1
1
1
1
1
1
1
1
1.00007
1.00424
1.0979
1.77727
3.76058
1
1
1
1
1
1
1
1
1
1
1
1
1
1
1
1
1
1
1
1
1
1
1
1
1
1
1
1
1
1
1
1
1
1
1
1
1
1
1
1
1
1
1
1
1
1
1
1
1
1
1
1
1
1
1
1
1
1
1
1
1
1
1
1
1
1
1
1
1
1
1
1
1
1
1
1
1
1
1
1
1
1
1
1
1
1
1
1
1
1
1
1
1.00001
1.00071
1.0227
1.31436
1
1
1
1
1
1
1
1
1
1
1
1
1
1
1
1
1
1
1
1
1
1
1
1
1
1
1
1
1
1
1
1
1
1
1
1
1
1
1
1
1
1
1
1
1
1
1
1
1
1
1
1
1
1
1
1
1
1
1
1
1
1
1
1
1
1
1
1
1
1
1
1
1
1
1
1
1
1
1
1
1
1
1
1
1
1
1
1
1
1
1
1
1
1
1.00009
1.00411
1
1
1
1
1
1
1
1
1
1
1
1
1
1
1
1
1
1
1
1
1
1
1
1
1
1
1
1
1
1
1
1
1
1
1
1
1
1
1
1
1
1
1
1
1
1
1
1
1
1
1
1
1
1
1
1
1
1
1
1
1
1
1
1
1
1
1
1
1
1
1
1
1
1
1
1
1
1
1
1
1
1
1
1
1
1
1
1
1
1
1
1
1
1
1
1.00001
1
1
1
1
1
1
1
1
1
1
1
1
1
1
1
1
1
1
1
1
1
1
1
1
1
1
1
1
1
1
1
1
1
1
1
1
1
1
1
1
1
1
1
1
1
1
1
1
1
1
1
1
1
1
1
1
1
1
1
1
1
1
1
1
1
1
1
1
1
1
1
1
1
1
1
1
1
1
1
1
1
1
1
1
1
1
1
1
1
1
1
1
1
1
1
1
1
1
1
1
1
1
1
1
1
1
1
1
1
1
1
1
1
1
1
1
1
1
1
1
1
1
1
1
1
1
1
1
1
1
1
1
1
1
1
1
1
1
1
1
1
1
1
1
1
1
1
1
1
1
1
1
1
1
1
1
1
1
1
1
1
1
1
1
1
1
1
1
1
1
1
1
1
1
1
1
1
1
1
1
1
1
1
1
1
1
1
1
1
1
1
1
1
1
1
1
1
1
1
1
1
1
1
1
1
1
1
1
1
1
1
1
1
1
1
1
1
1
1
1
1
1
1
1
1
1
1
1
1
1
1
1
1
1
1
1
1
1
1
1
1
1
1
1
1
1
1
1
1
1
1
1
1
1
1
1
1
1
1
1
1
1
1
1
1
1
1
1
1
1
1
1
1
1
1
1
1
1
1
1
1
1
1
1
1
1
1
1
1
1
1
1
1
1
1
1
1
1
1
1
1
1
1
1
1
1
1
1
1
1
1
1
1
1
1
1
1
1
1
1
1
1
1
1
1
1
1
1
1
1
1
1
1
1
1
1
1
1
1
1
1
1
1
1
1
1
1
1
1
1
1
1
1
1
1
1
1
1
1
1
1
1
1
1
1
1
1
1
1
1
1
1
1
1
1
1
1
1
1
1
1
1
1
1
1
1
1
1
1
1
1
1
1
1
1
1
1
1
1
1
1
1
1
1
1
1
1
1
1
1
1
1
1
1
1
1
1
1
1
1
1
1
1
1
1
1
1
1
1
1
1
1
1
1
1
1
1
1
1
1
1
1
1
1
1
1
1
1
1
1
1
1
1
1
1
1
1
1
1
1
1
1
1
1
1
1
1
1
1
1
1
1
1
1
1
1
1
1
1
1
1
1
1
1
1
1
1
1
1
1
1
1
1
1
1
1
1
1
1
1
1
1
1
1
1
1
1
1
1
1
1
1
1
1
1
1
1
1
1
1
1
1
1
1
1
1
1
1
1
1
1
1
1
1
1
1
1
1
1
1
1
1
1
1
1
1
1
1
1
1
1
1
1
1
1
1
1
1
1
1
1
1
1
1
1
1
1
1
1
1
1
1
1
1
1
1
1
1
1
1
1
1
1
1
1
1
1
1
1
1
1
1
1
1
1
1
1
1
1
1
1
1
1
1
1
1
1
1
1
1
1
1
1
1
1
1
1
1
1
1
1
1
1
1
1
1
1
1
1
1
1
1
1
1
1
1
1
1
1
1
1
1
1
1
1
1
1
1
1
1
1
1
1
1
1
1
1
1
1
1
1
1
1
1
1
1
1
1
1
1
1
1
1
1
1
1
1
1
1
1
1
1
1
1
1
1
1
1
1
1
1
1
1
1
1
1
1
1
1
1
1
1
1
1
1
1
1
1
1
1
1
1
1
1
1
1
1
1
1
1
1
1
1
1
1
1
1
1
1
1
1
1
1
1
1
1
1
1
1
1
1
1
1
1
1
1
1
1
1
1
1
1
1
1
1
1
1
1
1
1
1
1
1
1
1
1
1
1
1
1
1
1
1
1
1
1
1
1
1
1
1
1
1
1
1
1
1
1
1
1
1
1
1
1
1
1
1
1
1
1
1
1
1
1
1
1
1
1
1
1
1
1
1
1
1
1
1
1
1
1
1
1
1
1
1
1
1
1
1
1
1
1
1
1
1
1
1
1
1
1
1
1
1
1
1
1
1
1
1
1
1
1
1
1
1
1
1
1
1
1
1
1
1
1
1
1
1
1
1
1
1
1
1
1
1
1
1
1
1
1
1
1
1
1
1
1
1
1
1
1
1
1
1
1
1
1
1
1
1
1
1
1
1
1
1
1
1
1
1
1
1
1
1
1
1
1
1
1
1
1
1
1
1
1
1
1
1
1
1
1
1
1
1
1
1
1
1
1
1
1
1
1
1
1
1
1
1
1
1
1
1
1
1
1
1
1
1
1
1
1
1
1
1
1
1
1
1
1
1
1
1
1
1
1
1
1
1
1
1
1
1
1
1
1
1
1
1
1
1
1
1
1
1
1
1
1
1
1
1
1
1
1
1
1
1
1
1
1
1
1
1
1
1
1
1
1
1
1
1
1
1
1
1
1
1
1
1
1
1
1
1
1
1
1
1
1
1
1
1
1
1
1
1
1
1
1
1
1
1
1
1
1
1
1
1
1
1
1
1
1
1
1
1
1
1
1
1
1
1
1
1
1
1
1
1
1
1
1
1
1
1
1
1
1
1
1
1
1
1
1
1
1
1
1
1
1
1
1
1
1
1
1
1
1
1
1
1
1
1
1
1
1
1
1
1
1
1
1
1
1
1
1
1
1
1
1
1
1
1
1
1
1
1
1
1
1
1
1
1
1
1
1
1
1
1
1
1
1
1
1
1
1
1
1
1
1
1
1
1
1
1
1
1
1
1
1
1
1
1
1
1
1
1
1
1
1
1
1
1
1
1
1
1
1
1
1
1
1
1
1
1
1
1
1
1
1
1
1
1
1
1
1
1
1
1
1
1
1
1
1
1
1
1
1
1
1
1
1
1
1
1
1
1
1
1
1
1
1
1
1
1
1
1
1
1
1
1
1
1
1
1
1
1
1
1
1
1
1
1
1
1
1
1
1
1
1
1
1
1
1
1
1
1
1
1
1
1
1
1
1
1
1
1
1
1
1
1
1
1
1
1
1
1
1
1
1
1
1
1
1
1
1
1
1
1
1
1
1
1
1
1
1
1
1
1
1
1
1
1
1
1
1
1
1
1
1
1
1
1
1
1
1
1
1
1
1
1
1
1
1
1
1
1
1
1
1
1
1
1
1
1
1
1
1
1
1
1
1
1
1
1
1
1
1
1
1
1
1
1
1
1
1
1
1
1
1
1
1
1
1
1
1
1
1
1
1
1
1
1
1
1
1
1
1
1
1
1
1
1
1
1
1
1
1
1
1
1
1
1
1
1
1
1
1
1
1
1
1
1
1
1
1
1
1
1
1
1
1
1
1
1
1
1
1
1
1
1
1
1
1
1
1
1
1
1
1
1
1
1
1
1
1
1
1
1
1
1
1
1
1
1
1
1
1
1
1
1
1
1
1
1
1
1
1
1
1
1
1
1
1
1
1
1
1
1
1
1
1
1
1
1
1
1
1
1
1
1
1
1
1
1
1
1
1
1
1
1
1
1
1
1
1
1
1
1
1
1
1
1
1
1
1
1
1
1
1
1
1
1
1
1
1
1
1
1
1
1
1
1
1
1
1
1
1
1
1
1.04562
0.205761
0.0921075
0.031575
0.0269318
0.0396694
0.0686268
0.111522
0.162469
0.239684
0.335831
0.418634
0.499059
0.580688
0.650826
0.707567
0.738806
0.771269
0.840759
0.889295
0.928843
0.966036
0.99831
1.01808
1.03367
1.04648
1.05119
1.05724
1.0699
1.09549
1.13277
1.17509
1.20578
1.22104
1.22617
1.22269
1.22216
1.22704
1.23299
1.2391
1.24437
1.24921
1.25759
1.26906
1.27479
1.27758
1.28079
1.28422
1.28735
1.29034
1.29556
1.30337
1.31402
1.3225
1.32412
1.32304
1.32065
1.31846
1.31716
1.31699
1.31789
1.31973
1.32127
1.32098
1.31874
1.31577
1.31423
1.31544
1.31754
1.31724
1.3153
1.31312
1.31064
1.30669
1.3031
1.31788
1.47981
2.36224
5.41545
7.36703
7.18403
6.97377
6.90465
6.64136
6.42009
6.31288
6.24959
6.19749
6.11514
6.02526
5.94953
5.88324
5.81985
5.75656
5.69454
5.6295
5.54939
5.46837
5.38988
5.32226
5.26182
5.20438
5.14622
5.08832
5.03069
4.97307
4.91567
4.86086
4.81123
4.76602
4.72236
4.67978
4.64068
4.60759
4.57806
4.54184
4.49919
4.45326
4.39839
4.33851
4.28736
4.24466
4.20514
4.16829
4.1351
4.10218
4.06765
4.03063
3.98695
3.93206
3.86974
3.81273
3.76833
3.73413
3.70684
3.68322
3.66063
3.63638
3.60681
3.56661
3.51724
3.47108
3.43679
3.41167
3.39044
3.37116
3.35089
3.32746
3.29812
3.25834
3.2134
3.17686
3.15045
3.12889
3.10923
3.09067
3.07204
3.05244
3.02896
2.99713
2.95793
2.91814
2.88314
2.85347
2.82767
2.8045
2.7822
2.75857
2.73129
2.69956
2.66857
2.64611
2.62984
2.61509
2.60001
2.58377
2.56522
2.54185
2.51054
2.47559
2.45045
2.43493
2.4217
2.40924
2.39811
2.38669
2.37496
2.36024
2.33571
2.29524
2.24862
2.2036
1.96033
0.924878
0.53725
0.304817
0.222836
0.229332
0.220673
0.202888
0.219857
0.232908
0.242005
0.268027
0.296839
0.332114
0.395237
0.48059
0.566892
0.621925
0.665532
0.726412
0.801486
0.882637
0.93264
0.951796
0.974366
1.00676
1.0365
1.05582
1.07817
1.10232
1.13205
1.15568
1.17117
1.18344
1.19654
1.20514
1.21178
1.21853
1.22467
1.23244
1.24182
1.24873
1.25618