/*--------------------------------*- C++ -*----------------------------------*\
  =========                 |
  \\      /  F ield         | OpenFOAM: The Open Source CFD Toolbox
   \\    /   O peration     | Website:  https://openfoam.org
    \\  /    A nd           | Version:  7
     \\/     M anipulation  |
\*---------------------------------------------------------------------------*/
FoamFile
{
    version     2.0;
    format      ascii;
    class       volScalarField;
    location    "2.3";
    object      T;
}
// * * * * * * * * * * * * * * * * * * * * * * * * * * * * * * * * * * * * * //

dimensions      [0 0 0 1 0 0 0];

internalField   nonuniform List<scalar> 
19968
(
1
1
1
1
1
1
1
1
1
1
1
1
1
1
1
1
1
1
1
1
1
1
1
1
1
1
1
1
1
1
1
1
1
1
1
1
1
1
1
1
1
1
1
1
1
1
1
1
1
1.63917
2.60489
2.69906
2.69778
2.70152
2.70765
2.71566
2.72356
2.72997
2.73391
2.73557
2.73622
2.73728
2.73984
2.74463
2.75129
2.75816
2.76342
2.76616
2.76687
2.7671
2.76799
2.77009
2.77319
2.77644
2.77892
2.78045
2.78169
2.78366
2.78715
2.79211
2.79747
2.80198
2.80517
2.80741
2.80928
2.81093
2.81205
2.81248
2.81266
2.81323
2.81529
2.81973
2.82684
2.83515
2.84135
2.84402
1
1
1
1
1
1
1
1
1
1
1
1
1
1
1
1
1
1
1
1
1
1
1
1
1
1
1
1
1
1
1
1
1
1
1
1
1
1
1
1
1
1
1
1
1
1
1
1
1
1.62378
2.59889
2.69748
2.69727
2.7013
2.70778
2.71575
2.7235
2.72972
2.73353
2.73514
2.73581
2.73694
2.73959
2.74447
2.75117
2.758
2.76319
2.76587
2.76662
2.76693
2.76789
2.77
2.77306
2.77623
2.77865
2.78015
2.7814
2.7834
2.78691
2.79185
2.79716
2.8016
2.80474
2.80697
2.80885
2.81052
2.81166
2.81212
2.81232
2.81289
2.81495
2.81937
2.82644
2.83469
2.84084
2.84348
1
1
1
1
1
1
1
1
1
1
1
1
1
1
1
1
1
1
1
1
1
1
1
1
1
1
1
1
1
1
1
1
1
1
1
1
1
1
1
1
1
1
1
1
1
1
1
1
1
1.58632
2.58434
2.69478
2.69592
2.70109
2.70779
2.71551
2.72288
2.7287
2.73224
2.73384
2.73465
2.73599
2.73888
2.74398
2.75078
2.75756
2.76266
2.76525
2.76607
2.76649
2.76755
2.76969
2.77273
2.77583
2.77821
2.77971
2.78099
2.78302
2.78654
2.79146
2.79668
2.80104
2.80412
2.80634
2.80824
2.80994
2.8111
2.81156
2.81176
2.81232
2.81434
2.81871
2.82573
2.83391
2.83998
2.84255
1
1
1
1
1
1
1
1
1
1
1
1
1
1
1
1
1
1
1
1
1
1
1
1
1
1
1
1
1
1
1
1
1
1
1
1
1
1
1
1
1
1
1
1
1
1
1
1
1
1.52576
2.56178
2.69189
2.69509
2.70113
2.70769
2.7148
2.72145
2.72668
2.72995
2.73157
2.73265
2.73436
2.73768
2.74312
2.75007
2.75676
2.7617
2.76418
2.7651
2.76567
2.76688
2.76911
2.77219
2.77526
2.7776
2.77907
2.78032
2.78231
2.78578
2.79063
2.79577
2.80004
2.80306
2.80527
2.8072
2.80893
2.81013
2.81064
2.81087
2.81147
2.81347
2.81776
2.82469
2.83274
2.83867
2.84117
1
1
1
1
1
1
1
1
1
1
1
1
1
1
1
1
1
1
1
1
1
1
1
1
1
1
1
1
1
1
1
1
1
1
1
1
1
1
1
1
1
1
1
1
1
1
1
1
1
1.43999
2.52865
2.68955
2.69475
2.7012
2.70728
2.71354
2.71934
2.72398
2.72702
2.72878
2.73022
2.73247
2.73635
2.74218
2.74918
2.75564
2.76028
2.76257
2.76357
2.76431
2.7657
2.76811
2.77132
2.77444
2.77677
2.77821
2.77938
2.78127
2.78463
2.7894
2.79446
2.79867
2.80165
2.80383
2.80575
2.8075
2.80874
2.80932
2.80962
2.81031
2.81231
2.81647
2.82325
2.8311
2.83686
2.83927
1
1
1
1
1
1
1
1
1
1
1
1
1
1
1
1
1
1
1
1
1
1
1
1
1
1
1
1
1
1
1
1
1
1
1
1
1
1
1
1
1
1
1
1
1
1
1
1
1
1.3275
2.48028
2.68672
2.69463
2.70147
2.70703
2.71242
2.7173
2.7212
2.72391
2.72574
2.7276
2.73047
2.73493
2.74108
2.74801
2.75412
2.7584
2.76045
2.7615
2.76238
2.76402
2.76676
2.77028
2.77361
2.77598
2.77734
2.77834
2.77997
2.78309
2.78767
2.79262
2.79676
2.79966
2.80176
2.8036
2.80531
2.8066
2.80729
2.80773
2.80858
2.81061
2.81462
2.82121
2.82881
2.83439
2.83669
1
1
1
1
1
1
1
1
1
1
1
1
1
1
1
1
1
1
1
1
1
1
1
1
1
1
1
1
1
1
1
1
1
1
1
1
1
1
1
1
1
1
1
1
1
1
1
1
1
1.20549
2.41733
2.68434
2.69376
2.70171
2.70696
2.71177
2.71601
2.71932
2.72165
2.72341
2.72548
2.72872
2.73353
2.7398
2.74647
2.752
2.75574
2.75747
2.75854
2.7597
2.76176
2.76503
2.76899
2.77257
2.77496
2.77616
2.77688
2.77816
2.78094
2.7853
2.79013
2.79423
2.79707
2.79906
2.80079
2.80242
2.80373
2.80456
2.80517
2.8062
2.80828
2.81217
2.81859
2.82597
2.83139
2.83358
1
1
1
1
1
1
1
1
1
1
1
1
1
1
1
1
1
1
1
1
1
1
1
1
1
1
1
1
1
1
1
1
1
1
1
1
1
1
1
1
1
1
1
1
1
1
1
1
1
1.02557
2.31245
2.68566
2.6963
2.70299
2.70815
2.71239
2.71626
2.71935
2.72156
2.72337
2.72559
2.72897
2.73386
2.74005
2.74627
2.7509
2.75365
2.7547
2.75545
2.75666
2.75899
2.7627
2.76694
2.77062
2.77281
2.77369
2.77407
2.77499
2.77743
2.78158
2.78637
2.79054
2.79343
2.79537
2.797
2.79858
2.79995
2.80094
2.80176
2.80298
2.80512
2.80893
2.81519
2.82241
2.82768
2.82973
1
1
1
1
1
1
1
1
1
1
1
1
1
1
1
1
1
1
1
1
1
1
1
1
1
1
1
1
1
1
1
1
1
1
1
1
1
1
1
1
1
1
1
1
1
1
1
1
1
1.00014
2.17823
2.67781
2.69225
2.69702
2.70176
2.70568
2.70959
2.71295
2.71555
2.71787
2.72066
2.72463
2.73
2.73641
2.7424
2.7463
2.74826
2.74886
2.74944
2.75086
2.75373
2.75824
2.76317
2.76724
2.76946
2.77022
2.7705
2.77122
2.7734
2.77739
2.78216
2.78639
2.78926
2.79102
2.79239
2.79373
2.79499
2.79601
2.79692
2.79822
2.80042
2.80425
2.81048
2.81768
2.82287
2.82484
1
1
1
1
1
1
1
1
1
1
1
1
1
1
1
1
1
1
1
1
1
1
1
1
1
1
1
1
1
1
1
1
1
1
1
1
1
1
1
1
1
1
1
1
1
1
1
1
1
1
1.98533
2.65731
2.69002
2.69211
2.69561
2.6988
2.70244
2.70605
2.70927
2.71238
2.71599
2.72066
2.72644
2.73287
2.73858
2.74201
2.74353
2.74392
2.74428
2.74564
2.74867
2.75356
2.75891
2.7632
2.76529
2.7658
2.76582
2.7662
2.76794
2.77161
2.77632
2.78063
2.78357
2.78523
2.78639
2.78749
2.78862
2.7896
2.79053
2.79182
2.79399
2.7978
2.80405
2.81131
2.81646
2.81841
1
1
1
1
1
1
1
1
1
1
1
1
1
1
1
1
1
1
1
1
1
1
1
1
1
1
1
1
1
1
1
1
1
1
1
1
1
1
1
1
1
1
1
1
1
1
1
1
1
1
1.72126
2.60184
2.68399
2.68547
2.68848
2.69138
2.69485
2.69852
2.70214
2.70581
2.71
2.7151
2.72106
2.72747
2.73319
2.73672
2.7383
2.73879
2.73905
2.74021
2.74305
2.74792
2.75355
2.75817
2.76038
2.76075
2.76063
2.76073
2.76196
2.76518
2.76974
2.77408
2.77706
2.77854
2.77932
2.77998
2.78073
2.78149
2.78229
2.78348
2.78558
2.78938
2.79573
2.80318
2.80845
2.81053
1
1
1
1
1
1
1
1
1
1
1
1
1
1
1
1
1
1
1
1
1
1
1
1
1
1
1
1
1
1
1
1
1
1
1
1
1
1
1
1
1
1
1
1
1
1
1
1
1
1
1.34282
2.46864
2.67906
2.67919
2.68342
2.68603
2.68892
2.69205
2.69542
2.69911
2.70338
2.70841
2.71406
2.72005
2.72568
2.72963
2.73167
2.73252
2.7328
2.73365
2.73598
2.74033
2.74592
2.75081
2.75347
2.75394
2.75367
2.75344
2.75415
2.75674
2.76102
2.76543
2.76868
2.77027
2.77089
2.77126
2.77169
2.77221
2.7728
2.77361
2.77513
2.77848
2.78446
2.79181
2.79713
2.7993
1
1
1
1
1
1
1
1
1
1
1
1
1
1
1
1
1
1
1
1
1
1
1
1
1
1
1
1
1
1
1
1
1
1
1
1
1
1
1
1
1
1
1
1
1
1
1
1
1
1
1.01138
2.2428
2.68043
2.68097
2.68112
2.682
2.68356
2.68583
2.68864
2.69192
2.69566
2.69986
2.70449
2.70947
2.71457
2.71889
2.72171
2.72331
2.72411
2.72501
2.72696
2.73059
2.73561
2.74048
2.74373
2.74471
2.74445
2.74401
2.74423
2.74601
2.74964
2.75385
2.75719
2.75889
2.7593
2.75915
2.75879
2.75867
2.75875
2.75909
2.76018
2.76319
2.76899
2.7764
2.78178
2.78399
1
1
1
1
1
1
1
1
1
1
1
1
1
1
1
1
1
1
1
1
1
1
1
1
1
1
1
1
1
1
1
1
1
1
1
1
1
1
1
1
1
1
1
1
1
1
1
1
1
1
1.00002
1.88623
2.62886
2.6767
2.67645
2.67754
2.6788
2.68092
2.68363
2.68679
2.69012
2.69349
2.69695
2.7007
2.70485
2.70897
2.71229
2.71463
2.71611
2.7172
2.71877
2.72143
2.72527
2.7295
2.73289
2.73445
2.7344
2.73385
2.7335
2.73431
2.73671
2.74006
2.74306
2.74476
2.74506
2.74455
2.7437
2.74307
2.74274
2.74274
2.74314
2.7449
2.74878
2.75373
2.75657
2.75648
1
1
1
1
1
1
1
1
1
1
1
1
1
1
1
1
1
1
1
1
1
1
1
1
1
1
1
1
1
1
1
1
1
1
1
1
1
1
1
1
1
1
1
1
1
1
1
1
1
1
1
1.29703
2.42179
2.65468
2.6581
2.66379
2.66769
2.6716
2.67561
2.67949
2.68287
2.68571
2.68825
2.69085
2.69384
2.69715
2.70032
2.70296
2.70495
2.70633
2.70758
2.70935
2.71192
2.71515
2.71824
2.72028
2.72083
2.72044
2.71978
2.71974
2.72062
2.72258
2.72466
2.72581
2.72559
2.72436
2.72232
2.71993
2.71737
2.71469
2.71238
2.71131
2.71273
2.71598
2.7194
2.72045
1
1
1
1
1
1
1
1
1
1
1
1
1
1
1
1
1
1
1
1
1
1
1
1
1
1
1
1
1
1
1
1
1
1
1
1
1
1
1
1
1
1
1
1
1
1
1
1
1
1
1
1.00585
2.02239
2.61669
2.63545
2.64267
2.64939
2.65581
2.66166
2.66664
2.67069
2.67392
2.67656
2.67896
2.68139
2.684
2.68666
2.6892
2.69146
2.69324
2.69453
2.69569
2.69718
2.69916
2.70132
2.70333
2.70449
2.70439
2.70365
2.70265
2.70215
2.70234
2.70268
2.70249
2.7013
2.69879
2.69517
2.6909
2.6863
2.68156
2.67713
2.67398
2.67239
2.67627
2.67908
2.69792
1
1
1
1
1
1
1
1
1
1
1
1
1
1
1
1
1
1
1
1
1
1
1
1
1
1
1
1
1
1
1
1
1
1
1
1
1
1
1
1
1
1
1
1
1
1
1
1
1
1
1
0.999928
1.39418
2.43956
2.61527
2.62357
2.63316
2.64065
2.64703
2.65262
2.65753
2.66182
2.66548
2.66846
2.67081
2.67276
2.6746
2.67652
2.67855
2.68047
2.68188
2.68272
2.68341
2.68415
2.68517
2.68651
2.68763
2.68783
2.68716
2.68566
2.684
2.68255
2.68117
2.67933
2.6765
2.67225
2.66642
2.65918
2.65039
2.63977
2.62587
2.60734
2.58011
2.54215
2.48321
2.36036
1
1
1
1
1
1
1
1
1
1
1
1
1
1
1
1
1
1
1
1
1
1
1
1
1
1
1
1
1
1
1
1
1
1
1
1
1
1
1
1
1
1
1
1
1
1
1
1
1
1
1
0.99999
1.01661
2.16269
2.6184
2.62032
2.6242
2.62841
2.63308
2.63824
2.64347
2.64868
2.65355
2.65763
2.66058
2.66244
2.66365
2.6648
2.6663
2.66809
2.66972
2.67071
2.67096
2.67097
2.671
2.67136
2.67189
2.67209
2.67146
2.66984
2.66758
2.66497
2.66204
2.65853
2.65388
2.64769
2.6394
2.62911
2.61606
2.60005
2.57823
2.54896
2.50584
2.45112
2.34201
2.1851
1
1
1
1
1
1
1
1
1
1
1
1
1
1
1
1
1
1
1
1
1
1
1
1
1
1
1
1
1
1
1
1
1
1
1
1
1
1
1
1
1
1
1
1
1
1
1
1
1
1
1
1
1.00001
1.60014
2.49722
2.61456
2.61637
2.61953
2.62253
2.62614
2.63056
2.63574
2.64117
2.6461
2.64979
2.65198
2.6528
2.6533
2.65414
2.65551
2.65716
2.65827
2.65838
2.65799
2.65717
2.65638
2.65582
2.65535
2.65441
2.65267
2.65001
2.64653
2.64217
2.63698
2.6304
2.62218
2.61146
2.5983
2.58176
2.56127
2.53466
2.49841
2.45115
2.37728
2.27551
2.14506
1
1
1
1
1
1
1
1
1
1
1
1
1
1
1
1
1
1
1
1
1
1
1
1
1
1
1
1
1
1
1
1
1
1
1
1
1
1
1
1
1
1
1
1
1
1
1
1
1
1
1
1
1
1.04171
2.24806
2.61899
2.61677
2.61595
2.61617
2.61684
2.61909
2.62316
2.62835
2.63354
2.63781
2.64034
2.64115
2.64125
2.6415
2.64228
2.64359
2.64473
2.64486
2.64432
2.64298
2.64119
2.6394
2.63785
2.6362
2.63414
2.63117
2.62712
2.62171
2.61509
2.60683
2.59676
2.58407
2.56854
2.54955
2.52618
2.4971
2.45883
2.40982
2.34169
2.25732
2.15987
1
1
1
1
1
1
1
1
1
1
1
1
1
1
1
1
1
1
1
1
1
1
1
1
1
1
1
1
1
1
1
1
1
1
1
1
1
1
1
1
1
1
1
1
1
1
1
1
1
1
1
1
1
1.0001
1.71229
2.51564
2.59685
2.60294
2.605
2.60606
2.60772
2.61079
2.61528
2.61991
2.62406
2.62708
2.62837
2.62868
2.62876
2.62908
2.62996
2.63095
2.63123
2.63072
2.62914
2.62663
2.62366
2.62083
2.61817
2.61544
2.61198
2.60741
2.60129
2.59358
2.58408
2.57261
2.55861
2.54163
2.52128
2.49661
2.46685
2.42934
2.38378
2.3268
2.26114
2.18192
1
1
1
1
1
1
1
1
1
1
1
1
1
1
1
1
1
1
1
1
1
1
1
1
1
1
1
1
1
1
1
1
1
1
1
1
1
1
1
1
1
1
1
1
1
1
1
1
1
1
1
1
1
1
1.06224
2.24661
2.59695
2.59397
2.59257
2.59426
2.59637
2.59949
2.60358
2.60768
2.61159
2.61473
2.61622
2.61627
2.61586
2.61545
2.61563
2.61623
2.61663
2.61628
2.61482
2.61207
2.60835
2.6044
2.60052
2.59672
2.59243
2.58721
2.58048
2.57205
2.56179
2.54948
2.53481
2.51732
2.49673
2.47207
2.44314
2.4082
2.3677
2.32043
2.26706
2.20381
1
1
1
1
1
1
1
1
1
1
1
1
1
1
1
1
1
1
1
1
1
1
1
1
1
1
1
1
1
1
1
1
1
1
1
1
1
1
1
1
1
1
1
1
1
1
1
1
1
1
1
1
1
1
1.00025
1.64418
2.47851
2.56418
2.57108
2.57773
2.58197
2.5865
2.59101
2.5946
2.59782
2.60016
2.60144
2.60161
2.60119
2.60059
2.60034
2.60056
2.60093
2.60075
2.59964
2.5972
2.59337
2.58886
2.584
2.57916
2.57398
2.56799
2.56065
2.55165
2.54087
2.52812
2.51323
2.49581
2.47579
2.45206
2.42499
2.39328
2.35794
2.3173
2.27264
2.22122
1
1
1
1
1
1
1
1
1
1
1
1
1
1
1
1
1
1
1
1
1
1
1
1
1
1
1
1
1
1
1
1
1
1
1
1
1
1
1
1
1
1
1
1
1
1
1
1
1
1
1
1
1
1
1
1.04645
2.16354
2.56298
2.56534
2.5669
2.56972
2.57471
2.58027
2.58398
2.58687
2.58833
2.58884
2.58875
2.58803
2.58705
2.58606
2.58563
2.58559
2.58533
2.5844
2.58232
2.57868
2.57385
2.56829
2.56252
2.55629
2.54941
2.54141
2.53197
2.52083
2.50786
2.49307
2.47606
2.45704
2.43485
2.41008
2.38217
2.35102
2.31605
2.27763
2.23443
1
1
1
1
1
1
1
1
1
1
1
1
1
1
1
1
1
1
1
1
1
1
1
1
1
1
1
1
1
1
1
1
1
1
1
1
1
1
1
1
1
1
1
1
1
1
1
1
1
1
1
1
1
1
1
1.00014
1.40185
2.38707
2.55185
2.55197
2.55554
2.56092
2.56645
2.5704
2.57329
2.57468
2.57489
2.57477
2.574
2.57294
2.5716
2.57064
2.57003
2.56939
2.5684
2.56655
2.56325
2.5586
2.55289
2.54665
2.53978
2.53227
2.52387
2.5142
2.50286
2.48971
2.47505
2.45824
2.44017
2.41955
2.3971
2.37284
2.34512
2.31519
2.28162
2.2452
1
1
1
1
1
1
1
1
1
1
1
1
1
1
1
1
1
1
1
1
1
1
1
1
1
1
1
1
1
1
1
1
1
1
1
1
1
1
1
1
1
1
1
1
1
1
1
1
1
1
1
1
1
1
1
1
1.01352
1.95872
2.5211
2.54147
2.5465
2.5497
2.55284
2.55575
2.55818
2.55984
2.56051
2.56048
2.55991
2.55908
2.55777
2.55657
2.55551
2.55432
2.55298
2.55104
2.54786
2.54331
2.53753
2.53085
2.52347
2.51552
2.50708
2.49752
2.48641
2.47322
2.45879
2.44204
2.42476
2.40553
2.3851
2.36379
2.33918
2.31362
2.28405
2.25287
1
1
1
1
1
1
1
1
1
1
1
1
1
1
1
1
1
1
1
1
1
1
1
1
1
1
1
1
1
1
1
1
1
1
1
1
1
1
1
1
1
1
1
1
1
1
1
1
1
1
1
1
1
1
1
1
1.00002
1.14031
2.23611
2.53438
2.53585
2.53864
2.54
2.54219
2.54416
2.54562
2.54664
2.5467
2.5462
2.54553
2.54435
2.54314
2.54187
2.54012
2.53824
2.53584
2.53242
2.5278
2.5219
2.51509
2.5076
2.49948
2.49122
2.4821
2.47168
2.45872
2.44444
2.42813
2.41153
2.39335
2.37444
2.3551
2.33317
2.31085
2.28472
2.25792
1
1
1
1
1
1
1
1
1
1
1
1
1
1
1
1
1
1
1
1
1
1
1
1
1
1
1
1
1
1
1
1
1
1
1
1
1
1
1
1
1
1
1
1
1
1
1
1
1
1
1
1
1
1
1
1
1
1.00128
1.53467
2.38791
2.51751
2.51802
2.52161
2.52546
2.52823
2.53017
2.53139
2.53175
2.53118
2.53041
2.5293
2.52821
2.52712
2.5254
2.52327
2.5206
2.51695
2.51215
2.50609
2.49919
2.49173
2.48378
2.4757
2.46713
2.45714
2.44493
2.43137
2.41602
2.40027
2.38304
2.36556
2.34737
2.32775
2.30719
2.28413
2.26045
1
1
1
1
1
1
1
1
1
1
1
1
1
1
1
1
1
1
1
1
1
1
1
1
1
1
1
1
1
1
1
1
1
1
1
1
1
1
1
1
1
1
1
1
1
1
1
1
1
1
1
1
1
1
1
1
1
1
1.02798
1.93861
2.48163
2.50351
2.50901
2.51216
2.51429
2.51571
2.5166
2.51678
2.51617
2.51515
2.51391
2.51282
2.51201
2.51059
2.5085
2.50567
2.50189
2.49688
2.4907
2.48369
2.47631
2.46866
2.46097
2.45276
2.44313
2.43185
2.41931
2.40514
2.3905
2.37447
2.35833
2.34111
2.32308
2.30362
2.28311
2.26166
1
1
1
1
1
1
1
1
1
1
1
1
1
1
1
1
1
1
1
1
1
1
1
1
1
1
1
1
1
1
1
1
1
1
1
1
1
1
1
1
1
1
1
1
1
1
1
1
1
1
1
1
1
1
1
1
1
1
1.00007
1.13773
2.14061
2.48585
2.50206
2.50182
2.50239
2.50261
2.5022
2.50126
2.50001
2.49875
2.49749
2.49663
2.49617
2.49521
2.49347
2.49073
2.48694
2.48206
2.47608
2.46908
2.46182
2.45437
2.44696
2.4388
2.42956
2.41921
2.40766
2.39483
2.38136
2.36677
2.3518
2.33556
2.31871
2.30024
2.28149
2.26172
1
1
1
1
1
1
1
1
1
1
1
1
1
1
1
1
1
1
1
1
1
1
1
1
1
1
1
1
1
1
1
1
1
1
1
1
1
1
1
1
1
1
1
1
1
1
1
1
1
1
1
1
1
1
1
1
1
1
1
1.00126
1.28402
2.28208
2.4853
2.486
2.48721
2.48643
2.48498
2.4831
2.48148
2.48049
2.47966
2.47932
2.47937
2.47902
2.47774
2.4753
2.47163
2.46689
2.46131
2.45482
2.44793
2.44081
2.43344
2.42549
2.41676
2.40717
2.39653
2.38495
2.37246
2.3592
2.34508
2.32979
2.314
2.29687
2.2795
2.26145
1
1
1
1
1
1
1
1
1
1
1
1
1
1
1
1
1
1
1
1
1
1
1
1
1
1
1
1
1
1
1
1
1
1
1
1
1
1
1
1
1
1
1
1
1
1
1
1
1
1
1
1
1
1
1
1
1
1
1
1
1.00589
1.67157
2.38923
2.46661
2.46238
2.46184
2.4611
2.46041
2.46035
2.46069
2.46124
2.46209
2.46304
2.46293
2.46206
2.45997
2.45656
2.45187
2.44663
2.44082
2.43441
2.42773
2.42075
2.41326
2.40502
2.39604
2.38618
2.37552
2.36378
2.35143
2.33797
2.32343
2.30853
2.29281
2.27671
2.26035
1
1
1
1
1
1
1
1
1
1
1
1
1
1
1
1
1
1
1
1
1
1
1
1
1
1
1
1
1
1
1
1
1
1
1
1
1
1
1
1
1
1
1
1
1
1
1
1
1
1
1
1
1
1
1
1
1
1
1
1
1.00001
1.05052
1.93098
2.44154
2.44909
2.44319
2.44306
2.44265
2.44282
2.44328
2.44409
2.44529
2.44665
2.44674
2.44605
2.44415
2.44096
2.43646
2.43141
2.42603
2.42016
2.41414
2.40789
2.40112
2.3936
2.38527
2.37615
2.36617
2.35506
2.34335
2.33042
2.31663
2.30273
2.28836
2.27357
2.25858
1
1
1
1
1
1
1
1
1
1
1
1
1
1
1
1
1
1
1
1
1
1
1
1
1
1
1
1
1
1
1
1
1
1
1
1
1
1
1
1
1
1
1
1
1
1
1
1
1
1
1
1
1
1
1
1
1
1
1
1
1
1.00021
1.13822
2.05155
2.43071
2.43402
2.43197
2.432
2.43134
2.43049
2.43009
2.43018
2.43061
2.43053
2.4298
2.42805
2.42513
2.42097
2.41609
2.41088
2.40547
2.40007
2.39468
2.38893
2.3824
2.37489
2.36646
2.35703
2.34648
2.33513
2.32271
2.30961
2.29663
2.2833
2.26972
2.25572
1
1
1
1
1
1
1
1
1
1
1
1
1
1
1
1
1
1
1
1
1
1
1
1
1
1
1
1
1
1
1
1
1
1
1
1
1
1
1
1
1
1
1
1
1
1
1
1
1
1
1
1
1
1
1
1
1
1
1
1
1
1
1.00129
1.2205
2.11308
2.40402
2.42563
2.42499
2.4235
2.42161
2.41963
2.4179
2.41665
2.41555
2.41418
2.41215
2.40918
2.40524
2.40057
2.39551
2.39038
2.38545
2.38073
2.37586
2.37033
2.36373
2.35598
2.34707
2.33708
2.32614
2.31437
2.30218
2.29027
2.27795
2.26547
2.25236
1
1
1
1
1
1
1
1
1
1
1
1
1
1
1
1
1
1
1
1
1
1
1
1
1
1
1
1
1
1
1
1
1
1
1
1
1
1
1
1
1
1
1
1
1
1
1
1
1
1
1
1
1
1
1
1
1
1
1
1
1
1
1
1.00334
1.29435
2.14782
2.38769
2.41254
2.41205
2.41111
2.40935
2.40704
2.40471
2.40238
2.39985
2.39695
2.39357
2.38965
2.3852
2.38037
2.37549
2.37089
2.3665
2.36206
2.35711
2.35121
2.34405
2.33574
2.32646
2.31626
2.30549
2.29459
2.28384
2.27245
2.26096
2.24878
1
1
1
1
1
1
1
1
1
1
1
1
1
1
1
1
1
1
1
1
1
1
1
1
1
1
1
1
1
1
1
1
1
1
1
1
1
1
1
1
1
1
1
1
1
1
1
1
1
1
1
1
1
1
1
1
1
1
1
1
1
1
1
1
1.00631
1.36019
2.17143
2.3731
2.39133
2.39509
2.39496
2.39412
2.39262
2.39053
2.38771
2.38432
2.38046
2.37619
2.37152
2.36665
2.36181
2.35719
2.35279
2.34837
2.34356
2.33807
2.33152
2.32388
2.31554
2.30647
2.29676
2.28704
2.27737
2.26687
2.25627
2.24506
1
1
1
1
1
1
1
1
1
1
1
1
1
1
1
1
1
1
1
1
1
1
1
1
1
1
1
1
1
1
1
1
1
1
1
1
1
1
1
1
1
1
1
1
1
1
1
1
1
1
1
1
1
1
1
1
1
1
1
1
1
1
1
1
1.00001
1.01018
1.41517
2.18773
2.35576
2.37036
2.37512
2.37715
2.37705
2.37611
2.37421
2.37153
2.36818
2.36413
2.35961
2.35481
2.34991
2.34502
2.34016
2.3352
2.32997
2.32431
2.31796
2.31089
2.30344
2.29557
2.28713
2.2787
2.27029
2.26091
2.25121
2.241
1
1
1
1
1
1
1
1
1
1
1
1
1
1
1
1
1
1
1
1
1
1
1
1
1
1
1
1
1
1
1
1
1
1
1
1
1
1
1
1
1
1
1
1
1
1
1
1
1
1
1
1
1
1
1
1
1
1
1
1
1
1
1
1
1
1.00002
1.01463
1.45606
2.19483
2.34012
2.35155
2.35496
2.35711
2.35786
2.35769
2.35659
2.35441
2.35137
2.34775
2.3436
2.33896
2.33393
2.32863
2.3231
2.3173
2.31122
2.3048
2.29803
2.29117
2.2842
2.27683
2.26935
2.26191
2.25362
2.24475
2.2355
1
1
1
1
1
1
1
1
1
1
1
1
1
1
1
1
1
1
1
1
1
1
1
1
1
1
1
1
1
1
1
1
1
1
1
1
1
1
1
1
1
1
1
1
1
1
1
1
1
1
1
1
1
1
1
1
1
1
1
1
1
1
1
1
1
1
1.00004
1.01877
1.48179
2.19356
2.32579
2.33566
2.33619
2.33713
2.3377
2.3379
2.33744
2.33622
2.33405
2.33089
2.32699
2.3225
2.31745
2.31185
2.30584
2.29964
2.2932
2.28657
2.27995
2.27341
2.26665
2.25968
2.25275
2.24528
2.23716
2.22872
1
1
1
1
1
1
1
1
1
1
1
1
1
1
1
1
1
1
1
1
1
1
1
1
1
1
1
1
1
1
1
1
1
1
1
1
1
1
1
1
1
1
1
1
1
1
1
1
1
1
1
1
1
1
1
1
1
1
1
1
1
1
1
1
1
1
1
1.00006
1.02184
1.49047
2.18245
2.31353
2.3194
2.3185
2.3184
2.31812
2.31816
2.31789
2.31699
2.31533
2.31286
2.30952
2.30534
2.30049
2.29516
2.28942
2.28333
2.27697
2.27051
2.26406
2.25742
2.25049
2.24353
2.23635
2.2286
2.2206
1
1
1
1
1
1
1
1
1
1
1
1
1
1
1
1
1
1
1
1
1
1
1
1
1
1
1
1
1
1
1
1
1
1
1
1
1
1
1
1
1
1
1
1
1
1
1
1
1
1
1
1
1
1
1
1
1
1
1
1
1
1
1
1
1
1
1
1
1.00007
1.02299
1.48093
2.1621
2.29792
2.3052
2.30295
2.30159
2.30008
2.29918
2.29828
2.2973
2.29593
2.29394
2.29127
2.28796
2.28397
2.2793
2.27406
2.26836
2.26231
2.25599
2.24935
2.24227
2.23506
2.22775
2.22004
2.2121
1
1
1
1
1
1
1
1
1
1
1
1
1
1
1
1
1
1
1
1
1
1
1
1
1
1
1
1
1
1
1
1
1
1
1
1
1
1
1
1
1
1
1
1
1
1
1
1
1
1
1
1
1
1
1
1
1
1
1
1
1
1
1
1
1
1
1
1
1
1.00008
1.02193
1.45396
2.12574
2.28247
2.2916
2.2881
2.28589
2.28346
2.28149
2.27995
2.27858
2.27716
2.27554
2.27358
2.27103
2.26774
2.2637
2.259
2.25371
2.24788
2.24152
2.23456
2.22729
2.21989
2.21219
2.20416
1
1
1
1
1
1
1
1
1
1
1
1
1
1
1
1
1
1
1
1
1
1
1
1
1
1
1
1
1
1
1
1
1
1
1
1
1
1
1
1
1
1
1
1
1
1
1
1
1
1
1
1
1
1
1
1
1
1
1
1
1
1
1
1
1
1
1
1
1
1
1.00008
1.0189
1.40887
2.07401
2.25963
2.2787
2.27399
2.27106
2.26826
2.26584
2.26379
2.26198
2.26033
2.25865
2.2567
2.25426
2.25125
2.24763
2.24335
2.23842
2.23281
2.2265
2.21966
2.21252
2.20508
2.19719
1
1
1
1
1
1
1
1
1
1
1
1
1
1
1
1
1
1
1
1
1
1
1
1
1
1
1
1
1
1
1
1
1
1
1
1
1
1
1
1
1
1
1
1
1
1
1
1
1
1
1
1
1
1
1
1
1
1
1
1
1
1
1
1
1
1
1
1
1
1
1
1.00006
1.01457
1.34823
1.99087
2.23261
2.26489
2.25949
2.25694
2.2547
2.25242
2.2501
2.2478
2.24546
2.24305
2.24045
2.23765
2.23455
2.23105
2.22702
2.22239
2.21709
2.21117
2.20476
2.198
2.1907
1
1
1
1
1
1
1
1
1
1
1
1
1
1
1
1
1
1
1
1
1
1
1
1
1
1
1
1
1
1
1
1
1
1
1
1
1
1
1
1
1
1
1
1
1
1
1
1
1
1
1
1
1
1
1
1
1
1
1
1
1
1
1
1
1
1
1
1
1
1
1
1
1.00004
1.00997
1.26924
1.87363
2.20037
2.24821
2.24484
2.24384
2.24196
2.23952
2.23671
2.23364
2.23043
2.22718
2.22397
2.22077
2.21748
2.21396
2.21012
2.20583
2.20101
2.1957
2.18988
2.18355
1
1
1
1
1
1
1
1
1
1
1
1
1
1
1
1
1
1
1
1
1
1
1
1
1
1
1
1
1
1
1
1
1
1
1
1
1
1
1
1
1
1
1
1
1
1
1
1
1
1
1
1
1
1
1
1
1
1
1
1
1
1
1
1
1
1
1
1
1
1
1
1
1
1.00002
1.0058
1.17957
1.75232
2.1586
2.23024
2.22997
2.22827
2.22642
2.22383
2.22078
2.21743
2.21398
2.2105
2.20706
2.20368
2.20031
2.19686
2.19319
2.18927
2.18493
2.18009
2.175
1
1
1
1
1
1
1
1
1
1
1
1
1
1
1
1
1
1
1
1
1
1
1
1
1
1
1
1
1
1
1
1
1
1
1
1
1
1
1
1
1
1
1
1
1
1
1
1
1
1
1
1
1
1
1
1
1
1
1
1
1
1
1
1
1
1
1
1
1
1
1
1
1
1
1.00001
1.00269
1.10923
1.62678
2.11305
2.20419
2.21717
2.21173
2.20962
2.20679
2.20371
2.20043
2.19707
2.19364
2.19023
2.1868
2.18337
2.17997
2.17645
2.1727
2.16881
2.1646
1
1
1
1
1
1
1
1
1
1
1
1
1
1
1
1
1
1
1
1
1
1
1
1
1
1
1
1
1
1
1
1
1
1
1
1
1
1
1
1
1
1
1
1
1
1
1
1
1
1
1
1
1
1
1
1
1
1
1
1
1
1
1
1
1
1
1
1
1
1
1
1
1
1
1
1
1.00111
1.05972
1.50775
2.03621
2.1819
2.20459
2.19741
2.1942
2.19089
2.18765
2.18421
2.18075
2.17724
2.17367
2.17022
2.16679
2.16327
2.15989
2.15633
2.15249
1
1
1
1
1
1
1
1
1
1
1
1
1
1
1
1
1
1
1
1
1
1
1
1
1
1
1
1
1
1
1
1
1
1
1
1
1
1
1
1
1
1
1
1
1
1
1
1
1
1
1
1
1
1
1
1
1
1
1
1
1
1
1
1
1
1
1
1
1
1
1
1
1
1
1
1
1
1.00041
1.03022
1.38053
1.92679
2.15571
2.18847
2.18419
2.18033
2.17661
2.17312
2.16949
2.16583
2.16226
2.15864
2.15488
2.15131
2.14768
2.1438
2.1401
1
1
1
1
1
1
1
1
1
1
1
1
1
1
1
1
1
1
1
1
1
1
1
1
1
1
1
1
1
1
1
1
1
1
1
1
1
1
1
1
1
1
1
1
1
1
1
1
1
1
1
1
1
1
1
1
1
1
1
1
1
1
1
1
1
1
1
1
1
1
1
1
1
1
1
1
1
1
1.00014
1.01376
1.25174
1.78257
2.11212
2.17089
2.1706
2.16564
2.16262
2.15976
2.15644
2.15283
2.14893
2.14514
2.14137
2.13697
2.13294
2.12905
1
1
1
1
1
1
1
1
1
1
1
1
1
1
1
1
1
1
1
1
1
1
1
1
1
1
1
1
1
1
1
1
1
1
1
1
1
1
1
1
1
1
1
1
1
1
1
1
1
1
1
1
1
1
1
1
1
1
1
1
1
1
1
1
1
1
1
1
1
1
1
1
1
1
1
1
1
1
1
1.00004
1.00548
1.13884
1.61864
2.04722
2.14063
2.15953
2.15394
2.15067
2.14769
2.14452
2.14061
2.13645
2.132
2.12777
2.124
2.11967
1
1
1
1
1
1
1
1
1
1
1
1
1
1
1
1
1
1
1
1
1
1
1
1
1
1
1
1
1
1
1
1
1
1
1
1
1
1
1
1
1
1
1
1
1
1
1
1
1
1
1
1
1
1
1
1
1
1
1
1
1
1
1
1
1
1
1
1
1
1
1
1
1
1
1
1
1
1
1
1
1.00001
1.00179
1.06316
1.45598
1.93656
2.11153
2.14363
2.14089
2.13712
2.13473
2.13187
2.12777
2.12325
2.11961
2.11537
2.11124
1
1
1
1
1
1
1
1
1
1
1
1
1
1
1
1
1
1
1
1
1
1
1
1
1
1
1
1
1
1
1
1
1
1
1
1
1
1
1
1
1
1
1
1
1
1
1
1
1
1
1
1
1
1
1
1
1
1
1
1
1
1
1
1
1
1
1
1
1
1
1
1
1
1
1
1
1
1
1
1
1
1
1.00047
1.02435
1.29642
1.78162
2.0665
2.11875
2.13041
2.12543
2.12218
2.11936
2.11561
2.11099
2.10708
2.10387
1
1
1
1
1
1
1
1
1
1
1
1
1
1
1
1
1
1
1
1
1
1
1
1
1
1
1
1
1
1
1
1
1
1
1
1
1
1
1
1
1
1
1
1
1
1
1
1
1
1
1
1
1
1
1
1
1
1
1
1
1
1
1
1
1
1
1
1
1
1
1
1
1
1
1
1
1
1
1
1
1
1
1
1.0001
1.00824
1.1551
1.58865
1.99253
2.08762
2.11438
2.11214
2.10882
2.10562
2.10181
2.09842
2.09568
1
1
1
1
1
1
1
1
1
1
1
1
1
1
1
1
1
1
1
1
1
1
1
1
1
1
1
1
1
1
1
1
1
1
1
1
1
1
1
1
1
1
1
1
1
1
1
1
1
1
1
1
1
1
1
1
1
1
1
1
1
1
1
1
1
1
1
1
1
1
1
1
1
1
1
1
1
1
1
1
1
1
1
1
1.00002
1.00232
1.05905
1.41531
1.84606
2.05151
2.10175
2.1043
2.10056
2.09467
2.08598
2.08333
1
1
1
1
1
1
1
1
1
1
1
1
1
1
1
1
1
1
1
1
1
1
1
1
1
1
1
1
1
1
1
1
1
1
1
1
1
1
1
1
1
1
1
1
1
1
1
1
1
1
1
1
1
1
1
1
1
1
1
1
1
1
1
1
1
1
1
1
1
1
1
1
1
1
1
1
1
1
1
1
1
1
1
1
1
1
1.00045
1.02017
1.23231
1.66989
1.97785
2.07992
2.09406
2.08873
2.08125
2.07177
1
1
1
1
1
1
1
1
1
1
1
1
1
1
1
1
1
1
1
1
1
1
1
1
1
1
1
1
1
1
1
1
1
1
1
1
1
1
1
1
1
1
1
1
1
1
1
1
1
1
1
1
1
1
1
1
1
1
1
1
1
1
1
1
1
1
1
1
1
1
1
1
1
1
1
1
1
1
1
1
1
1
1
1
1
1
1
1.00008
1.00515
1.09855
1.46943
1.85939
2.04555
2.07882
2.07767
2.06498
1
1
1
1
1
1
1
1
1
1
1
1
1
1
1
1
1
1
1
1
1
1
1
1
1
1
1
1
1
1
1
1
1
1
1
1
1
1
1
1
1
1
1
1
1
1
1
1
1
1
1
1
1
1
1
1
1
1
1
1
1
1
1
1
1
1
1
1
1
1
1
1
1
1
1
1
1
1
1
1
1
1
1
1
1
1
1
1
1.00001
1.00104
1.03223
1.27373
1.68709
1.98945
2.05353
2.05902
1
1
1
1
1
1
1
1
1
1
1
1
1
1
1
1
1
1
1
1
1
1
1
1
1
1
1
1
1
1
1
1
1
1
1
1
1
1
1
1
1
1
1
1
1
1
1
1
1
1
1
1
1
1
1
1
1
1
1
1
1
1
1
1
1
1
1
1
1
1
1
1
1
1
1
1
1
1
1
1
1
1
1
1
1
1
1
1
1
1
1.00017
1.00828
1.1196
1.50611
1.8591
2.01179
1
1
1
1
1
1
1
1
1
1
1
1
1
1
1
1
1
1
1
1
1
1
1
1
1
1
1
1
1
1
1
1
1
1
1
1
1
1
1
1
1
1
1
1
1
1
1
1
1
1
1
1
1
1
1
1
1
1
1
1
1
1
1
1
1
1
1
1
1
1
1
1
1
1
1
1
1
1
1
1
1
1
1
1
1
1
1
1
1
1
1
1.00002
1.00162
1.04049
1.28487
1.70603
1
1
1
1
1
1
1
1
1
1
1
1
1
1
1
1
1
1
1
1
1
1
1
1
1
1
1
1
1
1
1
1
1
1
1
1
1
1
1
1
1
1
1
1
1
1
1
1
1
1
1
1
1
1
1
1
1
1
1
1
1
1
1
1
1
1
1
1
1
1
1
1
1
1
1
1
1
1
1
1
1
1
1
1
1
1
1
1
1
1
1
1
1
1.00025
1.00903
1.12914
1
1
1
1
1
1
1
1
1
1
1
1
1
1
1
1
1
1
1
1
1
1
1
1
1
1
1
1
1
1
1
1
1
1
1
1
1
1
1
1
1
1
1
1
1
1
1
1
1
1
1
1
1
1
1
1
1
1
1
1
1
1
1
1
1
1
1
1
1
1
1
1
1
1
1
1
1
1
1
1
1
1
1
1
1
1
1
1
1
1
1
1
1
1
1.00003
1.00164
1
1
1
1
1
1
1
1
1
1
1
1
1
1
1
1
1
1
1
1
1
1
1
1
1
1
1
1
1
1
1
1
1
1
1
1
1
1
1
1
1
1
1
1
1
1
1
1
1
1
1
1
1
1
1
1
1
1
1
1
1
1
1
1
1
1
1
1
1
1
1
1
1
1
1
1
1
1
1
1
1
1
1
1
1
1
1
1
1
1
1
1
1
1
1
1
1
1
1
1
1
1
1
1
1
1
1
1
1
1
1
1
1
1
1
1
1
1
1
1
1
1
1
1
1
1
1
1
1
1
1
1
1
1
1
1
1
1
1
1
1
1
1
1
1
1
1
1
1
1
1
1
1
1
1
1
1
1
1
1
1
1
1
1
1
1
1
1
1
1
1
1
1
1
1
1
1
1
1
1
1
1
1
1
1
1
1
1
1
1
1
1
1
1
1
1
1
1
1
1
1
1
1
1
1
1
1
1
1
1
1
1
1
1
1
1
1
1
1
1
1
1
1
1
1
1
1
1
1
1
1
1
1
1
1
1
1
1
1
1
1
1
1
1
1
1
1
1
1
1
1
1
1
1
1
1
1
1
1
1
1
1
1
1
1
1
1
1
1
1
1
1
1
1
1
1
1
1
1
1
1
1
1
1
1
1
1
1
1
1
1
1
1
1
1
1
1
1
1
1
1
1
1
1
1
1
1
1
1
1
1
1
1
1
1
1
1
1
1
1
1
1
1
1
1
1
1
1
1
1
1
1
1
1
1
1
1
1
1
1
1
1
1
1
1
1
1
1
1
1
1
1
1
1
1
1
1
1
1
1
1
1
1
1
1
1
1
1
1
1
1
1
1
1
1
1
1
1
1
1
1
1
1
1
1
1
1
1
1
1
1
1
1
1
1
1
1
1
1
1
1
1
1
1
1
1
1
1
1
1
1
1
1
1
1
1
1
1
1
1
1
1
1
1
1
1
1
1
1
1
1
1
1
1
1
1
1
1
1
1
1
1
1
1
1
1
1
1
1
1
1
1
1
1
1
1
1
1
1
1
1
1
1
1
1
1
1
1
1
1
1
1
1
1
1
1
1
1
1
1
1
1
1
1
1
1
1
1
1
1
1
1
1
1
1
1
1
1
1
1
1
1
1
1
1
1
1
1
1
1
1
1
1
1
1
1
1
1
1
1
1
1
1
1
1
1
1
1
1
1
1
1
1
1
1
1
1
1
1
1
1
1
1
1
1
1
1
1
1
1
1
1
1
1
1
1
1
1
1
1
1
1
1
1
1
1
1
1
1
1
1
1
1
1
1
1
1
1
1
1
1
1
1
1
1
1
1
1
1
1
1
1
1
1
1
1
1
1
1
1
1
1
1
1
1
1
1
1
1
1
1
1
1
1
1
1
1
1
1
1
1
1
1
1
1
1
1
1
1
1
1
1
1
1
1
1
1
1
1
1
1
1
1
1
1
1
1
1
1
1
1
1
1
1
1
1
1
1
1
1
1
1
1
1
1
1
1
1
1
1
1
1
1
1
1
1
1
1
1
1
1
1
1
1
1
1
1
1
1
1
1
1
1
1
1
1
1
1
1
1
1
1
1
1
1
1
1
1
1
1
1
1
1
1
1
1
1
1
1
1
1
1
1
1
1
1
1
1
1
1
1
1
1
1
1
1
1
1
1
1
1
1
1
1
1
1
1
1
1
1
1
1
1
1
1
1
1
1
1
1
1
1
1
1
1
1
1
1
1
1
1
1
1
1
1
1
1
1
1
1
1
1
1
1
1
1
1
1
1
1
1
1
1
1
1
1
1
1
1
1
1
1
1
1
1
1
1
1
1
1
1
1
1
1
1
1
1
1
1
1
1
1
1
1
1
1
1
1
1
1
1
1
1
1
1
1
1
1
1
1
1
1
1
1
1
1
1
1
1
1
1
1
1
1
1
1
1
1
1
1
1
1
1
1
1
1
1
1
1
1
1
1
1
1
1
1
1
1
1
1
1
1
1
1
1
1
1
1
1
1
1
1
1
1
1
1
1
1
1
1
1
1
1
1
1
1
1
1
1
1
1
1
1
1
1
1
1
1
1
1
1
1
1
1
1
1
1
1
1
1
1
1
1
1
1
1
1
1
1
1
1
1
1
1
1
1
1
1
1
1
1
1
1
1
1
1
1
1
1
1
1
1
1
1
1
1
1
1
1
1
1
1
1
1
1
1
1
1
1
1
1
1
1
1
1
1
1
1
1
1
1
1
1
1
1
1
1
1
1
1
1
1
1
1
1
1
1
1
1
1
1
1
1
1
1
1
1
1
1
1
1
1
1
1
1
1
1
1
1
1
1
1
1
1
1
1
1
1
1
1
1
1
1
1
1
1
1
1
1
1
1
1
1
1
1
1
1
1
1
1
1
1
1
1
1
1
1
1
1
1
1
1
1
1
1
1
1
1
1
1
1
1
1
1
1
1
1
1
1
1
1
1
1
1
1
1
1
1
1
1
1
1
1
1
1
1
1
1
1
1
1
1
1
1
1
1
1
1
1
1
1
1
1
1
1
1
1
1
1
1
1
1
1
1
1
1
1
1
1
1
1
1
1
1
1
1
1
1
1
1
1
1
1
1
1
1
1
1
1
1
1
1
1
1
1
1
1
1
1
1
1
1
1
1
1
1
1
1
1
1
1
1
1
1
1
1
1
1
1
1
1
1
1
1
1
1
1
1
1
1
1
1
1
1
1
1
1
1
1
1
1
1
1
1
1
1
1
1
1
1
1
1
1
1
1
1
1
1
1
1
1
1
1
1
1
1
1
1
1
1
1
1
1
1
1
1
1
1
1
1
1
1
1
1
1
1
1
1
1
1
1
1
1
1
1
1
1
1
1
1
1
1
1
1
1
1
1
1
1
1
1
1
1
1
1
1
1
1
1
1
1
1
1
1
1
1
1
1
1
1
1
1
1
1
1
1
1
1
1
1
1
1
1
1
1
1
1
1
1
1
1
1
1
1
1
1
1
1
1
1
1
1
1
1
1
1
1
1
1
1
1
1
1
1
1
1
1
1
1
1
1
1
1
1
1
1
1
1
1
1
1
1
1
1
1
1
1
1
1
1
1
1
1
1
1
1
1
1
1
1
1
1
1
1
1
1
1
1
1
1
1
1
1
1
1
1
1
1
1
1
1
1
1
1
1
1
1
1
1
1
1
1
1
1
1
1
1
1
1
1
1
1
1
1
1
1
1
1
1
1
1
1
1
1
1
1
1
1
1
1
1
1
1
1
1
1
1
1
1
1
1
1
1
1
1
1
1
1
1
1
1
1
1
1
1
1
1
1
1
1
1
1
1
1
1
1
1
1
1
1
1
1
1
1
1
1
1
1
1
1
1
1
1
1
1
1
1
1
1
1
1
1
1
1
1
1
1
1
1
1
1
1
1
1
1
1
1
1
1
1
1
1
1
1
1
1
1
1
1
1
1
1
1
1
1
1
1
1
1
1
1
1
1
1
1
1
1
1
1
1
1
1
1
1
1
1
1
1
1
1
1
1
1
1
1
1
1
1
1
1
1
1
1
1
1
1
1
1
1
1
1
1
1
1
1
1
1
1
1
1
1
1
1
1
1
1
1
1
1
1
1
1
1
1
1
1
1
1
1
1
1
1
1
1
1
1
1
1
1
1
1
1
1
1
1
1
1
1
1
1
1
1
1.50209
0.901096
0.811057
0.727773
0.776586
0.923307
1.01504
1.05804
1.09799
1.17404
1.2985
1.43295
1.52643
1.53875
1.52355
1.50271
1.50392
1.53683
1.62166
1.64847
1.63791
1.61084
1.602
1.60707
1.62239
1.63956
1.64194
1.63715
1.62747
1.62476
1.62863
1.64393
1.66026
1.6645
1.66357
1.65834
1.65309
1.65172
1.65196
1.65312
1.65438
1.65523
1.65707
1.6604
1.66243
1.66373
1.6653
1.66675
1.66747
1.66745
1.66781
1.66958
1.67354
1.67676
1.6771
1.67623
1.67381
1.67065
1.66803
1.66634
1.66517
1.66416
1.66282
1.66058
1.65729
1.65372
1.65155
1.65114
1.65124
1.65079
1.6493
1.64731
1.64511
1.64241
1.6401
1.64566
1.70817
1.97008
2.53665
2.78865
2.76564
2.73243
2.71468
2.6771
2.65029
2.63654
2.62445
2.61129
2.59362
2.57616
2.56217
2.55004
2.53804
2.52591
2.51453
2.50376
2.49202
2.48064
2.46948
2.45965
2.45109
2.44359
2.4367
2.43025
2.42378
2.41694
2.40969
2.40246
2.39566
2.38911
2.38223
2.37483
2.36725
2.3601
2.35337
2.34588
2.33794
2.3299
2.32066
2.31054
2.30153
2.29371
2.2864
2.2797
2.27387
2.26839
2.26285
2.25701
2.2502
2.24172
2.23219
2.22364
2.21716
2.21229
2.20842
2.20493
2.20135
2.1972
2.19186
2.18446
2.17547
2.16718
2.16115
2.15686
2.15338
2.15033
2.14713
2.1433
2.13828
2.13119
2.123
2.11622
2.11116
2.10685
2.10274
2.09869
2.09454
2.09017
2.08503
2.0784
2.07074
2.06342
2.05733
2.05246
2.04838
2.04473
2.04105
2.03676
2.03131
2.0245
2.01757
2.01244
2.00868
2.00532
2.00199
1.99854
1.99471
1.98985
1.98315
1.97549
1.96988
1.96637
1.96338
1.96065
1.95838
1.9562
1.95408
1.95132
1.94633
1.93756
1.92718
1.9163
1.7644
1.44169
1.22729
1.06601
1.07513
1.10779
1.07518
0.993896
0.995801
1.01164
1.05209
1.12462
1.17257
1.1954
1.22543
1.26303
1.30636
1.35128
1.40202
1.45201
1.48637
1.5059
1.51559
1.52505
1.54248
1.5672
1.58507
1.58789
1.58815
1.58843
1.59372
1.60551
1.61527
1.61986
1.62275
1.62313
1.62355
1.62523
1.62707
1.6292
1.63152
1.63302
1.63514
1.63877
1.64166
1.64305
1.64422
1.64545
1.64546
1.64527
1.64547
1.64705
1.65124
1.65581
1.6575
1.65747
1.65682
1.65516