/*--------------------------------*- C++ -*----------------------------------*\
  =========                 |
  \\      /  F ield         | OpenFOAM: The Open Source CFD Toolbox
   \\    /   O peration     | Website:  https://openfoam.org
    \\  /    A nd           | Version:  7
     \\/     M anipulation  |
\*---------------------------------------------------------------------------*/
FoamFile
{
    version     2.0;
    format      ascii;
    class       volVectorField;
    location    "2.3";
    object      U;
}
// * * * * * * * * * * * * * * * * * * * * * * * * * * * * * * * * * * * * * //

dimensions      [0 1 -1 0 0 0 0];

internalField   nonuniform List<vector> 
19968
(
(3 -5.96413e-17 0)
(3 -2.71723e-16 0)
(3 3.70158e-17 0)
(3 4.04467e-17 0)
(3 4.7322e-17 0)
(3 1.52093e-16 0)
(3 4.77541e-16 0)
(3 5.72293e-16 0)
(3 3.85975e-16 0)
(3 5.01604e-16 0)
(3 5.8812e-16 0)
(3 6.22761e-16 0)
(3 7.77811e-16 0)
(3 1.31073e-15 0)
(3 1.27361e-15 0)
(3 1.31144e-15 0)
(3 -2.20498e-17 0)
(3 -4.03951e-16 0)
(3 -4.98009e-16 0)
(3 -1.04964e-15 0)
(3 -9.16823e-16 0)
(3 -9.13418e-16 0)
(3 -8.59037e-16 0)
(3 -1.03098e-15 0)
(3 -1.06728e-15 0)
(3 -8.41932e-16 0)
(3 -7.85823e-16 0)
(3 -5.34478e-16 0)
(3 -4.01811e-16 0)
(3 -7.60701e-16 0)
(3 -1.01354e-15 0)
(3 -1.3413e-15 0)
(3 -1.17294e-15 0)
(3 -3.92006e-16 0)
(3 -2.48006e-16 0)
(3 -6.45871e-16 0)
(3 -9.38719e-16 0)
(3 -4.87322e-16 0)
(3 -3.43091e-16 0)
(3 -5.81805e-16 0)
(3 -7.12626e-16 0)
(3 -5.37157e-16 0)
(3 8.47257e-17 0)
(3 -2.22916e-17 0)
(3 2.32424e-16 0)
(3 5.70617e-17 0)
(3 -2.25148e-16 0)
(3 -6.91411e-16 0)
(3 -5.34661e-16 0)
(2.25401 0.0055149 0)
(0.852084 0.0093615 0)
(0.745787 0.00542525 0)
(0.734691 0.00750031 0)
(0.71994 0.00784862 0)
(0.705502 0.00853241 0)
(0.689278 0.00938309 0)
(0.671792 0.0101891 0)
(0.653618 0.0106106 0)
(0.635951 0.010552 0)
(0.619551 0.0101663 0)
(0.604623 0.00953034 0)
(0.590792 0.00880705 0)
(0.576842 0.00853132 0)
(0.561376 0.00897678 0)
(0.543986 0.00986365 0)
(0.525928 0.0104609 0)
(0.509091 0.0102089 0)
(0.49432 0.00964725 0)
(0.480551 0.00968678 0)
(0.466438 0.0101618 0)
(0.451149 0.0104522 0)
(0.434843 0.0106074 0)
(0.417827 0.010944 0)
(0.400558 0.0111397 0)
(0.383908 0.0107607 0)
(0.368455 0.0100667 0)
(0.353937 0.00969311 0)
(0.33951 0.00976459 0)
(0.32458 0.00998994 0)
(0.309165 0.0101843 0)
(0.293431 0.0103888 0)
(0.277338 0.0106926 0)
(0.260797 0.0110499 0)
(0.243858 0.0113766 0)
(0.226684 0.0116846 0)
(0.209413 0.0120335 0)
(0.192101 0.0124571 0)
(0.17454 0.0128863 0)
(0.156548 0.0131512 0)
(0.137904 0.0134287 0)
(0.118319 0.0136457 0)
(0.0975304 0.0139529 0)
(0.0763208 0.014258 0)
(0.0548123 0.0146092 0)
(0.0329362 0.0147641 0)
(0.0114981 0.0149461 0)
(3 7.35251e-17 0)
(3 -8.6682e-17 0)
(3 3.57152e-16 0)
(3 5.59459e-16 0)
(3 9.47174e-16 0)
(3 1.25504e-15 0)
(3 1.44233e-15 0)
(3 1.50287e-15 0)
(3 1.51022e-15 0)
(3 1.96101e-15 0)
(3 1.66786e-15 0)
(3 1.58327e-15 0)
(3 1.92295e-15 0)
(3 2.31685e-15 0)
(3 1.82882e-15 0)
(3 8.03835e-16 0)
(3 -3.11294e-16 0)
(3 -4.63188e-17 0)
(3 3.18478e-17 0)
(3 -6.31213e-16 0)
(3 -8.46459e-16 0)
(3 -1.09757e-15 0)
(3 -6.82695e-16 0)
(3 -1.09492e-15 0)
(3 -9.9377e-16 0)
(3 -1.35992e-15 0)
(3 -1.16717e-15 0)
(3 -8.7225e-16 0)
(3 -4.92061e-16 0)
(3 -5.67316e-16 0)
(3 -1.73562e-16 0)
(3 -5.78328e-16 0)
(3 -6.26097e-16 0)
(3 -9.03077e-16 0)
(3 -9.51411e-16 0)
(3 -1.86635e-15 0)
(3 -2.27132e-15 0)
(3 -2.01391e-15 0)
(3 -1.18492e-15 0)
(3 -8.2434e-16 0)
(3 -4.55181e-16 0)
(3 -4.08643e-16 0)
(3 -3.1726e-17 0)
(3 -5.17766e-18 0)
(3 2.83989e-16 0)
(3 3.02362e-16 0)
(3 -3.22138e-16 0)
(3 -1.20503e-15 0)
(3 -1.0708e-16 0)
(2.27866 0.0260099 0)
(0.855121 0.0362771 0)
(0.743049 0.0242095 0)
(0.72907 0.0224043 0)
(0.713958 0.0230567 0)
(0.699172 0.0244813 0)
(0.683073 0.0266833 0)
(0.66606 0.029057 0)
(0.648615 0.0305961 0)
(0.631683 0.0309447 0)
(0.615765 0.0303375 0)
(0.600969 0.0288575 0)
(0.586944 0.0269168 0)
(0.572526 0.0259578 0)
(0.556678 0.0269764 0)
(0.539265 0.0293384 0)
(0.521418 0.0309863 0)
(0.504844 0.0304668 0)
(0.490047 0.0291993 0)
(0.475928 0.0293921 0)
(0.461456 0.0306296 0)
(0.445949 0.0311207 0)
(0.429777 0.0312018 0)
(0.413293 0.0320892 0)
(0.396747 0.0329 0)
(0.380678 0.0322741 0)
(0.365436 0.030779 0)
(0.350698 0.029936 0)
(0.335866 0.0301302 0)
(0.320525 0.0306734 0)
(0.304768 0.0311023 0)
(0.2888 0.0315977 0)
(0.272593 0.0324494 0)
(0.256069 0.0334875 0)
(0.239295 0.0344362 0)
(0.222434 0.0353541 0)
(0.205575 0.0364515 0)
(0.188701 0.0378058 0)
(0.171562 0.0391648 0)
(0.153975 0.0400113 0)
(0.135772 0.040895 0)
(0.116684 0.0415987 0)
(0.0963799 0.0426361 0)
(0.0756514 0.0437099 0)
(0.0544841 0.0449375 0)
(0.0328087 0.0455619 0)
(0.011489 0.0462896 0)
(3 8.07323e-17 0)
(3 9.98399e-16 0)
(3 1.02671e-15 0)
(3 8.36397e-16 0)
(3 6.58954e-16 0)
(3 2.44168e-16 0)
(3 3.60482e-16 0)
(3 5.92288e-16 0)
(3 1.29824e-15 0)
(3 1.19604e-15 0)
(3 1.52796e-15 0)
(3 1.39746e-15 0)
(3 1.50749e-15 0)
(3 8.84229e-16 0)
(3 -1.5288e-16 0)
(3 -1.06043e-15 0)
(3 -8.16337e-16 0)
(3 -1.00299e-16 0)
(3 3.05701e-16 0)
(3 3.55178e-16 0)
(3 1.77514e-16 0)
(3 7.159e-16 0)
(3 4.63882e-16 0)
(3 3.81066e-16 0)
(3 -6.49301e-16 0)
(3 -2.39882e-15 0)
(3 -2.35702e-15 0)
(3 -1.63256e-15 0)
(3 -1.21643e-15 0)
(3 -9.44228e-16 0)
(3 -8.825e-16 0)
(3 -9.01914e-16 0)
(3 -1.58475e-15 0)
(3 -1.49792e-15 0)
(3 -2.13557e-15 0)
(3 -2.12073e-15 0)
(3 -1.83369e-15 0)
(3 -1.78854e-15 0)
(3 -1.31541e-15 0)
(3 -8.81982e-16 0)
(3 -4.18921e-16 0)
(3 -6.30021e-16 0)
(3 -1.59293e-15 0)
(3 -1.52362e-15 0)
(3 -7.75583e-16 0)
(3 -9.71945e-16 0)
(3 -6.34478e-16 0)
(3 -5.1793e-16 0)
(3 6.58052e-16 0)
(2.34562 0.0445343 0)
(0.868963 0.0604069 0)
(0.750174 0.0437548 0)
(0.734241 0.0413594 0)
(0.716805 0.0418534 0)
(0.700183 0.0435918 0)
(0.683004 0.0462521 0)
(0.665701 0.0492118 0)
(0.648541 0.0512394 0)
(0.632131 0.051919 0)
(0.616657 0.0513493 0)
(0.602058 0.0495128 0)
(0.587852 0.0469242 0)
(0.572882 0.0456856 0)
(0.556492 0.0473252 0)
(0.538838 0.0508461 0)
(0.520867 0.0531146 0)
(0.504208 0.0522449 0)
(0.489054 0.0505502 0)
(0.474336 0.0511271 0)
(0.459307 0.0531068 0)
(0.443393 0.0535735 0)
(0.4272 0.0530633 0)
(0.411108 0.0539039 0)
(0.39522 0.0549946 0)
(0.379713 0.054228 0)
(0.364733 0.0523548 0)
(0.349861 0.0514786 0)
(0.334686 0.0520961 0)
(0.318895 0.0531424 0)
(0.302604 0.0538884 0)
(0.286053 0.054651 0)
(0.269242 0.0559352 0)
(0.252157 0.0574664 0)
(0.234935 0.0587885 0)
(0.217785 0.0600327 0)
(0.200776 0.061612 0)
(0.183853 0.0636762 0)
(0.166749 0.0658005 0)
(0.149295 0.0671357 0)
(0.131424 0.068624 0)
(0.112884 0.0698542 0)
(0.0933132 0.0717001 0)
(0.0733904 0.0736145 0)
(0.0529476 0.0757847 0)
(0.0319072 0.0769639 0)
(0.0112112 0.0783622 0)
(3 -1.17781e-16 0)
(3 1.68667e-16 0)
(3 8.99178e-16 0)
(3 9.26951e-16 0)
(3 6.08366e-16 0)
(3 3.75179e-16 0)
(3 3.47315e-16 0)
(3 5.40495e-16 0)
(3 2.44184e-16 0)
(3 5.66965e-16 0)
(3 7.32201e-16 0)
(3 3.92895e-16 0)
(3 2.82108e-17 0)
(3 -4.37052e-16 0)
(3 -7.43649e-16 0)
(3 -6.93561e-16 0)
(3 -5.3712e-16 0)
(3 5.30313e-17 0)
(3 2.42298e-16 0)
(3 -8.74221e-17 0)
(3 -2.42838e-16 0)
(3 1.35276e-16 0)
(3 1.14443e-15 0)
(3 1.42729e-15 0)
(3 1.07889e-15 0)
(3 3.50226e-16 0)
(3 -1.08188e-15 0)
(3 -1.24279e-15 0)
(3 -1.29731e-15 0)
(3 -5.90205e-16 0)
(3 -5.93268e-16 0)
(3 -5.86995e-16 0)
(3 -8.62284e-16 0)
(3 -1.26945e-15 0)
(3 -7.76198e-16 0)
(3 5.73133e-16 0)
(3 4.70895e-16 0)
(3 -2.13446e-16 0)
(3 -6.97299e-16 0)
(3 -6.732e-16 0)
(3 7.35346e-16 0)
(3 1.16998e-15 0)
(3 1.20816e-15 0)
(3 1.2892e-15 0)
(3 1.03925e-15 0)
(3 1.36173e-15 0)
(3 2.52005e-15 0)
(3 2.63086e-15 0)
(3 1.61237e-15 0)
(2.44696 0.0577802 0)
(0.888128 0.0804812 0)
(0.753058 0.065586 0)
(0.737117 0.0621098 0)
(0.71954 0.0627859 0)
(0.702613 0.0642345 0)
(0.68539 0.0664949 0)
(0.66842 0.0692404 0)
(0.651906 0.0714529 0)
(0.636214 0.0724185 0)
(0.621354 0.0721241 0)
(0.607131 0.0703442 0)
(0.592966 0.0677104 0)
(0.577741 0.0665947 0)
(0.56111 0.0689281 0)
(0.543407 0.0734126 0)
(0.525347 0.0761316 0)
(0.508491 0.0750709 0)
(0.492805 0.0733661 0)
(0.477446 0.0745998 0)
(0.461869 0.0772925 0)
(0.445604 0.0775215 0)
(0.429501 0.0759457 0)
(0.413814 0.0761218 0)
(0.398604 0.0771657 0)
(0.383614 0.0764315 0)
(0.368765 0.0746593 0)
(0.353663 0.0742308 0)
(0.338117 0.0756507 0)
(0.321857 0.0775232 0)
(0.304988 0.0788483 0)
(0.287766 0.0800688 0)
(0.2702 0.0819174 0)
(0.252324 0.0840044 0)
(0.234337 0.0856642 0)
(0.216497 0.0870845 0)
(0.198864 0.0889167 0)
(0.18136 0.0914102 0)
(0.163737 0.0939963 0)
(0.14589 0.0955225 0)
(0.127901 0.0973762 0)
(0.109452 0.0989167 0)
(0.0904579 0.101392 0)
(0.0711237 0.104053 0)
(0.0513303 0.107125 0)
(0.0309035 0.108887 0)
(0.0108896 0.111023 0)
(3 1.57359e-17 0)
(3 -5.69879e-16 0)
(3 -9.78013e-16 0)
(3 -5.89569e-16 0)
(3 8.28118e-16 0)
(3 1.1091e-15 0)
(3 6.72883e-16 0)
(3 3.16097e-16 0)
(3 -2.84792e-16 0)
(3 -1.16047e-16 0)
(3 -2.86596e-16 0)
(3 1.80439e-16 0)
(3 -2.21248e-17 0)
(3 -3.21586e-16 0)
(3 -3.31943e-16 0)
(3 1.11856e-16 0)
(3 3.71318e-16 0)
(3 1.12505e-16 0)
(3 2.61579e-18 0)
(3 8.36183e-17 0)
(3 -1.2823e-16 0)
(3 -7.52698e-16 0)
(3 -6.31616e-16 0)
(3 -3.18242e-16 0)
(3 7.21499e-16 0)
(3 1.90033e-15 0)
(3 1.875e-15 0)
(3 1.33397e-15 0)
(3 8.20874e-16 0)
(3 8.68197e-16 0)
(3 8.66471e-16 0)
(3 7.11464e-16 0)
(3 1.23768e-15 0)
(3 1.06705e-15 0)
(3 4.61675e-16 0)
(3 1.31921e-16 0)
(3 -6.99942e-17 0)
(3 -3.46081e-16 0)
(3 -5.44089e-16 0)
(3 3.46644e-16 0)
(3 1.623e-15 0)
(3 2.07666e-15 0)
(3 3.23918e-15 0)
(3 3.45025e-15 0)
(3 3.29688e-15 0)
(3 3.9191e-15 0)
(3 4.42638e-15 0)
(3 3.09975e-15 0)
(3 2.92221e-15 0)
(2.58305 0.0662272 0)
(0.916424 0.10033 0)
(0.755433 0.0890072 0)
(0.739149 0.083286 0)
(0.722123 0.0844461 0)
(0.705694 0.0856274 0)
(0.688853 0.087175 0)
(0.672127 0.0893865 0)
(0.655861 0.0915757 0)
(0.64033 0.0929608 0)
(0.625533 0.0933268 0)
(0.611138 0.0922731 0)
(0.596503 0.0902265 0)
(0.580617 0.0896533 0)
(0.563383 0.0927325 0)
(0.545325 0.097959 0)
(0.527049 0.100914 0)
(0.510153 0.0996232 0)
(0.494532 0.0978398 0)
(0.479651 0.0995289 0)
(0.464991 0.102576 0)
(0.449917 0.102266 0)
(0.435287 0.0993111 0)
(0.420789 0.0983498 0)
(0.406506 0.0991399 0)
(0.391861 0.098758 0)
(0.376697 0.0976355 0)
(0.36092 0.0981389 0)
(0.344632 0.100747 0)
(0.327621 0.103794 0)
(0.309967 0.10598 0)
(0.291954 0.107851 0)
(0.273575 0.110406 0)
(0.254862 0.113151 0)
(0.23604 0.115184 0)
(0.217404 0.116719 0)
(0.198999 0.118675 0)
(0.180713 0.121416 0)
(0.162322 0.124242 0)
(0.143798 0.125707 0)
(0.125393 0.127689 0)
(0.106695 0.129297 0)
(0.0879876 0.132106 0)
(0.0690299 0.135278 0)
(0.0497468 0.139082 0)
(0.0298715 0.141354 0)
(0.0105465 0.14419 0)
(3 1.78634e-16 0)
(3 2.12808e-16 0)
(3 -6.52282e-16 0)
(3 -2.65371e-16 0)
(3 -2.22113e-16 0)
(3 -2.77145e-16 0)
(3 -8.62249e-16 0)
(3 -1.17829e-15 0)
(3 -1.14993e-15 0)
(3 -1.32082e-15 0)
(3 -1.11089e-15 0)
(3 6.98621e-17 0)
(3 5.45236e-16 0)
(3 4.57634e-16 0)
(3 8.81716e-17 0)
(3 -6.33766e-16 0)
(3 -6.53638e-16 0)
(3 -3.91136e-16 0)
(3 -3.55968e-16 0)
(3 -2.76467e-16 0)
(3 -6.77937e-16 0)
(3 -5.91519e-16 0)
(3 -3.03505e-16 0)
(3 1.30232e-16 0)
(3 7.81539e-16 0)
(3 1.02334e-15 0)
(3 1.26561e-15 0)
(3 9.32966e-16 0)
(3 5.60773e-16 0)
(3 3.96765e-16 0)
(3 2.21416e-16 0)
(3 1.03321e-16 0)
(3 3.9071e-17 0)
(3 9.4108e-17 0)
(3 -4.97461e-16 0)
(3 -1.73581e-15 0)
(3 -1.82989e-15 0)
(3 -1.43188e-15 0)
(3 -8.03064e-16 0)
(3 1.21845e-17 0)
(3 3.49035e-16 0)
(3 1.08701e-15 0)
(3 2.22782e-15 0)
(3 2.39325e-15 0)
(3 1.73018e-15 0)
(3 9.36837e-16 0)
(3 1.08076e-15 0)
(3 2.03338e-15 0)
(3 2.31708e-15 0)
(2.74047 0.0621927 0)
(0.958281 0.117498 0)
(0.756956 0.11362 0)
(0.7406 0.10504 0)
(0.724764 0.105893 0)
(0.709573 0.106985 0)
(0.693435 0.10836 0)
(0.676802 0.110417 0)
(0.660333 0.112761 0)
(0.644516 0.114684 0)
(0.629588 0.115626 0)
(0.61525 0.115369 0)
(0.600728 0.114294 0)
(0.585022 0.114598 0)
(0.568147 0.11844 0)
(0.550676 0.12407 0)
(0.533097 0.126782 0)
(0.517095 0.124739 0)
(0.502422 0.122215 0)
(0.488666 0.12359 0)
(0.475301 0.126391 0)
(0.461356 0.125517 0)
(0.447512 0.121656 0)
(0.433087 0.12022 0)
(0.418365 0.12171 0)
(0.402584 0.12284 0)
(0.385676 0.123235 0)
(0.368001 0.125091 0)
(0.349986 0.12904 0)
(0.331526 0.133319 0)
(0.312661 0.136351 0)
(0.293679 0.138782 0)
(0.274529 0.141932 0)
(0.255197 0.145238 0)
(0.235874 0.147551 0)
(0.216857 0.149063 0)
(0.198142 0.150989 0)
(0.179556 0.153828 0)
(0.160842 0.156738 0)
(0.141979 0.157972 0)
(0.123351 0.159881 0)
(0.104434 0.161348 0)
(0.0858954 0.164163 0)
(0.0671845 0.167537 0)
(0.0483081 0.171825 0)
(0.0289345 0.174444 0)
(0.0102055 0.177851 0)
(3 3.34614e-17 0)
(3 2.39993e-17 0)
(3 -4.18135e-17 0)
(3 -3.77241e-16 0)
(3 -7.38504e-16 0)
(3 -1.33551e-15 0)
(3 -1.45622e-15 0)
(3 -1.40015e-15 0)
(3 -1.06612e-15 0)
(3 -1.09381e-15 0)
(3 -1.02614e-15 0)
(3 -1.11987e-15 0)
(3 -5.24766e-16 0)
(3 1.3778e-16 0)
(3 2.613e-16 0)
(3 1.05881e-16 0)
(3 -4.22369e-17 0)
(3 1.82328e-16 0)
(3 2.98557e-16 0)
(3 -1.19096e-16 0)
(3 2.03123e-16 0)
(3 7.97885e-16 0)
(3 8.31657e-16 0)
(3 8.58493e-16 0)
(3 3.788e-16 0)
(3 5.39062e-16 0)
(3 1.0482e-15 0)
(3 9.3247e-16 0)
(3 2.52076e-16 0)
(3 -3.04891e-16 0)
(3 -9.79063e-16 0)
(3 -1.45161e-15 0)
(3 -2.22559e-15 0)
(3 -3.08454e-15 0)
(3 -3.0216e-15 0)
(3 -2.10085e-15 0)
(3 -1.51181e-15 0)
(3 -1.49088e-15 0)
(3 -1.43097e-15 0)
(3 -9.50984e-16 0)
(3 -4.06482e-16 0)
(3 6.79481e-16 0)
(3 3.87101e-16 0)
(3 -4.28678e-16 0)
(3 -7.65993e-16 0)
(3 -6.57592e-16 0)
(3 -5.27596e-16 0)
(3 1.06867e-15 0)
(3 1.44119e-15 0)
(2.87529 0.0680222 0)
(1.00622 0.148627 0)
(0.758188 0.136385 0)
(0.747885 0.12518 0)
(0.733912 0.125493 0)
(0.719856 0.127204 0)
(0.703888 0.129427 0)
(0.686722 0.132496 0)
(0.669452 0.135604 0)
(0.653031 0.137712 0)
(0.638037 0.138448 0)
(0.624242 0.13823 0)
(0.610576 0.13773 0)
(0.595857 0.138891 0)
(0.580071 0.143401 0)
(0.563587 0.149098 0)
(0.546749 0.151272 0)
(0.53129 0.14826 0)
(0.516833 0.144764 0)
(0.503055 0.1457 0)
(0.489733 0.148798 0)
(0.475428 0.148971 0)
(0.460703 0.146005 0)
(0.445092 0.145488 0)
(0.428972 0.148611 0)
(0.411443 0.151807 0)
(0.392518 0.153766 0)
(0.372985 0.156545 0)
(0.353578 0.161198 0)
(0.334338 0.166131 0)
(0.315167 0.169585 0)
(0.296254 0.172258 0)
(0.277418 0.175778 0)
(0.258523 0.179531 0)
(0.239608 0.182101 0)
(0.220902 0.183576 0)
(0.202359 0.185466 0)
(0.18377 0.188434 0)
(0.164845 0.191489 0)
(0.145531 0.192569 0)
(0.126324 0.194375 0)
(0.106681 0.195682 0)
(0.0875463 0.19834 0)
(0.0682831 0.201689 0)
(0.0489939 0.206264 0)
(0.029312 0.209029 0)
(0.01028 0.21287 0)
(3 -1.64115e-16 0)
(3 -2.10803e-16 0)
(3 -1.56441e-16 0)
(3 -5.9392e-16 0)
(3 -3.78115e-16 0)
(3 -2.24651e-16 0)
(3 -1.82878e-16 0)
(3 -3.97309e-16 0)
(3 -9.60693e-16 0)
(3 -9.82137e-16 0)
(3 -9.3906e-16 0)
(3 -1.23941e-15 0)
(3 -1.6913e-15 0)
(3 -1.67116e-15 0)
(3 -8.85302e-16 0)
(3 1.08288e-16 0)
(3 3.99053e-16 0)
(3 1.91384e-16 0)
(3 2.16242e-16 0)
(3 5.92086e-17 0)
(3 5.32168e-17 0)
(3 2.46174e-17 0)
(3 -3.02853e-16 0)
(3 -6.19845e-16 0)
(3 -2.00343e-16 0)
(3 1.25274e-16 0)
(3 7.93898e-16 0)
(3 1.37361e-15 0)
(3 1.17852e-15 0)
(3 3.30305e-16 0)
(3 -1.63145e-16 0)
(3 -5.76622e-16 0)
(3 -1.23172e-15 0)
(3 -1.34694e-15 0)
(3 -1.27773e-15 0)
(3 -1.39574e-15 0)
(3 -1.78892e-15 0)
(3 -1.33985e-15 0)
(3 -9.71749e-16 0)
(3 -1.05849e-15 0)
(3 -7.63494e-16 0)
(3 -1.08597e-15 0)
(3 -1.23739e-15 0)
(3 -1.31416e-15 0)
(3 -1.28113e-15 0)
(3 -1.18521e-15 0)
(3 -1.23887e-15 0)
(3 -9.95407e-16 0)
(3 -7.68662e-16 0)
(2.99475 0.00585387 0)
(1.09576 0.173778 0)
(0.774121 0.145989 0)
(0.760243 0.140548 0)
(0.747639 0.143847 0)
(0.73359 0.147422 0)
(0.718086 0.151574 0)
(0.701011 0.156151 0)
(0.683464 0.160019 0)
(0.66656 0.161789 0)
(0.651263 0.161351 0)
(0.637511 0.160319 0)
(0.624186 0.160142 0)
(0.610091 0.162366 0)
(0.595081 0.168011 0)
(0.579047 0.174428 0)
(0.562089 0.176983 0)
(0.545822 0.174145 0)
(0.530026 0.170573 0)
(0.514575 0.171658 0)
(0.499577 0.175828 0)
(0.483378 0.177793 0)
(0.466655 0.175951 0)
(0.449479 0.175933 0)
(0.432462 0.179965 0)
(0.414838 0.184488 0)
(0.396357 0.187295 0)
(0.377749 0.190206 0)
(0.359584 0.194728 0)
(0.341755 0.199626 0)
(0.323883 0.203084 0)
(0.306065 0.205753 0)
(0.288125 0.209543 0)
(0.269951 0.213861 0)
(0.251491 0.217039 0)
(0.23293 0.218904 0)
(0.21425 0.221205 0)
(0.195262 0.224791 0)
(0.175656 0.228506 0)
(0.155297 0.22994 0)
(0.134797 0.23196 0)
(0.11368 0.233375 0)
(0.0930377 0.236015 0)
(0.072328 0.239343 0)
(0.0517731 0.244182 0)
(0.0309257 0.246995 0)
(0.010743 0.251204 0)
(3 8.6094e-17 0)
(3 3.47591e-16 0)
(3 5.36877e-16 0)
(3 3.68737e-16 0)
(3 3.07458e-16 0)
(3 6.84841e-16 0)
(3 1.28751e-15 0)
(3 9.64749e-16 0)
(3 8.32482e-16 0)
(3 8.06335e-16 0)
(3 7.34398e-16 0)
(3 7.07431e-16 0)
(3 -2.27579e-16 0)
(3 -6.60478e-16 0)
(3 -1.15014e-15 0)
(3 -7.58427e-16 0)
(3 -4.00604e-16 0)
(3 -1.06675e-16 0)
(3 -4.69572e-16 0)
(3 -8.51727e-16 0)
(3 -1.16567e-15 0)
(3 -1.30634e-15 0)
(3 -1.02578e-15 0)
(3 -2.6398e-16 0)
(3 1.9438e-16 0)
(3 1.32236e-17 0)
(3 -1.45683e-16 0)
(3 2.44979e-16 0)
(3 -1.46386e-16 0)
(3 -1.09267e-16 0)
(3 3.9612e-16 0)
(3 8.42444e-16 0)
(3 4.01685e-16 0)
(3 -2.61424e-16 0)
(3 -1.0252e-15 0)
(3 -1.49554e-15 0)
(3 -1.73196e-15 0)
(3 -1.71133e-15 0)
(3 -1.7826e-15 0)
(3 -2.75201e-15 0)
(3 -3.6003e-15 0)
(3 -4.22992e-15 0)
(3 -4.32148e-15 0)
(3 -3.86221e-15 0)
(3 -1.94303e-15 0)
(3 -1.47058e-15 0)
(3 -1.71589e-15 0)
(3 -2.33305e-15 0)
(3 -2.67349e-15 0)
(3.00013 0.000115005 0)
(1.27831 0.190833 0)
(0.77938 0.169639 0)
(0.753517 0.162966 0)
(0.740594 0.167995 0)
(0.725339 0.171826 0)
(0.710026 0.177591 0)
(0.693443 0.183613 0)
(0.67651 0.188158 0)
(0.660143 0.189487 0)
(0.6453 0.1878 0)
(0.631815 0.185572 0)
(0.618647 0.185252 0)
(0.604935 0.188395 0)
(0.590723 0.195467 0)
(0.57559 0.203199 0)
(0.559207 0.206532 0)
(0.543175 0.204031 0)
(0.527617 0.200163 0)
(0.512414 0.200803 0)
(0.498276 0.205482 0)
(0.483317 0.208752 0)
(0.467956 0.207652 0)
(0.4523 0.207375 0)
(0.436893 0.211341 0)
(0.421077 0.216355 0)
(0.404224 0.219612 0)
(0.386964 0.22249 0)
(0.369865 0.226898 0)
(0.352859 0.232057 0)
(0.335437 0.236161 0)
(0.3177 0.239546 0)
(0.299688 0.244235 0)
(0.281399 0.24976 0)
(0.262751 0.25425 0)
(0.243867 0.257134 0)
(0.224778 0.260317 0)
(0.205328 0.264908 0)
(0.185171 0.269633 0)
(0.164027 0.271751 0)
(0.142549 0.274127 0)
(0.12034 0.275749 0)
(0.0984032 0.278455 0)
(0.0763898 0.281762 0)
(0.0546504 0.286886 0)
(0.0325816 0.289709 0)
(0.011289 0.294327 0)
(3 1.14371e-16 0)
(3 1.92845e-16 0)
(3 2.06368e-16 0)
(3 2.37826e-16 0)
(3 1.82658e-16 0)
(3 4.58576e-18 0)
(3 1.37572e-16 0)
(3 4.35857e-16 0)
(3 3.86546e-16 0)
(3 1.66156e-16 0)
(3 -1.66167e-16 0)
(3 -3.92538e-16 0)
(3 -3.84568e-16 0)
(3 -2.96181e-16 0)
(3 -2.19317e-16 0)
(3 4.45011e-17 0)
(3 -5.1111e-17 0)
(3 9.23075e-17 0)
(3 -4.05506e-16 0)
(3 -4.72812e-16 0)
(3 -4.3572e-16 0)
(3 -3.65466e-16 0)
(3 -5.53972e-16 0)
(3 -6.311e-16 0)
(3 -9.52763e-16 0)
(3 -3.62358e-16 0)
(3 1.64397e-15 0)
(3 1.84557e-15 0)
(3 1.76653e-15 0)
(3 8.59498e-16 0)
(3 -1.90436e-16 0)
(3 -7.5085e-16 0)
(3 -9.47658e-16 0)
(3 -1.67919e-15 0)
(3 -1.97877e-15 0)
(3 -1.77619e-15 0)
(3 -1.11282e-15 0)
(3 -1.51341e-15 0)
(3 -1.41855e-15 0)
(3 -1.96921e-15 0)
(3 -2.37536e-15 0)
(3 -2.43074e-15 0)
(3 -2.92029e-15 0)
(3 -2.90532e-15 0)
(3 -2.37177e-15 0)
(3 -2.03096e-15 0)
(3 -1.48697e-15 0)
(3 -1.91212e-15 0)
(3 -1.82489e-15 0)
(3 1.88657e-07 0)
(1.60639 0.220856 0)
(0.803168 0.203866 0)
(0.754722 0.189225 0)
(0.738677 0.194483 0)
(0.720982 0.198757 0)
(0.705056 0.204812 0)
(0.68909 0.211119 0)
(0.673147 0.215624 0)
(0.657632 0.216614 0)
(0.643242 0.214231 0)
(0.629822 0.211088 0)
(0.616605 0.210402 0)
(0.603201 0.213914 0)
(0.58995 0.221909 0)
(0.576189 0.230889 0)
(0.560853 0.235351 0)
(0.545251 0.23362 0)
(0.529839 0.22964 0)
(0.514423 0.229671 0)
(0.500206 0.23458 0)
(0.485427 0.239232 0)
(0.469982 0.239366 0)
(0.454334 0.238988 0)
(0.439005 0.242879 0)
(0.423652 0.248559 0)
(0.40726 0.252851 0)
(0.390295 0.256365 0)
(0.373355 0.261197 0)
(0.356436 0.267024 0)
(0.338999 0.272088 0)
(0.321137 0.276294 0)
(0.303103 0.281788 0)
(0.284988 0.288437 0)
(0.266647 0.294312 0)
(0.248005 0.298364 0)
(0.229108 0.302483 0)
(0.209846 0.308131 0)
(0.18984 0.314009 0)
(0.168616 0.317104 0)
(0.146839 0.320052 0)
(0.124115 0.322131 0)
(0.101463 0.325225 0)
(0.0786039 0.328707 0)
(0.0561455 0.334268 0)
(0.0333208 0.337199 0)
(0.0115727 0.342367 0)
(3 -2.47425e-16 0)
(3 -1.68838e-16 0)
(3 -1.80179e-16 0)
(3 -1.66127e-16 0)
(3 -2.64792e-16 0)
(3 -8.46045e-16 0)
(3 -1.04622e-15 0)
(3 -7.43333e-16 0)
(3 -5.5532e-16 0)
(3 -5.77571e-16 0)
(3 -6.76371e-16 0)
(3 -9.12434e-16 0)
(3 -8.05088e-16 0)
(3 -4.70817e-16 0)
(3 -2.53602e-16 0)
(3 -2.7054e-16 0)
(3 -1.134e-16 0)
(3 -1.61794e-16 0)
(3 -1.01982e-16 0)
(3 7.29486e-17 0)
(3 -2.26239e-16 0)
(3 -8.13418e-16 0)
(3 -9.78522e-16 0)
(3 -1.49658e-15 0)
(3 -1.68166e-15 0)
(3 -1.30391e-15 0)
(3 -5.53255e-16 0)
(3 -1.66231e-16 0)
(3 9.89184e-17 0)
(3 -2.80065e-16 0)
(3 -8.73316e-16 0)
(3 -1.38802e-15 0)
(3 -1.31032e-15 0)
(3 -1.04523e-15 0)
(3 -1.09757e-15 0)
(3 -1.34236e-15 0)
(3 -7.41405e-16 0)
(3 -5.77781e-16 0)
(3 -3.63134e-16 0)
(3 -6.59896e-16 0)
(3 -1.23108e-15 0)
(3 -1.99911e-15 0)
(3 -1.79374e-15 0)
(3 -1.28636e-15 0)
(3 -1.49914e-15 0)
(3 -1.57422e-15 0)
(3 -1.43384e-15 0)
(3 -9.80166e-16 0)
(3 -7.74967e-16 0)
(3 2.8586e-10 0)
(2.0908 0.232912 0)
(0.849195 0.248207 0)
(0.757346 0.224683 0)
(0.742893 0.22752 0)
(0.728851 0.229408 0)
(0.71607 0.233944 0)
(0.702412 0.239408 0)
(0.687936 0.243656 0)
(0.673078 0.244933 0)
(0.65858 0.242947 0)
(0.644593 0.239619 0)
(0.630683 0.238411 0)
(0.616802 0.241553 0)
(0.603561 0.249606 0)
(0.590476 0.259474 0)
(0.575741 0.265565 0)
(0.559949 0.265535 0)
(0.543976 0.262209 0)
(0.527737 0.261821 0)
(0.512721 0.266743 0)
(0.497783 0.272732 0)
(0.481864 0.274553 0)
(0.46566 0.274132 0)
(0.449723 0.277541 0)
(0.434159 0.283458 0)
(0.417683 0.28873 0)
(0.400505 0.293028 0)
(0.38323 0.29829 0)
(0.365895 0.3047 0)
(0.348066 0.310714 0)
(0.329684 0.315675 0)
(0.311323 0.321708 0)
(0.293115 0.329181 0)
(0.27493 0.336346 0)
(0.256406 0.341666 0)
(0.237554 0.346721 0)
(0.218329 0.353402 0)
(0.198317 0.360643 0)
(0.176744 0.365273 0)
(0.154287 0.369339 0)
(0.130617 0.372484 0)
(0.10678 0.376611 0)
(0.0824944 0.380679 0)
(0.0587162 0.386841 0)
(0.0345961 0.389958 0)
(0.0120874 0.395717 0)
(3 4.10935e-17 0)
(3 -1.26798e-16 0)
(3 -3.99264e-16 0)
(3 -6.84931e-16 0)
(3 -1.0121e-15 0)
(3 -1.05767e-15 0)
(3 -1.29191e-15 0)
(3 -1.29319e-15 0)
(3 -7.33482e-16 0)
(3 -3.88245e-16 0)
(3 -2.56377e-16 0)
(3 -1.08458e-16 0)
(3 -8.27022e-17 0)
(3 8.9881e-17 0)
(3 -5.31339e-17 0)
(3 -2.67222e-16 0)
(3 -2.38281e-16 0)
(3 -2.64619e-16 0)
(3 -2.98516e-16 0)
(3 -4.11195e-16 0)
(3 -2.95645e-16 0)
(3 -3.94669e-16 0)
(3 -4.89994e-16 0)
(3 -1.30133e-15 0)
(3 -2.17948e-15 0)
(3 -2.15362e-15 0)
(3 -1.56303e-15 0)
(3 -1.13973e-15 0)
(3 -8.84105e-16 0)
(3 -5.08379e-16 0)
(3 -3.64115e-16 0)
(3 -1.02451e-15 0)
(3 -6.0162e-16 0)
(3 4.65245e-16 0)
(3 1.10224e-15 0)
(3 7.26159e-16 0)
(3 -6.62952e-17 0)
(3 -5.11608e-17 0)
(3 -1.19179e-16 0)
(3 -7.58695e-16 0)
(3 -1.01874e-15 0)
(3 -1.2061e-15 0)
(3 -7.70259e-16 0)
(3 -6.13929e-16 0)
(3 -5.31683e-16 0)
(3 -5.20761e-16 0)
(3 -9.46e-17 0)
(3 6.41568e-16 0)
(3 7.19681e-16 0)
(3 4.73817e-13 0)
(2.73177 0.176966 0)
(0.9803 0.284454 0)
(0.786177 0.256336 0)
(0.775472 0.246007 0)
(0.759797 0.248288 0)
(0.746898 0.25373 0)
(0.733259 0.260212 0)
(0.718781 0.26578 0)
(0.703673 0.268741 0)
(0.688538 0.26866 0)
(0.673671 0.266504 0)
(0.658908 0.265123 0)
(0.644205 0.267416 0)
(0.630312 0.274757 0)
(0.617353 0.284997 0)
(0.603375 0.292992 0)
(0.587878 0.295503 0)
(0.571823 0.293706 0)
(0.555279 0.293011 0)
(0.539593 0.297385 0)
(0.524679 0.304423 0)
(0.508557 0.308899 0)
(0.491644 0.309592 0)
(0.474819 0.312723 0)
(0.458484 0.318924 0)
(0.441527 0.325592 0)
(0.423872 0.331481 0)
(0.405823 0.337705 0)
(0.387728 0.34501 0)
(0.369198 0.352266 0)
(0.349986 0.358304 0)
(0.330793 0.36487 0)
(0.31179 0.37303 0)
(0.292894 0.381586 0)
(0.27343 0.38869 0)
(0.253283 0.395181 0)
(0.232596 0.403406 0)
(0.211059 0.412702 0)
(0.187759 0.419811 0)
(0.163335 0.425584 0)
(0.138216 0.430109 0)
(0.112884 0.435558 0)
(0.0869811 0.44038 0)
(0.0615467 0.446864 0)
(0.0360076 0.449947 0)
(0.0124785 0.455841 0)
(3 -6.88331e-17 0)
(3 -6.43549e-17 0)
(3 -1.48543e-16 0)
(3 -3.13078e-16 0)
(3 -4.88338e-16 0)
(3 -4.65416e-17 0)
(3 3.67933e-16 0)
(3 5.43596e-16 0)
(3 -2.17498e-16 0)
(3 -4.43187e-16 0)
(3 -4.08479e-16 0)
(3 -2.13213e-16 0)
(3 -2.29083e-16 0)
(3 -3.59438e-16 0)
(3 -4.49534e-16 0)
(3 -4.98783e-16 0)
(3 -7.35173e-16 0)
(3 -8.95936e-16 0)
(3 -1.19569e-15 0)
(3 -1.26681e-15 0)
(3 -7.98913e-16 0)
(3 -3.16359e-16 0)
(3 -2.16725e-16 0)
(3 -8.42094e-16 0)
(3 -1.0903e-15 0)
(3 -1.81622e-15 0)
(3 -1.88545e-15 0)
(3 -1.99202e-15 0)
(3 -1.60451e-15 0)
(3 -5.90783e-16 0)
(3 -7.28183e-17 0)
(3 6.18462e-16 0)
(3 7.573e-16 0)
(3 2.86547e-16 0)
(3 4.0091e-16 0)
(3 2.93232e-16 0)
(3 3.38602e-17 0)
(3 -2.78723e-16 0)
(3 -6.4557e-16 0)
(3 -1.00294e-15 0)
(3 -9.72499e-16 0)
(3 -9.62978e-16 0)
(3 -1.13512e-15 0)
(3 -1.01808e-15 0)
(3 -4.57607e-16 0)
(3 -5.07323e-17 0)
(3 2.68003e-16 0)
(3 2.70448e-16 0)
(3 3.58681e-16 0)
(3 -9.69151e-14 0)
(3.01752 0.00685838 0)
(1.23699 0.305839 0)
(0.812724 0.266009 0)
(0.792737 0.278529 0)
(0.778225 0.282518 0)
(0.764161 0.286334 0)
(0.75039 0.292227 0)
(0.735579 0.298302 0)
(0.719658 0.302684 0)
(0.703167 0.304477 0)
(0.686639 0.303916 0)
(0.670302 0.302868 0)
(0.654248 0.304159 0)
(0.639126 0.3098 0)
(0.625643 0.318949 0)
(0.612504 0.327541 0)
(0.598358 0.33177 0)
(0.583641 0.331535 0)
(0.568466 0.330885 0)
(0.55364 0.334284 0)
(0.540093 0.341603 0)
(0.52575 0.348384 0)
(0.51005 0.351014 0)
(0.494048 0.353866 0)
(0.47844 0.359714 0)
(0.462772 0.367111 0)
(0.446487 0.374453 0)
(0.429401 0.381673 0)
(0.412167 0.389806 0)
(0.394384 0.398195 0)
(0.375755 0.405607 0)
(0.356689 0.41287 0)
(0.337632 0.421648 0)
(0.318617 0.431624 0)
(0.298952 0.441033 0)
(0.278166 0.449557 0)
(0.257049 0.459423 0)
(0.235168 0.470711 0)
(0.211466 0.480274 0)
(0.186193 0.48785 0)
(0.159545 0.494063 0)
(0.131882 0.502048 0)
(0.102479 0.509795 0)
(0.0725272 0.518026 0)
(0.0422308 0.521682 0)
(0.0143352 0.527105 0)
(3 -2.96335e-18 0)
(3 -1.45619e-16 0)
(3 2.11481e-17 0)
(3 4.57526e-16 0)
(3 7.5932e-16 0)
(3 7.96784e-16 0)
(3 1.05675e-15 0)
(3 1.3527e-15 0)
(3 1.02477e-15 0)
(3 8.44648e-16 0)
(3 9.68267e-16 0)
(3 1.02573e-15 0)
(3 1.08282e-15 0)
(3 1.3224e-16 0)
(3 -9.86763e-16 0)
(3 -1.49773e-15 0)
(3 -2.21693e-15 0)
(3 -2.21662e-15 0)
(3 -2.26054e-15 0)
(3 -2.10626e-15 0)
(3 -2.21796e-15 0)
(3 -1.85335e-15 0)
(3 -1.08184e-15 0)
(3 1.93315e-16 0)
(3 4.99664e-16 0)
(3 -2.96222e-17 0)
(3 -1.1977e-15 0)
(3 -1.38084e-15 0)
(3 -1.38962e-15 0)
(3 -1.04811e-15 0)
(3 -1.12685e-15 0)
(3 -2.15031e-16 0)
(3 2.07826e-16 0)
(3 -4.80502e-18 0)
(3 -4.43486e-16 0)
(3 -8.61886e-16 0)
(3 -8.44449e-16 0)
(3 -7.40892e-16 0)
(3 -5.80033e-16 0)
(3 -2.51049e-16 0)
(3 -8.21747e-17 0)
(3 -1.56909e-16 0)
(3 -4.7105e-16 0)
(3 -5.65571e-16 0)
(3 -5.35019e-16 0)
(3 -2.95453e-16 0)
(3 3.19712e-16 0)
(3 1.28128e-16 0)
(3 -1.66379e-17 0)
(3 -7.86082e-15 0)
(3.00016 1.00279e-05 0)
(1.79489 0.340622 0)
(0.838895 0.318572 0)
(0.781801 0.30461 0)
(0.774508 0.310181 0)
(0.764411 0.314438 0)
(0.75474 0.321094 0)
(0.743429 0.328579 0)
(0.730604 0.334889 0)
(0.716582 0.338626 0)
(0.702005 0.339806 0)
(0.68723 0.339557 0)
(0.672381 0.340103 0)
(0.657866 0.343798 0)
(0.644526 0.351012 0)
(0.631908 0.358984 0)
(0.618723 0.364166 0)
(0.604865 0.365508 0)
(0.590587 0.365374 0)
(0.576262 0.367907 0)
(0.563157 0.374856 0)
(0.550365 0.383501 0)
(0.535994 0.389242 0)
(0.520753 0.392962 0)
(0.505679 0.398613 0)
(0.491058 0.406612 0)
(0.47608 0.415669 0)
(0.460337 0.424746 0)
(0.444103 0.434597 0)
(0.427211 0.444914 0)
(0.409357 0.454896 0)
(0.390555 0.464237 0)
(0.371378 0.474492 0)
(0.351969 0.486418 0)
(0.331716 0.498853 0)
(0.310374 0.510642 0)
(0.287931 0.523266 0)
(0.264369 0.537751 0)
(0.238589 0.551926 0)
(0.210222 0.564355 0)
(0.179563 0.57535 0)
(0.148043 0.588247 0)
(0.116054 0.601108 0)
(0.0837365 0.611732 0)
(0.0508204 0.616748 0)
(0.0162025 0.619946 0)
(3 8.76979e-18 0)
(3 2.14749e-17 0)
(3 8.29289e-17 0)
(3 4.8731e-16 0)
(3 7.8878e-16 0)
(3 6.4665e-16 0)
(3 -2.51194e-17 0)
(3 -5.57465e-16 0)
(3 -3.64004e-16 0)
(3 -5.95344e-17 0)
(3 2.99354e-16 0)
(3 9.04739e-16 0)
(3 1.03299e-15 0)
(3 8.4481e-16 0)
(3 1.42171e-16 0)
(3 -7.6425e-16 0)
(3 -8.52749e-16 0)
(3 -8.7436e-16 0)
(3 -8.76754e-16 0)
(3 -8.84908e-16 0)
(3 -8.36e-16 0)
(3 -6.98381e-16 0)
(3 -6.7239e-16 0)
(3 -4.28741e-16 0)
(3 3.44731e-16 0)
(3 8.01111e-16 0)
(3 8.71149e-16 0)
(3 5.40287e-16 0)
(3 -1.08518e-16 0)
(3 -4.34731e-16 0)
(3 -6.86502e-16 0)
(3 -3.97313e-16 0)
(3 -2.95443e-16 0)
(3 -1.96916e-16 0)
(3 -7.44744e-16 0)
(3 -1.16943e-15 0)
(3 -1.23567e-15 0)
(3 -1.24363e-15 0)
(3 -4.73586e-16 0)
(3 9.1439e-16 0)
(3 1.61423e-15 0)
(3 1.68448e-15 0)
(3 1.3789e-15 0)
(3 7.66994e-16 0)
(3 -2.58916e-16 0)
(3 -5.94126e-16 0)
(3 -4.89253e-16 0)
(3 3.3385e-16 0)
(3 7.6907e-16 0)
(3 -5.84715e-16 0)
(3 2.35091e-08 0)
(2.8059 0.155639 0)
(1.03034 0.37749 0)
(0.813223 0.340632 0)
(0.801387 0.333383 0)
(0.788074 0.33818 0)
(0.776425 0.345343 0)
(0.764849 0.353375 0)
(0.753193 0.360575 0)
(0.741062 0.365691 0)
(0.728472 0.368765 0)
(0.715426 0.370466 0)
(0.70196 0.372067 0)
(0.688304 0.375432 0)
(0.675146 0.381572 0)
(0.662546 0.388948 0)
(0.649688 0.394815 0)
(0.636177 0.397868 0)
(0.62219 0.39899 0)
(0.608012 0.401136 0)
(0.594569 0.407193 0)
(0.582333 0.416607 0)
(0.569286 0.425504 0)
(0.554877 0.431472 0)
(0.540211 0.437366 0)
(0.526112 0.445469 0)
(0.512372 0.455708 0)
(0.498068 0.466921 0)
(0.483061 0.479115 0)
(0.467474 0.492033 0)
(0.450919 0.505235 0)
(0.433267 0.518013 0)
(0.414863 0.53097 0)
(0.396031 0.545521 0)
(0.376522 0.561532 0)
(0.356322 0.577916 0)
(0.334994 0.594882 0)
(0.312932 0.613748 0)
(0.28956 0.633534 0)
(0.263877 0.652043 0)
(0.235495 0.667358 0)
(0.205602 0.681399 0)
(0.174213 0.696968 0)
(0.137963 0.716673 0)
(0.0931251 0.739767 0)
(0.03611 0.759892 0)
(3 -5.95156e-17 0)
(3 -7.91959e-18 0)
(3 6.56206e-18 0)
(3 -1.30453e-16 0)
(3 -1.35244e-16 0)