/*--------------------------------*- C++ -*----------------------------------*\
  =========                 |
  \\      /  F ield         | OpenFOAM: The Open Source CFD Toolbox
   \\    /   O peration     | Website:  https://openfoam.org
    \\  /    A nd           | Version:  7
     \\/     M anipulation  |
\*---------------------------------------------------------------------------*/
FoamFile
{
    version     2.0;
    format      ascii;
    class       volScalarField;
    location    "3.22";
    object      T;
}
// * * * * * * * * * * * * * * * * * * * * * * * * * * * * * * * * * * * * * //

dimensions      [0 0 0 1 0 0 0];

internalField   nonuniform List<scalar> 
1000
(
0
0
0
0
0
0
0
0
0
0
0
0
0
0
0
0
0
0
0
0
0
0
0
0
0
0
0
0
0
0
0
0
0
0
0
0
0
0
0
0
0
0
0
0
0
0
0
0
0
0
0
0
0
0
0
0
0
0
0
0
0
0
0
0
0
0
0
0
0
0
0
0
0
0
0
0
0
0
0
0
0
0
0
0
0
0
0
0
0
0
0
0
0
0
0
0
0
0
0
0
0
0
0
0
0
0
0
0
0
0
0
0
0
0
0
0
1.63042e-322
9.61007e-320
4.98432e-317
2.1846e-314
7.58902e-312
1.77549e-309
8.4217e-308
-1.29983e-304
-4.88908e-302
-7.23081e-301
4.3007e-297
6.43152e-295
-3.43344e-292
-6.18643e-290
3.42946e-287
1.65362e-285
-3.39253e-282
6.71236e-280
1.00487e-277
-9.76694e-275
3.34753e-272
-7.98079e-270
1.51474e-267
-2.42393e-265
3.37677e-263
-4.18066e-261
4.66731e-259
-4.74994e-257
4.44424e-255
-3.84915e-253
3.10342e-251
-2.34039e-249
1.65758e-247
-1.10644e-245
6.98211e-244
-4.1767e-242
2.37422e-240
-1.28528e-238
6.63921e-237
-3.27831e-235
1.54991e-233
-7.02635e-232
3.05856e-230
-1.28001e-228
5.15619e-227
-2.00139e-225
7.49308e-224
-2.70846e-222
9.46019e-221
-3.19557e-219
1.04473e-217
-3.30813e-216
1.01526e-214
-3.02183e-213
8.72815e-212
-2.44785e-210
6.66947e-209
-1.76631e-207
4.54905e-206
-1.13987e-204
2.78009e-203
-6.6026e-202
1.52755e-200
-3.44398e-199
7.56953e-198
-1.62244e-196
3.39235e-195
-6.92148e-194
1.37845e-192
-2.68042e-191
5.09033e-190
-9.44352e-189
1.71188e-187
-3.03292e-186
5.25288e-185
-8.89554e-184
1.47323e-182
-2.3866e-181
3.78245e-180
-5.8658e-179
8.90253e-178
-1.32251e-176
1.92329e-175
-2.7385e-174
3.8182e-173
-5.21356e-172
6.97255e-171
-9.13428e-170
1.17227e-168
-1.47397e-167
1.81592e-166
-2.19222e-165
2.59347e-164
-3.00687e-163
3.41673e-162
-3.8053e-161
4.15401e-160
-4.44489e-159
4.66209e-158
-4.7933e-157
4.83091e-156
-4.7727e-155
4.62208e-154
-4.38778e-153
4.08297e-152
-3.72408e-151
3.32932e-150
-2.91718e-149
2.50507e-148
-2.1081e-147
1.73837e-146
-1.40455e-145
1.1118e-144
-8.62101e-144
6.54751e-143
-4.86984e-142
3.54652e-141
-2.52848e-140
1.7644e-139
-1.20481e-138
8.04846e-138
-5.25849e-137
3.35916e-136
-2.09736e-135
1.27945e-134
-7.62251e-134
4.43296e-133
-2.51525e-132
1.39155e-131
-7.50162e-131
3.93745e-130
-2.01046e-129
9.97581e-129
-4.80458e-128
2.24284e-127
-1.01306e-126
4.41838e-126
-1.85586e-125
7.48218e-125
-2.88262e-124
1.05476e-123
-3.63267e-123
1.16096e-122
-3.35697e-122
8.32259e-122
-1.50468e-121
2.39312e-122
1.45608e-120
-8.89331e-120
3.68772e-119
-1.21087e-118
3.12361e-118
-5.27231e-118
-2.18304e-118
6.45976e-117
-3.27747e-116
1.11555e-115
-2.68862e-115
3.2213e-115
9.17071e-115
-7.69481e-114
2.98281e-113
-7.53921e-113
9.13459e-113
2.51862e-112
-2.02328e-111
7.19445e-111
-1.51341e-110
5.20075e-111
1.09601e-109
-5.3155e-109
1.3797e-108
-1.40303e-108
-5.75352e-108
3.60458e-107
-1.01499e-106
1.16518e-106
3.65138e-106
-2.40909e-105
6.52222e-105
-5.94879e-105
-2.92759e-104
1.5784e-103
-3.58764e-103
8.93306e-104
2.45308e-102
-9.47627e-102
1.47944e-101
2.01176e-101
-1.80326e-100
4.62001e-100
-2.1237e-100
-2.69172e-99
1.03149e-98
-1.36576e-98
-3.08221e-98
1.93694e-97
-3.78676e-97
-2.10455e-97
3.27248e-96
-8.21133e-96
1.41799e-96
5.19901e-95
-1.56836e-94
8.78959e-95
8.06284e-94
-2.77043e-93
2.09429e-93
1.26092e-92
-4.6355e-92
3.72725e-92
2.03044e-91
-7.41728e-91
5.32671e-91
3.3708e-90
-1.13293e-89
5.64466e-90
5.66555e-89
-1.63089e-88
2.08881e-89
9.36739e-88
-2.15516e-87
-9.70939e-88
1.47669e-86
-2.48305e-86
-3.5539e-86
2.14899e-85
-2.18945e-85
-8.03475e-85
2.77457e-84
-6.72073e-85
-1.43048e-83
2.96822e-83
2.61839e-83
-2.08985e-82
2.1711e-82
7.65981e-82
-2.44456e-81
-1.06198e-82
1.31789e-80
-2.02215e-80
-3.79312e-80
1.6325e-79
-4.68291e-80
-7.73121e-79
1.35104e-78
2.03185e-78
-9.64636e-78
2.86219e-78
4.44071e-77
-7.20778e-77
-1.27197e-76
5.12744e-76
-7.83425e-78
-2.47579e-75
2.94444e-75
8.47183e-75
-2.3535e-74
-1.42099e-74
1.25935e-73
-6.58263e-74
-5.17583e-73
8.22544e-73
1.5718e-72
-5.25386e-72
-2.24075e-72
2.57285e-71
-1.2705e-71
-1.03735e-70
1.43278e-70
3.40093e-70
-8.97317e-70
-7.89008e-70
4.47536e-69
1.43104e-70
-1.92521e-68
1.25455e-68
7.31403e-68
-9.96017e-68
-2.44223e-67
5.60221e-67
6.86561e-67
-2.68518e-66
-1.36885e-66
1.16209e-65
-2.14191e-67
-4.66125e-65
2.20284e-65
1.75727e-64
-1.59897e-64
-6.27719e-64
8.60539e-64
2.13458e-63
-4.04509e-63
-6.92617e-63
1.75337e-62
2.14541e-62
-7.19089e-62
-6.33674e-62
2.83207e-61
1.78024e-61
-1.08152e-60
-4.7434e-61
4.03192e-60
1.19864e-60
-1.47462e-59
-2.91207e-60
5.30982e-59
7.19232e-60
-1.88691e-58
-2.0628e-59
6.6263e-58
7.82304e-59
-2.30022e-57
-3.70403e-58
7.88737e-57
1.87625e-57
-2.66683e-56
-9.30257e-57
8.86591e-56
4.3911e-56
-2.88638e-55
-1.96564e-55
9.15065e-55
8.36473e-55
-2.80298e-54
-3.3943e-54
8.20057e-54
1.31606e-53
-2.24895e-53
-4.87834e-53
5.5803e-53
1.72682e-52
-1.14968e-52
-5.81911e-52
1.36593e-52
1.85611e-51
3.40458e-52
-5.54878e-51
-3.48145e-51
1.52761e-50
1.77036e-50
-3.74067e-50
-7.1705e-50
7.47288e-50
2.52298e-49
-8.39529e-50
-7.88772e-49
-2.04598e-49
2.17905e-48
1.89957e-48
-5.12823e-48
-8.67924e-48
9.11248e-48
3.07044e-47
-5.30978e-48
-9.0356e-47
-4.80041e-47
2.18917e-46
2.92284e-46
-3.92225e-46
-1.1024e-45
2.37142e-46
3.20585e-45
1.88808e-45
-7.19497e-45
-1.09906e-44
1.02669e-44
3.81629e-44
5.23972e-45
-9.70569e-44
-9.95415e-44
1.67235e-43
4.13747e-43
-5.72042e-44
-1.13336e-42
-9.23782e-43
2.04952e-42
4.37457e-42
-9.62926e-43
-1.21608e-41
-9.81374e-42
2.08828e-41
4.64363e-41
-4.10997e-42
-1.21075e-40
-1.19317e-40
1.72987e-40
4.8611e-40
1.09374e-40
-1.07809e-39
-1.4884e-39
9.43157e-40
4.72733e-39
3.21739e-39
-7.68692e-39
-1.6936e-38
-1.81404e-39
3.85217e-38
5.15518e-38
-2.82724e-38
-1.58093e-37
-1.32084e-37
2.06299e-37
5.76457e-37
2.60783e-37
-1.01197e-36
-1.94317e-36
-2.21005e-37
4.22401e-36
6.21983e-36
-1.2977e-36
-1.61312e-35
-1.93499e-35
1.00079e-35
5.83633e-35
5.99015e-35
-4.73015e-35
-2.04147e-34
-1.88975e-34
1.85195e-34
6.98728e-34
6.19742e-34
-6.4215e-34
-2.35371e-33
-2.1321e-33
1.99268e-33
7.80371e-33
7.6512e-33
-5.36359e-33
-2.532e-32
-2.81427e-32
1.10087e-32
7.94299e-32
1.03736e-31
-5.74517e-33
-2.35952e-31
-3.74612e-31
-1.04959e-31
6.39505e-31
1.29645e-30
7.95251e-31
-1.45719e-30
-4.19569e-30
-4.04138e-30
2.06897e-30
1.22635e-29
1.69173e-29
3.36045e-30
-3.02637e-29
-6.07692e-29
-4.3656e-29
5.12848e-29
1.85182e-28
2.26151e-28
1.84612e-29
-4.45565e-28
-8.58192e-28
-6.43621e-28
6.17327e-28
2.51045e-27
3.40879e-27
1.14121e-27
-5.0082e-27
-1.19345e-26
-1.23201e-26
1.34805e-27
2.84247e-26
5.23469e-26
4.26046e-26
-2.59706e-26
-1.40113e-25
-2.22809e-25
-1.50256e-25
1.64665e-25
6.42957e-25
9.5134e-25
5.85647e-25
-7.88815e-25
-2.82535e-24
-4.14772e-24
-2.66565e-24
3.09929e-24
1.19542e-23
1.84693e-23
1.38541e-23
-9.15727e-24
-4.79756e-23
-8.25835e-23
-7.6244e-23
8.09781e-24
1.74908e-22
3.59259e-22
4.14004e-22
1.55013e-22
-5.17522e-22
-1.44937e-21
-2.10725e-21
-1.6436e-21
7.187e-22
4.98061e-21
9.58902e-21
1.11244e-20
5.14158e-21
-1.13722e-20
-3.62304e-20
-5.85317e-20
-5.82324e-20
-1.20745e-20
9.23433e-20
2.36625e-19
3.54248e-19
3.30446e-19
3.57816e-20
-5.97379e-19
-1.46625e-18
-2.19874e-18
-2.13864e-18
-5.04776e-19
3.21329e-18
8.64988e-18
1.39297e-17
1.53736e-17
8.04605e-18
-1.23887e-17
-4.63734e-17
-8.63151e-17
-1.13211e-16
-9.67212e-17
-1.91423e-18
1.948e-16
4.80716e-16
7.78026e-16
9.23166e-16
6.7306e-16
-2.39576e-16
-1.98435e-15
-4.44458e-15
-6.99481e-15
-8.32393e-15
-6.4346e-15
1.01429e-15
1.58633e-14
3.80337e-14
6.36569e-14
8.31891e-14
8.03572e-14
3.31899e-14
-8.1356e-14
-2.77804e-13
-5.47051e-13
-8.36931e-13
-1.03251e-12
-9.43876e-13
-3.13535e-13
1.1413e-12
3.63514e-12
7.15734e-12
1.12521e-11
1.4758e-11
1.55649e-11
1.04915e-11
-4.55849e-12
-3.39575e-11
-8.09983e-11
-1.45607e-10
-2.21014e-10
-2.89477e-10
-3.17556e-10
-2.51968e-10
-1.7854e-11
4.77801e-10
1.33379e-09
2.62861e-09
4.37536e-09
6.45239e-09
8.50601e-09
9.82513e-09
9.1942e-09
4.74154e-09
-6.18405e-09
-2.70526e-08
-6.20226e-08
-1.15514e-07
-1.91311e-07
-2.90953e-07
-4.11115e-07
-5.39573e-07
-6.49289e-07
-6.90018e-07
-5.76781e-07
-1.74395e-07
7.22772e-07
2.41681e-06
5.33899e-06
1.00903e-05
1.74907e-05
2.86381e-05
4.49783e-05
6.8385e-05
0.000101253
0.000146603
0.000208195
0.000290658
0.000399623
0.000541869
0.000725473
0.000959961
0.00125646
0.00162785
0.00208889
0.00265635
0.00334913
0.00418832
0.00519725
0.00640153
0.00782902
0.00950976
0.0114758
0.0137613
0.0164018
0.0194345
0.0228977
0.0268303
0.0312717
0.0362611
0.0418372
0.0480374
0.0548977
0.0624515
0.0707299
0.0797605
0.089567
0.100169
0.111581
0.123813
0.13687
0.150748
0.165442
0.180937
0.197213
0.214245
0.232001
0.250443
0.269528
0.289208
0.309431
0.330138
0.35127
0.372763
0.39455
0.416564
0.438735
0.460993
0.48327
0.505495
0.527603
0.549527
0.571204
0.592575
0.613582
0.634174
0.654302
0.673921
0.692991
0.711478
0.729352
0.746587
0.763161
0.77906
0.794272
0.808789
0.822609
0.835733
0.848164
0.859912
0.870986
0.881401
0.891174
0.900322
0.908866
0.916827
0.924228
0.931095
0.93745
0.94332
0.948729
0.953703
0.958268
0.962448
0.966268
0.969751
0.97292
0.975798
0.978405
0.980761
0.982885
0.984794
0.986505
0.988032
0.989388
0.990584
0.991631
0.992536
0.993305
0.993943
0.99445
0.994826
0.995069
0.995172
0.995129
0.994929
0.994558
0.994001
0.993238
0.992249
0.991008
0.98949
0.987665
0.985502
0.982967
0.980026
0.976642
0.972777
0.968394
0.963454
0.957921
0.951758
0.944929
0.937402
0.929146
0.920135
0.910345
0.899757
0.888357
0.876134
0.863087
0.849215
0.834528
0.819038
0.802766
0.785737
0.767985
0.749545
0.730462
0.710784
0.690563
0.669856
0.648725
0.627233
0.605446
0.583433
0.561263
0.539005
0.516729
0.494503
0.472396
0.450473
0.428796
0.407425
0.386417
0.365825
0.345698
0.326079
0.307009
0.288521
0.270648
0.253413
0.236839
0.22094
0.205728
0.191211
0.177391
0.164267
0.151836
0.140088
0.129014
0.118599
0.108826
0.0996781
0.0911345
0.0831733
0.0757717
0.0689056
0.0625503
0.0566808
0.0512715
0.0462971
0.0417323
0.0375522
0.0337324
0.030249
0.0270788
0.0241996
0.0215899
0.0192291
0.0170977
0.0151772
0.0134501
0.0118998
0.010511
0.00926904
0.0081606
0.00717312
0.00629501
0.00551558
0.00482499
0.00421421
0.00367497
0.00319974
0.00278164
0.00241445
0.00209253
0.00181076
0.00156456
0.0013498
0.00116278
0.00100019
0.000859053
0.000736751
0.000630938
0.000539538
0.000460713
0.000392839
0.000334487
0.000284399
0.000241471
0.000204735
0.000173347
0.000146567
0.000123754
0.000104349
8.78674e-05
7.38889e-05
6.20507e-05
5.20395e-05
4.35856e-05
3.64569e-05
3.04541e-05
2.54066e-05
2.11681e-05
1.7614e-05
1.46378e-05
1.21491e-05
1.00707e-05
8.3373e-06
6.89365e-06
5.69288e-06
4.69545e-06
3.86801e-06
3.18249e-06
2.61527e-06
2.14656e-06
1.75972e-06
1.44088e-06
1.1784e-06
9.626e-07
7.85394e-07
6.40061e-07
5.21015e-07
4.2362e-07
3.44036e-07
2.79084e-07
2.26137e-07
1.83028e-07
1.4797e-07
1.19494e-07
9.63906e-08
7.76682e-08
6.25135e-08
5.02607e-08
4.03656e-08
3.23836e-08
2.5952e-08
2.07755e-08
1.66138e-08
1.32717e-08
1.05908e-08
8.44256e-09
6.72294e-09
5.34895e-09
4.2454e-09
3.40496e-09
2.47612e-09
)
;

boundaryField
{
    sides
    {
        type            zeroGradient;
    }
    empty
    {
        type            empty;
    }
}


// ************************************************************************* //
