/*--------------------------------*- C++ -*----------------------------------*\
  =========                 |
  \\      /  F ield         | OpenFOAM: The Open Source CFD Toolbox
   \\    /   O peration     | Website:  https://openfoam.org
    \\  /    A nd           | Version:  7
     \\/     M anipulation  |
\*---------------------------------------------------------------------------*/
FoamFile
{
    version     2.0;
    format      ascii;
    class       volScalarField;
    location    "3.1";
    object      p;
}
// * * * * * * * * * * * * * * * * * * * * * * * * * * * * * * * * * * * * * //

dimensions      [1 -1 -2 0 0 0 0];

internalField   nonuniform List<scalar> 
19968
(
1
1
1
1
1
1
1
1
1
1
1
1
1
1
1
1
1
1
1
1
1
1
1
1
1
1
1
1
1
1
1
1
1
1
1
1
1
1
1
1
1
1
1
1
1
1
1
1
1
6.5265
10.4059
10.4501
10.5064
10.5675
10.6315
10.695
10.7553
10.8116
10.8651
10.9173
10.969
11.0194
11.0671
11.1114
11.152
11.1905
11.2303
11.2738
11.3209
11.3709
11.4211
11.4686
11.5138
11.5585
11.6028
11.6444
11.6811
11.7116
11.737
11.76
11.7827
11.8061
11.831
11.857
11.8833
11.9097
11.9363
11.9623
11.9857
12.0047
12.0184
12.0263
12.029
12.028
12.0273
12.0254
1
1
1
1
1
1
1
1
1
1
1
1
1
1
1
1
1
1
1
1
1
1
1
1
1
1
1
1
1
1
1
1
1
1
1
1
1
1
1
1
1
1
1
1
1
1
1
1
1
6.42511
10.3784
10.4506
10.5042
10.5653
10.6284
10.6915
10.7516
10.8079
10.8616
10.9143
10.9664
11.0172
11.0652
11.1102
11.1518
11.1913
11.2318
11.2755
11.3219
11.3702
11.4182
11.464
11.5081
11.5521
11.5963
11.6381
11.6754
11.7066
11.7325
11.7557
11.7784
11.8018
11.8263
11.8518
11.8777
11.9039
11.9303
11.9561
11.9791
11.9978
12.0112
12.0191
12.0219
12.021
12.0206
12.0188
1
1
1
1
1
1
1
1
1
1
1
1
1
1
1
1
1
1
1
1
1
1
1
1
1
1
1
1
1
1
1
1
1
1
1
1
1
1
1
1
1
1
1
1
1
1
1
1
1
6.21807
10.3551
10.4452
10.4963
10.5575
10.6199
10.6827
10.7429
10.7994
10.8534
10.9066
10.9593
11.0105
11.0589
11.105
11.1483
11.1894
11.231
11.2754
11.3211
11.3676
11.4132
11.4567
11.4993
11.5419
11.5855
11.6272
11.6653
11.6977
11.7247
11.7489
11.7719
11.7951
11.819
11.8438
11.8689
11.8945
11.9204
11.9456
11.9681
11.9861
11.9992
12.0068
12.0096
12.009
12.0086
12.007
1
1
1
1
1
1
1
1
1
1
1
1
1
1
1
1
1
1
1
1
1
1
1
1
1
1
1
1
1
1
1
1
1
1
1
1
1
1
1
1
1
1
1
1
1
1
1
1
1
5.90037
10.3163
10.4356
10.4847
10.5478
10.6099
10.6725
10.733
10.7898
10.8439
10.8972
10.9498
11.0009
11.0493
11.0961
11.1409
11.1836
11.2266
11.2715
11.3162
11.3603
11.4034
11.4441
11.485
11.526
11.5687
11.6102
11.649
11.6826
11.7112
11.7364
11.7601
11.7833
11.8067
11.8306
11.8549
11.8798
11.9051
11.9295
11.951
11.9683
11.9807
11.9881
11.991
11.9906
11.9904
11.9891
1
1
1
1
1
1
1
1
1
1
1
1
1
1
1
1
1
1
1
1
1
1
1
1
1
1
1
1
1
1
1
1
1
1
1
1
1
1
1
1
1
1
1
1
1
1
1
1
1
5.45652
10.2563
10.4214
10.4687
10.5348
10.5968
10.6592
10.7201
10.7775
10.8319
10.885
10.9375
10.9884
11.0366
11.0835
11.1294
11.1732
11.2167
11.2615
11.3051
11.3473
11.3884
11.4271
11.4667
11.5064
11.548
11.5885
11.6274
11.662
11.6921
11.7188
11.7434
11.7667
11.7895
11.8125
11.8359
11.8599
11.8842
11.9074
11.9275
11.9435
11.9549
11.9616
11.9641
11.9639
11.9635
11.9624
1
1
1
1
1
1
1
1
1
1
1
1
1
1
1
1
1
1
1
1
1
1
1
1
1
1
1
1
1
1
1
1
1
1
1
1
1
1
1
1
1
1
1
1
1
1
1
1
1
4.87794
10.1547
10.404
10.4504
10.5195
10.5812
10.6432
10.704
10.7622
10.8169
10.8698
10.9222
10.9729
11.0207
11.0671
11.1133
11.1576
11.2008
11.245
11.2878
11.3282
11.3682
11.4054
11.4442
11.4826
11.5227
11.5614
11.5992
11.634
11.6651
11.6929
11.7183
11.7417
11.7639
11.786
11.8085
11.8316
11.8549
11.8769
11.896
11.9109
11.9217
11.9281
11.9309
11.9313
11.931
11.9305
1
1
1
1
1
1
1
1
1
1
1
1
1
1
1
1
1
1
1
1
1
1
1
1
1
1
1
1
1
1
1
1
1
1
1
1
1
1
1
1
1
1
1
1
1
1
1
1
1
4.16349
9.97495
10.3811
10.4293
10.5017
10.5623
10.6239
10.6842
10.7429
10.7979
10.8503
10.902
10.952
10.9989
11.0441
11.0895
11.1337
11.1762
11.2195
11.2618
11.3011
11.3408
11.3772
11.4156
11.4529
11.4913
11.5279
11.5639
11.5981
11.6296
11.6585
11.6849
11.7088
11.7307
11.7521
11.7737
11.796
11.8182
11.8389
11.8565
11.8701
11.8799
11.8859
11.8888
11.8899
11.8898
11.8901
1
1
1
1
1
1
1
1
1
1
1
1
1
1
1
1
1
1
1
1
1
1
1
1
1
1
1
1
1
1
1
1
1
1
1
1
1
1
1
1
1
1
1
1
1
1
1
1
1
3.36489
9.66159
10.3607
10.4109
10.4818
10.5407
10.6014
10.6606
10.7188
10.7739
10.8255
10.8752
10.9236
10.969
11.0125
11.0563
11.0999
11.1418
11.1833
11.2245
11.2627
11.3018
11.3379
11.3754
11.4116
11.4479
11.4822
11.5157
11.5486
11.5802
11.6099
11.637
11.6611
11.6828
11.7033
11.724
11.7454
11.7666
11.7861
11.8025
11.815
11.8243
11.8306
11.8346
11.8371
11.8383
11.84
1
1
1
1
1
1
1
1
1
1
1
1
1
1
1
1
1
1
1
1
1
1
1
1
1
1
1
1
1
1
1
1
1
1
1
1
1
1
1
1
1
1
1
1
1
1
1
1
1
2.50073
9.08111
10.358
10.4058
10.4695
10.5254
10.5819
10.637
10.6926
10.7473
10.7987
10.8472
10.894
10.9378
10.9792
11.0209
11.0635
11.1051
11.1456
11.186
11.2237
11.2613
11.2973
11.3331
11.3676
11.4012
11.4331
11.4641
11.4954
11.5262
11.5551
11.5811
11.6038
11.6237
11.6422
11.6611
11.6808
11.7006
11.7186
11.7335
11.745
11.7539
11.7608
11.7663
11.7708
11.7735
11.7767
1
1
1
1
1
1
1
1
1
1
1
1
1
1
1
1
1
1
1
1
1
1
1
1
1
1
1
1
1
1
1
1
1
1
1
1
1
1
1
1
1
1
1
1
1
1
1
1
1
1.69748
8.18391
10.3916
10.3846
10.4361
10.4869
10.5422
10.5975
10.6532
10.7082
10.7599
10.808
10.8539
10.8976
10.9385
10.9787
11.0197
11.061
11.1009
11.141
11.1794
11.2152
11.2506
11.2836
11.3161
11.3467
11.3765
11.4059
11.436
11.4655
11.4929
11.5169
11.5374
11.555
11.5713
11.5877
11.6048
11.6217
11.6368
11.6489
11.658
11.6654
11.6717
11.6778
11.6834
11.6873
11.6914
1
1
1
1
1
1
1
1
1
1
1
1
1
1
1
1
1
1
1
1
1
1
1
1
1
1
1
1
1
1
1
1
1
1
1
1
1
1
1
1
1
1
1
1
1
1
1
1
1
1.02696
6.77353
10.3682
10.4007
10.4424
10.4859
10.5313
10.5795
10.6282
10.6774
10.7254
10.7705
10.8133
10.8542
10.892
10.9283
10.9654
11.0037
11.0415
11.0791
11.1169
11.1511
11.1848
11.2147
11.244
11.2717
11.2998
11.3282
11.3573
11.3855
11.4107
11.4318
11.4489
11.4633
11.4763
11.4891
11.5024
11.5156
11.5278
11.5379
11.5464
11.5539
11.561
11.5683
11.5753
11.5805
11.5855
1
1
1
1
1
1
1
1
1
1
1
1
1
1
1
1
1
1
1
1
1
1
1
1
1
1
1
1
1
1
1
1
1
1
1
1
1
1
1
1
1
1
1
1
1
1
1
1
1
1.00006
4.94835
10.0383
10.2517
10.3146
10.3819
10.4409
10.4964
10.5466
10.5949
10.6412
10.6852
10.7268
10.7664
10.8036
10.8385
10.8731
10.9088
10.9457
10.9827
11.0207
11.0567
11.0892
11.1177
11.144
11.1697
11.196
11.2233
11.2512
11.2778
11.3009
11.3196
11.3344
11.3468
11.358
11.3691
11.3803
11.3912
11.4007
11.4079
11.4129
11.4159
11.4172
11.419
11.4217
11.4242
11.4274
1
1
1
1
1
1
1
1
1
1
1
1
1
1
1
1
1
1
1
1
1
1
1
1
1
1
1
1
1
1
1
1
1
1
1
1
1
1
1
1
1
1
1
1
1
1
1
1
1
1
2.95119
9.25838
10.2041
10.2612
10.331
10.3876
10.441
10.4904
10.5377
10.5828
10.6255
10.6655
10.7032
10.7388
10.7721
10.8038
10.8356
10.8689
10.9033
10.9381
10.9724
11.0015
11.0263
11.0471
11.0677
11.0891
11.1117
11.1347
11.1563
11.1744
11.1879
11.1973
11.2038
11.2087
11.2124
11.2152
11.2175
11.219
11.2193
11.2192
11.2188
11.2191
11.2196
11.2215
11.2227
11.2247
1
1
1
1
1
1
1
1
1
1
1
1
1
1
1
1
1
1
1
1
1
1
1
1
1
1
1
1
1
1
1
1
1
1
1
1
1
1
1
1
1
1
1
1
1
1
1
1
1
1
1.31952
7.51872
10.3103
10.3016
10.335
10.3667
10.4025
10.441
10.4807
10.5202
10.5584
10.5946
10.628
10.6587
10.6873
10.7144
10.7409
10.7686
10.7982
10.8278
10.857
10.8833
10.9042
10.9204
10.9346
10.9492
10.9647
10.9809
10.9961
11.0085
11.0165
11.0203
11.0207
11.019
11.0155
11.0126
11.0102
11.008
11.0047
10.9995
10.9899
10.9755
10.9535
10.9271
10.8999
10.8765
1
1
1
1
1
1
1
1
1
1
1
1
1
1
1
1
1
1
1
1
1
1
1
1
1
1
1
1
1
1
1
1
1
1
1
1
1
1
1
1
1
1
1
1
1
1
1
1
1
1
1.00282
4.76139
9.94394
10.1358
10.1767
10.2191
10.2652
10.3125
10.3583
10.4015
10.4414
10.4779
10.5114
10.5417
10.5691
10.5945
10.6182
10.6416
10.6661
10.6915
10.7163
10.7395
10.7576
10.7697
10.7775
10.7835
10.7898
10.7968
10.8038
10.8086
10.8099
10.8058
10.7955
10.7814
10.7643
10.7453
10.7235
10.6982
10.6665
10.6271
10.58
10.5272
10.4795
10.4365
10.4137
10.4007
1
1
1
1
1
1
1
1
1
1
1
1
1
1
1
1
1
1
1
1
1
1
1
1
1
1
1
1
1
1
1
1
1
1
1
1
1
1
1
1
1
1
1
1
1
1
1
1
1
1
1
1.91742
8.307
10.0557
10.0854
10.1386
10.1848
10.2287
10.27
10.3088
10.3447
10.3777
10.4078
10.4349
10.4586
10.4795
10.4986
10.5162
10.5334
10.5515
10.5691
10.5854
10.5982
10.6053
10.6066
10.6025
10.5963
10.591
10.5862
10.5793
10.5689
10.552
10.5273
10.496
10.4594
10.4183
10.3719
10.32
10.2611
10.1951
10.1226
10.0458
9.95445
9.86721
9.75045
9.84085
1
1
1
1
1
1
1
1
1
1
1
1
1
1
1
1
1
1
1
1
1
1
1
1
1
1
1
1
1
1
1
1
1
1
1
1
1
1
1
1
1
1
1
1
1
1
1
1
1
1
1
1.02296
5.43784
9.89246
10.016
10.0613
10.1065
10.1472
10.1852
10.2203
10.2526
10.2817
10.3076
10.3306
10.35
10.366
10.3798
10.3921
10.403
10.4141
10.425
10.4346
10.4415
10.4437
10.4385
10.4256
10.4087
10.3917
10.3742
10.3544
10.3304
10.2993
10.2594
10.2103
10.1519
10.0845
10.0053
9.91175
9.79649
9.65338
9.46236
9.20878
8.83181
8.27983
7.35951
5.49682
1
1
1
1
1
1
1
1
1
1
1
1
1
1
1
1
1
1
1
1
1
1
1
1
1
1
1
1
1
1
1
1
1
1
1
1
1
1
1
1
1
1
1
1
1
1
1
1
1
1
1
0.999947
2.67378
8.85185
9.95009
9.97606
10.0466
10.0894
10.1262
10.1576
10.1855
10.2102
10.2313
10.2498
10.2658
10.2784
10.2884
10.2961
10.3012
10.3052
10.3089
10.3117
10.3121
10.3086
10.2978
10.2786
10.2535
10.2262
10.1971
10.1646
10.1267
10.081
10.0253
9.95888
9.87918
9.78632
9.67392
9.54012
9.36955
9.15982
8.877
8.51541
8.00033
7.35527
6.12343
4.53001
1
1
1
1
1
1
1
1
1
1
1
1
1
1
1
1
1
1
1
1
1
1
1
1
1
1
1
1
1
1
1
1
1
1
1
1
1
1
1
1
1
1
1
1
1
1
1
1
1
1
1
0.999991
1.09805
6.66981
10.0133
10.0023
10.0141
10.0412
10.0655
10.0873
10.1074
10.1257
10.1417
10.1555
10.1683
10.1782
10.1841
10.1865
10.1863
10.1844
10.1816
10.1779
10.172
10.1614
10.1453
10.1208
10.0883
10.0514
10.0106
9.96548
9.91356
9.85318
9.78087
9.69679
9.5959
9.47909
9.33684
9.16798
8.9561
8.69626
8.36662
7.945
7.4142
6.6446
5.63951
4.50276
1
1
1
1
1
1
1
1
1
1
1
1
1
1
1
1
1
1
1
1
1
1
1
1
1
1
1
1
1
1
1
1
1
1
1
1
1
1
1
1
1
1
1
1
1
1
1
1
1
1
1
0.999999
1.00022
3.52508
9.13415
9.84123
9.8887
9.94003
9.97153
9.99599
10.0165
10.0343
10.0485
10.0591
10.0675
10.0745
10.0775
10.0768
10.0728
10.0658
10.0563
10.0451
10.0324
10.015
9.99357
9.96441
9.9255
9.87967
9.82778
9.7709
9.7059
9.63177
9.54353
9.4422
9.3224
9.18458
9.02056
8.82592
8.58998
8.30275
7.95553
7.52
6.99429
6.31347
5.54884
4.70787
1
1
1
1
1
1
1
1
1
1
1
1
1
1
1
1
1
1
1
1
1
1
1
1
1
1
1
1
1
1
1
1
1
1
1
1
1
1
1
1
1
1
1
1
1
1
1
1
1
1
1
1
1
1.19069
7.18354
9.9428
9.88479
9.88573
9.9024
9.9197
9.93432
9.94762
9.95769
9.96444
9.96885
9.97181
9.97152
9.96691
9.95799
9.94507
9.92897
9.91097
9.89201
9.86809
9.84009
9.80511
9.76014
9.70669
9.64461
9.5766
9.49992
9.41405
9.31326
9.1976
9.0631
8.9094
8.73172
8.52386
8.27882
7.98607
7.64288
7.22559
6.74589
6.18534
5.58853
4.92634
1
1
1
1
1
1
1
1
1
1
1
1
1
1
1
1
1
1
1
1
1
1
1
1
1
1
1
1
1
1
1
1
1
1
1
1
1
1
1
1
1
1
1
1
1
1
1
1
1
1
1
1
1
1.00108
3.83023
9.11225
9.70019
9.74907
9.78961
9.81658
9.8336
9.84662
9.85618
9.86184
9.86375
9.86313
9.85935
9.85182
9.83959
9.82248
9.80056
9.77524
9.7484
9.71776
9.68349
9.64382
9.59471
9.53607
9.46619
9.38853
9.30203
9.20639
9.09665
8.97087
8.82603
8.66182
8.47627
8.26405
8.02077
7.73602
7.41072
7.0324
6.60966
6.14558
5.6526
5.12137
1
1
1
1
1
1
1
1
1
1
1
1
1
1
1
1
1
1
1
1
1
1
1
1
1
1
1
1
1
1
1
1
1
1
1
1
1
1
1
1
1
1
1
1
1
1
1
1
1
1
1
1
1
0.999998
1.2256
7.01006
9.80167
9.75407
9.7419
9.74457
9.75215
9.75989
9.76464
9.76433
9.76084
9.75528
9.74825
9.73854
9.72358
9.70246
9.67521
9.64367
9.60998
9.57362
9.53358
9.48902
9.43545
9.37261
9.29737
9.21234
9.11758
9.01328
8.89641
8.76415
8.61395
8.44506
8.2569
8.04583
7.81088
7.5403
7.23877
6.90473
6.53432
6.13987
5.72147
5.27737
1
1
1
1
1
1
1
1
1
1
1
1
1
1
1
1
1
1
1
1
1
1
1
1
1
1
1
1
1
1
1
1
1
1
1
1
1
1
1
1
1
1
1
1
1
1
1
1
1
1
1
1
1
1
1.00153
3.4188
8.90371
9.56992
9.60951
9.62814
9.64163
9.64976
9.65311
9.65064
9.64446
9.6356
9.62577
9.61449
9.59967
9.57771
9.54777
9.51157
9.46995
9.42535
9.37827
9.32858
9.27168
9.20693
9.13002
9.04196
8.94269
8.83286
8.71136
8.57591
8.42489
8.25652
8.07104
7.86432
7.64145
7.38541
7.10857
6.81441
6.48611
6.14773
5.78458
5.40775
1
1
1
1
1
1
1
1
1
1
1
1
1
1
1
1
1
1
1
1
1
1
1
1
1
1
1
1
1
1
1
1
1
1
1
1
1
1
1
1
1
1
1
1
1
1
1
1
1
1
1
1
1
1
0.999999
1.16455
6.18966
9.5579
9.54447
9.54858
9.55397
9.55964
9.56234
9.55851
9.54939
9.5363
9.52101
9.5058
9.48917
9.46588
9.43358
9.3936
9.34455
9.29294
9.23916
9.1837
9.12267
9.05452
8.97541
8.88617
8.78539
8.6731
8.54867
8.41118
8.26069
8.09507
7.91646
7.71571
7.50721
7.26673
7.01319
6.75011
6.45447
6.15958
5.83577
5.51363
1
1
1
1
1
1
1
1
1
1
1
1
1
1
1
1
1
1
1
1
1
1
1
1
1
1
1
1
1
1
1
1
1
1
1
1
1
1
1
1
1
1
1
1
1
1
1
1
1
1
1
1
1
1
1
1.00081
2.28712
8.21463
9.45638
9.42083
9.44263
9.45309
9.45639
9.45578
9.44805
9.43448
9.41474
9.39385
9.37386
9.34929
9.31537
9.27387
9.22147
9.16576
9.10713
9.04489
8.9777
8.90457
8.8229
8.73357
8.63395
8.52291
8.39858
8.26167
8.11391
7.95271
7.78333
7.5896
7.39592
7.17323
6.9426
6.70291
6.43736
6.17525
5.88354
5.60278
1
1
1
1
1
1
1
1
1
1
1
1
1
1
1
1
1
1
1
1
1
1
1
1
1
1
1
1
1
1
1
1
1
1
1
1
1
1
1
1
1
1
1
1
1
1
1
1
1
1
1
1
1
1
1
1
1.04786
4.59603
9.12792
9.3545
9.36583
9.37823
9.3802
9.37844
9.3702
9.35433
9.32832
9.29926
9.27263
9.23973
9.20215
9.15928
9.10562
9.0475
8.98517
8.91925
8.84643
8.7682
8.68413
8.59474
8.49733
8.38925
8.26756
8.13289
7.98947
7.83077
7.66757
7.4823
7.3025
7.09727
6.88827
6.66832
6.43052
6.1911
5.92851
5.67733
1
1
1
1
1
1
1
1
1
1
1
1
1
1
1
1
1
1
1
1
1
1
1
1
1
1
1
1
1
1
1
1
1
1
1
1
1
1
1
1
1
1
1
1
1
1
1
1
1
1
1
1
1
1
1
1
1.00009
1.3329
6.63833
9.3272
9.32772
9.32
9.30173
9.29298
9.28294
9.26672
9.23718
9.20515
9.17412
9.13397
9.09137
9.04521
8.98969
8.93123
8.86846
8.80052
8.7262
8.64493
8.55836
8.46797
8.37104
8.26369
8.14498
8.01433
7.87665
7.72131
7.56363
7.3904
7.22174
7.03224
6.84397
6.64072
6.42564
6.20358
5.97047
5.74109
1
1
1
1
1
1
1
1
1
1
1
1
1
1
1
1
1
1
1
1
1
1
1
1
1
1
1
1
1
1
1
1
1
1
1
1
1
1
1
1
1
1
1
1
1
1
1
1
1
1
1
1
1
1
1
1
1
1.0033
2.48207
8.21094
9.2423
9.18661
9.18497
9.18339
9.17862
9.16747
9.13947
9.10784
9.07268
9.02901
8.98104
8.93227
8.87675
8.81876
8.75685
8.68738
8.61365
8.53444
8.44783
8.35686
8.25834
8.15262
8.03588
7.91016
7.77655
7.62972
7.47837
7.31704
7.15674
6.9804
6.80651
6.61539
6.41735
6.21209
6.00498
5.79134
1
1
1
1
1
1
1
1
1
1
1
1
1
1
1
1
1
1
1
1
1
1
1
1
1
1
1
1
1
1
1
1
1
1
1
1
1
1
1
1
1
1
1
1
1
1
1
1
1
1
1
1
1
1
1
1
1
1
1.06003
4.37836
8.89686
9.09019
9.10128
9.10276
9.0929
9.07736
9.04799
9.01603
8.97843
8.93317
8.88301
8.82939
8.77356
8.71414
8.65144
8.58106
8.50825
8.4332
8.34601
8.25585
8.15865
8.05101
7.93463
7.81286
7.68503
7.54854
7.40498
7.25565
7.10292
6.93957
6.77364
6.59339
6.4099
6.22167
6.03346
5.83468
1
1
1
1
1
1
1
1
1
1
1
1
1
1
1
1
1
1
1
1
1
1
1
1
1
1
1
1
1
1
1
1
1
1
1
1
1
1
1
1
1
1
1
1
1
1
1
1
1
1
1
1
1
1
1
1
1
1
1.00016
1.28994
5.72886
8.95012
9.07222
9.04747
9.03263
9.01024
8.97437
8.93774
8.8949
8.84642
8.7937
8.73735
8.67907
8.62038
8.55646
8.48514
8.41265
8.33931
8.25349
8.16355
8.06776
7.96133
7.8462
7.72784
7.60562
7.47725
7.3423
7.20399
7.05912
6.90639
6.74622
6.5772
6.40544
6.23185
6.0547
5.87203
1
1
1
1
1
1
1
1
1
1
1
1
1
1
1
1
1
1
1
1
1
1
1
1
1
1
1
1
1
1
1
1
1
1
1
1
1
1
1
1
1
1
1
1
1
1
1
1
1
1
1
1
1
1
1
1
1
1
1
1.00261
1.62611
7.0495
9.07223
9.0198
8.98436
8.92835
8.8822
8.83766
8.79394
8.74775
8.69814
8.6448
8.5872
8.52932
8.467
8.39466
8.32274
8.24868
8.16457
8.07547
7.98092
7.87868
7.76811
7.65337
7.53567
7.41318
7.28655
7.15698
7.0199
6.87584
6.72337
6.56566
6.40415
6.24231
6.07267
5.90684
1
1
1
1
1
1
1
1
1
1
1
1
1
1
1
1
1
1
1
1
1
1
1
1
1
1
1
1
1
1
1
1
1
1
1
1
1
1
1
1
1
1
1
1
1
1
1
1
1
1
1
1
1
1
1
1
1
1
1
1
1.01126
2.66641
8.06215
8.93094
8.84662
8.80337
8.76039
8.72205
8.68509
8.64748
8.60511
8.55819
8.50484
8.44752
8.38829
8.31674
8.24609
8.16967
8.08602
7.99709
7.90265
7.80403
7.70044
7.58977
7.47611
7.35958
7.24055
7.11695
6.98601
6.84813
6.70267
6.55418
6.40285
6.24958
6.08745
5.93774
1
1
1
1
1
1
1
1
1
1
1
1
1
1
1
1
1
1
1
1
1
1
1
1
1
1
1
1
1
1
1
1
1
1
1
1
1
1
1
1
1
1
1
1
1
1
1
1
1
1
1
1
1
1
1
1
1
1
1
1
1.00002
1.07287
3.96091
8.48263
8.7454
8.67317
8.64964
8.62336
8.59613
8.56406
8.52751
8.48394
8.43287
8.37565
8.31589
8.24767
8.17587
8.09773
8.01408
7.92568
7.83207
7.73592
7.63804
7.53271
7.42246
7.31245
7.20015
7.08131
6.9558
6.82265
6.68358
6.54323
6.40174
6.25492
6.10164
5.96538
1
1
1
1
1
1
1
1
1
1
1
1
1
1
1
1
1
1
1
1
1
1
1
1
1
1
1
1
1
1
1
1
1
1
1
1
1
1
1
1
1
1
1
1
1
1
1
1
1
1
1
1
1
1
1
1
1
1
1
1
1
1.00028
1.22442
4.77007
8.46888
8.5992
8.57126
8.56069
8.53405
8.50237
8.46394
8.42036
8.3695
8.31257
8.25131
8.18437
8.11189
8.03373
7.95087
7.8638
7.77217
7.67792
7.5823
7.4815
7.37545
7.27058
7.16305
7.04872
6.92741
6.79837
6.66661
6.53386
6.40121
6.25987
6.1166
5.99059
1
1
1
1
1
1
1
1
1
1
1
1
1
1
1
1
1
1
1
1
1
1
1
1
1
1
1
1
1
1
1
1
1
1
1
1
1
1
1
1
1
1
1
1
1
1
1
1
1
1
1
1
1
1
1
1
1
1
1
1
1
1
1.00178
1.38426
5.27158
8.41238
8.54119
8.52106
8.49028
8.45113
8.40903
8.36177
8.30911
8.25197
8.19064
8.12429
8.0525
7.97581
7.89494
7.8101
7.7212
7.62906
7.53436
7.43628
7.33457
7.23253
7.12752
7.01672
6.89881
6.77463
6.65053
6.52606
6.40188
6.26626
6.13196
6.01382
1
1
1
1
1
1
1
1
1
1
1
1
1
1
1
1
1
1
1
1
1
1
1
1
1
1
1
1
1
1
1
1
1
1
1
1
1
1
1
1
1
1
1
1
1
1
1
1
1
1
1
1
1
1
1
1
1
1
1
1
1
1
1
1.00465
1.5298
5.66562
8.39132
8.48634
8.44657
8.40232
8.35402
8.30321
8.24807
8.19069
8.1303
8.06542
7.99541
7.92134
7.8434
7.76143
7.67537
7.58546
7.49195
7.39566
7.29739
7.1971
7.09367
6.9859
6.87118
6.75274
6.6359
6.51974
6.40379
6.27448
6.14682
6.03515
1
1
1
1
1
1
1
1
1
1
1
1
1
1
1
1
1
1
1
1
1
1
1
1
1
1
1
1
1
1
1
1
1
1
1
1
1
1
1
1
1
1
1
1
1
1
1
1
1
1
1
1
1
1
1
1
1
1
1
1
1
1
1
1.00001
1.00838
1.66833
5.98007
8.33855
8.40317
8.35735
8.30803
8.25144
8.19444
8.13576
8.07502
8.00993
7.94108
7.86941
7.79472
7.7162
7.63313
7.54571
7.45431
7.36013
7.2643
7.16515
7.06243
6.95681
6.84637
6.73475
6.62427
6.51533
6.40724
6.28489
6.16232
6.05548
1
1
1
1
1
1
1
1
1
1
1
1
1
1
1
1
1
1
1
1
1
1
1
1
1
1
1
1
1
1
1
1
1
1
1
1
1
1
1
1
1
1
1
1
1
1
1
1
1
1
1
1
1
1
1
1
1
1
1
1
1
1
1
1
1.00002
1.01284
1.79566
6.17835
8.2678
8.31733
8.26417
8.20962
8.15131
8.09273
8.02812
7.95998
7.89071
7.81943
7.74569
7.66846
7.58747
7.50296
7.41507
7.32428
7.23118
7.13463
7.03491
6.93351
6.82928
6.7245
6.61944
6.51557
6.41366
6.29794
6.17978
6.07612
1
1
1
1
1
1
1
1
1
1
1
1
1
1
1
1
1
1
1
1
1
1
1
1
1
1
1
1
1
1
1
1
1
1
1
1
1
1
1
1
1
1
1
1
1
1
1
1
1
1
1
1
1
1
1
1
1
1
1
1
1
1
1
1
1
1.00003
1.01773
1.8929
6.25599
8.19752
8.22947
8.16782
8.1134
8.04929
7.98486
7.91752
7.84785
7.77571
7.70037
7.6221
7.54228
7.46012
7.37528
7.28821
7.19918
7.10732
7.01235
6.91605
6.81824
6.72
6.61939
6.51825
6.42008
6.31062
6.1976
6.0954
1
1
1
1
1
1
1
1
1
1
1
1
1
1
1
1
1
1
1
1
1
1
1
1
1
1
1
1
1
1
1
1
1
1
1
1
1
1
1
1
1
1
1
1
1
1
1
1
1
1
1
1
1
1
1
1
1
1
1
1
1
1
1
1
1
1
1.00005
1.02202
1.9454
6.23737
8.09822
8.13752
8.06972
8.01165
7.94312
7.87495
7.80419
7.73106
7.65596
7.57935
7.501
7.42081
7.33899
7.25575
7.17108
7.08429
6.99487
6.90401
6.81193
6.71934
6.62291
6.524
6.42789
6.32417
6.21735
6.11583
1
1
1
1
1
1
1
1
1
1
1
1
1
1
1
1
1
1
1
1
1
1
1
1
1
1
1
1
1
1
1
1
1
1
1
1
1
1
1
1
1
1
1
1
1
1
1
1
1
1
1
1
1
1
1
1
1
1
1
1
1
1
1
1
1
1
1
1.00006
1.02461
1.95243
6.10607
7.9904
8.0374
7.96353
7.90273
7.83104
7.76076
7.68783
7.61402
7.53936
7.46335
7.3862
7.30798
7.22874
7.14846
7.06632
6.98185
6.89555
6.80796
6.7196
6.62689
6.53062
6.43529
6.33646
6.23545
6.13496
1
1
1
1
1
1
1
1
1
1
1
1
1
1
1
1
1
1
1
1
1
1
1
1
1
1
1
1
1
1
1
1
1
1
1
1
1
1
1
1
1
1
1
1
1
1
1
1
1
1
1
1
1
1
1
1
1
1
1
1
1
1
1
1
1
1
1
1
1.00008
1.02507
1.9105
5.85828
7.86122
7.93028
7.84608
7.78644
7.71732
7.64828
7.57832
7.50741
7.43523
7.36199
7.28784
7.21254
7.13566
7.05658
6.97535
6.89205
6.80715
6.72086
6.63088
6.53733
6.44282
6.34762
6.25122
6.15289
1
1
1
1
1
1
1
1
1
1
1
1
1
1
1
1
1
1
1
1
1
1
1
1
1
1
1
1
1
1
1
1
1
1
1
1
1
1
1
1
1
1
1
1
1
1
1
1
1
1
1
1
1
1
1
1
1
1
1
1
1
1
1
1
1
1
1
1
1
1.00008
1.02322
1.81993
5.46856
7.70983
7.8202
7.73668
7.67451
7.6105
7.54616
7.48122
7.41443
7.34579
7.27531
7.2029
7.12821
7.05103
6.97165
6.89001
6.80633
6.72068
6.63255
6.5417
6.44899
6.35627
6.26317
6.16771
1
1
1
1
1
1
1
1
1
1
1
1
1
1
1
1
1
1
1
1
1
1
1
1
1
1
1
1
1
1
1
1
1
1
1
1
1
1
1
1
1
1
1
1
1
1
1
1
1
1
1
1
1
1
1
1
1
1
1
1
1
1
1
1
1
1
1
1
1
1
1.00007
1.01931
1.68457
4.90893
7.51604
7.71815
7.64072
7.58266
7.5259
7.46691
7.40503
7.34018
7.27224
7.20125
7.12726
7.05046
6.97121
6.88971
6.8063
6.72105
6.63417
6.54537
6.45501
6.36437
6.2737
6.18114
1
1
1
1
1
1
1
1
1
1
1
1
1
1
1
1
1
1
1
1
1
1
1
1
1
1
1
1
1
1
1
1
1
1
1
1
1
1
1
1
1
1
1
1
1
1
1
1
1
1
1
1
1
1
1
1
1
1
1
1
1
1
1
1
1
1
1
1
1
1
1
1.00006
1.01419
1.51269
4.203
7.30731
7.63753
7.57344
7.52372
7.46452
7.40238
7.33748
7.2696
7.19848
7.12441
7.04769
6.9686
6.88759
6.80496
6.72071
6.63508
6.54812
6.46064
6.3724
6.28352
6.19385
1
1
1
1
1
1
1
1
1
1
1
1
1
1
1
1
1
1
1
1
1
1
1
1
1
1
1
1
1
1
1
1
1
1
1
1
1
1
1
1
1
1
1
1
1
1
1
1
1
1
1
1
1
1
1
1
1
1
1
1
1
1
1
1
1
1
1
1
1
1
1
1
1.00004
1.00879
1.33422
3.58799
6.97573
7.55678
7.52331
7.45877
7.39681
7.33069
7.26208
7.19086
7.11729
7.04135
6.96349
6.88385
6.80271
6.72024
6.6365
6.55213
6.46738
6.38101
6.29474
6.20827
1
1
1
1
1
1
1
1
1
1
1
1
1
1
1
1
1
1
1
1
1
1
1
1
1
1
1
1
1
1
1
1
1
1
1
1
1
1
1
1
1
1
1
1
1
1
1
1
1
1
1
1
1
1
1
1
1
1
1
1
1
1
1
1
1
1
1
1
1
1
1
1
1
1.00002
1.00437
1.20832
2.99655
6.53012
7.44361
7.475
7.38388
7.32383
7.25459
7.18412
7.11144
7.03691
6.96028
6.88216
6.80318
6.72262
6.64143
6.55958
6.47634
6.39328
6.30976
6.22549
1
1
1
1
1
1
1
1
1
1
1
1
1
1
1
1
1
1
1
1
1
1
1
1
1
1
1
1
1
1
1
1
1
1
1
1
1
1
1
1
1
1
1
1
1
1
1
1
1
1
1
1
1
1
1
1
1
1
1
1
1
1
1
1
1
1
1
1
1
1
1
1
1
1
1.00001
1.00205
1.11957
2.47608
5.87308
7.32784
7.41307
7.31147
7.24672
7.17691
7.10477
7.03038
6.95556
6.88012
6.803
6.72535
6.6478
6.56849
6.48868
6.4084
6.32584
6.24492
1
1
1
1
1
1
1
1
1
1
1
1
1
1
1
1
1
1
1
1
1
1
1
1
1
1
1
1
1
1
1
1
1
1
1
1
1
1
1
1
1
1
1
1
1
1
1
1
1
1
1
1
1
1
1
1
1
1
1
1
1
1
1
1
1
1
1
1
1
1
1
1
1
1
1
1
1.00087
1.06393
2.01082
5.05402
7.14149
7.30716
7.23904
7.17131
7.10006
7.02849
6.95474
6.87962
6.80496
6.73162
6.65596
6.58033
6.50381
6.42436
6.34715
6.26711
1
1
1
1
1
1
1
1
1
1
1
1
1
1
1
1
1
1
1
1
1
1
1
1
1
1
1
1
1
1
1
1
1
1
1
1
1
1
1
1
1
1
1
1
1
1
1
1
1
1
1
1
1
1
1
1
1
1
1
1
1
1
1
1
1
1
1
1
1
1
1
1
1
1
1
1
1
1.00034
1.03078
1.62668
4.133
6.82393
7.21136
7.17155
7.09466
7.02746
6.96002
6.88855
6.81559
6.74117
6.66626
6.59371
6.52024
6.44591
6.3697
6.28848
1
1
1
1
1
1
1
1
1
1
1
1
1
1
1
1
1
1
1
1
1
1
1
1
1
1
1
1
1
1
1
1
1
1
1
1
1
1
1
1
1
1
1
1
1
1
1
1
1
1
1
1
1
1
1
1
1
1
1
1
1
1
1
1
1
1
1
1
1
1
1
1
1
1
1
1
1
1
1.00011
1.01312
1.3427
3.25804
6.27745
7.07187
7.14196
7.0455
6.97781
6.90897
6.83562
6.75622
6.67997
6.60381
6.53034
6.45715
6.38054
6.31037
1
1
1
1
1
1
1
1
1
1
1
1
1
1
1
1
1
1
1
1
1
1
1
1
1
1
1
1
1
1
1
1
1
1
1
1
1
1
1
1
1
1
1
1
1
1
1
1
1
1
1
1
1
1
1
1
1
1
1
1
1
1
1
1
1
1
1
1
1
1
1
1
1
1
1
1
1
1
1
1.00003
1.00481
1.16635
2.47928
5.49551
6.9151
7.04492
6.98016
6.909
6.84216
6.77401
6.69902
6.61706
6.53642
6.45976
6.3855
6.32441
1
1
1
1
1
1
1
1
1
1
1
1
1
1
1
1
1
1
1
1
1
1
1
1
1
1
1
1
1
1
1
1
1
1
1
1
1
1
1
1
1
1
1
1
1
1
1
1
1
1
1
1
1
1
1
1
1
1
1
1
1
1
1
1
1
1
1
1
1
1
1
1
1
1
1
1
1
1
1
1
1.00001
1.00153
1.06829
1.89408
4.49129
6.61149
6.95173
6.91768
6.83199
6.76679
6.70767
6.64077
6.56712
6.48729
6.40923
6.33953
1
1
1
1
1
1
1
1
1
1
1
1
1
1
1
1
1
1
1
1
1
1
1
1
1
1
1
1
1
1
1
1
1
1
1
1
1
1
1
1
1
1
1
1
1
1
1
1
1
1
1
1
1
1
1
1
1
1
1
1
1
1
1
1
1
1
1
1
1
1
1
1
1
1
1
1
1
1
1
1
1
1
1.00039
1.0257
1.47487
3.38189
6.07341
6.85989
6.88425
6.80002
6.7179
6.64633
6.57599
6.50515
6.43964
6.36659
1
1
1
1
1
1
1
1
1
1
1
1
1
1
1
1
1
1
1
1
1
1
1
1
1
1
1
1
1
1
1
1
1
1
1
1
1
1
1
1
1
1
1
1
1
1
1
1
1
1
1
1
1
1
1
1
1
1
1
1
1
1
1
1
1
1
1
1
1
1
1
1
1
1
1
1
1
1
1
1
1
1
1
1.00009
1.00849
1.19941
2.49237
5.20595
6.62777
6.80509
6.7565
6.67194
6.59217
6.52169
6.45017
6.37318
1
1
1
1
1
1
1
1
1
1
1
1
1
1
1
1
1
1
1
1
1
1
1
1
1
1
1
1
1
1
1
1
1
1
1
1
1
1
1
1
1
1
1
1
1
1
1
1
1
1
1
1
1
1
1
1
1
1
1
1
1
1
1
1
1
1
1
1
1
1
1
1
1
1
1
1
1
1
1
1
1
1
1
1
1.00002
1.00208
1.07352
1.81984
4.12764
6.2115
6.67409
6.69463
6.63436
6.56262
6.50014
6.42642
1
1
1
1
1
1
1
1
1
1
1
1
1
1
1
1
1
1
1
1
1
1
1
1
1
1
1
1
1
1
1
1
1
1
1
1
1
1
1
1
1
1
1
1
1
1
1
1
1
1
1
1
1
1
1
1
1
1
1
1
1
1
1
1
1
1
1
1
1
1
1
1
1
1
1
1
1
1
1
1
1
1
1
1
1
1
1.00045
1.02291
1.39291
2.91826
5.58609
6.55217
6.5844
6.52579
6.47364
6.42456
1
1
1
1
1
1
1
1
1
1
1
1
1
1
1
1
1
1
1
1
1
1
1
1
1
1
1
1
1
1
1
1
1
1
1
1
1
1
1
1
1
1
1
1
1
1
1
1
1
1
1
1
1
1
1
1
1
1
1
1
1
1
1
1
1
1
1
1
1
1
1
1
1
1
1
1
1
1
1
1
1
1
1
1
1
1
1
1.00008
1.00654
1.13254
2.12998
4.4626
6.15789
6.54527
6.56093
6.48788
1
1
1
1
1
1
1
1
1
1
1
1
1
1
1
1
1
1
1
1
1
1
1
1
1
1
1
1
1
1
1
1
1
1
1
1
1
1
1
1
1
1
1
1
1
1
1
1
1
1
1
1
1
1
1
1
1
1
1
1
1
1
1
1
1
1
1
1
1
1
1
1
1
1
1
1
1
1
1
1
1
1
1
1
1
1
1
1
1.00001
1.00114
1.04343
1.52841
3.27796
5.41269
6.36375
6.52921
1
1
1
1
1
1
1
1
1
1
1
1
1
1
1
1
1
1
1
1
1
1
1
1
1
1
1
1
1
1
1
1
1
1
1
1
1
1
1
1
1
1
1
1
1
1
1
1
1
1
1
1
1
1
1
1
1
1
1
1
1
1
1
1
1
1
1
1
1
1
1
1
1
1
1
1
1
1
1
1
1
1
1
1
1
1
1
1
1
1
1.00021
1.01081
1.19416
2.21885
4.40511
6.12616
1
1
1
1
1
1
1
1
1
1
1
1
1
1
1
1
1
1
1
1
1
1
1
1
1
1
1
1
1
1
1
1
1
1
1
1
1
1
1
1
1
1
1
1
1
1
1
1
1
1
1
1
1
1
1
1
1
1
1
1
1
1
1
1
1
1
1
1
1
1
1
1
1
1
1
1
1
1
1
1
1
1
1
1
1
1
1
1
1
1
1
1.00003
1.00204
1.05413
1.55294
3.37468
1
1
1
1
1
1
1
1
1
1
1
1
1
1
1
1
1
1
1
1
1
1
1
1
1
1
1
1
1
1
1
1
1
1
1
1
1
1
1
1
1
1
1
1
1
1
1
1
1
1
1
1
1
1
1
1
1
1
1
1
1
1
1
1
1
1
1
1
1
1
1
1
1
1
1
1
1
1
1
1
1
1
1
1
1
1
1
1
1
1
1
1
1
1.00029
1.01284
1.21827
1
1
1
1
1
1
1
1
1
1
1
1
1
1
1
1
1
1
1
1
1
1
1
1
1
1
1
1
1
1
1
1
1
1
1
1
1
1
1
1
1
1
1
1
1
1
1
1
1
1
1
1
1
1
1
1
1
1
1
1
1
1
1
1
1
1
1
1
1
1
1
1
1
1
1
1
1
1
1
1
1
1
1
1
1
1
1
1
1
1
1
1
1
1
1.00004
1.0023
1
1
1
1
1
1
1
1
1
1
1
1
1
1
1
1
1
1
1
1
1
1
1
1
1
1
1
1
1
1
1
1
1
1
1
1
1
1
1
1
1
1
1
1
1
1
1
1
1
1
1
1
1
1
1
1
1
1
1
1
1
1
1
1
1
1
1
1
1
1
1
1
1
1
1
1
1
1
1
1
1
1
1
1
1
1
1
1
1
1
1
1
1
1
1
1
1
1
1
1
1
1
1
1
1
1
1
1
1
1
1
1
1
1
1
1
1
1
1
1
1
1
1
1
1
1
1
1
1
1
1
1
1
1
1
1
1
1
1
1
1
1
1
1
1
1
1
1
1
1
1
1
1
1
1
1
1
1
1
1
1
1
1
1
1
1
1
1
1
1
1
1
1
1
1
1
1
1
1
1
1
1
1
1
1
1
1
1
1
1
1
1
1
1
1
1
1
1
1
1
1
1
1
1
1
1
1
1
1
1
1
1
1
1
1
1
1
1
1
1
1
1
1
1
1
1
1
1
1
1
1
1
1
1
1
1
1
1
1
1
1
1
1
1
1
1
1
1
1
1
1
1
1
1
1
1
1
1
1
1
1
1
1
1
1
1
1
1
1
1
1
1
1
1
1
1
1
1
1
1
1
1
1
1
1
1
1
1
1
1
1
1
1
1
1
1
1
1
1
1
1
1
1
1
1
1
1
1
1
1
1
1
1
1
1
1
1
1
1
1
1
1
1
1
1
1
1
1
1
1
1
1
1
1
1
1
1
1
1
1
1
1
1
1
1
1
1
1
1
1
1
1
1
1
1
1
1
1
1
1
1
1
1
1
1
1
1
1
1
1
1
1
1
1
1
1
1
1
1
1
1
1
1
1
1
1
1
1
1
1
1
1
1
1
1
1
1
1
1
1
1
1
1
1
1
1
1
1
1
1
1
1
1
1
1
1
1
1
1
1
1
1
1
1
1
1
1
1
1
1
1
1
1
1
1
1
1
1
1
1
1
1
1
1
1
1
1
1
1
1
1
1
1
1
1
1
1
1
1
1
1
1
1
1
1
1
1
1
1
1
1
1
1
1
1
1
1
1
1
1
1
1
1
1
1
1
1
1
1
1
1
1
1
1
1
1
1
1
1
1
1
1
1
1
1
1
1
1
1
1
1
1
1
1
1
1
1
1
1
1
1
1
1
1
1
1
1
1
1
1
1
1
1
1
1
1
1
1
1
1
1
1
1
1
1
1
1
1
1
1
1
1
1
1
1
1
1
1
1
1
1
1
1
1
1
1
1
1
1
1
1
1
1
1
1
1
1
1
1
1
1
1
1
1
1
1
1
1
1
1
1
1
1
1
1
1
1
1
1
1
1
1
1
1
1
1
1
1
1
1
1
1
1
1
1
1
1
1
1
1
1
1
1
1
1
1
1
1
1
1
1
1
1
1
1
1
1
1
1
1
1
1
1
1
1
1
1
1
1
1
1
1
1
1
1
1
1
1
1
1
1
1
1
1
1
1
1
1
1
1
1
1
1
1
1
1
1
1
1
1
1
1
1
1
1
1
1
1
1
1
1
1
1
1
1
1
1
1
1
1
1
1
1
1
1
1
1
1
1
1
1
1
1
1
1
1
1
1
1
1
1
1
1
1
1
1
1
1
1
1
1
1
1
1
1
1
1
1
1
1
1
1
1
1
1
1
1
1
1
1
1
1
1
1
1
1
1
1
1
1
1
1
1
1
1
1
1
1
1
1
1
1
1
1
1
1
1
1
1
1
1
1
1
1
1
1
1
1
1
1
1
1
1
1
1
1
1
1
1
1
1
1
1
1
1
1
1
1
1
1
1
1
1
1
1
1
1
1
1
1
1
1
1
1
1
1
1
1
1
1
1
1
1
1
1
1
1
1
1
1
1
1
1
1
1
1
1
1
1
1
1
1
1
1
1
1
1
1
1
1
1
1
1
1
1
1
1
1
1
1
1
1
1
1
1
1
1
1
1
1
1
1
1
1
1
1
1
1
1
1
1
1
1
1
1
1
1
1
1
1
1
1
1
1
1
1
1
1
1
1
1
1
1
1
1
1
1
1
1
1
1
1
1
1
1
1
1
1
1
1
1
1
1
1
1
1
1
1
1
1
1
1
1
1
1
1
1
1
1
1
1
1
1
1
1
1
1
1
1
1
1
1
1
1
1
1
1
1
1
1
1
1
1
1
1
1
1
1
1
1
1
1
1
1
1
1
1
1
1
1
1
1
1
1
1
1
1
1
1
1
1
1
1
1
1
1
1
1
1
1
1
1
1
1
1
1
1
1
1
1
1
1
1
1
1
1
1
1
1
1
1
1
1
1
1
1
1
1
1
1
1
1
1
1
1
1
1
1
1
1
1
1
1
1
1
1
1
1
1
1
1
1
1
1
1
1
1
1
1
1
1
1
1
1
1
1
1
1
1
1
1
1
1
1
1
1
1
1
1
1
1
1
1
1
1
1
1
1
1
1
1
1
1
1
1
1
1
1
1
1
1
1
1
1
1
1
1
1
1
1
1
1
1
1
1
1
1
1
1
1
1
1
1
1
1
1
1
1
1
1
1
1
1
1
1
1
1
1
1
1
1
1
1
1
1
1
1
1
1
1
1
1
1
1
1
1
1
1
1
1
1
1
1
1
1
1
1
1
1
1
1
1
1
1
1
1
1
1
1
1
1
1
1
1
1
1
1
1
1
1
1
1
1
1
1
1
1
1
1
1
1
1
1
1
1
1
1
1
1
1
1
1
1
1
1
1
1
1
1
1
1
1
1
1
1
1
1
1
1
1
1
1
1
1
1
1
1
1
1
1
1
1
1
1
1
1
1
1
1
1
1
1
1
1
1
1
1
1
1
1
1
1
1
1
1
1
1
1
1
1
1
1
1
1
1
1
1
1
1
1
1
1
1
1
1
1
1
1
1
1
1
1
1
1
1
1
1
1
1
1
1
1
1
1
1
1
1
1
1
1
1
1
1
1
1
1
1
1
1
1
1
1
1
1
1
1
1
1
1
1
1
1
1
1
1
1
1
1
1
1
1
1
1
1
1
1
1
1
1
1
1
1
1
1
1
1
1
1
1
1
1
1
1
1
1
1
1
1
1
1
1
1
1
1
1
1
1
1
1
1
1
1
1
1
1
1
1
1
1
1
1
1
1
1
1
1
1
1
1
1
1
1
1
1
1
1
1
1
1
1
1
1
1
1
1
1
1
1
1
1
1
1
1
1
1
1
1
1
1
1
1
1
1
1
1
1
1
1
1
1
1
1
1
1
1
1
1
1
1
1
1
1
1
1
1
1
1
1
1
1
1
1
1
1
1
1
1
1
1
1
1
1
1
1
1
1
1
1
1
1
1
1
1
1
1
1
1
1
1
1
1
1
1
1
1
1
1
1
1
1
1
1
1
1
1
1
1
1
1
1
1
1
1
1
1
1
1
1
1
1
1
1
1
1
1
1
1.12759
0.120118
0.0633879
0.0860794
0.072414
0.0676102
0.0852306
0.131418
0.183506
0.240145
0.317561
0.405189
0.482553
0.555049
0.622627
0.705821
0.781336
0.865638
0.919109
0.930444
0.955757
0.971659
0.984998
1.00247
1.00959
1.02997
1.05947
1.08015
1.09841
1.12304
1.1423
1.158
1.1782
1.19232
1.2073
1.2221
1.23133
1.23702
1.24158
1.25439
1.26374
1.26862
1.27262
1.27556
1.27709
1.2798
1.28921
1.30367
1.32013
1.33578
1.34307
1.34318
1.34118
1.33472
1.32646
1.32351
1.3235
1.32795
1.33965
1.34914
1.35151
1.35226
1.35042
1.34761
1.34519
1.80712
5.08711
6.29121
6.39213
6.45642
6.48041
6.48491
6.47609
6.44945
6.41441
6.37399
6.32812
6.27752
6.22579
6.17484
6.12424
6.07306
6.02162
5.97046
5.91995
5.86998
5.81922
5.76743
5.71553
5.66612
5.62072
5.57893
5.53785
5.49428
5.44577
5.39244
5.33609
5.2789
5.22305
5.17028
5.12143
5.07431
5.01933
4.95759
4.89672
4.84038
4.78996
4.7473
4.714
4.68754
4.66021
4.61952
4.57046
4.52054
4.47132
4.42404
4.38131
4.34684
4.32175
4.29712
4.2604
4.21847
4.17555
4.13021
4.08325
4.03762
3.99642
3.96125
3.92989
3.90248
3.87958
3.85476
3.82245
3.78486
3.73828
3.6866
3.64138
3.6069
3.57878
3.55421
3.53661
3.52522
3.51294
3.49519
3.47321
3.44885
3.42056
3.38652
3.34563
3.29739
3.2464
3.20013
3.16108
3.12941
3.10389
3.08307
3.06494
3.04718
3.02659
2.99763
2.95974
2.92199
2.89428
2.87446
2.85704
2.84223
2.83219
2.82216
2.80775
2.79094
2.76897
2.73726
2.69631
2.6547
2.62323
2.6013
2.58384
2.56818
2.55561
2.5461
2.53532
2.52237
2.50847
2.49199
2.46903
2.43838
2.40375
2.37156
2.34709
2.32684
2.31619
2.29782
2.02756
0.65027
0.386
0.379136
0.313772
0.207931
0.180803
0.194054
0.212624
0.224601
0.236397
0.258539
0.301572