/*--------------------------------*- C++ -*----------------------------------*\
  =========                 |
  \\      /  F ield         | OpenFOAM: The Open Source CFD Toolbox
   \\    /   O peration     | Website:  https://openfoam.org
    \\  /    A nd           | Version:  7
     \\/     M anipulation  |
\*---------------------------------------------------------------------------*/
FoamFile
{
    version     2.0;
    format      ascii;
    class       volScalarField;
    location    "3.1";
    object      rho;
}
// * * * * * * * * * * * * * * * * * * * * * * * * * * * * * * * * * * * * * //

dimensions      [1 -3 0 0 0 0 0];

internalField   nonuniform List<scalar> 
19968
(
1.40001
1.40001
1.40001
1.40001
1.40001
1.40001
1.40001
1.40001
1.40001
1.40001
1.40001
1.40001
1.40001
1.40001
1.40001
1.40001
1.40001
1.40001
1.40001
1.40001
1.40001
1.40001
1.40001
1.40001
1.40001
1.40001
1.40001
1.40001
1.40001
1.40001
1.40001
1.40001
1.40001
1.40001
1.40001
1.40001
1.40001
1.40001
1.40001
1.40001
1.40001
1.40001
1.40001
1.40001
1.40001
1.40001
1.40001
1.40001
1.40001
4.01424
5.42626
5.43692
5.45398
5.4732
5.49388
5.51518
5.53642
5.55769
5.57947
5.60204
5.62487
5.64669
5.66577
5.68073
5.69133
5.69951
5.70873
5.7222
5.74086
5.76346
5.7869
5.80804
5.82502
5.83757
5.84719
5.85658
5.86792
5.88101
5.89392
5.90538
5.91488
5.92238
5.92933
5.93726
5.94648
5.95639
5.96616
5.97499
5.98227
5.98775
5.99117
5.99225
5.99117
5.98856
5.98659
5.98524
1.40001
1.40001
1.40001
1.40001
1.40001
1.40001
1.40001
1.40001
1.40001
1.40001
1.40001
1.40001
1.40001
1.40001
1.40001
1.40001
1.40001
1.40001
1.40001
1.40001
1.40001
1.40001
1.40001
1.40001
1.40001
1.40001
1.40001
1.40001
1.40001
1.40001
1.40001
1.40001
1.40001
1.40001
1.40001
1.40001
1.40001
1.40001
1.40001
1.40001
1.40001
1.40001
1.40001
1.40001
1.40001
1.40001
1.40001
1.40001
1.40001
3.97266
5.41595
5.43667
5.45285
5.47203
5.49234
5.51346
5.53469
5.55606
5.57809
5.60091
5.62398
5.64596
5.66513
5.68033
5.69127
5.69975
5.70915
5.72268
5.74113
5.76313
5.78581
5.80635
5.82296
5.83523
5.84481
5.8543
5.86591
5.87927
5.89234
5.90387
5.91337
5.92081
5.92765
5.93544
5.94453
5.95434
5.96402
5.97275
5.97991
5.98527
5.98862
5.98968
5.98864
5.98611
5.98419
5.9829
1.40001
1.40001
1.40001
1.40001
1.40001
1.40001
1.40001
1.40001
1.40001
1.40001
1.40001
1.40001
1.40001
1.40001
1.40001
1.40001
1.40001
1.40001
1.40001
1.40001
1.40001
1.40001
1.40001
1.40001
1.40001
1.40001
1.40001
1.40001
1.40001
1.40001
1.40001
1.40001
1.40001
1.40001
1.40001
1.40001
1.40001
1.40001
1.40001
1.40001
1.40001
1.40001
1.40001
1.40001
1.40001
1.40001
1.40001
1.40001
1.40001
3.88926
5.4086
5.43406
5.44894
5.46803
5.48791
5.50884
5.53022
5.55196
5.57445
5.59779
5.62132
5.64362
5.66303
5.67867
5.69017
5.69905
5.70872
5.72237
5.74054
5.76187
5.78371
5.80352
5.81972
5.83156
5.84096
5.85045
5.86237
5.87616
5.88963
5.90143
5.91103
5.91841
5.92507
5.93262
5.94145
5.95102
5.96048
5.96897
5.97591
5.98107
5.98429
5.9853
5.98427
5.9818
5.9799
5.97867
1.40001
1.40001
1.40001
1.40001
1.40001
1.40001
1.40001
1.40001
1.40001
1.40001
1.40001
1.40001
1.40001
1.40001
1.40001
1.40001
1.40001
1.40001
1.40001
1.40001
1.40001
1.40001
1.40001
1.40001
1.40001
1.40001
1.40001
1.40001
1.40001
1.40001
1.40001
1.40001
1.40001
1.40001
1.40001
1.40001
1.40001
1.40001
1.40001
1.40001
1.40001
1.40001
1.40001
1.40001
1.40001
1.40001
1.40001
1.40001
1.40001
3.75934
5.3966
5.43038
5.4436
5.46281
5.48232
5.503
5.52453
5.54666
5.56965
5.59351
5.6175
5.64017
5.6599
5.67604
5.68813
5.69737
5.70712
5.72059
5.73817
5.75858
5.77948
5.79852
5.81447
5.82605
5.83529
5.84463
5.85668
5.87083
5.88475
5.89695
5.9068
5.91424
5.92077
5.92806
5.93659
5.94587
5.95501
5.96315
5.96974
5.97462
5.97767
5.97861
5.97761
5.97525
5.97339
5.97225
1.40001
1.40001
1.40001
1.40001
1.40001
1.40001
1.40001
1.40001
1.40001
1.40001
1.40001
1.40001
1.40001
1.40001
1.40001
1.40001
1.40001
1.40001
1.40001
1.40001
1.40001
1.40001
1.40001
1.40001
1.40001
1.40001
1.40001
1.40001
1.40001
1.40001
1.40001
1.40001
1.40001
1.40001
1.40001
1.40001
1.40001
1.40001
1.40001
1.40001
1.40001
1.40001
1.40001
1.40001
1.40001
1.40001
1.40001
1.40001
1.40001
3.57304
5.37606
5.42729
5.43846
5.45748
5.47599
5.49602
5.51746
5.53999
5.56343
5.58772
5.61218
5.63533
5.65562
5.67243
5.68533
5.69492
5.70429
5.7169
5.73347
5.75286
5.77304
5.7916
5.80774
5.81947
5.82868
5.83762
5.84934
5.8635
5.8778
5.8905
5.90079
5.90847
5.91492
5.92191
5.93005
5.93891
5.94758
5.95519
5.96127
5.96571
5.96842
5.96915
5.96804
5.9657
5.96379
5.96273
1.40001
1.40001
1.40001
1.40001
1.40001
1.40001
1.40001
1.40001
1.40001
1.40001
1.40001
1.40001
1.40001
1.40001
1.40001
1.40001
1.40001
1.40001
1.40001
1.40001
1.40001
1.40001
1.40001
1.40001
1.40001
1.40001
1.40001
1.40001
1.40001
1.40001
1.40001
1.40001
1.40001
1.40001
1.40001
1.40001
1.40001
1.40001
1.40001
1.40001
1.40001
1.40001
1.40001
1.40001
1.40001
1.40001
1.40001
1.40001
1.40001
3.32242
5.33767
5.42689
5.43642
5.45499
5.47157
5.48984
5.51025
5.53258
5.55613
5.58065
5.60549
5.62918
5.65015
5.6678
5.68172
5.69186
5.70069
5.71191
5.72691
5.74496
5.76452
5.78278
5.7994
5.81167
5.82098
5.82925
5.83999
5.85355
5.8679
5.88102
5.89183
5.89988
5.90632
5.91295
5.92061
5.92897
5.93716
5.94429
5.94994
5.95406
5.95655
5.95722
5.95617
5.95401
5.95214
5.95127
1.40001
1.40001
1.40001
1.40001
1.40001
1.40001
1.40001
1.40001
1.40001
1.40001
1.40001
1.40001
1.40001
1.40001
1.40001
1.40001
1.40001
1.40001
1.40001
1.40001
1.40001
1.40001
1.40001
1.40001
1.40001
1.40001
1.40001
1.40001
1.40001
1.40001
1.40001
1.40001
1.40001
1.40001
1.40001
1.40001
1.40001
1.40001
1.40001
1.40001
1.40001
1.40001
1.40001
1.40001
1.40001
1.40001
1.40001
1.40001
1.40001
3.00227
5.26929
5.42854
5.43786
5.45633
5.47066
5.48671
5.50482
5.52584
5.54873
5.57282
5.59747
5.62134
5.64278
5.66118
5.67615
5.68708
5.69551
5.70521
5.71829
5.7346
5.75348
5.77156
5.78875
5.80188
5.81157
5.81919
5.82857
5.84099
5.85502
5.86848
5.87993
5.88861
5.89524
5.90158
5.90871
5.91653
5.92418
5.93077
5.93589
5.93952
5.94166
5.94216
5.94111
5.9392
5.93741
5.93683
1.40001
1.40001
1.40001
1.40001
1.40001
1.40001
1.40001
1.40001
1.40001
1.40001
1.40001
1.40001
1.40001
1.40001
1.40001
1.40001
1.40001
1.40001
1.40001
1.40001
1.40001
1.40001
1.40001
1.40001
1.40001
1.40001
1.40001
1.40001
1.40001
1.40001
1.40001
1.40001
1.40001
1.40001
1.40001
1.40001
1.40001
1.40001
1.40001
1.40001
1.40001
1.40001
1.40001
1.40001
1.40001
1.40001
1.40001
1.40001
1.40001
2.62893
5.15521
5.43008
5.44066
5.45884
5.47206
5.4867
5.50261
5.52138
5.54259
5.5652
5.58856
5.6117
5.63297
5.65167
5.66743
5.67945
5.68806
5.69637
5.7073
5.72137
5.73893
5.75666
5.77397
5.78787
5.79803
5.8052
5.8131
5.82403
5.83738
5.85095
5.86291
5.87218
5.87905
5.88512
5.89169
5.8989
5.906
5.91208
5.91671
5.91994
5.92188
5.92246
5.92175
5.92034
5.91897
5.91891
1.40001
1.40001
1.40001
1.40001
1.40001
1.40001
1.40001
1.40001
1.40001
1.40001
1.40001
1.40001
1.40001
1.40001
1.40001
1.40001
1.40001
1.40001
1.40001
1.40001
1.40001
1.40001
1.40001
1.40001
1.40001
1.40001
1.40001
1.40001
1.40001
1.40001
1.40001
1.40001
1.40001
1.40001
1.40001
1.40001
1.40001
1.40001
1.40001
1.40001
1.40001
1.40001
1.40001
1.40001
1.40001
1.40001
1.40001
1.40001
1.40001
2.20797
4.95591
5.43118
5.44288
5.46119
5.47577
5.48978
5.50361
5.5196
5.53839
5.55901
5.58061
5.60241
5.62291
5.64127
5.65742
5.67061
5.68035
5.68832
5.6977
5.70959
5.72503
5.74192
5.75855
5.7727
5.78319
5.79029
5.79704
5.80637
5.81848
5.8314
5.84306
5.85224
5.85891
5.8644
5.87013
5.87647
5.88282
5.88826
5.8923
5.8951
5.89687
5.89758
5.89738
5.89666
5.89583
5.89625
1.40001
1.40001
1.40001
1.40001
1.40001
1.40001
1.40001
1.40001
1.40001
1.40001
1.40001
1.40001
1.40001
1.40001
1.40001
1.40001
1.40001
1.40001
1.40001
1.40001
1.40001
1.40001
1.40001
1.40001
1.40001
1.40001
1.40001
1.40001
1.40001
1.40001
1.40001
1.40001
1.40001
1.40001
1.40001
1.40001
1.40001
1.40001
1.40001
1.40001
1.40001
1.40001
1.40001
1.40001
1.40001
1.40001
1.40001
1.40001
1.40001
1.79443
4.64396
5.43465
5.43144
5.44947
5.4654
5.48147
5.49669
5.51265
5.53033
5.54927
5.56896
5.58914
5.60887
5.62701
5.64343
5.65775
5.66927
5.67821
5.68714
5.6976
5.71039
5.72561
5.74078
5.75468
5.76534
5.77288
5.77917
5.78715
5.79767
5.80938
5.8202
5.8289
5.83523
5.84017
5.84496
5.85013
5.85523
5.85947
5.86238
5.86421
5.86534
5.86579
5.86577
5.86545
5.865
5.86572
1.40001
1.40001
1.40001
1.40001
1.40001
1.40001
1.40001
1.40001
1.40001
1.40001
1.40001
1.40001
1.40001
1.40001
1.40001
1.40001
1.40001
1.40001
1.40001
1.40001
1.40001
1.40001
1.40001
1.40001
1.40001
1.40001
1.40001
1.40001
1.40001
1.40001
1.40001
1.40001
1.40001
1.40001
1.40001
1.40001
1.40001
1.40001
1.40001
1.40001
1.40001
1.40001
1.40001
1.40001
1.40001
1.40001
1.40001
1.40001
1.40001
1.41987
4.11245
5.4084
5.42649
5.44502
5.4617
5.47746
5.49333
5.50888
5.52486
5.54131
5.55806
5.57524
5.59263
5.60918
5.62468
5.63911
5.65187
5.66214
5.671
5.68039
5.69065
5.70335
5.71641
5.72921
5.73988
5.74818
5.75475
5.76176
5.77049
5.78038
5.78975
5.7974
5.80304
5.80717
5.81077
5.81442
5.81801
5.82102
5.82312
5.82455
5.82563
5.82627
5.82662
5.82671
5.82665
5.82766
1.40001
1.40001
1.40001
1.40001
1.40001
1.40001
1.40001
1.40001
1.40001
1.40001
1.40001
1.40001
1.40001
1.40001
1.40001
1.40001
1.40001
1.40001
1.40001
1.40001
1.40001
1.40001
1.40001
1.40001
1.40001
1.40001
1.40001
1.40001
1.40001
1.40001
1.40001
1.40001
1.40001
1.40001
1.40001
1.40001
1.40001
1.40001
1.40001
1.40001
1.40001
1.40001
1.40001
1.40001
1.40001
1.40001
1.40001
1.40001
1.40001
1.40005
3.34945
5.2776
5.37186
5.3981
5.42394
5.44564
5.46583
5.48348
5.49976
5.51517
5.53014
5.54511
5.56041
5.57571
5.59057
5.6049
5.61845
5.63061
5.64103
5.65094
5.66083
5.67143
5.68262
5.69389
5.70433
5.71327
5.7205
5.72705
5.73408
5.7419
5.74965
5.75632
5.76157
5.76554
5.76875
5.77167
5.7743
5.77622
5.77704
5.77705
5.77634
5.77484
5.77311
5.77153
5.77049
5.77091
1.40001
1.40001
1.40001
1.40001
1.40001
1.40001
1.40001
1.40001
1.40001
1.40001
1.40001
1.40001
1.40001
1.40001
1.40001
1.40001
1.40001
1.40001
1.40001
1.40001
1.40001
1.40001
1.40001
1.40001
1.40001
1.40001
1.40001
1.40001
1.40001
1.40001
1.40001
1.40001
1.40001
1.40001
1.40001
1.40001
1.40001
1.40001
1.40001
1.40001
1.40001
1.40001
1.40001
1.40001
1.40001
1.40001
1.40001
1.40001
1.40001
1.4
2.43698
5.02494
5.3688
5.3881
5.41238
5.43168
5.45032
5.46758
5.48386
5.49899
5.513
5.52623
5.53922
5.55227
5.56532
5.57822
5.59093
5.60332
5.61471
5.62495
5.63449
5.64295
5.65147
5.65989
5.66846
5.67644
5.68316
5.68855
5.69322
5.69792
5.70272
5.70705
5.71025
5.71226
5.71308
5.71314
5.71275
5.7117
5.70993
5.70786
5.70568
5.70361
5.70139
5.69969
5.69857
5.69877
1.40001
1.40001
1.40001
1.40001
1.40001
1.40001
1.40001
1.40001
1.40001
1.40001
1.40001
1.40001
1.40001
1.40001
1.40001
1.40001
1.40001
1.40001
1.40001
1.40001
1.40001
1.40001
1.40001
1.40001
1.40001
1.40001
1.40001
1.40001
1.40001
1.40001
1.40001
1.40001
1.40001
1.40001
1.40001
1.40001
1.40001
1.40001
1.40001
1.40001
1.40001
1.40001
1.40001
1.40001
1.40001
1.40001
1.40001
1.40001
1.40001
1.40001
1.5978
4.43367
5.42452
5.41317
5.42167
5.43134
5.44322
5.45644
5.47013
5.48347
5.49576
5.50675
5.51661
5.52587
5.53531
5.54526
5.55571
5.56666
5.57761
5.58737
5.59601
5.60326
5.60939
5.61514
5.62101
5.62686
5.63204
5.63593
5.63843
5.64012
5.64177
5.64334
5.64399
5.64371
5.64232
5.64058
5.63867
5.63637
5.6332
5.62907
5.62323
5.61562
5.60534
5.59433
5.58434
5.57645
1.40001
1.40001
1.40001
1.40001
1.40001
1.40001
1.40001
1.40001
1.40001
1.40001
1.40001
1.40001
1.40001
1.40001
1.40001
1.40001
1.40001
1.40001
1.40001
1.40001
1.40001
1.40001
1.40001
1.40001
1.40001
1.40001
1.40001
1.40001
1.40001
1.40001
1.40001
1.40001
1.40001
1.40001
1.40001
1.40001
1.40001
1.40001
1.40001
1.40001
1.40001
1.40001
1.40001
1.40001
1.40001
1.40001
1.40001
1.40001
1.40001
1.40001
1.40187
3.27401
5.27398
5.36338
5.3771
5.38992
5.4044
5.42021
5.43611
5.45102
5.46402
5.47473
5.48337
5.4906
5.49744
5.5048
5.51296
5.52181
5.53111
5.54006
5.54779
5.55411
5.55859
5.5619
5.56476
5.56739
5.56968
5.57111
5.57133
5.57019
5.56856
5.56628
5.56225
5.5572
5.55102
5.54376
5.53502
5.52445
5.51105
5.49433
5.47446
5.4524
5.43235
5.41498
5.40652
5.40227
1.40001
1.40001
1.40001
1.40001
1.40001
1.40001
1.40001
1.40001
1.40001
1.40001
1.40001
1.40001
1.40001
1.40001
1.40001
1.40001
1.40001
1.40001
1.40001
1.40001
1.40001
1.40001
1.40001
1.40001
1.40001
1.40001
1.40001
1.40001
1.40001
1.40001
1.40001
1.40001
1.40001
1.40001
1.40001
1.40001
1.40001
1.40001
1.40001
1.40001
1.40001
1.40001
1.40001
1.40001
1.40001
1.40001
1.40001
1.40001
1.40001
1.40001
1.40001
1.93491
4.75116
5.36905
5.36349
5.37534
5.38889
5.40334
5.41772
5.43128
5.44315
5.4526
5.45954
5.46437
5.46798
5.47161
5.47607
5.48134
5.48709
5.49297
5.49799
5.50172
5.50375
5.50417
5.50369
5.50207
5.49974
5.49722
5.49403
5.48921
5.48303
5.47503
5.46462
5.45256
5.43898
5.42375
5.40622
5.38607
5.36271
5.33625
5.30727
5.27652
5.23671
5.19144
5.13314
5.15207
1.40001
1.40001
1.40001
1.40001
1.40001
1.40001
1.40001
1.40001
1.40001
1.40001
1.40001
1.40001
1.40001
1.40001
1.40001
1.40001
1.40001
1.40001
1.40001
1.40001
1.40001
1.40001
1.40001
1.40001
1.40001
1.40001
1.40001
1.40001
1.40001
1.40001
1.40001
1.40001
1.40001
1.40001
1.40001
1.40001
1.40001
1.40001
1.40001
1.40001
1.40001
1.40001
1.40001
1.40001
1.40001
1.40001
1.40001
1.40001
1.40001
1.40001
1.40001
1.41574
3.5644
5.26915
5.33403
5.35373
5.37018
5.38434
5.39778
5.41029
5.42125
5.42981
5.43554
5.43877
5.44012
5.44073
5.44183
5.4437
5.44595
5.44834
5.45027
5.45104
5.4503
5.448
5.44406
5.43829
5.43153
5.42484
5.4175
5.40852
5.39743
5.38359
5.36676
5.34722
5.32496
5.29968
5.26992
5.2343
5.18985
5.13425
5.06005
4.96121
4.81086
4.58138
4.17357
3.28277
1.40001
1.40001
1.40001
1.40001
1.40001
1.40001
1.40001
1.40001
1.40001
1.40001
1.40001
1.40001
1.40001
1.40001
1.40001
1.40001
1.40001
1.40001
1.40001
1.40001
1.40001
1.40001
1.40001
1.40001
1.40001
1.40001
1.40001
1.40001
1.40001
1.40001
1.40001
1.40001
1.40001
1.40001
1.40001
1.40001
1.40001
1.40001
1.40001
1.40001
1.40001
1.40001
1.40001
1.40001
1.40001
1.40001
1.40001
1.40001
1.40001
1.40001
1.40001
1.39993
2.32796
4.93169
5.31292
5.32333
5.35055
5.36692
5.38089
5.39273
5.40288
5.4108
5.41594
5.41861
5.41941
5.41894
5.41825
5.41765
5.41684
5.41579
5.41434
5.41194
5.40803
5.40257
5.39542
5.38629
5.37563
5.36472
5.35306
5.33969
5.32362
5.30422
5.28107
5.25431
5.22328
5.18786
5.14522
5.09417
5.02845
4.9469
4.83611
4.69315
4.48529
4.21552
3.67557
2.91811
1.40001
1.40001
1.40001
1.40001
1.40001
1.40001
1.40001
1.40001
1.40001
1.40001
1.40001
1.40001
1.40001
1.40001
1.40001
1.40001
1.40001
1.40001
1.40001
1.40001
1.40001
1.40001
1.40001
1.40001
1.40001
1.40001
1.40001
1.40001
1.40001
1.40001
1.40001
1.40001
1.40001
1.40001
1.40001
1.40001
1.40001
1.40001
1.40001
1.40001
1.40001
1.40001
1.40001
1.40001
1.40001
1.40001
1.40001
1.40001
1.40001
1.40001
1.40001
1.39999
1.47207
4.104
5.33588
5.33423
5.33851
5.34875
5.3586
5.36769
5.37587
5.38265
5.38744
5.39018
5.3914
5.391
5.38936
5.38688
5.38379
5.38021
5.37597
5.37072
5.3638
5.35469
5.34418
5.33191
5.31729
5.30177
5.28524
5.26705
5.24584
5.22091
5.19119
5.15716
5.11723
5.07184
5.01706
4.95202
4.86978
4.76794
4.63725
4.46792
4.25044
3.92656
3.48526
2.95704
1.40001
1.40001
1.40001
1.40001
1.40001
1.40001
1.40001
1.40001
1.40001
1.40001
1.40001
1.40001
1.40001
1.40001
1.40001
1.40001
1.40001
1.40001
1.40001
1.40001
1.40001
1.40001
1.40001
1.40001
1.40001
1.40001
1.40001
1.40001
1.40001
1.40001
1.40001
1.40001
1.40001
1.40001
1.40001
1.40001
1.40001
1.40001
1.40001
1.40001
1.40001
1.40001
1.40001
1.40001
1.40001
1.40001
1.40001
1.40001
1.40001
1.40001
1.40001
1.4
1.40015
2.73693
5.03042
5.28678
5.29746
5.31404
5.32557
5.33496
5.34288
5.34957
5.35452
5.35747
5.35874
5.35872
5.35712
5.35416
5.35021
5.34512
5.33871
5.33087
5.32139
5.30918
5.29558
5.28035
5.2618
5.24157
5.21983
5.19658
5.17015
5.13986
5.10379
5.06261
5.01459
4.9601
4.89589
4.81991
4.72735
4.61364
4.47444
4.29725
4.07913
3.78999
3.45563
3.06839
1.40001
1.40001
1.40001
1.40001
1.40001
1.40001
1.40001
1.40001
1.40001
1.40001
1.40001
1.40001
1.40001
1.40001
1.40001
1.40001
1.40001
1.40001
1.40001
1.40001
1.40001
1.40001
1.40001
1.40001
1.40001
1.40001
1.40001
1.40001
1.40001
1.40001
1.40001
1.40001
1.40001
1.40001
1.40001
1.40001
1.40001
1.40001
1.40001
1.40001
1.40001
1.40001
1.40001
1.40001
1.40001
1.40001
1.40001
1.40001
1.40001
1.40001
1.40001
1.40001
1.4
1.53314
4.34115
5.33787
5.31375
5.30966
5.31122
5.31391
5.31671
5.31995
5.32267
5.32432
5.32478
5.32426
5.3222
5.31855
5.31366
5.30718
5.29919
5.28962
5.27871
5.26448
5.24804
5.22952
5.20735
5.18281
5.15592
5.12744
5.09585
5.06055
5.01917
4.97183
4.91723
4.85548
4.78473
4.70233
4.605
4.48787
4.34892
4.17751
3.97682
3.73725
3.47504
3.17496
1.40001
1.40001
1.40001
1.40001
1.40001
1.40001
1.40001
1.40001
1.40001
1.40001
1.40001
1.40001
1.40001
1.40001
1.40001
1.40001
1.40001
1.40001
1.40001
1.40001
1.40001
1.40001
1.40001
1.40001
1.40001
1.40001
1.40001
1.40001
1.40001
1.40001
1.40001
1.40001
1.40001
1.40001
1.40001
1.40001
1.40001
1.40001
1.40001
1.40001
1.40001
1.40001
1.40001
1.40001
1.40001
1.40001
1.40001
1.40001
1.40001
1.40001
1.40001
1.40001
1.4
1.4008
2.88597
5.03345
5.26164
5.27312
5.2825
5.28737
5.28898
5.28995
5.29065
5.2907
5.28973
5.2876
5.28409
5.27947
5.27349
5.2659
5.25664
5.24568
5.23309
5.21751
5.19931
5.1786
5.15423
5.12676
5.09577
5.06251
5.02617
4.98626
4.94062
4.88849
4.82883
4.76176
4.68655
4.60103
4.50303
4.38781
4.2549
4.0983
3.92046
3.72148
3.50523
3.26604
1.40001
1.40001
1.40001
1.40001
1.40001
1.40001
1.40001
1.40001
1.40001
1.40001
1.40001
1.40001
1.40001
1.40001
1.40001
1.40001
1.40001
1.40001
1.40001
1.40001
1.40001
1.40001
1.40001
1.40001
1.40001
1.40001
1.40001
1.40001
1.40001
1.40001
1.40001
1.40001
1.40001
1.40001
1.40001
1.40001
1.40001
1.40001
1.40001
1.40001
1.40001
1.40001
1.40001
1.40001
1.40001
1.40001
1.40001
1.40001
1.40001
1.40001
1.40001
1.40001
1.40001
1.4
1.5549
4.2788
5.31023
5.29173
5.2823
5.27774
5.27455
5.27159
5.26836
5.26427
5.2596
5.25423
5.24821
5.24164
5.23397
5.22439
5.21316
5.20059
5.18664
5.17034
5.15121
5.12931
5.10348
5.07418
5.04057
5.00371
4.96333
4.91917
4.86981
4.81409
4.75115
4.68088
4.60316
4.51655
4.42041
4.30954
4.18517
4.04592
3.88939
3.72019
3.53704
3.33807
1.40001
1.40001
1.40001
1.40001
1.40001
1.40001
1.40001
1.40001
1.40001
1.40001
1.40001
1.40001
1.40001
1.40001
1.40001
1.40001
1.40001
1.40001
1.40001
1.40001
1.40001
1.40001
1.40001
1.40001
1.40001
1.40001
1.40001
1.40001
1.40001
1.40001
1.40001
1.40001
1.40001
1.40001
1.40001
1.40001
1.40001
1.40001
1.40001
1.40001
1.40001
1.40001
1.40001
1.40001
1.40001
1.40001
1.40001
1.40001
1.40001
1.40001
1.40001
1.40001
1.40001
1.4
1.40114
2.71173
4.9971
5.24149
5.2465
5.24792
5.24762
5.24531
5.24134
5.23565
5.22883
5.22082
5.21204
5.20284
5.19352
5.18247
5.16912
5.15435
5.13773
5.11924
5.09858
5.07576
5.04945
5.01988
4.98576
4.94759
4.90515
4.85834
4.80646
4.74855
4.6841
4.61263
4.53441
4.44791
4.35504
4.2486
4.1331
4.00947
3.87002
3.72431
3.56566
3.39777
1.40001
1.40001
1.40001
1.40001
1.40001
1.40001
1.40001
1.40001
1.40001
1.40001
1.40001
1.40001
1.40001
1.40001
1.40001
1.40001
1.40001
1.40001
1.40001
1.40001
1.40001
1.40001
1.40001
1.40001
1.40001
1.40001
1.40001
1.40001
1.40001
1.40001
1.40001
1.40001
1.40001
1.40001
1.40001
1.40001
1.40001
1.40001
1.40001
1.40001
1.40001
1.40001
1.40001
1.40001
1.40001
1.40001
1.40001
1.40001
1.40001
1.40001
1.40001
1.40001
1.40001
1.40001
1.4
1.51682
3.94004
5.23468
5.22838
5.22811
5.22656
5.22461
5.22166
5.21641
5.20876
5.19875
5.18681
5.17421
5.16185
5.14878
5.13277
5.11503
5.09474
5.07346
5.0506
5.0262
4.99898
4.96871
4.93425
4.89604
4.85333
4.80573
4.75262
4.69348
4.62843
4.55689
4.48002
4.39432
4.30569
4.20402
4.09677
3.98503
3.85855
3.73109
3.58945
3.44628
1.40001
1.40001
1.40001
1.40001
1.40001
1.40001
1.40001
1.40001
1.40001
1.40001
1.40001
1.40001
1.40001
1.40001
1.40001
1.40001
1.40001
1.40001
1.40001
1.40001
1.40001
1.40001
1.40001
1.40001
1.40001
1.40001
1.40001
1.40001
1.40001
1.40001
1.40001
1.40001
1.40001
1.40001
1.40001
1.40001
1.40001
1.40001
1.40001
1.40001
1.40001
1.40001
1.40001
1.40001
1.40001
1.40001
1.40001
1.40001
1.40001
1.40001
1.40001
1.40001
1.40001
1.40001
1.4
1.40062
2.16337
4.80825
5.22015
5.19543
5.19719
5.19601
5.19372
5.19064
5.18458
5.17508
5.16156
5.14619
5.13112
5.11592
5.09802
5.07801
5.05496
5.03114
5.00586
4.97859
4.94893
4.91683
4.8816
4.84374
4.80202
4.75553
4.70301
4.6444
4.58034
4.51003
4.43594
4.3518
4.26779
4.17194
4.07279
3.96962
3.85508
3.74107
3.61288
3.48789
1.40001
1.40001
1.40001
1.40001
1.40001
1.40001
1.40001
1.40001
1.40001
1.40001
1.40001
1.40001
1.40001
1.40001
1.40001
1.40001
1.40001
1.40001
1.40001
1.40001
1.40001
1.40001
1.40001
1.40001
1.40001
1.40001
1.40001
1.40001
1.40001
1.40001
1.40001
1.40001
1.40001
1.40001
1.40001
1.40001
1.40001
1.40001
1.40001
1.40001
1.40001
1.40001
1.40001
1.40001
1.40001
1.40001
1.40001
1.40001
1.40001
1.40001
1.40001
1.40001
1.40001
1.40001
1.40001
1.40001
1.43601
3.26168
5.09428
5.1758
5.17438
5.17575
5.17407
5.1713
5.16583
5.15637
5.14131
5.12352
5.10615
5.08735
5.06713
5.04563
5.02098
4.99509
4.9673
4.93762
4.90489
4.87004
4.83334
4.79523
4.75453
4.70974
4.65905
4.60215
4.54043
4.47136
4.39956
4.31823
4.23902
4.14924
4.05794
3.9619
3.858
3.75281
3.63668
3.52437
1.40001
1.40001
1.40001
1.40001
1.40001
1.40001
1.40001
1.40001
1.40001
1.40001
1.40001
1.40001
1.40001
1.40001
1.40001
1.40001
1.40001
1.40001
1.40001
1.40001
1.40001
1.40001
1.40001
1.40001
1.40001
1.40001
1.40001
1.40001
1.40001
1.40001
1.40001
1.40001
1.40001
1.40001
1.40001
1.40001
1.40001
1.40001
1.40001
1.40001
1.40001
1.40001
1.40001
1.40001
1.40001
1.40001
1.40001
1.40001
1.40001
1.40001
1.40001
1.40001
1.40001
1.40001
1.40001
1.40001
1.40007
1.62135
4.15964
5.18678
5.17555
5.16726
5.15668
5.1502
5.14292
5.13276
5.11655
5.09837
5.08044
5.05902
5.03702
5.01438
4.98874
4.96211
4.93333
4.90181
4.86724
4.82987
4.79091
4.75136
4.7102
4.66557
4.61647
4.56193
4.5034
4.4364
4.36728
4.29096
4.21609
4.13231
4.049
3.9592
3.86403
3.7654
3.66169
3.55851
1.40001
1.40001
1.40001
1.40001
1.40001
1.40001
1.40001
1.40001
1.40001
1.40001
1.40001
1.40001
1.40001
1.40001
1.40001
1.40001
1.40001
1.40001
1.40001
1.40001
1.40001
1.40001
1.40001
1.40001
1.40001
1.40001
1.40001
1.40001
1.40001
1.40001
1.40001
1.40001
1.40001
1.40001
1.40001
1.40001
1.40001
1.40001
1.40001
1.40001
1.40001
1.40001
1.40001
1.40001
1.40001
1.40001
1.40001
1.40001
1.40001
1.40001
1.40001
1.40001
1.40001
1.40001
1.40001
1.40001
1.40001
1.40253
2.2742
4.84266
5.17203
5.14167
5.13459
5.12674
5.11775
5.10658
5.08923
5.07075
5.0517
5.02942
5.00593
4.98285
4.95756
4.93124
4.90266
4.87
4.83472
4.79688
4.75641
4.71512
4.672
4.62714
4.57847
4.52609
4.46976
4.40692
4.34106
4.27011
4.19896
4.12072
4.0433
3.95836
3.87015
3.77832
3.68516
3.58863
1.40001
1.40001
1.40001
1.40001
1.40001
1.40001
1.40001
1.40001
1.40001
1.40001
1.40001
1.40001
1.40001
1.40001
1.40001
1.40001
1.40001
1.40001
1.40001
1.40001
1.40001
1.40001
1.40001
1.40001
1.40001
1.40001
1.40001
1.40001
1.40001
1.40001
1.40001
1.40001
1.40001
1.40001
1.40001
1.40001
1.40001
1.40001
1.40001
1.40001
1.40001
1.40001
1.40001
1.40001
1.40001
1.40001
1.40001
1.40001
1.40001
1.40001
1.40001
1.40001
1.40001
1.40001
1.40001
1.40001
1.40001
1.40001
1.44516
3.18956
5.05222
5.11892
5.11688
5.11146
5.10035
5.08607
5.06625
5.04651
5.02612
5.00317
4.97901
4.95426
4.92916
4.90258
4.874
4.8411
4.8059
4.76906
4.72727
4.68498
4.64096
4.59399
4.54448
4.49318
4.43911
4.3807
4.31839
4.25278
4.18507
4.11249
4.0386
3.95847
3.87661
3.79226
3.70726
3.61699
1.40001
1.40001
1.40001
1.40001
1.40001
1.40001
1.40001
1.40001
1.40001
1.40001
1.40001
1.40001
1.40001
1.40001
1.40001
1.40001
1.40001
1.40001
1.40001
1.40001
1.40001
1.40001
1.40001
1.40001
1.40001
1.40001
1.40001
1.40001
1.40001
1.40001
1.40001
1.40001
1.40001
1.40001
1.40001
1.40001
1.40001
1.40001
1.40001
1.40001
1.40001
1.40001
1.40001
1.40001
1.40001
1.40001
1.40001
1.40001
1.40001
1.40001
1.40001
1.40001
1.40001
1.40001
1.40001
1.40001
1.40001
1.40001
1.40014
1.59651
3.79132
5.08208
5.11302
5.10114
5.09017
5.07438
5.05214
5.03007
5.00671
4.98177
4.95608
4.92985
4.90346
4.87704
4.84806
4.81506
4.78027
4.7442
4.7027
4.65985
4.61547
4.56786
4.51777
4.46696
4.41455
4.35908
4.30011
4.23894
4.17442
4.10627
4.03483
3.95959
3.8831
3.80553
3.72588
3.64303
1.40001
1.40001
1.40001
1.40001
1.40001
1.40001
1.40001
1.40001
1.40001
1.40001
1.40001
1.40001
1.40001
1.40001
1.40001
1.40001
1.40001
1.40001
1.40001
1.40001
1.40001
1.40001
1.40001
1.40001
1.40001
1.40001
1.40001
1.40001
1.40001
1.40001
1.40001
1.40001
1.40001
1.40001
1.40001
1.40001
1.40001
1.40001
1.40001
1.40001
1.40001
1.40001
1.40001
1.40001
1.40001
1.40001
1.40001
1.40001
1.40001
1.40001
1.40001
1.40001
1.40001
1.40001
1.40001
1.40001
1.40001
1.40001
1.40001
1.40204
1.79947
4.39867
5.14715
5.11736
5.09366
5.06206
5.03455
5.00819
4.9833
4.95805
4.93249
4.90639
4.8792
4.85223
4.82331
4.78971
4.75539
4.71946
4.67902
4.63663
4.59259
4.54623
4.4973
4.4472
4.3959
4.34217
4.28599
4.22784
4.16597
4.10091
4.03231
3.9617
3.88965
3.81749
3.74167
3.66696
1.40001
1.40001
1.40001
1.40001
1.40001
1.40001
1.40001
1.40001
1.40001
1.40001
1.40001
1.40001
1.40001
1.40001
1.40001
1.40001
1.40001
1.40001
1.40001
1.40001
1.40001
1.40001
1.40001
1.40001
1.40001
1.40001
1.40001
1.40001
1.40001
1.40001
1.40001
1.40001
1.40001
1.40001
1.40001
1.40001
1.40001
1.40001
1.40001
1.40001
1.40001
1.40001
1.40001
1.40001
1.40001
1.40001
1.40001
1.40001
1.40001
1.40001
1.40001
1.40001
1.40001
1.40001
1.40001
1.40001
1.40001
1.40001
1.40001
1.40001
1.40867
2.38215
4.82442
5.10843
5.06737
5.03915
5.01101
4.98546
4.96138
4.93794
4.91399
4.88866
4.86124
4.83272
4.80361
4.76932
4.73513
4.69831
4.65842
4.61656
4.57293
4.52825
4.48214
4.43343
4.38337
4.33156
4.27787
4.22141
4.1612
4.09778
4.03131
3.96394
3.89581
3.82722
3.75485
3.68779
1.40001
1.40001
1.40001
1.40001
1.40001
1.40001
1.40001
1.40001
1.40001
1.40001
1.40001
1.40001
1.40001
1.40001
1.40001
1.40001
1.40001
1.40001
1.40001
1.40001
1.40001
1.40001
1.40001
1.40001
1.40001
1.40001
1.40001
1.40001
1.40001
1.40001
1.40001
1.40001
1.40001
1.40001
1.40001
1.40001
1.40001
1.40001
1.40001
1.40001
1.40001
1.40001
1.40001
1.40001
1.40001
1.40001
1.40001
1.40001
1.40001
1.40001
1.40001
1.40001
1.40001
1.40001
1.40001
1.40001
1.40001
1.40001
1.40001
1.40001
1.40002
1.45453
3.02198
4.95539
5.03535
5.00335
4.98699
4.96855
4.9493
4.92801
4.90519
4.87996
4.85159
4.82098
4.78958
4.75483
4.71885
4.68054
4.64036
4.59878
4.55574
4.5124
4.46892
4.42255
4.37387
4.32458
4.27333
4.21828
4.15958
4.09728
4.03248
3.96757
3.90282
3.83642
3.76767
3.70661
1.40001
1.40001
1.40001
1.40001
1.40001
1.40001
1.40001
1.40001
1.40001
1.40001
1.40001
1.40001
1.40001
1.40001
1.40001
1.40001
1.40001
1.40001
1.40001
1.40001
1.40001
1.40001
1.40001
1.40001
1.40001
1.40001
1.40001
1.40001
1.40001
1.40001
1.40001
1.40001
1.40001
1.40001
1.40001
1.40001
1.40001
1.40001
1.40001
1.40001
1.40001
1.40001
1.40001
1.40001
1.40001
1.40001
1.40001
1.40001
1.40001
1.40001
1.40001
1.40001
1.40001
1.40001
1.40001
1.40001
1.40001
1.40001
1.40001
1.40001
1.40001
1.40024
1.55661
3.4033
4.94797
4.97801
4.96457
4.9564
4.94112
4.92254
4.90039
4.87552
4.84708
4.81574
4.78234
4.74651
4.7086
4.66884
4.62788
4.58609
4.54344
4.50069
4.4581
4.41364
4.36675
4.3196
4.27026
4.21688
4.15954
4.09832
4.03585
3.97333
3.91153
3.84673
3.78181
3.72494
1.40001
1.40001
1.40001
1.40001
1.40001
1.40001
1.40001
1.40001
1.40001
1.40001
1.40001
1.40001
1.40001
1.40001
1.40001
1.40001
1.40001
1.40001
1.40001
1.40001
1.40001
1.40001
1.40001
1.40001
1.40001
1.40001
1.40001
1.40001
1.40001
1.40001
1.40001
1.40001
1.40001
1.40001
1.40001
1.40001
1.40001
1.40001
1.40001
1.40001
1.40001
1.40001
1.40001
1.40001
1.40001
1.40001
1.40001
1.40001
1.40001
1.40001
1.40001
1.40001
1.40001
1.40001
1.40001
1.40001
1.40001
1.40001
1.40001
1.40001
1.40001
1.40001
1.40144
1.65811
3.64678
4.94792
4.96171
4.95083
4.93471
4.91468
4.89283
4.86818
4.84047
4.80998
4.77692
4.74118
4.70293
4.66282
4.62158
4.57961
4.53706
4.49428
4.45133
4.40744
4.36197
4.31574
4.26727
4.21523
4.15919
4.09982
4.04028
3.98084
3.92216
3.85922
3.79765
3.74374
1.40001
1.40001
1.40001
1.40001
1.40001
1.40001
1.40001
1.40001
1.40001
1.40001
1.40001
1.40001
1.40001
1.40001
1.40001
1.40001
1.40001
1.40001
1.40001
1.40001
1.40001
1.40001
1.40001
1.40001
1.40001
1.40001
1.40001
1.40001
1.40001
1.40001
1.40001
1.40001
1.40001
1.40001
1.40001
1.40001
1.40001
1.40001
1.40001
1.40001
1.40001
1.40001
1.40001
1.40001
1.40001
1.40001
1.40001
1.40001
1.40001
1.40001
1.40001
1.40001
1.40001
1.40001
1.40001
1.40001
1.40001
1.40001
1.40001
1.40001
1.40001
1.40001
1.40001
1.40371
1.74842
3.84568
4.96307
4.95493
4.93289
4.90894
4.88364
4.85758
4.82958
4.80014
4.76866
4.73456
4.69774
4.659
4.61883
4.57753
4.53532
4.49243
4.44884
4.40461
4.35964
4.31338
4.26501
4.21388
4.15899
4.10191
4.04537
3.98939
3.93408
3.87358
3.81455
3.76312
1.40001
1.40001
1.40001
1.40001
1.40001
1.40001
1.40001
1.40001
1.40001
1.40001
1.40001
1.40001
1.40001
1.40001
1.40001
1.40001
1.40001
1.40001
1.40001
1.40001
1.40001
1.40001
1.40001
1.40001
1.40001
1.40001
1.40001
1.40001
1.40001
1.40001
1.40001
1.40001
1.40001
1.40001
1.40001
1.40001
1.40001
1.40001
1.40001
1.40001
1.40001
1.40001
1.40001
1.40001
1.40001
1.40001
1.40001
1.40001
1.40001
1.40001
1.40001
1.40001
1.40001
1.40001
1.40001
1.40001
1.40001
1.40001
1.40001
1.40001
1.40001
1.40001
1.40001
1.40001
1.40664
1.83289
4.00501
4.96191
4.94436
4.91419
4.8854
4.85411
4.82351
4.79262
4.76091
4.72722
4.69167
4.65474
4.61654
4.57698
4.53593
4.4936
4.45011
4.40579
4.3608
4.31406
4.26515
4.21421
4.16051
4.10597
4.05198
3.99902
3.94705
3.88945
3.83248
3.78302
1.40001
1.40001
1.40001
1.40001
1.40001
1.40001
1.40001
1.40001
1.40001
1.40001
1.40001
1.40001
1.40001
1.40001
1.40001
1.40001
1.40001
1.40001
1.40001
1.40001
1.40001
1.40001
1.40001
1.40001
1.40001
1.40001
1.40001
1.40001
1.40001
1.40001
1.40001
1.40001
1.40001
1.40001
1.40001
1.40001
1.40001
1.40001
1.40001
1.40001