/*--------------------------------*- C++ -*----------------------------------*\
  =========                 |
  \\      /  F ield         | OpenFOAM: The Open Source CFD Toolbox
   \\    /   O peration     | Website:  https://openfoam.org
    \\  /    A nd           | Version:  7
     \\/     M anipulation  |
\*---------------------------------------------------------------------------*/
FoamFile
{
    version     2.0;
    format      ascii;
    class       volScalarField;
    location    "3.1";
    object      T;
}
// * * * * * * * * * * * * * * * * * * * * * * * * * * * * * * * * * * * * * //

dimensions      [0 0 0 1 0 0 0];

internalField   nonuniform List<scalar> 
19968
(
1
1
1
1
1
1
1
1
1
1
1
1
1
1
1
1
1
1
1
1
1
1
1
1
1
1
1
1
1
1
1
1
1
1
1
1
1
1
1
1
1
1
1
1
1
1
1
1
1
2.27618
2.68478
2.6909
2.69694
2.7031
2.70922
2.71488
2.7197
2.72349
2.72628
2.72835
2.73013
2.73207
2.73467
2.73838
2.74326
2.7488
2.75412
2.75828
2.76079
2.76212
2.76307
2.76446
2.76726
2.77204
2.77807
2.78356
2.78694
2.78801
2.78794
2.78799
2.78886
2.79087
2.79348
2.79587
2.79773
2.79929
2.80095
2.8029
2.80496
2.80684
2.80844
2.80978
2.81091
2.81189
2.81267
2.81285
1
1
1
1
1
1
1
1
1
1
1
1
1
1
1
1
1
1
1
1
1
1
1
1
1
1
1
1
1
1
1
1
1
1
1
1
1
1
1
1
1
1
1
1
1
1
1
1
1
2.26427
2.68279
2.69114
2.69692
2.7031
2.70919
2.71484
2.71963
2.72335
2.72608
2.72814
2.72993
2.73189
2.73451
2.73828
2.74325
2.74888
2.75427
2.75846
2.7609
2.7621
2.7629
2.76416
2.76688
2.77161
2.77765
2.78315
2.78655
2.78765
2.78761
2.78768
2.78857
2.79059
2.79316
2.79552
2.79735
2.79889
2.80054
2.80248
2.80453
2.80639
2.80796
2.8093
2.81044
2.81143
2.81222
2.81241
1
1
1
1
1
1
1
1
1
1
1
1
1
1
1
1
1
1
1
1
1
1
1
1
1
1
1
1
1
1
1
1
1
1
1
1
1
1
1
1
1
1
1
1
1
1
1
1
1
2.2383
2.68039
2.69104
2.69682
2.70309
2.70921
2.71487
2.71961
2.72321
2.7258
2.72773
2.72944
2.73135
2.73396
2.7378
2.74292
2.74873
2.7543
2.75859
2.76099
2.76206
2.76269
2.76374
2.76629
2.77091
2.77689
2.78238
2.78583
2.787
2.78705
2.7872
2.78813
2.79014
2.79266
2.79494
2.79671
2.79823
2.79987
2.8018
2.80382
2.80563
2.80716
2.80848
2.80962
2.81063
2.81143
2.81163
1
1
1
1
1
1
1
1
1
1
1
1
1
1
1
1
1
1
1
1
1
1
1
1
1
1
1
1
1
1
1
1
1
1
1
1
1
1
1
1
1
1
1
1
1
1
1
1
1
2.19734
2.67628
2.69039
2.69648
2.70318
2.70942
2.71515
2.71991
2.7234
2.72577
2.72746
2.72894
2.73066
2.7331
2.73687
2.74208
2.74812
2.75397
2.75848
2.76094
2.76189
2.76232
2.76309
2.76535
2.76971
2.77557
2.78106
2.78461
2.78593
2.78613
2.78637
2.78734
2.78931
2.79176
2.79397
2.79569
2.7972
2.79884
2.80075
2.80272
2.80447
2.80595
2.80724
2.80838
2.80941
2.81022
2.81045
1
1
1
1
1
1
1
1
1
1
1
1
1
1
1
1
1
1
1
1
1
1
1
1
1
1
1
1
1
1
1
1
1
1
1
1
1
1
1
1
1
1
1
1
1
1
1
1
1
2.138
2.6709
2.68826
2.69493
2.70248
2.7092
2.71522
2.72011
2.72357
2.72578
2.72724
2.72846
2.72989
2.73202
2.7355
2.7406
2.74675
2.7529
2.75781
2.7605
2.76145
2.76177
2.76227
2.76415
2.76811
2.77374
2.77921
2.78294
2.7845
2.78489
2.78522
2.7862
2.7881
2.79045
2.7926
2.7943
2.7958
2.79743
2.7993
2.80119
2.80284
2.80424
2.80547
2.80659
2.80764
2.80845
2.8087
1
1
1
1
1
1
1
1
1
1
1
1
1
1
1
1
1
1
1
1
1
1
1
1
1
1
1
1
1
1
1
1
1
1
1
1
1
1
1
1
1
1
1
1
1
1
1
1
1
2.05547
2.66345
2.68398
2.69122
2.69981
2.7074
2.7142
2.7196
2.72334
2.72558
2.7269
2.7279
2.72902
2.73072
2.73368
2.73836
2.74439
2.75076
2.75618
2.75941
2.76059
2.76094
2.76124
2.7627
2.76611
2.77132
2.7767
2.78065
2.78253
2.78313
2.78355
2.78448
2.78624
2.78846
2.79055
2.79226
2.79379
2.79543
2.79726
2.79909
2.80067
2.80202
2.80322
2.80437
2.80548
2.8063
2.80658
1
1
1
1
1
1
1
1
1
1
1
1
1
1
1
1
1
1
1
1
1
1
1
1
1
1
1
1
1
1
1
1
1
1
1
1
1
1
1
1
1
1
1
1
1
1
1
1
1
1.9415
2.65026
2.67725
2.68507
2.69455
2.70301
2.71084
2.71724
2.72178
2.72442
2.72583
2.72673
2.72762
2.72888
2.7312
2.73519
2.74082
2.74722
2.75316
2.75721
2.75896
2.75957
2.75977
2.76085
2.76361
2.76824
2.77344
2.77762
2.7799
2.78078
2.7813
2.78216
2.78374
2.78582
2.78789
2.78965
2.79123
2.79289
2.79467
2.79641
2.79791
2.7992
2.80038
2.80155
2.80272
2.80355
2.80388
1
1
1
1
1
1
1
1
1
1
1
1
1
1
1
1
1
1
1
1
1
1
1
1
1
1
1
1
1
1
1
1
1
1
1
1
1
1
1
1
1
1
1
1
1
1
1
1
1
1.79193
2.62381
2.67123
2.67895
2.68824
2.6968
2.7051
2.71232
2.71786
2.72139
2.72331
2.72438
2.72522
2.72621
2.72796
2.73119
2.73618
2.74233
2.74854
2.75338
2.75597
2.75705
2.75735
2.75818
2.76031
2.76424
2.76909
2.77339
2.7761
2.77734
2.77799
2.77879
2.78017
2.78207
2.78408
2.7859
2.78757
2.78925
2.79101
2.79269
2.79414
2.7954
2.79662
2.7979
2.79917
2.80009
2.80052
1
1
1
1
1
1
1
1
1
1
1
1
1
1
1
1
1
1
1
1
1
1
1
1
1
1
1
1
1
1
1
1
1
1
1
1
1
1
1
1
1
1
1
1
1
1
1
1
1
1.58564
2.56534
2.67
2.67657
2.68391
2.69106
2.69859
2.70582
2.71209
2.71673
2.71959
2.72124
2.72234
2.72333
2.72473
2.72727
2.73144
2.73703
2.74313
2.74855
2.75208
2.75385
2.75453
2.75527
2.75689
2.76003
2.76434
2.76862
2.77173
2.77335
2.77414
2.77484
2.77593
2.77751
2.77935
2.78113
2.78283
2.78452
2.78624
2.78787
2.78929
2.79055
2.79185
2.79326
2.79465
2.7957
2.79625
1
1
1
1
1
1
1
1
1
1
1
1
1
1
1
1
1
1
1
1
1
1
1
1
1
1
1
1
1
1
1
1
1
1
1
1
1
1
1
1
1
1
1
1
1
1
1
1
1
1.32436
2.46719
2.67694
2.67674
2.6811
2.6863
2.69255
2.69919
2.70551
2.71079
2.71458
2.71706
2.71876
2.7201
2.7215
2.72355
2.72682
2.73148
2.73702
2.74259
2.74699
2.74961
2.75095
2.75174
2.75299
2.75533
2.75896
2.76308
2.76654
2.76866
2.76968
2.77031
2.7711
2.77231
2.77387
2.77554
2.77717
2.77879
2.78039
2.78188
2.78319
2.78442
2.78571
2.78718
2.78867
2.78982
2.79046
1
1
1
1
1
1
1
1
1
1
1
1
1
1
1
1
1
1
1
1
1
1
1
1
1
1
1
1
1
1
1
1
1
1
1
1
1
1
1
1
1
1
1
1
1
1
1
1
1
1.01259
2.30592
2.6839
2.68332
2.68492
2.68787
2.69174
2.69623
2.701
2.70568
2.70976
2.71296
2.71535
2.71713
2.71855
2.7201
2.72234
2.72569
2.73009
2.7351
2.73989
2.74338
2.74554
2.74659
2.74761
2.74927
2.75213
2.7559
2.75961
2.76228
2.76366
2.76428
2.76478
2.76556
2.76672
2.76811
2.76956
2.77103
2.77253
2.77397
2.77531
2.77662
2.778
2.7796
2.78124
2.78252
2.78323
1
1
1
1
1
1
1
1
1
1
1
1
1
1
1
1
1
1
1
1
1
1
1
1
1
1
1
1
1
1
1
1
1
1
1
1
1
1
1
1
1
1
1
1
1
1
1
1
1
1.00003
2.06831
2.66288
2.67178
2.67511
2.67974
2.68423
2.68851
2.6927
2.69701
2.70123
2.70505
2.70824
2.71076
2.71266
2.71422
2.71591
2.71825
2.72155
2.72572
2.73035
2.73449
2.7374
2.73903
2.74008
2.74135
2.74352
2.74674
2.75041
2.75353
2.75542
2.75625
2.75665
2.75715
2.75799
2.75914
2.76046
2.76184
2.76324
2.76459
2.7658
2.76686
2.7679
2.76916
2.77056
2.77167
2.77225
1
1
1
1
1
1
1
1
1
1
1
1
1
1
1
1
1
1
1
1
1
1
1
1
1
1
1
1
1
1
1
1
1
1
1
1
1
1
1
1
1
1
1
1
1
1
1
1
1
1
1.69542
2.57949
2.66089
2.6662
2.67228
2.67738
2.68195
2.68611
2.69022
2.69432
2.69829
2.70197
2.70518
2.70779
2.70981
2.71151
2.71329
2.71562
2.71869
2.72242
2.72631
2.72945
2.73147
2.73256
2.73351
2.73495
2.73728
2.74035
2.74341
2.7456
2.74661
2.74684
2.74689
2.74712
2.74762
2.74828
2.74905
2.74991
2.75084
2.7518
2.75276
2.75383
2.75504
2.75632
2.75717
2.75754
1
1
1
1
1
1
1
1
1
1
1
1
1
1
1
1
1
1
1
1
1
1
1
1
1
1
1
1
1
1
1
1
1
1
1
1
1
1
1
1
1
1
1
1
1
1
1
1
1
1
1.15617
2.37416
2.66096
2.66429
2.66873
2.67215
2.67555
2.67895
2.68238
2.68595
2.68968
2.6935
2.69718
2.70043
2.70306
2.70505
2.70664
2.7083
2.71041
2.71306
2.7162
2.71924
2.72149
2.72274
2.72344
2.72424
2.7256
2.72773
2.73031
2.73256
2.73375
2.73393
2.73372
2.73343
2.73322
2.73334
2.73368
2.73425
2.73496
2.73569
2.73613
2.73625
2.73577
2.73455
2.73264
2.73063
1
1
1
1
1
1
1
1
1
1
1
1
1
1
1
1
1
1
1
1
1
1
1
1
1
1
1
1
1
1
1
1
1
1
1
1
1
1
1
1
1
1
1
1
1
1
1
1
1
1
1.00149
2.03603
2.63967
2.64575
2.64965
2.65435
2.6592
2.66366
2.66766
2.67145
2.67532
2.67943
2.68374
2.68793
2.69159
2.69443
2.69648
2.69809
2.69976
2.7018
2.7043
2.70706
2.70944
2.71088
2.71144
2.71168
2.71215
2.7132
2.71487
2.71663
2.71775
2.71782
2.71721
2.71611
2.71483
2.71358
2.71236
2.71113
2.70969
2.70789
2.70566
2.70306
2.70075
2.69828
2.6966
2.69536
1
1
1
1
1
1
1
1
1
1
1
1
1
1
1
1
1
1
1
1
1
1
1
1
1
1
1
1
1
1
1
1
1
1
1
1
1
1
1
1
1
1
1
1
1
1
1
1
1
1
1
1.38735
2.44779
2.62206
2.63254
2.64058
2.64596
2.65025
2.6539
2.65726
2.66072
2.66456
2.66891
2.67349
2.67779
2.68137
2.68405
2.68597
2.68756
2.68928
2.69131
2.69362
2.69588
2.69749
2.69807
2.6978
2.69737
2.69728
2.69762
2.69822
2.6986
2.69824
2.69702
2.69496
2.69227
2.68922
2.68594
2.68248
2.67878
2.67476
2.67023
2.66543
2.66127
2.66095
2.65932
2.67411
1
1
1
1
1
1
1
1
1
1
1
1
1
1
1
1
1
1
1
1
1
1
1
1
1
1
1
1
1
1
1
1
1
1
1
1
1
1
1
1
1
1
1
1
1
1
1
1
1
1
1
1.01159
2.13584
2.62841
2.62888
2.63105
2.63476
2.63841
2.64169
2.64468
2.64767
2.651
2.65488
2.65923
2.66356
2.66736
2.67038
2.67262
2.67434
2.67599
2.67785
2.67995
2.6821
2.68378
2.68438
2.68392
2.6829
2.68181
2.68094
2.68026
2.67954
2.67835
2.67633
2.67325
2.66908
2.66399
2.658
2.65107
2.64269
2.63228
2.61803
2.59863
2.57014
2.5302
2.46871
2.34424
1
1
1
1
1
1
1
1
1
1
1
1
1
1
1
1
1
1
1
1
1
1
1
1
1
1
1
1
1
1
1
1
1
1
1
1
1
1
1
1
1
1
1
1
1
1
1
1
1
1
1
0.999999
1.60798
2.51286
2.62194
2.62365
2.62874
2.6319
2.63464
2.637
2.6393
2.64181
2.64476
2.64823
2.65198
2.65548
2.6584
2.66066
2.66238
2.66393
2.66561
2.66751
2.66956
2.67134
2.67208
2.67162
2.67037
2.66869
2.66688
2.66505
2.66311
2.6608
2.65771
2.65353
2.64794
2.64095
2.63226
2.62186
2.60864
2.59229
2.5698
2.54022
2.49717
2.44274
2.33238
2.17333
1
1
1
1
1
1
1
1
1
1
1
1
1
1
1
1
1
1
1
1
1
1
1
1
1
1
1
1
1
1
1
1
1
1
1
1
1
1
1
1
1
1
1
1
1
1
1
1
1
1
1
0.999998
1.0443
2.27529
2.62725
2.62519
2.62616
2.62824
2.62974
2.63097
2.63221
2.63365
2.63546
2.63772
2.64043
2.6432
2.64554
2.6474
2.64885
2.65013
2.65149
2.65311
2.65499
2.65675
2.65774
2.65742
2.65618
2.6542
2.65169
2.64887
2.64572
2.64216
2.63779
2.63237
2.62531
2.61656
2.60543
2.59192
2.57477
2.55347
2.52592
2.48954
2.44208
2.36912
2.26535
2.13183
1
1
1
1
1
1
1
1
1
1
1
1
1
1
1
1
1
1
1
1
1
1
1
1
1
1
1
1
1
1
1
1
1
1
1
1
1
1
1
1
1
1
1
1
1
1
1
1
1
1
1
1
1.00012
1.80316
2.54211
2.60608
2.61337
2.61874
2.62135
2.62316
2.62465
2.62601
2.62729
2.62862
2.6302
2.63203
2.63361
2.63487
2.63579
2.63645
2.63712
2.63806
2.63942
2.64091
2.64202
2.64192
2.64087
2.63882
2.6359
2.63237
2.62822
2.62352
2.61786
2.61113
2.60269
2.59238
2.57947
2.5636
2.54392
2.51946
2.4892
2.44995
2.40052
2.33217
2.24805
2.14804
1
1
1
1
1
1
1
1
1
1
1
1
1
1
1
1
1
1
1
1
1
1
1
1
1
1
1
1
1
1
1
1
1
1
1
1
1
1
1
1
1
1
1
1
1
1
1
1
1
1
1
1
1
1.08729
2.31667
2.60778
2.60433
2.60658
2.61021
2.61345
2.61592
2.61783
2.61914
2.6201
2.62104
2.62207
2.62301
2.6236
2.62366
2.62346
2.62316
2.62314
2.62353
2.62426
2.62501
2.62495
2.62403
2.62201
2.61883
2.61481
2.60996
2.6044
2.59776
2.58993
2.58039
2.56889
2.55489
2.53777
2.51692
2.49128
2.46039
2.42151
2.37483
2.31708
2.25148
2.17228
1
1
1
1
1
1
1
1
1
1
1
1
1
1
1
1
1
1
1
1
1
1
1
1
1
1
1
1
1
1
1
1
1
1
1
1
1
1
1
1
1
1
1
1
1
1
1
1
1
1
1
1
1
1.00051
1.85807
2.53448
2.58101
2.58836
2.59451
2.59926
2.60298
2.60595
2.60813
2.60961
2.61059
2.61147
2.61221
2.6125
2.61221
2.61143
2.61019
2.60889
2.60798
2.60755
2.60745
2.60715
2.60614
2.60409
2.60073
2.59634
2.59102
2.5849
2.57768
2.56915
2.5589
2.54666
2.5321
2.51459
2.49368
2.46831
2.43838
2.40231
2.36033
2.31194
2.25768
2.1953
1
1
1
1
1
1
1
1
1
1
1
1
1
1
1
1
1
1
1
1
1
1
1
1
1
1
1
1
1
1
1
1
1
1
1
1
1
1
1
1
1
1
1
1
1
1
1
1
1
1
1
1
1
1
1.10351
2.29366
2.58414
2.58058
2.58196
2.5849
2.58848
2.59199
2.59484
2.59677
2.59815
2.59932
2.60043
2.6011
2.60091
2.60001
2.5983
2.59609
2.59398
2.59231
2.59106
2.58995
2.58837
2.58597
2.58232
2.57755
2.57179
2.56519
2.5576
2.54873
2.53824
2.52584
2.51125
2.49398
2.47382
2.44955
2.42148
2.38924
2.35206
2.3106
2.26463
2.21336
1
1
1
1
1
1
1
1
1
1
1
1
1
1
1
1
1
1
1
1
1
1
1
1
1
1
1
1
1
1
1
1
1
1
1
1
1
1
1
1
1
1
1
1
1
1
1
1
1
1
1
1
1
1
1.00072
1.76505
2.4945
2.55613
2.56426
2.56853
2.57228
2.57558
2.57843
2.58057
2.58228
2.58386
2.58558
2.58711
2.58776
2.58735
2.58592
2.5835
2.58051
2.57764
2.57515
2.57302
2.57066
2.56774
2.56372
2.55858
2.55238
2.54532
2.53741
2.52842
2.51807
2.50599
2.49194
2.47534
2.45648
2.43365
2.40789
2.37942
2.3464
2.31099
2.27123
2.22819
1
1
1
1
1
1
1
1
1
1
1
1
1
1
1
1
1
1
1
1
1
1
1
1
1
1
1
1
1
1
1
1
1
1
1
1
1
1
1
1
1
1
1
1
1
1
1
1
1
1
1
1
1
1
1
1.07486
2.19936
2.55624
2.55572
2.55696
2.55916
2.56164
2.56381
2.56536
2.56667
2.56809
2.56988
2.57202
2.57367
2.57387
2.57309
2.57107
2.56783
2.56436
2.56106
2.55804
2.55488
2.55124
2.54661
2.54097
2.53426
2.52665
2.51823
2.50895
2.49869
2.48703
2.47389
2.45818
2.44099
2.41994
2.39664
2.37142
2.34189
2.31123
2.27614
2.23984
1
1
1
1
1
1
1
1
1
1
1
1
1
1
1
1
1
1
1
1
1
1
1
1
1
1
1
1
1
1
1
1
1
1
1
1
1
1
1
1
1
1
1
1
1
1
1
1
1
1
1
1
1
1
1
1.00037
1.48009
2.39183
2.53613
2.53862
2.54363
2.54703
2.54904
2.55039
2.55128
2.55229
2.55363
2.55557
2.55762
2.5585
2.55816
2.5568
2.55395
2.55054
2.54702
2.54347
2.53971
2.53547
2.53034
2.5243
2.51719
2.5091
2.50011
2.49039
2.48006
2.46868
2.45646
2.44163
2.42615
2.40717
2.38649
2.36398
2.33778
2.31094
2.2799
2.2489
1
1
1
1
1
1
1
1
1
1
1
1
1
1
1
1
1
1
1
1
1
1
1
1
1
1
1
1
1
1
1
1
1
1
1
1
1
1
1
1
1
1
1
1
1
1
1
1
1
1
1
1
1
1
1
1
1.02158
1.97274
2.50852
2.5303
2.53407
2.53675
2.5381
2.53899
2.53944
2.5398
2.54015
2.54103
2.54237
2.54271
2.54247
2.54141
2.53893
2.5358
2.53242
2.52895
2.52504
2.52062
2.51541
2.5093
2.5021
2.49377
2.48433
2.47408
2.46349
2.45185
2.43993
2.42582
2.41177
2.3947
2.37648
2.35636
2.33353
2.30962
2.28229
2.25524
1
1
1
1
1
1
1
1
1
1
1
1
1
1
1
1
1
1
1
1
1
1
1
1
1
1
1
1
1
1
1
1
1
1
1
1
1
1
1
1
1
1
1
1
1
1
1
1
1
1
1
1
1
1
1
1
1.00004
1.15094
2.23426
2.51758
2.52318
2.52514
2.52536
2.52616
2.527
2.52758
2.5275
2.52772
2.52809
2.52768
2.52688
2.52541
2.52281
2.51985
2.51674
2.51352
2.50999
2.50585
2.50094
2.49512
2.48811
2.4797
2.47007
2.45951
2.44867
2.43663
2.42465
2.41126
2.39807
2.38248
2.36641
2.34821
2.32812
2.30654
2.28274
2.25869
1
1
1
1
1
1
1
1
1
1
1
1
1
1
1
1
1
1
1
1
1
1
1
1
1
1
1
1
1
1
1
1
1
1
1
1
1
1
1
1
1
1
1
1
1
1
1
1
1
1
1
1
1
1
1
1
1
1.0015
1.52797
2.37377
2.50178
2.50139
2.50439
2.50779
2.51089
2.51332
2.51419
2.51462
2.51436
2.51334
2.51172
2.50965
2.50678
2.50369
2.50061
2.49741
2.49428
2.49084
2.48654
2.4813
2.47468
2.46669
2.45721
2.44676
2.43575
2.42383
2.4118
2.39898
2.38618
2.37158
2.35678
2.33975
2.32144
2.3018
2.28131
2.25933
1
1
1
1
1
1
1
1
1
1
1
1
1
1
1
1
1
1
1
1
1
1
1
1
1
1
1
1
1
1
1
1
1
1
1
1
1
1
1
1
1
1
1
1
1
1
1
1
1
1
1
1
1
1
1
1
1
1
1.02691
1.92181
2.46538
2.48613
2.49016
2.4932
2.49592
2.49866
2.50032
2.50123
2.5009
2.49971
2.49774
2.49506
2.49191
2.48845
2.48504
2.48157
2.47853
2.47565
2.47171
2.46708
2.46116
2.45352
2.4444
2.43437
2.42371
2.4124
2.40066
2.38854
2.37609
2.36242
2.34812
2.33191
2.31488
2.29688
2.27846
2.25839
1
1
1
1
1
1
1
1
1
1
1
1
1
1
1
1
1
1
1
1
1
1
1
1
1
1
1
1
1
1
1
1
1
1
1
1
1
1
1
1
1
1
1
1
1
1
1
1
1
1
1
1
1
1
1
1
1
1
1.00007
1.13117
2.11547
2.46557
2.48408
2.48307
2.48434
2.4859
2.4869
2.48762
2.48724
2.48607
2.48406
2.48128
2.47799
2.47457
2.4709
2.4671
2.46383
2.46091
2.45708
2.45266
2.44719
2.44007
2.43145
2.42201
2.412
2.40147
2.39047
2.37928
2.36746
2.35469
2.3408
2.32552
2.30941
2.29262
2.27506
2.2566
1
1
1
1
1
1
1
1
1
1
1
1
1
1
1
1
1
1
1
1
1
1
1
1
1
1
1
1
1
1
1
1
1
1
1
1
1
1
1
1
1
1
1
1
1
1
1
1
1
1
1
1
1
1
1
1
1
1
1
1.00115
1.26513
2.24371
2.46761
2.46763
2.46937
2.4693
2.46996
2.47051
2.47056
2.4701
2.46882
2.46674
2.46395
2.46095
2.45762
2.45371
2.45025
2.44693
2.44292
2.43834
2.43291
2.42623
2.41821
2.40933
2.39996
2.39016
2.38013
2.36996
2.35909
2.34734
2.33433
2.32021
2.30505
2.28927
2.27219
2.25517
1
1
1
1
1
1
1
1
1
1
1
1
1
1
1
1
1
1
1
1
1
1
1
1
1
1
1
1
1
1
1
1
1
1
1
1
1
1
1
1
1
1
1
1
1
1
1
1
1
1
1
1
1
1
1
1
1
1
1
1
1.00504
1.56706
2.33957
2.44759
2.44413
2.4458
2.44753
2.4493
2.45076
2.45174
2.45161
2.45088
2.44934
2.44719
2.44475
2.44133
2.43807
2.43441
2.43011
2.42517
2.4194
2.41278
2.40525
2.39673
2.3878
2.3787
2.36959
2.3603
2.35039
2.33966
2.32772
2.31484
2.30094
2.28611
2.26972
2.25416
1
1
1
1
1
1
1
1
1
1
1
1
1
1
1
1
1
1
1
1
1
1
1
1
1
1
1
1
1
1
1
1
1
1
1
1
1
1
1
1
1
1
1
1
1
1
1
1
1
1
1
1
1
1
1
1
1
1
1
1
1.00001
1.03266
1.83499
2.39653
2.43153
2.42687
2.42823
2.42983
2.43158
2.43298
2.43386
2.43395
2.43344
2.43228
2.43076
2.42843
2.42564
2.42213
2.41786
2.41281
2.40684
2.40013
2.39282
2.38456
2.37581
2.36728
2.35887
2.35022
2.34114
2.33124
2.32042
2.30886
2.29641
2.28258
2.26727
2.25315
1
1
1
1
1
1
1
1
1
1
1
1
1
1
1
1
1
1
1
1
1
1
1
1
1
1
1
1
1
1
1
1
1
1
1
1
1
1
1
1
1
1
1
1
1
1
1
1
1
1
1
1
1
1
1
1
1
1
1
1
1
1.00011
1.10123
1.96225
2.39623
2.41842
2.41709
2.41809
2.41802
2.41814
2.41809
2.4179
2.4174
2.41658
2.41553
2.41402
2.41191
2.40901
2.40526
2.4006
2.3949
2.38833
2.38112
2.37313
2.36461
2.35643
2.34841
2.34018
2.33161
2.32235
2.31259
2.30221
2.2911
2.27826
2.26433
2.25154
1
1
1
1
1
1
1
1
1
1
1
1
1
1
1
1
1
1
1
1
1
1
1
1
1
1
1
1
1
1
1
1
1
1
1
1
1
1
1
1
1
1
1
1
1
1
1
1
1
1
1
1
1
1
1
1
1
1
1
1
1
1
1.00075
1.16879
2.02377
2.38027
2.41
2.4096
2.40874
2.40741
2.40611
2.4047
2.40324
2.40184
2.40049
2.39899
2.39713
2.39472
2.3916
2.38758
2.38254
2.37652
2.36966
2.3621
2.35408
2.3462
2.33839
2.33046
2.32217
2.3134
2.30449
2.29512
2.28513
2.2732
2.26055
2.24892
1
1
1
1
1
1
1
1
1
1
1
1
1
1
1
1
1
1
1
1
1
1
1
1
1
1
1
1
1
1
1
1
1
1
1
1
1
1
1
1
1
1
1
1
1
1
1
1
1
1
1
1
1
1
1
1
1
1
1
1
1
1
1
1.002
1.22495
2.06255
2.36706
2.3978
2.39722
2.3963
2.39487
2.39307
2.39096
2.38889
2.38693
2.38494
2.38276
2.38032
2.3774
2.37378
2.36931
2.36391
2.35764
2.35071
2.3434
2.33598
2.32852
2.32097
2.31299
2.30475
2.29652
2.28799
2.27889
2.26775
2.25599
2.24528
1
1
1
1
1
1
1
1
1
1
1
1
1
1
1
1
1
1
1
1
1
1
1
1
1
1
1
1
1
1
1
1
1
1
1
1
1
1
1
1
1
1
1
1
1
1
1
1
1
1
1
1
1
1
1
1
1
1
1
1
1
1
1
1
1.00362
1.27431
2.09042
2.35272
2.37937
2.38093
2.38082
2.37985
2.3784
2.37659
2.37456
2.37221
2.36964
2.36688
2.36381
2.36023
2.35595
2.35091
2.34513
2.33879
2.33216
2.32525
2.31819
2.31112
2.30379
2.29634
2.28876
2.28093
2.27263
2.26224
2.2511
2.24099
1
1
1
1
1
1
1
1
1
1
1
1
1
1
1
1
1
1
1
1
1
1
1
1
1
1
1
1
1
1
1
1
1
1
1
1
1
1
1
1
1
1
1
1
1
1
1
1
1
1
1
1
1
1
1
1
1
1
1
1
1
1
1
1
1.00001
1.00558
1.31662
2.10716
2.33647
2.36053
2.36216
2.3632
2.36304
2.36245
2.36097
2.35894
2.35657
2.35383
2.35066
2.34694
2.34264
2.33778
2.33236
2.32651
2.32038
2.31403
2.30759
2.30121
2.2947
2.28807
2.28115
2.27392
2.26632
2.25671
2.24611
2.23639
1
1
1
1
1
1
1
1
1
1
1
1
1
1
1
1
1
1
1
1
1
1
1
1
1
1
1
1
1
1
1
1
1
1
1
1
1
1
1
1
1
1
1
1
1
1
1
1
1
1
1
1
1
1
1
1
1
1
1
1
1
1
1
1
1
1.00001
1.00772
1.34736
2.11139
2.32276
2.34215
2.3428
2.34425
2.34452
2.34438
2.34361
2.34212
2.33992
2.33698
2.33344
2.32942
2.32486
2.31978
2.31433
2.30866
2.30284
2.29693
2.29112
2.28531
2.27942
2.2731
2.26632
2.25928
2.2505
2.24063
2.23125
1
1
1
1
1
1
1
1
1
1
1
1
1
1
1
1
1
1
1
1
1
1
1
1
1
1
1
1
1
1
1
1
1
1
1
1
1
1
1
1
1
1
1
1
1
1
1
1
1
1
1
1
1
1
1
1
1
1
1
1
1
1
1
1
1
1
1.00002
1.00961
1.36328
2.10772
2.30671
2.32601
2.32494
2.32552
2.32531
2.32512
2.32449
2.32324
2.32131
2.31872
2.31546
2.3116
2.30721
2.3024
2.29731
2.29204
2.28663
2.28125
2.27589
2.2705
2.2646
2.25815
2.25149
2.24353
2.2346
2.22562
1
1
1
1
1
1
1
1
1
1
1
1
1
1
1
1
1
1
1
1
1
1
1
1
1
1
1
1
1
1
1
1
1
1
1
1
1
1
1
1
1
1
1
1
1
1
1
1
1
1
1
1
1
1
1
1
1
1
1
1
1
1
1
1
1
1
1
1.00002
1.01074
1.36548
2.09061
2.29132
2.31075
2.30822
2.30752
2.30633
2.30553
2.30455
2.30335
2.30176
2.29965
2.29696
2.29371
2.28996
2.28581
2.2813
2.27651
2.27156
2.26651
2.26138
2.25574
2.24951
2.24301
2.23572
2.22768
2.2192
1
1
1
1
1
1
1
1
1
1
1
1
1
1
1
1
1
1
1
1
1
1
1
1
1
1
1
1
1
1
1
1
1
1
1
1
1
1
1
1
1
1
1
1
1
1
1
1
1
1
1
1
1
1
1
1
1
1
1
1
1
1
1
1
1
1
1
1
1.00003
1.01092
1.35219
2.0598
2.27319
2.2964
2.29194
2.29051
2.28862
2.28708
2.28572
2.2844
2.28295
2.28124
2.27916
2.27664
2.27361
2.27005
2.26603
2.26162
2.25694
2.252
2.24657
2.24057
2.2342
2.22741
2.2201
2.21219
1
1
1
1
1
1
1
1
1
1
1
1
1
1
1
1
1
1
1
1
1
1
1
1
1
1
1
1
1
1
1
1
1
1
1
1
1
1
1
1
1
1
1
1
1
1
1
1
1
1
1
1
1
1
1
1
1
1
1
1
1
1
1
1
1
1
1
1
1
1.00003
1.01007
1.32293
2.0084
2.25074
2.28246
2.27707
2.27474
2.27258
2.27067
2.26901
2.26744
2.2659
2.26426
2.26238
2.26011
2.25736
2.25412
2.25037
2.24617
2.24154
2.23646
2.23088
2.22486
2.21854
2.21183
2.20455
1
1
1
1
1
1
1
1
1
1
1
1
1
1
1
1
1
1
1
1
1
1
1
1
1
1
1
1
1
1
1
1
1
1
1
1
1
1
1
1
1
1
1
1
1
1
1
1
1
1
1
1
1
1
1
1
1
1
1
1
1
1
1
1
1
1
1
1
1
1
1.00002
1.00833
1.27685
1.92657
2.2246
2.26623
2.26165
2.25986
2.25827
2.25658
2.25479
2.25295
2.25103
2.24898
2.24671
2.24413
2.24118
2.2378
2.234
2.22978
2.22516
2.22014
2.21471
2.20898
2.20291
2.19634
1
1
1
1
1
1
1
1
1
1
1
1
1
1
1
1
1
1
1
1
1
1
1
1
1
1
1
1
1
1
1
1
1
1
1
1
1
1
1
1
1
1
1
1
1
1
1
1
1
1
1
1
1
1
1
1
1
1
1
1
1
1
1
1
1
1
1
1
1
1
1
1.00002
1.00604
1.21314
1.816
2.19205
2.24891
2.24618
2.24595
2.24472
2.24302
2.24101
2.23877
2.23632
2.23369
2.23085
2.22777
2.22442
2.2208
2.21687
2.21267
2.20817
2.20344
2.19841
2.19302
2.18726
1
1
1
1
1
1
1
1
1
1
1
1
1
1
1
1
1
1
1
1
1
1
1
1
1
1
1
1
1
1
1
1
1
1
1
1
1
1
1
1
1
1
1
1
1
1
1
1
1
1
1
1
1
1
1
1
1
1
1
1
1
1
1
1
1
1
1
1
1
1
1
1
1.00001
1.00366
1.14193
1.71024
2.1532
2.23028
2.23149
2.23029
2.22912
2.22748
2.22546
2.22309
2.22043
2.2175
2.21433
2.21094
2.20734
2.20356
2.1996
2.19553
2.19134
2.18686
2.18219
2.17725
1
1
1
1
1
1
1
1
1
1
1
1
1
1
1
1
1
1
1
1
1
1
1
1
1
1
1
1
1
1
1
1
1
1
1
1
1
1
1
1
1
1
1
1
1
1
1
1
1
1
1
1
1
1
1
1
1
1
1
1
1
1
1
1
1
1
1
1
1
1
1
1
1
1.00001
1.00176
1.08934
1.59983
2.10887
2.20565
2.21984
2.21484
2.21365
2.21164
2.20942
2.2069
2.2041
2.20099
2.19765
2.19416
2.19048
2.18671
2.18288
2.17892
2.17493
2.17078
2.16643
1
1
1
1
1
1
1
1
1
1
1
1
1
1
1
1
1
1
1
1
1
1
1
1
1
1
1
1
1
1
1
1
1
1
1
1
1
1
1
1
1
1
1
1
1
1
1
1
1
1
1
1
1
1
1
1
1
1
1
1
1
1
1
1
1
1
1
1
1
1
1
1
1
1
1
1.00079
1.05118
1.49149
2.03442
2.18543
2.20932
2.20221
2.19976
2.19701
2.19412
2.19104
2.18788
2.18462
2.18116
2.17763
2.17409
2.17039
2.16667
2.16292
2.15892
2.15502
1
1
1
1
1
1
1
1
1
1
1
1
1
1
1
1
1
1
1
1
1
1
1
1
1
1
1
1
1
1
1
1
1
1
1
1
1
1
1
1
1
1
1
1
1
1
1
1
1
1
1
1
1
1
1
1
1
1
1
1
1
1
1
1
1
1
1
1
1
1
1
1
1
1
1
1
1.00032
1.02727
1.37268
1.92857
2.16297
2.1946
2.19045
2.18711
2.18358
2.18019
2.17666
2.17302
2.16945
2.16602
2.16238
2.15876
2.1551
2.15121
2.14757
2.14368
1
1
1
1
1
1
1
1
1
1
1
1
1
1
1
1
1
1
1
1
1
1
1
1
1
1
1
1
1
1
1
1
1
1
1
1
1
1
1
1
1
1
1
1
1
1
1
1
1
1
1
1
1
1
1
1
1
1
1
1
1
1
1
1
1
1
1
1
1
1
1
1
1
1
1
1
1
1.00012
1.01302
1.25078
1.79354
2.1246
2.17911
2.17767
2.17341
2.17035
2.16728
2.16379
2.16006
2.15615
2.15219
2.14849
2.14477
2.14104
2.13719
2.13289
1
1
1
1
1
1
1
1
1
1
1
1
1
1
1
1
1
1
1
1
1
1
1
1
1
1
1
1
1
1
1
1
1
1
1
1
1
1
1
1
1
1
1
1
1
1
1
1
1
1
1
1
1
1
1
1
1
1
1
1
1
1
1
1
1
1
1
1
1
1
1
1
1
1
1
1
1
1
1.00004
1.00544
1.14413
1.64167
2.06643
2.15039
2.16907
2.1623
2.15916
2.156
2.15225
2.14775
2.14348
2.13924
2.13528
2.13137
2.12714
2.12346
1
1
1
1
1
1
1
1
1
1
1
1
1
1
1
1
1
1
1
1
1
1
1
1
1
1
1
1
1
1
1
1
1
1
1
1
1
1
1
1
1
1
1
1
1
1
1
1
1
1
1
1
1
1
1
1
1
1
1
1
1
1
1
1
1
1
1
1
1
1
1
1
1
1
1
1
1
1
1
1.00001
1.00192
1.07051
1.48427
1.97128
2.12722
2.15385
2.15001
2.14645
2.14327
2.13989
2.13587
2.13114
2.12645
2.12207
2.11778
2.11461
1
1
1
1
1
1
1
1
1
1
1
1
1
1
1
1
1
1
1
1
1
1
1
1
1
1
1
1
1
1
1
1
1
1
1
1
1
1
1
1
1
1
1
1
1
1
1
1
1
1
1
1
1
1
1
1
1
1
1
1
1
1
1
1
1
1
1
1
1
1
1
1
1
1
1
1
1
1
1
1
1
1.00057
1.02869
1.33296
1.83783
2.08896
2.13776
2.13696
2.13233
2.12973
2.12737
2.12413
2.12017
2.11545
2.11068
2.10667
1
1
1
1
1
1
1
1
1
1
1
1
1
1
1
1
1
1
1
1
1
1
1
1
1
1
1
1
1
1
1
1
1
1
1
1
1
1
1
1
1
1
1
1
1
1
1
1
1
1
1
1
1
1
1
1
1
1
1
1
1
1
1
1
1
1
1
1
1
1
1
1
1
1
1
1
1
1
1
1
1
1
1.00013
1.01068
1.19334
1.6554
2.02865
2.11455
2.12661
2.12274
2.11851
2.11468
2.11095
2.10726
2.10403
2.10016
1
1
1
1
1
1
1
1
1
1
1
1
1
1
1
1
1
1
1
1
1
1
1
1
1
1
1
1
1
1
1
1
1
1
1
1
1
1
1
1
1
1
1
1
1
1
1
1
1
1
1
1
1
1
1
1
1
1
1
1
1
1
1
1
1
1
1
1
1
1
1
1
1
1
1
1
1
1
1
1
1
1
1
1.00003
1.00343
1.08377
1.47864
1.92241
2.08221
2.11317
2.11066
2.10568
2.10123
2.09807
2.09502
2.09132
1
1
1
1
1
1
1
1
1
1
1
1
1
1
1
1
1
1
1
1
1
1
1
1
1
1
1
1
1
1
1
1
1
1
1
1
1
1
1
1
1
1
1
1
1
1
1
1
1
1
1
1
1
1
1
1
1
1
1
1
1
1
1
1
1
1
1
1
1
1
1
1
1
1
1
1
1
1
1
1
1
1
1
1
1.00001
1.00078
1.0305
1.30604
1.77345
2.0334
2.08776
2.0978
2.09446
2.09047
2.08835
2.08532
1
1
1
1
1
1
1
1
1
1
1
1
1
1
1
1
1
1
1
1
1
1
1
1
1
1
1
1
1
1
1
1
1
1
1
1
1
1
1
1
1
1
1
1
1
1
1
1
1
1
1
1
1
1
1
1
1
1
1
1
1
1
1
1
1
1
1
1
1
1
1
1
1
1
1
1
1
1
1
1
1
1
1
1
1
1
1.00016
1.0094
1.15994
1.5636
1.95804
2.06473
2.0809
2.07732
2.07479
2.07343
1
1
1
1
1
1
1
1
1
1
1
1
1
1
1
1
1
1
1
1
1
1
1
1
1
1
1
1
1
1
1
1
1
1
1
1
1
1
1
1
1
1
1
1
1
1
1
1
1
1
1
1
1
1
1
1
1
1
1
1
1
1
1
1
1
1
1
1
1
1
1
1
1
1
1
1
1
1
1
1
1
1
1
1
1
1
1
1.00002
1.00257
1.05512
1.38815
1.81406
2.01644
2.06546
2.07229
2.06788
1
1
1
1
1
1
1
1
1
1
1
1
1
1
1
1
1
1
1
1
1
1
1
1
1
1
1
1
1
1
1
1
1
1
1
1
1
1
1
1
1
1
1
1
1
1
1
1
1
1
1
1
1
1
1
1
1
1
1
1
1
1
1
1
1
1
1
1
1
1
1
1
1
1
1
1
1
1
1
1
1
1
1
1
1
1
1
1
1
1.00041
1.01782
1.21015
1.62301
1.92806
2.03586
2.06287
1
1
1
1
1
1
1
1
1
1
1
1
1
1
1
1
1
1
1
1
1
1
1
1
1
1
1
1
1
1
1
1
1
1
1
1
1
1
1
1
1
1
1
1
1
1
1
1
1
1
1
1
1
1
1
1
1
1
1
1
1
1
1
1
1
1
1
1
1
1
1
1
1
1
1
1
1
1
1
1
1
1
1
1
1
1
1
1
1
1
1.00007
1.00435
1.08064
1.40322
1.79236
2.00678
1
1
1
1
1
1
1
1
1
1
1
1
1
1
1
1
1
1
1
1
1
1
1
1
1
1
1
1
1
1
1
1
1
1
1
1
1
1
1
1
1
1
1
1
1
1
1
1
1
1
1
1
1
1
1
1
1
1
1
1
1
1
1
1
1
1
1
1
1
1
1
1
1
1
1
1
1
1
1
1
1
1
1
1
1
1
1
1
1
1
1
1.00001
1.00076
1.0219
1.21174
1.6445
1
1
1
1
1
1
1
1
1
1
1
1
1
1
1
1
1
1
1
1
1
1
1
1
1
1
1
1
1
1
1
1
1
1
1
1
1
1
1
1
1
1
1
1
1
1
1
1
1
1
1
1
1
1
1
1
1
1
1
1
1
1
1
1
1
1
1
1
1
1
1
1
1
1
1
1
1
1
1
1
1
1
1
1
1
1
1
1
1
1
1
1
1
1.0001
1.005
1.09109
1
1
1
1
1
1
1
1
1
1
1
1
1
1
1
1
1
1
1
1
1
1
1
1
1
1
1
1
1
1
1
1
1
1
1
1
1
1
1
1
1
1
1
1
1
1
1
1
1
1
1
1
1
1
1
1
1
1
1
1
1
1
1
1
1
1
1
1
1
1
1
1
1
1
1
1
1
1
1
1
1
1
1
1
1
1
1
1
1
1
1
1
1
1
1.00001
1.00089
1
1
1
1
1
1
1
1
1
1
1
1
1
1
1
1
1
1
1
1
1
1
1
1
1
1
1
1
1
1
1
1
1
1
1
1
1
1
1
1
1
1
1
1
1
1
1
1
1
1
1
1
1
1
1
1
1
1
1
1
1
1
1
1
1
1
1
1
1
1
1
1
1
1
1
1
1
1
1
1
1
1
1
1
1
1
1
1
1
1
1
1
1
1
1
1
1
1
1
1
1
1
1
1
1
1
1
1
1
1
1
1
1
1
1
1
1
1
1
1
1
1
1
1
1
1
1
1
1
1
1
1
1
1
1
1
1
1
1
1
1
1
1
1
1
1
1
1
1
1
1
1
1
1
1
1
1
1
1
1
1
1
1
1
1
1
1
1
1
1
1
1
1
1
1
1
1
1
1
1
1
1
1
1
1
1
1
1
1
1
1
1
1
1
1
1
1
1
1
1
1
1
1
1
1
1
1
1
1
1
1
1
1
1
1
1
1
1
1
1
1
1
1
1
1
1
1
1
1
1
1
1
1
1
1
1
1
1
1
1
1
1
1
1
1
1
1
1
1
1
1
1
1
1
1
1
1
1
1
1
1
1
1
1
1
1
1
1
1
1
1
1
1
1
1
1
1
1
1
1
1
1
1
1
1
1
1
1
1
1
1
1
1
1
1
1
1
1
1
1
1
1
1
1
1
1
1
1
1
1
1
1
1
1
1
1
1
1
1
1
1
1
1
1
1
1
1
1
1
1
1
1
1
1
1
1
1
1
1
1
1
1
1
1
1
1
1
1
1
1
1
1
1
1
1
1
1
1
1
1
1
1
1
1
1
1
1
1
1
1
1
1
1
1
1
1
1
1
1
1
1
1
1
1
1
1
1
1
1
1
1
1
1
1
1
1
1
1
1
1
1
1
1
1
1
1
1
1
1
1
1
1
1
1
1
1
1
1
1
1
1
1
1
1
1
1
1
1
1
1
1
1
1
1
1
1
1
1
1
1
1
1
1
1
1
1
1
1
1
1
1
1
1
1
1
1
1
1
1
1
1
1
1
1
1
1
1
1
1
1
1
1
1
1
1
1
1
1
1
1
1
1
1
1
1
1
1
1
1
1
1
1
1
1
1
1
1
1
1
1
1
1
1
1
1
1
1
1
1
1
1
1
1
1
1
1
1
1
1
1
1
1
1
1
1
1
1
1
1
1
1
1
1
1
1
1
1
1
1
1
1
1
1
1
1
1
1
1
1
1
1
1
1
1
1
1
1
1
1
1
1
1
1
1
1
1
1
1
1
1
1
1
1
1
1
1
1
1
1
1
1
1
1
1
1
1
1
1
1
1
1
1
1
1
1
1
1
1
1
1
1
1
1
1
1
1
1
1
1
1
1
1
1
1
1
1
1
1
1
1
1
1
1
1
1
1
1
1
1
1
1
1
1
1
1
1
1
1
1
1
1
1
1
1
1
1
1
1
1
1
1
1
1
1
1
1
1
1
1
1
1
1
1
1
1
1
1
1
1
1
1
1
1
1
1
1
1
1
1
1
1
1
1
1
1
1
1
1
1
1
1
1
1
1
1
1
1
1
1
1
1
1
1
1
1
1
1
1
1
1
1
1
1
1
1
1
1
1
1
1
1
1
1
1
1
1
1
1
1
1
1
1
1
1
1
1
1
1
1
1
1
1
1
1
1
1
1
1
1
1
1
1
1
1
1
1
1
1
1
1
1
1
1
1
1
1
1
1
1
1
1
1
1
1
1
1
1
1
1
1
1
1
1
1
1
1
1
1
1
1
1
1
1
1
1
1
1
1
1
1
1
1
1
1
1
1
1
1
1
1
1
1
1
1
1
1
1
1
1
1
1
1
1
1
1
1
1
1
1
1
1
1
1
1
1
1
1
1
1
1
1
1
1
1
1
1
1
1
1
1
1
1
1
1
1
1
1
1
1
1
1
1
1
1
1
1
1
1
1
1
1
1
1
1
1
1
1
1
1
1
1
1
1
1
1
1
1
1
1
1
1
1
1
1
1
1
1
1
1
1
1
1
1
1
1
1
1
1
1
1
1
1
1
1
1
1
1
1
1
1
1
1
1
1
1
1
1
1
1
1
1
1
1
1
1
1
1
1
1
1
1
1
1
1
1
1
1
1
1
1
1
1
1
1
1
1
1
1
1
1
1
1
1
1
1
1
1
1
1
1
1
1
1
1
1
1
1
1
1
1
1
1
1
1
1
1
1
1
1
1
1
1
1
1
1
1
1
1
1
1
1
1
1
1
1
1
1
1
1
1
1
1
1
1
1
1
1
1
1
1
1
1
1
1
1
1
1
1
1
1
1
1
1
1
1
1
1
1
1
1
1
1
1
1
1
1
1
1
1
1
1
1
1
1
1
1
1
1
1
1
1
1
1
1
1
1
1
1
1
1
1
1
1
1
1
1
1
1
1
1
1
1
1
1
1
1
1
1
1
1
1
1
1
1
1
1
1
1
1
1
1
1
1
1
1
1
1
1
1
1
1
1
1
1
1
1
1
1
1
1
1
1
1
1
1
1
1
1
1
1
1
1
1
1
1
1
1
1
1
1
1
1
1
1
1
1
1
1
1
1
1
1
1
1
1
1
1
1
1
1
1
1
1
1
1
1
1
1
1
1
1
1
1
1
1
1
1
1
1
1
1
1
1
1
1
1
1
1
1
1
1
1
1
1
1
1
1
1
1
1
1
1
1
1
1
1
1
1
1
1
1
1
1
1
1
1
1
1
1
1
1
1
1
1
1
1
1
1
1
1
1
1
1
1
1
1
1
1
1
1
1
1
1
1
1
1
1
1
1
1
1
1
1
1
1
1
1
1
1
1
1
1
1
1
1
1
1
1
1
1
1
1
1
1
1
1
1
1
1
1
1
1
1
1
1
1
1
1
1
1
1
1
1
1
1
1
1
1
1
1
1
1
1
1
1
1
1
1
1
1
1
1
1
1
1
1
1
1
1
1
1
1
1
1
1
1
1
1
1
1
1
1
1
1
1
1
1
1
1
1
1
1
1
1
1
1
1
1
1
1
1
1
1
1
1
1
1
1
1
1
1
1
1
1
1
1
1
1
1
1
1
1
1
1
1
1
1
1
1
1
1
1
1
1
1
1
1
1
1
1
1
1
1
1
1
1
1
1
1
1
1
1
1
1
1
1
1
1
1
1
1
1
1
1
1
1
1
1
1
1
1
1
1
1
1
1
1
1
1
1
1
1
1
1
1
1
1
1
1
1
1
1
1
1
1
1
1
1
1
1
1
1
1
1
1
1
1
1
1
1
1
1
1
1
1
1
1
1
1
1
1
1
1
1
1
1
1
1
1
1
1
1
1
1
1
1
1
1
1
1
1
1
1
1
1
1
1
1
1
1
1
1
1
1
1
1
1
1
1
1
1
1
1
1
1
1
1
1
1
1
1
1
1
1
1
1
1
1
1
1
1
1
1
1
1
1
1.49843
0.727958
0.673167
0.883027
0.962477
1.01454
1.0781
1.15451
1.17411
1.19052
1.23307
1.29333
1.35598
1.41996
1.4764
1.52509
1.54338
1.55679
1.55892
1.55822
1.57483
1.59159
1.59722
1.59455
1.58158
1.58034
1.58759
1.59946
1.61318
1.62888
1.63192
1.6297
1.63074
1.63789
1.65253
1.66458
1.66547
1.66135
1.65352
1.65181
1.65228
1.65387
1.65474
1.65386
1.64996
1.64456
1.64312
1.64418
1.64834
1.65386
1.65548
1.65513
1.65353
1.64972
1.64525
1.64316
1.64291
1.64403
1.64772
1.65148
1.65347
1.65496
1.65632
1.65748
1.65691
1.88079
2.67202
2.84428
2.83834
2.83348
2.82584
2.81762
2.80908
2.7986
2.78655
2.77338
2.75889
2.74321
2.72721
2.71186
2.69791
2.68562
2.67476
2.66469
2.6548
2.64471
2.63423
2.62354
2.61292
2.60267
2.59274
2.58277
2.57219
2.5606
2.548
2.53491
2.52203
2.50989
2.49881
2.4889
2.48013
2.47205
2.46324
2.45377
2.4445
2.43573
2.4275
2.41993
2.41315
2.40669
2.39922
2.38896
2.37715
2.36521
2.35375
2.34321
2.33408
2.3269
2.32173
2.31706
2.31081
2.30391
2.29686
2.2894
2.28168
2.27415
2.26727
2.26126
2.25579
2.25087
2.24655
2.24169
2.2353
2.22779
2.21857
2.2084
2.19935
2.19214
2.18603
2.18065
2.17668
2.17403
2.17141
2.16804
2.16395
2.15933
2.15377
2.14693
2.13868
2.12895
2.11867
2.10925
2.10127
2.09504
2.09041
2.08703
2.08437
2.0818
2.07842
2.07299
2.06529
2.05713
2.0506
2.04548
2.04086
2.03699
2.03437
2.03197
2.0287
2.02484
2.01968
2.01221
2.0025
1.99239
1.98406
1.97776
1.97263
1.96817
1.96472
1.96224
1.95969
1.95675
1.9535
1.94956
1.94406
1.93681
1.92865
1.92094
1.915
1.9102
1.90789
1.904
1.7525
1.26633
1.11264
1.14655
1.11612
1.02069
0.982715
0.998569
1.00509
1.00935
1.02478
1.0555
1.10876
1.16963
1.22268
1.26761
1.30547
1.34118
1.37633
1.40417
1.43959
1.48074
1.5138
1.53343