/*--------------------------------*- C++ -*----------------------------------*\
  =========                 |
  \\      /  F ield         | OpenFOAM: The Open Source CFD Toolbox
   \\    /   O peration     | Website:  https://openfoam.org
    \\  /    A nd           | Version:  7
     \\/     M anipulation  |
\*---------------------------------------------------------------------------*/
FoamFile
{
    version     2.0;
    format      ascii;
    class       volVectorField;
    location    "3.1";
    object      U;
}
// * * * * * * * * * * * * * * * * * * * * * * * * * * * * * * * * * * * * * //

dimensions      [0 1 -1 0 0 0 0];

internalField   nonuniform List<vector> 
19968
(
(3 -2.23283e-17 0)
(3 -1.75775e-16 0)
(3 1.59616e-16 0)
(3 2.43003e-16 0)
(3 8.4635e-17 0)
(3 1.94737e-16 0)
(3 3.06968e-16 0)
(3 4.44363e-16 0)
(3 9.24348e-16 0)
(3 9.97334e-16 0)
(3 9.50589e-16 0)
(3 8.73291e-16 0)
(3 1.00702e-15 0)
(3 9.80241e-16 0)
(3 8.52503e-16 0)
(3 1.91911e-15 0)
(3 2.68048e-15 0)
(3 2.14399e-15 0)
(3 1.91667e-15 0)
(3 6.82747e-16 0)
(3 1.38602e-16 0)
(3 1.73989e-16 0)
(3 8.36038e-16 0)
(3 2.64312e-16 0)
(3 -5.44967e-17 0)
(3 7.30544e-16 0)
(3 1.23974e-15 0)
(3 1.68298e-15 0)
(3 1.99688e-15 0)
(3 2.04843e-15 0)
(3 2.18471e-15 0)
(3 1.36656e-15 0)
(3 3.72888e-16 0)
(3 -8.21568e-18 0)
(3 -1.7338e-16 0)
(3 -1.98115e-16 0)
(3 2.76619e-16 0)
(3 8.13302e-16 0)
(3 4.51143e-16 0)
(3 -8.60751e-17 0)
(3 -1.68922e-16 0)
(3 3.26372e-16 0)
(3 6.01777e-16 0)
(3 6.38681e-16 0)
(3 8.34762e-16 0)
(3 1.03253e-15 0)
(3 7.07677e-16 0)
(3 4.11987e-16 0)
(3 -1.2279e-17 0)
(1.12826 0.00529061 0)
(0.767443 0.00350932 0)
(0.750503 0.00887479 0)
(0.733994 0.00949104 0)
(0.717335 0.00942384 0)
(0.701019 0.00881859 0)
(0.685725 0.00813632 0)
(0.671472 0.00783831 0)
(0.657676 0.0079942 0)
(0.643585 0.00847404 0)
(0.628638 0.00910003 0)
(0.612678 0.00967901 0)
(0.596048 0.00994098 0)
(0.579557 0.00965376 0)
(0.564044 0.00897799 0)
(0.549655 0.00852459 0)
(0.535743 0.00869699 0)
(0.52136 0.00943726 0)
(0.505828 0.0103574 0)
(0.489298 0.0108935 0)
(0.472875 0.0105588 0)
(0.457701 0.00987469 0)
(0.443517 0.0097854 0)
(0.429043 0.0103564 0)
(0.41341 0.0108544 0)
(0.39697 0.0107612 0)
(0.380378 0.0104758 0)
(0.36372 0.0105054 0)
(0.34691 0.0107631 0)
(0.330087 0.0109856 0)
(0.313595 0.0111222 0)
(0.297189 0.0112602 0)
(0.280723 0.0114272 0)
(0.264101 0.0115936 0)
(0.247211 0.0117538 0)
(0.229942 0.0119345 0)
(0.212203 0.012144 0)
(0.19393 0.0123855 0)
(0.175163 0.0126612 0)
(0.156031 0.0129854 0)
(0.136645 0.0133144 0)
(0.117058 0.0136218 0)
(0.0970714 0.0139755 0)
(0.076614 0.014299 0)
(0.0555124 0.0146267 0)
(0.0337312 0.0147701 0)
(0.0112673 0.0149452 0)
(3 9.38839e-17 0)
(3 -1.03363e-17 0)
(3 3.31704e-16 0)
(3 6.25625e-16 0)
(3 9.01366e-16 0)
(3 1.39247e-15 0)
(3 2.11926e-15 0)
(3 2.12891e-15 0)
(3 1.64765e-15 0)
(3 2.017e-15 0)
(3 2.34988e-15 0)
(3 1.90393e-15 0)
(3 1.69391e-15 0)
(3 1.53812e-15 0)
(3 1.36057e-15 0)
(3 1.36879e-15 0)
(3 2.00962e-15 0)
(3 1.36353e-15 0)
(3 1.00907e-15 0)
(3 2.03499e-16 0)
(3 -9.63523e-16 0)
(3 -1.64726e-15 0)
(3 -1.06442e-15 0)
(3 -1.16109e-15 0)
(3 -1.60454e-15 0)
(3 -6.21913e-16 0)
(3 -5.76762e-16 0)
(3 -2.30946e-16 0)
(3 2.81576e-16 0)
(3 7.56009e-16 0)
(3 1.88268e-15 0)
(3 1.61025e-15 0)
(3 1.12985e-15 0)
(3 9.1904e-16 0)
(3 3.41377e-16 0)
(3 -1.71479e-16 0)
(3 -8.78323e-17 0)
(3 7.28731e-17 0)
(3 -1.51706e-16 0)
(3 -1.05847e-15 0)
(3 -1.23391e-15 0)
(3 4.15891e-16 0)
(3 1.36795e-15 0)
(3 1.90855e-15 0)
(3 1.85162e-15 0)
(3 1.16252e-15 0)
(3 6.60177e-16 0)
(3 -7.51141e-17 0)
(3 -6.05871e-16 0)
(1.14309 0.0269961 0)
(0.764474 0.0188202 0)
(0.745871 0.0261141 0)
(0.730244 0.028271 0)
(0.713744 0.0284867 0)
(0.697271 0.0270828 0)
(0.681537 0.0249564 0)
(0.666822 0.0235729 0)
(0.65278 0.0236527 0)
(0.638733 0.024927 0)
(0.624062 0.0268125 0)
(0.608498 0.0286625 0)
(0.592222 0.0296791 0)
(0.575867 0.0291548 0)
(0.560243 0.0272928 0)
(0.545546 0.0257571 0)
(0.531316 0.0259916 0)
(0.516829 0.0279691 0)
(0.501417 0.0306072 0)
(0.485021 0.0322777 0)
(0.468586 0.0316551 0)
(0.45318 0.0299018 0)
(0.438569 0.0295808 0)
(0.423905 0.0311716 0)
(0.408293 0.0326241 0)
(0.392004 0.0324407 0)
(0.375558 0.0317308 0)
(0.358972 0.0318487 0)
(0.342234 0.0325922 0)
(0.325466 0.0332331 0)
(0.309015 0.0336373 0)
(0.29266 0.0340653 0)
(0.276274 0.0345954 0)
(0.259781 0.0351324 0)
(0.243085 0.0356571 0)
(0.226082 0.0362536 0)
(0.208673 0.0369444 0)
(0.190786 0.0377343 0)
(0.172441 0.0386292 0)
(0.153752 0.0396734 0)
(0.134806 0.040736 0)
(0.11564 0.0417262 0)
(0.0960548 0.042857 0)
(0.0759491 0.0438964 0)
(0.0551477 0.0449585 0)
(0.0335769 0.045483 0)
(0.0112596 0.0461347 0)
(3 1.5363e-16 0)
(3 7.45686e-16 0)
(3 9.1979e-16 0)
(3 1.31266e-15 0)
(3 1.66981e-15 0)
(3 1.63409e-15 0)
(3 1.60947e-15 0)
(3 1.99193e-15 0)
(3 1.07955e-15 0)
(3 7.97534e-16 0)
(3 1.04198e-15 0)
(3 4.44923e-16 0)
(3 5.30652e-16 0)
(3 6.46096e-16 0)
(3 8.33673e-16 0)
(3 -3.07149e-16 0)
(3 -6.26803e-16 0)
(3 -3.09274e-16 0)
(3 -1.1717e-15 0)
(3 -1.74915e-15 0)
(3 -2.00943e-15 0)
(3 -2.04937e-15 0)
(3 -2.39372e-15 0)
(3 -2.27728e-15 0)
(3 -2.54951e-15 0)
(3 -2.59322e-15 0)
(3 -2.15291e-15 0)
(3 -2.16715e-15 0)
(3 -2.09121e-15 0)
(3 -1.41078e-15 0)
(3 -5.2287e-16 0)
(3 6.04646e-16 0)
(3 8.40325e-16 0)
(3 8.25098e-16 0)
(3 4.59604e-16 0)
(3 -4.48936e-16 0)
(3 -1.14845e-15 0)
(3 -6.56189e-16 0)
(3 6.96573e-17 0)
(3 1.36814e-15 0)
(3 1.29661e-15 0)
(3 1.01748e-15 0)
(3 9.77939e-16 0)
(3 8.13975e-16 0)
(3 -2.36137e-16 0)
(3 -5.68575e-16 0)
(3 1.04222e-16 0)
(3 -2.40918e-16 0)
(3 3.4216e-16 0)
(1.18058 0.04699 0)
(0.766615 0.0345118 0)
(0.747333 0.0440631 0)
(0.732316 0.0478408 0)
(0.715885 0.0487331 0)
(0.699196 0.0472035 0)
(0.682793 0.0442228 0)
(0.667144 0.0418387 0)
(0.652257 0.0415014 0)
(0.637749 0.0431318 0)
(0.623047 0.0459635 0)
(0.607738 0.0489342 0)
(0.591774 0.0507706 0)
(0.575551 0.0503495 0)
(0.559802 0.0477272 0)
(0.544699 0.0452391 0)
(0.529944 0.0452926 0)
(0.515201 0.0481834 0)
(0.499838 0.0522559 0)
(0.48348 0.0548857 0)
(0.466913 0.0540755 0)
(0.451137 0.0514328 0)
(0.43585 0.0508226 0)
(0.420732 0.053192 0)
(0.40489 0.0554558 0)
(0.38853 0.0552819 0)
(0.372074 0.0543545 0)
(0.355429 0.0546673 0)
(0.338598 0.055861 0)
(0.321661 0.056826 0)
(0.304955 0.0573893 0)
(0.288319 0.0580022 0)
(0.271672 0.0587948 0)
(0.254972 0.0595994 0)
(0.238143 0.0603764 0)
(0.221103 0.0612806 0)
(0.203767 0.0623601 0)
(0.186071 0.0636193 0)
(0.168029 0.0650616 0)
(0.149738 0.0667652 0)
(0.131248 0.0685262 0)
(0.11257 0.0701873 0)
(0.0935232 0.0721302 0)
(0.0739782 0.0739616 0)
(0.0537709 0.0758744 0)
(0.0327618 0.0769119 0)
(0.0110245 0.0782038 0)
(3 -5.74561e-17 0)
(3 -5.40723e-17 0)
(3 4.67621e-16 0)
(3 1.01976e-15 0)
(3 7.7078e-16 0)
(3 8.4386e-16 0)
(3 8.25277e-16 0)
(3 9.4885e-16 0)
(3 8.24235e-16 0)
(3 -1.7086e-16 0)
(3 -3.62935e-16 0)
(3 1.70155e-16 0)
(3 8.86686e-16 0)
(3 1.02004e-15 0)
(3 9.26897e-16 0)
(3 1.55633e-16 0)
(3 -5.92805e-16 0)
(3 -1.09315e-15 0)
(3 -1.09414e-15 0)
(3 -1.50275e-15 0)
(3 -1.44934e-15 0)
(3 -8.29929e-16 0)
(3 -3.59057e-16 0)
(3 5.68817e-16 0)
(3 1.4617e-16 0)
(3 -4.38643e-16 0)
(3 -3.39413e-16 0)
(3 -6.53454e-16 0)
(3 -1.05601e-15 0)
(3 -8.40787e-16 0)
(3 -8.20647e-16 0)
(3 -2.62167e-16 0)
(3 -8.48363e-16 0)
(3 -8.98215e-16 0)
(3 -4.23527e-16 0)
(3 -1.13647e-16 0)
(3 -2.34447e-16 0)
(3 -8.44542e-16 0)
(3 -9.29319e-16 0)
(3 2.17758e-16 0)
(3 8.79199e-16 0)
(3 1.03077e-15 0)
(3 1.17104e-15 0)
(3 1.26599e-15 0)
(3 9.2788e-16 0)
(3 9.95142e-16 0)
(3 1.53628e-15 0)
(3 2.18074e-15 0)
(3 1.57061e-15 0)
(1.24066 0.0674393 0)
(0.769462 0.0511218 0)
(0.748481 0.0618953 0)
(0.734367 0.067483 0)
(0.718166 0.0693194 0)
(0.701617 0.0683733 0)
(0.684984 0.0651671 0)
(0.668858 0.061837 0)
(0.653454 0.0607617 0)
(0.638703 0.0623519 0)
(0.624148 0.0657393 0)
(0.609291 0.0696477 0)
(0.593827 0.0723795 0)
(0.577905 0.0724374 0)
(0.562199 0.0695667 0)
(0.546923 0.0663308 0)
(0.531886 0.0660569 0)
(0.517143 0.0694745 0)
(0.502126 0.0746306 0)
(0.486032 0.0781567 0)
(0.469387 0.0775172 0)
(0.45324 0.0743456 0)
(0.437278 0.0735001 0)
(0.421677 0.0764739 0)
(0.405576 0.0794933 0)
(0.389057 0.0795167 0)
(0.372498 0.0786197 0)
(0.355719 0.0792598 0)
(0.33871 0.080943 0)
(0.321469 0.0822725 0)
(0.3043 0.0830426 0)
(0.287123 0.0838685 0)
(0.269914 0.0849277 0)
(0.252677 0.0859738 0)
(0.235363 0.0869312 0)
(0.217916 0.0880331 0)
(0.200281 0.0893656 0)
(0.182419 0.0909347 0)
(0.164358 0.0927417 0)
(0.146184 0.094916 0)
(0.127913 0.0972131 0)
(0.109524 0.0994003 0)
(0.0908759 0.102066 0)
(0.0718072 0.10465 0)
(0.0521903 0.107435 0)
(0.0317773 0.109052 0)
(0.0107414 0.11109 0)
(3 -3.07716e-16 0)
(3 -7.73698e-16 0)
(3 -9.6029e-16 0)
(3 -6.38308e-16 0)
(3 -1.31641e-15 0)
(3 -1.2171e-15 0)
(3 -8.42468e-16 0)
(3 -6.76414e-16 0)
(3 -3.86701e-16 0)
(3 -6.28765e-17 0)
(3 -3.84075e-16 0)
(3 2.55763e-16 0)
(3 4.96285e-16 0)
(3 3.87351e-16 0)
(3 2.48498e-16 0)
(3 1.42872e-16 0)
(3 -4.43959e-16 0)
(3 -6.31878e-16 0)
(3 -2.32219e-16 0)
(3 -1.02477e-16 0)
(3 -4.47252e-16 0)
(3 -6.81804e-16 0)
(3 -1.48653e-16 0)
(3 2.35615e-16 0)
(3 7.01635e-17 0)
(3 -6.03106e-16 0)
(3 -7.92378e-16 0)
(3 -3.71912e-16 0)
(3 -9.18813e-17 0)
(3 -8.11096e-16 0)
(3 -1.6281e-15 0)
(3 -1.6812e-15 0)
(3 -1.77973e-15 0)
(3 -1.64907e-15 0)
(3 -7.39086e-16 0)
(3 5.61714e-16 0)
(3 1.32572e-15 0)
(3 4.38342e-17 0)
(3 -3.011e-17 0)
(3 2.71319e-16 0)
(3 1.19764e-15 0)
(3 1.27467e-15 0)
(3 1.14782e-15 0)
(3 8.89215e-16 0)
(3 1.48467e-15 0)
(3 1.82331e-15 0)
(3 1.471e-15 0)
(3 1.52237e-15 0)
(3 1.65942e-15 0)
(1.33354 0.0896744 0)
(0.775132 0.0696199 0)
(0.748965 0.0801506 0)
(0.735379 0.0875244 0)
(0.719061 0.0903856 0)
(0.702632 0.0904406 0)
(0.685805 0.0877335 0)
(0.669346 0.0838136 0)
(0.653536 0.0816553 0)
(0.638507 0.0826711 0)
(0.624008 0.0862498 0)
(0.609526 0.0909526 0)
(0.594501 0.0947217 0)
(0.578803 0.0956317 0)
(0.563026 0.0930202 0)
(0.547532 0.0892169 0)
(0.532169 0.0882503 0)
(0.517348 0.0916577 0)
(0.50276 0.0975641 0)
(0.487153 0.102012 0)
(0.470628 0.101951 0)
(0.454306 0.0986011 0)
(0.437927 0.0974778 0)
(0.422032 0.10082 0)
(0.405859 0.104562 0)
(0.389275 0.105027 0)
(0.372689 0.104429 0)
(0.355888 0.105529 0)
(0.338833 0.107755 0)
(0.321416 0.109507 0)
(0.303903 0.11055 0)
(0.286296 0.111635 0)
(0.268627 0.113 0)
(0.250929 0.114322 0)
(0.233167 0.115462 0)
(0.215292 0.116724 0)
(0.19727 0.118235 0)
(0.179099 0.119992 0)
(0.160829 0.121983 0)
(0.142549 0.1244 0)
(0.124258 0.126998 0)
(0.105932 0.129461 0)
(0.0874999 0.132643 0)
(0.0688574 0.135833 0)
(0.0499091 0.139425 0)
(0.0302826 0.141631 0)
(0.0102777 0.144451 0)
(3 1.36326e-16 0)
(3 2.42423e-16 0)
(3 -3.01129e-16 0)
(3 -7.64601e-16 0)
(3 -1.10634e-15 0)
(3 -1.4533e-15 0)
(3 -1.36571e-15 0)
(3 -1.15291e-15 0)
(3 -9.34162e-16 0)
(3 -5.93127e-16 0)
(3 -3.83199e-16 0)
(3 -1.18244e-15 0)
(3 -1.3163e-15 0)
(3 -1.48852e-15 0)
(3 -1.01606e-15 0)
(3 -4.01074e-16 0)
(3 -3.15177e-16 0)
(3 -3.99831e-17 0)
(3 -3.77122e-16 0)
(3 6.19939e-17 0)
(3 4.85523e-16 0)
(3 3.4348e-16 0)
(3 -1.58132e-17 0)
(3 -6.18613e-16 0)
(3 -6.90766e-16 0)
(3 -1.07512e-15 0)
(3 -1.59016e-15 0)
(3 -1.39395e-15 0)
(3 -1.0173e-15 0)
(3 -9.0631e-16 0)
(3 -1.00974e-15 0)
(3 -9.83985e-16 0)
(3 -8.40928e-16 0)
(3 -7.68968e-16 0)
(3 -9.67076e-16 0)
(3 -9.86968e-16 0)
(3 -9.62586e-16 0)
(3 -2.51493e-16 0)
(3 1.57319e-16 0)
(3 1.79334e-15 0)
(3 2.73519e-15 0)
(3 1.53547e-15 0)
(3 1.01359e-15 0)
(3 9.46326e-16 0)
(3 7.23254e-16 0)
(3 -6.62274e-18 0)
(3 -3.15393e-16 0)
(3 -4.41613e-16 0)
(3 -1.47792e-15 0)
(1.47412 0.113944 0)
(0.785275 0.0916925 0)
(0.750263 0.0998553 0)
(0.737298 0.108489 0)
(0.720809 0.112299 0)
(0.704473 0.11363 0)
(0.68753 0.111777 0)
(0.670839 0.107546 0)
(0.654711 0.104076 0)
(0.639367 0.104099 0)
(0.624842 0.107489 0)
(0.61072 0.112811 0)
(0.596228 0.117733 0)
(0.580892 0.119815 0)
(0.56515 0.117926 0)
(0.549524 0.113854 0)
(0.533864 0.111929 0)
(0.518769 0.114709 0)
(0.504448 0.120892 0)
(0.489453 0.12633 0)
(0.473217 0.127347 0)
(0.456902 0.124249 0)
(0.440403 0.122847 0)
(0.424454 0.126307 0)
(0.40851 0.130718 0)
(0.3921 0.131832 0)
(0.375703 0.13173 0)
(0.359141 0.133372 0)
(0.342333 0.13619 0)
(0.325058 0.13846 0)
(0.307535 0.139899 0)
(0.289834 0.141351 0)
(0.272015 0.143127 0)
(0.254103 0.144845 0)
(0.236053 0.146277 0)
(0.217803 0.147783 0)
(0.19933 0.149529 0)
(0.180664 0.151489 0)
(0.161877 0.153609 0)
(0.143068 0.156124 0)
(0.124239 0.158819 0)
(0.105377 0.161259 0)
(0.0865432 0.164633 0)
(0.0676683 0.168085 0)
(0.0488005 0.172216 0)
(0.029431 0.17484 0)
(0.010034 0.178329 0)
(3 9.00173e-17 0)
(3 2.8658e-16 0)
(3 -2.1615e-17 0)
(3 -7.69092e-16 0)
(3 -9.04132e-16 0)
(3 -1.13352e-15 0)
(3 -1.21383e-15 0)
(3 -1.29915e-15 0)
(3 -7.95464e-16 0)
(3 -7.62558e-16 0)
(3 -8.20114e-16 0)
(3 -9.74444e-16 0)
(3 -9.57015e-16 0)
(3 -7.67114e-16 0)
(3 -6.19356e-16 0)
(3 -4.63718e-16 0)
(3 -1.18991e-16 0)
(3 3.92392e-16 0)
(3 5.3286e-16 0)
(3 6.68647e-16 0)
(3 1.1161e-15 0)
(3 9.23116e-16 0)
(3 1.44906e-16 0)
(3 -4.54412e-16 0)
(3 -3.68546e-16 0)
(3 -2.08284e-16 0)
(3 -1.35431e-16 0)
(3 -6.79373e-16 0)
(3 -1.25474e-15 0)
(3 -1.14111e-15 0)
(3 -9.83103e-16 0)
(3 -4.7804e-16 0)
(3 -3.6071e-17 0)
(3 -5.5568e-16 0)
(3 -1.18758e-15 0)
(3 -1.54741e-15 0)
(3 -1.22096e-15 0)
(3 2.01758e-16 0)
(3 2.22092e-15 0)
(3 3.39978e-15 0)
(3 3.14038e-15 0)
(3 2.63874e-15 0)
(3 2.36252e-15 0)
(3 2.46779e-15 0)
(3 2.1022e-15 0)
(3 1.60868e-15 0)
(3 1.40338e-15 0)
(3 1.12926e-15 0)
(3 -1.02303e-15 0)
(1.68293 0.135801 0)
(0.804312 0.118429 0)
(0.751916 0.119186 0)
(0.740652 0.129388 0)
(0.724705 0.134626 0)
(0.708942 0.137608 0)
(0.69203 0.136866 0)
(0.675053 0.132931 0)
(0.658563 0.128261 0)
(0.642756 0.126758 0)
(0.628045 0.129394 0)
(0.61431 0.134895 0)
(0.60064 0.140812 0)
(0.586057 0.14422 0)
(0.570706 0.143455 0)
(0.555219 0.139592 0)
(0.53951 0.136736 0)
(0.524144 0.138422 0)
(0.50993 0.144351 0)
(0.495655 0.150679 0)
(0.479943 0.153176 0)
(0.463805 0.15079 0)
(0.447409 0.149054 0)
(0.431537 0.152293 0)
(0.415977 0.157206 0)
(0.399824 0.159106 0)
(0.383616 0.159604 0)
(0.367296 0.161796 0)
(0.350752 0.165234 0)
(0.333661 0.168137 0)
(0.316175 0.170149 0)
(0.29842 0.172153 0)
(0.280461 0.17455 0)
(0.262289 0.176931 0)
(0.24383 0.178949 0)
(0.225019 0.180984 0)
(0.205843 0.183239 0)
(0.186363 0.185641 0)
(0.166688 0.188052 0)
(0.146938 0.190725 0)
(0.127136 0.193487 0)
(0.107292 0.195743 0)
(0.08757 0.199064 0)
(0.0679909 0.202466 0)
(0.0487116 0.206839 0)
(0.0291511 0.20966 0)
(0.00997502 0.21364 0)
(3 -1.40972e-16 0)
(3 -2.51012e-18 0)
(3 -1.60298e-16 0)
(3 1.93878e-17 0)
(3 -2.39253e-16 0)
(3 -3.82799e-16 0)
(3 -3.87314e-16 0)
(3 -3.04734e-16 0)
(3 6.14864e-17 0)
(3 -1.14249e-16 0)
(3 -3.83611e-16 0)
(3 -5.33529e-16 0)
(3 -6.11261e-16 0)
(3 -5.06264e-16 0)
(3 -3.22139e-16 0)
(3 1.4686e-16 0)
(3 5.91917e-16 0)
(3 3.07102e-16 0)
(3 5.71112e-16 0)
(3 6.18514e-16 0)
(3 3.96515e-16 0)
(3 2.98484e-16 0)
(3 3.72171e-16 0)
(3 -1.10684e-16 0)
(3 -4.81925e-16 0)
(3 -3.06742e-16 0)
(3 -6.37153e-16 0)
(3 -8.01899e-16 0)
(3 -1.05099e-15 0)
(3 -1.25889e-15 0)
(3 -1.2779e-15 0)
(3 -1.07421e-15 0)
(3 -9.92569e-16 0)
(3 -7.25921e-16 0)
(3 -7.0685e-16 0)
(3 -1.95891e-15 0)
(3 -1.61534e-15 0)
(3 4.84645e-16 0)
(3 1.37348e-15 0)
(3 1.39474e-15 0)
(3 1.54316e-15 0)
(3 2.33544e-15 0)
(3 2.82047e-15 0)
(3 2.59712e-15 0)
(3 2.28685e-15 0)
(3 2.81865e-15 0)
(3 2.6647e-15 0)
(3 2.80402e-15 0)
(3 -8.61237e-16 0)
(1.96421 0.15449 0)
(0.832193 0.154569 0)
(0.750507 0.140233 0)
(0.738397 0.150324 0)
(0.722392 0.157057 0)
(0.706955 0.162342 0)
(0.690082 0.163651 0)
(0.673204 0.160267 0)
(0.656737 0.154838 0)
(0.640761 0.151392 0)
(0.62575 0.152408 0)
(0.612052 0.157383 0)
(0.598968 0.164059 0)
(0.585091 0.16902 0)
(0.57016 0.169812 0)
(0.554826 0.166803 0)
(0.539179 0.163436 0)
(0.523573 0.163718 0)
(0.509111 0.168757 0)
(0.49536 0.175791 0)
(0.4803 0.180092 0)
(0.464402 0.179037 0)
(0.448209 0.177058 0)
(0.432444 0.179805 0)
(0.417331 0.185114 0)
(0.401517 0.187922 0)
(0.385527 0.189055 0)
(0.369515 0.191753 0)
(0.353407 0.195838 0)
(0.3368 0.199504 0)
(0.319756 0.202264 0)
(0.302443 0.204986 0)
(0.284923 0.208163 0)
(0.267135 0.211402 0)
(0.248952 0.214223 0)
(0.2303 0.21699 0)
(0.211142 0.219948 0)
(0.191531 0.222974 0)
(0.171569 0.225818 0)
(0.151383 0.228729 0)
(0.131005 0.231578 0)
(0.11044 0.233577 0)
(0.0899588 0.236691 0)
(0.0695647 0.239784 0)
(0.0496303 0.244115 0)
(0.0295493 0.246923 0)
(0.0101561 0.251201 0)
(3 9.71433e-17 0)
(3 3.03394e-16 0)
(3 5.44244e-16 0)
(3 1.00223e-15 0)
(3 1.46763e-15 0)
(3 1.53932e-15 0)
(3 1.71843e-15 0)
(3 2.31276e-15 0)
(3 1.89321e-15 0)
(3 7.80554e-16 0)
(3 4.25018e-16 0)
(3 -9.17996e-17 0)
(3 -9.8671e-17 0)
(3 2.05049e-16 0)
(3 3.52558e-16 0)
(3 1.99177e-16 0)
(3 -2.054e-16 0)
(3 -9.35371e-16 0)
(3 -1.23934e-15 0)
(3 -1.12428e-15 0)
(3 -1.4198e-15 0)
(3 -1.71885e-15 0)
(3 -1.13627e-15 0)
(3 -1.2621e-15 0)
(3 -1.58455e-15 0)
(3 -1.83937e-15 0)
(3 -2.31502e-15 0)
(3 -2.53576e-15 0)
(3 -2.04686e-15 0)
(3 -2.02079e-15 0)
(3 -1.05134e-15 0)
(3 -4.46639e-16 0)
(3 -4.78574e-16 0)
(3 -4.75044e-16 0)
(3 -2.62802e-16 0)
(3 -5.37931e-16 0)
(3 -1.17213e-15 0)
(3 -9.34195e-16 0)
(3 -4.3091e-16 0)
(3 -3.72733e-16 0)
(3 -6.82149e-17 0)
(3 8.66638e-17 0)
(3 6.65427e-16 0)
(3 1.20204e-15 0)
(3 1.76584e-15 0)
(3 2.13149e-15 0)
(3 2.44232e-15 0)
(3 2.86748e-15 0)
(3 2.23239e-15 0)
(2.34043 0.159814 0)
(0.884267 0.19473 0)
(0.758372 0.167878 0)
(0.743708 0.175478 0)
(0.728368 0.182148 0)
(0.714466 0.188511 0)
(0.699473 0.191028 0)
(0.683858 0.188906 0)
(0.667753 0.183927 0)
(0.651417 0.17926 0)
(0.635386 0.178506 0)
(0.620581 0.182391 0)
(0.607009 0.18913 0)
(0.593228 0.195248 0)
(0.578352 0.197657 0)
(0.56278 0.195929 0)
(0.54679 0.192566 0)
(0.53058 0.191508 0)
(0.515137 0.195125 0)
(0.500995 0.202208 0)
(0.486199 0.208236 0)
(0.470053 0.20917 0)
(0.453503 0.207223 0)
(0.43719 0.209141 0)
(0.421841 0.214481 0)
(0.405874 0.218159 0)
(0.38956 0.219859 0)
(0.373284 0.222818 0)
(0.3571 0.227328 0)
(0.340582 0.231671 0)
(0.323671 0.235161 0)
(0.306576 0.238588 0)
(0.289379 0.242543 0)
(0.271985 0.246723 0)
(0.254191 0.25052 0)
(0.23589 0.254234 0)
(0.216998 0.258169 0)
(0.197511 0.262172 0)
(0.177483 0.265851 0)
(0.157048 0.269409 0)
(0.136244 0.272739 0)
(0.115045 0.274815 0)
(0.0938066 0.277922 0)
(0.0724629 0.280753 0)
(0.0516158 0.284975 0)
(0.0307272 0.28771 0)
(0.0105718 0.292203 0)
(3 2.29345e-17 0)
(3 2.13945e-16 0)
(3 3.11871e-16 0)
(3 2.02658e-16 0)
(3 1.82658e-16 0)
(3 1.98008e-16 0)
(3 1.48122e-16 0)
(3 1.22865e-16 0)
(3 -4.85613e-16 0)
(3 -8.78324e-16 0)
(3 -1.13415e-16 0)
(3 6.46423e-17 0)
(3 2.59001e-16 0)
(3 6.2873e-16 0)
(3 7.86479e-16 0)
(3 3.25843e-16 0)
(3 -1.67164e-16 0)
(3 -1.92551e-16 0)
(3 -9.54122e-16 0)
(3 -1.1199e-15 0)
(3 -1.54702e-15 0)
(3 -1.97263e-15 0)
(3 -1.90089e-15 0)
(3 -1.57359e-15 0)
(3 -1.50841e-15 0)
(3 -1.8605e-15 0)
(3 -1.97831e-15 0)
(3 -2.85987e-15 0)
(3 -2.52393e-15 0)
(3 -2.12624e-15 0)
(3 -1.86794e-15 0)
(3 -1.25375e-15 0)
(3 -4.72894e-16 0)
(3 -4.97559e-16 0)
(3 -4.63037e-16 0)
(3 -1.30341e-16 0)
(3 5.51082e-18 0)
(3 4.13782e-16 0)
(3 1.25315e-16 0)
(3 -2.21372e-16 0)
(3 -3.46184e-16 0)
(3 -7.09891e-17 0)
(3 2.55352e-16 0)
(3 1.64186e-15 0)
(3 1.82726e-15 0)
(3 1.59835e-15 0)
(3 1.55152e-15 0)
(3 1.81917e-15 0)
(3 1.91695e-15 0)
(2.75232 0.144412 0)
(0.974175 0.233583 0)
(0.7795 0.194963 0)
(0.768223 0.19805 0)
(0.752422 0.202232 0)
(0.738666 0.207017 0)
(0.72437 0.210946 0)
(0.709048 0.212228 0)
(0.69293 0.209987 0)
(0.67633 0.206223 0)
(0.659525 0.204614 0)
(0.643394 0.207398 0)
(0.628597 0.213897 0)
(0.614284 0.221113 0)
(0.599171 0.225584 0)
(0.583192 0.225947 0)
(0.566662 0.223604 0)
(0.549728 0.22183 0)
(0.533016 0.223862 0)
(0.51765 0.230394 0)
(0.502734 0.238023 0)
(0.486314 0.241797 0)
(0.4691 0.240799 0)
(0.451804 0.241882 0)
(0.43555 0.246943 0)
(0.419015 0.251528 0)
(0.401888 0.253985 0)
(0.384674 0.257131 0)
(0.367628 0.261877 0)
(0.350407 0.266778 0)
(0.332816 0.270924 0)
(0.315055 0.274926 0)
(0.297275 0.279487 0)
(0.279406 0.284504 0)
(0.261186 0.289287 0)
(0.242498 0.294003 0)
(0.223267 0.299014 0)
(0.203475 0.304179 0)
(0.183135 0.30895 0)
(0.162391 0.313447 0)
(0.141267 0.317596 0)
(0.119615 0.320114 0)
(0.0977809 0.323464 0)
(0.0756781 0.326136 0)
(0.0539392 0.330257 0)
(0.0321537 0.332854 0)
(0.0110841 0.337536 0)
(3 -2.20561e-16 0)
(3 -2.19207e-16 0)
(3 -4.72322e-16 0)
(3 -6.86611e-16 0)
(3 -1.30912e-15 0)
(3 -1.17513e-15 0)
(3 -1.30478e-15 0)
(3 -1.66341e-15 0)
(3 -2.09326e-15 0)
(3 -2.44124e-15 0)
(3 -2.35199e-15 0)
(3 -1.71163e-15 0)
(3 -3.98775e-16 0)
(3 -2.42084e-17 0)
(3 1.72859e-16 0)
(3 2.46586e-16 0)
(3 2.39186e-16 0)
(3 1.53854e-16 0)
(3 4.91263e-17 0)
(3 -2.0912e-16 0)
(3 -5.35171e-16 0)
(3 -1.95554e-16 0)
(3 -1.15526e-16 0)
(3 4.47206e-17 0)
(3 1.68572e-16 0)
(3 3.31411e-16 0)
(3 1.95569e-16 0)
(3 2.23292e-16 0)
(3 5.58959e-16 0)
(3 -2.49843e-16 0)
(3 -9.77412e-16 0)
(3 -9.582e-16 0)
(3 -1.31703e-15 0)
(3 -6.82573e-16 0)
(3 -2.44648e-16 0)
(3 6.89204e-16 0)
(3 1.5588e-15 0)
(3 1.82652e-15 0)
(3 3.25247e-16 0)
(3 -2.63657e-16 0)
(3 -1.56537e-16 0)
(3 9.96132e-17 0)
(3 5.03105e-16 0)
(3 3.62403e-16 0)
(3 -2.36544e-16 0)
(3 -2.37752e-16 0)
(3 -8.12616e-16 0)
(3 -9.49944e-16 0)
(3 -8.99211e-16 0)
(3.01568 0.00860557 0)
(1.1285 0.247279 0)
(0.798707 0.205873 0)
(0.786459 0.22048 0)
(0.771537 0.227928 0)
(0.756886 0.233182 0)
(0.742732 0.237698 0)
(0.728424 0.239608 0)
(0.713972 0.238534 0)
(0.698942 0.235998 0)
(0.683214 0.234441 0)
(0.667414 0.236147 0)
(0.652518 0.241433 0)
(0.63856 0.24826 0)
(0.62442 0.253576 0)
(0.609421 0.255669 0)
(0.593515 0.254927 0)
(0.576851 0.253323 0)
(0.559816 0.253833 0)
(0.543504 0.258794 0)
(0.528476 0.266971 0)
(0.512603 0.273747 0)
(0.495268 0.275288 0)
(0.477447 0.276052 0)
(0.460341 0.280571 0)
(0.443371 0.286115 0)
(0.425561 0.28996 0)
(0.407321 0.293726 0)
(0.389112 0.298883 0)
(0.370821 0.304553 0)
(0.352181 0.309641 0)
(0.33333 0.314406 0)
(0.314512 0.319583 0)
(0.295751 0.325367 0)
(0.276759 0.331078 0)
(0.257388 0.336678 0)
(0.237573 0.342571 0)
(0.217264 0.34878 0)
(0.19636 0.354698 0)
(0.174929 0.360388 0)
(0.15299 0.365894 0)
(0.130205 0.369637 0)
(0.106978 0.374008 0)
(0.0831519 0.377182 0)
(0.05942 0.381575 0)
(0.0355025 0.384181 0)
(0.0122539 0.389191 0)
(3 6.99503e-17 0)
(3 -4.66668e-16 0)
(3 -4.92248e-16 0)
(3 -5.34235e-16 0)
(3 -5.95275e-16 0)
(3 -5.22219e-16 0)
(3 -3.42837e-16 0)
(3 -1.54949e-16 0)
(3 -4.32088e-16 0)
(3 -8.40336e-16 0)
(3 -1.16697e-15 0)
(3 -1.5481e-15 0)
(3 -1.64739e-15 0)
(3 -1.60947e-15 0)
(3 -1.55048e-15 0)
(3 -3.21729e-16 0)
(3 -1.8698e-16 0)
(3 -2.74238e-16 0)
(3 -2.11946e-16 0)
(3 -2.98974e-16 0)
(3 -2.41137e-16 0)
(3 2.17738e-16 0)
(3 3.91744e-16 0)
(3 3.89081e-17 0)
(3 -4.80126e-16 0)
(3 8.76014e-17 0)
(3 9.41107e-16 0)
(3 1.8678e-15 0)
(3 1.85088e-15 0)
(3 3.47708e-16 0)
(3 -4.9878e-16 0)
(3 -1.25216e-15 0)
(3 -1.65329e-15 0)
(3 -1.994e-15 0)
(3 -1.61672e-15 0)
(3 1.35139e-15 0)
(3 1.99537e-15 0)
(3 1.25381e-15 0)
(3 1.17938e-15 0)
(3 4.72531e-16 0)
(3 -5.50613e-16 0)
(3 -9.23944e-16 0)
(3 -9.85082e-16 0)
(3 -2.30686e-15 0)
(3 -1.74688e-15 0)
(3 -1.49548e-15 0)
(3 -1.64646e-15 0)
(3 -2.16396e-15 0)
(3 -2.80086e-15 0)
(3.00023 9.3053e-06 0)
(1.46856 0.273124 0)
(0.812617 0.240164 0)
(0.77247 0.249675 0)
(0.757853 0.256898 0)
(0.743766 0.260371 0)
(0.731612 0.263783 0)
(0.719577 0.265555 0)
(0.707395 0.266052 0)
(0.694453 0.26593 0)
(0.6807 0.266187 0)
(0.666591 0.268221 0)
(0.652937 0.272679 0)
(0.640175 0.278748 0)
(0.62779 0.284607 0)
(0.614855 0.288564 0)
(0.600958 0.29008 0)
(0.586088 0.290022 0)
(0.57046 0.290393 0)
(0.554749 0.293783 0)
(0.540229 0.301253 0)
(0.526189 0.309859 0)
(0.510609 0.314555 0)
(0.494115 0.315957 0)
(0.477801 0.3198 0)
(0.461938 0.325791 0)
(0.445273 0.331075 0)
(0.427745 0.335686 0)
(0.409863 0.341122 0)
(0.391818 0.347312 0)
(0.37337 0.353256 0)
(0.354486 0.358828 0)
(0.335335 0.36462 0)
(0.31603 0.371159 0)
(0.296283 0.377932 0)
(0.275876 0.384671 0)
(0.254777 0.391752 0)
(0.233037 0.399404 0)
(0.210604 0.406999 0)
(0.187599 0.414384 0)
(0.1642 0.42176 0)
(0.14007 0.427247 0)
(0.115624 0.43306 0)
(0.0902877 0.437222 0)
(0.0646551 0.442035 0)
(0.0385741 0.444502 0)
(0.0132161 0.449653 0)
(3 4.44434e-17 0)
(3 -7.6601e-17 0)
(3 -2.0365e-16 0)
(3 -1.11017e-16 0)
(3 3.53582e-16 0)
(3 2.19811e-16 0)
(3 2.57718e-16 0)
(3 2.0989e-16 0)
(3 6.06053e-16 0)
(3 1.2927e-15 0)
(3 1.58151e-15 0)
(3 6.53199e-16 0)
(3 -7.95466e-16 0)
(3 -1.29626e-15 0)
(3 -1.54556e-15 0)
(3 -1.07129e-15 0)
(3 1.22054e-16 0)
(3 6.04212e-16 0)
(3 2.61592e-16 0)
(3 -5.16741e-16 0)
(3 -1.05302e-15 0)
(3 -1.25625e-15 0)
(3 -1.50257e-15 0)
(3 -1.84321e-15 0)
(3 -1.77302e-15 0)
(3 -1.60498e-15 0)
(3 -5.07765e-16 0)
(3 9.28821e-17 0)
(3 -1.3192e-16 0)
(3 -1.19697e-15 0)
(3 -1.66481e-15 0)
(3 -2.61757e-15 0)
(3 -2.4818e-15 0)
(3 -2.63415e-15 0)
(3 -2.83512e-15 0)
(3 -1.35693e-15 0)
(3 2.78782e-16 0)
(3 3.3052e-16 0)
(3 6.92317e-16 0)
(3 8.1561e-16 0)
(3 7.20525e-16 0)
(3 5.43293e-16 0)
(3 3.00735e-16 0)
(3 -3.81286e-16 0)
(3 -6.59668e-16 0)
(3 -4.39546e-16 0)
(3 -1.03927e-15 0)
(3 -1.30318e-15 0)
(3 -1.75377e-15 0)
(3 1.33105e-08 0)
(2.12539 0.288935 0)
(0.869367 0.301534 0)
(0.773752 0.28947 0)
(0.763064 0.283497 0)
(0.751438 0.28451 0)
(0.740578 0.28642 0)
(0.729353 0.288784 0)
(0.717656 0.290971 0)
(0.70522 0.293042 0)
(0.692099 0.295087 0)
(0.678639 0.297667 0)
(0.66539 0.301423 0)
(0.652787 0.306399 0)
(0.640818 0.312019 0)
(0.628864 0.31725 0)
(0.616174 0.321033 0)
(0.602485 0.323106 0)
(0.587895 0.324361 0)
(0.572744 0.326881 0)
(0.55807 0.333055 0)
(0.544751 0.342301 0)
(0.530866 0.350226 0)
(0.515717 0.353807 0)
(0.500343 0.357559 0)
(0.485449 0.363746 0)
(0.470171 0.370592 0)
(0.453796 0.376903 0)
(0.436585 0.383387 0)
(0.419 0.390699 0)
(0.401012 0.398222 0)
(0.382507 0.405587 0)
(0.363427 0.412957 0)
(0.343986 0.420975 0)
(0.324019 0.429437 0)
(0.303286 0.437941 0)
(0.281751 0.446549 0)
(0.259648 0.455632 0)
(0.236889 0.4647 0)
(0.213391 0.473366 0)
(0.189355 0.482386 0)
(0.163967 0.49017 0)
(0.137435 0.499038 0)
(0.108707 0.507003 0)
(0.0783594 0.514513 0)
(0.0467085 0.518072 0)
(0.0157157 0.523216 0)
(3 4.96556e-17 0)
(3 -5.30176e-18 0)
(3 8.83833e-17 0)
(3 4.69219e-16 0)
(3 7.5055e-16 0)
(3 7.99707e-16 0)
(3 6.18259e-16 0)
(3 2.74009e-16 0)
(3 5.21967e-16 0)
(3 9.0896e-16 0)
(3 1.26936e-15 0)
(3 1.77409e-15 0)
(3 1.8341e-15 0)
(3 1.43894e-15 0)
(3 8.69515e-16 0)
(3 -9.78519e-18 0)
(3 -4.80502e-16 0)
(3 -5.47428e-16 0)
(3 -9.9476e-16 0)
(3 -1.13573e-15 0)
(3 -1.61576e-15 0)
(3 -2.08137e-15 0)
(3 -2.73057e-15 0)
(3 -3.34677e-15 0)
(3 -3.32105e-15 0)
(3 -3.29199e-15 0)
(3 -3.14168e-15 0)
(3 -2.82493e-15 0)
(3 -2.8191e-15 0)
(3 -2.84008e-15 0)
(3 -2.19677e-15 0)
(3 -1.13002e-15 0)
(3 -6.42846e-16 0)
(3 1.85812e-17 0)
(3 1.26552e-16 0)
(3 -1.39838e-16 0)
(3 -8.79528e-16 0)
(3 -8.13974e-16 0)
(3 1.21552e-16 0)
(3 1.7017e-15 0)
(3 1.77118e-15 0)
(3 1.5649e-15 0)
(3 1.13383e-15 0)
(3 5.71582e-16 0)
(3 1.87029e-16 0)
(3 -1.96062e-16 0)
(3 -3.73104e-16 0)
(3 1.42745e-16 0)
(3 1.93838e-16 0)
(3 -3.78022e-09 0)
(2.9604 0.0649166 0)
(1.09212 0.345076 0)
(0.819542 0.308008 0)
(0.80341 0.300093 0)
(0.78753 0.302676 0)
(0.773263 0.305442 0)
(0.759588 0.309265 0)
(0.746093 0.313277 0)
(0.732612 0.317352 0)
(0.718944 0.321219 0)
(0.705119 0.324828 0)
(0.691432 0.328476 0)
(0.678241 0.332624 0)
(0.665762 0.337725 0)
(0.653855 0.343646 0)
(0.641819 0.349401 0)
(0.628944 0.353949 0)
(0.615043 0.357085 0)
(0.600321 0.359822 0)
(0.58539 0.364679 0)
(0.571613 0.373272 0)
(0.558647 0.383178 0)
(0.544596 0.390128 0)
(0.52989 0.394889 0)
(0.515428 0.401119 0)
(0.501069 0.408977 0)
(0.485912 0.417269 0)
(0.469614 0.425512 0)
(0.452676 0.43443 0)
(0.435364 0.443941 0)
(0.417711 0.453771 0)
(0.399273 0.463539 0)
(0.380277 0.473871 0)
(0.360424 0.484767 0)
(0.339634 0.495924 0)
(0.317516 0.50716 0)
(0.294136 0.518965 0)
(0.269408 0.531327 0)
(0.242937 0.543748 0)
(0.215123 0.557352 0)
(0.185408 0.570772 0)
(0.154661 0.585288 0)
(0.123121 0.599422 0)
(0.0902215 0.610735 0)
(0.0553815 0.616549 0)
(0.0177363 0.620031 0)
(3 -3.30991e-17 0)
(3 6.61351e-17 0)
(3 1.22007e-16 0)
(3 6.30376e-17 0)
(3 2.05406e-16 0)
(3 6.71771e-16 0)
(3 5.52672e-16 0)
(3 1.57098e-16 0)
(3 -1.49077e-16 0)
(3 1.88888e-16 0)
(3 9.19015e-16 0)
(3 1.72816e-15 0)
(3 1.64986e-15 0)
(3 1.01508e-15 0)
(3 5.05035e-16 0)
(3 1.14998e-16 0)
(3 -2.38671e-16 0)
(3 -2.60282e-16 0)
(3 -3.04545e-16 0)
(3 -2.70831e-16 0)
(3 -1.25775e-17 0)
(3 2.17652e-17 0)
(3 -3.26274e-16 0)
(3 -1.03444e-15 0)
(3 -1.46959e-15 0)
(3 -1.49889e-15 0)
(3 -1.50701e-15 0)
(3 -1.5727e-15 0)
(3 -1.43158e-15 0)
(3 -1.12976e-15 0)
(3 -1.939e-17 0)
(3 9.20162e-16 0)
(3 1.223e-15 0)
(3 1.51413e-15 0)
(3 1.3487e-15 0)
(3 9.88214e-16 0)
(3 6.31683e-16 0)
(3 7.15832e-16 0)
(3 8.77385e-16 0)
(3 9.1439e-16 0)
(3 -6.61095e-17 0)
(3 -6.99263e-16 0)
(3 -9.15515e-16 0)
(3 -4.41623e-16 0)
(3 -7.83673e-16 0)
(3 -1.24728e-15 0)
(3 -1.19823e-15 0)
(3 -1.00316e-15 0)
(3 -5.17702e-16 0)
(3 -2.98575e-10 0)
(3.00497 0.000827811 0)
(1.56685 0.363756 0)
(0.848911 0.34019 0)
(0.807922 0.346443 0)
(0.791048 0.347408 0)
(0.775987 0.347501 0)
(0.761421 0.348232 0)
(0.747373 0.350094 0)
(0.733975 0.353094 0)
(0.721075 0.356835 0)
(0.708417 0.360651 0)
(0.695892 0.364028 0)
(0.683651 0.367142 0)
(0.671937 0.370974 0)
(0.660924 0.376322 0)
(0.650403 0.382869 0)
(0.639599 0.389331 0)
(0.627864 0.394502 0)
(0.615122 0.398401 0)
(0.60168 0.402819 0)
(0.588523 0.410153 0)
(0.576722 0.420368 0)
(0.564895 0.430023 0)
(0.552074 0.436746 0)
(0.538959 0.443154 0)
(0.525973 0.45124 0)
(0.512795 0.460877 0)
(0.498585 0.47102 0)
(0.483437 0.481727 0)
(0.467873 0.493131 0)
(0.452196 0.505483 0)
(0.435694 0.51809 0)
(0.4189 0.531369 0)
(0.401212 0.545407 0)
(0.38242 0.560237 0)
(0.362093 0.575548 0)
(0.340286 0.591655 0)
(0.317135 0.608844 0)
(0.29236 0.626514 0)
(0.266442 0.64513 0)
(0.2392 0.663334 0)
(0.210182 0.68003 0)
(0.179479 0.697591 0)
(0.143098 0.718282 0)
(0.0972037 0.741885 0)
(0.0371301 0.761981 0)
(3 -5.95156e-17 0)
(3 -4.52326e-17 0)
(3 3.58794e-17 0)
(3 -1.05183e-17 0)
(3 1.40079e-17 0)
(3 -4.79922e-17 0)
(3 1.56929e-16 0)
(3 4.33868e-16 0)
(3 5.88172e-16 0)