/*--------------------------------*- C++ -*----------------------------------*\
  =========                 |
  \\      /  F ield         | OpenFOAM: The Open Source CFD Toolbox
   \\    /   O peration     | Website:  https://openfoam.org
    \\  /    A nd           | Version:  7
     \\/     M anipulation  |
\*---------------------------------------------------------------------------*/
FoamFile
{
    version     2.0;
    format      ascii;
    class       volScalarField;
    location    "0.007";
    object      rho;
}
// * * * * * * * * * * * * * * * * * * * * * * * * * * * * * * * * * * * * * //

dimensions      [1 -3 0 0 0 0 0];

internalField   nonuniform List<scalar> 
1000
(
0.997574
0.997574
0.997574
0.997574
0.997574
0.997574
0.997574
0.997574
0.997574
0.997574
0.997574
0.997574
0.997574
0.997574
0.997574
0.997574
0.997574
0.997574
0.997574
0.997574
0.997574
0.997574
0.997574
0.997574
0.997574
0.997574
0.997574
0.997574
0.997574
0.997574
0.997574
0.997574
0.997574
0.997574
0.997574
0.997574
0.997574
0.997574
0.997574
0.997574
0.997574
0.997574
0.997574
0.997574
0.997574
0.997574
0.997574
0.997574
0.997574
0.997574
0.997574
0.997574
0.997574
0.997574
0.997574
0.997574
0.997574
0.997574
0.997574
0.997574
0.997574
0.997574
0.997574
0.997574
0.997574
0.997574
0.997574
0.997574
0.997574
0.997574
0.997574
0.997574
0.997574
0.997574
0.997574
0.997574
0.997574
0.997574
0.997574
0.997574
0.997574
0.997574
0.997574
0.997574
0.997574
0.997574
0.997574
0.997574
0.997574
0.997574
0.997574
0.997574
0.997574
0.997574
0.997574
0.997574
0.997574
0.997574
0.997574
0.997574
0.997574
0.997574
0.997574
0.997574
0.997574
0.997574
0.997574
0.997574
0.997574
0.997574
0.997574
0.997574
0.997574
0.997574
0.997574
0.997574
0.997574
0.997574
0.997574
0.997574
0.997574
0.997574
0.997574
0.997574
0.997574
0.997574
0.997574
0.997574
0.997574
0.997574
0.997574
0.997574
0.997574
0.997574
0.997574
0.997574
0.997574
0.997574
0.997574
0.997574
0.997574
0.997574
0.997574
0.997574
0.997574
0.997574
0.997574
0.997574
0.997574
0.997574
0.997574
0.997574
0.997574
0.997574
0.997574
0.997574
0.997574
0.997574
0.997574
0.997574
0.997574
0.997574
0.997574
0.997574
0.997574
0.997574
0.997574
0.997574
0.997574
0.997574
0.997574
0.997574
0.997574
0.997574
0.997574
0.997574
0.997574
0.997574
0.997574
0.997574
0.997574
0.997574
0.997574
0.997574
0.997574
0.997574
0.997574
0.997574
0.997574
0.997573
0.997573
0.997573
0.997572
0.997571
0.99757
0.997568
0.997566
0.997563
0.997558
0.997553
0.997545
0.997535
0.997522
0.997505
0.997484
0.997456
0.99742
0.997375
0.997319
0.997248
0.997161
0.997055
0.996925
0.996768
0.99658
0.996357
0.996093
0.995784
0.995424
0.99501
0.994535
0.993995
0.993386
0.992704
0.991945
0.991106
0.990186
0.989181
0.988091
0.986916
0.985656
0.984311
0.982884
0.981376
0.979789
0.978127
0.976391
0.974586
0.972715
0.970781
0.968787
0.966738
0.964637
0.962487
0.960291
0.958052
0.955774
0.95346
0.951112
0.948732
0.946324
0.943889
0.94143
0.938949
0.936447
0.933926
0.931389
0.928835
0.926267
0.923686
0.921093
0.918489
0.915876
0.913254
0.910624
0.907986
0.905343
0.902693
0.900039
0.897381
0.894718
0.892053
0.889384
0.886714
0.884042
0.881368
0.878693
0.876018
0.873342
0.870667
0.867992
0.865318
0.862645
0.859973
0.857303
0.854634
0.851968
0.849303
0.846641
0.843982
0.841326
0.838673
0.836023
0.833376
0.830733
0.828093
0.825458
0.822826
0.820198
0.817575
0.814955
0.81234
0.80973
0.807124
0.804523
0.801927
0.799335
0.796748
0.794167
0.79159
0.789019
0.786452
0.783891
0.781335
0.778785
0.77624
0.7737
0.771166
0.768637
0.766114
0.763597
0.761085
0.758579
0.756079
0.753584
0.751095
0.748612
0.746134
0.743663
0.741197
0.738737
0.736284
0.733836
0.731394
0.728958
0.726528
0.724104
0.721685
0.719273
0.716867
0.714467
0.712073
0.709686
0.707304
0.704928
0.702559
0.700195
0.697838
0.695486
0.693141
0.690802
0.688469
0.686142
0.683822
0.681507
0.679199
0.676896
0.6746
0.67231
0.670027
0.667749
0.665478
0.663212
0.660953
0.6587
0.656454
0.654213
0.651979
0.64975
0.647529
0.645311
0.643104
0.640896
0.638707
0.636501
0.63434
0.632123
0.63001
0.627755
0.625718
0.6234
0.621458
0.619072
0.617206
0.614803
0.612932
0.61061
0.608636
0.606469
0.604367
0.60232
0.600178
0.598139
0.596052
0.593972
0.591933
0.589862
0.587815
0.585781
0.583734
0.581708
0.579687
0.577663
0.575655
0.573651
0.571649
0.569658
0.567672
0.56569
0.563717
0.561751
0.559788
0.557834
0.555886
0.553943
0.552008
0.550078
0.548156
0.546239
0.54433
0.542427
0.54053
0.53864
0.536757
0.53488
0.53301
0.531147
0.529291
0.527441
0.525598
0.523762
0.521934
0.520112
0.518297
0.51649
0.51469
0.512898
0.511112
0.509335
0.507565
0.505802
0.504048
0.502302
0.500564
0.498833
0.497112
0.495399
0.493694
0.491999
0.490312
0.488635
0.486967
0.485309
0.483661
0.482023
0.480396
0.478779
0.477174
0.47558
0.473998
0.472428
0.470872
0.469327
0.467797
0.466281
0.46478
0.463294
0.461823
0.46037
0.458933
0.457515
0.456115
0.454735
0.453375
0.452038
0.450722
0.44943
0.448163
0.446921
0.445707
0.44452
0.443363
0.442236
0.441142
0.44008
0.439053
0.438062
0.437107
0.436191
0.435314
0.434478
0.433682
0.432929
0.432218
0.43155
0.430925
0.430343
0.429804
0.429307
0.428852
0.428437
0.428061
0.427723
0.42742
0.427152
0.426915
0.426707
0.426526
0.42637
0.426236
0.426122
0.426026
0.425945
0.425877
0.425821
0.425775
0.425736
0.425705
0.425679
0.425658
0.425641
0.425626
0.425614
0.425604
0.425596
0.425588
0.425582
0.425576
0.425571
0.425567
0.425562
0.425559
0.425555
0.425552
0.425548
0.425546
0.425542
0.42554
0.425536
0.425534
0.425531
0.425529
0.425525
0.425524
0.42552
0.425518
0.425515
0.425513
0.425509
0.425507
0.425503
0.425502
0.425498
0.425496
0.425492
0.42549
0.425486
0.425484
0.42548
0.425478
0.425473
0.425471
0.425467
0.425465
0.42546
0.425458
0.425453
0.425451
0.425446
0.425444
0.425439
0.425437
0.425431
0.425429
0.425424
0.425422
0.425416
0.425414
0.425408
0.425406
0.425399
0.425397
0.425391
0.425388
0.425382
0.425379
0.425372
0.42537
0.425363
0.42536
0.425353
0.425351
0.425343
0.42534
0.425332
0.42533
0.425321
0.425319
0.42531
0.425307
0.425298
0.425295
0.425286
0.425283
0.425273
0.42527
0.425261
0.425256
0.425249
0.425241
0.425234
0.425227
0.42522
0.425212
0.425204
0.425196
0.425188
0.42518
0.425171
0.425162
0.425154
0.425145
0.425135
0.425126
0.425116
0.425106
0.425096
0.425086
0.425075
0.425064
0.425053
0.425042
0.42503
0.425018
0.425006
0.424993
0.42498
0.424966
0.424952
0.424937
0.424922
0.424907
0.424891
0.424875
0.424858
0.42484
0.424822
0.424803
0.424784
0.424763
0.424743
0.424721
0.424698
0.424675
0.424651
0.424625
0.424599
0.424571
0.424542
0.424512
0.424481
0.424448
0.424413
0.424377
0.424339
0.424298
0.424256
0.424211
0.424163
0.424112
0.424059
0.424002
0.423943
0.423878
0.423807
0.423729
0.423644
0.423552
0.423459
0.423369
0.423286
0.423212
0.423144
0.423067
0.422958
0.422776
0.422468
0.421964
0.421184
0.420039
0.418438
0.416293
0.413526
0.410076
0.405906
0.401004
0.395387
0.389103
0.382228
0.374862
0.367123
0.359144
0.35106
0.343006
0.335109
0.327482
0.320223
0.313408
0.307094
0.301318
0.296097
0.291434
0.287314
0.283714
0.280602
0.277938
0.275681
0.273786
0.272211
0.270914
0.269855
0.268999
0.268312
0.267766
0.267336
0.266999
0.266738
0.266537
0.266383
0.266266
0.266177
0.266111
0.266061
0.266024
0.265997
0.265976
0.26596
0.265949
0.26594
0.265933
0.265928
0.265923
0.26592
0.265917
0.265914
0.265912
0.26591
0.265909
0.265907
0.265906
0.265905
0.265904
0.265903
0.265903
0.265902
0.265902
0.265901
0.265901
0.2659
0.2659
0.265899
0.265899
0.265898
0.265898
0.265898
0.265897
0.265897
0.265897
0.265897
0.265897
0.265896
0.265896
0.265896
0.265896
0.265896
0.265896
0.265895
0.265895
0.265895
0.265895
0.265894
0.265894
0.265894
0.265893
0.265893
0.265893
0.265893
0.265893
0.265893
0.265893
0.265893
0.265893
0.265893
0.265892
0.265892
0.265892
0.265892
0.265891
0.265891
0.26589
0.26589
0.26589
0.265889
0.265889
0.265889
0.265889
0.265889
0.265889
0.265889
0.265889
0.265889
0.265889
0.265889
0.265889
0.265888
0.265888
0.265887
0.265887
0.265886
0.265886
0.265886
0.265886
0.265886
0.265886
0.265886
0.265886
0.265886
0.265886
0.265886
0.265886
0.265885
0.265885
0.265885
0.265884
0.265883
0.265883
0.265882
0.265882
0.265881
0.265881
0.265881
0.265881
0.265882
0.265882
0.265882
0.265882
0.265882
0.265882
0.265881
0.265881
0.26588
0.26588
0.265879
0.265878
0.265877
0.265876
0.265875
0.265875
0.265875
0.265876
0.265877
0.265877
0.265878
0.265878
0.265877
0.265877
0.265876
0.265874
0.265873
0.265871
0.265871
0.265866
0.265863
0.265853
0.265844
0.26582
0.2658
0.265723
0.265678
0.265474
0.265239
0.264628
0.263125
0.26015
0.252254
0.235461
0.206697
0.173328
0.146807
0.132414
0.126898
0.125265
0.124839
0.124732
0.124705
0.124699
0.124697
0.124697
0.124697
0.124697
0.124697
0.124697
0.124697
0.124697
0.124697
0.124697
0.124697
0.124697
0.124697
0.124697
0.124697
0.124697
0.124697
0.124697
0.124697
0.124697
0.124697
0.124697
0.124697
0.124697
0.124697
0.124697
0.124697
0.124697
0.124697
0.124697
0.124697
0.124697
0.124697
0.124697
0.124697
0.124697
0.124697
0.124697
0.124697
0.124697
0.124697
0.124697
0.124697
0.124697
0.124697
0.124697
0.124697
0.124697
0.124697
0.124697
0.124697
0.124697
0.124697
0.124697
0.124697
0.124697
0.124697
0.124697
0.124697
0.124697
0.124697
0.124697
0.124697
0.124697
0.124697
0.124697
0.124697
0.124697
0.124697
0.124697
0.124697
0.124697
0.124697
0.124697
0.124697
0.124697
0.124697
0.124697
0.124697
0.124697
0.124697
0.124697
0.124697
0.124697
0.124697
0.124697
0.124697
0.124697
0.124697
0.124697
0.124697
0.124697
0.124697
0.124697
0.124697
0.124697
0.124697
0.124697
0.124697
0.124697
0.124697
0.124697
0.124697
0.124697
)
;

boundaryField
{
    sides
    {
        type            calculated;
        value           nonuniform List<scalar> 2(0.124697 0.997574);
    }
    empty
    {
        type            empty;
    }
}


// ************************************************************************* //
