/*--------------------------------*- C++ -*----------------------------------*\
  =========                 |
  \\      /  F ield         | OpenFOAM: The Open Source CFD Toolbox
   \\    /   O peration     | Website:  https://openfoam.org
    \\  /    A nd           | Version:  7
     \\/     M anipulation  |
\*---------------------------------------------------------------------------*/
FoamFile
{
    version     2.0;
    format      ascii;
    class       volScalarField;
    location    "4.6";
    object      T;
}
// * * * * * * * * * * * * * * * * * * * * * * * * * * * * * * * * * * * * * //

dimensions      [0 0 0 1 0 0 0];

internalField   nonuniform List<scalar> 
1000
(
0
0
0
0
0
0
0
0
0
0
0
0
0
0
0
0
0
0
0
0
0
0
0
0
0
0
0
0
0
0
0
0
0
0
0
-4.94066e-324
9.88131e-323
-3.7302e-321
1.38768e-319
-5.03275e-318
1.78247e-316
-6.16742e-315
2.08548e-313
-6.8942e-312
2.22886e-310
-7.04929e-309
2.18176e-307
-6.60992e-306
1.96083e-304
-5.6972e-303
1.62171e-301
-4.52366e-300
1.23686e-298
-3.31563e-297
8.71623e-296
-2.24754e-294
5.68582e-293
-1.41149e-291
3.43914e-290
-8.22609e-289
1.93192e-287
-4.45571e-286
1.00938e-284
-2.24631e-283
4.91181e-282
-1.05545e-280
2.22905e-279
-4.62762e-278
9.44523e-277
-1.89559e-275
3.74122e-274
-7.26231e-273
1.3867e-271
-2.60492e-270
4.81455e-269
-8.75629e-268
1.56724e-266
-2.76087e-265
4.78738e-264
-8.17212e-263
1.37341e-261
-2.27264e-260
3.70314e-259
-5.94228e-258
9.39111e-257
-1.46183e-255
2.24145e-254
-3.38564e-253
5.03812e-252
-7.38653e-251
1.06705e-249
-1.51891e-248
2.13062e-247
-2.94533e-246
4.01273e-245
-5.38825e-244
7.13145e-243
-9.30364e-242
1.19644e-240
-1.51676e-239
1.89557e-238
-2.33552e-237
2.83701e-236
-3.39772e-235
4.01214e-234
-4.67133e-233
5.36279e-232
-6.0707e-231
6.77631e-230
-7.4587e-229
8.09571e-228
-8.66514e-227
9.14596e-226
-9.51965e-225
9.77131e-224
-9.89069e-223
9.87286e-222
-9.71855e-221
9.43409e-220
-9.03098e-219
8.52516e-218
-7.93591e-217
7.28469e-216
-6.5938e-215
5.88522e-214
-5.1794e-213
4.49441e-212
-3.84529e-211
3.24364e-210
-2.69752e-209
2.2116e-208
-1.78746e-207
1.42407e-206
-1.11831e-205
8.65584e-205
-6.60293e-204
4.9638e-203
-3.67711e-202
2.68397e-201
-1.93012e-200
1.36737e-199
-9.54197e-199
6.55823e-198
-4.43894e-197
2.95841e-196
-1.94117e-195
1.25379e-194
-7.97025e-194
4.98572e-193
-3.06838e-192
1.85748e-191
-1.1058e-190
6.47231e-190
-3.72355e-189
2.10497e-188
-1.16892e-187
6.37423e-187
-3.41198e-186
1.79201e-185
-9.23048e-185
4.66053e-184
-2.30525e-183
1.11632e-182
-5.2884e-182
2.44878e-181
-1.10723e-180
4.88292e-180
-2.0974e-179
8.76032e-179
-3.55067e-178
1.39296e-177
-5.27184e-177
1.91625e-176
-6.64815e-176
2.18109e-175
-6.66558e-175
1.84606e-174
-4.35781e-174
7.15897e-174
2.85095e-174
-9.49066e-173
5.48833e-172
-2.30754e-171
8.01235e-171
-2.32734e-170
5.30699e-170
-6.73293e-170
-1.59448e-169
1.60307e-168
-7.45814e-168
2.56255e-167
-6.74219e-167
1.15064e-166
4.24512e-167
-1.36738e-165
6.9126e-165
-2.3358e-164
5.58085e-164
-6.55934e-164
-1.96399e-163
1.63054e-162
-6.40786e-162
1.68388e-161
-2.3833e-161
-3.91693e-161
4.11957e-160
-1.63461e-159
4.07579e-159
-4.51594e-159
-1.55653e-158
1.13219e-157
-3.84472e-157
7.55854e-157
-3.58962e-158
-6.475e-156
2.91666e-155
-7.25678e-155
6.57033e-155
3.38022e-154
-2.01216e-153
5.69217e-153
-7.01406e-153
-1.84713e-152
1.34951e-151
-3.99913e-151
5.10499e-151
1.22786e-150
-9.06074e-150
2.58157e-149
-2.78608e-149
-9.92651e-149
6.03608e-148
-1.5078e-147
9.14503e-148
8.43086e-147
-3.83238e-146
7.48753e-146
2.45243e-146
-6.63872e-145
2.17647e-144
-2.62677e-144
-7.29219e-144
4.50109e-143
-9.96988e-143
3.25543e-144
7.27805e-142
-2.44842e-141
2.74119e-141
8.90369e-141
-4.87094e-140
9.18446e-140
5.83141e-140
-8.39644e-139
2.19955e-138
-8.42716e-139
-1.29056e-137
4.49204e-137
-4.45897e-137
-1.79144e-136
8.33385e-136
-1.19324e-135
-2.25531e-135
1.45323e-134
-2.57568e-134
-2.57902e-134
2.43688e-133
-4.95427e-133
-2.71943e-133
3.99625e-132
-8.82971e-132
-2.87729e-132
6.48553e-131
-1.48457e-130
-3.87749e-131
1.04838e-129
-2.37122e-129
-7.8691e-130
1.68882e-128
-3.5938e-128
-1.94672e-128
2.69679e-127
-5.11975e-127
-4.73399e-127
4.22614e-126
-6.71086e-126
-1.05872e-125
6.41041e-125
-7.72787e-125
-2.15761e-124
9.2486e-124
-6.88383e-124
-4.01194e-123
1.23975e-122
-2.05374e-123
-6.80055e-122
1.48803e-121
9.61344e-122
-1.04367e-120
1.48117e-120
3.08917e-120
-1.42629e-119
9.39205e-120
6.25959e-119
-1.67407e-118
-4.43153e-119
1.00624e-117
-1.53894e-117
-2.82566e-117
1.32932e-116
-7.35773e-117
-5.9526e-116
1.38926e-115
9.04434e-116
-8.89058e-115
9.47698e-115
3.202e-114
-1.00104e-113
-1.31376e-114
5.42907e-113
-7.50078e-113
-1.69466e-112
6.35481e-112
-5.12556e-113
-3.17365e-111
4.7385e-111
9.4788e-111
-3.69114e-110
2.39586e-111
1.81334e-109
-2.50768e-109
-5.73084e-109
1.97129e-108
3.28016e-109
-1.00531e-107
1.07266e-107
3.58096e-107
-9.44333e-107
-6.15177e-107
5.23316e-106
-3.01771e-106
-2.14724e-105
3.79428e-105
5.99354e-105
-2.41931e-104
-2.56018e-105
1.15141e-103
-1.05254e-103
-4.25637e-103
9.01948e-103
1.0742e-102
-5.12815e-102
-8.1954e-104
2.32344e-101
-2.05723e-101
-8.58567e-101
1.66369e-100
2.39488e-100
-9.36456e-100
-2.86218e-100
4.33953e-99
-2.17577e-99
-1.72025e-98
2.24776e-98
5.75623e-98
-1.38521e-97
-1.47829e-97
6.93802e-97
1.54885e-97
-3.03846e-96
1.32751e-96
1.19064e-95
-1.29532e-95
-4.1707e-95
7.84179e-95
1.26962e-94
-3.94092e-94
-3.04062e-94
1.77085e-93
3.1577e-94
-7.33032e-93
2.32664e-93
2.83404e-92
-2.24282e-92
-1.02905e-91
1.33799e-91
3.50695e-91
-6.6989e-91
-1.11289e-90
3.04119e-90
3.22128e-90
-1.29321e-89
-8.06795e-90
5.24051e-89
1.45988e-89
-2.04544e-88
2.76486e-90
7.74653e-88
-2.10834e-88
-2.86256e-87
1.45569e-87
1.03684e-86
-7.5558e-87
-3.69576e-86
3.4574e-86
1.30113e-85
-1.46878e-85
-4.54008e-85
5.93135e-85
1.5753e-84
-2.30616e-84
-5.45214e-84
8.69877e-84
1.88744e-83
-3.19809e-83
-6.55045e-83
1.14925e-82
2.28268e-82
-4.04261e-82
-7.9931e-82
1.39246e-81
2.81188e-81
-4.69297e-81
-9.92693e-81
1.54458e-80
3.51044e-80
-4.94725e-80
-1.24041e-79
1.53334e-79
4.36704e-79
-4.55595e-79
-1.52712e-78
1.27679e-78
5.28695e-78
-3.26852e-78
-1.8059e-77
7.06493e-78
6.06399e-77
-9.35311e-78
-1.99361e-76
-1.91648e-77
6.38668e-76
2.34247e-76
-1.98182e-75
-1.32749e-75
5.9081e-75
6.06735e-75
-1.67131e-74
-2.47305e-74
4.39287e-74
9.3097e-74
-1.02806e-73
-3.28347e-73
1.90838e-73
1.09026e-72
-1.40291e-73
-3.40347e-72
-1.03805e-72
9.91293e-72
7.63166e-72
-2.64804e-71
-3.55376e-71
6.24765e-71
1.37323e-70
-1.17552e-70
-4.69285e-70
1.03229e-70
1.44353e-69
4.80464e-70
-3.97738e-69
-3.65026e-69
9.52297e-69
1.61866e-68
-1.80299e-68
-5.77112e-68
1.6601e-68
1.76263e-67
6.39908e-68
-4.62459e-67
-4.83987e-67
9.92594e-67
2.03679e-66
-1.41296e-66
-6.70634e-66
-7.35973e-67
1.82287e-65
1.51711e-65
-3.9598e-65
-7.12864e-65
5.60602e-65
2.38809e-64
2.9196e-65
-6.31184e-64
-5.75546e-64
1.26051e-63
2.57561e-63
-1.31595e-63
-8.03192e-63
-3.1406e-63
1.89055e-62
2.44727e-62
-2.93995e-62
-9.06198e-62
-1.53309e-63
2.38312e-61
2.17436e-61
-4.30119e-61
-9.63148e-61
2.36652e-61
2.73261e-60
1.95344e-60
-5.23502e-60
-1.00682e-59
3.77475e-60
2.95905e-59
1.94365e-59
-5.64411e-59
-1.06158e-58
3.64471e-59
3.06741e-58
2.22937e-58
-5.43926e-58
-1.13022e-57
1.76399e-58
3.02112e-57
2.79366e-57
-4.52165e-57
-1.18705e-56
-1.78885e-57
2.74182e-56
3.49397e-56
-2.83765e-56
-1.17957e-55
-6.46879e-56
2.14412e-55
4.0555e-55
-5.02984e-56
-1.04418e-54
-1.11018e-54
1.20593e-54
4.12139e-54
2.06198e-54
-7.39801e-54
-1.39749e-53
5.1189e-55
3.39763e-53
4.10979e-53
-2.91939e-53
-1.34254e-52
-1.01408e-52
1.8732e-52
4.79717e-52
1.80341e-52
-8.90525e-52
-1.58852e-51
-1.27401e-53
3.68674e-51
4.94601e-51
-1.92686e-51
-1.40633e-50
-1.46287e-50
1.25008e-50
5.08711e-50
4.14806e-50
-5.91945e-50
-1.77695e-49
-1.14072e-49
2.44671e-49
6.07239e-49
3.09927e-49
-9.34347e-49
-2.05024e-48
-8.5834e-49
3.38076e-48
6.88935e-48
2.53445e-48
-1.17344e-47
-2.31473e-47
-8.32355e-48
3.92696e-47
7.79036e-47
3.06826e-47
-1.26647e-46
-2.62333e-46
-1.22935e-46
3.91165e-46
8.80333e-46
5.10996e-46
-1.14047e-45
-2.92459e-45
-2.12414e-45
3.04544e-45
9.53064e-45
8.63461e-45
-6.92564e-45
-3.00958e-44
-3.38763e-44
1.02151e-44
9.05295e-44
1.2711e-43
1.39588e-44
-2.5249e-43
-4.52099e-43
-2.12193e-43
6.19639e-43
1.50653e-42
1.22339e-42
-1.15803e-42
-4.61613e-42
-5.45077e-42
4.97884e-43
1.25543e-41
2.07883e-41
9.46122e-42
-2.78502e-41
-6.92695e-41
-6.30589e-41
3.57445e-41
1.98018e-40
2.78152e-40
7.84351e-41
-4.495e-40
-9.79675e-40
-8.25754e-40
5.70718e-40
2.79213e-39
3.91897e-39
1.31971e-39
-5.83607e-39
-1.36159e-38
-1.3053e-38
4.29336e-39
3.55367e-38
5.78532e-38
3.45504e-38
-5.60753e-38
-1.79186e-37
-2.24263e-37
-5.36511e-38
3.66897e-37
8.19578e-37
8.17116e-37
-1.28868e-37
-1.95909e-36
-3.55704e-36
-2.87886e-36
1.76455e-36
9.48487e-36
1.50856e-35
1.01749e-35
-1.11622e-35
-4.34733e-35
-6.38655e-35
-3.79253e-35
5.63183e-35
1.92672e-34
2.73768e-34
1.56871e-34
-2.4809e-34
-8.33097e-34
-1.19541e-33
-7.33829e-34
9.62015e-34
3.51192e-33
5.30067e-33
3.76933e-33
-3.09629e-33
-1.42824e-32
-2.35956e-32
-2.01729e-32
6.15736e-33
5.47232e-32
1.03512e-31
1.07453e-31
1.57735e-32
-1.88015e-31
-4.3627e-31
-5.51416e-31
-2.90518e-31
5.0832e-31
1.70222e-30
2.6562e-30
2.28667e-30
-4.71814e-31
-5.74614e-30
-1.16622e-29
-1.38721e-29
-6.63934e-30
1.3855e-29
4.44439e-29
7.04416e-29
6.5761e-29
2.17832e-30
-1.30448e-28
-2.97838e-28
-4.03007e-28
-2.97921e-28
1.54243e-28
9.63102e-28
1.87482e-27
2.29637e-27
1.39535e-27
-1.52452e-27
-6.37251e-27
-1.15402e-26
-1.35327e-26
-7.57632e-27
1.02611e-26
3.9429e-26
7.07448e-26
8.40805e-26
5.12531e-26
-5.27197e-26
-2.29313e-25
-4.31723e-25
-5.47528e-25
-4.07403e-25
1.60243e-25
1.21876e-24
2.57247e-24
3.63149e-24
3.39194e-24
6.57093e-25
-5.40112e-24
-1.435e-23
-2.34909e-23
-2.72339e-23
-1.75985e-23
1.33555e-23
6.87018e-23
1.39891e-22
2.00064e-22
2.01344e-22
8.15034e-23
-2.14533e-22
-6.95848e-22
-1.27385e-21
-1.71347e-21
-1.6166e-21
-4.78189e-22
2.14396e-21
6.3241e-21
1.13561e-20
1.53424e-20
1.49986e-20
5.98175e-21
-1.59084e-20
-5.24067e-20
-9.9394e-20
-1.43067e-19
-1.57106e-19
-1.03173e-19
6.2227e-20
3.71571e-19
8.19309e-19
1.326e-18
1.70147e-18
1.62277e-18
6.51473e-19
-1.67907e-18
-5.67685e-18
-1.11893e-17
-1.72051e-17
-2.14366e-17
-2.00424e-17
-7.74322e-18
2.1334e-17
7.17185e-17
1.43291e-16
2.2661e-16
2.97408e-16
3.11615e-16
2.03382e-16
-1.10202e-16
-7.12982e-16
-1.65717e-15
-2.91049e-15
-4.28287e-15
-5.33958e-15
-5.31902e-15
-3.08929e-15
2.80345e-15
1.3922e-14
3.14743e-14
5.55114e-14
8.37313e-14
1.09901e-13
1.22046e-13
1.00773e-13
1.83896e-14
-1.60118e-13
-4.72749e-13
-9.50876e-13
-1.60214e-12
-2.38378e-12
-3.16489e-12
-3.67821e-12
-3.46485e-12
-1.8212e-12
2.23503e-12
9.95165e-12
2.27397e-11
4.19229e-11
6.82621e-11
1.01161e-10
1.3745e-10
1.69645e-10
1.83616e-10
1.55663e-10
4.91257e-11
-1.89096e-10
-6.31398e-10
-1.37045e-09
-2.51626e-09
-4.18619e-09
-6.48336e-09
-9.45687e-09
-1.30348e-08
-1.69175e-08
-2.0415e-08
-2.22068e-08
-1.99966e-08
-1.00273e-08
1.35873e-08
5.97672e-08
1.41672e-07
2.78286e-07
4.9647e-07
8.33589e-07
1.34084e-06
2.08743e-06
3.16568e-06
4.69741e-06
6.84156e-06
9.80341e-06
1.38456e-05
1.9301e-05
2.6588e-05
3.62281e-05
4.88661e-05
6.52931e-05
8.64728e-05
0.000113571
0.000147986
0.00019139
0.00024576
0.000313427
0.00039712
0.000500011
0.000625769
0.00077861
0.000963354
0.00118548
0.00145117
0.00176738
0.00214187
0.0025833
0.00310119
0.00370605
0.00440935
0.00522356
0.00616218
0.00723974
0.00847177
0.00987481
0.0114663
0.0132648
0.0152893
0.01756
0.0200976
0.0229232
0.0260585
0.0295255
0.0333462
0.0375426
0.0421366
0.0471494
0.0526018
0.0585137
0.064904
0.0717901
0.0791883
0.087113
0.0955767
0.10459
0.114161
0.124296
0.134998
0.146267
0.158102
0.170497
0.183445
0.196935
0.210953
0.225483
0.240504
0.255996
0.271933
0.288288
0.30503
0.322129
0.339551
0.357259
0.375218
0.393388
0.41173
0.430205
0.448771
0.467388
0.486016
0.504614
0.523142
0.541562
0.559835
0.577925
0.595796
0.613416
0.630753
0.647776
0.664459
0.680775
0.696702
0.712219
0.727306
0.741949
0.756133
0.769847
0.783082
0.79583
0.808088
0.819852
0.831122
0.8419
0.852187
0.861991
0.871315
0.880168
0.888559
0.896497
0.903994
0.911061
0.917709
0.923952
0.929802
0.935272
0.940376
0.945126
0.949535
0.953615
0.957377
0.960833
0.963992
0.966864
0.969457
0.971777
0.973831
0.975623
0.977156
0.978431
0.97945
0.98021
0.980708
0.98094
0.980901
0.980582
0.979974
0.979068
0.977851
0.97631
0.974431
0.9722
0.969599
0.966613
0.963224
0.959414
0.955167
0.950464
0.945288
0.939623
0.933453
0.926762
0.919538
0.911767
0.90344
0.894548
0.885084
0.875043
0.864425
0.853229
0.841459
0.82912
0.816222
0.802775
0.788796
0.774298
0.759313
0.743811
0.728048
0.711075
0.697011
0.668885
)
;

boundaryField
{
    sides
    {
        type            zeroGradient;
    }
    empty
    {
        type            empty;
    }
}


// ************************************************************************* //
