/*--------------------------------*- C++ -*----------------------------------*\
  =========                 |
  \\      /  F ield         | OpenFOAM: The Open Source CFD Toolbox
   \\    /   O peration     | Website:  https://openfoam.org
    \\  /    A nd           | Version:  7
     \\/     M anipulation  |
\*---------------------------------------------------------------------------*/
FoamFile
{
    version     2.0;
    format      ascii;
    class       volScalarField;
    location    "5.2";
    object      p;
}
// * * * * * * * * * * * * * * * * * * * * * * * * * * * * * * * * * * * * * //

dimensions      [1 -1 -2 0 0 0 0];

internalField   nonuniform List<scalar> 
19968
(
1
1
1
1
1
1
1
1
1
1
1
1
1
1
1
1
1
1
1
1
1
1
1
1
1
1
1
1
1
1
1
1
1
1
1
1
1
1
1
1
1
1
1
1
1
1
1
1
1.52726
7.99227
10.4305
10.445
10.5151
10.5722
10.6324
10.6929
10.7529
10.8114
10.8668
10.9182
10.9661
11.0122
11.0585
11.1074
11.1602
11.2138
11.264
11.3095
11.3511
11.3907
11.4299
11.4703
11.5121
11.5536
11.5927
11.628
11.6597
11.6891
11.7183
11.7492
11.7824
11.8164
11.8488
11.8773
11.9009
11.9201
11.9364
11.9516
11.9669
11.9825
11.9978
12.0117
12.0233
12.032
12.0381
12.0408
1
1
1
1
1
1
1
1
1
1
1
1
1
1
1
1
1
1
1
1
1
1
1
1
1
1
1
1
1
1
1
1
1
1
1
1
1
1
1
1
1
1
1
1
1
1
1
1
1.49203
7.90835
10.4167
10.4533
10.5168
10.5735
10.6325
10.6923
10.7518
10.8099
10.8653
10.9167
10.9643
11.0102
11.0562
11.1051
11.1574
11.2106
11.2606
11.306
11.3477
11.3872
11.4264
11.4667
11.5085
11.5498
11.5886
11.6236
11.6551
11.6845
11.7138
11.7448
11.7779
11.8116
11.8435
11.8716
11.8951
11.9145
11.9312
11.9467
11.9622
11.9777
11.9925
12.0056
12.0164
12.0243
12.03
12.0327
1
1
1
1
1
1
1
1
1
1
1
1
1
1
1
1
1
1
1
1
1
1
1
1
1
1
1
1
1
1
1
1
1
1
1
1
1
1
1
1
1
1
1
1
1
1
1
1
1.41607
7.73713
10.4167
10.4531
10.5128
10.5687
10.6265
10.6857
10.7447
10.8028
10.8587
10.9102
10.958
11.004
11.05
11.0989
11.1508
11.2036
11.2533
11.2988
11.3405
11.38
11.4191
11.4594
11.5009
11.542
11.5805
11.6153
11.6468
11.6765
11.7061
11.7371
11.7698
11.8028
11.834
11.8616
11.8851
11.9049
11.9222
11.9385
11.9546
11.9703
11.9847
11.9967
12.0062
12.0128
12.0176
12.0199
1
1
1
1
1
1
1
1
1
1
1
1
1
1
1
1
1
1
1
1
1
1
1
1
1
1
1
1
1
1
1
1
1
1
1
1
1
1
1
1
1
1
1
1
1
1
1
1
1.31158
7.47375
10.4127
10.4536
10.5069
10.5613
10.6177
10.6764
10.7353
10.7934
10.8494
10.9009
10.9486
10.9945
11.0404
11.0892
11.1407
11.193
11.2424
11.2877
11.3293
11.3687
11.4078
11.448
11.4893
11.5299
11.5679
11.6024
11.6339
11.6639
11.694
11.7253
11.7575
11.7895
11.8194
11.8461
11.8693
11.8893
11.9073
11.9244
11.9411
11.9568
11.9705
11.9815
11.9895
11.9949
11.9987
12.0008
1
1
1
1
1
1
1
1
1
1
1
1
1
1
1
1
1
1
1
1
1
1
1
1
1
1
1
1
1
1
1
1
1
1
1
1
1
1
1
1
1
1
1
1
1
1
1
1
1.18744
7.14929
10.4087
10.4495
10.4951
10.5475
10.6028
10.6614
10.7209
10.7798
10.8367
10.8886
10.9366
10.9828
11.0286
11.0774
11.1283
11.1799
11.2287
11.2737
11.3151
11.3544
11.3934
11.4337
11.4749
11.515
11.5523
11.5864
11.6181
11.6487
11.6797
11.7114
11.7432
11.774
11.8026
11.8284
11.8513
11.8716
11.8902
11.9077
11.9242
11.9388
11.9508
11.9594
11.9648
11.968
11.9702
11.9713
1
1
1
1
1
1
1
1
1
1
1
1
1
1
1
1
1
1
1
1
1
1
1
1
1
1
1
1
1
1
1
1
1
1
1
1
1
1
1
1
1
1
1
1
1
1
1
1
1.00749
6.64259
10.3824
10.4346
10.4819
10.5374
10.5939
10.6526
10.7116
10.7705
10.8272
10.8789
10.9264
10.9722
11.0172
11.0649
11.1144
11.1644
11.2119
11.2559
11.2965
11.3346
11.3728
11.4122
11.4524
11.4912
11.5271
11.5601
11.5914
11.6226
11.6543
11.6865
11.7179
11.7475
11.7746
11.7993
11.8219
11.8429
11.8627
11.8813
11.8985
11.9132
11.9244
11.9317
11.9356
11.9372
11.938
11.9384
1
1
1
1
1
1
1
1
1
1
1
1
1
1
1
1
1
1
1
1
1
1
1
1
1
1
1
1
1
1
1
1
1
1
1
1
1
1
1
1
1
1
1
1
1
1
1
1
1.00004
5.9378
10.3054
10.388
10.4363
10.494
10.5519
10.6115
10.6711
10.7306
10.7875
10.8397
10.8877
10.9344
10.9801
11.0281
11.0777
11.1273
11.1743
11.218
11.2586
11.2966
11.3346
11.3736
11.4131
11.4508
11.4858
11.5186
11.5507
11.5833
11.6167
11.6499
11.6813
11.7099
11.7358
11.7595
11.7819
11.8034
11.824
11.8433
11.8607
11.8752
11.8858
11.8921
11.8946
11.8951
11.8946
11.8943
1
1
1
1
1
1
1
1
1
1
1
1
1
1
1
1
1
1
1
1
1
1
1
1
1
1
1
1
1
1
1
1
1
1
1
1
1
1
1
1
1
1
1
1
1
1
1
1
1
5.02396
10.1691
10.3491
10.4028
10.465
10.5241
10.5842
10.644
10.7031
10.7594
10.811
10.8587
10.9056
10.9517
10.9988
11.0468
11.0942
11.1393
11.1815
11.2215
11.259
11.2964
11.3344
11.3724
11.4085
11.4422
11.4744
11.5067
11.5401
11.5745
11.6082
11.6392
11.6666
11.6909
11.7133
11.7349
11.756
11.7765
11.7957
11.8129
11.8269
11.8369
11.8424
11.8441
11.8437
11.8423
11.8414
1
1
1
1
1
1
1
1
1
1
1
1
1
1
1
1
1
1
1
1
1
1
1
1
1
1
1
1
1
1
1
1
1
1
1
1
1
1
1
1
1
1
1
1
1
1
1
1
1
3.95512
9.88368
10.3119
10.3693
10.4356
10.495
10.5548
10.6135
10.6711
10.7258
10.7764
10.8237
10.8701
10.9164
10.9623
11.0081
11.0528
11.0955
11.1358
11.1744
11.2106
11.2463
11.2825
11.3186
11.3529
11.3852
11.4166
11.4487
11.4821
11.5164
11.5498
11.5803
11.6066
11.6295
11.6504
11.6706
11.6907
11.7105
11.7294
11.7467
11.761
11.7713
11.777
11.7787
11.7783
11.7765
11.7756
1
1
1
1
1
1
1
1
1
1
1
1
1
1
1
1
1
1
1
1
1
1
1
1
1
1
1
1
1
1
1
1
1
1
1
1
1
1
1
1
1
1
1
1
1
1
1
1
1
2.83077
9.31101
10.2994
10.3561
10.4225
10.4797
10.5372
10.5927
10.6469
10.6981
10.7459
10.7911
10.8353
10.8801
10.9243
10.9676
11.0092
11.0493
11.0871
11.124
11.1585
11.1921
11.2259
11.2594
11.2916
11.3217
11.3511
11.381
11.4122
11.4444
11.4761
11.5054
11.5309
11.5529
11.5726
11.5912
11.6096
11.6277
11.6455
11.662
11.676
11.6861
11.6916
11.693
11.6924
11.6902
11.6891
1
1
1
1
1
1
1
1
1
1
1
1
1
1
1
1
1
1
1
1
1
1
1
1
1
1
1
1
1
1
1
1
1
1
1
1
1
1
1
1
1
1
1
1
1
1
1
1
1
1.79579
8.33218
10.3367
10.3285
10.3954
10.444
10.4997
10.5542
10.6074
10.6575
10.7047
10.7498
10.7928
10.8359
10.8786
10.9201
10.9596
10.9979
11.0337
11.0681
11.1014
11.1334
11.1658
11.1977
11.2284
11.2565
11.2833
11.3098
11.3366
11.3642
11.3916
11.4173
11.4398
11.4586
11.4744
11.4886
11.5022
11.5164
11.5314
11.5469
11.5613
11.573
11.5802
11.5828
11.5831
11.5811
11.5801
1
1
1
1
1
1
1
1
1
1
1
1
1
1
1
1
1
1
1
1
1
1
1
1
1
1
1
1
1
1
1
1
1
1
1
1
1
1
1
1
1
1
1
1
1
1
1
1
1
1.02981
6.6294
10.3336
10.3525
10.3884
10.4301
10.4786
10.5288
10.5783
10.6245
10.6673
10.7079
10.7463
10.7848
10.8246
10.8626
10.8978
10.9317
10.9635
10.9936
11.0243
11.0536
11.0839
11.1141
11.143
11.1694
11.1934
11.2162
11.2386
11.2614
11.2847
11.3076
11.3282
11.3452
11.3586
11.3695
11.3792
11.3892
11.4
11.4115
11.4223
11.4303
11.4338
11.4328
11.4294
11.4243
11.4216
1
1
1
1
1
1
1
1
1
1
1
1
1
1
1
1
1
1
1
1
1
1
1
1
1
1
1
1
1
1
1
1
1
1
1
1
1
1
1
1
1
1
1
1
1
1
1
1
1
1.00005
4.53363
9.90733
10.203
10.263
10.3243
10.3774
10.4294
10.4792
10.5258
10.5682
10.6086
10.6474
10.6853
10.7239
10.7613
10.7953
10.8269
10.8574
10.8857
10.9149
10.9433
10.9724
11.0019
11.0298
11.0549
11.0763
11.0952
11.1127
11.1301
11.1483
11.1669
11.184
11.197
11.2049
11.2084
11.2095
11.2094
11.2095
11.2119
11.217
11.2233
11.2279
11.2289
11.2272
11.222
11.2193
1
1
1
1
1
1
1
1
1
1
1
1
1
1
1
1
1
1
1
1
1
1
1
1
1
1
1
1
1
1
1
1
1
1
1
1
1
1
1
1
1
1
1
1
1
1
1
1
1
1
2.34559
8.75676
10.1473
10.1868
10.2651
10.3215
10.3732
10.4209
10.4651
10.5052
10.5428
10.5798
10.6158
10.6515
10.6862
10.7171
10.7441
10.7697
10.7935
10.8172
10.8414
10.8659
10.8914
10.9157
10.9366
10.9526
10.9646
10.9738
10.9822
10.9916
11.0027
11.0137
11.0214
11.0242
11.0213
11.0139
11.0046
10.9969
10.9917
10.9884
10.9839
10.975
10.9561
10.9294
10.8989
10.8722
1
1
1
1
1
1
1
1
1
1
1
1
1
1
1
1
1
1
1
1
1
1
1
1
1
1
1
1
1
1
1
1
1
1
1
1
1
1
1
1
1
1
1
1
1
1
1
1
1
1
1.0554
6.32446
10.2053
10.2236
10.2421
10.2767
10.3124
10.3512
10.3892
10.4241
10.4558
10.4872
10.5191
10.5509
10.5822
10.6103
10.6327
10.6522
10.6706
10.6877
10.7058
10.7241
10.7436
10.7639
10.7813
10.7932
10.799
10.7988
10.7961
10.7937
10.794
10.796
10.796
10.7897
10.7745
10.7507
10.7207
10.6873
10.651
10.611
10.5667
10.5187
10.4748
10.4337
10.4112
10.3977
1
1
1
1
1
1
1
1
1
1
1
1
1
1
1
1
1
1
1
1
1
1
1
1
1
1
1
1
1
1
1
1
1
1
1
1
1
1
1
1
1
1
1
1
1
1
1
1
1
1
1.00008
3.2428
9.20607
10.0532
10.0942
10.1392
10.1799
10.2235
10.2662
10.3065
10.3428
10.3761
10.408
10.4387
10.4671
10.4923
10.5124
10.5278
10.5408
10.5511
10.5594
10.5674
10.5768
10.5893
10.6036
10.6138
10.6141
10.6046
10.5878
10.5685
10.5515
10.5377
10.5231
10.5022
10.4704
10.4266
10.3733
10.314
10.2501
10.1818
10.1079
10.0306
9.93991
9.85568
9.74245
9.83459
1
1
1
1
1
1
1
1
1
1
1
1
1
1
1
1
1
1
1
1
1
1
1
1
1
1
1
1
1
1
1
1
1
1
1
1
1
1
1
1
1
1
1
1
1
1
1
1
1
1
1
1.19523
7.21395
10.1076
10.0769
10.0818
10.115
10.1514
10.1902
10.2285
10.2623
10.2905
10.3154
10.3394
10.362
10.3824
10.399
10.4101
10.4173
10.4219
10.4214
10.4193
10.4177
10.4193
10.4266
10.4339
10.4321
10.4166
10.3887
10.3533
10.3175
10.2844
10.2515
10.2126
10.1611
10.0938
10.0101
9.91114
9.79216
9.64662
9.45209
9.19298
8.81172
8.25913
7.34681
5.4862
1
1
1
1
1
1
1
1
1
1
1
1
1
1
1
1
1
1
1
1
1
1
1
1
1
1
1
1
1
1
1
1
1
1
1
1
1
1
1
1
1
1
1
1
1
1
1
1
1
1
1
1.00131
4.54992
9.61715
9.94242
9.96668
10.0072
10.0417
10.0761
10.113
10.1481
10.1787
10.2063
10.2318
10.2541
10.2714
10.2841
10.2921
10.2976
10.3014
10.2992
10.292
10.2816
10.2721
10.2684
10.2696
10.265
10.2458
10.2117
10.1652
10.1132
10.0615
10.0093
9.9514
9.87956
9.78959
9.67603
9.54023
9.36942
9.15874
8.8717
8.50198
7.97908
7.33543
6.10519
4.4981
1
1
1
1
1
1
1
1
1
1
1
1
1
1
1
1
1
1
1
1
1
1
1
1
1
1
1
1
1
1
1
1
1
1
1
1
1
1
1
1
1
1
1
1
1
1
1
1
1
1
1
0.999997
1.85791
8.09159
9.95853
9.92336
9.95323
9.98128
10.0071
10.0379
10.069
10.0958
10.1195
10.1409
10.1592
10.1723
10.1802
10.1838
10.1851
10.1841
10.1794
10.1684
10.1512
10.1315
10.1152
10.1047
10.0919
10.0676
10.0279
9.9722
9.90601
9.83683
9.76464
9.6865
9.5923
9.47912
9.33794
9.16972
8.9607
8.70228
8.36991
7.93986
7.40013
6.6315
5.61731
4.52748
1
1
1
1
1
1
1
1
1
1
1
1
1
1
1
1
1
1
1
1
1
1
1
1
1
1
1
1
1
1
1
1
1
1
1
1
1
1
1
1
1
1
1
1
1
1
1
1
1
1
1
1
1.02678
5.26593
9.75462
9.84273
9.87473
9.90436
9.93118
9.95892
9.98608
10.0078
10.0274
10.0449
10.0601
10.0705
10.0747
10.073
10.0677
10.0596
10.0488
10.033
10.0115
9.98602
9.96141
9.94008
9.91765
9.88666
9.83971
9.77534
9.69725
9.61394
9.52437
9.42709
9.31184
9.17636
9.01268
8.81963
8.58854
8.30705
7.96148
7.52424
6.99774
6.30892
5.52541
4.72338
1
1
1
1
1
1
1
1
1
1
1
1
1
1
1
1
1
1
1
1
1
1
1
1
1
1
1
1
1
1
1
1
1
1
1
1
1
1
1
1
1
1
1
1
1
1
1
1
1
1
1
1
1
2.10741
8.34682
9.82617
9.8133
9.84144
9.864
9.88739
9.90935
9.92523
9.93817
9.94814
9.95521
9.96072
9.96312
9.9613
9.95493
9.94269
9.92434
9.9007
9.87294
9.84248
9.81111
9.7801
9.74755
9.70833
9.65376
9.58215
9.49479
9.39993
9.29689
9.18419
9.05343
8.90082
8.7212
8.5123
8.26984
7.98298
7.64718
7.23028
6.75598
6.19039
5.56913
4.93672
1
1
1
1
1
1
1
1
1
1
1
1
1
1
1
1
1
1
1
1
1
1
1
1
1
1
1
1
1
1
1
1
1
1
1
1
1
1
1
1
1
1
1
1
1
1
1
1
1
1
1
1
0.999999
1.04021
5.35789
9.67177
9.74961
9.77232
9.78936
9.80845
9.82562
9.83863
9.84878
9.85286
9.85351
9.85074
9.84846
9.8458
9.83928
9.82481
9.80141
9.77091
9.73681
9.70191
9.66431
9.6244
9.5811
9.5318
9.46922
9.39214
9.29899
9.19597
9.08344
8.95993
8.81949
8.65638
8.46743
8.2509
8.00581
7.72278
7.40453
7.02419
6.61539
6.15023
5.64332
5.12267
1
1
1
1
1
1
1
1
1
1
1
1
1
1
1
1
1
1
1
1
1
1
1
1
1
1
1
1
1
1
1
1
1
1
1
1
1
1
1
1
1
1
1
1
1
1
1
1
1
1
1
1
1
1.00003
1.98988
8.18698
9.71613
9.70616
9.71306
9.72054
9.73008
9.7408
9.75
9.75391
9.74986
9.73589
9.72461
9.71877
9.71031
9.69573
9.6724
9.6413
9.60554
9.56702
9.52314
9.47432
9.4195
9.35885
9.28845
9.20758
9.11268
9.00518
8.88615
8.75609
8.61142
8.44603
8.25632
8.04082
7.80302
7.52577
7.22713
6.8852
6.53202
6.13523
5.71321
5.27408
1
1
1
1
1
1
1
1
1
1
1
1
1
1
1
1
1
1
1
1
1
1
1
1
1
1
1
1
1
1
1
1
1
1
1
1
1
1
1
1
1
1
1
1
1
1
1
1
1
1
1
1
1
1
1.03035
4.84416
9.39523
9.61123
9.62267
9.62614
9.63968
9.65173
9.66087
9.6664
9.66113
9.64354
9.62421
9.60909
9.59109
9.57102
9.54345
9.51169
9.47664
9.43689
9.3895
9.33451
9.26985
9.1973
9.11753
9.03197
8.93672
8.82818
8.7061
8.57237
8.42595
8.26218
8.07718
7.86884
7.64192
7.37785
7.10134
6.79476
6.48198
6.13161
5.77699
5.40098
1
1
1
1
1
1
1
1
1
1
1
1
1
1
1
1
1
1
1
1
1
1
1
1
1
1
1
1
1
1
1
1
1
1
1
1
1
1
1
1
1
1
1
1
1
1
1
1
1
1
1
1
1
1
1.00002
1.50886
7.58195
9.65382
9.60532
9.58542
9.57498
9.56899
9.56604
9.5648
9.55573
9.53677
9.51473
9.49398
9.47031
9.4453
9.41457
9.38361
9.34934
9.30746
9.2564
9.19684
9.12563
9.04559
8.95878
8.86843
8.77211
8.66401
8.54217
8.40772
8.26184
8.10147
7.92607
7.72636
7.51164
7.26926
7.01483
6.73812
6.45762
6.14578
5.83591
5.50794
1
1
1
1
1
1
1
1
1
1
1
1
1
1
1
1
1
1
1
1
1
1
1
1
1
1
1
1
1
1
1
1
1
1
1
1
1
1
1
1
1
1
1
1
1
1
1
1
1
1
1
1
1
1
1
1.00763
3.8463
8.97194
9.40512
9.43693
9.45832
9.45247
9.44632
9.44797
9.44631
9.43166
9.41001
9.38423
9.35372
9.32222
9.28781
9.25663
9.22152
9.17509
9.12114
9.05998
8.9864
8.90429
8.81436
8.72064
8.62238
8.51468
8.39497
8.26206
8.1188
7.9612
7.79438
7.6012
7.39962
7.1806
6.94964
6.6998
6.44846
6.172
5.88893
5.59966
1
1
1
1
1
1
1
1
1
1
1
1
1
1
1
1
1
1
1
1
1
1
1
1
1
1
1
1
1
1
1
1
1
1
1
1
1
1
1
1
1
1
1
1
1
1
1
1
1
1
1
1
1
1
1
1
1.21374
6.19859
9.32186
9.39789
9.38808
9.36187
9.3495
9.35013
9.35492
9.3427
9.31921
9.28921
9.25374
9.21676
9.17829
9.14268
9.10506
9.05364
8.99525
8.93175
8.85694
8.77442
8.68461
8.59042
8.48997
8.38133
8.26273
8.13252
7.9961
7.84039
7.67886
7.49391
7.30498
7.10626
6.89703
6.671
6.44401
6.19754
5.93516
5.67545
1
1
1
1
1
1
1
1
1
1
1
1
1
1
1
1
1
1
1
1
1
1
1
1
1
1
1
1
1
1
1
1
1
1
1
1
1
1
1
1
1
1
1
1
1
1
1
1
1
1
1
1
1
1
1
1
1.00139
2.10987
7.95108
9.32091
9.26478
9.2659
9.25127
9.24877
9.25102
9.24151
9.22006
9.19085
9.15461
9.11465
9.07324
9.03141
8.98986
8.93457
8.87225
8.80546
8.73189
8.64999
8.56332
8.4703
8.36858
8.25966
8.14256
8.01694
7.885
7.73351
7.57681
7.40375
7.22719
7.04259
6.8529
6.64624
6.43713
6.21384
5.97522
5.74102
1
1
1
1
1
1
1
1
1
1
1
1
1
1
1
1
1
1
1
1
1
1
1
1
1
1
1
1
1
1
1
1
1
1
1
1
1
1
1
1
1
1
1
1
1
1
1
1
1
1
1
1
1
1
1
1
1
1.03502
4.10267
8.8755
9.15999
9.17018
9.17275
9.16872
9.16278
9.14646
9.11947
9.08903
9.05498
9.01563
8.97412
8.92917
8.8815
8.82667
8.76101
8.6911
8.61818
8.53932
8.45588
8.36429
8.26394
8.15618
8.03985
7.91411
7.78205
7.63911
7.48952
7.32886
7.164
6.99001
6.81646
6.62388
6.4282
6.22228
6.0077
5.79382
1
1
1
1
1
1
1
1
1
1
1
1
1
1
1
1
1
1
1
1
1
1
1
1
1
1
1
1
1
1
1
1
1
1
1
1
1
1
1
1
1
1
1
1
1
1
1
1
1
1
1
1
1
1
1
1
1
1.00006
1.24561
5.66126
8.98601
9.14799
9.13736
9.12928
9.10954
9.07842
9.04103
9.00166
8.9634
8.92229
8.87957
8.83283
8.78135
8.72839
8.66325
8.59212
8.51747
8.44028
8.35774
8.26743
8.16919
8.06239
7.947
7.82403
7.69441
7.55809
7.41285
7.26284
7.10805
6.94456
6.78399
6.60528
6.4223
6.2303
6.03641
5.83733
1
1
1
1
1
1
1
1
1
1
1
1
1
1
1
1
1
1
1
1
1
1
1
1
1
1
1
1
1
1
1
1
1
1
1
1
1
1
1
1
1
1
1
1
1
1
1
1
1
1
1
1
1
1
1
1
1
1
1.00191
1.60401
7.16409
9.14408
9.09276
9.06817
9.0232
8.98009
8.93875
8.90023
8.86216
8.82452
8.78422
8.73742
8.68506
8.63239
8.57137
8.50113
8.42536
8.34813
8.26729
8.17865
8.08252
7.97894
7.86566
7.74758
7.62178
7.49088
7.34982
7.2061
7.05794
6.90508
6.75392
6.58949
6.41917
6.24081
6.06218
5.87649
1
1
1
1
1
1
1
1
1
1
1
1
1
1
1
1
1
1
1
1
1
1
1
1
1
1
1
1
1
1
1
1
1
1
1
1
1
1
1
1
1
1
1
1
1
1
1
1
1
1
1
1
1
1
1
1
1
1
1
1.01049
2.93409
8.25811
8.96443
8.89826
8.86979
8.84375
8.81876
8.79079
8.76003
8.72428
8.68778
8.64358
8.59258
8.54212
8.48411
8.41709
8.34289
8.26432
8.18194
8.09502
8.00194
7.89998
7.79218
7.67911
7.55848
7.43245
7.29797
7.15876
7.01551
6.87225
6.72836
6.57633
6.41705
6.25245
6.08494
5.91265
1
1
1
1
1
1
1
1
1
1
1
1
1
1
1
1
1
1
1
1
1
1
1
1
1
1
1
1
1
1
1
1
1
1
1
1
1
1
1
1
1
1
1
1
1
1
1
1
1
1
1
1
1
1
1
1
1
1
1
1.00001
1.09846
4.28342
8.59216
8.79845
8.76623
8.76649
8.75176
8.72757
8.69605
8.65778
8.61796
8.57302
8.52156
8.46898
8.40911
8.34142
8.26751
8.18844
8.10583
8.01812
7.9263
7.8292
7.72622
7.61654
7.49999
7.37822
7.25133
7.11865
6.98197
6.8469
6.7085
6.56538
6.41565
6.26348
6.10483
5.9457
1
1
1
1
1
1
1
1
1
1
1
1
1
1
1
1
1
1
1
1
1
1
1
1
1
1
1
1
1
1
1
1
1
1
1
1
1
1
1
1
1
1
1
1
1
1
1
1
1
1
1
1
1
1
1
1
1
1
1
1
1.00043
1.27958
5.1236
8.5844
8.71107
8.71129
8.70252
8.6776
8.64394
8.6026
8.55793
8.50801
8.45408
8.39732
8.33497
8.26706
8.19372
8.11579
8.03426
7.9476
7.85604
7.76306
7.66432
7.55797
7.44559
7.32854
7.2088
7.08356
6.95475
6.82666
6.69374
6.55776
6.41683
6.2741
6.12317
5.97438
1
1
1
1
1
1
1
1
1
1
1
1
1
1
1
1
1
1
1
1
1
1
1
1
1
1
1
1
1
1
1
1
1
1
1
1
1
1
1
1
1
1
1
1
1
1
1
1
1
1
1
1
1
1
1
1
1
1
1
1
1
1.00258
1.47228
5.79184
8.58519
8.68634
8.65798
8.62783
8.59066
8.54706
8.50085
8.45104
8.39618
8.33576
8.27047
8.20109
8.1273
8.04975
7.96966
7.88579
7.79736
7.70666
7.61018
7.50708
7.39889
7.28649
7.17245
7.05396
6.93189
6.80909
6.68159
6.55131
6.41878
6.28352
6.14068
5.9998
1
1
1
1
1
1
1
1
1
1
1
1
1
1
1
1
1
1
1
1
1
1
1
1
1
1
1
1
1
1
1
1
1
1
1
1
1
1
1
1
1
1
1
1
1
1
1
1
1
1
1
1
1
1
1
1
1
1
1
1
1
1
1.00672
1.68909
6.37425
8.54864
8.60394
8.57502
8.53428
8.49144
8.44487
8.39406
8.33716
8.27473
8.20863
8.13921
8.06592
7.9892
7.90989
7.82784
7.7424
7.65357
7.5594
7.4602
7.35648
7.24861
7.1392
7.02619
6.90906
6.79041
6.66853
6.54459
6.41973
6.29123
6.15604
6.02221
1
1
1
1
1
1
1
1
1
1
1
1
1
1
1
1
1
1
1
1
1
1
1
1
1
1
1
1
1
1
1
1
1
1
1
1
1
1
1
1
1
1
1
1
1
1
1
1
1
1
1
1
1
1
1
1
1
1
1
1
1
1
1.00001
1.0135
1.94172
6.79828
8.50944
8.52521
8.4928
8.44738
8.4003
8.34545
8.28374
8.21954
8.15313
8.08371
8.01123
7.93576
7.85756
7.77688
7.69354
7.60678
7.51539
7.41968
7.31965
7.2153
7.10921
7.00092
6.88878
6.77447
6.65777
6.5403
6.42136
6.29901
6.1698
6.04221
1
1
1
1
1
1
1
1
1
1
1
1
1
1
1
1
1
1
1
1
1
1
1
1
1
1
1
1
1
1
1
1
1
1
1
1
1
1
1
1
1
1
1
1
1
1
1
1
1
1
1
1
1
1
1
1
1
1
1
1
1
1
1
1.00003
1.02433
2.18618
7.12868
8.47041
8.45392
8.40695
8.35224
8.29363
8.23239
8.16913
8.10185
8.03176
7.96036
7.88643
7.80955
7.72969
7.64715
7.5615
7.47195
7.37916
7.28294
7.18278
7.08077
6.9776
6.87114
6.76146
6.64929
6.5368
6.42199
6.30534
6.18146
6.06014
1
1
1
1
1
1
1
1
1
1
1
1
1
1
1
1
1
1
1
1
1
1
1
1
1
1
1
1
1
1
1
1
1
1
1
1
1
1
1
1
1
1
1
1
1
1
1
1
1
1
1
1
1
1
1
1
1
1
1
1
1
1
1
1
1.00007
1.03801
2.44118
7.38063
8.40041
8.35425
8.30441
8.24194
8.1804
8.11789
8.05344
7.98783
7.91968
7.84737
7.77078
7.69064
7.60754
7.52163
7.43305
7.34192
7.24876
7.15291
7.05516
6.95641
6.85477
6.74882
6.64087
6.53303
6.42281
6.31155
6.19355
6.07765
1
1
1
1
1
1
1
1
1
1
1
1
1
1
1
1
1
1
1
1
1
1
1
1
1
1
1
1
1
1
1
1
1
1
1
1
1
1
1
1
1
1
1
1
1
1
1
1
1
1
1
1
1
1
1
1
1
1
1
1
1
1
1
1
1
1.00013
1.05555
2.73671
7.47954
8.28691
8.23488
8.18172
8.12831
8.06889
8.00795
7.94497
7.87809
7.80711
7.73163
7.65223
7.57013
7.486
7.39952
7.31085
7.22057
7.12773
7.03246
6.93611
6.83794
6.73574
6.63188
6.52847
6.42294
6.31587
6.20403
6.09384
1
1
1
1
1
1
1
1
1
1
1
1
1
1
1
1
1
1
1
1
1
1
1
1
1
1
1
1
1
1
1
1
1
1
1
1
1
1
1
1
1
1
1
1
1
1
1
1
1
1
1
1
1
1
1
1
1
1
1
1
1
1
1
1
1
1
1.00023
1.08032
2.86088
7.43572
8.17939
8.13692
8.0847
8.03092
7.97309
7.91171
7.84529
7.77346
7.69749
7.61948
7.53917
7.45665
7.3719
7.28504
7.1963
7.10577
7.01317
6.91913
6.82401
6.72536
6.62469
6.52466
6.42323
6.32065
6.21406
6.10822
1
1
1
1
1
1
1
1
1
1
1
1
1
1
1
1
1
1
1
1
1
1
1
1
1
1
1
1
1
1
1
1
1
1
1
1
1
1
1
1
1
1
1
1
1
1
1
1
1
1
1
1
1
1
1
1
1
1
1
1
1
1
1
1
1
1
1
1.00041
1.09359
2.83919
7.33509
8.09564
8.05172
7.99854
7.94053
7.87667
7.80938
7.73752
7.6622
7.5859
7.50794
7.42771
7.34535
7.26086
7.1743
7.08589
6.99542
6.9033
6.80993
6.71429
6.61768
6.52023
6.42251
6.32427
6.22109
6.12115
1
1
1
1
1
1
1
1
1
1
1
1
1
1
1
1
1
1
1
1
1
1
1
1
1
1
1
1
1
1
1
1
1
1
1
1
1
1
1
1
1
1
1
1
1
1
1
1
1
1
1
1
1
1
1
1
1
1
1
1
1
1
1
1
1
1
1
1
1.00053
1.09279
2.80079
7.16652
7.99826
7.96311
7.90101
7.83606
7.76651
7.69601
7.62548
7.55212
7.47682
7.39977
7.32065
7.23937
7.15562
7.06891
6.98072
6.89105
6.79962
6.70669
6.61233
6.51767
6.42354
6.32783
6.23155
6.13481
1
1
1
1
1
1
1
1
1
1
1
1
1
1
1
1
1
1
1
1
1
1
1
1
1
1
1
1
1
1
1
1
1
1
1
1
1
1
1
1
1
1
1
1
1
1
1
1
1
1
1
1
1
1
1
1
1
1
1
1
1
1
1
1
1
1
1
1
1
1.00053
1.0892
2.69239
6.92537
7.89196
7.86418
7.79555
7.73107
7.66166
7.59314
7.52251
7.44905
7.3738
7.29652
7.21681
7.1354
7.05231
6.96696
6.87919
6.7911
6.70103
6.60935
6.51873
6.42701
6.33472
6.24095
6.14606
1
1
1
1
1
1
1
1
1
1
1
1
1
1
1
1
1
1
1
1
1
1
1
1
1
1
1
1
1
1
1
1
1
1
1
1
1
1
1
1
1
1
1
1
1
1
1
1
1
1
1
1
1
1
1
1
1
1
1
1
1
1
1
1
1
1
1
1
1
1
1.00051
1.07913
2.52585
6.58638
7.76764
7.768
7.69806
7.63562
7.56756
7.49705
7.42402
7.34984
7.27441
7.19603
7.11519
7.03344
6.95075
6.86685
6.78297
6.69852
6.61264
6.5234
6.43398
6.34438
6.25225
6.16326
1
1
1
1
1
1
1
1
1
1
1
1
1
1
1
1
1
1
1
1
1
1
1
1
1
1
1
1
1
1
1
1
1
1
1
1
1
1
1
1
1
1
1
1
1
1
1
1
1
1
1
1
1
1
1
1
1
1
1
1
1
1
1
1
1
1
1
1
1
1
1
1.00043
1.06482
2.2984
6.15773
7.6366
7.66864
7.5995
7.53772
7.46914
7.3998
7.32742
7.25232
7.17447
7.09442
7.01433
6.93569
6.85732
6.77711
6.69636
6.61475
6.53068
6.44607
6.35943
6.27315
6.18548
1
1
1
1
1
1
1
1
1
1
1
1
1
1
1
1
1
1
1
1
1
1
1
1
1
1
1
1
1
1
1
1
1
1
1
1
1
1
1
1
1
1
1
1
1
1
1
1
1
1
1
1
1
1
1
1
1
1
1
1
1
1
1
1
1
1
1
1
1
1
1
1
1.00033
1.0473
2.05352
5.56508
7.48231
7.59787
7.50682
7.43743
7.3668
7.29643
7.22686
7.15656
7.08336
7.00732
6.92982
6.85213
6.77389
6.69548
6.61863
6.53943
6.45876
6.37576
6.29089
6.20635
1
1
1
1
1
1
1
1
1
1
1
1
1
1
1
1
1
1
1
1
1
1
1
1
1
1
1
1
1
1
1
1
1
1
1
1
1
1
1
1
1
1
1
1
1
1
1
1
1
1
1
1
1
1
1
1
1
1
1
1
1
1
1
1
1
1
1
1
1
1
1
1
1
1.00021
1.03198
1.78195
4.82289
7.29698
7.49866
7.41445
7.35126
7.28571
7.21757
7.14724
7.07662
7.00585
6.93409
6.86102
6.78505
6.70697
6.62793
6.54882
6.46964
6.38992
6.30943
6.22848
1
1
1
1
1
1
1
1
1
1
1
1
1
1
1
1
1
1
1
1
1
1
1
1
1
1
1
1
1
1
1
1
1
1
1
1
1
1
1
1
1
1
1
1
1
1
1
1
1
1
1
1
1
1
1
1
1
1
1
1
1
1
1
1
1
1
1
1
1
1
1
1
1
1
1.00012
1.01871
1.51834
4.05192
6.98746
7.39663
7.34211
7.28453
7.21366
7.14619
7.077
7.00647
6.9347
6.86113
6.78722
6.71266
6.63686
6.56097
6.48248
6.40284
6.32212
6.23686
1
1
1
1
1
1
1
1
1
1
1
1
1
1
1
1
1
1
1
1
1
1
1
1
1
1
1
1
1
1
1
1
1
1
1
1
1
1
1
1
1
1
1
1
1
1
1
1
1
1
1
1
1
1
1
1
1
1
1
1
1
1
1
1
1
1
1
1
1
1
1
1
1
1
1
1.00006
1.00927
1.31119
3.30127
6.5382
7.28984
7.29086
7.20425
7.13976
7.07355
7.00516
6.93533
6.86428
6.79245
6.71883
6.64474
6.56765
6.49125
6.40973
6.3334
6.24819
1
1
1
1
1
1
1
1
1
1
1
1
1
1
1
1
1
1
1
1
1
1
1
1
1
1
1
1
1
1
1
1
1
1
1
1
1
1
1
1
1
1
1
1
1
1
1
1
1
1
1
1
1
1
1
1
1
1
1
1
1
1
1
1
1
1
1
1
1
1
1
1
1
1
1
1
1.00002
1.004
1.16824
2.64151
5.87299
7.1376
7.25943
7.141
7.07485
7.0106
6.94304
6.8703
6.79965
6.72824
6.65191
6.57471
6.49469
6.41733
6.33689
6.27121
1
1
1
1
1
1
1
1
1
1
1
1
1
1
1
1
1
1
1
1
1
1
1
1
1
1
1
1
1
1
1
1
1
1
1
1
1
1
1
1
1
1
1
1
1
1
1
1
1
1
1
1
1
1
1
1
1
1
1
1
1
1
1
1
1
1
1
1
1
1
1
1
1
1
1
1
1
1.00001
1.00152
1.08245
2.07992
4.98844
6.94975
7.14201
7.07757
7.00802
6.93761
6.87128
6.79975
6.72529
6.64935
6.56995
6.4968
6.44419
6.42142
6.47172
1
1
1
1
1
1
1
1
1
1
1
1
1
1
1
1
1
1
1
1
1
1
1
1
1
1
1
1
1
1
1
1
1
1
1
1
1
1
1
1
1
1
1
1
1
1
1
1
1
1
1
1
1
1
1
1
1
1
1
1
1
1
1
1
1
1
1
1
1
1
1
1
1
1
1
1
1
1
1
1.00051
1.03604
1.63419
3.9951
6.58221
7.04133
7.02957
6.93189
6.86859
6.80291
6.7155
6.64583
6.61154
6.64222
6.78167
7.09974
7.63202
1
1
1
1
1
1
1
1
1
1
1
1
1
1
1
1
1
1
1
1
1
1
1
1
1
1
1
1
1
1
1
1
1
1
1
1
1
1
1
1
1
1
1
1
1
1
1
1
1
1
1
1
1
1
1
1
1
1
1
1
1
1
1
1
1
1
1
1
1
1
1
1
1
1
1
1
1
1
1
1
1.00015
1.01372
1.32268
3.04658
5.9771
6.90037
6.9644
6.8777
6.77403
6.76429
6.86616
7.1632
7.64818
8.29301
8.84371
9.2726
1
1
1
1
1
1
1
1
1
1
1
1
1
1
1
1
1
1
1
1
1
1
1
1
1
1
1
1
1
1
1
1
1
1
1
1
1
1
1
1
1
1
1
1
1
1
1
1
1
1
1
1
1
1
1
1
1
1
1
1
1
1
1
1
1
1
1
1
1
1
1
1
1
1
1
1
1
1
1
1
1
1.00004
1.00443
1.13955
2.29746
4.98717
6.77824
6.85363
7.09748
7.55494
8.29675
9.04336
9.55749
9.86508
9.93957
9.89733
1
1
1
1
1
1
1
1
1
1
1
1
1
1
1
1
1
1
1
1
1
1
1
1
1
1
1
1
1
1
1
1
1
1
1
1
1
1
1
1
1
1
1
1
1
1
1
1
1
1
1
1
1
1
1
1
1
1
1
1
1
1
1
1
1
1
1
1
1
1
1
1
1
1
1
1
1
1
1
1
1
1
1.00001
1.00123
1.05321
1.71463
3.91164
6.68548
9.11932
9.72734
10.2011
10.3821
10.3874
10.2892
10.1561
10.0125
1
1
1
1
1
1
1
1
1
1
1
1
1
1
1
1
1
1
1
1
1
1
1
1
1
1
1
1
1
1
1
1
1
1
1
1
1
1
1
1
1
1
1
1
1
1
1
1
1
1
1
1
1
1
1
1
1
1
1
1
1
1
1
1
1
1
1
1
1
1
1
1
1
1
1
1
1
1
1
1
1
1
1
1
1.00026
1.01845
1.29856
6.86788
11.5857
11.1157
10.8809
10.7251
10.5829
10.4086
10.2472
10.0969
1
1
1
1
1
1
1
1
1
1
1
1
1
1
1
1
1
1
1
1
1
1
1
1
1
1
1
1
1
1
1
1
1
1
1
1
1
1
1
1
1
1
1
1
1
1
1
1
1
1
1
1
1
1
1
1
1
1
1
1
1
1
1
1
1
1
1
1
1
1
1
1
1
1
1
1
1
1
1
1
1
1
1
1
1
1.00007
1.00357
6.61485
11.1837
10.8178
10.6168
10.4378
10.3088
10.1814
10.0748
9.97722
1
1
1
1
1
1
1
1
1
1
1
1
1
1
1
1
1
1
1
1
1
1
1
1
1
1
1
1
1
1
1
1
1
1
1
1
1
1
1
1
1
1
1
1
1
1
1
1
1
1
1
1
1
1
1
1
1
1
1
1
1
1
1
1
1
1
1
1
1
1
1
1
1
1
1
1
1
1
1
1
1
1
1
1
1
1
1
5.68839
10.4475
10.5254
10.5013
10.4288
10.3499
10.2781
10.2089
10.1469
1
1
1
1
1
1
1
1
1
1
1
1
1
1
1
1
1
1
1
1
1
1
1
1
1
1
1
1
1
1
1
1
1
1
1
1
1
1
1
1
1
1
1
1
1
1
1
1
1
1
1
1
1
1
1
1
1
1
1
1
1
1
1
1
1
1
1
1
1
1
1
1
1
1
1
1
1
1
1
1
1
1
1
1
1
1
1
4.331
9.99229
10.3763
10.3671
10.3761
10.337
10.2849
10.2178
10.1544
1
1
1
1
1
1
1
1
1
1
1
1
1
1
1
1
1
1
1
1
1
1
1
1
1
1
1
1
1
1
1
1
1
1
1
1
1
1
1
1
1
1
1
1
1
1
1
1
1
1
1
1
1
1
1
1
1
1
1
1
1
1
1
1
1
1
1
1
1
1
1
1
1
1
1
1
1
1
1
1
1
1
1
1
1
1
1
2.91481
9.29339
10.3513
10.3236
10.2975
10.2667
10.2456
10.2102
10.1676
1
1
1
1
1
1
1
1
1
1
1
1
1
1
1
1
1
1
1
1
1
1
1
1
1
1
1
1
1
1
1
1
1
1
1
1
1
1
1
1
1
1
1
1
1
1
1
1
1
1
1
1
1
1
1
1
1
1
1
1
1
1
1
1
1
1
1
1
1
1
1
1
1
1
1
1
1
1
1
1
1
1
1
1
1
1
1
1.7911
8.35113
10.4306
10.3745
10.3371
10.2992
10.2609
10.2221
10.1828
1
1
1
1
1
1
1
1
1
1
1
1
1
1
1
1
1
1
1
1
1
1
1
1
1
1
1
1
1
1
1
1
1
1
1
1
1
1
1
1
1
1
1
1
1
1
1
1
1
1
1
1
1
1
1
1
1
1
1
1
1
1
1
1
1
1
1
1
1
1
1
1
1
1
1
1
1
1
1
1
1
1
1
1
1
1
1
1.09468
7.04847
10.3838
10.3599
10.3134
10.2795
10.2444
10.2096
10.174
1
1
1
1
1
1
1
1
1
1
1
1
1
1
1
1
1
1
1
1
1
1
1
1
1
1
1
1
1
1
1
1
1
1
1
1
1
1
1
1
1
1
1
1
1
1
1
1
1
1
1
1
1
1
1
1
1
1
1
1
1
1
1
1
1
1
1
1
1
1
1
1
1
1
1
1
1
1
1
1
1
1
1
1
1
1
1
1.00052
5.59352
10.1832
10.3405
10.3043
10.2827
10.2469
10.2101
10.1715
1
1
1
1
1
1
1
1
1
1
1
1
1
1
1
1
1
1
1
1
1
1
1
1
1
1
1
1
1
1
1
1
1
1
1
1
1
1
1
1
1
1
1
1
1
1
1
1
1
1
1
1
1
1
1
1
1
1
1
1
1
1
1
1
1
1
1
1
1
1
1
1
1
1
1
1
1
1
1
1
1
1
1
1
1
1
1
1
4.20484
9.85798
10.3617
10.314
10.2907
10.2532
10.2156
10.1773
1
1
1
1
1
1
1
1
1
1
1
1
1
1
1
1
1
1
1
1
1
1
1
1
1
1
1
1
1
1
1
1
1
1
1
1
1
1
1
1
1
1
1
1
1
1
1
1
1
1
1
1
1
1
1
1
1
1
1
1
1
1
1
1
1
1
1
1
1
1
1
1
1
1
1
1
1
1
1
1
1
1
1
1
1
1
1
1
2.98079
9.41406
10.389
10.3277
10.3014
10.2639
10.2272
10.1892
1
1
1
1
1
1
1
1
1
1
1
1
1
1
1
1
1
1
1
1
1
1
1
1
1
1
1
1
1
1
1
1
1
1
1
1
1
1
1
1
1
1
1
1
1
1
1
1
1
1
1
1
1
1
1
1
1
1
1
1
1
1
1
1
1
1
1
1
1
1
1
1
1
1
1
1
1
1
1
1
1
1
1
1
1
1
1
1
2.03417
8.71682
10.4362
10.3653
10.332
10.2924
10.2535
10.2136
1
1
1
1
1
1
1
1
1
1
1
1
1
1
1
1
1
1
1
1
1
1
1
1
1
1
1
1
1
1
1
1
1
1
1
1
1
1
1
1
1
1
1
1
1
1
1
1
1
1
1
1
1
1
1
1
1
1
1
1
1
1
1
1
1
1
1
1
1
1
1
1
1
1
1
1
1
1
1
1
1
1
1
1
1
1
1
1
1.43515
7.84383
10.4847
10.4151
10.3661
10.3221
10.2798
10.2381
1
1
1
1
1
1
1
1
1
1
1
1
1
1
1
1
1
1
1
1
1
1
1
1
1
1
1
1
1
1
1
1
1
1
1
1
1
1
1
1
1
1
1
1
1
1
1
1
1
1
1
1
1
1
1
1
1
1
1
1
1
1
1
1
1
1
1
1
1
1
1
1
1
1
1
1
1
1
1
1
1
1
1
1
1
1
1
1
1.0172
6.80856
10.4436
10.4523
10.388
10.3477
10.3037
10.2605
1
1
1
1
1
1
1
1
1
1
1
1
1
1
1
1
1
1
1
1
1
1
1
1
1
1
1
1
1
1
1
1
1
1
1
1
1
1
1
1
1
1
1
1
1
1
1
1
1
1
1
1
1
1
1
1
1
1
1
1
1
1
1
1
1
1
1
1
1
1
1
1
1
1
1
1
1
1
1
1
1
1
1
1
1
1
1
1
1.00003
5.79112
10.3258
10.4462
10.3834
10.347
10.3049
10.2639
1
1
1
1
1
1
1
1
1
1
1
1
1
1
1
1
1
1
1
1
1
1
1
1
1
1
1
1
1
1
1
1
1
1
1
1
1
1
1
1
1
1
1
1
1
1
1
1
1
1
1
1
1
1
1
1
1
1
1
1
1
1
1
1
1
1
1
1
1
1
1
1
1
1
1
1
1
1
1
1
1
1
1
1
1
1
1
1
1
4.83463
10.1703
10.4722
10.4053
10.3684
10.3255
10.283
1
1
1
1
1
1
1
1
1
1
1
1
1
1
1
1
1
1
1
1
1
1
1
1
1
1
1
1
1
1
1
1
1
1
1
1
1
1
1
1
1
1
1
1
1
1
1
1
1
1
1
1
1
1
1
1
1
1
1
1
1
1
1
1
1
1
1
1
1
1
1
1
1
1
1
1
1
1
1
1
1
1
1
1
1
1
1
1
1
4.04242
9.95418
10.4933
10.4169
10.3782
10.3344
10.2916
1
1
1
1
1
1
1
1
1
1
1
1
1
1
1
1
1
1
1
1
1
1
1
1
1
1
1
1
1
1
1
1
1
1
1
1
1
1
1
1
1
1
1
1
1
1
1
1
1
1
1
1
1
1
1
1
1
1
1
1
1
1
1
1
1
1
1
1
1
1
1
1
1
1
1
1
1
1
1
1
1
1
1
1
1
1
1
1
1
3.40334
9.70247
10.5174
10.4315
10.3898
10.3439
10.3003
1
1
1
1
1
1
1
1
1
1
1
1
1
1
1
1
1
1
1
1
1
1
1
1
1
1
1
1
1
1
1
1
1
1
1
1
1
1
1
1
1
1
1
1
1
1
1
1
1
1
1
1
1
1
1
1
1
1
1
1
1
1
1
1
1
1
1
1
1
1
1
1
1
1
1
1
1
1
1
1
1
1
1
1
1
1
1
1
1
2.89192
9.47947
10.5214
10.4362
10.3945
10.3489
10.3058
1
1
1
1
1
1
1
1
1
1
1
1
1
1
1
1
1
1
1
1
1
1
1
1
1
1
1
1
1
1
1
1
1
1
1
1
1
1
1
1
1
1
1
1
1
1
1
1
1
1
1
1
1
1
1
1
1
1
1
1
1
1
1
1
1
1
1
1
1
1
1
1
1
1
1
1
1
1
1
1
1
1
1
1
1
1
1
1
1
2.5321
9.25742
10.521
10.4411
10.3999
10.3544
10.3113
1
1
1
1
1
1
1
1
1
1
1
1
1
1
1
1
1
1
1
1
1
1
1
1
1
1
1
1
1
1
1
1
1
1
1
1
1
1
1
1
1
1
1
1
1
1
1
1
1
1
1
1
1
1
1
1
1
1
1
1
1
1
1
1
1
1
1
1
1
1
1
1
1
1
1
1
1
1
1
1
1
1
1
1
1
1
1
1
1
2.29695
9.06847
10.5174
10.4436
10.4035
10.3601
10.3169
1
1
1
1
1
1
1
1
1
1
1
1
1
1
1
1
1
1
1
1
1
1
1
1
1
1
1
1
1
1
1
1
1
1
1
1
1
1
1
1
1
1
1
1
1
1
1
1
1
1
1
1
1
1
1
1
1
1
1
1
1
1
1
1
1
1
1
1
1
1
1
1
1
1
1
1
1
1
1
1
1
1
1
1
1
1
1
1
1
2.15529
8.93121
10.5106
10.4414
10.4038
10.3617
10.3195
1
1
1
1
1
1
1
1
1
1
1
1
1
1
1
1
1
1
1
1
1
1
1
1
1
1
1
1
1
1
1
1
1
1
1
1
1
1
1
1
1
1
1
1
1
1
1
1
1
1
1
1
1
1
1
1
1
1
1
1
1
1
1
1
1
1
1
1
1
1
1
1
1
1
1
1
1
1
1
1
1
1
1
1
1
1
1
1
1
2.07779
8.84188
10.4988
10.4323
10.3976
10.3571
10.3199
1
1
1
1
1
1
1
1
1
1
1
1
1
1
1
1
1
1
1
1
1
1
1
1
1
1
1
1
1
1
1
1
1
1
1
1
1
1
1
1
1
1
1
1
1
1
1
1
1
1
1
1
1
1
1
1
1
1
1
1
1
1
1
1
1
1
1
1
1
1
1
1
1
1
1
1
1
1
1
1
1
1
1
1
1
1
1
1
1
2.03925
8.78666
10.4814
10.4176
10.3857
10.3488
10.3158
1
1
1
1
1
1
1
1
1
1
1
1
1
1
1
1
1
1
1
1
1
1
1
1
1
1
1
1
1
1
1
1
1
1
1
1
1
1
1
1
1
1
1
1
1
1
1
1
1
1
1
1
1
1
1
1
1
1
1
1
1
1
1
1
1
1
1
1
1
1
1
1
1
1
1
1
1
1
1
1
1
1
1
1
1
1
1
1
1
2.0272
8.77148
10.4687
10.4083
10.3803
10.3466
10.3145
1.11823
0.129403
0.0476945
0.0587493
0.0562606
0.0615003
0.0739921
0.11349
0.167444
0.225306
0.295711
0.381365
0.471008
0.562834
0.626203
0.706488
0.798588
0.864928
0.879439
0.904974
0.942533
0.958399
0.978271
1.00858
1.04355
1.05991
1.07341
1.09557
1.1108
1.12455
1.14934
1.18046
1.19927
1.2122
1.22735
1.243
1.25676
1.26384
1.26607
1.26993
1.27257
1.27481
1.27846
1.28575
1.29759
1.3031
1.31061
1.34505
1.54591
2.79787
5.74652
6.23839
6.27686
6.28868
6.33526
6.37873
6.40561
6.40667
6.37674
6.34294
6.3221
6.31705
6.3277
6.33469
6.32034
6.28265
6.22849
6.16664
6.11289
6.079
6.06306
6.0282
5.96098
5.88714
5.81867
5.76314
5.72183
5.70075
5.69269
5.66704
5.61759
5.56464
5.50911
5.46063
5.41961