/*--------------------------------*- C++ -*----------------------------------*\
  =========                 |
  \\      /  F ield         | OpenFOAM: The Open Source CFD Toolbox
   \\    /   O peration     | Website:  https://openfoam.org
    \\  /    A nd           | Version:  7
     \\/     M anipulation  |
\*---------------------------------------------------------------------------*/
FoamFile
{
    version     2.0;
    format      ascii;
    class       volScalarField;
    location    "5.2";
    object      T;
}
// * * * * * * * * * * * * * * * * * * * * * * * * * * * * * * * * * * * * * //

dimensions      [0 0 0 1 0 0 0];

internalField   nonuniform List<scalar> 
19968
(
1
1
1
1
1
1
1
1
1
1
1
1
1
1
1
1
1
1
1
1
1
1
1
1
1
1
1
1
1
1
1
1
1
1
1
1
1
1
1
1
1
1
1
1
1
1
1
1
1.26107
2.45038
2.68788
2.69228
2.69949
2.70366
2.70705
2.71002
2.71306
2.71658
2.72081
2.72556
2.73028
2.73434
2.73746
2.74004
2.74271
2.74587
2.7496
2.7536
2.75735
2.7604
2.76279
2.76496
2.76732
2.77006
2.77301
2.7758
2.77816
2.78009
2.78187
2.78378
2.78595
2.78828
2.79053
2.79249
2.79409
2.79538
2.79649
2.79752
2.79856
2.79964
2.80071
2.80172
2.80263
2.80334
2.80382
2.80403
1
1
1
1
1
1
1
1
1
1
1
1
1
1
1
1
1
1
1
1
1
1
1
1
1
1
1
1
1
1
1
1
1
1
1
1
1
1
1
1
1
1
1
1
1
1
1
1
1.24633
2.44178
2.68757
2.69325
2.69935
2.70343
2.70678
2.70978
2.71289
2.7165
2.7208
2.72555
2.7302
2.73416
2.73722
2.73978
2.74245
2.74562
2.74936
2.75338
2.75712
2.76015
2.76253
2.76469
2.76706
2.76979
2.77273
2.7755
2.77784
2.77977
2.78156
2.78349
2.78565
2.78796
2.79018
2.79211
2.7937
2.795
2.79613
2.79719
2.79825
2.79931
2.80035
2.80131
2.80216
2.80282
2.80328
2.80348
1
1
1
1
1
1
1
1
1
1
1
1
1
1
1
1
1
1
1
1
1
1
1
1
1
1
1
1
1
1
1
1
1
1
1
1
1
1
1
1
1
1
1
1
1
1
1
1
1.2126
2.42197
2.68852
2.69332
2.69848
2.70228
2.70563
2.7089
2.71236
2.71627
2.72071
2.72539
2.72985
2.73361
2.73654
2.73911
2.74183
2.74509
2.7489
2.75294
2.75665
2.75963
2.76199
2.76415
2.76653
2.76926
2.77218
2.77494
2.77728
2.77923
2.78104
2.78297
2.78511
2.78737
2.78954
2.79144
2.79303
2.79436
2.79553
2.79664
2.79773
2.79881
2.79982
2.80072
2.80148
2.80205
2.80245
2.80263
1
1
1
1
1
1
1
1
1
1
1
1
1
1
1
1
1
1
1
1
1
1
1
1
1
1
1
1
1
1
1
1
1
1
1
1
1
1
1
1
1
1
1
1
1
1
1
1
1.16383
2.39165
2.68922
2.69311
2.69701
2.7005
2.70402
2.70788
2.71199
2.7163
2.72078
2.7252
2.72929
2.73273
2.73553
2.73815
2.741
2.7444
2.74829
2.75231
2.75593
2.75884
2.76117
2.76336
2.76576
2.76849
2.77138
2.7741
2.77642
2.77839
2.78025
2.7822
2.78432
2.78651
2.78858
2.79042
2.79198
2.79332
2.79454
2.7957
2.79683
2.7979
2.79887
2.79969
2.80035
2.80084
2.80118
2.80135
1
1
1
1
1
1
1
1
1
1
1
1
1
1
1
1
1
1
1
1
1
1
1
1
1
1
1
1
1
1
1
1
1
1
1
1
1
1
1
1
1
1
1
1
1
1
1
1
1.10228
2.35376
2.68967
2.69225
2.69521
2.6987
2.70257
2.70698
2.71163
2.71628
2.72075
2.72484
2.7285
2.73166
2.73439
2.73717
2.74024
2.74381
2.74772
2.75161
2.75506
2.75785
2.76018
2.76243
2.76488
2.76761
2.77044
2.7731
2.77541
2.77742
2.77934
2.78133
2.78343
2.78553
2.7875
2.78927
2.7908
2.79217
2.79342
2.7946
2.79571
2.79671
2.79755
2.79821
2.7987
2.79903
2.79926
2.79936
1
1
1
1
1
1
1
1
1
1
1
1
1
1
1
1
1
1
1
1
1
1
1
1
1
1
1
1
1
1
1
1
1
1
1
1
1
1
1
1
1
1
1
1
1
1
1
1
1.00371
2.29106
2.68789
2.69062
2.6938
2.69795
2.70244
2.7072
2.71201
2.71673
2.72105
2.72472
2.72781
2.73061
2.7333
2.7363
2.73967
2.74339
2.74719
2.75079
2.75392
2.7565
2.75877
2.76104
2.76353
2.7662
2.76891
2.77143
2.77368
2.77573
2.77772
2.77975
2.78181
2.78382
2.78568
2.78736
2.78887
2.79028
2.7916
2.79285
2.79401
2.795
2.79579
2.79636
2.79673
2.79696
2.7971
2.79715
1
1
1
1
1
1
1
1
1
1
1
1
1
1
1
1
1
1
1
1
1
1
1
1
1
1
1
1
1
1
1
1
1
1
1
1
1
1
1
1
1
1
1
1
1
1
1
1
1.00001
2.20499
2.68297
2.68699
2.69026
2.69476
2.69957
2.70454
2.70946
2.71417
2.71836
2.72177
2.72457
2.7273
2.73021
2.73361
2.7374
2.74133
2.74505
2.74838
2.75125
2.7537
2.75601
2.75841
2.76099
2.76365
2.76627
2.76871
2.77097
2.77312
2.77525
2.77738
2.77945
2.78138
2.78313
2.78473
2.78623
2.78766
2.78904
2.79033
2.7915
2.79246
2.7932
2.7937
2.79399
2.79413
2.79417
2.79417
1
1
1
1
1
1
1
1
1
1
1
1
1
1
1
1
1
1
1
1
1
1
1
1
1
1
1
1
1
1
1
1
1
1
1
1
1
1
1
1
1
1
1
1
1
1
1
1
1
2.07875
2.67171
2.68318
2.68704
2.69181
2.69656
2.70146
2.7063
2.71087
2.71486
2.71819
2.72112
2.72414
2.72741
2.73108
2.73499
2.73887
2.74241
2.7455
2.74822
2.75063
2.75303
2.75556
2.75822
2.76087
2.76338
2.76574
2.76799
2.77021
2.77245
2.77465
2.77671
2.77855
2.78018
2.78167
2.7831
2.78451
2.78588
2.78717
2.78831
2.78924
2.78993
2.79037
2.79059
2.79066
2.79063
2.7906
1
1
1
1
1
1
1
1
1
1
1
1
1
1
1
1
1
1
1
1
1
1
1
1
1
1
1
1
1
1
1
1
1
1
1
1
1
1
1
1
1
1
1
1
1
1
1
1
1
1.90141
2.64159
2.67663
2.68172
2.68707
2.6918
2.69654
2.70118
2.70558
2.70955
2.71309
2.71644
2.71991
2.72361
2.72746
2.73135
2.73504
2.73837
2.74131
2.74399
2.74644
2.74894
2.75157
2.75428
2.7569
2.75935
2.76165
2.76389
2.76616
2.76847
2.77073
2.77278
2.77455
2.77607
2.77746
2.7788
2.78014
2.78146
2.78273
2.78387
2.78482
2.78552
2.78597
2.78618
2.78623
2.78617
2.78613
1
1
1
1
1
1
1
1
1
1
1
1
1
1
1
1
1
1
1
1
1
1
1
1
1
1
1
1
1
1
1
1
1
1
1
1
1
1
1
1
1
1
1
1
1
1
1
1
1
1.66731
2.58175
2.67085
2.67664
2.68217
2.68669
2.69116
2.6955
2.69974
2.7038
2.70764
2.7114
2.71522
2.71919
2.72312
2.72687
2.73032
2.73347
2.73632
2.73903
2.74161
2.74419
2.74686
2.74956
2.75213
2.75448
2.75669
2.75888
2.7611
2.76338
2.7656
2.76763
2.76938
2.77086
2.77218
2.77343
2.77466
2.77589
2.77707
2.77816
2.77908
2.77976
2.78018
2.78037
2.7804
2.78031
2.78027
1
1
1
1
1
1
1
1
1
1
1
1
1
1
1
1
1
1
1
1
1
1
1
1
1
1
1
1
1
1
1
1
1
1
1
1
1
1
1
1
1
1
1
1
1
1
1
1
1
1.35717
2.47297
2.67132
2.67225
2.6779
2.6817
2.68596
2.69016
2.69434
2.69841
2.70236
2.70627
2.71014
2.71408
2.71793
2.72153
2.7248
2.72784
2.73065
2.73338
2.7361
2.73878
2.74152
2.74421
2.74676
2.74906
2.75121
2.75329
2.75537
2.75747
2.75952
2.7614
2.763
2.76431
2.7654
2.76638
2.76733
2.7683
2.76931
2.77033
2.77129
2.77207
2.77259
2.77286
2.77296
2.7729
2.77288
1
1
1
1
1
1
1
1
1
1
1
1
1
1
1
1
1
1
1
1
1
1
1
1
1
1
1
1
1
1
1
1
1
1
1
1
1
1
1
1
1
1
1
1
1
1
1
1
1
1.01387
2.28725
2.67778
2.67715
2.67857
2.68111
2.68463
2.68848
2.69227
2.69574
2.69895
2.7021
2.70527
2.70861
2.71208
2.71533
2.71825
2.721
2.72363
2.7262
2.72891
2.73155
2.73425
2.73689
2.73938
2.74166
2.74376
2.74577
2.74774
2.74968
2.75159
2.75338
2.75496
2.75625
2.75726
2.75809
2.75883
2.75954
2.76029
2.76105
2.76176
2.76228
2.76254
2.76253
2.76238
2.76212
2.76198
1
1
1
1
1
1
1
1
1
1
1
1
1
1
1
1
1
1
1
1
1
1
1
1
1
1
1
1
1
1
1
1
1
1
1
1
1
1
1
1
1
1
1
1
1
1
1
1
1
1.00002
2.00288
2.64574
2.66158
2.66573
2.67106
2.67592
2.68045
2.6845
2.68798
2.69096
2.69377
2.69662
2.69962
2.70282
2.70597
2.70883
2.71148
2.71408
2.71661
2.71928
2.72191
2.72454
2.72715
2.72961
2.73189
2.73397
2.7359
2.73771
2.73945
2.74116
2.74281
2.74429
2.74545
2.74623
2.74667
2.74689
2.74695
2.74699
2.74715
2.74749
2.74792
2.74826
2.74833
2.74817
2.74771
2.74744
1
1
1
1
1
1
1
1
1
1
1
1
1
1
1
1
1
1
1
1
1
1
1
1
1
1
1
1
1
1
1
1
1
1
1
1
1
1
1
1
1
1
1
1
1
1
1
1
1
1
1.52865
2.51178
2.64558
2.65285
2.66171
2.66774
2.6729
2.67738
2.68119
2.68431
2.68703
2.68971
2.69251
2.6955
2.69854
2.70132
2.70376
2.70607
2.70827
2.71049
2.71277
2.71502
2.71732
2.71954
2.72158
2.72338
2.72497
2.72635
2.7276
2.72884
2.7301
2.73132
2.73231
2.73293
2.73303
2.73278
2.73232
2.7319
2.7316
2.73141
2.73114
2.73052
2.729
2.72648
2.72337
2.72077
1
1
1
1
1
1
1
1
1
1
1
1
1
1
1
1
1
1
1
1
1
1
1
1
1
1
1
1
1
1
1
1
1
1
1
1
1
1
1
1
1
1
1
1
1
1
1
1
1
1
1.0258
2.24421
2.65583
2.65416
2.6553
2.65888
2.66336
2.66804
2.67206
2.67518
2.67764
2.68
2.68262
2.68552
2.6886
2.69146
2.69381
2.69579
2.69761
2.6993
2.70106
2.70282
2.70468
2.70662
2.70845
2.71004
2.71129
2.71205
2.71262
2.71311
2.71369
2.7144
2.71497
2.71509
2.71461
2.71339
2.71159
2.70941
2.70693
2.70413
2.70096
2.69746
2.69403
2.69029
2.68754
2.68583
1
1
1
1
1
1
1
1
1
1
1
1
1
1
1
1
1
1
1
1
1
1
1
1
1
1
1
1
1
1
1
1
1
1
1
1
1
1
1
1
1
1
1
1
1
1
1
1
1
1
1.00004
1.75009
2.55614
2.63254
2.63781
2.64294
2.64812
2.65348
2.65819
2.66196
2.66494
2.66763
2.67047
2.67361
2.67687
2.67995
2.68248
2.68441
2.68593
2.68716
2.68821
2.68927
2.69046
2.69192
2.69363
2.69517
2.69593
2.69595
2.6956
2.69489
2.69423
2.69386
2.69352
2.69277
2.69124
2.68873
2.68538
2.68143
2.67701
2.67208
2.6665
2.66056
2.65479
2.65246
2.64974
2.66426
1
1
1
1
1
1
1
1
1
1
1
1
1
1
1
1
1
1
1
1
1
1
1
1
1
1
1
1
1
1
1
1
1
1
1
1
1
1
1
1
1
1
1
1
1
1
1
1
1
1
1
1.0928
2.33198
2.63335
2.63153
2.633
2.63739
2.64225
2.64702
2.65113
2.65433
2.65693
2.65948
2.66236
2.66553
2.66865
2.6713
2.67316
2.67447
2.67542
2.67589
2.67636
2.67689
2.67764
2.67897
2.68032
2.68082
2.68044
2.67927
2.67734
2.67529
2.67352
2.67187
2.66985
2.66692
2.66275
2.65721
2.65035
2.64175
2.63081
2.6156
2.59478
2.56443
2.52235
2.45979
2.33452
1
1
1
1
1
1
1
1
1
1
1
1
1
1
1
1
1
1
1
1
1
1
1
1
1
1
1
1
1
1
1
1
1
1
1
1
1
1
1
1
1
1
1
1
1
1
1
1
1
1
1
1.00069
1.99612
2.597
2.61378
2.61778
2.62314
2.62816
2.63293
2.63735
2.64102
2.64406
2.647
2.65023
2.65366
2.65689
2.65957
2.6615
2.66293
2.66404
2.66451
2.66478
2.66491
2.66504
2.66557
2.66653
2.6669
2.66634
2.66467
2.66186
2.65857
2.65537
2.65221
2.64869
2.64417
2.63826
2.63044
2.62069
2.60793
2.59157
2.56843
2.53747
2.4926
2.43674
2.32473
2.16123
1
1
1
1
1
1
1
1
1
1
1
1
1
1
1
1
1
1
1
1
1
1
1
1
1
1
1
1
1
1
1
1
1
1
1
1
1
1
1
1
1
1
1
1
1
1
1
1
1
1
1
0.999999
1.35961
2.41307
2.60083
2.604
2.61065
2.6168
2.62161
2.62575
2.62917
2.63206
2.63493
2.63816
2.64168
2.64497
2.64765
2.64963
2.65104
2.65203
2.65261
2.65278
2.65267
2.6523
2.65212
2.65231
2.6523
2.65153
2.6494
2.64584
2.64144
2.63683
2.63201
2.6268
2.62042
2.61258
2.60246
2.58997
2.57388
2.5532
2.52557
2.48822
2.43932
2.36538
2.2591
2.13249
1
1
1
1
1
1
1
1
1
1
1
1
1
1
1
1
1
1
1
1
1
1
1
1
1
1
1
1
1
1
1
1
1
1
1
1
1
1
1
1
1
1
1
1
1
1
1
1
1
1
1
1
1.01235
2.09835
2.59633
2.59629
2.59951
2.60478
2.6095
2.61332
2.61636
2.61883
2.62152
2.62476
2.62843
2.63186
2.63467
2.63661
2.63781
2.63852
2.63896
2.6391
2.63894
2.63845
2.63791
2.63759
2.63714
2.63595
2.63333
2.62917
2.62388
2.61812
2.61183
2.60494
2.59668
2.58683
2.57463
2.55982
2.54149
2.51833
2.48878
2.44965
2.40013
2.33063
2.24401
2.14766
1
1
1
1
1
1
1
1
1
1
1
1
1
1
1
1
1
1
1
1
1
1
1
1
1
1
1
1
1
1
1
1
1
1
1
1
1
1
1
1
1
1
1
1
1
1
1
1
1
1
1
1
1.00001
1.43661
2.43418
2.58617
2.59067
2.59585
2.59935
2.60205
2.6042
2.60597
2.60813
2.61094
2.61414
2.61755
2.62057
2.62274
2.62401
2.62456
2.62468
2.62457
2.6243
2.62382
2.62318
2.62247
2.62152
2.61986
2.61681
2.61226
2.60634
2.5997
2.59228
2.58401
2.57428
2.56274
2.54889
2.53235
2.51257
2.48835
2.45893
2.4207
2.375
2.31699
2.24843
2.17232
1
1
1
1
1
1
1
1
1
1
1
1
1
1
1
1
1
1
1
1
1
1
1
1
1
1
1
1
1
1
1
1
1
1
1
1
1
1
1
1
1
1
1
1
1
1
1
1
1
1
1
1
1
1.01831
2.10855
2.58707
2.58718
2.5881
2.58953
2.59118
2.5926
2.59392
2.59569
2.5978
2.60042
2.60329
2.6061
2.60825
2.6094
2.6097
2.60955
2.60918
2.60881
2.60841
2.60774
2.60676
2.60527
2.60304
2.59955
2.59478
2.58859
2.58143
2.5733
2.56411
2.55343
2.54076
2.52578
2.50816
2.48766
2.46318
2.43468
2.39914
2.35918
2.31124
2.25575
2.19469
1
1
1
1
1
1
1
1
1
1
1
1
1
1
1
1
1
1
1
1
1
1
1
1
1
1
1
1
1
1
1
1
1
1
1
1
1
1
1
1
1
1
1
1
1
1
1
1
1
1
1
1
1
1.00002
1.39755
2.4138
2.57549
2.57763
2.57969
2.58095
2.58171
2.58264
2.58409
2.58581
2.58768
2.58947
2.59142
2.59304
2.59369
2.5938
2.59356
2.59316
2.59287
2.59252
2.5918
2.59052
2.58842
2.58549
2.58157
2.57671
2.57062
2.56333
2.55486
2.54524
2.53418
2.52118
2.50587
2.488
2.46774
2.44329
2.41607
2.38367
2.34886
2.30772
2.26179
2.21145
1
1
1
1
1
1
1
1
1
1
1
1
1
1
1
1
1
1
1
1
1
1
1
1
1
1
1
1
1
1
1
1
1
1
1
1
1
1
1
1
1
1
1
1
1
1
1
1
1
1
1
1
1
1
1.01391
2.03208
2.56008
2.5676
2.5694
2.57016
2.57139
2.57259
2.57414
2.57594
2.57744
2.57859
2.57945
2.57979
2.57944
2.57876
2.57777
2.57713
2.57683
2.57649
2.57575
2.57427
2.57159
2.56785
2.56329
2.55821
2.55231
2.54522
2.53679
2.52712
2.51606
2.50321
2.4882
2.47076
2.45122
2.42766
2.40218
2.37287
2.34189
2.30554
2.26724
2.22479
1
1
1
1
1
1
1
1
1
1
1
1
1
1
1
1
1
1
1
1
1
1
1
1
1
1
1
1
1
1
1
1
1
1
1
1
1
1
1
1
1
1
1
1
1
1
1
1
1
1
1
1
1
1
1.00001
1.22617
2.34905
2.56423
2.56111
2.56115
2.5614
2.56203
2.56322
2.56491
2.56636
2.56722
2.56734
2.567
2.56595
2.56449
2.5628
2.5618
2.56124
2.5606
2.55954
2.55772
2.55458
2.55026
2.54514
2.53969
2.53381
2.52697
2.51889
2.5095
2.49878
2.48639
2.47227
2.45555
2.43701
2.41535
2.39185
2.36535
2.33754
2.30551
2.27222
2.2356
1
1
1
1
1
1
1
1
1
1
1
1
1
1
1
1
1
1
1
1
1
1
1
1
1
1
1
1
1
1
1
1
1
1
1
1
1
1
1
1
1
1
1
1
1
1
1
1
1
1
1
1
1
1
1
1.00359
1.84898
2.50423
2.53855
2.54353
2.54683
2.54799
2.54943
2.55179
2.55419
2.55547
2.55555
2.55488
2.5532
2.55106
2.54882
2.54741
2.54635
2.545
2.54342
2.54126
2.53781
2.53322
2.52769
2.5218
2.51567
2.50893
2.50126
2.49232
2.48216
2.47029
2.45711
2.44107
2.42375
2.40428
2.38308
2.35932
2.33451
2.30628
2.27625
2.24439
1
1
1
1
1
1
1
1
1
1
1
1
1
1
1
1
1
1
1
1
1
1
1
1
1
1
1
1
1
1
1
1
1
1
1
1
1
1
1
1
1
1
1
1
1
1
1
1
1
1
1
1
1
1
1
1
1.09762
2.19981
2.53077
2.53574
2.5353
2.53459
2.53541
2.53807
2.54173
2.54374
2.54401
2.5433
2.54145
2.53904
2.53652
2.5346
2.53306
2.53096
2.52866
2.52599
2.52218
2.51733
2.51154
2.50529
2.49869
2.4917
2.48411
2.47556
2.46624
2.45481
2.44234
2.42719
2.41114
2.39368
2.37471
2.35351
2.3315
2.3066
2.27917
2.25101
1
1
1
1
1
1
1
1
1
1
1
1
1
1
1
1
1
1
1
1
1
1
1
1
1
1
1
1
1
1
1
1
1
1
1
1
1
1
1
1
1
1
1
1
1
1
1
1
1
1
1
1
1
1
1
1
1.00063
1.42701
2.35498
2.51405
2.51329
2.51605
2.51821
2.52202
2.5267
2.52987
2.53072
2.53032
2.52881
2.52654
2.52406
2.52178
2.51993
2.5174
2.51458
2.5114
2.50743
2.50238
2.49655
2.49002
2.48289
2.47549
2.46776
2.45948
2.4506
2.43968
2.42779
2.41387
2.3991
2.38311
2.36619
2.34713
2.32727
2.30526
2.28079
2.25593
1
1
1
1
1
1
1
1
1
1
1
1
1
1
1
1
1
1
1
1
1
1
1
1
1
1
1
1
1
1
1
1
1
1
1
1
1
1
1
1
1
1
1
1
1
1
1
1
1
1
1
1
1
1
1
1
1
1.0158
1.87832
2.46533
2.49622
2.50117
2.505
2.50865
2.51264
2.51542
2.51604
2.51579
2.5148
2.513
2.51091
2.50871
2.50663
2.50433
2.50134
2.49791
2.49392
2.48899
2.48323
2.47654
2.46912
2.46135
2.45323
2.44459
2.43548
2.42523
2.41399
2.40125
2.38764
2.37273
2.35749
2.33999
2.32176
2.30198
2.28043
2.25834
1
1
1
1
1
1
1
1
1
1
1
1
1
1
1
1
1
1
1
1
1
1
1
1
1
1
1
1
1
1
1
1
1
1
1
1
1
1
1
1
1
1
1
1
1
1
1
1
1
1
1
1
1
1
1
1
1
1.00003
1.11164
2.11126
2.47362
2.49641
2.49738
2.4994
2.50114
2.50194
2.50183
2.50118
2.50011
2.49854
2.49678
2.49486
2.49288
2.49112
2.48853
2.48528
2.48132
2.4766
2.47092
2.46422
2.45673
2.44864
2.44013
2.43128
2.42201
2.41209
2.4011
2.38926
2.37653
2.36257
2.34858
2.3325
2.31569
2.29761
2.2788
2.25877
1
1
1
1
1
1
1
1
1
1
1
1
1
1
1
1
1
1
1
1
1
1
1
1
1
1
1
1
1
1
1
1
1
1
1
1
1
1
1
1
1
1
1
1
1
1
1
1
1
1
1
1
1
1
1
1
1
1
1.00084
1.25759
2.25663
2.4799
2.48115
2.48386
2.48384
2.48396
2.48396
2.48383
2.48332
2.48251
2.48141
2.47997
2.47839
2.4771
2.47529
2.47255
2.46886
2.46439
2.45902
2.45252
2.44515
2.43715
2.4285
2.4197
2.41041
2.40068
2.38985
2.37841
2.36616
2.35306
2.33983
2.32506
2.30948
2.29286
2.27593
2.25779
1
1
1
1
1
1
1
1
1
1
1
1
1
1
1
1
1
1
1
1
1
1
1
1
1
1
1
1
1
1
1
1
1
1
1
1
1
1
1
1
1
1
1
1
1
1
1
1
1
1
1
1
1
1
1
1
1
1
1
1.00472
1.63073
2.36807
2.45893
2.45659
2.4584
2.46043
2.46233
2.4637
2.46446
2.46447
2.46438
2.46384
2.46295
2.46234
2.46126
2.45925
2.45611
2.45192
2.44674
2.44061
2.43363
2.42579
2.41755
2.40903
2.40001
2.39053
2.38014
2.36899
2.35704
2.34469
2.33194
2.31816
2.30349
2.28815
2.27236
2.25586
1
1
1
1
1
1
1
1
1
1
1
1
1
1
1
1
1
1
1
1
1
1
1
1
1
1
1
1
1
1
1
1
1
1
1
1
1
1
1
1
1
1
1
1
1
1
1
1
1
1
1
1
1
1
1
1
1
1
1
1.00001
1.0442
1.89285
2.41556
2.44464
2.44342
2.4452
2.44639
2.44731
2.44786
2.44797
2.44815
2.44807
2.44772
2.44746
2.4467
2.44505
2.44234
2.43854
2.43378
2.42799
2.42144
2.41426
2.40661
2.39852
2.38993
2.38088
2.3712
2.36067
2.34932
2.33766
2.32526
2.31212
2.29815
2.28383
2.26874
2.25353
1
1
1
1
1
1
1
1
1
1
1
1
1
1
1
1
1
1
1
1
1
1
1
1
1
1
1
1
1
1
1
1
1
1
1
1
1
1
1
1
1
1
1
1
1
1
1
1
1
1
1
1
1
1
1
1
1
1
1
1
1.00018
1.12545
2.01473
2.41205
2.43448
2.43617
2.43674
2.43624
2.43555
2.43471
2.43407
2.43341
2.4328
2.43219
2.4312
2.42955
2.42705
2.42365
2.4194
2.41418
2.40811
2.40171
2.39481
2.38737
2.37949
2.37118
2.36243
2.35282
2.34238
2.33146
2.3196
2.30704
2.29372
2.28008
2.26553
2.25117
1
1
1
1
1
1
1
1
1
1
1
1
1
1
1
1
1
1
1
1
1
1
1
1
1
1
1
1
1
1
1
1
1
1
1
1
1
1
1
1
1
1
1
1
1
1
1
1
1
1
1
1
1
1
1
1
1
1
1
1
1
1.00111
1.204
2.09265
2.39901
2.42781
2.42696
2.4263
2.42519
2.4238
2.42255
2.4214
2.42012
2.41859
2.41673
2.41446
2.41162
2.40817
2.40418
2.39949
2.3941
2.38837
2.38216
2.3755
2.3685
2.36111
2.35338
2.34485
2.33543
2.32529
2.31413
2.30216
2.28961
2.27658
2.26267
2.24896
1
1
1
1
1
1
1
1
1
1
1
1
1
1
1
1
1
1
1
1
1
1
1
1
1
1
1
1
1
1
1
1
1
1
1
1
1
1
1
1
1
1
1
1
1
1
1
1
1
1
1
1
1
1
1
1
1
1
1
1
1
1
1.00293
1.28354
2.1473
2.38782
2.40998
2.41201
2.41205
2.41179
2.4111
2.41
2.40833
2.40614
2.40357
2.40062
2.39723
2.39342
2.38925
2.38468
2.37968
2.37437
2.36871
2.3628
2.35666
2.35018
2.34339
2.33589
2.32744
2.31815
2.30784
2.29671
2.28504
2.27273
2.25959
2.24655
1
1
1
1
1
1
1
1
1
1
1
1
1
1
1
1
1
1
1
1
1
1
1
1
1
1
1
1
1
1
1
1
1
1
1
1
1
1
1
1
1
1
1
1
1
1
1
1
1
1
1
1
1
1
1
1
1
1
1
1
1
1
1
1.00591
1.36531
2.18465
2.37444
2.38977
2.39387
2.39556
2.39657
2.39617
2.39498
2.39316
2.39074
2.3877
2.38415
2.38015
2.3758
2.37113
2.3662
2.36105
2.35567
2.35018
2.34455
2.33867
2.33255
2.32591
2.31837
2.30992
2.30052
2.29039
2.27961
2.26814
2.25577
2.2435
1
1
1
1
1
1
1
1
1
1
1
1
1
1
1
1
1
1
1
1
1
1
1
1
1
1
1
1
1
1
1
1
1
1
1
1
1
1
1
1
1
1
1
1
1
1
1
1
1
1
1
1
1
1
1
1
1
1
1
1
1
1
1
1.00001
1.01071
1.43581
2.2132
2.36265
2.37058
2.37382
2.37602
2.37736
2.37758
2.37707
2.3756
2.37335
2.37052
2.36707
2.36303
2.35851
2.35365
2.34855
2.34327
2.33795
2.33257
2.32699
2.32121
2.3151
2.30827
2.30057
2.29198
2.28275
2.27277
2.26222
2.25069
2.23931
1
1
1
1
1
1
1
1
1
1
1
1
1
1
1
1
1
1
1
1
1
1
1
1
1
1
1
1
1
1
1
1
1
1
1
1
1
1
1
1
1
1
1
1
1
1
1
1
1
1
1
1
1
1
1
1
1
1
1
1
1
1
1
1
1.00002
1.01679
1.50293
2.23475
2.35335
2.35298
2.35395
2.35481
2.35593
2.35688
2.35694
2.35646
2.35518
2.35294
2.34975
2.3458
2.34129
2.33642
2.33136
2.3262
2.32102
2.31567
2.31009
2.30422
2.29776
2.29046
2.28244
2.27393
2.26472
2.25504
2.24444
2.23395
1
1
1
1
1
1
1
1
1
1
1
1
1
1
1
1
1
1
1
1
1
1
1
1
1
1
1
1
1
1
1
1
1
1
1
1
1
1
1
1
1
1
1
1
1
1
1
1
1
1
1
1
1
1
1
1
1
1
1
1
1
1
1
1
1
1.00005
1.02465
1.5731
2.25036
2.33982
2.33732
2.33611
2.33611
2.33626
2.33665
2.33691
2.33661
2.33562
2.33372
2.33093
2.32744
2.32346
2.31913
2.31455
2.30978
2.30469
2.29921
2.29339
2.28711
2.28007
2.27246
2.26447
2.25591
2.24688
2.23718
2.22756
1
1
1
1
1
1
1
1
1
1
1
1
1
1
1
1
1
1
1
1
1
1
1
1
1
1
1
1
1
1
1
1
1
1
1
1
1
1
1
1
1
1
1
1
1
1
1
1
1
1
1
1
1
1
1
1
1
1
1
1
1
1
1
1
1
1
1.00008
1.03571
1.60112
2.24776
2.32761
2.32525
2.32304
2.32147
2.32038
2.31958
2.31871
2.31753
2.31594
2.31396
2.3115
2.30858
2.30524
2.30151
2.29739
2.29286
2.28784
2.28234
2.27639
2.26973
2.2625
2.25497
2.24698
2.2386
2.22963
2.22065
1
1
1
1
1
1
1
1
1
1
1
1
1
1
1
1
1
1
1
1
1
1
1
1
1
1
1
1
1
1
1
1
1
1
1
1
1
1
1
1
1
1
1
1
1
1
1
1
1
1
1
1
1
1
1
1
1
1
1
1
1
1
1
1
1
1
1
1.00015
1.04152
1.59584
2.23506
2.31726
2.31474
2.31209
2.30948
2.30683
2.30432
2.30174
2.29919
2.2968
2.2944
2.29188
2.28918
2.2862
2.28286
2.27906
2.27473
2.26985
2.26446
2.25847
2.25201
2.2451
2.2378
2.23015
2.22178
2.21359
1
1
1
1
1
1
1
1
1
1
1
1
1
1
1
1
1
1
1
1
1
1
1
1
1
1
1
1
1
1
1
1
1
1
1
1
1
1
1
1
1
1
1
1
1
1
1
1
1
1
1
1
1
1
1
1
1
1
1
1
1
1
1
1
1
1
1
1
1.0002
1.04104
1.58641
2.21639
2.30585
2.30408
2.30051
2.29694
2.2932
2.28964
2.2862
2.28275
2.27945
2.27633
2.27332
2.27032
2.26716
2.26367
2.25987
2.25569
2.25107
2.24597
2.24038
2.23438
2.22802
2.22114
2.2139
2.20638
1
1
1
1
1
1
1
1
1
1
1
1
1
1
1
1
1
1
1
1
1
1
1
1
1
1
1
1
1
1
1
1
1
1
1
1
1
1
1
1
1
1
1
1
1
1
1
1
1
1
1
1
1
1
1
1
1
1
1
1
1
1
1
1
1
1
1
1
1
1.0002
1.03937
1.56059
2.18888
2.29325
2.29224
2.28834
2.28465
2.28055
2.27659
2.27252
2.26835
2.26425
2.26024
2.25628
2.25241
2.24859
2.24471
2.24066
2.23655
2.23215
2.22738
2.22243
2.21702
2.21117
2.20481
2.19802
1
1
1
1
1
1
1
1
1
1
1
1
1
1
1
1
1
1
1
1
1
1
1
1
1
1
1
1
1
1
1
1
1
1
1
1
1
1
1
1
1
1
1
1
1
1
1
1
1
1
1
1
1
1
1
1
1
1
1
1
1
1
1
1
1
1
1
1
1
1
1.00019
1.03477
1.51959
2.1493
2.27705
2.28044
2.27625
2.27272
2.26877
2.26456
2.26005
2.25538
2.25063
2.24571
2.24078
2.23602
2.23145
2.227
2.22276
2.21862
2.2144
2.20982
2.20504
2.19999
2.19437
2.18875
1
1
1
1
1
1
1
1
1
1
1
1
1
1
1
1
1
1
1
1
1
1
1
1
1
1
1
1
1
1
1
1
1
1
1
1
1
1
1
1
1
1
1
1
1
1
1
1
1
1
1
1
1
1
1
1
1
1
1
1
1
1
1
1
1
1
1
1
1
1
1
1.00016
1.0283
1.46079
2.10005
2.25366
2.26781
2.26407
2.26072
2.25666
2.25242
2.24777
2.2428
2.23755
2.23209
2.22669
2.22154
2.21662
2.21178
2.20716
2.2027
2.19815
2.19361
2.18883
2.18393
2.17872
1
1
1
1
1
1
1
1
1
1
1
1
1
1
1
1
1
1
1
1
1
1
1
1
1
1
1
1
1
1
1
1
1
1
1
1
1
1
1
1
1
1
1
1
1
1
1
1
1
1
1
1
1
1
1
1
1
1
1
1
1
1
1
1
1
1
1
1
1
1
1
1
1.00012
1.02047
1.39294
2.01937
2.22773
2.25718
2.25091
2.24712
2.24315
2.23905
2.23487
2.23048
2.22564
2.22033
2.21477
2.20926
2.2039
2.19875
2.19394
2.18904
2.18411
2.17904
2.17381
2.16862
1
1
1
1
1
1
1
1
1
1
1
1
1
1
1
1
1
1
1
1
1
1
1
1
1
1
1
1
1
1
1
1
1
1
1
1
1
1
1
1
1
1
1
1
1
1
1
1
1
1
1
1
1
1
1
1
1
1
1
1
1
1
1
1
1
1
1
1
1
1
1
1
1
1.00007
1.01371
1.30736
1.91109
2.19635
2.23987
2.23499
2.2329
2.2303
2.22712
2.22334
2.21916
2.21464
2.2098
2.20473
2.19937
2.19383
2.18822
2.18263
2.17708
2.17152
2.16598
2.16048
1
1
1
1
1
1
1
1
1
1
1
1
1
1
1
1
1
1
1
1
1
1
1
1
1
1
1
1
1
1
1
1
1
1
1
1
1
1
1
1
1
1
1
1
1
1
1
1
1
1
1
1
1
1
1
1
1
1
1
1
1
1
1
1
1
1
1
1
1
1
1
1
1
1
1.00004
1.0079
1.2135
1.78653
2.15179
2.21861
2.21769
2.21734
2.2156
2.21355
2.21073
2.20725
2.20322
2.1987
2.19388
2.18879
2.18343
2.17795
2.17212
2.16611
2.16001
2.15352
1
1
1
1
1
1
1
1
1
1
1
1
1
1
1
1
1
1
1
1
1
1
1
1
1
1
1
1
1
1
1
1
1
1
1
1
1
1
1
1
1
1
1
1
1
1
1
1
1
1
1
1
1
1
1
1
1
1
1
1
1
1
1
1
1
1
1
1
1
1
1
1
1
1
1
1.00002
1.00382
1.1317
1.65173
2.10048
2.18979
2.20111
2.19829
2.1981
2.19723
2.19555
2.19315
2.1901
2.1865
2.1823
2.17769
2.17247
2.16702
2.16093
2.15502
2.14839
1
1
1
1
1
1
1
1
1
1
1
1
1
1
1
1
1
1
1
1
1
1
1
1
1
1
1
1
1
1
1
1
1
1
1
1
1
1
1
1
1
1
1
1
1
1
1
1
1
1
1
1
1
1
1
1
1
1
1
1
1
1
1
1
1
1
1
1
1
1
1
1
1
1
1
1
1.00001
1.00159
1.07147
1.52079
2.02414
2.15824
2.18921
2.18106
2.18109
2.18073
2.1797
2.17783
2.17566
2.17291
2.1692
2.16488
2.15969
2.15452
2.14869
2.1437
1
1
1
1
1
1
1
1
1
1
1
1
1
1
1
1
1
1
1
1
1
1
1
1
1
1
1
1
1
1
1
1
1
1
1
1
1
1
1
1
1
1
1
1
1
1
1
1
1
1
1
1
1
1
1
1
1
1
1
1
1
1
1
1
1
1
1
1
1
1
1
1
1
1
1
1
1
1
1.00057
1.03481
1.38693
1.9087
2.13109
2.16931
2.16661
2.16482
2.16336
2.16241
2.1609
2.15885
2.15602
2.15255
2.14892
2.14691
2.14916
2.15646
1
1
1
1
1
1
1
1
1
1
1
1
1
1
1
1
1
1
1
1
1
1
1
1
1
1
1
1
1
1
1
1
1
1
1
1
1
1
1
1
1
1
1
1
1
1
1
1
1
1
1
1
1
1
1
1
1
1
1
1
1
1
1
1
1
1
1
1
1
1
1
1
1
1
1
1
1
1
1
1.00018
1.0151
1.25066
1.76113
2.08818
2.14729
2.15231
2.14742
2.14682
2.14534
2.14222
2.13981
2.14209
2.14962
2.16773
2.20133
2.25252
1
1
1
1
1
1
1
1
1
1
1
1
1
1
1
1
1
1
1
1
1
1
1
1
1
1
1
1
1
1
1
1
1
1
1
1
1
1
1
1
1
1
1
1
1
1
1
1
1
1
1
1
1
1
1
1
1
1
1
1
1
1
1
1
1
1
1
1
1
1
1
1
1
1
1
1
1
1
1
1
1.00005
1.00565
1.13454
1.59495
2.02142
2.11757
2.13901
2.13436
2.12805
2.13131
2.14589
2.17817
2.22388
2.28076
2.32854
2.36406
1
1
1
1
1
1
1
1
1
1
1
1
1
1
1
1
1
1
1
1
1
1
1
1
1
1
1
1
1
1
1
1
1
1
1
1
1
1
1
1
1
1
1
1
1
1
1
1
1
1
1
1
1
1
1
1
1
1
1
1
1
1
1
1
1
1
1
1
1
1
1
1
1
1
1
1
1
1
1
1
1
1.00001
1.00175
1.0586
1.43687
1.89361
2.10343
2.11561
2.14305
2.18592
2.24734
2.30528
2.34514
2.36899
2.38288
2.38136
1
1
1
1
1
1
1
1
1
1
1
1
1
1
1
1
1
1
1
1
1
1
1
1
1
1
1
1
1
1
1
1
1
1
1
1
1
1
1
1
1
1
1
1
1
1
1
1
1
1
1
1
1
1
1
1
1
1
1
1
1
1
1
1
1
1
1
1
1
1
1
1
1
1
1
1
1
1
1
1
1
1
1
1.00045
1.02227
1.27381
1.7418
2.07366
2.29137
2.33978
2.37428
2.38527
2.38903
2.38393
2.37831
2.37283
1
1
1
1
1
1
1
1
1
1
1
1
1
1
1
1
1
1
1
1
1
1
1
1
1
1
1
1
1
1
1
1
1
1
1
1
1
1
1
1
1
1
1
1
1
1
1
1
1
1
1
1
1
1
1
1
1
1
1
1
1
1
1
1
1
1
1
1
1
1
1
1
1
1
1
1
1
1
1
1
1
1
1
1
1.00009
1.0075
1.12295
2.16795
2.55696
2.51773
2.49141
2.47083
2.45128
2.42965
2.41028
2.39502
1
1
1
1
1
1
1
1
1
1
1
1
1
1
1
1
1
1
1
1
1
1
1
1
1
1
1
1
1
1
1
1
1
1
1
1
1
1
1
1
1
1
1
1
1
1
1
1
1
1
1
1
1
1
1
1
1
1
1
1
1
1
1
1
1
1
1
1
1
1
1
1
1
1
1
1
1
1
1
1
1
1
1
1
1
1.00002
1.00141
2.26786
2.68245
2.63889
2.59582
2.55691
2.52486
2.49579
2.47013
2.44695
1
1
1
1
1
1
1
1
1
1
1
1
1
1
1
1
1
1
1
1
1
1
1
1
1
1
1
1
1
1
1
1
1
1
1
1
1
1
1
1
1
1
1
1
1
1
1
1
1
1
1
1
1
1
1
1
1
1
1
1
1
1
1
1
1
1
1
1
1
1
1
1
1
1
1
1
1
1
1
1
1
1
1
1
1
1
1
2.1897
2.70848
2.7
2.68365
2.66055
2.63519
2.60935
2.58351
2.55805
1
1
1
1
1
1
1
1
1
1
1
1
1
1
1
1
1
1
1
1
1
1
1
1
1
1
1
1
1
1
1
1
1
1
1
1
1
1
1
1
1
1
1
1
1
1
1
1
1
1
1
1
1
1
1
1
1
1
1
1
1
1
1
1
1
1
1
1
1
1
1
1
1
1
1
1
1
1
1
1
1
1
1
1
1
1
1
1.9853
2.68482
2.70411
2.70117
2.69759
2.68877
2.67637
2.66074
2.64331
1
1
1
1
1
1
1
1
1
1
1
1
1
1
1
1
1
1
1
1
1
1
1
1
1
1
1
1
1
1
1
1
1
1
1
1
1
1
1
1
1
1
1
1
1
1
1
1
1
1
1
1
1
1
1
1
1
1
1
1
1
1
1
1
1
1
1
1
1
1
1
1
1
1
1
1
1
1
1
1
1
1
1
1
1
1
1
1.69567
2.60243
2.69691
2.69464
2.69259
2.68955
2.6872
2.6832
2.67762
1
1
1
1
1
1
1
1
1
1
1
1
1
1
1
1
1
1
1
1
1
1
1
1
1
1
1
1
1
1
1
1
1
1
1
1
1
1
1
1
1
1
1
1
1
1
1
1
1
1
1
1
1
1
1
1
1
1
1
1
1
1
1
1
1
1
1
1
1
1
1
1
1
1
1
1
1
1
1
1
1
1
1
1
1
1
1
1.35707
2.48049
2.6905
2.68835
2.68855
2.68818
2.68686
2.68476
2.68235
1
1
1
1
1
1
1
1
1
1
1
1
1
1
1
1
1
1
1
1
1
1
1
1
1
1
1
1
1
1
1
1
1
1
1
1
1
1
1
1
1
1
1
1
1
1
1
1
1
1
1
1
1
1
1
1
1
1
1
1
1
1
1
1
1
1
1
1
1
1
1
1
1
1
1
1
1
1
1
1
1
1
1
1
1
1
1
1.05066
2.33591
2.68389
2.68457
2.68402
2.68398
2.68312
2.68174
2.68008
1
1
1
1
1
1
1
1
1
1
1
1
1
1
1
1
1
1
1
1
1
1
1
1
1
1
1
1
1
1
1
1
1
1
1
1
1
1
1
1
1
1
1
1
1
1
1
1
1
1
1
1
1
1
1
1
1
1
1
1
1
1
1
1
1
1
1
1
1
1
1
1
1
1
1
1
1
1
1
1
1
1
1
1
1
1
1
1.00026
2.15954
2.67075
2.6869
2.68483
2.68399
2.68185
2.67957
2.67731
1
1
1
1
1
1
1
1
1
1
1
1
1
1
1
1
1
1
1
1
1
1
1
1
1
1
1
1
1
1
1
1
1
1
1
1
1
1
1
1
1
1
1
1
1
1
1
1
1
1
1
1
1
1
1
1
1
1
1
1
1
1
1
1
1
1
1
1
1
1
1
1
1
1
1
1
1
1
1
1
1
1
1
1
1
1
1
1
1.94974
2.64635
2.69003
2.68635
2.6844
2.68138
2.67839
2.67549
1
1
1
1
1
1
1
1
1
1
1
1
1
1
1
1
1
1
1
1
1
1
1
1
1
1
1
1
1
1
1
1
1
1
1
1
1
1
1
1
1
1
1
1
1
1
1
1
1
1
1
1
1
1
1
1
1
1
1
1
1
1
1
1
1
1
1
1
1
1
1
1
1
1
1
1
1
1
1
1
1
1
1
1
1
1
1
1
1.70825
2.60419
2.69052
2.68579
2.68355
2.68052
2.67755
2.67452
1
1
1
1
1
1
1
1
1
1
1
1
1
1
1
1
1
1
1
1
1
1
1
1
1
1
1
1
1
1
1
1
1
1
1
1
1
1
1
1
1
1
1
1
1
1
1
1
1
1
1
1
1
1
1
1
1
1
1
1
1
1
1
1
1
1
1
1
1
1
1
1
1
1
1
1
1
1
1
1
1
1
1
1
1
1
1
1
1.44625
2.52754
2.69048
2.68539
2.68312
2.68039
2.6777
2.6749
1
1
1
1
1
1
1
1
1
1
1
1
1
1
1
1
1
1
1
1
1
1
1
1
1
1
1
1
1
1
1
1
1
1
1
1
1
1
1
1
1
1
1
1
1
1
1
1
1
1
1
1
1
1
1
1
1
1
1
1
1
1
1
1
1
1
1
1
1
1
1
1
1
1
1
1
1
1
1
1
1
1
1
1
1
1
1
1
1.21913
2.43197
2.69303
2.68806
2.68474
2.68179
2.67903
2.67643
1
1
1
1
1
1
1
1
1
1
1
1
1
1
1
1
1
1
1
1
1
1
1
1
1
1
1
1
1
1
1
1
1
1
1
1
1
1
1
1
1
1
1
1
1
1
1
1
1
1
1
1
1
1
1
1
1
1
1
1
1
1
1
1
1
1
1
1
1
1
1
1
1
1
1
1
1
1
1
1
1
1
1
1
1
1
1
1
1.0091
2.31162
2.6925
2.69302
2.68833
2.68547
2.68249
2.67982
1
1
1
1
1
1
1
1
1
1
1
1
1
1
1
1
1
1
1
1
1
1
1
1
1
1
1
1
1
1
1
1
1
1
1
1
1
1
1
1
1
1
1
1
1
1
1
1
1
1
1
1
1
1
1
1
1
1
1
1
1
1
1
1
1
1
1
1
1
1
1
1
1
1
1
1
1
1
1
1
1
1
1
1
1
1
1
1
1.00001
2.18647
2.68598
2.69543
2.69077
2.68818
2.6853
2.68267
1
1
1
1
1
1
1
1
1
1
1
1
1
1
1
1
1
1
1
1
1
1
1
1
1
1
1
1
1
1
1
1
1
1
1
1
1
1
1
1
1
1
1
1
1
1
1
1
1
1
1
1
1
1
1
1
1
1
1
1
1
1
1
1
1
1
1
1
1
1
1
1
1
1
1
1
1
1
1
1
1
1
1
1
1
1
1
1
1
2.0523
2.67528
2.70044
2.69544
2.69264
2.68942
2.68632
1
1
1
1
1
1
1
1
1
1
1
1
1
1
1
1
1
1
1
1
1
1
1
1
1
1
1
1
1
1
1
1
1
1
1
1
1
1
1
1
1
1
1
1
1
1
1
1
1
1
1
1
1
1
1
1
1
1
1
1
1
1
1
1
1
1
1
1
1
1
1
1
1
1
1
1
1
1
1
1
1
1
1
1
1
1
1
1
1
1.92478
2.66041
2.7054
2.69949
2.69604
2.69219
2.68845
1
1
1
1
1
1
1
1
1
1
1
1
1
1
1
1
1
1
1
1
1
1
1
1
1
1
1
1
1
1
1
1
1
1
1
1
1
1
1
1
1
1
1
1
1
1
1
1
1
1
1
1
1
1
1
1
1
1
1
1
1
1
1
1
1
1
1
1
1
1
1
1
1
1
1
1
1
1
1
1
1
1
1
1
1
1
1
1
1
1.80552
2.64133
2.70947
2.70259
2.69845
2.69402
2.68981
1
1
1
1
1
1
1
1
1
1
1
1
1
1
1
1
1
1
1
1
1
1
1
1
1
1
1
1
1
1
1
1
1
1
1
1
1
1
1
1
1
1
1
1
1
1
1
1
1
1
1
1
1
1
1
1
1
1
1
1
1
1
1
1
1
1
1
1
1
1
1
1
1
1
1
1
1
1
1
1
1
1
1
1
1
1
1
1
1
1.69268
2.62043
2.71033
2.70342
2.69916
2.69461
2.69028
1
1
1
1
1
1
1
1
1
1
1
1
1
1
1
1
1
1
1
1
1
1
1
1
1
1
1
1
1
1
1
1
1
1
1
1
1
1
1
1
1
1
1
1
1
1
1
1
1
1
1
1
1
1
1
1
1
1
1
1
1
1
1
1
1
1
1
1
1
1
1
1
1
1
1
1
1
1
1
1
1
1
1
1
1
1
1
1
1
1.60173
2.59817
2.71003
2.70349
2.69929
2.69475
2.69037
1
1
1
1
1
1
1
1
1
1
1
1
1
1
1
1
1
1
1
1
1
1
1
1
1
1
1
1
1
1
1
1
1
1
1
1
1
1
1
1
1
1
1
1
1
1
1
1
1
1
1
1
1
1
1
1
1
1
1
1
1
1
1
1
1
1
1
1
1
1
1
1
1
1
1
1
1
1
1
1
1
1
1
1
1
1
1
1
1
1.53601
2.57947
2.70933
2.70317
2.69895
2.69448
2.68989
1
1
1
1
1
1
1
1
1
1
1
1
1
1
1
1
1
1
1
1
1
1
1
1
1
1
1
1
1
1
1
1
1
1
1
1
1
1
1
1
1
1
1
1
1
1
1
1
1
1
1
1
1
1
1
1
1
1
1
1
1
1
1
1
1
1
1
1
1
1
1
1
1
1
1
1
1
1
1
1
1
1
1
1
1
1
1
1
1
1.49365
2.56657
2.70879
2.70273
2.69834
2.69352
2.68854
1
1
1
1
1
1
1
1
1
1
1
1
1
1
1
1
1
1
1
1
1
1
1
1
1
1
1
1
1
1
1
1
1
1
1
1
1
1
1
1
1
1
1
1
1
1
1
1
1
1
1
1
1
1
1
1
1
1
1
1
1
1
1
1
1
1
1
1
1
1
1
1
1
1
1
1
1
1
1
1
1
1
1
1
1
1
1
1
1
1.46931
2.55872
2.70851
2.70234
2.6975
2.69207
2.68686
1
1
1
1
1
1
1
1
1
1
1
1
1
1
1
1
1
1
1
1
1
1
1
1
1
1
1
1
1
1
1
1
1
1
1
1
1
1
1
1
1
1
1
1
1
1
1
1
1
1
1
1
1
1
1
1
1
1
1
1
1
1
1
1
1
1
1
1
1
1
1
1
1
1
1
1
1
1
1
1
1
1
1
1
1
1
1
1
1
1.45664
2.5542
2.7082
2.70203
2.69664
2.69072
2.68532
1
1
1
1
1
1
1
1
1
1
1
1
1
1
1
1
1
1
1
1
1
1
1
1
1
1
1
1
1
1
1
1
1
1
1
1
1
1
1
1
1
1
1
1
1
1
1
1
1
1
1
1
1
1
1
1
1
1
1
1
1
1
1
1
1
1
1
1
1
1
1
1
1
1
1
1
1
1
1
1
1
1
1
1
1
1
1
1
1
1.45265
2.55325
2.70789
2.70191
2.69641
2.69033
2.68473
1.4889
0.740952
0.622331
0.790902
0.899688
0.99933
1.07539
1.16704
1.17186
1.16989
1.19125
1.28032
1.42189
1.54576
1.56283
1.55657
1.53992
1.53879
1.5474
1.58728
1.62531
1.62109
1.60264
1.58394
1.5835
1.58826
1.59864
1.61518
1.61887
1.61777
1.61846
1.61998
1.62095
1.62503
1.63394
1.64159
1.64381
1.64327
1.6408
1.64
1.63996
1.64082
1.64313
1.64619
1.64948
1.65128
1.65469
1.66864
1.73985
2.10097
2.60684
2.64885
2.63858
2.62791
2.62683
2.62568
2.62302
2.61862
2.61102
2.60546
2.60349
2.60354
2.60552
2.60612
2.60328
2.59605
2.58596
2.57499
2.56561
2.55972
2.55716
2.55298
2.54526
2.53668
2.52843
2.52119
2.51501
2.51063
2.50749
2.50185
2.49359
2.48552
2.47773
2.47133
2.46636
2.46322
2.46158
2.45884
2.45405
2.44827
2.44144
2.4343
2.42709
2.4199
2.41336
2.40789