/*--------------------------------*- C++ -*----------------------------------*\
  =========                 |
  \\      /  F ield         | OpenFOAM: The Open Source CFD Toolbox
   \\    /   O peration     | Website:  https://openfoam.org
    \\  /    A nd           | Version:  7
     \\/     M anipulation  |
\*---------------------------------------------------------------------------*/
FoamFile
{
    version     2.0;
    format      ascii;
    class       volVectorField;
    location    "5.2";
    object      U;
}
// * * * * * * * * * * * * * * * * * * * * * * * * * * * * * * * * * * * * * //

dimensions      [0 1 -1 0 0 0 0];

internalField   nonuniform List<vector> 
19968
(
(3 9.65425e-18 0)
(3 2.18676e-16 0)
(3 3.3552e-16 0)
(3 2.32342e-16 0)
(3 2.12565e-16 0)
(3 3.75971e-16 0)
(3 6.05472e-16 0)
(3 7.00223e-16 0)
(3 9.5633e-16 0)
(3 1.02399e-15 0)
(3 1.02521e-15 0)
(3 5.37474e-16 0)
(3 4.57985e-16 0)
(3 -2.19105e-16 0)
(3 -1.17635e-16 0)
(3 2.77341e-16 0)
(3 6.97558e-16 0)
(3 1.0939e-15 0)
(3 1.26636e-15 0)
(3 1.52495e-15 0)
(3 5.59705e-16 0)
(3 -9.02757e-16 0)
(3 -1.53067e-15 0)
(3 -1.4201e-15 0)
(3 -1.1579e-15 0)
(3 -1.85471e-15 0)
(3 -1.85191e-15 0)
(3 -5.02495e-16 0)
(3 5.20353e-16 0)
(3 -5.20832e-16 0)
(3 -1.61055e-15 0)
(3 -2.05025e-15 0)
(3 -2.3403e-15 0)
(3 -2.16704e-15 0)
(3 -2.01238e-15 0)
(3 -1.019e-15 0)
(3 -1.23163e-16 0)
(3 -2.42122e-16 0)
(3 -6.04282e-16 0)
(3 6.31768e-17 0)
(3 7.05268e-16 0)
(3 6.67519e-16 0)
(3 9.96229e-16 0)
(3 1.62481e-15 0)
(3 -5.5648e-16 0)
(3 -1.92053e-15 0)
(3 -2.18674e-15 0)
(3 -2.50909e-15 0)
(2.81701 0.00213138 0)
(0.973036 0.00654358 0)
(0.759868 0.00444934 0)
(0.747466 0.00916786 0)
(0.729363 0.00993509 0)
(0.712891 0.00978722 0)
(0.696738 0.00893138 0)
(0.68173 0.00796992 0)
(0.667526 0.00766116 0)
(0.65329 0.0081292 0)
(0.638334 0.00904061 0)
(0.622563 0.00978292 0)
(0.60664 0.0097581 0)
(0.591374 0.00916371 0)
(0.576644 0.00887825 0)
(0.56164 0.00913879 0)
(0.545994 0.00944548 0)
(0.530163 0.00954202 0)
(0.514575 0.00964783 0)
(0.499222 0.00984841 0)
(0.483989 0.00997096 0)
(0.468756 0.00999322 0)
(0.453279 0.0100507 0)
(0.437325 0.0101736 0)
(0.420897 0.0102999 0)
(0.404274 0.0104154 0)
(0.387825 0.010539 0)
(0.371801 0.0106651 0)
(0.356195 0.0107895 0)
(0.340734 0.0109153 0)
(0.325029 0.011031 0)
(0.308769 0.0111305 0)
(0.291864 0.0112239 0)
(0.274502 0.0113219 0)
(0.25701 0.0114325 0)
(0.239606 0.011563 0)
(0.222267 0.0117181 0)
(0.204808 0.0118988 0)
(0.187043 0.0121075 0)
(0.168896 0.0123497 0)
(0.150411 0.0126284 0)
(0.1317 0.0129412 0)
(0.112821 0.0132831 0)
(0.0936855 0.013633 0)
(0.0740821 0.0139913 0)
(0.0537444 0.0143406 0)
(0.0327012 0.0144978 0)
(0.0110749 0.0146769 0)
(3 -2.42037e-16 0)
(3 9.1458e-17 0)
(3 2.2482e-16 0)
(3 2.18448e-16 0)
(3 9.71915e-17 0)
(3 4.35601e-16 0)
(3 5.87255e-16 0)
(3 5.10378e-16 0)
(3 6.09345e-16 0)
(3 7.64931e-16 0)
(3 6.04107e-16 0)
(3 7.16292e-17 0)
(3 -2.80894e-16 0)
(3 -1.31303e-16 0)
(3 5.36033e-16 0)
(3 5.79888e-16 0)
(3 8.33891e-16 0)
(3 8.08753e-16 0)
(3 3.83038e-16 0)
(3 3.51101e-16 0)
(3 -5.91974e-16 0)
(3 -2.49216e-15 0)
(3 -2.84073e-15 0)
(3 -2.37244e-15 0)
(3 -9.53052e-16 0)
(3 -1.44645e-15 0)
(3 -1.57944e-15 0)
(3 -1.13183e-15 0)
(3 -7.00739e-16 0)
(3 -6.08034e-16 0)
(3 -3.8224e-16 0)
(3 -6.03776e-16 0)
(3 -6.97353e-16 0)
(3 -1.1881e-15 0)
(3 -1.155e-15 0)
(3 3.8839e-16 0)
(3 1.49507e-15 0)
(3 8.4142e-16 0)
(3 3.15232e-17 0)
(3 3.71743e-16 0)
(3 8.68144e-16 0)
(3 4.61698e-16 0)
(3 7.06282e-16 0)
(3 1.02294e-15 0)
(3 -1.51268e-15 0)
(3 -3.0823e-15 0)
(3 -2.73466e-15 0)
(3 -1.88196e-15 0)
(2.83148 0.0122963 0)
(0.978579 0.0300974 0)
(0.755894 0.021225 0)
(0.740937 0.025979 0)
(0.724492 0.0281478 0)
(0.708976 0.0282685 0)
(0.693516 0.0265783 0)
(0.678617 0.0242461 0)
(0.664045 0.0233263 0)
(0.649454 0.0245479 0)
(0.634429 0.027035 0)
(0.618845 0.0290428 0)
(0.603243 0.0290879 0)
(0.588203 0.0276879 0)
(0.573405 0.026999 0)
(0.558284 0.0277832 0)
(0.542531 0.0287204 0)
(0.526579 0.0290147 0)
(0.510892 0.02929 0)
(0.495495 0.0298419 0)
(0.480248 0.0302035 0)
(0.46498 0.0303194 0)
(0.449421 0.0305378 0)
(0.433366 0.0308996 0)
(0.416865 0.031238 0)
(0.400213 0.0315689 0)
(0.383748 0.0319713 0)
(0.367681 0.0323959 0)
(0.351997 0.032793 0)
(0.336443 0.0331643 0)
(0.320661 0.0334873 0)
(0.304358 0.0337596 0)
(0.287461 0.0340311 0)
(0.270152 0.0343466 0)
(0.252737 0.0347231 0)
(0.235418 0.0351582 0)
(0.21818 0.0356464 0)
(0.200856 0.0361867 0)
(0.183275 0.0367964 0)
(0.165363 0.0375098 0)
(0.147156 0.0383538 0)
(0.128748 0.039326 0)
(0.110189 0.0404057 0)
(0.0914023 0.041521 0)
(0.072201 0.0426581 0)
(0.0523417 0.0437591 0)
(0.0318294 0.0442789 0)
(0.0107929 0.04486 0)
(3 9.0452e-17 0)
(3 -1.3881e-16 0)
(3 -2.75738e-16 0)
(3 -7.72583e-17 0)
(3 1.19508e-16 0)
(3 4.97733e-17 0)
(3 1.46648e-16 0)
(3 -3.69966e-16 0)
(3 -9.81039e-16 0)
(3 -7.96503e-16 0)
(3 -1.07693e-15 0)
(3 1.24172e-16 0)
(3 6.52149e-16 0)
(3 6.89835e-16 0)
(3 8.96852e-16 0)
(3 1.21399e-15 0)
(3 1.43378e-15 0)
(3 1.29934e-15 0)
(3 5.82713e-16 0)
(3 6.75929e-16 0)
(3 2.69851e-16 0)
(3 4.52376e-17 0)
(3 2.20888e-16 0)
(3 9.4334e-17 0)
(3 4.73329e-16 0)
(3 5.65696e-16 0)
(3 -5.34571e-16 0)
(3 -1.89013e-15 0)
(3 -1.98429e-15 0)
(3 -7.44973e-16 0)
(3 -2.7163e-17 0)
(3 -2.02093e-16 0)
(3 -5.88477e-16 0)
(3 -7.252e-16 0)
(3 -6.29007e-16 0)
(3 -1.23325e-16 0)
(3 -1.66752e-16 0)
(3 4.71301e-16 0)
(3 4.29288e-16 0)
(3 3.57285e-16 0)
(3 -1.0303e-16 0)
(3 -4.93944e-16 0)
(3 -5.2376e-16 0)
(3 -9.25859e-16 0)
(3 -1.60662e-15 0)
(3 -1.38017e-15 0)
(3 -1.48982e-15 0)
(3 -8.9214e-16 0)
(2.86648 0.0195781 0)
(0.996374 0.0505865 0)
(0.760134 0.0399062 0)
(0.74374 0.0448241 0)
(0.727309 0.0471467 0)
(0.711964 0.0472073 0)
(0.69666 0.0452089 0)
(0.68143 0.0423229 0)
(0.666062 0.0411824 0)
(0.65073 0.0430691 0)
(0.635354 0.0467396 0)
(0.61972 0.0495617 0)
(0.604255 0.0494945 0)
(0.589331 0.0474627 0)
(0.574367 0.0465594 0)
(0.559051 0.0478985 0)
(0.543091 0.0494943 0)
(0.526866 0.0500129 0)
(0.5109 0.0504138 0)
(0.495287 0.0512259 0)
(0.47988 0.0517773 0)
(0.464457 0.0520184 0)
(0.448714 0.052472 0)
(0.432458 0.0531229 0)
(0.415771 0.0536741 0)
(0.398961 0.0541938 0)
(0.38233 0.054848 0)
(0.366045 0.0555437 0)
(0.350078 0.0561789 0)
(0.334212 0.0567646 0)
(0.318137 0.0572797 0)
(0.301605 0.057721 0)
(0.284559 0.0581638 0)
(0.267168 0.058675 0)
(0.249697 0.0592756 0)
(0.232328 0.0599585 0)
(0.215064 0.0607181 0)
(0.19777 0.0615594 0)
(0.1803 0.0625135 0)
(0.16258 0.0636328 0)
(0.144619 0.0649585 0)
(0.126476 0.0664855 0)
(0.108178 0.0681868 0)
(0.0896458 0.0699652 0)
(0.0707265 0.0718114 0)
(0.0512205 0.0736477 0)
(0.0311078 0.074563 0)
(0.0105605 0.0756226 0)
(3 1.14239e-16 0)
(3 -2.16487e-16 0)
(3 -4.74382e-16 0)
(3 -7.76078e-16 0)
(3 -7.79116e-16 0)
(3 -9.93741e-16 0)
(3 -5.90047e-16 0)
(3 -4.61833e-16 0)
(3 -1.41708e-15 0)
(3 -1.51658e-15 0)
(3 -1.62513e-15 0)
(3 -4.93423e-16 0)
(3 1.3136e-15 0)
(3 1.56296e-15 0)
(3 1.51623e-15 0)
(3 1.94683e-15 0)
(3 1.64387e-15 0)
(3 1.7375e-15 0)
(3 2.11702e-15 0)
(3 1.81514e-15 0)
(3 1.553e-15 0)
(3 1.42067e-15 0)
(3 1.13515e-15 0)
(3 -1.04042e-16 0)
(3 -1.05105e-15 0)
(3 -1.27856e-15 0)
(3 -1.64801e-15 0)
(3 -1.79035e-15 0)
(3 -1.82168e-15 0)
(3 -2.0937e-15 0)
(3 -2.70465e-15 0)
(3 -2.53133e-15 0)
(3 -1.9203e-15 0)
(3 -4.38814e-16 0)
(3 1.75085e-16 0)
(3 -5.22003e-16 0)
(3 -1.30174e-15 0)
(3 -2.5985e-16 0)
(3 1.17743e-15 0)
(3 1.79086e-15 0)
(3 1.5799e-15 0)
(3 1.26743e-15 0)
(3 2.05837e-16 0)
(3 1.05893e-16 0)
(3 2.73582e-16 0)
(3 1.13464e-16 0)
(3 2.3697e-16 0)
(3 -5.33894e-16 0)
(2.91173 0.0228371 0)
(1.0215 0.0684901 0)
(0.762152 0.0597622 0)
(0.744796 0.0644663 0)
(0.729386 0.0662056 0)
(0.714772 0.0661057 0)
(0.700008 0.064429 0)
(0.684817 0.0617878 0)
(0.669064 0.0607719 0)
(0.653305 0.0631046 0)
(0.637837 0.0674609 0)
(0.622375 0.0706032 0)
(0.60724 0.0703596 0)
(0.592583 0.0679832 0)
(0.577652 0.0670754 0)
(0.562382 0.0690054 0)
(0.546453 0.0713426 0)
(0.530127 0.072208 0)
(0.513985 0.072759 0)
(0.498204 0.073769 0)
(0.482661 0.0744867 0)
(0.467096 0.0749226 0)
(0.451175 0.0757316 0)
(0.434705 0.0767689 0)
(0.417786 0.0775767 0)
(0.400736 0.0783046 0)
(0.383822 0.0792438 0)
(0.367158 0.0802566 0)
(0.350708 0.0811674 0)
(0.334298 0.0819937 0)
(0.317671 0.0827213 0)
(0.300633 0.0833384 0)
(0.283156 0.0839347 0)
(0.265395 0.0845979 0)
(0.247578 0.0853579 0)
(0.229874 0.0862059 0)
(0.212319 0.0871413 0)
(0.194838 0.0881814 0)
(0.177329 0.0893777 0)
(0.159727 0.0908059 0)
(0.142013 0.0925266 0)
(0.12419 0.0945357 0)
(0.106234 0.0968074 0)
(0.0880395 0.0992379 0)
(0.0694571 0.10182 0)
(0.0503222 0.104474 0)
(0.0305459 0.105891 0)
(0.0104098 0.107568 0)
(3 2.01668e-17 0)
(3 6.81637e-17 0)
(3 -8.74115e-17 0)
(3 -3.28149e-16 0)
(3 -5.80893e-16 0)
(3 -1.97999e-16 0)
(3 -2.62027e-16 0)
(3 -1.97882e-16 0)
(3 -3.86701e-16 0)
(3 -5.94579e-16 0)
(3 -4.32814e-16 0)
(3 -1.74029e-16 0)
(3 3.85514e-16 0)
(3 7.41819e-16 0)
(3 7.84632e-16 0)
(3 5.72665e-16 0)
(3 3.62456e-16 0)
(3 -2.72979e-16 0)
(3 -1.43602e-16 0)
(3 -4.48764e-17 0)
(3 4.9652e-16 0)
(3 3.32861e-16 0)
(3 4.1874e-17 0)
(3 -1.09807e-15 0)
(3 -1.51608e-15 0)
(3 -2.57927e-15 0)
(3 -3.45089e-15 0)
(3 -3.36717e-15 0)
(3 -3.45047e-15 0)
(3 -3.48733e-15 0)
(3 -3.3517e-15 0)
(3 -3.52e-15 0)
(3 -1.88607e-15 0)
(3 -1.40828e-17 0)
(3 3.8635e-16 0)
(3 -2.84579e-16 0)
(3 -1.31949e-15 0)
(3 -1.10376e-15 0)
(3 -9.60589e-16 0)
(3 -1.14212e-15 0)
(3 -1.28364e-15 0)
(3 -1.5079e-15 0)
(3 -1.34675e-15 0)
(3 -1.27304e-15 0)
(3 -1.16942e-15 0)
(3 -1.10548e-15 0)
(3 -1.2584e-15 0)
(3 -2.04004e-15 0)
(2.95502 0.0175181 0)
(1.04845 0.0941705 0)
(0.763248 0.08193 0)
(0.746008 0.0840625 0)
(0.732172 0.085105 0)
(0.718612 0.0848953 0)
(0.704763 0.0838249 0)
(0.690092 0.0821453 0)
(0.674488 0.0818502 0)
(0.658618 0.0846797 0)
(0.643083 0.0893144 0)
(0.62772 0.0923544 0)
(0.61278 0.091907 0)
(0.598248 0.0894102 0)
(0.583362 0.088627 0)
(0.568279 0.0911105 0)
(0.552652 0.0942295 0)
(0.536517 0.0956019 0)
(0.520444 0.0963882 0)
(0.504667 0.0975586 0)
(0.489126 0.0984256 0)
(0.473555 0.0991482 0)
(0.457607 0.100489 0)
(0.441052 0.102096 0)
(0.423983 0.103282 0)
(0.406743 0.104291 0)
(0.389575 0.105593 0)
(0.372543 0.107027 0)
(0.355592 0.108324 0)
(0.338581 0.109502 0)
(0.321308 0.110558 0)
(0.303623 0.111461 0)
(0.285525 0.112294 0)
(0.267144 0.113156 0)
(0.248659 0.114076 0)
(0.230219 0.115034 0)
(0.211896 0.116027 0)
(0.193689 0.11708 0)
(0.175564 0.118264 0)
(0.157489 0.11969 0)
(0.139455 0.121468 0)
(0.121452 0.123636 0)
(0.103461 0.12621 0)
(0.0853959 0.129128 0)
(0.0671289 0.132383 0)
(0.0485352 0.135917 0)
(0.0293822 0.13796 0)
(0.0100262 0.140402 0)
(3 1.36326e-16 0)
(3 8.8973e-16 0)
(3 1.1331e-15 0)
(3 1.67655e-15 0)
(3 1.69442e-15 0)
(3 1.69016e-15 0)
(3 1.01621e-15 0)
(3 5.98628e-16 0)
(3 5.12759e-16 0)
(3 8.15717e-16 0)
(3 1.11872e-15 0)
(3 9.54091e-16 0)
(3 7.39851e-16 0)
(3 7.7071e-16 0)
(3 -3.56058e-16 0)
(3 -7.94535e-16 0)
(3 -4.29408e-16 0)
(3 -3.82675e-16 0)
(3 -8.34044e-16 0)
(3 -9.0262e-16 0)
(3 -1.04178e-15 0)
(3 -9.59595e-16 0)
(3 -1.26389e-15 0)
(3 -2.05284e-15 0)
(3 -2.67076e-15 0)
(3 -3.13973e-15 0)
(3 -4.39092e-15 0)
(3 -4.56279e-15 0)
(3 -4.47806e-15 0)
(3 -3.67746e-15 0)
(3 -2.88819e-15 0)
(3 -2.62975e-15 0)
(3 -2.40208e-15 0)
(3 -2.17358e-15 0)
(3 -1.94438e-15 0)
(3 -2.55658e-15 0)
(3 -3.40374e-15 0)
(3 -3.83495e-15 0)
(3 -3.73075e-15 0)
(3 -3.72358e-15 0)
(3 -3.36557e-15 0)
(3 -2.55991e-15 0)
(3 -1.89294e-15 0)
(3 -1.40598e-15 0)
(3 -1.3879e-15 0)
(3 -1.9697e-15 0)
(3 -2.68039e-15 0)
(3 -2.84892e-15 0)
(3.0005 0.00265978 0)
(1.11677 0.114451 0)
(0.774032 0.0995133 0)
(0.755469 0.102783 0)
(0.741497 0.103083 0)
(0.727766 0.102823 0)
(0.71412 0.102639 0)
(0.699789 0.10238 0)
(0.684502 0.103373 0)
(0.66882 0.106989 0)
(0.653292 0.111656 0)
(0.637946 0.114323 0)
(0.623029 0.113687 0)
(0.608495 0.111088 0)
(0.5937 0.110245 0)
(0.578948 0.112944 0)
(0.563884 0.116664 0)
(0.548194 0.118676 0)
(0.532358 0.119875 0)
(0.516665 0.121238 0)
(0.501174 0.122211 0)
(0.485693 0.12324 0)
(0.469902 0.125245 0)
(0.453505 0.127621 0)
(0.436531 0.129334 0)
(0.419345 0.130689 0)
(0.402179 0.132419 0)
(0.385046 0.134391 0)
(0.36785 0.136231 0)
(0.35047 0.137945 0)
(0.332747 0.139557 0)
(0.314576 0.140999 0)
(0.295981 0.14232 0)
(0.277071 0.143614 0)
(0.257971 0.144913 0)
(0.238784 0.14619 0)
(0.219585 0.147426 0)
(0.200412 0.148636 0)
(0.18128 0.149885 0)
(0.162194 0.151293 0)
(0.14316 0.153003 0)
(0.124193 0.155106 0)
(0.105313 0.157679 0)
(0.0865052 0.160759 0)
(0.0676832 0.164365 0)
(0.0487907 0.168569 0)
(0.0294304 0.17114 0)
(0.0100479 0.174309 0)
(3 1.32629e-17 0)
(3 3.51216e-16 0)
(3 8.71161e-16 0)
(3 1.30732e-15 0)
(3 1.4389e-15 0)
(3 1.22163e-15 0)
(3 8.46416e-16 0)
(3 5.42953e-16 0)
(3 4.81083e-16 0)
(3 4.25116e-16 0)
(3 1.25178e-16 0)
(3 1.88992e-16 0)
(3 2.2662e-16 0)
(3 -2.7427e-16 0)
(3 -5.18364e-16 0)
(3 -1.18279e-15 0)
(3 -1.55713e-15 0)
(3 -1.28005e-15 0)
(3 -1.1719e-15 0)
(3 -1.40372e-15 0)
(3 -2.49136e-15 0)
(3 -2.77726e-15 0)
(3 -3.0909e-15 0)
(3 -4.05379e-15 0)
(3 -4.8607e-15 0)
(3 -4.68428e-15 0)
(3 -4.20342e-15 0)
(3 -3.49101e-15 0)
(3 -2.57168e-15 0)
(3 -1.83998e-15 0)
(3 -1.90012e-15 0)
(3 -2.13836e-15 0)
(3 -1.55096e-15 0)
(3 -1.0566e-15 0)
(3 -1.11486e-15 0)
(3 -1.40602e-15 0)
(3 -2.13797e-15 0)
(3 -2.27458e-15 0)
(3 -2.07733e-15 0)
(3 -1.63773e-15 0)
(3 -1.48508e-15 0)
(3 -1.1909e-15 0)
(3 -1.01064e-15 0)
(3 -8.77086e-16 0)
(3 -6.28643e-16 0)
(3 -1.14236e-15 0)
(3 -1.41229e-15 0)
(3 -1.97727e-15 0)
(3.00003 6.57249e-06 0)
(1.23422 0.138204 0)
(0.778336 0.120512 0)
(0.753215 0.126403 0)
(0.737815 0.124957 0)
(0.72293 0.123665 0)
(0.708683 0.123565 0)
(0.694133 0.124315 0)
(0.678989 0.126647 0)
(0.663742 0.131167 0)
(0.648758 0.136007 0)
(0.633993 0.13849 0)
(0.619555 0.137858 0)
(0.60538 0.135227 0)
(0.590979 0.13406 0)
(0.576764 0.136656 0)
(0.562527 0.140943 0)
(0.547588 0.143927 0)
(0.53227 0.145918 0)
(0.51688 0.147636 0)
(0.501615 0.148671 0)
(0.486401 0.149927 0)
(0.471006 0.152605 0)
(0.455094 0.155874 0)
(0.438588 0.15824 0)
(0.421889 0.159996 0)
(0.405245 0.162177 0)
(0.388619 0.16474 0)
(0.37183 0.167183 0)
(0.354729 0.169476 0)
(0.337188 0.171677 0)
(0.319152 0.173701 0)
(0.300689 0.17555 0)
(0.281906 0.177309 0)
(0.262882 0.179015 0)
(0.243657 0.180631 0)
(0.224268 0.182124 0)
(0.204755 0.183493 0)
(0.18516 0.184794 0)
(0.165515 0.186144 0)
(0.145862 0.187704 0)
(0.126249 0.189613 0)
(0.106745 0.191989 0)
(0.087405 0.195014 0)
(0.0681621 0.198708 0)
(0.0490299 0.203412 0)
(0.0294994 0.206424 0)
(0.0100847 0.210273 0)
(3 -3.37693e-16 0)
(3 -5.54101e-16 0)
(3 -5.84599e-16 0)
(3 -4.01056e-16 0)
(3 -2.50825e-16 0)
(3 -7.72385e-16 0)
(3 -9.8905e-16 0)
(3 -1.07233e-15 0)
(3 -1.05713e-15 0)
(3 -1.20586e-15 0)
(3 -1.26693e-15 0)
(3 -1.32813e-15 0)
(3 -1.29014e-15 0)
(3 -1.97682e-16 0)
(3 9.12191e-16 0)
(3 1.14975e-15 0)
(3 -6.07697e-16 0)
(3 -1.71411e-15 0)
(3 -1.90912e-15 0)
(3 -2.1703e-15 0)
(3 -2.41159e-15 0)
(3 -2.75263e-15 0)
(3 -2.69051e-15 0)
(3 -2.72206e-15 0)
(3 -2.56486e-15 0)
(3 -2.49382e-15 0)
(3 -2.06435e-15 0)
(3 -1.45378e-15 0)
(3 -8.07983e-16 0)
(3 6.02956e-17 0)
(3 2.2005e-17 0)
(3 -1.29178e-16 0)
(3 -9.15424e-16 0)
(3 -1.05765e-15 0)
(3 -9.49859e-16 0)
(3 -1.14888e-15 0)
(3 -9.44175e-16 0)
(3 -1.10455e-15 0)
(3 -9.60177e-16 0)
(3 -6.95907e-16 0)
(3 -8.79213e-16 0)
(3 -1.15154e-15 0)
(3 -1.23353e-15 0)
(3 -1.4916e-15 0)
(3 -1.34285e-15 0)
(3 -1.14664e-15 0)
(3 -2.51401e-16 0)
(3 -2.20094e-16 0)
(3 1.38775e-08 0)
(1.43786 0.167546 0)
(0.793815 0.145561 0)
(0.756329 0.153379 0)
(0.739711 0.148863 0)
(0.723428 0.146056 0)
(0.708276 0.14544 0)
(0.693266 0.146664 0)
(0.678214 0.149867 0)
(0.663437 0.154897 0)
(0.648984 0.15966 0)
(0.63471 0.162037 0)
(0.620474 0.16176 0)
(0.606222 0.159363 0)
(0.59177 0.157641 0)
(0.577609 0.159586 0)
(0.563949 0.16401 0)
(0.549845 0.167968 0)
(0.535297 0.17102 0)
(0.520532 0.173288 0)
(0.505834 0.174312 0)
(0.491251 0.175577 0)
(0.476628 0.178757 0)
(0.461583 0.182934 0)
(0.445832 0.186106 0)
(0.429807 0.188356 0)
(0.413822 0.191055 0)
(0.397824 0.194345 0)
(0.381526 0.197603 0)
(0.364736 0.200715 0)
(0.347347 0.203782 0)
(0.329351 0.206713 0)
(0.31086 0.209447 0)
(0.292006 0.212034 0)
(0.272842 0.214508 0)
(0.253359 0.21682 0)
(0.233549 0.218912 0)
(0.213431 0.220759 0)
(0.193056 0.222394 0)
(0.172488 0.223917 0)
(0.151815 0.225489 0)
(0.131141 0.227285 0)
(0.110594 0.229427 0)
(0.0903016 0.232273 0)
(0.0701626 0.235797 0)
(0.0503666 0.240793 0)
(0.0302227 0.244117 0)
(0.0103416 0.248551 0)
(3 -5.98328e-18 0)
(3 -3.89028e-16 0)
(3 -7.8167e-16 0)
(3 -9.79275e-16 0)
(3 -1.00741e-15 0)
(3 -1.03885e-15 0)
(3 -8.33949e-16 0)
(3 -5.60052e-16 0)
(3 -7.03368e-16 0)
(3 -9.13669e-16 0)
(3 -9.81924e-16 0)
(3 -1.19304e-15 0)
(3 -1.56086e-15 0)
(3 -1.17611e-15 0)
(3 -5.90314e-16 0)
(3 6.65854e-17 0)
(3 -1.64886e-16 0)
(3 -7.76998e-16 0)
(3 -1.5082e-15 0)
(3 -1.89772e-15 0)
(3 -2.02751e-15 0)
(3 -1.76673e-15 0)
(3 -1.53773e-15 0)
(3 -9.49035e-16 0)
(3 1.465e-16 0)
(3 1.90012e-16 0)
(3 -2.9669e-16 0)
(3 -7.67872e-16 0)
(3 -1.04874e-15 0)
(3 -9.19548e-16 0)
(3 -5.24654e-16 0)
(3 -1.18843e-16 0)
(3 -4.56475e-16 0)
(3 -1.52473e-15 0)
(3 -1.47822e-15 0)
(3 -1.73494e-15 0)
(3 -1.85719e-15 0)
(3 -1.94336e-15 0)
(3 -2.15091e-15 0)
(3 -2.24743e-15 0)
(3 -1.60038e-15 0)
(3 -1.53021e-15 0)
(3 -1.73227e-15 0)
(3 -1.60448e-15 0)
(3 -1.1217e-15 0)
(3 -2.31215e-17 0)
(3 5.74993e-16 0)
(3 5.0293e-16 0)
(3 2.68287e-11 0)
(1.75405 0.188014 0)
(0.823105 0.172773 0)
(0.763278 0.183663 0)
(0.745971 0.175951 0)
(0.727871 0.171534 0)
(0.711143 0.169784 0)
(0.694964 0.170581 0)
(0.679433 0.173611 0)
(0.664805 0.178539 0)
(0.65077 0.183313 0)
(0.636845 0.186248 0)
(0.62257 0.187121 0)
(0.60781 0.185651 0)
(0.592804 0.183433 0)
(0.578002 0.184039 0)
(0.564082 0.187823 0)
(0.550289 0.192413 0)
(0.536186 0.196625 0)
(0.521738 0.199664 0)
(0.507248 0.200691 0)
(0.492921 0.201712 0)
(0.478769 0.205188 0)
(0.464524 0.210343 0)
(0.44961 0.21461 0)
(0.434412 0.217553 0)
(0.419348 0.220866 0)
(0.404355 0.225007 0)
(0.389001 0.22927 0)
(0.372996 0.233384 0)
(0.356244 0.237492 0)
(0.33877 0.241538 0)
(0.32072 0.245401 0)
(0.302249 0.249068 0)
(0.283402 0.252562 0)
(0.264117 0.255818 0)
(0.244317 0.258752 0)
(0.223966 0.26132 0)
(0.203088 0.263534 0)
(0.181762 0.265476 0)
(0.160116 0.267281 0)
(0.138317 0.269144 0)
(0.116553 0.27112 0)
(0.0950328 0.273763 0)
(0.0736669 0.276911 0)
(0.052779 0.282007 0)
(0.0316178 0.285509 0)
(0.0108342 0.290446 0)
(3 4.40352e-17 0)
(3 6.45593e-18 0)
(3 -4.75886e-16 0)
(3 -1.10558e-15 0)
(3 -1.43506e-15 0)
(3 -1.05045e-15 0)
(3 -5.09514e-16 0)
(3 3.84622e-17 0)
(3 1.36855e-16 0)
(3 7.90184e-18 0)
(3 -7.82475e-17 0)
(3 -6.63329e-16 0)
(3 -1.31299e-15 0)
(3 -2.26557e-15 0)
(3 -3.25781e-15 0)
(3 -2.57198e-15 0)
(3 -1.44375e-15 0)
(3 -1.46833e-16 0)
(3 -1.80433e-16 0)
(3 -5.53698e-16 0)
(3 -6.18592e-16 0)
(3 -3.58432e-16 0)
(3 3.53355e-16 0)
(3 1.34884e-15 0)
(3 1.48084e-15 0)
(3 1.42768e-15 0)
(3 8.28077e-16 0)
(3 -3.45376e-16 0)
(3 -1.47594e-15 0)
(3 -1.96799e-15 0)
(3 -1.72375e-15 0)
(3 -8.66903e-16 0)
(3 1.42541e-16 0)
(3 -5.15143e-16 0)
(3 -1.31761e-15 0)
(3 -1.62497e-15 0)
(3 -1.44692e-15 0)
(3 -1.05623e-15 0)
(3 -1.46075e-15 0)
(3 -1.91645e-15 0)
(3 -1.79158e-15 0)
(3 -1.88213e-15 0)
(3 -1.71756e-15 0)
(3 -1.19969e-15 0)
(3 1.26024e-17 0)
(3 3.5341e-16 0)
(3 4.43738e-16 0)
(3 -9.45013e-16 0)
(3 4.83629e-14 0)
(2.182 0.192346 0)
(0.863545 0.211162 0)
(0.76167 0.214676 0)
(0.747442 0.206689 0)
(0.730916 0.20212 0)
(0.715036 0.199296 0)
(0.699211 0.198769 0)
(0.68397 0.200425 0)
(0.669709 0.204192 0)
(0.656197 0.208589 0)
(0.642739 0.212401 0)
(0.62863 0.215002 0)
(0.613517 0.215125 0)
(0.597965 0.21288 0)
(0.582489 0.211817 0)
(0.567892 0.214153 0)
(0.554008 0.218744 0)
(0.540087 0.223981 0)
(0.525593 0.227961 0)
(0.510749 0.229057 0)
(0.496006 0.229373 0)
(0.48154 0.232474 0)
(0.467468 0.23821 0)
(0.452947 0.243552 0)
(0.438122 0.247136 0)
(0.423544 0.250827 0)
(0.409228 0.255635 0)
(0.394667 0.260888 0)
(0.379446 0.266081 0)
(0.363465 0.271345 0)
(0.346755 0.276707 0)
(0.329445 0.282009 0)
(0.31167 0.287148 0)
(0.29345 0.292105 0)
(0.274664 0.296799 0)
(0.255156 0.301109 0)
(0.234829 0.304949 0)
(0.213672 0.308289 0)
(0.191769 0.31116 0)
(0.169282 0.313634 0)
(0.146428 0.315914 0)
(0.123435 0.317941 0)
(0.100594 0.320482 0)
(0.0778363 0.323109 0)
(0.0556527 0.328104 0)
(0.0332924 0.331623 0)
(0.0114139 0.336987 0)
(3 4.4219e-18 0)
(3 1.06514e-16 0)
(3 1.15321e-16 0)
(3 7.90036e-17 0)
(3 -8.3462e-17 0)
(3 -6.64716e-16 0)
(3 -6.80199e-16 0)
(3 -4.37758e-16 0)
(3 -2.83325e-16 0)
(3 -3.4923e-16 0)
(3 -5.31978e-16 0)
(3 -1.02996e-15 0)
(3 -7.88298e-16 0)
(3 -6.18567e-16 0)
(3 -1.18711e-15 0)
(3 -1.21748e-15 0)
(3 -2.7794e-16 0)
(3 3.31826e-16 0)
(3 3.84922e-16 0)
(3 5.86716e-16 0)
(3 1.02964e-15 0)
(3 1.0704e-15 0)
(3 1.01946e-15 0)
(3 1.15956e-15 0)
(3 5.48021e-16 0)
(3 2.74326e-16 0)
(3 5.21291e-16 0)
(3 5.32224e-16 0)
(3 -2.73815e-16 0)
(3 -4.27815e-16 0)
(3 -2.99105e-16 0)
(3 -3.03399e-16 0)
(3 -5.37985e-16 0)
(3 -9.10914e-16 0)
(3 -8.65871e-16 0)
(3 -6.3719e-16 0)
(3 -1.36972e-16 0)
(3 9.1651e-16 0)
(3 1.16474e-15 0)
(3 1.41868e-15 0)
(3 6.0572e-16 0)
(3 -2.36183e-16 0)
(3 -2.75942e-16 0)
(3 -7.25576e-16 0)
(3 -8.14113e-16 0)
(3 -7.48162e-16 0)
(3 -7.01803e-16 0)
(3 -1.41334e-15 0)
(3 -2.05435e-15 0)
(2.70742 0.166463 0)
(0.969322 0.256192 0)
(0.784393 0.238639 0)
(0.776852 0.227825 0)
(0.75908 0.226704 0)
(0.74273 0.224594 0)
(0.725446 0.224286 0)
(0.70859 0.225305 0)
(0.692675 0.228157 0)
(0.677805 0.232448 0)
(0.663517 0.237706 0)
(0.649033 0.24281 0)
(0.633523 0.245419 0)
(0.617393 0.244188 0)
(0.601216 0.241932 0)
(0.585495 0.242612 0)
(0.570733 0.246891 0)
(0.556455 0.253252 0)
(0.541544 0.258795 0)
(0.525783 0.260789 0)
(0.509873 0.260638 0)
(0.49414 0.263003 0)
(0.479238 0.268933 0)
(0.464316 0.275328 0)
(0.44895 0.279622 0)
(0.433739 0.283387 0)
(0.418913 0.288399 0)
(0.404084 0.29429 0)
(0.388754 0.30032 0)
(0.372804 0.306513 0)
(0.356286 0.313022 0)
(0.339307 0.319719 0)
(0.321984 0.326419 0)
(0.304341 0.33302 0)
(0.286245 0.339408 0)
(0.267469 0.345421 0)
(0.247798 0.350921 0)
(0.227086 0.355832 0)
(0.205283 0.360155 0)
(0.182438 0.36391 0)
(0.158728 0.367314 0)
(0.134377 0.370127 0)
(0.10979 0.373232 0)
(0.0850225 0.375706 0)
(0.060726 0.3807 0)
(0.0362763 0.384191 0)
(0.0124441 0.390027 0)
(3 -4.22708e-17 0)
(3 -8.16397e-18 0)
(3 1.52222e-16 0)
(3 4.08423e-16 0)
(3 9.8544e-16 0)
(3 6.44881e-16 0)
(3 3.43315e-16 0)
(3 -2.4152e-16 0)
(3 -2.14059e-16 0)
(3 -9.96762e-17 0)
(3 -1.73012e-16 0)
(3 -4.54741e-16 0)
(3 -7.04728e-16 0)
(3 -2.23401e-17 0)
(3 3.38037e-16 0)
(3 3.64423e-16 0)
(3 8.96755e-16 0)
(3 1.20708e-15 0)
(3 1.35274e-15 0)
(3 1.27853e-15 0)
(3 8.68249e-16 0)
(3 6.69829e-16 0)
(3 -4.43154e-17 0)
(3 -3.93945e-16 0)
(3 -1.38431e-15 0)
(3 -1.54441e-15 0)
(3 -4.72879e-16 0)
(3 7.8727e-16 0)
(3 9.24259e-16 0)
(3 1.42503e-16 0)
(3 -1.55704e-16 0)
(3 -8.48162e-16 0)
(3 -1.42564e-15 0)
(3 -1.47458e-15 0)
(3 -7.25365e-16 0)
(3 4.08733e-16 0)
(3 6.13444e-16 0)
(3 1.12876e-15 0)
(3 1.67315e-15 0)
(3 2.20394e-15 0)
(3 1.78359e-15 0)
(3 1.64432e-15 0)
(3 2.30113e-16 0)
(3 -1.93493e-15 0)
(3 -3.02299e-15 0)
(3 -3.40324e-15 0)
(3 -2.29413e-15 0)
(3 -1.63492e-15 0)
(3 -1.79087e-15 0)
(3.01929 0.009161 0)
(1.1608 0.279999 0)
(0.808464 0.234456 0)
(0.797122 0.249353 0)
(0.782156 0.255746 0)
(0.766558 0.256836 0)
(0.750368 0.256703 0)
(0.734105 0.256467 0)
(0.718206 0.257401 0)
(0.7031 0.260095 0)
(0.68894 0.264708 0)
(0.675357 0.270266 0)
(0.661081 0.274223 0)
(0.645711 0.274532 0)
(0.629811 0.272239 0)
(0.613779 0.271439 0)
(0.598407 0.274707 0)
(0.584005 0.281527 0)
(0.569337 0.288827 0)
(0.553329 0.292874 0)
(0.536682 0.293172 0)
(0.519903 0.294679 0)
(0.503956 0.300354 0)
(0.488517 0.307878 0)
(0.472453 0.313595 0)
(0.456182 0.317797 0)
(0.440191 0.322953 0)
(0.424388 0.329404 0)
(0.40829 0.336294 0)
(0.391704 0.34337 0)
(0.374665 0.350873 0)
(0.35723 0.35883 0)
(0.339463 0.367063 0)
(0.321393 0.375435 0)
(0.302913 0.383836 0)
(0.28377 0.392105 0)
(0.263665 0.400058 0)
(0.242348 0.407534 0)
(0.219684 0.414442 0)
(0.19568 0.420609 0)
(0.170619 0.426123 0)
(0.144803 0.430477 0)
(0.118676 0.434732 0)
(0.0919539 0.437457 0)
(0.0656212 0.44234 0)
(0.0390792 0.445532 0)
(0.0132762 0.451592 0)
(3 -1.47954e-18 0)
(3 3.9737e-17 0)
(3 1.45364e-16 0)
(3 1.09412e-16 0)
(3 1.60706e-16 0)
(3 6.60671e-16 0)
(3 7.38378e-16 0)
(3 9.3241e-16 0)
(3 1.04997e-15 0)
(3 1.41516e-15 0)
(3 1.77745e-15 0)
(3 1.77984e-15 0)
(3 1.15167e-15 0)
(3 7.76389e-16 0)
(3 6.31185e-16 0)
(3 1.65568e-16 0)
(3 -2.39206e-16 0)
(3 -2.28523e-16 0)
(3 -5.22158e-16 0)
(3 -7.67786e-16 0)
(3 -7.77483e-16 0)
(3 -7.63342e-16 0)
(3 -6.11662e-16 0)
(3 -7.38002e-16 0)
(3 -6.95362e-16 0)
(3 -4.35475e-16 0)
(3 -3.88365e-16 0)
(3 -1.15302e-16 0)
(3 -1.34982e-16 0)
(3 -4.19338e-16 0)
(3 -3.48356e-16 0)
(3 -2.60196e-16 0)
(3 -2.6525e-16 0)
(3 -8.69593e-17 0)
(3 1.25373e-16 0)
(3 2.53432e-16 0)
(3 9.06395e-16 0)
(3 9.88749e-16 0)
(3 1.66894e-15 0)
(3 1.73101e-15 0)
(3 1.53183e-15 0)
(3 1.48624e-15 0)
(3 1.42431e-15 0)
(3 8.00463e-16 0)
(3 -1.18013e-15 0)
(3 -1.35188e-15 0)
(3 -1.2199e-15 0)
(3 -7.36795e-16 0)
(3 -1.05268e-15 0)
(3.00026 9.66981e-06 0)
(1.5825 0.309824 0)
(0.825641 0.274307 0)
(0.781226 0.280427 0)
(0.768389 0.288186 0)
(0.754812 0.288994 0)
(0.741709 0.289122 0)
(0.728147 0.289471 0)
(0.714388 0.290364 0)
(0.700866 0.2923 0)
(0.687989 0.295961 0)
(0.676032 0.301449 0)
(0.664033 0.306872 0)
(0.650858 0.309525 0)
(0.636752 0.308895 0)
(0.622099 0.307945 0)
(0.60752 0.310097 0)
(0.593945 0.316446 0)
(0.580982 0.324891 0)
(0.566775 0.331115 0)
(0.551417 0.332786 0)
(0.535566 0.333759 0)
(0.520109 0.338489 0)
(0.505649 0.346341 0)
(0.490693 0.353455 0)
(0.474996 0.358323 0)
(0.459174 0.363356 0)
(0.443495 0.369898 0)
(0.42768 0.377352 0)
(0.411438 0.385121 0)
(0.394733 0.393339 0)
(0.377574 0.40224 0)
(0.359973 0.411774 0)
(0.342019 0.421818 0)
(0.323739 0.432213 0)
(0.304984 0.442781 0)
(0.285494 0.453314 0)
(0.26496 0.463515 0)
(0.243128 0.473148 0)
(0.2197 0.481832 0)
(0.194631 0.489763 0)
(0.167863 0.496513 0)
(0.139844 0.503621 0)
(0.10979 0.509354 0)
(0.0786811 0.51612 0)
(0.0467886 0.519969 0)
(0.0156424 0.52603 0)
(3 1.25661e-16 0)
(3 2.05174e-16 0)
(3 2.99179e-17 0)
(3 -4.01916e-16 0)
(3 -7.22779e-16 0)
(3 -6.61929e-16 0)
(3 -1.82717e-16 0)
(3 1.39538e-16 0)
(3 6.12589e-16 0)
(3 1.12236e-15 0)
(3 1.73124e-15 0)
(3 1.89687e-15 0)
(3 1.93641e-15 0)
(3 1.4214e-15 0)
(3 1.11215e-15 0)
(3 6.21642e-16 0)
(3 -2.08638e-16 0)
(3 -6.70205e-16 0)
(3 -8.6906e-16 0)
(3 -7.32317e-16 0)
(3 -2.59366e-16 0)
(3 1.54937e-16 0)
(3 1.6055e-16 0)
(3 9.14894e-18 0)
(3 6.70201e-17 0)
(3 1.51621e-16 0)
(3 -1.01472e-16 0)
(3 -9.74503e-16 0)
(3 -2.05613e-15 0)
(3 -1.97479e-15 0)
(3 -1.34025e-15 0)
(3 -7.61683e-16 0)
(3 1.48904e-17 0)
(3 2.84599e-16 0)
(3 2.78562e-16 0)
(3 2.92806e-16 0)
(3 3.27784e-16 0)
(3 1.33167e-16 0)
(3 -4.21511e-17 0)
(3 9.12269e-18 0)
(3 1.04915e-16 0)
(3 7.40296e-17 0)
(3 3.18234e-16 0)
(3 -7.15382e-17 0)
(3 5.54818e-17 0)
(3 9.79094e-16 0)
(3 3.05096e-16 0)
(3 -2.40204e-16 0)
(3 -1.62444e-15 0)
(3 1.70494e-08 0)
(2.41475 0.274037 0)
(0.925737 0.333849 0)
(0.793883 0.317955 0)
(0.781636 0.313312 0)
(0.767132 0.315768 0)
(0.754492 0.317584 0)
(0.741649 0.319387 0)
(0.72847 0.320908 0)
(0.715211 0.322488 0)
(0.702302 0.325013 0)
(0.690281 0.329457 0)
(0.67902 0.335103 0)
(0.667153 0.339611 0)
(0.654102 0.341281 0)
(0.640238 0.341285 0)
(0.626061 0.342838 0)
(0.61254 0.34825 0)
(0.600328 0.356922 0)
(0.587781 0.365107 0)
(0.573814 0.369176 0)
(0.559031 0.370653 0)
(0.544078 0.374574 0)
(0.530143 0.382354 0)
(0.516358 0.391179 0)
(0.501529 0.398036 0)
(0.486063 0.403957 0)
(0.470504 0.411053 0)
(0.454952 0.419492 0)
(0.439141 0.428519 0)
(0.422894 0.437912 0)
(0.406177 0.44803 0)
(0.388889 0.458985 0)
(0.371091 0.470839 0)
(0.352616 0.483419 0)
(0.333697 0.496643 0)
(0.314047 0.510357 0)
(0.293184 0.524406 0)
(0.270432 0.538558 0)
(0.245174 0.55239 0)
(0.217431 0.566051 0)
(0.18717 0.578959 0)
(0.155575 0.591965 0)
(0.123098 0.60343 0)
(0.0898497 0.61325 0)
(0.0550137 0.618912 0)
(0.0174885 0.623111 0)
(3 1.71436e-17 0)
(3 1.86836e-17 0)
(3 7.17638e-17 0)
(3 1.24445e-16 0)
(3 2.08197e-16 0)
(3 2.14004e-16 0)
(3 4.77308e-16 0)
(3 4.75302e-16 0)
(3 4.39879e-16 0)
(3 4.79179e-16 0)
(3 5.25447e-16 0)
(3 5.80953e-16 0)
(3 7.4549e-16 0)
(3 9.50878e-16 0)
(3 9.48846e-16 0)
(3 6.34173e-16 0)
(3 9.90719e-17 0)
(3 -8.44329e-17 0)
(3 8.23125e-16 0)
(3 1.44859e-15 0)
(3 1.41934e-15 0)
(3 1.38111e-15 0)
(3 6.89746e-16 0)
(3 4.39342e-16 0)
(3 1.74464e-16 0)
(3 1.53538e-16 0)
(3 4.58042e-16 0)
(3 -3.75247e-16 0)
(3 -5.69076e-16 0)
(3 -6.71988e-16 0)
(3 -5.88808e-16 0)
(3 -9.10906e-16 0)
(3 -1.42032e-15 0)
(3 -1.5423e-15 0)
(3 -1.49838e-15 0)
(3 -1.53788e-15 0)
(3 -1.51759e-15 0)
(3 -1.4139e-15 0)
(3 -1.81618e-15 0)
(3 -1.72894e-15 0)
(3 -1.59572e-15 0)
(3 -1.22123e-15 0)
(3 -7.45248e-16 0)
(3 3.56678e-16 0)
(3 4.13779e-16 0)
(3 -2.67548e-16 0)
(3 -6.62311e-16 0)
(3 -6.54256e-16 0)
(3 -2.80444e-16 0)
(3 -5.53245e-09 0)
(3.02735 0.0160008 0)
(1.26626 0.375507 0)
(0.840654 0.327045 0)
(0.818897 0.337554 0)
(0.804867 0.337814 0)
(0.790823 0.339506 0)
(0.777368 0.343213 0)
(0.763222 0.346858 0)
(0.748745 0.34952 0)
(0.734511 0.351719 0)
(0.721073 0.355019 0)
(0.708782 0.360183 0)
(0.696884 0.366065 0)
(0.684095 0.370776 0)
(0.670192 0.373438 0)
(0.655815 0.375599 0)
(0.641758 0.380039 0)
(0.629058 0.387915 0)
(0.61721 0.397076 0)
(0.604394 0.403949 0)
(0.590406 0.407405 0)
(0.575887 0.411138 0)
(0.561949 0.418342 0)
(0.548901 0.428184 0)
(0.535288 0.43758 0)
(0.520714 0.445415 0)
(0.505532 0.453513 0)
(0.490524 0.462977 0)
(0.475481 0.473565 0)
(0.460114 0.484642 0)
(0.444373 0.496394 0)
(0.427981 0.509037 0)
(0.410976 0.522953 0)
(0.39321 0.538151 0)
(0.375022 0.554753 0)
(0.35627 0.572622 0)
(0.336636 0.59169 0)
(0.31555 0.611719 0)
(0.292448 0.632207 0)
(0.267124 0.65252 0)
(0.239653 0.671387 0)
(0.210136 0.687773 0)
(0.178713 0.703147 0)
(0.142058 0.721835 0)
(0.0963649 0.744542 0)
(0.0367607 0.764656 0)
(3 -4.08591e-17 0)
(3 -1.06532e-16 0)
(3 1.58479e-16 0)
(3 4.23912e-16 0)
(3 4.99077e-16 0)