/*--------------------------------*- C++ -*----------------------------------*\
  =========                 |
  \\      /  F ield         | OpenFOAM: The Open Source CFD Toolbox
   \\    /   O peration     | Website:  https://openfoam.org
    \\  /    A nd           | Version:  7
     \\/     M anipulation  |
\*---------------------------------------------------------------------------*/
FoamFile
{
    version     2.0;
    format      ascii;
    class       volScalarField;
    location    "14";
    object      p;
}
// * * * * * * * * * * * * * * * * * * * * * * * * * * * * * * * * * * * * * //

dimensions      [0 2 -2 0 0 0 0];

internalField   nonuniform List<scalar> 
8800
(
0.401514
0.353755
0.315119
0.286175
0.265373
0.250621
0.24011
0.232694
0.227889
0.225745
0.226798
0.230707
0.237074
0.246137
0.258708
0.276288
0.300953
0.334807
0.377269
0.435965
0.232698
0.24038
0.247961
0.251304
0.249854
0.244862
0.23847
0.232478
0.227809
0.224937
0.224502
0.226728
0.230913
0.236576
0.243105
0.249184
0.252681
0.251867
0.24632
0.237546
0.210943
0.21714
0.221369
0.224448
0.226632
0.227361
0.226379
0.224382
0.222394
0.221372
0.222102
0.224168
0.226627
0.228488
0.228825
0.227392
0.224829
0.221257
0.216602
0.212825
0.205006
0.207709
0.210628
0.213232
0.215059
0.216388
0.217264
0.217467
0.217176
0.217009
0.217493
0.218322
0.21881
0.218529
0.217593
0.216193
0.214078
0.211237
0.208668
0.20716
0.199465
0.200923
0.202976
0.205337
0.20742
0.209003
0.210161
0.211063
0.211728
0.212205
0.212521
0.212567
0.212233
0.211537
0.210422
0.20874
0.206598
0.204339
0.202803
0.202001
0.194491
0.195427
0.197053
0.199115
0.201243
0.203241
0.204879
0.206083
0.206971
0.207619
0.207993
0.207956
0.20746
0.206439
0.204864
0.202967
0.200986
0.199134
0.198029
0.197537
0.190071
0.190649
0.192093
0.194025
0.195919
0.197704
0.199424
0.200993
0.202256
0.203171
0.203564
0.203362
0.202602
0.20142
0.200013
0.198412
0.196611
0.194918
0.194035
0.193782
0.187326
0.187638
0.18871
0.190277
0.191877
0.193424
0.194895
0.196271
0.197542
0.198583
0.199109
0.199036
0.198531
0.1977
0.196598
0.195304
0.193888
0.192614
0.192026
0.191917
0.185666
0.185849
0.186467
0.187449
0.188588
0.18989
0.191277
0.192706
0.194069
0.19525
0.195947
0.196033
0.195654
0.194966
0.194127
0.193274
0.192439
0.191757
0.191444
0.191379
0.183573
0.183686
0.184014
0.18453
0.185275
0.186197
0.187258
0.188502
0.189852
0.191167
0.192094
0.192474
0.192457
0.19224
0.191886
0.191492
0.191199
0.190933
0.190786
0.190737
0.18064
0.180718
0.180985
0.181452
0.182036
0.182833
0.183911
0.185193
0.186636
0.188145
0.189357
0.190037
0.190288
0.190273
0.190185
0.190068
0.189901
0.18974
0.189657
0.189623
0.177139
0.177182
0.177418
0.177894
0.178519
0.179193
0.18025
0.181557
0.183125
0.184893
0.186464
0.187512
0.188111
0.188425
0.188634
0.188655
0.188556
0.188458
0.188426
0.188408
0.17333
0.173354
0.173559
0.174008
0.174613
0.175558
0.176604
0.178011
0.179786
0.181896
0.183911
0.185395
0.186382
0.187002
0.18724
0.187456
0.187477
0.187462
0.187473
0.187463
0.169212
0.16924
0.169432
0.169869
0.170527
0.171433
0.172651
0.174274
0.176378
0.178962
0.181528
0.183502
0.184873
0.185785
0.186347
0.186666
0.186817
0.186896
0.186939
0.186928
0.164605
0.164632
0.164836
0.165274
0.165971
0.166981
0.168394
0.170323
0.172871
0.176071
0.17932
0.181884
0.183704
0.184951
0.18577
0.186282
0.186583
0.186755
0.186824
0.186811
0.159321
0.159348
0.15959
0.160071
0.160867
0.16205
0.163742
0.166089
0.16923
0.173218
0.177312
0.180564
0.182938
0.18458
0.185682
0.186397
0.186843
0.187097
0.187193
0.187177
0.15319
0.153222
0.153507
0.154102
0.155058
0.156494
0.158568
0.161475
0.165389
0.170384
0.175536
0.179671
0.182678
0.18477
0.18619
0.187124
0.187715
0.18805
0.188175
0.188156
0.145992
0.146031
0.146387
0.147132
0.148341
0.150121
0.15272
0.156372
0.161287
0.16756
0.174029
0.179221
0.182986
0.185626
0.187422
0.188609
0.189362
0.189786
0.189943
0.189919
0.137447
0.137498
0.137959
0.138904
0.140437
0.142718
0.146028
0.15065
0.156852
0.164739
0.172837
0.179311
0.184007
0.1873
0.189548
0.191037
0.191983
0.192519
0.192708
0.192675
0.127181
0.127253
0.12785
0.129073
0.131057
0.134012
0.138247
0.144144
0.152014
0.161933
0.172037
0.180075
0.185892
0.189974
0.192763
0.194615
0.195785
0.196445
0.196686
0.196643
0.114647
0.114748
0.115535
0.117152
0.119764
0.123609
0.129111
0.136711
0.146725
0.159183
0.171736
0.18166
0.188828
0.193858
0.197305
0.199604
0.201064
0.201877
0.202168
0.202113
0.0990537
0.0991929
0.100257
0.102457
0.105969
0.111091
0.118345
0.128202
0.140961
0.156565
0.172071
0.184241
0.193019
0.199191
0.203434
0.20628
0.208097
0.209095
0.209452
0.209383
0.0792216
0.0794184
0.0809219
0.0840238
0.0888836
0.0958696
0.105566
0.118444
0.134724
0.154183
0.173192
0.187996
0.198674
0.206215
0.211435
0.214964
0.21724
0.218496
0.218926
0.218835
0.0533588
0.0536732
0.0559201
0.0604909
0.0674732
0.0772545
0.0904348
0.107381
0.128113
0.152199
0.175266
0.193086
0.205966
0.215142
0.221572
0.225982
0.228862
0.230464
0.231006
0.230883
0.0183126
0.01889
0.0226513
0.029997
0.0405814
0.0547349
0.0729054
0.0952011
0.121396
0.15086
0.178478
0.199647
0.215008
0.226096
0.234023
0.239596
0.243323
0.245412
0.246096
0.245928
-0.0320693
-0.0302804
-0.0225859
-0.00952014
0.00737417
0.0282823
0.0533297
0.0823752
0.115004
0.150468
0.182985
0.207725
0.22578
0.239028
0.248762
0.25586
0.260823
0.263744
0.264695
0.264459
-0.107685
-0.0979685
-0.0803703
-0.0570781
-0.0306837
-0.00081191
0.0326353
0.0694683
0.109255
0.151289
0.189179
0.217939
0.239165
0.255107
0.26726
0.276651
0.283743
0.288343
0.290106
0.290195
-0.188296
-0.166659
-0.138549
-0.104961
-0.0688837
-0.0299574
0.01193
0.0566937
0.10402
0.153345
0.197635
0.231495
0.256899
0.276461
0.29189
0.304298
0.314222
0.32215
0.325665
0.325915
-0.251424
-0.22748
-0.191133
-0.149356
-0.104793
-0.0575188
-0.00763062
0.0447352
0.0992764
0.155467
0.205581
0.24384
0.272637
0.294946
0.312645
0.326922
0.338338
0.347283
0.350471
0.350991
-0.302499
-0.27643
-0.23541
-0.187761
-0.136691
-0.0826475
-0.0258702
0.0333118
0.094441
0.156887
0.212141
0.254003
0.285254
0.309223
0.328013
0.343032
0.354956
0.363777
0.367325
0.367847
-0.343866
-0.317142
-0.272713
-0.220692
-0.164588
-0.105075
-0.0425343
0.0225226
0.0894833
0.157519
0.217218
0.261974
0.294993
0.320009
0.339379
0.354648
0.366626
0.375328
0.379096
0.379624
-0.378989
-0.351904
-0.305082
-0.249539
-0.189359
-0.125317
-0.057885
0.0123117
0.0844678
0.157539
0.221294
0.268645
0.303166
0.328977
0.348669
0.363952
0.375819
0.384326
0.388223
0.38874
-0.40979
-0.38259
-0.333933
-0.275548
-0.21193
-0.143973
-0.0722625
0.00250027
0.0793991
0.157183
0.224729
0.274451
0.310305
0.33678
0.356735
0.372042
0.383824
0.392153
0.396062
0.396587
-0.437744
-0.410433
-0.360297
-0.299494
-0.232959
-0.161626
-0.0861231
-0.00722643
0.074037
0.156215
0.227402
0.279516
0.316762
0.343982
0.364274
0.379672
0.391403
0.399564
0.403445
0.403997
-0.463655
-0.436241
-0.384861
-0.322008
-0.252957
-0.178671
-0.0998053
-0.0171866
0.0681135
0.154571
0.229479
0.284122
0.322901
0.350984
0.371706
0.387269
0.399006
0.407068
0.410844
0.411467
-0.488219
-0.460638
-0.40812
-0.343491
-0.27223
-0.195346
-0.113499
-0.0274833
0.0616345
0.152263
0.230962
0.288322
0.328852
0.35798
0.379272
0.3951
0.406904
0.414897
0.41855
0.419185
-0.511707
-0.483866
-0.430397
-0.36427
-0.291036
-0.211849
-0.12731
-0.0381807
0.0544915
0.149152
0.231756
0.292101
0.334673
0.36509
0.387133
0.403349
0.415299
0.423257
0.426766
0.427363
-0.534451
-0.506275
-0.451968
-0.384472
-0.309499
-0.228277
-0.141341
-0.049412
0.0465603
0.145151
0.231766
0.295387
0.340331
0.372336
0.395348
0.412099
0.424286
0.432268
0.435624
0.43612
-0.55647
-0.527986
-0.473016
-0.404192
-0.327706
-0.244707
-0.155656
-0.0612027
0.03782
0.140175
0.230864
0.298044
0.345715
0.379645
0.403906
0.421393
0.433936
0.441977
0.445214
0.445548
-0.577842
-0.548968
-0.493443
-0.423478
-0.345684
-0.261128
-0.17022
-0.0735297
0.0282508
0.134149
0.228905
0.299893
0.350679
0.386934
0.412769
0.43122
0.44426
0.452404
0.455531
0.455676
-0.598634
-0.569472
-0.51326
-0.44233
-0.363409
-0.277496
-0.18499
-0.0863576
0.0178736
0.127037
0.225761
0.30072
0.355034
0.394078
0.421867
0.44153
0.455197
0.463454
0.466452
0.466419
-0.618906
-0.589337
-0.532508
-0.46073
-0.38083
-0.293776
-0.199912
-0.0996245
0.00673505
0.118819
0.221316
0.300296
0.358457
0.400806
0.431056
0.452268
0.466681
0.47503
0.477779
0.477592
-0.638482
-0.60853
-0.551146
-0.478641
-0.397905
-0.30989
-0.214905
-0.113236
-0.00508683
0.109542
0.215479
0.298415
0.360601
0.406771
0.440157
0.463413
0.478687
0.486976
0.489371
0.48901
-0.657341
-0.627043
-0.569149
-0.496006
-0.414569
-0.325767
-0.229869
-0.127096
-0.0174893
0.0992607
0.208225
0.294881
0.361139
0.411538
0.448884
0.475034
0.491417
0.499201
0.500861
0.500323
-0.675528
-0.644815
-0.586489
-0.512789
-0.430763
-0.34133
-0.244717
-0.141095
-0.0303578
0.0880754
0.199563
0.289566
0.359718
0.414502
0.456653
0.487116
0.505576
0.512196
0.511903
0.511106
-0.692908
-0.661853
-0.603117
-0.528934
-0.446433
-0.356504
-0.259355
-0.155114
-0.0435586
0.0761261
0.189559
0.282397
0.356042
0.414922
0.462389
0.499042
0.522235
0.528615
0.523881
0.521439
-0.709574
-0.678164
-0.619062
-0.544468
-0.461616
-0.371334
-0.273839
-0.169212
-0.0571533
0.0633484
0.17812
0.273147
0.349819
0.411993
0.464394
0.508772
0.540786
0.553906
0.546674
0.524237
-0.725476
-0.693747
-0.634438
-0.55956
-0.476579
-0.386127
-0.288557
-0.183851
-0.071675
0.0490833
0.164527
0.260921
0.340165
0.404537
0.459407
0.510569
0.550442
0.564638
0.55029
0.523486
-0.740485
-0.708806
-0.649087
-0.57396
-0.491054
-0.400556
-0.303289
-0.198706
-0.0867898
0.0336697
0.149021
0.245646
0.326694
0.392252
0.443378
0.493816
0.528568
0.531254
0.463115
0.418997
-0.754034
-0.724171
-0.662625
-0.587117
-0.504391
-0.414189
-0.317763
-0.213565
-0.102282
0.0172798
0.131655
0.227318
0.308793
0.376015
0.41781
0.447233
0.467175
0.426078
0.349578
0.299254
-0.806312
-0.736649
-0.67483
-0.60054
-0.517943
-0.428329
-0.332051
-0.228666
-0.118445
-0.000413675
0.112039
0.205658
0.28449
0.356929
0.37091
0.376444
0.349013
0.282535
0.195324
0.146689
-0.764613
-0.750544
-0.691937
-0.61956
-0.537239
-0.448327
-0.353425
-0.251399
-0.143179
-0.0281641
0.0798243
0.16856
0.239354
0.299563
0.306338
0.184871
0.0673237
-0.013265
-0.0979875
-0.0518738
-0.791859
-0.764781
-0.706668
-0.633987
-0.552376
-0.464015
-0.369269
-0.268333
-0.161777
-0.0494575
0.0544516
0.137749
0.201198
0.232588
0.177949
0.00862977
-0.146963
-0.256435
-0.37552
-0.301897
-0.81221
-0.781609
-0.723357
-0.650285
-0.568974
-0.480994
-0.38674
-0.287065
-0.182451
-0.0733329
0.0258108
0.102477
0.155528
0.158945
0.0371255
-0.188506
-0.383127
-0.532491
-0.705775
-0.637374
-0.831403
-0.799533
-0.740339
-0.666741
-0.585501
-0.4979
-0.404501
-0.306192
-0.2037
-0.0981352
-0.0044961
0.0649821
0.104557
0.0688249
-0.12644
-0.389959
-0.642634
-0.869269
-1.12384
-1.10528
-0.849255
-0.817456
-0.757733
-0.683678
-0.602516
-0.515361
-0.422904
-0.326047
-0.225887
-0.124159
-0.0364837
0.0253069
0.0478363
-0.0327047
-0.284806
-0.576921
-0.882259
-1.15843
-1.49536
-1.87071
-0.866898
-0.835425
-0.77569
-0.701409
-0.620342
-0.533611
-0.442028
-0.346637
-0.248846
-0.151057
-0.0694949
-0.0159939
-0.0106458
-0.141917
-0.426124
-0.724437
-1.03381
-1.29606
-1.40795
-1.5827
-0.884879
-0.853848
-0.794283
-0.720147
-0.639286
-0.553077
-0.462462
-0.368686
-0.273499
-0.180059
-0.105165
-0.0609833
-0.0768976
-0.270356
-0.550818
-0.831844
-1.08926
-1.25234
-1.28357
-1.31484
-0.903537
-0.872902
-0.813705
-0.739841
-0.65934
-0.573803
-0.484364
-0.392447
-0.300233
-0.211713
-0.144049
-0.109997
-0.156974
-0.393893
-0.66411
-0.915492
-1.12905
-1.22043
-1.2403
-1.24216
-0.923006
-0.892677
-0.833829
-0.760368
-0.680337
-0.595651
-0.507583
-0.417793
-0.328904
-0.245822
-0.185765
-0.163627
-0.240117
-0.51077
-0.775699
-0.99224
-1.1672
-1.21977
-1.2089
-1.20523
-0.9431
-0.913095
-0.854515
-0.781552
-0.702127
-0.618437
-0.531929
-0.444536
-0.359201
-0.281969
-0.230021
-0.221541
-0.328517
-0.622594
-0.891974
-1.0581
-1.11843
-1.1655
-1.18049
-1.18307
-0.963531
-0.933853
-0.875675
-0.803166
-0.724435
-0.641896
-0.557151
-0.47235
-0.390804
-0.319737
-0.276574
-0.27944
-0.430678
-0.729245
-1.02004
-1.15559
-1.13218
-1.17418
-1.19314
-1.19777
-0.983653
-0.954378
-0.896835
-0.824847
-0.746876
-0.665653
-0.582821
-0.500766
-0.423222
-0.358225
-0.324473
-0.336743
-0.541989
-0.839818
-1.1692
-1.46623
-1.35692
-1.28777
-1.25613
-1.24961
-1.00291
-0.974182
-0.917549
-0.846019
-0.768982
-0.689126
-0.608352
-0.529176
-0.455714
-0.396394
-0.37229
-0.397425
-0.647495
-0.952901
-1.22751
-1.65871
-1.48155
-1.34719
-1.28993
-1.27612
-1.02068
-0.992666
-0.936747
-0.86601
-0.789916
-0.711664
-0.633057
-0.556767
-0.487254
-0.433018
-0.41816
-0.458717
-0.74297
-1.00393
-0.965939
-0.787321
-1.06501
-1.33512
-1.43403
-1.41808
-1.03581
-1.00879
-0.953832
-0.883765
-0.808765
-0.732148
-0.655894
-0.582649
-0.516616
-0.46681
-0.457597
-0.505589
-0.864566
-1.15774
-1.07113
-0.93854
-1.20967
-1.62207
-1.7421
-1.7518
-1.04711
-1.02138
-0.967559
-0.898169
-0.824316
-0.749498
-0.675791
-0.605678
-0.542532
-0.495257
-0.484919
-0.538078
-1.03504
-1.75595
-2.61858
-3.14341
-3.3431
-2.9958
-2.53494
-2.36871
-1.05312
-1.02895
-0.976457
-0.907819
-0.835219
-0.7624
-0.691591
-0.624677
-0.563604
-0.515643
-0.501992
-0.561982
-1.17271
-2.19672
-3.61847
-4.39838
-4.64307
-4.35697
-3.83284
-3.47059
-1.05233
-1.02997
-0.978831
-0.911044
-0.839866
-0.76951
-0.702076
-0.638824
-0.580133
-0.527373
-0.497791
-0.528756
-0.982365
-1.80366
-2.81009
-3.44255
-3.35482
-2.87729
-2.42399
-2.16352
-1.0421
-1.02173
-0.97235
-0.905893
-0.836619
-0.769283
-0.705985
-0.647775
-0.592668
-0.531442
-0.468339
-0.442272
-0.462142
-0.507785
-0.367028
-0.145481
0.215347
0.579238
0.785679
0.866451
-1.02047
-1.00198
-0.954841
-0.890455
-0.823939
-0.760659
-0.703479
-0.653936
-0.607502
-0.542852
-0.444629
-0.312308
-0.0849112
0.379108
0.983961
1.61643
2.10963
2.39869
2.51372
2.53661
-0.985536
-0.96902
-0.924385
-0.863387
-0.800891
-0.743301
-0.694727
-0.65912
-0.636895
-0.589351
-0.461803
-0.228488
0.0541445
0.561025
1.2331
1.82365
2.24459
2.49195
2.59291
2.61677
-0.93485
-0.920347
-0.880009
-0.824167
-0.767468
-0.717456
-0.680811
-0.667877
-0.691456
-0.745142
-0.698103
-0.385037
-0.00100152
0.440375
1.01908
1.50326
1.8432
2.04473
2.13234
2.15702
-0.868679
-0.85585
-0.821537
-0.773
-0.724182
-0.68346
-0.661759
-0.682161
-0.799367
-1.11176
-1.3206
-0.902317
-0.297476
0.155169
0.662734
1.07804
1.37125
1.54232
1.6186
1.63598
-0.788258
-0.777514
-0.750002
-0.710431
-0.670462
-0.639088
-0.631328
-0.685859
-0.920291
-1.56721
-2.24472
-1.62355
-0.816633
-0.239655
0.284667
0.672942
0.918111
1.04818
1.10161
1.10747
-0.696142
-0.688692
-0.666285
-0.634632
-0.602499
-0.577232
-0.574047
-0.634608
-0.865402
-1.48321
-2.07683
-1.60755
-0.934998
-0.352687
0.0850104
0.364836
0.523215
0.605452
0.646729
0.655702
-0.582191
-0.578343
-0.563309
-0.540388
-0.515237
-0.493427
-0.485478
-0.517719
-0.660079
-1.01877
-1.28764
-0.984789
-0.522881
-0.129323
0.124862
0.267656
0.345966
0.391759
0.416147
0.421919
-0.464521
-0.462905
-0.452387
-0.435674
-0.41616
-0.396491
-0.382072
-0.386061
-0.439104
-0.576982
-0.644562
-0.438011
-0.170427
0.0387335
0.156182
0.219671
0.255147
0.275126
0.284104
0.285908
-0.354026
-0.352699
-0.345491
-0.332751
-0.317043
-0.299175
-0.280696
-0.26585
-0.262463
-0.269762
-0.226857
-0.0922993
0.0285026
0.123687
0.172239
0.197389
0.210934
0.218116
0.220956
0.220784
-0.252053
-0.251548
-0.246871
-0.237936
-0.226031
-0.21083
-0.191951
-0.169409
-0.142646
-0.104696
-0.0361352
0.0571615
0.113064
0.154085
0.175256
0.184875
0.188787
0.189829
0.189552
0.188733
-0.162495
-0.162611
-0.160605
-0.155714
-0.147937
-0.136432
-0.120077
-0.0973918
-0.0657639
-0.0197106
0.0421889
0.103628
0.137482
0.157979
0.168184
0.171749
0.171882
0.170737
0.169611
0.168737
-0.0895352
-0.0900387
-0.0903023
-0.089103
-0.085302
-0.0777358
-0.0651955
-0.0459583
-0.0174764
0.0234999
0.0719903
0.113146
0.136747
0.149431
0.155112
0.156393
0.155417
0.15382
0.15265
0.151892
-0.0356805
-0.0363293
-0.0377898
-0.0387842
-0.0378182
-0.0336984
-0.0250677
-0.0103046
0.0124689
0.0449574
0.0811186
0.109669
0.126781
0.135674
0.139401
0.139926
0.138745
0.137219
0.136217
0.135612
0.00087815
0.000271339
-0.00149701
-0.00335397
-0.0038398
-0.0019541
0.00349836
0.0139979
0.0310212
0.0555088
0.0820311
0.10224
0.114654
0.121129
0.123662
0.123753
0.122607
0.121257
0.120425
0.119957
0.0239683
0.0234845
0.0219004
0.0199498
0.0188946
0.0196465
0.023102
0.030344
0.0425362
0.0603339
0.079525
0.0939934
0.102905
0.107414
0.109026
0.108876
0.107788
0.106577
0.10588
0.105526
0.0376024
0.0372492
0.0360157
0.0343436
0.0331873
0.0332539
0.0353643
0.0403642
0.0490251
0.0617611
0.0754549
0.0856436
0.0918629
0.0950078
0.096038
0.0957158
0.0946984
0.0936315
0.0930515
0.0927875
0.0450244
0.0447733
0.0438849
0.042597
0.0416119
0.0414168
0.042587
0.0458237
0.051807
0.0607962
0.0704929
0.0777368
0.0821365
0.0842509
0.0847924
0.0843735
0.083459
0.0825434
0.08207
0.0818745
0.0485703
0.0483865
0.0477514
0.0467856
0.0459884
0.0457264
0.0464255
0.0485503
0.0525928
0.0588298
0.0656431
0.070676
0.073623
0.0749539
0.0751845
0.0747248
0.073917
0.0731495
0.0727704
0.072625
0.0496519
0.0495101
0.0490249
0.0482628
0.0475875
0.0472565
0.0475835
0.0489401
0.0516766
0.0559426
0.0606049
0.0640403
0.0660226
0.0668539
0.0668894
0.0664405
0.0657591
0.06514
0.0648444
0.0647351
0.0490272
0.0489159
0.0485285
0.0479059
0.0473252
0.046974
0.0470663
0.0478574
0.0496209
0.0524958
0.0556848
0.0580087
0.059288
0.0597511
0.0596642
0.0592476
0.058682
0.0581884
0.0579582
0.057875
0.0471587
0.0470716
0.046758
0.0462406
0.045735
0.0453802
0.0453324
0.0457737
0.0468879
0.0487682
0.0508703
0.0523813
0.0531723
0.0533995
0.0532477
0.0528742
0.0524092
0.0520164
0.0518363
0.0517726
0.044377
0.0443092
0.0440578
0.0436304
0.0431945
0.0428526
0.0427137
0.0429063
0.0435676
0.0447649
0.0461243
0.047082
0.047543
0.0476157
0.0474324
0.0471039
0.0467225
0.0464095
0.0462686
0.0462199
0.0409457
0.0408929
0.040696
0.0403515
0.0399871
0.0396779
0.0394999
0.0395436
0.039904
0.0406292
0.041471
0.0420437
0.0422803
0.0422563
0.0420631
0.0417775
0.0414646
0.0412148
0.0411046
0.0410673
0.0370738
0.0370323
0.03688
0.0366078
0.0363099
0.0360403
0.0358513
0.0358061
0.0359722
0.0363833
0.0368749
0.0371902
0.0372831
0.0372041
0.0370161
0.036772
0.0365175
0.0363197
0.0362334
0.0362048
0.0329149
0.032882
0.0327649
0.0325533
0.0323148
0.0320874
0.0319064
0.0318154
0.0318613
0.0320674
0.0323289
0.0324773
0.0324817
0.0323755
0.0322016
0.0319962
0.0317909
0.0316349
0.0315674
0.0315453
0.0285756
0.0285496
0.0284598
0.0282967
0.0281081
0.0279206
0.0277574
0.0276481
0.0276246
0.0277029
0.0278186
0.0278643
0.0278188
0.0277041
0.0275494
0.0273793
0.0272155
0.0270933
0.0270406
0.0270235
0.024125
0.0241047
0.0240357
0.0239101
0.0237621
0.0236099
0.023469
0.0233588
0.0233013
0.0233064
0.0233351
0.0233216
0.0232526
0.0231423
0.0230099
0.0228715
0.0227418
0.0226464
0.0226055
0.0225924
0.0196048
0.0195892
0.0195364
0.0194402
0.0193254
0.0192048
0.0190883
0.0189884
0.0189194
0.0188878
0.0188713
0.01883
0.0187558
0.0186578
0.0185483
0.0184378
0.018336
0.018262
0.0182306
0.0182208
0.0150388
0.0150271
0.0149872
0.0149147
0.014828
0.0147361
0.0146451
0.0145628
0.0144982
0.0144551
0.0144213
0.0143736
0.0143069
0.0142265
0.0141401
0.0140546
0.0139766
0.0139201
0.0138963
0.013889
0.0104412
0.0104328
0.0104038
0.0103517
0.01029
0.0102248
0.01016
0.0101001
0.0100502
0.0100126
0.0099801
0.00994004
0.00988916
0.00983033
0.00976827
0.00970679
0.00965032
0.00960899
0.00959167
0.00958649
0.00581721
0.00581155
0.00579327
0.00576116
0.00572444
0.005687
0.00565025
0.00561629
0.00558748
0.00556491
0.00554486
0.00552038
0.00549025
0.00545621
0.00542047
0.00538444
0.00535013
0.00532438
0.00531327
0.00530951
0.00117492
0.00117514
0.00117688
0.00117156
0.00116213
0.00115269
0.00114346
0.00113455
0.00112602
0.00111771
0.00110983
0.0011023
0.00109436
0.00108598
0.00107725
0.0010682
0.00105891
0.00105092
0.0010494
0.0010509
-0.811241
-0.570626
-0.302336
-0.0832479
0.0946499
0.23845
0.360429
0.463506
0.511379
0.488834
-0.381516
-0.219016
-0.0502401
0.0950189
0.218537
0.322268
0.40694
0.467713
0.499498
0.510545
-0.0902935
0.0168737
0.129428
0.229565
0.316067
0.388752
0.446595
0.48887
0.518354
0.535266
0.111725
0.185126
0.263878
0.335098
0.397011
0.449418
0.492139
0.525671
0.551913
0.569531
0.263516
0.316373
0.372241
0.425027
0.471519
0.511792
0.545825
0.573647
0.596154
0.613584
0.38433
0.423169
0.467091
0.508536
0.546124
0.579452
0.608238
0.632073
0.651306
0.668461
0.486777
0.51882
0.556906
0.592587
0.625656
0.655405
0.681192
0.702401
0.718843
0.735869
0.581436
0.612729
0.649284
0.683539
0.715062
0.74327
0.767437
0.786888
0.800912
0.817973
0.680504
0.714998
0.753179
0.788114
0.819356
0.846563
0.86935
0.887252
0.899587
0.917045
0.797813
0.836372
0.875945
0.91103
0.94112
0.966513
0.98741
1.00372
1.01551
1.03365
0.944165
0.98317
1.01982
1.05102
1.07716
1.09965
1.11904
1.13484
1.14747
1.16553
1.11998
1.15197
1.17847
1.20123
1.22149
1.24045
1.25836
1.27498
1.29047
1.30858
1.30912
1.32649
1.34175
1.35819
1.37426
1.38891
1.40223
1.41626
1.43388
1.45407
1.4912
1.5008
1.51243
1.52329
1.53263
1.54233
1.55326
1.5647
1.57612
1.5915
1.69864
1.70233
1.68739
1.67259
1.66643
1.67219
1.6907
1.72106
1.75328
1.77995
2.00493
1.87008
1.79355
1.75134
1.73392
1.73789
1.76534
1.82174
1.92437
2.14875
0.292101
0.290002
0.285526
0.276947
0.264794
0.252743
0.242597
0.234785
0.229218
0.225935
0.225416
0.227873
0.232672
0.239612
0.248764
0.260118
0.272619
0.283539
0.289604
0.292608
0.216435
0.222301
0.22867
0.233267
0.235832
0.235621
0.233013
0.229307
0.225838
0.223523
0.223196
0.225118
0.228475
0.23246
0.235983
0.237626
0.2365
0.232856
0.227569
0.220908
0.207859
0.21016
0.213658
0.21679
0.219013
0.220651
0.221533
0.221328
0.220377
0.219461
0.21944
0.220546
0.221995
0.222949
0.222819
0.221653
0.219853
0.217292
0.213861
0.210865
0.202157
0.203231
0.20523
0.207887
0.210188
0.211847
0.213037
0.2139
0.214351
0.214533
0.214811
0.215244
0.215447
0.215131
0.214353
0.21313
0.211278
0.20881
0.206413
0.204939
0.19694
0.197563
0.198864
0.200932
0.203101
0.205094
0.206682
0.207866
0.208803
0.209523
0.209997
0.210137
0.209876
0.209246
0.208174
0.20658
0.204606
0.20255
0.200844
0.199981
0.192138
0.192505
0.193547
0.195433
0.197495
0.199525
0.201459
0.203099
0.204328
0.205215
0.2058
0.205966
0.205613
0.204684
0.203232
0.201485
0.19961
0.197713
0.196236
0.195659
0.188472
0.188634
0.18942
0.191046
0.192847
0.194515
0.196055
0.197557
0.198974
0.200165
0.200917
0.201025
0.200573
0.199735
0.198674
0.197382
0.195851
0.194211
0.193005
0.192664
0.186466
0.186539
0.187034
0.188152
0.189529
0.190965
0.192495
0.19396
0.195315
0.196525
0.197409
0.197716
0.197482
0.196837
0.19587
0.194796
0.193665
0.192555
0.191809
0.191617
0.18473
0.18478
0.18505
0.185631
0.186428
0.187475
0.18854
0.189805
0.191178
0.192515
0.19358
0.194083
0.194061
0.193747
0.193291
0.192583
0.19205
0.191575
0.191249
0.191143
0.182201
0.182235
0.182417
0.182815
0.183372
0.184005
0.185022
0.186207
0.187528
0.188933
0.190208
0.191013
0.191321
0.191279
0.191036
0.190949
0.19071
0.190477
0.190309
0.190245
0.178936
0.178952
0.179093
0.179461
0.180009
0.180662
0.181544
0.182713
0.184121
0.185712
0.187266
0.188398
0.189008
0.18928
0.189369
0.18936
0.189282
0.189137
0.189041
0.189014
0.175267
0.175262
0.175371
0.175718
0.176252
0.176953
0.177916
0.179081
0.180575
0.18238
0.184291
0.185842
0.186846
0.187416
0.187809
0.187992
0.188007
0.187936
0.187902
0.1879
0.171321
0.171318
0.171403
0.171742
0.172298
0.173062
0.174056
0.175375
0.177089
0.179225
0.181605
0.183645
0.185072
0.186024
0.186604
0.186928
0.187067
0.187111
0.187144
0.187156
0.166983
0.166972
0.167075
0.167393
0.167947
0.168749
0.169864
0.171386
0.173415
0.176011
0.178981
0.181617
0.183532
0.184836
0.185699
0.186239
0.186549
0.186719
0.186812
0.186831
0.162059
0.162046
0.162168
0.162502
0.163099
0.163994
0.165287
0.167104
0.16957
0.172771
0.176497
0.179863
0.18228
0.184049
0.185232
0.186003
0.186487
0.186777
0.186923
0.186951
0.156379
0.156363
0.156506
0.156909
0.157592
0.158643
0.160198
0.162418
0.165462
0.16945
0.174127
0.178374
0.181526
0.183755
0.185289
0.186313
0.186978
0.187384
0.187582
0.187618
0.149749
0.149728
0.14991
0.1504
0.15124
0.152526
0.154455
0.157217
0.161019
0.166017
0.171889
0.177234
0.181213
0.184032
0.18598
0.187293
0.188155
0.188687
0.188942
0.188988
0.141925
0.141899
0.142132
0.142745
0.143804
0.145449
0.147883
0.151357
0.156149
0.162438
0.169807
0.1765
0.181467
0.185002
0.187445
0.189096
0.190187
0.190863
0.191185
0.191242
0.13258
0.132545
0.132854
0.133656
0.13502
0.137125
0.140231
0.144672
0.150757
0.158687
0.16792
0.176263
0.182435
0.186827
0.189863
0.191914
0.193272
0.194112
0.194509
0.194586
0.121234
0.121189
0.121605
0.122672
0.124461
0.127201
0.131245
0.136971
0.144728
0.154742
0.166285
0.176636
0.184265
0.189691
0.193443
0.195979
0.197662
0.198716
0.199212
0.199299
0.107234
0.107179
0.107762
0.109206
0.111595
0.115233
0.120549
0.127977
0.137928
0.150592
0.164978
0.177753
0.18713
0.193798
0.19842
0.201551
0.203629
0.204934
0.205553
0.205662
0.08964
0.0895851
0.0904299
0.0924201
0.0956783
0.100594
0.107684
0.11745
0.130288
0.146282
0.164118
0.179771
0.191217
0.19937
0.205046
0.208914
0.211492
0.213115
0.213895
0.214024
0.0669801
0.066942
0.0682219
0.0710786
0.0756899
0.0825443
0.0922307
0.105229
0.121821
0.141938
0.163872
0.182871
0.196722
0.206626
0.213578
0.218364
0.221585
0.223622
0.224599
0.224763
0.0368187
0.036851
0.0389333
0.0433386
0.0502399
0.0602103
0.0737643
0.0912159
0.112647
0.137766
0.164446
0.187228
0.203801
0.215738
0.224229
0.230172
0.23424
0.236847
0.238091
0.238294
-0.00512239
-0.00482396
-0.000925181
0.00664376
0.0177397
0.0328452
0.0521246
0.0755959
0.103077
0.134058
0.166044
0.192955
0.212513
0.226746
0.237071
0.244489
0.249719
0.253163
0.254797
0.255041
-0.0669523
-0.0651327
-0.0559405
-0.0416068
-0.0226448
0.000657072
0.0279519
0.0590734
0.0936876
0.1312
0.168848
0.20007
0.22276
0.239465
0.251863
0.261095
0.267872
0.272494
0.274801
0.275106
-0.140832
-0.137863
-0.120841
-0.095469
-0.0659499
-0.0331424
0.00290953
0.0421839
0.0844499
0.129213
0.173517
0.210226
0.237237
0.257591
0.273205
0.285339
0.294864
0.301455
0.30389
0.304854
-0.216794
-0.207655
-0.182406
-0.147027
-0.107935
-0.0659993
-0.0213319
0.0260373
0.0759298
0.127937
0.178944
0.221154
0.252407
0.27627
0.294957
0.309848
0.321752
0.330331
0.334776
0.336463
-0.274663
-0.264281
-0.234071
-0.192091
-0.145667
-0.0961597
-0.0439501
0.0107866
0.0677659
0.126526
0.183639
0.23062
0.265286
0.291685
0.312273
0.328578
0.341523
0.35123
0.35666
0.358479
-0.321324
-0.310454
-0.276867
-0.230242
-0.178373
-0.122984
-0.0645627
-0.00347007
0.0598078
0.124651
0.187211
0.238204
0.27543
0.303443
0.325026
0.341946
0.355259
0.365178
0.370722
0.372672
-0.359731
-0.348858
-0.313267
-0.263018
-0.206856
-0.146727
-0.0831742
-0.0166916
0.0520962
0.122366
0.189752
0.244213
0.283547
0.312791
0.33504
0.352245
0.36561
0.375517
0.381071
0.382977
-0.39295
-0.382163
-0.345058
-0.292007
-0.232354
-0.168255
-0.100301
-0.0290988
0.0445971
0.119808
0.191706
0.249385
0.29059
0.320841
0.343543
0.360878
0.3742
0.384053
0.389617
0.391422
-0.422507
-0.411821
-0.373644
-0.318298
-0.255702
-0.188193
-0.116404
-0.0410135
0.0371469
0.116945
0.193056
0.253758
0.296754
0.327986
0.351162
0.368672
0.38201
0.391805
0.397407
0.399066
-0.449598
-0.438977
-0.399938
-0.342646
-0.277573
-0.207132
-0.131973
-0.0528185
0.0294112
0.113466
0.193677
0.257491
0.302398
0.334724
0.358465
0.376214
0.389621
0.399393
0.404992
0.406541
-0.474961
-0.46437
-0.424559
-0.365601
-0.298393
-0.225385
-0.147263
-0.0647549
0.0212128
0.109369
0.193679
0.260731
0.307719
0.341299
0.365738
0.38383
0.397366
0.407127
0.412747
0.414185
-0.499071
-0.488468
-0.448022
-0.387605
-0.318488
-0.243215
-0.162466
-0.0769121
0.0125338
0.104595
0.192975
0.263441
0.312759
0.347831
0.373157
0.391726
0.405482
0.415297
0.420888
0.422263
-0.522286
-0.51163
-0.470488
-0.408884
-0.338071
-0.260793
-0.177688
-0.0893913
0.00323482
0.098985
0.191453
0.265552
0.317513
0.354364
0.380805
0.400023
0.41411
0.42403
0.429557
0.430921
-0.54478
-0.533986
-0.492198
-0.429567
-0.357232
-0.278205
-0.193025
-0.102284
-0.00675783
0.092492
0.189004
0.26694
0.321898
0.360885
0.38872
0.408782
0.423336
0.433443
0.438897
0.440242
-0.566571
-0.555618
-0.513324
-0.449704
-0.376049
-0.2955
-0.208503
-0.115588
-0.0174338
0.085062
0.185521
0.267463
0.325757
0.367289
0.396856
0.418001
0.433171
0.443542
0.448956
0.45023
-0.587792
-0.576626
-0.533889
-0.469311
-0.394536
-0.312656
-0.224074
-0.129266
-0.0287904
0.0766687
0.180907
0.266945
0.328865
0.373354
0.405069
0.427611
0.443593
0.454324
0.459707
0.460851
-0.608378
-0.59702
-0.553824
-0.488408
-0.412659
-0.32963
-0.239693
-0.143269
-0.0407767
0.0673246
0.175089
0.2652
0.33099
0.378848
0.413215
0.437536
0.454543
0.465682
0.471034
0.471987
-0.628372
-0.616794
-0.573112
-0.50698
-0.430382
-0.346381
-0.255306
-0.157514
-0.0533149
0.0570719
0.168035
0.262065
0.331879
0.383534
0.421117
0.447718
0.465991
0.477525
0.482706
0.483437
-0.647605
-0.635881
-0.59173
-0.524975
-0.447648
-0.362827
-0.270828
-0.171915
-0.0663125
0.0459931
0.159734
0.25742
0.331235
0.387012
0.428436
0.458063
0.478015
0.489827
0.494547
0.494947
-0.666193
-0.654253
-0.609661
-0.542362
-0.464418
-0.378919
-0.286164
-0.186378
-0.0796615
0.0341973
0.15024
0.251173
0.328787
0.388766
0.434635
0.468353
0.490919
0.502895
0.506342
0.506091
-0.684007
-0.671845
-0.62688
-0.559097
-0.480618
-0.394582
-0.301236
-0.200782
-0.0932374
0.0217824
0.139652
0.243294
0.324355
0.388302
0.438925
0.477996
0.505072
0.518112
0.51877
0.516371
-0.701094
-0.688753
-0.643349
-0.575134
-0.496215
-0.409756
-0.315964
-0.215043
-0.10692
0.00891291
0.128102
0.233813
0.317839
0.385217
0.440203
0.485518
0.51985
0.537892
0.536868
0.525492
-0.717392
-0.704904
-0.659177
-0.590609
-0.511398
-0.424703
-0.330667
-0.229553
-0.121163
-0.00494249
0.114989
0.222053
0.308483
0.37875
0.436809
0.48813
0.53179
0.55929