/*--------------------------------*- C++ -*----------------------------------*\
  =========                 |
  \\      /  F ield         | OpenFOAM: The Open Source CFD Toolbox
   \\    /   O peration     | Website:  https://openfoam.org
    \\  /    A nd           | Version:  7
     \\/     M anipulation  |
\*---------------------------------------------------------------------------*/
FoamFile
{
    version     2.0;
    format      ascii;
    class       volScalarField;
    location    "1.37";
    object      T;
}
// * * * * * * * * * * * * * * * * * * * * * * * * * * * * * * * * * * * * * //

dimensions      [0 0 0 1 0 0 0];

internalField   nonuniform List<scalar> 
1000
(
1.01535e-96
1.55545e-96
2.92182e-96
5.8379e-96
1.18459e-95
2.41193e-95
4.91324e-95
1.00062e-94
2.03702e-94
4.14502e-94
8.4306e-94
1.71392e-93
3.48273e-93
7.07371e-93
1.43605e-92
2.91401e-92
5.91025e-92
1.19816e-91
2.42783e-91
4.91715e-91
9.9541e-91
2.0141e-90
4.07335e-90
8.23401e-90
1.66364e-89
3.35968e-89
6.78145e-89
1.36815e-88
2.75887e-88
5.5605e-88
1.12016e-87
2.25544e-87
4.53905e-87
9.13019e-87
1.83559e-86
3.68853e-86
7.40813e-86
1.48711e-85
2.9837e-85
5.98336e-85
1.19925e-84
2.40243e-84
4.81024e-84
9.6262e-84
1.92538e-83
3.84901e-83
7.69047e-83
1.53577e-82
3.06528e-82
6.11479e-82
1.21916e-81
2.42944e-81
4.83856e-81
9.63146e-81
1.91616e-80
3.81007e-80
7.57177e-80
1.50391e-79
2.98543e-79
5.92313e-79
1.1745e-78
2.32762e-78
4.61029e-78
9.12639e-78
1.80561e-77
3.57029e-77
7.0556e-77
1.39353e-76
2.75073e-76
5.42664e-76
1.06994e-75
2.10833e-75
4.15205e-75
8.17208e-75
1.60748e-74
3.16012e-74
6.20873e-74
1.21911e-73
2.39234e-73
4.69184e-73
9.19604e-73
1.80134e-72
3.52636e-72
6.89908e-72
1.34893e-71
2.63586e-71
5.14737e-71
1.00457e-70
1.9593e-70
3.81903e-70
7.43928e-70
1.44822e-69
2.8175e-69
5.47792e-69
1.06437e-68
2.06675e-68
4.01054e-68
7.77747e-68
1.50727e-67
2.91918e-67
5.64997e-67
1.09281e-66
2.11231e-66
4.0802e-66
7.87617e-66
1.51935e-65
2.92894e-65
5.64247e-65
1.08626e-64
2.08978e-64
4.01765e-64
7.71872e-64
1.4819e-63
2.84309e-63
5.45081e-63
1.04431e-62
1.99935e-62
3.82512e-62
7.31296e-62
1.39712e-61
2.66724e-61
5.08838e-61
9.70028e-61
1.84788e-60
3.51762e-60
6.69124e-60
1.27188e-59
2.41582e-59
4.58524e-59
8.69635e-59
1.64811e-58
3.12113e-58
5.90623e-58
1.11681e-57
2.11017e-57
3.98405e-57
7.51622e-57
1.4169e-56
2.66896e-56
5.02352e-56
9.44789e-56
1.7755e-55
3.33399e-55
6.25552e-55
1.17278e-54
2.19697e-54
4.11228e-54
7.69113e-54
1.4373e-53
2.68379e-53
5.00721e-53
9.3344e-53
1.73867e-52
3.23586e-52
6.01727e-52
1.11801e-51
2.07552e-51
3.84982e-51
7.13486e-51
1.32117e-50
2.44434e-50
4.51846e-50
8.34531e-50
1.53999e-49
2.83931e-49
5.2303e-49
9.62626e-49
1.77012e-48
3.25209e-48
5.96944e-48
1.09475e-47
2.00586e-47
3.67194e-47
6.71571e-47
1.22713e-46
2.24022e-46
4.08589e-46
7.44525e-46
1.3554e-45
2.46516e-45
4.47933e-45
8.13149e-45
1.47473e-44
2.67201e-44
4.83667e-44
8.74649e-44
1.58015e-43
2.85194e-43
5.14226e-43
9.26273e-43
1.66684e-42
2.9965e-42
5.38145e-42
9.6549e-42
1.73044e-41
3.09829e-41
5.54172e-41
9.90193e-41
1.76745e-40
3.15154e-40
5.61364e-40
9.98875e-40
1.7755e-39
3.15259e-39
5.59181e-39
9.90769e-39
1.75358e-38
3.10032e-38
5.47541e-38
9.65942e-38
1.70219e-37
2.9963e-37
5.26842e-37
9.25315e-37
1.62335e-36
2.84475e-36
4.97946e-36
8.70615e-36
1.52045e-35
2.65227e-35
4.62124e-35
8.04256e-35
1.39805e-34
2.42738e-34
4.20958e-34
7.2916e-34
1.2615e-33
2.17986e-33
3.76224e-33
6.48537e-33
1.11659e-32
1.92006e-32
3.29763e-32
5.65651e-32
9.69064e-32
1.6581e-31
2.83348e-31
4.83591e-31
8.24292e-31
1.40322e-30
2.38567e-30
4.05071e-30
6.86885e-30
1.16323e-29
1.96732e-29
3.32283e-29
5.60481e-29
9.44128e-29
1.58823e-28
2.66813e-28
4.47619e-28
7.49915e-28
1.25463e-27
2.09613e-27
3.49714e-27
5.82638e-27
9.69327e-27
1.61037e-26
2.67153e-26
4.42558e-26
7.32072e-26
1.20922e-25
1.99445e-25
3.28475e-25
5.40182e-25
8.87017e-25
1.45437e-24
2.38102e-24
3.89221e-24
6.35284e-24
1.03532e-23
1.68467e-23
2.73704e-23
4.4399e-23
7.19091e-23
1.16282e-22
1.87737e-22
3.02619e-22
4.87021e-22
7.82527e-22
1.2553e-21
2.01041e-21
3.21448e-21
5.13122e-21
8.17729e-21
1.30099e-20
2.06637e-20
3.27649e-20
5.18646e-20
8.19581e-20
1.2929e-19
2.03605e-19
3.20078e-19
5.023e-19
7.86876e-19
1.2305e-18
1.92079e-18
2.99297e-18
4.65524e-18
7.22759e-18
1.12009e-17
1.73267e-17
2.67533e-17
4.12319e-17
6.34274e-17
9.73879e-17
1.49249e-16
2.28294e-16
3.48534e-16
5.31081e-16
8.07675e-16
1.22593e-15
1.85714e-15
2.80782e-15
4.23675e-15
6.38013e-15
9.58863e-15
1.43816e-14
2.15266e-14
3.21558e-14
4.79347e-14
7.13091e-14
1.05861e-13
1.56827e-13
2.31842e-13
3.42016e-13
5.03472e-13
7.39564e-13
1.08403e-12
1.5855e-12
2.31391e-12
3.36959e-12
4.89608e-12
7.09838e-12
1.02684e-11
1.48208e-11
2.13433e-11
3.06667e-11
4.39624e-11
6.28783e-11
8.9726e-11
1.27741e-10
1.81437e-10
2.57101e-10
3.63461e-10
5.12602e-10
7.21219e-10
1.01231e-09
1.41746e-09
1.97995e-09
2.75891e-09
3.83492e-09
5.31746e-09
7.35488e-09
1.01476e-08
1.39657e-08
1.91721e-08
2.62528e-08
3.5857e-08
4.88497e-08
6.63792e-08
8.9966e-08
1.21617e-07
1.63975e-07
2.20506e-07
2.95743e-07
3.95601e-07
5.27768e-07
7.02206e-07
9.31787e-07
1.23309e-06
1.62739e-06
2.14191e-06
2.81139e-06
3.67997e-06
4.80358e-06
6.25284e-06
8.11665e-06
1.05065e-05
1.35617e-05
1.7456e-05
2.24047e-05
2.86744e-05
3.65937e-05
4.65661e-05
5.90854e-05
7.47535e-05
9.43018e-05
0.000118615
0.000148761
0.000186021
0.000231929
0.000288312
0.00035734
0.000441579
0.000544049
0.000668295
0.000818455
0.000999343
0.00121653
0.00147646
0.0017865
0.00215508
0.00259182
0.00310759
0.00371463
0.0044267
0.00525916
0.00622904
0.0073552
0.00865835
0.0101611
0.0118882
0.013866
0.0161234
0.0186907
0.0216005
0.0248867
0.0285852
0.0327329
0.0373681
0.0425297
0.0482572
0.0545899
0.0615668
0.069226
0.0776042
0.0867358
0.0966529
0.107384
0.118954
0.131384
0.144689
0.158878
0.173956
0.189919
0.206759
0.224457
0.242991
0.262328
0.282429
0.303247
0.324729
0.346815
0.369437
0.392523
0.415997
0.439777
0.463777
0.487911
0.512089
0.536223
0.560223
0.584003
0.607477
0.630563
0.653185
0.675271
0.696753
0.717571
0.737672
0.757009
0.775542
0.793241
0.810081
0.826044
0.841122
0.855311
0.868615
0.881045
0.892615
0.903346
0.913262
0.922393
0.93077
0.938428
0.945404
0.951735
0.95746
0.962618
0.96725
0.971392
0.975085
0.978363
0.981263
0.983818
0.986059
0.988018
0.98972
0.991193
0.992459
0.993539
0.994453
0.995216
0.995844
0.996348
0.99674
0.997026
0.997214
0.997307
0.997307
0.997214
0.997026
0.99674
0.996348
0.995844
0.995216
0.994453
0.993539
0.992459
0.991193
0.98972
0.988018
0.986059
0.983818
0.981263
0.978363
0.975085
0.971392
0.96725
0.962618
0.95746
0.951735
0.945404
0.938428
0.93077
0.922393
0.913262
0.903346
0.892615
0.881045
0.868615
0.855311
0.841122
0.826044
0.810081
0.793241
0.775542
0.757009
0.737672
0.717571
0.696753
0.675271
0.653185
0.630563
0.607477
0.584003
0.560223
0.536223
0.512089
0.487911
0.463777
0.439777
0.415997
0.392523
0.369437
0.346815
0.324729
0.303247
0.282429
0.262328
0.242991
0.224457
0.206759
0.189919
0.173956
0.158878
0.144689
0.131384
0.118954
0.107384
0.0966529
0.0867358
0.0776042
0.069226
0.0615668
0.0545899
0.0482572
0.0425297
0.0373681
0.0327329
0.0285852
0.0248867
0.0216005
0.0186907
0.0161234
0.013866
0.0118882
0.0101611
0.00865835
0.0073552
0.00622904
0.00525916
0.0044267
0.00371463
0.00310759
0.00259182
0.00215508
0.0017865
0.00147646
0.00121653
0.000999343
0.000818455
0.000668295
0.000544049
0.000441579
0.00035734
0.000288312
0.000231929
0.000186021
0.000148761
0.000118615
9.43018e-05
7.47535e-05
5.90854e-05
4.65661e-05
3.65937e-05
2.86744e-05
2.24047e-05
1.7456e-05
1.35617e-05
1.05065e-05
8.11665e-06
6.25284e-06
4.80358e-06
3.67997e-06
2.81139e-06
2.14191e-06
1.62739e-06
1.23309e-06
9.31787e-07
7.02206e-07
5.27768e-07
3.95601e-07
2.95743e-07
2.20506e-07
1.63975e-07
1.21617e-07
8.9966e-08
6.63792e-08
4.88497e-08
3.5857e-08
2.62528e-08
1.91721e-08
1.39657e-08
1.01476e-08
7.35488e-09
5.31746e-09
3.83492e-09
2.75891e-09
1.97995e-09
1.41746e-09
1.01231e-09
7.21219e-10
5.12602e-10
3.63461e-10
2.57101e-10
1.81437e-10
1.27741e-10
8.9726e-11
6.28783e-11
4.39624e-11
3.06667e-11
2.13433e-11
1.48208e-11
1.02684e-11
7.09838e-12
4.89608e-12
3.36959e-12
2.31391e-12
1.5855e-12
1.08403e-12
7.39564e-13
5.03472e-13
3.42016e-13
2.31842e-13
1.56827e-13
1.05861e-13
7.13091e-14
4.79347e-14
3.21558e-14
2.15266e-14
1.43816e-14
9.58863e-15
6.38013e-15
4.23675e-15
2.80782e-15
1.85714e-15
1.22593e-15
8.07675e-16
5.31081e-16
3.48534e-16
2.28294e-16
1.49249e-16
9.73879e-17
6.34274e-17
4.12319e-17
2.67533e-17
1.73267e-17
1.12009e-17
7.22759e-18
4.65524e-18
2.99297e-18
1.92079e-18
1.2305e-18
7.86876e-19
5.023e-19
3.20078e-19
2.03605e-19
1.2929e-19
8.19581e-20
5.18646e-20
3.27649e-20
2.06637e-20
1.30099e-20
8.17729e-21
5.13122e-21
3.21448e-21
2.01041e-21
1.2553e-21
7.82527e-22
4.87021e-22
3.02619e-22
1.87737e-22
1.16282e-22
7.19091e-23
4.4399e-23
2.73704e-23
1.68467e-23
1.03532e-23
6.35284e-24
3.89221e-24
2.38102e-24
1.45437e-24
8.87017e-25
5.40182e-25
3.28475e-25
1.99445e-25
1.20922e-25
7.32072e-26
4.42558e-26
2.67153e-26
1.61037e-26
9.69327e-27
5.82638e-27
3.49714e-27
2.09613e-27
1.25463e-27
7.49915e-28
4.47619e-28
2.66813e-28
1.58823e-28
9.44128e-29
5.60481e-29
3.32283e-29
1.96732e-29
1.16323e-29
6.86885e-30
4.05071e-30
2.38567e-30
1.40322e-30
8.24292e-31
4.83591e-31
2.83348e-31
1.6581e-31
9.69064e-32
5.65651e-32
3.29763e-32
1.92006e-32
1.11659e-32
6.48537e-33
3.76224e-33
2.17986e-33
1.2615e-33
7.2916e-34
4.20958e-34
2.42738e-34
1.39805e-34
8.04256e-35
4.62124e-35
2.65227e-35
1.52045e-35
8.70615e-36
4.97946e-36
2.84475e-36
1.62335e-36
9.25315e-37
5.26842e-37
2.9963e-37
1.70219e-37
9.65942e-38
5.47541e-38
3.10032e-38
1.75358e-38
9.90769e-39
5.59181e-39
3.15259e-39
1.7755e-39
9.98875e-40
5.61364e-40
3.15154e-40
1.76745e-40
9.90193e-41
5.54172e-41
3.09829e-41
1.73044e-41
9.6549e-42
5.38145e-42
2.9965e-42
1.66684e-42
9.26273e-43
5.14226e-43
2.85194e-43
1.58015e-43
8.74649e-44
4.83667e-44
2.67201e-44
1.47473e-44
8.13149e-45
4.47933e-45
2.46516e-45
1.3554e-45
7.44525e-46
4.08589e-46
2.24022e-46
1.22713e-46
6.71571e-47
3.67194e-47
2.00586e-47
1.09475e-47
5.96944e-48
3.25209e-48
1.77012e-48
9.62626e-49
5.2303e-49
2.83931e-49
1.53999e-49
8.34531e-50
4.51846e-50
2.44434e-50
1.32117e-50
7.13486e-51
3.84982e-51
2.07552e-51
1.11801e-51
6.01727e-52
3.23586e-52
1.73867e-52
9.3344e-53
5.00721e-53
2.68379e-53
1.4373e-53
7.69113e-54
4.11228e-54
2.19697e-54
1.17278e-54
6.25552e-55
3.33399e-55
1.7755e-55
9.44789e-56
5.02352e-56
2.66896e-56
1.4169e-56
7.51622e-57
3.98405e-57
2.11017e-57
1.11681e-57
5.90623e-58
3.12113e-58
1.64811e-58
8.69635e-59
4.58524e-59
2.41582e-59
1.27188e-59
6.69124e-60
3.51762e-60
1.84788e-60
9.70028e-61
5.08838e-61
2.66724e-61
1.39712e-61
7.31296e-62
3.82512e-62
1.99935e-62
1.04431e-62
5.45081e-63
2.84309e-63
1.4819e-63
7.71872e-64
4.01765e-64
2.08978e-64
1.08626e-64
5.64247e-65
2.92894e-65
1.51935e-65
7.87617e-66
4.0802e-66
2.11231e-66
1.09281e-66
5.64997e-67
2.91918e-67
1.50727e-67
7.77747e-68
4.01054e-68
2.06675e-68
1.06437e-68
5.47792e-69
2.8175e-69
1.44822e-69
7.43928e-70
3.81903e-70
1.9593e-70
1.00457e-70
5.14737e-71
2.63586e-71
1.34893e-71
6.89908e-72
3.52636e-72
1.80134e-72
9.19604e-73
4.69184e-73
2.39234e-73
1.21911e-73
6.20873e-74
3.16012e-74
1.60748e-74
8.17208e-75
4.15205e-75
2.10833e-75
1.06994e-75
5.42664e-76
2.75073e-76
1.39353e-76
7.0556e-77
3.57029e-77
1.80561e-77
9.12639e-78
4.61029e-78
2.32762e-78
1.1745e-78
5.92313e-79
2.98543e-79
1.50391e-79
7.57177e-80
3.81007e-80
1.91616e-80
9.63146e-81
4.83856e-81
2.42944e-81
1.21916e-81
6.11479e-82
3.06528e-82
1.53577e-82
7.69047e-83
3.84901e-83
1.92538e-83
9.6262e-84
4.81024e-84
2.40243e-84
1.19925e-84
5.98336e-85
2.9837e-85
1.48711e-85
7.40813e-86
3.68853e-86
1.83559e-86
9.13019e-87
4.53905e-87
2.25544e-87
1.12016e-87
5.5605e-88
2.75887e-88
1.36815e-88
6.78145e-89
3.35968e-89
1.66364e-89
8.23401e-90
4.07335e-90
2.0141e-90
9.9541e-91
4.91715e-91
2.42783e-91
1.19816e-91
5.91025e-92
2.91401e-92
1.43605e-92
7.07371e-93
3.48273e-93
1.71392e-93
8.4306e-94
4.14502e-94
2.03702e-94
1.00062e-94
4.91324e-95
2.41193e-95
1.18459e-95
5.8379e-96
2.92182e-96
1.55545e-96
1.01535e-96
)
;

boundaryField
{
    sides
    {
        type            zeroGradient;
    }
    empty
    {
        type            empty;
    }
}


// ************************************************************************* //
