/*--------------------------------*- C++ -*----------------------------------*\
  =========                 |
  \\      /  F ield         | OpenFOAM: The Open Source CFD Toolbox
   \\    /   O peration     | Website:  https://openfoam.org
    \\  /    A nd           | Version:  7
     \\/     M anipulation  |
\*---------------------------------------------------------------------------*/
FoamFile
{
    version     2.0;
    format      ascii;
    class       volScalarField;
    location    "5";
    object      p;
}
// * * * * * * * * * * * * * * * * * * * * * * * * * * * * * * * * * * * * * //

dimensions      [0 2 -2 0 0 0 0];

internalField   nonuniform List<scalar> 
8800
(
0.5307
0.483269
0.445172
0.416886
0.396804
0.382798
0.373001
0.366213
0.361863
0.359938
0.360817
0.364279
0.37001
0.378329
0.390119
0.406935
0.430903
0.464134
0.506058
0.564669
0.360925
0.36897
0.377664
0.381873
0.381395
0.377425
0.371926
0.366578
0.362243
0.359401
0.35889
0.36108
0.364971
0.370066
0.375753
0.380813
0.383269
0.381581
0.37494
0.365333
0.339347
0.346085
0.351595
0.35549
0.357978
0.359074
0.358633
0.357233
0.355769
0.355077
0.355545
0.357035
0.358867
0.36009
0.359927
0.358163
0.355059
0.350384
0.344361
0.340698
0.340471
0.342817
0.346396
0.349494
0.351804
0.35285
0.353255
0.353067
0.352547
0.352218
0.352658
0.353537
0.354195
0.354278
0.353731
0.352165
0.349521
0.346084
0.342942
0.342008
0.341084
0.341539
0.342512
0.343666
0.344898
0.346194
0.3471
0.347558
0.347727
0.347866
0.348194
0.34853
0.348579
0.348153
0.347162
0.345968
0.344858
0.343776
0.343087
0.342904
0.33864
0.338873
0.33941
0.340074
0.340753
0.341387
0.341944
0.342399
0.342745
0.343056
0.343394
0.343628
0.343639
0.343415
0.34301
0.342474
0.341871
0.341287
0.340913
0.340826
0.335286
0.335382
0.335607
0.33595
0.33639
0.336908
0.337456
0.337985
0.338475
0.338944
0.339335
0.339541
0.339531
0.33934
0.339037
0.338706
0.338406
0.338166
0.338033
0.337994
0.331235
0.331293
0.331427
0.331631
0.331904
0.332252
0.332673
0.333157
0.333687
0.334252
0.334746
0.335052
0.33517
0.335155
0.335065
0.334944
0.334822
0.334717
0.334654
0.334631
0.32691
0.326947
0.327039
0.327188
0.327405
0.327704
0.328097
0.32859
0.329185
0.329868
0.3305
0.330935
0.331179
0.331286
0.331311
0.331292
0.331257
0.331219
0.331192
0.331179
0.322339
0.322362
0.322434
0.322558
0.322748
0.323028
0.323421
0.323953
0.324635
0.325466
0.326278
0.32688
0.327269
0.327504
0.327633
0.327698
0.327724
0.32773
0.327727
0.327718
0.317532
0.317554
0.31762
0.31774
0.317934
0.31823
0.318662
0.31927
0.320083
0.32111
0.322149
0.322949
0.323502
0.323863
0.324088
0.324222
0.324296
0.324332
0.324345
0.324339
0.312476
0.312495
0.312568
0.312701
0.312919
0.313259
0.313767
0.314494
0.315489
0.316772
0.318095
0.319143
0.319886
0.320383
0.320706
0.320906
0.321023
0.321086
0.321112
0.321108
0.307141
0.307161
0.307244
0.3074
0.30766
0.30807
0.308689
0.309586
0.310826
0.312442
0.314129
0.31548
0.316443
0.317102
0.317534
0.317806
0.317968
0.318058
0.318096
0.318093
0.301456
0.301479
0.301581
0.301772
0.302094
0.302604
0.303377
0.304501
0.306063
0.308108
0.310253
0.311978
0.313216
0.314066
0.314627
0.314982
0.315197
0.315317
0.315369
0.315365
0.295336
0.295364
0.295493
0.295734
0.29614
0.296784
0.297762
0.299187
0.301167
0.303763
0.306488
0.308682
0.31026
0.311344
0.312061
0.312517
0.312793
0.312947
0.313015
0.31301
0.288665
0.288701
0.288864
0.289173
0.289692
0.290515
0.291763
0.293579
0.296101
0.299402
0.30286
0.30564
0.30764
0.309015
0.309925
0.310504
0.310854
0.311051
0.311137
0.311132
0.281283
0.28133
0.281541
0.28194
0.282609
0.283668
0.285271
0.287598
0.290818
0.295018
0.299403
0.30292
0.305446
0.307181
0.308329
0.309059
0.309501
0.30975
0.309858
0.309852
0.272981
0.273042
0.273319
0.273839
0.274707
0.27608
0.278151
0.281144
0.285267
0.290613
0.296165
0.300603
0.303783
0.305966
0.30741
0.308328
0.308885
0.309197
0.309333
0.309324
0.263473
0.263556
0.263921
0.264606
0.265745
0.267537
0.270229
0.274096
0.279385
0.286191
0.29321
0.298793
0.302787
0.305526
0.307337
0.308489
0.309187
0.309578
0.309748
0.309737
0.252369
0.252483
0.252973
0.253886
0.255397
0.257761
0.261286
0.266307
0.273108
0.281767
0.290615
0.297617
0.302616
0.306045
0.308312
0.309755
0.31063
0.311121
0.311333
0.311319
0.239123
0.239285
0.239954
0.241192
0.243229
0.246388
0.25105
0.257611
0.266373
0.27737
0.288481
0.297222
0.303457
0.307739
0.310577
0.312387
0.313486
0.314103
0.314369
0.31435
0.222955
0.223193
0.224126
0.225847
0.228656
0.232955
0.239201
0.247834
0.259139
0.273061
0.286928
0.297775
0.305519
0.310859
0.314416
0.316696
0.318084
0.318863
0.319199
0.319176
0.202695
0.203053
0.204399
0.206891
0.210899
0.2169
0.225402
0.236843
0.251423
0.268942
0.286101
0.299452
0.309016
0.315669
0.320148
0.323047
0.324823
0.325817
0.326243
0.326217
0.17642
0.176967
0.179061
0.182928
0.188937
0.197581
0.209359
0.224604
0.243336
0.265174
0.286157
0.302403
0.314125
0.322402
0.328087
0.331844
0.334182
0.335494
0.336051
0.336018
0.140663
0.141626
0.145415
0.152024
0.16155
0.1744
0.190933
0.211236
0.235086
0.261939
0.287208
0.306694
0.320903
0.331163
0.338442
0.343455
0.346722
0.348633
0.349456
0.349405
0.0886203
0.0914988
0.0998581
0.112175
0.127903
0.147307
0.170462
0.19716
0.227008
0.259414
0.289273
0.312227
0.329181
0.341763
0.351087
0.357926
0.36282
0.366059
0.367691
0.367655
0.00831879
0.0225352
0.0420678
0.0646752
0.0898672
0.11807
0.149231
0.183144
0.219482
0.257788
0.292537
0.319295
0.339423
0.35487
0.366937
0.376511
0.384198
0.390276
0.394737
0.396043
-0.0767876
-0.0466947
-0.0152601
0.0178219
0.0527438
0.0896221
0.128566
0.169531
0.212359
0.256846
0.297092
0.328386
0.352382
0.371333
0.38669
0.399457
0.410248
0.419768
0.429054
0.430966
-0.136647
-0.104325
-0.0650068
-0.0237575
0.0191418
0.0636517
0.109668
0.157082
0.205797
0.255762
0.300664
0.335526
0.362285
0.383403
0.400409
0.414326
0.425874
0.435554
0.443519
0.445369
-0.181023
-0.146614
-0.103277
-0.0570477
-0.00865968
0.041475
0.0929942
0.145625
0.199192
0.253665
0.302319
0.339895
0.368506
0.390807
0.408493
0.422717
0.434334
0.443937
0.451777
0.453707
-0.213414
-0.178619
-0.132654
-0.0831424
-0.0310762
0.0230735
0.0787649
0.135497
0.19295
0.25107
0.302743
0.342433
0.37241
0.395536
0.413653
0.428043
0.439626
0.449071
0.456562
0.458487
-0.23838
-0.203386
-0.155957
-0.104119
-0.0492672
0.00793615
0.0667663
0.126584
0.186964
0.247865
0.301954
0.343438
0.374623
0.398486
0.416995
0.431535
0.443127
0.452478
0.459734
0.461665
-0.258746
-0.223459
-0.174824
-0.121305
-0.0643974
-0.00488467
0.0563339
0.118444
0.180953
0.243934
0.300032
0.343222
0.375667
0.400365
0.419365
0.434142
0.445804
0.4551
0.46218
0.464129
-0.27598
-0.240203
-0.1905
-0.135569
-0.0770292
-0.0157553
0.0472183
0.110922
0.174819
0.239202
0.296989
0.341951
0.37589
0.401669
0.421361
0.436525
0.44836
0.457672
0.464649
0.466628
-0.290673
-0.254433
-0.203768
-0.147658
-0.0877434
-0.0250743
0.039168
0.103852
0.168425
0.233519
0.29271
0.339648
0.375492
0.402757
0.423455
0.439228
0.45137
0.460793
0.467708
0.469699
-0.303622
-0.266779
-0.215143
-0.157967
-0.0969025
-0.033119
0.0320046
0.0971367
0.161674
0.226731
0.286993
0.336214
0.374557
0.403891
0.426052
0.442742
0.455384
0.465037
0.471971
0.473993
-0.314944
-0.277537
-0.225113
-0.16686
-0.104758
-0.0400529
0.025637
0.0907356
0.154522
0.218678
0.279549
0.331415
0.37305
0.405262
0.429519
0.447561
0.460979
0.471029
0.478044
0.480099
-0.325191
-0.287116
-0.233809
-0.17457
-0.111503
-0.0460136
0.0200156
0.084665
0.146986
0.209207
0.27002
0.324883
0.370821
0.406989
0.43421
0.454191
0.468744
0.479409
0.48661
0.488726
-0.334491
-0.295759
-0.24149
-0.181298
-0.117279
-0.0510848
0.0151282
0.0789806
0.139123
0.198233
0.257994
0.316125
0.367589
0.409117
0.440449
0.463166
0.479332
0.490717
0.498395
0.500584
-0.343017
-0.303583
-0.24837
-0.187197
-0.122228
-0.0553298
0.0109793
0.0737807
0.131079
0.185723
0.243034
0.304496
0.362917
0.411611
0.448567
0.475042
0.493463
0.506094
0.514
0.516456
-0.350976
-0.310816
-0.254597
-0.192396
-0.126463
-0.0588296
0.00757696
0.06917
0.123035
0.171741
0.224725
0.289224
0.356245
0.414377
0.458801
0.490308
0.511749
0.525944
0.53448
0.537021
-0.358586
-0.317473
-0.260281
-0.197019
-0.130071
-0.0616577
0.00491239
0.0652677
0.11523
0.156426
0.20269
0.269389
0.346858
0.417155
0.471338
0.509423
0.534873
0.551235
0.560672
0.563095
-0.365828
-0.323752
-0.265538
-0.201189
-0.133164
-0.0638723
0.00296265
0.0621525
0.107931
0.140061
0.176627
0.243953
0.333909
0.419448
0.486245
0.532837
0.563349
0.582388
0.592805
0.594885
-0.372777
-0.32975
-0.270461
-0.204985
-0.135841
-0.0655793
0.00169899
0.0598909
0.10139
0.123018
0.146369
0.211783
0.316036
0.42083
0.503429
0.560921
0.59785
0.619798
0.630847
0.632292
-0.379665
-0.335535
-0.275137
-0.208503
-0.138181
-0.0668595
0.00105405
0.0585384
0.0958517
0.105757
0.111801
0.171676
0.291848
0.420473
0.522572
0.593733
0.639089
0.66458
0.674571
0.673863
-0.386355
-0.341152
-0.279589
-0.211793
-0.140284
-0.06779
0.00095219
0.0580693
0.0915315
0.0888201
0.0730118
0.12274
0.259225
0.418104
0.54442
0.629365
0.684747
0.717299
0.724958
0.716745
-0.393119
-0.346668
-0.283849
-0.214914
-0.14222
-0.0684665
0.00132383
0.0584541
0.0885435
0.0725048
0.0291983
0.0605222
0.214477
0.41213
0.566771
0.665999
0.730957
0.77801
0.794052
0.768153
-0.39988
-0.352026
-0.287935
-0.217984
-0.144126
-0.0689884
0.00206105
0.0596774
0.0869776
0.0567108
-0.0219854
-0.0236325
0.146852
0.402912
0.592102
0.700106
0.758543
0.794856
0.803984
0.762175
-0.406396
-0.357001
-0.291683
-0.220988
-0.145937
-0.0693233
0.0030876
0.0617421
0.0871334
0.0426709
-0.0799238
-0.13739
0.0454046
0.381641
0.604912
0.706285
0.736936
0.736158
0.660141
0.603953
-0.411794
-0.361048
-0.294642
-0.223373
-0.147165
-0.0691831
0.00449067
0.0647158
0.0892678
0.0310957
-0.144865
-0.296251
-0.119979
0.352587
0.617595
0.689552
0.688788
0.614943
0.503281
0.432592
-0.480697
-0.361646
-0.29815
-0.226087
-0.149027
-0.0697218
0.00630664
0.0689101
0.0944732
0.0240356
-0.217324
-0.537061
-0.417522
0.205622
0.593431
0.617088
0.528888
0.417585
0.292457
0.223315
-0.382049
-0.36356
-0.303241
-0.2303
-0.151741
-0.0699692
0.00852076
0.0744419
0.102209
0.0219218
-0.320351
-1.07787
-1.19936
-0.200137
0.245151
0.142847
0.0247721
-0.0561169
-0.156554
-0.0600252
-0.414335
-0.372279
-0.308571
-0.235228
-0.155167
-0.071658
0.00990904
0.0794553
0.112466
0.0348032
-0.372744
-1.4935
-1.91653
-0.776319
-0.249598
-0.299281
-0.386869
-0.459549
-0.577592
-0.427619
-0.432183
-0.384158
-0.31698
-0.241862
-0.159922
-0.0742879
0.0103305
0.0839619
0.12347
0.0515983
-0.41351
-1.82483
-2.49836
-1.32829
-0.82942
-0.772721
-0.846818
-0.924223
-1.08679
-0.891084
-0.44965
-0.396522
-0.326298
-0.248652
-0.164643
-0.0766892
0.0108086
0.0888932
0.135838
0.076021
-0.410648
-1.95313
-2.70416
-1.66343
-1.24787
-1.19767
-1.31915
-1.4494
-1.68591
-1.55431
-0.465391
-0.409159
-0.336189
-0.256069
-0.169822
-0.0794828
0.0110602
0.0939028
0.149288
0.108242
-0.33921
-1.79496
-2.48971
-1.74114
-1.47208
-1.50783
-1.70667
-1.95475
-2.30128
-2.61946
-0.480242
-0.42226
-0.347071
-0.264632
-0.176041
-0.083224
0.0105702
0.0981331
0.162672
0.144705
-0.220599
-1.4013
-1.97985
-1.57646
-1.55228
-1.69411
-1.92043
-2.17413
-2.30543
-2.65755
-0.495547
-0.43625
-0.35924
-0.274588
-0.183698
-0.0882444
0.00880641
0.101303
0.175519
0.183177
-0.0744653
-0.889955
-1.34762
-1.29497
-1.49105
-1.8085
-2.03618
-2.06942
-2.12125
-2.2061
-0.511862
-0.451517
-0.372858
-0.286143
-0.192977
-0.0948698
0.00541387
0.102969
0.186464
0.221549
0.0766389
-0.387093
-0.75005
-0.963234
-1.38731
-1.91398
-2.31796
-2.07827
-2.0571
-2.1813
-0.529872
-0.46848
-0.388185
-0.299486
-0.204035
-0.103371
0.000197666
0.102385
0.194966
0.254768
0.207499
-9.74108e-05
-0.271471
-0.636334
-1.23227
-2.04424
-3.01621
-3.18652
-2.85873
-2.75849
-0.550286
-0.487596
-0.405586
-0.314846
-0.217176
-0.113912
-0.00730343
0.0991795
0.199753
0.281151
0.304271
0.241162
0.0404733
-0.34138
-0.990224
-2.02421
-3.37053
-3.85838
-3.45926
-3.16374
-0.573463
-0.509265
-0.425359
-0.33251
-0.232544
-0.126836
-0.0173082
0.0933829
0.201127
0.298974
0.365637
0.37317
0.245642
-0.0497971
-0.548298
-1.28296
-2.03143
-2.31958
-2.17741
-2.0158
-0.599432
-0.533721
-0.447709
-0.352626
-0.250321
-0.142054
-0.0295982
0.0846202
0.198374
0.308999
0.401507
0.447409
0.394532
0.23784
-0.000484687
-0.283091
-0.481607
-0.557133
-0.517032
-0.48999
-0.628498
-0.561085
-0.472654
-0.375123
-0.270351
-0.159655
-0.0445354
0.0733789
0.19271
0.313187
0.42184
0.494227
0.504465
0.466611
0.405336
0.347776
0.341396
0.377061
0.406602
0.41389
-0.660292
-0.591037
-0.499976
-0.399945
-0.292628
-0.179234
-0.0611952
0.060205
0.184211
0.313004
0.434084
0.526872
0.581374
0.611625
0.637498
0.673744
0.72328
0.773721
0.804525
0.81115
-0.694144
-0.622897
-0.529219
-0.426396
-0.316327
-0.200221
-0.0793327
0.0454328
0.173956
0.310062
0.441033
0.549016
0.631207
0.69726
0.757972
0.818471
0.877069
0.92617
0.955181
0.961439
-0.728693
-0.65591
-0.559522
-0.453815
-0.340908
-0.221938
-0.0980819
0.029921
0.162919
0.305037
0.444066
0.562083
0.658319
0.739085
0.809442
0.871764
0.925629
0.968645
0.995814
1.00228
-0.763168
-0.688563
-0.58949
-0.480874
-0.365049
-0.243292
-0.116621
0.0146063
0.151871
0.298945
0.443916
0.56729
0.669195
0.753869
0.824459
0.883119
0.931184
0.969369
0.99513
1.00175
-0.794993
-0.718776
-0.617428
-0.505917
-0.387396
-0.263095
-0.133761
0.000493344
0.141218
0.29264
0.440864
0.566471
0.669354
0.753462
0.821972
0.877518
0.922271
0.9579
0.981003
0.988123
-0.820642
-0.744265
-0.640725
-0.526827
-0.406144
-0.279732
-0.148244
-0.0117307
0.131435
0.285143
0.434558
0.559985
0.661599
0.743756
0.809989
0.863286
0.906119
0.940267
0.962492
0.969609
-0.836806
-0.761145
-0.65654
-0.541089
-0.418957
-0.291438
-0.158946
-0.0214946
0.122444
0.276448
0.424611
0.548082
0.64712
0.726808
0.790854
0.842324
0.883716
0.916703
0.938299
0.945551
-0.839347
-0.764805
-0.661198
-0.545503
-0.423495
-0.296322
-0.164624
-0.0282779
0.114244
0.266004
0.410722
0.530556
0.626067
0.702888
0.764736
0.81458
0.854834
0.886722
0.908066
0.915579
-0.822315
-0.751541
-0.65013
-0.536102
-0.416674
-0.292649
-0.164343
-0.0316656
0.1067
0.25339
0.392342
0.506607
0.597577
0.670926
0.730315
0.778452
0.817597
0.848512
0.86977
0.877517
-0.777527
-0.712822
-0.617272
-0.508884
-0.39551
-0.278024
-0.156649
-0.0310502
0.0999135
0.238341
0.368679
0.475126
0.559948
0.628679
0.684843
0.730778
0.768349
0.798635
0.82041
0.82814
-0.698978
-0.64357
-0.556958
-0.459518
-0.357116
-0.250811
-0.14048
-0.0257723
0.0941731
0.22083
0.339346
0.435307
0.511464
0.573232
0.624169
0.666353
0.700924
0.728996
0.750671
0.758514
-0.580021
-0.539066
-0.466557
-0.385354
-0.299947
-0.209891
-0.115073
-0.0152604
0.0899978
0.201374
0.304889
0.387443
0.451774
0.502874
0.544273
0.57859
0.606787
0.628676
0.644006
0.649378
-0.399982
-0.38024
-0.337402
-0.284222
-0.223954
-0.156338
-0.0816424
0.000219316
0.0891599
0.185011
0.274653
0.345683
0.400071
0.442145
0.474609
0.499258
0.518334
0.534114
0.546274
0.549828
-0.223206
-0.217685
-0.200213
-0.174463
-0.139944
-0.0962546
-0.042948
0.0198575
0.0918185
0.172148
0.248412
0.308574
0.353672
0.387129
0.411781
0.429932
0.442794
0.450852
0.455203
0.456265
-0.101973
-0.100607
-0.0949382
-0.0835906
-0.0658237
-0.039798
-0.0042259
0.0415739
0.0974859
0.1626
0.225811
0.275693
0.312468
0.339071
0.357674
0.369885
0.377387
0.381825
0.384011
0.38433
-0.0284911
-0.0291104
-0.0282358
-0.0234035
-0.0132555
0.00333246
0.0276447
0.0608902
0.103656
0.155441
0.206769
0.247311
0.276724
0.297278
0.311096
0.320076
0.325535
0.328345
0.329316
0.3294
0.0133226
0.0130057
0.0133849
0.0159881
0.022086
0.0330832
0.0503255
0.07494
0.10768
0.148438
0.18952
0.222071
0.245553
0.261878
0.272761
0.279579
0.283496
0.285484
0.286254
0.286361
0.0400694
0.0400506
0.0405692
0.0425772
0.0469195
0.0546368
0.0669884
0.0852333
0.11027
0.1422
0.174857
0.200821
0.219452
0.232221
0.240573
0.245773
0.2488
0.250363
0.25099
0.251086
0.0577625
0.0578298
0.0583304
0.0598853
0.0631277
0.0688727
0.0780962
0.0918504
0.111031
0.135922
0.161685
0.182238
0.196951
0.207006
0.213581
0.217663
0.220023
0.221242
0.221737
0.221812
0.0692671
0.0693748
0.0698601
0.0711238
0.0736196
0.0779634
0.0849381
0.0954208
0.110194
0.129589
0.149848
0.166067
0.177672
0.185584
0.190735
0.193927
0.195777
0.196738
0.197131
0.19719
0.0764126
0.0765172
0.076935
0.0779475
0.0798938
0.0832387
0.0885824
0.0966271
0.108037
0.123141
0.139025
0.15178
0.160909
0.167125
0.171171
0.173676
0.175126
0.175878
0.176185
0.17623
0.0802705
0.0803611
0.080705
0.0815072
0.0830235
0.0856095
0.0897311
0.0959405
0.104779
0.116544
0.128979
0.13899
0.146158
0.151038
0.154211
0.156175
0.15731
0.157896
0.158138
0.158171
0.0816174
0.0816918
0.0819673
0.0825978
0.0837802
0.0857869
0.0889777
0.093787
0.100647
0.109812
0.119536
0.12738
0.133002
0.136829
0.139315
0.140852
0.141738
0.142196
0.14238
0.142405
0.0810266
0.0810864
0.0813044
0.0817985
0.0827195
0.084279
0.0867557
0.0904875
0.0958192
0.102961
0.110559
0.116698
0.1211
0.124095
0.126041
0.127243
0.127936
0.128291
0.128432
0.12845
0.0789365
0.0789838
0.0791548
0.0795404
0.0802577
0.08147
0.083394
0.0862948
0.0904423
0.0960073
0.10194
0.106739
0.110181
0.112524
0.114046
0.114984
0.115524
0.115801
0.115909
0.115923
0.0756835
0.0757208
0.0758548
0.0761555
0.0767138
0.0776567
0.0791529
0.0814078
0.0846343
0.0889699
0.0935981
0.0973465
0.100037
0.101867
0.103054
0.103787
0.104207
0.104421
0.104504
0.104515
0.0715282
0.0715572
0.0716613
0.0718952
0.0723295
0.0730628
0.074226
0.0759797
0.0784904
0.0818668
0.0854752
0.0883989
0.0904972
0.0919253
0.0928516
0.093421
0.0937474
0.0939136
0.0939783
0.0939859
0.0666714
0.0666939
0.0667749
0.0669567
0.0672943
0.0678639
0.0687671
0.0701294
0.0720813
0.0747082
0.0775177
0.0797955
0.08143
0.0825415
0.0832621
0.0837062
0.0839607
0.0840895
0.084139
0.0841446
0.0612698
0.0612871
0.0613498
0.0614907
0.061752
0.0621935
0.0628947
0.0639527
0.0654681
0.0675081
0.0696919
0.0714623
0.0727325
0.0735969
0.0741573
0.0745013
0.0746976
0.0747966
0.0748344
0.0748386
0.0554457
0.0554589
0.0555071
0.0556158
0.0558182
0.05616
0.056702
0.0575198
0.0586929
0.0602737
0.061966
0.063339
0.0643251
0.0649956
0.0654286
0.0656938
0.0658452
0.0659213
0.0659502
0.0659531
0.0492939
0.0493041
0.0493411
0.0494245
0.0495795
0.0498419
0.0502595
0.05089
0.0517943
0.0530134
0.0543188
0.055378
0.0561381
0.0566537
0.0569876
0.0571927
0.0573091
0.0573672
0.057389
0.0573914
0.042891
0.0428985
0.0429261
0.042989
0.0431068
0.0433071
0.0436264
0.044109
0.0448012
0.0457342
0.0467334
0.0475431
0.0481232
0.0485175
0.0487725
0.0489289
0.049018
0.0490625
0.0490791
0.0490808
0.0362944
0.0362999
0.0363198
0.0363668
0.0364557
0.0366067
0.0368469
0.0372104
0.0377323
0.0384367
0.0391917
0.0398045
0.0402443
0.0405432
0.040736
0.0408529
0.0409186
0.040951
0.0409626
0.0409635
0.0295507
0.0295546
0.029569
0.029603
0.029668
0.0297794
0.0299571
0.0302259
0.0306118
0.0311327
0.0316911
0.0321436
0.0324674
0.0326857
0.0328256
0.0329116
0.0329601
0.0329837
0.0329922
0.0329929
0.0226971
0.0226997
0.022709
0.0227327
0.0227788
0.0228575
0.0229828
0.0231728
0.0234468
0.0238161
0.024211
0.0245305
0.024759
0.024914
0.0250139
0.0250738
0.0251072
0.0251232
0.0251282
0.0251285
0.0157651
0.0157664
0.0157731
0.0157887
0.0158182
0.0158684
0.0159495
0.016073
0.0162508
0.0164906
0.0167487
0.0169584
0.0171092
0.0172113
0.017276
0.0173142
0.0173344
0.0173428
0.017345
0.0173451
0.00878093
0.00878172
0.00878498
0.00879281
0.00880802
0.0088353
0.00887922
0.00894539
0.00904019
0.00916818
0.00930516
0.00941632
0.00949384
0.009545
0.00957847
0.009599
0.00961011
0.00961516
0.00961674
0.00961696
0.00175745
0.00175603
0.00175419
0.00175425
0.00175663
0.00176098
0.00176766
0.00177837
0.00179443
0.00181652
0.00184715
0.00187207
0.00189134
0.0019057
0.00191511
0.00192046
0.00192341
0.00192473
0.00192423
0.00192243
-1.09347
-0.750761
-0.381156
-0.0814446
0.157717
0.351481
0.514485
0.655067
0.733541
0.700989
-0.455813
-0.239076
-0.020546
0.166526
0.32448
0.457384
0.566215
0.646246
0.684922
0.684533
-0.058314
0.075651
0.212451
0.334365
0.438963
0.526206
0.594411
0.641699
0.668958
0.675222
0.192934
0.280252
0.370495
0.449848
0.518277
0.575149
0.619721
0.651172
0.671694
0.67914
0.363354
0.419631
0.478173
0.532001
0.579835
0.620838
0.653265
0.676142
0.690313
0.698226
0.484896
0.523025
0.565866
0.607253
0.643816
0.674115
0.697451
0.713704
0.725819
0.735992
0.576032
0.606744
0.642102
0.674934
0.704131
0.729699
0.751428
0.768508
0.780072
0.792523
0.650505
0.680815
0.715699
0.748359
0.779162
0.806389
0.828563
0.844824
0.85495
0.869153
0.735399
0.771854
0.811212
0.847238
0.878137
0.903667
0.924451
0.940317
0.950229
0.966135
0.848681
0.889401
0.930599
0.96532
0.995131
1.02002
1.03996
1.05474
1.06497
1.08218
0.994222
1.03383
1.07094
1.10265
1.12847
1.15039
1.16909
1.1843
1.19651
1.21427
1.16954
1.20217
1.22875
1.25123
1.27144
1.29037
1.30815
1.32446
1.3396
1.35759
1.35877
1.37617
1.3915
1.40789
1.42376
1.43822
1.45146
1.4655
1.48323
1.50328
1.54104
1.5505
1.56202
1.57287
1.58236
1.59204
1.60276
1.6141
1.62544
1.64082
1.74773
1.75153
1.73677
1.72225
1.71601
1.72167
1.74028
1.77058
1.80262
1.82922
2.05475
1.91997
1.84321
1.80039
1.78289
1.78704
1.81422
1.87066
1.97353
2.19798
0.420984
0.419185
0.415282
0.407522
0.396146
0.384908
0.375532
0.368366
0.363251
0.360186
0.359647
0.361909
0.366259
0.372567
0.380959
0.391468
0.403133
0.413271
0.41855
0.421135
0.344186
0.350226
0.357683
0.363305
0.366759
0.367453
0.365741
0.362773
0.359808
0.357782
0.357453
0.359081
0.361951
0.365243
0.367874
0.36856
0.366529
0.361917
0.355517
0.348006
0.339014
0.340985
0.345737
0.350079
0.352832
0.354317
0.355078
0.354899
0.354116
0.353345
0.353319
0.354172
0.355347
0.356113
0.356009
0.354968
0.352985
0.349504
0.344699
0.341051
0.341514
0.341912
0.343522
0.345699
0.347727
0.34949
0.350521
0.350953
0.350917
0.350729
0.350847
0.351404
0.351901
0.351967
0.351407
0.350137
0.348287
0.346232
0.344235
0.343223
0.339936
0.340044
0.340508
0.34125
0.342018
0.342802
0.343558
0.344159
0.344553
0.34481
0.345095
0.345414
0.345539
0.345354
0.344878
0.34423
0.343535
0.342829
0.342212
0.341961
0.337108
0.337167
0.337427
0.337882
0.338442
0.339058
0.339665
0.340208
0.340666
0.341071
0.341459
0.341753
0.341852
0.34173
0.341412
0.340967
0.340482
0.340028
0.339685
0.339548
0.333299
0.333326
0.333436
0.333642
0.333927
0.334293
0.334734
0.335225
0.335736
0.33625
0.33674
0.337097
0.337242
0.33721
0.337064
0.336872
0.33668
0.336512
0.336391
0.336342
0.329106
0.329124
0.329201
0.329344
0.329552
0.329832
0.330194
0.330638
0.331161
0.331755
0.332364
0.332836
0.333103
0.33321
0.333212
0.333157
0.333082
0.333007
0.332948
0.33292
0.324653
0.324661
0.324716
0.324821
0.324984
0.325223
0.325557
0.326004
0.326576
0.327272
0.328031
0.32866
0.32907
0.329305
0.329424
0.329473
0.329483
0.329474
0.329459
0.329449
0.319967
0.319973
0.320016
0.320108
0.320259
0.320492
0.320835
0.321317
0.321969
0.322804
0.323755
0.324585
0.325158
0.325535
0.325766
0.325901
0.325973
0.326008
0.32602
0.326019
0.315035
0.315037
0.315084
0.31518
0.31534
0.315595
0.315979
0.316538
0.317314
0.318337
0.319536
0.32061
0.32138
0.321909
0.322253
0.322467
0.322595
0.322666
0.322699
0.322706
0.309848
0.309849
0.309898
0.310006
0.310191
0.310489
0.310947
0.311622
0.312573
0.313848
0.315364
0.316744
0.317759
0.318457
0.318924
0.319222
0.319404
0.319509
0.319562
0.319575
0.304347
0.304346
0.304405
0.304533
0.304758
0.305123
0.305687
0.306523
0.307712
0.309316
0.311238
0.313
0.314301
0.315212
0.315823
0.316217
0.316461
0.316603
0.316676
0.316695
0.298457
0.298455
0.298528
0.298688
0.298969
0.299426
0.300135
0.301188
0.302689
0.304719
0.307159
0.309403
0.311063
0.312228
0.313013
0.313522
0.313838
0.314022
0.314118
0.314144
0.292078
0.292076
0.292168
0.292372
0.292728
0.293309
0.29421
0.29555
0.297457
0.300038
0.303136
0.305985
0.308093
0.309574
0.310572
0.31122
0.311623
0.311859
0.311981
0.312016
0.285075
0.285072
0.28519
0.285452
0.28591
0.286655
0.28781
0.289523
0.291959
0.295246
0.299182
0.302791
0.305459
0.307332
0.308595
0.309415
0.309925
0.310224
0.310379
0.310422
0.277263
0.27726
0.277414
0.277753
0.278347
0.279311
0.2808
0.283004
0.286125
0.290318
0.295315
0.299882
0.303248
0.305609
0.3072
0.308232
0.308874
0.309252
0.309447
0.309501
0.2684
0.268396
0.2686
0.269045
0.269821
0.271076
0.273009
0.275858
0.27987
0.285226
0.291568
0.297332
0.301569
0.304536
0.306534
0.30783
0.308637
0.30911
0.309355
0.309422
0.258153
0.25815
0.258423
0.259014
0.26004
0.261691
0.264219
0.267922
0.273097
0.279945
0.287981
0.295237
0.300554
0.304272
0.306775
0.3084
0.30941
0.310004
0.31031
0.310394
0.246063
0.246062
0.246435
0.247235
0.248609
0.250807
0.254147
0.258995
0.265695
0.274454
0.284613
0.293713
0.300358
0.305004
0.308135
0.310169
0.311436
0.31218
0.312565
0.31267
0.231466
0.231471
0.231999
0.233112
0.234991
0.237965
0.242437
0.248841
0.257555
0.268754
0.281545
0.292896
0.301164
0.306952
0.310863
0.313412
0.315006
0.315946
0.316433
0.316565
0.213372
0.213394
0.214181
0.215786
0.218429
0.222548
0.228644
0.237201
0.24858
0.262871
0.27888
0.292936
0.303159
0.310348
0.315239
0.31845
0.320471
0.321675
0.322306
0.322478
0.190239
0.190317
0.191581
0.194004
0.197863
0.203755
0.212262
0.223837
0.238735
0.256884
0.276742
0.293975
0.306516
0.315412
0.321544
0.32563
0.328242
0.329831
0.330687
0.330927
0.15954
0.159801
0.162018
0.165911
0.171884
0.180709
0.192891
0.208689
0.228142
0.250976
0.275291
0.296137
0.311349
0.322294
0.33001
0.335296
0.33878
0.340974
0.342214
0.342583
0.116533
0.117307
0.121828
0.128847
0.138962
0.152841
0.170567
0.192087
0.217205
0.24548
0.274735
0.299515
0.317681
0.330998
0.340691
0.347631
0.352469
0.355713
0.357696
0.358285
0.0526345
0.0552101
0.0659082
0.0802218
0.0984539
0.120474
0.145965
0.174735
0.206482
0.240739
0.275184
0.30402
0.325278
0.341185
0.353192
0.362277
0.369127
0.374285
0.377858
0.37852
-0.0255634
-0.0195367
0.000537281
0.0268509
0.0556176
0.0869157
0.120763
0.157104
0.195729
0.23635
0.276616
0.310372
0.335693
0.355231
0.370635
0.38299
0.393059
0.401393
0.40676
0.408854
-0.104053
-0.0898924
-0.0591242
-0.0228443
0.0154526
0.0555433
0.0973541
0.140849
0.185975
0.232618
0.278451
0.316875
0.345876
0.36851
0.386638
0.401415
0.413561
0.423604
0.430948
0.434815
-0.156636
-0.141583
-0.10626
-0.0636982
-0.0186798
0.0281231
0.0764348
0.126047
0.176799
0.228597
0.279031
0.321092
0.352729
0.377258
0.396666
0.412211
0.424731
0.434852
0.442204
0.445955
-0.195365
-0.180156
-0.141436
-0.0951191
-0.0459176
0.00549802
0.0585908
0.112924
0.168175
0.224201
0.278428
0.323412
0.356994
0.382759
0.402897
0.418834
0.43152
0.441647
0.449058
0.452873
-0.223982
-0.208982
-0.168655
-0.119868
-0.0676467
-0.0128895
0.0437726
0.101729
0.160473
0.219782
0.276975
0.324283
0.359428
0.386177
0.406875
0.423079
0.435857
0.445955
0.453422
0.457273
-0.246811
-0.231778
-0.190428
-0.139884
-0.0854599
-0.0281412
0.0312531
0.0919237
0.153259
0.215014
0.274538
0.323854
0.360457
0.388184
0.409469
0.425983
0.438892
0.449012
0.456552
0.460422
-0.265728
-0.250671
-0.208275
-0.156306
-0.100195
-0.0409524
0.0204956
0.08318
0.146359
0.20982
0.271128
0.322278
0.360433
0.389307
0.411338
0.428288
0.441423
0.451625
0.459256
0.463147
-0.281864
-0.266609
-0.22329
-0.170084
-0.112569
-0.0517785
0.011219
0.0753102
0.139626
0.204063
0.266634
0.31957
0.359539
0.389891
0.412965
0.43057
0.444077
0.454471
0.462186
0.466155
-0.295798
-0.280397
-0.236094
-0.181825
-0.123089
-0.061041
0.00313278
0.0681281
0.132945
0.197623
0.260894
0.315616
0.357818
0.390164
0.41472
0.433298
0.44738
0.458076
0.46594
0.469976
-0.308087
-0.292403
-0.247199
-0.191937
-0.132097
-0.0689838
-0.0039222
0.0615532
0.126258
0.190383
0.253684
0.310195
0.355193
0.39026
0.41692
0.436917
0.451864
0.46304
0.471156
0.475321
-0.319011
-0.303035
-0.256967
-0.200703
-0.139868
-0.0757952
-0.0100553
0.055547
0.119563
0.182276
0.244759
0.302963
0.351469
0.390209
0.419827
0.441866
0.458081
0.469963
0.478438
0.482732
-0.328953
-0.312553
-0.265656
-0.208379
-0.146576
-0.0816289
-0.01534
0.0501222
0.112918
0.173291
0.233852
0.293463
0.346294
0.389947
0.423657
0.448585
0.466605
0.479505
0.488509
0.492998
-0.338006
-0.321224
-0.273368
-0.215158
-0.152377
-0.0865812
-0.0198225
0.0453192
0.106428
0.163477
0.220738
0.281153
0.339174
0.389295
0.428598
0.457509
0.478047
0.492395
0.502082
0.506807
-0.346435
-0.329255
-0.280405
-0.221192
-0.157406
-0.090749
-0.0235353
0.0411788
0.100241
0.152966
0.205214
0.265397
0.329466
0.387959
0.43476
0.469058
0.49302
0.509349
0.520003
0.524977
-0.354259
-0.336642
-0.286838
-0.226611
-0.161791
-0.094221
-0.0265039
0.0377566
0.0945154
0.141985
0.187195
0.245489
0.316354
0.385535
0.44219
0.483698
0.512174
0.531046
0.542942
0.548327
-0.361757
-0.343613
-0.292811
-0.231526
-0.16564
-0.0970991
-0.0287851
0.0351085
0.0894304
0.130794
0.166687
0.220678
0.298871
0.381508
0.450838
0.501581
0.53598
0.558117
0.571576
0.577419
-0.368848
-0.350265
-0.298432
-0.236051
-0.169046
-0.0994633
-0.0304525
0.0332419
0.0851682
0.119739
0.143815
0.190197
0.275789
0.375002
0.460343
0.522987
0.565117
0.591406
0.606744
0.612899
-0.375808
-0.356693
-0.303779
-0.240271
-0.172117
-0.10142
-0.0315615
0.0321262
0.0818666
0.109204
0.118816
0.153226
0.245864
0.3649
0.470548
0.548033
0.59954
0.631188
0.647964
0.653564
-0.382591
-0.362909
-0.308925
-0.24425
-0.174913
-0.103053
-0.0321989
0.0317477
0.0796138
0.099593
0.0920365
0.108889
0.206904
0.35018
0.481325
0.576629
0.639364
0.678115
0.696055
0.69739
-0.389378
-0.369093
-0.313875
-0.24802
-0.177521
-0.104446
-0.0324603
0.0320308
0.0784666
0.0912497
0.0640238
0.0571619
0.156318
0.32963
0.491269
0.605789
0.680528
0.729906
0.755777
0.745971
-0.396164
-0.375269
-0.318656
-0.251635
-0.180031
-0.105689
-0.0324032
0.032929
0.0784577
0.0841839
0.033908
-0.00717795
0.086791
0.297645
0.50228
0.638892
0.719817
0.776708
0.814427
0.819294
-0.402891
-0.381318
-0.323148
-0.255124
-0.182531
-0.106882
-0.0321326
0.0343548
0.0796245
0.0788908
0.00251058
-0.0884367
-0.0118637
0.247351
0.511837
0.661279
0.732189
0.767418
0.766791
0.696005
-0.409105
-0.386863
-0.327157
-0.258682
-0.185142
-0.108253
-0.0318328
0.0362283