/*--------------------------------*- C++ -*----------------------------------*\
  =========                 |
  \\      /  F ield         | OpenFOAM: The Open Source CFD Toolbox
   \\    /   O peration     | Website:  https://openfoam.org
    \\  /    A nd           | Version:  7
     \\/     M anipulation  |
\*---------------------------------------------------------------------------*/
FoamFile
{
    version     2.0;
    format      ascii;
    class       volScalarField;
    location    "48";
    object      p;
}
// * * * * * * * * * * * * * * * * * * * * * * * * * * * * * * * * * * * * * //

dimensions      [0 2 -2 0 0 0 0];

internalField   nonuniform List<scalar> 
8800
(
0.895413
0.847625
0.808933
0.779935
0.759068
0.744231
0.733628
0.726139
0.721306
0.719233
0.720483
0.724658
0.731291
0.740598
0.753371
0.7711
0.795873
0.829812
0.872359
0.931061
0.726668
0.734346
0.741817
0.745123
0.743616
0.738534
0.732042
0.725956
0.72122
0.718362
0.718065
0.720552
0.725026
0.73096
0.73772
0.743994
0.74763
0.746892
0.741468
0.732775
0.705079
0.711238
0.715363
0.718303
0.720347
0.720945
0.71983
0.717714
0.715683
0.714757
0.715699
0.718062
0.720846
0.723016
0.723614
0.722408
0.72006
0.716663
0.712103
0.708342
0.699287
0.701937
0.704685
0.707083
0.708711
0.709864
0.710595
0.710699
0.710387
0.710316
0.711045
0.712194
0.713016
0.713066
0.712445
0.711345
0.709521
0.706945
0.704539
0.703035
0.69393
0.695354
0.697129
0.699154
0.700931
0.702262
0.703238
0.704019
0.704614
0.705153
0.705776
0.706246
0.706323
0.706017
0.705305
0.704044
0.702339
0.700483
0.699172
0.69834
0.688885
0.689805
0.691041
0.6926
0.694222
0.695735
0.697004
0.698051
0.698991
0.699855
0.70051
0.700805
0.700735
0.700271
0.699371
0.698155
0.696814
0.695545
0.694718
0.694167
0.684018
0.684687
0.685644
0.686937
0.688334
0.689777
0.691198
0.692497
0.693666
0.694735
0.695514
0.69584
0.695719
0.695179
0.694346
0.693377
0.692347
0.691411
0.690821
0.690416
0.679283
0.679799
0.680577
0.681696
0.68296
0.684316
0.68574
0.687184
0.688575
0.689865
0.690817
0.691234
0.69116
0.690733
0.690095
0.689342
0.688544
0.687845
0.687405
0.687089
0.674612
0.675023
0.675672
0.676666
0.677856
0.679162
0.68058
0.682101
0.683678
0.685217
0.686394
0.686981
0.687082
0.686858
0.686429
0.685876
0.685275
0.684762
0.684432
0.684176
0.669921
0.670255
0.670816
0.671729
0.672867
0.674155
0.675602
0.677213
0.678963
0.680772
0.682241
0.683098
0.683453
0.683462
0.683246
0.682901
0.682482
0.682123
0.681876
0.681662
0.665125
0.665402
0.665901
0.666767
0.667885
0.669192
0.670705
0.672443
0.674404
0.676523
0.678363
0.679571
0.680232
0.680506
0.68052
0.680382
0.680142
0.679915
0.679735
0.679552
0.66014
0.660372
0.660831
0.661681
0.662818
0.664188
0.665809
0.667728
0.669963
0.672468
0.674765
0.676392
0.677409
0.677983
0.678251
0.678324
0.678259
0.678152
0.678027
0.677865
0.65488
0.655077
0.655516
0.656378
0.657576
0.659053
0.660837
0.663003
0.665593
0.668586
0.671437
0.673562
0.674991
0.675905
0.676455
0.676742
0.676863
0.676869
0.67679
0.676644
0.649251
0.649419
0.649855
0.650759
0.652059
0.653693
0.655707
0.6582
0.661244
0.66485
0.668372
0.671089
0.673001
0.674303
0.67517
0.675721
0.676023
0.676131
0.67609
0.675954
0.643142
0.643286
0.643734
0.644709
0.646156
0.648007
0.650324
0.653234
0.656845
0.661202
0.665544
0.668976
0.671464
0.673224
0.674449
0.67528
0.675786
0.676005
0.676002
0.675872
0.636426
0.636544
0.637018
0.638096
0.639742
0.641879
0.644587
0.648028
0.652352
0.657631
0.662968
0.667258
0.670431
0.672728
0.674373
0.675522
0.676258
0.67659
0.676621
0.676494
0.628939
0.629032
0.629548
0.630762
0.632663
0.635164
0.638372
0.642487
0.647701
0.654115
0.660659
0.665977
0.669959
0.67289
0.675036
0.676556
0.677546
0.677997
0.678062
0.677935
0.620453
0.62055
0.621117
0.622486
0.624717
0.62769
0.631539
0.636509
0.642836
0.650652
0.65865
0.665187
0.670123
0.673797
0.676545
0.678499
0.679773
0.680352
0.680449
0.680319
0.610687
0.610763
0.611417
0.613006
0.61566
0.619239
0.623896
0.629935
0.637643
0.647173
0.656929
0.664924
0.670997
0.675558
0.679002
0.681471
0.683075
0.683794
0.683923
0.683786
0.599274
0.599332
0.600083
0.601982
0.605182
0.609539
0.615235
0.622638
0.632074
0.6437
0.655568
0.665287
0.672694
0.678295
0.682539
0.685619
0.687594
0.688463
0.688623
0.688475
0.585683
0.585728
0.586622
0.588926
0.592846
0.598227
0.605281
0.614443
0.626068
0.640272
0.654649
0.666372
0.675312
0.682125
0.687314
0.691087
0.693471
0.694496
0.694681
0.694518
0.569153
0.569186
0.570294
0.573175
0.578086
0.584859
0.593727
0.60518
0.619554
0.636885
0.65422
0.66827
0.678974
0.687163
0.693443
0.698003
0.70083
0.702008
0.70221
0.702029
0.548587
0.548616
0.550057
0.553792
0.560124
0.568851
0.580202
0.594683
0.612535
0.633645
0.654414
0.671087
0.683783
0.693521
0.701002
0.706462
0.70975
0.711065
0.711271
0.711066
0.522228
0.522276
0.524296
0.529427
0.537963
0.549579
0.564449
0.582977
0.605204
0.630798
0.655451
0.675003
0.689855
0.701309
0.710086
0.716499
0.720232
0.721645
0.72183
0.7216
0.487049
0.487198
0.490412
0.498123
0.510406
0.526427
0.546304
0.57013
0.597696
0.62847
0.657432
0.680092
0.697227
0.710471
0.72069
0.728042
0.732141
0.733578
0.733712
0.733453
0.437296
0.438254
0.444671
0.4577
0.47651
0.499367
0.526165
0.556714
0.590605
0.627163
0.660676
0.686515
0.705963
0.721015
0.732667
0.740856
0.745167
0.746521
0.746572
0.746284
0.364064
0.371254
0.386156
0.409163
0.437716
0.469731
0.504998
0.543294
0.584222
0.627096
0.665572
0.694905
0.716923
0.734034
0.747235
0.756239
0.760733
0.762028
0.762037
0.761783
0.285086
0.302143
0.326336
0.359962
0.398671
0.440008
0.483854
0.530153
0.578594
0.628576
0.673048
0.706851
0.732224
0.751919
0.7671
0.776981
0.781478
0.782611
0.782652
0.782517
0.219318
0.239446
0.271357
0.313943
0.361628
0.411756
0.463924
0.518068
0.573869
0.630749
0.680949
0.718936
0.747411
0.769434
0.786102
0.796448
0.800826
0.80201
0.802157
0.802094
0.165436
0.18723
0.224644
0.273633
0.328391
0.385919
0.445452
0.506798
0.569519
0.632965
0.688595
0.730492
0.761785
0.785835
0.803834
0.814943
0.819947
0.821106
0.821237
0.821218
0.120479
0.143465
0.184671
0.238744
0.299205
0.362844
0.428692
0.496432
0.565474
0.635036
0.695753
0.741304
0.775216
0.801232
0.820626
0.832695
0.838112
0.839316
0.839503
0.83952
0.0821858
0.105862
0.149921
0.208048
0.273289
0.342126
0.413457
0.486872
0.56165
0.636856
0.702313
0.751251
0.787592
0.815391
0.836003
0.848919
0.854783
0.856205
0.856457
0.856492
0.0485574
0.0727075
0.119042
0.180478
0.249761
0.323109
0.399299
0.477823
0.557857
0.638311
0.708198
0.760278
0.798812
0.828136
0.849795
0.863326
0.869573
0.871323
0.871652
0.871701
0.0181235
0.0426948
0.0908959
0.155162
0.227924
0.305218
0.385759
0.468936
0.553839
0.63923
0.713309
0.768319
0.808829
0.83951
0.862012
0.876027
0.882582
0.884566
0.884932
0.884968
-0.0100506
0.0149136
0.064741
0.131412
0.207241
0.288028
0.372474
0.459913
0.549366
0.639453
0.717562
0.775367
0.817718
0.849614
0.872736
0.887051
0.893831
0.895955
0.89633
0.896342
-0.0367399
-0.0113391
0.0399937
0.108765
0.187314
0.271218
0.359192
0.450548
0.544267
0.638855
0.720899
0.781459
0.825607
0.858559
0.882116
0.896589
0.903475
0.905722
0.906085
0.906067
-0.0622714
-0.0364288
0.0160572
0.0869023
0.167866
0.254567
0.345736
0.440699
0.538423
0.637349
0.7233
0.786667
0.832626
0.866565
0.890493
0.905072
0.912029
0.914302
0.914657
0.91461
-0.0870429
-0.0606248
-0.0070668
0.0655955
0.148717
0.237928
0.331998
0.430276
0.531754
0.63487
0.724759
0.791053
0.8389
0.873825
0.898089
0.912744
0.919703
0.921922
0.922272
0.922206
-0.111169
-0.0843022
-0.0295532
0.0447095
0.129762
0.221226
0.317919
0.419238
0.52422
0.631384
0.725274
0.79467
0.844538
0.880485
0.905095
0.919791
0.926697
0.928849
0.929119
0.929009
-0.134753
-0.107335
-0.0515435
0.0241746
0.110963
0.20444
0.303487
0.407571
0.515807
0.626865
0.724818
0.797535
0.849617
0.886699
0.911682
0.926365
0.933091
0.935096
0.935283
0.935129
-0.157906
-0.129888
-0.0730907
0.00396749
0.0923045
0.187579
0.288733
0.39531
0.506533
0.621299
0.723349
0.799625
0.854206
0.892612
0.917995
0.932548
0.938972
0.940736
0.940829
0.940646
-0.18063
-0.151931
-0.0941866
-0.0159011
0.0738262
0.170681
0.273709
0.382505
0.496437
0.61468
0.720811
0.800879
0.858319
0.898368
0.924224
0.938461
0.944368
0.945805
0.945798
0.945597
-0.202763
-0.173422
-0.114771
-0.0353935
0.0555672
0.153816
0.258479
0.369237
0.485586
0.607038
0.717141
0.801197
0.861912
0.904091
0.930643
0.944354
0.949385
0.950327
0.950209
0.950008
-0.224279
-0.194329
-0.134826
-0.0544545
0.0375899
0.13705
0.243139
0.355589
0.474064
0.598408
0.712292
0.800447
0.864871
0.909823
0.937601
0.950731
0.954347
0.954383
0.954083
0.953934
-0.245244
-0.214613
-0.154321
-0.0730492
0.0199598
0.120467
0.227778
0.341667
0.461968
0.588856
0.706218
0.798484
0.866993
0.915427
0.945373
0.958442
0.960215
0.958419
0.957529
0.957639
-0.265482
-0.234249
-0.173196
-0.0911121
0.00273761
0.104152
0.212493
0.327584
0.449415
0.57848
0.698912
0.795149
0.867997
0.920508
0.953812
0.968403
0.96909
0.96464
0.9616
0.960995
-0.285086
-0.253228
-0.191469
-0.10867
-0.0141093
0.0880589
0.197227
0.31328
0.436335
0.567203
0.690238
0.790168
0.867558
0.924476
0.962116
0.98068
0.983211
0.977549
0.968675
0.953926
-0.30398
-0.271536
-0.209259
-0.125923
-0.0308712
0.0718523
0.18156
0.298269
0.422188
0.554382
0.679539
0.78274
0.865057
0.926471
0.968288
0.992485
0.997806
0.986079
0.96671
0.953845
-0.321985
-0.28931
-0.226372
-0.142645
-0.0472164
0.0558803
0.16572
0.282879
0.407283
0.540282
0.666908
0.772442
0.859779
0.925363
0.967806
0.991595
1.00028
0.978289
0.910084
0.87919
-0.338436
-0.307782
-0.24247
-0.158276
-0.062395
0.0406488
0.150016
0.267339
0.391838
0.52503
0.652295
0.759011
0.850449
0.92057
0.955943
0.9733
0.966471
0.913887
0.844707
0.802025
-0.394882
-0.324068
-0.257181
-0.17389
-0.0779802
0.0247115
0.134383
0.251368
0.37549
0.508181
0.635114
0.741889
0.833394
0.910248
0.916194
0.922453
0.877343
0.809024
0.732935
0.690496
-0.356176
-0.33993
-0.279056
-0.195391
-0.10078
0.00178628
0.110482
0.226827
0.349965
0.481161
0.605885
0.7106
0.793908
0.8741
0.864283
0.754877
0.651517
0.579548
0.50676
0.538409
-0.387739
-0.358055
-0.296161
-0.213255
-0.118598
-0.0162433
0.0927335
0.208461
0.33056
0.459962
0.581794
0.682226
0.757115
0.799424
0.752466
0.606858
0.480925
0.39064
0.292303
0.343418
-0.41212
-0.379485
-0.316292
-0.233141
-0.138385
-0.0361074
0.0728207
0.187749
0.308497
0.435529
0.553617
0.648046
0.713981
0.722964
0.618412
0.447212
0.295783
0.177904
0.0471271
0.0804965
-0.43603
-0.401821
-0.337417
-0.253349
-0.158411
-0.0562283
0.0522306
0.166247
0.28547
0.40978
0.523259
0.610648
0.661276
0.63925
0.482752
0.287661
0.0980742
-0.0694436
-0.258136
-0.275648
-0.459336
-0.42468
-0.359358
-0.274496
-0.17932
-0.0772909
0.0305827
0.143582
0.261043
0.382274
0.490487
0.57049
0.602517
0.544806
0.353725
0.144219
-0.0726343
-0.261824
-0.504219
-0.805161
-0.482962
-0.448302
-0.382408
-0.297011
-0.201576
-0.0996411
0.00772876
0.119695
0.235309
0.353234
0.455943
0.527619
0.539952
0.431388
0.241606
0.0326337
-0.171212
-0.343317
-0.411813
-0.492171
-0.507852
-0.473144
-0.406928
-0.321244
-0.225686
-0.123928
-0.0171423
0.0936378
0.207113
0.32124
0.418086
0.479083
0.466923
0.324777
0.142191
-0.0478101
-0.209904
-0.302265
-0.326167
-0.342194
-0.534331
-0.499526
-0.433094
-0.347289
-0.251786
-0.150364
-0.0443887
0.0649248
0.175871
0.285587
0.376059
0.423461
0.393728
0.225895
0.052208
-0.112718
-0.238556
-0.277244
-0.290275
-0.291581
-0.562611
-0.527623
-0.460973
-0.375139
-0.279825
-0.178955
-0.0740296
0.0335062
0.141519
0.246277
0.329516
0.362731
0.3146
0.134437
-0.0301721
-0.177865
-0.253716
-0.270534
-0.271885
-0.271694
-0.592752
-0.557477
-0.490592
-0.404793
-0.309819
-0.209691
-0.106069
-0.000633352
0.104066
0.203385
0.278538
0.300431
0.216447
0.0508295
-0.105611
-0.227477
-0.263588
-0.261963
-0.260897
-0.260285
-0.624471
-0.588965
-0.521849
-0.436164
-0.341683
-0.24252
-0.140478
-0.0374696
0.0635479
0.157021
0.223912
0.229222
0.126137
-0.0270582
-0.165287
-0.240964
-0.250851
-0.25314
-0.253694
-0.253294
-0.657205
-0.621571
-0.554493
-0.469034
-0.375233
-0.27729
-0.17711
-0.0768756
0.0201368
0.107544
0.16619
0.156486
0.0443972
-0.0938138
-0.2087
-0.238919
-0.24766
-0.249392
-0.249088
-0.248656
-0.690503
-0.654774
-0.588058
-0.50301
-0.410129
-0.313686
-0.215695
-0.118573
-0.0259154
0.0556402
0.104442
0.0879035
-0.0320452
-0.150724
-0.238804
-0.254968
-0.246836
-0.245383
-0.245161
-0.244893
-0.723488
-0.687921
-0.621693
-0.537481
-0.445836
-0.351244
-0.2558
-0.162106
-0.0741586
0.00195603
0.0415927
0.0269194
-0.0988506
-0.203165
-0.245645
-0.253977
-0.247965
-0.242619
-0.240534
-0.24003
-0.754571
-0.719799
-0.65446
-0.571535
-0.4816
-0.389274
-0.29679
-0.206841
-0.123805
-0.0530312
-0.0159764
-0.0387828
-0.148511
-0.260926
-0.26193
-0.264401
-0.251247
-0.238691
-0.233441
-0.231613
-0.782217
-0.748481
-0.685257
-0.604034
-0.516389
-0.426848
-0.337812
-0.251992
-0.173818
-0.108552
-0.0703258
-0.0991349
-0.17237
-0.293957
-0.342059
-0.293562
-0.256958
-0.240667
-0.233624
-0.230715
-0.80431
-0.772372
-0.711856
-0.633574
-0.548916
-0.462831
-0.377782
-0.29657
-0.223264
-0.163544
-0.126235
-0.141741
-0.152602
-0.20793
-0.312954
-0.271486
-0.274338
-0.275732
-0.271359
-0.267416
-0.818658
-0.789446
-0.732617
-0.658219
-0.577644
-0.49588
-0.415526
-0.339358
-0.271279
-0.217332
-0.178798
-0.189262
-0.0946765
0.0437599
-0.0428572
-0.21864
-0.327614
-0.356661
-0.355968
-0.356145
-0.822598
-0.797464
-0.745485
-0.676159
-0.60083
-0.524468
-0.44957
-0.379055
-0.316901
-0.269687
-0.227294
-0.276092
-0.23038
0.00274156
-0.133829
-0.318347
-0.407255
-0.427029
-0.430811
-0.434407
-0.814119
-0.793788
-0.748266
-0.685735
-0.616916
-0.54694
-0.478295
-0.414041
-0.358749
-0.319001
-0.284487
-0.447755
-0.748716
-1.00495
-0.973187
-0.782504
-0.640212
-0.579526
-0.561143
-0.558608
-0.791053
-0.775572
-0.73912
-0.68562
-0.624724
-0.562003
-0.500125
-0.44212
-0.393934
-0.362809
-0.362124
-0.594057
-1.09642
-1.80311
-1.83829
-1.11513
-0.698121
-0.583129
-0.554406
-0.546055
-0.755478
-0.745395
-0.718551
-0.675754
-0.623917
-0.56905
-0.513667
-0.46137
-0.417797
-0.392582
-0.391138
-0.466227
-0.404028
-0.367519
-0.338412
-0.256686
-0.280178
-0.294729
-0.278557
-0.266046
-0.71345
-0.707756
-0.690982
-0.658632
-0.616165
-0.568383
-0.518723
-0.469983
-0.427367
-0.398041
-0.388901
-0.245912
0.105971
0.646073
0.840828
0.508508
0.161773
-0.0354013
-0.0550438
-0.0699269
-0.673973
-0.670655
-0.662175
-0.639264
-0.604214
-0.562068
-0.516154
-0.468684
-0.423911
-0.38999
-0.385264
-0.331155
-0.330314
-0.542311
-0.896417
-1.25654
-1.31505
-1.14299
-0.918053
-0.817217
-0.643809
-0.641787
-0.637484
-0.622126
-0.592754
-0.553385
-0.50857
-0.459097
-0.408954
-0.367487
-0.35477
-0.401879
-0.533677
-0.790603
-1.03122
-1.13961
-1.10869
-0.980672
-0.83025
-0.768076
-0.619061
-0.618267
-0.616955
-0.608717
-0.58424
-0.545928
-0.498444
-0.444265
-0.385796
-0.321667
-0.273511
-0.221334
-0.23415
-0.224154
-0.234648
-0.169834
-0.0156461
0.178088
0.321166
0.377304
-0.60327
-0.602808
-0.602315
-0.59868
-0.579256
-0.540239
-0.488264
-0.42654
-0.354083
-0.270444
-0.176183
-0.0254248
0.161655
0.384655
0.618668
0.866299
1.15132
1.37613
1.50397
1.54772
-0.592883
-0.592645
-0.592241
-0.59136
-0.576755
-0.537397
-0.480406
-0.409846
-0.325059
-0.223423
-0.0973346
0.0375777
0.300151
0.639589
1.05715
1.48007
1.82256
2.04388
2.15196
2.18383
-0.585792
-0.585312
-0.584017
-0.583198
-0.574594
-0.538772
-0.477318
-0.398516
-0.303547
-0.19301
-0.0651777
0.0725094
0.280534
0.667036
1.12167
1.53903
1.86436
2.05592
2.14238
2.16523
-0.588836
-0.58618
-0.580073
-0.577099
-0.577807
-0.548521
-0.480516
-0.39223
-0.290912
-0.175877
-0.0517684
0.0822681
0.238996
0.547098
0.939251
1.28447
1.54998
1.69951
1.76362
1.77901
-0.620576
-0.617218
-0.613705
-0.615708
-0.617889
-0.576186
-0.489494
-0.386926
-0.279758
-0.164904
-0.0507406
0.0613704
0.16705
0.37506
0.673064
0.929958
1.12684
1.23537
1.28061
1.28972
-0.678915
-0.683597
-0.698577
-0.706963
-0.691925
-0.613441
-0.494257
-0.375257
-0.265047
-0.156278
-0.0584426
0.0289604
0.103844
0.24457
0.445531
0.620686
0.75183
0.823154
0.851944
0.857536
-0.691445
-0.706358
-0.728391
-0.736562
-0.705546
-0.601513
-0.467294
-0.346389
-0.242594
-0.147735
-0.0685167
-0.00432097
0.0479159
0.141699
0.275998
0.38915
0.471646
0.512246
0.527433
0.529966
-0.559504
-0.573446
-0.592835
-0.598746
-0.567886
-0.483448
-0.384309
-0.290082
-0.206998
-0.132928
-0.0735288
-0.0284863
0.00982757
0.0726567
0.154493
0.222159
0.267944
0.291754
0.300825
0.301159
-0.317427
-0.325354
-0.336989
-0.344972
-0.335642
-0.303048
-0.258631
-0.209213
-0.159224
-0.109837
-0.0716234
-0.0460709
-0.0238984
0.0259708
0.0765324
0.114337
0.137828
0.147855
0.151382
0.151101
-0.0894645
-0.092882
-0.101235
-0.11501
-0.129823
-0.138662
-0.137628
-0.126564
-0.107475
-0.0836013
-0.0662419
-0.0605411
-0.0551332
-0.0200184
0.0162665
0.0417
0.0542243
0.059246
0.0606665
0.0603242
0.0523717
0.0503465
0.0429218
0.0260094
-0.000328423
-0.0277186
-0.0485094
-0.0596091
-0.0609779
-0.0555535
-0.0531876
-0.0610556
-0.0654145
-0.0384083
-0.0113517
0.00384739
0.0110075
0.0131815
0.0137349
0.0132896
0.115112
0.113659
0.107267
0.09143
0.0654911
0.0359464
0.00923403
-0.0107973
-0.0223894
-0.0273148
-0.0329368
-0.0447132
-0.0508781
-0.0286752
-0.00923504
-0.00122385
-0.000433891
-0.00146598
-0.00205394
-0.00245447
0.131576
0.130469
0.125597
0.11331
0.0927608
0.0679458
0.0433197
0.0224737
0.00769599
-0.000715497
-0.00630711
-0.0142812
-0.0164903
-0.00111013
0.00838584
0.0111566
0.00976378
0.00834784
0.00779063
0.00735618
0.127037
0.126293
0.122959
0.114377
0.099664
0.0810505
0.061435
0.0438338
0.0307337
0.0241541
0.0241839
0.0262355
0.0317573
0.0442485
0.0448017
0.041152
0.0364686
0.0338104
0.0328844
0.0324259
0.11466
0.114226
0.112122
0.106516
0.0966038
0.0835849
0.0692822
0.0561663
0.0468476
0.0445308
0.0523031
0.0677103
0.0868759
0.0928733
0.084721
0.0761882
0.0708632
0.0690866
0.0682044
0.0674756
0.0999701
0.0997549
0.0985275
0.0950638
0.0886982
0.0800657
0.070368
0.0615414
0.0560939
0.058147
0.0730271
0.0987882
0.124266
0.125558
0.114109
0.105562
0.102322
0.101651
0.101155
0.100077
0.0849007
0.0848491
0.0842119
0.0822262
0.0783731
0.0729593
0.0668133
0.0614064
0.0589682
0.0637919
0.081699
0.110313
0.136403
0.134799
0.124085
0.119247
0.118948
0.120267
0.120149
0.118819
0.0703589
0.0703402
0.0700501
0.0690247
0.0668653
0.0636893
0.0600103
0.0568753
0.0560957
0.0612714
0.0773917
0.102101
0.121378
0.118301
0.111429
0.111071
0.114481
0.117347
0.117277
0.115951
0.0565475
0.0565598
0.0564495
0.0560301
0.0549967
0.0532881
0.0511532
0.0492389
0.0487077
0.0519322
0.0620886
0.0773984
0.087576
0.0831468
0.0810051
0.0865134
0.0918851
0.0946723
0.0945984
0.0934883
0.0438752
0.0438761
0.0438579
0.0437525
0.0433952
0.0425637
0.0412668
0.0397365
0.0384274
0.0380542
0.0395674
0.0414726
0.0405866
0.0363405
0.0393646
0.0489794
0.0569122
0.0603308
0.0605161
0.0596493
0.0326176
0.0325961
0.0326011
0.0326583
0.0326192
0.0322312
0.0313087
0.0297598
0.0272116
0.0228134
0.0146573
0.00238352
-0.0132518
-0.0181858
-0.00542557
0.00893651
0.0178401
0.0208785
0.021434
0.0210147
0.0229059
0.0228586
0.0228431
0.0229267
0.0230129
0.0228666
0.0221966
0.0203531
0.0167353
0.00941425
-0.00648332
-0.0322379
-0.0547305
-0.0541948
-0.0372599
-0.021916
-0.01454
-0.0117362
-0.0110387
-0.0111706
0.0146376
0.0145941
0.0145536
0.0146015
0.0146876
0.0145829
0.0139659
0.0125069
0.00907347
0.000753246
-0.017997
-0.0481812
-0.0724723
-0.0662405
-0.0482701
-0.0358254
-0.031267
-0.0298871
-0.0290049
-0.0288595
0.00756149
0.00749995
0.00745456
0.00749878
0.00757713
0.00755727
0.00718495
0.00617618
0.00384948
-0.00217555
-0.0167927
-0.0413866
-0.0586682
-0.0493015
-0.035857
-0.0294604
-0.027593
-0.0276663
-0.0270868
-0.0269231
0.00156115
0.00153872
0.00152625
0.00148205
0.00143851
0.00151634
0.00154522
0.00146429
0.00112957
0.000294903
-0.00170815
-0.00678848
-0.0144951
-0.013571
-0.0115564
-0.0114935
-0.0119403
-0.0108507
-0.00877316
-0.00777086
-0.0274431
0.14043
0.336732
0.507961
0.645103
0.753505
0.843353
0.919711
0.954304
0.931003
0.277913
0.399407
0.530162
0.643305
0.738819
0.817984
0.882083
0.927545
0.950309
0.962352
0.498491
0.581884
0.671263
0.750309
0.81834
0.875271
0.920535
0.95359
0.977457
0.995413
0.660371
0.719958
0.782216
0.839685
0.889712
0.932195
0.967077
0.994892
1.01777
1.03606
0.786576
0.829997
0.876233
0.920304
0.959237
0.993234
1.02233
1.04653
1.06697
1.0848
0.891371
0.924428
0.962723
0.99844
1.03122
1.06059
1.08625
1.10782
1.12571
1.14305
0.984215
1.01301
1.04711
1.07935
1.10939
1.13665
1.16046
1.18022
1.19576
1.21283
1.07299
1.10226
1.13634
1.16845
1.19811
1.22475
1.24766
1.26618
1.27957
1.2966
1.16841
1.20166
1.23835
1.27197
1.30205
1.32827
1.35025
1.36755
1.37943
1.39683
1.28347
1.32133
1.36
1.39427
1.42364
1.44841
1.4688
1.4847
1.49618
1.51425
1.42845
1.46702
1.50318
1.53388
1.55957
1.58168
1.60074
1.61628
1.62872
1.64671
1.60356
1.63519
1.66138
1.68384
1.70382
1.72255
1.74028
1.75676
1.77211
1.79018
1.79219
1.8094
1.82444
1.84068
1.85659
1.87113
1.88433
1.89826
1.91581
1.93596
1.97392
1.98346
1.995
2.00582
2.0151
2.02469
2.03548
2.04684
2.05821
2.07356
2.18117
2.18483
2.16988
2.15507
2.1488
2.15448
2.17296
2.20327
2.23545
2.2621
2.48748
2.35262
2.27598
2.23361
2.21618
2.22015
2.24755
2.30396
2.40658
2.63095
0.786013
0.783883
0.779399
0.770772
0.758543
0.746409
0.736172
0.728265
0.722632
0.719358
0.718977
0.72169
0.726773
0.733979
0.743355
0.754886
0.767531
0.778562
0.784672
0.787724
0.710473
0.716319
0.722651
0.72714
0.729605
0.729274
0.726529
0.722707
0.719181
0.716899
0.716724
0.718894
0.722534
0.726804
0.730598
0.732471
0.731528
0.728041
0.722875
0.716253
0.702059
0.704355
0.707757
0.710749
0.712818
0.714306
0.715051
0.714721
0.713677
0.71277
0.712914
0.71431
0.716099
0.717385
0.717549
0.716646
0.715088
0.712745
0.709477
0.706554
0.696565
0.697651
0.699481
0.701854
0.70387
0.705289
0.706297
0.707033
0.707414
0.707608
0.708063
0.708834
0.709401
0.709442
0.70901
0.708146
0.706665
0.704572
0.702479
0.701094
0.691383
0.692046
0.693151
0.69485
0.696623
0.698244
0.699525
0.700522
0.701379
0.702136
0.702823
0.703331
0.703486
0.703289
0.702697
0.701622
0.700178
0.698623
0.697297
0.696515
0.686435
0.686895
0.687678
0.688969
0.690446
0.69195
0.693398
0.694673
0.695779
0.696795
0.697659
0.698173
0.698271
0.697958
0.697229
0.696214
0.695068
0.69392
0.692996
0.692477
0.68164
0.681985
0.682593
0.683653
0.684935
0.686294
0.687712
0.689132
0.690469
0.691701
0.692749
0.693373
0.693491
0.693165
0.692526
0.691716
0.690838
0.689953
0.689268
0.688888
0.676948
0.677216
0.677706
0.678606
0.679762
0.681041
0.682411
0.683868
0.685365
0.686827
0.688099
0.688885
0.689111
0.688927
0.688483
0.68788
0.687196
0.686532
0.686027
0.685736
0.672277
0.672491
0.672897
0.673686
0.67476
0.675987
0.677344
0.678841
0.680461
0.682146
0.683685
0.684709
0.685153
0.685191
0.684961
0.684565
0.684077
0.683597
0.683229
0.683001
0.667544
0.667716
0.668064
0.668779
0.669806
0.671008
0.672387
0.67396
0.675724
0.677645
0.679502
0.680854
0.681596
0.681898
0.6819
0.681716
0.681425
0.681108
0.680852
0.680671
0.662665
0.662804
0.66311
0.66378
0.664788
0.66601
0.66745
0.669138
0.671096
0.673306
0.675551
0.677316
0.678415
0.679023
0.679286
0.679325
0.679227
0.679065
0.678903
0.678757
0.657554
0.657666
0.657944
0.658594
0.659617
0.660905
0.662449
0.664308
0.666528
0.669107
0.671834
0.674093
0.675611
0.676568
0.677124
0.6774
0.677496
0.677488
0.677408
0.67729
0.652121
0.65221
0.652471
0.653125
0.654202
0.655598
0.657302
0.659397
0.661958
0.665009
0.668332
0.671182
0.673193
0.674552
0.675434
0.675986
0.676293
0.676426
0.676418
0.676322
0.646267
0.646335
0.646589
0.647271
0.648437
0.649988
0.651913
0.654325
0.657318
0.660962
0.665015
0.66858
0.671177
0.673008
0.674263
0.675119
0.675659
0.675943
0.676002
0.675924
0.639871
0.639918
0.640173
0.640905
0.642201
0.643961
0.646179
0.648994
0.652537
0.656913
0.661858
0.666289
0.669589
0.671979
0.67367
0.674865
0.675672
0.676118
0.676244
0.676182
0.63279
0.632818
0.633078
0.63388
0.635352
0.637385
0.639982
0.643311
0.647547
0.652826
0.658859
0.664338
0.668479
0.671531
0.673733
0.675324
0.676436
0.677057
0.67725
0.677201
0.624842
0.624858
0.625118
0.626018
0.627716
0.630089
0.633172
0.637161
0.642272
0.648684
0.656048
0.662773
0.667906
0.671731
0.674542
0.676611
0.678066
0.678878
0.67914
0.679102
0.615727
0.615711
0.616031
0.617065
0.619047
0.621867
0.625574
0.630393
0.636594
0.644397
0.653379
0.661609
0.667923
0.672668
0.676199
0.678837
0.680687
0.681712
0.682047
0.682017
0.60518
0.605138
0.605502
0.606725
0.609067
0.612462
0.616961
0.622835
0.630409
0.639936
0.650885
0.660908
0.668617
0.674448
0.678828
0.682124
0.684437
0.6857
0.68611
0.686087
0.592725
0.592657
0.593096
0.594564
0.597383
0.60153
0.607055
0.614286
0.623602
0.635265
0.64859
0.66075
0.67009
0.677187
0.682562
0.686618
0.689461
0.690984
0.691469
0.691448
0.577733
0.577635
0.578195
0.580007
0.583465
0.588617
0.59551
0.604526
0.616082
0.630415
0.646597
0.66123
0.672452
0.681002
0.687533
0.692463
0.695896
0.697695
0.698251
0.698227
0.559282
0.559155
0.559908
0.562224
0.566579
0.573129
0.58189
0.593277
0.607696
0.625302
0.644883
0.662406
0.675784
0.685994
0.693835
0.699762
0.703853
0.705932
0.706547
0.706512
0.535987
0.535842
0.536923
0.54002
0.545723
0.55432
0.565733
0.580365
0.598524
0.620187
0.643748
0.664499
0.680246
0.692278
0.701559
0.708605
0.713385
0.715728
0.716377
0.716323
0.505525
0.5054
0.507086
0.511541
0.519513
0.531302
0.546614
0.565699
0.588628
0.615151
0.643262
0.667605
0.685924
0.699926
0.710753
0.719005
0.724448
0.727
0.727643
0.727555
0.463766
0.463803
0.466829
0.474136
0.486301
0.50331
0.524397
0.549488
0.578376
0.6106
0.643758
0.671905
0.692895
0.708931
0.721389
0.730853
0.736849
0.73948
0.740057
0.739926
0.403019
0.404198
0.411632
0.425292
0.445155
0.470485
0.499715
0.532461
0.568408
0.606997
0.645515
0.677554
0.701219
0.719246
0.733265
0.743776
0.750153
0.752648
0.753052
0.75288
0.33062
0.332362
0.346626
0.370179
0.400848
0.436011
0.474148
0.515095
0.558661
0.604342
0.649173
0.686141
0.713402
0.734131
0.75014
0.761945
0.768701
0.771174
0.77159
0.771521
0.255763
0.261897
0.282993
0.316688
0.357666
0.402397
0.449428
0.498648
0.549945
0.602857
0.654211
0.69631
0.727291
0.750937
0.769214
0.782194
0.789047
0.791234
0.791485
0.791486
0.19456
0.202979
0.228665
0.269362
0.318359
0.371245
0.426291
0.48325
0.541916
0.60179
0.659386
0.706321
0.74074
0.766913
0.786965
0.80095
0.807896
0.810046
0.810605
0.810688
0.144724
0.153736
0.182973
0.228893
0.283995
0.343453
0.405275
0.469066
0.534457
0.600834
0.664324
0.715801
0.753408
0.781927
0.803658
0.818694
0.82625
0.828926
0.829609
0.829725
0.102884
0.112182
0.143882
0.193807
0.253903
0.31882
0.386381
0.456136
0.527559
0.599904
0.668874
0.724589
0.76516
0.795865
0.819271
0.835373
0.843765
0.846865
0.847652
0.847772
0.0666938
0.076119
0.109683
0.162814
0.227023
0.296592
0.369151
0.444182
0.521051
0.598877
0.672948
0.732604
0.775912
0.808572
0.833379
0.850458
0.859572
0.862978
0.863867
0.86398
0.0345065
0.0439886
0.0789895
0.134827
0.202488
0.276054
0.353032
0.432805
0.514653
0.597568
0.67643
0.739777
0.785583
0.819978
0.845967
0.863812
0.87348
0.877232
0.878172
0.878291
0.00507037
0.0146144
0.0507921
0.108965
0.179604
0.256664
0.337563
0.421631
0.50807
0.595764
0.679185
0.746041
0.794169
0.830134
0.857131
0.875539
0.885607
0.889572
0.890554
0.890657
-0.0224511
-0.0128462
0.0243988
0.0845611
0.157858
0.238009
0.322412
0.410382
0.501077
0.593295
0.681108
0.751367
0.801736
0.839149
0.866977
0.885723
0.895967
0.900064
0.901131
0.901215
-0.0486099
-0.0389099
-0.0006701
0.0611869
0.136881
0.219783
0.307342
0.398871
0.493517
0.59003
0.682118
0.755765
0.80838
0.847185
0.875683
0.894665
0.904992
0.909204
0.910255
0.910332
-0.0738617
-0.0639685
-0.0248758
0.0386136
0.116421
0.201785
0.292191
0.386968
0.485288
0.585879
0.682164
0.759268
0.814207
0.854408
0.883528
0.902717
0.913116
0.917315
0.918326
0.918331
-0.0984238
-0.0882951
-0.0484187
0.0166487
0.0963248
0.183889
0.276863
0.374605
0.476323
0.580791
0.681223
0.761898
0.819305
0.860957
0.890696
0.910056
0.920469
0.924611
0.925568
0.925565
-0.122382
-0.112027
-0.0712968
-0.00485669
0.076505
0.166046
0.261322
0.361751
0.466599
0.574727
0.679264
0.763672
0.823736
0.866954
0.897356
0.916881
0.927254
0.931264
0.932125
0.932085
-0.14586
-0.135186
-0.0936968
-0.025953
0.0569288
0.148235
0.245567
0.348417
0.456126
0.567688
0.676258
0.764563
0.827536
0.872518
0.903673
0.923317
0.933528
0.937327
0.938045
0.937954
-0.168827
-0.157858
-0.115603
-0.0466606
0.0376015
0.130478
0.229641
0.33465
0.444941
0.559682
0.672175
0.764511
0.830701
0.877746
0.90981
0.929503
0.939366
0.942808
0.943354
0.943219
-0.19132
-0.180029
-0.13696
-0.0669457
0.0185544
0.112816
0.213594
0.320518
0.433107
0.550746
0.666988
0.76344
0.833164
0.882701
0.915966
0.935649
0.944885
0.947759
0.948088
0.947918
-0.213154
-0.201613
-0.15776
-0.0867596
-0.000156454
0.0953276
0.1975
0.306097
0.420705
0.540946
0.660682
0.761258
0.834819
0.887377
0.922359
0.94213
0.950365
0.952279
0.952268
0.952072
-0.234468
-0.222568
-0.177977
-0.106077
-0.0184939
0.0780576
0.181455
0.291474
0.407831
0.530369
0.653271
0.757859
0.835504
0.891647
0.929117
0.949497
0.956484
0.956735
0.955962
0.955716
-0.255093
-0.242865
-0.197578
-0.124846
-0.0363756
0.061094
0.165543
0.276774
0.394596
0.519084
0.644798
0.75315
0.835018
0.895239
0.936097
0.958284
0.964575
0.962477
0.959744
0.958632
-0.275086
-0.262547
-0.216506
-0.143011
-0.0537612
0.0445082
0.149849
0.262077
0.381115
0.507232
0.635337
0.747042
0.833144
0.897743
0.9427
0.968356
0.976112
0.97284
0.966106
0.957235
-0.294362
-0.281568
-0.234857
-0.160727
-0.0708607
0.0280186
0.134034
0.246976
0.366931
0.494296
0.624341
0.738951
0.829337
0.898683
0.948063
0.978676
0.991162
0.989066
0.97893
0.972599
-0.312869
-0.299849
-0.252624
-0.177958
-0.0876697
0.0116257
0.118116
0.231455
0.352001
0.480165
0.611623
0.728513
0.822866
0.897279
0.950044
0.984397
0.999445
1.00211
0.964599
0.912338
-0.330316
-0.3166
-0.269682
-0.194625
-0.104292
-0.00481792
0.102046
0.21563
0.336387
0.4649
0.597116