/*--------------------------------*- C++ -*----------------------------------*\
  =========                 |
  \\      /  F ield         | OpenFOAM: The Open Source CFD Toolbox
   \\    /   O peration     | Website:  https://openfoam.org
    \\  /    A nd           | Version:  7
     \\/     M anipulation  |
\*---------------------------------------------------------------------------*/
FoamFile
{
    version     2.0;
    format      ascii;
    class       volScalarField;
    location    "3.55";
    object      T;
}
// * * * * * * * * * * * * * * * * * * * * * * * * * * * * * * * * * * * * * //

dimensions      [0 0 0 1 0 0 0];

internalField   nonuniform List<scalar> 
1000
(
1.18816e-54
1.45996e-54
2.06501e-54
3.13995e-54
4.92709e-54
7.8284e-54
1.24948e-53
1.99705e-53
3.19238e-53
5.10148e-53
8.14803e-53
1.30062e-52
2.07483e-52
3.30778e-52
5.27004e-52
8.39096e-52
1.33515e-51
2.12309e-51
3.37384e-51
5.35796e-51
8.50339e-51
1.34866e-50
2.1376e-50
3.38585e-50
5.35949e-50
8.478e-50
1.34022e-49
2.11725e-49
3.34258e-49
5.27354e-49
8.31444e-49
1.31001e-48
2.06265e-48
3.24553e-48
5.10334e-48
8.01918e-48
1.25925e-47
1.97607e-47
3.09882e-47
4.85619e-47
7.60501e-47
1.19016e-46
1.8613e-46
2.9089e-46
4.543e-46
7.09018e-46
1.10579e-45
1.7234e-45
2.6841e-45
4.17744e-45
6.49708e-45
1.00977e-44
1.56828e-44
2.43399e-44
3.77494e-44
5.85051e-44
9.06089e-44
1.4023e-43
2.16871e-43
3.35162e-43
5.17603e-43
7.98783e-43
1.23183e-42
1.89827e-42
2.92318e-42
4.4982e-42
6.91683e-42
1.06282e-41
1.63192e-41
2.50393e-41
3.83908e-41
5.88187e-41
9.00501e-41
1.37764e-40
2.10603e-40
3.21717e-40
4.9109e-40
7.49078e-40
1.14175e-39
1.73896e-39
2.64657e-39
4.02487e-39
6.1164e-39
9.28779e-39
1.40929e-38
2.13679e-38
3.23739e-38
4.90114e-38
7.41427e-38
1.12075e-37
1.69285e-37
2.55501e-37
3.85332e-37
5.80688e-37
8.7441e-37
1.31568e-36
1.97812e-36
2.97176e-36
4.46106e-36
6.69149e-36
1.00292e-35
1.50201e-35
2.24769e-35
3.36091e-35
5.02151e-35
7.49667e-35
1.1183e-34
1.66687e-34
2.48256e-34
3.69446e-34
5.49356e-34
8.16222e-34
1.21175e-33
1.7975e-33
2.66423e-33
3.94569e-33
5.83878e-33
8.63312e-33
1.27544e-32
1.88276e-32
2.777e-32
4.0926e-32
6.02649e-32
8.8669e-32
1.30353e-31
1.91473e-31
2.81019e-31
4.12098e-31
6.03814e-31
8.8398e-31
1.29306e-30
1.88985e-30
2.75976e-30
4.02669e-30
5.87026e-30
8.55064e-30
1.24443e-29
1.80955e-29
2.62907e-29
3.81646e-29
5.53537e-29
8.02156e-29
1.16144e-28
1.68019e-28
2.42854e-28
3.50715e-28
5.06041e-28
7.29521e-28
1.05078e-27
1.51218e-27
2.17427e-27
3.12351e-27
4.48321e-27
6.4291e-27
9.21143e-27
1.31862e-26
1.88592e-26
2.69488e-26
3.84741e-26
5.48792e-26
7.8209e-26
1.11356e-25
1.58409e-25
2.25141e-25
3.19694e-25
4.53544e-25
6.42849e-25
9.10337e-25
1.28795e-24
1.82052e-24
2.57096e-24
3.62739e-24
5.1132e-24
7.20093e-24
1.01317e-23
1.42421e-23
2.00013e-23
2.80633e-23
3.93381e-23
5.5091e-23
7.70796e-23
1.07743e-22
1.50463e-22
2.09923e-22
2.92602e-22
4.07457e-22
5.66857e-22
7.87863e-22
1.09399e-21
1.5176e-21
2.10323e-21
2.91204e-21
4.02799e-21
5.56621e-21
7.6844e-21
1.05984e-20
1.46031e-20
2.01015e-20
2.76431e-20
3.79768e-20
5.21225e-20
7.14667e-20
9.78937e-20
1.3396e-19
1.83134e-19
2.50109e-19
3.41238e-19
4.65108e-19
6.3331e-19
8.61477e-19
1.17067e-18
1.58925e-18
2.15531e-18
2.92004e-18
3.95212e-18
5.34355e-18
7.21754e-18
9.73881e-18
1.31274e-17
1.76771e-17
2.37791e-17
3.19547e-17
4.28971e-17
5.75272e-17
7.70672e-17
1.03138e-16
1.37884e-16
1.84145e-16
2.4567e-16
3.27411e-16
4.35892e-16
5.79709e-16
7.70167e-16
1.02212e-15
1.35508e-15
1.79459e-15
2.37415e-15
3.13754e-15
4.14199e-15
5.46219e-15
7.19551e-15
9.46874e-15
1.24468e-14
1.63439e-14
2.14382e-14
2.80901e-14
3.67663e-14
4.80702e-14
6.27814e-14
8.19059e-14
1.0674e-13
1.38952e-13
1.80688e-13
2.34703e-13
3.04532e-13
3.94701e-13
5.11008e-13
6.60857e-13
8.53705e-13
1.10161e-12
1.41993e-12
1.8282e-12
2.35124e-12
3.02055e-12
3.87606e-12
4.96832e-12
6.36125e-12
8.13556e-12
1.03931e-11
1.32621e-11
1.6904e-11
2.15216e-11
2.73697e-11
3.47674e-11
4.41145e-11
5.59108e-11
7.07807e-11
8.9503e-11
1.13048e-10
1.42624e-10
1.79731e-10
2.26232e-10
2.84436e-10
3.57203e-10
4.48066e-10
5.61394e-10
7.0257e-10
8.78228e-10
1.09653e-09
1.3675e-09
1.70344e-09
2.11944e-09
2.63393e-09
3.2695e-09
4.05365e-09
5.01998e-09
6.20936e-09
7.67147e-09
9.46669e-09
1.16682e-08
1.43647e-08
1.76633e-08
2.16937e-08
2.6612e-08
3.26066e-08
3.99038e-08
4.87759e-08
5.95493e-08
7.26153e-08
8.84421e-08
1.07589e-07
1.30724e-07
1.58643e-07
1.92292e-07
2.32798e-07
2.81495e-07
3.39968e-07
4.10091e-07
4.94077e-07
5.94541e-07
7.14564e-07
8.57773e-07
1.02843e-06
1.23154e-06
1.47296e-06
1.75955e-06
2.09933e-06
2.50167e-06
2.97746e-06
3.5394e-06
4.20223e-06
4.98305e-06
5.90169e-06
6.98109e-06
8.24773e-06
9.73216e-06
1.14696e-05
1.35005e-05
1.58714e-05
1.86356e-05
2.1854e-05
2.55966e-05
2.99429e-05
3.49838e-05
4.08225e-05
4.75765e-05
5.53791e-05
6.4381e-05
7.47531e-05
8.66881e-05
0.000100403
0.000116144
0.000134184
0.000154833
0.000178436
0.000205381
0.0002361
0.000271074
0.000310839
0.000355993
0.000407196
0.000465181
0.000530758
0.000604823
0.00068836
0.000782455
0.0008883
0.0010072
0.00114059
0.00129002
0.00145721
0.00164401
0.00185244
0.00208468
0.00234311
0.00263029
0.00294897
0.00330214
0.00369299
0.00412496
0.00460172
0.00512718
0.00570554
0.00634125
0.00703903
0.0078039
0.00864115
0.00955638
0.0105555
0.0116446
0.0128302
0.0141192
0.0155184
0.0170354
0.0186777
0.0204533
0.0223702
0.0244369
0.0266619
0.0290541
0.0316225
0.0343762
0.0373245
0.0404767
0.0438422
0.0474305
0.0512509
0.0553129
0.0596257
0.0641983
0.0690396
0.0741582
0.0795625
0.0852604
0.0912595
0.0975667
0.104189
0.111131
0.1184
0.125999
0.133933
0.142204
0.150816
0.159768
0.169062
0.178697
0.188671
0.198982
0.209627
0.220599
0.231895
0.243506
0.255425
0.267643
0.280149
0.292931
0.305979
0.319278
0.332814
0.346572
0.360535
0.374687
0.389009
0.403483
0.418091
0.432812
0.447626
0.462512
0.47745
0.492418
0.507395
0.522359
0.537289
0.552164
0.566962
0.581663
0.596245
0.61069
0.624977
0.639087
0.653003
0.666705
0.680178
0.693405
0.70637
0.719061
0.731462
0.743562
0.755348
0.766811
0.77794
0.788726
0.799163
0.809242
0.818958
0.828306
0.837282
0.845881
0.854102
0.861941
0.869398
0.876472
0.883163
0.88947
0.895394
0.900936
0.906098
0.910881
0.915286
0.919316
0.922971
0.926255
0.929169
0.931714
0.933892
0.935704
0.937153
0.938239
0.938962
0.939323
0.939323
0.938962
0.938239
0.937153
0.935704
0.933892
0.931714
0.929169
0.926255
0.922971
0.919316
0.915286
0.910881
0.906098
0.900936
0.895394
0.88947
0.883163
0.876472
0.869398
0.861941
0.854102
0.845881
0.837282
0.828306
0.818958
0.809242
0.799163
0.788726
0.77794
0.766811
0.755348
0.743562
0.731462
0.719061
0.70637
0.693405
0.680178
0.666705
0.653003
0.639087
0.624977
0.61069
0.596245
0.581663
0.566962
0.552164
0.537289
0.522359
0.507395
0.492418
0.47745
0.462512
0.447626
0.432812
0.418091
0.403483
0.389009
0.374687
0.360535
0.346572
0.332814
0.319278
0.305979
0.292931
0.280149
0.267643
0.255425
0.243506
0.231895
0.220599
0.209627
0.198982
0.188671
0.178697
0.169062
0.159768
0.150816
0.142204
0.133933
0.125999
0.1184
0.111131
0.104189
0.0975667
0.0912595
0.0852604
0.0795625
0.0741582
0.0690396
0.0641983
0.0596257
0.0553129
0.0512509
0.0474305
0.0438422
0.0404767
0.0373245
0.0343762
0.0316225
0.0290541
0.0266619
0.0244369
0.0223702
0.0204533
0.0186777
0.0170354
0.0155184
0.0141192
0.0128302
0.0116446
0.0105555
0.00955638
0.00864115
0.0078039
0.00703903
0.00634125
0.00570554
0.00512718
0.00460172
0.00412496
0.00369299
0.00330214
0.00294897
0.00263029
0.00234311
0.00208468
0.00185244
0.00164401
0.00145721
0.00129002
0.00114059
0.0010072
0.0008883
0.000782455
0.00068836
0.000604823
0.000530758
0.000465181
0.000407196
0.000355993
0.000310839
0.000271074
0.0002361
0.000205381
0.000178436
0.000154833
0.000134184
0.000116144
0.000100403
8.66881e-05
7.47531e-05
6.4381e-05
5.53791e-05
4.75765e-05
4.08225e-05
3.49838e-05
2.99429e-05
2.55966e-05
2.1854e-05
1.86356e-05
1.58714e-05
1.35005e-05
1.14696e-05
9.73216e-06
8.24773e-06
6.98109e-06
5.90169e-06
4.98305e-06
4.20223e-06
3.5394e-06
2.97746e-06
2.50167e-06
2.09933e-06
1.75955e-06
1.47296e-06
1.23154e-06
1.02843e-06
8.57773e-07
7.14564e-07
5.94541e-07
4.94077e-07
4.10091e-07
3.39968e-07
2.81495e-07
2.32798e-07
1.92292e-07
1.58643e-07
1.30724e-07
1.07589e-07
8.84421e-08
7.26153e-08
5.95493e-08
4.87759e-08
3.99038e-08
3.26066e-08
2.6612e-08
2.16937e-08
1.76633e-08
1.43647e-08
1.16682e-08
9.46669e-09
7.67147e-09
6.20936e-09
5.01998e-09
4.05365e-09
3.2695e-09
2.63393e-09
2.11944e-09
1.70344e-09
1.3675e-09
1.09653e-09
8.78228e-10
7.0257e-10
5.61394e-10
4.48066e-10
3.57203e-10
2.84436e-10
2.26232e-10
1.79731e-10
1.42624e-10
1.13048e-10
8.9503e-11
7.07807e-11
5.59108e-11
4.41145e-11
3.47674e-11
2.73697e-11
2.15216e-11
1.6904e-11
1.32621e-11
1.03931e-11
8.13556e-12
6.36125e-12
4.96832e-12
3.87606e-12
3.02055e-12
2.35124e-12
1.8282e-12
1.41993e-12
1.10161e-12
8.53705e-13
6.60857e-13
5.11008e-13
3.94701e-13
3.04532e-13
2.34703e-13
1.80688e-13
1.38952e-13
1.0674e-13
8.19059e-14
6.27814e-14
4.80702e-14
3.67663e-14
2.80901e-14
2.14382e-14
1.63439e-14
1.24468e-14
9.46874e-15
7.19551e-15
5.46219e-15
4.14199e-15
3.13754e-15
2.37415e-15
1.79459e-15
1.35508e-15
1.02212e-15
7.70167e-16
5.79709e-16
4.35892e-16
3.27411e-16
2.4567e-16
1.84145e-16
1.37884e-16
1.03138e-16
7.70672e-17
5.75272e-17
4.28971e-17
3.19547e-17
2.37791e-17
1.76771e-17
1.31274e-17
9.73881e-18
7.21754e-18
5.34355e-18
3.95212e-18
2.92004e-18
2.15531e-18
1.58925e-18
1.17067e-18
8.61477e-19
6.3331e-19
4.65108e-19
3.41238e-19
2.50109e-19
1.83134e-19
1.3396e-19
9.78937e-20
7.14667e-20
5.21225e-20
3.79768e-20
2.76431e-20
2.01015e-20
1.46031e-20
1.05984e-20
7.6844e-21
5.56621e-21
4.02799e-21
2.91204e-21
2.10323e-21
1.5176e-21
1.09399e-21
7.87863e-22
5.66857e-22
4.07457e-22
2.92602e-22
2.09923e-22
1.50463e-22
1.07743e-22
7.70796e-23
5.5091e-23
3.93381e-23
2.80633e-23
2.00013e-23
1.42421e-23
1.01317e-23
7.20093e-24
5.1132e-24
3.62739e-24
2.57096e-24
1.82052e-24
1.28795e-24
9.10337e-25
6.42849e-25
4.53544e-25
3.19694e-25
2.25141e-25
1.58409e-25
1.11356e-25
7.8209e-26
5.48792e-26
3.84741e-26
2.69488e-26
1.88592e-26
1.31862e-26
9.21143e-27
6.4291e-27
4.48321e-27
3.12351e-27
2.17427e-27
1.51218e-27
1.05078e-27
7.29521e-28
5.06041e-28
3.50715e-28
2.42854e-28
1.68019e-28
1.16144e-28
8.02156e-29
5.53537e-29
3.81646e-29
2.62907e-29
1.80955e-29
1.24443e-29
8.55064e-30
5.87026e-30
4.02669e-30
2.75976e-30
1.88985e-30
1.29306e-30
8.8398e-31
6.03814e-31
4.12098e-31
2.81019e-31
1.91473e-31
1.30353e-31
8.8669e-32
6.02649e-32
4.0926e-32
2.777e-32
1.88276e-32
1.27544e-32
8.63312e-33
5.83878e-33
3.94569e-33
2.66423e-33
1.7975e-33
1.21175e-33
8.16222e-34
5.49356e-34
3.69446e-34
2.48256e-34
1.66687e-34
1.1183e-34
7.49667e-35
5.02151e-35
3.36091e-35
2.24769e-35
1.50201e-35
1.00292e-35
6.69149e-36
4.46106e-36
2.97176e-36
1.97812e-36
1.31568e-36
8.7441e-37
5.80688e-37
3.85332e-37
2.55501e-37
1.69285e-37
1.12075e-37
7.41427e-38
4.90114e-38
3.23739e-38
2.13679e-38
1.40929e-38
9.28779e-39
6.1164e-39
4.02487e-39
2.64657e-39
1.73896e-39
1.14175e-39
7.49078e-40
4.9109e-40
3.21717e-40
2.10603e-40
1.37764e-40
9.00501e-41
5.88187e-41
3.83908e-41
2.50393e-41
1.63192e-41
1.06282e-41
6.91683e-42
4.4982e-42
2.92318e-42
1.89827e-42
1.23183e-42
7.98783e-43
5.17603e-43
3.35162e-43
2.16871e-43
1.4023e-43
9.06089e-44
5.85051e-44
3.77494e-44
2.43399e-44
1.56828e-44
1.00977e-44
6.49708e-45
4.17744e-45
2.6841e-45
1.7234e-45
1.10579e-45
7.09018e-46
4.543e-46
2.9089e-46
1.8613e-46
1.19016e-46
7.60501e-47
4.85619e-47
3.09882e-47
1.97607e-47
1.25925e-47
8.01918e-48
5.10334e-48
3.24553e-48
2.06265e-48
1.31001e-48
8.31444e-49
5.27354e-49
3.34258e-49
2.11725e-49
1.34022e-49
8.478e-50
5.35949e-50
3.38585e-50
2.1376e-50
1.34866e-50
8.50339e-51
5.35796e-51
3.37384e-51
2.12309e-51
1.33515e-51
8.39096e-52
5.27004e-52
3.30778e-52
2.07483e-52
1.30062e-52
8.14803e-53
5.10148e-53
3.19238e-53
1.99705e-53
1.24948e-53
7.8284e-54
4.92709e-54
3.13995e-54
2.06501e-54
1.45996e-54
1.18816e-54
)
;

boundaryField
{
    sides
    {
        type            zeroGradient;
    }
    empty
    {
        type            empty;
    }
}


// ************************************************************************* //
