/*--------------------------------*- C++ -*----------------------------------*\
  =========                 |
  \\      /  F ield         | OpenFOAM: The Open Source CFD Toolbox
   \\    /   O peration     | Website:  https://openfoam.org
    \\  /    A nd           | Version:  7
     \\/     M anipulation  |
\*---------------------------------------------------------------------------*/
FoamFile
{
    version     2.0;
    format      ascii;
    class       volScalarField;
    location    "0.001";
    object      mag(U);
}
// * * * * * * * * * * * * * * * * * * * * * * * * * * * * * * * * * * * * * //

dimensions      [0 1 -1 0 0 0 0];

internalField   nonuniform List<scalar> 
100
(
5.79116e-13
1.41497e-13
5.77657e-13
4.78785e-28
1.42956e-13
5.79116e-13
1.41497e-13
5.77657e-13
4.44987e-28
1.45873e-13
0
2.5196e-32
0
3.81647e-29
1.45873e-13
0
1.45873e-13
2.87455e-29
1.45873e-13
1.45873e-13
0
0
0
1.45873e-13
2.91746e-13
0
2.88829e-13
2.91746e-15
2.77159e-14
7.10402e-13
8.47522e-12
9.9357e-11
1.02801e-09
1.11179e-08
1.0304e-07
9.90534e-07
8.12064e-06
6.79911e-05
0.000483533
0.00343137
0.0205995
0.119053
0.577547
2.54024
8.70894
23.8312
52.103
94.9727
148.651
195.254
236.032
273.968
306.496
315.957
284.419
188.615
54.3075
7.86522
1.07846
0.140851
0.0177319
0.00211798
0.000239099
2.53555e-05
2.54394e-06
2.39991e-07
2.15592e-08
1.82648e-09
1.48401e-10
1.13139e-11
7.9355e-13
1.89635e-14
1.09096e-32
1.44414e-13
9.1602e-31
1.44414e-13
1.45873e-13
0
4.34702e-13
1.44414e-13
1.44414e-13
1.45873e-13
0
4.34702e-13
1.44414e-13
1.44414e-13
1.45873e-13
0
4.34702e-13
1.10864e-13
9.96314e-13
8.31477e-14
1.25743e-12
0
0
1.22533e-12
9.62763e-14
1.12906e-12
0
0
)
;

boundaryField
{
    sides
    {
        type            calculated;
        value           nonuniform List<scalar> 2(0 5.79116e-13);
    }
    empty
    {
        type            empty;
    }
}


// ************************************************************************* //
