/*--------------------------------*- C++ -*----------------------------------*\
  =========                 |
  \\      /  F ield         | OpenFOAM: The Open Source CFD Toolbox
   \\    /   O peration     | Website:  https://openfoam.org
    \\  /    A nd           | Version:  7
     \\/     M anipulation  |
\*---------------------------------------------------------------------------*/
FoamFile
{
    version     2.0;
    format      ascii;
    class       surfaceScalarField;
    location    "0.001";
    object      phi;
}
// * * * * * * * * * * * * * * * * * * * * * * * * * * * * * * * * * * * * * //

dimensions      [1 0 -1 0 0 0 0];

internalField   nonuniform List<scalar> 
99
(
-1.6982e-12
1.07292e-12
1.03029e-12
3.41061e-13
-7.95808e-13
-1.6982e-12
1.07292e-12
1.01608e-12
-2.27374e-13
-3.83693e-13
2.13163e-14
-1.42109e-14
7.10543e-15
-3.12639e-13
-3.48166e-13
3.69482e-13
2.41585e-13
3.33955e-13
0
-3.76588e-13
2.13163e-14
-1.42109e-14
3.33955e-13
-2.62901e-13
-6.6791e-13
5.47118e-13
6.6791e-13
3.55271e-14
1.03739e-12
1.35074e-11
1.58678e-10
1.6871e-09
1.82438e-08
1.74726e-07
1.68154e-06
1.42942e-05
0.00012015
0.00088959
0.00636955
0.0400184
0.235589
1.20719
5.53496
21.4524
67.202
150.324
269.226
385.043
470.547
504.067
476.72
442.279
403.261
381.991
325.911
74.2045
13.7897
1.85407
0.244746
0.0316453
0.00393222
0.000462639
5.13616e-05
5.36119e-06
5.29092e-07
4.91974e-08
4.35198e-09
3.63994e-10
2.91274e-11
2.18714e-12
1.42109e-13
2.66454e-15
3.10862e-14
4.35207e-14
-4.52971e-14
-6.4837e-14
-4.44089e-14
1.10134e-13
8.34888e-14
-8.34888e-14
-6.57252e-14
-4.26326e-14
1.14131e-13
8.34888e-14
-8.34888e-14
-6.57252e-14
-4.21885e-14
1.13687e-13
8.61533e-14
1.92735e-13
3.41061e-13
-3.69482e-13
-2.75335e-13
0
2.72671e-13
3.47278e-13
-3.73923e-13
-2.50466e-13
0
)
;

boundaryField
{
    sides
    {
        type            calculated;
        value           nonuniform List<scalar> 2(0 2.28756e-12);
    }
    empty
    {
        type            empty;
        value           nonuniform 0();
    }
}


// ************************************************************************* //
