/*--------------------------------*- C++ -*----------------------------------*\
  =========                 |
  \\      /  F ield         | OpenFOAM: The Open Source CFD Toolbox
   \\    /   O peration     | Website:  https://openfoam.org
    \\  /    A nd           | Version:  7
     \\/     M anipulation  |
\*---------------------------------------------------------------------------*/
FoamFile
{
    version     2.0;
    format      ascii;
    class       volVectorField;
    location    "0.001";
    object      U;
}
// * * * * * * * * * * * * * * * * * * * * * * * * * * * * * * * * * * * * * //

dimensions      [0 1 -1 0 0 0 0];

internalField   nonuniform List<vector> 
100
(
(-5.79116e-13 0 0)
(-1.41497e-13 0 0)
(5.77657e-13 0 0)
(4.78785e-28 0 0)
(1.42956e-13 0 0)
(-5.79116e-13 0 0)
(-1.41497e-13 0 0)
(5.77657e-13 0 0)
(4.44987e-28 0 0)
(-1.45873e-13 0 0)
(0 0 0)
(-2.5196e-32 0 0)
(0 0 0)
(-3.81647e-29 0 0)
(-1.45873e-13 0 0)
(0 0 0)
(1.45873e-13 0 0)
(2.87455e-29 0 0)
(1.45873e-13 0 0)
(-1.45873e-13 0 0)
(0 0 0)
(0 0 0)
(0 0 0)
(1.45873e-13 0 0)
(-2.91746e-13 0 0)
(0 0 0)
(2.88829e-13 0 0)
(2.91746e-15 0 0)
(2.77159e-14 0 0)
(7.10402e-13 0 0)
(8.47522e-12 0 0)
(9.9357e-11 0 0)
(1.02801e-09 0 0)
(1.11179e-08 0 0)
(1.0304e-07 0 0)
(9.90534e-07 0 0)
(8.12064e-06 0 0)
(6.79911e-05 0 0)
(0.000483533 0 0)
(0.00343137 0 0)
(0.0205995 0 0)
(0.119053 0 0)
(0.577547 0 0)
(2.54024 0 0)
(8.70894 0 0)
(23.8312 0 0)
(52.103 0 0)
(94.9727 0 0)
(148.651 0 0)
(195.254 0 0)
(236.032 0 0)
(273.968 0 0)
(306.496 0 0)
(315.957 0 0)
(284.419 0 0)
(188.615 0 0)
(54.3075 0 0)
(7.86522 0 0)
(1.07846 0 0)
(0.140851 0 0)
(0.0177319 0 0)
(0.00211798 0 0)
(0.000239099 0 0)
(2.53555e-05 0 0)
(2.54394e-06 0 0)
(2.39991e-07 0 0)
(2.15592e-08 0 0)
(1.82648e-09 0 0)
(1.48401e-10 0 0)
(1.13139e-11 0 0)
(7.9355e-13 0 0)
(1.89635e-14 0 0)
(1.09096e-32 0 0)
(1.44414e-13 0 0)
(-9.1602e-31 0 0)
(-1.44414e-13 0 0)
(-1.45873e-13 0 0)
(0 0 0)
(4.34702e-13 0 0)
(-1.44414e-13 0 0)
(-1.44414e-13 0 0)
(-1.45873e-13 0 0)
(0 0 0)
(4.34702e-13 0 0)
(-1.44414e-13 0 0)
(-1.44414e-13 0 0)
(-1.45873e-13 0 0)
(0 0 0)
(4.34702e-13 0 0)
(-1.10864e-13 0 0)
(9.96314e-13 0 0)
(8.31477e-14 0 0)
(-1.25743e-12 0 0)
(0 0 0)
(0 0 0)
(1.22533e-12 0 0)
(-9.62763e-14 0 0)
(-1.12906e-12 0 0)
(0 0 0)
(0 0 0)
)
;

boundaryField
{
    sides
    {
        type            zeroGradient;
    }
    empty
    {
        type            empty;
    }
}


// ************************************************************************* //
