/*--------------------------------*- C++ -*----------------------------------*\
  =========                 |
  \\      /  F ield         | OpenFOAM: The Open Source CFD Toolbox
   \\    /   O peration     | Website:  https://openfoam.org
    \\  /    A nd           | Version:  7
     \\/     M anipulation  |
\*---------------------------------------------------------------------------*/
FoamFile
{
    version     2.0;
    format      ascii;
    class       volVectorField;
    location    "8";
    object      U;
}
// * * * * * * * * * * * * * * * * * * * * * * * * * * * * * * * * * * * * * //

dimensions      [0 1 -1 0 0 0 0];

internalField   nonuniform List<vector> 
8800
(
(0.979681 -0.0914457 0)
(1.00208 -0.058801 0)
(0.999249 -0.0319213 0)
(0.999769 -0.0161777 0)
(1.00016 -0.00852557 0)
(1.00029 -0.00480506 0)
(1.00019 -0.00271115 0)
(1.0001 -0.00146262 0)
(1.00002 -0.000667678 0)
(1.00004 -0.00012296 0)
(1.00001 0.000436063 0)
(1.00006 0.00109078 0)
(1.00015 0.00208468 0)
(1.00024 0.00368735 0)
(1.00027 0.00642042 0)
(0.999976 0.0116932 0)
(0.999533 0.0228182 0)
(0.998926 0.0430903 0)
(1.00681 0.079073 0)
(0.774962 0.0478385 0)
(0.35996 -0.0146626 0)
(1.04732 -0.07181 0)
(1.08892 -0.0656469 0)
(1.05028 -0.0508943 0)
(1.02601 -0.0375586 0)
(1.01261 -0.0252468 0)
(1.00645 -0.0159791 0)
(1.00363 -0.00968747 0)
(1.00215 -0.00525918 0)
(1.00147 -0.00191238 0)
(1.00138 0.000843645 0)
(1.00174 0.00387671 0)
(1.00278 0.00759902 0)
(1.00477 0.012774 0)
(1.00887 0.0203895 0)
(1.0182 0.0313112 0)
(1.03666 0.0444822 0)
(1.06813 0.0577677 0)
(1.09522 0.0704948 0)
(0.847058 0.0553515 0)
(0.221084 -0.00118929 0)
(1.07707 -0.0476029 0)
(1.09879 -0.045329 0)
(1.06389 -0.0366167 0)
(1.03962 -0.0296422 0)
(1.02335 -0.0229858 0)
(1.01332 -0.0163312 0)
(1.0078 -0.0104105 0)
(1.00507 -0.00545555 0)
(1.00396 -0.000814981 0)
(1.00429 0.0038255 0)
(1.00607 0.00843128 0)
(1.00996 0.0137695 0)
(1.01749 0.0200627 0)
(1.0304 0.026679 0)
(1.05039 0.0332854 0)
(1.07953 0.0406261 0)
(1.10619 0.0484673 0)
(0.947665 0.0391652 0)
(0.220839 0.00119677 0)
(0.183692 -0.000470616 0)
(1.0273 -0.0304194 0)
(1.10752 -0.0351576 0)
(1.07749 -0.0300672 0)
(1.05174 -0.0246343 0)
(1.03445 -0.019665 0)
(1.02291 -0.0150993 0)
(1.01528 -0.0104879 0)
(1.0108 -0.00572467 0)
(1.00897 -0.000731642 0)
(1.00948 0.00430582 0)
(1.01251 0.00904868 0)
(1.01839 0.0136202 0)
(1.02776 0.0180081 0)
(1.04178 0.0225923 0)
(1.06286 0.0276532 0)
(1.09447 0.033294 0)
(1.09907 0.0355275 0)
(0.844527 0.0191998 0)
(0.183288 0.000479449 0)
(0.170241 -9.07968e-05 0)
(0.979307 -0.0136613 0)
(1.1041 -0.0216351 0)
(1.08336 -0.0223081 0)
(1.05569 -0.0213464 0)
(1.03757 -0.0189951 0)
(1.02576 -0.0155202 0)
(1.01812 -0.0112442 0)
(1.01351 -0.00630284 0)
(1.01157 -0.000723562 0)
(1.01201 0.00488903 0)
(1.01511 0.0100187 0)
(1.02105 0.014449 0)
(1.03052 0.018196 0)
(1.04508 0.02097 0)
(1.06771 0.0225682 0)
(1.09851 0.0227985 0)
(1.07794 0.0194913 0)
(0.781386 0.00645404 0)
(0.169651 9.99131e-05 0)
(0.167606 2.01561e-05 0)
(0.946846 -0.00587324 0)
(1.08975 -0.0143654 0)
(1.08144 -0.0189869 0)
(1.05788 -0.0199528 0)
(1.04298 -0.0190992 0)
(1.03226 -0.0163388 0)
(1.02482 -0.0122123 0)
(1.02001 -0.00688224 0)
(1.01763 -0.000595307 0)
(1.01824 0.00576874 0)
(1.02158 0.0114019 0)
(1.02746 0.015905 0)
(1.03629 0.0190997 0)
(1.0487 0.0207297 0)
(1.06747 0.0205241 0)
(1.09083 0.0176894 0)
(1.05264 0.0108518 0)
(0.753128 0.00214156 0)
(0.166768 -1.04183e-05 0)
(0.167059 2.95897e-05 0)
(0.925561 -0.00270655 0)
(1.06936 -0.00992143 0)
(1.07191 -0.0162591 0)
(1.05659 -0.0192035 0)
(1.04418 -0.0187653 0)
(1.03528 -0.0163995 0)
(1.02878 -0.0123089 0)
(1.02429 -0.00692522 0)
(1.0219 -0.000312997 0)
(1.02241 0.00649504 0)
(1.02548 0.012244 0)
(1.0307 0.016642 0)
(1.03817 0.0195038 0)
(1.0485 0.0205625 0)
(1.06258 0.0192645 0)
(1.07525 0.014339 0)
(1.0282 0.00653703 0)
(0.739257 0.000879837 0)
(0.165924 -1.81981e-05 0)
(0.167135 1.95663e-05 0)
(0.91331 -0.00121777 0)
(1.05196 -0.00573342 0)
(1.06159 -0.0108295 0)
(1.05377 -0.0139209 0)
(1.04605 -0.014621 0)
(1.0394 -0.0132988 0)
(1.03386 -0.0102405 0)
(1.0297 -0.00569515 0)
(1.02746 0.00025433 0)
(1.02776 0.00642207 0)
(1.03047 0.0113951 0)
(1.03489 0.0147788 0)
(1.04072 0.0165145 0)
(1.04774 0.0164425 0)
(1.05563 0.0141066 0)
(1.05996 0.00946522 0)
(1.01025 0.00370075 0)
(0.732269 0.000484189 0)
(0.165628 -6.99014e-07 0)
(0.167231 1.69357e-05 0)
(0.907235 -0.000460514 0)
(1.04119 -0.00274616 0)
(1.05356 -0.00583712 0)
(1.05018 -0.00815341 0)
(1.04579 -0.009163 0)
(1.04137 -0.00871972 0)
(1.03721 -0.00680428 0)
(1.03377 -0.00347511 0)
(1.0318 0.00109777 0)
(1.03183 0.00580037 0)
(1.03387 0.00934804 0)
(1.03698 0.011404 0)
(1.04091 0.0119357 0)
(1.04507 0.0110187 0)
(1.04898 0.00875188 0)
(1.04892 0.00542575 0)
(0.999687 0.00203521 0)
(0.728482 0.000320044 0)
(0.165289 5.23231e-06 0)
(0.167483 1.9963e-05 0)
(0.904683 -3.63344e-05 0)
(1.03581 -0.00101918 0)
(1.04889 -0.00255487 0)
(1.0476 -0.00389579 0)
(1.04521 -0.00463648 0)
(1.0424 -0.00453349 0)
(1.03942 -0.00339949 0)
(1.03668 -0.0011497 0)
(1.03488 0.00201944 0)
(1.03459 0.00521697 0)
(1.03587 0.00738149 0)
(1.03782 0.00830833 0)
(1.04017 0.00810761 0)
(1.0424 0.0069884 0)
(1.04414 0.00521571 0)
(1.04231 0.00311307 0)
(0.994007 0.00122501 0)
(0.726259 0.000250555 0)
(0.164997 8.57502e-06 0)
(0.167846 2.15895e-05 0)
(0.903949 0.000222564 0)
(1.03351 -0.000101607 0)
(1.04664 -0.000727363 0)
(1.0462 -0.00131299 0)
(1.04483 -0.00162907 0)
(1.04302 -0.00148505 0)
(1.04089 -0.000696166 0)
(1.03872 0.000835809 0)
(1.03701 0.00297175 0)
(1.03637 0.00500151 0)
(1.03689 0.00612644 0)
(1.03787 0.00635449 0)
(1.03907 0.00582557 0)
(1.04013 0.00477345 0)
(1.04084 0.00345443 0)
(1.03839 0.00208891 0)
(0.990708 0.000930407 0)
(0.72464 0.000255268 0)
(0.164659 1.3869e-05 0)
(0.168317 2.41482e-05 0)
(0.904177 0.000377177 0)
(1.03286 0.0004397 0)
(1.04589 0.000347649 0)
(1.04578 0.000277847 0)
(1.04488 0.000351342 0)
(1.0436 0.000683714 0)
(1.04196 0.00139482 0)
(1.04011 0.00254859 0)
(1.03838 0.00401928 0)
(1.03734 0.00524965 0)
(1.03714 0.00576402 0)
(1.03744 0.00547611 0)
(1.03787 0.00476437 0)
(1.03826 0.00379199 0)
(1.03847 0.00273458 0)
(1.03577 0.0017242 0)
(0.9884 0.000871898 0)
(0.723161 0.000291782 0)
(0.164236 1.93528e-05 0)
(0.1689 3.00586e-05 0)
(0.905123 0.000553031 0)
(1.03318 0.000865406 0)
(1.0461 0.00111185 0)
(1.0461 0.00140646 0)
(1.0454 0.00180937 0)
(1.04435 0.00237774 0)
(1.04292 0.00316432 0)
(1.04117 0.00417022 0)
(1.03928 0.00524739 0)
(1.03782 0.00592971 0)
(1.03703 0.00592248 0)
(1.0367 0.00538938 0)
(1.0366 0.00452907 0)
(1.03658 0.00355368 0)
(1.03651 0.00258645 0)
(1.03368 0.00170169 0)
(0.986416 0.000943051 0)
(0.721586 0.000353208 0)
(0.163697 2.56751e-05 0)
(0.169647 3.78797e-05 0)
(0.906637 0.000742857 0)
(1.0342 0.00127136 0)
(1.047 0.00178658 0)
(1.04702 0.00238017 0)
(1.04636 0.00308308 0)
(1.04535 0.00391216 0)
(1.04392 0.00486428 0)
(1.04207 0.0058762 0)
(1.03988 0.00674803 0)
(1.0379 0.00705412 0)
(1.03656 0.00666385 0)
(1.03572 0.00586399 0)
(1.03521 0.0048475 0)
(1.0349 0.00378585 0)
(1.03464 0.0027825 0)
(1.03171 0.00188517 0)
(0.984411 0.00110177 0)
(0.719757 0.000436687 0)
(0.163014 3.30499e-05 0)
(0.170598 4.78994e-05 0)
(0.908751 0.00096781 0)
(1.03585 0.00171683 0)
(1.04852 0.00248986 0)
(1.04849 0.00337353 0)
(1.04777 0.00438328 0)
(1.04667 0.00550805 0)
(1.04508 0.00669756 0)
(1.04295 0.00782499 0)
(1.0403 0.00862074 0)
(1.03771 0.00865992 0)
(1.03578 0.00795649 0)
(1.03446 0.00685975 0)
(1.0336 0.00561279 0)
(1.03303 0.00437619 0)
(1.03262 0.00323742 0)
(1.02958 0.00223065 0)
(0.98216 0.00134091 0)
(0.717539 0.000546362 0)
(0.162151 4.20552e-05 0)
(0.171814 6.12413e-05 0)
(0.911553 0.0012518 0)
(1.03816 0.00225282 0)
(1.05065 0.00330726 0)
(1.05053 0.00450935 0)
(1.04968 0.00586454 0)
(1.04837 0.00733886 0)
(1.04649 0.00883919 0)
(1.0439 0.0101719 0)
(1.04061 0.0109819 0)
(1.03727 0.0108082 0)
(1.03468 0.00978414 0)
(1.03287 0.00834508 0)
(1.03164 0.0067911 0)
(1.03083 0.00529031 0)
(1.03027 0.00392721 0)
(1.02712 0.0027289 0)
(0.979479 0.00166304 0)
(0.714792 0.000686034 0)
(0.161061 5.30869e-05 0)
(0.173378 7.88019e-05 0)
(0.915198 0.0016165 0)
(1.04121 0.00292631 0)
(1.05349 0.00431626 0)
(1.05323 0.00589639 0)
(1.05217 0.00766498 0)
(1.05056 0.00956648 0)
(1.04822 0.0114626 0)
(1.045 0.0130853 0)
(1.04085 0.0139734 0)
(1.03658 0.0135976 0)
(1.03322 0.012205 0)
(1.03084 0.0103532 0)
(1.02921 0.00840094 0)
(1.02814 0.00654095 0)
(1.02741 0.0048635 0)
(1.02413 0.00339259 0)
(0.976188 0.00207976 0)
(0.711357 0.000861977 0)
(0.159691 6.66865e-05 0)
(0.1754 0.00010215 0)
(0.919904 0.00209206 0)
(1.04516 0.00379581 0)
(1.05717 0.00560529 0)
(1.05672 0.00765158 0)
(1.05538 0.00993059 0)
(1.05333 0.012364 0)
(1.05036 0.0147596 0)
(1.04629 0.0167586 0)
(1.04103 0.0177704 0)
(1.03561 0.0171705 0)
(1.03132 0.0153306 0)
(1.02826 0.0129629 0)
(1.02617 0.0105007 0)
(1.0248 0.00817272 0)
(1.02387 0.00608105 0)
(1.02042 0.00424932 0)
(0.97209 0.00261082 0)
(0.707044 0.00108319 0)
(0.15797 8.35326e-05 0)
(0.178035 0.000134102 0)
(0.925971 0.00272285 0)
(1.05022 0.0049438 0)
(1.0619 0.0072879 0)
(1.06119 0.0099144 0)
(1.05944 0.0128314 0)
(1.0568 0.0159339 0)
(1.053 0.0189572 0)
(1.04781 0.021426 0)
(1.04114 0.0225906 0)
(1.03428 0.0217103 0)
(1.02885 0.0193108 0)
(1.02498 0.0162924 0)
(1.02234 0.0131848 0)
(1.02061 0.010262 0)
(1.01945 0.00764048 0)
(1.0158 0.00534244 0)
(0.966953 0.00328209 0)
(0.70162 0.00136021 0)
(0.155813 0.00010449 0)
(0.181505 0.000180368 0)
(0.933823 0.00358272 0)
(1.05672 0.00649151 0)
(1.06797 0.00950534 0)
(1.0669 0.0128427 0)
(1.0646 0.0165647 0)
(1.06113 0.0205215 0)
(1.05621 0.0243345 0)
(1.04956 0.0273744 0)
(1.0411 0.0287012 0)
(1.03247 0.0274472 0)
(1.02565 0.0243373 0)
(1.02081 0.0205006 0)
(1.0175 0.0165838 0)
(1.01533 0.0129169 0)
(1.01391 0.00963151 0)
(1.01002 0.00674019 0)
(0.96049 0.00413537 0)
(0.694785 0.00171051 0)
(0.153112 0.000131502 0)
(0.186142 0.000250176 0)
(0.944099 0.00478875 0)
(1.0652 0.00859414 0)
(1.07592 0.0124024 0)
(1.0743 0.0166088 0)
(1.07117 0.0213776 0)
(1.06656 0.0264469 0)
(1.06014 0.0312503 0)
(1.05158 0.0349623 0)
(1.04086 0.0364283 0)
(1.03004 0.0346609 0)
(1.02154 0.0306475 0)
(1.01551 0.0257902 0)
(1.01139 0.0208718 0)
(1.00869 0.0162908 0)
(1.00694 0.012191 0)
(1.00275 0.00855762 0)
(0.952336 0.00524484 0)
(0.686136 0.00216446 0)
(0.149725 0.000168275 0)
(0.192453 0.000354605 0)
(0.957744 0.00650455 0)
(1.07651 0.0114477 0)
(1.08652 0.0161873 0)
(1.08404 0.0215286 0)
(1.07969 0.0277204 0)
(1.07347 0.0342299 0)
(1.06499 0.0402257 0)
(1.05394 0.0446651 0)
(1.04037 0.0461749 0)
(1.02687 0.0436896 0)
(1.01633 0.0385344 0)
(1.00885 0.0324192 0)
(1.00372 0.0262755 0)
(1.00035 0.0205889 0)
(0.998181 0.0155152 0)
(0.993603 0.0109826 0)
(0.942026 0.00675044 0)
(0.675137 0.00277688 0)
(0.145463 0.00022057 0)
(0.201256 0.000512684 0)
(0.976019 0.00904009 0)
(1.09165 0.0154735 0)
(1.10066 0.021429 0)
(1.09689 0.028394 0)
(1.09081 0.0365003 0)
(1.08236 0.0447401 0)
(1.07108 0.0520167 0)
(1.05676 0.0570978 0)
(1.03961 0.0584163 0)
(1.02286 0.0549133 0)
(1.00987 0.0483321 0)
(1.00061 0.0406928 0)
(0.994204 0.0330677 0)
(0.989938 0.0260454 0)
(0.987158 0.0198182 0)
(0.982058 0.0142345 0)
(0.929054 0.00884479 0)
(0.661209 0.00362508 0)
(0.140101 0.000291258 0)
(0.213912 0.00078138 0)
(1.00048 0.0131441 0)
(1.11158 0.0215298 0)
(1.11916 0.0292224 0)
(1.11352 0.0384962 0)
(1.10499 0.0489502 0)
(1.09337 0.0590296 0)
(1.07835 0.0674703 0)
(1.05989 0.0728995 0)
(1.03841 0.0736156 0)
(1.01783 0.068685 0)
(1.00195 0.0603501 0)
(0.990546 0.0509116 0)
(0.982533 0.0415349 0)
(0.977049 0.0328948 0)
(0.97336 0.0252575 0)
(0.967524 0.0184202 0)
(0.912917 0.0116467 0)
(0.643918 0.00478032 0)
(0.1334 0.00037479 0)
(0.23274 0.00130505 0)
(1.03397 0.0202932 0)
(1.13819 0.0311318 0)
(1.14326 0.0414489 0)
(1.1344 0.0537063 0)
(1.12196 0.0666128 0)
(1.10585 0.0783022 0)
(1.086 0.0874729 0)
(1.0626 0.0926703 0)
(1.03618 0.0921624 0)
(1.01132 0.0853021 0)
(0.992206 0.0748826 0)
(0.978328 0.0634173 0)
(0.968357 0.0520792 0)
(0.96129 0.0415583 0)
(0.956328 0.0321943 0)
(0.949412 0.023768 0)
(0.892791 0.0153082 0)
(0.622669 0.00634161 0)
(0.125064 0.000470013 0)
(0.26111 0.00252515 0)
(1.08229 0.0340052 0)
(1.17423 0.048147 0)
(1.17418 0.0621456 0)
(1.15961 0.077463 0)
(1.14109 0.0921331 0)
(1.11885 0.104456 0)
(1.09303 0.113233 0)
(1.06395 0.117099 0)
(1.03219 0.114434 0)
(1.00284 0.105046 0)
(0.980308 0.0922696 0)
(0.963716 0.0786869 0)
(0.951456 0.0653794 0)
(0.942393 0.0529654 0)
(0.935656 0.0417912 0)
(0.927014 0.0316438 0)
(0.867111 0.0210084 0)
(0.59588 0.00858872 0)
(0.115195 0.000553048 0)
(0.302105 0.0102732 -1.6468e-20)
(1.14613 0.0622686 -1.26476e-20)
(1.21953 0.0797698 3.5984e-21)
(1.20966 0.0970415 0)
(1.18696 0.113505 2.03226e-35)
(1.16083 0.127926 -1.27408e-22)
(1.13138 0.139122 -7.88827e-22)
(1.09878 0.146048 0)
(1.06342 0.147494 3.91235e-35)
(1.02582 0.141968 -3.13976e-21)
(0.991534 0.129742 0)
(0.965091 0.114627 -4.69616e-21)
(0.945197 0.0991443 -1.44801e-20)
(0.929917 0.0842365 -7.04796e-21)
(0.917934 0.0705044 -2.24047e-21)
(0.908209 0.0582847 -1.36389e-21)
(0.896432 0.0473407 0)
(0.833253 0.0352776 9.91918e-22)
(0.560727 0.0192597 1.17703e-21)
(0.10524 0.00323303 2.09578e-20)
(0.324409 0.0284733 -2.83062e-20)
(1.19798 0.110494 5.17226e-22)
(1.26068 0.130562 -1.63e-21)
(1.24178 0.146186 0)
(1.21136 0.160682 3.20422e-21)
(1.17789 0.173035 2.31824e-21)
(1.14149 0.182102 -2.79963e-22)
(1.10225 0.18683 -4.40406e-21)
(1.06038 0.185948 0)
(1.01625 0.177932 1.31873e-20)
(0.975938 0.163449 1.49784e-20)
(0.944337 0.146732 4.89116e-21)
(0.919865 0.130281 1.9699e-20)
(0.900293 0.114853 2.94113e-20)
(0.884131 0.100968 0)
(0.870161 0.0890774 4.43573e-20)
(0.853568 0.0788221 6.5448e-20)
(0.790621 0.0666333 7.3447e-20)
(0.536263 0.0441615 -8.62143e-20)
(0.103782 0.00895556 -1.56415e-21)
(0.313888 0.0458207 0)
(1.228 0.172726 -8.18678e-21)
(1.29134 0.193614 0)
(1.26644 0.205266 1.36537e-20)
(1.22977 0.215766 0)
(1.19012 0.224335 8.50835e-21)
(1.1477 0.229958 -3.19617e-22)
(1.10257 0.231416 -5.19357e-21)
(1.05492 0.227433 -1.53329e-21)
(1.00496 0.216558 6.20121e-21)
(0.959313 0.199917 3.51295e-20)
(0.923376 0.182065 -2.42937e-22)
(0.895342 0.16537 -1.48369e-20)
(0.872719 0.150448 -2.91351e-20)
(0.853967 0.137612 3.55954e-20)
(0.837904 0.127096 -6.41067e-20)
(0.820559 0.11864 -8.84802e-21)
(0.764209 0.106587 0)
(0.532762 0.075106 4.50215e-22)
(0.110263 0.0160025 0)
(0.300446 0.0605755 -2.02346e-19)
(1.24079 0.237801 8.31093e-20)
(1.30987 0.260966 4.42771e-20)
(1.28173 0.268862 -8.73618e-21)
(1.24107 0.274864 1.3455e-20)
(1.19707 0.279117 -2.01094e-20)
(1.15003 0.280657 -1.76584e-21)
(1.10012 0.278322 0)
(1.0476 0.270851 -2.19806e-20)
(0.992803 0.256835 0)
(0.94296 0.237883 -1.7614e-20)
(0.903876 0.218796 -2.56272e-20)
(0.873562 0.20173 -1.65982e-20)
(0.849395 0.187021 -2.16689e-20)
(0.829676 0.17475 0)
(0.813103 0.165004 0)
(0.796269 0.157403 -5.92458e-20)
(0.745038 0.144859 1.18846e-20)
(0.526811 0.103279 -6.98699e-21)
(0.111214 0.0221069 -8.18225e-21)
(0.288579 0.073625 1.46894e-19)
(1.24208 0.30197 0)
(1.31864 0.328609 -1.22191e-19)
(1.28876 0.333078 -3.22624e-20)
(1.24549 0.334797 -2.57576e-20)
(1.19849 0.334819 0)
(1.14816 0.332256 -5.59211e-21)
(1.09472 0.326045 3.14121e-21)
(1.03845 0.314948 8.71761e-21)
(0.979692 0.297626 3.12549e-20)
(0.926338 0.276136 0)
(0.884801 0.255497 -5.55806e-20)
(0.852961 0.237631 -3.60415e-20)
(0.827924 0.22265 -2.18172e-20)
(0.807835 0.2104 1.44814e-19)
(0.791315 0.20078 1.78455e-20)
(0.775142 0.193179 8.55825e-20)
(0.727034 0.179316 -4.16585e-19)
(0.517259 0.12808 2.49698e-19)
(0.110153 0.0275252 -3.01917e-19)
(0.279247 0.0855393 1.5308e-19)
(1.23618 0.363304 -2.83913e-20)
(1.32006 0.394511 2.1175e-20)
(1.2894 0.395991 5.83645e-20)
(1.24448 0.393749 3.69188e-20)
(1.19542 0.389767 1.5706e-21)
(1.14268 0.383313 5.57221e-21)
(1.08649 0.373395 3.52491e-22)
(1.02719 0.358775 -1.89462e-20)
(0.965188 0.338117 0)
(0.909062 0.313896 -2.35307e-20)
(0.865694 0.291379 -1.4994e-21)
(0.832824 0.272315 -4.04853e-20)
(0.807348 0.256574 0)
(0.787234 0.243807 -3.16193e-20)
(0.770977 0.233748 -7.71716e-20)
(0.755389 0.225649 2.1472e-19)
(0.709287 0.210118 -2.15579e-19)
(0.50619 0.150237 3.07932e-19)
(0.108022 0.0322815 -3.21193e-19)
(0.272194 0.0966396 -4.84961e-22)
(1.22616 0.421121 3.42251e-20)
(1.31602 0.457486 1.00334e-19)
(1.28508 0.456438 -3.52762e-20)
(1.23912 0.450646 2.09611e-20)
(1.1887 0.443042 0)
(1.13427 0.433029 1.18517e-20)
(1.07607 0.419654 1.71211e-21)
(1.01444 0.401718 -7.75999e-21)
(0.949838 0.37782 0)
(0.89135 0.350768 -2.24449e-20)
(0.84643 0.326116 -3.26744e-20)
(0.812774 0.305467 4.43579e-20)
(0.78703 0.288548 -2.8702e-20)
(0.766988 0.274882 -1.39774e-19)
(0.751017 0.264055 8.635e-20)
(0.735923 0.2552 2.76256e-20)
(0.691406 0.237925 0)
(0.494184 0.170028 -2.99743e-19)
(0.105254 0.0364035 -1.10333e-20)
(0.266872 0.107279 2.46485e-20)
(1.21383 0.475235 -3.90315e-20)
(1.30794 0.51688 -5.4567e-20)
(1.27705 0.513704 -1.08915e-19)
(1.23057 0.504873 1.00291e-19)
(1.17937 0.49411 -5.68151e-20)
(1.12383 0.48091 -2.55195e-20)
(1.06411 0.464381 3.96425e-21)
(1.00058 0.443388 9.90822e-21)
(0.933714 0.41644 -7.47496e-20)
(0.873119 0.38653 -2.82601e-20)
(0.826788 0.359509 0)
(0.792433 0.336968 4.87184e-20)
(0.766502 0.318538 6.0767e-20)
(0.746589 0.303648 7.522e-20)
(0.730949 0.2918 -9.47013e-20)
(0.716345 0.282004 -2.86399e-20)
(0.6732 0.26288 3.41059e-20)
(0.481286 0.187523 0)
(0.101993 0.0398917 -2.42042e-20)
(0.262766 0.117541 -2.82886e-19)
(1.2004 0.525753 1.78148e-19)
(1.29704 0.572484 5.9632e-20)
(1.26635 0.567526 -8.25442e-20)
(1.21966 0.556089 5.9241e-20)
(1.16801 0.542587 -3.71457e-21)
(1.11175 0.526595 2.61135e-20)
(1.05096 0.507274 9.96144e-22)
(0.985901 0.483512 -1.36987e-20)
(0.917059 0.45378 7.73647e-23)
(0.854451 0.421088 -8.29941e-20)
(0.806705 0.391555 8.47005e-20)
(0.771618 0.36685 -5.51371e-20)
(0.745481 0.34659 6.92146e-20)
(0.725713 0.330201 0)
(0.710431 0.317113 -5.18311e-20)
(0.696342 0.306139 -1.32922e-21)
(0.654451 0.285146 -1.50299e-19)
(0.46754 0.202874 -2.22593e-20)
(0.098256 0.042746 0)
(0.259477 0.127342 0)
(1.18649 0.572896 1.9141e-19)
(1.28423 0.624343 1.3798e-19)
(1.25378 0.617889 9.26391e-20)
(1.20713 0.60422 5.79389e-20)
(1.15529 0.588341 0)
(1.0986 0.569889 2.13487e-20)
(1.03707 0.548142 -1.35993e-21)
(0.97081 0.521989 2.79919e-20)
(0.900156 0.48978 -8.61304e-21)
(0.835499 0.45449 -6.11751e-20)
(0.786165 0.422372 4.19975e-20)
(0.750196 0.395251 -2.13362e-21)
(0.723759 0.372857 7.31726e-20)
(0.70412 0.354677 4.83915e-20)
(0.689217 0.340103 -1.13443e-19)
(0.675705 0.327787 1.38123e-19)
(0.635009 0.304546 4.16002e-20)
(0.452743 0.215963 1.72559e-19)
(0.0939116 0.0447737 -4.61323e-19)
(0.256794 0.136829 -7.14169e-20)
(1.1725 0.616869 1.09782e-19)
(1.27018 0.672603 -8.48325e-20)
(1.23999 0.664868 -1.06584e-19)
(1.19354 0.649265 0)
(1.14172 0.631304 4.74336e-20)
(1.08483 0.610728 -6.4069e-20)
(1.02279 0.586879 -8.41893e-21)
(0.955617 0.558747 0)
(0.883288 0.52444 -1.37263e-19)
(0.816421 0.486824 1.67637e-19)
(0.76523 0.452123 0)
(0.728079 0.42236 6.63081e-20)
(0.701168 0.397516 -2.24223e-21)
(0.681573 0.377239 -1.54446e-19)
(0.667045 0.360895 6.06128e-20)
(0.654116 0.347024 0)
(0.614531 0.321431 2.26802e-19)
(0.436788 0.22679 0)
(0.0890481 0.0460819 -2.21901e-19)
(0.254503 0.145974 7.90628e-20)
(1.15871 0.657798 1.24921e-19)
(1.2554 0.717397 -8.8887e-20)
(1.22546 0.708575 0)
(1.17925 0.691279 7.82033e-20)
(1.12764 0.671484 0)
(1.07077 0.649063 8.05223e-20)
(1.00846 0.62346 1.17214e-20)
(0.940559 0.593731 7.5482e-22)
(0.866728 0.557846 -6.75012e-20)
(0.797465 0.518228 1.59082e-20)
(0.743971 0.481051 0)
(0.705245 0.448471 -1.42158e-19)
(0.677582 0.420829 2.35377e-21)
(0.657851 0.398089 0)
(0.643658 0.37968 2.56394e-21)
(0.631333 0.363977 2.07249e-19)
(0.592773 0.335738 -2.0118e-19)
(0.419427 0.23526 5.94867e-20)
(0.0834912 0.0465637 0)
(0.252298 0.154635 0)
(1.14506 0.695957 1.38991e-19)
(1.24028 0.759038 1.03332e-19)
(1.21052 0.749189 -1.9799e-21)
(1.16463 0.730363 4.79604e-20)
(1.11333 0.708938 1.12464e-19)
(1.05669 0.68492 -2.69413e-20)
(0.994354 0.657877 8.00484e-21)
(0.925902 0.626939 1.07869e-20)
(0.850676 0.590012 -1.03171e-19)
(0.778851 0.54887 -3.57254e-21)
(0.722557 0.509421 -5.70053e-20)
(0.681731 0.473932 2.35534e-19)
(0.652881 0.443177 -2.90845e-21)
(0.632831 0.417475 -1.248e-19)
(0.618859 0.396516 -2.28298e-19)
(0.607047 0.378738 0)
(0.569456 0.347532 0)
(0.40044 0.24125 6.66078e-20)
(0.0771677 0.0461223 -3.8837e-20)
(0.250502 0.162936 9.7089e-20)
(1.1317 0.731643 -3.01957e-19)
(1.22501 0.797668 -1.10339e-19)
(1.19534 0.786879 0)
(1.14991 0.766633 -1.39507e-21)
(1.09902 0.743753 1.32928e-19)
(1.04276 0.718349 -8.59325e-20)
(0.980635 0.690131 -5.42379e-20)
(0.911884 0.658382 4.24687e-21)
(0.835312 0.620946 -7.63089e-20)
(0.760769 0.578949 -1.4227e-19)
(0.701184 0.53756 1.52604e-19)
(0.657617 0.499174 0)
(0.626982 0.464988 -5.67333e-20)
(0.606213 0.435811 -1.38588e-19)
(0.592303 0.411745 -1.67783e-19)
(0.580882 0.391278 -2.04715e-19)
(0.544325 0.356725 6.17445e-20)
(0.379372 0.244468 -3.61229e-20)
(0.0699724 0.0445945 7.18952e-22)
(0.248627 0.170785 0)
(1.11878 0.764952 0)
(1.20976 0.833428 2.12401e-21)
(1.18014 0.821786 0)
(1.13523 0.800236 -1.78446e-19)
(1.08486 0.776033 -1.15952e-19)
(1.02914 0.749414 0)
(0.967417 0.72024 -1.06925e-20)
(0.898657 0.688037 -9.21133e-21)
(0.820844 0.650693 -1.74471e-19)
(0.743376 0.608577 0)
(0.68009 0.565782 -9.87107e-20)
(0.632977 0.52469 -3.43638e-21)
(0.599674 0.48681 -2.82309e-21)
(0.577309 0.4533 1.50003e-19)
(0.563374 0.425871 -2.05229e-22)
(0.552785 0.401835 -4.50631e-19)
(0.517236 0.363247 1.36625e-19)
(0.355922 0.244465 4.07851e-20)
(0.0618153 0.0417886 0)
(0.246705 0.178155 -3.53318e-19)
(1.10608 0.796304 -1.83337e-19)
(1.19463 0.866638 -2.72874e-19)
(1.16509 0.85409 3.85959e-19)
(1.1207 0.831313 -3.32447e-19)
(1.07096 0.805891 0)
(1.01593 0.778196 -7.10189e-20)
(0.954814 0.748234 2.13589e-20)
(0.886296 0.715879 3.694e-21)
(0.8075 0.67925 1.43942e-20)
(0.72702 0.637723 1.77518e-19)
(0.659589 0.594354 -3.35782e-20)
(0.608026 0.550814 -1.48689e-19)
(0.570623 0.508965 -6.945e-20)
(0.545998 0.470903 8.47232e-20)
(0.531687 0.439035 -1.12819e-22)
(0.52201 0.411034 1.25902e-19)
(0.486615 0.367243 -2.99686e-19)
(0.328888 0.240958 3.60624e-19)
(0.0526341 0.0376643 5.19122e-20)
(0.244689 0.185097 1.29021e-19)
(1.09372 0.82581 -9.94738e-20)
(1.17959 0.8974 5.19958e-21)
(1.15028 0.883949 2.16212e-19)
(1.10643 0.860025 7.67014e-20)
(1.0574 0.833451 2.30635e-19)
(1.00318 0.804774 -3.00281e-20)
(0.942889 0.774146 9.96639e-20)
(0.874905 0.741902 3.90893e-20)
(0.795458 0.706501 -8.84563e-20)
(0.712119 0.666445 0)
(0.639964 0.623408 -1.54611e-19)
(0.583054 0.577595 2.18732e-19)
(0.540244 0.53186 0)
(0.513146 0.489456 -1.82764e-19)
(0.497923 0.451078 1.15006e-19)
(0.487914 0.417736 -1.3785e-19)
(0.452315 0.367582 -1.67887e-19)
(0.29767 0.232942 -2.97845e-19)
(0.0422537 0.0319933 -2.32745e-19)
(0.242876 0.191726 -1.40947e-19)
(1.08167 0.853245 1.06336e-19)
(1.16483 0.925868 2.51117e-19)
(1.13576 0.911512 2.95878e-19)
(1.09249 0.88651 -1.61047e-19)
(1.04421 0.858849 1.57637e-19)
(0.990937 0.829243 -9.45492e-20)
(0.931662 0.798048 1.19029e-19)
(0.864537 0.766116 3.18362e-20)
(0.784881 0.732379 7.69866e-20)
(0.698823 0.694819 3.76064e-19)
(0.621245 0.652876 0)
(0.558545 0.605495 0)
(0.510248 0.557087 -8.08687e-20)
(0.47861 0.508883 0)
(0.460536 0.46481 2.52962e-19)
(0.449192 0.423983 3.05925e-19)
(0.413371 0.363973 0)
(0.261561 0.219471 0)
(0.0307507 0.0246825 2.58559e-19)
(0.240936 0.197842 1.54542e-19)
(1.06982 0.878815 1.25427e-19)
(1.15043 0.952206 1.79901e-19)
(1.12156 0.936966 -2.61932e-19)
(1.07892 0.910919 -1.78326e-19)
(1.03143 0.882212 -2.06995e-19)
(0.9792 0.851713 1.39927e-19)
(0.921148 0.82 1.5529e-21)
(0.855212 0.788495 -4.71007e-21)
(0.775856 0.756862 -7.04324e-21)
(0.687156 0.72277 1.90341e-19)
(0.603928 0.68273 0)
(0.535054 0.634802 2.25201e-19)
(0.481555 0.584557 1.717e-19)
(0.442329 0.531547 4.45731e-19)
(0.418692 0.477516 1.37488e-19)
(0.404501 0.427129 -1.72919e-19)
(0.369155 0.354461 -1.0284e-19)
(0.222273 0.199005 0)
(0.0201378 0.0164775 2.8658e-19)
(0.239347 0.2039 -3.37638e-19)
(1.05824 0.902668 0)
(1.13638 0.976554 1.99098e-19)
(1.10774 0.960447 -2.13385e-19)
(1.06574 0.933396 1.99787e-19)
(1.01907 0.903673 2.99167e-19)
(0.967975 0.872283 -3.20601e-19)
(0.911313 0.840065 4.76748e-21)
(0.846927 0.809056 0)
(0.768337 0.779906 -5.67744e-20)
(0.677285 0.75017 -3.90402e-19)
(0.588278 0.713138 2.10913e-20)
(0.51292 0.666221 3.09922e-19)
(0.452029 0.614508 0)
(0.403424 0.557455 3.01993e-19)
(0.369382 0.497209 0)
(0.348807 0.429135 0)
(0.314487 0.331675 -1.1719e-19)
(0.186656 0.162924 0)
(0.0281209 0.0147318 7.84257e-20)
(0.23763 0.209382 -3.66796e-19)
(1.04697 0.925018 0)
(1.12266 0.999118 3.20989e-19)
(1.09426 0.982201 0)
(1.05291 0.95421 -1.0749e-19)
(1.00704 0.923522 0)
(0.957136 0.891259 -2.31846e-20)
(0.90201 0.858581 -2.05121e-20)
(0.839504 0.828111 -5.85251e-21)
(0.762138 0.801819 -4.42693e-20)
(0.669385 0.777178 9.46569e-21)
(0.574857 0.743995 1.78949e-19)
(0.491549 0.699797 3.01461e-19)
(0.420654 0.648784 4.36689e-20)
(0.361605 0.589301 2.36529e-19)
(0.314761 0.52117 0)
(0.275153 0.437542 3.82349e-19)
(0.231153 0.291189 -2.32434e-19)
(0.1059 0.128005 2.71509e-19)
(-0.0581922 0.367726 -3.22883e-19)
(0.236076 0.214748 2.97731e-19)
(1.03581 0.946012 4.68088e-19)
(1.10916 1.02019 0)
(1.08099 1.0026 3.57862e-21)
(1.0402 0.973828 2.89996e-19)
(0.995047 0.942284 -5.7167e-19)
(0.946294 0.909185 -1.39381e-19)
(0.892811 0.876117 0)
(0.832511 0.846289 -6.6267e-20)
(0.757118 0.82348 9.9193e-22)
(0.663677 0.805358 0)
(0.563589 0.77813 0)
(0.470758 0.738244 2.66651e-19)
(0.38834 0.686306 -1.37389e-19)
(0.314295 0.631558 -2.35077e-19)
(0.252238 0.567536 0)
(0.170673 0.46198 1.94492e-19)
(0.066781 0.518994 -2.3537e-19)
(0.0580836 1.67597 -1.25876e-19)
(0.096891 2.70538 -1.59272e-19)
(0.234605 0.219317 -2.1637e-19)
(1.0249 0.965773 -5.86617e-19)
(1.09589 1.03976 1.82915e-19)
(1.06794 1.02158 1.77585e-19)
(1.02767 0.992123 0)
(0.98313 0.959791 -4.0716e-19)
(0.935533 0.92584 -2.30594e-19)
(0.883689 0.892223 1.30976e-20)
(0.825826 0.862987 -9.76112e-21)
(0.75347 0.844116 1.14414e-20)
(0.660384 0.833906 1.69604e-19)
(0.553951 0.816054 1.89551e-19)
(0.451593 0.780758 2.64406e-19)
(0.356111 0.729634 -3.1495e-19)
(0.270433 0.686877 -3.45843e-19)
(0.195266 0.629838 0)
(0.106241 0.86016 0)
(0.16056 2.38019 1.00422e-19)
(0.168683 3.13289 0)
(0.167101 3.35392 2.33331e-19)
(0.235726 0.223638 0)
(1.0142 0.984297 0)
(1.08276 1.05769 0)
(1.05488 1.03899 4.89042e-20)
(1.01509 1.00899 2.57458e-19)
(0.97111 0.976019 -3.08114e-19)
(0.924775 0.941155 -1.64461e-19)
(0.874592 0.906557 1.46528e-20)
(0.819524 0.877679 -1.25616e-19)
(0.751655 0.86334 -1.30771e-20)
(0.659205 0.863278 2.98492e-19)
(0.545895 0.855153 -2.29871e-20)
(0.433433 0.827904 3.00842e-20)
(0.327332 0.774722 4.49987e-20)
(0.242668 0.740948 1.12817e-21)
(0.166858 0.959539 1.87053e-21)
(0.210563 2.48137 -4.71809e-19)
(0.242913 3.24724 -1.79562e-19)
(0.22141 3.4141 8.29814e-20)
(0.19899 3.44441 -8.35222e-20)
(0.144879 0.176479 1.21942e-19)
(0.996173 1.00436 0)
(1.07017 1.07428 -3.54236e-19)
(1.04251 1.05554 -4.55743e-19)
(1.00317 1.0252 5.29536e-19)
(0.959709 0.991544 3.2607e-19)
(0.913895 0.955278 1.9273e-19)
(0.865503 0.919451 -2.37788e-19)
(0.813477 0.891557 1.24031e-19)
(0.751703 0.881424 0)
(0.661608 0.892115 1.20031e-19)
(0.542281 0.896206 -1.44128e-19)
(0.419044 0.877069 0)
(0.303837 0.823261 4.01314e-20)
(0.236168 0.904009 9.30443e-20)
(0.20909 2.07386 -1.12648e-19)
(0.316789 3.27366 1.23915e-19)
(0.296509 3.43641 5.72139e-20)
(0.250473 3.4701 6.56458e-20)
(0.218758 3.48511 7.23498e-20)
(0.28068 0.262522 -2.22833e-19)
(0.973848 1.00535 0)
(1.04968 1.09416 3.56914e-19)
(1.02375 1.07863 4.64208e-19)
(0.984088 1.04759 -5.39265e-19)
(0.940904 1.01267 -3.41266e-19)
(0.896586 0.975358 -2.8887e-19)
(0.851541 0.938114 -1.81042e-20)
(0.806669 0.909206 -1.68345e-19)
(0.754447 0.905487 -8.82461e-20)
(0.668515 0.937779 2.88651e-21)
(0.53816 0.972416 1.24076e-19)
(0.389396 0.966934 2.69664e-20)
(0.286928 1.04903 -3.63856e-20)
(0.321731 1.99764 -7.95271e-20)
(0.410326 3.25033 4.70319e-20)
(0.4029 3.47733 -3.3817e-20)
(0.357085 3.51547 -1.7995e-20)
(0.307149 3.55227 2.69516e-20)
(0.233902 3.54361 1.48276e-21)
(0.267404 0.257878 0)
(0.968497 1.02286 9.36392e-20)
(1.03826 1.11168 -7.03509e-20)
(1.01141 1.09531 -5.12823e-20)
(0.971567 1.0638 -3.51323e-19)
(0.92875 1.02798 3.32095e-19)
(0.885046 0.989091 1.93191e-19)
(0.842156 0.950188 -1.88359e-20)
(0.802681 0.921155 2.05795e-19)
(0.761714 0.921905 -2.06431e-20)
(0.686465 0.967801 -1.30055e-19)
(0.545337 1.0273 1.87724e-20)
(0.377605 1.04143 -2.48312e-20)
(0.328228 1.35617 -3.0079e-20)
(0.450987 2.8264 1.99525e-20)
(0.51148 3.44415 -5.10917e-22)
(0.454402 3.55382 -9.38333e-20)
(0.410712 3.59263 -9.67415e-20)
(0.333709 3.63461 1.19975e-19)
(0.255013 3.62067 5.47412e-20)
(0.249035 0.253834 2.29112e-19)
(0.96076 1.04359 6.24838e-19)
(1.02607 1.13053 -1.99126e-19)
(0.997918 1.11299 -1.93956e-19)
(0.957948 1.08068 0)
(0.915395 1.04361 4.78083e-19)
(0.872485 1.00288 2.91273e-19)
(0.832228 0.961921 -1.9643e-20)
(0.798692 0.931095 2.25324e-20)
(0.769777 0.934404 1.8983e-19)
(0.709281 1.00156 -1.94333e-20)
(0.566721 1.0888 -1.33339e-19)
(0.379889 1.14728 -1.85227e-19)
(0.410059 1.81843 1.72617e-19)
(0.576563 3.2505 5.97715e-20)
(0.592568 3.53324 0)
(0.527469 3.6075 0)
(0.464701 3.68895 1.14099e-19)
(0.37817 3.75618 0)
(0.272625 3.7275 2.11091e-19)
(0.235896 0.253163 -3.31742e-19)
(0.950995 1.06578 -5.15844e-19)
(1.01206 1.15023 0)
(0.9827 1.13125 3.16964e-21)
(0.942636 1.09783 -3.35587e-19)
(0.900235 1.05917 7.03343e-19)
(0.858218 1.01622 1.94069e-19)
(0.820531 0.97204 -2.22169e-20)
(0.793553 0.937267 2.20515e-19)
(0.779881 0.941635 -1.54187e-20)
(0.738629 1.02547 0)
(0.593015 1.1591 0)
(0.400733 1.29331 -1.65835e-19)
(0.525667 2.3303 4.36846e-20)
(0.696669 3.42151 -1.74935e-20)
(0.673589 3.58147 0)
(0.623716 3.68012 2.5678e-19)
(0.544185 3.7833 -4.00181e-19)