/*--------------------------------*- C++ -*----------------------------------*\
  =========                 |
  \\      /  F ield         | OpenFOAM: The Open Source CFD Toolbox
   \\    /   O peration     | Website:  https://openfoam.org
    \\  /    A nd           | Version:  7
     \\/     M anipulation  |
\*---------------------------------------------------------------------------*/
FoamFile
{
    version     2.0;
    format      ascii;
    class       volScalarField;
    location    "9.7";
    object      p;
}
// * * * * * * * * * * * * * * * * * * * * * * * * * * * * * * * * * * * * * //

dimensions      [1 -1 -2 0 0 0 0];

internalField   nonuniform List<scalar> 
19968
(
1
1
1
1
1
1
1
1
1
1
1
1
1
1
1
1
1
1
1
1
1
1
1
1
1
1
1
1
1
1
1
1
1
1
1
1
1
1
1
1
1
1
1
1
1
1
1
1
1.5609
8.07197
10.4518
10.451
10.5185
10.5731
10.6318
10.6903
10.7492
10.8081
10.8655
10.9199
10.9708
11.0176
11.0613
11.1053
11.1529
11.2032
11.2536
11.3027
11.35
11.3953
11.4387
11.4801
11.5195
11.5569
11.5928
11.6279
11.6623
11.6958
11.7283
11.7593
11.7887
11.8166
11.8428
11.8677
11.8913
11.9141
11.9361
11.9572
11.9767
11.9938
12.0077
12.0176
12.0234
12.0256
12.0256
12.0262
1
1
1
1
1
1
1
1
1
1
1
1
1
1
1
1
1
1
1
1
1
1
1
1
1
1
1
1
1
1
1
1
1
1
1
1
1
1
1
1
1
1
1
1
1
1
1
1
1.53097
7.99965
10.4223
10.4536
10.5202
10.5738
10.6314
10.6893
10.7478
10.8067
10.8643
10.9187
10.9695
11.016
11.0598
11.1038
11.151
11.2005
11.2499
11.2981
11.3447
11.3896
11.4328
11.4745
11.5145
11.5526
11.589
11.6242
11.6584
11.6917
11.7239
11.7548
11.7843
11.8122
11.8383
11.863
11.8863
11.9087
11.9304
11.9511
11.9703
11.9872
12.001
12.0109
12.0167
12.0188
12.0189
12.0195
1
1
1
1
1
1
1
1
1
1
1
1
1
1
1
1
1
1
1
1
1
1
1
1
1
1
1
1
1
1
1
1
1
1
1
1
1
1
1
1
1
1
1
1
1
1
1
1
1.46096
7.84302
10.4055
10.4476
10.5126
10.5667
10.6242
10.6822
10.7412
10.8008
10.8591
10.9137
10.9647
11.011
11.0549
11.099
11.1457
11.1943
11.2427
11.2898
11.3354
11.3795
11.4224
11.4642
11.5048
11.5438
11.581
11.6165
11.6507
11.6836
11.7156
11.7465
11.776
11.8038
11.8299
11.8542
11.8772
11.8992
11.9205
11.9411
11.9602
11.9771
11.9908
12.0006
12.0065
12.0091
12.0096
12.0104
1
1
1
1
1
1
1
1
1
1
1
1
1
1
1
1
1
1
1
1
1
1
1
1
1
1
1
1
1
1
1
1
1
1
1
1
1
1
1
1
1
1
1
1
1
1
1
1
1.36062
7.59191
10.3913
10.4395
10.5013
10.5554
10.6128
10.6714
10.7314
10.792
10.8512
10.9061
10.9572
11.0035
11.0475
11.0916
11.1376
11.1851
11.2322
11.2782
11.3226
11.3658
11.4081
11.45
11.4911
11.531
11.569
11.605
11.6392
11.672
11.7037
11.7344
11.7637
11.7912
11.8167
11.8402
11.8621
11.8831
11.9036
11.9236
11.9426
11.9595
11.9734
11.9835
11.99
11.9934
11.9948
11.9961
1
1
1
1
1
1
1
1
1
1
1
1
1
1
1
1
1
1
1
1
1
1
1
1
1
1
1
1
1
1
1
1
1
1
1
1
1
1
1
1
1
1
1
1
1
1
1
1
1.23211
7.25178
10.3834
10.4335
10.4888
10.5416
10.5979
10.6564
10.7171
10.7786
10.8388
10.8947
10.9464
10.9933
11.0377
11.082
11.1275
11.1739
11.2199
11.2647
11.308
11.3501
11.3916
11.433
11.4742
11.5146
11.5533
11.5898
11.6244
11.6575
11.6893
11.7201
11.7493
11.7766
11.8015
11.824
11.8448
11.8645
11.884
11.9032
11.9215
11.9377
11.9507
11.9601
11.966
11.9692
11.9708
11.972
1
1
1
1
1
1
1
1
1
1
1
1
1
1
1
1
1
1
1
1
1
1
1
1
1
1
1
1
1
1
1
1
1
1
1
1
1
1
1
1
1
1
1
1
1
1
1
1
1.02995
6.75123
10.3668
10.4254
10.4766
10.5314
10.5882
10.6476
10.709
10.7706
10.8303
10.8858
10.937
10.9837
11.0279
11.0716
11.1159
11.1606
11.2048
11.248
11.2896
11.33
11.3699
11.4099
11.45
11.4895
11.5277
11.5641
11.5987
11.6319
11.6639
11.6945
11.7234
11.75
11.7741
11.7956
11.8154
11.8344
11.8536
11.8731
11.892
11.9088
11.9223
11.9318
11.9379
11.9414
11.9432
11.9443
1
1
1
1
1
1
1
1
1
1
1
1
1
1
1
1
1
1
1
1
1
1
1
1
1
1
1
1
1
1
1
1
1
1
1
1
1
1
1
1
1
1
1
1
1
1
1
1
1.00027
6.04584
10.2816
10.3846
10.4334
10.4935
10.5511
10.6104
10.6709
10.7314
10.7901
10.8462
10.8984
10.9464
10.9914
11.0353
11.0795
11.1236
11.1676
11.2112
11.2532
11.2939
11.3334
11.3724
11.4112
11.4496
11.4871
11.5234
11.5586
11.5927
11.6255
11.6565
11.6854
11.7116
11.735
11.7557
11.7747
11.7934
11.8125
11.8323
11.8518
11.869
11.8825
11.8919
11.8977
11.9012
11.903
11.9038
1
1
1
1
1
1
1
1
1
1
1
1
1
1
1
1
1
1
1
1
1
1
1
1
1
1
1
1
1
1
1
1
1
1
1
1
1
1
1
1
1
1
1
1
1
1
1
1
1
5.10979
10.149
10.3595
10.4043
10.4696
10.5274
10.5865
10.6456
10.7044
10.761
10.8161
10.8682
10.9166
10.9618
11.0052
11.0485
11.091
11.1335
11.1764
11.2182
11.2588
11.2976
11.3352
11.3721
11.4085
11.4445
11.48
11.515
11.5491
11.5819
11.6128
11.6411
11.6665
11.6889
11.7087
11.727
11.7451
11.7642
11.784
11.8033
11.8203
11.8336
11.8427
11.8482
11.8514
11.8527
11.8533
1
1
1
1
1
1
1
1
1
1
1
1
1
1
1
1
1
1
1
1
1
1
1
1
1
1
1
1
1
1
1
1
1
1
1
1
1
1
1
1
1
1
1
1
1
1
1
1
1
4.02983
9.87381
10.3298
10.3774
10.4446
10.5011
10.5582
10.6143
10.6712
10.7265
10.7807
10.8329
10.8813
10.926
10.9677
11.0088
11.0491
11.0895
11.1312
11.1724
11.2122
11.2499
11.2856
11.3202
11.3544
11.3885
11.4225
11.4563
11.4895
11.5215
11.5516
11.5792
11.6038
11.6254
11.6447
11.6628
11.681
11.7002
11.72
11.739
11.7555
11.7683
11.7773
11.7828
11.7859
11.787
11.7877
1
1
1
1
1
1
1
1
1
1
1
1
1
1
1
1
1
1
1
1
1
1
1
1
1
1
1
1
1
1
1
1
1
1
1
1
1
1
1
1
1
1
1
1
1
1
1
1
1
2.90305
9.33481
10.3129
10.3742
10.4371
10.4864
10.5365
10.5873
10.6413
10.6952
10.7481
10.7993
10.8466
10.8894
10.9284
10.9668
11.0051
11.0436
11.0837
11.1237
11.1619
11.198
11.2313
11.2632
11.2944
11.3254
11.3562
11.3867
11.4169
11.4463
11.4743
11.5004
11.5242
11.5456
11.5651
11.5838
11.6025
11.6216
11.6406
11.6581
11.6727
11.6837
11.6914
11.6961
11.6987
11.6993
11.7
1
1
1
1
1
1
1
1
1
1
1
1
1
1
1
1
1
1
1
1
1
1
1
1
1
1
1
1
1
1
1
1
1
1
1
1
1
1
1
1
1
1
1
1
1
1
1
1
1
1.84128
8.37137
10.3599
10.343
10.3984
10.4436
10.4932
10.5436
10.5965
10.65
10.7024
10.7539
10.8019
10.8444
10.8817
10.9177
10.9542
10.9913
11.0303
11.0695
11.1065
11.1413
11.1734
11.2036
11.2324
11.2605
11.2877
11.3141
11.3396
11.3642
11.3876
11.4094
11.4296
11.4482
11.4654
11.4821
11.4988
11.5157
11.5325
11.5482
11.5614
11.5716
11.5789
11.5835
11.5864
11.5875
11.5884
1
1
1
1
1
1
1
1
1
1
1
1
1
1
1
1
1
1
1
1
1
1
1
1
1
1
1
1
1
1
1
1
1
1
1
1
1
1
1
1
1
1
1
1
1
1
1
1
1
1.03264
6.72204
10.3612
10.3711
10.4022
10.4396
10.4806
10.5236
10.5691
10.6175
10.6659
10.7134
10.7578
10.7963
10.8291
10.86
10.892
10.9252
10.9603
10.9964
11.0306
11.0628
11.0929
11.1207
11.147
11.1722
11.1962
11.2189
11.2404
11.2606
11.2796
11.2977
11.315
11.3316
11.3477
11.3633
11.3785
11.3931
11.4068
11.4185
11.427
11.4318
11.4327
11.4309
11.4292
11.4274
11.4269
1
1
1
1
1
1
1
1
1
1
1
1
1
1
1
1
1
1
1
1
1
1
1
1
1
1
1
1
1
1
1
1
1
1
1
1
1
1
1
1
1
1
1
1
1
1
1
1
1
1.00006
4.61313
9.92762
10.2024
10.2641
10.3261
10.3794
10.4276
10.4729
10.5185
10.5647
10.6104
10.6548
10.6943
10.7275
10.757
10.7867
10.8182
10.8519
10.8873
10.9216
10.9529
10.9816
11.0078
11.0326
11.0561
11.0782
11.0981
11.1156
11.131
11.1448
11.1575
11.1695
11.181
11.1917
11.2011
11.2086
11.2143
11.2191
11.2231
11.2261
11.2275
11.2274
11.2253
11.2236
11.2214
11.2208
1
1
1
1
1
1
1
1
1
1
1
1
1
1
1
1
1
1
1
1
1
1
1
1
1
1
1
1
1
1
1
1
1
1
1
1
1
1
1
1
1
1
1
1
1
1
1
1
1
1
2.39734
8.79676
10.1568
10.1987
10.2701
10.3251
10.3743
10.4185
10.46
10.501
10.5424
10.5842
10.6228
10.6546
10.6809
10.7055
10.7318
10.7614
10.7935
10.8252
10.8533
10.8773
10.8982
10.9175
10.936
10.9529
10.9672
10.9781
10.986
10.9916
10.9961
11.0001
11.0039
11.0075
11.0099
11.0103
11.0087
11.0061
11.003
10.9991
10.9909
10.9769
10.954
10.9259
10.897
10.8724
1
1
1
1
1
1
1
1
1
1
1
1
1
1
1
1
1
1
1
1
1
1
1
1
1
1
1
1
1
1
1
1
1
1
1
1
1
1
1
1
1
1
1
1
1
1
1
1
1
1
1.05932
6.39387
10.2379
10.235
10.2617
10.2895
10.3199
10.351
10.3823
10.415
10.4502
10.4872
10.5225
10.5521
10.5755
10.5953
10.6159
10.6399
10.667
10.6946
10.7193
10.7393
10.7555
10.7691
10.7815
10.7926
10.8007
10.8046
10.804
10.7995
10.7927
10.785
10.7777
10.7699
10.7596
10.7439
10.7211
10.692
10.6576
10.618
10.5724
10.5223
10.4765
10.4345
10.412
10.3997
1
1
1
1
1
1
1
1
1
1
1
1
1
1
1
1
1
1
1
1
1
1
1
1
1
1
1
1
1
1
1
1
1
1
1
1
1
1
1
1
1
1
1
1
1
1
1
1
1
1
1.00009
3.28093
9.3214
10.0853
10.1149
10.1487
10.1855
10.2237
10.26
10.2946
10.3292
10.3658
10.4028
10.4357
10.4611
10.4792
10.493
10.5074
10.5253
10.5463
10.5674
10.5852
10.5979
10.606
10.6105
10.6125
10.6122
10.6075
10.5966
10.5791
10.5564
10.5309
10.5052
10.4796
10.451
10.4151
10.3686
10.3116
10.2469
10.1784
10.1074
10.0349
9.94916
9.8662
9.75093
9.8378
1
1
1
1
1
1
1
1
1
1
1
1
1
1
1
1
1
1
1
1
1
1
1
1
1
1
1
1
1
1
1
1
1
1
1
1
1
1
1
1
1
1
1
1
1
1
1
1
1
1
1
1.24201
7.34684
10.1072
10.0777
10.0897
10.117
10.1461
10.1752
10.2043
10.2348
10.2686
10.3037
10.3353
10.3593
10.374
10.3818
10.3871
10.3955
10.4081
10.4228
10.4367
10.4464
10.4504
10.4469
10.4391
10.4289
10.4148
10.3944
10.3657
10.3285
10.285
10.2387
10.1913
10.1402
10.0799
10.0032
9.90556
9.78258
9.63394
9.44317
9.19585
8.82715
8.28036
7.35482
5.47123
1
1
1
1
1
1
1
1
1
1
1
1
1
1
1
1
1
1
1
1
1
1
1
1
1
1
1
1
1
1
1
1
1
1
1
1
1
1
1
1
1
1
1
1
1
1
1
1
1
1
1
1.00193
4.68944
9.7186
9.91607
9.95917
10.0043
10.0428
10.0766
10.1047
10.1306
10.1571
10.1877
10.2195
10.2479
10.2672
10.2762
10.2768
10.2766
10.2802
10.2887
10.2986
10.3061
10.307
10.2984
10.2835
10.2643
10.2408
10.2114
10.1739
10.1269
10.0704
10.006
9.93669
9.86101
9.77526
9.66803
9.53262
9.35491
9.1379
8.85487
8.50272
7.99927
7.33727
6.13706
4.53365
1
1
1
1
1
1
1
1
1
1
1
1
1
1
1
1
1
1
1
1
1
1
1
1
1
1
1
1
1
1
1
1
1
1
1
1
1
1
1
1
1
1
1
1
1
1
1
1
1
1
1
0.999996
1.9991
8.31005
9.86237
9.89013
9.93971
9.97456
10.0082
10.0353
10.0601
10.0799
10.101
10.1258
10.1515
10.1712
10.1789
10.1754
10.1677
10.1632
10.164
10.1673
10.169
10.1647
10.1514
10.1296
10.1009
10.0659
10.0246
9.97618
9.91884
9.85093
9.77056
9.68041
9.5791
9.46704
9.33115
9.16389
8.94722
8.68
8.34671
7.92757
7.3937
6.65147
5.64522
4.54325
1
1
1
1
1
1
1
1
1
1
1
1
1
1
1
1
1
1
1
1
1
1
1
1
1
1
1
1
1
1
1
1
1
1
1
1
1
1
1
1
1
1
1
1
1
1
1
1
1
1
1
0.999999
1.0357
5.46172
9.69241
9.82784
9.86148
9.89422
9.92869
9.96013
9.99071
10.0078
10.0174
10.0299
10.0445
10.0579
10.063
10.0587
10.0491
10.0403
10.0344
10.0298
10.0232
10.0125
9.99443
9.96716
9.93114
9.88672
9.83407
9.77457
9.70648
9.62827
9.5349
9.4281
9.30591
9.1709
9.01287
8.82245
8.58461
8.2917
7.93817
7.50195
6.97482
6.3066
5.53415
4.73094
1
1
1
1
1
1
1
1
1
1
1
1
1
1
1
1
1
1
1
1
1
1
1
1
1
1
1
1
1
1
1
1
1
1
1
1
1
1
1
1
1
1
1
1
1
1
1
1
1
1
1
1
1.00001
2.23276
8.43494
9.76932
9.78738
9.82417
9.84801
9.87792
9.90944
9.92745
9.9394
9.94814
9.95356
9.95516
9.95297
9.94467
9.93231
9.91955
9.9077
9.8953
9.88075
9.86241
9.83714
9.80329
9.75993
9.70769
9.64635
9.57796
9.50042
9.41247
9.30783
9.18748
9.05034
8.89811
8.72497
8.52139
8.27628
7.98013
7.63477
7.2103
6.72993
6.17359
5.56314
4.93484
1
1
1
1
1
1
1
1
1
1
1
1
1
1
1
1
1
1
1
1
1
1
1
1
1
1
1
1
1
1
1
1
1
1
1
1
1
1
1
1
1
1
1
1
1
1
1
1
1
1
1
1
0.999999
1.04929
5.47962
9.61083
9.75833
9.77914
9.78827
9.80543
9.82646
9.83876
9.84763
9.85411
9.85536
9.85039
9.84408
9.83423
9.82109
9.8047
9.78698
9.76697
9.74407
9.71756
9.68319
9.64033
9.58802
9.52848
9.46132
9.38736
9.30344
9.20742
9.0935
8.96305
8.81633
8.65393
8.47221
8.2633
8.0202
7.73266
7.40988
7.01829
6.5966
6.13851
5.63161
5.1228
1
1
1
1
1
1
1
1
1
1
1
1
1
1
1
1
1
1
1
1
1
1
1
1
1
1
1
1
1
1
1
1
1
1
1
1
1
1
1
1
1
1
1
1
1
1
1
1
1
1
1
1
1
1.00005
2.03295
8.18988
9.74768
9.70403
9.7201
9.737
9.74538
9.7483
9.75103
9.7529
9.74985
9.74044
9.73101
9.7203
9.7061
9.68629
9.66325
9.63644
9.60751
9.57556
9.53496
9.4838
9.42222
9.35475
9.28195
9.20343
9.11466
9.01272
8.8937
8.75894
8.60854
8.44216
8.25725
8.04809
7.81297
7.53654
7.24005
6.88906
6.52577
6.13723
5.70138
5.28292
1
1
1
1
1
1
1
1
1
1
1
1
1
1
1
1
1
1
1
1
1
1
1
1
1
1
1
1
1
1
1
1
1
1
1
1
1
1
1
1
1
1
1
1
1
1
1
1
1
1
1
1
1
1
1.03303
4.85645
9.38273
9.63329
9.62989
9.64613
9.66026
9.6674
9.67092
9.67065
9.6652
9.65112
9.63734
9.62471
9.60584
9.57988
9.54968
9.51603
9.47969
9.44185
9.39607
9.33869
9.26967
9.19481
9.11627
9.03238
8.93696
8.8288
8.70733
8.57267
8.42399
8.25961
8.07791
7.87257
7.64796
7.38356
7.11102
6.80064
6.4826
6.14071
5.77033
5.41508
1
1
1
1
1
1
1
1
1
1
1
1
1
1
1
1
1
1
1
1
1
1
1
1
1
1
1
1
1
1
1
1
1
1
1
1
1
1
1
1
1
1
1
1
1
1
1
1
1
1
1
1
1
1
1.00002
1.50704
7.53856
9.65496
9.59866
9.59032
9.58106
9.57706
9.5732
9.56775
9.55981
9.54443
9.52837
9.51387
9.49118
9.45885
9.42417
9.38686
9.3448
9.30347
9.25535
9.19659
9.12566
9.04677
8.9636
8.87379
8.77083
8.65773
8.53565
8.40319
8.25939
8.10111
7.928
7.72914
7.51441
7.2655
7.01734
6.73696
6.44973
6.14617
5.83464
5.51805
1
1
1
1
1
1
1
1
1
1
1
1
1
1
1
1
1
1
1
1
1
1
1
1
1
1
1
1
1
1
1
1
1
1
1
1
1
1
1
1
1
1
1
1
1
1
1
1
1
1
1
1
1
1
1
1.00767
3.82193
8.94176
9.41917
9.46875
9.47911
9.47259
9.46553
9.45888
9.45049
9.436
9.41755
9.4004
9.37509
9.33972
9.30219
9.26332
9.21627
9.17096
9.11842
9.05825
8.98788
8.90949
8.82394
8.72845
8.61967
8.50346
8.38059
8.24956
8.11093
7.96007
7.79821
7.60879
7.40464
7.17726
6.94889
6.68854
6.43132
6.16497
5.89031
5.59702
1
1
1
1
1
1
1
1
1
1
1
1
1
1
1
1
1
1
1
1
1
1
1
1
1
1
1
1
1
1
1
1
1
1
1
1
1
1
1
1
1
1
1
1
1
1
1
1
1
1
1
1
1
1
1
1
1.21377
6.19617
9.404
9.41118
9.39452
9.38011
9.37316
9.36628
9.35745
9.344
9.32271
9.30139
9.27206
9.23203
9.19073
9.14867
9.09795
9.04616
8.98749
8.92529
8.85684
8.7802
8.69487
8.59705
8.48611
8.37017
8.24811
8.11798
7.98234
7.83619
7.68284
7.50296
7.312
7.10752
6.89213
6.65496
6.43025
6.18788
5.92909
5.66734
1
1
1
1
1
1
1
1
1
1
1
1
1
1
1
1
1
1
1
1
1
1
1
1
1
1
1
1
1
1
1
1
1
1
1
1
1
1
1
1
1
1
1
1
1
1
1
1
1
1
1
1
1
1
1
1
1.00139
2.17728
8.03779
9.30755
9.26238
9.26727
9.26404
9.25867
9.25104
9.23843
9.21781
9.19458
9.16792
9.12668
9.08242
9.03635
8.98321
8.9263
8.86352
8.79977
8.7327
8.65381
8.56751
8.4711
8.36323
8.25261
8.1332
8.00509
7.87203
7.72758
7.57943
7.40994
7.23307
7.04564
6.84563
6.63948
6.43362
6.20143
5.96774
5.74187
1
1
1
1
1
1
1
1
1
1
1
1
1
1
1
1
1
1
1
1
1
1
1
1
1
1
1
1
1
1
1
1
1
1
1
1
1
1
1
1
1
1
1
1
1
1
1
1
1
1
1
1
1
1
1
1
1
1.0397
4.17977
8.89748
9.16408
9.18429
9.18574
9.17531
9.16276
9.14464
9.11997
9.09245
9.0668
9.02613
8.97953
8.93062
8.87636
8.81686
8.75407
8.68836
8.62104
8.54015
8.45089
8.35581
8.25203
8.14479
8.03294
7.91141
7.78267
7.63888
7.49348
7.33407
7.1669
6.99199
6.81169
6.62772
6.42732
6.21712
6.01474
5.81088
1
1
1
1
1
1
1
1
1
1
1
1
1
1
1
1
1
1
1
1
1
1
1
1
1
1
1
1
1
1
1
1
1
1
1
1
1
1
1
1
1
1
1
1
1
1
1
1
1
1
1
1
1
1
1
1
1
1.00008
1.25887
5.74335
9.02438
9.15915
9.1302
9.1178
9.09859
9.07195
9.04045
9.00584
8.97501
8.93425
8.88552
8.83348
8.77776
8.71685
8.65447
8.58788
8.51978
8.43938
8.34905
8.25329
8.15108
8.04433
7.93629
7.82282
7.70059
7.56452
7.42343
7.27418
7.1157
6.95233
6.78771
6.6135
6.42535
6.24535
6.06428
5.87383
1
1
1
1
1
1
1
1
1
1
1
1
1
1
1
1
1
1
1
1
1
1
1
1
1
1
1
1
1
1
1
1
1
1
1
1
1
1
1
1
1
1
1
1
1
1
1
1
1
1
1
1
1
1
1
1
1
1
1.00211
1.62986
7.26856
9.16962
9.11426
9.0705
9.02381
8.98334
8.94411
8.90567
8.87189
8.83338
8.7877
8.73636
8.68186
8.62288
8.56097
8.49461
8.42387
8.34638
8.2556
8.16109
8.06132
7.95715
7.85054
7.74067
7.62579
7.50089
7.36932
7.23108
7.08314
6.92998
6.77457
6.60947
6.44123
6.2832
6.1168
5.94159
1
1
1
1
1
1
1
1
1
1
1
1
1
1
1
1
1
1
1
1
1
1
1
1
1
1
1
1
1
1
1
1
1
1
1
1
1
1
1
1
1
1
1
1
1
1
1
1
1
1
1
1
1
1
1
1
1
1
1
1.01143
3.04329
8.32312
8.96047
8.90164
8.87307
8.84576
8.81932
8.79006
8.76138
8.72861
8.68987
8.64501
8.59248
8.53604
8.47497
8.40803
8.3357
8.25904
8.1708
8.07855
7.98164
7.88097
7.77741
7.66996
7.55965
7.44395
7.3245
7.19726
7.05963
6.91994
6.77642
6.62549
6.4798
6.33903
6.18644
6.03206
1
1
1
1
1
1
1
1
1
1
1
1
1
1
1
1
1
1
1
1
1
1
1
1
1
1
1
1
1
1
1
1
1
1
1
1
1
1
1
1
1
1
1
1
1
1
1
1
1
1
1
1
1
1
1
1
1
1
1
1.00002
1.1085
4.36974
8.60165
8.79562
8.77504
8.77415
8.75868
8.73353
8.70147
8.6633
8.62012
8.57337
8.52101
8.46302
8.40531
8.33572
8.26166
8.18362
8.0967
8.00581
7.91202
7.81597
7.71855
7.61634
7.51101
7.40388
7.29361
7.17456
7.04951
6.9284
6.80189
6.67307
6.54883
6.42325
6.28786
6.15441
1
1
1
1
1
1
1
1
1
1
1
1
1
1
1
1
1
1
1
1
1
1
1
1
1
1
1
1
1
1
1
1
1
1
1
1
1
1
1
1
1
1
1
1
1
1
1
1
1
1
1
1
1
1
1
1
1
1
1
1
1.00051
1.29445
5.19203
8.58122
8.71782
8.71976
8.70847
8.68171
8.64642
8.60501
8.55806
8.50747
8.45261
8.39265
8.33303
8.26406
8.19018
8.11179
8.02766
7.94046
7.85185
7.76233
7.67124
7.57474
7.47538
7.37696
7.2771
7.17241
7.07045
6.97243
6.86407
6.75717
6.65403
6.54173
6.42101
6.30197
1
1
1
1
1
1
1
1
1
1
1
1
1
1
1
1
1
1
1
1
1
1
1
1
1
1
1
1
1
1
1
1
1
1
1
1
1
1
1
1
1
1
1
1
1
1
1
1
1
1
1
1
1
1
1
1
1
1
1
1
1
1.00283
1.49116
5.86611
8.58095
8.69091
8.66279
8.63106
8.59301
8.54852
8.4997
8.44693
8.38972
8.32837
8.26665
8.19901
8.12702
8.05053
7.97028
7.88835
7.80538
7.72199
7.63675
7.54786
7.46019
7.37851
7.29905
7.21908
7.14138
7.06076
6.96718
6.87699
6.78521
6.67831
6.56598
6.45524
1
1
1
1
1
1
1
1
1
1
1
1
1
1
1
1
1
1
1
1
1
1
1
1
1
1
1
1
1
1
1
1
1
1
1
1
1
1
1
1
1
1
1
1
1
1
1
1
1
1
1
1
1
1
1
1
1
1
1
1
1
1
1.00722
1.71846
6.44676
8.56345
8.61099
8.58094
8.53779
8.49239
8.44174
8.38737
8.32763
8.26592
8.20246
8.1348
8.06412
7.99095
7.91697
7.84261
7.76683
7.69348
7.62371
7.55632
7.49373
7.43671
7.37816
7.31639
7.25572
7.18156
7.09419
7.01161
6.92016
6.81289
6.70768
6.60327
1
1
1
1
1
1
1
1
1
1
1
1
1
1
1
1
1
1
1
1
1
1
1
1
1
1
1
1
1
1
1
1
1
1
1
1
1
1
1
1
1
1
1
1
1
1
1
1
1
1
1
1
1
1
1
1
1
1
1
1
1
1
1.00001
1.0146
1.98012
6.89155
8.53458
8.5398
8.50127
8.44851
8.39459
8.33603
8.27289
8.20864
8.1429
8.07528
8.00703
7.93865
7.87202
7.80765
7.74902
7.6998
7.65714
7.62007
7.58604
7.5468
7.50009
7.44867
7.38885
7.31005
7.22624
7.1451
7.04905
6.94402
6.84733
6.74745
1
1
1
1
1
1
1
1
1
1
1
1
1
1
1
1
1
1
1
1
1
1
1
1
1
1
1
1
1
1
1
1
1
1
1
1
1
1
1
1
1
1
1
1
1
1
1
1
1
1
1
1
1
1
1
1
1
1
1
1
1
1
1
1.00003
1.02632
2.2417
7.28413
8.4965
8.45417
8.40453
8.34149
8.27987
8.21471
8.14914
8.08237
8.01633
7.95273
7.8914
7.83862
7.79917
7.7749
7.76304
7.75376
7.74104
7.72304
7.68929
7.6449
7.59201
7.52135
7.43674
7.35658
7.27313
7.17451
7.07769
6.98772
6.88989
1
1
1
1
1
1
1
1
1
1
1
1
1
1
1
1
1
1
1
1
1
1
1
1
1
1
1
1
1
1
1
1
1
1
1
1
1
1
1
1
1
1
1
1
1
1
1
1
1
1
1
1
1
1
1
1
1
1
1
1
1
1
1
1
1.00008
1.04156
2.64176
7.51989
8.38348
8.32925
8.28484
8.22276
8.15785
8.09052
8.02626
7.96492
7.91069
7.87457
7.85921
7.8667
7.88418
7.90169
7.91257
7.91057
7.88755
7.84266
7.79167
7.73031
7.64835
7.56408
7.48739
7.40088
7.30547
7.21945
7.13258
7.03495
1
1
1
1
1
1
1
1
1
1
1
1
1
1
1
1
1
1
1
1
1
1
1
1
1
1
1
1
1
1
1
1
1
1
1
1
1
1
1
1
1
1
1
1
1
1
1
1
1
1
1
1
1
1
1
1
1
1
1
1
1
1
1
1
1
1.00015
1.07134
2.92653
7.56581
8.26822
8.21519
8.15723
8.09852
8.03834
7.97985
7.9392
7.91797
7.92678
7.9715
8.02621
8.07086
8.09867
8.10833
8.08853
8.04509
7.98463
7.92571
7.85528
7.76823
7.69057
7.61616
7.52863
7.44126
7.36405
7.27832
7.18297
1
1
1
1
1
1
1
1
1
1
1
1
1
1
1
1
1
1
1
1
1
1
1
1
1
1
1
1
1
1
1
1
1
1
1
1
1
1
1
1
1
1
1
1
1
1
1
1
1
1
1
1
1
1
1
1
1
1
1
1
1
1
1
1
1
1
1.00034
1.09909
3.01688
7.48767
8.15707
8.1042
8.04651
7.99421
7.96146
7.95749
8.00804
8.09327
8.18458
8.25881
8.30048
8.3106
8.29255
8.24851
8.18664
8.11948
8.05707
7.98193
7.89741
7.82732
7.7523
7.6645
7.58342
7.50897
7.42353
7.33245
1
1
1
1
1
1
1
1
1
1
1
1
1
1
1
1
1
1
1
1
1
1
1
1
1
1
1
1
1
1
1
1
1
1
1
1
1
1
1
1
1
1
1
1
1
1
1
1
1
1
1
1
1
1
1
1
1
1
1
1
1
1
1
1
1
1
1
1.00057
1.11083
2.95281
7.35405
8.05968
8.00788
7.99059
8.00918
8.09574
8.23205
8.36876
8.46898
8.52485
8.53552
8.50902
8.46021
8.39626
8.32205
8.25185
8.18568
8.1087
8.03072
7.96588
7.89046
7.80644
7.73116
7.65659
7.57226
7.48566
1
1
1
1
1
1
1
1
1
1
1
1
1
1
1
1
1
1
1
1
1
1
1
1
1
1
1
1
1
1
1
1
1
1
1
1
1
1
1
1
1
1
1
1
1
1
1
1
1
1
1
1
1
1
1
1
1
1
1
1
1
1
1
1
1
1
1
1
1.0007
1.10559
2.86878
7.14901
7.97667
8.04684
8.17494
8.40607
8.58778
8.69989
8.74893
8.75331
8.7188
8.66549
8.60377
8.53152
8.4597
8.39606
8.32912
8.25067
8.17517
8.10743
8.02873
7.94861
7.87748
7.80201
7.71954
7.63841
1
1
1
1
1
1
1
1
1
1
1
1
1
1
1
1
1
1
1
1
1
1
1
1
1
1
1
1
1
1
1
1
1
1
1
1
1
1
1
1
1
1
1
1
1
1
1
1
1
1
1
1
1
1
1
1
1
1
1
1
1
1
1
1
1
1
1
1
1
1.00065
1.09682
2.71429
6.94274
8.24765
8.62075
8.83395
8.94688
8.98802
8.97309
8.92364
8.86015
8.79723
8.72829
8.65239
8.59085
8.53697
8.46827
8.3891
8.32261
8.25991
8.18217
8.10355
8.03192
7.95276
7.86892
7.79083
1
1
1
1
1
1
1
1
1
1
1
1
1
1
1
1
1
1
1
1
1
1
1
1
1
1
1
1
1
1
1
1
1
1
1
1
1
1
1
1
1
1
1
1
1
1
1
1
1
1
1
1
1
1
1
1
1
1
1
1
1
1
1
1
1
1
1
1
1
1
1.00058
1.08156
2.54455
7.80791
9.18085
9.19863
9.19697
9.17067
9.12616
9.06472
9.00102
8.94141
8.87221
8.79657
8.73752
8.68169
8.60375
8.52105
8.46254
8.40652
8.32742
8.24544
8.17764
8.10493
8.02481
7.94828
1
1
1
1
1
1
1
1
1
1
1
1
1
1
1
1
1
1
1
1
1
1
1
1
1
1
1
1
1
1
1
1
1
1
1
1
1
1
1
1
1
1
1
1
1
1
1
1
1
1
1
1
1
1
1
1
1
1
1
1
1
1
1
1
1
1
1
1
1
1
1
1.00049
1.06599
4.49175
9.28758
9.4643
9.42374
9.35414
9.2768
9.19403
9.12383
9.06715
9.0009
8.9322
8.87848
8.82727
8.75388
8.67778
8.62066
8.56241
8.4758
8.38498
8.31984
8.25614
8.1755
8.09536
1
1
1
1
1
1
1
1
1
1
1
1
1
1
1
1
1
1
1
1
1
1
1
1
1
1
1
1
1
1
1
1
1
1
1
1
1
1
1
1
1
1
1
1
1
1
1
1
1
1
1
1
1
1
1
1
1
1
1
1
1
1
1
1
1
1
1
1
1
1
1
1
1.00022
1.35511
7.40962
9.82113
9.56265
9.45102
9.36763
9.30315
9.25277
9.20419
9.13653
9.06958
9.01767
8.96279
8.88851
8.81527
8.75731
8.70096
8.62093
8.53891
8.47874
8.41844
8.33206
8.24901
1
1
1
1
1
1
1
1
1
1
1
1
1
1
1
1
1
1
1
1
1
1
1
1
1
1
1
1
1
1
1
1
1
1
1
1
1
1
1
1
1
1
1
1
1
1
1
1
1
1
1
1
1
1
1
1
1
1
1
1
1
1
1
1
1
1
1
1
1
1
1
1
1
1.00344
3.69645
9.00651
9.50555
9.48177
9.46215
9.43061
9.3823
9.32565
9.26337
9.21228
9.16605
9.10513
9.03059
8.95942
8.90244
8.84262
8.76274
8.68313
8.62176
8.55911
8.4778
8.40374
1
1
1
1
1
1
1
1
1
1
1
1
1
1
1
1
1
1
1
1
1
1
1
1
1
1
1
1
1
1
1
1
1
1
1
1
1
1
1
1
1
1
1
1
1
1
1
1
1
1
1
1
1
1
1
1
1
1
1
1
1
1
1
1
1
1
1
1
1
1
1
1
1
1
1.18843
6.94743
9.72686
9.71159
9.64725
9.57974
9.51781
9.45833
9.40591
9.35257
9.29173
9.22411
9.15667
9.09726
9.04209
8.97626
8.89799
8.82351
8.76581
8.70046
8.62378
8.55123
1
1
1
1
1
1
1
1
1
1
1
1
1
1
1
1
1
1
1
1
1
1
1
1
1
1
1
1
1
1
1
1
1
1
1
1
1
1
1
1
1
1
1
1
1
1
1
1
1
1
1
1
1
1
1
1
1
1
1
1
1
1
1
1
1
1
1
1
1
1
1
1
1
1
1.00103
3.46248
9.01197
9.67973
9.64409
9.6034
9.56625
9.52524
9.48375
9.4382
9.38556
9.32928
9.27316
9.21464
9.15134
9.08332
9.01563
8.95779
8.90587
8.83936
8.767
8.69592
1
1
1
1
1
1
1
1
1
1
1
1
1
1
1
1
1
1
1
1
1
1
1
1
1
1
1
1
1
1
1
1
1
1
1
1
1
1
1
1
1
1
1
1
1
1
1
1
1
1
1
1
1
1
1
1
1
1
1
1
1
1
1
1
1
1
1
1
1
1
1
1
1
1
1
1.1693
7.12885
9.85207
9.78404
9.7175
9.67537
9.63315
9.58656
9.53474
9.48224
9.42933
9.37585
9.32007
9.26192
9.20459
9.14868
9.09096
9.027
8.95808
8.88943
8.82534
1
1
1
1
1
1
1
1
1
1
1
1
1
1
1
1
1
1
1
1
1
1
1
1
1
1
1
1
1
1
1
1
1
1
1
1
1
1
1
1
1
1
1
1
1
1
1
1
1
1
1
1
1
1
1
1
1
1
1
1
1
1
1
1
1
1
1
1
1
1
1
1
1
1
1
1.00081
3.97797
9.32124
9.79377
9.75865
9.72269
9.68096
9.63727
9.59088
9.54369
9.49589
9.44718
9.39742
9.34618
9.29431
9.24244
9.18726
9.1271
9.06559
9.00293
8.94175
1
1
1
1
1
1
1
1
1
1
1
1
1
1
1
1
1
1
1
1
1
1
1
1
1
1
1
1
1
1
1
1
1
1
1
1
1
1
1
1
1
1
1
1
1
1
1
1
1
1
1
1
1
1
1
1
1
1
1
1
1
1
1
1
1
1
1
1
1
1
1
1
1
1
1
0.999999
1.53515
7.9119
9.97183
9.86607
9.80682
9.7555
9.7094
9.6658
9.62309
9.57964
9.53488
9.48798
9.43898
9.38605
9.3297
9.273
9.21558
9.15828
9.10022
9.04147
1
1
1
1
1
1
1
1
1
1
1
1
1
1
1
1
1
1
1
1
1
1
1
1
1
1
1
1
1
1
1
1
1
1
1
1
1
1
1
1
1
1
1
1
1
1
1
1
1
1
1
1
1
1
1
1
1
1
1
1
1
1
1
1
1
1
1
1
1
1
1
1
1
1
1
1
1.0087
5.39902
9.78376
9.90564
9.8681
9.82071
9.77236
9.72739
9.68296
9.63799
9.59198
9.54435
9.49518
9.44485
9.39356
9.34032
9.28533
9.22981
9.17424
9.11751
1
1
1
1
1
1
1
1
1
1
1
1
1
1
1
1
1
1
1
1
1
1
1
1
1
1
1
1
1
1
1
1
1
1
1
1
1
1
1
1
1
1
1
1
1
1
1
1
1
1
1
1
1
1
1
1
1
1
1
1
1
1
1
1
1
1
1
1
1
1
1
1
1
1
1
1
0.999997
2.70921
8.83937
9.98445
9.92249
9.88218
9.83585
9.79215
9.74666
9.6999
9.65196
9.60306
9.55382
9.50449
9.45446
9.4042
9.35386
9.30259
9.25073
9.19728
1
1
1
1
1
1
1
1
1
1
1
1
1
1
1
1
1
1
1
1
1
1
1
1
1
1
1
1
1
1
1
1
1
1
1
1
1
1
1
1
1
1
1
1
1
1
1
1
1
1
1
1
1
1
1
1
1
1
1
1
1
1
1
1
1
1
1
1
1
1
1
1
1
1
1
1
0.999999
1.10359
7.14988
10.1095
10.0131
9.94307
9.89289
9.84683
9.80087
9.75368
9.70527
9.6561
9.60674
9.55692
9.50684
9.45675
9.40615
9.35479
9.30291
9.24986
1
1
1
1
1
1
1
1
1
1
1
1
1
1
1
1
1
1
1
1
1
1
1
1
1
1
1
1
1
1
1
1
1
1
1
1
1
1
1
1
1
1
1
1
1
1
1
1
1
1
1
1
1
1
1
1
1
1
1
1
1
1
1
1
1
1
1
1
1
1
1
1
1
1
1
1
1
1.00027
4.84879
9.71717
9.96222
9.94559
9.91847
9.87383
9.8293
9.78366
9.73759
9.69106
9.64453
9.59729
9.54988
9.50204
9.45325
9.40388
9.35372
9.30277
1
1
1
1
1
1
1
1
1
1
1
1
1
1
1
1
1
1
1
1
1
1
1
1
1
1
1
1
1
1
1
1
1
1
1
1
1
1
1
1
1
1
1
1
1
1
1
1
1
1
1
1
1
1
1
1
1
1
1
1
1
1
1
1
1
1
1
1
1
1
1
1
1
1
1
1
1
0.999999
2.65183
8.89475
10.1225
10.0478
10.0028
9.94858
9.90099
9.85408
9.80741
9.76039
9.7132
9.66512
9.61673
9.5678
9.51808
9.46808
9.41738
9.36609
1
1
1
1
1
1
1
1
1
1
1
1
1
1
1
1
1
1
1
1
1
1
1
1
1
1
1
1
1
1
1
1
1
1
1
1
1
1
1
1
1
1
1
1
1
1
1
1
1
1
1
1
1
1
1
1
1
1
1
1
1
1
1
1
1
1
1
1
1
1
1
1
1
1
1
1
1
1
1.2217
7.40056
10.2034
10.0962
10.0242
9.97376
9.92822
9.88363
9.83923
9.7945
9.74927
9.70304
9.65607
9.60844
9.56
9.51114
9.46165
9.41139
1
1
1
1
1
1
1
1
1
1
1
1
1
1
1
1
1
1
1
1
1
1
1
1
1
1
1
1
1
1
1
1
1
1
1
1
1
1
1
1
1
1
1
1
1
1
1
1
1
1
1
1
1
1
1
1
1
1
1
1
1
1
1
1
1
1
1
1
1
1
1
1
1
1
1
1
1
1
1.00168
5.56049
9.9912
10.0865
10.0521
10.019
9.97369
9.92675
9.88011
9.83407
9.78845
9.74249
9.69597
9.64903
9.6014
9.55326
9.50457
9.45504
1
1
1
1
1
1
1
1
1
1
1
1
1
1
1
1
1
1
1
1
1
1
1
1
1
1
1
1
1
1
1
1
1
1
1
1
1
1
1
1
1
1
1
1
1
1
1
1
1
1
1
1
1
1
1
1
1
1
1
1
1
1
1
1
1
1
1
1
1
1
1
1
1
1
1
1
1
1
0.999998
3.66103
9.45051
10.0805
10.0358
10.0134
9.97579
9.93737
9.89708
9.85554
9.8128
9.76915
9.72445
9.67898
9.63279
9.58587
9.53844
9.49019
1
1
1
1
1
1
1
1
1
1
1
1
1
1
1
1
1
1
1
1
1
1
1
1
1
1
1
1
1
1
1
1
1
1
1
1
1
1
1
1
1
1
1
1
1
1
1
1
1
1
1
1
1
1
1
1
1
1
1
1
1
1
1
1
1
1
1
1
1
1
1
1
1
1
1
1
1
1
1
2.12783
8.54446
10.2535
10.1684
10.1191
10.0652
10.0165
9.96915
9.92259
9.87611
9.82939
9.78246
9.7352
9.68759
9.63968
9.59144
9.54281
1
1
1
1
1
1
1
1
1
1
1
1
1
1
1
1
1
1
1
1
1
1
1
1
1
1
1
1
1
1
1
1
1
1
1
1
1
1
1
1
1
1
1
1
1
1
1
1
1
1
1
1
1
1
1
1
1
1
1
1
1
1
1
1
1
1
1
1
1
1
1
1
1
1
1
1
1
1
1
1.13127
7.1859
10.299
10.1994
10.1252
10.0755
10.0334
9.99164
9.94834
9.90407
9.85883
9.81313
9.76689
9.72008
9.67306
9.62554
9.57766
1
1
1
1
1
1
1
1
1
1
1
1
1
1
1
1
1
1
1
1
1
1
1
1
1
1
1
1
1
1
1
1
1
1
1
1
1
1
1
1
1
1
1
1
1
1
1
1
1
1
1
1
1
1
1
1
1
1
1
1
1
1
1
1
1
1
1
1
1
1
1
1
1
1
1
1
1
1
1
1.00071
5.73056
10.1177
10.1823
10.1366
10.1007
10.0588
10.0162
9.97232
9.92824
9.88352
9.83851
9.79314
9.74704
9.70082
9.65406
9.60692
1
1
1
1
1
1
1
1
1
1
1
1
1
1
1
1
1
1
1
1
1
1
1
1
1
1
1
1
1
1
1
1
1
1
1
1
1
1
1
1
1
1
1
1
1
1
1
1
1
1
1
1
1
1
1
1
1
1
1
1
1
1
1
1
1
1
1
1
1
1
1
1
1
1
1
1
1
1
1
1
4.30593
9.77456
10.1904
10.1453
10.118
10.0797
10.0401
9.9984
9.95586
9.91218
9.86799
9.82325
9.77749
9.73146
9.68482
9.63766
1
1
1
1
1
1
1
1
1
1
1
1
1
1
1
1
1
1
1
1
1
1
1
1
1
1
1
1
1
1
1
1
1
1
1
1
1
1
1
1
1
1
1
1
1
1
1
1
1
1
1
1
1
1
1
1
1
1
1
1
1
1
1
1
1
1
1
1
1
1
1
1
1
1
1
1
1
1
1
1
3.0206
9.25426
10.2365
10.1714
10.1398
10.0979
10.0563
10.0135
9.97074
9.92714
9.88304
9.83875
9.7939
9.74869
9.70299
9.65708
1
1
1
1
1
1
1
1
1
1
1
1
1
1
1
1
1
1
1
1
1
1
1
1
1
1
1
1
1
1
1
1
1
1
1
1
1
1
1
1
1
1
1
1
1
1
1
1
1
1
1
1
1
1
1
1
1
1
1
1
1
1
1
1
1
1
1
1
1
1
1
1
1
1
1
1
1
1
1
1
2.00805
8.57194
10.3067
10.2264
10.1867
10.1421
10.0987
10.055
10.0114
9.96735
9.92292
9.87829
9.8333
9.78798
9.74234
9.69631
1
1
1
1
1
1
1
1
1
1
1
1
1
1
1
1
1
1
1
1
1
1
1
1
1
1
1
1
1
1
1
1
1
1
1
1
1
1
1
1
1
1
1
1
1
1
1
1
1
1
1
1
1
1
1
1
1
1
1
1
1
1
1
1
1
1
1
1
1
1
1
1
1
1
1
1
1
1
1
1
1.34721
7.63544
10.3615
10.262
10.2035
10.1547
10.1107
10.0677
10.0252
9.98228
9.9386
9.89489
9.85109
9.80678
9.76203
9.71699
1
1
1
1
1
1
1
1
1
1
1
1
1
1
1
1
1
1
1
1
1
1
1
1
1
1
1
1
1
1
1
1
1
1
1
1
1
1
1
1
1
1
1
1
1
1
1
1
1
1
1
1
1
1
1
1
1
1
1
1
1
1
1
1
1
1
1
1
1
1
1
1
1
1
1
1
1
1
1
1
1.00772
6.68901
10.3054
10.2764
10.2176
10.173
10.1289
10.0857
10.0427
9.99977
9.95619
9.91277
9.86934
9.82557
9.78115
9.73652
1
1
1
1
1
1
1
1
1
1
1
1
1
1
1
1
1
1
1
1
1
1
1
1
1
1
1
1
1
1
1
1
1
1
1
1
1
1
1
1
1
1
1
1
1
1
1
1
1
1
1
1
1
1
1
1
1
1
1
1
1
1
1
1
1
1
1
1
1
1
1
1
1
1
1
1
1
1
1
1
1.00001
5.73804
10.1625
10.2588
10.2073
10.1749
10.135
10.0953
10.0547
10.0136
9.97157
9.92943
9.88673
9.84378
9.79972
9.75556
1
1
1
1
1
1
1
1
1
1
1
1
1
1
1
1
1
1
1
1
1
1
1
1
1
1
1
1
1
1
1
1
1
1
1
1
1
1
1
1
1
1
1
1
1
1
1
1
1
1
1
1
1
1
1
1
1
1
1
1
1
1
1
1
1
1
1
1
1
1
1
1
1
1
1
1
1
1
1
1
1
4.8152
9.99533
10.2709
10.217
10.1876
10.1493
10.1112
10.0715
10.0313
9.99008
9.94839
9.90585
9.86312
9.81921
9.77509
1
1
1
1
1
1
1
1
1
1
1
1
1
1
1
1
1
1
1
1
1
1
1
1
1
1
1
1
1
1
1
1
1
1
1
1
1
1
1
1
1
1
1
1
1
1
1
1
1
1
1
1
1
1
1
1
1
1
1
1
1
1
1
1
1
1
1
1
1
1
1
1
1
1
1
1
1
1
1
1
1
4.00775
9.77543
10.2988
10.2333
10.2026
10.1646
10.127
10.0878
10.0477
10.0069
9.96502
9.92265
9.8798
9.83604
9.79192
1
1
1
1
1
1
1
1
1
1
1
1
1
1
1
1
1
1
1
1
1
1
1
1
1
1
1
1
1
1
1
1
1
1
1
1
1
1
1
1
1
1
1
1
1
1
1
1
1
1
1
1
1
1
1
1
1
1
1
1
1
1
1
1
1
1
1
1
1
1
1
1
1
1
1
1
1
1
1
1
1
3.33735
9.52022
10.3279
10.2501
10.2156
10.1763
10.1378
10.0985
10.0583
10.018
9.97616
9.93437
9.89154
9.84813
9.80417
1
1
1
1
1
1
1
1
1
1
1
1
1
1
1
1
1
1
1
1
1
1
1
1
1
1
1
1
1
1
1
1
1
1
1
1
1
1
1
1
1
1
1
1
1
1
1
1
1
1
1
1
1
1
1
1
1
1
1
1
1
1
1
1
1
1
1
1
1
1
1
1
1
1
1
1
1
1
1
1
1
2.77935
9.29285
10.3426
10.2622
10.2267
10.1866
10.1474
10.1077
10.0672
10.0271
9.98523
9.9438
9.90105
9.8581
9.81449
1
1
1
1
1
1
1
1
1
1
1
1
1
1
1
1
1
1
1
1
1
1
1
1
1
1
1
1
1
1
1
1
1
1
1
1
1
1
1
1
1
1
1
1
1
1
1
1
1
1
1
1
1
1
1
1
1
1
1
1
1
1
1
1
1
1
1
1
1
1
1
1
1
1
1
1
1
1
1
1
1
2.36292
9.02135
10.3563
10.2737
10.2369
10.196
10.1563
10.1163
10.0755
10.0354
9.99364
9.95235
9.90955
9.86686
9.82342
1
1
1
1
1
1
1
1
1
1
1
1
1
1
1
1
1
1
1
1
1
1
1
1
1
1
1
1
1
1
1
1
1
1
1
1
1
1
1
1
1
1
1
1
1
1
1
1
1
1
1
1
1
1
1
1
1
1
1
1
1
1
1
1
1
1
1
1
1
1
1
1
1
1
1
1
1
1
1
1
1
2.07321
8.75886
10.3618
10.2809
10.2438
10.2028
10.163
10.1229
10.0822
10.042
10.0005
9.9594
9.91677
9.87429
9.83109
1
1
1
1
1
1
1
1
1
1
1
1
1
1
1
1
1
1
1
1
1
1
1
1
1
1
1
1
1
1
1
1
1
1
1
1
1
1
1
1
1
1
1
1
1
1
1
1
1
1
1
1
1
1
1
1
1
1
1
1
1
1
1
1
1
1
1
1
1
1
1
1
1
1
1
1
1
1
1
1
1
1.87534
8.52917
10.3591
10.2834
10.2471
10.2064
10.167
10.1271
10.0866
10.0464
10.0053
9.96431
9.92196
9.87961
9.83671
1
1
1
1
1
1
1
1
1
1
1
1
1
1
1
1
1
1
1
1
1
1
1
1
1
1
1
1
1
1
1
1
1
1
1
1
1
1
1
1
1
1
1
1
1
1
1
1
1
1
1
1
1
1
1
1
1
1
1
1
1
1
1
1
1
1
1
1
1
1
1
1
1
1
1
1
1
1
1
1
1
1.74132
8.34621
10.3552
10.2846
10.2489
10.2088
10.1701
10.1307
10.0907
10.0504
10.0099
9.96911
9.92703
9.88477